/*--------------------------------*- C++ -*----------------------------------*\
| =========                 |                                                 |
| \\      /  F ield         | OpenFOAM: The Open Source CFD Toolbox           |
|  \\    /   O peration     | Version:  v1906                                 |
|   \\  /    A nd           | Web:      www.OpenFOAM.com                      |
|    \\/     M anipulation  |                                                 |
\*---------------------------------------------------------------------------*/
FoamFile
{
    version     2.0;
    format      ascii;
    class       volVectorField;
    location    "84.4/oil";
    object      U;
}
// * * * * * * * * * * * * * * * * * * * * * * * * * * * * * * * * * * * * * //

dimensions      [0 1 -1 0 0 0 0];


internalField   nonuniform List<vector> 
27760
(
(-2.38824e-05 -2.43291e-05 -2.38824e-05)
(-4.71375e-05 -1.82477e-05 -1.72101e-05)
(-3.4253e-06 -4.72447e-06 -4.72002e-06)
(-5.56198e-06 -7.60513e-07 -8.79549e-07)
(-1.06957e-06 -2.32602e-07 -3.72847e-07)
(-3.0571e-07 -8.49602e-08 -2.39166e-07)
(3.82132e-07 5.44141e-09 -1.61095e-07)
(7.37505e-07 4.59676e-08 -1.29759e-07)
(9.37141e-07 7.01467e-08 -1.11548e-07)
(1.01182e-06 8.60863e-08 -9.87442e-08)
(9.83614e-07 9.76143e-08 -8.80419e-08)
(8.65973e-07 1.06602e-07 -7.8478e-08)
(6.73548e-07 1.13348e-07 -7.0606e-08)
(4.23609e-07 1.17938e-07 -6.4916e-08)
(1.37042e-07 1.20321e-07 -6.18707e-08)
(-1.62871e-07 1.20468e-07 -6.17246e-08)
(-4.52181e-07 1.18422e-07 -6.44348e-08)
(-7.08244e-07 1.14321e-07 -6.96346e-08)
(-9.1173e-07 1.08409e-07 -7.66657e-08)
(-1.0483e-06 1.0097e-07 -8.46341e-08)
(-1.1099e-06 9.23703e-08 -9.23994e-08)
(-1.09478e-06 8.30282e-08 -9.85074e-08)
(-1.0084e-06 7.27683e-08 -1.02208e-07)
(-8.6296e-07 6.21536e-08 -1.0214e-07)
(-6.76036e-07 5.14411e-08 -9.73138e-08)
(-4.70338e-07 4.11268e-08 -8.71157e-08)
(-2.72215e-07 3.2229e-08 -7.1694e-08)
(-1.09997e-07 2.65422e-08 -5.2457e-08)
(-8.52131e-09 2.61906e-08 -3.3063e-08)
(1.3679e-08 2.67982e-08 -1.36505e-08)
(-1.73228e-05 -4.84245e-05 -1.73228e-05)
(-5.64964e-06 -6.30459e-06 -7.75957e-06)
(-7.56578e-06 -7.65515e-06 -2.71816e-06)
(-3.28256e-06 -2.2656e-06 -7.88834e-07)
(-9.28758e-07 -1.40261e-06 -4.03724e-07)
(2.81807e-07 -7.80314e-07 -2.10794e-07)
(1.17473e-06 -4.93477e-07 -1.15687e-07)
(1.72847e-06 -3.17714e-07 -6.69557e-08)
(2.04853e-06 -1.95103e-07 -3.54373e-08)
(2.15678e-06 -9.70757e-08 -1.15363e-08)
(2.07259e-06 -1.42472e-08 8.99745e-09)
(1.81395e-06 5.57855e-08 2.67685e-08)
(1.40579e-06 1.1157e-07 4.12871e-08)
(8.81829e-07 1.50874e-07 5.17062e-08)
(2.83787e-07 1.71666e-07 5.72694e-08)
(-3.41284e-07 1.72868e-07 5.75497e-08)
(-9.44764e-07 1.54744e-07 5.26171e-08)
(-1.48063e-06 1.19017e-07 4.30819e-08)
(-1.90956e-06 6.87102e-08 3.00087e-08)
(-2.20237e-06 7.8769e-09 1.48424e-08)
(-2.34246e-06 -5.87178e-08 -7.58412e-10)
(-2.32708e-06 -1.25857e-07 -1.49587e-08)
(-2.16702e-06 -1.88697e-07 -2.60097e-08)
(-1.88622e-06 -2.41741e-07 -3.26131e-08)
(-1.51995e-06 -2.79415e-07 -3.37053e-08)
(-1.11209e-06 -2.95356e-07 -2.89191e-08)
(-7.11831e-07 -2.81863e-07 -1.90483e-08)
(-3.68509e-07 -2.30351e-07 -6.62167e-09)
(-1.23623e-07 -1.34451e-07 3.00693e-09)
(-4.84908e-09 -1.55487e-08 4.89228e-09)
(-4.78566e-06 -4.59297e-06 -4.78563e-06)
(-7.45933e-06 -8.69606e-06 -2.75717e-06)
(-3.70397e-06 -5.08352e-06 -1.20416e-06)
(-1.877e-06 -3.11165e-06 -5.58229e-07)
(-1.45022e-07 -2.29479e-06 -2.52098e-07)
(1.02424e-06 -1.75656e-06 -1.01394e-07)
(1.91872e-06 -1.43441e-06 -2.08939e-08)
(2.52084e-06 -1.19148e-06 2.59958e-08)
(2.87001e-06 -9.86222e-07 5.94271e-08)
(2.9692e-06 -7.99796e-07 8.66431e-08)
(2.82781e-06 -6.29402e-07 1.10606e-07)
(2.46247e-06 -4.79439e-07 1.31537e-07)
(1.90272e-06 -3.57128e-07 1.4869e-07)
(1.19147e-06 -2.69885e-07 1.60987e-07)
(3.82971e-07 -2.23512e-07 1.67533e-07)
(-4.6094e-07 -2.21007e-07 1.67852e-07)
(-1.27607e-06 -2.61901e-07 1.62021e-07)
(-2.00165e-06 -3.42101e-07 1.50689e-07)
(-2.58578e-06 -4.54235e-07 1.35041e-07)
(-2.98998e-06 -5.88273e-07 1.16688e-07)
(-3.19234e-06 -7.32392e-07 9.74339e-08)
(-3.18907e-06 -8.73688e-07 7.91552e-08)
(-2.99432e-06 -9.9875e-07 6.35492e-08)
(-2.63894e-06 -1.0941e-06 5.19431e-08)
(-2.1675e-06 -1.14564e-06 4.51339e-08)
(-1.6347e-06 -1.13834e-06 4.31102e-08)
(-1.10034e-06 -1.05564e-06 4.46387e-08)
(-6.2216e-07 -8.80289e-07 4.6568e-08)
(-2.50997e-07 -5.96994e-07 4.29284e-08)
(-2.37673e-08 -2.14738e-07 2.38178e-08)
(-8.50044e-07 -6.74181e-06 -8.50007e-07)
(-1.84543e-06 -5.47447e-06 -7.51955e-07)
(-1.31358e-06 -4.84117e-06 -5.27436e-07)
(-3.28442e-07 -3.95666e-06 -2.51761e-07)
(8.49486e-07 -3.46522e-06 -8.96354e-08)
(1.83903e-06 -3.08381e-06 4.17496e-09)
(2.65763e-06 -2.78488e-06 6.27569e-08)
(3.24293e-06 -2.50415e-06 1.02836e-07)
(3.57898e-06 -2.22607e-06 1.35029e-07)
(3.64743e-06 -1.94883e-06 1.63346e-07)
(3.4457e-06 -1.68204e-06 1.89154e-07)
(2.98677e-06 -1.4404e-06 2.12045e-07)
(2.30185e-06 -1.24011e-06 2.30913e-07)
(1.43973e-06 -1.09605e-06 2.44471e-07)
(4.63631e-07 -1.01928e-06 2.51689e-07)
(-5.53722e-07 -1.0155e-06 2.52011e-07)
(-1.53657e-06 -1.08412e-06 2.45502e-07)
(-2.41305e-06 -1.21803e-06 2.32865e-07)
(-3.12181e-06 -1.40426e-06 2.15373e-07)
(-3.61744e-06 -1.62504e-06 1.94728e-07)
(-3.87408e-06 -1.85933e-06 1.72821e-07)
(-3.88718e-06 -2.08418e-06 1.51552e-07)
(-3.67298e-06 -2.27584e-06 1.32583e-07)
(-3.2666e-06 -2.41031e-06 1.17189e-07)
(-2.71844e-06 -2.46319e-06 1.05994e-07)
(-2.08949e-06 -2.40937e-06 9.87854e-08)
(-1.44585e-06 -2.22211e-06 9.41351e-08)
(-8.50793e-07 -1.87279e-06 8.84709e-08)
(-3.65094e-07 -1.32852e-06 7.5221e-08)
(-3.96582e-08 -5.53495e-07 3.9717e-08)
(-2.63477e-07 -2.72146e-06 -2.63434e-07)
(-7.50578e-07 -4.41521e-06 -3.00954e-07)
(-1.69726e-07 -4.95246e-06 -1.85455e-07)
(6.6301e-07 -4.94949e-06 -6.07927e-08)
(1.64909e-06 -4.87041e-06 2.62289e-08)
(2.56189e-06 -4.69832e-06 8.46751e-08)
(3.34207e-06 -4.46752e-06 1.27404e-07)
(3.91298e-06 -4.17617e-06 1.61736e-07)
(4.23151e-06 -3.83864e-06 1.92733e-07)
(4.26601e-06 -3.47448e-06 2.22029e-07)
(4.00535e-06 -3.10918e-06 2.49684e-07)
(3.45957e-06 -2.77076e-06 2.7464e-07)
(2.66115e-06 -2.48673e-06 2.95374e-07)
(1.66367e-06 -2.28106e-06 3.10332e-07)
(5.37977e-07 -2.17132e-06 3.1829e-07)
(-6.33757e-07 -2.16653e-06 3.18589e-07)
(-1.76565e-06 -2.26605e-06 3.11283e-07)
(-2.77618e-06 -2.45937e-06 2.97139e-07)
(-3.59576e-06 -2.72703e-06 2.77568e-07)
(-4.17303e-06 -3.04232e-06 2.54406e-07)
(-4.47882e-06 -3.3736e-06 2.29699e-07)
(-4.50793e-06 -3.68647e-06 2.05458e-07)
(-4.27822e-06 -3.94529e-06 1.83393e-07)
(-3.82817e-06 -4.11445e-06 1.64768e-07)
(-3.21264e-06 -4.15829e-06 1.50155e-07)
(-2.49753e-06 -4.0405e-06 1.3923e-07)
(-1.7543e-06 -3.72245e-06 1.3044e-07)
(-1.052e-06 -3.16006e-06 1.19822e-07)
(-4.62519e-07 -2.29256e-06 1.00063e-07)
(-5.22654e-08 -1.01165e-06 5.23362e-08)
(-9.17221e-08 -2.61907e-06 -9.16681e-08)
(-4.01977e-09 -4.7341e-06 -6.98156e-08)
(5.83017e-07 -5.8565e-06 -8.51734e-09)
(1.38773e-06 -6.38526e-06 5.37077e-08)
(2.31536e-06 -6.62066e-06 1.03574e-07)
(3.20881e-06 -6.62711e-06 1.42629e-07)
(3.98191e-06 -6.46586e-06 1.76381e-07)
(4.55091e-06 -6.171e-06 2.07929e-07)
(4.85764e-06 -5.78015e-06 2.39328e-07)
(4.86139e-06 -5.33214e-06 2.70707e-07)
(4.54493e-06 -4.86863e-06 3.01181e-07)
(3.91611e-06 -4.43186e-06 3.29092e-07)
(3.00881e-06 -4.06176e-06 3.52461e-07)
(1.88122e-06 -3.79238e-06 3.69375e-07)
(6.11742e-07 -3.64855e-06 3.78363e-07)
(-7.08301e-07 -3.64309e-06 3.78632e-07)
(-1.98309e-06 -3.77535e-06 3.70219e-07)
(-3.12166e-06 -4.03113e-06 3.53998e-07)
(-4.04646e-06 -4.38392e-06 3.31576e-07)
(-4.70039e-06 -4.79729e-06 3.05051e-07)
(-5.05143e-06 -5.22822e-06 2.76738e-07)
(-5.09379e-06 -5.62982e-06 2.48854e-07)
(-4.84713e-06 -5.95393e-06 2.23251e-07)
(-4.35331e-06 -6.15262e-06 2.0129e-07)
(-3.67146e-06 -6.17815e-06 1.83567e-07)
(-2.87247e-06 -5.98195e-06 1.697e-07)
(-2.03355e-06 -5.51136e-06 1.58011e-07)
(-1.23038e-06 -4.70215e-06 1.44104e-07)
(-5.46271e-07 -3.45589e-06 1.19786e-07)
(-6.2511e-08 -1.56995e-06 6.25986e-08)
(7.28537e-09 -2.72415e-06 7.35553e-09)
(3.46592e-07 -5.5234e-06 4.77631e-08)
(1.03163e-06 -7.19508e-06 8.81532e-08)
(1.89919e-06 -8.16143e-06 1.24577e-07)
(2.8559e-06 -8.67735e-06 1.5672e-07)
(3.77959e-06 -8.84961e-06 1.86248e-07)
(4.57715e-06 -8.7601e-06 2.16093e-07)
(5.16206e-06 -8.46827e-06 2.47566e-07)
(5.46787e-06 -8.0312e-06 2.81157e-07)
(5.44776e-06 -7.50515e-06 3.16057e-07)
(5.08011e-06 -6.94746e-06 3.50638e-07)
(4.37131e-06 -6.41481e-06 3.82671e-07)
(3.35689e-06 -5.95983e-06 4.09662e-07)
(2.10012e-06 -5.62728e-06 4.29242e-07)
(6.87152e-07 -5.44967e-06 4.39625e-07)
(-7.81014e-07 -5.44387e-06 4.3986e-07)
(-2.19827e-06 -5.6093e-06 4.29972e-07)
(-3.46379e-06 -5.92789e-06 4.10967e-07)
(-4.49183e-06 -6.36575e-06 3.84723e-07)
(-5.21965e-06 -6.87631e-06 3.53733e-07)
(-5.61236e-06 -7.40463e-06 3.20681e-07)
(-5.66416e-06 -7.89109e-06 2.88113e-07)
(-5.39693e-06 -8.27475e-06 2.58165e-07)
(-4.85629e-06 -8.49499e-06 2.32338e-07)
(-4.10625e-06 -8.49144e-06 2.11315e-07)
(-3.22318e-06 -8.20219e-06 1.94679e-07)
(-2.29067e-06 -7.55819e-06 1.80614e-07)
(-1.39161e-06 -6.47061e-06 1.64256e-07)
(-6.20284e-07 -4.79441e-06 1.36405e-07)
(-7.1269e-08 -2.21486e-06 7.13792e-08)
(4.93954e-08 -3.21815e-06 4.94839e-08)
(5.47948e-07 -6.73384e-06 1.07541e-07)
(1.33523e-06 -8.91609e-06 1.42789e-07)
(2.28917e-06 -1.02636e-05 1.69869e-07)
(3.31009e-06 -1.10344e-05 1.94845e-07)
(4.29009e-06 -1.13625e-05 2.2106e-07)
(5.13228e-06 -1.13468e-05 2.50722e-07)
(5.74731e-06 -1.10655e-05 2.84522e-07)
(6.06264e-06 -1.05917e-05 3.22124e-07)
(6.02629e-06 -9.99712e-06 3.62127e-07)
(5.61287e-06 -9.35357e-06 4.02286e-07)
(4.82746e-06 -8.73159e-06 4.39741e-07)
(3.7075e-06 -8.19659e-06 4.71425e-07)
(2.32162e-06 -7.80408e-06 4.94451e-07)
(7.64288e-07 -7.5944e-06 5.06635e-07)
(-8.53215e-07 -7.58856e-06 5.0683e-07)
(-2.41383e-06 -7.78607e-06 4.95053e-07)
(-3.80633e-06 -8.16496e-06 4.72492e-07)
(-4.93632e-06 -8.68377e-06 4.41387e-07)
(-5.73533e-06 -9.28568e-06 4.04709e-07)
(-6.16598e-06 -9.90386e-06 3.65625e-07)
(-6.22294e-06 -1.0466e-05 3.27159e-07)
(-5.93097e-06 -1.08983e-05 2.91832e-07)
(-5.34007e-06 -1.11276e-05 2.61349e-07)
(-4.5199e-06 -1.10808e-05 2.36522e-07)
(-3.55284e-06 -1.06815e-05 2.169e-07)
(-2.52922e-06 -9.8421e-06 2.00537e-07)
(-1.53924e-06 -8.44503e-06 1.82047e-07)
(-6.87204e-07 -6.29094e-06 1.51185e-07)
(-7.91154e-08 -2.93726e-06 7.92523e-08)
(7.22938e-08 -3.88958e-06 7.24051e-08)
(6.73534e-07 -8.20721e-06 1.42778e-07)
(1.55385e-06 -1.092e-05 1.77561e-07)
(2.59715e-06 -1.26424e-05 2.01715e-07)
(3.69537e-06 -1.36662e-05 2.2462e-07)
(4.74412e-06 -1.41539e-05 2.51005e-07)
(5.64262e-06 -1.42219e-05 2.82972e-07)
(6.29781e-06 -1.39648e-05 3.20995e-07)
(6.63154e-06 -1.34697e-05 3.64276e-07)
(6.58663e-06 -1.28217e-05 4.10908e-07)
(6.13388e-06 -1.2106e-05 4.58078e-07)
(5.2769e-06 -1.14064e-05 5.02271e-07)
(4.05494e-06 -1.08003e-05 5.39764e-07)
(2.54209e-06 -1.03538e-05 5.67026e-07)
(8.41611e-07 -1.01152e-05 5.81401e-07)
(-9.24412e-07 -1.01095e-05 5.81559e-07)
(-2.62728e-06 -1.03364e-05 5.67515e-07)
(-4.1448e-06 -1.07701e-05 5.40625e-07)
(-5.37374e-06 -1.13614e-05 5.0356e-07)
(-6.23994e-06 -1.20435e-05 4.59927e-07)
(-6.70379e-06 -1.27377e-05 4.13515e-07)
(-6.76118e-06 -1.33596e-05 3.67904e-07)
(-6.44056e-06 -1.38235e-05 3.26041e-07)
(-5.79715e-06 -1.40437e-05 2.89957e-07)
(-4.90668e-06 -1.39345e-05 2.6062e-07)
(-3.85789e-06 -1.34046e-05 2.37596e-07)
(-2.7478e-06 -1.23459e-05 2.1875e-07)
(-1.67343e-06 -1.06084e-05 1.98173e-07)
(-7.47802e-07 -7.93142e-06 1.64617e-07)
(-8.62938e-08 -3.73017e-06 8.6461e-08)
(8.5777e-08 -4.68233e-06 8.59147e-08)
(7.59395e-07 -9.87886e-06 1.65179e-07)
(1.7181e-06 -1.31528e-05 2.01346e-07)
(2.84261e-06 -1.5261e-05 2.25521e-07)
(4.01701e-06 -1.65484e-05 2.49059e-07)
(5.1359e-06 -1.72091e-05 2.77742e-07)
(6.0944e-06 -1.73788e-05 3.13804e-07)
(6.79486e-06 -1.71669e-05 3.57596e-07)
(7.15358e-06 -1.66733e-05 4.0808e-07)
(7.1079e-06 -1.59946e-05 4.62864e-07)
(6.62406e-06 -1.52279e-05 5.18531e-07)
(5.70357e-06 -1.44682e-05 5.70843e-07)
(4.38707e-06 -1.38047e-05 6.15274e-07)
(2.7539e-06 -1.33136e-05 6.47571e-07)
(9.16231e-07 -1.30507e-05 6.64573e-07)
(-9.92523e-07 -1.30454e-05 6.64694e-07)
(-2.8318e-06 -1.32973e-05 6.47941e-07)
(-4.46806e-06 -1.37767e-05 6.15911e-07)
(-5.78901e-06 -1.44269e-05 5.71803e-07)
(-6.71518e-06 -1.51714e-05 5.19923e-07)
(-7.20557e-06 -1.59206e-05 4.64772e-07)
(-7.25813e-06 -1.65788e-05 4.10667e-07)
(-6.90578e-06 -1.70491e-05 3.61089e-07)
(-6.20971e-06 -1.72351e-05 3.1844e-07)
(-5.25187e-06 -1.70387e-05 2.83839e-07)
(-4.12742e-06 -1.63534e-05 2.5687e-07)
(-2.93941e-06 -1.50495e-05 2.35266e-07)
(-1.79046e-06 -1.29413e-05 2.12588e-07)
(-8.00724e-07 -9.70049e-06 1.76577e-07)
(-9.27245e-08 -4.58644e-06 9.29265e-08)
(9.44717e-08 -5.55692e-06 9.46276e-08)
(8.18774e-07 -1.16965e-05 1.80208e-07)
(1.83759e-06 -1.55638e-05 2.18121e-07)
(3.02736e-06 -1.8077e-05 2.43524e-07)
(4.26654e-06 -1.96467e-05 2.69127e-07)
(5.44778e-06 -2.05023e-05 3.01429e-07)
(6.46252e-06 -2.08002e-05 3.42845e-07)
(7.20857e-06 -2.06639e-05 3.93723e-07)
(7.5967e-06 -2.02038e-05 4.52754e-07)
(7.55826e-06 -1.95265e-05 5.1713e-07)
(7.05412e-06 -1.87381e-05 5.82761e-07)
(6.08278e-06 -1.79437e-05 6.44572e-07)
(4.68527e-06 -1.72426e-05 6.97173e-07)
(2.94544e-06 -1.67203e-05 7.35414e-07)
(9.84065e-07 -1.64398e-05 7.55494e-07)
(-1.05412e-06 -1.64349e-05 7.55584e-07)
(-3.01641e-06 -1.67052e-05 7.3569e-07)
(-4.75798e-06 -1.7217e-05 6.97645e-07)
(-6.15796e-06 -1.79066e-05 6.45265e-07)
(-7.13235e-06 -1.86882e-05 5.83715e-07)
(-7.63975e-06 -1.94624e-05 5.18458e-07)
(-7.68117e-06 -2.01238e-05 4.54566e-07)
(-7.29512e-06 -2.05665e-05 3.96105e-07)
(-6.54918e-06 -2.06848e-05 3.45917e-07)
(-5.53153e-06 -2.03697e-05 3.05332e-07)
(-4.34288e-06 -1.95002e-05 2.73941e-07)
(-3.09109e-06 -1.7924e-05 2.49276e-07)
(-1.88283e-06 -1.54169e-05 2.24472e-07)
(-8.4281e-07 -1.15775e-05 1.864e-07)
(-9.80529e-08 -5.49659e-06 9.8296e-08)
(9.97379e-08 -6.486e-06 9.99299e-08)
(8.5445e-07 -1.3614e-05 1.89457e-07)
(1.91021e-06 -1.81001e-05 2.2882e-07)
(3.1416e-06 -2.10385e-05 2.55861e-07)
(4.42463e-06 -2.29133e-05 2.84193e-07)
(5.65125e-06 -2.39924e-05 3.20932e-07)
(6.71073e-06 -2.44534e-05 3.6863e-07)
(7.49752e-06 -2.44328e-05 4.27656e-07)
(7.91702e-06 -2.40495e-05 4.96495e-07)
(7.89448e-06 -2.34167e-05 5.71915e-07)
(7.38462e-06 -2.26471e-05 6.49128e-07)
(6.38142e-06 -2.18533e-05 7.22107e-07)
(4.92466e-06 -2.11425e-05 7.84383e-07)
(3.10132e-06 -2.06079e-05 8.29764e-07)
(1.03981e-06 -2.03195e-05 8.53578e-07)
(-1.1042e-06 -2.03151e-05 8.53637e-07)
(-3.16608e-06 -2.05943e-05 8.29925e-07)
(-4.99016e-06 -2.11195e-05 7.8466e-07)
(-6.44786e-06 -2.18204e-05 7.22547e-07)
(-7.45201e-06 -2.26034e-05 6.4975e-07)
(-7.96271e-06 -2.33613e-05 5.72814e-07)
(-7.9856e-06 -2.39818e-05 4.97723e-07)
(-7.56557e-06 -2.43525e-05 4.29261e-07)
(-6.77657e-06 -2.43607e-05 3.70675e-07)
(-5.71258e-06 -2.38889e-05 3.23463e-07)
(-4.47842e-06 -2.28023e-05 2.87226e-07)
(-3.18463e-06 -2.0926e-05 2.59339e-07)
(-1.93941e-06 -1.79957e-05 2.32537e-07)
(-8.69034e-07 -1.35321e-05 1.92972e-07)
(-1.01672e-07 -6.44636e-06 1.01957e-07)
(1.01734e-07 -7.44214e-06 1.01936e-07)
(8.63713e-07 -1.55789e-05 1.92659e-07)
(1.9264e-06 -2.06972e-05 2.32659e-07)
(3.16671e-06 -2.40766e-05 2.61275e-07)
(4.46244e-06 -2.62802e-05 2.92586e-07)
(5.70754e-06 -2.76157e-05 3.34062e-07)
(6.7917e-06 -2.8282e-05 3.88474e-07)
(7.60796e-06 -2.84269e-05 4.56248e-07)
(8.05773e-06 -2.81752e-05 5.35733e-07)
(8.06038e-06 -2.76434e-05 6.23315e-07)
(7.56369e-06 -2.6947e-05 7.13545e-07)
(6.55538e-06 -2.62017e-05 7.99405e-07)
(5.0718e-06 -2.55194e-05 8.73023e-07)
(3.20076e-06 -2.49992e-05 9.26907e-07)
(1.07636e-06 -2.47165e-05 9.55256e-07)
(-1.13596e-06 -2.47125e-05 9.55275e-07)
(-3.26029e-06 -2.4987e-05 9.26975e-07)
(-5.13121e-06 -2.54989e-05 8.73146e-07)
(-6.61447e-06 -2.61725e-05 7.99616e-07)
(-7.62219e-06 -2.69088e-05 7.13898e-07)
(-8.11805e-06 -2.75959e-05 6.23857e-07)
(-8.11408e-06 -2.81183e-05 5.36478e-07)
(-7.66217e-06 -2.83607e-05 4.57284e-07)
(-6.84247e-06 -2.82073e-05 3.8981e-07)
(-5.75323e-06 -2.75343e-05 3.35721e-07)
(-4.50107e-06 -2.6195e-05 2.94529e-07)
(-3.19647e-06 -2.39926e-05 2.63446e-07)
(-1.94579e-06 -2.06214e-05 2.34924e-07)
(-8.72864e-07 -1.55211e-05 1.94744e-07)
(-1.02801e-07 -7.41514e-06 1.03138e-07)
(9.98446e-08 -8.39336e-06 1.00087e-07)
(8.40731e-07 -1.75272e-05 1.88677e-07)
(1.87214e-06 -2.3273e-05 2.28118e-07)
(3.07853e-06 -2.71e-05 2.57753e-07)
(4.34445e-06 -2.96526e-05 2.91748e-07)
(5.56992e-06 -3.12788e-05 3.37718e-07)
(6.64871e-06 -3.21976e-05 3.98553e-07)
(7.47546e-06 -3.25669e-05 4.74918e-07)
(7.95006e-06 -3.25137e-05 5.65234e-07)
(7.98685e-06 -3.21534e-05 6.65652e-07)
(7.52674e-06 -3.15994e-05 7.70081e-07)
(6.54937e-06 -3.09657e-05 8.70421e-07)
(5.08453e-06 -3.03641e-05 9.57256e-07)
(3.21743e-06 -2.98951e-05 1.02144e-06)
(1.08479e-06 -2.96372e-05 1.05545e-06)
(-1.14043e-06 -2.96336e-05 1.05544e-06)
(-3.27265e-06 -2.98842e-05 1.02142e-06)
(-5.13894e-06 -3.03458e-05 9.5725e-07)
(-6.60254e-06 -3.094e-05 8.7044e-07)
(-7.57837e-06 -3.15661e-05 7.70192e-07)
(-8.03649e-06 -3.21126e-05 6.65962e-07)
(-7.99708e-06 -3.24657e-05 5.6571e-07)
(-7.51935e-06 -3.25122e-05 4.75596e-07)
(-6.68855e-06 -3.21372e-05 3.99416e-07)
(-5.60461e-06 -3.12141e-05 3.38767e-07)
(-4.37288e-06 -2.95865e-05 2.92981e-07)
(-3.09968e-06 -2.70364e-05 2.59139e-07)
(-1.88541e-06 -2.32168e-05 2.29559e-07)
(-8.46681e-07 -1.74852e-05 1.89971e-07)
(-1.00459e-07 -8.37431e-06 1.0084e-07)
(9.32416e-08 -9.30001e-06 9.34966e-08)
(7.78478e-07 -1.93786e-05 1.75802e-07)
(1.73151e-06 -2.57235e-05 2.12982e-07)
(2.85021e-06 -2.99909e-05 2.42618e-07)
(4.03191e-06 -3.29047e-05 2.78314e-07)
(5.18725e-06 -3.48525e-05 3.27558e-07)
(6.21894e-06 -3.60722e-05 3.93496e-07)
(7.0275e-06 -3.67285e-05 4.77024e-07)
(7.51482e-06 -3.69481e-05 5.76716e-07)
(7.59275e-06 -3.68409e-05 6.88791e-07)
(7.19566e-06 -3.65125e-05 8.06738e-07)
(6.29396e-06 -3.60685e-05 9.21567e-07)
(4.90814e-06 -3.56138e-05 1.02228e-06)
(3.11644e-06 -3.52446e-05 1.09769e-06)
(1.05309e-06 -3.50369e-05 1.13806e-06)
(-1.10565e-06 -3.50336e-05 1.13803e-06)
(-3.16831e-06 -3.52347e-05 1.0976e-06)
(-4.9587e-06 -3.55974e-05 1.02216e-06)
(-6.34255e-06 -3.60456e-05 9.2148e-07)
(-7.24179e-06 -3.64833e-05 8.06705e-07)
(-7.63606e-06 -3.68058e-05 6.88853e-07)
(-7.55493e-06 -3.69074e-05 5.76905e-07)
(-7.0639e-06 -3.6683e-05 4.77377e-07)
(-6.25101e-06 -3.60229e-05 3.94015e-07)
(-5.21431e-06 -3.48008e-05 3.28231e-07)
(-4.05335e-06 -3.2853e-05 2.79104e-07)
(-2.86556e-06 -2.99418e-05 2.43485e-07)
(-1.7408e-06 -2.5681e-05 2.13899e-07)
(-7.82425e-07 -1.93474e-05 1.76644e-07)
(-9.35833e-08 -9.28614e-06 9.40109e-08)
(8.10401e-08 -1.01145e-05 8.1307e-08)
(6.70077e-07 -2.10367e-05 1.52399e-07)
(1.48939e-06 -2.7923e-05 1.85196e-07)
(2.45667e-06 -3.26036e-05 2.13218e-07)
(3.48848e-06 -3.58769e-05 2.48865e-07)
(4.51119e-06 -3.81669e-05 2.99131e-07)
(5.44204e-06 -3.97283e-05 3.67214e-07)
(6.19263e-06 -4.07307e-05 4.54351e-07)
(6.67156e-06 -4.12968e-05 5.59596e-07)
(6.79237e-06 -4.1527e-05 6.79543e-07)
(6.48538e-06 -4.15131e-05 8.07655e-07)
(5.712e-06 -4.13453e-05 9.3427e-07)
(4.48059e-06 -4.11135e-05 1.04697e-06)
(2.85729e-06 -4.09009e-05 1.13263e-06)
(9.67242e-07 -4.0774e-05 1.17909e-06)
(-1.01734e-06 -4.0771e-05 1.17905e-06)
(-2.90646e-06 -4.0892e-05 1.13254e-06)
(-4.52805e-06 -4.1099e-05 1.04682e-06)
(-5.75706e-06 -4.13252e-05 9.34091e-07)
(-6.52755e-06 -4.14876e-05 8.07516e-07)
(-6.83115e-06 -4.14969e-05 6.79511e-07)
(-6.70657e-06 -4.12624e-05 5.59662e-07)
(-6.22352e-06 -4.06927e-05 4.54511e-07)
(-5.4685e-06 -3.96878e-05 3.67492e-07)
(-4.53287e-06 -3.8125e-05 2.99525e-07)
(-3.50514e-06 -3.58358e-05 2.49365e-07)
(-2.46821e-06 -3.25652e-05 2.13797e-07)
(-1.4961e-06 -2.78903e-05 1.85796e-07)
(-6.7277e-07 -2.1013e-05 1.52979e-07)
(-8.1213e-08 -1.01042e-05 8.16828e-08)
(6.25169e-08 -1.07822e-05 6.27829e-08)
(5.10636e-07 -2.23914e-05 1.17119e-07)
(1.13526e-06 -2.97269e-05 1.42957e-07)
(1.8803e-06 -3.47684e-05 1.67227e-07)
(2.68787e-06 -3.83785e-05 2.00129e-07)
(3.50548e-06 -4.10124e-05 2.47687e-07)
(4.27052e-06 -4.29386e-05 3.13048e-07)
(4.91189e-06 -4.43289e-05 3.9774e-07)
(5.35129e-06 -4.52997e-05 5.01344e-07)
(5.50942e-06 -4.5938e-05 6.2098e-07)
(5.3168e-06 -4.6317e-05 7.50625e-07)
(4.72799e-06 -4.65047e-05 8.80782e-07)
(3.73845e-06 -4.65674e-05 9.9838e-07)
(2.39733e-06 -4.6566e-05 1.08896e-06)
(8.1218e-07 -4.65495e-05 1.13866e-06)
(-8.60388e-07 -4.65471e-05 1.1386e-06)
(-2.44453e-06 -4.65583e-05 1.08883e-06)
(-3.78365e-06 -4.65546e-05 9.98174e-07)
(-4.77038e-06 -4.6487e-05 8.80576e-07)
(-5.35587e-06 -4.6295e-05 7.50418e-07)
(-5.54469e-06 -4.59121e-05 6.20836e-07)
(-5.38253e-06 -4.52705e-05 5.01241e-07)
(-4.93884e-06 -4.4297e-05 3.97739e-07)
(-4.29301e-06 -4.2905e-05 3.13158e-07)
(-3.5234e-06 -4.09782e-05 2.47877e-07)
(-2.70122e-06 -3.83453e-05 2.00407e-07)
(-1.8892e-06 -3.47379e-05 1.67575e-07)
(-1.14018e-06 -2.97012e-05 1.43337e-07)
(-5.12471e-07 -2.2373e-05 1.17525e-07)
(-6.25796e-08 -1.07743e-05 6.30863e-08)
(3.74162e-08 -1.12444e-05 3.77113e-08)
(2.98973e-07 -2.3325e-05 6.95443e-08)
(6.66836e-07 -3.098e-05 8.5661e-08)
(1.11715e-06 -3.63008e-05 1.03602e-07)
(1.6232e-06 -4.01978e-05 1.30364e-07)
(2.15871e-06 -4.31499e-05 1.70446e-07)
(2.68682e-06 -4.54344e-05 2.26499e-07)
(3.1599e-06 -4.72227e-05 3.00259e-07)
(3.51979e-06 -4.86227e-05 3.9188e-07)
(3.70143e-06 -4.97059e-05 4.99362e-07)
(3.64213e-06 -5.05232e-05 6.17652e-07)
(3.29391e-06 -5.11152e-05 7.38184e-07)
(2.63976e-06 -5.15187e-05 8.4854e-07)
(1.70779e-06 -5.17652e-05 9.34569e-07)
(5.77697e-07 -5.188e-05 9.82204e-07)
(-6.24353e-07 -5.18781e-05 9.82142e-07)
(-1.75328e-06 -5.17588e-05 9.3444e-07)
(-2.68305e-06 -5.15076e-05 8.483e-07)
(-3.33419e-06 -5.11e-05 7.37894e-07)
(-3.67891e-06 -5.05042e-05 6.17327e-07)
(-3.73417e-06 -4.96835e-05 4.99123e-07)
(-3.54827e-06 -4.85976e-05 3.91682e-07)
(-3.18399e-06 -4.71956e-05 3.00161e-07)
(-2.70646e-06 -4.54063e-05 2.26484e-07)
(-2.17395e-06 -4.31216e-05 1.70485e-07)
(-1.63421e-06 -4.01708e-05 1.30492e-07)
(-1.12427e-06 -3.62762e-05 1.03797e-07)
(-6.70601e-07 -3.09595e-05 8.59455e-08)
(-3.0027e-07 -2.33105e-05 6.98489e-08)
(-3.74274e-08 -1.12382e-05 3.79633e-08)
(6.20487e-09 -1.1444e-05 6.4703e-09)
(3.94402e-08 -2.37237e-05 1.0417e-08)
(9.38851e-08 -3.15313e-05 1.40989e-08)
(1.82647e-07 -3.70187e-05 2.29526e-08)
(3.15089e-07 -4.11216e-05 3.9812e-08)
(4.94841e-07 -4.43314e-05 6.69273e-08)
(7.16034e-07 -4.69293e-05 1.06299e-07)
(9.60587e-07 -4.90828e-05 1.5942e-07)
(1.19729e-06 -5.08892e-05 2.26883e-07)
(1.38328e-06 -5.24027e-05 3.07772e-07)
(1.46978e-06 -5.36511e-05 3.98423e-07)
(1.41192e-06 -5.46465e-05 4.925e-07)
(1.18252e-06 -5.53933e-05 5.79893e-07)
(7.8521e-07 -5.58914e-05 6.48873e-07)
(2.62174e-07 -5.61401e-05 6.87433e-07)
(-3.07438e-07 -5.61382e-05 6.87358e-07)
(-8.29173e-07 -5.58855e-05 6.48685e-07)
(-1.22422e-06 -5.53833e-05 5.79573e-07)
(-1.45051e-06 -5.46332e-05 4.92139e-07)
(-1.50457e-06 -5.36343e-05 3.98048e-07)
(-1.41395e-06 -5.23833e-05 3.0741e-07)
(-1.22366e-06 -5.08675e-05 2.26586e-07)
(-9.82562e-07 -4.90597e-05 1.59167e-07)
(-7.33635e-07 -4.69056e-05 1.06149e-07)
(-5.082e-07 -4.43077e-05 6.68609e-08)
(-3.24497e-07 -4.10993e-05 3.97883e-08)
(-1.8855e-07 -3.69986e-05 2.3029e-08)
(-9.68522e-08 -3.15148e-05 1.42632e-08)
(-4.03287e-08 -2.3712e-05 1.06423e-08)
(-6.14758e-09 -1.1439e-05 6.70266e-09)
(-2.99987e-08 -1.13313e-05 -2.97221e-08)
(-2.57433e-07 -2.34895e-05 -5.79033e-08)
(-5.59801e-07 -3.12511e-05 -6.88801e-08)
(-8.84445e-07 -3.67639e-05 -7.16362e-08)
(-1.18288e-06 -4.09619e-05 -6.82192e-08)
(-1.41884e-06 -4.43344e-05 -5.90825e-08)
(-1.56339e-06 -4.71594e-05 -4.33606e-08)
(-1.59989e-06 -4.95973e-05 -1.99927e-08)
(-1.52624e-06 -5.17334e-05 1.19576e-08)
(-1.35638e-06 -5.36059e-05 5.27107e-08)
(-1.11786e-06 -5.52201e-05 1.00818e-07)
(-8.46663e-07 -5.65611e-05 1.53006e-07)
(-5.77687e-07 -5.76035e-05 2.03087e-07)
(-3.34633e-07 -5.83195e-05 2.4365e-07)
(-1.21777e-07 -5.8684e-05 2.66705e-07)
(7.81819e-08 -5.86821e-05 2.66596e-07)
(2.92289e-07 -5.83139e-05 2.43407e-07)
(5.37663e-07 -5.75945e-05 2.02736e-07)
(8.09778e-07 -5.65487e-05 1.52579e-07)
(1.0847e-06 -5.52048e-05 1.00397e-07)
(1.32732e-06 -5.35886e-05 5.22912e-08)
(1.50149e-06 -5.17143e-05 1.15958e-08)
(1.57949e-06 -4.95771e-05 -2.03054e-08)
(1.54723e-06 -4.71391e-05 -4.35858e-08)
(1.40676e-06 -4.43143e-05 -5.9218e-08)
(1.17457e-06 -4.0943e-05 -6.82805e-08)
(8.79419e-07 -3.67472e-05 -7.16111e-08)
(5.57404e-07 -3.12375e-05 -6.87786e-08)
(2.56783e-07 -2.34799e-05 -5.77169e-08)
(3.00776e-08 -1.13273e-05 -2.95139e-08)
(-6.90011e-08 -1.08728e-05 -6.87593e-08)
(-5.74232e-07 -2.25567e-05 -1.31557e-07)
(-1.25631e-06 -3.00516e-05 -1.58619e-07)
(-2.02273e-06 -3.54269e-05 -1.747e-07)
(-2.78507e-06 -3.95839e-05 -1.87325e-07)
(-3.47326e-06 -4.29944e-05 -2.00052e-07)
(-4.02157e-06 -4.59247e-05 -2.13463e-07)
(-4.37533e-06 -4.85245e-05 -2.26977e-07)
(-4.49463e-06 -5.08681e-05 -2.39288e-07)
(-4.35879e-06 -5.29779e-05 -2.48959e-07)
(-3.9687e-06 -5.48408e-05 -2.54832e-07)
(-3.34713e-06 -5.64212e-05 -2.56404e-07)
(-2.53456e-06 -5.76705e-05 -2.5451e-07)
(-1.58343e-06 -5.8539e-05 -2.50866e-07)
(-5.5066e-07 -5.89849e-05 -2.48007e-07)
(5.09115e-07 -5.89831e-05 -2.48102e-07)
(1.54306e-06 -5.8534e-05 -2.51117e-07)
(2.49634e-06 -5.76623e-05 -2.549e-07)
(3.31191e-06 -5.64099e-05 -2.56827e-07)
(3.93714e-06 -5.48271e-05 -2.55258e-07)
(4.33123e-06 -5.29623e-05 -2.49414e-07)
(4.4712e-06 -5.08512e-05 -2.39696e-07)
(4.35613e-06 -4.85069e-05 -2.27292e-07)
(4.00651e-06 -4.59071e-05 -2.13748e-07)
(3.46209e-06 -4.29772e-05 -2.00245e-07)
(2.77749e-06 -3.9568e-05 -1.87409e-07)
(2.01827e-06 -3.54129e-05 -1.74719e-07)
(1.25425e-06 -3.00402e-05 -1.58554e-07)
(5.73752e-07 -2.25488e-05 -1.3138e-07)
(6.91112e-08 -1.08695e-05 -6.85471e-08)
(-1.07988e-07 -1.00575e-05 -1.07755e-07)
(-8.87866e-07 -2.09054e-05 -2.05105e-07)
(-1.94515e-06 -2.79053e-05 -2.48422e-07)
(-3.15046e-06 -3.29695e-05 -2.78518e-07)
(-4.37772e-06 -3.6934e-05 -3.08471e-07)
(-5.52407e-06 -4.02377e-05 -3.45017e-07)
(-6.48644e-06 -4.31276e-05 -3.90181e-07)
(-7.17094e-06 -4.57399e-05 -4.44058e-07)
(-7.49769e-06 -4.8137e-05 -5.04984e-07)
(-7.40859e-06 -5.0329e-05 -5.70108e-07)
(-6.87531e-06 -5.22908e-05 -6.35494e-07)
(-5.90453e-06 -5.39728e-05 -6.96251e-07)
(-4.5408e-06 -5.5313e-05 -7.47483e-07)
(-2.86577e-06 -5.62502e-05 -7.84524e-07)
(-9.91239e-07 -5.67328e-05 -8.0393e-07)
(9.52177e-07 -5.67311e-05 -8.03994e-07)
(2.82777e-06 -5.62456e-05 -7.84685e-07)
(4.50488e-06 -5.53054e-05 -7.4775e-07)
(5.87131e-06 -5.39623e-05 -6.96599e-07)
(6.84543e-06 -5.22782e-05 -6.35858e-07)
(7.3824e-06 -5.03148e-05 -5.70468e-07)
(7.47541e-06 -4.81218e-05 -5.05342e-07)
(7.15274e-06 -4.57245e-05 -4.44353e-07)
(6.47219e-06 -4.31122e-05 -3.90447e-07)
(5.51355e-06 -4.0223e-05 -3.45223e-07)
(4.37066e-06 -3.69206e-05 -3.08615e-07)
(3.14635e-06 -3.29579e-05 -2.78577e-07)
(1.94328e-06 -2.78959e-05 -2.48384e-07)
(8.87444e-07 -2.08989e-05 -2.04943e-07)
(1.08096e-07 -1.00548e-05 -1.07551e-07)
(-1.43382e-07 -8.90311e-06 -1.43174e-07)
(-1.17024e-06 -1.85731e-05 -2.71855e-07)
(-2.56635e-06 -2.48595e-05 -3.30143e-07)
(-4.17222e-06 -2.94422e-05 -3.73503e-07)
(-5.82916e-06 -3.30612e-05 -4.20232e-07)
(-7.40437e-06 -3.61077e-05 -4.80132e-07)
(-8.75958e-06 -3.88031e-05 -5.56565e-07)
(-9.76252e-06 -4.12677e-05 -6.50185e-07)
(-1.0294e-05 -4.35531e-05 -7.59097e-07)
(-1.02593e-05 -4.56621e-05 -8.78913e-07)
(-9.6004e-06 -4.75626e-05 -1.00279e-06)
(-8.30765e-06 -4.92e-05 -1.1216e-06)
(-6.42913e-06 -5.05092e-05 -1.22484e-06)
(-4.07398e-06 -5.1426e-05 -1.30151e-06)
(-1.40634e-06 -5.18983e-05 -1.34248e-06)
(1.37049e-06 -5.18967e-05 -1.34252e-06)
(4.03894e-06 -5.14213e-05 -1.30167e-06)
(6.39574e-06 -5.05019e-05 -1.22504e-06)
(8.27659e-06 -4.91904e-05 -1.12186e-06)
(9.57229e-06 -4.75512e-05 -1.00309e-06)
(1.02345e-05 -4.56495e-05 -8.79211e-07)
(1.02729e-05 -4.35398e-05 -7.59392e-07)
(9.74518e-06 -4.12542e-05 -6.50476e-07)
(8.74594e-06 -3.87898e-05 -5.56816e-07)
(7.39435e-06 -3.60952e-05 -4.80335e-07)
(5.8224e-06 -3.30499e-05 -4.20382e-07)
(4.16828e-06 -2.94326e-05 -3.73531e-07)
(2.56466e-06 -2.48518e-05 -3.30097e-07)
(1.1699e-06 -1.85679e-05 -2.71709e-07)
(1.43498e-07 -8.9009e-06 -1.42974e-07)
(-1.71097e-07 -7.4607e-06 -1.70915e-07)
(-1.39056e-06 -1.56629e-05 -3.24053e-07)
(-3.05511e-06 -2.10473e-05 -3.9403e-07)
(-4.98588e-06 -2.49962e-05 -4.48093e-07)
(-7.00003e-06 -2.81285e-05 -5.08944e-07)
(-8.93932e-06 -3.07771e-05 -5.88919e-07)
(-1.06342e-05 -3.31329e-05 -6.92688e-07)
(-1.19178e-05 -3.52993e-05 -8.2138e-07)
(-1.26351e-05 -3.73191e-05 -9.72618e-07)
(-1.26581e-05 -3.91908e-05 -1.14055e-06)
(-1.1902e-05 -4.08821e-05 -1.31576e-06)
(-1.03426e-05 -4.23413e-05 -1.48525e-06)
(-8.03071e-06 -4.3508e-05 -1.63351e-06)
(-5.09935e-06 -4.43245e-05 -1.74431e-06)
(-1.75837e-06 -4.47448e-05 -1.80384e-06)
(1.72609e-06 -4.47434e-05 -1.80385e-06)
(5.06766e-06 -4.43204e-05 -1.74438e-06)
(8.00033e-06 -4.35016e-05 -1.6336e-06)
(1.03141e-05 -4.23327e-05 -1.48537e-06)
(1.18759e-05 -4.08721e-05 -1.31592e-06)
(1.26349e-05 -3.91797e-05 -1.14073e-06)
(1.26152e-05 -3.73076e-05 -9.72828e-07)
(1.19013e-05 -3.52878e-05 -8.21589e-07)
(1.06212e-05 -3.31218e-05 -6.92872e-07)
(8.92973e-06 -3.07668e-05 -5.89069e-07)
(6.99356e-06 -2.81192e-05 -5.09088e-07)
(4.98211e-06 -2.49884e-05 -4.4814e-07)
(3.05345e-06 -2.10411e-05 -3.93991e-07)
(1.39021e-06 -1.56588e-05 -3.23911e-07)
(1.71203e-07 -7.45903e-06 -1.70723e-07)
(-1.86579e-07 -5.81793e-06 -1.86418e-07)
(-1.51632e-06 -1.23477e-05 -3.52931e-07)
(-3.34577e-06 -1.66903e-05 -4.28952e-07)
(-5.4908e-06 -1.98863e-05 -4.88844e-07)
(-7.75519e-06 -2.24182e-05 -5.58542e-07)
(-9.96105e-06 -2.4554e-05 -6.5231e-07)
(-1.19133e-05 -2.64516e-05 -7.75908e-07)
(-1.34163e-05 -2.81973e-05 -9.30723e-07)
(-1.42861e-05 -2.98267e-05 -1.11394e-06)
(-1.43675e-05 -3.13379e-05 -1.31844e-06)
(-1.35544e-05 -3.27034e-05 -1.53262e-06)
(-1.18108e-05 -3.388e-05 -1.74042e-06)
(-9.18991e-06 -3.48192e-05 -1.92259e-06)
(-5.84269e-06 -3.54749e-05 -2.05892e-06)
(-2.01341e-06 -3.58119e-05 -2.13219e-06)
(1.98511e-06 -3.58107e-05 -2.13217e-06)
(5.81478e-06 -3.54715e-05 -2.05889e-06)
(9.1629e-06 -3.48138e-05 -1.92258e-06)