/*--------------------------------*- C++ -*----------------------------------*\
| =========                 |                                                 |
| \\      /  F ield         | OpenFOAM: The Open Source CFD Toolbox           |
|  \\    /   O peration     | Version:  v1912                                 |
|   \\  /    A nd           | Website:  www.openfoam.com                      |
|    \\/     M anipulation  |                                                 |
\*---------------------------------------------------------------------------*/
FoamFile
{
    version     2.0;
    format      ascii;
    class       volVectorField;
    location    "294/oil";
    object      U;
}
// * * * * * * * * * * * * * * * * * * * * * * * * * * * * * * * * * * * * * //

dimensions      [0 1 -1 0 0 0 0];


internalField   nonuniform List<vector> 
35580
(
(-1.19264e-09 2.38159e-09 -1.21686e-09)
(1.23296e-09 2.16067e-09 -2.92792e-09)
(1.12631e-08 2.12987e-09 -4.71069e-09)
(2.70556e-08 2.66075e-09 -6.5156e-09)
(4.62525e-08 3.5088e-09 -7.96902e-09)
(6.61669e-08 4.50753e-09 -8.94734e-09)
(8.43137e-08 5.56178e-09 -9.4411e-09)
(9.85352e-08 6.62679e-09 -9.50584e-09)
(1.07068e-07 7.67507e-09 -9.2257e-09)
(1.08738e-07 8.67949e-09 -8.67869e-09)
(1.02904e-07 9.58653e-09 -7.93824e-09)
(8.9615e-08 1.03541e-08 -7.19912e-09)
(6.96786e-08 1.09555e-08 -6.5126e-09)
(4.4345e-08 1.14125e-08 -6.02316e-09)
(1.55648e-08 1.16641e-08 -5.7671e-09)
(-1.44738e-08 1.16945e-08 -5.77213e-09)
(-4.33438e-08 1.14317e-08 -6.02258e-09)
(-6.87356e-08 1.0967e-08 -6.49741e-09)
(-8.88013e-08 1.03278e-08 -7.15419e-09)
(-1.02219e-07 9.57474e-09 -7.90375e-09)
(-1.08264e-07 8.68253e-09 -8.63677e-09)
(-1.06759e-07 7.66579e-09 -9.2085e-09)
(-9.83255e-08 6.61678e-09 -9.48782e-09)
(-8.41978e-08 5.55465e-09 -9.43177e-09)
(-6.6123e-08 4.50026e-09 -8.93947e-09)
(-4.62707e-08 3.50475e-09 -7.96135e-09)
(-2.71152e-08 2.65707e-09 -6.50433e-09)
(-1.13351e-08 2.11963e-09 -4.69e-09)
(-1.29355e-09 2.13804e-09 -2.90317e-09)
(1.1666e-09 2.33362e-09 -1.20099e-09)
(6.18587e-10 -2.24948e-09 6.03773e-10)
(1.23601e-08 -1.36875e-08 5.22923e-10)
(3.59905e-08 -2.28096e-08 -3.03307e-10)
(6.89068e-08 -2.77575e-08 -1.38375e-09)
(1.07203e-07 -2.93252e-08 -2.18079e-09)
(1.46283e-07 -2.83584e-08 -2.45537e-09)
(1.81539e-07 -2.55549e-08 -2.15188e-09)
(2.08816e-07 -2.14375e-08 -1.31153e-09)
(2.24675e-07 -1.64495e-08 -3.4138e-11)
(2.26692e-07 -1.10064e-08 1.53334e-09)
(2.13539e-07 -5.54452e-09 3.36759e-09)
(1.85244e-07 -5.35531e-10 5.08756e-09)
(1.43563e-07 3.59715e-09 6.59872e-09)
(9.12352e-08 6.61551e-09 7.6836e-09)
(3.19979e-08 8.21711e-09 8.25637e-09)
(-2.97998e-08 8.25164e-09 8.2753e-09)
(-8.92385e-08 6.58535e-09 7.71106e-09)
(-1.41666e-07 3.50792e-09 6.6598e-09)
(-1.83369e-07 -7.14729e-10 5.18691e-09)
(-2.11759e-07 -5.66764e-09 3.46797e-09)
(-2.25274e-07 -1.11225e-08 1.66373e-09)
(-2.23561e-07 -1.65572e-08 5.60823e-11)
(-2.07952e-07 -2.15108e-08 -1.22638e-09)
(-1.8095e-07 -2.56006e-08 -2.08401e-09)
(-1.45938e-07 -2.84032e-08 -2.39744e-09)
(-1.0706e-07 -2.93862e-08 -2.12784e-09)
(-6.89113e-08 -2.78524e-08 -1.34065e-09)
(-3.60519e-08 -2.29418e-08 -2.67343e-10)
(-1.24003e-08 -1.38256e-08 5.41393e-10)
(-6.27657e-10 -2.36818e-09 5.91849e-10)
(2.41479e-09 -2.20618e-08 2.4114e-09)
(2.42418e-08 -5.83748e-08 4.27087e-09)
(5.9329e-08 -8.52597e-08 4.66334e-09)
(1.04444e-07 -1.02354e-07 4.60525e-09)
(1.54841e-07 -1.11451e-07 4.69722e-09)
(2.05255e-07 -1.14278e-07 5.21615e-09)
(2.50151e-07 -1.12326e-07 6.26088e-09)
(2.8439e-07 -1.06806e-07 7.82252e-09)
(3.03649e-07 -9.87699e-08 9.80361e-09)
(3.04855e-07 -8.91948e-08 1.20296e-08)
(2.86236e-07 -7.90602e-08 1.44858e-08)
(2.4774e-07 -6.94213e-08 1.67606e-08)
(1.9167e-07 -6.13348e-08 1.86841e-08)
(1.2167e-07 -5.54779e-08 2.00749e-08)
(4.26406e-08 -5.23798e-08 2.08135e-08)
(-3.98102e-08 -5.2392e-08 2.08627e-08)
(-1.19162e-07 -5.56302e-08 2.01135e-08)
(-1.89287e-07 -6.16651e-08 1.87418e-08)
(-2.45316e-07 -6.98727e-08 1.68184e-08)
(-2.84016e-07 -7.94461e-08 1.45838e-08)
(-3.03102e-07 -8.95437e-08 1.21519e-08)
(-3.02263e-07 -9.90299e-08 9.88334e-09)
(-2.83325e-07 -1.06984e-07 7.8987e-09)
(-2.49415e-07 -1.1245e-07 6.33116e-09)
(-2.0482e-07 -1.14389e-07 5.28059e-09)
(-1.54654e-07 -1.11588e-07 4.76144e-09)
(-1.04425e-07 -1.0255e-07 4.65994e-09)
(-5.93826e-08 -8.55174e-08 4.7001e-09)
(-2.42974e-08 -5.86193e-08 4.27491e-09)
(-2.43799e-09 -2.22133e-08 2.38589e-09)
(3.85812e-09 -5.46618e-08 3.84768e-09)
(3.42016e-08 -1.27375e-07 7.13052e-09)
(7.88731e-08 -1.78562e-07 8.35751e-09)
(1.33591e-07 -2.12542e-07 8.98453e-09)
(1.92877e-07 -2.3292e-07 9.71548e-09)
(2.51085e-07 -2.42501e-07 1.0822e-08)
(3.0224e-07 -2.43647e-07 1.24119e-08)
(3.40732e-07 -2.3833e-07 1.44866e-08)
(3.61751e-07 -2.28314e-07 1.69566e-08)
(3.6181e-07 -2.15247e-07 1.96419e-08)
(3.38826e-07 -2.00791e-07 2.24803e-08)
(2.92757e-07 -1.86537e-07 2.51142e-08)
(2.26274e-07 -1.74286e-07 2.73589e-08)
(1.43473e-07 -1.6528e-07 2.89433e-08)
(5.02363e-08 -1.60536e-07 2.97727e-08)
(-4.70371e-08 -1.60606e-07 2.98353e-08)
(-1.40693e-07 -1.65479e-07 2.89614e-08)
(-2.2356e-07 -1.74618e-07 2.73722e-08)
(-2.90007e-07 -1.86897e-07 2.51421e-08)
(-3.36304e-07 -2.01095e-07 2.25464e-08)
(-3.59733e-07 -2.15522e-07 1.97009e-08)
(-3.60068e-07 -2.28512e-07 1.69894e-08)
(-3.39427e-07 -2.38467e-07 1.4523e-08)
(-3.01303e-07 -2.43742e-07 1.24501e-08)
(-2.50487e-07 -2.426e-07 1.0866e-08)
(-1.92585e-07 -2.33075e-07 9.76786e-09)
(-1.33523e-07 -2.12786e-07 9.02462e-09)
(-7.8907e-08 -1.78865e-07 8.36863e-09)
(-3.42694e-08 -1.27631e-07 7.10653e-09)
(-3.89505e-09 -5.48576e-08 3.80768e-09)
(4.88024e-09 -9.73181e-08 4.86814e-09)
(4.172e-08 -2.15533e-07 9.10749e-09)
(9.39382e-08 -2.95968e-07 1.08623e-08)
(1.56171e-07 -3.50105e-07 1.19175e-08)
(2.22228e-07 -3.84337e-07 1.30454e-08)
(2.86181e-07 -4.02859e-07 1.45554e-08)
(3.41794e-07 -4.08999e-07 1.65394e-08)
(3.8321e-07 -4.05507e-07 1.90125e-08)
(4.05348e-07 -3.94862e-07 2.18824e-08)
(4.04467e-07 -3.79399e-07 2.49727e-08)
(3.78289e-07 -3.6146e-07 2.81381e-08)
(3.26667e-07 -3.43179e-07 3.11037e-08)
(2.52341e-07 -3.2706e-07 3.36569e-08)
(1.59889e-07 -3.14953e-07 3.54207e-08)
(5.59592e-08 -3.08596e-07 3.63431e-08)
(-5.24741e-08 -3.08699e-07 3.64189e-08)
(-1.56885e-07 -3.15114e-07 3.54443e-08)
(-2.49285e-07 -3.27177e-07 3.3662e-08)
(-3.2362e-07 -3.43273e-07 3.11606e-08)
(-3.75529e-07 -3.61517e-07 2.82047e-08)
(-4.02175e-07 -3.79452e-07 2.50213e-08)
(-4.035e-07 -3.94901e-07 2.19185e-08)
(-3.81773e-07 -4.05551e-07 1.90526e-08)
(-3.40743e-07 -4.09051e-07 1.65799e-08)
(-2.85478e-07 -4.02949e-07 1.45921e-08)
(-2.21843e-07 -3.84489e-07 1.30822e-08)
(-1.56044e-07 -3.50352e-07 1.1931e-08)
(-9.39555e-08 -2.96247e-07 1.08354e-08)
(-4.18073e-08 -2.15684e-07 9.03461e-09)
(-4.93738e-09 -9.75477e-08 4.80579e-09)
(5.53347e-09 -1.47124e-07 5.54684e-09)
(4.68693e-08 -3.17479e-07 1.03779e-08)
(1.04552e-07 -4.30855e-07 1.24301e-08)
(1.72283e-07 -5.07501e-07 1.3735e-08)
(2.43265e-07 -5.57395e-07 1.5108e-08)
(3.11372e-07 -5.86508e-07 1.68887e-08)
(3.70215e-07 -5.99244e-07 1.9173e-08)
(4.13792e-07 -5.99145e-07 2.19876e-08)
(4.36845e-07 -5.89379e-07 2.52302e-08)
(4.35434e-07 -5.72919e-07 2.87297e-08)
(4.07206e-07 -5.5275e-07 3.22618e-08)
(3.51804e-07 -5.31593e-07 3.56217e-08)
(2.71722e-07 -5.12387e-07 3.851e-08)
(1.72121e-07 -4.97621e-07 4.04972e-08)
(6.02e-08 -4.89839e-07 4.15205e-08)
(-5.65209e-08 -4.89927e-07 4.15918e-08)
(-1.68975e-07 -4.97759e-07 4.05059e-08)
(-2.68428e-07 -5.12296e-07 3.85107e-08)
(-3.48536e-07 -5.3154e-07 3.57116e-08)
(-4.0428e-07 -5.5268e-07 3.23476e-08)
(-4.33012e-07 -5.72853e-07 2.87969e-08)
(-4.34901e-07 -5.89332e-07 2.52878e-08)
(-4.12281e-07 -5.99141e-07 2.20435e-08)
(-3.69108e-07 -5.99278e-07 1.9234e-08)
(-3.10613e-07 -5.86595e-07 1.69356e-08)
(-2.42815e-07 -5.57532e-07 1.51456e-08)
(-1.72099e-07 -5.077e-07 1.37334e-08)
(-1.04553e-07 -4.31042e-07 1.23701e-08)
(-4.69882e-08 -3.17481e-07 1.02605e-08)
(-5.61652e-09 -1.47378e-07 5.4637e-09)
(5.90678e-09 -2.01472e-07 5.92687e-09)
(4.99128e-08 -4.28455e-07 1.10783e-08)
(1.10937e-07 -5.77281e-07 1.33081e-08)
(1.82043e-07 -6.78042e-07 1.47516e-08)
(2.56061e-07 -7.44942e-07 1.62779e-08)
(3.26742e-07 -7.86018e-07 1.82649e-08)
(3.87643e-07 -8.06875e-07 2.08017e-08)
(4.32702e-07 -8.11861e-07 2.39304e-08)
(4.56551e-07 -8.04781e-07 2.75354e-08)
(4.55095e-07 -7.89156e-07 3.1446e-08)
(4.25891e-07 -7.685e-07 3.53846e-08)
(3.68354e-07 -7.46106e-07 3.9148e-08)
(2.84649e-07 -7.2516e-07 4.24108e-08)
(1.80311e-07 -7.08475e-07 4.46417e-08)
(6.30199e-08 -6.9956e-07 4.57439e-08)
(-5.92045e-08 -6.99601e-07 4.58173e-08)
(-1.77088e-07 -7.08664e-07 4.46286e-08)
(-2.81252e-07 -7.24985e-07 4.24276e-08)
(-3.64977e-07 -7.46047e-07 3.92762e-08)
(-4.22881e-07 -7.68437e-07 3.5505e-08)
(-4.52615e-07 -7.8909e-07 3.15436e-08)
(-4.54572e-07 -8.04744e-07 2.76192e-08)
(-4.31165e-07 -8.11877e-07 2.40045e-08)
(-3.86516e-07 -8.06928e-07 2.0877e-08)
(-3.2596e-07 -7.86106e-07 1.83168e-08)
(-2.55575e-07 -7.45047e-07 1.63179e-08)
(-1.81818e-07 -6.78147e-07 1.47329e-08)
(-1.10912e-07 -5.77269e-07 1.32091e-08)
(-5.00412e-08 -4.2822e-07 1.09316e-08)
(-5.99756e-09 -2.01795e-07 5.83865e-09)
(6.01986e-09 -2.58025e-07 6.06461e-09)
(5.09689e-08 -5.44e-07 1.13285e-08)
(1.13173e-07 -7.29595e-07 1.36329e-08)
(1.85401e-07 -8.55397e-07 1.51512e-08)
(2.60367e-07 -9.40273e-07 1.67679e-08)
(3.31831e-07 -9.94544e-07 1.89004e-08)
(3.93418e-07 -1.02508e-06 2.16558e-08)
(4.39124e-07 -1.03705e-06 2.50694e-08)
(4.63554e-07 -1.03479e-06 2.90203e-08)
(4.62501e-07 -1.02228e-06 3.3341e-08)
(4.33401e-07 -1.00344e-06 3.77188e-08)
(3.75452e-07 -9.81962e-07 4.18676e-08)
(2.90336e-07 -9.61046e-07 4.55264e-08)
(1.83802e-07 -9.43345e-07 4.80231e-08)
(6.41804e-08 -9.33875e-07 4.92374e-08)
(-6.04311e-08 -9.3408e-07 4.93584e-08)
(-1.80677e-07 -9.43852e-07 4.80302e-08)
(-2.87001e-07 -9.61009e-07 4.55861e-08)
(-3.72071e-07 -9.82015e-07 4.2002e-08)
(-4.30394e-07 -1.00349e-06 3.78317e-08)
(-4.60008e-07 -1.02229e-06 3.34363e-08)
(-4.61562e-07 -1.03482e-06 2.91036e-08)
(-4.37571e-07 -1.03713e-06 2.51416e-08)
(-3.92264e-07 -1.02521e-06 2.17323e-08)
(-3.3101e-07 -9.9469e-07 1.89546e-08)
(-2.59837e-07 -9.40399e-07 1.67894e-08)
(-1.85132e-07 -8.55425e-07 1.5095e-08)
(-1.1312e-07 -7.29358e-07 1.35046e-08)
(-5.10901e-08 -5.43513e-07 1.11803e-08)
(-6.1182e-09 -2.58508e-07 5.98719e-09)
(5.92243e-09 -3.14699e-07 5.96653e-09)
(5.01255e-08 -6.59783e-07 1.11373e-08)
(1.11224e-07 -8.82346e-07 1.34281e-08)
(1.82089e-07 -1.03345e-06 1.49995e-08)
(2.55608e-07 -1.13675e-06 1.66752e-08)
(3.25743e-07 -1.20516e-06 1.88683e-08)
(3.86317e-07 -1.24684e-06 2.17585e-08)
(4.31523e-07 -1.26772e-06 2.53766e-08)
(4.56073e-07 -1.27258e-06 2.95942e-08)
(4.55704e-07 -1.2657e-06 3.42528e-08)
(4.27735e-07 -1.25124e-06 3.90131e-08)
(3.71239e-07 -1.23294e-06 4.34955e-08)
(2.87368e-07 -1.21406e-06 4.74487e-08)
(1.81779e-07 -1.19695e-06 5.02377e-08)
(6.34926e-08 -1.18804e-06 5.16533e-08)
(-5.98457e-08 -1.18827e-06 5.17705e-08)
(-1.78746e-07 -1.19736e-06 5.01872e-08)
(-2.84114e-07 -1.21397e-06 4.74941e-08)
(-3.67883e-07 -1.23305e-06 4.36165e-08)
(-4.24794e-07 -1.25139e-06 3.91162e-08)
(-4.53249e-07 -1.26582e-06 3.43514e-08)
(-4.54122e-07 -1.2727e-06 2.96815e-08)
(-4.30005e-07 -1.26791e-06 2.54488e-08)
(-3.85167e-07 -1.2471e-06 2.18293e-08)
(-3.24906e-07 -1.2054e-06 1.88991e-08)
(-2.55065e-07 -1.13686e-06 1.66265e-08)
(-1.81787e-07 -1.03321e-06 1.48805e-08)
(-1.11123e-07 -8.81679e-07 1.32816e-08)
(-5.01972e-08 -6.58981e-07 1.09944e-08)
(-6.00198e-09 -3.15269e-07 5.88728e-09)
(5.61076e-09 -3.69336e-07 5.6037e-09)
(4.73428e-08 -7.71421e-07 1.04628e-08)
(1.04985e-07 -1.02989e-06 1.26241e-08)
(1.71814e-07 -1.20586e-06 1.41952e-08)
(2.41207e-07 -1.32751e-06 1.59233e-08)
(3.07533e-07 -1.4104e-06 1.81283e-08)
(3.65037e-07 -1.46432e-06 2.10334e-08)
(4.08266e-07 -1.49576e-06 2.47193e-08)
(4.32208e-07 -1.50984e-06 2.90387e-08)
(4.32666e-07 -1.51099e-06 3.38588e-08)
(4.06854e-07 -1.50337e-06 3.88359e-08)
(3.5371e-07 -1.49054e-06 4.35486e-08)
(2.74042e-07 -1.47548e-06 4.75748e-08)
(1.73197e-07 -1.46065e-06 5.05538e-08)
(6.05219e-08 -1.45345e-06 5.21952e-08)
(-5.71923e-08 -1.45367e-06 5.23151e-08)
(-1.70412e-07 -1.46073e-06 5.04988e-08)
(-2.70838e-07 -1.47466e-06 4.75976e-08)
(-3.50361e-07 -1.49012e-06 4.36698e-08)
(-4.04e-07 -1.50343e-06 3.89305e-08)
(-4.30245e-07 -1.51117e-06 3.39611e-08)
(-4.30311e-07 -1.51006e-06 2.91248e-08)
(-4.0681e-07 -1.49609e-06 2.47855e-08)
(-3.63908e-07 -1.46474e-06 2.11101e-08)
(-3.06679e-07 -1.41071e-06 1.81519e-08)
(-2.40614e-07 -1.32737e-06 1.58762e-08)
(-1.7142e-07 -1.20512e-06 1.41683e-08)
(-1.04753e-07 -1.02873e-06 1.26353e-08)
(-4.73094e-08 -7.70399e-07 1.04749e-08)
(-5.64872e-09 -3.70014e-07 5.59722e-09)
(5.07976e-09 -4.19673e-07 4.99997e-09)
(4.25647e-08 -8.74152e-07 9.37652e-09)
(9.4356e-08 -1.16596e-06 1.13017e-08)
(1.54341e-07 -1.36561e-06 1.27473e-08)
(2.16698e-07 -1.505e-06 1.44569e-08)
(2.76468e-07 -1.60208e-06 1.66168e-08)
(3.28579e-07 -1.66862e-06 1.94088e-08)
(3.68069e-07 -1.71169e-06 2.29552e-08)
(3.904e-07 -1.73647e-06 2.71058e-08)
(3.9158e-07 -1.74737e-06 3.18178e-08)
(3.6872e-07 -1.74834e-06 3.67515e-08)
(3.20869e-07 -1.74236e-06 4.14544e-08)
(2.48867e-07 -1.73281e-06 4.53421e-08)
(1.57487e-07 -1.72261e-06 4.8342e-08)
(5.50984e-08 -1.71786e-06 5.00498e-08)
(-5.21105e-08 -1.71813e-06 5.02023e-08)
(-1.54951e-07 -1.72257e-06 4.83559e-08)
(-2.45817e-07 -1.73184e-06 4.52706e-08)
(-3.17895e-07 -1.74213e-06 4.14646e-08)
(-3.66225e-07 -1.74853e-06 3.67582e-08)
(-3.89297e-07 -1.74767e-06 3.19081e-08)
(-3.88613e-07 -1.73674e-06 2.71986e-08)
(-3.6674e-07 -1.71212e-06 2.30124e-08)
(-3.27559e-07 -1.66923e-06 1.94988e-08)
(-2.75734e-07 -1.60232e-06 1.66434e-08)
(-2.16176e-07 -1.50415e-06 1.4406e-08)
(-1.53904e-07 -1.36389e-06 1.26888e-08)
(-9.39818e-08 -1.16405e-06 1.11956e-08)
(-4.24051e-08 -8.72717e-07 9.25739e-09)
(-5.034e-09 -4.20258e-07 4.97439e-09)
(4.30256e-09 -4.6348e-07 4.16099e-09)
(3.57274e-08 -9.63104e-07 7.83031e-09)
(7.9152e-08 -1.28355e-06 9.48209e-09)
(1.29667e-07 -1.5044e-06 1.07823e-08)
(1.82199e-07 -1.66044e-06 1.23544e-08)
(2.32576e-07 -1.77112e-06 1.43867e-08)
(2.76773e-07 -1.8499e-06 1.6939e-08)
(3.10564e-07 -1.90476e-06 2.00944e-08)
(3.30096e-07 -1.94074e-06 2.37275e-08)
(3.31696e-07 -1.96177e-06 2.79117e-08)
(3.12628e-07 -1.97124e-06 3.22801e-08)
(2.72119e-07 -1.97276e-06 3.64508e-08)
(2.11154e-07 -1.9704e-06 4.00844e-08)
(1.34007e-07 -1.96662e-06 4.29988e-08)
(4.69528e-08 -1.96489e-06 4.46293e-08)
(-4.43932e-08 -1.96503e-06 4.47905e-08)
(-1.31898e-07 -1.96637e-06 4.31999e-08)
(-2.08679e-07 -1.97026e-06 4.0342e-08)
(-2.69788e-07 -1.97476e-06 3.6936e-08)
(-3.10472e-07 -1.97286e-06 3.25802e-08)
(-3.29573e-07 -1.96245e-06 2.81106e-08)
(-3.28469e-07 -1.94094e-06 2.37729e-08)
(-3.09446e-07 -1.90513e-06 1.9897e-08)
(-2.75888e-07 -1.85047e-06 1.66489e-08)
(-2.3187e-07 -1.77094e-06 1.40398e-08)
(-1.8153e-07 -1.65884e-06 1.2053e-08)
(-1.29087e-07 -1.50212e-06 1.05913e-08)
(-7.88117e-08 -1.28151e-06 9.3798e-09)
(-3.5613e-08 -9.61416e-07 7.79534e-09)
(-4.24632e-09 -4.63872e-07 4.2207e-09)
(3.36642e-09 -4.98406e-07 3.03387e-09)
(2.73091e-08 -1.03372e-06 5.67346e-09)
(6.00423e-08 -1.37675e-06 6.94124e-09)
(9.83779e-08 -1.6146e-06 7.94712e-09)
(1.38379e-07 -1.78473e-06 9.09709e-09)
(1.76822e-07 -1.90777e-06 1.06746e-08)
(2.10598e-07 -1.99766e-06 1.27768e-08)
(2.36553e-07 -2.06315e-06 1.54859e-08)
(2.52053e-07 -2.10933e-06 1.86001e-08)
(2.53866e-07 -2.1393e-06 2.20167e-08)
(2.3929e-07 -2.15693e-06 2.53511e-08)
(2.08083e-07 -2.16725e-06 2.86909e-08)
(1.61821e-07 -2.17324e-06 3.19184e-08)
(1.03196e-07 -2.1751e-06 3.43415e-08)
(3.64116e-08 -2.17573e-06 3.55866e-08)
(-3.36752e-08 -2.17512e-06 3.54846e-08)
(-1.01059e-07 -2.17339e-06 3.41336e-08)
(-1.5994e-07 -2.17201e-06 3.17182e-08)
(-2.06667e-07 -2.16956e-06 2.88112e-08)
(-2.37491e-07 -2.15881e-06 2.53487e-08)
(-2.51763e-07 -2.13981e-06 2.18454e-08)
(-2.50579e-07 -2.1091e-06 1.8451e-08)
(-2.35692e-07 -2.06317e-06 1.53902e-08)
(-2.09819e-07 -1.99779e-06 1.27917e-08)
(-1.76215e-07 -1.90718e-06 1.07139e-08)
(-1.3795e-07 -1.78341e-06 9.15835e-09)
(-9.81331e-08 -1.61357e-06 8.04206e-09)
(-5.99083e-08 -1.37656e-06 7.12824e-09)
(-2.7042e-08 -1.03335e-06 5.92012e-09)
(-3.23396e-09 -4.9928e-07 3.18291e-09)
(2.13394e-09 -5.2334e-07 1.97109e-09)
(1.72642e-08 -1.08362e-06 3.65015e-09)
(3.79116e-08 -1.44266e-06 4.36287e-09)
(6.21607e-08 -1.69159e-06 4.88541e-09)
(8.72535e-08 -1.8711e-06 5.5604e-09)
(1.11337e-07 -2.0032e-06 6.59388e-09)
(1.32532e-07 -2.10161e-06 8.00542e-09)
(1.4876e-07 -2.17533e-06 9.8438e-09)
(1.5872e-07 -2.22947e-06 1.20088e-08)
(1.603e-07 -2.26664e-06 1.43039e-08)
(1.51285e-07 -2.2921e-06 1.6575e-08)
(1.31802e-07 -2.3105e-06 1.89546e-08)
(1.02832e-07 -2.32318e-06 2.1162e-08)
(6.57998e-08 -2.32941e-06 2.2806e-08)
(2.35297e-08 -2.33167e-06 2.35566e-08)
(-2.07432e-08 -2.32945e-06 2.31705e-08)
(-6.35886e-08 -2.32461e-06 2.21194e-08)
(-1.00742e-07 -2.31853e-06 2.03247e-08)
(-1.30146e-07 -2.30909e-06 1.80723e-08)
(-1.49888e-07 -2.29052e-06 1.56214e-08)
(-1.59125e-07 -2.26407e-06 1.33169e-08)
(-1.58324e-07 -2.226e-06 1.13053e-08)
(-1.48777e-07 -2.1731e-06 9.54289e-09)
(-1.32304e-07 -2.10129e-06 8.07914e-09)
(-1.10925e-07 -2.00384e-06 6.88718e-09)
(-8.66649e-08 -1.8719e-06 5.9247e-09)
(-6.15613e-08 -1.69238e-06 5.21593e-09)
(-3.75391e-08 -1.44339e-06 4.61391e-09)
(-1.69364e-08 -1.08373e-06 3.8076e-09)
(-2.04253e-09 -5.24013e-07 2.00219e-09)
(7.87461e-10 -5.36376e-07 6.22852e-10)
(6.04938e-09 -1.10929e-06 1.24137e-09)
(1.32132e-08 -1.47723e-06 1.55998e-09)
(2.18259e-08 -1.73249e-06 1.76996e-09)
(3.06833e-08 -1.91718e-06 2.0463e-09)
(3.92356e-08 -2.05363e-06 2.47829e-09)
(4.69836e-08 -2.15543e-06 2.99056e-09)
(5.29923e-08 -2.23179e-06 3.50868e-09)
(5.66027e-08 -2.28953e-06 4.17795e-09)
(5.71426e-08 -2.33213e-06 5.09536e-09)
(5.3919e-08 -2.36365e-06 6.0504e-09)
(4.71556e-08 -2.38684e-06 6.93338e-09)
(3.68254e-08 -2.40245e-06 7.61348e-09)
(2.36804e-08 -2.41131e-06 8.3318e-09)
(8.90241e-09 -2.41557e-06 8.67658e-09)
(-6.72685e-09 -2.41334e-06 8.40082e-09)
(-2.24106e-08 -2.40727e-06 8.05614e-09)
(-3.54906e-08 -2.39889e-06 7.4021e-09)
(-4.56517e-08 -2.38593e-06 6.4728e-09)
(-5.25836e-08 -2.36281e-06 5.56046e-09)
(-5.58256e-08 -2.33079e-06 4.72309e-09)
(-5.56723e-08 -2.28724e-06 3.98804e-09)
(-5.24734e-08 -2.23004e-06 3.30654e-09)
(-4.67906e-08 -2.15501e-06 2.75991e-09)
(-3.92571e-08 -2.05429e-06 2.3607e-09)
(-3.05967e-08 -1.91827e-06 2.03156e-09)
(-2.16608e-08 -1.73367e-06 1.78135e-09)
(-1.31548e-08 -1.47837e-06 1.5731e-09)
(-5.89151e-09 -1.11004e-06 1.33487e-09)
(-6.75135e-10 -5.36922e-07 7.15428e-10)
(-5.65493e-10 -5.36915e-07 -6.66581e-10)
(-5.24935e-09 -1.11025e-06 -1.20809e-09)
(-1.18006e-08 -1.47873e-06 -1.41842e-09)
(-1.92548e-08 -1.73423e-06 -1.59608e-09)
(-2.70628e-08 -1.91913e-06 -1.82383e-09)
(-3.45819e-08 -2.0559e-06 -2.14686e-09)
(-4.12194e-08 -2.15807e-06 -2.56744e-09)
(-4.64538e-08 -2.23474e-06 -3.08936e-09)
(-4.95088e-08 -2.29247e-06 -3.74701e-09)
(-4.96673e-08 -2.33471e-06 -4.47656e-09)
(-4.6566e-08 -2.3661e-06 -5.38798e-09)
(-4.04486e-08 -2.38925e-06 -6.3952e-09)
(-3.1845e-08 -2.40456e-06 -7.23436e-09)
(-2.07628e-08 -2.4137e-06 -7.56289e-09)
(-7.38492e-09 -2.41788e-06 -7.59233e-09)
(6.96295e-09 -2.41539e-06 -7.48769e-09)
(2.01084e-08 -2.41015e-06 -6.98763e-09)
(3.22724e-08 -2.40201e-06 -6.37786e-09)
(4.15741e-08 -2.38842e-06 -5.84545e-09)
(4.72598e-08 -2.36516e-06 -5.00485e-09)
(5.02303e-08 -2.33316e-06 -4.11897e-09)
(5.0185e-08 -2.28947e-06 -3.28851e-09)
(4.73608e-08 -2.2321e-06 -2.76675e-09)
(4.21813e-08 -2.15671e-06 -2.43879e-09)
(3.5268e-08 -2.05561e-06 -2.10413e-09)
(2.75779e-08 -1.91929e-06 -1.84024e-09)
(1.96125e-08 -1.73445e-06 -1.61832e-09)
(1.19871e-08 -1.47903e-06 -1.40339e-09)
(5.46622e-09 -1.11056e-06 -1.08525e-09)
(7.06522e-10 -5.37213e-07 -5.46076e-10)
(-1.96446e-09 -5.24745e-07 -1.94376e-09)
(-1.63879e-08 -1.0854e-06 -3.68159e-09)
(-3.63219e-08 -1.44581e-06 -4.47436e-09)
(-5.94845e-08 -1.69541e-06 -5.06911e-09)
(-8.37087e-08 -1.87561e-06 -5.76428e-09)
(-1.07085e-07 -2.00862e-06 -6.69779e-09)
(-1.27577e-07 -2.10768e-06 -7.92982e-09)
(-1.43262e-07 -2.18138e-06 -9.53646e-09)
(-1.5243e-07 -2.23567e-06 -1.15338e-08)
(-1.53461e-07 -2.27318e-06 -1.36282e-08)
(-1.44642e-07 -2.29916e-06 -1.59449e-08)
(-1.25904e-07 -2.31786e-06 -1.83943e-08)
(-9.84744e-08 -2.33062e-06 -2.05078e-08)
(-6.32683e-08 -2.33817e-06 -2.18563e-08)
(-2.21283e-08 -2.34111e-06 -2.23772e-08)
(2.11359e-08 -2.33795e-06 -2.20751e-08)
(6.19737e-08 -2.33408e-06 -2.10845e-08)
(9.84136e-08 -2.3286e-06 -1.94825e-08)
(1.26488e-07 -2.31728e-06 -1.76792e-08)
(1.44708e-07 -2.29786e-06 -1.53473e-08)
(1.53907e-07 -2.27101e-06 -1.31294e-08)
(1.53104e-07 -2.23257e-06 -1.09838e-08)
(1.43566e-07 -2.1787e-06 -9.13588e-09)
(1.27716e-07 -2.10573e-06 -7.59589e-09)
(1.07232e-07 -2.00777e-06 -6.33859e-09)
(8.40952e-08 -1.87553e-06 -5.401e-09)
(5.9919e-08 -1.69565e-06 -4.68935e-09)
(3.66697e-08 -1.44637e-06 -4.13554e-09)
(1.67244e-08 -1.08611e-06 -3.40237e-09)
(2.10966e-09 -5.24948e-07 -1.84045e-09)
(-3.21232e-09 -5.00612e-07 -3.09409e-09)
(-2.65984e-08 -1.0363e-06 -5.77956e-09)
(-5.88178e-08 -1.38071e-06 -7.00397e-09)
(-9.63302e-08 -1.61861e-06 -7.90917e-09)
(-1.35427e-07 -1.78927e-06 -8.99688e-09)
(-1.73054e-07 -1.91394e-06 -1.04909e-08)
(-2.06118e-07 -2.00551e-06 -1.24817e-08)
(-2.31551e-07 -2.07199e-06 -1.50603e-08)
(-2.4637e-07 -2.11918e-06 -1.81992e-08)
(-2.47874e-07 -2.14995e-06 -2.1511e-08)
(-2.33669e-07 -2.16818e-06 -2.49169e-08)
(-2.03158e-07 -2.1788e-06 -2.81953e-08)
(-1.5824e-07 -2.18537e-06 -3.12196e-08)
(-1.01295e-07 -2.18885e-06 -3.34938e-08)
(-3.54719e-08 -2.19027e-06 -3.4648e-08)
(3.37082e-08 -2.1878e-06 -3.43712e-08)
(9.96681e-08 -2.18638e-06 -3.30603e-08)
(1.5822e-07 -2.18552e-06 -3.08136e-08)
(2.03591e-07 -2.1793e-06 -2.805e-08)
(2.33558e-07 -2.16719e-06 -2.46743e-08)
(2.48236e-07 -2.14832e-06 -2.13336e-08)
(2.47199e-07 -2.1182e-06 -1.80505e-08)
(2.32227e-07 -2.07209e-06 -1.51235e-08)
(2.06708e-07 -2.00615e-06 -1.25461e-08)
(1.73485e-07 -1.91524e-06 -1.04781e-08)
(1.35684e-07 -1.79087e-06 -8.91619e-09)
(9.64195e-08 -1.61988e-06 -7.65351e-09)
(5.89988e-08 -1.3819e-06 -6.67906e-09)
(2.69202e-08 -1.03749e-06 -5.46613e-09)
(3.3677e-09 -5.00529e-07 -2.94579e-09)
(-4.27922e-09 -4.65787e-07 -4.08504e-09)
(-3.53521e-08 -9.65618e-07 -7.62229e-09)
(-7.80338e-08 -1.28707e-06 -9.26659e-09)
(-1.27803e-07 -1.50862e-06 -1.05103e-08)
(-1.79701e-07 -1.66626e-06 -1.19625e-08)
(-2.29603e-07 -1.77932e-06 -1.39294e-08)
(-2.73312e-07 -1.85983e-06 -1.65124e-08)
(-3.06666e-07 -1.91557e-06 -1.97081e-08)
(-3.2578e-07 -1.95259e-06 -2.34946e-08)
(-3.27275e-07 -1.97482e-06 -2.76198e-08)
(-3.08456e-07 -1.9853e-06 -3.19801e-08)
(-2.68308e-07 -1.98747e-06 -3.60604e-08)
(-2.08387e-07 -1.98597e-06 -3.962e-08)
(-1.32622e-07 -1.9841e-06 -4.24816e-08)
(-4.59952e-08 -1.98359e-06 -4.4197e-08)
(4.45747e-08 -1.98208e-06 -4.40596e-08)
(1.31146e-07 -1.98345e-06 -4.24514e-08)
(2.08215e-07 -1.98774e-06 -3.95803e-08)
(2.68412e-07 -1.98844e-06 -3.60254e-08)
(3.08185e-07 -1.98493e-06 -3.20315e-08)
(3.27157e-07 -1.97422e-06 -2.77044e-08)
(3.26203e-07 -1.95274e-06 -2.34495e-08)
(3.07209e-07 -1.91618e-06 -1.98093e-08)
(2.73859e-07 -1.86043e-06 -1.67182e-08)
(2.30097e-07 -1.7803e-06 -1.42297e-08)
(1.80171e-07 -1.66818e-06 -1.2284e-08)
(1.28191e-07 -1.51159e-06 -1.06825e-08)
(7.82516e-08 -1.29076e-06 -9.3636e-09)
(3.5402e-08 -9.68707e-07 -7.69057e-09)
(4.27795e-09 -4.65898e-07 -4.0904e-09)
(-5.04479e-09 -4.22314e-07 -4.95894e-09)
(-4.22002e-08 -8.77639e-07 -9.26294e-09)
(-9.33953e-08 -1.17029e-06 -1.12042e-08)
(-1.5305e-07 -1.37117e-06 -1.26619e-08)
(-2.15086e-07 -1.51252e-06 -1.43308e-08)
(-2.74544e-07 -1.61177e-06 -1.65475e-08)
(-3.26338e-07 -1.6798e-06 -1.93872e-08)
(-3.65556e-07 -1.7239e-06 -2.28917e-08)
(-3.87633e-07 -1.74979e-06 -2.70766e-08)
(-3.88729e-07 -1.76186e-06 -3.17315e-08)
(-3.66006e-07 -1.76381e-06 -3.66547e-08)
(-3.18387e-07 -1.75874e-06 -4.13035e-08)
(-2.47124e-07 -1.75004e-06 -4.51877e-08)
(-1.56703e-07 -1.74183e-06 -4.81977e-08)
(-5.40092e-08 -1.73795e-06 -5.01544e-08)
(5.27627e-08 -1.73684e-06 -5.01266e-08)
(1.55101e-07 -1.74135e-06 -4.84826e-08)
(2.4624e-07 -1.75132e-06 -4.54433e-08)
(3.17814e-07 -1.75948e-06 -4.13314e-08)
(3.6559e-07 -1.76419e-06 -3.67072e-08)
(3.88573e-07 -1.76213e-06 -3.17763e-08)
(3.87868e-07 -1.75026e-06 -2.70347e-08)
(3.65904e-07 -1.72455e-06 -2.28747e-08)
(3.26759e-07 -1.68053e-06 -1.93326e-08)
(2.74972e-07 -1.61275e-06 -1.65081e-08)
(2.15526e-07 -1.51429e-06 -1.43888e-08)
(1.53556e-07 -1.37432e-06 -1.27254e-08)
(9.38705e-08 -1.17444e-06 -1.123e-08)
(4.24955e-08 -8.80972e-07 -9.26972e-09)
(5.1105e-09 -4.22349e-07 -4.94513e-09)
(-5.61749e-09 -3.72026e-07 -5.6145e-09)
(-4.71909e-08 -7.75592e-07 -1.04823e-08)
(-1.04561e-07 -1.0352e-06 -1.2637e-08)
(-1.71204e-07 -1.21274e-06 -1.41683e-08)
(-2.40406e-07 -1.3362e-06 -1.58606e-08)
(-3.06597e-07 -1.4207e-06 -1.81223e-08)
(-3.63994e-07 -1.47586e-06 -2.10838e-08)
(-4.07124e-07 -1.50836e-06 -2.47619e-08)
(-4.30939e-07 -1.5235e-06 -2.91084e-08)
(-4.31308e-07 -1.52571e-06 -3.39188e-08)
(-4.05442e-07 -1.51908e-06 -3.89282e-08)
(-3.52363e-07 -1.50743e-06 -4.36966e-08)
(-2.73369e-07 -1.49373e-06 -4.77817e-08)
(-1.7315e-07 -1.48074e-06 -5.07522e-08)
(-5.9634e-08 -1.47343e-06 -5.25059e-08)
(5.80673e-08 -1.47246e-06 -5.23438e-08)
(1.7134e-07 -1.47956e-06 -5.07652e-08)
(2.72066e-07 -1.49348e-06 -4.77984e-08)
(3.51471e-07 -1.50737e-06 -4.36146e-08)
(4.0484e-07 -1.51926e-06 -3.89163e-08)
(4.30997e-07 -1.52596e-06 -3.39287e-08)
(4.30945e-07 -1.52394e-06 -2.9102e-08)
(4.07314e-07 -1.50896e-06 -2.47626e-08)
(3.64343e-07 -1.47658e-06 -2.10607e-08)
(3.07058e-07 -1.42157e-06 -1.81054e-08)
(2.40912e-07 -1.33735e-06 -1.58925e-08)
(1.71648e-07 -1.2146e-06 -1.42402e-08)
(1.04826e-07 -1.03789e-06 -1.27089e-08)
(4.73012e-08 -7.78057e-07 -1.05244e-08)
(5.59349e-09 -3.72085e-07 -5.61896e-09)
(-5.95643e-09 -3.17387e-07 -5.96056e-09)
(-5.01771e-08 -6.6406e-07 -1.10698e-08)
(-1.11319e-07 -8.8813e-07 -1.3312e-08)
(-1.82182e-07 -1.04084e-06 -1.49066e-08)
(-2.55684e-07 -1.14563e-06 -1.66527e-08)
(-3.25845e-07 -1.21525e-06 -1.89297e-08)
(-3.8646e-07 -1.25799e-06 -2.18755e-08)
(-4.31686e-07 -1.27985e-06 -2.55109e-08)
(-4.56197e-07 -1.28567e-06 -2.97702e-08)
(-4.55734e-07 -1.27975e-06 -3.44504e-08)
(-4.27578e-07 -1.26618e-06 -3.92577e-08)
(-3.70967e-07 -1.24889e-06 -4.38185e-08)
(-2.87533e-07 -1.2311e-06 -4.78032e-08)
(-1.82101e-07 -1.2155e-06 -5.06201e-08)
(-6.27079e-08 -1.20636e-06 -5.217e-08)
(6.09821e-08 -1.20586e-06 -5.20558e-08)
(1.80248e-07 -1.21483e-06 -5.06722e-08)
(2.86047e-07 -1.23105e-06 -4.78348e-08)
(3.69926e-07 -1.24903e-06 -4.38157e-08)
(4.26859e-07 -1.26643e-06 -3.92993e-08)
(4.55318e-07 -1.28006e-06 -3.4493e-08)
(4.56061e-07 -1.28612e-06 -2.98005e-08)
(4.31751e-07 -1.28042e-06 -2.55398e-08)
(3.8668e-07 -1.2587e-06 -2.18937e-08)
(3.26166e-07 -1.2161e-06 -1.89518e-08)
(2.56053e-07 -1.14665e-06 -1.67053e-08)
(1.82468e-07 -1.04217e-06 -1.5053e-08)
(1.11417e-07 -8.89947e-07 -1.35598e-08)
(5.01797e-08 -6.66005e-07 -1.12947e-08)
(5.89256e-09 -3.17389e-07 -6.02438e-09)
(-6.06364e-09 -2.60586e-07 -6.09007e-09)
(-5.11615e-08 -5.4808e-07 -1.1309e-08)
(-1.13577e-07 -7.35366e-07 -1.35711e-08)
(-1.85987e-07 -8.62575e-07 -1.51485e-08)
(-2.61136e-07 -9.48568e-07 -1.6849e-08)
(-3.32811e-07 -1.0038e-06 -1.90347e-08)
(-3.94577e-07 -1.03522e-06 -2.18328e-08)
(-4.40399e-07 -1.04803e-06 -2.52692e-08)
(-4.64863e-07 -1.04659e-06 -2.92703e-08)
(-4.63714e-07 -1.03489e-06 -3.36296e-08)
(-4.34312e-07 -1.0168e-06 -3.80689e-08)
(-3.76072e-07 -9.9604e-07 -4.23149e-08)
(-2.91095e-07 -9.75755e-07 -4.59916e-08)
(-1.84487e-07 -9.59262e-07 -4.85736e-08)
(-6.36654e-08 -9.49799e-07 -4.99321e-08)
(6.17356e-08 -9.49538e-07 -4.98815e-08)
(1.82442e-07 -9.58856e-07 -4.86282e-08)
(2.89547e-07 -9.75844e-07 -4.59737e-08)
(3.7507e-07 -9.96159e-07 -4.22857e-08)
(4.33581e-07 -1.01696e-06 -3.81113e-08)
(4.63219e-07 -1.03511e-06 -3.36834e-08)
(4.64626e-07 -1.04694e-06 -2.93149e-08)
(4.40367e-07 -1.0485e-06 -2.53102e-08)
(3.9469e-07 -1.0358e-06 -2.18634e-08)
(3.33012e-07 -1.00449e-06 -1.90644e-08)
(2.61387e-07 -9.49369e-07 -1.68904e-08)
(1.86204e-07 -8.63503e-07 -1.52423e-08)
(1.13693e-07 -7.36518e-07 -1.37545e-08)
(5.11898e-08 -5.49466e-07 -1.14827e-08)
(6.03469e-09 -2.60536e-07 -6.13189e-09)
(-5.97378e-09 -2.0361e-07 -5.93819e-09)
(-5.02334e-08 -4.32098e-07 -1.10558e-08)
(-1.11563e-07 -5.8249e-07 -1.32965e-08)
(-1.83016e-07 -6.84388e-07 -1.48173e-08)
(-2.57383e-07 -7.52164e-07 -1.64149e-08)
(-3.28413e-07 -7.94004e-07 -1.84395e-08)
(-3.89603e-07 -8.15559e-07 -2.10236e-08)
(-4.34864e-07 -8.21203e-07 -2.41842e-08)
(-4.58814e-07 -8.1475e-07 -2.78454e-08)
(-4.57263e-07 -7.99742e-07 -3.18101e-08)
(-4.27667e-07 -7.79656e-07 -3.5846e-08)
(-3.69686e-07 -7.57751e-07 -3.97154e-08)
(-2.85902e-07 -7.37264e-07 -4.30013e-08)
(-1.81306e-07 -7.21463e-07 -4.53076e-08)
(-6.26572e-08 -7.12677e-07 -4.65174e-08)
(6.07353e-08 -7.12331e-07 -4.6482e-08)
(1.79165e-07 -7.20925e-07 -4.53007e-08)
(2.84312e-07 -7.37199e-07 -4.29316e-08)
(3.6865e-07 -7.57739e-07 -3.96376e-08)
(4.26875e-07 -7.79699e-07 -3.58543e-08)
(4.56681e-07 -7.99887e-07 -3.1858e-08)
(4.58488e-07 -8.15011e-07 -2.78888e-08)
(4.34761e-07 -8.21567e-07 -2.4224e-08)
(3.89645e-07 -8.16004e-07 -2.10527e-08)
(3.28543e-07 -7.94526e-07 -1.8466e-08)
(2.57574e-07 -7.52763e-07 -1.64421e-08)
(1.83212e-07 -6.85059e-07 -1.48591e-08)
(1.11716e-07 -5.83249e-07 -1.33828e-08)
(5.02495e-08 -4.33e-07 -1.11799e-08)
(5.93672e-09 -2.03678e-07 -5.97989e-09)
(-5.62518e-09 -1.48819e-07 -5.53099e-09)
(-4.72884e-08 -3.20563e-07 -1.03482e-08)
(-1.05359e-07 -4.35251e-07 -1.2453e-08)
(-1.73537e-07 -5.12755e-07 -1.38247e-08)
(-2.44946e-07 -5.63277e-07 -1.52553e-08)
(-3.13481e-07 -5.92939e-07 -1.70665e-08)
(-3.72692e-07 -6.06178e-07 -1.93968e-08)
(-4.16524e-07 -6.06547e-07 -2.22382e-08)
(-4.39718e-07 -5.97212e-07 -2.55268e-08)
(-4.38223e-07 -5.81177e-07 -2.90741e-08)
(-4.09575e-07 -5.61349e-07 -3.27203e-08)
(-3.5368e-07 -5.40531e-07 -3.61749e-08)
(-2.73422e-07 -5.21714e-07 -3.90962e-08)
(-1.73364e-07 -5.07455e-07 -4.11631e-08)
(-5.99597e-08 -4.99726e-07 -4.2285e-08)
(5.80859e-08 -4.99395e-07 -4.22473e-08)