/*--------------------------------*- C++ -*----------------------------------*\
| =========                 |                                                 |
| \\      /  F ield         | OpenFOAM: The Open Source CFD Toolbox           |
|  \\    /   O peration     | Version:  v1906                                 |
|   \\  /    A nd           | Web:      www.OpenFOAM.com                      |
|    \\/     M anipulation  |                                                 |
\*---------------------------------------------------------------------------*/
FoamFile
{
    version     2.0;
    format      ascii;
    class       surfaceScalarField;
    location    "88.2/oil";
    object      phi;
}
// * * * * * * * * * * * * * * * * * * * * * * * * * * * * * * * * * * * * * //

dimensions      [1 0 -1 0 0 0 0];
oriented        oriented;


internalField   nonuniform List<scalar> 
80688
(
-2.069e-06
-2.10346e-06
-2.069e-06
-9.33352e-07
-5.8713e-07
-5.48521e-07
-2.50128e-07
-3.4398e-07
-3.39244e-07
-1.1664e-07
-6.71352e-08
-6.63538e-08
-3.6805e-08
-4.00249e-08
-3.98099e-08
3.6925e-09
-2.00301e-08
-2.04675e-08
2.65651e-08
-1.0866e-08
-1.20068e-08
3.95273e-08
-5.63482e-09
-7.32747e-09
4.58373e-08
-2.14131e-09
-4.16885e-09
4.68975e-08
5.34858e-10
-1.59515e-09
4.34481e-08
2.77126e-09
6.77982e-10
3.61613e-08
4.63149e-09
2.65527e-09
2.57691e-08
6.09856e-09
4.29358e-09
1.31676e-08
7.12765e-09
5.47382e-09
-6.05312e-10
7.66921e-09
6.10361e-09
-1.44407e-08
7.69994e-09
6.13537e-09
-2.72441e-08
7.22706e-09
5.5763e-09
-3.80272e-08
6.29163e-09
4.49152e-09
-4.59992e-08
4.97104e-09
3.00084e-09
-5.06303e-08
3.364e-09
1.26713e-09
-5.16979e-08
1.59072e-09
-5.23199e-10
-4.92729e-08
-2.23966e-10
-2.20107e-09
-4.37895e-08
-1.93137e-09
-3.55199e-09
-3.5944e-08
-3.43347e-09
-4.41214e-09
-2.66911e-08
-4.58589e-09
-4.66701e-09
-1.71903e-08
-5.22932e-09
-4.27147e-09
-8.72765e-09
-5.16397e-09
-3.29877e-09
-2.5742e-09
-4.15497e-09
-1.99852e-09
3.18493e-10
-2.0122e-09
-8.80547e-10
6.33201e-10
-3.14742e-10
-5.55833e-07
-9.91802e-07
-5.55826e-07
-3.28237e-07
-3.70335e-07
-4.44392e-07
-2.2577e-07
-2.57909e-07
-1.88538e-07
-9.45901e-08
-1.24244e-07
-7.40715e-08
-1.49615e-08
-8.37183e-08
-3.59352e-08
3.55008e-08
-5.7949e-08
-1.25436e-08
6.85748e-08
-4.40663e-08
1.26064e-10
8.8986e-08
-3.43784e-08
8.33226e-09
9.89266e-08
-2.66837e-08
1.46017e-08
9.94421e-08
-1.99533e-08
1.99726e-08
9.13599e-08
-1.39305e-08
2.47839e-08
7.56755e-08
-8.69245e-09
2.90082e-08
5.37627e-08
-4.44715e-09
3.24585e-08
2.73927e-08
-1.434e-09
3.49316e-08
-1.34678e-09
1.57036e-10
3.62516e-08
-3.02104e-08
2.41804e-10
3.63217e-08
-5.69763e-08
-1.16317e-09
3.51561e-08
-7.9635e-08
-3.93333e-09
3.28836e-08
-9.65758e-08
-7.81861e-09
2.97304e-08
-1.06719e-07
-1.24825e-08
2.59891e-08
-1.09605e-07
-1.75324e-08
2.20095e-08
-1.0543e-07
-2.25353e-08
1.81368e-08
-9.50094e-08
-2.70481e-08
1.46957e-08
-7.97449e-08
-3.0622e-08
1.19241e-08
-6.15085e-08
-3.27879e-08
9.96562e-09
-4.25013e-08
-3.30363e-08
8.79972e-09
-2.50494e-08
-3.07992e-08
8.18322e-09
-1.13045e-08
-2.54787e-08
7.57873e-09
-2.80316e-09
-1.65948e-08
6.08127e-09
-4.97917e-09
2.80917e-09
-3.43617e-07
-3.04576e-07
-3.43609e-07
-2.21143e-07
-3.03599e-07
-1.89211e-07
-1.32963e-07
-2.34515e-07
-1.11573e-07
-4.35711e-08
-1.6518e-07
-4.84557e-08
2.16906e-08
-1.34044e-07
-1.49358e-08
7.02681e-08
-1.12575e-07
6.04798e-09
1.04899e-07
-9.79349e-08
1.92381e-08
1.27138e-07
-8.54931e-08
2.88748e-08
1.37568e-07
-7.39316e-08
3.6818e-08
1.36513e-07
-6.27968e-08
4.38986e-08
1.24549e-07
-5.22809e-08
5.03138e-08
1.02752e-07
-4.28556e-08
5.59605e-08
7.28298e-08
-3.50927e-08
6.05677e-08
3.70604e-08
-2.95288e-08
6.38641e-08
-1.82584e-09
-2.65716e-08
6.56149e-08
-4.08635e-08
-2.64277e-08
6.57071e-08
-7.71116e-08
-2.90718e-08
6.41567e-08
-1.07919e-07
-3.42405e-08
6.11148e-08
-1.31162e-07
-4.14444e-08
5.68688e-08
-1.45409e-07
-5.00205e-08
5.17849e-08
-1.50059e-07
-5.91782e-08
4.62959e-08
-1.45349e-07
-6.80532e-08
4.08074e-08
-1.32346e-07
-7.57516e-08
3.57002e-08
-1.12828e-07
-8.13671e-08
3.12277e-08
-8.91476e-08
-8.39776e-08
2.75091e-08
-6.40152e-08
-8.26236e-08
2.44548e-08
-4.02177e-08
-7.6297e-08
2.17003e-08
-2.02966e-08
-6.39381e-08
1.85382e-08
-6.25381e-09
-4.44857e-08
1.3848e-08
-1.74936e-08
6.26058e-09
-6.13345e-08
-1.81917e-07
-6.1325e-08
-7.22392e-08
-2.26581e-07
-6.61136e-08
-3.83142e-08
-2.2523e-07
-4.3211e-08
1.45044e-08
-2.06425e-07
-1.15737e-08
6.42262e-08
-1.93969e-07
1.02031e-08
1.06812e-07
-1.81381e-07
2.622e-08
1.39592e-07
-1.68929e-07
3.82146e-08
1.61199e-07
-1.55255e-07
4.8155e-08
1.70633e-07
-1.40411e-07
5.70453e-08
1.6742e-07
-1.24892e-07
6.53086e-08
1.51787e-07
-1.09578e-07
7.29302e-08
1.24771e-07
-9.55213e-08
7.96817e-08
8.82628e-08
-8.37905e-08
8.52055e-08
4.49019e-08
-7.53274e-08
8.91595e-08
-2.11037e-09
-7.08186e-08
9.12592e-08
-4.92759e-08
-7.06228e-08
9.13605e-08
-9.31188e-08
-7.47088e-08
8.94799e-08
-1.305e-07
-8.26573e-08
8.57983e-08
-1.58898e-07
-9.36897e-08
8.06433e-08
-1.76629e-07
-1.06734e-07
7.44437e-08
-1.82969e-07
-1.20518e-07
6.76799e-08
-1.78192e-07
-1.33653e-07
6.08235e-08
-1.63508e-07
-1.44711e-07
5.42745e-08
-1.40941e-07
-1.52235e-07
4.83014e-08
-1.13132e-07
-1.54788e-07
4.30012e-08
-8.30886e-08
-1.50901e-07
3.82337e-08
-5.39016e-08
-1.39041e-07
3.35574e-08
-2.8445e-08
-1.1754e-07
2.81451e-08
-9.32981e-09
-8.42931e-08
2.06921e-08
-3.61604e-08
9.33695e-09
-2.65988e-08
-1.2873e-07
-2.65886e-08
-1.88669e-08
-2.13681e-07
-2.06315e-08
1.24392e-08
-2.5234e-07
-4.19576e-09
5.60568e-08
-2.65204e-07
1.51612e-08
1.00359e-07
-2.69084e-07
3.08129e-08
1.40331e-07
-2.65179e-07
4.38259e-08
1.72094e-07
-2.55661e-07
5.49694e-08
1.93027e-07
-2.41357e-07
6.5169e-08
2.01276e-07
-2.2355e-07
7.48897e-08
1.95844e-07
-2.03699e-07
8.42393e-08
1.76694e-07
-1.83446e-07
9.30179e-08
1.44846e-07
-1.64522e-07
1.00849e-07
1.02332e-07
-1.48569e-07
1.07292e-07
5.2097e-08
-1.36996e-07
1.11904e-07
-2.24528e-09
-1.30829e-07
1.14353e-07
-5.67298e-08
-1.30594e-07
1.14456e-07
-1.07402e-07
-1.36263e-07
1.12227e-07
-1.50697e-07
-1.47239e-07
1.07877e-07
-1.83749e-07
-1.6242e-07
1.01781e-07
-2.04648e-07
-1.80271e-07
9.4437e-08
-2.12573e-07
-1.98988e-07
8.63941e-08
-2.0781e-07
-2.16596e-07
7.81799e-08
-1.91695e-07
-2.3105e-07
7.02244e-08
-1.66438e-07
-2.40321e-07
6.28293e-08
-1.34906e-07
-2.42401e-07
5.60813e-08
-1.00363e-07
-2.35251e-07
4.98077e-08
-6.61797e-08
-2.1673e-07
4.3505e-08
-3.56171e-08
-1.84333e-07
3.62306e-08
-1.19508e-08
-1.34449e-07
2.64893e-08
-6.00696e-08
1.19584e-08
-2.91707e-09
-1.22907e-07
-2.90585e-09
1.49292e-08
-2.39275e-07
7.74775e-09
4.73415e-08
-3.05761e-07
2.10088e-08
8.88038e-08
-3.41595e-07
3.49291e-08
1.3184e-07
-3.59511e-07
4.73912e-08
1.71386e-07
-3.63568e-07
5.88428e-08
2.03152e-07
-3.57148e-07
6.97206e-08
2.23861e-07
-3.42517e-07
8.04505e-08
2.31135e-07
-3.21997e-07
9.11738e-08
2.23608e-07
-2.97942e-07
1.01768e-07
2.0107e-07
-2.72773e-07
1.11865e-07
1.64525e-07
-2.48921e-07
1.20944e-07
1.16159e-07
-2.2865e-07
1.28447e-07
5.92219e-08
-2.13886e-07
1.33826e-07
-2.26614e-09
-2.06013e-07
1.36672e-07
-6.38747e-08
-2.05755e-07
1.3677e-07
-1.21182e-07
-2.13084e-07
1.34129e-07
-1.70193e-07
-2.2722e-07
1.28991e-07
-2.07711e-07
-2.46698e-07
1.21796e-07
-2.31613e-07
-2.69498e-07
1.13129e-07
-2.40985e-07
-2.93246e-07
1.0363e-07
-2.36141e-07
-3.15327e-07
9.38869e-08
-2.18538e-07
-3.33081e-07
8.4428e-08
-1.90569e-07
-3.43855e-07
7.55646e-08
-1.5534e-07
-3.45029e-07
6.73982e-08
-1.16375e-07
-3.33949e-07
5.97322e-08
-7.73696e-08
-3.07743e-07
5.20074e-08
-4.2003e-08
-2.62863e-07
4.31631e-08
-1.4215e-08
-1.93722e-07
3.14854e-08
-8.85079e-08
1.42232e-08
8.07715e-09
-1.39073e-07
8.08938e-09
3.34622e-08
-2.8818e-07
2.35194e-08
7.03637e-08
-3.79608e-07
3.6945e-08
1.14111e-07
-4.34626e-07
4.92826e-08
1.58951e-07
-4.65036e-07
6.06852e-08
2.00043e-07
-4.76464e-07
7.18035e-08
2.32984e-07
-4.7317e-07
8.30813e-08
2.54162e-07
-4.58461e-07
9.47656e-08
2.60878e-07
-4.35535e-07
1.06822e-07
2.51505e-07
-4.0753e-07
1.18962e-07
2.25702e-07
-3.77635e-07
1.30665e-07
1.84496e-07
-3.48979e-07
1.41264e-07
1.30252e-07
-3.24456e-07
1.50048e-07
6.65321e-08
-3.06524e-07
1.56359e-07
-2.20638e-09
-2.96967e-07
1.59693e-07
-7.10412e-08
-2.967e-07
1.5978e-07
-1.35056e-07
-3.05701e-07
1.56632e-07
-1.89808e-07
-3.23e-07
1.50532e-07
-2.31757e-07
-3.46757e-07
1.42008e-07
-2.5856e-07
-3.74442e-07
1.31746e-07
-2.69228e-07
-4.03078e-07
1.205e-07
-2.64119e-07
-4.29425e-07
1.08989e-07
-2.4484e-07
-4.50168e-07
9.78069e-08
-2.13992e-07
-4.62029e-07
8.73267e-08
-1.74946e-07
-4.6175e-07
7.76744e-08
-1.31528e-07
-4.45998e-07
6.86316e-08
-8.77858e-08
-4.11063e-07
5.95775e-08
-4.78415e-08
-3.52139e-07
4.93323e-08
-1.6244e-08
-2.61271e-07
3.59515e-08
-1.21005e-07
1.62532e-08
1.40866e-08
-1.6726e-07
1.41e-08
4.54738e-08
-3.52956e-07
3.33894e-08
8.7346e-08
-4.69431e-07
4.79513e-08
1.34926e-07
-5.42514e-07
6.03079e-08
1.83028e-07
-5.84935e-07
7.1797e-08
2.26827e-07
-6.03652e-07
8.33899e-08
2.61783e-07
-6.03755e-07
9.56287e-08
2.84049e-07
-5.89438e-07
1.08711e-07
2.90623e-07
-5.64604e-07
1.22495e-07
2.79685e-07
-5.3314e-07
1.36548e-07
2.50767e-07
-4.98927e-07
1.5021e-07
2.04931e-07
-4.65804e-07
1.62661e-07
1.4473e-07
-4.37275e-07
1.73021e-07
7.40829e-08
-4.16343e-07
1.80466e-07
-2.0944e-09
-4.05176e-07
1.84386e-07
-7.8346e-08
-4.04913e-07
1.84464e-07
-1.49219e-07
-4.15533e-07
1.80704e-07
-2.09794e-07
-4.35862e-07
1.73437e-07
-2.56165e-07
-4.63675e-07
1.63289e-07
-2.85772e-07
-4.9594e-07
1.51105e-07
-2.97569e-07
-5.29068e-07
1.37787e-07
-2.91996e-07
-5.59185e-07
1.24187e-07
-2.7082e-07
-5.82339e-07
1.10995e-07
-2.36905e-07
-5.9462e-07
9.86759e-08
-1.9392e-07
-5.92128e-07
8.73934e-08
-1.46023e-07
-5.70813e-07
7.69178e-08
-9.7627e-08
-5.26015e-07
6.65569e-08
-5.32915e-08
-4.51471e-07
5.49967e-08
-1.81214e-08
-3.36498e-07
4.0057e-08
-1.57258e-07
1.81318e-08
1.77843e-08
-2.02843e-07
1.77986e-08
5.39608e-08
-4.29303e-07
4.01702e-08
1.00632e-07
-5.72248e-07
5.61456e-08
1.52554e-07
-6.63658e-07
6.92224e-08
2.04586e-07
-7.18401e-07
8.14329e-08
2.5174e-07
-7.44849e-07
9.40427e-08
2.8929e-07
-7.49002e-07
1.07696e-07
3.13118e-07
-7.35841e-07
1.22575e-07
3.19963e-07
-7.09943e-07
1.38494e-07
3.07756e-07
-6.75819e-07
1.54886e-07
2.75948e-07
-6.38039e-07
1.70919e-07
2.25589e-07
-6.01038e-07
1.85593e-07
1.59435e-07
-5.68941e-07
1.97819e-07
8.17788e-08
-5.45294e-07
2.06607e-07
-1.95453e-09
-5.32676e-07
2.11233e-07
-8.57404e-08
-5.32425e-07
2.11298e-07
-1.6355e-07
-5.44526e-07
2.06803e-07
-2.29962e-07
-5.676e-07
1.9815e-07
-2.80687e-07
-5.99049e-07
1.861e-07
-3.12955e-07
-6.35312e-07
1.71641e-07
-3.25683e-07
-6.72189e-07
1.55848e-07
-3.1942e-07
-7.0523e-07
1.39783e-07
-2.96149e-07
-7.29878e-07
1.24268e-07
-2.59042e-07
-7.41598e-07
1.09871e-07
-2.12079e-07
-7.35866e-07
9.6775e-08
-1.59766e-07
-7.07877e-07
8.47504e-08
-1.06881e-07
-6.51973e-07
7.30724e-08
-5.83845e-08
-5.60224e-07
6.02563e-08
-1.98704e-08
-4.18875e-07
4.38629e-08
-1.97011e-07
1.9882e-08
2.03363e-08
-2.43531e-07
2.03515e-08
6.04075e-08
-5.14554e-07
4.51793e-08
1.11398e-07
-6.85752e-07
6.25133e-08
1.67582e-07
-7.96418e-07
7.65749e-08
2.23621e-07
-8.64296e-07
8.9857e-08
2.74329e-07
-8.99393e-07
1.03835e-07
3.1477e-07
-9.0871e-07
1.19267e-07
3.40483e-07
-8.97902e-07
1.36348e-07
3.47956e-07
-8.72208e-07
1.54793e-07
3.34868e-07
-8.36681e-07
1.7395e-07
3.00469e-07
-7.96431e-07
1.92791e-07
2.45839e-07
-7.5649e-07
2.10083e-07
1.73924e-07
-7.21555e-07
2.24527e-07
8.93919e-08
-6.95692e-07
2.3493e-07
-1.80535e-09
-6.81858e-07
2.40379e-07
-9.30372e-08
-6.81623e-07
2.4043e-07
-1.77673e-07
-6.94979e-07
2.35089e-07
-2.49753e-07
-7.20325e-07
2.24805e-07
-3.04599e-07
-7.54685e-07
2.10482e-07
-3.39268e-07
-7.93985e-07
1.93342e-07
-3.52659e-07
-8.335e-07
1.74701e-07
-3.45484e-07
-8.68186e-07
1.55781e-07
-3.2e-07
-8.92953e-07
1.37591e-07
-2.79675e-07
-9.02737e-07
1.20814e-07
-2.28841e-07
-8.92408e-07
1.05708e-07
-1.7234e-07
-8.56433e-07
9.20543e-08
-1.15304e-07
-7.88021e-07
7.90128e-08
-6.30125e-08
-6.77496e-07
6.49802e-08
-2.14658e-08
-5.07719e-07
4.72971e-08
-2.39955e-07
2.14784e-08
2.21851e-08
-2.87916e-07
2.22e-08
6.53246e-08
-6.06615e-07
4.89216e-08
1.19888e-07
-8.07767e-07
6.74516e-08
1.79785e-07
-9.38849e-07
8.25351e-08
2.39485e-07
-1.021e-06
9.70068e-08
2.93598e-07
-1.06607e-06
1.12569e-07
3.36908e-07
-1.08208e-06
1.30062e-07
3.64702e-07
-1.07537e-06
1.4967e-07
3.73129e-07
-1.05168e-06
1.71045e-07
3.59571e-07
-1.01652e-06
1.93394e-07
3.23085e-07
-9.75423e-07
2.15478e-07
2.64705e-07
-9.33943e-07
2.35833e-07
1.8752e-07
-8.97245e-07
2.52874e-07
9.65696e-08
-8.69899e-07
2.65158e-07
-1.66153e-09
-8.55208e-07
2.71581e-07
-9.99108e-08
-8.54992e-07
2.71618e-07
-1.90921e-07
-8.6923e-07
2.65261e-07
-2.68181e-07
-8.96133e-07
2.53068e-07
-3.26676e-07
-9.32328e-07
2.36139e-07
-3.63304e-07
-9.73269e-07
2.15912e-07
-3.76977e-07
-1.01378e-06
1.9395e-07
-3.68658e-07
-1.04827e-06
1.71761e-07
-3.40912e-07
-1.07127e-06
1.50571e-07
-2.9753e-07
-1.07727e-06
1.31156e-07
-2.43179e-07
-1.06062e-06
1.13859e-07
-1.83014e-07
-1.01506e-06
9.84647e-08
-1.22403e-07
-9.32725e-07
8.40932e-08
-6.6907e-08
-8.01968e-07
6.89754e-08
-2.28251e-08
-6.01982e-07
5.01806e-08
-2.85619e-07
2.28386e-08
2.34204e-08
-3.34772e-07
2.34355e-08
6.86703e-08
-7.03275e-07
5.14105e-08
1.25775e-07
-9.35675e-07
7.08029e-08
1.88421e-07
-1.0883e-06
8.6802e-08
2.50989e-07
-1.18608e-06
1.02512e-07
3.07907e-07
-1.24276e-06
1.19766e-07
3.53782e-07
-1.26743e-06
1.39467e-07
3.83661e-07
-1.2671e-06
1.61851e-07
3.93316e-07
-1.24782e-06
1.86482e-07
3.79849e-07
-1.21548e-06
2.12426e-07
3.42052e-07
-1.17586e-06
2.38234e-07
2.80777e-07
-1.13481e-06
2.62147e-07
1.99263e-07
-1.09797e-06
2.82241e-07
1.02814e-07
-1.07021e-06
2.9676e-07
-1.52973e-09
-1.05523e-06
3.04363e-07
-1.0588e-07
-1.05503e-06
3.04391e-07
-2.02337e-07
-1.06962e-06
2.9685e-07
-2.83901e-07
-1.09697e-06
2.82397e-07
-3.45197e-07
-1.13339e-06
2.62358e-07
-3.83024e-07
-1.17397e-06
2.38525e-07
-3.96512e-07
-1.21309e-06
2.12801e-07
-3.86826e-07
-1.24494e-06
1.86984e-07
-3.56882e-07
-1.2637e-06
1.62489e-07
-3.10839e-07
-1.26355e-06
1.40234e-07
-2.53641e-07
-1.23847e-06
1.20651e-07
-1.90649e-07
-1.18155e-06
1.03491e-07
-1.27439e-07
-1.08375e-06
8.78183e-08
-6.96858e-08
-9.31487e-07
7.17659e-08
-2.38e-08
-7.00052e-07
5.2184e-08
-3.33233e-07
2.38138e-08
2.39815e-08
-3.82752e-07
2.39986e-08
7.01325e-08
-8.01898e-07
5.24715e-08
1.28311e-07
-1.06612e-06
7.22693e-08
1.92263e-07
-1.24115e-06
8.88974e-08
2.56342e-07
-1.35583e-06
1.05666e-07
3.15023e-07
-1.42598e-06
1.2454e-07
3.62817e-07
-1.46168e-06
1.46459e-07
3.94542e-07
-1.47053e-06
1.71704e-07
4.0571e-07
-1.45879e-06
1.99801e-07
3.93032e-07
-1.43247e-06
2.29668e-07
3.54959e-07
-1.39744e-06
2.59649e-07
2.92157e-07
-1.35961e-06
2.87596e-07
2.07804e-07
-1.32483e-06
3.11214e-07
1.07442e-07
-1.29821e-06
3.28358e-07
-1.41681e-09
-1.28374e-06
3.37367e-07
-1.10273e-07
-1.28356e-06
3.37382e-07
-2.10631e-07
-1.29767e-06
3.28404e-07
-2.94966e-07
-1.32393e-06
3.11296e-07
-3.57715e-07
-1.35835e-06
2.87708e-07
-3.95744e-07
-1.39576e-06
2.59824e-07
-4.08367e-07
-1.43041e-06
2.29943e-07
-3.97114e-07
-1.45636e-06
2.00174e-07
-3.65253e-07
-1.46771e-06
1.72144e-07
-3.17266e-07
-1.45853e-06
1.46988e-07
-2.5828e-07
-1.42258e-06
1.25125e-07
-1.93826e-07
-1.35231e-06
1.06312e-07
-1.29448e-07
-1.2377e-06
8.95677e-08
-7.07727e-08
-1.06305e-06
7.28916e-08
-2.42187e-08
-7.99567e-07
5.2961e-08
-3.81684e-07
2.42329e-08
2.36967e-08
-4.30153e-07
2.3704e-08
6.9141e-08
-8.99013e-07
5.16708e-08
1.26471e-07
-1.19467e-06
7.12139e-08
1.89671e-07
-1.39239e-06
8.80446e-08
2.53398e-07
-1.52509e-06
1.05534e-07
3.12262e-07
-1.61056e-06
1.25721e-07
3.60846e-07
-1.65993e-06
1.49673e-07
3.93888e-07
-1.6812e-06
1.77637e-07
4.06697e-07
-1.68076e-06
2.09161e-07
3.95628e-07
-1.66442e-06
2.43022e-07
3.58732e-07
-1.63788e-06
2.77337e-07
2.96332e-07
-1.60691e-06
3.09699e-07
2.1138e-07
-1.57722e-06
3.3734e-07
1.09551e-07
-1.55393e-06
3.57555e-07
-1.32138e-09
-1.5411e-06
3.68235e-07
-1.12182e-07
-1.54094e-06
3.6824e-07
-2.13966e-07
-1.55346e-06
3.57573e-07
-2.98861e-07
-1.57641e-06
3.37375e-07
-3.61196e-07
-1.6058e-06
3.09782e-07
-3.98006e-07
-1.63642e-06
2.77468e-07
-4.0895e-07
-1.66263e-06
2.4316e-07
-3.96002e-07
-1.67868e-06
2.09374e-07
-3.62777e-07
-1.67887e-06
1.77933e-07
-3.13977e-07
-1.65736e-06
1.5003e-07
-2.54856e-07
-1.60785e-06
1.26146e-07
-1.90828e-07
-1.52234e-06
1.05998e-07
-1.27261e-07
-1.38976e-06
8.84911e-08
-6.95798e-08
-1.19236e-06
7.1625e-08
-2.38407e-08
-8.97294e-07
5.19881e-08
-4.2938e-07
2.38545e-08
2.23401e-08
-4.74842e-07
2.2349e-08
6.5051e-08
-9.9027e-07
4.8546e-08
1.19068e-07
-1.31571e-06
6.70299e-08
1.78892e-07
-1.53562e-06
8.34055e-08
2.39687e-07
-1.68692e-06
1.01035e-07
2.96496e-07
-1.78935e-06
1.21975e-07
3.44189e-07
-1.85495e-06
1.47318e-07
3.7762e-07
-1.892e-06
1.77362e-07
3.92027e-07
-1.90686e-06
2.11697e-07
3.83438e-07
-1.90496e-06
2.49127e-07
3.49467e-07
-1.89149e-06
2.87587e-07
2.90016e-07
-1.87175e-06
3.24295e-07
2.0766e-07
-1.85084e-06
3.55976e-07
1.07912e-07
-1.83362e-06
3.79433e-07
-1.24389e-09
-1.82387e-06
3.91927e-07
-1.10381e-07
-1.82373e-06
3.91924e-07
-2.10082e-07
-1.83319e-06
3.79429e-07
-2.92356e-07
-1.85011e-06
3.55974e-07
-3.51705e-07
-1.87073e-06
3.24286e-07
-3.8552e-07
-1.89022e-06
2.87613e-07
-3.93931e-07
-1.90344e-06
2.4923e-07
-3.79374e-07
-1.9051e-06
2.11859e-07
-3.45765e-07
-1.89002e-06
1.77546e-07
-2.97828e-07
-1.85285e-06
1.4755e-07
-2.40787e-07
-1.78713e-06
1.22245e-07
-1.79711e-07
-1.68474e-06
1.01329e-07
-1.19632e-07
-1.53353e-06
8.36993e-08
-6.53693e-08
-1.31392e-06
6.73003e-08
-2.24365e-08
-9.88983e-07
4.87559e-08
-4.74266e-07
2.24498e-08
1.96947e-08
-5.14237e-07
1.97007e-08
5.72925e-08
-1.0705e-06
4.26316e-08
1.04924e-07
-1.42236e-06
5.90131e-08
1.58104e-07
-1.66287e-06
7.40703e-08
2.12751e-07
-1.83253e-06
9.09631e-08
2.64608e-07
-1.95287e-06
1.11667e-07
3.09107e-07
-2.03673e-06
1.37287e-07
3.41476e-07
-2.09261e-06
1.68242e-07
3.57035e-07
-2.12658e-06
2.04161e-07
3.51712e-07
-2.14348e-06
2.43846e-07
3.22772e-07
-2.14773e-06
2.85176e-07
2.69472e-07
-2.1437e-06
3.25246e-07
1.93873e-07
-2.1356e-06
3.60356e-07
1.01066e-07
-2.12746e-06
3.86651e-07
-1.17858e-09
-2.12241e-06
4.00788e-07
-1.03398e-07
-2.12229e-06
4.00781e-07
-1.96136e-07
-2.12708e-06
3.86636e-07
-2.71618e-07
-2.13496e-06
3.60336e-07
-3.24801e-07
-2.1428e-06
3.25252e-07
-3.53592e-07
-2.14664e-06
2.8521e-07
-3.58771e-07
-2.14214e-06
2.4388e-07
-3.43023e-07
-2.12508e-06
2.04231e-07
-3.10424e-07
-2.09097e-06
1.68347e-07
-2.65739e-07
-2.03496e-06
1.37428e-07
-2.13641e-07
-1.95107e-06
1.11837e-07
-1.58773e-07
-1.83076e-06
9.11531e-08
-1.0534e-07
-1.66123e-06
7.42632e-08
-5.74885e-08
-1.42097e-06
5.91922e-08
-1.97584e-08
-1.06949e-06
4.27734e-08
-5.13795e-07
1.97708e-08
1.55813e-08
-5.45409e-07
1.55903e-08
4.5269e-08
-1.13375e-06
3.35586e-08
8.3158e-08
-1.50691e-06
4.66663e-08
1.25933e-07
-1.76499e-06
5.93452e-08
1.70686e-07
-1.95162e-06
7.43352e-08
2.14077e-07
-2.0897e-06
9.34359e-08
2.52443e-07
-2.19274e-06
1.17645e-07
2.81686e-07
-2.26929e-06
1.47437e-07
2.97549e-07
-2.32504e-06
1.82597e-07
2.96055e-07
-2.36409e-06
2.22098e-07
2.74207e-07
-2.38981e-06
2.63925e-07
2.30775e-07
-2.40528e-06
3.05012e-07
1.67075e-07
-2.41338e-06
3.41488e-07
8.74094e-08
-2.41693e-06
3.69136e-07
-1.12364e-09
-2.41798e-06
3.84099e-07
-8.9634e-08
-2.4179e-06
3.84119e-07
-1.69243e-07
-2.41661e-06
3.69137e-07
-2.32812e-07
-2.41285e-06
3.41451e-07
-2.76093e-07
-2.40449e-06
3.0497e-07
-2.97772e-07
-2.38885e-06
2.63897e-07
-2.99079e-07
-2.36292e-06
2.22086e-07
-2.83021e-07
-2.32375e-06
1.82611e-07
-2.53573e-07
-2.2679e-06
1.47481e-07
-2.14999e-07
-2.19125e-06
1.17717e-07
-1.71383e-07
-2.08822e-06
9.35325e-08
-1.26439e-07
-1.95016e-06
7.44488e-08
-8.3472e-08
-1.76366e-06
5.94657e-08
-4.54219e-08
-1.5058e-06
4.67806e-08
-1.56294e-08
-1.13293e-06
3.36529e-08
-5.45065e-07
1.56409e-08
9.92912e-09
-5.65263e-07
9.92455e-09
2.884e-08
-1.17383e-06
2.11778e-08
5.33702e-08
-1.56116e-06
2.97117e-08
8.1805e-08
-1.83225e-06
3.88292e-08
1.12521e-07
-2.03286e-06
5.05292e-08
1.43574e-07
-2.18698e-06
6.62297e-08
1.72414e-07
-2.30847e-06
8.68912e-08
1.96016e-07
-2.40579e-06
1.12896e-07
2.10877e-07
-2.48408e-06
1.44182e-07
2.13422e-07
-2.54655e-06
1.79921e-07
2.00737e-07
-2.59544e-06
2.18318e-07
1.711e-07
-2.63229e-06
2.56647e-07
1.25084e-07
-2.65849e-06
2.91122e-07
6.57617e-08
-2.67517e-06
3.17565e-07
-1.07594e-09
-2.68321e-06
3.32066e-07
-6.78873e-08
-2.68314e-06
3.32055e-07
-1.27135e-07
-2.67489e-06
3.17527e-07
-1.73026e-07
-2.65802e-06
2.91066e-07
-2.02493e-07
-2.63164e-06
2.56618e-07
-2.15018e-07
-2.59461e-06
2.18286e-07
-2.12258e-07
-2.54556e-06
1.79873e-07
-1.97197e-07
-2.48296e-06
1.44154e-07
-1.73409e-07
-2.40458e-06
1.12894e-07
-1.44349e-07
-2.30722e-06
8.69122e-08
-1.13132e-07
-2.1857e-06
6.62709e-08
-8.22145e-08
-2.03166e-06
5.05887e-08
-5.36161e-08
-1.83116e-06
3.88991e-08
-2.89744e-08
-1.56022e-06
2.97856e-08
-9.95174e-09
-1.1732e-06
2.12429e-08
-5.6498e-07
9.96256e-09
2.80245e-09
-5.70865e-07
2.80016e-09
8.24553e-09
-1.18497e-06
5.69368e-09
1.59941e-08
-1.57737e-06
8.46792e-09
2.62488e-08
-1.85529e-06
1.27753e-08
3.89717e-08
-2.0653e-06
1.97188e-08
5.37621e-08
-2.23191e-06
3.01378e-08
6.95772e-08
-2.369e-06
4.47113e-08
8.4762e-08
-2.48482e-06
6.38528e-08
9.69529e-08
-2.5838e-06
8.75279e-08
1.03522e-07
-2.66836e-06
1.15239e-07
1.01774e-07
-2.73937e-06
1.45682e-07
8.98354e-08
-2.79694e-06
1.76588e-07
6.72802e-08
-2.8407e-06
2.04761e-07
3.57205e-08
-2.87023e-06
2.26611e-07
-1.03157e-09
-2.88509e-06
2.3863e-07
-3.77497e-08
-2.885e-06
2.38575e-07
-6.92027e-08
-2.86996e-06
2.26524e-07
-9.16522e-08
-2.84026e-06
2.04685e-07
-1.0345e-07
-2.79631e-06
1.76464e-07
-1.0501e-07
-2.73861e-06
1.45555e-07
-9.82485e-08
-2.66748e-06
1.15157e-07
-8.58376e-08
-2.58284e-06
8.74642e-08
-7.04706e-08
-2.48375e-06
6.3808e-08
-5.44432e-08
-2.36794e-06
4.46905e-08
-3.94678e-08
-2.23082e-06
3.01384e-08
-2.6594e-08
-2.06427e-06
1.97358e-08
-1.61942e-08
-1.85437e-06
1.28078e-08
-8.3112e-09
-1.57662e-06
8.51062e-09
-2.82028e-09
-1.18443e-06
5.73776e-09
-5.70631e-07
2.83065e-09
-5.54511e-09
-5.59774e-07
-5.54659e-09
-1.58029e-08
-1.16231e-06
-1.24012e-08
-2.75822e-08
-1.54918e-06
-1.64089e-08
-3.86881e-08
-1.82624e-06
-1.79375e-08
-4.73269e-08
-2.03962e-06
-1.70479e-08
-5.22137e-08
-2.21336e-06
-1.36626e-08
-5.25474e-08
-2.36115e-06
-7.52082e-09
-4.83747e-08
-2.49068e-06
1.68409e-09
-4.04285e-08
-2.60589e-06
1.41397e-08
-3.02042e-08
-2.70826e-06
2.96811e-08
-1.96602e-08
-2.79748e-06
4.75617e-08
-1.07072e-08
-2.87227e-06
6.6375e-08
-4.67421e-09
-2.93077e-06
8.40387e-08
-1.79444e-09
-2.97114e-06
9.80347e-08
-9.79691e-10
-2.99176e-06
1.05865e-07
-1.3832e-10
-2.99168e-06
1.05839e-07
2.80317e-09
-2.97087e-06
9.79718e-08
8.98783e-09
-2.93039e-06
8.3947e-08
1.80971e-08
-2.87168e-06
6.62646e-08
2.88226e-08
-2.79678e-06
4.74494e-08
3.92373e-08
-2.70747e-06
2.95758e-08
4.73615e-08
-2.60501e-06
1.40499e-08
5.1746e-08
-2.48975e-06
1.6133e-09
5.15808e-08
-2.3602e-06
-7.57001e-09
4.68709e-08
-2.21242e-06
-1.36907e-08
3.84035e-08
-2.03875e-06
-1.70571e-08
2.7429e-08
-1.82547e-06
-1.79294e-08
1.57243e-08
-1.54853e-06
-1.63878e-08
5.53259e-09
-1.16186e-06
-1.23718e-08
-5.59576e-07
-5.52221e-09
-1.46197e-08
-5.30531e-07
-1.46232e-08
-4.19073e-08
-1.10303e-06
-3.1995e-08
-7.49726e-08
-1.47275e-06
-4.33685e-08
-1.09433e-07
-1.7403e-06
-5.14815e-08
-1.41704e-07
-1.94961e-06
-5.77378e-08
-1.68624e-07
-2.12364e-06
-6.28019e-08
-1.87478e-07
-2.27539e-06
-6.68977e-08
-1.9632e-07
-2.41192e-06
-6.99144e-08
-1.94031e-07
-2.53662e-06
-7.15526e-08
-1.806e-07
-2.65006e-06
-7.16333e-08
-1.56965e-07
-2.75107e-06
-7.0043e-08
-1.24938e-07
-2.83729e-06
-6.69977e-08
-8.67368e-08
-2.90573e-06
-6.32405e-08
-4.47157e-08
-2.95344e-06
-5.97232e-08
-9.2179e-10
-2.97796e-06
-5.75999e-08
4.29058e-08
-2.97788e-06
-5.76254e-08
8.50176e-08
-2.95323e-06
-5.97531e-08
1.23311e-07
-2.90538e-06
-6.33023e-08
1.55493e-07
-2.83675e-06
-6.7113e-08
1.79303e-07
-2.75043e-06
-7.01631e-08
1.92915e-07
-2.64933e-06
-7.17492e-08
1.9537e-07
-2.53581e-06
-7.16553e-08
1.86734e-07
-2.41112e-06
-6.99982e-08
1.6804e-07
-2.27455e-06
-6.69643e-08
1.413e-07
-2.12283e-06
-6.28471e-08
1.09164e-07
-1.94885e-06
-5.77626e-08
7.48268e-08
-1.73964e-06
-5.14891e-08
4.18602e-08
-1.4722e-06
-4.33595e-08
1.46119e-08
-1.10264e-06
-3.19726e-08
-5.30363e-07
-1.46007e-08
-2.37859e-08
-4.82957e-07
-2.37878e-08
-6.82285e-08
-1.00687e-06
-5.17176e-08
-1.22754e-07
-1.34764e-06
-7.05891e-08
-1.81005e-07
-1.59655e-06
-8.54956e-08
-2.37594e-07
-1.79376e-06
-9.92571e-08
-2.87445e-07
-1.96032e-06
-1.13472e-07
-3.25905e-07
-2.10809e-06
-1.28839e-07
-3.48863e-07
-2.24355e-06
-1.45419e-07
-3.5323e-07
-2.36935e-06
-1.62905e-07
-3.37193e-07
-2.48556e-06
-1.80538e-07
-3.00547e-07
-2.5904e-06
-1.97318e-07
-2.44816e-07
-2.68075e-06
-2.12277e-07
-1.73091e-07
-2.75307e-06
-2.24386e-07
-8.99368e-08
-2.80374e-06
-2.32848e-07
-8.53019e-10
-2.82987e-06
-2.37171e-07
8.82504e-08
-2.82979e-06
-2.37193e-07
1.71475e-07
-2.80351e-06
-2.32945e-07
2.43288e-07
-2.75269e-06
-2.24507e-07
2.99194e-07
-2.68028e-06
-2.1238e-07
3.35976e-07
-2.58979e-06
-1.97426e-07
3.52163e-07
-2.48487e-06
-1.80642e-07
3.47985e-07
-2.36863e-06
-1.63002e-07
3.25171e-07
-2.2428e-06
-1.45503e-07
2.86895e-07
-2.10736e-06
-1.28907e-07
2.37187e-07
-1.9596e-06
-1.13523e-07
1.80743e-07
-1.79311e-06
-9.92927e-08
1.2262e-07
-1.59602e-06
-8.54933e-08
6.81663e-08
-1.34718e-06
-7.05684e-08
2.37789e-08
-1.00655e-06
-5.1701e-08
-4.82817e-07
-2.37675e-08
-3.22095e-08
-4.18536e-07
-3.22113e-08
-9.23925e-08
-8.76908e-07
-6.97782e-08
-1.66806e-07
-1.17776e-06
-9.54631e-08
-2.47327e-07
-1.39931e-06
-1.16721e-07
-3.27022e-07
-1.57634e-06
-1.37725e-07
-3.9904e-07
-1.7274e-06
-1.60899e-07
-4.56685e-07
-1.86299e-06
-1.87454e-07
-4.93795e-07
-1.98873e-06
-2.17707e-07
-5.05219e-07
-2.1068e-06
-2.51122e-07
-4.8734e-07
-2.21697e-06
-2.86473e-07
-4.38736e-07
-2.31705e-06
-3.21951e-07
-3.60436e-07
-2.40389e-06
-3.55155e-07
-2.56533e-07
-2.47362e-06
-3.83348e-07
-1.33699e-07
-2.5226e-06
-4.03974e-07
-7.68881e-10
-2.54786e-06
-4.14938e-07
1.3218e-07
-2.54779e-06
-4.14953e-07
2.55063e-07
-2.52238e-06
-4.04016e-07
3.59074e-07
-2.47329e-06
-3.83411e-07
4.37428e-07
-2.4034e-06
-3.5523e-07
4.86203e-07
-2.31652e-06
-3.22036e-07
5.04228e-07
-2.21635e-06
-2.86554e-07
4.9297e-07
-2.10617e-06
-2.51203e-07
4.56017e-07
-1.98807e-06
-2.17781e-07
3.98515e-07
-1.86234e-06
-1.87515e-07
3.26661e-07
-1.7268e-06
-1.60948e-07
2.47109e-07
-1.5758e-06
-1.3776e-07
1.66679e-07
-1.39883e-06
-1.1676e-07
9.23459e-08
-1.17737e-06
-9.54779e-08
3.22039e-08
-8.76648e-07
-6.97632e-08
-4.18422e-07
-3.21911e-08
-3.8929e-08
-3.40683e-07
-3.8925e-08
-1.1179e-07
-7.19898e-07
-8.41492e-08
-2.02547e-07
-9.71726e-07
-1.15276e-07
-3.01832e-07
-1.15834e-06
-1.41691e-07
-4.01397e-07
-1.308e-06
-1.68775e-07
-4.92845e-07
-1.43623e-06
-1.99717e-07
-5.67694e-07
-1.552e-06
-2.36148e-07
-6.17847e-07
-1.66003e-06
-2.7855e-07
-6.36183e-07
-1.76218e-06
-3.26287e-07
-6.17399e-07
-1.85804e-06
-3.77716e-07
-5.58856e-07
-1.94551e-06
-4.30086e-07
-4.61329e-07
-2.02161e-06
-4.79809e-07
-3.29492e-07
-2.08282e-06
-5.22636e-07
-1.71974e-07
-2.12584e-06
-5.54279e-07
-6.76226e-10
-2.14805e-06
-5.71108e-07
1.70632e-07
-2.14798e-06
-5.71112e-07
3.28186e-07
-2.12564e-06
-5.54294e-07
4.60071e-07
-2.08251e-06
-5.22665e-07
5.57701e-07
-2.02119e-06
-4.7984e-07
6.16349e-07
-1.94504e-06
-4.30131e-07
6.35258e-07
-1.8575e-06
-3.77758e-07
6.17043e-07
-1.76162e-06
-3.26334e-07
5.67067e-07
-1.65949e-06
-2.78597e-07
4.92342e-07
-1.55143e-06
-2.36188e-07
4.01037e-07
-1.43574e-06
-1.99753e-07
3.01589e-07
-1.30755e-06
-1.68803e-07
2.02414e-07
-1.15795e-06
-1.41706e-07
1.11749e-07
-9.71427e-07
-1.15274e-07
3.89183e-08
-7.19684e-07
-8.41332e-08
-3.40598e-07
-3.89056e-08
-4.29171e-08
-2.54846e-07
-4.29198e-08
-1.23694e-07
-5.46512e-07
-9.26099e-08
-2.25264e-07
-7.43251e-07
-1.26905e-07
-3.37776e-07
-8.89368e-07
-1.56457e-07
-4.52052e-07
-1.0062e-06
-1.87523e-07
-5.58441e-07
-1.10594e-06
-2.23909e-07
-6.46984e-07
-1.19584e-06
-2.67612e-07
-7.07856e-07
-1.27995e-06
-3.1921e-07
-7.32414e-07
-1.35966e-06
-3.77968e-07
-7.13893e-07
-1.43469e-06
-4.41865e-07
-6.48636e-07
-1.50331e-06
-5.07461e-07
-5.37071e-07
-1.56306e-06
-5.7012e-07
-3.84438e-07
-1.61115e-06
-6.24301e-07
-2.0085e-07
-1.64494e-06
-6.64495e-07
-5.75537e-10
-1.66235e-06
-6.85973e-07
1.99706e-07
-1.6623e-06
-6.85966e-07
3.83313e-07
-1.64477e-06
-6.6448e-07
5.35997e-07
-1.61092e-06
-6.24269e-07
6.47614e-07
-1.56275e-06
-5.70059e-07
7.12922e-07
-1.50292e-06
-5.07426e-07
7.31546e-07
-1.43425e-06
-4.41865e-07
7.07131e-07
-1.35923e-06
-3.7798e-07
6.46358e-07
-1.27949e-06
-3.1923e-07
5.57981e-07
-1.19542e-06
-2.67633e-07
4.51716e-07
-1.10554e-06
-2.23933e-07
3.37552e-07
-1.00584e-06
-1.87539e-07
2.2515e-07
-8.89083e-07
-1.56467e-07
1.23641e-07
-7.43017e-07
-1.26901e-07
4.29135e-08
-5.46363e-07
-9.25935e-08
-2.54784e-07
-4.29008e-08
-4.31727e-08
-1.68502e-07
-4.31708e-08
-1.25461e-07
-3.71247e-07
-9.29771e-08
-2.30671e-07
-5.10842e-07
-1.27199e-07
-3.49132e-07
-6.13964e-07
-1.56943e-07
-4.71212e-07
-6.95203e-07
-1.88921e-07
-5.86379e-07
-7.63469e-07
-2.273e-07
-6.83542e-07
-8.24358e-07
-2.74321e-07
-7.51828e-07
-8.81008e-07
-3.30654e-07
-7.81352e-07
-9.34661e-07
-3.9547e-07
-7.64422e-07
-9.85148e-07
-4.66475e-07
-6.9665e-07
-1.03132e-06
-5.39756e-07
-5.78212e-07
-1.07148e-06
-6.10014e-07
-4.14571e-07
-1.10377e-06
-6.71026e-07
-2.1675e-07
-1.12639e-06
-7.16371e-07
-4.74313e-10
-1.13803e-06
-7.40597e-07
2.158e-07
-1.13799e-06
-7.40581e-07
4.13624e-07
-1.12626e-06
-7.16329e-07
5.77276e-07
-1.10357e-06
-6.71001e-07
6.95756e-07
-1.07123e-06
-6.09997e-07
7.63564e-07
-1.03102e-06
-5.39713e-07
7.80578e-07
-9.84833e-07
-4.66435e-07
7.51128e-07
-9.34327e-07
-3.95448e-07
6.82973e-07
-8.80691e-07
-3.30644e-07
5.85924e-07
-8.24052e-07
-2.74322e-07
4.70882e-07
-7.63191e-07
-2.27308e-07
3.48923e-07
-6.94958e-07
-1.88928e-07
2.30556e-07
-6.13768e-07
-1.56949e-07
1.2542e-07
-5.10688e-07
-1.27193e-07
4.31653e-08
-3.71147e-07
-9.29614e-08
-1.68465e-07
-4.31535e-08
-3.87911e-08
-9.09219e-08
-3.87891e-08
-1.15057e-07
-2.11713e-07
-8.32675e-08
-2.15473e-07
-2.97136e-07
-1.1329e-07
-3.31261e-07
-3.5884e-07
-1.39336e-07
-4.52728e-07
-4.05575e-07
-1.68161e-07
-5.68908e-07