/*--------------------------------*- C++ -*----------------------------------*\
| =========                 |                                                 |
| \\      /  F ield         | OpenFOAM: The Open Source CFD Toolbox           |
|  \\    /   O peration     | Version:  v1912                                 |
|   \\  /    A nd           | Website:  www.openfoam.com                      |
|    \\/     M anipulation  |                                                 |
\*---------------------------------------------------------------------------*/
FoamFile
{
    version     2.0;
    format      ascii;
    class       volScalarField;
    location    "2/oil";
    object      wallHeatFlux;
}
// * * * * * * * * * * * * * * * * * * * * * * * * * * * * * * * * * * * * * //

dimensions      [1 0 -3 0 0 0 0];


internalField   uniform 0;

boundaryField
{
    maxY
    {
        type            calculated;
        value           uniform 0;
    }
    minX
    {
        type            calculated;
        value           uniform 0;
    }
    maxX
    {
        type            calculated;
        value           uniform 0;
    }
    minY
    {
        type            calculated;
        value           uniform 0;
    }
    minZ
    {
        type            calculated;
        value           uniform 0;
    }
    maxZ
    {
        type            calculated;
        value           uniform 0;
    }
    oil_to_sphere
    {
        type            calculated;
        value           nonuniform List<scalar> 
1536
(
97422
99469.9
97403.2
96737.7
84523.2
84718.5
83827.5
67074.9
64787.9
107601
84649.3
108532
107713
106891
95606.1
83961.4
67283.2
64991.3
39350.1
108316
106852
84732.3
84170.7
84472.5
88547.6
88485.5
87808.9
84608.2
99725.5
99535.8
96673.7
75548.7
71711.9
88275.1
84184.1
83489.4
80415.9
91675.1
87659.1
91686.6
87258.2
83714.2
101068
107966
101443
106813
86615.4
86170.8
95414.8
87293.9
86997.4
86750.9
83976.2
84036
74050.1
71112.9
84683.6
84178.6
65050.9
52581.2
54823.5
52300.7
54474.6
108649
108604
107452
101700
106508
99372.6
101366
88413.8
87508.4
97009.3
87807
84336.5
71788.2
70397.4
69778.5
83934.2
65179.7
52377.4
54564.4
49820.3
49725.1
56090.6
54642.1
50117
67111.4
64851.4
52504
54621.4
39272.7
39271.2
109063
108758
107883
102044
105145
105846
99281.7
101983
88367
97136.2
96655.1
87878.6
87830
84533.6
69883
84003
72181.1
70430.9
72154.5
52564.8
54888.9
49896
50261.2
49867
55916.3
54630
56028.3
64888.3
54657.2
39338.6
107471
99381.5
101678
99445.4
101302
86981.5
87708.3
87635.9
87378
86847.9
87023
87311.9
85758.8
84730.1
71319.3
83982.8
83665.3
52564.3
54791.8
67155.6
65101.9
54548.8
64751.5
94261.7
92493.4
84060.9
86105.8
95204.5
92605.1
86491.8
86837
84358.8
79345.5
76022.9
76023.8
93335.7
91991
90113.4
94603.7
90658
87579.6
83987.8
80499.8
84496.4
80454.4
76291.9
76656.9
99726.7
92362.7
100457
91832.4
77840
70477.5
93421.8
93615.3
93307.6
89057.5
91031.6
87604.3
80014.3
85138.6
80415.2
76305.2
77227.2
101330
93288.9
95971.6
99623.8
93682.3
97006.7
95352.7
78985.1
81088.1
80099.6
80780.3
78664.2
79684.4
80925.6
84252
64436.3
63161.4
62326.9
65797
67164.9
66389.1
68723.4
68196
63501.2
61290.1
60266.6
104564
107650
106306
105194
104770
104678
106036
103801
105942
102488
103964
104438
92653.4
93676
100475
97400.3
92663.4
80158.9
80699.9
84427
79228.8
63447.8
64536.3
62591.6
65988.2
66815.2
62854.7
61222.1
48312.5
46453.9
106360
107249
106868
105216
107002
109215
107828
104769
95939.1
90505.4
93874.2
93278.6
79804.2
83968.1
63972.7
61584.1
67205
69784.2
68172.7
60400.8
46185.4
47977.3
42950.9
43086.2
48175
104757
103493
102812
102048
103394
105828
104043
106227
108321
107644
104672
97137
93458.3
94708.5
97058.3
100420
98278.8
94931.7
94759.7
80175.6
80817.3
81434.8
81623.7
80121.7
84159.6
62464.6
61512.2
63176.1
66513.7
65276.7
66790
66379.6
66584.6
62301.4
60871.8
64831.7
62957.7
86546.5
84582.6
84695.6
79647
78941.1
76197.2
75212.7
100779
98969.2
101219
100094
97992.7
101061
101808
103030
104723
101788
101566
101422
107034
105503
104005
102620
106440
107114
102453
99491.3
100497
101785
98219.3
101309
102300
103655
105442
106048
106064
104367
102505
102398
102762
104203
101503
101713
98005.5
101642
98289.4
99155.7
102150
92807.6
97376.8
94295.7
95192.7
91947
90237.9
97413.6
93558.4
94740.1
96338.1
90775.8
90702.9
92491
90034
91700
87833.5
95506
98115.6
94044
95338.1
96262.1
91102.4
91159.8
91091.2
79993.3
80911.8
79615.4
75648.2
74174
76213
71830.2
70503.6
80226.5
80573.9
79605.9
76130
74582.6
77265.3
71324.9
70284.9
69127.7
78162.6
70345.4
75790.6
74584.9
76418.7
71618.4
80218.2
81176.5
80153.5
81576.9
70974
69344
76176.5
74836.9
76985.6
71207.3
69964.1
66366
65300.3
66187.7
65219.1
62512.3
62502.9
61092.9
64234
61770.8
67364.8
60505.8
61561.3
59635.5
58316.5
60529.1
59533.4
57380.4
56129.4
53973.4
64722.5
63433.9
62454.1
65910.9
61545.5
62737.8
57084.5
55736.7
55095.2
53818.5
59558.1
58312.7
60430.2
59438.6
58860.1
66531.3
65354.2
66313
66726.3
62560.6
60957.4
64389.7
62795
115711
114542
112330
115013
110224
110966
112731
109208
108888
109570
109328
103560
105984
102978
102393
101998
101473
103231
102090
106057
106908
100396
103106
101634
102826
101349
104346
102018
106449
104622
106754
104533
101043
101842
98679.7
95810.3
89566.6
94892.9
93619.9
87282.5
91081.9
91346.6
95792.3
86982.9
94076.1
87225.8
91223.2
85791.4
84140.9
84575.1
80272.1
79297.9
75278.4
76638.6
74993.8
73375.3
71087
78085
70623.6
83597.9
80048.4
75869.3
61676
59515.9
58346.9
60670.6
59730.7
63863.7
61424.4
67371.1
60341.9
57099.7
56199.6
54025.8
51226.3
49424
51332.4
49273.7
53008
54931.5
52982.8
50992.7
51384.5
63233.2
64758
62402.2
65758.3
59680.6
58453
60673.2
59294.8
63512.5
61210.9
66207.2
68235.9
60412.1
57147.4
59292.3
56073.1
53991.7
58332.9
47965.9
46318.9
48426
46574.8
43312.7
43258.1
43209.8
43024.3
46020.5
114112
110792
111297
110689
110705
114206
112458
109521
108859
106228
109292
109193
111743
107197
106647
107393
107177
100733
102547
98708
105723
103171
102662
102297
103458
101774
102932
104470
101624
99442.5
99100.5
105415
105843
101101
103618
100010
99038.9
105561
102927
102538
103380
101690
101244
102740
104439
101618
98622.9
93756.6
93870.1
91317.5
87489
89266.5
94563
90144.7
96241.9
92926.8
92233.9
90939.2
91316
91259.6
87508.5
86754.1
80224
84382.8
78715.3
81698.5
76583.6
75430.5
85403.5
83537.8
71006.7
77641.1
70485.7
79437
72666.1
70239.4
75132
76691.1
77140.3
76056.7
75803.7
84473
79453.6
57188.6
56221.3
55206.1
54036.5
64651.7
63116.1
62392.2
65851
61661.9
62419.6
58478.7
60169.4
60461.9
59500.7
58928
53054.7
53120
54992.1
50975.4
51287.9
49400.8
51402
51289.1
49560.5
54832.8
52778.5
52927.4
54849.6
50929.9
63321.6
61186.7
66267.7
67619.7
60398
57159.7
59288.2
55820.1
55339.3
58393.8
62990.8
61130.5
64404
63356.5
62392.1
65831.7
66866.7
58394.4
59438.6
60576.7
59366.5
58824.2
43274.6
43185.5
48212.5
48031.6
46355.1
46045.9
49818.8
48428.5
46147.5
99803.1
102363
101304
97379.4
101534
99145.3
98857.7
106557
104810
107040
105013
100515
102190
101422
103912
101607
102542
99712.5
101290
105532
103176
101868
103320
101456
101380
102125
98347.1
98752.7
101270
101760
100235
102314
101570
104931
101465
98583.1
99958.5
101855
99263.7
98864.6
102272
94603.7
91276.4
91608.7
91527.1
88174
97231.5
93237.9
93635.8
96231.4
91658.1
91895.8
90685
96522.5
93141.2
94431.6
96547.7
90393.2
91302.1
92013.4
92048.5
88123
96708.1
97891
94448
95499.1
91550.9
91677.3
91483.1
91710.3
88235.3
76095.9
74743.5
76613.8
71654.3
70561.5
69167.5
81091.7
79381.6
81063
80184
74503.7
76108.1
75895.2
71147.1
70093.3
69772.9
80136.7
80459.5
81086.9
79752.5
83899.6
70780.7
70887.4
75752.3
74241.8
76191.8
70982.1
69887.4
81412.2
79825.6
80050.6
81248.6
84365.5
70854.1
69799.1
74606.3
76280.5
76538.7
65064.9
65997.1
62515.5
62331.7
60968.9
66021.1
65048.7
66946.2
59531.5
58361.3
60490.2
59248
57681.7
60091.6
56301.5
54074.4
58651.5
63358.5
64554.3
62280.4
65951.9
68656.7
71913.4
65031.6
62309.8
60681.5
61531.4
63505.5
57076
59140.6
55827.8
55290.2
58248.2
59589.8
58270.3
60100.9
59627.4
58759
66430.6
68882.3
63668.2
61343.4
60375
65814.1
66712
63238.6
64482.2
62331.5
96636.6
95992
70339.3
67458.5
106108
104743
105599
105700
105148
95275.6
97458
96052.4
97532.5
83963.3
84599.1
68056.7
49581.9
48784.7
97340.9
96168.3
66917.6
49619.5
48370.9
52569.3
104960
95335.9
84679.3
52341.1
97320.3
96866.9
97022.4
84142.6
85271.7
85213.5
66957.6
96670.8
97254.3
88101.9
86799.2
96999.9
87562.9
86909.7
83226.7
83033.8
69871.5
73385.5
72965.1
95739.5
96472.1
87559.1
88632.5
83890.4
83636
69971.8
73299.6
72041.1
95664.2
97508.4
88094.1
89113.6
72626.8
70203.5
73928.9
79864.2
91203.8
90586.1
99208.9
99625.9
87002.4
87091.2
84286.8
86026.1
71739.4
70459.4
73457.4
67301.2
109093
107631
97720
104273
97414.3
105962
105225
86435.3
95813.3
95288.5
96495.4
95859.3
84185.9
73282.4
72770.5
72366
73131.9
72408.1
71902.5
57562.7
67748.6
56220.4
57703.9
108330
108670
112772
108842
111989
109878
107137
108042
109207
107203
99057.5
104876
99040.8
99598.1
98308
87826.3
89611.8
95055.5
97772.1
87121.6
96634.9
86128.3
70754
73985.3
74512.2
71203.4
72115.7
72918
67497.9
57670.7
56006.7
54630.7
54842.8
67502.2
57590
48802.5
49389.3
48379.9
109051
111041
109530
112656
107842
109005
108897
111061
106927
99010.7
104490
98305.6
106013
105139
104355
104946
100172
97694.5
97256.1
87306.2
89887.8
97331.5
95589.8
96812.6
86673
70294.2
74037.6
83628.9
84420.7
71095
74606.8
70736.5
73149.8
83682.5
67806.4
57556.8
54274.8
55965
54503.7
67429.1
57596.8
48693.3
48439.9
48595.9
108585
99142.6
98090.6
105779
97660
87059
96873.2
96197
96469
96479
72233.4
73959
72699
71911.9
72217.8
57459.6
68255.2
57685.1
68066.2
97772.8
93847.1
93072.7
92719.7
97032.1
95530.9
78632.9
81488.7
79929.6
94072.5
97386.3
96339.9
92627.6
95652.8
90754.5
91212.8
91195.7
91044.9
96532.6
92754.5
95345.3
91624.1
90769.7
90858.6
91281.8
81106.4
81231.8
79281.6
76300.6
74162.7
70915.2
75607.1
72613.9
76251.8
98110.9
93720.4
93358.9
96050.3
95051
91242.1
90804.7
89039.2
87199.3
91020.8
80118.2
82316.1
81406.5
79291
76929.6
74570.7
71167.1
75119.1
72667
76644.9
96358.3
95308.4
91655
90727.4
89318.3
87296.8
90856.1
81544.8
75791.8
72122.1
76817.3
74730.2
79369.5
103404
103954
103401
104537
92080.6
95910.3
95626.1
80633.4
81029.9
84149.3
84453.8
83176.9
66622.5
69697.9
68139.2
63186.4
62474.3
70627.1
67243
67277.4
104847
105556
107608
103090
92691.4
96272.9
90828.3
96074.1
93023.6
81231.7
80628.3
79174.4
67029.8
71213.3
68164
63356.5
53058
53252.8
50905.1
51157.2
49385.3
48232.7
104658
103849
104815
103501
106068
93201.7
96357.1
96581.1
79712.4
62491.6
68145.9
51180.7
49357.1
48314.6
45776.7
53917.2
104639
103964
106642
103387
106126
104234
104325
103546
103541
90770
91284.7
97969.9
94896.2
83782.9
81849.4
66871.9
70340.2
67295.1
64226.8
69157.9
62505
53967.8
81522.5
68390.3
99504.1
99181
91545
92262.2
81076.9
80835.2
80432.1
74775.2
72149.8
76643
73021.8
76237.5
70638.5
107876
106712
97060.6
97102.8
99530.1
102723
102595
101915
97281
99500.6
99284.9
101942
98066.9
101399
104243
103978
103665
104338
99024.9
98680.9
101042
101855
104712
106208
104412
106753
101479
98936.5
100502
106134
104276
105478
103445
98637.6
103761
103309
101790
98431.7
99568.8
98660.5
90896.2
92256.4
96748.7
94139.6
91232.4
91991
87272.1
88310.3
87077.6
92005
95325.4
95366.6
87928.6
87423.5
91954.1
88555.2
92433.5
95478.2
92809.5
87645
81265.3
83595
76776
77307.4
70674.1
83861.2
76124.3
77305.3
70918.9
81273.2
84427.9
77254.4
70808.9
83765.5
75874.8
76584.4
67233.5
67094.1
62449.1
62626.7
58838.4
59072.7
62730.1
59672.9
58567.8
56336.1
55165
55040.2
56520.8
66720.5
63219.6
59238
58265.2
56224.2
56444.7
54822.6
64360.3
66972.8
59021
108455
106263
110849
107886
105884
111023
106794
114116
107676
106369
107289
110604
107712
109674
112321
111441
108241
108674
99890.8
104950
107362
103874
99234.5
100830
100644
104497
103179
104670
103491
106492
101133
98656
98432.8
100130
105809
103752
103371
101605
90405.3
88638
87885.6
96572.9
95591.6
92412.1
90554.2
91495.5
91705.6
93450
96310.8
90777.2
81055.9
76174.6
73380.5
77338.1
81241.2
72478
76260.7
77012.1
80189.8
76598.7
74079.3
69617.2
56405.1
55247.1
54868.3
62548.2
59354.5
58291
56257.3
66982.8
67912.4
56351.3
55275.2
62502.5
56241.2
48348.5
48270.3
46345.7
49981.2
46013.1
48214
50279.8
109059
109345
113033
106687
106738
104790
105943
106460
109592
111257
110298
107955
104604
105575
107276
106047
107020
99841.8
106997
100902
105828
105545
103252
98103
102091
101074
104352
103536
101559
104319
102760
99988.5
99526.1
95463.9
90516.7
97528.8
92902
92931.4
90022.8
87300.7
91176.1
95541.9
91138.7
91010.9
80263.5
72699.3
76896.7
79425.8
80780
73403.5
75965.7
76884.2
76324.8
73839.9
80961.1
80702
59405.6
58292.9
56341
67174.8
63321.2
56493.9
54973.7
62514.9
56305.4
66622.1
56419.9
46154.7
48173.9
50267.3
108272
103068
97701.5
101752
98128.4
98132.7
99876
106460
104137
103803
99701.8
99120.5
100163
101804
104960
103321
103720
103437
101633
99343
102241
99414.8
99249.2
91906.5
87871.3
92802.8
97052.5
92814
90739.5
87104.7
87017.7
92535.4
96180.1
87285.7
92763.8
96223
88006.1
76072.1
71186.3
80526.6
83536.8
82680.8
76725.5
77894.7
83189.3
75804.8
83917.8
75910.1
58823.4
66877.8
56273.1
55203
56597.5
66727.5
68628.8
62746.7
56179.5
56513
62407.4
66800.7
)
;
    }
}


// ************************************************************************* //
