/*--------------------------------*- C++ -*----------------------------------*\
| =========                 |                                                 |
| \\      /  F ield         | OpenFOAM: The Open Source CFD Toolbox           |
|  \\    /   O peration     | Version:  v1912                                 |
|   \\  /    A nd           | Website:  www.openfoam.com                      |
|    \\/     M anipulation  |                                                 |
\*---------------------------------------------------------------------------*/
FoamFile
{
    version     2.0;
    format      ascii;
    class       volScalarField;
    location    "162/oil";
    object      wallHeatFlux;
}
// * * * * * * * * * * * * * * * * * * * * * * * * * * * * * * * * * * * * * //

dimensions      [1 0 -3 0 0 0 0];


internalField   uniform 0;

boundaryField
{
    maxY
    {
        type            calculated;
        value           uniform 0;
    }
    minX
    {
        type            calculated;
        value           uniform 0;
    }
    maxX
    {
        type            calculated;
        value           uniform 0;
    }
    minY
    {
        type            calculated;
        value           uniform 0;
    }
    minZ
    {
        type            calculated;
        value           uniform 0;
    }
    maxZ
    {
        type            calculated;
        value           uniform 0;
    }
    oil_to_sphere
    {
        type            calculated;
        value           nonuniform List<scalar> 
1536
(
3219.28
3372.95
3120.81
3079.68
2650.06
2743.97
2711.49
2027.8
1933.47
3486.22
2623.13
3520.85
3582.98
3524.4
3061.46
2634.05
2054.44
1945.08
302.769
3575.81
3488.65
2768.88
2724.59
2655.89
2796.25
2795.56
2797
2664.01
3381.51
3336.09
3124.39
2477.77
2273.92
2809.73
2642.53
2625.78
2516.58
2928.27
2759.91
2913.13
2760.8
2625.79
3294.21
3530.62
3350.91
3506.39
2741.67
2746.46
3015.05
2805.09
2760.13
2764.75
2702.23
2743.82
2369.12
2228.29
2731.95
2723.22
1957.33
1275.11
1429.43
1252.93
1396.7
3570.4
3590.24
3517.52
3366.37
3514.8
3206.07
3338.46
2817.79
2735.17
3116.55
2769.61
2643.5
2279.74
2198.01
2133.65
2638.4
1946.01
1246.38
1398.8
1070.61
1052.93
1508.82
1426.8
1102.46
2044.81
1943.84
1270.55
1413.06
299.319
303.38
3585.18
3593.52
3533.86
3407.02
3459.17
3526.13
3189.18
3379.99
2805.42
3202.79
3129.21
2752.95
2769.07
2659.21
2147.51
2611.32
2294.42
2185.31
2265.9
1270.94
1437.22
1084.94
1112.39
1082.43
1497.12
1426.54
1524.49
1954.69
1415.41
302.875
3517.57
3191.72
3335.82
3209.19
3321.28
2756.43
2766.59
2789
2755.99
2765.54
2738.66
2783.07
2799.4
2743.37
2228.76
2707.4
2698.47
1275.82
1421.62
2046.51
1955.35
1401.62
1926.96
3031.99
3033.78
2706.98
2836.41
3119.73
3030.76
2736.96
2783.51
2772.46
2522.91
2368.17
2403
3041.77
2992.97
3053.89
3280.24
2887.67
2784.38
2628.39
2523.19
2745.22
2575.77
2379.43
2412.96
3277.01
2949.16
3348.02
2908.22
2438.14
2180.58
3051.03
3082.41
3200.75
3018.26
2880.39
2774.81
2527.69
2768.82
2458.2
2415.34
2413.88
3428.14
2999.78
3123.88
3263.43
3055.71
3233.87
3109.54
2467.65
2488.25
2556.45
2578.12
2444.59
2504.63
2562.04
2644.21
1945.13
1890
1831.64
1983.68
2059.82
2028.56
2143.06
2108.69
1894.62
1780.9
1719.66
3440.37
3660.75
3597.34
3458.34
3453.99
3478.55
3445.7
3423.29
3542.71
3359.22
3434.12
3441.55
3064.53
3058.75
3355.33
3185.77
2833.79
2536.77
2458.98
2740.96
2481.97
1909.27
1966.31
1848.84
1990.02
2046.69
1861.63
1768.78
962.897
834.834
3550.82
3444.04
3495.59
3433.74
3516.41
3670.17
3528.42
3429.57
2981.34
2793.2
2991.88
3031.88
2496.62
2647.3
1910.43
1792.89
2070.02
2210.28
2135.94
1737.09
823.861
943.912
575.785
576.318
948.734
3492.39
3421.74
3405.73
3362.42
3434.66
3445.95
3392.1
3501.58
3715.13
3568.34
3421.05
3233.35
3037.66
3045.92
3164.35
3381.01
3196.37
3041.56
3037.66
2521.8
2543.7
2652.55
2680.59
2566.27
2641.85
1850.53
1786.32
1878.75
2014.53
1963.9
2050.84
2035.76
2036.07
1835.55
1752.09
1997.24
1886.96
2834.83
2702.98
2737
2522.15
2458.07
2419.34
2345.54
3295.79
3170.61
3353.94
3263.55
3170.04
3284.69
3318.71
3375
3468.61
3316.32
3351.54
3304.45
3648.59
3496.17
3441.95
3348.11
3462.3
3559.28
3454.04
3231.46
3265.88
3339.52
3170.58
3334.92
3381.44
3467.21
3443.93
3534.16
3499.04
3470.65
3392.44
3390.64
3366.01
3396.47
3289
3300.19
3193.03
3279.4
3137.4
3184.98
3378.4
3033.3
3304.62
3062.35
3104
3009.16
2838.59
3285.28
3042.61
3026.4
3158.97
2845.56
2963
3050.47
2815.96
2909.04
2750.54
3066.45
3282.97
3047.71
3067.39
3103.53
2878.74
2977.46
2952.51
2530.93
2604.21
2514.79
2386.42
2308.96
2394.27
2226.63
2163.29
2547.5
2610
2539.6
2418.28
2331.59
2458.44
2222.72
2164.34
2113.58
2486.06
2152.92
2410.96
2343.52
2418.73
2217.38
2539.39
2627.65
2533.36
2611.69
2190.43
2121.13
2413.36
2340.16
2439.93
2196.73
2140.97
2016.78
1950.6
2009.5
1944.86
1842.44
1847.83
1763.26
1921.22
1797.58
2071.44
1742.05
1778.22
1715.18
1622.49
1743.11
1697.77
1554.77
1509.69
1367.92
1972.42
1913.66
1836.41
1993.45
1785.61
1845.7
1557.26
1491.6
1463.51
1369.24
1719.9
1637.62
1747.39
1701.61
1674.8
2005.99
1941.49
2022.42
2027.34
1845.47
1752.04
1961.43
1877.09
3936.39
3772.7
3625.3
3895.15
3638.87
3680.25
3776.43
3543.24
3586.75
3648.52
3631.62
3436.5
3559.17
3393.12
3374.64
3341.55
3332.74
3400
3377.52
3459.57
3548.36
3261.7
3491.21
3297.75
3397.14
3314.23
3498.23
3353.18
3480.55
3417.19
3514.04
3431.96
3270.14
3373.5
3196.18
3446.8
3017.67
3122.94
3077.82
2763.41
2899.43
2884.71
3061.24
2763.28
3023.67
2749.92
2896.48
2790.72
2662.36
2739.72
2538.11
2488.95
2346.61
2426.92
2387.58
2301.75
2182.76
2452.28
2166.02
2629.19
2515.22
2370.41
1785.13
1704.14
1637.04
1764.44
1711.62
1899.38
1785.32
2068.53
1728.93
1544.41
1530.34
1384.1
1179.15
1036.85
1190.01
1043.22
1308.53
1432.84
1303.43
1153.78
1186.96
1890.22
1959.54
1829.83
1982.98
1744.06
1643.02
1766.67
1682.7
1885.91
1774.49
2017.4
2121.93
1733.77
1548.36
1680.44
1509.68
1369.06
1628.72
948.252
831.808
982.346
832.773
585.028
579.88
582.245
579.503
807.233
3837.48
3592.59
3684.51
3650.9
3603.63
3842.56
3697.66
3643.75
3578.03
3439.07
3629
3668.47
3736.35
3453.03
3462.83
3555.13
3564.29
3262.25
3442.42
3276.75
3496.52
3399.46
3386.01
3336.44
3427.19
3332.8
3418.59
3516.3
3356.55
3253.67
3203.34
3406.02
3490.8
3261.53
3469.86
3299.19
3188.15
3528.39
3391.97
3374.84
3419.2
3308.2
3306.64
3388.66
3494.07
3323.07
3203.99
3070.64
3033.09
2908.35
2784.71
2936.22
3244.2
3119.88
3070.48
2955.69
2937.96
2851.21
2882.14
2897.03
2767.03
2766.34
2527.56
2728.44
2459.07
2577.84
2422.56
2350.88
2814.05
2650.1
2221.45
2486.38
2161.6
2459.47
2294.07
2176.21
2388.81
2422.77
2405.86
2387.39
2356.77
2759.98
2503.25
1544.15
1540.24
1475.23
1389.58
1960.41
1892.42
1835.55
1989.86
1788.33
1850.83
1651.07
1773.39
1760.72
1696.09
1664.37
1322.76
1322.45
1448.71
1170.52
1181.47
1034.86
1192.74
1195.56
1030.62
1418.29
1293.11
1301.35
1437.17
1159.65
1888.24
1779.3
2049.46
2123.25
1735.26
1555
1685.02
1493.48
1473.02
1635.4
1857.43
1759.48
1949.82
1909.13
1835.45
1991.21
2040.48
1637.68
1720.28
1759.31
1690.51
1671.87
583.03
583.18
971.274
957.328
836.438
806.422
1103.44
954.352
816.38
3160.19
3328.64
3313.91
3154.18
3305.74
3162.44
3154.05
3481.8
3422.02
3556.87
3427.08
3271.92
3382.91
3324.94
3465.79
3354.6
3410.5
3280.11
3277.34
3492.27
3394.27
3343.08
3358.89
3309.45
3306.61
3373.1
3211.05
3189.76
3278.56
3359.5
3273.98
3415.45
3323.4
3569.31
3288.98
3213.93
3257.06
3278.82
3188.93
3155.09
3384.61
3043.76
2900.58
2905.96
2998.84
2780.75
3261.26
3041.24
3029.29
3122.46
2967.53
2971.25
2882.2
3184.35
3011.88
3040.61
3119.6
2855.5
2880.81
3025.48
2993.66
2780.71
3095.2
3260.07
3083.41
3111.44
2983.81
2974.49
2900.6
2897.81
2767.17
2406.74
2334.91
2427.73
2219.49
2188.15
2129.01
2591.07
2484.84
2610.57
2538.52
2336.19
2415.14
2409.46
2190.25
2136.6
2152.48
2540.38
2534.57
2628.75
2528.77
2620.49
2179.01
2217.43
2400.35
2321.74
2409.57
2183.73
2134.81
2655.48
2519.73
2518.36
2573.1
2637.67
2213.82
2145.54
2341.49
2426.23
2425.73
1943.64
2021.57
1844.77
1833.18
1748.12
2009.39
1951.45
2016.73
1722
1636.18
1756.63
1682.88
1577.16
1715.06
1520.38
1377.31
1647.54
1903.23
1946.27
1826.01
1992.78
2126.79
2289.99
1954.26
1825.2
1755.25
1792.66
1910.28
1553.11
1669.76
1505
1484.91
1618.37
1729.06
1646.33
1735.86
1717.07
1674.75
2021.18
2132.19
1901.95
1782.8
1727.29
1984.81
2049.31
1902.1
1964.26
1846.78
3135.58
3054.3
2191.97
2080.59
3523.58
3395.95
3482.7
3511.23
3482.37
3009.41
3241.67
3143.14
3214.09
2617.45
2778.58
2083.12
1052.71
1011.04
3125.58
3123.25
2035.71
1056.85
984.009
1274.63
3517.48
3045.33
2725
1253.98
3216.69
3100.91
3186.3
2605.32
2795.14
2773.85
2026.98
3144.5
3219.14
2760.34
2783.02
3185.4
2743.82
2774.65
2557.43
2645.92
2133.87
2267.44
2378.59
3055.17
3169.85
2722.06
2894.57
2598.36
2709.62
2134.06
2262.84
2300.37
3030.42
3223.36
2737.1
2967.95
2342.19
2148.68
2310.77
2537.31
2891.31
2860.26
3184.13
3227.65
2776.25
2754.56
2724.05
2778.89
2288.47
2151.75
2288.89
2049.62
3661.97
3577.77
3186.57
3462.72
3173.8
3535.09
3494.94
2769.23
3069.09
3060.01
3120.08
3049.19
2745.74
2329.38
2264.57
2268.37
2280.94
2274.26
2238.56
1583.79
2077.02
1530.7
1596.31
3593.54
3492.34
3633.34
3514.96
3600.08
3544.67
3599.62
3567.05
3634.43
3548.52
3183.79
3472.49
3186.72
3343.21
3190.91
2731.6
2930.13
3024.04
3291.25
2800.78
3163.96
2734.89
2151.26
2291.79
2335.92
2175.45
2268.81
2253.87
2055.53
1593.45
1465.48
1428.75
1490.12
2075.6
1570.66
1018.46
1048.94
982.097
3659.82
3593.69
3542.83
3719.13
3558.02
3626.04
3546.26
3680.04
3617.87
3196.72
3462.32
3136.25
3506.23
3484.62
3389.27
3480.57
3392.5
3157.37
3269.47
2721.39
3031
3258.79
3046.3
3236.37
2780.29
2134.23
2303.88
2593.04
2750.75
2233.23
2373.38
2166.13
2278.96
2718.13
2088.96
1585.79
1403.85
1471.37
1422.79
2065.9
1570.1
1016.92
984.27
1002.05
3579.66
3321.99
3211.92
3521.75
3159.21
2769.74
3121.09
3072.13
3069.33
3055.05
2251.53
2390.75
2244.22
2245.51
2248.56
1577.83
2114.03
1604.73
2100.52
3178.32
3023.74
2868.24
3007.71
3226.04
3043.02
2418.24
2532.34
2412.75
3098.02
3227.13
3078.04
2924.12
3259.47
2825.09
3001.09
2981.78
2838.91
3072.29
2951.57
3234.15
2879.09
2959.51
2972.79
2895.57
2636.45
2619.26
2431.35
2427.62
2320
2179.26
2414.24
2289.43
2357.25
3192.79
2995.74
2901.89
2998.58
3203.87
2824.11
2870.56
2891.38
2673.65
2998.54
2525.65
2699.1
2653.23
2445.03
2463.59
2341.22
2177.51
2388.64
2272.1
2360.4
3009.74
3188.56
2822.11
2848.03
2915.68
2650.38
2987.96
2614.76
2434.6
2267.55
2451.5
2377.67
2439.56
3387.63
3393.27
3368.15
3412.37
2873.19
3216.61
3084.02
2546.14
2550.42
2650.51
2632.98
2614.21
2024.68
2153.46
2135.25
1877.43
1828.76
2172.73
2054.32
2051.6
3408.75
3443.85
3509.38
3367.6
2931.64
3072.85
2847.6
3291.27
3059.95
2612.89
2611.65
2446.93
2040
2220.63
2132.19
1887.97
1320.58
1344.22
1165.81
1184.54
1033.24
963.863
3414.28
3398.05
3392.99
3344.88
3472.2
3012.15
3167.51
3088.24
2511.95
1832.41
2149.99
1179.63
1030.97
978.93
787.452
1368.46
3411.67
3420.72
3506.71
3417.84
3471.04
3468.63
3421.63
3391.11
3485.24
2829.37
2961.83
3422.99
3051.52
2626.22
2637.03
2050.71
2154.82
2029.66
1971.38
2111.59
1876.78
1378.49
2619.04
2123.12
3274.12
3211.04
3014.84
3032.18
2620.17
2504.76
2577.01
2385.15
2261.66
2428.23
2300.48
2284.78
2241.77
3654.64
3592.76
3102.79
3125.62
3313.29
3394.65
3352.49
3378.47
3142.86
3299.5
3226.55
3347.98
3162.01
3262.99
3443.29
3360.11
3381.3
3362.31
3122.97
3218.03
3259.02
3330.37
3406.31
3482.31
3440.4
3465.2
3300.54
3133.27
3242.46
3480.04
3414.06
3484.22
3439.16
3153.09
3395.16
3461.9
3354.77
3230.65
3285.73
3222.52
3013.2
2925.67
3325.89
3005.97
2893.44
2891.81
2731.47
2754.92
2746.12
2910.87
3249.4
3072.13
2783.29
2766.87
2894.94
2786.27
2915.48
3193.34
2974.78
2763.61
2668.04
2639.67
2382.66
2434.48
2174.5
2642.11
2380.81
2462.33
2197.62
2561.17
2645.81
2402.91
2190.3
2628.53
2314.08
2401.4
2035.94
2032.08
1831.98
1850.7
1669.99
1687.25
1856.18
1687.98
1644.28
1484.89
1454.83
1441.08
1518.9
2013.38
1879.24
1679.47
1622.37
1503.99
1505.03
1429.77
1972.27
2046.02
1680.1
3688.73
3521.37
3609.43
3436.67
3508.4
3682.03
3382.95
3844.04
3521.72
3564.54
3543.32
3689.75
3550
3665.03
3850.96
3696.03
3518.39
3637.08
3300.93
3404.48
3575.33
3475.05
3178.97
3387.03
3265.52
3426.94
3359.86
3408.78
3362.42
3485.71
3273.32
3113.23
3199.57
3326.46
3472.78
3392.53
3377.24
3303.62
2855.93
2960.32
2751.78
3014.57
3181.7
2857.87
2960.1
3000.15
3037.69
3042.7
3172.7
2881.61
2539.51
2425.2
2343.93
2486.01
2627.22
2268.22
2292.32
2423.24
2543.54
2425.85
2311.29
2192.99
1511.18
1488.71
1458.43
1825.31
1677.85
1624.05
1496.84
2012.36
2079.79
1494.68
1467.93
1831.35
1506.99
978.222
983.517
814.038
1102.56
792.948
978.158
1129.67
3722.32
3523.89
3772.77
3624.17
3610.18
3483.44
3516.01
3385.32
3653.17
3772.02
3667.89
3526.89
3490.06
3456.6
3558.02
3561.68
3558.05
3302.3
3491.24
3253.36
3457.75
3487.24
3409.59
3087.74
3493.91
3330.85
3399.76
3368.68
3293.85
3365.04
3370.24
3188.85
3270.76
3202.97
2974.53
3189.18
3021.24
2870.28
2822.56
2659.58
2899.36
3227.45
2984.9
3001.99
2574.88
2296.15
2331.03
2508.26
2504.18
2365.4
2467.6
2462.02
2415.15
2312.49
2601.43
2620.73
1679.09
1628.32
1502.1
2036.52
1892.44
1497.67
1456.21
1840.32
1514.09
2015.87
1484.01
806.824
972.769
1132.02
3683.94
3412.56
3174.28
3364.33
3172.73
3168.18
3277.55
3473.46
3408.31
3383.46
3182.07
3274.74
3347.89
3302.14
3420.18
3378.01
3405.08
3365.77
3299.76
3131.56
3370.24
3265
3228.47
3044.23
2779.42
2943.73
3336.86
2999.49
2885.17
2750.71
2749.59
2903.84
3234.64
2757.21
2896.14
3224
2780.54
2363.82
2215.71
2575.87
2640.22
2566.55
2366.62
2475.48
2609.8
2318.75
2624.42
2319.4
1663.68
2042.04
1489.8
1463.85
1531.8
2019.35
2168.02
1853.48
1498.66
1526.61
1822.95
2025.98
)
;
    }
}


// ************************************************************************* //
