/*--------------------------------*- C++ -*----------------------------------*\
| =========                 |                                                 |
| \\      /  F ield         | OpenFOAM: The Open Source CFD Toolbox           |
|  \\    /   O peration     | Version:  v1912                                 |
|   \\  /    A nd           | Website:  www.openfoam.com                      |
|    \\/     M anipulation  |                                                 |
\*---------------------------------------------------------------------------*/
FoamFile
{
    version     2.0;
    format      ascii;
    class       volScalarField;
    location    "240/oil";
    object      wallHeatFlux;
}
// * * * * * * * * * * * * * * * * * * * * * * * * * * * * * * * * * * * * * //

dimensions      [1 0 -3 0 0 0 0];


internalField   uniform 0;

boundaryField
{
    maxY
    {
        type            calculated;
        value           uniform 0;
    }
    minX
    {
        type            calculated;
        value           uniform 0;
    }
    maxX
    {
        type            calculated;
        value           uniform 0;
    }
    minY
    {
        type            calculated;
        value           uniform 0;
    }
    minZ
    {
        type            calculated;
        value           uniform 0;
    }
    maxZ
    {
        type            calculated;
        value           uniform 0;
    }
    oil_to_sphere
    {
        type            calculated;
        value           nonuniform List<scalar> 
360
(
4602.29
4628.2
3280.9
8487.48
9044.22
3809.48
9284.15
8379.49
9017.8
4723.62
4748.91
3796.51
4208.28
2958.01
4629.63
8034.32
9164.43
8492.82
8881.97
2940.27
7390.44
4746.3
4179.53
8772.78
3300.65
9099.15
3801.19
8960.97
8892.16
8410.9
9553.88
9340.43
3291.17
3256.76
3758.47
3775.95
8789.29
8724.08
8490.91
8625.15
8831.02
3259.09
3726.98
4752.98
4764.12
3793.25
4103.92
2931.33
4644.88
8317.53
3830.07
3800.52
4179.78
4186.59
2922.52
4773.95
8515.68
2939.07
3741.84
4104.41
2938.47
8926.83
8478.75
8846.86
2931.42
7675.32
4644.45
4065.27
9295.76
8833.17
8513.69
8718.78
8694.69
2927.41
6599.12
4601.51
2961.13
4008.86
8727.29
8994.64
4103.88
4036.54
4044.27
2938.02
3267.78
3773.67
3783.81
4194.3
2944.21
2960.95
3275.61
4197.4
3786.01
3271.12
4173.44
3774.21
3774.01
3779.62
3252.54
2989.43
2983.55
2939.83
3818.81
3808.25
4213.74
2940.05
2970.16
4221.38
3265.07
3793.8
3791.06
3785.8
3259.11
2929.78
3016.76
3012.36
4162.15
4144.14
4129.03
4726.51
4734.47
8197.35
8730.19
7886.93
8790.76
8201.85
8805.08
8920.4
8290.05
8660.44
8515.86
4129.43
4109.07
4116.34
2981.74
8154.79
8876.9
4805.16
4816.61
8956.77
8278.09
4699.49
4629.59
9087.05
8337.85
9607.26
2982.42
2974.55
8780.99
8993.91
9596.86
9114.94
9115.62
9507.54
9590.6
8302.6
4594.4
9065.91
8600.17
2953.96
8964.02
9195.13
4019.81
3958.65
4123.25
4704.49
4759.25
9064.2
8342.04
9431.65
2911.48
8478.83
4775.6
8958.24
8558.54
2913.08
9235.89
4080.21
4076.34
3000.09
3795.52
3809.94
4195.7
3288.87
4150.61
3712.46
2948.06
2980.81
8895.86
8343.81
8955.66
8616.29
4693.15
4696.56
8761.28
8016.72
8617.56
4670.77
4698.93
2973.07
3772.86
3830.8
4211.02
3796.75
3783.04
4216.85
3262.7
4185.64
3765.71
3238.14
8276.26
4209.04
3766.77
2946.99
8687.65
8229.18
8688.2
4876.61
4876.8
2910.95
3746.61
3751.61
4098.89
8922.99
3231.68
4081.46
3738.19
8417.5
8473
4844.01
2930.56
4806.48
2928.65
3016.23
4151.28
3277.93
3716.15
3705.74
3722.27
3253.76
2964.57
8489.02
7980.2
8935.6
9368.72
8401.04
7944.65
9064.33
9165.74
4701.38
8606.76
2981.66
9047.1
8943.83
8989.4
4182.18
3282.19
3796.71
4187.2
3296.79
8977.07
3770.75
3766.12
3791.27
3254.91
9087.87
8370.67
3763.08
3764.08
3251.94
8391.61
9494.66
4757.95
8540.42
2941.02
8916.3
8747.02
8972.89
4084.61
3243.1
8840.77
3735.85
3744.17
3730.58
8770.35
3255.57
8632.14
4824.39
7993.31
4848.17
8416.17
8582.47
8736.04
2948.49
4017.35
3944.72
3984.23
4814.4
8795.2
4801.31
8519.64
8772.35
2966.69
8862.05
9012.58
4635.39
8637.98
2971.16
9498.36
4071.56
4048.33
2910.81
8501.74
4810.68
7560.66
8534.86
4806.16
2939.15
3779.41
3781.18
4204.78
8818.05
8176.38
4735.92
2977.59
8235.78
4809.92
2954.76
8297.36
8976.11
4661.65
8665.3
2903.53
9357.97
4220.68
9206.57
3256.22
3786.54
9245.03
8640.27
8486.47
4722.95
9006.23
8923.27
4760.22
8540.49
3993.83
4090.44
8368.06
4788.83
2921.58
8370.54
4800.02
2954.41
8623.38
8688.94
8204.38
4821.85
8495.23
4833.1
)
;
    }
}


// ************************************************************************* //
