/*--------------------------------*- C++ -*----------------------------------*\
| =========                 |                                                 |
| \\      /  F ield         | OpenFOAM: The Open Source CFD Toolbox           |
|  \\    /   O peration     | Version:  v1912                                 |
|   \\  /    A nd           | Website:  www.openfoam.com                      |
|    \\/     M anipulation  |                                                 |
\*---------------------------------------------------------------------------*/
FoamFile
{
    version     2.0;
    format      ascii;
    class       volVectorField;
    location    "458/oil";
    object      U;
}
// * * * * * * * * * * * * * * * * * * * * * * * * * * * * * * * * * * * * * //

dimensions      [0 1 -1 0 0 0 0];


internalField   nonuniform List<vector> 
35580
(
(-1.23881e-09 2.46304e-09 -1.26314e-09)
(1.25824e-09 2.23987e-09 -3.03164e-09)
(1.1621e-08 2.20966e-09 -4.8756e-09)
(2.79424e-08 2.75918e-09 -6.74281e-09)
(4.77867e-08 3.63637e-09 -8.24665e-09)
(6.83753e-08 4.66932e-09 -9.25911e-09)
(8.71381e-08 5.75962e-09 -9.77035e-09)
(1.01843e-07 6.86095e-09 -9.83777e-09)
(1.10667e-07 7.94492e-09 -9.54828e-09)
(1.12397e-07 8.98277e-09 -8.98368e-09)
(1.06368e-07 9.92032e-09 -8.21801e-09)
(9.26319e-08 1.07137e-08 -7.45368e-09)
(7.2022e-08 1.13353e-08 -6.74366e-09)
(4.58308e-08 1.18077e-08 -6.23742e-09)
(1.60756e-08 1.20677e-08 -5.97259e-09)
(-1.498e-08 1.2099e-08 -5.9779e-09)
(-4.48254e-08 1.18272e-08 -6.23715e-09)
(-7.10722e-08 1.13467e-08 -6.72838e-09)
(-9.18105e-08 1.06858e-08 -7.40757e-09)
(-1.05675e-07 9.90749e-09 -8.18246e-09)
(-1.11921e-07 8.9855e-09 -8.94007e-09)
(-1.10362e-07 7.93509e-09 -9.53003e-09)
(-1.01642e-07 6.85042e-09 -9.81878e-09)
(-8.70337e-08 5.75199e-09 -9.76072e-09)
(-6.83418e-08 4.66136e-09 -9.25155e-09)
(-4.78102e-08 3.63161e-09 -8.23961e-09)
(-2.80007e-08 2.75488e-09 -6.73191e-09)
(-1.16876e-08 2.19914e-09 -4.85417e-09)
(-1.31606e-09 2.21772e-09 -3.00476e-09)
(1.21242e-09 2.41808e-09 -1.24288e-09)
(6.3475e-10 -2.30783e-09 6.20152e-10)
(1.27585e-08 -1.41181e-08 5.34887e-10)
(3.71777e-08 -2.35468e-08 -3.20094e-10)
(7.12023e-08 -2.86637e-08 -1.43801e-09)
(1.10795e-07 -3.02865e-08 -2.26291e-09)
(1.51202e-07 -2.92882e-08 -2.54751e-09)
(1.87657e-07 -2.63901e-08 -2.23427e-09)
(2.15864e-07 -2.2133e-08 -1.36591e-09)
(2.32265e-07 -1.69753e-08 -4.56478e-11)
(2.34355e-07 -1.13478e-08 1.57446e-09)
(2.20758e-07 -5.70024e-09 3.47069e-09)
(1.91505e-07 -5.21033e-10 5.24891e-09)
(1.48409e-07 3.75214e-09 6.81154e-09)
(9.43037e-08 6.87314e-09 7.93347e-09)
(3.30534e-08 8.52905e-09 8.5257e-09)
(-3.08432e-08 8.56428e-09 8.54492e-09)
(-9.2298e-08 6.84048e-09 7.96092e-09)
(-1.46499e-07 3.65754e-09 6.87346e-09)
(-1.8961e-07 -7.09157e-10 5.35049e-09)
(-2.18955e-07 -5.83027e-09 3.57382e-09)
(-2.32921e-07 -1.14699e-08 1.7093e-09)
(-2.31144e-07 -1.70882e-08 4.81512e-11)
(-2.14999e-07 -2.22098e-08 -1.27741e-09)
(-1.87074e-07 -2.64385e-08 -2.16445e-09)
(-1.50864e-07 -2.93361e-08 -2.48909e-09)
(-1.10657e-07 -3.03513e-08 -2.21043e-09)
(-7.12067e-08 -2.8763e-08 -1.39539e-09)
(-3.72344e-08 -2.3683e-08 -2.83409e-10)
(-1.27934e-08 -1.4258e-08 5.55455e-10)
(-6.41757e-10 -2.42455e-09 6.10525e-10)
(2.49259e-09 -2.27673e-08 2.48973e-09)
(2.50451e-08 -6.02906e-08 4.4104e-09)
(6.13121e-08 -8.80879e-08 4.81582e-09)
(1.07953e-07 -1.05769e-07 4.75553e-09)
(1.6006e-07 -1.15182e-07 4.85042e-09)
(2.12189e-07 -1.18112e-07 5.3868e-09)
(2.58615e-07 -1.16096e-07 6.46683e-09)
(2.94022e-07 -1.10389e-07 8.08123e-09)
(3.13939e-07 -1.02079e-07 1.01291e-08)
(3.15188e-07 -9.2177e-08 1.24301e-08)
(2.95938e-07 -8.16958e-08 1.49691e-08)
(2.56133e-07 -7.17274e-08 1.73209e-08)
(1.98154e-07 -6.33645e-08 1.93097e-08)
(1.25772e-07 -5.73074e-08 2.07478e-08)
(4.40516e-08 -5.41036e-08 2.15114e-08)
(-4.12053e-08 -5.41168e-08 2.15619e-08)
(-1.23255e-07 -5.74665e-08 2.07866e-08)
(-1.9576e-07 -6.37088e-08 1.93678e-08)
(-2.53686e-07 -7.21978e-08 1.7379e-08)
(-2.93693e-07 -8.20989e-08 1.50693e-08)
(-3.1342e-07 -9.25416e-08 1.25561e-08)
(-3.12545e-07 -1.02351e-07 1.02117e-08)
(-2.92956e-07 -1.10576e-07 8.16008e-09)
(-2.57885e-07 -1.16226e-07 6.53887e-09)
(-2.11764e-07 -1.18226e-07 5.45165e-09)
(-1.5988e-07 -1.15324e-07 4.91427e-09)
(-1.07936e-07 -1.05971e-07 4.80977e-09)
(-6.13636e-08 -8.83531e-08 4.85302e-09)
(-2.50972e-08 -6.05419e-08 4.41556e-09)
(-2.51414e-09 -2.29236e-08 2.46524e-09)
(3.98554e-09 -5.64549e-08 3.9753e-09)
(3.53473e-08 -1.3161e-07 7.36818e-09)
(8.15281e-08 -1.84541e-07 8.63691e-09)
(1.38102e-07 -2.1969e-07 9.28545e-09)
(1.99404e-07 -2.40775e-07 1.00415e-08)
(2.59594e-07 -2.50693e-07 1.11858e-08)
(3.12494e-07 -2.51885e-07 1.28298e-08)
(3.52298e-07 -2.46388e-07 1.49749e-08)
(3.74035e-07 -2.3603e-07 1.75283e-08)
(3.74095e-07 -2.22514e-07 2.03041e-08)
(3.50329e-07 -2.07561e-07 2.32382e-08)
(3.02689e-07 -1.92817e-07 2.59609e-08)
(2.3394e-07 -1.80145e-07 2.82816e-08)
(1.48316e-07 -1.7083e-07 2.99198e-08)
(5.19019e-08 -1.65923e-07 3.07772e-08)
(-4.86858e-08 -1.65996e-07 3.08415e-08)
(-1.4553e-07 -1.71038e-07 2.99373e-08)
(-2.31215e-07 -1.80491e-07 2.82937e-08)
(-2.99916e-07 -1.93193e-07 2.5988e-08)
(-3.47781e-07 -2.0788e-07 2.3305e-08)
(-3.72e-07 -2.22803e-07 2.03642e-08)
(-3.72339e-07 -2.36239e-07 1.75619e-08)
(-3.50988e-07 -2.46533e-07 1.50123e-08)
(-3.11559e-07 -2.51984e-07 1.28685e-08)
(-2.59002e-07 -2.50795e-07 1.12295e-08)
(-1.99118e-07 -2.40933e-07 1.00933e-08)
(-1.38037e-07 -2.19939e-07 9.3247e-09)
(-8.15614e-08 -1.84851e-07 8.64732e-09)
(-3.54131e-08 -1.31874e-07 7.34375e-09)
(-4.02168e-09 -5.66589e-08 3.9352e-09)
(5.04295e-09 -1.00545e-07 5.03091e-09)
(4.31252e-08 -2.22747e-07 9.41333e-09)
(9.71132e-08 -3.05929e-07 1.12282e-08)
(1.61461e-07 -3.6193e-07 1.23198e-08)
(2.29768e-07 -3.9735e-07 1.34866e-08)
(2.95901e-07 -4.1652e-07 1.50483e-08)
(3.53409e-07 -4.22878e-07 1.71e-08)
(3.96237e-07 -4.19269e-07 1.9657e-08)
(4.19128e-07 -4.08258e-07 2.26238e-08)
(4.18215e-07 -3.92261e-07 2.58182e-08)
(3.91142e-07 -3.73701e-07 2.90901e-08)
(3.37758e-07 -3.54788e-07 3.21555e-08)
(2.60896e-07 -3.38112e-07 3.47948e-08)
(1.65291e-07 -3.25587e-07 3.66182e-08)
(5.78169e-08 -3.19011e-07 3.75716e-08)
(-5.43127e-08 -3.19117e-07 3.76496e-08)
(-1.6228e-07 -3.25755e-07 3.66415e-08)
(-2.57824e-07 -3.38235e-07 3.47984e-08)
(-3.34685e-07 -3.54888e-07 3.22124e-08)
(-3.88355e-07 -3.73764e-07 2.91571e-08)
(-4.15901e-07 -3.92319e-07 2.58671e-08)
(-4.17265e-07 -4.08301e-07 2.26603e-08)
(-3.94792e-07 -4.19316e-07 1.96977e-08)
(-3.52357e-07 -4.2293e-07 1.71407e-08)
(-2.95199e-07 -4.16609e-07 1.50845e-08)
(-2.29386e-07 -3.97502e-07 1.35225e-08)
(-1.61337e-07 -3.6218e-07 1.23317e-08)
(-9.71312e-08 -3.06213e-07 1.11991e-08)
(-4.32127e-08 -2.22902e-07 9.33776e-09)
(-5.10054e-09 -1.00785e-07 4.96707e-09)
(5.71884e-09 -1.52032e-07 5.73304e-09)
(4.84527e-08 -3.2815e-07 1.07277e-08)
(1.08095e-07 -4.45403e-07 1.28503e-08)
(1.7813e-07 -5.24691e-07 1.42004e-08)
(2.51531e-07 -5.76315e-07 1.56207e-08)
(3.2196e-07 -6.06442e-07 1.74624e-08)
(3.82809e-07 -6.19623e-07 1.98245e-08)
(4.27869e-07 -6.19521e-07 2.27345e-08)
(4.51705e-07 -6.09415e-07 2.60866e-08)
(4.5024e-07 -5.92381e-07 2.97037e-08)
(4.21045e-07 -5.71509e-07 3.33544e-08)
(3.6375e-07 -5.49616e-07 3.6827e-08)
(2.80936e-07 -5.29742e-07 3.98125e-08)
(1.77937e-07 -5.14463e-07 4.18666e-08)
(6.21997e-08 -5.06411e-07 4.29242e-08)
(-5.84993e-08 -5.06503e-07 4.29976e-08)
(-1.74784e-07 -5.14607e-07 4.18744e-08)
(-2.77622e-07 -5.2965e-07 3.98115e-08)
(-3.60452e-07 -5.49563e-07 3.6918e-08)
(-4.18089e-07 -5.7144e-07 3.3441e-08)
(-4.47794e-07 -5.92315e-07 2.97714e-08)
(-4.49743e-07 -6.09367e-07 2.61448e-08)
(-4.26348e-07 -6.19516e-07 2.27911e-08)
(-3.81696e-07 -6.19654e-07 1.98862e-08)
(-3.21199e-07 -6.06524e-07 1.75091e-08)
(-2.51081e-07 -5.76447e-07 1.56576e-08)
(-1.77948e-07 -5.24887e-07 1.41967e-08)
(-1.08096e-07 -4.45589e-07 1.27869e-08)
(-4.85742e-08 -3.28148e-07 1.06057e-08)
(-5.80373e-09 -1.52296e-07 5.64724e-09)
(6.10516e-09 -2.08219e-07 6.12621e-09)
(5.16018e-08 -4.42895e-07 1.14524e-08)
(1.147e-07 -5.96815e-07 1.37588e-08)
(1.88227e-07 -7.01051e-07 1.52522e-08)
(2.64768e-07 -7.70268e-07 1.68311e-08)
(3.37858e-07 -8.1277e-07 1.88861e-08)
(4.00834e-07 -8.3435e-07 2.15091e-08)
(4.47424e-07 -8.39504e-07 2.47438e-08)
(4.7208e-07 -8.3217e-07 2.84702e-08)
(4.70567e-07 -8.15992e-07 3.25121e-08)
(4.4036e-07 -7.94608e-07 3.65826e-08)
(3.80858e-07 -7.71428e-07 4.04719e-08)
(2.94297e-07 -7.49747e-07 4.38441e-08)
(1.86401e-07 -7.32479e-07 4.615e-08)
(6.51133e-08 -7.23252e-07 4.7289e-08)
(-6.12741e-08 -7.23294e-07 4.73645e-08)
(-1.8317e-07 -7.32674e-07 4.61352e-08)
(-2.90879e-07 -7.49566e-07 4.38597e-08)
(-3.77449e-07 -7.71366e-07 4.06023e-08)
(-4.3732e-07 -7.94542e-07 3.67046e-08)
(-4.68063e-07 -8.15922e-07 3.26108e-08)
(-4.70082e-07 -8.32128e-07 2.85549e-08)
(-4.45875e-07 -8.39514e-07 2.48187e-08)
(-3.99699e-07 -8.34396e-07 2.15854e-08)
(-3.37072e-07 -8.12849e-07 1.89379e-08)
(-2.6428e-07 -7.70363e-07 1.68706e-08)
(-1.88002e-07 -7.01145e-07 1.52312e-08)
(-1.14677e-07 -5.96792e-07 1.3655e-08)
(-5.1734e-08 -4.42646e-07 1.12998e-08)
(-6.19842e-09 -2.08551e-07 6.03491e-09)
(6.22228e-09 -2.66688e-07 6.26874e-09)
(5.2695e-08 -5.62368e-07 1.17113e-08)
(1.17014e-07 -7.5432e-07 1.40949e-08)
(1.91701e-07 -8.84459e-07 1.56656e-08)
(2.69222e-07 -9.72272e-07 1.73379e-08)
(3.4312e-07 -1.02842e-06 1.95433e-08)
(4.06802e-07 -1.06001e-06 2.23922e-08)
(4.54059e-07 -1.07238e-06 2.59212e-08)
(4.79314e-07 -1.07002e-06 3.0005e-08)
(4.78215e-07 -1.05705e-06 3.44704e-08)
(4.48115e-07 -1.03755e-06 3.89945e-08)
(3.88186e-07 -1.0153e-06 4.32818e-08)
(3.00168e-07 -9.9364e-07 4.70629e-08)
(1.90005e-07 -9.75315e-07 4.96431e-08)
(6.63111e-08 -9.65511e-07 5.08979e-08)
(-6.25403e-08 -9.65722e-07 5.10226e-08)
(-1.86876e-07 -9.75837e-07 4.96492e-08)
(-2.96814e-07 -9.93598e-07 4.71227e-08)
(-3.84774e-07 -1.01535e-06 4.34182e-08)
(-4.45078e-07 -1.03758e-06 3.91085e-08)
(-4.75696e-07 -1.05706e-06 3.45663e-08)
(-4.77301e-07 -1.07005e-06 3.00887e-08)
(-4.52491e-07 -1.07245e-06 2.59937e-08)
(-4.05637e-07 -1.06013e-06 2.24693e-08)
(-3.42291e-07 -1.02856e-06 1.95974e-08)
(-2.68687e-07 -9.72383e-07 1.73585e-08)
(-1.9143e-07 -8.8447e-07 1.5606e-08)
(-1.16962e-07 -7.54059e-07 1.3961e-08)
(-5.282e-08 -5.61854e-07 1.15573e-08)
(-6.32358e-09 -2.67182e-07 6.18858e-09)
(6.12165e-09 -3.25282e-07 6.16738e-09)
(5.18232e-08 -6.82088e-07 1.15137e-08)
(1.14999e-07 -9.12276e-07 1.38831e-08)
(1.88276e-07 -1.06858e-06 1.55088e-08)
(2.64298e-07 -1.17546e-06 1.7242e-08)
(3.3682e-07 -1.24623e-06 1.95098e-08)
(3.99453e-07 -1.28934e-06 2.24979e-08)
(4.4619e-07 -1.31092e-06 2.62379e-08)
(4.71565e-07 -1.31592e-06 3.05972e-08)
(4.71172e-07 -1.30876e-06 3.54116e-08)
(4.42241e-07 -1.29376e-06 4.03307e-08)
(3.83815e-07 -1.27479e-06 4.49624e-08)
(2.97087e-07 -1.25523e-06 4.90473e-08)
(1.87906e-07 -1.23751e-06 5.19294e-08)
(6.5598e-08 -1.22828e-06 5.3392e-08)
(-6.19311e-08 -1.22851e-06 5.35128e-08)
(-1.8487e-07 -1.23793e-06 5.18758e-08)
(-2.93816e-07 -1.25512e-06 4.90922e-08)
(-3.80428e-07 -1.27489e-06 4.50847e-08)
(-4.39271e-07 -1.2939e-06 4.04343e-08)
(-4.68691e-07 -1.30887e-06 3.55105e-08)
(-4.69593e-07 -1.31602e-06 3.06847e-08)
(-4.44655e-07 -1.3111e-06 2.63101e-08)
(-3.98288e-07 -1.28959e-06 2.25688e-08)
(-3.35972e-07 -1.24645e-06 1.95395e-08)
(-2.63747e-07 -1.17554e-06 1.71898e-08)
(-1.87969e-07 -1.06832e-06 1.53842e-08)
(-1.14897e-07 -9.11565e-07 1.37305e-08)
(-5.18969e-08 -6.81242e-07 1.13652e-08)
(-6.20356e-09 -3.25864e-07 6.08539e-09)
(5.79947e-09 -3.8177e-07 5.79224e-09)
(4.89455e-08 -7.9752e-07 1.08162e-08)
(1.08546e-07 -1.06485e-06 1.30517e-08)
(1.77648e-07 -1.24688e-06 1.46769e-08)
(2.49401e-07 -1.37273e-06 1.64641e-08)
(3.17982e-07 -1.45847e-06 1.87441e-08)
(3.77437e-07 -1.51424e-06 2.17473e-08)
(4.22127e-07 -1.54673e-06 2.55573e-08)
(4.46872e-07 -1.56125e-06 3.00215e-08)
(4.47332e-07 -1.56238e-06 3.50025e-08)
(4.20631e-07 -1.55444e-06 4.01452e-08)
(3.65674e-07 -1.54112e-06 4.50146e-08)
(2.83295e-07 -1.52549e-06 4.91745e-08)
(1.79025e-07 -1.51011e-06 5.22526e-08)
(6.25253e-08 -1.50265e-06 5.39485e-08)
(-5.91822e-08 -1.50287e-06 5.4072e-08)
(-1.76242e-07 -1.51019e-06 5.21945e-08)
(-2.80073e-07 -1.52463e-06 4.9196e-08)
(-3.62292e-07 -1.54066e-06 4.51369e-08)
(-4.17749e-07 -1.55449e-06 4.02398e-08)
(-4.44884e-07 -1.56254e-06 3.5105e-08)
(-4.44953e-07 -1.56145e-06 3.01074e-08)
(-4.20653e-07 -1.54704e-06 2.5623e-08)
(-3.76292e-07 -1.51464e-06 2.18242e-08)
(-3.17114e-07 -1.45877e-06 1.87663e-08)
(-2.48798e-07 -1.37255e-06 1.64135e-08)
(-1.77244e-07 -1.24608e-06 1.46475e-08)
(-1.08307e-07 -1.06362e-06 1.30621e-08)
(-4.89104e-08 -7.96442e-07 1.08281e-08)
(-5.83832e-09 -3.8246e-07 5.78559e-09)
(5.25054e-09 -4.3381e-07 5.16804e-09)
(4.40044e-08 -9.0374e-07 9.69303e-09)
(9.75534e-08 -1.20555e-06 1.16843e-08)
(1.59575e-07 -1.41207e-06 1.31794e-08)
(2.2405e-07 -1.55627e-06 1.49474e-08)
(2.85848e-07 -1.65668e-06 1.71805e-08)
(3.39725e-07 -1.7255e-06 2.00666e-08)
(3.80547e-07 -1.77e-06 2.37322e-08)
(4.03625e-07 -1.79557e-06 2.80217e-08)
(4.04831e-07 -1.80677e-06 3.28907e-08)
(3.81182e-07 -1.80769e-06 3.79883e-08)
(3.31699e-07 -1.80144e-06 4.2847e-08)
(2.57252e-07 -1.7915e-06 4.68632e-08)
(1.62774e-07 -1.78091e-06 4.99627e-08)
(5.69176e-08 -1.77596e-06 5.17271e-08)
(-5.39212e-08 -1.77624e-06 5.18844e-08)
(-1.60243e-07 -1.78085e-06 4.99761e-08)
(-2.54185e-07 -1.79048e-06 4.67875e-08)
(-3.28703e-07 -1.80118e-06 4.28547e-08)
(-3.78669e-07 -1.80787e-06 3.79917e-08)
(-4.02523e-07 -1.80705e-06 3.29805e-08)
(-4.01816e-07 -1.79581e-06 2.81143e-08)
(-3.79202e-07 -1.77041e-06 2.37883e-08)
(-3.38691e-07 -1.72608e-06 2.01572e-08)
(-2.85104e-07 -1.65689e-06 1.72057e-08)
(-2.2352e-07 -1.55535e-06 1.48928e-08)
(-1.59128e-07 -1.41025e-06 1.31172e-08)
(-9.7167e-08 -1.20354e-06 1.15732e-08)
(-4.38384e-08 -9.0223e-07 9.56915e-09)
(-5.20272e-09 -4.34403e-07 5.14165e-09)
(4.44706e-09 -4.79098e-07 4.30065e-09)
(3.69341e-08 -9.95708e-07 8.0943e-09)
(8.18299e-08 -1.32713e-06 9.80269e-09)
(1.34057e-07 -1.55558e-06 1.11474e-08)
(1.88369e-07 -1.717e-06 1.27729e-08)
(2.40452e-07 -1.83147e-06 1.4874e-08)
(2.86143e-07 -1.91293e-06 1.75121e-08)
(3.21072e-07 -1.96962e-06 2.07733e-08)
(3.41254e-07 -2.00677e-06 2.45277e-08)
(3.42894e-07 -2.02843e-06 2.88509e-08)
(3.23168e-07 -2.03813e-06 3.33639e-08)
(2.81279e-07 -2.03961e-06 3.7672e-08)
(2.18247e-07 -2.03708e-06 4.14253e-08)
(1.38492e-07 -2.03312e-06 4.44363e-08)
(4.84967e-08 -2.0313e-06 4.61209e-08)
(-4.59347e-08 -2.03144e-06 4.62874e-08)
(-1.36395e-07 -2.03285e-06 4.46437e-08)
(-2.1577e-07 -2.03692e-06 4.16904e-08)
(-2.78943e-07 -2.04164e-06 3.81712e-08)
(-3.21002e-07 -2.03976e-06 3.36708e-08)
(-3.40749e-07 -2.02908e-06 2.90529e-08)
(-3.39609e-07 -2.00692e-06 2.45711e-08)
(-3.19942e-07 -1.96996e-06 2.05662e-08)
(-2.85247e-07 -1.91347e-06 1.72096e-08)
(-2.39736e-07 -1.83124e-06 1.4513e-08)
(-1.87686e-07 -1.71529e-06 1.24592e-08)
(-1.33461e-07 -1.55318e-06 1.09481e-08)
(-8.14785e-08 -1.32499e-06 9.69557e-09)
(-3.68147e-08 -9.93932e-07 8.05744e-09)
(-4.38837e-09 -4.79488e-07 4.36244e-09)
(3.47928e-09 -5.15202e-07 3.13537e-09)
(2.82292e-08 -1.06872e-06 5.86422e-09)
(6.2068e-08 -1.4235e-06 7.17537e-09)
(1.01699e-07 -1.66952e-06 8.21556e-09)
(1.43052e-07 -1.84551e-06 9.4044e-09)
(1.82792e-07 -1.97276e-06 1.10349e-08)
(2.17706e-07 -2.06571e-06 1.32077e-08)
(2.44531e-07 -2.13338e-06 1.60075e-08)
(2.60545e-07 -2.18105e-06 1.92255e-08)
(2.62407e-07 -2.21194e-06 2.27553e-08)
(2.47327e-07 -2.23006e-06 2.61993e-08)
(2.15058e-07 -2.24063e-06 2.96485e-08)
(1.67233e-07 -2.24673e-06 3.2982e-08)
(1.06633e-07 -2.24859e-06 3.5485e-08)
(3.76001e-08 -2.2492e-06 3.67714e-08)
(-3.48459e-08 -2.24857e-06 3.66659e-08)
(-1.04498e-07 -2.24681e-06 3.52702e-08)
(-1.65363e-07 -2.24543e-06 3.27744e-08)
(-2.13664e-07 -2.24298e-06 2.9771e-08)
(-2.45526e-07 -2.23196e-06 2.6194e-08)
(-2.60279e-07 -2.21241e-06 2.25749e-08)
(-2.59055e-07 -2.18075e-06 1.90682e-08)
(-2.43666e-07 -2.13333e-06 1.5906e-08)
(-2.16919e-07 -2.06577e-06 1.32209e-08)
(-1.82178e-07 -1.97209e-06 1.10736e-08)
(-1.42617e-07 -1.84408e-06 9.46596e-09)
(-1.01451e-07 -1.6684e-06 8.31208e-09)
(-6.19305e-08 -1.42325e-06 7.3674e-09)
(-2.79523e-08 -1.0683e-06 6.11856e-09)
(-3.34184e-09 -5.16089e-07 3.28951e-09)
(2.20511e-09 -5.40975e-07 2.03673e-09)
(1.78427e-08 -1.1203e-06 3.77232e-09)
(3.91836e-08 -1.49163e-06 4.50935e-09)
(6.42473e-08 -1.74911e-06 5.04964e-09)
(9.01825e-08 -1.9348e-06 5.74727e-09)
(1.15073e-07 -2.07141e-06 6.81527e-09)
(1.36976e-07 -2.17316e-06 8.27389e-09)
(1.53743e-07 -2.24933e-06 1.01735e-08)
(1.6403e-07 -2.30524e-06 1.24102e-08)
(1.65653e-07 -2.34356e-06 1.47809e-08)
(1.56327e-07 -2.36976e-06 1.7126e-08)
(1.36184e-07 -2.38867e-06 1.95831e-08)
(1.0624e-07 -2.40169e-06 2.18624e-08)
(6.79684e-08 -2.40804e-06 2.35602e-08)
(2.42845e-08 -2.41034e-06 2.43354e-08)
(-2.14689e-08 -2.40804e-06 2.39363e-08)
(-6.57481e-08 -2.40306e-06 2.28507e-08)
(-1.04146e-07 -2.39684e-06 2.09965e-08)
(-1.34535e-07 -2.38717e-06 1.86696e-08)
(-1.54938e-07 -2.36807e-06 1.61379e-08)
(-1.64483e-07 -2.34083e-06 1.37577e-08)
(-1.63655e-07 -2.30157e-06 1.16803e-08)
(-1.53787e-07 -2.24695e-06 9.86015e-09)
(-1.3676e-07 -2.17276e-06 8.34833e-09)
(-1.14661e-07 -2.07201e-06 7.11697e-09)
(-8.95832e-08 -1.93556e-06 6.12247e-09)
(-6.36327e-08 -1.74987e-06 5.39001e-09)
(-3.88002e-08 -1.49233e-06 4.76781e-09)
(-1.75037e-08 -1.12038e-06 3.93451e-09)
(-2.1103e-09 -5.41652e-07 2.0689e-09)
(8.1313e-10 -5.54445e-07 6.42998e-10)
(6.24713e-09 -1.14683e-06 1.28197e-09)
(1.36453e-08 -1.52736e-06 1.61129e-09)
(2.254e-08 -1.79139e-06 1.82828e-09)
(3.16864e-08 -1.98242e-06 2.1137e-09)
(4.05164e-08 -2.12354e-06 2.55983e-09)
(4.85146e-08 -2.22878e-06 3.08865e-09)
(5.47151e-08 -2.30767e-06 3.62318e-09)
(5.84381e-08 -2.36728e-06 4.31365e-09)
(5.899e-08 -2.41122e-06 5.26044e-09)
(5.56556e-08 -2.44369e-06 6.24591e-09)
(4.86675e-08 -2.46753e-06 7.15676e-09)
(3.79983e-08 -2.48356e-06 7.85802e-09)
(2.44246e-08 -2.49264e-06 8.59933e-09)
(9.16567e-09 -2.49701e-06 8.95532e-09)
(-6.97191e-09 -2.49469e-06 8.66985e-09)
(-2.3167e-08 -2.48845e-06 8.31442e-09)
(-3.66738e-08 -2.47984e-06 7.63925e-09)
(-4.71664e-08 -2.46654e-06 6.67986e-09)
(-5.43244e-08 -2.44275e-06 5.73828e-09)
(-5.76714e-08 -2.40976e-06 4.87433e-09)
(-5.75118e-08 -2.36484e-06 4.11608e-09)
(-5.42067e-08 -2.30579e-06 3.41295e-09)
(-4.83362e-08 -2.22827e-06 2.84895e-09)
(-4.05537e-08 -2.12415e-06 2.43705e-09)
(-3.16069e-08 -1.98348e-06 2.09732e-09)
(-2.23752e-08 -1.79254e-06 1.83901e-09)
(-1.35877e-08 -1.52848e-06 1.62405e-09)
(-6.08446e-09 -1.14756e-06 1.3782e-09)
(-6.96915e-10 -5.5499e-07 7.38749e-10)
(-5.85418e-10 -5.54995e-07 -6.89835e-10)
(-5.43456e-09 -1.14781e-06 -1.25025e-09)
(-1.22176e-08 -1.52889e-06 -1.46796e-09)
(-1.99363e-08 -1.79317e-06 -1.65188e-09)
(-2.80223e-08 -1.98441e-06 -1.88767e-09)
(-3.58104e-08 -2.12585e-06 -2.22213e-09)
(-4.26869e-08 -2.23147e-06 -2.65769e-09)
(-4.81111e-08 -2.31069e-06 -3.19824e-09)
(-5.12779e-08 -2.37028e-06 -3.87928e-09)
(-5.14442e-08 -2.41384e-06 -4.63468e-09)
(-4.82344e-08 -2.44616e-06 -5.57784e-09)
(-4.1901e-08 -2.46997e-06 -6.6198e-09)
(-3.29928e-08 -2.48568e-06 -7.48795e-09)
(-2.15183e-08 -2.49504e-06 -7.82811e-09)
(-7.6679e-09 -2.49932e-06 -7.85885e-09)
(7.1867e-09 -2.49674e-06 -7.7509e-09)
(2.07973e-08 -2.49135e-06 -7.23357e-09)
(3.33902e-08 -2.48301e-06 -6.60264e-09)
(4.302e-08 -2.46905e-06 -6.05141e-09)
(4.89073e-08 -2.44512e-06 -5.1815e-09)
(5.19839e-08 -2.41216e-06 -4.26478e-09)
(5.19391e-08 -2.3671e-06 -3.40538e-09)
(4.90179e-08 -2.30787e-06 -2.86514e-09)
(4.36585e-08 -2.22999e-06 -2.52536e-09)
(3.65037e-08 -2.12547e-06 -2.17877e-09)
(2.85442e-08 -1.98451e-06 -1.90547e-09)
(2.02996e-08 -1.79332e-06 -1.67561e-09)
(1.2407e-08 -1.52914e-06 -1.45297e-09)
(5.65757e-09 -1.14808e-06 -1.12348e-09)
(7.31143e-10 -5.55282e-07 -5.65168e-10)
(-2.03146e-09 -5.42406e-07 -2.00995e-09)
(-1.695e-08 -1.12209e-06 -3.80721e-09)
(-3.75701e-08 -1.49483e-06 -4.62729e-09)
(-6.15308e-08 -1.753e-06 -5.24255e-09)
(-8.65908e-08 -1.93939e-06 -5.96161e-09)
(-1.10775e-07 -2.07693e-06 -6.92719e-09)
(-1.31976e-07 -2.17933e-06 -8.20153e-09)
(-1.48204e-07 -2.25547e-06 -9.86326e-09)
(-1.57689e-07 -2.31152e-06 -1.19288e-08)
(-1.58754e-07 -2.35018e-06 -1.40943e-08)
(-1.49628e-07 -2.3769e-06 -1.64892e-08)
(-1.30243e-07 -2.39612e-06 -1.90209e-08)
(-1.0187e-07 -2.4092e-06 -2.12053e-08)
(-6.54551e-08 -2.41692e-06 -2.25991e-08)
(-2.29041e-08 -2.41991e-06 -2.31374e-08)
(2.18439e-08 -2.41664e-06 -2.28253e-08)
(6.40828e-08 -2.41266e-06 -2.18013e-08)
(1.01773e-07 -2.40707e-06 -2.01453e-08)
(1.30811e-07 -2.39546e-06 -1.82809e-08)
(1.49657e-07 -2.3755e-06 -1.58702e-08)
(1.59174e-07 -2.34786e-06 -1.35772e-08)
(1.58347e-07 -2.30823e-06 -1.13591e-08)
(1.48485e-07 -2.25262e-06 -9.4485e-09)
(1.32095e-07 -2.17724e-06 -7.8562e-09)
(1.10909e-07 -2.07597e-06 -6.5561e-09)
(8.69789e-08 -1.93923e-06 -5.58649e-09)
(6.1973e-08 -1.75317e-06 -4.85033e-09)
(3.79257e-08 -1.49535e-06 -4.27727e-09)
(1.72963e-08 -1.12279e-06 -3.51861e-09)
(2.1814e-09 -5.42594e-07 -1.90303e-09)
(-3.32119e-09 -5.17449e-07 -3.19885e-09)
(-2.75054e-08 -1.07131e-06 -5.97579e-09)
(-6.08275e-08 -1.4275e-06 -7.24223e-09)
(-9.96249e-08 -1.67355e-06 -8.17854e-09)
(-1.40062e-07 -1.85007e-06 -9.30346e-09)
(-1.7898e-07 -1.979e-06 -1.08484e-08)
(-2.13178e-07 -2.07366e-06 -1.29069e-08)
(-2.39484e-07 -2.14233e-06 -1.5573e-08)
(-2.54808e-07 -2.19103e-06 -1.88181e-08)
(-2.56359e-07 -2.22273e-06 -2.22416e-08)
(-2.41663e-07 -2.24146e-06 -2.57616e-08)
(-2.10105e-07 -2.25231e-06 -2.91494e-08)
(-1.6365e-07 -2.25901e-06 -3.22744e-08)
(-1.0476e-07 -2.26253e-06 -3.46243e-08)
(-3.66927e-08 -2.26395e-06 -3.58169e-08)
(3.48457e-08 -2.26139e-06 -3.55307e-08)
(1.03054e-07 -2.25995e-06 -3.4176e-08)
(1.63602e-07 -2.25912e-06 -3.1854e-08)
(2.10522e-07 -2.25279e-06 -2.89979e-08)
(2.41513e-07 -2.24038e-06 -2.55091e-08)
(2.56695e-07 -2.22098e-06 -2.20564e-08)
(2.55628e-07 -2.18995e-06 -1.86631e-08)
(2.4015e-07 -2.14237e-06 -1.56375e-08)
(2.13763e-07 -2.07424e-06 -1.29732e-08)
(1.79407e-07 -1.98026e-06 -1.08352e-08)
(1.40316e-07 -1.85166e-06 -9.22025e-09)
(9.97096e-08 -1.67481e-06 -7.91445e-09)
(6.10103e-08 -1.42867e-06 -6.90645e-09)
(2.78363e-08 -1.0725e-06 -5.65173e-09)
(3.48165e-09 -5.17343e-07 -3.04538e-09)
(-4.42377e-09 -4.81439e-07 -4.22298e-09)
(-3.65542e-08 -9.98219e-07 -7.88043e-09)
(-8.06927e-08 -1.33066e-06 -9.58108e-09)
(-1.32163e-07 -1.5598e-06 -1.08675e-08)
(-1.85835e-07 -1.72285e-06 -1.23693e-08)
(-2.37443e-07 -1.83978e-06 -1.4403e-08)
(-2.82646e-07 -1.923e-06 -1.70734e-08)
(-3.17138e-07 -1.98057e-06 -2.0377e-08)
(-3.36901e-07 -2.01876e-06 -2.42908e-08)
(-3.38443e-07 -2.04164e-06 -2.85545e-08)
(-3.18976e-07 -2.05237e-06 -3.30607e-08)
(-2.77453e-07 -2.0545e-06 -3.72769e-08)
(-2.15487e-07 -2.05285e-06 -4.09547e-08)
(-1.3714e-07 -2.05085e-06 -4.39111e-08)
(-4.75657e-08 -2.05028e-06 -4.56832e-08)
(4.60836e-08 -2.0487e-06 -4.55409e-08)
(1.35598e-07 -2.05016e-06 -4.38789e-08)
(2.15288e-07 -2.05464e-06 -4.0912e-08)
(2.77533e-07 -2.05546e-06 -3.72387e-08)
(3.18662e-07 -2.05193e-06 -3.31117e-08)
(3.38285e-07 -2.04097e-06 -2.864e-08)
(3.37304e-07 -2.01885e-06 -2.42427e-08)
(3.17669e-07 -1.98114e-06 -2.04805e-08)
(2.83187e-07 -1.92355e-06 -1.72856e-08)
(2.37936e-07 -1.84072e-06 -1.47132e-08)
(1.86308e-07 -1.72477e-06 -1.27016e-08)
(1.32555e-07 -1.56281e-06 -1.10455e-08)
(8.09134e-08 -1.33442e-06 -9.68138e-09)
(3.66039e-08 -1.00137e-06 -7.95087e-09)
(4.42232e-09 -4.81536e-07 -4.22832e-09)
(-5.2148e-09 -4.36491e-07 -5.12609e-09)
(-4.36324e-08 -9.07243e-07 -9.5761e-09)
(-9.65721e-08 -1.20989e-06 -1.15838e-08)
(-1.58262e-07 -1.41766e-06 -1.30915e-08)
(-2.22415e-07 -1.56386e-06 -1.48174e-08)
(-2.83902e-07 -1.6665e-06 -1.71094e-08)
(-3.37461e-07 -1.73682e-06 -2.00449e-08)
(-3.78014e-07 -1.78237e-06 -2.36673e-08)
(-4.0084e-07 -1.80907e-06 -2.79924e-08)
(-4.01969e-07 -1.82145e-06 -3.28031e-08)
(-3.78465e-07 -1.82336e-06 -3.78908e-08)
(-3.2922e-07 -1.81803e-06 -4.26944e-08)
(-2.55527e-07 -1.80895e-06 -4.67075e-08)
(-1.62029e-07 -1.80039e-06 -4.98169e-08)
(-5.58456e-08 -1.79635e-06 -5.1838e-08)
(5.45517e-08 -1.7952e-06 -5.18087e-08)
(1.60364e-07 -1.79988e-06 -5.01098e-08)
(2.54597e-07 -1.81024e-06 -4.69694e-08)
(3.28603e-07 -1.81875e-06 -4.27208e-08)
(3.78006e-07 -1.82372e-06 -3.79429e-08)
(4.01775e-07 -1.82168e-06 -3.28476e-08)
(4.01053e-07 -1.80949e-06 -2.79476e-08)
(3.78347e-07 -1.78299e-06 -2.36484e-08)
(3.37874e-07 -1.73752e-06 -1.99876e-08)
(2.84326e-07 -1.66745e-06 -1.70681e-08)
(2.22857e-07 -1.56563e-06 -1.4877e-08)
(1.58777e-07 -1.42086e-06 -1.3157e-08)
(9.70588e-08 -1.21413e-06 -1.16103e-08)
(4.39361e-08 -9.10654e-07 -9.58283e-09)
(5.28271e-09 -4.36511e-07 -5.11155e-09)
(-5.80651e-09 -3.84498e-07 -5.80347e-09)
(-4.87903e-08 -8.01725e-07 -1.08362e-08)
(-1.08112e-07 -1.07019e-06 -1.30648e-08)
(-1.77026e-07 -1.25382e-06 -1.46487e-08)
(-2.48587e-07 -1.38152e-06 -1.63987e-08)
(-3.17034e-07 -1.46891e-06 -1.8737e-08)
(-3.76386e-07 -1.52593e-06 -2.17982e-08)
(-4.20982e-07 -1.55949e-06 -2.55997e-08)
(-4.45603e-07 -1.57508e-06 -3.00918e-08)
(-4.4598e-07 -1.57729e-06 -3.50628e-08)
(-4.19229e-07 -1.57035e-06 -4.02393e-08)
(-3.64339e-07 -1.55822e-06 -4.51665e-08)
(-2.82654e-07 -1.54398e-06 -4.9387e-08)
(-1.79028e-07 -1.53051e-06 -5.24555e-08)
(-6.16569e-08 -1.52292e-06 -5.42667e-08)
(6.0038e-08 -1.52191e-06 -5.40986e-08)
(1.77153e-07 -1.52927e-06 -5.24673e-08)
(2.81296e-07 -1.54371e-06 -4.94019e-08)
(3.63397e-07 -1.55813e-06 -4.50792e-08)
(4.18581e-07 -1.57051e-06 -4.02249e-08)
(4.45631e-07 -1.57751e-06 -3.50713e-08)
(4.45583e-07 -1.5755e-06 -3.00836e-08)
(4.21155e-07 -1.56006e-06 -2.55993e-08)
(3.76725e-07 -1.52662e-06 -2.17733e-08)
(3.17494e-07 -1.46975e-06 -1.87188e-08)
(2.49098e-07 -1.38265e-06 -1.64311e-08)
(1.77477e-07 -1.2557e-06 -1.47225e-08)
(1.08382e-07 -1.07294e-06 -1.31386e-08)
(4.89026e-08 -8.04244e-07 -1.08794e-08)
(5.78169e-09 -3.84546e-07 -5.80781e-09)
(-6.15656e-09 -3.28009e-07 -6.16086e-09)
(-5.18755e-08 -6.86404e-07 -1.14431e-08)
(-1.15096e-07 -9.18116e-07 -1.3762e-08)
(-1.8837e-07 -1.07606e-06 -1.54115e-08)
(-2.64376e-07 -1.18445e-06 -1.72172e-08)
(-3.36925e-07 -1.25645e-06 -1.95712e-08)
(-3.99603e-07 -1.30064e-06 -2.26162e-08)
(-4.46365e-07 -1.32321e-06 -2.63733e-08)
(-4.71706e-07 -1.32918e-06 -3.07751e-08)
(-4.71224e-07 -1.323e-06 -3.56115e-08)
(-4.42105e-07 -1.30889e-06 -4.0579e-08)
(-3.83566e-07 -1.29095e-06 -4.52914e-08)
(-2.97293e-07 -1.2725e-06 -4.94083e-08)
(-1.88279e-07 -1.25633e-06 -5.2318e-08)
(-6.48326e-08 -1.24686e-06 -5.39186e-08)
(6.30528e-08 -1.24634e-06 -5.38001e-08)
(1.86362e-07 -1.25563e-06 -5.23704e-08)
(2.95749e-07 -1.27244e-06 -4.94387e-08)
(3.82474e-07 -1.29107e-06 -4.52862e-08)
(4.41341e-07 -1.30913e-06 -4.06199e-08)
(4.7077e-07 -1.32329e-06 -3.56539e-08)
(4.71543e-07 -1.3296e-06 -3.0805e-08)
(4.46412e-07 -1.32376e-06 -2.64021e-08)
(3.99812e-07 -1.30133e-06 -2.26339e-08)
(3.37242e-07 -1.25729e-06 -1.95932e-08)
(2.64745e-07 -1.18546e-06 -1.72708e-08)
(1.88659e-07 -1.0774e-06 -1.55622e-08)
(1.15193e-07 -9.19961e-07 -1.40178e-08)
(5.18765e-08 -6.88391e-07 -1.16751e-08)
(6.09053e-09 -3.28e-07 -6.22662e-09)
(-6.26703e-09 -2.69288e-07 -6.2944e-09)
(-5.28907e-08 -5.66489e-07 -1.16898e-08)
(-1.17425e-07 -7.60157e-07 -1.40294e-08)
(-1.92297e-07 -8.91726e-07 -1.5661e-08)
(-2.70003e-07 -9.80674e-07 -1.74195e-08)
(-3.44117e-07 -1.0378e-06 -1.96792e-08)
(-4.07982e-07 -1.07029e-06 -2.25713e-08)
(-4.55361e-07 -1.08351e-06 -2.61228e-08)
(-4.80654e-07 -1.08198e-06 -3.02577e-08)
(-4.79463e-07 -1.06984e-06 -3.47625e-08)
(-4.49059e-07 -1.05108e-06 -3.93497e-08)
(-3.88838e-07 -1.02956e-06 -4.37368e-08)
(-3.00972e-07 -1.00855e-06 -4.75354e-08)
(-1.90742e-07 -9.91462e-07 -5.02025e-08)
(-6.58212e-08 -9.81661e-07 -5.16054e-08)
(6.38324e-08 -9.8139e-07 -5.15528e-08)
(1.88631e-07 -9.91038e-07 -5.02577e-08)
(2.99367e-07 -1.00863e-06 -4.7515e-08)
(3.8779e-07 -1.02967e-06 -4.37046e-08)
(4.48287e-07 -1.05122e-06 -3.93916e-08)
(4.78934e-07 -1.07004e-06 -3.48165e-08)
(4.80391e-07 -1.08231e-06 -3.03025e-08)
(4.55312e-07 -1.08396e-06 -2.61641e-08)
(4.08085e-07 -1.07085e-06 -2.2602e-08)
(3.44311e-07 -1.03848e-06 -1.9709e-08)
(2.70252e-07 -9.81468e-07 -1.74616e-08)
(1.92514e-07 -8.92655e-07 -1.57573e-08)
(1.17541e-07 -7.61321e-07 -1.42184e-08)
(5.29185e-08 -5.67902e-07 -1.18689e-08)
(6.23712e-09 -2.69228e-07 -6.33744e-09)
(-6.17375e-09 -2.10388e-07 -6.13705e-09)
(-5.19282e-08 -4.46577e-07 -1.14274e-08)
(-1.15336e-07 -6.02088e-07 -1.37447e-08)
(-1.89216e-07 -7.07478e-07 -1.53177e-08)
(-2.66111e-07 -7.77584e-07 -1.69699e-08)
(-3.39556e-07 -8.20861e-07 -1.90629e-08)
(-4.02827e-07 -8.43149e-07 -2.17339e-08)
(-4.49625e-07 -8.48971e-07 -2.50003e-08)
(-4.74388e-07 -8.42272e-07 -2.87839e-08)
(-4.72782e-07 -8.2672e-07 -3.28809e-08)
(-4.42179e-07 -8.05913e-07 -3.70514e-08)
(-3.82228e-07 -7.83227e-07 -4.10496e-08)
(-2.95598e-07 -7.62013e-07 -4.44444e-08)
(-1.87451e-07 -7.45653e-07 -4.68269e-08)
(-6.47779e-08 -7.36558e-07 -4.80762e-08)
(6.27982e-08 -7.362e-07 -4.80393e-08)
(1.85242e-07 -7.45096e-07 -4.68187e-08)
(2.93953e-07 -7.61941e-07 -4.43708e-08)
(3.81149e-07 -7.83206e-07 -4.09674e-08)
(4.41349e-07 -8.05945e-07 -3.70584e-08)
(4.72167e-07 -8.26853e-07 -3.29292e-08)
(4.74036e-07 -8.42522e-07 -2.88277e-08)
(4.49504e-07 -8.49324e-07 -2.50406e-08)
(4.02857e-07 -8.43585e-07 -2.17631e-08)
(3.3968e-07 -8.21376e-07 -1.90895e-08)
(2.66299e-07 -7.78178e-07 -1.69973e-08)
(1.89413e-07 -7.08149e-07 -1.53603e-08)
(1.15491e-07 -6.02853e-07 -1.38333e-08)
(5.19436e-08 -4.47495e-07 -1.15552e-08)
(6.13545e-09 -2.10452e-07 -6.17996e-09)
(-5.81295e-09 -1.53752e-07 -5.71567e-09)
(-4.888e-08 -3.3127e-07 -1.0695e-08)
(-1.08916e-07 -4.49857e-07 -1.28716e-08)
(-1.79404e-07 -5.30015e-07 -1.42905e-08)
(-2.53238e-07 -5.82275e-07 -1.57698e-08)
(-3.24101e-07 -6.12959e-07 -1.76422e-08)
(-3.85326e-07 -6.2665e-07 -2.00508e-08)
(-4.30646e-07 -6.27023e-07 -2.29873e-08)
(-4.54629e-07 -6.17354e-07 -2.6386e-08)
(-4.53083e-07 -6.00752e-07 -3.00518e-08)
(-4.23462e-07 -5.80224e-07 -3.38196e-08)
(-3.65671e-07 -5.58674e-07 -3.73893e-08)
(-2.8269e-07 -5.39197e-07 -4.04077e-08)
(-1.79238e-07 -5.24438e-07 -4.2543e-08)
(-6.1988e-08 -5.16439e-07 -4.37017e-08)
(6.00588e-08 -5.16097e-07 -4.36625e-08)