/*--------------------------------*- C++ -*----------------------------------*\
| =========                 |                                                 |
| \\      /  F ield         | OpenFOAM: The Open Source CFD Toolbox           |
|  \\    /   O peration     | Version:  v1906                                 |
|   \\  /    A nd           | Web:      www.OpenFOAM.com                      |
|    \\/     M anipulation  |                                                 |
\*---------------------------------------------------------------------------*/
FoamFile
{
    version     2.0;
    format      ascii;
    class       volScalarField;
    location    "14";
    object      omega;
}
// * * * * * * * * * * * * * * * * * * * * * * * * * * * * * * * * * * * * * //

dimensions      [0 0 -1 0 0 0 0];


internalField   nonuniform List<scalar> 
78750
(
361.166
13.9847
14.5208
14.4221
14.4752
14.4961
14.5229
14.548
14.572
14.594
14.6123
14.6255
14.6335
14.6364
14.6347
14.6284
14.6176
14.602
14.5815
14.5556
14.5241
14.4865
14.4424
14.3918
14.3349
14.2727
14.2072
14.1422
14.0806
14.024
13.9718
13.9225
13.8675
13.7887
355.608
527.58
5.13758
5.38557
5.53306
5.62872
5.69691
5.74868
5.793
5.83449
5.87248
5.90376
5.92656
5.94072
5.94652
5.94423
5.93372
5.91451
5.88636
5.84837
5.79981
5.73961
5.66679
5.58039
5.47943
5.3635
5.23396
5.09608
4.96274
4.85367
4.77964
4.71893
4.63336
4.52002
4.39332
522.42
527.857
5.26509
5.46329
5.50923
5.53601
5.57333
5.61788
5.66971
5.72988
5.79303
5.85131
5.90036
5.93954
5.96953
5.99106
6.00461
6.0103
6.00788
5.99671
5.97558
5.94264
5.89526
5.82973
5.74101
5.62261
5.46715
5.26919
5.03316
4.79128
4.61943
4.58845
4.64661
4.66647
4.5736
523.115
528.245
5.21863
5.2319
5.20499
5.20131
5.19963
5.20585
5.25618
5.37687
5.54152
5.69696
5.81826
5.90621
5.9687
6.0123
6.04123
6.05823
6.06511
6.06303
6.05259
6.03387
6.00656
5.96955
5.92045
5.85495
5.76574
5.64124
5.46498
5.21988
4.91215
4.61848
4.46391
4.45697
4.4423
523.38
527.96
5.0416
5.0734
5.02333
4.89316
4.68699
4.4554
4.37956
4.62634
5.04276
5.42052
5.68784
5.85855
5.96609
6.03468
6.07814
6.10354
6.11426
6.11181
6.09665
6.06859
6.02693
5.97031
5.89677
5.80375
5.68832
5.54882
5.38694
5.20382
4.98748
4.74651
4.57387
4.53527
4.52038
523.796
527.66
4.77268
4.82296
4.78477
4.66468
4.46873
4.31543
4.44643
4.86299
5.31161
5.64401
5.85111
5.97527
6.05251
6.10311
6.13685
6.15819
6.16883
6.16917
6.15855
6.13597
6.10019
6.04868
5.97743
5.8804
5.74986
5.57935
5.37648
5.17282
4.9739
4.73418
4.51318
4.46768
4.53159
523.84
527.578
4.66086
4.70738
4.62544
4.41183
4.23127
4.38362
4.84114
5.30285
5.61666
5.80107
5.91501
5.99498
6.05633
6.10398
6.13908
6.16132
6.16927
6.16207
6.13892
6.09836
6.03778
5.95294
5.83617
5.67371
5.44463
5.12681
4.73308
4.37929
4.24648
4.30272
4.39316
4.47252
4.51807
524.425
527.633
4.50767
4.41518
4.2398
4.14522
4.38836
4.87899
5.33552
5.63954
5.82823
5.95414
6.04465
6.11232
6.16399
6.20361
6.23294
6.2517
6.25908
6.25429
6.23631
6.20359
6.15369
6.0828
5.9857
5.85145
5.6606
5.37979
4.98156
4.5184
4.19722
4.17359
4.30409
4.40367
4.42026
524.793
527.633
4.52284
4.46404
4.37976
4.45901
4.80139
5.21098
5.51334
5.70334
5.8229
5.90458
5.96898
6.02742
6.08257
6.13225
6.17236
6.19914
6.2108
6.20619
6.18418
6.14304
6.08013
5.99204
5.87613
5.73028
5.55707
5.35813
5.11293
4.78264
4.40656
4.18463
4.22011
4.33138
4.37599
525.232
527.597
4.45484
4.37648
4.32362
4.48887
4.85466
5.23546
5.52208
5.71479
5.8463
5.9466
6.0337
6.11413
6.18584
6.24608
6.29193
6.32236
6.33733
6.33668
6.31971
6.28488
6.2292
6.14749
6.0316
5.87248
5.66271
5.40987
5.14147
4.87364
4.59189
4.34597
4.25476
4.30488
4.36212
525.504
527.596
4.50013
4.54078
4.692
5.01357
5.37453
5.63363
5.77251
5.83628
5.8713
5.9111
5.96802
6.03599
6.1037
6.16296
6.20792
6.23693
6.24954
6.2453
6.22339
6.18211
6.11831
6.02652
5.89852
5.72422
5.49237
5.2027
4.88569
4.60178
4.39639
4.28281
4.26334
4.31608
4.36121
525.818
527.616
4.65865
4.81734
5.03815
5.29862
5.49337
5.6
5.64977
5.68703
5.7461
5.83928
5.95574
6.07429
6.17927
6.26394
6.32677
6.36943
6.39341
6.39934
6.38692
6.3548
6.30027
6.21839
6.1005
5.93314
5.70111
5.39025
5.01583
4.64402
4.37318
4.2613
4.2682
4.31896
4.33921
526.335
527.639
4.76573
4.95907
5.15413
5.34615
5.48181
5.56413
5.61224
5.64495
5.68827
5.76324
5.86897
5.9849
6.09117
6.17816
6.24381
6.29007
6.31896
6.33168
6.32871
6.30974
6.27357
6.21793
6.13898
6.02979
5.87681
5.65534
5.34124
4.94942
4.5684
4.33054
4.28074
4.3135
4.31751
526.82
527.63
4.80078
5.00774
5.19607
5.36857
5.47301
5.50888
5.4993
5.47885
5.5005
5.59978
5.76038
5.9352
6.08999
6.21085
6.29937
6.36093
6.39978
6.41866
6.41916
6.402
6.36706
6.31332
6.23891
6.1417
6.02034
5.86924
5.66884
5.38995
5.03099
4.67041
4.43895
4.35356
4.31513
526.808
527.579
4.7761
4.97282
5.13487
5.27944
5.35224
5.34838
5.30142
5.2717
5.31601
5.4604
5.66819
5.87738
6.05219
6.18338
6.27642
6.33967
6.37933
6.3992
6.40157
6.38754
6.35718
6.3094
6.24175
6.15056
6.03311
5.88699
5.71169
5.50591
5.25928
4.97203
4.70199
4.51313
4.38961
526.546
527.51
4.71563
4.9068
5.04969
5.16635
5.21721
5.19594
5.14024
5.1259
5.22636
5.44452
5.70461
5.93718
6.11703
6.24515
6.33293
6.39039
6.4242
6.4385
6.43581
6.41753
6.38401
6.33457
6.2675
6.18014
6.07022
5.93505
5.76796
5.56316
5.32008
5.05153
4.7976
4.59676
4.44614
526.543
527.452
4.63137
4.81421
4.93759
5.02015
5.03056
4.96184
4.90157
4.98764
5.24465
5.56918
5.85554
6.06791
6.21496
6.31371
6.3784
6.41812
6.43819
6.44157
6.42977
6.40308
6.36076
6.30095
6.22059
6.11612
5.98682
5.83413
5.66373
5.48298
5.2891
5.07434
4.85431
4.65642
4.49239
526.565
527.431
4.57013
4.72338
4.80433
4.81773
4.76025
4.73593
4.90665
5.2589
5.64143
5.93849
6.13226
6.25588
6.33773
6.39408
6.43229
6.4555
6.46491
6.46104
6.44377
6.41241
6.3655
6.30041
6.21306
6.09858
5.95452
5.77849
5.57306
5.35237
5.13777
4.944
4.78233
4.63565
4.49329
526.932
527.449
4.51984
4.6225
4.65071
4.63553
4.68983
4.94486
5.33625
5.68987
5.92485
6.06807
6.16731
6.24906
6.32009
6.37752
6.41924
6.44504
6.45532
6.45042
6.43029
6.39418
6.34033
6.26563
6.16557
6.03588
5.87755
5.69239
5.48747
5.27447
5.06789
4.88539
4.73951
4.61213
4.4856
527.447
527.488
4.49295
4.5697
4.6203
4.73729
5.01407
5.38622
5.69354
5.89557
6.03545
6.1495
6.24853
6.33214
6.39683
6.44311
6.47314
6.48867
6.49064
6.47911
6.4534
6.41186
6.35157
6.26779
6.15391
6.00324
5.81506
5.59257
5.35341
5.12732
4.93891
4.79768
4.68375
4.57858
4.4683
528.077
527.527
4.51613
4.61454
4.74003
4.96665
5.27942
5.56597
5.76952
5.91143
6.01724
6.10407
6.18148
6.25364
6.31883
6.37263
6.41322
6.44017
6.45336
6.45241
6.43649
6.40395
6.35197
6.27601
6.16947
6.02445
5.83541
5.59895
5.32769
5.06016
4.84615
4.71166
4.62037
4.53705
4.44287
528.628
527.555
4.57657
4.71636
4.89588
5.14758
5.41814
5.63801
5.78815
5.89106
5.97514
6.06078
6.15302
6.24532
6.32682
6.39128
6.43823
6.46898
6.48467
6.48578
6.47209
6.44245
6.39459
6.32479
6.2276
6.09595
5.92236
5.69776
5.42001
5.11642
4.84837
4.67319
4.57661
4.50347
4.41965
528.901
527.56
4.63203
4.79764
4.98504
5.21517
5.4337
5.60111
5.7088
5.77877
5.84126
5.91907
6.016
6.12054
6.21945
6.30102
6.36309
6.40703
6.43456
6.44665
6.44353
6.42452
6.38796
6.33105
6.24985
6.1394
5.99375
5.80295
5.55388
5.25098
4.93968
4.69766
4.5623
4.48134
4.40224
529.006
527.532
4.65654
4.83447
5.01541
5.2303
5.41342
5.53713
5.60608
5.64386
5.68972
5.77633
5.90334
6.04429
6.17526
6.28083
6.3595
6.41482
6.45041
6.46867
6.47081
6.45699
6.42633
6.37691
6.3059
6.21
6.08604
5.92816
5.72149
5.45451
5.14075
4.84188
4.63551
4.50985
4.41041
528.969
527.487
4.6539
4.83432
4.99977
5.19002
5.33946
5.42228
5.45106
5.46399
5.51446
5.63487
5.80297
5.97402
6.12158
6.23685
6.32112
6.37964
6.41728
6.43734
6.44168
6.43087
6.40445
6.36092
6.29805
6.21357
6.10632
5.9725
5.80077
5.57882
5.30287
5.00255
4.74904
4.57097
4.43667
528.846
527.455
4.62808
4.82051
4.98229
5.14301
5.25744
5.30089
5.29583
5.31501
5.42111
5.60984
5.82029
6.00495
6.15165
6.26249
6.34283
6.39843
6.43389
6.45225
6.4552
6.4433
6.41613
6.37241
6.31048
6.22937
6.12988
6.01038
5.86173
5.67081
5.42845
5.14605
4.87257
4.6511
4.47869
528.604
527.455
4.6132
4.80688
4.9538
5.07516
5.14123
5.14127
5.13541
5.22973
5.43355
5.67472
5.88654
6.05072
6.17568
6.27055
6.34028
6.38879
6.41924
6.43383
6.43377
6.41921
6.3894
6.34273
6.27751
6.19371
6.0946
5.97843
5.83823
5.66377
5.44661
5.19091
4.93005
4.69682
4.5051
528.356
527.468
4.5979
4.77594
4.89836
4.98124
5.00918
5.00825
5.0751
5.2701
5.52263
5.75328
5.93559
6.07638
6.18794
6.27621
6.34261
6.38916
6.41826
6.43179
6.43077
6.41529
6.38453
6.33703
6.27168
6.18995
6.09698
5.992
5.86684
5.70729
5.50073
5.2506
4.98921
4.74587
4.53662
528.245
527.483
4.57242
4.72377
4.81773
4.86904
4.88644
4.93386
5.09473
5.347
5.60025
5.80926
5.97154
6.09765
6.19815
6.27766
6.3372
6.37831
6.40283
6.41208
6.40656
6.38577
6.3482
6.29171
6.21535
6.12306
6.02325
5.9189
5.80626
5.67148
5.49619
5.27363
5.02817
4.78846
4.56774
528.255
527.488
4.53894
4.6622
4.73525
4.77747
4.82233
4.93802
5.16215
5.42524
5.65851
5.84233
5.98347
6.09454
6.18602
6.26198
6.32112
6.36312
6.38888
6.39934
6.3948
6.37451
6.33666
6.27881
6.20009
6.10534
6.00219
5.89458
5.78072
5.65014
5.48776
5.28613
5.05642
4.82581
4.59962
528.41
527.475
4.50111
4.60496
4.66856
4.71961
4.80221
4.96265
5.2039
5.45325
5.66566
5.83379
5.9659
6.07263
6.16225
6.23804
6.29727
6.33883
6.36342
6.37199
6.36475
6.34072
6.29768
6.23293
6.14653
6.04675
5.94277
5.84199
5.74355
5.63437
5.49567
5.31662
5.0976
4.87106
4.64189
528.61
527.453
4.47641
4.57582
4.64561
4.72251
4.84677
5.04136
5.28885
5.52474
5.71938
5.87067
5.98778
6.08181
6.16183
6.23146
6.28716
6.32646
6.34908
6.35549
6.34557
6.31787
6.26953
6.19731
6.10207
5.99436
5.88314
5.7785
5.68466
5.59325
5.48464
5.33444
5.1294
4.91035
4.68511
528.896
527.429
4.46665
4.57452
4.65934
4.76396
4.9155
5.12062
5.35188
5.56054
5.7287
5.85901
5.9616
6.04701
6.12322
6.19327
6.2509
6.29136
6.31346
6.3177
6.30409
6.271
6.21512
6.13363
6.03127
5.92148
5.81596
5.72236
5.64136
5.56715
5.48419
5.35755
5.16719
4.95751
4.73993
529.247
527.41
4.47632
4.60207
4.70897
4.84596
5.0233
5.23869
5.45735
5.64492
5.79261
5.90588
5.99485
6.06952
6.13771
6.20072
6.25167
6.28493
6.29862
6.29289
6.26728
6.21907
6.14309
6.03672
5.91257
5.79161
5.69228
5.62189
5.5747
5.53773
5.48317
5.37317
5.19308
4.99467
4.79193
529.659
527.402
4.50019
4.64725
4.77822
4.94588
5.14213
5.35558
5.55174
5.70905
5.82654
5.91319
5.98074
6.04033
6.09931
6.15867
6.2083
6.2391
6.24707
6.23191
6.19278
6.12501
6.02033
5.87898
5.72935
5.60448
5.52536
5.49197
5.4923
5.50045
5.47282
5.37586
5.20697
5.01951
4.82937
530.154
527.409
4.54086
4.71253
4.8704
5.0673
5.27766
5.48211
5.65353
5.78166
5.87197
5.93612
5.98728
6.0364
6.08951
6.14521
6.19109
6.21575
6.21338
6.18276
6.12192
6.02186
5.86913
5.67358
5.48992
5.37378
5.34348
5.37474
5.4315
5.46855
5.44978
5.35627
5.20129
5.0201
4.82861
530.672
527.434
4.59658
4.79069
4.97091
5.18747
5.3987
5.58085
5.71952
5.81316
5.87116
5.90743
5.93657
5.97084
6.01639
6.07123
6.12216
6.15249
6.15168
6.11566
6.04082
5.91329
5.71368
5.46055
5.23424
5.1205
5.14631
5.25569
5.35937
5.40599
5.38411
5.29423
5.15482
4.97753
4.7731
531.161
527.472
4.65819
4.86602
5.05901
5.28743
5.49449
5.6545
5.76447
5.83051
5.86355
5.877
5.88573
5.90346
5.93861
5.99105
6.05223
6.10296
6.12648
6.11248
6.05537
5.94313
5.75038
5.46969
5.1654
4.94737
4.90541
5.02812
5.18871
5.27298
5.26173
5.18001
5.05343
4.88519
4.67914
531.513
527.508
4.70882
4.92413
5.12123
5.35009
5.55142
5.69618
5.78502
5.82918
5.84073
5.83102
5.8124
5.79916
5.80524
5.83925
5.89987
5.97559
6.04592
6.09041
6.09681
6.05602
5.95004
5.74447
5.42783
5.06676
4.77263
4.65765
4.73911
4.90356
5.01212
5.01165
4.92871
4.78766
4.59428
531.71
527.518
4.73219
4.96505
5.16546
5.37738
5.57049
5.71462
5.80618
5.85324
5.86619
5.85397
5.82348
5.7815
5.73885
5.71306
5.72271
5.77526
5.86107
5.95816
6.04279
6.10092
6.12398
6.09621
5.98
5.72967
5.3638
4.96468
4.63926
4.48301
4.49869
4.58797
4.64362
4.61966
4.51055
531.825
527.499
4.72986
4.99263
5.19892
5.38815
5.56249
5.70127
5.79748
5.85391
5.8773
5.87493
5.85304
5.81605
5.76667
5.70824
5.65162
5.62078
5.64063
5.7121
5.8083
5.89951
5.97663
6.04296
6.09708
6.11875
6.06115
5.86966
5.53652
5.1349
4.77529
4.55254
4.4832
4.47839
4.44424
531.677
527.467
4.71534
5.00426
5.21515
5.38728
5.54011
5.66638
5.76051
5.82233
5.85511
5.86364
5.85282
5.82666
5.78799
5.73927
5.68554
5.63898
5.62052
5.65123
5.7314
5.82721
5.905
5.95774
5.98979
6.00659
6.02106
6.03736
6.02187
5.91004
5.65386
5.29155
4.94549
4.70096
4.53586
530.639
527.43
4.68626
4.9883
5.20069
5.36148
5.49728
5.61008
5.69729
5.7582
5.79399
5.8066
5.79825
5.7705
5.72451
5.66393
5.60037
5.55579
5.55471
5.60852
5.70407
5.80937
5.90022
5.97412
6.03351
6.075
6.09064
6.07483
6.03178
5.97243
5.88759
5.72546
5.43881
5.0756
4.73817
528.979
527.395
4.65393
4.95282
5.154
5.29976
5.41765
5.51403
5.59019
5.64383
5.67218
5.6726
5.64389
5.5897
5.5247
5.47163
5.45294
5.48264
5.56208
5.67642
5.79678
5.89838
5.97683
6.03643
6.07914
6.10619
6.11899
6.11684
6.09319
6.03928
5.94955
5.81231
5.59046
5.25236
4.87825
527.726
527.373
4.62711
4.90472
5.08579
5.21712
5.32191
5.40206
5.4525
5.46362
5.43035
5.36585
5.30602
5.28254
5.3087
5.38536
5.5023
5.64099
5.78063
5.8953
5.97509
6.02634
6.05672
6.07401
6.08744
6.10487
6.1269
6.14052
6.12391
6.06032
5.94627
5.78471
5.56639
5.26255
4.916
527.529
527.376
4.6414
4.90028
5.04759
5.13282
5.17362
5.16411
5.10776
5.05261
5.05448
5.12862
5.26382
5.43392
5.61026
5.77452
5.90615
5.98745
6.02323
6.02349
6.00055
5.96962
5.94758
5.95066
5.98999
6.06276
6.14604
6.20502
6.20736
6.1323
5.97422
5.74879
5.48462
5.20544
4.88696
528.111
527.407
4.65269
4.85405
4.92046
4.91172
4.87396
4.89155
5.01721
5.22724
5.4682
5.69785
5.88558
5.99929
6.03456
6.01346
5.95091
5.86364
5.77551
5.7132
5.704
5.76307
5.87632
6.00591
6.11884
6.20346
6.25961
6.28397
6.26249
6.16973
5.98385
5.71351
5.4106
5.13587
4.84023
528.869
527.463
4.64447
4.79444
4.85395
4.92803
5.11541
5.41128
5.7172
5.93744
6.02817
6.01043
5.92638
5.81505
5.7145
5.64433
5.61144
5.6272
5.69518
5.79538
5.89935
5.98771
6.05743
6.11447
6.16321
6.20315
6.22938
6.23265
6.19874
6.10671
5.93426
5.67773
5.37771
5.09391
4.80246
529.631
527.532
4.72191
4.93662
5.13068
5.38014
5.64826
5.82484
5.88958
5.88934
5.87087
5.85396
5.83455
5.80782
5.7716
5.72343
5.67027
5.63812
5.65214
5.7142
5.80661
5.90624
5.99549
6.06698
6.12011
6.15508
6.16973
6.15878
6.1134
6.02061
5.86593
5.6429
5.36973
5.08022
4.78179
530.167
527.595
4.84945
5.13575
5.39851
5.64152
5.83238
5.95865
6.03717
6.06651
6.03919
5.96116
5.85487
5.74702
5.65407
5.5768
5.51119
5.46758
5.46657
5.5168
5.6107
5.72909
5.84808
5.94596
6.0122
6.04649
6.05117
6.02647
5.97027
5.87842
5.74503
5.56481
5.33799
5.06683
4.76421
530.572
527.626
4.92189
5.22127
5.47688
5.70437
5.89849
6.05253
6.15957
6.20861
6.19309
6.12103
6.0107
5.88045
5.74513
5.61579
5.49852
5.39125
5.29925
5.24659
5.25082
5.30996
5.41434
5.54806
5.68916
5.80631
5.87333
5.88304
5.83986
5.74781
5.61089
5.43553
5.22834
4.98549
4.7086
531.03
527.633
4.97074
5.28997
5.55904
5.81321
6.03719
6.20704
6.314
6.35844
6.34456
6.28163
6.18444
6.06933
5.94566
5.81456
5.681
5.55036
5.41873
5.28232
5.15091
5.05136
4.99728
4.98279
5.01446
5.09683
5.21824
5.35284
5.46223
5.50948
5.48361
5.3953
5.24571
5.02457
4.72689
531.166
527.678
5.02106
5.34288
5.63154
5.94074
6.19695
6.35576
6.42568
6.43378
6.40307
6.34916
6.28024
6.19842
6.10608
6.01316
5.93596
5.87572
5.79555
5.66738
5.52068
5.38846
5.26595
5.1273
4.97795
4.86013
4.7868
4.7554
4.76832
4.81445
4.86909
4.90549
4.8941
4.80833
4.6245
531.946
527.649
4.92971
5.22708
5.48714
5.77838
6.05163
6.2463
6.34884
6.37757
6.35801
6.31103
6.25098
6.18702
6.12396
6.06204
5.99813
5.92261
5.82335
5.70693
5.60929
5.57377
5.58311
5.55102
5.45389
5.34451
5.24544
5.15548
5.07338
4.99398
4.91203
4.82159
4.72405
4.61866
4.491
532.518
527.533
4.75293
5.08865
5.37485
5.62598
5.84883
6.02472
6.14057
6.19842
6.20942
6.18776
6.14674
6.0965
6.04305
5.98909
5.9352
5.88078
5.82471
5.76461
5.69627
5.61119
5.49402
5.3383
5.18363
5.11176
5.17909
5.35113
5.50731
5.60154
5.64176
5.58548
5.40011
5.10012
4.72034
529.003
527.403
4.49907
4.74492
4.98276
5.19058
5.3611
5.50018
5.61318
5.70369
5.77487
5.82913
5.8671
5.88762
5.88938
5.87247
5.83839
5.78829
5.72232
5.6405
5.54687
5.44846
5.35482
5.27933
5.23897
5.24076
5.26627
5.29437
5.32276
5.36617
5.44768
5.57304
5.66768
5.57791
5.14214
525.622
527.33
4.41233
4.6321
4.85002
5.04956
5.21371
5.34029
5.43329
5.49637
5.53132
5.53933
5.52211
5.48306
5.427
5.35889
5.2836
5.2085
5.14155
5.08777
5.05118
5.0332
5.03513
5.05897
5.10761
5.18413
5.28921
5.42029
5.56787
5.71261
5.83094
5.90622
5.92812
5.82997
5.41495
525.242
527.361
4.43413
4.60154
4.71599
4.78754
4.82888
4.85152
4.86344
4.86857
4.86853
4.86527
4.86109
4.85875
4.86186
4.87541
4.90475
4.95651
5.03619
5.13923
5.24874
5.35276
5.45304
5.55688
5.67372
5.81833
6.00307
6.22157
6.44141
6.61561
6.69344
6.62608
6.38202
5.98585
5.43663
526.512
527.457
4.50516
4.64171
4.74435
4.83503
4.9182
4.99832
5.07378
5.14236
5.20382
5.26164
5.31572
5.36546
5.4188
5.48753
5.58877
5.74117
5.94266
6.15965
6.34857
6.4869
6.57788
6.6368
6.67706
6.70285
6.71272
6.70615
6.68363
6.63596
6.5359
6.34476
6.05564
5.70597
5.24328
527.42
527.403
4.53832
4.79745
5.03639
5.22688
5.36988
5.46874
5.5238
5.55462
5.58184
5.61263
5.63854
5.66882
5.76115
5.91295
6.05965
6.176
6.25608
6.30297
6.33418
6.36257
6.39293
6.42626
6.46143
6.49797
6.53512
6.57056
6.59978
6.60698
6.55864
6.417
6.16714
5.8355
5.36496
527.577
527.337
4.76689
5.21311
5.47142
5.54114
5.51564
5.43345
5.32217
5.28607
5.36634
5.50966
5.65211
5.76655
5.85848
5.94034
6.01144
6.06786
6.11127
6.14726
6.18105
6.21551
6.2525
6.29226
6.33481
6.38038
6.42923
6.48016
6.52823
6.56096
6.55302
6.46702
6.27313
5.96885
5.49222
528.143
527.375
4.97774
5.36859
5.46762
5.44026
5.4043
5.39362
5.40518
5.42922
5.4714
5.54049
5.63307
5.73588
5.83458
5.91993
5.98963
6.04576
6.09206
6.13246
6.17016
6.20775
6.24777
6.29223
6.34189
6.39563
6.4517
6.5094
6.56436
6.60207
6.59531
6.50773
6.31716
6.02968
5.5799
528.483
527.422
5.13892
5.46548
5.48297
5.41294
5.36032
5.34278
5.35715
5.39873
5.46287
5.54322
5.63061
5.71863
5.80593
5.89211
5.97451
6.04833
6.11109
6.16355
6.20587
6.23876
6.26702
6.29881
6.34406
6.40804
6.48629
6.56604
6.63224
6.66643
6.64364
6.53855
6.33957
6.03051
5.53068
529.072
527.472
5.25281
5.59752
5.61084
5.51285
5.44952
5.40177
5.34191
5.28693
5.25051
5.24179
5.25412
5.27488
5.30503
5.3526
5.42792
5.54015
5.69104
5.86984
6.0534
6.2065
6.30477
6.3616
6.38887
6.3956
6.39086
6.38021
6.3616
6.3229
6.24645
6.11622
5.91932
5.62591
5.17924
531.675
527.537
5.00689
5.38747
5.68167
5.9179
6.04066
6.01441
5.85519
5.64484
5.48153
5.38392
5.30911
5.22197
5.11193
4.97984
4.84767
4.76553
4.76614
4.84686
4.99415
5.19053
5.41486
5.64885
5.87268
6.0487
6.14669
6.17844
6.15944
6.08974
5.96596
5.79097
5.57367
5.30195
4.9352
532.653
527.468
4.87821
5.19965
5.43369
5.63051
5.77307
5.86532
5.93376
5.9976
6.04889
6.06855
6.04466
5.96413
5.80965
5.57845
5.30927
5.06555
4.88611
4.7754
4.71884
4.69995
4.71552
4.7752
4.89128
5.06173
5.26102
5.45376
5.60398
5.68164
5.6809
5.60253
5.44538
5.20374
4.86147
532.515
527.467
4.84502
5.15281
5.34885
5.4987
5.61141
5.68461
5.72166
5.73025
5.71756
5.68845
5.64651
5.59383
5.53419
5.48344
5.46388
5.47599
5.49358
5.48191
5.42293
5.33083
5.22098
5.08583
4.94521
4.85654
4.84865
4.91407
5.02246
5.13177
5.20246
5.21358
5.16186
5.04088
4.82145
535.503
527.399
4.60777
4.88732
5.08332
5.23092
5.34703
5.43389
5.49332
5.52631
5.53435
5.51914
5.4827
5.42783
5.35961
5.28759
5.22294
5.17475
5.14936
5.15008
5.18564
5.26695
5.38732
5.51116
5.58657
5.5871
5.52364
5.423
5.32578
5.26599
5.2399
5.20665
5.12001
4.98625
4.79845
533.42
527.352
4.47783
4.6993
4.85734
4.96275
5.02698
5.05907
5.06518
5.04992
5.01863
4.97792
4.93521
4.8975
4.87014
4.85563
4.85533
4.8709
4.9048
4.95934
5.03555
5.13227
5.24668
5.37524
5.5139
5.65958
5.80552
5.93246
6.00615
5.99792
5.91328
5.77708
5.60498
5.35943
5.044
528.886
527.389
4.49463
4.66141
4.76733
4.84141
4.89147
4.92415
4.94554
4.96021
4.97277
4.98772
5.0108
5.04698
5.09665
5.15475
5.21744
5.28677
5.36858
5.46982
5.59825
5.75818
5.94401
6.13886
6.32131
6.47546
6.59521
6.67667
6.71034
6.67564
6.54609
6.3026
5.97147
5.62817
5.21814
527.844
527.37
4.4973
4.7248
4.9188
5.07241
5.18329
5.25651
5.29962
5.32503
5.34929
5.38478
5.44076
5.52223
5.6248
5.74137
5.86725
5.99341
6.10861
6.20964
6.29898
6.37941
6.4532
6.5221
6.58795
6.65216
6.7107
6.75316
6.76736
6.73166
6.61261
6.38224
6.05766
5.70646
5.26559
527.141
527.327
4.67364
5.05831
5.29811
5.39508
5.40324
5.37485
5.32215
5.26595
5.2588
5.33034
5.45856
5.60273
5.73082
5.82922
5.90709
5.97447
6.03496
6.09168
6.14757
6.20542
6.26759
6.33554
6.40944
6.48793
6.5684
6.64622
6.70875
6.73249
6.68547
6.53658
6.27935
5.93279
5.43309
527.285
527.393
4.92962
5.28907
5.38066
5.35642
5.30686
5.27105
5.26824
5.29789
5.35278
5.43097
5.52742
5.62979
5.72641
5.81644
5.90156
5.9806
6.0534
6.12033
6.18231
6.24049
6.2961
6.35013
6.40291
6.45375
6.50124
6.54213
6.56628
6.55594
6.49159
6.35901
6.15523
5.86336
5.38759
528.253
527.446
5.13438
5.41748
5.39376
5.26349
5.15344
5.11581
5.14699
5.21092
5.27651
5.33807
5.39862
5.45998
5.52463
5.59555
5.6739
5.75992
5.8523
5.94796
6.04371
6.13681
6.22429
6.30355
6.37212
6.42704
6.4645
6.47962
6.46348
6.40262
6.2852
6.10493
5.86048
5.53578
5.07208
528.889
527.502
5.43852
5.80786
5.788
5.56649
5.37046
5.29999
5.30942
5.33075
5.33883
5.33316
5.31553
5.28705
5.25045
5.21155
5.17926
5.16417
5.17558
5.21829
5.28944
5.38006
5.47948
5.57925
5.67356
5.75848
5.83003
5.88027
5.89841
5.87349
5.79593
5.66044
5.46549
5.203
4.84534
533.416
527.62
5.36993
5.8202
6.09856
6.27594
6.3664
6.39004
6.37337
6.33734
6.29147
6.23564
6.16443
6.07067
5.94911
5.79847
5.62358
5.43902
5.27266
5.15268
5.08996
5.07323
5.08231
5.10074
5.11793
5.12845
5.13182
5.12965
5.12042
5.09854
5.05719
4.9909
4.89545
4.76426
4.58082
532.574
527.71
5.46866
5.93936
6.23276
6.41439
6.50204
6.52967
6.52468
6.50304
6.47399
6.44357
6.4155
6.39152
6.37004
6.3451
6.30717
6.24665
6.15918
6.04939
5.9297
5.81449
5.71395
5.6324
5.57026
5.52045
5.47123
5.41334
5.34243
5.25731
5.15729
5.03891
4.89489
4.71366
4.48493
527.355
527.711
5.4209
5.91717
6.21256
6.40491
6.51287
6.5505
6.53971
6.50128
6.45089
6.3998
6.35654
6.32621
6.30829
6.29954
6.29561
6.29153
6.28264
6.26491
6.23513
6.19071
6.12965
6.0516
5.95926
5.85834
5.75635
5.6604
5.57396
5.49517
5.41781
5.33265
5.22287
5.04346
4.70853
525.988
527.515
4.91611
5.34397
5.63086
5.829
5.97116
6.06951
6.132
6.16753
6.18593
6.19611
6.20413
6.21269
6.22085
6.22541
6.2231
6.21166
6.19012
6.15895
6.11953
6.07325
6.02067
5.96125
5.89396
5.81777
5.73288
5.64246
5.55296
5.47269
5.40695
5.34948
5.27959
5.15303
4.86225
525.714
527.398
4.5735
4.87411
5.12099
5.32367
5.4945
5.63505
5.74121
5.81748
5.8687
5.89618
5.90148
5.88616
5.85228
5.80218
5.73886
5.66739
5.59376
5.52298
5.46008
5.40827
5.3692
5.34443
5.33431
5.3373
5.35002
5.36757
5.38425
5.39431
5.39308
5.37739
5.34148
5.23954
4.94011
525.563
527.397
4.58082
4.83204
5.0066
5.13503
5.2338
5.30517
5.34643
5.35696
5.33912
5.29694
5.23664
5.1662
5.09406
5.0278
4.97369
4.93557
4.91479
4.91161
4.92594
4.95522
4.99833
5.05731
5.13138
5.21867
5.31954
5.43233
5.55398
5.6826
5.81047
5.90635
5.90436
5.7262
5.29709
525.83
527.395
4.51461
4.71016
4.8398
4.9284
4.98405
5.0094
5.00824
4.98656
4.95156
4.91059
4.8706
4.83844
4.82176
4.8288
4.86411
4.92393
5.00021
5.08873
5.18935
5.30105
5.41983
5.54041
5.65911
5.77402
5.88453
5.9905
6.09003
6.17443
6.22435
6.2101
6.099
5.86119
5.40754
527.066
527.332
4.41923
4.61046
4.73445
4.80368
4.83705
4.85304
4.86643
4.88634
4.9152
4.95339
5.00343
5.06773
5.15016
5.25367
5.37576
5.50823
5.63845
5.75447
5.85073
5.92875
5.99325
6.04976
6.10225
6.15154
6.19657
6.23517
6.263
6.27292
6.25324
6.18985
6.0697
5.86514
5.45614
526.877
527.368
4.63312
4.82591
4.86729
4.88085
4.90904
4.97263
5.06772
5.17043
5.26745
5.35714
5.43928
5.51572
5.58973
5.66425
5.74073
5.81946
5.89961
5.97987
6.05894
6.13555
6.20823
6.27522
6.33406
6.38154
6.41375
6.42604
6.41315
6.36807
6.28058
6.14064
5.93631
5.63866
5.16972
527.495
527.372
4.62036
4.60091
4.53452
4.69869
4.90215
5.01765
5.08752
5.13684
5.17147
5.19604
5.21356
5.22727
5.24114
5.25978
5.2875
5.32737
5.38023
5.44453
5.51658
5.59195
5.66638
5.73662
5.80109
5.85922
5.90971
5.94876
5.9694
5.96161
5.91337
5.8137
5.64976
5.39851
5.00371
532.35
527.564
5.13409
5.42778
5.52497
5.55613
5.58094
5.60721
5.62915
5.64068
5.6361
5.61207
5.56694
5.5009
5.41831
5.32801
5.24327
5.17839
5.14174
5.13112
5.13637
5.14672
5.15441
5.15571
5.15152
5.1462
5.1429
5.14123
5.13835
5.12957
5.1082
5.06536
4.98917
4.86325
4.6572
531.534
527.764
5.39736
5.77446
5.9703
6.06978
6.11336
6.13306
6.14628
6.16014
6.17546
6.18928
6.19722
6.19512
6.17922
6.14531
6.09002
6.01347
5.92131
5.82365
5.73016
5.64597
5.57196
5.50769
5.45005
5.39332
5.33461
5.27324
5.20637
5.13204
5.04892
4.95066
4.82579
4.66
4.44392
527.118
527.796
5.49766
5.97901
6.2544
6.41918
6.49891
6.51558
6.49244
6.44774
6.39432
6.34182
6.29783
6.26575
6.24311
6.22651
6.21201
6.19504
6.17127
6.13709
6.08977
6.02773
5.95048
5.85909
5.75607
5.6462
5.53787
5.44175
5.36167
5.30099
5.25931
5.21672
5.1447
4.98928
4.66469
525.797
527.589
5.08747
5.57918
5.89942
6.10579
6.23599
6.3085
6.3376
6.33697
6.31863
6.2922
6.26527
6.24308
6.2268
6.21317
6.19714
6.17367
6.13812
6.08763
6.02143
5.94037
5.84658
5.74269
5.62916
5.51117
5.40253
5.3184
5.26629
5.24393
5.24488
5.25359
5.24117
5.15556
4.86674
525.596
527.412
4.61562
4.95091
5.22308
5.4397
5.61483
5.75494
5.86063
5.93367
5.98154
6.01185
6.02864
6.03248
6.02235
5.9962
5.95174
5.88755
5.80498
5.71066
5.61277
5.51802
5.43221
5.35835
5.29934
5.25716
5.23193
5.2246
5.23693
5.26895
5.31656
5.371
5.40443
5.33938
5.02545
525.276
527.407
4.62005
4.89786
5.10216
5.26068
5.38943
5.49124
5.56159
5.59868
5.60757
5.59458
5.56329
5.51637
5.4581
5.39439
5.33074
5.27131
5.22027
5.18162
5.15823
5.15126
5.16178
5.18807
5.22403
5.26218
5.29838
5.3321
5.36535
5.40802
5.48106
5.59455
5.69226
5.62171
5.24152
525.819
527.483
4.77568
5.03409
5.16931
5.25446
5.31238
5.34575
5.35673
5.34747
5.3204
5.28058
5.23461
5.18976
5.153
5.12901
5.11965
5.12477
5.14313
5.17374
5.21786
5.27911
5.35883
5.45204
5.54992
5.64709
5.74558
5.85226
5.96391
6.05935
6.10438
6.06157
5.9081
5.64524
5.22159
526.782
527.446
4.62298
4.84797
4.99968
5.10361
5.16819
5.20125
5.20898
5.19949
5.18426
5.17516
5.18029
5.20096
5.23381
5.2759
5.32661
5.38747
5.46131
5.54975
5.65101
5.75934
5.86701
5.96638
6.05151
6.11914
6.16873
6.20098
6.21372
6.1994
6.1442
6.03302
5.86197
5.62673
5.2383
527.441
527.386
4.58096
4.85826
5.06204
5.1789
5.22681
5.23741
5.2378
5.2414
5.25361
5.27567
5.30712
5.34987
5.40779
5.48074
5.56312
5.64626
5.72363
5.79515
5.86503
5.93546
6.00583
6.07488
6.14069
6.2004
6.25041
6.28611
6.30063
6.28216
6.21736
6.09928
5.93218
5.70324
5.30996
527.394
527.371
4.69819
5.03203
5.22282
5.2983
5.30356
5.27422
5.23565
5.20006
5.1736
5.16251
5.17338
5.21634
5.29583
5.40781
5.54181
5.67968
5.80098
5.89971
5.98374
6.05915
6.12756
6.19058
6.24912
6.30271
6.34924
6.38416
6.40041
6.38714
6.3322
6.22763
6.06902
5.82859
5.39411
527.515
527.408
4.7952
5.13261
5.32203
5.37731
5.34219
5.26345
5.18037
5.1175
5.07684
5.05714
5.06023
5.09307
5.164
5.27401
5.41884
5.59089
5.77395
5.94109
6.07234
6.17414
6.25283
6.30883
6.34588
6.36865
6.38064
6.3823
6.36922
6.3337
6.26765
6.16361
6.01057
5.76828
5.32459
528.587
527.493
4.87026
5.20923
5.43601
5.53906
5.51982
5.41747
5.29393
5.19367
5.11656
5.04563
4.97877
4.92532
4.9028
4.92683
4.99438
5.09725
5.23197
5.39489
5.5798
5.77621
5.97165
6.14595
6.27304
6.34772
6.37876
6.36969
6.32544
6.24836
6.13742
5.99413
5.8153
5.56758
5.15689
529.435
527.544
4.89984
5.20551
5.41928
5.57723
5.66791
5.70199
5.68824
5.62784
5.52203
5.3778
5.2154
5.06872
4.964
4.9021
4.86441
4.83648
4.82146
4.82945
4.86618
4.93487
5.04086
5.18863
5.37291
5.58103
5.79523
5.98293
6.09957
6.13141
6.08937
5.98053
5.8073
5.54998
5.1361
530.402
527.561
4.89779
5.19085
5.39084
5.55008
5.65691
5.70859
5.71795
5.70049
5.66679
5.62198
5.56861
5.50917
5.44731
5.38699
5.32389
5.24516
5.15048
5.05886
4.97901
4.90348
4.83644
4.79417
4.78686
4.82336
4.91529
5.07336
5.28698
5.5182
5.69668
5.75977
5.71017
5.54404
5.19092
531.98
527.541
4.84393
5.15568
5.35173
5.49379
5.59643
5.65639
5.67736
5.66883
5.64158
5.60464
5.56355
5.51948
5.46992
5.40909
5.33058
5.23722
5.1519
5.10952
5.1266
5.18251
5.23976
5.2748
5.28029
5.24867
5.1746
5.07819
5.01229
5.04345
5.19108
5.36784
5.44975
5.39296
5.16706
532.629
527.489
4.71051
5.00831
5.19429
5.3193
5.4114
5.47763
5.52182
5.54811
5.55987
5.55834
5.54289
5.51129
5.45852
5.37799
5.27255
5.16758
5.0882
5.04926
5.05292
5.08911
5.14409
5.2141
5.30357
5.40609
5.49054
5.51373
5.44922
5.31763
5.21955
5.24296
5.3058
5.27109
5.09481
531.968
527.427
4.54936
4.80398
4.98696
5.12328
5.23485
5.32662
5.39802
5.44674
5.46972
5.46333
5.42127
5.34216
5.23832
5.13145
5.04503
4.99386
4.98346
5.01194
5.07082
5.14907
5.24208
5.353
5.48208
5.61691
5.73025
5.78788
5.76017
5.63817
5.45762
5.3117
5.24467
5.16334
4.97529
530.922
527.412
4.53235
4.77314
4.95279
5.08288
5.17508
5.23354
5.25662
5.24094
5.19009
5.11776
5.04107
4.9763
4.93684
4.92874
4.95199
5.00358
5.07658
5.1585
5.2424
5.33276
5.44021
5.57219
5.72105
5.85947
5.95587
5.99443
5.96813
5.86491
5.67664
5.44394
5.24478
5.09464
4.8815
530.256
527.45
4.63889
4.8813
5.01435
5.08026
5.10011
5.08121
5.03626
4.98398
4.94255
4.92485
4.93463
4.96984
5.02713
5.09935
5.1752
5.25055
5.32852
5.41064
5.49811
5.59698
5.71021
5.826
5.92807
6.00808
6.06407
6.09251
6.08119
6.00684
5.84544
5.60239
5.34069
5.13319
4.88504
529.848
527.462
4.60584
4.80238
4.90483
4.95326
4.96495
4.96349
4.97134
4.99914
5.0485
5.11352
5.17919
5.2344
5.28046
5.32119
5.36016
5.40692
5.47293
5.55976
5.65718
5.7533
5.84275
5.92587
6.00364
6.07409
6.13275
6.17123
6.17473
6.12158
5.98897
5.77311
5.52004
5.28761
4.99471
529.442
527.425
4.47625
4.64259
4.76219
4.85965
4.94898
5.03657
5.11619
5.17683
5.21904
5.2497
5.2739
5.29679
5.32635
5.36989
5.4299
5.50297
5.58365
5.66783
5.75315
5.83835
5.92259
6.00483