/*--------------------------------*- C++ -*----------------------------------*\
| =========                 |                                                 |
| \\      /  F ield         | OpenFOAM: The Open Source CFD Toolbox           |
|  \\    /   O peration     | Version:  v1906                                 |
|   \\  /    A nd           | Web:      www.OpenFOAM.com                      |
|    \\/     M anipulation  |                                                 |
\*---------------------------------------------------------------------------*/
FoamFile
{
    version     2.0;
    format      ascii;
    class       volVectorField;
    location    "14";
    object      U;
}
// * * * * * * * * * * * * * * * * * * * * * * * * * * * * * * * * * * * * * //

dimensions      [0 1 -1 0 0 0 0];


internalField   nonuniform List<vector> 
78750
(
(-0.042256 -0.0185411 0.0104405)
(-0.0340788 -0.0246245 0.0202989)
(-0.0318591 -0.023075 0.0170389)
(-0.033114 -0.0229331 0.0175412)
(-0.031253 -0.0221126 0.0174603)
(-0.0299839 -0.0218685 0.0174069)
(-0.0280367 -0.0218339 0.0173869)
(-0.02588 -0.0220785 0.0173824)
(-0.0234049 -0.0225664 0.0173912)
(-0.0206521 -0.0232348 0.0174003)
(-0.0175949 -0.0239423 0.0174179)
(-0.0142332 -0.0245636 0.0174477)
(-0.0106233 -0.0250353 0.0174746)
(-0.00683329 -0.025325 0.0174853)
(-0.00291546 -0.0254168 0.0174729)
(0.00107599 -0.0252995 0.0174312)
(0.00508066 -0.0249623 0.0173536)
(0.0090328 -0.0243901 0.0172328)
(0.012869 -0.0235644 0.0170603)
(0.0165206 -0.0224643 0.0168249)
(0.0199123 -0.0210669 0.0165126)
(0.022966 -0.0193462 0.016104)
(0.0255938 -0.0172748 0.0155679)
(0.0276943 -0.0148384 0.0148568)
(0.0291659 -0.0120436 0.0139079)
(0.029912 -0.0089285 0.0126425)
(0.0298446 -0.00558536 0.0109676)
(0.0288991 -0.00217909 0.0088213)
(0.0270726 0.00110464 0.00618945)
(0.0243908 0.00417699 0.00318365)
(0.0209566 0.0071547 -7.68234e-05)
(0.0168822 0.0102594 -0.00356275)
(0.0120432 0.0136615 -0.00639309)
(0.00649819 0.0158826 -0.00554634)
(0.00141942 0.0110146 -5.88594e-05)
(-0.00365356 0.0220887 0.0188384)
(-0.00947558 0.00126913 0.0312316)
(-0.01565 -0.0107379 0.0300952)
(-0.0202203 -0.0172687 0.0257176)
(-0.0238431 -0.0224306 0.0220014)
(-0.026464 -0.0272795 0.0194487)
(-0.0281495 -0.0317433 0.0179065)
(-0.0288586 -0.0357001 0.0170934)
(-0.0286521 -0.0394332 0.0166774)
(-0.0277121 -0.0432797 0.0163975)
(-0.0262255 -0.0471314 0.0161823)
(-0.0242731 -0.0506114 0.0160821)
(-0.0219117 -0.0534839 0.0161335)
(-0.0192221 -0.0556869 0.0163349)
(-0.0162878 -0.0572261 0.0166694)
(-0.0131784 -0.0581152 0.0171183)
(-0.00995081 -0.0583564 0.0176669)
(-0.0066555 -0.0579353 0.0183047)
(-0.00333871 -0.056822 0.0190226)
(-4.59056e-05 -0.0549704 0.0198108)
(0.00317595 -0.0523199 0.0206557)
(0.00627702 -0.0487965 0.0215349)
(0.0092019 -0.0443165 0.0224089)
(0.0118842 -0.0387951 0.0232074)
(0.0142433 -0.0321655 0.0238083)
(0.0161765 -0.0244109 0.0240021)
(0.0175438 -0.0156447 0.023445)
(0.0181424 -0.00627444 0.021654)
(0.0177473 0.00281322 0.0182332)
(0.0162581 0.0105362 0.0135907)
(0.0137975 0.0169018 0.00907793)
(0.010517 0.023353 0.00593633)
(0.00676904 0.0301689 0.00453424)
(0.00327107 0.0332695 0.00468817)
(0.000431166 0.0226322 0.0044312)
(-0.00141707 0.043278 0.0125763)
(-0.00772059 0.0426409 0.016583)
(-0.0156921 0.0313916 0.0108912)
(-0.022599 0.0210361 0.00541617)
(-0.0273556 0.00936553 0.00247668)
(-0.0306852 -0.00347885 0.000884951)
(-0.0328966 -0.0163229 0.000153548)
(-0.0340739 -0.0285856 -0.000193956)
(-0.0342421 -0.0399076 -0.000442173)
(-0.0335069 -0.0499054 -0.000661617)
(-0.0320503 -0.0583469 -0.000811576)
(-0.0300576 -0.0652444 -0.0008409)
(-0.0276897 -0.0707381 -0.000729574)
(-0.0250773 -0.075001 -0.00047974)
(-0.0223211 -0.0781934 -0.000102011)
(-0.0194943 -0.0804409 0.000394369)
(-0.016649 -0.0818279 0.00100654)
(-0.0138236 -0.0823983 0.00173958)
(-0.0110473 -0.082159 0.00260691)
(-0.00834388 -0.0810812 0.00363038)
(-0.00573282 -0.0790977 0.0048404)
(-0.0032303 -0.0760977 0.00627644)
(-0.000849709 -0.0719195 0.00798633)
(0.00138748 -0.0663371 0.0100192)
(0.00346045 -0.0590453 0.0124042)
(0.00534567 -0.0496498 0.0150975)
(0.00700012 -0.0376927 0.0178741)
(0.0083628 -0.0228053 0.0201073)
(0.00934192 -0.00516083 0.0204673)
(0.00966747 0.0136772 0.0170715)
(0.00894321 0.0301236 0.00947753)
(0.00701188 0.0405809 0.00150685)
(0.00475656 0.0447975 -0.00209052)
(0.00247667 0.0432948 -0.00114262)
(0.000327808 0.0265871 0.00200666)
(8.01461e-06 0.0609455 0.00697131)
(-0.00247334 0.0804266 0.0105668)
(-0.00678388 0.0711275 0.00680035)
(-0.0113793 0.0494247 6.99764e-05)
(-0.0149614 0.0268704 -0.00335366)
(-0.0181727 0.00774047 -0.00255202)
(-0.0210461 -0.00942477 5.13779e-05)
(-0.0230741 -0.0261492 0.00250466)
(-0.0239571 -0.0425992 0.00394604)
(-0.0237751 -0.0574823 0.00429596)
(-0.022801 -0.0696843 0.00406269)
(-0.0212761 -0.0791053 0.00372823)
(-0.0193832 -0.0861297 0.00349703)
(-0.0172436 -0.0912103 0.00340565)
(-0.0149474 -0.0947306 0.00342869)
(-0.0125702 -0.0969796 0.00352648)
(-0.0101686 -0.0981593 0.00366243)
(-0.00778101 -0.098402 0.00380837)
(-0.00543563 -0.0977885 0.00394503)
(-0.00315732 -0.0963622 0.00406035)
(-0.000975245 -0.0941362 0.00414783)
(0.00107765 -0.0910856 0.00420951)
(0.00297662 -0.0871549 0.00426736)
(0.00470307 -0.0822571 0.00437424)
(0.00623538 -0.0762537 0.00463358)
(0.00755497 -0.0689221 0.00522961)
(0.00864695 -0.0598953 0.00646162)
(0.00949752 -0.048595 0.00873825)
(0.0100996 -0.0341954 0.012353)
(0.0104405 -0.0158511 0.0167266)
(0.0102928 0.00590751 0.0194523)
(0.00891537 0.0270656 0.0176581)
(0.0061988 0.0417816 0.0126851)
(0.00316882 0.0453595 0.00882273)
(0.000571708 0.0290508 0.00549455)
(0.00104548 0.050625 0.00207541)
(0.00291822 0.081929 0.00506388)
(0.00309134 0.0828738 0.00447493)
(0.00238282 0.0745491 0.0021299)
(0.000692848 0.0599273 -0.000500024)
(-0.00162305 0.0424268 -0.001343)
(-0.0040532 0.02235 0.000584172)
(-0.00586027 -0.00204145 0.00440001)
(-0.00639524 -0.029011 0.00718098)
(-0.00617752 -0.0532415 0.00745018)
(-0.00569596 -0.0719275 0.00632638)
(-0.0050566 -0.0854379 0.00506189)
(-0.00430442 -0.095099 0.00414697)
(-0.00344634 -0.102026 0.00362121)
(-0.00246792 -0.106947 0.00339742)
(-0.0013566 -0.110303 0.00339001)
(-0.000114962 -0.112341 0.00354148)
(0.00124076 -0.113199 0.00381887)
(0.00268635 -0.112941 0.00420431)
(0.00419235 -0.111579 0.00468662)
(0.00572507 -0.109084 0.00525456)
(0.0072467 -0.105381 0.00588955)
(0.00871367 -0.100354 0.0065584)
(0.0100746 -0.0938432 0.00720504)
(0.0112701 -0.0856466 0.00774334)
(0.0122231 -0.0755252 0.00805661)
(0.0128492 -0.0632137 0.00803074)
(0.0130605 -0.0485488 0.00769111)
(0.0128226 -0.0316116 0.0074649)
(0.0122367 -0.0121414 0.00823919)
(0.0115471 0.0112142 0.0104604)
(0.0103731 0.0371082 0.0123575)
(0.00772358 0.0560002 0.0118592)
(0.00399047 0.0599984 0.0100006)
(0.00063875 0.0375323 0.00583409)
(9.45576e-05 0.0380494 0.0007141)
(0.00134326 0.0703326 0.00201248)
(0.00202902 0.0762956 0.00213492)
(0.00227245 0.0730139 0.00140276)
(0.00214428 0.0624366 0.000139666)
(0.00174232 0.0455265 6.82877e-05)
(0.00196383 0.0220899 0.00249544)
(0.00320325 -0.00692625 0.00554697)
(0.00467231 -0.0359031 0.00662947)
(0.00543996 -0.0593593 0.00586)
(0.00558465 -0.0760967 0.00464236)
(0.00548767 -0.0877596 0.00375761)
(0.00542234 -0.0962829 0.00327097)
(0.00551298 -0.102887 0.00301142)
(0.00580691 -0.108139 0.00282259)
(0.00631166 -0.11225 0.00262059)
(0.00700734 -0.115286 0.00238352)
(0.00786448 -0.117269 0.0021248)
(0.00885315 -0.118208 0.00187107)
(0.00994516 -0.118097 0.00165077)
(0.0111127 -0.116903 0.00148993)
(0.0123256 -0.114553 0.00141083)
(0.0135466 -0.110922 0.00143058)
(0.0147264 -0.105825 0.00155868)
(0.0157964 -0.0990057 0.00179256)
(0.0166586 -0.0901112 0.00210615)
(0.0171666 -0.0786748 0.00243238)
(0.0171 -0.0643097 0.00271445)
(0.0161412 -0.0475287 0.00325266)
(0.0139443 -0.029261 0.00496996)
(0.0106431 -0.00687221 0.00839413)
(0.00723695 0.0247287 0.0119426)
(0.00408249 0.0569725 0.0127167)
(0.00138814 0.0682526 0.0103244)
(-5.89693e-05 0.0429438 0.00487636)
(-0.000211394 0.0345555 0.000876793)
(-0.000721797 0.0610772 0.000468402)
(-0.00125953 0.0660345 0.000119022)
(-0.00178297 0.0634082 0.00035989)
(-0.00210002 0.0525791 0.00213108)
(-0.00147419 0.0305064 0.00591064)
(0.000162854 -2.76163e-05 0.0094753)
(0.00186018 -0.0303432 0.0105276)
(0.00277019 -0.0536203 0.00971255)
(0.00292245 -0.069495 0.00870626)
(0.00272316 -0.080955 0.00813666)
(0.00248621 -0.0904476 0.00787962)
(0.0023824 -0.0989886 0.00771148)
(0.00247021 -0.106639 0.00751028)
(0.00273545 -0.113129 0.00726545)
(0.0031335 -0.11824 0.00702554)
(0.00362253 -0.12191 0.0068433)
(0.00417221 -0.124178 0.00675134)
(0.00476002 -0.125104 0.00676228)
(0.00536664 -0.12471 0.00687737)
(0.00597354 -0.122958 0.00709318)
(0.00656177 -0.119721 0.0074038)
(0.00710905 -0.114759 0.00779687)
(0.00758495 -0.107706 0.00824235)
(0.00794781 -0.0980474 0.00867299)
(0.00814141 -0.0850433 0.00894181)
(0.00810728 -0.0674982 0.00872102)
(0.00780709 -0.0438735 0.00745068)
(0.00704981 -0.0141095 0.00501279)
(0.00500053 0.0171205 0.00325746)
(0.00165922 0.0430862 0.00426221)
(-0.00134502 0.0624411 0.0063928)
(-0.00253791 0.0727672 0.00670837)
(-0.00227043 0.0687998 0.00491216)
(-0.00071283 0.0361666 0.0015128)
(-0.000222156 0.0391834 0.00202287)
(-0.00150822 0.0707756 0.00274281)
(-0.00303627 0.0767861 0.00341783)
(-0.00425038 0.0689841 0.00527594)
(-0.00450046 0.0466701 0.00819997)
(-0.00336553 0.0147202 0.00978698)
(-0.00203152 -0.0162426 0.00847083)
(-0.00133095 -0.0394227 0.0057686)
(-0.00117582 -0.0558566 0.00356322)
(-0.00121516 -0.0689742 0.00225755)
(-0.00120419 -0.0806832 0.00157982)
(-0.00102864 -0.0913628 0.00124604)
(-0.000684752 -0.100755 0.00108011)
(-0.000231482 -0.108599 0.000994168)
(0.000275439 -0.11484 0.000954293)
(0.000801144 -0.119589 0.00095214)
(0.0013249 -0.122999 0.000989283)
(0.00183137 -0.125192 0.00107153)
(0.00230606 -0.12623 0.00120763)
(0.00273241 -0.126113 0.00140886)
(0.00309018 -0.124775 0.00168946)
(0.00335427 -0.122073 0.00206903)
(0.0034926 -0.11776 0.00257721)
(0.00346262 -0.111476 0.00326038)
(0.00321388 -0.102778 0.00419122)
(0.00270107 -0.0910957 0.00546904)
(0.00195115 -0.0754565 0.00712179)
(0.00118599 -0.0542238 0.00873715)
(0.000853564 -0.0261971 0.00916193)
(0.00106413 0.00589178 0.00771883)
(0.000970647 0.0345351 0.00578879)
(0.000373318 0.053597 0.00462735)
(-2.17214e-06 0.0600672 0.00374843)
(-4.02594e-05 0.054033 0.00256506)
(0.00014334 0.0269647 0.00104175)
(5.45582e-05 0.03883 0.00222931)
(-0.000324541 0.0697249 0.00308968)
(-0.00107072 0.0728463 0.00359211)
(-0.00164996 0.0589305 0.0051416)
(-0.00161119 0.0302957 0.00678478)
(-0.00132395 -0.00248644 0.00612851)
(-0.00152728 -0.0290582 0.00419642)
(-0.00201784 -0.0479815 0.00308368)
(-0.00248192 -0.0623564 0.00314364)
(-0.00277109 -0.0746234 0.00390704)
(-0.00283497 -0.0858542 0.00491471)
(-0.00267585 -0.0962352 0.00583301)
(-0.00233939 -0.105521 0.0064731)
(-0.00187905 -0.113401 0.00680108)
(-0.00134025 -0.119707 0.00689093)
(-0.000755809 -0.124435 0.00685027)
(-0.000147067 -0.127674 0.00677066)
(0.000470853 -0.129522 0.00671332)
(0.00108533 -0.130037 0.00671399)
(0.001685 -0.129219 0.00679054)
(0.00225947 -0.126991 0.00694688)
(0.00279986 -0.123178 0.0071703)
(0.00329777 -0.117476 0.00741903)
(0.00373969 -0.109472 0.00759949)
(0.00409571 -0.0987464 0.00755688)
(0.00431022 -0.0850913 0.00714508)
(0.00431848 -0.0686682 0.00645738)
(0.00409852 -0.0495756 0.0060515)
(0.00378504 -0.0267982 0.00652172)
(0.00371118 0.000897626 0.0073008)
(0.00379797 0.0302086 0.00699557)
(0.00338293 0.0522744 0.00557482)
(0.00254415 0.06032 0.00418608)
(0.00148466 0.0550696 0.00306184)
(0.000325148 0.0293787 0.00157052)
(-5.65669e-05 0.0369927 0.00333592)
(-0.00028504 0.0692516 0.00587982)
(-0.000673987 0.0738924 0.0076106)
(-0.000796179 0.0594817 0.00935075)
(-0.000560907 0.0311766 0.00914694)
(-0.000582625 0.0021166 0.00652781)
(-0.00107671 -0.0208291 0.00383673)
(-0.00173229 -0.0386485 0.00228438)
(-0.00229661 -0.0540043 0.001699)
(-0.00263971 -0.0684686 0.00162558)
(-0.00270414 -0.0823366 0.00166773)
(-0.00251049 -0.0951095 0.00157684)
(-0.00213663 -0.106121 0.0013012)
(-0.00165839 -0.115041 0.000930684)
(-0.00112863 -0.121934 0.000579396)
(-0.000575055 -0.127067 0.000319638)
(-8.86825e-06 -0.130709 0.000181335)
(0.000565451 -0.13305 0.000174356)
(0.00114515 -0.134188 0.000305622)
(0.00172739 -0.134152 0.000588333)
(0.00230849 -0.132901 0.0010469)
(0.00288335 -0.13031 0.0017197)
(0.00344482 -0.126129 0.00265762)
(0.00398229 -0.119903 0.00390584)
(0.00447583 -0.11091 0.00543222)
(0.00488234 -0.0982705 0.00697988)
(0.00511917 -0.0813246 0.00798328)
(0.00505427 -0.060221 0.00793849)
(0.00458778 -0.0358062 0.00716813)
(0.00384144 -0.00846096 0.00667115)
(0.0031959 0.0209226 0.0065255)
(0.00254671 0.0469454 0.00579757)
(0.00167967 0.0608312 0.00455796)
(0.000710433 0.058604 0.0032355)
(1.75939e-05 0.0323266 0.00143671)
(-0.00042884 0.0365666 0.00514923)
(-0.00121761 0.0646109 0.00991608)
(-0.00179242 0.0628765 0.0106556)
(-0.00194279 0.0419107 0.00842646)
(-0.00209305 0.0130689 0.00387505)
(-0.00267754 -0.0115605 -0.000227969)
(-0.00359886 -0.0300067 -0.00214535)
(-0.00458644 -0.0450443 -0.00212835)
(-0.00542513 -0.0591118 -0.000937607)
(-0.00600011 -0.0731647 0.00071849)
(-0.0062827 -0.0868979 0.0022488)
(-0.00631598 -0.099432 0.00332677)
(-0.00617243 -0.110051 0.00393508)
(-0.00591689 -0.118531 0.00421742)
(-0.00559425 -0.125027 0.00432421)
(-0.00523186 -0.12982 0.00435602)
(-0.00484512 -0.133141 0.00436781)
(-0.0044431 -0.135133 0.00438706)
(-0.00403137 -0.13586 0.0044272)
(-0.00361307 -0.135313 0.0044959)
(-0.00318925 -0.133413 0.00460102)
(-0.00275867 -0.129984 0.00475624)
(-0.00231638 -0.124715 0.00498687)
(-0.00185414 -0.117121 0.00533259)
(-0.0013662 -0.106564 0.00583206)
(-0.000852635 -0.0923373 0.00645913)
(-0.000342803 -0.0738631 0.00700368)
(4.74926e-05 -0.0511047 0.00704134)
(0.000130728 -0.025054 0.00635155)
(-0.000316463 0.00250531 0.00546006)
(-0.000944957 0.0292423 0.00498402)
(-0.0012609 0.0511906 0.00451068)
(-0.00126799 0.0616163 0.00371615)
(-0.00096973 0.0571416 0.00267128)
(-0.00030548 0.0299051 0.00111616)
(-0.000135675 0.0364419 0.00310923)
(-0.000562807 0.0593674 0.00587015)
(-0.00104177 0.0559064 0.00479193)
(-0.0017748 0.0383737 0.000948591)
(-0.00303854 0.0173324 -0.00314506)
(-0.00458351 -0.000673126 -0.00497447)
(-0.0060581 -0.0165352 -0.00455388)
(-0.00728684 -0.0323768 -0.00287471)
(-0.00820528 -0.0491688 -0.000890721)
(-0.00878526 -0.0665829 0.000672703)
(-0.00903791 -0.0834666 0.00147862)
(-0.00901266 -0.0985119 0.00160573)
(-0.00879086 -0.110911 0.00135825)
(-0.00845959 -0.120574 0.00102566)
(-0.0080866 -0.12787 0.000774387)
(-0.00771623 -0.13326 0.000670302)
(-0.0073746 -0.137102 0.000730075)
(-0.00707732 -0.139623 0.000953289)
(-0.00683617 -0.140937 0.00133636)
(-0.00665769 -0.141081 0.00187895)
(-0.00654168 -0.140022 0.00258711)
(-0.00648195 -0.137645 0.00347705)
(-0.00646154 -0.133709 0.00457855)
(-0.0064465 -0.12775 0.00593079)
(-0.00637961 -0.118964 0.0075494)
(-0.00617031 -0.106195 0.00933857)
(-0.00570687 -0.0882472 0.0109719)
(-0.00491903 -0.0645278 0.0118521)
(-0.00388707 -0.0359619 0.0113973)
(-0.00285824 -0.00551581 0.00974934)
(-0.0021249 0.022644 0.0079124)
(-0.00160617 0.0439113 0.00647359)
(-0.0011131 0.0530877 0.00532304)
(-0.000555973 0.0484574 0.00411817)
(-4.59346e-06 0.0245862 0.00208049)
(-2.95796e-05 0.036878 0.000493867)
(-0.000562201 0.0605643 0.00059779)
(-0.00140905 0.0589747 -0.0011233)
(-0.00253321 0.045873 -0.00397353)
(-0.00384728 0.0274493 -0.00643947)
(-0.00493639 0.00883177 -0.00728702)
(-0.00579199 -0.00908506 -0.00680651)
(-0.00650344 -0.026807 -0.00556808)
(-0.00711021 -0.044914 -0.00397623)
(-0.00756877 -0.0634368 -0.00234144)
(-0.00781319 -0.0814721 -0.00097326)
(-0.00782597 -0.0975613 -7.92429e-05)
(-0.00764731 -0.110657 0.000361233)
(-0.00734329 -0.120606 0.000512155)
(-0.00697468 -0.127855 0.000525958)
(-0.00658585 -0.13297 0.000490119)
(-0.00620584 -0.136382 0.000444703)
(-0.00585524 -0.138358 0.000408073)
(-0.0055504 -0.139043 0.000392902)
(-0.00530376 -0.138496 0.00041401)
(-0.0051255 -0.136717 0.000493471)
(-0.00502418 -0.133661 0.000667006)
(-0.00500527 -0.129237 0.000994808)
(-0.00506504 -0.1233 0.001579)
(-0.00518246 -0.115593 0.0025819)
(-0.00529749 -0.105562 0.00421678)
(-0.00528676 -0.0921509 0.00663082)
(-0.00494947 -0.0738381 0.00959822)
(-0.00409562 -0.0495523 0.0122202)
(-0.00276409 -0.0205122 0.0133071)
(-0.00132331 0.00867111 0.0125713)
(-0.000176485 0.0315001 0.0109604)
(0.000384466 0.0425113 0.00937559)
(0.000471086 0.0406705 0.0075722)
(0.000254175 0.0220294 0.00396452)
(0.000213831 0.0358691 -0.00162631)
(0.000336762 0.0606489 -0.00347032)
(0.000219399 0.0606549 -0.00529344)
(-0.00019424 0.0499253 -0.00739519)
(-0.000942559 0.0324038 -0.00917965)
(-0.00185869 0.0140061 -0.00965893)
(-0.00289519 -0.00356504 -0.00873279)
(-0.00395935 -0.0212021 -0.00660893)
(-0.00491043 -0.0402356 -0.00367627)
(-0.00559139 -0.0608673 -0.00064737)
(-0.00592001 -0.0815489 0.00162842)
(-0.00593509 -0.0999993 0.00275104)
(-0.00572543 -0.114782 0.00296138)
(-0.00537633 -0.125774 0.00273097)
(-0.00495324 -0.133638 0.00239466)
(-0.00450042 -0.139138 0.00210086)
(-0.00404593 -0.142829 0.00189461)
(-0.00360732 -0.145042 0.00178207)
(-0.0031955 -0.145951 0.00175799)
(-0.00281756 -0.145639 0.00181398)
(-0.002478 -0.144121 0.00193993)
(-0.00217959 -0.141343 0.00212323)
(-0.0019241 -0.137172 0.0023477)
(-0.00171458 -0.131382 0.00259631)
(-0.00156129 -0.123668 0.0028685)
(-0.00147781 -0.113711 0.00323149)
(-0.00146161 -0.101201 0.00390991)
(-0.00145349 -0.0856158 0.00531637)
(-0.00129432 -0.0658493 0.00777208)
(-0.000768905 -0.040787 0.0108217)
(0.000147074 -0.0116941 0.0130364)
(0.00104153 0.0157145 0.0133395)
(0.00134945 0.0335555 0.0120774)
(0.00102101 0.0373465 0.00972203)
(0.000333347 0.0226627 0.0049586)
(0.000352969 0.0325869 -0.00263448)
(0.00124188 0.0588955 -0.00591443)
(0.00183168 0.0617322 -0.00778071)
(0.00211567 0.0562996 -0.00928514)
(0.00207353 0.0442749 -0.0104582)
(0.00163499 0.0290931 -0.0105328)
(0.00106387 0.0121941 -0.00925568)
(0.000578407 -0.00687896 -0.00671567)
(0.000328008 -0.0286861 -0.00337136)
(0.000384444 -0.0525736 -0.000164402)
(0.000701545 -0.0762425 0.00190383)
(0.00113702 -0.0969328 0.00254294)
(0.00157376 -0.113128 0.00221168)
(0.00196377 -0.124847 0.00151038)
(0.00230809 -0.132943 0.000794384)
(0.00262039 -0.138375 0.000182189)
(0.00290993 -0.141837 -0.000313775)
(0.00317876 -0.143736 -0.000704022)
(0.00342736 -0.144291 -0.000995708)
(0.00365539 -0.143616 -0.00118808)
(0.00386106 -0.141757 -0.0012723)
(0.0040413 -0.138703 -0.00123223)
(0.00419183 -0.134383 -0.00104618)
(0.00430587 -0.128642 -0.000691485)
(0.00436834 -0.121202 -0.000155003)
(0.00435623 -0.111643 0.000548125)
(0.0042386 -0.0995521 0.00137093)
(0.00397959 -0.0847 0.0023182)
(0.00356954 -0.0669939 0.00363409)
(0.00307002 -0.0460325 0.00578809)
(0.00262105 -0.021338 0.00875376)
(0.00225094 0.00507969 0.0112491)
(0.00170598 0.0263866 0.0117654)
(0.000990583 0.0342882 0.00996227)
(0.000273919 0.0232223 0.00509372)
(0.000212747 0.0282859 -0.0021753)
(0.00120813 0.0539956 -0.00570667)
(0.00203725 0.0584151 -0.00752356)
(0.00266926 0.0548413 -0.00854384)
(0.00318634 0.0445854 -0.00897416)
(0.00337017 0.0293951 -0.00832208)
(0.00339908 0.0111028 -0.00629775)
(0.0035192 -0.0100237 -0.002886)
(0.0039603 -0.0342364 0.00125793)
(0.0047536 -0.0602604 0.00468075)
(0.00562947 -0.0848387 0.00626403)
(0.00629237 -0.10505 0.0061539)
(0.00666526 -0.120041 0.00520031)
(0.00683187 -0.130557 0.00409465)
(0.00689423 -0.137797 0.00312797)
(0.00692217 -0.142716 0.00234643)
(0.00695421 -0.145901 0.00171905)
(0.00700907 -0.147674 0.00120818)
(0.00709422 -0.148204 0.000784769)
(0.00720852 -0.147571 0.000428646)
(0.00734525 -0.145783 0.00012667)
(0.0074953 -0.142789 -0.000128927)
(0.00764326 -0.138464 -0.000340538)
(0.0077654 -0.132589 -0.0005028)
(0.00782747 -0.124841 -0.000596823)
(0.00778242 -0.114807 -0.000580594)
(0.00757096 -0.10209 -0.000379887)
(0.00713407 -0.086362 0.000107843)
(0.00644355 -0.0674088 0.00100959)
(0.00551823 -0.045148 0.00250945)
(0.00443651 -0.0199001 0.00475688)
(0.00329042 0.00635017 0.00727464)
(0.00206184 0.0277816 0.00862787)
(0.00101398 0.0357181 0.00772363)
(0.000253061 0.0246213 0.00397972)
(6.07948e-05 0.0248713 -0.000573818)
(0.000743756 0.0491378 -0.00316819)
(0.00143468 0.0549572 -0.00476174)
(0.00199084 0.0529683 -0.00545177)
(0.00248364 0.0452807 -0.0053054)
(0.00283583 0.0321825 -0.00378148)
(0.00329737 0.0140402 -0.000488818)
(0.00427853 -0.00977064 0.00399238)
(0.00585681 -0.0379764 0.00768057)
(0.00755179 -0.0661331 0.00887848)
(0.00881694 -0.0898314 0.00776884)
(0.00948262 -0.107567 0.00566969)
(0.00969649 -0.120205 0.00363936)
(0.0096699 -0.129205 0.00206449)
(0.00955716 -0.135687 0.000932017)
(0.00944428 -0.1403 0.000120498)
(0.00937095 -0.143394 -0.000477425)
(0.00934949 -0.145162 -0.000932174)
(0.0093778 -0.145709 -0.00128338)
(0.00944785 -0.145072 -0.00154999)
(0.00954892 -0.143239 -0.00173886)
(0.00966575 -0.140141 -0.00185035)
(0.00977715 -0.135628 -0.00188282)
(0.00985389 -0.129438 -0.00183778)
(0.00985428 -0.121168 -0.00172879)
(0.0097189 -0.110319 -0.00159518)
(0.00937278 -0.0965242 -0.00150379)
(0.00873591 -0.079823 -0.00148398)
(0.00774724 -0.0606791 -0.00136019)
(0.0064092 -0.0394816 -0.000663055)
(0.00483645 -0.0161271 0.00105501)
(0.00323659 0.00848553 0.00349514)
(0.00174294 0.0291802 0.00523766)
(0.000699829 0.0365493 0.00495425)
(0.000125395 0.0254544 0.00248767)
(-0.000191144 0.0239816 0.00154466)
(-0.000420401 0.0466495 0.000887081)
(-0.000543178 0.0522231 8.04189e-05)
(-0.000620366 0.0501279 0.000118404)
(-0.000576696 0.0413172 0.00161021)
(-8.74953e-06 0.0241711 0.00503821)
(0.00146664 -0.00151125 0.00917103)
(0.0035984 -0.032679 0.0114759)
(0.00560432 -0.0629757 0.0105959)
(0.00683285 -0.0872638 0.00760257)
(0.0072297 -0.104575 0.00444187)
(0.00713067 -0.11674 0.00217322)
(0.0068633 -0.125786 0.000828423)
(0.00660386 -0.132869 8.17303e-05)
(0.00642756 -0.13844 -0.000354759)
(0.00635259 -0.142653 -0.000652216)
(0.00637133 -0.145584 -0.000893617)
(0.00646696 -0.147294 -0.0011121)
(0.00662283 -0.147809 -0.00131631)
(0.00682605 -0.147131 -0.00150453)
(0.00706196 -0.145214 -0.00166982)
(0.00731223 -0.141946 -0.00180141)
(0.00755282 -0.137118 -0.00188468)
(0.00775166 -0.13038 -0.00190098)
(0.00786705 -0.121223 -0.00182977)
(0.00784817 -0.109035 -0.00166466)
(0.00764411 -0.0933059 -0.00145497)
(0.00720954 -0.0738572 -0.00134339)
(0.00649433 -0.0511893 -0.00146746)
(0.0054444 -0.026676 -0.00164931)
(0.00407034 -0.00212089 -0.00129527)
(0.00255377 0.0203611 -9.33918e-05)
(0.00124691 0.0366014 0.00115233)
(0.0003574 0.0409667 0.00135715)
(-2.5105e-05 0.0262618 0.000477502)
(-0.000279512 0.0259737 0.00346192)
(-0.00120294 0.0489174 0.00539794)
(-0.00202328 0.0538794 0.00603318)
(-0.00253069 0.0497429 0.00734256)
(-0.00243509 0.0350837 0.00993705)
(-0.00123013 0.00941871 0.0122016)
(0.000645729 -0.0218595 0.0116607)
(0.00221931 -0.050574 0.00813748)
(0.00291288 -0.0721793 0.00391422)
(0.00293996 -0.0877282 0.0009642)
(0.00273465 -0.100184 -0.000471125)
(0.00256561 -0.111248 -0.000996716)
(0.00253142 -0.121132 -0.00117336)
(0.00262605 -0.12948 -0.00129146)
(0.00280975 -0.136091 -0.0014358)
(0.00304774 -0.141023 -0.00160058)
(0.00332392 -0.144422 -0.00176172)
(0.00363295 -0.146428 -0.00190245)
(0.00396936 -0.147127 -0.00201484)
(0.00432464 -0.146542 -0.00209543)
(0.00468691 -0.144628 -0.00214131)
(0.00503995 -0.141257 -0.00214776)
(0.00536126 -0.136181 -0.00210756)
(0.00561882 -0.128995 -0.00201258)
(0.00576914 -0.119152 -0.00186044)
(0.00575678 -0.106081 -0.00167217)
(0.00552565 -0.0894471 -0.00150815)
(0.00504216 -0.0693057 -0.00146011)
(0.00432117 -0.0461735 -0.00160145)
(0.00343178 -0.0211231 -0.00187983)
(0.0024655 0.00401758 -0.00201611)
(0.00149196 0.02634 -0.00172061)
(0.000685077 0.0410777 -0.00121577)
(0.00014512 0.0438353 -0.000965451)
(-5.2765e-05 0.0267414 -0.000752381)
(-0.00031411 0.0291631 0.00467978)
(-0.00151888 0.0529833 0.00902009)
(-0.00269043 0.0554094 0.0109526)
(-0.00334796 0.0447571 0.0123051)
(-0.00317962 0.0207191 0.0123774)
(-0.00234367 -0.00992219 0.00946863)
(-0.00183648 -0.0379061 0.00455688)
(-0.00201944 -0.0594088 0.000434233)
(-0.00256488 -0.0765302 -0.00170601)
(-0.00310759 -0.0918147 -0.00244604)
(-0.00346291 -0.105779 -0.00263382)
(-0.00359981 -0.117805 -0.0027315)
(-0.00357792 -0.127494 -0.00284818)
(-0.00345643 -0.13498 -0.00294853)
(-0.00326067 -0.140643 -0.00299671)
(-0.00300248 -0.144812 -0.00298407)
(-0.0026906 -0.147684 -0.00291835)
(-0.00233384 -0.149347 -0.00281191)
(-0.00194131 -0.149813 -0.00267526)
(-0.00152243 -0.149042 -0.00251382)
(-0.0010871 -0.14693 -0.00232603)
(-0.000645587 -0.143291 -0.00210152)
(-0.000207686 -0.137799 -0.00181973)
(0.000211607 -0.129947 -0.00145291)
(0.000598781 -0.11906 -0.000985267)
(0.000938038 -0.10443 -0.000466023)
(0.00118857 -0.0856451 -6.65532e-05)
(0.00127961 -0.0629673 -5.60258e-05)
(0.00112128 -0.0376453 -0.000602799)
(0.000688763 -0.0116771 -0.00152799)
(0.000114439 0.0127112 -0.00236254)
(-0.00034092 0.0328331 -0.00273936)
(-0.000508334 0.0446048 -0.00268621)
(-0.000435914 0.045211 -0.00238075)
(-0.000165716 0.026343 -0.0014055)
(-0.000203974 0.03153 0.00464688)
(-0.00111986 0.0557273 0.00993988)
(-0.00212325 0.055516 0.0118785)
(-0.00277061 0.0399387 0.0112957)
(-0.00305348 0.0134161 0.00762676)
(-0.00345021 -0.0136471 0.00213416)
(-0.00427154 -0.035695 -0.0023754)
(-0.00524306 -0.0537002 -0.00481554)
(-0.00611027 -0.0697926 -0.00573537)
(-0.0067708 -0.0847837 -0.00581954)
(-0.00719351 -0.0985718 -0.00549081)
(-0.00738484 -0.110867 -0.00500534)
(-0.00737182 -0.121419 -0.00450952)
(-0.00719698 -0.13011 -0.00406703)
(-0.00690889 -0.136989 -0.00368763)
(-0.00655027 -0.142202 -0.00335784)
(-0.00615336 -0.145902 -0.00306119)
(-0.00574066 -0.148208 -0.00278528)
(-0.00532748 -0.149177 -0.00252149)
(-0.00492441 -0.148806 -0.00226183)
(-0.00453901 -0.147027 -0.00199473)
(-0.00417612 -0.143678 -0.00169959)
(-0.00383581 -0.138477 -0.00133999)
(-0.00350948 -0.130981 -0.0008584)
(-0.00317747 -0.120572 -0.000186636)
(-0.00280385 -0.106475 0.000700865)
(-0.00235071 -0.0879525 0.00168024)
(-0.00181447 -0.0647509 0.00237976)
(-0.00128523 -0.0378988 0.0023015)
(-0.000916956 -0.0100393 0.00128345)
(-0.000766217 0.0153791 -0.000179985)
(-0.000701243 0.0350324 -0.00135875)
(-0.000579159 0.0453468 -0.00187727)
(-0.000353325 0.0447399 -0.00180798)
(-7.33966e-05 0.0252992 -0.000954946)
(-9.65664e-05 0.0326254 0.00336442)
(-0.000694654 0.0568099 0.00778063)
(-0.00153256 0.055266 0.0085965)
(-0.00234631 0.0384961 0.00604821)
(-0.00325625 0.0135818 0.000772466)
(-0.0043521 -0.010142 -0.00443249)
(-0.00553817 -0.030211 -0.00762035)
(-0.00665496 -0.0480743 -0.00874724)
(-0.00762388 -0.0652583 -0.00843975)
(-0.00837678 -0.0822027 -0.00737867)
(-0.00885252 -0.0983171 -0.0061865)
(-0.00903797 -0.112593 -0.00524965)
(-0.0089783 -0.124337 -0.00463972)
(-0.00874727 -0.133477 -0.00425398)
(-0.00841358 -0.140343 -0.00397579)
(-0.0080272 -0.145338 -0.00373253)
(-0.0076211 -0.148763 -0.00349001)
(-0.00721609 -0.150798 -0.00323626)
(-0.00682502 -0.151522 -0.00296952)
(-0.00645598 -0.150936 -0.00269031)
(-0.00611419 -0.14897 -0.00239549)
(-0.00580239 -0.145476 -0.00207192)
(-0.00551949 -0.14021 -0.00168798)
(-0.00525739 -0.132824 -0.00118303)
(-0.0049955 -0.122853 -0.0004615)
(-0.00468869 -0.109665 0.000585787)
(-0.00426511 -0.0924657 0.00199179)
(-0.00364589 -0.0705403 0.00353388)
(-0.00282189 -0.0440648 0.00461119)
(-0.00193733 -0.0152134 0.0045532)
(-0.00121544 0.0118939 0.00335375)
(-0.000729554 0.0328054 0.00182209)
(-0.00041978 0.0436941 0.00078458)
(-0.000173913 0.0432513 0.00033333)
(-6.53931e-07 0.0245027 0.000219699)
(0.00011424 0.0322157 0.00128446)
(0.000110113 0.0567804 0.00381435)
(-0.000241265 0.0561661 0.00357451)
(-0.000877985 0.0418216 0.000408212)
(-0.00188181 0.0202692 -0.00473051)
(-0.00304569 -0.000600377 -0.00911207)
(-0.00422351 -0.0190515 -0.0114089)
(-0.00533809 -0.0362951 -0.0117265)
(-0.00635164 -0.0536286 -0.0106614)
(-0.0071974 -0.0713511 -0.00894011)
(-0.00780374 -0.088726 -0.00725236)
(-0.00814257 -0.104565 -0.00599113)
(-0.00823707 -0.117947 -0.00517528)
(-0.00814154 -0.128568 -0.00464376)
(-0.00791786 -0.136642 -0.00425096)
(-0.00761932 -0.142563 -0.00391684)
(-0.00728575 -0.146689 -0.00360726)
(-0.00694378 -0.14926 -0.00331105)
(-0.00660995 -0.150405 -0.00302685)
(-0.00629397 -0.150162 -0.00275573)
(-0.00600101 -0.148489 -0.00249649)
(-0.00573284 -0.145262 -0.00224093)
(-0.00548811 -0.140268 -0.00196637)
(-0.00526191 -0.133227 -0.00162244)
(-0.00504284 -0.123816 -0.00111148)
(-0.00480522 -0.111651 -0.000274951)
(-0.00449111 -0.0961458 0.00107545)
(-0.00399868 -0.0764618 0.00300877)
(-0.00323059 -0.0519536 0.00519436)
(-0.00221177 -0.0235293 0.00677107)
(-0.00117575 0.00510539 0.0069284)
(-0.00040264 0.0283738 0.00585007)
(-1.22774e-05 0.0412689 0.00451456)
(0.00011874 0.0419236 0.00334245)
(8.73729e-05 0.0242082 0.00173324)
(0.000248441 0.0298125 -0.00090364)
(0.00083913 0.0548612 -0.000741282)
(0.00113164 0.0565549 -0.00174189)
(0.00106725 0.0471908 -0.00450519)
(0.000561211 0.0297655 -0.00878997)
(-0.000266271 0.0110864 -0.0122303)
(-0.0011972 -0.00675061 -0.0136591)
(-0.00209327 -0.0244211 -0.0130353)
(-0.00289509 -0.0430735 -0.0108656)
(-0.00352515 -0.0629976 -0.00803892)
(-0.0039207 -0.0831209 -0.00558266)
(-0.00409766 -0.101592 -0.00406822)
(-0.00411747 -0.116994 -0.00338938)
(-0.00403133 -0.128919 -0.00315816)
(-0.00387601 -0.137731 -0.00308165)
(-0.00367973 -0.144018 -0.00302916)
(-0.00346561 -0.148294 -0.0029622)
(-0.00325179 -0.150901 -0.00287615)
(-0.00305072 -0.152029 -0.00277621)
(-0.00287003 -0.151755 -0.00266939)
(-0.00271385 -0.150064 -0.00256172)
(-0.00258397 -0.146858 -0.00245644)
(-0.00248113 -0.141945 -0.00235049)
(-0.00240634 -0.135065 -0.00222522)
(-0.00236351 -0.125957 -0.00202476)
(-0.00235216 -0.114408 -0.00162112)
(-0.00235162 -0.100178 -0.00078722)
(-0.00229203 -0.0827354 0.000763242)