/*--------------------------------*- C++ -*----------------------------------*\
| =========                 |                                                 |
| \\      /  F ield         | OpenFOAM: The Open Source CFD Toolbox           |
|  \\    /   O peration     | Version:  v1906                                 |
|   \\  /    A nd           | Web:      www.OpenFOAM.com                      |
|    \\/     M anipulation  |                                                 |
\*---------------------------------------------------------------------------*/
FoamFile
{
    version     2.0;
    format      ascii;
    class       surfaceScalarField;
    location    "41.4/oil";
    object      phi;
}
// * * * * * * * * * * * * * * * * * * * * * * * * * * * * * * * * * * * * * //

dimensions      [1 0 -1 0 0 0 0];
oriented        oriented;


internalField   nonuniform List<scalar> 
80688
(
-2.31966e-06
-2.35962e-06
-2.31966e-06
-1.04773e-06
-6.57768e-07
-6.14164e-07
-2.85236e-07
-3.83771e-07
-3.78723e-07
-1.4079e-07
-7.26531e-08
-7.17923e-08
-5.73078e-08
-4.21991e-08
-4.12835e-08
-1.78034e-08
-2.02602e-08
-1.92442e-08
2.78291e-09
-1.08017e-08
-9.78473e-09
1.37692e-08
-6.01361e-09
-4.97274e-09
1.92603e-08
-3.3243e-09
-2.16689e-09
2.1072e-08
-1.59606e-09
-2.15611e-10
2.01263e-08
-3.53817e-10
1.29948e-09
1.69756e-08
6.05377e-10
2.54529e-09
1.21077e-08
1.33129e-09
3.53651e-09
6.03364e-09
1.83139e-09
4.24269e-09
-6.91292e-10
2.10068e-09
4.62423e-09
-7.48719e-09
2.13539e-09
4.66049e-09
-1.37902e-08
1.9436e-09
4.35936e-09
-1.90996e-08
1.54869e-09
3.76074e-09
-2.30237e-08
9.89135e-10
2.93498e-09
-2.53043e-08
3.07831e-10
1.97274e-09
-2.58502e-08
-4.2715e-10
9.73053e-10
-2.47239e-08
-1.16742e-09
4.10148e-11
-2.21146e-08
-1.86651e-09
-7.42765e-10
-1.83563e-08
-2.4754e-09
-1.28288e-09
-1.38885e-08
-2.94225e-09
-1.52563e-09
-9.23844e-09
-3.20127e-09
-1.44876e-09
-4.99786e-09
-3.15887e-09
-1.08172e-09
-1.77342e-09
-2.68682e-09
-5.37636e-10
-7.23715e-11
-1.63276e-09
-6.83092e-11
-1.51538e-10
7.9153e-11
-6.24751e-07
-1.11012e-06
-6.24749e-07
-3.74548e-07
-4.06247e-07
-5.01723e-07
-2.68127e-07
-2.74519e-07
-2.15673e-07
-1.32058e-07
-1.21162e-07
-8.75597e-08
-5.49241e-08
-7.43728e-08
-4.49606e-08
-1.00942e-08
-4.59266e-08
-1.91636e-08
1.71416e-08
-3.2205e-08
-5.83256e-09
3.32835e-08
-2.42577e-08
2.10211e-09
4.17251e-08
-1.92303e-08
7.46441e-09
4.4163e-08
-1.56238e-08
1.15898e-08
4.16016e-08
-1.28108e-08
1.50183e-08
3.4849e-08
-1.05502e-08
1.79082e-08
2.47415e-08
-8.78615e-09
2.02249e-08
1.2243e-08
-7.54551e-09
2.18755e-08
-1.55525e-09
-6.8671e-09
2.2766e-08
-1.54945e-08
-6.77184e-09
2.28464e-08
-2.84418e-08
-7.24104e-09
2.2132e-08
-3.93918e-08
-8.21008e-09
2.07087e-08
-4.75559e-08
-9.5734e-09
1.87266e-08
-5.24283e-08
-1.11945e-08
1.63746e-08
-5.38091e-08
-1.29207e-08
1.38744e-08
-5.18139e-08
-1.45949e-08
1.14323e-08
-4.68521e-08
-1.60617e-08
9.23336e-09
-3.958e-08
-1.71661e-08
7.41863e-09
-3.08564e-08
-1.77386e-08
6.07266e-09
-2.1682e-08
-1.75724e-08
5.19665e-09
-1.31217e-08
-1.63995e-08
4.68031e-09
-6.19009e-09
-1.38767e-08
4.25826e-09
-1.67774e-09
-9.5963e-09
3.45116e-09
-3.51471e-09
1.68542e-09
-3.89077e-07
-3.31966e-07
-3.89076e-07
-2.60448e-07
-3.1417e-07
-2.20707e-07
-1.7425e-07
-2.24076e-07
-1.36642e-07
-8.93436e-08
-1.38286e-07
-6.77823e-08
-3.24804e-08
-9.9542e-08
-3.1694e-08
6.56112e-09
-7.52807e-08
-9.68748e-09
3.2678e-08
-6.16526e-08
3.33061e-09
4.91782e-08
-5.27745e-08
1.20165e-08
5.78762e-08
-4.64462e-08
1.85179e-08
5.98067e-08
-4.14383e-08
2.38838e-08
5.57282e-08
-3.72513e-08
2.8519e-08
4.64163e-08
-3.37334e-08
3.24951e-08
3.28395e-08
-3.09158e-08
3.57064e-08
1.61926e-08
-2.89006e-08
3.8002e-08
-2.12582e-09
-2.77878e-08
3.92391e-08
-2.06162e-08
-2.76267e-08
3.93452e-08
-3.78058e-08
-2.83893e-08
3.83378e-08
-5.23824e-08
-2.99642e-08
3.63307e-08
-6.33221e-08
-3.21602e-08
3.35264e-08
-6.99622e-08
-3.4734e-08
3.01796e-08
-7.20559e-08
-3.74074e-08
2.65803e-08
-6.97552e-08
-3.98922e-08
2.29966e-08
-6.35884e-08
-4.18992e-08
1.96708e-08
-5.43905e-08
-4.31336e-08
1.67695e-08
-4.32347e-08
-4.32747e-08
1.43804e-08
-3.13431e-08
-4.19436e-08
1.24796e-08
-1.99733e-08
-3.86684e-08
1.0899e-08
-1.02939e-08
-3.28377e-08
9.28164e-09
-3.28e-09
-2.36349e-08
7.02462e-09
-1.00825e-08
3.28781e-09
-7.46466e-08
-1.82675e-07
-7.46448e-08
-9.92642e-08
-2.02078e-07
-8.74745e-08
-7.79231e-08
-1.78678e-07
-6.67388e-08
-3.79847e-08
-1.4349e-07
-3.47337e-08
-2.15486e-09
-1.22287e-07
-1.30845e-08
2.7146e-08
-1.06875e-07
2.29352e-09
4.89823e-08
-9.65325e-08
1.30436e-08
6.35937e-08
-8.86524e-08
2.12665e-08
7.11883e-08
-8.21529e-08
2.8112e-08
7.19953e-08
-7.64092e-08
3.41639e-08
6.63847e-08
-7.12351e-08
3.95944e-08
5.49909e-08
-6.66835e-08
4.43439e-08
3.87937e-08
-6.29373e-08
4.82186e-08
1.91092e-08
-6.02172e-08
5.10011e-08
-2.47662e-09
-5.87023e-08
5.25003e-08
-2.42375e-08
-5.84838e-08
5.2618e-08
-4.44694e-08
-5.9529e-08
5.13715e-08
-6.16553e-08
-6.16767e-08
4.88984e-08
-7.46075e-08
-6.46487e-08
4.54407e-08
-8.25707e-08
-6.80791e-08
4.13083e-08
-8.5263e-08
-7.15544e-08
3.68392e-08
-8.28699e-08
-7.46424e-08
3.2357e-08
-7.59914e-08
-7.69107e-08
2.8133e-08
-6.5571e-08
-7.79083e-08
2.43544e-08
-5.27958e-08
-7.71584e-08
2.11085e-08
-3.89939e-08
-7.40985e-08
1.8353e-08
-2.55217e-08
-6.80261e-08
1.58855e-08
-1.36501e-08
-5.80015e-08
1.32922e-08
-4.57527e-09
-4.25924e-08
9.88272e-09
-1.92422e-08
4.58436e-09
-3.77099e-08
-1.07258e-07
-3.77072e-08
-4.49259e-08
-1.53978e-07
-4.08836e-08
-3.05317e-08
-1.63932e-07
-2.91408e-08
-4.90044e-09
-1.56862e-07
-1.226e-08
2.12285e-08
-1.49791e-07
1.3751e-09
4.46032e-08
-1.42608e-07
1.23579e-08
6.31449e-08
-1.36301e-07
2.12269e-08
7.58822e-08
-1.30265e-07
2.88756e-08
8.22051e-08
-1.24319e-07
3.58431e-08
8.18326e-08
-1.18402e-07
4.23655e-08
7.48397e-08
-1.1266e-07
4.84179e-08
6.17318e-08
-1.07382e-07
5.38064e-08
4.34673e-08
-1.02926e-07
5.8253e-08
2.14313e-08
-9.96404e-08
6.14592e-08
-2.65722e-09
-9.78002e-08
6.31864e-08
-2.6908e-08
-9.75401e-08
6.33071e-08
-4.94442e-08
-9.88276e-08
6.18347e-08
-6.85957e-08
-1.01455e-07
5.89301e-08
-8.30612e-08
-1.05059e-07
5.48762e-08
-9.20211e-08
-1.09155e-07
5.00362e-08
-9.51781e-08
-1.13201e-07
4.48031e-08
-9.27428e-08
-1.16621e-07
3.9543e-08
-8.53742e-08
-1.18832e-07
3.45528e-08
-7.40813e-08
-1.19245e-07
3.00434e-08
-6.01198e-08
-1.17221e-07
2.61015e-08
-4.48814e-08
-1.1201e-07
2.26734e-08
-2.9783e-08
-1.02657e-07
1.95328e-08
-1.61964e-08
-8.78099e-08
1.62217e-08
-5.53207e-09
-6.52351e-08
1.19783e-08
-3.03174e-08
5.54311e-09
-1.30318e-08
-8.11976e-08
-1.30283e-08
-1.23939e-08
-1.41383e-07
-1.32333e-08
-8.93943e-10
-1.68795e-07
-6.63689e-09
1.8112e-08
-1.78743e-07
2.87482e-09
3.89246e-08
-1.82428e-07
1.18243e-08
5.85502e-08
-1.82258e-07
2.0025e-08
7.47037e-08
-1.80033e-07
2.75785e-08
8.58952e-08
-1.76264e-07
3.48076e-08
9.10848e-08
-1.71402e-07
4.18929e-08
8.96726e-08
-1.65826e-07
4.88364e-08
8.15306e-08
-1.59978e-07
5.54594e-08
6.70527e-08
-1.54358e-07
6.14536e-08
4.71669e-08
-1.49488e-07
6.6448e-08
2.33084e-08
-1.45847e-07
7.00654e-08
-2.70744e-09
-1.43794e-07
7.20101e-08
-2.88627e-08
-1.43511e-07
7.21263e-08
-5.3148e-08
-1.44968e-07
7.04252e-08
-7.37724e-08
-1.47918e-07
6.7087e-08
-8.93521e-08
-1.51921e-07
6.24417e-08
-9.90268e-08
-1.56393e-07
5.69122e-08
-1.02498e-07
-1.60677e-07
5.0948e-08
-1.00007e-07
-1.64068e-07
4.4955e-08
-9.2257e-08
-1.65861e-07
3.92795e-08
-8.03079e-08
-1.65331e-07
3.41369e-08
-6.54621e-08
-1.61687e-07
2.96195e-08
-4.91502e-08
-1.53987e-07
2.56645e-08
-3.28417e-08
-1.40995e-07
2.20287e-08
-1.79907e-08
-1.2088e-07
1.82195e-08
-6.18778e-09
-9.04476e-08
1.34096e-08
-4.2706e-08
6.20085e-09
-2.57151e-09
-7.60588e-08
-2.56724e-09
2.94999e-09
-1.47232e-07
3.27736e-10
1.51556e-08
-1.86531e-07
5.53033e-09
3.22016e-08
-2.07809e-07
1.20201e-08
5.07554e-08
-2.1963e-07
1.86474e-08
6.84281e-08
-2.25267e-07
2.53356e-08
8.31283e-08
-2.26876e-07
3.21426e-08
9.3256e-08
-2.25571e-07
3.9179e-08
9.76097e-08
-2.22204e-07
4.64491e-08
9.54194e-08
-2.17453e-07
5.38166e-08
8.64292e-08
-2.11983e-07
6.09954e-08
7.09551e-08
-2.06464e-07
6.75807e-08
4.99041e-08
-2.01546e-07
7.31087e-08
2.47329e-08
-1.97809e-07
7.71325e-08
-2.66509e-09
-1.9569e-07
7.92931e-08
-3.01766e-08
-1.954e-07
7.94008e-08
-5.5692e-08
-1.96917e-07
7.74647e-08
-7.73301e-08
-1.9997e-07
7.369e-08
-9.36506e-08
-2.04061e-07
6.84597e-08
-1.03768e-07
-2.08528e-07
6.22523e-08
-1.074e-07
-2.12624e-07
5.5579e-08
-1.04818e-07
-2.15556e-07
4.89065e-08
-9.6772e-08
-2.16512e-07
4.26048e-08
-8.43565e-08
-2.14656e-07
3.69098e-08
-6.89068e-08
-2.09055e-07
3.19181e-08
-5.18783e-08
-1.98572e-07
2.75568e-08
-3.47729e-08
-1.81667e-07
2.3567e-08
-1.91066e-08
-1.55979e-07
1.94326e-08
-6.58656e-09
-1.17245e-07
1.42776e-08
-5.58939e-08
6.60137e-09
2.22891e-09
-8.05213e-08
2.23359e-09
1.0788e-08
-1.62937e-07
7.14582e-09
2.39978e-08
-2.11785e-07
1.20443e-08
4.04699e-08
-2.41539e-07
1.7258e-08
5.79702e-08
-2.59872e-07
2.27421e-08
7.45355e-08
-2.70473e-07
2.86414e-08
8.82985e-08
-2.75703e-07
3.50639e-08
9.76984e-08
-2.77028e-07
4.20566e-08
1.01471e-07
-2.7552e-07
4.95428e-08
9.87801e-08
-2.72066e-07
5.73047e-08
8.92823e-08
-2.67471e-07
6.49863e-08
7.32366e-08
-2.62531e-07
7.21126e-08
5.15212e-08
-2.5797e-07
7.81401e-08
2.56104e-08
-2.54438e-07
8.25404e-08
-2.56309e-09
-2.52411e-07
8.48952e-08
-3.08254e-08
-2.52132e-07
8.49935e-08
-5.70033e-08
-2.53578e-07
8.28393e-08
-7.91589e-08
-2.56469e-07
7.8655e-08
-9.5822e-08
-2.60271e-07
7.28736e-08
-1.06104e-07
-2.64291e-07
6.60456e-08
-1.09747e-07
-2.67723e-07
5.8742e-08
-1.07063e-07
-2.69714e-07
5.14738e-08
-9.88281e-08
-2.69383e-07
4.46366e-08
-8.61679e-08
-2.65804e-07
3.84876e-08
-7.04315e-08
-2.57919e-07
3.31281e-08
-5.30793e-08
-2.44403e-07
2.84785e-08
-3.56177e-08
-2.23393e-07
2.42645e-08
-1.95894e-08
-1.9196e-07
1.99527e-08
-6.75676e-09
-1.44719e-07
1.46409e-08
-6.94234e-08
6.77271e-09
4.36361e-09
-8.92533e-08
4.36832e-09
1.44501e-08
-1.83394e-07
1.03702e-08
2.82578e-08
-2.40802e-07
1.52091e-08
4.44343e-08
-2.77566e-07
1.98503e-08
6.12513e-08
-3.01439e-07
2.47495e-08
7.70151e-08
-3.16457e-07
3.02197e-08
9.00584e-08
-3.25168e-07
3.64222e-08
9.88944e-08
-3.29256e-07
4.33922e-08
1.02282e-07
-3.29944e-07
5.10363e-08
9.93442e-08
-3.28223e-07
5.90946e-08
8.97098e-08
-3.24996e-07
6.71587e-08
7.35725e-08
-3.21093e-07
7.46988e-08
5.17822e-08
-3.17281e-07
8.1101e-08
2.58004e-08
-3.14239e-07
8.57827e-08
-2.42992e-09
-3.12468e-07
8.82873e-08
-3.07258e-08
-3.12209e-07
8.83736e-08
-5.68996e-08
-3.13448e-07
8.60434e-08
-7.90052e-08
-3.15902e-07
8.15389e-08
-9.55677e-08
-3.19047e-07
7.53385e-08
-1.05722e-07
-3.2217e-07
6.80324e-08
-1.09239e-07
-3.24444e-07
6.02385e-08
-1.06465e-07
-3.25013e-07
5.25247e-08
-9.81962e-08
-3.22962e-07
4.53108e-08
-8.55737e-08
-3.17291e-07
3.88648e-08
-6.9929e-08
-3.06841e-07
3.32767e-08
-5.27003e-08
-2.90097e-07
2.84655e-08
-3.53667e-08
-2.6489e-07
2.41635e-08
-1.94514e-08
-2.27697e-07
1.98212e-08
-6.70739e-09
-1.71989e-07
1.45266e-08
-8.28545e-08
6.72369e-09
5.16925e-09
-9.95962e-08
5.17367e-09
1.57252e-08
-2.05497e-07
1.15474e-08
2.94948e-08
-2.7083e-07
1.62589e-08
4.51175e-08
-3.13731e-07
2.0543e-08
6.11126e-08
-3.42498e-07
2.50645e-08
7.59953e-08
-3.61556e-07
3.0216e-08
8.82792e-08
-3.73655e-07
3.62029e-08
9.65582e-08
-3.80606e-07
4.30711e-08
9.96584e-08
-3.83753e-07
5.07086e-08
9.67123e-08
-3.84133e-07
5.88567e-08
8.73056e-08
-3.82666e-07
6.7077e-08
7.16065e-08
-3.80193e-07
7.47997e-08
5.04176e-08
-3.77475e-07
8.13831e-08
2.51533e-08
-3.75184e-07
8.62093e-08
-2.28809e-09
-3.738e-07
8.8773e-08
-2.97751e-08
-3.73569e-07
8.88468e-08
-5.51728e-08
-3.74482e-07
8.64316e-08
-7.65714e-08
-3.76262e-07
8.17585e-08
-9.25376e-08
-3.78408e-07
7.53266e-08
-1.02252e-07
-3.80229e-07
6.7773e-08
-1.05517e-07
-3.80936e-07
5.9757e-08
-1.02704e-07
-3.79672e-07
5.18454e-08
-9.46214e-08
-3.75526e-07
4.44804e-08
-8.23757e-08
-3.6747e-07
3.79337e-08
-6.72622e-08
-3.54254e-07
3.23e-08
-5.06574e-08
-3.34203e-07
2.75009e-08
-3.39836e-08
-3.04814e-07
2.32504e-08
-1.86844e-08
-2.62016e-07
1.90204e-08
-6.44014e-09
-1.98167e-07
1.39334e-08
-9.57507e-08
6.456e-09
5.23036e-09
-1.1006e-07
5.23376e-09
1.54508e-08
-2.27159e-07
1.14416e-08
2.84998e-08
-2.99749e-07
1.58697e-08
4.30666e-08
-3.48091e-07
1.97926e-08
5.78597e-08
-3.81223e-07
2.39321e-08
7.15704e-08
-4.03989e-07
2.87224e-08
8.28644e-08
-4.19331e-07
3.43817e-08
9.04807e-08
-4.29178e-07
4.0956e-08
9.33156e-08
-4.3493e-07
4.83419e-08
9.05405e-08
-4.37636e-07
5.62772e-08
8.17444e-08
-4.3819e-07
6.43203e-08
6.70585e-08
-4.37415e-07
7.19071e-08
4.72157e-08
-4.36017e-07
7.8384e-08
2.35479e-08
-4.34644e-07
8.31276e-08
-2.15498e-09
-4.33732e-07
8.56346e-08
-2.78859e-08
-4.33533e-07
8.56945e-08
-5.16367e-08
-4.34032e-07
8.33009e-08
-7.15948e-08
-4.34981e-07
7.8677e-08
-8.64267e-08
-4.35902e-07
7.23265e-08
-9.53751e-08
-4.36147e-07
6.48669e-08
-9.82684e-08
-4.34997e-07
5.69545e-08
-9.55031e-08
-4.31613e-07
4.91757e-08
-8.78621e-08
-4.25136e-07
4.19693e-08
-7.63936e-08
-4.1453e-07
3.55914e-08
-6.23081e-08
-3.98476e-07
3.01362e-08
-4.68888e-08
-3.75152e-07
2.55294e-08
-3.14303e-08
-3.4178e-07
2.15075e-08
-1.72695e-08
-2.93739e-07
1.75615e-08
-5.95187e-09
-2.22342e-07
1.28571e-08
-1.07669e-07
5.96658e-09
4.81049e-09
-1.19684e-07
4.81294e-09
1.40451e-08
-2.46819e-07
1.04253e-08
2.5724e-08
-3.25795e-07
1.4367e-08
3.86569e-08
-3.78858e-07
1.78348e-08
5.17445e-08
-4.15829e-07
2.15183e-08
6.38509e-08
-4.4192e-07
2.58246e-08
7.38313e-08
-4.60271e-07
3.09594e-08
8.05893e-08
-4.72922e-07
3.69855e-08
8.3118e-08
-4.81261e-07
4.38027e-08
8.06787e-08
-4.86358e-07
5.1162e-08
7.28794e-08
-4.89045e-07
5.86538e-08
5.97898e-08
-4.90065e-07
6.57397e-08
4.20821e-08
-4.90097e-07
7.17886e-08
2.09283e-08
-4.89702e-07
7.62122e-08
-2.04091e-09
-4.89303e-07
7.8541e-08
-2.50231e-08
-4.89138e-07
7.85871e-08
-4.62092e-08
-4.89198e-07
7.63524e-08
-6.39744e-08
-4.89232e-07
7.20159e-08
-7.71059e-08
-4.88815e-07
6.60439e-08
-8.49322e-08
-4.87363e-07
5.90421e-08
-8.73611e-08
-4.84205e-07
5.16364e-08
-8.475e-08
-4.78607e-07
4.4383e-08
-7.78312e-08
-4.6974e-07
3.76854e-08
-6.75658e-08
-4.56577e-07
3.17814e-08
-5.50338e-08
-4.37774e-07
2.67659e-08
-4.13607e-08
-4.11384e-07
2.25588e-08
-2.76996e-08
-3.74367e-07
1.89255e-08
-1.52128e-08
-3.21643e-07
1.54177e-08
-5.23811e-09
-2.43604e-07
1.12872e-08
-1.18158e-07
5.25097e-09
4.04897e-09
-1.27784e-07
4.05091e-09
1.17603e-08
-2.63261e-07
8.73035e-09
2.14607e-08
-3.47489e-07
1.19936e-08
3.21798e-08
-4.04443e-07
1.48652e-08
4.30066e-08
-4.44604e-07
1.79483e-08
5.30405e-08
-4.73551e-07
2.15972e-08
6.13473e-08
-4.94561e-07
2.59832e-08
6.7006e-08
-5.09757e-07
3.1176e-08
6.91812e-08
-5.20525e-07
3.70886e-08
6.7219e-08
-5.27899e-07
4.35033e-08
6.07613e-08
-5.3265e-07
5.00629e-08
4.98566e-08
-5.35428e-07
5.62679e-08
3.50448e-08
-5.36845e-07
6.15593e-08
1.73105e-08
-5.37393e-07
6.5425e-08
-1.95269e-09
-5.3749e-07
6.74495e-08
-2.12161e-08
-5.37353e-07
6.74782e-08
-3.89507e-08
-5.36974e-07
6.55101e-08
-5.37494e-08
-5.36131e-07
6.16978e-08
-6.46109e-08
-5.34405e-07
5.64514e-08
-7.10007e-08
-5.31275e-07
5.03014e-08
-7.28535e-08
-5.26165e-07
4.38133e-08
-7.05081e-08
-5.18421e-07
3.74685e-08
-6.46042e-08
-5.07268e-07
3.16238e-08
-5.59675e-08
-4.91724e-07
2.65098e-08
-4.54959e-08
-4.70437e-07
2.21914e-08
-3.41421e-08
-4.41339e-07
1.86021e-08
-2.28363e-08
-4.01221e-07
1.55485e-08
-1.25238e-08
-3.44601e-07
1.26455e-08
-4.31211e-09
-2.61078e-07
9.26251e-09
-1.26793e-07
4.32292e-09
3.02579e-09
-1.33833e-07
3.02338e-09
8.75818e-09
-2.75478e-07
6.48542e-09
1.59625e-08
-3.63582e-07
8.88832e-09
2.39206e-08
-4.23434e-07
1.10331e-08
3.19901e-08
-4.66049e-07
1.33747e-08
3.95047e-08
-4.97252e-07
1.6186e-08
4.57733e-08
-5.20453e-07
1.96236e-08
5.01002e-08
-5.3781e-07
2.37264e-08
5.18475e-08
-5.5071e-07
2.84376e-08
5.04881e-08
-5.60117e-07
3.35774e-08
4.57151e-08
-5.66731e-07
3.88542e-08
3.75305e-08
-5.71132e-07
4.38884e-08
2.63061e-08
-5.73835e-07
4.82144e-08
1.28071e-08
-5.7528e-07
5.13859e-08
-1.89015e-09
-5.75837e-07
5.30444e-08
-1.65751e-08
-5.75723e-07
5.3055e-08
-3.00323e-08
-5.74935e-07
5.14181e-08
-4.1189e-08
-5.73243e-07
4.82681e-08
-4.92763e-08
-5.7029e-07
4.39731e-08
-5.39096e-08
-5.6561e-07
3.8969e-08
-5.508e-08
-5.58709e-07
3.37147e-08
-5.30951e-08
-5.49028e-07
2.86223e-08
-4.8471e-08
-5.35862e-07
2.39695e-08
-4.18481e-08
-5.18267e-07
1.9921e-08
-3.39232e-08
-4.94902e-07
1.65405e-08
-2.53939e-08
-4.63639e-07
1.37701e-08
-1.69442e-08
-4.21113e-07
1.14418e-08
-9.27961e-09
-3.61549e-07
9.28285e-09
-3.18827e-09
-2.73982e-07
6.81242e-09
-1.33178e-07
3.19673e-09
1.80082e-09
-1.37432e-07
1.79798e-09
5.19415e-09
-2.8269e-07
3.81815e-09
9.47932e-09
-3.73092e-07
5.22504e-09
1.42363e-08
-4.3471e-07
6.51862e-09
1.91054e-08
-4.78908e-07
7.98997e-09
2.37026e-08
-5.11666e-07
9.81761e-09
2.76134e-08
-5.36465e-07
1.21009e-08
3.04024e-08
-5.55467e-07
1.48678e-08
3.16579e-08
-5.70059e-07
1.80934e-08
3.09997e-08
-5.81138e-07
2.1679e-08
2.81775e-08
-5.89337e-07
2.54277e-08
2.3156e-08
-5.95163e-07
2.90525e-08
1.61218e-08
-5.99006e-07
3.22057e-08
7.54644e-09
-6.0127e-07
3.4565e-08
-1.85041e-09
-6.02253e-07
3.58129e-08
-1.12236e-08
-6.02154e-07
3.58045e-08
-1.9732e-08
-6.0097e-07
3.45434e-08
-2.66522e-08
-5.98498e-07
3.21752e-08
-3.15188e-08
-5.94438e-07
2.90145e-08
-3.41308e-08
-5.88399e-07
2.54006e-08
-3.45391e-08
-5.79989e-07
2.1688e-08
-3.30062e-08
-5.68696e-07
1.81356e-08
-2.98992e-08
-5.53911e-07
1.49424e-08
-2.56207e-08
-5.34765e-07
1.22191e-08
-2.06356e-08
-5.09865e-07
9.97791e-09
-1.53527e-08
-4.77107e-07
8.18537e-09
-1.01991e-08
-4.33003e-07
6.73614e-09
-5.56065e-09
-3.71633e-07
5.44614e-09
-1.9039e-09
-2.81651e-07
4.01242e-09
-1.36992e-07
1.91031e-09
4.35571e-10
-1.38298e-07
4.31013e-10
1.24905e-09
-2.84358e-07
8.54888e-10
2.28848e-09
-3.75288e-07
1.15704e-09
3.51153e-09
-4.37441e-07
1.50807e-09
4.85432e-09
-4.82259e-07
2.00868e-09
6.23538e-09
-5.15772e-07
2.72472e-09
7.54113e-09
-5.4147e-07
3.69932e-09
8.62322e-09
-5.61514e-07
4.96544e-09
9.30527e-09
-5.77259e-07
6.51826e-09
9.39992e-09
-5.89553e-07
8.32017e-09
8.74444e-09
-5.98971e-07
1.02894e-08
7.21535e-09
-6.05942e-07
1.2308e-08
4.8155e-09
-6.10775e-07
1.41689e-08
1.6982e-09
-6.13778e-07
1.56257e-08
-1.82531e-09
-6.15155e-07
1.64259e-08
-5.3152e-09
-6.15066e-07
1.64015e-08
-8.33691e-09
-6.13507e-07
1.55594e-08
-1.05793e-08
-6.10322e-07
1.40669e-08
-1.19102e-08
-6.05301e-07
1.21933e-08
-1.2319e-08
-5.98161e-07
1.01705e-08
-1.19487e-08
-5.88564e-07
8.20485e-09
-1.0952e-08
-5.7612e-07
6.42728e-09
-9.52226e-09
-5.60248e-07
4.90767e-09
-7.86561e-09
-5.40102e-07
3.67985e-09
-6.11052e-09
-5.14365e-07
2.74416e-09
-4.40376e-09
-4.80878e-07
2.0638e-09
-2.8313e-09
-4.36168e-07
1.59237e-09
-1.50031e-09
-3.74225e-07
1.26055e-09
-4.99577e-10
-2.83613e-07
9.61516e-10
-1.37996e-07
5.04291e-10
-1.00857e-09
-1.36277e-07
-1.01307e-09
-2.93015e-09
-2.80165e-07
-2.27207e-09
-5.29085e-09
-3.698e-07
-3.12822e-09
-7.79172e-09
-4.31167e-07
-3.77275e-09
-1.01586e-08
-4.75585e-07
-4.30704e-09
-1.21786e-08
-5.0897e-07
-4.78219e-09
-1.36464e-08
-5.34772e-07
-5.23009e-09
-1.44107e-08
-5.55115e-07
-5.63537e-09
-1.43814e-08
-5.71321e-07
-5.96779e-09
-1.35482e-08
-5.84213e-07
-6.17376e-09
-1.19841e-08
-5.94324e-07
-6.21067e-09
-9.84134e-09
-6.02014e-07
-6.07064e-09
-7.31683e-09
-6.07517e-07
-5.78277e-09
-4.59665e-09
-6.11052e-07
-5.44628e-09
-1.80787e-09
-6.1272e-07
-5.22395e-09
1.02042e-09
-6.1264e-07
-5.25373e-09
3.85e-09
-6.10796e-07
-5.54146e-09
6.56192e-09
-6.07092e-07
-5.94201e-09
8.94338e-09
-6.01417e-07
-6.26493e-09
1.07901e-08
-5.93586e-07
-6.42136e-09
1.1937e-08
-5.8333e-07
-6.38067e-09
1.23018e-08
-5.70329e-07
-6.15608e-09
1.18869e-08
-5.5404e-07
-5.79341e-09
1.07739e-08
-5.33637e-07
-5.35143e-09
9.10849e-09
-5.07834e-07
-4.86509e-09
7.07194e-09
-4.74489e-07
-4.35201e-09
4.86927e-09
-4.30183e-07
-3.78201e-09
2.74516e-09
-3.68995e-07
-3.10554e-09
9.68657e-10
-2.79613e-07
-2.22435e-09
-1.36063e-07
-9.65031e-10
-2.46285e-09
-1.31343e-07
-2.47114e-09
-7.13283e-09
-2.70077e-07
-5.41779e-09
-1.29189e-08
-3.56568e-07
-7.44597e-09
-1.91538e-08
-4.15843e-07
-9.0892e-09
-2.52718e-08
-4.58795e-07
-1.06729e-08
-3.07259e-08
-4.91137e-07
-1.23786e-08
-3.50184e-08
-5.16197e-07
-1.42825e-08
-3.76902e-08
-5.36023e-07
-1.64193e-08
-3.83846e-08
-5.51894e-07
-1.8732e-08
-3.68883e-08
-5.64601e-07
-2.11077e-08
-3.31432e-08
-5.74674e-07
-2.3395e-08
-2.73317e-08
-5.82431e-07
-2.5394e-08
-1.98033e-08
-5.88092e-07
-2.69541e-08
-1.10928e-08
-5.91784e-07
-2.79783e-08
-1.79067e-09
-5.93568e-07
-2.84537e-08
7.55626e-09
-5.93488e-07
-2.84988e-08
1.63924e-08
-5.91529e-07
-2.81028e-08
2.4124e-08
-5.87676e-07
-2.71479e-08
3.02022e-08
-5.81869e-07
-2.56269e-08
3.42473e-08
-5.73979e-07
-2.36522e-08
3.60826e-08
-5.63791e-07
-2.13745e-08
3.57376e-08
-5.51e-07
-1.89845e-08
3.34168e-08
-5.35075e-07
-1.66445e-08
2.94782e-08
-5.15226e-07
-1.44731e-08
2.43525e-08
-4.90177e-07
-1.25312e-08
1.85473e-08
-4.57899e-07
-1.07853e-08
1.25785e-08
-4.15053e-07
-9.16081e-09
6.98976e-09
-3.55931e-07
-7.47555e-09
2.44237e-09
-2.69657e-07
-5.40789e-09
-1.31181e-07
-2.43919e-09
-3.86004e-09
-1.23615e-07
-3.86783e-09
-1.1157e-08
-2.54354e-07
-8.42614e-09
-2.02248e-08
-3.35933e-07
-1.15664e-08
-3.00418e-08
-3.91856e-07
-1.41707e-08
-3.97491e-08
-4.32329e-07
-1.67578e-08
-4.85113e-08
-4.62736e-07
-1.96387e-08
-5.55364e-08
-4.86204e-07
-2.29682e-08
-6.00808e-08
-5.04685e-07
-2.67937e-08
-6.15338e-08
-5.19375e-07
-3.10663e-08
-5.94468e-08
-5.31075e-07
-3.56127e-08
-5.3662e-08
-5.40295e-07
-4.0164e-08
-4.43384e-08
-5.47371e-07
-4.43841e-08
-3.19924e-08
-5.52516e-07
-4.79215e-08
-1.74555e-08
-5.55872e-07
-5.04494e-08
-1.76871e-09
-5.57498e-07
-5.17573e-08
1.39662e-08
-5.57411e-07
-5.18123e-08
2.86432e-08
-5.55615e-07
-5.05908e-08
4.1198e-08
-5.521e-07
-4.81304e-08
5.07935e-08
-5.46811e-07
-4.46532e-08
5.68969e-08
-5.39621e-07
-4.04614e-08
5.93293e-08
-5.30312e-07
-3.59119e-08
5.82364e-08
-5.18552e-07
-3.13547e-08
5.40441e-08
-5.03824e-07
-2.70587e-08
4.73682e-08
-4.85349e-07
-2.3201e-08
3.89301e-08
-4.61905e-07
-1.98339e-08
2.95108e-08
-4.31566e-07
-1.69131e-08
1.99373e-08
-3.91198e-07
-1.42817e-08
1.10536e-08
-3.35418e-07
-1.16293e-08
3.84866e-09
-2.54013e-07
-8.4397e-09
-1.23487e-07
-3.84537e-09
-5.13281e-09
-1.13342e-07
-5.14039e-09
-1.48169e-08
-2.33502e-07
-1.11682e-08
-2.68497e-08
-3.08587e-07
-1.5314e-08
-3.99136e-08
-3.60021e-07
-1.87709e-08
-5.28692e-08
-3.97135e-07
-2.2239e-08
-6.46321e-08
-4.2482e-07
-2.61533e-08
-7.41299e-08
-4.45964e-07
-3.07413e-08
-8.03802e-08
-4.62358e-07
-3.6077e-08
-8.25197e-08
-4.75153e-07
-4.20827e-08
-7.99235e-08
-4.85124e-07
-4.85481e-08
-7.23087e-08
-4.92783e-07
-5.51267e-08
-5.98195e-08
-4.98512e-07
-6.13482e-08
-4.30984e-08
-5.02574e-07
-6.66635e-08
-2.32465e-08
-5.0517e-07
-7.05531e-08
-1.73768e-09
-5.06406e-07
-7.26005e-08
1.98178e-08
-5.0632e-07
-7.26466e-08
3.98029e-08
-5.04915e-07
-7.06853e-08
5.67465e-08
-5.02173e-07
-6.68708e-08
6.9513e-08
-4.97968e-07
-6.1609e-08
7.74497e-08
-4.92138e-07
-5.54194e-08
8.0394e-08
-4.84403e-07
-4.88528e-08
7.86095e-08
-4.74386e-07
-4.23817e-08
7.2717e-08
-4.61574e-07
-3.63568e-08
6.35552e-08
-4.45194e-07
-3.09929e-08
5.21077e-08
-4.24088e-07
-2.63697e-08
3.94329e-08
-3.96476e-07
-2.24157e-08
2.65984e-08
-3.59461e-07
-1.89027e-08
1.47249e-08
-3.08149e-07
-1.53952e-08
5.12712e-09
-2.3322e-07
-1.11946e-08
-1.13237e-07
-5.12335e-09
-6.21315e-09
-1.00908e-07
-6.22091e-09
-1.79216e-08
-2.08305e-07
-1.34884e-08
-3.24763e-08
-2.75561e-07
-1.84709e-08
-4.82857e-08
-3.21576e-07
-2.26356e-08
-6.39948e-08
-3.5459e-07
-2.68362e-08
-7.82908e-08
-3.78941e-07
-3.15836e-08
-8.98802e-08
-3.97213e-07
-3.71621e-08
-9.75555e-08
-4.11015e-07
-4.36684e-08
-1.00256e-07
-4.21432e-07
-5.10211e-08
-9.72033e-08
-4.29188e-07
-5.89882e-08
-8.80167e-08
-4.34834e-07
-6.71358e-08
-7.28442e-08
-4.388e-07
-7.48845e-08
-5.24273e-08
-4.41431e-07
-8.156e-08
-2.81068e-08
-4.43004e-07
-8.64866e-08
-1.69674e-09
-4.43707e-07
-8.91095e-08
2.47605e-08
-4.43625e-07
-8.91519e-08
4.92183e-08
-4.42769e-07
-8.66043e-08
6.98428e-08
-4.41051e-07
-8.17469e-08
8.52922e-08
-4.38289e-07
-7.51291e-08
9.47976e-08
-4.34229e-07
-6.74148e-08
9.81941e-08
-4.28518e-07
-5.9282e-08
9.58442e-08
-4.20723e-07
-5.13131e-08
8.85215e-08
-4.10306e-07
-4.39455e-08
7.72618e-08
-3.96519e-07
-3.74154e-08
6.32746e-08
-3.78296e-07
-3.1805e-08
4.78323e-08
-3.54013e-07
-2.702e-08
3.22418e-08
-3.21095e-07
-2.27755e-08
1.78435e-08
-2.75191e-07
-1.85593e-08
6.2104e-09
-2.08067e-07
-1.352e-08
-1.0082e-07
-6.20599e-09
-7.05337e-09
-8.67938e-08
-7.06053e-09
-2.03297e-08
-1.79743e-07
-1.5285e-08
-3.68277e-08
-2.38152e-07
-2.09109e-08
-5.47664e-08
-2.78043e-07
-2.55942e-08
-7.26119e-08
-3.0644e-07
-3.03041e-08
-8.88646e-08
-3.27059e-07
-3.56294e-08
-1.02063e-07
-3.42131e-07
-4.18833e-08
-1.10815e-07
-3.53095e-07
-4.91676e-08
-1.13916e-07
-3.60918e-07
-5.74115e-08
-1.10468e-07
-3.66303e-07
-6.63322e-08
-1.00036e-07
-3.69816e-07
-7.54503e-08
-8.27737e-08
-3.71921e-07
-8.41406e-08
-5.95168e-08
-3.73055e-07
-9.1633e-08
-3.17816e-08
-3.73565e-07
-9.71744e-08
-1.6449e-09
-3.73717e-07
-1.00127e-07
2.85353e-08
-3.73641e-07
-1.00164e-07
5.64007e-08
-3.73344e-07
-9.72903e-08
7.98599e-08
-3.72699e-07
-9.18105e-08
9.73938e-08
-3.7146e-07
-8.43624e-08
1.08133e-07
-3.69263e-07
-7.57047e-08
1.11913e-07
-3.65696e-07
-6.66026e-08
1.09158e-07
-3.60284e-07
-5.76843e-08
1.00743e-07
-3.5246e-07
-4.94304e-08
8.78713e-08
-3.41522e-07
-4.21261e-08
7.19141e-08
-3.26494e-07
-3.58449e-08
5.43296e-08
-3.05943e-07
-3.04856e-08
3.66043e-08
-2.77639e-07
-2.57305e-08
2.02521e-08
-2.37843e-07
-2.09963e-08
7.0511e-09
-1.79549e-07
-1.53178e-08
-8.67227e-08
-7.04651e-09
-7.60806e-09
-7.1571e-08
-7.61481e-09
-2.1912e-08
-1.48979e-07
-1.64609e-08
-3.97009e-08
-1.97884e-07
-2.24795e-08
-5.9065e-08
-2.31212e-07
-2.74665e-08
-7.83595e-08
-2.54683e-07
-3.24628e-08
-9.59543e-08
-2.71371e-07
-3.80926e-08
-1.10241e-07
-2.83155e-07
-4.4689e-08
-1.19709e-07
-2.91264e-07
-5.23639e-08
-1.2305e-07
-2.9656e-07
-6.10165e-08
-1.19298e-07
-2.99708e-07
-7.03483e-08
-1.07994e-07
-3.01248e-07
-7.98721e-08
-8.92989e-08
-3.01694e-07
-8.89223e-08
-6.41447e-08
-3.01503e-07
-9.67062e-08
-3.41608e-08
-3.0109e-07
-1.02459e-07
-1.58063e-09
-3.00765e-07
-1.05532e-07
3.10412e-08
-3.00698e-07
-1.05565e-07
6.11469e-08
-3.00894e-07
-1.02555e-07
8.64985e-08
-3.01194e-07
-9.68576e-08
1.05438e-07
-3.01282e-07
-8.91178e-08
1.17043e-07
-3.00769e-07
-8.00993e-08
1.21116e-07
-2.99177e-07
-7.05915e-08
1.18108e-07
-2.96011e-07
-6.12652e-08
1.08969e-07
-2.90714e-07
-5.26062e-08
9.49935e-08
-2.82631e-07
-4.49154e-08
7.76891e-08
-2.70894e-07
-3.82956e-08
5.8648e-08
-2.54267e-07
-3.26353e-08
3.94843e-08
-2.30872e-07
-2.76037e-08
2.18383e-08
-1.9763e-07
-2.25674e-08
7.60536e-09
-1.48823e-07
-1.64923e-08
-7.15164e-08
-7.60096e-09
-7.83564e-09
-5.58943e-08
-7.84107e-09
-2.25705e-08
-1.17311e-07
-1.69323e-08
-4.09388e-08
-1.56433e-07
-2.30827e-08
-6.09932e-08
-1.83018e-07
-2.814e-08
-8.10249e-08
-2.0147e-07
-3.31814e-08
-9.93236e-08
-2.14225e-07
-3.88474e-08
-1.14194e-07
-2.22814e-07
-4.54707e-08
-1.24045e-07
-2.28257e-07
-5.31559e-08
-1.27505e-07
-2.31308e-07
-6.17923e-08
-1.23579e-07
-2.32553e-07
-7.10804e-08
-1.11807e-07
-2.32505e-07
-8.0515e-08
-9.23949e-08
-2.3166e-07
-8.94456e-08
-6.63064e-08
-2.30486e-07
-9.71056e-08
-3.52402e-08
-2.29406e-07
-1.0275e-07
-1.50307e-09
-2.2875e-07
-1.05752e-07
3.22726e-08
-2.28694e-07
-1.0578e-07
6.34528e-08
-2.29242e-07
-1.02832e-07
8.97215e-08
-2.30226e-07
-9.72367e-08
1.09372e-07
-2.31318e-07
-8.96148e-08
1.21423e-07
-2.32105e-07
-8.07142e-08
1.25654e-07
-2.32112e-07
-7.12956e-08
1.22506e-07
-2.3085e-07
-6.20143e-08
1.12974e-07
-2.27807e-07
-5.33745e-08
9.84002e-08
-2.2238e-07
-4.56771e-08
8.03777e-08
-2.13836e-07
-3.9035e-08
6.05854e-08
-2.01133e-07
-3.33419e-08
4.07267e-08
-1.82748e-07
-2.8265e-08
2.24985e-08
-1.56238e-07
-2.3163e-08
7.83107e-09
-1.17194e-07
-1.69617e-08
-5.58574e-08
-7.82791e-09
-7.69219e-09
-4.05037e-08
-7.69837e-09
-2.22083e-08
-8.61946e-08
-1.66007e-08
-4.03982e-08
-1.15661e-07
-2.25819e-08
-6.0386e-08
-1.35575e-07
-2.74552e-08
-8.04534e-08
-1.49112e-07
-3.22903e-08
-9.88512e-08
-1.58102e-07
-3.77258e-08
-1.1384e-07
-1.63738e-07
-4.40873e-08
-1.23776e-07
-1.66858e-07
-5.14633e-08
-1.27283e-07
-1.68063e-07
-5.97372e-08
-1.23363e-07
-1.67864e-07
-6.86091e-08
-1.11575e-07
-1.66705e-07
-7.75892e-08
-9.21523e-08
-1.65032e-07
-8.60509e-08
-6.6083e-08
-1.6328e-07
-9.32747e-08
-3.50704e-08
-1.61837e-07
-9.85815e-08
-1.40907e-09
-1.61009e-07
-1.01402e-07
3.22881e-08
-1.60965e-07
-1.01426e-07
6.34058e-08
-1.61708e-07
-9.86516e-08
8.96445e-08
-1.63079e-07
-9.33856e-08
1.09286e-07
-1.64767e-07
-8.61924e-08
1.2133e-07
-1.66391e-07
-7.77584e-08
1.25534e-07
-1.67518e-07
-6.87984e-08
1.22326e-07
-1.67707e-07
-5.99345e-08
1.12681e-07
-1.66503e-07
-5.16596e-08
9.79798e-08
-1.63405e-07
-4.42742e-08
7.98412e-08
-1.57801e-07
-3.78971e-08
6.00001e-08
-1.48854e-07
-3.24374e-08
4.0198e-08
-1.35375e-07
-2.75711e-08
2.21362e-08
-1.1552e-07
-2.26569e-08
7.68783e-09
-8.61172e-08
-1.66287e-08
-4.0483e-08
-7.68667e-09
-7.1262e-09
-2.62462e-08
-7.13133e-09
-2.07074e-08
-5.7264e-08
-1.53494e-08
-3.79422e-08
-7.7623e-08
-2.08032e-08
-5.71017e-08
-9.12198e-08
-2.51957e-08
-7.65125e-08
-1.00151e-07
-2.95502e-08
-9.4423e-08
-1.05711e-07
-3.44806e-08
-1.09077e-07
-1.08787e-07
-4.02971e-08
-1.1885e-07
-1.1001e-07
-4.70764e-08
-1.22365e-07
-1.09853e-07
-5.46943e-08
-1.18666e-07
-1.08708e-07
-6.28557e-08
-1.07338e-07
-1.06936e-07
-7.10965e-08
-8.86378e-08
-1.04898e-07
-7.88337e-08
-6.35349e-08
-1.02956e-07
-8.54267e-08
-3.36842e-08
-1.01431e-07
-9.02566e-08
-1.29418e-09
-1.00583e-07
-9.28165e-08
3.11282e-08
-1.00551e-07
-9.28369e-08
6.10742e-08
-1.01338e-07
-9.03165e-08
8.63295e-08
-1.02808e-07
-8.55265e-08
1.05231e-07
-1.04704e-07
-7.89648e-08
1.16793e-07
-1.06706e-07
-7.12472e-08
1.20754e-07
-1.08457e-07
-6.30215e-08
1.17507e-07
-1.09592e-07
-5.48684e-08
1.0801e-07
-1.09754e-07
-4.72506e-08
9.36153e-08
-1.08546e-07
-4.04647e-08
7.59454e-08
-1.05496e-07
-3.4635e-08
5.67457e-08
-9.99707e-08
-2.9684e-08
3.77558e-08
-9.10827e-08
-2.53022e-08
2.06413e-08
-7.7532e-08
-2.08732e-08
7.12081e-09
-5.72197e-08
-1.5377e-08
-2.62398e-08
-7.12234e-09
-6.06895e-09
-1.41035e-08
-6.07381e-09
-1.7955e-08