/*--------------------------------*- C++ -*----------------------------------*\
| =========                 |                                                 |
| \\      /  F ield         | OpenFOAM: The Open Source CFD Toolbox           |
|  \\    /   O peration     | Version:  v1912                                 |
|   \\  /    A nd           | Website:  www.openfoam.com                      |
|    \\/     M anipulation  |                                                 |
\*---------------------------------------------------------------------------*/
FoamFile
{
    version     2.0;
    format      ascii;
    class       surfaceScalarField;
    location    "300/oil";
    object      phi;
}
// * * * * * * * * * * * * * * * * * * * * * * * * * * * * * * * * * * * * * //

dimensions      [1 0 -1 0 0 0 0];
oriented        oriented;


internalField   nonuniform List<scalar> 
80688
(
-6.87148e-07
-7.33008e-07
-6.82382e-07
-4.6188e-07
-1.14998e-07
-1.1027e-07
1.00071e-07
-2.34737e-07
-3.27214e-07
-1.75824e-07
1.89902e-07
8.59927e-08
-1.58323e-07
4.21653e-08
-5.96653e-08
-2.36629e-07
8.96435e-08
-1.1338e-08
-2.55958e-07
5.86547e-08
-3.93251e-08
-2.90163e-07
6.52478e-08
-3.10435e-08
-3.02931e-07
5.23758e-08
-3.96069e-08
-3.17622e-07
5.14461e-08
-3.67551e-08
-3.17393e-07
4.11615e-08
-4.13906e-08
-3.15971e-07
3.79491e-08
-3.93711e-08
-3.02957e-07
2.92792e-08
-4.22929e-08
-2.87478e-07
2.53168e-08
-4.07954e-08
-2.64806e-07
1.94602e-08
-4.21324e-08
-2.39169e-07
1.56283e-08
-4.12656e-08
-2.11834e-07
1.34814e-08
-4.08156e-08
-1.81434e-07
1.02622e-08
-4.0663e-08
-1.54575e-07
1.17621e-08
-3.86203e-08
-1.24762e-07
9.17712e-09
-3.89908e-08
-1.02295e-07
1.32134e-08
-3.568e-08
-7.71148e-08
1.09471e-08
-3.61272e-08
-6.10939e-08
1.59784e-08
-3.19992e-08
-4.27666e-08
1.37714e-08
-3.20987e-08
-3.34939e-08
1.85687e-08
-2.78412e-08
-2.24626e-08
1.66857e-08
-2.7717e-08
-1.83638e-08
2.01682e-08
-2.42669e-08
-1.19815e-08
1.71096e-08
-2.34918e-08
-6.91298e-09
1.3288e-08
-1.83565e-08
3.55368e-09
-1.04666e-08
-1.51992e-07
-4.36499e-07
-1.44517e-07
6.05989e-10
2.49909e-07
-5.17504e-07
-3.11577e-07
1.18418e-07
-4.09714e-08
-2.62859e-07
2.24442e-07
-8.3258e-08
-3.43348e-07
1.78696e-07
-5.60421e-08
-3.84691e-07
1.86373e-07
-5.53862e-08
-4.28817e-07
1.61535e-07
-5.87539e-08
-4.65727e-07
1.56434e-07
-5.4276e-08
-4.86803e-07
1.32322e-07
-5.88707e-08
-5.03798e-07
1.22334e-07
-5.38924e-08
-5.02629e-07
9.74088e-08
-5.74161e-08
-4.96892e-07
8.494e-08
-5.27277e-08
-4.75439e-07
6.29693e-08
-5.51429e-08
-4.48913e-07
5.0581e-08
-5.17908e-08
-4.12198e-07
3.58492e-08
-5.31039e-08
-3.70604e-07
2.59541e-08
-5.19192e-08
-3.262e-07
2.09704e-08
-5.18928e-08
-2.77733e-07
1.45647e-08
-5.27694e-08
-2.33732e-07
1.92637e-08
-5.15031e-08
-1.8669e-07
1.60807e-08
-5.39452e-08
-1.4953e-07
2.75166e-08
-5.14627e-08
-1.10447e-07
2.62187e-08
-5.43552e-08
-8.40139e-08
4.06112e-08
-5.10656e-08
-5.6591e-08
4.01463e-08
-5.37977e-08
-4.18365e-08
5.45914e-08
-5.07771e-08
-2.63773e-08
5.50614e-08
-5.38349e-08
-2.027e-08
6.62246e-08
-5.21636e-08
-1.18444e-08
6.08514e-08
-5.21674e-08
-6.53028e-09
4.95232e-08
-4.15492e-08
1.68727e-08
-1.98493e-08
-3.75714e-07
3.06371e-07
-3.67156e-07
-2.27776e-07
1.63383e-07
-6.14122e-08
-2.47142e-07
3.12621e-07
-1.74837e-07
-3.16149e-07
3.41974e-07
-4.85249e-08
-3.63127e-07
3.12321e-07
-8.66471e-08
-4.33906e-07
3.11034e-07
-5.38819e-08
-4.76696e-07
2.70917e-07
-6.65919e-08
-5.22907e-07
2.58641e-07
-5.59965e-08
-5.44911e-07
2.16536e-07
-6.22095e-08
-5.63987e-07
1.97002e-07
-5.55916e-08
-5.6138e-07
1.54143e-07
-5.93412e-08
-5.536e-07
1.30968e-07
-5.38076e-08
-5.28104e-07
9.36254e-08
-5.61521e-08
-4.96607e-07
7.14905e-08
-5.24071e-08
-4.53845e-07
4.66667e-08
-5.35793e-08
-4.05445e-07
2.98747e-08
-5.23206e-08
-3.54195e-07
2.20215e-08
-5.23004e-08
-2.98539e-07
1.25593e-08
-5.36503e-08
-2.48227e-07
2.13524e-08
-5.24014e-08
-1.95028e-07
1.85616e-08
-5.56797e-08
-1.53229e-07
3.90439e-08
-5.33259e-08
-1.09984e-07
4.02856e-08
-5.73117e-08
-8.13018e-08
6.61207e-08
-5.41918e-08
-5.22699e-08
6.9395e-08
-5.82805e-08
-3.73778e-08
9.61075e-08
-5.64082e-08
-2.17155e-08
1.01448e-07
-6.2049e-08
-1.58809e-08
1.23343e-07
-6.29528e-08
-7.34424e-09
1.17507e-07
-6.5192e-08
-3.59118e-09
9.90194e-08
-5.32491e-08
3.86162e-08
-2.53345e-08
5.12824e-08
1.95253e-07
5.9836e-08
-1.12861e-07
4.21357e-07
-9.38296e-08
-2.0778e-07
4.54468e-07
-4.69285e-08
-2.80029e-07
4.77587e-07
-6.33637e-08
-3.52678e-07
4.31229e-07
-4.62585e-08
-4.15497e-07
4.13222e-07
-3.93691e-08
-4.65759e-07
3.59079e-07
-3.78994e-08
-5.11412e-07
3.34072e-07
-2.97774e-08
-5.37354e-07
2.74766e-07
-3.22885e-08
-5.59517e-07
2.42715e-07
-2.35499e-08
-5.60735e-07
1.81382e-07
-2.60213e-08
-5.57504e-07
1.45628e-07
-1.78904e-08
-5.36214e-07
9.21664e-08
-1.98311e-08
-5.09412e-07
5.90501e-08
-1.43613e-08
-4.70808e-07
2.37999e-08
-1.57375e-08
-4.26682e-07
2.97803e-10
-1.45495e-08
-3.78935e-07
-1.08722e-08
-1.48528e-08
-3.25592e-07
-2.33885e-08
-1.73953e-08
-2.77664e-07
-9.49933e-09
-1.70763e-08
-2.25309e-07
-1.11368e-08
-2.26564e-08
-1.84697e-07
1.98644e-08
-2.14323e-08
-1.41149e-07
2.49856e-08
-2.82475e-08
-1.1261e-07
6.41716e-08
-2.65896e-08
-8.19863e-08
7.27467e-08
-3.39758e-08
-6.54334e-08
1.13879e-07
-3.43244e-08
-4.566e-08
1.2579e-07
-4.41155e-08
-3.46124e-08
1.61131e-07
-4.8836e-08
-1.87333e-08
1.57106e-07
-5.54784e-08
-8.31317e-09
1.35052e-07
-4.64523e-08
5.08498e-08
-2.05467e-08
-7.74072e-08
3.41517e-07
-6.8857e-08
-1.29533e-07
5.29114e-07
-5.56313e-08
-1.99996e-07
6.00669e-07
-7.57379e-08
-2.77644e-07
5.93169e-07
-3.79345e-08
-3.47086e-07
5.39358e-07
-3.86862e-08
-4.2313e-07
5.07851e-07
-1.85858e-08
-4.78723e-07
4.36939e-07
-2.22671e-08
-5.34237e-07
4.01278e-07
-1.16906e-08
-5.6487e-07
3.2207e-07
-1.6671e-08
-5.91726e-07
2.77443e-07
-7.87194e-09
-5.9368e-07
1.95271e-07
-1.19357e-08
-5.89935e-07
1.45926e-07
-4.04298e-09
-5.65332e-07
7.43498e-08
-6.78657e-09
-5.33947e-07
2.92694e-08
-1.60344e-09
-4.8923e-07
-1.79522e-08
-2.96521e-09
-4.37459e-07
-4.98943e-08
-1.57882e-09
-3.83251e-07
-6.34624e-08
-1.6175e-09
-3.23779e-07
-7.84958e-08
-4.36506e-09
-2.7156e-07
-5.90691e-08
-2.64882e-09
-2.15804e-07
-5.8495e-08
-8.39794e-09
-1.74787e-07
-1.55622e-08
-5.5903e-09
-1.31684e-07
-5.50271e-09
-1.26149e-08
-1.06468e-07
4.88572e-08
-9.90132e-09
-7.93462e-08
6.34107e-08
-1.77854e-08
-6.72263e-08
1.19843e-07
-1.80839e-08
-4.98362e-08
1.38263e-07
-2.98628e-08
-3.98059e-08
1.88043e-07
-3.69415e-08
-2.16144e-08
1.86343e-07
-4.74282e-08
-8.75371e-09
1.64257e-07
-4.20656e-08
6.15316e-08
-1.94355e-08
-1.12105e-08
3.55821e-07
-3.09355e-09
-8.28627e-08
6.31896e-07
-3.11302e-08
-1.45406e-07
6.78965e-07
-1.57523e-08
-2.28635e-07
6.78069e-07
-1.67024e-09
-3.05105e-07
6.02439e-07
1.33887e-08
-3.88656e-07
5.62223e-07
2.91786e-08
-4.53904e-07
4.71675e-07
3.05119e-08
-5.18774e-07
4.22967e-07
4.31805e-08
-5.57916e-07
3.21536e-07
3.9676e-08
-5.93501e-07
2.60235e-07
5.27922e-08
-6.01813e-07
1.54333e-07
4.92508e-08
-6.04853e-07
8.75179e-08
6.14485e-08
-5.84936e-07
-3.90918e-09
5.83428e-08
-5.57826e-07
-6.44958e-08
6.66553e-08
-5.15618e-07
-1.2477e-07
6.46095e-08
-4.65964e-07
-1.65963e-07
6.64149e-08
-4.13029e-07
-1.82135e-07
6.57381e-08
-3.53564e-07
-1.98967e-07
6.10058e-08
-3.02723e-07
-1.71378e-07
6.14674e-08
-2.47209e-07
-1.65785e-07
5.17766e-08
-2.08943e-07
-1.06956e-07
5.31274e-08
-1.67836e-07
-8.78677e-08
4.12577e-08
-1.4662e-07
-1.52395e-08
4.28807e-08
-1.21595e-07
8.30388e-09
3.00818e-08
-1.1182e-07
8.22546e-08
2.78135e-08
-9.2432e-08
1.08119e-07
1.07569e-08
-7.72622e-08
1.73768e-07
-8.94579e-10
-4.76253e-08
1.7452e-07
-1.78141e-08
-2.12742e-08
1.56956e-07
-1.90507e-08
4.61447e-08
-5.88728e-09
-2.16632e-08
3.91173e-07
-1.36889e-08
-6.41854e-08
6.79879e-07
-5.46046e-09
-1.24623e-07
7.29692e-07
9.71001e-09
-2.14991e-07
7.25809e-07
4.26291e-08
-3.07402e-07
6.38756e-07
5.60943e-08
-4.13003e-07
5.91294e-07
7.653e-08
-4.97971e-07
4.82632e-07
7.40112e-08
-5.81666e-07
4.21178e-07
8.54839e-08
-6.33139e-07
2.95654e-07
7.7355e-08
-6.76848e-07
2.15911e-07
8.80345e-08
-6.85983e-07
8.30261e-08
8.04409e-08
-6.84379e-07
-4.95953e-09
9.08736e-08
-6.53325e-07
-1.20187e-07
8.52239e-08
-6.12112e-07
-1.97008e-07
9.12987e-08
-5.52755e-07
-2.72477e-07
8.83493e-08
-4.84031e-07
-3.23781e-07
8.90936e-08
-4.13193e-07
-3.42752e-07
8.97789e-08
-3.36816e-07
-3.60262e-07
8.49193e-08
-2.74024e-07
-3.22796e-07
8.86261e-08
-2.10098e-07
-3.09338e-07
7.96275e-08
-1.70424e-07
-2.31753e-07
8.51235e-08
-1.32133e-07
-2.0069e-07
7.45312e-08
-1.20114e-07
-1.07103e-07
7.9845e-08
-1.06716e-07
-7.30302e-08
6.79356e-08
-1.11298e-07
1.97457e-08
6.70913e-08
-1.03175e-07
5.20272e-08
4.79684e-08
-9.50741e-08
1.3214e-07
3.35267e-08
-6.27192e-08
1.31777e-07
1.0388e-08
-2.86886e-08
1.21985e-07
9.40517e-10
1.42253e-08
3.23085e-09
2.27466e-08
3.38525e-07
2.99016e-08
6.47488e-09
6.34176e-07
6.19744e-08
-3.72486e-08
6.71079e-07
1.02336e-07
-1.36059e-07
6.80759e-07
1.4386e-07
-2.45278e-07
5.80114e-07
1.67861e-07
-3.75322e-07
5.28195e-07
1.93143e-07
-4.82978e-07
3.98276e-07
1.92012e-07
-5.89046e-07
3.19766e-07
2.07481e-07
-6.57054e-07
1.65646e-07
1.98016e-07
-7.15508e-07
6.04852e-08
2.13879e-07
-7.32669e-07
-1.04429e-07
2.04616e-07
-7.38526e-07
-2.18876e-07
2.19773e-07
-7.08476e-07
-3.63098e-07
2.12862e-07
-6.66194e-07
-4.6205e-07
2.2276e-07
-6.01903e-07
-5.54719e-07
2.17951e-07
-5.26759e-07
-6.17743e-07
2.18819e-07
-4.48912e-07
-6.38442e-07
2.17842e-07
-3.64676e-07
-6.54109e-07
2.0961e-07
-2.97423e-07
-6.01958e-07
2.11909e-07
-2.29743e-07
-5.74271e-07
1.97253e-07
-1.9258e-07
-4.7079e-07
2.01874e-07
-1.58688e-07
-4.19838e-07
1.85256e-07
-1.57612e-07
-2.98182e-07
1.90004e-07
-1.55982e-07
-2.47094e-07
1.72434e-07
-1.74872e-07
-1.31061e-07
1.69697e-07
-1.75314e-07
-9.08262e-08
1.43295e-07
-1.68366e-07
4.20161e-09
1.20991e-07
-1.20539e-07
-1.29886e-09
8.52493e-08
-5.94448e-08
1.31908e-09
5.95722e-08
-8.14386e-08
3.62191e-08
6.51064e-08
2.02071e-07
7.13476e-08
8.34372e-08
4.61501e-07
1.54344e-07
4.0539e-08
4.90013e-07
2.23965e-07
-8.53196e-08
5.21529e-07
2.85088e-07
-2.3705e-07
4.1578e-07
3.16065e-07
-4.13822e-07
3.62106e-07
3.42861e-07
-5.63637e-07
2.12026e-07
3.36065e-07
-7.04903e-07
1.15955e-07
3.45077e-07
-7.96651e-07
-6.82544e-08
3.2565e-07
-8.6838e-07
-2.00948e-07
3.33162e-07
-8.85967e-07
-4.00676e-07
3.13834e-07
-8.81677e-07
-5.45115e-07
3.21949e-07
-8.31374e-07
-7.20688e-07
3.07287e-07
-7.61523e-07
-8.43682e-07
3.11782e-07
-6.64088e-07
-9.5584e-07
3.03687e-07
-5.52413e-07
-1.03108e-06
3.01657e-07
-4.39422e-07
-1.05392e-06
3.02482e-07
-3.22321e-07
-1.06554e-06
2.94329e-07
-2.30995e-07
-9.96172e-07
3.02887e-07
-1.47206e-07
-9.49353e-07
2.91293e-07
-1.07169e-07
-8.15566e-07
3.0474e-07
-8.08195e-08
-7.39376e-07
2.93189e-07
-1.00096e-07
-5.85713e-07
3.06807e-07
-1.26992e-07
-5.14116e-07
2.93919e-07
-1.81271e-07
-3.72871e-07
2.96089e-07
-2.14885e-07
-3.25572e-07
2.6836e-07
-2.30932e-07
-2.19525e-07
2.39774e-07
-1.812e-07
-2.40914e-07
1.89884e-07
-9.51537e-08
-2.2397e-07
1.39242e-07
-2.52702e-07
7.61098e-08
1.65722e-07
-1.33627e-07
1.69976e-07
2.44198e-07
4.43234e-08
3.38702e-07
2.11849e-07
6.35497e-08
4.58811e-07
5.52314e-08
1.31747e-07
5.46401e-07
-1.42332e-07
2.16397e-08
5.91703e-07
-3.70464e-07
-3.67431e-08
6.26981e-07
-5.65249e-07
-2.12731e-07
6.19542e-07
-7.46417e-07
-3.34914e-07
6.32037e-07
-8.66428e-07
-5.55923e-07
6.0768e-07
-9.60229e-07
-7.2679e-07
6.19643e-07
-9.87575e-07
-9.68805e-07
5.95476e-07
-9.87941e-07
-1.15347e-06
6.08724e-07
-9.32182e-07
-1.36611e-06
5.8966e-07
-8.52979e-07
-1.51987e-06
5.96986e-07
-7.39427e-07
-1.65349e-06
5.84097e-07
-6.08126e-07
-1.74221e-06
5.79836e-07
-4.74013e-07
-1.76457e-06
5.76546e-07
-3.34923e-07
-1.76639e-06
5.61763e-07
-2.27782e-07
-1.67113e-06
5.6782e-07
-1.32429e-07
-1.59301e-06
5.48306e-07
-9.31174e-08
-1.41693e-06
5.6205e-07
-7.52485e-08
-1.30158e-06
5.44336e-07
-1.16547e-07
-1.10461e-06
5.60195e-07
-1.7297e-07
-1.00059e-06
5.42892e-07
-2.65414e-07
-8.25609e-07
5.45183e-07
-3.34972e-07
-7.65181e-07
5.09167e-07
-3.75438e-07
-6.47492e-07
4.68432e-07
-3.16313e-07
-6.94586e-07
3.94547e-07
-1.78411e-07
-6.64146e-07
3.02275e-07
-5.95729e-07
1.64616e-07
3.03674e-07
-7.42655e-07
3.05354e-07
4.35499e-07
-6.80284e-07
5.92783e-07
3.78116e-07
-6.47653e-07
7.68585e-07
1.60657e-07
-5.28511e-07
8.77716e-07
-1.10915e-07
-6.37719e-07
9.30932e-07
-4.11052e-07
-7.02318e-07
9.65711e-07
-6.70312e-07
-9.06138e-07
9.52668e-07
-9.04113e-07
-1.05932e-06
9.58207e-07
-1.06139e-06
-1.3223e-06
9.23652e-07
-1.17604e-06
-1.53823e-06
9.26097e-07
-1.20578e-06
-1.82935e-06
8.90292e-07
-1.19251e-06
-2.06124e-06
8.9449e-07
-1.10787e-06
-2.31671e-06
8.6597e-07
-9.88683e-07
-2.50484e-06
8.65776e-07
-8.26772e-07
-2.6624e-06
8.47e-07
-6.40901e-07
-2.76402e-06
8.35933e-07
-4.5179e-07
-2.78466e-06
8.3098e-07
-2.60014e-07
-2.76999e-06
8.11824e-07
-1.12538e-07
-2.64108e-06
8.22472e-07
9.19694e-09
-2.5193e-06
8.04559e-07
5.45224e-08
-2.29076e-06
8.28502e-07
5.9536e-08
-2.12399e-06
8.17398e-07
-1.43123e-08
-1.87579e-06
8.45032e-07
-1.19712e-07
-1.73078e-06
8.3559e-07
-2.73598e-07
-1.51765e-06
8.45926e-07
-4.09948e-07
-1.44055e-06
8.11714e-07
-5.08314e-07
-1.31411e-06
7.64983e-07
-4.73097e-07
-1.40106e-06
6.71261e-07
-2.92431e-07
-1.37394e-06
5.29128e-07
-1.17483e-06
2.86668e-07
5.1806e-07
-1.77602e-06
5.15309e-07
7.01279e-07
-1.79792e-06
9.34413e-07
6.06984e-07
-1.7021e-06
1.14874e-06
3.42895e-07
-1.52918e-06
1.26475e-06
2.28519e-08
-1.63887e-06
1.32119e-06
-3.25654e-07
-1.72219e-06
1.36838e-06
-6.3257e-07
-1.96647e-06
1.36725e-06
-9.13504e-07
-2.17499e-06
1.3966e-06
-1.10915e-06
-2.50364e-06
1.37699e-06
-1.25598e-06
-2.7969e-06
1.40549e-06
-1.30353e-06
-3.16475e-06
1.38295e-06
-1.30075e-06
-3.47467e-06
1.41065e-06
-1.21435e-06
-3.79446e-06
1.39134e-06
-1.08879e-06
-4.03498e-06
1.40458e-06
-9.12144e-07
-4.22371e-06
1.38467e-06
-7.04441e-07
-4.33949e-06
1.36777e-06
-4.87509e-07
-4.35051e-06
1.34892e-06
-2.63734e-07
-4.30075e-06
1.30698e-06
-9.10384e-08
-4.11276e-06
1.29898e-06
4.86903e-08
-3.91405e-06
1.25502e-06
9.40953e-08
-3.60083e-06
1.26467e-06
8.70542e-08
-3.34919e-06
1.23224e-06
-1.54243e-08
-3.02403e-06
1.25072e-06
-1.58731e-07
-2.8134e-06
1.22593e-06
-3.59499e-07
-2.54841e-06
1.23152e-06
-5.48293e-07
-2.44109e-06
1.18933e-06
-6.98894e-07
-2.30342e-06
1.13991e-06
-7.00794e-07
-2.43311e-06
1.03395e-06
-4.75139e-07
-2.44961e-06
8.50014e-07
-2.13039e-06
4.80426e-07
7.40153e-07
-3.24754e-06
7.31366e-07
9.12553e-07
-3.17696e-06
1.20665e-06
7.54485e-07
-2.93813e-06
1.3941e-06
4.74855e-07
-2.71723e-06
1.46769e-06
1.49155e-07
-2.81963e-06
1.50647e-06
-2.10722e-07
-2.9245e-06
1.56219e-06
-5.47183e-07
-3.21657e-06
1.58656e-06
-8.68116e-07
-3.5066e-06
1.65255e-06
-1.10647e-06
-3.93457e-06
1.66928e-06
-1.29007e-06
-4.34874e-06
1.73545e-06
-1.36258e-06
-4.83777e-06
1.74554e-06
-1.37166e-06
-5.27072e-06
1.80514e-06
-1.28488e-06
-5.69237e-06
1.81114e-06
-1.15143e-06
-6.01233e-06
1.84389e-06
-9.60606e-07
-6.24783e-06
1.83331e-06
-7.28928e-07
-6.3801e-06
1.80893e-06
-4.80014e-07
-6.37225e-06
1.77283e-06
-2.19579e-07
-6.26031e-06
1.69913e-06
-1.89828e-08
-5.9772e-06
1.66384e-06
1.35114e-07
-5.65496e-06
1.58682e-06
1.75227e-07
-5.21368e-06
1.57274e-06
1.47602e-07
-4.83412e-06
1.51255e-06
1.36828e-08
-4.40068e-06
1.51057e-06
-1.63641e-07
-4.10031e-06
1.46423e-06
-3.93944e-07
-3.77689e-06
1.45879e-06
-6.14362e-07
-3.63655e-06
1.41588e-06
-8.05635e-07
-3.49561e-06
1.38347e-06
-8.79984e-07
-3.66394e-06
1.30518e-06
-6.68692e-07
-3.79191e-06
1.13102e-06
-3.48799e-06
6.88911e-07
9.07163e-07
-5.04376e-06
8.89067e-07
1.03825e-06
-4.60579e-06
1.29776e-06
8.91163e-07
-4.17832e-06
1.38729e-06
7.22151e-07
-3.92657e-06
1.37836e-06
5.19211e-07
-4.00482e-06
1.38814e-06
2.54127e-07
-4.12768e-06
1.46828e-06
-3.36557e-08
-4.47214e-06
1.54336e-06
-3.50031e-07
-4.87986e-06
1.68965e-06
-6.14881e-07
-5.45433e-06
1.78463e-06
-8.50699e-07
-6.05859e-06
1.94568e-06
-9.84589e-07
-6.73876e-06
2.03489e-06
-1.06507e-06
-7.37211e-06
2.18188e-06
-1.05172e-06
-7.95873e-06
2.25303e-06
-9.99372e-07
-8.40872e-06
2.34406e-06
-8.89765e-07
-8.71848e-06
2.36106e-06
-7.30609e-07
-8.87418e-06
2.33494e-06
-5.40615e-07
-8.82959e-06
2.26737e-06
-3.24676e-07
-8.60968e-06
2.13345e-06
-1.66176e-07
-8.17048e-06
2.0348e-06
-4.89774e-08
-7.65067e-06
1.87852e-06
-4.78228e-08
-7.01241e-06
1.79759e-06
-1.03697e-07
-6.43804e-06
1.65981e-06
-2.51833e-07
-5.84938e-06
1.59685e-06
-4.14011e-07
-5.42416e-06
1.48604e-06
-5.96981e-07
-5.03582e-06
1.44192e-06
-7.4795e-07
-4.86555e-06
1.37999e-06
-8.78434e-07
-4.73778e-06
1.37266e-06
-9.74685e-07
-4.92745e-06
1.35978e-06
-8.17932e-07
-5.20939e-06
1.26074e-06
-5.16216e-06
8.56249e-07
9.35455e-07
-6.88451e-06
9.05338e-07
1.04928e-06
-5.90275e-06
1.18317e-06
1.04886e-06
-5.34321e-06
1.16534e-06
1.12049e-06
-5.06851e-06
1.07034e-06
1.15349e-06
-5.08258e-06
1.04479e-06
1.08214e-06
-5.18399e-06
1.12769e-06
9.22974e-07
-5.5482e-06
1.23525e-06
6.68907e-07
-6.0598e-06
1.43404e-06
4.03683e-07
-6.78206e-06
1.59299e-06
1.15556e-07
-7.59521e-06
1.82479e-06
-1.08812e-07
-8.50028e-06
1.98594e-06
-3.06551e-07
-9.37792e-06
2.2036e-06
-4.29714e-07
-1.01745e-05
2.33901e-06
-5.30009e-07
-1.07911e-05
2.48274e-06
-5.82828e-07
-1.12008e-05
2.5352e-06
-5.80588e-07
-1.13867e-05
2.51031e-06
-5.39131e-07
-1.12878e-05
2.4168e-06
-4.61416e-07
-1.09209e-05
2.23361e-06
-4.35775e-07
-1.0278e-05
2.08189e-06
-4.33707e-07
-9.51588e-06
1.86319e-06
-5.25283e-07
-8.64539e-06
1.7246e-06
-6.34324e-07
-7.85364e-06
1.52468e-06
-7.87402e-07
-7.10275e-06
1.40649e-06
-8.95777e-07
-6.55966e-06
1.2439e-06
-9.6335e-07
-6.1312e-06
1.16299e-06
-9.50659e-07
-5.96548e-06
1.08727e-06
-9.0614e-07
-5.88453e-06
1.10226e-06
-9.18124e-07
-6.08599e-06
1.17055e-06
-8.25958e-07
-6.47157e-06
1.17005e-06
-6.87254e-06
8.84457e-07
9.15495e-07
-8.67005e-06
8.70124e-07
1.17584e-06
-7.2916e-06
1.12857e-06
1.4885e-06
-6.76296e-06
1.10715e-06
1.88374e-06
-6.47514e-06
1.01145e-06
2.21703e-06
-6.38594e-06
9.70136e-07
2.40597e-06
-6.41528e-06
1.0424e-06
2.45226e-06
-6.72915e-06
1.13472e-06
2.32982e-06
-7.27397e-06
1.33668e-06
2.11766e-06
-8.06926e-06
1.49944e-06
1.79566e-06
-9.02861e-06
1.75548e-06
1.46594e-06
-1.0108e-05
1.93752e-06
1.0952e-06
-1.11961e-05
2.18899e-06
7.52013e-07
-1.21826e-05
2.35135e-06
3.93901e-07
-1.29589e-05
2.52602e-06
6.37944e-08
-1.34701e-05
2.59948e-06
-2.18562e-07
-1.3684e-05
2.57982e-06
-4.70203e-07
-1.35178e-05
2.48179e-06
-6.81485e-07
-1.29918e-05
2.2823e-06
-9.29815e-07
-1.21482e-05
2.11871e-06
-1.14832e-06
-1.11733e-05
1.87606e-06
-1.39805e-06
-1.01186e-05
1.72307e-06
-1.57745e-06
-9.17168e-06
1.49752e-06
-1.71988e-06
-8.32656e-06
1.36631e-06
-1.73403e-06
-7.72812e-06
1.18268e-06
-1.64065e-06
-7.31785e-06
1.09333e-06
-1.41082e-06
-7.1979e-06
1.00266e-06
-1.11704e-06
-7.18937e-06
1.01112e-06
-9.02359e-07
-7.38367e-06
1.08307e-06
-7.58219e-07
-7.71038e-06
1.09474e-06
-8.47137e-06
8.40678e-07
9.61132e-07
-1.05306e-05
8.99557e-07
1.55442e-06
-9.2107e-06
1.32592e-06
2.22568e-06
-8.87624e-06
1.44213e-06
2.88841e-06
-8.58004e-06
1.44228e-06
3.45576e-06
-8.37249e-06
1.41929e-06
3.86357e-06
-8.28038e-06
1.4574e-06
4.10925e-06
-8.45268e-06
1.47795e-06
4.14479e-06
-8.89965e-06
1.59026e-06
4.02955e-06
-9.61665e-06
1.66275e-06
3.72762e-06
-1.05559e-05
1.82933e-06
3.33666e-06
-1.16499e-05
1.93304e-06
2.82445e-06
-1.27953e-05
2.1116e-06
2.27004e-06
-1.38474e-05
2.21938e-06
1.6512e-06
-1.46952e-05
2.35536e-06
1.02529e-06
-1.52593e-05
2.41535e-06
4.16839e-07
-1.5477e-05
2.40161e-06
-1.95429e-07
-1.52491e-05
2.34376e-06
-7.71949e-07
-1.4624e-05
2.20889e-06
-1.35709e-06
-1.36878e-05
2.12491e-06
-1.83702e-06
-1.26585e-05
1.96528e-06
-2.25913e-06
-1.15919e-05
1.8955e-06
-2.51235e-06
-1.06689e-05
1.75062e-06
-2.64699e-06
-9.88592e-06
1.69414e-06
-2.58662e-06
-9.36385e-06
1.57547e-06
-2.38141e-06
-9.05681e-06
1.53387e-06
-2.01389e-06
-9.02223e-06
1.45691e-06
-1.55184e-06
-9.08588e-06
1.43457e-06
-1.09109e-06
-9.24819e-06
1.40389e-06
-7.38692e-07
-9.34012e-06
1.27746e-06
-1.00667e-05
8.56802e-07
1.04733e-06
-1.25482e-05
9.70485e-07
1.99628e-06
-1.18038e-05
1.64432e-06
2.893e-06
-1.17159e-05
1.9431e-06
3.65792e-06
-1.14234e-05
2.07865e-06
4.31309e-06
-1.11242e-05
2.09676e-06
4.82683e-06
-1.09052e-05
2.11123e-06
5.21321e-06
-1.08824e-05
2.04354e-06
5.3975e-06
-1.11248e-05
2.04106e-06
5.4246e-06
-1.16176e-05
1.974e-06
5.22342e-06
-1.23598e-05
2.00532e-06
4.88025e-06
-1.32756e-05
1.96902e-06
4.33867e-06
-1.42808e-05
2.02733e-06
3.68387e-06
-1.52201e-05
2.02777e-06
2.90584e-06
-1.60044e-05
2.08751e-06
2.06892e-06
-1.65265e-05
2.10437e-06
1.19264e-06
-1.67018e-05
2.10139e-06
2.68356e-07
-1.64498e-05
2.12524e-06
-6.02312e-07
-1.58605e-05
2.10744e-06
-1.43064e-06
-1.50261e-05
2.16687e-06
-2.06598e-06
-1.41611e-05
2.13821e-06
-2.57265e-06
-1.32953e-05
2.21031e-06
-2.84259e-06
-1.25857e-05
2.18695e-06
-2.9671e-06
-1.20166e-05
2.25539e-06
-2.88253e-06
-1.16802e-05
2.23195e-06
-2.67952e-06
-1.15283e-05
2.2687e-06
-2.33703e-06
-1.15771e-05
2.21253e-06
-1.90645e-06
-1.16754e-05
2.15914e-06
-1.36392e-06
-1.17782e-05
1.98764e-06
-7.8007e-07
-1.15818e-05
1.65795e-06
-1.17998e-05
9.53203e-07
1.01252e-06
-1.44875e-05
9.26944e-07
2.04367e-06
-1.45531e-05
1.7184e-06
2.86699e-06
-1.4627e-05
2.08805e-06
3.51667e-06
-1.43635e-05
2.2906e-06
4.09278e-06
-1.40231e-05
2.32295e-06
4.59674e-06
-1.3718e-05
2.30909e-06
5.05723e-06
-1.35172e-05
2.17457e-06
5.38088e-06
-1.35263e-05
2.07813e-06
5.59142e-06
-1.37354e-05
1.90756e-06
5.58323e-06
-1.41794e-05
1.82801e-06
5.4136e-06
-1.47965e-05
1.69081e-06
4.99749e-06
-1.55241e-05
1.65967e-06
4.41397e-06
-1.62268e-05
1.59055e-06
3.65854e-06
-1.68427e-05
1.594e-06
2.78075e-06
-1.7231e-05
1.58261e-06
1.80729e-06
-1.73303e-05
1.60228e-06
7.80113e-07
-1.71303e-05
1.70804e-06
-1.28803e-07
-1.67362e-05
1.78492e-06
-9.25723e-07
-1.61777e-05
1.94888e-06
-1.47439e-06
-1.56206e-05
2.0084e-06
-1.88054e-06
-1.50637e-05
2.17481e-06
-2.06055e-06
-1.46436e-05
2.23815e-06
-2.14339e-06
-1.43304e-05
2.39691e-06
-2.07821e-06
-1.41978e-05
2.45267e-06
-1.98281e-06
-1.41819e-05
2.55843e-06
-1.83037e-06
-1.42711e-05
2.54183e-06
-1.64897e-06
-1.43578e-05
2.50124e-06
-1.32064e-06
-1.43879e-05
2.28162e-06
-7.45017e-07
-1.40266e-05
1.86943e-06
-1.35327e-05
9.8813e-07
6.69841e-07
-1.57417e-05
5.84698e-07
1.28691e-06
-1.63728e-05
1.20297e-06
1.64705e-06
-1.6423e-05
1.43617e-06
1.93758e-06
-1.62234e-05
1.56973e-06
2.27503e-06
-1.58892e-05
1.52901e-06
2.67897e-06
-1.55811e-05
1.45946e-06
3.1791e-06
-1.52907e-05
1.27364e-06
3.65453e-06
-1.51464e-05
1.14498e-06
4.10094e-06
-1.51354e-05
9.5387e-07
4.36067e-06
-1.53116e-05
8.72856e-07
4.46094e-06
-1.56411e-05
7.44657e-07
4.28869e-06
-1.60913e-05
7.3979e-07
3.94036e-06
-1.65714e-05
6.93287e-07
3.40981e-06
-1.70216e-05
7.09806e-07
2.73402e-06
-1.72679e-05
7.13131e-07
1.97428e-06
-1.73311e-05
7.60986e-07
1.21895e-06
-1.72665e-05
8.91855e-07
6.56844e-07
-1.71277e-05
9.53951e-07
2.32088e-07
-1.68579e-05
1.10527e-06
3.94452e-08
-1.65542e-05
1.12662e-06
-7.08302e-08
-1.62317e-05
1.27869e-06
-3.08679e-08
-1.60078e-05
1.32461e-06
-4.00823e-09
-1.58607e-05
1.50375e-06
4.70662e-08
-1.58363e-05
1.58776e-06
-1.50671e-08
-1.58786e-05
1.75917e-06
-1.60637e-07
-1.5945e-05
1.81988e-06
-4.03058e-07
-1.60051e-05
1.8901e-06
-5.97974e-07
-1.59716e-05
1.77901e-06
-4.47849e-07
-1.5694e-05
1.51763e-06
-1.47326e-05
7.52327e-07
3.69553e-08
-1.57437e-05
-3.45074e-08
-1.11883e-07
-1.63764e-05
1.52825e-07
-4.42633e-07
-1.61897e-05
9.79158e-08
-6.48017e-07
-1.60566e-05
3.89918e-08
-6.19333e-07
-1.57668e-05
-1.50723e-07
-3.34929e-07
-1.55472e-05
-3.17869e-07
2.13935e-07
-1.53042e-05
-5.34989e-07
8.75161e-07
-1.51627e-05
-6.44628e-07
1.58392e-06
-1.50991e-05
-7.44677e-07
2.12034e-06
-1.51527e-05
-6.94981e-07
2.46302e-06
-1.53302e-05
-6.53225e-07
2.5038e-06
-1.56214e-05
-5.103e-07
2.37968e-06
-1.60088e-05
-4.38128e-07
2.10881e-06
-1.63933e-05
-3.56995e-07
1.76862e-06
-1.66201e-05
-3.07215e-07
1.47645e-06
-1.67773e-05
-2.61237e-07
1.2705e-06
-1.68573e-05
-2.02824e-07
1.24785e-06
-1.68355e-05
-2.69131e-07
1.3068e-06
-1.66604e-05
-2.56036e-07
1.533e-06
-1.64017e-05
-3.7827e-07
1.78563e-06
-1.61255e-05
-3.58432e-07
2.12586e-06
-1.59263e-05
-4.21302e-07
2.35874e-06
-1.57932e-05
-2.99888e-07
2.48665e-06
-1.57462e-05
-2.17598e-07
2.34981e-06
-1.57541e-05
1.27287e-08
1.96881e-06
-1.57578e-05
1.9423e-07
1.33207e-06
-1.58082e-05
4.40223e-07
5.7617e-07
-1.57664e-05
5.5113e-07
8.89159e-08
-1.57944e-05
5.88081e-07
-1.48602e-05
2.16974e-07
-7.79068e-07
-1.41483e-05
-8.15966e-07
-1.72675e-06
-1.43436e-05
-1.08464e-06
-2.69842e-06
-1.38324e-05
-1.38524e-06
-3.39998e-06
-1.3697e-05
-1.65763e-06
-3.67533e-06
-1.34712e-05
-2.01983e-06
-3.51606e-06
-1.33811e-05
-2.32496e-06
-2.93689e-06
-1.32813e-05
-2.60165e-06
-2.11928e-06
-1.32714e-05
-2.7085e-06
-1.20173e-06
-1.3313e-05
-2.70331e-06
-4.62617e-07
-1.3417e-05
-2.47449e-06
2.88682e-08
-1.36102e-05
-2.21105e-06
1.96124e-07
-1.3881e-05
-1.90725e-06
2.08453e-07
-1.42759e-05
-1.74478e-06
1.37573e-07
-1.46786e-05
-1.64348e-06
1.73321e-07
-1.5055e-05
-1.60048e-06
4.31528e-07
-1.54078e-05
-1.62733e-06
7.66432e-07
-1.55072e-05
-1.68463e-06
1.14186e-06
-1.53403e-05
-1.87024e-06
1.48675e-06
-1.50265e-05
-1.97837e-06
1.95973e-06
-1.46546e-05
-2.21973e-06
2.4921e-06
-1.4329e-05
-2.3285e-06
3.12876e-06
-1.40754e-05
-2.48721e-06
3.64637e-06
-1.39107e-05
-2.39972e-06
3.97489e-06
-1.38038e-05
-2.2705e-06
3.93159e-06
-1.37689e-05
-1.94149e-06
3.52128e-06
-1.37362e-05
-1.61088e-06
2.72986e-06
-1.3814e-05
-1.20228e-06
1.7094e-06
-1.38465e-05
-8.99004e-07
7.25438e-07
-1.4167e-05
-6.42918e-07
-1.35938e-05
-5.40569e-07
-1.32532e-06
-1.15314e-05
-1.29114e-06
-2.64713e-06
-1.12777e-05
-1.74378e-06
-3.77509e-06
-1.07148e-05
-1.98929e-06
-4.60473e-06
-1.05609e-05
-2.30612e-06
-4.94e-06
-1.04175e-05
-2.71811e-06
-4.78916e-06
-1.04108e-05
-3.12085e-06
-4.18853e-06
-1.04238e-05
-3.4578e-06
-3.32038e-06
-1.05327e-05
-3.60655e-06
-2.37968e-06
-1.07004e-05
-3.5529e-06
-1.63995e-06
-1.09295e-05
-3.22683e-06
-1.20033e-06
-1.12281e-05
-2.82135e-06
-1.08771e-06
-1.15528e-05
-2.44049e-06
-1.17132e-06
-1.19337e-05
-2.25823e-06
-1.3182e-06
-1.23187e-05
-2.21258e-06
-1.29144e-06
-1.28118e-05
-2.26958e-06
-1.09645e-06
-1.31758e-05
-2.42664e-06
-9.63428e-07
-1.31031e-05
-2.53672e-06
-8.74665e-07
-1.27353e-05
-2.69331e-06
-7.62313e-07
-1.23218e-05
-2.81668e-06
-4.00783e-07
-1.19519e-05
-3.06384e-06
2.10557e-07
-1.17056e-05
-3.23436e-06
1.05033e-06
-1.15042e-05
-3.41062e-06
1.89127e-06
-1.14094e-05
-3.34191e-06
2.57816e-06
-1.13354e-05
-3.15488e-06
2.92925e-06
-1.13436e-05
-2.77596e-06
2.91108e-06
-1.1347e-05
-2.37068e-06
2.50034e-06
-1.14535e-05
-1.94941e-06
1.8165e-06
-1.15425e-05
-1.61979e-06
8.92961e-07
-1.18616e-05
-1.3815e-06
-1.17421e-05
-9.58279e-07
-1.10766e-06
-9.45269e-06
-9.70732e-07
-2.28818e-06
-8.69146e-06
-1.40539e-06
-3.12661e-06
-8.41313e-06
-1.46296e-06
-3.65106e-06
-8.31831e-06
-1.71788e-06
-3.76051e-06
-8.22607e-06
-2.08169e-06
-3.47198e-06
-8.17158e-06
-2.52748e-06
-2.83904e-06
-8.13688e-06
-2.91962e-06
-2.00965e-06
-8.2169e-06
-3.14489e-06
-1.2041e-06
-8.36674e-06
-3.13897e-06
-6.31896e-07
-8.61628e-06
-2.88517e-06
-3.92347e-07
-8.91704e-06
-2.55038e-06
-4.73745e-07
-9.23243e-06
-2.2387e-06
-8.16099e-07
-9.50393e-06
-2.08717e-06
-1.30757e-06
-9.73992e-06
-2.08705e-06
-1.93605e-06
-9.94901e-06
-2.234e-06
-2.83268e-06
-9.83629e-06
-2.44255e-06
-3.86755e-06
-9.58588e-06
-2.48203e-06
-4.66382e-06
-9.43663e-06
-2.50215e-06
-5.05718e-06
-9.37364e-06
-2.55453e-06
-4.94014e-06
-9.33275e-06
-2.7359e-06
-4.36273e-06
-9.38575e-06
-2.89699e-06
-3.43092e-06
-9.39673e-06
-3.03898e-06
-2.33919e-06
-9.49249e-06
-3.00836e-06
-1.27504e-06
-9.5677e-06
-2.83159e-06
-3.87362e-07
-9.73313e-06
-2.49789e-06
2.28134e-07
-9.86099e-06
-2.10122e-06
5.24302e-07
-1.00268e-05
-1.72258e-06
4.859e-07
-1.01423e-05
-1.36147e-06
1.62987e-07
-1.0433e-05
-1.10544e-06
-1.10795e-05
-4.99392e-07
7.21334e-08
-9.81848e-06
2.93826e-07
-4.34005e-07
-8.11516e-06
-7.00226e-08
-8.34409e-07
-7.75772e-06
-2.54863e-07
-9.00739e-07
-7.62748e-06
-6.24359e-07
-6.56828e-07
-7.47239e-06
-9.97441e-07
-8.07123e-08
-7.32197e-06
-1.42557e-06
7.54027e-07
-7.21079e-06
-1.76068e-06
1.7227e-06
-7.24467e-06
-1.94075e-06
2.55528e-06
-7.31749e-06
-1.88169e-06
3.04575e-06
-7.48047e-06
-1.62611e-06
3.01186e-06
-7.63208e-06
-1.2509e-06
2.45702e-06
-7.82126e-06
-8.56144e-07
1.43062e-06
-7.95443e-06
-5.22917e-07
3.48013e-08
-8.033e-06
-3.10925e-07
-1.90861e-06
-7.77643e-06
-2.28985e-07
-4.32536e-06
-7.25229e-06
-1.67077e-07
-6.6169e-06
-7.20065e-06
-9.35059e-08
-8.29877e-06
-7.48344e-06
-2.71157e-07
-9.21227e-06
-7.89555e-06
-5.64415e-07
-9.40316e-06
-8.16464e-06
-9.77042e-07
-8.99323e-06
-8.40853e-06
-1.38699e-06
-8.12346e-06
-8.54838e-06
-1.71795e-06
-6.95131e-06
-8.75594e-06
-1.90853e-06
-5.66668e-06
-8.94054e-06
-1.91162e-06
-4.39523e-06
-9.25584e-06
-1.74858e-06
-3.28501e-06
-9.54525e-06
-1.42581e-06
-2.37852e-06
-9.90427e-06
-1.02889e-06
-1.78803e-06
-1.0251e-05
-4.81655e-07
-1.15853e-06
-1.10958e-05
3.35259e-08
-1.28931e-05
6.55231e-07
1.13764e-06
-1.23465e-05
1.39047e-06
1.28247e-06
-9.35947e-06
1.09956e-06
1.02867e-06
-8.0658e-06
5.6198e-07
1.00961e-06
-7.52683e-06
-8.15072e-08
1.25644e-06
-7.08997e-06
-6.29166e-07
1.92735e-06
-6.81306e-06
-1.17975e-06
2.98762e-06
-6.62156e-06
-1.64941e-06
4.33682e-06
-6.57366e-06
-2.02013e-06
5.64893e-06
-6.52724e-06
-2.10227e-06
6.55797e-06
-6.55707e-06
-1.83235e-06
6.60888e-06
-6.57e-06
-1.11289e-06
5.67794e-06
-6.67163e-06
-2.186e-07
3.84872e-06
-6.78442e-06
6.59303e-07
1.3926e-06
-6.94626e-06
1.36948e-06
-1.51582e-06
-6.85808e-06
1.99016e-06
-4.20061e-06
-7.10376e-06
2.53635e-06
-6.20438e-06
-7.96263e-06
2.76583e-06
-7.83307e-06
-8.02535e-06
2.1707e-06
-9.03638e-06
-8.05461e-06
1.36246e-06
-9.6476e-06
-8.06985e-06
5.16527e-07
-9.64626e-06
-8.11097e-06
-2.98801e-07
-9.09725e-06
-8.148e-06
-9.49299e-07
-8.13571e-06
-8.32577e-06
-1.39161e-06
-6.99375e-06
-8.54405e-06
-1.53835e-06
-5.82301e-06
-8.96468e-06
-1.4618e-06
-4.77385e-06
-9.43573e-06
-1.15857e-06
-3.82151e-06
-1.01554e-05
-7.01162e-07
-3.02915e-06
-1.10368e-05
-6.43112e-09
-1.83814e-06
-1.30277e-05
7.40951e-07
-1.6027e-05
1.29593e-06
1.14915e-06
-1.48823e-05
1.38674e-06
1.49083e-06
-1.08865e-05
1.1854e-06
1.19706e-06
-8.3632e-06
5.91228e-07
9.97619e-07