/*--------------------------------*- C++ -*----------------------------------*\
| =========                 |                                                 |
| \\      /  F ield         | OpenFOAM: The Open Source CFD Toolbox           |
|  \\    /   O peration     | Version:  v1906                                 |
|   \\  /    A nd           | Web:      www.OpenFOAM.com                      |
|    \\/     M anipulation  |                                                 |
\*---------------------------------------------------------------------------*/
FoamFile
{
    version     2.0;
    format      ascii;
    class       volScalarField;
    location    "0.42/oil";
    object      nut;
}
// * * * * * * * * * * * * * * * * * * * * * * * * * * * * * * * * * * * * * //

dimensions      [0 2 -1 0 0 0 0];


internalField   nonuniform List<scalar> 
168664
(
2.57409e-06
2.74523e-07
2.81641e-07
8.03814e-08
6.88063e-08
3.52705e-08
2.35374e-08
1.88405e-08
1.21828e-08
1.27917e-08
1.08867e-08
1.24836e-08
1.14427e-08
1.13056e-08
1.0062e-08
9.77405e-09
8.8738e-09
8.02226e-09
7.16696e-09
6.38222e-09
5.89269e-09
5.88748e-09
5.72984e-09
5.26194e-09
4.45529e-09
3.5249e-09
2.50805e-09
1.87014e-09
1.20753e-09
2.32494e-10
2.73645e-07
3.1813e-07
7.35145e-08
6.20307e-08
2.75202e-08
2.14904e-08
1.38538e-08
1.20647e-08
8.93507e-09
9.27086e-09
8.85201e-09
9.83406e-09
9.43339e-09
9.49618e-09
8.76883e-09
8.64604e-09
7.94552e-09
7.34001e-09
6.6068e-09
6.0673e-09
5.75439e-09
5.70247e-09
5.4939e-09
5.06584e-09
4.58648e-09
3.97336e-09
3.34754e-09
2.66761e-09
2.69821e-09
1.5075e-09
2.79666e-07
7.34594e-08
6.62686e-08
4.31309e-08
3.16724e-08
2.35826e-08
1.67832e-08
1.36962e-08
1.06823e-08
1.00207e-08
9.41207e-09
9.64682e-09
9.11701e-09
9.20855e-09
8.56791e-09
8.39103e-09
7.747e-09
7.19912e-09
6.50135e-09
6.02733e-09
5.8835e-09
5.8848e-09
5.79867e-09
5.48197e-09
5.04669e-09
4.54644e-09
4.07423e-09
3.77177e-09
4.47723e-09
3.51545e-09
8.2667e-08
6.35463e-08
4.46644e-08
3.33882e-08
2.34852e-08
1.84793e-08
1.46346e-08
1.24345e-08
1.08297e-08
9.9935e-09
9.46287e-09
9.2358e-09
9.00105e-09
9.08127e-09
8.48062e-09
8.15733e-09
7.49193e-09
6.96213e-09
6.34974e-09
5.9585e-09
5.79178e-09
5.82343e-09
5.90569e-09
5.7042e-09
5.23985e-09
4.70573e-09
4.3546e-09
4.60423e-09
5.53603e-09
4.85235e-09
7.00155e-08
3.0103e-08
3.29298e-08
2.3639e-08
2.1268e-08
1.80385e-08
1.52378e-08
1.36619e-08
1.19579e-08
1.1125e-08
1.02249e-08
9.69282e-09
9.36686e-09
9.32151e-09
8.63693e-09
8.14356e-09
7.47824e-09
6.99197e-09
6.61712e-09
6.52079e-09
6.35288e-09
6.36751e-09
6.4031e-09
6.28702e-09
5.92841e-09
5.49353e-09
5.29707e-09
5.77077e-09
6.8326e-09
6.57251e-09
4.25704e-08
2.78197e-08
2.85227e-08
2.13141e-08
1.98972e-08
1.58573e-08
1.44585e-08
1.25122e-08
1.16019e-08
1.07469e-08
1.0187e-08
9.47545e-09
9.06205e-09
9.07712e-09
8.44591e-09
7.73882e-09
7.05968e-09
6.52163e-09
6.42578e-09
6.57401e-09
6.39394e-09
6.28616e-09
6.21512e-09
6.15139e-09
5.90562e-09
5.77343e-09
5.7905e-09
6.46962e-09
7.55941e-09
7.59079e-09
3.02528e-08
2.03246e-08
2.09513e-08
1.70521e-08
1.66239e-08
1.44996e-08
1.34904e-08
1.22836e-08
1.14034e-08
1.08341e-08
1.03323e-08
9.73118e-09
9.41172e-09
9.64118e-09
8.92236e-09
7.90554e-09
7.02988e-09
6.40699e-09
6.33527e-09
6.50183e-09
6.32879e-09
6.26356e-09
6.27705e-09
6.33389e-09
6.33803e-09
6.49157e-09
6.79056e-09
7.58897e-09
8.69814e-09
9.1124e-09
2.91845e-08
2.13034e-08
2.12339e-08
1.74273e-08
1.67801e-08
1.40204e-08
1.31473e-08
1.14185e-08
1.06859e-08
9.91097e-09
9.72106e-09
9.40398e-09
9.59551e-09
1.00552e-08
9.40857e-09
8.12596e-09
7.18989e-09
6.3875e-09
6.13728e-09
5.99156e-09
5.74349e-09
5.70707e-09
5.83698e-09
6.10487e-09
6.441e-09
6.94487e-09
7.49258e-09
8.35722e-09
9.4121e-09
1.00452e-08
2.25368e-08
1.76629e-08
1.72708e-08
1.51573e-08
1.45137e-08
1.2745e-08
1.18722e-08
1.05555e-08
9.79503e-09
9.19247e-09
9.24752e-09
9.57824e-09
1.01732e-08
1.06635e-08
1.00065e-08
8.72656e-09
7.58797e-09
6.54796e-09
6.02631e-09
5.66261e-09
5.39039e-09
5.52196e-09
5.85527e-09
6.38802e-09
7.03238e-09
7.74085e-09
8.50577e-09
9.35689e-09
1.02745e-08
1.11281e-08
2.36251e-08
1.86862e-08
1.81853e-08
1.60233e-08
1.50106e-08
1.28231e-08
1.16719e-08
9.97112e-09
9.04724e-09
8.30035e-09
8.61908e-09
9.27184e-09
9.95584e-09
1.00278e-08
9.57037e-09
8.66392e-09
7.46899e-09
6.36175e-09
5.69029e-09
5.18023e-09
4.92681e-09
5.1991e-09
5.71484e-09
6.40153e-09
7.12952e-09
8.02416e-09
8.99327e-09
9.80771e-09
1.0652e-08
1.16266e-08
2.06813e-08
1.68944e-08
1.6242e-08
1.47577e-08
1.37388e-08
1.21505e-08
1.1075e-08
9.56751e-09
8.6375e-09
8.12976e-09
8.59896e-09
9.27115e-09
9.39107e-09
8.72806e-09
8.15014e-09
7.60998e-09
6.72653e-09
5.94777e-09
5.39043e-09
5.01763e-09
4.97344e-09
5.49247e-09
6.20248e-09
7.02371e-09
7.79978e-09
8.80021e-09
9.83177e-09
1.04987e-08
1.12521e-08
1.23247e-08
2.157e-08
1.76209e-08
1.68159e-08
1.53409e-08
1.44055e-08
1.29854e-08
1.19261e-08
1.01396e-08
8.84642e-09
7.91585e-09
7.94932e-09
8.109e-09
7.48252e-09
6.33665e-09
5.7741e-09
5.39111e-09
4.7599e-09
4.65994e-09
4.6097e-09
4.55204e-09
4.88767e-09
5.7329e-09
6.66526e-09
7.72017e-09
8.60187e-09
9.57352e-09
1.04422e-08
1.0936e-08
1.16182e-08
1.27658e-08
1.98099e-08
1.67053e-08
1.60844e-08
1.51875e-08
1.44136e-08
1.33296e-08
1.23541e-08
1.06334e-08
9.19867e-09
7.67276e-09
7.03377e-09
6.48256e-09
5.42377e-09
4.66278e-09
4.18117e-09
3.87093e-09
3.39694e-09
3.19519e-09
3.63706e-09
3.92767e-09
4.69137e-09
6.1775e-09
7.37459e-09
8.47239e-09
9.36895e-09
1.02876e-08
1.10181e-08
1.15082e-08
1.22607e-08
1.36963e-08
1.92847e-08
1.63105e-08
1.5805e-08
1.51062e-08
1.43697e-08
1.32799e-08
1.23335e-08
1.09231e-08
9.69512e-09
7.50608e-09
5.70483e-09
4.00003e-09
2.85652e-09
2.337e-09
2.17578e-09
2.13838e-09
1.62193e-09
1.36077e-09
1.89513e-09
3.05011e-09
4.48397e-09
6.48546e-09
7.90769e-09
9.02928e-09
9.81169e-09
1.06894e-08
1.14392e-08
1.20139e-08
1.28514e-08
1.46076e-08
1.81827e-08
1.55085e-08
1.49748e-08
1.43659e-08
1.36962e-08
1.27649e-08
1.18704e-08
1.06914e-08
9.65037e-09
7.52466e-09
5.36571e-09
3.45813e-09
2.20835e-09
1.73048e-09
1.84798e-09
1.59406e-09
1.16672e-09
1.28795e-09
1.99505e-09
3.32991e-09
4.87398e-09
6.91301e-09
8.46919e-09
9.68832e-09
1.04808e-08
1.13248e-08
1.20802e-08
1.26808e-08
1.34779e-08
1.54765e-08
1.79365e-08
1.52732e-08
1.4674e-08
1.40644e-08
1.34385e-08
1.25482e-08
1.16414e-08
1.0313e-08
8.98963e-09
6.98261e-09
5.12616e-09
3.42319e-09
2.22357e-09
1.59923e-09
2.0799e-09
1.66832e-09
1.21681e-09
1.7524e-09
2.536e-09
3.86589e-09
5.24172e-09
7.16415e-09
8.5178e-09
9.72048e-09
1.04897e-08
1.13705e-08
1.21261e-08
1.27589e-08
1.34382e-08
1.5335e-08
1.65753e-08
1.43191e-08
1.36939e-08
1.3151e-08
1.25522e-08
1.17159e-08
1.09027e-08
9.76344e-09
8.32932e-09
6.234e-09
4.15807e-09
2.6433e-09
1.81238e-09
1.74875e-09
2.40547e-09
2.14896e-09
1.78641e-09
2.49953e-09
3.53641e-09
4.80465e-09
5.95661e-09
7.58304e-09
8.71823e-09
9.73795e-09
1.05267e-08
1.14655e-08
1.22653e-08
1.2835e-08
1.34058e-08
1.51904e-08
1.57148e-08
1.3742e-08
1.30972e-08
1.25321e-08
1.18931e-08
1.09664e-08
1.00994e-08
8.92782e-09
7.68864e-09
5.84978e-09
4.37778e-09
3.60187e-09
2.8449e-09
2.83326e-09
3.30507e-09
3.03527e-09
2.96215e-09
3.78417e-09
4.97429e-09
5.96169e-09
6.29356e-09
7.56996e-09
8.45351e-09
9.55915e-09
1.04395e-08
1.14044e-08
1.22428e-08
1.29525e-08
1.36561e-08
1.54944e-08
1.4746e-08
1.31274e-08
1.24345e-08
1.17954e-08
1.1065e-08
1.01171e-08
9.21003e-09
8.06689e-09
6.99535e-09
5.93263e-09
5.28082e-09
4.99062e-09
4.50965e-09
4.30524e-09
4.56986e-09
4.2084e-09
4.26292e-09
5.02013e-09
5.77443e-09
6.15742e-09
6.19398e-09
6.78823e-09
7.49505e-09
8.61203e-09
9.46408e-09
1.0282e-08
1.11224e-08
1.21528e-08
1.31915e-08
1.51321e-08
1.39379e-08
1.23854e-08
1.15992e-08
1.07698e-08
9.91329e-09
8.93034e-09
8.14293e-09
7.2152e-09
6.42253e-09
5.73043e-09
5.60005e-09
5.66528e-09
5.74385e-09
6.01448e-09
6.44665e-09
6.25451e-09
6.3421e-09
6.60789e-09
6.39169e-09
6.11506e-09
5.77108e-09
6.09405e-09
6.61169e-09
7.5799e-09
8.35259e-09
9.18173e-09
1.00471e-08
1.11511e-08
1.22214e-08
1.39882e-08
1.27881e-08
1.14412e-08
1.07598e-08
9.85731e-09
8.97692e-09
8.1567e-09
7.47954e-09
6.71472e-09
6.04031e-09
5.60595e-09
5.61149e-09
5.7145e-09
6.00308e-09
6.73586e-09
7.69712e-09
8.05659e-09
8.13906e-09
7.60419e-09
6.86047e-09
6.18159e-09
5.60277e-09
5.72845e-09
6.17016e-09
7.0385e-09
7.71363e-09
8.54175e-09
9.34032e-09
1.03324e-08
1.12636e-08
1.24914e-08
1.1954e-08
1.09061e-08
1.03152e-08
9.37895e-09
8.53583e-09
7.83651e-09
7.28204e-09
6.6943e-09
6.19326e-09
5.90435e-09
5.68744e-09
5.41969e-09
5.66573e-09
6.57776e-09
7.71776e-09
8.56426e-09
8.60704e-09
7.52053e-09
6.57927e-09
6.15895e-09
5.80576e-09
5.95409e-09
6.22043e-09
6.834e-09
7.27985e-09
7.95448e-09
8.58976e-09
9.54041e-09
1.04872e-08
1.14162e-08
1.07675e-08
1.00253e-08
9.28162e-09
8.38386e-09
7.79002e-09
7.26707e-09
6.89989e-09
6.55978e-09
6.30088e-09
6.21966e-09
5.89981e-09
5.35831e-09
5.3359e-09
6.15659e-09
7.17434e-09
8.00136e-09
7.96901e-09
6.99586e-09
6.37594e-09
6.36436e-09
6.21767e-09
6.2147e-09
6.21962e-09
6.52279e-09
6.70226e-09
7.17891e-09
7.66889e-09
8.5903e-09
9.54302e-09
1.01255e-08
9.71338e-09
9.1442e-09
8.22372e-09
7.48402e-09
7.12884e-09
6.85228e-09
6.74123e-09
6.66798e-09
6.58327e-09
6.50728e-09
6.05379e-09
5.49256e-09
5.26902e-09
5.75294e-09
6.51124e-09
7.11697e-09
7.16666e-09
6.64108e-09
6.32891e-09
6.5255e-09
6.54519e-09
6.57972e-09
6.45985e-09
6.53342e-09
6.48433e-09
6.67116e-09
6.91762e-09
7.78086e-09
8.75217e-09
9.1336e-09
8.02309e-09
7.85088e-09
6.9418e-09
6.43147e-09
6.26733e-09
6.16815e-09
6.28223e-09
6.4408e-09
6.5835e-09
6.51109e-09
5.96463e-09
5.52066e-09
5.55278e-09
5.82427e-09
6.2399e-09
6.49424e-09
6.7717e-09
6.62981e-09
6.3037e-09
6.24887e-09
6.38387e-09
6.53162e-09
6.40356e-09
6.38881e-09
6.16854e-09
6.08347e-09
6.00957e-09
6.78809e-09
7.76801e-09
7.81534e-09
6.78625e-09
6.84228e-09
5.89923e-09
5.57318e-09
5.71183e-09
5.89332e-09
6.10326e-09
6.39481e-09
6.64646e-09
6.69253e-09
6.18249e-09
5.82405e-09
6.0183e-09
6.24204e-09
6.31275e-09
6.26046e-09
6.65672e-09
6.77642e-09
6.37161e-09
6.07711e-09
6.09146e-09
6.33286e-09
6.32749e-09
6.31521e-09
6.01706e-09
5.62709e-09
5.35317e-09
5.98449e-09
6.99616e-09
6.81443e-09
5.11605e-09
5.55356e-09
4.52495e-09
4.3759e-09
4.80418e-09
5.12047e-09
5.45961e-09
5.85545e-09
6.17934e-09
6.40176e-09
6.08271e-09
5.99416e-09
6.2907e-09
6.42615e-09
6.24315e-09
5.98258e-09
6.36842e-09
6.52618e-09
6.31135e-09
5.92864e-09
5.67577e-09
5.65766e-09
5.59434e-09
5.56272e-09
5.26589e-09
4.88983e-09
4.50451e-09
4.90531e-09
5.81588e-09
5.25221e-09
3.71268e-09
4.52292e-09
3.58795e-09
3.91572e-09
4.35448e-09
4.78197e-09
5.24868e-09
5.71867e-09
6.10803e-09
6.37831e-09
6.22638e-09
6.33314e-09
6.61727e-09
6.63715e-09
6.41872e-09
6.10173e-09
6.27402e-09
6.43488e-09
6.41296e-09
6.18282e-09
5.72809e-09
5.49728e-09
5.27991e-09
5.23456e-09
5.03269e-09
4.74476e-09
4.2539e-09
3.97326e-09
4.7097e-09
3.87171e-09
1.77777e-09
2.95704e-09
2.76103e-09
3.35465e-09
3.84661e-09
4.45711e-09
5.01821e-09
5.62911e-09
6.16759e-09
6.62071e-09
6.72109e-09
6.82152e-09
6.96773e-09
7.00745e-09
7.01907e-09
6.73014e-09
6.75185e-09
6.82672e-09
6.78643e-09
6.43384e-09
5.81005e-09
5.43273e-09
5.10775e-09
4.95467e-09
4.60914e-09
4.09552e-09
3.45745e-09
2.70026e-09
2.83778e-09
1.75534e-09
8.02286e-10
1.72575e-09
2.51499e-09
3.13885e-09
3.93009e-09
4.65314e-09
5.35495e-09
6.10026e-09
6.83257e-09
7.33096e-09
7.5501e-09
7.67022e-09
7.67113e-09
7.85233e-09
7.77525e-09
7.40852e-09
7.48484e-09
7.67573e-09
7.636e-09
7.01609e-09
6.16658e-09
5.67157e-09
5.18535e-09
4.9003e-09
4.24601e-09
3.44062e-09
2.39338e-09
1.62921e-09
1.0444e-09
2.88541e-10
2.73107e-07
3.25423e-07
7.51021e-08
6.36931e-08
2.76522e-08
2.19024e-08
1.37808e-08
1.24201e-08
8.51214e-09
9.10838e-09
7.86062e-09
9.22168e-09
8.62295e-09
9.30245e-09
8.617e-09
8.64257e-09
7.96415e-09
7.14128e-09
6.73861e-09
5.97625e-09
5.61772e-09
5.25618e-09
5.20985e-09
4.86566e-09
4.54011e-09
3.85513e-09
3.19575e-09
2.4507e-09
1.99247e-09
1.17186e-09
3.23069e-07
6.63681e-08
5.22613e-08
2.47349e-08
1.24879e-08
9.71406e-09
6.4459e-09
4.97243e-09
3.99088e-09
3.8792e-09
3.80906e-09
3.28981e-09
2.51353e-09
2.65799e-09
2.79484e-09
2.84209e-09
2.72972e-09
2.66937e-09
2.41029e-09
2.13922e-09
2.16422e-09
2.57821e-09
3.0284e-09
3.32094e-09
3.28424e-09
2.94103e-09
2.59429e-09
2.23372e-09
3.21248e-09
2.73489e-09
7.33239e-08
5.30914e-08
2.77975e-08
2.45325e-08
1.2993e-08
1.1744e-08
7.80289e-09
6.19624e-09
4.76931e-09
4.79665e-09
4.95427e-09
4.95008e-09
3.60197e-09
2.80476e-09
2.51238e-09
2.36194e-09
2.01411e-09
1.62822e-09
1.5327e-09
1.91053e-09
2.29583e-09
3.2498e-09
3.95384e-09
4.04431e-09
4.07595e-09
3.8848e-09
3.23502e-09
2.96444e-09
3.63719e-09
4.52959e-09
6.36712e-08
2.29908e-08
2.30029e-08
1.43775e-08
8.14737e-09
7.7909e-09
4.53292e-09
4.79494e-09
4.0355e-09
4.40585e-09
4.47856e-09
4.77326e-09
3.44903e-09
2.6539e-09
2.25563e-09
2.19124e-09
2.31098e-09
1.73099e-09
1.89499e-09
2.64309e-09
3.37368e-09
3.87394e-09
3.70754e-09
3.59052e-09
3.99032e-09
4.02488e-09
3.5218e-09
3.43704e-09
3.40252e-09
5.59814e-09
2.97744e-08
1.12618e-08
1.10708e-08
8.64099e-09
5.35068e-09
5.92037e-09
3.72524e-09
4.001e-09
3.19358e-09
3.23574e-09
2.93672e-09
3.23222e-09
2.18804e-09
2.29172e-09
2.21424e-09
2.26322e-09
2.42545e-09
1.77203e-09
2.0799e-09
2.95925e-09
3.4038e-09
2.83899e-09
2.06412e-09
2.06066e-09
2.64864e-09
3.07399e-09
3.31429e-09
3.58637e-09
3.21991e-09
6.94098e-09
2.74068e-08
7.58606e-09
1.0037e-08
7.93874e-09
5.48081e-09
5.34908e-09
3.02198e-09
3.21093e-09
2.05503e-09
2.30978e-09
2.24762e-09
2.55739e-09
2.03247e-09
2.3065e-09
2.35696e-09
2.44578e-09
2.57495e-09
2.13119e-09
2.54136e-09
2.82038e-09
2.5993e-09
1.67674e-09
1.06914e-09
1.16704e-09
1.57667e-09
2.23171e-09
2.95194e-09
3.4594e-09
2.98761e-09
7.66537e-09
2.03246e-08
4.72985e-09
6.13692e-09
4.50476e-09
3.56165e-09
3.61924e-09
2.44296e-09
2.67588e-09
1.90317e-09
2.16631e-09
2.14582e-09
2.54823e-09
2.09375e-09
2.48335e-09
2.71771e-09
2.63307e-09
2.7065e-09
2.57265e-09
3.0303e-09
2.54563e-09
2.0395e-09
1.40434e-09
1.17564e-09
1.05688e-09
1.34696e-09
2.18973e-09
2.96392e-09
3.38602e-09
3.00234e-09
8.76989e-09
2.12431e-08
2.80441e-09
5.22589e-09
5.04839e-09
4.15712e-09
4.06994e-09
2.99067e-09
3.02208e-09
2.21257e-09
2.30696e-09
2.18837e-09
2.32205e-09
1.69099e-09
2.18227e-09
2.62712e-09
2.37942e-09
2.32163e-09
2.51593e-09
2.84489e-09
2.24972e-09
1.67489e-09
1.32391e-09
1.16048e-09
1.09722e-09
1.51127e-09
2.35356e-09
2.9395e-09
3.24427e-09
2.93128e-09
9.44662e-09
1.77449e-08
2.68398e-09
3.47854e-09
3.27037e-09
3.11549e-09
3.15022e-09
2.63525e-09
2.75645e-09
2.37492e-09
2.4704e-09
2.2641e-09
1.80038e-09
9.84116e-10
2.66546e-09
3.38942e-09
2.8843e-09
2.1335e-09
1.90272e-09
2.42457e-09
2.10711e-09
1.7487e-09
1.4876e-09
1.38115e-09
1.48367e-09
1.91655e-09
2.50418e-09
2.7958e-09
2.89776e-09
2.74567e-09
1.03438e-08
1.85974e-08
1.83949e-09
2.739e-09
2.96663e-09
3.05022e-09
3.27189e-09
2.88869e-09
2.97224e-09
2.74944e-09
2.64784e-09
2.30803e-09
1.48528e-09
1.8829e-09
3.80113e-09
4.47784e-09
3.8471e-09
2.73413e-09
1.30133e-09
1.67341e-09
1.91978e-09
1.68248e-09
1.63451e-09
1.59262e-09
1.78076e-09
1.9868e-09
2.27397e-09
2.30525e-09
2.23276e-09
2.33783e-09
1.08282e-08
1.69519e-08
2.02793e-09
1.98239e-09
1.8598e-09
1.88673e-09
2.28959e-09
2.406e-09
2.80503e-09
2.89917e-09
2.77452e-09
2.49382e-09
2.28298e-09
3.47327e-09
4.99263e-09
5.55897e-09
5.26311e-09
4.45871e-09
2.31681e-09
1.60198e-09
1.85072e-09
2.00484e-09
2.13699e-09
2.1534e-09
2.2423e-09
2.27532e-09
2.28108e-09
2.07811e-09
1.89203e-09
2.07196e-09
1.13207e-08
1.76281e-08
1.90654e-09
1.50061e-09
1.44703e-09
1.46499e-09
1.95722e-09
2.29057e-09
2.80691e-09
3.2698e-09
3.27379e-09
2.83626e-09
3.1164e-09
3.99756e-09
4.48838e-09
4.71009e-09
4.67358e-09
4.05936e-09
2.86037e-09
1.90891e-09
1.89663e-09
2.30914e-09
2.53314e-09
2.4648e-09
2.40999e-09
2.34086e-09
2.27125e-09
1.94816e-09
1.85777e-09
1.89297e-09
1.16115e-08
1.6508e-08
2.00671e-09
1.41448e-09
1.2483e-09
1.16114e-09
1.35711e-09
1.63583e-09
2.20896e-09
2.91404e-09
3.00882e-09
2.68528e-09
3.99026e-09
4.35881e-09
4.33814e-09
4.25232e-09
4.03289e-09
3.73107e-09
3.05971e-09
2.64067e-09
1.74181e-09
2.32316e-09
2.53801e-09
2.31431e-09
2.04733e-09
1.8903e-09
1.86533e-09
1.67929e-09
1.80121e-09
1.9523e-09
1.23421e-08
1.62466e-08
1.81735e-09
1.5172e-09
1.48797e-09
1.49559e-09
1.42821e-09
1.55716e-09
2.002e-09
2.73443e-09
2.89148e-09
3.23711e-09
3.73532e-09
3.54267e-09
3.37429e-09
2.99968e-09
2.73266e-09
2.16069e-09
2.09248e-09
2.02487e-09
1.78432e-09
1.8967e-09
2.33604e-09
2.03878e-09
1.67759e-09
1.50486e-09
1.57082e-09
1.50232e-09
1.68098e-09
1.99477e-09
1.29836e-08
1.54613e-08
1.97166e-09
1.6042e-09
1.54729e-09
1.55468e-09
1.59297e-09
1.73943e-09
2.13631e-09
2.72746e-09
3.26857e-09
3.48345e-09
3.14819e-09
2.70248e-09
2.3445e-09
2.59133e-09
2.29871e-09
1.82804e-09
1.95809e-09
2.07603e-09
2.46533e-09
2.72445e-09
2.70054e-09
2.08851e-09
1.5434e-09
1.36929e-09
1.42993e-09
1.39039e-09
1.55022e-09
2.01235e-09
1.3546e-08
1.5312e-08
2.17476e-09
1.76845e-09
1.64805e-09
1.72998e-09
1.85256e-09
2.03547e-09
2.33402e-09
2.94326e-09
3.26109e-09
2.96223e-09
2.17847e-09
1.88914e-09
1.86772e-09
2.41704e-09
2.44735e-09
2.00629e-09
2.1973e-09
2.43244e-09
2.9616e-09
2.98756e-09
2.77642e-09
1.96449e-09
1.30382e-09
1.06896e-09
1.22712e-09
1.24598e-09
1.34822e-09
1.70797e-09
1.34149e-08
1.44604e-08
2.21427e-09
1.95366e-09
1.80463e-09
1.92415e-09
2.02519e-09
2.15744e-09
2.47103e-09
2.9626e-09
2.7779e-09
2.59977e-09
2.4664e-09
2.34543e-09
2.37952e-09
2.91066e-09
2.88891e-09
2.57407e-09
2.67381e-09
2.72821e-09
2.5842e-09
2.42142e-09
2.88068e-09
2.09292e-09
1.34791e-09
1.1164e-09
1.38049e-09
1.52391e-09
1.51985e-09
1.69815e-09
1.33709e-08
1.38831e-08
2.19802e-09
2.15689e-09
1.94649e-09
2.10915e-09
2.18359e-09
2.39144e-09
2.56892e-09
2.90446e-09
2.55896e-09
2.28742e-09
2.4893e-09
2.80755e-09
3.08191e-09
3.54303e-09
3.56663e-09
3.63255e-09
3.40137e-09
2.70722e-09
1.70075e-09
2.60958e-09
3.33396e-09
2.55321e-09
2.0693e-09
1.74997e-09
1.80112e-09
1.98566e-09
1.98778e-09
2.09005e-09
1.34611e-08
1.30751e-08
2.41633e-09
2.49373e-09
2.43275e-09
2.71819e-09
2.75284e-09
2.84536e-09
2.81776e-09
3.02012e-09
2.75932e-09
2.69378e-09
2.0738e-09
2.54888e-09
3.27651e-09
4.00332e-09
3.9687e-09
3.85821e-09
3.24056e-09
1.99013e-09
1.59353e-09
2.7935e-09
3.49178e-09
2.93033e-09
2.58598e-09
2.23339e-09
2.25452e-09
2.43028e-09
2.50142e-09
2.52172e-09
1.31599e-08
1.24587e-08
2.52638e-09
2.43277e-09
2.61096e-09
2.86435e-09
2.55729e-09
2.42601e-09
2.19963e-09
2.42838e-09
2.16108e-09
2.31445e-09
1.28547e-09
1.63663e-09
3.17876e-09
4.30649e-09
4.4981e-09
4.27222e-09
2.75866e-09
1.23872e-09
1.78121e-09
2.27794e-09
2.83988e-09
2.44945e-09
2.36984e-09
2.19465e-09
2.46411e-09
2.55241e-09
2.43951e-09
2.53223e-09
1.24012e-08
1.17318e-08
2.80747e-09
2.55375e-09
2.93862e-09
3.10709e-09
2.38593e-09
2.05066e-09
1.76741e-09
2.0062e-09
1.88171e-09
2.22701e-09
1.48523e-09
7.86041e-10
1.59007e-09
3.02153e-09
3.72674e-09
3.49632e-09
1.48253e-09
1.19651e-09
2.24468e-09
2.1519e-09
2.37902e-09
2.02358e-09
2.17289e-09
2.30801e-09
2.91679e-09
2.90981e-09
2.71336e-09
2.57926e-09
1.12279e-08
1.09933e-08
2.92936e-09
3.01687e-09
3.35495e-09
3.10627e-09
2.1879e-09
1.78737e-09
1.35637e-09
1.59081e-09
1.61781e-09
2.15749e-09
2.11689e-09
1.7193e-09
1.23018e-09
1.91545e-09
2.41824e-09
2.04671e-09
1.16924e-09
1.6354e-09
2.15233e-09
1.74692e-09
1.84822e-09
1.50386e-09
1.75895e-09
2.0082e-09
2.86494e-09
3.14334e-09
3.10299e-09
2.63331e-09
1.03751e-08
1.00763e-08
2.94832e-09
3.50448e-09
3.42556e-09
2.81244e-09
1.88539e-09
1.53079e-09
1.06163e-09
1.4092e-09
1.51439e-09
2.17139e-09
2.47572e-09
2.3957e-09
2.39698e-09
2.51056e-09
2.43747e-09
1.49783e-09
1.83207e-09
2.35686e-09
2.3631e-09
1.58043e-09
1.55075e-09
1.20023e-09
1.46617e-09
1.62255e-09
2.62248e-09
3.20266e-09
3.36173e-09
2.79594e-09
9.48913e-09
9.31189e-09
2.94216e-09
3.54296e-09
2.90881e-09
2.27086e-09
1.5141e-09
1.29706e-09
8.13581e-10
1.23165e-09
1.4916e-09
2.26708e-09
2.35991e-09
2.37941e-09
2.95818e-09
3.00384e-09
2.44263e-09
1.62093e-09
2.40984e-09
2.82171e-09
2.94367e-09
1.95091e-09
1.40561e-09
9.56508e-10
1.22424e-09
1.30653e-09
2.2512e-09
3.07013e-09
3.48534e-09
2.86102e-09
8.75489e-09
8.02035e-09
3.01508e-09
3.4728e-09
2.50361e-09
1.88819e-09
1.33063e-09
1.53644e-09
1.25053e-09
1.51099e-09
1.74564e-09
2.47343e-09
2.20929e-09
2.22642e-09
3.06577e-09
3.06253e-09
2.33936e-09
1.99288e-09
2.55557e-09
2.9544e-09
3.58129e-09
2.89143e-09
2.00939e-09
1.23228e-09
1.52831e-09
1.67813e-09
2.54806e-09
3.1987e-09
3.79707e-09
3.10302e-09
7.8101e-09
7.07166e-09
2.98339e-09
3.24793e-09
2.25552e-09
1.86672e-09
1.64973e-09
2.04123e-09
1.99446e-09
2.36544e-09
2.36443e-09
2.58043e-09
1.87287e-09
2.09121e-09
2.87462e-09
2.86001e-09
2.28065e-09
2.09066e-09
2.36395e-09
2.74443e-09
3.63713e-09
3.52938e-09
3.20647e-09
2.40711e-09
2.58562e-09
2.84144e-09
3.4599e-09
3.42427e-09
3.90261e-09
3.37492e-09
7.03663e-09
5.88534e-09
3.16858e-09
3.20919e-09
2.46503e-09
2.67973e-09
2.71298e-09
3.06248e-09
3.10631e-09
3.6946e-09
3.68799e-09
3.35108e-09
1.74394e-09
1.83012e-09
2.61437e-09
3.06069e-09
2.65893e-09
2.58398e-09
2.96639e-09
3.19816e-09
3.92577e-09
3.92246e-09
4.32908e-09
4.18094e-09
4.47971e-09
4.52616e-09
4.55186e-09
3.67831e-09
3.78588e-09
3.68107e-09
5.83225e-09
4.94021e-09
3.55561e-09
3.12685e-09
2.91497e-09
3.17857e-09
3.00343e-09
3.18231e-09
3.12986e-09
3.72938e-09
3.86732e-09
3.64279e-09
1.84065e-09
1.53018e-09
2.35215e-09
2.84376e-09
2.40415e-09
2.25115e-09
2.81241e-09
2.89802e-09
3.15668e-09
2.88414e-09
3.50765e-09
3.8527e-09
4.59968e-09
4.47966e-09
4.21263e-09
3.17835e-09
3.00657e-09
3.72962e-09
4.74892e-09
3.3274e-09
3.58096e-09
2.70256e-09
2.96188e-09
2.9525e-09
2.80446e-09
3.02757e-09
3.07946e-09
3.61372e-09
3.85027e-09
3.86628e-09
2.95403e-09
2.84132e-09
2.58097e-09
2.36404e-09
1.8062e-09
1.87235e-09
2.31166e-09
2.28521e-09
2.43328e-09
2.15083e-09
2.69656e-09
2.80123e-09
3.41128e-09
3.2984e-09
3.05596e-09
2.51851e-09
2.19595e-09
3.16735e-09
2.8794e-09
1.96468e-09
2.7168e-09
3.05631e-09
3.56862e-09
4.08244e-09
4.59283e-09
5.26408e-09
5.9955e-09
6.81078e-09
7.51578e-09
7.60697e-09
7.45149e-09
7.06147e-09
7.02977e-09
6.91897e-09
6.64135e-09
6.72178e-09
6.68774e-09
6.80273e-09
6.48166e-09
5.88579e-09
5.51006e-09
5.01996e-09
4.8644e-09
4.40098e-09
3.80755e-09
2.99939e-09
2.20872e-09
1.79827e-09
1.20923e-09
2.8231e-07
7.52238e-08
6.61052e-08
4.2257e-08
2.93583e-08
2.32175e-08
1.51537e-08
1.30994e-08
8.22103e-09
8.21406e-09
6.78998e-09
7.34593e-09
7.21269e-09
6.31193e-09
6.27588e-09
6.15439e-09
5.70617e-09
6.13576e-09
5.2705e-09
5.75395e-09
4.43297e-09
4.96639e-09
4.72055e-09
5.42741e-09
5.07645e-09
4.62644e-09
3.80682e-09
2.9001e-09
2.16862e-09
1.76483e-09
7.33257e-08
5.33459e-08
2.86197e-08
2.50938e-08
1.18224e-08
1.02697e-08
6.76754e-09
5.73808e-09
5.06394e-09
4.52362e-09
3.49929e-09
2.48862e-09
2.0829e-09
2.32783e-09
2.71004e-09
2.29171e-09
2.3395e-09
2.42524e-09
2.35437e-09
1.8251e-09
1.12721e-09
1.52164e-09
2.27588e-09
2.69171e-09
2.50576e-09
2.09311e-09
1.92227e-09
1.96315e-09
2.39388e-09
2.53396e-09
6.50136e-08
2.9111e-08
2.47522e-08
2.34345e-08
1.40552e-08
1.21573e-08
7.70967e-09
6.53286e-09
5.84577e-09
6.01853e-09
5.22406e-09
4.28875e-09
3.33592e-09
3.02521e-09
2.98437e-09
2.7672e-09
3.0604e-09
2.79369e-09
2.69442e-09
2.45909e-09
2.19482e-09
2.63608e-09
3.80082e-09
4.26589e-09
3.29431e-09
2.39055e-09
2.57091e-09
3.36251e-09
3.05861e-09
3.91383e-09
4.4121e-08
2.37584e-08
2.23032e-08
1.71303e-08
1.05527e-08
9.35282e-09
5.71296e-09
5.09045e-09
4.195e-09
5.05961e-09
5.43431e-09
5.48253e-09
4.64991e-09
3.90231e-09
3.29154e-09
3.04368e-09
2.98207e-09
2.54578e-09
2.65896e-09
2.41476e-09
1.90885e-09
3.46404e-09
5.12884e-09
5.19454e-09
4.19912e-09
2.95159e-09
2.92604e-09
3.5395e-09
3.29407e-09
4.9238e-09
3.19937e-08
1.17732e-08
1.25392e-08
9.96045e-09
7.09259e-09
7.14579e-09
4.97861e-09
4.58948e-09
3.74216e-09
4.60167e-09
5.79941e-09
5.92576e-09
4.36023e-09
3.50987e-09
2.96672e-09
2.74729e-09
2.49208e-09
2.29813e-09
2.51731e-09
2.60812e-09
3.60909e-09
4.7573e-09
5.11648e-09
4.99315e-09
4.59164e-09
3.57241e-09
3.47143e-09
3.0933e-09
3.42121e-09
6.17211e-09
2.82912e-08
9.85139e-09
1.15203e-08
8.91663e-09
6.73082e-09
5.77777e-09
3.84728e-09
3.17852e-09
2.40068e-09
3.03062e-09
4.00483e-09
3.83571e-09
2.46974e-09
2.07927e-09
1.77323e-09
1.88518e-09
1.95792e-09
2.11294e-09
1.8916e-09
2.60457e-09
3.14582e-09
3.01533e-09
2.45657e-09
2.748e-09
3.33681e-09
3.49189e-09
3.65355e-09
2.54131e-09
3.36692e-09
6.87715e-09
2.11615e-08
5.70403e-09
6.6188e-09
4.88173e-09
4.05881e-09
3.73099e-09
2.57054e-09
2.39478e-09
2.10287e-09
2.41993e-09
3.01968e-09
2.98853e-09
1.96813e-09
1.9181e-09
1.93036e-09
1.96829e-09
1.88673e-09
1.84472e-09
2.07934e-09
2.55267e-09
2.03353e-09
1.45468e-09
8.3739e-10
1.33265e-09
2.57937e-09
3.38563e-09
3.3906e-09
2.141e-09
3.35753e-09
7.89817e-09
2.13115e-08
4.27175e-09
5.51134e-09
5.34631e-09
4.75942e-09
4.2828e-09
3.13487e-09
2.86373e-09
2.33877e-09
2.24037e-09
2.55783e-09
2.59683e-09
1.79913e-09
2.05566e-09
1.69119e-09
1.37135e-09
1.09488e-09
1.57236e-09
2.23584e-09
2.24518e-09
1.26888e-09
1.0184e-09
6.89059e-10
1.17433e-09
2.35253e-09
3.00242e-09
2.88467e-09
1.98917e-09
3.2025e-09
8.56499e-09
1.73945e-08
3.29527e-09
3.16064e-09
2.6739e-09
2.86792e-09
3.14626e-09
2.67004e-09
2.56862e-09
2.28771e-09
2.18129e-09
2.32249e-09
2.03972e-09
1.87259e-09
2.52261e-09
1.82142e-09
1.01756e-09
1.01879e-09
9.86835e-10
1.75808e-09
1.95909e-09
1.32068e-09
1.24445e-09
1.1022e-09
1.55655e-09
2.25631e-09
2.55447e-09
2.5488e-09
1.97161e-09
2.95194e-09
9.52857e-09
1.76635e-08
2.91834e-09
2.7653e-09
2.25335e-09
2.32951e-09
2.88416e-09
2.86827e-09
2.76529e-09
2.41931e-09
2.15685e-09
2.04515e-09
1.9388e-09
2.36236e-09
2.87808e-09
2.94173e-09
2.12931e-09
2.14619e-09
1.76345e-09
1.22791e-09
1.38952e-09
1.16577e-09
1.20866e-09
1.34177e-09
1.77221e-09
1.92328e-09
1.94767e-09
1.87985e-09
1.44733e-09
2.49537e-09
1.02064e-08
1.58332e-08
2.49894e-09
2.00506e-09
1.69307e-09
1.3991e-09
1.52821e-09
2.08645e-09
2.58954e-09
2.55584e-09
2.30356e-09
2.70912e-09
3.42534e-09
4.07471e-09
4.71009e-09
5.09022e-09
4.59147e-09
4.24034e-09
3.35696e-09
2.57509e-09
2.01326e-09
1.65815e-09
1.66729e-09
1.79983e-09
1.90657e-09
1.66885e-09
1.57198e-09
1.46274e-09
1.14879e-09
2.10607e-09
1.08005e-08
1.65025e-08
2.24006e-09
1.50494e-09
1.40263e-09
1.10045e-09
1.041e-09
1.8024e-09
2.50279e-09
2.53445e-09
2.83923e-09
3.80355e-09
3.96986e-09
4.84849e-09
5.4524e-09
5.85281e-09
5.83711e-09
5.0373e-09
3.86292e-09
3.11859e-09
2.75739e-09
2.12944e-09
1.76356e-09
1.64455e-09
1.59799e-09
1.42133e-09
1.42303e-09
1.37984e-09
1.12125e-09
1.65168e-09
1.11001e-08
1.55839e-08
1.81954e-09
1.05978e-09
1.01966e-09
8.4709e-10
6.7949e-10
1.31868e-09
2.27133e-09
2.05766e-09
3.0411e-09
4.24467e-09
4.77257e-09
5.9959e-09
6.51394e-09
6.64368e-09
6.43556e-09
5.94012e-09
4.86683e-09
3.932e-09
3.22059e-09
2.54865e-09
1.49643e-09
1.33956e-09
1.27293e-09
1.10475e-09
1.11271e-09
1.13392e-09
8.99023e-10
1.63231e-09
1.17862e-08
1.55198e-08
1.74823e-09
1.00326e-09
9.62631e-10
1.01677e-09
1.01509e-09
1.46236e-09
2.31259e-09
2.25599e-09
2.79898e-09
3.72483e-09
5.00314e-09
5.69989e-09
6.34829e-09
6.35153e-09
6.15571e-09
5.5927e-09
4.79057e-09
4.36067e-09
2.83412e-09
2.38519e-09
1.6169e-09
1.07386e-09
9.15056e-10
9.46685e-10
9.10313e-10
7.67963e-10
4.56844e-10
1.65164e-09
1.22909e-08
1.46386e-08
2.03708e-09
1.09043e-09
1.03452e-09
1.05514e-09
1.19633e-09
1.40216e-09
1.69792e-09
2.27069e-09
3.34055e-09
4.04518e-09
4.668e-09
4.36557e-09
5.03749e-09
5.71332e-09
5.7801e-09
5.03162e-09
4.43179e-09
4.52718e-09
3.81197e-09
3.32716e-09
2.25942e-09
1.43231e-09
9.59854e-10
9.79573e-10
8.34457e-10
6.23716e-10
4.50715e-10
1.68434e-09
1.27521e-08
1.44292e-08
2.24988e-09
9.85617e-10
9.78678e-10
1.11305e-09
1.39074e-09
1.48806e-09
1.76869e-09
2.55786e-09
3.6044e-09
3.92858e-09
4.25221e-09
3.78283e-09
4.56671e-09
5.49718e-09
5.63402e-09
4.95407e-09
4.38927e-09
4.76105e-09
4.11525e-09
3.42577e-09
2.41969e-09
1.39238e-09
9.1591e-10
9.51199e-10
8.05348e-10
7.24833e-10
5.07278e-10
1.48293e-09
1.26535e-08
1.37114e-08
2.34722e-09
1.03595e-09
1.21626e-09
1.22973e-09
1.53774e-09
1.50451e-09
1.70892e-09
2.1788e-09
2.96674e-09
3.32653e-09
4.49883e-09
4.55636e-09
5.32064e-09
5.90956e-09
6.04303e-09
5.78598e-09
4.86934e-09
4.68833e-09
3.12195e-09
3.0566e-09
2.23081e-09
1.34061e-09
9.92503e-10
9.24392e-10
7.63885e-10
1.11781e-09
9.86907e-10
1.48041e-09
1.26805e-08
1.32884e-08
2.34779e-09
1.40465e-09
1.53255e-09
1.28488e-09
1.48022e-09
1.64007e-09
1.8113e-09
1.92714e-09
2.98743e-09
3.61514e-09
4.06541e-09
4.64925e-09
5.48363e-09
6.15194e-09
6.34586e-09
5.88366e-09
4.79651e-09
4.01359e-09
2.98816e-09
3.09847e-09
1.94942e-09
1.73549e-09
1.41475e-09
9.78367e-10
9.33292e-10
1.71485e-09
1.66943e-09
1.98737e-09
1.25729e-08
1.23425e-08
2.49655e-09
1.67407e-09
1.71651e-09
1.76374e-09
2.11909e-09
2.23543e-09
2.2949e-09
2.23279e-09
2.72086e-09
3.16959e-09
3.37554e-09
3.62085e-09
4.6275e-09
5.72262e-09
6.10226e-09
5.19089e-09
4.12874e-09
3.41785e-09
3.0227e-09
2.85082e-09
2.45295e-09
2.11332e-09
1.71756e-09
1.38611e-09
1.3034e-09
1.87835e-09
1.77982e-09
2.50593e-09
1.20924e-08
1.1571e-08
2.63511e-09
1.66136e-09
1.57675e-09
2.14094e-09
2.52342e-09
2.19212e-09
2.01729e-09
1.81351e-09
1.94935e-09
2.0281e-09
2.55146e-09
2.65342e-09
3.51983e-09
4.62418e-09
5.4912e-09
4.83708e-09
3.80073e-09
2.92873e-09
2.34532e-09
2.30443e-09
2.21426e-09
2.12143e-09
1.97278e-09
2.0741e-09
1.80616e-09
1.67875e-09
1.44836e-09
2.69099e-09
1.12485e-08
1.08151e-08
3.00645e-09
1.96088e-09
1.78426e-09
2.77819e-09
3.07479e-09
2.18891e-09
1.67103e-09
1.4355e-09
1.48997e-09
1.41719e-09
1.58292e-09
1.61612e-09
2.42574e-09
2.51888e-09
3.36102e-09
3.15402e-09
2.81566e-09
2.03537e-09
1.76145e-09
2.01536e-09
1.85134e-09
1.88841e-09
2.22225e-09
2.90966e-09
2.65511e-09
1.83874e-09
1.32269e-09
2.65454e-09
1.00613e-08
1.00355e-08
3.02815e-09
1.93163e-09
2.54921e-09
3.40274e-09
3.03536e-09
1.98438e-09
1.49364e-09
1.28248e-09
1.28976e-09
1.62765e-09
2.07238e-09
1.31687e-09
1.65834e-09
2.29872e-09
2.38246e-09
2.27561e-09
2.29875e-09
1.97348e-09
1.64283e-09