/*--------------------------------*- C++ -*----------------------------------*\
| =========                 |                                                 |
| \\      /  F ield         | OpenFOAM: The Open Source CFD Toolbox           |
|  \\    /   O peration     | Version:  v1912                                 |
|   \\  /    A nd           | Website:  www.openfoam.com                      |
|    \\/     M anipulation  |                                                 |
\*---------------------------------------------------------------------------*/
FoamFile
{
    version     2.0;
    format      ascii;
    class       surfaceScalarField;
    location    "22/oil";
    object      phi;
}
// * * * * * * * * * * * * * * * * * * * * * * * * * * * * * * * * * * * * * //

dimensions      [1 0 -1 0 0 0 0];
oriented        oriented;


internalField   nonuniform List<scalar> 
104676
(
-1.42775e-06
-1.42976e-06
-1.44406e-06
-7.9828e-07
-3.12465e-07
-3.1701e-07
-2.92135e-07
-2.51311e-07
-2.54834e-07
-1.54142e-07
-6.85847e-08
-6.9408e-08
-6.30824e-08
-4.53329e-08
-4.57272e-08
-3.3059e-08
-1.49964e-08
-1.50269e-08
-1.48005e-08
-9.15659e-09
-9.102e-09
-7.71825e-09
-3.5984e-09
-3.48381e-09
-3.53701e-09
-2.16122e-09
-2.02002e-09
-1.70833e-09
-9.93769e-10
-8.34903e-10
-6.89927e-10
-5.96092e-10
-4.22314e-10
-2.78337e-10
-2.98939e-10
-1.1265e-10
-1.41903e-10
-1.67674e-10
3.12403e-11
-1.95502e-10
-7.7694e-11
1.31292e-10
-3.44769e-10
-3.25506e-11
1.81818e-10
-5.43632e-10
-7.97871e-12
2.06841e-10
-7.49098e-10
-2.99971e-12
2.08466e-10
-9.31904e-10
-1.04005e-11
1.93207e-10
-1.0709e-09
-2.68436e-11
1.65839e-10
-1.15265e-09
-4.88051e-11
1.30551e-10
-1.1696e-09
-7.54414e-11
9.2394e-11
-1.11998e-09
-1.04553e-10
5.49356e-11
-1.01079e-09
-1.3192e-10
2.27296e-11
-8.53864e-10
-1.55989e-10
-9.37326e-13
-6.64541e-10
-1.74925e-10
-1.43977e-11
-4.63178e-10
-1.86484e-10
-1.48795e-11
-2.71403e-10
-1.86778e-10
-4.99731e-12
-1.16652e-10
-1.68773e-10
1.40214e-11
-2.04954e-11
-1.22343e-10
2.61869e-11
-4.4163e-11
2.36676e-11
-3.11742e-07
-8.00043e-07
-3.17971e-07
-2.33622e-07
-2.34664e-07
-1.5592e-07
-1.3876e-07
-2.0526e-07
-1.40913e-07
-8.47659e-08
-6.6496e-08
-5.60829e-08
-4.54788e-08
-4.66362e-08
-3.79837e-08
-2.69771e-08
-1.77357e-08
-1.57624e-08
-1.44232e-08
-1.20481e-08
-9.66252e-09
-8.27482e-09
-5.54421e-09
-4.20253e-09
-4.22824e-09
-3.88491e-09
-2.32289e-09
-2.17348e-09
-2.19208e-09
-8.56452e-10
-9.4218e-10
-1.6208e-09
-2.06588e-10
-4.34876e-10
-1.07927e-09
2.73028e-10
-2.99261e-10
-8.40057e-10
5.36767e-10
-4.52303e-10
-6.4262e-10
7.17968e-10
-7.54988e-10
-5.48482e-10
8.18617e-10
-1.14305e-09
-4.88105e-10
8.68184e-10
-1.53641e-09
-4.76452e-10
8.66817e-10
-1.88673e-09
-4.90471e-10
8.30386e-10
-2.15174e-09
-5.2949e-10
7.67661e-10
-2.30781e-09
-5.80366e-10
6.87631e-10
-2.33702e-09
-6.42706e-10
5.96478e-10
-2.24111e-09
-7.04378e-10
5.03909e-10
-2.03341e-09
-7.6011e-10
4.20494e-10
-1.73627e-09
-8.04397e-10
3.51267e-10
-1.3781e-09
-8.31442e-10
2.98348e-10
-9.96142e-10
-8.32636e-10
2.64192e-10
-6.28257e-10
-7.97173e-10
2.4251e-10
-3.17037e-10
-7.05732e-10
2.2574e-10
-9.48703e-11
-5.29864e-10
1.85354e-10
-2.39431e-10
1.00398e-10
-2.51144e-07
-2.93666e-07
-2.55233e-07
-2.0436e-07
-1.40593e-07
-1.40856e-07
-1.39328e-07
-1.41623e-07
-1.28669e-07
-9.02443e-08
-5.89799e-08
-5.65994e-08
-5.27857e-08
-4.61151e-08
-3.79796e-08
-3.22387e-08
-2.1231e-08
-1.70517e-08
-1.82953e-08
-1.57381e-08
-1.02534e-08
-1.07087e-08
-8.50367e-09
-4.62713e-09
-5.77763e-09
-6.41898e-09
-2.397e-09
-3.08484e-09
-4.13719e-09
-7.47671e-10
-1.48947e-09
-3.2867e-09
7.05292e-11
-7.77948e-10
-2.45208e-09
6.61284e-10
-5.67673e-10
-2.06001e-09
1.00968e-09
-7.28687e-10
-1.72728e-09
1.24567e-09
-1.09487e-09
-1.56448e-09
1.38218e-09
-1.57579e-09
-1.45689e-09
1.44971e-09
-2.06872e-09
-1.42873e-09
1.4452e-09
-2.50874e-09
-1.44305e-09
1.39259e-09
-2.84255e-09
-1.49823e-09
1.30255e-09
-3.03882e-09
-1.57391e-09
1.18981e-09
-3.07408e-09
-1.66263e-09
1.05519e-09
-2.95121e-09
-1.74771e-09
9.20463e-10
-2.68728e-09
-1.82026e-09
7.96214e-10
-2.3102e-09
-1.86986e-09
6.88394e-10
-1.85615e-09
-1.88532e-09
5.99823e-10
-1.36866e-09
-1.85157e-09
5.31436e-10
-8.92813e-10
-1.74694e-09
4.73919e-10
-4.77208e-10
-1.53841e-09
4.1707e-10
-1.57827e-10
-1.17292e-09
3.23678e-10
-5.61619e-10
1.6436e-10
-6.83926e-08
-1.55897e-07
-6.93766e-08
-6.52752e-08
-8.78056e-08
-5.59044e-08
-5.62313e-08
-9.41392e-08
-5.65279e-08
-4.04228e-08
-4.49363e-08
-2.98521e-08
-2.75803e-08
-3.75606e-08
-2.1397e-08
-1.82128e-08
-1.98105e-08
-1.0788e-08
-1.13854e-08
-1.58273e-08
-6.73823e-09
-6.94582e-09
-9.79029e-09
-3.15296e-09
-3.88362e-09
-7.97577e-09
-1.50541e-09
-2.03749e-09
-5.77603e-09
-2.07294e-10
-9.49021e-10
-4.90584e-09
5.30669e-10
-4.98007e-10
-3.99237e-09
1.08928e-09
-4.68724e-10
-3.53856e-09
1.44927e-09
-7.62007e-10
-3.13051e-09
1.69651e-09
-1.24637e-09
-2.92511e-09
1.845e-09
-1.83252e-09
-2.78836e-09
1.91762e-09
-2.41777e-09
-2.74952e-09
1.90604e-09
-2.93221e-09
-2.76667e-09
1.83807e-09
-3.31991e-09
-2.83551e-09
1.72499e-09
-3.5468e-09
-2.9305e-09
1.58348e-09
-3.58793e-09
-3.03556e-09
1.41407e-09
-3.44856e-09
-3.13349e-09
1.2464e-09
-3.14875e-09
-3.20987e-09
1.0898e-09
-2.72011e-09
-3.24957e-09
9.51064e-10
-2.20332e-09
-3.23563e-09
8.33524e-10
-1.6457e-09
-3.14613e-09
7.36949e-10
-1.09376e-09
-2.94912e-09
6.5024e-10
-6.00641e-10
-2.59336e-09
5.61829e-10
-2.06967e-10
-1.99394e-09
4.27347e-10
-9.82555e-10
2.1397e-10
-4.50044e-08
-6.53341e-08
-4.55587e-08
-4.52353e-08
-4.97955e-08
-3.77791e-08
-4.31219e-08
-5.83816e-08
-3.7871e-08
-3.26731e-08
-3.40111e-08
-2.1374e-08
-2.38473e-08
-3.08045e-08
-1.55818e-08
-1.62442e-08
-1.91395e-08
-8.27423e-09
-1.05753e-08
-1.63329e-08
-5.16323e-09
-6.52331e-09
-1.14577e-08
-2.3846e-09
-3.71416e-09
-9.82337e-09
-9.61556e-10
-1.93073e-09
-7.73803e-09
1.7857e-10
-9.01018e-10
-6.82617e-09
8.90615e-10
-4.75399e-10
-5.85922e-09
1.44123e-09
-4.93549e-10
-5.33751e-09
1.8171e-09
-8.40427e-10
-4.85797e-09
2.07434e-09
-1.39015e-09
-4.60675e-09
2.23136e-09
-2.04353e-09
-4.44023e-09
2.30524e-09
-2.69084e-09
-4.38932e-09
2.28712e-09
-3.25665e-09
-4.40377e-09
2.2029e-09
-3.68214e-09
-4.47933e-09
2.06931e-09
-3.92799e-09
-4.57861e-09
1.89396e-09
-3.97056e-09
-4.68481e-09
1.69182e-09
-3.81672e-09
-4.77972e-09
1.49239e-09
-3.48898e-09
-4.84314e-09
1.30554e-09
-3.02146e-09
-4.85604e-09
1.13895e-09
-2.45766e-09
-4.79563e-09
9.962e-10
-1.84721e-09
-4.63336e-09
8.76791e-10
-1.23888e-09
-4.32611e-09
7.68655e-10
-6.87475e-10
-3.80341e-09
6.58648e-10
-2.39906e-10
-2.93815e-09
4.96639e-10
-1.47011e-09
2.47651e-10
-1.45972e-08
-3.59346e-08
-1.48023e-08
-1.62184e-08
-3.26366e-08
-1.55378e-08
-1.80869e-08
-3.95724e-08
-1.69406e-08
-1.46988e-08
-2.66137e-08
-1.07854e-08
-1.1864e-08
-2.53336e-08
-8.30575e-09
-8.38671e-09
-1.79068e-08
-4.70996e-09
-5.67496e-09
-1.6104e-08
-2.9406e-09
-3.3922e-09
-1.25164e-08
-1.22409e-09
-1.76898e-09
-1.12424e-08
-2.04235e-10
-6.79345e-10
-9.5011e-09
6.73432e-10
-1.11496e-10
-8.68665e-09
1.29264e-09
2.17577e-11
-7.79502e-09
1.80255e-09
-2.07119e-10
-7.28172e-09
2.17308e-09
-7.05517e-10
-6.78522e-09
2.42565e-09
-1.37734e-09
-6.51522e-09
2.5803e-09
-2.12889e-09
-6.33914e-09
2.65046e-09
-2.85188e-09
-6.29443e-09
2.6281e-09
-3.47488e-09
-6.3048e-09
2.52403e-09
-3.93932e-09
-6.37869e-09
2.3638e-09
-4.20149e-09
-6.46508e-09
2.14866e-09
-4.24527e-09
-6.55588e-09
1.91485e-09
-4.07994e-09
-6.62876e-09
1.6837e-09
-3.7306e-09
-6.65985e-09
1.46737e-09
-3.23403e-09
-6.62737e-09
1.27475e-09
-2.63558e-09
-6.50371e-09
1.10964e-09
-1.98673e-09
-6.25378e-09
9.71564e-10
-1.33783e-09
-5.82196e-09
8.46953e-10
-7.46178e-10
-5.11639e-09
7.21329e-10
-2.61508e-10
-3.96438e-09
5.41562e-10
-2.00226e-09
2.70637e-10
-8.76075e-09
-1.83354e-08
-8.83849e-09
-1.05214e-08
-2.1432e-08
-9.44385e-09
-1.25545e-08
-2.73472e-08
-1.01921e-08
-1.06314e-08
-2.17268e-08
-6.81016e-09
-8.91271e-09
-2.17695e-08
-5.28275e-09
-6.36152e-09
-1.74213e-08
-3.03669e-09
-4.30694e-09
-1.63721e-08
-1.78651e-09
-2.44688e-09
-1.38377e-08
-5.38728e-10
-1.12106e-09
-1.28648e-08
2.96666e-10
-2.15012e-10
-1.14519e-08
1.04478e-09
2.15885e-10
-1.07396e-08
1.62201e-09
2.46517e-10
-9.94237e-09
2.11672e-09
-6.73367e-11
-9.45928e-09
2.49141e-09
-6.3874e-10
-8.95596e-09
2.74214e-09
-1.37857e-09
-8.67302e-09
2.89763e-09
-2.1891e-09
-8.49491e-09
2.96631e-09
-2.96827e-09
-8.45397e-09
2.93871e-09
-3.62837e-09
-8.45678e-09
2.81207e-09
-4.11816e-09
-8.50656e-09
2.61766e-09
-4.38699e-09
-8.55968e-09
2.36343e-09
-4.42691e-09
-8.61122e-09
2.09525e-09
-4.24926e-09
-8.6372e-09
1.83078e-09
-3.88212e-09
-8.61198e-09
1.58499e-09
-3.36397e-09
-8.51289e-09
1.36737e-09
-2.74196e-09
-8.30774e-09
1.18202e-09
-2.06823e-09
-7.95561e-09
1.02811e-09
-1.39392e-09
-7.3875e-09
8.91224e-10
-7.77767e-10
-6.4887e-09
7.56153e-10
-2.72415e-10
-5.03638e-09
5.66643e-10
-2.55795e-09
2.83279e-10
-3.21666e-09
-1.18967e-08
-3.22201e-09
-4.05663e-09
-1.65447e-08
-4.0474e-09
-5.36312e-09
-2.13729e-08
-4.66785e-09
-4.62298e-09
-1.9113e-08
-3.35392e-09
-4.03669e-09
-1.96987e-08
-2.65711e-09
-2.72416e-09
-1.7248e-08
-1.48585e-09
-1.65112e-09
-1.67338e-08
-7.11313e-10
-5.53672e-10
-1.50594e-08
1.24219e-10
2.1175e-10
-1.44045e-08
7.7424e-10
7.22529e-10
-1.33592e-08
1.39652e-09
8.67573e-10
-1.28107e-08
1.92614e-09
6.92684e-10
-1.21696e-08
2.40216e-09
2.29396e-10
-1.17743e-08
2.77832e-09
-4.52011e-10
-1.13009e-08
3.02635e-09
-1.27661e-09
-1.10317e-08
3.18331e-09
-2.1542e-09
-1.08628e-08
3.24545e-09
-2.98936e-09
-1.08171e-08
3.19833e-09
-3.68107e-09
-1.08202e-08
3.05517e-09
-4.18942e-09
-1.08216e-08
2.8234e-09
-4.46222e-09
-1.08187e-08
2.53182e-09
-4.49756e-09
-1.08051e-08
2.22923e-09
-4.31046e-09
-1.07571e-08
1.93283e-09
-3.93195e-09
-1.06504e-08
1.65987e-09
-3.40275e-09
-1.04622e-08
1.4201e-09
-2.77118e-09
-1.01572e-08
1.21793e-09
-2.08899e-09
-9.68927e-09
1.05147e-09
-1.40735e-09
-8.97528e-09
9.06137e-10
-7.84821e-10
-7.87701e-09
7.65788e-10
-2.74215e-10
-6.12061e-09
5.73625e-10
-3.11934e-09
2.87169e-10
-1.80717e-09
-8.2906e-09
-1.79891e-09
-2.47289e-09
-1.36118e-08
-2.26714e-09
-3.39592e-09
-1.78723e-08
-2.57755e-09
-2.94577e-09
-1.76867e-08
-1.87646e-09
-2.53956e-09
-1.86693e-08
-1.4356e-09
-1.56608e-09
-1.75285e-08
-6.92906e-10
-7.4467e-10
-1.74343e-08
-1.20965e-10
1.17693e-10
-1.64398e-08
5.18103e-10
7.10757e-10
-1.60719e-08
1.07433e-09
1.08828e-09
-1.53661e-08
1.6294e-09
1.1397e-09
-1.49941e-08
2.13194e-09
8.98231e-10
-1.45211e-08
2.59292e-09
3.73896e-10
-1.42242e-08
2.97427e-09
-3.51431e-10
-1.38036e-08
3.22802e-09
-1.20515e-09
-1.35675e-08
3.38951e-09
-2.10349e-09
-1.34061e-08
3.44168e-09
-2.95675e-09
-1.3331e-08
3.36714e-09
-3.6592e-09
-1.33237e-08
3.20587e-09
-4.15706e-09
-1.3266e-08
2.94229e-09
-4.41801e-09
-1.31856e-08
2.62781e-09
-4.44373e-09
-1.30787e-08
2.29931e-09
-4.24914e-09
-1.29289e-08
1.97721e-09
-3.86777e-09
-1.27153e-08
1.6836e-09
-3.34095e-09
-1.24164e-08
1.42739e-09
-2.71676e-09
-1.19952e-08
1.21375e-09
-2.04532e-09
-1.14e-08
1.03933e-09
-1.37619e-09
-1.05345e-08
8.90108e-10
-7.66203e-10
-9.23633e-09
7.49335e-10
-2.66461e-10
-7.18181e-09
5.61462e-10
-3.66671e-09
2.80912e-10
-6.78988e-10
-6.93682e-09
-6.74793e-10
-8.8131e-10
-1.24734e-08
-9.36146e-10
-1.29272e-09
-1.6354e-08
-1.1069e-09
-9.84077e-10
-1.72029e-08
-7.92399e-10
-7.2384e-10
-1.83845e-08
-5.45116e-10
-1.0171e-10
-1.80478e-08
-1.02807e-10
4.1593e-10
-1.82586e-08
3.06725e-10
9.74969e-10
-1.77916e-08
7.92718e-10
1.33379e-09
-1.76959e-08
1.26521e-09
1.52624e-09
-1.73158e-08
1.75719e-09
1.45103e-09
-1.71444e-08
2.22546e-09
1.12896e-09
-1.68624e-08
2.66338e-09
5.38523e-10
-1.66789e-08
3.04507e-09
-2.19088e-10
-1.63501e-08
3.30414e-09
-1.08045e-09
-1.61669e-08
3.4607e-09
-1.9692e-09
-1.60215e-08
3.50413e-09
-2.80513e-09
-1.59077e-08
3.41263e-09
-3.50506e-09
-1.58518e-08
3.22808e-09
-3.98013e-09
-1.5741e-08
2.95008e-09
-4.22153e-09
-1.55666e-08
2.62242e-09
-4.23684e-09
-1.53435e-08
2.28013e-09
-4.04075e-09
-1.50699e-08
1.94488e-09
-3.6686e-09
-1.47298e-08
1.64231e-09
-3.16048e-09
-1.43046e-08
1.38004e-09
-2.56422e-09
-1.37551e-08
1.16365e-09
-1.92612e-09
-1.30268e-08
9.88654e-10
-1.29238e-09
-1.20098e-08
8.41538e-10
-7.17543e-10
-1.05166e-08
7.05424e-10
-2.4912e-10
-8.17782e-09
5.2758e-10
-4.18029e-09
2.64461e-10
-3.33861e-10
-6.26788e-09
-3.35078e-10
-4.39166e-10
-1.191e-08
-4.58006e-10
-6.61338e-10
-1.5609e-08
-5.22784e-10
-4.29515e-10
-1.71119e-08
-3.22875e-10
-1.97738e-10
-1.84769e-08
-1.3935e-10
2.87942e-10
-1.87015e-08
1.67993e-10
7.0035e-10
-1.91621e-08
4.91004e-10
1.13659e-09
-1.91141e-08
8.8624e-10
1.40931e-09
-1.92654e-08
1.29672e-09
1.5374e-09
-1.91758e-08
1.7319e-09
1.4407e-09
-1.91961e-08
2.14846e-09
1.12611e-09
-1.90893e-08
2.54146e-09
5.4312e-10
-1.90073e-08
2.91136e-09
-1.7831e-10
-1.88151e-08
3.18636e-09
-9.83362e-10
-1.86988e-08
3.33702e-09
-1.80608e-09
-1.85698e-08
3.37105e-09
-2.57014e-09
-1.84151e-08
3.27146e-09
-3.21412e-09
-1.82874e-08
3.07958e-09
-3.64535e-09
-1.81263e-08
2.81647e-09
-3.85784e-09
-1.78362e-08
2.48211e-09
-3.85943e-09
-1.74846e-08
2.14271e-09
-3.6691e-09
-1.70746e-08
1.81435e-09
-3.32049e-09
-1.65989e-08
1.52055e-09
-2.85156e-09
-1.604e-08
1.26654e-09
-2.30767e-09
-1.53576e-08
1.05856e-09
-1.72832e-09
-1.44966e-08
8.90427e-10
-1.15364e-09
-1.33346e-08
7.50093e-10
-6.36105e-10
-1.16588e-08
6.24681e-10
-2.18055e-10
-9.06228e-09
4.66414e-10
-4.63368e-09
2.35339e-10
-1.00705e-10
-6.05981e-09
-1.07361e-10
-5.96444e-11
-1.17825e-08
-1.68576e-10
-9.75129e-11
-1.53633e-08
-2.07862e-10
9.8789e-11
-1.72175e-08
-9.06577e-11
2.73398e-10
-1.87039e-08
5.24139e-11
6.10343e-10
-1.93127e-08
2.74269e-10
8.9621e-10
-1.99704e-08
5.22519e-10
1.19556e-09
-2.02497e-08
8.36258e-10
1.37178e-09
-2.06188e-08
1.17724e-09
1.43538e-09
-2.07743e-08
1.53488e-09
1.31457e-09
-2.09569e-08
1.88154e-09
9.95854e-10
-2.10199e-08
2.24939e-09
4.70047e-10
-2.10768e-08
2.59539e-09
-1.63315e-10
-2.10207e-08
2.83897e-09
-8.65272e-10
-2.09672e-08
2.97031e-09
-1.57985e-09
-2.08413e-08
2.98599e-09
-2.23669e-09
-2.06425e-08
2.88416e-09
-2.78416e-09
-2.04429e-08
2.70291e-09
-3.14646e-09
-2.02293e-08
2.46528e-09
-3.31477e-09
-1.98175e-08
2.14965e-09
-3.30055e-09
-1.93486e-08
1.84974e-09
-3.12311e-09
-1.88127e-08
1.56068e-09
-2.81231e-09
-1.82086e-08
1.29882e-09
-2.40069e-09
-1.75223e-08
1.07065e-09
-1.9331e-09
-1.67123e-08
8.87163e-10
-1.44315e-09
-1.573e-08
7.43508e-10
-9.66216e-10
-1.44423e-08
6.30755e-10
-5.3538e-10
-1.26196e-08
5.29938e-10
-1.85322e-10
-9.8094e-09
3.97062e-10
-5.01891e-09
1.99906e-10
-3.59972e-11
-5.97998e-09
-4.38391e-11
-1.02644e-11
-1.17421e-08
-6.61275e-11
-2.24953e-11
-1.5261e-08
-8.99987e-11
1.00844e-10
-1.72987e-08
-4.21669e-11
2.04951e-10
-1.88559e-08
4.79373e-11
4.20569e-10
-1.97389e-08
2.10591e-10
6.13429e-10
-2.05628e-08
3.99468e-10
8.28178e-10
-2.10948e-08
6.30393e-10
9.6805e-10
-2.16424e-08
8.83735e-10
1.00962e-09
-2.19769e-08
1.16102e-09
8.82359e-10
-2.22936e-08
1.46396e-09
6.10847e-10
-2.25289e-08
1.78049e-09
2.34812e-10
-2.27504e-08
2.04964e-09
-2.34357e-10
-2.27918e-08
2.24029e-09
-7.68332e-10
-2.27729e-08
2.33972e-09
-1.31718e-09
-2.26332e-08
2.34075e-09
-1.81076e-09
-2.24077e-08
2.25888e-09
-2.20959e-09
-2.21459e-08
2.10187e-09
-2.48846e-09
-2.18306e-08
1.88018e-09
-2.60059e-09
-2.13101e-08
1.60474e-09
-2.56521e-09
-2.07545e-08
1.37052e-09
-2.41018e-09
-2.01208e-08
1.15302e-09
-2.16272e-09
-1.94181e-08
9.62085e-10
-1.84507e-09
-1.86444e-08
8.0446e-10
-1.48323e-09
-1.77509e-08
6.76717e-10
-1.10526e-09
-1.66757e-08
5.67721e-10
-7.37756e-10
-1.52883e-08
4.78579e-10
-4.07122e-10
-1.33501e-08
3.99858e-10
-1.40408e-10
-1.03763e-08
3.00138e-10
-5.31115e-09
1.51834e-10
-8.22785e-12
-5.94598e-09
-2.57673e-11
-3.38541e-12
-1.16918e-08
-5.51324e-11
-2.52812e-11
-1.51746e-08
-6.45258e-11
2.36395e-11
-1.73076e-08
-3.99718e-11
5.63184e-11
-1.89003e-08
1.17163e-11
1.56585e-10
-1.99433e-08
1.04082e-10
2.41749e-10
-2.08591e-08
2.1119e-10
3.37615e-10
-2.15243e-08
3.33635e-10
4.06229e-10
-2.21777e-08
4.66642e-10
4.18128e-10
-2.26436e-08
6.54861e-10
3.28094e-10
-2.30852e-08
8.81727e-10
1.69118e-10
-2.34672e-08
1.09722e-09
-6.08482e-11
-2.37898e-08
1.26928e-09
-3.46591e-10
-2.39008e-08
1.39472e-09
-6.65324e-10
-2.39224e-08
1.46825e-09
-9.88697e-10
-2.37869e-08
1.47716e-09
-1.27994e-09
-2.35503e-08
1.43385e-09
-1.50368e-09
-2.32562e-08
1.33408e-09
-1.66402e-09
-2.28714e-08
1.20119e-09
-1.73237e-09
-2.22629e-08
1.02114e-09
-1.71429e-09
-2.16115e-08
8.38947e-10
-1.60549e-09
-2.08994e-08
6.69892e-10
-1.42257e-09
-2.0146e-08
5.44991e-10
-1.19053e-09
-1.93367e-08
4.60242e-10
-9.4232e-10
-1.83978e-08
3.98729e-10
-6.94056e-10
-1.72669e-08
3.42934e-10
-4.58363e-10
-1.58166e-08
2.92517e-10
-2.50059e-10
-1.3805e-08
2.46584e-10
-8.55422e-11
-1.07277e-08
1.86948e-10
-5.49274e-09
9.60446e-11
-3.6464e-11
-5.86444e-09
-4.50738e-11
-1.04747e-10
-1.15281e-08
-9.5491e-11
-2.03979e-10
-1.49482e-08
-1.27201e-10
-2.67091e-10
-1.71088e-08
-1.35727e-10
-3.35727e-10
-1.86996e-08
-1.32133e-10
-3.48668e-10
-1.98157e-08
-1.14646e-10
-3.51183e-10
-2.07642e-08
-9.24246e-11
-3.37443e-10
-2.14873e-08
-5.08084e-11
-3.45671e-10
-2.21777e-08
8.21312e-12
-3.56824e-10
-2.27245e-08
9.19805e-11
-3.69514e-10
-2.32504e-08
1.77879e-10
-3.85625e-10
-2.3706e-08
2.54946e-10
-4.5762e-10
-2.40301e-08
3.12387e-10
-5.28909e-10
-2.41871e-08
3.57595e-10
-5.85324e-10
-2.42645e-08
3.98526e-10
-6.54884e-10
-2.415e-08
4.32632e-10
-7.17081e-10
-2.39292e-08
4.41046e-10
-7.48919e-10
-2.36317e-08
4.07315e-10
-7.6235e-10
-2.32236e-08
3.65624e-10
-7.45567e-10
-2.25879e-08
3.082e-10
-7.05757e-10
-2.19034e-08
2.52048e-10
-6.3915e-10
-2.11634e-08
1.973e-10
-5.49957e-10
-2.0393e-08
1.5779e-10
-4.46765e-10
-1.95694e-08
1.29571e-10
-3.42219e-10
-1.86124e-08
1.10091e-10
-2.42434e-10
-1.74608e-08
9.40976e-11
-1.52763e-10
-1.59893e-08
8.30485e-11
-7.83677e-11
-1.39534e-08
7.40894e-11
-2.48635e-11
-1.08409e-08
5.96924e-11
-5.55195e-09
3.43431e-11
-7.42887e-11
-5.71182e-09
-7.83354e-11
-2.13363e-10
-1.12267e-08
-1.62324e-10
-3.97648e-10
-1.45377e-08
-2.26194e-10
-5.77039e-10
-1.66619e-08
-2.675e-10
-7.66074e-10
-1.82096e-08
-3.00987e-10
-9.24732e-10
-1.93371e-08
-3.19912e-10
-1.06998e-09
-2.02862e-08
-3.32761e-10
-1.15782e-09
-2.10497e-08
-3.49694e-10
-1.18554e-09
-2.17582e-08
-3.91694e-10
-1.1533e-09
-2.23043e-08
-4.52378e-10
-1.0983e-09
-2.27935e-08
-5.11898e-10
-1.03428e-09
-2.32203e-08
-5.49724e-10
-9.40492e-10
-2.35507e-08
-5.73245e-10
-7.71913e-10
-2.37608e-08
-5.94858e-10
-5.36677e-10
-2.38651e-08
-6.34645e-10
-3.2925e-10
-2.3713e-08
-6.44436e-10
-1.42162e-10
-2.35016e-08
-6.14716e-10
3.35104e-11
-2.32326e-08
-5.74816e-10
1.52988e-10
-2.28239e-08
-5.19146e-10
2.48034e-10
-2.22247e-08
-4.58259e-10
3.16951e-10
-2.15843e-08
-3.87989e-10
3.51171e-10
-2.08786e-08
-3.1899e-10
3.52284e-10
-2.01331e-08
-2.60964e-10
3.22498e-10
-1.93225e-08
-2.17136e-10
2.75668e-10
-1.83846e-08
-1.80996e-10
2.20095e-10
-1.72559e-08
-1.49348e-10
1.57284e-10
-1.5808e-08
-1.1845e-10
9.44043e-11
-1.38007e-08
-8.98722e-11
3.66881e-11
-1.07257e-08
-5.74784e-11
-5.49084e-09
-2.44142e-11
-1.22331e-10
-5.46627e-09
-1.23214e-10
-3.51905e-10
-1.07399e-08
-2.57213e-10
-6.41188e-10
-1.38908e-08
-3.57653e-10
-9.45604e-10
-1.59248e-08
-4.32716e-10
-1.25653e-09
-1.73897e-08
-5.08893e-10
-1.53353e-09
-1.84717e-08
-5.88444e-10
-1.77057e-09
-1.93707e-08
-6.78453e-10
-1.93721e-09
-2.01034e-08
-7.79661e-10
-2.02759e-09
-2.07711e-08
-8.96768e-10
-1.9986e-09
-2.12891e-08
-1.04424e-09
-1.8542e-09
-2.17093e-08
-1.2286e-09
-1.62935e-09
-2.20484e-08
-1.39678e-09
-1.31657e-09
-2.23353e-08
-1.52819e-09
-9.16441e-10
-2.2531e-08
-1.62993e-09
-4.54956e-10
-2.26317e-08
-1.69493e-09
-3.98237e-12
-2.24802e-08
-1.6838e-09
4.24744e-10
-2.23088e-08
-1.62152e-09
8.06285e-10
-2.21032e-08
-1.51087e-09
1.04921e-09
-2.171e-08
-1.35685e-09
1.21982e-09
-2.12106e-08
-1.18473e-09
1.31267e-09
-2.06876e-08
-9.89601e-10
1.30452e-09
-2.00779e-08
-7.92564e-10
1.2139e-09
-1.93873e-08
-6.55189e-10
1.0575e-09
-1.86082e-08
-5.5795e-10
8.70091e-10
-1.7724e-08
-4.73221e-10
6.70869e-10
-1.66611e-08
-3.9558e-10
4.63379e-10
-1.52799e-08
-3.2067e-10
2.68788e-10
-1.33531e-08
-2.53025e-10
1.01401e-10
-1.03851e-08
-1.73238e-10
-5.30574e-09
-8.3706e-11
-1.6804e-10
-5.12909e-09
-1.69146e-10
-4.79667e-10
-1.00775e-08
-3.50735e-10
-8.65587e-10
-1.302e-08
-4.84816e-10
-1.28066e-09
-1.49197e-08
-5.89966e-10
-1.70032e-09
-1.62677e-08
-7.02388e-10
-2.08146e-09
-1.72592e-08
-8.313e-10
-2.40285e-09
-1.80651e-08
-9.84157e-10
-2.6369e-09
-1.87062e-08
-1.16319e-09
-2.77071e-09
-1.92665e-08
-1.37077e-09
-2.74969e-09
-1.97186e-08
-1.59149e-09
-2.54122e-09
-2.00721e-08
-1.84569e-09
-2.17067e-09
-2.03116e-08
-2.10728e-09
-1.67399e-09
-2.04999e-08
-2.33202e-09
-1.07184e-09
-2.06375e-08
-2.49558e-09
-3.983e-10
-2.07219e-08
-2.58338e-09
2.78684e-10
-2.05962e-08
-2.561e-09
9.14097e-10
-2.04724e-08
-2.47175e-09
1.46864e-09
-2.03519e-08
-2.30594e-09
1.85233e-09
-2.00277e-08
-2.066e-09
2.09442e-09
-1.96497e-08
-1.80295e-09
2.18448e-09
-1.924e-08
-1.53757e-09
2.13053e-09
-1.87452e-08
-1.27874e-09
1.95897e-09
-1.81591e-08
-1.05671e-09
1.70584e-09
-1.74813e-08
-8.73746e-10
1.40045e-09
-1.66975e-08
-7.21059e-10
1.07371e-09
-1.57422e-08
-5.92121e-10
7.41308e-10
-1.44653e-08
-4.82161e-10
4.28873e-10
-1.26552e-08
-3.85445e-10
1.57965e-10
-9.84482e-09
-2.69364e-10
-5.01362e-09
-1.34147e-10
-2.09425e-10
-4.71179e-09
-2.07869e-10
-5.92432e-10
-9.26445e-09
-4.3006e-10
-1.06257e-09
-1.1954e-08
-5.95919e-10
-1.5728e-09
-1.36867e-08
-7.22816e-10
-2.08872e-09
-1.48937e-08
-8.58039e-10
-2.56811e-09
-1.57625e-08
-1.01734e-09
-2.97697e-09
-1.64401e-08
-1.21621e-09
-3.26472e-09
-1.69637e-08
-1.4548e-09
-3.40532e-09
-1.73967e-08
-1.72917e-09
-3.36593e-09
-1.77383e-08
-2.01972e-09
-3.11872e-09
-1.80034e-08
-2.31597e-09
-2.64236e-09
-1.81693e-08
-2.61865e-09
-1.9838e-09
-1.82543e-08
-2.90421e-09
-1.20362e-09
-1.83035e-08
-3.11426e-09
-3.45184e-10
-1.83547e-08
-3.22561e-09
5.17196e-10
-1.82609e-08
-3.19769e-09
1.32145e-09
-1.81874e-08
-3.0893e-09
2.01679e-09
-1.81504e-08
-2.89679e-09
2.51787e-09
-1.79403e-08
-2.58844e-09
2.81343e-09
-1.76828e-08
-2.26246e-09
2.91151e-09
-1.73724e-08
-1.96578e-09
2.83583e-09
-1.69922e-08
-1.67729e-09
2.61191e-09
-1.65359e-08
-1.3992e-09
2.27826e-09
-1.59918e-08
-1.15585e-09
1.87024e-09
-1.53334e-08
-9.56087e-10
1.42919e-09
-1.45098e-08
-7.91313e-10
9.85722e-10
-1.33871e-08
-6.34706e-10
5.66129e-10
-1.17393e-08
-4.96356e-10
2.05777e-10
-9.13422e-09
-3.50248e-10
-4.62942e-09
-1.78432e-10
-2.41907e-10
-4.23035e-09
-2.39535e-10
-6.79861e-10
-8.33507e-09
-4.91429e-10
-1.2207e-09
-1.0733e-08
-6.80146e-10
-1.8153e-09
-1.22654e-08
-8.26715e-10
-2.41049e-09
-1.33145e-08
-9.8398e-10
-2.95735e-09
-1.405e-08
-1.1657e-09
-3.41532e-09
-1.45933e-08
-1.38876e-09
-3.73515e-09
-1.49901e-08
-1.65369e-09
-3.87929e-09
-1.52911e-08
-1.96151e-09
-3.81362e-09
-1.55063e-08
-2.29769e-09
-3.52033e-09
-1.56567e-08
-2.63991e-09
-2.98383e-09
-1.57444e-08
-2.96143e-09
-2.21098e-09
-1.57696e-08
-3.25758e-09
-1.29184e-09
-1.57307e-08
-3.49192e-09
-2.97447e-10
-1.57239e-08
-3.6252e-09
6.98805e-10
-1.56536e-08
-3.60354e-09
1.62946e-09
-1.56335e-08
-3.48458e-09
2.42555e-09
-1.56672e-08
-3.27927e-09
3.00311e-09
-1.55567e-08
-2.96117e-09
3.34812e-09
-1.54102e-08
-2.61759e-09
3.46571e-09
-1.52209e-08
-2.26899e-09
3.37782e-09
-1.49739e-08
-1.93041e-09
3.11601e-09
-1.46564e-08
-1.61775e-09
2.7211e-09
-1.42493e-08
-1.34755e-09
2.2319e-09
-1.37194e-08
-1.12477e-09
1.69164e-09
-1.30166e-08
-9.53039e-10
1.14796e-09
-1.20381e-08
-8.05349e-10
6.51592e-10
-1.05809e-08
-6.62028e-10
2.34415e-10
-8.24444e-09
-4.72608e-10
-4.171e-09
-2.24003e-10
-2.63348e-10
-3.70034e-09
-2.66664e-10
-7.50297e-10
-7.29807e-09
-5.50054e-10
-1.34335e-09
-9.39173e-09
-7.48229e-10
-1.98904e-09
-1.07184e-08
-9.01309e-10
-2.6323e-09
-1.16068e-08
-1.06449e-09
-3.22249e-09
-1.22063e-08
-1.25349e-09
-3.71082e-09
-1.26204e-08
-1.48464e-09
-4.04747e-09
-1.28947e-08
-1.7588e-09
-4.19015e-09
-1.30721e-08
-2.07635e-09
-4.10336e-09
-1.31689e-08
-2.42412e-09
-3.76639e-09
-1.32101e-08
-2.7836e-09
-3.17412e-09
-1.32109e-08
-3.12581e-09
-2.33841e-09
-1.31816e-08
-3.42364e-09
-1.3324e-09
-1.30964e-08
-3.64031e-09
-2.58376e-10
-1.30295e-08
-3.76842e-09
8.22865e-10
-1.29799e-08
-3.75492e-09
1.83885e-09
-1.30075e-08
-3.64198e-09
2.69289e-09
-1.3077e-08
-3.44422e-09
3.32089e-09
-1.30555e-08
-3.12923e-09
3.70143e-09
-1.30145e-08
-2.77623e-09
3.83577e-09
-1.2944e-08
-2.41128e-09
3.74449e-09
-1.28235e-08
-2.05917e-09
3.46048e-09
-1.26351e-08
-1.73726e-09
3.02707e-09
-1.23567e-08
-1.4592e-09
2.48857e-09
-1.19548e-08
-1.22613e-09
1.89075e-09
-1.13773e-08
-1.04143e-09
1.27922e-09
-1.05366e-08
-8.89913e-10
7.17021e-10
-9.2702e-09
-7.48457e-10
2.5522e-10
-7.23543e-09
-5.47202e-10
-3.65928e-09
-2.56503e-10
-2.72348e-10
-3.14346e-09
-2.84533e-10
-7.89265e-10
-6.19596e-09
-5.85191e-10
-1.41327e-09
-7.98307e-09
-7.84666e-10
-2.08765e-09
-9.10416e-09
-9.39819e-10
-2.7566e-09
-9.8333e-09
-1.10453e-09
-3.36733e-09
-1.03028e-08
-1.29271e-09
-3.86806e-09
-1.0599e-08
-1.52066e-09
-4.2082e-09
-1.07649e-08
-1.78961e-09
-4.34327e-09
-1.08385e-08
-2.0985e-09
-4.23803e-09
-1.08396e-08
-2.43457e-09
-3.87256e-09
-1.07934e-08
-2.78221e-09
-3.24338e-09
-1.07207e-08
-3.11934e-09
-2.38028e-09
-1.06322e-08
-3.41252e-09
-1.33649e-09
-1.05257e-08
-3.61449e-09
-2.23534e-10
-1.04299e-08
-3.71254e-09
8.97218e-10
-1.04e-08
-3.70065e-09
1.94834e-09
-1.04578e-08
-3.60082e-09
2.82878e-09
-1.0547e-08
-3.41047e-09
3.48822e-09
-1.05991e-08
-3.11582e-09
3.89266e-09
-1.06415e-08
-2.77752e-09
4.04089e-09
-1.06658e-08
-2.4264e-09
3.95209e-09
-1.0648e-08
-2.08664e-09
3.65891e-09
-1.05676e-08
-1.77433e-09
3.20523e-09
-1.04007e-08
-1.50229e-09
2.63867e-09
-1.01159e-08
-1.27234e-09
2.01025e-09
-9.66451e-09
-1.08436e-09
1.36602e-09
-8.96824e-09
-9.24178e-10
7.66629e-10
-7.89359e-09
-7.77215e-10
2.70342e-10
-6.16241e-09
-5.76741e-10
-3.11542e-09
-2.7351e-10
-2.80186e-10
-2.57518e-09
-2.88096e-10
-8.04033e-10
-5.08418e-09
-5.87931e-10
-1.43484e-09
-6.56018e-09
-7.9208e-10
-2.11707e-09
-7.47529e-09
-9.46637e-10
-2.79164e-09
-8.05254e-09
-1.10619e-09
-3.40499e-09
-8.40382e-09
-1.28567e-09
-3.90342e-09
-8.59918e-09
-1.50138e-09
-4.23656e-09
-8.67793e-09
-1.75386e-09
-4.36022e-09
-8.6733e-09
-2.04153e-09
-4.24158e-09
-8.60555e-09
-2.35268e-09
-3.85966e-09
-8.50095e-09
-2.67435e-09
-3.21665e-09
-8.37706e-09
-2.98666e-09
-2.35882e-09
-8.24327e-09
-3.24676e-09
-1.32802e-09
-8.12918e-09
-3.42732e-09
-2.04479e-10
-8.04282e-09
-3.51061e-09
9.17469e-10
-8.01643e-09
-3.5055e-09
1.95601e-09
-8.07242e-09
-3.42389e-09
2.84767e-09
-8.18233e-09
-3.25633e-09
3.5249e-09
-8.28504e-09
-2.99131e-09
3.94188e-09
-8.38416e-09
-2.67428e-09
4.0997e-09
-8.47361e-09
-2.35004e-09
4.01754e-09
-8.52988e-09
-2.03597e-09
3.72628e-09
-8.53094e-09
-1.74542e-09
3.26937e-09
-8.45313e-09
-1.4907e-09
2.69448e-09
-8.26769e-09
-1.27334e-09
2.05471e-09
-7.93173e-09
-1.09301e-09
1.39972e-09
-7.37891e-09
-9.34343e-10
7.87107e-10
-6.4954e-09
-7.85577e-10
2.74401e-10
-5.06154e-09
-5.88159e-10
-2.55916e-09
-2.81859e-10
-2.79182e-10
-2.01285e-09
-2.83146e-10
-7.93197e-10
-3.99415e-09
-5.76013e-10
-1.41363e-09
-5.16221e-09
-7.77535e-10
-2.08527e-09
-5.878e-09
-9.25649e-10
-2.74797e-09
-6.31442e-09
-1.07542e-09
-3.34881e-09
-6.56153e-09
-1.24145e-09
-3.83329e-09
-6.67551e-09
-1.43919e-09
-4.15234e-09
-6.69002e-09
-1.66886e-09
-4.26377e-09
-6.63277e-09
-1.9291e-09
-4.1358e-09
-6.52453e-09
-2.20899e-09
-3.75153e-09
-6.38798e-09
-2.49724e-09
-3.12134e-09
-6.23778e-09
-2.76946e-09
-2.28325e-09
-6.09119e-09
-2.99018e-09
-1.28162e-09
-5.97734e-09
-3.15347e-09
-1.80711e-10
-5.90869e-09
-3.23504e-09
9.17002e-10
-5.88516e-09
-3.22898e-09
1.93118e-09
-5.93526e-09
-3.15133e-09
2.79885e-09
-6.04792e-09
-3.00208e-09
3.46092e-09
-6.17216e-09
-2.77494e-09
3.87655e-09
-6.30292e-09
-2.49687e-09
4.03917e-09
-6.42875e-09
-2.20748e-09
3.96533e-09
-6.53002e-09
-1.92602e-09
3.68338e-09
-6.58517e-09
-1.66382e-09
3.2351e-09
-6.5727e-09
-1.43216e-09
2.6677e-09
-6.46726e-09
-1.23304e-09
2.03485e-09
-6.23257e-09
-1.0663e-09
1.38645e-09
-5.81421e-09
-9.16304e-10
7.81495e-10
-5.12061e-09
-7.69832e-10
2.73696e-10
-3.97996e-09
-5.73783e-10
-2.00753e-09
-2.77941e-10
-2.67721e-10
-1.47627e-09
-2.68859e-10
-7.59105e-10
-2.95595e-09
-5.46824e-10
-1.35294e-09
-3.83092e-09
-7.37451e-10
-1.99736e-09
-4.35909e-09
-8.7449e-10
-2.63365e-09
-4.66749e-09
-1.01063e-09
-3.21008e-09
-4.82583e-09
-1.15928e-09
-3.67259e-09
-4.87712e-09
-1.33588e-09
-3.97427e-09
-4.84889e-09
-1.53944e-09
-4.07447e-09
-4.76358e-09
-1.76899e-09
-3.94385e-09
-4.63959e-09
-2.01556e-09
-3.56742e-09
-4.49415e-09
-2.27026e-09
-2.96341e-09
-4.34142e-09
-2.50037e-09
-2.16077e-09
-4.20365e-09
-2.69017e-09
-1.20515e-09
-4.09921e-09
-2.83375e-09
-1.5816e-10
-4.04264e-09
-2.91305e-09
8.86521e-10
-4.02486e-09
-2.90498e-09
1.8546e-09
-4.07054e-09
-2.8328e-09
2.6826e-09
-4.17305e-09
-2.70287e-09
3.31523e-09
-4.29652e-09
-2.50827e-09
3.71975e-09
-4.43635e-09
-2.2711e-09
3.88178e-09
-4.57377e-09
-2.01701e-09
3.81501e-09
-4.69355e-09
-1.7697e-09
3.54655e-09
-4.77822e-09
-1.53848e-09
3.11572e-09
-4.80866e-09
-1.33321e-09
2.56814e-09
-4.76428e-09
-1.15539e-09
1.95647e-09
-4.61524e-09
-1.00566e-09
1.33155e-09
-4.32022e-09
-8.69073e-10
7.51247e-10
-3.80806e-09
-7.32246e-10
2.65824e-10
-2.95076e-09
-5.43783e-10
-1.47652e-09
-2.65187e-10
-2.45454e-10
-9.85327e-10
-2.45486e-10
-6.98294e-10
-2.00328e-09
-4.99823e-10
-1.25091e-09
-2.60769e-09
-6.70616e-10
-1.85395e-09
-2.96577e-09
-7.90282e-10
-2.45175e-09
-3.16151e-09
-9.08192e-10
-2.99448e-09
-3.24655e-09
-1.03654e-09
-3.4293e-09
-3.25276e-09
-1.18954e-09
-3.71135e-09
-3.20107e-09
-1.36578e-09
-3.80255e-09
-3.10775e-09
-1.56462e-09
-3.67587e-09
-2.98798e-09
-1.77829e-09
-3.32022e-09
-2.85324e-09
-1.99657e-09
-2.75339e-09
-2.71975e-09
-2.1885e-09
-2.00161e-09
-2.60218e-09
-2.35325e-09
-1.10911e-09
-2.51443e-09
-2.47728e-09
-1.35582e-10
-2.46737e-09
-2.5488e-09
8.36311e-10
-2.45655e-09
-2.54021e-09
1.73822e-09
-2.49657e-09
-2.47588e-09
2.50979e-09
-2.58148e-09
-2.36314e-09
3.10239e-09
-2.69123e-09
-2.19789e-09
3.48484e-09
-2.81796e-09
-2.00082e-09
3.63961e-09
-2.94752e-09
-1.78102e-09
3.57799e-09
-3.06493e-09
-1.567e-09
3.32495e-09
-3.1582e-09
-1.36699e-09
2.91749e-09
-3.2119e-09
-1.18929e-09
2.39927e-09
-3.21053e-09