/*--------------------------------*- C++ -*----------------------------------*\
| =========                 |                                                 |
| \\      /  F ield         | OpenFOAM: The Open Source CFD Toolbox           |
|  \\    /   O peration     | Version:  v1912                                 |
|   \\  /    A nd           | Website:  www.openfoam.com                      |
|    \\/     M anipulation  |                                                 |
\*---------------------------------------------------------------------------*/
FoamFile
{
    version     2.0;
    format      ascii;
    class       volVectorField;
    location    "536/oil";
    object      U;
}
// * * * * * * * * * * * * * * * * * * * * * * * * * * * * * * * * * * * * * //

dimensions      [0 1 -1 0 0 0 0];


internalField   nonuniform List<vector> 
35580
(
(-1.24298e-09 2.47084e-09 -1.26755e-09)
(1.26146e-09 2.24753e-09 -3.04139e-09)
(1.16557e-08 2.21725e-09 -4.89122e-09)
(2.80267e-08 2.76847e-09 -6.76436e-09)
(4.79319e-08 3.64841e-09 -8.27296e-09)
(6.85842e-08 4.68461e-09 -9.28866e-09)
(8.74052e-08 5.77835e-09 -9.80154e-09)
(1.02156e-07 6.88314e-09 -9.8692e-09)
(1.11008e-07 7.97049e-09 -9.57883e-09)
(1.12744e-07 9.0115e-09 -9.01255e-09)
(1.06696e-07 9.95192e-09 -8.24448e-09)
(9.29177e-08 1.07478e-08 -7.47776e-09)
(7.22439e-08 1.13713e-08 -6.76553e-09)
(4.59714e-08 1.18451e-08 -6.25772e-09)
(1.61238e-08 1.21059e-08 -5.99207e-09)
(-1.5028e-08 1.21373e-08 -5.9974e-09)
(-4.49657e-08 1.18646e-08 -6.25744e-09)
(-7.12935e-08 1.13826e-08 -6.75021e-09)
(-9.20957e-08 1.07197e-08 -7.43153e-09)
(-1.06003e-07 9.93901e-09 -8.20884e-09)
(-1.12268e-07 9.01417e-09 -8.96882e-09)
(-1.10703e-07 7.96056e-09 -9.56053e-09)
(-1.01955e-07 6.87252e-09 -9.85015e-09)
(-8.73012e-08 5.77066e-09 -9.79186e-09)
(-6.85509e-08 4.67663e-09 -9.28103e-09)
(-4.79556e-08 3.64365e-09 -8.26586e-09)
(-2.80849e-08 2.76418e-09 -6.75338e-09)
(-1.17218e-08 2.20671e-09 -4.86972e-09)
(-1.31905e-09 2.22531e-09 -3.01446e-09)
(1.2164e-09 2.4261e-09 -1.24697e-09)
(6.36551e-10 -2.31275e-09 6.21736e-10)
(1.27968e-08 -1.41582e-08 5.3605e-10)
(3.72907e-08 -2.36163e-08 -3.21691e-10)
(7.14197e-08 -2.87493e-08 -1.44317e-09)
(1.11134e-07 -3.03774e-08 -2.2707e-09)
(1.51667e-07 -2.93761e-08 -2.55626e-09)
(1.88235e-07 -2.6469e-08 -2.24212e-09)
(2.16531e-07 -2.21986e-08 -1.3711e-09)
(2.32983e-07 -1.70249e-08 -4.67864e-11)
(2.3508e-07 -1.13799e-08 1.57831e-09)
(2.21441e-07 -5.71475e-09 3.48045e-09)
(1.92097e-07 -5.19407e-10 5.26416e-09)
(1.48867e-07 3.76711e-09 6.8316e-09)
(9.4594e-08 6.89782e-09 7.957e-09)
(3.31532e-08 8.55881e-09 8.55106e-09)
(-3.0942e-08 8.59404e-09 8.57035e-09)
(-9.25875e-08 6.8648e-09 7.98454e-09)
(-1.46957e-07 3.67192e-09 6.8937e-09)
(-1.90201e-07 -7.08366e-10 5.36601e-09)
(-2.19636e-07 -5.84543e-09 3.58381e-09)
(-2.33644e-07 -1.15026e-08 1.71351e-09)
(-2.31861e-07 -1.71384e-08 4.72409e-11)
(-2.15665e-07 -2.22759e-08 -1.28239e-09)
(-1.87653e-07 -2.65177e-08 -2.17211e-09)
(-1.5133e-07 -2.94241e-08 -2.49769e-09)
(-1.10997e-07 -3.04423e-08 -2.21808e-09)
(-7.14242e-08 -2.88488e-08 -1.40043e-09)
(-3.73471e-08 -2.37529e-08 -2.84914e-10)
(-1.28315e-08 -1.42986e-08 5.56645e-10)
(-6.43445e-10 -2.42966e-09 6.12103e-10)
(2.5001e-09 -2.28332e-08 2.49711e-09)
(2.51214e-08 -6.0471e-08 4.42357e-09)
(6.15e-08 -8.8355e-08 4.83023e-09)
(1.08285e-07 -1.06092e-07 4.76974e-09)
(1.60554e-07 -1.15535e-07 4.86491e-09)
(2.12845e-07 -1.18474e-07 5.40292e-09)
(2.59415e-07 -1.16452e-07 6.48627e-09)
(2.94933e-07 -1.10727e-07 8.10566e-09)
(3.14912e-07 -1.02392e-07 1.01599e-08)
(3.16166e-07 -9.24586e-08 1.2468e-08)
(2.96856e-07 -8.19446e-08 1.50149e-08)
(2.56927e-07 -7.19449e-08 1.73739e-08)
(1.98768e-07 -6.35558e-08 1.93688e-08)
(1.2616e-07 -5.74797e-08 2.08113e-08)
(4.41848e-08 -5.42661e-08 2.15772e-08)
(-4.13376e-08 -5.42794e-08 2.16279e-08)
(-1.23642e-07 -5.76397e-08 2.08502e-08)
(-1.96372e-07 -6.39017e-08 1.9427e-08)
(-2.54478e-07 -7.24173e-08 1.74321e-08)
(-2.94609e-07 -8.23494e-08 1.51152e-08)
(-3.14396e-07 -9.28248e-08 1.25943e-08)
(-3.13518e-07 -1.02665e-07 1.02426e-08)
(-2.93867e-07 -1.10915e-07 8.18465e-09)
(-2.58686e-07 -1.16583e-07 6.55844e-09)
(-2.12419e-07 -1.18589e-07 5.46789e-09)
(-1.60374e-07 -1.15677e-07 4.92888e-09)
(-1.08269e-07 -1.06294e-07 4.82409e-09)
(-6.15517e-08 -8.86208e-08 4.86751e-09)
(-2.51735e-08 -6.07231e-08 4.42874e-09)
(-2.52164e-09 -2.29901e-08 2.47258e-09)
(3.99766e-09 -5.6624e-08 3.98731e-09)
(3.54558e-08 -1.3201e-07 7.39061e-09)
(8.17794e-08 -1.85106e-07 8.66332e-09)
(1.38528e-07 -2.20366e-07 9.31391e-09)
(2.00021e-07 -2.41518e-07 1.00723e-08)
(2.60399e-07 -2.51467e-07 1.12202e-08)
(3.13464e-07 -2.52663e-07 1.28693e-08)
(3.53392e-07 -2.4715e-07 1.50211e-08)
(3.75197e-07 -2.36759e-07 1.75824e-08)
(3.75258e-07 -2.23201e-07 2.03667e-08)
(3.51417e-07 -2.08201e-07 2.33099e-08)
(3.03629e-07 -1.9341e-07 2.6041e-08)
(2.34665e-07 -1.80698e-07 2.83688e-08)
(1.48774e-07 -1.71354e-07 3.0012e-08)
(5.2059e-08 -1.66431e-07 3.0872e-08)
(-4.88423e-08 -1.66505e-07 3.09365e-08)
(-1.45988e-07 -1.71562e-07 3.00295e-08)
(-2.31939e-07 -1.81046e-07 2.83809e-08)
(-3.00854e-07 -1.93788e-07 2.6068e-08)
(-3.48867e-07 -2.08522e-07 2.33768e-08)
(-3.7316e-07 -2.23491e-07 2.04269e-08)
(-3.735e-07 -2.36969e-07 1.76159e-08)
(-3.52082e-07 -2.47295e-07 1.50584e-08)
(-3.12528e-07 -2.52763e-07 1.2908e-08)
(-2.59807e-07 -2.51569e-07 1.1264e-08)
(-1.99736e-07 -2.41676e-07 1.01242e-08)
(-1.38464e-07 -2.20615e-07 9.35321e-09)
(-8.18129e-08 -1.85417e-07 8.67371e-09)
(-3.55218e-08 -1.32274e-07 7.3661e-09)
(-4.03387e-09 -5.68284e-08 3.94712e-09)
(5.05839e-09 -1.0085e-07 5.04626e-09)
(4.32582e-08 -2.23429e-07 9.44221e-09)
(9.74136e-08 -3.0687e-07 1.12627e-08)
(1.61962e-07 -3.63048e-07 1.23579e-08)
(2.30481e-07 -3.98581e-07 1.35283e-08)
(2.9682e-07 -4.17811e-07 1.50949e-08)
(3.54508e-07 -4.24191e-07 1.7153e-08)
(3.9747e-07 -4.2057e-07 1.97179e-08)
(4.20432e-07 -4.09524e-07 2.2694e-08)
(4.19516e-07 -3.93476e-07 2.58982e-08)
(3.92359e-07 -3.74858e-07 2.91802e-08)
(3.38808e-07 -3.55885e-07 3.2255e-08)
(2.61706e-07 -3.39156e-07 3.49023e-08)
(1.65802e-07 -3.26592e-07 3.67313e-08)
(5.7992e-08 -3.19995e-07 3.76877e-08)
(-5.44873e-08 -3.20102e-07 3.77659e-08)
(-1.62791e-07 -3.2676e-07 3.67547e-08)
(-2.58633e-07 -3.3928e-07 3.4906e-08)
(-3.35732e-07 -3.55986e-07 3.2312e-08)
(-3.89569e-07 -3.74921e-07 2.92472e-08)
(-4.172e-07 -3.93535e-07 2.59471e-08)
(-4.18568e-07 -4.09568e-07 2.27303e-08)
(-3.96024e-07 -4.20617e-07 1.97586e-08)
(-3.53455e-07 -4.24242e-07 1.71937e-08)
(-2.96118e-07 -4.179e-07 1.51311e-08)
(-2.30099e-07 -3.98733e-07 1.35642e-08)
(-1.61838e-07 -3.63298e-07 1.23697e-08)
(-9.74319e-08 -3.07154e-07 1.12336e-08)
(-4.33459e-08 -2.23583e-07 9.3664e-09)
(-5.1161e-09 -1.0109e-07 4.98227e-09)
(5.73642e-09 -1.52496e-07 5.75062e-09)
(4.86026e-08 -3.29159e-07 1.07607e-08)
(1.0843e-07 -4.46778e-07 1.289e-08)
(1.78683e-07 -5.26316e-07 1.42444e-08)
(2.52312e-07 -5.78104e-07 1.56692e-08)
(3.22962e-07 -6.08327e-07 1.75166e-08)
(3.84e-07 -6.2155e-07 1.98861e-08)
(4.29201e-07 -6.21447e-07 2.28052e-08)
(4.53111e-07 -6.11309e-07 2.61676e-08)
(4.51642e-07 -5.94221e-07 2.97958e-08)
(4.22355e-07 -5.73282e-07 3.34578e-08)
(3.64881e-07 -5.51319e-07 3.69411e-08)
(2.81808e-07 -5.31381e-07 3.99356e-08)
(1.78487e-07 -5.16054e-07 4.1996e-08)
(6.23881e-08 -5.07977e-07 4.30569e-08)
(-5.86872e-08 -5.08069e-07 4.31304e-08)
(-1.75334e-07 -5.16199e-07 4.20039e-08)
(-2.78492e-07 -5.3129e-07 3.99346e-08)
(-3.6158e-07 -5.51266e-07 3.70321e-08)
(-4.19396e-07 -5.73213e-07 3.35445e-08)
(-4.49193e-07 -5.94155e-07 2.98636e-08)
(-4.51147e-07 -6.11262e-07 2.62257e-08)
(-4.27678e-07 -6.21442e-07 2.28617e-08)
(-3.82887e-07 -6.2158e-07 1.99479e-08)
(-3.222e-07 -6.08408e-07 1.75634e-08)
(-2.51862e-07 -5.78235e-07 1.57061e-08)
(-1.78501e-07 -5.26512e-07 1.42406e-08)
(-1.08432e-07 -4.46964e-07 1.28264e-08)
(-4.87243e-08 -3.29156e-07 1.06383e-08)
(-5.82151e-09 -1.5276e-07 5.66459e-09)
(6.12398e-09 -2.08857e-07 6.14503e-09)
(5.17617e-08 -4.4426e-07 1.14877e-08)
(1.15056e-07 -5.98662e-07 1.38014e-08)
(1.88812e-07 -7.03226e-07 1.52995e-08)
(2.65592e-07 -7.72662e-07 1.68834e-08)
(3.38909e-07 -8.15299e-07 1.89448e-08)
(4.02082e-07 -8.36948e-07 2.1576e-08)
(4.48817e-07 -8.42118e-07 2.48206e-08)
(4.7355e-07 -8.34759e-07 2.85586e-08)
(4.72032e-07 -8.18528e-07 3.26129e-08)
(4.4173e-07 -7.97075e-07 3.66959e-08)
(3.82042e-07 -7.7382e-07 4.05971e-08)
(2.9521e-07 -7.5207e-07 4.39797e-08)
(1.86977e-07 -7.34747e-07 4.62925e-08)
(6.53105e-08 -7.25491e-07 4.7435e-08)
(-6.14708e-08 -7.25533e-07 4.75107e-08)
(-1.83746e-07 -7.34943e-07 4.62777e-08)
(-2.9179e-07 -7.5189e-07 4.39951e-08)
(-3.78629e-07 -7.73759e-07 4.07277e-08)
(-4.38686e-07 -7.9701e-07 3.68181e-08)
(-4.69524e-07 -8.18459e-07 3.27117e-08)
(-4.7155e-07 -8.34717e-07 2.86434e-08)
(-4.47266e-07 -8.42128e-07 2.48957e-08)
(-4.00946e-07 -8.36993e-07 2.16523e-08)
(-3.38123e-07 -8.15378e-07 1.89967e-08)
(-2.65103e-07 -7.72757e-07 1.69229e-08)
(-1.88587e-07 -7.0332e-07 1.52783e-08)
(-1.15033e-07 -5.98638e-07 1.36972e-08)
(-5.18941e-08 -4.44009e-07 1.13347e-08)
(-6.21744e-09 -2.09189e-07 6.05349e-09)
(6.24149e-09 -2.67507e-07 6.28801e-09)
(5.28584e-08 -5.64104e-07 1.17475e-08)
(1.17377e-07 -7.56657e-07 1.41386e-08)
(1.92297e-07 -8.87206e-07 1.57143e-08)
(2.70059e-07 -9.75298e-07 1.73918e-08)
(3.44187e-07 -1.03163e-06 1.96041e-08)
(4.08068e-07 -1.06331e-06 2.24618e-08)
(4.55473e-07 -1.07572e-06 2.60017e-08)
(4.80805e-07 -1.07335e-06 3.0098e-08)
(4.79702e-07 -1.06034e-06 3.45772e-08)
(4.49509e-07 -1.04077e-06 3.91152e-08)
(3.89392e-07 -1.01845e-06 4.34155e-08)
(3.01098e-07 -9.9672e-07 4.72082e-08)
(1.90591e-07 -9.78335e-07 4.97963e-08)
(6.65117e-08 -9.685e-07 5.10548e-08)
(-6.27409e-08 -9.68711e-07 5.11799e-08)
(-1.87463e-07 -9.7886e-07 4.98023e-08)
(-2.97743e-07 -9.96678e-07 4.7268e-08)
(-3.85976e-07 -1.0185e-06 4.35522e-08)
(-4.46467e-07 -1.04081e-06 3.92293e-08)
(-4.77181e-07 -1.06035e-06 3.46732e-08)
(-4.7879e-07 -1.07338e-06 3.01818e-08)
(-4.53902e-07 -1.07579e-06 2.60743e-08)
(-4.06902e-07 -1.06344e-06 2.2539e-08)
(-3.43358e-07 -1.03176e-06 1.96581e-08)
(-2.69524e-07 -9.75407e-07 1.74123e-08)
(-1.92026e-07 -8.87216e-07 1.56543e-08)
(-1.17325e-07 -7.56394e-07 1.40041e-08)
(-5.29836e-08 -5.63587e-07 1.15929e-08)
(-6.343e-09 -2.68001e-07 6.20763e-09)
(6.14057e-09 -3.26282e-07 6.18634e-09)
(5.19839e-08 -6.84196e-07 1.15492e-08)
(1.15356e-07 -9.15106e-07 1.39261e-08)
(1.88861e-07 -1.07191e-06 1.55569e-08)
(2.6512e-07 -1.17912e-06 1.72956e-08)
(3.37867e-07 -1.25011e-06 1.95704e-08)
(4.00695e-07 -1.29336e-06 2.25678e-08)
(4.47578e-07 -1.315e-06 2.63193e-08)
(4.73032e-07 -1.32001e-06 3.06919e-08)
(4.72637e-07 -1.31283e-06 3.55211e-08)
(4.43615e-07 -1.29778e-06 4.04552e-08)
(3.85006e-07 -1.27874e-06 4.51011e-08)
(2.98007e-07 -1.25912e-06 4.91985e-08)
(1.88485e-07 -1.24134e-06 5.20893e-08)
(6.5796e-08 -1.23208e-06 5.35564e-08)
(-6.21298e-08 -1.23232e-06 5.36775e-08)
(-1.85451e-07 -1.24176e-06 5.20355e-08)
(-2.94734e-07 -1.25901e-06 4.92433e-08)
(-3.81615e-07 -1.27885e-06 4.52236e-08)
(-4.40641e-07 -1.29792e-06 4.05589e-08)
(-4.70152e-07 -1.31294e-06 3.56201e-08)
(-4.71057e-07 -1.32012e-06 3.07795e-08)
(-4.4604e-07 -1.31518e-06 2.63915e-08)
(-3.99529e-07 -1.2936e-06 2.26387e-08)
(-3.37018e-07 -1.25033e-06 1.96001e-08)
(-2.64568e-07 -1.1792e-06 1.72431e-08)
(-1.88553e-07 -1.07164e-06 1.54319e-08)
(-1.15253e-07 -9.1439e-07 1.3773e-08)
(-5.20577e-08 -6.83346e-07 1.14002e-08)
(-6.22265e-09 -3.26865e-07 6.10412e-09)
(5.81739e-09 -3.82945e-07 5.81006e-09)
(4.90972e-08 -7.99988e-07 1.08496e-08)
(1.08883e-07 -1.06815e-06 1.30922e-08)
(1.78199e-07 -1.25076e-06 1.47224e-08)
(2.50176e-07 -1.377e-06 1.65152e-08)
(3.1897e-07 -1.46302e-06 1.88022e-08)
(3.7861e-07 -1.51895e-06 2.18147e-08)
(4.23439e-07 -1.55154e-06 2.56364e-08)
(4.4826e-07 -1.56611e-06 3.01143e-08)
(4.48721e-07 -1.56723e-06 3.51106e-08)
(4.21937e-07 -1.55927e-06 4.02691e-08)
(3.66807e-07 -1.54589e-06 4.51533e-08)
(2.84171e-07 -1.53021e-06 4.93258e-08)
(1.79576e-07 -1.51479e-06 5.24132e-08)
(6.27132e-08 -1.5073e-06 5.41143e-08)
(-5.93723e-08 -1.50752e-06 5.42381e-08)
(-1.76795e-07 -1.51486e-06 5.23549e-08)
(-2.80947e-07 -1.52935e-06 4.93472e-08)
(-3.63421e-07 -1.54544e-06 4.52758e-08)
(-4.1905e-07 -1.55931e-06 4.03636e-08)
(-4.46269e-07 -1.5674e-06 3.52131e-08)
(-4.46338e-07 -1.56631e-06 3.02003e-08)
(-4.21963e-07 -1.55186e-06 2.57021e-08)
(-3.77463e-07 -1.51936e-06 2.18917e-08)
(-3.18101e-07 -1.46331e-06 1.88244e-08)
(-2.49571e-07 -1.37682e-06 1.64643e-08)
(-1.77795e-07 -1.24996e-06 1.46928e-08)
(-1.08643e-07 -1.06691e-06 1.31025e-08)
(-4.90619e-08 -7.98904e-07 1.08615e-08)
(-5.85631e-09 -3.83636e-07 5.80339e-09)
(5.26671e-09 -4.35147e-07 5.18391e-09)
(4.41406e-08 -9.06537e-07 9.72292e-09)
(9.78558e-08 -1.20929e-06 1.17205e-08)
(1.6007e-07 -1.41646e-06 1.32203e-08)
(2.24745e-07 -1.56112e-06 1.49937e-08)
(2.86736e-07 -1.66185e-06 1.72337e-08)
(3.40779e-07 -1.73087e-06 2.01287e-08)
(3.81728e-07 -1.77551e-06 2.38055e-08)
(4.04876e-07 -1.80116e-06 2.81081e-08)
(4.06086e-07 -1.81239e-06 3.29921e-08)
(3.82364e-07 -1.8133e-06 3.81053e-08)
(3.32726e-07 -1.80703e-06 4.29789e-08)
(2.58047e-07 -1.79704e-06 4.70073e-08)
(1.63274e-07 -1.78642e-06 5.01161e-08)
(5.70874e-08 -1.78145e-06 5.18858e-08)
(-5.40951e-08 -1.78173e-06 5.20435e-08)
(-1.60746e-07 -1.78636e-06 5.01293e-08)
(-2.54978e-07 -1.79602e-06 4.6931e-08)
(-3.29725e-07 -1.80676e-06 4.29862e-08)
(-3.79847e-07 -1.81348e-06 3.81084e-08)
(-4.03774e-07 -1.81267e-06 3.30819e-08)
(-4.03066e-07 -1.8014e-06 2.82008e-08)
(-3.80381e-07 -1.77592e-06 2.38617e-08)
(-3.39744e-07 -1.73145e-06 2.02194e-08)
(-2.8599e-07 -1.66205e-06 1.72589e-08)
(-2.24214e-07 -1.56019e-06 1.49388e-08)
(-1.59622e-07 -1.41464e-06 1.31577e-08)
(-9.74684e-08 -1.20727e-06 1.16089e-08)
(-4.39741e-08 -9.0502e-07 9.59863e-09)
(-5.21875e-09 -4.35739e-07 5.15747e-09)
(4.46072e-09 -4.80575e-07 4.31383e-09)
(3.70482e-08 -9.98791e-07 8.11921e-09)
(8.20831e-08 -1.33125e-06 9.83296e-09)
(1.34472e-07 -1.56042e-06 1.11819e-08)
(1.88953e-07 -1.72234e-06 1.28124e-08)
(2.41197e-07 -1.83718e-06 1.492e-08)
(2.87029e-07 -1.91889e-06 1.75662e-08)
(3.22066e-07 -1.97575e-06 2.08373e-08)
(3.4231e-07 -2.01301e-06 2.46031e-08)
(3.43956e-07 -2.03473e-06 2.89396e-08)
(3.24169e-07 -2.04445e-06 3.34665e-08)
(2.8215e-07 -2.04593e-06 3.77879e-08)
(2.18921e-07 -2.04338e-06 4.15527e-08)
(1.38915e-07 -2.0394e-06 4.45727e-08)
(4.86398e-08 -2.03758e-06 4.62621e-08)
(-4.60841e-08 -2.03772e-06 4.64289e-08)
(-1.36823e-07 -2.03913e-06 4.47801e-08)
(-2.16442e-07 -2.04322e-06 4.18179e-08)
(-2.79809e-07 -2.04796e-06 3.82881e-08)
(-3.21998e-07 -2.04609e-06 3.3774e-08)
(-3.41807e-07 -2.03538e-06 2.91421e-08)
(-3.40663e-07 -2.01316e-06 2.46466e-08)
(-3.20935e-07 -1.97609e-06 2.06295e-08)
(-2.86132e-07 -1.91943e-06 1.72626e-08)
(-2.4048e-07 -1.83694e-06 1.45577e-08)
(-1.88268e-07 -1.72063e-06 1.24977e-08)
(-1.33875e-07 -1.55801e-06 1.09818e-08)
(-8.17308e-08 -1.3291e-06 9.72544e-09)
(-3.69285e-08 -9.97006e-07 8.08223e-09)
(-4.40187e-09 -4.80964e-07 4.37587e-09)
(3.48993e-09 -5.1679e-07 3.14494e-09)
(2.83161e-08 -1.07202e-06 5.88221e-09)
(6.22596e-08 -1.42792e-06 7.19745e-09)
(1.02014e-07 -1.67471e-06 8.24089e-09)
(1.43494e-07 -1.85125e-06 9.43342e-09)
(1.83358e-07 -1.97891e-06 1.10689e-08)
(2.18379e-07 -2.07214e-06 1.32483e-08)
(2.45286e-07 -2.14002e-06 1.60566e-08)
(2.61349e-07 -2.18783e-06 1.92844e-08)
(2.63217e-07 -2.2188e-06 2.2825e-08)
(2.48091e-07 -2.23697e-06 2.62797e-08)
(2.15723e-07 -2.24757e-06 2.97396e-08)
(1.67748e-07 -2.25367e-06 3.30833e-08)
(1.06958e-07 -2.25553e-06 3.55939e-08)
(3.77092e-08 -2.25614e-06 3.68838e-08)
(-3.49611e-08 -2.25551e-06 3.67776e-08)
(-1.04827e-07 -2.25374e-06 3.53775e-08)
(-1.65878e-07 -2.25237e-06 3.28742e-08)
(-2.14326e-07 -2.24992e-06 2.98618e-08)
(-2.46286e-07 -2.23887e-06 2.6274e-08)
(-2.61085e-07 -2.21927e-06 2.26439e-08)
(-2.59858e-07 -2.18753e-06 1.91266e-08)
(-2.44421e-07 -2.13996e-06 1.59547e-08)
(-2.17591e-07 -2.0722e-06 1.32615e-08)
(-1.82743e-07 -1.97823e-06 1.11077e-08)
(-1.43058e-07 -1.84981e-06 9.49506e-09)
(-1.01764e-07 -1.67359e-06 8.33763e-09)
(-6.21218e-08 -1.42766e-06 7.39005e-09)
(-2.80384e-08 -1.0716e-06 6.13733e-09)
(-3.35206e-09 -5.17678e-07 3.2996e-09)
(2.21185e-09 -5.42642e-07 2.04289e-09)
(1.78974e-08 -1.12377e-06 3.7838e-09)
(3.9304e-08 -1.49626e-06 4.5231e-09)
(6.44448e-08 -1.75455e-06 5.06508e-09)
(9.04599e-08 -1.94082e-06 5.76487e-09)
(1.15427e-07 -2.07787e-06 6.83614e-09)
(1.37397e-07 -2.17993e-06 8.29917e-09)
(1.54215e-07 -2.25633e-06 1.02045e-08)
(1.64534e-07 -2.3124e-06 1.2448e-08)
(1.66163e-07 -2.35083e-06 1.48259e-08)
(1.56809e-07 -2.3771e-06 1.71784e-08)
(1.36604e-07 -2.39606e-06 1.96431e-08)
(1.06566e-07 -2.4091e-06 2.19295e-08)
(6.81739e-08 -2.41547e-06 2.36323e-08)
(2.43532e-08 -2.41778e-06 2.44096e-08)
(-2.15419e-08 -2.41547e-06 2.40088e-08)
(-6.59565e-08 -2.41047e-06 2.29197e-08)
(-1.0447e-07 -2.40424e-06 2.10599e-08)
(-1.34951e-07 -2.39455e-06 1.8726e-08)
(-1.55416e-07 -2.3754e-06 1.61868e-08)
(-1.64991e-07 -2.34809e-06 1.37995e-08)
(-1.6416e-07 -2.30871e-06 1.17158e-08)
(-1.54262e-07 -2.25393e-06 9.89018e-09)
(-1.37182e-07 -2.17951e-06 8.37378e-09)
(-1.15014e-07 -2.07845e-06 7.13871e-09)
(-8.98593e-08 -1.94158e-06 6.14118e-09)
(-6.38285e-08 -1.7553e-06 5.40649e-09)
(-3.89194e-08 -1.49696e-06 4.78239e-09)
(-1.75572e-08 -1.12384e-06 3.94653e-09)
(-2.11667e-09 -5.43319e-07 2.07522e-09)
(8.15629e-10 -5.56153e-07 6.44825e-10)
(6.26599e-09 -1.15037e-06 1.28571e-09)
(1.36863e-08 -1.5321e-06 1.61601e-09)
(2.26074e-08 -1.79696e-06 1.83364e-09)
(3.17812e-08 -1.98859e-06 2.11994e-09)
(4.06379e-08 -2.13015e-06 2.56743e-09)
(4.86605e-08 -2.23571e-06 3.0979e-09)
(5.48802e-08 -2.31485e-06 3.63407e-09)
(5.86148e-08 -2.37463e-06 4.32664e-09)
(5.91686e-08 -2.41869e-06 5.2763e-09)
(5.58241e-08 -2.45125e-06 6.26473e-09)
(4.88144e-08 -2.47516e-06 7.17828e-09)
(3.81122e-08 -2.49123e-06 7.88156e-09)
(2.44961e-08 -2.50032e-06 8.62506e-09)
(9.18923e-09 -2.5047e-06 8.98206e-09)
(-6.99861e-09 -2.50237e-06 8.69554e-09)
(-2.32431e-08 -2.49611e-06 8.33887e-09)
(-3.67897e-08 -2.48749e-06 7.66164e-09)
(-4.73122e-08 -2.47416e-06 6.6994e-09)
(-5.44902e-08 -2.45031e-06 5.75511e-09)
(-5.78465e-08 -2.41722e-06 4.88868e-09)
(-5.76863e-08 -2.37218e-06 4.12824e-09)
(-5.43715e-08 -2.31295e-06 3.42305e-09)
(-4.84832e-08 -2.2352e-06 2.8574e-09)
(-4.0677e-08 -2.13075e-06 2.44429e-09)
(-3.17028e-08 -1.98965e-06 2.10355e-09)
(-2.24428e-08 -1.7981e-06 1.84448e-09)
(-1.36285e-08 -1.53322e-06 1.62888e-09)
(-6.10255e-09 -1.15111e-06 1.38232e-09)
(-6.98908e-10 -5.56697e-07 7.40971e-10)
(-5.87175e-10 -5.56704e-07 -6.92133e-10)
(-5.45183e-09 -1.15136e-06 -1.25436e-09)
(-1.2257e-08 -1.53364e-06 -1.47282e-09)
(-2.00013e-08 -1.79874e-06 -1.65735e-09)
(-2.81136e-08 -1.99058e-06 -1.89391e-09)
(-3.59265e-08 -2.13246e-06 -2.22936e-09)
(-4.2824e-08 -2.23841e-06 -2.66615e-09)
(-4.82642e-08 -2.31787e-06 -3.20822e-09)
(-5.14404e-08 -2.37764e-06 -3.89129e-09)
(-5.16076e-08 -2.42131e-06 -4.64907e-09)
(-4.83885e-08 -2.45372e-06 -5.59544e-09)
(-4.20357e-08 -2.47759e-06 -6.64096e-09)
(-3.30992e-08 -2.49335e-06 -7.51205e-09)
(-2.15883e-08 -2.50273e-06 -7.85329e-09)
(-7.69469e-09 -2.50701e-06 -7.88393e-09)
(7.2054e-09 -2.50442e-06 -7.77548e-09)
(2.08579e-08 -2.49903e-06 -7.25652e-09)
(3.34908e-08 -2.49066e-06 -6.6237e-09)
(4.31528e-08 -2.47668e-06 -6.07079e-09)
(4.90611e-08 -2.45268e-06 -5.19816e-09)
(5.2149e-08 -2.41963e-06 -4.27855e-09)
(5.21047e-08 -2.37444e-06 -3.41639e-09)
(4.9174e-08 -2.31504e-06 -2.87441e-09)
(4.37973e-08 -2.23692e-06 -2.5335e-09)
(3.66197e-08 -2.13208e-06 -2.1858e-09)
(2.8635e-08 -1.99067e-06 -1.91162e-09)
(2.03644e-08 -1.79889e-06 -1.68102e-09)
(1.24468e-08 -1.53388e-06 -1.45765e-09)
(5.67583e-09 -1.15163e-06 -1.12709e-09)
(7.33541e-10 -5.5699e-07 -5.66961e-10)
(-2.03765e-09 -5.44075e-07 -2.01632e-09)
(-1.70029e-08 -1.12556e-06 -3.81922e-09)
(-3.76883e-08 -1.49947e-06 -4.64194e-09)
(-6.17252e-08 -1.75844e-06 -5.25919e-09)
(-8.68643e-08 -1.94542e-06 -5.9805e-09)
(-1.11124e-07 -2.08339e-06 -6.94895e-09)
(-1.3239e-07 -2.18611e-06 -8.22703e-09)
(-1.48666e-07 -2.26248e-06 -9.89364e-09)
(-1.5818e-07 -2.31869e-06 -1.19654e-08)
(-1.59249e-07 -2.35746e-06 -1.41377e-08)
(-1.50096e-07 -2.38425e-06 -1.65403e-08)
(-1.30652e-07 -2.40351e-06 -1.90802e-08)
(-1.0219e-07 -2.41662e-06 -2.12717e-08)
(-6.56605e-08 -2.42436e-06 -2.26696e-08)
(-2.29771e-08 -2.42735e-06 -2.32093e-08)
(2.19088e-08 -2.42407e-06 -2.28959e-08)
(6.42777e-08 -2.42009e-06 -2.18686e-08)
(1.02085e-07 -2.41449e-06 -2.02075e-08)
(1.31215e-07 -2.40285e-06 -1.83376e-08)
(1.50123e-07 -2.38284e-06 -1.59195e-08)
(1.59671e-07 -2.35513e-06 -1.36196e-08)
(1.58843e-07 -2.31538e-06 -1.13945e-08)
(1.4895e-07 -2.25961e-06 -9.47804e-09)
(1.32508e-07 -2.184e-06 -7.88078e-09)
(1.11256e-07 -2.08242e-06 -6.57663e-09)
(8.72509e-08 -1.94525e-06 -5.604e-09)
(6.21668e-08 -1.75861e-06 -4.86555e-09)
(3.80444e-08 -1.49998e-06 -4.29067e-09)
(1.73504e-08 -1.12626e-06 -3.5296e-09)
(2.18824e-09 -5.44262e-07 -1.90893e-09)
(-3.33136e-09 -5.1904e-07 -3.20887e-09)
(-2.7591e-08 -1.07462e-06 -5.99448e-09)
(-6.10178e-08 -1.43192e-06 -7.26495e-09)
(-9.99373e-08 -1.67875e-06 -8.20425e-09)
(-1.40501e-07 -1.85582e-06 -9.33264e-09)
(-1.7954e-07 -1.98515e-06 -1.08823e-08)
(-2.13844e-07 -2.08011e-06 -1.29469e-08)
(-2.40229e-07 -2.14898e-06 -1.5621e-08)
(-2.556e-07 -2.19782e-06 -1.88759e-08)
(-2.57156e-07 -2.22961e-06 -2.231e-08)
(-2.42415e-07 -2.24839e-06 -2.5841e-08)
(-2.10759e-07 -2.25926e-06 -2.92394e-08)
(-1.6416e-07 -2.26596e-06 -3.23742e-08)
(-1.05087e-07 -2.26949e-06 -3.47313e-08)
(-3.68086e-08 -2.27091e-06 -3.59273e-08)
(3.49507e-08 -2.26834e-06 -3.564e-08)
(1.0337e-07 -2.2669e-06 -3.4281e-08)
(1.64106e-07 -2.26608e-06 -3.19519e-08)
(2.11172e-07 -2.25974e-06 -2.90871e-08)
(2.42262e-07 -2.2473e-06 -2.55879e-08)
(2.57494e-07 -2.22785e-06 -2.21247e-08)
(2.56425e-07 -2.19673e-06 -1.8721e-08)
(2.40899e-07 -2.14901e-06 -1.56862e-08)
(2.1443e-07 -2.08068e-06 -1.30136e-08)
(1.79966e-07 -1.98641e-06 -1.08689e-08)
(1.40753e-07 -1.85741e-06 -9.24896e-09)
(1.0002e-07 -1.68e-06 -7.93909e-09)
(6.12003e-08 -1.43309e-06 -6.92794e-09)
(2.79229e-08 -1.07581e-06 -5.66926e-09)
(3.49244e-09 -5.18933e-07 -3.05478e-09)
(-4.43739e-09 -4.82918e-07 -4.23612e-09)
(-3.66678e-08 -1.0013e-06 -7.90498e-09)
(-8.09445e-08 -1.33478e-06 -9.611e-09)
(-1.32576e-07 -1.56464e-06 -1.09015e-08)
(-1.86416e-07 -1.7282e-06 -1.24079e-08)
(-2.38184e-07 -1.84549e-06 -1.44477e-08)
(-2.83526e-07 -1.92897e-06 -1.71262e-08)
(-3.18124e-07 -1.98672e-06 -2.04398e-08)
(-3.37948e-07 -2.02502e-06 -2.43655e-08)
(-3.39493e-07 -2.04796e-06 -2.86422e-08)
(-3.19964e-07 -2.05871e-06 -3.31622e-08)
(-2.78313e-07 -2.06084e-06 -3.73914e-08)
(-2.16156e-07 -2.05917e-06 -4.10804e-08)
(-1.37567e-07 -2.05716e-06 -4.40458e-08)
(-4.7716e-08 -2.05658e-06 -4.58233e-08)
(4.62226e-08 -2.055e-06 -4.56806e-08)
(1.36013e-07 -2.05646e-06 -4.40134e-08)
(2.15951e-07 -2.06097e-06 -4.10375e-08)
(2.78391e-07 -2.0618e-06 -3.73531e-08)
(3.1965e-07 -2.05827e-06 -3.32136e-08)
(3.39336e-07 -2.04728e-06 -2.87284e-08)
(3.38353e-07 -2.0251e-06 -2.43177e-08)
(3.18657e-07 -1.98728e-06 -2.0544e-08)
(2.84068e-07 -1.92952e-06 -1.73392e-08)
(2.38676e-07 -1.84643e-06 -1.47589e-08)
(1.86887e-07 -1.73012e-06 -1.27411e-08)
(1.32968e-07 -1.56766e-06 -1.10798e-08)
(8.11649e-08 -1.33854e-06 -9.71141e-09)
(3.67175e-08 -1.00446e-06 -7.97547e-09)
(4.43595e-09 -4.83014e-07 -4.24134e-09)
(-5.23092e-09 -4.37831e-07 -5.14199e-09)
(-4.3768e-08 -9.10041e-07 -9.60584e-09)
(-9.68728e-08 -1.21363e-06 -1.16199e-08)
(-1.58755e-07 -1.42205e-06 -1.31324e-08)
(-2.23108e-07 -1.56871e-06 -1.48635e-08)
(-2.84786e-07 -1.67167e-06 -1.71624e-08)
(-3.38512e-07 -1.74222e-06 -2.01068e-08)
(-3.7919e-07 -1.7879e-06 -2.37402e-08)
(-4.02085e-07 -1.81467e-06 -2.80786e-08)
(-4.03215e-07 -1.82709e-06 -3.29039e-08)
(-3.79637e-07 -1.829e-06 -3.8007e-08)
(-3.30238e-07 -1.82363e-06 -4.28251e-08)
(-2.56319e-07 -1.81452e-06 -4.68503e-08)
(-1.62533e-07 -1.80593e-06 -4.99692e-08)
(-5.6022e-08 -1.80187e-06 -5.19966e-08)
(5.47162e-08 -1.80071e-06 -5.19674e-08)
(1.60856e-07 -1.80542e-06 -5.02634e-08)
(2.55382e-07 -1.81581e-06 -4.71134e-08)
(3.29619e-07 -1.82436e-06 -4.28519e-08)
(3.79178e-07 -1.82935e-06 -3.80595e-08)
(4.03023e-07 -1.82731e-06 -3.29488e-08)
(4.02299e-07 -1.81509e-06 -2.80339e-08)
(3.79523e-07 -1.78851e-06 -2.37216e-08)
(3.38924e-07 -1.74291e-06 -2.00495e-08)
(2.8521e-07 -1.67263e-06 -1.7121e-08)
(2.23549e-07 -1.57048e-06 -1.49232e-08)
(1.5927e-07 -1.42526e-06 -1.31978e-08)
(9.73601e-08 -1.21789e-06 -1.16462e-08)
(4.40722e-08 -9.1346e-07 -9.61241e-09)
(5.29898e-09 -4.37849e-07 -5.12728e-09)
(-5.82449e-09 -3.85676e-07 -5.82143e-09)
(-4.89418e-08 -8.04195e-07 -1.08698e-08)
(-1.08449e-07 -1.0735e-06 -1.31053e-08)
(-1.77577e-07 -1.2577e-06 -1.46942e-08)
(-2.4936e-07 -1.38581e-06 -1.64496e-08)
(-3.18021e-07 -1.47347e-06 -1.87951e-08)
(-3.77556e-07 -1.53066e-06 -2.18657e-08)
(-4.2229e-07 -1.56432e-06 -2.56787e-08)
(-4.46987e-07 -1.57996e-06 -3.01844e-08)
(-4.47362e-07 -1.58217e-06 -3.51706e-08)
(-4.20526e-07 -1.5752e-06 -4.03626e-08)
(-3.65465e-07 -1.56302e-06 -4.53045e-08)
(-2.83529e-07 -1.54874e-06 -4.95378e-08)
(-1.79584e-07 -1.53521e-06 -5.26158e-08)
(-6.18511e-08 -1.5276e-06 -5.44326e-08)
(6.02194e-08 -1.52658e-06 -5.42641e-08)
(1.77697e-07 -1.53397e-06 -5.2628e-08)
(2.82164e-07 -1.54846e-06 -4.95533e-08)
(3.64521e-07 -1.56293e-06 -4.52174e-08)
(4.19878e-07 -1.57535e-06 -4.03484e-08)
(4.47014e-07 -1.58239e-06 -3.51792e-08)
(4.46966e-07 -1.58037e-06 -3.01764e-08)
(4.22462e-07 -1.56489e-06 -2.56784e-08)
(3.77895e-07 -1.53135e-06 -2.18407e-08)
(3.1848e-07 -1.47431e-06 -1.87768e-08)
(2.49871e-07 -1.38694e-06 -1.6482e-08)
(1.78028e-07 -1.25959e-06 -1.47681e-08)
(1.08718e-07 -1.07625e-06 -1.31792e-08)
(4.9054e-08 -8.06719e-07 -1.09129e-08)
(5.79949e-09 -3.85723e-07 -5.82566e-09)
(-6.17564e-09 -3.29013e-07 -6.17989e-09)
(-5.20365e-08 -6.88516e-07 -1.14785e-08)
(-1.15454e-07 -9.20951e-07 -1.38047e-08)
(-1.88955e-07 -1.07939e-06 -1.54593e-08)
(-2.65197e-07 -1.18812e-06 -1.72706e-08)
(-3.37972e-07 -1.26035e-06 -1.96319e-08)
(-4.00845e-07 -1.30467e-06 -2.26862e-08)
(-4.47752e-07 -1.32731e-06 -2.64548e-08)
(-4.7317e-07 -1.3333e-06 -3.08699e-08)
(-4.72684e-07 -1.32709e-06 -3.57209e-08)
(-4.43473e-07 -1.31293e-06 -4.07033e-08)
(-3.84751e-07 -1.29493e-06 -4.54299e-08)
(-2.98212e-07 -1.27642e-06 -4.95592e-08)
(-1.88862e-07 -1.2602e-06 -5.24779e-08)
(-6.50358e-08 -1.25069e-06 -5.40835e-08)
(6.32439e-08 -1.25017e-06 -5.39647e-08)
(1.86935e-07 -1.25948e-06 -5.25308e-08)
(2.96662e-07 -1.27635e-06 -4.95902e-08)
(3.83658e-07 -1.29505e-06 -4.54251e-08)
(4.42709e-07 -1.31316e-06 -4.07446e-08)
(4.72231e-07 -1.32737e-06 -3.57635e-08)
(4.73007e-07 -1.33371e-06 -3.08999e-08)
(4.47797e-07 -1.32786e-06 -2.64836e-08)
(4.01052e-07 -1.30536e-06 -2.27039e-08)
(3.38288e-07 -1.26118e-06 -1.96539e-08)
(2.65566e-07 -1.18913e-06 -1.73243e-08)
(1.89244e-07 -1.08073e-06 -1.56104e-08)
(1.1555e-07 -9.22799e-07 -1.40611e-08)
(5.2037e-08 -6.90507e-07 -1.17111e-08)
(6.10927e-09 -3.29003e-07 -6.24572e-09)
(-6.28646e-09 -2.7011e-07 -6.31381e-09)
(-5.30547e-08 -5.68229e-07 -1.17259e-08)
(-1.17789e-07 -7.625e-07 -1.40728e-08)
(-1.92894e-07 -8.94482e-07 -1.57095e-08)
(-2.7084e-07 -9.8371e-07 -1.74735e-08)
(-3.45185e-07 -1.04102e-06 -1.97402e-08)
(-4.09249e-07 -1.0736e-06 -2.26411e-08)
(-4.56774e-07 -1.08686e-06 -2.62035e-08)
(-4.82146e-07 -1.08533e-06 -3.03509e-08)
(-4.80949e-07 -1.07314e-06 -3.48692e-08)
(-4.50448e-07 -1.05432e-06 -3.94702e-08)
(-3.90039e-07 -1.03273e-06 -4.38705e-08)
(-3.01901e-07 -1.01165e-06 -4.76807e-08)
(-1.91332e-07 -9.94508e-07 -5.0356e-08)
(-6.60266e-08 -9.84675e-07 -5.17633e-08)
(6.40267e-08 -9.84401e-07 -5.17106e-08)
(1.89211e-07 -9.9408e-07 -5.04116e-08)
(3.00291e-07 -1.01173e-06 -4.76606e-08)
(3.8899e-07 -1.03284e-06 -4.38386e-08)
(4.49676e-07 -1.05446e-06 -3.95125e-08)
(4.80419e-07 -1.07335e-06 -3.49235e-08)
(4.81881e-07 -1.08566e-06 -3.03959e-08)
(4.56724e-07 -1.08731e-06 -2.62449e-08)
(4.0935e-07 -1.07417e-06 -2.26718e-08)
(3.45378e-07 -1.04169e-06 -1.97699e-08)
(2.71089e-07 -9.84504e-07 -1.75156e-08)
(1.9311e-07 -8.95411e-07 -1.5806e-08)
(1.17905e-07 -7.63665e-07 -1.42623e-08)
(5.3082e-08 -5.69645e-07 -1.19054e-08)
(6.2563e-09 -2.70049e-07 -6.35685e-09)
(-6.19286e-09 -2.11029e-07 -6.15592e-09)
(-5.20889e-08 -4.47945e-07 -1.14626e-08)
(-1.15694e-07 -6.0394e-07 -1.37871e-08)
(-1.89802e-07 -7.09661e-07 -1.53651e-08)
(-2.66935e-07 -7.79988e-07 -1.70224e-08)
(-3.40609e-07 -8.23401e-07 -1.91219e-08)
(-4.04076e-07 -8.45758e-07 -2.18011e-08)
(-4.5102e-07 -8.51596e-07 -2.50776e-08)
(-4.75859e-07 -8.44874e-07 -2.88726e-08)
(-4.74247e-07 -8.29271e-07 -3.29819e-08)
(-4.43548e-07 -8.08396e-07 -3.71648e-08)
(-3.83409e-07 -7.85637e-07 -4.1175e-08)
(-2.96511e-07 -7.64355e-07 -4.45802e-08)
(-1.8803e-07 -7.47942e-07 -4.697e-08)
(-6.49792e-08 -7.38817e-07 -4.82233e-08)
(6.29901e-08 -7.38457e-07 -4.81864e-08)
(1.85812e-07 -7.47381e-07 -4.69621e-08)
(2.9486e-07 -7.6428e-07 -4.45068e-08)
(3.82328e-07 -7.85614e-07 -4.1093e-08)
(4.42716e-07 -8.08427e-07 -3.71721e-08)
(4.7363e-07 -8.29402e-07 -3.30304e-08)
(4.75506e-07 -8.45123e-07 -2.89164e-08)
(4.50897e-07 -8.51949e-07 -2.51178e-08)
(4.04105e-07 -8.46192e-07 -2.18302e-08)
(3.40732e-07 -8.23914e-07 -1.91484e-08)
(2.67123e-07 -7.80581e-07 -1.70497e-08)
(1.89999e-07 -7.10331e-07 -1.54077e-08)
(1.15848e-07 -6.04706e-07 -1.38759e-08)
(5.21039e-08 -4.48865e-07 -1.15907e-08)
(6.15429e-09 -2.11093e-07 -6.19886e-09)
(-5.83086e-09 -1.54218e-07 -5.73318e-09)
(-4.90309e-08 -3.32281e-07 -1.07279e-08)
(-1.09252e-07 -4.51237e-07 -1.29113e-08)
(-1.79959e-07 -5.31647e-07 -1.43345e-08)
(-2.54022e-07 -5.84071e-07 -1.58184e-08)
(-3.25104e-07 -6.14852e-07 -1.76967e-08)
(-3.86519e-07 -6.28585e-07 -2.01127e-08)
(-4.3198e-07 -6.28959e-07 -2.30583e-08)
(-4.56037e-07 -6.19258e-07 -2.64672e-08)
(-4.54486e-07 -6.02602e-07 -3.0144e-08)
(-4.24773e-07 -5.82009e-07 -3.39231e-08)
(-3.66801e-07 -5.6039e-07 -3.75035e-08)
(-2.83562e-07 -5.40851e-07 -4.05311e-08)
(-1.79791e-07 -5.26045e-07 -4.26729e-08)
(-6.21799e-08 -5.1802e-07 -4.38353e-08)
(6.02427e-08 -5.17677e-07 -4.3796e-08)