/*--------------------------------*- C++ -*----------------------------------*\
| =========                 |                                                 |
| \\      /  F ield         | OpenFOAM: The Open Source CFD Toolbox           |
|  \\    /   O peration     | Version:  v1906                                 |
|   \\  /    A nd           | Web:      www.OpenFOAM.com                      |
|    \\/     M anipulation  |                                                 |
\*---------------------------------------------------------------------------*/
FoamFile
{
    version     2.0;
    format      ascii;
    class       volScalarField;
    location    "65";
    object      alphat;
}
// * * * * * * * * * * * * * * * * * * * * * * * * * * * * * * * * * * * * * //

dimensions      [1 -1 -1 0 0 0 0];


internalField   nonuniform List<scalar> 
78750
(
1.37817e-09
2.6126e-07
4.96914e-07
7.37804e-07
9.7784e-07
1.21224e-06
1.43735e-06
1.65036e-06
1.84917e-06
2.03218e-06
2.19826e-06
2.34656e-06
2.47581e-06
2.58578e-06
2.67633e-06
2.74737e-06
2.7988e-06
2.8305e-06
2.84226e-06
2.83381e-06
2.80499e-06
2.7548e-06
2.68218e-06
2.58653e-06
2.46714e-06
2.32362e-06
2.15621e-06
1.96586e-06
1.75409e-06
1.52309e-06
1.27353e-06
1.00485e-06
7.2051e-07
4.32219e-07
6.11739e-09
3.54248e-09
2.45928e-06
5.33452e-06
7.9173e-06
9.94072e-06
1.15909e-05
1.30427e-05
1.43914e-05
1.56927e-05
1.69833e-05
1.83208e-05
1.96833e-05
2.01558e-05
2.04905e-05
2.06991e-05
2.07919e-05
2.07782e-05
2.06662e-05
2.04631e-05
2.01745e-05
1.98045e-05
1.93532e-05
1.88182e-05
1.8195e-05
1.7475e-05
1.66475e-05
1.57025e-05
1.43564e-05
1.20818e-05
9.68441e-06
7.16454e-06
4.95847e-06
3.76549e-06
2.22034e-06
2.13921e-08
6.17412e-09
2.36171e-06
5.29625e-06
8.8021e-06
1.2445e-05
1.57696e-05
1.85491e-05
2.07821e-05
2.25652e-05
2.38462e-05
2.44671e-05
2.48755e-05
2.50956e-05
2.51479e-05
2.50509e-05
2.4822e-05
2.44777e-05
2.40344e-05
2.35083e-05
2.2916e-05
2.22733e-05
2.15953e-05
2.05844e-05
1.9271e-05
1.8003e-05
1.67954e-05
1.55636e-05
1.4149e-05
1.23618e-05
1.01083e-05
7.69308e-06
5.99588e-06
5.84122e-06
2.14152e-06
3.58228e-08
9.71778e-09
2.29676e-06
5.31879e-06
9.54671e-06
1.46856e-05
1.96169e-05
2.34435e-05
2.60978e-05
2.71214e-05
2.78336e-05
2.82794e-05
2.84898e-05
2.8491e-05
2.82052e-05
2.72321e-05
2.60383e-05
2.47148e-05
2.33131e-05
2.18772e-05
2.04477e-05
1.90667e-05
1.77801e-05
1.66319e-05
1.56549e-05
1.48571e-05
1.41909e-05
1.35172e-05
1.25978e-05
1.11852e-05
9.27902e-06
7.41045e-06
6.54978e-06
7.33479e-06
1.95977e-06
4.70469e-08
1.3652e-08
2.24996e-06
5.36836e-06
1.0176e-05
1.65048e-05
2.25996e-05
2.69954e-05
2.89877e-05
2.9882e-05
3.04522e-05
3.07391e-05
3.04105e-05
2.9019e-05
2.73311e-05
2.55304e-05
2.37183e-05
2.196e-05
2.02879e-05
1.87112e-05
1.72328e-05
1.58658e-05
1.46419e-05
1.36035e-05
1.27849e-05
1.21939e-05
1.17823e-05
1.14032e-05
1.08048e-05
9.75719e-06
8.3392e-06
7.12577e-06
7.06315e-06
7.75855e-06
1.83716e-06
5.55183e-08
1.78518e-08
2.27456e-06
5.55257e-06
1.09513e-05
1.84671e-05
2.57023e-05
3.04581e-05
3.16791e-05
3.25065e-05
3.2993e-05
3.267e-05
3.0788e-05
2.85381e-05
2.62129e-05
2.39808e-05
2.19339e-05
2.00992e-05
1.84612e-05
1.69852e-05
1.56374e-05
1.4404e-05
1.32992e-05
1.23504e-05
1.15771e-05
1.09819e-05
1.0524e-05
1.00814e-05
9.45911e-06
8.52283e-06
7.42863e-06
6.72295e-06
7.3154e-06
7.64347e-06
1.78239e-06
6.21984e-08
2.18343e-08
2.30117e-06
5.69227e-06
1.15025e-05
1.98417e-05
2.77546e-05
3.26396e-05
3.38156e-05
3.4583e-05
3.45506e-05
3.25194e-05
2.98924e-05
2.71e-05
2.44202e-05
2.20105e-05
1.99204e-05
1.81288e-05
1.65841e-05
1.52308e-05
1.40269e-05
1.29583e-05
1.20377e-05
1.12697e-05
1.06393e-05
1.01212e-05
9.66438e-06
9.16953e-06
8.51158e-06
7.65648e-06
6.81072e-06
6.48244e-06
7.56378e-06
7.27352e-06
1.74776e-06
6.82391e-08
2.55812e-08
2.33359e-06
5.79883e-06
1.18724e-05
2.08004e-05
2.92637e-05
3.44049e-05
3.59259e-05
3.65236e-05
3.48947e-05
3.22462e-05
2.91512e-05
2.6051e-05
2.32256e-05
2.07891e-05
1.87421e-05
1.70316e-05
1.55886e-05
1.43461e-05
1.32552e-05
1.22989e-05
1.14851e-05
1.08002e-05
1.02065e-05
9.66297e-06
9.11891e-06
8.50611e-06
7.76886e-06
6.94942e-06
6.27257e-06
6.20472e-06
7.63413e-06
7.0157e-06
1.74036e-06
7.43089e-08
2.90181e-08
2.36002e-06
5.86831e-06
1.21058e-05
2.14167e-05
3.01984e-05
3.53204e-05
3.72202e-05
3.6772e-05
3.46761e-05
3.16168e-05
2.82182e-05
2.49475e-05
2.20581e-05
1.96213e-05
1.76056e-05
1.59419e-05
1.4558e-05
1.33908e-05
1.23993e-05
1.15756e-05
1.09241e-05
1.03991e-05
9.92591e-06
9.43056e-06
8.85072e-06
8.14696e-06
7.33284e-06
6.5201e-06
5.95036e-06
6.06615e-06
7.75518e-06
6.76398e-06
1.73955e-06
8.07107e-08
3.24406e-08
2.38322e-06
5.91168e-06
1.22379e-05
2.1795e-05
3.08182e-05
3.59505e-05
3.76746e-05
3.69504e-05
3.45529e-05
3.12394e-05
2.76783e-05
2.43338e-05
2.1429e-05
1.90041e-05
1.7008e-05
1.53636e-05
1.39971e-05
1.28488e-05
1.18845e-05
1.11054e-05
1.05202e-05
1.00718e-05
9.66555e-06
9.20226e-06
8.60335e-06
7.84345e-06
6.98303e-06
6.18085e-06
5.68892e-06
5.93773e-06
7.82689e-06
6.60053e-06
1.74868e-06
8.73943e-08
3.56916e-08
2.40169e-06
5.9428e-06
1.23353e-05
2.20763e-05
3.12557e-05
3.63461e-05
3.78818e-05
3.68988e-05
3.42439e-05
3.07349e-05
2.70652e-05
2.36846e-05
2.07841e-05
1.83776e-05
1.64003e-05
1.47714e-05
1.34191e-05
1.22894e-05
1.13566e-05
1.06333e-05
1.0129e-05
9.7714e-06
9.44741e-06
9.0353e-06
8.44144e-06
7.65146e-06
6.76387e-06
5.97418e-06
5.54475e-06
5.90632e-06
7.97049e-06
6.43878e-06
1.75906e-06
9.42065e-08
3.92066e-08
2.42114e-06
5.97474e-06
1.2428e-05
2.23211e-05
3.16046e-05
3.66381e-05
3.80209e-05
3.68538e-05
3.40378e-05
3.04256e-05
2.67137e-05
2.33312e-05
2.04433e-05
1.80469e-05
1.60702e-05
1.4432e-05
1.30636e-05
1.19157e-05
1.097e-05
1.02478e-05
9.766e-06
9.44803e-06
9.17164e-06
8.80067e-06
8.22868e-06
7.44319e-06
6.56238e-06
5.80249e-06
5.43358e-06
5.89479e-06
8.11682e-06
6.32003e-06
1.77334e-06
1.01039e-07
4.25842e-08
2.43693e-06
6.00208e-06
1.25123e-05
2.25372e-05
3.1893e-05
3.68493e-05
3.80686e-05
3.67137e-05
3.37418e-05
3.00399e-05
2.63036e-05
2.29363e-05
2.00756e-05
1.77014e-05
1.57359e-05
1.40976e-05
1.2721e-05
1.15619e-05
1.0609e-05
9.89322e-06
9.43551e-06
9.15383e-06
8.91905e-06
8.58519e-06
8.03854e-06
7.27016e-06
6.41187e-06
5.69187e-06
5.38588e-06
5.94769e-06
8.32024e-06
6.20173e-06
1.78775e-06
1.0776e-07
4.63355e-08
2.45636e-06
6.04099e-06
1.26266e-05
2.2792e-05
3.21813e-05
3.70277e-05
3.80909e-05
3.65911e-05
3.35239e-05
2.97883e-05
2.60638e-05
2.27262e-05
1.98918e-05
1.753e-05
1.55613e-05
1.39064e-05
1.25035e-05
1.13128e-05
1.03287e-05
9.58858e-06
9.12195e-06
8.84647e-06
8.63067e-06
8.32422e-06
7.80899e-06
7.07586e-06
6.26037e-06
5.59353e-06
5.35477e-06
6.0162e-06
8.5312e-06
6.10931e-06
1.80403e-06
1.14357e-07
4.99362e-08
2.47287e-06
6.07674e-06
1.27349e-05
2.30266e-05
3.24353e-05
3.71686e-05
3.80742e-05
3.64272e-05
3.32652e-05
2.9501e-05
2.5797e-05
2.24996e-05
1.9702e-05
1.7363e-05
1.54006e-05
1.37371e-05
1.23143e-05
1.10967e-05
1.00845e-05
9.32213e-06
8.84565e-06
8.57146e-06
8.36675e-06
8.08002e-06
7.59317e-06
6.89899e-06
6.13396e-06
5.52717e-06
5.36044e-06
6.12689e-06
8.7761e-06
6.02091e-06
1.82033e-06
1.20761e-07
5.39082e-08
2.49332e-06
6.12464e-06
1.28756e-05
2.33095e-05
3.27083e-05
3.73009e-05
3.80532e-05
3.62905e-05
3.30763e-05
2.93196e-05
2.56561e-05
2.24041e-05
1.96395e-05
1.73149e-05
1.53484e-05
1.36653e-05
1.22107e-05
1.09535e-05
9.89808e-06
9.0935e-06
8.5862e-06
8.29463e-06
8.0869e-06
7.81309e-06
7.35668e-06
6.7101e-06
6.00548e-06
5.46581e-06
5.37467e-06
6.24766e-06
9.02198e-06
5.95147e-06
1.83764e-06
1.26998e-07
5.77264e-08
2.51151e-06
6.17015e-06
1.3011e-05
2.35745e-05
3.29557e-05
3.74128e-05
3.80171e-05
3.61414e-05
3.28767e-05
2.913e-05
2.55113e-05
2.23107e-05
1.95866e-05
1.72844e-05
1.53213e-05
1.36244e-05
1.21422e-05
1.08478e-05
9.74981e-06
8.90236e-06
8.36128e-06
8.04709e-06
7.82948e-06
7.56205e-06
7.13241e-06
6.53379e-06
5.89254e-06
5.42339e-06
5.41147e-06
6.39597e-06
9.28284e-06
5.88736e-06
1.85479e-06
1.33018e-07
6.18747e-08
2.53308e-06
6.22588e-06
1.31737e-05
2.38807e-05
3.32232e-05
3.75275e-05
3.79913e-05
3.6028e-05
3.27426e-05
2.90275e-05
2.54632e-05
2.23145e-05
1.96265e-05
1.73406e-05
1.53741e-05
1.36561e-05
1.21384e-05
1.07981e-05
9.64725e-06
8.74322e-06
8.15349e-06
7.80398e-06
7.56725e-06
7.30164e-06
6.89913e-06
6.35211e-06
5.77849e-06
5.38316e-06
5.45291e-06
6.5509e-06
9.53927e-06
5.83763e-06
1.87246e-06
1.38842e-07
6.58816e-08
2.55295e-06
6.27999e-06
1.33329e-05
2.41734e-05
3.3473e-05
3.76332e-05
3.79646e-05
3.59178e-05
3.26127e-05
2.89295e-05
2.54212e-05
2.23286e-05
1.9683e-05
1.74207e-05
1.54579e-05
1.37242e-05
1.21741e-05
1.07886e-05
9.58372e-06
8.6204e-06
7.9771e-06
7.58644e-06
7.32454e-06
7.05559e-06
6.67702e-06
6.18051e-06
5.67476e-06
5.3543e-06
5.50797e-06
6.72315e-06
9.79733e-06
5.79256e-06
1.88973e-06
1.44424e-07
7.01692e-08
2.57551e-06
6.34239e-06
1.35151e-05
2.45011e-05
3.37432e-05
3.77504e-05
3.7958e-05
3.58466e-05
3.25405e-05
2.89001e-05
2.54508e-05
2.24125e-05
1.98063e-05
1.75644e-05
1.56021e-05
1.38497e-05
1.22635e-05
1.08275e-05
9.56161e-06
8.52965e-06
7.82099e-06
7.37933e-06
7.0852e-06
6.809e-06
6.45326e-06
6.00776e-06
5.57083e-06
5.32637e-06
5.56568e-06
6.90007e-06
1.00479e-05
5.75848e-06
1.9072e-06
1.49774e-07
7.43334e-08
2.59668e-06
6.40369e-06
1.36959e-05
2.48213e-05
3.40047e-05
3.78682e-05
3.79594e-05
3.57863e-05
3.2478e-05
2.88787e-05
2.54886e-05
2.25081e-05
1.99474e-05
1.77337e-05
1.57795e-05
1.40145e-05
1.23957e-05
1.09094e-05
9.58003e-06
8.47587e-06
7.69563e-06
7.19674e-06
6.86489e-06
6.57707e-06
6.24102e-06
5.84422e-06
5.47442e-06
5.30514e-06
5.63083e-06
7.08633e-06
1.02904e-05
5.7276e-06
1.92403e-06
1.54853e-07
7.87273e-08
2.61974e-06
6.4714e-06
1.38963e-05
2.51734e-05
3.42891e-05
3.80049e-05
3.79869e-05
3.57633e-05
3.24615e-05
2.89066e-05
2.55753e-05
2.26509e-05
2.01343e-05
1.79486e-05
1.60033e-05
1.42267e-05
1.25751e-05
1.10366e-05
9.63948e-06
8.45658e-06
7.5949e-06
7.03047e-06
6.65484e-06
6.35156e-06
6.03288e-06
5.68314e-06
5.37917e-06
5.28455e-06
5.69754e-06
7.27609e-06
1.0525e-05
5.70622e-06
1.94101e-06
1.59671e-07
8.30144e-08
2.64145e-06
6.53785e-06
1.40967e-05
2.55243e-05
3.45756e-05
3.8153e-05
3.80302e-05
3.57541e-05
3.24541e-05
2.89404e-05
2.56681e-05
2.28035e-05
2.03377e-05
1.81877e-05
1.62596e-05
1.44783e-05
1.27985e-05
1.12088e-05
9.74171e-06
8.47548e-06
7.52568e-06
6.88937e-06
6.46475e-06
6.14192e-06
5.83724e-06
5.53148e-06
5.29056e-06
5.26865e-06
5.7683e-06
7.46949e-06
1.07451e-05
5.68675e-06
1.95727e-06
1.64197e-07
8.74792e-08
2.66421e-06
6.60838e-06
1.43121e-05
2.59048e-05
3.48939e-05
3.83322e-05
3.81043e-05
3.57746e-05
3.24767e-05
2.90043e-05
2.57905e-05
2.29854e-05
2.05709e-05
1.84589e-05
1.65516e-05
1.47699e-05
1.30653e-05
1.14258e-05
9.88701e-06
8.53258e-06
7.48641e-06
6.77057e-06
6.29089e-06
5.94392e-06
5.64956e-06
5.38449e-06
5.20378e-06
5.25272e-06
5.83879e-06
7.66392e-06
1.09582e-05
5.67468e-06
1.97343e-06
1.6845e-07
9.18468e-08
2.68562e-06
6.67674e-06
1.45237e-05
2.62741e-05
3.51866e-05
3.84914e-05
3.81722e-05
3.57943e-05
3.24997e-05
2.90695e-05
2.59162e-05
2.31745e-05
2.08172e-05
1.87505e-05
1.68719e-05
1.50975e-05
1.33742e-05
1.16881e-05
1.00771e-05
8.63076e-06
7.48211e-06
6.68058e-06
6.14037e-06
5.76447e-06
5.47601e-06
5.24744e-06
5.12334e-06
5.24071e-06
5.9126e-06
7.86305e-06
1.11667e-05
5.6668e-06
1.98909e-06
1.72422e-07
9.63408e-08
2.70768e-06
6.74757e-06
1.47427e-05
2.66502e-05
3.54776e-05
3.86483e-05
3.82421e-05
3.58333e-05
3.25436e-05
2.91528e-05
2.60583e-05
2.33797e-05
2.10808e-05
1.90627e-05
1.72181e-05
1.54574e-05
1.37218e-05
1.19937e-05
1.03117e-05
8.77083e-06
7.51359e-06
6.6196e-06
6.01263e-06
5.60218e-06
5.31433e-06
5.1173e-06
5.04559e-06
5.22851e-06
5.98541e-06
8.06312e-06
1.13696e-05
5.66979e-06
2.00543e-06
1.76144e-07
1.00749e-07
2.72873e-06
6.8172e-06
1.49587e-05
2.70083e-05
3.57455e-05
3.87858e-05
3.82951e-05
3.58565e-05
3.25771e-05
2.92309e-05
2.61992e-05
2.35878e-05
2.13525e-05
1.93894e-05
1.7586e-05
1.58468e-05
1.41064e-05
1.23415e-05
1.05907e-05
8.95413e-06
7.58458e-06
6.59261e-06
5.91318e-06
5.46245e-06
5.16938e-06
4.99825e-06
4.97427e-06
5.22e-06
6.06262e-06
8.27266e-06
1.15705e-05
5.68067e-06
2.02242e-06
1.79626e-07
1.05236e-07
2.74985e-06
6.88882e-06
1.51852e-05
2.73678e-05
3.60083e-05
3.89181e-05
3.83461e-05
3.58831e-05
3.26239e-05
2.93207e-05
2.63481e-05
2.38027e-05
2.16323e-05
1.97275e-05
1.7971e-05
1.62605e-05
1.45231e-05
1.27287e-05
1.09133e-05
9.18164e-06
7.69692e-06
6.60092e-06
5.84283e-06
5.3454e-06
5.04048e-06
4.88894e-06
4.90756e-06
5.21302e-06
6.14086e-06
8.48463e-06
1.17688e-05
5.69895e-06
2.04004e-06
1.82888e-07
1.09632e-07
2.76934e-06
6.95599e-06
1.54003e-05
2.77064e-05
3.62472e-05
3.903e-05
3.83791e-05
3.58927e-05
3.26575e-05
2.93994e-05
2.64894e-05
2.40145e-05
2.19143e-05
2.00737e-05
1.83703e-05
1.66959e-05
1.49691e-05
1.31522e-05
1.12773e-05
9.4526e-06
7.85246e-06
6.64774e-06
5.80539e-06
5.25504e-06
4.93149e-06
4.79279e-06
4.84834e-06
5.20978e-06
6.22154e-06
8.6993e-06
1.19636e-05
5.72242e-06
2.05802e-06
1.8594e-07
1.14074e-07
2.78914e-06
7.02467e-06
1.56198e-05
2.80459e-05
3.6481e-05
3.91362e-05
3.84075e-05
3.58989e-05
3.26884e-05
2.94767e-05
2.66301e-05
2.42267e-05
2.2198e-05
2.04246e-05
1.87795e-05
1.71479e-05
1.544e-05
1.36087e-05
1.16808e-05
9.76688e-06
8.05223e-06
6.73409e-06
5.80173e-06
5.19184e-06
4.84242e-06
4.70936e-06
4.79581e-06
5.20914e-06
6.30275e-06
8.9133e-06
1.21551e-05
5.75089e-06
2.0763e-06
1.888e-07
1.18434e-07
2.80766e-06
7.09009e-06
1.58312e-05
2.83671e-05
3.6693e-05
3.92227e-05
3.84175e-05
3.58876e-05
3.27034e-05
2.95417e-05
2.67615e-05
2.44322e-05
2.24786e-05
2.07769e-05
1.91956e-05
1.76136e-05
1.5932e-05
1.40939e-05
1.21196e-05
1.0121e-05
8.29426e-06
6.85983e-06
5.8331e-06
5.15808e-06
4.77601e-06
4.64142e-06
4.75233e-06
5.21273e-06
6.38523e-06
9.12747e-06
1.23428e-05
5.78283e-06
2.09468e-06
1.91476e-07
1.22812e-07
2.82643e-06
7.15655e-06
1.60449e-05
2.86858e-05
3.68973e-05
3.93007e-05
3.84188e-05
3.58674e-05
3.27099e-05
2.96015e-05
2.68875e-05
2.46318e-05
2.27546e-05
2.11276e-05
1.96149e-05
1.80889e-05
1.64415e-05
1.46048e-05
1.25914e-05
1.05131e-05
8.5766e-06
7.02348e-06
5.8984e-06
5.15306e-06
4.73186e-06
4.58863e-06
4.71744e-06
5.22005e-06
6.46902e-06
9.33941e-06
1.2527e-05
5.81802e-06
2.11312e-06
1.93985e-07
1.27119e-07
2.84443e-06
7.22107e-06
1.62526e-05
2.89887e-05
3.70817e-05
3.93592e-05
3.84005e-05
3.58271e-05
3.26965e-05
2.96465e-05
2.69998e-05
2.48194e-05
2.30217e-05
2.14737e-05
2.00345e-05
1.85702e-05
1.69639e-05
1.51363e-05
1.30909e-05
1.09384e-05
8.89532e-06
7.22309e-06
5.99724e-06
5.17749e-06
4.71148e-06
4.55303e-06
4.69356e-06
5.23402e-06
6.55766e-06
9.55173e-06
1.27086e-05
5.85545e-06
2.13145e-06
1.96333e-07
1.31427e-07
2.86277e-06
7.28681e-06
1.64611e-05
2.92859e-05
3.72556e-05
3.94061e-05
3.83695e-05
3.57732e-05
3.26685e-05
2.96755e-05
2.70973e-05
2.49946e-05
2.32792e-05
2.18132e-05
2.04516e-05
1.90546e-05
1.7496e-05
1.56852e-05
1.36153e-05
1.13944e-05
9.24805e-06
7.45685e-06
6.12826e-06
5.23038e-06
4.71431e-06
4.53446e-06
4.68068e-06
5.25422e-06
6.6492e-06
9.76354e-06
1.28887e-05
5.89531e-06
2.1497e-06
1.98531e-07
1.35671e-07
2.88084e-06
7.35258e-06
1.66638e-05
2.95674e-05
3.741e-05
3.94334e-05
3.83185e-05
3.56988e-05
3.26203e-05
2.96856e-05
2.71781e-05
2.51554e-05
2.35247e-05
2.21437e-05
2.08633e-05
1.9538e-05
1.8033e-05
1.62459e-05
1.41589e-05
1.1876e-05
9.63079e-06
7.72262e-06
6.29064e-06
5.31186e-06
4.74121e-06
4.53429e-06
4.68044e-06
5.28215e-06
6.74482e-06
9.97629e-06
1.30675e-05
5.9369e-06
2.16778e-06
2.00585e-07
1.39868e-07
2.89859e-06
7.41852e-06
1.68634e-05
2.98396e-05
3.75515e-05
3.94456e-05
3.82508e-05
3.56073e-05
3.25559e-05
2.96799e-05
2.72437e-05
2.53023e-05
2.37583e-05
2.24647e-05
2.12685e-05
2.00188e-05
1.85725e-05
1.68154e-05
1.47181e-05
1.23797e-05
1.00407e-05
8.01818e-06
6.48282e-06
5.42089e-06
4.79159e-06
4.55235e-06
4.69285e-06
5.31771e-06
6.84394e-06
1.01892e-05
1.32463e-05
5.98048e-06
2.18574e-06
2.02507e-07
1.43965e-07
2.91499e-06
7.48051e-06
1.70564e-05
3.01007e-05
3.76772e-05
3.94407e-05
3.81651e-05
3.54958e-05
3.24669e-05
2.96486e-05
2.72881e-05
2.54323e-05
2.39775e-05
2.27735e-05
2.16638e-05
2.0493e-05
1.91097e-05
1.73882e-05
1.52872e-05
1.29e-05
1.04729e-05
8.34054e-06
6.70319e-06
5.55694e-06
4.8658e-06
4.58961e-06
4.71923e-06
5.3623e-06
6.94788e-06
1.04033e-05
1.34247e-05
6.02556e-06
2.20354e-06
2.04302e-07
1.48024e-07
2.93113e-06
7.54262e-06
1.725e-05
3.03549e-05
3.77911e-05
3.94222e-05
3.80641e-05
3.53691e-05
3.23656e-05
2.96055e-05
2.73164e-05
2.55432e-05
2.41801e-05
2.30687e-05
2.2048e-05
2.0959e-05
1.96427e-05
1.79619e-05
1.58634e-05
1.34338e-05
1.09246e-05
8.687e-06
6.9496e-06
5.71849e-06
4.96296e-06
4.64573e-06
4.75959e-06
5.41596e-06
7.05645e-06
1.06181e-05
1.36038e-05
6.07248e-06
2.22125e-06
2.05986e-07
1.51996e-07
2.94633e-06
7.60214e-06
1.74377e-05
3.05955e-05
3.78877e-05
3.93853e-05
3.7943e-05
3.52204e-05
3.22405e-05
2.95393e-05
2.73266e-05
2.56392e-05
2.43647e-05
2.3346e-05
2.24178e-05
2.14137e-05
2.01679e-05
1.85322e-05
1.64418e-05
1.39763e-05
1.13918e-05
9.05479e-06
7.22033e-06
5.90471e-06
5.08296e-06
4.72125e-06
4.81494e-06
5.47997e-06
7.1711e-06
1.08351e-05
1.3784e-05
6.12107e-06
2.23887e-06
2.07569e-07
1.55906e-07
2.96117e-06
7.66093e-06
1.76236e-05
3.08274e-05
3.7971e-05
3.93331e-05
3.78053e-05
3.50549e-05
3.2099e-05
2.94565e-05
2.73199e-05
2.57193e-05
2.45366e-05
2.36097e-05
2.27731e-05
2.18559e-05
2.06831e-05
1.90962e-05
1.7019e-05
1.45241e-05
1.18709e-05
9.44095e-06
7.51297e-06
6.11377e-06
5.22465e-06
4.81564e-06
4.88521e-06
5.55452e-06
7.29189e-06
1.1054e-05
1.39664e-05
6.17168e-06
2.2565e-06
2.09067e-07
1.5972e-07
2.97508e-06
7.7172e-06
1.78036e-05
3.10456e-05
3.80373e-05
3.92624e-05
3.76477e-05
3.48683e-05
3.19361e-05
2.9353e-05
2.72938e-05
2.57809e-05
2.46908e-05
2.38576e-05
2.31125e-05
2.22823e-05
2.1185e-05
1.96504e-05
1.75911e-05
1.5073e-05
1.23586e-05
9.8428e-06
7.82567e-06
6.34454e-06
5.38752e-06
4.92902e-06
4.97116e-06
5.64085e-06
7.42043e-06
1.12765e-05
1.41518e-05
6.2244e-06
2.27418e-06
2.10497e-07
1.63465e-07
2.98862e-06
7.77256e-06
1.79809e-05
3.12541e-05
3.80897e-05
3.91761e-05
3.7473e-05
3.46644e-05
3.17562e-05
2.92327e-05
2.72516e-05
2.58268e-05
2.48293e-05
2.40899e-05
2.34369e-05
2.26929e-05
2.16712e-05
2.01914e-05
1.81543e-05
1.56191e-05
1.28509e-05
1.02572e-05
8.15592e-06
6.59513e-06
5.57029e-06
5.06071e-06
5.07259e-06
5.7391e-06
7.55699e-06
1.15026e-05
1.43412e-05
6.27952e-06
2.292e-06
2.11875e-07
1.67108e-07
3.00131e-06
7.82545e-06
1.81521e-05
3.14489e-05
3.81255e-05
3.90714e-05
3.72786e-05
3.44404e-05
3.15566e-05
2.90933e-05
2.71913e-05
2.58551e-05
2.49503e-05
2.43048e-05
2.37439e-05
2.30865e-05
2.21395e-05
2.07158e-05
1.87045e-05
1.61579e-05
1.33438e-05
1.06807e-05
8.50125e-06
6.86391e-06
5.77206e-06
5.21053e-06
5.19004e-06
5.85052e-06
7.70342e-06
1.17347e-05
1.45357e-05
6.33726e-06
2.31004e-06
2.13216e-07
1.70661e-07
3.01343e-06
7.8768e-06
1.83195e-05
3.16331e-05
3.81471e-05
3.89507e-05
3.70669e-05
3.41993e-05
3.13404e-05
2.8938e-05
2.71158e-05
2.58684e-05
2.50559e-05
2.45032e-05
2.40334e-05
2.34618e-05
2.25893e-05
2.12203e-05
1.92383e-05
1.66861e-05
1.38336e-05
1.11101e-05
8.85883e-06
7.14865e-06
5.99125e-06
5.37745e-06
5.32304e-06
5.97514e-06
7.8602e-06
1.19732e-05
1.47362e-05
6.39785e-06
2.32837e-06
2.14539e-07
1.74108e-07
3.02474e-06
7.92579e-06
1.8481e-05
3.18041e-05
3.81523e-05
3.88118e-05
3.68361e-05
3.39392e-05
3.11063e-05
2.87656e-05
2.70242e-05
2.58661e-05
2.51456e-05
2.4685e-05
2.43051e-05
2.38179e-05
2.30187e-05
2.17042e-05
1.97497e-05
1.71972e-05
1.43156e-05
1.15416e-05
9.22578e-06
7.44729e-06
6.22658e-06
5.56103e-06
5.47192e-06
6.11407e-06
8.02921e-06
1.22205e-05
1.49434e-05
6.4614e-06
2.34706e-06
2.15857e-07
1.77462e-07
3.03546e-06
7.97313e-06
1.86383e-05
3.19641e-05
3.8143e-05
3.86565e-05
3.6588e-05
3.36627e-05
3.08569e-05
2.85791e-05
2.69194e-05
2.58504e-05
2.52213e-05
2.48514e-05
2.45597e-05
2.41548e-05
2.34269e-05
2.21657e-05
2.024e-05
1.7689e-05
1.47853e-05
1.19709e-05
9.59865e-06
7.75716e-06
6.47605e-06
5.75988e-06
5.636e-06
6.26737e-06
8.21131e-06
1.2478e-05
1.51579e-05
6.52814e-06
2.3662e-06
2.17186e-07
1.80712e-07
3.04544e-06
8.01833e-06
1.87903e-05
3.21114e-05
3.81175e-05
3.84829e-05
3.6321e-05
3.33682e-05
3.05913e-05
2.83778e-05
2.68007e-05
2.58213e-05
2.5283e-05
2.50026e-05
2.4797e-05
2.44718e-05
2.38123e-05
2.26023e-05
2.07054e-05
1.81593e-05
1.52401e-05
1.23949e-05
9.97439e-06
8.07585e-06
6.73806e-06
5.97315e-06
5.81508e-06
6.43556e-06
8.40791e-06
1.27476e-05
1.53798e-05
6.59796e-06
2.38583e-06
2.18535e-07
1.83873e-07
3.05486e-06
8.06199e-06
1.89385e-05
3.2248e-05
3.80772e-05
3.82924e-05
3.60367e-05
3.30579e-05
3.03117e-05
2.81639e-05
2.66706e-05
2.57809e-05
2.53326e-05
2.51403e-05
2.50186e-05
2.477e-05
2.41753e-05
2.30132e-05
2.11438e-05
1.86049e-05
1.56766e-05
1.28106e-05
1.03503e-05
8.40089e-06
7.01059e-06
6.19948e-06
6.00862e-06
6.61901e-06
8.62029e-06
1.30311e-05
1.56095e-05
6.67104e-06
2.40601e-06
2.19916e-07
1.86938e-07
3.06361e-06
8.10379e-06
1.90821e-05
3.23726e-05
3.80207e-05
3.80834e-05
3.57336e-05
3.27307e-05
3.00177e-05
2.79374e-05
2.6529e-05
2.57293e-05
2.53705e-05
2.52648e-05
2.52248e-05
2.50497e-05
2.45159e-05
2.33979e-05
2.15537e-05
1.90232e-05
1.60912e-05
1.3213e-05
1.07221e-05
8.72939e-06
7.29172e-06
6.43752e-06
6.21569e-06
6.81739e-06
8.84917e-06
1.33302e-05
1.58466e-05
6.74711e-06
2.42677e-06
2.21335e-07
1.89923e-07
3.07184e-06
8.14429e-06
1.92225e-05
3.24867e-05
3.7949e-05
3.78569e-05
3.54132e-05
3.23887e-05
2.97114e-05
2.77004e-05
2.63781e-05
2.56686e-05
2.53985e-05
2.5378e-05
2.54172e-05
2.53121e-05
2.48351e-05
2.37566e-05
2.19345e-05
1.94127e-05
1.64821e-05
1.36003e-05
1.10873e-05
9.05861e-06
7.57933e-06
6.68614e-06
6.43619e-06
7.03151e-06
9.09601e-06
1.36463e-05
1.60909e-05
6.82605e-06
2.44811e-06
2.22797e-07
1.92821e-07
3.07948e-06
8.18328e-06
1.93592e-05
3.25893e-05
3.78608e-05
3.76114e-05
3.50745e-05
3.20311e-05
2.93927e-05
2.74531e-05
2.62182e-05
2.5599e-05
2.54171e-05
2.54802e-05
2.55963e-05
2.55579e-05
2.51331e-05
2.40895e-05
2.2286e-05
1.97725e-05
1.68474e-05
1.39699e-05
1.14428e-05
9.38575e-06
7.871e-06
6.94334e-06
6.66858e-06
7.26046e-06
9.36144e-06
1.39813e-05
1.63418e-05
6.90755e-06
2.47003e-06
2.24303e-07
1.95648e-07
3.08667e-06
8.22124e-06
1.94935e-05
3.26817e-05
3.77571e-05
3.73482e-05
3.47191e-05
3.16603e-05
2.9064e-05
2.71979e-05
2.60515e-05
2.55229e-05
2.54283e-05
2.55734e-05
2.57638e-05
2.57885e-05
2.54112e-05
2.43975e-05
2.26086e-05
2.01024e-05
1.71859e-05
1.43195e-05
1.17861e-05
9.70821e-06
8.16462e-06
7.20777e-06
6.9123e-06
7.50468e-06
9.6457e-06
1.43351e-05
1.6598e-05
6.99126e-06
2.49249e-06
2.25851e-07
1.98396e-07
3.09332e-06
8.25801e-06
1.96248e-05
3.27627e-05
3.76365e-05
3.70659e-05
3.43463e-05
3.1276e-05
2.87254e-05
2.69352e-05
2.58786e-05
2.54406e-05
2.54326e-05
2.56582e-05
2.59204e-05
2.60045e-05
2.56704e-05
2.46818e-05
2.29037e-05
2.04037e-05
1.74985e-05
1.46488e-05
1.21156e-05
1.00237e-05
8.45766e-06
7.47736e-06
7.16641e-06
7.76478e-06
9.95016e-06
1.47091e-05
1.68586e-05
7.07678e-06
2.51545e-06
2.2744e-07
2.01077e-07
3.09957e-06
8.29401e-06
1.97542e-05
3.28334e-05
3.75e-05
3.6766e-05
3.39579e-05
3.08806e-05
2.83797e-05
2.66677e-05
2.5702e-05
2.53546e-05
2.54321e-05
2.57362e-05
2.60675e-05
2.62073e-05
2.59116e-05
2.49431e-05
2.31722e-05
2.06774e-05
1.7786e-05
1.49576e-05
1.24305e-05
1.0331e-05
8.749e-06
7.75114e-06
7.43005e-06
8.03981e-06
1.02746e-05
1.5103e-05
1.71225e-05
7.16383e-06
2.53889e-06
2.29066e-07
2.03681e-07
3.10533e-06
8.32903e-06
1.98812e-05
3.28927e-05
3.73463e-05
3.64471e-05
3.35534e-05
3.0474e-05
2.8027e-05
2.63957e-05
2.55222e-05
2.52655e-05
2.54277e-05
2.58086e-05
2.62062e-05
2.6398e-05
2.61364e-05
2.51836e-05
2.34167e-05
2.09268e-05
1.80518e-05
1.52477e-05
1.2731e-05
1.0629e-05
9.03653e-06
8.02655e-06
7.70114e-06
8.32859e-06
1.06192e-05
1.5517e-05
1.73885e-05
7.25195e-06
2.56275e-06
2.30727e-07
2.06217e-07
3.11071e-06
8.3634e-06
2.00065e-05
3.29414e-05
3.71762e-05
3.61106e-05
3.31346e-05
3.00586e-05
2.76698e-05
2.61218e-05
2.53417e-05
2.51755e-05
2.54212e-05
2.58769e-05
2.63377e-05
2.65775e-05
2.63452e-05
2.54039e-05
2.36387e-05
2.11544e-05
1.82995e-05
1.55216e-05
1.30182e-05
1.0918e-05
9.32026e-06
8.30365e-06
7.97923e-06
8.63016e-06
1.09824e-05
1.5949e-05
1.76556e-05
7.34103e-06
2.587e-06
2.32423e-07
2.08671e-07
3.11561e-06
8.39682e-06
2.01293e-05
3.29783e-05
3.69885e-05
3.57551e-05
3.27006e-05
2.96338e-05
2.73081e-05
2.58463e-05
2.51609e-05
2.50856e-05
2.54139e-05
2.59423e-05
2.64635e-05
2.67473e-05
2.654e-05
2.56063e-05
2.38411e-05
2.13641e-05
1.85338e-05
1.57824e-05
1.32939e-05
1.11985e-05
9.59938e-06
8.58061e-06
8.26219e-06
8.94325e-06
1.13639e-05
1.63984e-05
1.79224e-05
7.43051e-06
2.61156e-06
2.34149e-07
2.11051e-07
3.12013e-06
8.42958e-06
2.02505e-05
3.30041e-05
3.67837e-05
3.53816e-05
3.2253e-05
2.92017e-05
2.6944e-05
2.55711e-05
2.4982e-05
2.49975e-05
2.54073e-05
2.60065e-05
2.65847e-05
2.69085e-05
2.67214e-05
2.57916e-05
2.40251e-05
2.1558e-05
1.87572e-05
1.60327e-05
1.356e-05
1.14718e-05
9.87451e-06
8.85776e-06
8.55038e-06
9.2668e-06
1.17613e-05
1.68618e-05
1.81887e-05
7.52051e-06
2.63644e-06
2.35911e-07
2.13345e-07
3.12416e-06
8.46137e-06
2.03691e-05
3.30175e-05
3.65604e-05
3.49886e-05
3.17907e-05
2.87617e-05
2.65771e-05
2.52965e-05
2.48053e-05
2.49121e-05
2.54029e-05
2.60709e-05
2.67032e-05
2.70628e-05
2.68914e-05
2.59615e-05
2.41924e-05
2.17368e-05
1.89694e-05
1.62727e-05
1.38172e-05
1.17381e-05
1.01456e-05
9.1346e-06
8.84268e-06
9.60001e-06
1.21744e-05
1.73384e-05
1.84527e-05
7.61029e-06
2.6615e-06
2.37699e-07
2.15561e-07
3.1278e-06
8.49252e-06
2.0486e-05
3.30193e-05
3.63188e-05
3.45767e-05
3.13149e-05
2.83152e-05
2.62092e-05
2.5024e-05
2.46325e-05
2.48311e-05
2.54019e-05
2.61369e-05
2.68204e-05
2.72116e-05
2.70515e-05
2.61178e-05
2.43445e-05
2.1902e-05
1.91711e-05
1.65038e-05
1.40669e-05
1.19987e-05
1.04135e-05
9.41124e-06
9.13888e-06
9.94244e-06
1.26006e-05
1.78247e-05
1.87145e-05
7.70007e-06
2.68676e-06
2.39523e-07
2.17692e-07
3.13097e-06
8.52272e-06
2.06005e-05
3.3008e-05
3.60573e-05
3.41443e-05
3.08245e-05
2.78616e-05
2.58398e-05
2.47536e-05
2.44638e-05
2.47549e-05
2.54055e-05
2.62059e-05
2.69377e-05
2.73567e-05
2.72033e-05
2.62621e-05
2.44828e-05
2.20541e-05
1.93618e-05
1.67253e-05
1.43089e-05
1.22538e-05
1.06783e-05
9.68773e-06
9.43874e-06
1.02936e-05
1.30401e-05
1.83194e-05
1.89727e-05
7.78924e-06
2.7121e-06
2.41374e-07
2.19746e-07
3.13374e-06
8.55225e-06
2.07132e-05
3.29839e-05
3.57762e-05
3.36921e-05
3.03205e-05
2.74021e-05
2.54702e-05
2.44868e-05
2.43006e-05
2.46845e-05
2.54143e-05
2.62787e-05
2.70561e-05
2.74993e-05
2.73482e-05
2.63959e-05
2.46092e-05
2.2195e-05
1.95428e-05
1.69383e-05
1.45438e-05
1.25038e-05
1.09402e-05
9.96416e-06
9.74215e-06
1.0653e-05
1.34918e-05
1.88207e-05
1.92264e-05
7.87701e-06
2.73734e-06
2.43235e-07
2.21717e-07
3.13602e-06
8.58079e-06
2.08231e-05
3.29456e-05
3.54735e-05
3.32185e-05
2.98023e-05
2.6936e-05
2.51002e-05
2.42242e-05
2.41432e-05
2.462e-05
2.54285e-05
2.63558e-05
2.71767e-05
2.76405e-05
2.74879e-05
2.65211e-05
2.47256e-05
2.23266e-05
1.97149e-05
1.71432e-05
1.47719e-05
1.27488e-05
1.11994e-05
1.02406e-05
1.0049e-05
1.10206e-05
1.39555e-05
1.93282e-05
1.94753e-05
7.96365e-06
2.76248e-06
2.45118e-07
2.23612e-07
3.13788e-06
8.60851e-06
2.09307e-05
3.28931e-05
3.51495e-05
3.27244e-05
2.9271e-05
2.64643e-05
2.47299e-05
2.39683e-05
2.39925e-05
2.45612e-05
2.54478e-05
2.6437e-05
2.72997e-05
2.77811e-05
2.76233e-05
2.66394e-05
2.48342e-05
2.24514e-05
1.98794e-05
1.73402e-05
1.49933e-05
1.29887e-05
1.14558e-05
1.0517e-05
1.03595e-05
1.13962e-05
1.44306e-05
1.98406e-05
1.97181e-05
8.0487e-06
2.78749e-06
2.47017e-07
2.25423e-07
3.1392e-06
8.63497e-06
2.10347e-05
3.28248e-05
3.48027e-05
3.22091e-05
2.87266e-05
2.5987e-05
2.4358e-05
2.37122e-05
2.38434e-05
2.45059e-05
2.54718e-05
2.65229e-05
2.74256e-05
2.7922e-05
2.77561e-05
2.67531e-05
2.49388e-05
2.25742e-05
2.00392e-05
1.7531e-05
1.52083e-05
1.32237e-05
1.17094e-05
1.07933e-05
1.06735e-05
1.17801e-05
1.49168e-05
2.03566e-05
1.99552e-05
8.13228e-06
2.81265e-06
2.48928e-07
2.27155e-07
3.14001e-06
8.6602e-06
2.1135e-05
3.27407e-05
3.44335e-05
3.16736e-05
2.81706e-05
2.55058e-05
2.39868e-05
2.34595e-05
2.36991e-05
2.44557e-05
2.55007e-05
2.6613e-05
2.75542e-05
2.80631e-05
2.78868e-05
2.6864e-05
2.50424e-05
2.26991e-05
2.01973e-05
1.77173e-05
1.54181e-05
1.34542e-05
1.19602e-05
1.10694e-05
1.09907e-05
1.21716e-05
1.5413e-05
2.08743e-05
2.01853e-05
8.21397e-06
2.83779e-06
2.50838e-07
2.288e-07
3.14018e-06
8.68368e-06
2.12303e-05
3.26392e-05
3.40406e-05
3.11176e-05
2.76032e-05
2.50204e-05
2.36152e-05
2.32083e-05
2.35573e-05
2.44091e-05
2.55338e-05
2.6707e-05
2.76855e-05
2.82049e-05
2.80161e-05
2.69733e-05
2.51467e-05
2.28277e-05
2.03556e-05
1.79008e-05
1.56239e-05
1.3681e-05
1.22089e-05
1.13461e-05
1.13123e-05
1.25714e-05
1.59191e-05
2.13925e-05
2.04084e-05
8.29372e-06
2.8627e-06
2.52744e-07
2.3036e-07
3.13973e-06
8.70536e-06
2.13205e-05
3.25203e-05
3.36245e-05
3.05422e-05
2.70261e-05
2.45324e-05
2.32447e-05
2.29599e-05
2.34194e-05
2.43668e-05
2.55713e-05
2.68048e-05
2.78193e-05
2.83471e-05
2.81442e-05
2.70811e-05
2.52513e-05
2.29588e-05
2.05139e-05
1.80819e-05
1.58261e-05
1.39042e-05
1.2455e-05
1.16217e-05
1.16352e-05
1.29777e-05
1.64333e-05
2.19091e-05
2.06238e-05
8.37129e-06
2.88728e-06
2.54643e-07
2.31833e-07
3.13854e-06
8.72478e-06
2.14042e-05
3.23826e-05
3.31838e-05
2.99471e-05
2.64392e-05
2.40417e-05
2.28748e-05
2.27137e-05
2.32843e-05
2.4328e-05
2.56126e-05
2.69064e-05
2.79558e-05
2.84905e-05
2.8272e-05
2.71884e-05
2.53567e-05
2.30916e-05
2.0672e-05
1.82612e-05
1.60256e-05
1.41249e-05
1.26999e-05
1.18992e-05
1.1965e-05
1.33914e-05
1.69547e-05
2.24225e-05
2.08315e-05
8.4467e-06
2.9115e-06
2.56536e-07
2.33224e-07
3.13665e-06
8.74199e-06
2.14817e-05
3.22262e-05
3.27191e-05
2.93337e-05
2.58443e-05
2.35496e-05
2.25066e-05
2.24703e-05
2.31529e-05
2.42932e-05
2.5658e-05
2.70116e-05
2.80949e-05
2.86352e-05
2.84001e-05
2.72963e-05
2.5464e-05
2.32262e-05
2.08302e-05
1.84391e-05
1.62231e-05
1.43437e-05
1.29443e-05
1.21791e-05
1.2301e-05
1.38129e-05
1.74825e-05
2.29312e-05
2.10316e-05
8.51994e-06
2.93532e-06
2.58419e-07
2.34535e-07