/*--------------------------------*- C++ -*----------------------------------*\
| =========                 |                                                 |
| \\      /  F ield         | OpenFOAM: The Open Source CFD Toolbox           |
|  \\    /   O peration     | Version:  v1906                                 |
|   \\  /    A nd           | Web:      www.OpenFOAM.com                      |
|    \\/     M anipulation  |                                                 |
\*---------------------------------------------------------------------------*/
FoamFile
{
    version     2.0;
    format      ascii;
    class       volScalarField;
    location    "65";
    object      T;
}
// * * * * * * * * * * * * * * * * * * * * * * * * * * * * * * * * * * * * * //

dimensions      [0 0 0 1 0 0 0];


internalField   nonuniform List<scalar> 
78750
(
300.036
300.104
300.168
300.227
300.282
300.332
300.378
300.42
300.459
300.494
300.527
300.557
300.585
300.611
300.634
300.656
300.676
300.695
300.712
300.727
300.741
300.753
300.764
300.774
300.781
300.786
300.789
300.789
300.788
300.795
300.834
300.962
301.277
301.873
302.765
300.052
300.15
300.239
300.317
300.388
300.452
300.51
300.563
300.61
300.653
300.692
300.727
300.758
300.786
300.811
300.833
300.853
300.87
300.885
300.897
300.907
300.916
300.921
300.925
300.926
300.924
300.92
300.914
300.911
300.921
300.975
301.131
301.471
302.065
302.941
300.067
300.195
300.312
300.416
300.507
300.587
300.657
300.718
300.773
300.821
300.863
300.901
300.934
300.963
300.988
301.009
301.027
301.041
301.051
301.058
301.061
301.062
301.059
301.053
301.044
301.033
301.02
301.008
301.004
301.024
301.102
301.292
301.656
302.256
303.14
300.08
300.233
300.372
300.494
300.598
300.686
300.76
300.824
300.88
300.931
300.975
301.015
301.05
301.081
301.107
301.129
301.148
301.162
301.173
301.179
301.182
301.18
301.174
301.163
301.149
301.13
301.11
301.094
301.091
301.122
301.221
301.442
301.823
302.428
303.322
300.089
300.261
300.416
300.551
300.663
300.755
300.831
300.896
300.955
301.006
301.052
301.092
301.127
301.158
301.184
301.206
301.225
301.239
301.248
301.254
301.256
301.254
301.247
301.235
301.219
301.2
301.18
301.167
301.172
301.219
301.343
301.59
301.988
302.605
303.508
300.098
300.287
300.458
300.604
300.723
300.818
300.896
300.964
301.024
301.077
301.124
301.166
301.202
301.234
301.262
301.284
301.301
301.313
301.32
301.322
301.32
301.314
301.303
301.289
301.272
301.252
301.235
301.227
301.243
301.306
301.454
301.722
302.136
302.764
303.674
300.105
300.307
300.489
300.643
300.767
300.864
300.945
301.014
301.075
301.13
301.178
301.222
301.261
301.294
301.322
301.345
301.361
301.372
301.377
301.377
301.372
301.363
301.35
301.334
301.315
301.297
301.284
301.284
301.313
301.394
301.564
301.851
302.281
302.924
303.839
300.111
300.324
300.516
300.678
300.807
300.908
300.991
301.062
301.125
301.181
301.232
301.278
301.319
301.354
301.382
301.404
301.42
301.428
301.431
301.428
301.42
301.407
301.392
301.374
301.355
301.339
301.329
301.336
301.376
301.473
301.661
301.965
302.408
303.063
303.984
300.116
300.339
300.539
300.707
300.84
300.944
301.029
301.102
301.167
301.226
301.28
301.328
301.371
301.407
301.437
301.459
301.475
301.482
301.483
301.478
301.467
301.452
301.434
301.414
301.394
301.379
301.373
301.388
301.438
301.55
301.755
302.074
302.531
303.197
304.122
300.121
300.352
300.559
300.734
300.871
300.978
301.066
301.141
301.209
301.27
301.325
301.376
301.42
301.458
301.489
301.512
301.527
301.534
301.533
301.526
301.513
301.496
301.475
301.454
301.434
301.419
301.417
301.437
301.496
301.621
301.84
302.172
302.64
303.317
304.246
300.125
300.364
300.578
300.759
300.9
301.01
301.1
301.178
301.247
301.311
301.368
301.421
301.467
301.507
301.539
301.562
301.577
301.584
301.583
301.574
301.56
301.54
301.518
301.494
301.474
301.46
301.46
301.485
301.554
301.69
301.923
302.268
302.746
303.433
304.365
300.129
300.376
300.597
300.783
300.928
301.041
301.133
301.213
301.285
301.35
301.41
301.464
301.512
301.553
301.586
301.61
301.626
301.632
301.63
301.621
301.605
301.584
301.56
301.535
301.514
301.501
301.504
301.533
301.609
301.756
302.001
302.356
302.844
303.54
304.475
300.133
300.387
300.614
300.805
300.954
301.07
301.164
301.246
301.32
301.388
301.45
301.506
301.556
301.598
301.632
301.657
301.673
301.679
301.677
301.667
301.649
301.627
301.602
301.576
301.555
301.543
301.547
301.582
301.666
301.823
302.079
302.444
302.94
303.643
304.582
300.137
300.398
300.632
300.828
300.98
301.098
301.195
301.279
301.355
301.425
301.488
301.546
301.598
301.641
301.676
301.702
301.718
301.725
301.722
301.711
301.693
301.67
301.643
301.617
301.596
301.584
301.592
301.631
301.721
301.888
302.154
302.527
303.031
303.742
304.683
300.141
300.409
300.648
300.849
301.005
301.125
301.224
301.31
301.388
301.46
301.526
301.585
301.638
301.683
301.719
301.745
301.762
301.769
301.766
301.755
301.736
301.712
301.684
301.658
301.637
301.626
301.636
301.68
301.778
301.953
302.229
302.61
303.121
303.838
304.782
300.145
300.42
300.665
300.871
301.029
301.152
301.253
301.341
301.421
301.494
301.562
301.624
301.678
301.724
301.761
301.788
301.805
301.812
301.809
301.797
301.778
301.753
301.726
301.699
301.678
301.669
301.681
301.73
301.834
302.018
302.303
302.69
303.207
303.93
304.877
300.148
300.43
300.681
300.891
301.053
301.177
301.28
301.37
301.452
301.528
301.597
301.66
301.716
301.763
301.801
301.829
301.846
301.854
301.851
301.839
301.82
301.795
301.767
301.74
301.719
301.712
301.727
301.78
301.891
302.083
302.377
302.77
303.292
304.02
304.969
300.152
300.44
300.697
300.911
301.076
301.203
301.307
301.399
301.483
301.56
301.631
301.696
301.753
301.801
301.84
301.869
301.887
301.895
301.892
301.881
301.861
301.836
301.808
301.781
301.761
301.755
301.773
301.831
301.948
302.148
302.449
302.848
303.374
304.108
305.058
300.155
300.45
300.713
300.931
301.098
301.227
301.333
301.427
301.513
301.592
301.665
301.731
301.789
301.838
301.878
301.908
301.927
301.935
301.933
301.922
301.902
301.877
301.848
301.822
301.803
301.798
301.82
301.883
302.006
302.214
302.522
302.925
303.455
304.194
305.146
300.159
300.46
300.728
300.95
301.12
301.251
301.359
301.455
301.542
301.623
301.697
301.765
301.824
301.875
301.916
301.946
301.966
301.974
301.973
301.962
301.943
301.917
301.889
301.863
301.845
301.842
301.867
301.934
302.064
302.279
302.594
303.001
303.535
304.277
305.23
300.162
300.47
300.743
300.969
301.141
301.274
301.384
301.481
301.57
301.653
301.729
301.798
301.858
301.91
301.952
301.983
302.004
302.013
302.012
302.002
301.983
301.958
301.93
301.905
301.887
301.887
301.915
301.987
302.123
302.345
302.665
303.076
303.613
304.358
305.312
300.166
300.48
300.759
300.988
301.162
301.297
301.409
301.508
301.598
301.682
301.76
301.83
301.892
301.945
301.988
302.02
302.041
302.051
302.051
302.042
302.023
301.999
301.971
301.946
301.93
301.932
301.963
302.039
302.181
302.41
302.736
303.149
303.689
304.437
305.392
300.169
300.489
300.773
301.006
301.183
301.319
301.432
301.533
301.626
301.711
301.79
301.862
301.925
301.979
302.022
302.055
302.077
302.089
302.09
302.081
302.063
302.039
302.013
301.988
301.973
301.977
302.011
302.092
302.24
302.475
302.806
303.222
303.764
304.514
305.469
300.172
300.499
300.788
301.024
301.203
301.341
301.456
301.559
301.653
301.74
301.82
301.893
301.957
302.012
302.057
302.091
302.114
302.126
302.127
302.119
302.103
302.08
302.054
302.03
302.017
302.022
302.059
302.145
302.298
302.539
302.874
303.293
303.836
304.589
305.544
300.176
300.508
300.802
301.042
301.223
301.363
301.479
301.583
301.679
301.768
301.85
301.924
301.989
302.045
302.09
302.125
302.149
302.162
302.165
302.158
302.142
302.12
302.095
302.073
302.06
302.067
302.108
302.198
302.357
302.603
302.942
303.362
303.907
304.662
305.616
300.179
300.518
300.816
301.06
301.243
301.384
301.502
301.608
301.705
301.796
301.879
301.954
302.021
302.077
302.124
302.159
302.184
302.198
302.202
302.196
302.181
302.16
302.136
302.115
302.104
302.113
302.157
302.251
302.415
302.665
303.009
303.43
303.976
304.732
305.686
300.182
300.527
300.83
301.077
301.262
301.405
301.525
301.632
301.731
301.823
301.907
301.984
302.052
302.109
302.156
302.193
302.218
302.233
302.238
302.233
302.22
302.2
302.177
302.157
302.148
302.159
302.205
302.303
302.472
302.728
303.074
303.497
304.044
304.8
305.754
300.185
300.536
300.844
301.094
301.282
301.426
301.548
301.657
301.757
301.85
301.936
302.014
302.082
302.141
302.189
302.226
302.252
302.268
302.274
302.271
302.259
302.24
302.219
302.2
302.192
302.205
302.254
302.356
302.529
302.789
303.138
303.562
304.109
304.866
305.819
300.188
300.545
300.858
301.111
301.3
301.447
301.57
301.68
301.782
301.877
301.964
302.043
302.113
302.172
302.221
302.259
302.286
302.303
302.31
302.307
302.297
302.28
302.26
302.242
302.236
302.251
302.303
302.408
302.585
302.849
303.201
303.625
304.173
304.93
305.883
300.192
300.554
300.872
301.128
301.319
301.467
301.592
301.704
301.808
301.904
301.992
302.072
302.143
302.203
302.252
302.291
302.319
302.337
302.345
302.344
302.335
302.319
302.3
302.285
302.28
302.297
302.352
302.46
302.641
302.909
303.263
303.687
304.235
304.992
305.944
300.195
300.563
300.886
301.145
301.338
301.487
301.614
301.728
301.833
301.93
302.02
302.101
302.173
302.234
302.284
302.323
302.352
302.371
302.38
302.38
302.372
302.358
302.341
302.327
302.324
302.343
302.4
302.512
302.697
302.968
303.323
303.748
304.295
305.053
306.005
300.198
300.572
300.899
301.162
301.357
301.508
301.636
301.751
301.858
301.957
302.048
302.13
302.203
302.264
302.315
302.355
302.385
302.404
302.414
302.416
302.409
302.397
302.382
302.369
302.368
302.389
302.449
302.564
302.752
303.026
303.383
303.807
304.355
305.112
306.064
300.201
300.58
300.913
301.178
301.375
301.528
301.657
301.775
301.883
301.983
302.076
302.159
302.232
302.295
302.347
302.387
302.417
302.438
302.449
302.451
302.446
302.436
302.422
302.411
302.412
302.436
302.498
302.615
302.807
303.083
303.442
303.866
304.413
305.17
306.121
300.204
300.589
300.926
301.195
301.394
301.548
301.679
301.798
301.908
302.01
302.103
302.188
302.262
302.325
302.378
302.419
302.45
302.471
302.483
302.487
302.483
302.474
302.462
302.453
302.456
302.482
302.546
302.667
302.861
303.14
303.5
303.924
304.47
305.227
306.178
300.207
300.598
300.939
301.211
301.412
301.568
301.701
301.821
301.933
302.036
302.131
302.217
302.292
302.356
302.409
302.45
302.482
302.504
302.517
302.522
302.519
302.512
302.502
302.495
302.5
302.528
302.595
302.718
302.915
303.197
303.557
303.98
304.526
305.283
306.234
300.21
300.607
300.953
301.227
301.43
301.588
301.722
301.844
301.958
302.062
302.159
302.245
302.321
302.386
302.439
302.482
302.514
302.537
302.55
302.556
302.555
302.55
302.542
302.537
302.544
302.574
302.643
302.769
302.969
303.253
303.614
304.037
304.582
305.339
306.289
300.213
300.615
300.966
301.244
301.448
301.607
301.744
301.868
301.982
302.089
302.186
302.274
302.351
302.416
302.47
302.513
302.546
302.569
302.584
302.591
302.591
302.587
302.581
302.578
302.587
302.62
302.692
302.82
303.023
303.309
303.67
304.092
304.637
305.393
306.343
300.216
300.624
300.979
301.26
301.467
301.627
301.765
301.891
302.007
302.115
302.214
302.303
302.38
302.447
302.501
302.545
302.578
302.602
302.617
302.625
302.627
302.624
302.62
302.619
302.631
302.666
302.74
302.871
303.076
303.364
303.726
304.147
304.691
305.447
306.396
300.219
300.633
300.992
301.276
301.485
301.647
301.787
301.914
302.032
302.142
302.242
302.331
302.41
302.477
302.532
302.576
302.61
302.634
302.65
302.659
302.662
302.661
302.659
302.66
302.674
302.711
302.788
302.922
303.129
303.419
303.781
304.201
304.744
305.5
306.449
300.222
300.641
301.006
301.292
301.503
301.667
301.808
301.937
302.057
302.168
302.269
302.36
302.44
302.507
302.563
302.607
302.642
302.667
302.683
302.693
302.698
302.698
302.698
302.701
302.717
302.757
302.836
302.972
303.182
303.473
303.835
304.255
304.797
305.552
306.5
300.226
300.65
301.019
301.308
301.521
301.686
301.83
301.96
302.082
302.194
302.297
302.389
302.469
302.537
302.594
302.639
302.673
302.699
302.716
302.727
302.733
302.735
302.736
302.741
302.759
302.802
302.883
303.022
303.234
303.527
303.889
304.308
304.849
305.603
306.551
300.229
300.659
301.032
301.324
301.539
301.706
301.851
301.984
302.107
302.221
302.325
302.418
302.499
302.568
302.624
302.67
302.705
302.731
302.749
302.761
302.768
302.771
302.774
302.782
302.802
302.846
302.931
303.072
303.286
303.58
303.943
304.36
304.9
305.653
306.601
300.232
300.667
301.045
301.34
301.557
301.726
301.873
302.007
302.132
302.247
302.353
302.447
302.529
302.598
302.655
302.701
302.737
302.763
302.782
302.795
302.803
302.807
302.812
302.822
302.844
302.891
302.977
303.121
303.337
303.633
303.995
304.412
304.95
305.703
306.65
300.235
300.676
301.058
301.356
301.574
301.745
301.894
302.03
302.157
302.274
302.381
302.476
302.559
302.628
302.686
302.732
302.768
302.795
302.815
302.828
302.837
302.843
302.85
302.861
302.886
302.935
303.024
303.17
303.388
303.685
304.047
304.462
305
305.752
306.699
300.238
300.685
301.071
301.372
301.592
301.765
301.915
302.053
302.182
302.301
302.409
302.505
302.588
302.659
302.717
302.763
302.8
302.827
302.848
302.862
302.872
302.879
302.887
302.901
302.928
302.979
303.07
303.218
303.438
303.736
304.098
304.513
305.049
305.8
306.747
300.241
300.693
301.084
301.388
301.61
301.785
301.937
302.077
302.207
302.328
302.437
302.534
302.618
302.689
302.748
302.795
302.831
302.859
302.88
302.895
302.906
302.915
302.925
302.94
302.969
303.023
303.116
303.266
303.488
303.787
304.149
304.562
305.097
305.848
306.794
300.244
300.702
301.097
301.404
301.628
301.804
301.958
302.1
302.232
302.355
302.465
302.564
302.648
302.72
302.779
302.826
302.863
302.891
302.913
302.929
302.941
302.951
302.962
302.979
303.01
303.066
303.162
303.314
303.538
303.838
304.199
304.611
305.144
305.895
306.841
300.247
300.71
301.11
301.42
301.646
301.824
301.98
302.124
302.258
302.382
302.494
302.593
302.679
302.75
302.81
302.857
302.895
302.923
302.945
302.962
302.975
302.986
302.999
303.018
303.051
303.11
303.208
303.362
303.587
303.888
304.249
304.659
305.192
305.942
306.888
300.25
300.719
301.123
301.436
301.664
301.844
302.002
302.148
302.284
302.409
302.523
302.623
302.709
302.781
302.84
302.888
302.926
302.955
302.978
302.995
303.009
303.022
303.036
303.057
303.092
303.153
303.253
303.41
303.636
303.938
304.298
304.707
305.239
305.988
306.935
300.253
300.727
301.136
301.452
301.682
301.864
302.024
302.172
302.309
302.437
302.551
302.652
302.739
302.812
302.872
302.92
302.958
302.987
303.01
303.029
303.043
303.057
303.073
303.096
303.134
303.196
303.299
303.457
303.685
303.987
304.347
304.755
305.285
306.035
306.981
300.256
300.736
301.15
301.468
301.7
301.884
302.046
302.196
302.336
302.464
302.58
302.682
302.77
302.843
302.903
302.951
302.989
303.019
303.043
303.062
303.078
303.093
303.11
303.135
303.174
303.24
303.344
303.505
303.734
304.037
304.396
304.803
305.332
306.081
307.028
300.259
300.745
301.163
301.485
301.718
301.904
302.068
302.22
302.362
302.492
302.61
302.713
302.8
302.874
302.934
302.982
303.021
303.051
303.075
303.095
303.112
303.128
303.147
303.174
303.215
303.283
303.39
303.552
303.783
304.087
304.445
304.85
305.379
306.128
307.075
300.262
300.753
301.176
301.501
301.737
301.925
302.091
302.245
302.389
302.521
302.639
302.743
302.831
302.905
302.965
303.013
303.052
303.083
303.108
303.128
303.146
303.163
303.184
303.213
303.257
303.326
303.436
303.6
303.833
304.136
304.494
304.898
305.425
306.175
307.122
300.265
300.762
301.19
301.518
301.756
301.945
302.114
302.27
302.416
302.549
302.669
302.773
302.862
302.936
302.996
303.045
303.084
303.115
303.14
303.161
303.18
303.198
303.221
303.251
303.298
303.37
303.482
303.648
303.882
304.187
304.543
304.946
305.472
306.222
307.17
300.268
300.771
301.203
301.534
301.774
301.966
302.137
302.295
302.443
302.578
302.699
302.804
302.893
302.967
303.028
303.076
303.115
303.147
303.172
303.194
303.214
303.234
303.258
303.29
303.339
303.414
303.528
303.697
303.932
304.237
304.593
304.994
305.52
306.269
307.218
300.271
300.78
301.217
301.551
301.793
301.987
302.16
302.321
302.471
302.608
302.73
302.835
302.925
302.999
303.059
303.108
303.147
303.179
303.205
303.227
303.247
303.269
303.294
303.329
303.38
303.457
303.574
303.746
303.983
304.288
304.642
305.042
305.567
306.317
307.266
300.274
300.789
301.231
301.568
301.813
302.009
302.184
302.347
302.499
302.637
302.76
302.867
302.956
303.03
303.091
303.139
303.179
303.21
303.237
303.26
303.281
303.304
303.331
303.368
303.421
303.501
303.621
303.795
304.034
304.339
304.692
305.091
305.615
306.365
307.314
300.278
300.799
301.245
301.585
301.832
302.03
302.208
302.373
302.527
302.667
302.792
302.898
302.988
303.062
303.122
303.171
303.21
303.242
303.269
303.293
303.315
303.339
303.368
303.407
303.462
303.545
303.668
303.844
304.085
304.39
304.742
305.14
305.663
306.413
307.363
300.281
300.808
301.26
301.603
301.852
302.053
302.232
302.4
302.556
302.698
302.823
302.93
303.02
303.094
303.154
303.203
303.242
303.274
303.301
303.325
303.349
303.374
303.405
303.445
303.504
303.589
303.715
303.893
304.136
304.442
304.793
305.189
305.711
306.461
307.412
300.284
300.818
301.274
301.621
301.872
302.075
302.257
302.427
302.585
302.729
302.855
302.962
303.052
303.126
303.186
303.234
303.273
303.306
303.333
303.358
303.383
303.409
303.441
303.484
303.545
303.633
303.762
303.943
304.187
304.493
304.843
305.238
305.76
306.51
307.46
300.288
300.827
301.289
301.639
301.893
302.098
302.283
302.455
302.615
302.76
302.887
302.995
303.085
303.158
303.218
303.266
303.305
303.338
303.366
303.391
303.416
303.444
303.478
303.523
303.586
303.677
303.809
303.992
304.238
304.545
304.893
305.287
305.808
306.558
307.509
300.291
300.837
301.304
301.657
301.913
302.121
302.308
302.483
302.646
302.792
302.92
303.028
303.117
303.191
303.25
303.298
303.337
303.369
303.398
303.424
303.45
303.479
303.514
303.561
303.627
303.721
303.856
304.042
304.29
304.597
304.944
305.336
305.856
306.606
307.557
300.295
300.847
301.319
301.676
301.934
302.144
302.334
302.512
302.677
302.824
302.952
303.061
303.15
303.223
303.282
303.33
303.368
303.401
303.43
303.456
303.483
303.514
303.551
303.6
303.668
303.765
303.902
304.091
304.341
304.648
304.994
305.384
305.904
306.654
307.605
300.298
300.857
301.335
301.695
301.956
302.168
302.361
302.541
302.708
302.857
302.986
303.094
303.183
303.256
303.314
303.361
303.4
303.433
303.462
303.489
303.517
303.549
303.587
303.639
303.709
303.809
303.949
304.141
304.392
304.7
305.044
305.433
305.953
306.702
307.653
300.302
300.868
301.351
301.714
301.977
302.192
302.388
302.571
302.74
302.89
303.02
303.128
303.217
303.289
303.347
303.393
303.432
303.465
303.494
303.522
303.551
303.583
303.624
303.677
303.75
303.853
303.996
304.19
304.443
304.751
305.094
305.482
306
306.75
307.7
300.305
300.878
301.367
301.733
301.999
302.217
302.416
302.601
302.772
302.924
303.054
303.162
303.25
303.322
303.379
303.425
303.464
303.497
303.526
303.554
303.584
303.618
303.66
303.716
303.791
303.897
304.043
304.24
304.494
304.802
305.144
305.53
306.048
306.797
307.748
300.309
300.889
301.383
301.753
302.021
302.242
302.444
302.632
302.805
302.958
303.088
303.196
303.284
303.355
303.412
303.458
303.496
303.528
303.558
303.587
303.618
303.653
303.697
303.754
303.832
303.941
304.089
304.289
304.545
304.852
305.193
305.578
306.095
306.844
307.795
300.313
300.9
301.399
301.772
302.044
302.267
302.472
302.664
302.838
302.992
303.123
303.231
303.318
303.388
303.444
303.49
303.528
303.56
303.59
303.62
303.651
303.688
303.733
303.792
303.873
303.984
304.136
304.338
304.596
304.903
305.242
305.626
306.143
306.891
307.841
300.317
300.911
301.416
301.793
302.067
302.293
302.501
302.695
302.872
303.027
303.158
303.266
303.352
303.422
303.477
303.522
303.56
303.592
303.622
303.652
303.685
303.722
303.769
303.831
303.914
304.028
304.182
304.387
304.646
304.953
305.29
305.673
306.189
306.937
307.887
300.321
300.922
301.433
301.813
302.09
302.319
302.531
302.728
302.907
303.063
303.194
303.301
303.387
303.455
303.51
303.554
303.592
303.624
303.654
303.685
303.718
303.757
303.805
303.869
303.955
304.071
304.228
304.435
304.696
305.002
305.338
305.72
306.236
306.983
307.933
300.325
300.933
301.449
301.833
302.113
302.346
302.561
302.761
302.942
303.099
303.23
303.336
303.421
303.489
303.543
303.587
303.624
303.656
303.687
303.717
303.751
303.791
303.841
303.907
303.995
304.114
304.274
304.483
304.745
305.051
305.386
305.766
306.281
307.028
307.978
300.329
300.944
301.467
301.854
302.137
302.373
302.591
302.794
302.977
303.135
303.266
303.372
303.456
303.523
303.576
303.619
303.656
303.688
303.719
303.75
303.785
303.826
303.878
303.945
304.036
304.158
304.32
304.532
304.794
305.1
305.433
305.812
306.327
307.073
308.023
300.333
300.955
301.484
301.875
302.161
302.401
302.622
302.829
303.014
303.172
303.303
303.408
303.491
303.557
303.609
303.652
303.688
303.72
303.751
303.783
303.818
303.86
303.913
303.983
304.076
304.2
304.366
304.579
304.843
305.148
305.479
305.857
306.372
307.118
308.066
300.337
300.967
301.502
301.897
302.186
302.429
302.654
302.864
303.051
303.21
303.34
303.444
303.527
303.591
303.643
303.685
303.72
303.752
303.783
303.815
303.851
303.895
303.949
304.021
304.116
304.243
304.411
304.626
304.891
305.195
305.525
305.902
306.416
307.162
308.11
300.341
300.979
301.52
301.919
302.211
302.458
302.687
302.899
303.088
303.248
303.378
303.481
303.562
303.626
303.676
303.717
303.753
303.784
303.815
303.848
303.885
303.929
303.985
304.059
304.156
304.285
304.456
304.673
304.938
305.242
305.57
305.946
306.46
307.204
308.152
300.345
300.991
301.538
301.941
302.237
302.487
302.72
302.936
303.126
303.286
303.416
303.518
303.598
303.66
303.71
303.75
303.785
303.817
303.848
303.88
303.918
303.963
304.021
304.096
304.196
304.328
304.5
304.719
304.985
305.288
305.615
305.99
306.503
307.247
308.194
300.349
301.003
301.556
301.964
302.263
302.517
302.754
302.973
303.165
303.326
303.454
303.556
303.634
303.695
303.744
303.784
303.818
303.849
303.88
303.913
303.951
303.998
304.056
304.133
304.235
304.369
304.544
304.765
305.032
305.334
305.659
306.033
306.545
307.288
308.235
300.353
301.015
301.575
301.987
302.29
302.548
302.789
303.011
303.205
303.365
303.493
303.593
303.671
303.73
303.778
303.817
303.85
303.881
303.912
303.946
303.985
304.032
304.092
304.171
304.275
304.411
304.588
304.81
305.077
305.379
305.703
306.075
306.587
307.33
308.276
300.358
301.028
301.595
302.01
302.317
302.579
302.825
303.05
303.245
303.406
303.533
303.631
303.707
303.766
303.812
303.85
303.883
303.914
303.945
303.979
304.018
304.066
304.128
304.208
304.314
304.452
304.631
304.855
305.122
305.422
305.745
306.116
306.627
307.369
308.315
300.362
301.041
301.614
302.035
302.345
302.612
302.862
303.09
303.286
303.447
303.573
303.67
303.744
303.802
303.847
303.884
303.916
303.947
303.978
304.012
304.051
304.1
304.163
304.245
304.353
304.493
304.674
304.899
305.167
305.466
305.787
306.157
306.668
307.409
308.354
300.367
301.054
301.635
302.06
302.374
302.645
302.9
303.131
303.328
303.489
303.614
303.709
303.782
303.838
303.882
303.918
303.95
303.98
304.01
304.045
304.085
304.135
304.198
304.282
304.391
304.534
304.716
304.943
305.21
305.508
305.828
306.197
306.707
307.447
308.391
300.372
301.068
301.655
302.085
302.404
302.68
302.939
303.173
303.372
303.531
303.655
303.749
303.82
303.874
303.917
303.952
303.983
304.013
304.043
304.078
304.118
304.169
304.234
304.319
304.43
304.574
304.759
304.986
305.254
305.55
305.868
306.236
306.746
307.486
308.429
300.376
301.082
301.677
302.112
302.435
302.716
302.979
303.216
303.416
303.575
303.697
303.789
303.858
303.911
303.952
303.986
304.017
304.046
304.076
304.111
304.152
304.203
304.269
304.355
304.468
304.614
304.8
305.028
305.296
305.591
305.907
306.274
306.783
307.522
308.465
300.381
301.096
301.699
302.139
302.467
302.753
303.021
303.261
303.461
303.619
303.739
303.829
303.897
303.948
303.988
304.021
304.051
304.08
304.11
304.144
304.186
304.238
304.305
304.392
304.507
304.654
304.842
305.071
305.338
305.632
305.947
306.313
306.821
307.559
308.501
300.387
301.111
301.722
302.167
302.5
302.792
303.065
303.307
303.508
303.665
303.783
303.871
303.936
303.985
304.024
304.056
304.085
304.113
304.143
304.178
304.219
304.272
304.34
304.429
304.544
304.694
304.882
305.112
305.378
305.671
305.984
306.349
306.857
307.594
308.536
300.392
301.126
301.745
302.196
302.534
302.832
303.11
303.355
303.556
303.711
303.827
303.913
303.976
304.023
304.06
304.091
304.119
304.147
304.177
304.212
304.254
304.307
304.376
304.466
304.583
304.733
304.923
305.153
305.419
305.711
306.022
306.386
306.893
307.63
308.571
300.397
301.142
301.77
302.226
302.57
302.873
303.156
303.404
303.605
303.758
303.872
303.955
304.016
304.061
304.097
304.127
304.154
304.182
304.211
304.245
304.288
304.341
304.411
304.502
304.62
304.772
304.963
305.193
305.458
305.748
306.058
306.421
306.928
307.664
308.604
300.403
301.158
301.795
302.257
302.606
302.916
303.204
303.454
303.655
303.807
303.918
303.998
304.057
304.1
304.134
304.163
304.19
304.216
304.245
304.28
304.322
304.377
304.447
304.539
304.659
304.812
305.003
305.234
305.498
305.787
306.095
306.458
306.964
307.699
308.639
300.409
301.175
301.821
302.29
302.644
302.961
303.254
303.506
303.706
303.856
303.964
304.042
304.098
304.14
304.172
304.2
304.225
304.251
304.28
304.314
304.357
304.412
304.483
304.576
304.696
304.85
305.042
305.273
305.537
305.823
306.13
306.492
306.997
307.732
308.671
300.415
301.192
301.847
302.323
302.684
303.007
303.305
303.559
303.759
303.906
304.012
304.087
304.14
304.179
304.21
304.236
304.261
304.287
304.315
304.349
304.392
304.447
304.519
304.613
304.735
304.89
305.082
305.313
305.576
305.861
306.167
306.527
307.032
307.766
308.705
300.421
301.21
301.875
302.357
302.725
303.055
303.359
303.614
303.813
303.958
304.06
304.132
304.183
304.22
304.249
304.274
304.297
304.322
304.35
304.384
304.427
304.483
304.555
304.65
304.772
304.928
305.121
305.352
305.613
305.897
306.201
306.56
307.065
307.798
308.737
300.428
301.229
301.904
302.393
302.767
303.104
303.413
303.671
303.868
304.01
304.109
304.178
304.226
304.261
304.288
304.312
304.334
304.358
304.386
304.42
304.463
304.519
304.592
304.688
304.811
304.968
305.161
305.392
305.652
305.934
306.237
306.595
307.099
307.832
308.77
300.434
301.248
301.933
302.43
302.811
303.156
303.47
303.729
303.924
304.063
304.159
304.224
304.269
304.302
304.327
304.35
304.371
304.395
304.422
304.456
304.499
304.555
304.629
304.725
304.849
305.007
305.2
305.43
305.689
305.969
306.27
306.628
307.131
307.864
308.802
300.441
301.268
301.963
302.467
302.856
303.209
303.528
303.788
303.982
304.118
304.21
304.272
304.314
304.344
304.368
304.388
304.409
304.432
304.459
304.493
304.536
304.593
304.667
304.764
304.889
305.047
305.241
305.47
305.728
306.006
306.306
306.663
307.166
307.898
308.835
300.448
301.288
301.995
302.507
302.903
303.263
303.587
303.848
304.04
304.173
304.261
304.319
304.358
304.386
304.408
304.428
304.447
304.469
304.496
304.529
304.573
304.629
304.704
304.802
304.927
305.085
305.279
305.508
305.764
306.041
306.339
306.695
307.197
307.929
308.866
300.456
301.309
302.027
302.547
302.95
303.318
303.648
303.91
304.1
304.229
304.313
304.368
304.404
304.429
304.449
304.467
304.486
304.507
304.533
304.567
304.61
304.668
304.743
304.841
304.967
305.126
305.32
305.548
305.803
306.078
306.374
306.73
307.232
307.963
308.9
300.463
301.331
302.06
302.588
302.999
303.375
303.709
303.972
304.16
304.286
304.366
304.417
304.45
304.473
304.491
304.507
304.525
304.545
304.571
304.604
304.648
304.705
304.781
304.88
305.006
305.165
305.359
305.586
305.839
306.112
306.407
306.761
307.263
307.994
308.931
300.471
301.354
302.094
302.63
303.05
303.434
303.772
304.035
304.221
304.343
304.419
304.467
304.496
304.517
304.533
304.548
304.565
304.584
304.61
304.643
304.686
304.744
304.821
304.92
305.047
305.207
305.4
305.626
305.878
306.15
306.443
306.797
307.298
308.029
308.966
300.479
301.376
302.129
302.674
303.102
303.493
303.836
304.1
304.283
304.401
304.473
304.517
304.543
304.561
304.575
304.589
304.604
304.623
304.648
304.681
304.725
304.783
304.859
304.959
305.087
305.246
305.439
305.664
305.914
306.184
306.476
306.828
307.33
308.06
308.997
300.487
301.4
302.165
302.719
303.155
303.555
303.902
304.166
304.347
304.46
304.528
304.568
304.591
304.606
304.619
304.631
304.645
304.663
304.688
304.72
304.764
304.823
304.9
305
305.129
305.288
305.481
305.705
305.954
306.222
306.512
306.864
307.366
308.095
309.032
300.496
301.425
302.202
302.765
303.21
303.617
303.969
304.233
304.411
304.521
304.584
304.619
304.639
304.652
304.662
304.673
304.686
304.703
304.727
304.76
304.803
304.862
304.94
305.04
305.169
305.328
305.521
305.743
305.99
306.256
306.545
306.896
307.397
308.127
309.063
300.505
301.45
302.241
302.813
303.266
303.682
304.038
304.302
304.477
304.582
304.641
304.672
304.688
304.698
304.706
304.716
304.728
304.745
304.768
304.8
304.844
304.903
304.981
305.083
305.212
305.372
305.564
305.785
306.031
306.295
306.583
306.933
307.434
308.163
309.1
300.514
301.476
302.28
302.862
303.323
303.747
304.108
304.372
304.544
304.645
304.698
304.725
304.738
304.745
304.751
304.759
304.77
304.785
304.808
304.84
304.884
304.944
305.022
305.124
305.253
305.412
305.603
305.824
306.067
306.329
306.616
306.965
307.466
308.195
309.132
300.524
301.503
302.32
302.912
303.382
303.814
304.179
304.444
304.613
304.709
304.757
304.779
304.788
304.793
304.797
304.803
304.812
304.828
304.85
304.882
304.926
304.986
305.065
305.167
305.297
305.457
305.647
305.866
306.108
306.369
306.654
307.004
307.504
308.233
309.17
300.534
301.531
302.361
302.963
303.442
303.882
304.251
304.516
304.682
304.773
304.817
304.834
304.839
304.841
304.842
304.847
304.855
304.87
304.891
304.923
304.967
305.027
305.106
305.209
305.338
305.498
305.688
305.905
306.145
306.404
306.688
307.036
307.536
308.265
309.202
300.543
301.559
302.404
303.015
303.503
303.951
304.325
304.591
304.754
304.84
304.878
304.89
304.891
304.89
304.889
304.892
304.899
304.913
304.934
304.966
305.01
305.071
305.151