/*--------------------------------*- C++ -*----------------------------------*\
| =========                 |                                                 |
| \\      /  F ield         | OpenFOAM: The Open Source CFD Toolbox           |
|  \\    /   O peration     | Version:  v1906                                 |
|   \\  /    A nd           | Web:      www.OpenFOAM.com                      |
|    \\/     M anipulation  |                                                 |
\*---------------------------------------------------------------------------*/
FoamFile
{
    version     2.0;
    format      ascii;
    class       surfaceScalarField;
    location    "2000";
    object      phi;
}
// * * * * * * * * * * * * * * * * * * * * * * * * * * * * * * * * * * * * * //

dimensions      [1 0 -1 0 0 0 0];
oriented        oriented;


internalField   nonuniform List<scalar> 
11200
(
0.00149277
-0.00298547
0.00149277
0.0011136
-0.000583151
0.000962477
0.000386831
5.1276e-05
0.000675574
-0.000274697
0.000415484
0.00024603
-0.000634098
0.000320109
3.92848e-05
-0.000588143
-0.000143732
9.77777e-05
-0.000322113
-0.000303273
3.72568e-05
-0.00010031
-0.000266452
4.46623e-05
0.000135237
-0.000258155
2.26187e-05
0.000405859
-0.000257914
-1.26966e-05
0.000676342
-0.000250272
-2.02011e-05
0.000921744
-0.000234679
-1.07157e-05
0.00114772
-0.000221323
-4.64261e-06
0.00139867
-0.000301509
5.05538e-05
0.00138605
-3.24432e-06
1.58705e-05
0.00112608
0.000332722
-7.27563e-05
0.00062932
0.000394581
0.000102192
-0.000752553
0.000652098
0.000729805
-0.00203277
-0.000168944
0.00144919
-0.00413423
0.00210147
0.00265042
-0.0082863
0.00265042
0.00462751
-0.00527154
0.0027113
0.00487035
-0.00257568
0.00238411
0.00357535
-0.000227129
0.00193763
0.00126205
0.00112001
0.00151342
-0.000455716
0.00068748
0.000886568
-0.000722069
-6.04877e-05
2.35712e-05
-0.00054613
-0.000166136
-0.00027625
-0.000213222
-0.000163284
-0.000427775
0.000177436
-0.000168885
-0.000479683
0.00049986
-0.000156551
-0.000416141
0.000695599
-0.000152203
-0.000278212
0.000723798
-0.000188338
-6.11815e-05
-0.00014892
0.000106578
0.000464635
-0.00215415
0.000919379
0.00108261
-0.00410871
0.0010104
0.00127689
-0.00537787
4.78432e-05
0.00161591
-0.004857
-0.00159672
0.00172795
-0.00264788
-0.00415931
0.00178125
-0.00858536
0.00180324
0.00152182
-0.01133
0.00152183
0.00258951
-0.00813193
0.00179271
0.00307849
-0.00474429
0.00167963
0.00285895
-0.0014176
0.00141001
0.00212164
0.000670727
0.0011866
0.00098659
0.000868567
0.000953964
-0.000177596
0.000427922
0.000675779
-0.00050778
0.000165549
-1.49855e-06
-0.000238831
7.17362e-05
-0.000503968
0.000146335
8.72552e-05
-0.000641305
0.000416203
7.29949e-05
-0.000499411
0.000324696
6.17037e-05
-0.000122398
-0.000434923
0.000133584
0.000437699
-0.00160885
0.000485551
0.000794957
-0.00252816
0.000845651
0.000993038
-0.00333122
0.00064028
0.00117319
-0.00360278
-0.00108127
0.00140067
-0.00292665
-0.00383285
0.00156001
-0.00146842
-0.00711566
0.00149811
-0.0113371
0.00128333
0.000699696
-0.0127293
0.000699696
0.000844787
-0.00955381
0.00127679
0.000819678
-0.00617227
0.00145308
0.00114945
-0.00328237
0.00153499
0.00154192
-0.00121434
0.0014926
0.00146424
-0.000382988
0.00132924
0.000902056
-0.000141675
0.00113178
0.000208754
1.10386e-05
0.000847813
-1.62416e-05
8.00064e-05
0.000216725
0.000305306
0.000161774
-0.000396067
0.000493796
0.000106744
-0.00022224
0.000151325
1.07234e-05
0.000393452
-0.000524555
-6.62516e-05
0.000875717
-0.000945625
-0.0002025
0.00110912
-0.00100084
-0.00041996
0.00132082
-0.000792082
-0.00114837
0.0015799
-0.000680755
-0.00292236
0.00172976
-0.000689331
-0.0054389
0.00161463
-0.000431671
-0.00872354
0.00135021
-0.0126815
0.000912689
0.00017114
-0.0130716
0.000171139
-0.000318481
-0.0101285
0.00106429
-0.000779018
-0.00717002
0.00145828
-0.000892772
-0.00492045
0.00175183
-0.00066457
-0.00335622
0.00191368
-0.000451493
-0.00247084
0.00187477
-0.000349499
-0.00196774
0.00172407
-0.000259564
-0.00160617
0.00152727
-5.16902e-05
-0.00135311
0.00122525
0.000362159
-0.00117226
0.000920184
0.000739511
-0.00125974
0.000989137
0.000965653
-0.00145919
0.00124377
0.00113211
-0.00167852
0.00144582
0.00128901
-0.00197988
0.00162048
0.00149676
-0.0024322
0.00180449
0.00159311
-0.00321735
0.00197263
0.00131218
-0.00458031
0.00193887
0.000809475
-0.00661716
0.00168096
0.000279083
-0.00950764
0.0013145
-0.0130486
0.000646205
-0.00019156
-0.0126885
-0.00019156
-0.00106492
-0.0101831
0.000928005
-0.00174507
-0.00784893
0.00135905
-0.00204791
-0.00622362
0.00160602
-0.00199079
-0.00514708
0.00173374
-0.00172569
-0.00445534
0.00171939
-0.00133602
-0.00399395
0.00163653
-0.000854252
-0.00364134
0.0015534
-0.000321517
-0.00335726
0.00147142
0.000275493
-0.00316338
0.00139411
0.000871065
-0.00324331
0.00138799
0.00143117
-0.0034618
0.0014425
0.00195121
-0.00369523
0.00149666
0.00238887
-0.00398216
0.00156462
0.00268033
-0.00438144
0.00165776
0.00271702
-0.00500038
0.00174633
0.00237626
-0.00596697
0.00172741
0.00167525
-0.00746932
0.00155317
0.000700634
-0.00976117
0.00122814
-0.0127379
0.000389915
-0.000491067
-0.0117064
-0.000491067
-0.00164398
-0.00973728
0.000707059
-0.00250045
-0.00804071
0.00104826
-0.00289204
-0.00699986
0.00116783
-0.00283992
-0.00636394
0.00116474
-0.00247706
-0.00594781
0.00112961
-0.00191017
-0.0056536
0.00109275
-0.00121404
-0.00539579
0.00105832
-0.000473667
-0.0051525
0.00105487
0.000271052
-0.00497089
0.00106278
0.0010174
-0.0050283
0.00103863
0.00176664
-0.00523132
0.00102028
0.00248191
-0.00542719
0.00101669
0.00307967
-0.00562824
0.00104831
0.00347011
-0.00587291
0.00110103
0.00353397
-0.00624334
0.00117909
0.00314359
-0.00681869
0.00124211
0.00228512
-0.00779322
0.00118237
0.0010012
-0.00945984
0.00098259
-0.0117419
5.21039e-06
-0.000927683
-0.00985101
-0.000927684
-0.00233781
-0.00838265
5.55014e-05
-0.00334373
-0.00732969
0.000294904
-0.00377364
-0.00677681
0.00020686
-0.00367077
-0.00648222
1.54107e-05
-0.00317309
-0.00631502
-0.000130471
-0.00240592
-0.00620151
-0.000219252
-0.00149276
-0.00607887
-0.000230078
-0.000559724
-0.00591505
-0.00017049
0.000270389
-0.00574866
-5.23422e-05
0.00113015
-0.00579347
-9.45901e-05
0.00206624
-0.00596648
-0.000200926
0.00298424
-0.00608645
-0.000258742
0.00376455
-0.00616385
-0.000244697
0.00428167
-0.00624045
-0.000149575
0.0044002
-0.00637966
1.77913e-05
0.00397426
-0.00664968
0.000256937
0.00296992
-0.00717737
0.00038849
0.00141549
-0.00823767
0.000332255
-0.00987806
-0.000448349
-0.00172365
-0.00640371
-0.00172365
-0.00342631
-0.00558494
-0.00109505
-0.00448193
-0.00517245
-0.00110162
-0.00486695
-0.00508366
-0.00130814
-0.00468442
-0.00511805
-0.0015467
-0.00405702
-0.00520441
-0.00173802
-0.00310094
-0.00528263
-0.00187496
-0.00194152
-0.00531401
-0.00192426
-0.000734236
-0.00526109
-0.00186125
0.000282832
-0.00513828
-0.00162744
0.00135214
-0.00517513
-0.00168765
0.00255081
-0.00528233
-0.00188283
0.00369867
-0.00530005
-0.00193425
0.00465169
-0.00523934
-0.00187752
0.0052865
-0.00514021
-0.00173505
0.00547185
-0.0050417
-0.00152331
0.00508187
-0.00499785
-0.00126186
0.00400489
-0.00507903
-0.00102136
0.00217769
-0.00549568
-0.000914792
-0.00640575
-0.00129462
-0.00320185
-0.00320185
-0.00530444
-0.00348235
-0.00633628
-0.00414061
-0.00662295
-0.00479698
-0.00631446
-0.00542654
-0.00553204
-0.00598682
-0.00436926
-0.00644541
-0.00289661
-0.00678666
-0.00122769
-0.00693002
0.000315975
-0.00668195
0.00187202
-0.00673118
0.00350003
-0.00691033
0.00494041
-0.00674044
0.00608969
-0.00638862
0.00686462
-0.00591513
0.0071629
-0.00533998
0.00686178
-0.00469673
0.00579732
-0.00401457
0.00359724
-0.0032956
-0.0028085
0.000962477
-0.000583151
0.00111359
0.000999422
-7.37891e-05
0.000999421
0.000750238
9.0317e-05
0.000834484
0.000349474
0.000177281
0.000469512
5.45934e-05
6.07604e-05
0.000273386
-6.1339e-06
-0.000138925
0.000297425
9.07117e-05
-0.000288725
0.000229145
0.000170663
-0.000243086
0.000207807
0.000262737
-0.000234847
0.000165401
0.00038107
-0.000238736
0.000107718
0.000497719
-0.000234719
9.78791e-05
0.000582168
-0.000226646
0.000131489
0.000650172
-0.000240966
0.000168324
0.000732535
-0.000253527
0.000221717
0.000664535
-4.2292e-05
0.000126158
0.000457338
0.000103489
3.09582e-05
0.000152955
5.8579e-05
0.000348008
-0.000726166
0.000854654
0.000754296
-0.00166139
0.000887379
0.00149706
-0.00194612
0.00238621
0.0027113
-0.00527154
0.00462751
0.00448836
-0.00362791
0.00448837
0.00478635
-0.00161968
0.00379612
0.00368252
0.000330167
0.0028886
0.00184499
0.00136635
0.00204538
0.000398832
0.000929519
0.0012643
-0.00013903
-2.14489e-05
0.000294161
-0.000141195
-0.000295698
-0.000221469
-2.61966e-05
-0.000288116
-0.0004895
8.32683e-05
-0.000260569
-0.000567311
0.000124034
-0.000250982
-0.000440641
5.86264e-05
-0.000272552
-0.000166896
-0.000242896
-0.000238869
0.000238247
-0.00117648
0.000229219
0.000915475
-0.00271154
0.0010348
0.00154059
-0.0044034
0.0010774
0.00199484
-0.00550415
0.000156341
0.0026189
-0.0049483
-0.0012386
0.00326537
-0.00274533
-0.00309013
0.0035558
-0.00638511
0.0034969
0.00179271
-0.00813193
0.00258951
0.00306745
-0.0061774
0.00306746
0.00366257
-0.00343099
0.00289583
0.0034248
-0.000408703
0.00238666
0.00270665
0.00134874
0.00192237
0.00176327
0.00132019
0.00150668
0.000783705
0.00064675
0.000987146
0.000177281
0.000101041
0.000208188
1.05395e-05
-5.38619e-05
-0.000571479
-2.85193e-05
-2.89292e-05
-0.000833884
-0.000189642
-2.67042e-05
-0.000562565
-0.000621785
-3.05465e-05
6.77402e-05
-0.00135406
0.000202414
0.000728692
-0.0023112
0.000755217
0.00122611
-0.0032047
0.00133397
0.00158737
-0.00405811
0.00118905
0.00191494
-0.00436913
-0.000466809
0.00233485
-0.00369593
-0.00310909
0.00275729
-0.0019987
-0.00610681
0.00281756
-0.00935196
0.00225147
0.00127679
-0.00955381
0.000844788
0.0019831
-0.00759003
0.0019831
0.0022704
-0.00464607
0.00238086
0.0025214
-0.00146291
0.0023382
0.00253354
0.000720186
0.002109
0.00212895
0.00120538
0.00184864
0.00146019
0.000961039
0.00148626
0.000781139
0.000686328
0.00094158
0.000333788
0.000544429
6.57841e-05
0.000154607
0.000514429
-0.000760246
-0.000103872
0.000516093
-0.000506559
-0.000661033
0.000547553
0.000372513
-0.00131658
0.000700356
0.00103332
-0.0018676
0.000962552
0.0014528
-0.00220755
0.00121666
0.00177809
-0.00231556
0.000806456
0.00207051
-0.00229046
-0.00112781
0.00236566
-0.00205761
-0.00416523
0.00243792
-0.00128303
-0.00763278
0.00210159
-0.010792
0.00106973
0.00106429
-0.0101285
-0.000318482
0.0013312
-0.00812384
0.0013312
0.00118041
-0.00517019
0.00213318
0.00115292
-0.00212072
0.00243712
0.00124661
6.45941e-05
0.00247558
0.00108315
0.000950617
0.002293
0.000718168
0.00107148
0.00197862
0.0003241
0.00107078
0.0015369
0.000153627
0.00106097
0.000879184
0.000326755
0.00107311
0.000188374
0.000484742
0.00108838
0.000258858
0.000309927
0.00107685
0.000889287
-3.5097e-05
0.00108795
0.00140324
-0.000333108
0.00108071
0.00180033
-0.00044637
0.000985512
0.00214889
-0.000440549
0.000309594
0.00246367
-0.000626586
-0.00158103
0.00257814
-0.000945785
-0.00454164
0.00237656
-0.000835448
-0.00814897
0.00172035
-0.0112114
0.000230083
0.000928005
-0.0101831
-0.00106493
0.000881109
-0.00803005
0.000881108
0.000436238
-0.00524
0.00187373
0.000115877
-0.00250368
0.00230934
6.51575e-05
-0.000619483
0.00246853
4.21032e-05
0.000353754
0.00233931
-8.53383e-05
0.00075716
0.00207829
-0.000158732
0.000932468
0.0017651
-4.95714e-05
0.00104484
0.00137838
0.000300744
0.00113149
0.000985418
0.000649671
0.00113661
0.000990834
0.000806943
0.00105349
0.00130859
0.00081942
0.000950917
0.00162121
0.000777227
0.000781182
0.00190634
0.000780796
0.000424846
0.00221486
0.000721101
-0.000396595
0.00251221
0.000350399
-0.00204482
0.0025619
-0.000239588
-0.00465191
0.00225343
-0.0005445
-0.0080223
0.00140638
-0.010975
-0.000390992
0.00070706
-0.00973728
-0.00164398
0.000387981
-0.00739189
0.000387981
-0.000241313
-0.00498206
0.00141961
-0.000598062
-0.00285898
0.00187987
-0.000695354
-0.001371
0.00201354
-0.000602293
-0.000563504
0.0019538
-0.000468428
-0.000103327
0.00181937
-0.000309929
0.000186153
0.00164614
-6.9974e-05
0.000408601
0.00145115
0.000264945
0.000619077
0.00124027
0.000632107
0.000590879
0.0012172
0.00094385
0.00038848
0.00137354
0.00119152
0.000185812
0.00153413
0.00139756
-7.04926e-05
0.00169394
0.00153607
-0.00049219
0.00187955
0.00143337
-0.0012023
0.0020875
0.00101303
-0.00258978
0.00220742
0.000332424
-0.00463254
0.0018436
-0.000217074
-0.00743252
0.000942302
-0.0102146
-0.000972207
5.5501e-05
-0.00838265
-0.00233781
-0.000472125
-0.00633664
-0.000472125
-0.00118978
-0.00444868
0.000479174
-0.00154727
-0.00311021
0.00081557
-0.00161084
-0.00217122
0.000879202
-0.0014283
-0.00165568
0.000779167
-0.00104256
-0.00137387
0.00066555
-0.000584851
-0.00115182
0.00065018
-0.000131226
-0.00093259
0.000717073
0.000289805
-0.000688487
0.000834188
0.000739061
-0.000725655
0.000772685
0.00125956
-0.000966388
0.000633436
0.00177796
-0.00116137
0.000570044
0.00222245
-0.00135491
0.000595215
0.00244178
-0.00160549
0.000744403
0.00236173
-0.00207035
0.000965877
0.00193813
-0.00297476
0.00106551
0.00118217
-0.00432189
0.000833794
0.000323954
-0.00633442
9.23746e-05
-0.00863617
-0.00170283
-0.00109505
-0.00558494
-0.00342631
-0.00220797
-0.00411081
-0.00220797
-0.00297902
-0.00313573
-0.00164353
-0.00323584
-0.0026119
-0.00154964
-0.00304782
-0.00232704
-0.0015789
-0.00259151
-0.00219599
-0.00165402
-0.00191923
-0.0021007
-0.00182042
-0.00114249
-0.00198876
-0.00186407
-0.000358807
-0.00181011
-0.00176741
0.000338032
-0.00151791
-0.00149486
0.00106769
-0.00157705
-0.00156591
0.00187294
-0.00184198
-0.00181249
0.00265314
-0.00198182
-0.001894
0.00332224
-0.00206735
-0.00183418
0.00378629
-0.00214618
-0.00165842
0.00394468
-0.00227281
-0.00147925
0.00363121
-0.00255761
-0.00136554
0.00276004
-0.00308823
-0.00138384
0.00140372
-0.00410022
-0.00179267
-0.00568628
-0.00284079
-0.00348235
-0.00530444
-0.00553776
-0.00553776
-0.0065161
-0.006298
-0.0067655
-0.00715947
-0.0064619
-0.00805718
-0.00573332
-0.0089114
-0.00465501
-0.00962442
-0.00326096
-0.0101695
-0.00157324
-0.0104278
0.000380791
-0.0101539
0.0022796
-0.010207
0.00390468
-0.0103774
0.00525315
-0.0100707
0.00629616
-0.00949899
0.0069904
-0.00875555
0.0072544
-0.00787679
0.00695446
-0.0069544
0.00589863
-0.00604697
0.00370846
-0.00520565
-0.00478632
0.000675574
5.12758e-05
0.00038683
0.000834484
9.03168e-05
0.000750238
0.000760429
0.000148127
0.000760428
0.000579949
9.37384e-05
0.000556247
0.000409101
-3.46469e-05
0.000478862
0.000432043
-0.000248688
0.000523164
0.000495376
-0.000347603
0.000513421
0.000455412
-0.000252541
0.000500321
0.000399005
-0.000232271
0.000454087
0.000347181
-0.000236915
0.000396468
0.000283477
-0.000232328
0.00039392
0.000199023
-0.000229489
0.000445439
0.000161819
-0.000255966
0.000461497
0.000190396
-0.00025403
0.00044717
0.000100275
-0.000117583
0.000333861
-6.65316e-05
-4.53414e-05
0.000243107
-8.2922e-05
-2.37013e-05
0.000388102
-0.000249119
0.000434385
0.000486132
-0.00076063
0.0014648
0.000543808
0.00094074
0.000684863
0.00238411
-0.00257568
0.00487035
0.00379612
-0.00161968
0.00478635
0.00401438
-0.000288383
0.00401438
0.00303386
0.00107984
0.00288302
0.00159851
0.00153029
0.00191582
0.000613395
0.000828177
0.00117256
0.000232013
-0.000107834
0.000435776
0.000159822
-0.000396658
-5.15617e-06
9.26616e-05
-0.000344445
-0.000310161
-2.90193e-05
-0.000294882
-0.00038766
-0.000209997
-0.000291687
-0.000200301
-0.000386163
-0.00033809
0.000117873
-0.000653098
-0.000268127
0.000517344
-0.00135629
0.000268355
0.00109629
-0.00264001
0.00103559
0.00167114
-0.00407562
0.00112374
0.00226137
-0.00495917
0.00036287
0.00311588
-0.00461304
-0.000789975
0.0041436
-0.00270886
-0.00178427
0.00490068
-0.00334691
0.00507569
0.00167963
-0.00474429
0.00307849
0.00289583
-0.00343099
0.00366257
0.00346573
-0.0014282
0.00346574
0.00330135
0.00076215
0.00286874
0.00269111
0.00178338
0.00227953
0.00183816
0.00144159
0.00174623
0.00100042
0.000614534
0.00110252
0.000467567
-2.08614e-06
0.000346475
0.000135336
-0.000204895
-0.000378797
-0.000200164
-0.000138337
-0.000654928
-0.000603728
-0.000134164
-0.000316522
-0.00105179
-0.000133069
0.000310779
-0.00171282
0.000184147
0.000937452
-0.00256987
0.000867931
0.00148358
-0.00342086
0.00154506
0.00192888
-0.00421642
0.00145961
0.00237464
-0.00446446
-1.47424e-05
0.0029605
-0.00385217
-0.00217184
0.00352686
-0.00219671
-0.00433522
0.00371304
-0.00633824
0.0030461
0.00145308
-0.00617227
0.000819678
0.00238086
-0.00464607
0.0022704
0.00295
-0.00256648
0.00295
0.00320399
-7.28997e-05
0.00291926
0.00298948
0.00152843
0.00257848
0.00241611
0.00170001
0.00216359
0.00166574
0.00118473
0.00166644
0.000937283
0.000663355
0.00100459
0.000404874
0.00034694
4.63572e-05
-4.52769e-05
0.000228374
-0.000676808
-0.000563416
0.000222135
-0.00034472
-0.00118733
0.000359713
0.000503646
-0.00186545
0.000692135
0.00120345
-0.00248027
0.00125419
0.00168136
-0.00297077
0.00176205
0.0020516
-0.00324235
0.00143694
0.00236476
-0.00322415
-0.000342167
0.00267489
-0.00273957
-0.00303469
0.00281619
-0.00163995
-0.00567489
0.00234164
-0.00784054
0.000932079
0.00145828
-0.00717001
-0.000779019
0.00213318
-0.00517019
0.00118041
0.00236963
-0.00303938
0.00236963
0.00249597
-0.000593059
0.00283094
0.00242234
0.00127643
0.00280122
0.00202556
0.00185542
0.00253437
0.00141482
0.00165305
0.00212103
0.00077942
0.00129141
0.00154424
0.000347335
0.000996081
0.000662128
0.000230362
0.000811654
-0.000277934
4.30043e-05
0.000821428
-0.000153082
-0.000444323
0.000985999
0.000750325
-0.00104607
0.0012398
0.00145733
-0.00153817
0.00161218
0.00193443
-0.00184013
0.00191388
0.00229902
-0.00197356
0.00144545
0.00258859
-0.00204091
-0.000436637
0.00273995
-0.00196033
-0.00324842
0.00250971
-0.00134029
-0.00612681
0.00155224
-0.00855504
-0.000395705
0.00135905
-0.00784893
-0.00174507
0.00187373
-0.00524
0.000436237
0.00185875
-0.00300944
0.00185875
0.00170264
-0.000672389
0.00254479
0.00156922
0.00112235
0.00275601
0.00129035
0.00186012
0.00261348
0.000873121
0.00185725
0.00229131
0.000449066
0.00164218
0.00183839
0.000202076
0.001436
0.00118545
0.000247348
0.00132034
0.000431458
0.000328448
0.00133808
0.000393083
0.000136529
0.00142803
0.00105847
-0.000212809
0.0015788
0.00163155
-0.000529202
0.00178306
0.00205185
-0.000723554
0.00191492
0.00240818
-0.000880315
0.00140932
0.0027051
-0.00114336
-0.000372706
0.00276101
-0.00137647
-0.00305696
0.00229507
-0.00109753
-0.00602429
0.00102491
-0.00883939
-0.00120417
0.00104826
-0.00804072
-0.00250045
0.00141961
-0.00498206
-0.000241314
0.00128366
-0.00273754
0.00128366
0.000982161
-0.000514467
0.00202345
0.00078999
0.00101979
0.00230827
0.000650757
0.00167235
0.0022808
0.000481741
0.00174622
0.00209941
0.000298048
0.00163878
0.00183322
0.000191993
0.00152846
0.00146474
0.000248686
0.00149116
0.00101275
0.000384088
0.00150074
0.000919131
0.000385087
0.00151717
0.00128339
0.000297372
0.00158067
0.00161997
0.00021784
0.00166435
0.00189218
0.000162145
0.00167682
0.00217333
-1.64379e-05
0.00122458
0.00245081
-0.000378371
-0.000283362
0.00248
-0.000795426
-0.00268928
0.00189297
-0.000749782
-0.00551747
0.00038984
-0.00867039
-0.00189099
0.000294905
-0.00732969
-0.00334373
0.000479174
-0.00444868
-0.00118978
0.000210226
-0.00219965
0.000210225
8.50628e-05
-0.000549403
0.000975666
6.25137e-05
0.000601911
0.00131962
9.21639e-05
0.00111184
0.00131003
0.000137663
0.00116578
0.00120049
0.000191973
0.00113104
0.0011036
0.000257696
0.00115311
0.0010267
0.000300058
0.00133773
0.000945253
0.000402692
0.00132132
0.000849471
0.000581126
0.00111098
0.000861187
0.000721572
0.00105748
0.000952782
0.00084068
0.0010596
0.00108085
0.00093471
0.00102927
0.00129792
0.000954001
0.000629244
0.00154192
0.000682992
-0.000501725
0.00155488
0.000131766
-0.0021782
0.000873937
3.08178e-05
-0.0046981
-0.000626041
-0.00763078
-0.00271163
-0.00110162
-0.00517245
-0.00448193
-0.00164353
-0.00313573
-0.00297902
-0.00184878
-0.00178914
-0.00184878
-0.00168382
-0.000952896
-0.00131111
-0.00114935
-0.000347658
-0.00116381
-0.00060327
-2.67368e-05
-0.00106152
-0.000182331
7.63323e-05
-0.00115191
0.000110353
0.000184234
-0.00120994
0.00029272
0.000363361
-0.00116003
0.000409949
0.000718602
-0.000992962
0.000578593
0.000651897
-0.00106513
0.00082738
0.000312649
-0.00126295
0.00114543
0.000150402
-0.00130498
0.0015619
3.16272e-05
-0.00122268
0.00205896
-6.48123e-05
-0.0010614
0.00250774
-0.00035371
-0.000945082
0.00252436
-0.000963443
-0.000920446
0.0021751
-0.00179926
-0.00141352
0.00132623
-0.00318523
-0.00245666
-0.00527066
-0.00387469
-0.00414061
-0.00633628
-0.006298
-0.0065161
-0.00719257
-0.00719257
-0.00731864
-0.0079863
-0.00690686
-0.00881662
-0.00611412
-0.00973087
-0.00503144
-0.0106308
-0.00361727
-0.0113994
-0.00182219
-0.0118596
0.00042613
-0.0116836
0.00258844
-0.0117175
0.00430297
-0.0117793
0.00565102
-0.0112684
0.00666112
-0.0104775
0.00738539
-0.00954464
0.00773957
-0.00858468
0.0075399
-0.00771817
0.00655247
-0.0068588
0.00427288
-0.00611129
-0.0057841
0.00024603
0.000415484
-0.000274699
0.000469512
0.000177281
0.000349473
0.000556247
9.37384e-05
0.000579948
0.000558641
-4.80511e-06
0.00055864
0.00058201
-0.000164779
0.000620257
0.000740425
-0.000388286
0.000753032
0.000806418
-0.00037393
0.000821365
0.000703448
-0.00026076
0.000864056
0.00052037
-0.000229767
0.000866938
0.000294262
-0.000232709
0.000855293
4.22192e-05
-0.000232878
0.000878849
-0.000176261
-0.000232052
0.000895976
-0.000276324
-0.000274139
0.000835701
-0.000248649
-0.000328622
0.000748118
-0.000271125
-0.000232738
0.000589075
-0.000350279
-0.000129572
0.000451835
-0.000350934
-6.46837e-05
0.000453442
-0.000333809
2.06196e-05
0.000448394
-0.000392315
0.000430837
0.000171508
0.000691388
-0.000398809
0.00193763
-0.000227127
0.00357535
0.00288859
0.000330168
0.00368252
0.00288302
0.00107984
0.00303386
0.00209514
0.00157097
0.00209514
0.00111741
0.00135863
0.00137017
0.000604331
0.000394957
0.000902413
0.000492246
-0.000336047
0.000509982
0.000415182
-0.000469581
0.000280732
0.000186871
-0.000374076
6.24647e-05
-0.000137315
-0.000317743
2.15631e-05
-0.00047063
-0.000313815
0.000213954
-0.00065352
-0.000385006
0.000453719
-0.000769219
-0.000346281
0.000705187
-0.0012033
0.000124762
0.00107698
-0.00214579
0.000883155
0.00149775
-0.00326929
0.00120379
0.0020515
-0.00397856
0.000815165
0.00294531
-0.0037692
-7.64157e-05
0.00403127
-0.00240677
-0.000887672
0.00485675
-0.00173746
0.00509777
0.00141001
-0.0014176
0.00285895
0.00238666
-0.000408701
0.0034248
0.00286873
0.000762151
0.00330135
0.0027804
0.00174765
0.0027804
0.00231672
0.00187929
0.00222256
0.00159961
0.0012062
0.0016521
0.000972866
0.000336132
0.0010571
0.000570377
-0.000203587
0.000482971
0.000177381
-0.000289879
-6.99971e-05
-0.00033066
-0.000187582
-0.000277048
-0.000825547
-0.000192615
5.71651e-05
-0.00123219
-0.000212521
0.000544933
-0.00176208
8.89634e-05
0.0010321
-0.00246454
0.000787209
0.0015236
-0.00316898
0.00152299
0.00199349
-0.00377993
0.00171341
0.00247598
-0.00394919
0.000866943
0.00307798
-0.00339813
-0.000749948
0.00364934
-0.00203643
-0.00233766
0.00380133
-0.00381669
0.0030889
0.00153499
-0.00328236
0.00114945
0.0023382
-0.00146291
0.0025214
0.00291925
-7.28991e-05
0.003204
0.00313722
0.00131172
0.00313722
0.00289887
0.00195526
0.00274086
0.00232983
0.00169213
0.0022467
0.00160233
0.00103351
0.00169656
0.000929744
0.000449636
0.00102396
0.000354022
0.000149843
0.000182356
-0.000246158
9.82876e-05
-0.000362499
-0.000901356
9.80133e-05
1.98472e-05
-0.00152299
0.000196011
0.000716743
-0.00215217
0.00058072
0.00134088
-0.00274651
0.00124673
0.00181618
-0.00325516
0.0018807
0.00220254
-0.00353778
0.00181458
0.00254621
-0.00341841
0.000580333
0.00284213
-0.00281823
-0.00140085
0.00286691
-0.00172309
-0.00327791
0.00218675
-0.00526828
0.000660578
0.00175183
-0.00492045
-0.000892772
0.00243712
-0.00212071
0.00115292
0.00283094
-0.000593058
0.00249597
0.00302049
0.00093262
0.00302049
0.00288256
0.00192934
0.00296507
0.00241899
0.00204663
0.00264345
0.00176194
0.00162558
0.00218601
0.0010766
0.00110704
0.00157218
0.000514471
0.000704518
0.000669576
3.34413e-05
0.000487572
-0.000186191
-0.000534473
0.00046194
5.09028e-05
-0.00116896
0.000678555
0.000902266
-0.00180232
0.00107902
0.00159239
-0.00233875
0.00165643
0.00206115
-0.00270677
0.00214826
0.00239947
-0.00285265
0.00191335
0.0026357
-0.00273043
0.000499324
0.00269874
-0.00233405
-0.00160443
0.0023169
-0.00153426
-0.00367604
0.00115058
-0.00640349
-0.000794752
0.00160602
-0.00622362
-0.00204791
0.00230934
-0.00250368
0.000115877
0.00254478
-0.000672387
0.00170264
0.00257381
0.000874576
0.00257381
0.00244195
0.0019681
0.00284909
0.00209394
0.00227277
0.00273535
0.00157898
0.00202231
0.00240954
0.00100792
0.00160852
0.00190796
0.000516782
0.00122638
0.00115473
0.000180359
0.000961302
0.000294149
-0.0001733
0.000907149
0.00030153
-0.000672094
0.00113616
0.00109966
-0.00119503
0.00148587
0.00174763
-0.001608
0.00193761
0.00218364
-0.00185672
0.00231517
0.00248998
-0.00196394
0.00205423
0.00267144
-0.00197792
0.000686594
0.00258772
-0.00183646
-0.00140103
0.00195021
-0.00127407
-0.0037447
0.000531181
-0.00724485
-0.00163687
0.00116783
-0.00699986
-0.00289204
0.00187987
-0.00285898
-0.000598062
0.00202345
-0.000514466
0.00098216
0.00192719
0.00106709
0.00192719
0.00182822
0.00198339
0.00239196
0.00165885
0.0022532
0.00246973
0.00138527
0.00206747
0.00232784
0.0010255
0.00176125
0.00204026
0.000634945
0.00149892
0.00158275
0.00028385
0.00133781
0.000987337
-3.52154e-05
0.00127819
0.000867149
-0.000394427
0.00138345
0.00139531
-0.000719025
0.00160139
0.00182905
-0.000916893
0.00190766
0.00212
-0.0009836
0.0022112
0.00234401
-0.00101112
0.00205281
0.00247976
-0.00116715
0.00099125
0.00233137
-0.00122079
-0.00105809
0.00160366
-0.000829037
-0.00365724
-8.93775e-05
-0.00760806
-0.00235682
0.000206859
-0.00677681
-0.00377365
0.000815571
-0.00311021
-0.00154727
0.000975668
-0.000549402
8.50618e-05
0.000986589
0.00104524
0.000986587
0.00105836
0.00174577
0.00148547
0.00112796
0.00186246
0.00163115
0.00111981
0.00168127
0.00159483
0.00101335
0.00148766
0.00148366
0.00080057
0.0014038
0.00133458
0.000415066
0.00152891
0.00113965
5.62353e-05
0.00148018
0.00100631
-0.000136874
0.00130397
0.00113377
-0.000240266
0.0013461
0.00131146
-0.000234807
0.00150733
0.00147572
-0.000116057
0.00173959
0.00165078
-2.69769e-05
0.00172642
0.00177922
1.14303e-05
0.000910489
0.00159723
-0.000165717
-0.000798623
0.000791619
9.76881e-05
-0.00347283
-0.00107385
-0.00704951
-0.00317249
-0.00130814
-0.00508366
-0.00486695
-0.00154964
-0.0026119
-0.00323584
-0.00131111
-0.000952896
-0.00168382
-0.000866175
0.000155371
-0.000866176
-0.000338785
0.000550683
-0.000496112
0.000188671
0.000661854
-0.000388376
0.000534867
0.000684095
-0.00050094
0.00069475
0.000773146
-0.000655318
0.000694749
0.000991171
-0.0007474
0.000512971
0.00144451
-0.00072678
0.00038248
0.00135322
-0.000807686
0.000385009
0.000909877
-0.000871384
0.000509227
0.000707376
-0.000790481
0.000780224
0.00061918
-0.00060553
0.00123318
0.000602247
-0.000377005
0.00172966
0.000523383
-0.000238526
0.00200093
9.54306e-05
-0.000376666
0.00205395
-0.00102428
-0.00124088
0.00148874
-0.002673
-0.00269128
-0.00515358
-0.00428188
-0.00479698
-0.00662295
-0.00715948
-0.0067655
-0.0079863
-0.00731864
-0.00790862
-0.00790862
-0.00741995
-0.0087546
-0.00667703
-0.00981193
-0.00565713
-0.0109666
-0.00422511
-0.0120583
-0.00223845
-0.012855
0.00047262
-0.0129502
0.00305108
-0.0129427
0.00491317
-0.0127315
0.00624438
-0.0118922
0.00717092
-0.0107848
0.00783318
-0.00960464
0.00826413
-0.00849225
0.00825001
-0.00760862
0.00730715
-0.00694023
0.00485846
-0.00633561
-0.00607921
3.92851e-05
0.000320108
-0.0006341
0.000273386
6.07604e-05
5.45921e-05
0.000478863
-3.46469e-05
0.000409099
0.000620258
-0.000164778
0.000582009
0.00080433
-0.000368151
0.000804329
0.00101592
-0.000482284
0.00102373
0.00105499
-0.00036471
0.00114701
0.000911684
-0.000258722
0.00126609
0.000628434
-0.000230229
0.00138042
0.000226358
-0.000235332
0.00149271
-0.000195066
-0.000239124
0.0015394
-0.000502336
-0.000235275
0.00143852
-0.000642331
-0.000282042
0.00125774
-0.000587758
-0.000378805
0.00107235
-0.000483063
-0.000352149
0.000836529
-0.000423229
-0.000226207
0.00061821
-0.000344156
-0.000130022
0.000504393
-0.000248733
-6.56319e-05
0.000418603
-0.000177076
-1.33314e-05
0.000113179
0.000102586
-0.000678459
0.00151342
0.00112002
0.00126205
0.00204538
0.00136635
0.00184499
0.00191582
0.00153029
0.00159851
0.00137017
0.00135863
0.00111741
0.000855452
0.000661296
0.000855452
0.000672233
-0.000138956
0.000742311
0.000694364
-0.000552176
0.000675321
0.000589967
-0.000492818
0.000619227
0.000255279
-0.000373796
0.000540723
-0.000226905
-0.000320795
0.000589212
-0.000658588
-0.00032305
0.000729566
-0.000853755
-0.000409231
0.000822843
-0.000868757
-0.000445238
0.000883385
-0.00102679
-0.000136494
0.000992703
-0.0015491
0.000506886
0.00116103
-0.00229896
0.00109414
0.00148102
-0.00281625
0.00118725
0.00214532
-0.00270765
0.000844141
0.00301289
-0.0018293
0.000325461
0.0036396
-0.00020959
0.00358064
0.0011866
0.00067073
0.00212164
0.00192237
0.00134874
0.00270665
0.00227953
0.00178338
0.00269112
0.00222256
0.0018793
0.00231672
0.00183166
0.00144311
0.00183166
0.00130719
0.000672675
0.00136494
0.000880421
-3.4533e-05
0.00096622
0.000596314
-0.000366278
0.00064054
0.000168448
-0.000328081
0.000312154
-0.000451031
-0.000212022
0.000233658
-0.000958634
-0.000242142
0.00048386
-0.00129425
-0.000301094
0.000772413
-0.0016649
-9.14051e-05
0.00104892
-0.00215837
0.000507578
0.00137301
-0.00268664
0.00126206
0.00176659
-0.00309178
0.00176247
0.00221278
-0.00317054
0.00161853
0.00272547
-0.00272889
0.000858659
0.00319317
-0.00170115
-0.000170082
0.00326914
-0.00140752
0.00258568
0.00149259
-0.00121433
0.00154192
0.002109
0.000720187
0.00253354
0.00257848
0.00152843
0.00298948
0.00274086
0.00195526
0.00289887
0.00252194
0.00188096
0.00252194
0.00202447
0.00136061
0.00205624
0.001401
0.000723635
0.00156187
0.000819893
0.000220436
0.00101835
0.000251147
1.80727e-05
0.000404947
-0.000430717
1.8504e-05
8.8838e-05