/*--------------------------------*- C++ -*----------------------------------*\
| =========                 |                                                 |
| \\      /  F ield         | OpenFOAM: The Open Source CFD Toolbox           |
|  \\    /   O peration     | Version:  v1912                                 |
|   \\  /    A nd           | Website:  www.openfoam.com                      |
|    \\/     M anipulation  |                                                 |
\*---------------------------------------------------------------------------*/
FoamFile
{
    version     2.0;
    format      ascii;
    class       surfaceScalarField;
    location    "324/oil";
    object      phi;
}
// * * * * * * * * * * * * * * * * * * * * * * * * * * * * * * * * * * * * * //

dimensions      [1 0 -1 0 0 0 0];
oriented        oriented;


internalField   nonuniform List<scalar> 
104676
(
-1.20179e-11
2.77342e-11
-1.52772e-11
2.79968e-10
-2.29962e-10
-6.20332e-11
8.77222e-10
-4.31471e-10
-1.65769e-10
1.68743e-09
-5.26454e-10
-2.83748e-10
2.59155e-09
-5.38297e-10
-3.65822e-10
3.47063e-09
-4.89518e-10
-3.89555e-10
4.21729e-09
-3.97841e-10
-3.48807e-10
4.74176e-09
-2.76428e-10
-2.48034e-10
4.97414e-09
-1.35467e-10
-9.68914e-11
4.87631e-09
1.23336e-11
8.55043e-11
4.42977e-09
1.65072e-10
2.81478e-10
3.66542e-09
2.89704e-10
4.74643e-10
2.62324e-09
4.0296e-10
6.39229e-10
1.37805e-09
4.84999e-10
7.60193e-10
2.51649e-11
5.28349e-10
8.2454e-10
-1.33192e-09
5.30685e-10
8.26404e-10
-2.58043e-09
4.85413e-10
7.63113e-10
-3.62669e-09
4.02577e-10
6.43696e-10
-4.39833e-09
2.91388e-10
4.80261e-10
-4.85029e-09
1.61482e-10
2.90485e-10
-4.96e-09
1.3426e-11
9.62931e-11
-4.73267e-09
-1.38297e-10
-8.9018e-11
-4.21234e-09
-2.78716e-10
-2.41608e-10
-3.46877e-09
-3.99972e-10
-3.43578e-10
-2.59222e-09
-4.91243e-10
-3.85296e-10
-1.6899e-09
-5.40959e-10
-3.61358e-10
-8.80249e-10
-5.30487e-10
-2.79154e-10
-2.82687e-10
-4.36108e-10
-1.61447e-10
1.01703e-11
-2.3414e-10
-5.8708e-11
2.33765e-11
-1.31999e-11
2.86237e-10
-5.44736e-10
2.86229e-10
1.10516e-09
-1.63699e-09
5.88109e-10
2.40632e-09
-2.46107e-09
7.28456e-10
4.04501e-09
-2.96323e-09
7.98098e-10
5.82419e-09
-3.20403e-09
8.86557e-10
7.5317e-09
-3.24267e-09
1.04565e-09
8.96707e-09
-3.12984e-09
1.29665e-09
9.95681e-09
-2.90552e-09
1.63937e-09
1.03657e-08
-2.60323e-09
2.05886e-09
1.01072e-08
-2.25317e-09
2.52402e-09
9.141e-09
-1.88487e-09
3.01618e-09
7.52041e-09
-1.56235e-09
3.47266e-09
5.36658e-09
-1.27869e-09
3.83549e-09
2.81599e-09
-1.07349e-09
4.10908e-09
5.07983e-11
-9.66171e-10
4.25972e-09
-2.72504e-09
-9.66844e-10
4.27338e-09
-5.28235e-09
-1.07851e-09
4.12125e-09
-7.43786e-09
-1.28734e-09
3.84544e-09
-9.04466e-09
-1.57161e-09
3.46981e-09
-1.00133e-08
-1.90032e-09
3.03042e-09
-1.02866e-08
-2.26358e-09
2.55039e-09
-9.89098e-09
-2.6111e-09
2.07716e-09
-8.9175e-09
-2.91042e-09
1.65824e-09
-7.49967e-09
-3.13377e-09
1.31598e-09
-5.80657e-09
-3.2476e-09
1.06327e-09
-4.04022e-09
-3.21061e-09
9.03307e-10
-2.40959e-09
-2.97417e-09
8.13064e-10
-1.10933e-09
-2.47545e-09
7.39091e-10
-2.87643e-10
-1.64871e-09
5.92892e-10
-5.50881e-10
2.8662e-10
6.02547e-10
-1.75557e-09
6.08305e-10
1.91544e-09
-4.25145e-09
1.30158e-09
3.75705e-09
-6.03564e-09
1.73297e-09
5.9463e-09
-7.20008e-09
2.0476e-09
8.25657e-09
-7.86938e-09
2.35509e-09
1.04383e-08
-8.14677e-09
2.72235e-09
1.22478e-08
-8.12112e-09
3.18183e-09
1.34689e-08
-7.86572e-09
3.73907e-09
1.39332e-08
-7.44723e-09
4.37979e-09
1.35326e-08
-6.92165e-09
5.06901e-09
1.22146e-08
-6.34975e-09
5.78299e-09
1.00347e-08
-5.80909e-09
6.42661e-09
7.15087e-09
-5.335e-09
6.94014e-09
3.74908e-09
-4.98889e-09
7.3172e-09
6.52914e-11
-4.81049e-09
7.52811e-09
-3.63598e-09
-4.81902e-09
7.55347e-09
-7.04805e-09
-5.00076e-09
7.33434e-09
-9.93183e-09
-5.34882e-09
6.94529e-09
-1.20985e-08
-5.81944e-09
6.41449e-09
-1.34331e-08
-6.36482e-09
5.79916e-09
-1.38552e-08
-6.93541e-09
5.09396e-09
-1.34068e-08
-7.45706e-09
4.39753e-09
-1.22023e-08
-7.87339e-09
3.75852e-09
-1.04103e-08
-8.12689e-09
3.20115e-09
-8.24464e-09
-8.15397e-09
2.7407e-09
-5.94532e-09
-7.88131e-09
2.3714e-09
-3.76321e-09
-7.21684e-09
2.06057e-09
-1.92287e-09
-6.05597e-09
1.74019e-09
-6.06117e-10
-4.2673e-09
1.30185e-09
-1.76413e-09
6.07141e-10
8.64204e-10
-3.49448e-09
8.74717e-10
2.59276e-09
-7.86711e-09
1.88711e-09
4.8726e-09
-1.08678e-08
2.5523e-09
7.48116e-09
-1.28736e-08
3.065e-09
1.01691e-08
-1.41137e-08
3.55635e-09
1.26679e-08
-1.47458e-08
4.10028e-09
1.47137e-08
-1.49014e-08
4.73449e-09
1.60703e-08
-1.46889e-08
5.46663e-09
1.65461e-08
-1.42071e-08
6.28409e-09
1.6017e-08
-1.35464e-08
7.15398e-09
1.44208e-08
-1.27982e-08
8.04461e-09
1.18329e-08
-1.20519e-08
8.83074e-09
8.42518e-09
-1.1402e-08
9.4747e-09
4.41398e-09
-1.09011e-08
9.92341e-09
7.37591e-11
-1.0646e-08
1.01757e-08
-4.28965e-09
-1.0664e-08
1.02084e-08
-8.31439e-09
-1.09139e-08
9.93789e-09
-1.1724e-08
-1.14016e-08
9.46234e-09
-1.42999e-08
-1.20549e-08
8.81148e-09
-1.59095e-08
-1.28042e-08
8.04894e-09
-1.64583e-08
-1.35526e-08
7.16608e-09
-1.60001e-08
-1.42117e-08
6.29646e-09
-1.46628e-08
-1.46929e-08
5.48219e-09
-1.26346e-08
-1.49049e-08
4.74977e-09
-1.01529e-08
-1.47519e-08
4.11628e-09
-7.47943e-09
-1.41257e-08
3.5709e-09
-4.87778e-09
-1.28933e-08
3.07481e-09
-2.6001e-09
-1.08869e-08
2.55323e-09
-8.70594e-10
-7.87361e-09
1.87682e-09
-3.50622e-09
8.71502e-10
1.06157e-09
-5.62742e-09
1.07138e-09
3.11096e-09
-1.22316e-08
2.31516e-09
5.73414e-09
-1.66459e-08
3.15495e-09
8.66632e-09
-1.96198e-08
3.81406e-09
1.16374e-08
-2.15281e-08
4.44339e-09
1.43656e-08
-2.25999e-08
5.12589e-09
1.65763e-08
-2.30134e-08
5.90128e-09
1.80206e-08
-2.29136e-08
6.78035e-09
1.84982e-08
-2.24313e-08
7.74664e-09
1.78722e-08
-2.16892e-08
8.76875e-09
1.60765e-08
-2.08132e-08
9.81073e-09
1.31889e-08
-1.99131e-08
1.07488e-08
9.38305e-09
-1.9105e-08
1.15089e-08
4.91279e-09
-1.84487e-08
1.20179e-08
7.93701e-11
-1.81168e-08
1.23043e-08
-4.78122e-09
-1.81415e-08
1.23381e-08
-9.261e-09
-1.84648e-08
1.20307e-08
-1.30616e-08
-1.90817e-08
1.14807e-08
-1.59472e-08
-1.9907e-08
1.07377e-08
-1.77581e-08
-2.08125e-08
9.81925e-09
-1.84042e-08
-2.16896e-08
8.78305e-09
-1.79461e-08
-2.24317e-08
7.76186e-09
-1.65202e-08
-2.2915e-08
6.79626e-09
-1.43264e-08
-2.30157e-08
5.91706e-09
-1.16147e-08
-2.26045e-08
5.1409e-09
-8.65903e-09
-2.15374e-08
4.45605e-09
-5.73738e-09
-1.96359e-08
3.82103e-09
-3.11626e-09
-1.66599e-08
3.15188e-09
-1.06712e-09
-1.22229e-08
2.30011e-09
-5.64187e-09
1.06854e-09
1.19417e-09
-8.02734e-09
1.20576e-09
3.47135e-09
-1.71097e-08
2.60092e-09
6.34409e-09
-2.30795e-08
3.56085e-09
9.51103e-09
-2.71113e-08
4.32457e-09
1.26862e-08
-2.97577e-08
5.05444e-09
1.55791e-08
-3.13362e-08
5.84337e-09
1.79092e-08
-3.20767e-08
6.73332e-09
1.94203e-08
-3.21621e-08
7.73749e-09
1.99048e-08
-3.17534e-08
8.83755e-09
1.9221e-08
-3.10017e-08
9.99635e-09
1.72992e-08
-3.00608e-08
1.11695e-08
1.41926e-08
-2.90822e-08
1.22756e-08
1.00925e-08
-2.81607e-08
1.31558e-08
5.28119e-09
-2.73602e-08
1.37228e-08
7.94133e-11
-2.69422e-08
1.40271e-08
-5.15189e-09
-2.69689e-08
1.40587e-08
-9.96304e-09
-2.73971e-08
1.37435e-08
-1.40495e-08
-2.81154e-08
1.31202e-08
-1.71601e-08
-2.90682e-08
1.22718e-08
-1.91003e-08
-3.00567e-08
1.11844e-08
-1.98067e-08
-3.09982e-08
1.0015e-08
-1.9343e-08
-3.17517e-08
8.85626e-09
-1.78507e-08
-3.21629e-08
7.75563e-09
-1.55378e-08
-3.20789e-08
6.75029e-09
-1.26597e-08
-3.13403e-08
5.85769e-09
-9.49871e-09
-2.97645e-08
5.06615e-09
-6.34333e-09
-2.7121e-08
4.32965e-09
-3.47689e-09
-2.30809e-08
3.5546e-09
-1.20033e-09
-1.70847e-08
2.58524e-09
-8.04644e-09
1.20424e-09
1.26089e-09
-1.05766e-08
1.28837e-09
3.6782e-09
-2.23134e-08
2.78633e-09
6.70827e-09
-2.99189e-08
3.8094e-09
1.00207e-08
-3.50547e-08
4.6309e-09
1.33212e-08
-3.84869e-08
5.42885e-09
1.63161e-08
-4.06282e-08
6.29709e-09
1.87237e-08
-4.17638e-08
7.27949e-09
2.02831e-08
-4.21135e-08
8.39188e-09
2.07835e-08
-4.18666e-08
9.61286e-09
2.00751e-08
-4.1195e-08
1.09017e-08
1.80868e-08
-4.02793e-08
1.22068e-08
1.48365e-08
-3.92958e-08
1.3464e-08
1.05551e-08
-3.83501e-08
1.44707e-08
5.52245e-09
-3.74187e-08
1.50911e-08
8.63878e-11
-3.6922e-08
1.54159e-08
-5.37454e-09
-3.69628e-08
1.54548e-08
-1.04237e-08
-3.74881e-08
1.51402e-08
-1.46897e-08
-3.82955e-08
1.44461e-08
-1.79438e-08
-3.92822e-08
1.34681e-08
-1.99519e-08
-4.02786e-08
1.22301e-08
-2.06828e-08
-4.11949e-08
1.09276e-08
-2.02041e-08
-4.18672e-08
9.63684e-09
-1.86637e-08
-4.21165e-08
8.41321e-09
-1.62735e-08
-4.17687e-08
7.29965e-09
-1.32925e-08
-4.06337e-08
6.31251e-09
-1.00056e-08
-3.84918e-08
5.44043e-09
-6.70553e-09
-3.50546e-08
4.63364e-09
-3.68745e-09
-2.9894e-08
3.79505e-09
-1.27622e-09
-2.22524e-08
2.75655e-09
-1.06076e-08
1.28492e-09
1.28587e-09
-1.31781e-08
1.31566e-09
3.74398e-09
-2.76287e-08
2.8572e-09
6.82601e-09
-3.69114e-08
3.91039e-09
1.01882e-08
-4.31734e-08
4.75647e-09
1.35262e-08
-4.74126e-08
5.58772e-09
1.65513e-08
-5.01624e-08
6.50915e-09
1.8986e-08
-5.17605e-08
7.56203e-09
2.05712e-08
-5.24603e-08
8.76165e-09
2.10915e-08
-5.2474e-08
1.00872e-08
2.03944e-08
-5.1992e-08
1.14941e-08
1.83961e-08
-5.12057e-08
1.29247e-08
1.50961e-08
-5.03151e-08
1.43193e-08
1.07339e-08
-4.94559e-08
1.54681e-08
5.60787e-09
-4.84169e-08
1.61243e-08
8.59153e-11
-4.7886e-08
1.6486e-08
-5.46867e-09
-4.79359e-08
1.65278e-08
-1.06311e-08
-4.84883e-08
1.61628e-08
-1.49592e-08
-4.93979e-08
1.54305e-08
-1.82547e-08
-5.03046e-08
1.43179e-08
-2.02713e-08
-5.12092e-08
1.29473e-08
-2.09916e-08
-5.1995e-08
1.15204e-08
-2.04926e-08
-5.24781e-08
1.0112e-08
-1.89258e-08
-5.24678e-08
8.78445e-09
-1.65074e-08
-5.17707e-08
7.58369e-09
-1.34959e-08
-5.01721e-08
6.52689e-09
-1.01718e-08
-4.74156e-08
5.59966e-09
-6.82689e-09
-4.31505e-08
4.75101e-09
-3.75898e-09
-3.68423e-08
3.88042e-09
-1.29983e-09
-2.75293e-08
2.81774e-09
-1.3222e-08
1.31463e-09
1.26356e-09
-1.57335e-08
1.29181e-09
3.66312e-09
-3.2847e-08
2.8188e-09
6.68219e-09
-4.38123e-08
3.88187e-09
9.98616e-09
-5.12065e-08
4.72915e-09
1.32684e-08
-5.62476e-08
5.55273e-09
1.62391e-08
-5.96166e-08
6.48357e-09
1.86366e-08
-6.17301e-08
7.57204e-09
2.02116e-08
-6.28608e-08
8.82553e-09
2.07489e-08
-6.32324e-08
1.02211e-08
2.00927e-08
-6.30493e-08
1.17135e-08
1.81637e-08
-6.25068e-08
1.32301e-08
1.4947e-08
-6.17979e-08
1.46995e-08
1.06102e-08
-6.10845e-08
1.59653e-08
5.53604e-09
-6.00136e-08
1.66708e-08
8.14131e-11
-5.95281e-08
1.70968e-08
-5.41272e-09
-5.95723e-08
1.71305e-08
-1.05375e-08
-6.00404e-08
1.66769e-08
-1.48345e-08
-6.0996e-08
1.58952e-08
-1.80291e-08
-6.17879e-08
1.4678e-08
-1.99725e-08
-6.25138e-08
1.3248e-08
-2.06499e-08
-6.30576e-08
1.174e-08
-2.01334e-08
-6.32414e-08
1.02469e-08
-1.85768e-08
-6.28735e-08
8.84913e-09
-1.6195e-08
-6.17467e-08
7.59416e-09
-1.32392e-08
-5.96266e-08
6.49877e-09
-9.98028e-09
-5.62208e-08
5.54618e-09
-6.6997e-09
-5.11169e-08
4.6858e-09
-3.68886e-09
-4.36704e-08
3.81729e-09
-1.27218e-09
-3.27195e-08
2.77352e-09
-1.57867e-08
1.29253e-09
1.19873e-09
-1.81435e-08
1.21129e-09
3.46366e-09
-3.77584e-08
2.64651e-09
6.28434e-09
-5.03146e-08
3.6816e-09
9.39326e-09
-5.88401e-08
4.52466e-09
1.25072e-08
-6.46864e-08
5.32484e-09
1.53281e-08
-6.86517e-08
6.21422e-09
1.76101e-08
-7.12981e-08
7.28606e-09
1.91235e-08
-7.29173e-08
8.54302e-09
1.96664e-08
-7.37303e-08
9.95502e-09
1.90799e-08
-7.39389e-08
1.14761e-08
1.72881e-08
-7.37372e-08
1.30222e-08
1.42764e-08
-7.32993e-08
1.45131e-08
1.01024e-08
-7.27508e-08
1.58404e-08
5.26783e-09
-7.17855e-08
1.66065e-08
7.5505e-11
-7.13936e-08
1.70578e-08
-5.14723e-09
-7.14353e-08
1.70858e-08
-1.00152e-08
-7.17597e-08
1.65873e-08
-1.41666e-08
-7.25731e-08
1.57285e-08
-1.71625e-08
-7.32752e-08
1.44832e-08
-1.8964e-08
-7.37496e-08
1.30373e-08
-1.9571e-08
-7.39522e-08
1.15017e-08
-1.90491e-08
-7.37434e-08
9.9802e-09
-1.7552e-08
-7.29366e-08
8.56593e-09
-1.52828e-08
-7.13211e-08
7.30519e-09
-1.24847e-08
-6.86381e-08
6.21346e-09
-9.4055e-09
-6.4573e-08
5.27309e-09
-6.30546e-09
-5.86501e-08
4.43321e-09
-3.46672e-09
-5.01077e-08
3.5985e-09
-1.1945e-09
-3.7601e-08
2.60927e-09
-1.81987e-08
1.21745e-09
1.0817e-09
-2.03002e-08
1.07504e-09
3.13258e-09
-4.21275e-08
2.31815e-09
5.66019e-09
-5.6088e-08
3.24583e-09
8.4219e-09
-6.56722e-08
4.07049e-09
1.12226e-08
-7.23304e-08
4.84332e-09
1.37762e-08
-7.6871e-08
5.6657e-09
1.58533e-08
-8.00407e-08
6.66549e-09
1.72474e-08
-8.21756e-08
7.86429e-09
1.77718e-08
-8.34739e-08
9.21922e-09
1.72817e-08
-8.41235e-08
1.06749e-08
1.57214e-08
-8.42962e-08
1.21192e-08
1.30506e-08
-8.41174e-08
1.34889e-08
9.20524e-09
-8.36925e-08
1.4787e-08
4.791e-09
-8.30597e-08
1.56884e-08
6.83228e-11
-8.28303e-08
1.61594e-08
-4.67297e-09
-8.28722e-08
1.61782e-08
-9.06413e-09
-8.30389e-08
1.56703e-08
-1.28395e-08
-8.36046e-08
1.4807e-08
-1.5548e-08
-8.4224e-08
1.36574e-08
-1.71627e-08
-8.43444e-08
1.22094e-08
-1.76787e-08
-8.41435e-08
1.07074e-08
-1.7177e-08
-8.34841e-08
9.23896e-09
-1.57965e-08
-8.21975e-08
7.88047e-09
-1.37274e-08
-8.00649e-08
6.6747e-09
-1.1198e-08
-7.68051e-08
5.63758e-09
-8.42142e-09
-7.20973e-08
4.74767e-09
-5.62424e-09
-6.54036e-08
3.95633e-09
-3.07695e-09
-5.58474e-08
3.1924e-09
-1.05001e-09
-4.19373e-08
2.30944e-09
-2.03313e-08
1.08261e-09
9.11366e-10
-2.20988e-08
8.8719e-10
2.65864e-09
-4.57379e-08
1.86319e-09
4.79424e-09
-6.07869e-08
2.56331e-09
7.11033e-09
-7.12549e-08
3.26658e-09
9.41731e-09
-7.86472e-08
4.00983e-09
1.15599e-08
-8.37893e-08
4.7757e-09
1.3331e-08
-8.74692e-08
5.65745e-09
1.45486e-08
-9.0119e-08
6.72577e-09
1.50436e-08
-9.19067e-08
7.93786e-09
1.46837e-08
-9.29646e-08
9.20107e-09
1.33808e-08
-9.34321e-08
1.04388e-08
1.10535e-08
-9.35405e-08
1.17504e-08
7.80741e-09
-9.34343e-08
1.29879e-08
4.07567e-09
-9.31495e-08
1.38215e-08
5.68933e-11
-9.30568e-08
1.42453e-08
-3.99071e-09
-9.30326e-08
1.4208e-08
-7.72909e-09
-9.30018e-08
1.37014e-08
-1.09287e-08
-9.33024e-08
1.28974e-08
-1.32138e-08
-9.38055e-08
1.18667e-08
-1.45461e-08
-9.35263e-08
1.05142e-08
-1.49398e-08
-9.29504e-08
9.20059e-09
-1.44776e-08
-9.18717e-08
7.92542e-09
-1.32756e-08
-9.01228e-08
6.7233e-09
-1.14936e-08
-8.74932e-08
5.6464e-09
-9.35181e-09
-8.36804e-08
4.73352e-09
-7.02801e-09
-7.83954e-08
3.97433e-09
-4.71875e-09
-7.10455e-08
3.33262e-09
-2.59855e-09
-6.06776e-08
2.71e-09
-8.96403e-10
-4.56035e-08
1.96406e-09
-2.21444e-08
9.16685e-10
6.99142e-10
-2.34667e-08
6.68735e-10
2.01383e-09
-4.84773e-08
1.42466e-09
3.66241e-09
-6.43593e-08
1.92387e-09
5.42805e-09
-7.53751e-08
2.35453e-09
7.13952e-09
-8.32469e-08
2.88824e-09
8.73253e-09
-8.89168e-08
3.53449e-09
1.00761e-08
-9.30762e-08
4.26341e-09
1.10478e-08
-9.61822e-08
5.09152e-09
1.15224e-08
-9.84009e-08
6.01961e-09
1.1269e-08
-9.97363e-08
7.02521e-09
1.01528e-08
-1.00459e-07
8.14302e-09
8.28211e-09
-1.00961e-07
9.29122e-09
5.93016e-09
-1.01342e-07
1.02593e-08
3.13248e-09
-1.01276e-07
1.09244e-08
4.95956e-11
-1.01217e-07
1.12435e-08
-3.08474e-09
-1.01068e-07
1.11693e-08
-5.94e-09
-1.00906e-07
1.0759e-08
-8.34352e-09
-1.00967e-07
1.00681e-08
-1.01576e-08
-1.01082e-07
9.09089e-09
-1.11635e-08
-1.00413e-07
7.89286e-09
-1.14081e-08
-9.95646e-08
6.85877e-09
-1.10177e-08
-9.81642e-08
5.90203e-09
-1.00981e-08
-9.60654e-08
5.02313e-09
-8.76169e-09
-9.31128e-08
4.28311e-09
-7.13352e-09
-8.89538e-08
3.64519e-09
-5.36452e-09
-8.32295e-08
3.06508e-09
-3.60149e-09
-7.53604e-08
2.55193e-09
-1.98269e-09
-6.43551e-08
2.05871e-09
-6.84915e-10
-4.83891e-08
1.48776e-09
-2.35224e-08
6.93111e-10
4.72238e-10
-2.43455e-08
4.06633e-10
1.27356e-09
-5.01334e-08
8.54778e-10
2.30218e-09
-6.66243e-08
1.23633e-09
3.41861e-09
-7.80351e-08
1.54357e-09
4.51395e-09
-8.62394e-08
1.89714e-09
5.53909e-09
-9.22461e-08
2.30418e-09
6.39994e-09
-9.66738e-08
2.73668e-09
6.9844e-09
-9.99371e-08
3.17044e-09
7.29945e-09
-1.02359e-07
3.64288e-09
7.11536e-09
-1.0389e-07
4.33812e-09
6.38312e-09
-1.0492e-07
5.19328e-09
5.25017e-09
-1.05808e-07
5.97964e-09
3.76815e-09
-1.06454e-07
6.59457e-09
1.99743e-09
-1.06527e-07
7.02167e-09
5.95518e-11
-1.06538e-07
7.2587e-09
-1.9078e-09
-1.06338e-07
7.23803e-09
-3.71133e-09
-1.06099e-07
6.99733e-09
-5.19975e-09
-1.06037e-07
6.55816e-09
-6.36245e-09
-1.05879e-07
5.95917e-09
-7.07744e-09
-1.04867e-07
5.16886e-09
-7.34375e-09
-1.03633e-07
4.33449e-09
-7.13556e-09
-1.01929e-07
3.55704e-09
-6.5052e-09
-9.96562e-08
2.96041e-09
-5.57399e-09
-9.65959e-08
2.5519e-09
-4.4992e-09
-9.22568e-08
2.22825e-09
-3.37022e-09
-8.62711e-08
1.91272e-09
-2.2563e-09
-7.80741e-08
1.59971e-09
-1.23844e-09
-6.66626e-08
1.28966e-09
-4.28221e-10
-5.01292e-08
9.29914e-10
-2.43835e-08
4.32894e-10
1.72476e-10
-2.46561e-08
1.38092e-10
4.42467e-10
-5.0699e-08
2.95639e-10
8.04407e-10
-6.74276e-08
4.4139e-10
1.20193e-09
-7.89839e-08
5.51285e-10
1.60341e-09
-8.73021e-08
6.61314e-10
2.01018e-09
-9.3406e-08
7.53062e-10
2.38847e-09
-9.78852e-08
8.33108e-10
2.61432e-09
-1.01126e-07
9.62993e-10
2.6461e-09
-1.03557e-07
1.16632e-09
2.50358e-09
-1.05204e-07
1.4562e-09
2.2769e-09
-1.06453e-07
1.75994e-09
1.94442e-09
-1.07492e-07
2.01694e-09
1.3189e-09
-1.0802e-07
2.19123e-09
6.55277e-10
-1.08179e-07
2.31486e-09
3.46721e-11
-1.08357e-07
2.43893e-09
-6.56031e-10
-1.08192e-07
2.54416e-09
-1.30225e-09
-1.07992e-07
2.53906e-09
-1.81307e-09
-1.07898e-07
2.37233e-09
-2.21542e-09
-1.07628e-07
2.15127e-09
-2.46424e-09
-1.06499e-07
1.88023e-09
-2.56538e-09
-1.05126e-07
1.5939e-09
-2.50223e-09
-1.0331e-07
1.31735e-09
-2.28275e-09
-1.00967e-07
1.09164e-09
-1.95342e-09
-9.78452e-08
9.20039e-10
-1.57065e-09
-9.3417e-08
7.77444e-10
-1.17029e-09
-8.73208e-08
6.49343e-10
-7.77001e-10
-7.90044e-08
5.37056e-10
-4.21618e-10
-6.74501e-08
4.32157e-10
-1.44953e-10
-5.07144e-08
3.08516e-10
-2.4677e-08
1.48571e-10
-1.21737e-10
-2.44004e-08
-1.33908e-10
-3.7838e-10
-5.01721e-08
-2.70219e-10
-6.94064e-10
-6.67435e-08
-3.68462e-10
-1.03951e-09
-7.81795e-08
-4.58945e-10
-1.39578e-09
-8.64028e-08
-5.43084e-10
-1.75386e-09
-9.24448e-08
-6.03083e-10
-2.08811e-09
-9.69027e-08
-6.48188e-10
-2.3004e-09
-1.00177e-07
-7.36848e-10
-2.30496e-09
-1.0261e-07
-9.42651e-10
-2.15013e-09
-1.04108e-07
-1.25068e-09
-1.94937e-09
-1.0511e-07
-1.54362e-09
-1.77548e-09
-1.05926e-07
-1.73989e-09
-1.50009e-09
-1.06428e-07
-1.86722e-09
-9.25758e-10
-1.06753e-07
-2.00032e-09
-8.85079e-11
-1.06991e-07
-2.20295e-09
5.99308e-10
-1.06598e-07
-2.28137e-09
1.19146e-09
-1.06395e-07
-2.18941e-09
1.72369e-09
-1.06385e-07
-2.04485e-09
2.01691e-09
-1.06062e-07
-1.85883e-09
2.20517e-09
-1.05046e-07
-1.64029e-09
2.2987e-09
-1.03823e-07
-1.39635e-09
2.24782e-09
-1.02113e-07
-1.14623e-09
2.07181e-09
-9.98411e-08
-9.50167e-10
1.77638e-09
-9.67411e-08
-8.08749e-10
1.43396e-09
-9.23743e-08
-7.00311e-10
1.07874e-09
-8.63681e-08
-5.97556e-10
7.23993e-10
-7.81545e-08
-4.95132e-10
4.02467e-10
-6.67362e-08
-3.92365e-10
1.45021e-10
-5.01844e-08
-2.7254e-10
-2.44051e-08
-1.26914e-10
-4.12895e-10
-2.35707e-08
-4.16844e-10
-1.19973e-09
-4.84934e-08
-8.91889e-10
-2.18191e-09
-6.45228e-08
-1.23853e-09
-3.25751e-09
-7.55659e-08
-1.53806e-09
-4.33824e-09
-8.34714e-08
-1.85065e-09
-5.34001e-09
-8.92429e-08
-2.20002e-09
-6.17229e-09
-9.3479e-08
-2.59136e-09
-6.76159e-09
-9.6555e-08
-3.03243e-09
-7.03413e-09
-9.88094e-08
-3.52768e-09
-6.8239e-09
-1.00149e-07
-4.16893e-09
-6.123e-09
-1.0084e-07
-4.97127e-09
-5.11343e-09
-1.01242e-07
-5.69396e-09
-3.74e-09
-1.01552e-07
-6.24946e-09
-2.01274e-09
-1.01794e-07
-6.68569e-09
-3.62704e-11
-1.01999e-07
-6.96872e-09
1.87301e-09
-1.01565e-07
-6.94253e-09
3.66824e-09
-1.01487e-07
-6.70274e-09
5.23909e-09
-1.01687e-07
-6.26981e-09
6.18161e-09
-1.01332e-07
-5.67234e-09
6.7942e-09
-1.00667e-07
-4.99156e-09
7.06555e-09
-9.98852e-08
-4.20876e-09
6.86257e-09
-9.85181e-08
-3.39177e-09
6.2756e-09
-9.64003e-08
-2.85388e-09
5.37776e-09
-9.33474e-08
-2.49585e-09
4.34661e-09
-8.9169e-08
-2.17412e-09
3.27883e-09
-8.34478e-08
-1.85242e-09
2.20726e-09
-7.55571e-08
-1.52584e-09
1.23387e-09
-6.45564e-08
-1.20644e-09
4.48226e-10
-4.85596e-08
-8.39134e-10
-2.35568e-08
-4.00129e-10
-6.75528e-10
-2.22179e-08
-6.7724e-10
-1.94756e-09
-4.57666e-08
-1.45478e-09
-3.53625e-09
-6.09144e-08
-2.01976e-09
-5.2678e-09
-7.13268e-08
-2.50759e-09
-6.99908e-09
-7.87234e-08
-3.01675e-09
-8.58013e-09
-8.40554e-08
-3.6064e-09
-9.8691e-09
-8.7904e-08
-4.28592e-09
-1.07817e-08
-9.05696e-08
-5.07275e-09
-1.12378e-08
-9.23934e-08
-5.95989e-09
-1.1013e-08
-9.34889e-08
-6.88533e-09
-9.94639e-09
-9.3957e-08
-7.94959e-09
-8.1757e-09
-9.39616e-08
-9.05091e-09
-5.85881e-09
-9.38862e-08
-9.98273e-09
-3.09722e-09
-9.38941e-08
-1.06616e-08
-4.02443e-11
-9.40283e-08
-1.10276e-08
3.00139e-09
-9.3662e-08
-1.09447e-08
5.83443e-09
-9.37251e-08
-1.05954e-08
8.28763e-09
-9.42039e-08
-9.93584e-09
9.95595e-09
-9.40212e-08
-8.97917e-09
1.09644e-08
-9.37511e-08
-7.92478e-09
1.12697e-08
-9.33267e-08
-6.86385e-09
1.08834e-08
-9.23318e-08
-5.7999e-09
9.92867e-09
-9.05639e-08
-4.88165e-09
8.57504e-09
-8.78761e-08
-4.11773e-09
6.97209e-09
-8.41022e-08
-3.46387e-09
5.27369e-09
-7.88682e-08
-2.8813e-09
3.57643e-09
-7.14887e-08
-2.37116e-09
2.00841e-09
-6.11035e-08
-1.88487e-09
7.17476e-10
-4.59433e-08
-1.32542e-09
-2.21997e-08
-6.39569e-10
-9.01691e-10
-2.04207e-08
-8.9553e-10
-2.57582e-09
-4.21651e-08
-1.92741e-09
-4.67071e-09
-5.61302e-08
-2.68936e-09
-6.95737e-09
-6.57195e-08
-3.32063e-09
-9.25421e-09
-7.24619e-08
-3.96462e-09
-1.13818e-08
-7.72116e-08
-4.71615e-09
-1.31528e-08
-8.05131e-08
-5.61992e-09
-1.4349e-08
-8.26893e-08
-6.68397e-09
-1.4837e-08
-8.4033e-08
-7.87235e-09
-1.44888e-08
-8.47341e-08
-9.10299e-09
-1.31841e-08
-8.49356e-08
-1.03262e-08
-1.08504e-08
-8.4718e-08
-1.15773e-08
-7.70692e-09
-8.42692e-08
-1.27606e-08
-4.03807e-09
-8.39362e-08
-1.36268e-08
-3.27301e-11
-8.39477e-08
-1.4086e-08
3.96334e-09
-8.36879e-08
-1.39703e-08
7.66881e-09
-8.38944e-08
-1.35362e-08
1.08615e-08
-8.46265e-08
-1.27701e-08
1.31545e-08
-8.47998e-08
-1.15144e-08
1.44744e-08
-8.48932e-08
-1.01778e-08
1.48578e-08
-8.47173e-08
-8.9927e-09
1.43935e-08
-8.40541e-08
-7.81343e-09
1.31966e-08
-8.27253e-08
-6.64178e-09
1.14461e-08
-8.05423e-08
-5.58321e-09
9.32424e-09
-7.72866e-08
-4.69382e-09
7.04213e-09
-7.2665e-08
-3.92109e-09
4.78171e-09
-6.60663e-08
-3.16202e-09
2.67395e-09
-5.65494e-08
-2.44638e-09
9.44778e-10
-4.24873e-08
-1.72685e-09
-2.04088e-08
-8.46165e-10
-1.07734e-09
-1.82768e-08
-1.06658e-09
-3.06864e-09
-3.789e-08
-2.28386e-09
-5.5875e-09
-5.0419e-08
-3.1923e-09
-8.36689e-09
-5.8985e-08
-3.95514e-09
-1.11403e-08
-6.49565e-08
-4.73207e-09
-1.36702e-08
-6.90715e-08
-5.61021e-09
-1.57402e-08
-7.18013e-08
-6.64175e-09
-1.71244e-08
-7.34673e-08
-7.83778e-09
-1.76413e-08
-7.43281e-08
-9.18803e-09
-1.71536e-08
-7.4587e-08
-1.06348e-08
-1.5593e-08
-7.44231e-08
-1.20731e-08
-1.29136e-08
-7.39957e-08
-1.34017e-08
-9.15728e-09
-7.33994e-08
-1.46262e-08
-4.75377e-09
-7.27359e-08
-1.56039e-08
-2.39059e-11
-7.25149e-08
-1.61627e-08
4.68934e-09
-7.23294e-08
-1.60718e-08
9.0798e-09
-7.2693e-08
-1.55919e-08
1.28322e-08
-7.36105e-08
-1.47684e-08
1.55467e-08
-7.40497e-08
-1.34646e-08
1.71459e-08
-7.44392e-08
-1.20532e-08
1.76507e-08
-7.46056e-08
-1.06166e-08
1.71424e-08
-7.43584e-08
-9.1874e-09
1.57638e-08
-7.35058e-08
-7.84086e-09
1.37055e-08
-7.18427e-08
-6.64134e-09
1.11704e-08
-6.91255e-08
-5.62592e-09
8.37867e-09
-6.50727e-08
-4.80054e-09
5.60361e-09
-5.92255e-08
-4.06567e-09
3.09958e-09
-5.075e-08
-3.29535e-09
1.08547e-09
-3.81367e-08
-2.33649e-09
-1.8259e-08
-1.06434e-09
-1.19602e-09
-1.58675e-08
-1.21328e-09
-3.45979e-09
-3.30095e-08
-2.6167e-09
-6.29445e-09
-4.39819e-08
-3.60252e-09
-9.39182e-09
-5.14594e-08
-4.42818e-09
-1.24748e-08
-5.66134e-08
-5.26009e-09
-1.52814e-08
-6.00674e-08
-6.19742e-09
-1.75583e-08
-6.2236e-08
-7.28836e-09
-1.9067e-08
-6.34121e-08
-8.54652e-09
-1.96034e-08
-6.38295e-08
-9.96214e-09
-1.90159e-08
-6.36901e-08
-1.14844e-08
-1.72242e-08
-6.31879e-08
-1.30269e-08
-1.42315e-08
-6.25153e-08
-1.44732e-08
-1.01068e-08
-6.18046e-08
-1.57195e-08
-5.20977e-09
-6.10122e-08
-1.66208e-08
-1.58328e-11
-6.05482e-08
-1.71608e-08
5.18914e-09
-6.043e-08
-1.71043e-08
1.00712e-08
-6.09303e-08
-1.66448e-08
1.41754e-08
-6.18692e-08
-1.58454e-08
1.71887e-08
-6.25363e-08
-1.45266e-08
1.89988e-08
-6.3207e-08
-1.30423e-08
1.96011e-08
-6.37119e-08
-1.14959e-08
1.90742e-08
-6.38575e-08
-9.9741e-09
1.75727e-08
-6.34465e-08
-8.55788e-09
1.53026e-08
-6.22767e-08
-7.29594e-09
1.24982e-08
-6.01142e-08
-6.20692e-09
9.39644e-09
-5.6676e-08
-5.29497e-09
6.26718e-09
-5.15759e-08
-4.52036e-09
3.4263e-09
-4.41712e-08
-3.73794e-09
1.18834e-09
-3.31932e-08
-2.7055e-09
-1.58532e-08
-1.21747e-09
-1.25036e-09
-1.33128e-08
-1.30442e-09
-3.68359e-09
-2.77636e-08
-2.81265e-09
-6.7113e-09
-3.71249e-08
-3.82929e-09
-1.00011e-08
-4.34816e-08
-4.68803e-09
-1.32726e-08
-4.7794e-08
-5.54798e-09
-1.62423e-08
-5.0595e-08
-6.50268e-09
-1.86405e-08
-5.22363e-08
-7.60145e-09
-2.02152e-08
-5.29766e-08
-8.86084e-09
-2.075e-08
-5.30293e-08
-1.02654e-08
-2.00878e-08
-5.25873e-08
-1.17649e-08
-1.81511e-08
-5.18364e-08
-1.32882e-08
-1.49437e-08
-5.09729e-08
-1.47498e-08
-1.06272e-08
-5.01115e-08
-1.60097e-08
-5.47059e-09
-4.93069e-08
-1.68621e-08
-8.29997e-12
-4.8741e-08
-1.72695e-08
5.47098e-09
-4.86926e-08
-1.72168e-08
1.06058e-08
-4.92558e-08
-1.68093e-08
1.49056e-08
-5.01493e-08
-1.60196e-08
1.81167e-08
-5.0989e-08
-1.47583e-08
2.00658e-08
-5.1852e-08
-1.33042e-08
2.07404e-08
-5.26053e-08
-1.17813e-08
2.02165e-08
-5.30534e-08
-1.02801e-08
1.86506e-08
-5.30063e-08
-8.87438e-09
1.62568e-08
-5.22713e-08
-7.61155e-09
1.32896e-08
-5.06354e-08
-6.5116e-09
1.00152e-08
-4.78409e-08
-5.56069e-09
6.706e-09
-4.35449e-08
-4.72178e-09
3.66966e-09
-3.72398e-08
-3.89509e-09
1.261e-09
-2.7929e-08
-2.85563e-09
-1.32939e-08
-1.29827e-09
-1.28989e-09
-1.06962e-08
-1.3267e-09
-3.76926e-09
-2.24424e-08
-2.84186e-09
-6.85609e-09
-3.01457e-08
-3.89239e-09
-1.02195e-08
-3.53553e-08
-4.76284e-09
-1.35646e-08
-3.88345e-08
-5.61438e-09
-1.6598e-08
-4.10152e-08
-6.54653e-09
-1.90389e-08
-4.21855e-08
-7.60994e-09
-2.06278e-08
-4.25684e-08
-8.81931e-09
-2.11459e-08
-4.23545e-08
-1.01567e-08
-2.04402e-08
-4.17155e-08
-1.15775e-08
-1.84255e-08
-4.08304e-08
-1.30205e-08
-1.51277e-08
-3.98613e-08
-1.44095e-08
-1.07908e-08
-3.88987e-08
-1.55497e-08
-5.62898e-09
-3.81409e-08
-1.63278e-08
-4.43819e-11
-3.76488e-08
-1.66769e-08
5.51389e-09
-3.75963e-08
-1.66546e-08
1.06548e-08
-3.80791e-08
-1.63177e-08
1.50592e-08
-3.89485e-08
-1.56052e-08
1.83906e-08
-3.98779e-08
-1.44426e-08
2.04151e-08
-4.08377e-08
-1.30387e-08
2.1133e-08
-4.17282e-08
-1.1595e-08
2.06242e-08
-4.23723e-08
-1.01724e-08
1.90432e-08
-4.25924e-08
-8.83289e-09
1.66073e-08
-4.22133e-08
-7.62212e-09
1.35765e-08
-4.10467e-08
-6.55792e-09
1.02315e-08
-3.88708e-08
-5.6251e-09
6.86245e-09
-3.53973e-08
-4.77857e-09
3.76088e-09
-3.02064e-08
-3.93181e-09
1.27752e-09
-2.25447e-08
-2.90088e-09
-1.06864e-08
-1.33003e-09
-1.27857e-09
-8.12051e-09
-1.29712e-09
-3.7065e-09
-1.72396e-08
-2.7749e-09
-6.74677e-09
-2.32926e-08
-3.81276e-09
-1.00726e-08
-2.73748e-08
-4.65466e-09
-1.33874e-08
-3.00533e-08
-5.46643e-09
-1.63969e-08
-3.166e-08
-6.34567e-09
-1.88146e-08
-3.24272e-08
-7.34062e-09
-2.03809e-08
-3.2538e-08
-8.46414e-09
-2.08811e-08
-3.21524e-08
-9.70181e-09
-2.01611e-08
-3.14249e-08
-1.10106e-08
-1.81487e-08
-3.05066e-08
-1.23362e-08
-1.49055e-08
-2.95263e-08
-1.35781e-08
-1.06384e-08
-2.8598e-08
-1.45678e-08
-5.57687e-09
-2.79068e-08
-1.52957e-08
-5.02729e-11
-2.75228e-08
-1.56527e-08
5.44298e-09
-2.74651e-08
-1.56245e-08
1.05107e-08
-2.78591e-08
-1.52877e-08
1.48345e-08
-2.86411e-08
-1.46313e-08
1.81136e-08
-2.95449e-08
-1.36119e-08
2.0134e-08
-3.05098e-08
-1.23483e-08
2.08626e-08
-3.14319e-08
-1.10249e-08
2.03742e-08
-3.2166e-08
-9.7179e-09
1.88154e-08
-3.25545e-08
-8.47911e-09
1.64024e-08
-3.24477e-08
-7.35262e-09
1.33963e-08
-3.16842e-08
-6.35649e-09
1.00834e-08
-3.00809e-08
-5.47697e-09
6.75479e-09
-2.74035e-08
-4.66522e-09
3.70661e-09
-2.33287e-08
-3.82951e-09
1.26412e-09
-1.72934e-08
-2.80887e-09
-8.12271e-09
-1.29953e-09
-1.20727e-09
-5.69884e-09
-1.21442e-09
-3.50225e-09
-1.23432e-08
-2.6015e-09
-6.39393e-09
-1.68259e-08
-3.57505e-09
-9.57882e-09
-1.98349e-08
-4.35504e-09
-1.27715e-08
-2.17624e-08
-5.09826e-09
-1.56823e-08
-2.28523e-08
-5.89689e-09
-1.80252e-08
-2.32842e-08
-6.8e-09
-1.95455e-08
-2.32016e-08
-7.8162e-09
-2.00307e-08
-2.27356e-08
-8.93161e-09
-1.93328e-08
-2.20099e-08
-1.01129e-08
-1.73823e-08
-2.11427e-08
-1.13143e-08
-1.42793e-08
-2.02401e-08
-1.23892e-08
-1.01828e-08
-1.94334e-08
-1.32611e-08
-5.33203e-09
-1.88384e-08
-1.39192e-08
-4.37549e-11
-1.85325e-08
-1.42786e-08
5.21551e-09
-1.84857e-08
-1.42387e-08
1.0075e-08
-1.88078e-08
-1.39107e-08
1.42143e-08
-1.94595e-08
-1.33208e-08
1.73483e-08
-2.02552e-08
-1.24238e-08
1.93044e-08
-2.11482e-08
-1.13178e-08
2.00111e-08
-2.2014e-08
-1.01247e-08
1.95359e-08
-2.27435e-08
-8.94721e-09
1.80244e-08
-2.32126e-08
-7.83048e-09
1.56862e-08
-2.32977e-08
-6.81192e-09
1.27788e-08
-2.28691e-08
-5.9076e-09
9.58529e-09
-2.17804e-08
-5.10701e-09
6.39956e-09
-1.98543e-08
-4.36355e-09
3.50625e-09
-1.68507e-08
-3.58469e-09
1.20457e-09
-1.23754e-08
-2.61634e-09
-5.7025e-09
-1.21565e-09
-1.07604e-09
-3.54519e-09
-1.07763e-09
-3.14434e-09
-7.95897e-09
-2.3159e-09
-5.79275e-09
-1.10052e-08
-3.17229e-09
-8.74434e-09
-1.30359e-08
-3.84737e-09
-1.1733e-08
-1.42846e-08
-4.48916e-09
-1.44801e-08
-1.49246e-08
-5.18066e-09
-1.67048e-08
-1.50911e-08
-5.96841e-09
-1.81584e-08
-1.48896e-08
-6.85843e-09
-1.86371e-08
-1.44176e-08
-7.83921e-09
-1.79987e-08
-1.3767e-08
-8.88143e-09
-1.61872e-08
-1.30225e-08
-9.93164e-09
-1.33e-08
-1.22801e-08
-1.08471e-08
-9.47789e-09
-1.16311e-08
-1.16245e-08
-4.95486e-09
-1.11534e-08
-1.22081e-08
-3.71452e-11
-1.09085e-08
-1.25418e-08
4.85675e-09
-1.08809e-08
-1.24987e-08
9.38033e-09
-1.11356e-08
-1.21958e-08
1.32281e-08
-1.16392e-08
-1.16681e-08
1.61449e-08
-1.2286e-08
-1.08859e-08
1.79702e-08
-1.30264e-08
-9.947e-09
1.86173e-08
-1.37694e-08
-8.89174e-09
1.81482e-08
-1.44218e-08
-7.85268e-09
1.67022e-08
-1.48956e-08
-6.87102e-09
1.44818e-08
-1.50991e-08
-5.97823e-09
1.17372e-08
-1.49341e-08
-5.19052e-09
8.74871e-09
-1.42954e-08
-4.49644e-09
5.79836e-09
-1.30502e-08
-3.85366e-09
3.15204e-09
-1.10279e-08
-3.17648e-09
1.07857e-09
-7.98319e-09
-2.31872e-09
-3.54769e-09
-1.07625e-09
-8.79721e-10
-1.78697e-09
-8.78511e-10
-2.62813e-09
-4.32051e-09
-1.89008e-09
-4.93349e-09