/*--------------------------------*- C++ -*----------------------------------*\
| =========                 |                                                 |
| \\      /  F ield         | OpenFOAM: The Open Source CFD Toolbox           |
|  \\    /   O peration     | Version:  v1912                                 |
|   \\  /    A nd           | Website:  www.openfoam.com                      |
|    \\/     M anipulation  |                                                 |
\*---------------------------------------------------------------------------*/
FoamFile
{
    version     2.0;
    format      ascii;
    class       volScalarField;
    location    "324/oil";
    object      wallHeatFlux;
}
// * * * * * * * * * * * * * * * * * * * * * * * * * * * * * * * * * * * * * //

dimensions      [1 0 -3 0 0 0 0];


internalField   uniform 0;

boundaryField
{
    maxY
    {
        type            calculated;
        value           uniform 0;
    }
    minX
    {
        type            calculated;
        value           uniform 0;
    }
    maxX
    {
        type            calculated;
        value           uniform 0;
    }
    minY
    {
        type            calculated;
        value           uniform 0;
    }
    minZ
    {
        type            calculated;
        value           uniform 0;
    }
    maxZ
    {
        type            calculated;
        value           uniform 0;
    }
    oil_to_sphere
    {
        type            calculated;
        value           nonuniform List<scalar> 
1536
(
1352.85
1074.92
1068.92
561.699
548.183
1061.16
836.927
929.076
895.723
605.318
401.579
643.247
890.607
654.457
335.262
806.29
1061.99
1082.35
791.365
876.156
994.221
899.987
919.848
803.327
830.595
816.797
829.221
769.216
1045.44
909.554
1128.75
1076.73
1086.52
808.859
825.359
771.336
796.78
714.857
766.559
827.493
755.128
795.813
886.246
943.627
1012.07
824.04
990.319
917.384
356.11
815.549
968.266
899.752
911.844
802.675
1036.35
1227.01
916.462
876.815
990.017
963.643
879.527
887.561
874.239
795.388
822.832
867.182
875.375
974.807
972.146
1034.71
794.029
549.839
638.913
817.548
816.006
1245.23
1089.91
718.539
806.953
1072.98
997.92
957.319
562.856
555.374
1044.02
1299.44
492.611
851.843
964.208
962.716
896.346
780.55
776.181
788.661
815.78
941.11
992.798
1011.63
1109.93
956.293
999.974
789.961
1357.73
970.886
626.925
810.822
833.345
581.569
579.367
1365.25
1086.98
928.048
885.605
920.909
523.412
551.32
469.092
1175.88
1327.4
1102.82
907.904
920.818
763.408
989.283
1125.35
944.323
905.598
744.934
1006.37
988.383
868.483
977.222
1032.61
835.852
853.487
1048.49
922.342
1075.31
750.244
1064.76
898.144
985.373
988.137
890.02
857.818
883.892
945.051
1169.78
861.43
1369.37
1023.14
1070.17
916.282
931.818
815.996
947.133
1046.08
988.132
1416.23
1116.27
1086.21
1183.89
673.363
717.698
784.319
779.281
1031.4
1154.37
1108.81
1231.26
768.728
786.129
721.596
994.132
909.193
933.949
1275.43
697.321
636.436
1299.12
772.379
721.407
711.123
737.12
968.324
1300.22
1118.43
755.574
667.69
1077.84
685.922
1029.82
1029.55
1153.38
640.229
276.528
1143.17
1181.17
833.388
813.556
901.261
839.756
1082.62
1140.05
1016.81
958.268
789.294
1163.22
1112.66
934.241
744.404
822.556
811.319
846.021
999.299
1237.04
672.931
649.683
657.955
239.407
1061.76
995.313
955.031
899.202
911.428
1164.68
1028.17
820.799
1063.53
608.334
772.62
289.699
888.348
1046.8
1144.55
1116.45
1062.52
1004.03
1101.46
638.037
677.854
719.748
1187.24
731.039
286.398
478.754
997.033
885.311
1282.06
1411.18
925.876
555.471
246.453
962.743
1109.75
789.261
797.781
510.122
778.954
1163.73
1311.52
876.425
797.595
1212.01
1121.36
819.853
626.979
856.783
1245.95
1179.43
1004.7
1030.64
1132.72
711.62
808.697
1147.61
1030.2
1073.56
886.701
1064.44
1229.55
1014.94
992.033
1197.64
792.454
788.516
813.777
765.533
782.735
1157.44
1254.12
649.813
845.85
831.141
842.439
755.046
912.466
884.496
724.474
514.295
775.399
646.22
751.557
1301.16
1204.39
1199.52
1385.92
693.236
713.434
904.503
1370.13
1314.07
773.607
889.292
758.887
1024.87
803.143
989.918
1013.08
1092.56
1037.75
826.814
1048.29
772.106
1134.53
1170.53
1072.26
1049.93
730.944
1262.15
1251.14
1021.15
633.503
789.577
839.445
1014.3
986.799
1027.16
722.05
1130.02
1140.21
1094.37
1197.76
976.728
942.692
877.602
677.67
945.189
1020.33
674.95
654.669
704.101
1340.87
1124.91
1198.38
983.602
938.201
1152.97
661.511
1280.93
1091.83
943.193
937.875
643.955
1090.4
1118.43
741.944
943.703
870.838
798.81
1026.02
1125.36
886.069
818.97
696.1
1237.46
1136.3
652.586
1155.82
1117.64
1062.16
1236.43
939.518
1040.43
600.696
641.813
1012.24
1372.81
1074.67
1281.38
980.908
835.118
1108.46
703.731
759.616
989.378
1120.3
1030.26
986.168
715.633
714.849
1149.07
1135.79
1137.14
933.964
781.228
994.808
1050.24
1116.29
949.875
853.779
734.384
925.284
690.817
582.494
787.087
736.788
929.278
606.765
838.126
1264.61
831.853
828.451
1117.52
1113.81
1019.99
872.024
671.226
1071.78
1201.18
1006.53
953.663
1081.45
890.917
919.442
978.847
560.191
1005.38
1140.32
1196
1106.21
1044.21
1031.18
952.348
860.463
703.994
907.254
733.515
644.652
758.445
580.02
1309.68
1271.73
1171.88
1355.41
700.138
1312.81
719.436
773.728
1060.29
681.543
711.058
841.407
831.102
1281.4
1203.16
979.644
999.683
1232.56
1151.01
949.213
1048.38
748.181
1120.75
632.719
1192.96
557.573
1037.76
1071.25
1106.52
825.069
699.439
866.252
1115.07
879.3
613.142
1119.77
1140.88
1177.53
1388.14
951.235
1222.08
690.707
725.841
368.82
477.937
946.775
839.578
804.217
759.051
1332.1
720.66
660.923
621.884
844.172
609.285
1412.93
747.513
767.897
909.702
407.999
504.405
789.051
781.79
885.821
817.677
1138.93
1104.89
1032.58
946.279
587.504
803.52
1096.46
703.013
742.643
1071.37
1239.94
747.721
368.608
677.447
400.948
902.293
825.107
768.588
632.183
404.51
1027.75
1066.04
987.89
898.671
1248.4
1036.3
1014.38
939.055
728.907
812.301
1137.99
1033.86
848.749
469.15
956.417
1087.6
1264.12
965.853
792.103
1264.59
914.225
1225.58
745.003
823.394
708.734
831.321
960.157
1239.34
706.239
763.649
727.174
846.05
1419.72
636.168
809.008
657.128
912.354
958.887
1141.42
1247.88
593.183
634.466
1244.51
1279.63
532.687
1228.96
1156.59
1074.01
1148.86
1015.53
927.04
941.007
1235.54
948.303
1019.72
924.844
1117.58
967.939
903.915
885.078
676.451
1072.31
899.035
1113.22
1043.01
1049.43
1032.78
950.768
642.12
1147.05
1145.47
1024.4
900.899
973.824
1356.12
605.636
739.986
686.101
959.249
757.907
1358.69
833.255
861.838
916.736
376.226
419.683
797.676
791.93
938.383
708.487
759.164
968.231
772.99
1249.84
681.974
1341.12
834.569
952.214
290.445
409.558
364.278
769.537
1074.23
808.688
769.733
403.692
928.048
1090.41
933.134
1491.98
746.478
1137.99
1021.52
1083.04
1163.56
1153.37
1081.87
910.768
854.274
906.504
1083.79
872.639
991.361
963.746
986.422
1107.92
1034.45
1071.47
672.559
734.838
269.264
512.819
574.889
106.581
789.847
818.455
873.124
903.182
581.192
681.559
847.971
1181.18
1151.57
842.791
619.96
890.132
1100.58
1023.74
916.278
601.146
746.278
1028.19
975.493
911.257
799.075
1053.9
1059.12
1236.94
1062.39
953.974
818.125
754.661
670.936
787.175
882.377
1374.05
946.927
1301.31
753.518
1397.25
789.694
882.414
692.855
720.764
820.409
666.684
867.521
604.756
801.325
1134.65
837.662
650.085
1255.91
1046.32
996.544
894.592
1229.16
1528.45
519.01
1037.76
982.475
1019.09
665.792
898.551
757.566
984.265
1066.08
1151.67
727.178
1026.96
937.062
1057.03
1040.28
1011.99
845.319
877.983
805.611
616.737
586.708
706.751
1212.75
802.608
660.171
810.325
1141.21
863.867
1210.84
1104.49
1005.39
953.378
1000.21
1269.87
707.211
1032.82
1156.49
1184.28
948.802
754.586
858.141
1001.4
1192.41
688.394
881.142
940.784
1134.01
1000.76
997.709
1220.93
693.201
766.655
731.189
1271.7
1148.66
942.028
1131.71
769.355
801.599
1130.68
996.396
1238.25
719.466
1086.97
1120.8
961.29
986.199
1071.35
725.645
570.69
921.551
997.549
1282.71
887.21
784.475
905.773
1002.79
1082.84
952.8
761.061
889.21
1118.26
695.634
760.241
889.18
797.413
977.045
952.043
1178.4
1018.06
1104.35
809.34
908.626
976.449
898.575
856.087
817.76
813.669
699.529
1050.27
969.476
969.186
1007.01
634.152
832.656
1261.61
1267.69
760.928
1137.56
1001.6
1047.56
810.277
1188.23
1168.5
713.365
863.2
828.567
817.177
626.239
682.481
828.502
1162.81
1360.81
784.371
1069.22
1049.09
995.541
873.049
978.452
1176.89
971.223
721.961
834.699
810.546
823.731
1019.59
1048.19
1051.88
1065.36
1064.27
763.294
1079.3
841.747
1036.4
404.861
1008.18
1204.52
855.015
518.846
918.34
878.495
1299.34
736.014
1079.74
904.437
566.556
1251.22
649.452
880.628
924.966
631.956
1138.09
980.447
873.445
943.892
978.57
879.256
1314.79
656.936
823.542
334.244
848.143
856.076
934.103
1135.65
1543.55
609.718
826.838
1451.82
651.772
1059.24
755.144
1047
497.816
737.676
1442.44
548.51
1383.07
593.653
1285.5
571.525
732.52
365.361
658.699
1403.21
436.85
901.819
547.623
1223.68
1406.84
451.923
861.91
788.283
722.545
713.115
829.528
928.061
927.116
1039.35
905.475
1229.95
1474.25
446.185
930.592
1005.34
927.603
960.269
891.802
857.301
890.534
1096.4
897.959
1101.35
820.167
969.252
1205.19
852.778
1028.93
1141.47
818.555
969.276
904.501
1036.17
881.401
946.595
860.347
1127.47
836.53
993.487
590.97
1243.37
464.545
996.298
1117.14
1252.34
742.006
955.67
905.955
954.859
936.646
897.728
1092.3
709.476
267.201
864.727
522.466
1152.51
747.444
921.022
1057.72
301.262
1195.75
701.686
391.824
732.592
1060.51
1042.7
933.33
440.95
929.824
969.795
781.739
748.868
1160.62
1122.79
804.967
938.11
1162.15
448.106
1093.68
743.195
1030.33
474.157
1359.93
1331.58
1119.68
928.158
858.422
1053.52
846.49
436.935
689.162
1069.42
755.645
1015.27
516.419
1145.88
1032.08
165.924
931.691
982.638
319.889
1202.57
583.742
1156.32
1246.7
1087.75
397.882
944.345
867.032
934.471
950.883
1015.28
451.881
816.088
761.755
763.347
1138.28
917.991
989.614
1043.39
1030.2
863.185
952.586
876.583
991.373
1166.13
803.453
851.547
788.694
948.75
1114.5
800.338
843.789
822.067
921.564
760.555
779.735
841.946
860.88
948.046
836.175
1238.03
1094.15
537.934
547.314
1200.25
107.415
1075.38
968.069
760.491
862.057
1212.71
301.45
1149.41
988.843
418.906
826.148
782.081
922.577
275.19
1195.11
998.581
308.368
1174.33
1180.92
485.144
1254.71
1121.75
492.04
787.885
762.02
307.766
927.069
955.726
695.373
743.099
725.983
186.844
736.479
288.543
154.537
1131.14
786.407
1403.48
805.082
448.502
1198.86
881.339
358.271
803.201
791.069
352.29
546.753
1188.42
26.3508
691.483
651.427
107.624
1149.76
1101.26
925.225
838.484
787.152
692.935
236.033
933.292
842.403
854.239
926.104
390.328
1065.82
803.914
896.281
780.33
887.451
946.521
677.943
413.248
830.973
960.735
798.437
838.11
905.079
741.956
849.822
379.134
805.453
988.467
784.223
864.021
749.432
421.96
1207.24
1198.44
1172.38
1257.73
482.139
322.988
811.256
1080.93
954.5
1056.42
1095.98
692.221
637.777
334.987
453.841
739.77
899.766
883.718
872.317
640.503
1133.8
989.256
497.291
728.075
681.695
1090.61
746.707
234.187
905.811
913.865
1147.19
369.145
787.672
952.658
818.845
862.022
1047.39
893.795
698.309
1282.84
146.225
602.744
871.692
744.624
831.595
1252.66
998.733
918.187
607.851
1208.31
814.149
946.074
1095.18
1147.55
1126.85
1145.74
1234.21
1290.83
1223.24
1224.13
925.281
1108.02
802.552
861.527
633.729
565.581
192.774
1263.24
1246.47
1171.66
849.493
948.085
931.258
752.599
962.463
1103.79
707.458
875.607
1035.12
786.805
808.418
795.325
846.054
739.56
837.89
816.623
475.365
950.217
712.184
873.432
351.785
1263.63
885.065
769.458
730.435
504.112
913.545
776.611
310.88
600.789
878.662
557.361
619.457
1301.92
1330.34
819.314
821.536
1068.68
1248.13
304.171
752.57
739.694
832.974
831.262
852.65
890.76
633.928
428.974
1196.32
825.414
582.657
628.948
818.543
920.554
509.264
861.166
752.463
802.364
1252.66
590.639
439.33
831.726
783.606
739.454
435.696
1150.94
815.538
803.747
816.786
314.173
820.089
830.587
449.469
813.241
599.181
989.368
1185.96
752.49
1106.64
977.362
760.997
769.83
839.013
436.818
975.068
1010.83
792.67
369.16
675.581
866.445
884.492
756.237
410.053
766.648
1147.9
979.234
773.037
1294.43
591.141
1094.83
323.849
577.771
1116.89
315.521
1131.19
769.933
919.38
803.395
1323.14
650.167
925.181
1252.82
1207.58
532.403
1187.8
1253.71
121.806
864.805
780.854
338.92
1011.09
775.152
804.781
805.765
894.525
855.122
792.914
771.24
322.361
1008.65
919.708
904.167
944.453
849.267
759.53
679.008
1065.83
247.248
732.902
725.6
271.675
1118.6
1277.68
884.262
1171.53
1208.33
746.966
765.143
1000.69
1168.85
739.987
1032.8
627.571
341.879
1072.21
707.841
1147.11
1293.97
1244.7
369.179
1100.87
929.248
698.084
790.241
832.596
778.075
379.392
1168.96
396.489
1159.61
845.418
627.78
582.953
852.922
1042.4
1227.43
909.198
1371.9
1078.3
1133.25
306.754
1105.63
1054.69
1149.21
748.464
704.091
245.382
880.211
1351.07
1175.07
422.183
645.679
394.926
747.976
891.33
620.63
1500.5
806.266
646.897
436.08
976.006
710.125
279.956
863.448
773.039
780.926
790.158
794.106
441.238
625.507
342.342
777.08
1077.29
991.612
1188.75
1148.78
733.524
679.202
321.163
761.417
1047.34
1214.03
1076.97
1091.73
584.205
266.136
654.799
226.56
1066.81
1087.95
680.25
1125.97
1062.41
1188.66
963.581
920.261
912.365
733.465
308.735
666.225
367.652
613.267
790.48
755.782
476.064
365.716
1028.48
1353.22
1296.52
1245.11
905.624
1018.73
1008.64
881.373
789.395
880.715
696.344
844.371
846.777
368.229
1062.47
825.053
647.416
466.872
770.206
899.286
896.276
757.119
469.576
1228.42
971.439
779.094
1287.92
705.711
345.857
995.576
846.339
848.65
848.465
763.576
242.985
851.125
841.129
400.716
1214.11
814.993
29.9584
789.256
887.598
905.868
761.772
378.399
724.082
738.098
564.641
860.495
322.987
873.516
857.727
540.892
1283.07
839.406
449.26
1341.93
881.996
881.993
462.167
857.507
394.868
)
;
    }
}


// ************************************************************************* //
