/*--------------------------------*- C++ -*----------------------------------*\
| =========                 |                                                 |
| \\      /  F ield         | OpenFOAM: The Open Source CFD Toolbox           |
|  \\    /   O peration     | Version:  v1906                                 |
|   \\  /    A nd           | Web:      www.OpenFOAM.com                      |
|    \\/     M anipulation  |                                                 |
\*---------------------------------------------------------------------------*/
FoamFile
{
    version     2.0;
    format      ascii;
    class       surfaceScalarField;
    location    "70.4/oil";
    object      phi;
}
// * * * * * * * * * * * * * * * * * * * * * * * * * * * * * * * * * * * * * //

dimensions      [1 0 -1 0 0 0 0];
oriented        oriented;


internalField   nonuniform List<scalar> 
80688
(
-2.1539e-06
-2.19047e-06
-2.15389e-06
-9.71714e-07
-6.11518e-07
-5.70666e-07
-2.61112e-07
-3.58053e-07
-3.52548e-07
-1.23303e-07
-6.96477e-08
-6.81608e-08
-4.16128e-08
-4.14049e-08
-4.02857e-08
-9.13822e-10
-2.07098e-08
-1.99892e-08
2.16563e-08
-1.14245e-08
-1.11456e-08
3.42418e-08
-6.27971e-09
-6.30578e-09
4.03719e-08
-2.99624e-09
-3.13375e-09
4.15659e-08
-5.82436e-10
-6.11531e-10
3.86331e-08
1.3924e-09
1.54045e-09
3.22023e-08
3.01086e-09
3.42001e-09
2.29595e-08
4.28025e-09
4.9625e-09
1.17173e-08
5.17038e-09
6.07188e-09
-5.89421e-10
5.64187e-09
6.66489e-09
-1.29626e-08
5.67451e-09
6.69874e-09
-2.44193e-08
5.27581e-09
6.18082e-09
-3.40754e-08
4.48416e-09
5.17205e-09
-4.12279e-08
3.36814e-09
3.78438e-09
-4.54079e-08
2.01391e-09
2.16605e-09
-4.64223e-08
5.12908e-10
5.01563e-10
-4.43556e-08
-9.90199e-10
-1.0765e-09
-3.95675e-08
-2.41898e-09
-2.36906e-09
-3.26693e-08
-3.67334e-09
-3.22487e-09
-2.4486e-08
-4.6384e-09
-3.54486e-09
-1.6019e-08
-5.18079e-09
-3.28619e-09
-8.3876e-09
-5.12387e-09
-2.50752e-09
-2.71864e-09
-4.24526e-09
-1.42368e-09
9.79826e-11
-2.32525e-09
-4.9134e-10
1.90499e-10
-9.24967e-11
-5.78859e-07
-1.03276e-06
-5.78853e-07
-3.42857e-07
-3.84347e-07
-4.63173e-07
-2.38031e-07
-2.6594e-07
-1.9694e-07
-1.04029e-07
-1.25906e-07
-7.77441e-08
-2.40695e-08
-8.34088e-08
-3.79552e-08
2.55578e-08
-5.68029e-08
-1.35341e-08
5.74968e-08
-4.30192e-08
-3.44215e-10
7.70082e-08
-3.39245e-08
8.13346e-09
8.66135e-08
-2.71243e-08
1.45229e-08
8.75313e-08
-2.14286e-08
1.99284e-08
8.06434e-08
-1.64531e-08
2.47335e-08
6.69001e-08
-1.21778e-08
2.89319e-08
4.75511e-08
-8.72621e-09
3.23555e-08
2.41881e-08
-6.27464e-09
3.48081e-08
-1.32152e-09
-4.96572e-09
3.61173e-08
-2.69633e-08
-4.87601e-09
3.61924e-08
-5.07472e-08
-5.98804e-09
3.50477e-08
-7.08858e-08
-8.18471e-09
3.28075e-08
-8.59533e-08
-1.12604e-08
2.9696e-08
-9.50031e-08
-1.49377e-08
2.60015e-08
-9.76511e-08
-1.89005e-08
2.20614e-08
-9.40628e-08
-2.27982e-08
1.82197e-08
-8.49676e-08
-2.62879e-08
1.47736e-08
-7.15812e-08
-2.90168e-08
1.19571e-08
-5.55201e-08
-3.06107e-08
9.91129e-09
-3.86848e-08
-3.06454e-08
8.62938e-09
-2.30955e-08
-2.86168e-08
7.9036e-09
-1.06492e-08
-2.39451e-08
7.25354e-09
-2.75911e-09
-1.60574e-08
5.84213e-09
-5.33572e-09
2.76713e-09
-3.58485e-07
-3.15798e-07
-3.58477e-07
-2.32903e-07
-3.11127e-07
-1.98801e-07
-1.44089e-07
-2.36081e-07
-1.18673e-07
-5.47731e-08
-1.61864e-07
-5.33582e-08
9.08323e-09
-1.28586e-07
-1.86792e-08
5.57317e-08
-1.06491e-07
3.03991e-09
8.85131e-08
-9.24545e-08
1.6654e-08
1.09471e-07
-8.14432e-08
2.65604e-08
1.19517e-07
-7.18521e-08
3.46828e-08
1.19155e-07
-6.29589e-08
4.18916e-08
1.09007e-07
-5.47148e-08
4.84099e-08
9.0068e-08
-4.73803e-08
5.41418e-08
6.38682e-08
-4.13475e-08
5.88211e-08
3.24349e-08
-3.70138e-08
6.21725e-08
-1.79774e-09
-3.46909e-08
6.39579e-08
-3.61919e-08
-3.45389e-08
6.40571e-08
-6.81347e-08
-3.65316e-08
6.24863e-08
-9.52736e-08
-4.04508e-08
5.9405e-08
-1.1574e-07
-4.59e-08
5.51058e-08
-1.28289e-07
-5.23505e-08
4.99624e-08
-1.32417e-07
-5.91823e-08
4.44098e-08
-1.28349e-07
-6.57254e-08
3.88593e-08
-1.17028e-07
-7.12983e-08
3.36888e-08
-9.9997e-08
-7.52057e-08
2.91582e-08
-7.92832e-08
-7.67237e-08
2.53993e-08
-5.72181e-08
-7.50614e-08
2.23509e-08
-3.62058e-08
-6.93278e-08
1.96988e-08
-1.84621e-08
-5.84925e-08
1.68038e-08
-5.78281e-09
-4.13583e-08
1.26216e-08
-1.69102e-08
5.79167e-09
-6.51966e-08
-1.85413e-07
-6.51883e-08
-7.95746e-08
-2.24721e-07
-7.20285e-08
-4.8483e-08
-2.1772e-07
-4.94524e-08
1.50493e-09
-1.94512e-07
-1.73396e-08
4.8052e-08
-1.7992e-07
4.78662e-09
8.75106e-08
-1.67046e-07
2.10959e-08
1.17676e-07
-1.55929e-07
3.33083e-08
1.37618e-07
-1.44813e-07
4.34284e-08
1.46647e-07
-1.33364e-07
5.24822e-08
1.4446e-07
-1.21676e-07
6.09042e-08
1.31305e-07
-1.10246e-07
6.86862e-08
1.08103e-07
-9.97705e-08
7.55928e-08
7.6509e-08
-9.10099e-08
8.12562e-08
3.88407e-08
-8.46637e-08
8.53182e-08
-2.0801e-09
-8.12507e-08
8.74806e-08
-4.31652e-08
-8.10439e-08
8.75902e-08
-8.13486e-08
-8.40119e-08
8.56637e-08
-1.13873e-07
-8.98185e-08
8.1892e-08
-1.3854e-07
-9.78504e-08
7.6618e-08
-1.53907e-07
-1.07273e-07
7.02893e-08
-1.59377e-07
-1.17115e-07
6.34028e-08
-1.55223e-07
-1.26325e-07
5.64452e-08
-1.42512e-07
-1.33838e-07
4.98286e-08
-1.22999e-07
-1.38556e-07
4.38374e-08
-9.8942e-08
-1.39374e-07
3.8593e-08
-7.29044e-08
-1.35094e-07
3.39952e-08
-4.75192e-08
-1.24377e-07
2.96638e-08
-2.52487e-08
-1.05617e-07
2.48544e-08
-8.37107e-09
-7.65946e-08
1.83588e-08
-3.36619e-08
8.38069e-09
-2.96809e-08
-1.26061e-07
-2.96714e-08
-2.58401e-08
-2.02437e-07
-2.61243e-08
1.13912e-09
-2.33836e-07
-1.0863e-08
4.01293e-08
-2.41554e-07
8.05215e-09
7.97137e-08
-2.42974e-07
2.347e-08
1.15361e-07
-2.39082e-07
3.63889e-08
1.4369e-07
-2.31765e-07
4.75077e-08
1.62533e-07
-2.21391e-07
5.77353e-08
1.70362e-07
-2.08723e-07
6.75302e-08
1.66349e-07
-1.94657e-07
7.69942e-08
1.50455e-07
-1.80272e-07
8.59202e-08
1.23534e-07
-1.66767e-07
9.39168e-08
8.73235e-08
-1.55319e-07
1.00519e-07
4.43607e-08
-1.46962e-07
1.05261e-07
-2.21196e-09
-1.42463e-07
1.07785e-07
-4.89379e-08
-1.42215e-07
1.07897e-07
-9.23715e-08
-1.46189e-07
1.05611e-07
-1.29419e-07
-1.53922e-07
1.01151e-07
-1.57621e-07
-1.64565e-07
9.4917e-08
-1.7537e-07
-1.76956e-07
8.74322e-08
-1.8201e-07
-1.89749e-07
7.92738e-08
-1.77839e-07
-2.01486e-07
7.09909e-08
-1.64038e-07
-2.10673e-07
6.30336e-08
-1.42501e-07
-2.15816e-07
5.57234e-08
-1.15657e-07
-2.15396e-07
4.91781e-08
-8.62419e-08
-2.07782e-07
4.32732e-08
-5.70736e-08
-1.91125e-07
3.75795e-08
-3.0885e-08
-1.63065e-07
3.12587e-08
-1.04566e-08
-1.19971e-07
2.29484e-08
-5.45857e-08
1.04672e-08
-5.72636e-09
-1.14619e-07
-5.71554e-09
7.31014e-09
-2.17334e-07
1.86041e-09
3.38118e-08
-2.7356e-07
1.32226e-08
6.88859e-08
-3.02637e-07
2.60091e-08
1.05577e-07
-3.17413e-07
3.77486e-08
1.3945e-07
-3.21685e-07
4.87308e-08
1.66814e-07
-3.18426e-07
5.92962e-08
1.84912e-07
-3.09315e-07
6.98263e-08
1.91729e-07
-2.95983e-07
8.04423e-08
1.86083e-07
-2.8002e-07
9.10092e-08
1.67738e-07
-2.63074e-07
1.01147e-07
1.37484e-07
-2.46833e-07
1.1032e-07
9.71283e-08
-2.32901e-07
1.17939e-07
4.94145e-08
-2.2267e-07
1.23422e-07
-2.22869e-09
-2.17154e-07
1.26335e-07
-5.40033e-08
-2.16883e-07
1.26442e-07
-1.02121e-07
-2.21828e-07
1.23756e-07
-1.43174e-07
-2.31401e-07
1.18533e-07
-1.74474e-07
-2.44509e-07
1.11243e-07
-1.94274e-07
-2.59661e-07
1.02506e-07
-2.01877e-07
-2.75136e-07
9.29892e-08
-1.97619e-07
-2.89053e-07
8.33097e-08
-1.82782e-07
-2.99519e-07
7.40083e-08
-1.59391e-07
-3.04626e-07
6.54186e-08
-1.30026e-07
-3.02433e-07
5.76723e-08
-9.75824e-08
-2.90854e-07
5.06279e-08
-6.50738e-08
-2.67449e-07
4.38154e-08
-3.55008e-08
-2.28947e-07
3.63096e-08
-1.21145e-08
-1.69942e-07
2.65842e-08
-7.88264e-08
1.21262e-08
4.93188e-09
-1.24495e-07
4.94398e-09
2.42835e-08
-2.53196e-07
1.65105e-08
5.3565e-08
-3.30225e-07
2.73836e-08
8.90132e-08
-3.76103e-07
3.80174e-08
1.25671e-07
-4.02299e-07
4.82276e-08
1.59509e-07
-4.13991e-07
5.84678e-08
1.86872e-07
-4.14854e-07
6.90647e-08
2.04776e-07
-4.07427e-07
8.02087e-08
2.10957e-07
-3.94008e-07
9.18439e-08
2.04e-07
-3.76739e-07
1.03676e-07
1.83527e-07
-3.57785e-07
1.15183e-07
1.50292e-07
-3.39283e-07
1.25685e-07
1.06184e-07
-3.23238e-07
1.34445e-07
5.41266e-08
-3.11384e-07
1.40771e-07
-2.16428e-09
-3.04991e-07
1.44128e-07
-5.85623e-08
-3.04711e-07
1.44226e-07
-1.10946e-07
-3.10522e-07
1.41077e-07
-1.55613e-07
-3.21717e-07
1.34983e-07
-1.89657e-07
-3.36968e-07
1.26503e-07
-2.1121e-07
-3.54467e-07
1.16358e-07
-2.19551e-07
-3.72122e-07
1.05329e-07
-2.15076e-07
-3.87679e-07
9.41506e-08
-1.99175e-07
-3.98842e-07
8.34222e-08
-1.74011e-07
-4.03318e-07
7.35279e-08
-1.42315e-07
-3.98747e-07
6.46183e-08
-1.07146e-07
-3.82558e-07
5.65345e-08
-7.17067e-08
-3.51652e-07
4.87641e-08
-3.92574e-08
-3.017e-07
4.03036e-08
-1.34354e-08
-2.25234e-07
2.94706e-08
-1.0571e-07
1.34484e-08
1.02726e-08
-1.45053e-07
1.02857e-08
3.41026e-08
-3.0179e-07
2.47635e-08
6.63514e-08
-3.98535e-07
3.60612e-08
1.03422e-07
-4.59299e-07
4.61265e-08
1.41183e-07
-4.95963e-07
5.59029e-08
1.75833e-07
-5.14758e-07
6.61167e-08
2.03768e-07
-5.1996e-07
7.71714e-08
2.2191e-07
-5.14773e-07
8.92033e-08
2.27802e-07
-5.0196e-07
1.0206e-07
2.19888e-07
-4.84149e-07
1.15324e-07
1.9766e-07
-4.63913e-07
1.28356e-07
1.61844e-07
-4.43809e-07
1.40342e-07
1.14398e-07
-4.26186e-07
1.50393e-07
5.84412e-08
-4.1309e-07
1.57664e-07
-2.04816e-09
-4.06013e-07
1.61511e-07
-6.26221e-08
-4.05738e-07
1.61601e-07
-1.18835e-07
-4.12246e-07
1.57938e-07
-1.66702e-07
-4.24717e-07
1.50867e-07
-2.03115e-07
-4.41602e-07
1.41047e-07
-2.26103e-07
-4.60824e-07
1.29345e-07
-2.34951e-07
-4.79949e-07
1.16674e-07
-2.30133e-07
-4.96376e-07
1.03879e-07
-2.13151e-07
-5.07459e-07
9.16348e-08
-1.8632e-07
-5.10542e-07
8.03923e-08
-1.52526e-07
-5.02867e-07
7.0327e-08
-1.14983e-07
-4.81372e-07
6.12706e-08
-7.70636e-08
-4.42234e-07
5.26635e-08
-4.2248e-08
-3.79937e-07
4.34214e-08
-1.44759e-08
-2.84729e-07
3.17229e-08
-1.34676e-07
1.44901e-08
1.30695e-08
-1.71206e-07
1.30833e-08
3.98553e-08
-3.58085e-07
2.95097e-08
7.45613e-08
-4.74654e-07
4.1413e-08
1.13407e-07
-5.4968e-07
5.1535e-08
1.52567e-07
-5.96532e-07
6.14086e-08
1.8832e-07
-6.22501e-07
7.19898e-08
2.17092e-07
-6.32492e-07
8.37594e-08
2.35722e-07
-6.30243e-07
9.68411e-08
2.41636e-07
-6.18928e-07
1.11054e-07
2.33114e-07
-6.01513e-07
1.25886e-07
2.09578e-07
-5.80945e-07
1.40569e-07
1.71681e-07
-5.60062e-07
1.5415e-07
1.21451e-07
-5.41524e-07
1.65568e-07
6.21754e-08
-5.27651e-07
1.73837e-07
-1.90593e-09
-5.20146e-07
1.78214e-07
-6.605e-08
-5.19886e-07
1.78292e-07
-1.25509e-07
-5.26859e-07
1.74072e-07
-1.76044e-07
-5.40144e-07
1.65962e-07
-2.14361e-07
-5.58023e-07
1.54738e-07
-2.3842e-07
-5.78152e-07
1.41386e-07
-2.47527e-07
-5.97801e-07
1.26959e-07
-2.42253e-07
-6.14113e-07
1.12462e-07
-2.24228e-07
-6.24147e-07
9.86631e-08
-1.95933e-07
-6.24914e-07
8.60766e-08
-1.60385e-07
-6.13295e-07
7.48799e-08
-1.20931e-07
-5.85729e-07
6.49033e-08
-8.10816e-08
-5.3766e-07
5.55766e-08
-4.44706e-08
-4.62267e-07
4.57187e-08
-1.5245e-08
-3.47328e-07
3.33728e-08
-1.65181e-07
1.52601e-08
1.45403e-08
-2.00301e-07
1.45544e-08
4.31113e-08
-4.18793e-07
3.21369e-08
7.94687e-08
-5.55502e-07
4.44904e-08
1.19653e-07
-6.44694e-07
5.48301e-08
1.59919e-07
-7.01803e-07
6.50061e-08
1.96606e-07
-7.35297e-07
7.61088e-08
2.26176e-07
-7.50759e-07
8.86978e-08
2.45358e-07
-7.52337e-07
1.02911e-07
2.51506e-07
-7.43584e-07
1.18509e-07
2.42771e-07
-7.27718e-07
1.34939e-07
2.18422e-07
-7.07906e-07
1.5131e-07
1.79085e-07
-6.87235e-07
1.6651e-07
1.26824e-07
-6.68598e-07
1.79336e-07
6.50564e-08
-6.54531e-07
1.88648e-07
-1.75751e-09
-6.46885e-07
1.93554e-07
-6.86159e-08
-6.46647e-07
1.9362e-07
-1.30514e-07
-6.53808e-07
1.88848e-07
-1.82985e-07
-6.67353e-07
1.79679e-07
-2.22592e-07
-6.85411e-07
1.66995e-07
-2.47268e-07
-7.05436e-07
1.5196e-07
-2.56358e-07
-7.24509e-07
1.35798e-07
-2.50552e-07
-7.39525e-07
1.19606e-07
-2.31633e-07
-7.47335e-07
1.04269e-07
-2.02196e-07
-7.44715e-07
9.03638e-08
-1.65384e-07
-7.28212e-07
7.81056e-08
-1.24636e-07
-6.93808e-07
6.7331e-08
-8.35556e-08
-6.36138e-07
5.73976e-08
-4.58342e-08
-5.47073e-07
4.7085e-08
-1.57205e-08
-4.11802e-07
3.43608e-08
-1.96638e-07
1.57362e-08
1.51773e-08
-2.30668e-07
1.51905e-08
4.44995e-08
-4.81359e-07
3.32442e-08
8.15161e-08
-6.38312e-07
4.57932e-08
1.2221e-07
-7.41667e-07
5.62787e-08
1.62922e-07
-8.09234e-07
6.67187e-08
2.00058e-07
-8.50757e-07
7.83251e-08
2.30081e-07
-8.72483e-07
9.17004e-08
2.49729e-07
-8.78964e-07
1.06979e-07
2.56246e-07
-8.74003e-07
1.23902e-07
2.47662e-07
-8.60984e-07
1.4185e-07
2.23128e-07
-8.43193e-07
1.59822e-07
1.83192e-07
-8.23885e-07
1.76586e-07
1.29898e-07
-8.06072e-07
1.90768e-07
6.67556e-08
-7.92463e-07
2.01074e-07
-1.61886e-09
-7.85005e-07
2.06494e-07
-7.00212e-08
-7.84792e-07
2.06547e-07
-1.3325e-07
-7.91803e-07
2.01223e-07
-1.86662e-07
-8.04972e-07
1.91031e-07
-2.26762e-07
-8.22289e-07
1.76979e-07
-2.51486e-07
-8.41063e-07
1.6035e-07
-2.60235e-07
-8.58269e-07
1.42509e-07
-2.53861e-07
-8.70622e-07
1.24723e-07
-2.34282e-07
-8.74896e-07
1.07982e-07
-2.04193e-07
-8.67698e-07
9.28947e-08
-1.66807e-07
-8.45311e-07
7.97133e-08
-1.25605e-07
-8.03284e-07
6.82735e-08
-8.41582e-08
-7.35516e-07
5.7931e-08
-4.61615e-08
-6.32474e-07
4.74042e-08
-1.58483e-08
-4.76689e-07
3.45734e-08
-2.2835e-07
1.58642e-08
1.5144e-08
-2.60969e-07
1.51565e-08
4.41794e-08
-5.43397e-07
3.30021e-08
8.07224e-08
-7.20228e-07
4.5373e-08
1.20833e-07
-8.37585e-07
5.58078e-08
1.61018e-07
-9.15812e-07
6.63925e-08
1.97782e-07
-9.65884e-07
7.83618e-08
2.27695e-07
-9.94731e-07
9.23341e-08
2.4754e-07
-1.00729e-06
1.08485e-07
2.54472e-07
-1.00746e-06
1.26527e-07
2.46455e-07
-9.98757e-07
1.4579e-07
2.22512e-07
-9.8445e-07
1.65201e-07
1.83015e-07
-9.67787e-07
1.83398e-07
1.29992e-07
-9.51892e-07
1.98843e-07
6.69132e-08
-9.39473e-07
2.10088e-07
-1.4981e-09
-9.32601e-07
2.16007e-07
-6.99245e-08
-9.32415e-07
2.1605e-07
-1.33039e-07
-9.38911e-07
2.10222e-07
-1.86145e-07
-9.50931e-07
1.99065e-07
-2.25709e-07
-9.66419e-07
1.83694e-07
-2.49728e-07
-9.82631e-07
1.65587e-07
-2.57803e-07
-9.9646e-07
1.46267e-07
-2.5087e-07
-1.00468e-06
1.27125e-07
-2.30972e-07
-1.00401e-06
1.09213e-07
-2.00891e-07
-9.90965e-07
9.3185e-08
-1.6383e-07
-9.61698e-07
7.93259e-08
-1.23193e-07
-9.11365e-07
6.74444e-08
-8.24819e-08
-8.33119e-07
5.68924e-08
-4.52477e-08
-7.16106e-07
4.63978e-08
-1.55437e-08
-5.40217e-07
3.38242e-08
-2.59453e-07
1.55591e-08
1.44812e-08
-2.89944e-07
1.44943e-08
4.21299e-08
-6.02495e-07
3.14496e-08
7.68731e-08
-7.98188e-07
4.32169e-08
1.15071e-07
-9.29065e-07
5.32822e-08
1.53439e-07
-1.0179e-06
6.37209e-08
1.8876e-07
-1.07697e-06
7.57675e-08
2.17787e-07
-1.11378e-06
9.00247e-08
2.37382e-07
-1.13359e-06
1.06704e-07
2.4475e-07
-1.14035e-06
1.25521e-07
2.3775e-07
-1.13754e-06
1.4578e-07
2.15258e-07
-1.12832e-06
1.66362e-07
1.7751e-07
-1.1158e-06
1.85757e-07
1.26346e-07
-1.10302e-06
2.02294e-07
6.51414e-08
-1.09265e-06
2.14383e-07
-1.40267e-09
-1.08682e-06
2.2076e-07
-6.79515e-08
-1.08666e-06
2.20789e-07
-1.29173e-07
-1.09216e-06
2.14469e-07
-1.80351e-07
-1.10219e-06
2.02439e-07
-2.18089e-07
-1.11463e-06
1.85949e-07
-2.40575e-07
-1.12677e-06
1.66625e-07
-2.47549e-07
-1.13563e-06
1.4614e-07
-2.40113e-07
-1.13809e-06
1.25969e-07
-2.20387e-07
-1.13095e-06
1.07218e-07
-1.91158e-07
-1.11081e-06
9.06206e-08
-1.55517e-07
-1.07376e-06
7.64174e-08
-1.16746e-07
-1.01456e-06
6.44226e-08
-7.80851e-08
-9.25781e-07
5.40009e-08
-4.28151e-08
-7.95258e-07
4.38822e-08
-1.47314e-08
-6.00274e-07
3.19731e-08
-2.88931e-07
1.47462e-08
1.31591e-08
-3.16267e-07
1.31639e-08
3.81938e-08
-6.55998e-07
2.8468e-08
6.96749e-08
-8.6879e-07
3.91208e-08
1.04375e-07
-1.01221e-06
4.84409e-08
1.39453e-07
-1.11134e-06
5.83632e-08
1.72022e-07
-1.17961e-06
7.00641e-08
1.99138e-07
-1.22509e-06
8.41878e-08
2.1788e-07
-1.25324e-06
1.0091e-07
2.25575e-07
-1.26804e-06
1.19999e-07
2.20052e-07
-1.27276e-06
1.40749e-07
2.00051e-07
-1.27033e-06
1.62015e-07
1.6558e-07
-1.26361e-06
1.82284e-07
1.18184e-07
-1.25538e-06
1.99752e-07
6.10447e-08
-1.24813e-06
2.12616e-07
-1.33188e-09
-1.24387e-06
2.19435e-07
-6.37028e-08
-1.24374e-06
2.19451e-07
-1.20817e-07
-1.24771e-06
2.12667e-07
-1.68182e-07
-1.25467e-06
1.99839e-07
-2.02615e-07
-1.26262e-06
1.82427e-07
-2.22557e-07
-1.26904e-06
1.62209e-07
-2.27978e-07
-1.27117e-06
1.40962e-07
-2.20154e-07
-1.26619e-06
1.20277e-07
-2.0123e-07
-1.25114e-06
1.0126e-07
-1.73884e-07
-1.22275e-06
8.45915e-08
-1.41035e-07
-1.17713e-06
7.05253e-08
-1.05622e-07
-1.10883e-06
5.8855e-08
-7.05269e-08
-1.00979e-06
4.89177e-08
-3.86648e-08
-8.66679e-07
3.95587e-08
-1.33138e-08
-6.54433e-07
2.88083e-08
-3.15572e-07
1.33274e-08
1.11293e-08
-3.38531e-07
1.11345e-08
3.22309e-08
-7.0107e-07
2.39705e-08
5.88473e-08
-9.28387e-07
3.29812e-08
8.83308e-08
-1.08277e-06
4.10848e-08
1.18388e-07
-1.19142e-06
5.00168e-08
1.46648e-07
-1.26872e-06
6.08503e-08
1.70616e-07
-1.32323e-06
7.41798e-08
1.87724e-07
-1.36055e-06
9.01987e-08
1.95535e-07
-1.3846e-06
1.08742e-07
1.91914e-07
-1.39836e-06
1.29215e-07
1.75472e-07
-1.4044e-06
1.50512e-07
1.4599e-07
-1.4052e-06
1.71072e-07
1.04626e-07
-1.40301e-06
1.88991e-07
5.41487e-08
-1.40003e-06
2.02377e-07
-1.28531e-09
-1.39798e-06
2.0954e-07
-5.67046e-08
-1.39786e-06
2.09544e-07
-1.07146e-07
-1.39966e-06
2.02393e-07
-1.48444e-07
-1.40239e-06
1.89023e-07
-1.77844e-07
-1.40434e-06
1.71111e-07
-1.94151e-07
-1.40332e-06
1.50587e-07
-1.97615e-07
-1.39706e-06
1.29358e-07
-1.89649e-07
-1.38309e-06
1.08933e-07
-1.7235e-07
-1.35885e-06
9.04146e-08
-1.48127e-07
-1.32141e-06
7.44369e-08
-1.19605e-07
-1.26679e-06
6.114e-08
-8.92395e-08
-1.18952e-06
5.03266e-08
-5.94633e-08
-1.08096e-06
4.13935e-08
-3.25696e-08
-9.26838e-07
3.32657e-08
-1.12322e-08
-6.99964e-07
2.41941e-08
-3.38049e-07
1.12446e-08
8.37074e-09
-3.55275e-07
8.373e-09
2.42137e-08
-7.34823e-07
1.79106e-08
4.4234e-08
-9.73096e-07
2.46887e-08
6.66501e-08
-1.13625e-06
3.10568e-08
8.98352e-08
-1.25303e-06
3.84276e-08
1.12071e-07
-1.33865e-06
4.76996e-08
1.31463e-07
-1.40203e-06
5.94028e-08
1.45957e-07
-1.44883e-06
7.37876e-08
1.53454e-07
-1.48283e-06
9.07398e-08
1.5203e-07
-1.50669e-06
1.09754e-07
1.4028e-07
-1.52251e-06
1.29855e-07
1.17626e-07
-1.53219e-06
1.4965e-07
8.47975e-08
-1.53742e-06
1.67244e-07
4.3985e-08
-1.5398e-06
1.80588e-07
-1.25608e-09
-1.54056e-06
1.87823e-07
-4.6474e-08
-1.54046e-06
1.87818e-07
-8.72239e-08
-1.53949e-06
1.8058e-07
-1.19948e-07
-1.5369e-06
1.67236e-07
-1.42489e-07
-1.53146e-06
1.49668e-07
-1.54093e-07
-1.52161e-06
1.29897e-07
-1.55365e-07
-1.50559e-06
1.09802e-07
-1.47671e-07
-1.4816e-06
9.08198e-08
-1.32939e-07
-1.44748e-06
7.38995e-08
-1.13329e-07
-1.40057e-06
5.95461e-08
-9.08268e-08
-1.33716e-06
4.78691e-08
-6.73854e-08
-1.25158e-06
3.86153e-08
-4.46938e-08
-1.1349e-06
3.12492e-08
-2.44342e-08
-9.71968e-07
2.48698e-08
-8.43838e-09
-7.34018e-07
1.80578e-08
-3.54937e-07
8.44952e-09
4.8992e-09
-3.65077e-07
4.9028e-09
1.41261e-08
-7.54382e-07
1.03315e-08
2.59454e-08
-9.9923e-07
1.43145e-08
3.94611e-08
-1.16817e-06
1.84073e-08
5.39225e-08
-1.29107e-06
2.3585e-08
6.83446e-08
-1.38359e-06
3.05147e-08
8.15974e-08
-1.45486e-06
3.9583e-08
9.22946e-08
-1.51056e-06
5.10356e-08
9.88767e-08
-1.55428e-06
6.48672e-08
9.97534e-08
-1.58833e-06
8.07693e-08
9.35785e-08
-1.61433e-06
9.79955e-08
7.95793e-08
-1.63349e-06
1.15295e-07
5.79502e-08
-1.64677e-06
1.30979e-07
3.01162e-08
-1.65507e-06
1.431e-07
-1.24033e-09
-1.65895e-06
1.49745e-07
-3.2572e-08
-1.65888e-06
1.49752e-07
-6.03441e-08
-1.65481e-06
1.43087e-07
-8.18447e-08
-1.64633e-06
1.30932e-07
-9.56916e-08
-1.63286e-06
1.15246e-07
-1.01689e-07
-1.61357e-06
9.79558e-08
-1.00614e-07
-1.58741e-06
8.0746e-08
-9.38173e-08
-1.55326e-06
6.48668e-08
-8.28911e-08
-1.50947e-06
5.10625e-08
-6.94001e-08
-1.45369e-06
3.96369e-08
-5.47255e-08
-1.38243e-06
3.05924e-08
-4.00352e-08
-1.28995e-06
2.36811e-08
-2.62978e-08
-1.16716e-06
1.8514e-08
-1.42944e-08
-9.98392e-07
1.44211e-08
-4.94731e-09
-7.5379e-07
1.04252e-08
-3.64841e-07
4.95746e-09
8.00951e-10
-3.66673e-07
7.95103e-10
2.25623e-09
-7.57255e-07
1.41769e-09
4.40226e-09
-1.00345e-06
2.07009e-09
7.41785e-09
-1.17457e-06
3.38849e-09
1.14111e-08
-1.30082e-06
5.74825e-09
1.63554e-08
-1.39801e-06
9.47804e-09
2.19409e-08
-1.47532e-06
1.48685e-08
2.76243e-08
-1.5383e-06
2.20547e-08
3.25391e-08
-1.59032e-06
3.11199e-08
3.55885e-08
-1.63331e-06
4.19257e-08
3.57062e-08
-1.66844e-06
5.39944e-08
3.1956e-08
-1.69627e-06
6.65262e-08
2.40705e-08
-1.71708e-06
7.81955e-08
1.25123e-08
-1.73095e-06
8.74422e-08
-1.2324e-09
-1.73785e-06
9.26474e-08
-1.4947e-08
-1.73779e-06
9.26277e-08
-2.64244e-08
-1.73072e-06
8.739e-08
-3.41752e-08
-1.7167e-06
7.81176e-08
-3.77438e-08
-1.69575e-06
6.64578e-08
-3.74415e-08
-1.66779e-06
5.39231e-08
-3.41609e-08
-1.63254e-06
4.18454e-08
-2.90168e-08
-1.58946e-06
3.10573e-08
-2.31077e-08
-1.53739e-06
2.2016e-08
-1.72725e-08
-1.47438e-06
1.48538e-08
-1.21158e-08
-1.39707e-06
9.48553e-09
-7.89246e-09
-1.29995e-06
5.77685e-09
-4.68221e-09
-1.1738e-06
3.43334e-09
-2.39517e-09
-1.00281e-06
2.12682e-09
-8.25659e-10
-7.56836e-07
1.47588e-09
-3.66502e-07
8.35193e-10
-3.77188e-09
-3.59125e-07
-3.77626e-09
-1.09286e-08
-7.41632e-07
-8.46606e-09
-1.95406e-08
-9.83327e-07
-1.15064e-08
-2.82651e-08
-1.15246e-06
-1.33899e-08
-3.6032e-08
-1.27868e-06
-1.43686e-08
-4.19163e-08
-1.37759e-06
-1.45333e-08
-4.52638e-08
-1.45814e-06
-1.38327e-08
-4.56899e-08
-1.52571e-06
-1.21672e-08
-4.32271e-08
-1.58332e-06
-9.46578e-09
-3.82131e-08
-1.63267e-06
-5.65454e-09
-3.13891e-08
-1.67444e-06
-8.27137e-10
-2.36313e-08
-1.70869e-06
4.66903e-09
-1.57605e-08
-1.73509e-06
1.01352e-08
-8.29916e-09
-1.75313e-06
1.4712e-08
-1.22667e-09
-1.76228e-06
1.73546e-08
5.88205e-09
-1.76221e-06
1.73063e-08
1.34511e-08
-1.75291e-06
1.46215e-08
2.14524e-08
-1.73473e-06
1.00318e-08
2.93832e-08
-1.7082e-06
4.52321e-09
3.64218e-08
-1.67385e-06
-9.78995e-10
4.16662e-08
-1.632e-06
-5.78082e-09
4.43803e-08
-1.5826e-06
-9.57698e-09
4.41847e-08
-1.52494e-06
-1.22595e-08
4.10864e-08
-1.45738e-06
-1.39015e-08
3.54285e-08
-1.37684e-06
-1.45779e-08
2.7858e-08
-1.27798e-06
-1.43922e-08
1.93095e-08
-1.15186e-06
-1.33911e-08
1.08459e-08
-9.82854e-07
-1.14877e-08
3.75475e-09
-7.41311e-07
-8.43339e-09
-3.59002e-07
-3.74539e-09
-8.58895e-09
-3.41943e-07
-8.59282e-09
-2.47833e-08
-7.06573e-07
-1.88646e-08
-4.46474e-08
-9.37671e-07
-2.57923e-08
-6.57311e-08
-1.1003e-06
-3.10758e-08
-8.59408e-08
-1.2228e-06
-3.56734e-08
-1.03411e-07
-1.31997e-06
-4.01547e-08
-1.16431e-07
-1.40036e-06
-4.47545e-08
-1.23671e-07
-1.46899e-06
-4.9484e-08
-1.24159e-07
-1.52865e-06
-5.41797e-08
-1.17481e-07
-1.58075e-06
-5.85957e-08
-1.03826e-07
-1.62562e-06
-6.24741e-08
-8.39605e-08
-1.66299e-06
-6.55686e-08
-5.91557e-08
-1.69215e-06
-6.77405e-08
-3.10084e-08
-1.71228e-06
-6.89894e-08
-1.21461e-09
-1.72257e-06
-6.95031e-08
2.86104e-08
-1.7225e-06
-6.95316e-08
5.68418e-08
-1.71208e-06
-6.90663e-08
8.18136e-08
-1.69185e-06
-6.78583e-08
1.01868e-07
-1.66255e-06
-6.57122e-08
1.15743e-07
-1.6251e-06
-6.26281e-08
1.22659e-07
-1.58017e-06
-5.87501e-08
1.22407e-07
-1.52802e-06
-5.43238e-08
1.15423e-07
-1.46834e-06
-4.96112e-08
1.02629e-07
-1.39973e-06
-4.48608e-08
8.53815e-08
-1.31935e-06
-4.02369e-08
6.53777e-08
-1.22225e-06
-3.57314e-08
4.44589e-08
-1.09983e-06
-3.11086e-08
2.47009e-08
-9.37296e-07
-2.58004e-08
8.57847e-09
-7.06339e-07
-1.88498e-08
-3.41855e-07
-8.56889e-09
-1.33362e-08
-3.15265e-07
-1.33411e-08
-3.84204e-08
-6.52413e-07
-2.90757e-08
-6.93928e-08
-8.66897e-07
-3.98012e-08
-1.02669e-07
-1.01855e-06
-4.84751e-08
-1.35243e-07
-1.13345e-06
-5.67734e-08
-1.64281e-07
-1.22526e-06
-6.5665e-08
-1.8709e-07
-1.30189e-06
-7.56671e-08
-2.01298e-07
-1.36785e-06
-8.69238e-08
-2.04954e-07
-1.42574e-06
-9.92533e-08
-1.96817e-07
-1.47662e-06
-1.12263e-07
-1.76484e-07
-1.52071e-06
-1.25242e-07
-1.44599e-07
-1.55758e-06
-1.37291e-07
-1.0284e-07
-1.58643e-06
-1.4748e-07
-5.39072e-08
-1.60636e-06
-1.54854e-07
-1.19536e-09
-1.61655e-06
-1.58736e-07
5.15527e-08
-1.61649e-06
-1.58764e-07
1.00589e-07
-1.6062e-06
-1.54912e-07
1.42481e-07
-1.58616e-06
-1.47579e-07
1.74562e-07
-1.55719e-06
-1.37439e-07
1.95119e-07
-1.52025e-06
-1.25407e-07
2.03496e-07
-1.47611e-06
-1.12433e-07
2.00076e-07
-1.42519e-06
-9.94163e-08
1.86125e-07
-1.36732e-06
-8.70722e-08
1.6354e-07
-1.30135e-06
-7.57977e-08
1.34727e-07
-1.22477e-06
-6.57719e-08
1.02338e-07
-1.133e-06
-5.68547e-08
6.92184e-08
-1.01818e-06
-4.85297e-08
3.83632e-08
-8.66614e-07
-3.98264e-08
1.33309e-08
-6.52235e-07
-2.90718e-08
-3.15203e-07
-1.33207e-08
-1.76929e-08
-2.79876e-07
-1.76968e-08
-5.09092e-08
-5.80785e-07
-3.8412e-08
-9.20266e-08
-7.73159e-07
-5.26211e-08
-1.36524e-07
-9.09669e-07
-6.43821e-08
-1.80534e-07
-1.0134e-06
-7.60372e-08
-2.20318e-07
-1.09648e-06
-8.90017e-08
-2.52281e-07
-1.16591e-06
-1.04016e-07
-2.73043e-07
-1.22578e-06
-1.21311e-07
-2.79753e-07
-1.27829e-06
-1.40735e-07
-2.70337e-07
-1.32441e-06
-1.61632e-07
-2.4387e-07
-1.36427e-06
-1.8291e-07
-2.00857e-07
-1.39744e-06
-2.03154e-07
-1.43375e-07
-1.4233e-06
-2.20609e-07
-7.51406e-08
-1.44109e-06
-2.3351e-07
-1.16597e-09
-1.45014e-06
-2.40379e-07
7.28375e-08
-1.45009e-06
-2.40404e-07
1.41165e-07
-1.44092e-06
-2.33604e-07
1.98783e-07
-1.42304e-06
-2.2074e-07
2.42006e-07
-1.39711e-06
-2.03297e-07
2.68681e-07
-1.36385e-06
-1.83071e-07
2.78324e-07
-1.32395e-06
-1.618e-07
2.71868e-07
-1.27783e-06
-1.40902e-07
2.51331e-07
-1.22531e-06
-1.2147e-07
2.19608e-07
-1.16547e-06
-1.04157e-07
1.80029e-07
-1.09607e-06
-8.91229e-08
1.36206e-07
-1.01305e-06
-7.6135e-08
9.18669e-08
-9.09402e-07
-6.44407e-08
5.08475e-08
-7.72948e-07
-5.26469e-08
1.76898e-08
-5.8066e-07
-3.84167e-08
-2.79834e-07
-1.76795e-08
-2.13012e-08
-2.3727e-07
-2.13048e-08
-6.1231e-08
-4.94747e-07
-4.61082e-08
-1.10802e-07
-6.60467e-07
-6.31206e-08
-1.64718e-07
-7.78363e-07
-7.73907e-08
-2.1844e-07
-8.67866e-07
-9.18151e-08
-2.67454e-07
-9.3933e-07
-1.08135e-07
-3.07291e-07
-9.98781e-07
-1.27288e-07
-3.33727e-07
-1.04974e-06
-1.49608e-07
-3.43089e-07
-1.09411e-06
-1.74826e-07
-3.32614e-07
-1.13277e-06
-2.02116e-07
-3.00945e-07
-1.16583e-06
-2.30106e-07
-2.48428e-07
-1.1931e-06
-2.56857e-07
-1.7761e-07
-1.21411e-06
-2.80013e-07
-9.30617e-08
-1.22842e-06
-2.97215e-07
-1.12276e-09
-1.23564e-06
-3.06437e-07
9.0845e-08
-1.2356e-06
-3.06458e-07
1.75477e-07
-1.22827e-06
-2.9728e-07
2.46444e-07
-1.21389e-06
-2.80114e-07
2.99109e-07
-1.19279e-06
-2.56988e-07
3.31009e-07
-1.16549e-06
-2.3026e-07
3.41712e-07
-1.13238e-06
-2.02277e-07
3.32594e-07
-1.09372e-06
-1.74992e-07
3.06391e-07
-1.04934e-06
-1.49767e-07
2.66772e-07
-9.98412e-07
-1.27434e-07
2.17972e-07
-9.39006e-07
-1.08262e-07
1.64436e-07
-8.6759e-07
-9.19202e-08
1.10653e-07
-7.7814e-07
-7.74798e-08
6.11818e-08
-6.60304e-07
-6.31727e-08
2.13001e-08
-4.9466e-07
-4.6118e-08
-2.37244e-07
-2.12895e-08
-2.37983e-08
-1.89673e-07
-2.37987e-08
-6.84234e-08
-3.98714e-07
-5.14075e-08
-1.24052e-07
-5.34522e-07
-7.03162e-08
-1.84913e-07
-6.31242e-07
-8.62594e-08
-2.45943e-07
-7.04274e-07
-1.02562e-07
-3.02017e-07
-7.62038e-07
-1.21218e-07
-3.47975e-07
-8.09539e-07
-1.43285e-07
-3.78884e-07
-8.49708e-07
-1.69119e-07
-3.90383e-07
-8.84211e-07
-1.98396e-07
-3.79182e-07
-9.13811e-07
-2.30155e-07
-3.43586e-07
-9.38709e-07
-2.62718e-07
-2.83976e-07
-9.58877e-07
-2.93836e-07
-2.03154e-07
-9.74145e-07
-3.20785e-07
-1.06398e-07
-9.84385e-07
-3.4079e-07
-1.06715e-09
-9.89508e-07
-3.51467e-07
1.04289e-07
-9.89467e-07
-3.51484e-07
2.01124e-07
-9.84266e-07
-3.40844e-07
2.82067e-07
-9.73958e-07
-3.20875e-07
3.41852e-07
-9.58628e-07
-2.9395e-07
3.77646e-07
-9.3843e-07
-2.62857e-07
3.89065e-07
-9.13498e-07
-2.30302e-07
3.77784e-07
-8.8389e-07
-1.98549e-07
3.47118e-07
-8.49408e-07
-1.6927e-07
3.01365e-07
-8.09234e-07
-1.43425e-07
2.45491e-07
-7.61786e-07
-1.21345e-07
1.84627e-07
-7.04057e-07
-1.02669e-07
1.23905e-07
-6.31079e-07
-8.63395e-08
6.83808e-08
-5.34416e-07
-7.03639e-08
2.37952e-08
-3.98654e-07
-5.14204e-08
-1.89663e-07
-2.37858e-08
-2.48254e-08
-1.40017e-07
-2.48298e-08
-7.1568e-08
-2.98442e-07
-5.35298e-08
-1.3023e-07
-4.02743e-07
-7.31175e-08
-1.94973e-07
-4.7685e-07
-8.96489e-08
-2.60413e-07
-5.32144e-07
-1.06689e-07
-3.20973e-07
-5.75084e-07
-1.26393e-07
-3.70983e-07
-6.09636e-07
-1.49893e-07
-4.04931e-07
-6.38237e-07
-1.77523e-07
-4.18038e-07
-6.62205e-07
-2.089e-07
-4.06637e-07
-6.82267e-07
-2.42945e-07
-3.68837e-07
-6.98684e-07
-2.77825e-07
-3.05032e-07
-7.11602e-07
-3.11079e-07
-2.18274e-07
-7.21119e-07
-3.39784e-07
-1.14273e-07
-7.27336e-07
-3.6105e-07
-9.95924e-10
-7.30384e-07
-3.72401e-07
1.12305e-07
-7.30353e-07
-3.72416e-07
2.16378e-07
-7.27244e-07
-3.61095e-07
3.03259e-07
-7.20987e-07
-3.39852e-07
3.67215e-07
-7.11427e-07
-3.11157e-07
4.05185e-07
-6.9847e-07
-2.77931e-07
4.1679e-07
-6.82024e-07
-2.43078e-07
4.03909e-07
-6.61968e-07
-2.09041e-07
3.70159e-07
-6.37993e-07
-1.77665e-07
3.2037e-07
-6.09419e-07
-1.50027e-07
2.59993e-07
-5.74892e-07
-1.26517e-07
1.9471e-07
-5.31983e-07
-1.06792e-07
1.30101e-07
-4.7674e-07
-8.97298e-08
7.1522e-08
-4.02669e-07
-7.3167e-08
2.4827e-08
-2.98414e-07
-5.35457e-08
-1.40017e-07
-2.48192e-08
-2.40381e-08
-9.19392e-08
-2.40402e-08
-6.97899e-08
-2.00973e-07
-5.17167e-08
-1.28027e-07
-2.74079e-07
-7.04272e-08
-1.93164e-07
-3.25539e-07
-8.61733e-08
-2.59731e-07
-3.63015e-07
-1.02562e-07
-3.21875e-07
-3.91149e-07
-1.21791e-07
-3.73572e-07
-4.1293e-07
-1.45009e-07
-4.09059e-07
-4.30222e-07
-1.72529e-07
-4.2325e-07
-4.44105e-07
-2.03908e-07
-4.12349e-07
-4.55175e-07
-2.37992e-07
-3.74392e-07
-4.63758e-07
-2.72883e-07
-3.09812e-07
-4.70107e-07
-3.06076e-07
-2.21742e-07
-4.74491e-07
-3.34698e-07
-1.16056e-07
-4.77169e-07
-3.55853e-07
-9.07903e-10
-4.78418e-07
-3.67114e-07
1.14261e-07
-4.78396e-07
-3.67126e-07
2.2001e-07
-4.77104e-07
-3.55889e-07
3.08183e-07
-4.74386e-07
-3.34774e-07
3.72907e-07
-4.69972e-07
-3.06179e-07
4.11022e-07
-4.63595e-07
-2.7299e-07
4.22111e-07
-4.55003e-07
-2.3811e-07
4.08104e-07
-4.43926e-07
-2.04035e-07
3.72822e-07
-4.30054e-07
-1.72657e-07
3.2131e-07
-4.12774e-07
-1.45133e-07
2.5934e-07
-3.91015e-07
-1.21906e-07
1.92926e-07
-3.6291e-07
-1.0266e-07
1.27907e-07
-3.25469e-07
-8.62521e-08
6.97538e-08
-2.74039e-07
-7.04769e-08
2.40379e-08
-2.00963e-07
-5.17351e-08
-9.19464e-08
-2.40327e-08
-2.10959e-08
-4.97451e-08
-2.10982e-08
-6.24125e-08
-1.14439e-07
-4.52174e-08
-1.16438e-07
-1.58888e-07
-6.11662e-08