/*--------------------------------*- C++ -*----------------------------------*\
| =========                 |                                                 |
| \\      /  F ield         | OpenFOAM: The Open Source CFD Toolbox           |
|  \\    /   O peration     | Version:  v1906                                 |
|   \\  /    A nd           | Web:      www.OpenFOAM.com                      |
|    \\/     M anipulation  |                                                 |
\*---------------------------------------------------------------------------*/
FoamFile
{
    version     2.0;
    format      ascii;
    class       volScalarField;
    location    "1000";
    object      alphat;
}
// * * * * * * * * * * * * * * * * * * * * * * * * * * * * * * * * * * * * * //

dimensions      [1 -1 -1 0 0 0 0];


internalField   nonuniform List<scalar> 
78750
(
1.29628e-07
9.98903e-06
1.42363e-05
1.82749e-05
2.2413e-05
2.42504e-05
2.4604e-05
2.44141e-05
2.40647e-05
2.37904e-05
2.36021e-05
2.35208e-05
2.35104e-05
2.35992e-05
2.3786e-05
2.39205e-05
2.43259e-05
2.46974e-05
2.61419e-05
2.64152e-05
2.57511e-05
2.68514e-05
2.66677e-05
2.71801e-05
2.93458e-05
2.88388e-05
2.67857e-05
2.5038e-05
2.29896e-05
2.06905e-05
1.90919e-05
1.73588e-05
1.4478e-05
1.14942e-05
4.49166e-07
5.13237e-08
1.09866e-05
1.21786e-05
1.27283e-05
1.5806e-05
2.23392e-05
3.10231e-05
3.84563e-05
4.33717e-05
4.71535e-05
5.03898e-05
5.32865e-05
5.60354e-05
5.79059e-05
6.09814e-05
6.37663e-05
6.423e-05
6.55285e-05
6.39883e-05
6.74338e-05
7.18966e-05
6.93006e-05
6.53233e-05
6.44793e-05
6.5592e-05
6.23303e-05
4.31846e-05
4.23339e-05
4.53758e-05
3.59008e-05
2.86957e-05
2.13189e-05
1.78056e-05
1.99153e-05
5.50123e-07
4.6983e-08
5.94213e-06
9.66305e-06
1.46681e-05
2.30717e-05
3.49141e-05
4.68795e-05
5.62272e-05
6.33936e-05
6.97356e-05
7.41997e-05
7.75179e-05
8.01416e-05
8.1493e-05
8.2742e-05
8.5752e-05
8.73919e-05
8.44826e-05
7.88357e-05
7.02755e-05
6.40843e-05
6.08702e-05
5.77792e-05
5.5074e-05
5.46926e-05
5.00597e-05
3.84457e-05
3.82592e-05
3.6364e-05
2.60819e-05
2.07756e-05
1.70183e-05
1.75483e-05
2.87759e-05
6.30399e-07
6.27723e-08
5.75328e-06
1.11359e-05
1.98368e-05
3.30517e-05
4.7057e-05
5.79532e-05
6.53605e-05
7.15767e-05
7.6789e-05
8.10106e-05
8.7695e-05
9.34289e-05
9.56641e-05
9.46863e-05
8.80407e-05
8.22031e-05
8.07747e-05
7.87178e-05
7.50237e-05
6.98663e-05
6.41839e-05
5.92661e-05
5.45885e-05
5.12518e-05
4.47226e-05
3.42209e-05
3.41479e-05
3.2422e-05
2.29441e-05
1.70097e-05
1.36327e-05
1.54363e-05
2.60007e-05
6.83207e-07
1.0653e-07
5.1604e-06
1.15378e-05
2.27533e-05
3.92579e-05
5.41286e-05
6.28612e-05
6.81057e-05
7.11128e-05
7.27111e-05
7.27778e-05
7.09226e-05
6.9807e-05
7.30488e-05
7.83687e-05
8.2886e-05
8.57457e-05
8.62342e-05
8.41777e-05
8.0572e-05
7.59786e-05
7.06323e-05
6.48745e-05
5.91125e-05
5.25145e-05
4.0779e-05
3.79367e-05
4.11404e-05
3.06347e-05
2.05992e-05
1.47877e-05
1.188e-05
1.41721e-05
2.26212e-05
7.42219e-07
1.6366e-07
5.50536e-06
1.39211e-05
3.05338e-05
5.25346e-05
6.71657e-05
7.48106e-05
7.84271e-05
7.87525e-05
7.84438e-05
7.42743e-05
6.83037e-05
6.83286e-05
7.21853e-05
7.61018e-05
8.01273e-05
8.35455e-05
8.58065e-05
8.63869e-05
8.49449e-05
8.15194e-05
7.64009e-05
7.02754e-05
6.42095e-05
5.86923e-05
5.00122e-05
3.89627e-05
3.69209e-05
3.03553e-05
1.94666e-05
1.33106e-05
1.08498e-05
1.3872e-05
1.96437e-05
7.7598e-07
2.56816e-07
5.72765e-06
1.55902e-05
3.62012e-05
5.97754e-05
7.12882e-05
7.57423e-05
7.51403e-05
7.02738e-05
6.22076e-05
5.80129e-05
5.93808e-05
6.23259e-05
6.7266e-05
7.56842e-05
8.43472e-05
9.07807e-05
9.38804e-05
9.37635e-05
9.15056e-05
8.77392e-05
8.22884e-05
7.59395e-05
6.9595e-05
6.28517e-05
5.30714e-05
4.25289e-05
3.99052e-05
3.08362e-05
1.85635e-05
1.23196e-05
1.00408e-05
1.32216e-05
1.84568e-05
8.05493e-07
3.47705e-07
6.29899e-06
1.80549e-05
4.26191e-05
6.59536e-05
7.46867e-05
7.53639e-05
7.07647e-05
6.38558e-05
5.69072e-05
5.25708e-05
5.16676e-05
5.489e-05
6.44928e-05
7.84073e-05
9.15883e-05
9.99959e-05
0.00010256
0.000100636
9.85001e-05
9.72633e-05
9.44512e-05
8.91987e-05
8.11977e-05
7.02725e-05
5.74484e-05
4.59723e-05
4.11477e-05
2.99076e-05
1.77084e-05
1.14098e-05
9.41146e-06
1.3292e-05
1.62621e-05
8.17513e-07
4.2915e-07
6.64787e-06
1.95553e-05
4.58843e-05
6.63183e-05
7.19958e-05
7.06407e-05
6.56135e-05
5.90176e-05
5.2309e-05
4.73851e-05
4.63055e-05
5.05677e-05
5.93979e-05
7.17827e-05
8.733e-05
9.92684e-05
0.000103729
0.00010218
0.000100325
0.000100317
9.92565e-05
9.61285e-05
8.9999e-05
8.00444e-05
6.61384e-05
5.19676e-05
4.37801e-05
2.99365e-05
1.71328e-05
1.08858e-05
9.1701e-06
1.35656e-05
1.52601e-05
8.15043e-07
4.7481e-07
6.76805e-06
2.01732e-05
4.7197e-05
6.60849e-05
7.024e-05
6.81236e-05
6.33046e-05
5.78269e-05
5.27012e-05
4.81608e-05
4.48806e-05
4.5099e-05
5.10252e-05
6.30165e-05
7.76578e-05
9.21155e-05
0.000102466
0.000104573
0.000104156
0.000105067
0.000105131
0.000103079
9.7909e-05
8.8565e-05
7.39234e-05
5.75797e-05
4.61078e-05
3.00036e-05
1.69226e-05
1.06881e-05
9.12492e-06
1.40542e-05
1.40847e-05
8.11878e-07
5.28851e-07
6.90948e-06
2.07243e-05
4.82856e-05
6.68183e-05
7.04257e-05
6.80903e-05
6.34025e-05
5.84695e-05
5.41564e-05
5.04871e-05
4.72547e-05
4.48876e-05
4.55165e-05
5.16196e-05
6.41885e-05
8.02007e-05
9.2877e-05
0.000100955
0.000105955
0.000108826
0.000109638
0.000108413
0.000104322
9.58303e-05
8.05581e-05
6.2304e-05
4.83101e-05
3.03969e-05
1.69938e-05
1.07236e-05
9.2477e-06
1.46663e-05
1.31565e-05
8.10382e-07
5.48004e-07
6.99764e-06
2.05838e-05
4.69069e-05
6.68225e-05
7.18894e-05
7.03381e-05
6.63965e-05
6.2247e-05
5.87483e-05
5.57446e-05
5.27907e-05
4.96006e-05
4.67172e-05
4.59255e-05
4.98099e-05
5.95623e-05
7.40118e-05
8.70813e-05
9.60967e-05
0.000103864
0.000108899
0.00010969
0.000106395
9.79969e-05
8.21792e-05
6.28619e-05
4.722e-05
2.91739e-05
1.64896e-05
1.06985e-05
9.59307e-06
1.59451e-05
1.21096e-05
8.01756e-07
5.48668e-07
6.98628e-06
2.04707e-05
4.55218e-05
6.46899e-05
7.12755e-05
7.22475e-05
7.04992e-05
6.74839e-05
6.40524e-05
6.07257e-05
5.75832e-05
5.44547e-05
5.10665e-05
4.76339e-05
4.53274e-05
4.60097e-05
5.15653e-05
6.23926e-05
7.65802e-05
8.89873e-05
9.80007e-05
0.000103577
0.000103007
9.34335e-05
7.77536e-05
6.36858e-05
4.54341e-05
2.72017e-05
1.60115e-05
1.0695e-05
9.9466e-06
1.71673e-05
1.14745e-05
7.93538e-07
5.16285e-07
6.75258e-06
1.92284e-05
4.21526e-05
6.09246e-05
6.85757e-05
7.05852e-05
7.01017e-05
6.83284e-05
6.5801e-05
6.30804e-05
6.03684e-05
5.77823e-05
5.52033e-05
5.23392e-05
4.90767e-05
4.5941e-05
4.41163e-05
4.50866e-05
5.04867e-05
6.20071e-05
7.737e-05
8.84362e-05
9.1485e-05
8.47823e-05
7.12547e-05
5.86186e-05
4.10989e-05
2.51354e-05
1.55335e-05
1.0751e-05
1.0355e-05
1.83854e-05
1.10706e-05
7.93984e-07
4.69355e-07
6.55075e-06
1.78176e-05
3.85634e-05
5.86516e-05
6.80452e-05
7.1216e-05
7.13368e-05
6.99291e-05
6.77792e-05
6.51893e-05
6.24722e-05
5.97679e-05
5.72327e-05
5.48853e-05
5.25429e-05
4.99296e-05
4.70267e-05
4.43125e-05
4.27687e-05
4.38429e-05
4.91921e-05
5.97773e-05
7.03311e-05
7.02593e-05
6.13539e-05
5.25623e-05
3.71856e-05
2.3127e-05
1.49767e-05
1.07952e-05
1.06504e-05
1.90703e-05
1.09398e-05
8.06233e-07
4.31365e-07
6.31877e-06
1.68253e-05
3.68222e-05
5.83e-05
7.00132e-05
7.52057e-05
7.65832e-05
7.57523e-05
7.36601e-05
7.0819e-05
6.7501e-05
6.39575e-05
6.03891e-05
5.7014e-05
5.40102e-05
5.14278e-05
4.91405e-05
4.69031e-05
4.4642e-05
4.27302e-05
4.21094e-05
4.38098e-05
4.75825e-05
5.06474e-05
5.35158e-05
4.85458e-05
3.38171e-05
2.20139e-05
1.45604e-05
1.07344e-05
1.08016e-05
1.93979e-05
1.0998e-05
8.44031e-07
4.03574e-07
6.05897e-06
1.58206e-05
3.43021e-05
5.67766e-05
7.13524e-05
7.81257e-05
8.06593e-05
8.06529e-05
7.90994e-05
7.65948e-05
7.34793e-05
6.99481e-05
6.61166e-05
6.20944e-05
5.80302e-05
5.41655e-05
5.07994e-05
4.78884e-05
4.55501e-05
4.39406e-05
4.24938e-05
4.11385e-05
4.04511e-05
4.01443e-05
4.2449e-05
4.53049e-05
3.40556e-05
2.16088e-05
1.44231e-05
1.06991e-05
1.08991e-05
1.98305e-05
1.08719e-05
8.92133e-07
3.9545e-07
5.85766e-06
1.4815e-05
3.22014e-05
5.49591e-05
7.0024e-05
7.70642e-05
8.00387e-05
8.0623e-05
7.97186e-05
7.78925e-05
7.54171e-05
7.25033e-05
6.92942e-05
6.59064e-05
6.23923e-05
5.88703e-05
5.56562e-05
5.21138e-05
4.80309e-05
4.42199e-05
4.13396e-05
3.99942e-05
3.90401e-05
3.62384e-05
3.78892e-05
4.19879e-05
3.24015e-05
2.14816e-05
1.44913e-05
1.07918e-05
1.12608e-05
2.10937e-05
1.06561e-05
9.46687e-07
4.07281e-07
5.68591e-06
1.44965e-05
3.13236e-05
5.36298e-05
6.92212e-05
7.65434e-05
7.96005e-05
8.02584e-05
7.92514e-05
7.74744e-05
7.51193e-05
7.23319e-05
6.91687e-05
6.59079e-05
6.26027e-05
5.88445e-05
5.45277e-05
5.12267e-05
4.90189e-05
4.67153e-05
4.45954e-05
4.22192e-05
3.91527e-05
3.54219e-05
3.7618e-05
3.72442e-05
2.83248e-05
2.08795e-05
1.45639e-05
1.10598e-05
1.18003e-05
2.25223e-05
1.03618e-05
9.87232e-07
4.59228e-07
5.83039e-06
1.51144e-05
3.27328e-05
5.50516e-05
7.08251e-05
7.88392e-05
8.24123e-05
8.33004e-05
8.21801e-05
7.99669e-05
7.69778e-05
7.34777e-05
6.94077e-05
6.47985e-05
5.99911e-05
5.65512e-05
5.41696e-05
5.203e-05
5.04908e-05
4.92015e-05
4.75018e-05
4.46132e-05
4.01509e-05
3.50312e-05
3.62328e-05
3.50772e-05
2.6958e-05
2.06001e-05
1.47765e-05
1.13833e-05
1.21763e-05
2.31981e-05
1.03362e-05
1.03959e-06
5.26758e-07
5.95398e-06
1.57947e-05
3.51586e-05
5.86157e-05
7.39247e-05
8.19536e-05
8.57681e-05
8.66065e-05
8.5477e-05
8.2986e-05
7.96663e-05
7.54706e-05
7.03108e-05
6.50901e-05
6.05628e-05
5.64066e-05
5.29223e-05
5.095e-05
5.07382e-05
5.15426e-05
5.15044e-05
4.89629e-05
4.33396e-05
3.70987e-05
3.67983e-05
3.38956e-05
2.5798e-05
1.97519e-05
1.45901e-05
1.15109e-05
1.2409e-05
2.40015e-05
9.99116e-06
1.06385e-06
5.85757e-07
6.1489e-06
1.64426e-05
3.65157e-05
5.98989e-05
7.47111e-05
8.22957e-05
8.57176e-05
8.62579e-05
8.50768e-05
8.27052e-05
7.92506e-05
7.49957e-05
7.05951e-05
6.54048e-05
5.9463e-05
5.39338e-05
5.02389e-05
4.87094e-05
4.94816e-05
5.17244e-05
5.35465e-05
5.29296e-05
4.85328e-05
4.18212e-05
3.84988e-05
3.27076e-05
2.44217e-05
1.84672e-05
1.38126e-05
1.1359e-05
1.30115e-05
2.70941e-05
9.62591e-06
1.06042e-06
6.34221e-07
6.356e-06
1.7246e-05
3.81674e-05
6.11989e-05
7.5006e-05
8.17586e-05
8.47288e-05
8.53389e-05
8.44283e-05
8.22495e-05
7.90113e-05
7.46918e-05
6.90245e-05
6.25067e-05
5.65813e-05
5.2028e-05
4.87913e-05
4.71959e-05
4.79848e-05
5.1062e-05
5.45156e-05
5.61225e-05
5.35606e-05
4.71042e-05
4.08169e-05
3.17517e-05
2.27032e-05
1.66388e-05
1.27609e-05
1.12484e-05
1.41347e-05
3.07097e-05
9.06427e-06
1.00156e-06
6.70871e-07
6.53951e-06
1.79247e-05
3.95826e-05
6.23366e-05
7.56303e-05
8.22835e-05
8.51873e-05
8.55459e-05
8.40113e-05
8.11565e-05
7.73042e-05
7.27978e-05
6.79711e-05
6.34895e-05
5.88226e-05
5.37764e-05
4.93452e-05
4.65649e-05
4.59793e-05
4.7641e-05
5.13989e-05
5.5609e-05
5.57826e-05
5.07806e-05
4.36642e-05
3.29232e-05
2.24703e-05
1.59427e-05
1.23111e-05
1.13701e-05
1.5043e-05
3.23147e-05
8.75405e-06
9.43909e-07
6.72926e-07
6.56782e-06
1.79942e-05
3.9736e-05
6.251e-05
7.57799e-05
8.20826e-05
8.44793e-05
8.44563e-05
8.29578e-05
8.05248e-05
7.74933e-05
7.40446e-05
7.01489e-05
6.55694e-05
6.02807e-05
5.49466e-05
5.01537e-05
4.66616e-05
4.5224e-05
4.60396e-05
4.86429e-05
5.19159e-05
5.32598e-05
5.07913e-05
4.55971e-05
3.52909e-05
2.39386e-05
1.6233e-05
1.22519e-05
1.13825e-05
1.53011e-05
3.25048e-05
8.73415e-06
9.36684e-07
6.66798e-07
6.58837e-06
1.821e-05
4.03872e-05
6.32455e-05
7.61157e-05
8.21735e-05
8.45004e-05
8.45749e-05
8.32601e-05
8.11323e-05
7.82758e-05
7.48146e-05
7.07929e-05
6.67031e-05
6.26006e-05
5.82464e-05
5.3615e-05
4.89242e-05
4.52968e-05
4.3749e-05
4.46101e-05
4.72555e-05
4.91549e-05
4.81362e-05
4.54746e-05
3.68041e-05
2.56437e-05
1.74004e-05
1.25685e-05
1.13588e-05
1.54155e-05
3.30639e-05
8.64808e-06
9.41855e-07
6.43936e-07
6.51353e-06
1.79286e-05
4.01766e-05
6.33159e-05
7.6229e-05
8.2147e-05
8.42923e-05
8.41755e-05
8.2759e-05
8.06991e-05
7.79231e-05
7.47752e-05
7.15507e-05
6.85566e-05
6.57605e-05
6.27131e-05
5.90777e-05
5.46455e-05
4.9553e-05
4.51106e-05
4.26339e-05
4.23012e-05
4.29921e-05
4.30613e-05
4.29331e-05
3.61738e-05
2.58258e-05
1.80027e-05
1.30403e-05
1.17394e-05
1.60662e-05
3.38711e-05
8.56624e-06
9.55801e-07
6.38726e-07
6.48503e-06
1.7835e-05
4.00375e-05
6.32091e-05
7.5823e-05
8.14764e-05
8.35033e-05
8.32679e-05
8.18523e-05
7.92906e-05
7.65088e-05
7.34755e-05
7.11368e-05
6.88092e-05
6.67052e-05
6.46602e-05
6.22985e-05
5.93493e-05
5.57166e-05
5.0866e-05
4.54059e-05
4.08888e-05
3.85221e-05
3.93741e-05
4.09001e-05
3.41807e-05
2.49408e-05
1.80863e-05
1.34225e-05
1.2202e-05
1.6888e-05
3.43512e-05
8.48442e-06
9.73389e-07
6.42719e-07
6.41979e-06
1.76993e-05
4.03942e-05
6.39286e-05
7.61912e-05
8.16019e-05
8.34006e-05
8.28166e-05
8.07027e-05
7.7608e-05
7.45696e-05
7.2226e-05
7.01455e-05
6.87663e-05
6.79066e-05
6.71438e-05
6.58342e-05
6.3549e-05
6.00611e-05
5.55448e-05
5.00945e-05
4.41932e-05
3.91178e-05
3.85806e-05
3.76264e-05
3.07052e-05
2.3834e-05
1.80169e-05
1.38708e-05
1.29398e-05
1.80794e-05
3.45153e-05
8.36811e-06
9.93399e-07
6.79111e-07
6.40519e-06
1.78281e-05
4.14837e-05
6.53998e-05
7.7065e-05
8.19857e-05
8.34995e-05
8.236e-05
7.90266e-05
7.59502e-05
7.28438e-05
6.9977e-05
6.79001e-05
6.72192e-05
6.7712e-05
6.88152e-05
6.95904e-05
6.90756e-05
6.66914e-05
6.22928e-05
5.60585e-05
4.87942e-05
4.22299e-05
4.07053e-05
3.70739e-05
2.9606e-05
2.36958e-05
1.81578e-05
1.42426e-05
1.34786e-05
1.88004e-05
3.46471e-05
8.37029e-06
1.03409e-06
7.45676e-07
6.49518e-06
1.82134e-05
4.23578e-05
6.57997e-05
7.67502e-05
8.07278e-05
8.07295e-05
7.88913e-05
7.70521e-05
7.39259e-05
7.00948e-05
6.68052e-05
6.51533e-05
6.54715e-05
6.74506e-05
7.01834e-05
7.25898e-05
7.37087e-05
7.28493e-05
6.91112e-05
6.25302e-05
5.44292e-05
4.67727e-05
4.35565e-05
3.81864e-05
3.00683e-05
2.38579e-05
1.83904e-05
1.46413e-05
1.41281e-05
2.00238e-05
3.51182e-05
8.20586e-06
1.05376e-06
8.34666e-07
6.70833e-06
1.93508e-05
4.52087e-05
6.72858e-05
7.64226e-05
8.00266e-05
8.04272e-05
7.88934e-05
7.52358e-05
7.04607e-05
6.62132e-05
6.32574e-05
6.20981e-05
6.30846e-05
6.60292e-05
7.00516e-05
7.39522e-05
7.64763e-05
7.65608e-05
7.34025e-05
6.71681e-05
5.90616e-05
5.11699e-05
4.58972e-05
3.86794e-05
3.01668e-05
2.35763e-05
1.83707e-05
1.51491e-05
1.52136e-05
2.20052e-05
3.51769e-05
8.08831e-06
1.04896e-06
8.9686e-07
6.96893e-06
2.02573e-05
4.62631e-05
6.80888e-05
7.74826e-05
8.01889e-05
7.86981e-05
7.50028e-05
7.04456e-05
6.6773e-05
6.44316e-05
6.26129e-05
6.14132e-05
6.16681e-05
6.39128e-05
6.76241e-05
7.16683e-05
7.50722e-05
7.65897e-05
7.5202e-05
7.05868e-05
6.20401e-05
5.35564e-05
4.73246e-05
3.95602e-05
3.10032e-05
2.39144e-05
1.85536e-05
1.55037e-05
1.59127e-05
2.33494e-05
3.50141e-05
7.93343e-06
1.03063e-06
8.98655e-07
6.99051e-06
2.05476e-05
4.76238e-05
6.85109e-05
7.58065e-05
7.67235e-05
7.5097e-05
7.29686e-05
7.17586e-05
7.01378e-05
6.6773e-05
6.28005e-05
5.96294e-05
5.78832e-05
5.80171e-05
6.08079e-05
6.54887e-05
6.99198e-05
7.2721e-05
7.29697e-05
7.01294e-05
6.29676e-05
5.47721e-05
4.75761e-05
3.95815e-05
3.1464e-05
2.43901e-05
1.8961e-05
1.59945e-05
1.6809e-05
2.52665e-05
3.45252e-05
7.77499e-06
1.0049e-06
8.75916e-07
6.98847e-06
2.08804e-05
4.74695e-05
6.67478e-05
7.39313e-05
7.6188e-05
7.66939e-05
7.63422e-05
7.44315e-05
7.06454e-05
6.60867e-05
6.19116e-05
5.84859e-05
5.58398e-05
5.46617e-05
5.5243e-05
5.75223e-05
6.18744e-05
6.66675e-05
6.89286e-05
6.77014e-05
6.19524e-05
5.43868e-05
4.68074e-05
3.85913e-05
3.07508e-05
2.4113e-05
1.91804e-05
1.67031e-05
1.81546e-05
2.76196e-05
3.38079e-05
7.6641e-06
9.72858e-07
8.31718e-07
6.95258e-06
2.05513e-05
4.61709e-05
6.551e-05
7.3628e-05
7.68548e-05
7.74942e-05
7.62534e-05
7.37492e-05
7.06336e-05
6.72433e-05
6.36389e-05
5.96937e-05
5.58056e-05
5.26374e-05
5.10297e-05
5.17687e-05
5.43616e-05
5.81492e-05
6.19617e-05
6.29058e-05
5.90313e-05
5.27898e-05
4.64707e-05
3.87074e-05
3.07722e-05
2.42423e-05
1.9492e-05
1.72903e-05
1.91735e-05
2.91808e-05
3.3671e-05
7.67514e-06
9.70677e-07
8.01788e-07
6.79702e-06
2.006e-05
4.58546e-05
6.58866e-05
7.41665e-05
7.71437e-05
7.75259e-05
7.66675e-05
7.52648e-05
7.34016e-05
7.0997e-05
6.75767e-05
6.31129e-05
5.81749e-05
5.34765e-05
4.98143e-05
4.78347e-05
4.81008e-05
5.07933e-05
5.39171e-05
5.57218e-05
5.42472e-05
5.10981e-05
4.5479e-05
3.78257e-05
3.06633e-05
2.44506e-05
1.98623e-05
1.78554e-05
2.01583e-05
3.08743e-05
3.35042e-05
7.71532e-06
9.81235e-07
7.9372e-07
6.76902e-06
1.99763e-05
4.55775e-05
6.58167e-05
7.42756e-05
7.74416e-05
7.83223e-05
7.83032e-05
7.78382e-05
7.67282e-05
7.44768e-05
7.11594e-05
6.71959e-05
6.24432e-05
5.7195e-05
5.20143e-05
4.78173e-05
4.54195e-05
4.49825e-05
4.6309e-05
4.7754e-05
4.74802e-05
4.65739e-05
4.26599e-05
3.61362e-05
2.98691e-05
2.41435e-05
2.00481e-05
1.85443e-05
2.15376e-05
3.30028e-05
3.30742e-05
7.72035e-06
9.84021e-07
7.70524e-07
6.68591e-06
1.96431e-05
4.42781e-05
6.44103e-05
7.36365e-05
7.77339e-05
7.94611e-05
7.99498e-05
7.95182e-05
7.80466e-05
7.57088e-05
7.31355e-05
6.99593e-05
6.61061e-05
6.14947e-05
5.63033e-05
5.09572e-05
4.61771e-05
4.28562e-05
4.11652e-05
4.05788e-05
4.03861e-05
4.10397e-05
3.91429e-05
3.41145e-05
2.90365e-05
2.40915e-05
2.03662e-05
1.91167e-05
2.23354e-05
3.37934e-05
3.3801e-05
7.84885e-06
1.01224e-06
7.27238e-07
6.56811e-06
1.90494e-05
4.29073e-05
6.36239e-05
7.37745e-05
7.85205e-05
8.05064e-05
8.08993e-05
8.02363e-05
7.91534e-05
7.75472e-05
7.53147e-05
7.25323e-05
6.93167e-05
6.54994e-05
6.09183e-05
5.57881e-05
5.03464e-05
4.49765e-05
4.02403e-05
3.67825e-05
3.47504e-05
3.57397e-05
3.51816e-05
3.16172e-05
2.79729e-05
2.37864e-05
2.03681e-05
1.9311e-05
2.28506e-05
3.48512e-05
3.37952e-05
7.87984e-06
1.04144e-06
7.06253e-07
6.49969e-06
1.88175e-05
4.25927e-05
6.35011e-05
7.40989e-05
7.92705e-05
8.15787e-05
8.21753e-05
8.17375e-05
8.05704e-05
7.91412e-05
7.72679e-05
7.48776e-05
7.19496e-05
6.85501e-05
6.46197e-05
5.99932e-05
5.47723e-05
4.89252e-05
4.26722e-05
3.67129e-05
3.21738e-05
3.1076e-05
3.01427e-05
2.7813e-05
2.55941e-05
2.26814e-05
2.02217e-05
1.99856e-05
2.45205e-05
3.7324e-05
3.27653e-05
7.85627e-06
1.04341e-06
6.96628e-07
6.38432e-06
1.85381e-05
4.23038e-05
6.33348e-05
7.41548e-05
7.96419e-05
8.22573e-05
8.3235e-05
8.30756e-05
8.22493e-05
8.09023e-05
7.88644e-05
7.64462e-05
7.37865e-05
7.08397e-05
6.74133e-05
6.32732e-05
5.82534e-05
5.25459e-05
4.58227e-05
3.85113e-05
3.21681e-05
2.92935e-05
2.69283e-05
2.43913e-05
2.30228e-05
2.13601e-05
2.01057e-05
2.07258e-05
2.6027e-05
3.85416e-05
3.30555e-05
7.93021e-06
1.04588e-06
6.86555e-07
6.33753e-06
1.82997e-05
4.18124e-05
6.30898e-05
7.40005e-05
7.94949e-05
8.21566e-05
8.31044e-05
8.31438e-05
8.22187e-05
8.07781e-05
7.90593e-05
7.72081e-05
7.50713e-05
7.27436e-05
7.00839e-05
6.68041e-05
6.25353e-05
5.69089e-05
4.99501e-05
4.18558e-05
3.39935e-05
3.01763e-05
2.65962e-05
2.29889e-05
2.15784e-05
2.04017e-05
1.95661e-05
2.04112e-05
2.55187e-05
3.82098e-05
3.43151e-05
8.13935e-06
1.10361e-06
6.85897e-07
6.32496e-06
1.82735e-05
4.17704e-05
6.28277e-05
7.34871e-05
7.89675e-05
8.15599e-05
8.25687e-05
8.23719e-05
8.16338e-05
8.01886e-05
7.84809e-05
7.67298e-05
7.5153e-05
7.37029e-05
7.22358e-05
7.02975e-05
6.74135e-05
6.28331e-05
5.58223e-05
4.6649e-05
3.74808e-05
3.23931e-05
2.68406e-05
2.21074e-05
2.05243e-05
1.94642e-05
1.8852e-05
1.99234e-05
2.54525e-05
3.89558e-05
3.37176e-05
8.08021e-06
1.14273e-06
6.94168e-07
6.31226e-06
1.82976e-05
4.21063e-05
6.30441e-05
7.35935e-05
7.90136e-05
8.15007e-05
8.23136e-05
8.18519e-05
8.07534e-05
7.90969e-05
7.71458e-05
7.52947e-05
7.39178e-05
7.30378e-05
7.23251e-05
7.14507e-05
6.99584e-05
6.72696e-05
6.20379e-05
5.33871e-05
4.27314e-05
3.47868e-05
2.7019e-05
2.12014e-05
1.90085e-05
1.83268e-05
1.85598e-05
2.06875e-05
2.7613e-05
4.14223e-05
3.27237e-05
8.0623e-06
1.1393e-06
7.22614e-07
6.36491e-06
1.86118e-05
4.32267e-05
6.41035e-05
7.40637e-05
7.88977e-05
8.08741e-05
8.13122e-05
8.07896e-05
7.92418e-05
7.71812e-05
7.50569e-05
7.34625e-05
7.28112e-05
7.28396e-05
7.31086e-05
7.31878e-05
7.26524e-05
7.106e-05
6.71391e-05
5.96721e-05
4.91711e-05
3.97576e-05
2.94771e-05
2.17318e-05
1.85822e-05
1.77293e-05
1.83447e-05
2.11399e-05
2.85298e-05
4.19994e-05
3.28906e-05
8.12623e-06
1.14128e-06
7.64024e-07
6.47899e-06
1.90936e-05
4.41485e-05
6.44405e-05
7.35282e-05
7.81267e-05
8.01916e-05
8.03329e-05
7.88654e-05
7.65811e-05
7.40422e-05
7.19066e-05
7.07662e-05
7.09044e-05
7.21755e-05
7.38925e-05
7.51437e-05
7.57582e-05
7.54183e-05
7.30186e-05
6.69878e-05
5.68949e-05
4.64817e-05
3.42275e-05
2.43428e-05
1.94648e-05
1.77898e-05
1.80597e-05
2.04611e-05
2.75977e-05
4.17991e-05
3.2919e-05
8.08586e-06
1.17262e-06
8.06039e-07
6.65141e-06
1.99564e-05
4.55221e-05
6.45988e-05
7.34674e-05
7.75458e-05
7.85367e-05
7.78083e-05
7.5849e-05
7.31191e-05
7.02899e-05
6.82498e-05
6.77747e-05
6.90981e-05
7.1738e-05
7.47332e-05
7.73276e-05
7.91124e-05
8.01826e-05
7.96019e-05
7.5178e-05
6.51901e-05
5.17706e-05
3.7308e-05
2.64363e-05
2.03776e-05
1.77644e-05
1.77391e-05
2.0593e-05
2.88471e-05
4.38884e-05
3.14584e-05
7.96321e-06
1.16355e-06
8.26313e-07
6.76273e-06
2.02745e-05
4.62834e-05
6.52344e-05
7.29632e-05
7.57384e-05
7.60218e-05
7.49442e-05
7.28384e-05
7.00961e-05
6.72918e-05
6.52712e-05
6.49335e-05
6.67252e-05
7.03325e-05
7.46653e-05
7.82725e-05
8.06856e-05
8.28394e-05
8.38295e-05
8.1336e-05
7.18733e-05
5.62222e-05
4.00547e-05
2.79291e-05
2.09173e-05
1.7942e-05
1.79738e-05
2.12559e-05
3.00631e-05
4.44425e-05
3.09865e-05
7.87035e-06
1.13241e-06
8.26349e-07
6.85611e-06
2.10069e-05
4.74026e-05
6.47934e-05
7.13933e-05
7.3578e-05
7.37354e-05
7.27189e-05
7.08265e-05
6.82226e-05
6.52756e-05
6.27707e-05
6.17473e-05
6.29946e-05
6.66445e-05
7.19595e-05
7.73877e-05
8.14179e-05
8.43715e-05
8.59311e-05
8.37547e-05
7.56462e-05
6.13037e-05
4.51903e-05
3.17405e-05
2.28035e-05
1.8581e-05
1.81933e-05
2.13991e-05
3.02009e-05
4.45876e-05
3.16903e-05
7.94982e-06
1.13883e-06
8.08759e-07
6.92253e-06
2.13847e-05
4.77183e-05
6.43631e-05
7.05855e-05
7.27084e-05
7.292e-05
7.20598e-05
7.03468e-05
6.77775e-05
6.44879e-05
6.11424e-05
5.88516e-05
5.87405e-05
6.14327e-05
6.67272e-05
7.34184e-05
7.98015e-05
8.52582e-05
8.83429e-05
8.51298e-05
7.70617e-05
6.42206e-05
4.96012e-05
3.66944e-05
2.63342e-05
2.04046e-05
1.89954e-05
2.1246e-05
2.87399e-05
4.41667e-05
3.18122e-05
7.92496e-06
1.17662e-06
7.82245e-07
6.8647e-06
2.11919e-05
4.77229e-05
6.4465e-05
7.05056e-05
7.24491e-05
7.25541e-05
7.16743e-05
7.00424e-05
6.76167e-05
6.43612e-05
6.06954e-05
5.76035e-05
5.62764e-05
5.76499e-05
6.20833e-05
6.89636e-05
7.67853e-05
8.41322e-05
8.85897e-05
8.58968e-05
7.77725e-05
6.47827e-05
5.07378e-05
3.89253e-05
2.94281e-05
2.27775e-05
1.97259e-05
2.1429e-05
3.057e-05
4.72136e-05
3.02421e-05
7.84089e-06
1.18186e-06
7.79516e-07
6.89028e-06
2.13387e-05
4.77923e-05
6.42904e-05
7.01883e-05
7.20424e-05
7.21536e-05
7.1388e-05
6.99408e-05
6.77055e-05
6.45599e-05
6.07652e-05
5.72107e-05
5.50686e-05
5.53601e-05
5.86654e-05
6.47879e-05
7.26554e-05
8.07138e-05
8.62581e-05
8.53307e-05
7.5816e-05
6.23665e-05
4.95418e-05
3.85275e-05
2.98228e-05
2.39396e-05
2.15586e-05
2.40508e-05
3.43999e-05
4.91708e-05
2.93689e-05
7.75606e-06
1.15073e-06
7.75453e-07
6.94059e-06
2.16214e-05
4.79421e-05
6.40203e-05
6.9966e-05
7.20074e-05
7.22824e-05
7.16087e-05
7.01708e-05
6.78498e-05
6.44951e-05
6.03187e-05
5.62049e-05
5.33731e-05
5.28634e-05
5.52337e-05
6.03747e-05
6.74641e-05
7.51561e-05
8.08617e-05
8.10082e-05
7.34754e-05
6.14227e-05
4.91507e-05
3.85224e-05
3.03954e-05
2.52269e-05
2.3438e-05
2.63313e-05
3.64144e-05
4.99268e-05
2.93452e-05
7.73533e-06
1.13287e-06
7.61779e-07
6.94848e-06
2.17772e-05
4.83091e-05
6.41724e-05
6.9962e-05
7.1996e-05
7.23857e-05
7.18971e-05
7.06493e-05
6.84383e-05
6.50002e-05
6.04328e-05
5.5574e-05
5.17592e-05
5.02107e-05
5.16156e-05
5.5983e-05
6.26938e-05
7.06448e-05
7.71766e-05
7.69608e-05
7.00986e-05
6.034e-05
4.95651e-05
3.95857e-05
3.166e-05
2.6582e-05
2.4941e-05
2.8069e-05
3.84706e-05
5.12276e-05
2.96436e-05
7.79091e-06
1.14186e-06
7.50504e-07
6.95373e-06
2.18725e-05
4.84451e-05
6.42451e-05
7.00367e-05
7.20983e-05
7.25577e-05
7.22107e-05
7.11913e-05
6.9272e-05
6.6081e-05
6.15063e-05
5.61777e-05
5.14189e-05
4.86429e-05
4.87823e-05
5.20472e-05
5.79962e-05
6.55635e-05
7.22737e-05
7.34967e-05
6.83434e-05
5.96177e-05
4.95699e-05
4.02511e-05
3.27322e-05
2.78422e-05
2.63898e-05
2.99005e-05
4.07359e-05
5.25992e-05
2.96177e-05
7.82886e-06
1.15622e-06
7.41647e-07
6.96502e-06
2.20275e-05
4.86389e-05
6.42209e-05
6.99752e-05
7.21016e-05
7.27057e-05
7.25786e-05
7.18446e-05
7.0269e-05
6.73971e-05
6.29521e-05
5.73447e-05
5.18273e-05
4.79163e-05
4.67483e-05
4.87539e-05
5.36917e-05
6.06335e-05
6.72512e-05
6.97322e-05
6.62318e-05
5.82839e-05
4.86994e-05
3.98485e-05
3.31225e-05
2.89532e-05
2.81355e-05
3.23534e-05
4.36105e-05
5.37825e-05
2.9481e-05
7.84883e-06
1.15061e-06
7.24001e-07
6.96023e-06
2.21199e-05
4.89103e-05
6.44276e-05
7.0103e-05
7.22166e-05
7.29051e-05
7.29565e-05
7.24912e-05
7.12121e-05
6.86561e-05
6.44615e-05
5.88372e-05
5.27286e-05
4.76141e-05
4.49449e-05
4.54348e-05
4.91141e-05
5.52963e-05
6.17887e-05
6.54514e-05
6.39886e-05
5.72121e-05
4.79672e-05
3.9457e-05
3.32867e-05
2.99361e-05
2.98962e-05
3.46575e-05
4.55805e-05
5.46145e-05
2.99018e-05
7.92518e-06
1.14398e-06
7.06224e-07
6.92763e-06
2.21407e-05
4.91405e-05
6.45517e-05
7.01116e-05
7.22022e-05
7.29693e-05
7.31819e-05
7.29616e-05
7.19835e-05
6.97409e-05
6.57624e-05
6.01081e-05
5.37067e-05
4.79641e-05
4.40998e-05
4.30369e-05
4.51698e-05
5.04927e-05
5.68429e-05
6.11151e-05
6.15886e-05
5.68461e-05
4.85313e-05
4.0091e-05
3.3934e-05
3.0773e-05
3.10261e-05
3.59287e-05
4.65891e-05
5.53982e-05
3.04911e-05
8.00465e-06
1.14655e-06
6.97658e-07
6.91215e-06
2.22574e-05
4.95032e-05
6.47262e-05
7.01363e-05
7.21976e-05
7.30715e-05
7.34985e-05
7.35447e-05
7.29159e-05
7.10775e-05
6.74672e-05
6.1989e-05
5.54032e-05
4.9067e-05
4.42948e-05
4.19224e-05
4.2703e-05
4.74437e-05
5.32602e-05
5.71804e-05
5.9276e-05
5.70104e-05
5.06584e-05
4.26298e-05
3.57628e-05
3.17635e-05
3.16308e-05
3.62853e-05
4.64138e-05
5.57664e-05
3.22303e-05
8.27124e-06
1.20762e-06
6.9451e-07
6.9318e-06
2.25266e-05
5.00332e-05
6.49805e-05
7.02732e-05
7.23636e-05
7.33963e-05
7.40807e-05
7.44388e-05
7.41507e-05
7.26628e-05
6.93733e-05
6.40416e-05
5.72144e-05
5.02421e-05
4.46884e-05
4.14916e-05
4.13308e-05
4.53833e-05
5.05113e-05
5.40263e-05
5.70572e-05
5.65636e-05
5.20579e-05
4.51246e-05
3.82832e-05
3.35331e-05
3.21584e-05
3.55365e-05
4.534e-05
5.62502e-05
3.32378e-05
8.42507e-06
1.27559e-06
6.93934e-07
6.95219e-06
2.28e-05
5.04919e-05
6.50514e-05
7.0191e-05
7.23025e-05
7.34784e-05
7.44406e-05
7.51417e-05
7.52384e-05
7.41421e-05
7.1196e-05
6.60222e-05
5.90239e-05
5.15352e-05
4.52348e-05
4.12747e-05
4.03136e-05
4.34511e-05
4.77321e-05
5.0992e-05
5.44267e-05
5.49536e-05
5.17539e-05
4.58904e-05
3.94291e-05
3.45413e-05
3.30064e-05
3.66508e-05
4.72742e-05
5.79854e-05
3.28919e-05
8.43789e-06
1.29311e-06
6.96399e-07
7.00144e-06
2.31974e-05
5.10688e-05
6.51219e-05
7.00357e-05
7.2118e-05
7.34218e-05
7.46019e-05
7.56085e-05
7.60736e-05
7.53794e-05
7.28227e-05
6.78961e-05
6.07971e-05
5.27695e-05
4.56696e-05
4.0922e-05
3.92352e-05
4.13479e-05
4.48387e-05
4.80063e-05
5.14535e-05
5.25458e-05
5.02897e-05
4.55036e-05
3.98986e-05
3.56931e-05
3.48573e-05
3.94048e-05
5.06396e-05
5.94499e-05
3.24609e-05
8.46149e-06
1.28994e-06
6.97944e-07
7.04812e-06
2.35839e-05
5.16049e-05
6.51775e-05
6.98852e-05
7.19464e-05
7.33435e-05
7.47092e-05
7.59722e-05
7.67547e-05
7.6425e-05
7.42541e-05
6.96339e-05
6.25396e-05
5.40506e-05
4.61251e-05
4.04845e-05
3.79883e-05
3.91462e-05
4.19382e-05
4.49229e-05
4.82957e-05
4.97971e-05
4.84758e-05
4.48771e-05
4.05317e-05
3.7384e-05
3.74524e-05
4.27896e-05
5.3819e-05
6.02887e-05
3.22112e-05
8.475e-06
1.27531e-06
6.99504e-07
7.09982e-06
2.39718e-05
5.20489e-05
6.50959e-05
6.95607e-05
7.15641e-05
7.30556e-05
7.46089e-05
7.6178e-05
7.73441e-05
7.74428e-05
7.57064e-05
7.14512e-05
6.44639e-05
5.56063e-05
4.6862e-05
4.02483e-05
3.68717e-05
3.71573e-05
3.93762e-05
4.22309e-05
4.56348e-05
4.75327e-05
4.6999e-05
4.43869e-05
4.11534e-05
3.90487e-05
4.00667e-05
4.60834e-05
5.66723e-05
6.09e-05
3.19098e-05
8.50625e-06
1.26903e-06
6.98844e-07
7.14347e-06
2.43268e-05
5.23712e-05
6.49648e-05
6.92707e-05
7.12658e-05
7.28433e-05
7.45924e-05
7.64605e-05
7.80085e-05
7.85478e-05
7.72882e-05
7.35014e-05
6.67913e-05
5.76945e-05
4.80749e-05
4.0344e-05
3.58928e-05
3.5167e-05
3.68546e-05
3.97446e-05
4.32431e-05
4.54841e-05
4.56355e-05
4.39806e-05
4.17463e-05
4.067e-05
4.26535e-05
4.92917e-05
5.92709e-05
6.14562e-05
3.15555e-05
8.49666e-06
1.26525e-06
6.9517e-07
7.17852e-06
2.46049e-05
5.25791e-05
6.47879e-05
6.89401e-05
7.09022e-05
7.25396e-05
7.44647e-05
7.6622e-05
7.85519e-05
7.9543e-05
7.8788e-05
7.55635e-05
6.93381e-05
6.02349e-05
4.98496e-05
4.08778e-05
3.53859e-05
3.32885e-05
3.41756e-05
3.72331e-05
4.08539e-05
4.34299e-05
4.41626e-05
4.33467e-05
4.2187e-05
4.23442e-05
4.5513e-05
5.28482e-05
6.20197e-05
6.18565e-05
3.11795e-05
8.49463e-06
1.25395e-06
6.8573e-07
7.18724e-06
2.47584e-05
5.2626e-05
6.45234e-05
6.85169e-05
7.03903e-05
7.20374e-05
7.41037e-05
7.65372e-05
7.88456e-05
8.02908e-05
8.00405e-05
7.74301e-05
7.19137e-05
6.32775e-05
5.25016e-05
4.22624e-05
3.54754e-05
3.18089e-05
3.1449e-05
3.42363e-05
3.81275e-05
4.13135e-05
4.28014e-05
4.28343e-05
4.26135e-05
4.37741e-05
4.79342e-05
5.56784e-05
6.38578e-05
6.1649e-05
3.03674e-05
8.4408e-06
1.22991e-06
6.6962e-07
7.155e-06
2.47304e-05
5.25278e-05
6.4229e-05
6.80516e-05
6.97938e-05
7.14026e-05
7.35401e-05
7.62031e-05
7.88444e-05
8.07205e-05
8.09965e-05
7.90385e-05
7.43829e-05
6.66141e-05
5.61249e-05
4.50044e-05
3.67282e-05
3.11022e-05
2.92619e-05
3.11661e-05
3.47643e-05
3.86008e-05
4.11939e-05
4.22943e-05
4.30743e-05
4.50519e-05
4.97269e-05
5.72971e-05
6.45015e-05
6.13981e-05
3.01815e-05
8.42612e-06
1.21904e-06
6.51029e-07
7.09946e-06
2.4623e-05
5.23702e-05
6.38878e-05
6.75279e-05
6.9134e-05
7.0697e-05
7.28917e-05
7.57155e-05
7.86217e-05
8.08589e-05
8.15888e-05
8.02228e-05
7.63715e-05
6.96259e-05
6.01501e-05
4.92103e-05
3.96285e-05
3.19889e-05
2.82032e-05
2.88403e-05
3.18249e-05
3.53451e-05
3.86375e-05
4.1072e-05
4.3084e-05
4.59911e-05
5.11663e-05
5.87147e-05
6.52336e-05
6.18372e-05
3.05106e-05
8.51238e-06
1.22055e-06