/*--------------------------------*- C++ -*----------------------------------*\
| =========                 |                                                 |
| \\      /  F ield         | OpenFOAM: The Open Source CFD Toolbox           |
|  \\    /   O peration     | Version:  v1912                                 |
|   \\  /    A nd           | Website:  www.openfoam.com                      |
|    \\/     M anipulation  |                                                 |
\*---------------------------------------------------------------------------*/
FoamFile
{
    version     2.0;
    format      ascii;
    class       volScalarField;
    location    "226/oil";
    object      wallHeatFlux;
}
// * * * * * * * * * * * * * * * * * * * * * * * * * * * * * * * * * * * * * //

dimensions      [1 0 -3 0 0 0 0];


internalField   uniform 0;

boundaryField
{
    maxY
    {
        type            calculated;
        value           uniform 0;
    }
    minX
    {
        type            calculated;
        value           uniform 0;
    }
    maxX
    {
        type            calculated;
        value           uniform 0;
    }
    minY
    {
        type            calculated;
        value           uniform 0;
    }
    minZ
    {
        type            calculated;
        value           uniform 0;
    }
    maxZ
    {
        type            calculated;
        value           uniform 0;
    }
    oil_to_sphere
    {
        type            calculated;
        value           nonuniform List<scalar> 
1536
(
3295.02
3030.41
3027.7
2537.83
2519.18
3014.5
2802.84
2886.35
2854.44
2576.58
2384.8
2611.45
2848.78
2625.45
2315.92
2771.38
3016.32
3040.56
2756.55
2835.58
2950.03
2857.39
2878.04
2768.65
2795.47
2781.6
2792.1
2735.67
3002.68
2869.37
3082.06
3031.29
3041.79
2771.79
2788.33
2736.16
2759.04
2680.19
2731.41
2789.26
2719.78
2759.78
2845.59
2902.66
2968.73
2786.03
2955.28
2883.81
2332.62
2781.84
2925.47
2859.03
2877.86
2766.15
2993.71
3177.43
2873.52
2836.45
2947.39
2919.42
2840.41
2845.42
2836.34
2759.66
2787.33
2828.07
2834.51
2932.74
2928.12
2990.19
2758.37
2530.58
2612.22
2782.55
2779.8
3194.13
3044.25
2689.53
2772.14
3033.03
2953.46
2917.05
2534.37
2526.27
3001.17
3246.05
2473.57
2812.04
2921.11
2919.01
2859.27
2744.65
2741.6
2752.97
2780.47
2899.56
2953.16
2969.93
3062.38
2912.81
2956.11
2754.08
3301.91
2929.26
2601.27
2775.69
2795.77
2557.89
2557.77
3311.29
3040.95
2887.41
2843.84
2880.97
2497.87
2529.01
2447.91
3128.55
3272.72
3057.96
2866.58
2880.58
2728.45
2948.98
3077.43
2909.29
2862.32
2710.33
2965.2
2942.76
2829.94
2932.43
2989.55
2796.35
2814.82
3002.03
2881.84
3035.93
2715.96
3018.79
2855.89
2940.68
2942.98
2848.93
2817.38
2843.31
2898.48
3145.19
2847.87
3312.75
2977.39
3048.27
2872.84
2888.58
2774.88
2922.16
2996.82
2965.61
3362.96
3096.44
3039.99
3162.55
2634.92
2678.09
2748.4
2741.82
2983.67
3118.58
3056.63
3194.31
2738.18
2755.29
2694.35
2957.08
2879.71
2899.17
3223.06
2694.36
2652.33
3243.93
2730.96
2679.86
2671.87
2695.85
2947.42
3247.81
3099.3
2725.08
2643.7
3036.65
2662.38
2990.46
2987.02
3105.9
2609.11
2265.88
3097.63
3132.36
2811.72
2775.02
2861.95
2803.64
3043.23
3095.31
2973.84
2918.74
2763.79
3121.53
3067.61
2915.93
2708.55
2786.56
2775.94
2820.35
2963.39
3191.33
2673.83
2620.37
2627.17
2233.44
3020.13
2956.59
2914.19
2861.9
2874.93
3126.68
2990.15
2797.22
3022.84
2582.75
2738.71
2281.42
2844.65
3016.3
3098.97
3075.07
3017.9
2961.15
3054.72
2608.31
2645.58
2716.73
3136.41
2699.21
2285.95
2454.73
2955.99
2872.97
3237.84
3376.73
2886.67
2529.63
2237.81
2918.69
3084.57
2753.14
2761.34
2481.67
2743.16
3124.89
3261.81
2847.05
2763.25
3159.12
3107.41
2782.76
2590.07
2830.99
3199.74
3135.01
2961.9
2988.91
3087
2675.12
2771.11
3102.42
2988.54
3047.44
2848.03
3025.55
3184.86
2975.76
2953.26
3148.03
2760.99
2755.12
2783.95
2726.56
2746.53
3110.56
3204.98
2657.86
2808.6
2794.98
2808.69
2725
2878.98
2848.66
2691.78
2487.91
2738.77
2614.01
2715.62
3249.83
3154.96
3151.86
3359.15
2654.08
2673.57
2884.31
3311.89
3284.36
2742.73
2852.68
2727.77
2983.39
2769.23
2950.13
2972.41
3053.12
2993.46
2795.59
3006.73
2734.27
3089.66
3124.6
3027.84
3008.02
2692.9
3215.28
3212.09
2992.74
2601.35
2758.73
2809.76
2974.1
2947.31
2982.01
2684.82
3085.54
3116.33
3050.98
3149.91
2933.35
2903.79
2841.53
2647.17
2910.53
2982.57
2643.22
2622.3
2670.1
3289
3084.17
3152.78
2941.28
2901.08
3114.79
2629.11
3232.24
3049.94
2902.39
2899.65
2614.14
3056.21
3077.21
2706.09
2902.14
2832.95
2765.85
2986.31
3081
2845.7
2785.7
2660.51
3191
3090.5
2622.04
3118.49
3085.61
3021.66
3188.74
2898.43
2999.67
2579.84
2607.37
2972.99
3338.69
3034.55
3244.15
2943.64
2800.11
3061.21
2675.17
2736.04
2956.96
3076.16
2990.68
2942.08
2688.15
2677.51
3104.98
3111.59
3091.64
2897.19
2750.23
2954.01
3007.42
3069.2
2911.51
2819.49
2706.43
2886.82
2664.75
2559.3
2751.5
2706.84
2888.82
2574.9
2801.54
3227.83
2795.8
2792.56
3075.21
3069.63
2977.5
2834.59
2636.71
3031.39
3152.55
2966.32
2917.99
3036.06
2856.8
2880.72
2937.39
2532.7
2979.27
3114.63
3152.06
3062.04
3004.97
2986.87
2912.91
2827.1
2674.88
2869.81
2700.43
2614.35
2723.09
2553.12
3258.18
3222.52
3123.8
3324.42
2694.91
3258.83
2680.58
2731.61
3014.21
2683.44
2673.51
2804.46
2789.67
3232.16
3157.56
2937.59
2958.7
3186.58
3107.65
2909.1
3006.83
2710.07
3075.64
2598.34
3149.7
2529.72
3005.43
3034.42
3064.37
2793.61
2663.14
2827.47
3071.8
2839.97
2581.09
3080.22
3096.36
3149.99
3330.64
2932.38
3169.66
2651.49
2685.68
2347.38
2448.24
2901.93
2798.96
2767.65
2724.85
3275.95
2716.2
2622.94
2584.18
2821.97
2601.77
3361.53
2717.54
2736.13
2875.2
2389.75
2473.79
2753.04
2746.26
2842.7
2783.12
3094.16
3061
2988.36
2906.1
2558.26
2769.12
3059.91
2672.77
2705.39
3027.82
3190.54
2713.41
2357.33
2645.3
2385.89
2862.71
2791.32
2736.18
2603.52
2377.48
2992.56
3026.01
2945.7
2864.74
3203.29
2999.25
2970.57
2903.25
2690.91
2773.92
3094.31
2992.4
2810.53
2444.15
2914.98
3065.16
3217.6
2924.23
2779.02
3210.73
2897.46
3172.12
2705.27
2780.99
2670.32
2793.97
2914.43
3185.15
2732.48
2722.12
2688.39
2831.24
3361.28
2623.64
2772.61
2619.65
2886.19
2913.57
3100.93
3198.13
2592.69
2600.13
3198.61
3239.5
2503.53
3193.92
3117.96
3034.66
3117.85
2976.86
2894.23
2902.6
3191.5
2910.49
2976.67
2887.81
3070.73
2929.42
2867.51
2850.56
2641.4
3029.65
2875.27
3068.1
3005.37
3013.65
2991.63
2914.13
2609.79
3105.95
3106.79
2985.05
2864.63
2934.7
3302.14
2606.02
2699.76
2647.5
2936.47
2750.31
3302.89
2799.85
2828.06
2885.88
2359.99
2392.36
2761.52
2755.43
2893.54
2668.97
2718.31
2949.75
2757.81
3198.37
2679.29
3284.02
2829.34
2930.52
2309.43
2384.56
2340.9
2739.41
3033.68
2776.04
2737.86
2385.18
2884.41
3059.22
2888.4
3450.99
2710.13
3092.63
3002.26
3037.48
3122.8
3118.66
3043.49
2878.23
2822.62
2869.9
3040.88
2836.68
2948.35
2928.05
2945.86
3065.12
2993.83
3030.86
2645.12
2701.34
2260.1
2481.47
2550.4
2103.78
2759.45
2784.23
2836.44
2867.73
2555.66
2646.49
2810.01
3137.28
3117.5
2805.37
2587.38
2850.2
3061.83
2997.8
2875.59
2573.39
2709.77
2987.93
2943.21
2871.03
2769.15
3012.1
3020.64
3190.8
3020.59
2913.79
2783.67
2713.49
2633.05
2776.83
2865.53
3318.03
2901.45
3255.01
2747.74
3344.39
2756.29
2844.17
2662.33
2691.9
2784.7
2639.17
2831.66
2573.1
2765.14
3096.35
2801.58
2621.47
3211.17
3007.93
2953.4
2861.06
3199.84
3476
2491.79
2996.57
2953.2
2976.96
2640.58
2862.17
2727.4
2947.6
3036.61
3104
2692.75
2988.55
2902.68
3012.83
2998.44
2966.55
2813.56
2844.36
2773.07
2586.87
2558.25
2673.23
3164.5
2767.15
2625.73
2774.06
3099.2
2826.35
3165.64
3064.86
2966.19
2913.51
2963.27
3220.66
2673.19
2990.03
3117.61
3137.34
2912.02
2721.88
2825.7
2965.84
3145.65
2657.77
2847.17
2906.47
3091.16
2957.64
2966.07
3174.93
2660.96
2734.81
2700.83
3224.45
3102.7
2900.53
3089.65
2735.65
2768.25
3088.56
2968.83
3189.15
2683.35
3044.26
3079
2919.43
2948.92
3030.54
2695.29
2540.92
2881.85
2967.76
3246.18
2850.33
2753.94
2867.43
2962.23
3041.76
2909.5
2729.97
2851.22
3074.27
2679.49
2721.8
2849.14
2761.27
2936.51
2911.84
3131.87
2978.71
3058.05
2775.13
2872.85
2935.62
2859.64
2818.44
2784.24
2778.16
2668.5
3008.7
2929.28
2926.13
2969.07
2599.13
2795.63
3216.43
3219.64
2727.4
3094.92
2961.36
3002.36
2778.45
3143.44
3120.76
2675.92
2824.47
2792.42
2782.56
2599.53
2646.23
2791.87
3119.49
3323.67
2750.53
3029.6
3007.45
2953.7
2836.94
2937.54
3132.35
2945.04
2684.93
2797.66
2775.17
2794.36
2978.49
3013.92
3011.09
3022.46
3026.13
2733.38
3034.19
2805.64
3000.43
2379.52
2970.81
3154.58
2817.5
2492.25
2889.91
2848.11
3246.45
2706.13
3034.86
2869.6
2537.62
3208.28
2621.98
2843.88
2883.05
2600.32
3096.56
2935.75
2839.81
2915.84
2934.26
2838.67
3259.44
2632.01
2788.22
2319.8
2834.69
2815.61
2891.76
3094.23
3484.98
2585.88
2793.89
3393.79
2625.51
3017.17
2724.18
3002.11
2480.46
2710.57
3384.72
2520.32
3341.72
2562.72
3235.9
2549.04
2702.49
2357.52
2639.76
3346.55
2416.33
2876.15
2521.35
3188.12
3349.62
2431.79
2842.81
2746.79
2684.61
2673.63
2789.74
2886.22
2886.58
2993.06
2864.84
3185.3
3414.15
2427.94
2910.02
2959.13
2885.01
2916.64
2853.55
2826.16
2851.6
3052.27
2861.71
3054.67
2786.58
2931.2
3157.33
2814.15
2982.81
3095.24
2783.23
2931.33
2867.77
2991.01
2843.2
2909.75
2822.85
3081.16
2799.74
2949.17
2562.68
3203.69
2441.92
2972.29
3076.78
3199.13
2710.35
2913.68
2863.83
2909.91
2904.69
2862.83
3049.39
2678.44
2255.25
2862.79
2496.64
3113.87
2716.94
2881.44
3034.76
2284.4
3176.7
2684.4
2375.67
2718.73
3015.91
2997.5
2897.11
2416.45
2898.29
2936
2748.1
2716.61
3120.37
3084.97
2773.62
2894.17
3121.53
2425.61
3060.84
2712.02
2986.76
2451.01
3330
3277.59
3073.65
2893.54
2831.18
3017.95
2817.38
2412.62
2658.51
3024.91
2723.73
2989.2
2488.45
3108.98
2999.1
2151.32
2900.91
2942.75
2302.99
3178.18
2554.5
3115.4
3205.31
3049
2370.53
2906.57
2831.71
2902.2
2914.98
2981.16
2426.88
2788.13
2726.84
2729.36
3102.94
2882.31
2963.3
2997.89
2987.79
2828.01
2911.23
2841.12
2947.17
3119.4
2768.98
2817.2
2753.52
2917.31
3074.88
2767.04
2806.82
2785.86
2885
2727.45
2744.04
2806.46
2824.86
2907.32
2809.56
3188.25
3056.94
2506.54
2525.57
3165.86
2101.89
3029.17
2934.97
2730.89
2827.84
3185.35
2288.2
3101.62
2958.81
2392.02
2792.63
2753.66
2896.75
2262.25
3146.06
2976.37
2287.85
3124.94
3140.92
2455.97
3200.62
3084.45
2462.92
2756.35
2730.64
2295.47
2887.18
2915.66
2675.6
2711.13
2714.13
2183.1
2702.08
2297.5
2154.88
3088.03
2745.14
3344.81
2779.69
2422.89
3145.94
2862.1
2338.87
2770.64
2760.59
2333.21
2521.18
3169.59
2024.58
2661.6
2651.08
2110.39
3106.17
3057.51
2885.69
2801.59
2759.66
2660.5
2223.75
2893.22
2803.23
2816.6
2886.72
2367.08
3032.91
2767.96
2857.88
2743.61
2848.77
2905.9
2649.62
2390.12
2798.08
2937.58
2761.8
2803.03
2869.8
2709.78
2815.44
2360.03
2776.65
2966.88
2747.32
2829.6
2717.04
2400.17
3170.98
3166.41
3123.97
3215.4
2452.37
2303.9
2786.26
3055.98
2914.23
3014.25
3052.76
2661.91
2607.06
2329.99
2443.5
2704.71
2861.06
2845.32
2834.24
2615.54
3086.81
2953.11
2467.72
2688.05
2652.48
3047.22
2712.74
2225.11
2895.94
2873.36
3100.37
2347.62
2764.56
2927.13
2783.3
2824.83
3006.91
2856.39
2664.99
3232.12
2137.63
2598.7
2849.66
2713.37
2795.03
3204.9
2964.56
2885.28
2582.49
3161.52
2782.11
2906.45
3051.31
3102
3080.94
3100.09
3189.23
3241.98
3175.28
3176.06
2907.86
3065.92
2767.6
2826.32
2613.52
2539.22
2183.76
3214.74
3197.87
3124.52
2812.42
2907.6
2891.72
2720.06
2923.63
3060.48
2676.45
2839.02
2994.57
2757.03
2773.64
2759.7
2809.33
2705.08
2800.89
2780.8
2451.25
2924.43
2683.38
2836.16
2330.17
3224.57
2848.33
2735.19
2697.74
2478.18
2877.52
2742.61
2296.06
2581.4
2840.92
2536.33
2589.35
3250.42
3279.31
2784.68
2786.13
3027.89
3198.28
2288.72
2735.74
2706.84
2795.72
2794.82
2815.25
2852.44
2607.37
2402.02
3158.07
2789.88
2557.48
2602.23
2781.24
2881.55
2484.93
2838.73
2725.03
2767.13
3202.4
2566.33
2416.39
2798.86
2749.9
2708.2
2409.02
3110.75
2782.23
2766.55
2780.76
2298.54
2790.72
2794.08
2426.71
2783.3
2579.07
2949.23
3136.13
2723.57
3060.22
2934.63
2728.1
2734.93
2802.3
2411.89
2944.52
2980.25
2758.22
2349.94
2647.24
2829.76
2846.68
2724.96
2387.21
2735.62
3100.57
2942.46
2745.27
3243.82
2562.35
3062.8
2306.14
2552.16
3086.31
2303.99
3087.31
2747.88
2880.43
2768.71
3276.81
2620.25
2884.31
3199.11
3166.24
2499.72
3140.13
3204.94
2117.17
2856.28
2744.98
2320.02
2992.49
2739.36
2768.3
2769.47
2855.61
2817.94
2757.71
2738.62
2302.86
2983.05
2884.86
2865.5
2903.42
2811.59
2725.56
2650.25
3039.59
2234.22
2699.84
2717.48
2263.7
3076.35
3224.52
2868.34
3126.23
3167.39
2706.65
2764.74
2960.55
3123.86
2707.89
2993.12
2601.25
2330.15
3041.06
2668.99
3099.62
3249.16
3194.14
2348.15
3067.48
2901.21
2669.63
2755.3
2797.31
2743.53
2357.56
3138.78
2372.46
3129.93
2807.95
2601.98
2574.38
2829.97
2999.01
3187.15
2868.97
3311.99
3044.79
3086.71
2307.45
3064.34
3012.07
3104.98
2717.37
2673.61
2238.34
2840.99
3292.99
3134.72
2392.97
2618.12
2386.11
2716.36
2851.98
2593.01
3447.66
2770.98
2617.49
2408.43
2940.43
2681.09
2258.92
2835.48
2740.66
2745.27
2755.66
2759.53
2413.83
2594.74
2323.11
2749.93
3050.36
2951.89
3145.28
3106.4
2700.59
2647.33
2307.49
2720.93
3018.2
3163.3
3042.94
3048.02
2557.8
2259.92
2624.7
2219.45
3026.82
3049.48
2650.27
3078.56
3028.91
3138.94
2938.71
2881.64
2873.34
2700.42
2286.77
2638.48
2351.85
2598.17
2755.91
2724.04
2449.38
2345.56
2987.61
3292.91
3252.41
3195.36
2867.02
2974.72
2965.92
2848.4
2756.58
2844.13
2665.3
2808.11
2810.33
2346.28
3035.01
2791.64
2620.59
2442.04
2743.69
2860.07
2857.07
2726.32
2444.89
3180.88
2931.6
2745.29
3236.75
2672.73
2325.61
2970.41
2812.98
2812.38
2811.06
2729.96
2226.07
2833.08
2804.75
2376.7
3180.92
2780.94
2034.46
2754.52
2848.07
2865.92
2727.53
2357.51
2694.57
2708.32
2535.36
2821.63
2305.6
2836.26
2821.24
2510.49
3243.22
2802.53
2427.21
3307.71
2843.75
2844.59
2436.76
2820.11
2372.41
)
;
    }
}


// ************************************************************************* //
