/*--------------------------------*- C++ -*----------------------------------*\
| =========                 |                                                 |
| \\      /  F ield         | OpenFOAM: The Open Source CFD Toolbox           |
|  \\    /   O peration     | Version:  v1912                                 |
|   \\  /    A nd           | Website:  www.openfoam.com                      |
|    \\/     M anipulation  |                                                 |
\*---------------------------------------------------------------------------*/
FoamFile
{
    version     2.0;
    format      ascii;
    class       volVectorField;
    location    "105/oil";
    object      U;
}
// * * * * * * * * * * * * * * * * * * * * * * * * * * * * * * * * * * * * * //

dimensions      [0 1 -1 0 0 0 0];


internalField   nonuniform List<vector> 
27760
(
(8.83001e-06 7.25679e-06 8.92772e-06)
(-8.68561e-05 -5.29029e-05 -4.77676e-05)
(3.37683e-05 -2.39159e-05 -2.51337e-05)
(-1.36747e-05 1.02697e-05 8.33847e-06)
(8.90743e-07 -2.61793e-07 -2.12315e-06)
(-7.69387e-06 3.69717e-06 1.81676e-06)
(-5.71319e-06 1.68706e-06 -2.15059e-07)
(-7.11431e-06 2.49446e-06 5.47845e-07)
(-6.77266e-06 2.11599e-06 1.1809e-07)
(-6.34005e-06 2.38319e-06 3.51636e-07)
(-6.03155e-06 2.3272e-06 2.42604e-07)
(-4.74576e-06 2.4505e-06 3.53753e-07)
(-4.26392e-06 2.47124e-06 3.22451e-07)
(-2.49395e-06 2.49944e-06 3.72423e-07)
(-1.86547e-06 2.53025e-06 3.66233e-07)
(6.43048e-08 2.47945e-06 3.56107e-07)
(7.71538e-07 2.51326e-06 3.54369e-07)
(2.52239e-06 2.3901e-06 2.87436e-07)
(3.22292e-06 2.41818e-06 2.94125e-07)
(4.50845e-06 2.24542e-06 1.8851e-07)
(5.09915e-06 2.27171e-06 2.03475e-07)
(5.70709e-06 2.07903e-06 8.43651e-08)
(6.07178e-06 2.10255e-06 1.08731e-07)
(5.88891e-06 1.9191e-06 4.24316e-09)
(5.9191e-06 1.9303e-06 4.36958e-08)
(4.92318e-06 1.77773e-06 -2.61033e-08)
(4.49923e-06 1.76944e-06 2.60882e-08)
(2.72393e-06 1.66393e-06 -1.65209e-08)
(1.81515e-06 1.51094e-06 6.18084e-08)
(-1.02683e-07 1.0178e-06 9.95933e-08)
(-4.89693e-05 -9.18219e-05 -4.88405e-05)
(3.18261e-05 3.66798e-05 -2.69901e-05)
(-2.51277e-05 -6.80919e-06 2.92811e-06)
(-4.96926e-06 9.36532e-06 2.03921e-06)
(-1.25273e-05 1.99584e-06 1.07572e-06)
(-1.04266e-05 3.20254e-06 1.27222e-06)
(-1.18593e-05 1.584e-06 4.87723e-07)
(-1.13331e-05 1.20606e-06 8.04608e-07)
(-1.14686e-05 2.91967e-07 5.59471e-07)
(-1.03116e-05 -2.43357e-07 8.02446e-07)
(-9.90035e-06 -9.87508e-07 7.50119e-07)
(-7.94155e-06 -1.44161e-06 9.20244e-07)
(-7.20912e-06 -1.92919e-06 9.14028e-07)
(-4.69331e-06 -2.20972e-06 9.97004e-07)
(-3.73382e-06 -2.32277e-06 1.00518e-06)
(-1.00182e-06 -2.40295e-06 9.822e-07)
(9.3453e-08 -2.11545e-06 9.74103e-07)
(2.61567e-06 -1.9922e-06 8.51293e-07)
(3.76066e-06 -1.33379e-06 8.39962e-07)
(5.71863e-06 -1.02879e-06 6.52006e-07)
(6.77318e-06 -1.18047e-07 6.26395e-07)
(7.85604e-06 3.08974e-07 4.11355e-07)
(8.61777e-06 1.30423e-06 3.96495e-07)
(8.60041e-06 1.77411e-06 2.00616e-07)
(8.82558e-06 2.70716e-06 2.05811e-07)
(7.56766e-06 3.18617e-06 5.59976e-08)
(6.99278e-06 3.98965e-06 6.65192e-08)
(4.43179e-06 4.40537e-06 -4.97122e-08)
(3.01717e-06 4.31161e-06 9.94975e-10)
(-1.06278e-07 2.29856e-06 9.02726e-08)
(-2.64564e-05 3.72605e-05 -2.63117e-05)
(-1.6345e-05 -9.63304e-06 1.98958e-06)
(-6.16078e-06 1.22282e-05 -6.62292e-06)
(-1.33038e-05 8.46744e-06 2.79753e-06)
(-9.75757e-06 9.33824e-06 -1.1004e-06)
(-1.32267e-05 8.56547e-06 1.16235e-06)
(-1.24963e-05 7.37022e-06 3.77495e-08)
(-1.31839e-05 6.7147e-06 7.2562e-07)
(-1.27849e-05 5.38184e-06 4.40792e-07)
(-1.18157e-05 4.70207e-06 7.65827e-07)
(-1.11998e-05 3.57608e-06 7.12373e-07)
(-9.13331e-06 2.98406e-06 9.17103e-07)
(-8.26725e-06 2.25501e-06 9.3555e-07)
(-5.5242e-06 1.8304e-06 1.02465e-06)
(-4.48045e-06 1.65878e-06 1.03257e-06)
(-1.50852e-06 1.44177e-06 1.01278e-06)
(-3.17655e-07 1.87158e-06 1.01093e-06)
(2.47233e-06 1.88611e-06 8.85622e-07)
(3.75544e-06 2.86125e-06 8.59829e-07)
(5.95593e-06 3.12987e-06 6.46228e-07)
(7.18386e-06 4.46742e-06 6.19039e-07)
(8.44978e-06 4.94046e-06 3.81953e-07)
(9.38237e-06 6.46769e-06 3.65504e-07)
(9.45733e-06 7.09294e-06 1.48919e-07)
(9.79333e-06 8.61931e-06 1.47908e-07)
(8.47597e-06 9.42213e-06 -2.77828e-08)
(7.89184e-06 1.09296e-05 -3.80976e-08)
(5.09631e-06 1.1791e-05 -1.95772e-07)
(3.56409e-06 1.17155e-05 -1.61624e-07)
(-3.71086e-09 7.01679e-06 -1.63419e-08)
(7.50827e-06 -2.79192e-06 7.66029e-06)
(4.94326e-07 1.75325e-05 1.5103e-06)
(-9.02081e-06 1.12823e-05 2.67362e-06)
(-8.30187e-06 1.48132e-05 1.39247e-06)
(-1.21033e-05 1.0404e-05 9.86221e-07)
(-1.20401e-05 9.78734e-06 1.03982e-06)
(-1.32186e-05 6.87678e-06 7.63003e-07)
(-1.27233e-05 5.40961e-06 1.05453e-06)
(-1.28066e-05 2.88872e-06 9.89016e-07)
(-1.14306e-05 1.3342e-06 1.3053e-06)
(-1.1048e-05 -7.83662e-07 1.32616e-06)
(-8.8717e-06 -2.05577e-06 1.57209e-06)
(-8.29279e-06 -3.41581e-06 1.62311e-06)
(-5.56077e-06 -4.2454e-06 1.75849e-06)
(-4.83726e-06 -4.62529e-06 1.78516e-06)
(-1.89968e-06 -4.89161e-06 1.75913e-06)
(-9.93855e-07 -4.18513e-06 1.73975e-06)
(1.76849e-06 -3.86853e-06 1.55833e-06)
(2.90857e-06 -2.19338e-06 1.50018e-06)
(5.11423e-06 -1.35793e-06 1.19475e-06)
(6.34967e-06 1.04117e-06 1.14828e-06)
(7.71758e-06 2.30606e-06 8.21721e-07)
(8.80513e-06 5.01552e-06 7.58832e-07)
(8.96716e-06 6.52195e-06 4.57516e-07)
(9.50837e-06 9.23367e-06 4.19567e-07)
(8.21319e-06 1.09776e-05 1.74508e-07)
(7.81336e-06 1.36816e-05 1.26662e-07)
(4.96366e-06 1.54869e-05 -9.28304e-08)
(3.59777e-06 1.58604e-05 -9.14774e-08)
(-7.0549e-08 9.36979e-06 4.20014e-08)
(-2.67303e-06 1.87978e-05 -2.51252e-06)
(-6.09084e-06 1.96575e-05 4.38134e-07)
(-7.84849e-06 2.40221e-05 -1.47935e-06)
(-1.19924e-05 1.94039e-05 6.88444e-07)
(-1.27897e-05 1.7576e-05 -2.72122e-07)
(-1.50983e-05 1.47492e-05 6.40396e-07)
(-1.53757e-05 1.20076e-05 2.76412e-07)
(-1.5711e-05 9.81473e-06 7.6352e-07)
(-1.54214e-05 6.90541e-06 6.69302e-07)
(-1.41168e-05 4.99149e-06 1.02682e-06)
(-1.33703e-05 2.48054e-06 1.06738e-06)
(-1.07801e-05 9.49059e-07 1.3268e-06)
(-9.79107e-06 -6.98036e-07 1.35545e-06)
(-6.44246e-06 -1.69868e-06 1.49256e-06)
(-5.25906e-06 -2.1501e-06 1.51306e-06)
(-1.62622e-06 -2.56497e-06 1.49111e-06)
(-2.66241e-07 -1.70904e-06 1.48566e-06)
(3.13381e-06 -1.49585e-06 1.30649e-06)
(4.63903e-06 5.53466e-07 1.27985e-06)
(7.3547e-06 1.39435e-06 1.00111e-06)
(8.88696e-06 4.34899e-06 9.32481e-07)
(1.04225e-05 5.74884e-06 5.87117e-07)
(1.1597e-05 9.14711e-06 5.56918e-07)
(1.16486e-05 1.09573e-05 2.46974e-07)
(1.20611e-05 1.44653e-05 2.31494e-07)
(1.03786e-05 1.67438e-05 -2.60922e-08)
(9.65833e-06 2.04217e-05 -6.91955e-08)
(6.21394e-06 2.29714e-05 -3.11566e-07)
(4.422e-06 2.36342e-05 -3.03608e-07)
(7.50607e-08 1.44624e-05 -1.04354e-07)
(1.42315e-06 1.54173e-05 1.59679e-06)
(-4.371e-06 2.93958e-05 7.21153e-07)
(-8.12554e-06 2.78058e-05 7.6206e-07)
(-1.1636e-05 2.54253e-05 7.17881e-07)
(-1.42436e-05 2.01893e-05 6.44459e-07)
(-1.58736e-05 1.6964e-05 9.274e-07)
(-1.68648e-05 1.22149e-05 8.94771e-07)
(-1.67375e-05 8.98523e-06 1.3161e-06)
(-1.6632e-05 4.47821e-06 1.39479e-06)
(-1.49313e-05 1.45416e-06 1.84186e-06)
(-1.42669e-05 -2.35259e-06 1.93685e-06)
(-1.137e-05 -4.77905e-06 2.35207e-06)
(-1.04501e-05 -7.29066e-06 2.46291e-06)
(-6.751e-06 -8.81756e-06 2.68355e-06)
(-5.69444e-06 -9.56196e-06 2.73628e-06)
(-1.7105e-06 -1.00321e-05 2.69796e-06)
(-4.26135e-07 -8.83955e-06 2.6695e-06)
(3.30933e-06 -8.20462e-06 2.37616e-06)
(4.89233e-06 -5.2631e-06 2.28503e-06)
(7.87177e-06 -3.57813e-06 1.81098e-06)
(9.56919e-06 6.30152e-07 1.69777e-06)
(1.13162e-05 3.13198e-06 1.18715e-06)
(1.27241e-05 8.00367e-06 1.08526e-06)
(1.27981e-05 1.1008e-05 6.2319e-07)
(1.33513e-05 1.60012e-05 5.51005e-07)
(1.14453e-05 1.95219e-05 1.7882e-07)
(1.06921e-05 2.46915e-05 9.45825e-08)
(6.79555e-06 2.84792e-05 -2.31241e-07)
(4.83358e-06 2.97194e-05 -2.39796e-07)
(-1.81464e-08 1.81827e-05 -3.18616e-08)
(-7.65804e-07 2.4194e-05 -5.80568e-07)
(-6.48756e-06 3.85329e-05 -4.20458e-07)
(-1.04488e-05 3.88831e-05 -7.64444e-07)
(-1.57256e-05 3.34275e-05 4.73808e-09)
(-1.83257e-05 2.80163e-05 -1.52484e-07)
(-2.13115e-05 2.30967e-05 4.07927e-07)
(-2.23055e-05 1.76635e-05 3.3466e-07)
(-2.27331e-05 1.34167e-05 8.47565e-07)
(-2.23858e-05 8.07647e-06 8.44553e-07)
(-2.04579e-05 4.34997e-06 1.37528e-06)
(-1.91803e-05 -2.14872e-07 1.45634e-06)
(-1.53748e-05 -3.10785e-06 1.86579e-06)
(-1.35777e-05 -6.0911e-06 1.93645e-06)
(-8.57271e-06 -7.91664e-06 2.16279e-06)
(-6.4549e-06 -8.80243e-06 2.20415e-06)
(-1.01211e-06 -9.42043e-06 2.17161e-06)
(1.33168e-06 -8.00782e-06 2.16365e-06)
(6.3748e-06 -7.34707e-06 1.87151e-06)
(8.84002e-06 -3.82996e-06 1.82732e-06)
(1.27493e-05 -1.90471e-06 1.35541e-06)
(1.5032e-05 3.22674e-06 1.28912e-06)
(1.7157e-05 6.21428e-06 7.49385e-07)
(1.86801e-05 1.21778e-05 6.88521e-07)
(1.85156e-05 1.59064e-05 2.08958e-07)
(1.87177e-05 2.21011e-05 1.71058e-07)
(1.60139e-05 2.65747e-05 -2.21292e-07)
(1.4498e-05 3.31024e-05 -2.99209e-07)
(9.38836e-06 3.79972e-05 -6.53572e-07)
(6.42308e-06 3.96062e-05 -6.3662e-07)
(2.35937e-07 2.45689e-05 -2.91578e-07)
(-1.31542e-08 2.9347e-05 1.90718e-07)
(-7.09811e-06 4.96303e-05 -2.28899e-07)
(-1.17402e-05 4.84012e-05 -2.14381e-07)
(-1.77469e-05 4.24202e-05 1.98337e-07)
(-2.10906e-05 3.44029e-05 3.15719e-07)
(-2.43019e-05 2.81037e-05 8.40913e-07)
(-2.55791e-05 2.04093e-05 9.60644e-07)
(-2.58243e-05 1.44833e-05 1.62389e-06)
(-2.53975e-05 7.05247e-06 1.8183e-06)
(-2.30051e-05 1.63735e-06 2.5455e-06)
(-2.15487e-05 -4.694e-06 2.77943e-06)
(-1.71041e-05 -8.95441e-06 3.44559e-06)
(-1.51506e-05 -1.31632e-05 3.64983e-06)
(-9.4016e-06 -1.57706e-05 4.02184e-06)
(-7.18419e-06 -1.7091e-05 4.11829e-06)
(-9.55677e-07 -1.77685e-05 4.06079e-06)
(1.55983e-06 -1.59105e-05 4.01377e-06)
(7.35875e-06 -1.45824e-05 3.5314e-06)
(1.01648e-05 -9.83163e-06 3.3719e-06)
(1.47284e-05 -6.62817e-06 2.6094e-06)
(1.74366e-05 2.4899e-07 2.38982e-06)
(1.99373e-05 4.92703e-06 1.57738e-06)
(2.18737e-05 1.29205e-05 1.40491e-06)
(2.17107e-05 1.84429e-05 6.81071e-07)
(2.20168e-05 2.66596e-05 5.49711e-07)
(1.88226e-05 3.29234e-05 -2.60013e-08)
(1.70012e-05 4.14207e-05 -1.71474e-07)
(1.09506e-05 4.79776e-05 -6.59166e-07)
(7.40188e-06 5.01506e-05 -6.60525e-07)
(1.74806e-07 3.12009e-05 -2.60483e-07)
(-8.12809e-07 3.82955e-05 -5.91747e-07)
(-9.51596e-06 6.33985e-05 -1.10144e-06)
(-1.58619e-05 6.24388e-05 -1.16708e-06)
(-2.38149e-05 5.42949e-05 -5.37315e-07)
(-2.83694e-05 4.46641e-05 -4.25163e-07)
(-3.3009e-05 3.63417e-05 2.01966e-07)
(-3.48631e-05 2.69455e-05 2.83752e-07)
(-3.56258e-05 1.9283e-05 9.99224e-07)
(-3.50298e-05 1.01835e-05 1.11659e-06)
(-3.21099e-05 3.34464e-06 1.89846e-06)
(-2.97178e-05 -4.38075e-06 2.04912e-06)
(-2.38151e-05 -9.66374e-06 2.72288e-06)
(-2.03678e-05 -1.47662e-05 2.85864e-06)
(-1.24892e-05 -1.79553e-05 3.23561e-06)
(-8.4538e-06 -1.95762e-05 3.31285e-06)
(1.5195e-07 -2.03806e-05 3.25375e-06)
(4.48738e-06 -1.81744e-05 3.25449e-06)
(1.24154e-05 -1.64902e-05 2.76185e-06)
(1.67449e-05 -1.07678e-05 2.69291e-06)
(2.27652e-05 -6.7075e-06 1.90707e-06)
(2.64729e-05 1.72069e-06 1.81576e-06)
(2.96101e-05 7.67511e-06 9.44352e-07)
(3.16977e-05 1.75305e-05 8.34466e-07)
(3.11487e-05 2.46601e-05 7.65025e-08)
(3.08102e-05 3.48671e-05 -1.76224e-08)
(2.63082e-05 4.29105e-05 -6.30961e-07)
(2.31438e-05 5.34711e-05 -7.79169e-07)
(1.51328e-05 6.17623e-05 -1.32159e-06)
(9.89306e-06 6.43637e-05 -1.28987e-06)
(5.68564e-07 4.0219e-05 -6.62014e-07)
(-7.23165e-07 4.90368e-05 -4.76454e-07)
(-1.11484e-05 8.12294e-05 -1.19874e-06)
(-1.87327e-05 7.97145e-05 -1.16299e-06)
(-2.8238e-05 6.96888e-05 -4.50751e-07)
(-3.38015e-05 5.71894e-05 -1.61101e-07)
(-3.92512e-05 4.63916e-05 6.593e-07)
(-4.14141e-05 3.40753e-05 9.31991e-07)
(-4.21201e-05 2.37428e-05 1.94629e-06)
(-4.12014e-05 1.17734e-05 2.28736e-06)
(-3.75657e-05 2.36419e-06 3.42925e-06)
(-3.45977e-05 -7.84786e-06 3.83655e-06)
(-2.75444e-05 -1.51838e-05 4.89493e-06)
(-2.34783e-05 -2.20183e-05 5.23872e-06)
(-1.42414e-05 -2.63843e-05 5.84663e-06)
(-9.6153e-06 -2.86362e-05 6.00905e-06)
(4.53265e-07 -2.95188e-05 5.92105e-06)
(5.47545e-06 -2.67052e-05 5.85479e-06)
(1.48084e-05 -2.3986e-05 5.07819e-06)
(1.99928e-05 -1.65461e-05 4.81641e-06)
(2.72565e-05 -1.05221e-05 3.61998e-06)
(3.17927e-05 3.66883e-07 3.23435e-06)
(3.5598e-05 8.93247e-06 1.99274e-06)
(3.83496e-05 2.16732e-05 1.70432e-06)
(3.77701e-05 3.15772e-05 6.06142e-07)
(3.73745e-05 4.46706e-05 3.69565e-07)
(3.19254e-05 5.54113e-05 -5.03461e-07)
(2.79068e-05 6.87097e-05 -7.68794e-07)
(1.82012e-05 7.93155e-05 -1.50251e-06)
(1.17145e-05 8.24191e-05 -1.5051e-06)
(6.12895e-07 5.17424e-05 -7.38473e-07)
(-1.3931e-06 6.17362e-05 -1.11851e-06)
(-1.46058e-05 0.000101961 -2.17316e-06)
(-2.48975e-05 0.000100296 -2.16474e-06)
(-3.73315e-05 8.7539e-05 -1.32311e-06)
(-4.51854e-05 7.20137e-05 -1.00472e-06)
(-5.27006e-05 5.79783e-05 -1.20188e-07)
(-5.60202e-05 4.24803e-05 1.16558e-07)
(-5.73849e-05 2.89649e-05 1.16807e-06)
(-5.62901e-05 1.39618e-05 1.42251e-06)
(-5.17838e-05 1.78157e-06 2.58456e-06)
(-4.73601e-05 -1.08963e-05 2.85115e-06)
(-3.80934e-05 -2.02451e-05 3.89418e-06)
(-3.16377e-05 -2.86794e-05 4.13708e-06)
(-1.91613e-05 -3.41309e-05 4.7288e-06)
(-1.16083e-05 -3.69494e-05 4.86021e-06)
(2.09063e-06 -3.79169e-05 4.76231e-06)
(1.00557e-05 -3.45555e-05 4.77131e-06)
(2.26383e-05 -3.08862e-05 3.97958e-06)
(3.02957e-05 -2.18314e-05 3.86098e-06)
(3.97671e-05 -1.3873e-05 2.64091e-06)
(4.59505e-05 -4.2802e-07 2.51034e-06)
(5.07794e-05 1.08902e-05 1.16911e-06)
(5.37432e-05 2.68218e-05 9.78881e-07)
(5.25814e-05 3.99288e-05 -1.69749e-07)
(5.10582e-05 5.64138e-05 -3.66216e-07)
(4.35265e-05 7.03889e-05 -1.29708e-06)
(3.72012e-05 8.69577e-05 -1.58656e-06)
(2.44481e-05 0.000100293 -2.42463e-06)
(1.53014e-05 0.000103931 -2.41062e-06)
(1.17467e-06 6.52713e-05 -1.30383e-06)
(-1.58431e-06 7.97747e-05 -1.2703e-06)
(-1.73889e-05 0.000130774 -2.57165e-06)
(-3.00724e-05 0.000128907 -2.45068e-06)
(-4.53654e-05 0.000113154 -1.36444e-06)
(-5.53492e-05 9.37562e-05 -8.41941e-07)
(-6.45636e-05 7.57741e-05 3.33097e-07)
(-6.86062e-05 5.6129e-05 7.8802e-07)
(-7.00077e-05 3.8487e-05 2.22634e-06)
(-6.82935e-05 1.94659e-05 2.73973e-06)
(-6.25614e-05 3.47831e-06 4.38021e-06)
(-5.68422e-05 -1.26179e-05 4.99077e-06)
(-4.55689e-05 -2.49558e-05 6.53371e-06)
(-3.75379e-05 -3.57175e-05 7.06031e-06)
(-2.26397e-05 -4.28694e-05 7.95628e-06)
(-1.3438e-05 -4.65472e-05 8.20296e-06)
(2.88335e-06 -4.76184e-05 8.07762e-06)
(1.26217e-05 -4.34979e-05 7.9909e-06)
(2.7713e-05 -3.83214e-05 6.82456e-06)
(3.72253e-05 -2.69793e-05 6.45118e-06)
(4.88775e-05 -1.61299e-05 4.69331e-06)
(5.66592e-05 8.29737e-07 4.19608e-06)
(6.27378e-05 1.59376e-05 2.38611e-06)
(6.6684e-05 3.59915e-05 1.96526e-06)
(6.54459e-05 5.33663e-05 4.18332e-07)
(6.33959e-05 7.4111e-05 4.11368e-08)
(5.40208e-05 9.2227e-05 -1.20002e-06)
(4.56124e-05 0.00011275 -1.66533e-06)
(2.98031e-05 0.000129334 -2.77542e-06)
(1.82537e-05 0.000133395 -2.86522e-06)
(1.38179e-06 8.4236e-05 -1.5313e-06)
(-2.28645e-06 9.88454e-05 -1.92106e-06)
(-2.18313e-05 0.00016212 -3.60093e-06)
(-3.86076e-05 0.000159859 -3.36961e-06)
(-5.85747e-05 0.000140052 -2.09233e-06)
(-7.25941e-05 0.000115597 -1.49434e-06)
(-8.50774e-05 9.215e-05 -2.92675e-07)
(-9.10624e-05 6.69912e-05 9.70853e-08)
(-9.33038e-05 4.37901e-05 1.51349e-06)
(-9.12374e-05 1.96395e-05 1.90513e-06)
(-8.40674e-05 -1.16992e-06 3.47908e-06)
(-7.60439e-05 -2.1282e-05 3.87381e-06)
(-6.146e-05 -3.7094e-05 5.32638e-06)
(-4.97265e-05 -5.04257e-05 5.66982e-06)
(-3.01298e-05 -5.94544e-05 6.52201e-06)
(-1.6409e-05 -6.40608e-05 6.71909e-06)
(5.1679e-06 -6.51783e-05 6.57066e-06)
(1.94585e-05 -6.02411e-05 6.59579e-06)
(3.93261e-05 -5.32681e-05 5.44844e-06)
(5.27169e-05 -3.94071e-05 5.29424e-06)
(6.78149e-05 -2.50692e-05 3.59575e-06)
(7.81594e-05 -4.11444e-06 3.36404e-06)
(8.58477e-05 1.59627e-05 1.5858e-06)
(9.03268e-05 4.12803e-05 1.32597e-06)
(8.83289e-05 6.43791e-05 -2.10766e-07)
(8.43825e-05 9.08426e-05 -5.08465e-07)
(7.16365e-05 0.000114567 -1.76789e-06)
(5.91064e-05 0.000140347 -2.2983e-06)
(3.84168e-05 0.00016111 -3.60418e-06)
(2.27672e-05 0.000165913 -3.83091e-06)
(2.0174e-06 0.000104614 -2.15248e-06)
(-2.52981e-06 0.000126325 -2.09322e-06)
(-2.54341e-05 0.00020564 -3.85749e-06)
(-4.65866e-05 0.000203268 -3.22114e-06)
(-7.2017e-05 0.000179085 -1.54191e-06)
(-9.0696e-05 0.000148861 -7.23149e-07)
(-0.000106539 0.000119252 6.99986e-07)
(-0.000114104 8.79496e-05 1.2138e-06)
(-0.000116391 5.86419e-05 2.93914e-06)
(-0.000113168 2.89848e-05 3.51913e-06)
(-0.000103818 2.92562e-06 5.54939e-06)
(-9.32605e-05 -2.16563e-05 6.26661e-06)
(-7.52488e-05 -4.14826e-05 8.21402e-06)
(-6.02855e-05 -5.77263e-05 8.80982e-06)
(-3.65662e-05 -6.89537e-05 9.97151e-06)
(-1.92618e-05 -7.46152e-05 1.02874e-05)
(6.77747e-06 -7.5885e-05 1.01133e-05)
(2.47771e-05 -7.01189e-05 1.00523e-05)
(4.89252e-05 -6.12022e-05 8.5546e-06)
(6.59068e-05 -4.45912e-05 8.15281e-06)
(8.46642e-05 -2.63573e-05 5.92472e-06)
(9.79909e-05 -9.18643e-07 5.42161e-06)
(0.000108031 2.44874e-05 3.17636e-06)
(0.000114022 5.54699e-05 2.77381e-06)
(0.000111997 8.49058e-05 9.44799e-07)
(0.000106593 0.000117741 5.78273e-07)
(9.02704e-05 0.000147871 -8.83934e-07)
(7.29448e-05 0.000179619 -1.60257e-06)
(4.64624e-05 0.000204956 -3.32129e-06)
(2.63729e-05 0.000210229 -3.99347e-06)
(2.189e-06 0.000133166 -2.30471e-06)
(-2.77631e-06 0.000152889 -2.23427e-06)
(-2.93738e-05 0.000249698 -3.75368e-06)
(-5.70519e-05 0.000246396 -2.39734e-06)
(-9.06457e-05 0.000216014 -3.26714e-07)
(-0.000116718 0.000177425 5.38898e-07)
(-0.000137786 0.000138853 1.73885e-06)
(-0.000148235 9.8687e-05 1.95016e-06)
(-0.000151231 6.07282e-05 3.34809e-06)
(-0.000146999 2.34193e-05 3.6277e-06)
(-0.000135136 -9.71956e-06 5.30502e-06)
(-0.000120895 -3.9937e-05 5.67163e-06)
(-9.80066e-05 -6.47566e-05 7.26978e-06)
(-7.75115e-05 -8.45934e-05 7.58763e-06)
(-4.72807e-05 -9.85028e-05 8.51883e-06)
(-2.3438e-05 -0.000105459 8.73542e-06)
(9.72677e-06 -0.00010678 8.54577e-06)
(3.43479e-05 -9.99727e-05 8.64143e-06)
(6.51693e-05 -8.84562e-05 7.31227e-06)
(8.79875e-05 -6.84427e-05 7.27697e-06)
(0.000111938 -4.51974e-05 5.3717e-06)
(0.000129374 -1.4187e-05 5.28327e-06)
(0.000142259 1.84291e-05 3.40146e-06)
(0.00014958 5.71334e-05 3.38415e-06)
(0.000146996 9.54725e-05 1.91258e-06)
(0.000138712 0.000137365 1.91991e-06)
(0.000116944 0.000176692 7.49134e-07)
(9.1886e-05 0.00021701 2.17481e-08)
(5.68259e-05 0.000248684 -2.09081e-06)
(3.00602e-05 0.000255286 -3.58937e-06)
(2.25147e-06 0.000161034 -2.30167e-06)
(-2.13063e-06 0.000188059 -1.44414e-06)
(-3.15526e-05 0.000306328 -1.70851e-06)
(-6.78672e-05 0.000302321 1.08292e-06)
(-0.000112479 0.000265024 3.75514e-06)
(-0.000148081 0.000216972 4.6446e-06)
(-0.000174942 0.000168878 5.60027e-06)
(-0.000187826 0.00012 5.43129e-06)
(-0.000190252 7.41276e-05 6.64265e-06)
(-0.000183625 3.02793e-05 6.7233e-06)
(-0.000167999 -8.92883e-06 8.49521e-06)
(-0.00014928 -4.40393e-05 8.81378e-06)
(-0.0001209 -7.32484e-05 1.05696e-05)
(-9.47249e-05 -9.60827e-05 1.09117e-05)
(-5.7955e-05 -0.000112332 1.19437e-05)
(-2.77385e-05 -0.000120387 1.22042e-05)
(1.24062e-05 -0.000121922 1.19701e-05)
(4.35422e-05 -0.000114502 1.21116e-05)
(8.11443e-05 -0.000101068 1.06024e-05)
(0.000110103 -7.8472e-05 1.064e-05)
(0.000139948 -5.11282e-05 8.5665e-06)
(0.000162449 -1.54332e-05 8.63916e-06)
(0.000179446 2.32816e-05 6.71707e-06)
(0.000189607 6.86287e-05 7.00711e-06)
(0.000187725 0.000115094 5.79892e-06)
(0.000177041 0.000165976 6.31487e-06)
(0.000149168 0.000215089 5.50422e-06)
(0.000114082 0.000265148 4.83155e-06)
(6.73606e-05 0.000303873 2.13156e-06)
(3.16265e-05 0.000311689 -9.38494e-07)
(1.27582e-06 0.000196529 -1.20172e-06)
(-3.11544e-07 0.000216335 6.07707e-07)
(-3.17295e-05 0.00035682 2.96473e-06)
(-8.10293e-05 0.000350411 7.79301e-06)
(-0.000140955 0.000302275 1.12226e-05)
(-0.00018912 0.000239269 1.19696e-05)
(-0.000222806 0.000176701 1.20648e-05)
(-0.000238355 0.000115232 1.09547e-05)
(-0.000239989 5.84352e-05 1.11412e-05)
(-0.000230551 5.87106e-06 1.04251e-05)
(-0.000210472 -4.08582e-05 1.13324e-05)
(-0.000186018 -8.17626e-05 1.08625e-05)
(-0.000150856 -0.000115988 1.17411e-05)
(-0.000117108 -0.000142431 1.14323e-05)
(-7.20103e-05 -0.000161338 1.18378e-05)
(-3.31874e-05 -0.000170694 1.18546e-05)
(1.5778e-05 -0.000172312 1.16025e-05)
(5.56168e-05 -0.000164184 1.20622e-05)
(0.000101815 -0.00014833 1.11465e-05)
(0.00013879 -0.000122679 1.19381e-05)
(0.000175959 -9.05377e-05 1.0804e-05)
(0.000204847 -4.94712e-05 1.17957e-05)
(0.000227017 -3.35094e-06 1.08747e-05)
(0.000240472 5.04877e-05 1.21019e-05)
(0.000239725 0.000108078 1.20565e-05)
(0.000226354 0.000171604 1.37127e-05)
(0.000191333 0.000235386 1.39667e-05)
(0.000142949 0.000300698 1.35806e-05)
(8.0105e-05 0.000350353 1.01489e-05)
(3.06682e-05 0.000360955 4.78963e-06)
(-1.18197e-06 0.000224309 1.46198e-06)
(3.16379e-06 0.000247416 4.42264e-06)
(-3.11123e-05 0.000414941 1.04455e-05)
(-0.000100684 0.000407001 1.8009e-05)
(-0.000180823 0.000344112 2.28721e-05)
(-0.000243644 0.000261689 2.37845e-05)
(-0.000283312 0.000182678 2.31645e-05)
(-0.000299751 0.000109633 2.07671e-05)
(-0.000298205 4.50267e-05 1.99913e-05)
(-0.000284005 -1.2625e-05 1.83442e-05)
(-0.000257535 -6.32358e-05 1.83792e-05)
(-0.000226231 -0.000106599 1.70338e-05)
(-0.000183235 -0.000142829 1.72159e-05)
(-0.000141198 -0.000170388 1.62776e-05)
(-8.70611e-05 -0.000190169 1.62608e-05)
(-3.9036e-05 -0.000199856 1.60144e-05)
(1.92591e-05 -0.000201753 1.5726e-05)
(6.83893e-05 -0.000194274 1.65646e-05)
(0.000123941 -0.000178368 1.60635e-05)
(0.000169696 -0.000152617 1.76424e-05)
(0.000215272 -0.00011932 1.72998e-05)
(0.000251793 -7.66898e-05 1.93731e-05)
(0.000281 -2.71471e-05 1.95226e-05)
(0.000299936 3.17241e-05 2.19261e-05)
(0.000302739 9.71284e-05 2.29598e-05)
(0.000288388 0.000172578 2.6128e-05)
(0.000247125 0.000253058 2.73583e-05)
(0.000183184 0.000338246 2.70146e-05)
(9.91076e-05 0.000402685 2.23036e-05)
(2.81636e-05 0.000415044 1.40019e-05)
(-5.72868e-06 0.000252109 6.41619e-06)
(7.97914e-06 0.000263996 9.82052e-06)
(-3.20252e-05 0.000465636 1.81197e-05)
(-0.000128739 0.000455559 2.79098e-05)
(-0.000230384 0.000366106 3.48214e-05)
(-0.000306731 0.000250039 3.76285e-05)
(-0.000349356 0.000143375 3.7687e-05)
(-0.000364166 5.24017e-05 3.48539e-05)
(-0.00035831 -2.37237e-05 3.33307e-05)
(-0.000338065 -8.80678e-05 3.03239e-05)
(-0.000304795 -0.000142169 2.86602e-05)
(-0.000266319 -0.000187102 2.57303e-05)
(-0.000215653 -0.000224458 2.41772e-05)
(-0.00016529 -0.000252446 2.19238e-05)
(-0.000102322 -0.00027229 2.06567e-05)
(-4.5148e-05 -0.000281693 1.98447e-05)
(2.1841e-05 -0.000283627 1.95047e-05)
(8.0047e-05 -0.000277593 2.09841e-05)
(0.00014478 -0.000262369 2.1731e-05)
(0.000199349 -0.000237485 2.47986e-05)
(0.000253276 -0.000204106 2.63317e-05)
(0.000297908 -0.000161123 3.02185e-05)
(0.000334908 -0.000108948 3.2285e-05)
(0.000361044 -4.41246e-05 3.62388e-05)
(0.000368796 3.34524e-05 3.81211e-05)
(0.000356143 0.000126948 4.17245e-05)
(0.00031157 0.000235442 4.25206e-05)
(0.000233189 0.000354884 4.05203e-05)
(0.000126509 0.000445795 3.41537e-05)
(2.64879e-05 0.000459146 2.38918e-05)
(-1.20954e-05 0.000262018 1.34436e-05)
(9.26444e-06 0.000285482 1.187e-05)
(-4.47501e-05 0.000540073 1.70776e-05)
(-0.000168703 0.000530149 2.70986e-05)
(-0.000287212 0.000400694 3.637e-05)
(-0.000373915 0.000236146 4.39227e-05)
(-0.000416444 9.19191e-05 4.80403e-05)
(-0.000426746 -1.91085e-05 4.68146e-05)
(-0.000414121 -0.000105411 4.65487e-05)
(-0.000387566 -0.000171709 4.35146e-05)
(-0.000348058 -0.000223289 4.08944e-05)
(-0.000303631 -0.000263746 3.65768e-05)
(-0.000246424 -0.000296467 3.34968e-05)
(-0.000188753 -0.00032001 2.97816e-05)
(-0.00011746 -0.000336019 2.72163e-05)
(-5.13372e-05 -0.00034239 2.55724e-05)
(2.39252e-05 -0.000344381 2.51126e-05)
(9.08811e-05 -0.000342927 2.74265e-05)
(0.000164388 -0.000333132 2.94737e-05)
(0.000226603 -0.000314594 3.41658e-05)
(0.000287616 -0.000287775 3.73546e-05)
(0.000338813 -0.000251045 4.28036e-05)
(0.000382794 -0.000202608 4.58639e-05)
(0.000415878 -0.000136066 4.9864e-05)
(0.000431159 -4.75044e-05 5.04034e-05)
(0.000422694 6.79434e-05 5.22775e-05)
(0.000378156 0.000214716 4.92223e-05)
(0.000288884 0.000383385 4.28995e-05)
(0.000165058 0.00051383 3.48809e-05)
(3.59121e-05 0.000524071 2.54898e-05)
(-1.5377e-05 0.000271352 1.76032e-05)
(4.83157e-06 0.000319257 7.8386e-06)
(-6.24468e-05 0.000643306 3.84958e-06)
(-0.000188532 0.000628171 1.08473e-05)
(-0.000298837 0.00044475 2.06525e-05)
(-0.000382688 0.000211427 3.41454e-05)
(-0.00042233 7.29153e-06 4.55199e-05)
(-0.000428268 -0.000138767 5.02945e-05)
(-0.000413638 -0.000243892 5.47118e-05)
(-0.000387692 -0.00031737 5.4134e-05)
(-0.000349561 -0.000369194 5.23338e-05)
(-0.00030738 -0.000406833 4.81142e-05)
(-0.000252091 -0.00043583 4.42712e-05)
(-0.0001955 -0.000455361 3.96132e-05)
(-0.000123758 -0.000467098 3.5684e-05)
(-5.54913e-05 -0.000469045 3.29451e-05)
(2.11115e-05 -0.000470435 3.21841e-05)
(8.99468e-05 -0.000474943 3.53835e-05)
(0.000164644 -0.00047089 3.86326e-05)
(0.00022626 -0.000458216 4.42911e-05)
(0.000285715 -0.000436916 4.81953e-05)
(0.000335165 -0.000404625 5.35597e-05)
(0.000377819 -0.000356712 5.57143e-05)
(0.000410648 -0.00028277 5.72939e-05)
(0.000427426 -0.000173154 5.30675e-05)
(0.000423196 -2.11711e-05 4.90836e-05)
(0.000382673 0.000185751 3.90328e-05)
(0.000296421 0.000422796 2.76411e-05)
(0.00018223 0.000605583 2.03997e-05)
(4.96868e-05 0.000615193 1.52791e-05)
(-1.35359e-05 0.000287284 1.62745e-05)
(-4.74132e-07 0.000385366 1.98692e-06)
(-6.56932e-05 0.000781644 -1.33741e-05)
(-0.000156627 0.000755467 -1.44651e-05)
(-0.000222756 0.000527417 -1.00056e-05)
(-0.00028184 0.000234148 4.39029e-06)
(-0.000316064 -3.35556e-05 2.14452e-05)
(-0.000323787 -0.000221956 3.62461e-05)
(-0.000316342 -0.000350497 4.67433e-05)
(-0.000305271 -0.000434752 5.02272e-05)
(-0.000283167 -0.000488821 5.11323e-05)
(-0.000258497 -0.000523984 4.88054e-05)
(-0.000219842 -0.000548459 4.58908e-05)
(-0.000178354 -0.000562846 4.14756e-05)
(-0.000118432 -0.000569284 3.69741e-05)
(-5.71459e-05 -0.000564688 3.31555e-05)
(1.37814e-05 -0.000564981 3.2e-05)
(7.57361e-05 -0.000577805 3.59317e-05)
(0.000139742 -0.000581297 3.95629e-05)
(0.000186852 -0.000575337 4.48803e-05)
(0.00022947 -0.000560341 4.76723e-05)
(0.000261326 -0.000531474 5.1009e-05)
(0.000286815 -0.000481528 5.04766e-05)
(0.000303875 -0.000395909 4.82584e-05)
(0.000312252 -0.000260502 3.9177e-05)
(0.000307488 -6.57462e-05 2.61241e-05)
(0.000275152 0.000204603 9.91057e-06)
(0.000214589 0.000499529 -1.75536e-06)
(0.000146755 0.000723518 -2.74485e-06)
(4.89001e-05 0.000737685 1.0414e-06)
(-1.06167e-05 0.000327622 1.29388e-05)
(4.54583e-06 0.000436005 5.66705e-06)
(-2.60126e-05 0.000894392 -1.66162e-05)
(-4.49368e-05 0.000852989 -2.79266e-05)
(-2.39934e-05 0.000604789 -3.24731e-05)
(-1.43185e-05 0.000283724 -2.18605e-05)
(-1.854e-05 -3.18353e-05 -5.54068e-06)
(-3.18407e-05 -0.000272885 1.8999e-05)
(-4.26984e-05 -0.000435435 3.42562e-05)
(-6.18418e-05 -0.000542421 4.33065e-05)
(-7.48336e-05 -0.000611457 4.84415e-05)
(-9.01034e-05 -0.000655672 5.01752e-05)
(-9.38347e-05 -0.000686208 5.02923e-05)
(-9.56748e-05 -0.000704885 4.8161e-05)
(-7.65952e-05 -0.000714771 4.48814e-05)
(-4.90933e-05 -0.000708875 4.10253e-05)
(-7.16121e-06 -0.00070753 3.97168e-05)
(2.19531e-05 -0.000723447 4.3419e-05)
(4.63083e-05 -0.000725417 4.55961e-05)
(5.27393e-05 -0.000715503 4.83011e-05)
(5.3258e-05 -0.00069502 4.76091e-05)
(4.66006e-05 -0.000656956 4.65479e-05)
(3.67701e-05 -0.000591192 4.16097e-05)
(2.37703e-05 -0.000483142 3.43559e-05)
(1.45864e-05 -0.000314307 2.13327e-05)
(6.90428e-06 -7.12604e-05 -4.92683e-07)
(4.6559e-06 0.000248349 -1.60997e-05)
(1.3732e-05 0.000569098 -2.40961e-05)
(3.36602e-05 0.000810313 -1.63068e-05)
(7.87609e-06 0.000831703 -2.34465e-06)
(-1.62874e-05 0.000347787 1.7049e-05)
(1.73628e-05 0.000422737 1.70275e-05)
(4.5409e-05 0.000922692 -7.39761e-06)
(0.00011023 0.000861337 -2.2591e-05)
(0.000223826 0.000609001 -3.02515e-05)
(0.000316213 0.000303018 -2.39601e-05)
(0.000370986 3.34366e-06 -1.13037e-05)
(0.000370525 -0.000258869 1.00967e-05)
(0.000344888 -0.000450614 2.51007e-05)
(0.000297019 -0.000579951 3.6846e-05)
(0.000243163 -0.000665807 4.48813e-05)
(0.000178056 -0.000720578 4.99007e-05)
(0.000116101 -0.000759802 5.28612e-05)
(5.11866e-05 -0.000787459 5.35236e-05)
(5.95592e-06 -0.000809918 5.27716e-05)
(-2.69859e-05 -0.000811748 5.04321e-05)
(-3.83421e-05 -0.000810337 4.97816e-05)
(-6.59971e-05 -0.000820841 5.20265e-05)
(-0.00010573 -0.00081469 5.19512e-05)
(-0.000156697 -0.000795383 5.14682e-05)
(-0.000213464 -0.000765473 4.74625e-05)
(-0.000267642 -0.000715549 4.24131e-05)
(-0.000317144 -0.000631213 3.39742e-05)
(-0.000357653 -0.000501951 2.34192e-05)
(-0.000379979 -0.00030713 9.87417e-06)
(-0.00037647 -4.31053e-05 -9.81315e-06)
(-0.000323235 0.00026214 -2.07697e-05)
(-0.000231505 0.000565837 -2.48856e-05)
(-0.000119827 0.000809514 -1.48371e-05)
(-6.03295e-05 0.000844585 1.85062e-06)
(-2.72349e-05 0.000305657 2.59811e-05)
(3.52587e-05 0.000310024 3.3224e-05)
(0.000143276 0.000822561 1.0631e-05)
(0.000293236 0.000738912 5.49426e-07)
(0.000476105 0.000486144 -2.01032e-06)
(0.000627173 0.000200744 6.9254e-06)
(0.000733659 -6.66168e-05 2.15549e-05)
(0.00076105 -0.000305488 3.56448e-05)
(0.000742161 -0.000496597 4.69265e-05)
(0.000690062 -0.000633541 5.74283e-05)
(0.000616116 -0.000729226 6.68736e-05)
(0.000517218 -0.000794161 7.48133e-05)
(0.00040264 -0.000845553 8.14161e-05)
(0.000268841 -0.000890795 8.58727e-05)
(0.000141032 -0.000937415 8.85154e-05)
(1.41516e-05 -0.00095973 8.80781e-05)
(-8.08221e-05 -0.000963236 8.77765e-05)
(-0.000185225 -0.000955265 8.77345e-05)
(-0.000307707 -0.000931142 8.46518e-05)
(-0.00041989 -0.000893351 8.01127e-05)
(-0.000529691 -0.000846811 7.22546e-05)
(-0.00061815 -0.000783857 6.34459e-05)
(-0.000688692 -0.000686037 5.24613e-05)
(-0.000734511 -0.000547961 4.14054e-05)
(-0.000751382 -0.000352538 2.96657e-05)
(-0.000724257 -0.00011 1.69799e-05)
(-0.0006239 0.000161202 4.55891e-06)
(-0.000475833 0.000441849 -2.9365e-06)
(-0.000296779 0.000684981 1.16471e-06)
(-0.000150757 0.000738167 1.15551e-05)
(-4.1039e-05 0.000175028 3.72058e-05)
(5.39053e-05 7.56215e-05 5.03095e-05)