/*--------------------------------*- C++ -*----------------------------------*\
| =========                 |                                                 |
| \\      /  F ield         | OpenFOAM: The Open Source CFD Toolbox           |
|  \\    /   O peration     | Version:  v1906                                 |
|   \\  /    A nd           | Web:      www.OpenFOAM.com                      |
|    \\/     M anipulation  |                                                 |
\*---------------------------------------------------------------------------*/
FoamFile
{
    version     2.0;
    format      ascii;
    class       volScalarField;
    location    "12";
    object      alphat;
}
// * * * * * * * * * * * * * * * * * * * * * * * * * * * * * * * * * * * * * //

dimensions      [1 -1 -1 0 0 0 0];


internalField   nonuniform List<scalar> 
78750
(
0.000763027
0.0017407
0.00123749
0.000440898
8.74243e-05
1.99451e-05
3.21145e-05
2.18411e-05
4.07067e-05
3.84251e-05
4.93049e-05
5.14368e-05
5.56322e-05
5.8461e-05
6.04953e-05
6.26218e-05
6.45301e-05
6.6423e-05
6.84232e-05
7.03769e-05
7.22587e-05
7.41751e-05
7.40144e-05
7.30623e-05
7.20933e-05
7.11053e-05
7.0091e-05
6.9038e-05
6.79315e-05
6.67579e-05
6.43452e-05
5.74223e-05
4.52377e-05
1.70814e-05
5.71036e-07
2.61435e-05
0.000107059
0.00012758
2.01847e-05
2.64436e-05
2.51121e-05
2.128e-05
2.49002e-05
2.96065e-05
3.97483e-05
5.2084e-05
6.5763e-05
7.83657e-05
8.96534e-05
0.000101494
0.000114672
0.000128223
0.000140942
0.000151943
0.000160096
0.000164077
0.000162237
0.000154968
0.000146461
0.000140052
0.000136281
0.000134537
0.0001333
0.000130085
0.00012186
0.000104958
7.43729e-05
2.73713e-05
7.20885e-06
1.52884e-06
2.62342e-06
4.51284e-05
0.000147254
0.00024695
0.000221026
0.000137774
6.7688e-05
4.38028e-05
3.82995e-05
3.86751e-05
4.29028e-05
5.01173e-05
6.12017e-05
8.14928e-05
0.000116415
0.000155238
0.000174274
0.000171235
0.000157227
0.000137637
0.000119561
0.000113417
0.000123444
0.000145128
0.000164168
0.000166517
0.000153305
0.000135608
0.000119551
0.00010243
7.76739e-05
4.3823e-05
1.699e-05
9.07515e-06
2.99078e-06
6.49257e-06
2.5782e-05
6.26873e-05
0.000122553
0.000133348
0.000102816
7.65232e-05
5.85985e-05
4.641e-05
3.98655e-05
3.86416e-05
4.38871e-05
5.77816e-05
7.61751e-05
8.68404e-05
8.94891e-05
8.84229e-05
8.43574e-05
8.09036e-05
8.3857e-05
9.65952e-05
0.000114643
0.000125628
0.000127014
0.000125008
0.00012333
0.000125698
0.000136066
0.00014768
0.000137484
9.50048e-05
4.24061e-05
1.27447e-05
7.7646e-06
3.97319e-06
4.29903e-06
3.47447e-05
6.90764e-05
0.00012806
0.000180373
0.000176081
0.000131148
8.62913e-05
5.98305e-05
4.58367e-05
3.75099e-05
3.22465e-05
3.08705e-05
3.8142e-05
6.98681e-05
0.00013541
0.000135694
0.000118213
0.000112577
0.000117864
0.000132093
0.000150326
0.000167004
0.000173248
0.000172851
0.000173183
0.000174272
0.000175936
0.000164131
0.000112177
6.17085e-05
2.68949e-05
1.21868e-05
1.16075e-05
5.21773e-06
3.28192e-06
1.52663e-05
3.9456e-05
9.24018e-05
0.0001492
0.00015009
0.00011913
8.75897e-05
6.83201e-05
6.17874e-05
5.97123e-05
5.20788e-05
4.23981e-05
3.87206e-05
4.32995e-05
5.38778e-05
6.52009e-05
7.56028e-05
8.86895e-05
0.000117231
0.000162969
0.000183668
0.000180053
0.00017741
0.000175689
0.000174845
0.000174793
0.000175363
0.000167445
0.000128261
7.61986e-05
2.7759e-05
1.02509e-05
1.09374e-05
6.06794e-06
7.49143e-06
3.4227e-05
0.000119609
0.000197062
0.000168286
0.000117283
7.33707e-05
4.45867e-05
3.03887e-05
3.03363e-05
4.5555e-05
5.43586e-05
3.79996e-05
2.82616e-05
3.1177e-05
6.28168e-05
0.000134956
0.000116246
8.62242e-05
7.7225e-05
8.32588e-05
9.94113e-05
0.000124541
0.000156361
0.00017907
0.00017927
0.000179945
0.000181032
0.000147988
9.28471e-05
4.88078e-05
2.04845e-05
1.10689e-05
1.67213e-05
7.15674e-06
1.05962e-05
5.54303e-05
0.000140829
0.000160337
0.000141169
0.000107869
7.60871e-05
5.19907e-05
3.73373e-05
3.40031e-05
4.17899e-05
4.72998e-05
3.70803e-05
2.79946e-05
2.66413e-05
3.60572e-05
6.40405e-05
9.94226e-05
0.000117233
0.000131195
0.000146595
0.000161073
0.000174677
0.000175948
0.000176387
0.000177283
0.000178548
0.000177249
0.000136921
9.21193e-05
4.91474e-05
1.88701e-05
9.98171e-06
1.72396e-05
7.71851e-06
1.02698e-05
6.01792e-05
0.000146886
0.000175963
0.000159116
0.000119514
8.2619e-05
5.67278e-05
3.95585e-05
2.81013e-05
2.15208e-05
2.08907e-05
2.93482e-05
5.17637e-05
7.14402e-05
7.33805e-05
8.41184e-05
0.0001068
0.00013002
0.000144272
0.000150885
0.000155112
0.000159147
0.000161595
0.000159911
0.000151996
0.000137205
0.000116218
9.05402e-05
6.20909e-05
3.44468e-05
1.60405e-05
1.15147e-05
2.53996e-05
8.4077e-06
5.92473e-06
2.71269e-05
8.36988e-05
0.000159912
0.000199792
0.000201655
0.000163001
0.00010583
6.68683e-05
4.56438e-05
3.30899e-05
2.47507e-05
1.96901e-05
1.88594e-05
2.37736e-05
3.62396e-05
5.36872e-05
7.17882e-05
9.37637e-05
0.000118629
0.00013969
0.00015311
0.000158439
0.000156524
0.000148869
0.000136941
0.000121537
0.00010286
8.10753e-05
5.64611e-05
3.15731e-05
1.47174e-05
1.07162e-05
2.66041e-05
8.65557e-06
6.98325e-06
3.20647e-05
0.000115775
0.000208017
0.000193473
0.000164677
0.000148851
0.000141828
0.000125252
9.44478e-05
6.76293e-05
5.02077e-05
3.83886e-05
2.97262e-05
2.43494e-05
2.39289e-05
3.46479e-05
7.22879e-05
9.41354e-05
8.96144e-05
9.27324e-05
0.000103338
0.00011742
0.00013111
0.000138682
0.00013517
0.000120497
9.88885e-05
7.44821e-05
4.90865e-05
2.61583e-05
1.33098e-05
1.24769e-05
3.57637e-05
9.07636e-06
7.75073e-06
3.4083e-05
0.000103823
0.000175655
0.000201533
0.000200407
0.000175862
0.000135471
0.000100328
8.22021e-05
7.79745e-05
7.4864e-05
6.29617e-05
4.86477e-05
3.71311e-05
2.90287e-05
2.45501e-05
2.56391e-05
3.99679e-05
7.79944e-05
8.54895e-05
7.90103e-05
8.28669e-05
9.51038e-05
0.000110192
0.000120054
0.000116678
9.90954e-05
7.39167e-05
4.76983e-05
2.4965e-05
1.22971e-05
1.19865e-05
3.85389e-05
9.13961e-06
9.07795e-06
4.64627e-05
0.000133341
0.000200527
0.000221517
0.000219514
0.000200925
0.000165233
0.000120071
8.67368e-05
7.43838e-05
7.96711e-05
9.01714e-05
8.3022e-05
6.17524e-05
4.41492e-05
3.30015e-05
2.67561e-05
2.56945e-05
3.42752e-05
6.66063e-05
9.47617e-05
8.27053e-05
7.70427e-05
8.38922e-05
9.6558e-05
0.000103174
9.29998e-05
6.68972e-05
3.8039e-05
1.88068e-05
1.11451e-05
1.34242e-05
5.4025e-05
9.25832e-06
9.80554e-06
5.05384e-05
0.000139288
0.000195549
0.000213595
0.000214501
0.000204875
0.000187178
0.000159278
0.000123508
9.5131e-05
8.26382e-05
8.24546e-05
8.51845e-05
7.90011e-05
6.1672e-05
4.41382e-05
3.23437e-05
2.60111e-05
2.47489e-05
3.0631e-05
5.10116e-05
7.98328e-05
7.99778e-05
7.31443e-05
7.41292e-05
7.92186e-05
7.81775e-05
6.18814e-05
3.5328e-05
1.65922e-05
1.08343e-05
1.68057e-05
7.33541e-05
9.28528e-06
9.97849e-06
5.24429e-05
0.000135395
0.000196676
0.00022286
0.000225793
0.000212931
0.000193521
0.000175125
0.000157163
0.000133544
0.000108037
9.09627e-05
8.44785e-05
8.41651e-05
8.16428e-05
6.83223e-05
4.85235e-05
3.32217e-05
2.51026e-05
2.31583e-05
2.78675e-05
4.22494e-05
5.9484e-05
6.07828e-05
5.69454e-05
5.63868e-05
5.59311e-05
4.79511e-05
3.07351e-05
1.47881e-05
8.46609e-06
1.54546e-05
7.81226e-05
9.31052e-06
8.87226e-06
3.75068e-05
9.70186e-05
0.000163266
0.000194854
0.000199927
0.000188232
0.000168139
0.00014857
0.000135168
0.000128613
0.000123689
0.000113502
9.94195e-05
8.84416e-05
8.41431e-05
8.47143e-05
8.08993e-05
6.23403e-05
4.02784e-05
2.7338e-05
2.31783e-05
2.71046e-05
4.01706e-05
5.21903e-05
5.00352e-05
4.51038e-05
4.37532e-05
4.09682e-05
2.75367e-05
1.44301e-05
8.36341e-06
1.17067e-05
6.04801e-05
9.55388e-06
7.58019e-06
2.92781e-05
7.93927e-05
0.000165581
0.00020917
0.000196735
0.000164142
0.000136302
0.000119418
0.000110684
0.000108415
0.000114099
0.000126773
0.000135408
0.000126788
0.000106873
9.14628e-05
8.68759e-05
8.81232e-05
7.72624e-05
5.01619e-05
3.01702e-05
2.20582e-05
2.39889e-05
3.51848e-05
3.4458e-05
2.62557e-05
2.21977e-05
2.01483e-05
1.14207e-05
7.44488e-06
1.13158e-05
2.81057e-05
0.000108237
9.58119e-06
8.55654e-06
3.26075e-05
9.49599e-05
0.000204122
0.000213184
0.000158972
0.000117445
9.87664e-05
9.35837e-05
9.44817e-05
9.72747e-05
0.00010234
0.000114808
0.000137571
0.000158612
0.000152502
0.000121259
9.47435e-05
8.52951e-05
8.92729e-05
8.95914e-05
6.52739e-05
3.79841e-05
2.42891e-05
2.09188e-05
2.8704e-05
3.27897e-05
2.40561e-05
1.37709e-05
9.34295e-06
4.74287e-06
1.15751e-07
9.16407e-06
6.03132e-05
9.69099e-06
1.11512e-05
4.98602e-05
0.000165855
0.000211613
0.000137604
8.90541e-05
7.43271e-05
7.81878e-05
9.14135e-05
0.000107435
0.000122795
0.000137833
0.000154456
0.000172869
0.0001873
0.000184797
0.000157289
0.000120665
9.80027e-05
9.49462e-05
0.000105936
0.000108724
7.9151e-05
4.56568e-05
2.8098e-05
1.89091e-05
9.18945e-06
7.34469e-06
4.92115e-06
3.02351e-07
5.76403e-06
9.82123e-06
1.88274e-05
9.81843e-05
1.05552e-05
1.3032e-05
8.46759e-05
0.000197573
0.000121372
6.75239e-05
5.15671e-05
5.91788e-05
8.70183e-05
0.000126275
0.000156655
0.000171718
0.000177372
0.000178059
0.000174581
0.000166376
0.000152679
0.000134
0.000114033
9.87024e-05
9.22323e-05
9.33821e-05
9.23036e-05
7.60697e-05
4.92476e-05
2.81304e-05
1.49192e-05
4.05451e-06
3.62842e-06
4.79674e-07
2.92667e-06
6.69518e-06
1.57288e-05
6.35957e-05
6.84137e-05
9.88552e-06
1.24478e-05
8.95468e-05
0.00016012
0.000100872
6.6096e-05
6.12481e-05
7.69759e-05
0.000104683
0.00013214
0.000152153
0.000162399
0.000164374
0.000161469
0.000156419
0.000150456
0.000144151
0.000137873
0.000131207
0.000123288
0.000115078
0.000109912
0.000110122
0.000112541
0.000106166
8.41747e-05
5.99888e-05
4.57532e-05
4.06093e-05
2.78147e-05
1.72345e-06
1.07796e-05
3.2686e-06
8.81993e-06
6.71397e-05
9.75547e-06
1.12378e-05
6.55556e-05
0.000172699
0.000178676
0.000138243
9.40253e-05
7.1029e-05
6.52054e-05
7.11452e-05
8.55654e-05
0.00010444
0.000122252
0.000135548
0.000144738
0.000151395
0.00015593
0.000157755
0.000156334
0.000151121
0.00014026
0.000121301
9.6201e-05
7.14566e-05
5.17733e-05
3.80891e-05
2.83709e-05
2.00087e-05
1.2745e-05
1.06503e-05
1.3273e-05
2.39691e-05
2.77936e-05
3.78087e-05
0.000108309
1.09376e-05
1.09445e-05
5.38501e-05
0.000138323
0.000175261
0.000175295
0.000141323
9.08554e-05
6.18416e-05
5.13818e-05
5.13853e-05
5.93096e-05
7.49247e-05
9.64414e-05
0.000117716
0.000130912
0.000132492
0.00012498
0.000114201
0.00010494
9.81793e-05
9.09091e-05
7.99778e-05
6.57325e-05
5.0864e-05
3.79063e-05
2.70179e-05
1.45617e-05
1.22502e-05
8.98461e-06
1.5317e-05
1.20056e-05
1.72749e-05
5.29652e-05
6.83571e-05
9.97721e-06
1.04705e-05
4.82316e-05
0.000133671
0.000184248
0.000191654
0.000182928
0.000155236
0.000109025
7.28139e-05
5.44178e-05
4.71961e-05
4.76422e-05
5.55792e-05
7.17083e-05
9.35171e-05
0.000111961
0.000118055
0.000110621
9.53226e-05
8.0561e-05
7.16322e-05
6.84848e-05
6.70551e-05
6.38318e-05
5.90819e-05
5.59613e-05
5.75704e-05
3.89262e-05
2.97293e-06
1.30886e-05
1.76863e-05
4.43956e-06
1.32217e-05
6.73824e-05
9.13084e-06
9.96309e-06
4.4485e-05
0.000131721
0.000200333
0.000217598
0.000214711
0.000202936
0.000178366
0.000133797
8.97613e-05
6.22218e-05
4.75517e-05
4.12156e-05
4.21026e-05
5.17802e-05
7.2333e-05
9.75904e-05
0.000108842
9.81042e-05
7.53565e-05
5.44731e-05
4.11692e-05
3.32669e-05
2.71466e-05
2.2626e-05
2.25748e-05
2.31298e-05
3.66112e-05
8.95841e-05
0.000114894
6.04812e-05
1.23886e-05
1.12251e-05
6.02772e-05
1.10021e-05
9.87815e-06
4.15002e-05
0.000115811
0.000187574
0.000209289
0.000204305
0.000188713
0.000175675
0.000170414
0.000162263
0.00013313
9.22528e-05
6.10985e-05
4.27558e-05
3.47357e-05
3.64665e-05
5.00398e-05
7.84968e-05
0.000117921
0.000148087
0.000143812
0.000113531
9.04707e-05
8.69933e-05
9.57754e-05
4.54764e-05
9.862e-06
3.2871e-06
1.51644e-05
3.97157e-05
7.03583e-05
2.67205e-05
2.41245e-05
0.000114177
1.182e-05
1.0023e-05
4.08348e-05
0.000110385
0.000179541
0.000204393
0.000202909
0.000182187
0.000148556
0.00011943
0.000107648
0.000115158
0.000134143
0.000133051
9.18327e-05
5.43383e-05
3.77835e-05
3.70891e-05
5.16666e-05
8.64423e-05
0.000143954
0.000204696
0.00021029
0.000138409
6.29622e-05
3.74387e-05
3.80014e-05
1.93283e-05
2.10255e-06
7.73901e-06
2.82086e-05
6.11855e-05
5.86657e-05
7.24422e-05
9.98175e-05
1.08552e-05
1.05316e-05
4.28904e-05
0.000117543
0.000189507
0.000213264
0.000213317
0.000200639
0.000177066
0.000143743
0.000111289
9.29647e-05
9.23525e-05
0.000104991
0.000108497
7.63563e-05
4.49583e-05
3.44178e-05
4.31601e-05
8.14461e-05
0.000149937
0.000159279
0.000106658
4.58679e-05
1.56201e-05
1.40887e-05
3.35931e-05
5.40197e-05
4.02909e-05
2.97114e-05
3.76789e-05
5.5608e-05
7.98078e-05
0.000117506
5.35612e-05
9.59805e-06
1.10778e-05
4.5705e-05
0.000128013
0.00019817
0.000213171
0.00020092
0.000172248
0.000139734
0.000117436
0.000107163
0.000100845
9.49468e-05
9.58943e-05
0.000105739
0.000106141
7.40798e-05
4.49795e-05
3.5427e-05
4.02781e-05
5.68433e-05
7.83173e-05
8.90515e-05
8.20897e-05
6.37212e-05
4.58885e-05
3.8916e-05
3.76503e-05
3.62576e-05
3.87852e-05
4.47283e-05
5.01e-05
6.00906e-05
9.4104e-05
5.96638e-05
8.98891e-06
1.14564e-05
4.7839e-05
0.000133123
0.000197307
0.000208513
0.000194729
0.000163027
0.000124623
9.78667e-05
8.94209e-05
9.55494e-05
0.000105185
0.000103339
8.9482e-05
7.2866e-05
5.87608e-05
5.04499e-05
4.97432e-05
5.72836e-05
7.23571e-05
9.15216e-05
0.000111476
0.000123801
0.000105576
7.30008e-05
5.51123e-05
4.8987e-05
3.70275e-05
2.63763e-05
3.07977e-05
4.45324e-05
5.06725e-05
5.25753e-05
8.51536e-05
9.45831e-06
1.17572e-05
5.00645e-05
0.00014248
0.00020215
0.000204468
0.000180868
0.000142271
0.000106043
8.47208e-05
7.79241e-05
8.24977e-05
9.55574e-05
0.000109172
0.000108603
8.79396e-05
6.33362e-05
5.15481e-05
5.60823e-05
7.51505e-05
9.72565e-05
0.000100843
8.23046e-05
6.50236e-05
6.60344e-05
8.46294e-05
0.000107464
0.0001077
6.63466e-05
3.74664e-05
3.85343e-05
5.1009e-05
4.66179e-05
4.70329e-05
0.000105248
1.12806e-05
1.21198e-05
5.22186e-05
0.000147295
0.000201203
0.000197977
0.000168683
0.000126322
9.26631e-05
7.78761e-05
7.76855e-05
8.43985e-05
9.10037e-05
9.39818e-05
9.28636e-05
8.76491e-05
7.80113e-05
6.80862e-05
6.67064e-05
7.93088e-05
0.000104294
0.000123194
0.000108612
7.58488e-05
6.03925e-05
6.71095e-05
8.71106e-05
9.17613e-05
6.14012e-05
4.43853e-05
5.27198e-05
6.61415e-05
6.23265e-05
7.5092e-05
0.000129143
1.21384e-05
1.2401e-05
5.48495e-05
0.000152893
0.000197267
0.000189406
0.000156057
0.00011106
7.80739e-05
6.51767e-05
6.82362e-05
8.13187e-05
9.53897e-05
0.000102229
0.000100184
8.97648e-05
7.59916e-05
6.96908e-05
7.76551e-05
0.000100996
0.000131458
0.000146982
0.000132542
0.000101607
7.61505e-05
6.47351e-05
6.28511e-05
5.88967e-05
4.8253e-05
4.56828e-05
6.079e-05
8.25953e-05
9.34343e-05
0.000118729
9.20687e-05
1.13713e-05
1.21767e-05
5.40817e-05
0.00015059
0.000194558
0.000185389
0.000148065
0.000101821
7.09878e-05
5.97939e-05
6.3086e-05
7.25217e-05
7.52388e-05
6.93867e-05
6.66601e-05
7.19264e-05
7.91644e-05
8.53666e-05
0.000100007
0.000128716
0.000160121
0.000175072
0.000167183
0.000143602
0.000114639
8.72114e-05
6.44029e-05
4.83938e-05
4.10728e-05
4.41924e-05
6.10073e-05
9.04391e-05
0.000117995
0.000134413
6.37727e-05
1.02007e-05
1.19798e-05
5.22365e-05
0.000145235
0.00019082
0.000179798
0.000138731
9.25242e-05
6.31377e-05
5.15291e-05
5.36019e-05
6.39811e-05
6.94872e-05
6.4325e-05
6.31585e-05
7.55706e-05
9.73807e-05
0.000113385
0.000119781
0.000124224
0.000128704
0.000132388
0.000136812
0.000140603
0.000136722
0.000119576
9.24014e-05
6.53928e-05
4.79566e-05
4.35074e-05
5.13681e-05
7.14818e-05
0.00010279
0.000122432
5.58948e-05
9.60795e-06
1.18943e-05
4.98934e-05
0.000139835
0.000186602
0.000170835
0.000125081
8.19736e-05
5.72994e-05
4.67056e-05
4.62725e-05
5.29114e-05
5.79291e-05
5.64025e-05
6.10989e-05
8.50845e-05
0.000126417
0.000155159
0.000157659
0.000149223
0.000142722
0.000141477
0.00014483
0.000151096
0.00015651
0.000154851
0.000140421
0.00011339
8.32479e-05
6.20401e-05
5.366e-05
5.56631e-05
6.91141e-05
9.82339e-05
6.0454e-05
9.85106e-06
1.20263e-05
4.78388e-05
0.000133086
0.00018144
0.00015919
0.000108408
6.88281e-05
5.01888e-05
4.37376e-05
4.49877e-05
5.53221e-05
7.241e-05
7.71898e-05
6.31998e-05
6.0751e-05
8.70391e-05
0.000142319
0.000182096
0.000178879
0.000159478
0.00014774
0.000148081
0.00015474
0.000159758
0.00015833
0.000149793
0.000134742
0.000113135
8.88877e-05
6.84998e-05
5.47619e-05
5.48139e-05
8.39492e-05
7.79615e-05
1.08802e-05
1.24823e-05
4.87649e-05
0.000134289
0.00017559
0.000141496
8.56659e-05
5.20145e-05
4.0917e-05
4.20377e-05
4.80198e-05
5.82646e-05
7.81385e-05
0.00010208
9.60069e-05
5.75895e-05
4.4983e-05
7.13077e-05
0.000137549
0.000193648
0.000195078
0.000173501
0.000162359
0.000167044
0.000175656
0.00017194
0.000151704
0.00012612
0.000107686
9.56541e-05
8.15366e-05
6.68763e-05
6.83417e-05
0.000106358
9.19763e-05
1.15998e-05
1.30985e-05
5.39781e-05
0.000148575
0.000164882
0.000111272
5.76011e-05
3.35099e-05
2.90355e-05
3.80345e-05
5.76038e-05
7.97196e-05
9.78291e-05
0.000114009
0.000121862
0.000105227
7.66499e-05
7.79398e-05
0.000133574
0.000238426
0.000271676
0.000227184
0.00017454
0.000143559
0.000132461
0.00012778
0.000114967
9.6624e-05
8.79168e-05
9.13766e-05
9.36673e-05
8.9762e-05
9.98412e-05
0.00014032
8.58657e-05
1.14193e-05
1.34288e-05
5.99888e-05
0.000155952
0.000147256
8.68805e-05
4.24848e-05
2.49565e-05
2.48115e-05
4.0017e-05
6.85614e-05
0.000102017
0.000129316
0.00014282
0.000139815
0.00011945
8.94576e-05
6.93342e-05
7.77293e-05
0.000133598
0.000238056
0.000291117
0.000260017
0.000199033
0.000146785
0.000111574
8.72542e-05
7.06352e-05
6.7002e-05
8.12964e-05
0.000105947
0.000121766
0.000137872
0.000155629
6.81573e-05
1.06344e-05
1.32625e-05
6.27585e-05
0.000154894
0.000137516
8.06957e-05
3.92896e-05
2.15025e-05
2.02762e-05
3.68487e-05
6.83761e-05
9.75816e-05
0.000120356
0.000140155
0.000154973
0.000157297
0.000140727
0.000112708
9.4329e-05
0.000101724
0.000142375
0.000203595
0.000237337
0.000221519
0.000177579
0.000130588
9.31125e-05
6.79918e-05
5.70042e-05
6.31014e-05
8.77795e-05
0.000120213
0.000142547
0.000142793
5.58652e-05
9.96313e-06
1.29264e-05
6.17003e-05
0.000151643
0.000143919
9.57252e-05
4.89615e-05
2.38291e-05
1.61254e-05
2.57968e-05
5.48203e-05
9.1944e-05
0.00012506
0.000148969
0.00016049
0.000160166
0.000151057
0.000136441
0.000122085
0.000118473
0.000135497
0.000173327
0.000210502
0.000218728
0.000195479
0.000155699
0.000114827
8.24034e-05
6.26854e-05
5.78176e-05
6.91394e-05
9.56594e-05
0.000123649
0.000126545
4.89119e-05
9.68386e-06
1.27796e-05
6.02116e-05
0.000150667
0.000153405
0.00011678
6.68643e-05
3.11746e-05
1.46961e-05
1.39116e-05
3.21579e-05
6.70354e-05
0.000114293
0.000170469
0.000211213
0.000214748
0.000189568
0.000158093
0.000134308
0.000123733
0.000130329
0.000155121
0.000186877
0.000203581
0.00019538
0.000168775
0.000134619
0.000102047
7.7058e-05
6.33219e-05
6.31311e-05
7.87199e-05
0.00010684
0.000117284
4.5665e-05
9.66002e-06
1.27416e-05
5.81065e-05
0.000149568
0.000163267
0.000139443
9.97074e-05
5.47264e-05
2.29441e-05
8.17709e-06
8.90771e-06
2.73048e-05
6.03045e-05
0.000107231
0.00016644
0.000210957
0.000216499
0.000190669
0.000156731
0.000131713
0.000122032
0.000128808
0.00014788
0.00016675
0.000172912
0.00016421
0.000144984
0.000120646
9.64587e-05
7.75372e-05
6.86897e-05
7.46462e-05
9.85988e-05
0.000118494
4.76823e-05
9.80541e-06
1.26792e-05
5.67265e-05
0.000150182
0.000167752
0.000144321
0.000110538
7.77254e-05
4.48728e-05
1.79772e-05
4.32182e-06
5.72887e-06
2.05539e-05
4.60493e-05
8.62123e-05
0.000148571
0.000210777
0.000236092
0.00021846
0.000181382
0.000150492
0.000135554
0.000135256
0.000142847
0.000149449
0.000150181
0.00014487
0.000133597
0.000116659
9.76863e-05
8.37472e-05
8.29788e-05
0.000102105
0.000127939
5.53234e-05
1.01386e-05
1.2566e-05
5.5039e-05
0.000146495
0.000171924
0.000154851
0.000121083
8.53157e-05
5.53817e-05
2.91054e-05
8.961e-06
2.0385e-06
1.09657e-05
3.06912e-05
5.85378e-05
0.000107458
0.000184565
0.000252326
0.000269627
0.00024324
0.000202723
0.000169887
0.00015069
0.000141752
0.000136912
0.000132299
0.000128495
0.000126378
0.000122576
0.000113061
0.000101434
9.86274e-05
0.000114876
0.000141297
6.56249e-05
1.05382e-05
1.25343e-05
5.40884e-05
0.000144772
0.000174028
0.000157504
0.000125885
9.60296e-05
7.19117e-05
4.67331e-05
1.90971e-05
4.00664e-07
1.14524e-06
1.35649e-05
3.2624e-05
5.96909e-05
0.000111842
0.000191702
0.000254403
0.000266016
0.000240017
0.000203803
0.00017417
0.000154674
0.000141563
0.000130036
0.00011952
0.000113619
0.000113664
0.000114962
0.000113415
0.000115123
0.000130953
0.000154262
7.47562e-05
1.08789e-05
1.25221e-05
5.41058e-05
0.000144805
0.000175176
0.000158753
0.00012339
9.0048e-05
6.93684e-05
5.49318e-05
3.4869e-05
1.0441e-05
1.7513e-06
6.04953e-06
2.28654e-05
3.99867e-05
6.84032e-05
0.00013243
0.000232668
0.000294469
0.000285492
0.000242849
0.000199095
0.000166431
0.000145136
0.000130512
0.000117885
0.000107608
0.000103907
0.000107438
0.000114039
0.000123278
0.000141649
0.00016326
8.25695e-05
1.12639e-05
1.25744e-05
5.41596e-05
0.000144495
0.00017707
0.000162047
0.000127717
9.42096e-05
7.35603e-05
6.18349e-05
4.85667e-05
2.5998e-05
2.7512e-06
1.00057e-06
1.50672e-05
3.52914e-05
4.77972e-05
7.03046e-05
0.000124246
0.000212506
0.000273509
0.000267962
0.000226826
0.000182123
0.000147567
0.000125404
0.000112096
0.000102768
9.69526e-05
9.80383e-05
0.000106807
0.000122376
0.00014612
0.000168858
8.68e-05
1.16325e-05
1.26714e-05
5.46737e-05
0.000146915
0.000177877
0.000160064
0.000122709
8.85416e-05
6.99677e-05
6.35172e-05
5.88374e-05
4.32836e-05
1.72001e-05
1.33559e-06
5.78653e-06
2.72248e-05
4.86026e-05
5.663e-05
7.27563e-05
0.000116221
0.000193213
0.000255241
0.00025216
0.00020755
0.000156679
0.000118047
9.61167e-05
8.78876e-05
8.74525e-05
9.1517e-05
0.000102367
0.000123044
0.000152717
0.000174685
8.2165e-05
1.1666e-05
1.27059e-05
5.46946e-05
0.000147194
0.000178298
0.000159744
0.000121604
8.76566e-05
6.94076e-05
6.36737e-05
6.35153e-05
5.7587e-05
3.59436e-05
7.71948e-06
1.64656e-06
1.67143e-05
5.05977e-05
7.17003e-05
7.10918e-05
7.63258e-05
0.000103479
0.000157995
0.000210853
0.000211828
0.00016841
0.00011736
8.2594e-05
6.87115e-05
7.23588e-05
8.67869e-05
0.000106144
0.000132565
0.000164468
0.000176504
6.93672e-05
1.11707e-05
1.27452e-05
5.48623e-05
0.000148681
0.000177815
0.000154477
0.000112409
8.00303e-05
6.55382e-05
6.30083e-05
6.65218e-05
6.90139e-05
5.68868e-05
2.91747e-05
6.76556e-06
6.37389e-06
3.15412e-05
7.63915e-05
9.66469e-05
8.8305e-05
8.304e-05
9.61571e-05
0.000130569
0.00016654
0.000163088
0.000122264
8.05508e-05
5.81248e-05
5.64307e-05
7.43123e-05
0.000106887
0.000142368
0.000170713
0.000164975
5.6892e-05
1.04446e-05
1.28209e-05
5.53957e-05
0.000150277
0.000176759
0.000149319
0.000104586
7.34689e-05
6.17667e-05
6.20033e-05
6.59072e-05
6.82684e-05
6.64076e-05
4.96785e-05
1.84677e-05
5.3174e-06
1.8954e-05
6.16134e-05
0.000112777
0.000121973
0.000101876
8.62954e-05
8.7613e-05
0.000106585
0.000129159
0.000123992
9.11217e-05
6.1465e-05
4.96886e-05
5.77297e-05
8.82942e-05
0.000132416
0.000160325
0.000146269
4.94742e-05
9.97759e-06
1.2962e-05
5.6138e-05
0.000151523
0.000174186
0.000141795
9.56041e-05
6.6822e-05
5.79395e-05
6.25459e-05
7.43777e-05
8.17585e-05
7.39406e-05
5.54876e-05
3.20105e-05
1.01673e-05
1.21942e-05
4.23026e-05
0.000102801
0.000148691
0.000142516
0.000112144
8.84714e-05
8.10917e-05
8.96485e-05
0.000103562
9.94201e-05
7.57304e-05
5.56019e-05
5.11009e-05
6.63101e-05
0.00010409
0.000140381
0.000134374
4.71186e-05
9.94408e-06
1.30933e-05
5.77361e-05
0.000154261
0.000169344
0.00013219
8.57391e-05
5.96222e-05
5.30322e-05
5.8116e-05
6.90127e-05
8.25066e-05
9.22611e-05
8.39976e-05
5.36952e-05
2.30719e-05
1.19882e-05
3.03384e-05
7.94453e-05
0.000140714
0.000165839
0.000147112
0.000113611
8.73568e-05
7.62318e-05
8.06119e-05
9.13007e-05
8.85018e-05
7.0858e-05
5.69368e-05
5.79023e-05
7.94943e-05
0.000119212
0.000133342
4.95213e-05
1.02772e-05
1.3224e-05
5.93164e-05
0.000154063
0.000165744
0.000128979
8.28234e-05
5.61823e-05
5.04386e-05
5.97647e-05
7.57847e-05
8.70379e-05
8.97666e-05
8.50063e-05
6.88965e-05
4.00794e-05
1.85967e-05
2.42458e-05
6.18832e-05
0.000129683
0.000181298
0.000181027
0.000148256
0.000110631
8.29636e-05
7.14363e-05
7.59934e-05
8.5868e-05
8.30199e-05
6.90513e-05
6.08221e-05
6.97035e-05
0.00010354
0.000138541
5.58288e-05
1.07841e-05
1.32175e-05
6.04514e-05
0.000154495
0.0001631
0.000129001
8.39487e-05
5.44001e-05
4.45598e-05
5.03969e-05
6.84071e-05
9.1108e-05
0.000106612
0.000106047
8.69865e-05
5.50069e-05
2.74524e-05
2.22361e-05
4.7379e-05
0.000109418
0.000176165
0.000197164
0.000174771
0.000135617
9.79493e-05
7.29777e-05
6.65092e-05
7.51792e-05
8.29359e-05
7.64783e-05
6.66154e-05
7.04958e-05
0.000101397
0.000147564
6.30303e-05
1.12541e-05
1.30036e-05
5.85802e-05
0.000150409
0.000165784
0.000139494
9.60746e-05
6.0493e-05
4.42751e-05
4.47047e-05
5.79368e-05
7.76956e-05
9.62672e-05
0.000107617
0.000104708
8.04411e-05
4.54388e-05
2.71602e-05
3.86453e-05
8.63859e-05
0.000159017
0.000201577
0.000192108
0.000154145
0.000110414
7.5573e-05
5.95351e-05
6.3733e-05
7.63926e-05
7.77671e-05
7.19632e-05
7.82575e-05
0.000113041
0.00015979
6.62435e-05
1.14742e-05
1.28462e-05
5.63494e-05
0.000147057
0.000168789
0.000148
0.000108318
6.84627e-05
4.43712e-05
3.76168e-05
4.64234e-05
6.83954e-05
9.48849e-05
0.000114647
0.000120756
0.000106137
6.97356e-05
3.72843e-05
3.30541e-05
6.23773e-05
0.000133086
0.000198213
0.000204986
0.000169174
0.000120422
7.77718e-05
5.35177e-05
5.19949e-05
6.78478e-05
7.98455e-05
8.10119e-05
9.31291e-05
0.000133202
0.000170001
6.45809e-05
1.13472e-05
1.26866e-05
5.42724e-05
0.000144369
0.000171097
0.000151895
0.000115235
7.85369e-05
5.12495e-05
3.67694e-05
3.65989e-05
5.12955e-05
7.86423e-05
0.000109722
0.000132297
0.000134602
0.000106113
6.06708e-05
3.64471e-05
4.62848e-05
9.66864e-05
0.000174828
0.000209426
0.000184203
0.00013315
8.36839e-05
5.15953e-05
4.20443e-05
5.48328e-05
8.0627e-05
9.74741e-05
0.000117509
0.000156868
0.000174305
6.01139e-05
1.09305e-05
1.27402e-05
5.3594e-05
0.000142357
0.000171702
0.00015009
0.000110399
7.66794e-05
5.51127e-05
4.06508e-05
3.53591e-05
4.39948e-05
6.75721e-05
0.000100775
0.000132517
0.000150159
0.000138431
9.37545e-05
5.16386e-05
4.15829e-05
6.77221e-05
0.00013647
0.000195466
0.000192954
0.000149679
9.74003e-05
5.75197e-05
3.86516e-05
4.12184e-05
6.67111e-05
0.00010723
0.000142202
0.000173679
0.000168366
5.5073e-05
1.04579e-05
1.29957e-05
5.59797e-05
0.00014733
0.000169919
0.000142676
9.92975e-05
6.69695e-05
5.10426e-05
4.21865e-05
3.66249e-05
4.12986e-05
6.17738e-05
9.6633e-05
0.000135808
0.000164932
0.00016711
0.000129629
7.60015e-05
4.72868e-05
5.36884e-05
0.000100177
0.000172619
0.000200078
0.000172696
0.000122257
7.47613e-05
4.50691e-05
3.56728e-05
4.68598e-05
8.4974e-05
0.000138815
0.000168458
0.000152623
5.06704e-05
1.01608e-05
1.32354e-05
5.92919e-05
0.000151832
0.000167333
0.000137476
9.31848e-05
6.0518e-05
4.5908e-05
4.1757e-05
4.01687e-05
4.37335e-05
6.02672e-05
9.13945e-05
0.000130522
0.000166064
0.000182637
0.000162091
0.000108597
6.29461e-05
4.96078e-05
7.05774e-05
0.000129184
0.00018469
0.000189006
0.000154096
0.000105747
6.48245e-05
4.21084e-05
3.8234e-05
5.54512e-05
0.000101707
0.000146255
0.000138485
4.78217e-05
1.01033e-05
1.3373e-05
6.30562e-05
0.000156571
0.000162938
0.000131338
8.86598e-05
5.66195e-05
4.12465e-05
3.79609e-05
4.05411e-05
4.70375e-05
6.29476e-05
9.17262e-05
0.000129262
0.000166204
0.000189729
0.000182678
0.000138322
8.46981e-05
5.54575e-05
5.80121e-05
9.33581e-05
0.000151483
0.000186628
0.000178953
0.000143452
9.89746e-05
6.28678e-05
4.40181e-05
4.35801e-05
6.67057e-05
0.000116659
0.000132926
4.75995e-05
1.02539e-05
1.32331e-05
6.35997e-05
0.000155909
0.000163193
0.000136206
9.61273e-05
6.14982e-05
4.18058e-05
3.53257e-05
3.78281e-05
4.59678e-05
6.13283e-05
8.69842e-05
0.000121538
0.000158542
0.000187512
0.000192697
0.000160978
0.000106801
6.58731e-05
5.46265e-05
7.30033e-05
0.000119651
0.000168716
0.000186985
0.000172732
0.000138202
9.68551e-05
6.35697e-05
4.73869e-05
5.19442e-05
8.65964e-05
0.000132822
5.10398e-05
1.0581e-05
1.29993e-05
6.14764e-05
0.000154125
0.000168361
0.000148138
0.000112316
7.43078e-05
4.73032e-05
3.40845e-05
3.21997e-05
3.90824e-05
5.39459e-05
7.80867e-05
0.00011153
0.000150197
0.000185184
0.000201339
0.000181445
0.000129118
7.86405e-05
5.58485e-05
6.30042e-05
9.85178e-05
0.000149077
0.000183258
0.000187172
0.00016706
0.000131051
9.00815e-05
5.98964e-05
5.09991e-05
7.18471e-05
0.000132614
5.809e-05
1.10248e-05
1.27753e-05
5.82781e-05
0.000150906
0.000173832
0.000159302
0.000129808
9.4371e-05
6.19662e-05
3.9995e-05
2.98688e-05
3.04793e-05
4.13902e-05
6.28314e-05
9.50471e-05
0.000135987
0.000178475
0.000207757
0.000202764
0.00015564
9.59062e-05
6.01645e-05
5.6498e-05
8.15696e-05
0.000129118
0.000171414
0.000186392
0.000176017
0.00014695
0.000106539
7.09134e-05
5.65394e-05
7.45136e-05
0.000142641
6.61801e-05
1.144e-05
1.26693e-05
5.56894e-05
0.000146841
0.000176135
0.000162229
0.000133553
0.000104007
7.7641e-05
5.30633e-05
3.49572e-05
2.70159e-05
3.06975e-05
4.70311e-05
7.64019e-05
0.000118236
0.000167457
0.000210281
0.000223283
0.000187613
0.00012152
7.02268e-05
5.31947e-05
6.66694e-05
0.000106585
0.000150404
0.000170544
0.000164644
0.000140818
0.000107111
7.73279e-05
6.73686e-05
9.27506e-05
0.000166204
7.08383e-05
1.16202e-05
1.27268e-05
5.49805e-05
0.000144743
0.000175592
0.000159642
0.000126938
9.75089e-05
7.9684e-05
6.51295e-05
4.6548e-05
3.13938e-05
2.67145e-05
3.58358e-05
5.98711e-05
9.95893e-05
0.000152454
0.00020658
0.000237651
0.000218952
0.000153999
8.79544e-05
5.49422e-05
5.52032e-05
8.29337e-05
0.000123276
0.000145439
0.000142851
0.000125988
0.000103497
8.55037e-05
8.63985e-05
0.000125102
0.000188867
7.03106e-05
1.14928e-05
1.29374e-05
5.63926e-05
0.000146393
0.000174684
0.000156164
0.000119747
8.71602e-05
7.03244e-05
6.4294e-05
5.58585e-05
4.06584e-05
2.98173e-05
3.1938e-05
4.98525e-05
8.50788e-05
0.000137646
0.000198606
0.000244501
0.000244201
0.000188295
0.000113207
6.36426e-05
4.92802e-05
6.32924e-05
9.65277e-05
0.000119874
0.00012154
0.000112552
0.000101914
9.73554e-05
0.000112011
0.000159936
0.000196167
6.60163e-05
1.1151e-05
1.31948e-05
5.92507e-05