/*--------------------------------*- C++ -*----------------------------------*\
| =========                 |                                                 |
| \\      /  F ield         | OpenFOAM: The Open Source CFD Toolbox           |
|  \\    /   O peration     | Version:  v1906                                 |
|   \\  /    A nd           | Web:      www.OpenFOAM.com                      |
|    \\/     M anipulation  |                                                 |
\*---------------------------------------------------------------------------*/
FoamFile
{
    version     2.0;
    format      ascii;
    class       volScalarField;
    location    "12";
    object      omega;
}
// * * * * * * * * * * * * * * * * * * * * * * * * * * * * * * * * * * * * * //

dimensions      [0 0 -1 0 0 0 0];


internalField   nonuniform List<scalar> 
78750
(
1522.24
231.753
165.355
101.448
48.1292
21.4321
20.7044
17.4926
19.4478
18.1848
18.6543
18.2881
18.2962
18.1883
18.1055
18.019
17.9315
17.8433
17.7549
17.6662
17.577
17.4873
17.3959
17.303
17.2084
17.1121
17.0132
16.9109
16.8039
16.6918
16.5751
16.4566
16.35
16.3277
502.129
534.824
24.5223
6.28716
11.1165
12.4046
13.9309
12.1454
11.7096
10.9226
10.6291
10.3687
10.2225
10.1129
10.0304
9.96504
9.90839
9.85441
9.80077
9.74672
9.69177
9.63555
9.57729
9.51535
9.44827
9.37544
9.29569
9.2068
9.10598
8.99
8.85446
8.69157
8.48274
8.13831
7.39508
743.626
407.286
16.5086
17.1204
16.7255
15.8105
14.8782
14.2958
13.4667
12.7045
12.0235
11.5125
11.1356
10.8201
10.514
10.2272
9.98181
9.77097
9.58052
9.40826
9.27192
9.20129
9.21244
9.27812
9.35609
9.42565
9.4838
9.5309
9.56447
9.57979
9.57201
9.53466
9.45336
9.29713
9.32192
748.42
414.047
13.8458
14.911
15.602
16.096
16.3661
16.2331
15.7369
14.9186
13.907
12.8593
11.9739
11.4029
11.1426
11.0677
11.0608
11.0584
11.0212
10.9139
10.7183
10.4591
10.1913
9.94599
9.7311
9.55642
9.4365
9.37969
9.37557
9.39598
9.41555
9.41126
9.3308
9.01688
9.32561
751.568
410.007
16.0607
17.3369
17.6702
17.6723
17.5387
17.3207
16.9819
16.4934
15.8549
15.0247
13.955
12.6799
11.4262
10.5517
10.085
9.8347
9.68928
9.60365
9.5449
9.48869
9.42741
9.36637
9.31617
9.2892
9.29419
9.33227
9.39642
9.47639
9.57378
9.69924
9.84386
10.0031
11.0979
755.496
407.562
13.6104
15.8272
16.7845
17.1622
17.2417
17.0981
16.7593
16.3608
16.1551
16.1328
16.0368
15.6111
14.7296
13.6158
12.5869
11.7899
11.2079
10.7393
10.3379
10.0286
9.80813
9.64558
9.525
9.44375
9.39984
9.38973
9.40672
9.44183
9.48929
9.54339
9.58978
9.66788
11.2127
758.037
419.328
17.2873
18.2025
18.1896
17.8655
17.27
16.3181
14.9429
13.404
12.5685
12.7129
13.158
13.3501
12.8703
11.7898
10.8586
10.3957
10.1406
9.97507
9.86346
9.77641
9.70526
9.65117
9.61629
9.59974
9.60229
9.62575
9.66832
9.72888
9.81463
9.93419
10.1057
10.6253
12.9028
761.457
433.663
19.2523
19.0823
18.7318
18.2332
17.5021
16.4603
15.0907
13.6022
12.6174
12.4803
12.7349
12.9
12.5902
11.7864
10.9363
10.3591
10.0469
9.85506
9.71994
9.62219
9.55511
9.51669
9.50416
9.51487
9.54608
9.59413
9.65323
9.72213
9.80894
9.92128
10.0806
10.6411
13.2816
763.155
428.827
17.6856
18.1095
18.2783
18.2637
18.0437
17.5367
16.6142
15.1805
13.3708
11.659
10.5829
10.2015
10.133
10.0759
9.95087
9.7976
9.67925
9.60095
9.55471
9.53633
9.5421
9.56703
9.60644
9.65755
9.71944
9.79263
9.87887
9.98161
10.1072
10.2675
10.5501
11.6427
14.7906
765.309
415.006
17.0197
18.8035
19.5546
19.9896
20.255
20.3474
20.147
19.4273
18.057
16.1295
13.9463
11.9407
10.5036
9.70431
9.37532
9.27682
9.24247
9.23256
9.24439
9.2754
9.32275
9.38405
9.45729
9.54058
9.63372
9.73802
9.85529
9.99113
10.1564
10.3654
10.6744
11.6838
15.0313
766.079
417.687
17.1569
18.4493
18.8413
18.9771
19.0172
19.0364
19.0953
19.1739
19.0985
18.5935
17.4947
15.8739
13.9663
12.0578
10.4341
9.41808
9.0416
8.97302
8.99994
9.057
9.12826
9.21156
9.30622
9.41094
9.52621
9.65454
9.79952
9.96665
10.1684
10.4462
11.0138
12.7469
16.17
767.794
421.104
17.1142
18.3471
18.8713
19.1061
19.16
19.0515
18.7887
18.4238
18.1009
17.9306
17.7642
17.3199
16.4296
15.0972
13.4779
11.7869
10.2636
9.26388
8.85544
8.75129
8.78213
8.87437
8.988
9.11196
9.24671
9.39581
9.56977
9.7842
10.0561
10.4071
10.9404
12.7775
16.5496
768.831
425.311
18.8374
19.8949
20.3353
20.546
20.605
20.51
20.2212
19.666
18.8423
18.006
17.4426
17.0914
16.7197
16.1041
15.1113
13.7757
12.2619
10.7711
9.57176
8.92158
8.66282
8.60218
8.6669
8.7934
8.93284
9.07385
9.23284
9.44311
9.76902
10.3405
11.4215
13.6588
17.45
770.673
428.143
18.4392
19.0135
19.3243
19.5422
19.6974
19.7857
19.7896
19.6695
19.3488
18.7752
18.0781
17.4398
16.8954
16.3621
15.6919
14.7465
13.5193
12.1379
10.7912
9.66609
8.93983
8.57856
8.43194
8.43129
8.5374
8.69739
8.88462
9.11283
9.44704
10.0806
11.7033
15.1377
18.593
770.759
427.31
18.489
19.2793
19.7089
19.9829
20.1579
20.2565
20.2902
20.2638
20.1673
19.9474
19.5134
18.86
18.0994
17.34
16.6028
15.7962
14.7601
13.427
11.9393
10.5555
9.45819
8.71794
8.27934
8.04003
7.94801
7.98858
8.14465
8.41631
8.84514
9.50299
10.7232
14.8352
18.7622
771.869
424.212
18.5726
19.8353
20.4266
20.7522
20.9435
21.0459
21.0808
21.0601
20.994
20.8912
20.7312
20.4338
19.9102
19.1543
18.2571
17.3336
16.4045
15.3158
13.8625
12.1203
10.449
9.20918
8.41946
7.89248
7.53249
7.33211
7.29585
7.4242
7.80497
8.80265
10.5289
13.5801
18.3214
773.107
420.583
17.8875
19.5299
20.1995
20.4935
20.6217
20.6558
20.6322
20.5747
20.4998
20.4246
20.3713
20.338
20.2613
20.0308
19.5361
18.7502
17.7898
16.8039
15.7397
14.3164
12.3521
10.1416
8.45489
7.56895
6.98247
6.43881
6.14996
6.34853
7.09457
8.91225
13.0201
17.4938
20.5546
774.097
425.867
19.4246
20.6292
20.9451
20.9639
20.8469
20.6616
20.4605
20.2603
20.0607
19.869
19.7039
19.5909
19.5328
19.4879
19.3802
19.091
18.4982
17.6563
16.7786
15.9152
14.828
13.1344
10.7873
8.46924
7.16605
6.5816
5.98235
5.2025
4.90457
4.40259
3.7314
13.6292
18.9058
775.816
438.758
21.4846
21.5332
21.2957
20.9562
20.5661
20.289
20.1632
20.0773
19.9513
19.7775
19.5789
19.3781
19.189
19.011
18.8245
18.5844
18.2046
17.6037
16.8621
16.1405
15.4354
14.5179
12.9652
10.5652
7.51319
4.77804
4.87589
4.21067
3.89118
8.64548
12.3973
15.6175
20.6317
779.387
451.92
22.0932
21.2162
20.5223
19.7445
19.129
19.0062
19.1691
19.3153
19.3624
19.3226
19.2174
19.0645
18.8746
18.6511
18.3897
18.0768
17.6902
17.2098
16.6535
16.0822
15.5053
14.8018
13.6706
11.6818
8.64682
5.01761
4.53015
3.93292
5.4316
10.4267
16.5932
21.4099
23.5117
778.275
448.118
21.0676
20.5251
19.9795
19.2935
18.8024
18.6895
18.7222
18.764
18.7814
18.7546
18.6741
18.5417
18.367
18.1613
17.9336
17.6913
17.4387
17.1727
16.8823
16.5625
16.2227
15.8745
15.492
14.9651
14.0659
12.6671
10.8356
8.30208
4.41119
6.14882
7.92602
14.8404
20.0777
777.076
439.017
20.8894
20.9958
20.8217
20.4238
19.8093
19.1175
18.5496
18.2016
18.0294
17.9365
17.8452
17.7168
17.5467
17.35
17.1465
16.9476
16.7521
16.5488
16.3136
15.9995
15.5159
14.7111
13.3877
11.4253
9.06029
7.45354
7.81374
9.3612
11.7684
15.0097
17.0931
18.5664
22.9261
783.883
435.87
21.3209
21.74
21.7863
21.6465
21.2619
20.5219
19.5142
18.5488
17.8473
17.4427
17.2403
17.1145
16.9844
16.8144
16.5995
16.3533
16.1021
15.8762
15.6946
15.5483
15.38
15.0448
14.3155
12.8926
10.5606
7.27897
6.13005
4.92744
8.65188
12.8488
17.8814
22.3765
24.5559
776.799
433.821
20.8574
21.5581
21.8417
21.9709
21.965
21.7515
21.1827
20.221
19.0787
18.0234
17.236
16.7539
16.4805
16.275
16.0335
15.7034
15.2716
14.7478
14.1858
13.6924
13.3883
13.2847
13.2986
13.271
12.9076
11.9681
9.99611
4.89199
3.43056
6.3154
7.58666
15.7189
19.8927
773.022
431.637
20.495
21.4185
21.8346
22.0854
22.2474
22.3252
22.2725
21.9529
21.2144
20.09
18.7877
17.5785
16.6813
16.1393
15.7956
15.4452
14.9564
14.2539
13.2939
12.1326
10.9522
9.91548
9.22844
9.38414
10.9632
13.2033
16.031
17.2637
16.6974
15.2426
11.204
13.9528
20.6677
785.182
431.658
20.5938
21.6136
22.0492
22.2785
22.4106
22.4875
22.5368
22.5653
22.505
22.1722
21.3607
20.0491
18.4508
16.9788
16.0895
15.8101
15.7636
15.6548
15.39
14.9416
14.2622
13.3411
12.3498
11.3758
9.38718
5.81089
6.35352
14.0495
18.5771
19.6162
17.4854
18.3623
23.4301
789.43
433.483
21.0689
22.0877
22.5349
22.7562
22.8418
22.8106
22.6675
22.4376
22.1978
22.0166
21.8289
21.4183
20.4907
18.8944
17.0643
15.8121
15.3077
15.1136
14.8844
14.4997
13.8933
12.9186
11.1759
9.92117
10.0754
9.4123
5.81465
11.2009
19.1424
22.0379
22.1188
22.7354
25.1636
785.739
436.351
21.372
22.2249
22.6401
22.8841
23.0296
23.0872
23.045
22.8699
22.5251
22.0505
21.5861
21.1942
20.716
19.7612
18.042
16.2912
15.4365
15.2229
15.0617
14.6692
13.7813
12.0123
9.55977
10.0588
13.7806
15.9756
16.2097
16.707
19.5939
22.1516
23.8583
25.1327
26.2199
779.648
440.268
21.9814
22.6096
22.8891
23.0259
23.073
23.0427
22.9385
22.7701
22.5409
22.1995
21.7094
21.1675
20.6925
20.2134
19.3609
17.8462
16.3924
15.6755
15.511
15.4639
15.2448
14.6702
13.7028
12.7966
12.8729
13.8804
15.2798
17.0049
18.4212
19.5316
20.8188
22.4894
23.7357
773.273
442.999
22.3559
22.8424
23.0576
23.1494
23.1474
23.0489
22.8443
22.5537
22.2528
21.9811
21.6577
21.1652
20.4577
19.5677
18.557
17.5913
16.8875
16.5262
16.4205
16.4257
16.4223
16.2977
15.919
15.2563
14.4951
13.8383
12.963
12.6529
14.3339
16.2495
17.5212
18.3456
20.2714
775.122
445.235
22.6382
22.9696
23.0995
23.1286
23.0673
22.9007
22.6139
22.2415
21.8658
21.5426
21.2608
20.947
20.4948
19.7736
18.6889
17.5106
16.7942
16.5472
16.5166
16.5634
16.6854
17.0366
17.7701
18.2974
18.1931
17.5527
16.1255
14.4424
15.2437
16.7981
17.62
18.6898
21.9295
784.697
447.731
22.9514
23.1268
23.1692
23.1254
22.986
22.7265
22.3413
21.9259
21.5897
21.3188
21.0628
20.7848
20.4451
19.9905
19.3649
18.5848
17.8798
17.4122
17.0888
16.7952
16.5112
16.3562
16.7261
17.6739
18.4767
18.7231
18.2517
17.7776
18.8232
19.8193
20.2877
21.5546
24.5894
789.16
450.552
23.1727
23.2094
23.1786
23.0632
22.8311
22.4379
21.8745
21.2979
20.897
20.6487
20.4707
20.3279
20.1887
19.9452
19.4609
18.864
18.5033
18.4011
18.3476
18.1979
17.8837
17.3854
16.8556
16.6952
17.1055
17.8819
18.7439
19.8618
21.4905
22.5138
23.0294
23.9312
25.8164
786.414
450.03
23.1139
23.2191
23.1881
23.0374
22.7384
22.2386
21.5327
20.8122
20.2976
19.931
19.6036
19.3321
19.2298
19.262
19.204
19.0641
19.1044
19.3926
19.7418
19.9934
20.0313
19.7547
19.1322
18.2948
17.5724
17.4533
18.3865
20.3013
22.4573
23.8953
24.6476
25.262
26.1795
781.833
449.014
23.2612
23.3902
23.314
23.1016
22.7271
22.134
21.3199
20.4725
19.8656
19.4814
19.1893
19.0357
19.1913
19.5291
19.6744
19.6339
19.5996
19.7356
20.0863
20.5788
21.0521
21.3026
21.1947
20.7139
19.9358
19.0701
18.6153
19.2194
20.7988
22.4593
23.6999
24.4786
25.224
779.166
448.248
23.3629
23.4723
23.3473
23.0799
22.6383
21.9782
21.1548
20.3327
19.7015
19.2738
18.9431
18.8756
19.4441
20.4011
20.9778
21.1858
21.2444
21.2964
21.4457
21.7269
22.0833
22.4014
22.5747
22.5399
22.2671
21.7409
20.9946
20.2576
20.0043
20.4041
21.2475
22.3203
23.7526
780.598
448.879
23.6721
23.6895
23.4603
23.0782
22.4861
21.6603
20.821
20.2035
19.8205
19.6018
19.3322
18.9339
18.6522
19.177
20.4335
21.3048
21.7337
21.9786
22.1893
22.4613
22.8069
23.1351
23.3484
23.4026
23.2849
22.9903
22.5065
21.82
21.0514
20.459
20.5172
21.844
24.1762
785.952
452.55
24.0938
23.8195
23.3897
22.7955
21.8977
20.7074
19.7929
19.5474
19.6337
19.7386
19.6839
19.3164
18.5747
17.4964
17.4622
19.5239
20.8439
21.4861
21.8712
22.2029
22.6051
23.1054
23.6011
23.9657
24.1167
23.9958
23.6174
23.1219
22.5624
22.0147
22.0254
23.2914
25.6243
789.614
458.42
24.4671
23.8052
23.1323
22.228
20.808
19.037
18.1448
18.6243
19.5324
20.2069
20.5675
20.6345
20.4064
19.8909
19.2566
19.6286
21.0605
21.8016
22.1089
22.2332
22.2659
22.3059
22.4884
22.8668
23.3523
23.7955
24.0838
24.2126
24.1264
23.9361
24.0684
24.9091
26.5697
789.084
462.26
24.4591
23.6182
22.8177
21.6399
19.698
17.4265
16.7939
18.0695
19.5172
20.5174
21.1122
21.388
21.3827
21.0917
20.5191
19.9717
20.4789
21.942
22.8971
23.3079
23.4178
23.3092
23.0371
22.7425
22.6491
22.9459
23.6942
24.6871
25.3476
25.5676
25.732
26.1185
26.9712
785.892
462.134
24.2237
23.4571
22.6593
21.3718
19.1756
16.4327
15.4398
17.1417
19.0145
20.3373
21.2801
21.9139
22.2662
22.355
22.1876
21.8003
21.4537
21.7218
22.5742
23.3503
23.8132
23.9949
23.9175
23.5953
23.1282
22.7861
22.9758
23.925
25.1164
25.8807
26.265
26.5169
26.9265
783.567
459.427
24.0566
23.4985
22.841
21.7438
19.7754
16.7684
14.4273
15.733
18.2942
20.2081
21.5037
22.3235
22.8074
23.0419
23.0637
22.9012
22.6454
22.5408
22.8513
23.4493
24.0013
24.3623
24.4979
24.3787
23.9944
23.4417
23.0266
23.1937
24.0154
24.9359
25.5658
25.9611
26.4639
783.114
457.173
24.0395
23.6686
23.2067
22.4335
20.9547
18.1799
14.4022
13.4524
16.5453
19.5129
21.5797
22.7558
23.3292
23.5653
23.5755
23.4017
23.1117
22.8777
22.948
23.4033
24.0209
24.5643
24.9286
25.0565
24.8981
24.4472
23.829
23.3576
23.3751
23.8587
24.4657
25.0373
25.8849
783.019
455.493
23.9572
23.727
23.4392
22.9699
22.0886
20.2612
16.5658
11.3246
10.9442
14.7267
18.135
20.7015
22.2562
23.0695
23.4649
23.5756
23.4456
23.1509
22.8899
22.9226
23.3272
23.9403
24.562
25.0481
25.2857
25.1954
24.7796
24.1777
23.67
23.5367
23.8163
24.3831
25.4335
782.735
455.032
23.9259
23.7618
23.5412
23.1776
22.5458
21.4021
19.2032
14.8123
8.51459
8.805
12.5865
16.3993
19.6346
21.7305
22.8498
23.418
23.6614
23.651
23.4439
23.191
23.1147
23.3426
23.8369
24.4647
25.0494
25.4012
25.3936
25.0333
24.4751
24.0158
23.9568
24.368
25.4108
783.121
454.331
23.8964
23.8347
23.707
23.4605
22.9889
22.0807
20.3662
17.2109
11.3004
6.6079
10.502
14.0423
17.4013
20.2618
22.0303
23.0015
23.5561
23.863
23.9646
23.8872
23.7188
23.6108
23.6981
24.0402
24.6005
25.2144
25.6244
25.6553
25.3348
24.8885
24.6826
24.9435
25.8669
784.24
454.143
23.9027
23.8715
23.7719
23.577
23.2291
22.6105
21.4437
19.198
14.677
4.37269
5.58619
10.5041
14.0508
17.5432
20.3784
22.0488
22.9882
23.5672
23.9355
24.1342
24.1829
24.1394
24.1085
24.2042
24.513
25.046
25.6466
26.0278
26.0387
25.7938
25.6043
25.7543
26.5099
785.674
454.412
23.9688
23.9532
23.8633
23.673
23.3305
22.7531
21.8201
20.2788
17.4783
11.4523
6.23865
8.25629
11.7888
14.8264
18.2096
20.9154
22.402
23.2089
23.7241
24.0757
24.2939
24.3931
24.4247
24.4842
24.6722
25.0568
25.6221
26.1768
26.4713
26.4785
26.4162
26.5633
27.2633
788.177
454.63
24.044
24.0317
23.9579
23.7972
23.5037
23.0112
22.2441
21.0727
19.1863
15.7589
6.80452
5.36767
10.4143
12.9879
15.3405
18.1798
20.7504
22.3276
23.194
23.733
24.0906
24.3113
24.4233
24.5053
24.6933
25.0865
25.6627
26.2937
26.7695
26.9869
27.0901
27.334
28.1229
791.536
455.633
24.1602
24.1013
24.0122
23.8464
23.5512
23.0608
22.3333
21.3602
19.9612
17.6517
13.2258
5.53558
8.25564
11.8427
13.7664
15.594
17.9284
20.3513
22.0809
23.0666
23.6448
23.9967
24.1788
24.2461
24.3715
24.8407
25.6875
26.5615
27.1971
27.5417
27.7501
28.0585
28.8812
793.593
456.223
24.2221
24.1357
24.0352
23.868
23.5877
23.147
22.5191
21.6851
20.5774
18.9658
16.2062
9.51476
5.80708
11.0705
13.5319
14.8407
16.0675
17.7341
19.7871
21.6011
22.7734
23.447
23.8074
23.9382
23.9753
24.3499
25.4918
26.869
27.7631
28.1979
28.4221
28.6701
29.2885
792.287
456.892
24.3144
24.172
24.0232
23.8047
23.4658
22.9815
22.3968
21.7169
20.8409
19.6162
17.7898
14.8206
9.12325
8.7087
13.0365
14.921
15.924
16.7745
17.9029
19.4828
21.1699
22.4484
23.207
23.5737
23.681
23.8696
24.8533
26.6131
27.9631
28.5979
28.8674
29.0275
29.3222
789.006
457.651
24.4081
24.1968
23.9975
23.7305
23.3363
22.8056
22.2422
21.6823
20.971
19.9575
18.5277
16.3915
12.4649
8.15638
12.2972
15.0561
16.3266
17.0445
17.6111
18.3338
19.4649
20.921
22.2248
23.0541
23.4538
23.6447
24.1656
25.5828
27.2346
28.2163
28.6632
28.8655
29.0305
786.804
458.76
24.5042
24.1868
23.9145
23.5767
23.1036
22.5173
21.9955
21.5846
21.0974
20.3054
19.0159
17.1453
14.5442
10.2321
11.0486
15.0174
16.8683
17.7587
18.2556
18.6071
19.019
19.7605
20.9333
22.1708
23.0332
23.4986
23.8352
24.5534
25.8347
27.0002
27.6857
28.0716
28.4378
786.889
460.081
24.5561
24.1329
23.7878
23.3659
22.7791
22.0897
21.5932
21.3225
21.0185
20.5051
19.6689
18.3451
16.3152
13.345
10.9451
14.8418
17.2289
18.4058
19.0352
19.3904
19.5996
19.8101
20.2981
21.2776
22.4351
23.2778
23.7756
24.1681
24.8112
25.7113
26.4962
27.098
27.8719
788.897
461.009
24.57
24.0855
23.7022
23.2268
22.5435
21.7115
21.168
21.0643
20.9839
20.6535
19.9954
18.9737
17.5347
15.5204
13.0445
14.5121
17.4216
18.9574
19.7553
20.1966
20.4306
20.5194
20.5883
20.9567
21.9003
23.001
23.7905
24.2668
24.6295
25.1555
25.8626
26.6195
27.7827
791.753
461.365
24.4914
24.0261
23.6619
23.1848
22.4551
21.459
20.6451
20.4728
20.5755
20.5099
20.125
19.3713
18.1819
16.5058
14.4674
14.1085
17.3129
19.223
20.1973
20.7372
21.0451
21.1752
21.1651
21.1873
21.7068
22.8496
23.8868
24.562
24.9578
25.3535
26.0041
26.847
28.2307
794.364
459.614
24.353
24.0383
23.7608
23.3567
22.692
21.6579
20.5345
20.0727
20.2234
20.3855
20.275
19.8363
19.0636
17.9086
16.3385
15.0822
16.9716
19.1738
20.3722
21.0185
21.3842
21.5513
21.5367
21.4206
21.6243
22.7808
24.1623
25.0319
25.5189
25.9384
26.5882
27.4383
28.8334
795.546
458.263
24.377
24.1736
23.9627
23.632
23.0613
22.0699
20.632
19.5366
19.5116
19.9341
20.171
20.0544
19.5828
18.7672
17.5737
16.171
16.4141
18.9039
20.4475
21.2375
21.6587
21.8475
21.8191
21.5993
21.5095
22.5228
24.4677
25.6932
26.2684
26.6899
27.2636
28
29.2099
794.671
457.183
24.3799
24.2447
24.0692
23.7873
23.3155
22.5145
21.1949
19.5715
18.8436
19.2115
19.7482
19.989
19.8764
19.4389
18.6716
17.5404
16.6333
18.1447
20.2216
21.3362
21.8924
22.1436
22.1378
21.8672
21.5132
22.0191
24.2624
26.2887
27.1358
27.5582
27.972
28.4828
29.3403
792.134
457.487
24.5281
24.3315
24.1009
23.7701
23.2606
22.4948
21.409
19.9147
18.6872
18.746
19.4268
19.9347
20.09
19.9267
19.4853
18.7503
17.8058
17.834
19.8615
21.3299
22.0824
22.444
22.5194
22.2968
21.825
21.6836
23.2518
25.9954
27.6021
28.237
28.5917
28.9076
29.3889
789.46
459.724
24.702
24.3502
24.0321
23.6108
22.9679
22.0421
20.9712
19.8061
18.6139
18.3844
19.0806
19.7827
20.1587
20.2214
20.0265
19.5916
18.9155
18.4018
19.5106
21.3824
22.424
22.9303
23.1151
23.0048
22.5827
22.0557
22.3808
24.5112
26.9094
28.1409
28.6959
29.0186
29.343
788.08
461.712
24.7761
24.3032
23.928
23.4419
22.6798
21.547
20.3282
19.411
18.6804
18.4812
19.0983
19.8562
20.3542
20.5664
20.5462
20.3276
19.9057
19.3684
19.5024
21.1651
22.6029
23.3811
23.7587
23.8393
23.6163
23.1087
22.6637
23.2401
25.1551
26.9751
27.9622
28.5234
29.0301
788.264
463.131
24.7128
24.1793
23.7923
23.2796
22.4372
21.1158
19.6074
18.634
18.2996
18.4606
19.1549
19.9531
20.5253
20.8373
20.9377
20.8652
20.6299
20.2494
20.0305
20.9318
22.5736
23.687
24.3066
24.6026
24.6228
24.3503
23.8338
23.4415
23.9272
25.3718
26.6945
27.575
28.4778
789.524
461.883
24.4537
24.0466
23.7531
23.3206
22.5539
21.2528
19.5232
18.1917
17.8457
18.2449
19.0794
19.9625
20.6196
21.0161
21.2023
21.2248
21.107
20.8584
20.6055
20.9803
22.4951
23.8628
24.7228
25.2237
25.4583
25.4361
25.1398
24.6141
24.1893
24.5341
25.6328
26.7054
28.0215
791.445
459.354
24.2939
24.0868
23.9263
23.6408
23.0756
21.9985
20.2197
18.2348
17.2182
17.4884
18.4952
19.6058
20.4593
21.0014
21.2955
21.4057
21.3731
21.2158
20.9992
21.1257
22.3952
23.9624
25.0464
25.7251
26.1289
26.2988
26.219
25.8528
25.2389
24.8178
25.3506
26.4278
28.0277
793.664
456.882
24.2055
24.1624
24.1129
23.9728
23.6497
22.9655
21.5977
19.3983
17.2566
16.5591
17.3973
18.7791
19.9605
20.7513
21.2102
21.4296
21.4783
21.3895
21.1989
21.1423
22.0512
23.8177
25.1666
26.033
26.5916
26.9198
27.0142
26.8226
26.2924
25.6885
25.9096
26.8917
28.5271
795.52
455.644
24.2039
24.2037
24.1699
24.0655
23.8452
23.4227
22.5919
20.9459
18.4244
16.2867
16.1468
17.5635
19.1372
20.2808
20.9785
21.35
21.4998
21.4852
21.3328
21.1436
21.5426
23.2534
24.9295
26.0504
26.7956
27.2909
27.5509
27.5226
27.1568
26.7045
26.9029
27.7177
29.1405
796.007
456
24.2937
24.2395
24.1562
23.9982
23.7248
23.3057
22.7178
21.748
19.8931
17.2806
15.67
16.4349
18.2091
19.7219
20.6983
21.2482
21.5135
21.5821
21.4872
21.2549
21.206
22.3782
24.3465
25.8026
26.795
27.4993
27.9486
28.0991
27.9444
27.7348
27.9427
28.5256
29.5923
794.944
457.595
24.4787
24.3178
24.1719
23.9491
23.5728
22.991
22.2837
21.541
20.4259
18.4579
16.2738
15.9946
17.5445
19.2701
20.4931
21.2146
21.5946
21.747
21.7182
21.5118
21.2332
21.6285
23.4545
25.2839
26.5859
27.544
28.2191
28.5717
28.633
28.6179
28.788
29.1438
29.8326
793.08
459.744
24.6127
24.3092
24.0992
23.8254
23.3698
22.6372
21.7209
20.8954
20.1179
18.9286
17.2162
16.3865
17.4453
19.1372
20.486
21.3308
21.8049
22.0293
22.0629
21.9123
21.5865
21.4254
22.4869
24.5105
26.1435
27.3754
28.3059
28.8761
29.1106
29.1985
29.3103
29.4916
29.8796
791.445
461.308
24.5879
24.1624
23.8928
23.5596
23.0115
22.1334
21.0379
20.0892
19.435
18.7865
17.8758
17.2435
17.9225
19.3985
20.7298
21.6273
22.1638
22.4443
22.533
22.443
22.1563
21.7708
21.9561
23.549
25.4588
26.9839
28.1838
28.9965
29.3865
29.5232
29.5806
29.6465
29.8581
790.733
461.669
24.4537
23.9854
23.6864
23.3014
22.651
21.6005
20.2895
19.1812
18.5895
18.3589
18.1869
18.1449
18.7666
19.999
21.2142
22.099
22.6629
22.9856
23.1269
23.1063
22.9087
22.5233
22.1914
22.8076
24.5456
26.296
27.7609
28.863
29.4845
29.7211
29.7761
29.7896
29.9198
790.819
461.069
24.3195
23.8715
23.5739
23.1715
22.4693
21.2854
19.6911
18.2302
17.5252
17.6568
18.1877
18.8388
19.7141
20.8388
21.9131
22.7277
23.274
23.611
23.7895
23.8312
23.729
23.4538
23.0293
22.8704
23.7825
25.3558
26.9205
28.2671
29.2063
29.6838
29.8626
29.925
30.0795
791.965
460.542
24.216
23.7667
23.4602
23.0516
22.3483
21.1326
19.3407
17.41
16.2999
16.7252
18.0456
19.4376
20.7173
21.8785
22.832
23.528
23.9982
24.2976
24.4683
24.5302
24.4812
24.2993
23.9561
23.5684
23.7599
24.8142
26.1707
27.4841
28.5508
29.2194
29.5525
29.7303
30.0478
794.074
460.41
24.1055
23.6078
23.2567
22.8039
22.0679
20.8431
18.9892
16.7412
15.1348
15.9018
18.1442
20.1997
21.7843
22.9512
23.7748
24.3308
24.6934
24.9178
25.0375
25.0676
25.0071
24.8401
24.5502
24.2481
24.3744
25.209
26.3168
27.3659
28.2417
28.8468
29.2083
29.4858
30.0661
796.818
460.46
23.9833
23.4135
22.9902
22.4458
21.6129
20.3495
18.5136
16.1503
14.2395
15.4745
18.7001
21.2202
22.8571
23.8893
24.5416
24.9502
25.1959
25.3238
25.3568
25.3032
25.1682
24.9844
24.8632
24.9414
25.3837
26.2641
27.2369
28.0329
28.6286
29.0412
29.3379
29.6671
30.434
798.14
460.328
23.8571
23.2248
22.7317
22.0882
21.1455
19.8539
18.1134
15.8452
13.7229
14.839
18.9124
21.826
23.474
24.4184
24.9751
25.2941
25.4501
25.4784
25.3885
25.1807
24.916
24.8729
25.3849
26.0647
26.5831
27.2851
28.1321
28.8432
29.3312
29.6474
29.8871
30.176
30.7893
795.356
460.015
23.721
23.0389
22.492
21.772
20.7443
19.4321
17.81
15.7533
13.3915
13.2707
17.7995
21.5353
23.4878
24.5534
25.1547
25.4813
25.6113
25.5717
25.355
24.9527
24.4975
24.5667
25.8421
27.397
27.958
28.1835
28.5966
29.1125
29.5543
29.863
30.0758
30.258
30.4839
789.591
459.435
23.555
22.8417
22.257
21.4845
20.4039
19.0618
17.4937
15.6371
13.3592
11.8638
15.604
20.6335
23.1884
24.5148
25.2588
25.6795
25.8653
25.8373
25.5778
25.0565
24.3549
24.0207
25.1457
27.5655
29.1253
29.4644
29.4793
29.5312
29.6545
29.7842
29.8752
29.906
29.787
784.42
458.621
23.4032
22.6717
22.0523
21.2357
20.1372
18.8038
17.2356
15.4439
13.429
11.8439
14.0426
19.5333
22.7847
24.4357
25.3694
25.9319
26.241
26.3223
26.1567
25.6996
24.9318
24.0779
23.9821
25.5999
28.0291
29.6081
30.2009
30.2756
30.1843
30.0677
29.9424
29.7616
29.3305
781.311
458.059
23.3086
22.5464
21.8865
21.0246
19.9248
18.6516
17.1369
15.3386
13.2886
11.6531
13.2894
18.5217
22.3584
24.3455
25.4838
26.2022
26.6673
26.9197
26.9481
26.7141
26.1701
25.3153
24.4149
24.225
25.3695
27.2561
28.9447
29.9522
30.3176
30.3321
30.1736
29.8882
29.336
781.87
457.922
23.2251
22.4076
21.6976
20.7853
19.6939
18.507
17.1072
15.3858
13.2831
11.2859
12.4293
17.7191
22.0283
24.3132
25.6095
26.4491
27.0482
27.4668
27.7018
27.7213
27.4821
26.9443
26.1078
25.1656
24.6122
24.9258
26.0802
27.5815
28.7972
29.4532
29.7084
29.7193
29.4977
784.628
457.955
23.1087
22.2263
21.4561
20.4743
19.3801
18.2715
16.9719
15.3342
13.2505
10.98
11.4764
16.8754
21.597
24.1797
25.643
26.5897
27.2917
27.8397
28.2474
28.4916
28.5352
28.3403
27.8767
27.1454
26.2389
25.4306
25.1066
25.5404
26.6052
27.6988
28.3856
28.7675
29.0241
786.692
457.765
22.9707
22.0499
21.2341
20.1887
19.0992
18.094
16.9183
15.3723
13.3113
10.7731
10.3704
15.8684
21.2075
24.0334
25.6202
26.6536
27.4377
28.0807
28.6069
29.0017
29.2361
29.2788
29.101
28.6808
28.0167
27.1591
26.253
25.6059
25.618
26.3903
27.3209
28.0711
28.9213
790.299
457.337
22.8456
21.9171
21.0739
19.969
18.8589
17.9475
16.91
15.4753
13.4515
10.6557
9.08198
14.515
20.8484
23.9447
25.5571
26.6043
27.4384
28.1815
28.8592
29.4462
29.8975
30.1708
30.2355
30.0682
29.6472
28.9572
28.0103
26.9038
25.9628
25.8594
26.727
27.7135
28.8945
791.295
456.724
22.7386
21.8285
20.9805
19.8402
18.7101
17.9094
17.0707
15.8496
14.0323
11.2438
7.77675
11.2086
19.1556
23.0421
24.9941
26.1972
27.0877
27.8404
28.516
29.1322
29.6872
30.1598
30.5102
30.6925
30.6698
30.4132
29.8887
29.0538
27.9271
26.913
26.9049
27.6829
28.9209
792.524
456.059
22.6551
21.7654
20.9115
19.7349
18.5733
17.881
17.2665
16.324
14.8271
12.447
8.84784
8.92032
17.5502
22.5497
24.6142
25.8506
26.8344
27.7604
28.6544
29.4568
30.0988
30.5595
30.8569
31.0103
31.0204
30.8721
30.5411
29.9866
29.1709
28.2888
28.1134
28.7226
29.8227
794.354
455.512
22.5991
21.7132
20.8414
19.6256
18.4364
17.8629
17.5287
16.9798
15.9679
14.2752
11.3489
6.61866
10.7914
19.7508
22.9549
24.5451
25.6031
26.493
27.365
28.2899
29.2755
30.2375
31.0273
31.5486
31.7969
31.7937
31.5427
31.02
30.187
29.1876
28.7171
29.0107
29.8047
793.51
454.942
22.5267
21.6239
20.7041
19.4058
18.1557
17.6649
17.5573
17.3297
16.7382
15.5883
13.5989
10.1151
6.62843
15.0963
21.3708
23.5443
24.8649
25.9595
26.9363
27.7319
28.3377
28.8488
29.3847
30.0026
30.6537
31.2202
31.5795
31.6052
31.1926
30.5033
30.1495
30.3579
31.1044
798.41
454.3
22.4884
21.5537
20.5717
19.176
17.8317
17.3985
17.5307
17.6773
17.573
17.0306
15.8328
13.6062
10.0452
10.1644
17.7173
22.7605
24.1714
25.0934
26.2301
27.7955
29.5245
30.8683
31.5574
31.7127
31.5627
31.3077
31.0839
30.9222
30.7519
30.5751
30.5534
30.7067
31.0646
793.077
453.797
22.4758
21.4685
20.3892
18.8417
17.2992
16.7794
17.0275
17.4806
17.8753
18.0576
17.8543
17.0175
15.1072
10.9657
5.7622
14.1628
20.9682
23.1311
24.0212
24.8094
25.9315
27.488
29.2989
30.9873
32.1395
32.6126
32.5183
32.0697
31.5202
31.0868
30.8413
30.6982
30.5386
788.047
453.666
22.5163
21.3712
20.1303
18.333
16.4905
15.8103
16.1444
16.8359
17.5527
18.1321
18.4387
18.3074
17.4882
15.5789
11.5609
5.72437
13.053
20.2204
23.6938
25.2807
26.0318
26.4099
26.6825
27.2423
28.4001
29.885
31.1341
31.7983
31.9009
31.7134
31.4644
31.2294
31.0052
790.92
454.843
22.644
21.2675
19.8165
17.7044
15.4391
14.3865
14.7103
15.7134
16.9178
18.0946
19.1082
19.8258
20.0878
19.7192
18.4259
15.8856
13.4406
15.1886
19.6418
23.7393
26.862
29.1116
30.4389
30.8517
30.634
30.3032
30.268
30.5341
30.8297
30.9771
30.9699
30.8401
30.5513
787.481
458.027
22.7158
21.0235
19.3046
16.6928
13.7053
12.2222
12.792
14.39
16.1216
17.6921
19.0417
20.1607
21.0461
21.6616
21.925
21.7062
20.8914
19.6684
18.9598
19.4559
20.8364
22.7942
25.3451
28.1787
30.5449
31.8527
32.1346
31.8777
31.5267
31.2434
30.9991
30.7013
30.104
781.889
461.176
22.556
20.6531
18.7639
15.6657
11.4026
9.36981
11.703
15.1287
17.9408
20.0344
21.5986
22.7704
23.65
24.2948
24.7288
24.9412
24.9139
24.6162
24.0609
23.3394
22.5266
21.7144
21.4226
22.5426
25.0703
28.0853
30.5799
31.9914
32.3747
32.1731
31.7797
31.3511
30.7099
783.492
461.327
22.1217
20.3347
18.4811
15.1418
9.8593
8.25102
13.6502
18.702
22.1609
24.362
25.7603
26.6855
27.3356
27.7986
28.1115
28.279
28.3057
28.183
27.8688
27.294
26.5087
25.6565
24.8845
24.4126
24.3396
24.7584
25.9718
27.7732
29.4262
30.49
30.9817
31.0536
30.7448
791.195
457.853
21.719
20.3107
18.6873
15.5825
10.67
10.4375
16.6174
21.4985
24.8176
26.5864
27.465
28.0068
28.4178
28.7672
29.0783
29.3405
29.5173
29.5965
29.5857
29.4497
29.1404
28.6277
27.884
26.8663
25.5052
24.0854
23.7059
25.0232
27.1564
28.9377
29.9497
30.3947
30.9342
804.887
456.602
21.9044
20.7014
19.5299
17.4915
13.5869
8.48
10.4109
14.1466
18.7538
22.717
24.6118
25.5114
26.0535
26.4678
26.9265
27.662
28.6218
29.4089
29.8543
29.9868
29.8403
29.4058
28.6326
27.492
26.1318
25.1554
25.3467
26.709
28.4307
29.7878
30.6673
31.4049
32.8838
815.573
457.268
21.653
20.2507
19.0384
17.3977
14.4907
7.17998
6.84068
6.34577
9.44526
17.6747
22.5467
24.1692
24.8484
25.1985
25.5447
26.4216
27.963
29.2341
29.8017
29.8991
29.7543
29.5483
29.2448
28.716
28.1314
27.9723
28.5227
29.5199
30.5266
31.3131
31.9328
32.6257
33.8868
808.436
455.992
21.2142
19.6799
18.0939
15.923
13.5767
10.8873
7.23731
6.87044
5.28315
10.7161
20.2599
23.19
24.1131
24.4578
24.638
25.2149
26.8452
28.9008
30.1132
30.3908
30.1671
29.9039
29.9135
30.0875
30.2599
30.5145
30.9608
31.5109
32.0069
32.3827
32.6645
32.8999
32.9726
791.778
454.419
21.123
19.6901
18.3045
16.4802
14.098
10.9101
7.4432
4.36721
5.63273
6.94558
8.33481
18.8356
22.8977
23.8596
24.1207
24.2132
24.7912
26.4841
28.798
30.5677
31.3087
31.2981
31.0574
31.0165
31.2885
31.7136
32.1102
32.4036
32.5771
32.6296
32.5536
32.2516
31.2115
779.459
453.205
20.8471
19.3748
17.9584
16.4305
15.3047
13.9646
11.5754
8.12192
6.80906
6.92042
6.97019
6.69734
12.1932
21.4217
23.6857
24.0849
24.0828
24.3624
25.5214
27.5621
29.8165
31.5107
32.3018
32.4259
32.3381
32.3699
32.553
32.7534
32.8721
32.863
32.6862
32.2047
30.8306
777.332
450.711
20.7211
19.5872
18.3887
16.702
15.1323
14.2668
13.6446
12.6773
10.8231
7.69016
6.93518
7.31218
5.67445
5.41884
14.4274
21.9624
24.0724
24.3047
24.2431
24.6435
25.8592
27.7895
29.9573
31.7244
32.6655
32.9317
32.9194
32.8309
32.6961
32.493
32.1735
31.6119
30.3475
779.022
448.3
20.793
20.0509
19.3539
18.2933
16.8129
15.5397
14.7727
14.2554
13.7276
12.98
11.4622
8.56415
4.3685
5.35411
7.41309
9.52041
14.9294
22.1643
24.352
24.595
24.565
24.9043
25.9276
27.6605
29.7142
31.3455
32.14
32.3877
32.39
32.2491
31.9913
31.5758
30.7327
783.46
447.423
20.9338
20.3546
19.8525
19.1116
17.8988
16.4845
15.5489
15.175
15.0052
14.7731
14.3804
13.7287
12.494
10.0021
6.02778
7.24493
5.54585
9.25202
16.3387