/*--------------------------------*- C++ -*----------------------------------*\
| =========                 |                                                 |
| \\      /  F ield         | OpenFOAM: The Open Source CFD Toolbox           |
|  \\    /   O peration     | Version:  v1912                                 |
|   \\  /    A nd           | Website:  www.openfoam.com                      |
|    \\/     M anipulation  |                                                 |
\*---------------------------------------------------------------------------*/
FoamFile
{
    version     2.0;
    format      ascii;
    class       volScalarField;
    location    "180/oil";
    object      wallHeatFlux;
}
// * * * * * * * * * * * * * * * * * * * * * * * * * * * * * * * * * * * * * //

dimensions      [1 0 -3 0 0 0 0];


internalField   uniform 0;

boundaryField
{
    maxY
    {
        type            calculated;
        value           uniform 0;
    }
    minX
    {
        type            calculated;
        value           uniform 0;
    }
    maxX
    {
        type            calculated;
        value           uniform 0;
    }
    minY
    {
        type            calculated;
        value           uniform 0;
    }
    minZ
    {
        type            calculated;
        value           uniform 0;
    }
    maxZ
    {
        type            calculated;
        value           uniform 0;
    }
    oil_to_sphere
    {
        type            calculated;
        value           nonuniform List<scalar> 
1536
(
2373.57
2501
2288.79
2255.18
1880.44
1960.47
1933.88
1331.83
1246.94
2606.7
1857.17
2636.87
2688.86
2638.33
2239.97
1867.43
1354.63
1257.3
-196.043
2682.68
2608.17
1981.65
1944.23
1886.82
2008.68
2007.68
2008.47
1893.7
2506.88
2469.7
2292
1718.86
1546.27
2019.1
1875.29
1860.35
1765.07
2124.04
1977.12
2109.97
1977.25
1860.86
2438.57
2643.33
2486.23
2622.72
1962.87
1966.98
2200.28
2016.89
1977.96
1982.08
1924.75
1960.26
1629.85
1506.23
1949.95
1942.57
1267.95
660.216
796
641.117
768.093
2679.11
2696.13
2632.6
2498.88
2630.07
2363.8
2475.84
2026.52
1955.84
2286.32
1985.38
1876.45
1554.39
1480.41
1426.35
1871.26
1257.85
635.74
769.583
482.631
467.374
864.906
791.46
508.996
1346.06
1255.83
656.612
781.98
-198.665
-195.193
2691.78
2698.9
2646.47
2532.97
2581.73
2639.16
2350.01
2510.59
2016.15
2359.12
2296.78
1970.78
1984.73
1889.49
1438.67
1848.33
1566.96
1469.5
1540.77
656.072
800.764
494.709
517.263
491.686
855.227
790.984
878.754
1265.31
784.139
-195.948
2632.57
2351.45
2473.49
2366.18
2460.96
1975.27
1983.65
2002.78
1974.95
1983.09
1960.56
1997.2
2007.15
1960.23
1507.19
1929.79
1922.39
661.445
790.254
1348.2
1266.31
771.937
1241.36
2213.09
2212.28
1926.83
2041.84
2286.96
2208.75
1959.42
1998.61
1984.75
1766.14
1634.64
1660.15
2219.62
2176.11
2225.63
2400.42
2088
1998.69
1862.5
1770.91
1961.19
1810.32
1644.54
1670.43
2419.97
2142.84
2478.64
2109.22
1688.95
1465.47
2228.23
2251.1
2337.27
2195.76
2081.77
1990.51
1774.65
1982.04
1709.91
1674.63
1665.91
2546.22
2186.44
2291.96
2407.06
2230.97
2378.86
2277.07
1723.33
1737.03
1799.29
1817.54
1700.02
1753.61
1802.6
1875.47
1256.08
1206.09
1154.6
1290.44
1357.64
1329.61
1432.31
1397.66
1212.69
1111.05
1056.51
2567.25
2753.16
2699.46
2581.14
2580.25
2600.52
2572.93
2550.67
2651.2
2497.07
2560
2565.41
2239.67
2234.31
2486.34
2344.28
2043.99
1781.62
1712.75
1958.12
1732.13
1222.42
1274.52
1169.63
1295.61
1345.89
1182.58
1099.94
377.412
267.174
2662.52
2571.31
2612.39
2559.86
2630.89
2760.99
2639.83
2556.56
2171.76
2011.43
2178.32
2209.48
1747.63
1878.64
1227.31
1121.88
1365.86
1489.1
1423.22
1071.54
258.051
362.297
45.0079
44.5099
369.359
2608.87
2548.82
2535.79
2499.78
2559.89
2570.14
2524.4
2618.22
2798.21
2673.82
2549.15
2377.56
2215.2
2223.49
2326.41
2504.92
2353.27
2222.59
2219.14
1768.83
1787.25
1880.36
1905.35
1803.34
1874.1
1171.5
1114.18
1197.23
1319.21
1272.45
1351.04
1335.01
1337.28
1160.49
1085.71
1298.35
1200.85
2040.91
1923.26
1955.31
1769.51
1710.13
1677.82
1610.7
2439.61
2332.48
2490.43
2413.54
2332.26
2428.21
2460.78
2506.89
2586.27
2455.75
2486.41
2449.93
2740.17
2611.43
2566.31
2486.44
2584.51
2666.31
2570.9
2383.72
2416.88
2474.75
2333.85
2473.74
2512.33
2584.74
2568.59
2644.79
2614.95
2590.56
2524.11
2522.54
2502.93
2527.3
2434.45
2441.85
2352.17
2427.73
2306.62
2346.64
2509.9
2212.89
2436.54
2237.42
2275.64
2189.72
2046.28
2421.77
2220.58
2206.62
2321.8
2052
2151.66
2223.62
2027.81
2106.26
1968.82
2243.21
2418.69
2224.83
2241.55
2275.11
2080.58
2163.61
2142.69
1776.3
1838.84
1758.61
1649.52
1579.61
1656.75
1505.36
1449.98
1790.75
1844.86
1780.35
1676.79
1599.88
1711.75
1502.8
1450.08
1406.84
1727.64
1441.47
1671.31
1609.42
1678.96
1499.21
1783.66
1859.41
1773.81
1845.54
1476.8
1413.32
1672.8
1606.72
1696.7
1480.81
1430.22
1320.84
1261.24
1314.05
1256.22
1164.7
1169.11
1093.82
1236.51
1125.92
1367.23
1076.21
1107.26
1048.01
968.041
1075.6
1034.3
910.136
864.297
740.091
1278.06
1225.98
1158.51
1299.23
1114.17
1168.28
911.642
849.84
821.71
741.317
1052.75
980.901
1079.44
1037.7
1014.27
1312.28
1253.91
1324.03
1330.31
1167.7
1085.34
1268.39
1192.56
2988.09
2848.31
2723.85
2953.34
2738.37
2773.6
2851.93
2654.7
2693.33
2746.11
2732.01
2562.17
2664.77
2525.4
2509.77
2478.58
2471.59
2528.73
2506.4
2582.48
2657.64
2413.49
2602.42
2443.44
2525.83
2456.86
2610.49
2487.35
2599.78
2546.1
2628.81
2558.67
2420.38
2504.16
2354.47
2539.47
2196.73
2285.79
2252.02
1981.3
2098.94
2084.33
2239.07
1981.29
2205.84
1968.38
2095.66
2003.43
1888.63
1957.56
1783.63
1736.59
1612.33
1684.76
1650.75
1572.92
1466.61
1700.38
1455.83
1863.05
1763.41
1636.28
1113.29
1040.04
980.589
1094.28
1045.98
1217.69
1115.1
1362.97
1064.27
901.247
880.537
753.559
576.644
452.19
586.841
457.843
688.754
797.48
684.258
554.412
584.11
1206.25
1267.79
1153.22
1289.63
1070.94
985.227
1094.95
1021.81
1205.16
1105.3
1319.7
1414.02
1068.59
904.471
1020.39
864.153
741.282
974.659
366.18
264.867
391.132
265.788
53.2409
49.675
50.4775
48.184
247.501
2904.58
2696.6
2777.01
2748.19
2705.16
2908.55
2784.82
2742.03
2685.72
2567.57
2729.53
2760.34
2818.26
2578.97
2584.96
2663.29
2672.23
2414.14
2561.81
2422.77
2612.46
2530.63
2519.92
2476.92
2553.39
2472.36
2544.75
2626.77
2490.49
2404.43
2363.31
2537.64
2609.63
2413.51
2584.77
2441.8
2349.81
2639.08
2524.55
2509.81
2547.65
2452.03
2450.57
2518.83
2607.15
2462.25
2361.45
2245.06
2208.57
2106.07
1999.23
2125.72
2371.64
2281.66
2247.23
2147.64
2133.35
2061.5
2082.41
2095.56
1982.96
1984.09
1774.88
1948.3
1711.25
1811.25
1681.36
1615.89
2024.11
1879.22
1500.47
1730.77
1451.96
1716.08
1566.11
1461.35
1651.93
1676.91
1661.66
1651.81
1621.62
1974.1
1749.17
901.545
887.925
830.894
757.717
1269.75
1208.33
1158.42
1295.1
1115.71
1171.5
992.229
1096.03
1090.15
1033.71
1005.16
699.192
699.31
810.171
567.405
579.349
450.496
588.352
590.701
446.594
785.537
675.401
683.335
802.295
558.675
1207.67
1109.8
1346.57
1410.02
1070.19
909.993
1024.62
851.318
827.688
980.55
1179.57
1092.61
1259.71
1221.55
1157.83
1295.96
1340.71
980.424
1051.82
1089.27
1027.73
1012.04
50.3602
51.9327
384.148
372.315
269.25
246.943
500.449
369.144
253.229
2326.12
2467.82
2450.7
2319.15
2447.19
2325.86
2318.82
2600.86
2550.21
2664.68
2554.43
2421.72
2514.26
2465.69
2584.15
2488.22
2535.73
2426.68
2426.85
2608.48
2525.53
2483.62
2496.98
2452.75
2449.92
2503.47
2367.46
2349.31
2427.18
2492.78
2420.94
2542.93
2464.37
2670.52
2433.33
2370.02
2405.93
2427.11
2350.53
2321.83
2514.89
2224.1
2098.26
2103.13
2181.43
1994.58
2401.76
2219.2
2210.49
2291.2
2155.5
2158.79
2083.08
2337.58
2194.21
2218.42
2288.09
2060.5
2081.71
2203.68
2176.93
1993.93
2267.08
2398.91
2254.3
2278.71
2168.39
2161.5
2099.19
2097.02
1983.24
1667.23
1601.81
1685.79
1500.3
1473.84
1419.89
1828.48
1734.04
1845.11
1781.6
1602.36
1673.96
1669.72
1475.84
1427.11
1441.92
1784.1
1778.85
1859.51
1770.97
1855.74
1466.82
1499.47
1661.1
1590.62
1670.82
1469.35
1424.91
1882.33
1763.06
1766.21
1811.74
1870.29
1496.21
1435.47
1608.39
1685.04
1684.5
1254.96
1323.79
1166.68
1156.78
1081.07
1314.58
1261.31
1321.76
1053.84
979.322
1086.51
1022.34
929.681
1051.4
874.498
748.57
991.391
1217
1257.21
1150.39
1297.88
1415.04
1559
1265.83
1150.14
1087.31
1120.11
1223.47
908.301
1011.81
860.271
840.437
965.609
1060.77
988.607
1070.22
1051.28
1014.25
1322.9
1416.91
1218.42
1112.44
1062.77
1292.6
1349.89
1217.06
1272.13
1167.56
2301.86
2232.64
1476.27
1377.86
2636.76
2528.32
2601.9
2626.06
2601.12
2196.63
2385.39
2308.46
2368.16
1853.49
1990.24
1379.95
466.771
419.229
2293.63
2289.77
1339.08
471.293
400.062
660.11
2630.13
2225.36
1944.26
642.287
2371.18
2272.97
2342.38
1843.19
2005.94
1985.3
1330.88
2306.72
2372.51
1976.14
1997.3
2344.2
1963.37
1989.34
1802.57
1877.76
1426.56
1544.07
1638.94
2234.11
2325.78
1945.3
2089.56
1837.37
1931.82
1426.86
1540.65
1571.67
2213.48
2370.53
1957.34
2151.1
1607.01
1440.04
1580.62
1782.1
2091.65
2064.12
2344.59
2382.07
1993.01
1974.7
1943.95
1990.55
1562.19
1442.66
1562.12
1350.87
2755.59
2683.74
2347.35
2583.68
2336.82
2646.45
2611.6
1986.54
2244.67
2237.53
2288.65
2229.1
1961.96
1595.72
1541.71
1543.72
1556.27
1549.68
1518.42
932.948
1375.44
883.542
944.477
2697.73
2612.72
2730.64
2631.64
2702.82
2655.13
2701.15
2676.21
2733.15
2659.84
2345.28
2592.02
2346.43
2476.01
2351.2
1952.72
2119.45
2208.32
2426.58
2013.05
2323.62
1953.8
1441.97
1564.53
1603.1
1463.75
1541.49
1532.74
1355.42
941.707
831.2
791.088
837.976
1373.39
923.425
426.484
446.746
400.839
2754.1
2697.39
2655.6
2803.45
2668.55
2725.99
2658.22
2769.55
2716.85
2356.63
2583.67
2303.96
2621.81
2603.92
2523.15
2599.37
2516.38
2323.21
2409.61
1943.49
2204.8
2406.26
2227.56
2383.33
1995.33
1428.28
1574.84
1831.69
1968.98
1513.74
1634.6
1455.81
1554.39
1938.68
1384.42
934.961
771.244
835.722
786.154
1365.16
922.758
427.033
402.676
414.92
2686.2
2458.34
2369.09
2634.39
2324.96
1987.5
2289.06
2247.6
2245.11
2233.13
1529.57
1647.65
1523.33
1524.02
1528.39
928.066
1405.61
952.042
1396.87
2338.82
2205.94
2073.65
2191.81
2373.4
2224.02
1680.35
1775.66
1674.64
2267.56
2372.76
2253.15
2121.02
2392.42
2039.72
2184.01
2165.63
2045.29
2248.56
2144.64
2372.36
2085.22
2149.39
2158.62
2093.92
1867.76
1849.67
1690.98
1685.88
1589.06
1466.85
1672.16
1561.93
1622.61
2351.38
2182.54
2102.8
2185.61
2344.08
2036.71
2073.27
2087.81
1907.8
2179.94
1772.64
1920.01
1879.83
1703.71
1716.77
1607.9
1465.89
1651.43
1547.09
1625.52
2195.47
2334.13
2035.63
2053.91
2107.64
1887.53
2171.7
1849.52
1689.21
1543.67
1702.01
1635.29
1687.28
2519.14
2525.23
2503.19
2541.74
2078.01
2356.77
2258.24
1788.56
1792.19
1880.27
1865.39
1850.76
1328.77
1442.18
1421.48
1195.86
1153.64
1458.72
1354.4
1351.6
2539.89
2569.76
2623.63
2502.69
2127.57
2248.91
2058.16
2417.53
2232.41
1847.94
1845.76
1705.52
1343.27
1499.38
1419.58
1204.76
697.432
717.721
564.272
580.831
448.701
380.395
2543.9
2528.62
2525.65
2483.47
2593.29
2194.44
2325.71
2262.35
1760.94
1157.46
1436.99
577.644
447.096
388.167
228.174
740.508
2541.41
2550.57
2621.94
2543.1
2591.88
2588.98
2549.69
2522.33
2600.86
2041.9
2153.87
2524.17
2230.2
1861.03
1867.28
1349.32
1442.3
1333.33
1275.43
1405.49
1192.89
749.596
1852.06
1413.83
2420.6
2367.21
2196.81
2209.21
1853.62
1753.4
1817.52
1649.38
1538.55
1683.33
1567.91
1558.8
1516.77
2748.32
2694.9
2276.63
2296.2
2447.3
2523.47
2490.01
2513.26
2310.16
2437.25
2380.55
2485.75
2322.35
2412.77
2566.19
2498.13
2513.99
2499.51
2294.99
2373.15
2410.39
2470.65
2537.02
2601.91
2562.12
2587.03
2445.57
2303.08
2396.25
2599.53
2544.25
2604.09
2560.37
2318.04
2525.68
2581.65
2489.44
2379.97
2426.81
2377.71
2194.63
2122.86
2450.12
2192.5
2092.25
2090.27
1952.37
1972.09
1964.4
2110.61
2386.76
2247.45
1995.92
1981.73
2093.78
1999.08
2114.03
2339.97
2164.7
1980.15
1894.49
1871.61
1642.99
1686.37
1462.65
1874.4
1642.81
1709.65
1482.92
1801.61
1877.32
1659.59
1476.84
1862.91
1587.04
1659.26
1338.69
1335.41
1156.34
1172.07
1009.85
1024.06
1177.52
1027.9
988.198
848.302
813.525
803.77
877.453
1319.16
1197.88
1020.01
968.855
863.699
865.947
795.819
1276.19
1345.67
1018.5
2776.41
2637.5
2711.2
2566
2626.18
2772.76
2520.59
2910.54
2637.46
2672.86
2654.76
2778.76
2661.64
2759.49
2916.48
2783.93
2635.06
2733.3
2444.94
2535.82
2680.21
2591.1
2342.14
2515.34
2416.05
2554.45
2496.38
2539.01
2498.38
2604.67
2422.48
2286.14
2357.3
2460.2
2593.75
2523.73
2511.16
2448.16
2060.69
2148.95
1973.08
2199.84
2329.24
2065.3
2149.46
2183.15
2213.35
2220.83
2328.52
2082.89
1780.5
1684.55
1609.07
1731.63
1860.17
1541.63
1565.59
1676.48
1787.12
1683.59
1581.83
1473.61
871.139
842.334
818.71
1151.37
1018.83
970.114
857.738
1318.86
1374.39
857.375
825.059
1156.22
866.726
389.085
393.591
249.019
499.918
233.128
394.074
525.967
2805.63
2638.29
2849.56
2722.48
2710.21
2605.19
2632.73
2522.25
2749.09
2849.39
2760.61
2642.25
2610.7
2581.32
2667.15
2670.71
2668.08
2445.73
2609.34
2405.67
2580.81
2606.05
2535.89
2265.45
2598.84
2470.82
2529.84
2503.88
2439.98
2503.15
2504.66
2349.29
2416.23
2344.4
2160.75
2347.82
2203
2075.36
2031.75
1896
2097.23
2366.1
2170.31
2183.57
1816.12
1566.02
1597.39
1756.86
1749.94
1629.23
1719.51
1712.12
1674.7
1582.54
1838.37
1853.05
1020.18
974.128
862.821
1340.51
1208.57
859.994
815.786
1164.01
872.859
1321.83
848.404
242.552
390.006
527.725
2772.73
2539.68
2336.11
2499.04
2331.44
2332.06
2418.66
2594.21
2537.21
2516.44
2344.39
2421.93
2480.19
2446.91
2549.74
2509.78
2533.98
2501.26
2444.7
2301.26
2502.84
2409.33
2380.38
2220.69
1993.31
2137.84
2456.63
2185.68
2085.74
1969.04
1968.19
2104.37
2371.82
1974.2
2097.15
2363.38
1994.61
1629.44
1497.6
1814.11
1872.04
1810.45
1630.18
1720.35
1846.69
1591.4
1859.59
1591.89
1003.97
1342.35
852.943
821.615
888.326
1325
1449.03
1175.49
859.275
884.15
1148.72
1330.54
)
;
    }
}


// ************************************************************************* //
