/*--------------------------------*- C++ -*----------------------------------*\
| =========                 |                                                 |
| \\      /  F ield         | OpenFOAM: The Open Source CFD Toolbox           |
|  \\    /   O peration     | Version:  v1912                                 |
|   \\  /    A nd           | Website:  www.openfoam.com                      |
|    \\/     M anipulation  |                                                 |
\*---------------------------------------------------------------------------*/
FoamFile
{
    version     2.0;
    format      ascii;
    class       volScalarField;
    location    "2.5/sphere";
    object      ddt0((betavSolid*thermo:rho),h);
}
// * * * * * * * * * * * * * * * * * * * * * * * * * * * * * * * * * * * * * //

dimensions      [1 -1 -3 0 0 0 0];


internalField   nonuniform List<scalar> 
1992
(
-6.21957e+06
-6.22248e+06
-6.22228e+06
-6.22872e+06
-6.22041e+06
-6.22036e+06
-6.22237e+06
-6.24206e+06
-6.24614e+06
-6.23428e+06
-6.22214e+06
-6.24607e+06
-6.25003e+06
-6.23865e+06
-6.23264e+06
-6.23849e+06
-6.2293e+06
-6.22221e+06
-6.22845e+06
-6.22039e+06
-6.2222e+06
-6.24604e+06
-6.25e+06
-6.23863e+06
-6.228e+06
-6.24994e+06
-6.25388e+06
-6.24262e+06
-6.22208e+06
-6.22014e+06
-6.23838e+06
-6.24238e+06
-6.23532e+06
-6.22171e+06
-6.2203e+06
-6.23403e+06
-6.23854e+06
-6.2283e+06
-6.22021e+06
-6.23841e+06
-6.24248e+06
-6.23529e+06
-6.22801e+06
-6.23525e+06
-6.22456e+06
-6.22186e+06
-6.22186e+06
-6.22185e+06
-6.22161e+06
-6.22186e+06
-6.21973e+06
-6.22873e+06
-6.22262e+06
-6.23859e+06
-6.23426e+06
-6.24251e+06
-6.23863e+06
-6.2342e+06
-6.24247e+06
-6.23859e+06
-6.22247e+06
-6.2196e+06
-6.2287e+06
-6.22255e+06
-6.2386e+06
-6.23856e+06
-6.23421e+06
-6.2287e+06
-6.22254e+06
-6.22254e+06
-6.21971e+06
-6.2216e+06
-6.22161e+06
-6.22152e+06
-6.22139e+06
-6.22074e+06
-6.22135e+06
-6.22153e+06
-6.2207e+06
-6.22135e+06
-6.22152e+06
-6.22069e+06
-6.22163e+06
-6.22383e+06
-6.22032e+06
-6.22032e+06
-6.22812e+06
-6.23524e+06
-6.22035e+06
-6.22037e+06
-6.23527e+06
-6.22833e+06
-6.22458e+06
-6.22031e+06
-6.22809e+06
-6.22023e+06
-6.23521e+06
-6.22234e+06
-6.22229e+06
-6.22834e+06
-6.23407e+06
-6.23849e+06
-6.23846e+06
-6.24235e+06
-6.22168e+06
-6.22497e+06
-6.22411e+06
-6.23105e+06
-6.22909e+06
-6.22745e+06
-6.2319e+06
-6.22041e+06
-6.22832e+06
-6.23533e+06
-6.2204e+06
-6.2203e+06
-6.22023e+06
-6.23521e+06
-6.22812e+06
-6.22834e+06
-6.21959e+06
-6.22236e+06
-6.23844e+06
-6.24233e+06
-6.23409e+06
-6.23846e+06
-6.22259e+06
-6.22248e+06
-6.21966e+06
-6.24249e+06
-6.23864e+06
-6.23856e+06
-6.23424e+06
-6.23533e+06
-6.2204e+06
-6.22834e+06
-6.22376e+06
-6.22032e+06
-6.22802e+06
-6.23523e+06
-6.22032e+06
-6.23526e+06
-6.22831e+06
-6.22035e+06
-6.22453e+06
-6.22158e+06
-6.22173e+06
-6.22805e+06
-6.22024e+06
-6.22021e+06
-6.23518e+06
-6.2223e+06
-6.23266e+06
-6.2384e+06
-6.22221e+06
-6.22821e+06
-6.23838e+06
-6.24225e+06
-6.21969e+06
-6.23851e+06
-6.23426e+06
-6.22844e+06
-6.22254e+06
-6.24239e+06
-6.2386e+06
-6.22932e+06
-6.22037e+06
-6.23533e+06
-6.22037e+06
-6.22142e+06
-6.23266e+06
-6.22216e+06
-6.23837e+06
-6.22219e+06
-6.23837e+06
-6.22801e+06
-6.24218e+06
-6.2197e+06
-6.23866e+06
-6.22259e+06
-6.23865e+06
-6.22257e+06
-6.24262e+06
-6.22904e+06
-6.22208e+06
-6.22141e+06
-6.23838e+06
-6.23268e+06
-6.228e+06
-6.24218e+06
-6.22214e+06
-6.23837e+06
-6.22255e+06
-6.23431e+06
-6.21969e+06
-6.24262e+06
-6.22904e+06
-6.23866e+06
-6.22258e+06
-6.22209e+06
-6.22807e+06
-6.22016e+06
-6.23519e+06
-6.22024e+06
-6.2384e+06
-6.2223e+06
-6.23838e+06
-6.24224e+06
-6.22222e+06
-6.22821e+06
-6.23424e+06
-6.22236e+06
-6.21966e+06
-6.24238e+06
-6.23857e+06
-6.22844e+06
-6.22255e+06
-6.23532e+06
-6.22039e+06
-6.22037e+06
-6.2216e+06
-6.22172e+06
-6.22159e+06
-6.22172e+06
-6.22023e+06
-6.22017e+06
-6.23517e+06
-6.22799e+06
-6.22823e+06
-6.23836e+06
-6.24224e+06
-6.22227e+06
-6.2326e+06
-6.23839e+06
-6.22254e+06
-6.24238e+06
-6.23858e+06
-6.22231e+06
-6.21959e+06
-6.23849e+06
-6.23422e+06
-6.23532e+06
-6.22039e+06
-6.22928e+06
-6.22143e+06
-6.23835e+06
-6.22801e+06
-6.24218e+06
-6.23263e+06
-6.2222e+06
-6.23838e+06
-6.22261e+06
-6.24261e+06
-6.22904e+06
-6.23424e+06
-6.21968e+06
-6.23863e+06
-6.22256e+06
-6.22208e+06
-6.22139e+06
-6.24217e+06
-6.22214e+06
-6.23835e+06
-6.22218e+06
-6.23837e+06
-6.23261e+06
-6.22904e+06
-6.23866e+06
-6.22258e+06
-6.23863e+06
-6.22259e+06
-6.23428e+06
-6.21962e+06
-6.23517e+06
-6.22025e+06
-6.22796e+06
-6.24224e+06
-6.22221e+06
-6.22818e+06
-6.2326e+06
-6.2384e+06
-6.22228e+06
-6.23858e+06
-6.22841e+06
-6.22253e+06
-6.2385e+06
-6.23423e+06
-6.22235e+06
-6.21963e+06
-6.22039e+06
-6.22036e+06
-6.22932e+06
-6.22156e+06
-6.22371e+06
-6.22027e+06
-6.22799e+06
-6.2352e+06
-6.22027e+06
-6.23523e+06
-6.2283e+06
-6.22035e+06
-6.22454e+06
-6.22809e+06
-6.22022e+06
-6.23519e+06
-6.22029e+06
-6.23844e+06
-6.23841e+06
-6.24231e+06
-6.21952e+06
-6.22235e+06
-6.22227e+06
-6.22833e+06
-6.23529e+06
-6.22035e+06
-6.22038e+06
-6.23518e+06
-6.22803e+06
-6.22028e+06
-6.24231e+06
-6.23403e+06
-6.23846e+06
-6.22226e+06
-6.22831e+06
-6.21963e+06
-6.22237e+06
-6.2204e+06
-6.22833e+06
-6.22036e+06
-6.22371e+06
-6.23523e+06
-6.22028e+06
-6.22034e+06
-6.2283e+06
-6.22033e+06
-6.22038e+06
-6.21999e+06
-6.21944e+06
-6.21932e+06
-6.21998e+06
-6.21947e+06
-6.22019e+06
-6.21952e+06
-6.22015e+06
-6.21947e+06
-6.22016e+06
-6.21947e+06
-6.22007e+06
-6.21952e+06
-6.2194e+06
-6.21941e+06
-6.22074e+06
-6.22064e+06
-6.21952e+06
-6.22151e+06
-6.22134e+06
-6.2207e+06
-6.22016e+06
-6.21944e+06
-6.22e+06
-6.21942e+06
-6.2207e+06
-6.22068e+06
-6.22261e+06
-6.22917e+06
-6.22302e+06
-6.2256e+06
-6.22563e+06
-6.2217e+06
-6.2252e+06
-6.22415e+06
-6.23109e+06
-6.22922e+06
-6.22745e+06
-6.23208e+06
-6.22165e+06
-6.22493e+06
-6.22404e+06
-6.23097e+06
-6.22905e+06
-6.2274e+06
-6.23184e+06
-6.22065e+06
-6.22065e+06
-6.22256e+06
-6.22908e+06
-6.22293e+06
-6.22556e+06
-6.22552e+06
-6.22164e+06
-6.22511e+06
-6.22411e+06
-6.23102e+06
-6.22914e+06
-6.22741e+06
-6.232e+06
-6.22507e+06
-6.2217e+06
-6.22411e+06
-6.23103e+06
-6.22914e+06
-6.232e+06
-6.22747e+06
-6.22503e+06
-6.22169e+06
-6.22411e+06
-6.23101e+06
-6.22907e+06
-6.23187e+06
-6.22743e+06
-6.22071e+06
-6.22072e+06
-6.22258e+06
-6.22912e+06
-6.223e+06
-6.22565e+06
-6.22562e+06
-6.21948e+06
-6.21929e+06
-6.22075e+06
-6.22062e+06
-6.21951e+06
-6.22079e+06
-6.22062e+06
-6.21954e+06
-6.21952e+06
-6.2205e+06
-6.22051e+06
-6.22221e+06
-6.22877e+06
-6.22284e+06
-6.22543e+06
-6.22544e+06
-6.22021e+06
-6.22204e+06
-6.21974e+06
-6.22422e+06
-6.2305e+06
-6.22146e+06
-6.22889e+06
-6.22323e+06
-6.23151e+06
-6.22719e+06
-6.21975e+06
-6.22496e+06
-6.22065e+06
-6.22097e+06
-6.2239e+06
-6.2197e+06
-6.22019e+06
-6.22195e+06
-6.21974e+06
-6.22064e+06
-6.22485e+06
-6.22388e+06
-6.22093e+06
-6.22741e+06
-6.21985e+06
-6.22198e+06
-6.21987e+06
-6.22457e+06
-6.22156e+06
-6.22461e+06
-6.23068e+06
-6.22155e+06
-6.22893e+06
-6.22432e+06
-6.22733e+06
-6.22341e+06
-6.23157e+06
-6.21974e+06
-6.22016e+06
-6.22204e+06
-6.22743e+06
-6.22196e+06
-6.21981e+06
-6.21978e+06
-6.2245e+06
-6.2246e+06
-6.22155e+06
-6.2302e+06
-6.22874e+06
-6.22122e+06
-6.22411e+06
-6.22695e+06
-6.23133e+06
-6.22297e+06
-6.22019e+06
-6.21952e+06
-6.21961e+06
-6.21981e+06
-6.2217e+06
-6.22291e+06
-6.22427e+06
-6.22421e+06
-6.23223e+06
-6.22087e+06
-6.22723e+06
-6.22717e+06
-6.21953e+06
-6.23018e+06
-6.22419e+06
-6.22875e+06
-6.22128e+06
-6.23137e+06
-6.22303e+06
-6.22693e+06
-6.23267e+06
-6.22765e+06
-6.23466e+06
-6.22657e+06
-6.23381e+06
-6.22562e+06
-6.23352e+06
-6.22063e+06
-6.2249e+06
-6.21968e+06
-6.22094e+06
-6.22388e+06
-6.2302e+06
-6.22876e+06
-6.22415e+06
-6.2213e+06
-6.23137e+06
-6.22693e+06
-6.22302e+06
-6.22025e+06
-6.21959e+06
-6.23208e+06
-6.23428e+06
-6.22622e+06
-6.22622e+06
-6.2332e+06
-6.23319e+06
-6.22465e+06
-6.22163e+06
-6.2216e+06
-6.22079e+06
-6.22048e+06
-6.2247e+06
-6.21951e+06
-6.22082e+06
-6.22362e+06
-6.21935e+06
-6.22136e+06
-6.22077e+06
-6.2202e+06
-6.21963e+06
-6.21983e+06
-6.22168e+06
-6.22064e+06
-6.21972e+06
-6.22477e+06
-6.22382e+06
-6.2209e+06
-6.21965e+06
-6.21989e+06
-6.22173e+06
-6.23206e+06
-6.22368e+06
-6.22712e+06
-6.22283e+06
-6.22378e+06
-6.22711e+06
-6.22017e+06
-6.22054e+06
-6.22468e+06
-6.21964e+06
-6.22373e+06
-6.22086e+06
-6.22274e+06
-6.23201e+06
-6.2234e+06
-6.22353e+06
-6.22688e+06
-6.22704e+06
-6.22004e+06
-6.2204e+06
-6.22115e+06
-6.22119e+06
-6.21972e+06
-6.21941e+06
-6.22064e+06
-6.22075e+06
-6.21952e+06
-6.21945e+06
-6.22028e+06
-6.22022e+06
-6.2202e+06
-6.21975e+06
-6.22014e+06
-6.22199e+06
-6.21972e+06
-6.2248e+06
-6.22063e+06
-6.22093e+06
-6.22381e+06
-6.21964e+06
-6.21993e+06
-6.22173e+06
-6.22058e+06
-6.21965e+06
-6.22477e+06
-6.22093e+06
-6.22368e+06
-6.22275e+06
-6.22359e+06
-6.22343e+06
-6.23204e+06
-6.22011e+06
-6.22706e+06
-6.22689e+06
-6.2197e+06
-6.22485e+06
-6.22389e+06
-6.22064e+06
-6.22093e+06
-6.22024e+06
-6.22206e+06
-6.21976e+06
-6.22067e+06
-6.21979e+06
-6.22483e+06
-6.22095e+06
-6.22388e+06
-6.21979e+06
-6.22023e+06
-6.22203e+06
-6.22372e+06
-6.23208e+06
-6.22714e+06
-6.22288e+06
-6.22383e+06
-6.22021e+06
-6.22715e+06
-6.22038e+06
-6.22114e+06
-6.22116e+06
-6.21975e+06
-6.21972e+06
-6.22014e+06
-6.22197e+06
-6.21967e+06
-6.22059e+06
-6.22484e+06
-6.22382e+06
-6.22089e+06
-6.21969e+06
-6.21987e+06
-6.22169e+06
-6.22275e+06
-6.22356e+06
-6.22343e+06
-6.23203e+06
-6.22005e+06
-6.22703e+06
-6.22688e+06
-6.22056e+06
-6.21958e+06
-6.22476e+06
-6.22089e+06
-6.22369e+06
-6.22435e+06
-6.22152e+06
-6.22897e+06
-6.22327e+06
-6.23165e+06
-6.23056e+06
-6.22724e+06
-6.22148e+06
-6.22422e+06
-6.22318e+06
-6.23054e+06
-6.22892e+06
-6.22725e+06
-6.23153e+06
-6.21973e+06
-6.22495e+06
-6.22389e+06
-6.22064e+06
-6.22096e+06
-6.2237e+06
-6.23208e+06
-6.22709e+06
-6.22285e+06
-6.22376e+06
-6.22016e+06
-6.22715e+06
-6.21975e+06
-6.22021e+06
-6.22206e+06
-6.22063e+06
-6.21975e+06
-6.22488e+06
-6.22095e+06
-6.22389e+06
-6.22057e+06
-6.21965e+06
-6.22483e+06
-6.22089e+06
-6.22379e+06
-6.21968e+06
-6.22016e+06
-6.22194e+06
-6.22055e+06
-6.22472e+06
-6.21957e+06
-6.22088e+06
-6.22365e+06
-6.2197e+06
-6.21979e+06
-6.22164e+06
-6.22272e+06
-6.22358e+06
-6.23204e+06
-6.22344e+06
-6.22701e+06
-6.22001e+06
-6.22688e+06
-6.22639e+06
-6.22656e+06
-6.23463e+06
-6.23236e+06
-6.22487e+06
-6.23342e+06
-6.23354e+06
-6.22874e+06
-6.22052e+06
-6.2205e+06
-6.22284e+06
-6.22223e+06
-6.22537e+06
-6.22542e+06
-6.22441e+06
-6.23054e+06
-6.22149e+06
-6.22897e+06
-6.22324e+06
-6.23164e+06
-6.22722e+06
-6.22516e+06
-6.22169e+06
-6.22923e+06
-6.22411e+06
-6.23207e+06
-6.23107e+06
-6.22752e+06
-6.22501e+06
-6.22162e+06
-6.22408e+06
-6.23101e+06
-6.22908e+06
-6.23187e+06
-6.22744e+06
-6.22069e+06
-6.22065e+06
-6.22256e+06
-6.22914e+06
-6.223e+06
-6.22564e+06
-6.22561e+06
-6.21977e+06
-6.22023e+06
-6.22205e+06
-6.22066e+06
-6.22488e+06
-6.21978e+06
-6.22096e+06
-6.22389e+06
-6.22287e+06
-6.22373e+06
-6.2321e+06
-6.22385e+06
-6.22717e+06
-6.2202e+06
-6.22717e+06
-6.21977e+06
-6.22025e+06
-6.22206e+06
-6.2203e+06
-6.22024e+06
-6.22021e+06
-6.22061e+06
-6.21967e+06
-6.22484e+06
-6.22382e+06
-6.22092e+06
-6.22272e+06
-6.22358e+06
-6.23198e+06
-6.22343e+06
-6.22697e+06
-6.21999e+06
-6.22685e+06
-6.21971e+06
-6.2199e+06
-6.22172e+06
-6.2206e+06
-6.22477e+06
-6.21967e+06
-6.22092e+06
-6.22372e+06
-6.2198e+06
-6.22022e+06
-6.22204e+06
-6.22285e+06
-6.22372e+06
-6.23206e+06
-6.22381e+06
-6.22715e+06
-6.22015e+06
-6.2271e+06
-6.22064e+06
-6.22482e+06
-6.21972e+06
-6.22093e+06
-6.22387e+06
-6.21975e+06
-6.22022e+06
-6.22201e+06
-6.2204e+06
-6.22116e+06
-6.2212e+06
-6.21973e+06
-6.21946e+06
-6.21932e+06
-6.22068e+06
-6.22059e+06
-6.21947e+06
-6.21952e+06
-6.2208e+06
-6.2214e+06
-6.22023e+06
-6.22011e+06
-6.21947e+06
-6.21962e+06
-6.21986e+06
-6.22169e+06
-6.21963e+06
-6.21989e+06
-6.22171e+06
-6.22268e+06
-6.22341e+06
-6.22343e+06
-6.23198e+06
-6.22003e+06
-6.22686e+06
-6.22686e+06
-6.22056e+06
-6.21964e+06
-6.22472e+06
-6.22371e+06
-6.22088e+06
-6.22055e+06
-6.21962e+06
-6.2247e+06
-6.22369e+06
-6.22086e+06
-6.23022e+06
-6.22137e+06
-6.22883e+06
-6.22425e+06
-6.22698e+06
-6.22307e+06
-6.23146e+06
-6.23022e+06
-6.22128e+06
-6.22414e+06
-6.22877e+06
-6.22302e+06
-6.22706e+06
-6.23137e+06
-6.23218e+06
-6.22637e+06
-6.22629e+06
-6.23449e+06
-6.22473e+06
-6.23337e+06
-6.23329e+06
-6.22896e+06
-6.22062e+06
-6.22298e+06
-6.22066e+06
-6.22552e+06
-6.2224e+06
-6.22555e+06
-6.23266e+06
-6.22658e+06
-6.22764e+06
-6.23466e+06
-6.22559e+06
-6.23352e+06
-6.23381e+06
-6.23089e+06
-6.22162e+06
-6.22499e+06
-6.22913e+06
-6.22387e+06
-6.22744e+06
-6.23192e+06
-6.22296e+06
-6.22423e+06
-6.22425e+06
-6.23225e+06
-6.22086e+06
-6.22719e+06
-6.22725e+06
-6.21982e+06
-6.22017e+06
-6.22206e+06
-6.22063e+06
-6.21973e+06
-6.22485e+06
-6.22388e+06
-6.22092e+06
-6.22062e+06
-6.21972e+06
-6.22486e+06
-6.22386e+06
-6.22091e+06
-6.21921e+06
-6.21932e+06
-6.22051e+06
-6.22056e+06
-6.21942e+06
-6.23018e+06
-6.22129e+06
-6.22875e+06
-6.22409e+06
-6.22695e+06
-6.223e+06
-6.23132e+06
-6.2302e+06
-6.22128e+06
-6.22876e+06
-6.22413e+06
-6.227e+06
-6.22301e+06
-6.23136e+06
-6.23211e+06
-6.22619e+06
-6.22626e+06
-6.23429e+06
-6.22469e+06
-6.23319e+06
-6.23323e+06
-6.22916e+06
-6.223e+06
-6.22069e+06
-6.2207e+06
-6.22565e+06
-6.22564e+06
-6.22259e+06
-6.2311e+06
-6.22171e+06
-6.22918e+06
-6.22521e+06
-6.22749e+06
-6.22416e+06
-6.23209e+06
-6.23108e+06
-6.22168e+06
-6.22917e+06
-6.22516e+06
-6.22747e+06
-6.22409e+06
-6.23207e+06
-6.2331e+06
-6.22804e+06
-6.22803e+06
-6.23519e+06
-6.22635e+06
-6.23416e+06
-6.23415e+06
-6.2202e+06
-6.21949e+06
-6.22021e+06
-6.21948e+06
-6.22161e+06
-6.22162e+06
-6.22078e+06
-6.21926e+06
-6.22054e+06
-6.22049e+06
-6.21946e+06
-6.21914e+06
-6.2275e+06
-6.21979e+06
-6.22192e+06
-6.21979e+06
-6.22452e+06
-6.22151e+06
-6.22461e+06
-6.23212e+06
-6.22627e+06
-6.23428e+06
-6.2262e+06
-6.23321e+06
-6.22471e+06
-6.2332e+06
-6.2302e+06
-6.22124e+06
-6.22411e+06
-6.22877e+06
-6.22297e+06
-6.22701e+06
-6.23135e+06
-6.23109e+06
-6.22918e+06
-6.22167e+06
-6.22513e+06
-6.22748e+06
-6.23208e+06
-6.22413e+06
-6.22916e+06
-6.2207e+06
-6.22301e+06
-6.22071e+06
-6.22562e+06
-6.22261e+06
-6.22561e+06
-6.23311e+06
-6.22804e+06
-6.23519e+06
-6.22805e+06
-6.23415e+06
-6.22637e+06
-6.23416e+06
-6.23108e+06
-6.22167e+06
-6.22517e+06
-6.22918e+06
-6.22412e+06
-6.22745e+06
-6.23209e+06
-6.22163e+06
-6.22163e+06
-6.22084e+06
-6.22022e+06
-6.21953e+06
-6.22269e+06
-6.2234e+06
-6.22349e+06
-6.23199e+06
-6.22004e+06
-6.22686e+06
-6.22689e+06
-6.21967e+06
-6.2199e+06
-6.22172e+06
-6.22055e+06
-6.21958e+06
-6.22474e+06
-6.22373e+06
-6.22084e+06
-6.22057e+06
-6.21961e+06
-6.22473e+06
-6.22369e+06
-6.22087e+06
-6.22746e+06
-6.22197e+06
-6.21983e+06
-6.21983e+06
-6.22459e+06
-6.22457e+06
-6.22158e+06
-6.23024e+06
-6.22885e+06
-6.22138e+06
-6.2243e+06
-6.22703e+06
-6.23147e+06
-6.2231e+06
-6.23022e+06
-6.22132e+06
-6.22878e+06
-6.22415e+06
-6.22701e+06
-6.22305e+06
-6.23138e+06
-6.23218e+06
-6.22646e+06
-6.23446e+06
-6.22634e+06
-6.23337e+06
-6.22484e+06
-6.23328e+06
-6.23065e+06
-6.22892e+06
-6.22152e+06
-6.22439e+06
-6.22725e+06
-6.23158e+06
-6.22342e+06
-6.22891e+06
-6.22295e+06
-6.22058e+06
-6.22063e+06
-6.22546e+06
-6.22552e+06
-6.22236e+06
-6.23265e+06
-6.2266e+06
-6.23464e+06
-6.22765e+06
-6.23352e+06
-6.22557e+06
-6.23379e+06
-6.23086e+06
-6.2216e+06
-6.22912e+06
-6.22506e+06
-6.22735e+06
-6.22389e+06
-6.23191e+06
-6.21979e+06
-6.22019e+06
-6.22205e+06
-6.21972e+06
-6.22018e+06
-6.22198e+06
-6.22062e+06
-6.21976e+06
-6.22485e+06
-6.22384e+06
-6.22091e+06
-6.22059e+06
-6.21968e+06
-6.22488e+06
-6.22384e+06
-6.2209e+06
-6.21951e+06
-6.21939e+06
-6.22076e+06
-6.22066e+06
-6.21958e+06
-6.22082e+06
-6.22138e+06
-6.2202e+06
-6.2201e+06
-6.21946e+06
-6.21934e+06
-6.22062e+06
-6.2207e+06
-6.2195e+06
-6.21936e+06
-6.22139e+06
-6.22079e+06
-6.22022e+06
-6.22009e+06
-6.21943e+06
-6.2194e+06
-6.22053e+06
-6.2247e+06
-6.21957e+06
-6.22086e+06
-6.22366e+06
-6.22051e+06
-6.2247e+06
-6.21948e+06
-6.22084e+06
-6.22365e+06
-6.21967e+06
-6.21991e+06
-6.22166e+06
-6.21963e+06
-6.21992e+06
-6.22168e+06
-6.22267e+06
-6.23194e+06
-6.22335e+06
-6.22342e+06
-6.22684e+06
-6.22683e+06
-6.21995e+06
-6.23217e+06
-6.22635e+06
-6.23449e+06
-6.22641e+06
-6.23329e+06
-6.22479e+06
-6.23337e+06
-6.22743e+06
-6.21978e+06
-6.21982e+06
-6.22193e+06
-6.22155e+06
-6.22453e+06
-6.22456e+06
-6.23022e+06
-6.22422e+06
-6.22136e+06
-6.22884e+06
-6.22305e+06
-6.23145e+06
-6.22702e+06
-6.23086e+06
-6.225e+06
-6.22913e+06
-6.22157e+06
-6.23191e+06
-6.22385e+06
-6.22733e+06
-6.23068e+06
-6.22433e+06
-6.22152e+06
-6.2289e+06
-6.22339e+06
-6.23157e+06
-6.22729e+06
-6.22893e+06
-6.22059e+06
-6.22059e+06
-6.22294e+06
-6.22235e+06
-6.22553e+06
-6.2255e+06
-6.22062e+06
-6.22486e+06
-6.21976e+06
-6.22092e+06
-6.22386e+06
-6.21976e+06
-6.22011e+06
-6.22201e+06
-6.22291e+06
-6.2322e+06
-6.22422e+06
-6.22418e+06
-6.22718e+06
-6.22716e+06
-6.22084e+06
-6.21975e+06
-6.22012e+06
-6.222e+06
-6.21929e+06
-6.22057e+06
-6.22055e+06
-6.21945e+06
-6.21929e+06
-6.23215e+06
-6.22628e+06
-6.23429e+06
-6.22624e+06
-6.23324e+06
-6.22476e+06
-6.23321e+06
-6.22742e+06
-6.21975e+06
-6.2219e+06
-6.21987e+06
-6.22454e+06
-6.22153e+06
-6.2246e+06
-6.23022e+06
-6.2241e+06
-6.22135e+06
-6.22878e+06
-6.22304e+06
-6.23135e+06
-6.22705e+06
-6.23107e+06
-6.22917e+06
-6.22521e+06
-6.22171e+06
-6.23208e+06
-6.22746e+06
-6.22416e+06
-6.2331e+06
-6.22805e+06
-6.23518e+06
-6.22804e+06
-6.23415e+06
-6.22639e+06
-6.23415e+06
-6.22913e+06
-6.22069e+06
-6.22294e+06
-6.22067e+06
-6.22562e+06
-6.2226e+06
-6.22559e+06
-6.23106e+06
-6.22516e+06
-6.22163e+06
-6.22916e+06
-6.22412e+06
-6.23206e+06
-6.22743e+06
-6.22163e+06
-6.22161e+06
-6.22081e+06
-6.22019e+06
-6.21952e+06
-6.22049e+06
-6.22051e+06
-6.2194e+06
-6.21915e+06
-6.2193e+06
-6.23016e+06
-6.22405e+06
-6.22875e+06
-6.22128e+06
-6.23133e+06
-6.22295e+06
-6.22693e+06
-6.23017e+06
-6.22411e+06
-6.22875e+06
-6.22127e+06
-6.23133e+06
-6.22297e+06
-6.22707e+06
-6.22736e+06
-6.21976e+06
-6.21984e+06
-6.22189e+06
-6.22146e+06
-6.22451e+06
-6.22458e+06
-6.23311e+06
-6.23519e+06
-6.22805e+06
-6.22804e+06
-6.23416e+06
-6.23415e+06
-6.22637e+06
-6.23109e+06
-6.2252e+06
-6.22918e+06
-6.22168e+06
-6.23209e+06
-6.22414e+06
-6.22743e+06
-6.23108e+06
-6.22519e+06
-6.22917e+06
-6.22169e+06
-6.23208e+06
-6.22416e+06
-6.22743e+06
-6.22915e+06
-6.22068e+06
-6.22068e+06
-6.223e+06
-6.22259e+06
-6.22563e+06
-6.2256e+06
-6.22023e+06
-6.21954e+06
-6.2202e+06
-6.21954e+06
-6.22053e+06
-6.22472e+06
-6.21965e+06
-6.22086e+06
-6.22373e+06
-6.2196e+06
-6.21986e+06
-6.22164e+06
-6.22264e+06
-6.23193e+06
-6.22336e+06
-6.22341e+06
-6.22681e+06
-6.22685e+06
-6.21995e+06
-6.21958e+06
-6.21992e+06
-6.22171e+06
-6.23025e+06
-6.22878e+06
-6.22412e+06
-6.22132e+06
-6.23138e+06
-6.22706e+06
-6.22302e+06
-6.23217e+06
-6.23445e+06
-6.22632e+06
-6.22637e+06
-6.23328e+06
-6.23333e+06
-6.22474e+06
-6.22748e+06
-6.21986e+06
-6.22197e+06
-6.2198e+06
-6.22463e+06
-6.22159e+06
-6.22453e+06
-6.23022e+06
-6.22422e+06
-6.22883e+06
-6.22131e+06
-6.23143e+06
-6.22303e+06
-6.22696e+06
-6.23262e+06
-6.23462e+06
-6.22762e+06
-6.22652e+06
-6.23378e+06
-6.23348e+06
-6.22551e+06
-6.23086e+06
-6.22911e+06
-6.22503e+06
-6.22162e+06
-6.2319e+06
-6.22739e+06
-6.22388e+06
-6.23063e+06
-6.22431e+06
-6.22889e+06
-6.22153e+06
-6.23154e+06
-6.22334e+06
-6.22725e+06
-6.22893e+06
-6.22064e+06
-6.22293e+06
-6.2206e+06
-6.22552e+06
-6.22239e+06
-6.22548e+06
-6.22062e+06
-6.22486e+06
-6.21974e+06
-6.22092e+06
-6.22383e+06
-6.22061e+06
-6.22485e+06
-6.21973e+06
-6.22091e+06
-6.22385e+06
-6.22292e+06
-6.23224e+06
-6.22424e+06
-6.2242e+06
-6.22725e+06
-6.22716e+06
-6.22086e+06
-6.21977e+06
-6.22017e+06
-6.22204e+06
-6.21972e+06
-6.22011e+06
-6.22199e+06
-6.22061e+06
-6.22068e+06
-6.21948e+06
-6.21943e+06
-6.22008e+06
-6.21944e+06
-6.21944e+06
-6.22011e+06
-6.22017e+06
-6.22029e+06
-6.22055e+06
-6.21964e+06
-6.22476e+06
-6.2237e+06
-6.22089e+06
-6.22268e+06
-6.22338e+06
-6.23197e+06
-6.22354e+06
-6.22682e+06
-6.21998e+06
-6.227e+06
-6.21971e+06
-6.22014e+06
-6.22193e+06
-6.22481e+06
-6.21958e+06
-6.22056e+06
-6.22088e+06
-6.22378e+06
-6.21984e+06
-6.22021e+06
-6.22204e+06
-6.23204e+06
-6.22369e+06
-6.22706e+06
-6.22284e+06
-6.22379e+06
-6.22716e+06
-6.22017e+06
-6.21973e+06
-6.22483e+06
-6.22385e+06
-6.22062e+06
-6.22091e+06
-6.22018e+06
-6.222e+06
-6.21972e+06
-6.22037e+06
-6.22112e+06
-6.22116e+06
-6.21969e+06
-6.22272e+06
-6.22345e+06
-6.23201e+06
-6.22358e+06
-6.22688e+06
-6.22007e+06
-6.22699e+06
-6.22054e+06
-6.21962e+06
-6.22472e+06
-6.22371e+06
-6.22086e+06
-6.21968e+06
-6.22009e+06
-6.22191e+06
-6.21967e+06
-6.22057e+06
-6.22477e+06
-6.22379e+06
-6.22089e+06
-6.2205e+06
-6.22047e+06
-6.22217e+06
-6.22869e+06
-6.22282e+06
-6.22534e+06
-6.22536e+06
-6.22437e+06
-6.22895e+06
-6.22145e+06
-6.23162e+06
-6.2232e+06
-6.2305e+06
-6.22717e+06
-6.22144e+06
-6.22422e+06
-6.22316e+06
-6.23046e+06
-6.22885e+06
-6.22717e+06
-6.23146e+06
-6.21969e+06
-6.22015e+06
-6.22201e+06
-6.22058e+06
-6.2197e+06
-6.22485e+06
-6.22386e+06
-6.22091e+06
-6.22017e+06
-6.22199e+06
-6.21973e+06
-6.2197e+06
-6.22484e+06
-6.22383e+06
-6.22059e+06
-6.22091e+06
-6.21961e+06
-6.21991e+06
-6.22168e+06
-6.22269e+06
-6.23198e+06
-6.22341e+06
-6.22352e+06
-6.22683e+06
-6.22698e+06
-6.21999e+06
-6.21968e+06
-6.22058e+06
-6.22475e+06
-6.22088e+06
-6.22377e+06
-6.21967e+06
-6.22009e+06
-6.22193e+06
-6.22419e+06
-6.22145e+06
-6.22319e+06
-6.23044e+06
-6.22882e+06
-6.23143e+06
-6.22714e+06
-6.22051e+06
-6.22052e+06
-6.22221e+06
-6.22871e+06
-6.22285e+06
-6.22538e+06
-6.22538e+06
-6.22438e+06
-6.22894e+06
-6.22146e+06
-6.23161e+06
-6.2232e+06
-6.23049e+06
-6.22719e+06
-6.22062e+06
-6.22489e+06
-6.21977e+06
-6.22388e+06
-6.22092e+06
-6.23207e+06
-6.22366e+06
-6.22707e+06
-6.22286e+06
-6.22378e+06
-6.22715e+06
-6.22022e+06
-6.21975e+06
-6.22022e+06
-6.22204e+06
-6.21975e+06
-6.22482e+06
-6.22384e+06
-6.22061e+06
-6.22091e+06
-6.2202e+06
-6.22202e+06
-6.21974e+06
-6.22013e+06
-6.22009e+06
-6.22026e+06
-6.21968e+06
-6.2199e+06
-6.22171e+06
-6.22059e+06
-6.22475e+06
-6.21959e+06
-6.22367e+06
-6.22093e+06
-6.21972e+06
-6.22015e+06
-6.22197e+06
-6.2248e+06
-6.21971e+06
-6.22063e+06
-6.22381e+06
-6.22095e+06
-6.23205e+06
-6.2237e+06
-6.22713e+06
-6.22287e+06
-6.22381e+06
-6.22713e+06
-6.2202e+06
-6.22066e+06
-6.22479e+06
-6.21975e+06
-6.22383e+06
-6.22096e+06
-6.21979e+06
-6.22022e+06
-6.22203e+06
-6.21976e+06
-6.22483e+06
-6.22385e+06
-6.22066e+06
-6.22096e+06
-6.22026e+06
-6.22205e+06
-6.21982e+06
-6.22792e+06
-6.22768e+06
-6.23488e+06
-6.22624e+06
-6.23403e+06
-6.23298e+06
-6.23385e+06
-6.2461e+06
-6.24608e+06
-6.24999e+06
-6.24605e+06
-6.24996e+06
-6.24994e+06
-6.25385e+06
-6.24216e+06
-6.25003e+06
-6.24619e+06
-6.25001e+06
-6.24618e+06
-6.25388e+06
-6.25007e+06
-6.24999e+06
-6.24206e+06
-6.24608e+06
-6.24994e+06
-6.25385e+06
-6.24605e+06
-6.24996e+06
-6.24619e+06
-6.24613e+06
-6.24216e+06
-6.25388e+06
-6.25007e+06
-6.25001e+06
-6.24618e+06
-6.23386e+06
-6.23575e+06
-6.2273e+06
-6.23574e+06
-6.23099e+06
-6.23846e+06
-6.231e+06
-6.24996e+06
-6.24994e+06
-6.25385e+06
-6.24203e+06
-6.24607e+06
-6.24606e+06
-6.24998e+06
-6.24617e+06
-6.25387e+06
-6.25007e+06
-6.24612e+06
-6.24213e+06
-6.25002e+06
-6.24617e+06
-6.25385e+06
-6.24604e+06
-6.24996e+06
-6.24606e+06
-6.24998e+06
-6.24204e+06
-6.24608e+06
-6.25007e+06
-6.25001e+06
-6.24619e+06
-6.25002e+06
-6.24618e+06
-6.24613e+06
-6.24215e+06
-6.2248e+06
-6.23076e+06
-6.23074e+06
-6.23434e+06
-6.22537e+06
-6.22983e+06
-6.22981e+06
-6.23426e+06
-6.23073e+06
-6.22976e+06
-6.22477e+06
-6.23075e+06
-6.22978e+06
-6.22539e+06
-6.23424e+06
-6.23073e+06
-6.22978e+06
-6.2248e+06
-6.23071e+06
-6.22977e+06
-6.22543e+06
-6.2277e+06
-6.22794e+06
-6.22631e+06
-6.23303e+06
-6.2349e+06
-6.23388e+06
-6.23405e+06
-6.22767e+06
-6.2279e+06
-6.22625e+06
-6.23296e+06
-6.23486e+06
-6.23384e+06
-6.234e+06
-6.2279e+06
-6.22771e+06
-6.22629e+06
-6.23298e+06
-6.23486e+06
-6.234e+06
-6.23384e+06
-6.23071e+06
-6.22475e+06
-6.23068e+06
-6.23419e+06
-6.22539e+06
-6.22973e+06
-6.22965e+06
-6.23074e+06
-6.23426e+06
-6.2298e+06
-6.2248e+06
-6.23072e+06
-6.22539e+06
-6.22978e+06
-6.22473e+06
-6.23069e+06
-6.23419e+06
-6.23066e+06
-6.22973e+06
-6.22534e+06
-6.22965e+06
-6.22657e+06
-6.22642e+06
-6.23464e+06
-6.22493e+06
-6.23357e+06
-6.23241e+06
-6.23344e+06
-6.23079e+06
-6.23429e+06
-6.2298e+06
-6.2248e+06
-6.23078e+06
-6.22544e+06
-6.22981e+06
-6.22471e+06
-6.23068e+06
-6.23064e+06
-6.23418e+06
-6.22533e+06
-6.22971e+06
-6.22964e+06
-6.2308e+06
-6.22483e+06
-6.23078e+06
-6.23431e+06
-6.22543e+06
-6.22983e+06
-6.22982e+06
-6.22474e+06
-6.23071e+06
-6.23417e+06
-6.23068e+06
-6.22971e+06
-6.22538e+06
-6.22965e+06
-6.22482e+06
-6.23074e+06
-6.23425e+06
-6.23071e+06
-6.2298e+06
-6.22541e+06
-6.22976e+06
-6.22469e+06
-6.23414e+06
-6.23063e+06
-6.23063e+06
-6.22963e+06
-6.22963e+06
-6.22532e+06
-6.23384e+06
-6.22735e+06
-6.23576e+06
-6.23574e+06
-6.231e+06
-6.231e+06
-6.23847e+06
-6.22481e+06
-6.23435e+06
-6.23076e+06
-6.23076e+06
-6.22983e+06
-6.22984e+06
-6.2254e+06
-6.23385e+06
-6.22735e+06
-6.23577e+06
-6.23575e+06
-6.231e+06
-6.23101e+06
-6.23847e+06
-6.23389e+06
-6.23578e+06
-6.22733e+06
-6.23576e+06
-6.23102e+06
-6.23849e+06
-6.23103e+06
-6.22472e+06
-6.23416e+06
-6.23065e+06
-6.23065e+06
-6.22966e+06
-6.22965e+06
-6.22535e+06
-6.22477e+06
-6.23433e+06
-6.23075e+06
-6.23074e+06
-6.22982e+06
-6.22979e+06
-6.22536e+06
-6.22465e+06
-6.23061e+06
-6.23061e+06
-6.23411e+06
-6.22528e+06
-6.22959e+06
-6.22959e+06
-6.23383e+06
-6.23571e+06
-6.22727e+06
-6.23572e+06
-6.23096e+06
-6.23844e+06
-6.23097e+06
-6.22482e+06
-6.23077e+06
-6.23076e+06
-6.23432e+06
-6.22542e+06
-6.22983e+06
-6.22981e+06
-6.23385e+06
-6.23572e+06
-6.22728e+06
-6.23575e+06
-6.23097e+06
-6.23845e+06
-6.231e+06
-6.23382e+06
-6.23571e+06
-6.23573e+06
-6.22732e+06
-6.23844e+06
-6.23097e+06
-6.23098e+06
-6.22464e+06
-6.23062e+06
-6.23063e+06
-6.23411e+06
-6.22531e+06
-6.22959e+06
-6.22961e+06
-6.23386e+06
-6.23572e+06
-6.23575e+06
-6.22729e+06
-6.23847e+06
-6.23099e+06
-6.23099e+06
-6.23067e+06
-6.2247e+06
-6.23066e+06
-6.23415e+06
-6.22962e+06
-6.22535e+06
-6.22968e+06
-6.23423e+06
-6.23069e+06
-6.22974e+06
-6.22478e+06
-6.23069e+06
-6.22977e+06
-6.22536e+06
-6.22471e+06
-6.23416e+06
-6.23063e+06
-6.23065e+06
-6.22964e+06
-6.22969e+06
-6.22532e+06
-6.22658e+06
-6.2346e+06
-6.22641e+06
-6.23354e+06
-6.22489e+06
-6.23234e+06
-6.23338e+06
-6.23426e+06
-6.23074e+06
-6.22977e+06
-6.22481e+06
-6.23075e+06
-6.22979e+06
-6.22543e+06
-6.22469e+06
-6.23062e+06
-6.23415e+06
-6.23064e+06
-6.22962e+06
-6.22532e+06
-6.22968e+06
-6.22657e+06
-6.23459e+06
-6.22634e+06
-6.23351e+06
-6.22483e+06
-6.23231e+06
-6.23336e+06
-6.2307e+06
-6.22474e+06
-6.23418e+06
-6.23069e+06
-6.22965e+06
-6.22972e+06
-6.2254e+06
)
;

boundaryField
{
    sphere_to_oil
    {
        type            calculated;
        value           nonuniform List<scalar> 
1536
(
-6.21867e+06
-6.21841e+06
-6.21829e+06
-6.2181e+06
-6.21811e+06
-6.21845e+06
-6.21816e+06
-6.21849e+06
-6.21829e+06
-6.21818e+06
-6.21796e+06
-6.21807e+06
-6.21843e+06
-6.21822e+06
-6.21796e+06
-6.21827e+06
-6.21812e+06
-6.21784e+06
-6.21821e+06
-6.21848e+06
-6.21833e+06
-6.21841e+06
-6.21826e+06
-6.21817e+06
-6.21818e+06
-6.21817e+06
-6.21816e+06
-6.21816e+06
-6.21824e+06
-6.21862e+06
-6.21842e+06
-6.2181e+06
-6.21806e+06
-6.21863e+06
-6.21838e+06
-6.21838e+06
-6.21815e+06
-6.21818e+06
-6.2181e+06
-6.21873e+06
-6.21853e+06
-6.21848e+06
-6.21813e+06
-6.21815e+06
-6.21825e+06
-6.21818e+06
-6.21825e+06
-6.21819e+06
-6.21823e+06
-6.21824e+06
-6.21817e+06
-6.21824e+06
-6.21824e+06
-6.21814e+06
-6.21853e+06
-6.21842e+06
-6.21847e+06
-6.21828e+06
-6.21843e+06
-6.21821e+06
-6.21852e+06
-6.21836e+06
-6.21828e+06
-6.21793e+06
-6.21831e+06
-6.21795e+06
-6.21811e+06
-6.21809e+06
-6.21824e+06
-6.21845e+06
-6.21818e+06
-6.21852e+06
-6.21834e+06
-6.21831e+06
-6.21796e+06
-6.21838e+06
-6.2182e+06
-6.21841e+06
-6.21866e+06
-6.21833e+06
-6.21806e+06
-6.2181e+06
-6.21801e+06
-6.21868e+06
-6.21843e+06
-6.21845e+06
-6.2185e+06
-6.21836e+06
-6.21841e+06
-6.21817e+06
-6.21847e+06
-6.2183e+06
-6.21847e+06
-6.21824e+06
-6.21815e+06
-6.21821e+06
-6.21844e+06
-6.21827e+06
-6.21829e+06
-6.21815e+06
-6.21816e+06
-6.21802e+06
-6.21857e+06
-6.21851e+06
-6.2188e+06
-6.21815e+06
-6.21844e+06
-6.21832e+06
-6.21844e+06
-6.21824e+06
-6.21806e+06
-6.21793e+06
-6.21803e+06
-6.21872e+06
-6.21845e+06
-6.21837e+06
-6.21809e+06
-6.21816e+06
-6.21826e+06
-6.21804e+06
-6.21788e+06
-6.21815e+06
-6.2186e+06
-6.21879e+06
-6.21852e+06
-6.21818e+06
-6.21828e+06
-6.21815e+06
-6.21781e+06
-6.21838e+06
-6.21814e+06
-6.21815e+06
-6.21807e+06
-6.21817e+06
-6.21848e+06
-6.21841e+06
-6.21874e+06
-6.21807e+06
-6.2185e+06
-6.21836e+06
-6.21838e+06
-6.21808e+06
-6.21818e+06
-6.2182e+06
-6.21813e+06
-6.21819e+06
-6.21842e+06
-6.21824e+06
-6.21813e+06
-6.21794e+06
-6.21803e+06
-6.21813e+06
-6.2181e+06
-6.21866e+06
-6.21838e+06
-6.21853e+06
-6.21847e+06
-6.21829e+06
-6.21807e+06
-6.21802e+06
-6.21815e+06
-6.21846e+06
-6.21872e+06
-6.21848e+06
-6.21809e+06
-6.21826e+06
-6.21803e+06
-6.21789e+06
-6.21804e+06
-6.21815e+06
-6.2181e+06
-6.21867e+06
-6.21846e+06
-6.21848e+06
-6.21843e+06
-6.21817e+06
-6.21807e+06
-6.21811e+06
-6.21808e+06
-6.21814e+06
-6.21842e+06
-6.21872e+06
-6.21844e+06
-6.21852e+06
-6.21837e+06
-6.21842e+06
-6.21823e+06
-6.2182e+06
-6.21836e+06
-6.21808e+06
-6.21825e+06
-6.21793e+06
-6.21844e+06
-6.21825e+06
-6.21834e+06
-6.21809e+06
-6.21844e+06
-6.21826e+06
-6.21864e+06
-6.21835e+06
-6.21831e+06
-6.21801e+06
-6.21806e+06
-6.2184e+06
-6.2182e+06
-6.21851e+06
-6.21833e+06
-6.21845e+06
-6.21825e+06
-6.21802e+06
-6.21867e+06
-6.2182e+06
-6.21834e+06
-6.21811e+06
-6.21845e+06
-6.21823e+06
-6.21848e+06
-6.21834e+06
-6.21847e+06
-6.21832e+06
-6.21852e+06
-6.21837e+06
-6.21858e+06
-6.21845e+06
-6.21853e+06
-6.21837e+06
-6.21804e+06
-6.21839e+06
-6.21848e+06
-6.21812e+06
-6.2176e+06
-6.21778e+06
-6.21758e+06
-6.21844e+06
-6.21788e+06
-6.2183e+06
-6.21853e+06
-6.21809e+06
-6.21764e+06
-6.21813e+06
-6.21848e+06
-6.21769e+06
-6.21855e+06
-6.21805e+06
-6.21806e+06
-6.21845e+06
-6.21782e+06
-6.21851e+06
-6.21782e+06
-6.21832e+06
-6.21852e+06
-6.21857e+06
-6.2181e+06