/*--------------------------------*- C++ -*----------------------------------*\
| =========                 |                                                 |
| \\      /  F ield         | OpenFOAM: The Open Source CFD Toolbox           |
|  \\    /   O peration     | Version:  v1906                                 |
|   \\  /    A nd           | Web:      www.OpenFOAM.com                      |
|    \\/     M anipulation  |                                                 |
\*---------------------------------------------------------------------------*/
FoamFile
{
    version     2.0;
    format      ascii;
    class       volScalarField;
    location    "16.2/sphere";
    object      T;
}
// * * * * * * * * * * * * * * * * * * * * * * * * * * * * * * * * * * * * * //

dimensions      [0 0 0 1 0 0 0];


internalField   nonuniform List<scalar> 
304
(
489.992
490.026
490.025
490.043
489.995
489.994
489.992
490.027
489.99
490.162
490.162
490.04
490.024
490.161
490.162
490.076
490.04
490.076
489.993
490.025
490.044
489.993
490.027
490.162
490.162
490.076
490.044
490.162
490.162
490.106
489.992
490.076
490.107
490.033
489.994
490.042
490.076
489.995
489.998
490.077
490.106
490.031
489.994
490.033
489.979
489.978
489.994
489.995
489.995
490.034
489.994
489.995
490.034
489.995
489.978
489.994
489.995
489.995
490.034
490.026
490.026
490.043
490.041
490.077
490.077
490.106
489.991
490.043
490.026
490.077
490.041
490.107
490.077
489.994
489.994
490.033
489.995
489.992
489.992
490.031
489.993
490.042
489.988
490.024
490.075
490.106
490.038
490.075
490.026
490.025
489.991
490.106
490.076
490.076
490.04
490.033
489.993
489.993
489.977
489.992
489.992
490.032
489.993
490.032
489.993
489.992
489.976
489.994
489.993
489.993
490.033
490.027
490.041
490.078
490.026
490.044
490.077
490.107
489.993
490.078
490.042
490.044
490.027
490.107
490.077
489.994
489.994
490.033
489.994
490.041
490.026
490.076
490.026
490.077
490.044
490.107
489.99
490.076
490.026
490.076
490.026
490.106
490.043
490.075
489.989
490.039
490.043
490.106
490.025
490.076
490.026
490.04
489.99
490.106
490.043
490.076
490.025
489.994
489.992
490.033
489.993
490.076
489.991
490.026
490.076
490.106
490.025
490.043
490.04
490.026
489.991
490.106
490.075
490.044
490.025
490.032
489.992
489.992
489.992
489.994
490.033
489.997
490.044
490.077
490.107
489.991
490.026
490.042
490.077
490.025
490.107
490.076
490.026
489.989
490.076
490.038
490.032
489.993
489.992
490.078
490.044
490.107
489.994
490.044
490.028
490.078
490.026
490.106
490.044
490.04
489.992
490.076
490.026
490.107
490.026
490.076
490.028
490.078
489.992
490.041
490.043
490.076
490.025
490.076
490.025
490.04
489.99
490.032
489.993
489.995
490.106
490.025
490.044
490.04
490.076
489.992
490.026
490.076
490.044
490.027
490.077
490.042
490.027
489.994
489.993
489.993
489.995
489.982
489.992
489.995
490.032
489.993
490.032
489.993
489.992
489.976
489.998
489.996
490.035
489.996
490.077
490.078
490.107
489.995
490.027
490.027
490.044
490.04
490.106
490.076
490.025
489.989
490.043
490.025
490.033
489.994
489.992
490.035
489.996
489.994
490.107
490.04
490.076
490.026
490.043
489.99
490.025
490.075
490.076
490.04
490.043
490.025
490.025
489.99
489.992
489.993
489.991
489.98
490.033
489.994
489.993
489.995
489.994
489.993
)
;

boundaryField
{
    sphere_to_oil
    {
        type            compressible::turbulentTemperatureCoupledBaffleMixed;
        refValue        nonuniform List<scalar> 
360
(
330.222
330.222
309.004
352.468
358.249
310.979
359.446
359.446
359.446
329.821
329.821
311.081
312.274
308.056
327.376
357.491
352.452
352.452
352.452
308.445
349.39
327.495
323.013
356.246
308.756
357.645
310.842
357.108
357.108
357.108
360.279
355.149
309.011
308.906
310.957
311.077
352.393
352.393
352.393
351.763
358.127
309.336
311.142
330.124
330.124
310.774
312.206
307.362
328.53
358.029
311.145
310.998
312.052
312.246
308.22
327.472
353.478
308.384
311.09
311.716
307.631
357.981
357.981
357.981
307.355
356.834
328.253
318.487
359.094
359.094
359.094
358.288
357.109
307.865
349.942
326.613
308.103
321.618
357.814
353.162
323.795
317.083
323.043
307.591
309.004
310.915
311.245
312.18
307.95
308.535
309.03
312.175
311.14
309.06
312.08
311.072
311.203
311.06
309.346
307.909
307.982
307.829
310.983
311.161
312.19
307.77
308.211
312.29
309.381
311.185
311.252
311.112
309.371
308.316
307.694
307.65
319.394
318.227
320.013
330.351
330.351
352.468
352.468
356.246
356.246
353.974
353.974
353.974
356.014
356.014
356.014
319.722
318.104
319.345
308.18
358.249
358.249
328.489
328.489
360.279
360.279
326.287
326.287
359.712
359.712
359.712
308.153
308.322
357.962
357.962
357.962
358.94
358.94
358.94
357.491
349.39
327.376
357.491
355.534
308.041
355.534
355.534
323.075
323.242
317.744
326.97
326.97
359.837
359.837
359.837
307.319
349.39
327.495
359.144
359.144
307.387
359.144
323.716
317.584
307.457
310.787
310.939
312.382
308.685
312.199
310.952
307.412
307.983
357.645
357.645
355.149
355.149
330.053
330.053
352.749
352.749
352.749
328.944
328.944
307.891
310.869
311.09
312.301
311.027
310.941
312.31
309.303
312.27
311.084
309.281
351.763
312.312
311.236
308.428
358.368
358.368
358.368
328.228
328.228
307.308
311.242
311.248
311.688
358.127
309.142
311.626
311.185
351.763
358.127
328.158
308.291
328.158
307.602
307.692
312.163
308.741
310.917
310.87
311.001
308.654
307.694
358.386
350.697
358.386
358.386
350.697
350.697
358.029
356.834
328.53
354.421
307.963
358.029
354.421
354.421
311.917
308.972
311.225
312.152
309.106
358.288
310.929
311.119
311.265
309.322
353.478
349.942
311.118
311.141
309.33
351.798
356.025
327.472
358.385
307.683
353.478
358.385
358.385
311.894
309.202
357.814
311.192
311.046
311.093
358.013
309.193
357.379
328.461
351.798
328.461
358.013
351.798
358.013
307.364
317.873
318.39
318.766
329.331
352.926
329.331
352.926
352.926
307.82
356.834
354.365
328.253
354.365
307.926
354.365
319.561
319.411
307.674
356.285
326.801
356.285
356.285
326.801
307.87
310.91
311.062
312.253
357.109
358.288
327.109
308.033
357.109
327.109
307.843
349.942
357.102
326.613
357.102
307.715
357.102
312.309
353.162
309.412
311.143
355.699
352.327
356.025
327.53
356.025
355.699
327.53
355.699
316.95
323.111
357.814
328.138
307.433
353.162
328.138
308.539
357.379
352.327
357.379
328.854
352.327
328.854
)
;
        refGradient     uniform 0;
        valueFraction   nonuniform List<scalar> 
360
(
0.000129972
0.00012469
7.98278e-05
0.000285183
0.000292481
0.000167708
0.000294299
0.000252615
0.000393213
0.000125192
0.00012206
0.000163746
0.000249557
7.13534e-05
0.000127641
0.000248125
0.000284345
0.000265678
0.000372809
6.5292e-05
0.000244779
0.000120334
0.000110907
0.000294315
8.54491e-05
0.000302521
0.000170522
0.000298614
0.000390799
0.000261414
0.000298666
0.000301238
8.08871e-05
7.99835e-05
0.000167848
0.000165178
0.000279506
0.000378928
0.000260201
0.00039124
0.000386463
8.25187e-05
0.000163676
0.000119458
0.000119316
0.000168492
0.000252082
6.72542e-05
0.00012034
0.00025518
0.000166215
0.000167295
0.000249371
0.000246948
6.97681e-05
0.000127632
0.000260279
6.6836e-05
0.000165574
0.000246909
6.54205e-05
0.000290679
0.000256598
0.00040161
6.74464e-05
0.000262362
0.000122379
0.000118366
0.000297396
0.000387968
0.000260971
0.000374125
0.000379363
7.24509e-05
0.00025294
0.000128316
6.67978e-05
0.00011978
0.000378555
0.000393251
0.000117481
0.000115264
0.000113214
6.72839e-05
8.11382e-05
0.000164497
0.000165418
0.000250509
7.56187e-05
6.38485e-05
8.03007e-05
0.000250101
0.000165105
8.20278e-05
0.000249688
0.000166991
0.000166002
0.000166257
8.10748e-05
6.4986e-05
6.58976e-05
6.50207e-05
0.000167155
0.000164291
0.000249912
7.35775e-05
6.39094e-05
0.000249731
7.93345e-05
0.000164549
0.00016458
0.000167937
8.21197e-05
6.57573e-05
6.41305e-05
6.53695e-05
0.000113787
0.000113924
0.00011835
0.000128332
0.000120614
0.000249221
0.000392609
0.000262571
0.00039622
0.000253973
0.000390471
0.000290726
0.000254178
0.000381971
0.000286317
0.000116784
0.000110441
0.00011312
6.24457e-05
0.000258987
0.000389942
0.000120644
0.000121195
0.000394072
0.000262006
0.000126469
0.000133292
0.000389221
0.000267375
0.000308097
6.87253e-05
6.3956e-05
0.00026995
0.000374084
0.000296517
0.000277948
0.000387036
0.000296486
0.000306113
0.000281968
0.000131896
0.000393145
0.000253947
7.08e-05
0.000382111
0.000285944
0.000109121
0.000114965
0.000113733
0.000119981
0.000125419
0.000391179
0.000257567
0.000302331
7.24884e-05
0.000376299
0.000129028
0.000395687
0.000253302
7.08055e-05
0.000300343
0.00011009
0.000111112
6.4918e-05
0.000170158
0.00017009
0.000251508
8.387e-05
0.000251887
0.000165737
6.42514e-05
6.23903e-05
0.000393614
0.000250095
0.000388994
0.000259342
0.000123704
0.000115687
0.000390808
0.000244247
0.000282329
0.000114352
0.000132684
6.67517e-05
0.000167167
0.000167016
0.000249536
0.000163388
0.000164229
0.000248553
8.51918e-05
0.000249405
0.000169105
8.28467e-05
0.000280725
0.000249129
0.000168092
6.69894e-05
0.000382266
0.000247814
0.000289945
0.000120793
0.000112253
6.48402e-05
0.000165867
0.000168656
0.000250067
0.000284317
7.95168e-05
0.000247694
0.000161769
0.000246058
0.000260488
0.000118243
6.6415e-05
0.000131209
6.72362e-05
6.32902e-05
0.000252859
8.43842e-05
0.000169992
0.000168027
0.000166024
8.33235e-05
6.36475e-05
0.000258539
0.000242257
0.000406701
0.000302725
0.00037943
0.000272617
0.000292197
0.000299169
0.000132978
0.000256648
6.91458e-05
0.00039056
0.000379762
0.000288536
0.000251657
8.01872e-05
0.000163747
0.000248764
8.09055e-05
0.000296425
0.000164456
0.000165631
0.000164105
8.0415e-05
0.000294212
0.000275702
0.000167428
0.0001631
8.19634e-05
0.000276245
0.000304073
0.000120589
0.000272958
6.48257e-05
0.000388886
0.000377025
0.000284883
0.000246917
8.1114e-05
0.000285331
0.000164294
0.000164547
0.000165484
0.000286884
8.1874e-05
0.000293111
0.000123333
0.000252716
0.000124362
0.000257525
0.000392454
0.000385278
6.47954e-05
0.000129845
0.000128312
0.0001255
0.00011429
0.000382383
0.000124827
0.000254208
0.000299345
6.38511e-05
0.000386115
0.00038565
0.000126244
0.000274203
6.69134e-05
0.000293967
0.000111924
0.000109953
6.68582e-05
0.000378182
0.000113021
0.000248012
0.000292096
0.000121169
6.60537e-05
0.000164358
0.000164302
0.000247928
0.000283696
0.000246066
0.000118967
6.40374e-05
0.000250187
0.000132132
7.39588e-05
0.000362559
0.000389316
0.000115059
0.000247303
6.85635e-05
0.000311022
0.000249827
0.000299329
8.18833e-05
0.000165064
0.00028859
0.000279783
0.000263215
0.000117649
0.00038557
0.000384741
0.000139658
0.000257176
0.00011315
0.000114886
0.000258905
0.000128162
6.92936e-05
0.000261849
0.000123409
6.39918e-05
0.000381109
0.000385684
0.000253764
0.000123151
0.000249268
0.000127212
)
;
        value           nonuniform List<scalar> 
360
(
489.996
489.997
490
489.975
489.976
490.018
489.975
489.983
489.965
489.994
489.995
490.017
490.021
490.004
489.996
489.984
489.971
489.978
489.963
490.004
489.982
489.997
489.98
489.975
489.999
489.974
490.019
489.976
489.964
489.981
489.974
489.972
489.998
489.997
490.017
490.018
489.973
489.964
489.979
489.962
489.965
489.998
490.019
489.995
489.997
490.017
490.021
490.003
489.995
489.981
490.02
490.018
490.022
490.022
490.001
489.993
489.978
490.003
490.018
490.022
490.003
489.975
489.981
489.964
490.004
489.981
489.996
489.978
489.978
489.969
489.984
489.968
489.967
490.007
489.985
490
490.002
489.982
489.966
489.963
489.982
489.981
489.982
490.004
490.002
490.018
490.018
490.021
489.999
490.003
489.999
490.021
490.019
489.997
490.021
490.017
490.017
490.018
489.998
490.005
490.005
490.005
490.019
490.019
490.021
490.002
490.003
490.02
489.996
490.017
490.019
490.017
489.998
490.002
490.006
490.005
489.981
489.981
489.98
489.996
489.998
489.982
489.963
489.982
489.964
489.982
489.964
489.974
489.983
489.966
489.977
489.98
489.981
489.981
490.006
489.982
489.966
489.997
489.997
489.966
489.983
489.995
489.995
489.966
489.982
489.972
490.004
490.003
489.979
489.965
489.971
489.978
489.964
489.973
489.972
489.973
489.994
489.963
489.981
490.003
489.964
489.974
489.981
489.98
489.98
489.995
489.995
489.963
489.981
489.974
490.002
489.963
489.994
489.964
489.981
490.002
489.973
489.98
489.979
490.003
490.019
490.017
490.021
490
490.022
490.019
490.004
490.004
489.964
489.982
489.963
489.98
489.995
489.997
489.963
489.983
489.973
489.998
489.995
490.004
490.018
490.018
490.021
490.019
490.019
490.021
489.996
490.021
490.017
489.997
489.974
490.021
490.017
490.002
489.966
489.982
489.975
489.995
489.997
490.003
490.018
490.017
490.021
489.975
489.998
490.022
490.019
489.98
489.98
489.995
490.002
489.993
490.002
490.003
490.021
489.998
490.017
490.017
490.018
489.996
490.005
489.98
489.983
489.965
489.974
489.966
489.979
489.973
489.972
489.994
489.98
490.003
489.962
489.963
489.975
490.022
490.002
490.021
490.022
489.999
489.975
490.019
490.018
490.021
490
489.974
489.976
490.017
490.018
489.998
489.974
489.972
489.995
489.979
490.003
489.964
489.967
489.976
490.022
489.999
489.976
490.019
490.019
490.02
489.978
490.001
489.977
489.996
489.981
489.995
489.981
489.963
489.966
490.003
489.981
489.982
489.982
489.996
489.965
489.995
489.98
489.976
490.003
489.963
489.962
489.994
489.977
490.002
489.972
489.98
489.98
490.006
489.97
489.999
489.985
489.978
489.998
490.006
490.019
490.02
490.022
489.974
489.984
489.997
490.005
489.981
489.993
490.001
489.967
489.966
489.997
489.983
490.003
489.97
490.021
489.971
489.997
490.018
489.974
489.974
489.979
489.995
489.964
489.964
489.99
489.979
489.982
489.983
489.982
489.995
490.003
489.979
489.995
490.004
489.967
489.964
489.983
489.996
489.981
489.994
)
;
        Tnbr            T;
        thicknessLayers 0();
        kappaLayers     0();
        kappaMethod     solidThermo;
        kappa           none;
        alphaAni        none;
    }
}


// ************************************************************************* //
