/*--------------------------------*- C++ -*----------------------------------*\
| =========                 |                                                 |
| \\      /  F ield         | OpenFOAM: The Open Source CFD Toolbox           |
|  \\    /   O peration     | Version:  v1906                                 |
|   \\  /    A nd           | Web:      www.OpenFOAM.com                      |
|    \\/     M anipulation  |                                                 |
\*---------------------------------------------------------------------------*/
FoamFile
{
    version     2.0;
    format      ascii;
    class       volVectorField;
    location    "30";
    object      U;
}
// * * * * * * * * * * * * * * * * * * * * * * * * * * * * * * * * * * * * * //

dimensions      [0 1 -1 0 0 0 0];


internalField   nonuniform List<vector> 
78750
(
(-0.46773 -0.299259 -0.107087)
(-0.399469 -0.288043 -0.101085)
(-0.394102 -0.26078 -0.0872828)
(-0.314591 -0.22894 -0.0689033)
(-0.243904 -0.199761 -0.0568277)
(-0.26312 -0.184371 -0.0533756)
(-0.209752 -0.166941 -0.0467159)
(-0.195999 -0.154323 -0.0421714)
(-0.16603 -0.141842 -0.0370022)
(-0.147828 -0.131673 -0.0322927)
(-0.128055 -0.122387 -0.0274928)
(-0.111674 -0.114193 -0.0226138)
(-0.0965688 -0.106897 -0.0176422)
(-0.0830879 -0.100425 -0.0125451)
(-0.0708924 -0.0947156 -0.00731645)
(-0.0598537 -0.0897193 -0.00196199)
(-0.0498368 -0.0853948 0.00349633)
(-0.0407249 -0.0817055 0.00902939)
(-0.0324163 -0.0786151 0.0146026)
(-0.0248224 -0.0760846 0.0201831)
(-0.0178656 -0.0740675 0.0257464)
(-0.0114788 -0.0725066 0.0312835)
(-0.00560214 -0.0713297 0.036807)
(-0.000184858 -0.0704443 0.0423576)
(0.00481331 -0.069729 0.0480092)
(0.00942441 -0.0690221 0.0538736)
(0.013672 -0.0680993 0.060106)
(0.0175675 -0.0666352 0.0669259)
(0.0211005 -0.0641325 0.074693)
(0.0241954 -0.0599119 0.084081)
(0.0265858 -0.053867 0.0961699)
(0.0278215 -0.0484619 0.111754)
(0.0277854 -0.0463909 0.130213)
(0.0291621 -0.0421427 0.155255)
(0.021534 0.0589832 0.156071)
(0.0678066 -0.233455 0.0166612)
(-0.0748909 -0.25995 -0.00924635)
(-0.0177157 -0.34568 -0.0304327)
(-0.050604 -0.373014 -0.0399331)
(-0.058562 -0.345947 -0.0423043)
(-0.057665 -0.304285 -0.0416015)
(-0.0606164 -0.273416 -0.0404405)
(-0.0578696 -0.248635 -0.0389643)
(-0.0561328 -0.227555 -0.0377626)
(-0.0530906 -0.210124 -0.036758)
(-0.0499122 -0.195935 -0.0357614)
(-0.0463534 -0.184101 -0.0345778)
(-0.0425969 -0.174091 -0.0331075)
(-0.0387049 -0.165619 -0.0312995)
(-0.0347348 -0.158488 -0.0291235)
(-0.0307298 -0.152548 -0.0265659)
(-0.0267321 -0.147689 -0.0236267)
(-0.0227799 -0.143836 -0.0203043)
(-0.0189087 -0.140931 -0.0166079)
(-0.0151508 -0.138923 -0.0125541)
(-0.0115373 -0.137763 -0.0081646)
(-0.00809895 -0.13741 -0.00346603)
(-0.00486604 -0.13782 0.0015086)
(-0.00186874 -0.138953 0.00671796)
(0.000863132 -0.140773 0.0121085)
(0.00330402 -0.14326 0.0176066)
(0.00543752 -0.146415 0.023104)
(0.00726412 -0.150274 0.0284322)
(0.0088167 -0.154884 0.0333335)
(0.0101664 -0.160172 0.037466)
(0.0113901 -0.165574 0.0405352)
(0.0125612 -0.169214 0.0427665)
(0.0138768 -0.166557 0.0460632)
(0.0133869 -0.137216 0.0589966)
(0.0120551 0.138457 0.137435)
(-0.0194796 -0.0584706 -0.018259)
(-0.00797549 -0.148582 -0.0545292)
(-0.0192235 -0.179976 -0.0716245)
(-0.0191855 -0.201194 -0.0812619)
(-0.021275 -0.221021 -0.0861191)
(-0.0215163 -0.231906 -0.0871446)
(-0.0197141 -0.232002 -0.0858395)
(-0.0167732 -0.223543 -0.08284)
(-0.0133708 -0.212188 -0.0794919)
(-0.00991148 -0.201921 -0.0766915)
(-0.00630404 -0.19325 -0.0744987)
(-0.00260889 -0.185832 -0.072758)
(0.00108727 -0.179444 -0.0713359)
(0.00474004 -0.173968 -0.0701281)
(0.00833229 -0.169321 -0.0690478)
(0.0118454 -0.165439 -0.0680235)
(0.0152635 -0.162272 -0.066998)
(0.0185687 -0.159787 -0.0659295)
(0.0217361 -0.157963 -0.0647863)
(0.0247414 -0.156805 -0.0635585)
(0.027545 -0.156326 -0.0622443)
(0.0300967 -0.156542 -0.0608451)
(0.032364 -0.157477 -0.0593682)
(0.0343195 -0.159155 -0.0578228)
(0.0359243 -0.161595 -0.0562171)
(0.0371269 -0.164797 -0.0545582)
(0.037859 -0.16872 -0.0528499)
(0.0380276 -0.173246 -0.0510918)
(0.037486 -0.178098 -0.0492723)
(0.0359695 -0.182716 -0.0473896)
(0.0331405 -0.18608 -0.0454974)
(0.0294396 -0.186457 -0.0435497)
(0.0246775 -0.179583 -0.0407987)
(0.0140472 -0.128665 -0.0317992)
(0.00354439 0.14693 0.043096)
(0.00413712 -0.114677 -0.0130217)
(0.00825785 -0.244638 -0.0498688)
(0.01163 -0.305608 -0.0681516)
(0.0121102 -0.319752 -0.0731381)
(0.0126649 -0.317541 -0.0745463)
(0.0129073 -0.305024 -0.0743212)
(0.0126858 -0.286588 -0.0735399)
(0.0127824 -0.268623 -0.073079)
(0.0135852 -0.253371 -0.0729661)
(0.015053 -0.240355 -0.0729414)
(0.0169777 -0.229025 -0.0728433)
(0.0191684 -0.219172 -0.0726117)
(0.0215026 -0.210668 -0.0722305)
(0.0239064 -0.203365 -0.0716987)
(0.0263296 -0.197118 -0.0710214)
(0.0287359 -0.191787 -0.0702051)
(0.0310971 -0.18724 -0.0692553)
(0.0333871 -0.183346 -0.0681704)
(0.0355947 -0.179971 -0.0669241)
(0.0376957 -0.17705 -0.0654897)
(0.0396474 -0.174573 -0.063857)
(0.0414092 -0.172523 -0.062007)
(0.0429316 -0.170881 -0.0599087)
(0.0441551 -0.169621 -0.0575179)
(0.0450096 -0.168707 -0.0547749)
(0.0454153 -0.168073 -0.0516118)
(0.0452349 -0.167593 -0.0479482)
(0.0443259 -0.167031 -0.0436994)
(0.042609 -0.166036 -0.0386723)
(0.0399126 -0.164228 -0.0323341)
(0.0361026 -0.161063 -0.0239187)
(0.0312989 -0.15484 -0.0120329)
(0.0245008 -0.137538 0.00870305)
(0.0119661 -0.0533136 0.0506672)
(0.00113656 0.184403 0.0603868)
(0.00145416 -0.150321 -0.0443128)
(0.000211339 -0.210828 -0.0639187)
(-0.00149 -0.225689 -0.0666128)
(-0.00303646 -0.231897 -0.0672435)
(-0.00412977 -0.233396 -0.0676681)
(-0.00424437 -0.231758 -0.0683323)
(-0.00322492 -0.227895 -0.06939)
(-0.00119525 -0.222165 -0.070927)
(0.00160159 -0.214974 -0.07294)
(0.00494748 -0.2071 -0.0753456)
(0.00860331 -0.199439 -0.0779493)
(0.01239 -0.192538 -0.0805036)
(0.0161883 -0.186613 -0.0827902)
(0.0198927 -0.181727 -0.0846472)
(0.0234146 -0.177863 -0.0859726)
(0.0266876 -0.174949 -0.0867212)
(0.0296634 -0.172876 -0.0868969)
(0.0323063 -0.171512 -0.0865425)
(0.0345933 -0.17071 -0.0857275)
(0.0365078 -0.170312 -0.0845243)
(0.0380372 -0.170164 -0.0830037)
(0.0391682 -0.170119 -0.0812291)
(0.0398858 -0.17005 -0.0792505)
(0.0401735 -0.169844 -0.0771008)
(0.0400152 -0.169407 -0.0747922)
(0.0393923 -0.168657 -0.0723194)
(0.0382832 -0.167508 -0.0696948)
(0.0366628 -0.165797 -0.0669765)
(0.034491 -0.163227 -0.0642826)
(0.0317953 -0.159304 -0.0617506)
(0.0286417 -0.153085 -0.0592031)
(0.0248843 -0.14214 -0.0558132)
(0.0194765 -0.117223 -0.048406)
(0.0104142 -0.0313985 -0.0178715)
(0.00225376 0.187291 0.0396143)
(0.00233645 -0.140877 -0.0137611)
(0.00478864 -0.250187 -0.0334627)
(0.00552829 -0.290786 -0.0411431)
(0.00520422 -0.303272 -0.043379)
(0.0045875 -0.304218 -0.0438226)
(0.00391505 -0.298382 -0.0435828)
(0.00339531 -0.287654 -0.0433839)
(0.00336326 -0.273834 -0.043956)
(0.00406254 -0.258658 -0.0457917)
(0.00558159 -0.243241 -0.0489467)
(0.00791365 -0.228209 -0.0532633)
(0.0109371 -0.21395 -0.0584923)
(0.0144737 -0.200825 -0.064305)
(0.0183381 -0.189143 -0.0703041)
(0.0223625 -0.17906 -0.0760945)
(0.0264028 -0.170573 -0.0813444)
(0.0303292 -0.163576 -0.0858076)
(0.0340221 -0.157904 -0.0893247)
(0.0373732 -0.153367 -0.0918138)
(0.0402851 -0.149767 -0.0932562)
(0.0426721 -0.146909 -0.0936796)
(0.0444611 -0.144609 -0.0931406)
(0.0455923 -0.142696 -0.0917087)
(0.04602 -0.141014 -0.0894517)
(0.045713 -0.139421 -0.0864214)
(0.0446554 -0.137791 -0.0826386)
(0.0428432 -0.135998 -0.0780834)
(0.040277 -0.133878 -0.0727052)
(0.036948 -0.131136 -0.0664557)
(0.0328902 -0.127168 -0.0593417)
(0.0283833 -0.120701 -0.0512423)
(0.0234792 -0.108509 -0.0409613)
(0.0171996 -0.0771032 -0.0244849)
(0.00785088 0.028521 0.00195696)
(-0.000255804 0.215124 0.0277135)
(0.000981234 -0.196183 -0.0262499)
(-0.00307523 -0.246025 -0.0418778)
(-0.00704538 -0.251486 -0.0459571)
(-0.0114683 -0.249549 -0.0471417)
(-0.0162536 -0.244795 -0.0469612)
(-0.0204436 -0.239237 -0.046133)
(-0.0238 -0.233575 -0.0451814)
(-0.026195 -0.227547 -0.0444657)
(-0.0275021 -0.220579 -0.0442428)
(-0.0276649 -0.212249 -0.0447358)
(-0.0266494 -0.202417 -0.0461515)
(-0.0244127 -0.191328 -0.0486813)
(-0.0210069 -0.179642 -0.052378)
(-0.0166072 -0.168164 -0.0570742)
(-0.0114664 -0.157476 -0.0624435)
(-0.00581634 -0.147899 -0.0681014)
(0.000105376 -0.139551 -0.0736881)
(0.00606888 -0.132396 -0.078921)
(0.0118711 -0.1263 -0.0836054)
(0.0173403 -0.121088 -0.0876142)
(0.0223299 -0.116579 -0.0908653)
(0.0267108 -0.112605 -0.0933032)
(0.0303673 -0.10902 -0.0948878)
(0.0331942 -0.105698 -0.0955924)
(0.0350968 -0.102531 -0.0954059)
(0.0359921 -0.0994194 -0.0943329)
(0.0358133 -0.0962607 -0.0923818)
(0.0345117 -0.0929325 -0.0895351)
(0.0320523 -0.0892475 -0.0857116)
(0.0284632 -0.084827 -0.0807296)
(0.024004 -0.0787251 -0.0741652)
(0.0189537 -0.0681422 -0.0643815)
(0.0129576 -0.0419369 -0.0451621)
(0.00634999 0.0480333 -0.00248077)
(0.00141695 0.222282 0.0341085)
(-0.00133113 -0.156555 -0.0162829)
(-0.00413649 -0.227462 -0.0245208)
(-0.00615135 -0.248588 -0.0265513)
(-0.00791739 -0.257047 -0.027454)
(-0.00967142 -0.25995 -0.0279743)
(-0.0113911 -0.259241 -0.0282726)
(-0.0130374 -0.255826 -0.0283943)
(-0.0145275 -0.250313 -0.0283869)
(-0.0156851 -0.243166 -0.0283391)
(-0.0162735 -0.234716 -0.0284162)
(-0.0161372 -0.22516 -0.0288357)
(-0.0151569 -0.214517 -0.0297952)
(-0.0132368 -0.202866 -0.031461)
(-0.010379 -0.190398 -0.0339568)
(-0.00672691 -0.177411 -0.0373653)
(-0.00249863 -0.164296 -0.0417299)
(0.00205531 -0.151484 -0.0469752)
(0.0067232 -0.139307 -0.0529329)
(0.0113773 -0.127986 -0.059368)
(0.0159394 -0.11761 -0.0660338)
(0.0203644 -0.108157 -0.0727049)
(0.0246158 -0.0995327 -0.0791643)
(0.0286422 -0.0916175 -0.0851752)
(0.0323606 -0.0842885 -0.0904702)
(0.0356459 -0.0774276 -0.0947724)
(0.0383277 -0.070913 -0.097852)
(0.0401933 -0.0646044 -0.0995974)
(0.041003 -0.0583261 -0.100053)
(0.0405098 -0.0518385 -0.0993814)
(0.0384561 -0.0447717 -0.0977614)
(0.0346852 -0.0364109 -0.0952336)
(0.0292307 -0.0247758 -0.0911972)
(0.0213351 -0.00182624 -0.0818746)
(0.00971858 0.069834 -0.0506592)
(6.31527e-05 0.21841 0.00637365)
(0.00139652 -0.178559 -0.00792173)
(-0.000104595 -0.234909 -0.0176078)
(-0.00295879 -0.244701 -0.021253)
(-0.00649305 -0.244725 -0.0229774)
(-0.010492 -0.240731 -0.0239396)
(-0.014369 -0.2352 -0.0245018)
(-0.0178206 -0.2296 -0.0248721)
(-0.0206759 -0.224434 -0.0251533)
(-0.0228088 -0.219501 -0.0253825)
(-0.0241655 -0.214232 -0.0256542)
(-0.024748 -0.208062 -0.026189)
(-0.0245139 -0.20071 -0.0271586)
(-0.0234556 -0.192131 -0.0286282)
(-0.0216672 -0.18214 -0.0306705)
(-0.0192246 -0.170218 -0.0335635)
(-0.0162401 -0.156146 -0.0377231)
(-0.0130803 -0.140573 -0.0433279)
(-0.0100619 -0.124491 -0.0502916)
(-0.00734797 -0.108899 -0.0582991)
(-0.00491327 -0.0945455 -0.066911)
(-0.00262012 -0.0817497 -0.0757017)
(-0.000306049 -0.070471 -0.0843058)
(0.00215421 -0.0604659 -0.0923742)
(0.00481765 -0.0513923 -0.0995292)
(0.00766521 -0.042855 -0.105371)
(0.010596 -0.0344328 -0.109534)
(0.0134243 -0.0257048 -0.111751)
(0.0158907 -0.016241 -0.111888)
(0.0176963 -0.00552206 -0.109916)
(0.0185759 0.00731531 -0.105753)
(0.0183422 0.0241858 -0.0988852)
(0.0167791 0.050136 -0.0875156)
(0.0131799 0.0990073 -0.067063)
(0.00708806 0.189559 -0.0337124)
(0.000622174 0.27969 0.00441866)
(-0.00364108 -0.171537 -0.0109124)
(-0.0112559 -0.208775 -0.0128755)
(-0.0181188 -0.216161 -0.0116828)
(-0.0252173 -0.218796 -0.00951825)
(-0.0319104 -0.22052 -0.00659602)
(-0.0376182 -0.222321 -0.00327985)
(-0.0423187 -0.22406 3.67265e-05)
(-0.0459295 -0.225208 0.00301996)
(-0.0484214 -0.225271 0.00546246)
(-0.049883 -0.224004 0.00721862)
(-0.0502377 -0.221179 0.00809763)
(-0.0494122 -0.216555 0.00800091)
(-0.0474765 -0.209909 0.0069227)
(-0.0446948 -0.200982 0.00486632)
(-0.0411115 -0.189025 0.00140288)
(-0.0366882 -0.172879 -0.00443421)
(-0.0318463 -0.152438 -0.0133778)
(-0.0270527 -0.129017 -0.0254923)
(-0.0226245 -0.105184 -0.0399005)
(-0.0186053 -0.0834048 -0.0552339)
(-0.0148262 -0.0649295 -0.0703335)
(-0.0111049 -0.0498136 -0.0845373)
(-0.00730921 -0.037544 -0.0975076)
(-0.00336387 -0.0274232 -0.109013)
(0.000783038 -0.0187098 -0.118799)
(0.00510764 -0.0106623 -0.126539)
(0.00948018 -0.00256689 -0.13186)
(0.0136641 0.00617032 -0.134429)
(0.0172512 0.0158802 -0.134127)
(0.019595 0.0267424 -0.131091)
(0.0201152 0.0391686 -0.125522)
(0.0184588 0.0554251 -0.11671)
(0.0136694 0.0868368 -0.0997987)
(0.00639991 0.168172 -0.0630309)
(0.000141509 0.265058 -0.0117428)
(-0.00267297 -0.111849 0.00614472)
(-0.008777 -0.15038 0.00374604)
(-0.0145248 -0.163259 0.00246855)
(-0.0206662 -0.171462 0.00276926)
(-0.0271882 -0.17863 0.00460097)
(-0.0339586 -0.186035 0.00778477)
(-0.0410303 -0.194233 0.0119389)
(-0.0483072 -0.203228 0.0165266)
(-0.0555033 -0.212434 0.0209454)
(-0.0622349 -0.220855 0.0247352)
(-0.0681202 -0.227357 0.0276939)
(-0.0728615 -0.230965 0.0297351)
(-0.076331 -0.231082 0.0308363)
(-0.0785746 -0.227321 0.030866)
(-0.0797 -0.218982 0.0293262)
(-0.0796568 -0.20442 0.0250676)
(-0.0780432 -0.181708 0.0163859)
(-0.074525 -0.15174 0.00259095)
(-0.0692584 -0.119418 -0.0147552)
(-0.0627538 -0.0895279 -0.0332012)
(-0.0555039 -0.0636765 -0.0511965)
(-0.0478974 -0.0415497 -0.068221)
(-0.0402798 -0.0225396 -0.0840608)
(-0.0329799 -0.0061591 -0.0984025)
(-0.0262785 0.00807907 -0.110807)
(-0.0202694 0.0208371 -0.120843)
(-0.0148454 0.0331187 -0.128235)
(-0.00983686 0.0463661 -0.132765)
(-0.00501215 0.0625508 -0.134102)
(-0.000235926 0.0842372 -0.131665)
(0.00422417 0.1149 -0.124563)
(0.00742603 0.160317 -0.112184)
(0.00697227 0.22707 -0.0958244)
(0.00261026 0.302296 -0.0744112)
(-0.00167701 0.329119 -0.0341644)
(-0.00208561 -0.11348 -0.00442564)
(-0.00429341 -0.141774 -0.00675294)
(-0.00610013 -0.149216 -0.00648256)
(-0.00778885 -0.15208 -0.0054711)
(-0.00958733 -0.153128 -0.00405952)
(-0.011857 -0.153841 -0.0023527)
(-0.0150329 -0.15533 -0.000305524)
(-0.0194687 -0.158519 0.00219363)
(-0.025409 -0.16416 0.00521592)
(-0.0329523 -0.172586 0.00867556)
(-0.0419912 -0.183273 0.0122899)
(-0.0521929 -0.194667 0.0157)
(-0.0630268 -0.204736 0.0186437)
(-0.0737731 -0.21178 0.0210132)
(-0.0835417 -0.214752 0.0227975)
(-0.0914692 -0.213014 0.0239711)
(-0.0969892 -0.205925 0.0242551)
(-0.0995932 -0.19295 0.0228712)
(-0.0987785 -0.17479 0.0190242)
(-0.0946808 -0.153525 0.0125963)
(-0.0879382 -0.130478 0.0038211)
(-0.0790105 -0.105838 -0.00727301)
(-0.0682722 -0.0796874 -0.020759)
(-0.0562197 -0.0522977 -0.0367478)
(-0.0434253 -0.0242238 -0.0552676)
(-0.0306331 0.00358145 -0.0760762)
(-0.0186302 0.0297725 -0.0981782)
(-0.008481 0.052098 -0.118595)
(-0.00149657 0.068342 -0.132281)
(0.00208374 0.0804984 -0.136508)
(0.00334431 0.0952929 -0.130133)
(0.00315635 0.124909 -0.109524)
(0.00188509 0.185701 -0.0743943)
(-0.000134673 0.26688 -0.0415164)
(-0.00115723 0.297392 -0.0144301)
(-0.000272847 -0.0912563 -0.00938711)
(0.00419097 -0.134993 -0.00624989)
(0.0101464 -0.151145 -0.00303718)
(0.0167578 -0.158478 -0.00156351)
(0.0236028 -0.160469 -0.00177897)
(0.0300018 -0.158503 -0.00353668)
(0.035489 -0.153767 -0.00647887)
(0.0397196 -0.147401 -0.0101479)
(0.042411 -0.14039 -0.0141134)
(0.043326 -0.133545 -0.0180141)
(0.0422555 -0.127693 -0.021511)
(0.0390657 -0.123904 -0.0242248)
(0.0337869 -0.123463 -0.0257243)
(0.0265856 -0.127513 -0.0255486)
(0.0176336 -0.136629 -0.0232271)
(0.00714662 -0.15021 -0.0184644)
(-0.00450527 -0.165928 -0.0114511)
(-0.0170119 -0.180428 -0.00297808)
(-0.0298961 -0.190871 0.00567358)
(-0.0422222 -0.196014 0.0132473)
(-0.0528702 -0.19623 0.0193069)
(-0.0608431 -0.192123 0.0241577)
(-0.0652971 -0.183085 0.0281264)
(-0.0651216 -0.167088 0.0312373)
(-0.0592548 -0.14174 0.0330619)
(-0.0480804 -0.105605 0.0320549)
(-0.0330629 -0.05767 0.0258571)
(-0.016101 0.00380411 0.0114168)
(0.00100539 0.0780478 -0.0155836)
(0.0142302 0.155223 -0.0573256)
(0.0201758 0.220142 -0.100645)
(0.0202743 0.271648 -0.12052)
(0.0168197 0.324353 -0.108017)
(0.0111635 0.374396 -0.0756443)
(0.00374999 0.356719 -0.0325445)
(0.00204771 -0.132213 0.0147678)
(0.0143705 -0.22092 0.0404161)
(0.0259362 -0.250423 0.0506943)
(0.0371664 -0.2584 0.0534571)
(0.0475846 -0.254728 0.0514938)
(0.0565047 -0.243433 0.046031)
(0.0637468 -0.227714 0.0384453)
(0.0696673 -0.210233 0.0299109)
(0.074732 -0.192884 0.0212043)
(0.0792994 -0.176815 0.0127832)
(0.083572 -0.16255 0.0048993)
(0.0876084 -0.15011 -0.00234997)
(0.0912754 -0.139204 -0.0089942)
(0.0942849 -0.129362 -0.0151615)
(0.096331 -0.119919 -0.0210685)
(0.0971258 -0.10998 -0.0270166)
(0.0962781 -0.0986883 -0.0333805)
(0.0934032 -0.0860223 -0.0405203)
(0.0883659 -0.0740193 -0.0484904)
(0.0815506 -0.0667902 -0.0566285)
(0.0738986 -0.0672735 -0.0639426)
(0.06598 -0.0760397 -0.0698818)
(0.0576667 -0.0950608 -0.0733786)
(0.0489277 -0.127257 -0.0706929)
(0.0402372 -0.16354 -0.0577966)
(0.0322113 -0.188177 -0.0365383)
(0.0253704 -0.193788 -0.0103608)
(0.0202392 -0.173 0.0195338)
(0.0186883 -0.109914 0.0460549)
(0.0208741 -0.00354582 0.0475304)
(0.0225277 0.112241 0.00948397)
(0.0193841 0.205453 -0.0437119)
(0.01316 0.288707 -0.0714764)
(0.00773401 0.366499 -0.0635075)
(0.00226836 0.373197 -0.0297553)
(0.00440802 -0.215274 0.0426381)
(0.0158084 -0.327472 0.0710959)
(0.0219186 -0.351872 0.0741723)
(0.0254684 -0.349035 0.0680562)
(0.0275391 -0.331302 0.0553318)
(0.0275246 -0.304166 0.0390335)
(0.0259021 -0.274102 0.0234288)
(0.0239782 -0.245684 0.0106872)
(0.0226206 -0.221074 0.00107982)
(0.0221261 -0.200845 -0.00593458)
(0.022464 -0.184713 -0.0110463)
(0.0234769 -0.171952 -0.0148494)
(0.0249928 -0.161756 -0.0177831)
(0.0268562 -0.153462 -0.020134)
(0.028951 -0.146577 -0.02206)
(0.0312414 -0.140754 -0.0236191)
(0.0337921 -0.135745 -0.0248041)
(0.0366889 -0.131304 -0.0256418)
(0.039918 -0.12713 -0.0262079)
(0.0432301 -0.122843 -0.0265869)
(0.0460649 -0.117901 -0.0268361)
(0.0475872 -0.111522 -0.0269845)
(0.0474081 -0.102699 -0.0271048)
(0.045272 -0.0894063 -0.0269355)
(0.0384742 -0.0651583 -0.0266045)
(0.0268029 -0.0312568 -0.0263956)
(0.0128969 -0.00229562 -0.0223485)
(-0.000712717 0.0183554 -0.00799901)
(-0.0118351 0.0516595 0.0184528)
(-0.0168756 0.131817 0.042414)
(-0.0138438 0.260903 0.0294874)
(-0.00999134 0.383792 -0.0279103)
(-0.0104601 0.457833 -0.0772146)
(-0.0102729 0.484313 -0.0799297)
(-0.00676441 0.423122 -0.0447519)
(0.00166976 -0.290866 0.0533249)
(7.19806e-05 -0.350941 0.053991)
(-0.00399741 -0.347536 0.0419563)
(-0.00955471 -0.320709 0.0190372)
(-0.0163431 -0.27652 -0.0159539)
(-0.0231287 -0.236653 -0.0459594)
(-0.0285602 -0.210784 -0.0621599)
(-0.0323251 -0.194967 -0.0686301)
(-0.0347486 -0.184037 -0.0702962)
(-0.0360794 -0.175201 -0.0697291)
(-0.0365189 -0.167249 -0.0681484)
(-0.0362951 -0.159724 -0.0661885)
(-0.0356243 -0.152516 -0.0641839)
(-0.0346991 -0.145622 -0.062295)
(-0.0337008 -0.139029 -0.0605911)
(-0.0328138 -0.132662 -0.0590895)
(-0.0321929 -0.126375 -0.05778)
(-0.0319571 -0.120033 -0.0566385)
(-0.032218 -0.113525 -0.055665)
(-0.0330398 -0.10668 -0.0548475)
(-0.0344311 -0.0992519 -0.0541273)
(-0.0364231 -0.09097 -0.0533671)
(-0.038997 -0.0815543 -0.0522456)
(-0.0420251 -0.0708806 -0.0503113)
(-0.0448746 -0.0595914 -0.0467474)
(-0.0469772 -0.0486498 -0.0407431)
(-0.0483955 -0.0380051 -0.0310007)
(-0.0496017 -0.0251132 -0.0146793)
(-0.050843 -0.00124709 0.0120107)
(-0.0500437 0.0518909 0.0480594)
(-0.0430468 0.152687 0.0781452)
(-0.0291996 0.290131 0.0793217)
(-0.0141512 0.413039 0.0540416)
(-0.00519939 0.45297 0.0360365)
(0.000401233 0.371731 0.0303274)
(-0.00689158 -0.249053 0.0369982)
(-0.0126544 -0.293939 0.0372287)
(-0.0168614 -0.286891 0.0281283)
(-0.0198747 -0.254696 0.00706763)
(-0.0197399 -0.212713 -0.0221954)
(-0.0184217 -0.186645 -0.0437023)
(-0.018147 -0.174562 -0.0571705)
(-0.0189455 -0.168495 -0.0664585)
(-0.0203552 -0.164434 -0.0731284)
(-0.0218524 -0.160714 -0.0779251)
(-0.0230972 -0.156695 -0.0813652)
(-0.023983 -0.152179 -0.0838377)
(-0.0244992 -0.147199 -0.0856144)
(-0.0246743 -0.141891 -0.0869027)
(-0.0245729 -0.13639 -0.0878798)
(-0.0242654 -0.130729 -0.0887033)
(-0.0238241 -0.124934 -0.0894644)
(-0.0233251 -0.119063 -0.0901759)
(-0.0228324 -0.113111 -0.0908247)
(-0.0223914 -0.107021 -0.0913908)
(-0.0220345 -0.100708 -0.0918459)
(-0.0217884 -0.0940727 -0.0921531)
(-0.0216483 -0.0867098 -0.092285)
(-0.021576 -0.0779507 -0.0921596)
(-0.0215889 -0.0672491 -0.0915657)
(-0.0218508 -0.0542691 -0.0902031)
(-0.0225792 -0.0387024 -0.0874542)
(-0.0239544 -0.0199977 -0.0822136)
(-0.025844 0.00323654 -0.0723114)
(-0.027638 0.0344334 -0.0539429)
(-0.0275083 0.0814368 -0.0238081)
(-0.0225846 0.156364 0.0146533)
(-0.0115214 0.261385 0.0497795)
(-0.000916445 0.34646 0.0689172)
(0.00315606 0.333435 0.060846)
(-0.00373015 -0.20246 0.0284281)
(-0.00331975 -0.289951 0.0395167)
(-0.00206799 -0.305092 0.0477998)
(0.000603788 -0.302728 0.0583053)
(0.00445614 -0.28201 0.0690815)
(0.00860871 -0.237667 0.0694909)
(0.0106921 -0.188006 0.0513999)
(0.00988723 -0.155805 0.0241264)
(0.00757306 -0.140536 -0.000186401)
(0.00500885 -0.133602 -0.0188506)
(0.00267783 -0.129765 -0.0331344)
(0.000698117 -0.12681 -0.044354)
(-0.000919505 -0.123883 -0.0533509)
(-0.00222181 -0.120641 -0.06076)
(-0.00330475 -0.116882 -0.0671809)
(-0.00422929 -0.112615 -0.0729796)
(-0.00503774 -0.10804 -0.0782957)
(-0.00578025 -0.103284 -0.0832745)
(-0.00649407 -0.0984052 -0.0880445)
(-0.00720092 -0.0933837 -0.0927015)
(-0.00790845 -0.0881313 -0.0972986)
(-0.00861079 -0.0825051 -0.101839)
(-0.00926365 -0.0763371 -0.106265)
(-0.00979533 -0.0694847 -0.110436)
(-0.0101321 -0.0618457 -0.114143)
(-0.0102223 -0.0526936 -0.11738)
(-0.00992717 -0.040324 -0.119983)
(-0.00905662 -0.0222693 -0.121161)
(-0.00742851 0.00492377 -0.119013)
(-0.00511759 0.0449609 -0.110255)
(-0.0027618 0.099642 -0.0910788)
(-0.00123901 0.168722 -0.0584717)
(0.000163114 0.254582 -0.0139847)
(0.00233273 0.339611 0.0260527)
(0.00224298 0.35159 0.0402262)
(0.00434357 -0.234384 0.000306866)
(0.0085493 -0.314126 -0.00532966)
(0.00912355 -0.327842 -0.00570456)
(0.00800234 -0.321697 -0.0037742)
(0.00500006 -0.300573 0.00493146)
(0.000283827 -0.260967 0.0245118)
(-0.00331206 -0.203943 0.0373401)
(-0.00463341 -0.155305 0.0276748)
(-0.00444719 -0.129602 0.00884167)
(-0.00359105 -0.118617 -0.00811784)
(-0.00245406 -0.113931 -0.0215769)
(-0.00118184 -0.111551 -0.0321593)
(0.000141349 -0.109725 -0.0404748)
(0.00142874 -0.107696 -0.0470392)
(0.00268185 -0.10514 -0.0525415)
(0.00386405 -0.10201 -0.0573997)
(0.00489394 -0.0984328 -0.0617236)
(0.0057145 -0.0945552 -0.0656607)
(0.00626671 -0.0905304 -0.0693881)
(0.00649988 -0.0864859 -0.073101)
(0.006381 -0.0824967 -0.0769986)
(0.00590278 -0.0785604 -0.0812656)
(0.00508784 -0.0745781 -0.0860454)
(0.00397941 -0.070352 -0.0914055)
(0.00260577 -0.0656103 -0.0972952)
(0.0010393 -0.0600512 -0.103467)
(-0.000466951 -0.0533023 -0.109475)
(-0.00172464 -0.0438846 -0.115391)
(-0.00250354 -0.0275787 -0.121091)
(-0.00221721 0.00382695 -0.12387)
(-0.000337814 0.0614409 -0.116686)
(0.00187676 0.14784 -0.0924767)
(0.00141155 0.251099 -0.0528841)
(0.000317661 0.341659 -0.0141682)
(0.000114034 0.355188 0.0110889)
(0.000541307 -0.256965 0.0150976)
(-0.00317166 -0.285189 0.0117791)
(-0.00789131 -0.274265 0.00434023)
(-0.0137132 -0.240136 -0.00937748)
(-0.0195221 -0.189445 -0.028008)
(-0.024396 -0.15114 -0.0421567)
(-0.0268107 -0.13551 -0.0482784)
(-0.0268339 -0.129018 -0.0510652)
(-0.0252485 -0.124643 -0.053781)
(-0.0227212 -0.121024 -0.0571239)
(-0.0198843 -0.11783 -0.0608715)
(-0.0170394 -0.114777 -0.0647123)
(-0.014289 -0.111589 -0.0684705)
(-0.0116135 -0.108011 -0.0721626)
(-0.00897738 -0.103869 -0.0758077)
(-0.00640669 -0.0991264 -0.0792735)
(-0.00393379 -0.093818 -0.0824578)
(-0.00160437 -0.0880342 -0.0853108)
(0.000514678 -0.081898 -0.0878348)
(0.00234378 -0.0755412 -0.0900805)
(0.00379943 -0.0690836 -0.092139)
(0.00480323 -0.0626164 -0.0941343)
(0.00529083 -0.0561844 -0.0962228)
(0.00521394 -0.0497657 -0.0985824)
(0.00453081 -0.0432513 -0.101381)
(0.00320667 -0.0364315 -0.104722)
(0.00140748 -0.0289625 -0.108567)
(-0.000823236 -0.0193697 -0.113222)
(-0.00360755 -0.00418671 -0.118919)
(-0.00635169 0.0230902 -0.123906)
(-0.00775785 0.0756928 -0.121427)
(-0.00636377 0.167479 -0.100667)
(-0.00387666 0.28205 -0.0613149)
(-0.00309734 0.359847 -0.026117)
(-0.00175591 0.350437 -0.000230616)
(-0.00254034 -0.234006 0.0160623)
(-0.0069216 -0.276258 0.0155406)
(-0.0118371 -0.272441 0.0171886)
(-0.0164534 -0.250415 0.0201293)
(-0.0191398 -0.211388 0.0202285)
(-0.0190019 -0.168631 0.0136827)
(-0.0180182 -0.139986 0.00373274)
(-0.0171238 -0.12589 -0.0055976)
(-0.0161901 -0.118615 -0.0137577)
(-0.0150872 -0.114199 -0.0213524)
(-0.0138474 -0.111128 -0.0286419)
(-0.0125442 -0.10865 -0.0355695)
(-0.0111879 -0.106234 -0.0421754)
(-0.00976462 -0.103521 -0.0485451)
(-0.00827645 -0.100298 -0.0546483)
(-0.00671443 -0.0964242 -0.0604412)
(-0.00508064 -0.0918303 -0.0658739)
(-0.00339753 -0.0865195 -0.0708959)
(-0.00170725 -0.0805613 -0.0754668)
(-7.13289e-05 -0.0740735 -0.0795755)
(0.00143454 -0.0671947 -0.0832481)
(0.00272223 -0.0600596 -0.0865483)
(0.00370181 -0.0527836 -0.0895678)
(0.00428484 -0.045455 -0.0924319)
(0.00437365 -0.0381212 -0.0952982)
(0.00384027 -0.0307723 -0.0983258)
(0.0025825 -0.0233072 -0.10162)
(0.000657964 -0.0150178 -0.105382)
(-0.00201518 -0.00388246 -0.11018)
(-0.00538584 0.0147818 -0.116251)
(-0.00855997 0.0521052 -0.120665)
(-0.00930541 0.129506 -0.112772)
(-0.00569627 0.251467 -0.0813622)
(-0.00201362 0.345471 -0.0436248)
(-0.000490987 0.334348 -0.00950155)
(9.59444e-05 -0.239203 -0.00506059)
(-0.00532217 -0.269161 -0.0184375)
(-0.0140038 -0.259799 -0.0216873)
(-0.0238276 -0.236276 -0.0205436)
(-0.0308538 -0.207788 -0.0180841)
(-0.0336153 -0.177668 -0.0163597)
(-0.0325702 -0.151281 -0.0168452)
(-0.0297515 -0.134342 -0.0192661)
(-0.0265163 -0.123857 -0.0226165)
(-0.0231272 -0.11648 -0.0265794)
(-0.0197272 -0.110758 -0.0310176)
(-0.0164688 -0.106006 -0.0357579)
(-0.0134394 -0.101748 -0.0406546)
(-0.0106276 -0.0975781 -0.0456671)
(-0.00800063 -0.0931885 -0.0507891)
(-0.00555697 -0.0883858 -0.0559355)
(-0.00327194 -0.0830315 -0.0610166)
(-0.00111328 -0.0770302 -0.0659637)
(0.000940071 -0.0703363 -0.070715)
(0.00289308 -0.0629525 -0.0752138)
(0.0047293 -0.0549287 -0.0794119)
(0.0064069 -0.0463598 -0.0832772)
(0.00785072 -0.0373719 -0.0868113)
(0.00896056 -0.0280517 -0.0900596)
(0.00962605 -0.0183689 -0.0931145)
(0.00970134 -0.00826497 -0.0960887)
(0.00900519 0.00241261 -0.0991258)
(0.00735526 0.0141832 -0.102438)
(0.00461925 0.0281223 -0.106382)
(0.000749824 0.0466075 -0.111432)
(-0.00391769 0.0759258 -0.117419)
(-0.007969 0.132095 -0.119028)
(-0.0077553 0.23261 -0.102527)
(-0.00330707 0.33003 -0.0685781)
(-0.000943325 0.327243 -0.0258787)
(-0.00707639 -0.218216 0.0131937)
(-0.0181546 -0.226464 -0.00155795)
(-0.0305337 -0.201936 -0.00405975)
(-0.0421754 -0.174635 -0.00172665)
(-0.0454623 -0.166243 -0.00141997)
(-0.0451901 -0.163847 -0.00195672)
(-0.0427029 -0.160189 -0.00347671)
(-0.0383547 -0.153757 -0.00642979)
(-0.0331696 -0.145652 -0.010707)
(-0.0281021 -0.137354 -0.0157904)
(-0.023543 -0.129563 -0.0211939)
(-0.0195075 -0.122336 -0.0266466)
(-0.0158445 -0.115485 -0.0320553)
(-0.0124584 -0.108796 -0.0374027)
(-0.00931839 -0.102062 -0.0426888)
(-0.00641291 -0.0951042 -0.0479263)
(-0.00373018 -0.0877932 -0.053121)
(-0.00125468 -0.0800406 -0.0582568)
(0.00103318 -0.07179 -0.0633014)
(0.00315636 -0.0629949 -0.0682227)
(0.00513647 -0.0535964 -0.0730006)
(0.00698498 -0.0435154 -0.0776249)
(0.00869074 -0.0326661 -0.0820759)
(0.0102104 -0.0209969 -0.0863366)
(0.0114644 -0.0085129 -0.09039)
(0.0123496 0.00474284 -0.0942253)
(0.0127215 0.0187802 -0.0978593)
(0.0123838 0.0338282 -0.101356)
(0.0111376 0.0505993 -0.104886)
(0.00882362 0.0708766 -0.108829)
(0.00539244 0.0992112 -0.113664)
(0.000919738 0.146618 -0.118223)
(-0.00279274 0.228711 -0.113423)
(-0.00167621 0.317782 -0.0888202)
(-0.000562615 0.322979 -0.0429887)
(-0.00978198 -0.151779 0.00786925)
(-0.0201438 -0.191368 -0.00597011)
(-0.0233257 -0.215219 -0.00531938)
(-0.022851 -0.23674 0.00123373)
(-0.019031 -0.249316 0.00994968)
(-0.0132662 -0.24995 0.0174468)
(-0.00660829 -0.240192 0.0227169)
(0.000520725 -0.222755 0.0252977)
(0.00754361 -0.201132 0.0248822)
(0.0134766 -0.178856 0.0215083)
(0.0172809 -0.159135 0.0156479)
(0.0188307 -0.143482 0.00821103)
(0.0189238 -0.131066 0.000122457)
(0.0184779 -0.120449 -0.00808068)
(0.0180656 -0.110648 -0.0161869)
(0.0178665 -0.101105 -0.0241262)
(0.0178673 -0.091489 -0.0318746)
(0.0180426 -0.0815971 -0.039423)
(0.0183345 -0.0713073 -0.0467505)
(0.0186792 -0.0605464 -0.0538217)
(0.0190256 -0.0492536 -0.0606031)
(0.0193443 -0.0373438 -0.0670809)
(0.0196274 -0.0246768 -0.0732539)
(0.0198765 -0.0110633 -0.0791214)
(0.0200845 0.00368883 -0.0846893)
(0.0201946 0.0197276 -0.0899599)
(0.0200867 0.0371243 -0.0949259)
(0.0196023 0.0559777 -0.0995762)
(0.0185425 0.0767164 -0.103925)
(0.0166886 0.100733 -0.108044)
(0.0137992 0.131736 -0.112089)
(0.0095354 0.178185 -0.115707)
(0.00411138 0.250257 -0.114232)
(0.00116886 0.323025 -0.0974823)
(-0.000593066 0.324788 -0.0542153)
(-0.00705936 -0.132549 0.0514677)
(-0.00794338 -0.238431 0.0631494)
(-0.00485689 -0.298241 0.0552512)
(-0.000327768 -0.33408 0.0452114)
(0.00507252 -0.353469 0.0367889)
(0.0113275 -0.360463 0.0312517)
(0.0185431 -0.355526 0.0292551)
(0.0269468 -0.337485 0.0311952)
(0.0363053 -0.305306 0.0368541)
(0.0457787 -0.258984 0.0446678)
(0.0535693 -0.204558 0.0511781)
(0.0569796 -0.158072 0.0519552)
(0.0556088 -0.128618 0.046481)
(0.0516455 -0.111591 0.0375471)
(0.0470081 -0.100239 0.0272494)
(0.0427409 -0.0908907 0.0164612)
(0.0392438 -0.0819036 0.00551078)
(0.0365399 -0.07247 -0.00550413)
(0.0345194 -0.0621825 -0.016538)
(0.0330267 -0.050894 -0.0274812)
(0.0318566 -0.0386358 -0.0381251)
(0.0308198 -0.0255061 -0.048239)
(0.0298019 -0.0115294 -0.0576641)
(0.0287402 0.00343694 -0.0663291)
(0.0276311 0.0196718 -0.0742366)
(0.0265014 0.0375456 -0.0814337)
(0.0253337 0.057439 -0.0879708)
(0.024031 0.0796793 -0.0938859)
(0.0224197 0.104691 -0.0992352)
(0.02029 0.133625 -0.104097)