/*--------------------------------*- C++ -*----------------------------------*\
| =========                 |                                                 |
| \\      /  F ield         | OpenFOAM: The Open Source CFD Toolbox           |
|  \\    /   O peration     | Version:  v1906                                 |
|   \\  /    A nd           | Web:      www.OpenFOAM.com                      |
|    \\/     M anipulation  |                                                 |
\*---------------------------------------------------------------------------*/
FoamFile
{
    version     2.0;
    format      ascii;
    class       volVectorField;
    location    "6.2/oil";
    object      U;
}
// * * * * * * * * * * * * * * * * * * * * * * * * * * * * * * * * * * * * * //

dimensions      [0 1 -1 0 0 0 0];


internalField   nonuniform List<vector> 
27760
(
(-3.53119e-05 -3.60362e-05 -3.53119e-05)
(-6.97662e-05 -2.70562e-05 -2.54286e-05)
(-5.20226e-06 -7.03697e-06 -6.91055e-06)
(-8.61164e-06 -1.17459e-06 -1.19555e-06)
(-2.24837e-06 -4.05537e-07 -4.22265e-07)
(-1.41868e-06 -2.02806e-07 -2.10045e-07)
(-6.73986e-07 -8.44576e-08 -8.69323e-08)
(-3.60638e-07 -3.99794e-08 -4.05397e-08)
(-1.9211e-07 -1.90844e-08 -1.895e-08)
(-1.04905e-07 -9.47157e-09 -9.11746e-09)
(-5.81437e-08 -4.69989e-09 -4.29746e-09)
(-3.39486e-08 -2.22278e-09 -1.82787e-09)
(-2.27509e-08 -8.58899e-10 -4.79777e-10)
(-1.93759e-08 -8.54966e-11 2.80066e-10)
(-2.06976e-08 3.4116e-10 6.98512e-10)
(-2.46428e-08 5.41149e-10 8.96595e-10)
(-2.97179e-08 5.78583e-10 9.38785e-10)
(-3.47928e-08 4.93502e-10 8.6604e-10)
(-3.90248e-08 3.19276e-10 7.13369e-10)
(-4.18279e-08 8.4367e-11 5.10889e-10)
(-4.28567e-08 -1.83099e-10 2.88178e-10)
(-4.19874e-08 -4.59595e-10 7.03355e-11)
(-3.92793e-08 -7.26324e-10 -1.20147e-10)
(-3.49386e-08 -9.71898e-10 -2.62965e-10)
(-2.92817e-08 -1.19075e-09 -3.36751e-10)
(-2.27154e-08 -1.37982e-09 -3.17549e-10)
(-1.57519e-08 -1.5245e-09 -1.81965e-10)
(-9.04607e-09 -1.57535e-09 7.19442e-11)
(-3.45331e-09 -1.38509e-09 3.4999e-10)
(-3.03804e-10 -7.42492e-10 4.41866e-10)
(-2.56512e-05 -7.16496e-05 -2.56513e-05)
(-8.52178e-06 -9.13227e-06 -1.14922e-05)
(-1.17183e-05 -1.10065e-05 -4.01324e-06)
(-5.87408e-06 -2.95187e-06 -1.13733e-06)
(-2.97101e-06 -1.65498e-06 -5.52646e-07)
(-1.77344e-06 -7.57507e-07 -2.5994e-07)
(-9.86061e-07 -3.87588e-07 -1.20101e-07)
(-5.76559e-07 -2.05256e-07 -5.77541e-08)
(-3.37732e-07 -1.15822e-07 -2.71523e-08)
(-2.01129e-07 -6.94369e-08 -1.21477e-08)
(-1.22135e-07 -4.43326e-08 -4.34078e-09)
(-7.81775e-08 -3.00659e-08 -8.74996e-11)
(-5.60391e-08 -2.16184e-08 2.35755e-09)
(-4.78253e-08 -1.65044e-08 3.79361e-09)
(-4.83614e-08 -1.34573e-08 4.60165e-09)
(-5.39909e-08 -1.17919e-08 4.97477e-09)
(-6.19733e-08 -1.11099e-08 5.02164e-09)
(-7.0187e-08 -1.11491e-08 4.81708e-09)
(-7.70309e-08 -1.17001e-08 4.43032e-09)
(-8.13849e-08 -1.25863e-08 3.92501e-09)
(-8.25859e-08 -1.36477e-08 3.36509e-09)
(-8.03924e-08 -1.47537e-08 2.80729e-09)
(-7.49146e-08 -1.58025e-08 2.30178e-09)
(-6.65439e-08 -1.67225e-08 1.88928e-09)
(-5.58781e-08 -1.74498e-08 1.60313e-09)
(-4.36803e-08 -1.78869e-08 1.46777e-09)
(-3.08763e-08 -1.78176e-08 1.49074e-09)
(-1.85488e-08 -1.67745e-08 1.62594e-09)
(-8.07154e-09 -1.37544e-08 1.69348e-09)
(-9.63025e-10 -7.10444e-09 1.16854e-09)
(-7.11945e-06 -6.48006e-06 -7.11947e-06)
(-1.14019e-05 -1.20159e-05 -4.14386e-06)
(-6.37673e-06 -6.25946e-06 -1.84901e-06)
(-4.36547e-06 -3.085e-06 -8.89567e-07)
(-2.57779e-06 -1.75473e-06 -4.33735e-07)
(-1.62287e-06 -9.47143e-07 -2.13277e-07)
(-9.86351e-07 -5.45551e-07 -1.03705e-07)
(-6.13931e-07 -3.26226e-07 -5.09995e-08)
(-3.81863e-07 -2.06367e-07 -2.40019e-08)
(-2.40209e-07 -1.38217e-07 -1.00454e-08)
(-1.54076e-07 -9.82193e-08 -2.39209e-09)
(-1.04027e-07 -7.39032e-08 2.01313e-09)
(-7.77683e-08 -5.87095e-08 4.67192e-09)
(-6.73686e-08 -4.90972e-08 6.29608e-09)
(-6.72622e-08 -4.31144e-08 7.22908e-09)
(-7.32966e-08 -3.96235e-08 7.65466e-09)
(-8.22416e-08 -3.79207e-08 7.68169e-09)
(-9.15295e-08 -3.75256e-08 7.39146e-09)
(-9.91931e-08 -3.8049e-08 6.86738e-09)
(-1.03849e-07 -3.91649e-08 6.1888e-09)
(-1.04681e-07 -4.0585e-08 5.43852e-09)
(-1.01401e-07 -4.20783e-08 4.69075e-09)
(-9.41656e-08 -4.34695e-08 4.01055e-09)
(-8.34843e-08 -4.46299e-08 3.44955e-09)
(-7.01154e-08 -4.54234e-08 3.04505e-09)
(-5.50041e-08 -4.56132e-08 2.81638e-09)
(-3.92563e-08 -4.46902e-08 2.75472e-09)
(-2.40718e-08 -4.16044e-08 2.77574e-09)
(-1.09754e-08 -3.41973e-08 2.65013e-09)
(-1.39914e-09 -1.81438e-08 1.66176e-09)
(-1.31386e-06 -9.18357e-06 -1.31389e-06)
(-3.25699e-06 -6.18743e-06 -1.22085e-06)
(-3.1753e-06 -4.46032e-06 -9.08255e-07)
(-2.58201e-06 -2.6405e-06 -5.08401e-07)
(-1.77521e-06 -1.63846e-06 -2.74974e-07)
(-1.22719e-06 -9.94734e-07 -1.464e-07)
(-8.15139e-07 -6.3007e-07 -7.56976e-08)
(-5.41872e-07 -4.12724e-07 -3.84975e-08)
(-3.5707e-07 -2.83723e-07 -1.81392e-08)
(-2.36164e-07 -2.05052e-07 -6.85187e-09)
(-1.58881e-07 -1.56006e-07 -2.41353e-10)
(-1.12407e-07 -1.24655e-07 3.81381e-09)
(-8.76673e-08 -1.04251e-07 6.39517e-09)
(-7.81592e-08 -9.0891e-08 8.03443e-09)
(-7.88775e-08 -8.22905e-08 8.99078e-09)
(-8.58021e-08 -7.70328e-08 9.41456e-09)
(-9.56497e-08 -7.42001e-08 9.40102e-09)
(-1.05706e-07 -7.31463e-08 9.02678e-09)
(-1.13843e-07 -7.33345e-08 8.38482e-09)
(-1.18559e-07 -7.43144e-08 7.56412e-09)
(-1.18972e-07 -7.56881e-08 6.66349e-09)
(-1.14803e-07 -7.7145e-08 5.76991e-09)
(-1.06272e-07 -7.84545e-08 4.96039e-09)
(-9.3992e-08 -7.9445e-08 4.2938e-09)
(-7.88421e-08 -7.9914e-08 3.81018e-09)
(-6.1883e-08 -7.94754e-08 3.52597e-09)
(-4.43149e-08 -7.72956e-08 3.42376e-09)
(-2.73755e-08 -7.166e-08 3.39808e-09)
(-1.26666e-08 -5.90351e-08 3.19277e-09)
(-1.64116e-09 -3.16945e-08 1.97194e-09)
(-4.65198e-07 -2.56819e-06 -4.65238e-07)
(-1.782e-06 -3.21906e-06 -5.90017e-07)
(-1.77934e-06 -2.75059e-06 -4.47867e-07)
(-1.56942e-06 -1.92343e-06 -2.79027e-07)
(-1.19336e-06 -1.33996e-06 -1.62997e-07)
(-8.8554e-07 -9.12594e-07 -9.22239e-08)
(-6.29079e-07 -6.36281e-07 -4.99744e-08)
(-4.40812e-07 -4.55292e-07 -2.59435e-08)
(-3.04109e-07 -3.38417e-07 -1.18061e-08)
(-2.09344e-07 -2.61983e-07 -3.32585e-09)
(-1.46434e-07 -2.11429e-07 2.04366e-09)
(-1.07995e-07 -1.775e-07 5.59177e-09)
(-8.80113e-08 -1.54519e-07 7.9889e-09)
(-8.15933e-08 -1.38948e-07 9.57434e-09)
(-8.45454e-08 -1.28576e-07 1.05079e-08)
(-9.32113e-08 -1.21933e-07 1.08986e-08)
(-1.04453e-07 -1.18025e-07 1.08221e-08)
(-1.15555e-07 -1.16136e-07 1.0344e-08)
(-1.24331e-07 -1.15647e-07 9.56764e-09)
(-1.29231e-07 -1.16037e-07 8.58944e-09)
(-1.29361e-07 -1.16844e-07 7.52665e-09)
(-1.24488e-07 -1.17717e-07 6.47956e-09)
(-1.14917e-07 -1.18403e-07 5.5374e-09)
(-1.01371e-07 -1.18718e-07 4.76557e-09)
(-8.4846e-08 -1.18416e-07 4.20698e-09)
(-6.64999e-08 -1.16972e-07 3.87622e-09)
(-4.76045e-08 -1.13218e-07 3.75056e-09)
(-2.94309e-08 -1.04718e-07 3.71208e-09)
(-1.36456e-08 -8.64024e-08 3.48657e-09)
(-1.76138e-09 -4.67021e-08 2.16166e-09)
(-2.25728e-07 -1.6088e-06 -2.25775e-07)
(-7.99491e-07 -1.99838e-06 -2.76831e-07)
(-9.27959e-07 -1.84007e-06 -2.21784e-07)
(-9.08588e-07 -1.4375e-06 -1.5014e-07)
(-7.60231e-07 -1.09559e-06 -9.33782e-08)
(-6.04548e-07 -8.17927e-07 -5.56283e-08)
(-4.55967e-07 -6.18828e-07 -3.11972e-08)
(-3.34561e-07 -4.77711e-07 -1.60894e-08)
(-2.39746e-07 -3.79918e-07 -6.42715e-09)
(-1.70495e-07 -3.12098e-07 -8.14784e-11)
(-1.23304e-07 -2.64954e-07 4.30556e-09)
(-9.47364e-08 -2.31983e-07 7.44223e-09)
(-8.12217e-08 -2.08864e-07 9.68705e-09)
(-7.9286e-08 -1.92688e-07 1.12262e-08)
(-8.55221e-08 -1.81521e-07 1.21302e-08)
(-9.66892e-08 -1.73978e-07 1.24756e-08)
(-1.09878e-07 -1.69094e-07 1.2319e-08)
(-1.22429e-07 -1.66175e-07 1.17116e-08)
(-1.32145e-07 -1.64596e-07 1.07693e-08)
(-1.37459e-07 -1.63833e-07 9.59771e-09)
(-1.37495e-07 -1.63424e-07 8.33745e-09)
(-1.32086e-07 -1.63028e-07 7.10426e-09)
(-1.21646e-07 -1.62422e-07 6.00146e-09)
(-1.07026e-07 -1.61448e-07 5.10212e-09)
(-8.93389e-08 -1.59845e-07 4.45192e-09)
(-6.98423e-08 -1.56966e-07 4.06379e-09)
(-4.98787e-08 -1.51302e-07 3.91074e-09)
(-3.07613e-08 -1.39658e-07 3.86652e-09)
(-1.42159e-08 -1.15302e-07 3.643e-09)
(-1.81389e-09 -6.25628e-08 2.2773e-09)
(-9.23565e-08 -8.26076e-07 -9.24076e-08)
(-3.90035e-07 -1.21505e-06 -1.27345e-07)
(-5.01976e-07 -1.23914e-06 -1.08436e-07)
(-5.31176e-07 -1.07538e-06 -7.85681e-08)
(-4.77838e-07 -8.94239e-07 -5.15117e-08)
(-4.01247e-07 -7.26186e-07 -3.19066e-08)
(-3.16739e-07 -5.92238e-07 -1.80515e-08)
(-2.40394e-07 -4.8961e-07 -8.63157e-09)
(-1.7683e-07 -4.13729e-07 -1.9817e-09)
(-1.28587e-07 -3.58297e-07 2.86452e-09)
(-9.55746e-08 -3.18088e-07 6.54771e-09)
(-7.67143e-08 -2.88965e-07 9.39559e-09)
(-7.00457e-08 -2.67903e-07 1.15398e-08)
(-7.31158e-08 -2.52679e-07 1.30523e-08)
(-8.31261e-08 -2.41711e-07 1.39274e-08)
(-9.71937e-08 -2.33767e-07 1.42224e-08)
(-1.12659e-07 -2.27986e-07 1.39772e-08)
(-1.26934e-07 -2.23778e-07 1.32215e-08)
(-1.37815e-07 -2.20588e-07 1.20878e-08)
(-1.43733e-07 -2.17973e-07 1.06911e-08)
(-1.43832e-07 -2.15536e-07 9.19977e-09)
(-1.38035e-07 -2.13025e-07 7.74789e-09)
(-1.26876e-07 -2.10302e-07 6.45656e-09)
(-1.11342e-07 -2.07287e-07 5.40592e-09)
(-9.26737e-08 -2.03737e-07 4.64467e-09)
(-7.22251e-08 -1.98899e-07 4.18336e-09)
(-5.14087e-08 -1.90926e-07 3.99085e-09)
(-3.15828e-08 -1.75829e-07 3.93496e-09)
(-1.45173e-08 -1.45132e-07 3.71653e-09)
(-1.82612e-09 -7.89094e-08 2.34239e-09)
(-4.17538e-08 -5.05438e-07 -4.18075e-08)
(-1.91033e-07 -8.22129e-07 -6.07714e-08)
(-2.70936e-07 -9.00613e-07 -5.38915e-08)
(-3.0666e-07 -8.46349e-07 -4.09764e-08)
(-2.92829e-07 -7.55733e-07 -2.78762e-08)
(-2.56806e-07 -6.57945e-07 -1.75061e-08)
(-2.09504e-07 -5.71868e-07 -9.44228e-09)
(-1.62363e-07 -5.01264e-07 -3.33692e-09)
(-1.20921e-07 -4.46236e-07 1.47532e-09)
(-8.88258e-08 -4.04408e-07 5.38209e-09)
(-6.75485e-08 -3.73113e-07 8.62717e-09)
(-5.72705e-08 -3.49851e-07 1.13075e-08)
(-5.69831e-08 -3.32584e-07 1.34013e-08)
(-6.48855e-08 -3.19643e-07 1.49047e-08)
(-7.85902e-08 -3.09751e-07 1.57515e-08)
(-9.54967e-08 -3.01837e-07 1.59963e-08)
(-1.13204e-07 -2.95177e-07 1.56662e-08)
(-1.29203e-07 -2.89347e-07 1.47603e-08)
(-1.41276e-07 -2.83933e-07 1.34304e-08)
(-1.47854e-07 -2.78649e-07 1.17971e-08)
(-1.48102e-07 -2.73253e-07 1.0061e-08)
(-1.42039e-07 -2.67652e-07 8.37671e-09)
(-1.30323e-07 -2.61869e-07 6.88501e-09)
(-1.14077e-07 -2.5595e-07 5.67275e-09)
(-9.46644e-08 -2.49714e-07 4.79086e-09)
(-7.3528e-08 -2.42321e-07 4.2466e-09)
(-5.21371e-08 -2.31582e-07 4.00536e-09)
(-3.18859e-08 -2.12697e-07 3.93036e-09)
(-1.45639e-08 -1.75407e-07 3.71697e-09)
(-1.80292e-09 -9.54536e-08 2.36061e-09)
(-1.85843e-08 -3.42567e-07 -1.86394e-08)
(-9.51922e-08 -6.05189e-07 -2.86164e-08)
(-1.46496e-07 -7.01222e-07 -2.6373e-08)
(-1.74967e-07 -7.01674e-07 -2.08188e-08)
(-1.74672e-07 -6.64196e-07 -1.44092e-08)
(-1.57713e-07 -6.12309e-07 -8.76642e-09)
(-1.30843e-07 -5.61283e-07 -3.85559e-09)
(-1.01691e-07 -5.16727e-07 3.44211e-10)
(-7.51246e-08 -4.80619e-07 4.05457e-09)
(-5.47441e-08 -4.52531e-07 7.38235e-09)
(-4.25273e-08 -4.31223e-07 1.03551e-08)
(-3.92125e-08 -4.15187e-07 1.29334e-08)
(-4.42632e-08 -4.03008e-07 1.49906e-08)
(-5.62427e-08 -3.93387e-07 1.64785e-08)
(-7.30138e-08 -3.8527e-07 1.72835e-08)
(-9.22028e-08 -3.77718e-07 1.74805e-08)
(-1.11689e-07 -3.70152e-07 1.7087e-08)
(-1.29056e-07 -3.62342e-07 1.60557e-08)
(-1.4208e-07 -3.54077e-07 1.45573e-08)
(-1.49193e-07 -3.45291e-07 1.27135e-08)
(-1.49576e-07 -3.35973e-07 1.0758e-08)
(-1.43343e-07 -3.2628e-07 8.86428e-09)
(-1.31268e-07 -3.16465e-07 7.19112e-09)
(-1.14598e-07 -3.0676e-07 5.83266e-09)
(-9.47926e-08 -2.97082e-07 4.84051e-09)
(-7.33598e-08 -2.86524e-07 4.21896e-09)
(-5.18007e-08 -2.72564e-07 3.92924e-09)
(-3.15204e-08 -2.49587e-07 3.83348e-09)
(-1.42938e-08 -2.05543e-07 3.63002e-09)
(-1.73697e-09 -1.11863e-07 2.32501e-09)
(-8.28845e-09 -2.64857e-07 -8.34404e-09)
(-4.7187e-08 -4.90587e-07 -1.33611e-08)
(-7.79537e-08 -5.89223e-07 -1.26972e-08)
(-9.71314e-08 -6.16065e-07 -1.02112e-08)
(-9.99568e-08 -6.09204e-07 -6.91517e-09)
(-9.14742e-08 -5.86993e-07 -3.62902e-09)
(-7.56236e-08 -5.61283e-07 -3.96497e-10)
(-5.73756e-08 -5.37514e-07 2.72301e-09)
(-4.05927e-08 -5.18039e-07 5.77186e-09)
(-2.84081e-08 -5.03151e-07 8.72867e-09)
(-2.2803e-08 -4.92211e-07 1.15078e-08)
(-2.46746e-08 -4.84164e-07 1.39933e-08)
(-3.36712e-08 -4.7789e-07 1.59897e-08)
(-4.85409e-08 -4.72286e-07 1.74296e-08)
(-6.72954e-08 -4.66418e-07 1.81695e-08)
(-8.77652e-08 -4.59451e-07 1.8322e-08)
(-1.08156e-07 -4.50944e-07 1.78976e-08)
(-1.26177e-07 -4.40852e-07 1.679e-08)
(-1.39617e-07 -4.29189e-07 1.51852e-08)
(-1.46929e-07 -4.16163e-07 1.3197e-08)
(-1.47323e-07 -4.02071e-07 1.10876e-08)
(-1.40995e-07 -3.87388e-07 9.047e-09)
(-1.28812e-07 -3.72672e-07 7.24872e-09)
(-1.12109e-07 -3.584e-07 5.791e-09)
(-9.24e-08 -3.44613e-07 4.72393e-09)
(-7.12165e-08 -3.30365e-07 4.04828e-09)
(-5.00489e-08 -3.12809e-07 3.7236e-09)
(-3.0275e-08 -2.85534e-07 3.6152e-09)
(-1.36105e-08 -2.34751e-07 3.43309e-09)
(-1.61586e-09 -1.27707e-07 2.22426e-09)
(-3.52213e-09 -2.27383e-07 -3.57829e-09)
(-2.28372e-08 -4.30532e-07 -5.96754e-09)
(-4.02373e-08 -5.27702e-07 -5.8071e-09)
(-5.18205e-08 -5.67745e-07 -4.63038e-09)
(-5.42223e-08 -5.79124e-07 -2.81448e-09)
(-4.9379e-08 -5.76614e-07 -7.39408e-10)
(-3.95568e-08 -5.69483e-07 1.55636e-09)
(-2.79888e-08 -5.62364e-07 4.01194e-09)
(-1.76102e-08 -5.57322e-07 6.59939e-09)
(-1.09932e-08 -5.54696e-07 9.245e-09)
(-9.90023e-09 -5.5393e-07 1.18089e-08)
(-1.51864e-08 -5.54052e-07 1.4137e-08)
(-2.65388e-08 -5.53987e-07 1.59977e-08)
(-4.28026e-08 -5.52687e-07 1.73236e-08)
(-6.21116e-08 -5.49267e-07 1.79598e-08)
(-8.25192e-08 -5.43009e-07 1.80703e-08)
(-1.02591e-07 -5.33582e-07 1.76612e-08)
(-1.20223e-07 -5.21076e-07 1.65581e-08)
(-1.33271e-07 -5.05724e-07 1.4951e-08)
(-1.40256e-07 -4.88013e-07 1.29374e-08)
(-1.40433e-07 -4.68599e-07 1.0799e-08)
(-1.34068e-07 -4.48334e-07 8.73004e-09)
(-1.22083e-07 -4.28141e-07 6.9108e-09)
(-1.05847e-07 -4.08781e-07 5.43925e-09)
(-8.68614e-08 -3.90457e-07 4.36305e-09)
(-6.66199e-08 -3.72198e-07 3.6796e-09)
(-4.65467e-08 -3.50858e-07 3.34801e-09)
(-2.79486e-08 -3.19273e-07 3.24476e-09)
(-1.24233e-08 -2.62022e-07 3.10434e-09)
(-1.42719e-09 -1.42448e-07 2.04728e-09)
(-1.35797e-09 -2.10189e-07 -1.41448e-09)
(-1.06178e-08 -4.00308e-07 -2.47007e-09)
(-2.00597e-08 -4.95365e-07 -2.44219e-09)
(-2.66417e-08 -5.42204e-07 -1.83169e-09)
(-2.81331e-08 -5.64768e-07 -7.43691e-10)
(-2.51584e-08 -5.75639e-07 6.6822e-10)
(-1.90164e-08 -5.82289e-07 2.38516e-09)
(-1.18189e-08 -5.88479e-07 4.36299e-09)
(-5.74033e-09 -5.95738e-07 6.55392e-09)
(-2.80678e-09 -6.04117e-07 8.87021e-09)
(-4.48303e-09 -6.12846e-07 1.11563e-08)
(-1.15007e-08 -6.20798e-07 1.32469e-08)
(-2.35513e-08 -6.26772e-07 1.49029e-08)
(-3.95767e-08 -6.2969e-07 1.60634e-08)
(-5.78706e-08 -6.2868e-07 1.6577e-08)
(-7.67426e-08 -6.23171e-07 1.6647e-08)
(-9.51068e-08 -6.12919e-07 1.62763e-08)
(-1.11106e-07 -5.98052e-07 1.52392e-08)
(-1.22758e-07 -5.79002e-07 1.37231e-08)
(-1.28722e-07 -5.56511e-07 1.18085e-08)
(-1.28355e-07 -5.31629e-07 9.7769e-09)
(-1.21984e-07 -5.0562e-07 7.8164e-09)
(-1.10537e-07 -4.79797e-07 6.1011e-09)
(-9.53329e-08 -4.55226e-07 4.72078e-09)
(-7.77875e-08 -4.32285e-07 3.71638e-09)
(-5.92767e-08 -4.09995e-07 3.08267e-09)
(-4.10938e-08 -3.84943e-07 2.78207e-09)
(-2.44207e-08 -3.49295e-07 2.70854e-09)
(-1.06781e-08 -2.86176e-07 2.63381e-09)
(-1.1646e-09 -1.55461e-07 1.78896e-09)
(-4.45954e-10 -2.02615e-07 -5.03756e-10)
(-4.96147e-09 -3.85312e-07 -9.50802e-10)
(-1.03232e-08 -4.78497e-07 -9.60372e-10)
(-1.43943e-08 -5.28908e-07 -6.20845e-10)
(-1.57078e-08 -5.58484e-07 6.39897e-11)
(-1.43434e-08 -5.78541e-07 1.04412e-09)
(-1.10186e-08 -5.95364e-07 2.31428e-09)
(-7.08746e-09 -6.11964e-07 3.84498e-09)
(-4.09301e-09 -6.29303e-07 5.58939e-09)
(-3.55144e-09 -6.47019e-07 7.46506e-09)
(-6.60697e-09 -6.64002e-07 9.32939e-09)
(-1.38401e-08 -6.78844e-07 1.10328e-08)
(-2.49741e-08 -6.90134e-07 1.23607e-08)
(-3.91081e-08 -6.96754e-07 1.32651e-08)
(-5.47916e-08 -6.97856e-07 1.3627e-08)
(-7.06356e-08 -6.93063e-07 1.36546e-08)
(-8.58377e-08 -6.82196e-07 1.3352e-08)
(-9.88562e-08 -6.65323e-07 1.24787e-08)
(-1.08003e-07 -6.42999e-07 1.11953e-08)
(-1.12184e-07 -6.16184e-07 9.56433e-09)
(-1.10917e-07 -5.86295e-07 7.83701e-09)
(-1.04577e-07 -5.54996e-07 6.17636e-09)
(-9.40329e-08 -5.23984e-07 4.73366e-09)
(-8.04656e-08 -4.94621e-07 3.58166e-09)
(-6.51114e-08 -4.67453e-07 2.7533e-09)
(-4.91474e-08 -4.41504e-07 2.2423e-09)
(-3.36702e-08 -4.13149e-07 2.01959e-09)
(-1.96845e-08 -3.73995e-07 2.00517e-09)
(-8.37487e-09 -3.05967e-07 2.02275e-09)
(-8.28635e-10 -1.66095e-07 1.45129e-09)
(-1.74057e-10 -1.98963e-07 -2.33047e-10)
(-3.02444e-09 -3.76899e-07 -4.83691e-10)
(-7.0057e-09 -4.68318e-07 -5.26203e-10)
(-1.06132e-08 -5.20409e-07 -3.45376e-10)
(-1.28147e-08 -5.54258e-07 7.46192e-11)
(-1.34328e-08 -5.80454e-07 7.20638e-10)
(-1.27867e-08 -6.04513e-07 1.59169e-09)
(-1.1663e-08 -6.28866e-07 2.67191e-09)
(-1.10545e-08 -6.53981e-07 3.92884e-09)
(-1.19968e-08 -6.79091e-07 5.30268e-09)
(-1.53093e-08 -7.02732e-07 6.68797e-09)
(-2.14405e-08 -7.23211e-07 7.96955e-09)
(-3.02306e-08 -7.38887e-07 8.98297e-09)
(-4.1041e-08 -7.48573e-07 9.67492e-09)
(-5.28021e-08 -7.51442e-07 9.9494e-09)
(-6.44386e-08 -7.47281e-07 9.93428e-09)
(-7.52746e-08 -7.35956e-07 9.63705e-09)
(-8.41148e-08 -7.17467e-07 8.89207e-09)
(-8.97188e-08 -6.92463e-07 7.84544e-09)
(-9.13656e-08 -6.6209e-07 6.55993e-09)
(-8.88212e-08 -6.28089e-07 5.23535e-09)
(-8.25006e-08 -5.92464e-07 3.99094e-09)
(-7.31619e-08 -5.57232e-07 2.93376e-09)
(-6.1762e-08 -5.23998e-07 2.10997e-09)
(-4.9265e-08 -4.93448e-07 1.53632e-09)
(-3.6574e-08 -4.64605e-07 1.20485e-09)
(-2.45247e-08 -4.33684e-07 1.09754e-09)
(-1.38973e-08 -3.91883e-07 1.16639e-09)
(-5.58989e-09 -3.20249e-07 1.2965e-09)
(-4.30927e-10 -1.73753e-07 1.04689e-09)
(-2.41459e-10 -1.9598e-07 -3.02506e-10)
(-3.25637e-09 -3.69725e-07 -5.96437e-10)
(-7.68308e-09 -4.5906e-07 -6.96463e-10)
(-1.23667e-08 -5.11444e-07 -6.40861e-10)
(-1.6456e-08 -5.47506e-07 -4.40014e-10)
(-1.96088e-08 -5.77374e-07 -1.08723e-10)
(-2.18206e-08 -6.06054e-07 3.48619e-10)
(-2.34055e-08 -6.35539e-07 9.20246e-10)
(-2.48555e-08 -6.65926e-07 1.58682e-09)
(-2.67395e-08 -6.96135e-07 2.31695e-09)
(-2.95552e-08 -7.24425e-07 3.05698e-09)
(-3.36235e-08 -7.48879e-07 3.74543e-09)
(-3.8948e-08 -7.67688e-07 4.29922e-09)
(-4.52277e-08 -7.79602e-07 4.67239e-09)
(-5.18788e-08 -7.8379e-07 4.81401e-09)
(-5.8182e-08 -7.80134e-07 4.75e-09)
(-6.35422e-08 -7.68532e-07 4.50003e-09)
(-6.71759e-08 -7.48973e-07 3.9966e-09)
(-6.84101e-08 -7.22196e-07 3.35078e-09)
(-6.69782e-08 -6.89487e-07 2.60823e-09)
(-6.29353e-08 -6.52811e-07 1.88328e-09)
(-5.67086e-08 -6.14401e-07 1.23618e-09)
(-4.88798e-08 -5.76485e-07 7.15741e-10)
(-4.01071e-08 -5.40817e-07 3.3704e-10)
(-3.10124e-08 -5.08163e-07 1.03301e-10)
(-2.21653e-08 -4.77548e-07 9.9183e-12)
(-1.40983e-08 -4.4509e-07 5.39557e-11)
(-7.33676e-09 -4.01759e-07 2.27502e-10)
(-2.45441e-09 -3.28107e-07 4.87199e-10)
(1.17158e-11 -1.77958e-07 5.93755e-10)
(-4.84249e-10 -1.91817e-07 -5.47411e-10)
(-4.71377e-09 -3.6056e-07 -1.01577e-09)
(-1.07238e-08 -4.47088e-07 -1.19209e-09)
(-1.74907e-08 -4.98536e-07 -1.24578e-09)
(-2.41693e-08 -5.35095e-07 -1.2333e-09)
(-3.02645e-08 -5.66514e-07 -1.18843e-09)
(-3.54746e-08 -5.97424e-07 -1.1236e-09)
(-3.96968e-08 -6.29516e-07 -1.0459e-09)
(-4.2962e-08 -6.62643e-07 -9.53821e-10)
(-4.53954e-08 -6.95546e-07 -8.42248e-10)
(-4.71895e-08 -7.26342e-07 -7.02514e-10)
(-4.85593e-08 -7.53003e-07 -5.38729e-10)
(-4.97227e-08 -7.73636e-07 -3.55905e-10)
(-5.0776e-08 -7.86921e-07 -2.0831e-10)
(-5.16656e-08 -7.91984e-07 -1.35264e-10)
(-5.20352e-08 -7.88691e-07 -2.38859e-10)
(-5.13503e-08 -7.76981e-07 -4.88056e-10)
(-4.92511e-08 -7.56921e-07 -8.2622e-10)
(-4.56802e-08 -7.29364e-07 -1.14457e-09)
(-4.08758e-08 -6.95719e-07 -1.39434e-09)
(-3.52051e-08 -6.58062e-07 -1.54431e-09)
(-2.90951e-08 -6.1871e-07 -1.59885e-09)
(-2.29249e-08 -5.79948e-07 -1.5752e-09)
(-1.70079e-08 -5.43568e-07 -1.49575e-09)
(-1.15885e-08 -5.10345e-07 -1.37699e-09)
(-6.87315e-09 -4.79296e-07 -1.22295e-09)
(-3.06534e-09 -4.46513e-07 -1.02103e-09)
(-4.18592e-10 -4.02925e-07 -7.40395e-10)
(8.35369e-10 -3.29009e-07 -3.50276e-10)
(4.70461e-10 -1.78437e-07 1.21485e-10)
(-8.08956e-10 -1.85489e-07 -8.74338e-10)
(-6.78344e-09 -3.47606e-07 -1.5811e-09)
(-1.49799e-08 -4.30331e-07 -1.84623e-09)
(-2.4365e-08 -4.79692e-07 -2.00188e-09)
(-3.39965e-08 -5.15262e-07 -2.16255e-09)
(-4.32227e-08 -5.46376e-07 -2.39096e-09)
(-5.1469e-08 -5.77358e-07 -2.712e-09)
(-5.82639e-08 -6.09696e-07 -3.13451e-09)
(-6.32193e-08 -6.43122e-07 -3.64407e-09)
(-6.6052e-08 -6.76336e-07 -4.20794e-09)
(-6.66622e-08 -7.07472e-07 -4.76033e-09)
(-6.51454e-08 -7.34528e-07 -5.24402e-09)
(-6.18894e-08 -7.5563e-07 -5.57487e-09)
(-5.7353e-08 -7.69393e-07 -5.7871e-09)
(-5.20144e-08 -7.74865e-07 -5.8656e-09)
(-4.5961e-08 -7.7181e-07 -6.00421e-09)
(-3.88421e-08 -7.60209e-07 -6.16127e-09)
(-3.07992e-08 -7.40286e-07 -6.1813e-09)
(-2.23881e-08 -7.13053e-07 -6.01125e-09)
(-1.42957e-08 -6.79999e-07 -5.62797e-09)
(-7.13831e-09 -6.43181e-07 -5.09594e-09)
(-1.2915e-09 -6.04854e-07 -4.48619e-09)
(3.09789e-09 -5.67206e-07 -3.87535e-09)
(6.07054e-09 -5.31934e-07 -3.31499e-09)
(7.76133e-09 -4.99757e-07 -2.83319e-09)
(8.32343e-09 -4.69668e-07 -2.42757e-09)
(7.87296e-09 -4.37815e-07 -2.06815e-09)
(6.42297e-09 -3.95275e-07 -1.68336e-09)
(4.07766e-09 -3.22876e-07 -1.16891e-09)
(9.19886e-10 -1.75148e-07 -3.44038e-10)
(-1.15038e-09 -1.76598e-07 -1.2173e-09)
(-9.02132e-09 -3.30106e-07 -2.17555e-09)
(-1.95714e-08 -4.07929e-07 -2.52497e-09)
(-3.16773e-08 -4.54164e-07 -2.76315e-09)
(-4.42486e-08 -4.87481e-07 -3.06187e-09)
(-5.64758e-08 -5.16723e-07 -3.51279e-09)
(-6.75416e-08 -5.45914e-07 -4.15344e-09)
(-7.66596e-08 -5.76392e-07 -4.99264e-09)
(-8.30857e-08 -6.07871e-07 -6.00452e-09)
(-8.61894e-08 -6.39129e-07 -7.13178e-09)
(-8.56089e-08 -6.68449e-07 -8.26358e-09)
(-8.13229e-08 -6.9399e-07 -9.29523e-09)
(-7.38407e-08 -7.14026e-07 -1.00726e-08)
(-6.39128e-08 -7.27193e-07 -1.06052e-08)
(-5.24881e-08 -7.32516e-07 -1.08269e-08)
(-4.01329e-08 -7.29616e-07 -1.09752e-08)
(-2.68181e-08 -7.18516e-07 -1.10129e-08)
(-1.32015e-08 -6.99638e-07 -1.07255e-08)
(-3.69794e-10 -6.74079e-07 -1.01209e-08)
(1.06451e-08 -6.4331e-07 -9.19705e-09)
(1.90533e-08 -6.09233e-07 -8.09349e-09)
(2.45569e-08 -5.73895e-07 -6.93164e-09)
(2.72334e-08 -5.39254e-07 -5.83346e-09)
(2.74446e-08 -5.06819e-07 -4.87462e-09)
(2.56673e-08 -4.77191e-07 -4.09274e-09)
(2.23769e-08 -4.49356e-07 -3.4819e-09)
(1.79792e-08 -4.19588e-07 -2.99675e-09)
(1.27356e-08 -3.79305e-07 -2.52979e-09)
(7.06092e-09 -3.10091e-07 -1.91265e-09)
(1.32971e-09 -1.68289e-07 -7.72164e-10)
(-1.46759e-09 -1.65167e-07 -1.53612e-09)
(-1.11232e-08 -3.08087e-07 -2.72732e-09)
(-2.38752e-08 -3.79977e-07 -3.14852e-09)
(-3.84789e-08 -4.22231e-07 -3.44782e-09)
(-5.36803e-08 -4.52326e-07 -3.84814e-09)
(-6.85299e-08 -4.78503e-07 -4.46869e-09)
(-8.20071e-08 -5.04484e-07 -5.35646e-09)
(-9.30747e-08 -5.31493e-07 -6.52444e-09)
(-1.0071e-07 -5.59283e-07 -7.94176e-09)
(-1.04006e-07 -5.8679e-07 -9.53573e-09)
(-1.02386e-07 -6.1255e-07 -1.11699e-08)
(-9.57138e-08 -6.34995e-07 -1.2702e-08)
(-8.45406e-08 -6.52642e-07 -1.39258e-08)
(-6.98154e-08 -6.6425e-07 -1.48052e-08)
(-5.28425e-08 -6.6891e-07 -1.5215e-08)
(-3.46764e-08 -6.66138e-07 -1.53607e-08)
(-1.57847e-08 -6.55997e-07 -1.52124e-08)
(2.66582e-09 -6.39062e-07 -1.45718e-08)
(1.91951e-08 -6.16391e-07 -1.35184e-08)
(3.25514e-08 -5.89344e-07 -1.20924e-08)
(4.18713e-08 -5.59563e-07 -1.0492e-08)
(4.69569e-08 -5.28769e-07 -8.87277e-09)
(4.80853e-08 -4.98611e-07 -7.38439e-09)
(4.58839e-08 -4.70347e-07 -6.1138e-09)
(4.11064e-08 -4.44433e-07 -5.1025e-09)
(3.44923e-08 -4.1986e-07 -4.33876e-09)
(2.66907e-08 -3.93095e-07 -3.76401e-09)
(1.81723e-08 -3.56064e-07 -3.24148e-09)
(9.62491e-09 -2.91458e-07 -2.5468e-09)
(1.67982e-09 -1.58276e-07 -1.1429e-09)
(-1.73417e-09 -1.51498e-07 -1.8032e-09)
(-1.2888e-08 -2.82094e-07 -3.18579e-09)
(-2.74693e-08 -3.47213e-07 -3.65725e-09)
(-4.41122e-08 -3.84873e-07 -3.98961e-09)
(-6.14133e-08 -4.11111e-07 -4.44503e-09)
(-7.83048e-08 -4.33458e-07 -5.16262e-09)
(-9.36101e-08 -4.55308e-07 -6.19631e-09)
(-1.06109e-07 -4.77785e-07 -7.56054e-09)
(-1.14584e-07 -5.00717e-07 -9.22057e-09)
(-1.1794e-07 -5.23252e-07 -1.10962e-08)
(-1.15445e-07 -5.44223e-07 -1.30372e-08)
(-1.06874e-07 -5.62392e-07 -1.48819e-08)
(-9.27712e-08 -5.76607e-07 -1.63994e-08)
(-7.42113e-08 -5.8586e-07 -1.7513e-08)
(-5.27398e-08 -5.89408e-07 -1.80634e-08)
(-2.9833e-08 -5.86784e-07 -1.81942e-08)
(-6.48488e-09 -5.78075e-07 -1.78834e-08)
(1.57155e-08 -5.63876e-07 -1.6985e-08)
(3.50272e-08 -5.45091e-07 -1.56255e-08)
(5.00775e-08 -5.22857e-07 -1.38812e-08)
(6.0002e-08 -4.98464e-07 -1.19785e-08)
(6.46945e-08 -4.73265e-07 -1.00891e-08)
(6.45841e-08 -4.48556e-07 -8.37495e-09)
(6.04852e-08 -4.25318e-07 -6.92769e-09)
(5.33509e-08 -4.03858e-07 -5.78966e-09)
(4.41167e-08 -3.83186e-07 -4.94584e-09)
(3.36188e-08 -3.60028e-07 -4.33023e-09)
(2.24959e-08 -3.26954e-07 -3.78494e-09)
(1.16599e-08 -2.68055e-07 -3.04442e-09)
(1.95505e-09 -1.45674e-07 -1.44147e-09)
(-1.93674e-09 -1.36059e-07 -2.00586e-09)
(-1.42155e-08 -2.52996e-07 -3.5304e-09)
(-3.01449e-08 -3.10768e-07 -4.03042e-09)
(-4.82566e-08 -3.43502e-07 -4.36949e-09)
(-6.70258e-08 -3.65596e-07 -4.83812e-09)
(-8.52961e-08 -3.83797e-07 -5.58865e-09)
(-1.01784e-07 -4.01144e-07 -6.67868e-09)
(-1.15158e-07 -4.18669e-07 -8.12146e-09)
(-1.24082e-07 -4.36296e-07 -9.87996e-09)
(-1.27358e-07 -4.53388e-07 -1.18725e-08)
(-1.24163e-07 -4.6909e-07 -1.39479e-08)
(-1.14216e-07 -4.8252e-07 -1.5939e-08)
(-9.80325e-08 -4.92878e-07 -1.76104e-08)
(-7.67458e-08 -4.9944e-07 -1.88525e-08)
(-5.20442e-08 -5.01693e-07 -1.94904e-08)
(-2.57175e-08 -4.99266e-07 -1.96015e-08)
(7.7221e-10 -4.92252e-07 -1.91709e-08)
(2.55281e-08 -4.81172e-07 -1.81139e-08)
(4.66693e-08 -4.66705e-07 -1.65816e-08)
(6.27821e-08 -4.49705e-07 -1.46819e-08)
(7.30409e-08 -4.31084e-07 -1.26472e-08)
(7.74086e-08 -4.11821e-07 -1.06516e-08)
(7.64124e-08 -3.92854e-07 -8.85469e-09)
(7.09787e-08 -3.74906e-07 -7.34835e-09)
(6.21807e-08 -3.58132e-07 -6.17301e-09)
(5.10801e-08 -3.41583e-07 -5.31313e-09)
(3.86421e-08 -3.22287e-07 -4.69944e-09)
(2.56309e-08 -2.93564e-07 -4.16039e-09)
(1.31311e-08 -2.4111e-07 -3.40235e-09)
(2.15083e-09 -1.31122e-07 -1.6639e-09)
(-2.07325e-09 -1.19381e-07 -2.1412e-09)
(-1.50848e-08 -2.21774e-07 -3.75685e-09)
(-3.18578e-08 -2.71897e-07 -4.26537e-09)
(-5.08496e-08 -2.9963e-07 -4.59005e-09)
(-7.04511e-08 -3.17599e-07 -5.03775e-09)
(-8.94491e-08 -3.31718e-07 -5.76668e-09)
(-1.06498e-07 -3.44661e-07 -6.83348e-09)
(-1.20211e-07 -3.57364e-07 -8.24937e-09)
(-1.2921e-07 -3.6984e-07 -9.97613e-09)
(-1.32262e-07 -3.81658e-07 -1.19333e-08)
(-1.28521e-07 -3.92258e-07 -1.39781e-08)
(-1.17684e-07 -4.01087e-07 -1.59475e-08)
(-1.00237e-07 -4.07679e-07 -1.76209e-08)
(-7.73308e-08 -4.11613e-07 -1.88718e-08)
(-5.07111e-08 -4.12606e-07 -1.95298e-08)
(-2.23576e-08 -4.10425e-07 -1.96201e-08)
(5.9344e-09 -4.05164e-07 -1.91329e-08)
(3.209e-08 -3.97207e-07 -1.80349e-08)
(5.418e-08 -3.86995e-07 -1.648e-08)
(7.08019e-08 -3.75074e-07 -1.45918e-08)
(8.1183e-08 -3.62005e-07 -1.25882e-08)
(8.53276e-08 -3.48418e-07 -1.06373e-08)
(8.38021e-08 -3.34932e-07 -8.88709e-09)
(7.75738e-08 -3.22025e-07 -7.42495e-09)
(6.77693e-08 -3.09737e-07 -6.29066e-09)
(5.55134e-08 -2.97176e-07 -5.4692e-09)
(4.18516e-08 -2.81703e-07 -4.89135e-09)
(2.76334e-08 -2.5744e-07 -4.38127e-09)
(1.40645e-08 -2.11828e-07 -3.62985e-09)
(2.2704e-09 -1.15256e-07 -1.81428e-09)
(-2.14908e-09 -1.01974e-07 -2.21469e-09)
(-1.55303e-08 -1.89371e-07 -3.87645e-09)
(-3.26862e-08 -2.31785e-07 -4.3801e-09)
(-5.2032e-08 -2.54653e-07 -4.67813e-09)
(-7.19082e-08 -2.68755e-07 -5.08389e-09)
(-9.10729e-08 -2.79151e-07 -5.75633e-09)
(-1.08158e-07 -2.88142e-07 -6.74831e-09)
(-1.21768e-07 -2.96568e-07 -8.06755e-09)
(-1.30536e-07 -3.04515e-07 -9.67662e-09)
(-1.33256e-07 -3.11738e-07 -1.14981e-08)
(-1.29103e-07 -3.17922e-07 -1.34019e-08)
(-1.17788e-07 -3.22788e-07 -1.52375e-08)
(-9.97761e-08 -3.26155e-07 -1.68091e-08)
(-7.62026e-08 -3.27855e-07 -1.79859e-08)
(-4.8809e-08 -3.27811e-07 -1.86139e-08)
(-1.96494e-08 -3.25922e-07 -1.8686e-08)
(9.28791e-09 -3.22271e-07 -1.81957e-08)
(3.58648e-08 -3.17106e-07 -1.71426e-08)
(5.81784e-08 -3.10644e-07 -1.56701e-08)
(7.48678e-08 -3.03163e-07 -1.39056e-08)
(8.52099e-08 -2.9493e-07 -1.20424e-08)
(8.922e-08 -2.8628e-07 -1.02339e-08)
(8.74604e-08 -2.77572e-07 -8.61368e-09)
(8.08836e-08 -2.69082e-07 -7.26242e-09)
(7.06152e-08 -2.60754e-07 -6.21809e-09)
(5.7796e-08 -2.51768e-07 -5.4678e-09)
(4.35104e-08 -2.3984e-07 -4.94582e-09)
(2.86615e-08 -2.19923e-07 -4.47765e-09)
(1.45323e-08 -1.81269e-07 -3.74837e-09)
(2.32371e-09 -9.86434e-08 -1.90336e-09)
(-2.17185e-09 -8.42887e-08 -2.23364e-09)
(-1.56106e-08 -1.56602e-07 -3.9043e-09)
(-3.27612e-08 -1.91436e-07 -4.39447e-09)
(-5.20289e-08 -2.09708e-07 -4.66176e-09)
(-7.17369e-08 -2.2034e-07 -5.01752e-09)
(-9.06344e-08 -2.27536e-07 -5.61656e-09)
(-1.07359e-07 -2.33231e-07 -6.50752e-09)
(-1.20542e-07 -2.38162e-07 -7.69466e-09)
(-1.28864e-07 -2.42467e-07 -9.14042e-09)
(-1.31185e-07 -2.46046e-07 -1.07722e-08)
(-1.26734e-07 -2.48773e-07 -1.24751e-08)
(-1.15263e-07 -2.50579e-07 -1.41151e-08)
(-9.72209e-08 -2.51486e-07 -1.55236e-08)
(-7.37134e-08 -2.51523e-07 -1.65777e-08)
(-4.64319e-08 -2.50756e-07 -1.71462e-08)
(-1.74178e-08 -2.49189e-07 -1.72035e-08)
(1.12768e-08 -2.46893e-07 -1.67456e-08)
(3.75382e-08 -2.43993e-07 -1.57919e-08)
(5.95329e-08 -2.40539e-07 -1.44664e-08)
(7.59599e-08 -2.36597e-07 -1.28888e-08)
(8.61396e-08 -2.32217e-07 -1.12255e-08)
(9.00733e-08 -2.27515e-07 -9.61172e-09)
(8.82868e-08 -2.22646e-07 -8.16402e-09)
(8.1683e-08 -2.17735e-07 -6.95629e-09)
(7.13474e-08 -2.12658e-07 -6.02508e-09)
(5.84042e-08 -2.06689e-07 -5.3607e-09)
(4.39467e-08 -1.97897e-07 -4.90179e-09)
(2.89094e-08 -1.8207e-07 -4.47911e-09)
(1.46215e-08 -1.5029e-07 -3.7808e-09)
(2.32134e-09 -8.17467e-08 -1.94287e-09)
(-2.1456e-09 -6.67107e-08 -2.20171e-09)
(-1.53627e-08 -1.24144e-07 -3.84752e-09)
(-3.21826e-08 -1.51648e-07 -4.31867e-09)
(-5.10307e-08 -1.65659e-07 -4.55627e-09)
(-7.02388e-08 -1.7327e-07 -4.86337e-09)
(-8.85585e-08 -1.77852e-07 -5.38777e-09)