/*--------------------------------*- C++ -*----------------------------------*\
| =========                 |                                                 |
| \\      /  F ield         | OpenFOAM: The Open Source CFD Toolbox           |
|  \\    /   O peration     | Version:  v1912                                 |
|   \\  /    A nd           | Website:  www.openfoam.com                      |
|    \\/     M anipulation  |                                                 |
\*---------------------------------------------------------------------------*/
FoamFile
{
    version     2.0;
    format      ascii;
    class       volScalarField;
    location    "108/oil";
    object      heatTransferCoeff(T);
}
// * * * * * * * * * * * * * * * * * * * * * * * * * * * * * * * * * * * * * //

dimensions      [1 0 -3 -1 0 0 0];


internalField   uniform 0;

boundaryField
{
    maxY
    {
        type            calculated;
        value           uniform 0;
    }
    minX
    {
        type            calculated;
        value           uniform 0;
    }
    maxX
    {
        type            calculated;
        value           uniform 0;
    }
    minY
    {
        type            calculated;
        value           uniform 0;
    }
    minZ
    {
        type            calculated;
        value           uniform 0;
    }
    maxZ
    {
        type            calculated;
        value           uniform 0;
    }
    oil_to_sphere
    {
        type            calculated;
        value           nonuniform List<scalar> 
1536
(
-255.778
-267.35
-249.705
-246.523
-215.261
-221.426
-218.667
-170.806
-164.399
-276.978
-213.569
-279.545
-283.681
-279.368
-245.025
-213.586
-172.727
-165.405
-54.6006
-283.219
-276.827
-223.266
-219.984
-215.04
-225.521
-225.423
-225.442
-215.705
-268.348
-265.217
-249.474
-203.279
-188.061
-226.444
-214.145
-212.979
-205.07
-234.636
-222.83
-233.99
-222.882
-212.962
-262.324
-280.074
-266.313
-278.165
-221.002
-221.215
-241.841
-225.24
-222.507
-222.612
-218.548
-221.349
-194.689
-184.824
-220.671
-219.987
-166.206
-120.23
-130.604
-118.655
-128.328
-282.842
-284.335
-279.109
-267.573
-278.634
-255.63
-265.383
-226.95
-221.188
-249.165
-223.513
-214.241
-187.854
-182.525
-178.144
-213.889
-165.57
-118.31
-128.555
-106.387
-105.199
-135.817
-130.349
-108.466
-171.889
-165.065
-119.81
-129.381
-54.4102
-54.625
-283.989
-284.585
-280.209
-270.443
-274.394
-279.275
-254.276
-268.457
-226.131
-254.501
-249.572
-222.554
-223.489
-215.474
-179.054
-212.011
-188.913
-181.886
-187.395
-119.943
-131.126
-107.392
-109.174
-107.109
-134.993
-130.344
-136.964
-165.806
-129.589
-54.726
-279.03
-254.563
-265.444
-255.887
-264.242
-222.249
-223.064
-224.511
-222.129
-222.516
-220.89
-224.011
-225.441
-221.076
-184.986
-218.566
-217.818
-120.31
-130.139
-172.107
-166.035
-128.611
-163.983
-242.351
-242.284
-218.383
-227.295
-248.77
-242.278
-220.574
-223.878
-223.253
-205.557
-194.416
-197.232
-242.996
-239.407
-243.694
-263.132
-232.092
-224.38
-213.288
-205.529
-221.72
-209.357
-195.197
-197.876
-261.589
-236.224
-266.621
-232.82
-201.333
-182.007
-243.222
-246.333
-256.845
-240.696
-231.765
-223.847
-205.747
-223.483
-202.181
-197.381
-199.088
-272.49
-239.843
-249.103
-260.507
-244.05
-257.762
-248.294
-201.524
-205.114
-207.355
-208.872
-200.276
-204.568
-208.443
-214.468
-165.321
-161.428
-157.661
-168.108
-173.122
-171.179
-178.382
-177.429
-162.069
-154.347
-149.982
-272.503
-289.166
-284.404
-274.433
-273.631
-275.505
-273.7
-271.288
-280.534
-266.668
-272.379
-273.236
-244.179
-244.329
-266.725
-253.948
-228.829
-206.789
-203.07
-221.27
-202.876
-162.857
-166.777
-158.975
-168.736
-172.29
-159.702
-153.548
-99.5148
-90.7212
-280.826
-273.945
-277.805
-272.728
-278.793
-290.21
-279.784
-272.331
-239.578
-225.101
-239.759
-242.619
-203.627
-214.552
-163.249
-155.224
-174.164
-183.754
-178.215
-151.228
-89.9627
-98.1588
-72.9503
-73.0813
-98.5252
-276.642
-271.509
-270.211
-266.72
-272.384
-274.223
-269.579
-277.58
-293.211
-282.6
-271.695
-257.947
-242.848
-243.875
-252.156
-268.834
-254.823
-243.244
-242.836
-205.705
-207.191
-214.28
-216.109
-208.575
-214.041
-158.874
-154.793
-161.012
-169.99
-166.662
-172.39
-172.54
-172.157
-158.024
-152.455
-168.856
-161.594
-227.214
-218.36
-221.033
-205.404
-201.276
-197.652
-192.81
-262.328
-253.33
-266.356
-259.787
-252.938
-262.232
-263.934
-268.431
-275.891
-264.203
-266.27
-262.663
-288.073
-276.784
-272.797
-266.165
-275.399
-281.893
-273.7
-257.619
-259.846
-265.987
-252.554
-264.927
-268.688
-275.175
-273.844
-279.908
-277.263
-275.051
-269.217
-269.04
-267.224
-270.107
-262.07
-263.189
-254.379
-261.325
-250.616
-254.129
-268.201
-242.092
-263.044
-244.672
-247.483
-240.063
-228.825
-261.424
-242.925
-242.523
-251.567
-229.431
-236.826
-243.679
-226.896
-233.549
-222.26
-245.241
-261.885
-243.642
-245.406
-247.83
-231.667
-237.994
-236.271
-206.201
-210.958
-205.128
-195.552
-190.36
-196.203
-185.279
-180.611
-207.334
-211.105
-206.677
-197.636
-191.915
-200.519
-184.703
-180.741
-176.773
-204.984
-180.208
-196.922
-192.567
-197.724
-184.152
-206.869
-212.59
-206.557
-211.794
-182.316
-177.36
-197.393
-192.548
-199.222
-182.895
-179.168
-169.968
-165.797
-169.47
-165.44
-158.366
-158.681
-153.166
-163.906
-155.472
-174.264
-151.62
-154.208
-149.617
-143.476
-151.57
-148.568
-139.083
-135.964
-126.508
-167.305
-163.008
-158.132
-168.562
-154.596
-158.617
-139.202
-134.74
-132.895
-126.588
-149.897
-144.472
-151.899
-148.795
-147.112
-169.418
-165.253
-171.207
-171.283
-158.7
-152.494
-166.346
-160.775
-310.426
-298.638
-288.01
-307.413
-288.017
-291.095
-298.604
-280.956
-284.139
-288.655
-287.416
-272.178
-281.727
-269.22
-267.82
-265.964
-264.902
-270.375
-268.841
-275.092
-280.973
-259.555
-276.628
-262.611
-269.937
-263.439
-277.601
-266.624
-276.589
-271.395
-278.584
-272.42
-260.352
-267.936
-254.57
-273.882
-240.568
-249.568
-244.918
-222.969
-232.837
-232.555
-245.24
-222.667
-241.77
-222.078
-232.754
-224.236
-215.74
-221.324
-206.542
-203.443
-192.959
-198.231
-195.523
-190.418
-182.303
-202.801
-180.811
-213.296
-204.941
-194.535
-154.718
-148.968
-144.475
-153.051
-149.524
-162.505
-154.652
-174.206
-150.708
-138.411
-137.353
-127.667
-113.798
-104.255
-114.611
-104.669
-122.522
-130.85
-122.173
-112.102
-114.271
-161.504
-166.324
-157.643
-167.962
-152.161
-145.04
-153.174
-147.612
-161.361
-153.798
-170.204
-176.978
-150.876
-138.618
-147.451
-135.932
-126.605
-143.828
-98.3928
-90.4843
-100.917
-90.7141
-73.7512
-73.3072
-73.4924
-73.1977
-88.573
-303.196
-284.954
-291.461
-288.952
-285.567
-303.754
-292.531
-288.34
-283.528
-273.087
-287.217
-289.922
-295.545
-274.26
-275.615
-281.359
-281.93
-259.602
-272.953
-260.258
-277.399
-269.469
-268.619
-265.317
-271.945
-264.73
-271.232
-278.698
-266.837
-258.624
-255.073
-270.794
-276.914
-259.673
-275.311
-262.006
-253.613
-279.407
-268.875
-267.735
-271.019
-263.425
-262.84
-269.225
-277.324
-264.38
-255.181
-244.753
-243.533
-233.617
-224.439
-234.9
-260.635
-247.821
-245.592
-237.124
-235.568
-228.948
-232.311
-232.896
-223.308
-222.763
-205.782
-220.392
-201.425
-210.978
-197.916
-193.249
-225.051
-214.675
-184.386
-203.922
-180.368
-201.33
-189.745
-181.573
-195.715
-199.253
-199.275
-195.43
-194.362
-222.599
-204.367
-138.464
-138.169
-134.86
-128.199
-166.65
-161.64
-158.143
-168.554
-155.015
-159.07
-145.546
-154.298
-152.829
-148.581
-146.374
-123.664
-123.519
-131.835
-113.322
-113.974
-104.097
-114.697
-114.883
-103.882
-129.913
-121.464
-122.048
-131.156
-112.476
-161.59
-154.15
-172.498
-177.42
-151.044
-139.058
-147.76
-134.857
-134.424
-144.322
-159.486
-152.93
-165.659
-162.736
-158.009
-168.49
-171.764
-144.602
-149.993
-152.693
-148.088
-146.798
-73.6819
-73.5872
-100.049
-99.0632
-90.8078
-88.5132
-108.798
-99.0348
-89.3048
-252.698
-265.203
-264.714
-251.65
-263.46
-252.836
-252.058
-276.832
-271.789
-281.594
-272.205
-260.316
-268.555
-264.228
-275.085
-266.823
-270.793
-260.47
-260.804
-277.079
-269.144
-265.289
-266.831
-263.34
-263.128
-268.094
-255.503
-254.159
-261.06
-267.047
-260.513
-270.502
-263.979
-282.582
-262.216
-256.072
-259.56
-261.452
-254.266
-251.817
-268.692
-243.263
-233.29
-233.613
-239.959
-224.343
-259.767
-242.75
-241.936
-248.999
-237.517
-237.725
-231.867
-254.293
-240.887
-243.409
-249.05
-229.901
-231.813
-241.571
-239.514
-224.421
-247.436
-260.385
-246.29
-248.46
-238.646
-238.006
-233.199
-232.841
-223.464
-196.882
-192.212
-198.503
-184.722
-182.557
-178.246
-209.751
-203.011
-211.03
-207.209
-192.269
-197.57
-197.149
-182.03
-178.679
-179.836
-207.026
-206.604
-212.551
-205.979
-212.565
-181.222
-184.118
-196.464
-191.156
-196.98
-181.561
-178.689
-214.352
-205.428
-205.361
-209.321
-213.938
-183.367
-179.137
-192.421
-197.955
-198.154
-165.497
-170.472
-158.636
-157.703
-152.226
-169.708
-165.821
-170.319
-150.153
-144.429
-152.434
-147.631
-140.7
-150.07
-136.797
-127.177
-145.302
-162.478
-165.417
-157.351
-169.031
-178.496
-189.595
-166.5
-157.569
-152.497
-155.475
-163.764
-138.94
-146.826
-135.606
-134.378
-143.155
-150.723
-145.11
-151.128
-150.053
-147.021
-170.943
-179.556
-162.625
-154.494
-150.464
-168.126
-172.309
-162.265
-166.645
-158.718
-250.089
-244.436
-182.278
-174.425
-278.971
-270.554
-276.393
-278.154
-276.249
-241.133
-258.628
-250.409
-255.54
-212.453
-223.461
-175.02
-105.137
-102.567
-249.997
-249.237
-171.339
-105.401
-100.615
-120.131
-278.499
-243.307
-220.189
-118.684
-255.687
-247.987
-254.154
-211.892
-224.213
-223.709
-170.682
-251.301
-255.764
-223.366
-223.917
-253.362
-221.623
-223.566
-208.19
-214.091
-178.127
-187.406
-194.213
-244.601
-252.949
-220.323
-232.725
-211.073
-218.644
-178.184
-187.109
-189.266
-242.861
-257.176
-221.634
-237.805
-192.086
-179.226
-190.395
-206.583
-232.348
-230.441
-254.144
-257.162
-223.296
-221.591
-220.007
-224.014
-188.363
-179.858
-188.774
-172.509
-289.268
-283.195
-253.69
-274.552
-252.726
-279.972
-277.136
-222.624
-245.422
-244.51
-249.121
-243.931
-221.518
-191.748
-187.376
-187.794
-188.596
-187.763
-185.72
-141.023
-174.282
-137.375
-141.916
-284.36
-277.629
-288.327
-279.25
-285.873
-281.516
-284.823
-282.622
-287.558
-281.146
-253.854
-275.519
-254.251
-265.516
-254.324
-221.236
-235.09
-242.278
-261.972
-225.071
-252.337
-221.218
-180.169
-189.141
-192.41
-181.747
-188.328
-186.461
-172.986
-141.649
-133.17
-131.205
-136.642
-174.041
-140.184
-103.069
-106.02
-100.383
-289.125
-285.198
-281.384
-294.306
-281.945
-286.88
-281.493
-291.406
-285.861
-254.534
-274.614
-250.571
-278.035
-276.079
-269.854
-276.088
-269.26
-251.812
-259.927
-220.517
-242.09
-258.918
-243.952
-257.369
-223.556
-178.626
-189.86
-211.206
-220.981
-184.987
-194.941
-180.628
-188.039
-219.327
-175.039
-141.161
-128.917
-133.549
-130.192
-173.502
-140.149
-102.944
-100.541
-101.751
-283.511
-263.841
-255.537
-279.104
-251.807
-222.892
-249.426
-245.714
-245.766
-244.713
-186.582
-195.931
-186.316
-186.257
-186.274
-140.637
-178.012
-142.481
-175.895
-253.532
-241.92
-231.057
-239.966
-256.965
-243.774
-198.365
-207.067
-199.584
-246.85
-257.388
-246.211
-234.834
-260.542
-227.033
-239.727
-238.823
-229.509
-245.829
-236.681
-258.42
-231.046
-236.766
-237.796
-233.185
-212.991
-212.384
-199.787
-198.25
-191.116
-182.141
-197.976
-189.48
-195.287
-254.617
-239.999
-233.405
-240.925
-256.384
-227.662
-231.08
-232.397
-216.181
-239.84
-205.788
-217.701
-214.453
-200.349
-200.536
-192.428
-181.955
-195.79
-188.321
-195.489
-241.681
-255.368
-227.603
-229.518
-234.337
-214.824
-238.835
-211.62
-199.305
-187.785
-201.365
-196.915
-203.492
-269.21
-269.689
-267.858
-271.074
-231.407
-257.427
-246.466
-207.321
-207.832
-214.967
-213.849
-211.873
-170.977
-179.821
-178.324
-160.727
-157.324
-181.085
-172.647
-172.523
-271.154
-273.271
-278.596
-267.92
-235.316
-245.836
-228.817
-263.084
-244.551
-211.359
-211.031
-200.366
-172.154
-184.776
-178.18
-161.58
-123.441
-125.411
-113.088
-114.157
-103.985
-99.5058
-271.169
-269.944
-269.764
-266.335
-275.731
-240.896
-252.239
-247.312
-204.692
-157.735
-179.194
-113.911
-103.854
-100.687
-87.52
-126.678
-271.67
-271.102
-278.071
-271.905
-275.671
-274.954
-271.6
-269.743
-275.973
-227.71
-236.307
-273.377
-244.071
-212.834
-213.41
-172.594
-180.15
-171.436
-167.356
-176.872
-160.58
-127.247
-211.886
-177.527
-260.242
-255.739
-240.241
-242.06
-211.938
-204.923
-208.837
-195.267
-187.326
-199.477
-191.275
-190.918
-185.945
-288.717
-284.457
-247.945
-249.153
-264.107
-270.028
-266.679
-267.553
-250.702
-262.914
-257.077
-266.016
-252.853
-260.216
-273.329
-267.303
-268.933
-267.478
-249.79
-256.341
-259.605
-264.713
-271.354
-276.388
-273.92
-275.514
-262.633
-250.59
-258.405
-276.311
-271.424
-276.169
-273.337
-251.97
-270.052
-274.27
-266.498
-257.577
-261.606
-256.425
-240.106
-235.048
-264.449
-240.511
-232.667
-233.015
-220.825
-222.678
-221.916
-233.819
-259.019
-245.651
-224.645
-223.625
-233.003
-224.821
-234.383
-255.31
-237.939
-223.014
-215.08
-213.962
-197.198
-200.769
-180.904
-213.953
-196.957
-202.417
-182.605
-208.543
-214.322
-199.069
-181.895
-213.098
-191.811
-198
-171.65
-171.409
-157.7
-158.881
-146.723
-147.825
-159.306
-148.08
-145.038
-134.362
-132.301
-131.314
-136.658
-170.741
-160.762
-147.466
-143.439
-135.516
-135.743
-130.647
-167.203
-172.231
-147.377
-291.413
-278.753
-286.064
-273.591
-277.775
-290.74
-269.489
-303.592
-279.196
-282.05
-280.902
-291.786
-281.364
-289.95
-303.455
-292.456
-279.31
-287.619
-261.894
-271.124
-282.695
-275.874
-253.795
-268.246
-259.863
-272.044
-267.132
-270.817
-267.528
-276.749
-260.68
-249.19
-254.923
-265.282
-275.68
-269.553
-268.399
-262.92
-229.969
-236.106
-222.06
-242.062
-254.825
-230.367
-236.646
-239.821
-242.701
-242.955
-252.908
-231.685
-207.444
-197.978
-193.051
-204.069
-212.418
-188.669
-191.29
-199.299
-207.039
-198.21
-190.467
-182.641
-136.112
-134.568
-132.451
-157.327
-147.416
-143.674
-135.169
-170.371
-174.785
-135.085
-133.222
-157.487
-135.685
-100.616
-100.982
-89.66
-108.812
-87.9227
-100.361
-110.491
-293.804
-279.587
-298.388
-286.365
-285.509
-275.716
-278.372
-269.647
-289.097
-297.861
-290.176
-279.774
-276.311
-274.45
-281.927
-281.763
-281.777
-262.03
-277.361
-259.202
-275.063
-276.504
-271.136
-247.169
-277.37
-264.683
-270.258
-267.865
-262.215
-267.939
-268.125
-255.094
-260.569
-256.831
-237.939
-254.111
-241.319
-231.378
-227.688
-215.298
-233.216
-258.334
-238.662
-239.807
-208.604
-190.505
-194.19
-204.81
-206.64
-193.819
-200.952
-202.185
-197.378
-190.376
-210.541
-211.985
-147.565
-143.959
-135.541
-172.486
-161.751
-135.341
-133.019
-158.12
-136.203
-170.494
-134.419
-89.1103
-99.9907
-110.661
-290.906
-271.11
-253.155
-267.089
-253.654
-252.434
-261.653
-275.908
-270.802
-268.974
-254.259
-260.001
-266.245
-262.834
-272.02
-268.974
-270.526
-267.673
-262.663
-250.962
-267.842
-260.228
-257.227
-243.023
-224.147
-236.489
-265.653
-239.933
-231.919
-221.978
-221.828
-233.421
-258.734
-222.603
-233.249
-257.977
-224.269
-195.453
-184.525
-209.284
-213.942
-208.584
-196.064
-203.616
-211.708
-191.971
-212.758
-192.208
-146.3
-171.922
-134.701
-132.897
-137.528
-170.748
-180.839
-159.139
-135.129
-137.186
-156.934
-171.334
)
;
    }
}


// ************************************************************************* //
