/*--------------------------------*- C++ -*----------------------------------*\
| =========                 |                                                 |
| \\      /  F ield         | OpenFOAM: The Open Source CFD Toolbox           |
|  \\    /   O peration     | Version:  v1906                                 |
|   \\  /    A nd           | Web:      www.OpenFOAM.com                      |
|    \\/     M anipulation  |                                                 |
\*---------------------------------------------------------------------------*/
FoamFile
{
    version     2.0;
    format      ascii;
    class       volScalarField;
    location    "3/sphere";
    object      T;
}
// * * * * * * * * * * * * * * * * * * * * * * * * * * * * * * * * * * * * * //

dimensions      [0 0 0 1 0 0 0];


internalField   nonuniform List<scalar> 
304
(
497.881
497.927
497.924
497.95
497.888
497.887
497.88
497.928
497.878
498.085
498.085
497.935
497.924
498.084
498.085
497.983
497.934
497.982
497.876
497.925
497.951
497.885
497.929
498.086
498.085
497.983
497.952
498.085
498.085
498.021
497.884
497.982
498.021
497.93
497.887
497.939
497.983
497.877
497.894
497.985
498.021
497.928
497.878
497.931
497.864
497.862
497.887
497.888
497.878
497.931
497.887
497.888
497.931
497.878
497.862
497.886
497.876
497.886
497.929
497.927
497.926
497.95
497.937
497.984
497.983
498.021
497.88
497.951
497.927
497.984
497.936
498.021
497.983
497.885
497.875
497.93
497.887
497.883
497.883
497.927
497.873
497.949
497.876
497.924
497.981
498.02
497.932
497.981
497.927
497.926
497.88
498.021
497.983
497.983
497.935
497.93
497.886
497.875
497.86
497.885
497.874
497.928
497.884
497.929
497.876
497.884
497.86
497.876
497.885
497.886
497.929
497.928
497.936
497.984
497.926
497.951
497.983
498.022
497.883
497.985
497.938
497.951
497.927
498.022
497.984
497.877
497.887
497.93
497.888
497.935
497.925
497.982
497.927
497.983
497.951
498.021
497.878
497.983
497.927
497.983
497.927
498.021
497.951
497.981
497.877
497.934
497.951
498.021
497.925
497.982
497.926
497.936
497.88
498.021
497.951
497.983
497.926
497.877
497.885
497.93
497.885
497.982
497.878
497.925
497.982
498.021
497.925
497.95
497.935
497.925
497.878
498.021
497.982
497.95
497.926
497.929
497.884
497.884
497.885
497.887
497.931
497.881
497.951
497.983
498.022
497.88
497.926
497.938
497.984
497.925
498.021
497.982
497.926
497.877
497.983
497.933
497.929
497.886
497.874
497.985
497.952
498.022
497.886
497.941
497.93
497.986
497.927
498.021
497.951
497.936
497.882
497.983
497.927
498.022
497.927
497.983
497.931
497.986
497.884
497.939
497.951
497.984
497.927
497.983
497.927
497.936
497.88
497.929
497.885
497.878
498.021
497.926
497.951
497.936
497.983
497.88
497.927
497.984
497.951
497.928
497.984
497.938
497.928
497.884
497.887
497.886
497.879
497.867
497.885
497.879
497.93
497.886
497.929
497.875
497.885
497.86
497.882
497.889
497.933
497.89
497.984
497.986
498.022
497.886
497.928
497.93
497.952
497.935
498.022
497.983
497.926
497.879
497.951
497.926
497.93
497.887
497.885
497.934
497.881
497.887
498.022
497.937
497.984
497.928
497.951
497.88
497.927
497.983
497.984
497.937
497.951
497.926
497.927
497.881
497.885
497.876
497.883
497.865
497.93
497.886
497.887
497.879
497.887
497.886
)
;

boundaryField
{
    sphere_to_oil
    {
        type            compressible::turbulentTemperatureCoupledBaffleMixed;
        refValue        nonuniform List<scalar> 
360
(
306.878
306.878
301.867
315.924
316.757
302.226
317.279
317.279
317.279
306.844
306.844
302.22
302.456
301.65
306.227
317.386
316.463
316.463
316.463
301.652
314.904
306.32
304.194
316.454
301.887
317.158
302.222
317.011
317.011
317.011
317.498
317.21
301.862
301.852
302.197
302.224
316.29
316.29
316.29
315.912
316.736
301.924
302.224
306.828
306.828
302.206
302.423
301.608
306.459
317.295
302.271
302.229
302.41
302.448
301.595
306.232
316.723
301.633
302.204
302.391
301.665
317.092
317.092
317.092
301.606
316.715
306.347
303.955
317.187
317.187
317.187
316.646
316.413
301.614
314.335
305.954
301.644
303.952
316.634
316.802
304.218
303.862
304.116
301.674
301.868
302.214
302.266
302.437
301.612
301.671
301.875
302.434
302.257
301.865
302.413
302.241
302.253
302.212
301.882
301.657
301.674
301.619
302.229
302.263
302.437
301.61
301.693
302.461
301.895
302.243
302.261
302.227
301.887
301.618
301.691
301.679
304.095
303.977
304.067
306.913
306.913
315.924
315.924
316.454
316.454
316.5
316.5
316.5
316.347
316.347
316.347
304.107
303.918
304.041
301.698
316.757
316.757
306.793
306.793
317.498
317.498
306.156
306.156
317.379
317.379
317.379
301.689
301.692
317.631
317.631
317.631
318.203
318.203
318.203
317.386
314.904
306.227
317.386
316.917
301.625
316.917
316.917
304.155
304.026
304.064
306.165
306.165
317.412
317.412
317.412
301.612
314.904
306.32
317.292
317.292
301.622
317.292
304.209
304.036
301.627
302.206
302.236
302.467
301.871
302.423
302.245
301.622
301.678
317.158
317.158
317.21
317.21
306.803
306.803
316.084
316.084
316.084
306.558
306.558
301.66
302.194
302.247
302.463
302.23
302.222
302.465
301.876
302.453
302.214
301.869
315.912
302.462
302.249
301.646
316.663
316.663
316.663
306.447
306.447
301.609
302.245
302.247
302.376
316.736
301.869
302.362
302.225
315.912
316.736
306.429
301.607
306.429
301.644
301.686
302.416
301.883
302.239
302.23
302.258
301.872
301.615
317.407
315.148
317.407
317.407
315.148
315.148
317.295
316.715
306.459
316.842
301.677
317.295
316.842
316.842
302.371
301.874
302.278
302.429
301.885
316.646
302.206
302.228
302.262
301.873
316.723
314.335
302.221
302.239
301.875
315.739
317.053
306.232
316.845
301.678
316.723
316.845
316.845
302.427
301.891
316.634
302.227
302.194
302.205
316.793
301.892
316.433
306.497
315.739
306.497
316.793
315.739
316.793
301.611
303.829
303.738
303.825
306.664
316.272
306.664
316.272
316.272
301.641
316.715
317.018
306.347
317.018
301.666
317.018
304.031
304.014
301.591
315.763
306.26
315.763
315.763
306.26
301.644
302.215
302.242
302.453
316.413
316.646
306.435
301.671
316.413
306.435
301.637
314.335
317.325
305.954
317.325
301.554
317.325
302.461
316.802
301.895
302.228
316.788
316.215
317.053
306.282
317.053
316.788
306.282
316.788
303.854
304.147
316.634
306.498
301.628
316.802
306.498
301.67
316.433
316.215
316.433
306.674
316.215
306.674
)
;
        refGradient     uniform 0;
        valueFraction   nonuniform List<scalar> 
360
(
0.000127673
0.000122485
7.84161e-05
0.000280148
0.000287319
0.000164739
0.000289105
0.000248154
0.000386285
0.000122979
0.000119902
0.000160847
0.000245136
7.0091e-05
0.000125384
0.000243741
0.000279326
0.000260985
0.000366237
6.41367e-05
0.000240454
0.000118206
0.000108948
0.00028912
8.39382e-05
0.000297182
0.000167503
0.000293344
0.000383911
0.000256797
0.000293395
0.000295921
7.9457e-05
7.85693e-05
0.000164877
0.000162254
0.000274572
0.000372248
0.000255605
0.000384343
0.000379651
8.10599e-05
0.000160778
0.000117346
0.000117205
0.000165509
0.000247616
6.60644e-05
0.000118212
0.000250673
0.000163272
0.000164333
0.000244952
0.000242572
6.85338e-05
0.000125375
0.000255681
6.56534e-05
0.000162643
0.000242534
6.42631e-05
0.000285548
0.000252066
0.000394532
6.62531e-05
0.000257728
0.000120215
0.000116275
0.000292145
0.00038113
0.000256361
0.000367531
0.000372676
7.11686e-05
0.000248469
0.000126046
6.5616e-05
0.000117663
0.000371882
0.000386318
0.000115405
0.000113228
0.000111213
6.60935e-05
7.9703e-05
0.000161584
0.000162489
0.000246071
7.42809e-05
6.27187e-05
7.88807e-05
0.00024567
0.000162182
8.05773e-05
0.000245264
0.000164034
0.000163063
0.000163313
7.96409e-05
6.38363e-05
6.47317e-05
6.38705e-05
0.000164196
0.000161382
0.000245485
7.22759e-05
6.2779e-05
0.000245307
7.79318e-05
0.000161636
0.000161666
0.000164964
8.06675e-05
6.45939e-05
6.29958e-05
6.4213e-05
0.000111777
0.000111911
0.000116259
0.000126062
0.000118481
0.000244818
0.000385688
0.000257933
0.000389236
0.000249487
0.000383588
0.000285595
0.000249688
0.000375238
0.000281263
0.000114721
0.00010849
0.000111122
6.1341e-05
0.000254413
0.000383072
0.00011851
0.000119052
0.000387129
0.000257379
0.000124233
0.000130935
0.000382363
0.000262653
0.00030266
6.75095e-05
6.28248e-05
0.000265184
0.000367492
0.000291284
0.00027304
0.000380216
0.000291253
0.00030071
0.00027699
0.000129564
0.000386217
0.000249461
6.95474e-05
0.000375376
0.000280896
0.000107194
0.000112934
0.000111724
0.00011786
0.000123202
0.000384286
0.000253018
0.000296997
7.12062e-05
0.000369664
0.000126747
0.000388714
0.000248829
6.9553e-05
0.000295043
0.000108145
0.000109149
6.37695e-05
0.000167145
0.000167079
0.000247052
8.23868e-05
0.000247425
0.000162802
6.31146e-05
6.12865e-05
0.000386677
0.000245677
0.000382137
0.000254761
0.000121517
0.000113641
0.000383919
0.000239931
0.000277345
0.000112329
0.000130337
6.55706e-05
0.000164208
0.000164059
0.000245115
0.000160495
0.000161321
0.00024415
8.36856e-05
0.000244987
0.000166111
8.13816e-05
0.000275769
0.000244715
0.000165116
6.58042e-05
0.000375529
0.000243437
0.000284829
0.000118657
0.000110268
6.36932e-05
0.000162931
0.000165671
0.000245637
0.000279299
7.81109e-05
0.000243306
0.000158904
0.000241711
0.000255888
0.000116152
6.524e-05
0.000128889
6.60467e-05
6.21705e-05
0.000248379
8.28922e-05
0.000166982
0.000165052
0.000163084
8.18504e-05
6.25213e-05
0.000253973
0.000237976
0.000399533
0.000297383
0.000372739
0.000267803
0.000287041
0.00029389
0.000130626
0.000252115
6.79225e-05
0.000383677
0.000373068
0.000283442
0.000247198
7.87688e-05
0.000160847
0.000244356
7.94747e-05
0.000291193
0.000161544
0.000162698
0.000161199
7.89925e-05
0.000289016
0.000270833
0.000164464
0.000160212
8.05139e-05
0.000271367
0.000298705
0.000118456
0.000268138
6.36788e-05
0.00038203
0.000370379
0.000279854
0.000242543
7.96797e-05
0.000280294
0.000161385
0.000161634
0.000162554
0.00028182
8.04261e-05
0.000287937
0.000121152
0.000248251
0.000122162
0.000252976
0.000385535
0.000378486
6.3649e-05
0.000127551
0.000126044
0.000123283
0.000112269
0.000375641
0.00012262
0.000249717
0.00029406
6.27213e-05
0.00037931
0.000378852
0.000124012
0.000269359
6.57296e-05
0.000288778
0.000109946
0.000108011
6.56752e-05
0.000371515
0.000111022
0.00024363
0.000286939
0.000119026
6.48848e-05
0.000161447
0.000161392
0.000243535
0.000278688
0.000241719
0.000116863
6.29045e-05
0.000245768
0.000129795
7.26504e-05
0.000356164
0.000382452
0.000113024
0.000242934
6.73503e-05
0.000305532
0.000245401
0.000294044
8.04351e-05
0.000162141
0.000283495
0.000274842
0.000258566
0.000115568
0.000378774
0.000377959
0.000137189
0.000252633
0.00011115
0.000112856
0.000254332
0.000125896
6.80676e-05
0.000257223
0.000121226
6.28594e-05
0.00037439
0.000378884
0.000249282
0.000120973
0.000244863
0.000124962
)
;
        value           nonuniform List<scalar> 
360
(
497.888
497.89
497.891
497.856
497.855
497.92
497.853
497.866
497.831
497.885
497.885
497.918
497.928
497.899
497.889
497.869
497.85
497.863
497.832
497.9
497.869
497.89
497.864
497.853
497.889
497.852
497.92
497.855
497.833
497.865
497.85
497.85
497.887
497.887
497.917
497.92
497.853
497.834
497.864
497.831
497.833
497.888
497.919
497.887
497.89
497.918
497.928
497.897
497.887
497.865
497.922
497.92
497.93
497.929
497.896
497.885
497.863
497.899
497.919
497.929
497.898
497.853
497.864
497.833
497.899
497.865
497.889
497.863
497.858
497.838
497.868
497.836
497.835
497.905
497.873
497.895
497.897
497.868
497.836
497.833
497.867
497.867
497.868
497.899
497.895
497.92
497.921
497.928
497.894
497.899
497.89
497.928
497.92
497.888
497.929
497.919
497.919
497.92
497.89
497.9
497.9
497.898
497.92
497.92
497.928
497.896
497.896
497.927
497.886
497.918
497.921
497.919
497.889
497.897
497.901
497.9
497.865
497.865
497.864
497.888
497.891
497.868
497.833
497.867
497.832
497.867
497.834
497.853
497.868
497.835
497.857
497.865
497.866
497.866
497.899
497.865
497.832
497.888
497.888
497.831
497.865
497.887
497.887
497.832
497.865
497.848
497.899
497.896
497.86
497.832
497.848
497.859
497.83
497.85
497.851
497.855
497.886
497.83
497.866
497.897
497.832
497.854
497.864
497.863
497.864
497.887
497.885
497.83
497.863
497.85
497.895
497.834
497.884
497.831
497.864
497.895
497.85
497.864
497.864
497.897
497.92
497.918
497.928
497.892
497.928
497.921
497.899
497.899
497.831
497.865
497.832
497.865
497.887
497.889
497.832
497.869
497.852
497.89
497.888
497.9
497.918
497.92
497.928
497.921
497.921
497.928
497.886
497.928
497.918
497.889
497.855
497.928
497.919
497.897
497.834
497.866
497.852
497.888
497.889
497.897
497.919
497.918
497.927
497.853
497.888
497.928
497.92
497.865
497.863
497.887
497.897
497.884
497.896
497.898
497.927
497.889
497.918
497.918
497.92
497.886
497.9
497.864
497.869
497.834
497.851
497.838
497.862
497.85
497.849
497.886
497.865
497.898
497.83
497.832
497.856
497.929
497.895
497.924
497.929
497.891
497.854
497.921
497.921
497.925
497.893
497.857
497.859
497.92
497.921
497.89
497.856
497.851
497.887
497.862
497.898
497.834
497.836
497.855
497.929
497.89
497.855
497.921
497.921
497.921
497.858
497.893
497.857
497.889
497.867
497.888
497.865
497.834
497.835
497.897
497.868
497.868
497.869
497.888
497.836
497.888
497.866
497.858
497.899
497.832
497.832
497.887
497.862
497.897
497.851
497.864
497.865
497.902
497.839
497.893
497.871
497.859
497.893
497.903
497.922
497.923
497.93
497.853
497.868
497.889
497.899
497.865
497.885
497.896
497.841
497.837
497.891
497.869
497.899
497.85
497.929
497.852
497.889
497.921
497.854
497.856
497.863
497.888
497.833
497.833
497.882
497.862
497.869
497.869
497.865
497.887
497.898
497.866
497.889
497.9
497.836
497.835
497.867
497.889
497.867
497.888
)
;
        Tnbr            T;
        thicknessLayers 0();
        kappaLayers     0();
        kappaMethod     solidThermo;
        kappa           none;
        alphaAni        none;
    }
}


// ************************************************************************* //
