/*--------------------------------*- C++ -*----------------------------------*\
| =========                 |                                                 |
| \\      /  F ield         | OpenFOAM: The Open Source CFD Toolbox           |
|  \\    /   O peration     | Version:  v1906                                 |
|   \\  /    A nd           | Web:      www.OpenFOAM.com                      |
|    \\/     M anipulation  |                                                 |
\*---------------------------------------------------------------------------*/
FoamFile
{
    version     2.0;
    format      ascii;
    class       surfaceScalarField;
    location    "30.4/oil";
    object      phi;
}
// * * * * * * * * * * * * * * * * * * * * * * * * * * * * * * * * * * * * * //

dimensions      [1 0 -1 0 0 0 0];
oriented        oriented;


internalField   nonuniform List<scalar> 
80688
(
-2.43213e-06
-2.47408e-06
-2.43213e-06
-1.09915e-06
-6.89137e-07
-6.43844e-07
-3.00855e-07
-4.01468e-07
-3.96831e-07
-1.51058e-07
-7.50407e-08
-7.47556e-08
-6.53617e-08
-4.30904e-08
-4.26062e-08
-2.57078e-08
-2.01991e-08
-1.94549e-08
-5.61462e-09
-1.04769e-08
-9.61628e-09
4.86634e-09
-5.71215e-09
-4.76881e-09
1.01722e-08
-3.18601e-09
-2.11987e-09
1.22903e-08
-1.68284e-09
-4.35237e-10
1.21954e-08
-6.82035e-10
7.76903e-10
1.04443e-08
3.2381e-11
1.71877e-09
7.44279e-09
5.58887e-10
2.4426e-09
3.57646e-09
9.15175e-10
2.95117e-09
-7.61106e-10
1.10914e-09
3.22844e-09
-5.17174e-09
1.14495e-09
3.26568e-09
-9.27411e-09
1.03117e-09
3.07122e-09
-1.27327e-08
7.8467e-10
2.67388e-09
-1.52861e-08
4.3078e-10
2.12267e-09
-1.6766e-08
1.7858e-12
1.47811e-09
-1.71135e-08
-4.59888e-10
8.07447e-10
-1.63684e-08
-9.29047e-10
1.83913e-10
-1.46566e-08
-1.36996e-09
-3.41792e-10
-1.21931e-08
-1.75268e-09
-7.108e-10
-9.26255e-09
-2.04632e-09
-8.84271e-10
-6.2047e-09
-2.20909e-09
-8.48748e-10
-3.4017e-09
-2.18023e-09
-6.22758e-10
-1.24897e-09
-1.87387e-09
-2.78862e-10
-8.42239e-11
-1.18102e-09
1.62845e-11
-1.7572e-10
9.15002e-11
-6.55648e-07
-1.16278e-06
-6.55648e-07
-3.95009e-07
-4.22401e-07
-5.27375e-07
-2.86113e-07
-2.82622e-07
-2.27742e-07
-1.46798e-07
-1.20801e-07
-9.3555e-08
-6.95399e-08
-7.12806e-08
-4.90674e-08
-2.59922e-08
-4.14158e-08
-2.23309e-08
-3.22383e-10
-2.73044e-08
-8.84238e-09
1.46357e-08
-1.94797e-08
-1.19055e-09
2.27023e-08
-1.48734e-08
3.62089e-09
2.58194e-08
-1.18443e-08
7.04433e-09
2.50894e-08
-9.66808e-09
9.71612e-09
2.12721e-08
-8.02423e-09
1.18739e-08
1.50524e-08
-6.78843e-09
1.35669e-08
7.13678e-09
-5.93228e-09
1.47631e-08
-1.71352e-09
-5.45534e-09
1.54148e-08
-1.0709e-08
-5.35673e-09
1.54972e-08
-1.90873e-08
-5.61676e-09
1.50263e-08
-2.61772e-08
-6.19029e-09
1.40649e-08
-3.14571e-08
-7.00836e-09
1.2719e-08
-3.45927e-08
-7.98377e-09
1.11212e-08
-3.54545e-08
-9.02125e-09
9.42312e-09
-3.41224e-08
-1.00246e-08
7.76354e-09
-3.08631e-08
-1.08984e-08
6.26912e-09
-2.61018e-08
-1.15483e-08
5.03431e-09
-2.03928e-08
-1.18703e-08
4.11496e-09
-1.43806e-08
-1.17339e-08
3.51261e-09
-8.75221e-09
-1.09643e-08
3.15577e-09
-4.16698e-09
-9.32929e-09
2.87021e-09
-1.14922e-09
-6.53542e-09
2.33665e-09
-2.48204e-09
1.1571e-09
-4.09234e-07
-3.44312e-07
-4.09234e-07
-2.77064e-07
-3.20414e-07
-2.34156e-07
-1.90483e-07
-2.2229e-07
-1.46913e-07
-1.05946e-07
-1.29994e-07
-7.53431e-08
-5.10431e-08
-8.80789e-08
-3.81049e-08
-1.45446e-08
-6.21728e-08
-1.57415e-08
9.18252e-09
-4.80516e-08
-2.97981e-09
2.40409e-08
-3.93934e-08
5.05536e-09
3.22703e-08
-3.37473e-08
1.06445e-08
3.51663e-08
-2.9692e-08
1.49516e-08
3.35823e-08
-2.65733e-08
1.84893e-08
2.82325e-08
-2.41035e-08
2.1429e-08
1.98726e-08
-2.21926e-08
2.37641e-08
9.35848e-09
-2.08421e-08
2.5424e-08
-2.34629e-09
-2.00786e-08
2.6328e-08
-1.4228e-08
-1.99114e-08
2.64364e-08
-2.53009e-08
-2.03114e-08
2.57675e-08
-3.46927e-08
-2.12032e-08
2.44047e-08
-4.17276e-08
-2.24654e-08
2.2492e-08
-4.59716e-08
-2.39477e-08
2.0208e-08
-4.72663e-08
-2.54805e-08
1.77539e-08
-4.5714e-08
-2.68911e-08
1.53142e-08
-4.16605e-08
-2.80065e-08
1.30546e-08
-3.56469e-08
-2.86501e-08
1.10882e-08
-2.83653e-08
-2.86267e-08
9.47483e-09
-2.06019e-08
-2.76975e-08
8.20016e-09
-1.3166e-08
-2.55547e-08
7.1545e-09
-6.81392e-09
-2.17837e-08
6.10233e-09
-2.18504e-09
-1.58049e-08
4.64061e-09
-6.85996e-09
2.19289e-09
-8.00477e-08
-1.84217e-07
-8.00471e-08
-1.09457e-07
-1.9537e-07
-9.56345e-08
-9.18068e-08
-1.64661e-07
-7.52803e-08
-5.53125e-08
-1.23725e-07
-4.27636e-08
-2.32687e-08
-9.90922e-08
-2.10306e-08
2.34007e-09
-8.18168e-08
-5.96477e-09
2.1074e-08
-7.08702e-08
4.08476e-09
3.36667e-08
-6.32801e-08
1.12939e-08
4.07164e-08
-5.76999e-08
1.6903e-08
4.27034e-08
-5.32705e-08
2.15915e-08
4.00851e-08
-4.95959e-08
2.56409e-08
3.34127e-08
-4.65329e-08
2.91018e-08
2.34134e-08
-4.40856e-08
3.18923e-08
1.10036e-08
-4.23225e-08
3.38901e-08
-2.74116e-09
-4.13122e-08
3.49784e-08
-1.66657e-08
-4.10852e-08
3.50984e-08
-2.96377e-08
-4.16076e-08
3.42682e-08
-4.06546e-08
-4.27741e-08
3.25878e-08
-4.89367e-08
-4.44128e-08
3.02295e-08
-5.39921e-08
-4.63029e-08
2.74107e-08
-5.56416e-08
-4.81981e-08
2.4367e-08
-5.40108e-08
-4.98439e-08
2.1322e-08
-4.94924e-08
-5.09868e-08
1.84619e-08
-4.26974e-08
-5.13599e-08
1.59148e-08
-3.43902e-08
-5.0675e-08
1.3741e-08
-2.54228e-08
-4.85794e-08
1.19146e-08
-1.66651e-08
-4.46158e-08
1.03033e-08
-8.93427e-09
-3.8149e-08
8.63447e-09
-3.00578e-09
-2.81809e-08
6.44748e-09
-1.28808e-08
3.01503e-09
-4.17471e-08
-1.00724e-07
-4.1746e-08
-5.35941e-08
-1.35834e-07
-4.76889e-08
-4.39813e-08
-1.37152e-07
-3.71216e-08
-2.32094e-08
-1.23724e-07
-2.0773e-08
-1.97346e-09
-1.12594e-07
-7.7344e-09
1.68956e-08
-1.03136e-07
2.45062e-09
3.17929e-08
-9.60065e-08
1.02389e-08
4.22129e-08
-9.02518e-08
1.65518e-08
4.7923e-08
-8.53961e-08
2.1986e-08
4.88902e-08
-8.11001e-08
2.68624e-08
4.52739e-08
-7.72457e-08
3.12661e-08
3.74795e-08
-7.38646e-08
3.51261e-08
2.61834e-08
-7.10764e-08
3.82869e-08
1.2324e-08
-6.90272e-08
4.05642e-08
-2.95175e-09
-6.78403e-08
4.1804e-08
-1.83932e-08
-6.75701e-08
4.19263e-08
-3.27645e-08
-6.81821e-08
4.09457e-08
-4.49697e-08
-6.95462e-08
3.89774e-08
-5.41607e-08
-7.14437e-08
3.62219e-08
-5.98075e-08
-7.3589e-08
3.29329e-08
-6.17237e-08
-7.5666e-08
2.93841e-08
-6.00525e-08
-7.7343e-08
2.58279e-08
-5.52247e-08
-7.82829e-08
2.24683e-08
-4.78925e-08
-7.81413e-08
1.94491e-08
-3.88617e-08
-7.65363e-08
1.68305e-08
-2.90213e-08
-7.29987e-08
1.4579e-08
-1.92751e-08
-6.69096e-08
1.25476e-08
-1.04982e-08
-5.73609e-08
1.04351e-08
-3.59552e-09
-4.28201e-08
7.73652e-09
-2.00832e-08
3.60696e-09
-1.6168e-08
-6.83893e-08
-1.61666e-08
-2.03128e-08
-1.12338e-07
-1.93518e-08
-1.43351e-08
-1.28688e-07
-1.44414e-08
-1.08501e-09
-1.30925e-07
-6.04906e-09
1.40585e-08
-1.296e-07
1.86297e-09
2.85719e-08
-1.26543e-07
8.89304e-09
4.06514e-08
-1.2314e-07
1.50543e-08
4.92718e-08
-1.1953e-07
2.06582e-08
5.3773e-08
-1.15824e-07
2.59271e-08
5.3808e-08
-1.12079e-07
3.09436e-08
4.93333e-08
-1.08415e-07
3.56445e-08
4.06346e-08
-1.05024e-07
3.98582e-08
2.83372e-08
-1.02133e-07
4.33535e-08
1.33882e-08
-9.99652e-08
4.5887e-08
-3.02055e-09
-9.86942e-08
4.72626e-08
-1.95708e-08
-9.83997e-08
4.73799e-08
-3.49538e-08
-9.90501e-08
4.6251e-08
-4.80047e-08
-1.00497e-07
4.40022e-08
-5.78294e-08
-1.02485e-07
4.08655e-08
-6.38766e-08
-1.04676e-07
3.71339e-08
-6.59623e-08
-1.06698e-07
3.31182e-08
-6.42493e-08
-1.08153e-07
2.90972e-08
-5.91976e-08
-1.08641e-07
2.53064e-08
-5.14879e-08
-1.07743e-07
2.18924e-08
-4.1952e-08
-1.0499e-07
1.89183e-08
-3.14982e-08
-9.97976e-08
1.63451e-08
-2.10568e-08
-9.1366e-08
1.40149e-08
-1.15477e-08
-7.84764e-08
1.16063e-08
-3.9804e-09
-5.89627e-08
8.5754e-09
-2.80577e-08
3.99412e-09
-5.41059e-09
-5.75699e-08
-5.40882e-09
-4.80545e-09
-1.07347e-07
-5.5955e-09
1.47834e-09
-1.32661e-07
-2.31079e-09
1.22349e-08
-1.44436e-07
2.75458e-09
2.46145e-08
-1.50037e-07
8.05699e-09
3.67432e-08
-1.51981e-07
1.33095e-08
4.70406e-08
-1.51905e-07
1.8467e-08
5.43851e-08
-1.5049e-07
2.36157e-08
5.79661e-08
-1.48201e-07
2.87953e-08
5.72802e-08
-1.45345e-07
3.39519e-08
5.21635e-08
-1.42223e-07
3.89241e-08
4.28217e-08
-1.39143e-07
4.34607e-08
2.98423e-08
-1.36414e-07
4.7261e-08
1.41649e-08
-1.3432e-07
5.00319e-08
-2.98757e-09
-1.33075e-07
5.1533e-08
-2.02543e-08
-1.32774e-07
5.16412e-08
-3.62788e-08
-1.33392e-07
5.0366e-08
-4.98508e-08
-1.34773e-07
4.78475e-08
-6.00495e-08
-1.36637e-07
4.43515e-08
-6.6313e-08
-1.38617e-07
4.02051e-08
-6.84699e-08
-1.403e-07
3.57583e-08
-6.67036e-08
-1.41247e-07
3.13276e-08
-6.14992e-08
-1.41008e-07
2.7163e-08
-5.35563e-08
-1.39109e-07
2.34226e-08
-4.37207e-08
-1.34998e-07
2.01716e-08
-3.2909e-08
-1.27974e-07
1.73643e-08
-2.20632e-08
-1.17045e-07
1.48337e-08
-1.21328e-08
-1.00653e-07
1.2246e-08
-4.19004e-09
-7.5937e-08
9.03158e-09
-3.64534e-08
4.20564e-09
-4.97722e-10
-5.65764e-08
-4.95842e-10
3.05699e-09
-1.12203e-07
1.30073e-09
1.01251e-08
-1.43876e-07
4.14713e-09
2.00048e-08
-1.62083e-07
7.76743e-09
3.1019e-08
-1.72797e-07
1.17459e-08
4.17548e-08
-1.78733e-07
1.60157e-08
5.0881e-08
-1.81608e-07
2.05772e-08
5.73263e-08
-1.82383e-07
2.54473e-08
6.02391e-08
-1.81697e-07
3.05836e-08
5.90599e-08
-1.80023e-07
3.58579e-08
5.35537e-08
-1.77765e-07
4.10486e-08
4.38727e-08
-1.75314e-07
4.58519e-08
3.05684e-08
-1.73021e-07
4.99114e-08
1.45726e-08
-1.71205e-07
5.28813e-08
-2.88763e-09
-1.70097e-07
5.44821e-08
-2.04359e-08
-1.69806e-07
5.45799e-08
-3.66968e-08
-1.7031e-07
5.31792e-08
-5.04398e-08
-1.71456e-07
5.04265e-08
-6.07369e-08
-1.72957e-07
4.6617e-08
-6.70301e-08
-1.74444e-07
4.21199e-08
-6.91658e-08
-1.75485e-07
3.73206e-08
-6.73501e-08
-1.75623e-07
3.25607e-08
-6.20813e-08
-1.74381e-07
2.81039e-08
-5.40703e-08
-1.7124e-07
2.412e-08
-4.41634e-08
-1.65581e-07
2.06762e-08
-3.32705e-08
-1.56588e-07
1.7722e-08
-2.23263e-08
-1.43072e-07
1.50825e-08
-1.22862e-08
-1.2311e-07
1.24167e-08
-4.24388e-09
-9.31246e-08
9.14528e-09
-4.4958e-08
4.26065e-09
1.6965e-09
-5.99711e-08
1.69822e-09
6.77625e-09
-1.21876e-07
4.59379e-09
1.4379e-08
-1.58818e-07
7.33952e-09
2.38533e-08
-1.81863e-07
1.03058e-08
3.40516e-08
-1.96587e-07
1.35914e-08
4.38484e-08
-2.05826e-07
1.72964e-08
5.21226e-08
-2.11356e-07
2.14742e-08
5.78891e-08
-2.14278e-07
2.61283e-08
6.03298e-08
-2.15334e-07
3.11964e-08
5.88655e-08
-2.15073e-07
3.65144e-08
5.32419e-08
-2.13964e-07
4.18226e-08
4.35626e-08
-2.12415e-07
4.67808e-08
3.03498e-08
-2.10798e-07
5.09892e-08
1.45083e-08
-2.09436e-07
5.40727e-08
-2.75061e-09
-2.08569e-07
5.57312e-08
-2.00734e-08
-2.08299e-07
5.58163e-08
-3.61028e-08
-2.08611e-07
5.43304e-08
-4.96229e-08
-2.09361e-07
5.14249e-08
-5.97165e-08
-2.10282e-07
4.74183e-08
-6.58465e-08
-2.1101e-07
4.26964e-08
-6.78786e-08
-2.11121e-07
3.76687e-08
-6.60354e-08
-2.10174e-07
3.27078e-08
-6.08199e-08
-2.07685e-07
2.80885e-08
-5.29435e-08
-2.03101e-07
2.39845e-08
-4.32301e-08
-1.95749e-07
2.04544e-08
-3.25638e-08
-1.84702e-07
1.74472e-08
-2.18506e-08
-1.6858e-07
1.47946e-08
-1.20214e-08
-1.45089e-07
1.21503e-08
-4.14962e-09
-1.09935e-07
8.9381e-09
-5.32743e-08
4.16669e-09
2.58341e-09
-6.51393e-08
2.58477e-09
8.23973e-09
-1.33461e-07
5.92853e-09
1.59054e-08
-1.7506e-07
8.57594e-09
2.49048e-08
-2.02034e-07
1.11719e-08
3.43382e-08
-2.20052e-07
1.40324e-08
4.32801e-08
-2.3211e-07
1.73427e-08
5.07826e-08
-2.40057e-07
2.11981e-08
5.59491e-08
-2.45056e-07
2.56114e-08
5.80296e-08
-2.47921e-07
3.0506e-08
5.64666e-08
-2.49229e-07
3.57182e-08
5.09859e-08
-2.49454e-07
4.09702e-08
4.16755e-08
-2.49006e-07
4.59014e-08
2.90194e-08
-2.48244e-07
5.01019e-08
1.38749e-08
-2.47477e-07
5.3185e-08
-2.60018e-09
-2.46921e-07
5.48273e-08
-1.91183e-08
-2.4668e-07
5.48992e-08
-3.43886e-08
-2.46742e-07
5.34017e-08
-4.72417e-08
-2.46976e-07
5.04677e-08
-5.68026e-08
-2.4714e-07
4.64189e-08
-6.25686e-08
-2.46902e-07
4.16582e-08
-6.44237e-08
-2.45878e-07
3.6612e-08
-6.25995e-08
-2.43642e-07
3.16429e-08
-5.75947e-08
-2.39724e-07
2.70346e-08
-5.00872e-08
-2.33568e-07
2.29595e-08
-4.08646e-08
-2.24449e-07
1.94777e-08
-3.07595e-08
-2.11348e-07
1.65407e-08
-2.06292e-08
-1.92682e-07
1.39717e-08
-1.13423e-08
-1.65821e-07
1.14447e-08
-3.91153e-09
-1.25781e-07
8.41608e-09
-6.11138e-08
3.92804e-09
2.77996e-09
-7.06997e-08
2.78047e-09
8.34214e-09
-1.4514e-07
6.11708e-09
1.55724e-08
-1.90865e-07
8.57436e-09
2.38035e-08
-2.21125e-07
1.08594e-08
3.22947e-08
-2.41901e-07
1.33576e-08
4.027e-08
-2.56383e-07
1.62976e-08
4.69175e-08
-2.66495e-07
1.97902e-08
5.14653e-08
-2.73454e-07
2.38507e-08
5.32333e-08
-2.78099e-07
2.841e-08
5.17088e-08
-2.81008e-07
3.33042e-08
4.66329e-08
-2.82637e-07
3.8259e-08
3.80751e-08
-2.83376e-07
4.29272e-08
2.64702e-08
-2.83543e-07
4.6904e-08
1.26063e-08
-2.83428e-07
4.98151e-08
-2.45438e-09
-2.83213e-07
5.13525e-08
-1.75402e-08
-2.83005e-07
5.14101e-08
-3.14772e-08
-2.82789e-07
4.99835e-08
-4.3184e-08
-2.82456e-07
4.71868e-08
-5.18655e-08
-2.81789e-07
4.333e-08
-5.70635e-08
-2.8049e-07
3.87856e-08
-5.86741e-08
-2.78232e-07
3.39644e-08
-5.69353e-08
-2.74611e-07
2.92304e-08
-5.23163e-08
-2.692e-07
2.48572e-08
-4.54431e-08
-2.61445e-07
2.10036e-08
-3.70351e-08
-2.50585e-07
1.7728e-08
-2.7853e-08
-2.35516e-07
1.49858e-08
-1.86614e-08
-2.14492e-07
1.26188e-08
-1.02501e-08
-1.84552e-07
1.03202e-08
-3.5321e-09
-1.40086e-07
7.58631e-09
-6.81933e-08
3.54732e-09
2.57046e-09
-7.58403e-08
2.57015e-09
7.54263e-09
-1.55679e-07
5.56644e-09
1.38864e-08
-2.04912e-07
7.70384e-09
2.09931e-08
-2.37878e-07
9.64675e-09
2.82598e-08
-2.60938e-07
1.17699e-08
3.50415e-08
-2.77456e-07
1.42905e-08
4.06735e-08
-2.89441e-07
1.73143e-08
4.45137e-08
-2.98163e-07
2.08689e-08
4.59679e-08
-3.04442e-07
2.48893e-08
4.46013e-08
-3.08865e-07
2.92238e-08
4.01826e-08
-3.11845e-07
3.36268e-08
3.27498e-08
-3.13723e-07
3.77802e-08
2.26965e-08
-3.14799e-07
4.13095e-08
1.06937e-08
-3.15307e-07
4.38823e-08
-2.32455e-09
-3.15424e-07
4.52293e-08
-1.53526e-08
-3.15249e-07
4.52722e-08
-2.73792e-08
-3.14774e-07
4.40119e-08
-3.74693e-08
-3.13885e-07
4.15196e-08
-4.49207e-08
-3.12401e-07
3.80642e-08
-4.93338e-08
-3.10068e-07
3.39914e-08
-5.065e-08
-3.06591e-07
2.96748e-08
-4.90708e-08
-3.01636e-07
2.54459e-08
-4.50184e-08
-2.948e-07
2.15471e-08
-3.90478e-08
-2.85536e-07
1.8121e-08
-3.17818e-08
-2.73076e-07
1.52253e-08
-2.38688e-08
-2.56243e-07
1.28139e-08
-1.59734e-08
-2.33139e-07
1.07514e-08
-8.76519e-09
-2.00538e-07
8.77731e-09
-3.01447e-09
-1.52291e-07
6.45498e-09
-7.42355e-08
3.02772e-09
2.1025e-09
-8.00444e-08
2.10164e-09
6.1107e-09
-1.64206e-07
4.51832e-09
1.11726e-08
-2.1619e-07
6.21606e-09
1.6806e-08
-2.51256e-07
7.74454e-09
2.25322e-08
-2.76087e-07
9.4234e-09
2.78672e-08
-2.94227e-07
1.14361e-08
3.22969e-08
-3.07738e-07
1.38671e-08
3.53098e-08
-3.17925e-07
1.67485e-08
3.64416e-08
-3.25599e-07
2.00249e-08
3.53305e-08
-3.31324e-07
2.35695e-08
3.17827e-08
-3.35476e-07
2.71789e-08
2.58317e-08
-3.38346e-07
3.05734e-08
1.77854e-08
-3.40196e-07
3.3443e-08
8.18271e-09
-3.41229e-07
3.5524e-08
-2.21762e-09
-3.41624e-07
3.66002e-08
-1.26147e-08
-3.41477e-07
3.66258e-08
-2.22065e-08
-3.40782e-07
3.55995e-08
-3.02215e-08
-3.39435e-07
3.35649e-08
-3.61064e-08
-3.37253e-07
3.07362e-08
-3.95526e-08
-3.34013e-07
2.73907e-08
-4.05121e-08
-3.29476e-07
2.3845e-08
-3.91626e-08
-3.23354e-07
2.03681e-08
-3.58529e-08
-3.15274e-07
1.71641e-08
-3.10375e-08
-3.04717e-07
1.43655e-08
-2.52114e-08
-2.90913e-07
1.20109e-08
-1.8903e-08
-2.72616e-07
1.00649e-08
-1.26285e-08
-2.47836e-07
8.42272e-09
-6.91335e-09
-2.13125e-07
6.87173e-09
-2.37382e-09
-1.61892e-07
5.06116e-09
-7.89942e-08
2.38489e-09
1.4592e-09
-8.2959e-08
1.4554e-09
4.21636e-09
-1.70073e-07
3.11057e-09
7.68615e-09
-2.23922e-07
4.26212e-09
1.15353e-08
-2.60415e-07
5.30975e-09
1.5454e-08
-2.86482e-07
6.47601e-09
1.91111e-08
-3.05775e-07
7.89118e-09
2.21562e-08
-3.20412e-07
9.62907e-09
2.42339e-08
-3.31705e-07
1.17022e-08
2.50206e-08
-3.40461e-07
1.40756e-08
2.42508e-08
-3.47205e-07
1.66513e-08
2.17767e-08
-3.52278e-07
1.92766e-08
1.76103e-08
-3.5594e-07
2.17605e-08
1.19517e-08
-3.58407e-07
2.38704e-08
5.19079e-09
-3.59868e-07
2.53999e-08
-2.13423e-09
-3.60483e-07
2.61842e-08
-9.4438e-09
-3.60359e-07
2.61916e-08
-1.61547e-08
-3.59493e-07
2.54221e-08
-2.17282e-08
-3.57768e-07
2.39064e-08
-2.57698e-08
-3.55028e-07
2.18172e-08
-2.80697e-08
-3.51069e-07
1.93565e-08
-2.86108e-08
-3.4569e-07
1.67546e-08
-2.75405e-08
-3.38647e-07
1.42231e-08
-2.51167e-08
-3.29604e-07
1.19061e-08
-2.1665e-08
-3.18059e-07
9.8903e-09
-1.75435e-08
-3.03247e-07
8.21233e-09
-1.31129e-08
-2.83891e-07
6.84432e-09
-8.72912e-09
-2.57922e-07
5.70176e-09
-4.76333e-09
-2.21739e-07
4.64882e-09
-1.62649e-09
-1.68468e-07
3.43887e-09
-8.22559e-08
1.6352e-09
6.97327e-10
-8.43494e-08
6.93035e-10
2.00091e-09
-1.72836e-07
1.45876e-09
3.65028e-09
-2.27564e-07
1.99288e-09
5.48929e-09
-2.64754e-07
2.49965e-09
7.38115e-09
-2.91469e-07
3.09542e-09
9.17138e-09
-3.11415e-07
3.84959e-09
1.06875e-08
-3.26727e-07
4.7986e-09
1.1745e-08
-3.3871e-07
5.94769e-09
1.21726e-08
-3.48171e-07
7.28277e-09
1.18087e-08
-3.55601e-07
8.76006e-09
1.05509e-08
-3.61315e-07
1.02944e-08
8.39419e-09
-3.65546e-07
1.17634e-08
5.42114e-09
-3.68459e-07
1.30247e-08
1.83215e-09
-3.70238e-07
1.39593e-08
-2.07176e-09
-3.71021e-07
1.44416e-08
-5.94931e-09
-3.70912e-07
1.44301e-08
-9.4619e-09
-3.69908e-07
1.39279e-08
-1.23044e-08
-3.67902e-07
1.29763e-08
-1.42807e-08
-3.64754e-07
1.17025e-08
-1.53e-08
-3.60287e-07
1.02369e-08
-1.53784e-08
-3.54339e-07
8.72807e-09
-1.46276e-08
-3.46678e-07
7.2806e-09
-1.32032e-08
-3.37008e-07
5.98051e-09
-1.12738e-08
-3.24866e-07
4.87696e-09
-9.0458e-09
-3.09449e-07
3.97394e-09
-6.69609e-09
-2.89501e-07
3.26063e-09
-4.41825e-09
-2.62894e-07
2.69462e-09
-2.38381e-09
-2.25974e-07
2.20026e-09
-8.02254e-10
-1.71698e-07
1.64905e-09
-8.3867e-08
8.08911e-10
-1.33131e-10
-8.40776e-08
-1.38669e-10
-3.94901e-10
-1.72238e-07
-3.36015e-10
-7.17015e-10
-2.26774e-07
-4.68162e-10
-1.03208e-09
-2.63901e-07
-5.37908e-10
-1.30005e-09
-2.90653e-07
-5.47987e-10
-1.49148e-09
-3.10724e-07
-4.99467e-10
-1.59296e-09
-3.26234e-07
-3.91083e-10
-1.60849e-09
-3.3848e-07
-2.14781e-10
-1.55933e-09
-3.4825e-07
2.91524e-11
-1.48166e-09
-3.56017e-07
3.37536e-10
-1.41907e-09
-3.6208e-07
7.01964e-10
-1.42749e-09
-3.66649e-07
1.11063e-09
-1.53947e-09
-3.69865e-07
1.51781e-09
-1.75251e-09
-3.71879e-07
1.8542e-09
-2.02291e-09
-3.72791e-07
2.04032e-09
-2.25766e-09
-3.7269e-07
2.01296e-09
-2.36797e-09
-3.71576e-07
1.77816e-09
-2.30976e-09
-3.69359e-07
1.39849e-09
-2.09603e-09
-3.65936e-07
9.68089e-10
-1.75734e-09
-3.61174e-07
5.47765e-10
-1.36554e-09
-3.54916e-07
1.84798e-10
-9.61874e-10
-3.4698e-07
-1.02383e-10
-5.89977e-10
-3.37067e-07
-3.13726e-10
-2.93141e-10
-3.24712e-07
-4.50346e-10
-6.86714e-11
-3.09157e-07
-5.1658e-10
6.90249e-11
-2.89114e-07
-5.24511e-10
1.35122e-10
-2.62482e-07
-4.78525e-10
1.28047e-10
-2.25586e-07
-3.81068e-10
6.853e-11
-1.71403e-07
-2.3605e-10
-8.3735e-08
-6.34965e-11
-9.88276e-10
-8.20953e-08
-9.93942e-10
-2.86527e-09
-1.6818e-07
-2.18049e-09
-5.19482e-09
-2.21453e-07
-2.99108e-09
-7.71175e-09
-2.57736e-07
-3.64762e-09
-1.0178e-08
-2.83912e-07
-4.27463e-09
-1.23903e-08
-3.03568e-07
-4.9438e-09
-1.4145e-08
-3.18781e-07
-5.69874e-09
-1.52659e-08
-3.30817e-07
-6.54177e-09
-1.56129e-08
-3.40451e-07
-7.45154e-09
-1.51019e-08
-3.48153e-07
-8.37464e-09
-1.37214e-08
-3.54218e-07
-9.24209e-09
-1.15444e-08
-3.58839e-07
-9.98698e-09
-8.72512e-09
-3.62141e-07
-1.05435e-08
-5.46407e-09
-3.64247e-07
-1.08933e-08
-1.98114e-09
-3.65215e-07
-1.10584e-08
1.54334e-09
-3.65121e-07
-1.10936e-08
4.92195e-09
-3.63955e-07
-1.09996e-08
7.93889e-09
-3.61658e-07
-1.07172e-08
1.03731e-08
-3.58168e-07
-1.02028e-08
1.20613e-08
-3.53381e-07
-9.48062e-09
1.29172e-08
-3.47157e-07
-8.61434e-09
1.29414e-08
-3.39328e-07
-7.67559e-09
1.22082e-08
-3.29597e-07
-6.73684e-09
1.08478e-08
-3.17495e-07
-5.85653e-09
9.02734e-09
-3.02276e-07
-5.06069e-09
6.92865e-09
-2.82666e-07
-4.34949e-09
4.74006e-09
-2.56612e-07
-3.68091e-09
2.66908e-09
-2.2053e-07
-2.98466e-09
9.48865e-10
-1.67543e-07
-2.13997e-09
-8.18413e-08
-9.44824e-10
-1.82426e-09
-7.84388e-08
-1.83229e-09
-5.27738e-09
-1.60744e-07
-3.98277e-09
-9.56959e-09
-2.11702e-07
-5.45903e-09
-1.42255e-08
-2.46398e-07
-6.68185e-09
-1.88409e-08
-2.71391e-07
-7.90587e-09
-2.30202e-08
-2.90111e-07
-9.27796e-09
-2.63914e-08
-3.04543e-07
-1.08664e-08
-2.86005e-08
-3.15906e-07
-1.27018e-08
-2.93543e-08
-3.24951e-07
-1.47462e-08
-2.84529e-08
-3.32143e-07
-1.69111e-08
-2.58117e-08
-3.37795e-07
-1.90641e-08
-2.15238e-08
-3.421e-07
-2.1027e-08
-1.58344e-08
-3.45199e-07
-2.26312e-08
-9.14462e-09
-3.47186e-07
-2.37504e-08
-1.93968e-09
-3.48114e-07
-2.43062e-08
5.31133e-09
-3.48019e-07
-2.43526e-08
1.21321e-08
-3.46896e-07
-2.38801e-08
1.80339e-08
-3.44725e-07
-2.2835e-08
2.26016e-08
-3.41457e-07
-2.12785e-08
2.5566e-08
-3.37e-07
-1.93452e-08
2.68306e-08
-3.31218e-07
-1.72036e-08
2.64568e-08
-3.23927e-07
-1.50275e-08
2.46335e-08
-3.14816e-07
-1.29577e-08
2.16494e-08
-3.03423e-07
-1.10877e-08
1.78356e-08
-2.89002e-07
-9.4596e-09
1.35631e-08
-2.70349e-07
-8.04442e-09
9.20007e-09
-2.45475e-07
-6.77478e-09
5.12651e-09
-2.10953e-07
-5.50351e-09
1.80317e-09
-1.6024e-07
-3.97959e-09
-7.82387e-08
-1.79948e-09
-2.60253e-09
-7.3226e-08
-2.6103e-09
-7.51581e-09
-1.50178e-07
-5.65348e-09
-1.36298e-08
-1.97847e-07
-7.74068e-09
-2.02714e-08
-2.30269e-07
-9.48751e-09
-2.6873e-08
-2.53534e-07
-1.12558e-08
-3.2878e-08
-2.70842e-07
-1.32638e-08
-3.77506e-08
-2.84048e-07
-1.56226e-08
-4.09796e-08
-2.94309e-07
-1.83683e-08
-4.21331e-08
-3.02331e-07
-2.14665e-08
-4.08836e-08
-3.08598e-07
-2.4795e-08
-3.7097e-08
-3.13425e-07
-2.81565e-08
-3.08576e-08
-3.17037e-07
-3.13017e-08
-2.2507e-08
-3.19593e-07
-3.3956e-08
-1.26094e-08
-3.21211e-07
-3.58725e-08
-1.89451e-09
-3.21958e-07
-3.68707e-08
8.86883e-09
-3.2186e-07
-3.69228e-08
1.89074e-08
-3.20922e-07
-3.60129e-08
2.74754e-08
-3.19123e-07
-3.41696e-08
3.39992e-08
-3.16404e-07
-3.15763e-08
3.81208e-08
-3.12658e-07
-2.84642e-08
3.97369e-08
-3.07723e-07
-2.5111e-08
3.89675e-08
-3.01382e-07
-2.17752e-08
3.61206e-08
-2.93313e-07
-1.86557e-08
3.16255e-08
-2.8305e-07
-1.58787e-08
2.59744e-08
-2.69869e-07
-1.34818e-08
1.96901e-08
-2.52633e-07
-1.14317e-08
1.33159e-08
-2.29485e-07
-9.61564e-09
7.40127e-09
-1.97223e-07
-7.81562e-09
2.59078e-09
-1.49757e-07
-5.67232e-09
-7.3061e-08
-2.58692e-09
-3.28788e-09
-6.66426e-08
-3.29547e-09
-9.48416e-09
-1.36855e-07
-7.12641e-09
-1.71884e-08
-1.80396e-07
-9.74679e-09
-2.55676e-08
-2.09952e-07
-1.19383e-08
-3.3901e-08
-2.31041e-07
-1.41593e-08
-4.1498e-08
-2.46551e-07
-1.66936e-08
-4.7672e-08
-2.58184e-07
-1.96901e-08
-5.17863e-08
-2.66997e-07
-2.31974e-08
-5.32769e-08
-2.73677e-07
-2.71638e-08
-5.17286e-08
-2.78698e-07
-3.14481e-08
-4.69466e-08
-2.82392e-07
-3.58156e-08
-3.90129e-08
-2.8502e-07
-3.99511e-08
-2.83389e-08
-2.86784e-07
-4.3483e-08
-1.56306e-08
-2.87848e-07
-4.60713e-08
-1.84245e-09
-2.88311e-07
-4.74351e-08
1.1993e-08
-2.88215e-07
-4.74806e-08
2.48376e-08
-2.87564e-07
-4.62025e-08
3.57356e-08
-2.86332e-07
-4.36899e-08
4.39549e-08
-2.8441e-07
-4.02141e-08
4.90712e-08
-2.8166e-07
-3.61139e-08
5.09842e-08
-2.77875e-07
-3.17618e-08
4.98703e-08
-2.72794e-07
-2.74747e-08
4.61359e-08
-2.66087e-07
-2.34916e-08
4.0325e-08
-2.57281e-07
-1.99574e-08
3.3069e-08
-2.45687e-07
-1.69262e-08
2.50399e-08
-2.30253e-07
-1.43511e-08
1.69111e-08
-2.09273e-07
-1.20828e-08
9.38387e-09
-1.79859e-07
-9.83661e-09
3.28147e-09
-1.36498e-07
-7.15624e-09
-6.65024e-08
-3.2771e-09
-3.84733e-09
-5.89404e-08
-3.8549e-09
-1.10903e-08
-1.21287e-07
-8.32519e-09
-2.00956e-08
-1.6002e-07
-1.13706e-08
-2.98855e-08
-1.86249e-07
-1.39132e-08
-3.96265e-08
-2.04811e-07
-1.64889e-08
-4.85088e-08
-2.18251e-07
-1.94178e-08
-5.57323e-08
-2.28084e-07
-2.28766e-08
-6.05468e-08
-2.35258e-07
-2.6924e-08
-6.22915e-08
-2.40426e-07
-3.15063e-08
-6.04801e-08
-2.44035e-07
-3.6474e-08
-5.4874e-08
-2.46447e-07
-4.1551e-08
-4.55635e-08
-2.47957e-07
-4.63736e-08
-3.30112e-08
-2.48819e-07
-5.0518e-08
-1.80444e-08
-2.49241e-07
-5.35738e-08
-1.78285e-09
-2.49373e-07
-5.52e-08
1.45254e-08
-2.49282e-07
-5.52413e-08
2.9629e-08
-2.48977e-07
-5.36908e-08
4.2393e-08
-2.48392e-07
-5.07038e-08
5.19844e-08
-2.47385e-07
-4.66156e-08
5.79177e-08
-2.45764e-07
-4.1829e-08
6.00856e-08
-2.43273e-07
-3.67695e-08
5.87087e-08
-2.39614e-07
-3.18028e-08
5.42647e-08
-2.34435e-07
-2.72081e-08
4.73938e-08
-2.27272e-07
-2.31386e-08
3.88415e-08
-2.17486e-07
-1.9649e-08
2.93896e-08
-2.04119e-07
-1.66824e-08
1.98374e-08
-1.8566e-07
-1.40612e-08
1.10021e-08
-1.59559e-07
-1.14644e-08
3.84332e-09
-1.20981e-07
-8.35841e-09
-5.88208e-08
-3.83836e-09
-4.26119e-09
-5.0411e-08
-4.26818e-09
-1.22749e-08
-1.04065e-07
-9.20774e-09
-2.22317e-08
-1.37501e-07
-1.25629e-08
-3.30596e-08
-1.60077e-07
-1.53443e-08
-4.38351e-08
-1.75893e-07
-1.81426e-08
-5.36546e-08
-1.87117e-07
-2.13149e-08
-6.16372e-08
-1.95052e-07
-2.50495e-08
-6.69438e-08
-2.00546e-07
-2.94059e-08
-6.88504e-08
-2.04182e-07
-3.43374e-08
-6.68174e-08
-2.06399e-07
-3.96699e-08
-6.0588e-08
-2.07565e-07
-4.51113e-08
-5.02608e-08
-2.07998e-07
-5.02862e-08
-3.6345e-08
-2.08e-07
-5.47349e-08
-1.97496e-08
-2.07817e-07
-5.802e-08
-1.71502e-09
-2.07637e-07
-5.977e-08
1.63632e-08
-2.07554e-07
-5.98059e-08
3.3088e-08
-2.07573e-07
-5.81287e-08
4.72077e-08
-2.07607e-07
-5.49041e-08
5.78063e-08
-2.07482e-07
-5.05015e-08
6.43487e-08
-2.06947e-07
-4.53602e-08
6.67242e-08
-2.05712e-07
-3.99368e-08
6.51759e-08
-2.03457e-07
-3.46087e-08
6.02227e-08
-1.99812e-07
-2.96696e-08
5.25841e-08
-1.94338e-07
-2.52953e-08
4.30802e-08
-1.86447e-07
-2.15346e-08
3.25843e-08
-1.75294e-07
-1.83286e-08
2.19856e-08
-1.59575e-07
-1.54858e-08
1.21887e-08
-1.3711e-07
-1.26521e-08
4.25729e-09
-1.03809e-07
-9.24028e-09
-5.03114e-08
-4.25211e-09
-4.51129e-09
-4.1382e-08
-4.51773e-09
-1.2986e-08
-8.58554e-08
-9.73518e-09
-2.35208e-08
-1.13708e-07
-1.32582e-08
-3.49838e-08
-1.32455e-07
-1.61584e-08
-4.64009e-08
-1.4542e-07
-1.90559e-08
-5.68078e-08
-1.54389e-07
-2.23208e-08
-6.52552e-08
-1.60456e-07
-2.61488e-08
-7.08531e-08
-1.64345e-07
-3.06035e-08
-7.28356e-08
-1.66577e-07
-3.56228e-08
-7.06393e-08
-1.67566e-07
-4.10288e-08
-6.4005e-08
-1.67665e-07
-4.65345e-08
-5.30371e-08
-1.67212e-07
-5.17539e-08
-3.82917e-08
-1.66514e-07
-5.62306e-08
-2.07245e-08
-1.6585e-07
-5.95339e-08
-1.6377e-09
-1.65426e-07
-6.12983e-08
1.74903e-08
-1.65353e-07
-6.1329e-08
3.51785e-08
-1.65636e-07
-5.96243e-08
5.01192e-08
-1.66174e-07
-5.63742e-08
6.13359e-08
-1.66758e-07
-5.19406e-08
6.82715e-08
-1.6713e-07
-4.67527e-08
7.07948e-08
-1.66971e-07
-4.12647e-08
6.9155e-08
-1.65952e-07
-3.58655e-08
6.38979e-08
-1.63713e-07
-3.0842e-08
5.57779e-08
-1.59844e-07
-2.63735e-08
4.56767e-08
-1.53822e-07
-2.25236e-08
3.45287e-08
-1.44918e-07
-1.92289e-08
2.32825e-08
-1.32035e-07
-1.62945e-08
1.29027e-08
-1.13386e-07
-1.33448e-08
4.50653e-09
-8.56485e-08
-9.76483e-09
-4.13033e-08
-4.50157e-09
-4.58099e-09
-3.22148e-08
-4.58626e-09
-1.3188e-08
-6.73736e-08
-9.87479e-09
-2.3909e-08
-8.95629e-08
-1.34239e-08
-3.56037e-08
-1.04443e-07
-1.63177e-08
-4.72733e-08
-1.14564e-07
-1.91868e-08
-5.79207e-08
-1.21337e-07
-2.24047e-08
-6.65614e-08
-1.25651e-07
-2.61634e-08
-7.22757e-08
-1.28109e-07
-3.05216e-08
-7.42753e-08
-1.29163e-07
-3.54137e-08
-7.19943e-08
-1.29181e-07
-4.06661e-08
-6.51793e-08
-1.2849e-07
-4.59896e-08
-5.39622e-08
-1.27412e-07
-5.10169e-08
-3.89083e-08
-1.2625e-07
-5.53179e-08
-2.09971e-08
-1.25279e-07
-5.84828e-08
-1.54959e-09
-1.24707e-07
-6.01663e-08
1.79361e-08
-1.24646e-07
-6.01923e-08
3.59599e-08
-1.25101e-07
-5.85592e-08
5.1193e-08
-1.25967e-07
-5.54404e-08
6.26477e-08
-1.27037e-07
-5.11763e-08
6.97424e-08
-1.28046e-07
-4.6178e-08
7.23318e-08
-1.28688e-07
-4.08717e-08
7.06533e-08
-1.28646e-07
-3.56272e-08
6.52656e-08
-1.27592e-07
-3.07336e-08
5.69356e-08
-1.25149e-07
-2.63651e-08
4.65781e-08
-1.20876e-07
-2.25888e-08
3.51631e-08
-1.14158e-07
-1.93449e-08
2.36772e-08
-1.04108e-07
-1.64405e-08
1.31061e-08
-8.93126e-08
-1.3502e-08
4.57443e-09
-6.72155e-08
-9.90129e-09
-3.21583e-08
-4.57057e-09
-4.45092e-09
-2.33077e-08
-4.45614e-09
-1.28412e-08
-4.9401e-08
-9.58231e-09
-2.33428e-08
-6.6064e-08
-1.29973e-08
-3.48665e-08
-7.71672e-08
-1.57517e-08
-4.64181e-08
-8.45482e-08
-1.84639e-08
-5.69899e-08
-8.92642e-08
-2.15009e-08
-6.55846e-08
-9.20079e-08
-2.50488e-08
-7.12648e-08
-9.32715e-08
-2.9157e-08
-7.32525e-08
-9.34174e-08
-3.37581e-08
-7.09893e-08
-9.27615e-08
-3.86828e-08
-6.42372e-08
-9.15855e-08
-4.36566e-08
-5.31437e-08
-9.01727e-08
-4.83327e-08
-3.82802e-08
-8.87982e-08
-5.23158e-08
-2.06159e-08
-8.77045e-08
-5.52383e-08
-1.44738e-09
-8.70826e-08
-5.67928e-08
1.77564e-08
-8.70354e-08
-5.68148e-08
3.55241e-08
-8.75658e-08
-5.5303e-08
5.05544e-08
-8.85779e-08
-5.24189e-08
6.18659e-08
-8.9882e-08
-4.84664e-08
6.88752e-08
-9.12392e-08
-4.38164e-08
7.14253e-08
-9.2377e-08
-3.88613e-08
6.97406e-08
-9.3016e-08
-3.39454e-08
6.43612e-08
-9.28675e-08
-2.93447e-08
5.60623e-08
-9.16216e-08
-2.52289e-08
4.57622e-08
-8.89094e-08
-2.16666e-08
3.44499e-08
-8.42388e-08
-1.86066e-08
2.31231e-08
-7.69177e-08
-1.58637e-08
1.27604e-08
-6.58811e-08
-1.30687e-08
4.44392e-09
-4.92923e-08
-9.60679e-09
-2.32725e-08
-4.4419e-09
-4.09545e-09
-1.51127e-08
-4.09957e-09
-1.18888e-08
-3.28085e-08
-8.79922e-09
-2.17621e-08
-4.43005e-08
-1.18902e-08
-3.27174e-08
-5.18614e-08
-1.43506e-08
-4.37938e-08
-5.67054e-08
-1.67664e-08
-5.39911e-08
-5.95795e-08
-1.94875e-08
-6.23124e-08
-6.09976e-08
-2.2689e-08
-6.78399e-08
-6.13301e-08
-2.6414e-08
-6.9805e-08
-6.08599e-08
-3.05924e-08
-6.76775e-08
-5.98285e-08
-3.50604e-08
-6.12397e-08
-5.84611e-08
-3.95622e-08
-5.06488e-08
-5.69837e-08
-4.37799e-08
-3.64607e-08
-5.56196e-08
-4.73667e-08
-1.96077e-08
-5.45659e-08
-4.99916e-08
-1.32603e-09
-5.39801e-08
-5.13842e-08
1.69875e-08
-5.39461e-08
-5.14029e-08
3.39341e-08
-5.44659e-08
-5.00465e-08
4.82726e-08
-5.54594e-08
-4.74571e-08
5.90626e-08
-5.67728e-08
-4.38993e-08
6.57354e-08
-5.821e-08
-3.9702e-08
6.81255e-08
-5.95517e-08
-3.52155e-08
6.64351e-08
-6.05695e-08
-3.07563e-08
6.11874e-08
-6.10406e-08
-2.65792e-08
5.31355e-08
-6.07206e-08
-2.28491e-08
4.31889e-08
-5.93273e-08
-1.96355e-08
3.23339e-08
-5.64887e-08
-1.68951e-08
2.15586e-08
-5.169e-08
-1.44523e-08
1.1814e-08
-4.41806e-08
-1.1956e-08
4.08771e-09
-3.27429e-08
-8.8231e-09
-1.50966e-08
-4.08813e-09
-3.4766e-09