/*--------------------------------*- C++ -*----------------------------------*\
| =========                 |                                                 |
| \\      /  F ield         | OpenFOAM: The Open Source CFD Toolbox           |
|  \\    /   O peration     | Version:  v1906                                 |
|   \\  /    A nd           | Web:      www.OpenFOAM.com                      |
|    \\/     M anipulation  |                                                 |
\*---------------------------------------------------------------------------*/
FoamFile
{
    version     2.0;
    format      ascii;
    class       surfaceScalarField;
    location    "8";
    object      phi;
}
// * * * * * * * * * * * * * * * * * * * * * * * * * * * * * * * * * * * * * //

dimensions      [1 0 -1 0 0 0 0];
oriented        oriented;


internalField   nonuniform List<scalar> 
228225
(
-9.14826e-10
5.58321e-09
-4.50697e-09
-1.19814e-08
1.95658e-08
-8.49982e-09
-3.06589e-08
2.86979e-08
-1.00212e-08
-5.62839e-08
3.62826e-08
-1.06588e-08
-8.76367e-08
4.24406e-08
-1.1083e-08
-1.23041e-07
4.70323e-08
-1.16304e-08
-1.60994e-07
5.04128e-08
-1.24627e-08
-2.00378e-07
5.29928e-08
-1.36072e-08
-2.40428e-07
5.51837e-08
-1.51341e-08
-2.80467e-07
5.71619e-08
-1.71214e-08
-3.19836e-07
5.89604e-08
-1.95911e-08
-3.578e-07
6.03794e-08
-2.24174e-08
-3.93594e-07
6.09305e-08
-2.51349e-08
-4.26198e-07
6.01001e-08
-2.74964e-08
-4.54697e-07
5.81133e-08
-2.96177e-08
-4.78405e-07
5.52417e-08
-3.15307e-08
-4.96908e-07
5.1715e-08
-3.32117e-08
-5.09869e-07
4.77546e-08
-3.47941e-08
-5.16933e-07
4.347e-08
-3.64071e-08
-5.17774e-07
3.89316e-08
-3.80894e-08
-5.12159e-07
3.42168e-08
-3.98322e-08
-4.99986e-07
2.94256e-08
-4.16002e-08
-4.8133e-07
2.46847e-08
-4.334e-08
-4.56485e-07
2.01441e-08
-4.49873e-08
-4.25967e-07
1.59529e-08
-4.64722e-08
-3.90458e-07
1.22076e-08
-4.77182e-08
-3.50646e-07
8.85076e-09
-4.866e-08
-3.07227e-07
5.8219e-09
-4.92411e-08
-2.60881e-07
3.06552e-09
-4.94127e-08
-2.12352e-07
5.74668e-10
-4.91045e-08
-1.62453e-07
-1.68675e-09
-4.82116e-08
-1.12233e-07
-3.74345e-09
-4.64745e-08
-6.36997e-08
-5.2691e-09
-4.32681e-08
-2.10352e-08
-5.89886e-09
-3.67633e-08
-3.79503e-09
-1.72409e-08
-2.90789e-08
5.39767e-08
-1.93143e-08
-8.74928e-08
9.3695e-08
-1.57144e-08
-1.5746e-07
1.12635e-07
-1.3973e-08
-2.33127e-07
1.25624e-07
-1.36723e-08
-3.09611e-07
1.33183e-07
-1.42579e-08
-3.82908e-07
1.35952e-07
-1.56236e-08
-4.49927e-07
1.35249e-07
-1.78164e-08
-5.08262e-07
1.32275e-07
-2.09484e-08
-5.5627e-07
1.2808e-07
-2.48872e-08
-5.92907e-07
1.23269e-07
-2.94708e-08
-6.17655e-07
1.18109e-07
-3.4401e-08
-6.30546e-07
1.12527e-07
-3.92558e-08
-6.32682e-07
1.06302e-07
-4.32369e-08
-6.26161e-07
9.92193e-08
-4.56384e-08
-6.13097e-07
9.17284e-08
-4.66807e-08
-5.95302e-07
8.41609e-08
-4.67141e-08
-5.74358e-07
7.66775e-08
-4.5906e-08
-5.51298e-07
6.94142e-08
-4.47213e-08
-5.26562e-07
6.24186e-08
-4.36841e-08
-5.00247e-07
5.57094e-08
-4.3091e-08
-4.72282e-07
4.92618e-08
-4.30115e-08
-4.42565e-07
4.3075e-08
-4.33659e-08
-4.11097e-07
3.72167e-08
-4.40015e-08
-3.7799e-07
3.17554e-08
-4.47171e-08
-3.43509e-07
2.67839e-08
-4.53133e-08
-3.08001e-07
2.23526e-08
-4.56513e-08
-2.71774e-07
1.83957e-08
-4.57716e-08
-2.35089e-07
1.4846e-08
-4.57097e-08
-1.98215e-07
1.1649e-08
-4.54576e-08
-1.61415e-07
8.76201e-09
-4.49885e-08
-1.25007e-07
6.16225e-09
-4.4257e-08
-8.94436e-08
3.89473e-09
-4.32012e-08
-5.52331e-08
2.06275e-09
-4.15411e-08
-2.39523e-08
1.19709e-09
-3.83799e-08
3.39052e-09
-3.11365e-08
-6.40172e-08
9.52266e-08
2.27668e-08
-1.62949e-07
1.60284e-07
3.23441e-08
-2.75284e-07
1.88651e-07
3.63192e-08
-3.90659e-07
2.03452e-07
3.75466e-08
-5.00772e-07
2.07121e-07
3.61753e-08
-5.99536e-07
2.02341e-07
3.23745e-08
-6.83168e-07
1.92383e-07
2.6497e-08
-7.4904e-07
1.79252e-07
1.88987e-08
-7.95648e-07
1.6451e-07
1.01774e-08
-8.22561e-07
1.49138e-07
1.04329e-09
-8.3054e-07
1.33917e-07
-7.83031e-09
-8.21356e-07
1.19316e-07
-1.59708e-08
-7.97575e-07
1.05542e-07
-2.30217e-08
-7.62304e-07
9.27039e-08
-2.87559e-08
-7.18516e-07
8.10904e-08
-3.31492e-08
-6.69222e-07
7.11892e-08
-3.63239e-08
-6.17131e-07
6.30633e-08
-3.84743e-08
-5.64314e-07
5.63732e-08
-3.97778e-08
-5.12113e-07
5.0591e-08
-4.03734e-08
-4.61364e-07
4.5444e-08
-4.04836e-08
-4.12608e-07
4.08774e-08
-4.03712e-08
-3.66386e-07
3.70205e-08
-4.0168e-08
-3.23083e-07
3.3802e-08
-3.98881e-08
-2.82879e-07
3.11028e-08
-3.9551e-08
-2.45771e-07
2.88393e-08
-3.91647e-08
-2.11584e-07
2.69089e-08
-3.87421e-08
-1.80125e-07
2.52255e-08
-3.82899e-08
-1.51181e-07
2.37105e-08
-3.78075e-08
-1.24546e-07
2.22948e-08
-3.72817e-08
-1.00011e-07
2.09172e-08
-3.66891e-08
-7.73814e-08
1.95245e-08
-3.59927e-08
-5.64418e-08
1.80807e-08
-3.51253e-08
-3.6988e-08
1.65626e-08
-3.39542e-08
-1.86251e-08
1.49269e-08
-3.20925e-08
1.23483e-08
-2.75825e-08
-9.76116e-08
1.06749e-07
8.60901e-08
-2.07596e-07
1.70068e-07
1.00199e-07
-3.20739e-07
1.96945e-07
1.04849e-07
-4.34113e-07
2.09705e-07
1.07121e-07
-5.42803e-07
2.10312e-07
1.05501e-07
-6.42374e-07
2.01557e-07
1.00355e-07
-7.26761e-07
1.869e-07
8.98682e-08
-7.90845e-07
1.68559e-07
7.4778e-08
-8.31066e-07
1.48298e-07
5.64332e-08
-8.46995e-07
1.27363e-07
3.77029e-08
-8.4073e-07
1.0687e-07
2.07815e-08
-8.16233e-07
8.76386e-08
7.18082e-09
-7.77867e-07
7.01868e-08
-3.01137e-09
-7.29694e-07
5.49649e-08
-1.04338e-08
-6.75635e-07
4.24258e-08
-1.53944e-08
-6.1881e-07
3.2985e-08
-1.86207e-08
-5.61583e-07
2.64898e-08
-2.06527e-08
-5.05312e-07
2.23252e-08
-2.22232e-08
-4.5075e-07
1.97369e-08
-2.37097e-08
-3.98453e-07
1.82986e-08
-2.51502e-08
-3.49055e-07
1.7847e-08
-2.6368e-08
-3.03174e-07
1.83366e-08
-2.71978e-08
-2.61152e-07
1.94919e-08
-2.77111e-08
-2.23146e-07
2.10839e-08
-2.79865e-08
-1.89185e-07
2.29392e-08
-2.80613e-08
-1.59171e-07
2.48825e-08
-2.79877e-08
-1.32906e-07
2.67591e-08
-2.78e-08
-1.10103e-07
2.84435e-08
-2.75356e-08
-9.03911e-08
2.98031e-08
-2.72208e-08
-7.33084e-08
3.07154e-08
-2.68795e-08
-5.82994e-08
3.1034e-08
-2.65188e-08
-4.46235e-08
3.06058e-08
-2.62004e-08
-3.11268e-08
2.92064e-08
-2.61417e-08
-1.66186e-08
2.68669e-08
-2.64477e-08
2.12344e-08
-2.55057e-08
-6.47986e-08
8.1391e-08
9.01575e-08
-1.19438e-07
1.20762e-07
1.03945e-07
-1.6801e-07
1.37138e-07
1.0838e-07
-2.14657e-07
1.45703e-07
1.1065e-07
-2.60974e-07
1.46702e-07
1.09925e-07
-3.07042e-07
1.4108e-07
1.06546e-07
-3.50326e-07
1.30286e-07
9.98951e-08
-3.87355e-07
1.15818e-07
8.9771e-08
-4.14263e-07
9.92329e-08
7.59727e-08
-4.28752e-07
8.19025e-08
5.995e-08
-4.30868e-07
6.49814e-08
4.40043e-08
-4.22776e-07
4.93271e-08
3.02209e-08
-4.07536e-07
3.55823e-08
1.93619e-08
-3.87959e-07
2.41463e-08
1.12443e-08
-3.65974e-07
1.52368e-08
5.20343e-09
-3.42385e-07
8.85564e-09
5.3904e-10
-3.17609e-07
4.85774e-09
-3.143e-09
-2.91968e-07
2.80997e-09
-6.12482e-09
-2.66219e-07
2.48476e-09
-8.49708e-09
-2.41171e-07
3.53847e-09
-1.0288e-08
-2.1732e-07
5.54996e-09
-1.15553e-08
-1.94928e-07
8.3249e-09
-1.23788e-08
-1.7416e-07
1.15751e-08
-1.28525e-08
-1.55079e-07
1.50518e-08
-1.30493e-08
-1.37659e-07
1.8565e-08
-1.30439e-08
-1.2182e-07
2.19518e-08
-1.29097e-08
-1.07413e-07
2.50648e-08
-1.27117e-08
-9.42353e-08
2.77714e-08
-1.25059e-08
-8.20337e-08
2.99446e-08
-1.23421e-08
-7.04896e-08
3.14344e-08
-1.22645e-08
-5.92363e-08
3.20811e-08
-1.23009e-08
-4.77906e-08
3.16747e-08
-1.25136e-08
-3.5354e-08
2.99703e-08
-1.32004e-08
-2.03563e-08
2.64433e-08
-1.45757e-08
1.6837e-08
-1.59582e-08
-7.47687e-09
4.06164e-08
4.8252e-08
1.97421e-09
5.72024e-08
5.41077e-08
1.89697e-08
6.4373e-08
5.5768e-08
4.00488e-08
6.83411e-08
5.62839e-08
6.2579e-08
6.90357e-08
5.51356e-08
8.45636e-08
6.68778e-08
5.22194e-08
1.04686e-07
6.25719e-08
4.75886e-08
1.22077e-07
5.68187e-08
4.16109e-08
1.36143e-07
5.03654e-08
3.48018e-08
1.46364e-07
4.38335e-08
2.78459e-08
1.52341e-07
3.77522e-08
2.12548e-08
1.53824e-07
3.24941e-08
1.53474e-08
1.50878e-07
2.82998e-08
1.0231e-08
1.43823e-07
2.52684e-08
5.93075e-09
1.33273e-07
2.33763e-08
2.41127e-09
1.19985e-07
2.25195e-08
-3.76573e-10
1.04823e-07
2.25349e-08
-2.51544e-09
8.85074e-08
2.32314e-08
-4.10474e-09
7.17927e-08
2.44121e-08
-5.21328e-09
5.53296e-08
2.59072e-08
-5.90553e-09
3.95692e-08
2.75568e-08
-6.24688e-09
2.49559e-08
2.92446e-08
-6.30624e-09
1.1818e-08
3.08692e-08
-6.15574e-09
3.71456e-10
3.23618e-08
-5.86383e-09
-9.2399e-09
3.36704e-08
-5.49507e-09
-1.69373e-08
3.47588e-08
-5.10878e-09
-2.27037e-08
3.55872e-08
-4.75644e-09
-2.65636e-08
3.61152e-08
-4.48365e-09
-2.85568e-08
3.62714e-08
-4.33531e-09
-2.87261e-08
3.59551e-08
-4.34961e-09
-2.71106e-08
3.50174e-08
-4.55245e-09
-2.37166e-08
3.32816e-08
-5.00105e-09
-1.83087e-08
3.05285e-08
-5.96438e-09
-1.06299e-08
2.64023e-08
-7.64163e-09
1.59666e-08
-9.75737e-09
1.43965e-08
1.00729e-08
1.61477e-08
3.70172e-08
1.78457e-08
1.67349e-08
6.36401e-08
2.15738e-08
1.61777e-08
9.20621e-08
2.42668e-08
1.56503e-08
1.20208e-07
2.60145e-08
1.48763e-08
1.46384e-07
2.69927e-08
1.37095e-08
1.69308e-07
2.74159e-08
1.22313e-08
1.88208e-07
2.74203e-08
1.04981e-08
2.02523e-07
2.74926e-08
8.55756e-09
2.11831e-07
2.80985e-08
6.42628e-09
2.15894e-07
2.94937e-08
4.19749e-09
2.14693e-07
3.16893e-08
2.00628e-09
2.08469e-07
3.45061e-08
1.67258e-11
1.97769e-07
3.75897e-08
-1.6212e-09
1.83498e-07
4.05594e-08
-2.91343e-09
1.66622e-07
4.32813e-08
-3.88409e-09
1.48029e-07
4.57069e-08
-4.58047e-09
1.28531e-07
4.7769e-08
-5.0392e-09
1.08791e-07
4.94379e-08
-5.28577e-09
8.93625e-08
5.06846e-08
-5.34893e-09
7.06714e-08
5.15072e-08
-5.25875e-09
5.30635e-08
5.18967e-08
-5.0453e-09
3.67972e-08
5.18742e-08
-4.73878e-09
2.20831e-08
5.1449e-08
-4.37169e-09
9.07778e-09
5.06478e-08
-3.97393e-09
-2.05623e-09
4.94712e-08
-3.57732e-09
-1.1201e-08
4.79442e-08
-3.21244e-09
-1.82088e-08
4.60381e-08
-2.9151e-09
-2.29872e-08
4.37712e-08
-2.72048e-09
-2.55213e-08
4.11502e-08
-2.66165e-09
-2.58776e-08
3.81336e-08
-2.76028e-09
-2.41188e-08
3.45924e-08
-3.06925e-09
-2.0142e-08
3.03885e-08
-3.83711e-09
-1.30185e-08
2.45532e-08
-5.27265e-09
1.00078e-08
-7.06151e-09
2.72792e-09
-9.34239e-10
8.27985e-09
3.52636e-09
1.00149e-08
7.03341e-09
4.47841e-09
1.4886e-08
5.73439e-09
5.38939e-09
1.8456e-08
4.89871e-09
6.03591e-09
2.11519e-08
4.21631e-09
6.32066e-09
2.32007e-08
3.50722e-09
6.25161e-09
2.47221e-08
2.76381e-09
5.84138e-09
2.58032e-08
2.02703e-09
5.29142e-09
2.68841e-08
1.15835e-09
4.90772e-09
2.84407e-08
4.14759e-11
4.96906e-09
3.06942e-08
-1.26298e-09
5.68422e-09
3.36311e-08
-2.65426e-09
7.14144e-09
3.70254e-08
-3.97798e-09
9.30172e-09
4.05331e-08
-5.10484e-09
1.20472e-08
4.37863e-08
-5.97154e-09
1.5222e-08
4.67189e-08
-6.61243e-09
1.86651e-08
4.93186e-08
-7.05471e-09
2.21602e-08
5.15828e-08
-7.30857e-09
2.54813e-08
5.35034e-08
-7.38622e-09
2.83855e-08
5.50783e-08
-7.2983e-09
3.066e-08
5.62938e-08
-7.0615e-09
3.21013e-08
5.71478e-08
-6.69229e-09
3.25669e-08
5.76223e-08
-6.21271e-09
3.19482e-08
5.77131e-08
-5.64599e-09
3.0223e-08
5.73954e-08
-5.02352e-09
2.74156e-08
5.66554e-08
-4.37557e-09
2.36406e-08
5.54644e-08
-3.74556e-09
1.90805e-08
5.37696e-08
-3.17074e-09
1.40106e-08
5.15302e-08
-2.69105e-09
8.75834e-09
4.87427e-08
-2.33823e-09
3.70085e-09
4.53186e-08
-2.12864e-09
-6.85384e-10
4.10882e-08
-2.10995e-09
-3.54702e-09
3.57929e-08
-2.54199e-09
-3.88825e-09
2.86102e-08
-3.71591e-09
1.13884e-08
-5.26912e-09
-5.71438e-09
-1.13797e-09
5.91845e-09
-1.28267e-08
1.12662e-08
5.86066e-09
-2.0131e-08
1.671e-08
5.48003e-09
-2.75924e-08
2.08095e-08
5.10838e-09
-3.50114e-08
2.39479e-08
4.62217e-09
-4.21808e-08
2.64111e-08
3.95851e-09
-4.8981e-08
2.84105e-08
3.11205e-09
-5.54111e-08
3.01174e-08
2.11686e-09
-6.12664e-08
3.16779e-08
1.06083e-09
-6.60523e-08
3.31991e-08
2.70106e-11
-6.92018e-08
3.47506e-08
-9.06658e-10
-7.01772e-08
3.63606e-08
-1.75349e-09
-6.8681e-08
3.80375e-08
-2.50954e-09
-6.47379e-08
3.97654e-08
-3.17456e-09
-5.875e-08
4.15254e-08
-3.72646e-09
-5.1172e-08
4.32901e-08
-4.1496e-09
-4.2461e-08
4.50351e-08
-4.42904e-09
-3.30391e-08
4.67282e-08
-4.56675e-09
-2.33225e-08
4.8346e-08
-4.55843e-09
-1.36886e-08
4.98561e-08
-4.41208e-09
-4.50286e-09
5.12355e-08
-4.12779e-09
3.91381e-09
5.24504e-08
-3.7188e-09
1.12521e-08
5.3475e-08
-3.19061e-09
1.72636e-08
5.4269e-08
-2.56702e-09
2.1728e-08
5.47992e-08
-1.8691e-09
2.45108e-08
5.50137e-08
-1.13977e-09
2.55285e-08
5.48613e-08
-4.16764e-10
2.47907e-08
5.42604e-08
2.47351e-10
2.23866e-08
5.31143e-08
8.21226e-10
1.85923e-08
5.12759e-08
1.26113e-09
1.3811e-08
4.85499e-08
1.54959e-09
8.65038e-09
4.4633e-08
1.616e-09
4.04231e-09
3.91093e-08
1.29108e-09
9.0112e-10
3.13629e-08
3.87736e-10
1.31897e-08
-8.98869e-10
-8.19728e-09
2.65069e-10
6.7936e-09
-1.72941e-08
1.26274e-08
7.73626e-09
-2.65629e-08
1.7984e-08
7.99446e-09
-3.57132e-08
2.19638e-08
7.99651e-09
-4.44722e-08
2.49635e-08
7.74235e-09
-5.25838e-08
2.72515e-08
7.2722e-09
-5.97986e-08
2.90373e-08
6.58757e-09
-6.58659e-08
3.04661e-08
5.71837e-09
-7.05613e-08
3.16575e-08
4.71592e-09
-7.37385e-08
3.26935e-08
3.6824e-09
-7.53298e-08
3.36496e-08
2.6934e-09
-7.5353e-08
3.45722e-08
1.81174e-09
-7.38716e-08
3.55045e-08
1.05043e-09
-7.09952e-08
3.64642e-08
4.25556e-10
-6.68701e-08
3.74727e-08
-7.35747e-11
-6.16768e-08
3.85284e-08
-4.30273e-10
-5.5614e-08
3.96357e-08
-6.63667e-10
-4.89054e-08
4.07787e-08
-7.60137e-10
-4.1778e-08
4.19504e-08
-7.29962e-10
-3.44837e-08
4.31239e-08
-5.63724e-10
-2.72556e-08
4.42823e-08
-2.73683e-10
-2.03378e-08
4.53865e-08
1.45761e-10
-1.39526e-08
4.6408e-08
6.81977e-10
-8.3051e-09
4.72947e-08
1.32473e-09
-3.54899e-09
4.80048e-08
2.04031e-09
1.92075e-10
4.84688e-08
2.80333e-09
2.87987e-09
4.86211e-08
3.55104e-09
4.54269e-09
4.83623e-08
4.23708e-09
5.27473e-09
4.75866e-08
4.79448e-09
5.21971e-09
4.61307e-08
5.20037e-09
4.54763e-09
4.37984e-08
5.42334e-09
3.44581e-09
4.02905e-08
5.44465e-09
2.17575e-09
3.52252e-08
5.1542e-09
1.05468e-09
2.80276e-08
4.45509e-09
1.10947e-08
3.15058e-09
-7.75801e-09
8.80403e-10
7.14158e-09
-1.61457e-08
1.23417e-08
8.67501e-09
-2.47184e-08
1.72582e-08
9.29773e-09
-3.31267e-08
2.08554e-08
9.51666e-09
-4.10733e-08
2.34893e-08
9.42095e-09
-4.83055e-08
2.54114e-08
9.07438e-09
-5.45914e-08
2.68088e-08
8.51028e-09
-5.96921e-08
2.78251e-08
7.74385e-09
-6.34354e-08
2.8562e-08
6.83896e-09
-6.57243e-08
2.9109e-08
5.8718e-09
-6.65406e-08
2.95336e-08
4.93408e-09
-6.59424e-08
2.99005e-08
4.07269e-09
-6.40201e-08
3.02551e-08
3.3267e-09
-6.08991e-08
3.06437e-08
2.69849e-09
-5.67186e-08
3.10937e-08
2.20112e-09
-5.16511e-08
3.16325e-08
1.82727e-09
-4.58731e-08
3.22691e-08
1.58788e-09
-3.95816e-08
3.30132e-08
1.47416e-09
-3.29816e-08
3.38541e-08
1.49648e-09
-2.62849e-08
3.47836e-08
1.6443e-09
-1.97032e-08
3.57722e-08
1.92704e-09
-1.3443e-08
3.67949e-08
2.33164e-09
-7.70168e-09
3.78033e-08
2.86422e-09
-2.66693e-09
3.87559e-08
3.50274e-09
1.5173e-09
3.9585e-08
4.23763e-09
4.73435e-09
4.02301e-08
5.02006e-09
6.94947e-09
4.05995e-08
5.80726e-09
8.18511e-09
4.06056e-08
6.52094e-09
8.54276e-09
4.0119e-08
7.11039e-09
8.15372e-09
3.90009e-08
7.52028e-09
7.16232e-09
3.70487e-08
7.73956e-09
5.71211e-09
3.40136e-08
7.72718e-09
3.97752e-09
2.95473e-08
7.41162e-09
2.16893e-09
2.31709e-08
6.66716e-09
8.15215e-09
5.11025e-09
-6.54392e-09
1.45517e-09
5.96947e-09
-1.43221e-08
1.23565e-08
7.76178e-09
-2.25905e-08
1.69636e-08
8.56522e-09
-3.0832e-08
2.02086e-08
8.88782e-09
-3.86239e-08
2.24312e-08
8.84921e-09
-4.56335e-08
2.38713e-08
8.5495e-09
-5.15609e-08
2.47206e-08
8.01743e-09
-5.6149e-08
2.51248e-08
7.28716e-09
-5.91987e-08
2.52035e-08
6.40846e-09
-6.0616e-08
2.50604e-08
5.46538e-09
-6.0396e-08
2.47845e-08
4.53074e-09
-5.86254e-08
2.44579e-08
3.66912e-09
-5.54265e-08
2.41494e-08
2.90981e-09
-5.09785e-08
2.39199e-08
2.27441e-09
-4.54664e-08
2.38164e-08
1.7655e-09
-3.91046e-08
2.38772e-08
1.39302e-09
-3.21161e-08
2.41277e-08
1.15301e-09
-2.47379e-08
2.45813e-08
1.05298e-09
-1.72111e-08
2.52394e-08
1.08756e-09
-9.77964e-09
2.60896e-08
1.26358e-09
-2.6898e-09
2.71084e-08
1.57419e-09
3.8224e-09
2.82575e-08
2.02395e-09
9.53622e-09
2.94894e-08
2.60078e-09
1.42518e-08
3.07405e-08
3.30015e-09
1.78035e-08
3.19395e-08
4.0929e-09
2.00884e-08
3.29975e-08
4.94764e-09
2.10697e-08
3.38182e-08
5.79987e-09
2.08039e-08
3.42851e-08
6.58713e-09
1.94153e-08
3.4272e-08
7.23455e-09
1.7096e-08
3.36203e-08
7.69968e-09
1.40525e-08
3.21473e-08
7.94454e-09
1.05199e-08
2.96058e-08
7.94116e-09
6.78702e-09
2.5696e-08
7.58455e-09
3.22859e-09
1.99861e-08
6.74294e-09
6.41985e-09
4.96009e-09
-5.646e-09
3.55587e-09
3.54522e-09
-1.38459e-08
1.51715e-08
5.38622e-09
-2.31312e-08
1.99593e-08
6.28808e-09
-3.26462e-08
2.31052e-08
6.61849e-09
-4.17334e-08
2.49775e-08
6.54075e-09
-4.98804e-08
2.58477e-08
6.17199e-09
-5.6666e-08
2.59439e-08
5.56024e-09
-6.17299e-08
2.54512e-08
4.73873e-09
-6.4831e-08
2.45349e-08
3.76889e-09
-6.5837e-08
2.33445e-08
2.72319e-09
-6.47471e-08
2.20097e-08
1.68506e-09
-6.16576e-08
2.06524e-08
7.14275e-10
-5.67405e-08
1.93779e-08
-1.43306e-10
-5.02302e-08
1.82773e-08
-8.70365e-10
-4.23937e-08
1.74246e-08
-1.44424e-09
-3.35302e-08
1.6879e-08
-1.86335e-09
-2.39664e-08
1.66811e-08
-2.11894e-09
-1.40283e-08
1.6857e-08
-2.21352e-09
-4.06156e-09
1.74127e-08
-2.14125e-09
5.59557e-09
1.83385e-08
-1.90652e-09
1.46067e-08
1.96047e-08
-1.50562e-09
2.26429e-08
2.11657e-08
-9.46377e-10
2.94085e-08
2.29559e-08
-2.31147e-10
3.46378e-08
2.48937e-08
6.16973e-10
3.8125e-08
2.68763e-08
1.57675e-09
3.97395e-08
2.87838e-08
2.59927e-09
3.9453e-08
3.04808e-08
3.62376e-09
3.73532e-08
3.18136e-08
4.57054e-09
3.36449e-08
3.26095e-08
5.3711e-09
2.86208e-08
3.26774e-08
5.96732e-09
2.26419e-08
3.18006e-08
6.3255e-09
1.61361e-08
2.97158e-08
6.39612e-09
9.66252e-09
2.61056e-08
6.06296e-09
3.94487e-09
2.05445e-08
5.15969e-09
7.03752e-09
3.3273e-09
-5.5483e-09
8.26767e-09
8.34502e-10
-1.49547e-08
2.20852e-08
2.49487e-09
-2.60108e-08
2.76344e-08
3.38136e-09
-3.75314e-08
3.09971e-08
3.62743e-09
-4.85823e-08
3.26204e-08
3.40909e-09
-5.84616e-08
3.28559e-08
2.87031e-09
-6.65922e-08
3.20142e-08
2.06074e-09
-7.25218e-08
3.0356e-08
1.0254e-09
-7.59449e-08
2.81341e-08
-1.76403e-10
-7.67144e-08
2.55718e-08
-1.459e-09
-7.4837e-08
2.28722e-08
-2.7392e-09
-7.04617e-08
2.02147e-08
-3.93739e-09
-6.38409e-08
1.7759e-08
-5.00358e-09
-5.52857e-08
1.56229e-08
-5.89963e-09
-4.51562e-08
1.39057e-08
-6.61051e-09
-3.38316e-08
1.26761e-08
-7.1219e-09
-2.17063e-08
1.19891e-08
-7.43321e-09
-9.18334e-09
1.1873e-08
-7.53759e-09
3.32201e-09
1.23436e-08
-7.43814e-09
1.54013e-08
1.33898e-08
-7.1302e-09
2.66375e-08
1.49885e-08
-6.61895e-09
3.66194e-08
1.70879e-08
-5.90399e-09
4.49514e-08
1.96214e-08
-4.9987e-09
5.12741e-08
2.24904e-08
-3.91906e-09
5.52832e-08
2.55718e-08
-2.70544e-09
5.67874e-08
2.86921e-08
-1.41184e-09
5.57338e-08
3.16484e-08
-1.14003e-10
5.22385e-08
3.42107e-08
1.09812e-09
4.65717e-08
3.61328e-08
2.14373e-09
3.91424e-08
3.71435e-08
2.96318e-09
3.04774e-08
3.6955e-08
3.51133e-09
2.12176e-08
3.52342e-08
3.73936e-09
1.22112e-08
3.15992e-08
3.51418e-09
4.52136e-09
2.55675e-08
2.66685e-09
1.05241e-08
1.03442e-09
-5.50982e-09
1.4904e-08
-1.12608e-09
-1.56617e-08
3.19908e-08
2.45115e-10
-2.76956e-08
3.87114e-08
9.57789e-10
-4.02377e-08
4.25131e-08
1.02742e-09
-5.22034e-08
4.3971e-08
6.1322e-10
-6.2749e-08
4.35574e-08
-1.54948e-10
-7.11976e-08
4.16881e-08
-1.22572e-09
-7.7026e-08
3.87415e-08
-2.55819e-09
-7.99049e-08
3.5093e-08
-4.07855e-09
-7.97487e-08
3.11066e-08
-5.69237e-09
-7.66942e-08
2.711e-08
-7.29173e-09
-7.10755e-08
2.33817e-08
-8.78517e-09
-6.32913e-08
2.00753e-08
-1.01006e-08
-5.37523e-08
1.72834e-08
-1.12007e-08
-4.28446e-08
1.50638e-08
-1.20632e-08
-3.09376e-08
1.34515e-08
-1.26851e-08
-1.83745e-08
1.24894e-08
-1.30625e-08
-5.50132e-09
1.21977e-08
-1.31981e-08
7.3513e-09
1.25791e-08
-1.3088e-08
1.98424e-08
1.36326e-08
-1.27333e-08
3.16204e-08
1.53375e-08
-1.21281e-08
4.23299e-08
1.76519e-08
-1.12729e-08
5.15812e-08
2.05365e-08
-1.01662e-08
5.89651e-08
2.3929e-08
-8.82317e-09
6.39733e-08
2.78483e-08
-7.28448e-09
6.61095e-08
3.21919e-08
-5.63606e-09
6.51474e-08
3.65926e-08
-3.98326e-09
6.11943e-08
4.05971e-08
-2.43292e-09
5.45768e-08
4.38299e-08
-1.0787e-09
4.58017e-08
4.59078e-08
1.00185e-11
3.55367e-08
4.64303e-08
7.89345e-10
2.45811e-08
4.49734e-08
1.21647e-09
1.39582e-08
4.10521e-08
1.17109e-09
4.94765e-09
3.40751e-08
5.02467e-10
1.6275e-08
-8.0331e-10
-5.67329e-09
2.24076e-08
-1.83204e-09
-1.56033e-08
4.27552e-08
-8.32174e-10
-2.72022e-08
5.06719e-08
-3.61691e-10
-3.91884e-08
5.49724e-08
-4.73658e-10
-5.05001e-08
5.63321e-08
-1.04944e-09
-6.02575e-08
5.53086e-08
-1.99348e-09
-6.77344e-08
5.24389e-08
-3.27493e-09
-7.22801e-08
4.8154e-08
-4.86476e-09
-7.35188e-08
4.30309e-08
-6.70121e-09
-7.16051e-08
3.7856e-08
-8.662e-09
-6.71086e-08
3.32007e-08
-1.05882e-08
-6.06734e-08
2.92678e-08
-1.23208e-08
-5.28007e-08
2.59814e-08
-1.37784e-08
-4.38057e-08
2.32315e-08
-1.49439e-08
-3.39754e-08
2.10653e-08
-1.58318e-08
-2.35552e-08
1.94902e-08
-1.64583e-08
-1.27722e-08
1.85444e-08
-1.6838e-08
-1.8313e-09
1.82331e-08
-1.69773e-08
9.06888e-09
1.85603e-08
-1.68813e-08
1.97307e-08
1.95159e-08
-1.6544e-08
2.99392e-08
2.10853e-08
-1.5957e-08
3.94687e-08
2.32245e-08
-1.51017e-08
4.80449e-08
2.59148e-08
-1.39556e-08
5.53728e-08
2.90953e-08
-1.2493e-08
6.0919e-08
3.30144e-08
-1.07141e-08
6.39963e-08
3.7838e-08
-8.72198e-09
6.39907e-08
4.33049e-08
-6.70719e-09
6.06914e-08
4.87313e-08
-4.83423e-09
5.44304e-08
5.33067e-08
-3.21689e-09
4.58726e-08
5.63855e-08
-1.91874e-09
3.5736e-08
5.75312e-08
-9.64381e-10
2.48695e-08
5.62179e-08
-3.78093e-10
1.42849e-08
5.18834e-08
-2.46951e-10
5.18968e-09
4.38502e-08
-6.8036e-10
2.31054e-08
-1.64019e-09
-5.04329e-09
2.93138e-08
-1.86195e-09
-1.38216e-08
5.26899e-08
-1.15791e-09
-2.403e-08
6.17565e-08
-8.7641e-10
-3.45736e-08
6.66107e-08
-1.09436e-09
-4.45024e-08
6.79968e-08
-1.73449e-09
-5.30239e-08
6.65697e-08
-2.74232e-09
-5.93438e-08
6.28714e-08
-4.11139e-09
-6.27336e-08
5.73951e-08
-5.85146e-09
-6.30074e-08
5.12237e-08
-7.91968e-09
-6.05302e-08
4.55087e-08
-1.0129e-08
-5.59381e-08
4.08106e-08
-1.22025e-08
-4.98583e-08
3.71305e-08
-1.39419e-08
-4.27238e-08
3.41481e-08
-1.53016e-08
-3.47466e-08
3.15906e-08
-1.6336e-08
-2.61254e-08
2.95382e-08
-1.70953e-08
-1.70509e-08
2.80351e-08
-1.76189e-08
-7.69943e-09
2.71224e-08
-1.79286e-08
1.75112e-09
2.68198e-08
-1.80373e-08
1.11234e-08
2.71361e-08
-1.7948e-08
2.02383e-08
2.80587e-08
-1.76583e-08
2.8915e-08
2.95642e-08
-1.71557e-08
3.69523e-08
3.16066e-08
-1.64186e-08
4.41396e-08
3.41358e-08
-1.54081e-08
5.02448e-08
3.70648e-08
-1.40755e-08
5.49109e-08
4.0704e-08
-1.23552e-08
5.76258e-08
4.54039e-08
-1.02814e-08
5.78001e-08
5.11808e-08
-8.0495e-09
5.49878e-08
5.74916e-08
-5.94784e-09
4.93121e-08
6.31631e-08
-4.18109e-09
4.14882e-08
6.70087e-08
-2.79881e-09
3.22743e-08
6.85262e-08
-1.7818e-09
2.24363e-08
6.71876e-08
-1.13208e-09
1.2888e-08
6.23324e-08
-8.98909e-10
4.67279e-09
5.32172e-08
-1.15501e-09
2.96081e-08
-1.8283e-09
-4.57912e-09
3.55556e-08
-1.66442e-09
-1.24747e-08
6.16798e-08
-1.09208e-09
-2.16781e-08
7.1854e-08
-8.94532e-10
-3.12528e-08
7.73244e-08
-1.13909e-09
-4.03714e-08
7.88944e-08
-1.77827e-09
-4.83124e-08
7.7285e-08
-2.77499e-09
-5.42765e-08
7.29947e-08
-4.15878e-09
-5.77462e-08
6.68369e-08
-5.97284e-09
-5.8678e-08
6.02704e-08
-8.11431e-09
-5.72175e-08
5.4351e-08
-1.0303e-08
-5.36049e-08
4.9463e-08
-1.22654e-08
-4.81923e-08
4.55853e-08
-1.38669e-08
-4.13885e-08
4.24381e-08
-1.50946e-08
-3.35232e-08
3.97438e-08
-1.60167e-08
-2.48716e-08
3.75709e-08
-1.66856e-08
-1.56704e-08
3.5976e-08
-1.71417e-08
-6.14187e-09
3.5004e-08
-1.74092e-08
3.49825e-09
3.46779e-08
-1.74994e-08
1.30413e-08
3.50093e-08
-1.74163e-08
2.22708e-08
3.59852e-08
-1.71563e-08
3.09634e-08
3.75811e-08
-1.67086e-08
3.8868e-08
3.97507e-08
-1.60495e-08
4.5709e-08
4.24354e-08
-1.514e-08
5.11383e-08
4.55646e-08
-1.39293e-08
5.47634e-08
4.94259e-08
-1.23472e-08
5.62583e-08
5.43106e-08
-1.04021e-08
5.54133e-08
6.02489e-08
-8.22276e-09
5.21164e-08
6.68704e-08
-6.08122e-09
4.64235e-08
7.31176e-08
-4.26276e-09
3.88094e-08
7.74979e-08
-2.87487e-09
3.00442e-08
7.91654e-08
-1.87385e-09
2.08304e-08
7.76284e-08
-1.22788e-09
1.19717e-08
7.21635e-08
-9.7182e-10
4.37346e-09
6.19662e-08
-1.15049e-09
3.56769e-08
-1.69567e-09
-4.3346e-09
4.10577e-08
-1.16657e-09
-1.17485e-08
6.96914e-08
-5.99439e-10
-2.04112e-08
8.09228e-08
-4.06892e-10
-2.95019e-08
8.70401e-08
-6.23126e-10
-3.83149e-08
8.89168e-08
-1.21193e-09
-4.61581e-08
8.72861e-08
-2.15508e-09
-5.23352e-08
8.26731e-08
-3.5022e-09
-5.64719e-08
7.62384e-08
-5.26521e-09
-5.82806e-08
6.93958e-08
-7.31656e-09
-5.76147e-08
6.30763e-08
-9.39124e-09
-5.45584e-08
5.76509e-08
-1.12462e-08
-4.93817e-08
5.31753e-08
-1.27643e-08
-4.25163e-08
4.95011e-08
-1.39294e-08
-3.43995e-08
4.64279e-08
-1.47994e-08
-2.53764e-08
4.39693e-08
-1.54221e-08
-1.57342e-08
4.21748e-08
-1.58414e-08
-5.72815e-09
4.10842e-08
-1.60856e-08
4.39676e-09
4.07193e-08
-1.6167e-08
1.44074e-08
4.10882e-08
-1.60891e-08
2.40583e-08
4.21822e-08
-1.58486e-08
3.30938e-08
4.39792e-08
-1.54339e-08
4.1223e-08
4.64386e-08
-1.48169e-08
4.81038e-08
4.95107e-08
-1.39547e-08
5.32857e-08
5.31812e-08
-1.28007e-08
5.63553e-08
5.76538e-08
-1.12969e-08
5.70416e-08
6.30813e-08
-9.4569e-09
5.5273e-08
6.94135e-08
-7.39541e-09
5.12127e-08
7.62826e-08
-5.35301e-09
4.51639e-08
8.27615e-08
-3.59349e-09
3.74788e-08
8.74295e-08
-2.2467e-09
2.8849e-08
8.90977e-08
-1.30348e-09
1.9948e-08
8.72408e-08
-7.12288e-10
1.14737e-08
8.11275e-08
-4.88396e-10
4.22286e-09
6.98831e-08
-6.66647e-10
4.11107e-08
-1.21087e-09
-4.38992e-09
4.58197e-08
-3.74357e-10
-1.15514e-08
7.65824e-08
2.736e-10
-1.98818e-08
8.87426e-08
5.0834e-10
-2.86603e-08
9.547e-08
3.50762e-10
-3.7275e-08
9.76949e-08
-1.65341e-10
-4.51308e-08
9.61636e-08
-1.02092e-09
-5.16177e-08
9.14355e-08
-2.27539e-09
-5.62729e-08
8.48246e-08
-3.93169e-09
-5.86664e-08
7.76538e-08
-5.86427e-09
-5.85362e-08
7.07743e-08
-7.82763e-09
-5.58828e-08
6.45929e-08
-9.59654e-09
-5.09115e-08
5.92668e-08
-1.10616e-08
-4.40123e-08
5.4802e-08
-1.22008e-08
-3.56681e-08
5.113e-08
-1.3045e-08
-2.62926e-08
4.82326e-08
-1.36403e-08
-1.62205e-08
4.61394e-08
-1.40361e-08
-5.74769e-09
4.4876e-08
-1.42641e-08
4.85531e-09
4.44542e-08
-1.4339e-08
1.53313e-08
4.48788e-08
-1.42659e-08
2.54083e-08
4.61448e-08
-1.404e-08
3.47946e-08
4.82404e-08
-1.36466e-08
4.31473e-08
5.11398e-08
-1.30545e-08
5.00583e-08
5.48135e-08
-1.22149e-08
5.50428e-08
5.92799e-08
-1.10824e-08
5.77144e-08
6.46088e-08
-9.62636e-09
5.78674e-08
7.07958e-08
-7.86805e-09
5.55086e-08
7.76862e-08
-5.91529e-09
5.09109e-08
8.4875e-08
-3.99169e-09
4.44981e-08
9.15132e-08
-2.34174e-09
3.6744e-08
9.62748e-08
-1.09102e-09
2.82491e-08
9.78294e-08
-2.36173e-10
1.95932e-08
9.56174e-08
2.80079e-10
1.13817e-08
8.88935e-08
4.43321e-10
4.31928e-09
7.67269e-08
2.19747e-10
4.58414e-08
-4.11291e-10
-4.49546e-09
4.97863e-08
5.28701e-10
-1.14739e-08
8.22484e-08
1.31326e-09
-1.95155e-08
9.51728e-08
1.61079e-09
-2.79948e-08
1.02427e-07
1.5224e-09
-3.63714e-08
1.04985e-07
1.08535e-09
-4.4126e-08
1.03605e-07
3.13272e-10
-5.07228e-08
9.88749e-08
-8.41664e-10
-5.56528e-08
9.21401e-08
-2.38615e-09
-5.84195e-08
8.46231e-08
-4.20274e-09
-5.86964e-08
7.7117e-08
-6.06426e-09
-5.64191e-08
7.00744e-08
-7.75944e-09
-5.17291e-08
6.37577e-08
-9.18109e-09
-4.49508e-08
5.83237e-08
-1.03006e-08
-3.65382e-08
5.38458e-08
-1.11278e-08
-2.69564e-08
5.03608e-08
-1.17094e-08
-1.66052e-08
4.78744e-08
-1.20881e-08
-5.80952e-09
4.63847e-08
-1.23032e-08
5.13071e-09
4.58883e-08
-1.23734e-08
1.59262e-08
4.63864e-08
-1.23043e-08
2.62834e-08
4.78778e-08
-1.20905e-08
3.58718e-08
5.0366e-08
-1.17132e-08
4.42923e-08
5.3853e-08
-1.11335e-08
5.10821e-08
5.83333e-08
-1.03091e-08
5.57845e-08
6.37703e-08
-9.19355e-09
5.80798e-08
7.00912e-08
-7.77763e-09
5.78261e-08
7.71398e-08
-6.08959e-09
5.50924e-08
8.46549e-08
-4.23581e-09
5.02086e-08
9.21849e-08
-2.4264e-09
4.36713e-08
9.89378e-08
-8.87571e-10
3.59947e-08
1.03689e-07
2.63394e-10
2.77042e-08
1.05085e-07
1.03399e-09
1.93134e-08
1.02536e-07
1.47167e-09
1.13575e-08
9.52861e-08
1.56403e-09
4.44994e-09
8.23605e-08
1.27481e-09
4.9787e-08
5.0318e-10
-4.56044e-09
5.30467e-08
1.29939e-09
-1.13689e-08
8.68483e-08
2.20975e-09
-1.91519e-08
1.0039e-07
2.5668e-09
-2.735e-08
1.08084e-07
2.53832e-09
-3.54663e-08
1.10937e-07
2.16604e-09
-4.30408e-08
1.09714e-07
1.46549e-09
-4.95849e-08
1.0503e-07
3.88165e-10
-5.45801e-08
9.82004e-08
-1.06432e-09
-5.75199e-08
9.03443e-08
-2.78263e-09
-5.80547e-08
8.22071e-08
-4.5549e-09
-5.60827e-08
7.42827e-08
-6.18108e-09
-5.16936e-08
6.69274e-08
-7.55748e-09
-4.51467e-08
6.04315e-08
-8.65481e-09
-3.68381e-08
5.50098e-08
-9.47423e-09
-2.72284e-08
5.08043e-08
-1.00518e-08
-1.67654e-08
4.78356e-08
-1.04249e-08
-5.81498e-09
4.60685e-08
-1.06341e-08
5.29376e-09
4.5482e-08
-1.0702e-08
1.6244e-08
4.60695e-08
-1.06348e-08
2.6712e-08
4.78377e-08
-1.04262e-08
3.63234e-08
5.08076e-08
-1.0054e-08
4.46395e-08
5.50148e-08
-9.47756e-09
5.11932e-08
6.04386e-08
-8.65989e-09
5.55915e-08
6.69372e-08
-7.56525e-09
5.75807e-08
7.42963e-08
-6.19269e-09
5.70645e-08
8.22256e-08
-4.57144e-09
5.41554e-08
9.03698e-08
-2.80469e-09
4.91966e-08
9.82349e-08
-1.09179e-09
4.27028e-08
1.05077e-07
3.56126e-10
3.51874e-08
1.09774e-07
1.43048e-09
2.71332e-08
1.11008e-07
2.1296e-09
1.90053e-08
1.08163e-07
2.5023e-09
1.1283e-08
1.00474e-07
2.53367e-09
4.52739e-09
8.69356e-08
2.18276e-09
5.30316e-08
1.28086e-09
-4.53706e-09
5.57844e-08
1.79795e-09
-1.12053e-08
9.07265e-08
2.79209e-09
-1.88032e-08
1.04796e-07
3.19139e-09
-2.67892e-08
1.12866e-07
3.20523e-09
-3.4702e-08
1.15971e-07
2.87791e-09
-4.20968e-08
1.14883e-07
2.22597e-09
-4.85142e-08
1.10243e-07
1.20311e-09
-5.34398e-08
1.03311e-07
-1.84959e-10
-5.6383e-08
9.51159e-08
-1.82826e-09
-5.70065e-08
8.63585e-08
-3.52743e-09
-5.52025e-08
7.75699e-08
-5.09258e-09
-5.10343e-08
6.91826e-08
-6.42261e-09
-4.4717e-08
6.16039e-08
-7.48935e-09
-3.65902e-08
5.51768e-08
-8.29386e-09
-2.70833e-08
5.01573e-08
-8.86032e-09
-1.66678e-08
4.66456e-08
-9.22525e-09
-5.73972e-09
4.45677e-08
-9.42731e-09
5.35455e-09
4.38797e-08
-9.49226e-09
1.62844e-08
4.45682e-08
-9.42752e-09
2.67003e-08
4.66468e-08
-9.22572e-09
3.62104e-08
5.01593e-08
-8.86118e-09
4.43403e-08
5.51799e-08
-8.29539e-09
5.06625e-08
6.16085e-08
-7.49195e-09
5.48376e-08
6.91892e-08
-6.42695e-09
5.66528e-08
7.75793e-08
-5.09947e-09
5.60463e-08
8.63715e-08