/*--------------------------------*- C++ -*----------------------------------*\
| =========                 |                                                 |
| \\      /  F ield         | OpenFOAM: The Open Source CFD Toolbox           |
|  \\    /   O peration     | Version:  v1912                                 |
|   \\  /    A nd           | Website:  www.openfoam.com                      |
|    \\/     M anipulation  |                                                 |
\*---------------------------------------------------------------------------*/
FoamFile
{
    version     2.0;
    format      ascii;
    class       volScalarField;
    location    "168/oil";
    object      wallHeatFlux;
}
// * * * * * * * * * * * * * * * * * * * * * * * * * * * * * * * * * * * * * //

dimensions      [1 0 -3 0 0 0 0];


internalField   uniform 0;

boundaryField
{
    maxY
    {
        type            calculated;
        value           uniform 0;
    }
    minX
    {
        type            calculated;
        value           uniform 0;
    }
    maxX
    {
        type            calculated;
        value           uniform 0;
    }
    minY
    {
        type            calculated;
        value           uniform 0;
    }
    minZ
    {
        type            calculated;
        value           uniform 0;
    }
    maxZ
    {
        type            calculated;
        value           uniform 0;
    }
    oil_to_sphere
    {
        type            calculated;
        value           nonuniform List<scalar> 
1536
(
5969.49
5723.12
5724.92
5258.71
5232.99
5704.21
5509.77
5581.44
5551.51
5290.77
5115.37
5321.46
5545.09
5339.3
5042.94
5477.17
5707.41
5736.99
5462.48
5533.59
5643.13
5552.65
5574.4
5474.77
5500.98
5487
5494.87
5443.32
5697.77
5567.95
5771.77
5722.71
5734.16
5474.62
5491.22
5441.58
5460.93
5386.28
5436.87
5490.5
5424.94
5464.02
5543.51
5600.18
5663
5487.56
5660.98
5591.48
5053.94
5489.29
5620.47
5556.85
5584.96
5469.73
5688.96
5863.21
5568.3
5534.76
5642.63
5612.45
5540.44
5541.3
5538.04
5464.32
5492.31
5528.1
5532.14
5628.75
5621.43
5682.85
5463.13
5257.81
5329.24
5488.22
5483.81
5877.81
5735.34
5403.39
5478.07
5732
5646.18
5615.52
5248.9
5239.94
5696.12
5926.62
5201.08
5511.11
5615.69
5612.76
5562.11
5449.08
5447.82
5457.67
5485.71
5596.27
5652.53
5666.47
5750.89
5606.86
5649.65
5458.52
5979.15
5625.88
5319.74
5481.19
5497.91
5279.05
5281.79
5991.09
5731.56
5585.37
5540.23
5579.9
5216.45
5252.03
5172.46
5817.4
5951.52
5750.18
5563.59
5579.08
5434.15
5647.43
5765.46
5614.98
5556.64
5416.52
5662.46
5633.89
5530.77
5624.69
5684.22
5495.84
5515.47
5692.03
5579.97
5735.68
5422.6
5709.46
5551.62
5633.08
5634.75
5546.25
5515.58
5541.34
5588.27
5865.34
5583.08
5988.9
5668.36
5772.07
5566.93
5582.97
5472.13
5641.68
5682.94
5688.53
6043.74
5823.12
5730.32
5887.19
5335.78
5377.38
5452.79
5444.1
5671.91
5823.31
5738.78
5897.46
5449.97
5466.67
5410.65
5660
5593
5605.19
5905
5444.1
5427.99
5922.02
5427.78
5376.49
5371.65
5392.85
5672.57
5929.71
5826.94
5436.93
5364.47
5733.9
5383.77
5690.22
5682.41
5794.53
5320.05
5004.85
5788.93
5819.16
5535.76
5475.83
5561.73
5507.79
5742.98
5787.71
5668.63
5618.24
5482.52
5818.13
5759.57
5644.64
5413.02
5490.87
5481.08
5538.89
5667.9
5882.44
5428.86
5333.8
5338.58
4978.83
5716.77
5657.21
5611.88
5564.43
5578.58
5828.38
5691.76
5518.63
5720.79
5301.3
5445.87
5023.65
5538.37
5728.26
5790.21
5772.09
5710.42
5656.04
5744.34
5321.16
5354.95
5466.4
5820.44
5409.22
5038.96
5175.38
5653.42
5609.88
5931.01
6083.42
5586.61
5247.81
4979.53
5611.95
5803.88
5457.25
5465.02
5196.22
5447.74
5825.43
5947.44
5560.51
5469.81
5840.34
5842.18
5485.55
5293.04
5549.36
5890.15
5827.86
5656.91
5685.4
5778.06
5378.7
5473.22
5794.19
5685.14
5765.45
5548.69
5725.98
5877.37
5675.77
5653.82
5833.74
5471.52
5462.98
5496.75
5426.75
5450.53
5800.02
5891.37
5422.72
5511.19
5499.06
5516.09
5437.46
5586.77
5553.2
5400.58
5205.31
5442.17
5323.46
5419.97
5933.23
5840.93
5840.27
6076.41
5353.98
5372.5
5610.4
5985.8
5997.52
5454.06
5556.16
5438.75
5680.21
5476.4
5649.27
5670.38
5752.8
5686.44
5506.46
5703.48
5436.02
5781.89
5815.36
5720.65
5704.29
5394.34
5904.79
5912.36
5707.58
5310.86
5470.1
5522.76
5672.69
5646.87
5673.8
5387.39
5778.29
5837.45
5745.21
5838.04
5627.55
5604.13
5545.75
5358.99
5616.72
5684.53
5353.33
5331.52
5377.09
5971.66
5782.07
5844.03
5636.95
5603.88
5816.23
5338.3
5919.26
5746.25
5600.13
5600.94
5326.89
5763.13
5774.44
5410.56
5598.83
5534.66
5474.32
5685.56
5773.91
5544.01
5493.75
5365.32
5881.07
5781.42
5333.77
5821.11
5795.5
5719.87
5877.13
5595.79
5697.51
5304.88
5313.74
5672.9
6045.81
5733.3
5946.95
5646.27
5505.78
5750.14
5389.65
5457.42
5666.26
5769.36
5690.14
5635.31
5404.14
5379.92
5798.27
5832.26
5783.01
5600.46
5461.39
5651.76
5702.43
5758.35
5612.6
5526.15
5421.76
5587.77
5382.67
5281.12
5456.35
5419.43
5587.03
5284.8
5505.04
5931.25
5500.02
5497.02
5770.94
5762.79
5672.96
5536.94
5342.98
5729.76
5839.61
5664.91
5622.8
5727.53
5563.71
5581.3
5634.23
5248.6
5697.27
5833.26
5845.59
5755.22
5704.89
5679.82
5612.54
5535.03
5388.61
5572.16
5408.71
5326.41
5428.25
5269.84
5941.35
5908.8
5811.62
6035.84
5441.52
5938.59
5380.91
5427.46
5704.73
5439.86
5375.63
5507.45
5486.49
5918.44
5848.81
5633.62
5656.2
5877.3
5801.96
5607.79
5703.58
5411.43
5767.52
5304.8
5844.17
5245.12
5714.86
5737.69
5760.32
5504.17
5366.98
5527.94
5766.21
5539.7
5290.73
5779.75
5789.07
5866.1
6005.59
5660.33
5851.53
5351.3
5384.22
5071.52
5161.06
5594.1
5496.9
5471.15
5431.59
5952.71
5463.88
5324.46
5286.05
5545.29
5345.2
6044.9
5430.1
5446.24
5581.58
5118.3
5185.35
5457.32
5451.17
5537.21
5489.39
5786.52
5754.55
5681.42
5604.69
5271.78
5475.6
5763.58
5384.94
5407.92
5721.84
5876.56
5420
5095.48
5354.83
5118.84
5562.1
5498.67
5445.4
5317.85
5093.94
5698.06
5724.85
5641.55
5571.91
5895.24
5702.2
5664.19
5607.86
5392.42
5474.93
5788.17
5689.29
5511.77
5163.44
5611.84
5788.24
5907.59
5620.83
5514.86
5890.61
5628.29
5852.55
5404.39
5476.48
5371.25
5496.41
5605.4
5864.59
5522.42
5418.78
5388.82
5564.72
6034.93
5360.18
5476.36
5321.83
5604.06
5605.1
5799.18
5883.68
5345.79
5306.64
5889.46
5938.31
5217.12
5899.72
5818.79
5734.46
5829.17
5677.55
5602.96
5603.63
5884.92
5612.35
5671.36
5590.72
5760.22
5630.3
5571.29
5556.91
5346.93
5724.88
5596.44
5759.96
5707.5
5718.34
5688.93
5617.6
5319.06
5803.35
5807.52
5684.81
5568.58
5634.77
5981.91
5360.33
5398.21
5348.16
5659.03
5493.68
5980.16
5507.71
5535.42
5597.29
5091.32
5108.43
5465.58
5459.03
5585.71
5368.38
5415.9
5678.24
5490.74
5881.56
5429.41
5959.49
5576.02
5654.58
5089.21
5103.81
5062.38
5451.78
5731.83
5484.94
5447.82
5113.36
5578.24
5770.25
5580.72
6148.7
5413.93
5784.17
5729.7
5728.73
5820.71
5824.87
5744.63
5587.33
5532.92
5573.41
5735.79
5541.06
5643.08
5632.83
5643.94
5760.16
5691.87
5728.93
5361.14
5409.06
5001.11
5192.05
5270.44
4853.47
5471.45
5490.97
5539.82
5572.83
5274.25
5352.01
5511.61
5830.86
5824.59
5507.71
5296.3
5549.12
5762.47
5716.02
5573.47
5288.95
5413.33
5686.45
5652.7
5569.54
5481.8
5708.52
5721.64
5881.31
5717.02
5612.38
5490.08
5410.64
5334.69
5516.44
5596.22
5995
5592.76
5945.32
5493.62
6025.72
5464.14
5545.4
5374.11
5405.98
5489.41
5355.09
5536.17
5283.29
5469.17
5797.61
5505.77
5335.85
5903.61
5709.04
5647.95
5568.78
5913.52
6157.95
5208.04
5693.81
5666.83
5672.9
5359.66
5565.96
5439.71
5651.06
5750.01
5792.37
5399.16
5689.61
5609.24
5705.94
5694.79
5657.92
5523.69
5551.94
5482.11
5299.52
5272.83
5380.88
5852.1
5472.18
5332.1
5477.98
5795.37
5528.57
5857.44
5764.29
5666.17
5612.55
5666.36
5906.97
5380.18
5685.08
5818.08
5826.74
5615.3
5430.69
5534.9
5670.81
5835.28
5369.41
5554.29
5613.14
5786.16
5652.22
5676.45
5865.64
5370.39
5444.8
5412.85
5913.46
5793.42
5597.3
5785.75
5443.09
5476.19
5784.55
5684.81
5875.6
5387.45
5739.43
5775.44
5615.72
5651.54
5728.31
5407.32
5253.68
5581.1
5680.68
5949.95
5553.45
5465.75
5568.54
5660.33
5739.18
5603.81
5440.99
5552.81
5767.7
5411.06
5422.71
5547.89
5465.35
5634.63
5610.41
5821.81
5678.49
5748.29
5481.88
5577.49
5633.33
5559.94
5520.48
5491.96
5483.13
5379.6
5705.41
5627.86
5620.78
5670.78
5304.69
5498.51
5908.28
5907.55
5435.07
5790.21
5659.89
5694.09
5488.49
5835.8
5809.05
5378.19
5525.03
5496.51
5488.77
5316.54
5350.13
5495.3
5813.86
6026.63
5457.79
5729.02
5704.07
5650.03
5541.11
5635.13
5825.05
5662.9
5387.76
5500.53
5480.33
5507.77
5675.85
5720.68
5708.88
5717.35
5727.59
5446.03
5726.06
5509.8
5704.86
5098.32
5673.3
5839.85
5519.73
5209.36
5604.67
5560.16
5927.69
5418.81
5727.02
5575.53
5251.52
5903.19
5337.94
5547.16
5579.25
5310.54
5793.37
5628.13
5547.39
5631.13
5627.19
5536.67
5937.3
5351.47
5493.46
5053.56
5570.05
5513.78
5587.37
5791.19
6158.51
5306.84
5502.38
6068.03
5343.13
5713.21
5435.38
5694.25
5210.28
5427.09
6059.39
5235.26
6038.89
5273.89
5921.68
5271.82
5414.97
5100.38
5367.48
6022.66
5141.76
5594.72
5238.92
5893.18
6024.95
5157.77
5570.39
5443.51
5386.19
5373.07
5488.83
5582.53
5584.67
5683.28
5562.79
5877.87
6085.54
5156.51
5635.61
5649.45
5580.28
5610.5
5554.77
5537.17
5551.89
5745.49
5565.7
5744.39
5494.2
5632.73
5845.46
5514.84
5673.26
5785.59
5488.46
5633
5571.08
5682.79
5544.48
5612.94
5525.1
5771.39
5502.96
5642.1
5277.49
5903.1
5164.48
5693.18
5775.2
5879.91
5420.59
5609.78
5559.73
5601.95
5614.6
5568.69
5744.3
5389.51
4992.41
5614
5214.81
5814.66
5428.78
5580.85
5757.11
5014.82
5904.5
5414.42
5107.11
5453.46
5708.48
5689.24
5601.15
5136.41
5608.77
5643.41
5455.63
5426.02
5818.95
5786.9
5484.32
5587.58
5819.62
5148.34
5769.61
5422.92
5680.72
5172.86
6042.89
5957.34
5764.26
5599.79
5547.56
5722.93
5531.16
5132.85
5370.12
5717.58
5433.62
5707.26
5203.66
5812.17
5707.64
4884.79
5612.45
5641.75
5033.37
5898.62
5268
5813.07
5902.39
5749.64
5086.55
5608.46
5536.95
5611.67
5619.46
5688.12
5146.17
5503.5
5432.61
5436.41
5808.28
5587.08
5681
5689.21
5683.35
5533.46
5608.2
5546.18
5640.25
5809.08
5475.39
5523.79
5458.95
5627.94
5774.32
5475.06
5509.8
5489.88
5588.57
5435.72
5448.74
5511.47
5529.16
5605.17
5526.78
5873.75
5759.7
5217.05
5249.39
5872.53
4847.84
5719.52
5643.32
5443.98
5534.62
5901.69
5023.59
5789.83
5671.39
5108.69
5500.34
5468.38
5615.09
4998.05
5832.55
5699.71
5013.23
5810.97
5839.87
5169.51
5880.2
5787.09
5176.54
5466.79
5441.28
5032.17
5586.16
5614.41
5402.19
5420.95
5451.62
4931.53
5408.56
5063.46
4908.91
5782.66
5442.19
6018.15
5498.57
5141.32
5827.11
5589.5
5065.81
5479.67
5472.48
5060.59
5239.72
5897.7
4775.65
5374.26
5404.39
4867.74
5800.15
5751.27
5585.17
5504.66
5475.66
5369.65
4960.45
5591.95
5503.16
5518.66
5586.4
5088.76
5741.58
5472.32
5558.91
5446.89
5549.4
5603.89
5364.42
5111.97
5506.67
5659.63
5465.22
5508.59
5575.12
5419.3
5521.97
5087.39
5490.85
5691.08
5450.35
5536.09
5426.28
5123.86
5875.09
5876.33
5811.34
5911.16
5165.1
5031.27
5505.71
5775.61
5612.71
5710.16
5747.24
5373.99
5318.54
5076.77
5182.97
5410.27
5561.67
5546.33
5535.7
5334.95
5776.1
5657.27
5180.73
5386.77
5366.06
5741.47
5419.81
4966.21
5636.25
5571.49
5789.92
5071.64
5486.58
5645.91
5488.23
5527.5
5705.12
5558.78
5372.93
5916.33
4879.38
5346.91
5573.2
5424.17
5498.56
5893.18
5671.44
5593.88
5301.34
5851.13
5491.86
5605.8
5744.9
5793.28
5771.72
5791.23
5881.34
5928.8
5863.28
5863.92
5637.77
5761.94
5473.33
5531.72
5339.48
5256.67
4924.94
5902.01
5885
5813.62
5515.26
5605.78
5591.2
5429.1
5624.08
5754.82
5387.57
5542.53
5692.7
5469.88
5479.61
5464.5
5512.64
5411.43
5503.81
5485.33
5171.75
5642.83
5397.54
5538.72
5054.08
5924.84
5551.64
5441.86
5406.54
5196.19
5581.82
5449.64
5029.3
5308.48
5542.85
5261.13
5301.66
5933.56
5963.12
5490.86
5491.24
5725.67
5883.7
5021.1
5466.4
5415.42
5498.31
5498.53
5517.63
5553.58
5324.58
5118.62
5859.44
5494.82
5276.58
5319.21
5483.75
5581.76
5205.15
5561.71
5441.1
5472.46
5887.24
5286.62
5138.5
5507.47
5457.35
5418.99
5125.99
5809.4
5490.24
5469.18
5485.01
5030.67
5504.13
5497.69
5149.06
5495.93
5305.16
5647.9
5821.54
5437.58
5750.28
5629.72
5436.65
5440.73
5505.61
5131.27
5656.4
5692.1
5464.65
5077.13
5362.03
5533.14
5548.51
5435.72
5109.44
5446.75
5789.39
5645.76
5460.88
5928.21
5276.47
5772.68
5035.4
5270.66
5798.19
5041.76
5780.89
5471.35
5580.71
5474.8
5967.1
5332.85
5581.94
5879.2
5863.35
5208.47
5828.5
5891.83
4864.34
5598.43
5449.45
5047.66
5720.83
5443.94
5471.92
5473.36
5555.92
5520.63
5463.09
5447.56
5029.66
5701.74
5590.78
5566.16
5600.83
5513.58
5432.63
5364.46
5757.42
4969.9
5408.14
5460.12
5006.36
5772.17
5905.38
5600.3
5817.87
5865.06
5404.98
5518.03
5659.22
5815.93
5417.53
5692.43
5318.81
5067.66
5752.15
5369.31
5788.23
5941.52
5878.58
5072.87
5775.49
5616.5
5384.26
5461.04
5502.59
5449.81
5081.18
5851.23
5093.05
5843.06
5510.24
5320.25
5316.34
5552.24
5693.23
5885.71
5567.48
5983.61
5752.64
5776.64
5062.04
5761.49
5707.34
5798.08
5428.39
5385.46
4982.25
5540.88
5967.11
5833.17
5106.45
5333.96
5127.65
5426.66
5551.69
5308.76
6129.07
5476.25
5330.78
5124.06
5645.37
5394.92
4983.6
5550.86
5449.92
5450.02
5462.01
5465.78
5129.8
5306.15
5050.27
5466.38
5767.25
5651.15
5839.46
5802.06
5409.07
5357.26
5042.31
5419.03
5732.04
5847.48
5750.05
5741.82
5275.22
5004.99
5337.06
4963.26
5725.73
5750.49
5362.81
5767.29
5736.75
5824.51
5658.39
5582.37
5573.5
5408.74
5010.17
5354.09
5083.75
5331.16
5462.16
5434.17
5166.36
5071.47
5685.28
5963.96
5945.73
5880.91
5567.77
5668.08
5661.03
5556.88
5465.26
5547.65
5376.37
5512.07
5514.02
5069.72
5751.17
5499.51
5337.46
5161.56
5461.02
5559.98
5556.97
5437.75
5164.62
5869.46
5630.67
5452.58
5920.36
5381.13
5051.39
5689.69
5520.93
5516.33
5513.43
5437.53
4956.4
5562.11
5508.53
5097.31
5889.25
5487.91
4794.18
5460.55
5547.55
5564.81
5434.23
5082.42
5407.77
5421.14
5248.79
5522.01
5035.3
5538.86
5524.88
5222.37
5942.41
5505.63
5150.55
6014.67
5544.98
5546.97
5155.48
5522.49
5095.17
)
;
    }
}


// ************************************************************************* //
