/*--------------------------------*- C++ -*----------------------------------*\
| =========                 |                                                 |
| \\      /  F ield         | OpenFOAM: The Open Source CFD Toolbox           |
|  \\    /   O peration     | Version:  v1906                                 |
|   \\  /    A nd           | Web:      www.OpenFOAM.com                      |
|    \\/     M anipulation  |                                                 |
\*---------------------------------------------------------------------------*/
FoamFile
{
    version     2.0;
    format      ascii;
    class       volScalarField;
    location    "95";
    object      nut;
}
// * * * * * * * * * * * * * * * * * * * * * * * * * * * * * * * * * * * * * //

dimensions      [0 2 -1 0 0 0 0];


internalField   nonuniform List<scalar> 
78750
(
0.000995187
0.000673066
0.00014867
7.32908e-05
6.77332e-05
3.23391e-05
7.3787e-05
3.8157e-05
6.41964e-05
4.06924e-05
6.26235e-05
4.2316e-05
5.82182e-05
4.74588e-05
5.34214e-05
5.14176e-05
5.08308e-05
5.2013e-05
4.9087e-05
4.99404e-05
4.57901e-05
4.51385e-05
4.03963e-05
3.73383e-05
3.26803e-05
2.83049e-05
2.38327e-05
1.9516e-05
1.52608e-05
1.11662e-05
6.99205e-06
9.39217e-07
1.2824e-05
2.32841e-05
4.20963e-06
7.06559e-05
0.000224183
1.28349e-05
7.17645e-06
4.39384e-05
6.54275e-05
0.000109944
0.000175265
0.000194863
0.00019471
0.000192542
0.000183804
0.000174585
0.000168903
0.000163622
0.000160956
0.000159446
0.000158827
0.000159866
0.000160844
0.000162808
0.000163098
0.000162144
0.000157918
0.000150613
0.000140043
0.000127582
0.000115019
0.00010052
7.23581e-05
1.73646e-05
1.13113e-06
1.593e-06
1.94089e-06
2.3013e-06
3.78445e-05
0.000314466
0.000163553
7.94303e-05
4.75222e-05
4.28793e-05
5.20976e-05
8.87891e-05
0.000162325
0.000232304
0.000264964
0.00024185
0.000215526
0.000204349
0.000202615
0.000205877
0.00021244
0.000221128
0.000231388
0.000243345
0.000255238
0.000263926
0.00026579
0.000259709
0.000247693
0.000231656
0.00020742
0.000165477
0.000105705
5.70416e-05
4.12685e-05
3.35149e-05
1.15319e-05
2.05019e-06
7.29875e-07
2.61972e-05
0.000424619
0.000418661
0.000375404
0.000357115
0.000288744
0.000207668
0.000143965
7.94204e-05
3.81227e-05
3.06606e-05
5.03569e-05
9.7889e-05
0.000138178
0.00015536
0.000163033
0.000166506
0.000159228
0.000136359
0.000107009
8.12645e-05
6.03708e-05
4.29305e-05
2.967e-05
2.05718e-05
1.45369e-05
9.02341e-06
3.33288e-06
1.33164e-05
3.4451e-06
1.05672e-06
5.02436e-06
1.51711e-05
2.83999e-06
4.89542e-06
1.77473e-05
0.00021362
0.00021748
0.000206394
0.000200588
0.00019863
0.000201609
0.000209455
0.000200545
0.000175623
0.000165421
0.000166497
0.000165664
0.000173857
0.000193451
0.000223223
0.000292057
0.000420195
0.000436359
0.00033776
0.000196383
0.000160165
0.000177042
0.000188452
9.27614e-05
4.82113e-05
3.63785e-05
5.68632e-05
0.000104958
4.39351e-05
7.55404e-05
9.15814e-06
6.06335e-06
1.67073e-06
4.11908e-06
1.68459e-05
0.000235627
0.000209777
0.000184468
0.000172164
0.00016338
0.000154165
0.000140275
0.000120108
0.000101331
9.29635e-05
9.44741e-05
9.78149e-05
0.000100122
0.000102606
0.000102505
9.95563e-05
9.80267e-05
0.000100948
0.000103903
9.56577e-05
7.25535e-05
5.19043e-05
4.68077e-05
6.5261e-05
0.000125805
0.000236162
0.000302574
0.000145573
5.40409e-05
9.64264e-06
2.01239e-06
1.15185e-05
3.83923e-05
1.63816e-05
1.25424e-05
0.000155803
0.000130228
0.000127196
0.0001441
0.000173629
0.000203976
0.000215938
0.000209466
0.000192513
0.000166701
0.000130883
9.62645e-05
7.5759e-05
6.76092e-05
6.61235e-05
6.6862e-05
6.65876e-05
6.78254e-05
7.65024e-05
9.44415e-05
0.000115878
0.000129095
0.000125408
0.000105852
8.2922e-05
6.73314e-05
5.80984e-05
1.81931e-05
5.90873e-06
2.254e-06
4.21982e-06
7.01e-05
4.38367e-05
1.51553e-05
1.34042e-05
0.000149103
0.000143048
0.000168719
0.000231853
0.0002561
0.000205045
0.000132181
7.82161e-05
5.38254e-05
4.45682e-05
4.11821e-05
4.08578e-05
4.32196e-05
4.79298e-05
5.418e-05
6.18521e-05
7.15007e-05
8.32374e-05
9.44381e-05
0.000101356
0.000102392
9.64521e-05
9.0596e-05
9.24013e-05
8.73692e-05
6.92499e-05
4.18018e-05
4.00507e-06
2.74874e-06
1.41264e-07
2.38669e-06
3.02393e-06
5.52383e-06
1.20214e-05
1.08534e-05
0.000151203
0.000115553
7.08473e-05
3.26792e-05
2.34356e-05
2.06954e-05
1.94094e-05
1.98463e-05
2.21455e-05
2.59322e-05
3.10388e-05
3.74991e-05
4.53689e-05
5.47276e-05
6.56862e-05
7.83148e-05
9.23617e-05
0.000106945
0.000120828
0.000132315
0.000137143
0.00012726
0.000100084
7.05636e-05
4.93068e-05
4.05386e-05
4.9997e-05
4.54404e-05
1.23166e-05
9.20093e-06
1.15869e-05
2.60705e-06
4.08404e-06
4.76523e-06
7.23267e-06
9.00957e-06
3.92248e-06
5.41461e-06
2.41321e-05
2.38524e-05
1.9384e-05
1.82679e-05
2.1232e-05
2.72929e-05
3.58835e-05
4.66721e-05
5.93233e-05
7.34195e-05
8.83354e-05
0.000103053
0.000116134
0.000126061
0.000131902
0.000133618
0.000131707
0.000126664
0.000118324
0.000108449
0.000102797
0.000107105
9.10433e-05
5.86346e-05
5.11174e-05
4.09007e-05
1.47241e-05
6.84526e-06
2.99267e-06
9.73256e-07
1.3043e-06
5.33189e-06
2.08241e-06
2.54132e-06
3.13334e-07
9.70792e-07
1.48478e-06
7.37225e-06
1.6511e-05
2.84598e-05
4.36593e-05
6.19576e-05
8.15187e-05
9.89105e-05
0.000110936
0.000116436
0.000116192
0.000111838
0.00010529
9.893e-05
9.56562e-05
9.79209e-05
0.000105816
0.000114091
0.000117152
0.000120441
0.000131943
8.40911e-05
7.75466e-05
7.82047e-05
9.85122e-06
5.68332e-07
9.78249e-06
4.31462e-05
4.60311e-05
1.46728e-05
5.88005e-06
3.73411e-06
2.79883e-07
1.16811e-06
6.33164e-07
6.12426e-06
1.79201e-05
3.34819e-05
5.41256e-05
7.88536e-05
0.00010202
0.000117496
0.000124551
0.000125672
0.000122895
0.000117107
0.000108565
9.75657e-05
8.54103e-05
7.51851e-05
7.07626e-05
7.53894e-05
9.04853e-05
0.000110711
0.00012643
0.000129048
0.000128438
0.000107848
3.99754e-05
8.55273e-06
2.92656e-06
4.62216e-06
1.70129e-05
6.66229e-05
9.39471e-06
6.84707e-06
5.21805e-06
1.23705e-07
1.4108e-06
1.43324e-06
1.53492e-05
3.52578e-05
6.29187e-05
9.38898e-05
0.00011722
0.000129979
0.000136528
0.000139998
0.0001413
0.000140195
0.000135863
0.000127269
0.000113908
9.72456e-05
8.14002e-05
7.03957e-05
6.64592e-05
7.25537e-05
9.40439e-05
0.000124836
0.000126007
0.00010091
6.29321e-05
6.33536e-05
0.000129716
4.35011e-05
3.93794e-06
4.11745e-06
1.00468e-06
1.26996e-05
6.58409e-06
2.64502e-07
3.70154e-08
1.48478e-06
1.55698e-05
4.79955e-05
9.52287e-05
0.000128355
0.000138848
0.000142223
0.000143992
0.000144814
0.000144319
0.000141754
0.000136116
0.000126398
0.00011224
9.54115e-05
8.02872e-05
7.15311e-05
7.16434e-05
8.04671e-05
9.36642e-05
0.000104497
0.000113291
0.000124149
0.000133766
0.000129284
3.61416e-05
1.1108e-05
1.57417e-05
7.23777e-06
1.91339e-06
6.20548e-07
1.79465e-05
6.94856e-06
3.0945e-06
1.99047e-06
5.89616e-06
4.56384e-05
0.000108816
0.000123432
0.000126452
0.000129859
0.000133097
0.000135259
0.000135705
0.000134143
0.000130466
0.000124826
0.000117863
0.000110585
0.000103731
9.71038e-05
9.05311e-05
8.58833e-05
8.59051e-05
9.13937e-05
0.000100692
0.000110806
0.00012007
0.000130347
0.00014716
0.000170958
0.000164129
0.000117493
0.000108202
9.7023e-05
3.72261e-06
1.3109e-06
7.60446e-06
1.7711e-06
1.65802e-07
2.45182e-05
9.68592e-05
0.000122886
0.000130981
0.000137789
0.000141374
0.000141913
0.000140443
0.000137151
0.000132015
0.000125445
0.000118223
0.000111325
0.000105607
0.000101469
9.87985e-05
9.7089e-05
9.58558e-05
9.5187e-05
9.58744e-05
9.86723e-05
0.000103669
0.000110047
0.000115615
0.000115943
0.000106801
9.46936e-05
9.01072e-05
7.46181e-05
4.49018e-05
6.00878e-06
6.61693e-06
1.05043e-05
1.49787e-06
4.17283e-06
5.08481e-05
9.99501e-05
0.000118356
0.000124943
0.000128669
0.000131886
0.000133411
0.000132644
0.000130186
0.000126778
0.000122779
0.000118183
0.000112882
0.000106961
0.0001009
9.54926e-05
9.14598e-05
8.90965e-05
8.8243e-05
8.8554e-05
8.98031e-05
9.19996e-05
9.53353e-05
0.000100119
0.000106807
0.000115029
0.000120777
0.000118871
0.000112643
0.000112352
9.00057e-06
6.86896e-06
1.31468e-05
1.94238e-06
4.17126e-06
1.93056e-05
6.60488e-05
0.000113194
0.000132723
0.000140218
0.000142959
0.00014399
0.000144269
0.000143793
0.000142209
0.000139269
0.000135042
0.000129846
0.00012413
0.000118345
0.00011288
0.000108128
0.000104505
0.000102338
0.000101712
0.000102424
0.000104041
0.000105984
0.00010755
0.000107762
0.000105733
0.000101898
9.457e-05
6.1348e-05
2.56211e-05
1.57313e-05
8.7866e-06
1.10528e-05
4.85608e-06
4.68561e-06
1.76118e-05
5.01224e-05
9.45478e-05
0.000118504
0.000126188
0.000130176
0.000133764
0.000137116
0.000140049
0.000142032
0.000142357
0.000140618
0.000136845
0.000131341
0.000124526
0.000116928
0.000109218
0.000102126
9.62673e-05
9.20151e-05
8.94927e-05
8.86553e-05
8.9373e-05
9.14215e-05
9.42401e-05
9.62412e-05
9.36253e-05
7.90654e-05
4.59617e-05
1.24991e-05
4.64328e-06
1.40242e-05
8.04606e-06
5.45381e-06
4.06276e-05
0.000125204
0.000140761
0.0001423
0.000139903
0.000138707
0.000139814
0.000143031
0.000147015
0.000150665
0.000153487
0.000155178
0.000155331
0.000153499
0.000149449
0.000143339
0.000135679
0.000127142
0.000118408
0.000110138
0.000102923
9.71406e-05
9.28594e-05
8.98314e-05
8.76089e-05
8.56783e-05
8.34795e-05
8.08036e-05
7.89486e-05
7.63994e-05
4.95141e-05
1.39275e-05
1.19854e-05
1.15216e-05
1.39477e-05
8.36128e-05
0.000107056
0.000117701
0.000125851
0.000132612
0.000138181
0.000141541
0.000142847
0.000142979
0.000142852
0.000143069
0.000143661
0.000144111
0.000143642
0.000141571
0.00013753
0.00013153
0.000123925
0.000115286
0.000106274
9.75411e-05
8.96528e-05
8.30449e-05
7.79389e-05
7.43116e-05
7.18411e-05
6.93078e-05
6.29295e-05
4.71722e-05
2.62131e-05
1.47406e-05
1.61616e-05
1.61041e-05
1.36017e-05
7.93419e-06
2.30685e-05
7.30554e-05
0.000118065
0.000138625
0.00014358
0.000144764
0.00014635
0.00014819
0.000149376
0.000149614
0.000149396
0.000149468
0.000150143
0.000151023
0.000151221
0.000149787
0.000146055
0.000139842
0.000131486
0.000121719
0.000111382
0.000101168
9.15084e-05
8.26385e-05
7.47796e-05
6.83854e-05
6.43211e-05
6.29908e-05
6.05467e-05
4.51565e-05
2.0922e-05
1.13755e-05
1.17875e-05
7.77015e-06
5.14632e-06
2.57215e-05
8.52462e-05
0.000137223
0.000144779
0.000142453
0.000138751
0.000136526
0.000136796
0.000138655
0.000140211
0.000140288
0.000139513
0.000139358
0.000140558
0.00014263
0.000144333
0.000144342
0.000141592
0.000135455
0.000126015
0.000114316
0.000102059
9.07493e-05
8.09618e-05
7.22256e-05
6.3549e-05
5.43426e-05
4.50142e-05
3.65415e-05
2.9846e-05
2.40414e-05
1.78304e-05
9.3954e-06
3.34933e-06
1.36561e-05
5.04484e-05
0.000101383
0.000134112
0.00014994
0.000152311
0.000149079
0.000146653
0.000146445
0.0001474
0.000148195
0.00014797
0.000146687
0.000145277
0.000144982
0.000146235
0.000148327
0.000149992
0.000150047
0.000147499
0.000141301
0.000130516
0.000115407
9.83787e-05
8.27291e-05
7.03669e-05
6.11158e-05
5.35146e-05
4.59236e-05
3.69091e-05
2.58073e-05
1.69482e-05
1.50272e-05
7.50354e-06
1.15269e-05
3.80161e-05
8.23268e-05
0.000129071
0.000149285
0.000148364
0.000142472
0.000139077
0.000139154
0.000140734
0.000141907
0.000141977
0.00014118
0.000140013
0.000138998
0.00013879
0.000139916
0.000142153
0.000144493
0.000145857
0.000145661
0.000143668
0.00013924
0.000130644
0.000115826
9.57531e-05
7.56198e-05
5.98307e-05
4.89325e-05
4.12387e-05
3.47088e-05
2.70686e-05
1.8031e-05
1.40314e-05
6.25132e-06
1.45392e-05
4.91342e-05
9.94355e-05
0.000136754
0.000149945
0.000147821
0.000142917
0.000144325
0.000150878
0.000157213
0.000160109
0.000159659
0.000157383
0.000154706
0.000152543
0.000151453
0.000151741
0.000153185
0.000154807
0.000155289
0.000153845
0.000150692
0.000146558
0.000141319
0.000132302
0.000114441
8.78679e-05
6.23776e-05
4.46081e-05
3.3756e-05
2.68418e-05
2.14533e-05
1.61443e-05
1.34212e-05
5.59438e-06
1.26034e-05
4.50417e-05
0.000122377
0.000155361
0.000146529
0.000131792
0.000127202
0.000134979
0.000146532
0.00015338
0.000154892
0.000153661
0.00015159
0.000149717
0.000148638
0.000148727
0.000150209
0.000153001
0.00015635
0.00015866
0.000158029
0.000153562
0.000146389
0.000139062
0.000133564
0.000128637
0.000115626
8.50845e-05
5.3623e-05
3.50849e-05
2.56787e-05
1.98429e-05
1.51336e-05
1.25795e-05
4.52191e-06
1.30036e-05
4.8996e-05
0.000115244
0.000149063
0.000141381
0.000124898
0.000122791
0.000136233
0.000152909
0.000162651
0.000165593
0.000165086
0.000163443
0.000161786
0.000160588
0.000160104
0.00016057
0.000162196
0.000164978
0.000168347
0.000170821
0.000170066
0.000164059
0.0001533
0.000141449
0.000132194
0.000124534
0.000106122
6.66762e-05
3.58568e-05
2.22652e-05
1.69048e-05
1.40446e-05
1.26229e-05
3.65414e-06
1.36504e-05
5.36935e-05
0.00013379
0.000152272
0.000127312
0.000108503
0.000111379
0.000131612
0.000152005
0.000160857
0.000162314
0.000161688
0.000161202
0.000161331
0.000161947
0.000162871
0.000164051
0.000165563
0.000167525
0.000169941
0.000172425
0.000173887
0.000172328
0.000165467
0.000153268
0.000140084
0.000131177
0.000125632
0.000102539
5.15799e-05
2.41208e-05
1.50659e-05
1.20064e-05
1.12464e-05
2.55764e-06
1.51873e-05
7.35502e-05
0.000148995
0.000146183
0.000121771
0.000110955
0.000123301
0.000148093
0.000164778
0.000170282
0.000171243
0.000171327
0.000171741
0.000172576
0.000173553
0.000174389
0.000174939
0.000175202
0.000175289
0.000175358
0.000175501
0.000175616
0.000175193
0.000172983
0.000166792
0.000155
0.000140607
0.000129871
0.000122259
8.58027e-05
3.23901e-05
1.53705e-05
1.10598e-05
9.84781e-06
1.92142e-06
1.57977e-05
9.27933e-05
0.000160216
0.000143819
0.00011869
0.000112188
0.000126493
0.000148847
0.000163141
0.000168345
0.000169666
0.000170328
0.000171596
0.000173588
0.00017592
0.00017812
0.000179829
0.000180845
0.000181107
0.00018066
0.000179596
0.000178002
0.0001759
0.000173158
0.000169334
0.000163536
0.000154993
0.000144877
0.000135326
0.000117451
5.1846e-05
1.74019e-05
1.01176e-05
8.6727e-06
1.40497e-06
1.58432e-05
0.000111546
0.000158406
0.000136023
0.00012006
0.000123246
0.000141165
0.000160054
0.000171181
0.000175995
0.000177759
0.000178606
0.000179627
0.000181154
0.000183048
0.000184968
0.000186546
0.000187478
0.000187547
0.00018663
0.000184675
0.000181703
0.000177807
0.000173134
0.000167849
0.000162031
0.000155574
0.000148371
0.000140614
0.000129624
8.34966e-05
2.2595e-05
9.76575e-06
8.21711e-06
1.28134e-06
1.54083e-05
0.000112598
0.000158658
0.000140693
0.000128967
0.000131842
0.000145121
0.000160478
0.000171865
0.000178243
0.000180967
0.000181729
0.000181919
0.000182401
0.000183468
0.000184985
0.000186599
0.000187908
0.000188554
0.000188271
0.000186889
0.000184355
0.000180745
0.000176262
0.000171209
0.000165876
0.000160307
0.000154
0.000145684
0.000131594
9.39826e-05
3.04424e-05
1.08342e-05
7.16239e-06
1.00403e-06
1.47434e-05
0.000102166
0.000154432
0.000141552
0.000133675
0.000136895
0.000148127
0.000162107
0.000174376
0.000182942
0.000187844
0.00019002
0.000190649
0.000190796
0.000191153
0.000191945
0.000193028
0.000194067
0.000194675
0.000194513
0.000193322
0.000190973
0.000187494
0.000183088
0.00017812
0.000173048
0.000168245
0.000163613
0.000157771
0.000145379
0.000106061
4.27043e-05
1.2525e-05
6.20736e-06
8.4402e-07
1.41783e-05
8.5828e-05
0.000150216
0.000143075
0.000134547
0.000134446
0.000142614
0.000155418
0.000168444
0.000178899
0.000186033
0.000190237
0.000192386
0.000193482
0.000194375
0.000195558
0.000197132
0.000198908
0.000200554
0.000201713
0.000202053
0.000201315
0.000199358
0.000196187
0.000191971
0.000187045
0.000181845
0.000176658
0.000170987
0.00016174
0.000134709
6.37186e-05
1.59926e-05
5.32806e-06
4.37006e-07
1.40221e-05
8.39161e-05
0.000142638
0.000136213
0.000130803
0.000133516
0.000142415
0.000154438
0.000166842
0.000177739
0.000186329
0.000192607
0.000196987
0.000200056
0.000202427
0.000204609
0.000206913
0.000209423
0.000212041
0.000214559
0.000216696
0.000218131
0.000218537
0.000217601
0.000215102
0.00021108
0.000205956
0.000200286
0.000193846
0.00018344
0.000154874
8.18246e-05
2.47113e-05
6.96738e-06
4.61328e-07
1.36873e-05
7.83783e-05
0.000136501
0.000132548
0.000129716
0.000133669
0.000142054
0.000152423
0.000163162
0.000173237
0.000182084
0.00018954
0.000195711
0.000200842
0.000205233
0.000209183
0.000212929
0.000216599
0.000220174
0.000223501
0.0002263
0.000228223
0.000228934
0.000228238
0.000226214
0.000223232
0.000219683
0.000215555
0.00021001
0.000201091
0.000184673
0.000144351
6.1097e-05
1.43905e-05
1.3664e-06
1.33643e-05
7.88534e-05
0.00013682
0.000135294
0.000134182
0.000138028
0.000145287
0.000154339
0.000164024
0.000173628
0.000182744
0.000191182
0.000198912
0.000205981
0.000212457
0.000218373
0.000223682
0.000228216
0.000231662
0.000233601
0.000233578
0.000231288
0.000226807
0.000220762
0.000214264
0.000208542
0.000204334
0.00020124
0.00019754
0.000190742
0.000177706
0.000149472
8.34207e-05
2.08789e-05
3.02844e-06
1.2786e-05
7.15062e-05
0.000141048
0.000143642
0.000141119
0.000141975
0.000146672
0.000153738
0.000161721
0.000169945
0.000178172
0.000186266
0.000194092
0.000201498
0.000208288
0.000214199
0.000218861
0.00022179
0.00022243
0.000220291
0.000215132
0.000207201
0.000197375
0.000187046
0.000177748
0.000170726
0.000166518
0.000164405
0.000161776
0.000153626
0.00013172
9.08296e-05
5.07019e-05
2.48837e-05
6.55915e-06
1.26042e-05
7.50367e-05
0.000155028
0.000159174
0.000155035
0.000153259
0.00015508
0.000159541
0.000165359
0.000171786
0.000178442
0.000185044
0.000191296
0.000196889
0.000201507
0.00020482
0.000206474
0.000206084
0.000203287
0.000197883
0.000190003
0.000180273
0.000169815
0.000159999
0.000152055
0.000146801
0.000144416
0.000143837
0.000141876
0.000133357
0.000113103
7.98525e-05
4.8083e-05
2.97498e-05
1.04538e-05
1.22441e-05
6.8221e-05
0.000157726
0.000170756
0.000167535
0.000163475
0.00016232
0.000164672
0.000169571
0.000175775
0.000182287
0.000188381
0.000193536
0.000197402
0.000199767
0.000200523
0.000199598
0.000196919
0.000192437
0.000186237
0.000178632
0.000170232
0.000161826
0.000154075
0.000147317
0.000141931
0.00013911
0.000140571
0.000145009
0.000144233
0.000127645
8.52161e-05
3.83901e-05
1.921e-05
8.5001e-06
1.20567e-05
6.26674e-05
0.00014508
0.000164193
0.000165854
0.000164204
0.000162586
0.000163252
0.00016742
0.000174786
0.000183982
0.000193359
0.000201513
0.000207525
0.000211004
0.000211999
0.000210844
0.000208006
0.000203915
0.00019896
0.000193468
0.000187592
0.00018096
0.000172328
0.000160181
0.000145244
0.000132824
0.00013089
0.000145274
0.000168055
0.00016356
9.11914e-05
2.91281e-05
1.1111e-05
3.05442e-06
1.08587e-05
4.27707e-05
0.000109264
0.000138951
0.00014574
0.000144443
0.000140995
0.000140001
0.000143583
0.000151811
0.000163703
0.000177828
0.000192587
0.000206439
0.000218162
0.000227069
0.000233086
0.000236728
0.000238692
0.000239495
0.000239045
0.000236003
0.000227134
0.000207787
0.000176166
0.000139956
0.000112474
0.000102448
0.000117113
0.000162796
0.000190622
9.72395e-05
2.86886e-05
9.76837e-06
1.73876e-06
9.84818e-06
3.3982e-05
9.4762e-05
0.000130606
0.000135873
0.000131534
0.000126051
0.000123582
0.000125322
0.000131131
0.000140565
0.000153134
0.000168296
0.000185349
0.000203452
0.000221847
0.00024003
0.000257799
0.000274871
0.000290266
0.000301621
0.000304683
0.000293332
0.000260573
0.000205082
0.00014418
0.000100489
7.98351e-05
8.30594e-05
0.000120257
0.000172162
0.000117971
3.38233e-05
1.085e-05
2.30349e-06
9.07643e-06
3.12584e-05
9.6358e-05
0.000145026
0.000146974
0.000138554
0.000131528
0.000128615
0.000129288
0.000132626
0.000138268
0.000146288
0.000156806
0.000169904
0.000185587
0.000203744
0.00022421
0.000246673
0.000270335
0.000293376
0.000312623
0.000323779
0.000321896
0.000300716
0.000251095
0.00017454
0.000106089
6.96772e-05
6.11324e-05
8.31076e-05
0.000141482
0.000144134
4.4505e-05
1.45162e-05
4.2561e-06
9.76521e-06
3.54778e-05
0.000115934
0.00016953
0.000161381
0.000147303
0.000139477
0.000138392
0.000141702
0.000147149
0.000153304
0.00015979
0.000167091
0.000175977
0.000187076
0.000200749
0.000217039
0.000235608
0.000255667
0.000275895
0.000294318
0.000308109
0.000313153
0.000302982
0.000265564
0.00018931
0.000107914
6.40861e-05
5.20626e-05
6.86227e-05
0.000125586
0.00013893
4.54357e-05
1.50974e-05
5.00044e-06
1.06476e-05
3.8026e-05
0.000125712
0.000168208
0.000154564
0.000138047
0.000129685
0.000130182
0.000138094
0.000151503
0.000167641
0.000183278
0.000196266
0.000206465
0.000215188
0.000224145
0.000234743
0.000247818
0.000263581
0.000281507
0.000299874
0.000314814
0.000318825
0.000298477
0.000236458
0.000148443
8.57265e-05
5.75812e-05
5.26067e-05
7.08404e-05
0.000121393
0.000149283
5.74373e-05
1.56471e-05
4.47761e-06
1.12138e-05
4.12657e-05
0.000133072
0.000142552
0.000127001
0.000114485
0.000109748
0.000113102
0.000124829
0.000145092
0.000171976
0.000200852
0.000226864
0.000247516
0.000262983
0.000275086
0.000286175
0.000298306
0.000312587
0.000328319
0.000341881
0.000345773
0.000328337
0.000275285
0.000189277
0.00011378
7.34294e-05
5.80601e-05
5.66737e-05
6.78605e-05
0.000104162
0.000136499
5.28144e-05
1.4991e-05
3.82609e-06
1.09312e-05
4.40301e-05
0.00013356
0.000140244
0.000128631
0.000118688
0.000112959
0.000112477
0.000119025
0.000134769
0.000161353
0.000197997
0.000239923
0.000280373
0.000314833
0.000342319
0.00036369
0.000379895
0.000390696
0.000394059
0.000386399
0.000363611
0.000321931
0.000259754
0.000187144
0.000128653
9.58659e-05
7.92374e-05
6.47252e-05
5.52816e-05
7.04502e-05
0.000122715
4.39423e-05
1.30394e-05
3.05755e-06
1.13134e-05
5.78723e-05
0.000159957
0.000159309
0.000145605
0.000136802
0.000132386
0.000130934
0.000133164
0.000141356
0.000158311
0.00018634
0.00022561
0.000272533
0.000320274
0.000361789
0.000392425
0.000410181
0.000414904
0.000407459
0.000389088
0.000361134
0.000325031
0.000282535
0.00023722
0.00019554
0.000159478
0.000119286
7.36945e-05
4.45429e-05
4.4328e-05
8.99002e-05
5.53006e-05
1.41586e-05
2.96877e-06
1.12024e-05
6.39412e-05
0.000181868
0.000180053
0.000164957
0.000155153
0.000151037
0.000150048
0.000151332
0.000156286
0.000167565
0.000188042
0.000219628
0.00026131
0.000307442
0.000349471
0.000380732
0.000398705
0.000403863
0.000398135
0.000383993
0.000363893
0.000340095
0.000314791
0.000289621
0.000263297
0.000229241
0.000175668
0.000103242
5.07833e-05
3.53042e-05
5.54118e-05
0.000100546
2.27713e-05
8.75666e-06
1.06391e-05
5.49742e-05
0.000167897
0.000165
0.000149789
0.000142932
0.000144202
0.000151138
0.000162265
0.000176884
0.000194925
0.00021693
0.000243509
0.000274213
0.000306629
0.000337161
0.00036287
0.000382122
0.000394335
0.000399479
0.000397692
0.000389019
0.000373274
0.000350216
0.000319974
0.000284533
0.000247239
0.000207245
0.00015214
7.57082e-05
3.49336e-05
3.41395e-05
7.76031e-05
5.01991e-05
1.4972e-05
1.07938e-05
6.41048e-05
0.000137707
0.000132576
0.000135024
0.000146476
0.000161378
0.000176876
0.000193078
0.000210835
0.000230228
0.000250832
0.000272392
0.000294861
0.000318215
0.000342085
0.00036549
0.000386923
0.000404502
0.000416048
0.000419085
0.000410878
0.000388496
0.000349975
0.000298499
0.000243946
0.000195485
0.000155553
0.000119128
7.801e-05
4.71071e-05
4.35359e-05
7.41972e-05
4.82866e-05
1.36381e-05
9.79805e-06
5.70659e-05
0.000140909
0.000150087
0.000154347
0.000156458
0.000158861
0.000164528
0.000174977
0.000190405
0.000210246
0.000233256
0.000257654
0.000281851
0.00030505
0.000327238
0.000348662
0.000369222
0.000388042
0.000403266
0.000412019
0.000410209
0.000392144
0.000353106
0.000297877
0.000240083
0.000187746
0.000138484
8.72795e-05
4.50991e-05
3.15619e-05
4.53047e-05
9.8256e-05
3.03537e-05
1.03418e-05
9.07067e-06
5.27621e-05
0.000169338
0.000173157
0.000163063
0.000158102
0.000160159
0.000166912
0.000176517
0.000188909
0.000204908
0.000224844
0.000247927
0.000272419
0.000296423
0.000318744
0.000338931
0.000356719
0.000371533
0.000382248
0.000387117
0.000383541
0.000367998
0.000338319
0.000297839
0.000253644
0.000208856
0.000160671
0.000103547
5.19249e-05
3.03154e-05
3.2475e-05
7.45592e-05
3.75792e-05
1.19919e-05
9.3734e-06
6.14969e-05
0.000174005
0.000170645
0.000165588
0.000170475
0.000182342
0.000197098
0.000211932
0.000225675
0.000238869
0.000253263
0.00027042
0.00029063
0.000312877
0.000335394
0.000356264
0.000373642
0.000385645
0.000390501
0.000386861
0.00037381
0.000351274
0.000321079
0.000287492
0.000254294
0.000221048
0.000185802
0.000145804
9.60812e-05
4.53708e-05
2.76597e-05
4.17694e-05
4.37956e-05
1.23025e-05
8.25042e-06
5.05643e-05
0.00020747
0.00020816
0.000181091
0.000168605
0.000172721
0.000187699
0.000207808
0.000229067
0.000249696
0.000269464
0.000288937
0.000308843
0.000329288
0.000349394
0.000367462
0.000381277
0.000388497
0.000387271
0.000376999
0.000358827
0.000335283
0.000308979
0.000281602
0.000252925
0.000219644
0.000179886
0.000134538
8.65928e-05
4.37595e-05
2.5579e-05
3.42966e-05
4.21286e-05
1.1955e-05
9.76179e-06
7.03819e-05
0.000234639
0.000196214
0.000156614
0.000141912
0.00014683
0.000166993
0.000199287
0.000237482
0.000272344
0.000297799
0.000314006
0.000324254
0.000331622
0.000337793
0.000343112
0.000347055
0.000348795
0.000347796
0.000344227
0.000338737
0.000331251
0.000319756
0.000301217
0.000272206
0.00022994
0.000176875
0.000121566
7.44605e-05
3.93686e-05
2.46723e-05
3.38279e-05
3.34792e-05
1.11217e-05
7.83731e-06
4.10026e-05
0.000185884
0.00018228
0.000154569
0.000134268
0.000127681
0.000135258
0.000157675
0.00019572
0.000246179
0.000298003
0.000337592
0.000359083
0.000365243
0.00036198
0.0003547
0.00034717
0.000341561
0.00033892
0.000339352
0.000341536
0.000341759
0.000333854
0.00031229
0.000274105
0.000224026
0.000171612
0.000122483
7.80548e-05
4.23198e-05
2.89737e-05
3.93459e-05
3.02703e-05
9.97324e-06
8.57074e-06
5.27159e-05
0.000196398
0.000192009
0.000165544
0.000144896
0.000135117
0.00013691
0.000151469
0.000180539
0.000224153
0.000277186
0.000329055
0.000369512
0.000394131
0.000403643
0.000401589
0.000392828
0.000382162
0.000372631
0.000364525
0.000355767
0.000343007
0.000323228
0.000294709
0.0002564
0.000211077
0.000164411
0.000120333
7.99713e-05
4.68032e-05
3.39977e-05
4.7463e-05
2.78295e-05
9.20866e-06
7.89962e-06
4.58439e-05
0.000150087
0.000152856
0.000150008
0.000149761
0.000152198
0.000159224
0.000173974
0.000198168
0.000230837
0.000269122
0.000309092
0.000346899
0.000380272
0.000407969
0.000428615
0.000433019
0.000431652
0.000429912
0.00042789
0.000412174
0.000388568
0.000357709
0.000317925
0.000270395
0.000218556
0.000169039
0.000126712
8.57006e-05
4.69316e-05
3.1328e-05
4.33884e-05
2.55125e-05
8.52832e-06
6.82081e-06
3.83525e-05
0.000131947
0.000162262
0.000175941
0.000180195
0.00017257
0.000161613
0.000157209
0.000162578
0.000176458
0.000196704
0.000221653
0.000249866
0.000279795
0.0003097
0.000337652
0.000361684
0.000379934
0.000390862
0.000394838
0.000392992
0.000383002
0.000360267
0.000322094
0.000270824
0.000214007
0.000161919
0.000117185
7.42639e-05
4.24844e-05
3.50851e-05
5.08139e-05
2.11552e-05
6.81756e-06
6.84347e-06
3.96947e-05
0.000132621
0.000178188
0.000194765
0.000204331
0.000206563
0.000199308
0.00018528
0.000172449
0.000166431
0.000167844
0.000175526
0.000188687
0.000207258
0.000231404
0.0002607
0.000292937
0.000323331
0.000346248
0.000358824
0.000359778
0.000347496
0.000321611
0.000282647
0.000234748
0.000186775
0.000145385
0.000111177
8.34852e-05
7.05544e-05
7.20041e-05
7.85368e-05
2.33185e-05
5.97354e-06
7.68001e-06
3.86291e-05
9.4328e-05
0.000148506
0.000179979
0.000192351
0.000190861
0.000180898
0.000168142
0.000156483
0.000147938
0.00014344
0.000143245
0.000147403
0.00015616
0.000170639
0.000193331
0.000228658
0.000281922
0.000346682
0.000347513
0.000348073
0.00034839
0.000348482
0.00034835
0.000311962
0.000245327
0.000193975
0.000159247
0.000136163
0.000109189
8.18956e-05
7.17113e-05
1.66402e-05
4.24536e-06
4.58632e-06
1.54467e-05
4.5827e-05
7.84304e-05
9.5032e-05
0.000102264
0.000104918
0.000105266
0.000104866
0.000104693
0.000105186
0.000106468
0.00010869
0.000112178
0.000117358
0.000124854
0.000136027
0.000154272
0.000186446
0.000240824
0.000315181
0.00032739
0.000328454
0.00032896
0.000328771
0.000327724
0.000284374
0.000217916
0.000160586
0.000112911
7.78464e-05
6.71614e-05
8.27899e-05
2.2225e-05
4.19241e-06
5.52645e-06
1.9388e-05
4.13301e-05
7.00561e-05
9.30667e-05
0.000105539
0.000111476
0.00011389
0.000114298
0.000113569
0.00011228
0.000110884
0.000109778
0.000109344
0.000109934
0.000111809
0.000115087
0.000120032
0.000128053
0.000142575
0.000167117
0.000199819
0.00022963
0.000243704
0.000239292
0.000222388
0.000198419
0.000169616
0.000136991
0.000105546
8.78129e-05
9.22057e-05
9.25005e-05
2.47037e-05
2.5675e-06
3.78844e-06
1.27877e-05
3.06011e-05
6.10592e-05
9.23069e-05
0.000112306
0.000123973
0.000131524
0.000136743
0.000140316
0.000142464
0.000143397
0.000143728
0.000144238
0.000145494
0.000147767
0.000151087
0.00015516
0.000159135
0.000162245
0.000165097
0.000169024
0.000173743
0.000175953
0.00017234
0.000163854
0.000153312
0.000142676
0.000133098
0.000120171
9.81896e-05
8.91303e-05
0.000101248
2.9059e-05
2.27577e-06
5.47481e-06
1.77998e-05
4.6045e-05
9.36174e-05
0.000125314
0.000138901
0.000147537
0.000155194
0.000161831
0.000165856
0.000166122
0.000163981
0.000162994
0.000166189
0.000174527
0.000187249
0.000202663
0.00021871
0.00023299
0.000242417
0.000243578
0.000235048
0.000219545
0.000201999
0.000185736
0.000171372
0.000156772
0.000140294
0.000122999
0.000110065
0.000108936
0.000118212
8.95219e-05
1.47224e-05
1.17352e-06
5.62918e-06
2.00774e-05
5.99401e-05
0.0001047
0.000116796
0.000120815
0.000125954
0.000133633
0.000141523
0.000144044
0.000138255
0.000130239
0.000128081
0.000135226
0.000152181
0.00017847
0.00021239
0.000250315
0.000287013
0.000316768
0.000333915
0.000332998
0.000311638
0.000275012
0.000233742
0.000195729
0.000162406
0.000130642
9.90396e-05
7.26763e-05
6.03819e-05
6.79117e-05
4.06714e-05
8.91266e-06
2.53294e-07
7.27899e-06
2.6684e-05
7.3517e-05
9.47903e-05
9.41686e-05
9.06435e-05
8.77822e-05
8.65603e-05
8.73752e-05
8.97358e-05
9.16158e-05
9.13119e-05
9.11198e-05
9.50346e-05
0.00010525
0.000122803
0.000148482
0.000182282
0.000222392
0.000265029
0.00030459
0.000334172
0.000346926
0.000338856
0.00031177
0.000272051
0.000226996
0.000181281
0.000137228
0.000101716
8.56648e-05
9.33062e-05
9.00457e-05
1.6056e-05
6.12239e-07