/*--------------------------------*- C++ -*----------------------------------*\
| =========                 |                                                 |
| \\      /  F ield         | OpenFOAM: The Open Source CFD Toolbox           |
|  \\    /   O peration     | Version:  v1906                                 |
|   \\  /    A nd           | Web:      www.OpenFOAM.com                      |
|    \\/     M anipulation  |                                                 |
\*---------------------------------------------------------------------------*/
FoamFile
{
    version     2.0;
    format      ascii;
    class       volScalarField;
    location    "0.43/sphere";
    object      T;
}
// * * * * * * * * * * * * * * * * * * * * * * * * * * * * * * * * * * * * * //

dimensions      [0 0 0 1 0 0 0];


internalField   nonuniform List<scalar> 
7664
(
483.118
483.76
483.386
484.699
483.059
483.622
485.499
486.826
488.312
486.092
483.369
487.733
489.072
487.017
486.26
487.749
485.529
485.435
486.982
484.911
483.659
488.244
489.767
487.531
484.521
489.022
490.575
488.431
483.419
483.545
487.694
489.192
486.956
486.025
484.89
486.003
487.497
485.06
482.983
486.921
488.37
486.222
485.259
486.916
484.558
483.35
483.307
483.341
483.247
483.322
483.174
484.693
483.468
487.427
486.054
488.198
486.986
486.081
488.371
487.09
483.795
483.207
484.781
483.497
487.091
487.502
486.144
484.788
483.524
483.841
483.247
483.281
483.288
483.27
483.295
483.148
483.216
483.23
483.08
483.268
483.259
483.121
483.262
484.299
483.526
484.848
485.243
486.838
483.528
484.877
486.862
485.354
484.47
482.985
484.928
482.972
486.04
483.718
483.377
484.609
485.941
487.405
486.914
488.192
483.598
484.081
483.904
485.351
485.135
484.834
485.537
483.037
485.047
486.128
483.068
483.009
482.989
486.037
484.947
484.616
483.212
483.791
486.906
488.182
485.956
487.383
483.479
483.825
483.249
488.19
486.982
487.406
486.038
486.124
483.079
485.055
484.343
483.612
485.259
486.81
484.871
486.825
485.35
484.891
484.512
486.085
486.119
485.253
484.824
483.461
486.798
485.476
486.28
487.783
485.443
486.936
487.74
489.206
484.664
487.801
486.416
486.98
485.523
489.226
487.864
485.514
484.918
486.939
483.595
483.193
485.934
483.354
486.88
483.657
487.332
484.52
488.111
483.2
487.019
483.486
487.538
483.831
488.419
484.866
483.405
483.204
486.876
485.935
484.523
488.107
483.726
487.332
483.5
486.083
483.264
488.419
484.876
487.542
483.901
483.419
485.246
483.544
486.774
484.852
487.734
485.442
487.689
489.138
485.417
486.847
486.391
485.463
484.671
489.168
487.85
486.887
485.487
486.942
483.659
484.914
485.995
486.022
486.088
486.12
484.809
483.454
486.779
485.255
486.939
487.739
489.205
485.469
486.272
487.814
485.521
489.23
487.864
485.481
484.675
487.833
486.406
486.929
483.591
485.529
483.192
487.335
484.517
488.121
485.941
483.349
486.886
483.834
488.428
484.869
486.129
483.194
487.107
483.498
483.405
483.203
488.115
483.719
487.326
483.357
486.879
485.944
484.878
487.553
483.89
487.117
483.512
486.155
483.278
486.788
484.83
485.257
489.152
485.424
486.85
486.267
487.789
485.443
487.869
486.894
485.486
487.824
486.456
485.454
484.677
483.657
484.92
485.579
485.996
484.329
484.873
485.273
486.882
483.554
486.897
485.363
483.56
484.491
484.964
482.973
486.028
482.997
487.478
486.923
488.356
483.134
483.766
483.391
484.691
486.213
483.064
483.066
486.029
484.948
482.992
488.353
485.975
487.471
483.4
484.701
483.193
483.806
483.081
485.13
483.081
484.329
486.882
484.888
483.617
485.414
484.898
483.63
483.068
482.965
482.774
483.031
482.939
482.97
482.888
482.98
482.896
482.996
482.915
483.121
483.01
482.934
482.809
483.099
483.031
482.884
483.244
483.272
483.127
482.987
482.893
483.114
483.005
483.387
483.238
483.625
484.944
483.835
484.426
484.209
483.343
483.956
483.815
485.231
484.784
484.507
485.38
483.622
484.141
483.951
485.435
485.203
484.873
485.631
483.398
483.255
483.651
485.018
483.863
484.472
484.266
483.358
484.012
483.845
485.324
484.862
484.578
485.488
484.038
483.41
483.884
485.348
484.88
485.505
484.601
484.174
483.68
483.98
485.459
485.232
485.652
484.908
483.314
483.455
483.692
485.051
483.933
484.319
484.507
482.955
482.819
483.137
483.062
482.912
483.173
483.059
482.916
483.001
483.314
483.153
483.51
484.819
483.771
484.372
484.104
483.334
483.513
483.061
483.781
485.108
483.275
484.689
483.652
485.256
484.428
483.028
483.958
483.2
483.194
483.83
483.802
483.598
483.975
483.505
484.008
484.584
484.372
484.099
486.133
484.892
484.807
484.903
485.458
485.375
485.441
486.843
485.284
486.359
486.099
486.031
485.856
487.072
484.204
484.377
484.785
484.604
483.668
483.052
483.202
484.012
484.193
483.376
485.039
484.656
483.252
483.75
484.397
485.214
483.611
483.003
482.928
483.773
483.578
483.923
484.529
484.486
484.825
486.249
484.085
485.142
485.473
485.417
486.739
486.037
486.296
485.2
487.009
485.781
485.937
487.326
486.74
487.807
486.617
487.572
486.353
487.554
484.421
485.461
484.748
484.528
485.232
485.158
485.021
483.894
483.481
485.395
484.682
483.701
483.131
483.006
485.446
485.817
484.24
484.166
485.669
485.588
483.937
483.373
483.302
483.19
483.973
484.525
483.416
484.052
484.302
485.4
485.86
485.788
485.616
484.167
484.299
484.711
484.421
484.729
485.433
485.213
484.51
483.014
483.239
483.427
485.73
484.061
484.603
483.685
484.117
484.645
483.417
483.126
483.865
482.912
483.716
483.125
484.453
486.14
484.653
484.33
485.374
485.064
483.979
483.764
483.856
484.16
483.822
482.791
483.034
483.147
482.902
483.001
483.633
483.982
483.644
483.736
483.533
483.933
483.407
484.53
483.936
484.036
484.312
484.119
484.315
484.698
484.392
484.699
485.412
484.505
485.158
484.41
484.272
484.627
486.127
483.916
485.026
485.373
483.417
484.545
484.343
483.942
484.039
483.578
483.961
483.758
484.402
484.733
485.422
484.505
485.193
484.193
484.351
484.752
484.33
486.203
485.049
484.447
484.736
483.965
485.454
483.696
484.097
483.764
483.755
483.008
483.275
483.454
482.863
483.1
483.904
483.725
483.147
483
483.252
483.408
483.578
483.992
483.953
485.569
483.326
484.516
484.443
483.099
482.871
483.871
483.135
483.694
483.956
483.544
485.095
483.756
485.481
485.244
484.78
483.231
483.793
483.631
485.089
484.686
484.383
485.261
482.96
483.952
483.794
483.148
483.186
484.045
485.674
484.546
483.644
484.089
483.382
484.604
483.086
483.346
483.543
483.159
482.977
483.972
483.186
483.795
483.131
482.943
483.907
483.155
483.756
483.093
483.346
483.515
483.124
483.872
482.919
483.142
483.72
483.075
483.33
483.477
483.627
484.041
485.578
483.998
484.539
483.407
484.481
484.214
484.342
485.921
485.523
483.986
485.662
485.774
484.85
483.22
483.399
483.825
483.56
484.169
484.389
484.014
485.258
483.609
485.127
483.8
485.504
484.783
483.968
483.379
484.793
483.827
485.388
485.246
484.551
484.124
483.658
483.935
485.358
485.158
485.551
484.848
483.289
483.444
483.651
484.965
483.884
484.276
484.45
483.143
483.395
483.582
483.191
483.976
483.007
483.197
483.819
483.688
484.077
485.677
484.134
484.578
483.458
484.625
483.141
483.425
483.584
483.698
483.692
484.034
484
483.469
484.578
484.347
484.098
484.431
484.291
486.111
484.669
484.999
483.984
485.385
484.203
484.354
484.718
484.425
485.398
484.71
484.533
485.158
483.815
483.634
484
484.467
484.35
486.172
484.759
485.039
484.032
485.447
484.43
485.402
484.739
484.529
485.182
484.225
484.394
484.77
483.761
483.822
484.149
483.809
485.444
485.442
485.831
485.807
485.585
485.496
485.86
485.942
485.672
485.563
485.369
484.124
484.302
484.68
483.707
483.503
483.839
484.396
484.646
484.249
486.109
483.906
485.372
484.942
484.355
484.662
485.366
485.127
484.461
483.881
483.31
484.477
484.233
483.991
486.754
485.227
486.336
486.058
485.967
485.791
487.035
486.745
485.224
486.039
486.301
485.794
485.949
487.013
487.251
486.565
486.551
487.772
486.248
487.513
487.503
486.371
484.974
484.961
485.019
485.579
485.496
485.615
487.326
486.61
486.74
487.806
486.35
487.553
487.572
486.85
485.296
486.153
486.418
485.895
486.071
487.112
484.492
484.807
484.432
486.264
484.034
485.477
485.127
483.79
483.587
484.002
484.427
484.754
485.463
485.229
484.527
483.988
483.472
484.625
484.391
484.079
482.739
482.861
483.006
483.032
482.84
485.026
483.202
484.649
483.743
484.365
483.571
485.21
485.154
483.472
485.019
483.884
484.67
483.685
485.392
485.435
484.158
484.211
485.82
483.891
485.599
485.66
485.02
483.861
483.254
483.403
484.281
484.474
483.649
485.314
483.353
484.835
484.009
484.547
483.85
485.476
485.459
483.642
485.248
484.199
484.902
483.965
485.697
485.765
484.62
484.685
486.194
484.336
485.929
486.011
482.989
482.89
483.116
482.979
483.287
483.33
483.139
482.789
483.013
483.066
482.865
482.932
484.63
483.126
483.732
483.289
484.053
483.424
484.254
485.436
484.165
485.821
484.225
485.598
483.922
485.661
485.162
483.549
483.92
485.05
483.718
484.717
485.403
485.323
484.839
483.374
484.029
484.559
485.482
483.874
485.034
483.294
483.91
483.458
484.274
483.696
484.507
485.773
484.628
486.198
484.711
485.932
484.365
486.022
485.479
483.703
484.252
485.281
484.029
484.933
485.719
483.301
483.369
483.181
483.195
483.055
484.423
484.289
484.645
486.089
483.972
484.995
485.349
484.195
484.338
484.703
483.966
483.416
484.525
484.303
484.054
484.411
484.681
485.374
485.139
484.505
486.107
484.83
484.918
484.897
485.453
485.43
485.354
486.694
486.288
485.215
485.994
485.938
486.962
485.743
486.678
485.198
486.258
485.965
485.905
485.738
486.932
487.173
486.485
487.686
486.464
487.434
486.173
487.409
486.775
486.305
485.262
486.025
485.991
486.99
485.804
486.327
484.97
484.975
485.004
485.562
485.595
485.475
487.247
486.517
487.72
486.657
487.463
486.282
487.494
486.789
485.275
486.379
486.087
486.029
485.843
487.049
483.868
483.659
484.052
484.243
484.42
484.8
484.053
483.532
484.658
484.423
484.133
484.464
484.745
485.457
485.219
484.563
485.4
485.355
485.751
485.737
485.532
485.775
485.855
485.603
485.495
485.311
485.441
485.81
485.84
485.596
485.45
485.943
485.863
485.678
485.56
485.383
485.497
484.357
485.371
484.65
484.463
485.129
483.878
484.481
483.331
483.997
484.232
484.135
484.302
484.68
483.68
483.505
483.852
484.373
486.099
484.643
484.231
485.377
484.929
483.914
487.257
486.556
487.774
486.577
487.505
486.252
487.517
486.143
484.881
484.909
484.809
485.375
485.437
485.468
486.768
486.056
485.239
486.338
485.807
487.034
485.983
486.854
486.15
486.417
485.294
487.112
485.896
486.075
486.831
486.082
485.266
486.355
485.84
487.061
486.018
486.371
485.026
484.977
484.951
485.492
485.631
485.574
483.99
484.622
483.451
484.081
484.382
484.209
484.386
484.804
484.49
486.271
484.816
484.434
485.51
485.097
484.038
483.793
483.605
483.993
482.877
483.041
482.992
482.853
482.733
485.45
484.229
485.818
484.158
485.669
483.929
485.592
484.594
483.207
483.665
483.06
484.209
483.373
484.027
485.039
483.738
483.228
484.643
483.591
485.204
484.399
485.467
485.249
484.202
483.644
485.698
484.893
483.982
485.779
484.689
486.198
484.63
486.013
484.353
485.946
485.03
483.409
483.874
483.254
484.474
483.661
484.264
485.335
484.023
483.355
484.866
483.864
485.504
484.566
483.336
483.29
483.155
482.995
482.908
483.075
483.005
482.889
482.947
482.754
485.172
483.934
485.046
483.542
485.408
483.742
484.716
485.033
483.745
484.646
483.254
485.202
483.614
484.387
484.616
483.291
483.115
483.735
483.431
484.238
484.061
485.796
486.204
484.715
484.638
486.029
485.952
484.38
485.493
484.247
485.278
483.693
485.722
484.026
484.915
485.358
484.038
484.878
483.386
485.515
483.895
484.582
485.061
483.471
483.295
483.924
483.71
484.51
484.292
483.186
483.064
483.009
482.942
484.416
485.377
484.685
484.503
485.156
483.778
483.583
483.919
484.45
486.103
484.287
484.666
484.969
485.39
483.969
484.181
484.348
484.71
486.684
486.263
485.982
485.209
486.943
485.927
485.739
487.175
487.69
486.478
486.493
487.42
487.442
486.166
486.087
484.903
484.826
484.901
485.434
485.32
485.443
486.692
485.995
486.305
485.223
486.973
485.739
485.944
487.281
487.732
486.664
486.549
487.507
487.497
486.295
486.815
486.387
486.085
485.275
487.058
486.056
485.849
486.806
486.025
486.33
485.255
487.016
485.816
486.004
486.354
485.02
484.983
484.977
485.625
485.478
485.577
484.052
484.655
483.501
484.135
484.409
484.473
485.465
484.764
484.566
485.241
484.536
486.292
484.506
484.867
485.167
485.513
484.111
483.858
483.666
484.052
484.252
484.424
484.823
485.739
485.758
485.518
485.403
485.491
485.311
485.433
483.994
483.645
483.652
484.384
484.702
485.414
485.172
484.501
484.42
484.65
486.167
484.29
485.415
483.921
485.017
483.74
483.539
483.932
484.58
483.418
483.95
484.054
484.33
484.207
484.359
484.767
486.228
484.325
485.058
484.455
484.749
485.478
483.988
483.446
484.586
484.351
483.964
484.056
483.579
483.978
483.754
483.7
484.095
483.767
483.763
483.571
483.963
485.579
484.019
484.457
483.337
484.521
483.081
482.894
483.853
483.697
483.11
483.014
483.287
483.467
482.9
483.095
483.884
483.719
483.121
483.337
483.176
483.548
484.88
483.786
484.391
484.139
484.025
485.174
483.576
485.579
483.802
485.323
484.818
483.264
483.827
483.681
485.162
484.71
484.431
485.324
483.108
483.361
483.554
483.183
482.973
484.001
483.832
483.208
483.342
483.548
483.089
482.979
483.985
483.816
483.165
483.198
483.082
483.342
483.478
483.632
485.583
484.029
484.014
484.514
484.516
483.398
482.938
483.141
483.908
483.144
483.771
483.083
483.365
483.522
483.801
483.31
483.694
485.178
484.724
485.32
484.479
483.237
483.411
483.6
484.909
483.854
484.212
484.408
484.069
485.192
483.62
485.605
483.835
485.342
484.825
483.217
484.011
482.993
483.841
483.223
485.755
484.134
484.634
483.721
484.18
484.665
483.476
483.152
483.426
483.592
482.998
484.003
483.854
483.212
483.213
483.43
483.601
483.143
483.703
484.038
483.694
484.203
484.351
484.723
484.429
485.412
484.717
485.165
484.538
483.822
483.609
483.996
484.618
483.466
484.019
484.374
484.105
486.264
484.45
485.162
484.54
484.763
485.487
484.057
484.461
485.434
484.741
485.212
484.546
484.257
484.397
484.787
483.508
484.64
484.407
484.028
484.115
483.679
484.045
483.848
484.516
484.538
485.979
484.252
485.781
485.631
485.819
488.297
487.741
489.076
488.245
489.747
489.024
490.553
486.957
489.08
487.834
489.764
488.4
490.567
489.264
486.583
486.222
484.955
486.837
485.556
485.786
487.265
489.069
486.817
488.255
489.015
490.544
488.207
489.694
487.826
488.27
486.926
490.56
489.264
489.719
488.397
486.517
486.017
486.876
487.698
485.867
486.667
487.548
487.014
487.014
485.524
486.982
486.338
487.7
486.309
487.561
487.543
487.09
488.446
486.882
488.235
487.77
489.745
489.032
490.558
486.849
488.351
487.742
489.231
488.398
490.575
489.274
488.37
486.984
489.239
487.933
486.695
486.482
487.981
487.301
486.919
486.25
487.753
490.553
488.206
489.707
487.734
489.23
486.827
488.336
489.28
489.742
488.413
489.244
487.939
488.369
487.021
487.01
487.403
488.28
488.207
487.238
487.164
488.057
487.49
488.406
487.046
487.472
487.727
488.179
486.817
488.079
488.969
488.516
488.976
488.297
488.75
488.298
484.934
485.918
486.292
486.73
485.093
485.688
486.06
486.111
486.745
486.493
484.893
487.185
485.69
485.455
486.668
487.28
487.942
486.44
487.735
486.228
486.865
486.41
487.604
486.767
485.918
487.459
486.548
485.777
486.972
488.176
488.227
487.318
488.026
487.124
487.168
486.064
485.229
485.064
483.988
485.234
485.067
484.074
486.706
485.903
485.684
484.927
486.262
486.032
485.076
484.511
484.51
484.241
485.629
485.979
485.813
485.778
486.562
486.367
487.214
487.829
486.166
486.755
487.625
486.132
484.924
486.764
486.525
485.708
485.487
487.187
486.829
487.164
488.084
488.004
487.028
486.967
487.876
486.416
485.963
486.824
487.603
485.808
486.56
487.455
486.226
486.809
486.599
484.939
487.28
485.759
485.562
486.961
488.232
488.168
487.323
488.019
487.165
487.118
486.542
486.929
487.743
486.065
487.589
485.908
486.694
484.595
484.59
484.3
485.735
486.109
485.929
485.902
486.553
487.745
486.929
486.072
487.59
486.704
485.919
486.683
487.941
487.306
486.46
487.747
486.873
486.258
486.248
486.624
486.863
485.02
487.302
485.595
485.812
484.601
484.62
484.323
485.752
486.11
485.909
485.945
485.791
484.828
486.215
486.599
485.007
485.563
485.952
485.814
486.65
485.593
484.846
486.233
485.017
486
483.845
485.091
485.883
485.06
484.915
483.963
484.876
484.315
484.23
485.921
483.986
485.765
485.526
485.674
486.034
484.844
486.689
486.442
485.653
485.407
487.098
486.335
487.809
486.72
486.489
487.175
486.119
487.577
486.308
485.893
486.762
487.536
485.722
486.472
487.384
487.136
488.07
486.999
486.761
487.974
486.912
487.834
485.143
485.972
484.974
483.913
485.161
484.01
484.993
483.873
485.091
485.06
485.883
483.969
484.929
484.889
486.325
485.891
487.531
486.761
486.467
485.745
487.388
487.129
486.748
487.957
488.053
486.894
486.992
487.811
486.052
484.87
486.462
486.671
485.442
485.643
487.111
486.477
486.335
487.786
487.13
486.716
486.096
487.544
487.159
488.005
486.966
486.821
488.061
487.014
487.872
485.966
487.607
486.564
486.434
486.838
485.833
487.476
486.549
486.359
487.805
487.194
486.743
486.156
487.609
486.141
484.93
486.524
486.741
485.512
485.708
487.185
485.143
483.935
485.165
485.979
484.021
484.991
485.007
484.839
485.788
486.569
486.185
485.545
485.015
485.935
484.856
485.798
486.616
486.194
485.577
485.017
485.972
484.823
486.579
486.178
485.744
485.939
485.508
484.978
487.057
485.53
487.022
487.031
486.351
486.35
487.742
487.561
487.13
487.524
488.497
486.867
487.824
488.241
487.537
487.501
487.093
488.464
486.844
488.211
487.794
488.044
488.973
488.544
488.965
488.304
488.714
488.296
487.594
487.635
487.15
488.519
486.933
487.852
488.305
487.138
487.167
485.657
487.156
486.461
486.483
487.847
488.111
489
488.571
489.001
488.337
488.774
488.343
487.644
487.629
487.208
488.553
486.968
488.317
487.886
484.903
486.721
486.288
485.899
486.049
485.678
485.061
485.979
484.797
486.412
486.645
485.35
485.553
487.076
486.272
486.721
485.845
487.503
485.684
487.362
486.427
486.407
487.096
486.26
487.731
486.024
487.511
486.629
486.687
487.919
487.993
487.034
487.782
486.837
486.902
486.877
486.517
486.015
487.699
485.864
487.557
486.666
486.693
487.318
486.486
487.987
486.264
487.756
486.921
486.979
488.165
488.275
487.393
488.025
487.132
487.23
486.273
485.846
486.714
487.499
485.694
486.429
487.346
485.988
486.41
484.833
486.66
485.372
487.067
485.595
486.679
487.914
487.033
487.979
486.836
487.763
486.897
486.403
487.107
487.72
486.27
487.494
486.045
486.629
486.214
486.567
484.975
486.814
485.549
487.243
485.783
486.973
488.159
487.395
488.27
487.13
488.009
487.229
486.687
487.294
487.986
486.496
487.734
486.258
486.926
484.821
486.544
485.752
486.16
485.526
485.909
484.983
487.496
487.492
487.075
488.429
486.829
488.184
487.747
487.472
487.446
488.391
487.041
488.156
486.791
487.715
487.968
488.907
488.879
488.464
488.648
488.23
488.203
487.108
487.092
485.643
487.11
486.426
487.784
486.443
488.031
488.926
488.947
488.498
488.696
488.254
488.277
487.573
487.578
488.51
487.174
488.242
486.915
487.831
484.922
486.692
485.912
486.281
485.671
486.027
485.089
484.773
486.167
485.731
486.552
484.952
485.923
485.484
487.536
487.091
488.46
487.503
487.791
486.843
488.213
488.05
488.545
488.964
488.971
488.297
488.303
488.721
487.061
487.02
485.52
487.066
486.343
487.742
486.378
487.579
488.508
487.145
487.58
487.825
488.269
486.901
488.112
488.573
489.004
489.003
488.345
488.336
488.78
487.658
487.208
488.557
487.65
487.889
486.983
488.339
487.618
487.625
488.528
487.162
487.846
488.308
486.938
487.149
487.169
487.169
485.628
486.497
487.853
486.46
484.885
486.28
485.887
486.712
485.053
486.05
485.65
486.408
486.26
487.735
487.1
486.63
486.029
487.515
486.691
488.002
487.042
487.917
486.911
487.788
486.833
485.984
486.646
484.796
486.425
485.565
487.084
485.363
486.285
487.509
486.742
485.85
487.379
486.425
485.706
486.994
488.277
487.4
488.197
487.231
488.042
487.157
486.642
486.246
486.847
484.988
485.786
487.311
485.588
486.956
486.556
487.765
486.08
487.611
486.712
485.917
486.677
487.038
487.983
487.908
486.902
486.828
487.759
486.403
487.717
486.265
487.083
486.628
487.487
486.034
486.258
487.496
485.847
486.734
486.417
487.346
485.694
485.975
486.632
486.439
484.839
487.064
485.566
485.382
486.713
487.994
486.502
487.331
486.933
487.773
486.274
486.967
486.573
487.774
486.087
486.721
487.625
485.925
486.65
486.263
486.872
485.016
487.313
485.822
485.597
484.875
485.759
486.168
486.572
485.006
485.535
485.945
487.973
488.893
488.471
488.922
488.213
488.652
488.24
487.014
487.003
487.018
485.533
487.707
486.331
486.333
487.496
488.462
487.507
487.111
488.182
487.77
486.836
487.622
488.529
487.19
487.63
487.849
488.294
486.963
487.605
487.605
488.508
487.142
488.294
487.815
486.921
487.153
487.155
487.167
485.677
487.842
486.493
486.464
485.841
484.84
486.236
486.646
485.985
485.023
485.59
486.683
485.851
485.621
484.862
486.25
486.02
485.028
483.833
485.881
485.054
485.07
484.879
484.911
483.934
487.919
486.42
486.833
486.588
487.229
487.668
486.177
486.394
486.785
487.611
485.91
487.464
485.761
486.549
488.212
487.287
487.132
486.875
488.102
487.952
487.029
484.382
486.043
484.282
485.87
484.047
485.612
485.765
486.056
485.215
485.039
483.957
485.227
485.057
484.061
483.865
485.06
485.882
485.081
484.899
483.947
484.925
488.214
487.287
487.149
486.875
488.087
487.94
487.019
486.12
486.462
486.739
484.898
487.173
485.463
485.706
487.914
486.427
486.839
486.578
487.216
487.65
486.171
484.435
486.049
484.271
485.904
484.051
485.626
485.761
485.87
484.871
486.617
486.233
485.956
485.608
485.057
487.57
487.306
487.565
487.989
488.284
487.978
488.686
488.118
488.716
488.512
489.041
488.832
489.216
489.426
488.404
487.597
488.387
488.266
488.243
488.946
489.084
488.88
488.946
488.752
489.441
489.776
489.576
489.647
488.986
488.651
488.028
488.756
488.432
489.156
489.38
489.544
489.537
489.32
489.716
490.173
489.95
489.937
488.889
488.811
488.675
489.387
489.737
489.608
489.519
489.989
490.371
490.435
490.339
490.226
490.134
490.196
488.704
488.067
489.023
488.472
488.774
489.171
489.411
487.613
488.408
488.395
488.276
488.261
488.963
489.092
488.96
488.849
488.727
489.425
489.773
489.66
489.546
488.027
488.99
488.649
488.751
488.428
489.148
489.379
489.509
489.496
489.252
489.651
490.153
489.91
489.893
488.82
488.906
488.696
489.406
489.737
489.527
489.624
489.91
490.277
490.417
490.257
490.165
490.036
490.144
487.668
487.422
488.067
487.703
488.377
488.122
488.765
488.968
488.88
488.762
489.46
489.785
489.673
489.58
487.706
488.472
488.331
488.541
488.403
489.029
489.166
489.531
489.541
489.31
489.706
490.17
489.929
489.946
488.184
489.089
488.845
488.854
488.614
489.258
489.498
489.961
490.295
490.436
490.343
490.184
490.084
490.21
489.021
489.127
488.885
489.525
489.913
489.663
489.772
488.843
488.939
488.707
489.406
489.764
489.54
489.637
487.299
487.554
487.54
487.983
487.964
488.249
488.662
488.671
488.025
488.966
488.432
488.729
489.132
489.368
488.812
488.879
488.671
489.383
489.728
489.517
489.595
489.884
490.261
490.251
490.391
490.028
490.13
490.115
487.994
488.617
488.93
488.402
488.704
489.113
489.33
489.453
489.428
489.199
489.606
490.111
489.86
489.84
488.47
487.702
488.532
488.336
488.393
489.025
489.162
488.683
488.075
488.98
488.48
488.771
489.169
489.379
487.4
487.629
487.663
488.048
488.092
488.325
488.735
489.931
490.279
490.348
490.413
490.078
490.145
490.2
489.011
489.13
488.869
489.512
489.918
489.657
489.779
489.468
489.494
489.24
489.65
490.135
489.873
489.916
488.144
488.846
489.062
488.583
488.795
489.223
489.491
489.496
489.512
489.263
489.667
490.153
489.896
489.921
488.913
488.823
488.7
489.41
489.745
489.629
489.535
489.925
490.424
490.264
490.328
490.151
490.191
490.051
487.566
487.623
487.331
488.295
487.987
488.05
488.702
488.794
489.051
488.126
488.813
488.546
489.217
489.465
488.398
487.623
488.459
488.266
488.328
488.97
489.101
489.087
488.967
488.829
489.481
489.887
489.744
489.615
489.092
488.843
488.193
488.876
488.621
489.279
489.502
489.985
490.442
490.361
490.343
490.221
490.205
490.128
489.134
489.053
488.91
489.557
489.928
489.783
489.7
488.167
488.81
488.595
489.067
488.853
489.256
489.475
487.704
487.489
488.143
487.726
488.401
488.173
488.818
489.1
489.031
488.885
489.535
489.899
489.755
489.685
487.797
488.596
488.444
488.612
488.468
489.106
489.252
489.887
490.256
490.408
490.318
490.125
490.032
490.168
488.618
488.942
487.995
488.4
488.718
489.118
489.341
489.44
489.469
489.199
489.609
490.127
489.852
489.886
488.385
488.448
487.603
488.247
488.305
488.951
489.087
489.087
488.951
488.807
489.452
489.88
489.597
489.735
487.538
487.314
487.589
487.967
488.257
488.022
488.669
488.787
489.017
488.081
488.739
488.519
489.164
489.444
489.146
489.061
488.922
489.568
489.938
489.801
489.708
489.515
489.517
489.293
489.707
490.16
489.941
489.925
488.861
489.079
488.194
488.636
488.843
489.278
489.511
489.041
489.102
488.897
489.55
489.899
489.694
489.758
488.601
487.805
488.454
488.62
488.481
489.121
489.261
488.815
488.181
488.616
489.06
488.847
489.264
489.477
487.503
487.732
488.166
487.731
488.177
488.395
488.823
481.643
479.568
477.896
481.792
479.736
478.093
481.725
479.652
478.007
481.808
479.729
478.057
481.501
479.441
477.787
481.496
479.461
477.842
481.51
479.474
477.869
482.101
480.149
478.591
482.295
480.37
478.85
484.122
482.436
480.998
481.516
479.458
477.805
484.052
482.363
480.923
483.713
481.924
480.404
483.446
481.583
480.043
481.735
479.656
477.971
481.465
479.37
477.677
482
480.046
478.485
482.212
480.29
478.771
484.861
483.607
482.663
483.7
481.915
480.399
483.442
481.577
480.03
481.437
479.389
477.755
481.472
479.421
477.812
481.416
479.321
477.625
481.402
479.288
477.571
481.399
479.286
477.571
481.38
479.272
477.559
481.427
479.332
477.636
481.86
479.806
478.169
481.892
479.831
478.177
481.787
479.717
478.077
481.858
479.889
478.344
481.941
479.99
478.448
481.377
479.269
477.556
481.392
479.302
477.61
481.43
479.347
477.667
481.483
479.424
477.767
481.385
479.279
477.57
481.413
479.314
477.618
481.436
479.328
477.62
481.413
479.313
477.616
481.406
479.316
477.625
482.145
480.095
478.441
483.393
481.53
479.981
482.139
480.094
478.444
483.427
481.562
480.013
481.448
479.39
477.768
481.453
479.39
477.763
481.798
479.731
478.042
481.471
479.422
477.802
481.494
479.435
477.792
481.513
479.455
477.834
481.49
479.444
477.837
481.473
479.424
477.817
481.875
479.904
478.357
481.976
480.025
478.5
481.511
479.467
477.846
481.539
479.495
477.886
482.29
480.366
478.85
483.724
482.052
480.664
483.49
481.751
480.35
483.756
482.082
480.695
483.512
481.771
480.366
484.936
483.668
482.72
484.953
483.682
482.728
483.385
481.514
479.964
482.062
480.016
478.364
483.449
481.586
480.049
481.989
479.926
478.253
482.179
480.135
478.487
481.355
479.247
477.531
481.518
479.444
477.792
481.838
479.754
478.073
481.442
479.33
477.62
481.379
479.291
477.599
481.834
479.86
478.308
482.005
480.057
478.544
481.965
479.979
478.395
481.467
479.372
477.679
482.214
480.294
478.78
483.7
482.028
480.639
483.471
481.728
480.324
484.107
482.514
481.187
484.086
482.497
481.174
483.419
481.669
480.274
483.587
481.881
480.482
484.085
482.479
481.15
482.11
480.159
478.604
482.297
480.374
478.852
483.759
482.084
480.697
483.516
481.779
480.379
484.853
483.607
482.677
484.861
483.609
482.67
484.935
483.666
482.714
484.952
483.68
482.725
483.35
481.479
479.928
482.05
480.006
478.355
483.378
481.513
479.993
483.362
481.494
479.959
481.981
479.919
478.25
482.163
480.119
478.467
481.356
479.248
477.532
481.696
479.628
477.972
481.766
479.698
478.051
481.51
479.437
477.792
481.442
479.33
477.619
481.375
479.287
477.595
481.954
479.965
478.375
481.538
479.478
477.846
481.839
479.861
478.311
482.034
480.079
478.553
481.902
479.923
478.367
483.661
481.99
480.598
483.425
481.687
480.285
484.1
482.51
481.187
484.075
482.469
481.14
484.085
482.497
481.178
483.43
481.683
480.289
483.607
481.908
480.517
483.402
481.655
480.256
482.303
480.381
478.869
483.525
481.789
480.389
484.852
483.604
482.669
483.415
481.548
480.001
481.937
479.877
478.209
482.155
480.107
478.452
481.965
479.906
478.236
482.167
480.123
478.48
481.459
479.391
477.76
481.436
479.373
477.722
481.454
479.388
477.764
481.474
479.416
477.77
481.495
479.439
477.816
481.495
479.437
477.793
481.498
479.439
477.815
481.406
479.362
477.728
481.443
479.4
477.791
481.938
479.99
478.465
481.529
479.486
477.882
481.521
479.478
477.866
483.755
482.085
480.704
483.506
481.767
480.362
482.074
480.121
478.561
482.282
480.359
478.847
483.499
481.761
480.361
482.291
480.367
478.851
481.47
479.392
477.729
481.572
479.505
477.913
481.408
479.371
477.8
481.29
479.245
477.609
481.451
479.371
477.697
481.567
479.502
477.912
481.415
479.341
477.685
481.398
479.325
477.672
481.4
479.346
477.71
481.573
479.558
478.014
481.575
479.562
477.968
481.632
479.627
478.091
481.456
479.385
477.733
481.556
479.492
477.913
481.295
479.24
477.604
481.427
479.374
477.799
481.387
479.297
477.596
481.335
479.258
477.569
481.446
479.364
477.683
481.497
479.441
477.788
481.445
479.386
477.748
481.54
479.533
477.999
481.585
479.577
477.992
481.631
479.631
478.1
481.982
479.924
478.283
481.687
479.616
477.986
481.95
479.894
478.259
481.707
479.635
478.011
481.791
479.794
478.241
482.048
480.096
478.583
481.431
479.361
477.713
481.553
479.489
477.899
481.453
479.397
477.815
481.29
479.236
477.601
481.403
479.312
477.608
481.345
479.267
477.579
481.443
479.404
477.761
481.357
479.295
477.627
481.61
479.61
478.073
481.519
479.523
477.957
481.64
479.65
478.129
481.899
479.847
478.204
481.622
479.54
477.904
481.843
479.784
478.145
482
479.951
478.301
481.617
479.54
477.872
481.709
479.643
478.013
481.589
479.516
477.855
481.563
479.519
477.853
481.606
479.566
477.935
481.59
479.574
477.998
481.553
479.533
477.937
481.727
479.721
478.175
481.658
479.646
478.045
481.643
479.625
478.029
481.575
479.538
477.922
482.423
480.515
478.997
482.487
480.593
479.107
482.63
480.758
479.269
482.357
480.443
478.933
482.191
480.26
478.746
482.253
480.329
478.815
482.062
480.115
478.584
482.173
480.237
478.747
482.478
480.581
479.056
482.718
480.852
479.357
482.756
480.893