/*--------------------------------*- C++ -*----------------------------------*\
| =========                 |                                                 |
| \\      /  F ield         | OpenFOAM: The Open Source CFD Toolbox           |
|  \\    /   O peration     | Version:  v1912                                 |
|   \\  /    A nd           | Website:  www.openfoam.com                      |
|    \\/     M anipulation  |                                                 |
\*---------------------------------------------------------------------------*/
FoamFile
{
    version     2.0;
    format      ascii;
    class       volScalarField;
    location    "128/oil";
    object      heatTransferCoeff(T);
}
// * * * * * * * * * * * * * * * * * * * * * * * * * * * * * * * * * * * * * //

dimensions      [1 0 -3 -1 0 0 0];


internalField   uniform 0;

boundaryField
{
    maxY
    {
        type            calculated;
        value           uniform 0;
    }
    minX
    {
        type            calculated;
        value           uniform 0;
    }
    maxX
    {
        type            calculated;
        value           uniform 0;
    }
    minY
    {
        type            calculated;
        value           uniform 0;
    }
    minZ
    {
        type            calculated;
        value           uniform 0;
    }
    maxZ
    {
        type            calculated;
        value           uniform 0;
    }
    oil_to_sphere
    {
        type            calculated;
        value           nonuniform List<scalar> 
1536
(
-95.4933
-93.0789
-93.1516
-88.454
-88.0955
-92.841
-90.969
-91.5938
-91.2976
-88.7168
-87.0381
-88.9953
-91.2204
-89.2309
-86.2228
-90.6073
-92.8925
-93.2716
-90.4523
-91.1178
-92.2293
-91.2888
-91.5341
-90.5863
-90.8587
-90.7083
-90.7611
-90.2686
-92.8366
-91.4916
-93.5627
-93.0591
-93.1929
-90.5459
-90.7239
-90.2235
-90.3887
-89.6413
-90.1735
-90.6966
-90.0428
-90.4492
-91.2227
-91.8232
-92.4555
-90.6682
-92.5695
-91.8508
-86.2724
-90.7566
-92.0096
-91.3638
-91.7745
-90.502
-92.7442
-94.4924
-91.4501
-91.1337
-92.2494
-91.9006
-91.2147
-91.1745
-91.2088
-90.4576
-90.76
-91.0836
-91.0984
-92.1103
-92.0001
-92.6482
-90.4461
-88.5192
-89.1611
-90.7241
-90.6581
-94.6231
-93.1898
-89.9153
-90.6187
-93.2485
-92.2576
-91.9985
-88.2734
-88.1682
-92.817
-95.1077
-87.9167
-90.8902
-91.9537
-91.9127
-91.4796
-90.2917
-90.2994
-90.387
-90.6927
-91.7721
-92.4048
-92.5194
-93.3256
-91.8532
-92.3041
-90.3933
-95.6291
-92.0869
-89.0766
-90.6468
-90.7865
-88.6738
-88.7372
-95.7867
-93.1436
-91.6699
-91.1697
-91.6232
-87.9749
-88.4077
-87.5758
-94.0396
-95.3525
-93.3619
-91.4259
-91.6093
-90.1474
-92.3388
-93.476
-92.0784
-91.3202
-89.9647
-92.4854
-92.1073
-91.1212
-92.0225
-92.6867
-90.7319
-90.9552
-92.7146
-91.6148
-93.2967
-90.0347
-92.9086
-91.2833
-92.1138
-92.1238
-91.2449
-90.9275
-91.2006
-91.605
-94.9234
-92.0878
-95.7214
-92.4746
-93.9708
-91.4275
-91.6026
-90.453
-92.5276
-92.5725
-93.0682
-96.3623
-94.5504
-93.1283
-95.2095
-89.0402
-89.4655
-90.3311
-90.2137
-92.4793
-94.2917
-93.1216
-95.0648
-90.3882
-90.5617
-90.0219
-92.5256
-91.9332
-91.9771
-94.8937
-90.7758
-90.9123
-95.0302
-89.9746
-89.4249
-89.4103
-89.6041
-92.9239
-95.1573
-94.602
-90.2498
-89.5817
-93.2473
-89.7949
-92.8111
-92.6759
-93.7931
-88.9905
-85.9572
-93.7646
-94.034
-91.4496
-90.534
-91.439
-90.9145
-93.3744
-93.765
-92.5219
-92.0392
-90.8178
-94.1394
-93.459
-92.6676
-89.9068
-90.736
-90.6411
-91.4177
-92.6285
-94.7605
-90.6759
-89.1665
-89.1938
-85.7556
-93.0578
-92.4687
-91.9504
-91.5006
-91.6647
-94.3092
-92.849
-91.2353
-93.1153
-88.8801
-90.2892
-86.1968
-91.1186
-93.3623
-93.7779
-93.6528
-92.9414
-92.3883
-93.2682
-89.0254
-89.3448
-91.0132
-94.0153
-89.9321
-86.4882
-87.5613
-92.3903
-92.3945
-95.3048
-97.0923
-91.7062
-88.3053
-85.7196
-91.8985
-94.2569
-90.3751
-90.453
-87.7117
-90.2788
-94.2646
-95.3905
-91.5888
-90.5377
-94.195
-94.8495
-90.6619
-88.6083
-91.5272
-94.8354
-94.1993
-92.3996
-92.7209
-93.6456
-89.5298
-90.5218
-93.8267
-92.7193
-93.8308
-91.3101
-93.2013
-94.7236
-92.6604
-92.4318
-94.1768
-90.6029
-90.4806
-90.8995
-90.0029
-90.3019
-93.8613
-94.8002
-90.7271
-90.9327
-90.8206
-91.0422
-90.2626
-91.8009
-91.4039
-89.8249
-87.8417
-90.205
-89.009
-89.9793
-95.2116
-94.2565
-94.2798
-97.143
-89.2232
-89.4095
-92.2711
-95.6616
-96.2517
-90.4261
-91.4231
-90.2586
-92.669
-90.6152
-92.3661
-92.578
-93.4785
-92.6907
-90.9808
-92.9172
-90.1204
-93.7009
-94.0411
-93.0543
-92.9198
-89.672
-94.9815
-95.1898
-93.1756
-88.8761
-90.5981
-91.1795
-92.6101
-92.3458
-92.5414
-89.6109
-93.6684
-94.6367
-93.3326
-94.2517
-92.0763
-91.8987
-91.321
-89.4166
-92.1017
-92.7755
-89.3361
-89.0926
-89.553
-95.6135
-93.7697
-94.3526
-92.1941
-91.9253
-94.1769
-89.1652
-95.1057
-93.3687
-91.8255
-91.8756
-89.0856
-93.6751
-93.6806
-89.8807
-91.7987
-91.1725
-90.6086
-92.7553
-93.6232
-91.2327
-90.8113
-89.4015
-94.734
-93.68
-89.147
-94.243
-94.0557
-93.1094
-94.672
-91.7745
-92.8657
-88.9958
-88.8695
-92.6282
-96.6957
-93.2593
-95.5888
-92.3763
-90.9115
-93.322
-89.7754
-90.5813
-92.6681
-93.5781
-92.8065
-92.1473
-89.9483
-89.5291
-93.8883
-94.576
-93.7024
-91.894
-90.5023
-92.3766
-92.885
-93.4128
-91.9978
-91.1405
-90.1281
-91.7302
-89.7414
-88.7034
-90.3735
-90.0711
-91.6902
-88.6024
-90.8778
-95.4287
-90.8325
-90.8038
-93.6256
-93.5077
-92.576
-91.205
-89.1803
-93.2168
-94.2556
-92.5265
-92.1507
-93.1111
-91.5445
-91.6574
-92.178
-88.2865
-93.1027
-94.5624
-94.3962
-93.4268
-92.9694
-92.6192
-91.9796
-91.2504
-89.7553
-91.5802
-89.9054
-89.0717
-90.077
-88.5228
-95.2954
-94.985
-93.9668
-96.6407
-90.7121
-95.2272
-89.5158
-89.9601
-92.857
-90.8101
-89.4804
-90.8983
-90.6014
-95.0883
-94.4036
-92.163
-92.421
-94.7019
-93.9398
-91.9187
-92.918
-89.8534
-93.5434
-88.7752
-94.3929
-88.2438
-93.1891
-93.3596
-93.5148
-90.9521
-89.408
-91.0869
-93.5594
-91.2033
-88.6626
-93.7646
-93.7831
-94.8837
-95.8855
-92.8268
-94.3223
-89.1936
-89.5299
-86.4934
-87.3155
-91.6951
-90.7255
-90.5165
-90.1323
-95.3422
-90.9633
-88.927
-88.5212
-91.5429
-89.6458
-96.4052
-90.1847
-90.328
-91.7291
-87.0453
-87.5599
-90.3778
-90.3198
-91.1154
-90.7438
-93.7517
-93.4244
-92.6381
-91.8837
-88.5061
-90.599
-93.6415
-89.6981
-89.8297
-93.0809
-94.6381
-90.0061
-86.915
-89.3454
-87.103
-91.4382
-90.8552
-90.3085
-89.007
-86.6418
-92.9627
-93.1699
-92.2451
-91.6352
-94.9074
-92.9766
-92.4605
-91.9887
-89.6518
-90.527
-93.7871
-92.767
-90.9229
-87.4177
-91.9395
-94.1349
-95.0167
-92.0323
-91.3668
-94.7156
-92.5187
-94.316
-89.7518
-90.4787
-89.4191
-90.7736
-91.8016
-94.4331
-92.0901
-89.8768
-89.6013
-91.8707
-96.1831
-89.7234
-90.5752
-88.9068
-92.1061
-91.8054
-93.957
-94.7092
-89.7666
-88.7957
-94.8335
-95.4494
-87.924
-95.121
-94.1975
-93.2845
-94.4324
-92.6876
-91.9857
-91.9014
-94.8151
-92.0048
-92.5502
-91.7859
-93.4364
-92.1843
-91.5888
-91.4658
-89.2139
-93.1274
-92.0635
-93.4618
-93.0239
-93.17
-92.7685
-92.0796
-88.9606
-93.9912
-94.0754
-92.7538
-91.5618
-92.2222
-95.6896
-89.9362
-89.6783
-89.1702
-92.7486
-91.2307
-95.6416
-90.958
-91.2481
-91.9567
-86.7902
-86.7919
-90.4635
-90.3881
-91.6055
-89.3713
-89.8572
-93.0239
-91.0747
-94.6588
-90.6242
-95.3995
-92.1489
-92.7187
-87.3424
-86.7802
-86.3642
-90.414
-93.236
-90.727
-90.3432
-86.9883
-91.5452
-93.7994
-91.5539
-97.6827
-89.9087
-93.717
-93.561
-93.1213
-94.1827
-94.3258
-93.409
-91.8231
-91.2562
-91.6078
-93.2399
-91.2732
-92.2483
-92.2576
-92.2965
-93.5012
-92.8076
-93.2041
-89.4889
-89.9027
-85.9414
-87.6197
-88.568
-84.4674
-90.6198
-90.7658
-91.2474
-91.6205
-88.5921
-89.2677
-90.9254
-94.2394
-94.3327
-90.8924
-88.7133
-91.2942
-93.5931
-93.3055
-91.5416
-88.7134
-89.8994
-92.7558
-92.5256
-91.5076
-90.738
-92.9661
-93.1611
-94.7419
-93.0578
-91.9657
-90.7525
-89.7954
-89.0373
-91.428
-92.1745
-95.7958
-91.6709
-95.4231
-91.2589
-96.1753
-90.4927
-91.2818
-89.5778
-89.9454
-90.7248
-89.4237
-91.2218
-88.5897
-90.5013
-93.976
-90.8937
-89.2007
-95.003
-93.0281
-92.2983
-91.6087
-95.3616
-97.5952
-87.8583
-92.8194
-92.7257
-92.581
-89.5104
-91.532
-90.2843
-92.4369
-93.6114
-93.7668
-89.7821
-92.8199
-92.0269
-92.9
-92.8193
-92.367
-91.1552
-91.4265
-90.6984
-88.7915
-88.5293
-89.6011
-94.3952
-90.5454
-89.0657
-90.5943
-93.8917
-91.114
-94.5026
-93.5984
-92.5575
-91.9731
-92.5961
-94.9661
-89.5863
-92.7005
-94.1852
-94.1464
-92.0528
-90.1474
-91.2647
-92.6659
-94.2401
-89.5259
-91.4466
-92.0701
-93.7791
-92.3443
-92.7902
-94.5767
-89.5104
-90.3117
-89.9941
-95.0671
-93.8058
-91.7838
-93.7874
-90.2632
-90.6222
-93.774
-92.9459
-94.6327
-89.6297
-93.2823
-93.6817
-91.9748
-92.4319
-93.1939
-89.9356
-88.3036
-91.6394
-92.8654
-95.632
-91.3898
-90.5567
-91.5274
-92.4718
-93.3058
-91.8237
-90.2829
-91.3648
-93.5631
-90.2074
-89.9682
-91.2792
-90.4606
-92.1978
-91.9443
-94.0997
-92.6859
-93.3183
-90.6687
-91.6645
-92.1788
-91.4257
-91.0253
-90.7876
-90.6609
-89.6281
-92.9371
-92.1313
-92.0092
-92.6264
-88.7633
-90.8009
-95.0465
-94.9917
-90.1799
-93.8256
-92.4727
-92.7572
-90.7786
-94.2781
-93.9442
-89.509
-91.0565
-90.7936
-90.736
-89.0251
-89.2285
-90.7729
-94.0673
-96.4411
-90.4176
-93.2212
-92.9216
-92.3413
-91.2709
-92.1967
-94.1671
-92.7342
-89.6178
-90.8221
-90.6333
-91.0246
-92.6287
-93.2194
-92.987
-93.0432
-93.2306
-90.3564
-93.1004
-90.9367
-93.0222
-86.716
-92.6622
-94.237
-91.0198
-87.8818
-92.0751
-91.5677
-95.1273
-90.0659
-93.1141
-91.6589
-88.294
-95.0276
-89.2412
-91.3252
-91.5836
-88.881
-93.8782
-92.0606
-91.3783
-92.3637
-92.0568
-91.1502
-95.1899
-89.4275
-90.7752
-86.4157
-91.9507
-90.9079
-91.6633
-93.857
-97.5007
-88.9682
-90.9087
-96.5427
-89.3164
-93.0125
-90.2253
-92.7637
-88.0423
-90.2003
-96.4556
-88.1332
-96.5047
-88.501
-95.1172
-88.616
-90.0227
-87.0233
-89.6967
-96.0804
-87.2589
-92.0144
-88.2032
-95.0418
-96.0958
-87.4361
-91.8618
-90.1415
-89.587
-89.4217
-90.6528
-91.6204
-91.6648
-92.6235
-91.4294
-94.7303
-96.696
-87.4532
-92.5347
-92.2637
-91.5841
-91.8898
-91.3822
-91.3097
-91.3401
-93.3239
-91.5315
-93.2706
-90.8112
-92.2178
-94.3309
-90.9493
-92.5197
-93.718
-90.7213
-92.2222
-91.5807
-92.6369
-91.2727
-92.0261
-91.077
-93.5648
-90.8522
-92.2165
-88.5825
-95.0807
-87.4678
-93.0942
-93.7028
-94.6117
-90.0564
-91.9093
-91.3722
-91.7775
-92.1234
-91.5851
-93.331
-89.734
-85.8032
-92.6085
-87.9532
-94.1528
-90.1626
-91.6391
-93.7939
-85.9627
-95.4327
-90.2244
-86.9595
-90.6973
-92.9207
-92.7061
-91.9101
-87.1365
-92.0682
-92.4013
-90.3979
-90.104
-94.1718
-93.8697
-90.7423
-91.6404
-94.174
-87.2971
-93.766
-90.0891
-92.6414
-87.5483
-96.7332
-95.4261
-93.4942
-91.9221
-91.4841
-93.222
-91.2787
-87.1017
-89.5335
-93.0191
-90.191
-93.2106
-87.7992
-94.1548
-93.1007
-84.6096
-92.1195
-92.2847
-86.1602
-95.2824
-88.4657
-94.0988
-95.0443
-93.4552
-86.5574
-91.9633
-91.2394
-92.0871
-92.1108
-92.8734
-87.2325
-91.0019
-90.1311
-90.1869
-94.1382
-91.7695
-92.9256
-92.7003
-92.6883
-91.2047
-91.902
-91.3358
-92.1987
-93.9608
-90.5958
-91.1148
-90.4085
-92.2743
-93.7056
-90.6116
-90.9222
-90.7222
-91.7703
-90.1942
-90.2909
-90.9644
-91.1447
-91.88
-91.2719
-94.6026
-93.5891
-87.886
-88.3883
-94.8395
-84.3633
-93.0131
-92.4125
-90.3395
-91.2326
-95.2662
-86.1154
-93.7381
-92.7623
-86.8018
-90.8775
-90.6193
-92.2295
-85.8474
-94.1741
-93.1924
-85.8856
-93.938
-94.3996
-87.414
-94.6011
-93.88
-87.4902
-90.5514
-90.2815
-86.2224
-91.6903
-91.9893
-90.0526
-90.0546
-90.711
-85.2866
-89.8827
-86.9038
-85.1113
-93.7374
-90.1314
-96.0001
-90.9919
-87.171
-94.0532
-92.0638
-86.4656
-90.6724
-90.6295
-86.4155
-88.2227
-95.3624
-83.653
-89.5898
-90.3945
-84.7113
-93.9168
-93.3923
-91.6856
-90.8686
-90.7116
-89.4989
-85.4561
-91.7497
-90.8158
-91.0062
-91.7013
-86.6484
-93.4651
-90.5386
-91.4239
-90.2546
-91.3173
-91.8679
-89.51
-86.8985
-90.9556
-92.7491
-90.452
-90.94
-91.6474
-90.0334
-91.0939
-86.7013
-90.8533
-93.1105
-90.2887
-91.2448
-90.1049
-87.0475
-94.8373
-94.9196
-93.9581
-95.1232
-87.3574
-86.102
-91.074
-93.9589
-91.9681
-92.9778
-93.3568
-89.5795
-88.9806
-86.8175
-87.8654
-89.8907
-91.4486
-91.2895
-91.1813
-89.2502
-93.6044
-92.5116
-87.5275
-89.559
-89.5135
-93.2928
-90.0097
-85.5699
-92.7157
-91.5243
-93.7547
-86.4937
-90.9006
-92.5638
-90.7156
-91.108
-92.9515
-91.4385
-89.5197
-95.041
-84.6506
-89.7196
-91.8438
-90.1012
-90.8091
-94.8423
-92.6946
-91.8867
-88.8846
-94.4084
-90.8107
-91.9039
-93.3216
-93.8107
-93.5748
-93.7875
-94.7617
-95.2056
-94.5197
-94.5251
-92.609
-93.5331
-90.5655
-91.185
-89.3753
-88.3905
-85.1298
-94.9248
-94.7418
-94.0023
-90.9789
-91.8906
-91.7502
-90.1325
-92.1128
-93.4362
-89.7137
-91.2782
-92.8177
-90.6133
-90.6355
-90.4605
-90.9571
-89.9124
-90.8578
-90.6796
-87.5209
-92.5264
-89.8566
-91.2264
-86.3046
-95.3227
-91.3735
-90.2409
-89.8892
-87.7523
-91.7071
-90.3283
-86.1507
-89.0587
-91.263
-88.5255
-88.8107
-95.2126
-95.5358
-90.7579
-90.7494
-93.1658
-94.7076
-86.0528
-90.7879
-89.9815
-90.7952
-90.8108
-90.9989
-91.3679
-89.1136
-86.9072
-94.6375
-90.7859
-88.6233
-89.0533
-90.6387
-91.6577
-87.874
-91.7144
-90.3442
-90.5516
-94.7384
-88.7449
-87.1849
-90.9645
-90.4153
-90.0455
-86.9902
-94.0703
-90.7732
-90.4848
-90.6726
-86.1518
-90.9857
-90.8005
-87.3004
-90.8886
-89.0108
-92.3456
-94.0426
-90.2818
-93.337
-92.1092
-90.2073
-90.2182
-90.8813
-87.0751
-92.5936
-92.9742
-90.4809
-86.5896
-89.4844
-91.1762
-91.3217
-90.2234
-86.8757
-90.3458
-93.7399
-92.3777
-90.5496
-95.1701
-88.563
-93.8122
-86.1686
-88.553
-94.1082
-86.3375
-93.7069
-90.7551
-91.6475
-90.5858
-95.6556
-89.1471
-91.63
-94.5965
-94.629
-87.7737
-94.1531
-94.812
-84.5543
-92.3338
-90.2959
-86.2803
-93.4774
-90.2384
-90.5261
-90.5445
-91.3835
-91.0349
-90.4525
-90.3289
-86.0779
-93.1588
-91.822
-91.4969
-91.8288
-90.9512
-90.1471
-89.5034
-93.7433
-85.5452
-89.9001
-90.8631
-86.0171
-93.6401
-94.8853
-92.2334
-94.0787
-94.6537
-89.749
-91.6077
-92.4666
-94.0615
-90.0158
-92.8299
-89.0558
-86.6107
-93.6071
-89.3916
-93.726
-95.4069
-94.6412
-86.5147
-93.8195
-92.208
-89.7204
-90.4347
-90.8727
-90.3211
-86.5903
-94.6808
-86.6813
-94.602
-90.919
-89.0795
-89.3193
-91.6046
-92.7775
-94.8844
-91.4858
-95.6106
-93.5739
-93.6179
-86.7539
-93.5411
-92.9405
-93.8834
-90.148
-89.6998
-85.7745
-91.2185
-95.4646
-94.3228
-86.7404
-89.1969
-87.2992
-90.1216
-91.3309
-88.9272
-97.2806
-90.5918
-89.1338
-86.954
-92.3938
-89.8249
-85.5612
-91.5083
-90.3577
-90.3052
-90.4521
-90.4912
-87.0191
-88.8482
-86.3025
-90.6185
-93.8369
-92.3884
-94.3381
-93.9561
-89.9117
-89.3761
-86.3083
-89.896
-93.4249
-94.3061
-93.5375
-93.2919
-88.5886
-86.0311
-89.1889
-85.5705
-93.1799
-93.4686
-89.4654
-93.5035
-93.4038
-94.0773
-92.7078
-91.6709
-91.5691
-89.9069
-85.8299
-89.4098
-86.7161
-89.3708
-90.4524
-90.1996
-87.4212
-86.5139
-92.7338
-95.3943
-95.4636
-94.679
-91.5151
-92.4985
-92.4439
-91.4904
-90.5144
-91.3331
-89.5937
-90.9585
-90.9758
-86.4663
-93.6572
-90.8708
-89.2469
-87.4003
-90.5718
-91.422
-91.3897
-90.2534
-87.4354
-94.592
-92.1666
-90.3624
-95.0773
-89.6131
-86.2983
-93.0373
-91.1005
-91.0039
-90.9541
-90.2052
-85.3377
-91.7905
-90.9183
-86.7271
-95.0382
-90.7358
-83.9539
-90.4328
-91.2842
-91.4616
-90.1599
-86.6192
-89.9543
-90.0922
-88.2592
-91.0218
-86.1727
-91.228
-91.0912
-87.9591
-95.4978
-90.8794
-87.328
-96.3612
-91.2774
-91.3122
-87.3259
-91.0508
-86.7297
)
;
    }
}


// ************************************************************************* //
