/*--------------------------------*- C++ -*----------------------------------*\
| =========                 |                                                 |
| \\      /  F ield         | OpenFOAM: The Open Source CFD Toolbox           |
|  \\    /   O peration     | Version:  v1912                                 |
|   \\  /    A nd           | Website:  www.openfoam.com                      |
|    \\/     M anipulation  |                                                 |
\*---------------------------------------------------------------------------*/
FoamFile
{
    version     2.0;
    format      ascii;
    class       surfaceScalarField;
    location    "45/oil";
    object      phi;
}
// * * * * * * * * * * * * * * * * * * * * * * * * * * * * * * * * * * * * * //

dimensions      [1 0 -1 0 0 0 0];
oriented        oriented;


internalField   nonuniform List<scalar> 
80688
(
-2.29496e-06
-2.60693e-06
-2.29402e-06
-1.36507e-06
-6.58417e-07
-2.71475e-07
9.19547e-07
-1.20093e-06
-1.08369e-06
1.12949e-07
3.64903e-07
4.41695e-07
3.82153e-07
-1.70483e-07
-9.87219e-08
2.82124e-07
1.91679e-08
8.08612e-08
3.50139e-07
-5.93497e-08
-8.66493e-09
3.3711e-07
-1.26928e-08
2.57215e-08
3.41742e-07
-1.53704e-08
1.07385e-08
3.09245e-07
8.95742e-09
2.35393e-08
2.70017e-07
1.7796e-08
2.1432e-08
2.07941e-07
3.35438e-08
2.85318e-08
1.36549e-07
4.19763e-08
2.94161e-08
5.632e-08
4.82482e-08
3.19802e-08
-3.11629e-08
5.34894e-08
3.39934e-08
-1.12232e-07
4.931e-08
3.17589e-08
-1.97835e-07
5.09105e-08
3.46922e-08
-2.62518e-07
3.67525e-08
2.79302e-08
-3.27617e-07
3.41025e-08
3.09961e-08
-3.60791e-07
1.21272e-08
2.1047e-08
-3.90753e-07
5.79976e-09
2.41624e-08
-3.84288e-07
-1.95418e-08
1.30765e-08
-3.72867e-07
-2.77163e-08
1.62952e-08
-3.27299e-07
-5.24837e-08
6.91488e-09
-2.77712e-07
-6.06684e-08
1.10819e-08
-2.03675e-07
-8.03988e-08
6.36139e-09
-1.31768e-07
-8.46764e-08
1.2769e-08
-5.73334e-08
-8.82696e-08
1.38347e-08
-8.08512e-09
-6.4144e-08
1.48955e-08
-1.29215e-08
4.83625e-09
-3.36707e-07
-1.93458e-06
-3.3564e-07
5.65121e-07
5.38037e-08
-1.61405e-06
-2.10825e-07
-6.31779e-07
2.06799e-07
3.83274e-07
-2.65866e-07
3.66699e-08
4.44333e-07
-3.70218e-07
1.38676e-07
6.1198e-07
-2.83001e-07
1.34522e-07
6.81972e-07
-2.67701e-07
1.38359e-07
7.19615e-07
-2.07445e-07
1.57109e-07
7.14858e-07
-1.72711e-07
1.62098e-07
6.61466e-07
-1.19171e-07
1.8152e-07
5.75799e-07
-8.53663e-08
1.88829e-07
4.50685e-07
-4.51198e-08
2.03778e-07
3.01241e-07
-1.92371e-08
2.10658e-07
1.32757e-07
-3.4661e-11
2.16766e-07
-4.82654e-08
1.25948e-08
2.21917e-07
-2.21955e-07
4.87019e-09
2.1813e-07
-3.96867e-07
4.99416e-09
2.20828e-07
-5.38067e-07
-3.00036e-08
2.07956e-07
-6.6794e-07
-4.35301e-08
2.07506e-07
-7.45952e-07
-9.70967e-08
1.87236e-07
-8.03998e-07
-1.20827e-07
1.84674e-07
-8.02052e-07
-1.83691e-07
1.62202e-07
-7.7711e-07
-2.1222e-07
1.59562e-07
-6.96483e-07
-2.72978e-07
1.39868e-07
-5.97106e-07
-2.99593e-07
1.39547e-07
-4.58576e-07
-3.46661e-07
1.27731e-07
-3.15733e-07
-3.58519e-07
1.31e-07
-1.68264e-07
-3.59783e-07
1.24044e-07
-5.35798e-08
-2.84702e-07
1.05874e-07
-1.1576e-07
4.92586e-08
-1.13174e-06
3.27362e-07
-1.1302e-06
-1.61069e-07
-1.11171e-06
1.94846e-07
2.1133e-07
-8.24602e-07
-1.79576e-07
4.16196e-07
-7.40317e-07
2.69584e-07
6.49474e-07
-7.19207e-07
1.15711e-07
7.48869e-07
-6.03265e-07
2.20868e-07
8.53554e-07
-5.58127e-07
1.85742e-07
8.74994e-07
-4.53525e-07
2.2464e-07
8.7072e-07
-3.91763e-07
2.23326e-07
8.00376e-07
-2.97732e-07
2.48906e-07
6.97106e-07
-2.37806e-07
2.55709e-07
5.44694e-07
-1.6692e-07
2.74211e-07
3.65507e-07
-1.21793e-07
2.81743e-07
1.63346e-07
-8.868e-08
2.90807e-07
-5.33452e-08
-6.62831e-08
2.95569e-07
-2.62187e-07
-7.88799e-08
2.92592e-07
-4.70483e-07
-8.16366e-08
2.94926e-07
-6.41814e-07
-1.38475e-07
2.79803e-07
-7.97497e-07
-1.66157e-07
2.78309e-07
-8.93391e-07
-2.56625e-07
2.55422e-07
-9.62987e-07
-3.02991e-07
2.51759e-07
-9.63611e-07
-4.09401e-07
2.26334e-07
-9.34585e-07
-4.64001e-07
2.22754e-07
-8.41461e-07
-5.66784e-07
2.00683e-07
-7.2405e-07
-6.16928e-07
1.99923e-07
-5.61744e-07
-6.95606e-07
1.86639e-07
-3.92301e-07
-7.17303e-07
1.8934e-07
-2.16219e-07
-7.14666e-07
1.78801e-07
-7.25674e-08
-5.78216e-07
1.49862e-07
-2.56279e-07
6.79516e-08
4.61517e-07
-5.97077e-07
4.62922e-07
2.70957e-07
-9.94141e-07
7.29861e-08
3.77729e-07
-1.22961e-06
2.98231e-07
5.93456e-07
-1.16256e-06
2.06519e-07
7.54613e-07
-1.12831e-06
2.47946e-07
9.08747e-07
-1.00522e-06
2.47821e-07
1.0055e-06
-9.15911e-07
2.61029e-07
1.04578e-06
-7.78421e-07
2.84616e-07
1.03455e-06
-6.7746e-07
2.96933e-07
9.56105e-07
-5.44098e-07
3.24806e-07
8.32172e-07
-4.51672e-07
3.37799e-07
6.52912e-07
-3.48152e-07
3.60492e-07
4.39359e-07
-2.80102e-07
3.71861e-07
1.98653e-07
-2.30053e-07
3.82079e-07
-5.95064e-08
-1.97517e-07
3.89393e-07
-3.0829e-07
-2.14207e-07
3.84111e-07
-5.56582e-07
-2.20884e-07
3.87539e-07
-7.59984e-07
-3.02448e-07
3.67374e-07
-9.44271e-07
-3.47108e-07
3.65238e-07
-1.05832e-06
-4.77117e-07
3.34538e-07
-1.14064e-06
-5.49596e-07
3.28931e-07
-1.14276e-06
-7.02539e-07
2.95258e-07
-1.10931e-06
-7.86846e-07
2.89391e-07
-1.00211e-06
-9.34312e-07
2.60331e-07
-8.65767e-07
-1.011e-06
2.57728e-07
-6.77995e-07
-1.12313e-06
2.39749e-07
-4.80313e-07
-1.15622e-06
2.41232e-07
-2.73299e-07
-1.14893e-06
2.2725e-07
-9.80038e-08
-9.45609e-07
1.92098e-07
-4.46911e-07
9.26275e-08
-3.56602e-08
-5.2732e-07
-3.40967e-08
1.98762e-07
-1.42686e-06
1.98296e-07
4.09448e-07
-1.60206e-06
1.61766e-07
6.28747e-07
-1.63949e-06
2.57631e-07
8.30706e-07
-1.55292e-06
2.22655e-07
9.70538e-07
-1.40895e-06
2.63901e-07
1.07885e-06
-1.27917e-06
2.5495e-07
1.10946e-06
-1.09539e-06
2.86364e-07
1.09802e-06
-9.55418e-07
2.89399e-07
1.00981e-06
-7.74358e-07
3.18468e-07
8.79434e-07
-6.47173e-07
3.25874e-07
6.88465e-07
-5.0624e-07
3.49057e-07
4.64719e-07
-4.13421e-07
3.57065e-07
2.11345e-07
-3.4488e-07
3.68202e-07
-5.88234e-08
-3.01467e-07
3.74118e-07
-3.19871e-07
-3.22892e-07
3.69732e-07
-5.80545e-07
-3.34156e-07
3.73946e-07
-7.94593e-07
-4.42768e-07
3.54369e-07
-9.8951e-07
-5.06834e-07
3.54642e-07
-1.11023e-06
-6.81188e-07
3.24791e-07
-1.19859e-06
-7.84188e-07
3.22956e-07
-1.20177e-06
-9.89875e-07
2.90516e-07
-1.16806e-06
-1.10953e-06
2.88974e-07
-1.05571e-06
-1.30815e-06
2.61481e-07
-9.12602e-07
-1.41724e-06
2.6313e-07
-7.14455e-07
-1.56831e-06
2.47032e-07
-5.05493e-07
-1.61722e-06
2.52036e-07
-2.86092e-07
-1.60741e-06
2.39075e-07
-1.00085e-07
-1.33395e-06
2.02336e-07
-6.41792e-07
9.4796e-08
1.84285e-07
-8.97185e-07
1.8558e-07
3.32465e-07
-1.81565e-06
2.40604e-07
5.77613e-07
-2.15952e-06
3.12319e-07
8.07784e-07
-2.17007e-06
3.00404e-07
1.02821e-06
-2.08434e-06
3.10987e-07
1.1949e-06
-1.90138e-06
3.2574e-07
1.31583e-06
-1.73538e-06
3.3527e-07
1.35521e-06
-1.50353e-06
3.68752e-07
1.33839e-06
-1.321e-06
3.82409e-07
1.23345e-06
-1.09101e-06
4.2159e-07
1.07463e-06
-9.2597e-07
4.37619e-07
8.43699e-07
-7.45738e-07
4.7043e-07
5.7126e-07
-6.2644e-07
4.85458e-07
2.63383e-07
-5.3744e-07
5.00437e-07
-6.57151e-08
-4.83159e-07
5.1079e-07
-3.82688e-07
-5.08281e-07
5.02361e-07
-6.99769e-07
-5.25557e-07
5.08482e-07
-9.58941e-07
-6.61427e-07
4.7783e-07
-1.1948e-06
-7.47603e-07
4.76629e-07
-1.34054e-06
-9.66872e-07
4.31421e-07
-1.44684e-06
-1.10384e-06
4.25956e-07
-1.45136e-06
-1.36322e-06
3.77856e-07
-1.41114e-06
-1.52196e-06
3.72214e-07
-1.27816e-06
-1.77302e-06
3.319e-07
-1.10772e-06
-1.91804e-06
3.30355e-07
-8.72695e-07
-2.10923e-06
3.059e-07
-6.23091e-07
-2.17624e-06
3.09423e-07
-3.60095e-07
-2.16268e-06
2.92278e-07
-1.32465e-07
-1.81251e-06
2.50924e-07
-9.00175e-07
1.25919e-07
1.07763e-07
-1.11419e-06
1.09239e-07
3.46594e-07
-2.31439e-06
2.59916e-07
6.13219e-07
-2.71849e-06
2.92339e-07
8.75629e-07
-2.75404e-06
3.21562e-07
1.11659e-06
-2.63365e-06
3.08352e-07
1.29169e-06
-2.40984e-06
3.33357e-07
1.42076e-06
-2.19343e-06
3.28982e-07
1.45636e-06
-1.90276e-06
3.63638e-07
1.43645e-06
-1.66765e-06
3.66552e-07
1.31908e-06
-1.37883e-06
4.05179e-07
1.14903e-06
-1.16806e-06
4.12145e-07
9.00175e-07
-9.41972e-07
4.45087e-07
6.11414e-07
-7.91306e-07
4.53626e-07
2.8348e-07
-6.79218e-07
4.69713e-07
-6.45932e-08
-6.1232e-07
4.77234e-07
-4.01026e-07
-6.42142e-07
4.70294e-07
-7.38086e-07
-6.66589e-07
4.78092e-07
-1.01426e-06
-8.3411e-07
4.48857e-07
-1.26761e-06
-9.46914e-07
4.52659e-07
-1.42482e-06
-1.21878e-06
4.09117e-07
-1.54181e-06
-1.39759e-06
4.10749e-07
-1.54927e-06
-1.72062e-06
3.64862e-07
-1.50945e-06
-1.92871e-06
3.66931e-07
-1.36885e-06
-2.24286e-06
3.29233e-07
-1.18728e-06
-2.4344e-06
3.3479e-07
-9.3482e-07
-2.675e-06
3.13315e-07
-6.65617e-07
-2.76802e-06
3.22577e-07
-3.81453e-07
-2.7544e-06
3.07551e-07
-1.36123e-07
-2.32309e-06
2.65251e-07
-1.16589e-06
1.29594e-07
1.86154e-07
-1.48758e-06
1.87237e-07
4.71066e-07
-2.93756e-06
3.3826e-07
8.10455e-07
-3.45287e-06
3.94996e-07
1.12643e-06
-3.47834e-06
4.08327e-07
1.42167e-06
-3.3374e-06
4.08515e-07
1.63642e-06
-3.06122e-06
4.36635e-07
1.79352e-06
-2.79491e-06
4.44382e-07
1.83845e-06
-2.44187e-06
4.94186e-07
1.81216e-06
-2.15168e-06
5.10322e-07
1.6668e-06
-1.8024e-06
5.68933e-07
1.45306e-06
-1.5441e-06
5.8979e-07
1.14145e-06
-1.27072e-06
6.40355e-07
7.77481e-07
-1.08848e-06
6.61139e-07
3.64891e-07
-9.51409e-07
6.84781e-07
-7.40149e-08
-8.73161e-07
6.99747e-07
-4.96996e-07
-9.05496e-07
6.86335e-07
-9.20833e-07
-9.39401e-07
6.9665e-07
-1.26721e-06
-1.13635e-06
6.48619e-07
-1.58351e-06
-1.27906e-06
6.48441e-07
-1.77985e-06
-1.60163e-06
5.79197e-07
-1.92423e-06
-1.82649e-06
5.73275e-07
-1.93442e-06
-2.21217e-06
5.01743e-07
-1.88437e-06
-2.47452e-06
4.95751e-07
-1.71251e-06
-2.85201e-06
4.37299e-07
-1.48851e-06
-3.09509e-06
4.36694e-07
-1.17926e-06
-3.38608e-06
4.01825e-07
-8.46742e-07
-3.50856e-06
4.08015e-07
-4.94924e-07
-3.4927e-06
3.86483e-07
-1.85092e-07
-2.97065e-06
3.37732e-07
-1.52769e-06
1.76706e-07
1.85707e-07
-1.86028e-06
1.86991e-07
5.18309e-07
-3.63805e-06
3.67887e-07
8.9249e-07
-4.24593e-06
4.18877e-07
1.24843e-06
-4.27212e-06
4.37841e-07
1.57171e-06
-4.08551e-06
4.24822e-07
1.80474e-06
-3.74603e-06
4.51779e-07
1.9714e-06
-3.40721e-06
4.45639e-07
2.01263e-06
-2.97514e-06
4.92033e-07
1.9777e-06
-2.60957e-06
4.92819e-07
1.81169e-06
-2.18438e-06
5.47988e-07
1.57659e-06
-1.86226e-06
5.53259e-07
1.23474e-06
-1.53086e-06
6.02e-07
8.42462e-07
-1.30651e-06
6.10312e-07
3.96589e-07
-1.13987e-06
6.34332e-07
-7.382e-08
-1.04638e-06
6.43628e-07
-5.28931e-07
-1.08288e-06
6.32496e-07
-9.86011e-07
-1.12875e-06
6.46432e-07
-1.36142e-06
-1.36261e-06
6.01672e-07
-1.70783e-06
-1.54443e-06
6.11771e-07
-1.92563e-06
-1.93045e-06
5.46623e-07
-2.08974e-06
-2.21639e-06
5.54009e-07
-2.10794e-06
-2.68122e-06
4.87243e-07
-2.06029e-06
-3.01649e-06
4.9432e-07
-1.87805e-06
-3.47499e-06
4.40744e-07
-1.636e-06
-3.7882e-06
4.51053e-07
-1.29797e-06
-4.14495e-06
4.20842e-07
-9.31184e-07
-4.31077e-06
4.35428e-07
-5.41715e-07
-4.29956e-06
4.17397e-07
-1.98139e-07
-3.68165e-06
3.67422e-07
-1.91535e-06
1.89516e-07
2.62157e-07
-2.38532e-06
2.6289e-07
6.87228e-07
-4.53932e-06
4.76195e-07
1.1623e-06
-5.26056e-06
5.39556e-07
1.60707e-06
-5.27888e-06
5.6199e-07
2.01025e-06
-5.04618e-06
5.57497e-07
2.30129e-06
-4.63608e-06
5.99011e-07
2.50805e-06
-4.22048e-06
6.06506e-07
2.56094e-06
-3.70571e-06
6.77677e-07
2.51567e-06
-3.26095e-06
6.96656e-07
2.30843e-06
-2.75909e-06
7.81959e-07
2.01012e-06
-2.37178e-06
8.07819e-07
1.57829e-06
-1.98246e-06
8.83424e-07
1.07902e-06
-1.71716e-06
9.09921e-07
5.12709e-07
-1.51994e-06
9.46377e-07
-8.57562e-08
-1.41385e-06
9.65935e-07
-6.63627e-07
-1.45102e-06
9.46013e-07
-1.2432e-06
-1.51202e-06
9.62837e-07
-1.71923e-06
-1.77744e-06
8.90861e-07
-2.15488e-06
-2.00221e-06
8.93424e-07
-2.4302e-06
-2.44645e-06
7.9132e-07
-2.63388e-06
-2.79863e-06
7.85926e-07
-2.65837e-06
-3.33961e-06
6.82873e-07
-2.5973e-06
-3.75452e-06
6.76957e-07
-2.37281e-06
-4.29402e-06
5.94539e-07
-2.07096e-06
-4.68502e-06
5.94962e-07
-1.65278e-06
-5.10958e-06
5.46451e-07
-1.19496e-06
-5.32447e-06
5.55883e-07
-7.07525e-07
-5.31628e-06
5.29279e-07
-2.69113e-07
-4.59095e-06
4.70883e-07
-2.44247e-06
2.58016e-07
2.92565e-07
-2.97138e-06
2.93488e-07
7.83323e-07
-5.5658e-06
5.35723e-07
1.3226e-06
-6.39928e-06
5.99439e-07
1.82752e-06
-6.40221e-06
6.18411e-07
2.27594e-06
-6.09609e-06
6.01486e-07
2.59542e-06
-5.59243e-06
6.36871e-07
2.81399e-06
-5.06676e-06
6.27712e-07
2.85898e-06
-4.44186e-06
6.91165e-07
2.79423e-06
-3.88433e-06
6.88126e-07
2.55079e-06
-3.28045e-06
7.64798e-07
2.21277e-06
-2.79913e-06
7.65367e-07
1.73e-06
-2.33385e-06
8.34161e-07
1.18243e-06
-2.00827e-06
8.38686e-07
5.62043e-07
-1.77232e-06
8.72774e-07
-8.75865e-08
-1.64634e-06
8.82123e-07
-7.17315e-07
-1.68635e-06
8.65056e-07
-1.35072e-06
-1.76783e-06
8.89219e-07
-1.87532e-06
-2.07685e-06
8.24006e-07
-2.36128e-06
-2.36197e-06
8.45726e-07
-2.6756e-06
-2.88508e-06
7.52947e-07
-2.91412e-06
-3.33039e-06
7.70282e-07
-2.95666e-06
-3.97397e-06
6.76905e-07
-2.90234e-06
-4.49986e-06
6.9102e-07
-2.66471e-06
-5.14851e-06
6.16867e-07
-2.33456e-06
-5.64732e-06
6.32151e-07
-1.87055e-06
-6.16409e-06
5.90501e-07
-1.35494e-06
-6.45058e-06
6.10499e-07
-8.02595e-07
-6.45782e-06
5.892e-07
-3.02126e-07
-5.62053e-06
5.29114e-07
-3.03493e-06
2.9033e-07
3.95157e-07
-3.7619e-06
3.95367e-07
1.02226e-06
-6.87767e-06
6.84771e-07
1.70068e-06
-7.8384e-06
7.60696e-07
2.33128e-06
-7.82061e-06
7.87804e-07
2.88712e-06
-7.43244e-06
7.80509e-07
3.28423e-06
-6.82545e-06
8.35906e-07
3.55238e-06
-6.17882e-06
8.43922e-07
3.60923e-06
-5.43724e-06
9.38527e-07
3.52481e-06
-4.75906e-06
9.59149e-07
3.22206e-06
-4.05132e-06
1.07361e-06
2.79524e-06
-3.47354e-06
1.10123e-06
2.19015e-06
-2.93348e-06
1.20472e-06
1.49843e-06
-2.54936e-06
1.2328e-06
7.17171e-07
-2.27501e-06
1.28394e-06
-1.01586e-07
-2.13247e-06
1.30488e-06
-8.94821e-07
-2.17157e-06
1.27845e-06
-1.69049e-06
-2.27677e-06
1.30461e-06
-2.35195e-06
-2.62232e-06
1.20693e-06
-2.95844e-06
-2.97156e-06
1.21608e-06
-3.35465e-06
-3.567e-06
1.07814e-06
-3.64964e-06
-4.11176e-06
1.07636e-06
-3.70682e-06
-4.85584e-06
9.3905e-07
-3.63823e-06
-5.50306e-06
9.34605e-07
-3.3486e-06
-6.26384e-06
8.25703e-07
-2.9398e-06
-6.88295e-06
8.26832e-07
-2.36862e-06
-7.49815e-06
7.62885e-07
-1.72777e-06
-7.86644e-06
7.75003e-07
-1.03874e-06
-7.89069e-06
7.43842e-07
-4.0288e-07
-6.92946e-06
6.73069e-07
-3.82582e-06
3.88004e-07
4.65792e-07
-4.69392e-06
4.66229e-07
1.20678e-06
-8.41558e-06
7.96916e-07
1.99704e-06
-9.50472e-06
8.7606e-07
2.72608e-06
-9.44688e-06
8.97225e-07
3.35566e-06
-8.94092e-06
8.78901e-07
3.79761e-06
-8.19385e-06
9.26446e-07
4.08127e-06
-7.37961e-06
9.17128e-07
4.12271e-06
-6.47867e-06
9.99985e-07
4.00019e-06
-5.63048e-06
9.93946e-07
3.63508e-06
-4.77909e-06
1.09288e-06
3.13632e-06
-4.06095e-06
1.08617e-06
2.44516e-06
-3.417e-06
1.17468e-06
1.66925e-06
-2.94376e-06
1.17031e-06
7.97916e-07
-2.61712e-06
1.21345e-06
-1.07071e-07
-2.4467e-06
1.21922e-06
-9.86944e-07
-2.48751e-06
1.19581e-06
-1.87183e-06
-2.62587e-06
1.23398e-06
-2.61633e-06
-3.02627e-06
1.14846e-06
-3.30662e-06
-3.46829e-06
1.18702e-06
-3.77214e-06
-4.16775e-06
1.06628e-06
-4.12646e-06
-4.85385e-06
1.09641e-06
-4.21878e-06
-5.73892e-06
9.75393e-07
-4.16316e-06
-6.55421e-06
9.95532e-07
-3.85604e-06
-7.46934e-06
8.98381e-07
-3.40179e-06
-8.25242e-06
9.15208e-07
-2.7569e-06
-9.00203e-06
8.59e-07
-2.01976e-06
-9.48457e-06
8.80984e-07
-1.22016e-06
-9.5461e-06
8.55816e-07
-4.73407e-07
-8.45773e-06
7.8152e-07
-4.75638e-06
4.57161e-07
6.11842e-07
-5.91715e-06
6.11384e-07
1.54788e-06
-1.03566e-05
1.00501e-06
2.53043e-06
-1.15859e-05
1.09866e-06
3.43057e-06
-1.14767e-05
1.12971e-06
4.20018e-06
-1.08347e-05
1.12413e-06
4.74017e-06
-9.92824e-06
1.19441e-06
5.07939e-06
-8.92526e-06
1.20643e-06
5.12651e-06
-7.84793e-06
1.32215e-06
4.96566e-06
-6.81302e-06
1.34338e-06
4.51396e-06
-5.80807e-06
1.48069e-06
3.89035e-06
-4.94127e-06
1.50392e-06
3.03691e-06
-4.19119e-06
1.62763e-06
2.07273e-06
-3.62859e-06
1.64901e-06
9.95633e-07
-3.25049e-06
1.71046e-06
-1.22876e-07
-3.05477e-06
1.72658e-06
-1.21114e-06
-3.09556e-06
1.69631e-06
-2.30196e-06
-3.26924e-06
1.73419e-06
-3.22665e-06
-3.72004e-06
1.61845e-06
-4.07578e-06
-4.25905e-06
1.63989e-06
-4.65783e-06
-5.0611e-06
1.4754e-06
-5.09382e-06
-5.89943e-06
1.48157e-06
-5.21784e-06
-6.93153e-06
1.31663e-06
-5.15269e-06
-7.93279e-06
1.31344e-06
-4.78672e-06
-9.01534e-06
1.18003e-06
-4.23367e-06
-9.98319e-06
1.17773e-06
-3.44964e-06
-1.08828e-05
1.09679e-06
-2.5435e-06
-1.14974e-05
1.10671e-06
-1.55546e-06
-1.16046e-05
1.07045e-06
-6.17049e-07
-1.03786e-05
9.82473e-07
-5.97064e-06
5.97204e-07
7.5011e-07
-7.41729e-06
7.50037e-07
1.88287e-06
-1.26942e-05
1.20487e-06
3.05443e-06
-1.4065e-05
1.30753e-06
4.11652e-06
-1.38747e-05
1.33585e-06
5.00665e-06
-1.30525e-05
1.32772e-06
5.61992e-06
-1.19363e-05
1.39482e-06
5.98274e-06
-1.06858e-05
1.39771e-06
6.00482e-06
-9.3725e-06
1.50248e-06
5.77742e-06
-8.08695e-06
1.50133e-06
5.22241e-06
-6.87138e-06
1.61832e-06
4.47318e-06
-5.79923e-06
1.60719e-06
3.47507e-06
-4.90064e-06
1.70756e-06
2.36344e-06
-4.21095e-06
1.69399e-06
1.13337e-06
-3.76141e-06
1.741e-06
-1.34666e-07
-3.52819e-06
1.74146e-06
-1.37191e-06
-3.57253e-06
1.71421e-06
-2.61341e-06
-3.79278e-06
1.76504e-06
-3.68157e-06
-4.31923e-06
1.66735e-06
-4.66987e-06
-4.99146e-06
1.72071e-06
-5.37102e-06
-5.94087e-06
1.58092e-06
-5.90356e-06
-6.9859e-06
1.619e-06
-6.08782e-06
-8.22155e-06
1.47429e-06
-6.04258e-06
-9.46904e-06
1.491e-06
-5.64923e-06
-1.07765e-05
1.36782e-06
-5.02176e-06
-1.19835e-05
1.37279e-06
-4.11804e-06
-1.30807e-05
1.29415e-06
-3.05395e-06
-1.38669e-05
1.30542e-06
-1.88207e-06
-1.40478e-05
1.27131e-06
-7.52445e-07
-1.26825e-05
1.17421e-06
-7.45356e-06
7.30482e-07
9.63691e-07
-9.34404e-06
9.63054e-07
2.37679e-06
-1.56085e-05
1.50118e-06
3.8156e-06
-1.71281e-05
1.62433e-06
5.10993e-06
-1.68369e-05
1.6679e-06
6.18209e-06
-1.58062e-05
1.68154e-06
6.91674e-06
-1.4448e-05
1.77706e-06
7.33734e-06
-1.29144e-05
1.80804e-06
7.34999e-06
-1.13303e-05
1.94516e-06
7.05083e-06
-9.76017e-06
1.97239e-06
6.36519e-06
-8.30493e-06
2.11919e-06
5.43713e-06
-7.00477e-06
2.13361e-06
4.22131e-06
-5.9415e-06
2.25668e-06
2.86514e-06
-5.11783e-06
2.26305e-06
1.37682e-06
-4.59321e-06
2.32011e-06
-1.54111e-07
-4.32495e-06
2.32769e-06
-1.64927e-06
-4.37356e-06
2.29619e-06
-3.14696e-06
-4.64226e-06
2.34719e-06
-4.44981e-06
-5.24785e-06
2.23147e-06
-5.64876e-06
-6.06318e-06
2.27066e-06
-6.51745e-06
-7.17387e-06
2.10168e-06
-7.17207e-06
-8.44874e-06
2.11747e-06
-7.41815e-06
-9.91334e-06
1.93787e-06
-7.37533e-06
-1.14397e-05
1.92782e-06
-6.91945e-06
-1.30013e-05
1.76885e-06
-6.16902e-06
-1.448e-05
1.74609e-06
-5.08531e-06
-1.58013e-05
1.63687e-06
-3.79377e-06
-1.67847e-05
1.62625e-06
-2.36192e-06
-1.70553e-05
1.57563e-06
-9.60675e-07
-1.55422e-05
1.45854e-06
-9.34918e-06
9.34945e-07
1.21008e-06
-1.17647e-05
1.21062e-06
2.94761e-06
-1.91836e-05
1.83756e-06
4.69126e-06
-2.08554e-05
1.98359e-06
6.2442e-06
-2.04321e-05
2.04227e-06
7.51068e-06
-1.91521e-05
2.07944e-06
8.36641e-06
-1.7499e-05
2.19525e-06
8.82891e-06
-1.56218e-05
2.24493e-06
8.80714e-06
-1.36967e-05
2.38819e-06
8.40142e-06
-1.177e-05
2.41558e-06
7.55035e-06
-1.00024e-05
2.54851e-06
6.41154e-06
-8.41036e-06
2.54441e-06
4.95595e-06
-7.12826e-06
2.64234e-06
3.34803e-06
-6.13474e-06
2.62482e-06
1.60355e-06
-5.51312e-06
2.6644e-06
-1.77977e-07
-5.20488e-06
2.66146e-06
-1.92043e-06
-5.26266e-06
2.63155e-06
-3.66839e-06
-5.58681e-06
2.6925e-06
-5.21284e-06
-6.29944e-06
2.59604e-06
-6.63912e-06
-7.2934e-06
2.6565e-06
-7.70492e-06
-8.62042e-06
2.51235e-06
-8.51077e-06
-1.0186e-05
2.54306e-06
-8.85068e-06
-1.19491e-05
2.37565e-06
-8.83187e-06
-1.38204e-05
2.36194e-06
-8.32706e-06
-1.5701e-05
2.1949e-06
-7.45321e-06
-1.75047e-05
2.15091e-06
-6.17808e-06
-1.90965e-05
2.02009e-06
-4.63602e-06
-2.03113e-05
1.98451e-06
-2.91111e-06
-2.06982e-05
1.91801e-06
-1.19845e-06
-1.9033e-05
1.77809e-06
-1.1718e-05
1.17034e-06
1.52583e-06
-1.48174e-05
1.52681e-06
3.66205e-06
-2.35825e-05
2.26262e-06
5.77734e-06
-2.54162e-05
2.44548e-06
7.64704e-06
-2.48461e-05
2.54432e-06
9.15583e-06
-2.32955e-05
2.63454e-06
1.01687e-05
-2.13185e-05
2.80657e-06
1.06951e-05
-1.90599e-05
2.91166e-06
1.06434e-05
-1.67471e-05
3.10207e-06
1.01168e-05
-1.44116e-05
3.16814e-06
9.06687e-06
-1.22778e-05
3.32542e-06
7.66496e-06
-1.03473e-05
3.33884e-06
5.9053e-06
-8.80792e-06
3.43932e-06
3.97033e-06
-7.62523e-06
3.42547e-06
1.89614e-06
-6.89614e-06
3.4572e-06
-2.07053e-07
-6.55466e-06
3.45297e-06
-2.26446e-06
-6.62654e-06
3.42129e-06
-4.33478e-06
-7.00417e-06
3.48768e-06
-6.19111e-06
-7.83844e-06
3.39533e-06
-7.90662e-06
-9.0316e-06
3.45371e-06
-9.21715e-06
-1.06117e-05
3.30186e-06
-1.02049e-05
-1.25119e-05
3.31379e-06
-1.06492e-05
-1.46216e-05
3.11676e-06
-1.06477e-05
-1.6884e-05
3.06207e-06
-1.00699e-05
-1.91225e-05
2.84381e-06
-9.03661e-06
-2.12807e-05
2.74264e-06
-7.52276e-06
-2.31639e-05
2.5535e-06
-5.67471e-06
-2.46235e-05
2.46418e-06
-3.59455e-06
-2.51351e-05
2.35678e-06
-1.50101e-06
-2.33073e-05
2.18075e-06
-1.46891e-05
1.47015e-06
1.92424e-06
-1.86705e-05
1.92885e-06
4.55338e-06
-2.89957e-05
2.78406e-06
7.12477e-06
-3.1012e-05
3.02441e-06
9.38617e-06
-3.03032e-05
3.19564e-06
1.1199e-05
-2.84913e-05
3.38302e-06
1.24147e-05
-2.61862e-05
3.65198e-06
1.30271e-05
-2.35274e-05
3.85502e-06
1.29433e-05
-2.07839e-05
4.12071e-06
1.22631e-05
-1.79807e-05
4.24923e-06
1.0959e-05
-1.54071e-05
4.43342e-06
9.21616e-06
-1.30641e-05
4.45964e-06
7.06442e-06
-1.12005e-05
4.54433e-06
4.71588e-06
-9.78757e-06
4.51087e-06
2.23143e-06
-8.92935e-06
4.51767e-06
-2.54684e-07
-8.56561e-06
4.49707e-06
-2.68514e-06
-8.66083e-06
4.46474e-06
-5.15015e-06
-9.0874e-06
4.54824e-06
-7.3965e-06
-1.00709e-05
4.47876e-06
-9.47728e-06
-1.15031e-05
4.5523e-06
-1.11009e-05
-1.33995e-05
4.4114e-06
-1.23155e-05
-1.57012e-05
4.40385e-06
-1.28888e-05
-1.82227e-05
4.17438e-06
-1.28994e-05
-2.09246e-05
4.05113e-06
-1.22233e-05
-2.35529e-05
3.75421e-06
-1.09831e-05
-2.60731e-05
3.55226e-06
-9.17214e-06
-2.82407e-05
3.26589e-06
-6.94835e-06
-2.99269e-05
3.07955e-06
-4.43568e-06
-3.05487e-05
2.90091e-06
-1.87838e-06
-2.85335e-05
2.66893e-06
-1.84145e-05
1.847e-06
2.36741e-06
-2.34145e-05
2.37664e-06
5.52767e-06
-3.55154e-05
3.35948e-06
8.58836e-06
-3.77563e-05
3.68368e-06
1.12718e-05
-3.69655e-05
3.97896e-06
1.34197e-05
-3.49637e-05
4.32453e-06
1.48639e-05
-3.23927e-05
4.76222e-06
1.55807e-05
-2.9377e-05
5.13281e-06
1.54681e-05
-2.62149e-05
5.54364e-06
1.46211e-05
-2.29253e-05
5.79158e-06
1.30312e-05
-1.98667e-05
6.04951e-06
1.09005e-05
-1.70476e-05
6.11415e-06
8.30411e-06
-1.47984e-05
6.1943e-06
5.49259e-06
-1.31157e-05
6.13968e-06
2.56562e-06
-1.21162e-05
6.11381e-06
-3.07696e-07
-1.17634e-05
6.07111e-06
-3.11054e-06
-1.18967e-05
6.03871e-06
-5.99661e-06
-1.23462e-05
6.14486e-06
-8.67592e-06
-1.34952e-05
6.10362e-06
-1.11687e-05
-1.52018e-05
6.19147e-06
-1.31474e-05
-1.74662e-05
6.04537e-06
-1.46157e-05
-2.02216e-05
5.98865e-06
-1.53277e-05
-2.31864e-05
5.67575e-06
-1.53438e-05
-2.63341e-05
5.42564e-06
-1.45488e-05
-2.93271e-05
4.97917e-06
-1.30761e-05
-3.21542e-05
4.60836e-06
-1.09376e-05
-3.45338e-05
4.1546e-06
-8.31295e-06
-3.63646e-05
3.81316e-06
-5.34369e-06
-3.70322e-05
3.51423e-06
-2.29226e-06
-3.47869e-05
3.20192e-06
-2.29695e-05
2.26277e-06
2.91446e-06
-2.9263e-05
2.93402e-06
6.70787e-06
-4.33517e-05
4.04287e-06
1.03605e-05
-4.59189e-05
4.51003e-06
1.35803e-05
-4.52218e-05
5.03645e-06
1.61864e-05
-4.32533e-05
5.68349e-06
1.79808e-05
-4.06452e-05
6.45818e-06
1.89022e-05
-3.74848e-05
7.18635e-06
1.88262e-05
-3.40692e-05
7.9303e-06
1.78222e-05
-3.03957e-05
8.47446e-06
1.58944e-05
-2.68837e-05
8.94478e-06
1.32543e-05
-2.35501e-05
9.14263e-06
1.00376e-05
-2.08491e-05
9.26733e-06
6.55959e-06
-1.88355e-05
9.19782e-06
2.99192e-06
-1.76805e-05
9.13195e-06
-4.03997e-07
-1.74165e-05
9.04902e-06
-3.69996e-06
-1.7614e-05
9.01323e-06
-7.18204e-06
-1.80187e-05
9.15459e-06
-1.04737e-05
-1.9342e-05
9.13857e-06
-1.35304e-05
-2.13678e-05
9.22273e-06
-1.59662e-05
-2.40418e-05
9.01128e-06
-1.77229e-05
-2.72651e-05
8.80032e-06
-1.85511e-05
-3.06184e-05
8.26013e-06
-1.84983e-05
-3.40917e-05
7.70481e-06
-1.74798e-05
-3.72705e-05
6.92492e-06
-1.56528e-05
-4.01829e-05
6.20173e-06
-1.30708e-05
-4.25373e-05
5.42151e-06
-9.94069e-06
-4.4285e-05
4.79029e-06
-6.4245e-06
-4.48203e-05
4.27192e-06
-2.79486e-06
-4.22416e-05
3.82513e-06
-2.85374e-05
2.77297e-06
3.40746e-06
-3.61125e-05
3.4421e-06
7.74653e-06
-5.23344e-05
4.64361e-06
1.19186e-05
-5.53997e-05
5.30867e-06
1.56307e-05
-5.51222e-05
6.1882e-06
1.86901e-05
-5.36144e-05
7.30174e-06
2.08575e-05
-5.1439e-05
8.62631e-06
2.20255e-05
-4.86087e-05
9.95595e-06
2.20357e-05
-4.53735e-05
1.12941e-05
2.09187e-05
-4.16463e-05
1.23676e-05
1.86833e-05
-3.78779e-05
1.32297e-05
1.55325e-05
-3.40544e-05
1.3655e-05
1.16727e-05
-3.08348e-05
1.38455e-05
7.49267e-06
-2.8378e-05
1.37225e-05
3.28638e-06
-2.70469e-05
1.35727e-05
-5.14485e-07
-2.70383e-05
1.34227e-05
-4.16704e-06
-2.73483e-05
1.33869e-05
-8.21682e-06
-2.75535e-05
1.35846e-05
-1.21426e-05
-2.90427e-05
1.36264e-05
-1.57743e-05
-3.1463e-05
1.3727e-05
-1.86647e-05
-3.45598e-05
1.34084e-05
-2.06787e-05
-3.81819e-05
1.29308e-05
-2.15779e-05
-4.16923e-05
1.1973e-05
-2.14079e-05
-4.51398e-05
1.0878e-05
-2.01238e-05
-4.8066e-05
9.51135e-06
-1.79225e-05
-5.05902e-05
8.20602e-06
-1.49052e-05
-5.24571e-05
6.90245e-06
-1.13205e-05
-5.37019e-05
5.8322e-06
-7.34095e-06
-5.37846e-05
4.98481e-06
-3.23154e-06
-5.07067e-05
4.35564e-06
-3.49946e-05
3.22571e-06
3.87415e-06
-4.39223e-05
3.93563e-06
8.70006e-06
-6.23275e-05
5.16719e-06
1.33781e-05
-6.62271e-05
6.14941e-06
1.76409e-05
-6.70097e-05
7.62472e-06
2.12854e-05
-6.68209e-05
9.56197e-06
2.40111e-05
-6.60825e-05
1.19178e-05
2.56418e-05
-6.46736e-05
1.44342e-05
2.59501e-05
-6.26765e-05
1.69948e-05
2.48922e-05
-5.97764e-05
1.9188e-05
2.24369e-05
-5.63457e-05
2.09231e-05
1.87267e-05
-5.22431e-05
2.1899e-05
1.4027e-05
-4.84747e-05
2.23395e-05
8.8105e-06
-4.53748e-05
2.22134e-05
3.61956e-06
-4.38521e-05
2.19962e-05
-7.0834e-07
-4.44918e-05
2.17814e-05
-4.78732e-06
-4.50102e-05
2.17409e-05
-9.67988e-06
-4.46411e-05
2.19801e-05
-1.45246e-05
-4.62249e-05
2.20269e-05
-1.88922e-05
-4.91542e-05
2.20587e-05
-2.22641e-05
-5.25982e-05
2.14104e-05
-2.44349e-05
-5.63229e-05
2.03117e-05
-2.52302e-05
-5.93318e-05
1.84349e-05
-2.47288e-05
-6.18486e-05
1.62075e-05
-2.2966e-05
-6.34725e-05
1.36438e-05
-2.02091e-05
-6.45514e-05
1.12043e-05
-1.66341e-05
-6.49662e-05
8.9342e-06
-1.25514e-05
-6.48854e-05
7.10076e-06
-8.13705e-06
-6.39076e-05
5.70854e-06
-3.62494e-06
-6.00134e-05
4.79459e-06
-4.22695e-05
3.64993e-06
3.95901e-06
-5.1941e-05
4.05964e-06
8.81325e-06
-7.23565e-05
5.17479e-06
1.36057e-05
-7.75681e-05
6.54858e-06
1.81127e-05
-8.03506e-05
8.83386e-06
2.21393e-05
-8.27934e-05
1.19459e-05
2.53073e-05
-8.50916e-05
1.58411e-05
2.73831e-05
-8.68895e-05
2.01402e-05
2.80804e-05
-8.78642e-05
2.44903e-05
2.72834e-05
-8.71942e-05
2.82149e-05
2.49e-05
-8.49962e-05
3.10341e-05
2.09466e-05
-8.08976e-05
3.2608e-05
1.56959e-05
-7.64662e-05
3.32425e-05
9.5931e-06
-7.23141e-05
3.30421e-05
3.55843e-06
-7.05654e-05
3.27481e-05
-9.07213e-07
-7.2604e-05
3.2578e-05
-4.96361e-06
-7.35031e-05
3.25494e-05
-1.04901e-05
-7.18413e-05
3.27268e-05
-1.61047e-05
-7.33874e-05
3.27773e-05
-2.09363e-05
-7.71107e-05
3.27884e-05
-2.45049e-05
-8.08631e-05
3.18335e-05
-2.657e-05
-8.42823e-05
3.00246e-05
-2.70799e-05
-8.57931e-05
2.69711e-05
-2.61703e-05
-8.59252e-05
2.3167e-05
-2.39531e-05
-8.45241e-05
1.88345e-05
-2.07577e-05
-8.2441e-05
1.46942e-05
-1.68287e-05
-7.98933e-05
1.09981e-05
-1.25515e-05
-7.72624e-05
8.09982e-06
-8.093e-06
-7.43516e-05
5.98551e-06
-3.63639e-06
-6.91997e-05
4.72969e-06
-4.96184e-05
3.71255e-06
3.50412e-06
-5.91098e-05
3.66471e-06
7.75308e-06
-8.10648e-05
4.45936e-06
1.21525e-05
-8.82947e-05
6.32718e-06
1.65253e-05
-9.44453e-05
9.72191e-06
2.06933e-05
-0.00010148
1.45182e-05
2.418e-05
-0.000109204
2.06262e-05
2.6696e-05
-0.000116733
2.73273e-05
2.78942e-05
-0.000122885
3.38233e-05
2.761e-05
-0.000126018
3.91087e-05
2.57012e-05
-0.000125931
4.28443e-05
2.20608e-05
-0.000122127
4.48703e-05
1.68515e-05
-0.000116976
4.57197e-05
1.0231e-05
-0.000111398
4.57053e-05
3.48076e-06
-0.000109503
4.56885e-05
-1.07676e-06
-0.000113918
4.58724e-05
-5.00626e-06
-0.000115403
4.58304e-05
-1.1005e-05
-0.000111486
4.56447e-05
-1.70755e-05
-0.000112707
4.53911e-05
-2.18555e-05
-0.000117498
4.51678e-05
-2.51271e-05
-0.000121503
4.39121e-05
-2.67131e-05
-0.000124224
4.15282e-05
-2.6686e-05
-0.000123225
3.74054e-05
-2.52534e-05
-0.000119265
3.19076e-05
-2.25734e-05
-0.000112579
2.53752e-05
-1.90549e-05
-0.000104853
1.88937e-05
-1.5004e-05
-9.70804e-05
1.31363e-05
-1.09056e-05
-9.00882e-05
8.72742e-06
-6.90707e-06
-8.39951e-05
5.64497e-06
-3.12156e-06
-7.6961e-05
3.97578e-06
-5.60211e-05
3.28108e-06
1.94152e-06
-6.32365e-05
2.18523e-06
4.33577e-06
-8.5784e-05
2.32497e-06
7.1748e-06
-9.56951e-05
4.56132e-06
1.02949e-05
-0.000106569
9.0041e-06
1.35344e-05
-0.000120119
1.54002e-05
1.63326e-05
-0.000135359
2.33564e-05
1.84305e-05
-0.000150282
3.1451e-05
1.95341e-05
-0.000162375
3.83863e-05
1.96774e-05
-0.000169316
4.31557e-05
1.89149e-05
-0.000171017
4.58503e-05
1.71578e-05
-0.000167381
4.70141e-05
1.42347e-05
-0.000161539
4.749e-05
9.38294e-06
-0.00015456
4.80172e-05
3.61242e-06
-0.00015268
4.89503e-05
-8.13542e-07
-0.000159849
5.03592e-05
-4.49644e-06
-0.000162
5.02821e-05
-9.48658e-06
-0.000155402
4.89085e-05
-1.40181e-05
-0.000156039
4.78666e-05
-1.67928e-05
-0.000161935
4.72147e-05
-1.84144e-05
-0.000166271
4.63925e-05
-1.8981e-05
-0.000168494
4.48388e-05
-1.85415e-05
-0.000165265
4.16014e-05
-1.71456e-05
-0.000157037
3.6376e-05
-1.48224e-05
-0.000144069
2.91663e-05
-1.19339e-05
-0.000128921
2.11791e-05
-8.7758e-06
-0.000113877
1.36381e-05
-5.91892e-06
-0.000100745
7.8001e-06
-3.48456e-06
-9.02721e-05
3.84266e-06
-1.56031e-06
-8.07857e-05
1.90049e-06
-5.94227e-05
1.84128e-06
-1.09748e-06
-6.14068e-05
-7.32237e-07
-2.28896e-06
-8.29172e-05
-1.67537e-06
-2.66607e-06
-9.58508e-05
5.32847e-07
-2.40388e-06
-0.00011227
5.43825e-06
-1.61337e-06
-0.000133274
1.23638e-05
-8.51198e-07
-0.000156352
2.02315e-05
-2.55227e-07
-0.000177657
2.67804e-05
1.87921e-07
-0.000193548
3.07324e-05
1.11328e-06
-0.000202101
3.18639e-05
2.96858e-06
-0.000204244
3.13778e-05
5.68293e-06
-0.000200806