/*--------------------------------*- C++ -*----------------------------------*\
| =========                 |                                                 |
| \\      /  F ield         | OpenFOAM: The Open Source CFD Toolbox           |
|  \\    /   O peration     | Version:  v1906                                 |
|   \\  /    A nd           | Web:      www.OpenFOAM.com                      |
|    \\/     M anipulation  |                                                 |
\*---------------------------------------------------------------------------*/
FoamFile
{
    version     2.0;
    format      ascii;
    class       volScalarField;
    location    "0.64/oil";
    object      nut;
}
// * * * * * * * * * * * * * * * * * * * * * * * * * * * * * * * * * * * * * //

dimensions      [0 2 -1 0 0 0 0];


internalField   nonuniform List<scalar> 
168664
(
2.13361e-06
2.32613e-07
2.38274e-07
6.62127e-08
5.7468e-08
2.82208e-08
1.93514e-08
1.48505e-08
9.90651e-09
1.06268e-08
9.42609e-09
1.12655e-08
1.03832e-08
1.06834e-08
9.57828e-09
9.55964e-09
8.69562e-09
8.01052e-09
7.1988e-09
6.4865e-09
5.99659e-09
6.05272e-09
5.88092e-09
5.43246e-09
4.65126e-09
3.69932e-09
2.75203e-09
2.03025e-09
1.4053e-09
4.08658e-10
2.31875e-07
2.72654e-07
6.08007e-08
5.26456e-08
2.28496e-08
1.74457e-08
1.15942e-08
9.80095e-09
7.82141e-09
8.19403e-09
8.27058e-09
9.25506e-09
8.93037e-09
9.21944e-09
8.60257e-09
8.63557e-09
7.94191e-09
7.46005e-09
6.75864e-09
6.30634e-09
5.9783e-09
5.97689e-09
5.75653e-09
5.34084e-09
4.87386e-09
4.23527e-09
3.62999e-09
2.89118e-09
2.92695e-09
1.71887e-09
2.36198e-07
6.08093e-08
5.56333e-08
3.58726e-08
2.70609e-08
1.94888e-08
1.47242e-08
1.15698e-08
9.77902e-09
9.06629e-09
8.95549e-09
9.094e-09
8.63207e-09
8.89725e-09
8.34817e-09
8.31164e-09
7.6789e-09
7.26711e-09
6.60794e-09
6.24939e-09
6.09521e-09
6.14633e-09
6.04281e-09
5.73679e-09
5.32875e-09
4.82487e-09
4.37341e-09
4.04523e-09
4.7253e-09
3.80753e-09
6.91638e-08
5.4344e-08
3.76497e-08
2.84115e-08
2.02009e-08
1.55173e-08
1.29745e-08
1.06808e-08
9.96756e-09
9.10786e-09
9.04508e-09
8.7344e-09
8.61655e-09
8.85469e-09
8.38064e-09
8.18897e-09
7.60583e-09
7.204e-09
6.6536e-09
6.3555e-09
6.17994e-09
6.24109e-09
6.31342e-09
6.13612e-09
5.69994e-09
5.1848e-09
4.84173e-09
5.06782e-09
5.95571e-09
5.40772e-09
5.9009e-08
2.59011e-08
2.85491e-08
2.04349e-08
1.9131e-08
1.57339e-08
1.40432e-08
1.22284e-08
1.12526e-08
1.03634e-08
9.85069e-09
9.29056e-09
9.04136e-09
9.13331e-09
8.55235e-09
8.18642e-09
7.59452e-09
7.23264e-09
6.89311e-09
6.88522e-09
6.69615e-09
6.75166e-09
6.78956e-09
6.72095e-09
6.36997e-09
5.98491e-09
5.79666e-09
6.27433e-09
7.28694e-09
7.1763e-09
3.66267e-08
2.44342e-08
2.49998e-08
1.87163e-08
1.79251e-08
1.40082e-08
1.34183e-08
1.1302e-08
1.1025e-08
1.00863e-08
9.91382e-09
9.1684e-09
8.8828e-09
9.02137e-09
8.56402e-09
7.97252e-09
7.41929e-09
6.97772e-09
6.9239e-09
7.11582e-09
6.94898e-09
6.87913e-09
6.83078e-09
6.80939e-09
6.56497e-09
6.47243e-09
6.48909e-09
7.16843e-09
8.20366e-09
8.45412e-09
2.71695e-08
1.89077e-08
1.9448e-08
1.58379e-08
1.57739e-08
1.34728e-08
1.29772e-08
1.15502e-08
1.10674e-08
1.04076e-08
1.01281e-08
9.52358e-09
9.27418e-09
9.6493e-09
9.08021e-09
8.20796e-09
7.45013e-09
6.93538e-09
6.86371e-09
7.08239e-09
6.91508e-09
6.92388e-09
6.94234e-09
7.06625e-09
7.059e-09
7.26704e-09
7.55401e-09
8.35916e-09
9.41296e-09
1.00603e-08
2.66382e-08
1.98967e-08
1.98856e-08
1.63303e-08
1.60686e-08
1.32468e-08
1.28785e-08
1.09406e-08
1.06074e-08
9.67318e-09
9.7096e-09
9.32069e-09
9.61761e-09
1.01896e-08
9.75117e-09
8.60064e-09
7.85417e-09
7.13741e-09
6.93541e-09
6.81695e-09
6.59571e-09
6.61865e-09
6.74631e-09
7.065e-09
7.37474e-09
7.91636e-09
8.43593e-09
9.30289e-09
1.02995e-08
1.12208e-08
2.16898e-08
1.73426e-08
1.70053e-08
1.49226e-08
1.44711e-08
1.25751e-08
1.19945e-08
1.04938e-08
9.97314e-09
9.22932e-09
9.38475e-09
9.63835e-09
1.0206e-08
1.07924e-08
1.02634e-08
9.11038e-09
8.14981e-09
7.29457e-09
6.88398e-09
6.61885e-09
6.35958e-09
6.58192e-09
6.88087e-09
7.4774e-09
8.0713e-09
8.82097e-09
9.54487e-09
1.04057e-08
1.12681e-08
1.24378e-08
2.30429e-08
1.84801e-08
1.81222e-08
1.59789e-08
1.52639e-08
1.29817e-08
1.21783e-08
1.03006e-08
9.63991e-09
8.67535e-09
9.05677e-09
9.47189e-09
1.00698e-08
1.0178e-08
9.85463e-09
9.0167e-09
8.03245e-09
7.15586e-09
6.75494e-09
6.39673e-09
6.18928e-09
6.52996e-09
6.98733e-09
7.71011e-09
8.36339e-09
9.27939e-09
1.01836e-08
1.10049e-08
1.1786e-08
1.31247e-08
2.0783e-08
1.71584e-08
1.6597e-08
1.51079e-08
1.42911e-08
1.26562e-08
1.18273e-08
1.02147e-08
9.466e-09
8.74258e-09
9.12055e-09
9.49606e-09
9.38934e-09
8.78948e-09
8.2316e-09
7.73733e-09
7.02385e-09
6.56571e-09
6.37125e-09
6.33166e-09
6.36491e-09
6.97821e-09
7.59787e-09
8.46712e-09
9.15217e-09
1.01731e-08
1.11269e-08
1.18092e-08
1.24985e-08
1.39734e-08
2.21025e-08
1.81511e-08
1.74856e-08
1.59845e-08
1.53011e-08
1.38215e-08
1.3058e-08
1.11889e-08
1.00766e-08
8.80856e-09
8.60434e-09
8.31266e-09
7.51206e-09
6.40965e-09
5.8414e-09
5.43144e-09
5.04899e-09
5.28619e-09
5.60601e-09
6.0043e-09
6.48184e-09
7.40921e-09
8.22185e-09
9.31275e-09
1.00779e-08
1.10667e-08
1.18418e-08
1.23513e-08
1.29612e-08
1.45468e-08
2.05374e-08
1.73661e-08
1.68543e-08
1.59454e-08
1.53559e-08
1.42446e-08
1.35154e-08
1.17784e-08
1.04923e-08
8.64038e-09
7.65491e-09
6.63546e-09
5.35475e-09
4.51199e-09
3.81414e-09
3.44112e-09
3.24875e-09
3.66706e-09
4.39902e-09
5.30443e-09
6.34484e-09
7.96455e-09
9.03736e-09
1.0178e-08
1.09467e-08
1.18832e-08
1.252e-08
1.30246e-08
1.37022e-08
1.55931e-08
2.04759e-08
1.72769e-08
1.68861e-08
1.61466e-08
1.55954e-08
1.44504e-08
1.37512e-08
1.22866e-08
1.11737e-08
8.67273e-09
6.65611e-09
4.52347e-09
2.98742e-09
1.92502e-09
1.50065e-09
1.16553e-09
1.31799e-09
2.34067e-09
3.15282e-09
4.71003e-09
6.23982e-09
8.38541e-09
9.67128e-09
1.0835e-08
1.14629e-08
1.23582e-08
1.2994e-08
1.3582e-08
1.43354e-08
1.65587e-08
1.93772e-08
1.64894e-08
1.60542e-08
1.54372e-08
1.49264e-08
1.39821e-08
1.33013e-08
1.21001e-08
1.11841e-08
8.90341e-09
6.82109e-09
4.84628e-09
3.51199e-09
2.15903e-09
1.10943e-09
9.71154e-10
1.88626e-09
2.9564e-09
3.66186e-09
5.15536e-09
6.62423e-09
8.81968e-09
1.02721e-08
1.15355e-08
1.21784e-08
1.30367e-08
1.36832e-08
1.42966e-08
1.50148e-08
1.7484e-08
1.9437e-08
1.64571e-08
1.59563e-08
1.53255e-08
1.48499e-08
1.39312e-08
1.32347e-08
1.18925e-08
1.07429e-08
8.62804e-09
6.86759e-09
5.11611e-09
3.92868e-09
2.36115e-09
7.956e-10
1.05222e-09
2.15361e-09
3.43444e-09
4.05428e-09
5.52471e-09
6.8723e-09
9.0473e-09
1.03306e-08
1.15971e-08
1.21997e-08
1.30998e-08
1.37316e-08
1.43793e-08
1.49765e-08
1.73553e-08
1.80023e-08
1.54512e-08
1.49146e-08
1.4375e-08
1.39061e-08
1.3076e-08
1.24445e-08
1.13124e-08
1.00564e-08
7.88061e-09
5.78689e-09
4.02561e-09
2.97262e-09
1.75986e-09
1.06895e-09
1.29285e-09
2.09995e-09
3.71506e-09
4.61241e-09
6.08273e-09
7.43406e-09
9.4036e-09
1.05187e-08
1.16007e-08
1.22332e-08
1.31774e-08
1.38669e-08
1.44519e-08
1.49515e-08
1.72187e-08
1.73204e-08
1.49878e-08
1.44271e-08
1.38552e-08
1.33344e-08
1.23995e-08
1.16899e-08
1.0499e-08
9.43222e-09
7.56604e-09
6.04779e-09
4.8506e-09
3.81849e-09
3.23452e-09
3.13127e-09
2.98378e-09
3.04375e-09
4.55983e-09
5.86078e-09
7.23183e-09
7.80723e-09
9.34891e-09
1.01791e-08
1.13607e-08
1.20808e-08
1.30565e-08
1.37777e-08
1.45055e-08
1.51333e-08
1.74359e-08
1.6216e-08
1.42705e-08
1.36511e-08
1.30235e-08
1.23907e-08
1.1457e-08
1.06808e-08
9.54487e-09
8.62488e-09
7.55154e-09
6.88573e-09
6.2352e-09
5.42597e-09
4.90636e-09
4.94145e-09
4.67876e-09
4.64156e-09
5.6441e-09
6.69104e-09
7.51327e-09
7.70474e-09
8.48403e-09
9.14016e-09
1.03165e-08
1.1049e-08
1.18751e-08
1.26167e-08
1.36435e-08
1.46114e-08
1.69909e-08
1.54412e-08
1.35435e-08
1.28249e-08
1.20055e-08
1.12383e-08
1.02598e-08
9.58904e-09
8.6526e-09
7.99006e-09
7.26512e-09
7.13195e-09
6.93247e-09
6.65744e-09
6.65416e-09
6.91594e-09
6.77121e-09
6.77487e-09
7.17313e-09
7.24602e-09
7.34822e-09
7.13804e-09
7.65953e-09
8.13117e-09
9.16223e-09
9.82233e-09
1.06743e-08
1.14474e-08
1.25436e-08
1.35454e-08
1.57252e-08
1.41361e-08
1.24882e-08
1.18588e-08
1.09867e-08
1.01795e-08
9.37069e-09
8.77893e-09
8.01279e-09
7.43642e-09
6.97908e-09
7.00139e-09
6.97054e-09
7.06708e-09
7.5794e-09
8.36486e-09
8.67894e-09
8.67446e-09
8.25941e-09
7.74074e-09
7.32094e-09
6.85558e-09
7.14134e-09
7.55171e-09
8.46997e-09
9.06781e-09
9.91746e-09
1.06468e-08
1.16268e-08
1.25012e-08
1.41298e-08
1.32295e-08
1.18897e-08
1.13374e-08
1.0431e-08
9.64683e-09
8.94428e-09
8.45353e-09
7.83784e-09
7.3999e-09
7.06653e-09
6.8845e-09
6.55821e-09
6.75558e-09
7.54736e-09
8.51937e-09
9.25443e-09
9.2203e-09
8.19588e-09
7.3922e-09
7.13139e-09
6.83849e-09
7.12473e-09
7.37752e-09
8.06422e-09
8.45757e-09
9.16879e-09
9.75147e-09
1.06912e-08
1.15814e-08
1.2877e-08
1.18934e-08
1.08902e-08
1.01838e-08
9.31971e-09
8.76349e-09
8.2377e-09
7.91031e-09
7.54114e-09
7.31766e-09
7.18742e-09
6.90448e-09
6.32988e-09
6.33106e-09
7.09981e-09
8.02864e-09
8.74926e-09
8.65367e-09
7.67494e-09
7.12179e-09
7.19636e-09
7.0827e-09
7.1976e-09
7.21025e-09
7.58755e-09
7.74348e-09
8.25906e-09
8.71883e-09
9.62841e-09
1.05299e-08
1.14588e-08
1.06886e-08
9.89387e-09
9.0133e-09
8.29812e-09
7.9646e-09
7.67384e-09
7.58255e-09
7.46595e-09
7.39847e-09
7.27568e-09
6.85936e-09
6.26726e-09
6.05117e-09
6.50968e-09
7.2293e-09
7.77516e-09
7.7646e-09
7.22782e-09
6.96599e-09
7.22117e-09
7.23048e-09
7.34682e-09
7.23424e-09
7.38339e-09
7.32391e-09
7.55888e-09
7.79306e-09
8.64894e-09
9.57314e-09
1.02449e-08
8.88977e-09
8.50604e-09
7.63805e-09
7.146e-09
6.99243e-09
6.88581e-09
7.00757e-09
7.12727e-09
7.26859e-09
7.15678e-09
6.64343e-09
6.17022e-09
6.18288e-09
6.42002e-09
6.83177e-09
7.06794e-09
7.3081e-09
7.15239e-09
6.89979e-09
6.92629e-09
7.02589e-09
7.20717e-09
7.07861e-09
7.11792e-09
6.89528e-09
6.85719e-09
6.78701e-09
7.55598e-09
8.49288e-09
8.81182e-09
7.44667e-09
7.34737e-09
6.44479e-09
6.12937e-09
6.26406e-09
6.43529e-09
6.6474e-09
6.90305e-09
7.14775e-09
7.15238e-09
6.66005e-09
6.26299e-09
6.42822e-09
6.61341e-09
6.70113e-09
6.65994e-09
7.04132e-09
7.1389e-09
6.7887e-09
6.61129e-09
6.61257e-09
6.86361e-09
6.82198e-09
6.84326e-09
6.55024e-09
6.21117e-09
5.94713e-09
6.56403e-09
7.53544e-09
7.54812e-09
5.69856e-09
5.99146e-09
5.01547e-09
4.89124e-09
5.30491e-09
5.62885e-09
5.96055e-09
6.33617e-09
6.65402e-09
6.84516e-09
6.5335e-09
6.37632e-09
6.65009e-09
6.74667e-09
6.60943e-09
6.36387e-09
6.74554e-09
6.86315e-09
6.67764e-09
6.40585e-09
6.19926e-09
6.21033e-09
6.10968e-09
6.07674e-09
5.79513e-09
5.43445e-09
5.05116e-09
5.40826e-09
6.28345e-09
5.89357e-09
4.06198e-09
4.79933e-09
3.91453e-09
4.26337e-09
4.68981e-09
5.13887e-09
5.59492e-09
6.05336e-09
6.44881e-09
6.68709e-09
6.53602e-09
6.55123e-09
6.82167e-09
6.81291e-09
6.65835e-09
6.35428e-09
6.50107e-09
6.64352e-09
6.6202e-09
6.47307e-09
6.06795e-09
5.90501e-09
5.67997e-09
5.62175e-09
5.42338e-09
5.10523e-09
4.62646e-09
4.29482e-09
5.00632e-09
4.23026e-09
2.06989e-09
3.20169e-09
3.04324e-09
3.68447e-09
4.1588e-09
4.79354e-09
5.34385e-09
5.94226e-09
6.48928e-09
6.8858e-09
6.98848e-09
7.03144e-09
7.1953e-09
7.20812e-09
7.26674e-09
6.97819e-09
6.98291e-09
7.04065e-09
6.98025e-09
6.66392e-09
6.05725e-09
5.75549e-09
5.44765e-09
5.30969e-09
4.9681e-09
4.41305e-09
3.79712e-09
2.96565e-09
3.0901e-09
1.98757e-09
9.4793e-10
1.91234e-09
2.68887e-09
3.39924e-09
4.14822e-09
4.89832e-09
5.56861e-09
6.28754e-09
6.99499e-09
7.41548e-09
7.61034e-09
7.72786e-09
7.75777e-09
7.9368e-09
7.87542e-09
7.50205e-09
7.55452e-09
7.67912e-09
7.60324e-09
6.98976e-09
6.16369e-09
5.77247e-09
5.33219e-09
5.10042e-09
4.48156e-09
3.66166e-09
2.69876e-09
1.86579e-09
1.30201e-09
4.73941e-10
2.31477e-07
2.79078e-07
6.24591e-08
5.42347e-08
2.29936e-08
1.77501e-08
1.14538e-08
1.00642e-08
7.36237e-09
8.15826e-09
7.43114e-09
8.93055e-09
8.28535e-09
9.23566e-09
8.61667e-09
8.80965e-09
8.15483e-09
7.40061e-09
7.04603e-09
6.24915e-09
5.95834e-09
5.50783e-09
5.54443e-09
5.10683e-09
4.85098e-09
4.06963e-09
3.46203e-09
2.61811e-09
2.22194e-09
1.39265e-09
2.76942e-07
5.48379e-08
4.4795e-08
2.10184e-08
1.07261e-08
8.18401e-09
5.68391e-09
4.25419e-09
3.70602e-09
3.60701e-09
3.91708e-09
3.42912e-09
2.84717e-09
2.85947e-09
3.02294e-09
3.11062e-09
2.93893e-09
2.88826e-09
2.60798e-09
2.45139e-09
2.34388e-09
2.81448e-09
3.20476e-09
3.56059e-09
3.46232e-09
3.14807e-09
2.72801e-09
2.40578e-09
3.34871e-09
2.95778e-09
6.06703e-08
4.5577e-08
2.31153e-08
2.09065e-08
1.1277e-08
9.97562e-09
7.0562e-09
5.39202e-09
4.53289e-09
4.58121e-09
5.1189e-09
5.09167e-09
3.86612e-09
2.98067e-09
2.71849e-09
2.593e-09
2.13971e-09
1.76544e-09
1.70344e-09
2.1974e-09
2.50487e-09
3.45762e-09
4.09398e-09
4.23988e-09
4.20458e-09
4.04056e-09
3.35851e-09
3.15537e-09
3.78296e-09
4.77344e-09
5.44278e-08
1.91459e-08
1.92822e-08
1.21472e-08
6.79336e-09
6.48796e-09
4.10615e-09
4.21741e-09
3.94656e-09
4.27096e-09
4.64544e-09
4.89134e-09
3.65257e-09
2.7137e-09
2.33578e-09
2.26313e-09
2.26154e-09
1.74535e-09
1.97674e-09
2.86769e-09
3.51189e-09
4.04483e-09
3.84069e-09
3.79225e-09
4.09475e-09
4.17815e-09
3.65662e-09
3.63816e-09
3.56718e-09
6.01091e-09
2.56248e-08
9.25668e-09
9.20968e-09
7.24475e-09
4.62428e-09
4.94339e-09
3.40476e-09
3.4896e-09
3.0894e-09
3.05206e-09
3.00915e-09
3.3171e-09
2.289e-09
2.12438e-09
2.05824e-09
2.11142e-09
2.23732e-09
1.70693e-09
2.14407e-09
3.12573e-09
3.48792e-09
2.97373e-09
2.16692e-09
2.23673e-09
2.73854e-09
3.23519e-09
3.44683e-09
3.75248e-09
3.35207e-09
7.38448e-09
2.40807e-08
5.80829e-09
8.17226e-09
6.53024e-09
4.46634e-09
4.31513e-09
2.51234e-09
2.60802e-09
1.81322e-09
1.98895e-09
2.14663e-09
2.53512e-09
2.05812e-09
2.09783e-09
2.17005e-09
2.27307e-09
2.40723e-09
2.11668e-09
2.61181e-09
2.94129e-09
2.64106e-09
1.77286e-09
1.10916e-09
1.31619e-09
1.68919e-09
2.44535e-09
3.11772e-09
3.63534e-09
3.13294e-09
8.29755e-09
1.89111e-08
3.68617e-09
5.31121e-09
3.94664e-09
3.23785e-09
3.12053e-09
2.24102e-09
2.27655e-09
1.66918e-09
1.81718e-09
1.95771e-09
2.43652e-09
2.06724e-09
2.23092e-09
2.46448e-09
2.4124e-09
2.52498e-09
2.56288e-09
2.99327e-09
2.52449e-09
1.92307e-09
1.37221e-09
1.09874e-09
1.16496e-09
1.47825e-09
2.4001e-09
3.116e-09
3.54903e-09
3.13114e-09
9.47448e-09
1.98453e-08
1.98658e-09
4.44788e-09
4.35083e-09
3.68837e-09
3.50332e-09
2.67729e-09
2.5941e-09
1.94859e-09
1.97033e-09
2.01041e-09
2.23397e-09
1.77723e-09
1.95578e-09
2.39007e-09
2.21625e-09
2.22734e-09
2.58243e-09
2.81725e-09
2.19412e-09
1.53345e-09
1.3104e-09
1.12425e-09
1.25758e-09
1.68733e-09
2.57889e-09
3.11204e-09
3.42856e-09
3.08348e-09
1.03243e-08
1.73893e-08
2.25008e-09
3.15116e-09
3.09459e-09
3.06959e-09
2.93885e-09
2.5288e-09
2.48619e-09
2.20231e-09
2.21671e-09
2.12747e-09
1.70478e-09
8.92004e-10
2.1583e-09
2.90507e-09
2.48805e-09
1.75897e-09
1.91341e-09
2.33172e-09
2.07006e-09
1.64146e-09
1.54664e-09
1.41356e-09
1.65803e-09
2.0655e-09
2.701e-09
2.96032e-09
3.07749e-09
2.90269e-09
1.13245e-08
1.83738e-08
1.70024e-09
2.46619e-09
2.75568e-09
2.94636e-09
3.07286e-09
2.79667e-09
2.7877e-09
2.65773e-09
2.54998e-09
2.32031e-09
1.40758e-09
1.44266e-09
3.17733e-09
3.88763e-09
3.28083e-09
2.14366e-09
9.53127e-10
1.58778e-09
1.99462e-09
1.74638e-09
1.79836e-09
1.71843e-09
1.98034e-09
2.14418e-09
2.47583e-09
2.4873e-09
2.42413e-09
2.51279e-09
1.19481e-08
1.7203e-08
2.05589e-09
1.89624e-09
1.8735e-09
1.95825e-09
2.33341e-09
2.47274e-09
2.74672e-09
2.86948e-09
2.72506e-09
2.45851e-09
1.90861e-09
2.87977e-09
4.31342e-09
4.89275e-09
4.60384e-09
3.78866e-09
1.74818e-09
1.24817e-09
1.96149e-09
2.10936e-09
2.32158e-09
2.27842e-09
2.43604e-09
2.43338e-09
2.4725e-09
2.25876e-09
2.07666e-09
2.25222e-09
1.25603e-08
1.81588e-08
2.07126e-09
1.58574e-09
1.58103e-09
1.64404e-09
2.13331e-09
2.43947e-09
2.87647e-09
3.32529e-09
3.2996e-09
2.71612e-09
2.65997e-09
3.44662e-09
3.89375e-09
4.12198e-09
4.07812e-09
3.48371e-09
2.35859e-09
1.53476e-09
1.96292e-09
2.47095e-09
2.73478e-09
2.62818e-09
2.59793e-09
2.4979e-09
2.43208e-09
2.09565e-09
2.00814e-09
2.07253e-09
1.29459e-08
1.71831e-08
2.16271e-09
1.49343e-09
1.38366e-09
1.31611e-09
1.57664e-09
1.78118e-09
2.33046e-09
3.00297e-09
3.00795e-09
2.36462e-09
3.45725e-09
3.81023e-09
3.76763e-09
3.65685e-09
3.45627e-09
3.16494e-09
2.58386e-09
2.17603e-09
1.61904e-09
2.43701e-09
2.74073e-09
2.48931e-09
2.23238e-09
2.05071e-09
2.01238e-09
1.81829e-09
1.93866e-09
2.13941e-09
1.37679e-08
1.72188e-08
1.92487e-09
1.48641e-09
1.47413e-09
1.49231e-09
1.46278e-09
1.559e-09
2.08465e-09
2.78938e-09
2.88434e-09
2.97136e-09
3.39575e-09
3.17014e-09
2.98491e-09
2.58898e-09
2.31085e-09
1.76834e-09
1.77245e-09
1.72515e-09
1.62414e-09
1.97159e-09
2.46938e-09
2.20288e-09
1.82919e-09
1.64278e-09
1.67951e-09
1.62109e-09
1.79891e-09
2.1686e-09
1.445e-08
1.64442e-08
2.13064e-09
1.62687e-09
1.56514e-09
1.55785e-09
1.60296e-09
1.69848e-09
2.13672e-09
2.61066e-09
3.07613e-09
3.1838e-09
2.88381e-09
2.41182e-09
2.04206e-09
2.22142e-09
1.97889e-09
1.59381e-09
1.78359e-09
1.85616e-09
2.27644e-09
2.61564e-09
2.67197e-09
2.1636e-09
1.63442e-09
1.49851e-09
1.53101e-09
1.524e-09
1.6747e-09
2.20104e-09
1.50718e-08
1.6495e-08
2.30645e-09
1.79467e-09
1.67625e-09
1.7433e-09
1.87426e-09
2.01705e-09
2.34641e-09
2.82628e-09
3.0997e-09
2.68471e-09
1.91825e-09
1.61898e-09
1.61893e-09
2.1242e-09
2.16955e-09
1.84466e-09
2.01209e-09
2.24164e-09
2.73713e-09
2.85378e-09
2.70586e-09
2.02424e-09
1.36258e-09
1.18327e-09
1.30085e-09
1.34976e-09
1.44464e-09
1.88917e-09
1.49485e-08
1.55813e-08
2.37225e-09
2.0279e-09
1.87869e-09
1.9747e-09
2.08104e-09
2.19668e-09
2.54278e-09
2.94834e-09
2.72602e-09
2.34051e-09
2.15482e-09
2.00834e-09
2.0567e-09
2.55243e-09
2.53453e-09
2.29507e-09
2.40874e-09
2.44305e-09
2.30233e-09
2.35901e-09
2.89329e-09
2.22359e-09
1.47162e-09
1.27759e-09
1.47369e-09
1.64207e-09
1.62573e-09
1.89458e-09
1.49133e-08
1.51113e-08
2.33432e-09
2.2319e-09
2.03506e-09
2.19732e-09
2.2816e-09
2.48321e-09
2.68864e-09
2.99904e-09
2.66475e-09
2.17574e-09
2.21161e-09
2.44055e-09
2.71512e-09
3.1446e-09
3.16597e-09
3.27309e-09
3.06986e-09
2.38217e-09
1.4487e-09
2.69503e-09
3.44139e-09
2.72364e-09
2.2281e-09
1.94077e-09
1.95134e-09
2.12915e-09
2.11014e-09
2.26637e-09
1.49434e-08
1.42081e-08
2.57148e-09
2.6099e-09
2.56265e-09
2.83946e-09
2.86769e-09
2.9395e-09
2.91214e-09
3.08688e-09
2.86449e-09
2.68825e-09
1.88426e-09
2.11474e-09
2.82061e-09
3.51774e-09
3.49985e-09
3.39961e-09
2.81477e-09
1.623e-09
1.61624e-09
2.94074e-09
3.60466e-09
3.07172e-09
2.74299e-09
2.4378e-09
2.44624e-09
2.60619e-09
2.65994e-09
2.71385e-09
1.45888e-08
1.3604e-08
2.66364e-09
2.57123e-09
2.75118e-09
3.01203e-09
2.69791e-09
2.56328e-09
2.33313e-09
2.54996e-09
2.32989e-09
2.44694e-09
1.33423e-09
1.173e-09
2.69881e-09
3.80155e-09
3.98842e-09
3.76477e-09
2.27813e-09
9.46418e-10
1.92681e-09
2.46466e-09
2.98384e-09
2.60106e-09
2.54032e-09
2.3875e-09
2.64342e-09
2.70022e-09
2.59983e-09
2.70901e-09
1.37204e-08
1.2743e-08
2.94357e-09
2.7e-09
3.06216e-09
3.25177e-09
2.53806e-09
2.2057e-09
1.89345e-09
2.10541e-09
1.99994e-09
2.33711e-09
1.70782e-09
8.53673e-10
1.1096e-09
2.53442e-09
3.20847e-09
2.96954e-09
1.02113e-09
1.26839e-09
2.34608e-09
2.28042e-09
2.49609e-09
2.1686e-09
2.3497e-09
2.49145e-09
3.08273e-09
3.04861e-09
2.87978e-09
2.76267e-09
1.2464e-08
1.1942e-08
3.0514e-09
3.1538e-09
3.45821e-09
3.25709e-09
2.34977e-09
1.9749e-09
1.50755e-09
1.68819e-09
1.68698e-09
2.23423e-09
2.29288e-09
1.926e-09
1.25018e-09
1.72821e-09
2.13006e-09
1.73622e-09
1.32507e-09
1.83743e-09
2.236e-09
1.82084e-09
1.94339e-09
1.64162e-09
1.95787e-09
2.19787e-09
3.04595e-09
3.27796e-09
3.25626e-09
2.79463e-09
1.14756e-08
1.09108e-08
3.08772e-09
3.64489e-09
3.54404e-09
2.98777e-09
2.06455e-09
1.72994e-09
1.20424e-09
1.46665e-09
1.54059e-09
2.19414e-09
2.55707e-09
2.42846e-09
2.36148e-09
2.4567e-09
2.45758e-09
1.60788e-09
2.07464e-09
2.55641e-09
2.42866e-09
1.61844e-09
1.59628e-09
1.29955e-09
1.64932e-09
1.8068e-09
2.81632e-09
3.34813e-09
3.52038e-09
2.95536e-09
1.04837e-08
1.00362e-08
3.08488e-09
3.68646e-09
3.0567e-09
2.48328e-09
1.72272e-09
1.54133e-09
1.01229e-09
1.32153e-09
1.54341e-09
2.31145e-09
2.4322e-09
2.31782e-09
2.85017e-09
2.91875e-09
2.53402e-09
1.8219e-09
2.60558e-09
3.06552e-09
3.09027e-09
2.08094e-09
1.49954e-09
1.0711e-09
1.39965e-09
1.47136e-09
2.4576e-09
3.22192e-09
3.64154e-09
3.00781e-09
9.5861e-09
8.6625e-09
3.16114e-09
3.62515e-09
2.68181e-09
2.12058e-09
1.5424e-09
1.7578e-09
1.44354e-09
1.646e-09
1.83029e-09
2.51095e-09
2.2421e-09
2.07557e-09
2.91191e-09
2.97927e-09
2.45308e-09
2.13541e-09
2.67717e-09
3.17244e-09
3.74161e-09
3.06707e-09
2.16875e-09
1.41534e-09
1.71222e-09
1.8261e-09
2.74578e-09
3.35672e-09
3.95717e-09
3.25407e-09
8.54704e-09
7.57753e-09
3.13693e-09
3.4217e-09
2.45473e-09
2.1072e-09
1.85822e-09
2.26101e-09
2.19266e-09
2.54709e-09
2.54344e-09
2.70268e-09
1.90888e-09
1.91817e-09
2.76527e-09
2.89342e-09
2.46668e-09
2.24247e-09
2.49408e-09
2.96038e-09
3.83203e-09
3.75727e-09
3.4039e-09
2.64024e-09
2.81246e-09
3.0037e-09
3.63696e-09
3.58341e-09
4.07904e-09
3.53253e-09
7.5914e-09
6.33247e-09
3.33704e-09
3.40032e-09
2.65597e-09
2.89053e-09
2.89251e-09
3.2565e-09
3.28822e-09
3.85709e-09
3.89291e-09
3.5369e-09
1.9151e-09
1.77744e-09
2.66198e-09
3.22111e-09
2.88607e-09
2.76783e-09
3.10516e-09
3.40251e-09
4.09691e-09
4.13671e-09
4.50947e-09
4.38272e-09
4.67334e-09
4.66036e-09
4.69885e-09
3.82493e-09
3.98673e-09
3.85525e-09
6.31993e-09
5.23442e-09
3.72734e-09
3.33129e-09
3.09759e-09
3.38755e-09
3.20694e-09
3.4022e-09
3.3715e-09
3.94867e-09
4.15819e-09
3.91737e-09
2.20707e-09
1.76426e-09
2.59456e-09
3.12636e-09
2.71418e-09
2.58085e-09
3.06774e-09
3.19583e-09
3.39362e-09
3.16456e-09
3.74961e-09
4.09547e-09
4.80671e-09
4.64611e-09
4.38756e-09
3.34068e-09
3.23383e-09
3.91084e-09
5.06368e-09
3.58611e-09
3.73532e-09
2.91871e-09
3.14107e-09
3.18194e-09
3.0303e-09
3.27114e-09
3.33837e-09
3.86501e-09
4.13308e-09
4.14786e-09
3.27385e-09
3.10905e-09
2.88046e-09
2.70387e-09
2.17215e-09
2.28263e-09
2.67362e-09
2.64461e-09
2.74012e-09
2.43892e-09
2.93879e-09
3.03353e-09
3.6345e-09
3.48596e-09
3.25085e-09
2.66286e-09
2.39041e-09
3.3311e-09
3.14578e-09
2.19636e-09
2.94905e-09
3.27057e-09
3.84985e-09
4.32706e-09
4.94419e-09
5.51929e-09
6.39585e-09
7.05587e-09
7.9254e-09
7.83573e-09
7.86816e-09
7.38636e-09
7.47146e-09
7.32747e-09
7.06345e-09
7.16166e-09
7.01877e-09
7.23366e-09
6.71999e-09
6.28152e-09
5.73046e-09
5.4103e-09
5.12063e-09
4.77478e-09
4.07298e-09
3.33818e-09
2.45988e-09
2.09363e-09
1.47217e-09
2.388e-07
6.25275e-08
5.5609e-08
3.49746e-08
2.4585e-08
1.89667e-08
1.27819e-08
1.08273e-08
7.14548e-09
7.21026e-09
6.43647e-09
6.85691e-09
6.85404e-09
6.17511e-09
6.26483e-09
6.36334e-09
5.93027e-09
6.50331e-09
5.56554e-09
6.16586e-09
4.65075e-09
5.3515e-09
4.87785e-09
5.78332e-09
5.24696e-09
4.92752e-09
4.01929e-09
3.14153e-09
2.39408e-09
1.98314e-09
6.05551e-08
4.57873e-08
2.3728e-08
2.14729e-08
1.00836e-08
8.63163e-09
6.03816e-09
5.08197e-09
4.78704e-09
4.28444e-09
3.45131e-09
2.63173e-09
2.09816e-09
2.33531e-09
2.68831e-09
2.321e-09
2.52307e-09
2.57297e-09
2.58947e-09
1.97774e-09
1.34592e-09
1.686e-09
2.45975e-09
2.83792e-09
2.64901e-09
2.18473e-09
2.06932e-09
2.13668e-09
2.5749e-09
2.79867e-09
5.44199e-08
2.43265e-08
2.1179e-08
2.00571e-08
1.25985e-08
1.04568e-08
7.07708e-09
5.82966e-09
5.59393e-09
5.80328e-09
5.23112e-09
4.49128e-09
3.48911e-09
3.18298e-09
3.0696e-09
2.85985e-09
3.16975e-09
2.79986e-09
2.80278e-09
2.41095e-09
2.2236e-09
2.71223e-09
3.94954e-09
4.39486e-09
3.43503e-09
2.51207e-09
2.67563e-09
3.49028e-09
3.24118e-09
4.18826e-09
3.71429e-08
1.99941e-08
1.87779e-08
1.46762e-08
9.22763e-09
8.08392e-09
5.17253e-09
4.5307e-09
3.9732e-09
4.93687e-09
5.57447e-09
5.76636e-09
4.92972e-09
4.19843e-09
3.5611e-09
3.31751e-09
3.18156e-09
2.56794e-09
2.80109e-09
2.51072e-09
2.16316e-09
3.69045e-09
5.31013e-09
5.35958e-09
4.35614e-09
3.12687e-09
3.12216e-09
3.71865e-09
3.48217e-09
5.36262e-09
2.76977e-08
9.81439e-09
1.08982e-08
8.72697e-09
6.66449e-09
6.46478e-09
4.82134e-09
4.33835e-09
3.74441e-09
4.66115e-09
6.00063e-09
6.23536e-09
4.68176e-09
3.84482e-09
3.26148e-09
3.03833e-09
2.67023e-09
2.2465e-09
2.68132e-09
2.83144e-09
3.84779e-09
4.93938e-09
5.32159e-09
5.14355e-09
4.72848e-09
3.73332e-09
3.65755e-09
3.28268e-09
3.57181e-09
6.64056e-09
2.4838e-08
7.93676e-09
9.62244e-09
7.5397e-09
5.84283e-09
4.91872e-09
3.42272e-09
2.81809e-09
2.24524e-09
3.01009e-09
4.13049e-09
4.18414e-09
2.82342e-09
2.3734e-09
1.91024e-09
1.9923e-09
1.96754e-09
1.99167e-09
2.16989e-09
2.88083e-09
3.41272e-09
3.24483e-09
2.75758e-09
2.96813e-09
3.53565e-09
3.69071e-09
3.82588e-09
2.7579e-09
3.5263e-09
7.53744e-09
1.96694e-08
4.71879e-09
5.80252e-09
4.39333e-09
3.81296e-09
3.36705e-09
2.40127e-09
2.18688e-09
1.88782e-09
2.32724e-09
2.98669e-09
3.22983e-09
2.16997e-09
2.02401e-09
1.77083e-09
1.84678e-09
1.84306e-09
1.82077e-09
2.38704e-09
2.72908e-09
2.24639e-09
1.56029e-09
1.06991e-09
1.54162e-09
2.78895e-09
3.56752e-09
3.54262e-09
2.33594e-09
3.50533e-09
8.63404e-09
1.99513e-08
3.39184e-09
4.60897e-09
4.65385e-09
4.3183e-09
3.82607e-09
2.83521e-09
2.57547e-09
2.01604e-09
2.0599e-09
2.38956e-09
2.82057e-09
2.03927e-09
2.19891e-09
1.54901e-09
1.28219e-09
1.15792e-09
1.72437e-09
2.50097e-09
2.25843e-09
1.34869e-09
9.46441e-10
8.13372e-10
1.40118e-09
2.59436e-09
3.21434e-09
3.06565e-09
2.20138e-09
3.37915e-09
9.48256e-09
1.70575e-08
2.91318e-09
2.66535e-09
2.41482e-09
2.76712e-09
3.00084e-09
2.51661e-09
2.36817e-09
1.99133e-09
2.01798e-09
2.08976e-09
2.23921e-09
2.00649e-09
2.52424e-09
1.65645e-09
1.08804e-09
1.13375e-09
1.16537e-09
1.92455e-09
1.80273e-09
1.30098e-09
1.12326e-09
1.21159e-09
1.74393e-09
2.47474e-09
2.74992e-09
2.71568e-09
2.1678e-09
3.12969e-09
1.05518e-08
1.7567e-08
2.64991e-09
2.29154e-09
1.87478e-09
2.12139e-09
2.74684e-09
2.74974e-09
2.64859e-09
2.19606e-09
2.09639e-09
1.87448e-09
2.04552e-09
2.14008e-09
2.57439e-09
2.51665e-09
1.83266e-09
2.04295e-09
1.57572e-09
1.25781e-09
1.21105e-09
1.2252e-09
1.21637e-09
1.50971e-09
1.95102e-09
2.11877e-09
2.15266e-09
2.07802e-09
1.6727e-09
2.67323e-09
1.13771e-08
1.61786e-08
2.47674e-09
1.69126e-09
1.38704e-09
1.16745e-09
1.46582e-09
1.99734e-09
2.47233e-09
2.27831e-09
2.17282e-09
2.43401e-09
3.22328e-09
3.48318e-09
4.17163e-09
4.45292e-09
3.96104e-09
3.76173e-09
2.92107e-09
2.41481e-09
1.83642e-09
1.70561e-09
1.70182e-09
1.92113e-09
2.02743e-09
1.82947e-09
1.76767e-09
1.65842e-09
1.3382e-09
2.26243e-09
1.20947e-08
1.71798e-08
2.26653e-09
1.31305e-09
1.22396e-09
9.08298e-10
9.86147e-10
1.71235e-09
2.4146e-09
2.3117e-09
2.75783e-09
3.58954e-09
3.67321e-09
4.22524e-09
4.91507e-09
5.23938e-09
5.21644e-09
4.52538e-09
3.36066e-09
2.92432e-09
2.65853e-09
2.20024e-09
1.83964e-09
1.77987e-09
1.69923e-09
1.53794e-09
1.56264e-09
1.49975e-09
1.23844e-09
1.81314e-09
1.25019e-08
1.63681e-08
1.8754e-09
9.21623e-10
9.67801e-10
7.24574e-10
4.99075e-10
1.16386e-09
2.19677e-09
1.89805e-09
2.89773e-09
3.93058e-09
4.26443e-09
5.34519e-09
5.9186e-09
5.99613e-09
5.79948e-09
5.36197e-09
4.29243e-09
3.50483e-09
3.00937e-09
2.55223e-09
1.59444e-09
1.45454e-09
1.33389e-09
1.14835e-09
1.16222e-09
1.17692e-09
9.67889e-10
1.78078e-09
1.3279e-08
1.66021e-08
1.73712e-09
7.52516e-10
7.62067e-10
8.11206e-10
7.47116e-10
1.23794e-09
2.22356e-09
2.18405e-09
2.67156e-09
3.34169e-09
4.54571e-09
5.16007e-09
5.84921e-09
5.83048e-09
5.63845e-09
5.13091e-09
4.32416e-09
3.96658e-09
2.51118e-09
2.30388e-09
1.64375e-09
1.08516e-09
8.64559e-10
8.78666e-10
8.32105e-10
7.35694e-10
5.05922e-10
1.77004e-09
1.38355e-08
1.57195e-08
2.05624e-09
9.32513e-10
8.42207e-10
8.55227e-10
9.48511e-10
1.17695e-09
1.51077e-09
2.09729e-09
3.03327e-09
3.60317e-09
4.23914e-09
3.87745e-09
4.54144e-09
5.17806e-09
5.266e-09
4.55031e-09
4.00362e-09
4.10962e-09
3.44641e-09
3.08215e-09
2.18196e-09
1.34538e-09
8.6673e-10
8.86367e-10
7.53756e-10
5.92035e-10
5.13055e-10
1.79625e-09
1.43514e-08
1.57166e-08
2.26889e-09
8.71181e-10
8.15624e-10
9.52649e-10
1.21852e-09
1.30552e-09
1.58666e-09
2.38841e-09
3.31566e-09
3.53344e-09
3.84405e-09
3.36217e-09
4.15695e-09
5.03993e-09
5.19012e-09
4.53796e-09
4.00841e-09
4.38335e-09
3.76221e-09
3.18213e-09
2.35382e-09
1.29406e-09
7.9603e-10
8.07995e-10
6.66214e-10
6.42943e-10
4.81709e-10
1.57409e-09
1.42617e-08
1.49249e-08
2.41319e-09
1.00615e-09
1.14196e-09
1.13733e-09
1.42418e-09
1.37533e-09
1.57462e-09
2.0782e-09
2.7431e-09
2.94363e-09
4.02049e-09
4.05256e-09
4.82447e-09
5.36732e-09
5.51633e-09
5.26764e-09
4.42467e-09
4.23827e-09
2.75483e-09
2.89619e-09
2.26681e-09
1.35345e-09
9.62046e-10
7.98795e-10
6.54393e-10
1.08346e-09
9.85918e-10
1.59039e-09
1.42892e-08
1.46001e-08
2.41922e-09
1.39368e-09
1.52153e-09
1.30877e-09
1.46922e-09
1.63789e-09
1.77399e-09
1.89705e-09
2.86484e-09
3.41534e-09
3.66048e-09
4.13848e-09
4.96472e-09
5.57976e-09
5.78169e-09
5.34382e-09
4.30793e-09
3.54275e-09
2.70424e-09
3.0208e-09
2.04742e-09
1.82104e-09
1.51233e-09
1.05982e-09
1.0681e-09
1.77523e-09
1.71929e-09
2.1028e-09
1.41298e-08
1.35514e-08
2.60352e-09
1.73596e-09
1.81371e-09
1.88576e-09
2.17193e-09
2.26319e-09
2.25092e-09
2.17777e-09
2.59946e-09
3.0509e-09
3.11967e-09
3.12597e-09
4.09374e-09
5.07263e-09
5.46892e-09
4.60053e-09
3.57038e-09
2.96379e-09
2.79067e-09
2.74356e-09
2.45093e-09
2.11462e-09
1.81824e-09
1.53017e-09
1.48329e-09
1.98949e-09
1.89265e-09
2.65802e-09
1.35917e-08
1.27981e-08
2.74072e-09
1.75515e-09
1.72681e-09
2.27741e-09
2.61065e-09
2.28228e-09
2.01919e-09
1.81293e-09
1.88802e-09
1.95472e-09
2.46096e-09
2.3392e-09
3.09813e-09
4.00737e-09
4.85021e-09
4.26645e-09
3.27859e-09
2.64928e-09
2.19647e-09
2.24157e-09
2.23986e-09
2.16305e-09
2.11815e-09
2.21002e-09
1.94903e-09
1.79994e-09
1.58614e-09
2.84395e-09
1.26383e-08
1.19027e-08
3.13013e-09
2.08579e-09
1.95645e-09
2.88861e-09
3.15454e-09
2.31158e-09
1.70634e-09
1.43555e-09
1.42866e-09
1.36738e-09
1.69693e-09
1.70199e-09
2.3325e-09
2.1215e-09
2.85004e-09
2.6578e-09
2.52839e-09
2.01325e-09
1.74406e-09
1.99062e-09
1.8942e-09
1.95998e-09
2.38772e-09
3.02929e-09
2.79673e-09
2.0058e-09
1.52509e-09
2.83553e-09
1.13678e-08
1.10572e-08
3.16633e-09
2.09391e-09
2.67363e-09
3.49549e-09
3.13091e-09
2.12905e-09
1.53767e-09
1.25151e-09
1.25575e-09
1.66096e-09
2.23686e-09
1.572e-09
1.81937e-09
2.35359e-09
2.4485e-09
2.33855e-09
2.51445e-09
2.27833e-09