/*--------------------------------*- C++ -*----------------------------------*\
| =========                 |                                                 |
| \\      /  F ield         | OpenFOAM: The Open Source CFD Toolbox           |
|  \\    /   O peration     | Version:  v1906                                 |
|   \\  /    A nd           | Web:      www.OpenFOAM.com                      |
|    \\/     M anipulation  |                                                 |
\*---------------------------------------------------------------------------*/
FoamFile
{
    version     2.0;
    format      ascii;
    class       volVectorField;
    location    "2.8/oil";
    object      U;
}
// * * * * * * * * * * * * * * * * * * * * * * * * * * * * * * * * * * * * * //

dimensions      [0 1 -1 0 0 0 0];


internalField   nonuniform List<vector> 
27760
(
(-3.73135e-05 -3.80815e-05 -3.73135e-05)
(-7.37266e-05 -2.85947e-05 -2.68713e-05)
(-5.50192e-06 -7.43802e-06 -7.30069e-06)
(-9.11531e-06 -1.24247e-06 -1.2602e-06)
(-2.39934e-06 -4.30104e-07 -4.42695e-07)
(-1.53023e-06 -2.16297e-07 -2.18392e-07)
(-7.48697e-07 -9.1602e-08 -8.83603e-08)
(-4.20777e-07 -4.4935e-08 -3.94653e-08)
(-2.43711e-07 -2.31662e-08 -1.67885e-08)
(-1.50511e-07 -1.33151e-08 -6.52714e-09)
(-9.80682e-08 -8.57677e-09 -1.55058e-09)
(-6.75997e-08 -6.24599e-09 9.56244e-10)
(-4.91927e-08 -5.05278e-09 2.28883e-09)
(-3.77128e-08 -4.41856e-09 3.02349e-09)
(-3.03168e-08 -4.06339e-09 3.43198e-09)
(-2.53755e-08 -3.85224e-09 3.6422e-09)
(-2.19034e-08 -3.72059e-09 3.71984e-09)
(-1.92429e-08 -3.6358e-09 3.70497e-09)
(-1.69181e-08 -3.58593e-09 3.62352e-09)
(-1.45778e-08 -3.56717e-09 3.49813e-09)
(-1.1994e-08 -3.5727e-09 3.35649e-09)
(-9.10954e-09 -3.58803e-09 3.22812e-09)
(-6.08985e-09 -3.58607e-09 3.13895e-09)
(-3.33744e-09 -3.53144e-09 3.09817e-09)
(-1.39471e-09 -3.39553e-09 3.08584e-09)
(-6.99601e-10 -3.1822e-09 3.04669e-09)
(-1.2406e-09 -2.95027e-09 2.90726e-09)
(-2.28142e-09 -2.80202e-09 2.61371e-09)
(-2.56064e-09 -2.76467e-09 2.15426e-09)
(-1.08971e-09 -2.335e-09 1.26936e-09)
(-2.71088e-05 -7.57142e-05 -2.71088e-05)
(-9.01179e-06 -9.6378e-06 -1.2146e-05)
(-1.24055e-05 -1.16142e-05 -4.24197e-06)
(-6.24675e-06 -3.09932e-06 -1.20241e-06)
(-3.1959e-06 -1.72908e-06 -5.84617e-07)
(-1.9447e-06 -7.82207e-07 -2.75514e-07)
(-1.12288e-06 -3.93271e-07 -1.28074e-07)
(-6.96012e-07 -2.02459e-07 -6.26039e-08)
(-4.45129e-07 -1.09568e-07 -3.07275e-08)
(-2.98039e-07 -6.19646e-08 -1.53581e-08)
(-2.07756e-07 -3.67137e-08 -7.59511e-09)
(-1.50655e-07 -2.27946e-08 -3.55625e-09)
(-1.13192e-07 -1.48571e-08 -1.36519e-09)
(-8.7709e-08 -1.01865e-08 -1.35517e-10)
(-6.96832e-08 -7.36169e-09 5.66813e-10)
(-5.63858e-08 -5.6194e-09 9.60907e-10)
(-4.61027e-08 -4.54885e-09 1.15918e-09)
(-3.76732e-08 -3.93769e-09 1.21803e-09)
(-3.0259e-08 -3.66271e-09 1.17468e-09)
(-2.32402e-08 -3.62811e-09 1.05605e-09)
(-1.62261e-08 -3.70432e-09 8.9489e-10)
(-9.13954e-09 -3.70416e-09 7.28866e-10)
(-2.30622e-09 -3.39738e-09 6.01236e-10)
(3.52686e-09 -2.60275e-09 5.49757e-10)
(7.36547e-09 -1.35215e-09 5.93339e-10)
(8.39207e-09 -6.6432e-11 7.2021e-10)
(6.55572e-09 4.16676e-10 8.89292e-10)
(3.02263e-09 -8.10955e-10 1.04653e-09)
(-9.23e-11 -3.7846e-09 1.13624e-09)
(-5.82839e-10 -5.45982e-09 8.43214e-10)
(-7.52552e-06 -6.8301e-06 -7.52552e-06)
(-1.20644e-05 -1.26564e-05 -4.38236e-06)
(-6.7735e-06 -6.55654e-06 -1.95776e-06)
(-4.67064e-06 -3.19389e-06 -9.4422e-07)
(-2.80289e-06 -1.78672e-06 -4.62854e-07)
(-1.81173e-06 -9.3552e-07 -2.30274e-07)
(-1.15204e-06 -5.14647e-07 -1.1496e-07)
(-7.65945e-07 -2.86284e-07 -5.98421e-08)
(-5.22533e-07 -1.62451e-07 -3.19824e-08)
(-3.69082e-07 -9.27179e-08 -1.79685e-08)
(-2.6885e-07 -5.23721e-08 -1.06354e-08)
(-2.01576e-07 -2.83497e-08 -6.69651e-09)
(-1.54833e-07 -1.37093e-08 -4.50179e-09)
(-1.21163e-07 -4.6077e-09 -3.23652e-09)
(-9.59557e-08 1.13204e-09 -2.48956e-09)
(-7.63373e-08 4.77301e-09 -2.04307e-09)
(-6.04787e-08 7.03748e-09 -1.78771e-09)
(-4.71227e-08 8.32762e-09 -1.66769e-09)
(-3.53476e-08 8.9105e-09 -1.65013e-09)
(-2.44747e-08 9.02528e-09 -1.7155e-09)
(-1.40816e-08 8.99327e-09 -1.83754e-09)
(-4.10357e-09 9.24464e-09 -1.98407e-09)
(5.07033e-09 1.02539e-08 -2.11035e-09)
(1.25801e-08 1.23093e-08 -2.16403e-09)
(1.72886e-08 1.51493e-08 -2.09191e-09)
(1.82389e-08 1.76274e-08 -1.85286e-09)
(1.52912e-08 1.77438e-08 -1.43067e-09)
(9.61046e-09 1.34573e-08 -8.43726e-10)
(3.55813e-09 4.51878e-09 -1.69963e-10)
(5.67942e-12 -4.05307e-09 3.14681e-10)
(-1.39044e-06 -9.66946e-06 -1.39044e-06)
(-3.4607e-06 -6.4554e-06 -1.29437e-06)
(-3.39775e-06 -4.60037e-06 -9.65207e-07)
(-2.79631e-06 -2.66232e-06 -5.43336e-07)
(-1.96776e-06 -1.59958e-06 -2.97162e-07)
(-1.40885e-06 -9.21732e-07 -1.61775e-07)
(-9.88314e-07 -5.41115e-07 -8.76199e-08)
(-7.08398e-07 -3.16126e-07 -4.8999e-08)
(-5.15602e-07 -1.8355e-07 -2.83112e-08)
(-3.83821e-07 -1.03218e-07 -1.73126e-08)
(-2.9165e-07 -5.3566e-08 -1.12972e-08)
(-2.25813e-07 -2.22418e-08 -7.94221e-09)
(-1.77369e-07 -2.18691e-09 -6.01604e-09)
(-1.4055e-07 1.0798e-08 -4.87506e-09)
(-1.116e-07 1.9249e-08 -4.18092e-09)
(-8.81032e-08 2.47332e-08 -3.74374e-09)
(-6.85058e-08 2.81882e-08 -3.46821e-09)
(-5.17113e-08 3.01739e-08 -3.31382e-09)
(-3.68951e-08 3.10984e-08 -3.25429e-09)
(-2.34371e-08 3.13629e-08 -3.28061e-09)
(-1.09467e-08 3.15086e-08 -3.37315e-09)
(6.22854e-10 3.22299e-08 -3.5064e-09)
(1.08855e-08 3.42373e-08 -3.63655e-09)
(1.90048e-08 3.78698e-08 -3.70386e-09)
(2.38797e-08 4.2524e-08 -3.63429e-09)
(2.457e-08 4.6173e-08 -3.35339e-09)
(2.08991e-08 4.54909e-08 -2.80846e-09)
(1.39275e-08 3.71312e-08 -1.99122e-09)
(6.03239e-09 2.03512e-08 -9.8452e-10)
(4.03182e-10 1.22042e-09 -1.57018e-11)
(-4.93905e-07 -2.65594e-06 -4.93914e-07)
(-1.90367e-06 -3.27156e-06 -6.28194e-07)
(-1.92528e-06 -2.73213e-06 -4.79197e-07)
(-1.73008e-06 -1.83555e-06 -3.01516e-07)
(-1.35794e-06 -1.21213e-06 -1.79426e-07)
(-1.05429e-06 -7.62557e-07 -1.05143e-07)
(-7.99698e-07 -4.75987e-07 -6.11041e-08)
(-6.11039e-07 -2.90166e-07 -3.64919e-08)
(-4.70123e-07 -1.70785e-07 -2.2519e-08)
(-3.66387e-07 -9.27944e-08 -1.46684e-08)
(-2.89016e-07 -4.12628e-08 -1.01694e-08)
(-2.30406e-07 -6.83838e-09 -7.55718e-09)
(-1.84886e-07 1.62831e-08 -6.00967e-09)
(-1.48532e-07 3.18511e-08 -5.06597e-09)
(-1.18672e-07 4.23015e-08 -4.4748e-09)
(-9.3562e-08 4.92491e-08 -4.08162e-09)
(-7.21083e-08 5.37126e-08 -3.81193e-09)
(-5.35063e-08 5.63303e-08 -3.6458e-09)
(-3.71157e-08 5.76234e-08 -3.56486e-09)
(-2.24302e-08 5.81432e-08 -3.5723e-09)
(-9.11452e-09 5.86448e-08 -3.6529e-09)
(2.86842e-09 6.00657e-08 -3.78741e-09)
(1.31827e-08 6.33068e-08 -3.93395e-09)
(2.11025e-08 6.8691e-08 -4.03118e-09)
(2.56799e-08 7.52055e-08 -3.99654e-09)
(2.61101e-08 7.99012e-08 -3.73986e-09)
(2.22557e-08 7.81229e-08 -3.18953e-09)
(1.50712e-08 6.52057e-08 -2.32224e-09)
(6.78254e-09 3.97682e-08 -1.21956e-09)
(5.51076e-10 8.38387e-09 -1.00855e-10)
(-2.40831e-07 -1.61965e-06 -2.40843e-07)
(-8.65007e-07 -1.93422e-06 -2.97121e-07)
(-1.02485e-06 -1.70809e-06 -2.4009e-07)
(-1.03083e-06 -1.25238e-06 -1.65059e-07)
(-8.99568e-07 -8.80726e-07 -1.05562e-07)
(-7.57452e-07 -5.88308e-07 -6.61715e-08)
(-6.18078e-07 -3.83263e-07 -4.10051e-08)
(-5.01472e-07 -2.39554e-07 -2.5917e-08)
(-4.06102e-07 -1.39959e-07 -1.68194e-08)
(-3.30205e-07 -7.03023e-08 -1.14124e-08)
(-2.69708e-07 -2.13747e-08 -8.16509e-09)
(-2.21066e-07 1.30706e-08 -6.20498e-09)
(-1.81196e-07 3.72414e-08 -5.01355e-09)
(-1.47773e-07 5.41086e-08 -4.26861e-09)
(-1.19161e-07 6.57611e-08 -3.7924e-09)
(-9.43154e-08 7.36981e-08 -3.45565e-09)
(-7.26662e-08 7.89121e-08 -3.2035e-09)
(-5.37443e-08 8.20526e-08 -3.04022e-09)
(-3.71192e-08 8.37176e-08 -2.95413e-09)
(-2.24098e-08 8.45841e-08 -2.96156e-09)
(-9.33243e-09 8.55968e-08 -3.04834e-09)
(2.15446e-09 8.78919e-08 -3.19954e-09)
(1.17958e-08 9.25031e-08 -3.37422e-09)
(1.90234e-08 9.96757e-08 -3.51318e-09)
(2.31025e-08 1.07955e-07 -3.53366e-09)
(2.34288e-08 1.13502e-07 -3.34269e-09)
(1.99536e-08 1.10436e-07 -2.86254e-09)
(1.35325e-08 9.28959e-08 -2.06492e-09)
(6.10289e-09 5.89077e-08 -1.02894e-09)
(5.03784e-10 1.5467e-08 -3.88095e-12)
(-9.97568e-08 -7.70835e-07 -9.97713e-08)
(-4.31048e-07 -1.06136e-06 -1.38797e-07)
(-5.72114e-07 -1.01423e-06 -1.19802e-07)
(-6.28373e-07 -8.03127e-07 -8.88152e-08)
(-5.97053e-07 -5.97445e-07 -6.06556e-08)
(-5.38738e-07 -4.19056e-07 -4.04377e-08)
(-4.67897e-07 -2.81874e-07 -2.64981e-08)
(-4.00101e-07 -1.77851e-07 -1.7524e-08)
(-3.39028e-07 -1.00068e-07 -1.17622e-08)
(-2.86401e-07 -4.17934e-08 -8.13301e-09)
(-2.41537e-07 1.70301e-09 -5.84724e-09)
(-2.03252e-07 3.39353e-08 -4.41426e-09)
(-1.70135e-07 5.7522e-08 -3.5284e-09)
(-1.41018e-07 7.45502e-08 -2.96432e-09)
(-1.15068e-07 8.66396e-08 -2.60197e-09)
(-9.18468e-08 9.50771e-08 -2.32454e-09)
(-7.12808e-08 1.00755e-07 -2.09358e-09)
(-5.32172e-08 1.04279e-07 -1.94298e-09)
(-3.74103e-08 1.0629e-07 -1.86446e-09)
(-2.35842e-08 1.07561e-07 -1.88869e-09)
(-1.14865e-08 1.09186e-07 -1.99777e-09)
(-1.05937e-09 1.12453e-07 -2.17894e-09)
(7.53465e-09 1.18465e-07 -2.3909e-09)
(1.38923e-08 1.2734e-07 -2.57775e-09)
(1.75017e-08 1.37176e-07 -2.66108e-09)
(1.79684e-08 1.43326e-07 -2.55277e-09)
(1.53373e-08 1.38856e-07 -2.17701e-09)
(1.03559e-08 1.16927e-07 -1.50698e-09)
(4.58252e-09 7.51556e-08 -6.19411e-10)
(3.47238e-10 2.11685e-08 1.86072e-10)
(-4.61037e-08 -4.12121e-07 -4.61195e-08)
(-2.19115e-07 -6.04768e-07 -6.80217e-08)
(-3.24597e-07 -6.02286e-07 -6.159e-08)
(-3.86222e-07 -4.99303e-07 -4.84234e-08)
(-3.95683e-07 -3.84948e-07 -3.4973e-08)
(-3.79952e-07 -2.7822e-07 -2.45251e-08)
(-3.48778e-07 -1.89656e-07 -1.67639e-08)
(-3.12656e-07 -1.1742e-07 -1.13965e-08)
(-2.75998e-07 -5.92513e-08 -7.72146e-09)
(-2.41466e-07 -1.25873e-08 -5.26453e-09)
(-2.0983e-07 2.43931e-08 -3.64235e-09)
(-1.81107e-07 5.31929e-08 -2.58845e-09)
(-1.54852e-07 7.51252e-08 -1.93529e-09)
(-1.30623e-07 9.14735e-08 -1.51743e-09)
(-1.0814e-07 1.03382e-07 -1.25726e-09)
(-8.74183e-08 1.11895e-07 -1.03489e-09)
(-6.88183e-08 1.17768e-07 -8.23581e-10)
(-5.24409e-08 1.21532e-07 -6.94346e-10)
(-3.8171e-08 1.23844e-07 -6.3779e-10)
(-2.58001e-08 1.25545e-07 -6.9801e-10)
(-1.50823e-08 1.27842e-07 -8.47612e-10)
(-5.93982e-09 1.32116e-07 -1.07333e-09)
(1.54541e-09 1.39484e-07 -1.33091e-09)
(7.1106e-09 1.49896e-07 -1.5681e-09)
(1.0434e-08 1.61028e-07 -1.71298e-09)
(1.12971e-08 1.67531e-07 -1.68604e-09)
(9.80914e-09 1.61613e-07 -1.4181e-09)
(6.59093e-09 1.35717e-07 -8.86885e-10)
(2.79e-09 8.72979e-08 -1.67398e-10)
(1.60228e-10 2.49156e-08 3.91047e-10)
(-2.14322e-08 -2.21989e-07 -2.1449e-08)
(-1.16139e-07 -3.38079e-07 -3.36317e-08)
(-1.89508e-07 -3.42357e-07 -3.1977e-08)
(-2.41654e-07 -2.89853e-07 -2.65225e-08)
(-2.64031e-07 -2.26974e-07 -2.01242e-08)
(-2.67632e-07 -1.6544e-07 -1.46927e-08)
(-2.57826e-07 -1.11013e-07 -1.03178e-08)
(-2.40994e-07 -6.32299e-08 -7.04839e-09)
(-2.20691e-07 -2.15904e-08 -4.6484e-09)
(-1.99361e-07 1.43387e-08 -2.93497e-09)
(-1.78172e-07 4.46323e-08 -1.74398e-09)
(-1.57625e-07 6.94298e-08 -9.40257e-10)
(-1.37729e-07 8.90655e-08 -4.48875e-10)
(-1.1843e-07 1.04159e-07 -1.39095e-10)
(-9.97574e-08 1.1543e-07 3.37656e-11)
(-8.20229e-08 1.2368e-07 2.07779e-10)
(-6.59314e-08 1.29522e-07 4.0106e-10)
(-5.17532e-08 1.33403e-07 4.98507e-10)
(-3.94298e-08 1.35982e-07 5.16222e-10)
(-2.87796e-08 1.38143e-07 3.97695e-10)
(-1.95471e-08 1.4116e-07 1.86357e-10)
(-1.1646e-08 1.46458e-07 -9.96575e-11)
(-5.10613e-09 1.55116e-07 -4.10203e-10)
(-9.51829e-11 1.66891e-07 -6.97103e-10)
(3.19638e-09 1.79072e-07 -8.96099e-10)
(4.66697e-09 1.85726e-07 -9.38652e-10)
(4.44796e-09 1.78405e-07 -7.63839e-10)
(3.01738e-09 1.49069e-07 -3.55066e-10)
(1.13271e-09 9.52471e-08 2.13895e-10)
(-2.9892e-12 2.67119e-08 5.59373e-10)
(-1.03641e-08 -1.2372e-07 -1.03818e-08)
(-6.3704e-08 -1.83453e-07 -1.71242e-08)
(-1.13368e-07 -1.79767e-07 -1.70441e-08)
(-1.53614e-07 -1.48145e-07 -1.47886e-08)
(-1.77459e-07 -1.12746e-07 -1.16733e-08)
(-1.88616e-07 -7.87162e-08 -8.74722e-09)
(-1.89572e-07 -4.74085e-08 -6.17539e-09)
(-1.83897e-07 -1.77083e-08 -4.08437e-09)
(-1.74048e-07 1.06405e-08 -2.42695e-09)
(-1.61909e-07 3.72082e-08 -1.15236e-09)
(-1.48582e-07 6.11568e-08 -2.116e-10)
(-1.34675e-07 8.17935e-08 4.53776e-10)
(-1.20352e-07 9.87894e-08 8.54021e-10)
(-1.05713e-07 1.12262e-07 1.09842e-09)
(-9.08999e-08 1.22583e-07 1.20294e-09)
(-7.63754e-08 1.30331e-07 1.3356e-09)
(-6.30799e-08 1.35983e-07 1.50884e-09)
(-5.13593e-08 1.39919e-07 1.55712e-09)
(-4.11401e-08 1.42789e-07 1.51055e-09)
(-3.22367e-08 1.45498e-07 1.30582e-09)
(-2.438e-08 1.49339e-07 1.00951e-09)
(-1.74988e-08 1.55726e-07 6.47305e-10)
(-1.16147e-08 1.65651e-07 2.76548e-10)
(-6.85613e-09 1.78673e-07 -5.84266e-11)
(-3.34655e-09 1.91731e-07 -3.02018e-10)
(-1.13084e-09 1.98429e-07 -3.97615e-10)
(-9.71573e-11 1.89834e-07 -2.9463e-10)
(8.17601e-11 1.57632e-07 1.83248e-11)
(-1.68373e-10 9.9605e-08 4.70974e-10)
(-1.143e-10 2.69088e-08 6.66115e-10)
(-5.12744e-09 -6.98624e-08 -5.14627e-09)
(-3.61787e-08 -9.04326e-08 -8.92036e-09)
(-6.95258e-08 -7.5629e-08 -9.29084e-09)
(-9.93187e-08 -5.14532e-08 -8.38437e-09)
(-1.20367e-07 -3.0501e-08 -6.82146e-09)
(-1.3331e-07 -1.31939e-08 -5.16545e-09)
(-1.39019e-07 2.50973e-09 -3.56404e-09)
(-1.39337e-07 1.8939e-08 -2.13834e-09)
(-1.35807e-07 3.67475e-08 -9.11697e-10)
(-1.29765e-07 5.53199e-08 1.09996e-10)
(-1.22098e-07 7.34338e-08 9.15962e-10)
(-1.13364e-07 8.9955e-08 1.51763e-09)
(-1.03729e-07 1.04156e-07 1.87792e-09)
(-9.33025e-08 1.15799e-07 2.08917e-09)
(-8.22112e-08 1.24987e-07 2.14347e-09)
(-7.0935e-08 1.32082e-07 2.2398e-09)
(-6.0526e-08 1.37447e-07 2.38747e-09)
(-5.13147e-08 1.41439e-07 2.37321e-09)
(-4.3157e-08 1.44687e-07 2.24576e-09)
(-3.58483e-08 1.48101e-07 1.94167e-09)
(-2.9126e-08 1.52936e-07 1.55225e-09)
(-2.29656e-08 1.60537e-07 1.11375e-09)
(-1.74222e-08 1.71771e-07 6.8951e-10)
(-1.26353e-08 1.85996e-07 3.19095e-10)
(-8.71615e-09 1.99855e-07 4.75478e-11)
(-5.70648e-09 2.06591e-07 -8.10217e-11)
(-3.54201e-09 1.96936e-07 -2.56844e-11)
(-2.03809e-09 1.62452e-07 2.20166e-10)
(-1.03327e-09 1.01282e-07 5.91919e-10)
(-1.63897e-10 2.60082e-08 7.03685e-10)
(-2.61335e-09 -3.94938e-08 -2.63374e-09)
(-2.12684e-08 -3.32276e-08 -4.7951e-09)
(-4.3717e-08 -7.93505e-09 -5.22362e-09)
(-6.53562e-08 1.48333e-08 -4.87534e-09)
(-8.2504e-08 2.84444e-08 -4.04884e-09)
(-9.46555e-08 3.55833e-08 -3.04534e-09)
(-1.01888e-07 4.07126e-08 -1.97466e-09)
(-1.05062e-07 4.73668e-08 -9.30936e-10)
(-1.05091e-07 5.68027e-08 4.43332e-11)
(-1.02882e-07 6.85516e-08 9.24988e-10)
(-9.9114e-08 8.13273e-08 1.67179e-09)
(-9.42518e-08 9.38286e-08 2.2665e-09)
(-8.84193e-08 1.05145e-07 2.63933e-09)
(-8.16777e-08 1.14815e-07 2.85768e-09)
(-7.40624e-08 1.22762e-07 2.89225e-09)
(-6.59657e-08 1.29131e-07 2.95604e-09)
(-5.83937e-08 1.34199e-07 3.05639e-09)
(-5.15776e-08 1.38345e-07 2.95297e-09)
(-4.52843e-08 1.42168e-07 2.71692e-09)
(-3.93016e-08 1.46543e-07 2.29945e-09)
(-3.34106e-08 1.52623e-07 1.81493e-09)
(-2.76651e-08 1.61637e-07 1.30868e-09)
(-2.21874e-08 1.74293e-07 8.45485e-10)
(-1.71643e-08 1.89753e-07 4.57529e-10)
(-1.27306e-08 2.0442e-07 1.78138e-10)
(-8.95771e-09 2.11275e-07 3.74975e-11)
(-5.84686e-09 2.00833e-07 6.63411e-11)
(-3.34236e-09 1.64635e-07 2.69064e-10)
(-1.47537e-09 1.01224e-07 5.90409e-10)
(-1.5519e-10 2.45237e-08 6.78457e-10)
(-1.38699e-09 -2.16359e-08 -1.40919e-09)
(-1.3013e-08 3.02064e-09 -2.69635e-09)
(-2.82909e-08 3.69978e-08 -3.06948e-09)
(-4.39118e-08 6.07643e-08 -2.95251e-09)
(-5.73259e-08 7.0761e-08 -2.49225e-09)
(-6.773e-08 7.16342e-08 -1.85021e-09)
(-7.48767e-08 6.94998e-08 -1.10288e-09)
(-7.9111e-08 6.88934e-08 -3.17547e-10)
(-8.09563e-08 7.16729e-08 4.66223e-10)
(-8.10245e-08 7.76483e-08 1.21825e-09)
(-7.98266e-08 8.5643e-08 1.89118e-09)
(-7.77419e-08 9.43606e-08 2.45149e-09)
(-7.48625e-08 1.02858e-07 2.81834e-09)
(-7.11955e-08 1.10557e-07 3.03207e-09)
(-6.6679e-08 1.17261e-07 3.05767e-09)
(-6.15459e-08 1.22901e-07 3.08871e-09)
(-5.65843e-08 1.27687e-07 3.13233e-09)
(-5.1876e-08 1.32072e-07 2.95908e-09)
(-4.71233e-08 1.36613e-07 2.65147e-09)
(-4.21405e-08 1.42125e-07 2.18038e-09)
(-3.67946e-08 1.49613e-07 1.66683e-09)
(-3.1232e-08 1.60148e-07 1.15832e-09)
(-2.5656e-08 1.74268e-07 7.13517e-10)
(-2.03081e-08 1.90961e-07 3.55679e-10)
(-1.5364e-08 2.06447e-07 1.06105e-10)
(-1.09396e-08 2.13521e-07 -1.63636e-11)
(-7.10602e-09 2.02578e-07 1.07651e-11)
(-3.92084e-09 1.65192e-07 1.92849e-10)
(-1.54926e-09 1.00283e-07 4.87781e-10)
(-9.52582e-11 2.29171e-08 5.99076e-10)
(-7.99897e-10 -1.06031e-08 -8.24381e-10)
(-8.39492e-09 2.67728e-08 -1.64227e-09)
(-1.89887e-08 6.75083e-08 -1.94086e-09)
(-3.02915e-08 9.29911e-08 -1.91856e-09)
(-4.05574e-08 1.01267e-07 -1.65203e-09)
(-4.90284e-08 9.82005e-08 -1.22959e-09)
(-5.53769e-08 9.10073e-08 -7.01002e-10)
(-5.97041e-08 8.49823e-08 -1.10326e-10)
(-6.23082e-08 8.24901e-08 5.13978e-10)
(-6.36056e-08 8.36336e-08 1.14862e-09)
(-6.39927e-08 8.74113e-08 1.75458e-09)
(-6.37886e-08 9.26246e-08 2.29588e-09)
(-6.30982e-08 9.83944e-08 2.69713e-09)
(-6.19095e-08 1.04124e-07 2.95661e-09)
(-6.01022e-08 1.09575e-07 3.03041e-09)
(-5.76933e-08 1.14529e-07 3.02888e-09)
(-5.50643e-08 1.19153e-07 2.96169e-09)
(-5.21082e-08 1.23944e-07 2.67613e-09)
(-4.85236e-08 1.29382e-07 2.27194e-09)
(-4.42026e-08 1.36173e-07 1.75598e-09)
(-3.91477e-08 1.45144e-07 1.24089e-09)
(-3.36029e-08 1.57199e-07 7.68399e-10)
(-2.78478e-08 1.7272e-07 3.80542e-10)
(-2.21692e-08 1.90566e-07 8.65825e-11)
(-1.67839e-08 2.06834e-07 -1.05558e-10)
(-1.18525e-08 2.14213e-07 -1.88062e-10)
(-7.51357e-09 2.03039e-07 -1.463e-10)
(-3.92449e-09 1.64943e-07 2.87485e-11)
(-1.33865e-09 9.91424e-08 3.12675e-10)
(3.06873e-12 2.15575e-08 4.79954e-10)
(-5.42166e-10 -3.27166e-09 -5.6893e-10)
(-5.83183e-09 4.30375e-08 -1.14458e-09)
(-1.33778e-08 8.88199e-08 -1.38016e-09)
(-2.16284e-08 1.15987e-07 -1.4019e-09)
(-2.94028e-08 1.23474e-07 -1.25868e-09)
(-3.61091e-08 1.17911e-07 -1.00378e-09)
(-4.14586e-08 1.07241e-07 -6.7085e-10)
(-4.54588e-08 9.73018e-08 -2.89208e-10)
(-4.82851e-08 9.08492e-08 1.21895e-10)
(-5.02216e-08 8.82404e-08 5.46298e-10)
(-5.15739e-08 8.86429e-08 9.60671e-10)
(-5.26061e-08 9.09717e-08 1.33851e-09)
(-5.34522e-08 9.44316e-08 1.6358e-09)
(-5.41066e-08 9.84554e-08 1.82997e-09)
(-5.44325e-08 1.02792e-07 1.89686e-09)
(-5.42367e-08 1.07154e-07 1.85548e-09)
(-5.34383e-08 1.11672e-07 1.72604e-09)
(-5.17695e-08 1.16833e-07 1.44401e-09)
(-4.89863e-08 1.23036e-07 1.09607e-09)
(-4.50881e-08 1.3087e-07 7.03046e-10)
(-4.02137e-08 1.41012e-07 3.40937e-10)
(-3.46762e-08 1.54235e-07 3.36754e-11)
(-2.88029e-08 1.70813e-07 -1.98607e-10)
(-2.29002e-08 1.89522e-07 -3.56996e-10)
(-1.72129e-08 2.06395e-07 -4.42643e-10)
(-1.19448e-08 2.14075e-07 -4.52828e-10)
(-7.29814e-09 2.02875e-07 -3.7489e-10)
(-3.52076e-09 1.64482e-07 -1.92915e-10)
(-9.3146e-10 9.82904e-08 9.02752e-11)
(1.2835e-10 2.07104e-08 3.33508e-10)
(-4.54587e-10 2.09874e-09 -4.83499e-10)
(-4.42947e-09 5.47876e-08 -9.41157e-10)
(-9.96393e-09 1.04178e-07 -1.1259e-09)
(-1.60341e-08 1.32679e-07 -1.16619e-09)
(-2.18598e-08 1.39801e-07 -1.10457e-09)
(-2.7042e-08 1.32675e-07 -9.77239e-10)
(-3.13792e-08 1.19717e-07 -8.04569e-10)
(-3.48596e-08 1.07132e-07 -6.02463e-10)
(-3.75932e-08 9.79492e-08 -3.77642e-10)
(-3.97753e-08 9.27078e-08 -1.33664e-10)
(-4.16481e-08 9.06957e-08 1.29261e-10)
(-4.34424e-08 9.09095e-08 3.99596e-10)
(-4.53473e-08 9.26133e-08 6.64226e-10)
(-4.73988e-08 9.52878e-08 8.68327e-10)
(-4.94689e-08 9.87061e-08 9.78639e-10)
(-5.11475e-08 1.02589e-07 9.04842e-10)
(-5.18659e-08 1.07028e-07 6.76572e-10)
(-5.11942e-08 1.12444e-07 3.37192e-10)
(-4.89715e-08 1.19128e-07 -1.24254e-11)
(-4.53308e-08 1.27568e-07 -3.24611e-10)
(-4.05562e-08 1.38349e-07 -5.59607e-10)
(-3.50176e-08 1.52176e-07 -7.13871e-10)
(-2.90682e-08 1.69279e-07 -7.95018e-10)
(-2.30178e-08 1.88415e-07 -8.18304e-10)
(-1.71242e-08 2.05613e-07 -7.95986e-10)
(-1.16254e-08 2.13518e-07 -7.3202e-10)
(-6.78356e-09 2.02457e-07 -6.17094e-10)
(-2.93078e-09 1.64138e-07 -4.27882e-10)
(-4.39293e-10 9.79938e-08 -1.45097e-10)
(2.63696e-10 2.05207e-08 1.77373e-10)
(-4.52944e-10 6.4677e-09 -4.83743e-10)
(-3.6597e-09 6.37486e-08 -8.89193e-10)
(-7.80331e-09 1.15533e-07 -1.0333e-09)
(-1.22552e-08 1.44893e-07 -1.08273e-09)
(-1.65359e-08 1.51803e-07 -1.08518e-09)
(-2.04382e-08 1.43741e-07 -1.07109e-09)
(-2.3863e-08 1.29418e-07 -1.05335e-09)
(-2.68169e-08 1.15266e-07 -1.03965e-09)
(-2.93774e-08 1.04473e-07 -1.0284e-09)
(-3.16726e-08 9.76783e-08 -1.01455e-09)
(-3.38869e-08 9.42234e-08 -9.78931e-10)
(-3.6209e-08 9.31323e-08 -9.17173e-10)
(-3.88599e-08 9.36848e-08 -8.03374e-10)
(-4.1896e-08 9.54082e-08 -7.00812e-10)
(-4.52072e-08 9.81298e-08 -6.17477e-10)
(-4.8236e-08 1.01649e-07 -7.22428e-10)
(-5.00305e-08 1.06011e-07 -9.77229e-10)
(-5.00712e-08 1.11504e-07 -1.25005e-09)
(-4.82905e-08 1.18298e-07 -1.46991e-09)
(-4.49148e-08 1.26804e-07 -1.58416e-09)
(-4.03263e-08 1.37582e-07 -1.6013e-09)
(-3.49108e-08 1.51346e-07 -1.53835e-09)
(-2.90178e-08 1.68358e-07 -1.42579e-09)
(-2.29391e-08 1.87418e-07 -1.28767e-09)
(-1.69358e-08 2.04608e-07 -1.14248e-09)
(-1.12752e-08 2.12627e-07 -9.96914e-10)
(-6.27858e-09 2.01843e-07 -8.42042e-10)
(-2.36512e-09 1.63952e-07 -6.46113e-10)
(3.1356e-11 9.82839e-08 -3.67991e-10)
(3.93933e-10 2.10068e-08 2.6516e-11)
(-4.82719e-10 1.03088e-08 -5.15248e-10)
(-3.16382e-09 7.08168e-08 -8.92478e-10)
(-6.21812e-09 1.2393e-07 -9.95111e-10)
(-9.34514e-09 1.53625e-07 -1.03896e-09)
(-1.23116e-08 1.60322e-07 -1.08052e-09)
(-1.50917e-08 1.51757e-07 -1.14735e-09)
(-1.7686e-08 1.36801e-07 -1.24339e-09)
(-2.01292e-08 1.21986e-07 -1.36678e-09)
(-2.24806e-08 1.10565e-07 -1.50562e-09)
(-2.48191e-08 1.03206e-07 -1.6455e-09)
(-2.7285e-08 9.92439e-08 -1.75206e-09)
(-3.00307e-08 9.76768e-08 -1.81097e-09)
(-3.32894e-08 9.77489e-08 -1.77423e-09)
(-3.71184e-08 9.90076e-08 -1.71864e-09)
(-4.14e-08 1.01306e-07 -1.63893e-09)
(-4.5485e-08 1.04546e-07 -1.75281e-09)
(-4.81714e-08 1.08727e-07 -2.02593e-09)
(-4.88809e-08 1.13977e-07 -2.26272e-09)
(-4.75964e-08 1.2039e-07 -2.41555e-09)
(-4.45886e-08 1.28343e-07 -2.41593e-09)
(-4.02981e-08 1.38441e-07 -2.30117e-09)
(-3.51079e-08 1.51471e-07 -2.09882e-09)
(-2.93541e-08 1.67782e-07 -1.85594e-09)
(-2.33037e-08 1.86269e-07 -1.60467e-09)
(-1.72123e-08 2.03118e-07 -1.37156e-09)
(-1.13695e-08 2.11137e-07 -1.16876e-09)
(-6.15046e-09 2.00765e-07 -9.915e-10)
(-2.06975e-09 1.63671e-07 -8.03008e-10)
(3.58979e-10 9.89502e-08 -5.43212e-10)
(5.01698e-10 2.20564e-08 -1.00855e-10)
(-5.10567e-10 1.37625e-08 -5.44008e-10)
(-2.69494e-09 7.62922e-08 -8.89236e-10)
(-4.72697e-09 1.29727e-07 -9.42567e-10)
(-6.62109e-09 1.59196e-07 -9.66744e-10)
(-8.37937e-09 1.65579e-07 -1.02788e-09)
(-1.01468e-08 1.56782e-07 -1.1518e-09)
(-1.20149e-08 1.41721e-07 -1.33486e-09)
(-1.40404e-08 1.26912e-07 -1.56548e-09)
(-1.62606e-08 1.15574e-07 -1.82332e-09)
(-1.87094e-08 1.08341e-07 -2.08757e-09)
(-2.14792e-08 1.04496e-07 -2.31606e-09)
(-2.46774e-08 1.02991e-07 -2.49065e-09)
(-2.85103e-08 1.03012e-07 -2.55167e-09)
(-3.30034e-08 1.04115e-07 -2.57381e-09)
(-3.80044e-08 1.06163e-07 -2.53604e-09)
(-4.28365e-08 1.09154e-07 -2.64885e-09)
(-4.62319e-08 1.13054e-07 -2.88429e-09)
(-4.76025e-08 1.17842e-07 -3.03926e-09)
(-4.6934e-08 1.23571e-07 -3.09453e-09)
(-4.44851e-08 1.30596e-07 -2.98031e-09)
(-4.06933e-08 1.39601e-07 -2.75056e-09)
(-3.59096e-08 1.51462e-07 -2.43644e-09)
(-3.04371e-08 1.66651e-07 -2.09245e-09)
(-2.45063e-08 1.842e-07 -1.75528e-09)
(-1.83535e-08 2.00462e-07 -1.4573e-09)
(-1.22776e-08 2.08416e-07 -1.21673e-09)
(-6.70601e-09 1.98629e-07 -1.03344e-09)
(-2.25683e-09 1.62749e-07 -8.67552e-10)
(4.36582e-10 9.95426e-08 -6.44903e-10)
(5.73177e-10 2.34264e-08 -1.91196e-10)
(-5.09086e-10 1.67259e-08 -5.43259e-10)
(-2.05934e-09 8.00231e-08 -8.28145e-10)
(-2.95369e-09 1.32763e-07 -8.13712e-10)
(-3.5499e-09 1.61423e-07 -7.96609e-10)
(-4.10382e-09 1.67343e-07 -8.51059e-10)
(-4.92516e-09 1.58508e-07 -1.00025e-09)
(-6.17731e-09 1.4375e-07 -1.23132e-09)
(-7.9168e-09 1.29456e-07 -1.52138e-09)
(-1.01395e-08 1.18728e-07 -1.84079e-09)
(-1.28229e-08 1.12116e-07 -2.16307e-09)
(-1.60035e-08 1.08834e-07 -2.44461e-09)
(-1.97374e-08 1.0778e-07 -2.668e-09)
(-2.4177e-08 1.08081e-07 -2.77679e-09)
(-2.93001e-08 1.09287e-07 -2.8397e-09)
(-3.49055e-08 1.1124e-07 -2.83347e-09)
(-4.03304e-08 1.13983e-07 -2.934e-09)
(-4.43779e-08 1.17461e-07 -3.12137e-09)
(-4.64776e-08 1.21567e-07 -3.21762e-09)
(-4.65803e-08 1.26351e-07 -3.21702e-09)
(-4.48954e-08 1.32177e-07 -3.05253e-09)
(-4.18126e-08 1.39802e-07 -2.7774e-09)
(-3.76308e-08 1.50195e-07 -2.4196e-09)
(-3.26008e-08 1.63959e-07 -2.03337e-09)
(-2.68972e-08 1.80292e-07 -1.65833e-09)
(-2.07126e-08 1.95764e-07 -1.33362e-09)
(-1.43333e-08 2.03602e-07 -1.08604e-09)
(-8.22825e-09 1.94583e-07 -9.22278e-10)
(-3.12897e-09 1.60381e-07 -8.03188e-10)
(1.58351e-10 9.93905e-08 -6.4438e-10)
(5.92919e-10 2.47565e-08 -2.29544e-10)
(-4.61013e-10 1.89099e-08 -4.95217e-10)
(-1.12235e-09 8.15078e-08 -6.72522e-10)
(-6.3893e-10 1.32463e-07 -5.63361e-10)
(2.24406e-10 1.59708e-07 -4.80274e-10)
(9.16219e-10 1.64999e-07 -5.03276e-10)
(9.67093e-10 1.56276e-07 -6.51108e-10)
(1.7163e-10 1.42143e-07 -9.01275e-10)
(-1.48672e-09 1.28734e-07 -1.21987e-09)
(-3.92563e-09 1.18956e-07 -1.56871e-09)
(-7.03964e-09 1.13235e-07 -1.91621e-09)
(-1.07886e-08 1.10715e-07 -2.22064e-09)
(-1.51647e-08 1.10255e-07 -2.46643e-09)
(-2.02484e-08 1.10952e-07 -2.60698e-09)
(-2.59683e-08 1.12343e-07 -2.69888e-09)
(-3.20843e-08 1.14251e-07 -2.72147e-09)
(-3.79853e-08 1.16723e-07 -2.80619e-09)
(-4.2628e-08 1.19696e-07 -2.9394e-09)
(-4.54882e-08 1.2303e-07 -2.98322e-09)
(-4.64768e-08 1.2679e-07 -2.93846e-09)
(-4.57391e-08 1.31349e-07 -2.74749e-09)
(-4.35847e-08 1.37517e-07 -2.45513e-09)
(-4.02374e-08 1.46329e-07 -2.08489e-09)
(-3.5867e-08 1.58502e-07 -1.68717e-09)
(-3.05623e-08 1.73424e-07 -1.30328e-09)
(-2.44322e-08 1.87938e-07 -9.78792e-10)
(-1.77128e-08 1.95614e-07 -7.49143e-10)
(-1.08921e-08 1.87547e-07 -6.2884e-10)
(-4.82339e-09 1.55539e-07 -5.82824e-10)
(-5.51151e-10 9.76334e-08 -5.20597e-10)
(5.51115e-10 2.55813e-08 -2.06774e-10)
(-3.55539e-10 1.99023e-08 -3.89499e-10)
(1.87717e-10 8.00164e-08 -3.98852e-10)
(2.34079e-09 1.27991e-07 -1.61279e-10)
(4.8522e-09 1.53207e-07 1.76201e-11)
(6.82655e-09 1.57723e-07 5.41136e-11)
(7.64412e-09 1.49278e-07 -6.50438e-11)
(7.09541e-09 1.36074e-07 -3.07724e-10)
(5.25807e-09 1.23865e-07 -6.28156e-10)
(2.34356e-09 1.15286e-07 -9.79653e-10)
(-1.42192e-09 1.10613e-07 -1.32557e-09)
(-5.89611e-09 1.08934e-07 -1.62705e-09)
(-1.09979e-08 1.09099e-07 -1.87102e-09)
(-1.67343e-08 1.10203e-07 -2.0226e-09)
(-2.29965e-08 1.11783e-07 -2.12591e-09)
(-2.95308e-08 1.13646e-07 -2.16599e-09)
(-3.58056e-08 1.1582e-07 -2.23412e-09)
(-4.09709e-08 1.18241e-07 -2.32147e-09)
(-4.45724e-08 1.20778e-07 -2.32914e-09)
(-4.64955e-08 1.23514e-07 -2.25871e-09)
(-4.68264e-08 1.26828e-07 -2.06415e-09)
(-4.57834e-08 1.31543e-07 -1.77899e-09)
(-4.35015e-08 1.38729e-07 -1.42136e-09)
(-4.00383e-08 1.49195e-07 -1.03667e-09)
(-3.53553e-08 1.6252e-07 -6.68428e-10)
(-2.94278e-08 1.75883e-07 -3.68308e-10)
(-2.23883e-08 1.83304e-07 -1.81738e-10)
(-1.47122e-08 1.76347e-07 -1.32312e-10)
(-7.37389e-09 1.47081e-07 -1.90391e-10)
(-1.72157e-09 9.32998e-08 -2.62562e-10)
(4.41077e-10 2.53749e-08 -1.1754e-10)
(-1.95797e-10 1.92565e-08 -2.2869e-10)
(1.8335e-09 7.47621e-08 -1.18998e-11)
(5.8924e-09 1.18459e-07 3.88105e-10)
(1.01759e-08 1.41036e-07 6.9216e-10)
(1.34011e-08 1.44682e-07 8.14145e-10)
(1.48149e-08 1.36713e-07 7.47324e-10)
(1.42522e-08 1.24743e-07 5.32768e-10)
(1.19449e-08 1.14004e-07 2.27584e-10)
(8.29006e-09 1.06794e-07 -1.12543e-10)
(3.67667e-09 1.03231e-07 -4.46199e-10)
(-1.63011e-09 1.02371e-07 -7.3691e-10)
(-7.47074e-09 1.03089e-07 -9.7241e-10)
(-1.37894e-08 1.0452e-07 -1.12792e-09)
(-2.04623e-08 1.06217e-07 -1.23577e-09)
(-2.72572e-08 1.07988e-07 -1.28674e-09)
(-3.3746e-08 1.0984e-07 -1.34022e-09)
(-3.92813e-08 1.11714e-07 -1.39045e-09)
(-4.35019e-08 1.13502e-07 -1.37152e-09)
(-4.62989e-08 1.15297e-07 -1.28372e-09)
(-4.77189e-08 1.17469e-07 -1.0919e-09)
(-4.78958e-08 1.20815e-07 -8.20048e-10)
(-4.68672e-08 1.26395e-07 -4.83351e-10)
(-4.45552e-08 1.35076e-07 -1.22558e-10)
(-4.07507e-08 1.46631e-07 2.16091e-10)
(-3.52384e-08 1.5862e-07 4.74097e-10)
(-2.79885e-08 1.65635e-07 5.96064e-10)
(-1.94196e-08 1.59889e-07 5.49744e-10)
(-1.06168e-08 1.33923e-07 3.58337e-10)
(-3.28132e-09 8.5452e-08 1.16186e-10)
(2.71347e-10 2.36204e-08 2.88425e-11)
(-5.68826e-12 1.66409e-08 -3.66446e-11)
(3.62215e-09 6.51973e-08 4.40857e-10)
(9.6236e-09 1.03288e-07 1.02294e-09)
(1.5621e-08 1.22657e-07 1.47164e-09)
(1.99332e-08 1.25392e-07 1.69873e-09)
(2.16976e-08 1.18137e-07 1.70313e-09)
(2.08395e-08 1.07701e-07 1.53357e-09)
(1.78004e-08 9.86635e-08 1.25711e-09)
(1.32107e-08 9.29284e-08 9.37273e-10)
(7.65177e-09 9.04633e-08 6.20569e-10)
(1.52394e-09 9.03269e-08 3.42883e-10)
(-4.93999e-09 9.14666e-08 1.17032e-10)
(-1.1644e-08 9.30926e-08 -3.95722e-11)
(-1.84786e-08 9.48004e-08 -1.49034e-10)
(-2.52653e-08 9.64162e-08 -2.06096e-10)
(-3.16984e-08 9.79321e-08 -2.48094e-10)
(-3.73327e-08 9.92983e-08 -2.71311e-10)
(-4.19188e-08 1.00432e-07 -2.33233e-10)
(-4.5385e-08 1.01422e-07 -1.33083e-10)
(-4.77682e-08 1.02606e-07 5.38838e-11)
(-4.91406e-08 1.04721e-07 3.11068e-10)
(-4.94465e-08 1.08765e-07 6.24292e-10)
(-4.84598e-08 1.15623e-07 9.54893e-10)
(-4.57707e-08 1.25244e-07 1.25351e-09)
(-4.09245e-08 1.35613e-07 1.45552e-09)
(-3.3676e-08 1.42021e-07 1.49657e-09)
(-2.43415e-08 1.37527e-07 1.33668e-09)
(-1.40955e-08 1.15386e-07 9.92491e-10)
(-5.00883e-09 7.3468e-08 5.59789e-10)
(6.80753e-11 1.99531e-08 2.04811e-10)
(1.64558e-10 1.20459e-08 1.36718e-10)
(5.16511e-09 5.14124e-08 8.52199e-10)
(1.27836e-08 8.26839e-08 1.60183e-09)
(2.01414e-08 9.83728e-08 2.18937e-09)
(2.51972e-08 1.00213e-07 2.52418e-09)
(2.70033e-08 9.3917e-08 2.60772e-09)
(2.56041e-08 8.52778e-08 2.49278e-09)
(2.16798e-08 7.80969e-08 2.25294e-09)
(1.61159e-08 7.38532e-08 1.95738e-09)
(9.6944e-09 7.23861e-08 1.6574e-09)
(2.94402e-09 7.28071e-08 1.3897e-09)
(-3.84687e-09 7.41821e-08 1.16926e-09)
(-1.05711e-08 7.58354e-08 1.00989e-09)
(-1.7162e-08 7.74275e-08 8.97793e-10)
(-2.35245e-08 7.88187e-08 8.35808e-10)
(-2.94886e-08 7.99971e-08 8.01658e-10)
(-3.48001e-08 8.09227e-08 7.97763e-10)
(-3.93366e-08 8.15333e-08 8.50492e-10)