/*--------------------------------*- C++ -*----------------------------------*\
| =========                 |                                                 |
| \\      /  F ield         | OpenFOAM: The Open Source CFD Toolbox           |
|  \\    /   O peration     | Version:  v1906                                 |
|   \\  /    A nd           | Web:      www.OpenFOAM.com                      |
|    \\/     M anipulation  |                                                 |
\*---------------------------------------------------------------------------*/
FoamFile
{
    version     2.0;
    format      ascii;
    class       volVectorField;
    location    "23";
    object      U;
}
// * * * * * * * * * * * * * * * * * * * * * * * * * * * * * * * * * * * * * //

dimensions      [0 1 -1 0 0 0 0];


internalField   nonuniform List<vector> 
78750
(
(-0.0268018 -0.0143276 -0.0122139)
(-0.0240399 -0.0237227 -0.0216511)
(-0.0202154 -0.0237542 -0.0225661)
(-0.0164675 -0.0227625 -0.0227191)
(-0.0126078 -0.0211586 -0.0221996)
(-0.00888984 -0.0194149 -0.0214225)
(-0.00533838 -0.0177354 -0.0206075)
(-0.00200225 -0.0161878 -0.0198305)
(0.00111496 -0.0147627 -0.019093)
(0.00401449 -0.0134344 -0.0183838)
(0.00669634 -0.0121851 -0.0176989)
(0.00916694 -0.0110064 -0.0170368)
(0.0114382 -0.00989372 -0.0163936)
(0.0135239 -0.0088432 -0.0157635)
(0.0154364 -0.00785 -0.0151397)
(0.0171861 -0.00690807 -0.0145149)
(0.0187807 -0.00600986 -0.0138817)
(0.0202252 -0.00514611 -0.013232)
(0.0215208 -0.00430586 -0.0125575)
(0.0226656 -0.0034763 -0.0118494)
(0.0236544 -0.00264249 -0.0110986)
(0.0244773 -0.00178785 -0.0102972)
(0.0251151 -0.000899206 -0.00942373)
(0.0255237 4.43598e-05 -0.00846345)
(0.0256708 0.00106489 -0.00739694)
(0.025517 0.00218407 -0.00619977)
(0.0250149 0.00342119 -0.00484061)
(0.0241105 0.00478746 -0.00328015)
(0.0227412 0.00627972 -0.00146989)
(0.0208436 0.00787724 0.000642291)
(0.0183213 0.00955434 0.00313392)
(0.0150487 0.0113928 0.0061381)
(0.0108091 0.0137083 0.00940793)
(0.00577273 0.0153296 0.0105981)
(0.00134778 0.010538 0.00594294)
(-0.00177514 0.014218 -0.0102566)
(-0.00515578 -0.00368963 -0.0328518)
(-0.00880925 -0.0169613 -0.0444141)
(-0.0115185 -0.0222004 -0.0483038)
(-0.0133882 -0.0221961 -0.048631)
(-0.0146257 -0.0197592 -0.0473996)
(-0.0152796 -0.017019 -0.045676)
(-0.0153797 -0.0146936 -0.043955)
(-0.014997 -0.0127233 -0.042366)
(-0.0142507 -0.0110053 -0.0409293)
(-0.0132747 -0.00949281 -0.0396265)
(-0.0121633 -0.00814988 -0.0384235)
(-0.0109576 -0.00694446 -0.0372967)
(-0.00967434 -0.00584944 -0.0362272)
(-0.00832385 -0.00484408 -0.035199)
(-0.00691567 -0.0039101 -0.0341976)
(-0.00545994 -0.00302832 -0.0332094)
(-0.00396816 -0.00217642 -0.0322207)
(-0.00245337 -0.00132849 -0.031217)
(-0.000931371 -0.000453465 -0.0301826)
(0.000576792 0.000487181 -0.0290988)
(0.00204438 0.00153911 -0.0279415)
(0.0034653 0.00274968 -0.0266784)
(0.00482224 0.00416949 -0.0252863)
(0.00607952 0.00585004 -0.0237377)
(0.00719474 0.00784167 -0.0219967)
(0.00811465 0.0101898 -0.0200075)
(0.00877669 0.0129413 -0.0176651)
(0.00910474 0.0161589 -0.0147979)
(0.00899684 0.0199422 -0.0111559)
(0.00830922 0.0244331 -0.0064796)
(0.00685998 0.0296266 -0.000877055)
(0.00474746 0.0344387 0.00431497)
(0.00236123 0.0354428 0.00690428)
(0.000280485 0.0230064 0.00448672)
(0.000296553 0.0303065 -0.00440375)
(-0.00103168 0.0439329 -0.0147687)
(-0.0037442 0.0446811 -0.019374)
(-0.0066809 0.0414019 -0.0198591)
(-0.00941211 0.0362796 -0.0182699)
(-0.0114116 0.0302857 -0.0163846)
(-0.0126254 0.0243066 -0.0150271)
(-0.0132045 0.0189739 -0.0142163)
(-0.0133206 0.0147674 -0.0136952)
(-0.0130859 0.0119213 -0.0132043)
(-0.0125973 0.0101725 -0.0126631)
(-0.0119533 0.00905655 -0.0121216)
(-0.0112293 0.0082653 -0.0116119)
(-0.0104465 0.00767842 -0.011138)
(-0.00962346 0.00724069 -0.0107033)
(-0.00877038 0.00693011 -0.0103128)
(-0.00789171 0.00674234 -0.00997274)
(-0.00698885 0.00668363 -0.00968998)
(-0.00606301 0.00676389 -0.00947075)
(-0.00511686 0.00699864 -0.00931911)
(-0.00415598 0.00741027 -0.00923471)
(-0.00318967 0.00802945 -0.00921052)
(-0.00223087 0.00889689 -0.00923048)
(-0.00129469 0.0100588 -0.00926635)
(-0.000399453 0.0115778 -0.00927404)
(0.000430848 0.0135496 -0.0091853)
(0.00119278 0.0161352 -0.00890893)
(0.00186903 0.0194776 -0.00833175)
(0.00240042 0.0236414 -0.00731215)
(0.00273097 0.0286415 -0.00567361)
(0.00276195 0.0342432 -0.00329844)
(0.00236307 0.0395671 -0.000411915)
(0.0017033 0.042872 0.00210781)
(0.000869352 0.0416194 0.00361348)
(7.86977e-05 0.0248445 0.00258513)
(-0.000182557 0.0264511 -0.00195844)
(-0.000892585 0.0385992 -0.00799439)
(-0.00162927 0.0372167 -0.0109855)
(-0.00217394 0.0323593 -0.0119494)
(-0.00259907 0.0256693 -0.0117763)
(-0.00294115 0.0181817 -0.011232)
(-0.00324657 0.010884 -0.0107943)
(-0.00354483 0.00455167 -0.0105267)
(-0.0037991 -1.19305e-05 -0.0102197)
(-0.00393789 -0.00281318 -0.00968768)
(-0.00395282 -0.00427987 -0.008903)
(-0.0038407 -0.00483561 -0.00792167)
(-0.00359725 -0.00481764 -0.00680664)
(-0.00322642 -0.00447997 -0.00561845)
(-0.00273075 -0.00399425 -0.00441103)
(-0.00210631 -0.00346688 -0.00323134)
(-0.00134969 -0.00294779 -0.00211786)
(-0.000487773 -0.00243265 -0.00109891)
(0.00043471 -0.00187605 -0.000188838)
(0.00139603 -0.00121761 0.000599939)
(0.00237712 -0.00038615 0.00126427)
(0.00335487 0.000689601 0.00180395)
(0.00427169 0.00207258 0.00221315)
(0.00505557 0.00381197 0.0024843)
(0.0056557 0.00591905 0.0026137)
(0.00603217 0.00841323 0.00261533)
(0.00618398 0.0113984 0.00252868)
(0.0060886 0.0149905 0.00238851)
(0.005747 0.019316 0.00228506)
(0.00518958 0.0246701 0.00239146)
(0.00442122 0.0312307 0.00289315)
(0.00339241 0.0381829 0.00375909)
(0.0023208 0.0429225 0.00452828)
(0.00123929 0.0424382 0.00470044)
(0.000215034 0.0256964 0.00287955)
(0.000308786 0.0275134 -0.00107794)
(0.000524556 0.0463059 -0.00514685)
(0.00036866 0.0485127 -0.00753842)
(2.04388e-05 0.0464487 -0.00863931)
(-0.000513705 0.0426048 -0.00891191)
(-0.00122036 0.0378662 -0.008554)
(-0.00206766 0.0330643 -0.00773388)
(-0.00301137 0.0286712 -0.0065538)
(-0.00398466 0.0248069 -0.00509966)
(-0.00492008 0.0214268 -0.00348926)
(-0.00573389 0.0183641 -0.00185664)
(-0.00638363 0.0155056 -0.000316853)
(-0.00684622 0.01281 0.00106788)
(-0.00712042 0.010211 0.00227704)
(-0.00720987 0.00765102 0.00328994)
(-0.00711658 0.00517282 0.0041024)
(-0.00680995 0.00287886 0.00473956)
(-0.00625906 0.000917684 0.00523737)
(-0.00547547 -0.000574215 0.00564759)
(-0.00450661 -0.00148129 0.00601768)
(-0.00340652 -0.00170343 0.00638807)
(-0.00223214 -0.00114365 0.00679059)
(-0.00103511 0.000319436 0.00725065)
(0.000182148 0.00284616 0.00779495)
(0.00135537 0.00650219 0.00839413)
(0.00235878 0.0111284 0.00893852)
(0.00314382 0.016571 0.00930448)
(0.00365336 0.0227013 0.00936166)
(0.0038327 0.02934 0.00902575)
(0.00365332 0.0362487 0.00833887)
(0.00311845 0.0429828 0.00750169)
(0.00228538 0.048497 0.00675106)
(0.00143528 0.0511611 0.00613358)
(0.00061612 0.0481813 0.00520241)
(1.4134e-07 0.0275679 0.00270123)
(-2.18951e-05 0.0244845 -0.000701692)
(-0.000239369 0.0439978 -0.0037035)
(-0.000629086 0.0470481 -0.00549975)
(-0.00103098 0.0455476 -0.0062798)
(-0.00148859 0.0419501 -0.00641135)
(-0.00198237 0.0367827 -0.0059656)
(-0.0024595 0.0309448 -0.0050662)
(-0.00287521 0.025204 -0.00387413)
(-0.00320554 0.0199574 -0.00252943)
(-0.00344636 0.0153216 -0.0011347)
(-0.00360977 0.0112581 0.00023949)
(-0.00370766 0.00770324 0.00154378)
(-0.00374174 0.00454766 0.00275179)
(-0.00369435 0.00161507 0.00383568)
(-0.00352848 -0.00124383 0.0047425)
(-0.00321952 -0.00408856 0.00542501)
(-0.00278611 -0.00688639 0.0058781)
(-0.00225443 -0.00949688 0.00613385)
(-0.00161917 -0.0117431 0.00625706)
(-0.000891635 -0.0134503 0.00632968)
(-9.85239e-05 -0.014482 0.00642476)
(0.000739193 -0.0147333 0.00659875)
(0.00159397 -0.0140909 0.0068982)
(0.00246716 -0.012404 0.00737237)
(0.00336775 -0.00942098 0.00808217)
(0.00425469 -0.00495984 0.00902912)
(0.00503534 0.000993968 0.0101247)
(0.00559863 0.008453 0.0111972)
(0.00582397 0.017317 0.0119681)
(0.00563184 0.0272579 0.0121279)
(0.00496201 0.0375618 0.0115287)
(0.0038043 0.0466123 0.0103232)
(0.00254388 0.0515897 0.00888936)
(0.00127323 0.0493985 0.00696748)
(0.000213883 0.0283064 0.00330611)
(0.000110107 0.0239399 -0.000347033)
(0.000150928 0.0451556 -0.00245194)
(-5.47313e-05 0.0500333 -0.00392357)
(-0.000356862 0.0494764 -0.00457999)
(-0.00071321 0.04681 -0.00467763)
(-0.00111085 0.0426327 -0.00425731)
(-0.00152148 0.037599 -0.00337004)
(-0.00192655 0.0323976 -0.00212043)
(-0.00231569 0.0274593 -0.000623673)
(-0.00268384 0.022954 0.00101097)
(-0.00302087 0.0188688 0.00267478)
(-0.00330289 0.0150621 0.00424939)
(-0.00349049 0.0113272 0.00560559)
(-0.00354133 0.00745383 0.00661643)
(-0.003424 0.00331686 0.00718539)
(-0.00310748 -0.00103606 0.00728854)
(-0.00258923 -0.00535882 0.0070073)
(-0.0019179 -0.00929351 0.00650397)
(-0.00117533 -0.0124434 0.00596866)
(-0.000410593 -0.014619 0.00553141)
(0.000360121 -0.0158413 0.00523799)
(0.00111485 -0.0161415 0.00511574)
(0.00183851 -0.0155137 0.00519015)
(0.00251069 -0.0138809 0.00548622)
(0.00315585 -0.0109802 0.00607167)
(0.00378042 -0.00643306 0.00703781)
(0.00430545 -5.67137e-05 0.00838994)
(0.00469747 0.00834561 0.0100396)
(0.00490826 0.0188286 0.0117029)
(0.00480892 0.0309451 0.0128759)
(0.00424959 0.0433145 0.0130259)
(0.0031761 0.0534217 0.0120205)
(0.00200395 0.0582024 0.0103125)
(0.000883156 0.0546087 0.00779286)
(7.25989e-05 0.0305102 0.00342105)
(1.33418e-05 0.0227721 -0.000177012)
(-9.08091e-05 0.0445462 -0.00175184)
(-0.000403716 0.050368 -0.00292152)
(-0.00076594 0.0502069 -0.00339494)
(-0.00117939 0.0476821 -0.00334397)
(-0.00163477 0.043369 -0.00277641)
(-0.00209486 0.0378501 -0.00170853)
(-0.00253655 0.0319394 -0.00024343)
(-0.00294462 0.0262141 0.00147488)
(-0.00329351 0.0208857 0.00328115)
(-0.00353745 0.0158643 0.00498881)
(-0.00361809 0.0108899 0.00639239)
(-0.00347873 0.0057182 0.00729824)
(-0.00309081 0.000286336 0.00759375)
(-0.00248192 -0.00523363 0.00731107)
(-0.00172715 -0.0105265 0.00661631)
(-0.000903684 -0.0152507 0.00573328)
(-7.25147e-05 -0.0191237 0.00486786)
(0.000706268 -0.0219553 0.00416343)
(0.00141743 -0.0237881 0.00364924)
(0.00207559 -0.0247371 0.00331369)
(0.00267124 -0.0248583 0.00316271)
(0.00319861 -0.0241625 0.00320671)
(0.00364739 -0.0226019 0.00345828)
(0.00403026 -0.0199839 0.00396169)
(0.0043579 -0.0159071 0.00481544)
(0.00461952 -0.00994931 0.0061044)
(0.00480803 -0.0016155 0.00784731)
(0.0048848 0.0096275 0.00990091)
(0.00475449 0.0238032 0.0117972)
(0.00426657 0.0394586 0.0127828)
(0.00326666 0.0530939 0.0123341)
(0.00210851 0.0599795 0.0107409)
(0.000970906 0.0567573 0.00806069)
(0.000141049 0.031505 0.0034484)
(4.61927e-05 0.0218849 7.65152e-05)
(8.82917e-05 0.044106 -0.000968602)
(-7.75884e-05 0.0511706 -0.00189884)
(-0.000340745 0.0516562 -0.00227467)
(-0.000658167 0.0496094 -0.00217049)
(-0.00103402 0.0457934 -0.00155721)
(-0.00144809 0.0406831 -0.000392895)
(-0.00187259 0.0350028 0.00125628)
(-0.00226166 0.0292106 0.00322039)
(-0.00253916 0.0233423 0.00522018)
(-0.00261827 0.0172 0.00688966)
(-0.00244058 0.0106578 0.00788809)
(-0.00201169 0.00385096 0.00806012)
(-0.00138215 -0.00285966 0.00750446)
(-0.000624894 -0.00905844 0.00648946)
(0.000181325 -0.0144306 0.00530765)
(0.000966904 -0.0187641 0.0041903)
(0.00167051 -0.0219234 0.00328335)
(0.00228468 -0.0239912 0.00260967)
(0.00282415 -0.0251484 0.00212344)
(0.00328891 -0.0254999 0.00181022)
(0.00367337 -0.0250932 0.00167368)
(0.00397525 -0.0239388 0.00172044)
(0.00418468 -0.0219989 0.00196231)
(0.00430217 -0.0190757 0.00244378)
(0.00432747 -0.0148345 0.0032616)
(0.00425369 -0.00897913 0.00451428)
(0.0040899 -0.000996915 0.00629136)
(0.00385962 0.00990835 0.00857997)
(0.00356945 0.0242405 0.0110151)
(0.00313288 0.0408584 0.0127364)
(0.00237354 0.0557524 0.0128588)
(0.0014938 0.0631051 0.011428)
(0.000638964 0.05928 0.00860884)
(7.61649e-05 0.0324538 0.00364326)
(6.53199e-06 0.0207378 0.000202854)
(-2.99154e-05 0.0425955 -0.000530024)
(-0.00023467 0.0501872 -0.00125955)
(-0.000516786 0.0510686 -0.00149367)
(-0.00085846 0.0493226 -0.00123364)
(-0.0012671 0.0457588 -0.000395896)
(-0.00170104 0.0406922 0.0010898)
(-0.00208633 0.0346 0.00308932)
(-0.00232527 0.0277135 0.00523401)
(-0.00231895 0.0200696 0.0069869)
(-0.00202177 0.0118441 0.00787792)
(-0.00146636 0.00349848 0.00776618)
(-0.000737814 -0.00439335 0.00686648)
(5.99171e-05 -0.0113971 0.0055492)
(0.000849737 -0.0172721 0.00415201)
(0.00159185 -0.0219323 0.00289591)
(0.00225499 -0.0253706 0.00189076)
(0.00282515 -0.0276761 0.00115157)
(0.00332232 -0.029062 0.000608631)
(0.00376238 -0.0296714 0.000222259)
(0.0041349 -0.0295647 -1.35854e-05)
(0.00443816 -0.0287674 -0.000101126)
(0.00466582 -0.0272801 -3.79179e-05)
(0.00479983 -0.0250543 0.000188525)
(0.0048339 -0.0219089 0.00061122)
(0.00474811 -0.0175993 0.00130778)
(0.00453395 -0.0119201 0.00236522)
(0.00420712 -0.00439721 0.00391125)
(0.00379001 0.00582008 0.00606601)
(0.00331212 0.0196192 0.0087209)
(0.00277955 0.0365731 0.0111968)
(0.00209173 0.0529695 0.012351)
(0.0013507 0.0619059 0.0116069)
(0.000616 0.0588966 0.00900464)
(0.000114382 0.0323487 0.00384291)
(-1.70071e-06 0.0200302 0.000460228)
(-0.00011054 0.0417452 0.00017175)
(-0.000408018 0.0499654 -0.000237816)
(-0.000775676 0.0513539 -0.00019641)
(-0.00117752 0.0500148 0.000361372)
(-0.00160098 0.0466874 0.00157099)
(-0.00193811 0.0413466 0.00342837)
(-0.00206553 0.0341686 0.00554235)
(-0.00190151 0.0255089 0.00723992)
(-0.00144253 0.0159976 0.00795201)
(-0.000766981 0.00647985 0.00756067)
(1.41251e-05 -0.00227802 0.00637587)
(0.000810857 -0.00981461 0.0048508)
(0.00156609 -0.0160029 0.00333633)
(0.00225735 -0.0208897 0.00202152)
(0.00287434 -0.0245571 0.0009761)
(0.00340386 -0.0270819 0.000200772)
(0.0038751 -0.0286779 -0.000374299)
(0.00430455 -0.0295086 -0.000808564)
(0.0046827 -0.0296309 -0.0011131)
(0.00500628 -0.0290696 -0.00129472)
(0.00526839 -0.0278336 -0.00135579)
(0.00545266 -0.0259078 -0.00129224)
(0.00554373 -0.0231708 -0.00108508)
(0.00552663 -0.0194324 -0.000695661)
(0.00537446 -0.0146136 -6.98154e-05)
(0.00507548 -0.00860324 0.000866316)
(0.00462473 -0.00107041 0.00223044)
(0.00404261 0.00863545 0.00416138)
(0.00337559 0.0213286 0.006675)
(0.00267137 0.0369671 0.00933381)
(0.00190814 0.0525466 0.0110721)
(0.00120498 0.0613163 0.0109414)
(0.000548584 0.0585365 0.00875798)
(9.67396e-05 0.0322512 0.00376806)
(-2.49189e-05 0.0195821 0.000765979)
(-0.000245418 0.0412041 0.00102063)
(-0.000694251 0.0496886 0.00102718)
(-0.00118169 0.0511745 0.00140329)
(-0.00165859 0.0495978 0.00228964)
(-0.00207583 0.0453049 0.00382409)
(-0.00222883 0.0381506 0.00568833)
(-0.00202464 0.0287015 0.00712638)
(-0.00151133 0.0180683 0.00750713)
(-0.000809342 0.00751065 0.00675836)
(-4.16395e-05 -0.00201504 0.0052833)
(0.000708331 -0.0100597 0.00358756)
(0.00140615 -0.0165857 0.00201536)
(0.00204719 -0.0217541 0.000707829)
(0.00264014 -0.0257367 -0.000316921)
(0.00318719 -0.0286472 -0.0010892)
(0.00369678 -0.0306168 -0.00166289)
(0.00418207 -0.0317928 -0.00210158)
(0.00464723 -0.0322503 -0.00243113)
(0.00507953 -0.0320161 -0.00266302)
(0.00547252 -0.0311 -0.00280443)
(0.00581364 -0.0294984 -0.0028582)
(0.00608179 -0.0271589 -0.00281702)
(0.00626589 -0.0239373 -0.00266971)
(0.00633523 -0.0197044 -0.00238318)
(0.00625797 -0.0144336 -0.00191381)
(0.00601608 -0.00805701 -0.00118782)
(0.00559783 -0.000351202 -8.31274e-05)
(0.00499541 0.00918913 0.00156648)
(0.00422542 0.0212973 0.00387081)
(0.00333769 0.0361395 0.00657991)
(0.00235304 0.0512809 0.00876466)
(0.00147688 0.060229 0.0092527)
(0.000689249 0.0580071 0.00767863)
(0.000116386 0.0322566 0.00332558)
(-3.30892e-05 0.0194124 0.00118048)
(-0.000310382 0.0412809 0.00217781)
(-0.000823584 0.050225 0.00273432)
(-0.00134213 0.0517658 0.003479)
(-0.00178027 0.0495444 0.00461071)
(-0.00204538 0.0435775 0.0060825)
(-0.00193262 0.0342116 0.007177)
(-0.00149754 0.023018 0.00721031)
(-0.000897639 0.0117536 0.00613637)
(-0.000261265 0.00162665 0.00443095)
(0.00034958 -0.0068903 0.00263435)
(0.000923319 -0.0138352 0.00106493)
(0.00146772 -0.0194395 -0.000187886)
(0.00199505 -0.0239254 -0.0011521)
(0.00251814 -0.0274146 -0.00188406)
(0.00303181 -0.0299537 -0.00243431)
(0.00353882 -0.0316397 -0.00285232)
(0.00404579 -0.0325725 -0.00317502)
(0.00454427 -0.0327891 -0.00341744)
(0.00502438 -0.0322965 -0.00358696)
(0.005479 -0.0310901 -0.00368845)
(0.00588685 -0.0291519 -0.00372449)
(0.00623506 -0.0263656 -0.00368822)
(0.00651203 -0.0225317 -0.00356831)
(0.00667405 -0.0175597 -0.00334899)
(0.00668429 -0.0114325 -0.00300481)
(0.00650959 -0.00413828 -0.00247763)
(0.00612032 0.00440755 -0.00165371)
(0.00550091 0.0144694 -0.00036128)
(0.00465961 0.0264886 0.001553)
(0.00363316 0.0404798 0.00396994)
(0.00246298 0.054269 0.00613952)
(0.00146838 0.0620199 0.00690985)
(0.000637777 0.0592598 0.00590422)
(6.21262e-05 0.0328263 0.00251229)
(-6.31688e-05 0.0195038 0.00163822)
(-0.000434403 0.0414819 0.00354058)
(-0.00102118 0.0501315 0.00464755)
(-0.00155861 0.0509255 0.0055276)
(-0.00196338 0.0471414 0.00638304)
(-0.00214194 0.0388906 0.00690436)
(-0.00199721 0.0278254 0.00648081)
(-0.00168322 0.016189 0.00508183)
(-0.00132267 0.00552641 0.00320673)
(-0.000958268 -0.00357861 0.00139096)
(-0.000589112 -0.0111655 -9.80902e-05)
(-0.000198929 -0.0174743 -0.00123258)
(0.000227048 -0.0227076 -0.00208443)
(0.00069257 -0.0269707 -0.0027322)
(0.00119263 -0.0302997 -0.00323112)
(0.00170994 -0.0327097 -0.00361486)
(0.00223565 -0.0342749 -0.00391064)
(0.00277227 -0.0350811 -0.00413845)
(0.00331248 -0.0351569 -0.00430516)
(0.00384597 -0.0344981 -0.00441276)
(0.00436335 -0.0330858 -0.0044631)
(0.00484188 -0.0308729 -0.00445656)
(0.00527527 -0.0277009 -0.00439301)
(0.00564477 -0.0233404 -0.00426398)
(0.00590449 -0.0176804 -0.00406975)
(0.0060147 -0.0106804 -0.00380496)
(0.005936 -0.0023523 -0.0034302)
(0.00562989 0.00730482 -0.0028389)
(0.00507252 0.01841 -0.00185342)
(0.00427534 0.0311527 -0.000306185)
(0.00328377 0.045194 0.00172974)
(0.00215559 0.0581336 0.00363168)
(0.00122717 0.064633 0.00441355)
(0.000493338 0.0609623 0.00384405)
(1.41166e-05 0.0333448 0.00154293)
(-1.50055e-05 0.0195328 0.00172146)
(-0.000195801 0.0416255 0.00412469)
(-0.000600628 0.0499541 0.00548203)
(-0.00101021 0.0501035 0.00616162)
(-0.00137851 0.0452639 0.00632546)
(-0.00164949 0.0360288 0.00571048)
(-0.00177766 0.0248393 0.00426062)
(-0.00184737 0.0138089 0.00241006)
(-0.00187489 0.00392065 0.000670407)
(-0.00183615 -0.00465701 -0.000703082)
(-0.00170795 -0.0120568 -0.00170975)
(-0.00148278 -0.0184083 -0.00245181)
(-0.00116897 -0.0237624 -0.0030249)
(-0.000784871 -0.028121 -0.00348461)
(-0.000351906 -0.0314814 -0.00385409)
(0.000104177 -0.0338691 -0.0041418)
(0.000575799 -0.0353954 -0.0043594)
(0.00106233 -0.0361511 -0.00452033)
(0.00155532 -0.0361535 -0.00462379)
(0.00204824 -0.0353918 -0.00466797)
(0.00252985 -0.0338357 -0.00465269)
(0.00298715 -0.031392 -0.00457426)
(0.00342129 -0.0278363 -0.00443134)
(0.00381186 -0.0229046 -0.0042224)
(0.00412324 -0.0164326 -0.00397066)
(0.00431594 -0.00834307 -0.00371263)
(0.0043373 0.00131778 -0.00345839)
(0.00414169 0.012382 -0.00313069)
(0.00370849 0.0246764 -0.00254287)
(0.00305608 0.0380194 -0.00149474)
(0.00225372 0.0516581 -1.06506e-05)
(0.00140093 0.0630216 0.00141444)
(0.000732555 0.0678097 0.00205933)
(0.000240598 0.0626911 0.00183189)
(-2.99278e-05 0.0336139 0.000629941)
(4.31993e-05 0.0184429 0.00135345)
(0.00022333 0.0399725 0.00356522)
(0.000242294 0.0485149 0.00487366)
(0.000173583 0.0489784 0.00533741)
(2.09402e-05 0.0447771 0.00513578)
(-0.000226706 0.036257 0.00413302)
(-0.000548496 0.0256738 0.00257968)
(-0.000893075 0.01495 0.000968491)
(-0.00119601 0.00496873 -0.000360996)
(-0.0014008 -0.00402993 -0.00134133)
(-0.00147867 -0.0120054 -0.00206711)
(-0.00143142 -0.0189196 -0.00265145)
(-0.00128025 -0.0247186 -0.00315626)
(-0.00105143 -0.0293688 -0.00359432)
(-0.000769605 -0.0328843 -0.00395806)
(-0.000460301 -0.0353347 -0.00424179)
(-0.000130971 -0.0368858 -0.00445442)
(0.000213644 -0.0376414 -0.00460553)
(0.000562949 -0.0376227 -0.00469245)
(0.000913416 -0.0368296 -0.00471259)
(0.00125498 -0.0352399 -0.00466382)
(0.00158267 -0.0327395 -0.00453712)
(0.00190156 -0.0290727 -0.00431989)
(0.00219965 -0.0239619 -0.00400352)
(0.00246429 -0.0171509 -0.00361255)
(0.00267626 -0.00843147 -0.00321491)
(0.00279765 0.00224003 -0.00289789)
(0.00277191 0.0146238 -0.0026858)
(0.00255153 0.0282314 -0.00245135)
(0.00213714 0.042403 -0.00196386)
(0.00159028 0.0559513 -0.00113038)
(0.0010151 0.066269 -0.000239002)
(0.000555005 0.070009 0.00025246)
(0.000203281 0.0637725 0.000312814)
(-4.81603e-06 0.0337356 2.25259e-05)
(4.22855e-05 0.0165014 0.000928849)
(0.000369897 0.0364296 0.00258232)
(0.000691251 0.0451389 0.0036379)
(0.000920353 0.0464075 0.00398315)
(0.00103899 0.0435438 0.00378884)
(0.00103556 0.036951 0.0030242)
(0.000856995 0.0279232 0.00191166)
(0.000576967 0.0180162 0.00080472)
(0.00028921 0.00814465 -0.000110653)
(5.74799e-05 -0.00122692 -0.000849771)
(-8.38275e-05 -0.00978201 -0.00150633)
(-0.000134518 -0.0172653 -0.00213716)
(-0.000116 -0.023515 -0.00273301)
(-4.705e-05 -0.0284768 -0.00325538)
(6.23643e-05 -0.0321836 -0.00367629)
(0.000198539 -0.0347341 -0.00399255)
(0.000352334 -0.0363281 -0.00422424)
(0.000521199 -0.0370895 -0.00438566)
(0.000697095 -0.0370511 -0.00448167)
(0.000875548 -0.0362255 -0.00451401)
(0.0010489 -0.0346045 -0.00448035)
(0.00121414 -0.0320718 -0.00436703)
(0.00137408 -0.0283813 -0.00414846)
(0.0015246 -0.0232924 -0.00379949)
(0.00166846 -0.016517 -0.00331871)
(0.00180644 -0.00773161 -0.00275821)
(0.00192495 0.00328222 -0.00224075)
(0.00198459 0.0163926 -0.0019098)
(0.00192744 0.0309669 -0.0017916)
(0.0017146 0.0459116 -0.00171394)
(0.00136205 0.0595757 -0.00146563)
(0.000948254 0.0693039 -0.00107422)
(0.000580932 0.0724228 -0.000752529)
(0.000257389 0.0653156 -0.000509858)
(1.74667e-05 0.0343055 -0.000235159)
(-1.07358e-06 0.0149646 0.00070016)
(0.000185658 0.0330957 0.00186952)
(0.000444216 0.0413121 0.0026209)
(0.000676023 0.0429009 0.00287694)
(0.000851429 0.0408362 0.00277776)
(0.00095701 0.0355899 0.00234415)
(0.000940457 0.0277629 0.00169675)
(0.000844437 0.0185433 0.0010098)
(0.000738798 0.00886666 0.000336403)
(0.000665622 -0.000585581 -0.00036539)
(0.000628557 -0.00927699 -0.00111946)
(0.000615649 -0.016838 -0.00187862)
(0.000621507 -0.0230988 -0.00256187)
(0.000644735 -0.028047 -0.00311093)
(0.000686996 -0.0317521 -0.0035125)
(0.000747928 -0.0343187 -0.00378806)
(0.000826152 -0.0359263 -0.00397583)
(0.000920313 -0.0366926 -0.00410019)
(0.00102391 -0.0366485 -0.00417773)
(0.00113168 -0.0358059 -0.00421644)
(0.00123498 -0.0341636 -0.00421427)
(0.00132944 -0.0316151 -0.00415564)
(0.00141335 -0.0279426 -0.00400551)
(0.0014841 -0.0229538 -0.0037207)
(0.00154857 -0.0163797 -0.00326346)
(0.00161808 -0.0078529 -0.00263438)
(0.0016995 0.00299966 -0.00192009)
(0.00177888 0.0162816 -0.00131098)
(0.00180869 0.0314889 -0.000999653)
(0.0017218 0.047336 -0.000990327)
(0.00147565 0.0617431 -0.00106622)
(0.00110618 0.0717773 -0.00103267)
(0.000728798 0.0748653 -0.000885139)
(0.000351715 0.0672768 -0.000620264)
(3.57141e-05 0.0352431 -0.000197373)
(-1.23263e-05 0.0143082 0.000617458)
(1.88644e-05 0.0314041 0.00151236)
(8.43316e-05 0.0391026 0.00205597)
(0.000162185 0.0406962 0.00226663)
(0.000236606 0.0389512 0.00225968)
(0.000302425 0.034354 0.00206003)
(0.000346628 0.0271573 0.00168559)
(0.000386309 0.0183418 0.00116367)
(0.000442695 0.00888929 0.000487359)
(0.000516011 -0.000379195 -0.000327917)
(0.000591842 -0.0088481 -0.00119575)
(0.000658999 -0.0161689 -0.00199258)
(0.000717816 -0.0222375 -0.00262531)
(0.000776066 -0.0270854 -0.00306261)
(0.000843755 -0.030782 -0.00332628)
(0.000926463 -0.0333939 -0.00346695)
(0.00102537 -0.0350476 -0.00353914)
(0.00114102 -0.0358383 -0.00357708)
(0.00126614 -0.0357867 -0.00360911)
(0.00139316 -0.0348969 -0.00365048)
(0.0015097 -0.0331646 -0.00369906)
(0.00160922 -0.0304893 -0.00373988)
(0.00168399 -0.0266929 -0.00373223)
(0.00172777 -0.021652 -0.00361463)
(0.0017461 -0.0151684 -0.00331436)
(0.00175299 -0.00690621 -0.00277455)
(0.00176564 0.0035756 -0.00200641)
(0.00179309 0.016603 -0.00115513)
(0.0018161 0.0319719 -0.000492141)
(0.00177218 0.0485017 -0.000236776)
(0.00157817 0.0638222 -0.000331305)
(0.00121866 0.0745285 -0.000488222)
(0.000815599 0.0777938 -0.000498753)
(0.000392807 0.0697937 -0.000322772)
(3.80815e-05 0.0364534 -1.609e-05)
(-2.04633e-05 0.0141462 0.00062139)
(-8.25604e-05 0.0308594 0.00144542)
(-0.000166879 0.0382035 0.00191116)
(-0.00023685 0.0396114 0.00210501)
(-0.000282837 0.0377489 0.00212796)
(-0.000296879 0.0330475 0.00197876)
(-0.000260775 0.0257519 0.0016041)
(-0.000174667 0.0168838 0.000982998)
(-5.47916e-05 0.00751003 0.000150642)
(7.3926e-05 -0.00151617 -0.00078047)
(0.000192327 -0.00964683 -0.00165355)
(0.00029586 -0.0166446 -0.00233889)
(0.000390682 -0.0224879 -0.00277682)
(0.000488907 -0.0272381 -0.00297495)
(0.000604164 -0.0309525 -0.00298694)
(0.000744712 -0.0336534 -0.00289089)
(0.000909648 -0.0353921 -0.0027626)
(0.00110069 -0.036229 -0.00264677)
(0.00130864 -0.0361693 -0.00258567)
(0.00151993 -0.0352016 -0.00260709)
(0.00171674 -0.0333045 -0.0027125)
(0.00188917 -0.0303731 -0.00289154)
(0.00202052 -0.0262788 -0.00309879)
(0.00209727 -0.0209731 -0.00324997)
(0.00212086 -0.0143451 -0.00323688)
(0.00210224 -0.0061351 -0.00295306)
(0.00205806 0.00407632 -0.00233453)
(0.00200582 0.0167309 -0.00143024)
(0.00195062 0.0319257 -0.00046469)
(0.00185929 0.0488127 0.000231318)
(0.00165188 0.0650402 0.000477715)
(0.00127989 0.0767365 0.000425445)
(0.000856261 0.0804212 0.000352291)
(0.000408925 0.0721458 0.000344293)
(4.06571e-05 0.0375627 0.000270886)
(-1.43391e-05 0.0141334 0.000616217)
(-8.19021e-05 0.0308026 0.00144264)
(-0.000203376 0.0380317 0.00189332)
(-0.000321707 0.0393049 0.00206322)
(-0.000415694 0.0372618 0.00204245)
(-0.000471163 0.0323243 0.00180285)
(-0.000464545 0.0248646 0.00127746)
(-0.000407156 0.0160069 0.000483722)
(-0.000326032 0.00683425 -0.00046652)
(-0.000243608 -0.00187799 -0.00140097)
(-0.000168952 -0.00970629 -0.00215439)
(-9.78943e-05 -0.0165124 -0.00262483)
(-2.02621e-05 -0.0223201 -0.00278409)
(7.70909e-05 -0.02719 -0.00266177)
(0.000209088 -0.0311502 -0.00232988)
(0.000387959 -0.0341677 -0.00189283)
(0.000610312 -0.0361782 -0.00146632)
(0.000874886 -0.0371998 -0.00112374)
(0.00117679 -0.0372219 -0.000912906)
(0.00148876 -0.0362068 -0.000881587)
(0.00178887 -0.0340962 -0.00104265)
(0.00206305 -0.0307617 -0.00140015)
(0.00227937 -0.0261436 -0.00190203)
(0.00241659 -0.0202879 -0.00242801)
(0.00247232 -0.013185 -0.00282112)
(0.00245457 -0.00466709 -0.00292567)
(0.00237718 0.00561836 -0.00262229)
(0.00225794 0.0181232 -0.00188313)
(0.00211349 0.0331064 -0.000851187)
(0.00193844 0.0500147 0.000141308)
(0.00167892 0.0666853 0.000756538)
(0.00128256 0.0790061 0.000943008)
(0.000849684 0.0829645 0.000922952)
(0.000400365 0.0744453 0.000811902)
(3.84657e-05 0.0386397 0.000453163)
(-8.35904e-06 0.0140379 0.000553839)
(-4.7038e-05 0.0306392 0.00135119)
(-0.000145119 0.0378138 0.00177955)
(-0.00025038 0.0390086 0.00189997)
(-0.000345298 0.0368381 0.00178902)
(-0.000418267 0.0317437 0.00140313)
(-0.00045544 0.0242207 0.000705179)
(-0.00046875 0.0154551 -0.000220074)
(-0.000477187 0.00648916 -0.00120368)
(-0.000488123 -0.00200478 -0.0020555)
(-0.000497747 -0.00969842 -0.00262706)
(-0.000496185 -0.0165121 -0.00284064)
(-0.000470473 -0.0224866 -0.00268303)
(-0.000406717 -0.0276743 -0.00219168)
(-0.000289421 -0.0320778 -0.00144987)
(-0.000103905 -0.0356148 -0.000587533)
(0.00015503 -0.0381416 0.000236343)
(0.000475291 -0.0395501 0.00088799)
(0.000850963 -0.0397998 0.00130984)
(0.00125262 -0.0388272 0.00145706)
(0.0016573 -0.0365179 0.00128862)
(0.00204619 -0.0326864 0.000767004)
(0.0023689 -0.0273564 -6.4157e-05)
(0.00259406 -0.0206927 -0.00104845)
(0.00271136 -0.0128188 -0.00196462)
(0.00272253 -0.00368405 -0.00258988)
(0.00263609 0.00697421 -0.00274241)
(0.00246649 0.0195761 -0.00232102)
(0.00223531 0.0344686 -0.00137487)
(0.00196131 0.0513364 -0.000177724)
(0.00162903 0.0682627 0.000837824)
(0.00120661 0.0810407 0.00136899)
(0.000779946 0.0851912 0.00146403)
(0.000356982 0.0763932 0.00124957)
(3.09239e-05 0.0395134 0.000585128)
(5.26161e-06 0.0138183 0.000412443)
(4.56782e-05 0.0302928 0.00109332)
(4.38751e-05 0.0375139 0.0014594)
(1.98415e-05 0.038774 0.00150945)
(-1.79815e-05 0.0366854 0.00130274)
(-6.79669e-05 0.0317602 0.000793946)
(-0.000139631 0.024491 -1.36605e-05)
(-0.000235258 0.0160347 -0.000981246)
(-0.000352209 0.00735646 -0.00191638)
(-0.000477416 -0.000957148 -0.00263844)
(-0.000597327 -0.0086404 -0.00301963)
(-0.000697094 -0.0156349 -0.00299488)
(-0.000758701 -0.0219781 -0.00255389)
(-0.000766565 -0.0277084 -0.00173605)
(-0.00070473 -0.0328001 -0.000635244)
(-0.000558915 -0.0371121 0.000595231)
(-0.000322789 -0.0404013 0.00176477)
(-5.84011e-06 -0.0424302 0.00270625)
(0.00036997 -0.0430891 0.0033431)
(0.000785219 -0.0423067 0.00366396)
(0.00123015 -0.0398831 0.00361533)
(0.00167634 -0.0355744 0.00311095)
(0.00207521 -0.0294097 0.00213366)
(0.00238531 -0.0216746 0.000817583)
(0.00258263 -0.0126525 -0.000577951)
(0.00265777 -0.00243743 -0.0017557)
(0.00261281 0.00910647 -0.0024617)
(0.00245566 0.0222883 -0.00253657)
(0.00220104 0.0373874 -0.00195978)
(0.00187266 0.0541374 -0.000912367)
(0.00148699 0.0708105 0.000213448)
(0.00105557 0.0833546 0.000989449)
(0.000656623 0.0873197 0.00126595)
(0.00028843 0.078145 0.00112973)
(2.15827e-05 0.0402682 0.000494137)
(2.73186e-05 0.0132329 0.000208716)
(0.000186967 0.0292515 0.000670439)
(0.000347177 0.0365326 0.000924177)
(0.000476328 0.038015 0.000902072)
(0.000565536 0.03626 0.000640976)
(0.000612902 0.0318952 0.000102375)
(0.000589507 0.025248 -0.000696346)
(0.000493844 0.0173286 -0.0016056)
(0.000347042 0.00900725 -0.0024449)
(0.000175516 0.00082142 -0.00305498)
(9.04701e-06 -0.00696528 -0.00331959)
(-0.000126536 -0.0142696 -0.00317219)
(-0.00021603 -0.0211058 -0.00259706)
(-0.000245947 -0.0274968 -0.00163468)