/*--------------------------------*- C++ -*----------------------------------*\
| =========                 |                                                 |
| \\      /  F ield         | OpenFOAM: The Open Source CFD Toolbox           |
|  \\    /   O peration     | Version:  v1906                                 |
|   \\  /    A nd           | Web:      www.OpenFOAM.com                      |
|    \\/     M anipulation  |                                                 |
\*---------------------------------------------------------------------------*/
FoamFile
{
    version     2.0;
    format      ascii;
    class       volVectorField;
    location    "21.6/oil";
    object      U;
}
// * * * * * * * * * * * * * * * * * * * * * * * * * * * * * * * * * * * * * //

dimensions      [0 1 -1 0 0 0 0];


internalField   nonuniform List<vector> 
27760
(
(-2.95334e-05 -3.01328e-05 -2.95334e-05)
(-5.83329e-05 -2.26154e-05 -2.12636e-05)
(-4.33581e-06 -5.87913e-06 -5.78513e-06)
(-7.15127e-06 -9.78017e-07 -1.01134e-06)
(-1.79612e-06 -3.33416e-07 -3.67407e-07)
(-1.06521e-06 -1.61885e-07 -1.91593e-07)
(-4.09397e-07 -6.09138e-08 -8.95403e-08)
(-1.21471e-07 -2.16701e-08 -5.08717e-08)
(3.49906e-08 -2.17677e-09 -3.2343e-08)
(1.10945e-07 7.80582e-09 -2.32121e-08)
(1.39431e-07 1.36164e-08 -1.80187e-08)
(1.35474e-07 1.73428e-08 -1.46583e-08)
(1.08403e-07 1.98269e-08 -1.23737e-08)
(6.49201e-08 2.13837e-08 -1.08847e-08)
(1.10833e-08 2.22167e-08 -1.0071e-08)
(-4.72076e-08 2.23882e-08 -9.89581e-09)
(-1.04338e-07 2.1949e-08 -1.03078e-08)
(-1.55221e-07 2.09711e-08 -1.1207e-08)
(-1.95653e-07 1.95513e-08 -1.24432e-08)
(-2.22654e-07 1.77519e-08 -1.38538e-08)
(-2.34678e-07 1.56776e-08 -1.52368e-08)
(-2.31565e-07 1.34758e-08 -1.63662e-08)
(-2.14449e-07 1.12325e-08 -1.70105e-08)
(-1.85606e-07 9.01043e-09 -1.6962e-08)
(-1.4834e-07 6.83147e-09 -1.61148e-08)
(-1.06816e-07 4.77926e-09 -1.434e-08)
(-6.5841e-08 3.03194e-09 -1.16253e-08)
(-3.07493e-08 1.93932e-09 -8.18454e-09)
(-6.64656e-09 2.07071e-09 -4.70419e-09)
(1.61694e-09 3.05722e-09 -1.49245e-09)
(-2.1443e-05 -5.99175e-05 -2.1443e-05)
(-7.10711e-06 -7.67198e-06 -9.605e-06)
(-9.73124e-06 -9.24945e-06 -3.35455e-06)
(-4.78444e-06 -2.52507e-06 -9.52814e-07)
(-2.28709e-06 -1.44318e-06 -4.65242e-07)
(-1.21442e-06 -6.91353e-07 -2.2085e-07)
(-4.92076e-07 -3.77489e-07 -1.0317e-07)
(-1.00223e-07 -2.18318e-07 -4.92334e-08)
(1.28179e-07 -1.35446e-07 -2.1001e-08)
(2.46007e-07 -8.78061e-08 -5.17852e-09)
(2.88286e-07 -5.7888e-08 4.87734e-09)
(2.73899e-07 -3.76025e-08 1.18728e-08)
(2.16433e-07 -2.34972e-08 1.69024e-08)
(1.27463e-07 -1.4132e-08 2.0335e-08)
(1.83059e-08 -8.8847e-09 2.22069e-08)
(-9.96716e-08 -7.44388e-09 2.25427e-08)
(-2.15357e-07 -9.48103e-09 2.14342e-08)
(-3.18615e-07 -1.45229e-08 1.90756e-08)
(-4.01106e-07 -2.19209e-08 1.57731e-08)
(-4.56885e-07 -3.09382e-08 1.19303e-08)
(-4.8274e-07 -4.0759e-08 7.96253e-09)
(-4.78353e-07 -5.05577e-08 4.24594e-09)
(-4.46075e-07 -5.95639e-08 1.16016e-09)
(-3.9054e-07 -6.70386e-08 -9.86267e-10)
(-3.18282e-07 -7.2214e-08 -1.99133e-09)
(-2.373e-07 -7.4058e-08 -1.76471e-09)
(-1.5654e-07 -7.10823e-08 -4.22795e-10)
(-8.51721e-08 -6.12026e-08 1.56265e-09)
(-3.16066e-08 -4.17569e-08 3.0763e-09)
(-2.33101e-09 -1.33284e-08 2.51671e-09)
(-5.94665e-06 -5.47221e-06 -5.94666e-06)
(-9.48673e-06 -1.0165e-05 -3.45532e-06)
(-5.22173e-06 -5.40008e-06 -1.53633e-06)
(-3.45791e-06 -2.77635e-06 -7.34335e-07)
(-1.87221e-06 -1.68053e-06 -3.52996e-07)
(-9.82758e-07 -1.01133e-06 -1.67537e-07)
(-3.69641e-07 -6.73721e-07 -7.37104e-08)
(3.43621e-09 -4.82803e-07 -2.63812e-08)
(2.32204e-07 -3.71109e-07 3.80368e-10)
(3.52791e-07 -3.00205e-07 1.68262e-08)
(3.91327e-07 -2.51926e-07 2.82132e-08)
(3.64076e-07 -2.17308e-07 3.6665e-08)
(2.84587e-07 -1.92296e-07 4.29849e-08)
(1.65918e-07 -1.75182e-07 4.73587e-08)
(2.18095e-08 -1.6533e-07 4.97473e-08)
(-1.33385e-07 -1.62312e-07 5.01302e-08)
(-2.85439e-07 -1.65549e-07 4.85969e-08)
(-4.21286e-07 -1.7413e-07 4.53861e-08)
(-5.30128e-07 -1.86775e-07 4.08842e-08)
(-6.04299e-07 -2.01932e-07 3.55761e-08)
(-6.39735e-07 -2.1793e-07 2.99803e-08)
(-6.36078e-07 -2.33114e-07 2.45902e-08)
(-5.96373e-07 -2.45827e-07 1.98405e-08)
(-5.266e-07 -2.54393e-07 1.60676e-08)
(-4.35015e-07 -2.56935e-07 1.34704e-08)
(-3.31507e-07 -2.51087e-07 1.20828e-08)
(-2.26825e-07 -2.3362e-07 1.16962e-08)
(-1.31451e-07 -2.00142e-07 1.16785e-08)
(-5.52933e-08 -1.44638e-07 1.07333e-08)
(-5.93549e-09 -6.12117e-08 6.17327e-09)
(-1.09159e-06 -7.78865e-06 -1.0916e-06)
(-2.66072e-06 -5.42081e-06 -1.00729e-06)
(-2.51088e-06 -4.06814e-06 -7.433e-07)
(-1.91615e-06 -2.60705e-06 -4.07682e-07)
(-1.13532e-06 -1.80603e-06 -2.11056e-07)
(-5.72861e-07 -1.28673e-06 -1.01307e-07)
(-1.36789e-07 -9.87123e-07 -3.89158e-08)
(1.60648e-07 -8.00519e-07 -3.49345e-09)
(3.52938e-07 -6.80447e-07 1.87458e-08)
(4.54249e-07 -5.97686e-07 3.39851e-08)
(4.78031e-07 -5.37356e-07 4.54934e-08)
(4.34956e-07 -4.91856e-07 5.45616e-08)
(3.36313e-07 -4.57817e-07 6.15796e-08)
(1.94919e-07 -4.33988e-07 6.65163e-08)
(2.54568e-08 -4.19981e-07 6.92149e-08)
(-1.5609e-07 -4.15438e-07 6.9599e-08)
(-3.33604e-07 -4.19608e-07 6.77459e-08)
(-4.92156e-07 -4.31156e-07 6.39176e-08)
(-6.19379e-07 -4.48129e-07 5.85616e-08)
(-7.06541e-07 -4.68156e-07 5.22268e-08)
(-7.49065e-07 -4.8863e-07 4.5507e-08)
(-7.46645e-07 -5.06903e-07 3.89585e-08)
(-7.0283e-07 -5.20328e-07 3.30535e-08)
(-6.24421e-07 -5.26175e-07 2.81417e-08)
(-5.20643e-07 -5.21362e-07 2.44126e-08)
(-4.02318e-07 -5.02061e-07 2.18701e-08)
(-2.81025e-07 -4.63125e-07 2.02665e-08)
(-1.67821e-07 -3.97357e-07 1.88795e-08)
(-7.38949e-08 -2.93703e-07 1.62955e-08)
(-8.63934e-09 -1.33595e-07 8.94012e-09)
(-3.8013e-07 -2.336e-06 -3.80142e-07)
(-1.41441e-06 -3.0994e-06 -4.76413e-07)
(-1.31864e-06 -2.85148e-06 -3.54147e-07)
(-1.03223e-06 -2.25587e-06 -2.10822e-07)
(-6.00589e-07 -1.82957e-06 -1.11587e-07)
(-2.29804e-07 -1.50791e-06 -4.94259e-08)
(8.33089e-08 -1.29276e-06 -1.00898e-08)
(3.1435e-07 -1.14232e-06 1.50798e-08)
(4.68193e-07 -1.03445e-06 3.28901e-08)
(5.46057e-07 -9.52894e-07 4.6577e-08)
(5.52531e-07 -8.88843e-07 5.78378e-08)
(4.9366e-07 -8.37832e-07 6.72258e-08)
(3.78414e-07 -7.98223e-07 7.47279e-08)
(2.18884e-07 -7.69796e-07 8.00931e-08)
(3.00689e-08 -7.5277e-07 8.3025e-08)
(-1.711e-07 -7.47026e-07 8.3384e-08)
(-3.67292e-07 -7.51759e-07 8.12311e-08)
(-5.42317e-07 -7.65303e-07 7.6846e-08)
(-6.82759e-07 -7.85099e-07 7.07423e-08)
(-7.79201e-07 -8.07992e-07 6.3531e-08)
(-8.26807e-07 -8.30484e-07 5.5882e-08)
(-8.25402e-07 -8.48999e-07 4.84073e-08)
(-7.7893e-07 -8.59915e-07 4.16134e-08)
(-6.94745e-07 -8.59481e-07 3.5861e-08)
(-5.82655e-07 -8.43444e-07 3.1337e-08)
(-4.53972e-07 -8.06488e-07 2.80266e-08)
(-3.20703e-07 -7.41372e-07 2.56617e-08)
(-1.94292e-07 -6.37483e-07 2.34616e-08)
(-8.7122e-08 -4.77033e-07 1.99166e-08)
(-1.04405e-08 -2.24094e-07 1.08075e-08)
(-1.78872e-07 -1.62188e-06 -1.78884e-07)
(-5.85215e-07 -2.26056e-06 -2.12604e-07)
(-5.90654e-07 -2.33008e-06 -1.62666e-07)
(-4.5529e-07 -2.12893e-06 -1.00145e-07)
(-2.067e-07 -1.93241e-06 -5.00049e-08)
(4.29184e-08 -1.7555e-06 -1.49662e-08)
(2.70446e-07 -1.6183e-06 1.001e-08)
(4.48607e-07 -1.50976e-06 2.8304e-08)
(5.68619e-07 -1.42267e-06 4.30162e-08)
(6.24218e-07 -1.35033e-06 5.56152e-08)
(6.1423e-07 -1.28916e-06 6.67791e-08)
(5.41252e-07 -1.23777e-06 7.65291e-08)
(4.12306e-07 -1.1964e-06 8.45254e-08)
(2.38667e-07 -1.16596e-06 9.03196e-08)
(3.53724e-08 -1.14738e-06 9.34781e-08)
(-1.80108e-07 -1.14085e-06 9.38029e-08)
(-3.89678e-07 -1.14561e-06 9.13378e-08)
(-5.76297e-07 -1.15977e-06 8.63813e-08)
(-7.25848e-07 -1.1803e-06 7.95199e-08)
(-8.28501e-07 -1.20343e-06 7.14409e-08)
(-8.79354e-07 -1.22494e-06 6.29022e-08)
(-8.78407e-07 -1.24046e-06 5.45731e-08)
(-8.29975e-07 -1.24553e-06 4.69972e-08)
(-7.41829e-07 -1.23551e-06 4.05529e-08)
(-6.24124e-07 -1.20504e-06 3.54262e-08)
(-4.88445e-07 -1.14731e-06 3.15898e-08)
(-3.47033e-07 -1.05279e-06 2.87588e-08)
(-2.11627e-07 -9.0685e-07 2.61105e-08)
(-9.5552e-08 -6.83595e-07 2.20553e-08)
(-1.15194e-08 -3.26662e-07 1.19496e-08)
(-6.68405e-08 -1.06285e-06 -6.68522e-08)
(-2.3885e-07 -1.80032e-06 -8.66824e-08)
(-2.26206e-07 -2.08367e-06 -6.67506e-08)
(-1.27244e-07 -2.12388e-06 -3.89367e-08)
(4.55354e-08 -2.09155e-06 -1.33725e-08)
(2.31949e-07 -2.02794e-06 6.82605e-09)
(4.08133e-07 -1.96096e-06 2.33474e-08)
(5.50128e-07 -1.89585e-06 3.73489e-08)
(6.4473e-07 -1.83486e-06 5.00865e-08)
(6.82513e-07 -1.77794e-06 6.20504e-08)
(6.59235e-07 -1.72558e-06 7.3291e-08)
(5.75341e-07 -1.67898e-06 8.34661e-08)
(4.36462e-07 -1.63995e-06 9.19756e-08)
(2.53194e-07 -1.61045e-06 9.82017e-08)
(4.04539e-08 -1.59202e-06 1.01579e-07)
(-1.84031e-07 -1.58516e-06 1.01866e-07)
(-4.018e-07 -1.58917e-06 9.90926e-08)
(-5.9531e-07 -1.60211e-06 9.35641e-08)
(-7.50043e-07 -1.6207e-06 8.59475e-08)
(-8.55992e-07 -1.64078e-06 7.70153e-08)
(-9.083e-07 -1.65764e-06 6.76155e-08)
(-9.07219e-07 -1.6664e-06 5.84805e-08)
(-8.57402e-07 -1.66202e-06 5.02011e-08)
(-7.66906e-07 -1.63911e-06 4.31656e-08)
(-6.46097e-07 -1.5913e-06 3.75617e-08)
(-5.06647e-07 -1.51028e-06 3.3349e-08)
(-3.60868e-07 -1.38408e-06 3.02288e-08)
(-2.20635e-07 -1.1936e-06 2.73514e-08)
(-9.98213e-08 -9.03831e-07 2.30688e-08)
(-1.20284e-08 -4.36217e-07 1.25151e-08)
(-2.44604e-08 -8.92382e-07 -2.44718e-08)
(-7.19908e-08 -1.67102e-06 -3.09253e-08)
(-3.21485e-08 -2.06244e-06 -2.10352e-08)
(6.14925e-08 -2.23689e-06 -7.32214e-09)
(2.0106e-07 -2.31115e-06 6.70339e-09)
(3.53163e-07 -2.32947e-06 1.9363e-08)
(4.97838e-07 -2.32029e-06 3.12898e-08)
(6.15199e-07 -2.29576e-06 4.28446e-08)
(6.91352e-07 -2.26291e-06 5.44478e-08)
(7.15906e-07 -2.22563e-06 6.61068e-08)
(6.83177e-07 -2.18699e-06 7.75178e-08)
(5.92361e-07 -2.14989e-06 8.80985e-08)
(4.48143e-07 -2.11727e-06 9.70597e-08)
(2.60521e-07 -2.09173e-06 1.0366e-07)
(4.41532e-08 -2.07522e-06 1.07217e-07)
(-1.83309e-07 -2.0684e-06 1.07467e-07)
(-4.03486e-07 -2.07071e-06 1.04425e-07)
(-5.98741e-07 -2.08029e-06 9.83959e-08)
(-7.54444e-07 -2.09385e-06 9.01241e-08)
(-8.60641e-07 -2.10715e-06 8.04486e-08)
(-9.12645e-07 -2.11538e-06 7.03049e-08)
(-9.10982e-07 -2.11339e-06 6.04901e-08)
(-8.60557e-07 -2.09583e-06 5.16384e-08)
(-7.69574e-07 -2.05676e-06 4.41431e-08)
(-6.48447e-07 -1.98898e-06 3.81901e-08)
(-5.0874e-07 -1.88269e-06 3.37238e-08)
(-3.62606e-07 -1.72331e-06 3.04401e-08)
(-2.21825e-07 -1.48702e-06 2.74758e-08)
(-1.0035e-07 -1.12922e-06 2.31654e-08)
(-1.206e-08 -5.48372e-07 1.2595e-08)
(-5.44242e-09 -8.52624e-07 -5.45343e-09)
(5.36366e-09 -1.68611e-06 -4.68652e-09)
(6.57787e-08 -2.15391e-06 1.18851e-09)
(1.61479e-07 -2.41643e-06 8.69503e-09)
(2.85503e-07 -2.56621e-06 1.71344e-08)
(4.17631e-07 -2.64693e-06 2.58852e-08)
(5.41834e-07 -2.68633e-06 3.52566e-08)
(6.4184e-07 -2.69948e-06 4.5343e-08)
(7.04609e-07 -2.69578e-06 5.62001e-08)
(7.19919e-07 -2.68117e-06 6.76012e-08)
(6.81658e-07 -2.66019e-06 7.90543e-08)
(5.88387e-07 -2.63667e-06 8.98393e-08)
(4.44163e-07 -2.61406e-06 9.904e-08)
(2.584e-07 -2.5952e-06 1.05839e-07)
(4.52688e-08 -2.58218e-06 1.09464e-07)
(-1.78102e-07 -2.57571e-06 1.09677e-07)
(-3.9395e-07 -2.57534e-06 1.06487e-07)
(-5.85038e-07 -2.57945e-06 1.00148e-07)
(-7.37016e-07 -2.58499e-06 9.14645e-08)
(-8.40215e-07 -2.58794e-06 8.13209e-08)
(-8.90178e-07 -2.58366e-06 7.07221e-08)
(-8.87686e-07 -2.56714e-06 6.05031e-08)
(-8.37776e-07 -2.53297e-06 5.13197e-08)
(-7.48626e-07 -2.47491e-06 4.35751e-08)
(-6.30437e-07 -2.38503e-06 3.7447e-08)
(-4.94416e-07 -2.2521e-06 3.28738e-08)
(-3.52283e-07 -2.05897e-06 2.95442e-08)
(-2.15412e-07 -1.77696e-06 2.66078e-08)
(-9.73509e-08 -1.3518e-06 2.24382e-08)
(-1.16601e-08 -6.59088e-07 1.22348e-08)
(2.50882e-09 -8.79259e-07 2.49794e-09)
(3.96979e-08 -1.77692e-06 6.72848e-09)
(1.10194e-07 -2.3056e-06 1.10114e-08)
(2.05522e-07 -2.63073e-06 1.57949e-08)
(3.1853e-07 -2.83636e-06 2.1512e-08)
(4.35643e-07 -2.96587e-06 2.81705e-08)
(5.43951e-07 -3.04639e-06 3.60065e-08)
(6.30077e-07 -3.09412e-06 4.50406e-08)
(6.82397e-07 -3.11946e-06 5.51979e-08)
(6.91462e-07 -3.12928e-06 6.61508e-08)
(6.51291e-07 -3.12863e-06 7.73199e-08)
(5.6022e-07 -3.12158e-06 8.79281e-08)
(4.21856e-07 -3.1116e-06 9.69926e-08)
(2.44921e-07 -3.10146e-06 1.03688e-07)
(4.27799e-08 -3.09311e-06 1.07213e-07)
(-1.68472e-07 -3.0872e-06 1.0739e-07)
(-3.72393e-07 -3.08342e-06 1.04221e-07)
(-5.52715e-07 -3.08039e-06 9.78821e-08)
(-6.95782e-07 -3.0755e-06 8.91962e-08)
(-7.9247e-07 -3.06523e-06 7.90331e-08)
(-8.38672e-07 -3.04541e-06 6.84207e-08)
(-8.35339e-07 -3.01142e-06 5.82128e-08)
(-7.87436e-07 -2.95809e-06 4.90693e-08)
(-7.02865e-07 -2.87907e-06 4.13866e-08)
(-5.91301e-07 -2.76583e-06 3.53285e-08)
(-4.63304e-07 -2.60587e-06 3.08285e-08)
(-3.29826e-07 -2.3795e-06 2.75901e-08)
(-2.01467e-07 -2.05333e-06 2.48027e-08)
(-9.09073e-08 -1.56376e-06 2.09264e-08)
(-1.08463e-08 -7.64492e-07 1.14526e-08)
(5.46283e-09 -9.31384e-07 5.44953e-09)
(5.1326e-08 -1.89678e-06 1.09246e-08)
(1.22402e-07 -2.47779e-06 1.43744e-08)
(2.11864e-07 -2.85123e-06 1.7795e-08)
(3.12644e-07 -3.10028e-06 2.20245e-08)
(4.14822e-07 -3.26908e-06 2.73622e-08)
(5.07956e-07 -3.38468e-06 3.40255e-08)
(5.8111e-07 -3.46369e-06 4.20315e-08)
(6.24299e-07 -3.51683e-06 5.12515e-08)
(6.29179e-07 -3.55118e-06 6.13379e-08)
(5.903e-07 -3.57174e-06 7.16954e-08)
(5.06045e-07 -3.58235e-06 8.15557e-08)
(3.79625e-07 -3.58618e-06 8.99577e-08)
(2.18907e-07 -3.58567e-06 9.6136e-08)
(3.60221e-08 -3.5825e-06 9.93237e-08)
(-1.54587e-07 -3.57728e-06 9.94657e-08)
(-3.38458e-07 -3.56976e-06 9.65577e-08)
(-5.00957e-07 -3.55887e-06 9.06429e-08)
(-6.29628e-07 -3.54242e-06 8.24979e-08)
(-7.16196e-07 -3.51753e-06 7.29179e-08)
(-7.56956e-07 -3.48067e-06 6.29109e-08)
(-7.52913e-07 -3.4278e-06 5.32843e-08)
(-7.08755e-07 -3.35418e-06 4.46707e-08)
(-6.31785e-07 -3.25357e-06 3.74481e-08)
(-5.3082e-07 -3.11703e-06 3.17726e-08)
(-4.1539e-07 -2.9309e-06 2.75786e-08)
(-2.95331e-07 -2.6732e-06 2.45878e-08)
(-1.80134e-07 -2.30613e-06 2.20744e-08)
(-8.11188e-08 -1.75747e-06 1.86521e-08)
(-9.62905e-09 -8.60804e-07 1.02599e-08)
(5.91482e-09 -9.89255e-07 5.90024e-09)
(5.01358e-08 -2.01864e-06 1.12708e-08)
(1.14011e-07 -2.64431e-06 1.40711e-08)
(1.91659e-07 -3.0559e-06 1.66437e-08)
(2.76686e-07 -3.33916e-06 1.98744e-08)
(3.61621e-07 -3.53964e-06 2.4163e-08)
(4.38216e-07 -3.68463e-06 2.97009e-08)
(4.97782e-07 -3.79097e-06 3.65069e-08)
(5.32099e-07 -3.86934e-06 4.44449e-08)
(5.34203e-07 -3.92659e-06 5.31905e-08)
(4.99446e-07 -3.96731e-06 6.21912e-08)
(4.26411e-07 -3.99493e-06 7.07466e-08)
(3.17856e-07 -4.01212e-06 7.79873e-08)
(1.80541e-07 -4.02091e-06 8.32734e-08)
(2.48912e-08 -4.02273e-06 8.59294e-08)
(-1.36878e-07 -4.01825e-06 8.60318e-08)
(-2.92851e-07 -4.00725e-06 8.35698e-08)
(-4.30637e-07 -3.98879e-06 7.8452e-08)
(-5.39485e-07 -3.96111e-06 7.13676e-08)
(-6.12286e-07 -3.92184e-06 6.29725e-08)
(-6.459e-07 -3.86821e-06 5.41765e-08)
(-6.41304e-07 -3.79691e-06 4.57037e-08)
(-6.02657e-07 -3.70369e-06 3.81271e-08)
(-5.36302e-07 -3.58253e-06 3.17844e-08)
(-4.49857e-07 -3.42425e-06 2.68128e-08)
(-3.51455e-07 -3.21428e-06 2.31599e-08)
(-2.49433e-07 -2.9286e-06 2.05869e-08)
(-1.51825e-07 -2.52562e-06 1.84795e-08)
(-6.81752e-08 -1.92553e-06 1.56599e-08)
(-8.02992e-09 -9.44361e-07 8.67793e-09)
(5.04446e-09 -1.04114e-06 5.02366e-09)
(4.11373e-08 -2.12461e-06 9.43699e-09)
(9.17228e-08 -2.78613e-06 1.15523e-08)
(1.52162e-07 -3.22704e-06 1.34318e-08)
(2.17368e-07 -3.53652e-06 1.58179e-08)
(2.81946e-07 -3.76166e-06 1.90757e-08)
(3.39794e-07 -3.93016e-06 2.33625e-08)
(3.84436e-07 -4.05895e-06 2.8689e-08)
(4.09603e-07 -4.15847e-06 3.49322e-08)
(4.0991e-07 -4.2352e-06 4.18168e-08)
(3.81697e-07 -4.29323e-06 4.88837e-08)
(3.23825e-07 -4.33537e-06 5.55678e-08)
(2.38495e-07 -4.36378e-06 6.11523e-08)
(1.31044e-07 -4.38028e-06 6.51696e-08)
(9.71019e-09 -4.3862e-06 6.71142e-08)
(-1.16008e-07 -4.38241e-06 6.71677e-08)
(-2.37096e-07 -4.36874e-06 6.53256e-08)
(-3.43906e-07 -4.34415e-06 6.13823e-08)
(-4.27941e-07 -4.30703e-06 5.586e-08)
(-4.83611e-07 -4.25549e-06 4.92467e-08)
(-5.08482e-07 -4.18734e-06 4.22813e-08)
(-5.03445e-07 -4.09995e-06 3.55498e-08)
(-4.71887e-07 -3.98967e-06 2.95297e-08)
(-4.18902e-07 -3.85075e-06 2.44899e-08)
(-3.50539e-07 -3.67393e-06 2.05523e-08)
(-2.73183e-07 -3.44388e-06 1.76774e-08)
(-1.93354e-07 -3.13509e-06 1.56845e-08)
(-1.17304e-07 -2.70283e-06 1.41013e-08)
(-5.24274e-08 -2.06115e-06 1.2022e-08)
(-6.09252e-09 -1.01181e-06 6.75257e-09)
(3.41358e-09 -1.07996e-06 3.38916e-09)
(2.71722e-08 -2.20272e-06 6.31006e-09)
(5.99563e-08 -2.88962e-06 7.66005e-09)
(9.88533e-08 -3.35095e-06 8.86527e-09)
(1.406e-07 -3.67884e-06 1.04336e-08)
(1.81884e-07 -3.92166e-06 1.26229e-08)
(2.18816e-07 -4.10742e-06 1.5531e-08)
(2.47202e-07 -4.25308e-06 1.91734e-08)
(2.62894e-07 -4.36878e-06 2.34688e-08)
(2.6223e-07 -4.46052e-06 2.82241e-08)
(2.42684e-07 -4.53185e-06 3.31136e-08)
(2.03364e-07 -4.58512e-06 3.77395e-08)
(1.45666e-07 -4.62203e-06 4.1592e-08)
(7.31475e-08 -4.64425e-06 4.43584e-08)
(-8.57698e-09 -4.6532e-06 4.56733e-08)
(-9.29968e-08 -4.64998e-06 4.5673e-08)
(-1.73979e-07 -4.63451e-06 4.43585e-08)
(-2.4491e-07 -4.60549e-06 4.15701e-08)
(-3.00013e-07 -4.56138e-06 3.76979e-08)
(-3.35622e-07 -4.50051e-06 3.30725e-08)
(-3.50217e-07 -4.4212e-06 2.82287e-08)
(-3.44616e-07 -4.32139e-06 2.3564e-08)
(-3.21293e-07 -4.1979e-06 1.94113e-08)
(-2.83836e-07 -4.04535e-06 1.59593e-08)
(-2.36402e-07 -3.85447e-06 1.32848e-08)
(-1.8335e-07 -3.60947e-06 1.13598e-08)
(-1.29074e-07 -3.28369e-06 1.00722e-08)
(-7.77782e-08 -2.8302e-06 9.11149e-09)
(-3.44187e-08 -2.15859e-06 7.87371e-09)
(-3.88134e-09 -1.06031e-06 4.54702e-09)
(1.34328e-09 -1.10122e-06 1.31092e-09)
(1.01106e-08 -2.2449e-06 2.4028e-09)
(2.20103e-08 -2.94525e-06 2.90482e-09)
(3.62571e-08 -3.41768e-06 3.41409e-09)
(5.1823e-08 -3.75606e-06 4.1375e-09)
(6.75326e-08 -4.00942e-06 5.18152e-09)
(8.18273e-08 -4.20591e-06 6.59335e-09)
(9.28903e-08 -4.36233e-06 8.37715e-09)
(9.88075e-08 -4.48856e-06 1.04889e-08)
(9.77653e-08 -4.59021e-06 1.28423e-08)
(8.83983e-08 -4.67043e-06 1.52801e-08)
(7.00335e-08 -4.73114e-06 1.76145e-08)
(4.31149e-08 -4.77377e-06 1.95892e-08)
(9.16382e-09 -4.7999e-06 2.10317e-08)
(-2.91787e-08 -4.81091e-06 2.17133e-08)
(-6.85655e-08 -4.80813e-06 2.16513e-08)
(-1.05731e-07 -4.79147e-06 2.08625e-08)
(-1.37295e-07 -4.75954e-06 1.93051e-08)
(-1.60546e-07 -4.71087e-06 1.72491e-08)
(-1.73993e-07 -4.64393e-06 1.48643e-08)
(-1.77234e-07 -4.5574e-06 1.24279e-08)
(-1.71014e-07 -4.4496e-06 1.01327e-08)
(-1.56753e-07 -4.31775e-06 8.13088e-09)
(-1.36357e-07 -4.15669e-06 6.49972e-09)
(-1.11881e-07 -3.9572e-06 5.27354e-09)
(-8.5418e-08 -3.70326e-06 4.4392e-09)
(-5.90484e-08 -3.36756e-06 3.94706e-09)
(-3.47595e-08 -2.90196e-06 3.67627e-09)
(-1.48322e-08 -2.2135e-06 3.36178e-09)
(-1.47616e-09 -1.08768e-06 2.14315e-09)
(-9.51273e-10 -1.10229e-06 -9.9188e-10)
(-8.6185e-09 -2.24628e-06 -1.9051e-09)
(-1.93275e-08 -2.94711e-06 -2.29296e-09)
(-3.14681e-08 -3.42096e-06 -2.49097e-09)
(-4.35956e-08 -3.76177e-06 -2.61086e-09)
(-5.46922e-08 -4.01848e-06 -2.71509e-09)
(-6.39137e-08 -4.21904e-06 -2.82207e-09)
(-7.06715e-08 -4.38e-06 -2.93008e-09)
(-7.46193e-08 -4.51101e-06 -3.01574e-09)
(-7.56585e-08 -4.61748e-06 -3.03984e-09)
(-7.39668e-08 -4.7023e-06 -2.96866e-09)
(-7.00098e-08 -4.76713e-06 -2.78661e-09)
(-6.44557e-08 -4.81318e-06 -2.51206e-09)
(-5.79765e-08 -4.84184e-06 -2.21465e-09)
(-5.10298e-08 -4.85429e-06 -2.03688e-09)
(-4.3511e-08 -4.85177e-06 -2.14902e-09)
(-3.503e-08 -4.83424e-06 -2.51883e-09)
(-2.55147e-08 -4.80046e-06 -3.01299e-09)
(-1.5463e-08 -4.74919e-06 -3.42497e-09)
(-5.70953e-09 -4.67916e-06 -3.69084e-09)
(2.949e-09 -4.58931e-06 -3.77686e-09)
(9.84086e-09 -4.47815e-06 -3.71012e-09)
(1.46201e-08 -4.34307e-06 -3.53282e-09)
(1.7204e-08 -4.17905e-06 -3.29249e-09)
(1.77279e-08 -3.9769e-06 -3.02188e-09)
(1.64636e-08 -3.72058e-06 -2.72838e-09)
(1.37668e-08 -3.38264e-06 -2.39028e-09)
(9.95319e-09 -2.9147e-06 -1.94847e-09)
(5.51352e-09 -2.22326e-06 -1.31507e-09)
(1.01813e-09 -1.09264e-06 -3.54129e-10)
(-3.3153e-09 -1.082e-06 -3.36527e-09)
(-2.78279e-08 -2.20469e-06 -6.33573e-09)
(-6.15947e-08 -2.8926e-06 -7.62643e-09)
(-1.0051e-07 -3.35807e-06 -8.5266e-09)
(-1.40594e-07 -3.69331e-06 -9.48696e-09)
(-1.78641e-07 -3.94625e-06 -1.07484e-08)
(-2.11455e-07 -4.14423e-06 -1.2394e-08)
(-2.36088e-07 -4.3035e-06 -1.44352e-08)
(-2.49943e-07 -4.4335e-06 -1.68026e-08)
(-2.51039e-07 -4.53957e-06 -1.93577e-08)
(-2.38357e-07 -4.6246e-06 -2.18775e-08)
(-2.12088e-07 -4.69019e-06 -2.4121e-08)
(-1.7387e-07 -4.73738e-06 -2.58394e-08)
(-1.26483e-07 -4.7672e-06 -2.69584e-08)
(-7.34929e-08 -4.78044e-06 -2.74476e-08)
(-1.82244e-08 -4.77806e-06 -2.76032e-08)
(3.65629e-08 -4.76003e-06 -2.7376e-08)
(8.74647e-08 -4.72547e-06 -2.65089e-08)
(1.30793e-07 -4.67364e-06 -2.49606e-08)
(1.63494e-07 -4.60363e-06 -2.2825e-08)
(1.83695e-07 -4.51449e-06 -2.0332e-08)
(1.90916e-07 -4.40482e-06 -1.77434e-08)
(1.85948e-07 -4.27192e-06 -1.52868e-08)
(1.70534e-07 -4.11073e-06 -1.31196e-08)
(1.47017e-07 -3.91212e-06 -1.13212e-08)
(1.18027e-07 -3.66015e-06 -9.87974e-09)
(8.63185e-08 -3.32781e-06 -8.70538e-09)
(5.44898e-08 -2.86746e-06 -7.55048e-09)
(2.57749e-08 -2.18715e-06 -5.97377e-09)
(3.50259e-09 -1.07481e-06 -2.84533e-09)
(-5.61062e-09 -1.04043e-06 -5.66675e-09)
(-4.6455e-08 -2.12035e-06 -1.06306e-08)
(-1.02517e-07 -2.78213e-06 -1.27854e-08)
(-1.67237e-07 -3.22974e-06 -1.4345e-08)
(-2.34194e-07 -3.55168e-06 -1.60878e-08)
(-2.98086e-07 -3.794e-06 -1.84272e-08)
(-3.53506e-07 -3.98296e-06 -2.1525e-08)
(-3.95301e-07 -4.13428e-06 -2.5403e-08)
(-4.18767e-07 -4.25724e-06 -2.99576e-08)
(-4.20145e-07 -4.35725e-06 -3.49603e-08)
(-3.97201e-07 -4.43737e-06 -4.00319e-08)
(-3.49761e-07 -4.49933e-06 -4.4741e-08)
(-2.80253e-07 -4.54425e-06 -4.85768e-08)
(-1.93306e-07 -4.57292e-06 -5.12677e-08)
(-9.54546e-08 -4.58584e-06 -5.25509e-08)
(6.46879e-09 -4.58351e-06 -5.27198e-08)
(1.06287e-07 -4.56595e-06 -5.17317e-08)
(1.97043e-07 -4.53274e-06 -4.93168e-08)
(2.72028e-07 -4.48358e-06 -4.56758e-08)
(3.2626e-07 -4.41772e-06 -4.10907e-08)
(3.57022e-07 -4.33419e-06 -3.60519e-08)
(3.64148e-07 -4.23138e-06 -3.1024e-08)
(3.4958e-07 -4.1064e-06 -2.63877e-08)
(3.16814e-07 -3.95399e-06 -2.23936e-08)
(2.70279e-07 -3.76504e-06 -1.91543e-08)
(2.1482e-07 -3.52407e-06 -1.66421e-08)
(1.55437e-07 -3.20498e-06 -1.46892e-08)
(9.69155e-08 -2.76188e-06 -1.28644e-08)
(4.50711e-08 -2.10641e-06 -1.04031e-08)
(5.86559e-09 -1.0348e-06 -5.21885e-09)
(-7.7187e-09 -9.788e-07 -7.78485e-09)
(-6.35614e-08 -1.99576e-06 -1.45824e-08)
(-1.40064e-07 -2.61905e-06 -1.75255e-08)
(-2.28394e-07 -3.04002e-06 -1.96754e-08)
(-3.19871e-07 -3.3416e-06 -2.21081e-08)
(-4.07315e-07 -3.56705e-06 -2.54039e-08)
(-4.83323e-07 -3.74115e-06 -2.97829e-08)
(-5.40767e-07 -3.87883e-06 -3.53009e-08)
(-5.7308e-07 -3.98911e-06 -4.18408e-08)
(-5.74885e-07 -4.07751e-06 -4.91055e-08)
(-5.42846e-07 -4.1474e-06 -5.66107e-08)
(-4.76383e-07 -4.20092e-06 -6.37422e-08)
(-3.78439e-07 -4.23949e-06 -6.9752e-08)
(-2.55201e-07 -4.26401e-06 -7.41262e-08)
(-1.15779e-07 -4.27499e-06 -7.63261e-08)
(2.95844e-08 -4.27267e-06 -7.64936e-08)
(1.7105e-07 -4.2571e-06 -7.4597e-08)
(2.98224e-07 -4.22821e-06 -7.04994e-08)
(4.01791e-07 -4.18569e-06 -6.46881e-08)
(4.75201e-07 -4.12867e-06 -5.76831e-08)
(5.15148e-07 -4.05591e-06 -5.02242e-08)
(5.21852e-07 -3.96532e-06 -4.2941e-08)
(4.98337e-07 -3.85365e-06 -3.63353e-08)
(4.49689e-07 -3.71545e-06 -3.07102e-08)
(3.82196e-07 -3.5418e-06 -2.61984e-08)
(3.02685e-07 -3.31793e-06 -2.2743e-08)
(2.18187e-07 -3.01909e-06 -2.01042e-08)
(1.35432e-07 -2.60216e-06 -1.76902e-08)
(6.2591e-08 -1.98423e-06 -1.44291e-08)
(8.01065e-09 -9.74163e-07 -7.37843e-09)
(-9.5507e-09 -8.99252e-07 -9.62197e-09)
(-7.83676e-08 -1.83527e-06 -1.80049e-08)
(-1.72495e-07 -2.40919e-06 -2.16178e-08)
(-2.81142e-07 -2.79589e-06 -2.42549e-08)
(-3.93668e-07 -3.07116e-06 -2.72361e-08)
(-5.01269e-07 -3.2746e-06 -3.12751e-08)
(-5.94831e-07 -3.42905e-06 -3.66487e-08)
(-6.65547e-07 -3.54845e-06 -4.34381e-08)
(-7.05287e-07 -3.64146e-06 -5.15133e-08)
(-7.07367e-07 -3.71371e-06 -6.05356e-08)
(-6.67512e-07 -3.76893e-06 -6.99279e-08)
(-5.84784e-07 -3.80979e-06 -7.89477e-08)
(-4.62512e-07 -3.83828e-06 -8.66752e-08)
(-3.08169e-07 -3.85584e-06 -9.23889e-08)
(-1.32998e-07 -3.86333e-06 -9.53453e-08)
(4.97752e-08 -3.86104e-06 -9.55002e-08)
(2.2698e-07 -3.84909e-06 -9.28289e-08)
(3.85258e-07 -3.82735e-06 -8.73705e-08)
(5.1312e-07 -3.79511e-06 -7.98344e-08)
(6.02739e-07 -3.75109e-06 -7.09372e-08)
(6.50417e-07 -3.69341e-06 -6.15991e-08)
(6.56718e-07 -3.61942e-06 -5.25698e-08)
(6.25586e-07 -3.52546e-06 -4.44433e-08)
(5.63402e-07 -3.40594e-06 -3.7564e-08)
(4.7802e-07 -3.25223e-06 -3.20714e-08)
(3.77953e-07 -3.05046e-06 -2.7883e-08)
(2.7197e-07 -2.77781e-06 -2.4707e-08)
(1.68462e-07 -2.39474e-06 -2.18137e-08)
(7.76258e-08 -1.82546e-06 -1.78836e-08)
(9.85297e-09 -8.95307e-07 -9.23982e-09)
(-1.10253e-08 -8.04734e-07 -1.11032e-08)
(-9.02569e-08 -1.64485e-06 -2.07679e-08)
(-1.98486e-07 -2.16045e-06 -2.49105e-08)
(-3.2335e-07 -2.50677e-06 -2.79044e-08)
(-4.52626e-07 -2.75117e-06 -3.12637e-08)
(-5.76184e-07 -2.92892e-06 -3.58068e-08)
(-6.83541e-07 -3.06053e-06 -4.18534e-08)
(-7.64568e-07 -3.15876e-06 -4.94913e-08)
(-8.09931e-07 -3.23183e-06 -5.85755e-08)
(-8.11939e-07 -3.28534e-06 -6.87428e-08)
(-7.65653e-07 -3.32342e-06 -7.9362e-08)
(-6.69923e-07 -3.34933e-06 -8.96164e-08)
(-5.2839e-07 -3.36577e-06 -9.84764e-08)
(-3.49509e-07 -3.37483e-06 -1.05076e-07)
(-1.46157e-07 -3.37798e-06 -1.08547e-07)
(6.61289e-08 -3.37581e-06 -1.08681e-07)
(2.71453e-07 -3.36841e-06 -1.05464e-07)
(4.54151e-07 -3.3554e-06 -9.90931e-08)
(6.01109e-07 -3.33549e-06 -9.04047e-08)
(7.03542e-07 -3.30673e-06 -8.0266e-08)
(7.57432e-07 -3.26651e-06 -6.97067e-08)
(7.63562e-07 -3.21159e-06 -5.95441e-08)
(7.26542e-07 -3.13787e-06 -5.04205e-08)
(6.53761e-07 -3.03977e-06 -4.27137e-08)
(5.54264e-07 -2.90905e-06 -3.65644e-08)
(4.37903e-07 -2.73298e-06 -3.18837e-08)
(3.14832e-07 -2.49103e-06 -2.83435e-08)
(1.94796e-07 -2.14797e-06 -2.51044e-08)
(8.96224e-08 -1.63642e-06 -2.0653e-08)
(1.13228e-08 -8.0134e-07 -1.07338e-08)
(-1.20949e-08 -6.98776e-07 -1.21752e-08)
(-9.88031e-08 -1.43162e-06 -2.27706e-08)
(-2.17106e-07 -1.88222e-06 -2.72817e-08)
(-3.5354e-07 -2.18377e-06 -3.04973e-08)
(-4.94757e-07 -2.39426e-06 -3.40628e-08)
(-6.29654e-07 -2.5442e-06 -3.88611e-08)
(-7.46706e-07 -2.65155e-06 -4.52295e-08)
(-8.3482e-07 -2.72769e-06 -5.3259e-08)
(-8.83819e-07 -2.78025e-06 -6.27896e-08)
(-8.85354e-07 -2.81471e-06 -7.34396e-08)
(-8.34137e-07 -2.83549e-06 -8.45591e-08)
(-7.28956e-07 -2.84637e-06 -9.5296e-08)
(-5.73735e-07 -2.85068e-06 -1.046e-07)
(-3.77654e-07 -2.85122e-06 -1.11541e-07)
(-1.54682e-07 -2.85002e-06 -1.15225e-07)
(7.80993e-08 -2.84801e-06 -1.15337e-07)
(3.02949e-07 -2.84531e-06 -1.11869e-07)
(5.02674e-07 -2.84116e-06 -1.05121e-07)
(6.63065e-07 -2.83369e-06 -9.59702e-08)
(7.74652e-07 -2.82027e-06 -8.53401e-08)
(8.33149e-07 -2.79762e-06 -7.42793e-08)
(8.39427e-07 -2.76201e-06 -6.3646e-08)
(7.98451e-07 -2.70903e-06 -5.4091e-08)
(7.18257e-07 -2.63315e-06 -4.60085e-08)
(6.08749e-07 -2.52675e-06 -3.95554e-08)
(4.80741e-07 -2.37843e-06 -3.46376e-08)
(3.45444e-07 -2.1702e-06 -3.09042e-08)
(2.13599e-07 -1.87153e-06 -2.74568e-08)
(9.81948e-08 -1.42444e-06 -2.26514e-08)
(1.23743e-08 -6.95893e-07 -1.18164e-08)
(-1.272e-08 -5.85269e-07 -1.28009e-08)
(-1.03692e-07 -1.20345e-06 -2.39417e-08)
(-2.27742e-07 -1.5848e-06 -2.8656e-08)
(-3.70866e-07 -1.839e-06 -3.19591e-08)
(-5.19067e-07 -2.01412e-06 -3.55678e-08)
(-6.60613e-07 -2.13566e-06 -4.03991e-08)
(-7.83295e-07 -2.2189e-06 -4.67888e-08)
(-8.75376e-07 -2.27378e-06 -5.48182e-08)
(-9.26166e-07 -2.30719e-06 -6.43232e-08)
(-9.27027e-07 -2.32441e-06 -7.49083e-08)
(-8.72543e-07 -2.32991e-06 -8.59248e-08)
(-7.61596e-07 -2.32775e-06 -9.65359e-08)
(-5.98379e-07 -2.32174e-06 -1.0573e-07)
(-3.92511e-07 -2.31508e-06 -1.12578e-07)
(-1.58529e-07 -2.31024e-06 -1.16226e-07)
(8.57063e-08 -2.30846e-06 -1.16319e-07)
(3.21445e-07 -2.30982e-06 -1.12853e-07)
(5.30728e-07 -2.31329e-06 -1.06167e-07)
(6.98811e-07 -2.31655e-06 -9.71036e-08)
(8.15803e-07 -2.3165e-06 -8.65897e-08)
(8.77185e-07 -2.30941e-06 -7.56305e-08)
(8.83751e-07 -2.29126e-06 -6.50673e-08)
(8.406e-07 -2.25755e-06 -5.55524e-08)
(7.56077e-07 -2.203e-06 -4.74827e-08)
(6.40603e-07 -2.12068e-06 -4.10232e-08)
(5.05633e-07 -2.00064e-06 -3.60874e-08)
(3.63082e-07 -1.82755e-06 -3.2323e-08)
(2.24347e-07 -1.57586e-06 -2.88058e-08)
(1.03073e-07 -1.19751e-06 -2.38171e-08)
(1.2975e-08 -5.82913e-07 -1.2455e-08)
(-1.28614e-08 -4.68412e-07 -1.29402e-08)
(-1.04674e-07 -9.68748e-07 -2.42037e-08)
(-2.29969e-07 -1.27912e-06 -2.89322e-08)
(-3.74834e-07 -1.48509e-06 -3.21825e-08)
(-5.25146e-07 -1.6247e-06 -3.56853e-08)
(-6.68865e-07 -1.71848e-06 -4.03563e-08)
(-7.93407e-07 -1.77905e-06 -4.65264e-08)
(-8.86687e-07 -1.81483e-06 -5.42638e-08)
(-9.37805e-07 -1.8319e-06 -6.33913e-08)
(-9.3807e-07 -1.83509e-06 -7.35095e-08)
(-8.82158e-07 -1.82873e-06 -8.39968e-08)
(-7.69155e-07 -1.81687e-06 -9.40563e-08)
(-6.03446e-07 -1.80341e-06 -1.02748e-07)
(-3.94822e-07 -1.79173e-06 -1.09201e-07)
(-1.57929e-07 -1.78446e-06 -1.12645e-07)
(8.92534e-08 -1.78295e-06 -1.12722e-07)
(3.27775e-07 -1.78728e-06 -1.09429e-07)
(5.39572e-07 -1.79626e-06 -1.03111e-07)
(7.09809e-07 -1.80739e-06 -9.45328e-08)
(8.28453e-07 -1.8174e-06 -8.45594e-08)
(8.90827e-07 -1.82245e-06 -7.41279e-08)
(8.97547e-07 -1.8185e-06 -6.40366e-08)
(8.53636e-07 -1.80124e-06 -5.49075e-08)
(7.6751e-07 -1.7658e-06 -4.71408e-08)
(6.49799e-07 -1.70608e-06 -4.09134e-08)
(5.12315e-07 -1.61362e-06 -3.61533e-08)
(3.67364e-07 -1.47577e-06 -3.25107e-08)
(2.26667e-07 -1.27194e-06 -2.90624e-08)
(1.04028e-07 -9.64073e-07 -2.40799e-08)
(1.30871e-08 -4.66612e-07 -1.26143e-08)
(-1.24556e-08 -3.52742e-07 -1.25288e-08)
(-1.01398e-07 -7.36453e-07 -2.34264e-08)
(-2.23294e-07 -9.76562e-07 -2.79403e-08)
(-3.64993e-07 -1.135e-06 -3.09679e-08)
(-5.1276e-07 -1.24013e-06 -3.42048e-08)
(-6.54517e-07 -1.30776e-06 -3.85427e-08)
(-7.77558e-07 -1.34797e-06 -4.43039e-08)
(-8.69697e-07 -1.36763e-06 -5.15375e-08)
(-9.20077e-07 -1.3719e-06 -6.00577e-08)
(-9.20156e-07 -1.36501e-06 -6.94706e-08)
(-8.64842e-07 -1.35084e-06 -7.9187e-08)
(-7.53453e-07 -1.33315e-06 -8.84656e-08)
(-5.90477e-07 -1.31559e-06 -9.64577e-08)
(-3.85614e-07 -1.30137e-06 -1.0237e-07)