/*--------------------------------*- C++ -*----------------------------------*\
| =========                 |                                                 |
| \\      /  F ield         | OpenFOAM: The Open Source CFD Toolbox           |
|  \\    /   O peration     | Version:  v1906                                 |
|   \\  /    A nd           | Web:      www.OpenFOAM.com                      |
|    \\/     M anipulation  |                                                 |
\*---------------------------------------------------------------------------*/
FoamFile
{
    version     2.0;
    format      ascii;
    class       surfaceScalarField;
    location    "50";
    object      phi;
}
// * * * * * * * * * * * * * * * * * * * * * * * * * * * * * * * * * * * * * //

dimensions      [1 0 -1 0 0 0 0];
oriented        oriented;


internalField   nonuniform List<scalar> 
228225
(
3.87244e-11
-7.20985e-11
6.78906e-11
6.70153e-11
-1.12367e-10
8.38396e-11
9.69817e-11
-1.29174e-10
9.92742e-11
1.23027e-10
-1.39586e-10
1.13643e-10
1.43351e-10
-1.45298e-10
1.25e-10
1.5775e-10
-1.4767e-10
1.33365e-10
1.66176e-10
-1.47663e-10
1.39208e-10
1.69278e-10
-1.46021e-10
1.43062e-10
1.67068e-10
-1.43308e-10
1.45409e-10
1.60588e-10
-1.39977e-10
1.46651e-10
1.49416e-10
-1.36397e-10
1.4712e-10
1.35593e-10
-1.32813e-10
1.47081e-10
1.1815e-10
-1.29462e-10
1.46741e-10
9.82738e-11
-1.26515e-10
1.46266e-10
7.66598e-11
-1.24101e-10
1.45779e-10
5.35656e-11
-1.22311e-10
1.4537e-10
2.96004e-11
-1.2121e-10
1.45102e-10
5.39483e-12
-1.20837e-10
1.45012e-10
-1.90311e-11
-1.212e-10
1.45111e-10
-4.16364e-11
-1.22273e-10
1.4539e-10
-6.37236e-11
-1.24053e-10
1.45805e-10
-8.35158e-11
-1.26449e-10
1.463e-10
-1.00993e-10
-1.2938e-10
1.46781e-10
-1.15317e-10
-1.32714e-10
1.47125e-10
-1.26601e-10
-1.36277e-10
1.47167e-10
-1.33124e-10
-1.39861e-10
1.467e-10
-1.3553e-10
-1.43191e-10
1.45455e-10
-1.32863e-10
-1.45904e-10
1.43103e-10
-1.24229e-10
-1.47563e-10
1.39244e-10
-1.09954e-10
-1.47598e-10
1.33392e-10
-8.97391e-11
-1.45273e-10
1.25015e-10
-6.39555e-11
-1.39637e-10
1.13643e-10
-3.3995e-11
-1.29321e-10
9.9257e-11
-5.06487e-12
-1.12698e-10
8.37821e-11
-7.2781e-11
6.77109e-11
3.76794e-11
-3.17791e-11
-7.80934e-11
5.55076e-11
-3.51342e-11
-9.47343e-11
6.2492e-11
-3.40555e-11
-1.02473e-10
6.25791e-11
-3.12401e-11
-1.08338e-10
5.76418e-11
-2.76816e-11
-1.12757e-10
5.01564e-11
-2.3702e-11
-1.1623e-10
4.07674e-11
-1.95137e-11
-1.19104e-10
3.17884e-11
-1.52315e-11
-1.21569e-10
2.30756e-11
-1.10124e-11
-1.23731e-10
1.55357e-11
-6.95138e-12
-1.25645e-10
1.00342e-11
-3.1746e-12
-1.27337e-10
6.01514e-12
3.37752e-14
-1.28821e-10
3.05074e-12
3.50584e-12
-1.30093e-10
1.46397e-12
6.21857e-12
-1.31147e-10
1.01491e-12
8.36267e-12
-1.31976e-10
1.43144e-12
9.91928e-12
-1.32574e-10
2.13928e-12
1.08679e-11
-1.32932e-10
3.32799e-12
1.12046e-11
-1.33048e-10
4.24617e-12
1.0902e-11
-1.3292e-10
4.38378e-12
9.98369e-12
-1.3255e-10
3.93779e-12
8.46133e-12
-1.31942e-10
2.36853e-12
6.35889e-12
-1.31101e-10
-6.83523e-13
3.68447e-12
-1.30036e-10
-4.98313e-12
2.80241e-13
-1.28753e-10
-1.13038e-11
-2.94433e-12
-1.2726e-10
-1.86421e-11
-6.66555e-12
-1.25556e-10
-2.73148e-11
-1.0698e-11
-1.23634e-10
-3.71394e-11
-1.48958e-11
-1.21466e-10
-4.65087e-11
-1.91427e-11
-1.18992e-10
-5.45091e-11
-2.33187e-11
-1.16113e-10
-6.02391e-11
-2.72855e-11
-1.12637e-10
-6.05356e-11
-3.08391e-11
-1.08215e-10
-5.39237e-11
-3.36918e-11
-1.02352e-10
-3.70286e-11
-3.48475e-11
-9.46176e-11
-3.17494e-11
-7.79931e-11
4.48737e-11
2.595e-11
-1.02472e-10
6.4888e-11
6.95479e-11
-1.24834e-10
7.45146e-11
9.03978e-11
-1.34236e-10
7.75092e-11
1.0663e-10
-1.40596e-10
7.54081e-11
1.19652e-10
-1.45112e-10
6.95794e-11
1.30257e-10
-1.48496e-10
6.26434e-11
1.39025e-10
-1.51145e-10
5.3857e-11
1.46354e-10
-1.53288e-10
4.56036e-11
1.52558e-10
-1.55069e-10
3.77059e-11
1.57822e-10
-1.56578e-10
2.97627e-11
1.62292e-10
-1.57867e-10
2.27207e-11
1.66057e-10
-1.58965e-10
1.72194e-11
1.69191e-10
-1.59886e-10
1.22327e-11
1.71723e-10
-1.60639e-10
8.06292e-12
1.73674e-10
-1.61224e-10
4.55508e-12
1.75071e-10
-1.61641e-10
1.65293e-12
1.75914e-10
-1.6189e-10
-1.80869e-12
1.76199e-10
-1.6197e-10
-4.6275e-12
1.75949e-10
-1.61879e-10
-8.26217e-12
1.75135e-10
-1.61619e-10
-1.20896e-11
1.73769e-10
-1.61191e-10
-1.71939e-11
1.71839e-10
-1.60596e-10
-2.30378e-11
1.69332e-10
-1.59833e-10
-2.98797e-11
1.66227e-10
-1.58902e-10
-3.73814e-11
1.62481e-10
-1.57794e-10
-4.58871e-11
1.58034e-10
-1.56497e-10
-5.41481e-11
1.52795e-10
-1.54979e-10
-6.26199e-11
1.46613e-10
-1.5319e-10
-6.99638e-11
1.39285e-10
-1.51041e-10
-7.52857e-11
1.30522e-10
-1.48387e-10
-7.72061e-11
1.1991e-10
-1.45e-10
-7.49279e-11
1.06865e-10
-1.40484e-10
-6.46463e-11
9.0604e-11
-1.34124e-10
-4.47346e-11
6.96866e-11
-1.24724e-10
2.59334e-11
-1.02367e-10
3.95339e-11
9.16857e-11
-1.05247e-10
6.33661e-11
1.74218e-10
-1.28577e-10
7.93744e-11
2.1304e-10
-1.38645e-10
8.83986e-11
2.43259e-10
-1.45481e-10
9.14408e-11
2.66834e-10
-1.50338e-10
9.02214e-11
2.85375e-10
-1.53981e-10
8.59186e-11
3.00069e-10
-1.5683e-10
7.97538e-11
3.11806e-10
-1.59119e-10
7.2074e-11
3.21238e-10
-1.61003e-10
6.40329e-11
3.28853e-10
-1.62579e-10
5.46964e-11
3.35e-10
-1.63907e-10
4.58998e-11
3.39971e-10
-1.65022e-10
3.73594e-11
3.43929e-10
-1.65948e-10
2.84191e-11
3.47018e-10
-1.66696e-10
2.03012e-11
3.49342e-10
-1.67272e-10
1.20851e-11
3.5096e-10
-1.67682e-10
3.9534e-12
3.5191e-10
-1.67925e-10
-3.84324e-12
3.52238e-10
-1.68003e-10
-1.21778e-11
3.51929e-10
-1.67916e-10
-2.03827e-11
3.50994e-10
-1.67664e-10
-2.85033e-11
3.49398e-10
-1.67247e-10
-3.73876e-11
3.47095e-10
-1.66662e-10
-4.5992e-11
3.44026e-10
-1.65907e-10
-5.5059e-11
3.40083e-10
-1.64974e-10
-6.36325e-11
3.35143e-10
-1.63851e-10
-7.20365e-11
3.28996e-10
-1.62518e-10
-7.96986e-11
3.21396e-10
-1.60937e-10
-8.63107e-11
3.11969e-10
-1.59047e-10
-9.02967e-11
3.00251e-10
-1.56753e-10
-9.12933e-11
2.85555e-10
-1.53901e-10
-8.81701e-11
2.67007e-10
-1.50256e-10
-7.93366e-11
2.43416e-10
-1.45398e-10
-6.32872e-11
2.13173e-10
-1.38561e-10
-3.95189e-11
1.7431e-10
-1.28492e-10
9.16628e-11
-1.0516e-10
4.05127e-11
1.54304e-10
-1.0319e-10
6.49139e-11
2.75778e-10
-1.25973e-10
8.14261e-11
3.32529e-10
-1.35868e-10
9.12082e-11
3.76193e-10
-1.42594e-10
9.544e-11
4.10014e-10
-1.47379e-10
9.52544e-11
4.36371e-10
-1.50973e-10
9.21808e-11
4.57034e-10
-1.5378e-10
8.67722e-11
4.73321e-10
-1.56034e-10
7.96115e-11
4.86224e-10
-1.57882e-10
7.14294e-11
4.96479e-10
-1.5942e-10
6.2841e-11
5.04646e-10
-1.6071e-10
5.31871e-11
5.11108e-10
-1.61791e-10
4.36385e-11
5.16196e-10
-1.62682e-10
3.3897e-11
5.20112e-10
-1.634e-10
2.4248e-11
5.23015e-10
-1.63952e-10
1.41471e-11
5.25021e-10
-1.64344e-10
4.96958e-12
5.26212e-10
-1.64576e-10
-5.03316e-12
5.26596e-10
-1.64652e-10
-1.45456e-11
5.26214e-10
-1.64571e-10
-2.43196e-11
5.25042e-10
-1.64333e-10
-3.40009e-11
5.23047e-10
-1.63936e-10
-4.37146e-11
5.20149e-10
-1.63379e-10
-5.33559e-11
5.16248e-10
-1.62656e-10
-6.25206e-11
5.11168e-10
-1.61759e-10
-7.17239e-11
5.04705e-10
-1.60676e-10
-7.95323e-11
4.96554e-10
-1.59381e-10
-8.68477e-11
4.86296e-10
-1.57839e-10
-9.19855e-11
4.73395e-10
-1.55988e-10
-9.54649e-11
4.57104e-10
-1.53732e-10
-9.53621e-11
4.36445e-10
-1.50921e-10
-9.11068e-11
4.10087e-10
-1.47326e-10
-8.15535e-11
3.76255e-10
-1.42539e-10
-6.49416e-11
3.32589e-10
-1.35811e-10
-4.05136e-11
2.75825e-10
-1.25915e-10
1.54271e-10
-1.03128e-10
3.58163e-11
2.16394e-10
-9.79262e-11
5.83206e-11
3.72712e-10
-1.19497e-10
7.39108e-11
4.4575e-10
-1.28904e-10
8.34742e-11
5.01988e-10
-1.35328e-10
8.81496e-11
5.45454e-10
-1.39932e-10
8.87411e-11
5.79222e-10
-1.43415e-10
8.62362e-11
6.05604e-10
-1.46155e-10
8.17295e-11
6.26318e-10
-1.48366e-10
7.53788e-11
6.42654e-10
-1.50187e-10
6.83554e-11
6.55592e-10
-1.51707e-10
5.97545e-11
6.65812e-10
-1.52985e-10
5.14363e-11
6.7389e-10
-1.54055e-10
4.22629e-11
6.80194e-10
-1.54941e-10
3.2853e-11
6.85025e-10
-1.55654e-10
2.37672e-11
6.88601e-10
-1.56202e-10
1.45085e-11
6.91055e-10
-1.56591e-10
4.59852e-12
6.92489e-10
-1.56822e-10
-4.75285e-12
6.92967e-10
-1.56898e-10
-1.42266e-11
6.92498e-10
-1.5682e-10
-2.35446e-11
6.91066e-10
-1.56584e-10
-3.29567e-11
6.88611e-10
-1.56192e-10
-4.18624e-11
6.85048e-10
-1.5564e-10
-5.14691e-11
6.80212e-10
-1.54925e-10
-5.9632e-11
6.73914e-10
-1.54036e-10
-6.80294e-11
6.65841e-10
-1.52963e-10
-7.54192e-11
6.55615e-10
-1.51682e-10
-8.16789e-11
6.42694e-10
-1.50159e-10
-8.62092e-11
6.26364e-10
-1.48337e-10
-8.87103e-11
6.05645e-10
-1.46124e-10
-8.80172e-11
5.79263e-10
-1.43383e-10
-8.36228e-11
5.45493e-10
-1.39898e-10
-7.38317e-11
5.02031e-10
-1.35291e-10
-5.82731e-11
4.45791e-10
-1.28865e-10
-3.56786e-11
3.72751e-10
-1.19458e-10
2.16348e-10
-9.78818e-11
3.45589e-11
2.73351e-10
-9.13232e-11
5.54458e-11
4.62954e-10
-1.11447e-10
7.02022e-11
5.51422e-10
-1.20229e-10
7.90327e-11
6.19398e-10
-1.26244e-10
8.29792e-11
6.71871e-10
-1.30579e-10
8.37252e-11
7.12585e-10
-1.33876e-10
8.12034e-11
7.44342e-10
-1.36484e-10
7.689e-11
7.69236e-10
-1.38598e-10
7.15882e-11
7.88834e-10
-1.40347e-10
6.40341e-11
8.04293e-10
-1.41812e-10
5.67389e-11
8.16516e-10
-1.43046e-10
4.84654e-11
8.26132e-10
-1.44082e-10
3.97902e-11
8.33629e-10
-1.4494e-10
3.12898e-11
8.39367e-10
-1.45632e-10
2.23758e-11
8.43597e-10
-1.46164e-10
1.35208e-11
8.46507e-10
-1.46542e-10
4.47574e-12
8.48204e-10
-1.46768e-10
-4.4655e-12
8.48765e-10
-1.46842e-10
-1.34431e-11
8.48204e-10
-1.46766e-10
-2.24272e-11
8.46512e-10
-1.46539e-10
-3.10996e-11
8.43614e-10
-1.46159e-10
-3.9842e-11
8.39378e-10
-1.45625e-10
-4.84926e-11
8.33647e-10
-1.44932e-10
-5.6563e-11
8.26151e-10
-1.44071e-10
-6.40902e-11
8.1654e-10
-1.43033e-10
-7.10366e-11
8.04321e-10
-1.41797e-10
-7.6664e-11
7.88852e-10
-1.40329e-10
-8.1406e-11
7.69265e-10
-1.3858e-10
-8.36403e-11
7.44374e-10
-1.36464e-10
-8.29217e-11
7.12621e-10
-1.33855e-10
-7.89264e-11
6.71906e-10
-1.30557e-10
-7.00776e-11
6.19436e-10
-1.26221e-10
-5.52976e-11
5.51467e-10
-1.20206e-10
-3.44509e-11
4.63002e-10
-1.11422e-10
2.73322e-10
-9.12928e-11
3.11328e-11
3.26203e-10
-8.39885e-11
5.06371e-11
5.46116e-10
-1.02555e-10
6.40028e-11
6.48704e-10
-1.10672e-10
7.20287e-11
7.27516e-10
-1.16245e-10
7.57511e-11
7.88329e-10
-1.20282e-10
7.65476e-11
8.3548e-10
-1.23366e-10
7.42869e-11
8.72218e-10
-1.25818e-10
7.0491e-11
9.00991e-10
-1.27816e-10
6.51101e-11
9.23617e-10
-1.29474e-10
5.87985e-11
9.41459e-10
-1.30868e-10
5.18408e-11
9.55536e-10
-1.32046e-10
4.42774e-11
9.66604e-10
-1.33036e-10
3.64718e-11
9.75232e-10
-1.33856e-10
2.85825e-11
9.81823e-10
-1.34519e-10
2.07362e-11
9.86682e-10
-1.35029e-10
1.23477e-11
9.90013e-10
-1.35392e-10
4.20787e-12
9.91967e-10
-1.35608e-10
-4.24134e-12
9.92609e-10
-1.3568e-10
-1.20039e-11
9.91968e-10
-1.35607e-10
-2.02494e-11
9.90019e-10
-1.35389e-10
-2.85595e-11
9.86681e-10
-1.35025e-10
-3.61542e-11
9.81829e-10
-1.34514e-10
-4.41937e-11
9.75233e-10
-1.3385e-10
-5.14807e-11
9.66606e-10
-1.33028e-10
-5.87487e-11
9.55536e-10
-1.32037e-10
-6.50416e-11
9.41464e-10
-1.30859e-10
-6.98264e-11
9.23625e-10
-1.29463e-10
-7.43464e-11
9.00988e-10
-1.27805e-10
-7.63556e-11
8.72224e-10
-1.25807e-10
-7.57118e-11
8.35488e-10
-1.23354e-10
-7.19389e-11
7.88343e-10
-1.20268e-10
-6.37647e-11
7.27541e-10
-1.16231e-10
-5.04631e-11
6.48731e-10
-1.10658e-10
-3.10948e-11
5.46151e-10
-1.02541e-10
3.2615e-10
-8.39687e-11
2.88198e-11
3.73937e-10
-7.66823e-11
4.68442e-11
6.2193e-10
-9.37095e-11
5.90322e-11
7.37574e-10
-1.01158e-10
6.68163e-11
8.26377e-10
-1.06282e-10
7.0044e-11
8.94856e-10
-1.10009e-10
7.03689e-11
9.4794e-10
-1.12871e-10
6.84639e-11
9.89292e-10
-1.15153e-10
6.48861e-11
1.02166e-09
-1.1702e-10
5.97853e-11
1.0471e-09
-1.18575e-10
5.40444e-11
1.06716e-09
-1.19884e-10
4.76118e-11
1.08297e-09
-1.20992e-10
4.07988e-11
1.0954e-09
-1.21926e-10
3.34437e-11
1.10507e-09
-1.22702e-10
2.6236e-11
1.11247e-09
-1.23327e-10
1.89068e-11
1.11792e-09
-1.23811e-10
1.15319e-11
1.12167e-09
-1.24153e-10
3.87643e-12
1.12384e-09
-1.24359e-10
-3.91693e-12
1.12456e-09
-1.24427e-10
-1.10369e-11
1.12385e-09
-1.24357e-10
-1.87925e-11
1.12166e-09
-1.24152e-10
-2.59715e-11
1.11793e-09
-1.23808e-10
-3.33907e-11
1.11248e-09
-1.23325e-10
-4.07745e-11
1.10509e-09
-1.22698e-10
-4.73061e-11
1.09542e-09
-1.21922e-10
-5.37691e-11
1.08299e-09
-1.20988e-10
-5.97411e-11
1.06717e-09
-1.19879e-10
-6.47165e-11
1.04712e-09
-1.18568e-10
-6.82545e-11
1.02169e-09
-1.17013e-10
-7.02983e-11
9.89321e-10
-1.15146e-10
-6.99471e-11
9.47976e-10
-1.12862e-10
-6.65757e-11
8.94897e-10
-1.10001e-10
-5.90165e-11
8.26421e-10
-1.06273e-10
-4.68729e-11
7.37634e-10
-1.01149e-10
-2.89397e-11
6.22004e-10
-9.3701e-11
3.73921e-10
-7.66681e-11
2.65108e-11
4.17128e-10
-6.96174e-11
4.2815e-11
6.90726e-10
-8.51618e-11
5.40047e-11
8.18305e-10
-9.19679e-11
6.07745e-11
9.16264e-10
-9.66568e-11
6.41128e-11
9.91802e-10
-1.00079e-10
6.45173e-11
1.05034e-09
-1.02717e-10
6.26272e-11
1.09592e-09
-1.04829e-10
5.92867e-11
1.1316e-09
-1.0656e-10
5.48485e-11
1.15963e-09
-1.08006e-10
4.92638e-11
1.18172e-09
-1.09229e-10
4.35526e-11
1.19914e-09
-1.10265e-10
3.7219e-11
1.21283e-09
-1.11138e-10
3.08809e-11
1.22348e-09
-1.11864e-10
2.40537e-11
1.23162e-09
-1.12451e-10
1.74786e-11
1.23761e-09
-1.12904e-10
1.02429e-11
1.24173e-09
-1.13227e-10
3.60326e-12
1.24414e-09
-1.13418e-10
-3.29423e-12
1.24493e-09
-1.13483e-10
-1.02185e-11
1.24413e-09
-1.13418e-10
-1.69316e-11
1.24173e-09
-1.13225e-10
-2.37471e-11
1.23762e-09
-1.12903e-10
-3.0563e-11
1.23163e-09
-1.12451e-10
-3.69787e-11
1.22349e-09
-1.11864e-10
-4.32037e-11
1.21283e-09
-1.11137e-10
-4.94121e-11
1.19915e-09
-1.10264e-10
-5.44039e-11
1.18173e-09
-1.09227e-10
-5.90988e-11
1.15964e-09
-1.08006e-10
-6.25312e-11
1.13161e-09
-1.06559e-10
-6.42485e-11
1.09593e-09
-1.04826e-10
-6.4055e-11
1.05035e-09
-1.02715e-10
-6.05965e-11
9.91825e-10
-1.00077e-10
-5.37302e-11
9.16292e-10
-9.66535e-11
-4.29223e-11
8.18343e-10
-9.19639e-11
-2.62941e-11
6.90789e-10
-8.51575e-11
4.17079e-10
-6.96095e-11
2.43844e-11
4.55871e-10
-6.30424e-11
3.95539e-11
7.52911e-10
-7.71979e-11
4.9701e-11
8.91407e-10
-8.33994e-11
5.57954e-11
9.97743e-10
-8.76782e-11
5.89251e-11
1.07974e-09
-9.081e-11
5.91138e-11
1.14327e-09
-9.32305e-11
5.75763e-11
1.19276e-09
-9.5174e-11
5.43442e-11
1.23147e-09
-9.67723e-11
5.02576e-11
1.2619e-09
-9.81106e-11
4.52644e-11
1.28587e-09
-9.92429e-11
4.00552e-11
1.30477e-09
-1.00204e-10
3.40335e-11
1.31961e-09
-1.01016e-10
2.82049e-11
1.33117e-09
-1.01691e-10
2.20301e-11
1.34e-09
-1.02237e-10
1.60739e-11
1.3465e-09
-1.02659e-10
9.65692e-12
1.35096e-09
-1.0296e-10
3.31543e-12
1.35356e-09
-1.0314e-10
-3.10352e-12
1.35442e-09
-1.03199e-10
-9.23502e-12
1.35357e-09
-1.03139e-10
-1.55951e-11
1.35096e-09
-1.02959e-10
-2.17202e-11
1.3465e-09
-1.02659e-10
-2.79789e-11
1.34e-09
-1.02238e-10
-3.40108e-11
1.33117e-09
-1.01691e-10
-3.95217e-11
1.31961e-09
-1.01015e-10
-4.51784e-11
1.30476e-09
-1.00204e-10
-5.00558e-11
1.28587e-09
-9.92419e-11
-5.41978e-11
1.2619e-09
-9.81091e-11
-5.74684e-11
1.23148e-09
-9.6771e-11
-5.8835e-11
1.19277e-09
-9.51722e-11
-5.85658e-11
1.14329e-09
-9.32287e-11
-5.58205e-11
1.07976e-09
-9.08084e-11
-4.94811e-11
9.97771e-10
-8.76763e-11
-3.931e-11
8.91443e-10
-8.33985e-11
-2.4407e-11
7.52955e-10
-7.71977e-11
4.55794e-10
-6.30388e-11
2.20629e-11
4.90562e-10
-5.697e-11
3.60921e-11
8.08981e-10
-6.98334e-11
4.54913e-11
9.57447e-10
-7.54725e-11
5.11212e-11
1.07144e-09
-7.93669e-11
5.36903e-11
1.15934e-09
-8.22251e-11
5.41608e-11
1.22745e-09
-8.44396e-11
5.22714e-11
1.2805e-09
-8.62232e-11
5.00138e-11
1.32201e-09
-8.76918e-11
4.59064e-11
1.35462e-09
-8.89248e-11
4.15505e-11
1.38032e-09
-8.99691e-11
3.64679e-11
1.40058e-09
-9.08574e-11
3.12402e-11
1.4165e-09
-9.1608e-11
2.5833e-11
1.42889e-09
-9.22322e-11
2.00083e-11
1.43835e-09
-9.27379e-11
1.47391e-11
1.44532e-09
-9.31283e-11
8.72268e-12
1.45009e-09
-9.34071e-11
2.88246e-12
1.45289e-09
-9.35737e-11
-2.64291e-12
1.45381e-09
-9.36289e-11
-8.54249e-12
1.45288e-09
-9.35736e-11
-1.43211e-11
1.45009e-09
-9.34074e-11
-1.99425e-11
1.44531e-09
-9.31293e-11
-2.55628e-11
1.43834e-09
-9.27385e-11
-3.13527e-11
1.42887e-09
-9.22323e-11
-3.62778e-11
1.41649e-09
-9.16068e-11
-4.12502e-11
1.40057e-09
-9.08561e-11
-4.58488e-11
1.38032e-09
-8.99687e-11
-4.95773e-11
1.35463e-09
-8.89234e-11
-5.24258e-11
1.32201e-09
-8.76905e-11
-5.39245e-11
1.28052e-09
-8.62215e-11
-5.36574e-11
1.22748e-09
-8.4439e-11
-5.10379e-11
1.15937e-09
-8.22244e-11
-4.5501e-11
1.07148e-09
-7.93662e-11
-3.60965e-11
9.57495e-10
-7.54712e-11
-2.21211e-11
8.09046e-10
-6.9832e-11
4.90495e-10
-5.69654e-11
2.01829e-11
5.21579e-10
-5.1423e-11
3.30467e-11
8.59484e-10
-6.30939e-11
4.18289e-11
1.01704e-09
-6.82134e-11
4.66401e-11
1.13801e-09
-7.1752e-11
4.92597e-11
1.2313e-09
-7.43538e-11
4.95296e-11
1.3036e-09
-7.63741e-11
4.81188e-11
1.3599e-09
-7.80046e-11
4.5575e-11
1.40396e-09
-7.93493e-11
4.18993e-11
1.43858e-09
-8.04798e-11
3.80888e-11
1.46587e-09
-8.14388e-11
3.33758e-11
1.48738e-09
-8.22555e-11
2.8605e-11
1.50428e-09
-8.29459e-11
2.35811e-11
1.51743e-09
-8.35204e-11
1.83112e-11
1.52748e-09
-8.39855e-11
1.30786e-11
1.53489e-09
-8.43457e-11
8.22435e-12
1.53997e-09
-8.46009e-11
2.5939e-12
1.54293e-09
-8.4755e-11
-2.51789e-12
1.5439e-09
-8.48067e-11
-7.74063e-12
1.54293e-09
-8.47556e-11
-1.32881e-11
1.53996e-09
-8.46029e-11
-1.82359e-11
1.53488e-09
-8.43464e-11
-2.34343e-11
1.52749e-09
-8.39859e-11
-2.84044e-11
1.51743e-09
-8.35201e-11
-3.31304e-11
1.50427e-09
-8.29462e-11
-3.76938e-11
1.48737e-09
-8.22557e-11
-4.17351e-11
1.46587e-09
-8.14395e-11
-4.55287e-11
1.43858e-09
-8.04807e-11
-4.77227e-11
1.40397e-09
-7.93491e-11
-4.93675e-11
1.3599e-09
-7.80051e-11
-4.92835e-11
1.30361e-09
-7.63751e-11
-4.66847e-11
1.23132e-09
-7.43544e-11
-4.17293e-11
1.13804e-09
-7.17521e-11
-3.30267e-11
1.01709e-09
-6.82132e-11
-2.04244e-11
8.59553e-10
-6.30941e-11
5.21522e-10
-5.14196e-11
1.87116e-11
5.49263e-10
-4.63364e-11
3.01105e-11
9.04865e-10
-5.69058e-11
3.80352e-11
1.07069e-09
-6.15433e-11
4.28077e-11
1.19801e-09
-6.47507e-11
4.5008e-11
1.2962e-09
-6.71139e-11
4.52481e-11
1.3723e-09
-6.89515e-11
4.40873e-11
1.43158e-09
-7.04355e-11
4.14116e-11
1.47797e-09
-7.16636e-11
3.86255e-11
1.51443e-09
-7.26954e-11
3.46886e-11
1.54317e-09
-7.35731e-11
3.04697e-11
1.56582e-09
-7.43209e-11
2.61391e-11
1.58361e-09
-7.49526e-11
2.15805e-11
1.59747e-09
-7.54798e-11
1.67265e-11
1.60806e-09
-7.59072e-11
1.19613e-11
1.61586e-09
-7.62367e-11
7.29957e-12
1.62121e-09
-7.64721e-11
2.48355e-12
1.62434e-09
-7.66126e-11
-2.28112e-12
1.62537e-09
-7.66598e-11
-7.26696e-12
1.62434e-09
-7.66134e-11
-1.19854e-11
1.62122e-09
-7.64722e-11
-1.63947e-11
1.61587e-09
-7.62373e-11
-2.16289e-11
1.60807e-09
-7.59076e-11
-2.62046e-11
1.59748e-09
-7.548e-11
-3.00859e-11
1.58364e-09
-7.49527e-11
-3.44179e-11
1.56582e-09
-7.43206e-11
-3.82129e-11
1.54317e-09
-7.3573e-11
-4.13199e-11
1.51444e-09
-7.26957e-11
-4.3901e-11
1.47798e-09
-7.16636e-11
-4.50291e-11
1.43159e-09
-7.04364e-11
-4.49384e-11
1.37233e-09
-6.89516e-11
-4.27579e-11
1.29623e-09
-6.71135e-11
-3.78385e-11
1.19805e-09
-6.47505e-11
-2.99876e-11
1.07074e-09
-6.15433e-11
-1.85245e-11
9.04939e-10
-5.69063e-11
5.49197e-10
-4.63341e-11
1.70085e-11
5.7394e-10
-4.16561e-11
2.75151e-11
9.45586e-10
-5.12006e-11
3.46302e-11
1.1189e-09
-5.53903e-11
3.89196e-11
1.25198e-09
-5.82886e-11
4.10358e-11
1.35463e-09
-6.04272e-11
4.12117e-11
1.4342e-09
-6.20935e-11
4.00743e-11
1.49617e-09
-6.3441e-11
3.79159e-11
1.54468e-09
-6.45574e-11
3.51386e-11
1.5828e-09
-6.54974e-11
3.1471e-11
1.61285e-09
-6.62965e-11
2.7565e-11
1.63655e-09
-6.69769e-11
2.36626e-11
1.65519e-09
-6.75524e-11
1.96566e-11
1.66969e-09
-6.80319e-11
1.54149e-11
1.68077e-09
-6.84217e-11
1.09412e-11
1.68893e-09
-6.87228e-11
6.8995e-12
1.69453e-09
-6.89362e-11
2.22782e-12
1.6978e-09
-6.90655e-11
-2.12887e-12
1.69887e-09
-6.91082e-11
-6.38892e-12
1.6978e-09
-6.9065e-11
-1.10254e-11
1.69453e-09
-6.89372e-11
-1.53657e-11
1.68893e-09
-6.87223e-11
-1.95747e-11
1.68077e-09
-6.84214e-11
-2.34283e-11
1.6697e-09
-6.80318e-11
-2.78207e-11
1.65519e-09
-6.75517e-11
-3.12849e-11
1.63657e-09
-6.69752e-11
-3.49882e-11
1.61287e-09
-6.62944e-11
-3.77274e-11
1.58282e-09
-6.54957e-11
-4.00853e-11
1.5447e-09
-6.45557e-11
-4.08552e-11
1.4962e-09
-6.34409e-11
-4.08421e-11
1.43423e-09
-6.2094e-11
-3.87263e-11
1.35467e-09
-6.04281e-11
-3.4671e-11
1.25204e-09
-5.82895e-11
-2.74791e-11
1.11897e-09
-5.53906e-11
-1.68565e-11
9.45675e-10
-5.12017e-11
5.73881e-10
-4.16548e-11
1.54008e-11
5.95877e-10
-3.73078e-11
2.51029e-11
9.82001e-10
-4.58915e-11
3.14188e-11
1.16207e-09
-4.96603e-11
3.5376e-11
1.30035e-09
-5.22693e-11
3.74322e-11
1.40702e-09
-5.41967e-11
3.71677e-11
1.4897e-09
-5.56995e-11
3.62966e-11
1.55413e-09
-5.69162e-11
3.43808e-11
1.60456e-09
-5.79248e-11
3.14652e-11
1.6442e-09
-5.87748e-11
2.88894e-11
1.67545e-09
-5.9497e-11
2.54151e-11
1.70009e-09
-6.01149e-11
2.14345e-11
1.71945e-09
-6.06373e-11
1.78422e-11
1.73454e-09
-6.10727e-11
1.38675e-11
1.74607e-09
-6.14257e-11
9.91163e-12
1.75456e-09
-6.16989e-11
6.19892e-12
1.76039e-09
-6.1893e-11
2.01903e-12
1.76379e-09
-6.20097e-11
-1.97229e-12
1.76491e-09
-6.20494e-11
-5.77193e-12
1.76379e-09
-6.20099e-11
-9.97405e-12
1.76039e-09
-6.18941e-11
-1.3852e-11
1.75456e-09
-6.16989e-11
-1.75468e-11
1.74607e-09
-6.14262e-11
-2.1484e-11
1.73454e-09
-6.10737e-11
-2.53179e-11
1.71946e-09
-6.06382e-11
-2.86438e-11
1.7001e-09
-6.01149e-11
-3.16397e-11
1.67545e-09
-5.94976e-11
-3.42701e-11
1.64421e-09
-5.8774e-11
-3.60864e-11
1.60457e-09
-5.79241e-11
-3.70721e-11
1.55414e-09
-5.6916e-11
-3.71457e-11
1.48973e-09
-5.56992e-11
-3.52272e-11
1.40705e-09
-5.41968e-11
-3.14302e-11
1.30039e-09
-5.22704e-11
-2.48537e-11
1.16212e-09
-4.96612e-11
-1.54815e-11
9.82072e-10
-4.58936e-11
5.95805e-10
-3.73081e-11
1.39431e-11
6.15227e-10
-3.32308e-11
2.24661e-11
1.01434e-09
-4.09045e-11
2.79915e-11
1.20048e-09
-4.42751e-11
3.21665e-11
1.34344e-09
-4.66078e-11
3.35033e-11
1.45372e-09
-4.83348e-11
3.37252e-11
1.53921e-09
-4.96821e-11
3.2603e-11
1.60582e-09
-5.07745e-11
3.11196e-11
1.65798e-09
-5.16803e-11
2.82749e-11
1.69898e-09
-5.2445e-11
2.58786e-11
1.73132e-09
-5.30948e-11
2.28065e-11
1.75681e-09
-5.36502e-11
1.94958e-11
1.77686e-09
-5.41201e-11
1.61076e-11
1.79247e-09
-5.45128e-11
1.25188e-11
1.80439e-09
-5.48308e-11
9.1659e-12
1.81319e-09
-5.50763e-11
5.35793e-12
1.81922e-09
-5.52522e-11
2.06821e-12
1.82274e-09
-5.53567e-11
-1.75987e-12
1.8239e-09
-5.53922e-11
-5.33649e-12
1.82275e-09
-5.53577e-11
-9.05065e-12
1.81922e-09
-5.5253e-11
-1.23887e-11
1.8132e-09
-5.5077e-11
-1.57502e-11
1.80441e-09
-5.48309e-11
-1.92791e-11
1.79247e-09
-5.45137e-11
-2.26521e-11
1.77686e-09
-5.41213e-11
-2.58812e-11
1.75682e-09
-5.36501e-11
-2.84927e-11
1.73133e-09
-5.30943e-11
-3.07441e-11
1.699e-09
-5.24429e-11
-3.25604e-11
1.658e-09
-5.16796e-11
-3.35306e-11
1.60585e-09
-5.07735e-11
-3.33257e-11
1.53924e-09
-4.96809e-11
-3.16896e-11
1.45375e-09
-4.83341e-11
-2.82613e-11
1.34348e-09
-4.66086e-11
-2.24099e-11
1.20053e-09
-4.4275e-11
-1.37726e-11
1.01442e-09
-4.0905e-11
6.15153e-10
-3.32287e-11
1.25112e-11
6.32219e-10
-2.93636e-11
2.00138e-11
1.04287e-09
-3.61705e-11
2.541e-11
1.23441e-09
-3.91605e-11
2.83697e-11
1.38152e-09
-4.12313e-11
2.97848e-11
1.49502e-09
-4.27643e-11
2.99927e-11
1.58302e-09
-4.39618e-11
2.93542e-11
1.65159e-09
-4.49341e-11
2.75591e-11
1.70528e-09
-4.57421e-11
2.56532e-11
1.7475e-09
-4.64233e-11
2.29518e-11
1.78079e-09
-4.7004e-11
2.04304e-11
1.80706e-09
-4.75e-11
1.74102e-11
1.8277e-09
-4.79209e-11
1.41798e-11
1.84379e-09
-4.82714e-11
1.14923e-11
1.85608e-09
-4.85552e-11
7.94977e-12
1.86513e-09
-4.87757e-11
4.86212e-12
1.87135e-09
-4.89313e-11
1.55228e-12
1.87497e-09
-4.90256e-11
-1.25469e-12
1.87617e-09
-4.90573e-11
-4.80607e-12
1.87497e-09
-4.90265e-11
-7.95727e-12
1.87134e-09
-4.89321e-11
-1.11751e-11
1.86513e-09
-4.87758e-11
-1.43951e-11
1.85607e-09
-4.85558e-11
-1.71597e-11
1.84379e-09
-4.82712e-11
-2.01315e-11
1.8277e-09
-4.79205e-11
-2.306e-11
1.80705e-09
-4.75013e-11
-2.57106e-11
1.7808e-09
-4.70053e-11
-2.75393e-11
1.74751e-09
-4.64238e-11
-2.90202e-11
1.7053e-09
-4.57417e-11
-2.99443e-11
1.65161e-09
-4.49346e-11
-2.99182e-11
1.58304e-09
-4.39621e-11
-2.83967e-11
1.49506e-09
-4.27644e-11
-2.55272e-11
1.38157e-09
-4.12309e-11
-1.99036e-11
1.23448e-09
-3.91591e-11
-1.24807e-11
1.04296e-09
-3.617e-11
6.3214e-10
-2.93622e-11
1.10208e-11
6.46927e-10
-2.56672e-11
1.76321e-11
1.06776e-09
-3.16388e-11
2.22811e-11
1.26405e-09
-3.42632e-11
2.51541e-11
1.41483e-09
-3.60812e-11
2.63468e-11
1.53116e-09
-3.74295e-11
2.64807e-11
1.62136e-09
-3.84834e-11
2.56868e-11
1.69166e-09
-3.93408e-11
2.44934e-11
1.74672e-09
-4.00527e-11
2.27132e-11
1.79001e-09
-4.06545e-11
2.04934e-11
1.82415e-09
-4.11681e-11
1.78677e-11
1.85108e-09
-4.16056e-11
1.55745e-11
1.87225e-09
-4.19767e-11
1.25581e-11
1.88875e-09
-4.22875e-11
9.81113e-12
1.90137e-09
-4.25389e-11
7.05344e-12
1.91066e-09
-4.27332e-11
4.2473e-12
1.91704e-09
-4.28718e-11
1.58757e-12
1.92076e-09
-4.29547e-11
-1.56744e-12
1.92199e-09
-4.29827e-11
-3.94888e-12
1.92076e-09
-4.29546e-11
-7.26557e-12
1.91703e-09
-4.28724e-11
-9.82349e-12
1.91067e-09
-4.27331e-11
-1.27175e-11
1.90137e-09
-4.25387e-11
-1.53867e-11
1.88876e-09
-4.22875e-11
-1.78808e-11
1.87227e-09
-4.19772e-11
-2.03563e-11
1.85109e-09
-4.16065e-11
-2.26089e-11
1.82415e-09
-4.1168e-11
-2.44482e-11
1.79002e-09
-4.0655e-11
-2.57415e-11
1.74673e-09
-4.00522e-11
-2.63841e-11
1.69168e-09
-3.93406e-11
-2.63349e-11
1.62138e-09
-3.84836e-11
-2.49336e-11
1.53119e-09
-3.74295e-11
-2.22562e-11
1.41487e-09
-3.60822e-11
-1.75796e-11
1.2641e-09
-3.42638e-11
-1.0888e-11
1.06783e-09
-3.16404e-11
6.46832e-10
-2.56674e-11
9.82898e-12
6.59522e-10
-2.21075e-11
1.54556e-11
1.08916e-09
-2.72732e-11
1.93042e-11
1.28957e-09
-2.95434e-11
2.19159e-11
1.44353e-09
-3.11173e-11
2.27927e-11
1.56232e-09
-3.22864e-11
2.32266e-11
1.65445e-09
-3.32006e-11
2.24919e-11
1.72625e-09
-3.39466e-11
2.13109e-11
1.78248e-09
-3.45663e-11
1.97352e-11
1.82671e-09
-3.50902e-11
1.77025e-11
1.86159e-09
-3.55378e-11
1.53533e-11
1.88911e-09
-3.59201e-11
1.34131e-11
1.91076e-09
-3.62447e-11
1.11464e-11
1.92762e-09
-3.65159e-11
8.63577e-12
1.9405e-09
-3.67361e-11
6.09866e-12
1.95e-09
-3.69069e-11
3.71795e-12
1.95652e-09
-3.70283e-11
1.21446e-12
1.96033e-09
-3.7101e-11
-1.15977e-12
1.96159e-09
-3.71252e-11
-3.57904e-12
1.96033e-09
-3.71007e-11
-6.06603e-12
1.95652e-09
-3.70278e-11
-8.56709e-12
1.95e-09
-3.69068e-11
-1.10379e-11
1.9405e-09
-3.67364e-11
-1.321e-11
1.92762e-09
-3.65165e-11
-1.57354e-11
1.91075e-09
-3.6246e-11
-1.78343e-11
1.88911e-09
-3.59216e-11
-1.9543e-11
1.86159e-09
-3.55388e-11
-2.13655e-11
1.82671e-09
-3.50916e-11
-2.23108e-11
1.78249e-09
-3.45667e-11
-2.313e-11
1.72626e-09
-3.3947e-11
-2.2842e-11
1.65447e-09
-3.32016e-11
-2.17748e-11
1.56235e-09
-3.22867e-11
-1.96086e-11
1.44357e-09
-3.11187e-11
-1.53568e-11
1.28963e-09
-2.95447e-11
-9.65687e-12
1.08923e-09
-2.72747e-11
6.59423e-10
-2.21072e-11
8.22059e-12
6.70035e-10
-1.86683e-11
1.31001e-11
1.10719e-09
-2.30518e-11
1.66306e-11
1.31112e-09
-2.49793e-11
1.86689e-11
1.46778e-09
-2.63169e-11
1.97929e-11
1.58868e-09
-2.73121e-11
1.95836e-11
1.68243e-09
-2.80925e-11
1.92458e-11
1.75552e-09
-2.87292e-11
1.81651e-11
1.81276e-09
-2.92592e-11
1.67301e-11
1.85779e-09
-2.97086e-11
1.51191e-11
1.89331e-09
-3.00914e-11
1.33008e-11
1.92134e-09
-3.04196e-11
1.14076e-11
1.94338e-09
-3.06976e-11
9.3169e-12
1.96056e-09
-3.09299e-11
7.22753e-12
1.97369e-09
-3.11196e-11
5.25536e-12
1.98337e-09
-3.12658e-11
3.2164e-12
1.99001e-09
-3.13695e-11
1.0596e-12
1.9939e-09
-3.14314e-11
-9.59725e-13
1.99517e-09
-3.14527e-11
-3.24217e-12
1.99389e-09
-3.14322e-11
-5.39968e-12
1.99001e-09
-3.13694e-11
-7.20869e-12
1.98337e-09
-3.12651e-11
-9.29313e-12
1.97369e-09
-3.11197e-11
-1.13724e-11
1.96055e-09
-3.09305e-11
-1.34624e-11
1.94337e-09
-3.0698e-11
-1.52176e-11
1.92133e-09
-3.0419e-11
-1.6762e-11
1.89331e-09
-3.00913e-11
-1.82651e-11
1.85779e-09
-2.97083e-11
-1.91086e-11
1.81277e-09
-2.92583e-11
-1.96779e-11
1.75553e-09
-2.87281e-11
-1.9594e-11
1.68245e-09
-2.80914e-11
-1.87093e-11
1.5887e-09
-2.73116e-11
-1.66749e-11
1.46783e-09
-2.63168e-11
-1.32166e-11
1.31119e-09
-2.49787e-11
-8.19282e-12
1.10728e-09
-2.30507e-11
6.69955e-10
-1.86659e-11
6.92804e-12
6.78572e-10
-1.53391e-11
1.10137e-11
1.12196e-09
-1.89647e-11
1.40298e-11
1.32881e-09
-2.05594e-11
1.56075e-11
1.48771e-09
-2.16675e-11
1.62069e-11
1.61036e-09
-2.24941e-11
1.64069e-11
1.70548e-09
-2.31438e-11
1.59202e-11
1.77963e-09
-2.36743e-11
1.51022e-11
1.83772e-09
-2.41184e-11
1.4001e-11
1.88342e-09
-2.44947e-11
1.26692e-11
1.91947e-09
-2.48167e-11
1.10396e-11
1.94792e-09
-2.50918e-11
9.51536e-12
1.9703e-09
-2.53255e-11
7.53779e-12
1.98774e-09
-2.55208e-11
6.28044e-12
2.00108e-09
-2.56788e-11
4.26543e-12
2.01091e-09
-2.5802e-11
2.82003e-12
2.01765e-09
-2.58887e-11
6.63242e-13
2.02159e-09
-2.59415e-11
-9.66803e-13
2.02289e-09
-2.59586e-11
-2.51935e-12
2.0216e-09
-2.59409e-11
-4.53663e-12
2.01765e-09
-2.58879e-11
-6.15114e-12
2.01091e-09
-2.58002e-11
-7.95974e-12
2.00108e-09
-2.56768e-11
-9.62668e-12
1.98775e-09
-2.55177e-11
-1.10887e-11
1.97032e-09
-2.53219e-11
-1.27248e-11
1.94794e-09
-2.50876e-11
-1.40098e-11
1.9195e-09
-2.48128e-11
-1.51489e-11
1.88345e-09
-2.44901e-11
-1.58777e-11
1.83776e-09
-2.41147e-11
-1.67017e-11
1.77967e-09
-2.3672e-11
-1.63192e-11
1.70553e-09
-2.31403e-11
-1.54016e-11
1.61042e-09
-2.24908e-11
-1.36581e-11
1.48779e-09
-2.16657e-11
-1.09762e-11
1.32889e-09
-2.05591e-11
-6.73027e-12
1.12207e-09
-1.89641e-11
6.78515e-10
-1.53364e-11
5.72815e-12
6.85245e-10
-1.21195e-11
8.97883e-12
1.1336e-09
-1.50112e-11
1.0943e-11
1.34279e-09
-1.62853e-11
1.27575e-11
1.50351e-09
-1.71711e-11
1.31334e-11
1.62755e-09
-1.78345e-11
1.34902e-11
1.72377e-09
-1.8357e-11
1.27116e-11
1.79878e-09
-1.87861e-11
1.22827e-11
1.85755e-09
-1.91452e-11
1.14015e-11
1.90379e-09
-1.94503e-11
1.01913e-11
1.94026e-09
-1.97129e-11
8.97636e-12
1.96906e-09
-1.99373e-11
7.4022e-12
1.99171e-09
-2.01283e-11
6.31349e-12
2.00937e-09
-2.02873e-11
5.13429e-12
2.02287e-09
-2.04168e-11
3.52405e-12
2.03282e-09
-2.05177e-11
2.10949e-12
2.03965e-09
-2.05896e-11
4.84416e-13
2.04364e-09
-2.06325e-11
-4.73529e-13
2.04495e-09
-2.0646e-11
-2.37233e-12
2.04364e-09
-2.06313e-11
-3.68491e-12
2.03966e-09
-2.05874e-11