/*--------------------------------*- C++ -*----------------------------------*\
| =========                 |                                                 |
| \\      /  F ield         | OpenFOAM: The Open Source CFD Toolbox           |
|  \\    /   O peration     | Version:  v1906                                 |
|   \\  /    A nd           | Web:      www.OpenFOAM.com                      |
|    \\/     M anipulation  |                                                 |
\*---------------------------------------------------------------------------*/
FoamFile
{
    version     2.0;
    format      ascii;
    class       surfaceScalarField;
    location    "50";
    object      phi;
}
// * * * * * * * * * * * * * * * * * * * * * * * * * * * * * * * * * * * * * //

dimensions      [1 0 -1 0 0 0 0];
oriented        oriented;


internalField   nonuniform List<scalar> 
228225
(
-3.25551e-09
3.55076e-09
-5.55616e-10
-1.12804e-08
1.25847e-08
-4.56319e-09
-2.36785e-08
1.81027e-08
-5.70056e-09
-4.01961e-08
2.27217e-08
-6.20408e-09
-6.01677e-08
2.65509e-08
-6.5825e-09
-8.27506e-08
2.95644e-08
-6.98103e-09
-1.07133e-07
3.18122e-08
-7.42756e-09
-1.32494e-07
3.33038e-08
-7.94116e-09
-1.58113e-07
3.41247e-08
-8.50874e-09
-1.83282e-07
3.43092e-08
-9.1396e-09
-2.07403e-07
3.39456e-08
-9.82114e-09
-2.29925e-07
3.30804e-08
-1.05623e-08
-2.5038e-07
3.18084e-08
-1.13514e-08
-2.68358e-07
3.01719e-08
-1.21942e-08
-2.83538e-07
2.82564e-08
-1.3077e-08
-2.95622e-07
2.6086e-08
-1.40002e-08
-3.04417e-07
2.37404e-08
-1.49451e-08
-3.09773e-07
2.12549e-08
-1.59025e-08
-3.11601e-07
1.86853e-08
-1.68527e-08
-3.09876e-07
1.60659e-08
-1.77919e-08
-3.04621e-07
1.34421e-08
-1.86982e-08
-2.95899e-07
1.08345e-08
-1.95538e-08
-2.83843e-07
8.27801e-09
-2.03369e-08
-2.68598e-07
5.78919e-09
-2.10322e-08
-2.50376e-07
3.39619e-09
-2.16192e-08
-2.29407e-07
1.11666e-09
-2.2083e-08
-2.0598e-07
-1.02432e-09
-2.24059e-08
-1.80398e-07
-3.00418e-09
-2.25742e-08
-1.53047e-07
-4.78517e-09
-2.25707e-08
-1.24339e-07
-6.32891e-09
-2.23759e-08
-9.48142e-08
-7.57807e-09
-2.19467e-08
-6.51904e-08
-8.44828e-09
-2.11744e-08
-3.66854e-08
-8.77321e-09
-1.97316e-08
-1.18048e-08
-8.27256e-09
-1.66109e-08
-5.23917e-09
-6.56417e-09
-9.56574e-09
2.96513e-08
-1.65338e-08
-3.27699e-08
5.38193e-08
-1.80316e-08
-6.07156e-08
6.48784e-08
-1.88287e-08
-9.09555e-08
7.27869e-08
-1.98257e-08
-1.21717e-07
7.8058e-08
-2.07457e-08
-1.51785e-07
8.11827e-08
-2.15503e-08
-1.80214e-07
8.25337e-08
-2.22921e-08
-2.06366e-07
8.24424e-08
-2.2986e-08
-2.29761e-07
8.11669e-08
-2.36483e-08
-2.50114e-07
7.89356e-08
-2.42744e-08
-2.67218e-07
7.59263e-08
-2.48749e-08
-2.81005e-07
7.23081e-08
-2.54425e-08
-2.91436e-07
6.82227e-08
-2.59837e-08
-2.98569e-07
6.37975e-08
-2.649e-08
-3.02495e-07
5.9144e-08
-2.69656e-08
-3.03343e-07
5.43422e-08
-2.7406e-08
-3.01263e-07
4.94739e-08
-2.78138e-08
-2.96435e-07
4.46089e-08
-2.81819e-08
-2.89043e-07
3.98044e-08
-2.85124e-08
-2.79299e-07
3.51201e-08
-2.87975e-08
-2.67413e-07
3.0595e-08
-2.90387e-08
-2.53608e-07
2.62609e-08
-2.92328e-08
-2.38094e-07
2.2142e-08
-2.93778e-08
-2.21094e-07
1.82576e-08
-2.94673e-08
-2.0282e-07
1.46222e-08
-2.94993e-08
-1.83488e-07
1.12481e-08
-2.94662e-08
-1.63295e-07
8.1454e-09
-2.93613e-08
-1.42454e-07
5.32455e-09
-2.91708e-08
-1.21159e-07
2.79659e-09
-2.88769e-08
-9.96128e-08
5.74942e-10
-2.84494e-08
-7.80268e-08
-1.30944e-09
-2.78549e-08
-5.66185e-08
-2.81653e-09
-2.70399e-08
-3.57032e-08
-3.86486e-09
-2.58241e-08
-1.60862e-08
-4.20498e-09
-2.36838e-08
-2.51113e-09
-1.88149e-08
-7.37208e-09
4.52609e-08
-8.23694e-09
-1.97606e-08
7.61202e-08
-9.91415e-09
-3.36604e-08
8.94808e-08
-1.07015e-08
-4.80612e-08
9.8602e-08
-1.1415e-08
-6.228e-08
1.04362e-07
-1.20864e-08
-7.58309e-08
1.07502e-07
-1.2767e-08
-8.83849e-08
1.08546e-07
-1.34586e-08
-9.96981e-08
1.07939e-07
-1.41832e-08
-1.09621e-07
1.06014e-07
-1.49253e-08
-1.18046e-07
1.03053e-07
-1.56925e-08
-1.24935e-07
9.9279e-08
-1.64635e-08
-1.30271e-07
9.4886e-08
-1.72403e-08
-1.34081e-07
9.0031e-08
-1.80011e-08
-1.36389e-07
8.48534e-08
-1.87458e-08
-1.3726e-07
7.94684e-08
-1.9455e-08
-1.36779e-07
7.3994e-08
-2.0132e-08
-1.35057e-07
6.85109e-08
-2.07608e-08
-1.32192e-07
6.30877e-08
-2.13426e-08
-1.28301e-07
5.77785e-08
-2.18665e-08
-1.23487e-07
5.26394e-08
-2.23322e-08
-1.17864e-07
4.77046e-08
-2.27325e-08
-1.11535e-07
4.30022e-08
-2.30707e-08
-1.04603e-07
3.85527e-08
-2.33418e-08
-9.71584e-08
3.43607e-08
-2.35488e-08
-8.9283e-08
3.04348e-08
-2.36878e-08
-8.10538e-08
2.67772e-08
-2.37596e-08
-7.25426e-08
2.33927e-08
-2.37587e-08
-6.38179e-08
2.02803e-08
-2.36805e-08
-5.49385e-08
1.74315e-08
-2.35124e-08
-4.59602e-08
1.48338e-08
-2.32378e-08
-3.69156e-08
1.24735e-08
-2.28278e-08
-2.7839e-08
1.0337e-08
-2.22296e-08
-1.87852e-08
8.40281e-09
-2.13227e-08
-9.79765e-09
6.63196e-09
-1.98231e-08
3.9955e-09
-1.63051e-08
-7.96084e-09
4.95097e-08
3.7124e-09
-1.44264e-08
8.01714e-08
2.41389e-09
-1.99848e-08
9.36178e-08
1.42209e-09
-2.49787e-08
1.02909e-07
6.86164e-10
-2.95709e-08
1.08956e-07
-5.34245e-13
-3.37693e-08
1.12443e-07
-7.42536e-10
-3.75458e-08
1.13906e-07
-1.58425e-09
-4.0862e-08
1.13759e-07
-2.50422e-09
-4.36841e-08
1.12344e-07
-3.50674e-09
-4.59936e-08
1.09926e-07
-4.56361e-09
-4.77748e-08
1.06735e-07
-5.67381e-09
-4.90305e-08
1.02948e-07
-6.80693e-09
-4.9768e-08
9.87276e-08
-7.95902e-09
-5.00099e-08
9.4197e-08
-9.10245e-09
-4.97834e-08
8.94702e-08
-1.02285e-08
-4.91323e-08
8.46516e-08
-1.13064e-08
-4.81131e-08
7.98259e-08
-1.23357e-08
-4.67786e-08
7.50532e-08
-1.32991e-08
-4.51908e-08
7.03863e-08
-1.4197e-08
-4.33966e-08
6.58635e-08
-1.50169e-08
-4.14504e-08
6.15164e-08
-1.57606e-08
-3.93919e-08
5.73661e-08
-1.64198e-08
-3.72704e-08
5.34267e-08
-1.69972e-08
-3.51144e-08
4.96955e-08
-1.74899e-08
-3.29511e-08
4.61723e-08
-1.79009e-08
-3.07959e-08
4.28489e-08
-1.8227e-08
-2.86485e-08
3.97136e-08
-1.84692e-08
-2.64905e-08
3.67461e-08
-1.8623e-08
-2.42723e-08
3.39008e-08
-1.86874e-08
-2.19135e-08
3.11273e-08
-1.86535e-08
-1.92831e-08
2.83528e-08
-1.85086e-08
-1.6189e-08
2.54859e-08
-1.82438e-08
-1.22874e-08
2.23867e-08
-1.7885e-08
-7.20408e-09
1.89102e-08
-1.73613e-08
1.22134e-08
-1.54227e-08
-8.6511e-09
4.81476e-08
1.00138e-08
-1.1878e-08
7.43657e-08
9.03264e-09
-1.24085e-08
8.61349e-08
8.01186e-09
-1.13555e-08
9.45554e-08
7.30065e-09
-9.38889e-09
1.0031e-07
6.68031e-09
-6.87349e-09
1.03951e-07
5.97525e-09
-4.05086e-09
1.05913e-07
5.16907e-09
-1.09412e-09
1.06543e-07
4.25906e-09
1.86713e-09
1.06111e-07
3.27237e-09
4.73478e-09
1.04846e-07
2.21094e-09
7.44182e-09
1.02925e-07
1.1026e-09
9.93468e-09
1.00505e-07
-4.97898e-11
1.21547e-08
9.77089e-08
-1.20258e-09
1.40664e-08
9.46491e-08
-2.36171e-09
1.56328e-08
9.1408e-08
-3.50538e-09
1.68467e-08
8.80625e-08
-4.6253e-09
1.77007e-08
8.46723e-08
-5.69913e-09
1.81847e-08
8.12915e-08
-6.72289e-09
1.82941e-08
7.79581e-08
-7.68184e-09
1.80284e-08
7.47049e-08
-8.57514e-09
1.73853e-08
7.15531e-08
-9.39284e-09
1.63694e-08
6.85171e-08
-1.01363e-08
1.49933e-08
6.56023e-08
-1.07993e-08
1.32665e-08
6.28059e-08
-1.13847e-08
1.12124e-08
6.01172e-08
-1.18892e-08
8.86256e-09
5.75148e-08
-1.2316e-08
6.27269e-09
5.49662e-08
-1.26638e-08
3.53314e-09
5.24229e-08
-1.29366e-08
7.55181e-10
4.98119e-08
-1.31351e-08
-1.89655e-09
4.70406e-08
-1.32594e-08
-4.21927e-09
4.398e-08
-1.33044e-08
-5.89569e-09
4.04551e-08
-1.32936e-08
-6.39439e-09
3.62196e-08
-1.33342e-08
-4.97395e-09
3.09601e-08
-1.34709e-08
1.99129e-08
-1.26733e-08
-5.34137e-09
4.32213e-08
1.02681e-08
-5.87549e-09
6.55365e-08
9.36248e-09
-3.86582e-09
7.57515e-08
8.37468e-09
-3.44915e-10
8.32862e-08
7.74652e-09
4.0125e-09
8.87272e-08
7.2261e-09
8.80506e-09
9.24979e-08
6.66119e-09
1.37476e-08
9.49611e-08
6.00933e-09
1.86279e-08
9.63753e-08
5.28825e-09
2.32735e-08
9.69638e-08
4.49914e-09
2.75712e-08
9.68902e-08
3.66019e-09
3.1421e-08
9.62994e-08
2.77414e-09
3.47657e-08
9.53003e-08
1.86123e-09
3.75559e-08
9.39907e-08
9.2648e-10
3.97775e-08
9.24422e-08
-1.3253e-11
4.13989e-08
9.0723e-08
-9.37033e-10
4.24151e-08
8.88865e-08
-1.84174e-09
4.28314e-08
8.69792e-08
-2.72192e-09
4.2652e-08
8.5034e-08
-3.56318e-09
4.18925e-08
8.30802e-08
-4.36275e-09
4.05702e-08
8.11375e-08
-5.11059e-09
3.87092e-08
7.92203e-08
-5.80581e-09
3.63336e-08
7.73336e-08
-6.44178e-09
3.34823e-08
7.54751e-08
-7.01929e-09
3.0186e-08
7.36337e-08
-7.53452e-09
2.65052e-08
7.17877e-08
-7.98946e-09
2.24988e-08
6.99042e-08
-8.38265e-09
1.82505e-08
6.79327e-08
-8.71747e-09
1.38614e-08
6.58052e-08
-8.99512e-09
9.47022e-09
6.34235e-08
-9.22034e-09
5.24695e-09
6.06584e-08
-9.39338e-09
1.41423e-09
5.73281e-08
-9.51588e-09
-1.70847e-09
5.31953e-08
-9.61694e-09
-3.59186e-09
4.79261e-08
-9.82327e-09
-3.52321e-09
4.11058e-08
-1.02137e-08
2.63572e-08
-9.9685e-09
-2.17638e-09
3.79769e-08
7.42083e-09
-1.33201e-09
5.81666e-08
6.52556e-09
1.21045e-09
6.75319e-08
5.67773e-09
4.72466e-09
7.46128e-08
5.15743e-09
8.7605e-09
7.99311e-08
4.76131e-09
1.30379e-08
8.38725e-08
4.34754e-09
1.73688e-08
8.67377e-08
3.89273e-09
2.15932e-08
8.8757e-08
3.39354e-09
2.55913e-08
9.01059e-08
2.86097e-09
2.92609e-08
9.09263e-08
2.29343e-09
3.25325e-08
9.13251e-08
1.7026e-09
3.53507e-08
9.1393e-08
1.08982e-09
3.76756e-08
9.11981e-08
4.67071e-10
3.94815e-08
9.08003e-08
-1.63486e-10
4.0741e-08
9.0244e-08
-7.79608e-10
4.14474e-08
8.95691e-08
-1.38989e-09
4.16025e-08
8.88041e-08
-1.98087e-09
4.12145e-08
8.79739e-08
-2.55003e-09
4.02896e-08
8.70943e-08
-3.08909e-09
3.88471e-08
8.61766e-08
-3.59704e-09
3.69107e-08
8.52249e-08
-4.06785e-09
3.45092e-08
8.42365e-08
-4.50181e-09
3.16781e-08
8.32013e-08
-4.89491e-09
2.84618e-08
8.20992e-08
-5.24864e-09
2.49106e-08
8.08998e-08
-5.56088e-09
2.1091e-08
7.95576e-08
-5.83426e-09
1.70816e-08
7.80104e-08
-6.06846e-09
1.29851e-08
7.61705e-08
-6.26776e-09
8.92236e-09
7.392e-08
-6.43364e-09
5.05214e-09
7.1098e-08
-6.56936e-09
1.56794e-09
6.74872e-08
-6.67452e-09
-1.25794e-09
6.27976e-08
-6.7763e-09
-2.98658e-09
5.66325e-08
-6.97808e-09
-3.00729e-09
4.84737e-08
-7.3472e-09
3.0602e-08
-7.25156e-09
-6.55503e-10
3.4111e-08
4.52243e-09
6.24028e-11
5.36619e-08
3.78498e-09
1.65437e-09
6.27766e-08
3.16252e-09
3.73325e-09
6.97448e-08
2.79005e-09
6.06958e-09
7.50864e-08
2.50793e-09
8.53827e-09
7.91765e-08
2.22878e-09
1.10434e-08
8.23051e-08
1.927e-09
1.3507e-08
8.46853e-08
1.60752e-09
1.58605e-08
8.6484e-08
1.26838e-09
1.80465e-08
8.7825e-08
9.15417e-10
2.00162e-08
8.8807e-08
5.47474e-10
2.17367e-08
8.9504e-08
1.69831e-10
2.31687e-08
8.99757e-08
-2.10125e-10
2.42851e-08
9.02673e-08
-5.84259e-10
2.50721e-08
9.04154e-08
-9.57814e-10
2.55142e-08
9.04482e-08
-1.32052e-09
2.56021e-08
9.03873e-08
-1.6717e-09
2.53341e-08
9.02466e-08
-2.00474e-09
2.47118e-08
9.0035e-08
-2.31963e-09
2.37458e-08
8.97557e-08
-2.61147e-09
2.2445e-08
8.94058e-08
-2.8812e-09
2.08299e-08
8.89762e-08
-3.12537e-09
1.89287e-08
8.84493e-08
-3.34589e-09
1.67694e-08
8.77989e-08
-3.54065e-09
1.43954e-08
8.69858e-08
-3.71244e-09
1.1857e-08
8.59575e-08
-3.86029e-09
9.21487e-09
8.46395e-08
-3.9879e-09
6.54766e-09
8.2934e-08
-4.0956e-09
3.94952e-09
8.07057e-08
-4.18788e-09
1.53386e-09
7.77775e-08
-4.26428e-09
-5.55979e-10
7.39056e-08
-4.32742e-09
-2.13715e-09
6.87713e-08
-4.39272e-09
-2.90806e-09
6.19352e-08
-4.53258e-09
-2.47617e-09
5.28242e-08
-4.78112e-09
3.28161e-08
-4.6909e-09
-4.87899e-10
3.16583e-08
2.94059e-09
-4.68669e-10
5.1144e-08
2.49886e-09
-6.0479e-11
6.0225e-08
2.14335e-09
5.65112e-10
6.71897e-08
1.92887e-09
1.32682e-09
7.25612e-08
1.76277e-09
2.18577e-09
7.67259e-08
1.59278e-09
3.10848e-09
7.99697e-08
1.41173e-09
4.06814e-09
8.25094e-08
1.21773e-09
5.03033e-09
8.45055e-08
1.01598e-09
5.96761e-09
8.60815e-08
8.05129e-10
6.85724e-09
8.73293e-08
5.90567e-10
7.66751e-09
8.832e-08
3.71815e-10
8.38395e-09
8.91065e-08
1.53366e-10
8.98158e-09
8.97301e-08
-6.01877e-11
9.44016e-09
9.02207e-08
-2.64264e-10
9.74879e-09
9.06011e-08
-4.6082e-10
9.89569e-09
9.08865e-08
-6.45885e-10
9.87606e-09
9.10869e-08
-8.19666e-10
9.68184e-09
9.12073e-08
-9.77985e-10
9.31187e-09
9.12473e-08
-1.12199e-09
8.76789e-09
9.11985e-08
-1.24868e-09
8.05822e-09
9.10468e-08
-1.36082e-09
7.19275e-09
9.07704e-08
-1.45645e-09
6.19362e-09
9.03378e-08
-1.53905e-09
5.08145e-09
8.97058e-08
-1.60752e-09
3.88797e-09
8.88158e-08
-1.66595e-09
2.6533e-09
8.7589e-08
-1.71397e-09
1.42298e-09
8.59205e-08
-1.75636e-09
2.53262e-10
8.36694e-08
-1.79331e-09
-7.88701e-10
8.06489e-08
-1.82899e-09
-1.62832e-09
7.66073e-08
-1.86255e-09
-2.16204e-09
7.12124e-08
-1.90777e-09
-2.23209e-09
6.40112e-08
-2.00573e-09
-1.6361e-09
5.44034e-08
-2.17425e-09
3.33284e-08
-2.14898e-09
-1.00262e-09
3.01215e-08
2.53848e-09
-1.77879e-09
4.94649e-08
2.45518e-09
-2.36342e-09
5.8465e-08
2.34584e-09
-2.81851e-09
6.53632e-08
2.28212e-09
-3.15947e-09
7.06842e-08
2.21649e-09
-3.38641e-09
7.48155e-08
2.13721e-09
-3.50211e-09
7.80453e-08
2.04117e-09
-3.51598e-09
8.0589e-08
1.93454e-09
-3.43889e-09
8.26085e-08
1.8179e-09
-3.27751e-09
8.4225e-08
1.69668e-09
-3.04978e-09
8.55303e-08
1.57091e-09
-2.76881e-09
8.65927e-08
1.44603e-09
-2.44849e-09
8.74648e-08
1.32194e-09
-2.10661e-09
8.81844e-08
1.20381e-09
-1.75903e-09
8.87812e-08
1.09091e-09
-1.41902e-09
8.92736e-08
9.88777e-10
-1.104e-09
8.96757e-08
8.96107e-10
-8.28788e-10
8.9994e-08
8.16775e-10
-6.0059e-10
9.02309e-08
7.48687e-10
-4.28492e-10
9.03818e-08
6.93385e-10
-3.16596e-10
9.04379e-08
6.48165e-10
-2.63994e-10
9.0382e-08
6.15089e-10
-2.76985e-10
9.01908e-08
5.90282e-10
-3.43204e-10
8.98302e-08
5.74931e-10
-4.58449e-10
8.9256e-08
5.64416e-10
-6.08406e-10
8.84073e-08
5.5923e-10
-7.78857e-10
8.72049e-08
5.54164e-10
-9.49353e-10
8.55427e-08
5.49045e-10
-1.09953e-09
8.32808e-08
5.3811e-10
-1.20499e-09
8.02332e-08
5.21058e-10
-1.23999e-09
7.61517e-08
4.9202e-10
-1.18005e-09
7.07071e-08
4.4427e-10
-9.71192e-10
6.34556e-08
3.46585e-10
-5.64256e-10
5.38052e-08
1.92302e-10
3.27008e-08
6.26009e-11
-1.5401e-09
2.90004e-08
2.6602e-09
-2.86293e-09
4.79061e-08
2.88333e-09
-4.04752e-09
5.6687e-08
2.9615e-09
-5.09909e-09
6.34069e-08
3.00782e-09
-6.01225e-09
6.85787e-08
3.01834e-09
-6.77922e-09
7.25841e-08
2.99897e-09
-7.3988e-09
7.57053e-08
2.9593e-09
-7.87026e-09
7.81563e-08
2.90249e-09
-8.19168e-09
8.00955e-08
2.83583e-09
-8.37091e-09
8.16438e-08
2.76069e-09
-8.41524e-09
8.28905e-08
2.68318e-09
-8.32947e-09
8.39048e-08
2.60384e-09
-8.13218e-09
8.47368e-08
2.52813e-09
-7.82768e-09
8.54258e-08
2.45592e-09
-7.4371e-09
8.59985e-08
2.392e-09
-6.97543e-09
8.64757e-08
2.33543e-09
-6.45907e-09
8.68689e-08
2.29006e-09
-5.90209e-09
8.71859e-08
2.25388e-09
-5.32938e-09
8.7425e-08
2.23028e-09
-4.74576e-09
8.75822e-08
2.21657e-09
-4.1668e-09
8.76454e-08
2.21455e-09
-3.60466e-09
8.7599e-08
2.22026e-09
-3.06556e-09
8.74169e-08
2.23471e-09
-2.55545e-09
8.70671e-08
2.25311e-09
-2.07903e-09
8.6503e-08
2.27576e-09
-1.63485e-09
8.56669e-08
2.29717e-09
-1.22705e-09
8.44792e-08
2.317e-09
-8.52849e-10
8.28388e-08
2.32906e-09
-5.12642e-10
8.06089e-08
2.33218e-09
-2.10658e-10
7.76123e-08
2.31939e-09
4.17209e-11
7.36101e-08
2.28832e-09
2.3372e-10
6.8289e-08
2.22655e-09
3.49e-10
6.12259e-08
2.11391e-09
3.63172e-10
5.18575e-08
1.93436e-09
3.14281e-08
1.63521e-09
-1.74725e-09
2.81384e-08
2.60979e-09
-3.27734e-09
4.64281e-08
3.00785e-09
-4.68897e-09
5.49119e-08
3.18425e-09
-5.9602e-09
6.13921e-08
3.28874e-09
-7.08218e-09
6.6365e-08
3.33513e-09
-8.04197e-09
7.01976e-08
3.3459e-09
-8.83209e-09
7.31671e-08
3.32953e-09
-9.45136e-09
7.54795e-08
3.29525e-09
-9.89428e-09
7.72923e-08
3.24646e-09
-1.01634e-08
7.8722e-08
3.1902e-09
-1.026e-08
7.98592e-08
3.12837e-09
-1.01917e-08
8.07702e-08
3.06692e-09
-9.96981e-09
8.15074e-08
3.00679e-09
-9.60454e-09
8.2108e-08
2.95311e-09
-9.11442e-09
8.26013e-08
2.90591e-09
-8.51314e-09
8.30059e-08
2.86946e-09
-7.82304e-09
8.3336e-08
2.84275e-09
-7.0627e-09
8.35965e-08
2.82898e-09
-6.25194e-09
8.37897e-08
2.82597e-09
-5.41667e-09
8.39089e-08
2.83578e-09
-4.57106e-09
8.39448e-08
2.85504e-09
-3.73435e-09
8.38783e-08
2.8847e-09
-2.92384e-09
8.36863e-08
2.92031e-09
-2.15363e-09
8.33337e-08
2.96186e-09
-1.43112e-09
8.27778e-08
3.00404e-09
-7.70364e-10
8.19591e-08
3.04607e-09
-1.75069e-10
8.08038e-08
3.08189e-09
3.4063e-10
7.92115e-08
3.10991e-09
7.73305e-10
7.7055e-08
3.12311e-09
1.10259e-09
7.41627e-08
3.11878e-09
1.31407e-09
7.03119e-08
3.08815e-09
1.37664e-09
6.52033e-08
3.02345e-09
1.25711e-09
5.84431e-08
2.90106e-09
9.12609e-10
4.94995e-08
2.7043e-09
3.0042e-08
2.29816e-09
-1.51157e-09
2.75907e-08
2.05981e-09
-2.92811e-09
4.53757e-08
2.46785e-09
-4.28543e-09
5.36121e-08
2.65817e-09
-5.54556e-09
5.98882e-08
2.76297e-09
-6.67286e-09
6.4684e-08
2.80869e-09
-7.64914e-09
6.8358e-08
2.81616e-09
-8.45948e-09
7.11794e-08
2.7982e-09
-9.09204e-09
7.33526e-08
2.75983e-09
-9.53878e-09
7.50304e-08
2.70861e-09
-9.79464e-09
7.63312e-08
2.64773e-09
-9.86449e-09
7.73429e-08
2.58364e-09
-9.7454e-09
7.81353e-08
2.51844e-09
-9.45575e-09
7.8759e-08
2.4577e-09
-9.00614e-09
7.92549e-08
2.40265e-09
-8.41286e-09
7.9651e-08
2.35798e-09
-7.69976e-09
7.99697e-08
2.32386e-09
-6.89226e-09
8.02232e-08
2.30386e-09
-6.01232e-09
8.04202e-08
2.2969e-09
-5.08881e-09
8.05603e-08
2.30523e-09
-4.14514e-09
8.06403e-08
2.32641e-09
-3.21137e-09
8.06477e-08
2.36137e-09
-2.3037e-09
8.05665e-08
2.40634e-09
-1.44949e-09
8.03701e-08
2.46105e-09
-6.62654e-10
8.00267e-08
2.52064e-09
3.9059e-11
7.94906e-08
2.58387e-09
6.5018e-10
7.87061e-08
2.64505e-09
1.15122e-09
7.75977e-08
2.7022e-09
1.54269e-09
7.60712e-08
2.7489e-09
1.8155e-09
7.40004e-08
2.78233e-09
1.96106e-09
7.12235e-08
2.79513e-09
1.96466e-09
6.75246e-08
2.78298e-09
1.81162e-09
6.26209e-08
2.73436e-09
1.48581e-09
5.6136e-08
2.63253e-09
9.64615e-10
4.75673e-08
2.45427e-09
2.89421e-08
2.06367e-09
-9.75671e-10
2.75349e-08
1.03148e-09
-2.08252e-09
4.51657e-08
1.31645e-09
-3.23804e-09
5.33161e-08
1.45247e-09
-4.3721e-09
5.9505e-08
1.51647e-09
-5.4284e-09
6.42105e-08
1.52929e-09
-6.36835e-09
6.77874e-08
1.51137e-09
-7.16544e-09
7.05067e-08
1.46994e-09
-7.79664e-09
7.25706e-08
1.41232e-09
-8.24511e-09
7.41357e-08
1.34218e-09
-8.4971e-09
7.53194e-08
1.26497e-09
-8.55249e-09
7.62148e-08
1.18387e-09
-8.41444e-09
7.68913e-08
1.10494e-09
-8.09045e-09
7.7405e-08
1.03061e-09
-7.59761e-09
7.77963e-08
9.66027e-10
-6.95714e-09
7.80981e-08
9.12694e-10
-6.19432e-09
7.83319e-08
8.7465e-10
-5.33917e-09
7.85143e-08
8.52133e-10
-4.41803e-09
7.86522e-08
8.47797e-10
-3.4658e-09
7.87488e-08
8.6036e-10
-2.51519e-09
7.8798e-08
8.90936e-10
-1.59469e-09
7.87904e-08
9.36705e-10
-7.32047e-10
7.87062e-08
9.97306e-10
4.77802e-11
7.85214e-08
1.06855e-09
7.26268e-10
7.81998e-08
1.14884e-09
1.28518e-09
7.76978e-08
1.23297e-09
1.71726e-09
7.69559e-08
1.31851e-09
2.0131e-09
7.5901e-08
1.3996e-09
2.17705e-09
7.44358e-08
1.4733e-09
2.20581e-09
7.24375e-08
1.53332e-09
2.10841e-09
6.97437e-08
1.57645e-09
1.89221e-09
6.61447e-08
1.5959e-09
1.5678e-09
6.13606e-08
1.58605e-09
1.14462e-09
5.5026e-08
1.53135e-09
6.4816e-10
4.66488e-08
1.41604e-09
2.8438e-08
1.15259e-09
-3.58204e-10
2.80815e-08
-1.86532e-10
-1.11258e-09
4.60125e-08
-9.4647e-11
-2.03558e-09
5.42829e-08
-4.33564e-11
-3.02822e-09
6.05379e-08
-4.1456e-11
-4.00634e-09
6.52639e-08
-7.40351e-11
-4.91442e-09
6.88265e-08
-1.3039e-10
-5.70646e-09
7.15015e-08
-2.0428e-10
-6.34123e-09
7.35006e-08
-2.93033e-10
-6.8007e-09
7.49836e-08
-3.91466e-10
-7.05993e-09
7.60759e-08
-4.9518e-10
-7.12007e-09
7.68727e-08
-5.9869e-10
-6.97886e-09
7.745e-08
-6.98994e-10
-6.64858e-09
7.78653e-08
-7.90703e-10
-6.14719e-09
7.8165e-08
-8.71196e-10
-5.49515e-09
7.83824e-08
-9.35915e-10
-4.72279e-09
7.85438e-08
-9.83289e-10
-3.86461e-09
7.86651e-08
-1.01012e-09
-2.95057e-09
7.87573e-08
-1.01636e-09
-2.02476e-09
7.88213e-08
-1.00046e-09
-1.11581e-09
7.88543e-08
-9.64119e-10
-2.61958e-10
7.88431e-08
-9.07502e-10
5.09396e-10
7.87702e-08
-8.33945e-10
1.16837e-09
7.86068e-08
-7.45155e-10
1.69582e-09
7.83178e-08
-6.45787e-10
2.07796e-09
7.78545e-08
-5.38633e-10
2.30546e-09
7.71573e-08
-4.29134e-10
2.38119e-09
7.61474e-08
-3.20602e-10
2.30769e-09
7.4727e-08
-2.18649e-10
2.10544e-09
7.27676e-08
-1.26473e-10
1.79122e-09
7.01056e-08
-4.90385e-11
1.40016e-09
6.65254e-08
1.14026e-11
9.642e-10
6.17459e-08
4.9091e-11
5.3824e-10
5.5395e-08
5.82077e-11
1.80771e-10
4.69783e-08
2.88408e-11
2.86584e-08
-4.06688e-11
1.48557e-10
2.92122e-08
-1.27992e-09
-2.93559e-10
4.78318e-08
-1.37557e-09
-1.0046e-09
5.64022e-08
-1.41083e-09
-1.85253e-09
6.28572e-08
-1.46967e-09
-2.74603e-09
6.77056e-08
-1.54802e-09
-3.60992e-09
7.13292e-08
-1.63988e-09
-4.38252e-09
7.40189e-08
-1.74419e-09
-5.01966e-09
7.59961e-08
-1.85838e-09
-5.48748e-09
7.74324e-08
-1.98045e-09
-5.76503e-09
7.84592e-08
-2.10567e-09
-5.84205e-09
7.91803e-08
-2.23035e-09
-5.72004e-09
7.96756e-08
-2.34908e-09
-5.40357e-09
8.00096e-08
-2.45817e-09
-4.91769e-09
8.02306e-08
-2.55264e-09
-4.28332e-09
8.03776e-08
-2.62965e-09
-3.53096e-09
8.04778e-08
-2.68536e-09
-2.69775e-09
8.0551e-08
-2.71835e-09
-1.82361e-09
8.06076e-08
-2.72644e-09
-9.41192e-10
8.06514e-08
-2.71003e-09
-9.72145e-11
8.06771e-08
-2.6688e-09
6.79424e-10
8.06734e-08
-2.60503e-09
1.34949e-09
8.06186e-08
-2.52023e-09
1.89123e-09
8.04843e-08
-2.41829e-09
2.28042e-09
8.02303e-08
-2.30213e-09
2.506e-09
7.98065e-08
-2.17677e-09
2.5618e-09
7.91472e-08
-2.0459e-09
2.45306e-09
7.81707e-08
-1.91488e-09
2.19553e-09
7.67717e-08
-1.7873e-09
1.81373e-09
7.48169e-08
-1.66786e-09
1.34557e-09
7.21332e-08
-1.55873e-09
8.38025e-10
6.8497e-08
-1.4626e-09
3.47719e-10
6.36144e-08
-1.37963e-09
-4.61622e-11
5.71001e-08
-1.3123e-09
-2.46294e-10
4.84406e-08
-1.26096e-09
2.95625e-08
-1.15054e-09
4.3782e-10
3.07682e-08
-1.99429e-09
1.89778e-10
5.03038e-08
-2.22338e-09
-3.67959e-10
5.92801e-08
-2.31999e-09
-1.1069e-09
6.60183e-08
-2.42287e-09
-1.92001e-09
7.10531e-08
-2.53365e-09
-2.7289e-09
7.47905e-08
-2.65288e-09
-3.46549e-09
7.75369e-08
-2.78055e-09
-4.08383e-09
7.95287e-08
-2.91631e-09
-4.53939e-09
8.09468e-08
-3.05727e-09
-4.81311e-09
8.19334e-08
-3.20032e-09
-4.89171e-09
8.25986e-08
-3.3406e-09
-4.77174e-09
8.30307e-08
-3.47406e-09
-4.46637e-09
8.32978e-08
-3.59556e-09
-3.98758e-09
8.34551e-08
-3.70133e-09
-3.36717e-09
8.35434e-08
-3.787e-09
-2.63598e-09
8.35947e-08
-3.84994e-09
-1.82565e-09
8.36296e-08
-3.88723e-09
-9.82412e-10
8.36612e-08
-3.89798e-09
-1.41763e-10
8.36927e-08
-3.88118e-09
6.53828e-10
8.372e-08
-3.83789e-09
1.36572e-09
8.37291e-08
-3.76907e-09
1.96298e-09
8.36986e-08
-3.67767e-09
2.41955e-09
8.35956e-08
-3.56637e-09
2.7094e-09
8.33783e-08
-3.4396e-09
2.82774e-09
8.29909e-08
-3.30117e-09
2.76523e-09
8.23641e-08
-3.15623e-09
2.53805e-09
8.14088e-08
-3.00888e-09
2.15943e-09
8.00139e-08
-2.86392e-09
1.66429e-09
7.80362e-08
-2.72447e-09
1.0965e-09
7.52936e-08
-2.59335e-09
5.15733e-10
7.15485e-08
-2.47089e-09
-5.93497e-12
6.64928e-08
-2.35643e-09
-3.76755e-10
5.97188e-08
-2.24716e-09
-4.87444e-10
5.0689e-08
-2.13874e-09
3.0974e-08
-1.89864e-09
4.86209e-10
3.25392e-08
-2.25673e-09
2.94093e-10
5.30346e-08
-2.53814e-09
-2.06905e-10
6.24408e-08
-2.66092e-09
-8.88701e-10
6.94827e-08
-2.78238e-09
-1.65242e-09
7.47232e-08
-2.90773e-09
-2.41188e-09
7.85905e-08
-3.03887e-09
-3.10609e-09
8.14091e-08
-3.17756e-09
-3.68431e-09
8.34285e-08
-3.32301e-09
-4.10412e-09
8.48421e-08
-3.47338e-09
-4.34723e-09
8.58004e-08
-3.62477e-09
-4.39846e-09
8.64226e-08
-3.77323e-09
-4.25618e-09
8.68023e-08
-3.91375e-09
-3.93038e-09
8.70146e-08
-4.04203e-09
-3.43961e-09
8.7118e-08
-4.15333e-09
-2.81034e-09
8.71584e-08
-4.24406e-09
-2.07552e-09
8.71694e-08
-4.31065e-09
-1.26822e-09
8.7175e-08
-4.351e-09
-4.33621e-10
8.71886e-08
-4.3633e-09
3.9212e-10
8.7215e-08
-4.34737e-09
1.16615e-09
8.72488e-08
-4.30341e-09
1.85369e-09
8.7276e-08
-4.23325e-09
2.41853e-09
8.72722e-08
-4.13903e-09
2.83449e-09
8.72032e-08
-4.02434e-09
3.08447e-09
8.70224e-08
-3.89278e-09
3.1539e-09
8.66708e-08
-3.7491e-09
3.0414e-09
8.60729e-08
-3.59766e-09
2.76046e-09
8.51344e-08
-3.44341e-09
2.32943e-09
8.37355e-08
-3.29035e-09
1.7826e-09
8.17251e-08
-3.14231e-09
1.16738e-09
7.89094e-08
-3.00115e-09
5.46129e-10
7.50379e-08
-2.86758e-09
-5.17381e-12
6.97853e-08
-2.7395e-09
-3.97616e-10
6.27225e-08
-2.61342e-09
-5.09415e-10
5.32851e-08
-2.4824e-09
3.26574e-08
-2.19289e-09
3.60712e-10
3.42897e-08
-2.11118e-09
1.16913e-10
5.56447e-08
-2.36817e-09
-3.94908e-10
6.54364e-08
-2.48253e-09
-1.06491e-09
7.27517e-08
-2.59923e-09
-1.79619e-09
7.81774e-08
-2.72147e-09
-2.518e-09
8.2162e-08
-2.85105e-09
-3.16475e-09
8.50449e-08
-2.98877e-09
-3.69097e-09
8.70891e-08
-3.13402e-09
-4.06128e-09
8.84974e-08
-3.28427e-09
-4.25521e-09
8.94297e-08
-3.436e-09
-4.25908e-09
9.00117e-08
-3.58468e-09
-4.07616e-09
9.03439e-08
-3.72578e-09
-3.71193e-09
9.0506e-08
-3.85446e-09
-3.18818e-09
9.05613e-08
-3.96649e-09
-2.53162e-09
9.05586e-08
-4.05777e-09
-1.77194e-09
9.05351e-08
-4.12523e-09
-9.45988e-10
9.05161e-08
-4.16628e-09
-9.40402e-11
9.05169e-08
-4.1796e-09
7.4145e-10
9.05421e-08
-4.16451e-09
1.52645e-09
9.05867e-08
-4.12168e-09
2.21998e-09
9.0635e-08
-4.05245e-09
2.78956e-09
9.06614e-08
-3.95942e-09
3.21059e-09
9.06285e-08
-3.84566e-09
3.46058e-09
9.0487e-08
-3.71526e-09
3.53148e-09
9.01732e-08
-3.57247e-09
3.41962e-09
8.96071e-08
-3.42214e-09
3.13541e-09
8.86878e-08
-3.26877e-09
2.69757e-09
8.72895e-08
-3.11689e-09
2.141e-09
8.52517e-08
-2.97002e-09
1.511e-09
8.23712e-08
-2.83064e-09
8.63407e-10
7.83848e-08
-2.69937e-09
2.70406e-10
7.29526e-08
-2.57513e-09
-1.7736e-10
6.56256e-08
-2.4551e-09
-3.74067e-10
5.58161e-08
-2.33488e-09
3.43556e-08
-2.07165e-09
1.25066e-10
3.58437e-08
-1.67965e-09
-2.34455e-10
5.78604e-08
-1.85528e-09
-8.10897e-10
6.79486e-08
-1.93604e-09
-1.50094e-09
7.54722e-08
-2.03032e-09
-2.22331e-09
8.10363e-08
-2.13672e-09
-2.9117e-09
8.51043e-08
-2.25418e-09
-3.51284e-09
8.80279e-08
-2.38229e-09
-3.98401e-09
9.00801e-08
-2.51941e-09
-4.2958e-09
9.14722e-08
-2.66274e-09
-4.43082e-09
9.23712e-08
-2.80827e-09
-4.37468e-09
9.29092e-08
-2.95155e-09
-4.13597e-09
9.31917e-08
-3.08781e-09
-3.72059e-09
9.33032e-08
-3.21247e-09
-3.15034e-09
9.33108e-08
-3.32109e-09
-2.44801e-09
9.32668e-08
-3.40989e-09
-1.64874e-09
9.32106e-08
-3.47562e-09
-7.85195e-10
9.31697e-08
-3.51596e-09
1.01222e-10
9.316e-08
-3.52938e-09
9.71302e-10
9.31869e-08
-3.51544e-09
1.78696e-09
9.32451e-08
-3.47458e-09
2.51319e-09
9.3318e-08
-3.4083e-09
3.11398e-09
9.33778e-08
-3.31894e-09
3.5675e-09
9.33852e-08
-3.20972e-09
3.85253e-09
9.32876e-08
-3.08445e-09
3.95425e-09
9.30174e-08
-2.94752e-09
3.8753e-09
9.24903e-08
-2.80354e-09
3.61941e-09
9.16004e-08
-2.65725e-09
3.20653e-09
9.02153e-08
-2.51309e-09
2.66407e-09
8.8168e-08
-2.37504e-09
2.03649e-09
8.52468e-08
-2.2459e-09
1.36776e-09
8.11785e-08
-2.12729e-09
7.29667e-10
7.56115e-08
-2.0194e-09
1.96002e-10
6.80817e-08
-1.92257e-09
-1.35207e-10
5.79838e-08
-1.83738e-09
3.58776e-08
-1.65652e-09
-1.41946e-10
3.70935e-08
-1.10893e-09
-6.45867e-10
5.95384e-08
-1.17426e-09
-1.3044e-09
6.98167e-08
-1.20817e-09
-2.03155e-09
7.74696e-08
-1.27088e-09
-2.75421e-09
8.31135e-08
-1.35435e-09
-3.41779e-09
8.72217e-08
-1.4539e-09
-3.97703e-09
9.01541e-08
-1.5672e-09
-4.39513e-09
9.21908e-08
-1.69161e-09
-4.64882e-09
9.35496e-08
-1.82367e-09
-4.7231e-09
9.44029e-08
-1.95909e-09
-4.60734e-09
9.48879e-08
-2.09323e-09
-4.30958e-09
9.51146e-08
-2.22139e-09
-3.83763e-09
9.51714e-08
-2.33896e-09
-3.21401e-09
9.51287e-08
-2.44168e-09
-2.4628e-09
9.50419e-08
-2.52582e-09
-1.61695e-09
9.49526e-08
-2.58827e-09
-7.10381e-10
9.489e-08
-2.62673e-09
2.16651e-10
9.48711e-08
-2.63977e-09
1.1316e-09
9.49018e-08
-2.62692e-09
1.9884e-09
9.49761e-08
-2.58864e-09
2.75607e-09
9.50766e-08
-2.52635e-09
3.40217e-09
9.51743e-08
-2.44234e-09
3.90102e-09
9.52272e-08
-2.33968e-09
4.22729e-09
9.51799e-08
-2.22213e-09
4.38045e-09
9.49619e-08
-2.09393e-09
4.34355e-09
9.44845e-08
-1.95966e-09
4.13124e-09
9.36376e-08
-1.82402e-09
3.75406e-09
9.22841e-08
-1.69163e-09
3.23741e-09
9.02512e-08
-1.56675e-09
2.61604e-09
8.73211e-08
-1.45283e-09
1.93366e-09
8.32138e-08
-1.35248e-09
1.24417e-09
7.75691e-08
-1.26788e-09
6.13275e-10
6.99136e-08
-1.20314e-09
1.34003e-10
5.96311e-08
-1.16566e-09
3.71069e-08
-1.09586e-09
-3.80546e-10
3.80101e-08
-5.36564e-10
-1.01479e-09
6.06643e-08
-4.90043e-10
-1.75686e-09
7.10321e-08
-4.75871e-10
-2.51736e-09
7.87391e-08
-5.05784e-10
-3.24814e-09
8.44062e-08
-5.6499e-10
-3.89222e-09
8.8512e-08
-6.45168e-10
-4.41664e-09
9.14209e-08
-7.42049e-10
-4.79178e-09
9.34177e-08
-8.52058e-10
-4.99487e-09
9.47244e-08
-9.71086e-10
-5.01581e-09
9.55177e-08
-1.09462e-09
-4.84827e-09
9.59386e-08
-1.2179e-09
-4.49791e-09
9.61009e-08
-1.3363e-09
-3.97692e-09
9.60963e-08
-1.44529e-09
-3.307e-09
9.59987e-08
-1.54079e-09
-2.51172e-09
9.58656e-08
-1.61915e-09
-1.621e-09
9.57413e-08
-1.67743e-09
-6.74619e-10
9.5656e-08
-1.7134e-09
2.93385e-10
9.56283e-08
-1.72573e-09
1.24641e-09
9.5664e-08
-1.71392e-09
2.14259e-09
9.57571e-08
-1.67848e-09
2.9515e-09
9.58891e-08
-1.62068e-09
3.63888e-09
9.60295e-08
-1.54278e-09
4.1802e-09
9.61341e-08
-1.44767e-09
4.55515e-09
9.61452e-08
-1.33903e-09
4.74788e-09
9.59889e-08
-1.22089e-09
4.75632e-09
9.55734e-08
-1.09779e-09
4.58464e-09
9.47847e-08
-9.74325e-10
4.24235e-09
9.34819e-08
-8.55251e-10
3.75003e-09
9.14881e-08
-7.45049e-10
3.13718e-09
8.85815e-08
-6.47802e-10
2.44006e-09
8.44773e-08
-5.67066e-10
1.7053e-09
7.88109e-08
-5.06972e-10
9.9068e-10
7.1104e-08
-4.75399e-10
3.72701e-10
6.07355e-08
-4.8665e-10
3.80096e-08
-5.29443e-10
-5.51544e-10
3.86181e-08
-5.8343e-11
-1.27913e-09
6.13152e-08
7.82001e-11
-2.07394e-09
7.16957e-08
1.32063e-10
-2.86393e-09
7.93975e-08
1.30261e-10
-3.59335e-09
8.50431e-08
9.24474e-11
-4.22227e-09
8.91115e-08
3.0503e-11
-4.72097e-09
9.197e-08
-5.14069e-11
-5.06099e-09
9.39054e-08
-1.47814e-10
-5.22628e-09
9.51432e-08
-2.53993e-10
-5.20576e-09
9.58632e-08
-3.65349e-10
-4.99937e-09
9.62098e-08
-4.77176e-10
-4.61324e-09
9.62995e-08
-5.85245e-10
-4.0594e-09
9.62275e-08
-6.85226e-10
-3.35742e-09
9.607e-08
-7.73031e-10
-2.53365e-09
9.58875e-08
-8.45277e-10
-1.61956e-09
9.57257e-08
-8.99055e-10
-6.4784e-10
9.56171e-08
-9.32341e-10
3.43322e-10
9.55804e-08
-9.43768e-10
1.31964e-09
9.56222e-08
-9.32972e-10
2.23871e-09
9.5736e-08
-9.00312e-10
3.07354e-09
9.59028e-08
-8.47132e-10
3.78825e-09
9.60901e-08
-7.75453e-10
4.35907e-09
9.62522e-08
-6.88167e-10
4.76412e-09
9.63286e-08
-5.88652e-10
4.99071e-09
9.62429e-08
-4.80879e-10
5.03342e-09