/*--------------------------------*- C++ -*----------------------------------*\
| =========                 |                                                 |
| \\      /  F ield         | OpenFOAM: The Open Source CFD Toolbox           |
|  \\    /   O peration     | Version:  v1906                                 |
|   \\  /    A nd           | Web:      www.OpenFOAM.com                      |
|    \\/     M anipulation  |                                                 |
\*---------------------------------------------------------------------------*/
FoamFile
{
    version     2.0;
    format      ascii;
    class       volVectorField;
    location    "44/oil";
    object      U;
}
// * * * * * * * * * * * * * * * * * * * * * * * * * * * * * * * * * * * * * //

dimensions      [0 1 -1 0 0 0 0];


internalField   nonuniform List<vector> 
27760
(
(-2.63236e-05 -2.6845e-05 -2.63236e-05)
(-5.19731e-05 -2.01412e-05 -1.89554e-05)
(-3.82524e-06 -5.23009e-06 -5.17126e-06)
(-6.27126e-06 -8.61929e-07 -9.25078e-07)
(-1.42929e-06 -2.84513e-07 -3.56773e-07)
(-7.04687e-07 -1.27775e-07 -2.035e-07)
(-5.41459e-08 -3.38782e-08 -1.14329e-07)
(2.5375e-07 5.05524e-09 -8.00301e-08)
(4.23663e-07 2.62905e-08 -6.24306e-08)
(4.96509e-07 3.88684e-08 -5.23802e-08)
(4.99886e-07 4.75961e-08 -4.51061e-08)
(4.47513e-07 5.38341e-08 -3.95328e-08)
(3.50124e-07 5.83951e-08 -3.51881e-08)
(2.18849e-07 6.14947e-08 -3.20994e-08)
(6.59662e-08 6.31311e-08 -3.04278e-08)
(-9.52069e-08 6.32951e-08 -3.02657e-08)
(-2.51149e-07 6.20336e-08 -3.1566e-08)
(-3.89229e-07 5.94721e-08 -3.41171e-08)
(-4.98875e-07 5.58157e-08 -3.7549e-08)
(-5.72351e-07 5.13284e-08 -4.13674e-08)
(-6.05489e-07 4.60993e-08 -4.51064e-08)
(-5.98068e-07 4.03554e-08 -4.81821e-08)
(-5.5306e-07 3.45104e-08 -4.97841e-08)
(-4.76615e-07 2.8581e-08 -4.95639e-08)
(-3.77953e-07 2.2703e-08 -4.70576e-08)
(-2.68504e-07 1.71176e-08 -4.19353e-08)
(-1.61546e-07 1.23264e-08 -3.42156e-08)
(-7.15786e-08 9.27394e-09 -2.45405e-08)
(-1.20113e-08 9.30461e-09 -1.48155e-08)
(5.56505e-09 1.08586e-08 -5.47058e-09)
(-1.9102e-05 -5.3402e-05 -1.91019e-05)
(-6.28896e-06 -6.89652e-06 -8.55434e-06)
(-8.53548e-06 -8.33196e-06 -2.98904e-06)
(-4.00541e-06 -2.35916e-06 -8.53613e-07)
(-1.63869e-06 -1.4004e-06 -4.2214e-07)
(-5.39257e-07 -7.26349e-07 -2.05402e-07)
(2.33094e-07 -4.35844e-07 -9.94779e-08)
(6.80932e-07 -2.78355e-07 -4.82849e-08)
(9.40971e-07 -1.85709e-07 -1.83226e-08)
(1.05163e-06 -1.22922e-07 1.61781e-09)
(1.03978e-06 -7.57366e-08 1.69363e-08)
(9.22888e-07 -3.88252e-08 2.94142e-08)
(7.18601e-07 -1.04714e-08 3.93004e-08)
(4.47232e-07 9.29747e-09 4.63017e-08)
(1.3271e-07 1.99806e-08 5.00618e-08)
(-1.98424e-07 2.13085e-08 5.03758e-08)
(-5.19004e-07 1.35717e-08 4.73229e-08)
(-8.03601e-07 -2.26219e-09 4.13068e-08)
(-1.03086e-06 -2.46039e-08 3.30195e-08)
(-1.18542e-06 -5.14075e-08 2.33645e-08)
(-1.25897e-06 -8.05187e-08 1.34393e-08)
(-1.25052e-06 -1.09663e-07 4.28052e-09)
(-1.16635e-06 -1.3643e-07 -3.20186e-09)
(-1.01919e-06 -1.58755e-07 -8.23272e-09)
(-8.27068e-07 -1.74257e-07 -1.02339e-08)
(-6.12134e-07 -1.80005e-07 -8.98235e-09)
(-3.9912e-07 -1.72014e-07 -4.83448e-09)
(-2.13107e-07 -1.45133e-07 9.12899e-10)
(-7.62555e-08 -9.3791e-08 5.33043e-09)
(-4.711e-09 -2.36577e-08 4.85265e-09)
(-5.28865e-06 -4.96843e-06 -5.28859e-06)
(-8.36088e-06 -9.2856e-06 -3.06163e-06)
(-4.43006e-06 -5.1388e-06 -1.35062e-06)
(-2.69092e-06 -2.86271e-06 -6.36373e-07)
(-1.09208e-06 -1.91789e-06 -2.96454e-07)
(-1.14376e-07 -1.32982e-06 -1.29467e-07)
(5.95872e-07 -1.01949e-06 -4.21677e-08)
(1.05232e-06 -8.26655e-07 5.68218e-09)
(1.32477e-06 -6.95267e-07 3.67633e-08)
(1.43426e-06 -5.94896e-07 5.96919e-08)
(1.39855e-06 -5.13009e-07 7.84765e-08)
(1.2328e-06 -4.45243e-07 9.42382e-08)
(9.56148e-07 -3.91519e-07 1.06905e-07)
(5.93411e-07 -3.53386e-07 1.15932e-07)
(1.75006e-07 -3.32522e-07 1.20778e-07)
(-2.64771e-07 -3.29764e-07 1.21141e-07)
(-6.90565e-07 -3.44602e-07 1.171e-07)
(-1.06922e-06 -3.7501e-07 1.09148e-07)
(-1.37288e-06 -4.17587e-07 9.81449e-08)
(-1.58151e-06 -4.67933e-07 8.52132e-08)
(-1.68435e-06 -5.2103e-07 7.16e-08)
(-1.68035e-06 -5.71721e-07 5.85299e-08)
(-1.57769e-06 -6.14869e-07 4.70676e-08)
(-1.39272e-06 -6.45231e-07 3.80572e-08)
(-1.14822e-06 -6.57083e-07 3.20083e-08)
(-8.71619e-07 -6.43667e-07 2.89842e-08)
(-5.92726e-07 -5.96422e-07 2.83932e-08)
(-3.40401e-07 -5.04688e-07 2.85516e-08)
(-1.41092e-07 -3.55617e-07 2.61196e-08)
(-1.45509e-08 -1.41941e-07 1.47316e-08)
(-9.58477e-07 -7.15164e-06 -9.58407e-07)
(-2.24285e-06 -5.31814e-06 -8.70324e-07)
(-1.94186e-06 -4.3011e-06 -6.30176e-07)
(-1.20842e-06 -3.12173e-06 -3.28678e-07)
(-2.93349e-07 -2.4789e-06 -1.50999e-07)
(4.22196e-07 -2.04675e-06 -4.93571e-08)
(9.98169e-07 -1.77885e-06 1.19058e-08)
(1.40309e-06 -1.58769e-06 5.09753e-08)
(1.64944e-06 -1.43867e-06 7.98173e-08)
(1.73724e-06 -1.31213e-06 1.03398e-07)
(1.67205e-06 -1.2011e-06 1.23913e-07)
(1.46407e-06 -1.10502e-06 1.41665e-07)
(1.13149e-06 -1.02677e-06 1.56144e-07)
(7.01005e-07 -9.70352e-07 1.66536e-07)
(2.0691e-07 -9.39211e-07 1.72112e-07)
(-3.11403e-07 -9.35073e-07 1.7248e-07)
(-8.13027e-07 -9.57276e-07 1.67708e-07)
(-1.25949e-06 -1.0026e-06 1.58351e-07)
(-1.61851e-06 -1.06551e-06 1.45394e-07)
(-1.86699e-06 -1.13879e-06 1.30112e-07)
(-1.99263e-06 -1.21425e-06 1.13888e-07)
(-1.99441e-06 -1.28331e-06 9.8061e-08)
(-1.88184e-06 -1.3373e-06 8.37772e-08)
(-1.67345e-06 -1.36742e-06 7.18983e-08)
(-1.39477e-06 -1.36412e-06 6.28878e-08)
(-1.07589e-06 -1.3164e-06 5.67242e-08)
(-7.4911e-07 -1.21062e-06 5.27179e-08)
(-4.45143e-07 -1.02927e-06 4.89581e-08)
(-1.94383e-07 -7.47692e-07 4.18033e-08)
(-2.22382e-08 -3.28754e-07 2.24665e-08)
(-3.20461e-07 -2.45293e-06 -3.20373e-07)
(-1.10344e-06 -3.57995e-06 -3.89708e-07)
(-8.22075e-07 -3.65556e-06 -2.73907e-07)
(-3.34243e-07 -3.32017e-06 -1.42011e-07)
(2.96114e-07 -3.05979e-06 -4.96333e-08)
(8.63375e-07 -2.83343e-06 1.11263e-08)
(1.34746e-06 -2.65549e-06 5.33028e-08)
(1.70482e-06 -2.49936e-06 8.46877e-08)
(1.92129e-06 -2.35488e-06 1.11069e-07)
(1.98435e-06 -2.21671e-06 1.34764e-07)
(1.89095e-06 -2.086e-06 1.56518e-07)
(1.64708e-06 -1.9677e-06 1.75908e-07)
(1.26957e-06 -1.86879e-06 1.91966e-07)
(7.86025e-07 -1.79642e-06 2.0358e-07)
(2.33346e-07 -1.75622e-06 2.0981e-07)
(-3.45346e-07 -1.751e-06 2.10158e-07)
(-9.04983e-07 -1.78005e-06 2.04678e-07)
(-1.40309e-06 -1.83899e-06 1.93987e-07)
(-1.80411e-06 -1.9201e-06 1.79221e-07)
(-2.08276e-06 -2.01324e-06 1.61806e-07)
(-2.22583e-06 -2.10686e-06 1.43294e-07)
(-2.2325e-06 -2.18885e-06 1.25148e-07)
(-2.1133e-06 -2.24695e-06 1.08589e-07)
(-1.88831e-06 -2.26866e-06 9.44998e-08)
(-1.58472e-06 -2.24062e-06 8.33316e-08)
(-1.23422e-06 -2.1474e-06 7.50133e-08)
(-8.70535e-07 -1.96971e-06 6.88027e-08)
(-5.25875e-07 -1.68143e-06 6.26252e-08)
(-2.34486e-07 -1.24121e-06 5.25551e-08)
(-2.76618e-08 -5.68711e-07 2.79416e-08)
(-1.3858e-07 -2.00224e-06 -1.38475e-07)
(-3.44231e-07 -3.2155e-06 -1.49637e-07)
(-1.30711e-07 -3.69648e-06 -9.70452e-08)
(2.45294e-07 -3.79456e-06 -3.612e-08)
(7.33479e-07 -3.79432e-06 1.36078e-08)
(1.21076e-06 -3.73247e-06 5.12609e-08)
(1.63264e-06 -3.64407e-06 8.18237e-08)
(1.95231e-06 -3.53311e-06 1.084e-07)
(2.14257e-06 -3.40549e-06 1.33468e-07)
(2.18337e-06 -3.26702e-06 1.57739e-07)
(2.06587e-06 -3.12616e-06 1.80986e-07)
(1.79277e-06 -2.99323e-06 2.02209e-07)
(1.37956e-06 -2.87937e-06 2.2002e-07)
(8.54293e-07 -2.79491e-06 2.32989e-07)
(2.55833e-07 -2.74773e-06 2.39943e-07)
(-3.69813e-07 -2.74181e-06 2.40263e-07)
(-9.74271e-07 -2.77646e-06 2.33986e-07)
(-1.51189e-06 -2.84624e-06 2.21817e-07)
(-1.94459e-06 -2.94139e-06 2.05065e-07)
(-2.24552e-06 -3.04903e-06 1.85368e-07)
(-2.40101e-06 -3.15451e-06 1.64488e-07)
(-2.41061e-06 -3.24235e-06 1.44039e-07)
(-2.28582e-06 -3.29691e-06 1.25333e-07)
(-2.04799e-06 -3.30225e-06 1.09306e-07)
(-1.72547e-06 -3.24124e-06 9.6408e-08)
(-1.35098e-06 -3.0939e-06 8.65378e-08)
(-9.59324e-07 -2.83468e-06 7.89063e-08)
(-5.84008e-07 -2.42694e-06 7.13022e-08)
(-2.62595e-07 -1.80854e-06 5.95285e-08)
(-3.12627e-08 -8.46645e-07 3.15939e-08)
(-3.70668e-08 -1.70957e-06 -3.69452e-08)
(-2.17769e-08 -3.22614e-06 -3.42339e-08)
(2.23429e-07 -4.03048e-06 -7.62273e-09)
(5.83369e-07 -4.43243e-06 2.29967e-08)
(1.01935e-06 -4.63918e-06 5.15597e-08)
(1.45378e-06 -4.71905e-06 7.68585e-08)
(1.84081e-06 -4.71871e-06 1.00966e-07)
(2.136e-06 -4.65995e-06 1.2501e-07)
(2.3075e-06 -4.5598e-06 1.49818e-07)
(2.33166e-06 -4.4324e-06 1.75191e-07)
(2.19622e-06 -4.29217e-06 2.0026e-07)
(1.90157e-06 -4.15409e-06 2.23576e-07)
(1.46212e-06 -4.03286e-06 2.43357e-07)
(9.06157e-07 -3.9417e-06 2.57838e-07)
(2.74009e-07 -3.89051e-06 2.65591e-07)
(-3.86047e-07 -3.88428e-06 2.6588e-07)
(-1.0231e-06 -3.92243e-06 2.58729e-07)
(-1.589e-06 -3.99866e-06 2.44927e-07)
(-2.04375e-06 -4.10156e-06 2.25992e-07)
(-2.35949e-06 -4.21593e-06 2.03824e-07)
(-2.52244e-06 -4.3245e-06 1.80423e-07)
(-2.53275e-06 -4.40899e-06 1.57586e-07)
(-2.40294e-06 -4.45092e-06 1.36756e-07)
(-2.15536e-06 -4.43127e-06 1.18909e-07)
(-1.81927e-06 -4.32932e-06 1.0451e-07)
(-1.42809e-06 -4.12049e-06 9.34256e-08)
(-1.01731e-06 -3.77228e-06 8.48229e-08)
(-6.21405e-07 -3.23606e-06 7.63794e-08)
(-2.80266e-07 -2.42568e-06 6.36594e-08)
(-3.34317e-08 -1.14981e-06 3.38125e-08)
(1.7041e-09 -1.77485e-06 1.83991e-09)
(1.34687e-07 -3.55526e-06 1.72268e-08)
(4.13014e-07 -4.59562e-06 3.5263e-08)
(7.77812e-07 -5.21097e-06 5.36967e-08)
(1.19341e-06 -5.57795e-06 7.25063e-08)
(1.60565e-06 -5.77646e-06 9.1835e-08)
(1.97179e-06 -5.85873e-06 1.12838e-07)
(2.25068e-06 -5.8561e-06 1.35956e-07)
(2.40929e-06 -5.79232e-06 1.61258e-07)
(2.42243e-06 -5.68709e-06 1.88086e-07)
(2.27586e-06 -5.55907e-06 2.15162e-07)
(1.96831e-06 -5.42654e-06 2.40666e-07)
(1.51321e-06 -5.30696e-06 2.62473e-07)
(9.38861e-07 -5.21567e-06 2.7851e-07)
(2.86494e-07 -5.16406e-06 2.87081e-07)
(-3.94076e-07 -5.1579e-06 2.87338e-07)
(-1.05026e-06 -5.19669e-06 2.79291e-07)
(-1.63225e-06 -5.27362e-06 2.63825e-07)
(-2.09876e-06 -5.3761e-06 2.42684e-07)
(-2.42149e-06 -5.48737e-06 2.18031e-07)
(-2.58692e-06 -5.58829e-06 1.92113e-07)
(-2.59597e-06 -5.65856e-06 1.66943e-07)
(-2.46214e-06 -5.67747e-06 1.44099e-07)
(-2.20853e-06 -5.62344e-06 1.24592e-07)
(-1.86504e-06 -5.47259e-06 1.08895e-07)
(-1.46532e-06 -5.19562e-06 9.68352e-08)
(-1.04508e-06 -4.75259e-06 8.75525e-08)
(-6.3914e-07 -4.08185e-06 7.86364e-08)
(-2.88502e-07 -3.07121e-06 6.54972e-08)
(-3.44087e-08 -1.46721e-06 3.48354e-08)
(1.8941e-08 -1.96187e-06 1.90894e-08)
(2.05499e-07 -4.02359e-06 4.10242e-08)
(5.04162e-07 -5.27502e-06 5.55703e-08)
(8.7297e-07 -6.06552e-06 6.8681e-08)
(1.27689e-06 -6.56846e-06 8.28973e-08)
(1.67358e-06 -6.87264e-06 9.93468e-08)
(2.02391e-06 -7.03503e-06 1.1892e-07)
(2.28998e-06 -7.09291e-06 1.41841e-07)
(2.43925e-06 -7.07429e-06 1.67851e-07)
(2.44615e-06 -7.0023e-06 1.96042e-07)
(2.2954e-06 -6.89832e-06 2.24892e-07)
(1.98454e-06 -6.78271e-06 2.52316e-07)
(1.52607e-06 -6.67446e-06 2.75902e-07)
(9.47859e-07 -6.5901e-06 2.93296e-07)
(2.91346e-07 -6.54191e-06 3.02557e-07)
(-3.93169e-07 -6.53608e-06 3.02783e-07)
(-1.05253e-06 -6.57222e-06 2.93978e-07)
(-1.6363e-06 -6.64332e-06 2.7706e-07)
(-2.10285e-06 -6.73632e-06 2.53986e-07)
(-2.42405e-06 -6.83361e-06 2.27177e-07)
(-2.58689e-06 -6.91508e-06 1.99123e-07)
(-2.59321e-06 -6.95936e-06 1.72003e-07)
(-2.45728e-06 -6.94434e-06 1.47491e-07)
(-2.20269e-06 -6.84649e-06 1.26652e-07)
(-1.85941e-06 -6.6391e-06 1.09949e-07)
(-1.46075e-06 -6.2883e-06 9.71928e-08)
(-1.04193e-06 -5.74656e-06 8.74818e-08)
(-6.37317e-07 -4.93846e-06 7.83744e-08)
(-2.87681e-07 -3.7248e-06 6.52589e-08)
(-3.4298e-08 -1.78867e-06 3.47663e-08)
(2.55379e-08 -2.20683e-06 2.56971e-08)
(2.31815e-07 -4.55648e-06 5.02673e-08)
(5.34197e-07 -6.00441e-06 6.32141e-08)
(8.9666e-07 -6.94786e-06 7.39222e-08)
(1.28484e-06 -7.57122e-06 8.59209e-08)
(1.66307e-06 -7.97261e-06 1.00896e-07)
(1.99574e-06 -8.21378e-06 1.19695e-07)
(2.24798e-06 -8.33613e-06 1.42476e-07)
(2.38871e-06 -8.3705e-06 1.6889e-07)
(2.39289e-06 -8.34203e-06 1.97907e-07)
(2.2448e-06 -8.27325e-06 2.27865e-07)
(1.9411e-06 -8.18521e-06 2.56517e-07)
(1.49328e-06 -8.09744e-06 2.81235e-07)
(9.28196e-07 -8.02677e-06 2.99482e-07)
(2.86511e-07 -7.98566e-06 3.09164e-07)
(-3.82231e-07 -7.98038e-06 3.09357e-07)
(-1.02591e-06 -8.01064e-06 3.0006e-07)
(-1.5948e-06 -8.06953e-06 2.82193e-07)
(-2.04795e-06 -8.14402e-06 2.5787e-07)
(-2.35808e-06 -8.21667e-06 2.29669e-07)
(-2.51319e-06 -8.26729e-06 2.00237e-07)
(-2.51591e-06 -8.27433e-06 1.71904e-07)
(-2.38095e-06 -8.21513e-06 1.46405e-07)
(-2.1319e-06 -8.06496e-06 1.24821e-07)
(-1.79801e-06 -7.79463e-06 1.07589e-07)
(-1.41158e-06 -7.36603e-06 9.45002e-08)
(-1.00639e-06 -6.72401e-06 8.46616e-08)
(-6.15355e-07 -5.77941e-06 7.56623e-08)
(-2.7768e-07 -4.36608e-06 6.2978e-08)
(-3.31076e-08 -2.10415e-06 3.3614e-08)
(2.69553e-08 -2.46644e-06 2.71184e-08)
(2.31491e-07 -5.09817e-06 5.16534e-08)
(5.21257e-07 -6.72991e-06 6.33806e-08)
(8.63524e-07 -7.81115e-06 7.26868e-08)
(1.2258e-06 -8.54381e-06 8.33476e-08)
(1.57721e-06 -9.03603e-06 9.72393e-08)
(1.88574e-06 -9.35472e-06 1.15189e-07)
(2.11983e-06 -9.54443e-06 1.3737e-07)
(2.25064e-06 -9.6378e-06 1.6339e-07)
(2.25433e-06 -9.6608e-06 1.92208e-07)
(2.11543e-06 -9.63598e-06 2.22118e-07)
(1.83001e-06 -9.58411e-06 2.50817e-07)
(1.40834e-06 -9.52428e-06 2.75617e-07)
(8.75543e-07 -9.47275e-06 2.93916e-07)
(2.70278e-07 -9.44158e-06 3.03562e-07)
(-3.60306e-07 -9.43695e-06 3.03723e-07)
(-9.66816e-07 -9.45861e-06 2.94394e-07)
(-1.50191e-06 -9.50006e-06 2.76397e-07)
(-1.92665e-06 -9.54874e-06 2.5188e-07)
(-2.2155e-06 -9.588e-06 2.23472e-07)
(-2.35766e-06 -9.59844e-06 1.9391e-07)
(-2.35643e-06 -9.55907e-06 1.6553e-07)
(-2.22654e-06 -9.44757e-06 1.40058e-07)
(-1.99078e-06 -9.23868e-06 1.18569e-07)
(-1.67692e-06 -8.90136e-06 1.01483e-07)
(-1.31516e-06 -8.39361e-06 8.85794e-08)
(-9.36893e-07 -7.65309e-06 7.89754e-08)
(-5.72533e-07 -6.57726e-06 7.04027e-08)
(-2.58267e-07 -4.97406e-06 5.85989e-08)
(-3.08052e-08 -2.4034e-06 3.13468e-08)
(2.53465e-08 -2.71569e-06 2.55176e-08)
(2.13003e-07 -5.60959e-06 4.81132e-08)
(4.74991e-07 -7.40838e-06 5.84719e-08)
(7.8228e-07 -8.61269e-06 6.65908e-08)
(1.10575e-06 -9.44391e-06 7.60528e-08)
(1.419e-06 -1.00203e-05 8.87246e-08)
(1.6942e-06 -1.04136e-05 1.05369e-07)
(1.9037e-06 -1.06712e-05 1.26163e-07)
(2.02159e-06 -1.08266e-05 1.50727e-07)
(2.02614e-06 -1.09057e-05 1.78074e-07)
(1.90273e-06 -1.09304e-05 2.06556e-07)
(1.64707e-06 -1.09201e-05 2.33934e-07)
(1.26788e-06 -1.0893e-05 2.57594e-07)
(7.877e-07 -1.0864e-05 2.7504e-07)
(2.41748e-07 -1.08445e-05 2.84167e-07)
(-3.26925e-07 -1.08406e-05 2.8429e-07)
(-8.73479e-07 -1.0852e-05 2.75393e-07)
(-1.35473e-06 -1.08726e-05 2.58158e-07)
(-1.73514e-06 -1.08906e-05 2.34695e-07)
(-1.99182e-06 -1.08906e-05 2.07504e-07)
(-2.11567e-06 -1.08546e-05 1.79245e-07)
(-2.11049e-06 -1.07632e-05 1.52168e-07)
(-1.99042e-06 -1.05947e-05 1.27935e-07)
(-1.77654e-06 -1.0324e-05 1.0755e-07)
(-1.49413e-06 -9.91888e-06 9.13942e-08)
(-1.17027e-06 -9.334e-06 7.92603e-08)
(-8.32795e-07 -8.50044e-06 7.03317e-08)
(-5.08521e-07 -7.30351e-06 6.25547e-08)
(-2.29297e-07 -5.52715e-06 5.20814e-08)
(-2.7363e-08 -2.67582e-06 2.79352e-08)
(2.17514e-08 -2.93657e-06 2.19175e-08)
(1.80726e-07 -6.05928e-06 4.10827e-08)
(4.01158e-07 -8.00244e-06 4.97052e-08)
(6.58987e-07 -9.31273e-06 5.65188e-08)
(9.29988e-07 -1.023e-05 6.46112e-08)
(1.19269e-06 -1.08818e-05 7.56359e-08)
(1.42421e-06 -1.13442e-05 9.02762e-08)
(1.60155e-06 -1.16668e-05 1.08691e-07)
(1.70272e-06 -1.18835e-05 1.30543e-07)
(1.70889e-06 -1.20195e-05 1.54951e-07)
(1.60689e-06 -1.20951e-05 1.80436e-07)
(1.39227e-06 -1.21283e-05 2.04991e-07)
(1.07187e-06 -1.21352e-05 2.26188e-07)
(6.64639e-07 -1.21297e-05 2.41789e-07)
(2.00834e-07 -1.21224e-05 2.49887e-07)
(-2.82309e-07 -1.21191e-05 2.49958e-07)
(-7.46142e-07 -1.21198e-05 2.41999e-07)
(-1.15333e-06 -1.21184e-05 2.2652e-07)
(-1.47338e-06 -1.2104e-05 2.0543e-07)
(-1.6871e-06 -1.20627e-05 1.8099e-07)
(-1.78742e-06 -1.19782e-05 1.55631e-07)
(-1.7785e-06 -1.1833e-05 1.31381e-07)
(-1.67318e-06 -1.1607e-05 1.09746e-07)
(-1.48994e-06 -1.12755e-05 9.15874e-08)
(-1.25051e-06 -1.08056e-05 7.72501e-08)
(-9.77714e-07 -1.01494e-05 6.65378e-08)
(-6.94761e-07 -9.23257e-06 5.8746e-08)
(-4.23778e-07 -7.92967e-06 5.21264e-08)
(-1.90977e-07 -6.00375e-06 4.34394e-08)
(-2.28041e-08 -2.91085e-06 2.34061e-08)
(1.66709e-08 -3.11526e-06 1.68409e-08)
(1.37392e-07 -6.42129e-06 3.14011e-08)
(3.0423e-07 -8.47971e-06 3.79012e-08)
(4.99424e-07 -9.87513e-06 4.31525e-08)
(7.04956e-07 -1.08631e-05 4.95709e-08)
(9.05099e-07 -1.15786e-05 5.84682e-08)
(1.08273e-06 -1.21017e-05 7.03734e-08)
(1.22036e-06 -1.24831e-05 8.54611e-08)
(1.3009e-06 -1.27569e-05 1.03495e-07)
(1.30916e-06 -1.29468e-05 1.23776e-07)
(1.23415e-06 -1.30717e-05 1.45081e-07)
(1.07128e-06 -1.31472e-05 1.65733e-07)
(8.2498e-07 -1.31874e-05 1.83644e-07)
(5.09503e-07 -1.32049e-05 1.96916e-07)
(1.48664e-07 -1.32094e-05 2.03817e-07)
(-2.27572e-07 -1.32067e-05 2.03833e-07)
(-5.87919e-07 -1.31967e-05 1.96964e-07)
(-9.02364e-07 -1.31736e-05 1.8372e-07)
(-1.14699e-06 -1.31273e-05 1.65833e-07)
(-1.30745e-06 -1.30453e-05 1.45233e-07)
(-1.37916e-06 -1.29137e-05 1.24022e-07)
(-1.36656e-06 -1.27168e-05 1.03852e-07)
(-1.28058e-06 -1.24364e-05 8.59595e-08)
(-1.13625e-06 -1.2049e-05 7.1038e-08)
(-9.50587e-07 -1.15214e-05 5.93258e-08)
(-7.41166e-07 -1.08039e-05 5.06408e-08)
(-5.25465e-07 -9.8176e-06 4.44343e-08)
(-3.19928e-07 -8.42877e-06 3.93392e-08)
(-1.44015e-07 -6.38344e-06 3.28431e-08)
(-1.71977e-08 -3.0984e-06 1.78227e-08)
(1.04623e-08 -3.24059e-06 1.06241e-08)
(8.53016e-08 -6.67401e-06 1.96347e-08)
(1.88574e-07 -8.81267e-06 2.36403e-08)
(3.09921e-07 -1.02687e-05 2.70573e-08)
(4.38707e-07 -1.13087e-05 3.14493e-08)
(5.65606e-07 -1.20736e-05 3.76883e-08)
(6.80106e-07 -1.26456e-05 4.61758e-08)
(7.7109e-07 -1.30764e-05 5.70607e-08)
(8.27194e-07 -1.33996e-05 7.02001e-08)
(8.37709e-07 -1.36376e-05 8.51609e-08)
(7.9422e-07 -1.38073e-05 1.01083e-07)
(6.92208e-07 -1.39221e-05 1.16777e-07)
(5.33296e-07 -1.39939e-05 1.30628e-07)
(3.26118e-07 -1.40334e-05 1.41102e-07)
(8.65734e-08 -1.40493e-05 1.46634e-07)
(-1.63934e-07 -1.40471e-05 1.46584e-07)
(-4.02519e-07 -1.40266e-05 1.40971e-07)
(-6.07813e-07 -1.39823e-05 1.30432e-07)
(-7.6389e-07 -1.39055e-05 1.16553e-07)
(-8.62166e-07 -1.37856e-05 1.00861e-07)
(-9.01079e-07 -1.36107e-05 8.49747e-08)
(-8.85159e-07 -1.33675e-05 7.00974e-08)
(-8.22784e-07 -1.30397e-05 5.70768e-08)
(-7.24688e-07 -1.26049e-05 4.63371e-08)
(-6.02286e-07 -1.20303e-05 3.80099e-08)
(-4.66878e-07 -1.12649e-05 3.19364e-08)
(-3.29362e-07 -1.02269e-05 2.77101e-08)
(-1.99723e-07 -8.77662e-06 2.4452e-08)
(-8.96332e-08 -6.64789e-06 2.05324e-08)
(-1.06756e-08 -3.22939e-06 1.13208e-08)
(3.43707e-09 -3.30406e-06 3.58958e-09)
(2.67656e-08 -6.80065e-06 6.35993e-09)
(5.9008e-08 -8.9797e-06 7.58974e-09)
(9.80295e-08 -1.04682e-05 8.92923e-09)
(1.41391e-07 -1.1539e-05 1.10038e-08)
(1.86689e-07 -1.23358e-05 1.41791e-08)
(2.30687e-07 -1.29421e-05 1.86645e-08)
(2.69256e-07 -1.341e-05 2.45957e-08)
(2.97407e-07 -1.3772e-05 3.20016e-08)
(3.09657e-07 -1.40498e-05 4.07756e-08)
(3.00746e-07 -1.4258e-05 5.05175e-08)
(2.66504e-07 -1.44079e-05 6.05685e-08)
(2.05396e-07 -1.45089e-05 6.98546e-08)
(1.1971e-07 -1.45696e-05 7.72449e-08)
(1.64068e-08 -1.45967e-05 8.1332e-08)
(-9.28813e-08 -1.45947e-05 8.12319e-08)
(-1.94822e-07 -1.45635e-05 7.69817e-08)
(-2.77894e-07 -1.44988e-05 6.94349e-08)
(-3.35241e-07 -1.43935e-05 6.00547e-08)
(-3.64775e-07 -1.42395e-05 4.99721e-08)
(-3.68109e-07 -1.40273e-05 4.02601e-08)
(-3.496e-07 -1.37458e-05 3.15556e-08)
(-3.14607e-07 -1.33804e-05 2.42474e-08)
(-2.68723e-07 -1.29101e-05 1.84432e-08)
(-2.17046e-07 -1.23024e-05 1.41033e-08)
(-1.63932e-07 -1.15059e-05 1.10842e-08)
(-1.12972e-07 -1.04374e-05 9.17581e-09)
(-6.71274e-08 -8.95373e-06 8.00063e-09)
(-2.96179e-08 -6.78232e-06 6.92169e-09)
(-3.45554e-09 -3.2965e-06 4.11635e-09)
(-4.10087e-09 -3.29982e-06 -3.96185e-09)
(-3.5674e-08 -6.78974e-06 -7.8611e-09)
(-7.89592e-08 -8.96587e-06 -9.60827e-09)
(-1.27437e-07 -1.04562e-05 -1.05195e-08)
(-1.7496e-07 -1.15339e-05 -1.10206e-08)
(-2.1671e-07 -1.23428e-05 -1.13037e-08)
(-2.48366e-07 -1.29661e-05 -1.13585e-08)
(-2.66673e-07 -1.34553e-05 -1.10921e-08)
(-2.69685e-07 -1.38425e-05 -1.03479e-08)
(-2.57172e-07 -1.4148e-05 -8.94756e-09)
(-2.30724e-07 -1.43851e-05 -6.7734e-09)
(-1.93684e-07 -1.45631e-05 -3.81681e-09)
(-1.50366e-07 -1.4689e-05 -4.56132e-10)
(-1.04987e-07 -1.47685e-05 2.71861e-09)
(-6.02454e-08 -1.48058e-05 4.7177e-09)
(-1.57145e-08 -1.48039e-05 4.56555e-09)
(3.06806e-08 -1.47629e-05 2.32937e-09)
(7.9237e-08 -1.46797e-05 -1.06287e-09)
(1.27066e-07 -1.45501e-05 -4.54797e-09)
(1.69625e-07 -1.43687e-05 -7.57184e-09)
(2.0239e-07 -1.41284e-05 -9.7344e-09)
(2.2174e-07 -1.38202e-05 -1.10812e-08)
(2.25936e-07 -1.34308e-05 -1.17207e-08)
(2.15047e-07 -1.29401e-05 -1.18588e-08)
(1.90841e-07 -1.23163e-05 -1.16659e-08)
(1.56359e-07 -1.15083e-05 -1.12292e-08)
(1.15598e-07 -1.04329e-05 -1.05581e-08)
(7.29009e-08 -8.94664e-06 -9.46309e-09)
(3.38094e-08 -6.77652e-06 -7.51504e-09)
(4.20718e-09 -3.29459e-06 -3.53527e-09)
(-1.18042e-08 -3.22499e-06 -1.16704e-08)
(-9.91935e-08 -6.6357e-06 -2.2367e-08)
(-2.19127e-07 -8.76394e-06 -2.71487e-08)
(-3.56373e-07 -1.02241e-05 -3.03832e-08)
(-4.96262e-07 -1.12835e-05 -3.35819e-08)
(-6.26741e-07 -1.20825e-05 -3.7517e-08)
(-7.35992e-07 -1.27027e-05 -4.24516e-08)
(-8.13347e-07 -1.31944e-05 -4.83464e-08)
(-8.4979e-07 -1.35886e-05 -5.49553e-08)
(-8.39083e-07 -1.39051e-05 -6.18232e-08)
(-7.78574e-07 -1.41561e-05 -6.83516e-08)
(-6.70154e-07 -1.43493e-05 -7.38837e-08)
(-5.20389e-07 -1.44901e-05 -7.79536e-08)
(-3.3958e-07 -1.45817e-05 -8.03423e-08)
(-1.40461e-07 -1.4626e-05 -8.12729e-08)
(6.49982e-08 -1.46242e-05 -8.14415e-08)
(2.65998e-07 -1.45763e-05 -8.07914e-08)
(4.50369e-07 -1.44812e-05 -7.86562e-08)
(6.05147e-07 -1.43372e-05 -7.47524e-08)
(7.19611e-07 -1.4141e-05 -6.93153e-08)
(7.86929e-07 -1.38874e-05 -6.27745e-08)
(8.04889e-07 -1.35689e-05 -5.58596e-08)
(7.75896e-07 -1.31733e-05 -4.91476e-08)
(7.05997e-07 -1.26809e-05 -4.31311e-08)
(6.04008e-07 -1.20608e-05 -3.80673e-08)
(4.80381e-07 -1.12629e-05 -3.39773e-08)
(3.46635e-07 -1.02058e-05 -3.06053e-08)
(2.14434e-07 -8.74922e-06 -2.71581e-08)
(9.79652e-08 -6.62581e-06 -2.21514e-08)
(1.19835e-08 -3.22121e-06 -1.13058e-08)
(-1.92895e-08 -3.08005e-06 -1.91763e-08)
(-1.60723e-07 -6.33982e-06 -3.64801e-08)
(-3.54759e-07 -8.37565e-06 -4.42129e-08)
(-5.77836e-07 -9.77379e-06 -4.97241e-08)
(-8.07092e-07 -1.07891e-05 -5.55799e-08)
(-1.02369e-06 -1.15556e-05 -6.31563e-08)
(-1.20862e-06 -1.21515e-05 -7.29444e-08)
(-1.34408e-06 -1.26247e-05 -8.50463e-08)
(-1.41425e-06 -1.30052e-05 -9.91865e-08)
(-1.40686e-06 -1.33119e-05 -1.14676e-07)
(-1.31492e-06 -1.35567e-05 -1.30531e-07)
(-1.13845e-06 -1.37469e-05 -1.45393e-07)
(-8.85518e-07 -1.38871e-05 -1.57886e-07)
(-5.7194e-07 -1.39793e-05 -1.66794e-07)
(-2.20047e-07 -1.40244e-05 -1.71282e-07)
(1.45291e-07 -1.40226e-05 -1.71453e-07)
(4.99191e-07 -1.39738e-05 -1.67269e-07)
(8.16531e-07 -1.38782e-05 -1.58627e-07)
(1.07475e-06 -1.37351e-05 -1.46312e-07)
(1.25762e-06 -1.35423e-05 -1.3155e-07)
(1.35666e-06 -1.32954e-05 -1.15714e-07)
(1.37152e-06 -1.29872e-05 -1.00178e-07)
(1.30893e-06 -1.26059e-05 -8.59586e-08)
(1.1809e-06 -1.21325e-05 -7.37335e-08)
(1.00308e-06 -1.15372e-05 -6.38128e-08)
(7.93026e-07 -1.0772e-05 -5.60963e-08)
(5.69477e-07 -9.75892e-06 -5.00584e-08)
(3.50953e-07 -8.36394e-06 -4.43286e-08)
(1.5991e-07 -6.33209e-06 -3.63443e-08)
(1.95215e-08 -3.07717e-06 -1.88441e-08)
(-2.6209e-08 -2.86884e-06 -2.61046e-08)
(-2.17226e-07 -5.91013e-06 -4.94828e-08)
(-4.79053e-07 -7.81184e-06 -5.99108e-08)
(-7.80636e-07 -9.118e-06 -6.75025e-08)
(-1.09169e-06 -1.00652e-05 -7.57632e-08)
(-1.38718e-06 -1.07779e-05 -8.65974e-08)
(-1.64155e-06 -1.13289e-05 -1.0074e-07)
(-1.83047e-06 -1.17632e-05 -1.18415e-07)
(-1.93185e-06 -1.21092e-05 -1.39318e-07)
(-1.92798e-06 -1.23854e-05 -1.62593e-07)
(-1.80774e-06 -1.26036e-05 -1.86855e-07)
(-1.56926e-06 -1.27714e-05 -2.10167e-07)
(-1.2218e-06 -1.2894e-05 -2.3033e-07)
(-7.86124e-07 -1.29742e-05 -2.45212e-07)
(-2.93298e-07 -1.30133e-05 -2.5301e-07)
(2.19655e-07 -1.30114e-05 -2.53176e-07)
(7.14497e-07 -1.29687e-05 -2.45676e-07)
(1.15403e-06 -1.28852e-05 -2.31046e-07)
(1.50686e-06 -1.27598e-05 -2.11067e-07)
(1.75183e-06 -1.25896e-05 -1.87854e-07)
(1.87927e-06 -1.23698e-05 -1.63625e-07)
(1.8907e-06 -1.20926e-05 -1.40317e-07)
(1.79691e-06 -1.17461e-05 -1.19346e-07)
(1.61537e-06 -1.1312e-05 -1.01564e-07)
(1.36796e-06 -1.07618e-05 -8.72961e-08)
(1.07878e-06 -1.00505e-05 -7.63205e-08)
(7.7316e-07 -9.10553e-06 -6.78847e-08)
(4.758e-07 -7.80217e-06 -6.00766e-08)
(2.16649e-07 -5.90385e-06 -4.93852e-08)
(2.64625e-08 -2.86653e-06 -2.57925e-08)
(-3.21853e-08 -2.59858e-06 -3.20998e-08)
(-2.65814e-07 -5.36156e-06 -6.07382e-08)
(-5.85754e-07 -7.09236e-06 -7.34744e-08)
(-9.54614e-07 -8.28038e-06 -8.27906e-08)
(-1.33575e-06 -9.13861e-06 -9.30046e-08)
(-1.6988e-06 -9.77932e-06 -1.06474e-07)
(-2.01253e-06 -1.02685e-05 -1.24139e-07)
(-2.24701e-06 -1.06473e-05 -1.46283e-07)
(-2.3748e-06 -1.09424e-05 -1.72549e-07)
(-2.37348e-06 -1.11715e-05 -2.01951e-07)
(-2.22858e-06 -1.13468e-05 -2.32792e-07)
(-1.93676e-06 -1.14773e-05 -2.62707e-07)
(-1.5084e-06 -1.15695e-05 -2.8883e-07)
(-9.6848e-07 -1.1628e-05 -3.08334e-07)
(-3.55462e-07 -1.16558e-05 -3.18698e-07)
(2.83402e-07 -1.1654e-05 -3.18843e-07)
(8.98397e-07 -1.16228e-05 -3.08756e-07)
(1.4421e-06 -1.15611e-05 -2.89492e-07)
(1.87576e-06 -1.14663e-05 -2.63534e-07)
(2.17403e-06 -1.13337e-05 -2.33719e-07)
(2.32608e-06 -1.11569e-05 -2.02926e-07)
(2.33489e-06 -1.0927e-05 -1.73506e-07)
(2.21461e-06 -1.06317e-05 -1.47176e-07)
(1.98742e-06 -1.02533e-05 -1.24954e-07)
(1.6805e-06 -9.76511e-06 -1.07176e-07)
(1.32359e-06 -9.12594e-06 -9.35649e-08)
(9.47669e-07 -8.26972e-06 -8.3187e-08)
(5.82808e-07 -7.0842e-06 -7.3657e-08)
(2.65361e-07 -5.35634e-06 -6.06521e-08)
(3.24489e-08 -2.59669e-06 -3.17936e-08)
(-3.69263e-08 -2.27956e-06 -3.68523e-08)
(-3.04027e-07 -4.71505e-06 -6.96628e-08)
(-6.69484e-07 -6.24498e-06 -8.41877e-08)
(-1.09111e-06 -7.29384e-06 -9.47874e-08)
(-1.52736e-06 -8.04681e-06 -1.064e-07)
(-1.9436e-06 -8.60197e-06 -1.2171e-07)
(-2.30392e-06 -9.01745e-06 -1.41774e-07)
(-2.57383e-06 -9.3301e-06 -1.66916e-07)
(-2.72165e-06 -9.56432e-06 -1.96713e-07)
(-2.72134e-06 -9.73698e-06 -2.30055e-07)
(-2.55613e-06 -9.8609e-06 -2.65036e-07)
(-2.22181e-06 -9.94628e-06 -2.9899e-07)
(-1.72992e-06 -1.00016e-05 -3.28692e-07)
(-1.10894e-06 -1.00339e-05 -3.50924e-07)
(-4.0299e-07 -1.00481e-05 -3.62804e-07)
(3.33005e-07 -1.00464e-05 -3.62926e-07)
(1.04085e-06 -1.00291e-05 -3.51284e-07)
(1.66551e-06 -9.99383e-06 -3.2926e-07)
(2.16251e-06 -9.93598e-06 -2.99716e-07)
(2.50309e-06 -9.84873e-06 -2.65862e-07)
(2.67525e-06 -9.72356e-06 -2.30927e-07)
(2.68287e-06 -9.55028e-06 -1.97589e-07)
(2.54242e-06 -9.31609e-06 -1.67745e-07)
(2.27963e-06 -9.00394e-06 -1.4254e-07)
(1.92595e-06 -8.58949e-06 -1.22381e-07)
(1.51569e-06 -8.03583e-06 -1.06951e-07)
(1.08448e-06 -7.28476e-06 -9.51793e-08)
(6.66691e-07 -6.23813e-06 -8.43699e-08)
(3.03612e-07 -4.71072e-06 -6.95796e-08)
(3.71822e-08 -2.27801e-06 -3.65527e-08)
(-4.01586e-08 -1.92446e-06 -4.00978e-08)
(-3.29726e-07 -3.99647e-06 -7.57534e-08)
(-7.25842e-07 -5.30378e-06 -9.14689e-08)
(-1.18347e-06 -6.19854e-06 -1.02846e-07)
(-1.65779e-06 -6.83534e-06 -1.1524e-07)
(-2.11104e-06 -7.29677e-06 -1.31554e-07)
(-2.50384e-06 -7.6325e-06 -1.52887e-07)
(-2.7982e-06 -7.87467e-06 -1.79545e-07)
(-2.95934e-06 -8.04516e-06 -2.11067e-07)
(-2.95893e-06 -8.16002e-06 -2.46226e-07)
(-2.77875e-06 -8.23215e-06 -2.82982e-07)
(-2.41444e-06 -8.27279e-06 -3.18559e-07)
(-1.87875e-06 -8.29214e-06 -3.49628e-07)
(-1.20273e-06 -8.29896e-06 -3.72834e-07)
(-4.34256e-07 -8.29989e-06 -3.85241e-07)
(3.66926e-07 -8.29839e-06 -3.85348e-07)
(1.13719e-06 -8.29453e-06 -3.73152e-07)
(1.81667e-06 -8.28509e-06 -3.5012e-07)
(2.35722e-06 -8.26357e-06 -3.1919e-07)
(2.7275e-06 -8.2213e-06 -2.83712e-07)
(2.91436e-06 -8.14811e-06 -2.47003e-07)
(2.92183e-06 -8.03278e-06 -2.11853e-07)
(2.7678e-06 -7.86237e-06 -1.80307e-07)
(2.48032e-06 -7.62074e-06 -1.53595e-07)
(2.09396e-06 -7.28602e-06 -1.32182e-07)
(1.64648e-06 -6.82599e-06 -1.15761e-07)
(1.17704e-06 -6.19092e-06 -1.03209e-07)
(7.23143e-07 -5.29814e-06 -9.16372e-08)
(3.29318e-07 -3.99297e-06 -7.56715e-08)
(4.04015e-08 -1.92325e-06 -3.98066e-08)
(-4.16202e-08 -1.54823e-06 -4.15719e-08)
(-3.41075e-07 -3.2359e-06 -7.85066e-08)
(-7.51267e-07 -4.30803e-06 -9.4678e-08)
(-1.2266e-06 -5.04018e-06 -1.06253e-07)
(-1.7209e-06 -5.55512e-06 -1.1879e-07)
(-2.19442e-06 -5.91964e-06 -1.35277e-07)
(-2.60543e-06 -6.1749e-06 -1.56833e-07)
(-2.91355e-06 -6.3481e-06 -1.83726e-07)
(-3.08206e-06 -6.45844e-06 -2.15416e-07)
(-3.08134e-06 -6.52063e-06 -2.50597e-07)
(-2.89268e-06 -6.54719e-06 -2.87203e-07)
(-2.51207e-06 -6.54968e-06 -3.22465e-07)
(-1.95332e-06 -6.53909e-06 -3.53121e-07)
(-1.24902e-06 -6.5252e-06 -3.75935e-07)
(-4.48971e-07 -6.51556e-06 -3.88128e-07)
(3.84887e-07 -6.51427e-06 -3.88217e-07)
(1.1866e-06 -6.52141e-06 -3.76203e-07)
(1.89414e-06 -6.53307e-06 -3.53543e-07)
(2.45746e-06 -6.54178e-06 -3.2301e-07)
(2.84367e-06 -6.53789e-06 -2.87836e-07)
(3.03865e-06 -6.51046e-06 -2.51281e-07)
(3.04607e-06 -6.44791e-06 -2.16118e-07)
(2.88433e-06 -6.33768e-06 -1.84414e-07)
(2.58281e-06 -6.16503e-06 -1.57478e-07)
(2.17799e-06 -5.9107e-06 -1.35854e-07)
(1.71e-06 -5.54742e-06 -1.19278e-07)
(1.22039e-06 -5.03399e-06 -1.06599e-07)
(7.48622e-07 -4.30354e-06 -9.48375e-08)
(3.40644e-07 -3.23322e-06 -7.84283e-08)
(4.18417e-08 -1.54736e-06 -4.12963e-08)
(-4.09889e-08 -1.16795e-06 -4.09507e-08)
(-3.36094e-07 -2.46719e-06 -7.72806e-08)
(-7.42413e-07 -3.30115e-06 -9.29923e-08)
(-1.21633e-06 -3.86862e-06 -1.04041e-07)
(-1.71224e-06 -4.26111e-06 -1.15997e-07)
(-2.1895e-06 -4.53013e-06 -1.31837e-07)
(-2.60502e-06 -4.70858e-06 -1.52675e-07)
(-2.91708e-06 -4.81873e-06 -1.78714e-07)
(-3.08812e-06 -4.87687e-06 -2.09355e-07)
(-3.08811e-06 -4.89589e-06 -2.43251e-07)
(-2.89858e-06 -4.88722e-06 -2.78355e-07)
(-2.51614e-06 -4.86185e-06 -3.12e-07)
(-1.9553e-06 -4.83049e-06 -3.4112e-07)
(-1.24915e-06 -4.80279e-06 -3.62698e-07)
(-4.47634e-07 -4.78635e-06 -3.74208e-07)