/*--------------------------------*- C++ -*----------------------------------*\
| =========                 |                                                 |
| \\      /  F ield         | OpenFOAM: The Open Source CFD Toolbox           |
|  \\    /   O peration     | Version:  v1906                                 |
|   \\  /    A nd           | Web:      www.OpenFOAM.com                      |
|    \\/     M anipulation  |                                                 |
\*---------------------------------------------------------------------------*/
FoamFile
{
    version     2.0;
    format      ascii;
    class       volVectorField;
    location    "89";
    object      U;
}
// * * * * * * * * * * * * * * * * * * * * * * * * * * * * * * * * * * * * * //

dimensions      [0 1 -1 0 0 0 0];


internalField   nonuniform List<vector> 
78750
(
(0.00226938 -0.00174059 -0.00035815)
(0.00404193 -0.00132295 0.0014373)
(0.00514689 -0.00145106 0.00286871)
(0.00538775 -0.00174723 0.00398835)
(0.00622418 -0.00215952 0.00479964)
(0.0072547 -0.00264491 0.00535103)
(0.00836279 -0.0031413 0.00570998)
(0.00952412 -0.00359929 0.00593433)
(0.010731 -0.00398681 0.00606607)
(0.0119635 -0.00428446 0.00613389)
(0.0131959 -0.00448133 0.00615685)
(0.0144021 -0.00457285 0.00614729)
(0.0155571 -0.00455941 0.00611264)
(0.0166377 -0.00444201 0.00605738)
(0.0176214 -0.0042195 0.00598506)
(0.0184896 -0.00389768 0.0058976)
(0.0192228 -0.00348436 0.00579662)
(0.0198033 -0.00298848 0.00568376)
(0.0202154 -0.00241974 0.00556089)
(0.0204459 -0.00178851 0.00543039)
(0.0204835 -0.00110577 0.00529512)
(0.0203217 -0.000383277 0.00515835)
(0.0199514 0.000364972 0.00502364)
(0.0193648 0.00112427 0.00489539)
(0.018563 0.0018776 0.00477854)
(0.0175538 0.00260415 0.00467829)
(0.0163479 0.00327498 0.0045986)
(0.0149645 0.00386262 0.00454394)
(0.0134247 0.00434489 0.00451709)
(0.0117508 0.00472796 0.00451532)
(0.00994928 0.00511861 0.00451362)
(0.00796179 0.00581634 0.00441491)
(0.00564581 0.00711094 0.00397993)
(0.00304495 0.00823029 0.0028811)
(0.000731083 0.0058758 0.00103473)
(4.8815e-05 -0.00455298 0.000494021)
(0.000493827 -0.00712443 0.00222196)
(0.00146249 -0.00911404 0.00345834)
(0.00272163 -0.0109028 0.00429684)
(0.0042073 -0.0125503 0.00485782)
(0.00584481 -0.0139736 0.00523627)
(0.00756626 -0.0151036 0.00549763)
(0.0093149 -0.0159078 0.005684)
(0.0110454 -0.0163785 0.0058215)
(0.0127204 -0.016521 0.00592589)
(0.0143089 -0.0163475 0.00600632)
(0.0157871 -0.0158747 0.00606717)
(0.0171319 -0.0151295 0.0061041)
(0.0183156 -0.0141541 0.00610463)
(0.0193317 -0.0129748 0.00607048)
(0.0201771 -0.0115961 0.00601258)
(0.020838 -0.0100305 0.0059345)
(0.0213052 -0.00829455 0.00583892)
(0.0215726 -0.00640615 0.00572856)
(0.021636 -0.00438487 0.00560578)
(0.0214922 -0.00225166 0.00547336)
(0.0211389 -3.00949e-05 0.00533447)
(0.0205778 0.00225086 0.00519288)
(0.0198102 0.00455504 0.00505252)
(0.0188357 0.00683382 0.00491662)
(0.0176661 0.00902045 0.00478499)
(0.0163031 0.0110694 0.00466905)
(0.0147456 0.0129523 0.00458837)
(0.0130159 0.0146506 0.00455114)
(0.0111263 0.016239 0.00455583)
(0.00906931 0.0179972 0.00457556)
(0.00680493 0.0204037 0.00450805)
(0.00438649 0.0233621 0.0041072)
(0.0020605 0.02429 0.0030483)
(0.000258797 0.0156459 0.00116714)
(-1.43279e-05 -0.0063568 0.000871855)
(0.000427783 -0.0139925 0.00249835)
(0.00140662 -0.0196927 0.00351833)
(0.00272463 -0.0240193 0.00413851)
(0.00424711 -0.0271832 0.00452078)
(0.00586331 -0.0293424 0.0047667)
(0.0074948 -0.0306473 0.00493516)
(0.0090907 -0.0312293 0.00505808)
(0.0106183 -0.0311944 0.00515184)
(0.0120552 -0.030626 0.00522436)
(0.0133854 -0.0295905 0.00527912)
(0.0145967 -0.0281421 0.00531769)
(0.0156794 -0.0263263 0.005341)
(0.0166236 -0.0241894 0.00534785)
(0.0174172 -0.02178 0.00533527)
(0.0180534 -0.0191267 0.00530733)
(0.0185272 -0.0162478 0.00527051)
(0.0188321 -0.0131704 0.00522701)
(0.0189651 -0.00992612 0.00517725)
(0.0189248 -0.00655507 0.00511852)
(0.0187118 -0.00309032 0.00505055)
(0.0183265 0.000454674 0.00497899)
(0.0177685 0.00406391 0.00490855)
(0.0170352 0.00770756 0.00483965)
(0.0161273 0.0113397 0.00477111)
(0.0150469 0.0148956 0.00470144)
(0.013799 0.0182989 0.00463195)
(0.0123919 0.0214765 0.00456724)
(0.0108386 0.0244119 0.00451476)
(0.00914695 0.0272261 0.00447891)
(0.00730084 0.0302357 0.00444091)
(0.00527879 0.0337057 0.00430805)
(0.00326578 0.0367296 0.00387353)
(0.00143761 0.0357379 0.00285914)
(0.0001432 0.0211664 0.00109172)
(4.40063e-05 -0.00797578 0.00091271)
(0.000605331 -0.0194047 0.00224961)
(0.00159669 -0.0280149 0.00299152)
(0.00284499 -0.0341364 0.00340908)
(0.00419176 -0.0380848 0.00366192)
(0.00553692 -0.0403626 0.00382779)
(0.00683796 -0.0414344 0.00394314)
(0.00807729 -0.0416098 0.00402451)
(0.00924378 -0.041077 0.00407893)
(0.0103304 -0.0399563 0.00410893)
(0.0113319 -0.0383296 0.0041155)
(0.012243 -0.0362562 0.00409954)
(0.0130566 -0.0337811 0.00406286)
(0.0137642 -0.0309419 0.00400867)
(0.0143559 -0.0277737 0.00394146)
(0.0148221 -0.0243126 0.00386696)
(0.0151546 -0.0205944 0.00379289)
(0.0153487 -0.0166552 0.00372788)
(0.015402 -0.0125299 0.00368102)
(0.0153139 -0.008251 0.00366109)
(0.0150847 -0.00384611 0.00367561)
(0.0147133 0.000663202 0.00373039)
(0.014205 0.00525524 0.003828)
(0.0135656 0.00990101 0.00396342)
(0.0127959 0.0145553 0.00412296)
(0.0118961 0.0191471 0.00428448)
(0.0108689 0.0235845 0.00442196)
(0.0097198 0.0277909 0.00451416)
(0.00845451 0.0317769 0.004552)
(0.00706955 0.0357141 0.00453542)
(0.00554291 0.0398845 0.00445011)
(0.00388137 0.0441678 0.0042251)
(0.00231646 0.0469149 0.003723)
(0.000953087 0.0440453 0.00272824)
(5.42237e-05 0.0247117 0.00104653)
(3.4154e-05 -0.0102955 0.000796482)
(0.000548558 -0.0253974 0.0018002)
(0.0013948 -0.0362457 0.0023167)
(0.00242584 -0.0433732 0.00260684)
(0.00349889 -0.0474955 0.00278652)
(0.00454649 -0.0495664 0.00290079)
(0.0055583 -0.0503069 0.00297073)
(0.0065327 -0.050109 0.00300585)
(0.00746409 -0.049175 0.00300962)
(0.00834764 -0.0476197 0.00298295)
(0.00917754 -0.0455121 0.00292637)
(0.0099446 -0.0428959 0.00284099)
(0.0106362 -0.0398034 0.00272926)
(0.0112376 -0.0362668 0.00259554)
(0.0117338 -0.0323258 0.00244633)
(0.0121121 -0.028032 0.00229041)
(0.0123635 -0.0234475 0.00213881)
(0.0124846 -0.0186397 0.00200481)
(0.0124766 -0.0136732 0.00190351)
(0.012345 -0.00860238 0.00185142)
(0.0120979 -0.003466 0.00186565)
(0.0117441 0.00171351 0.00196243)
(0.0112919 0.0069255 0.00215423)
(0.0107481 0.0121596 0.0024448)
(0.0101165 0.0173923 0.00282262)
(0.00939818 0.0225755 0.00325582)
(0.00859109 0.0276426 0.0036938)
(0.00769119 0.0325501 0.00407963)
(0.00669099 0.0373509 0.00436647)
(0.00557502 0.042229 0.00452167)
(0.00432161 0.0473218 0.00450931)
(0.00297378 0.052043 0.0042689)
(0.00173977 0.0542996 0.00372388)
(0.000686176 0.0497155 0.00271197)
(3.15847e-05 0.0268298 0.00103176)
(4.73464e-05 -0.0122435 0.000582606)
(0.000504753 -0.0301661 0.00130539)
(0.00120997 -0.0426175 0.00169962)
(0.00204611 -0.0504263 0.00194137)
(0.00290141 -0.0546781 0.00209175)
(0.00373255 -0.0566618 0.00217592)
(0.00454337 -0.0572493 0.00221038)
(0.00533647 -0.0568606 0.00220421)
(0.00610578 -0.0556891 0.00216172)
(0.00684484 -0.0538321 0.00208498)
(0.00754537 -0.0513385 0.00197532)
(0.00819521 -0.048234 0.00183401)
(0.00877871 -0.0445409 0.0016629)
(0.00927872 -0.0402961 0.0014653)
(0.00967952 -0.0355628 0.0012465)
(0.00996964 -0.0304319 0.00101443)
(0.0101435 -0.0250133 0.000780317)
(0.0102014 -0.0194205 0.000558964)
(0.0101488 -0.0137548 0.00036871)
(0.00999503 -0.00809361 0.000231167)
(0.00975156 -0.00248391 0.0001703)
(0.00943071 0.00305645 0.000210707)
(0.00904382 0.00853348 0.000374735)
(0.00859956 0.0139667 0.000678009)
(0.00810251 0.0193746 0.00112189)
(0.0075519 0.0247624 0.00168494)
(0.0069405 0.0301264 0.00231864)
(0.00625456 0.03549 0.00295388)
(0.0054745 0.0409574 0.00351527)
(0.00457575 0.0466948 0.00392814)
(0.00353795 0.0526416 0.00411161)
(0.0024277 0.0577585 0.00398283)
(0.00141983 0.0596796 0.00348856)
(0.000558465 0.053791 0.00251374)
(3.19286e-05 0.028337 0.000913781)
(3.53465e-05 -0.0139333 0.000435445)
(0.000399521 -0.03414 0.0010031)
(0.000964276 -0.0478391 0.00135584)
(0.00164542 -0.0561683 0.00159748)
(0.00234943 -0.0605279 0.00175369)
(0.00304074 -0.0624572 0.001842)
(0.00372409 -0.0629236 0.00187983)
(0.00439952 -0.0623607 0.00187743)
(0.00505886 -0.0609538 0.00183965)
(0.00569452 -0.0587844 0.00176868)
(0.00629756 -0.0558813 0.00166539)
(0.00685557 -0.0522518 0.00152987)
(0.00735337 -0.0479121 0.00136185)
(0.0077754 -0.0429134 0.00116156)
(0.00810878 -0.0373539 0.000930237)
(0.00834447 -0.0313709 0.000671126)
(0.00847896 -0.0251213 0.000391139)
(0.00851505 -0.0187614 0.00010258)
(0.00845949 -0.0124273 -0.000175781)
(0.00832164 -0.00622064 -0.000418843)
(0.00811226 -0.000202134 -0.000596509)
(0.00784341 0.00560736 -0.000676372)
(0.0075266 0.0112224 -0.000627471)
(0.00717 0.0166877 -0.000424789)
(0.00677746 0.022066 -5.52203e-05)
(0.00634669 0.027428 0.000474752)
(0.00586767 0.0328538 0.0011325)
(0.00532221 0.038455 0.00185831)
(0.00468559 0.0443907 0.0025696)
(0.00393008 0.050784 0.00316249)
(0.00303778 0.0573466 0.00351317)
(0.00208954 0.0626511 0.00350756)
(0.00122675 0.0642064 0.00309887)
(0.000484375 0.0571567 0.0022076)
(3.15779e-05 0.0296334 0.00076728)
(3.08205e-05 -0.0152977 0.000315869)
(0.000332347 -0.0374057 0.00079246)
(0.000805531 -0.0522397 0.00113557)
(0.00138406 -0.0611472 0.00138448)
(0.00198627 -0.06573 0.00154379)
(0.00258093 -0.0677127 0.00163061)
(0.00317297 -0.0681506 0.00166517)
(0.00376167 -0.0674959 0.00165944)
(0.00433825 -0.0659289 0.00161941)
(0.00489491 -0.063516 0.00154826)
(0.00542298 -0.0602684 0.00144767)
(0.00591102 -0.0561814 0.00131816)
(0.0063459 -0.0512741 0.00115952)
(0.00671504 -0.0456181 0.000970815)
(0.00700843 -0.039343 0.000750607)
(0.0072197 -0.0326225 0.000497954)
(0.00734627 -0.0256514 0.000214381)
(0.00738961 -0.0186206 -9.34608e-05)
(0.0073547 -0.0116939 -0.000411526)
(0.00724976 -0.00499398 -0.000717088)
(0.00708542 0.00140358 -0.000979389)
(0.00687235 0.00747198 -0.00116242)
(0.00662073 0.0132319 -0.00122919)
(0.00633887 0.018748 -0.00114678)
(0.00602986 0.0241203 -0.000891458)
(0.0056893 0.029476 -0.000454824)
(0.00530449 0.034971 0.000149357)
(0.00485446 0.0407981 0.000878937)
(0.0043117 0.0471696 0.00165768)
(0.00364721 0.054171 0.00236821)
(0.00284345 0.0613177 0.00285488)
(0.00198454 0.066865 0.0029706)
(0.00119102 0.0682077 0.00266618)
(0.000489821 0.0602519 0.00188839)
(4.25572e-05 0.0309407 0.000632392)
(2.59121e-05 -0.0164415 0.000270604)
(0.000292821 -0.040168 0.000726374)
(0.000720249 -0.0559953 0.00107825)
(0.00124865 -0.0654212 0.00133502)
(0.00180032 -0.0702106 0.00149619)
(0.00234542 -0.0722433 0.00158202)
(0.0028883 -0.072647 0.00161535)
(0.00342696 -0.0718914 0.0016097)
(0.00395187 -0.0701538 0.00157215)
(0.00445539 -0.0674898 0.00150681)
(0.00492978 -0.0638978 0.00141602)
(0.00536547 -0.0593662 0.00130056)
(0.0057521 -0.0539204 0.00115966)
(0.00608036 -0.0476492 0.000990779)
(0.00634318 -0.0407063 0.000789916)
(0.00653582 -0.0332912 0.000552831)
(0.00665599 -0.0256257 0.000277051)
(0.00670389 -0.0179301 -3.55267e-05)
(0.00668216 -0.0103984 -0.000375685)
(0.00659632 -0.00318164 -0.000724696)
(0.00645479 0.00361989 -0.00105387)
(0.0062679 0.00996297 -0.00132671)
(0.00604637 0.0158689 -0.00150338)
(0.00579895 0.0214222 -0.00154592)
(0.0055294 0.0267618 -0.00142255)
(0.00523395 0.0320734 -0.00111198)
(0.00489926 0.0375863 -0.000609683)
(0.00450326 0.0435686 6.2344e-05)
(0.00401808 0.0502771 0.000841067)
(0.00341419 0.0577567 0.00160675)
(0.00267326 0.0653469 0.00218428)
(0.00187958 0.0710484 0.00240033)
(0.00113693 0.0721679 0.00220074)
(0.000470855 0.0633481 0.00155371)
(4.00905e-05 0.0323119 0.000501546)
(2.20095e-05 -0.0175396 0.000255623)
(0.000263646 -0.0428786 0.000712907)
(0.000655196 -0.0597324 0.00107455)
(0.00114233 -0.0697172 0.00133607)
(0.00165138 -0.0747472 0.00149779)
(0.00215412 -0.0768548 0.0015835)
(0.00265491 -0.0772451 0.00161795)
(0.00315155 -0.0764094 0.00161551)
(0.00363453 -0.0745254 0.00158385)
(0.00409638 -0.0716418 0.00152772)
(0.00452985 -0.0677491 0.00145018)
(0.00492652 -0.0628347 0.00135265)
(0.00527793 -0.0569314 0.00123448)
(0.00557705 -0.0501424 0.00109253)
(0.005819 -0.0426367 0.000921332)
(0.00600053 -0.0346293 0.000714178)
(0.00611944 -0.026357 0.000465043)
(0.00617568 -0.0180559 0.000171229)
(0.00617151 -0.00994192 -0.000163605)
(0.00610995 -0.00218955 -0.000526365)
(0.00599712 0.00507468 -0.000892755)
(0.00584135 0.0117855 -0.00122846)
(0.00565186 0.0179546 -0.00149328)
(0.00543648 0.0236732 -0.00164645)
(0.00519886 0.0291063 -0.00165078)
(0.00493577 0.0344843 -0.00147545)
(0.00463491 0.0400974 -0.00110067)
(0.00427456 0.0462792 -0.000528783)
(0.00382719 0.0533275 0.000195252)
(0.00326419 0.061256 0.00095965)
(0.00256681 0.0692586 0.0015824)
(0.0018176 0.0751226 0.00187204)
(0.00110784 0.0760575 0.00176769)
(0.000462177 0.0664293 0.00125215)
(4.03903e-05 0.0336944 0.000393283)
(2.20998e-05 -0.0185098 0.000257036)
(0.000258368 -0.0452688 0.000722429)
(0.000639626 -0.0630287 0.00108761)
(0.00111027 -0.0735061 0.00134476)
(0.00159784 -0.078748 0.00149892)
(0.00207592 -0.0809194 0.00157776)
(0.0025496 -0.0812902 0.00160713)
(0.00301675 -0.0803701 0.00160188)
(0.00346804 -0.0783375 0.00157023)
(0.00389644 -0.0752358 0.00151759)
(0.00429535 -0.0710511 0.00144769)
(0.00465749 -0.065773 0.00136244)
(0.00497597 -0.0594441 0.00126131)
(0.00524564 -0.0521811 0.00114094)
(0.00546324 -0.0441664 0.00099529)
(0.00562682 -0.0356269 0.000816632)
(0.00573513 -0.0268107 0.00059715)
(0.00578747 -0.0179666 0.000331183)
(0.00578489 -0.00932433 1.807e-05)
(0.00573035 -0.00108011 -0.000334548)
(0.00562856 0.00661572 -0.000707962)
(0.00548645 0.013678 -0.00107231)
(0.00531211 0.0201103 -0.00138986)
(0.00511259 0.0260112 -0.00161999)
(0.0048914 0.0315688 -0.00172316)
(0.00464576 0.0370518 -0.00166283)
(0.00436467 0.0427999 -0.0014085)
(0.00402803 0.0491979 -0.000946594)
(0.00360873 0.0565725 -0.000303971)
(0.00307937 0.0648991 0.000421713)
(0.00242266 0.0732388 0.00105212)
(0.00171887 0.0792001 0.00138809)
(0.00104726 0.079912 0.00136401)
(0.000433121 0.0694538 0.000973012)
(3.54137e-05 0.0350398 0.000295895)
(2.00887e-05 -0.0195537 0.000278695)
(0.000248025 -0.0478437 0.000768464)
(0.000613951 -0.0665597 0.00114121)
(0.00106329 -0.07753 0.00139544)
(0.0015259 -0.0829661 0.00154399)
(0.00197748 -0.0851855 0.0016189)
(0.00242367 -0.0855261 0.00164714)
(0.00286239 -0.0845156 0.0016438)
(0.00328451 -0.0823338 0.00161739)
(0.00368322 -0.0790213 0.00157368)
(0.00405239 -0.074563 0.00151672)
(0.0043856 -0.0689533 0.00144858)
(0.00467731 -0.0622443 0.0013685)
(0.00492386 -0.0545636 0.00127249)
(0.00512335 -0.0461023 0.00115356)
(0.00527489 -0.037093 0.00100275)
(0.00537792 -0.0277883 0.000810742)
(0.00543203 -0.0184429 0.00056994)
(0.00543721 -0.00929662 0.000276999)
(0.00539492 -0.000560644 -6.40395e-05)
(0.0053086 0.00759261 -0.000438667)
(0.00518365 0.0150563 -0.000820988)
(0.00502647 0.021821 -0.00117628)
(0.00484285 0.0279862 -0.0014655)
(0.00463574 0.0337563 -0.001649)
(0.00440267 0.0394303 -0.00168773)
(0.00413395 0.0453885 -0.00154493)
(0.00381195 0.0520562 -0.0011956)
(0.00341264 0.059779 -0.000650692)
(0.00290995 0.0684955 8.78678e-06)
(0.00228735 0.0771443 0.00061614)
(0.00162416 0.0831788 0.000973277)
(0.000988812 0.0836556 0.00101204)
(0.000405957 0.07237 0.000731774)
(3.22765e-05 0.0363179 0.000215172)
(2.1119e-05 -0.0205072 0.000290687)
(0.000247689 -0.0501568 0.000785951)
(0.000605908 -0.0697045 0.00115172)
(0.00104036 -0.0810978 0.0013933)
(0.00148306 -0.0867002 0.00153008)
(0.00191215 -0.0889591 0.00159661)
(0.00233402 -0.089268 0.00161965)
(0.00274679 -0.0881686 0.00161411)
(0.00314172 -0.0858416 0.00158871)
(0.00351237 -0.0823253 0.0015497)
(0.00385311 -0.0776058 0.00150179)
(0.0041584 -0.0716846 0.00144758)
(0.00442382 -0.064626 0.00138664)
(0.00464695 -0.0565696 0.00131494)
(0.00482692 -0.0477149 0.00122502)
(0.00496366 -0.0382988 0.00110692)
(0.00505721 -0.028576 0.000949745)
(0.00510746 -0.0188033 0.000743785)
(0.00511438 -0.00922535 0.000482962)
(0.00507842 -6.35819e-05 0.00016775)
(0.00500181 0.00849322 -0.000191553)
(0.00488876 0.016322 -0.00057303)
(0.00474455 0.023404 -0.000945081)
(0.00457359 0.0298398 -0.00127062)
(0.00437793 0.035848 -0.0015108)
(0.00415499 0.0417521 -0.00162593)
(0.00389603 0.0479634 -0.00157607)
(0.00358554 0.0549355 -0.00132892)
(0.00320255 0.0630189 -0.000882865)
(0.00272324 0.0721048 -0.000302309)
(0.00213381 0.0810125 0.000262179)
(0.00151281 0.0870649 0.000620799)
(0.000917721 0.0872674 0.000706046)
(0.000372134 0.0751398 0.000521399)
(2.7838e-05 0.0375098 0.000145671)
(1.96462e-05 -0.0215345 0.000315605)
(0.000240694 -0.0526411 0.000832124)
(0.000587194 -0.0730574 0.00119942)
(0.00100449 -0.0848633 0.00143292)
(0.0014265 -0.0906066 0.00156057)
(0.00183343 -0.0928846 0.00162084)
(0.00223223 -0.0931478 0.00164098)
(0.00262102 -0.0919503 0.00163584)
(0.00299135 -0.0894737 0.00161426)
(0.00333711 -0.0857563 0.00158278)
(0.00365316 -0.0807874 0.00154635)
(0.00393475 -0.074577 0.00150767)
(0.00417856 -0.0672006 0.00146618)
(0.00438323 -0.0588071 0.00141751)
(0.00454883 -0.0496012 0.0013536)
(0.00467593 -0.0398205 0.00126363)
(0.00476494 -0.0297182 0.00113552)
(0.00481583 -0.01955 0.000958058)
(0.00482832 -0.00956236 0.000723414)
(0.00480225 1.5261e-05 0.00042991)
(0.00473834 0.0089797 8.49584e-05)
(0.00463887 0.0171921 -0.000292917)
(0.00450773 0.0246232 -0.000675138)
(0.00434859 0.0313733 -0.00102705)
(0.00416261 0.0376712 -0.00131137)
(0.00394708 0.0438607 -0.00148901)
(0.00369404 0.0503783 -0.001519)
(0.00339005 0.0576974 -0.00136481)
(0.00301751 0.066164 -0.00101546)
(0.00255678 0.0756151 -0.000520232)
(0.00199662 0.0847573 -1.1787e-05)
(0.00141339 0.0908016 0.000333319)
(0.000855325 0.0907161 0.000450502)
(0.000343968 0.077758 0.000345799)
(2.52546e-05 0.0386203 8.95535e-05)
(2.01839e-05 -0.0224895 0.00032748)
(0.000237913 -0.0549058 0.000843592)
(0.000574188 -0.0760785 0.0011972)
(0.000974607 -0.0882336 0.00141381)
(0.00137586 -0.0940933 0.00152806)
(0.0017606 -0.0963838 0.0015797)
(0.00213628 -0.096601 0.00159505)
(0.00250115 -0.0953082 0.00158851)
(0.00284715 -0.0926876 0.00156898)
(0.00316855 -0.088778 0.0015434)
(0.00346069 -0.0835738 0.00151726)
(0.00371951 -0.0770956 0.00149378)
(0.0039426 -0.0694317 0.00147276)
(0.00412946 -0.0607413 0.0014499)
(0.00428089 -0.0512341 0.00141683)
(0.00439805 -0.0411476 0.00136188)
(0.00448178 -0.030731 0.00127138)
(0.0045322 -0.0202352 0.00113187)
(0.00454879 -0.00990411 0.000932819)
(0.00453061 3.01556e-05 0.000669811)
(0.00447764 0.00935438 0.000347649)
(0.00439109 0.0179169 -1.77572e-05)
(0.00427292 0.0256808 -0.000400426)
(0.00412543 0.0327462 -0.000767706)
(0.00394929 0.0393503 -0.00108378)
(0.00374149 0.0458533 -0.00131043)
(0.00349461 0.0527101 -0.00140674)
(0.00319693 0.0604042 -0.00133405)
(0.002834 0.0692651 -0.00107471)
(0.00239014 0.0790671 -0.000664858)
(0.00185766 0.0884053 -0.000218991)
(0.00131116 0.094401 0.000102452)
(0.00079031 0.0940029 0.000239623)
(0.000314365 0.0802198 0.000200423)
(2.20944e-05 0.0396499 4.43088e-05)
(1.89032e-05 -0.0234887 0.000347321)
(0.000230705 -0.0572707 0.000875176)
(0.000555282 -0.0792187 0.00122336)
(0.000939438 -0.0917127 0.0014279)
(0.00132191 -0.0976703 0.00153109)
(0.00168716 -0.0999593 0.00157539)
(0.00204293 -0.100122 0.00158696)
(0.00238733 -0.098729 0.00157991)
(0.00271259 -0.0959642 0.00156319)
(0.0030133 -0.0918682 0.00154396)
(0.00328527 -0.0864418 0.00152793)
(0.00352515 -0.0797165 0.00151849)
(0.00373132 -0.0717922 0.00151554)
(0.00390404 -0.0628363 0.00151483)
(0.00404475 -0.0530616 0.00150799)
(0.00415512 -0.0427031 0.00148305)
(0.00423628 -0.0320043 0.00142559)
(0.00428843 -0.0212088 0.00132068)
(0.00431079 -0.0105561 0.00115552)
(0.00430193 -0.000278699 0.000922855)
(0.00426061 0.00940271 0.000624479)
(0.00418655 0.0183245 0.000273597)
(0.00408053 0.0264405 -0.00010614)
(0.00394344 0.0338487 -0.000483992)
(0.0037752 0.0407929 -0.000825433)
(0.00357292 0.0476467 -0.0010933)
(0.00332966 0.0548794 -0.00124731)
(0.00303532 0.0629782 -0.00124791)
(0.00267838 0.0722489 -0.00107266)
(0.00224713 0.0823975 -0.000746381)
(0.00173779 0.0919111 -0.000366102)
(0.00122328 0.0978396 -7.50408e-05)
(0.000735377 0.0971232 7.24429e-05)
(0.000290489 0.0825373 8.54017e-05)
(2.03184e-05 0.0406091 1.04655e-05)
(1.91084e-05 -0.0244304 0.000356592)
(0.000226302 -0.0594609 0.000878351)
(0.000539789 -0.0820935 0.00120836)
(0.000907253 -0.0948741 0.00139366)
(0.00127028 -0.100909 0.00148269)
(0.00161544 -0.10319 0.00151825)
(0.00195076 -0.103297 0.00152514)
(0.00227435 -0.101807 0.00151683)
(0.00257882 -0.0989024 0.00150228)
(0.00285913 -0.0946282 0.00148892)
(0.00311151 -0.0889928 0.00148289)
(0.00333316 -0.0820396 0.001488)
(0.00352308 -0.0738814 0.00150451)
(0.00368211 -0.0646949 0.00152841)
(0.00381223 -0.054696 0.00155135)
(0.00391557 -0.0441167 0.00156102)
(0.00399364 -0.0331924 0.0015421)
(0.00404683 -0.0221569 0.00147801)
(0.00407427 -0.0112406 0.00135346)
(0.004074 -0.00067143 0.00115803)
(0.0040438 0.00932673 0.000890098)
(0.00398213 0.0185813 0.000559876)
(0.00388837 0.0270376 0.000188888)
(0.00376234 0.0347906 -0.000193473)
(0.00360297 0.0420886 -0.000553587)
(0.00340701 0.0493147 -0.000855056)
(0.00316814 0.0569473 -0.00105835)
(0.00287773 0.0654701 -0.00112372)
(0.00252691 0.0751566 -0.0010253)
(0.00210775 0.0856384 -0.000778323)
(0.00162082 0.0952973 -0.000463536)
(0.00113698 0.101133 -0.000206782)
(0.000680798 0.100086 -5.66031e-05)
(0.00026637 0.0847149 -3.26127e-06)
(1.80892e-05 0.0415011 -1.39084e-05)
(1.78413e-05 -0.0253915 0.000369917)
(0.000218699 -0.0616921 0.00089304)
(0.000520932 -0.0850129 0.00121101)
(0.000873434 -0.0980695 0.00138106)
(0.00121976 -0.104169 0.00145787)
(0.00154803 -0.106434 0.00148553)
(0.00186638 -0.106482 0.00148807)
(0.00217277 -0.104893 0.0014785)
(0.00246004 -0.101852 0.00146571)
(0.00272349 -0.0974085 0.00145729)
(0.00295969 -0.0915776 0.00145958)
(0.00316635 -0.0844152 0.00147661)
(0.003343 -0.0760457 0.00150894)
(0.003491 -0.0666538 0.00155292)
(0.00361277 -0.0564573 0.00160061)
(0.00371085 -0.0456848 0.00163992)
(0.00378707 -0.0345628 0.00165535)
(0.003842 -0.0233137 0.00162934)
(0.00387465 -0.0121569 0.00154461)
(0.00388263 -0.00131331 0.00138766)
(0.00386278 0.00899311 0.00115306)
(0.00381229 0.0185822 0.00084736)
(0.00372924 0.0273903 0.000489358)
(0.00361234 0.0355075 0.000106889)
(0.00345988 0.0431839 -0.000267192)
(0.00326852 0.0508096 -0.000597043)
(0.00303233 0.0588686 -0.000843754)
(0.00274398 0.0678357 -0.00096751)
(0.0023972 0.0779465 -0.000939722)
(0.00198751 0.088755 -0.000767412)
(0.00151956 0.0985419 -0.00051644)
(0.00106229 0.104271 -0.000295974)
(0.000634032 0.102895 -0.000149168)
(0.000246366 0.0867638 -6.62959e-05)
(1.67516e-05 0.0423328 -2.88797e-05)
(1.78411e-05 -0.0263073 0.000375221)
(0.00021385 -0.0637878 0.000886506)
(0.000505781 -0.0877273 0.0011831)
(0.00084344 -0.101019 0.00133278)
(0.00117289 -0.107166 0.0013953)
(0.00148405 -0.10941 0.00141422)
(0.00178519 -0.109397 0.00141196)
(0.00207422 -0.107711 0.00140077)
(0.00234434 -0.104539 0.00138946)
(0.00259112 -0.099932 0.00138578)
(0.00281144 -0.0939166 0.00139634)
(0.00300337 -0.0865606 0.00142556)
(0.00316685 -0.0780013 0.00147437)
(0.00330364 -0.0684321 0.00153956)
(0.00341659 -0.0580737 0.00161352)
(0.00350867 -0.0471502 0.00168435)
(0.00358212 -0.0358782 0.00173632)
(0.00363779 -0.0244659 0.00175098)
(0.00367475 -0.0131185 0.00170923)
(0.00369029 -0.00204539 0.00159463)
(0.00368045 0.00853413 0.00139795)
(0.0036412 0.0184356 0.00112182)
(0.00356923 0.0275866 0.000782007)
(0.00346205 0.0360713 0.000404605)
(0.00331718 0.0441386 2.17498e-05)
(0.00313105 0.0521816 -0.000331034)
(0.0028986 0.0606843 -0.000615166)
(0.00261369 0.0701081 -0.000790861)
(0.00227184 0.0806441 -0.000827182)
(0.0018719 0.091766 -0.000723958)
(0.0014223 0.101658 -0.0005336)
(0.000990144 0.107266 -0.000349741)
(0.00058849 0.105557 -0.000210844)
(0.000226623 0.0886882 -0.000107775)
(1.51636e-05 0.0431065 -3.63082e-05)
(1.67203e-05 -0.0272267 0.000381953)
(0.000206566 -0.0658866 0.00088511)
(0.000488266 -0.0904377 0.00116429)
(0.000812841 -0.103953 0.00129657)
(0.00112804 -0.110137 0.00134631)
(0.001425 -0.112354 0.0013571)
(0.00171199 -0.112278 0.00135009)
(0.00198677 -0.110497 0.00133693)
(0.00224278 -0.107197 0.00132624)
(0.00247585 -0.102436 0.00132583)
(0.00268308 -0.0962474 0.00134246)
(0.00286285 -0.0887126 0.00138084)
(0.00301543 -0.0799804 0.00144233)
(0.00314291 -0.0702527 0.00152429)
(0.00324849 -0.0597526 0.00161982)
(0.00333551 -0.0487004 0.00171764)
(0.00340657 -0.0373025 0.00180235)
(0.0034628 -0.0257527 0.00185514)
(0.00350338 -0.0142399 0.00185552)
(0.00352535 -0.00295919 0.00178432)
(0.00352406 0.00787817 0.00162834)
(0.00349439 0.018086 0.00138575)
(0.00343174 0.0275838 0.00106864)
(0.00333253 0.036448 0.000700835)
(0.00319358 0.0449239 0.000313574)
(0.00301113 0.0534044 -5.77913e-05)
(0.00278057 0.0623699 -0.000374698)
(0.00249768 0.0722624 -0.000597018)
(0.00216 0.0832261 -0.000691835)
(0.00176854 0.0946521 -0.000652476)
(0.00133529 0.104634 -0.000519185)
(0.000925445 0.110112 -0.000371458)
(0.000547748 0.108073 -0.00024397)
(0.000209346 0.0904939 -0.000129041)
(1.40278e-05 0.0438258 -3.65677e-05)
(1.661e-05 -0.02811 0.000382395)
(0.000201831 -0.0678802 0.000867964)
(0.000474647 -0.0929907 0.00112347)
(0.000786879 -0.106698 0.00123515)
(0.00108825 -0.112906 0.00127095)
(0.00137126 -0.115092 0.00127316)
(0.00164425 -0.114952 0.00126118)
(0.00190499 -0.113076 0.00124582)
(0.00214721 -0.109653 0.00123553)
(0.00236691 -0.104742 0.00123811)
(0.00256132 -0.0983897 0.00126057)
(0.00272903 -0.0906879 0.00130788)
(0.00287056 -0.0817993 0.00138188)
(0.00298828 -0.0719349 0.00148047)
(0.00308575 -0.061321 0.00159734)
(0.00316672 -0.0501736 0.00172185)
(0.00323425 -0.0386884 0.00183901)
(0.00328986 -0.0270429 0.00192993)
(0.00333298 -0.015407 0.0019731)
(0.00336056 -0.00395772 0.00194701)
(0.00336734 0.0071063 0.00183471)
(0.00334713 0.0176006 0.00162977)
(0.003294 0.0274373 0.00134015)
(0.00320316 0.0366838 0.000986945)
(0.00307069 0.0455788 0.000600197)
(0.00289264 0.0545107 0.000215088)
(0.00266487 0.0639518 -0.000129596)
(0.00238438 0.0743202 -0.000393112)
(0.00205135 0.0857079 -0.000540413)
(0.0016692 0.0974247 -0.00055917)
(0.00125223 0.107478 -0.000478692)
(0.00086357 0.112818 -0.000365879)
(0.000508386 0.110451 -0.000252583)
(0.000192407 0.0921868 -0.000133334)
(1.2715e-05 0.0444939 -3.13377e-05)
(1.57379e-05 -0.0289877 0.000382643)
(0.000195486 -0.0698545 0.000851972)
(0.000459613 -0.0955106 0.00108618)
(0.000761024 -0.109397 0.00117937)
(0.0010508 -0.11562 0.00120239)
(0.00132237 -0.117767 0.00119647)
(0.00158404 -0.117563 0.0011794)
(0.00183342 -0.115595 0.00116129)
(0.00206446 -0.112052 0.00115031)
(0.00227327 -0.106999 0.00115428)
(0.00245716 -0.10049 0.00118029)
(0.00261485 -0.0926309 0.00123365)
(0.00274707 -0.0835971 0.00131665)
(0.00285643 -0.0736088 0.00142786)
(0.00294674 -0.0628958 0.00156182)
(0.00302208 -0.0516709 0.0017088)
(0.0030859 -0.0401197 0.00185464)
(0.00314017 -0.0284034 0.00198081)
(0.0031846 -0.0166716 0.00206524)
(0.00321625 -0.00508053 0.00208445)
(0.00322942 0.00618827 0.0020178)
(0.00321705 0.0169557 0.00185401)
(0.00317195 0.0271278 0.00159628)
(0.00308823 0.036762 0.00126233)
(0.00296121 0.0460877 0.000880626)
(0.00278679 0.0554852 0.000486085)
(0.00256134 0.0654142 0.000117914)
(0.00228297 0.076265 -0.000182224)
(0.00195372 0.0880749 -0.000377001)
(0.00157995 0.100071 -0.000448706)
(0.00117834 0.110182 -0.000417023)
(0.000808964 0.115381 -0.000337746)
(0.000473897 0.112693 -0.000240838)
(0.000177778 0.0937721 -0.000123729)
(1.17753e-05 0.0451135 -2.17542e-05)
(1.56087e-05 -0.0298363 0.000378043)
(0.000191075 -0.0717457 0.000824524)
(0.000447671 -0.0979081 0.00103344)
(0.000739161 -0.11195 0.00110639)
(0.00101819 -0.118177 0.00111622)
(0.0012793 -0.120284 0.00110212)
(0.00153065 -0.120013 0.00107986)
(0.00176955 -0.117954 0.00105873)
(0.00199005 -0.114295 0.00104673)
(0.00218843 -0.109103 0.00105165)
(0.0023621 -0.102443 0.00108073)
(0.00250992 -0.0944354 0.00113953)
(0.00263274 -0.0852681 0.00123075)
(0.00273339 -0.0751715 0.00135351)
(0.00281591 -0.0643793 0.00150311)
(0.00288475 -0.0531016 0.00167072)
(0.00294378 -0.0415137 0.00184313)
(0.00299546 -0.0297601 0.00200252)
(0.00303997 -0.0179683 0.00212679)
(0.00307457 -0.00627073 0.0021911)
(0.00309332 0.00517248 0.00217158)
(0.00308838 0.0161917 0.0020521)
(0.00305134 0.0266887 0.00183066)
(0.0029751 0.0367102 0.00152098)
(0.00285413 0.0464734 0.00114937)
(0.00268414 0.0563461 0.000750268)
(0.00246192 0.0667711 0.000363384)
(0.00218671 0.0781068 3.15104e-05)
(0.00186205 0.0903335 -0.000205642)
(0.00149638 0.102596 -0.000325245)
(0.00110941 0.112753 -0.000338208)
(0.000758469 0.117808 -0.000290813)
(0.000442288 0.114806 -0.000212035)
(0.00016456 0.0952553 -0.000102646)
(1.09675e-05 0.0456876 -8.80437e-06)
(1.49241e-05 -0.030673 0.000372385)
(0.00018558 -0.0736029 0.000795913)
(0.000434977 -0.100254 0.000980738)
(0.000717819 -0.114441 0.00103476)
(0.000987987 -0.120664 0.00103221)
(0.00124078 -0.122729 0.00101019)
(0.00148411 -0.12239 0.000982591)
(0.00171479 -0.120238 0.000957898)
(0.00192687 -0.116464 0.000943874)
(0.00211676 -0.111136 0.000948311)
(0.00228207 -0.10433 0.000978545)
(0.0024217 -0.096178 0.00104035)
(0.0025366 -0.0868835 0.00113683)
(0.00262968 -0.0766861 0.00126774)
(0.00270514 -0.0658242 0.00142924)
(0.00276766 -0.0545064 0.00161356)
(0.0028215 -0.0428991 0.00180866)
(0.00286961 -0.0311308 0.00199777)
(0.00291268 -0.0193066 0.00215923)
(0.00294839 -0.00753245 0.0022674)
(0.00297086 0.004057 0.00229567)
(0.00297168 0.0153065 0.00222309)
(0.00294143 0.0261162 0.00204202)
(0.00287183 0.0365225 0.00176143)
(0.00275645 0.0467279 0.00140484)
(0.00259068 0.0570838 0.00100589)
(0.00237173 0.0680117 0.000604809)
(0.00209982 0.0798344 0.000245782)
(0.00177987 0.0924732 -2.89569e-05)
(0.0014219 0.104993 -0.000191715)
(0.00104782 0.115185 -0.00024543)