/*--------------------------------*- C++ -*----------------------------------*\
| =========                 |                                                 |
| \\      /  F ield         | OpenFOAM: The Open Source CFD Toolbox           |
|  \\    /   O peration     | Version:  v1912                                 |
|   \\  /    A nd           | Website:  www.openfoam.com                      |
|    \\/     M anipulation  |                                                 |
\*---------------------------------------------------------------------------*/
FoamFile
{
    version     2.0;
    format      ascii;
    class       surfaceScalarField;
    location    "154/oil";
    object      phi;
}
// * * * * * * * * * * * * * * * * * * * * * * * * * * * * * * * * * * * * * //

dimensions      [1 0 -1 0 0 0 0];
oriented        oriented;


internalField   nonuniform List<scalar> 
104676
(
-7.97266e-12
2.37669e-11
-1.05398e-11
2.3849e-10
-1.9569e-10
-5.0645e-11
7.42989e-10
-3.66219e-10
-1.38128e-10
1.42694e-09
-4.46397e-10
-2.37394e-10
2.18977e-09
-4.56319e-10
-3.06356e-10
2.93118e-09
-4.15106e-10
-3.26146e-10
3.56071e-09
-3.37743e-10
-2.91629e-10
4.00277e-09
-2.35329e-10
-2.06568e-10
4.19843e-09
-1.16432e-10
-7.90575e-11
4.11578e-09
8.26602e-12
7.45612e-11
3.73908e-09
1.37009e-10
2.39879e-10
3.09439e-09
2.42135e-10
4.0272e-10
2.2154e-09
3.37686e-10
5.41468e-10
1.16519e-09
4.06917e-10
6.43462e-10
2.40779e-11
4.43526e-10
6.97744e-10
-1.12066e-09
4.4554e-10
6.99367e-10
-2.17394e-09
4.07408e-10
6.46062e-10
-3.05679e-09
3.37586e-10
5.45447e-10
-3.70815e-09
2.43841e-10
4.07723e-10
-4.09002e-09
1.34293e-10
2.4778e-10
-4.18331e-09
9.50497e-12
8.40042e-11
-3.99253e-09
-1.18511e-10
-7.20559e-11
-3.55453e-09
-2.3696e-10
-2.00815e-10
-2.92813e-09
-3.39273e-10
-2.86899e-10
-2.18932e-09
-4.16341e-10
-3.22259e-10
-1.42838e-09
-4.58414e-10
-3.02322e-10
-7.45135e-10
-4.49769e-10
-2.33297e-10
-2.40284e-10
-3.70334e-10
-1.34347e-10
7.81144e-12
-1.99919e-10
-4.80201e-11
1.80884e-11
-1.01822e-11
2.43134e-10
-4.62482e-10
2.43226e-10
9.35284e-10
-1.38595e-09
4.98271e-10
2.03391e-09
-2.08134e-09
6.16659e-10
3.41666e-09
-2.50444e-09
6.75466e-10
4.91731e-09
-2.70695e-09
7.50145e-10
6.35707e-09
-2.73906e-09
8.84371e-10
7.56708e-09
-2.64361e-09
1.09604e-09
8.40124e-09
-2.4543e-09
1.385e-09
8.74572e-09
-2.19938e-09
1.73866e-09
8.5276e-09
-1.90423e-09
2.13082e-09
7.71287e-09
-1.59377e-09
2.54571e-09
6.34651e-09
-1.32188e-09
2.93057e-09
4.53062e-09
-1.08272e-09
3.23649e-09
2.38015e-09
-9.09659e-10
3.46723e-09
4.86083e-11
-8.19098e-10
3.59435e-09
-2.29209e-09
-8.19568e-10
3.606e-09
-4.44874e-09
-9.13587e-10
3.47786e-09
-6.26688e-09
-1.08952e-09
3.24545e-09
-7.62262e-09
-1.32908e-09
2.92889e-09
-8.44053e-09
-1.60614e-09
2.55857e-09
-8.67242e-09
-1.91235e-09
2.15398e-09
-8.34034e-09
-2.20538e-09
1.75505e-09
-7.52106e-09
-2.45786e-09
1.40187e-09
-6.32691e-09
-2.64645e-09
1.11328e-09
-4.90024e-09
-2.74288e-09
9.00115e-10
-3.41118e-09
-2.71232e-09
7.65077e-10
-2.03581e-09
-2.51371e-09
6.88777e-10
-9.38247e-10
-2.09385e-09
6.26122e-10
-2.43784e-10
-1.39665e-09
5.02429e-10
-4.68748e-10
2.43146e-10
5.09597e-10
-1.48648e-09
5.14537e-10
1.61839e-09
-3.59434e-09
1.09975e-09
3.17264e-09
-5.0988e-09
1.46339e-09
5.0194e-09
-6.07949e-09
1.72849e-09
6.9676e-09
-6.64249e-09
1.98754e-09
8.80701e-09
-6.87527e-09
2.297e-09
1.03323e-08
-6.85291e-09
2.68423e-09
1.13615e-08
-6.63721e-09
3.15389e-09
1.17527e-08
-6.28432e-09
3.69395e-09
1.14151e-08
-5.84134e-09
4.27496e-09
1.03041e-08
-5.35943e-09
4.87689e-09
8.46664e-09
-4.90385e-09
5.41959e-09
6.03578e-09
-4.50432e-09
5.85265e-09
3.16818e-09
-4.21258e-09
6.17071e-09
6.26693e-11
-4.06213e-09
6.34873e-09
-3.05782e-09
-4.06918e-09
6.3703e-09
-5.93478e-09
-4.22215e-09
6.18572e-09
-8.36667e-09
-4.51529e-09
5.85787e-09
-1.01943e-08
-4.91174e-09
5.41051e-09
-1.13208e-08
-5.37125e-09
4.89187e-09
-1.16783e-08
-5.85208e-09
4.29746e-09
-1.1302e-08
-6.29184e-09
3.71043e-09
-1.02883e-08
-6.64306e-09
3.1718e-09
-8.77919e-09
-6.85733e-09
2.70199e-09
-6.95457e-09
-6.88111e-09
2.31386e-09
-5.01663e-09
-6.65257e-09
2.00254e-09
-3.17671e-09
-6.09391e-09
1.74047e-09
-1.62409e-09
-5.11653e-09
1.47024e-09
-5.12363e-10
-3.60855e-09
1.10033e-09
-1.49449e-09
5.13465e-10
7.29983e-10
-2.95529e-09
7.38939e-10
2.189e-09
-6.64623e-09
1.59303e-09
4.11246e-09
-9.17561e-09
2.15351e-09
6.31247e-09
-1.08646e-08
2.58531e-09
8.57889e-09
-1.19078e-08
2.99909e-09
1.06855e-08
-1.24389e-08
3.45726e-09
1.241e-08
-1.25688e-08
3.99163e-09
1.35535e-08
-1.23892e-08
4.60863e-09
1.39547e-08
-1.1983e-08
5.29766e-09
1.35089e-08
-1.14263e-08
6.03101e-09
1.21638e-08
-1.07961e-08
6.78197e-09
9.98276e-09
-1.01675e-08
7.44491e-09
7.11062e-09
-9.62007e-09
7.98809e-09
3.72963e-09
-9.19809e-09
8.36669e-09
7.1043e-11
-8.98304e-09
8.57967e-09
-3.60738e-09
-8.99811e-09
8.60752e-09
-7.0006e-09
-9.20837e-09
8.37964e-09
-9.87557e-09
-9.61896e-09
7.97883e-09
-1.20481e-08
-1.01692e-08
7.4302e-09
-1.34063e-08
-1.08002e-08
6.78739e-09
-1.38706e-08
-1.14307e-08
6.04315e-09
-1.34861e-08
-1.19861e-08
5.3101e-09
-1.23606e-08
-1.2392e-08
4.62375e-09
-1.06525e-08
-1.25716e-08
4.00643e-09
-8.56178e-09
-1.24442e-08
3.47255e-09
-6.30879e-09
-1.19183e-08
3.01296e-09
-4.11557e-09
-1.08818e-08
2.59491e-09
-2.19463e-09
-9.19257e-09
2.15526e-09
-7.35232e-10
-6.65264e-09
1.58483e-09
-2.96588e-09
7.36229e-10
8.9619e-10
-4.75594e-09
9.04556e-10
2.6254e-09
-1.03288e-08
1.9535e-09
4.83806e-09
-1.40491e-08
2.66096e-09
7.3107e-09
-1.65531e-08
3.21598e-09
9.81567e-09
-1.81585e-08
3.7459e-09
1.21156e-08
-1.90594e-08
4.32074e-09
1.39793e-08
-1.94064e-08
4.97404e-09
1.51969e-08
-1.93215e-08
5.7149e-09
1.55998e-08
-1.89151e-08
6.52945e-09
1.50727e-08
-1.82903e-08
7.39123e-09
1.35597e-08
-1.75528e-08
8.26994e-09
1.11263e-08
-1.67952e-08
9.06122e-09
7.91876e-09
-1.61148e-08
9.70246e-09
4.1509e-09
-1.55621e-08
1.0132e-08
7.66068e-11
-1.52825e-08
1.0374e-08
-4.02092e-09
-1.53031e-08
1.04027e-08
-7.79773e-09
-1.55751e-08
1.01438e-08
-1.10023e-08
-1.60944e-08
9.68017e-09
-1.34358e-08
-1.67892e-08
9.05371e-09
-1.49637e-08
-1.75514e-08
8.27931e-09
-1.55098e-08
-1.829e-08
7.40566e-09
-1.51253e-08
-1.89151e-08
6.54472e-09
-1.39252e-08
-1.93227e-08
5.73072e-09
-1.20775e-08
-1.94087e-08
4.98966e-09
-9.79298e-09
-1.9064e-08
4.33554e-09
-7.30227e-09
-1.81673e-08
3.75846e-09
-4.83956e-09
-1.65678e-08
3.22343e-09
-2.62939e-09
-1.40621e-08
2.65951e-09
-9.00797e-10
-1.03225e-08
1.9414e-09
-4.76883e-09
9.02213e-10
1.00783e-09
-6.78143e-09
1.01772e-09
2.92888e-09
-1.44439e-08
2.19411e-09
5.35177e-09
-1.94746e-08
3.00271e-09
8.02224e-09
-2.28692e-08
3.6458e-09
1.06993e-08
-2.50958e-08
4.26038e-09
1.31383e-08
-2.64232e-08
4.9249e-09
1.51027e-08
-2.70454e-08
5.67479e-09
1.63769e-08
-2.71168e-08
6.52118e-09
1.6786e-08
-2.67727e-08
7.44863e-09
1.62104e-08
-2.61403e-08
8.42585e-09
1.45913e-08
-2.53489e-08
9.41534e-09
1.19733e-08
-2.45256e-08
1.03486e-08
8.51773e-09
-2.37504e-08
1.10914e-08
4.46222e-09
-2.30765e-08
1.15701e-08
7.71832e-11
-2.27246e-08
1.18272e-08
-4.33312e-09
-2.2747e-08
1.18543e-08
-8.38949e-09
-2.31072e-08
1.15886e-08
-1.18352e-08
-2.37116e-08
1.10631e-08
-1.44584e-08
-2.45133e-08
1.03476e-08
-1.60952e-08
-2.5345e-08
9.43052e-09
-1.66922e-08
-2.61372e-08
8.44441e-09
-1.63028e-08
-2.67715e-08
7.46728e-09
-1.50465e-08
-2.71181e-08
6.53928e-09
-1.30983e-08
-2.70484e-08
5.69176e-09
-1.06734e-08
-2.64281e-08
4.93943e-09
-8.00966e-09
-2.51033e-08
4.27241e-09
-5.35001e-09
-2.28792e-08
3.65187e-09
-2.93319e-09
-1.94776e-08
2.99874e-09
-1.01303e-09
-1.44242e-08
2.1816e-09
-6.79835e-09
1.01653e-09
1.064e-09
-8.93268e-09
1.0873e-09
3.10309e-09
-1.88332e-08
2.3503e-09
5.6586e-09
-2.5242e-08
3.21206e-09
8.45181e-09
-2.95661e-08
3.90382e-09
1.12346e-08
-3.24542e-08
4.5758e-09
1.37598e-08
-3.42554e-08
5.30722e-09
1.57899e-08
-3.52105e-08
6.13513e-09
1.71052e-08
-3.55048e-08
7.0729e-09
1.75279e-08
-3.52978e-08
8.10251e-09
1.69318e-08
-3.47336e-08
9.18961e-09
1.52567e-08
-3.39644e-08
1.02907e-08
1.25175e-08
-3.31379e-08
1.13516e-08
8.90884e-09
-3.2343e-08
1.22014e-08
4.6664e-09
-3.15594e-08
1.27254e-08
8.33556e-11
-3.11414e-08
1.3e-08
-4.52104e-09
-3.11758e-08
1.30333e-08
-8.77854e-09
-3.16177e-08
1.27681e-08
-1.23759e-08
-3.22968e-08
1.21827e-08
-1.51204e-08
-3.31265e-08
1.13577e-08
-1.68145e-08
-3.39641e-08
1.03134e-08
-1.74319e-08
-3.47344e-08
9.21473e-09
-1.70297e-08
-3.52995e-08
8.12601e-09
-1.57325e-08
-3.55092e-08
7.09407e-09
-1.37189e-08
-3.52169e-08
6.15512e-09
-1.12071e-08
-3.42626e-08
5.32295e-09
-8.43702e-09
-3.24612e-08
4.58795e-09
-5.65534e-09
-2.95688e-08
3.9081e-09
-3.11067e-09
-2.52235e-08
3.2014e-09
-1.07701e-09
-1.87838e-08
2.32599e-09
-8.95985e-09
1.08453e-09
1.08505e-09
-1.1128e-08
1.1103e-09
3.15856e-09
-2.33167e-08
2.41007e-09
5.75796e-09
-3.11386e-08
3.29724e-09
8.59328e-09
-3.64111e-08
4.00977e-09
1.1408e-08
-3.99788e-08
4.70989e-09
1.39589e-08
-4.22925e-08
5.48626e-09
1.60123e-08
-4.36375e-08
6.37375e-09
1.73496e-08
-4.42274e-08
7.38526e-09
1.77894e-08
-4.42407e-08
8.50328e-09
1.7203e-08
-4.38374e-08
9.69027e-09
1.55194e-08
-4.31783e-08
1.08976e-08
1.27382e-08
-4.24313e-08
1.20747e-08
9.06099e-09
-4.17103e-08
1.30446e-08
4.73921e-09
-4.08366e-08
1.35991e-08
8.30417e-11
-4.03902e-08
1.3905e-08
-4.60105e-09
-4.04324e-08
1.39408e-08
-8.95473e-09
-4.0897e-08
1.36331e-08
-1.2605e-08
-4.16618e-08
1.30153e-08
-1.53846e-08
-4.24233e-08
1.20765e-08
-1.70859e-08
-4.31826e-08
1.09201e-08
-1.76944e-08
-4.38419e-08
9.71614e-09
-1.72749e-08
-4.42467e-08
8.52785e-09
-1.59551e-08
-4.42368e-08
7.40803e-09
-1.39174e-08
-4.36497e-08
6.39529e-09
-1.13795e-08
-4.23045e-08
5.50419e-09
-8.57771e-09
-3.99853e-08
4.72253e-09
-5.75796e-09
-3.63958e-08
4.00728e-09
-3.17112e-09
-3.10839e-08
3.27353e-09
-1.09696e-09
-2.32356e-08
2.37768e-09
-1.11664e-08
1.10961e-09
1.06627e-09
-1.32845e-08
1.09021e-09
3.09053e-09
-2.77188e-08
2.37781e-09
5.63705e-09
-3.69585e-08
3.2734e-09
8.42359e-09
-4.31846e-08
3.98705e-09
1.11917e-08
-4.74276e-08
4.68084e-09
1.36971e-08
-5.02632e-08
5.46531e-09
1.57195e-08
-5.20428e-08
6.38301e-09
1.70486e-08
-5.29966e-08
7.4402e-09
1.75029e-08
-5.33125e-08
8.6176e-09
1.69511e-08
-5.31624e-08
9.87692e-09
1.53259e-08
-5.27101e-08
1.11571e-08
1.26147e-08
-5.21176e-08
1.23977e-08
8.95826e-09
-5.15206e-08
1.34668e-08
4.67943e-09
-5.06208e-08
1.40631e-08
7.91625e-11
-5.02133e-08
1.44235e-08
-4.55485e-09
-5.02509e-08
1.44525e-08
-8.87755e-09
-5.06443e-08
1.407e-08
-1.25023e-08
-5.14474e-08
1.34103e-08
-1.51972e-08
-5.21113e-08
1.2383e-08
-1.6837e-08
-5.27189e-08
1.11761e-08
-1.74092e-08
-5.3173e-08
9.90336e-09
-1.69747e-08
-5.33244e-08
8.64332e-09
-1.56632e-08
-5.30122e-08
7.46393e-09
-1.36558e-08
-5.20621e-08
6.4052e-09
-1.11644e-08
-5.02771e-08
5.4813e-09
-8.41716e-09
-4.74106e-08
4.67805e-09
-5.65128e-09
-4.31143e-08
3.95275e-09
-3.11227e-09
-3.68435e-08
3.22063e-09
-1.07372e-09
-2.76147e-08
2.34059e-09
-1.33312e-08
1.09105e-09
1.01168e-09
-1.53185e-08
1.02237e-09
2.92261e-09
-3.18624e-08
2.23271e-09
5.30214e-09
-4.24429e-08
3.10489e-09
7.92459e-09
-4.96222e-08
3.81513e-09
1.05513e-08
-5.45436e-08
4.48937e-09
1.29308e-08
-5.78818e-08
5.2391e-09
1.48562e-08
-6.01111e-08
6.14301e-09
1.61338e-08
-6.14775e-08
7.20339e-09
1.65931e-08
-6.21667e-08
8.39493e-09
1.61e-08
-6.23481e-08
9.67888e-09
1.45903e-08
-6.21846e-08
1.09843e-08
1.20515e-08
-6.18221e-08
1.22434e-08
8.5316e-09
-6.13654e-08
1.33647e-08
4.45396e-09
-6.05557e-08
1.40125e-08
7.39275e-11
-6.02276e-08
1.43944e-08
-4.33222e-09
-6.02633e-08
1.44186e-08
-8.43928e-09
-6.05354e-08
1.39981e-08
-1.19419e-08
-6.12179e-08
1.32732e-08
-1.44698e-08
-6.18053e-08
1.2222e-08
-1.59901e-08
-6.21997e-08
1.10012e-08
-1.65029e-08
-6.23649e-08
9.70476e-09
-1.60635e-08
-6.21841e-08
8.42043e-09
-1.48017e-08
-6.15007e-08
7.22676e-09
-1.28888e-08
-6.01378e-08
6.16285e-09
-1.05299e-08
-5.78778e-08
5.24176e-09
-7.93369e-09
-5.44553e-08
4.44859e-09
-5.31956e-09
-4.94688e-08
3.74037e-09
-2.9253e-09
-4.22742e-08
3.03655e-09
-1.00832e-09
-3.1734e-08
2.20233e-09
-1.53673e-08
1.02783e-09
9.13077e-10
-1.71392e-08
9.0752e-10
2.64374e-09
-3.55491e-08
1.95603e-09
4.77649e-09
-4.73134e-08
2.73784e-09
7.1066e-09
-5.5385e-08
3.4328e-09
9.46958e-09
-6.09907e-08
4.0842e-09
1.16244e-08
-6.48142e-08
4.77767e-09
1.33774e-08
-6.74852e-08
5.62109e-09
1.45545e-08
-6.92873e-08
6.6327e-09
1.49984e-08
-7.0387e-08
7.77641e-09
1.45865e-08
-7.09417e-08
9.00547e-09
1.32719e-08
-7.10954e-08
1.02255e-08
1.10199e-08
-7.09528e-08
1.13828e-08
7.77645e-09
-7.06016e-08
1.24797e-08
4.05239e-09
-7.00733e-08
1.32417e-08
6.74351e-11
-6.98831e-08
1.36404e-08
-3.93369e-09
-6.99192e-08
1.3657e-08
-7.63956e-09
-7.0058e-08
1.32285e-08
-1.08258e-08
-7.05312e-08
1.24996e-08
-1.31118e-08
-7.10479e-08
1.15286e-08
-1.44747e-08
-7.11425e-08
1.03058e-08
-1.49107e-08
-7.09663e-08
9.03733e-09
-1.44881e-08
-7.0404e-08
7.79741e-09
-1.33243e-08
-6.93149e-08
6.65044e-09
-1.15796e-08
-6.7515e-08
5.63259e-09
-9.44668e-09
-6.4768e-08
4.75729e-09
-7.10511e-09
-6.08033e-08
4.00644e-09
-4.74587e-09
-5.51669e-08
3.33893e-09
-2.59696e-09
-4.71177e-08
2.69459e-09
-8.86556e-10
-3.53942e-08
1.94976e-09
-1.71681e-08
9.14195e-10
7.69511e-10
-1.86578e-08
7.49141e-10
2.24439e-09
-3.85966e-08
1.57256e-09
4.04692e-09
-5.12787e-08
2.16273e-09
6.00168e-09
-6.00953e-08
2.75559e-09
7.94883e-09
-6.63201e-08
3.38229e-09
9.75742e-09
-7.06511e-08
4.02835e-09
1.12528e-08
-7.37531e-08
4.77249e-09
1.22815e-08
-7.59903e-08
5.67434e-09
1.27006e-08
-7.75039e-08
6.69787e-09
1.23983e-08
-7.84045e-08
7.76494e-09
1.13004e-08
-7.88083e-08
8.81096e-09
9.33746e-09
-7.89093e-08
9.91944e-09
6.59868e-09
-7.88283e-08
1.09654e-08
3.44939e-09
-7.85945e-08
1.16705e-08
5.71846e-11
-7.85203e-08
1.20294e-08
-3.35981e-09
-7.8501e-08
1.19988e-08
-6.51594e-09
-7.8473e-08
1.15712e-08
-9.21722e-09
-7.87221e-08
1.08921e-08
-1.11466e-08
-7.91397e-08
1.00212e-08
-1.22715e-08
-7.88962e-08
8.87863e-09
-1.26044e-08
-7.84023e-08
7.76882e-09
-1.22149e-08
-7.74851e-08
6.69158e-09
-1.12013e-08
-7.60048e-08
5.67624e-09
-9.69825e-09
-7.37848e-08
4.76681e-09
-7.89158e-09
-7.05706e-08
3.99603e-09
-5.93126e-09
-6.61187e-08
3.35515e-09
-3.98297e-09
-5.99288e-08
2.81357e-09
-2.19384e-09
-5.11951e-08
2.28818e-09
-7.57086e-10
-3.84896e-08
1.6587e-09
-1.86995e-08
7.74313e-10
5.90579e-10
-1.98134e-08
5.64942e-10
1.70085e-09
-4.09098e-08
1.20296e-09
3.09301e-09
-5.42948e-08
1.62394e-09
4.58401e-09
-6.35735e-08
1.98717e-09
6.02941e-09
-7.02029e-08
2.43746e-09
7.37494e-09
-7.49795e-08
2.98291e-09
8.51008e-09
-7.84866e-08
3.5984e-09
9.33147e-09
-8.11096e-08
4.29791e-09
9.73333e-09
-8.29879e-08
5.08214e-09
9.5207e-09
-8.4124e-08
5.93212e-09
8.57967e-09
-8.47444e-08
6.87709e-09
7.00132e-09
-8.51788e-08
7.84788e-09
5.01602e-09
-8.55097e-08
8.66674e-09
2.65382e-09
-8.5462e-08
9.22972e-09
5.023e-11
-8.54171e-08
9.50036e-09
-2.5972e-09
-8.5292e-08
9.43841e-09
-5.00909e-09
-8.51532e-08
9.09206e-09
-7.03946e-09
-8.51999e-08
8.50819e-09
-8.57191e-09
-8.52896e-08
7.68235e-09
-9.42185e-09
-8.47161e-08
6.66982e-09
-9.62896e-09
-8.39907e-08
5.79555e-09
-9.29979e-09
-8.28009e-08
4.9867e-09
-8.52399e-09
-8.10243e-08
4.24372e-09
-7.39625e-09
-7.85307e-08
3.61819e-09
-6.02224e-09
-7.50237e-08
3.07907e-09
-4.5293e-09
-7.02007e-08
2.58903e-09
-3.04124e-09
-6.35725e-08
2.15568e-09
-1.67465e-09
-5.43009e-08
1.73923e-09
-5.78744e-10
-4.08427e-08
1.25712e-09
-1.9864e-08
5.85757e-10
3.9922e-10
-2.05565e-08
3.43854e-10
1.07663e-09
-4.23097e-08
7.22448e-10
1.94618e-09
-5.62088e-08
1.04446e-09
2.88999e-09
-6.58211e-08
1.30381e-09
3.81613e-09
-7.27315e-08
1.60238e-09
4.68307e-09
-7.77927e-08
1.94629e-09
5.41134e-09
-8.15269e-08
2.31201e-09
5.90625e-09
-8.42837e-08
2.67914e-09
6.17343e-09
-8.63344e-08
3.07929e-09
6.01896e-09
-8.76371e-08
3.66756e-09
5.4013e-09
-8.85177e-08
4.39097e-09
4.44468e-09
-8.92787e-08
5.05654e-09
3.19253e-09
-8.98351e-08
5.5775e-09
1.69594e-09
-8.99051e-08
5.9396e-09
5.76269e-11
-8.99197e-08
6.14082e-09
-1.60589e-09
-8.97524e-08
6.12391e-09
-3.13101e-09
-8.95485e-08
5.92042e-09
-4.38979e-09
-8.949e-08
5.54891e-09
-5.37305e-09
-8.93484e-08
5.04203e-09
-5.97777e-09
-8.84848e-08
4.37339e-09
-6.20319e-09
-8.74329e-08
3.66756e-09
-6.02766e-09
-8.59864e-08
3.00987e-09
-5.4955e-09
-8.40614e-08
2.50491e-09
-4.70919e-09
-8.14759e-08
2.15888e-09
-3.80151e-09
-7.78161e-08
1.88468e-09
-2.84796e-09
-7.27719e-08
1.61763e-09
-1.907e-09
-6.58664e-08
1.35291e-09
-1.047e-09
-5.62517e-08
1.09077e-09
-3.62196e-10
-4.23141e-08
7.86619e-10
-2.05924e-08
3.66213e-10
1.46332e-10
-2.08201e-08
1.17309e-10
3.75684e-10
-4.279e-08
2.50922e-10
6.83109e-10
-5.68905e-08
3.74285e-10
1.02084e-09
-6.66262e-08
4.67399e-10
1.362e-09
-7.36334e-08
5.60758e-10
1.70757e-09
-7.87772e-08
6.38933e-10
2.02888e-09
-8.25558e-08
7.07518e-10
2.22125e-09
-8.52945e-08
8.18419e-10
2.24935e-09
-8.73541e-08
9.9156e-10
2.12966e-09
-8.87553e-08
1.23787e-09
1.93808e-09
-8.98222e-08
1.49607e-09
1.65619e-09
-9.07118e-08
1.71496e-09
1.12597e-09
-9.11688e-08
1.86395e-09
5.62789e-10
-9.13116e-08
1.96974e-09
3.54189e-11
-9.14676e-08
2.07534e-09
-5.51277e-10
-9.133e-08
2.16436e-09
-1.10017e-09
-9.11591e-08
2.15955e-09
-1.53436e-09
-9.10737e-08
2.01789e-09
-1.87634e-09
-9.08363e-08
1.82992e-09
-2.08792e-09
-8.98726e-08
1.59941e-09
-2.17403e-09
-8.87028e-08
1.35596e-09
-2.12076e-09
-8.71606e-08
1.12089e-09
-1.93501e-09
-8.5176e-08
9.28903e-10
-1.65615e-09
-8.25376e-08
7.82773e-10
-1.3319e-09
-7.88016e-08
6.61317e-10
-9.92634e-10
-7.36635e-08
5.52292e-10
-6.5927e-10
-6.66566e-08
4.56767e-10
-3.57925e-10
-5.69206e-08
3.67523e-10
-1.23159e-10
-4.28113e-08
2.62369e-10
-2.08419e-08
1.26267e-10
-1.01959e-10
-2.0606e-08
-1.12231e-10
-3.16841e-10
-4.23487e-08
-2.26424e-10
-5.80933e-10
-5.63177e-08
-3.08685e-10
-8.69775e-10
-6.5953e-08
-3.84419e-10
-1.16764e-09
-7.28808e-08
-4.54704e-10
-1.46715e-09
-7.79733e-08
-5.04476e-10
-1.74685e-09
-8.17346e-08
-5.41494e-10
-1.92419e-09
-8.45022e-08
-6.15034e-10
-1.92701e-09
-8.65642e-08
-7.87101e-10
-1.7962e-09
-8.78408e-08
-1.04528e-09
-1.62765e-09
-8.87001e-08
-1.29066e-09
-1.48286e-09
-8.94021e-08
-1.45453e-09
-1.25345e-09
-8.98378e-08
-1.56044e-09
-7.7242e-10
-9.0121e-08
-1.67168e-09
-6.97819e-11
-9.03281e-08
-1.84217e-09
5.06734e-10
-8.99981e-08
-1.90844e-09
1.00279e-09
-8.98238e-08
-1.83137e-09
1.44871e-09
-8.98094e-08
-1.71019e-09
1.69357e-09
-8.95267e-08
-1.55444e-09
1.85069e-09
-8.86583e-08
-1.37155e-09
1.92874e-09
-8.76136e-08
-1.16728e-09
1.88577e-09
-8.61599e-08
-9.57756e-10
1.73794e-09
-8.42345e-08
-7.93732e-10
1.48991e-09
-8.16139e-08
-6.75671e-10
1.2026e-09
-7.79291e-08
-5.85284e-10
9.04662e-10
-7.2866e-08
-4.99554e-10
6.07134e-10
-6.59451e-08
-4.1401e-10
3.3749e-10
-5.63228e-08
-3.28159e-10
1.21623e-10
-4.23675e-08
-2.28022e-10
-2.0614e-08
-1.06298e-10
-3.47727e-10
-1.99072e-08
-3.51073e-10
-1.00997e-09
-4.09354e-08
-7.5101e-10
-1.83635e-09
-5.44487e-08
-1.04265e-09
-2.74114e-09
-6.37536e-08
-1.29459e-09
-3.65014e-09
-7.04144e-08
-1.55751e-09
-4.49271e-09
-7.52794e-08
-1.85136e-09
-5.19271e-09
-7.88541e-08
-2.18052e-09
-5.68833e-09
-8.1455e-08
-2.55152e-09
-5.91754e-09
-8.33669e-08
-2.96808e-09
-5.74037e-09
-8.45101e-08
-3.50779e-09
-5.15021e-09
-8.51067e-08
-4.18351e-09
-4.3006e-09
-8.54595e-08
-4.7922e-09
-3.14481e-09
-8.57336e-08
-5.26005e-09
-1.69096e-09
-8.59473e-08
-5.62763e-09
-2.6884e-11
-8.61259e-08
-5.86635e-09
1.58064e-09
-8.5761e-08
-5.84455e-09
3.09221e-09
-8.56926e-08
-5.64261e-09
4.41476e-09
-8.58541e-08
-5.27779e-09
5.20754e-09
-8.55451e-08
-4.77441e-09
5.72267e-09
-8.49725e-08
-4.20095e-09
5.95067e-09
-8.43002e-08
-3.54145e-09
5.77931e-09
-8.31353e-08
-2.85325e-09
5.28477e-09
-8.13395e-08
-2.40051e-09
4.52854e-09
-7.87582e-08
-2.09945e-09
3.66022e-09
-7.52318e-08
-1.82894e-09
2.76117e-09
-7.04086e-08
-1.55841e-09
1.85891e-09
-6.37591e-08
-1.28377e-09
1.03925e-09
-5.4488e-08
-1.0152e-09
3.77634e-10
-4.09996e-08
-7.06317e-10
-1.98994e-08
-3.36999e-10
-5.69494e-10
-1.87667e-08
-5.70966e-10
-1.64127e-09
-3.86375e-08
-1.22616e-09
-2.97948e-09
-5.14086e-08
-1.70191e-09
-4.43778e-09
-6.01828e-08
-2.11263e-09
-5.89576e-09
-6.64151e-08
-2.54135e-09
-7.22722e-09
-7.09101e-08
-3.03797e-09
-8.31273e-09
-7.41583e-08
-3.6104e-09
-9.08136e-09
-7.64131e-08
-4.27337e-09
-9.46578e-09
-7.79615e-08
-5.02098e-09
-9.27667e-09
-7.88982e-08
-5.801e-09
-8.37823e-09
-7.93068e-08
-6.69836e-09
-6.88648e-09
-7.9324e-08
-7.62734e-09
-4.93446e-09
-7.92722e-08
-8.41356e-09
-2.60747e-09
-7.92879e-08
-8.98653e-09
-3.11881e-11
-7.94066e-08
-9.29557e-09
2.53238e-09
-7.90985e-08
-9.22596e-09
4.92017e-09
-7.91489e-08
-8.93147e-09
6.98768e-09
-7.95466e-08
-8.37499e-09
8.39313e-09
-7.93827e-08
-7.56792e-09
9.24236e-09
-7.91433e-08
-6.6785e-09
9.49892e-09
-7.87732e-08
-5.78366e-09
9.17272e-09
-7.79226e-08
-4.88652e-09
8.36776e-09
-7.64221e-08
-4.11242e-09
7.2269e-09
-7.41487e-08
-3.4686e-09
5.87611e-09
-7.09633e-08
-2.91769e-09
4.44496e-09
-6.65505e-08
-2.42695e-09
3.01472e-09
-6.03315e-08
-1.99739e-09
1.69322e-09
-5.15786e-08
-1.58799e-09
6.05048e-10
-3.87944e-08
-1.117e-09
-1.87551e-08
-5.39272e-10
-7.60528e-10
-1.72509e-08
-7.5537e-10
-2.17181e-09
-3.5601e-08
-1.62525e-09
-3.93736e-09
-4.73759e-08
-2.26714e-09
-5.86426e-09
-5.54571e-08
-2.79885e-09
-7.79966e-09
-6.11385e-08
-3.34135e-09
-9.59255e-09
-6.51426e-08
-3.97466e-09
-1.1085e-08
-6.79294e-08
-4.73652e-09
-1.20933e-08
-6.97711e-08
-5.63373e-09
-1.25048e-08
-7.09139e-08
-6.63602e-09
-1.22119e-08
-7.1517e-08
-7.67418e-09
-1.11126e-08
-7.16997e-08
-8.70632e-09
-9.1458e-09
-7.15285e-08
-9.76238e-09
-6.49596e-09
-7.11607e-08
-1.07615e-08
-3.40289e-09
-7.08879e-08
-1.14932e-08
-2.56905e-11
-7.09026e-08
-1.18813e-08
3.34396e-09
-7.06841e-08
-1.1784e-08
6.46857e-09
-7.08557e-08
-1.14177e-08
9.1606e-09
-7.14676e-08
-1.0771e-08
1.10935e-08
-7.16048e-08
-9.7109e-09
1.22056e-08
-7.16729e-08
-8.58263e-09
1.25281e-08
-7.15133e-08
-7.58246e-09
1.21361e-08
-7.09433e-08
-6.5874e-09
1.11266e-08
-6.98137e-08
-5.59895e-09
9.6507e-09
-6.79666e-08
-4.70612e-09
7.86192e-09
-6.52184e-08
-3.95619e-09
5.93807e-09
-6.13218e-08
-3.30485e-09
4.03247e-09
-5.57608e-08
-2.6652e-09
2.25532e-09
-4.77393e-08
-2.06224e-09
7.97099e-10
-3.58802e-08
-1.45612e-09
-1.72441e-08
-7.13843e-10
-9.08965e-10
-1.5442e-08
-8.99934e-10
-2.58816e-09
-3.19955e-08
-1.92636e-09
-4.71179e-09
-4.25605e-08
-2.69188e-09
-7.05477e-09
-4.97795e-08
-3.33462e-09
-9.39259e-09
-5.48114e-08
-3.98933e-09
-1.15253e-08
-5.82805e-08
-4.7296e-09
-1.32704e-08
-6.05848e-08
-5.59949e-09
-1.44376e-08
-6.19955e-08
-6.60844e-09
-1.48737e-08
-6.27299e-08
-7.74778e-09
-1.44631e-08
-6.29586e-08
-8.96891e-09
-1.31479e-08
-6.28317e-08
-1.01832e-08
-1.08892e-08
-6.24822e-08
-1.13052e-08
-7.72187e-09
-6.19886e-08
-1.23396e-08
-4.00827e-09
-6.14357e-08
-1.31659e-08
-1.89766e-11
-6.12535e-08
-1.36383e-08
3.95662e-09
-6.10976e-08
-1.3562e-08
7.65995e-09
-6.1402e-08
-1.31569e-08
1.08248e-08
-6.2171e-08
-1.24613e-08
1.31138e-08
-6.25336e-08
-1.13602e-08
1.44617e-08
-6.28527e-08
-1.01683e-08
1.48867e-08
-6.29832e-08
-8.95525e-09
1.44575e-08
-6.27654e-08
-7.74874e-09
1.32946e-08
-6.20386e-08
-6.61225e-09
1.15589e-08
-6.06308e-08
-5.60013e-09
9.42117e-09
-5.8337e-08
-4.74361e-09
7.06702e-09
-5.492e-08
-4.04768e-09
4.72684e-09
-4.99923e-08
-3.42834e-09
2.61499e-09
-4.28482e-08
-2.77924e-09
9.16032e-10
-3.22101e-08
-1.97114e-09
-1.54299e-08
-8.98259e-10
-1.00933e-09
-1.34088e-08
-1.02397e-09
-2.9188e-09
-2.78784e-08
-2.20765e-09
-5.30931e-09
-3.71315e-08
-3.03847e-09
-7.921e-09
-4.34337e-08
-3.73425e-09
-1.05205e-08
-4.77767e-08
-4.43542e-09
-1.2887e-08
-5.06884e-08
-5.22577e-09
-1.4807e-08
-5.25189e-08
-6.14602e-09
-1.60794e-08
-5.35154e-08
-7.20769e-09
-1.65321e-08
-5.38745e-08
-8.40258e-09
-1.60372e-08
-5.37656e-08
-9.68782e-09
-1.45269e-08
-5.33515e-08
-1.09906e-08
-1.20035e-08
-5.27934e-08
-1.22123e-08
-8.52497e-09
-5.22019e-08
-1.32655e-08
-4.39434e-09
-5.15391e-08
-1.40275e-08
-1.27923e-11
-5.11508e-08
-1.44843e-08
4.37845e-09
-5.10516e-08
-1.44371e-08
8.49729e-09
-5.14717e-08
-1.4049e-08
1.19595e-08
-5.22596e-08
-1.33735e-08
1.4501e-08
-5.28157e-08
-1.22595e-08
1.60272e-08
-5.33736e-08
-1.10056e-08
1.65345e-08
-5.37912e-08
-9.69945e-09
1.60896e-08
-5.39062e-08
-8.41436e-09
1.48229e-08
-5.35532e-08
-7.21872e-09
1.29083e-08
-5.25625e-08
-6.15364e-09
1.05431e-08
-5.0737e-08
-5.2348e-09
7.92713e-09
-4.78384e-08
-4.46569e-09
5.28775e-09
-4.35403e-08
-3.81274e-09
2.89126e-09
-3.72985e-08
-3.15335e-09
1.00306e-09
-2.80389e-08
-2.28309e-09
-1.33991e-08
-1.02777e-09
-1.05538e-09
-1.12523e-08
-1.10114e-09
-3.10825e-09
-2.34521e-08
-2.37346e-09
-5.6621e-09
-3.13474e-08
-3.23035e-09
-8.43665e-09
-3.67051e-08
-3.95409e-09
-1.11956e-08
-4.0339e-08
-4.679e-09
-1.37e-08
-4.26999e-08
-5.48413e-09
-1.57227e-08
-4.40852e-08
-6.41116e-09
-1.7051e-08
-4.47131e-08
-7.4741e-09
-1.75023e-08
-4.47631e-08
-8.6599e-09
-1.69443e-08
-4.43973e-08
-9.92623e-09
-1.53113e-08
-4.37714e-08
-1.1213e-08
-1.26065e-08
-4.30504e-08
-1.2448e-08
-8.96567e-09
-4.23301e-08
-1.35129e-08
-4.61551e-09
-4.16558e-08
-1.42337e-08
-6.96628e-12
-4.11808e-08
-1.45785e-08
4.61635e-09
-4.11403e-08
-1.45344e-08
8.94903e-09
-4.1614e-08
-1.41901e-08
1.25767e-08
-4.23644e-08
-1.35228e-08
1.52855e-08
-4.30675e-08
-1.24571e-08
1.69294e-08
-4.37892e-08
-1.12285e-08
1.74979e-08
-4.4418e-08
-9.942e-09
1.70555e-08
-4.47899e-08
-8.67406e-09
1.57345e-08
-4.47452e-08
-7.48707e-09
1.37153e-08
-4.41221e-08
-6.42104e-09
1.12126e-08
-4.27415e-08
-5.49283e-09
8.45064e-09
-4.03858e-08
-4.69073e-09
5.65904e-09
-3.67653e-08
-3.98341e-09
3.09724e-09
-3.14502e-08
-3.28658e-09
1.06461e-09
-2.35961e-08
-2.41026e-09
-1.12383e-08
-1.09621e-09
-1.08897e-09
-9.0432e-09
-1.12018e-09
-3.18117e-09
-1.89614e-08
-2.39855e-09
-5.78536e-09
-2.54591e-08
-3.28417e-09
-8.6225e-09
-2.98502e-08
-4.01788e-09
-1.1444e-08
-3.27819e-08
-4.73578e-09
-1.40026e-08
-3.46197e-08
-5.52199e-09
-1.60614e-08
-3.56072e-08
-6.41932e-09
-1.74017e-08
-3.59326e-08
-7.44018e-09
-1.78389e-08
-3.57564e-08
-8.5695e-09
-1.72439e-08
-3.52227e-08
-9.76952e-09
-1.55449e-08
-3.44818e-08
-1.09887e-08
-1.27633e-08
-3.36699e-08
-1.21623e-08
-9.10498e-09
-3.28626e-08
-1.31262e-08
-4.75013e-09
-3.22267e-08
-1.37842e-08
-3.78687e-11
-3.18133e-08
-1.40798e-08
4.65256e-09
-3.17692e-08
-1.40614e-08
8.99078e-09
-3.21753e-08
-1.37767e-08
1.27072e-08
-3.29062e-08
-1.31745e-08
1.5518e-08
-3.36863e-08
-1.21921e-08
1.72257e-08
-3.44913e-08
-1.10059e-08
1.78309e-08
-3.52375e-08
-9.78605e-09
1.74015e-08
-3.57763e-08
-8.58438e-09
1.60677e-08
-3.59583e-08
-7.45317e-09
1.4013e-08
-3.56364e-08
-6.43097e-09
1.14564e-08
-3.46521e-08
-5.53283e-09
8.63448e-09
-3.28181e-08
-4.74589e-09
5.79207e-09
-2.9891e-08
-4.03206e-09
3.17482e-09
-2.55149e-08
-3.31818e-09
1.07875e-09
-1.90512e-08
-2.44893e-09
-9.03639e-09
-1.12326e-09
-1.07967e-09
-6.86814e-09
-1.09545e-09
-3.12886e-09
-1.45698e-08
-2.34253e-09
-5.69425e-09
-1.96761e-08
-3.21763e-09
-8.50012e-09
-2.31171e-08
-3.92737e-09
-1.12965e-08
-2.53739e-08
-4.61181e-09
-1.38353e-08
-2.67277e-08
-5.35346e-09
-1.58747e-08
-2.73749e-08
-6.19309e-09
-1.71959e-08
-2.74699e-08
-7.14158e-09
-1.76179e-08
-2.71476e-08
-8.18675e-09
-1.70105e-08
-2.65377e-08
-9.29229e-09
-1.5313e-08
-2.57671e-08
-1.04123e-08
-1.25773e-08
-2.49441e-08
-1.14618e-08
-8.97752e-09
-2.41643e-08
-1.22985e-08
-4.70689e-09
-2.35836e-08
-1.2914e-08
-4.32027e-11
-2.32609e-08
-1.32162e-08
4.59276e-09
-2.32123e-08
-1.31927e-08
8.8696e-09
-2.35438e-08
-1.29082e-08
1.25185e-08
-2.42017e-08
-1.23533e-08
1.52854e-08
-2.49614e-08
-1.14919e-08
1.69899e-08
-2.5772e-08
-1.04241e-08
1.76045e-08
-2.65464e-08
-9.30598e-09
1.71924e-08
-2.71624e-08
-8.20187e-09
1.58775e-08
-2.74878e-08
-7.15565e-09
1.38419e-08
-2.73964e-08
-6.20454e-09
1.1306e-08
-2.67524e-08
-5.3638e-09
8.51093e-09
-2.54013e-08
-4.62176e-09
5.70224e-09
-2.31452e-08
-3.93719e-09
3.12964e-09
-1.97099e-08
-3.23251e-09
1.06768e-09
-1.46176e-08
-2.37175e-09
-6.87104e-09
-1.09774e-09
-1.01974e-09
-4.82255e-09
-1.0259e-09
-2.95717e-09
-1.04357e-08
-2.19671e-09
-5.39768e-09
-1.42179e-08
-3.01777e-09
-8.08515e-09
-1.67544e-08
-3.67542e-09
-1.07789e-08
-1.83783e-08
-4.30213e-09
-1.32346e-08
-1.92964e-08
-4.97585e-09
-1.52112e-08
-1.96605e-08
-5.73804e-09
-1.64935e-08
-1.95917e-08
-6.59598e-09
-1.69026e-08
-1.92005e-08
-7.53797e-09
-1.63135e-08
-1.85908e-08
-8.53585e-09
-1.46679e-08
-1.78619e-08
-9.55084e-09
-1.20501e-08
-1.7103e-08
-1.04592e-08
-8.59391e-09
-1.64247e-08
-1.11963e-08
-4.50084e-09
-1.59242e-08
-1.17528e-08
-3.79588e-11
-1.56671e-08
-1.20568e-08
4.40088e-09
-1.56276e-08
-1.20234e-08
8.5024e-09
-1.58987e-08
-1.17464e-08
1.19959e-08
-1.64473e-08
-1.12478e-08
1.46407e-08
-1.71167e-08
-1.04897e-08
1.62913e-08
-1.78678e-08
-9.55515e-09
1.68877e-08
-1.8596e-08
-8.54715e-09
1.64869e-08
-1.92094e-08
-7.55246e-09
1.52119e-08
-1.96036e-08
-6.60932e-09
1.32396e-08
-1.96747e-08
-5.74931e-09
1.07866e-08
-1.93135e-08
-4.98601e-09
8.09208e-09
-1.83963e-08
-4.31052e-09
5.40355e-09
-1.67734e-08
-3.68346e-09
2.9612e-09
-1.42411e-08
-3.0266e-09
1.01767e-09
-1.04645e-08
-2.20974e-09
-4.8263e-09
-1.02716e-09
-9.09235e-10
-3.00265e-09
-9.10716e-10
-2.65584e-09
-6.73283e-09
-1.95626e-09
-4.89158e-09
-9.3035e-09
-2.67869e-09
-7.38269e-09
-1.10154e-08
-3.248e-09
-9.90472e-09
-1.20673e-08
-3.78927e-09
-1.22226e-08
-1.26061e-08
-4.37269e-09
-1.40996e-08
-1.27463e-08
-5.03759e-09
-1.53256e-08
-1.25767e-08
-5.78907e-09
-1.57289e-08
-1.21796e-08
-6.61738e-09
-1.51897e-08
-1.16321e-08
-7.49774e-09
-1.36611e-08
-1.10057e-08
-8.38501e-09
-1.1225e-08
-1.03808e-08
-9.15865e-09
-7.9999e-09
-9.83451e-09
-9.81572e-09
-4.18305e-09
-9.43242e-09
-1.03091e-08
-3.25539e-11
-9.22631e-09
-1.05914e-08
4.09828e-09
-9.20302e-09
-1.05553e-08
7.9167e-09
-9.41752e-09
-1.02994e-08
1.11646e-08
-9.84163e-09
-9.85347e-09
1.36265e-08
-1.03862e-08
-9.1925e-09
1.5167e-08
-1.10096e-08
-8.39911e-09
1.57133e-08
-1.16351e-08
-7.50757e-09
1.53179e-08
-1.21844e-08
-6.62984e-09
1.40983e-08
-1.25833e-08
-5.80078e-09
1.22252e-08
-1.27547e-08
-5.04694e-09
9.90955e-09
-1.26159e-08
-4.38201e-09
7.38764e-09
-1.20782e-08
-3.79631e-09
4.89732e-09
-1.10292e-08
-3.25408e-09
2.66294e-09
-9.32408e-09
-2.68284e-09
9.11578e-10
-6.75428e-09
-1.95908e-09
-3.00511e-09
-9.09727e-10
-7.43783e-10
-1.516e-09
-7.42918e-10
-2.22088e-09
-3.65831e-09
-1.59745e-09