/*--------------------------------*- C++ -*----------------------------------*\
| =========                 |                                                 |
| \\      /  F ield         | OpenFOAM: The Open Source CFD Toolbox           |
|  \\    /   O peration     | Version:  v1912                                 |
|   \\  /    A nd           | Website:  www.openfoam.com                      |
|    \\/     M anipulation  |                                                 |
\*---------------------------------------------------------------------------*/
FoamFile
{
    version     2.0;
    format      ascii;
    class       volScalarField;
    location    "154/oil";
    object      wallHeatFlux;
}
// * * * * * * * * * * * * * * * * * * * * * * * * * * * * * * * * * * * * * //

dimensions      [1 0 -3 0 0 0 0];


internalField   uniform 0;

boundaryField
{
    maxY
    {
        type            calculated;
        value           uniform 0;
    }
    minX
    {
        type            calculated;
        value           uniform 0;
    }
    maxX
    {
        type            calculated;
        value           uniform 0;
    }
    minY
    {
        type            calculated;
        value           uniform 0;
    }
    minZ
    {
        type            calculated;
        value           uniform 0;
    }
    maxZ
    {
        type            calculated;
        value           uniform 0;
    }
    oil_to_sphere
    {
        type            calculated;
        value           nonuniform List<scalar> 
1536
(
6889.75
6649.61
6652.97
6194.83
6166.68
6629.68
6441.13
6508.74
6479.48
6224.6
6054.81
6253.85
6472.8
6273.01
5981.14
6408.13
6633.35
6664.77
6393.48
6461.89
6569.75
6480
6502.13
6405.85
6431.85
6417.83
6424.8
6374.92
6625.08
6496.45
6697.24
6648.76
6660.55
6404.57
6421.19
6372.41
6390.55
6317.34
6367.71
6419.9
6355.68
6394.45
6471.78
6528.31
6590.03
6417.06
6591.93
6523.11
5990.18
6420.83
6547.75
6485.08
6516.39
6399.93
6616.33
6787.34
6495.49
6463.15
6569.99
6539.04
6469.43
6468.86
6467.61
6394.9
6423
6457.09
6460.31
6556.36
6548.12
6609.32
6393.73
6196.11
6264.05
6419.15
6414.16
6801.22
6661.29
6337.12
6409.08
6660.66
6572.67
6543.99
6182.83
6173.59
6623.39
6848.97
6139.47
6439.77
6542.82
6539.61
6492.07
6379.57
6378.93
6388.26
6416.49
6524.13
6581.31
6594.28
6675.95
6533.81
6576.43
6389.02
6900.36
6553.71
6255.03
6412.05
6427.62
6215.26
6219
6913.18
6657.33
6513.66
6467.97
6508.52
6151.77
6188.89
6109.83
6742.59
6873.26
6676.51
6491.54
6507.55
6365.08
6575.89
6690.36
6545.93
6483.67
6347.61
6590.52
6559.83
6460.03
6551.03
6611.39
6424.64
6444.66
6617.59
6508.32
6664.6
6353.84
6635.26
6479.13
6559.46
6560.91
6474.31
6443.94
6469.64
6513.75
6801.29
6524.17
6909.75
6594.25
6709.27
6493.88
6510.02
6400.16
6577.39
6607.18
6625.41
6966.18
6761.31
6656.01
6824.69
6265.03
6306.09
6383.27
6373.85
6596.86
6753.96
6661.65
6827.58
6382.98
6399.55
6345.22
6590
6526.56
6536.25
6827.83
6390.16
6382.97
6843.52
6355.65
6304.29
6300.53
6320.79
6610.21
6852.52
6765.46
6369.98
6300.56
6661.96
6320.08
6619.14
6609.83
6719.64
6252.76
5947.15
6714.95
6743.64
6473.01
6405.07
6490.63
6438.19
6671.9
6714.12
6595.84
6547.06
6417.93
6745.98
6685.82
6583.5
6343.52
6421.32
6411.82
6474.24
6598.44
6808.41
6376.75
6267.36
6271.46
5923.34
6644.62
6586.41
6540.08
6494.28
6508.81
6757.98
6621.31
6454.97
6649.08
6236.63
6377.3
5967.08
6465.2
6661.37
6716.21
6700.08
6636.86
6583.28
6669.78
6254.53
6287.13
6412.44
6743.97
6341.63
5986.1
6111.41
6581.53
6551.56
6857.7
7014.77
6515.57
6183
5922.78
6538.62
6739.53
6387.64
6395.25
6130.16
6378.28
6754.64
6871.53
6494.12
6401.03
6762.91
6783.16
6415.49
6223.01
6484.65
6815.88
6754.42
6584.19
6613.19
6704
6308.88
6402.92
6720.38
6612.97
6700.65
6477.89
6655.14
6803.82
6604.78
6583.01
6757.85
6404.11
6394.65
6430.12
6355.78
6380.87
6725.41
6815.71
6373.99
6441.05
6429.44
6447.62
6370.71
6518.44
6483.75
6332.57
6140.22
6372.3
6255.65
6350.43
6856.56
6765.12
6765.31
7011.4
6282.91
6301.09
6548.36
6905.87
6931.09
6386.92
6486.33
6371.5
6608.12
6407.83
6577.97
6598.67
6681.7
6613.02
6439.18
6631.37
6365.59
6708.23
6741.2
6647.19
6632.01
6323.8
6830.22
6841.48
6641.68
6243.07
6402.98
6456.21
6601.21
6575.71
6599.97
6317.24
6704.8
6773.73
6672.23
6762.98
6554.55
6533.24
6476.18
6292
6547.84
6614.2
6285.76
6263.64
6308.45
6894.73
6710.36
6770.04
6564.46
6533.84
6745.74
6270.41
6843.83
6673.99
6528.34
6530.37
6260.22
6694.52
6702.5
6341.06
6526.68
6464.22
6406.2
6614.31
6700.48
6472.41
6425.49
6295.93
6806.68
6707.32
6266.75
6751.03
6727.91
6648.26
6802.16
6523.86
6625.77
6242.44
6244.88
6601.86
6977.31
6661.87
6876.95
6576.17
6436.7
6675.35
6323.59
6393.74
6598.46
6696.03
6618.95
6561.97
6338.59
6309.7
6724.98
6768.39
6709.05
6530.57
6394.2
6579.99
6629.71
6683.63
6541.96
6457.41
6356
6517.08
6317.79
6217.56
6386.98
6352.73
6515.4
6217.15
6435.22
6861.46
6430.45
6427.52
6698.49
6689.44
6600.39
6466.73
6274.09
6658.21
6764.18
6593.42
6553.44
6653.6
6495.07
6510.48
6562.14
6183
6632.45
6768.69
6772.39
6681.88
6633.87
6606.39
6541.4
6466.74
6322.29
6501.95
6340.52
6259.5
6358.98
6204.53
6864.59
6833.12
6736.45
6968.81
6386.51
6860.67
6309.98
6355
6630.48
6388.22
6305.32
6437.46
6414.37
6842.75
6774.82
6561.25
6584.34
6803.14
6729.02
6536.33
6631.47
6340.86
6693.74
6235.97
6771.29
6179.35
6647.11
6667.82
6687.94
6436.77
6297.26
6457.09
6693.3
6468.59
6222.99
6708.6
6715.57
6800.66
6926.02
6598.94
6774.32
6280.19
6312.67
6008.73
6094.39
6520.39
6425.16
6401.33
6362.87
6873.76
6409.24
6253.93
6215.64
6482.28
6289.09
6968.23
6363.38
6378.68
6512.76
6057.04
6118.26
6387.76
6381.83
6464.3
6420.52
6712.91
6681.34
6608.04
6533.2
6205.37
6406.81
6693.86
6318.09
6337.76
6648.79
6800.78
6351.23
6037.51
6287.07
6059.09
6490.88
6430.17
6377.53
6251.72
6028.52
6628.95
6653.46
6569.11
6503.36
6821.5
6632.21
6590.99
6538.43
6321.9
6404.25
6715.07
6617.21
6441.17
6099
6539.75
6725.19
6833.19
6548.66
6456.16
6812.73
6567.88
6774.84
6333.05
6403.9
6300.52
6426.22
6531.28
6786.55
6482.31
6346.6
6317.93
6505.21
6954.92
6301.69
6406.62
6251.54
6539.19
6531.18
6727.59
6807.74
6293
6237.83
6815.34
6866.93
6150.74
6830.74
6748.1
6663.4
6762.08
6606.79
6534.95
6532.97
6811.68
6541.98
6598.54
6520.71
6685.62
6559.6
6501.57
6488.08
6277.79
6652.25
6532.71
6686.17
6637.24
6648.96
6617
6547.79
6251.19
6731.48
6736.79
6613.73
6498.93
6563.78
6904
6307.96
6326.64
6277.35
6595.78
6437.57
6901.39
6439.39
6466.94
6530.2
6031
6042.87
6395.95
6389.24
6512
6297.14
6344.04
6617.03
6431.04
6804.81
6375.61
6880.1
6521.05
6591.84
6045.55
6039.35
5998.68
6385
6660.2
6416.97
6380.21
6051.97
6505.1
6703.05
6507.06
7076.97
6344.19
6710.28
6668.14
6654.72
6749
6756.02
6674.03
6519.44
6465.44
6503.6
6663.04
6471.55
6570.26
6563.47
6572.28
6687.47
6620.19
6657.27
6295.61
6340.67
5944.12
6124.61
6206.28
5799.44
6404.55
6422.26
6469.96
6503.56
6209.59
6282.86
6441.14
6757.67
6756.04
6437.49
6228.31
6477.73
6691.7
6651.29
6501.72
6223.24
6343.51
6614.94
6584.95
6498.01
6415.12
6636.29
6650.98
6807.07
6644.79
6540.88
6421.26
6338.63
6264.21
6459.03
6535.76
6916.13
6518.76
6871.02
6438.37
6948.34
6395.81
6474.81
6307.12
6339.79
6419.99
6289.52
6466.69
6215.74
6399.53
6727.06
6436.19
6269.75
6830.04
6638.42
6575.07
6500.42
6847.25
7080.8
6142.57
6621.86
6600.51
6600.5
6295.18
6496.25
6372.9
6581.24
6683.63
6717.38
6330.33
6618.97
6540.49
6632.57
6622.53
6583.95
6456.15
6483.53
6414.19
6232.82
6206.78
6312.47
6776.85
6402.88
6263.24
6408.3
6723.07
6458.31
6783.65
6693.11
6595.16
6541.21
6596.42
6831.29
6311.53
6612.38
6747.27
6752.11
6545.42
6362.68
6467.05
6601.51
6760.74
6302.37
6485.72
6544.43
6713.46
6579.36
6609.02
6791.46
6302.59
6377.2
6345.95
6838.71
6719.24
6525.19
6713.42
6374.61
6407.89
6712.19
6619.31
6799.97
6317.82
6666.78
6703.23
6543.44
6581.43
6656.55
6340.42
6187.01
6509.82
6614.12
6880.28
6483.5
6398.78
6497.9
6588.67
6667.3
6530.84
6373.74
6482.33
6694.45
6350.88
6351.99
6476.45
6395.72
6562.97
6538.91
6747.37
6607.41
6673.94
6413.17
6508.07
6561.53
6489.02
6450.16
6423.58
6413.81
6312.37
6633.28
6556.37
6547.94
6600.37
6235.55
6428.48
6834.51
6832.43
6366.67
6717.6
6588.39
6620.24
6420.91
6762.19
6734.04
6307.92
6454.2
6426.89
6419.87
6251.33
6280.42
6425.45
6740.94
6956.69
6389.26
6657.82
6631.91
6577.76
6471.53
6563.3
6751.56
6598.04
6317.7
6430.49
6411.07
6441.36
6603.94
6652.01
6637.13
6644.6
6657.09
6379.35
6652.27
6440.21
6635.38
6033.7
6603.15
6763.8
6449.48
6144.18
6538.73
6493.29
6850.27
6352.13
6653.33
6506.55
6185.25
6830.47
6272.37
6477.27
6506.93
6243
6721.3
6554.51
6478.97
6565.38
6553.75
6464.96
6858.72
6287.12
6424.23
5994.08
6511.19
6442.13
6514.84
6719.16
7078.47
6242.99
6434.27
6988.23
6278.15
6640.86
6368.2
6620.55
6149.46
6361.73
6979.74
6169.34
6966.97
6206.68
6845.82
6208.6
6348.23
6044.03
6305.97
6943.49
6079.44
6530.08
6173.9
6823.95
6945.51
6095.63
6508.85
6371.35
6315.7
6301.84
6417.49
6510.24
6513.01
6608.91
6491.08
6804.35
7004.76
6095.26
6573.4
6575.12
6507.64
6537.37
6484.18
6469.93
6480.97
6672.17
6496.05
6669.86
6425.79
6562.25
6770.4
6444.06
6598.98
6711.29
6419.23
6562.57
6501.21
6608.96
6473.91
6543.03
6454.85
6697.04
6433.04
6568.66
6211.53
6831.92
6101.17
6629.36
6703.67
6802.33
6353.07
6537.43
6487.3
6528.2
6547
6499.68
6671.55
6322.28
5934.09
6560.6
6150
6743.96
6361.81
6509.64
6693.81
5954.19
6843.08
6353.7
6046.83
6394.37
6634.93
6615.4
6531.52
6072.2
6541.37
6574.95
6387.19
6358.22
6747.48
6716.58
6416.97
6514.3
6747.99
6085.08
6701.63
6355.63
6607.64
6109.3
6976.37
6879.41
6690.05
6530.92
6482.17
6653.65
6464.88
6068.72
6303.07
6644.07
6365.98
6642.47
6137.83
6742.28
6639.58
5825.19
6545.41
6570.41
5972.72
6834.68
6201.59
6741.28
6830.41
6678.87
6020.98
6538.1
6467.73
6543.92
6549.99
6619.52
6081.72
6437.76
6363.55
6367.79
6739.14
6517.71
6616.09
6615.22
6610.83
6464.32
6536.15
6476.9
6566.86
6734.54
6406.56
6455.03
6389.78
6560.59
6703.14
6406.79
6439.79
6420.24
6518.78
6367.53
6379.32
6442.16
6459.61
6533.42
6461.68
6797.79
6689.66
6149.6
6186.52
6803.85
5792.52
6645.21
6575.18
6377.45
6465.93
6836.34
5964.67
6714.79
6604.71
6043.34
6431.96
6402.41
6550.38
5939.27
6756.93
6636.74
5950.86
6735.18
6768.53
6103.09
6802.2
6717.01
6110.16
6399.35
6373.9
5973.7
6514.8
6542.98
6340.29
6353.29
6393.48
5877.08
6339.74
6015.05
5856.39
6709.82
6370.14
6938.03
6434.04
6076.58
6749.65
6527.9
6003.99
6411.75
6405.53
5998.92
6175.03
6836.38
5722.08
6307.57
6351.69
5816.35
6727.1
6678.13
6513.98
6434.7
6410.13
6301.76
5901.96
6520.51
6432.12
6448.34
6515.28
6025.13
6673.56
6402.79
6488.25
6376.99
6478.59
6532.19
6298.46
6048.41
6438.6
6596.21
6395.37
6439.48
6505.94
6351.54
6453.19
6025.72
6424.7
6628.4
6380.37
6467.3
6358.42
6060.93
6805.53
6808.76
6736.02
6838.73
6098.4
5969.59
6441.37
6711.38
6541.18
6637.76
6674.35
6307.1
6251.44
6021.76
6125.47
6341.14
6490.86
6475.66
6465.19
6270.58
6701.43
6587.7
6114.13
6315.29
6299.69
6668.5
6351.2
5909.25
6579.1
6499.83
6715.34
6008.82
6423.13
6581.36
6418.89
6457.4
6633.51
6488.59
6304.62
6839.94
5822.62
6292.44
6510.28
6356.84
6428.74
6818.18
6602.8
6525.82
6236.77
6776.58
6424.18
6534.56
6671.71
6719.29
6697.56
6717.2
6807.66
6853.3
6788.18
6788.77
6577.05
6689.58
6404.27
6462.56
6277.35
6191.61
5867.99
6826.67
6809.61
6738.88
6445.21
6534.15
6520
6361.17
6553.23
6681.88
6320.35
6472.72
6621.05
6403.27
6410.64
6395.12
6442.76
6342.57
6433.78
6415.86
6107.73
6578.16
6331.37
6468.58
5991.21
6853.96
6481.76
6373.11
6338.53
6131.32
6512.28
6381.03
5969.64
6246.74
6472.49
6198.59
6234.85
6856.8
6886.59
6421.96
6421.97
6653.92
6807.72
5961.13
6405.91
6347.34
6428.17
6428.77
6447.43
6482.95
6259.45
6053.25
6788.93
6425.49
6212.09
6254
6413.58
6510.81
6141.03
6498.6
6375.59
6403.26
6811.06
6222.55
6075.03
6439.41
6388.88
6351.67
6060.74
6737.96
6421.96
6399.06
6415.44
5970.62
6437.72
6427.9
6085.68
6429.24
6243.07
6576.44
6745.54
6371.36
6675.88
6557.02
6368.55
6371.68
6435.72
6066.86
6589.48
6625.17
6395.83
6015.4
6296.06
6463.28
6478.12
6368.38
6046
6379.54
6714.56
6575.88
6395.22
6851.87
6210.26
6705.09
5974.37
6205.97
6731.29
5983.66
6707.69
6408.38
6509.79
6405.87
6892.8
6266.13
6510.11
6801.38
6791.38
6140.41
6753.53
6816.36
5809.44
6541.9
6379.95
5986.08
6659.57
6374.47
6402.14
6403.67
6485.01
6450.54
6393.91
6379.6
5967.78
6637.17
6521.8
6495.37
6528.93
6443.24
6364.03
6298.3
6692.56
5911.07
6339.96
6403.75
5949.93
6699.75
6827.84
6540.28
6744.01
6793.28
6333.37
6465.33
6587.76
6742.22
6349.81
6621.2
6253.79
6009.47
6684.97
6298.38
6713.33
6867.92
6802.25
6010.28
6707.26
6550.75
6318.25
6391.98
6433.39
6380.94
6018.22
6784.54
6029.05
6776.6
6440
6255.47
6259.72
6488.88
6620.24
6814.25
6495.95
6902.89
6684.35
6702.19
6009.73
6689.51
6634.72
6724.73
6361.15
6318.49
5926.25
6469.82
6887.26
6761.66
6040
6268.36
6070.86
6359.16
6480.57
6243.13
7051.74
6407.03
6264.31
6058.35
6576.07
6328.64
5920.99
6485.13
6382.07
6380.62
6393.17
6396.9
6064.21
6239.02
5988.53
6401.01
6702.07
6579.89
6766.48
6729.58
6340.95
6289.63
5983.2
6347.34
6665.8
6771.06
6681.5
6668.7
6210.15
5949.39
6270.27
5907.22
6654.37
6679.84
6296.07
6692.42
6668.45
6748.56
6594.15
6511.61
6502.54
6340.57
5947.13
6288.41
6023.64
6271.46
6393.27
6366.62
6101.12
6009.29
6613.49
6883.04
6872.47
6804.97
6497.01
6594.8
6588.35
6488.78
6397.21
6477.84
6309.13
6442.41
6444.26
6006.7
6685.73
6431.19
6272.2
6097.2
6395.95
6488.93
6485.92
6370.65
6100.33
6794.56
6559.34
6384.05
6843.76
6312.98
5989.17
6625.32
6452.64
6446.66
6443.22
6369.09
5895.72
6501.07
6438.8
6033.31
6821.14
6419.28
5743.59
6391.59
6476.35
6493.42
6365.5
6019.9
6341.27
6354.51
6182.34
6451.11
5974.43
6468.73
6455.11
6155.39
6871.17
6435.67
6087.5
6946.11
6474.38
6476.77
6090.85
6452.28
6031.91
)
;
    }
}


// ************************************************************************* //
