/*--------------------------------*- C++ -*----------------------------------*\
| =========                 |                                                 |
| \\      /  F ield         | OpenFOAM: The Open Source CFD Toolbox           |
|  \\    /   O peration     | Version:  v1906                                 |
|   \\  /    A nd           | Web:      www.OpenFOAM.com                      |
|    \\/     M anipulation  |                                                 |
\*---------------------------------------------------------------------------*/
FoamFile
{
    version     2.0;
    format      ascii;
    class       volScalarField;
    location    "57.2/sphere";
    object      T;
}
// * * * * * * * * * * * * * * * * * * * * * * * * * * * * * * * * * * * * * //

dimensions      [0 0 0 1 0 0 0];


internalField   nonuniform List<scalar> 
304
(
469.284
469.312
469.309
469.326
469.284
469.278
469.282
469.312
469.283
469.428
469.428
469.325
469.309
469.424
469.425
469.353
469.318
469.349
469.277
469.311
469.327
469.282
469.313
469.428
469.427
469.355
469.326
469.425
469.425
469.379
469.276
469.349
469.377
469.312
469.283
469.327
469.355
469.289
469.287
469.353
469.379
469.315
469.278
469.312
469.265
469.271
469.284
469.284
469.286
469.318
469.284
469.284
469.319
469.286
469.272
469.285
469.288
469.286
469.319
469.313
469.313
469.327
469.326
469.356
469.355
469.38
469.284
469.327
469.313
469.356
469.326
469.38
469.355
469.285
469.288
469.319
469.286
469.281
469.281
469.314
469.277
469.325
469.274
469.306
469.351
469.378
469.317
469.349
469.311
469.307
469.277
469.379
469.353
469.35
469.319
469.316
469.283
469.278
469.263
469.276
469.276
469.31
469.276
469.311
469.277
469.276
469.263
469.285
469.282
469.283
469.317
469.312
469.325
469.355
469.311
469.327
469.355
469.381
469.283
469.356
469.325
469.327
469.312
469.381
469.355
469.286
469.283
469.317
469.284
469.326
469.312
469.355
469.312
469.355
469.327
469.38
469.283
469.355
469.313
469.355
469.313
469.38
469.328
469.351
469.275
469.318
469.326
469.379
469.307
469.35
469.31
469.319
469.277
469.379
469.326
469.351
469.308
469.278
469.277
469.311
469.277
469.349
469.276
469.307
469.349
469.376
469.306
469.324
469.318
469.307
469.276
469.376
469.349
469.324
469.307
469.311
469.276
469.276
469.282
469.284
469.318
469.288
469.327
469.355
469.381
469.282
469.311
469.326
469.355
469.311
469.381
469.354
469.311
469.28
469.354
469.323
469.317
469.283
469.284
469.356
469.328
469.381
469.286
469.328
469.314
469.356
469.312
469.38
469.328
469.325
469.285
469.355
469.313
469.379
469.308
469.35
469.312
469.354
469.278
469.32
469.326
469.351
469.308
469.352
469.31
469.319
469.277
469.31
469.276
469.278
469.377
469.307
469.324
469.318
469.35
469.277
469.307
469.35
469.324
469.308
469.35
469.32
469.308
469.279
469.278
469.277
469.279
469.275
469.282
469.287
469.317
469.283
469.317
469.284
469.283
469.27
469.291
469.287
469.321
469.287
469.355
469.356
469.381
469.287
469.313
469.314
469.328
469.325
469.38
469.355
469.312
469.282
469.327
469.312
469.319
469.286
469.284
469.318
469.28
469.283
469.379
469.319
469.35
469.31
469.326
469.276
469.308
469.352
469.351
469.319
469.326
469.31
469.308
469.277
469.282
469.278
469.281
469.265
469.311
469.277
469.277
469.279
469.278
469.277
)
;

boundaryField
{
    sphere_to_oil
    {
        type            compressible::turbulentTemperatureCoupledBaffleMixed;
        refValue        nonuniform List<scalar> 
360
(
336.915
336.915
322.224
360.154
368.464
324.342
369.543
369.543
369.543
346.457
346.457
327.448
331.336
319.763
345.159
357.228
353.659
353.659
353.659
321.768
352.406
329.642
332.628
362.732
316.951
363.025
322.187
362.921
362.921
362.921
370.226
361.972
322.201
321.848
327.226
327.351
354.624
354.624
354.624
353.9
359.836
328.225
327.595
337.312
337.312
322.022
329.476
314.31
335.928
363.386
324.287
324.369
330.791
331.256
321.58
329.466
354.351
321.894
327.694
333.265
320.194
364.177
364.177
364.177
314.349
362.682
335.838
325.34
368.053
368.053
368.053
368.989
367.524
318.925
352.373
344.448
320.814
331.685
359.839
354.746
333.461
324.982
333.061
320.065
322.167
324.003
327.529
331.131
320.379
321.993
322.317
330.366
327.225
322.525
330.092
327.279
327.649
327.654
323.744
316.894
316.994
321.387
324.311
327.239
330.339
321.248
319.697
331.299
323.545
327.669
327.658
327.516
323.719
321.727
314.57
314.527
330.134
325.45
331.412
336.677
336.677
360.154
360.154
362.732
362.732
360.809
360.809
360.809
362.133
362.133
362.133
330.675
325.677
330.098
322.381
368.464
368.464
342.663
342.663
370.226
370.226
341.619
341.619
369.451
369.451
369.451
322.087
321.406
357.711
357.711
357.711
357.547
357.547
357.547
357.228
352.406
345.159
357.228
356.779
321.268
356.779
356.779
332.652
333.384
325.087
329.676
329.676
361.287
361.287
361.287
320.277
352.406
329.642
360.305
360.305
320.115
360.305
333.307
324.962
314.384
322.17
322.481
330.005
316.843
329.518
322.44
314.426
316.93
363.025
363.025
361.972
361.972
337.621
337.621
360.197
360.197
360.197
335.73
335.73
316.742
326.834
324.563
330.533
326.986
324.07
330.429
323.483
331.377
327.709
323.414
353.9
331.286
327.897
321.883
360.707
360.707
360.707
330.345
330.345
320.144
327.794
327.665
333.15
359.836
328.132
333.021
327.909
353.9
359.836
330.159
321.876
330.159
320.525
314.513
329.407
316.904
322.352
322.231
322.493
316.714
316.585
364.109
359.078
364.109
364.109
359.078
359.078
363.386
362.682
335.928
361.554
316.836
363.386
361.554
361.554
329.868
321.83
327.04
330.283
322.521
368.989
327.069
327.483
327.568
323.668
354.351
352.373
327.711
327.502
323.648
353.85
356.806
329.466
360.24
320.311
354.351
360.24
360.24
333.647
328.112
359.839
327.752
327.684
327.521
360.226
327.911
359.946
330.032
353.85
330.032
360.226
353.85
360.226
314.274
325.513
329.606
329.819
336.332
360.261
336.332
360.261
360.261
316.761
362.682
361.341
335.838
361.341
316.739
361.341
330.82
330.433
320.763
367.045
342.314
367.045
367.045
342.314
321.268
324.032
326.938
330.259
367.524
368.989
341.848
322.041
367.524
341.848
321.308
352.373
357.524
344.448
357.524
320.063
357.524
331.423
354.746
323.765
327.888
356.623
354.344
356.806
344.084
356.806
356.623
344.084
356.623
324.671
332.892
359.839
329.625
320.15
354.746
329.625
322.103
359.946
354.344
359.946
329.989
354.344
329.989
)
;
        refGradient     uniform 0;
        valueFraction   nonuniform List<scalar> 
360
(
0.000135983
0.000130457
8.35199e-05
0.000298366
0.000306001
0.000175466
0.000307903
0.000264294
0.000411383
0.000130982
0.000127706
0.000171321
0.0002611
7.46542e-05
0.000133545
0.000259599
0.000297495
0.000277966
0.000390049
6.83131e-05
0.000256101
0.000125901
0.000116037
0.000307922
8.94017e-05
0.000316508
0.000178411
0.00031242
0.000408862
0.000273502
0.000312471
0.000315163
8.46281e-05
8.36826e-05
0.000175613
0.000172819
0.000292432
0.00039645
0.000272236
0.000409331
0.000404333
8.63365e-05
0.000171249
0.000124984
0.000124834
0.000176286
0.000263741
7.03654e-05
0.000125906
0.000266979
0.000173904
0.000175034
0.000260905
0.00025837
7.29963e-05
0.000133537
0.000272317
6.99285e-05
0.000173235
0.00025833
6.84476e-05
0.000304117
0.000268463
0.000420172
7.05665e-05
0.000274493
0.000128039
0.00012384
0.000311143
0.000405898
0.000273037
0.000391414
0.000396894
7.58026e-05
0.000264637
0.000134251
6.98878e-05
0.000125321
0.00039606
0.000411436
0.000122915
0.000120596
0.000118451
7.03973e-05
8.4891e-05
0.000172106
0.00017307
0.000262096
7.91166e-05
6.68028e-05
8.40146e-05
0.000261668
0.000172742
8.58216e-05
0.000261236
0.000174715
0.000173681
0.000173949
8.48256e-05
6.79922e-05
6.8946e-05
6.80283e-05
0.000174887
0.00017189
0.000261471
7.69807e-05
6.6866e-05
0.000261281
8.30049e-05
0.000172162
0.000172194
0.000175707
8.59188e-05
6.88e-05
6.70973e-05
6.83936e-05
0.000119049
0.000119192
0.000123822
0.000134267
0.000126193
0.000260744
0.000410755
0.000274712
0.000414532
0.000265717
0.000408518
0.000304166
0.000265931
0.000399626
0.000299555
0.000122184
0.000115549
0.000118351
6.53342e-05
0.00027096
0.000407962
0.000126223
0.0001268
0.000412282
0.000274119
0.000132318
0.000139456
0.000407207
0.000279736
0.000322338
7.19042e-05
6.69147e-05
0.000282434
0.000391383
0.00031023
0.000290801
0.000404934
0.000310197
0.00032027
0.000295008
0.000137996
0.000411324
0.00026569
7.40751e-05
0.00039978
0.000299167
0.00011417
0.000120283
0.000118995
0.000125533
0.000131222
0.000409268
0.00026948
0.000316313
7.58426e-05
0.000393699
0.000134998
0.000413984
0.000265019
7.40818e-05
0.000314233
0.000115183
0.000116252
6.79211e-05
0.000178029
0.000177959
0.00026314
8.77495e-05
0.000263538
0.000173404
6.72237e-05
6.52764e-05
0.000411807
0.000261659
0.000406973
0.000271334
0.000129426
0.000121038
0.000408871
0.00025554
0.00029538
0.000119641
0.000138821
6.98396e-05
0.0001749
0.000174741
0.000261077
0.000170946
0.000171826
0.000260049
8.91332e-05
0.000260941
0.000176929
8.66795e-05
0.000293707
0.000260652
0.000175869
7.0089e-05
0.000399943
0.000259276
0.000303354
0.000126382
0.000117447
6.78405e-05
0.000173541
0.00017646
0.000261634
0.000297466
8.31957e-05
0.000259152
0.000169253
0.000257439
0.000272537
0.000123714
6.94881e-05
0.00013728
7.03473e-05
6.6218e-05
0.000264554
8.82875e-05
0.000177856
0.000175799
0.000173704
8.71777e-05
6.65917e-05
0.000270493
0.000253458
0.000425499
0.000316721
0.000396967
0.000285221
0.000305706
0.000313
0.000139128
0.000268515
7.23444e-05
0.000408612
0.000397314
0.000301875
0.000263296
8.3896e-05
0.000171321
0.000260269
8.46474e-05
0.000310127
0.000172063
0.000173294
0.000171697
8.41353e-05
0.000307818
0.000288452
0.000175174
0.000170645
8.57553e-05
0.00028902
0.000318134
0.000126168
0.000285583
6.78253e-05
0.000406869
0.00039446
0.000298058
0.000258339
8.48668e-05
0.000298526
0.000171895
0.00017216
0.00017314
0.000300152
8.5662e-05
0.000306667
0.000129039
0.000264405
0.000130116
0.000269436
0.000410601
0.000403093
6.77928e-05
0.00013585
0.000134245
0.000131304
0.000119576
0.000400056
0.000130601
0.000265962
0.000313184
6.68048e-05
0.000403962
0.000403474
0.000132083
0.00028688
7.00087e-05
0.000307556
0.000117099
0.000115038
6.99508e-05
0.000395659
0.000118248
0.000259479
0.000305598
0.000126773
6.9109e-05
0.000171961
0.000171902
0.000259395
0.00029681
0.000257442
0.000124469
6.69994e-05
0.000261754
0.000138242
7.73796e-05
0.000379324
0.000407318
0.000120381
0.000258739
7.17352e-05
0.000325404
0.000261383
0.000313171
8.56715e-05
0.000172701
0.000301936
0.000292721
0.000275386
0.00012309
0.000403399
0.000402531
0.000146117
0.000269068
0.000118384
0.000120201
0.000270881
0.000134092
7.24999e-05
0.000273961
0.000129119
6.69528e-05
0.000398731
0.000403518
0.000265502
0.000128849
0.000260797
0.000133098
)
;
        value           nonuniform List<scalar> 
360
(
469.286
469.286
469.291
469.271
469.273
469.306
469.272
469.278
469.266
469.284
469.284
469.304
469.309
469.292
469.287
469.274
469.259
469.263
469.25
469.287
469.267
469.28
469.266
469.269
469.288
469.268
469.305
469.269
469.261
469.273
469.271
469.268
469.29
469.289
469.303
469.305
469.261
469.252
469.265
469.249
469.252
469.283
469.302
469.285
469.287
469.304
469.309
469.291
469.285
469.273
469.307
469.306
469.31
469.31
469.284
469.276
469.264
469.287
469.301
469.308
469.286
469.269
469.273
469.262
469.292
469.273
469.285
469.272
469.274
469.269
469.278
469.269
469.267
469.295
469.275
469.289
469.29
469.267
469.254
469.25
469.268
469.267
469.268
469.287
469.293
469.306
469.305
469.309
469.288
469.287
469.291
469.31
469.308
469.289
469.31
469.306
469.304
469.302
469.284
469.293
469.293
469.295
469.307
469.307
469.31
469.293
469.29
469.308
469.281
469.301
469.306
469.302
469.284
469.285
469.293
469.293
469.274
469.274
469.274
469.286
469.287
469.275
469.26
469.274
469.261
469.275
469.261
469.27
469.275
469.263
469.27
469.274
469.274
469.274
469.295
469.277
469.267
469.289
469.289
469.267
469.278
469.288
469.288
469.267
469.277
469.27
469.295
469.29
469.268
469.252
469.259
469.267
469.251
469.26
469.26
469.262
469.285
469.251
469.272
469.291
469.252
469.262
469.267
469.266
469.265
469.278
469.277
469.251
469.267
469.261
469.284
469.25
469.276
469.251
469.266
469.284
469.261
469.266
469.265
469.291
469.305
469.304
469.31
469.289
469.31
469.305
469.292
469.293
469.26
469.274
469.261
469.273
469.284
469.287
469.26
469.276
469.27
469.287
469.285
469.293
469.306
469.306
469.31
469.308
469.307
469.311
469.281
469.309
469.301
469.283
469.262
469.309
469.302
469.285
469.254
469.268
469.263
469.278
469.28
469.286
469.301
469.301
469.307
469.262
469.283
469.308
469.302
469.266
469.265
469.278
469.285
469.276
469.285
469.291
469.309
469.288
469.304
469.304
469.305
469.286
469.293
469.273
469.276
469.262
469.268
469.263
469.274
469.267
469.266
469.284
469.274
469.291
469.26
469.26
469.271
469.31
469.293
469.309
469.311
469.291
469.273
469.308
469.302
469.307
469.285
469.262
469.264
469.302
469.305
469.284
469.263
469.26
469.278
469.265
469.286
469.251
469.254
469.264
469.308
469.284
469.263
469.302
469.303
469.303
469.266
469.286
469.265
469.279
469.266
469.278
469.267
469.251
469.254
469.291
469.274
469.275
469.276
469.285
469.262
469.285
469.273
469.272
469.292
469.261
469.26
469.284
469.271
469.291
469.268
469.273
469.274
469.296
469.27
469.291
469.28
469.275
469.29
469.296
469.307
469.309
469.311
469.271
469.279
469.289
469.295
469.277
469.286
469.292
469.255
469.254
469.287
469.273
469.291
469.259
469.309
469.26
469.283
469.302
469.262
469.262
469.27
469.285
469.252
469.252
469.281
469.269
469.268
469.268
469.267
469.278
469.286
469.265
469.279
469.287
469.255
469.252
469.268
469.279
469.266
469.278
)
;
        Tnbr            T;
        thicknessLayers 0();
        kappaLayers     0();
        kappaMethod     solidThermo;
        kappa           none;
        alphaAni        none;
    }
}


// ************************************************************************* //
