/*--------------------------------*- C++ -*----------------------------------*\
| =========                 |                                                 |
| \\      /  F ield         | OpenFOAM: The Open Source CFD Toolbox           |
|  \\    /   O peration     | Version:  v1906                                 |
|   \\  /    A nd           | Web:      www.OpenFOAM.com                      |
|    \\/     M anipulation  |                                                 |
\*---------------------------------------------------------------------------*/
FoamFile
{
    version     2.0;
    format      ascii;
    class       volScalarField;
    location    "87.6/sphere";
    object      T;
}
// * * * * * * * * * * * * * * * * * * * * * * * * * * * * * * * * * * * * * //

dimensions      [0 0 0 1 0 0 0];


internalField   nonuniform List<scalar> 
304
(
454.926
454.953
454.947
454.964
454.923
454.912
454.925
454.954
454.924
455.061
455.061
454.964
454.946
455.054
455.054
454.987
454.947
454.978
454.908
454.953
454.969
454.925
454.954
455.061
455.061
454.993
454.964
455.055
455.055
455.013
454.91
454.978
455.005
454.943
454.926
454.966
454.993
454.929
454.925
454.988
455.013
454.951
454.909
454.943
454.898
454.913
454.926
454.927
454.928
454.959
454.926
454.927
454.959
454.928
454.914
454.925
454.929
454.925
454.957
454.953
454.952
454.967
454.965
454.994
454.992
455.016
454.925
454.967
454.952
454.994
454.965
455.016
454.992
454.925
454.929
454.958
454.926
454.919
454.919
454.95
454.911
454.963
454.91
454.942
454.986
455.012
454.95
454.981
454.949
454.943
454.913
455.012
454.988
454.983
454.952
454.952
454.921
454.912
454.896
454.91
454.907
454.941
454.907
454.942
454.908
454.907
454.896
454.927
454.925
454.925
454.958
454.954
454.965
454.994
454.953
454.969
454.994
455.019
454.926
454.994
454.966
454.97
454.954
455.019
454.994
454.928
454.926
454.958
454.926
454.965
454.951
454.991
454.953
454.993
454.967
455.016
454.924
454.992
454.953
454.993
454.953
455.016
454.967
454.986
454.911
454.951
454.964
455.012
454.942
454.982
454.948
454.952
454.913
455.013
454.964
454.983
454.943
454.909
454.911
454.942
454.907
454.978
454.905
454.936
454.979
455.005
454.936
454.954
454.947
454.936
454.905
455.005
454.978
454.954
454.936
454.941
454.91
454.907
454.925
454.926
454.958
454.93
454.969
454.994
455.019
454.925
454.953
454.966
454.994
454.953
455.019
454.993
454.953
454.923
454.993
454.963
454.958
454.925
454.926
454.994
454.967
455.016
454.927
454.967
454.954
454.993
454.953
455.016
454.967
454.965
454.926
454.992
454.952
455.013
454.943
454.982
454.95
454.989
454.914
454.953
454.964
454.983
454.944
454.987
454.948
454.952
454.913
454.941
454.907
454.909
455.005
454.936
454.954
454.948
454.979
454.906
454.937
454.979
454.955
454.938
454.98
454.949
454.938
454.909
454.912
454.908
454.91
454.917
454.925
454.928
454.958
454.925
454.957
454.926
454.925
454.913
454.931
454.927
454.959
454.927
454.993
454.993
455.016
454.928
454.953
454.953
454.967
454.964
455.016
454.992
454.952
454.924
454.967
454.952
454.957
454.926
454.924
454.954
454.915
454.921
455.013
454.952
454.983
454.948
454.964
454.913
454.944
454.987
454.983
454.953
454.964
454.947
454.944
454.913
454.92
454.913
454.919
454.898
454.942
454.908
454.912
454.91
454.909
454.911
)
;

boundaryField
{
    sphere_to_oil
    {
        type            compressible::turbulentTemperatureCoupledBaffleMixed;
        refValue        nonuniform List<scalar> 
360
(
331.407
331.407
321.962
354.639
361.578
324.862
362.578
362.578
362.578
341.581
341.581
328.86
333.534
320.919
341.083
349.189
345.18
345.18
345.18
322.35
344.114
323.877
327.739
357.342
317.43
357.571
323.006
357.572
357.572
357.572
363.085
356.237
321.864
321.532
328.604
328.694
346.069
346.069
346.069
345.405
346.379
322.33
323.969
331.862
331.862
322.819
331.152
314.811
331.031
357.895
324.792
324.918
332.806
333.368
322.106
323.64
345.559
322.442
324.028
333.011
316.936
358.674
358.674
358.674
314.859
357.265
330.94
323.146
361.107
361.107
361.107
362.025
360.814
320.068
345.096
340.474
321.96
327.03
346.33
346.114
328.487
320.119
328.173
316.819
321.853
324.431
328.791
333.239
321.465
322.584
322.092
332.251
328.419
322.198
331.895
328.397
329.024
329.285
325.229
316.729
316.841
322.13
324.806
328.411
332.16
322.057
320.807
333.437
324.868
329.241
329.059
329.113
325.2
322.353
315.017
314.977
327.736
323.345
328.753
331.319
331.319
354.639
354.639
357.342
357.342
355.086
355.086
355.086
356.698
356.698
356.698
328.128
323.584
327.676
323.068
361.578
361.578
338.49
338.49
363.085
363.085
337.934
337.934
362.483
362.483
362.483
322.741
322.521
349.717
349.717
349.717
349.538
349.538
349.538
349.189
344.114
341.083
349.189
349.387
322.337
349.387
349.387
327.784
328.601
320.241
323.971
323.971
347.586
347.586
347.586
316.891
344.114
323.877
346.782
346.782
316.78
346.782
328.584
320.163
314.889
323.027
323.359
331.761
317.315
331.214
323.285
314.939
316.945
357.571
357.571
356.237
356.237
332.251
332.251
354.667
354.667
354.667
330.769
330.769
316.598
327.892
325.208
332.34
328.136
324.534
332.174
324.926
333.497
329.312
324.725
345.405
333.287
329.378
322.492
347.025
347.025
347.025
324.367
324.367
316.821
324.159
323.978
332.791
346.379
322.25
332.723
324.28
345.405
346.379
324.158
322.428
324.158
317.132
314.925
331.077
317.352
323.171
323.065
323.312
317.182
316.53
358.615
353.655
358.615
358.615
353.655
353.655
357.895
357.265
331.031
355.878
316.766
357.895
355.878
355.878
331.561
321.656
328.186
332.098
322.215
362.025
328.221
328.945
328.829
325.023
345.559
345.096
329.265
328.917
325.17
345.159
349.2
323.64
346.663
316.928
345.559
346.663
346.663
333.224
322.226
346.33
324.081
324.263
323.952
346.704
322.209
346.441
324.014
345.159
324.014
346.704
345.159
346.704
314.763
323.414
327.267
327.428
331.298
354.767
331.298
354.767
354.767
316.58
357.265
355.839
330.94
355.839
316.611
355.839
328.25
327.99
321.566
360.133
338.618
360.133
360.133
338.618
322.11
324.465
327.957
332.048
360.814
362.025
338.142
322.74
360.814
338.142
322.01
345.096
349.661
340.474
349.661
321.287
349.661
333.521
346.114
325.039
329.511
348.963
345.77
349.2
340.069
349.2
348.963
340.069
348.963
320.059
328.065
346.33
323.973
316.873
346.114
323.973
322.701
346.441
345.77
346.441
324.029
345.77
324.029
)
;
        refGradient     uniform 0;
        valueFraction   nonuniform List<scalar> 
360
(
0.000140131
0.000134436
8.60674e-05
0.000307464
0.000315332
0.000180818
0.000317291
0.000272354
0.000423926
0.000134978
0.000131601
0.000176547
0.000269063
7.69317e-05
0.000137619
0.000267517
0.000306569
0.000286447
0.00040195
7.03979e-05
0.000263915
0.000129743
0.000119578
0.000317309
9.21281e-05
0.000326157
0.000183851
0.000321945
0.000421325
0.00028184
0.000321999
0.000324772
8.72094e-05
8.6235e-05
0.00018097
0.000178091
0.000301352
0.000408546
0.000280542
0.00042182
0.000416671
8.89722e-05
0.000176476
0.000128796
0.000128642
0.000181662
0.000271783
7.25114e-05
0.000129746
0.000275119
0.000179208
0.000180372
0.000268863
0.00026625
7.52239e-05
0.000137612
0.000280626
7.20625e-05
0.000178523
0.000266213
7.0537e-05
0.000313389
0.000276648
0.00043298
7.27187e-05
0.000282862
0.000131944
0.000127616
0.000320631
0.000418273
0.000281363
0.000403348
0.000408995
7.81152e-05
0.000272708
0.000138346
7.20199e-05
0.000129145
0.000408146
0.000423988
0.000126666
0.000124277
0.000122066
7.25462e-05
8.74803e-05
0.000177355
0.00017835
0.000270089
8.15302e-05
6.88414e-05
8.65772e-05
0.000269648
0.000178011
8.84392e-05
0.000269203
0.000180044
0.000178979
0.000179256
8.74137e-05
7.00661e-05
7.10489e-05
7.01035e-05
0.000180221
0.000177133
0.000269445
7.9329e-05
6.89059e-05
0.00026925
8.55374e-05
0.000177414
0.000177447
0.000181067
8.85403e-05
7.08995e-05
6.91438e-05
7.04796e-05
0.00012268
0.000122827
0.000127599
0.000138362
0.000130041
0.000268695
0.000423276
0.000283088
0.000427169
0.000273819
0.000420972
0.00031344
0.00027404
0.000411809
0.000308688
0.000125911
0.000119073
0.000121961
6.73272e-05
0.000279224
0.000420401
0.000130073
0.000130667
0.000424852
0.000282479
0.000136354
0.00014371
0.000419623
0.000288267
0.000332166
7.40976e-05
6.89562e-05
0.000291048
0.000403322
0.000319693
0.000299671
0.000417285
0.000319659
0.000330038
0.000304007
0.000142206
0.00042387
0.000273794
7.63349e-05
0.000411974
0.000308292
0.000117654
0.000123954
0.000122626
0.000129363
0.000135227
0.000421756
0.000277705
0.000325967
7.81576e-05
0.000405711
0.000139118
0.000426616
0.000273107
7.63431e-05
0.000323823
0.000118698
0.000119799
6.99926e-05
0.000183459
0.000183386
0.000271163
9.04256e-05
0.000271573
0.000178692
6.9274e-05
6.72674e-05
0.00042436
0.000269637
0.000419379
0.000279607
0.000133373
0.000124729
0.000421335
0.000263332
0.000304386
0.00012329
0.000143054
7.19698e-05
0.000180234
0.000180071
0.000269039
0.00017616
0.000177067
0.000267979
9.18527e-05
0.0002689
0.000182327
8.93241e-05
0.000302666
0.000268602
0.000181234
7.22279e-05
0.000412147
0.000267189
0.000312613
0.000130238
0.000121032
6.99113e-05
0.000178838
0.000181846
0.000269618
0.000306545
8.57354e-05
0.00026706
0.000174419
0.000265293
0.000280855
0.000127489
7.16086e-05
0.00014147
7.24946e-05
6.82376e-05
0.00027262
9.098e-05
0.00018328
0.00018116
0.000179001
8.98363e-05
6.86229e-05
0.000278741
0.000261187
0.00043847
0.000326376
0.000409068
0.000293918
0.000315026
0.000322542
0.000143371
0.000276702
7.45509e-05
0.000421068
0.000409426
0.000311079
0.000271326
8.6455e-05
0.000176547
0.000268206
8.72292e-05
0.000319584
0.000177311
0.000178581
0.000176935
8.67024e-05
0.000317207
0.000297251
0.000180519
0.00017585
8.83718e-05
0.000297836
0.000327838
0.000130019
0.000294299
6.98957e-05
0.000419282
0.000406497
0.000307155
0.000266223
8.74576e-05
0.000307638
0.000177142
0.000177415
0.000178425
0.000309313
8.8277e-05
0.000316027
0.000132977
0.000272471
0.000134087
0.000277659
0.000423129
0.000415393
6.98604e-05
0.000139993
0.000138339
0.000135308
0.000123223
0.000412252
0.000134584
0.000274072
0.000322733
6.88424e-05
0.000416276
0.000415773
0.000136112
0.000295627
7.2144e-05
0.000316934
0.000120671
0.000118546
7.20847e-05
0.000407723
0.000121855
0.000267392
0.000314917
0.00013064
7.12173e-05
0.000177205
0.000177145
0.000267305
0.00030586
0.000265293
0.000128266
6.90433e-05
0.000269736
0.000142459
7.974e-05
0.000390895
0.000419742
0.000124053
0.000266631
7.39237e-05
0.000335329
0.000269355
0.000322724
8.82854e-05
0.00017797
0.000311146
0.00030165
0.000283785
0.000126845
0.000415703
0.000414809
0.000150575
0.000277274
0.000121997
0.000123869
0.000279148
0.000138185
7.47129e-05
0.000282319
0.000133059
6.8996e-05
0.000410898
0.00041583
0.000273605
0.000132782
0.000268754
0.000137159
)
;
        value           nonuniform List<scalar> 
360
(
454.927
454.929
454.933
454.913
454.915
454.948
454.914
454.919
454.908
454.922
454.922
454.943
454.949
454.931
454.925
454.913
454.895
454.898
454.881
454.921
454.901
454.914
454.899
454.913
454.931
454.912
454.948
454.914
454.905
454.917
454.913
454.91
454.931
454.931
454.942
454.944
454.897
454.883
454.899
454.88
454.881
454.912
454.932
454.927
454.929
454.947
454.954
454.933
454.927
454.917
454.949
454.948
454.95
454.95
454.918
454.91
454.898
454.921
454.931
454.941
454.917
454.914
454.917
454.905
454.934
454.917
454.928
454.914
454.916
454.91
454.919
454.91
454.909
454.933
454.914
454.928
454.929
454.9
454.883
454.881
454.901
454.9
454.901
454.917
454.935
454.948
454.944
454.949
454.927
454.921
454.932
454.952
454.948
454.931
454.952
454.947
454.943
454.94
454.921
454.935
454.935
454.934
454.948
454.948
454.952
454.933
454.928
454.949
454.918
454.938
454.945
454.939
454.92
454.92
454.936
454.935
454.916
454.916
454.916
454.928
454.929
454.918
454.904
454.918
454.905
454.917
454.904
454.912
454.918
454.906
454.915
454.916
454.917
454.917
454.935
454.918
454.908
454.929
454.929
454.908
454.918
454.928
454.928
454.908
454.918
454.912
454.935
454.928
454.907
454.887
454.895
454.906
454.886
454.896
454.897
454.898
454.924
454.886
454.911
454.93
454.887
454.899
454.899
454.899
454.898
454.912
454.908
454.88
454.896
454.889
454.915
454.882
454.907
454.88
454.896
454.915
454.888
454.899
454.898
454.934
454.948
454.947
454.955
454.933
454.955
454.949
454.935
454.934
454.904
454.917
454.904
454.916
454.927
454.928
454.904
454.918
454.912
454.929
454.927
454.935
454.947
454.948
454.952
454.949
454.949
454.953
454.918
454.949
454.938
454.92
454.899
454.95
454.939
454.92
454.883
454.897
454.89
454.912
454.91
454.916
454.931
454.931
454.939
454.89
454.912
454.94
454.932
454.9
454.895
454.912
454.919
454.907
454.915
454.934
454.954
454.931
454.947
454.948
454.948
454.929
454.935
454.916
454.918
454.906
454.912
454.907
454.916
454.911
454.91
454.926
454.916
454.933
454.903
454.904
454.914
454.952
454.934
454.95
454.953
454.933
454.915
454.948
454.939
454.946
454.922
454.898
454.9
454.939
454.945
454.92
454.899
454.897
454.909
454.894
454.916
454.882
454.883
454.891
454.94
454.913
454.891
454.932
454.933
454.933
454.894
454.915
454.893
454.913
454.9
454.909
454.896
454.882
454.884
454.934
454.917
454.917
454.918
454.928
454.906
454.927
454.916
454.914
454.934
454.904
454.904
454.926
454.914
454.933
454.911
454.916
454.916
454.936
454.911
454.931
454.92
454.916
454.93
454.936
454.949
454.949
454.953
454.914
454.92
454.929
454.935
454.917
454.926
454.932
454.891
454.889
454.926
454.912
454.93
454.896
454.95
454.896
454.92
454.94
454.899
454.899
454.909
454.924
454.888
454.888
454.92
454.908
454.9
454.901
454.896
454.909
454.916
454.899
454.913
454.921
454.884
454.883
454.897
454.91
454.901
454.912
)
;
        Tnbr            T;
        thicknessLayers 0();
        kappaLayers     0();
        kappaMethod     solidThermo;
        kappa           none;
        alphaAni        none;
    }
}


// ************************************************************************* //
