/*--------------------------------*- C++ -*----------------------------------*\
| =========                 |                                                 |
| \\      /  F ield         | OpenFOAM: The Open Source CFD Toolbox           |
|  \\    /   O peration     | Version:  v1906                                 |
|   \\  /    A nd           | Web:      www.OpenFOAM.com                      |
|    \\/     M anipulation  |                                                 |
\*---------------------------------------------------------------------------*/
FoamFile
{
    version     2.0;
    format      ascii;
    class       volScalarField;
    location    "0.32/oil";
    object      alphat;
}
// * * * * * * * * * * * * * * * * * * * * * * * * * * * * * * * * * * * * * //

dimensions      [1 -1 -1 0 0 0 0];


internalField   nonuniform List<scalar> 
168664
(
0.0038228
0.000401473
0.000408562
0.000122386
9.87238e-05
5.36248e-05
3.47365e-05
2.80152e-05
1.85939e-05
1.83423e-05
1.56425e-05
1.70038e-05
1.55602e-05
1.49439e-05
1.31776e-05
1.25873e-05
1.13552e-05
1.01537e-05
8.97921e-06
7.93323e-06
7.31986e-06
7.31373e-06
7.13224e-06
6.53538e-06
5.50872e-06
4.34885e-06
3.05709e-06
2.29417e-06
1.45398e-06
2.49632e-07
0.000400302
0.000461327
0.00010991
9.30797e-05
4.10424e-05
3.31172e-05
2.08971e-05
1.80911e-05
1.31968e-05
1.29857e-05
1.21378e-05
1.30695e-05
1.25121e-05
1.2327e-05
1.12726e-05
1.0983e-05
1.00604e-05
9.20439e-06
8.22017e-06
7.49095e-06
7.10513e-06
7.0415e-06
6.78153e-06
6.23738e-06
5.61971e-06
4.86189e-06
4.07137e-06
3.24123e-06
3.27098e-06
1.80552e-06
0.000406113
0.000109715
9.31823e-05
6.42012e-05
4.41836e-05
3.4482e-05
2.36993e-05
1.9604e-05
1.49837e-05
1.37768e-05
1.27272e-05
1.28557e-05
1.21383e-05
1.20238e-05
1.10992e-05
1.07502e-05
9.88226e-06
9.08886e-06
8.15415e-06
7.50851e-06
7.32611e-06
7.31082e-06
7.18138e-06
6.77014e-06
6.20017e-06
5.57189e-06
4.96755e-06
4.5879e-06
5.47519e-06
4.2686e-06
0.000124916
9.4894e-05
6.60137e-05
5.04917e-05
3.40676e-05
2.77469e-05
2.10101e-05
1.80157e-05
1.51649e-05
1.37736e-05
1.27622e-05
1.23422e-05
1.19357e-05
1.18222e-05
1.09363e-05
1.04035e-05
9.47236e-06
8.70732e-06
7.88386e-06
7.35634e-06
7.13905e-06
7.14615e-06
7.21589e-06
6.94802e-06
6.35047e-06
5.67457e-06
5.22501e-06
5.53586e-06
6.71463e-06
5.82188e-06
0.000100196
4.40018e-05
4.57733e-05
3.43769e-05
2.95012e-05
2.56255e-05
2.1174e-05
1.8985e-05
1.63943e-05
1.50707e-05
1.36772e-05
1.28561e-05
1.23508e-05
1.2111e-05
1.11347e-05
1.03943e-05
9.46339e-06
8.76397e-06
8.24633e-06
8.08494e-06
7.84711e-06
7.82357e-06
7.83878e-06
7.66592e-06
7.20971e-06
6.64595e-06
6.38975e-06
6.97078e-06
8.31435e-06
7.94551e-06
6.21353e-05
4.05432e-05
4.02484e-05
3.10015e-05
2.75778e-05
2.26293e-05
1.99118e-05
1.73847e-05
1.57745e-05
1.45066e-05
1.35427e-05
1.25219e-05
1.18966e-05
1.17434e-05
1.08029e-05
9.79954e-06
8.83323e-06
8.0866e-06
7.9166e-06
8.06088e-06
7.79359e-06
7.62247e-06
7.50891e-06
7.40638e-06
7.09481e-06
6.91135e-06
6.9247e-06
7.76382e-06
9.14376e-06
9.11379e-06
4.29498e-05
2.87378e-05
2.89841e-05
2.41469e-05
2.28579e-05
2.01777e-05
1.84072e-05
1.6759e-05
1.53638e-05
1.44805e-05
1.36775e-05
1.27967e-05
1.23058e-05
1.2417e-05
1.13717e-05
9.97156e-06
8.76242e-06
7.91338e-06
7.78551e-06
7.9427e-06
7.68863e-06
7.5616e-06
7.5601e-06
7.59859e-06
7.59781e-06
7.76489e-06
8.13268e-06
9.12054e-06
1.05233e-05
1.09621e-05
4.01789e-05
2.90345e-05
2.84886e-05
2.37995e-05
2.23784e-05
1.90273e-05
1.75189e-05
1.53574e-05
1.42056e-05
1.31687e-05
1.27848e-05
1.23109e-05
1.24467e-05
1.28578e-05
1.18777e-05
1.01476e-05
8.83031e-06
7.77013e-06
7.41101e-06
7.20021e-06
6.85844e-06
6.77834e-06
6.92754e-06
7.23455e-06
7.6535e-06
8.26121e-06
8.94565e-06
1.00166e-05
1.13521e-05
1.20468e-05
3.10704e-05
2.39503e-05
2.32397e-05
2.05621e-05
1.94028e-05
1.71585e-05
1.57673e-05
1.40709e-05
1.29352e-05
1.2119e-05
1.20884e-05
1.24372e-05
1.31351e-05
1.35964e-05
1.26401e-05
1.09158e-05
9.33766e-06
7.93022e-06
7.20978e-06
6.71026e-06
6.35707e-06
6.47392e-06
6.88904e-06
7.52173e-06
8.33087e-06
9.19365e-06
1.01506e-05
1.12039e-05
1.2365e-05
1.33178e-05
3.11982e-05
2.43959e-05
2.35838e-05
2.09312e-05
1.9415e-05
1.67232e-05
1.50822e-05
1.29866e-05
1.16988e-05
1.07937e-05
1.11374e-05
1.19799e-05
1.28182e-05
1.27838e-05
1.20844e-05
1.08497e-05
9.20128e-06
7.67964e-06
6.69952e-06
6.00249e-06
5.66854e-06
5.97402e-06
6.6345e-06
7.46719e-06
8.39097e-06
9.49122e-06
1.07122e-05
1.17205e-05
1.27926e-05
1.38822e-05
2.73506e-05
2.20318e-05
2.1102e-05
1.92112e-05
1.77319e-05
1.57005e-05
1.41727e-05
1.22673e-05
1.09972e-05
1.04099e-05
1.10232e-05
1.19286e-05
1.21187e-05
1.11791e-05
1.03972e-05
9.64145e-06
8.39651e-06
7.25301e-06
6.35999e-06
5.73677e-06
5.64945e-06
6.25732e-06
7.17253e-06
8.16926e-06
9.15516e-06
1.03887e-05
1.16917e-05
1.2514e-05
1.34737e-05
1.46644e-05
2.77183e-05
2.24349e-05
2.13446e-05
1.9508e-05
1.81877e-05
1.64028e-05
1.49158e-05
1.26767e-05
1.09813e-05
9.98261e-06
1.01589e-05
1.04805e-05
9.72396e-06
8.22329e-06
7.49371e-06
6.96893e-06
6.0396e-06
5.73663e-06
5.46755e-06
5.14831e-06
5.48211e-06
6.4955e-06
7.70104e-06
8.99042e-06
1.01191e-05
1.1316e-05
1.24249e-05
1.30305e-05
1.39045e-05
1.51784e-05
2.5388e-05
2.12099e-05
2.03598e-05
1.92131e-05
1.8126e-05
1.67442e-05
1.53799e-05
1.31961e-05
1.13321e-05
9.60887e-06
8.98865e-06
8.42197e-06
7.18948e-06
6.25513e-06
5.72488e-06
5.32214e-06
4.6199e-06
4.14485e-06
4.47341e-06
4.47448e-06
5.21759e-06
6.99012e-06
8.52327e-06
9.8619e-06
1.10129e-05
1.21448e-05
1.30805e-05
1.3683e-05
1.46463e-05
1.62681e-05
2.43146e-05
2.04359e-05
1.97466e-05
1.88777e-05
1.7864e-05
1.65066e-05
1.51983e-05
1.34363e-05
1.18631e-05
9.30602e-06
7.18979e-06
5.22972e-06
4.03508e-06
3.5664e-06
3.46962e-06
3.4654e-06
2.75747e-06
2.08737e-06
2.3486e-06
3.34143e-06
4.95772e-06
7.33303e-06
9.15038e-06
1.0517e-05
1.15443e-05
1.26254e-05
1.3594e-05
1.43021e-05
1.53742e-05
1.73937e-05
2.28273e-05
1.93511e-05
1.86357e-05
1.78631e-05
1.69469e-05
1.57697e-05
1.45469e-05
1.30671e-05
1.17198e-05
9.15526e-06
6.46508e-06
4.14514e-06
2.75084e-06
2.66575e-06
3.12689e-06
2.85995e-06
2.12739e-06
1.64045e-06
2.20927e-06
3.59017e-06
5.4559e-06
7.86639e-06
9.82299e-06
1.13082e-05
1.23445e-05
1.33859e-05
1.43598e-05
1.51002e-05
1.61205e-05
1.84387e-05
2.22879e-05
1.89029e-05
1.81127e-05
1.73504e-05
1.65017e-05
1.5388e-05
1.41563e-05
1.24882e-05
1.07612e-05
8.32474e-06
6.00291e-06
3.95476e-06
2.57135e-06
2.41372e-06
3.42375e-06
2.92991e-06
2.05827e-06
2.07048e-06
2.9347e-06
4.37553e-06
6.01088e-06
8.21242e-06
9.89382e-06
1.13412e-05
1.23572e-05
1.34404e-05
1.44214e-05
1.5201e-05
1.60756e-05
1.82609e-05
2.05334e-05
1.76749e-05
1.6857e-05
1.61687e-05
1.53649e-05
1.4305e-05
1.32073e-05
1.17674e-05
9.8958e-06
7.32535e-06
4.80327e-06
3.1643e-06
2.45975e-06
2.83145e-06
3.8164e-06
3.48722e-06
2.84723e-06
3.14377e-06
4.33997e-06
5.7305e-06
6.97833e-06
8.76556e-06
1.01395e-05
1.13609e-05
1.2397e-05
1.35603e-05
1.45913e-05
1.52914e-05
1.60274e-05
1.8073e-05
1.93162e-05
1.68619e-05
1.60232e-05
1.53147e-05
1.44699e-05
1.33093e-05
1.21647e-05
1.07057e-05
9.07896e-06
6.78266e-06
4.96681e-06
4.2344e-06
3.51899e-06
3.73528e-06
4.50717e-06
4.1906e-06
4.06675e-06
4.75172e-06
6.0879e-06
7.09771e-06
7.35312e-06
8.7551e-06
9.84091e-06
1.11633e-05
1.23166e-05
1.35103e-05
1.45923e-05
1.54651e-05
1.63677e-05
1.84847e-05
1.81046e-05
1.60963e-05
1.52029e-05
1.43962e-05
1.34486e-05
1.22516e-05
1.10712e-05
9.63326e-06
8.22794e-06
6.88384e-06
6.05169e-06
5.84706e-06
5.43106e-06
5.32881e-06
5.78401e-06
5.3354e-06
5.4331e-06
6.25917e-06
7.03187e-06
7.27984e-06
7.20886e-06
7.81571e-06
8.67852e-06
1.00277e-05
1.11262e-05
1.21391e-05
1.32171e-05
1.44989e-05
1.58178e-05
1.80752e-05
1.70298e-05
1.51306e-05
1.41242e-05
1.30832e-05
1.19834e-05
1.07479e-05
9.72156e-06
8.55888e-06
7.50709e-06
6.63421e-06
6.44325e-06
6.61309e-06
6.88229e-06
7.34052e-06
7.97449e-06
7.74238e-06
7.88388e-06
8.17318e-06
7.77525e-06
7.24569e-06
6.73038e-06
7e-06
7.63409e-06
8.79462e-06
9.79074e-06
1.08081e-05
1.1914e-05
1.32889e-05
1.46459e-05
1.66903e-05
1.56217e-05
1.39722e-05
1.31032e-05
1.19633e-05
1.08398e-05
9.80398e-06
8.92678e-06
7.96256e-06
7.07588e-06
6.5289e-06
6.50768e-06
6.67218e-06
7.1158e-06
8.12097e-06
9.40787e-06
9.88727e-06
1.00358e-05
9.34395e-06
8.31647e-06
7.34986e-06
6.55188e-06
6.60859e-06
7.14566e-06
8.19151e-06
9.05134e-06
1.00673e-05
1.10822e-05
1.23193e-05
1.35005e-05
1.48817e-05
1.4566e-05
1.3303e-05
1.25518e-05
1.13712e-05
1.03001e-05
9.42128e-06
8.70405e-06
7.97057e-06
7.31427e-06
6.96438e-06
6.6642e-06
6.34266e-06
6.66662e-06
7.83955e-06
9.34233e-06
1.04513e-05
1.05471e-05
9.19186e-06
7.95856e-06
7.35557e-06
6.87297e-06
6.97774e-06
7.29797e-06
8.01342e-06
8.57929e-06
9.39608e-06
1.02002e-05
1.13851e-05
1.25863e-05
1.36001e-05
1.31246e-05
1.22391e-05
1.12953e-05
1.01628e-05
9.40844e-06
8.75075e-06
8.27468e-06
7.85078e-06
7.51003e-06
7.41419e-06
7.00162e-06
6.32803e-06
6.29138e-06
7.3214e-06
8.63227e-06
9.71642e-06
9.71008e-06
8.52269e-06
7.71056e-06
7.65519e-06
7.44621e-06
7.38154e-06
7.36713e-06
7.70261e-06
7.93057e-06
8.49769e-06
9.1143e-06
1.02614e-05
1.14693e-05
1.20632e-05
1.18359e-05
1.11652e-05
9.99989e-06
9.06833e-06
8.61753e-06
8.27081e-06
8.12193e-06
8.03615e-06
7.9213e-06
7.8362e-06
7.25921e-06
6.56889e-06
6.28688e-06
6.89265e-06
7.85517e-06
8.64074e-06
8.72904e-06
8.09028e-06
7.6666e-06
7.88215e-06
7.89957e-06
7.90157e-06
7.7365e-06
7.79362e-06
7.73062e-06
7.93517e-06
8.24133e-06
9.31446e-06
1.05439e-05
1.0903e-05
9.75529e-06
9.58162e-06
8.42862e-06
7.78798e-06
7.57635e-06
7.45095e-06
7.58577e-06
7.78891e-06
7.96344e-06
7.87973e-06
7.18977e-06
6.6431e-06
6.69122e-06
7.04296e-06
7.56345e-06
7.89731e-06
8.25243e-06
8.08932e-06
7.64343e-06
7.53333e-06
7.7094e-06
7.87741e-06
7.7124e-06
7.669e-06
7.3908e-06
7.2601e-06
7.16421e-06
8.13094e-06
9.37084e-06
9.32314e-06
8.2723e-06
8.36976e-06
7.17562e-06
6.76771e-06
6.93938e-06
7.16496e-06
7.42364e-06
7.79199e-06
8.10676e-06
8.17359e-06
7.53286e-06
7.09133e-06
7.34835e-06
7.6457e-06
7.73128e-06
7.6669e-06
8.1566e-06
8.32011e-06
7.78482e-06
7.36519e-06
7.37965e-06
7.67672e-06
7.67857e-06
7.65005e-06
7.27167e-06
6.76193e-06
6.41558e-06
7.2023e-06
8.48085e-06
8.17591e-06
6.20261e-06
6.78091e-06
5.47441e-06
5.28357e-06
5.81918e-06
6.20799e-06
6.63069e-06
7.12483e-06
7.52999e-06
7.81407e-06
7.41078e-06
7.31968e-06
7.69697e-06
7.88632e-06
7.64324e-06
7.31175e-06
7.79342e-06
8.00789e-06
7.72124e-06
7.19708e-06
6.85038e-06
6.81842e-06
6.75322e-06
6.71493e-06
6.33914e-06
5.85937e-06
5.38439e-06
5.89614e-06
7.04925e-06
6.27595e-06
4.53521e-06
5.55628e-06
4.36848e-06
4.77582e-06
5.32338e-06
5.8475e-06
6.43345e-06
7.01744e-06
7.50365e-06
7.84451e-06
7.6505e-06
7.81225e-06
8.17131e-06
8.21084e-06
7.91827e-06
7.51564e-06
7.73012e-06
7.94006e-06
7.91365e-06
7.59273e-06
6.99625e-06
6.67924e-06
6.40571e-06
6.35571e-06
6.10416e-06
5.75412e-06
5.14495e-06
4.81086e-06
5.74514e-06
4.6758e-06
2.12871e-06
3.61069e-06
3.3465e-06
4.07435e-06
4.69084e-06
5.44243e-06
6.14507e-06
6.905e-06
7.57502e-06
8.15087e-06
8.26629e-06
8.40928e-06
8.58784e-06
8.6577e-06
8.65102e-06
8.28533e-06
8.31551e-06
8.41677e-06
8.37837e-06
7.92172e-06
7.13801e-06
6.63199e-06
6.21708e-06
6.0165e-06
5.58804e-06
4.96187e-06
4.16734e-06
3.24944e-06
3.43951e-06
2.1065e-06
9.69435e-07
2.10586e-06
3.08985e-06
3.84354e-06
4.84054e-06
5.73554e-06
6.61813e-06
7.55378e-06
8.47268e-06
9.1118e-06
9.38411e-06
9.5259e-06
9.52801e-06
9.76046e-06
9.6666e-06
9.2063e-06
9.31077e-06
9.58314e-06
9.55334e-06
8.77809e-06
7.71363e-06
7.0453e-06
6.41848e-06
6.03114e-06
5.20817e-06
4.1996e-06
2.86823e-06
1.92694e-06
1.20503e-06
3.21763e-07
0.000399366
0.000471527
0.000111801
9.52015e-05
4.11315e-05
3.35868e-05
2.08703e-05
1.84567e-05
1.27456e-05
1.26449e-05
1.07912e-05
1.20551e-05
1.13651e-05
1.19103e-05
1.09328e-05
1.08154e-05
9.90862e-06
8.82591e-06
8.24438e-06
7.30359e-06
6.79323e-06
6.42629e-06
6.33281e-06
5.95549e-06
5.52306e-06
4.71263e-06
3.88153e-06
2.99938e-06
2.40116e-06
1.37542e-06
0.00046835
0.000100225
7.69469e-05
3.82399e-05
1.86599e-05
1.52179e-05
9.55928e-06
7.51581e-06
5.74703e-06
5.26688e-06
4.94118e-06
4.05027e-06
3.0193e-06
3.28336e-06
3.43151e-06
3.43924e-06
3.33816e-06
3.25594e-06
2.93593e-06
2.50972e-06
2.59854e-06
3.09222e-06
3.66876e-06
4.01211e-06
3.98315e-06
3.55519e-06
3.15346e-06
2.71351e-06
3.93913e-06
3.32635e-06
0.000109523
7.79753e-05
3.99076e-05
3.64895e-05
1.8304e-05
1.70768e-05
1.08658e-05
8.72449e-06
6.54354e-06
6.25774e-06
6.25202e-06
6.0651e-06
4.37719e-06
3.447e-06
3.07072e-06
2.85413e-06
2.50565e-06
2.03216e-06
1.867e-06
2.22284e-06
2.75092e-06
3.94353e-06
4.85107e-06
4.93685e-06
4.99701e-06
4.75815e-06
3.96102e-06
3.60837e-06
4.46232e-06
5.55276e-06
9.51095e-05
3.62028e-05
3.46842e-05
2.26629e-05
1.25571e-05
1.19216e-05
6.87861e-06
6.84406e-06
5.52031e-06
5.71381e-06
5.61134e-06
5.85562e-06
4.22179e-06
3.32975e-06
2.8289e-06
2.74526e-06
2.95617e-06
2.20869e-06
2.33796e-06
3.17404e-06
4.13089e-06
4.74195e-06
4.55117e-06
4.36763e-06
4.89543e-06
4.93008e-06
4.30135e-06
4.17883e-06
4.1502e-06
6.80768e-06
4.35282e-05
1.71441e-05
1.58941e-05
1.30185e-05
7.9614e-06
8.6202e-06
5.48137e-06
5.57268e-06
4.38424e-06
4.28737e-06
3.81708e-06
4.03179e-06
2.7516e-06
3.01565e-06
2.90577e-06
2.95337e-06
3.15786e-06
2.28592e-06
2.58095e-06
3.60996e-06
4.20126e-06
3.48946e-06
2.53353e-06
2.48719e-06
3.24211e-06
3.74844e-06
4.04527e-06
4.38049e-06
3.94124e-06
8.46627e-06
3.9965e-05
1.2733e-05
1.49598e-05
1.20569e-05
8.19427e-06
7.79685e-06
4.67407e-06
4.58484e-06
3.07542e-06
3.21945e-06
3.0446e-06
3.2646e-06
2.58022e-06
3.03687e-06
3.09113e-06
3.18308e-06
3.3245e-06
2.69299e-06
3.14318e-06
3.46774e-06
3.23508e-06
2.07374e-06
1.33881e-06
1.39935e-06
1.90473e-06
2.67287e-06
3.57253e-06
4.21278e-06
3.64101e-06
9.29208e-06
2.86982e-05
7.45088e-06
8.77826e-06
6.80724e-06
5.34858e-06
5.29759e-06
3.7652e-06
3.84161e-06
2.84338e-06
3.0503e-06
2.94213e-06
3.32761e-06
2.70148e-06
3.29969e-06
3.58914e-06
3.45589e-06
3.50242e-06
3.24254e-06
3.80785e-06
3.206e-06
2.61512e-06
1.7929e-06
1.50928e-06
1.2847e-06
1.6084e-06
2.62048e-06
3.59519e-06
4.13025e-06
3.66963e-06
1.06265e-05
2.89577e-05
4.89256e-06
7.39471e-06
7.04467e-06
5.75722e-06
5.54476e-06
4.21382e-06
4.11737e-06
3.12802e-06
3.1564e-06
2.93929e-06
3.02132e-06
2.14791e-06
2.92011e-06
3.47712e-06
3.12706e-06
2.99683e-06
3.13548e-06
3.58314e-06
2.8554e-06
2.17691e-06
1.67937e-06
1.47928e-06
1.30781e-06
1.79065e-06
2.81527e-06
3.55752e-06
3.9447e-06
3.5697e-06
1.14067e-05
2.40648e-05
4.0017e-06
4.92029e-06
4.59068e-06
4.33755e-06
4.34068e-06
3.71668e-06
3.7855e-06
3.28261e-06
3.33561e-06
2.99943e-06
2.39366e-06
1.39361e-06
3.62041e-06
4.51529e-06
3.85517e-06
2.90696e-06
2.41937e-06
3.09353e-06
2.66184e-06
2.24271e-06
1.83794e-06
1.71117e-06
1.76121e-06
2.29602e-06
3.01307e-06
3.38267e-06
3.51761e-06
3.3364e-06
1.24628e-05
2.43018e-05
2.71361e-06
3.77836e-06
3.92064e-06
4.00464e-06
4.25042e-06
3.81856e-06
3.89679e-06
3.6107e-06
3.44111e-06
2.93589e-06
1.96386e-06
2.58065e-06
5.05056e-06
5.87835e-06
5.08362e-06
3.71415e-06
1.83031e-06
2.167e-06
2.36544e-06
2.07817e-06
1.95883e-06
1.92807e-06
2.11765e-06
2.38934e-06
2.73041e-06
2.77614e-06
2.69139e-06
2.82444e-06
1.30226e-05
2.2114e-05
2.66437e-06
2.7428e-06
2.50656e-06
2.53017e-06
2.96221e-06
3.13921e-06
3.64475e-06
3.74391e-06
3.56021e-06
3.17226e-06
3.07496e-06
4.62969e-06
6.55596e-06
7.24281e-06
6.86805e-06
5.87484e-06
3.15345e-06
2.1843e-06
2.25018e-06
2.44273e-06
2.55558e-06
2.60682e-06
2.68767e-06
2.74285e-06
2.74282e-06
2.49262e-06
2.26285e-06
2.48337e-06
1.35651e-05
2.24427e-05
2.33236e-06
1.90889e-06
1.76001e-06
1.79003e-06
2.3534e-06
2.83398e-06
3.52462e-06
4.10407e-06
4.1142e-06
3.64002e-06
4.15209e-06
5.26822e-06
5.88962e-06
6.15173e-06
6.09889e-06
5.3289e-06
3.78737e-06
2.5573e-06
2.31978e-06
2.78628e-06
3.03448e-06
2.98478e-06
2.90473e-06
2.83903e-06
2.75215e-06
2.35445e-06
2.24019e-06
2.26789e-06
1.39025e-05
2.09529e-05
2.48102e-06
1.82625e-06
1.57093e-06
1.45044e-06
1.61681e-06
2.01784e-06
2.73748e-06
3.61571e-06
3.79255e-06
3.55814e-06
5.26675e-06
5.70952e-06
5.69425e-06
5.58524e-06
5.29505e-06
4.91041e-06
4.01556e-06
3.49449e-06
2.2169e-06
2.81675e-06
3.0348e-06
2.78418e-06
2.45157e-06
2.26868e-06
2.24359e-06
2.01395e-06
2.16639e-06
2.33225e-06
1.47567e-05
2.03475e-05
2.27896e-06
2.00239e-06
1.95098e-06
1.94582e-06
1.83869e-06
2.01411e-06
2.50338e-06
3.40465e-06
3.65159e-06
4.20215e-06
4.85977e-06
4.61402e-06
4.41326e-06
3.94562e-06
3.60417e-06
2.8814e-06
2.74768e-06
2.67108e-06
2.27844e-06
2.30965e-06
2.81919e-06
2.44958e-06
2.00694e-06
1.80678e-06
1.89895e-06
1.81169e-06
2.03133e-06
2.39861e-06
1.5548e-05
1.92873e-05
2.4239e-06
2.06775e-06
2.00355e-06
2.00652e-06
2.04808e-06
2.24926e-06
2.70715e-06
3.48574e-06
4.1952e-06
4.49965e-06
4.07268e-06
3.52222e-06
3.08634e-06
3.40954e-06
3.00489e-06
2.38233e-06
2.49879e-06
2.67514e-06
3.12371e-06
3.41285e-06
3.34244e-06
2.54314e-06
1.86114e-06
1.63136e-06
1.71822e-06
1.66069e-06
1.85967e-06
2.40787e-06
1.62105e-05
1.89455e-05
2.67691e-06
2.24766e-06
2.10953e-06
2.20501e-06
2.35781e-06
2.59373e-06
2.95373e-06
3.76205e-06
4.17515e-06
3.8424e-06
2.86468e-06
2.50245e-06
2.45598e-06
3.12791e-06
3.14774e-06
2.53998e-06
2.78909e-06
3.08645e-06
3.74836e-06
3.75744e-06
3.467e-06
2.41749e-06
1.5904e-06
1.2799e-06
1.48652e-06
1.50681e-06
1.63023e-06
2.0396e-06
1.60485e-05
1.7849e-05
2.70899e-06
2.43987e-06
2.26624e-06
2.41609e-06
2.5494e-06
2.70858e-06
3.08774e-06
3.73e-06
3.52062e-06
3.37651e-06
3.22266e-06
3.06828e-06
3.10476e-06
3.7581e-06
3.72501e-06
3.30076e-06
3.40972e-06
3.48878e-06
3.30509e-06
3.02752e-06
3.57534e-06
2.55102e-06
1.61416e-06
1.31108e-06
1.66224e-06
1.84114e-06
1.83397e-06
2.01532e-06
1.59847e-05
1.70379e-05
2.69653e-06
2.68384e-06
2.43097e-06
2.62295e-06
2.7303e-06
2.97372e-06
3.19702e-06
3.60252e-06
3.1758e-06
2.91805e-06
3.21681e-06
3.63442e-06
3.95999e-06
4.54285e-06
4.57707e-06
4.63481e-06
4.3353e-06
3.46889e-06
2.2117e-06
3.23032e-06
4.1075e-06
3.12248e-06
2.49869e-06
2.09931e-06
2.17007e-06
2.41712e-06
2.41795e-06
2.52016e-06
1.61214e-05
1.60302e-05
2.95993e-06
3.07875e-06
3.00928e-06
3.3551e-06
3.4206e-06
3.52589e-06
3.5086e-06
3.74646e-06
3.41338e-06
3.36855e-06
2.66397e-06
3.33706e-06
4.22574e-06
5.13594e-06
5.08403e-06
4.93753e-06
4.17573e-06
2.59589e-06
1.99488e-06
3.42929e-06
4.29178e-06
3.59712e-06
3.13345e-06
2.69311e-06
2.70828e-06
2.95091e-06
3.03506e-06
3.04662e-06
1.5773e-05
1.5223e-05
3.10752e-06
2.98929e-06
3.22263e-06
3.52103e-06
3.16859e-06
2.98426e-06
2.72835e-06
2.98569e-06
2.65071e-06
2.83881e-06
1.61542e-06
2.20207e-06
4.10868e-06
5.51541e-06
5.75558e-06
5.46828e-06
3.59536e-06
1.65732e-06
2.18175e-06
2.78448e-06
3.47166e-06
3.00444e-06
2.86598e-06
2.66402e-06
2.98369e-06
3.12445e-06
2.96415e-06
3.07277e-06
1.48704e-05
1.43463e-05
3.45074e-06
3.12493e-06
3.6221e-06
3.80777e-06
2.93442e-06
2.49391e-06
2.18415e-06
2.46039e-06
2.31718e-06
2.73426e-06
1.78751e-06
1.01407e-06
2.13731e-06
3.91704e-06
4.80834e-06
4.52174e-06
2.01721e-06
1.51399e-06
2.76909e-06
2.64797e-06
2.90896e-06
2.47666e-06
2.61415e-06
2.80693e-06
3.54607e-06
3.56711e-06
3.29666e-06
3.12521e-06
1.34543e-05
1.3421e-05
3.60803e-06
3.7081e-06
4.15242e-06
3.80616e-06
2.68753e-06
2.15134e-06
1.66581e-06
1.94142e-06
2.00055e-06
2.66832e-06
2.57762e-06
2.08526e-06
1.54529e-06
2.44979e-06
3.10397e-06
2.65518e-06
1.44822e-06
1.98784e-06
2.66027e-06
2.17165e-06
2.26533e-06
1.83999e-06
2.09612e-06
2.43961e-06
3.48013e-06
3.86447e-06
3.79284e-06
3.20842e-06
1.24405e-05
1.23108e-05
3.62386e-06
4.3116e-06
4.23193e-06
3.42695e-06
2.30175e-06
1.82219e-06
1.30133e-06
1.73128e-06
1.89289e-06
2.69992e-06
3.0602e-06
2.99318e-06
2.99558e-06
3.15857e-06
3.03057e-06
1.85803e-06
2.21759e-06
2.86396e-06
2.9212e-06
1.97586e-06
1.91638e-06
1.48207e-06
1.74606e-06
1.9648e-06
3.17028e-06
3.93137e-06
4.10949e-06
3.41003e-06
1.1395e-05
1.1381e-05
3.61894e-06
4.36046e-06
3.58089e-06
2.74253e-06
1.83271e-06
1.50936e-06
9.69291e-07
1.49367e-06
1.85493e-06
2.80864e-06
2.91462e-06
2.99718e-06
3.71259e-06
3.77712e-06
3.00989e-06
1.95506e-06
2.9427e-06
3.42342e-06
3.60576e-06
2.3944e-06
1.71291e-06
1.18476e-06
1.45469e-06
1.57962e-06
2.70872e-06
3.76736e-06
4.2676e-06
3.49936e-06
1.05386e-05
9.79686e-06
3.70725e-06
4.2667e-06
3.06347e-06
2.25616e-06
1.5999e-06
1.81042e-06
1.50625e-06
1.81764e-06
2.15744e-06
3.06538e-06
2.74065e-06
2.84173e-06
3.86539e-06
3.85765e-06
2.88456e-06
2.43742e-06
3.15311e-06
3.59696e-06
4.39158e-06
3.54556e-06
2.42862e-06
1.4861e-06
1.82063e-06
2.04852e-06
3.07967e-06
3.92366e-06
4.65222e-06
3.79706e-06
9.41386e-06
8.65483e-06
3.66512e-06
3.97909e-06
2.74893e-06
2.22662e-06
1.99438e-06
2.43949e-06
2.42412e-06
2.85647e-06
2.88684e-06
3.15943e-06
2.321e-06
2.6726e-06
3.60723e-06
3.55456e-06
2.77118e-06
2.54491e-06
2.90504e-06
3.33564e-06
4.44096e-06
4.30981e-06
3.89052e-06
2.91615e-06
3.10304e-06
3.48468e-06
4.22061e-06
4.20434e-06
4.77713e-06
4.13282e-06
8.52116e-06
7.19163e-06
3.88779e-06
3.92231e-06
3.00979e-06
3.24669e-06
3.32642e-06
3.71941e-06
3.8138e-06
4.51679e-06
4.52011e-06
4.08921e-06
2.12361e-06
2.31772e-06
3.23235e-06
3.75871e-06
3.22866e-06
3.13993e-06
3.64445e-06
3.90097e-06
4.81476e-06
4.80782e-06
5.29085e-06
5.13461e-06
5.47065e-06
5.58948e-06
5.589e-06
4.52426e-06
4.62002e-06
4.50534e-06
7.0573e-06
6.07103e-06
4.37129e-06
3.81575e-06
3.57397e-06
3.86993e-06
3.68135e-06
3.86259e-06
3.82194e-06
4.53923e-06
4.70778e-06
4.40963e-06
2.15211e-06
1.82537e-06
2.83745e-06
3.42705e-06
2.87151e-06
2.6608e-06
3.39588e-06
3.48931e-06
3.82105e-06
3.48535e-06
4.24326e-06
4.7085e-06
5.61517e-06
5.51913e-06
5.15547e-06
3.89496e-06
3.63875e-06
4.5647e-06
5.78288e-06
4.06938e-06
4.4126e-06
3.28224e-06
3.63173e-06
3.57798e-06
3.4209e-06
3.6603e-06
3.74645e-06
4.37948e-06
4.68486e-06
4.6832e-06
3.54679e-06
3.42018e-06
3.0866e-06
2.79508e-06
2.09764e-06
2.14387e-06
2.71504e-06
2.68571e-06
2.88653e-06
2.57701e-06
3.23654e-06
3.40541e-06
4.13156e-06
4.0399e-06
3.70864e-06
3.08296e-06
2.64861e-06
3.87654e-06
3.48218e-06
2.38509e-06
3.3184e-06
3.73213e-06
4.36506e-06
4.98908e-06
5.61205e-06
6.44935e-06
7.32448e-06
8.36759e-06
9.1748e-06
9.3558e-06
9.06597e-06
8.63873e-06
8.53161e-06
8.41342e-06
8.05761e-06
8.14521e-06
8.17263e-06
8.25755e-06
7.95821e-06
7.15881e-06
6.75578e-06
6.10258e-06
5.9321e-06
5.34118e-06
4.61261e-06
3.60779e-06
2.63576e-06
2.12719e-06
1.41195e-06
0.000409615
0.000112048
9.28769e-05
6.31609e-05
4.14393e-05
3.40008e-05
2.19889e-05
1.87672e-05
1.21495e-05
1.14314e-05
9.35769e-06
9.88253e-06
9.62573e-06
8.29906e-06
8.05555e-06
7.71868e-06
7.11664e-06
7.5167e-06
6.45841e-06
6.94524e-06
5.39881e-06
5.95231e-06
5.80978e-06
6.59059e-06
6.26897e-06
5.64367e-06
4.66974e-06
3.52547e-06
2.60834e-06
2.10118e-06
0.000109783
7.84631e-05
4.13444e-05
3.73316e-05
1.70045e-05
1.52608e-05
9.60822e-06
8.12703e-06
6.91354e-06
6.00023e-06
4.57895e-06
2.99707e-06
2.68737e-06
2.99567e-06
3.48293e-06
2.91562e-06
2.85576e-06
2.98626e-06
2.82654e-06
2.22857e-06
1.31623e-06
1.78584e-06
2.71921e-06
3.25854e-06
3.04221e-06
2.55656e-06
2.33864e-06
2.37899e-06
2.90639e-06
3.04229e-06
9.15673e-05
4.17218e-05
3.23201e-05
3.3043e-05
1.86102e-05
1.67972e-05
1.03907e-05
8.83948e-06
7.75048e-06
7.75769e-06
6.66779e-06
5.15858e-06
4.06428e-06
3.69107e-06
3.72931e-06
3.43641e-06
3.76646e-06
3.50957e-06
3.30059e-06
3.0867e-06
2.71634e-06
3.22263e-06
4.64513e-06
5.2287e-06
4.02739e-06
2.9206e-06
3.17344e-06
4.13713e-06
3.73532e-06
4.76585e-06
6.53206e-05
3.5748e-05
3.17824e-05
2.50874e-05
1.48207e-05
1.32981e-05
8.08171e-06
7.07307e-06
5.75795e-06
6.53638e-06
6.84394e-06
6.59805e-06
5.60125e-06
4.66024e-06
3.96433e-06
3.65554e-06
3.61576e-06
3.19279e-06
3.22631e-06
2.95052e-06
2.24082e-06
4.19872e-06
6.2834e-06
6.37088e-06
5.14252e-06
3.59241e-06
3.55613e-06
4.32559e-06
4.02301e-06
5.9552e-06
4.45731e-05
1.69311e-05
1.68357e-05
1.39789e-05
9.59793e-06
9.64733e-06
6.73842e-06
6.07294e-06
4.94019e-06
5.8317e-06
7.26334e-06
7.21559e-06
5.26273e-06
4.18789e-06
3.56272e-06
3.29381e-06
3.04344e-06
2.93028e-06
3.0423e-06
3.1412e-06
4.38931e-06
5.84194e-06
6.26279e-06
6.13388e-06
5.64668e-06
4.36497e-06
4.23069e-06
3.76376e-06
4.20292e-06
7.49956e-06
3.98943e-05
1.48631e-05
1.60841e-05
1.27017e-05
9.26001e-06
8.02048e-06
5.40886e-06
4.38063e-06
3.33645e-06
3.94789e-06
5.0686e-06
4.62663e-06
2.90942e-06
2.44156e-06
2.19391e-06
2.33357e-06
2.46669e-06
2.72244e-06
2.20673e-06
3.12119e-06
3.80418e-06
3.65895e-06
2.92005e-06
3.30806e-06
4.05344e-06
4.23623e-06
4.45512e-06
3.05793e-06
4.12733e-06
8.30134e-06
2.92276e-05
8.37055e-06
9.20516e-06
7.11157e-06
5.81555e-06
5.31199e-06
3.79625e-06
3.39415e-06
2.99793e-06
3.25022e-06
3.96041e-06
3.69298e-06
2.4208e-06
2.3659e-06
2.5438e-06
2.54826e-06
2.39255e-06
2.34994e-06
2.43802e-06
3.12263e-06
2.46504e-06
1.79641e-06
9.76135e-07
1.55822e-06
3.10681e-06
4.11197e-06
4.13939e-06
2.57351e-06
4.12213e-06
9.5319e-06
2.86221e-05
6.3597e-06
7.59859e-06
7.26963e-06
6.32688e-06
5.65843e-06
4.27133e-06
3.83691e-06
3.24258e-06
3.00828e-06
3.41573e-06
3.20757e-06
2.20149e-06
2.52839e-06
2.26688e-06
1.81928e-06
1.38327e-06
1.94589e-06
2.67473e-06
2.83169e-06
1.59221e-06
1.33955e-06
8.57017e-07
1.35018e-06
2.80728e-06
3.62099e-06
3.49799e-06
2.37585e-06
3.91266e-06
1.02954e-05
2.34259e-05
4.70377e-06
4.59533e-06
3.95124e-06
4.04642e-06
4.28463e-06
3.73313e-06
3.51783e-06
3.19796e-06
2.93896e-06
3.14526e-06
2.52048e-06
2.331e-06
3.16292e-06
2.44716e-06
1.39504e-06
1.30181e-06
1.27895e-06
2.1481e-06
2.55456e-06
1.69293e-06
1.62906e-06
1.33386e-06
1.84019e-06
2.69908e-06
3.07229e-06
3.08798e-06
2.36147e-06
3.59712e-06
1.14339e-05
2.29796e-05
3.96119e-06
3.87463e-06
3.20013e-06
3.1655e-06
3.73524e-06
3.77106e-06
3.62031e-06
3.26601e-06
2.83166e-06
2.73889e-06
2.37065e-06
3.06936e-06
3.73043e-06
3.89828e-06
2.8653e-06
2.75772e-06
2.36132e-06
1.55391e-06
1.86608e-06
1.45597e-06
1.53079e-06
1.6059e-06
2.12301e-06
2.3044e-06
2.32127e-06
2.24856e-06
1.69883e-06
3.02909e-06
1.22298e-05
2.06082e-05
3.33552e-06
2.9104e-06
2.52683e-06
2.08747e-06
2.12526e-06
2.81968e-06
3.4209e-06
3.45743e-06
3.02586e-06
3.56805e-06
4.34716e-06
5.35822e-06
6.09966e-06
6.6333e-06
6.01094e-06
5.49244e-06
4.40821e-06
3.27027e-06
2.60997e-06
2.0379e-06
2.07244e-06
2.18324e-06
2.3125e-06
2.00673e-06
1.86383e-06
1.73021e-06
1.33784e-06
2.54752e-06
1.28968e-05
2.09424e-05
2.83817e-06
2.11545e-06
1.99605e-06
1.62388e-06
1.45493e-06
2.4017e-06
3.26015e-06
3.37832e-06
3.62964e-06
4.87248e-06
5.08527e-06
6.34128e-06
7.02281e-06
7.56015e-06
7.53012e-06
6.4816e-06
5.04349e-06
3.94468e-06
3.48216e-06
2.6017e-06
2.17202e-06
1.98789e-06
1.95462e-06
1.73151e-06
1.71369e-06
1.66906e-06
1.34564e-06
1.98609e-06
1.32399e-05
1.97253e-05
2.3328e-06
1.53786e-06
1.43825e-06
1.25441e-06
1.06805e-06
1.83128e-06
2.94614e-06
2.73779e-06
3.88904e-06
5.46217e-06
6.18441e-06
7.77822e-06
8.36126e-06
8.5481e-06
8.28494e-06
7.62041e-06
6.30759e-06
5.05763e-06
4.09972e-06
3.15035e-06
1.82758e-06
1.62195e-06
1.57169e-06
1.36173e-06
1.3605e-06
1.3879e-06
1.08484e-06
1.96269e-06
1.40391e-05
1.9386e-05
2.26418e-06
1.49156e-06
1.41046e-06
1.46922e-06
1.48832e-06
2.02371e-06
2.98003e-06
2.90975e-06
3.59282e-06
4.86754e-06
6.45306e-06
7.3548e-06
8.11427e-06
8.11902e-06
7.87016e-06
7.12885e-06
6.15743e-06
5.56704e-06
3.66577e-06
2.98426e-06
2.00466e-06
1.33686e-06
1.18149e-06
1.21037e-06
1.17257e-06
9.7564e-07
5.59398e-07
2.00576e-06
1.46566e-05
1.82127e-05
2.59219e-06
1.54342e-06
1.4892e-06
1.51237e-06
1.68698e-06
1.94159e-06
2.26404e-06
2.96401e-06
4.33411e-06
5.27568e-06
6.01012e-06
5.66188e-06
6.47657e-06
7.3329e-06
7.39459e-06
6.44719e-06
5.68346e-06
5.78691e-06
4.88219e-06
4.2185e-06
2.83721e-06
1.81111e-06
1.24159e-06
1.24631e-06
1.07104e-06
7.91087e-07
5.42753e-07
2.03999e-06
1.5195e-05
1.77959e-05
2.83517e-06
1.37104e-06
1.38681e-06
1.55075e-06
1.87804e-06
2.01572e-06
2.34764e-06
3.32244e-06
4.6533e-06
5.09529e-06
5.46536e-06
4.88804e-06
5.83897e-06
7.01001e-06
7.16243e-06
6.30413e-06
5.58759e-06
6.04563e-06
5.25428e-06
4.35027e-06
3.04012e-06
1.7799e-06
1.20722e-06
1.23753e-06
1.06554e-06
9.45457e-07
6.59158e-07
1.80267e-06
1.50733e-05
1.68709e-05
2.91985e-06
1.38227e-06
1.61502e-06
1.65e-06
2.01933e-06
2.00771e-06
2.24427e-06
2.82045e-06
3.82748e-06
4.32786e-06
5.79691e-06
5.87208e-06
6.81316e-06
7.55812e-06
7.70912e-06
7.39326e-06
6.21638e-06
5.99968e-06
4.01847e-06
3.87234e-06
2.7759e-06
1.67563e-06
1.26862e-06
1.18983e-06
1.00611e-06
1.41125e-06
1.23741e-06
1.78471e-06
1.51007e-05
1.62577e-05
2.91578e-06
1.81781e-06
1.96799e-06
1.66144e-06
1.90578e-06
2.1178e-06
2.32865e-06
2.47873e-06
3.80725e-06
4.6032e-06
5.22897e-06
5.98201e-06
7.01355e-06
7.85381e-06
8.08964e-06
7.51137e-06
6.13022e-06
5.16684e-06
3.83096e-06
3.90698e-06
2.41135e-06
2.13199e-06
1.73524e-06
1.18232e-06
1.12325e-06
2.11855e-06
2.06977e-06
2.42044e-06
1.49885e-05
1.50839e-05
3.0852e-06
2.11498e-06
2.13491e-06
2.19217e-06
2.65166e-06
2.83012e-06
2.91742e-06
2.85888e-06
3.47224e-06
4.01667e-06
4.32562e-06
4.69573e-06
5.95754e-06
7.35538e-06
7.81764e-06
6.67321e-06
5.33574e-06
4.42086e-06
3.8616e-06
3.60346e-06
3.07322e-06
2.62981e-06
2.10775e-06
1.65886e-06
1.55811e-06
2.29183e-06
2.17039e-06
3.03957e-06
1.44175e-05
1.40806e-05
3.25842e-06
2.07945e-06
1.92595e-06
2.64271e-06
3.12984e-06
2.74303e-06
2.55e-06
2.31173e-06
2.4926e-06
2.59278e-06
3.26007e-06
3.44661e-06
4.54541e-06
5.97523e-06
7.06387e-06
6.22868e-06
4.92572e-06
3.77059e-06
3.00112e-06
2.91195e-06
2.76765e-06
2.62852e-06
2.41297e-06
2.52737e-06
2.20659e-06
2.04732e-06
1.754e-06
3.27487e-06
1.34079e-05
1.31689e-05
3.7054e-06
2.42419e-06
2.16288e-06
3.4383e-06
3.80492e-06
2.71266e-06
2.10006e-06
1.8392e-06
1.92096e-06
1.83548e-06
1.9764e-06
2.03428e-06
3.08883e-06
3.30433e-06
4.38019e-06
4.1236e-06
3.64755e-06
2.59907e-06
2.23779e-06
2.54184e-06
2.31182e-06
2.32515e-06
2.71218e-06
3.56756e-06
3.255e-06
2.21662e-06
1.56125e-06
3.21195e-06
1.1973e-05
1.21933e-05
3.72358e-06
2.3709e-06
3.13801e-06
4.22332e-06
3.75018e-06
2.44605e-06
1.87462e-06
1.64675e-06
1.67201e-06
2.05734e-06
2.55586e-06
1.59286e-06
2.05158e-06
2.87234e-06
2.97376e-06
2.84944e-06
2.83072e-06
2.38166e-06
2.01614e-06
2.15287e-06