/*--------------------------------*- C++ -*----------------------------------*\
| =========                 |                                                 |
| \\      /  F ield         | OpenFOAM: The Open Source CFD Toolbox           |
|  \\    /   O peration     | Version:  v1906                                 |
|   \\  /    A nd           | Web:      www.OpenFOAM.com                      |
|    \\/     M anipulation  |                                                 |
\*---------------------------------------------------------------------------*/
FoamFile
{
    version     2.0;
    format      ascii;
    class       volScalarField;
    location    "0.32/oil";
    object      heatTransferCoeff(T);
}
// * * * * * * * * * * * * * * * * * * * * * * * * * * * * * * * * * * * * * //

dimensions      [1 0 -3 -1 0 0 0];


internalField   uniform 0;

boundaryField
{
    maxY
    {
        type            calculated;
        value           uniform 0;
    }
    minX
    {
        type            calculated;
        value           uniform 0;
    }
    maxX
    {
        type            calculated;
        value           uniform 0;
    }
    minY
    {
        type            calculated;
        value           uniform 0;
    }
    minZ
    {
        type            calculated;
        value           uniform 0;
    }
    maxZ
    {
        type            calculated;
        value           uniform 0;
    }
    oil_to_sphere
    {
        type            calculated;
        value           nonuniform List<scalar> 
1536
(
-4204.32
-3934.44
-3945.22
-4232.09
-4200.1
-4153.16
-4112.66
-4064.35
-3881.21
-3351.14
-4194.31
-3364.74
-3559.52
-3516.08
-4304.93
-4263.29
-4067.38
-3879.25
-1642.6
-3543.3
-3611.39
-4195.6
-4054.71
-4268.98
-4304.91
-4315.5
-4299.9
-4273.45
-3856.2
-4044.25
-3892.36
-3901.04
-4004.92
-4310.69
-4271.87
-4250.77
-4212.78
-4366.27
-4266.54
-4339.88
-4291.67
-4260.05
-4079.67
-3638
-4011.87
-3607.84
-4092.52
-4117.85
-4377.2
-4149.09
-4244.42
-4105.03
-4044.33
-4036
-3912.93
-3812.43
-4139.73
-4109.16
-3836.43
-3488.17
-3450.25
-3508.57
-3469.37
-1554.03
-1561.3
-3603.69
-4027.91
-3485.54
-4255.97
-4014.04
-4317.34
-4192.24
-4274.69
-4297.31
-4264.1
-3937.04
-3692.97
-4104.69
-4259.31
-3823.53
-3512.59
-3452.36
-3324.77
-3356.14
-3283.11
-3446.92
-3241.2
-4055.96
-3911.89
-3492.95
-3422.36
-1590.34
-1615.55
-1585.66
-1569.82
-3608.53
-4025.32
-3393.7
-3529.63
-4222.81
-4035.37
-4307.39
-4104.37
-4010.21
-4156.04
-4301.54
-4262.41
-4149.11
-4143.82
-3888.94
-3810.83
-3972.54
-3494.61
-3498.23
-3309.31
-3245.66
-3280.95
-3323.98
-3333.68
-3362.82
-3788.81
-3424.88
-1630.27
-3590.52
-4215.57
-4070.14
-4257.02
-3965.98
-4148.6
-4235.24
-4082.04
-4257.63
-4121.61
-4232.97
-4134.81
-4227.2
-4078.54
-3843.45
-4045.86
-4148.36
-3475.52
-3472.97
-4064.54
-3796.86
-3413.81
-3837.04
-4278.67
-3603.16
-3515.42
-4292.09
-4368.83
-3555.67
-4245.92
-4212.88
-4190.28
-3478.69
-4139.08
-3463.16
-4343.3
-3445.63
-4252.99
-3490.01
-4385.8
-4356.23
-4253.18
-4207.16
-4173.16
-3385.46
-4087.9
-3510.44
-3922.35
-3876.13
-3861.28
-3777.3
-3777.39
-3585.19
-4286.84
-3577.33
-3678.95
-4274.86
-4398.8
-4341.91
-4222.88
-4251.29
-3471.48
-4067.35
-3459.44
-3932.03
-3901.2
-3988.42
-4089.57
-4321.4
-3770.56
-4205.54
-4294.39
-4219.65
-3963.41
-4141.94
-3653.78
-4159.23
-4120.73
-4184.39
-3954.97
-3627.81
-3771.33
-3794.27
-3776.99
-3857.09
-3911.36
-3514.38
-4034.41
-3806.39
-3861.46
-3203.55
-3500.12
-3421.08
-3213.91
-3368.33
-3514.22
-2923.35
-3567.75
-3860.1
-3840.46
-3569.52
-3509.86
-3732.53
-4403.93
-3687.53
-4398.68
-4432.37
-4238.32
-4161.22
-4215.9
-3614.4
-3596.92
-4026.28
-3700.64
-3688.49
-3621.12
-3910.37
-3827.36
-2262.61
-2651.8
-3485.31
-3034.25
-3914.09
-3923.68
-3464.34
-3508.6
-3086.53
-3920.1
-4458.33
-4018.27
-4317.8
-3600.32
-4219.41
-4245.08
-4039.22
-3830.86
-3879.48
-3946.45
-3485.03
-3807.1
-2661.65
-2245.44
-2237.61
-2335.45
-2442.88
-3821.35
-3597.24
-3876.19
-3672.53
-3614.81
-3906.94
-3878.76
-3572.16
-3408.25
-3079.65
-3919.49
-3722.49
-4288.79
-4232.58
-3951.25
-3782.24
-4101.6
-4101.08
-4044.8
-4194.39
-4064.14
-3952.54
-4202.28
-3499.92
-4132.27
-3695.24
-3774.53
-3829.22
-3800.77
-3695.83
-3849.7
-3866.7
-4084.05
-4035.84
-3839.86
-3747.6
-3733.61
-4230.55
-3491.44
-4256.56
-4217.55
-3375.74
-4020.91
-3440.51
-4030.4
-3967.67
-3895.73
-3827.11
-4044.42
-4075.03
-4166.73
-3614.38
-3917
-3903.13
-3839.6
-4206.24
-3842.32
-3676.05
-3867.85
-3574.93
-3926.26
-3479.44
-3722.13
-3608.9
-4139.33
-3939.95
-3801.93
-4160.7
-3660.81
-3930.26
-3971.2
-3389.39
-3043.79
-3800.8
-3641.5
-3785.39
-3696.5
-3706.77
-3843.07
-3866.61
-3801.82
-4008.72
-4123.66
-4219.48
-3911.02
-4267.42
-3858.3
-4133.62
-3993.98
-3993.01
-4227.5
-3895.5
-4285.44
-4156.1
-3876.93
-4220.75
-4082.86
-4060.38
-4187.81
-4171.87
-4194.22
-4041.26
-3828.26
-4351.09
-4168.86
-3966.55
-4243.49
-4028.44
-4227.15
-4179.95
-4024.75
-3454.45
-4139.77
-3695.71
-4017.16
-3781.23
-3872.82
-4186.93
-4054.34
-3498.79
-4100.96
-3889.82
-3937.43
-3804.03
-3675.07
-3896.18
-3776.91
-3616.18
-4070.81
-3562.85
-4024.33
-3827.16
-4190.48
-4041.93
-3356.59
-4183.29
-4044.21
-3828.1
-4099.8
-3712.32
-3979.42
-3855.17
-3778.86
-3766.73
-3830.78
-3870.24
-3804.62
-3715.95
-3815.15
-3809.04
-4013.86
-3863.24
-3912.96
-3880.28
-3693.01
-3498.86
-3908.61
-3674.92
-3595.34
-3759.48
-3337.41
-3505.65
-3943.28
-3683.33
-3808.87
-3756.46
-3776.28
-3685.88
-3761.41
-3284.89
-3084.14
-3415.24
-3496.8
-3803.04
-3675.78
-3543.54
-3563.82
-3925.23
-3817.12
-3956.63
-4036.84
-3828.56
-3957.65
-3891.88
-3750.08
-2463.64
-2492.11
-2459.25
-2551.54
-2226.01
-2249.29
-2521
-2264.71
-2282.2
-2136.17
-2612.79
-3525.54
-3824.54
-3852.13
-3599.45
-3757.26
-4123.48
-3917.99
-3909.88
-3946.57
-3384.05
-4104.23
-3892.39
-4054.8
-3682.84
-4230.58
-3828.71
-3725.22
-3908.78
-3962.79
-3466.12
-3954.75
-4132.83
-3890.79
-4138.13
-3368.1
-4302.86
-3429.91
-4346.55
-4324.31
-4411.01
-4333.8
-4441.46
-4261.4
-4320.76
-4264.77
-4339.81
-4237.73
-3491.73
-4247.71
-4200.48
-3453.45
-3516.11
-4081.49
-4239.87
-4353.78
-3504.57
-4148.63
-4293.51
-4237.62
-4222.22
-4106.94
-3754.27
-3528.65
-3826.02
-3670.92
-3508.46
-4062.4
-3861.87
-3699.76
-3843.26
-3791.26
-3241.47
-3513.84
-3464.95
-2941.7
-3448.4
-3021.59
-3581.88
-3161.23
-3659.19
-3366.45
-3458.12
-3690.38
-3922.83
-3810.59
-3701.85
-3396.86
-3853.64
-3715.2
-3461.48
-4028.38
-3875.77
-3793.43
-3942.89
-3826
-3748.59
-3744.8
-3252.79
-3515.12
-3802.31
-2389.59
-2660.79
-2428.96
-2619.37
-2274.21
-2272.39
-2303.02
-2227.73
-2638.85
-2595.62
-2300.9
-2274.07
-2263.35
-2318.06
-2607.46
-2288.87
-2163.17
-2280.61
-2492.73
-2600.48
-2582.35
-2496.02
-2260.35
-3969.9
-3414.58
-3118.42
-4143.58
-3807.97
-3518.54
-3964.54
-3512.67
-3731.31
-3668.88
-3550.69
-4190.16
-3707.52
-3957.84
-3938.31
-3768.59
-3777.79
-3283.24
-3343.32
-4089.65
-3998.73
-3521.62
-4155
-3908.09
-3574.65
-3788.84
-3503.48
-4054.31
-4202.05
-3656.86
-3965.74
-3761.15
-3831.34
-4366.4
-3424.45
-4390.22
-4355.07
-3499.53
-3526.17
-4304.92
-4453.2
-4411.83
-3922.35
-4157.02
-4329.14
-4334.06
-4286.78
-4261.39
-4197
-4253.13
-3553.02
-3652
-4077.64
-3530.4
-4310.55
-3437.41
-3521.43
-3728.51
-4289.49
-4272.7
-4274.61
-3625.05
-4244.11
-3728.25
-4201.67
-4082.31
-3523.16
-4201.59
-3437.04
-3756.9
-3349.84
-2948.61
-3558.06
-3960.67
-3670.97
-3725.62
-3652.57
-3707.01
-3682.33
-3826.42
-3444.49
-3782.2
-3573.5
-3518.04
-3507.85
-3559.55
-3083.72
-3416.73
-3461.68
-3009.13
-3453.25
-3434.04
-2913.55
-3237.18
-3675.7
-3595.96
-3235.96
-3330
-4077.61
-3807.01
-3734.76
-3486.95
-3845.74
-3761.46
-3738.44
-3316.33
-2997.45
-3799.8
-3967.93
-3918.32
-3985.34
-3607.77
-3767.55
-3575.46
-3759.78
-3800.49
-3411.98
-3707.11
-3387.66
-3454.82
-2321.11
-2301.34
-2395.83
-2337.57
-2565.17
-2608.64
-2404.12
-2267.56
-2664.72
-3835.66
-3917.04
-3986.55
-3956.06
-4020.21
-3946.83
-3986.86
-3917.08
-3878.68
-3463.73
-3881.68
-3873.07
-3699.75
-4130.79
-3971.6
-3984.38
-3992.74
-4186.28
-4104.9
-3961.69
-3550.69
-3721.52
-3633.36
-3909.43
-3777.48
-3837.85
-3591.58
-4181.89
-4147.09
-3852.01
-3941.64
-3764.07
-4173.81
-3967.73
-3991.46
-3903.69
-4112.39
-3935.36
-3970.44
-4123.01
-3926.07
-4001.86
-4271.16
-4138.37
-4047.63
-4163.49
-3968.64
-4155.18
-4208.33
-3903.92
-4106.56
-4287.98
-4239.31
-3842.35
-4246.81
-4106.49
-3890.17
-4227.42
-4181.64
-4094.66
-4295.52
-4165.29
-3850.69
-3789.06
-4311.15
-4227.23
-3909.4
-4320.96
-4254.41
-4168.55
-4130.66
-4130.5
-3624.01
-4027.46
-3784.65
-3950.55
-3886.78
-3967.25
-3482.2
-4198.77
-4162.26
-3528.27
-4085.25
-4051.23
-3943.09
-3892.28
-3683.19
-4138.35
-4131.62
-3951.28
-3539.04
-4164.58
-3928.03
-4006.61
-4086.8
-3675.32
-4065.2
-3815.7
-3819.01
-3893.47
-3548.04
-4180.47
-4060.17
-4102.45
-3824.56
-3894.17
-3698.21
-4057.28
-4073.5
-3834.53
-3890.67
-3773.31
-3799.43
-3808.81
-3932.99
-3823.96
-3922.22
-3491.04
-3820.26
-3719.46
-3637.11
-3747.7
-3737.08
-3334.49
-3450.88
-3788.92
-3617.77
-3915.23
-3874.28
-3758.95
-3776.51
-3934.61
-4062.02
-3856.31
-3829.4
-3869.49
-3795.2
-3737.68
-3777.41
-3330.65
-3062.74
-3839.42
-3349.22
-3750
-3767.77
-3525.21
-3523.35
-3860.66
-3516.31
-4011.3
-3854.42
-3818.55
-3789.3
-3780.49
-3565.09
-3956.05
-3783.62
-4030.13
-4288.83
-3970.08
-4054.75
-3151.93
-3800.86
-3152.37
-3334.86
-3916.37
-4195.03
-3687.62
-3583.19
-4086.91
-4130.19
-3950.21
-4127.61
-3354.5
-2553.54
-4268.6
-3928.79
-4091.6
-3271.55
-2513.39
-3477.86
-3916.27
-4408.68
-4197.79
-3503.81
-4141.9
-4205.69
-4012.2
-4203.81
-3890.19
-4151.39
-4061.89
-3793.55
-4152.74
-4140.44
-4082.6
-4098.85
-4145.79
-4131.54
-4121.11
-4071.42
-4207.28
-3753.66
-3924.15
-4349.05
-3633.33
-4182.13
-3884.43
-4159.57
-3996.72
-4159.07
-3904.11
-3982.12
-4264.87
-3887.97
-4185.99
-3851.8
-3978.4
-4301.34
-3763
-4222.34
-4406.8
-4375.19
-4210.25
-4272.37
-4240.89
-4241.52
-4198.37
-3872.36
-3909.19
-4269.34
-3815.41
-4065.13
-3525.69
-3543.88
-4163.17
-3930.78
-4196.14
-3451.09
-3900.84
-4247.93
-4278.77
-4390.45
-4045.08
-4307.7
-4213.39
-3877.38
-4137.75
-4159.97
-4123.79
-3930.28
-4133.08
-3864.93
-4092.61
-3273.89
-3784.04
-3535.16
-3373.75
-2712.59
-3377.45
-2724.85
-2640.4
-3418.68
-3343.18
-2678.26
-3588.99
-4293.43
-4017.85
-4367.55
-3984.42
-4199.8
-4210.43
-3842.1
-4293.05
-3655.22
-4070.65
-3912.58
-3808.26
-4256.5
-3655.14
-3764.77
-4168.84
-3599.76
-3925.89
-4108.49
-3896.34
-3551.26
-3088.7
-2965.35
-4102.16
-3828.84
-2575.39
-2576.07
-2757.56
-3581.1
-2637
-3416.01
-2524.36
-3344.77
-2685.42
-3397.71
-2582.15
-3374.48
-4285.74
-3942.51
-4310.86
-3194.18
-3125.55
-3831.47
-3867.73
-3939.25
-4202.88
-3622.94
-4211.08
-3834.17
-3803
-4171.81
-3746.31
-4073.74
-4293.04
-3661.72
-4225.86
-3830.33
-3855.92
-3632.88
-4122.89
-3918.65
-4042.82
-4163.26
-3889.77
-3163.02
-3582.56
-3092.87
-4071.1
-3772.47
-2580.3
-2782.87
-2515.94
-3555.92
-3826.93
-4230.71
-3877.12
-4179.07
-4212.7
-3977.62
-4289.95
-4325.92
-4294.93
-4194.33
-3978.62
-4092.67
-4164.03
-4094.67
-3833.41
-3994.13
-3813.3
-4054.35
-4437.6
-4386.66
-4414.84
-4206.23
-3879.62
-4345.13
-4263.02
-3578.39
-4189.14
-4368.26
-3633.8
-4429.7
-4414.72
-3535.3
-4053.51
-4279.51
-3817.87
-4291.9
-4464.59
-4402.59
-3554.4
-4072.49
-4347.68
-3842.39
-4340.39
-4216.1
-3766.12
-4244.56
-4111.64
-3747.17
-4308.64
-4214.6
-4260.89
-4224.07
-4440.88
-4345.17
-4354.92
-4474.45
-3356.11
-4058.49
-4347.68
-3643.14
-3991.51
-4415.37
-4203.75
-4102.17
-3959.49
-4259.77
-4058.21
-3839.69
-4274.22
-4219.37
-4313.14
-4221.46
-4442.14
-3561.14
-4025.21
-4349.03
-3586.91
-3861.26
-4432.16
-4234.18
-4130.39
-4213.98
-4257.76
-4302.6
-4127.71
-3983.78
-3886.72
-4002.88
-3887.53
-4119.7
-3522.85
-4120.43
-4085.38
-4142.56
-4115.34
-4145.15
-4133.79
-3983.91
-3687.42
-3630.23
-3818.67
-3937.83
-3847.58
-3828.5
-3888.54
-3734.69
-3218.46
-3100.67
-4017.37
-4402.64
-4459.1
-4147.16
-3367.33
-3350.07
-4166.52
-3891.58
-4287.45
-4132.47
-3595.6
-3593.8
-3828.55
-3551.67
-3493.1
-3418.95
-3479.55
-2914.55
-2338.37
-3882.83
-3996.54
-3891.1
-4022.97
-3862.12
-4240.49
-3672.52
-4384.35
-4245.77
-3932.78
-3991.95
-3439.71
-2945.37
-2370.38
-2665.55
-3493.28
-3787.92
-3152.55
-3183.58
-3917.39
-3802.87
-3665.76
-3734.29
-3997.3
-3841.36
-4137.69
-3661.94
-3422.59
-4117.68
-4149.09
-4160.59
-3747.95
-3695.49
-3939.85
-3881.33
-3918.69
-3677.46
-3466.24
-4251.18
-3944.74
-4208.34
-4270.74
-4347.81
-4298.93
-4167.26
-3648.19
-4242.34
-4171.53
-4172.02
-4312.7
-4298.44
-4202.65
-3812.77
-3492.72
-3573.5
-3988.61
-3896.41
-3921.09
-3915.63
-3692.95
-3466.07
-3930.59
-3901.29
-3826.82
-3816.35
-3936.26
-3879.55
-3931.29
-3881.76
-4003.88
-3876.2
-4039.25
-3514.21
-3902.75
-4096.73
-3746.64
-3163.82
-3893.01
-3845.46
-4081.13
-4070.85
-3929.82
-3835.86
-3763.78
-3270.63
-3840.58
-3992.49
-4091.47
-3944.94
-3905.7
-3789.68
-3881.71
-3860
-4246.17
-4112.41
-3628.73
-3984.41
-4197.26
-4191.22
-4173.36
-4126.2
-4121.58
-4185.79
-3649.01
-4097.46
-4148.75
-4099.01
-4169.5
-4138.01
-4074.69
-3744.94
-3830.92
-4125.49
-4109.67
-4127.11
-4096.5
-3870.95
-3977.59
-4156.37
-4220.57
-3744.71
-3972.07
-4058.13
-4067.84
-4059.42
-4025.39
-4129.14
-4128.26
-3885.79
-3910.42
-4017.57
-3789.14
-3788.49
-3555.11
-3537.51
-3939.57
-3724.37
-3737.59
-3641.97
-2992.85
-3039.19
-3684.36
-3985.2
-3777.8
-3760.75
-3770.69
-3693
-3591.17
-3293.29
-3764.53
-3698.72
-3442.84
-3537.88
-3505.21
-2410.6
-3138.43
-3477
-2403.55
-3042.3
-2520.03
-2439.93
-3589.62
-3723.23
-2690.18
-3369.01
-2584.96
-2492.52
-2799.55
-3556.11
-3443.63
-4242.53
-3852.31
-3181.8
-3879.08
-4197.51
-3575.91
-3894.77
-3912.98
-4002.73
-3878.54
-4043.4
-3867.79
-4051.41
-4024.3
-3604.85
-3843.75
-3866.3
-3913.21
-3972.86
-4069.33
-4387.1
-3376.3
-4066.46
-4444.71
-3497.92
-4087.06
-4417.02
-4288
-3867.68
-4334.53
-3532.73
-4400.7
-3638.28
-4089.53
-4103.13
-4327.44
-4237.09
-4254.7
-4242.88
-3466.98
-4224.92
-4003.31
-3917.51
-3957.69
-3654.9
-3084.49
-3194.37
-3948.11
-3785.65
-3809.85
-3684.22
-4021.91
-3507.78
-3625.4
-3081.49
-3937.96
-3699.31
-2300.81
-2281.84
-2619.47
-2416.11
-2685.88
-2712.19
-2618.51
-3559.1
-2304.16
-2590.97
-3508.58
-3517.46
-3434.08
-3492.67
-3127.2
-2580.76
-2578.16
-2749.84
-3534.26
-3469.69
-2870.86
-3703.38
-3592.98
-3364.41
-4280.81
-3856.13
-4032.84
-3841.14
-3219.71
-3892.53
-4143.22
-3653.32
-3975.41
-3993.65
-3996.52
-4061.45
-3694.24
-4023.61
-4096.61
-3872.41
-3600.32
-4416.64
-4442.97
-4436.54
-4417.22
-4341.01
-3970.92
-4404.31
-3506.66
-4249.45
-3863.21
-4214.54
-4314.75
-4107.96
-4225.04
-4181.47
-4082.26
-4096.18
-4282.08
-3991.71
-3832.91
-4172.88
-3861.91
-3815.72
-3835.68
-3655.61
-4123.48
-3778.22
-3578.27
-3149.71
-3982.12
-3706.4
-4052.86
-3580.69
-2593.79
-2734.54
-2615.01
-3534.12
-3963.29
-4055.29
-3758.24
-4033.01
-3921.13
-3994.37
-3813.25
-3992.55
-4045.98
-4131.44
-3534.46
-3837.84
-4051.56
-3733.33
-3875.09
-3958.7
-4011.85
-4087.41
-4062
-4020.99
-3968.08
-4014.68
-4373.49
-4153.17
-4182.51
-3294.31
-4005.95
-4155.48
-4152.92
-4153.54
-4113.51
-3502.99
-4134.64
-4176.03
-3620.36
-4142.75
-4225.31
-3920.17
-4117.88
-4161.05
-4128.4
-4134.09
-3833.71
-4137.54
-4168.11
-4124.66
-4089.37
-3461.14
-3789.44
-3663.91
-3046.68
-3686.17
-4002.64
-3436.4
-3988.89
-3694.98
-3604.01
-3941.06
-4043.56
)
;
    }
}


// ************************************************************************* //
