/*--------------------------------*- C++ -*----------------------------------*\
| =========                 |                                                 |
| \\      /  F ield         | OpenFOAM: The Open Source CFD Toolbox           |
|  \\    /   O peration     | Version:  v1906                                 |
|   \\  /    A nd           | Web:      www.OpenFOAM.com                      |
|    \\/     M anipulation  |                                                 |
\*---------------------------------------------------------------------------*/
FoamFile
{
    version     2.0;
    format      ascii;
    class       volScalarField;
    location    "79.4/sphere";
    object      T;
}
// * * * * * * * * * * * * * * * * * * * * * * * * * * * * * * * * * * * * * //

dimensions      [0 0 0 1 0 0 0];


internalField   nonuniform List<scalar> 
304
(
458.746
458.774
458.768
458.785
458.744
458.734
458.745
458.774
458.744
458.884
458.884
458.785
458.767
458.877
458.878
458.81
458.77
458.802
458.731
458.773
458.79
458.745
458.774
458.884
458.883
458.814
458.786
458.878
458.878
458.835
458.732
458.802
458.829
458.765
458.746
458.787
458.814
458.75
458.746
458.81
458.835
458.773
458.731
458.765
458.72
458.734
458.746
458.747
458.748
458.779
458.746
458.747
458.78
458.748
458.734
458.746
458.749
458.746
458.778
458.774
458.773
458.788
458.786
458.815
458.813
458.838
458.746
458.788
458.773
458.815
458.786
458.838
458.814
458.746
458.749
458.779
458.747
458.74
458.74
458.771
458.733
458.784
458.732
458.764
458.808
458.834
458.772
458.804
458.77
458.765
458.735
458.835
458.81
458.805
458.774
458.774
458.742
458.734
458.718
458.732
458.729
458.764
458.73
458.765
458.73
458.729
458.718
458.747
458.745
458.745
458.778
458.774
458.785
458.815
458.773
458.79
458.815
458.84
458.746
458.816
458.786
458.79
458.774
458.84
458.815
458.748
458.746
458.779
458.746
458.786
458.772
458.813
458.773
458.815
458.788
458.838
458.744
458.814
458.774
458.814
458.774
458.838
458.788
458.808
458.733
458.773
458.785
458.835
458.764
458.805
458.77
458.774
458.735
458.835
458.785
458.806
458.765
458.731
458.733
458.765
458.73
458.802
458.728
458.759
458.802
458.829
458.759
458.777
458.77
458.76
458.728
458.829
458.802
458.777
458.76
458.764
458.732
458.729
458.744
458.746
458.779
458.75
458.79
458.815
458.84
458.745
458.773
458.786
458.815
458.773
458.84
458.814
458.774
458.743
458.814
458.784
458.778
458.745
458.746
458.815
458.788
458.838
458.748
458.788
458.775
458.815
458.774
458.838
458.788
458.786
458.746
458.813
458.773
458.835
458.765
458.805
458.772
458.811
458.736
458.775
458.786
458.806
458.765
458.809
458.77
458.775
458.735
458.764
458.73
458.731
458.829
458.759
458.778
458.771
458.802
458.729
458.76
458.803
458.778
458.761
458.803
458.772
458.761
458.732
458.734
458.731
458.732
458.737
458.745
458.749
458.778
458.745
458.778
458.746
458.745
458.733
458.752
458.748
458.78
458.748
458.815
458.814
458.838
458.748
458.774
458.774
458.788
458.785
458.838
458.813
458.773
458.744
458.788
458.773
458.779
458.747
458.745
458.775
458.737
458.742
458.835
458.775
458.805
458.77
458.785
458.734
458.765
458.809
458.806
458.775
458.785
458.769
458.765
458.735
458.741
458.735
458.74
458.72
458.765
458.731
458.734
458.732
458.731
458.733
)
;

boundaryField
{
    sphere_to_oil
    {
        type            compressible::turbulentTemperatureCoupledBaffleMixed;
        refValue        nonuniform List<scalar> 
360
(
332.485
332.485
322.389
355.931
363.244
325.167
364.263
364.263
364.263
343.038
343.038
329.14
333.67
321.221
342.424
351.03
346.974
346.974
346.974
322.572
345.88
324.948
328.796
358.587
317.453
358.82
323.02
358.807
358.807
358.807
364.802
357.56
322.301
321.961
328.904
328.987
347.887
347.887
347.887
347.215
348.925
324.192
325.899
332.944
332.944
322.836
331.137
314.809
332.03
359.148
325.093
325.207
332.985
333.524
322.349
324.72
347.41
322.681
325.977
334.715
318.113
359.947
359.947
359.947
314.857
358.506
331.936
323.616
362.77
362.77
362.77
363.714
362.445
320.353
346.775
341.789
322.312
328.046
348.905
347.953
329.563
321.08
329.243
317.976
322.286
324.74
329.108
333.392
321.813
322.82
322.517
332.452
328.711
322.634
332.096
328.709
329.328
329.445
325.449
317.097
317.214
322.462
325.114
328.704
332.372
322.384
321.115
333.587
325.08
329.401
329.341
329.262
325.388
322.574
315.023
314.983
328.395
323.81
329.459
332.368
332.368
355.931
355.931
358.587
358.587
356.406
356.406
356.406
357.942
357.942
357.942
328.813
324.051
328.337
323.445
363.244
363.244
339.632
339.632
364.802
364.802
339.008
339.008
364.163
364.163
364.163
323.097
322.889
351.553
351.553
351.553
351.377
351.377
351.377
351.03
345.88
342.424
351.03
351.15
322.7
351.15
351.15
328.832
329.657
321.196
325.046
325.046
350.193
350.193
350.193
318.067
345.88
324.948
349.348
349.348
317.943
349.348
329.641
321.113
314.885
323.034
323.363
331.736
317.339
331.196
323.296
314.935
317.298
358.82
358.82
357.56
357.56
333.334
333.334
355.957
355.957
355.957
331.76
331.76
316.952
328.213
325.483
332.56
328.429
324.839
332.396
325.145
333.658
329.474
324.952
347.215
333.463
329.57
322.719
349.621
349.621
349.621
325.465
325.465
317.97
326.105
325.91
334.534
348.925
324.103
334.457
326.238
347.215
348.925
325.262
322.677
325.262
318.327
314.938
331.064
317.381
323.188
323.076
323.329
317.205
316.889
359.882
354.929
359.882
359.882
354.929
354.929
359.148
358.506
332.03
357.19
317.112
359.148
357.19
357.19
331.8
322.066
328.471
332.311
322.654
363.714
328.532
329.131
329.125
325.232
347.41
346.775
329.433
329.21
325.362
346.983
350.981
324.72
349.248
318.119
347.41
349.248
349.248
334.977
324.082
348.905
326.024
326.191
325.877
349.277
324.068
349.018
325.105
346.983
325.105
349.277
346.983
349.277
314.763
323.883
327.919
328.084
332.307
356.048
332.307
356.048
356.048
316.944
358.506
357.125
331.936
357.125
316.965
357.125
328.939
328.653
321.882
361.798
339.71
361.798
361.798
339.71
322.44
324.78
328.279
332.237
362.445
363.714
339.228
323.111
362.445
339.228
322.369
346.775
351.484
341.789
351.484
321.603
351.484
333.672
347.953
325.282
329.676
350.75
347.597
350.981
341.367
350.981
350.75
341.367
350.75
321
329.111
348.905
325.027
318.032
347.953
325.027
322.942
349.018
347.597
349.018
325.11
347.597
325.11
)
;
        refGradient     uniform 0;
        valueFraction   nonuniform List<scalar> 
360
(
0.000139029
0.000133379
8.53907e-05
0.000305047
0.000312854
0.000179396
0.000314798
0.000270213
0.000420594
0.000133917
0.000130567
0.000175159
0.000266948
7.63267e-05
0.000136536
0.000265414
0.000304159
0.000284194
0.000398789
6.98441e-05
0.000261839
0.000128723
0.000118638
0.000314816
9.14039e-05
0.000323594
0.000182406
0.000319415
0.000418015
0.000279626
0.000319468
0.00032222
8.65237e-05
8.5557e-05
0.000179547
0.000176691
0.000298983
0.000405334
0.000278336
0.000418503
0.000413395
8.82722e-05
0.000175088
0.000127783
0.00012763
0.000180234
0.000269647
7.19414e-05
0.000128726
0.000272957
0.000177799
0.000178954
0.000266749
0.000264156
7.46323e-05
0.00013653
0.000278419
7.14957e-05
0.000177118
0.000264119
6.9982e-05
0.000310926
0.000274474
0.000429578
7.21471e-05
0.000280639
0.000130907
0.000126613
0.000318111
0.000414986
0.000279152
0.000400179
0.00040578
7.75009e-05
0.000270564
0.000137258
7.14536e-05
0.000128129
0.000404936
0.000420655
0.00012567
0.000123299
0.000121106
7.19754e-05
8.67925e-05
0.000175961
0.000176947
0.000267966
8.08891e-05
6.82999e-05
8.58965e-05
0.000267528
0.000176611
8.77439e-05
0.000267087
0.000178628
0.000177572
0.000177846
8.67262e-05
6.95152e-05
7.04903e-05
6.95523e-05
0.000178804
0.00017574
0.000267326
7.87052e-05
6.83641e-05
0.000267133
8.48647e-05
0.000176019
0.000176051
0.000179643
8.7844e-05
7.03419e-05
6.86002e-05
6.99255e-05
0.000121715
0.000121861
0.000126596
0.000137275
0.000129019
0.000266583
0.00041995
0.000280864
0.000423813
0.000271667
0.000417664
0.000310977
0.000271886
0.000408573
0.000306262
0.000124921
0.000118137
0.000121002
6.67978e-05
0.000277029
0.000417097
0.000129051
0.00012964
0.000421513
0.000280258
0.000135282
0.00014258
0.000416325
0.000286001
0.000329555
7.35149e-05
6.84139e-05
0.00028876
0.000400151
0.000317179
0.000297315
0.000414005
0.000317146
0.000327444
0.000301617
0.000141088
0.000420538
0.000271641
7.57347e-05
0.000408735
0.000305869
0.000116728
0.000122979
0.000121662
0.000128346
0.000134164
0.00041844
0.00027552
0.000323403
7.75428e-05
0.000402521
0.000138024
0.000423262
0.000270959
7.57425e-05
0.000321276
0.000117764
0.000118857
6.94424e-05
0.000182016
0.000181944
0.000269032
8.97148e-05
0.000269438
0.000177287
6.87294e-05
6.67386e-05
0.000421026
0.000267518
0.000416084
0.000277409
0.000132325
0.000123749
0.000418024
0.000261263
0.000301994
0.00012232
0.00014193
7.14039e-05
0.000178817
0.000178655
0.000266924
0.000174775
0.000175674
0.000265873
9.11304e-05
0.000266785
0.000180893
8.86216e-05
0.000300287
0.00026649
0.000179809
7.16598e-05
0.000408906
0.000265088
0.000310155
0.000129214
0.000120079
6.93613e-05
0.000177431
0.000180415
0.000267497
0.000304134
8.50609e-05
0.000264959
0.000173047
0.000263207
0.000278646
0.000126486
7.10454e-05
0.000140357
7.19243e-05
6.77012e-05
0.000270478
9.02648e-05
0.000181839
0.000179736
0.000177594
8.91301e-05
6.80834e-05
0.00027655
0.000259134
0.000435024
0.000323812
0.000405854
0.000291608
0.00031255
0.000320008
0.000142244
0.000274528
7.39648e-05
0.000417759
0.000406209
0.000308634
0.000269193
8.57753e-05
0.000175159
0.000266098
8.65434e-05
0.000317072
0.000175917
0.000177177
0.000175543
8.60205e-05
0.000314713
0.000294914
0.000179099
0.000174468
8.76768e-05
0.000295494
0.00032526
0.000128996
0.000291984
6.93458e-05
0.000415986
0.0004033
0.000304739
0.000264128
8.67695e-05
0.000305218
0.000175749
0.000176019
0.000177021
0.00030688
8.75825e-05
0.000313541
0.000131931
0.000270329
0.000133032
0.000275475
0.000419802
0.000412127
6.93112e-05
0.000138892
0.000137252
0.000134245
0.000122254
0.000409013
0.000133526
0.000271918
0.000320196
6.83011e-05
0.000413005
0.000412506
0.000135041
0.000293304
7.15768e-05
0.000314443
0.000119722
0.000117614
7.15179e-05
0.000404519
0.000120897
0.00026529
0.000312441
0.000129613
7.06572e-05
0.000175812
0.000175752
0.000265204
0.000303456
0.000263207
0.000127257
6.85004e-05
0.000267616
0.000141339
7.9113e-05
0.000387822
0.000416442
0.000123078
0.000264535
7.33424e-05
0.000332693
0.000267237
0.000320186
8.75911e-05
0.00017657
0.0003087
0.000299279
0.000281554
0.000125848
0.000412435
0.000411548
0.000149391
0.000275094
0.000121038
0.000122895
0.000276952
0.000137098
7.41252e-05
0.000280099
0.000132012
6.84533e-05
0.000407667
0.00041256
0.000271453
0.000131737
0.00026664
0.00013608
)
;
        value           nonuniform List<scalar> 
360
(
458.748
458.749
458.753
458.733
458.735
458.768
458.735
458.739
458.728
458.743
458.744
458.764
458.77
458.752
458.747
458.734
458.717
458.719
458.703
458.743
458.723
458.736
458.721
458.732
458.751
458.732
458.768
458.733
458.725
458.737
458.733
458.73
458.751
458.751
458.763
458.765
458.718
458.705
458.72
458.703
458.704
458.735
458.755
458.747
458.749
458.767
458.774
458.753
458.747
458.736
458.769
458.769
458.771
458.771
458.74
458.732
458.719
458.743
458.755
458.764
458.74
458.733
458.736
458.725
458.754
458.737
458.748
458.734
458.736
458.731
458.74
458.73
458.729
458.754
458.735
458.749
458.75
458.722
458.706
458.703
458.723
458.722
458.723
458.74
458.755
458.768
458.765
458.77
458.748
458.743
458.753
458.773
458.769
458.751
458.773
458.768
458.765
458.761
458.742
458.755
458.755
458.755
458.769
458.769
458.773
458.754
458.749
458.77
458.739
458.76
458.766
458.76
458.742
458.742
458.756
458.755
458.736
458.736
458.736
458.748
458.749
458.738
458.723
458.737
458.724
458.737
458.724
458.733
458.738
458.726
458.734
458.736
458.737
458.737
458.756
458.738
458.728
458.749
458.75
458.728
458.739
458.749
458.749
458.729
458.739
458.732
458.756
458.749
458.728
458.709
458.717
458.727
458.707
458.718
458.718
458.72
458.745
458.708
458.732
458.751
458.709
458.721
458.721
458.721
458.72
458.734
458.731
458.702
458.719
458.712
458.738
458.704
458.73
458.703
458.718
458.737
458.711
458.721
458.72
458.754
458.768
458.767
458.774
458.752
458.774
458.769
458.755
458.755
458.724
458.737
458.724
458.736
458.747
458.748
458.723
458.738
458.732
458.749
458.747
458.755
458.768
458.768
458.773
458.77
458.769
458.773
458.739
458.77
458.759
458.742
458.72
458.771
458.761
458.742
458.705
458.72
458.713
458.734
458.733
458.739
458.755
458.754
458.763
458.713
458.735
458.763
458.755
458.722
458.718
458.734
458.741
458.729
458.738
458.753
458.774
458.751
458.767
458.767
458.768
458.749
458.755
458.736
458.738
458.726
458.732
458.726
458.736
458.731
458.73
458.746
458.736
458.754
458.723
458.723
458.734
458.773
458.755
458.771
458.773
458.753
458.735
458.769
458.761
458.767
458.743
458.72
458.722
458.761
458.766
458.742
458.721
458.719
458.731
458.717
458.739
458.704
458.706
458.714
458.764
458.736
458.714
458.756
458.756
458.756
458.717
458.739
458.716
458.735
458.722
458.732
458.719
458.704
458.706
458.753
458.737
458.737
458.738
458.748
458.725
458.747
458.736
458.734
458.754
458.724
458.723
458.746
458.734
458.753
458.731
458.736
458.736
458.757
458.731
458.752
458.741
458.737
458.751
458.757
458.769
458.77
458.774
458.734
458.74
458.75
458.756
458.738
458.747
458.753
458.712
458.711
458.747
458.733
458.751
458.717
458.771
458.717
458.741
458.761
458.72
458.72
458.73
458.745
458.709
458.709
458.742
458.729
458.723
458.723
458.719
458.731
458.739
458.721
458.735
458.743
458.706
458.705
458.72
458.732
458.722
458.734
)
;
        Tnbr            T;
        thicknessLayers 0();
        kappaLayers     0();
        kappaMethod     solidThermo;
        kappa           none;
        alphaAni        none;
    }
}


// ************************************************************************* //
