/*--------------------------------*- C++ -*----------------------------------*\
| =========                 |                                                 |
| \\      /  F ield         | OpenFOAM: The Open Source CFD Toolbox           |
|  \\    /   O peration     | Version:  v1912                                 |
|   \\  /    A nd           | Website:  www.openfoam.com                      |
|    \\/     M anipulation  |                                                 |
\*---------------------------------------------------------------------------*/
FoamFile
{
    version     2.0;
    format      ascii;
    class       volScalarField;
    location    "416/sphere";
    object      ddt0((betavSolid*thermo:rho),h);
}
// * * * * * * * * * * * * * * * * * * * * * * * * * * * * * * * * * * * * * //

dimensions      [1 -1 -3 0 0 0 0];


internalField   nonuniform List<scalar> 
6600
(
-54402.5
-54412.6
-54411.6
-54434.5
-54405.8
-54405.5
-54412.2
-54479.4
-54493.6
-54452.5
-54411.3
-54493.2
-54507.3
-54468
-54446.7
-54467.5
-54434.8
-54411.3
-54433.6
-54405.9
-54411.3
-54492.8
-54507.2
-54468.1
-54431.5
-54506.9
-54520.8
-54482.3
-54412.3
-54403.9
-54467
-54481.1
-54456.4
-54410.6
-54405.2
-54450.9
-54468.1
-54432.1
-54404.4
-54466.9
-54481.6
-54456.3
-54430.4
-54455.8
-54418.5
-54411
-54411.1
-54410.9
-54410
-54411.1
-54403
-54434.5
-54413.5
-54467.9
-54453
-54481.8
-54468.8
-54452.8
-54481.6
-54468
-54412.6
-54403.1
-54434.4
-54413.2
-54468.2
-54467.7
-54452.7
-54434.4
-54413
-54412.9
-54403.2
-54409.9
-54409.8
-54409.5
-54408.9
-54406.2
-54408.9
-54409.7
-54406.5
-54408.8
-54409.6
-54406.3
-54410.1
-54415.7
-54405.3
-54405.1
-54430.9
-54455.7
-54405.2
-54405.4
-54455.9
-54432.2
-54418.7
-54404.7
-54430.7
-54404.5
-54455.5
-54411.9
-54411.6
-54433.1
-54451.9
-54467.7
-54467.3
-54481
-54409.9
-54421.2
-54418.2
-54441.9
-54434.9
-54429.6
-54445
-54405.8
-54432
-54456.5
-54405.9
-54404.8
-54404.6
-54455.5
-54430.9
-54433.1
-54402.2
-54412.5
-54467.4
-54480.8
-54452
-54467.4
-54413.5
-54413.2
-54403.1
-54481.6
-54468.6
-54467.9
-54453.2
-54456.4
-54405.8
-54432.3
-54415.7
-54405.1
-54430.6
-54455.8
-54405.2
-54456
-54432.1
-54405.4
-54418.6
-54409.9
-54410.6
-54430.4
-54404.7
-54404.3
-54455.1
-54411.8
-54446.8
-54467.1
-54411.5
-54432.6
-54467.2
-54480.5
-54403.1
-54467.7
-54452.9
-54433.5
-54412.9
-54481
-54468.1
-54434.8
-54405.6
-54456.3
-54405.6
-54408.9
-54446.6
-54411.5
-54466.6
-54411.2
-54466.8
-54431.6
-54479.7
-54403.2
-54468.4
-54413.6
-54467.9
-54413.3
-54482.1
-54436
-54412.3
-54409
-54466.7
-54446.7
-54431.6
-54480.3
-54411.3
-54467.3
-54413.2
-54453
-54403.6
-54482
-54436
-54468.5
-54413.4
-54412.3
-54430.6
-54403.9
-54455.4
-54404.5
-54467.3
-54411.9
-54466.9
-54480.5
-54411.3
-54432.6
-54452.7
-54412.3
-54403.1
-54481.1
-54468.2
-54433.5
-54413.3
-54456.4
-54405.9
-54405.6
-54410
-54410.6
-54410
-54410.6
-54404.5
-54403.9
-54455.2
-54430.3
-54432.7
-54466.8
-54480.4
-54412
-54446.6
-54467.4
-54412.9
-54481
-54468
-54412.2
-54403
-54467.8
-54452.8
-54456.4
-54405.7
-54434.7
-54409
-54466.7
-54431.6
-54479.8
-54446.4
-54411.2
-54467.1
-54413.5
-54482.1
-54436
-54452.6
-54403.3
-54468.2
-54413.4
-54412.3
-54408.8
-54480.2
-54411.3
-54466.7
-54411.1
-54467.4
-54446.7
-54436
-54468.7
-54413.6
-54468.3
-54413.5
-54453
-54403.5
-54455.3
-54404.7
-54430.4
-54480.3
-54411.3
-54432.6
-54446.4
-54467.1
-54411.9
-54468.4
-54433.4
-54413.1
-54467.5
-54452.8
-54412.4
-54403
-54405.9
-54405.5
-54434.9
-54410
-54415.3
-54404.9
-54430.4
-54455.7
-54404.7
-54455.9
-54432.2
-54405.4
-54418.6
-54430.7
-54404.3
-54455.2
-54404.8
-54467.3
-54466.5
-54480.6
-54402.3
-54412.3
-54411.6
-54433
-54456.3
-54405.5
-54405.9
-54455.2
-54430.4
-54404.7
-54480.7
-54451.3
-54467.2
-54411.8
-54432.9
-54402.3
-54412.3
-54405.9
-54431.9
-54405.6
-54415.4
-54455.6
-54405
-54405.1
-54432
-54405.4
-54405.4
-54404
-54401.8
-54401.4
-54403.5
-54402.1
-54405.1
-54402.4
-54404.6
-54402.4
-54404.7
-54402.3
-54404.2
-54402
-54400.9
-54401.3
-54406.7
-54406.3
-54402.7
-54409.5
-54408.8
-54405.9
-54404.8
-54402.1
-54404
-54402
-54406.5
-54406.4
-54413.2
-54435.2
-54413.9
-54423
-54423
-54410
-54422.4
-54418.5
-54442.2
-54435.8
-54429.6
-54446
-54409.7
-54421.2
-54418
-54441.7
-54434.9
-54429.4
-54445
-54406.4
-54406.5
-54413.2
-54435.1
-54413.5
-54422.9
-54422.8
-54410.2
-54422
-54418.5
-54442
-54435.5
-54429.7
-54445.7
-54421.8
-54410.1
-54418.3
-54442
-54435.3
-54445.5
-54429.7
-54421.5
-54409.9
-54418.2
-54441.7
-54434.9
-54445
-54429.5
-54406.5
-54406.4
-54413.1
-54435.1
-54413.9
-54423.2
-54423.1
-54402.2
-54401
-54406.6
-54406.1
-54402.3
-54406.6
-54405.9
-54402.2
-54402
-54405.7
-54405.5
-54411.9
-54433.7
-54412.8
-54422.3
-54422.1
-54405.4
-54411
-54403.5
-54418.6
-54440
-54408.8
-54433.8
-54415.5
-54443.5
-54428.3
-54403.6
-54421.6
-54406.4
-54408.1
-54417.5
-54402.9
-54404.8
-54410.4
-54403.2
-54406.4
-54420.9
-54417.2
-54407.6
-54429.6
-54404.3
-54411
-54404
-54419.9
-54409.5
-54420.3
-54441.1
-54409.6
-54434.3
-54419.3
-54429.4
-54416.5
-54444.1
-54403.6
-54405.5
-54411.1
-54429.5
-54410.5
-54403.5
-54403.9
-54419.3
-54419.8
-54409.3
-54438.8
-54433.3
-54407.9
-54418.4
-54427.4
-54443
-54414.5
-54405
-54402.6
-54402.5
-54403.8
-54409.5
-54413.3
-54418.6
-54418
-54445.8
-54406.9
-54428.9
-54428.1
-54402.2
-54438.8
-54418.6
-54433.3
-54408
-54443
-54414.8
-54427.3
-54447.8
-54430.4
-54454.6
-54427.2
-54451.5
-54423.6
-54450.9
-54406.7
-54421.5
-54402.9
-54408.1
-54417.7
-54438.8
-54433.3
-54418.3
-54408.1
-54443
-54427.3
-54414.6
-54405.4
-54402.9
-54445.6
-54452.9
-54425.6
-54425.4
-54449.4
-54449.2
-54420.2
-54410.3
-54410.2
-54407
-54405.7
-54420
-54402
-54407
-54416.2
-54401.1
-54409
-54407
-54404.4
-54402.6
-54404
-54409.7
-54406.3
-54403.3
-54420.5
-54416.9
-54407.3
-54402.5
-54404.1
-54409.9
-54445.4
-54416.7
-54428.5
-54413
-54416.6
-54427.9
-54405.5
-54405.5
-54419.8
-54402.6
-54416.6
-54406.8
-54412.2
-54444.5
-54415.3
-54415.2
-54427.2
-54427.1
-54404.8
-54406.2
-54407.7
-54407.6
-54403.5
-54401.1
-54406.2
-54406.5
-54402.2
-54401.5
-54405.5
-54405.3
-54405.2
-54403.1
-54404.6
-54410.6
-54403.1
-54420.5
-54406
-54407.4
-54416.9
-54402.7
-54404.3
-54409.7
-54405.9
-54402.4
-54420.5
-54407.5
-54416.3
-54412.2
-54415.9
-54415
-54444.7
-54404.9
-54427.8
-54426.6
-54402.9
-54420.8
-54417.2
-54406.2
-54407.5
-54405.4
-54411
-54403.6
-54406.3
-54403.3
-54420.8
-54407.5
-54417.2
-54403.4
-54405.4
-54411
-54416.7
-54445.4
-54428.3
-54413
-54416.7
-54405.6
-54428
-54406.4
-54407.6
-54407.4
-54403.3
-54402.9
-54404.6
-54410.5
-54402.6
-54405.9
-54420.7
-54417
-54407.3
-54402.7
-54404
-54409.3
-54412.2
-54415.7
-54414.9
-54444.6
-54404.8
-54427.6
-54426.4
-54405.9
-54402
-54420.3
-54407.3
-54416.2
-54419.2
-54409
-54434.2
-54415.8
-54444.1
-54440.4
-54428.7
-54408.8
-54418.6
-54415.5
-54440.2
-54433.9
-54428.5
-54443.6
-54403.2
-54421.6
-54417.4
-54406.4
-54408.1
-54416.7
-54445.3
-54428.1
-54412.9
-54416.3
-54405.6
-54428
-54403.7
-54405.6
-54411.1
-54406.6
-54403.7
-54421.4
-54407.8
-54417.6
-54405.8
-54402.4
-54420.6
-54407.3
-54416.8
-54402.7
-54404.9
-54410.3
-54405.7
-54420.1
-54402
-54407.1
-54415.9
-54402.4
-54403.8
-54409.3
-54412
-54416
-54444.6
-54414.9
-54427.5
-54404.8
-54426.4
-54426.4
-54426.9
-54454.5
-54446.8
-54421.3
-54450.4
-54450.7
-54433.6
-54405.6
-54405.7
-54412.8
-54412
-54421.8
-54422.2
-54419.7
-54440.3
-54409.3
-54434.5
-54415.9
-54444.3
-54428.7
-54422.3
-54410.3
-54435.9
-54418.4
-54446
-54442.2
-54430.2
-54421.7
-54410.2
-54418.5
-54442
-54435.2
-54445.3
-54429.8
-54406.5
-54406.3
-54413.2
-54435.3
-54413.7
-54423.4
-54423.1
-54403.7
-54405.5
-54411.3
-54406.5
-54421.3
-54403.4
-54407.9
-54417.4
-54413.2
-54416.8
-54445.6
-54416.9
-54428.6
-54405.6
-54428.1
-54403.6
-54405.5
-54411.1
-54406
-54405.6
-54405.3
-54406.1
-54402.6
-54420.7
-54416.9
-54407.5
-54412.1
-54416
-54444.5
-54415
-54427.4
-54404.4
-54426.4
-54402.9
-54404.1
-54409.7
-54406.1
-54420.6
-54402.9
-54407.5
-54416.6
-54403.6
-54405.4
-54411
-54412.9
-54416.7
-54445.3
-54416.6
-54428.4
-54405.4
-54427.7
-54406.6
-54420.9
-54403.2
-54407.7
-54417.4
-54403.5
-54405.3
-54410.8
-54406.4
-54407.7
-54407.6
-54403.5
-54401.6
-54401.3
-54406.3
-54405.8
-54402.1
-54402.4
-54407.1
-54409.1
-54404.8
-54404.4
-54402
-54402.6
-54404.2
-54410
-54402.6
-54404
-54409.5
-54411.9
-54415.2
-54414.9
-54444.2
-54404.7
-54427.1
-54426.3
-54405.7
-54402.6
-54420
-54416.4
-54406.9
-54405.7
-54402.1
-54419.8
-54416.1
-54406.9
-54439
-54408.6
-54433.8
-54418.8
-54427.7
-54414.9
-54443.4
-54439.2
-54408.7
-54418.4
-54433.6
-54414.8
-54428.5
-54443.1
-54446
-54426.2
-54425.8
-54453.9
-54420.6
-54450.1
-54449.8
-54434.6
-54406.2
-54413.9
-54406.3
-54422.9
-54412.5
-54422.8
-54447.8
-54427.2
-54430.4
-54454.6
-54423.5
-54450.9
-54451.5
-54441.4
-54409.7
-54421.3
-54435.3
-54417.4
-54429.6
-54445.2
-54413.4
-54418.3
-54418.2
-54445.9
-54406.8
-54428.6
-54428.6
-54403.7
-54405.7
-54411.3
-54406.4
-54403.2
-54421.1
-54417.4
-54407.6
-54406.5
-54403.3
-54421.2
-54417.4
-54407.8
-54400.4
-54400.9
-54405.5
-54405.5
-54401.7
-54438.6
-54408.1
-54433.4
-54418.2
-54427.4
-54414.6
-54442.8
-54438.8
-54408
-54433.2
-54418.2
-54427.6
-54414.5
-54442.9
-54445.6
-54425.3
-54425.6
-54452.9
-54420.3
-54449.3
-54449.4
-54435.4
-54413.9
-54406.7
-54406.6
-54423.3
-54423.3
-54413.3
-54442.5
-54410.5
-54435.8
-54422.7
-54430.1
-54418.9
-54446.3
-54442.2
-54410.1
-54435.6
-54422.4
-54429.8
-54418.3
-54446
-54449.3
-54432
-54432.1
-54456.9
-54426.1
-54453.1
-54453
-54405.2
-54402.4
-54405.3
-54402.2
-54410.1
-54410.2
-54406.7
-54401
-54405.7
-54405.5
-54402.2
-54400.5
-54429.9
-54403.7
-54410.6
-54403.7
-54419.5
-54409.1
-54419.9
-54445.8
-54425.8
-54452.9
-54425.5
-54449.5
-54420.6
-54449.4
-54439
-54408.2
-54418.4
-54433.4
-54414.5
-54427.9
-54443
-54442.3
-54435.6
-54410.1
-54422.3
-54429.9
-54446
-54418.6
-54435.6
-54406.9
-54414.2
-54406.7
-54423.2
-54413.5
-54423.4
-54449.2
-54432.1
-54456.9
-54432.2
-54453
-54426.3
-54453
-54442.3
-54410.1
-54422.4
-54435.7
-54418.5
-54429.8
-54446.1
-54410.2
-54410.3
-54406.9
-54405.1
-54402.5
-54411.9
-54414.8
-54415.6
-54444.4
-54404.7
-54426.3
-54427
-54402.7
-54404.2
-54409.7
-54405.9
-54402
-54420.1
-54416.5
-54407.2
-54405.7
-54402.4
-54420.1
-54416.3
-54407
-54429.6
-54410.6
-54404
-54403.8
-54419.9
-54419.8
-54409.4
-54439.2
-54433.9
-54408.5
-54419.2
-54428
-54443.7
-54415.1
-54438.8
-54408.3
-54433.4
-54418.2
-54427.8
-54414.7
-54442.9
-54446.2
-54426.7
-54453.9
-54426
-54450.4
-54421.2
-54449.7
-54440.8
-54434.3
-54409.4
-54419.6
-54428.9
-54444.2
-54416.4
-54434.4
-54413.8
-54405.9
-54406.3
-54422.4
-54422.9
-54412.4
-54447.9
-54427.3
-54454.6
-54430.4
-54451
-54423.5
-54451.5
-54441.4
-54409.8
-54435.5
-54421.8
-54429.5
-54417.6
-54445.4
-54403.7
-54405.7
-54411.3
-54403.5
-54405.5
-54410.9
-54406.4
-54403.5
-54421.1
-54417.3
-54407.7
-54406.6
-54402.9
-54421.3
-54417.4
-54407.8
-54402.2
-54401.4
-54406.6
-54406.1
-54403
-54407.1
-54409.1
-54404.9
-54404.4
-54402
-54401.3
-54406.1
-54406.6
-54403
-54401.7
-54409.1
-54407.1
-54404.7
-54404.2
-54401.8
-54401.8
-54405.6
-54419.9
-54402.2
-54406.8
-54416.1
-54405.5
-54419.9
-54401.4
-54406.9
-54416
-54402.5
-54404
-54409.4
-54402.6
-54404.2
-54409.6
-54411.9
-54444.2
-54414.7
-54415.2
-54426.3
-54426.8
-54404.6
-54446.3
-54426.2
-54454
-54426.6
-54449.9
-54421.1
-54450.3
-54429.6
-54403.6
-54404.1
-54410.6
-54409.3
-54419.5
-54419.9
-54439.3
-54419.1
-54408.6
-54434
-54415.1
-54443.7
-54428.1
-54441.2
-54421.3
-54435.3
-54409.6
-54445.2
-54417.3
-54429.3
-54440.9
-54419.5
-54409.5
-54434.2
-54416.2
-54444.2
-54429
-54434.4
-54406.2
-54405.9
-54413.5
-54412.2
-54422.8
-54422.5
-54406.7
-54421.2
-54403.8
-54407.9
-54417.5
-54403.5
-54405.4
-54411.1
-54413.2
-54445.7
-54418.3
-54417.9
-54428.6
-54428
-54406.7
-54403.4
-54405.5
-54411.1
-54401.1
-54405.6
-54405.5
-54402.2
-54400.7
-54445.8
-54425.7
-54452.9
-54425.4
-54449.5
-54420.6
-54449.3
-54429.4
-54403.4
-54410.6
-54403.8
-54419.6
-54409.1
-54419.9
-54438.9
-54417.9
-54408.2
-54433.3
-54414.6
-54442.7
-54427.9
-54442.4
-54435.7
-54422.6
-54410.3
-54446.1
-54430
-54418.8
-54449.3
-54432.2
-54456.9
-54432.1
-54453
-54426.5
-54453
-54435.4
-54406.7
-54413.7
-54406.5
-54423.5
-54413.5
-54423.1
-54442.3
-54422.4
-54410.1
-54435.6
-54418.6
-54446.1
-54429.8
-54410.3
-54410.2
-54407
-54405
-54402.6
-54405.5
-54405.3
-54401.8
-54400.5
-54400.6
-54438.7
-54418.1
-54433.4
-54408.1
-54442.9
-54414.5
-54427.5
-54438.9
-54417.9
-54433.3
-54408.4
-54442.7
-54414.5
-54428.4
-54429.3
-54403.2
-54404
-54410.6
-54409
-54419.5
-54420.2
-54449.3
-54457
-54432.2
-54432.2
-54453.1
-54453.1
-54426.4
-54442.4
-54422.6
-54435.8
-54410.3
-54446.2
-54418.7
-54429.8
-54442.4
-54422.5
-54435.8
-54410.3
-54446.2
-54418.8
-54429.9
-54435.5
-54406.6
-54406.8
-54414.1
-54413.4
-54423.3
-54423.3
-54405.3
-54402.7
-54405.2
-54402.5
-54405.5
-54420.1
-54402.7
-54407
-54416.6
-54402.3
-54403.8
-54409.3
-54411.9
-54444.3
-54414.9
-54415.4
-54426.4
-54427
-54404.5
-54402.8
-54404.1
-54409.8
-54439.2
-54433.4
-54418
-54408.5
-54442.9
-54428.2
-54414.9
-54446.2
-54453.9
-54426.1
-54426.5
-54449.8
-54450.2
-54420.8
-54429.9
-54404.2
-54410.6
-54403.9
-54420.2
-54409.7
-54419.6
-54439.1
-54418.9
-54433.8
-54408.3
-54443.5
-54414.9
-54427.6
-54447.7
-54454.5
-54430.3
-54427.1
-54451.4
-54450.7
-54423.2
-54441.4
-54435.4
-54421.6
-54409.7
-54445.3
-54429.6
-54417.5
-54440.9
-54419.4
-54434.3
-54409.8
-54444.1
-54416.4
-54429
-54434.5
-54406.3
-54413.6
-54406.1
-54423
-54412.6
-54422.5
-54406.6
-54421.2
-54403.4
-54407.8
-54417.3
-54406.6
-54421.2
-54403.2
-54407.7
-54417.4
-54413.5
-54446
-54418.6
-54418
-54429.1
-54428.1
-54406.9
-54403.9
-54405.7
-54411.3
-54403.4
-54405.4
-54411
-54406.1
-54406.6
-54402.4
-54401.7
-54404.3
-54401.7
-54402
-54405
-54405.2
-54405.6
-54406.1
-54402.8
-54420.6
-54416.7
-54407.5
-54411.9
-54415.2
-54444.3
-54415.2
-54426.9
-54404.6
-54426.9
-54402.9
-54404.6
-54410.2
-54420.7
-54401.9
-54406.1
-54407.5
-54416.8
-54403.5
-54405.4
-54410.9
-54445.3
-54416.4
-54427.6
-54412.9
-54416.8
-54428.4
-54405.5
-54403.3
-54420.9
-54417.3
-54406.2
-54407.5
-54404.9
-54410.8
-54403.3
-54406.2
-54407.5
-54407.6
-54403.5
-54411.9
-54415.4
-54444.4
-54415.4
-54427.1
-54404.6
-54426.7
-54405.5
-54402.4
-54420
-54416.4
-54406.9
-54402.5
-54404.4
-54410
-54402.6
-54405.6
-54420.2
-54416.5
-54407
-54405.5
-54405.2
-54411.5
-54433.3
-54412.7
-54421.8
-54421.7
-54419.5
-54434.4
-54409.2
-54444.3
-54415.8
-54440.3
-54428.6
-54408.7
-54418.8
-54415.4
-54439.9
-54433.6
-54428.2
-54443.4
-54403.2
-54405.2
-54411.1
-54406.3
-54403.4
-54421.2
-54417.5
-54407.9
-54405.3
-54411
-54403.5
-54403.3
-54421.2
-54417.4
-54406.6
-54408
-54402.5
-54404
-54410
-54411.7
-54444.2
-54415.3
-54415.2
-54426.9
-54426.7
-54404.6
-54402.6
-54405.6
-54420.1
-54406.9
-54416.4
-54402.7
-54404.4
-54410.1
-54418.7
-54409
-54415.6
-54439.9
-54433.7
-54443.5
-54428.2
-54405.4
-54405.6
-54411.6
-54433.3
-54412.9
-54421.8
-54422
-54419.4
-54434.3
-54408.9
-54444.1
-54415.5
-54440
-54428.4
-54406.7
-54421.5
-54403.5
-54417.8
-54408
-54445.2
-54416.3
-54428.1
-54413.1
-54416.5
-54428
-54405.7
-54403.8
-54405.8
-54411.2
-54403.7
-54421
-54417.3
-54406.3
-54407.7
-54405.2
-54411.1
-54403.5
-54405.2
-54404.9
-54405.5
-54403.1
-54404.2
-54409.7
-54405.9
-54420.3
-54402.1
-54416.2
-54407.4
-54403.1
-54404.9
-54410.4
-54420.4
-54402.5
-54405.9
-54416.6
-54407.3
-54445.2
-54416.5
-54428.3
-54412.9
-54416.6
-54427.8
-54405.6
-54406.4
-54420.6
-54403.1
-54417
-54407.6
-54403.5
-54405.3
-54410.8
-54403.1
-54420.7
-54417
-54406.3
-54407.5
-54405.3
-54411
-54403.5
-54431.4
-54430.4
-54455.5
-54425.4
-54452.4
-54448.7
-54451.7
-54493.6
-54493
-54507
-54492.9
-54506.6
-54506.3
-54520
-54479.6
-54507.7
-54494.2
-54507
-54493.5
-54520.7
-54507.6
-54506.7
-54479.3
-54493.1
-54506.9
-54520.1
-54493.4
-54506.7
-54493.9
-54493.5
-54480
-54520.7
-54507.5
-54507.3
-54494.2
-54451.9
-54457.8
-54428.6
-54458.1
-54441.4
-54467.7
-54441.6
-54506.5
-54506.2
-54519.9
-54479.1
-54493.4
-54492.9
-54506.5
-54493.8
-54520.7
-54507.6
-54494
-54480
-54507.5
-54493.9
-54520.1
-54493.1
-54506.5
-54493.6
-54506.9
-54479.4
-54493.1
-54507.8
-54507.4
-54494.4
-54507.6
-54494.1
-54493.6
-54480
-54419.6
-54440.9
-54440.9
-54453
-54422
-54437.3
-54437.1
-54452.5
-54440.7
-54436.9
-54419.4
-54441
-54437
-54422.1
-54452.2
-54440.4
-54436.7
-54419.2
-54440.4
-54436.5
-54421.8
-54430.6
-54431.6
-54425.9
-54448.8
-54455.5
-54451.7
-54452.5
-54430.5
-54431.4
-54425.6
-54448.6
-54455.4
-54451.6
-54452.2
-54431.3
-54430.5
-54425.7
-54448.5
-54455.3
-54452.2
-54451.6
-54440.3
-54418.8
-54440.3
-54451.9
-54421.6
-54436.5
-54435.8
-54440.4
-54452.4
-54436.8
-54419.2
-54440.5
-54421.7
-54436.7
-54418.7
-54440.3
-54451.7
-54440
-54436.4
-54421.4
-54435.7
-54427.1
-54426.6
-54454.5
-54421.6
-54450.8
-54447.1
-54450.5
-54441
-54452.7
-54437
-54419.4
-54441
-54422.3
-54437
-54418.5
-54440.2
-54439.9
-54451.7
-54421.3
-54436.3
-54435.6
-54441.1
-54419.6
-54441
-54452.7
-54422.2
-54437.2
-54437
-54418.8
-54440.3
-54451.8
-54440.4
-54436.3
-54421.7
-54436
-54419.4
-54440.5
-54452.4
-54440.6
-54436.9
-54421.9
-54436.7
-54418.3
-54451.4
-54439.8
-54439.7
-54436
-54435.5
-54421.1
-54452
-54429
-54457.9
-54458.2
-54441.5
-54441.9
-54467.9
-54419.5
-54452.7
-54440.9
-54440.8
-54437.2
-54437.1
-54422
-54451.8
-54428.7
-54457.8
-54457.8
-54441.3
-54441.4
-54467.7
-54451.9
-54457.8
-54428.7
-54457.8
-54441.4
-54467.7
-54441.5
-54418.6
-54451.6
-54440
-54440
-54435.9
-54436
-54421.4
-54419.4
-54452.8
-54440.9
-54440.9
-54437.2
-54437
-54422
-54418.3
-54439.8
-54439.7
-54451.4
-54421
-54435.5
-54435.7
-54451.8
-54457.5
-54428.6
-54458.1
-54441.1
-54467.6
-54441.7
-54419.6
-54441.1
-54440.8
-54452.8
-54422.2
-54437.4
-54436.9
-54451.7
-54457.8
-54428.4
-54457.9
-54441.3
-54467.5
-54441.5
-54451.8
-54457.8
-54458.2
-54428.9
-54467.8
-54441.3
-54441.9
-54418.4
-54439.9
-54440
-54451.4
-54421.2
-54435.7
-54435.9
-54451.9
-54457.9
-54458
-54428.5
-54467.7
-54441.6
-54441.5
-54440.3
-54418.8
-54440.3
-54451.8
-54436.2
-54421.7
-54436.1
-54452.3
-54440.5
-54436.6
-54419.2
-54440.3
-54436.7
-54421.7
-54418.4
-54451.5
-54439.8
-54439.8
-54436
-54435.8
-54421
-54427.1
-54454.4
-54426.4
-54450.9
-54421.4
-54446.8
-54450.1
-54452.6
-54440.8
-54437.1
-54419.7
-54440.9
-54436.9
-54422.3
-54418.3
-54439.7
-54451.4
-54439.7
-54435.9
-54421
-54435.7
-54426.9
-54454.3
-54426
-54450.7
-54421
-54446.5
-54450
-54440.2
-54418.7
-54451.7
-54440.2
-54436
-54436.1
-54421.6
-54377
-54339.1
-54307.1
-54378
-54339.7
-54307.6
-54378
-54339.8
-54307.6
-54379.2
-54341.1
-54308.4
-54378.6
-54340.6
-54308
-54378.2
-54340.4
-54308.2
-54379.1
-54341.1
-54308.7
-54378.3
-54340.4
-54308
-54378.6
-54340.5
-54308.1
-54379.4
-54341.4
-54308.8
-54378.9
-54340.8
-54308.1
-54378.1
-54340.1
-54307.6
-54378.5
-54340.5
-54308.2
-54379.5
-54341.4
-54308.8
-54378.9
-54340.8
-54308
-54379.2
-54341.2
-54308.8
-54376.1
-54338.2
-54306.1
-54376.5
-54338.6
-54306.5
-54378.5
-54340.5
-54308
-54378.4
-54340.4
-54308.1
-54378.4
-54340.3
-54308
-54377.4
-54339.4
-54307
-54377.8
-54339.7
-54307.3
-54378.2
-54340.1
-54307.6
-54378.3
-54340.2
-54307.8
-54378.2
-54340.1
-54307.6
-54377.9
-54339.9
-54307.4
-54378.4
-54340.2
-54307.7
-54378.1
-54339.9
-54307.7
-54378.6
-54340.4
-54308.1
-54378.2
-54340.1
-54307.9
-54378.4
-54340.2
-54308
-54378.4
-54340.2
-54308
-54377.8
-54339.7
-54307.2
-54377.8
-54339.7
-54307.2
-54378.3
-54340.3
-54307.7
-54377.7
-54339.7
-54307.2
-54378.1
-54340
-54307.4
-54378.4
-54340.3
-54307.8
-54377.8
-54339.7
-54307.2
-54378.3
-54340.3
-54307.7
-54378
-54339.9
-54307.3
-54378.7
-54340.5
-54308.1
-54378.4
-54340.3
-54308
-54378.2
-54340.1
-54307.8
-54378.9
-54340.8
-54308.4
-54377.6
-54339.6
-54307.3
-54377.8
-54339.7
-54307.4
-54379.5
-54341.6
-54308.9
-54379.2
-54341.1
-54308.7
-54378.8
-54340.9
-54308.6
-54379.1
-54341.1
-54308.7
-54377.9
-54339.8
-54307.4
-54378.2
-54340
-54307.6
-54378.4
-54340.2
-54307.9
-54377.9
-54339.8
-54307.7
-54378.7
-54340.8
-54308.4
-54379.1
-54341
-54308.6
-54378.1
-54340
-54307.7
-54378.1
-54340.2
-54307.9
-54378.7
-54340.6
-54308.2
-54378.3
-54340.4
-54308.1
-54378.8
-54340.7
-54308.3
-54378.2
-54340.1
-54307.6
-54378.5
-54340.4
-54308
-54378.2
-54340
-54307.6
-54377.5
-54339.4
-54307
-54378.6
-54340.6
-54308.3
-54378.4
-54340.5
-54308.2
-54378.5
-54340.5
-54308.3
-54377.2
-54339.1
-54306.6
-54380.2
-54342.1
-54309.4
-54379.9
-54341.8
-54309.2
-54379.2
-54341.2
-54308.8
-54377.2
-54339
-54306.5
-54378.5
-54340.4
-54308.3
-54379
-54340.8
-54308.6
-54379.8
-54341.7
-54309.2
-54379.2
-54341.2
-54308.8
-54376.6
-54338.6
-54306.5
-54377.3
-54339.4
-54307.1
-54377.8
-54339.7
-54307.4
-54379.2
-54341.1
-54308.5
-54378.5
-54340.5
-54307.8
-54378.6
-54340.4
-54308.1
-54377.7
-54339.7
-54307.6
-54380.1
-54341.9
-54309.2
-54379
-54341
-54308.7
-54378.9
-54340.8
-54308.5
-54378.1
-54340.2
-54307.9
-54378.6
-54340.6
-54308.3
-54378.2
-54340.2
-54307.7
-54378.5
-54340.5
-54308
-54378.2
-54340.2
-54307.6
-54378.5
-54340.4
-54308
-54377.9
-54339.7
-54307.4
-54376.8
-54338.8
-54306.6
-54378.6
-54340.4
-54308.1
-54378.4
-54340.2
-54308
-54378.6
-54340.7
-54308.4
-54378.7
-54340.7
-54308.5
-54377.2
-54339.1
-54306.6
-54377.9
-54339.9
-54307.9
-54378.8
-54340.6
-54308.3
-54379.8
-54341.6
-54309.1
-54379.2
-54341.2
-54308.8
-54377
-54338.9
-54306.3
-54380.2
-54342.1
-54309.5
-54380.1
-54342
-54309.4
-54378.2
-54340.2
-54308.2
-54378.9
-54340.7
-54308.5
-54379.3
-54341.1
-54308.7
-54377.6
-54339.7
-54307.3
-54378.1
-54339.9
-54307.6
-54379.2
-54341.2
-54308.5
-54379.7
-54341.6
-54308.9
-54379.8
-54341.8
-54309.1
-54378.4
-54340.3
-54308.1
-54377.7
-54339.7
-54307.7
-54378.4
-54340.2
-54308
-54379.1
-54341
-54308.7
-54378.7
-54340.6
-54308.3
-54378.3
-54340.3
-54307.7
-54378.1
-54340.1
-54307.8
-54376.8
-54339
-54306.9
-54377.7
-54339.7
-54307.4
-54378
-54340.1
-54307.8
-54378.9
-54340.8
-54308.3
-54377.5
-54339.4
-54307.1
-54377.5
-54339.6
-54307.3
-54378.2
-54340.1
-54307.6
-54378.2
-54340.4
-54308.1
-54378.5
-54340.5
-54308.2
-54378.9
-54341
-54308.6
-54379.2
-54341.1
-54308.7
-54377.5
-54339.6
-54307.4
-54378.1
-54339.9
-54307.6
-54377.8
-54339.6
-54307.4
-54379.3
-54341.3
-54308.8
-54378.6
-54340.6
-54308.4
-54378.1
-54340.1
-54307.8
-54378.2
-54340.1
-54307.8
-54378
-54340.1
-54307.8
-54378.5
-54340.4
-54308
-54378.9
-54340.7
-54308.3
-54378.7
-54340.6
-54308.2
-54377
-54339.2
-54306.9
-54377.4
-54339.4
-54307.3
-54378
-54339.9
-54307.4
-54375.4
-54337.6
-54305.7
-54376.2
-54338.4
-54306.2
-54377.8
-54339.8
-54307.7
-54377.9
-54339.9
-54307.6
-54377.5
-54339.7
-54307.3
-54378
-54340
-54307.6
-54378.3
-54340.2
-54307.9
-54376.7
-54338.8
-54306.6
-54377.9
-54339.8
-54307.6
-54375.1
-54337.4
-54305.6
-54377
-54339.1
-54306.9
-54376.5
-54338.6
-54306.5
-54377.4
-54339.4
-54307.3
-54377.4
-54339.5
-54307
-54377.4
-54339.6
-54307
-54378.1
-54340.1
-54307.6
-54377.6
-54339.5
-54307
-54377.4
-54339.5
-54307.3
-54377.6
-54339.5
-54307.3
-54376.1
-54338.4
-54306.3
-54377.4
-54339.3
-54307.1
-54379.3
-54341
-54308.5
-54379.2
-54341
-54308.5
-54379.5
-54341.3
-54308.7
-54378.9
-54340.8
-54308.4
-54379.4
-54341.2
-54308.7
-54379.1
-54340.9
-54308.5
-54376.4
-54338.6
-54306.6
-54378.6
-54340.5
-54308.1
-54377.5
-54339.6
-54307.2
-54375.1
-54337.5
-54305.5
-54377.1
-54339.3
-54306.8
-54376.9
-54339
-54306.5
-54377.3
-54339.4
-54306.9
-54376.9
-54339
-54306.5
-54377.9
-54339.8
-54307.6
-54376
-54338.2
-54306.3
-54377.5
-54339.5
-54307.3
-54379.2
-54340.9
-54308.4
-54379.2
-54341
-54308.4
-54379
-54340.8
-54308.7
-54380
-54341.7
-54309.2
-54378.8
-54340.6
-54308.4
-54378.9
-54340.7
-54308.5
-54378.2
-54340.2
-54308.1
-54378.9
-54341
-54308.5
-54379.9
-54341.8
-54309.2
-54378.3
-54340.3
-54308.1
-54378.1
-54340.1
-54308
-54379.4
-54341.2
-54308.7
-54378.8
-54340.8
-54308.5
-54379
-54340.9
-54308.6
-54379.6
-54341.5
-54309.1
-54378.1
-54339.9
-54307.7
-54378
-54339.7
-54307.6
-54377.8
-54339.7
-54307.5
-54378.7
-54340.4
-54308
-54379.4
-54341
-54308.6
-54377.9
-54339.9
-54307.8
-54377.9
-54339.9
-54307.8
-54378.6
-54340.5
-54308.3
-54378.7
-54340.7
-54308.3
-54379
-54340.9
-54308.5
-54379.2
-54341.2
-54308.8
-54378.9
-54340.8
-54308.4
-54378.7
-54340.6
-54308.4
-54377.9
-54339.9
-54307.9
-54379
-54340.9
-54308.5
-54379.4
-54341.4
-54308.9
-54379.6
-54341.7
-54309.1
-54380.9
-54342.7
-54309.9
-54378.9
-54340.6
-54308.4
-54378.9
-54340.8
-54308.5
-54378.5
-54340.4
-54308.2
-54379.5
-54341.2
-54308.8
-54379.8
-54341.4
-54309
-54377.7
-54339.5
-54307.3
-54378
-54339.9
-54307.7
-54378.7
-54340.5
-54308.1
-54378.2
-54340.1
-54308
-54379.3
-54341.3
-54308.7
-54378.1
-54340.2
-54307.7
-54379.1
-54341.1
-54308.3
-54378
-54340.1
-54307.8
-54378.4
-54340.3
-54308.1
-54377.6
-54339.4
-54307.4
-54377.7
-54339.6
-54307.4
-54377.4
-54339.3
-54307.2
-54378.2
-54340
-54307.8
-54378.3
-54340.1
-54308
-54379.6
-54341.5
-54309
-54379.5
-54341.4
-54308.9
-54378.8
-54340.6
-54308.2
-54377
-54339.1
-54307.1
-54378.5
-54340.5
-54307.9
-54379.8
-54341.7
-54309
-54379.4
-54341.5
-54308.8
-54378.9
-54340.8
-54308.5
-54378.1
-54340
-54307.7
-54377
-54339.1
-54307.1
-54377.4
-54339.3
-54307.3
-54379.3
-54341.3
-54309
-54378.7
-54340.7
-54308.1
-54379.6
-54341.5
-54308.7
-54378.3
-54340.3
-54308.1
-54378.4
-54340.3
-54308.3
-54379
-54341
-54308.5
-54378.9
-54340.9
-54308.4
-54378.5
-54340.4
-54307.7
-54378.4
-54340.3
-54307.8
-54376.7
-54338.7
-54306.6
-54376.2
-54338.2
-54306.2
-54377.6
-54339.4
-54307
-54378.7
-54340.6
-54308.1
-54376
-54338.2
-54306.3
-54377.4
-54339.4
-54307.2
-54378.1
-54340.1
-54307.6
-54378
-54340.1
-54307.6
-54378.9
-54340.8
-54308.4
-54377.7
-54339.5
-54307.4
-54377.7
-54339.5
-54307.4
-54377.6
-54339.5
-54307.3
-54378.4
-54340.1
-54307.9
-54378.4
-54340.1
-54308
-54378.9
-54340.9
-54308.4
-54379
-54340.9
-54308.5
-54378.2
-54340.1
-54308
-54378.4
-54340.3
-54308.2
-54378.6
-54340.4
-54308.3
-54378.9
-54340.9
-54308.5
-54377.6
-54339.4
-54307.2
-54377.4
-54339.2
-54307.1
-54377.2
-54339.1
-54306.9
-54378.2
-54340
-54307.8
-54378
-54339.8
-54307.7
-54379.9
-54341.7
-54309.2
-54379.4
-54341.2
-54308.8
-54379.5
-54341.3
-54308.9
-54377.9
-54339.9
-54307.5
-54378.4
-54340.3
-54307.8
-54377.2
-54339.2
-54307.1
-54377
-54339
-54306.9
-54378.4
-54340.3
-54307.9
-54378.5
-54340.4
-54307.9
-54379.2
-54341
-54308.6
-54378.9
-54340.7
-54308.4
-54379.1
-54340.9
-54308.5
-54380.2
-54341.9
-54309.6
-54380.2
-54341.9
-54309.5
-54380.1
-54341.9
-54309.4
-54380.6
-54342.4
-54309.8
-54379.9
-54341.7
-54309.3
-54380.3
-54342
-54309.5
-54379.9
-54341.7
-54309.1
-54378.8
-54340.5
-54308.4
-54378.8
-54340.6
-54308.5
-54376
-54338.1
-54306.2
-54376.6
-54338.7
-54306.7
-54377.3
-54339.4
-54306.8
-54377.1
-54339.2
-54306.7
-54377.9
-54340
-54307.7
-54375.5
-54337.8
-54305.9
-54377.1
-54339.1
-54307
-54379.6
-54341.3
-54308.9
-54379.3
-54341.1
-54308.8
-54379.4
-54341.3
-54308.8
-54378.8
-54340.7
-54308.5
-54379.4
-54341.2
-54308.8
-54379
-54340.8
-54308.5
-54378.4
-54340.2
-54307.9
-54378.4
-54340.1
-54308
-54377.9
-54339.8
-54307.6
-54379
-54340.7
-54308.3
-54378.2
-54340.1
-54307.9
-54378.6
-54340.6
-54308.1
-54377.8
-54339.7
-54307.6
-54377.8
-54339.7
-54307.6
-54377.7
-54339.6
-54307.5
-54378.5
-54340.3
-54308.1
-54378.4
-54340.4
-54307.9
-54377.2
-54339.2
-54307.1
-54377.3
-54339.3
-54307.3
-54378.3
-54340.1
-54307.8
-54378.8
-54340.8
-54308.3
-54379.6
-54341.4
-54308.9
-54379.8
-54341.5
-54309
-54378.8
-54340.7
-54308.4
-54379.1
-54340.8
-54308.6
-54378.5
-54340.3
-54308.1
-54378.9
-54340.9
-54308.5
-54378.2
-54340.1
-54308
-54378.6
-54340.5
-54308.4
-54378.7
-54340.5
-54308.4
-54378.5
-54340.3
-54308.3
-54378.5
-54340.3
-54308.1
-54379.3
-54341
-54308.7
-54379.6
-54341.3
-54308.9
-54380.2
-54341.9
-54309.4
-54380
-54341.8
-54309.5
-54380
-54341.7
-54309.4
-54380.1
-54341.9
-54309.3
-54380.2
-54342
-54309.4
-54380
-54341.7
-54309.2
-54378.5
-54340.2
-54308.1
-54378.1
-54339.9
-54307.8
-54377.9
-54339.7
-54307.6
-54377.8
-54339.7
-54307.5
-54378.6
-54340.4
-54308.1
-54377.2
-54339.1
-54307.1
-54378.4
-54340.4
-54307.9
-54377.7
-54339.5
-54307.5
-54377.8
-54339.7
-54307.5
-54377.8
-54339.7
-54307.4
-54378.7
-54340.4
-54308.2
-54378.4
-54340.3
-54307.8
-54377.1
-54339
-54306.9
-54378.1
-54340
-54307.9
-54378.9
-54340.9
-54308.5
-54378.9
-54340.8
-54308.5
-54379.5
-54341.5
-54309.1
-54379.8
-54341.6
-54309.2
-54379.3
-54341
-54308.7
-54378.9
-54340.8
-54308.6
-54378.9
-54340.8
-54308.4
-54379.8
-54341.5
-54309.1
-54379.3
-54341.3
-54308.8
-54378.4
-54340.3
-54308.2
-54378.4
-54340.5
-54308.4
-54378.3
-54340.2
-54307.8
-54377.1
-54339.1
-54307
-54377.8
-54339.6
-54307.4
-54377.9
-54339.8
-54307.6
-54377.8
-54339.6
-54307.5
-54377.5
-54339.4
-54307.2
-54378.6
-54340.4
-54308.1
-54379.7
-54341.4
-54308.8
-54378.4
-54340.3
-54307.7
-54377.3
-54339.2
-54307
-54376.8
-54338.7
-54306.7
-54377.4
-54339.3
-54307.2
-54377.2
-54339.1
-54307.1
-54377.3
-54339.2
-54307.1
-54378.6
-54340.4
-54308
-54378.3
-54340.1
-54308
-54379.7
-54341.5
-54309
-54379.5
-54341.3
-54308.8
-54378.7
-54340.6
-54308.3
-54378.7
-54340.6
-54308.5
-54379
-54340.8
-54308.6
-54378.5
-54340.4
-54308.2
-54379.8
-54341.5
-54309
-54379
-54341.1
-54308.6
-54378.2
-54340.1
-54308.1
-54378.6
-54340.5
-54308.5
-54378.1
-54340.1
-54308.1
-54379.2
-54341.1
-54308.8
-54379.9
-54341.7
-54309.2
-54378.9
-54340.8
-54308.5
-54378.8
-54340.6
-54308.5
-54378.4
-54340.2
-54308.2
-54379.3
-54341.1
-54308.8
-54379.7
-54341.4
-54309
-54379.9
-54341.7
-54309.2
-54379.4
-54341.1
-54308.8
-54379.9
-54341.7
-54309.2
-54380
-54341.8
-54309.2
-54379.4
-54341.2
-54308.8
-54379.6
-54341.4
-54308.9
-54379.1
-54340.9
-54308.5
-54378.6
-54340.6
-54308.1
-54378.8
-54340.7
-54308.2
-54377.1
-54339
-54306.9
-54379.1
-54341.1
-54308.7
-54378.7
-54340.5
-54308.1
-54378
-54339.8
-54307.7
-54378
-54339.9
-54307.7
-54377.8
-54339.7
-54307.5
-54378.8
-54340.5
-54308.2
-54378.8
-54340.8
-54308.3
-54378.1
-54340
-54307.8
-54377.6
-54339.6
-54307.5
-54378.7
-54340.6
-54308.4
-54379.1
-54340.9
-54308.6
-54378.2
-54340.2
-54308.1
-54379.6
-54341.3
-54308.9
-54379.2
-54341
-54308.7
-54379.5
-54341.3
-54309
-54379.2
-54341.2
-54308.7