/*--------------------------------*- C++ -*----------------------------------*\
| =========                 |                                                 |
| \\      /  F ield         | OpenFOAM: The Open Source CFD Toolbox           |
|  \\    /   O peration     | Version:  v1906                                 |
|   \\  /    A nd           | Web:      www.OpenFOAM.com                      |
|    \\/     M anipulation  |                                                 |
\*---------------------------------------------------------------------------*/
FoamFile
{
    version     2.0;
    format      ascii;
    class       volScalarField;
    location    "47";
    object      T;
}
// * * * * * * * * * * * * * * * * * * * * * * * * * * * * * * * * * * * * * //

dimensions      [0 0 0 1 0 0 0];


internalField   nonuniform List<scalar> 
78750
(
323.092
324.301
325.038
325.849
326.382
326.045
325.936
325.513
325.172
324.71
324.254
323.795
323.346
322.93
322.551
322.215
321.923
321.664
321.429
321.216
321.022
320.845
320.679
320.523
320.374
320.229
320.087
319.945
319.798
319.633
319.441
319.247
319.252
321.654
423.044
309.588
317.117
322.148
326.371
328.991
330.586
331.666
332.486
332.99
333.218
333.167
332.881
332.383
331.701
330.864
329.909
328.883
327.839
326.81
325.822
324.913
324.113
323.418
322.811
322.288
321.838
321.439
321.074
320.741
320.46
320.3
320.465
322.128
339.198
444.962
306.906
313.316
316.596
319.825
322.933
325.18
326.869
328.469
329.997
331.236
332.201
332.956
333.556
334.043
334.437
334.742
334.948
335.031
334.951
334.661
334.14
333.446
332.656
331.734
330.603
329.347
328.129
327.053
326.157
325.432
324.881
324.678
326.582
349.503
454.706
304.588
311.515
318.202
324.219
328.468
331.231
333.272
334.909
336.13
336.926
337.309
337.311
337.001
336.499
335.95
335.466
335.092
334.827
334.643
334.518
334.445
334.411
334.391
334.327
334.133
333.787
333.308
332.618
331.669
330.657
329.829
329.4
331.698
359.673
462.658
306.101
316.582
324.181
329.194
332.557
335.102
337.222
338.956
340.397
341.719
342.93
343.87
344.338
344.205
343.471
342.345
341.233
340.313
339.514
338.727
337.909
337.142
336.494
335.971
335.526
335.056
334.419
333.703
333.004
332.158
331.307
331.555
337.413
373.164
470.901
309.242
323.75
331.611
335.54
338.216
340.51
341.803
341.672
341.045
340.834
341.201
341.912
342.694
343.36
343.751
343.683
343.118
342.322
341.587
340.958
340.365
339.749
339.092
338.411
337.743
337.109
336.499
335.877
335.184
334.387
333.581
333.159
337.432
374.426
473.008
317.845
330.916
334.859
337.422
340.444
343.391
344.594
344.051
343.499
343.336
343.416
343.651
343.921
344.14
344.236
344.121
343.743
343.171
342.546
341.947
341.379
340.827
340.275
339.71
339.122
338.504
337.844
337.118
336.266
335.313
334.602
334.975
344.562
386.394
478.253
313.668
325.808
331.172
334.418
337.217
339.743
341.417
342.007
341.953
341.904
342.034
342.299
342.645
343.022
343.371
343.613
343.665
343.49
343.144
342.717
342.271
341.823
341.372
340.91
340.427
339.901
339.294
338.553
337.623
336.543
335.671
335.874
345.683
389.871
480.602
316.762
332.035
337.319
340.549
343.562
346.031
347.486
347.925
347.546
346.779
346.048
345.476
345.036
344.678
344.372
344.098
343.839
343.576
343.291
342.981
342.651
342.308
341.953
341.583
341.187
340.748
340.225
339.553
338.65
337.547
336.72
337.968
352.932
398.825
483.353
317.574
328.229
332.134
334.92
337.817
340.449
342.334
343.671
344.533
344.9
344.936
344.829
344.681
344.53
344.383
344.233
344.071
343.887
343.678
343.443
343.185
342.911
342.621
342.315
341.988
341.624
341.196
340.646
339.878
338.818
337.664
337.69
351.362
398.823
483.905
318.537
329.895
333.853
336.285
338.353
340.43
342.567
344.597
346.237
347.26
347.645
347.531
347.127
346.613
346.101
345.632
345.214
344.841
344.501
344.184
343.879
343.58
343.282
342.979
342.662
342.312
341.901
341.371
340.633
339.598
338.513
339.934
359.667
406.981
486.153
309.488
319.753
325.988
329.65
332.256
334.513
336.815
339.471
342.312
344.777
346.585
347.705
348.197
348.178
347.822
347.317
346.79
346.288
345.823
345.394
344.998
344.628
344.277
343.937
343.596
343.235
342.828
342.324
341.627
340.605
339.286
339.204
358.552
407.977
486.086
311.001
324.729
332.452
336.68
339.625
342.08
344.112
345.697
346.922
347.868
348.579
349.126
349.514
349.683
349.567
349.164
348.575
347.949
347.364
346.822
346.313
345.838
345.396
344.977
344.57
344.158
343.717
343.205
342.543
341.591
340.236
339.895
359.827
409.703
487.462
310.666
324.3
331.203
335.024
337.713
340.019
342.35
345.004
347.754
349.751
350.582
350.7
350.613
350.501
350.366
350.141
349.749
349.193
348.576
348.002
347.486
347.006
346.546
346.099
345.655
345.2
344.712
344.157
343.471
342.531
341.135
340.581
363.914
414.047
487.678
314.054
329.247
335.941
339.498
342.066
344.294
346.37
348.357
350.326
352.133
353.098
353.115
352.749
352.334
351.902
351.425
350.914
350.35
349.708
349.054
348.48
347.993
347.547
347.109
346.667
346.211
345.723
345.178
344.531
343.703
342.505
341.115
357.952
409.435
487.323
316.269
330.153
335.608
338.724
341.297
343.793
346.33
348.689
350.493
351.86
352.787
353.144
353.105
352.913
352.661
352.33
351.87
351.288
350.638
349.957
349.313
348.77
348.314
347.894
347.473
347.033
346.564
346.052
345.496
344.933
344.626
347.902
374.24
419.512
490.413
317.4
331.693
337.746
341.405
344.509
347.432
350.086
352.028
352.964
353.339
353.517
353.563
353.51
353.393
353.23
353.018
352.722
352.28
351.668
350.954
350.232
349.591
349.063
348.612
348.183
347.738
347.254
346.709
346.09
345.453
345.253
349.775
385.063
432.739
491.59
315.496
329.812
336.028
339.874
343.268
346.58
349.65
351.93
353.009
353.336
353.458
353.496
353.48
353.428
353.345
353.231
353.072
352.838
352.468
351.914
351.221
350.509
349.879
349.353
348.885
348.421
347.922
347.354
346.676
345.821
344.671
342.759
354.301
414.317
490.827
318.295
332.663
337.93
341.164
344.04
346.834
349.526
351.853
353.423
354.159
354.391
354.374
354.241
354.064
353.883
353.705
353.523
353.319
353.058
352.68
352.126
351.423
350.698
350.05
349.481
348.931
348.334
347.648
346.871
346.106
345.712
350.667
367.028
409.931
485.74
319.336
330.709
334.858
337.521
339.817
341.998
344.216
346.614
349.183
351.579
353.396
354.508
354.986
355.008
354.788
354.493
354.197
353.913
353.628
353.306
352.892
352.328
351.633
350.918
350.262
349.649
348.992
348.189
347.174
346.173
347.506
364.598
422.92
455.782
496.388
315.824
326.636
332.01
335.331
337.864
340.059
342.079
344.041
346.086
348.359
350.801
353.075
354.822
355.819
356.075
355.833
355.391
354.928
354.495
354.082
353.657
353.173
352.586
351.914
351.231
350.588
349.962
349.258
348.302
346.818
343.887
335.7
351.11
421.151
491.673
311.404
323.636
331.388
336.005
339.256
341.953
344.369
346.602
348.644
350.416
351.953
353.427
354.897
356.154
356.866
356.901
356.461
355.852
355.254
354.704
354.176
353.629
353.034
352.394
351.752
351.164
350.647
350.176
349.708
349.098
348.437
351.478
333.795
381.434
476.461
310.981
325.163
333.331
337.956
341.156
343.845
346.358
348.854
351.353
353.636
355.367
356.46
357.145
357.676
358.032
357.959
357.376
356.528
355.683
354.929
354.247
353.595
352.945
352.285
351.594
350.822
349.935
349.038
348.744
351.336
363.836
395.273
416.538
435.642
487.496
312.248
326.216
333.431
337.604
340.604
343.173
345.615
348.114
350.708
353.23
355.463
357.189
358.281
358.855
359.126
359.128
358.677
357.742
356.62
355.588
354.725
354.009
353.405
352.866
352.314
351.589
350.386
348.338
345.197
340.573
338.135
356.02
413.675
454.364
498.717
313.57
328.135
335.999
340.608
343.986
346.981
349.957
353.053
355.893
357.785
358.736
359.304
359.78
360.128
360.301
360.286
359.975
359.14
357.801
356.38
355.204
354.301
353.626
353.177
352.989
353.122
353.638
354.589
356.059
357.885
355.188
346.522
361.679
424.83
494.51
315.733
331.892
339.381
343.638
347.023
350.395
354.206
358.509
362.308
364.192
364.19
363.44
362.681
362.133
361.78
361.527
361.259
360.785
359.82
358.353
356.778
355.416
354.282
353.303
352.491
351.999
352.128
353.356
356.471
363.465
374.495
371.891
371.425
411.897
480.417
319.757
335.434
341.311
344.868
348.115
351.669
355.905
360.488
364.139
365.79
365.844
365.325
364.669
363.995
363.369
362.825
362.333
361.813
361.146
360.19
358.974
357.72
356.506
355.207
353.696
351.985
350.01
347.588
345.157
346.064
362.765
379.945
388.793
417.396
471.633
319.948
334.085
339.892
343.61
346.945
350.416
354.244
358.193
361.589
363.744
364.664
364.885
364.798
364.559
364.224
363.814
363.332
362.745
361.971
360.918
359.641
358.452
357.637
357.226
357.194
357.638
358.614
359.018
358.266
358.361
367.209
394.771
420.911
444.583
486.443
317.512
332.326
338.943
342.914
346.129
349.117
352.19
355.668
359.437
362.585
364.355
365.025
365.16
365.066
364.858
364.58
364.251
363.873
363.416
362.8
361.891
360.629
359.256
358.135
357.375
356.954
357.041
358.373
359.073
358.004
358.654
371.878
409.805
442.562
487.506
316.639
331.499
338.336
342.414
345.685
348.728
351.769
355.021
358.657
362.306
364.755
365.627
365.7
365.544
365.333
365.095
364.818
364.483
364.052
363.469
362.665
361.628
360.526
359.723
359.61
360.567
363.233
368.202
371.644
369.9
368.356
375.791
409.715
443.752
487.602
316.746
332.006
339.239
343.566
347.023
350.261
353.485
356.616
359.503
362.395
365.105
366.432
366.583
366.338
366.04
365.754
365.476
365.195
364.899
364.566
364.168
363.667
363.051
362.393
361.844
361.611
362.063
364.184
369.233
372.723
372.259
374.218
397.201
429.418
476.81
317.757
333.73
340.837
345.047
348.467
351.752
355.204
358.837
362.098
364.43
366.165
367.182
367.224
366.915
366.593
366.303
366.03
365.757
365.476
365.175
364.834
364.422
363.898
363.246
362.531
361.855
361.408
361.816
365.186
372.279
376.037
380.051
398.203
425.93
472.261
318.548
334.249
341.199
345.382
348.85
352.214
355.664
359.256
362.926
366.001
367.765
368.364
368.006
367.482
367.092
366.788
366.505
366.222
365.949
365.696
365.459
365.221
364.969
364.749
364.72
365.035
365.299
365.779
368.154
375.651
385.125
393.402
409.346
434.036
480.524
318.729
334.803
342.067
346.512
350.324
354.137
357.854
361.1
364.093
367.035
369.119
369.73
369.171
368.388
367.83
367.432
367.108
366.814
366.54
366.301
366.104
365.958
365.905
366.065
366.697
368.108
369.637
370.2
371.575
377.329
389.272
403.525
421.231
445.336
491.224
318.019
334.973
342.854
347.662
351.881
356.238
360.258
363.238
365.497
367.902
370.272
371.343
370.71
369.362
368.5
368.047
367.728
367.459
367.244
367.093
367.018
367.037
367.197
367.609
368.505
370.307
373.322
376.987
381.382
389.292
404.002
422.387
440.173
462.894
505.946
318.486
336.157
344.224
349.278
354.031
358.975
363.037
365.726
367.488
369.013
370.752
372.34
372.99
372.162
370.483
368.92
367.77
366.957
366.362
365.917
365.595
365.397
365.36
365.572
366.214
367.632
370.306
374.503
380.362
389.432
404.737
425.163
443.905
465.625
506.05
321.012
339.375
347.152
352.471
358.217
363.772
367.084
368.767
370.132
371.63
373.036
373.806
373.661
372.782
371.661
370.822
370.156
369.549
368.976
368.454
367.996
367.613
367.31
367.127
367.176
367.689
369.091
371.963
376.923
385.178
399.239
419.55
439.65
462.022
501.991
322.954
341.027
348.657
354.464
361.286
366.886
369.074
369.551
369.907
370.677
371.867
373.084
373.62
373.084
371.905
370.853
370.066
369.422
368.91
368.569
368.416
368.436
368.598
368.882
369.296
369.911
370.922
372.742
376.096
382.275
393.544
411.218
430.682
453.479
495.659
324.747
342.297
349.867
356.162
363.775
369.437
371.317
371.491
371.366
371.397
371.784
372.426
373.147
373.942
374.79
375.533
375.621
374.702
373.597
372.711
371.983
371.374
370.927
370.726
370.876
371.481
372.646
374.542
377.535
382.468
391.094
405.305
422.816
445.212
489.885
326.179
342.561
349.553
355.258
362.002
368.116
371.445
372.434
372.393
371.907
371.16
370.277
369.374
368.526
367.83
367.476
367.99
369.776
371.822
372.772
372.719
372.27
371.748
371.243
370.798
370.488
370.446
370.886
372.145
374.843
380.425
391.629
408.739
431.364
477.119
326.888
342.336
348.124
353.007
358.86
365.077
370.6
373.995
375.636
376.452
376.878
377.053
377.062
376.919
376.631
376.407
376.124
375.696
375.554
375.564
375.617
375.703
375.825
375.954
376.016
375.913
375.576
375.115
375.061
376.65
381.973
393.432
410.488
434.057
481.378
319.532
334.322
340.48
344.113
347.486
352.353
359.674
366.349
369.861
371.007
371.312
371.481
371.71
372.052
372.559
373.316
374.377
375.532
375.741
375.42
375.414
375.76
376.496
377.72
379.519
381.843
384.391
386.694
388.597
390.963
395.973
405.935
420.544
442.835
491.24
321.279
337.693
344.674
349.21
353.149
356.553
360.247
366.146
372.547
376.302
377.266
376.996
376.458
375.909
375.437
375.205
375.612
377.161
378.58
377.305
376.049
375.437
375.186
375.308
376.03
377.733
380.757
384.983
389.818
395.181
402.251
412.468
425.757
446.017
492.757
319.085
334.837
341.758
346.23
350.292
354.345
358.065
361.49
365.804
370.299
373.399
374.879
375.439
375.634
375.715
375.823
376.168
377.291
379.927
382.663
383.028
382.059
381.044
380.177
379.486
379.215
380.089
383.291
389.372
397.703
407.779
419.687
433.704
455.221
503.24
319.161
334.769
341.798
346.222
350.301
354.857
359.637
363.508
366.292
369.306
372.704
375.089
376.042
376.283
376.316
376.345
376.527
377.148
378.789
381.858
385.225
387.578
389.037
390.134
391.276
392.834
395.322
399.377
405.27
412.877
422.388
434.004
448.595
472.037
517.78
318.25
333.855
341.026
345.47
349.309
353.396
358.211
363.127
366.665
368.893
371.081
373.674
375.751
376.798
377.19
377.341
377.433
377.587
377.989
378.951
380.699
383.054
385.733
388.732
392.369
397.237
404.086
413.352
424.235
434.726
444.026
453.564
465.525
485.049
521.668
318.272
334.129
341.766
346.576
350.751
355.067
359.863
365.102
369.701
372.467
373.655
374.174
374.938
375.864
376.56
376.991
377.266
377.471
377.672
377.947
378.404
379.153
380.282
381.898
384.209
387.649
393.012
401.384
413.434
428.004
442.074
453.771
464.386
478.918
511.376
320.219
336.421
343.143
347.438
351.486
355.935
360.899
365.76
369.825
372.939
375.263
376.721
377.256
377.506
377.727
377.918
378.079
378.215
378.333
378.447
378.584
378.784
379.097
379.599
380.413
381.75
383.997
387.852
394.393
404.695
418.517
433.244
446.434
462.08
498.173
318.731
334.541
341.945
346.52
350.299
354.026
358.333
363.492
368.419
371.941
374.214
375.869
377.05
377.75
378.193
378.514
378.777
379
379.166
379.232
379.167
379.027
378.919
378.928
379.127
379.61
380.529
382.154
385.002
390.093
399.074
412.85
429.12
448.721
489.067
321.014
337.51
344.295
348.53
352.255
355.965
359.939
364.342
368.934
372.696
375.112
376.513
377.336
377.872
378.345
378.773
379.187
379.606
379.963
380.049
379.728
379.23
378.777
378.416
378.145
377.984
378.001
378.382
379.538
382.46
389.413
402.927
420.528
442.031
484.438
318.718
334.983
342.646
347.306
350.946
354.097
357.117
360.575
364.91
369.49
373.144
375.609
377.137
377.864
378.302
378.749
379.245
379.829
380.479
380.985
381.023
380.654
380.234
379.926
379.768
379.797
380.026
380.55
381.975
385.798
394.301
408.427
424.772
445.91
489.558
319.72
336.922
344.815
349.737
353.903
357.823
361.395
364.354
366.97
369.937
373.006
375.344
376.893
377.809
378.21
378.587
379.046
379.632
380.397
381.291
382.067
382.437
382.406
382.211
382.083
382.267
383.03
384.562
387.366
392.797
402.431
415.801
430.387
450.847
496.343
318.247
335.673
344.33
349.646
353.945
357.908
361.553
364.621
367.095
369.484
372.2
374.735
376.563
377.751
378.276
378.493
378.819
379.261
379.887
380.792
382.003
383.425
384.871
386.172
387.276
388.338
389.721
391.956
395.787
402.373
412.455
424.937
438.872
459.94
506.074
318.381
337.103
346.45
352.275
357.319
362.428
367.121
370.357
371.947
372.702
373.704
375.218
376.633
377.702
378.436
378.607
378.775
379.101
379.522
380.11
380.974
382.228
384.004
386.426
389.548
393.337
397.794
403.114
409.599
417.42
426.584
437
449.358
469.086
511.862
319.819
339.358
348.541
354.327
359.636
365.077
369.744
372.936
374.733
375.588
376.105
376.804
377.647
378.339
378.826
379.015
378.913
379.125
379.472
379.919
380.543
381.43
382.668
384.395
386.845
390.289
394.915
400.823
408.17
417.008
426.918
437.405
448.982
466.965
508.987
322.431
342.539
351.532
357.682
364.218
370.903
375.409
377.463
378.152
378.328
378.411
378.596
378.908
379.239
379.486
379.552
379.297
379.287
379.596
379.96
380.438
381.162
382.355
384.295
387.246
391.469
397.16
404.252
412.523
421.911
432.115
442.776
454.729
473.398
514.207
325.465
345.296
353.686
360.032
367.641
374.721
378.398
379.69
380.058
380.116
380.088
380.081
380.135
380.225
380.294
380.284
380.091
379.701
379.854
380.269
380.674
381.032
381.368
382.005
383.582
386.909
392.808
401.563
412.276
423.53
434.664
445.653
457.356
474.99
513.944
327.346
346.413
354.545
361.25
369.812
377.427
380.832
381.738
381.883
381.811
381.679
381.546
381.44
381.362
381.289
381.177
380.944
380.449
379.853
380.161
380.879
381.821
382.886
383.766
384.605
386.211
389.894
397.288
408.828
422.245
434.968
446.603
458.296
475.409
512.86
326.891
345.351
353.087
359.314
367.289
375.66
380.577
382.406
382.977
383.094
383.029
382.889
382.725
382.559
382.398
382.228
382.015
381.684
381.114
380.509
380.593
381.071
381.952
383.314
384.899
386.854
390.087
396.17
406.868
421.596
436.259
448.452
459.817
476.006
511.694
325.357
343.571
351.193
356.688
363.213
371.682
378.843
382.367
383.643
384.011
384.044
383.954
383.815
383.651
383.468
383.259
383.01
382.686
382.218
381.571
381.245
381.893
382.77
383.665
384.574
385.48
387.023
390.419
397.413
409.366
424.444
438.744
451.182
467.11
503.777
324.257
342.518
350.409
355.855
361.766
369.192
377.042
382.221
384.455
385.157
385.259
385.16
385
384.816
384.61
384.373
384.085
383.715
383.205
382.475
381.597
381.295
382.175
383.729
385.441
386.828
387.801
389.363
393.065
401.156
414.796
430.611
444.706
462.238
501.234
322.872
341.874
350.528
356.475
362.481
368.646
374.857
380.294
383.447
384.811
385.321
385.497
385.553
385.559
385.53
385.466
385.352
385.167
384.871
384.406
383.737
383.078
383.051
384.092
386.093
388.278
389.575
390.696
393.53
400.471
413.424
429.34
443.862
462.534
503.682
322.717
342.58
351.88
358.679
365.807
371.846
376.279
380.486
383.51
384.906
385.404
385.56
385.621
385.661
385.695
385.719
385.725
385.696
385.61
385.441
385.184
384.922
384.955
385.813
388.115
391.817
394.792
395.961
398.228
404.808
417.268
432.123
446.124
465.263
507.745
321.878
342.466
352.911
360.82
368.743
373.794
376.321
378.833
381.852
384.134
385.353
385.761
385.8
385.789
385.791
385.804
385.822
385.836
385.837
385.818
385.78
385.763
385.899
386.509
388.265
392.192
397.988
402.352
405.19
410.764
421.331
434.505
448.072
467.77
511.331
325.438
347.055
358.433
368.325
377.933
381.95
382.675
382.868
383.787
385.082
386.234
386.829
386.728
386.525
386.391
386.301
386.235
386.18
386.134
386.095
386.074
386.101
386.259
386.748
388.051
391.24
397.705
406.364
413.278
419.153
427.515
438.37
451.054
470.831
514.133
330.012
350.725
363.221
375.546
383.856
384.782
384.857
385.211
385.656
386.059
386.46
386.895
387.18
387.168
387.071
386.982
386.897
386.811
386.721
386.634
386.564
386.536
386.609
386.913
387.761
389.923
395.014
404.713
417.319
428.243
437.043
446.161
457.202
475.469
515.827
332.585
351.916
363.985
377.002
385.224
385.702
385.422
385.46
385.761
386.15
386.549
387.015
387.57
387.992
388.047
387.973
387.894
387.812
387.719
387.614
387.504
387.41
387.37
387.46
387.854
388.974
391.853
398.54
410.932
426.891
440.589
451.149
461.736
478.197
515.118
332.116
350.549
360.056
370.561
381.309
385.825
387.024
387.176
387.143
387.17
387.291
387.518
387.893
388.454
388.988
389.163
389.147
389.103
389.052
388.987
388.909
388.822
388.744
388.715
388.821
389.266
390.552
393.918
401.765
416.12
433.849
448.885
461.358
477.711
513.186
327.246
344.603
351.257
357.188
367.28
378.257
384.444
386.787
387.445
387.616
387.7
387.812
388.004
388.356
388.987
389.8
390.291
390.417
390.451
390.467
390.474
390.477
390.481
390.502
390.583
390.825
391.484
393.225
397.737
408.151
425.736
444.075
458.389
475.536
511.838
324.652
342.624
350.049
354.564
359.452
368.622
378.742
384.992
387.482
388.204
388.385
388.452
388.531
388.676
388.966
389.579
390.599
391.455
391.788
391.942
392.063
392.193
392.349
392.543
392.801
393.205
393.958
395.56
399.278
407.842
423.662
441.753
456.185
473.796
511.579
323.876
343.572
352.594
357.956
361.797
365.557
372.768
380.896
385.964
388.09
388.782
389.004
389.11
389.214
389.371
389.657
390.27
391.441
392.606
393.161
393.474
393.753
394.082
394.508
395.058
395.792
396.907
398.918
402.992
411.298
425.464
441.417
454.928
472.395
511.068
324.608
344.409
353.232
359.051
363.902
367.637
370.964
376.658
382.94
386.969
388.765
389.406
389.648
389.791
389.937
390.141
390.49
391.215
392.612
393.909
394.616
395.085
395.552
396.152
396.978
398.093
399.62
402.01
406.361
414.455
427.087
440.856
453.251
470.169
509.467
323.71
342.421
350.875
356.574
361.878
366.912
370.964
374.337
379.054
384.147
387.62
389.287
389.945
390.237
390.438
390.65
390.943
391.448
392.505
394.237
395.468
396.254
396.905
397.656
398.709
400.247
402.384
405.33
409.827
417.217
427.977
439.816
451.312
467.837
507.921
322.748
341.767
350.717
356.534
361.777
367.13
372.156
375.828
378.486
381.856
385.711
388.497
389.896
390.504
390.828
391.094
391.405
391.876
392.791
394.774
396.386
397.476
398.325
399.205
400.4
402.247
405.07
409.015
414.246
421.319
430.482
440.705
451.526
467.862
507.827
322.787
342.715
352.139
358.128
363.303
368.484
373.823
378.433
381.333
383.074
385.133
387.739
389.664
390.647
391.142
391.487
391.843
392.347
393.291
395.532
397.99
398.966
399.799
400.694
401.848
403.599
406.488
411.047
417.394
425.235
434.14
443.631
453.976
469.857
508.276
323.742
344.041
353.505
359.647
365.125
370.565
375.912
380.724
384.214
386.129
387.077
388.197
389.795
390.905
391.508
391.921
392.338
392.94
394.132
397.046
400.811
401.428
401.814
402.438
403.363
404.749
407.082
411.248
417.778
426.212
435.513
445.065
455.376
471.227
509.639
324.561
344.92
354.349
360.663
366.629
372.766
378.505
383.149
386.538
388.629
389.651
389.844
390.518
391.435
392.013
392.454
392.947
393.739
395.447
399.416
404.986
405.952
405.403
405.605
406.5
408.206
410.583
414.075
419.48
426.879
435.625
445.173
456.115
473.73
515.194
325.476
346.213
355.673
362.161
368.612
375.47
381.656
386.053
388.856
390.631
391.56
391.569
391.45
392.094
392.58
393.017
393.586
394.598
396.831
401.711
409.143
413.016
411.912
411.395
412.284
415.007
419.143
423.57
428.464
434.489
441.923
450.85
462.398
482.205
523.469
326.407
347.481
356.918
363.521
370.29
377.509
383.867
388.161
390.623
392.021
392.735
392.728
392.305
392.7
393.086
393.474
394.021
395.001
397.082
401.603
409.575
417.994
420.985
420.365
420.285
422.35
427.023
433.281
439.888
446.628
453.898
462.303
473.508
492.699
528.457
327.011
348.171
357.591
364.364
371.526
379.065
385.392
389.563
391.924
393.137
393.602
393.486
393.137
393.295
393.589
393.884
394.295
394.992
396.369
399.321
405.262
414.507
423.664
428.839
430.381
431.022
433.017
437.156
443.202
450.497
458.485
467.199
478.152
496.054
528.743
327.254
348.402
357.805
364.685
372.163
380.104
386.545
390.596
392.892
394.091
394.468
394.246
393.943
393.991
394.184
394.387
394.654
395.077
395.84
397.362
400.534
406.619
415.912
426.27
434.8
440.224
443.043
444.803
447.18
451.231
457.25
465.129
475.872
494.005
527.739
327.333
348.631
358.117
365.085
372.709
380.853
387.461
391.5
393.681
394.798
395.157
394.965
394.722
394.755
394.885
395.026
395.198
395.442
395.837
396.549
397.938
400.744
406.075
414.631
425.648
437.169
447.254
454.742
459.4
462.271
465.48
470.741
479.408
495.741
527.799
327.426
348.937
358.53
365.587
373.301
381.419
387.961
392.027
394.222
395.335
395.738
395.645
395.485
395.529
395.648
395.775
395.911
396.074
396.291
396.621
397.182
398.228
400.272
404.173
410.882
420.745
433.062
446.38
459.139
469.805
476.815
481.692
487.99
500.215
527.687
327.457
349.161
358.898
366.097
374.017
382.207
388.582
392.517
394.69
395.826
396.282
396.266
396.176
396.261
396.406
396.553
396.701
396.857
397.032
397.243
397.519
397.927
398.61
399.854
402.186
406.384
413.268
423.298
436.368
451.837
467.792
479.794
488.52
500.027
525.953
327.684
349.636
359.56
366.979
375.229
383.534
389.67
393.325
395.319
396.375
396.834
396.85
396.778
396.907
397.104
397.297
397.483
397.672
397.874
398.096
398.345
398.634
398.993
399.488
400.258
401.574
403.923
408.07
415.092
426.412
443.682
465.222
481.343
496.813
523.686
327.999
350.225
360.378
368.114
376.851
385.289
391.054
394.305
396.053
396.979
397.393
397.412
397.324
397.478
397.734
397.981
398.214
398.447
398.695
398.968
399.272
399.609
399.987
400.421
400.948
401.645
402.681
404.417
407.665
414.281
428.186
452.406
473.442
492.301
520.769
328.577
351.049
361.386
369.467
378.81
387.485
392.88
395.627
397.01
397.718
398.014
397.979
397.844
398.001
398.316
398.623
398.905
399.181
399.474
399.8
400.165
400.574
401.031
401.546
402.143
402.867
403.814
405.211
407.636
412.646
424.061
445.962
466.498
486.123
517.467
329.279
351.839
362.227
370.55
380.409
389.392
394.61
397.003
398.082
398.567
398.701
398.557
398.343
398.48
398.857
399.232
399.571
399.899
400.247
400.634
401.073
401.568
402.125
402.756
403.487
404.371
405.514
407.153
409.846
414.956
425.443
444.027
461.547
480.376
515.154
329.697
352.22
362.553
370.901
380.936
390.28
395.698
398.066
399.038
399.403
399.419
399.171
398.885
398.986
399.388
399.807
400.193
400.57
400.97
401.419
401.931
402.511
403.169
403.918
404.793
405.858
407.243
409.225
412.425
418.159
428.652
444.89
459.958
477.88
514.796
329.619
352.136
362.414
370.595
380.413
390.055
396.007
398.667
399.725
400.088
400.073
399.778
399.42
399.485
399.922
400.388
400.818
401.241
401.691
402.197
402.773
403.426
404.163
405.003
405.987
407.196
408.788
411.085
414.79
421.285
432.379
447.621
461.386
478.535
515.436
329.335
352.022
362.353
370.376
379.835
389.533
396.031
399.11
400.35
400.769
400.761
400.443
399.986
399.926
400.389
400.927
401.422
401.905
402.42
403
403.662
404.405
405.228
406.142
407.184
408.438
410.07
412.428
416.261
423.039
434.527
449.595
462.934
479.53
515.46
329.108
352.141
362.678
370.721
379.965
389.406
396.066
399.45
400.876
401.385
401.427
401.137
400.625
400.384
400.811
401.408
401.966
402.51
403.096
403.768
404.551
405.447
406.451
407.565
408.816
410.278
412.112
414.658
418.635
425.41
436.516
450.687
463.516
479.674
514.811
329.147
352.624
363.455
371.725
381.079
390.194
396.539
399.914
401.421
401.999
402.1
401.877
401.375
400.915
401.167
401.801
402.424
403.022
403.653
404.375
405.221
406.207
407.338
408.63
410.124
411.905
414.139
417.156
421.602
428.605
439.234
452.176
464.142
479.499
513.691
329.469
353.335
364.434
373.016
382.728
391.683
397.495
400.563
402.002
402.607
402.772
402.649
402.25
401.636
401.496
402.159
402.896
403.583
404.289
405.079
405.984
406.997
408.096
409.28
410.594
412.142
414.113
416.853
421.001
427.59
437.464
449.388
460.783
475.691
510.082
329.963
354.135
365.436
374.287
384.384
393.358
398.774
401.467
402.737
403.303
403.494
403.443
403.177
402.627
401.966
402.265
403.151
404.013
404.875
405.861
407.062
408.496
410.108
411.825
413.631
415.608
417.957
421.037
425.427
431.892
440.844
451.317
462.049
477.182
512.272
330.44
354.885
366.367
375.415
385.764
394.774
400.014
402.474
403.582
404.077
404.261
404.254
404.09
403.72
403
402.341
402.977
403.966
404.911
405.907
407.107
408.632
410.535
412.795
415.356
418.197
421.4
425.205
430.033
436.396
444.479
453.648
463.318
477.346
511.282
330.793
355.557
367.286
376.552
387.1
396.062
401.172
403.518
404.535
404.964
405.112
405.103
404.981
404.73
404.232
403.289
403.05
403.979
405.096
406.146
407.209
408.369
409.657
411.122
412.893
415.152
418.091
421.934
426.982
433.553
441.646
450.681
460.27
474.207
508.4
331.122
356.259
368.297
377.889
388.775
397.654
402.471
404.61
405.516
405.884
405.994
405.962
405.826
405.562
405.048
404.148
403.512
404.268
405.686
407.237
408.998
411.157
413.704
416.368
418.921
421.475
424.395
428.12
433.026
439.304
446.829
455.263
464.797
479.575
514.568
331.606
357.115
369.41
379.385
390.778
399.686
404.11
405.899
406.593
406.834
406.865
406.777
406.591
406.255
405.645
404.805
404.349
404.778
405.598
406.564
407.81
409.604
412.189
415.559
419.366
423.23
427.1
431.273
436.172
442.104
449.088
456.945
465.855
479.63
513.366
332.024
357.745
370.118
380.321
392.116
401.291
405.57
407.122
407.642
407.766
407.708
407.544
407.271
406.823
406.204
405.894
406.543
407.673
408.754
409.75
410.749
411.864
413.26
415.19
417.931
421.585
426.013
431.037
436.629
442.883
449.847
457.515
466.253
479.868
512.961
331.835
357.527
369.876
379.942
391.66
401.413
406.253
408.025
408.588
408.693
408.597
408.403
408.144
407.787
407.222
406.486
406.247
406.72
407.74
409.397
411.706
414.612
417.885
421.122
424.111
427.124
430.651
435.036
440.369
446.561
453.462
461.038
469.868
484.076
517.907
331.349
357.126
369.657
379.578
390.935
401.021
406.665
408.922
409.659
409.801
409.687
409.453
409.172
408.892
408.645
408.452
408.511
409.116
409.581
409.994
410.717
412.166
414.767
418.646
423.321
427.972
432.245
436.494
441.264
446.882
453.401
460.788
469.481
483.487
517.418
330.94
357.2
370.396
380.59
391.672
401.278
407.153
409.853
410.854
411.108
411.024
410.774
410.451
410.124
409.823
409.526
409.213
408.959
409.811
412.017
413.996
415.721
417.547
419.932
423.406
428.186
433.813
439.596
445.324
451.216
457.548
464.544
472.762
485.868
517.096
331.878
359.315
373.594
385.001
396.955
405.538
409.947
411.832
412.524
412.662
412.51
412.198
411.819
411.463
411.211
411.131
411.212
410.872
408.713
408.129
409.705
412.299
415.467
418.892
422.401
426.411
431.44
437.396
443.788
450.291
456.891
463.784
471.549
483.916
515.87
333.798
362.327
377.919
391.154
404.212
411.447
413.749
414.261
414.308
414.111
413.734
413.257
412.787
412.444
412.376
412.874
414.313
415.4
413.016
411.567
411.837
413
415.418
419.322
423.937
428.097
431.839
436.114
441.498
447.947
455.171
463.048
472.26
487.227
521.776
336.416
365.374
382.056
396.999
410.225
415.485
415.927
415.78
415.633
415.308
414.871
414.393
413.907
413.456
413.106
412.97
413.265