/*--------------------------------*- C++ -*----------------------------------*\
| =========                 |                                                 |
| \\      /  F ield         | OpenFOAM: The Open Source CFD Toolbox           |
|  \\    /   O peration     | Version:  v1906                                 |
|   \\  /    A nd           | Web:      www.OpenFOAM.com                      |
|    \\/     M anipulation  |                                                 |
\*---------------------------------------------------------------------------*/
FoamFile
{
    version     2.0;
    format      ascii;
    class       volVectorField;
    location    "47";
    object      U;
}
// * * * * * * * * * * * * * * * * * * * * * * * * * * * * * * * * * * * * * //

dimensions      [0 1 -1 0 0 0 0];


internalField   nonuniform List<vector> 
78750
(
(-0.375359 -0.246463 -0.0405718)
(-0.319469 -0.237554 -0.0350507)
(-0.30901 -0.214431 -0.0227298)
(-0.250174 -0.18711 -0.00589486)
(-0.176466 -0.149122 0.0120041)
(-0.158277 -0.124442 0.0145166)
(-0.126928 -0.104252 0.0169394)
(-0.103415 -0.0874297 0.0159693)
(-0.0751466 -0.0718665 0.0151101)
(-0.0556442 -0.059506 0.0129694)
(-0.0360827 -0.0486425 0.0102606)
(-0.0219631 -0.0403229 0.0071862)
(-0.00953292 -0.0334548 0.0037331)
(0.000101736 -0.0281696 0.000175678)
(0.00780472 -0.0240301 -0.00337258)
(0.0137495 -0.0207355 -0.00673265)
(0.0184885 -0.0180072 -0.00974129)
(0.0224038 -0.0154852 -0.0123281)
(0.0256388 -0.0129861 -0.014526)
(0.0282477 -0.0105389 -0.0164064)
(0.0303761 -0.00814974 -0.0180173)
(0.032097 -0.00581217 -0.0194155)
(0.0334771 -0.00351502 -0.0206695)
(0.0345648 -0.00125919 -0.0218509)
(0.035351 0.000943451 -0.0230442)
(0.0358198 0.00307831 -0.0243304)
(0.0359632 0.00513952 -0.025783)
(0.0357751 0.00714833 -0.0274412)
(0.0352417 0.00916298 -0.0292713)
(0.0343119 0.011264 -0.0311763)
(0.0328412 0.0135027 -0.0330886)
(0.0305738 0.015808 -0.035067)
(0.0274856 0.018022 -0.0372143)
(0.0254921 0.0217862 -0.0411336)
(0.0129183 0.0724402 -0.0246296)
(0.0442911 -0.226629 0.00648806)
(-0.0551227 -0.25166 -0.00736124)
(-0.0177551 -0.322035 -0.0117062)
(-0.030285 -0.381788 -0.00598513)
(-0.0348473 -0.376809 0.00299143)
(-0.0278121 -0.342254 0.0137143)
(-0.0206272 -0.300552 0.0237671)
(-0.00938344 -0.261499 0.0330027)
(0.00109073 -0.222873 0.0406033)
(0.0121645 -0.185361 0.047052)
(0.0214788 -0.150465 0.0525145)
(0.0298636 -0.118564 0.0571952)
(0.0366327 -0.0902654 0.0609042)
(0.0418288 -0.065865 0.0632681)
(0.045445 -0.045575 0.0638686)
(0.0475427 -0.0294232 0.0624359)
(0.0482329 -0.0172451 0.0589984)
(0.0477125 -0.00853274 0.0539034)
(0.0461801 -0.00249214 0.0475816)
(0.0437541 0.00163782 0.0404329)
(0.0406182 0.00448773 0.0330089)
(0.0371297 0.00658265 0.0260005)
(0.0335883 0.00825342 0.0198377)
(0.0301515 0.00966283 0.0145805)
(0.0270442 0.011096 0.0102192)
(0.0244481 0.0128822 0.00663846)
(0.0224795 0.0152322 0.00365119)
(0.0211456 0.0182545 0.00108877)
(0.0203288 0.0220141 -0.00117306)
(0.0198361 0.0265731 -0.00319026)
(0.0194601 0.0320995 -0.00493627)
(0.0190605 0.0392572 -0.00632488)
(0.0183502 0.0516782 -0.00739339)
(0.0165252 0.101069 -0.00870413)
(0.00567045 0.222966 -0.00298456)
(-0.0172284 0.00783962 -0.100566)
(-0.0119355 -0.0995861 -0.128171)
(-0.0240273 -0.164618 -0.111554)
(-0.0222403 -0.214265 -0.090563)
(-0.0202608 -0.261091 -0.0741419)
(-0.0165337 -0.289022 -0.0653373)
(-0.0106291 -0.299528 -0.0602047)
(-0.00241276 -0.294973 -0.0566573)
(0.0077445 -0.276911 -0.0549387)
(0.01761 -0.251157 -0.0552114)
(0.0273386 -0.221526 -0.0558644)
(0.0366157 -0.190605 -0.0549534)
(0.0452057 -0.16011 -0.0509731)
(0.0529897 -0.130903 -0.0432489)
(0.0599532 -0.103166 -0.0319287)
(0.0660628 -0.0767244 -0.0176432)
(0.0711908 -0.0513958 -0.00124961)
(0.0751526 -0.0272497 0.0161544)
(0.0777499 -0.00472101 0.033147)
(0.0788564 0.0151517 0.0477947)
(0.0783117 0.0306757 0.0579913)
(0.0761426 0.0406872 0.0627406)
(0.0728691 0.046048 0.0628211)
(0.0684738 0.0483759 0.0591349)
(0.0625176 0.0478483 0.0515519)
(0.055557 0.0443293 0.0414182)
(0.0484654 0.0390434 0.0314541)
(0.0416775 0.0340713 0.023499)
(0.0354572 0.0313117 0.0178935)
(0.0300375 0.0314716 0.0138554)
(0.0255225 0.0345999 0.010536)
(0.0216973 0.0417835 0.00719993)
(0.0178159 0.0610998 0.00190174)
(0.0136046 0.150475 -0.00758095)
(0.00382924 0.29248 -0.00227589)
(0.00350989 -0.0862571 -0.00794612)
(0.0167197 -0.213193 0.0086808)
(0.0338555 -0.31147 0.0293313)
(0.0496222 -0.379341 0.0478226)
(0.0612175 -0.408769 0.0577068)
(0.0681569 -0.414991 0.0610569)
(0.0723052 -0.40792 0.0606522)
(0.0741252 -0.389429 0.0560205)
(0.0730572 -0.360647 0.0454906)
(0.070138 -0.323699 0.0281172)
(0.0667318 -0.281765 0.00413681)
(0.0637711 -0.238688 -0.0241727)
(0.0615408 -0.198326 -0.0524652)
(0.0600377 -0.16337 -0.0759323)
(0.0593279 -0.134583 -0.0917262)
(0.0595686 -0.110508 -0.0996021)
(0.0609534 -0.0888979 -0.100533)
(0.0635665 -0.068315 -0.0953162)
(0.0672198 -0.0482993 -0.0844902)
(0.0713802 -0.028606 -0.0686865)
(0.0755117 -0.00895081 -0.0487372)
(0.0790231 0.0108417 -0.0254408)
(0.0812832 0.0310036 0.00050316)
(0.081682 0.0513092 0.0277975)
(0.0795639 0.0692455 0.0521289)
(0.0751579 0.0815999 0.068118)
(0.0689916 0.0884555 0.0748883)
(0.0607312 0.0909811 0.0735641)
(0.0509527 0.088328 0.0649533)
(0.0415091 0.0825129 0.05426)
(0.0333036 0.0791124 0.046811)
(0.0264852 0.0811513 0.0420182)
(0.0190911 0.0997281 0.0351669)
(0.0111075 0.210978 0.0164569)
(0.00167615 0.347434 0.00672873)
(0.00432785 -0.131936 -0.0214875)
(0.0226748 -0.301032 -0.00323611)
(0.0390622 -0.390173 0.0137854)
(0.0520278 -0.427663 0.0236659)
(0.0600345 -0.435582 0.0294683)
(0.0639806 -0.424457 0.0322257)
(0.0644105 -0.39702 0.0314489)
(0.0605615 -0.356702 0.0272746)
(0.0532355 -0.310841 0.0225506)
(0.0445412 -0.265289 0.0182339)
(0.0362771 -0.222106 0.0115512)
(0.0295913 -0.181064 -0.000908196)
(0.0249685 -0.142205 -0.0201541)
(0.0222267 -0.106919 -0.0441166)
(0.0207215 -0.0774341 -0.0686313)
(0.0197817 -0.0559075 -0.0888089)
(0.0192897 -0.0417664 -0.101524)
(0.019418 -0.0309012 -0.108117)
(0.0202879 -0.020115 -0.110502)
(0.0221074 -0.00776083 -0.108831)
(0.0249934 0.00661801 -0.101561)
(0.0286131 0.0223387 -0.0875189)
(0.0325218 0.0391277 -0.0668435)
(0.0362962 0.0572743 -0.0403185)
(0.039499 0.0770327 -0.00883526)
(0.0415665 0.0979555 0.026175)
(0.0411501 0.116076 0.0579472)
(0.0385861 0.125471 0.0744807)
(0.0354636 0.128498 0.0781058)
(0.0307061 0.12721 0.0729057)
(0.0238812 0.12104 0.0584205)
(0.0187872 0.119265 0.0433726)
(0.0137182 0.14639 0.0291699)
(0.00804381 0.281758 0.011618)
(0.000763361 0.394199 0.00411714)
(0.00929823 -0.260551 0.028369)
(0.0264149 -0.456047 0.0504178)
(0.0356951 -0.519329 0.0495881)
(0.0381651 -0.526638 0.043249)
(0.0372937 -0.507452 0.0359725)
(0.0331704 -0.460399 0.0245883)
(0.0250713 -0.389471 0.00143256)
(0.0138492 -0.318366 -0.0298082)
(0.00374198 -0.26391 -0.0523155)
(-0.00261719 -0.227328 -0.0607764)
(-0.00628136 -0.202328 -0.0601354)
(-0.00836867 -0.182031 -0.0565406)
(-0.00923648 -0.161933 -0.0538122)
(-0.0089825 -0.139208 -0.0539482)
(-0.00771007 -0.112641 -0.0584953)
(-0.00574401 -0.0840545 -0.068082)
(-0.00370657 -0.0584243 -0.0804361)
(-0.00183391 -0.0397611 -0.0911106)
(5.80657e-05 -0.0269708 -0.0979583)
(0.00221488 -0.016607 -0.101744)
(0.00487813 -0.00630119 -0.103159)
(0.00820065 0.00520756 -0.1019)
(0.0121558 0.0184731 -0.0969339)
(0.0165896 0.0336149 -0.0869104)
(0.0212512 0.05047 -0.0707033)
(0.0258083 0.0686896 -0.0480117)
(0.029742 0.0873178 -0.0203442)
(0.0322757 0.104681 0.00888148)
(0.0324614 0.118848 0.0348645)
(0.0298983 0.127968 0.0521796)
(0.0258158 0.132789 0.0602607)
(0.0208323 0.137141 0.0613179)
(0.0137887 0.162722 0.0517463)
(0.00710047 0.31098 0.0251078)
(0.000689085 0.418146 0.00877507)
(0.00318894 -0.360099 0.0286583)
(-0.00115123 -0.470374 0.00845245)
(-0.00665962 -0.469959 0.00129268)
(-0.0127036 -0.447342 0.00138722)
(-0.020091 -0.394843 0.00403506)
(-0.0258344 -0.301669 -0.00268963)
(-0.0284393 -0.198381 -0.034851)
(-0.0300798 -0.140828 -0.0742984)
(-0.0304969 -0.128109 -0.089866)
(-0.0298957 -0.124949 -0.0935595)
(-0.0287911 -0.122299 -0.0928101)
(-0.0274884 -0.118629 -0.0898228)
(-0.0263922 -0.113095 -0.0862644)
(-0.0254332 -0.104383 -0.0828399)
(-0.0242263 -0.0910321 -0.0799383)
(-0.0223288 -0.0730702 -0.0786728)
(-0.0196701 -0.0534652 -0.0801282)
(-0.0166725 -0.0360636 -0.0836122)
(-0.0137135 -0.0222344 -0.0873561)
(-0.0108307 -0.0108688 -0.0902892)
(-0.00789153 -0.000471872 -0.0920673)
(-0.00475741 0.00996834 -0.0924697)
(-0.00130279 0.0211065 -0.0911049)
(0.00252865 0.0334833 -0.0873231)
(0.00668281 0.047644 -0.0800597)
(0.0110194 0.0641486 -0.0676673)
(0.0152805 0.0835059 -0.0477681)
(0.0189583 0.105829 -0.0177886)
(0.0209091 0.128806 0.0200637)
(0.0200485 0.145887 0.0521336)
(0.0178634 0.155357 0.0687025)
(0.014957 0.164944 0.0732142)
(0.00950719 0.21466 0.0585085)
(0.00445165 0.368372 0.0288219)
(-0.000368949 0.44472 0.0101116)
(-0.00253593 -0.312343 0.0150345)
(-0.00651264 -0.449838 0.0281345)
(-0.00951434 -0.480393 0.0371939)
(-0.0114632 -0.482864 0.0439695)
(-0.0130303 -0.46667 0.0522706)
(-0.0128977 -0.422516 0.0649464)
(-0.00933261 -0.34741 0.0747584)
(-0.0039391 -0.263395 0.0619757)
(-0.000545448 -0.203973 0.0308442)
(0.000334662 -0.172467 0.00295095)
(6.85811e-06 -0.155496 -0.0159923)
(-0.000811988 -0.144021 -0.0287336)
(-0.00194975 -0.133792 -0.0380275)
(-0.00333287 -0.122604 -0.0453918)
(-0.00476444 -0.10915 -0.0514385)
(-0.00586982 -0.0929431 -0.0563636)
(-0.0062336 -0.0745984 -0.0604617)
(-0.00573759 -0.0560502 -0.0642303)
(-0.00459102 -0.0395156 -0.0677969)
(-0.00305439 -0.0257658 -0.0708611)
(-0.00122472 -0.01407 -0.0731669)
(0.000921967 -0.00332349 -0.0745719)
(0.0033201 0.00733192 -0.0748805)
(0.00588796 0.01854 -0.0737472)
(0.00863435 0.0309023 -0.0705604)
(0.0115278 0.0451937 -0.0641858)
(0.0144993 0.062501 -0.0524032)
(0.0173821 0.0839567 -0.0313626)
(0.0196092 0.108863 0.00171777)
(0.0200052 0.131474 0.0385242)
(0.018775 0.146496 0.063599)
(0.0165312 0.160303 0.075417)
(0.0114368 0.221524 0.0659121)
(0.00548111 0.39506 0.0359152)
(0.00036107 0.457 0.0136096)
(0.00221942 -0.336964 0.0196702)
(0.001586 -0.466879 0.0225118)
(-0.000756922 -0.481575 0.01901)
(-0.00352831 -0.472182 0.0152099)
(-0.00709071 -0.444301 0.0114429)
(-0.0105434 -0.400306 0.013634)
(-0.0130984 -0.342508 0.0311776)
(-0.012662 -0.266086 0.0540916)
(-0.00989144 -0.189787 0.0546802)
(-0.00764272 -0.139923 0.0371595)
(-0.00638545 -0.113729 0.0181259)
(-0.00589543 -0.099134 0.00261464)
(-0.00596849 -0.088976 -0.0098733)
(-0.00639287 -0.0801152 -0.0203468)
(-0.00688135 -0.0712718 -0.0293442)
(-0.00714068 -0.0619159 -0.0370543)
(-0.00694261 -0.0518256 -0.0435548)
(-0.00618181 -0.0410301 -0.0489242)
(-0.00490911 -0.0298913 -0.0532566)
(-0.00329513 -0.0189405 -0.0566511)
(-0.00151666 -0.00846838 -0.0591843)
(0.000312104 0.00162585 -0.0608831)
(0.00221945 0.0116772 -0.0616894)
(0.00425586 0.0221214 -0.0614075)
(0.00638572 0.0334464 -0.0596395)
(0.00857825 0.0462929 -0.0556182)
(0.0108201 0.0616142 -0.0478001)
(0.0130805 0.0806377 -0.0331563)
(0.0151323 0.103698 -0.00761917)
(0.0161512 0.127102 0.026928)
(0.015662 0.145424 0.0570668)
(0.0140307 0.166828 0.0751541)
(0.00972426 0.257194 0.0671394)
(0.00494721 0.431997 0.0402059)
(0.000694256 0.471773 0.0178497)
(-0.0032359 -0.344988 0.0340775)
(-0.0144632 -0.448058 0.0351059)
(-0.0221115 -0.461727 0.0350579)
(-0.0283342 -0.451864 0.034335)
(-0.0332647 -0.421563 0.031471)
(-0.0339468 -0.376289 0.0259453)
(-0.030528 -0.331652 0.0222732)
(-0.0244548 -0.288388 0.0254324)
(-0.0161994 -0.240933 0.031984)
(-0.00768975 -0.196246 0.03324)
(-0.000867183 -0.161492 0.0289381)
(0.00354767 -0.136251 0.0218156)
(0.00584036 -0.117525 0.0137169)
(0.00680416 -0.102518 0.00550864)
(0.00700572 -0.0893418 -0.00246779)
(0.00687542 -0.0769327 -0.010065)
(0.00669154 -0.0647617 -0.0171641)
(0.00664111 -0.052648 -0.0236365)
(0.00683589 -0.0406394 -0.029355)
(0.00729933 -0.0289023 -0.034215)
(0.00799157 -0.0175838 -0.0381611)
(0.00885331 -0.00667689 -0.0411858)
(0.00984576 0.00400381 -0.0432805)
(0.0109551 0.0147489 -0.0443776)
(0.0121682 0.0259267 -0.044295)
(0.0134653 0.0380231 -0.0426281)
(0.0148279 0.0517669 -0.0385222)
(0.0162523 0.0682538 -0.0301582)
(0.0176721 0.0885777 -0.0141395)
(0.0186479 0.111728 0.0124058)
(0.0184891 0.133127 0.0438678)
(0.0171305 0.155436 0.0718953)
(0.011895 0.255331 0.071848)
(0.00579641 0.447528 0.0452526)
(0.0011571 0.481532 0.0214042)
(-0.0112265 -0.27363 0.0213326)
(-0.0211067 -0.408516 0.0126057)
(-0.0253565 -0.446285 0.0117068)
(-0.0265258 -0.460315 0.0129093)
(-0.0249082 -0.462684 0.0154612)
(-0.0196505 -0.451832 0.0184765)
(-0.0106396 -0.423678 0.0201058)
(0.000484947 -0.378734 0.0200221)
(0.0122011 -0.321716 0.0210114)
(0.0234299 -0.259778 0.0246285)
(0.0328555 -0.201185 0.0284908)
(0.0393405 -0.152347 0.0300168)
(0.0425231 -0.115685 0.0283533)
(0.0428235 -0.0899758 0.0241363)
(0.0410964 -0.0719755 0.0184754)
(0.0382084 -0.058462 0.0122161)
(0.0348713 -0.0472827 0.00584198)
(0.031595 -0.0372487 -0.000374188)
(0.02866 -0.0276933 -0.00626008)
(0.0261519 -0.0182451 -0.01168)
(0.024085 -0.00875817 -0.0164885)
(0.0224423 0.000796717 -0.020542)
(0.0211612 0.0104661 -0.0237076)
(0.0201887 0.0203819 -0.0258541)
(0.0194787 0.0307838 -0.0268168)
(0.0189947 0.0420504 -0.0262851)
(0.0187029 0.054749 -0.0236301)
(0.0185746 0.0696974 -0.0175402)
(0.0185433 0.0877958 -0.00542139)
(0.0183984 0.108898 0.0163314)
(0.0176843 0.130729 0.0474696)
(0.0162876 0.162551 0.0801199)
(0.011514 0.301642 0.0783541)
(0.00543502 0.486579 0.0514195)
(0.00122731 0.499879 0.0260425)
(-0.00310924 -0.232436 0.00179475)
(0.000578885 -0.422277 0.000335521)
(0.00410086 -0.494716 0.00114917)
(0.00762386 -0.525743 0.00141398)
(0.0104613 -0.540359 0.00167716)
(0.0127323 -0.544376 0.00213153)
(0.0148487 -0.536685 0.00312545)
(0.0178416 -0.509765 0.00480199)
(0.0224183 -0.457587 0.00656171)
(0.0284223 -0.388417 0.00959512)
(0.0356111 -0.313799 0.0160265)
(0.0432269 -0.241128 0.0248558)
(0.0500288 -0.175379 0.0328885)
(0.0547683 -0.120804 0.0372675)
(0.0567186 -0.0800845 0.0370193)
(0.0560313 -0.0524073 0.0331838)
(0.0534948 -0.0339363 0.027516)
(0.049935 -0.0206771 0.0212553)
(0.0460333 -0.0101551 0.0150284)
(0.0422061 -0.00113806 0.00913912)
(0.0386049 0.00709021 0.00374919)
(0.0353326 0.0149772 -0.00102853)
(0.0324424 0.0228086 -0.00508111)
(0.0299083 0.0308228 -0.00827885)
(0.0276772 0.0392782 -0.0104558)
(0.0257134 0.0484905 -0.0113586)
(0.0239915 0.058887 -0.0105414)
(0.0224615 0.0710808 -0.00712576)
(0.0210436 0.0859114 0.000723307)
(0.0196156 0.103816 0.0161776)
(0.0179245 0.123212 0.0411907)
(0.0162628 0.147304 0.0750173)
(0.0119717 0.299873 0.0819689)
(0.00688323 0.501862 0.0565792)
(0.00227855 0.511112 0.030085)
(0.00159499 -0.258375 0.0044833)
(0.0105147 -0.444007 0.0119541)
(0.0172103 -0.503163 0.0139748)
(0.0217318 -0.5177 0.0132396)
(0.0254103 -0.51574 0.0108641)
(0.0285325 -0.503002 0.00647376)
(0.0306903 -0.48125 -0.000538906)
(0.03172 -0.451624 -0.0105747)
(0.0314564 -0.413105 -0.0233171)
(0.0302559 -0.366422 -0.0350806)
(0.0293076 -0.316249 -0.0389899)
(0.0299905 -0.264668 -0.0321815)
(0.0329293 -0.210808 -0.0173417)
(0.0376695 -0.154942 0.000578921)
(0.0428494 -0.100565 0.0162785)
(0.0467562 -0.0537803 0.0257146)
(0.0482994 -0.0196882 0.0280416)
(0.0476422 0.00192879 0.0256315)
(0.0455856 0.0154893 0.0212702)
(0.0428045 0.0249603 0.0164284)
(0.0397767 0.0324373 0.0117306)
(0.0368004 0.0389406 0.00749736)
(0.0339843 0.0451061 0.00388746)
(0.0313401 0.0513752 0.000986892)
(0.0288662 0.0580475 -0.00109526)
(0.0265573 0.0653485 -0.00216079)
(0.0244082 0.0735041 -0.00185722)
(0.022425 0.0828248 0.00045274)
(0.0206136 0.0938003 0.00603152)
(0.0189481 0.106993 0.0174822)
(0.0173189 0.122202 0.0391581)
(0.0163035 0.143135 0.0758722)
(0.0114376 0.314878 0.0866889)
(0.00551465 0.527262 0.06122)
(0.00168024 0.527413 0.0321116)
(0.00194953 -0.312311 0.00672737)
(0.0101673 -0.51753 0.0116699)
(0.0166732 -0.582012 0.0143079)
(0.022111 -0.602831 0.0168217)
(0.0270192 -0.606954 0.0193741)
(0.0314805 -0.599602 0.0220438)
(0.0352311 -0.578448 0.0242729)
(0.037842 -0.534309 0.0233217)
(0.0381971 -0.460249 0.0122005)
(0.0357964 -0.373657 -0.0125194)
(0.0316653 -0.303261 -0.0393813)
(0.0276477 -0.256513 -0.0549484)
(0.025116 -0.221899 -0.0573287)
(0.024822 -0.187626 -0.0484227)
(0.0272552 -0.14719 -0.0303189)
(0.0317398 -0.100408 -0.00829716)
(0.0363782 -0.0528554 0.010448)
(0.0394057 -0.0129284 0.0208758)
(0.0402552 0.0145483 0.02324)
(0.0395315 0.0316233 0.0212001)
(0.0379942 0.04285 0.0176325)
(0.0360641 0.0512742 0.0137762)
(0.0339753 0.0583506 0.0101659)
(0.0318505 0.0648383 0.00711603)
(0.0297204 0.0712513 0.00483686)
(0.0275869 0.0779507 0.00352171)
(0.0254506 0.0851716 0.00343726)
(0.0233169 0.0930639 0.00502727)
(0.021204 0.101759 0.00910964)
(0.019112 0.11146 0.0174559)
(0.0168077 0.122459 0.0347366)
(0.0148944 0.139498 0.0744167)
(0.0109841 0.338246 0.0888038)
(0.00661149 0.549534 0.0678612)
(0.00280475 0.54155 0.0376964)
(0.00450964 -0.351454 0.00378209)
(0.0139154 -0.537806 0.00367057)
(0.0206813 -0.585971 0.00210946)
(0.0255766 -0.595981 0.00113043)
(0.0294517 -0.59105 0.000494739)
(0.0321297 -0.574668 4.08453e-05)
(0.0329342 -0.544868 -0.000535957)
(0.0312279 -0.49658 -0.00211719)
(0.0268845 -0.427194 -0.00682567)
(0.0215723 -0.342712 -0.018507)
(0.0172017 -0.263491 -0.0382184)
(0.0138826 -0.210453 -0.0560358)
(0.0117189 -0.180994 -0.0652717)
(0.0106763 -0.161539 -0.06744)
(0.0108389 -0.142219 -0.0632594)
(0.0130371 -0.11581 -0.0501853)
(0.0175778 -0.0792773 -0.0286199)
(0.0229025 -0.0369386 -0.00594552)
(0.0271129 0.00203358 0.00982186)
(0.0293487 0.0302228 0.0163861)
(0.0300326 0.0477777 0.0170143)
(0.0298915 0.0591731 0.0152388)
(0.0293279 0.0677862 0.0126761)
(0.0285263 0.0751644 0.0099755)
(0.0275967 0.081944 0.00757258)
(0.0265834 0.0884816 0.00583697)
(0.0254948 0.0950175 0.00510869)
(0.0243324 0.101673 0.00577246)
(0.0231074 0.108447 0.00836672)
(0.0218567 0.115266 0.0138461)
(0.020468 0.122219 0.0251736)
(0.0183221 0.130253 0.0596694)
(0.0117307 0.318188 0.0846719)
(0.00604193 0.558787 0.0664877)
(0.00148328 0.554181 0.035881)
(0.00283403 -0.408401 0.0123462)
(0.00568321 -0.602907 0.0168448)
(0.00818443 -0.642028 0.0191922)
(0.0106439 -0.645403 0.0209675)
(0.0132282 -0.633628 0.0225914)
(0.0155649 -0.607001 0.0240105)
(0.0169115 -0.558274 0.0238104)
(0.0163444 -0.477381 0.0161523)
(0.0128272 -0.379332 -0.0050357)
(0.00706159 -0.298249 -0.0284448)
(0.00277089 -0.238698 -0.0455007)
(0.00106769 -0.196815 -0.057176)
(0.000878725 -0.170194 -0.06389)
(0.00135686 -0.152622 -0.0667675)
(0.00223592 -0.138159 -0.0668755)
(0.00367412 -0.122251 -0.063645)
(0.00627978 -0.0999707 -0.0540945)
(0.0105885 -0.0676713 -0.0357294)
(0.0157349 -0.0284293 -0.0134963)
(0.0200203 0.00876544 0.00381768)
(0.0225529 0.0362505 0.0124208)
(0.0236783 0.0538161 0.01482)
(0.0240047 0.0655318 0.014416)
(0.023902 0.0745759 0.012923)
(0.0235425 0.0824087 0.0110866)
(0.0230131 0.0895731 0.00942145)
(0.0223429 0.0963128 0.0084031)
(0.0215297 0.102764 0.00851112)
(0.0205894 0.109016 0.0103049)
(0.0196211 0.115367 0.0146449)
(0.018578 0.123813 0.024344)
(0.0156699 0.155935 0.0535429)
(0.00877788 0.390634 0.0838706)
(-0.000179015 0.593498 0.067454)
(-0.000290187 0.563824 0.0349455)
(0.000953026 -0.424182 0.00960018)
(-0.000717864 -0.610564 0.00960829)
(-0.00303776 -0.646404 0.0113951)
(-0.00488223 -0.649448 0.0138085)
(-0.00664958 -0.63718 0.0170834)
(-0.0082834 -0.608684 0.0216861)
(-0.0099296 -0.55621 0.0272717)
(-0.0110422 -0.468388 0.0279699)
(-0.0107256 -0.3543 0.00983977)
(-0.0108524 -0.262756 -0.0197151)
(-0.0106458 -0.210317 -0.0407615)
(-0.00936514 -0.180346 -0.0522238)
(-0.00754151 -0.160637 -0.0583015)
(-0.00556762 -0.145739 -0.0614251)
(-0.00360564 -0.132836 -0.0626276)
(-0.00160889 -0.119846 -0.0620771)
(0.00064812 -0.104348 -0.058981)
(0.00359317 -0.0827774 -0.0509763)
(0.00763989 -0.0518021 -0.0352546)
(0.0122879 -0.0138632 -0.0147273)
(0.0160402 0.0219872 0.00230055)
(0.0180099 0.0484963 0.0116192)
(0.0185397 0.0659349 0.0151364)
(0.0182218 0.0781432 0.0158274)
(0.0173685 0.0879727 0.015311)
(0.0161106 0.0967168 0.0143772)
(0.0144915 0.104819 0.01359)
(0.012473 0.1124 0.0134774)
(0.00998113 0.119444 0.0146092)
(0.00709778 0.126178 0.0177701)
(0.00385553 0.135649 0.0250582)
(-0.00140364 0.175529 0.044525)
(0.0020067 0.423345 0.0781251)
(0.00402998 0.597342 0.0615828)
(0.00218092 0.551438 0.0363998)
(0.00141546 -0.434728 0.0126369)
(-0.00262764 -0.612139 0.0198316)
(-0.00816379 -0.645045 0.0210951)
(-0.013404 -0.646716 0.0216103)
(-0.0189191 -0.63299 0.0224547)
(-0.0242367 -0.602949 0.0244155)
(-0.0287418 -0.551631 0.0278071)
(-0.0307986 -0.473813 0.0296)
(-0.0280868 -0.37456 0.0199351)
(-0.0223533 -0.285271 -0.00299932)
(-0.0164002 -0.22797 -0.0231882)
(-0.0110887 -0.193283 -0.0362129)
(-0.00674937 -0.170322 -0.0442901)
(-0.00325085 -0.15316 -0.0493639)
(-0.000361187 -0.138775 -0.0524462)
(0.00213952 -0.125353 -0.0539511)
(0.00449519 -0.111308 -0.0538353)
(0.00702315 -0.0945682 -0.0514005)
(0.0101403 -0.0720612 -0.0447619)
(0.0141696 -0.0408494 -0.031393)
(0.018613 -0.00316861 -0.0130421)
(0.0221482 0.032188 0.00302987)
(0.0240238 0.0585633 0.01252)
(0.0245496 0.0766351 0.0167698)
(0.0243028 0.0899184 0.0183006)
(0.0236239 0.100958 0.0186377)
(0.0226702 0.110939 0.0186361)
(0.0214802 0.12031 0.0189409)
(0.0199914 0.129213 0.0201657)
(0.0180694 0.137566 0.0230144)
(0.0158 0.144994 0.0285298)
(0.014339 0.150043 0.043291)
(0.00824068 0.29665 0.0835258)
(0.0099705 0.576203 0.0795307)
(0.00355275 0.557429 0.0473441)
(-0.00134409 -0.436685 0.0294547)
(-0.0110094 -0.583983 0.027418)
(-0.0192699 -0.610595 0.0244643)
(-0.0266677 -0.611883 0.0231729)
(-0.0335456 -0.599945 0.02305)
(-0.0387521 -0.575258 0.0242738)
(-0.0412038 -0.536072 0.0268753)
(-0.039222 -0.480547 0.0297023)
(-0.0316902 -0.410579 0.0290134)
(-0.0201512 -0.336548 0.0204927)
(-0.00802911 -0.274092 0.00770063)
(0.00240548 -0.226546 -0.00511687)
(0.0100436 -0.191629 -0.0163501)
(0.0149138 -0.165975 -0.0254235)
(0.0177974 -0.146322 -0.0323118)
(0.0194608 -0.13003 -0.0372344)
(0.020511 -0.115104 -0.0403886)
(0.0214033 -0.0997945 -0.0417369)
(0.0225343 -0.0819941 -0.0407063)
(0.0243227 -0.0587618 -0.0356621)
(0.0270557 -0.027447 -0.0242304)
(0.0301945 0.00930139 -0.00770721)
(0.0326046 0.0425528 0.00725113)
(0.0337357 0.0664819 0.0164811)
(0.0338329 0.0823925 0.0210286)
(0.0333711 0.0937182 0.023188)
(0.0327115 0.102614 0.0244834)
(0.0321429 0.109939 0.0258732)
(0.0318849 0.116044 0.0280974)
(0.0320696 0.121398 0.0317696)
(0.0320087 0.127329 0.0382868)
(0.0323368 0.164772 0.0551541)
(0.0138739 0.368341 0.0670611)
(-0.00195372 0.58668 0.0756218)
(-0.000120225 0.57187 0.045853)
(-0.00827636 -0.393836 0.0180125)
(-0.0194856 -0.541545 -0.000653847)
(-0.0253315 -0.578842 -0.00402419)
(-0.0288958 -0.592096 -0.00367425)
(-0.0307634 -0.595324 -0.00175289)
(-0.0304708 -0.591189 0.00126183)
(-0.0276399 -0.579553 0.00544091)
(-0.0218671 -0.557503 0.011406)
(-0.0128622 -0.519365 0.0196809)
(-0.000854017 -0.460788 0.0283517)
(0.0129826 -0.387426 0.0328938)
(0.0264486 -0.311919 0.0315028)
(0.0373595 -0.244588 0.0245261)
(0.0443959 -0.191357 0.0137712)
(0.0474565 -0.153002 0.00198748)
(0.0475473 -0.126066 -0.00858771)
(0.0458822 -0.105876 -0.0170335)
(0.0433728 -0.0887079 -0.023232)
(0.0406594 -0.0719076 -0.0271638)
(0.0381798 -0.0530137 -0.0284029)
(0.0363254 -0.0289673 -0.0255245)
(0.0354856 0.00277483 -0.0163061)
(0.0351122 0.0392296 -0.00171407)
(0.0337792 0.071854 0.0125337)
(0.0309096 0.0954985 0.0223949)
(0.026785 0.11132 0.0282361)
(0.0217033 0.122265 0.0319315)
(0.0158487 0.130011 0.0350751)
(0.00943171 0.134988 0.039101)
(0.00263985 0.138294 0.045993)
(-0.00564254 0.151501 0.0596303)
(-0.0121818 0.246962 0.0819843)
(0.000127863 0.58244 0.0736748)
(-0.00277709 0.659817 0.051069)
(0.000698222 0.574029 0.0327524)
(-0.00755876 -0.32764 -0.00423861)
(-0.00945887 -0.524374 -0.0219933)
(-0.00805508 -0.591623 -0.0233202)
(-0.00486839 -0.62059 -0.0225683)
(-0.00085545 -0.634773 -0.0215357)
(0.00357365 -0.639587 -0.020589)
(0.00819033 -0.636069 -0.019827)
(0.0128705 -0.623888 -0.0189556)
(0.0176614 -0.601471 -0.0168711)
(0.0230902 -0.565235 -0.0111465)
(0.0299933 -0.510035 0.000234919)
(0.0387124 -0.435558 0.0153921)
(0.048476 -0.348539 0.0293124)
(0.0573981 -0.260466 0.0362596)
(0.0633468 -0.184466 0.0333591)
(0.0654748 -0.128401 0.0231406)
(0.0646242 -0.0908341 0.0106933)
(0.062166 -0.0652349 -0.000612446)
(0.0590854 -0.0454868 -0.00971817)
(0.0559404 -0.0274058 -0.0164719)
(0.0531826 -0.00793537 -0.0205746)
(0.0509235 0.015869 -0.0209191)
(0.0490591 0.0461017 -0.0156491)
(0.0473297 0.0801168 -0.00528107)
(0.0449901 0.111287 0.00608635)
(0.0416315 0.135707 0.0151525)
(0.03733 0.153873 0.0214245)
(0.0321366 0.167863 0.0257931)
(0.0258302 0.179246 0.0293711)
(0.0182414 0.187861 0.033119)
(0.0102667 0.189584 0.0395816)
(0.00352825 0.152859 0.0599927)
(0.00397029 0.267843 0.108843)
(0.0175202 0.546662 0.100816)
(0.00904321 0.53671 0.0678434)
(-0.000463884 -0.326239 -0.0202444)
(0.00505701 -0.553783 -0.0294109)
(0.00950658 -0.637799 -0.0282282)
(0.0136487 -0.668619 -0.0270374)
(0.0173323 -0.679078 -0.0265417)
(0.0206636 -0.677909 -0.02676)
(0.0235555 -0.666796 -0.0279692)
(0.0259796 -0.645387 -0.0306493)
(0.0278271 -0.613158 -0.0351357)
(0.0289511 -0.572114 -0.0404478)
(0.0296129 -0.525705 -0.0428766)
(0.0308737 -0.472772 -0.0372712)
(0.0341388 -0.407857 -0.021052)
(0.0399904 -0.328598 0.00170626)
(0.0471645 -0.242266 0.0207525)
(0.0531992 -0.164016 0.0276407)
(0.0566454 -0.105136 0.0229556)
(0.0578363 -0.0654237 0.0129645)
(0.0577109 -0.0380954 0.00257653)
(0.0568899 -0.0166003 -0.00632683)
(0.055628 0.00357315 -0.0131954)
(0.0543726 0.0255508 -0.0173256)
(0.053717 0.051282 -0.0173228)
(0.0538508 0.079854 -0.01232)
(0.0545481 0.106678 -0.00417839)
(0.0554646 0.12778 0.00394397)
(0.0565345 0.143034 0.0106345)
(0.0579076 0.154186 0.0162563)
(0.0593778 0.16268 0.0218429)
(0.0619102 0.170093 0.0277262)
(0.0587625 0.162817 0.0396708)
(0.0611021 0.204755 0.0552785)
(0.0246176 0.286888 0.0779771)
(0.00629055 0.559064 0.10418)
(0.00265843 0.599184 0.0694487)
(0.00214633 -0.345744 -0.0202216)
(0.00882278 -0.565485 -0.018776)
(0.0143648 -0.646804 -0.0153506)
(0.018164 -0.676638 -0.0136889)
(0.02148 -0.686571 -0.0132726)
(0.0246153 -0.68516 -0.0139104)
(0.0274394 -0.673693 -0.015788)
(0.0298472 -0.650707 -0.0194274)
(0.031649 -0.61323 -0.0256072)
(0.0324869 -0.560757 -0.0345703)
(0.0320419 -0.499948 -0.0447565)
(0.0302663 -0.440643 -0.052227)
(0.0277605 -0.385482 -0.0516735)
(0.0259566 -0.327542 -0.0387796)
(0.0263889 -0.259022 -0.0154074)
(0.0288333 -0.183362 0.00703035)
(0.031253 -0.114886 0.0174681)
(0.0322025 -0.0637522 0.0157936)
(0.0316892 -0.028273 0.00851946)
(0.0301777 -0.00155408 0.000542196)
(0.0282001 0.0222075 -0.00601843)
(0.0260961 0.0466599 -0.0100186)
(0.0240167 0.0733539 -0.0103386)
(0.0221158 0.101221 -0.00643791)
(0.0203819 0.127003 0.000625035)
(0.0185778 0.147658 0.00890714)
(0.0165294 0.161923 0.0172921)
(0.0143614 0.169902 0.0260458)
(0.0123755 0.172979 0.036364)
(0.0123812 0.178941 0.0503347)
(0.0102393 0.223984 0.0715949)
(0.0207535 0.41001 0.0882862)
(0.00820989 0.637966 0.0587423)
(-0.00776751 0.702357 0.0521522)
(-0.00304049 0.63651 0.029353)
(0.00237307 -0.381933 -0.0202582)
(0.0123513 -0.610451 -0.0220398)
(0.0224068 -0.690181 -0.0203157)
(0.0306158 -0.71961 -0.0190472)
(0.0375903 -0.728926 -0.0185892)
(0.0435743 -0.725902 -0.019125)
(0.0481326 -0.711499 -0.0210894)
(0.0507999 -0.683744 -0.025344)
(0.0510669 -0.640005 -0.0326913)
(0.0489609 -0.580979 -0.0421736)
(0.0456223 -0.510519 -0.0516356)
(0.042049 -0.435647 -0.0601534)
(0.0382593 -0.367616 -0.0663466)
(0.0343461 -0.311884 -0.066684)
(0.0310302 -0.261532 -0.0568026)
(0.0294856 -0.205035 -0.0349424)
(0.0298615 -0.139901 -0.00930267)
(0.0302325 -0.0775165 0.00674337)
(0.0293339 -0.0284525 0.00971889)
(0.0276367 0.00760549 0.00535214)
(0.0255879 0.0360742 -0.000809011)
(0.0235253 0.0612688 -0.00603325)
(0.0218881 0.08547 -0.00917465)
(0.0208215 0.10941 -0.00988468)
(0.0201499 0.132614 -0.00847811)
(0.0194137 0.153998 -0.0057605)
(0.017881 0.172048 -0.00252681)
(0.014766 0.183907 0.000872676)
(0.0100168 0.185991 0.00498422)
(0.00310768 0.173081 0.0132471)
(-0.00773491 0.144873 0.0368775)
(-0.0126239 0.192463 0.075511)
(0.000468537 0.49368 0.0953962)
(0.00440425 0.623846 0.0670564)
(0.0030552 0.552707 0.0419658)
(0.0054002 -0.426913 -0.0239839)
(0.0194959 -0.663491 -0.0198365)
(0.0312056 -0.737577 -0.0165367)
(0.0401873 -0.758629 -0.0157118)
(0.0473593 -0.759051 -0.0165833)
(0.0529228 -0.745779 -0.0192933)
(0.0561373 -0.717756 -0.0249466)
(0.0560595 -0.670175 -0.0359933)
(0.0516519 -0.60272 -0.0540971)
(0.0434119 -0.527979 -0.0741973)
(0.0341598 -0.45788 -0.0881005)
(0.0265307 -0.391422 -0.0939221)
(0.0213258 -0.326918 -0.0947189)
(0.0180493 -0.270488 -0.092493)
(0.0161483 -0.224672 -0.0863599)
(0.0155759 -0.18296 -0.0735441)
(0.0170035 -0.135749 -0.0512209)
(0.0204956 -0.0800204 -0.0241676)
(0.0237532 -0.0265683 -0.00519625)
(0.0250349 0.0133645 0.000791351)
(0.0250514 0.0407204 -0.000797855)
(0.0248276 0.0615575 -0.00459827)
(0.0248624 0.080017 -0.00813123)
(0.0254726 0.0979193 -0.0103854)
(0.0267684 0.115929 -0.0110311)
(0.0286512 0.134468 -0.0101396)
(0.03082 0.1541 -0.00799512)
(0.0326731 0.175426 -0.00510163)
(0.0335616 0.199789 -0.00216371)
(0.0318744 0.233356 -0.00103974)
(0.0236369 0.263635 -0.00220553)
(0.00606196 0.276962 0.00760617)
(-0.00493907 0.403735 0.0695762)
(0.00527085 0.601626 0.0960429)
(0.00114444 0.562217 0.0655649)
(0.00803784 -0.503281 -0.00887102)
(0.0165517 -0.727526 0.00778222)
(0.0217223 -0.779426 0.0121383)
(0.0248224 -0.786412 0.0122144)
(0.027088 -0.77563 0.010022)
(0.0283419 -0.749087 0.00513948)
(0.0276332 -0.700415 -0.00505191)
(0.0239287 -0.621086 -0.0260467)
(0.0165376 -0.519692 -0.0602102)
(0.00660385 -0.425082 -0.0956589)
(-0.0025101 -0.356236 -0.117557)
(-0.00880775 -0.307252 -0.125186)
(-0.0122777 -0.266705 -0.124447)