/*--------------------------------*- C++ -*----------------------------------*\
| =========                 |                                                 |
| \\      /  F ield         | OpenFOAM: The Open Source CFD Toolbox           |
|  \\    /   O peration     | Version:  v1906                                 |
|   \\  /    A nd           | Web:      www.OpenFOAM.com                      |
|    \\/     M anipulation  |                                                 |
\*---------------------------------------------------------------------------*/
FoamFile
{
    version     2.0;
    format      ascii;
    class       volScalarField;
    location    "11";
    object      omega;
}
// * * * * * * * * * * * * * * * * * * * * * * * * * * * * * * * * * * * * * //

dimensions      [0 0 -1 0 0 0 0];


internalField   nonuniform List<scalar> 
78750
(
2452.85
363.063
247.641
138.031
64.4918
25.6845
21.2507
18.9151
20.4752
18.8458
20.2651
19.2259
19.3621
19.0692
18.9616
18.6945
18.5907
18.403
18.2677
18.1239
17.988
17.8563
17.7286
17.6044
17.4827
17.3627
17.2428
17.121
16.9937
16.8553
16.6962
16.501
16.2368
15.736
546.863
500.019
40.5766
26.5064
12.3423
10.7481
11.4221
11.3279
11.7163
11.5807
11.8299
11.7666
11.829
11.8213
11.8206
11.7991
11.7752
11.7379
11.6945
11.6424
11.5829
11.5167
11.4442
11.366
11.2826
11.1946
11.1027
11.0075
10.9096
10.8093
10.7061
10.5977
10.4708
10.2454
9.40045
810.027
429.337
4.17786
7.80408
7.78954
7.28138
8.1584
8.33464
8.60503
8.8748
9.0735
9.29314
9.48971
9.69733
9.90833
10.1191
10.3187
10.502
10.6642
10.8026
10.9154
11.0021
11.0632
11.1002
11.1157
11.1123
11.0933
11.0615
11.0197
10.9699
10.9128
10.8475
10.7745
10.7161
10.8646
815.532
413.056
7.295
8.44042
9.11614
9.63922
9.86227
9.96194
9.97089
9.96762
9.99007
10.0053
9.9462
9.77232
9.5845
9.48771
9.47162
9.52285
9.64107
9.8181
10.0351
10.2709
10.5068
10.7285
10.9265
11.0956
11.2343
11.3427
11.4222
11.4728
11.4904
11.4606
11.3302
10.9007
10.4863
818.061
417.819
10.5976
11.2494
11.208
10.797
10.5534
10.4198
10.3444
10.3018
10.2769
10.265
10.2627
10.2619
10.248
10.2151
10.1698
10.1204
10.075
10.0436
10.0372
10.0653
10.134
10.2442
10.392
10.5714
10.7753
10.9941
11.2189
11.4416
11.6579
11.8689
12.0758
12.2278
12.7594
822.551
412.787
8.84887
9.67546
10.1247
10.4189
10.6022
10.7145
10.786
10.8352
10.8717
10.8975
10.9126
10.9172
10.9134
10.9013
10.8787
10.8417
10.786
10.7068
10.5989
10.4605
10.3058
10.1676
10.0746
10.0363
10.0541
10.1324
10.2873
10.5353
10.8582
11.1969
11.489
11.7633
12.7758
824.454
415.722
10.7587
11.5842
11.852
11.8776
11.7584
11.5713
11.3735
11.2119
11.1191
11.101
11.1407
11.2131
11.2904
11.3531
11.3923
11.4053
11.3907
11.3462
11.2701
11.162
11.0252
10.8675
10.7038
10.5544
10.4447
10.3994
10.4389
10.592
10.9129
11.4305
12.0038
12.5233
14.0382
827.556
415.961
12.0167
13.186
13.5706
13.6571
13.5713
13.3292
12.9232
12.3695
11.7323
11.1347
10.722
10.5647
10.6117
10.774
10.972
11.1467
11.2755
11.356
11.3933
11.39
11.3445
11.2529
11.1132
10.9289
10.7164
10.5109
10.355
10.2836
10.3532
10.7257
11.55
12.5868
14.6422
829.911
416.935
11.9279
13.0835
13.6263
13.943
14.1513
14.2789
14.2962
14.1276
13.7124
13.0563
12.2276
11.3726
10.7083
10.3928
10.3861
10.5637
10.8112
11.0401
11.2158
11.3382
11.4147
11.4498
11.4429
11.3909
11.2927
11.1556
10.997
10.8445
10.7485
10.8682
11.6048
13.0572
15.6498
832.456
416.426
11.1765
12.5461
13.3056
13.7362
13.994
14.1598
14.2677
14.318
14.2823
14.113
13.7497
13.1501
12.34
11.4268
10.6511
10.2733
10.2251
10.3427
10.5334
10.7116
10.8474
10.9488
11.025
11.0794
11.1111
11.1178
11.1014
11.0661
11.03
11.1
11.7444
13.5699
16.6369
834.525
417.474
12.1195
13.6218
14.3723
14.7785
14.9709
15.0047
14.9054
14.6871
14.4188
14.2391
14.1879
14.1375
13.9486
13.5142
12.7475
11.6982
10.7839
10.3976
10.3505
10.439
10.5756
10.6929
10.7724
10.8252
10.8639
10.8998
10.9468
11.0185
11.1292
11.3482
12.0739
14.2536
17.5752
835.786
424.038
14.9532
15.8006
15.9993
15.9964
15.881
15.6877
15.4443
15.0876
14.5528
13.9625
13.5683
13.4228
13.3805
13.3174
13.1052
12.5092
11.5911
10.8205
10.5184
10.4543
10.4751
10.5324
10.5957
10.6482
10.6845
10.7073
10.7296
10.7801
10.9094
11.2152
12.0249
14.3857
17.9759
836.846
429.406
15.6054
15.7467
15.6417
15.4063
15.0057
14.6063
14.4379
14.3495
14.1556
13.8613
13.5383
13.2418
12.9686
12.663
12.2263
11.5737
10.9197
10.5774
10.4947
10.4966
10.5388
10.6021
10.6679
10.7237
10.7625
10.7841
10.7953
10.8123
10.8858
11.1498
11.9174
14.2504
18.1818
838.495
430.643
15.5591
15.6515
15.4899
15.0739
14.3686
13.7716
13.6721
13.8051
13.861
13.8277
13.7216
13.5372
13.2562
12.8352
12.1892
11.2736
10.4052
10.1714
10.2639
10.3852
10.5187
10.6513
10.7675
10.8592
10.9265
10.9702
10.9926
11.0008
11.0408
11.3325
12.2833
14.871
18.9007
840.302
432.466
16.221
16.2276
15.9503
15.3422
14.5372
13.9221
13.7011
13.7576
13.8297
13.8652
13.866
13.8281
13.74
13.5752
13.2723
12.711
11.7782
10.6925
10.0727
10.0476
10.1769
10.3499
10.5408
10.7178
10.8668
10.9891
11.09
11.1726
11.2743
11.7153
13.1653
16.4454
20.2383
841.928
433.487
16.1099
15.9639
15.5477
14.8214
14.1254
13.7779
13.6718
13.7015
13.7564
13.794
13.8119
13.8084
13.7779
13.7107
13.5887
13.3711
12.9665
12.2323
11.1715
10.2451
10.0023
10.1068
10.2936
10.5147
10.7271
10.9125
11.0805
11.2556
11.533
12.4012
14.6261
18.1854
21.5658
843.441
433.64
16.301
16.2526
15.9117
15.3017
14.6315
14.1702
13.9233
13.8323
13.8347
13.8728
13.9169
13.9489
13.96
13.9433
13.8905
13.7888
13.6125
13.3028
12.7411
11.7958
10.5754
9.74182
9.65698
9.91316
10.2874
10.6555
10.9684
11.2569
11.6594
12.7903
15.6998
19.3661
22.4051
844.25
430.857
16.2406
16.6322
16.7237
16.6439
16.3685
15.9094
15.3351
14.7474
14.2589
13.9469
13.8263
13.8419
13.9111
13.9812
14.0255
14.0292
13.9794
13.8568
13.6224
13.1882
12.3964
11.1665
9.84311
9.14394
9.2191
9.69348
10.2944
10.9032
11.5886
12.8432
15.9848
19.9461
22.8336
844.537
423.976
15.3001
16.5731
17.1816
17.537
17.7391
17.7634
17.5397
17.0252
16.2355
15.2746
14.3523
13.7334
13.5199
13.5663
13.698
13.8289
13.9283
13.9785
13.9609
13.8477
13.5845
13.0691
12.1741
10.9795
9.92451
9.45438
9.61786
10.1966
11.0444
12.3927
15.4311
19.9536
22.9526
844.858
423.54
15.031
16.3572
16.8433
17.0269
17.1
17.1725
17.3404
17.4957
17.3724
16.7922
15.7399
14.4856
13.5422
13.1658
13.1876
13.3478
13.5174
13.6725
13.8029
13.8878
13.9051
13.8008
13.4522
12.6873
11.528
10.394
9.7576
9.79661
10.4304
11.742
14.5839
19.581
22.8938
845.55
431.924
16.9533
17.3734
17.3844
17.2337
16.9455
16.5214
16.2027
16.2197
16.2979
16.1501
15.542
14.3833
13.2069
12.6126
12.5236
12.6229
12.7568
12.8844
12.9884
13.0435
13.0137
12.8508
12.4885
11.8638
11.0258
10.2109
9.71151
9.6919
10.2101
11.4737
14.2477
19.4424
23.0306
846.712
441.514
18.4753
18.1649
17.8342
17.4721
17.2535
17.0117
16.6189
16.3096
16.0975
15.8348
15.34
14.3397
12.9206
11.8542
11.4763
11.4286
11.4597
11.4929
11.4998
11.4579
11.3437
11.1427
10.8483
10.4649
10.0399
9.68288
9.52702
9.67549
10.2581
11.5057
14.109
19.2525
23.0778
847.705
443.259
17.7663
17.1858
16.6232
16.0938
16.2446
16.6269
16.7191
16.6365
16.4859
16.2765
15.9488
15.3397
14.1851
12.6494
11.4868
10.9691
10.7677
10.6534
10.5429
10.3995
10.2034
9.94872
9.64625
9.32775
9.05443
8.90625
8.96416
9.3067
10.0888
11.5121
14.2516
19.3561
23.3925
849.867
439.683
17.3366
17.0181
16.488
15.7391
15.4895
15.9943
16.4159
16.5842
16.5911
16.4842
16.272
15.9157
15.2849
14.1646
12.6786
11.488
10.8892
10.6087
10.4209
10.2372
10.0229
9.75977
9.43671
9.06082
8.68259
8.39889
8.40579
9.03908
10.5005
12.4228
15.8467
20.8632
24.8261
854.2
437.789
17.896
17.8463
17.4809
16.6812
15.375
15.0098
15.7008
16.2312
16.4858
16.5708
16.5296
16.3602
16.0191
15.3875
14.2888
12.8301
11.6003
10.9311
10.6006
10.3631
10.1269
9.86527
9.54841
9.1452
8.6533
8.14381
8.03486
9.38333
12.4402
15.2401
18.3522
22.6071
26.1688
856.507
438.758
17.6937
17.6237
17.3803
16.884
15.8497
14.6164
14.8534
15.5791
16.089
16.3784
16.5232
16.5566
16.4774
16.2477
15.7581
14.825
13.4494
12.105
11.2464
10.7802
10.451
10.1388
9.78949
9.35699
8.80494
8.1503
7.90959
9.73662
14.3448
19.0136
21.2624
23.7794
26.3245
852.752
438.75
17.3763
17.3677
17.2677
17.0433
16.6539
15.9469
15.2412
15.1817
15.4951
15.9003
16.2437
16.4795
16.6072
16.6241
16.5086
16.1989
15.5638
14.4805
13.1408
11.9917
11.2304
10.7193
10.3018
9.87891
9.38254
8.76623
8.21379
9.00414
13.0941
19.5514
23.9669
25.1354
26.4513
847.726
435.198
17.4252
17.8903
18.1012
18.1923
18.1426
17.8556
17.0783
15.9658
15.125
14.8862
15.1574
15.6249
16.0553
16.3673
16.5529
16.6096
16.5163
16.2119
15.5904
14.6064
13.444
12.3978
11.5905
10.9699
10.4439
9.92702
9.32575
8.74852
9.55024
13.9403
20.8353
24.2855
26.0041
846.344
430.927
16.7964
17.6688
18.0975
18.3753
18.5681
18.6589
18.5501
17.946
16.7324
15.3453
14.4279
14.2907
14.7124
15.2894
15.7814
16.1288
16.3355
16.4
16.2916
15.9457
15.3094
14.4466
13.5338
12.7115
12.0165
11.4408
10.9333
10.3167
9.71316
9.99661
13.0535
20.1494
23.9644
847.949
432.6
16.8201
17.4979
17.7915
17.9549
18.0795
18.2159
18.3752
18.4716
18.2335
17.3722
16.004
14.7051
14.0375
14.1106
14.6003
15.147
15.5827
15.8722
16.015
15.9868
15.7409
15.2607
14.6174
13.9239
13.2569
12.6789
12.1939
11.4518
10.8263
10.9465
9.8005
16.3707
22.4415
853.95
435.419
17.8326
18.4135
18.6258
18.6884
18.6565
18.5663
18.4978
18.5409
18.6772
18.6961
18.2821
17.2339
15.761
14.4391
13.7898
13.8665
14.292
14.7087
14.9626
15.0179
14.8898
14.6154
14.2378
13.7967
13.3259
12.8807
12.2608
11.5311
11.7713
12.6916
12.5664
18.2589
24.6198
862.175
437.057
18.3799
18.8829
19.0446
19.073
19.0147
18.9033
18.7948
18.7165
18.7325
18.8864
19.0435
18.9728
18.4254
17.207
15.4967
13.9191
13.1751
13.2613
13.5885
13.8084
13.8541
13.7456
13.5099
13.1665
12.7254
12.1238
11.2854
12.573
14.755
16.1533
17.743
22.404
27.5235
866.818
440.088
18.7842
19.0067
18.99
18.8696
18.6524
18.4527
18.4867
18.646
18.7231
18.757
18.8729
19.0434
19.1529
19.0881
18.6112
17.2488
14.9969
12.9523
12.2484
12.3952
12.6605
12.8208
12.806
12.5907
12.1526
11.4182
11.1006
14.403
18.1862
19.9577
22.0336
25.1929
28.692
864.273
444.676
19.7254
19.6686
19.4483
19.1079
18.5738
18.0769
18.0657
18.4275
18.7486
18.8556
18.8029
18.7034
18.625
18.562
18.4733
18.2414
17.3515
15.2952
13.1824
12.2184
12.1205
12.2083
12.2244
12.0739
11.6921
11.0745
11.1948
14.9645
19.9836
22.2155
24.3543
26.4678
28.7537
859.68
447.363
20.0507
19.819
19.4873
18.9981
18.2391
17.673
17.7413
18.1488
18.5758
18.8475
18.9378
18.8553
18.5934
18.1404
17.4813
16.576
15.3202
13.7537
12.6865
12.4533
12.479
12.4952
12.426
12.2031
11.7541
11.1252
11.3061
14.8298
20.6535
23.387
24.8629
26.3755
28.0628
855.279
448.915
20.1923
19.8391
19.392
18.7156
17.6264
16.8001
16.9938
17.5091
17.9687
18.3167
18.5297
18.5909
18.4605
18.0208
17.0733
15.6588
14.3427
13.5433
13.2597
13.2551
13.2952
13.2928
13.1928
12.9237
12.4127
11.716
11.6475
14.3647
20.2503
24.6017
25.5875
26.1256
27.1666
850.577
451.409
20.5549
20.1372
19.6602
18.908
17.5816
16.0988
15.9865
16.6478
17.2175
17.5983
17.8327
17.9275
17.8481
17.5121
16.8193
15.8405
14.9797
14.5093
14.345
14.3305
14.3648
14.3848
14.3305
14.125
13.6828
12.983
12.3723
13.2877
17.4012
22.9328
26.1842
26.941
27.6146
848.208
451.205
20.4405
20.1195
19.7517
19.1466
17.9846
16.0804
14.942
15.3061
15.9889
16.5098
16.843
17.007
16.995
16.7918
16.4329
16.0451
15.7472
15.5772
15.5139
15.5211
15.5686
15.6312
15.6805
15.6713
15.5213
15.1372
14.4631
13.7332
14.1282
17.0654
21.5434
25.8054
27.6753
847.642
451.166
20.5211
20.2796
19.9899
19.5079
18.5789
16.7786
14.6005
13.9951
14.4865
15.0943
15.5583
15.8518
15.9819
16.0048
16.0143
16.0436
16.0941
16.1668
16.2634
16.3807
16.5133
16.6567
16.8068
16.9504
17.0315
16.9344
16.5546
15.8824
15.1724
15.1129
16.1834
20.096
23.8636
846.431
450.661
20.5079
20.3903
20.2086
19.855
19.143
17.6705
15.1069
13.1637
12.9451
13.4099
13.9299
14.3908
14.7875
15.1266
15.4141
15.6678
15.9057
16.1361
16.3626
16.5889
16.8195
17.0602
17.3127
17.5282
17.585
17.4832
17.4722
17.6758
17.8418
17.8514
16.8649
15.7041
19.7806
852.117
450.827
20.5601
20.4605
20.3373
20.1068
19.6504
18.653
16.4269
13.4409
12.0558
12.0548
12.4724
13.051
13.6732
14.191
14.6069
14.9658
15.2942
15.6004
15.8873
16.1605
16.4282
16.694
16.9149
17.0834
17.6235
18.6848
19.7754
20.5874
20.9681
20.7399
19.276
19.0669
23.8152
863.89
451.642
20.5187
20.3651
20.2218
19.9799
19.5415
18.7408
17.1426
14.1273
11.7224
11.1739
11.3777
11.8999
12.631
13.2354
13.7214
14.1607
14.559
14.9032
15.1929
15.4438
15.697
16.0889
17.1492
19.1549
20.9713
21.9967
22.5986
23.1546
23.6364
23.7441
23.7417
25.3724
29.1888
870.817
452.297
20.6522
20.5278
20.4052
20.1722
19.717
18.8689
17.3581
14.7247
11.6869
10.5285
10.4701
10.7705
11.4546
12.1926
12.812
13.377
13.8689
14.2695
14.5766
14.8733
15.4293
16.8483
19.7776
23.1316
24.6802
24.7712
24.5713
24.7113
25.4214
26.2309
27.0863
28.464
30.6193
863.879
451.875
20.4675
20.3499
20.2668
20.1022
19.7443
19.0133
17.6187
15.3048
12.1789
10.3656
10.0429
10.0635
10.3527
11.0155
11.7775
12.4759
13.0962
13.6226
14.0654
14.4971
15.1759
16.7481
19.8762
23.9076
26.7345
27.5085
27.2635
26.7976
26.7278
27.1644
27.7859
28.4641
29.2197
850.845
451.135
20.4233
20.3746
20.3333
20.221
19.9568
19.4085
18.3318
16.3655
13.3742
10.6515
9.8101
9.72687
9.78947
10.1179
10.7466
11.4763
12.1937
12.8647
13.4614
13.98
14.5095
15.3753
17.2138
20.3431
23.8703
26.5892
28.2355
28.8696
28.7937
28.5299
28.3804
28.2629
27.9821
843.312
449.576
20.3372
20.3792
20.3889
20.3369
20.1726
19.809
19.0982
17.7471
15.3531
12.137
10.0963
9.60013
9.56489
9.65729
9.98136
10.5388
11.2111
11.9222
12.636
13.3157
13.9304
14.508
15.2305
16.4855
18.5362
21.1058
23.7915
26.3051
28.2373
29.0905
29.0824
28.7709
28.1085
842.925
448.838
20.304
20.3731
20.3992
20.3783
20.2835
20.0631
19.6333
18.8384
17.3295
14.6422
11.5224
9.84374
9.46914
9.48922
9.64477
9.97646
10.4808
11.102
11.8008
12.5477
13.3036
14.0248
14.6849
15.3086
16.0073
16.9607
18.3682
20.3947
23.0097
25.7884
27.5775
28.1015
28.0084
846.583
448.495
20.3965
20.5033
20.5329
20.5066
20.415
20.2389
19.9486
19.4791
18.6457
17.0047
14.1269
11.1833
9.68983
9.33516
9.37903
9.58076
9.93082
10.426
11.0511
11.7892
12.6124
13.4815
14.3536
15.1876
15.9358
16.5464
17.0263
17.5591
18.5588
20.5569
23.5989
25.6454
26.9418
851.996
449.139
20.5526
20.617
20.6182
20.5669
20.4509
20.2601
19.9909
19.6182
19.0758
18.1508
16.2903
13.3531
10.7854
9.59628
9.30637
9.35364
9.56161
9.91839
10.4385
11.1296
11.9754
12.9385
13.9795
15.0729
16.1917
17.2401
18.0366
18.4593
18.5882
18.7647
20.2429
23.2967
26.3518
858.539
450.37
20.7374
20.729
20.6827
20.5882
20.4309
20.2205
19.9807
19.6801
19.25
18.583
17.3903
15.1171
12.2185
10.1976
9.38673
9.20643
9.27322
9.49581
9.90164
10.5436
11.4329
12.5221
13.7845
15.2165
16.7894
18.3469
19.5916
20.3029
20.436
19.9397
19.9032
23.1685
27.3148
864.712
452.193
21.0005
20.8751
20.7544
20.591
20.357
20.0863
19.8423
19.5847
19.2283
18.686
17.7768
16.0979
13.4561
10.9897
9.68319
9.22228
9.11613
9.18555
9.4515
10.0252
10.9773
12.2583
13.8701
15.8344
17.9776
19.9187
21.3296
22.0859
22.1824
21.6241
21.7118
24.7983
28.7861
867.19
453.993
21.1446
20.886
20.6883
20.4517
20.1347
19.8079
19.5799
19.3779
19.0821
18.606
17.821
16.4617
14.2132
11.6732
10.0301
9.33643
9.08249
9.01385
9.13895
9.63811
10.6873
12.2377
14.2706
16.8332
19.4883
21.5567
22.868
23.5276
23.6322
23.4405
24.1357
26.4844
29.4844
864.524
455.235
21.256
20.9268
20.6819
20.3855
19.9792
19.5552
19.2964
19.1394
18.9213
18.5383
17.8829
16.7451
14.8808
12.5156
10.649
9.70612
9.2897
9.07839
9.03689
9.371
10.3812
12.0849
14.3981
17.3956
20.5514
22.7922
23.9641
24.5574
24.8194
25.063
25.9326
27.4267
29.3632
859.26
455.451
21.2497
20.9289
20.6876
20.3774
19.9181
19.3668
18.9833
18.8092
18.6481
18.3551
17.826
16.905
15.4031
13.3825
11.511
10.3653
9.79771
9.47169
9.27801
9.36688
10.0981
11.6375
13.8697
16.892
20.48
23.383
24.7388
25.2805
25.6316
26.0649
26.7869
27.6859
28.8713
854.488
454.693
21.2383
21.0191
20.8392
20.5726
20.1203
19.4447
18.8041
18.487
18.348
18.1572
17.7815
17.0955
15.9293
14.2738
12.553
11.2862
10.5744
10.1602
9.86242
9.70991
9.99068
11.0448
12.8197
15.3283
18.7817
22.4981
24.9379
25.8348
26.1959
26.5665
27.0598
27.6054
28.3499
851.461
453.729
21.2562
21.1525
21.0536
20.8676
20.4975
19.8202
18.9118
18.2563
17.9927
17.8448
17.5964
17.1181
16.2768
14.9934
13.512
12.2637
11.4712
11.0135
10.7071
10.4943
10.507
11.0529
12.219
13.8906
16.3502
19.847
23.4521
25.6707
26.5039
26.8894
27.2163
27.5542
28.0692
850.4
453.126
21.2858
21.2454
21.1998
21.0829
20.8154
20.2625
19.3062
18.2996
17.7518
17.5373
17.349
17.0076
16.3887
15.4023
14.1593
13.001
12.1917
11.7059
11.39
11.1367
11.0152
11.3954
12.3721
13.5844
15.0245
17.2034
20.4579
23.8468
25.9109
26.7974
27.2318
27.5521
28.0485
851.348
453.428
21.3537
21.2898
21.2425
21.147
20.9371
20.5047
19.6853
18.5377
17.6587
17.2543
17.0353
16.7528
16.2635
15.4704
14.4147
13.3442
12.523
12.0108
11.7076
11.5072
11.5541
12.2171
13.3517
14.5083
15.5067
16.5679
18.3198
21.2101
24.2161
25.9915
26.8653
27.4151
28.1605
854
454.289
21.4245
21.2825
21.1942
21.0758
20.8661
20.4866
19.8201
18.7773
17.7302
17.1111
16.7862
16.4807
16.0204
15.2975
14.3179
13.2711
12.4024
11.8081
11.4119
11.3243
11.9791
13.3811
14.9158
16.1821
17.0743
17.6881
18.3579
19.8073
22.4652
24.8864
26.3204
27.2427
28.412
857.461
455.556
21.5291
21.2762
21.1218
20.949
20.6896
20.2854
19.6776
18.7814
17.7433
16.9859
16.5424
16.1737
15.6863
14.956
13.9617
12.8535
11.855
11.091
10.7187
11.2838
13.155
15.2611
16.9824
18.206
18.9894
19.4503
19.7223
20.1884
21.7581
24.1902
26.0106
27.2596
28.8137
860.556
457.054
21.6042
21.2145
20.9793
20.7344
20.399
19.9391
19.3533
18.5875
17.6697
16.8893
16.3564
15.9019
15.3402
14.5368
13.4553
12.2032
10.9382
9.76579
9.57432
11.9254
14.9378
17.2858
18.919
20.0092
20.7162
21.1441
21.3418
21.4471
22.1137
24.0118
25.9497
27.4091
29.2234
862.927
458.649
21.6189
21.0815
20.7555
20.4156
19.9653
19.4143
18.8281
18.1708
17.4109
16.7012
16.1388
15.6136
14.9688
14.0712
12.879
11.4321
9.80408
8.53111
10.0794
13.9392
17.0761
19.1793
20.5554
21.474
22.1127
22.5413
22.7716
22.8218
23.0038
24.1853
26.0002
27.5912
29.6172
865.375
459.908
21.5462
20.9028
20.5058
20.0675
19.4786
18.8154
18.2306
17.6862
17.0937
16.4947
15.9414
15.3628
14.6346
13.6381
12.3204
10.6467
8.63056
7.45519
10.418
15.2049
18.4476
20.413
21.6576
22.5003
23.1143
23.5621
23.8486
23.9486
24.0008
24.7719
26.413
28.0377
30.2199
868.415
460.077
21.3734
20.7244
20.3073
19.7983
19.071
18.2526
17.6174
17.1561
16.711
16.2283
15.7096
15.1028
14.3066
13.2207
11.7775
9.87982
7.60259
7.1364
11.6508
16.6362
19.8
21.518
22.5685
23.3065
23.8724
24.3174
24.647
24.8473
25.0775
25.9255
27.4237
28.9117
31.0383
870.286
459.049
21.1943
20.6495
20.2781
19.7722
18.9781
17.9855
17.1893
16.7302
16.3942
16.0208
15.5595
14.9631
14.1464
13.0168
11.4987
9.45138
7.09492
7.31691
11.2308
17.5897
20.8183
22.3235
23.276
23.991
24.55
24.994
25.386
25.7965
26.3819
27.3923
28.6198
29.8113
31.5839
868.18
457.017
21.0421
20.6637
20.3861
19.9657
19.2278
18.1184
17.0043
16.3457
16.0404
15.79
15.446
14.9418
14.2023
13.1283
11.6284
9.53527
6.68504
5.36526
10.1979
16.9012
21.5855
23.1003
23.8991
24.589
25.2459
25.7774
26.2469
26.8506
27.6527
28.5824
29.4505
30.2746
31.4525
862.312
455.267
21.0084
20.757
20.5616
20.2542
19.6801
18.6669
17.3105
16.2146
15.7234
15.5366
15.3386
14.9944
14.4278
13.5431
12.2423
10.3738
7.62038
6.96181
6.09054
13.7751
20.3301
23.5899
24.4361
24.9846
25.7031
26.5035
27.1561
27.8052
28.5521
29.2505
29.8038
30.2743
30.8122
856.03
454.087
20.9745
20.7735
20.6137
20.3789
19.9639
19.2074
17.9568
16.4864
15.5352
15.2399
15.1652
15.019
14.6875
14.0925
13.1317
11.6912
9.57021
6.5874
5.85006
7.7633
16.2883
22.2436
24.9188
25.492
25.9038
26.7035
27.636
28.3809
28.9894
29.4632
29.787
29.9878
30.0679
851.827
454.274
21.0396
20.7804
20.5828
20.335
19.973
19.4256
18.5293
17.1495
15.7575
15.0804
14.9766
14.982
14.8753
14.5697
13.9887
13.0293
11.5671
9.36616
6.31796
6.03795
8.52765
16.7531
23.01
25.813
26.4121
26.752
27.5035
28.3328
28.9244
29.2924
29.4945
29.5561
29.446
849.973
455.253
21.079
20.6966
20.4227
20.1069
19.6953
19.2009
18.5763
17.6122
16.2786
15.2333
14.9165
14.9579
15.005
14.9242
14.6496
14.1143
13.2188
11.8315
9.71849
6.65344
7.73746
9.65691
15.8101
22.9781
26.3499
27.1751
27.4957
28.0528
28.5879
28.9331
29.1055
29.1413
29.0525
849.799
456.625
21.0905
20.5736
20.2249
19.8384
19.3542
18.8257
18.2918
17.6304
16.6771
15.641
15.1102
15.0748
15.1789
15.2322
15.1633
14.9243
14.4539
13.6572
12.4109
10.5063
7.63373
4.43341
6.62374
15.0545
22.3219
26.4169
27.5776
27.942
28.3191
28.6184
28.7908
28.8579
28.8926
850.722
456.974
20.8992
20.3193
19.9376
19.5091
18.9732
18.4129
17.9071
17.3963
16.7598
16.005
15.4671
15.3494
15.4462
15.5611
15.6121
15.559
15.3607
14.9598
14.2751
13.1924
11.5362
9.01524
5.73871
6.78018
13.8541
21.3954
26.0544
27.4521
27.894
28.2036
28.4146
28.5661
28.8106
852.294
456.024
20.656
20.1358
19.7878
19.3637
18.7855
18.1484
17.6068
17.1515
16.6908
16.195
15.7916
15.6599
15.741
15.8849
16.008
16.0724
16.0484
15.897
15.5684
14.9911
14.0606
12.6249
10.4535
7.63036
7.24791
13.1198
20.7643
25.6184
27.035
27.5368
27.8656
28.1675
28.6795
853.737
453.994
20.4616
20.1063
19.8565
19.5054
18.9375
18.1786
17.4619
16.936
16.5391
16.1953
15.9349
15.8508
15.9423
16.1153
16.2955
16.4472
16.5478
16.5697
16.4788
16.2266
15.7471
14.9415
13.6694
11.7414
9.20856
8.43433
13.5494
21.0818
25.6685
26.9518
27.5091
27.9351
28.6551
854.326
451.978
20.4168
20.2451
20.1151
19.8915
19.4501
18.6881
17.7378
16.9282
16.3979
16.0734
15.8882
15.8545
15.9735
16.1833
16.4191
16.647
16.8494
17.0076
17.0982
17.0867
16.9253
16.5491
15.8608
14.73
13.0093
10.8502
10.3875
15.1458
22.1404
26.1312
27.2994
27.9826
28.875
854.621
450.593
20.4426
20.3901
20.3422
20.2296
19.9662
19.4106
18.4762
17.384
16.5038
15.9719
15.7245
15.6918
15.8315
16.0794
16.3693
16.6655
16.9537
17.2218
17.4566
17.636
17.7263
17.6804
17.4292
16.8862
15.9427
14.5097
12.8391
12.7353
16.9013
23.0285
26.2774
27.6947
28.8726
855.862
450.397
20.5476
20.5043
20.4591
20.3712
20.1969
19.8573
19.2061
18.1751
17.0379
16.1621
15.6749
15.5232
15.6211
15.8757
16.2013
16.5493
16.9018
17.2502
17.59
17.911
18.1922
18.3993
18.4792
18.3671
17.9909
17.2755
16.1768
14.9209
14.8437
18.2932
23.7121
26.3229
28.2575
858.675
451.627
20.7581
20.6171
20.5076
20.3644
20.1537
19.8683
19.4468
18.7256
17.6896
16.6379
15.8802
15.5191
15.4959
15.7002
16.0209
16.3887
16.7748
17.1689
17.573
17.9866
18.3996
18.7875
19.1049
19.2964
19.3023
19.0654
18.5356
17.6841
16.6339
16.4755
20.5566
24.5546
27.8032
862.509
454.004
20.9934
20.6856
20.4868
20.2634
19.9649
19.6303
19.2777
18.7806
18.0054
17.0434
16.1942
15.6734
15.5115
15.6275
15.9056
16.2612
16.6536
17.0669
17.5048
17.9732
18.4697
18.9773
19.4557
19.8509
20.1062
20.1709
19.9942
19.5355
18.7196
17.5949
19.1939
23.9108
28.1843
865.603
456.506
21.0815
20.5889
20.2993
19.9956
19.6169
19.2374
18.8991
18.5081
17.9465
17.2016
16.4448
15.8968
15.6551
15.6894
15.9051
16.2203
16.5906
16.9977
17.4452
17.943
18.4951
19.0902
19.6884
20.2297
20.6492
20.8913
20.9139
20.6791
20.1
19.0979
19.9801
24.5441
28.9211
866.343
457.575
20.8928
20.2883
19.9366
19.5613
19.1203
18.7343
18.4293
18.106
17.6796
17.1292
16.5373
16.0592
15.8043
15.7853
15.9408
16.2059
16.5402
16.9273
17.3707
17.8828
18.4735
19.1371
19.834
20.4964
21.048
21.4237
21.5769
21.4676
21.0338
20.3869
21.5427
25.5107
29.3508
864.591
456.541
20.5459
19.9633
19.6061
19.187
18.676
18.248
17.9586
17.6958
17.3728
16.9665
16.518
16.125
15.8827
15.828
15.9313
16.1467
16.4413
16.8014
17.2317
17.7473
18.3643
19.0843
19.8681
20.6396
21.3095
21.8036
22.0701
22.0694
21.7805
21.5289
22.9987
26.188
29.315
861.651
454.387
20.2764
19.8042
19.492
19.0828
18.5041
17.9369
17.5676
17.3204
17.0731
16.7725
16.4277
16.0982
15.8643
15.7782
15.8356
16.0061
16.2632
16.5954
17.0088
17.5216
18.1567
18.9247
19.7895
20.6672
21.4549
22.0679
22.4503
22.5669
22.4494
22.5589
24.1371
26.5499
29.0103
858.938
452.852
20.1974
19.7995
19.5284
19.1696
18.5971
17.8851
17.3322
17.0091
16.7823
16.5497
16.2808
15.9999
15.7686
15.6492
15.6607
15.7874
16.0078
16.3114
16.7045
17.2082
17.854
18.6637
19.6062
20.5892
21.4958
22.2329
22.7422
22.9958
23.0736
23.4721
24.959
26.7587
28.7079
857.006
452.573
20.1804
19.7568
19.4758
19.1434
18.6456
17.9453
17.2571
16.8028
16.5325
16.3202
16.0978
15.8555
15.6292
15.4792
15.4439
15.5261
15.7112
15.9888
16.3628
16.8554
17.5062
18.3507
19.367
20.4546
21.4795
22.34
22.9804
23.3858
23.671
24.2807
25.5768
26.9323
28.513
855.742
453.296
20.1728
19.652
19.3061
18.9211
18.4407
17.8541
17.2044
16.6845
16.3554
16.1285
15.9224
15.704
15.4839
15.3083
15.2248
15.2567
15.4011
15.6496
16.0028
16.4829
17.137
18.0144
19.1046
20.2985
21.4412
22.4225
23.1936
23.7574
24.2449
24.9876
26.0675
27.1027
28.4073
854.773
454.175
20.1645
19.5644
19.1537
18.6714
18.1057
17.5715
17.0506
16.5823
16.2405
15.9971
15.7893
15.5788
15.3605
15.1638
15.0357
15.0165
15.1189
15.3387
15.6711
16.1353
16.7837
17.682
18.8393
20.1414
21.4046
22.5047
23.4023
24.1197
24.7806
25.5811
26.4607
27.2606
28.3433
853.874
454.573
20.1434
19.5374
19.1115
18.562
17.8699
17.2739
16.8257
16.4514
16.1495
15.9127
15.7054
15.4966
15.275
15.0568
14.8823
14.8035
14.8532
15.0383
15.3495
15.8007
16.444
17.3559
18.5701
19.9788
21.3664
22.5849
23.6013
24.4531
25.2387
26.0357
26.7507
27.3782
28.277
852.961
454.257
20.0909
19.5458
19.1563
18.6044
17.8191
17.0892
16.6107
16.2923
16.0472
15.8419
15.651
15.4524
15.2346
15.0047
14.7937
14.6582
14.6501
14.7917
15.0722
15.4979
16.1178
17.018
18.2655
19.7768
21.303
22.6512
23.7831
24.7428
25.5976
26.3524
26.9429
27.4472
28.1994
852.132
453.465
20.0519
19.6054
19.2843
18.7902
17.9818
17.0876
16.4685
16.1243
15.9141
15.751
15.5937
15.4198
15.2178
14.9883
14.7507
14.559
14.4838
14.5735
14.8241
15.2298
15.8233
16.6854
17.9177
19.4944
21.1587
22.6495
23.8985
24.9457
25.8317
26.5341
27.0382
27.4606
28.1093
851.475
452.445
20.0298
19.6909
19.454
19.0664
18.3382
17.3349
16.4897
16.0065
15.7698
15.6348
15.5195
15.3865
15.2199
15.0154
14.7791
14.551
14.4078
14.4272
14.6281
15.0007
15.5592
16.3652
17.537
19.1244
20.9113
22.5606
23.9353
25.0584
25.9574
26.6163
27.0665
27.4407
28.0302
851.091
451.708
20.0224
19.7376
19.5591
19.2844
18.7249
17.7765
16.7458
16.0318
15.6733
15.516
15.4279
15.3382
15.2157
15.0469
14.8292
14.586
14.3865
14.3325
14.48
14.8262
15.3582
16.1006
17.165
18.6787
20.5277
22.3352
23.8518
25.0581
25.9768
26.615
27.0409
27.3959
27.9668
850.965
451.797
19.996
19.6448
19.4484
19.2337
18.8545
18.1287
17.1256
16.236
15.6975
15.4516
15.3518
15.2901
15.2114
15.0894
14.9127
14.6874
14.458
14.3254
14.39
14.6897
15.2039
15.9089
16.8727
18.2502
20.07
22.0016
23.6709
24.9735
25.927
26.5682
26.9935
27.352
27.9371
851.09
452.754
19.9068
19.3715
19.071
18.8349
18.5785
18.1051
17.3367
16.4845
15.8421
15.4869
15.3305
15.261
15.2031
15.1164
14.981
14.7925
14.5731
14.4002
14.388
14.6224
15.1068
15.786
16.6692
17.8906
19.5827
21.5597
23.3765
24.7971
25.811
26.4806
26.9261
27.3066
27.9291
851.367
453.602
19.6628
18.926
18.4978
18.2048
18.0265
17.7456
17.2486
16.6055
16.0117
15.606
15.3889
15.2887
15.2302
15.161
15.0547
14.8996
14.7016
14.5122
14.4395
14.6083
15.0636
15.7369
16.5796
17.6722
19.1872
21.1081
23.028
24.5738
25.6669
26.3831
26.863
27.2777
27.9533
851.791
453.17
19.2485
18.4194
17.9222
17.5817
17.4426
17.2897
16.9962
16.5739
16.1108
15.7196
15.4595
15.3188
15.2465
15.1874
15.1071
14.9874
14.824
14.6422
14.5266
14.6213
15.0335
15.7108
16.5495
17.5601
18.8974
20.6745
22.6234
24.2903
25.4851
26.2681
26.7965
27.2558
27.9947
852.285
451.469
18.8867
18.1349
17.6464
17.2196
16.9959
16.8888
16.7276
16.4648
16.1277
15.7821
15.4981
15.3118
15.211
15.1511
15.0907
15.0046
14.8818
14.7324
14.6121
14.6526
15.0142
15.6994
16.5713
17.567
18.7847
20.3879
22.2782
24.0193
25.3099
26.1649
26.7468
27.2546
28.0602
852.856
449.841
18.8791
18.2964
17.857
17.3073
16.8044
16.5724
16.4579
16.3005
16.065
15.7773
15.49
15.2602
15.1173
15.0433
14.9956
14.9395
14.8556
14.7434
14.6361
14.641
14.95
15.641
16.5688
17.5988
18.7626
20.2192
22.0007
23.7664
25.1411
26.0702
26.7082
27.266
28.1366
853.404
449.353
19.1643
18.7221
18.3599
17.8034
17.0189
16.4517
16.2307
16.1124
15.9535
15.7282
15.4586
15.1926
14.9865
14.8666
14.8101
14.7762
14.7343
14.673
14.6047
14.6048
14.8661
15.553
16.5588
17.6798
18.8711
20.2503
21.911
23.6354
25.0452
26.0235
26.7039
27.3015
28.2237
853.883
449.972
19.4328
19.0517
18.7655
18.3056
17.4844
16.6062
16.1456
15.9723
15.8454
15.673
15.4429
15.1745
14.9141
14.7171
14.605
14.5545
14.528
14.503
14.4772
14.5021
14.7499
15.4356
16.5128
17.7362
18.9929
20.3565
21.9342
23.6008
25.0152
26.0204
26.7277
27.3518
28.3054
854.177
450.952
19.5346
19.1368
18.8869
18.5115
17.8138
16.8794
16.2227
15.9399
15.7925
15.6375
15.4343
15.1805
14.8979
14.6347
14.4459
14.3483
14.3133
14.3077
14.3138
14.3643
14.6113
15.3078
16.4753
17.8365
19.2053
20.6058
22.1329
23.7211
25.0919
26.0835
26.7895
27.4172
28.3728
854.229
451.334
19.4483
19.0124
18.7718
18.4509
17.8792
17.0635
16.3608
15.9965
15.8167
15.6639
15.477
15.2387
14.9502
14.6365
14.3551
14.1676
14.0853
14.0766
14.1087
14.195
14.4592
15.1593
16.3945
17.8844
19.3731
20.8409
22.363
23.8978
25.2183
26.179
26.8673
27.4824
28.4128
853.995
450.726
19.1907
18.7459
18.5284
18.2748
17.8225
17.1478
16.4819
16.0703
15.8575
15.7012
15.5275
15.3094
15.0374
14.7157
14.3779
14.0953
13.9274
13.874
13.8994
14.0025
14.2869
15.0022
16.3092
17.9503
19.5882
21.146
22.6764
24.1523
25.3984
26.3031
26.9541
27.5381
28.4179
853.543
449.529
18.8232
18.377
18.1925
18.0339
17.7313
17.2011
16.5939
16.1545
15.9156
15.7605
15.6036
15.4073
15.1549
14.8387
14.4691
14.1035
13.8345
13.7127
13.7142
13.819
14.1036
14.801
16.1267
17.8836
19.6691
21.3363
22.9089
24.3615
25.5535
26.4093
27.0238
27.5736
28.3943
852.985
448.486
18.4529
17.9623
17.7776
17.7017
17.5696
17.2133
16.6851
16.2148
15.9311
15.7693
15.6345
15.4743
15.264
14.987
14.6329
14.225
13.8488
13.6127
13.5493
13.6383
13.9254
14.6087
15.9383
17.7975
19.7436
21.5349
23.1499
24.5723
25.7031
26.5052
27.0792
27.5905
28.348
852.426
447.942
18.1708
17.592
17.3492
17.2849
17.2939
17.1418
16.763
16.3148
15.9852
15.7944
15.6635
15.5281
15.3548
15.1223
14.8128
14.424
14.0035