/*--------------------------------*- C++ -*----------------------------------*\
| =========                 |                                                 |
| \\      /  F ield         | OpenFOAM: The Open Source CFD Toolbox           |
|  \\    /   O peration     | Version:  v1906                                 |
|   \\  /    A nd           | Web:      www.OpenFOAM.com                      |
|    \\/     M anipulation  |                                                 |
\*---------------------------------------------------------------------------*/
FoamFile
{
    version     2.0;
    format      ascii;
    class       volScalarField;
    location    "42";
    object      nut;
}
// * * * * * * * * * * * * * * * * * * * * * * * * * * * * * * * * * * * * * //

dimensions      [0 2 -1 0 0 0 0];


internalField   nonuniform List<scalar> 
78750
(
0.00042203
0.000921398
0.000612629
0.000180945
2.70291e-05
2.44206e-05
2.37005e-05
2.66345e-05
2.66198e-05
3.02664e-05
3.18613e-05
3.55467e-05
3.78631e-05
4.12885e-05
4.35712e-05
4.5389e-05
4.65157e-05
4.66838e-05
4.65513e-05
4.69623e-05
4.88699e-05
5.25127e-05
5.35533e-05
5.266e-05
5.18825e-05
5.11846e-05
5.05162e-05
4.9835e-05
4.91052e-05
4.82689e-05
4.72307e-05
4.58246e-05
4.39462e-05
9.40474e-06
3.21709e-07
3.79541e-05
8.19445e-06
3.27482e-05
3.6537e-06
4.67987e-05
3.78855e-05
3.80927e-05
3.82839e-05
3.92343e-05
4.02425e-05
4.2145e-05
4.43675e-05
4.74448e-05
5.13745e-05
5.65855e-05
6.34814e-05
7.25147e-05
8.41217e-05
9.82279e-05
0.000113706
0.000128956
0.000143709
0.000153822
0.00015272
0.000151534
0.000150284
0.000148347
0.000126701
0.000115319
0.000111497
0.000107345
8.17775e-05
2.75977e-05
6.2686e-06
1.56091e-06
6.79104e-07
1.49097e-05
2.18212e-05
3.30287e-05
4.31765e-05
6.06439e-05
6.422e-05
6.06302e-05
5.6859e-05
5.46092e-05
5.33226e-05
5.25515e-05
5.19169e-05
5.12575e-05
5.0508e-05
4.97411e-05
4.91133e-05
4.88792e-05
4.96016e-05
5.27008e-05
6.08455e-05
7.67709e-05
9.74954e-05
0.000109594
0.000101059
7.67301e-05
6.06941e-05
5.92305e-05
7.03023e-05
9.34368e-05
8.93974e-05
4.66062e-05
1.66005e-05
6.68744e-06
2.70905e-06
5.85016e-07
7.4786e-06
1.62475e-05
2.80369e-05
4.43941e-05
6.0496e-05
7.19131e-05
7.77337e-05
8.0206e-05
8.1461e-05
8.29215e-05
8.5508e-05
8.976e-05
9.58757e-05
0.000103672
0.000112631
0.000121838
0.000129863
0.000135439
0.000137732
0.00013417
0.000122636
0.000105192
8.06613e-05
5.70305e-05
4.54015e-05
4.39389e-05
4.60459e-05
3.14643e-05
2.3438e-05
3.79559e-05
5.72176e-05
1.37355e-05
7.59249e-06
3.94514e-06
3.32457e-06
1.74903e-05
5.05703e-05
0.000106642
0.00012183
8.93968e-05
6.3943e-05
5.26035e-05
4.92902e-05
5.11518e-05
5.76906e-05
6.93873e-05
8.65621e-05
0.000107614
0.000128156
0.000144419
0.000156616
0.000168042
0.000178158
0.000176721
0.000175578
0.000174826
0.000174266
0.000153344
0.000154735
0.000172207
0.0001741
0.000145131
8.97762e-05
5.53377e-05
4.87918e-05
4.38187e-05
1.26005e-05
9.27607e-06
5.08448e-06
5.65414e-06
3.27671e-05
0.000112185
9.79719e-05
5.3297e-05
3.01199e-05
2.33118e-05
2.57881e-05
4.01275e-05
7.75054e-05
0.000121932
0.000152305
0.000166625
0.000167613
0.000168484
0.000169186
0.000156273
0.000138955
0.000126204
0.000119049
0.000115364
0.000110677
9.83026e-05
7.48741e-05
5.02377e-05
3.80232e-05
3.99795e-05
5.58521e-05
7.08611e-05
7.96001e-05
0.000118226
4.77686e-05
1.03105e-05
1.0141e-05
5.80615e-06
6.36516e-06
3.63295e-05
0.000108724
9.14339e-05
4.60818e-05
2.84081e-05
2.71773e-05
3.6772e-05
5.277e-05
6.72497e-05
7.76647e-05
8.53807e-05
9.10682e-05
9.43417e-05
9.44934e-05
9.05556e-05
8.22914e-05
7.17856e-05
6.31518e-05
5.9118e-05
5.91604e-05
6.15034e-05
6.44747e-05
6.99367e-05
8.21464e-05
0.000100598
0.000105963
7.68513e-05
5.72821e-05
6.58839e-05
6.49723e-05
1.74221e-05
8.396e-06
1.1822e-05
6.37616e-06
5.90757e-06
3.63735e-05
0.000112832
0.000108067
6.03077e-05
3.30438e-05
2.41206e-05
2.6338e-05
4.00543e-05
6.6585e-05
9.65202e-05
0.000113849
0.000118311
0.000117375
0.00011333
0.000103844
8.69709e-05
6.57717e-05
4.89121e-05
4.25711e-05
4.925e-05
7.38377e-05
0.000114566
0.000141849
0.000139709
0.000137449
0.000103082
5.92123e-05
5.83718e-05
0.000100476
5.509e-05
1.23063e-05
6.93236e-06
1.18147e-05
6.80802e-06
5.67451e-06
3.05568e-05
8.52328e-05
0.000116865
0.000112118
6.60634e-05
3.34553e-05
2.25317e-05
2.13877e-05
2.57346e-05
3.44904e-05
4.59302e-05
5.44574e-05
5.48766e-05
4.98807e-05
4.57971e-05
4.73474e-05
5.70483e-05
7.34745e-05
9.12725e-05
0.000111381
0.000137142
0.000138294
0.00013572
0.000132984
0.000106596
5.9024e-05
5.25083e-05
8.17938e-05
9.01181e-05
2.21228e-05
9.12974e-06
7.44684e-06
1.50028e-05
7.46585e-06
5.25127e-06
2.76178e-05
7.44362e-05
0.000118547
0.000136288
0.000133609
9.60076e-05
5.19327e-05
3.35328e-05
2.80064e-05
2.75382e-05
3.03245e-05
3.64228e-05
4.57175e-05
5.53426e-05
5.88987e-05
5.38905e-05
4.54454e-05
3.9559e-05
4.1722e-05
6.15733e-05
0.000109791
0.00012186
0.000114183
9.26099e-05
6.48578e-05
3.71806e-05
2.6199e-05
3.19989e-05
5.49335e-05
1.10204e-05
6.29652e-06
6.93224e-06
1.71787e-05
8.07202e-06
4.98756e-06
2.42843e-05
7.18273e-05
0.000126636
0.000142351
0.00013566
0.000124413
0.000107897
7.80014e-05
5.24874e-05
3.93892e-05
3.3001e-05
2.98455e-05
2.90342e-05
3.08155e-05
3.6339e-05
4.75451e-05
6.57044e-05
8.65483e-05
9.7741e-05
9.26796e-05
8.15629e-05
7.40424e-05
6.95422e-05
6.23548e-05
5.02857e-05
3.58515e-05
2.19375e-05
1.34853e-05
1.22344e-05
4.99793e-06
4.88502e-06
7.5945e-06
2.27693e-05
8.62838e-06
4.59423e-06
2.00747e-05
5.53372e-05
0.000107764
0.00013318
0.000129775
0.000111226
9.23177e-05
8.22385e-05
7.83556e-05
7.4432e-05
6.71815e-05
5.75109e-05
4.80787e-05
4.04657e-05
3.51992e-05
3.26713e-05
3.37463e-05
4.01227e-05
5.44281e-05
7.93187e-05
0.000112101
0.000134032
0.000125893
9.92676e-05
7.29304e-05
5.21754e-05
3.48556e-05
2.08851e-05
1.21524e-05
4.26436e-06
3.43042e-06
7.15181e-06
2.55431e-05
9.03258e-06
5.44368e-06
2.45904e-05
7.43737e-05
0.000134998
0.000148834
0.000138863
0.000119182
9.41897e-05
7.08067e-05
5.62225e-05
5.14408e-05
5.56315e-05
6.87096e-05
8.55425e-05
8.74818e-05
7.00166e-05
5.21419e-05
4.09004e-05
3.57935e-05
3.70179e-05
4.73118e-05
7.07968e-05
0.00010316
0.000123842
0.000121481
0.000102906
7.86709e-05
5.54081e-05
3.628e-05
2.17404e-05
8.30646e-06
3.02623e-06
7.05289e-06
2.801e-05
9.39243e-06
7.27338e-06
4.25165e-05
0.000120057
0.000145213
0.000147375
0.000142362
0.00013297
0.000120855
0.000104017
8.11281e-05
6.00857e-05
4.80972e-05
4.63967e-05
5.5512e-05
7.55126e-05
9.64607e-05
9.36312e-05
6.91738e-05
4.83016e-05
3.67027e-05
3.28125e-05
3.73629e-05
5.44397e-05
8.45004e-05
0.000108523
0.000112732
0.000101681
8.0704e-05
5.78657e-05
3.70126e-05
1.33116e-05
2.92457e-06
6.86654e-06
3.0118e-05
9.63141e-06
7.6773e-06
4.4724e-05
0.000108103
0.000141206
0.000152919
0.000150641
0.000137309
0.000118861
0.000102179
8.91285e-05
7.66919e-05
6.32111e-05
5.23142e-05
4.83353e-05
5.34321e-05
6.86738e-05
9.11375e-05
0.000105371
9.13848e-05
6.20986e-05
4.16335e-05
3.24132e-05
3.22118e-05
4.25733e-05
6.41076e-05
8.21032e-05
8.56315e-05
7.83538e-05
6.48482e-05
4.86134e-05
1.25154e-05
3.53893e-06
7.52085e-06
3.64117e-05
9.83627e-06
5.96867e-06
2.72417e-05
7.42424e-05
0.000123172
0.000144042
0.000146315
0.000137053
0.000119585
9.87356e-05
8.05922e-05
6.82458e-05
6.07736e-05
5.53632e-05
5.03418e-05
4.71945e-05
4.87802e-05
5.72519e-05
7.34828e-05
9.39906e-05
0.000104041
8.52223e-05
5.54644e-05
3.87317e-05
3.45724e-05
4.15623e-05
5.93396e-05
7.16132e-05
6.647e-05
5.52351e-05
4.28934e-05
9.86545e-06
3.81443e-06
9.68084e-06
5.217e-05
9.94282e-06
4.54309e-06
1.98203e-05
5.75949e-05
0.00012465
0.000157387
0.000155348
0.000141392
0.000124831
0.000108994
9.37362e-05
7.93182e-05
6.73925e-05
5.86675e-05
5.30192e-05
5.06142e-05
5.11341e-05
5.37679e-05
6.00708e-05
7.31637e-05
9.22968e-05
0.000105069
9.14009e-05
6.11225e-05
4.33072e-05
4.00475e-05
4.98022e-05
7.03713e-05
7.85164e-05
6.63612e-05
4.9282e-05
1.08658e-05
3.89424e-06
1.12849e-05
7.00818e-05
9.97221e-06
5.32675e-06
2.1281e-05
6.3409e-05
0.000140914
0.000167183
0.000153019
0.000127009
0.000101087
8.05955e-05
6.72319e-05
6.24098e-05
6.63013e-05
6.91644e-05
5.85018e-05
4.67107e-05
4.30989e-05
4.73057e-05
5.06207e-05
5.06874e-05
5.44761e-05
6.07882e-05
6.42661e-05
6.33402e-05
6.35595e-05
7.13793e-05
8.70854e-05
9.67781e-05
9.03434e-05
7.43251e-05
4.54337e-05
8.22605e-06
5.41311e-06
1.6012e-05
0.000100021
1.00963e-05
7.25751e-06
3.37116e-05
0.000103138
0.000159437
0.000163019
0.000145877
0.00011944
9.1537e-05
6.74158e-05
4.90145e-05
3.93562e-05
4.34116e-05
6.59984e-05
8.54339e-05
6.17814e-05
4.15802e-05
3.46594e-05
3.81798e-05
4.94456e-05
5.90359e-05
6.83414e-05
7.58255e-05
7.60277e-05
7.53415e-05
7.96299e-05
8.61088e-05
8.73052e-05
7.97653e-05
6.30192e-05
3.0379e-05
7.36055e-06
6.48265e-06
2.07029e-05
0.000107503
1.02455e-05
8.5113e-06
5.40755e-05
0.000146301
0.000149243
0.000135717
0.000112555
8.61854e-05
6.55978e-05
5.27232e-05
4.48531e-05
4.09926e-05
4.69983e-05
7.72313e-05
0.000145815
0.00018619
0.000130557
7.47595e-05
4.9927e-05
3.99868e-05
3.73866e-05
4.12266e-05
5.06899e-05
6.38123e-05
7.87571e-05
9.18003e-05
9.77607e-05
9.44354e-05
8.30741e-05
6.44002e-05
3.21857e-05
7.93425e-06
6.10446e-06
2.03876e-05
0.000104655
1.02226e-05
7.3241e-06
4.12918e-05
0.000113449
0.000136392
0.000127196
9.69664e-05
6.82125e-05
5.19899e-05
4.68713e-05
5.05752e-05
6.06267e-05
7.30514e-05
8.69943e-05
0.000103951
0.000117995
0.000118854
0.000101256
7.29442e-05
5.15896e-05
4.18263e-05
4.14963e-05
4.93079e-05
6.35754e-05
7.98027e-05
9.18324e-05
9.59084e-05
9.1733e-05
8.04115e-05
6.15859e-05
2.96739e-05
7.96587e-06
6.85079e-06
2.19836e-05
0.000102791
1.03189e-05
6.64358e-06
3.57757e-05
0.000114661
0.000148104
0.00014247
0.000121255
9.56104e-05
7.35551e-05
5.79739e-05
4.93442e-05
4.74982e-05
5.18426e-05
6.15228e-05
7.57487e-05
9.174e-05
0.000101474
9.65272e-05
7.83634e-05
5.77979e-05
4.40572e-05
4.00004e-05
4.58945e-05
5.8276e-05
6.86046e-05
7.39375e-05
7.56555e-05
7.36146e-05
6.65636e-05
5.22497e-05
2.66332e-05
7.62077e-06
7.27716e-06
2.33998e-05
0.00010313
1.04084e-05
7.39455e-06
3.86586e-05
0.000112713
0.000152613
0.000152735
0.000139821
0.000124309
0.000108379
8.87305e-05
6.67937e-05
5.00959e-05
4.21736e-05
4.20195e-05
4.83198e-05
6.12006e-05
8.11641e-05
0.000105122
0.000121277
0.0001141
8.63983e-05
5.99688e-05
4.58508e-05
4.40661e-05
5.42433e-05
6.86476e-05
7.28471e-05
6.8568e-05
6.05774e-05
4.80123e-05
2.45844e-05
7.5783e-06
6.98406e-06
2.24895e-05
0.000106444
1.04327e-05
6.8019e-06
3.23348e-05
0.000101215
0.000145277
0.000140455
0.000112148
8.59431e-05
7.46498e-05
7.64601e-05
8.2396e-05
7.77469e-05
6.31541e-05
5.09935e-05
4.61846e-05
4.913e-05
6.00134e-05
7.88449e-05
0.000103422
0.000125985
0.00013288
0.000116128
8.81407e-05
6.78851e-05
6.0748e-05
6.47235e-05
7.28519e-05
7.33387e-05
6.43811e-05
5.01977e-05
2.2058e-05
6.91745e-06
6.98214e-06
2.29489e-05
0.000110547
1.06291e-05
6.79893e-06
3.18249e-05
0.000101403
0.0001516
0.00014713
0.000121038
9.53394e-05
8.09152e-05
7.82062e-05
8.54788e-05
9.62714e-05
9.34215e-05
7.23617e-05
5.17527e-05
4.03679e-05
3.85572e-05
4.61711e-05
6.07026e-05
7.55678e-05
8.48229e-05
8.69432e-05
8.37537e-05
7.92576e-05
7.80057e-05
8.11343e-05
8.32691e-05
7.74645e-05
6.3765e-05
4.23056e-05
1.40064e-05
6.57482e-06
8.80268e-06
2.82135e-05
0.000112118
1.10033e-05
7.95659e-06
3.99667e-05
0.000120618
0.000148824
0.000126728
9.60157e-05
7.73288e-05
7.13783e-05
7.25971e-05
7.88885e-05
9.31003e-05
0.000114454
0.000122801
9.40073e-05
5.70227e-05
3.50936e-05
2.61029e-05
2.90742e-05
4.64638e-05
7.08164e-05
8.66141e-05
9.0355e-05
8.8808e-05
8.76549e-05
8.70813e-05
8.31886e-05
7.28984e-05
5.54413e-05
2.86172e-05
9.05694e-06
6.81169e-06
1.41926e-05
4.5881e-05
9.22238e-05
1.12455e-05
8.38451e-06
4.63615e-05
0.000131739
0.00013465
0.000108327
8.1694e-05
6.93312e-05
7.06425e-05
7.9796e-05
8.84027e-05
9.29436e-05
9.96674e-05
0.000116346
0.000141631
0.000145523
9.22939e-05
4.36817e-05
2.40163e-05
2.00128e-05
2.84723e-05
4.78257e-05
6.87054e-05
8.18402e-05
8.6191e-05
8.41285e-05
7.71326e-05
6.60469e-05
5.13401e-05
3.06978e-05
9.92311e-06
5.20135e-06
1.3733e-05
4.87964e-05
8.57046e-05
1.10633e-05
8.11583e-06
4.43368e-05
0.000120152
0.000135019
0.000120187
9.65189e-05
7.93334e-05
7.40086e-05
7.91434e-05
9.00451e-05
9.70255e-05
9.1847e-05
7.98705e-05
7.09509e-05
6.7427e-05
6.33411e-05
4.67565e-05
2.6636e-05
1.81746e-05
2.21347e-05
4.03207e-05
6.59426e-05
8.08127e-05
8.24512e-05
7.72402e-05
6.86201e-05
5.80817e-05
4.67722e-05
3.4089e-05
1.34959e-05
3.63115e-06
7.96932e-06
3.0882e-05
9.72733e-05
1.11653e-05
8.07078e-06
4.28097e-05
0.000112025
0.00013259
0.000129343
0.000112938
8.87651e-05
6.84484e-05
5.87602e-05
5.98761e-05
7.10012e-05
8.89498e-05
0.000100646
9.09229e-05
6.74333e-05
4.51141e-05
2.80286e-05
1.72341e-05
1.48091e-05
2.46063e-05
4.74941e-05
6.874e-05
7.71748e-05
7.63982e-05
7.0519e-05
6.15594e-05
5.11213e-05
3.94534e-05
2.17298e-05
8.23472e-06
3.80689e-06
4.81085e-06
2.55538e-05
0.000107404
1.17601e-05
7.56622e-06
3.60813e-05
9.57947e-05
0.000127429
0.000134689
0.000129233
0.000112557
8.79779e-05
6.51038e-05
5.0807e-05
4.53014e-05
4.75776e-05
5.79285e-05
7.55111e-05
9.01087e-05
8.29506e-05
5.54265e-05
2.96229e-05
1.60082e-05
1.46333e-05
2.97352e-05
6.42741e-05
9.09688e-05
9.986e-05
9.66762e-05
8.39847e-05
6.22237e-05
2.55577e-05
8.13486e-06
6.7051e-06
1.27526e-05
2.70405e-05
7.33082e-05
7.31778e-05
1.19871e-05
6.95874e-06
3.00786e-05
8.09245e-05
0.000126566
0.000142941
0.000142094
0.000130144
0.000110423
8.71591e-05
6.61474e-05
5.10995e-05
4.22271e-05
3.859e-05
3.98582e-05
4.65039e-05
5.81804e-05
6.82818e-05
6.08753e-05
3.64157e-05
1.91448e-05
1.37978e-05
1.98685e-05
3.31622e-05
3.80382e-05
3.74358e-05
3.41209e-05
2.70968e-05
1.69176e-05
9.60218e-06
8.7483e-06
1.40675e-05
4.1291e-05
0.00010988
4.72732e-05
1.11737e-05
6.80538e-06
2.7052e-05
7.28825e-05
0.000128029
0.000149697
0.000148071
0.000135537
0.000118509
0.000100646
8.38435e-05
6.91288e-05
5.69913e-05
4.7745e-05
4.1873e-05
3.9922e-05
4.22006e-05
4.82975e-05
5.6055e-05
5.84561e-05
4.53474e-05
2.75447e-05
1.76589e-05
1.50825e-05
1.72836e-05
2.07553e-05
2.18118e-05
2.0194e-05
2.12479e-05
2.56564e-05
2.04485e-05
1.35856e-05
1.3428e-05
3.10542e-05
8.39852e-05
9.02086e-06
6.71654e-06
2.50877e-05
6.61353e-05
0.000120206
0.000142339
0.000138474
0.000121765
0.00010172
8.60318e-05
7.72092e-05
7.42177e-05
7.29581e-05
6.71445e-05
5.59521e-05
4.56087e-05
4.0768e-05
4.23743e-05
4.9215e-05
5.77384e-05
6.07934e-05
4.90907e-05
3.18533e-05
2.14642e-05
1.70315e-05
1.5942e-05
1.60456e-05
1.98176e-05
3.60967e-05
1.67274e-05
7.47847e-06
5.52427e-06
8.37763e-07
1.95034e-06
1.32511e-05
1.02815e-05
7.09498e-06
2.64025e-05
6.98608e-05
0.000126513
0.000145147
0.000134779
0.00011115
8.79507e-05
7.21895e-05
6.38297e-05
6.41056e-05
7.47385e-05
9.04113e-05
9.11863e-05
7.11313e-05
5.38286e-05
4.90852e-05
5.60698e-05
7.0863e-05
8.11774e-05
7.16994e-05
4.69506e-05
2.48018e-05
1.60401e-05
1.33117e-05
1.05053e-05
1.39577e-05
1.63968e-06
8.35519e-06
1.33607e-05
4.35793e-06
2.22044e-07
1.07669e-05
7.17726e-05
1.34899e-05
8.32023e-06
3.49909e-05
0.000102153
0.000149626
0.000140767
0.000110663
8.131e-05
6.67615e-05
6.46433e-05
6.74502e-05
7.3294e-05
8.84547e-05
0.000113255
0.000123711
9.87549e-05
7.08301e-05
6.31285e-05
8.02056e-05
0.000128051
0.000173692
0.000128837
5.12901e-05
7.70109e-06
3.15939e-06
7.46336e-06
1.59449e-05
3.03489e-05
5.83438e-05
8.10223e-05
6.01073e-05
3.34005e-05
3.03957e-05
7.02779e-05
7.24686e-05
1.3349e-05
9.28714e-06
5.04026e-05
0.000132682
0.000132733
0.000106712
7.43094e-05
5.4228e-05
5.1588e-05
6.47208e-05
8.78416e-05
0.000106653
0.000115259
0.000116534
0.000108128
9.04906e-05
7.40424e-05
6.84051e-05
7.63508e-05
8.9259e-05
8.34731e-05
5.56776e-05
2.58472e-05
6.01359e-06
1.09818e-06
7.74176e-06
1.61902e-05
3.26932e-05
5.58202e-05
8.15628e-05
9.8404e-05
0.00010623
0.000123099
0.000115771
4.01744e-05
9.42433e-06
9.18554e-06
5.61047e-05
0.000118611
0.000115834
9.46039e-05
6.88896e-05
5.39409e-05
5.40669e-05
6.84375e-05
9.17711e-05
0.000110569
0.000114541
0.000106599
9.51797e-05
8.55284e-05
7.94114e-05
7.65403e-05
7.53655e-05
7.35312e-05
6.89341e-05
6.09203e-05
5.00314e-05
3.78412e-05
2.67826e-05
1.85034e-05
1.02934e-05
8.37659e-06
1.202e-05
1.28513e-05
1.65212e-05
3.53019e-05
9.487e-05
0.000104242
4.21886e-05
6.11726e-06
8.44168e-06
4.76245e-05
0.000117437
0.000131657
0.000123531
0.00010203
7.70505e-05
5.98776e-05
5.3416e-05
5.57993e-05
6.47146e-05
7.77936e-05
9.13417e-05
0.000101666
0.000108304
0.000113023
0.000116083
0.000115616
0.000109839
9.87765e-05
8.36428e-05
6.55853e-05
4.63353e-05
2.68291e-05
1.53137e-05
1.24033e-05
1.6479e-05
2.19872e-05
1.8949e-05
8.56862e-06
6.93103e-06
1.1492e-05
1.8009e-05
4.8517e-05
1.03862e-05
7.98506e-06
3.93621e-05
0.000108148
0.000139866
0.000143259
0.000133753
0.000110677
7.85489e-05
5.36459e-05
4.11038e-05
3.7597e-05
4.17994e-05
5.62017e-05
8.28942e-05
0.000114992
0.000141035
0.00015959
0.000174018
0.000180958
0.000167318
0.000122927
6.38736e-05
2.318e-05
1.03841e-05
1.49064e-05
2.93942e-05
5.81477e-05
0.000114422
0.000136746
7.50833e-05
2.94365e-05
1.59804e-05
3.62795e-05
8.92788e-05
1.2317e-05
7.98132e-06
3.53098e-05
9.91131e-05
0.000141123
0.000143642
0.000134736
0.000126802
0.000119529
0.000101037
7.1019e-05
4.55315e-05
3.04922e-05
2.68258e-05
3.64854e-05
6.33212e-05
0.000104493
0.000140296
0.000158102
0.000161225
0.000154405
0.000139999
0.00011771
8.34183e-05
4.5285e-05
2.42969e-05
2.20661e-05
2.7955e-05
3.47131e-05
4.60797e-05
6.69156e-05
7.66823e-05
7.24158e-05
0.000104521
6.55629e-05
1.08855e-05
8.31392e-06
3.59767e-05
9.89006e-05
0.000139274
0.000138865
0.000123275
0.000104814
9.29963e-05
9.20096e-05
9.82623e-05
9.28016e-05
5.71542e-05
2.96563e-05
2.36884e-05
3.43162e-05
6.46218e-05
0.000119619
0.000187996
0.000239363
0.00025476
0.000240427
0.00020988
0.000171866
0.000128374
8.02985e-05
3.96665e-05
2.68962e-05
1.85196e-05
1.33982e-05
1.78068e-05
3.3731e-05
7.06664e-05
0.000116437
6.34837e-05
9.6521e-06
8.85319e-06
4.08897e-05
0.000110193
0.000142196
0.000141178
0.000130282
0.000113543
9.0638e-05
6.69021e-05
5.28538e-05
5.205e-05
5.42787e-05
4.05625e-05
3.15458e-05
4.19051e-05
8.1868e-05
0.00017101
0.000291856
0.000317343
0.000316216
0.000312096
0.000304916
0.000236432
0.000154986
7.83094e-05
2.46979e-05
1.18137e-05
2.36164e-05
3.53587e-05
2.59433e-05
2.37813e-05
3.90224e-05
7.99942e-05
6.51486e-05
1.02496e-05
9.04395e-06
4.47576e-05
0.000120347
0.000140638
0.000132217
0.000116596
0.000101231
8.5511e-05
6.34024e-05
4.07e-05
3.11688e-05
3.54551e-05
4.51297e-05
5.44507e-05
7.4323e-05
0.000114675
0.000167757
0.000217191
0.000251284
0.00026239
0.000249815
0.000223299
0.000195526
0.00016934
0.000131583
7.13806e-05
2.60256e-05
1.93448e-05
3.69294e-05
6.47416e-05
4.67744e-05
2.2012e-05
3.49049e-05
9.23644e-05
1.12433e-05
8.818e-06
4.4694e-05
0.00011984
0.000135778
0.000122852
0.000101052
8.11984e-05
6.55171e-05
4.96909e-05
3.37088e-05
2.66935e-05
3.58384e-05
6.82719e-05
0.000117823
0.000142681
0.000147096
0.0001511
0.000158107
0.000165013
0.000169013
0.00017105
0.000177766
0.000197041
0.000225319
0.000226192
0.000161997
7.17552e-05
2.42804e-05
2.03987e-05
3.52038e-05
3.9507e-05
2.36895e-05
3.93196e-05
0.000111619
1.21497e-05
8.60192e-06
4.41753e-05
0.000118413
0.000133854
0.000119818
9.65891e-05
7.64073e-05
6.17938e-05
4.89462e-05
3.69703e-05
3.16385e-05
4.13526e-05
7.35865e-05
0.000122703
0.000161285
0.000178908
0.000181873
0.000177625
0.00017227
0.00017288
0.000183146
0.000186915
0.000158896
0.000125109
0.000107872
9.54263e-05
6.65839e-05
3.02277e-05
1.91901e-05
2.97136e-05
4.14208e-05
4.37156e-05
7.86326e-05
8.29349e-05
1.19321e-05
8.45814e-06
4.25651e-05
0.000114738
0.00013415
0.000121732
9.9028e-05
8.1417e-05
7.23337e-05
6.4505e-05
5.01498e-05
3.4446e-05
3.0555e-05
4.6651e-05
9.14104e-05
0.000161712
0.000230829
0.000268682
0.000253045
0.000190774
0.000124715
9.06925e-05
9.19837e-05
0.000121481
0.000162787
0.000179856
0.000151446
9.22665e-05
4.34142e-05
2.72112e-05
3.62234e-05
4.91917e-05
6.33757e-05
0.000110678
7.1458e-05
1.17786e-05
8.29421e-06
3.94919e-05
0.000107895
0.000132949
0.000121441
9.54405e-05
7.61187e-05
7.10498e-05
7.50079e-05
7.30846e-05
5.14925e-05
2.94529e-05
2.697e-05
5.04901e-05
0.000112159
0.000184016
0.00021499
0.000192514
0.000135061
8.74431e-05
7.04119e-05
8.43888e-05
0.000137161
0.000222934
0.000258939
0.000215154
0.000129622
5.86337e-05
2.97202e-05
3.28884e-05
5.43646e-05
8.32267e-05
0.000131029
6.80094e-05
1.20939e-05
8.26019e-06
3.77431e-05
0.000103424
0.000131561
0.000118864
8.97313e-05
6.82552e-05
6.16399e-05
6.73998e-05
8.15086e-05
8.72977e-05
5.74688e-05
2.65294e-05
2.27239e-05
4.73059e-05
0.00010657
0.000154447
0.00016518
0.000151629
0.000119032
8.64333e-05
7.43112e-05
8.51744e-05
0.000114631
0.000146951
0.000152926
0.000116363
6.29815e-05
3.12988e-05
2.78719e-05
5.62998e-05
0.000111237
0.000128463
4.94176e-05
1.12382e-05
8.31645e-06
3.68129e-05
0.000102378
0.000129818
0.000109135
7.76934e-05
6.07965e-05
5.82769e-05
6.45102e-05
7.58179e-05
9.04512e-05
9.67943e-05
6.27623e-05
2.66156e-05
2.14149e-05
4.30713e-05
9.27996e-05
0.000137717
0.000150279
0.000141173
0.000122764
0.000103675
9.13127e-05
8.75231e-05
8.79747e-05
8.60596e-05
7.61874e-05
5.74315e-05
3.85022e-05
3.18892e-05
5.00587e-05
0.000102534
0.000110845
4.24579e-05
1.00314e-05
8.46415e-06
3.6486e-05
0.000103968
0.000125605
9.2272e-05
6.25295e-05
5.23181e-05
5.59301e-05
6.89277e-05
8.53594e-05
9.65709e-05
9.87479e-05
8.83407e-05
5.38909e-05
2.81478e-05
2.80494e-05
5.07661e-05
9.22081e-05
0.000130251
0.000144242
0.000139708
0.000129956
0.000121551
0.000114629
0.000105795
9.17024e-05
7.29938e-05
5.40336e-05
3.99963e-05
3.55196e-05
4.34057e-05
7.15588e-05
0.000114273
5.13855e-05
1.00756e-05
8.73917e-06
3.78035e-05
0.000111388
0.000112273
6.80834e-05
4.83723e-05
4.79151e-05
5.92758e-05
7.89583e-05
0.000102126
0.000121118
0.000126836
0.000110928
7.50599e-05
4.15333e-05
3.13243e-05
4.37014e-05
7.48763e-05
0.00011185
0.000136529
0.000146476
0.000149509
0.000147988
0.000138296
0.000121452
0.00010381
8.65386e-05
6.56328e-05
4.19662e-05
2.8527e-05
3.20724e-05
5.47051e-05
0.000104639
6.17308e-05
1.07273e-05
9.20196e-06
4.26622e-05
0.000122273
8.30121e-05
4.5901e-05
3.97087e-05
5.12607e-05
7.53299e-05
0.000104963
0.000130489
0.000146494
0.000150865
0.000137808
9.98604e-05
5.48023e-05
3.5516e-05
4.3065e-05
7.26417e-05
0.000107473
0.000127116
0.00012842
0.000118467
0.000108588
0.000106631
0.00011088
0.000113343
0.000105041
8.15711e-05
4.96945e-05
2.85877e-05
3.04269e-05
6.41085e-05
0.000116732
5.43707e-05
1.06403e-05
9.69243e-06
5.26904e-05
0.000114416
5.4116e-05
3.36614e-05
4.03283e-05
6.92039e-05
0.000108253
0.000138386
0.000157372
0.000167828
0.000168469
0.00015285
0.000113979
6.64138e-05
4.04385e-05
4.22409e-05
6.86138e-05
9.16972e-05
8.84271e-05
7.73336e-05
7.85231e-05
9.50323e-05
0.000122301
0.000149472
0.000163277
0.00015658
0.000128949
8.68537e-05
5.00339e-05
3.67752e-05
4.96379e-05
9.59944e-05
6.04108e-05
1.08775e-05
9.90704e-06
6.49501e-05
9.12538e-05
4.34746e-05
3.32906e-05
5.00714e-05
8.96371e-05
0.000124552
0.000148134
0.000165259
0.000176675
0.000179219
0.000165945
0.000129603
8.02177e-05
4.523e-05
3.66303e-05
5.30083e-05
6.42422e-05
5.49166e-05
5.07582e-05
6.41621e-05
0.000100153
0.000152336
0.000192199
0.000206381
0.000203691
0.000188765
0.000151
9.04955e-05
4.85796e-05
4.1049e-05
7.40518e-05
8.70628e-05
1.22397e-05
9.66593e-06
6.47737e-05
9.62869e-05
5.76546e-05
4.37532e-05
5.08919e-05
7.10742e-05
9.56201e-05
0.00012244
0.000148843
0.000171007
0.000185295
0.000186708
0.000165835
0.000117581
6.57141e-05
3.81282e-05
3.66306e-05
4.8356e-05
4.24861e-05
3.82184e-05
4.94316e-05
8.66509e-05
0.000157476
0.000211302
0.000211447
0.000182384
0.000146149
0.000111124
7.70799e-05
5.32937e-05
5.53625e-05
0.000106633
9.00262e-05
1.31193e-05
9.1015e-06
5.03034e-05
0.000110478
0.0001049
6.77611e-05
4.58753e-05
4.2394e-05
5.04114e-05
7.0182e-05
0.000103373
0.000140932
0.000168259
0.000180211
0.000174296
0.00014562
9.77972e-05
5.43373e-05
3.24016e-05
3.13523e-05
3.40899e-05
2.9347e-05
3.29475e-05
5.29559e-05
0.000104488
0.000189154
0.000217123
0.000171149
0.000110645
7.47339e-05
6.2405e-05
6.54588e-05
9.26874e-05
0.000149281
6.45649e-05
1.23396e-05
8.47464e-06
3.82821e-05
8.90852e-05
0.000109034
0.000103078
6.70688e-05
3.97152e-05
2.913e-05
2.93992e-05
4.60388e-05
8.7704e-05
0.000145011
0.000190603
0.000215548
0.000219795
0.000194504
0.000133676
7.22478e-05
3.90905e-05
2.67928e-05
2.19756e-05
1.81956e-05
2.23681e-05
3.78891e-05
7.1533e-05
0.000122259
0.000137616
0.000103103
7.26514e-05
6.68014e-05
8.72341e-05
0.000132777
0.000140291
4.71912e-05
1.05866e-05
8.08663e-06
3.36682e-05
8.41928e-05
0.000112152
0.000113055
9.97084e-05
6.82728e-05
3.55836e-05
1.74698e-05
1.8175e-05
4.0374e-05
9.4262e-05
0.000164517
0.00021188
0.000228369
0.000218373
0.000181931
0.000124378
7.10713e-05
3.99686e-05
2.77684e-05
2.49914e-05
2.19501e-05
2.3654e-05
3.27656e-05
5.24127e-05
8.41661e-05
0.000107218
0.000101486
9.67872e-05
0.000115669
0.000151269
0.000138036
4.37272e-05
9.49581e-06
8.27409e-06
3.40206e-05
9.05155e-05
0.000124443
0.000117341
9.93985e-05
8.19541e-05
5.37969e-05
2.08042e-05
1.1525e-05
2.46942e-05
7.10133e-05
0.000166731
0.000263008
0.000317689
0.000333971
0.000317113
0.000267197
0.000191201
0.000116665
6.5076e-05
3.29256e-05
1.31283e-05
6.8346e-06
1.08499e-05
1.92229e-05
3.22522e-05
5.34975e-05
8.8264e-05
0.000130788
0.000158842
0.000164991
0.000127805
4.24056e-05
9.31335e-06
9.01617e-06
3.92645e-05
0.000101136
0.00012744
0.000106037
6.45645e-05
4.02117e-05
3.46063e-05
2.41351e-05
1.72844e-05
3.21407e-05
8.80712e-05
0.000202716
0.000310022
0.000379134
0.000415044
0.000417997
0.000388499
0.000333127
0.000262738
0.000189856
0.0001267
7.94614e-05
4.55345e-05
2.25949e-05
1.27608e-05
1.34162e-05
2.06009e-05
3.48348e-05
6.31427e-05
0.000109834
0.000135099
0.000111404
3.96501e-05
9.23742e-06
9.53414e-06
4.91926e-05
0.000111874
0.000108908
7.82294e-05
4.04015e-05
1.88879e-05
1.38191e-05
2.07153e-05
4.5311e-05
0.000112178
0.000224743
0.000279902
0.000316715
0.000349072
0.000373045
0.000378299
0.000355779
0.000307794
0.000249423
0.000195263
0.000151137
0.000116229
8.73874e-05
6.14662e-05
3.8458e-05
2.29928e-05
1.72621e-05
1.94082e-05
2.89196e-05
5.13487e-05
9.14796e-05
9.71749e-05
3.83004e-05
9.30307e-06
9.20138e-06
5.23593e-05
0.000104217
8.96336e-05
5.72634e-05
2.95488e-05
1.53943e-05
1.53687e-05
3.62343e-05
9.36764e-05
0.00017576
0.000219062
0.000241892
0.00026363
0.000286888
0.000307294
0.000319133
0.000316525
0.000296357
0.000261775
0.000221007
0.000182162
0.000149354
0.000122531
9.91097e-05
7.69674e-05
5.63308e-05
3.97526e-05
2.96132e-05
2.64002e-05
3.03017e-05
4.69111e-05
8.48314e-05
4.77794e-05
9.73834e-06
8.73136e-06
4.79907e-05
0.000113947
0.000108763
8.02734e-05
5.05112e-05
2.88185e-05
1.80208e-05
2.18176e-05
4.78428e-05
0.000106047
0.00017319
0.000216678
0.000245585
0.000270415
0.000292522
0.000309661
0.000318676
0.00031664
0.000302603
0.000278618
0.000249017
0.000218306
0.000189208
0.000162084
0.000136208
0.000111546
8.98221e-05
7.22635e-05
5.77842e-05
4.43494e-05
3.60515e-05
5.26747e-05
8.22972e-05
1.05004e-05
8.85401e-06
4.36692e-05
0.000113597
0.0001277
0.000115589
9.85699e-05
7.48428e-05
3.97085e-05
1.48188e-05
8.39219e-06
2.36215e-05
7.05972e-05
0.000152749
0.000230681
0.000284637
0.000322305
0.000349142
0.000365903
0.000371718
0.000366232
0.000350721
0.000327827
0.000300431
0.00027053
0.000238681
0.000204466
0.000168512
0.000134936
0.00010893
8.81827e-05
6.27941e-05
4.18322e-05
5.29076e-05
0.000115372
1.12761e-05
9.0822e-06
4.21873e-05
0.000105306
0.000118728
9.77081e-05
7.2535e-05
6.27353e-05
6.59457e-05
4.3215e-05
1.00697e-05
4.86211e-06
2.40769e-05
7.77777e-05
0.000176883
0.000284526
0.000364548
0.000413535
0.000436739
0.000441105
0.00043274
0.000415306
0.000391526
0.000363351
0.000331642
0.000295991
0.000255122
0.000208642
0.000160544
0.000119579
8.9532e-05
6.54949e-05
5.27739e-05
7.36461e-05
0.000127319
1.18359e-05
8.99823e-06
4.20441e-05
0.000107004
0.000118021
9.53846e-05
6.55604e-05
4.65152e-05
3.97016e-05
4.11689e-05
2.78612e-05
6.76159e-06
1.33622e-05
5.11546e-05
0.000140911
0.00026519
0.000367935
0.000429224
0.000444705
0.00045828
0.000450692
0.000429915
0.000403468
0.000373078
0.0003391
0.000300867
0.000257105
0.000207623
0.000156574
0.0001129
8.25968e-05
6.55284e-05
6.62566e-05
0.000103604
0.000112906
1.19795e-05
8.9887e-06
4.07945e-05
0.000107488
0.000121702
9.88893e-05
7.24191e-05
5.68852e-05
4.85538e-05
4.24489e-05
3.62199e-05
1.37389e-05
7.1193e-07
1.94429e-05
7.70249e-05
0.000199838
0.000341308
0.00041945
0.000435689
0.000450183
0.000462719
0.000449516
0.000414769
0.000376953
0.000336569
0.000292202
0.000242631
0.000189319
0.000139697
0.000102672
7.97721e-05
7.09851e-05
8.42089e-05
0.00013482
9.93441e-05
1.20173e-05
9.26708e-06
4.16462e-05
0.000106331
0.000115136
8.54075e-05
5.72299e-05
4.48315e-05
4.09837e-05
3.57496e-05
2.74561e-05
1.98482e-05
6.71099e-06
9.53797e-06
4.61625e-05
0.00014209
0.000309026
0.000414655
0.000431608
0.000446612
0.000459557
0.000470241
0.000447691
0.000393856
0.000340724
0.000286949
0.000228797
0.000168555
0.000117959
8.88158e-05
7.95992e-05
8.5567e-05
0.000113198
0.000162592
8.64921e-05
1.18999e-05
9.43532e-06
4.45356e-05
0.000111148
0.000107286
7.33739e-05
4.72301e-05
3.66877e-05
3.58017e-05
3.40677e-05
2.04961e-05
7.98459e-06
4.75572e-06
1.70874e-05
6.65981e-05
0.000209147
0.000400762
0.000418183
0.00043403
0.0004482
0.000460566
0.000470906
0.00046169
0.000401625
0.000342625
0.000285751
0.000225273
0.000162395
0.000109406
8.04016e-05
7.74273e-05
9.70685e-05
0.000136549
0.000171436
7.7545e-05
1.18041e-05
9.22576e-06
4.51857e-05
0.000113689
0.000104903
7.04458e-05
4.59795e-05
3.33841e-05
2.45775e-05
1.59944e-05
8.91636e-06
4.95637e-06
7.54104e-06
2.71454e-05
9.44959e-05
0.00027833
0.000407613
0.000423292
0.000437925
0.000451269
0.000463102
0.000473162
0.000447198
0.000390454
0.000335677
0.000281649
0.000223304
0.000161844
0.000108217
7.64221e-05
7.21483e-05
9.70563e-05
0.000143864
0.000166392
6.89858e-05
1.1696e-05
9.1158e-06
4.56013e-05