/*--------------------------------*- C++ -*----------------------------------*\
| =========                 |                                                 |
| \\      /  F ield         | OpenFOAM: The Open Source CFD Toolbox           |
|  \\    /   O peration     | Version:  v1906                                 |
|   \\  /    A nd           | Web:      www.OpenFOAM.com                      |
|    \\/     M anipulation  |                                                 |
\*---------------------------------------------------------------------------*/
FoamFile
{
    version     2.0;
    format      ascii;
    class       volVectorField;
    location    "42";
    object      U;
}
// * * * * * * * * * * * * * * * * * * * * * * * * * * * * * * * * * * * * * //

dimensions      [0 1 -1 0 0 0 0];


internalField   nonuniform List<vector> 
78750
(
(-0.330117 -0.165782 -0.0484041)
(-0.289861 -0.151994 -0.0421939)
(-0.284706 -0.128634 -0.0314531)
(-0.244941 -0.104864 -0.018404)
(-0.204159 -0.0875969 -0.00891398)
(-0.195836 -0.0798726 -0.00823509)
(-0.175679 -0.0689358 -0.00580294)
(-0.161808 -0.0629239 -0.00552751)
(-0.144177 -0.0546277 -0.00425024)
(-0.130591 -0.0492521 -0.00387292)
(-0.11666 -0.0429728 -0.00318608)
(-0.104911 -0.0381669 -0.00279231)
(-0.093685 -0.0332582 -0.00232232)
(-0.083544 -0.0290744 -0.001893)
(-0.0740835 -0.0250737 -0.00137123)
(-0.0650526 -0.0215151 -0.000719411)
(-0.0564197 -0.0182644 0.000101161)
(-0.0480353 -0.0153522 0.001159)
(-0.0398399 -0.0128139 0.00249552)
(-0.0319314 -0.0106823 0.00407705)
(-0.0245232 -0.00900141 0.00574826)
(-0.0178787 -0.00780104 0.00722277)
(-0.0119798 -0.00705624 0.00827985)
(-0.00671825 -0.00670272 0.00891428)
(-0.00202653 -0.00664576 0.0092007)
(0.00221385 -0.00674614 0.00922035)
(0.00612044 -0.00683347 0.0090553)
(0.00974077 -0.00676613 0.00877768)
(0.013034 -0.00644805 0.00845686)
(0.0159549 -0.00576437 0.0081634)
(0.018416 -0.00453751 0.00796744)
(0.0202207 -0.00258432 0.00793554)
(0.020881 -7.30006e-05 0.00811218)
(0.0229095 0.00463277 0.00886183)
(0.0151329 0.0760648 0.0138305)
(0.0334054 -0.184077 0.0274747)
(-0.0595647 -0.177005 0.0301969)
(-0.0388255 -0.209826 0.0339454)
(-0.0533529 -0.223626 0.0381657)
(-0.0603914 -0.206232 0.0385256)
(-0.0584443 -0.193492 0.0391485)
(-0.0570122 -0.174324 0.0388707)
(-0.052266 -0.157862 0.038615)
(-0.0476169 -0.141631 0.0376409)
(-0.0421534 -0.126236 0.0364103)
(-0.0370282 -0.11208 0.0348011)
(-0.0320736 -0.0991077 0.0330371)
(-0.0275934 -0.0875282 0.0311285)
(-0.0235636 -0.0773684 0.0291375)
(-0.0200985 -0.0687144 0.0270715)
(-0.0172477 -0.0616066 0.0249352)
(-0.015036 -0.056031 0.0227383)
(-0.0134634 -0.0519101 0.0205183)
(-0.0124975 -0.0490702 0.0183328)
(-0.0120442 -0.047238 0.0162466)
(-0.0119333 -0.0460881 0.0143122)
(-0.0119336 -0.0453454 0.0125792)
(-0.0117857 -0.0447993 0.0110831)
(-0.0113014 -0.0442266 0.00977586)
(-0.0103384 -0.0435147 0.00856705)
(-0.00873086 -0.0426196 0.0073902)
(-0.00631174 -0.0411428 0.00615415)
(-0.00301844 -0.0385816 0.00477619)
(0.000910018 -0.0348801 0.00332943)
(0.0050318 -0.0303336 0.00201613)
(0.00886764 -0.0248457 0.00101603)
(0.0120358 -0.0174409 0.000502279)
(0.0145148 -0.00389505 0.000948642)
(0.0142871 0.0454432 0.0055099)
(0.00647284 0.219062 0.0165073)
(-0.0105855 0.0602942 -0.0294432)
(-0.00885298 0.00132818 -0.0145166)
(-0.0066394 -0.0645868 0.00147692)
(0.00158208 -0.118691 0.0109586)
(0.0113603 -0.161628 0.0172139)
(0.0224981 -0.186823 0.0202673)
(0.033294 -0.199948 0.021952)
(0.0438892 -0.202981 0.0226936)
(0.0535303 -0.198108 0.0224036)
(0.0615948 -0.187775 0.0209515)
(0.0681965 -0.17404 0.0185502)
(0.0735117 -0.158251 0.015575)
(0.077678 -0.141172 0.0124515)
(0.0808158 -0.123282 0.00954619)
(0.0829915 -0.10488 0.00715945)
(0.0843081 -0.0862506 0.00551029)
(0.0848823 -0.0677266 0.00473316)
(0.0847765 -0.049718 0.00487631)
(0.0840019 -0.0327767 0.00590003)
(0.0825337 -0.0178393 0.00761502)
(0.0803595 -0.00655279 0.00963533)
(0.0774948 -0.000634807 0.0115478)
(0.0740755 -0.000147738 0.0131681)
(0.0702118 -0.00343834 0.0147326)
(0.0656784 -0.00914391 0.0166838)
(0.0594827 -0.0177239 0.0189311)
(0.0504968 -0.0292791 0.0196748)
(0.03967 -0.0395953 0.0177156)
(0.0297547 -0.0445062 0.0146116)
(0.0228998 -0.0436912 0.0121563)
(0.0187189 -0.0379222 0.0104779)
(0.0164747 -0.0241766 0.00920697)
(0.0153349 0.00975196 0.00825939)
(0.0115261 0.108052 0.0109227)
(0.00285765 0.283765 0.0187938)
(0.00380392 -0.0672343 0.016983)
(0.0259808 -0.178871 0.0359117)
(0.0479067 -0.257511 0.0439032)
(0.0689574 -0.307339 0.0470622)
(0.0878184 -0.332905 0.0478681)
(0.103119 -0.34039 0.0477206)
(0.114993 -0.334472 0.0465237)
(0.12353 -0.319366 0.0437448)
(0.129014 -0.298764 0.0390866)
(0.13201 -0.275512 0.0327563)
(0.133159 -0.251531 0.0252979)
(0.133047 -0.228062 0.0173257)
(0.132153 -0.205855 0.00932134)
(0.130855 -0.185316 0.00157004)
(0.129398 -0.16658 -0.0058128)
(0.127916 -0.14957 -0.0128007)
(0.126492 -0.134073 -0.019415)
(0.125121 -0.119759 -0.0256926)
(0.123718 -0.106223 -0.0316728)
(0.122088 -0.0931292 -0.0374801)
(0.119911 -0.0801701 -0.0435148)
(0.116738 -0.0667466 -0.049986)
(0.112216 -0.0518043 -0.0561992)
(0.10618 -0.0333652 -0.0610639)
(0.0986308 -0.0061879 -0.0616972)
(0.0890973 0.0323769 -0.0521861)
(0.078283 0.0692883 -0.0324496)
(0.0675541 0.0888956 -0.00976719)
(0.0563543 0.0816585 0.0106951)
(0.0439098 0.0478217 0.021294)
(0.0341047 0.0204214 0.0215013)
(0.0272257 0.0133867 0.0185315)
(0.0198398 0.0386494 0.0142873)
(0.0124767 0.171696 0.0126274)
(0.00269822 0.337153 0.0182733)
(0.00634837 -0.173222 0.026484)
(0.0239707 -0.346082 0.0273738)
(0.0375864 -0.413671 0.021627)
(0.0468841 -0.4299 0.017282)
(0.052151 -0.421573 0.0146203)
(0.0544593 -0.395803 0.0123114)
(0.0527741 -0.353715 0.00797377)
(0.0463401 -0.302327 -0.00115339)
(0.0369361 -0.250534 -0.0157541)
(0.0273717 -0.204031 -0.0337342)
(0.0196512 -0.165199 -0.0517187)
(0.0145242 -0.134211 -0.066986)
(0.0118144 -0.109886 -0.0782815)
(0.0110528 -0.0905801 -0.0856711)
(0.0117387 -0.0746631 -0.0899462)
(0.0134552 -0.06083 -0.0920004)
(0.0158497 -0.0482003 -0.0925279)
(0.018581 -0.0362828 -0.0920103)
(0.0212874 -0.0247712 -0.0907917)
(0.0237206 -0.0133279 -0.0890283)
(0.0257026 -0.00175781 -0.08668)
(0.0270565 0.0101316 -0.0836558)
(0.0277457 0.0225634 -0.0796926)
(0.0278443 0.0354531 -0.0742118)
(0.0278478 0.0473463 -0.067253)
(0.0280283 0.0564605 -0.0603143)
(0.0283827 0.0622808 -0.0540512)
(0.0289267 0.0649889 -0.0477949)
(0.0292042 0.0645586 -0.0393587)
(0.0269791 0.0626685 -0.0219668)
(0.0212879 0.0628557 0.00324905)
(0.0156105 0.0689446 0.0208944)
(0.00909744 0.100987 0.0273508)
(0.00398759 0.239819 0.0219612)
(-0.000118348 0.379259 0.018643)
(0.00674167 -0.272196 0.0101759)
(0.0142958 -0.406863 0.005036)
(0.0163457 -0.423206 0.00528886)
(0.0171095 -0.413885 0.00816136)
(0.0170685 -0.385286 0.0128673)
(0.0154511 -0.325603 0.0172998)
(0.0110607 -0.243599 0.0149371)
(0.00444811 -0.170216 0.00301837)
(-0.00143508 -0.124708 -0.0137277)
(-0.00464079 -0.107273 -0.0280724)
(-0.00563684 -0.104046 -0.0376728)
(-0.00529143 -0.105046 -0.0442036)
(-0.00402361 -0.106472 -0.0489214)
(-0.00212294 -0.106846 -0.0525819)
(0.000197034 -0.105566 -0.0556356)
(0.00265735 -0.102414 -0.0582689)
(0.00509322 -0.0973252 -0.0607019)
(0.00740943 -0.0901833 -0.063256)
(0.00940872 -0.0810869 -0.0662297)
(0.0109064 -0.0705654 -0.0697009)
(0.0118927 -0.059088 -0.0734183)
(0.0125517 -0.0466677 -0.0768412)
(0.0130877 -0.0326352 -0.0793879)
(0.0136079 -0.0151155 -0.0800228)
(0.0140884 0.00955131 -0.0757654)
(0.0144165 0.0438882 -0.0599847)
(0.0138185 0.0773473 -0.0333221)
(0.0125759 0.0951161 -0.00981225)
(0.0114922 0.0982031 0.00605241)
(0.0108993 0.0926215 0.0162801)
(0.0109181 0.0881161 0.0210321)
(0.0109625 0.0905875 0.0230592)
(0.00935356 0.127354 0.0230549)
(0.00406767 0.279097 0.0233953)
(-9.38906e-06 0.396419 0.0186657)
(0.00147751 -0.324153 0.0179911)
(-0.00283069 -0.447457 0.00977204)
(-0.00617884 -0.465612 0.00804862)
(-0.00914865 -0.458095 0.0090822)
(-0.0120328 -0.424698 0.0116347)
(-0.0129401 -0.352902 0.0120673)
(-0.0115841 -0.268934 0.00330199)
(-0.00935957 -0.208732 -0.0107239)
(-0.00615514 -0.172127 -0.022345)
(-0.00249567 -0.147043 -0.0307073)
(0.00110262 -0.127204 -0.0368457)
(0.00426921 -0.110206 -0.0413204)
(0.00683979 -0.0950585 -0.0443796)
(0.00877916 -0.0811528 -0.0461455)
(0.0100971 -0.0679998 -0.0466128)
(0.010817 -0.0550721 -0.0457119)
(0.0109618 -0.0416536 -0.0433205)
(0.010467 -0.0268872 -0.0393414)
(0.00907018 -0.0102575 -0.0341005)
(0.00640224 0.00737737 -0.0287821)
(0.002356 0.0237801 -0.0243314)
(-0.0024754 0.0375429 -0.01967)
(-0.00733936 0.0485447 -0.0131286)
(-0.011688 0.0570311 -0.00475127)
(-0.0146177 0.063068 0.00356532)
(-0.0153921 0.0668638 0.0105546)
(-0.0143667 0.0681179 0.0163565)
(-0.0116626 0.0647044 0.0207109)
(-0.00667857 0.0538722 0.0216612)
(-0.00110219 0.042977 0.0184999)
(0.00344853 0.0417736 0.0139579)
(0.00756223 0.0578032 0.00861449)
(0.00963006 0.146005 0.00658745)
(0.00511319 0.316244 0.0147906)
(0.000601785 0.412092 0.0157798)
(-0.00176857 -0.296687 0.00424046)
(-0.00938257 -0.412476 -0.000198059)
(-0.0146095 -0.431004 0.0028832)
(-0.0187502 -0.427255 0.00711952)
(-0.0218849 -0.404621 0.0132038)
(-0.0206984 -0.353344 0.0197395)
(-0.0138445 -0.276102 0.0194218)
(-0.00607919 -0.201606 0.00862473)
(-0.000776296 -0.153651 -0.00581688)
(0.00196728 -0.127706 -0.0180587)
(0.00310973 -0.11252 -0.0273871)
(0.0035139 -0.10132 -0.0347671)
(0.00361293 -0.0911402 -0.0408804)
(0.00355986 -0.0809908 -0.0458949)
(0.00326661 -0.0706399 -0.0496877)
(0.00252717 -0.0598335 -0.0519576)
(0.00118921 -0.0477795 -0.0521072)
(-0.000685763 -0.0327213 -0.0489708)
(-0.00274038 -0.0123204 -0.040871)
(-0.00448386 0.0127325 -0.027604)
(-0.0057176 0.0351735 -0.0126184)
(-0.00642655 0.0479918 -0.000423216)
(-0.00657759 0.0530066 0.00791285)
(-0.00626096 0.0544402 0.013841)
(-0.00542777 0.0541158 0.0185405)
(-0.00407431 0.0521696 0.0220915)
(-0.00214262 0.0477197 0.0244022)
(0.000952269 0.037376 0.0247681)
(0.00536702 0.0211004 0.0214092)
(0.00839563 0.0131681 0.0174566)
(0.0105354 0.01401 0.0134713)
(0.0124235 0.0368107 0.00756619)
(0.0100925 0.149876 0.00261856)
(0.00529142 0.340437 0.00954548)
(0.000810232 0.427145 0.0132699)
(-0.00470805 -0.284104 0.0201573)
(-0.0143342 -0.4221 0.0274313)
(-0.0215912 -0.457912 0.0306403)
(-0.0266272 -0.469407 0.033788)
(-0.0299636 -0.469616 0.0383)
(-0.0309786 -0.454204 0.0458043)
(-0.0270113 -0.405006 0.0571165)
(-0.0170697 -0.320777 0.0652153)
(-0.00540843 -0.234414 0.0636032)
(0.00441107 -0.16759 0.0549875)
(0.0112948 -0.121646 0.0439583)
(0.0152622 -0.0905574 0.0332473)
(0.0170214 -0.0675658 0.0237972)
(0.0172789 -0.0473712 0.0157021)
(0.016603 -0.0265903 0.00903419)
(0.0153477 -0.00419593 0.00411914)
(0.0135739 0.0176892 0.00134364)
(0.0113572 0.0348639 0.000757883)
(0.00887535 0.045526 0.00204082)
(0.00646539 0.0511307 0.00480623)
(0.00460415 0.0536855 0.00859965)
(0.00348004 0.0541254 0.0124702)
(0.00286014 0.0530221 0.015894)
(0.00265075 0.0503738 0.0187869)
(0.00276636 0.0458558 0.02088)
(0.00313599 0.0388432 0.0221248)
(0.00408903 0.0266568 0.0223249)
(0.00634721 0.00872853 0.0206407)
(0.00892175 -0.00276239 0.0178686)
(0.0110955 -0.00529529 0.0147299)
(0.0134285 0.00311392 0.00992672)
(0.0153554 0.060627 0.000528038)
(0.0109586 0.202137 -0.00354215)
(0.00519539 0.386117 0.00376913)
(0.000564734 0.449799 0.00958827)
(-0.00305602 -0.243012 0.012313)
(-0.00886089 -0.378142 0.00911223)
(-0.0139383 -0.424849 0.00699598)
(-0.0184405 -0.444079 0.00572227)
(-0.0226669 -0.452295 0.00527041)
(-0.0262049 -0.453531 0.00625561)
(-0.0282876 -0.446072 0.0104943)
(-0.0262509 -0.416637 0.0207723)
(-0.01739 -0.356895 0.0332146)
(-0.00482011 -0.285313 0.0414359)
(0.00835302 -0.217048 0.0444493)
(0.020161 -0.159095 0.0430107)
(0.0294088 -0.113843 0.0384903)
(0.0357488 -0.0804561 0.0325022)
(0.0395584 -0.0557679 0.0264978)
(0.0416067 -0.0355807 0.0215779)
(0.04268 -0.0160141 0.0187102)
(0.0433683 0.00529081 0.0189062)
(0.0438525 0.0283104 0.022869)
(0.0439143 0.0492866 0.0299439)
(0.0430582 0.0610459 0.0364617)
(0.041572 0.0628251 0.0397251)
(0.0395903 0.0599855 0.0412108)
(0.036984 0.0548918 0.0419758)
(0.0340085 0.0481872 0.0424607)
(0.0307976 0.0393792 0.0430862)
(0.027185 0.025528 0.0441429)
(0.022991 0.00269507 0.0447332)
(0.0189379 -0.0184537 0.0427297)
(0.016387 -0.0268102 0.0385323)
(0.0149602 -0.0194195 0.030202)
(0.0140493 0.0599635 0.0093286)
(0.010216 0.233854 -0.00316159)
(0.00479751 0.424577 0.000416354)
(0.00047188 0.469269 0.00632225)
(-0.00415243 -0.232857 0.0198226)
(-0.00602217 -0.387859 0.0339217)
(-0.005374 -0.441372 0.0394005)
(-0.00400782 -0.460885 0.0403563)
(-0.00247355 -0.467437 0.0389753)
(-0.00105505 -0.466272 0.0353544)
(7.87151e-05 -0.459534 0.0293704)
(0.0011189 -0.448848 0.0220964)
(0.00322217 -0.429572 0.016886)
(0.0084502 -0.391484 0.0172372)
(0.0168128 -0.336069 0.0226321)
(0.0272596 -0.271863 0.0304353)
(0.0386217 -0.205424 0.0381709)
(0.0495695 -0.14185 0.043551)
(0.0589002 -0.0854769 0.0448484)
(0.065834 -0.0398004 0.0415544)
(0.0701431 -0.00655913 0.0348533)
(0.0722317 0.0154351 0.0272051)
(0.072811 0.0299095 0.0209262)
(0.0725467 0.0409128 0.0173121)
(0.0718232 0.0510343 0.0170051)
(0.0705622 0.0608044 0.0204643)
(0.06837 0.068608 0.0272344)
(0.0650662 0.072381 0.0353426)
(0.0608396 0.0717224 0.0429024)
(0.0557522 0.0672632 0.0492521)
(0.0496994 0.0591844 0.0545545)
(0.0424648 0.0460186 0.0593629)
(0.0334403 0.0244741 0.0629972)
(0.0243843 0.00200671 0.0617937)
(0.0171017 0.00170871 0.0499352)
(0.0123893 0.0916051 0.0196612)
(0.00838696 0.286984 -0.00126545)
(0.00376728 0.46579 -0.00134484)
(0.000285206 0.485843 0.00395482)
(-0.000253166 -0.23021 0.00921736)
(0.00840466 -0.416601 0.0192779)
(0.0155194 -0.49426 0.0252172)
(0.0212707 -0.523609 0.0276074)
(0.0260068 -0.533115 0.0281574)
(0.0300938 -0.53117 0.0274287)
(0.033364 -0.518843 0.0250791)
(0.0355288 -0.495831 0.0198721)
(0.0363118 -0.46524 0.0103968)
(0.0358868 -0.432319 -0.00246343)
(0.0353637 -0.397387 -0.0148321)
(0.0359829 -0.357907 -0.0220322)
(0.0385996 -0.312583 -0.0209501)
(0.0435739 -0.261724 -0.0115151)
(0.0506396 -0.206328 0.003803)
(0.0589513 -0.14806 0.0213382)
(0.0672128 -0.0899254 0.0369297)
(0.0739178 -0.0364303 0.0465648)
(0.0780591 0.00742228 0.0480755)
(0.0793822 0.0389766 0.0430737)
(0.0782995 0.0592171 0.0360535)
(0.0758839 0.0715625 0.0308262)
(0.0729506 0.0793633 0.0284871)
(0.0696696 0.0846129 0.0288511)
(0.0658431 0.0879097 0.031798)
(0.0612165 0.0888676 0.0371078)
(0.0556324 0.0867695 0.0440114)
(0.0490005 0.080852 0.0515664)
(0.0407738 0.0692613 0.0590263)
(0.0310272 0.0510869 0.0645723)
(0.0208942 0.0346333 0.062937)
(0.0130375 0.104105 0.0358208)
(0.00876036 0.313618 0.00652161)
(0.00490246 0.494082 0.0010244)
(0.00128277 0.499982 0.00449146)
(0.00558154 -0.293909 0.015883)
(0.0200155 -0.481842 0.0316295)
(0.0279292 -0.542765 0.0354751)
(0.031752 -0.559683 0.0356202)
(0.0337845 -0.560613 0.0343649)
(0.0348473 -0.552231 0.0322615)
(0.0351228 -0.535716 0.0295772)
(0.0350231 -0.510252 0.0264613)
(0.0350127 -0.473302 0.0222296)
(0.0351902 -0.424699 0.0142456)
(0.035138 -0.371016 -0.000495702)
(0.0345162 -0.321081 -0.0211119)
(0.0335192 -0.279829 -0.0416223)
(0.0328229 -0.246303 -0.0555367)
(0.0332069 -0.215326 -0.0598078)
(0.0354891 -0.181098 -0.053247)
(0.0401304 -0.139925 -0.0360755)
(0.0465768 -0.0915614 -0.0118796)
(0.0533605 -0.0392348 0.0128727)
(0.0589721 0.0104286 0.0309452)
(0.0621137 0.049765 0.0382847)
(0.062424 0.0756525 0.0375512)
(0.0607892 0.091151 0.0343873)
(0.0581494 0.100791 0.0320588)
(0.0549226 0.107233 0.0316043)
(0.0512189 0.111361 0.0333726)
(0.046996 0.113059 0.0374049)
(0.042113 0.111704 0.0433042)
(0.0362148 0.106279 0.0502127)
(0.0292846 0.09633 0.0565637)
(0.0213452 0.0821941 0.0602698)
(0.0128406 0.136132 0.0430216)
(0.00753295 0.341979 0.0133237)
(0.00474041 0.51985 0.00460439)
(0.00155703 0.516538 0.00588236)
(0.00479274 -0.389112 0.0323702)
(0.00665572 -0.534167 0.0298232)
(0.00635919 -0.560216 0.0222772)
(0.00557836 -0.563043 0.0167301)
(0.00475536 -0.557344 0.0120089)
(0.00415385 -0.545469 0.00774393)
(0.00387477 -0.528238 0.00389431)
(0.00399115 -0.506331 0.000656138)
(0.0046683 -0.47994 -0.00152513)
(0.00624225 -0.446907 -0.00250319)
(0.00907344 -0.403296 -0.00394835)
(0.0128859 -0.349275 -0.010124)
(0.0166309 -0.2926 -0.0238865)
(0.0193497 -0.243581 -0.0417269)
(0.0209426 -0.206828 -0.0568935)
(0.021988 -0.179048 -0.0658256)
(0.0233299 -0.153482 -0.0675789)
(0.0260342 -0.123436 -0.0600993)
(0.0308392 -0.0844713 -0.0413919)
(0.0371451 -0.0366401 -0.0144229)
(0.0433918 0.0150984 0.0125786)
(0.0476814 0.060567 0.0298357)
(0.0491103 0.0915905 0.0353269)
(0.048322 0.109245 0.0348651)
(0.046354 0.119283 0.033452)
(0.043715 0.125457 0.0329725)
(0.0406272 0.129111 0.0340734)
(0.0371103 0.130387 0.03702)
(0.032971 0.128808 0.0416495)
(0.0283581 0.124144 0.0469381)
(0.0230469 0.114752 0.0520469)
(0.0156727 0.165164 0.0427711)
(0.00860841 0.370989 0.0169164)
(0.00520707 0.54767 0.00694631)
(0.00168728 0.536986 0.00623675)
(-0.00622535 -0.373899 0.028246)
(-0.0157864 -0.492496 0.00614904)
(-0.0184511 -0.522005 -0.00106211)
(-0.0186184 -0.53238 -0.00340204)
(-0.0169686 -0.53424 -0.00369182)
(-0.0137793 -0.529478 -0.00277082)
(-0.00941371 -0.518081 -0.00129824)
(-0.00422362 -0.499431 5.3121e-05)
(0.00132374 -0.473509 0.000602592)
(0.00674196 -0.441634 -6.6281e-05)
(0.0118178 -0.404952 -0.00190008)
(0.0167556 -0.362373 -0.00502542)
(0.0218464 -0.312425 -0.0111632)
(0.026782 -0.258531 -0.022633)
(0.0307289 -0.209151 -0.0380915)
(0.0330737 -0.170519 -0.0528905)
(0.0339633 -0.142355 -0.0636608)
(0.0341056 -0.120051 -0.0694512)
(0.0343861 -0.0975728 -0.0692728)
(0.0359094 -0.0684626 -0.0596741)
(0.0394596 -0.0281207 -0.0371069)
(0.0440653 0.0213242 -0.00611247)
(0.0474592 0.069246 0.0206124)
(0.0481976 0.103809 0.0341074)
(0.0467046 0.123605 0.0373371)
(0.0439836 0.134375 0.0368034)
(0.0405984 0.140435 0.0359294)
(0.0368395 0.143491 0.0360478)
(0.0327679 0.144114 0.0376074)
(0.02886 0.142953 0.0402068)
(0.0246758 0.139814 0.0437261)
(0.0182826 0.205718 0.0368699)
(0.00945527 0.416043 0.0155209)
(0.00474964 0.580181 0.00682449)
(0.00143328 0.556861 0.00474942)
(-0.0113139 -0.287785 -0.00596596)
(-0.0166133 -0.469527 -0.0375591)
(-0.0152033 -0.537119 -0.0406195)
(-0.010903 -0.565815 -0.0390547)
(-0.00533091 -0.579252 -0.0360955)
(0.00106869 -0.583274 -0.0322076)
(0.0078312 -0.578917 -0.0274709)
(0.0146879 -0.565696 -0.0217423)
(0.0215175 -0.542127 -0.0148941)
(0.028142 -0.506888 -0.00724738)
(0.0342304 -0.461024 0.000232107)
(0.0395021 -0.408322 0.0063629)
(0.0439678 -0.35244 0.00999139)
(0.0478692 -0.294544 0.00908229)
(0.0512727 -0.235949 0.00091201)
(0.0538564 -0.181227 -0.0144678)
(0.0552413 -0.1354 -0.0327784)
(0.055404 -0.10005 -0.0490488)
(0.054767 -0.0731888 -0.0606884)
(0.0539717 -0.0506819 -0.0671011)
(0.0537241 -0.0268371 -0.0670938)
(0.0549432 0.0054015 -0.0559766)
(0.0575878 0.0494305 -0.0300457)
(0.0592179 0.0957833 0.00114447)
(0.0578555 0.130277 0.0233235)
(0.0542397 0.149689 0.0336566)
(0.0496776 0.159476 0.0372684)
(0.0445319 0.16407 0.0382582)
(0.0388459 0.165255 0.03858)
(0.033496 0.164518 0.0390363)
(0.027766 0.163221 0.0402797)
(0.020658 0.250102 0.0326235)
(0.0112789 0.477573 0.0110631)
(0.00558894 0.613882 0.0030592)
(0.00213531 0.577749 0.000503121)
(-0.0020905 -0.242881 -0.0286121)
(0.00589753 -0.472326 -0.0457404)
(0.0126858 -0.568586 -0.0469557)
(0.0199775 -0.602364 -0.0475901)
(0.02654 -0.613158 -0.0488472)
(0.0327573 -0.612319 -0.0507927)
(0.0384135 -0.602391 -0.0534092)
(0.0432632 -0.584242 -0.0563869)
(0.0472413 -0.558543 -0.0589391)
(0.0503621 -0.525514 -0.0596724)
(0.0527387 -0.484481 -0.0566637)
(0.0546223 -0.435247 -0.0477192)
(0.0563493 -0.379534 -0.0317375)
(0.0580674 -0.319888 -0.0113112)
(0.0596017 -0.258782 0.00625651)
(0.0605466 -0.199922 0.0120784)
(0.0606863 -0.147521 0.00315979)
(0.0601899 -0.103649 -0.015292)
(0.0592057 -0.0681537 -0.0353332)
(0.0576031 -0.0396843 -0.051534)
(0.0553103 -0.0154302 -0.0621382)
(0.0523862 0.00960229 -0.0661943)
(0.0494369 0.04298 -0.0591158)
(0.0475674 0.0881423 -0.0365219)
(0.0459856 0.132948 -0.00783837)
(0.0436731 0.163682 0.0136457)
(0.0409736 0.179927 0.0252653)
(0.0380301 0.187899 0.0309645)
(0.0344895 0.191546 0.0338896)
(0.0307872 0.193025 0.0353249)
(0.0257931 0.195184 0.0362157)
(0.0182636 0.285279 0.0296405)
(0.00940725 0.530316 0.00879352)
(0.00416687 0.644486 0.000968921)
(0.00211277 0.598283 -0.00235239)
(0.00536106 -0.304847 -0.0252271)
(0.0231925 -0.538444 -0.0230161)
(0.0338556 -0.627346 -0.0212314)
(0.0396427 -0.653175 -0.0214859)
(0.0437429 -0.656649 -0.0228491)
(0.0471746 -0.648263 -0.0252628)
(0.0497357 -0.629448 -0.029085)
(0.0512487 -0.599978 -0.0350559)
(0.0516022 -0.559597 -0.044288)
(0.0506137 -0.509387 -0.0581216)
(0.0480601 -0.452928 -0.0766283)
(0.0441724 -0.396951 -0.0936464)
(0.040121 -0.345381 -0.0971875)
(0.0370356 -0.293925 -0.0801504)
(0.0352549 -0.236581 -0.0449577)
(0.0339813 -0.174417 -0.00752653)
(0.0315833 -0.116903 0.012003)
(0.0276236 -0.0691289 0.00886827)
(0.0227283 -0.0272703 -0.00746032)
(0.0177956 0.0131671 -0.023559)
(0.0136066 0.051165 -0.0317834)
(0.0100095 0.0853481 -0.0314233)
(0.00708357 0.116226 -0.0240323)
(0.00544527 0.143911 -0.0117811)
(0.00545545 0.165995 0.00115213)
(0.00660492 0.18072 0.0109649)
(0.00816655 0.189819 0.0173489)
(0.00971889 0.195685 0.0215548)
(0.0110123 0.200005 0.0244328)
(0.0119984 0.205343 0.0263749)
(0.0115724 0.224313 0.0274936)
(0.00807234 0.353231 0.0204727)
(0.00131821 0.590627 0.00214471)
(-0.00145249 0.667459 -0.00390751)
(-0.000296427 0.611115 -0.00676433)
(0.0103743 -0.421516 -0.014959)
(0.0255816 -0.616854 -0.0115091)
(0.0348646 -0.665196 -0.0104055)
(0.0390963 -0.673779 -0.00965361)
(0.041072 -0.667995 -0.0094733)
(0.0414948 -0.652535 -0.00967959)
(0.0401075 -0.627661 -0.0102476)
(0.0366455 -0.59203 -0.01157)
(0.030983 -0.543852 -0.0150277)
(0.0234542 -0.481408 -0.024763)
(0.0148368 -0.405528 -0.0491235)
(0.00599519 -0.329253 -0.0879906)
(-0.00142562 -0.271856 -0.117266)
(-0.00624659 -0.230602 -0.122159)
(-0.00889609 -0.18975 -0.102804)
(-0.00901241 -0.13698 -0.0598536)
(-0.00725972 -0.0742593 -0.0117146)
(-0.00563693 -0.016837 0.0177861)
(-0.00443235 0.0251331 0.0232605)
(-0.00412618 0.0550862 0.0147501)
(-0.00463632 0.0781817 0.00319703)
(-0.00521251 0.0984952 -0.00380741)
(-0.00546206 0.118177 -0.00450697)
(-0.00509276 0.136861 -0.00049044)
(-0.00400654 0.15245 0.00521385)
(-0.002451 0.163961 0.0102485)
(-0.000742761 0.172274 0.014011)
(0.000889152 0.178784 0.0167339)
(0.00227544 0.185101 0.0186962)
(0.00334356 0.195294 0.0202085)
(0.00367546 0.230712 0.0213629)
(0.00280037 0.391181 0.0166014)
(6.48619e-05 0.628091 -0.000997716)
(-0.00141106 0.680256 -0.00658346)
(-0.000540212 0.6089 -0.00844235)
(0.00499785 -0.523339 0.00296728)
(0.00260093 -0.667193 0.00218594)
(0.0013571 -0.680392 -0.00117238)
(-1.20721e-05 -0.672566 -0.00432696)
(-0.00140716 -0.654593 -0.00755901)
(-0.00298091 -0.626899 -0.0109726)
(-0.00525798 -0.587396 -0.0150465)
(-0.00892321 -0.534564 -0.0201959)
(-0.0143869 -0.471284 -0.0262243)
(-0.0208614 -0.403083 -0.0341637)
(-0.0265702 -0.33352 -0.0506701)
(-0.0295669 -0.269433 -0.0822818)
(-0.0298689 -0.225229 -0.114069)
(-0.0282669 -0.201598 -0.12906)
(-0.0258668 -0.185552 -0.133196)
(-0.0224274 -0.168007 -0.129152)
(-0.016502 -0.140189 -0.110416)
(-0.0083775 -0.0976543 -0.0741802)
(-0.000831252 -0.0453725 -0.0324096)
(0.00458932 0.00898418 0.00194072)
(0.0072609 0.0564001 0.0204268)
(0.00767309 0.0920627 0.0248668)
(0.00718589 0.117266 0.0229237)
(0.00667343 0.135148 0.0202199)
(0.00639627 0.148082 0.0186619)
(0.0062858 0.157726 0.018259)
(0.00618954 0.165277 0.0186369)
(0.00597969 0.171682 0.0194515)
(0.00559948 0.178175 0.0203866)
(0.00501479 0.188473 0.0211877)
(0.00419631 0.222641 0.0213288)
(0.0028775 0.378882 0.0181527)
(0.00147781 0.62997 0.0037283)
(0.000641658 0.680338 -0.00157474)
(0.000727015 0.603983 -0.00348066)
(-0.00762228 -0.446424 0.0108443)
(-0.0202502 -0.59111 0.00796009)
(-0.0280692 -0.616729 0.00684773)
(-0.0338766 -0.618464 0.00595965)
(-0.0385839 -0.607035 0.00487973)
(-0.0416633 -0.581113 0.0027734)
(-0.0429698 -0.536728 -0.00181092)
(-0.0422588 -0.473896 -0.0106147)
(-0.039711 -0.402319 -0.0238684)
(-0.0360838 -0.336302 -0.0387891)
(-0.0319389 -0.283704 -0.0520132)
(-0.027532 -0.242722 -0.0632507)
(-0.0233412 -0.209292 -0.0738254)
(-0.0200768 -0.181723 -0.0827193)
(-0.0179118 -0.158201 -0.0883709)
(-0.0165456 -0.1359 -0.0903058)
(-0.0155579 -0.11158 -0.0874929)
(-0.0142415 -0.0806451 -0.0765007)
(-0.0120887 -0.0392551 -0.053527)
(-0.00967627 0.00978024 -0.0233393)
(-0.00755113 0.0571877 0.00162921)
(-0.00576379 0.0949354 0.0150165)
(-0.00424694 0.12166 0.0199981)
(-0.00292078 0.140094 0.0212526)
(-0.00178832 0.153293 0.0213392)
(-0.000894786 0.163316 0.0212684)
(-0.000278558 0.171382 0.0213805)
(5.98163e-05 0.178362 0.0217389)
(0.000172743 0.185517 0.0222628)
(8.13005e-05 0.197112 0.0227802)
(1.61853e-05 0.235859 0.0224958)
(-0.000528542 0.399244 0.0182533)
(-0.000811145 0.641437 0.00823503)
(-0.000647764 0.68686 0.00399389)
(-0.000249256 0.607477 0.00170479)
(-0.00544472 -0.380857 0.0074883)
(-0.0101014 -0.567486 0.00442498)
(-0.0144588 -0.608166 0.00440849)
(-0.0174267 -0.618309 0.00554544)
(-0.0200708 -0.615457 0.00755943)
(-0.022025 -0.601011 0.0104174)
(-0.0226327 -0.573663 0.0140345)
(-0.0209846 -0.532019 0.0175085)
(-0.0163949 -0.476329 0.0187009)
(-0.00935181 -0.41017 0.0154315)
(-0.0015866 -0.341663 0.00738429)
(0.0049802 -0.279657 -0.00371693)
(0.00934666 -0.228225 -0.0157759)
(0.0114407 -0.187239 -0.0270314)
(0.0116143 -0.154809 -0.0358402)
(0.0104452 -0.127739 -0.0412328)
(0.00858523 -0.102056 -0.042683)
(0.00668062 -0.0736072 -0.0391634)
(0.00551329 -0.0385974 -0.0286873)
(0.00620425 0.00382496 -0.0107638)
(0.00793372 0.0477561 0.00845452)
(0.00895025 0.0836065 0.020014)
(0.0091803 0.10868 0.0234295)
(0.00893243 0.126901 0.0231571)
(0.00849589 0.141632 0.0220545)
(0.00804492 0.154169 0.0211221)
(0.00761962 0.165053 0.0206415)
(0.00714315 0.174925 0.0206212)
(0.00655301 0.185081 0.0209446)
(0.00589956 0.200054 0.0214958)
(0.00514127 0.242877 0.0219616)
(0.00353861 0.413913 0.0189672)
(0.00241272 0.648715 0.0123872)
(0.00199882 0.691883 0.00899813)
(0.00100487 0.610181 0.00621412)
(0.000836948 -0.399277 0.00303488)
(0.00265521 -0.569021 -0.000104857)
(0.00368006 -0.611406 -0.0024024)
(0.00436417 -0.622534 -0.00486584)
(0.00501022 -0.620937 -0.00753949)
(0.00562264 -0.609853 -0.010085)
(0.00610864 -0.590361 -0.0114954)
(0.0062658 -0.563423 -0.009783)
(0.00619692 -0.528697 -0.00282319)
(0.00672555 -0.481807 0.00880502)
(0.00901856 -0.417914 0.0191284)
(0.0131918 -0.342344 0.0208608)
(0.0179147 -0.267716 0.0127348)
(0.0217914 -0.202536 -0.00156922)
(0.0240928 -0.149683 -0.0171611)
(0.0248024 -0.109058 -0.0300914)
(0.0244405 -0.0784039 -0.0385806)
(0.0237113 -0.0539748 -0.0425632)
(0.0232124 -0.0313416 -0.0420913)
(0.0234233 -0.00570046 -0.035933)
(0.0248501 0.0270803 -0.0216858)
(0.0272855 0.0661535 -0.000624396)
(0.0290338 0.102754 0.0189074)
(0.0291168 0.128634 0.0297046)
(0.0280218 0.144708 0.0329731)
(0.0263697 0.1558 0.0325681)
(0.0244546 0.165126 0.0307389)
(0.0224516 0.174205 0.0285757)
(0.0204446 0.184322 0.0266287)
(0.0185495 0.19973 0.0249731)
(0.0166974 0.246554 0.0228489)
(0.0125859 0.415719 0.0190896)
(0.00875709 0.651227 0.0146568)
(0.00668892 0.701599 0.0120805)
(0.0036868 0.622779 0.00917781)
(-0.00278926 -0.389943 0.00458275)
(-0.00169581 -0.577105 0.00953781)
(0.000254575 -0.623568 0.0112713)
(0.00215909 -0.634839 0.0103368)
(0.0039541 -0.631031 0.00730847)
(0.00549993 -0.613271 0.00137361)
(0.00651499 -0.578804 -0.00838513)
(0.00668791 -0.529208 -0.0207001)
(0.00598572 -0.474971 -0.0306743)
(0.00499663 -0.426027 -0.0330656)
(0.00477552 -0.381536 -0.0259954)
(0.00661403 -0.332877 -0.0123637)
(0.0111149 -0.275167 0.000396465)
(0.0172258 -0.212963 0.00515056)
(0.0231667 -0.154455 -0.000140677)
(0.0276477 -0.105159 -0.012017)
(0.0303411 -0.0662198 -0.0248545)
(0.0315961 -0.0358041 -0.0348244)
(0.0319203 -0.0111293 -0.0407913)
(0.0317386 0.0107382 -0.042771)
(0.0314591 0.0329539 -0.0403129)
(0.0315512 0.0588003 -0.0318794)
(0.0322316 0.0893447 -0.0167751)
(0.0329211 0.119935 0.000830394)
(0.0328743 0.144357 0.0148197)
(0.0320785 0.161403 0.0232279)
(0.0308414 0.173629 0.0274522)
(0.0293471 0.183708 0.0291232)
(0.0277247 0.193644 0.0292389)
(0.0257695 0.207352 0.0284321)
(0.0227272 0.262053 0.0245256)
(0.0167398 0.440616 0.0182092)
(0.0105933 0.676483 0.015003)
(0.00682353 0.730555 0.0128175)
(0.00384635 0.653618 0.00954353)
(0.00117911 -0.391231 0.00154172)
(0.00936208 -0.603872 0.0129157)
(0.0139268 -0.659132 0.017046)
(0.0172603 -0.672274 0.0177128)
(0.0197248 -0.668791 0.0160947)
(0.0211426 -0.651517 0.0116234)
(0.0212181 -0.619275 0.00328111)
(0.0202249 -0.573423 -0.00910998)
(0.0189516 -0.52011 -0.0236665)
(0.0178633 -0.4679 -0.0364462)
(0.0169758 -0.422384 -0.0432153)
(0.0164687 -0.381478 -0.0410459)
(0.0171285 -0.336918 -0.0283339)
(0.0200003 -0.280679 -0.00779226)
(0.0249045 -0.213412 0.0110356)
(0.0299369 -0.145324 0.0182171)
(0.0329468 -0.0878908 0.0119157)
(0.033296 -0.0442778 -0.00106206)
(0.0318505 -0.00936705 -0.012879)
(0.0297568 0.022044 -0.0198519)
(0.0277158 0.0520596 -0.0211856)
(0.0260071 0.0809455 -0.0170463)
(0.0248242 0.108083 -0.00834369)
(0.0242871 0.13191 0.00255945)
(0.0242635 0.150814 0.0124956)
(0.0244914 0.164989 0.0198094)
(0.0247975 0.176126 0.0246425)
(0.0251007 0.186186 0.0275888)
(0.0253149 0.19784 0.0290849)
(0.024679 0.220257 0.0291726)
(0.0214831 0.308848 0.0221996)
(0.0112852 0.504481 0.010043)
(0.0037413 0.716598 0.0069852)
(0.000629749 0.760698 0.00485095)
(-0.000184072 0.677504 0.00206684)
(0.00642018 -0.460368 0.0128127)
(0.0147757 -0.64289 0.0277531)
(0.0190548 -0.681024 0.0299695)
(0.0211976 -0.684229 0.02857)
(0.0224692 -0.671103 0.0243302)
(0.0225983 -0.641535 0.0162786)
(0.0212052 -0.595161 0.00390948)
(0.0184231 -0.539072 -0.0107954)
(0.0150779 -0.481942 -0.025386)