/*--------------------------------*- C++ -*----------------------------------*\
| =========                 |                                                 |
| \\      /  F ield         | OpenFOAM: The Open Source CFD Toolbox           |
|  \\    /   O peration     | Version:  v1906                                 |
|   \\  /    A nd           | Web:      www.OpenFOAM.com                      |
|    \\/     M anipulation  |                                                 |
\*---------------------------------------------------------------------------*/
FoamFile
{
    version     2.0;
    format      ascii;
    class       volScalarField;
    location    "4.4/sphere";
    object      T;
}
// * * * * * * * * * * * * * * * * * * * * * * * * * * * * * * * * * * * * * //

dimensions      [0 0 0 1 0 0 0];


internalField   nonuniform List<scalar> 
304
(
496.975
497.019
497.017
497.042
496.981
496.98
496.975
497.02
496.972
497.174
497.174
497.028
497.017
497.173
497.174
497.075
497.028
497.074
496.972
497.018
497.042
496.978
497.021
497.175
497.174
497.075
497.044
497.175
497.174
497.112
496.978
497.074
497.112
497.023
496.98
497.032
497.074
496.972
496.987
497.076
497.112
497.021
496.973
497.023
496.958
496.956
496.98
496.982
496.973
497.024
496.98
496.981
497.024
496.973
496.956
496.979
496.971
496.979
497.022
497.02
497.019
497.042
497.03
497.076
497.074
497.111
496.974
497.042
497.019
497.076
497.03
497.112
497.075
496.979
496.971
497.023
496.98
496.976
496.976
497.02
496.969
497.041
496.97
497.017
497.073
497.111
497.026
497.073
497.02
497.019
496.974
497.111
497.075
497.075
497.029
497.023
496.979
496.97
496.955
496.978
496.969
497.021
496.977
497.022
496.971
496.977
496.954
496.971
496.978
496.979
497.023
497.02
497.03
497.076
497.018
497.043
497.075
497.112
496.977
497.076
497.031
497.043
497.02
497.112
497.075
496.972
496.98
497.023
496.981
497.029
497.018
497.074
497.019
497.075
497.042
497.112
496.972
497.074
497.02
497.075
497.02
497.112
497.042
497.073
496.972
497.028
497.042
497.112
497.018
497.074
497.019
497.029
496.974
497.112
497.042
497.075
497.019
496.972
496.978
497.023
496.978
497.074
496.973
497.018
497.074
497.111
497.018
497.042
497.028
497.018
496.972
497.111
497.074
497.042
497.018
497.022
496.977
496.977
496.978
496.98
497.024
496.976
497.042
497.075
497.112
496.974
497.018
497.031
497.075
497.018
497.112
497.074
497.019
496.971
497.074
497.027
497.022
496.979
496.97
497.077
497.044
497.112
496.979
497.034
497.022
497.077
497.019
497.112
497.043
497.029
496.976
497.075
497.02
497.112
497.02
497.075
497.023
497.078
496.977
497.032
497.043
497.075
497.019
497.074
497.019
497.03
496.974
497.022
496.978
496.974
497.112
497.018
497.042
497.03
497.075
496.974
497.02
497.075
497.043
497.02
497.076
497.031
497.02
496.978
496.98
496.979
496.974
496.962
496.978
496.974
497.023
496.979
497.022
496.971
496.978
496.955
496.977
496.982
497.026
496.983
497.076
497.077
497.113
496.979
497.021
497.022
497.044
497.029
497.112
497.075
497.019
496.973
497.043
497.018
497.023
496.98
496.978
497.026
496.976
496.98
497.112
497.03
497.075
497.02
497.043
496.974
497.02
497.074
497.075
497.03
497.042
497.018
497.019
496.974
496.978
496.972
496.976
496.959
497.023
496.98
496.98
496.974
496.98
496.979
)
;

boundaryField
{
    sphere_to_oil
    {
        type            compressible::turbulentTemperatureCoupledBaffleMixed;
        refValue        nonuniform List<scalar> 
360
(
309.821
309.821
302.7
322.13
323.45
303.238
324.147
324.147
324.147
309.826
309.826
303.231
303.573
302.396
308.945
324.255
322.806
322.806
322.806
302.403
320.743
309.046
306.228
323.029
302.731
323.976
303.231
323.764
323.764
323.764
324.463
323.822
302.694
302.678
303.196
303.235
322.578
322.578
322.578
322.097
323.444
302.791
303.24
309.753
309.753
303.209
303.526
302.326
309.251
324.167
303.301
303.242
303.506
303.561
302.319
308.92
323.188
302.371
303.211
303.457
302.418
323.91
323.91
323.91
302.324
323.395
309.103
305.754
324.035
324.035
324.035
323.318
322.971
302.345
320.122
308.57
302.389
305.859
323.304
323.244
306.301
305.612
306.135
302.429
302.701
303.22
303.295
303.545
302.343
302.43
302.711
303.541
303.282
302.698
303.511
303.258
303.276
303.218
302.734
302.402
302.427
302.345
303.242
303.29
303.546
302.333
302.459
303.58
302.752
303.263
303.289
303.24
302.741
302.356
302.446
302.429
305.978
305.773
305.973
309.877
309.877
322.13
322.13
323.029
323.029
322.921
322.921
322.921
322.887
322.887
322.887
306.007
305.694
305.911
302.459
323.45
323.45
309.726
309.726
324.463
324.463
308.826
308.826
324.286
324.286
324.286
302.446
302.457
324.576
324.576
324.576
325.335
325.335
325.335
324.255
320.743
308.945
324.255
323.56
302.362
323.56
323.56
306.186
306.027
305.908
308.84
308.84
324.356
324.356
324.356
302.336
320.743
309.046
324.183
324.183
302.352
324.183
306.291
305.862
302.355
303.209
303.251
303.588
302.709
303.526
303.266
302.345
302.432
323.976
323.976
323.822
323.822
309.719
309.719
322.335
322.335
322.335
309.395
309.395
302.408
303.191
303.268
303.583
303.243
303.232
303.587
302.725
303.568
303.222
302.715
322.097
303.581
303.272
302.393
323.361
323.361
323.361
309.232
309.232
302.335
303.27
303.272
303.437
323.444
302.713
303.417
303.241
322.097
323.444
309.185
302.335
309.185
302.389
302.441
303.515
302.726
303.257
303.244
303.284
302.709
302.341
324.311
321.088
324.311
324.311
321.088
321.088
324.167
323.395
309.251
323.338
302.432
324.167
323.338
323.338
303.452
302.71
303.312
303.534
302.726
323.318
303.208
303.241
303.29
302.722
323.188
320.122
303.232
303.257
302.725
321.895
323.757
308.92
323.587
302.437
323.188
323.587
323.587
303.509
302.744
323.304
303.245
303.195
303.212
323.51
302.743
323.032
309.28
321.895
309.28
323.51
321.895
323.51
302.331
305.568
305.487
305.613
309.543
322.567
309.543
322.567
322.567
302.38
323.395
323.544
309.103
323.544
302.416
323.544
305.907
305.882
302.305
322.144
308.982
322.144
322.144
308.982
302.383
303.222
303.26
303.57
322.971
323.318
309.214
302.42
322.971
309.214
302.37
320.122
324.153
308.57
324.153
302.259
324.153
303.581
323.244
302.753
303.242
323.42
322.494
323.757
309.025
323.757
323.42
309.025
323.42
305.596
306.178
323.304
309.29
302.362
323.244
309.29
302.429
323.032
322.494
323.032
309.533
322.494
309.533
)
;
        refGradient     uniform 0;
        valueFraction   nonuniform List<scalar> 
360
(
0.000127937
0.000122738
7.85782e-05
0.000280726
0.000287911
0.00016508
0.000289701
0.000248666
0.000387079
0.000123233
0.00012015
0.00016118
0.000245644
7.0236e-05
0.000125643
0.000244245
0.000279901
0.000261524
0.000366991
6.42694e-05
0.00024095
0.00011845
0.000109173
0.000289716
8.41117e-05
0.000297795
0.00016785
0.000293948
0.000384701
0.000257327
0.000294
0.000296531
7.96211e-05
7.87316e-05
0.000165218
0.000162589
0.000275138
0.000373014
0.000256132
0.000385134
0.000380432
8.12274e-05
0.000161111
0.000117589
0.000117448
0.000165851
0.000248129
6.62011e-05
0.000118456
0.00025119
0.00016361
0.000164673
0.00024546
0.000243075
6.86755e-05
0.000125634
0.000256209
6.57892e-05
0.00016298
0.000243037
6.4396e-05
0.000286137
0.000252586
0.000395343
6.63902e-05
0.00025826
0.000120463
0.000116515
0.000292748
0.000381914
0.00025689
0.000368288
0.000373443
7.13159e-05
0.000248983
0.000126306
6.57518e-05
0.000117906
0.000372647
0.000387113
0.000115643
0.000113462
0.000111443
6.62303e-05
7.98678e-05
0.000161919
0.000162825
0.00024658
7.44346e-05
6.28485e-05
7.90438e-05
0.000246179
0.000162518
8.07439e-05
0.000245772
0.000164373
0.0001634
0.000163651
7.98056e-05
6.39683e-05
6.48657e-05
6.40026e-05
0.000164536
0.000161716
0.000245993
7.24254e-05
6.29088e-05
0.000245815
7.80929e-05
0.00016197
0.000162001
0.000165305
8.08342e-05
6.47276e-05
6.31262e-05
6.43459e-05
0.000112008
0.000112142
0.000116499
0.000126323
0.000118726
0.000245324
0.000386482
0.000258466
0.000390037
0.000250002
0.000384377
0.000286183
0.000250204
0.00037601
0.000281843
0.000114958
0.000108714
0.000111351
6.14679e-05
0.000254938
0.000383859
0.000118755
0.000119298
0.000387925
0.00025791
0.00012449
0.000131206
0.000383149
0.000263195
0.000303284
6.76492e-05
6.29547e-05
0.000265731
0.000368248
0.000291885
0.000273604
0.000380998
0.000291854
0.00030133
0.000277561
0.000129831
0.000387011
0.000249976
6.96913e-05
0.000376149
0.000281475
0.000107415
0.000113167
0.000111955
0.000118103
0.000123456
0.000385077
0.00025354
0.000297609
7.13535e-05
0.000370425
0.000127009
0.000389513
0.000249342
6.96969e-05
0.000295651
0.000108369
0.000109374
6.39015e-05
0.000167491
0.000167425
0.000247564
8.25571e-05
0.000247937
0.000163139
6.32452e-05
6.14133e-05
0.000387473
0.000246184
0.000382923
0.000255287
0.000121768
0.000113876
0.000384709
0.000240427
0.000277917
0.000112561
0.000130607
6.57063e-05
0.000164548
0.000164398
0.000245623
0.000160827
0.000161655
0.000244655
8.38585e-05
0.000245494
0.000166455
8.15499e-05
0.000276337
0.000245222
0.000165458
6.59403e-05
0.000376302
0.000243939
0.000285416
0.000118902
0.000110496
6.38249e-05
0.000163268
0.000166014
0.000246146
0.000279875
7.82723e-05
0.00024381
0.000159233
0.00024221
0.000256416
0.000116392
6.5375e-05
0.000129156
6.61834e-05
6.22991e-05
0.000248894
8.30635e-05
0.000167328
0.000165393
0.000163422
8.20196e-05
6.26507e-05
0.000254497
0.000238468
0.000400355
0.000297996
0.000373506
0.000268355
0.000287632
0.000294496
0.000130896
0.000252635
6.8063e-05
0.000384466
0.000373835
0.000284027
0.00024771
7.89317e-05
0.00016118
0.000244862
7.9639e-05
0.000291794
0.000161879
0.000163035
0.000161533
7.91558e-05
0.000289613
0.000271392
0.000164804
0.000160544
8.06803e-05
0.000271927
0.000299321
0.000118701
0.000268691
6.38106e-05
0.000382816
0.000371141
0.000280432
0.000243045
7.98444e-05
0.000280872
0.000161719
0.000161968
0.00016289
0.000282401
8.05923e-05
0.000288531
0.000121402
0.000248763
0.000122415
0.000253498
0.000386328
0.000379265
6.37807e-05
0.000127814
0.000126305
0.000123537
0.000112501
0.000376414
0.000122873
0.000250233
0.000294666
6.28511e-05
0.00038009
0.000379631
0.000124268
0.000269915
6.58656e-05
0.000289374
0.000110174
0.000108234
6.58111e-05
0.00037228
0.000111251
0.000244134
0.00028753
0.000119272
6.50191e-05
0.000161781
0.000161726
0.000244039
0.000279263
0.000242218
0.000117105
6.30346e-05
0.000246276
0.000130064
7.28007e-05
0.000356898
0.000383239
0.000113258
0.000243435
6.74897e-05
0.000306161
0.000245909
0.000294651
8.06014e-05
0.000162477
0.00028408
0.000275409
0.000259099
0.000115807
0.000379553
0.000378736
0.000137473
0.000253155
0.00011138
0.000113089
0.000254857
0.000126156
6.82085e-05
0.000257754
0.000121477
6.29895e-05
0.000375161
0.000379663
0.000249796
0.000121223
0.000245369
0.000125221
)
;
        value           nonuniform List<scalar> 
360
(
496.982
496.984
496.986
496.952
496.951
497.013
496.95
496.961
496.93
496.979
496.98
497.012
497.02
496.993
496.983
496.964
496.947
496.958
496.931
496.994
496.964
496.984
496.959
496.95
496.984
496.949
497.013
496.951
496.931
496.961
496.947
496.946
496.982
496.982
497.01
497.013
496.949
496.933
496.959
496.93
496.931
496.983
497.013
496.981
496.984
497.012
497.02
496.991
496.981
496.96
497.015
497.013
497.022
497.021
496.99
496.98
496.959
496.993
497.012
497.022
496.992
496.95
496.96
496.931
496.993
496.961
496.983
496.958
496.954
496.936
496.964
496.934
496.933
496.998
496.968
496.988
496.991
496.963
496.934
496.931
496.962
496.962
496.963
496.993
496.99
497.013
497.014
497.02
496.987
496.993
496.984
497.02
497.013
496.982
497.021
497.012
497.012
497.013
496.984
496.993
496.993
496.992
497.014
497.013
497.02
496.99
496.99
497.019
496.981
497.011
497.014
497.012
496.984
496.991
496.995
496.994
496.96
496.96
496.96
496.982
496.985
496.963
496.931
496.962
496.931
496.962
496.932
496.95
496.963
496.933
496.953
496.96
496.961
496.961
496.993
496.96
496.93
496.982
496.983
496.93
496.96
496.981
496.981
496.93
496.96
496.945
496.992
496.99
496.956
496.931
496.945
496.955
496.929
496.947
496.948
496.951
496.98
496.929
496.961
496.991
496.931
496.951
496.96
496.959
496.959
496.981
496.98
496.928
496.959
496.947
496.989
496.932
496.979
496.93
496.96
496.989
496.947
496.959
496.959
496.991
497.013
497.012
497.02
496.986
497.021
497.014
496.993
496.993
496.93
496.961
496.93
496.96
496.981
496.983
496.931
496.965
496.949
496.984
496.982
496.994
497.012
497.013
497.021
497.014
497.014
497.021
496.981
497.021
497.011
496.983
496.951
497.021
497.012
496.991
496.932
496.961
496.949
496.982
496.983
496.991
497.012
497.011
497.02
496.949
496.983
497.021
497.013
496.961
496.958
496.981
496.99
496.978
496.99
496.991
497.02
496.983
497.012
497.012
497.013
496.981
496.994
496.959
496.964
496.933
496.948
496.936
496.958
496.947
496.945
496.98
496.961
496.991
496.929
496.93
496.952
497.021
496.99
497.017
497.021
496.986
496.951
497.014
497.014
497.018
496.988
496.953
496.955
497.013
497.014
496.984
496.952
496.948
496.981
496.957
496.991
496.933
496.935
496.951
497.021
496.984
496.951
497.014
497.014
497.014
496.954
496.988
496.953
496.983
496.962
496.982
496.961
496.932
496.934
496.991
496.963
496.963
496.963
496.982
496.934
496.982
496.961
496.954
496.992
496.93
496.93
496.981
496.957
496.991
496.948
496.959
496.96
496.995
496.937
496.987
496.966
496.955
496.986
496.996
497.015
497.016
497.022
496.95
496.963
496.983
496.993
496.961
496.979
496.989
496.938
496.935
496.985
496.964
496.993
496.946
497.021
496.948
496.984
497.014
496.951
496.952
496.959
496.982
496.932
496.932
496.976
496.958
496.964
496.963
496.961
496.981
496.992
496.961
496.983
496.993
496.934
496.933
496.962
496.983
496.962
496.982
)
;
        Tnbr            T;
        thicknessLayers 0();
        kappaLayers     0();
        kappaMethod     solidThermo;
        kappa           none;
        alphaAni        none;
    }
}


// ************************************************************************* //
