/*--------------------------------*- C++ -*----------------------------------*\
| =========                 |                                                 |
| \\      /  F ield         | OpenFOAM: The Open Source CFD Toolbox           |
|  \\    /   O peration     | Version:  v1912                                 |
|   \\  /    A nd           | Website:  www.openfoam.com                      |
|    \\/     M anipulation  |                                                 |
\*---------------------------------------------------------------------------*/
FoamFile
{
    version     2.0;
    format      ascii;
    class       surfaceScalarField;
    location    "212/oil";
    object      phi;
}
// * * * * * * * * * * * * * * * * * * * * * * * * * * * * * * * * * * * * * //

dimensions      [1 0 -1 0 0 0 0];
oriented        oriented;


internalField   nonuniform List<scalar> 
104676
(
-1.02657e-11
2.52981e-11
-1.32327e-11
2.60643e-10
-2.14286e-10
-5.65631e-11
8.14306e-10
-4.01129e-10
-1.52523e-10
1.56503e-09
-4.89056e-10
-2.61632e-10
2.40247e-09
-4.99904e-10
-3.37494e-10
3.21648e-09
-4.54614e-10
-3.5937e-10
3.90772e-09
-3.69619e-10
-3.21592e-10
4.39314e-09
-2.57108e-10
-2.28288e-10
4.60803e-09
-1.26504e-10
-8.8371e-11
4.51725e-09
1.0446e-11
8.03547e-11
4.10359e-09
1.51899e-10
2.61775e-10
3.39572e-09
2.67358e-10
4.40547e-10
2.4306e-09
3.72282e-10
5.92869e-10
1.27752e-09
4.48292e-10
7.04831e-10
2.47002e-11
4.88469e-10
7.64401e-10
-1.23206e-09
4.90653e-10
7.66149e-10
-2.38837e-09
4.48741e-10
7.07595e-10
-3.35748e-09
3.72029e-10
5.971e-10
-4.07238e-09
2.69048e-10
4.45868e-10
-4.49133e-09
1.48718e-10
2.70252e-10
-4.59341e-09
1.16076e-11
9.05001e-11
-4.38347e-09
-1.28976e-10
-8.09183e-11
-3.90216e-09
-2.59081e-10
-2.22189e-10
-3.21405e-09
-3.71461e-10
-3.16607e-10
-2.40262e-09
-4.56104e-10
-3.55292e-10
-1.56706e-09
-5.02297e-10
-3.33236e-10
-8.17001e-10
-4.92771e-10
-2.57265e-10
-2.63031e-10
-4.05509e-10
-1.48441e-10
8.91035e-12
-2.18423e-10
-5.34953e-11
2.06063e-11
-1.16822e-11
2.66099e-10
-5.06851e-10
2.661e-10
1.02562e-09
-1.51994e-09
5.46175e-10
2.23154e-09
-2.28332e-09
6.76319e-10
3.74961e-09
-2.74802e-09
7.40928e-10
5.39735e-09
-2.97051e-09
8.22909e-10
6.97835e-09
-3.00582e-09
9.70242e-10
8.30712e-09
-2.90096e-09
1.2026e-09
9.22317e-09
-2.69296e-09
1.51984e-09
9.60142e-09
-2.41284e-09
1.90812e-09
9.36176e-09
-2.08854e-09
2.33867e-09
8.4669e-09
-1.74741e-09
2.7942e-09
6.96623e-09
-1.44868e-09
3.21673e-09
4.97192e-09
-1.18595e-09
3.55259e-09
2.61026e-09
-9.95866e-10
3.80588e-09
4.98481e-11
-8.96427e-10
3.94537e-09
-2.52053e-09
-8.97003e-10
3.95808e-09
-4.88869e-09
-1.00037e-09
3.81731e-09
-6.88498e-09
-1.19372e-09
3.56207e-09
-8.37337e-09
-1.45697e-09
3.21443e-09
-9.271e-09
-1.7614e-09
2.80778e-09
-9.525e-09
-2.09786e-09
2.36352e-09
-9.15961e-09
-2.41982e-09
1.92551e-09
-8.25918e-09
-2.69721e-09
1.53776e-09
-6.94717e-09
-2.90436e-09
1.22094e-09
-5.37999e-09
-3.01022e-09
9.86972e-10
-3.74454e-09
-2.97651e-09
8.38802e-10
-2.23423e-09
-2.75817e-09
7.55121e-10
-1.02931e-09
-2.29682e-09
6.86417e-10
-2.67258e-10
-1.53115e-09
5.50698e-10
-5.1298e-10
2.66345e-10
5.59075e-10
-1.63033e-09
5.64404e-10
1.77621e-09
-3.94414e-09
1.20709e-09
3.48265e-09
-5.59648e-09
1.60674e-09
5.51052e-09
-6.67395e-09
1.89811e-09
7.64996e-09
-7.29268e-09
2.18278e-09
9.67002e-09
-7.54858e-09
2.52274e-09
1.13451e-08
-7.52406e-09
2.94804e-09
1.24754e-08
-7.28702e-09
3.46383e-09
1.29049e-08
-6.89916e-09
4.0569e-09
1.25338e-08
-6.41229e-09
4.69488e-09
1.13132e-08
-5.88263e-09
5.35583e-09
9.29482e-09
-5.38195e-09
5.95168e-09
6.62471e-09
-4.94292e-09
6.42713e-09
3.47502e-09
-4.62238e-09
6.77627e-09
6.4157e-11
-4.45712e-09
6.97162e-09
-3.36303e-09
-4.46495e-09
6.99519e-09
-6.5226e-09
-4.63315e-09
6.7924e-09
-9.19321e-09
-4.95539e-09
6.43231e-09
-1.12e-08
-5.39114e-09
5.94099e-09
-1.24366e-08
-5.89617e-09
5.37144e-09
-1.28285e-08
-6.42461e-09
4.71868e-09
-1.24144e-08
-6.90789e-09
4.07404e-09
-1.13003e-08
-7.29381e-09
3.48255e-09
-9.64207e-09
-7.52918e-09
2.96663e-09
-7.63751e-09
-7.55512e-09
2.54038e-09
-5.50872e-09
-7.30373e-09
2.19847e-09
-3.48787e-09
-6.68961e-09
1.91062e-09
-1.78287e-09
-5.61558e-09
1.61379e-09
-5.62313e-10
-3.9592e-09
1.20752e-09
-1.63858e-09
5.63304e-10
8.01392e-10
-3.24282e-09
8.11123e-10
2.40345e-09
-7.29551e-09
1.74934e-09
4.51569e-09
-1.00741e-08
2.36541e-09
6.93181e-09
-1.19301e-08
2.84009e-09
9.42098e-09
-1.30767e-08
3.29492e-09
1.17346e-08
-1.36606e-08
3.79839e-09
1.36286e-08
-1.38034e-08
4.38544e-09
1.48844e-08
-1.36059e-08
5.06317e-09
1.53247e-08
-1.31593e-08
5.81992e-09
1.48346e-08
-1.25474e-08
6.62527e-09
1.33566e-08
-1.18546e-08
7.4499e-09
1.09605e-08
-1.11636e-08
8.17781e-09
7.80529e-09
-1.05618e-08
8.77416e-09
4.09131e-09
-1.00981e-08
9.18974e-09
7.25921e-11
-9.86179e-09
9.42346e-09
-3.96775e-09
-9.87844e-09
9.45389e-09
-7.69469e-09
-1.01097e-08
9.2035e-09
-1.08522e-08
-1.05611e-08
8.76326e-09
-1.32381e-08
-1.11659e-08
8.1607e-09
-1.47293e-08
-1.18596e-08
7.45475e-09
-1.52386e-08
-1.25527e-08
6.6374e-09
-1.48155e-08
-1.31632e-08
5.83233e-09
-1.35784e-08
-1.36093e-08
5.07852e-09
-1.17015e-08
-1.38066e-08
4.4005e-09
-9.40433e-09
-1.36663e-08
3.81406e-09
-6.92919e-09
-1.3088e-08
3.30915e-09
-4.51994e-09
-1.19486e-08
2.84981e-09
-2.41002e-09
-1.00922e-08
2.36673e-09
-8.07271e-10
-7.30196e-09
1.74003e-09
-3.25399e-09
8.08151e-10
9.84177e-10
-5.22023e-09
9.93253e-10
2.88334e-09
-1.13404e-08
2.14573e-09
5.31355e-09
-1.54277e-08
2.92345e-09
8.02939e-09
-1.81796e-08
3.53367e-09
1.07808e-08
-1.99443e-08
4.11623e-09
1.3307e-08
-2.09347e-08
4.748e-09
1.53539e-08
-2.1316e-08
5.4658e-09
1.6691e-08
-2.12227e-08
6.27966e-09
1.71331e-08
-2.07757e-08
7.17435e-09
1.65534e-08
-2.00885e-08
8.1208e-09
1.48907e-08
-1.92776e-08
9.08575e-09
1.2217e-08
-1.84445e-08
9.95461e-09
8.69306e-09
-1.76965e-08
1.06586e-08
4.55383e-09
-1.70889e-08
1.11302e-08
7.81895e-11
-1.67817e-08
1.13956e-08
-4.42279e-09
-1.68044e-08
1.1427e-08
-8.57132e-09
-1.71035e-08
1.11425e-08
-1.20911e-08
-1.76745e-08
1.06332e-08
-1.47638e-08
-1.84384e-08
9.94519e-09
-1.64416e-08
-1.92765e-08
9.09469e-09
-1.70409e-08
-2.00885e-08
8.13518e-09
-1.66178e-08
-2.07759e-08
7.1896e-09
-1.52986e-08
-2.1224e-08
6.29554e-09
-1.32682e-08
-2.13184e-08
5.48152e-09
-1.07581e-08
-2.09393e-08
4.76291e-09
-8.02158e-09
-1.99533e-08
4.12884e-09
-5.316e-09
-1.81951e-08
3.54087e-09
-2.88805e-09
-1.54413e-08
2.92115e-09
-9.89297e-10
-1.13328e-08
2.13208e-09
-5.23393e-09
9.90652e-10
1.107e-09
-7.44495e-09
1.11774e-09
3.21717e-09
-1.5861e-08
2.41042e-09
5.87857e-09
-2.13885e-08
3.2994e-09
8.81193e-09
-2.51194e-08
4.00649e-09
1.17525e-08
-2.7567e-08
4.68217e-09
1.44315e-08
-2.90262e-08
5.41255e-09
1.65891e-08
-2.97101e-08
6.23654e-09
1.79883e-08
-2.97882e-08
7.1664e-09
1.8437e-08
-2.94095e-08
8.18514e-09
1.78038e-08
-2.87137e-08
9.25841e-09
1.60244e-08
-2.78431e-08
1.0345e-08
1.31478e-08
-2.69376e-08
1.13698e-08
9.35109e-09
-2.6085e-08
1.21853e-08
4.89566e-09
-2.53442e-08
1.27108e-08
7.84855e-11
-2.49572e-08
1.29928e-08
-4.76623e-09
-2.49819e-08
1.30223e-08
-9.22201e-09
-2.53781e-08
1.27304e-08
-1.30068e-08
-2.60428e-08
1.21531e-08
-1.58881e-08
-2.69244e-08
1.13673e-08
-1.76857e-08
-2.7839e-08
1.03601e-08
-1.83408e-08
-2.87104e-08
9.27705e-09
-1.79124e-08
-2.9408e-08
8.20383e-09
-1.65316e-08
-2.97892e-08
7.18452e-09
-1.43908e-08
-2.97126e-08
6.25352e-09
-1.17263e-08
-2.90306e-08
5.42698e-09
-8.79951e-09
-2.75741e-08
4.69404e-09
-5.87737e-09
-2.51292e-08
4.01205e-09
-3.22216e-09
-2.13907e-08
3.29422e-09
-1.11272e-09
-1.58384e-08
2.39623e-09
-7.46301e-09
1.11638e-09
1.16884e-09
-9.80808e-09
1.19431e-09
3.40889e-09
-2.06833e-08
2.58227e-09
6.21615e-09
-2.77255e-08
3.52975e-09
9.2845e-09
-3.24782e-08
4.2904e-09
1.23413e-08
-3.5653e-08
5.0292e-09
1.5115e-08
-3.7633e-08
5.83314e-09
1.73447e-08
-3.86826e-08
6.7429e-09
1.8789e-08
-3.90056e-08
7.77317e-09
1.92526e-08
-3.87771e-08
8.90415e-09
1.85968e-08
-3.8156e-08
1.00981e-08
1.67556e-08
-3.73093e-08
1.13074e-08
1.37456e-08
-3.63998e-08
1.24723e-08
9.78068e-09
-3.55253e-08
1.34052e-08
5.11981e-09
-3.46635e-08
1.39803e-08
8.50815e-11
-3.4204e-08
1.42816e-08
-4.97288e-09
-3.42417e-08
1.43179e-08
-9.64964e-09
-3.47277e-08
1.40264e-08
-1.36012e-08
-3.54746e-08
1.33834e-08
-1.66157e-08
-3.63872e-08
1.24773e-08
-1.84762e-08
-3.73087e-08
1.13303e-08
-1.9154e-08
-3.81563e-08
1.01237e-08
-1.87116e-08
-3.87783e-08
8.92792e-09
-1.72859e-08
-3.90093e-08
7.79443e-09
-1.50732e-08
-3.86882e-08
6.76298e-09
-1.23132e-08
-3.76393e-08
5.84871e-09
-9.26952e-09
-3.56588e-08
5.04105e-09
-6.21319e-09
-3.24794e-08
4.29387e-09
-3.41737e-09
-2.77036e-08
3.51713e-09
-1.18309e-09
-2.06277e-08
2.55506e-09
-9.83727e-09
1.19118e-09
1.19205e-09
-1.22198e-08
1.21966e-09
3.47002e-09
-2.56093e-08
2.64809e-09
6.32561e-09
-3.42046e-08
3.62353e-09
9.44027e-09
-3.99998e-08
4.40703e-09
1.25322e-08
-4.39217e-08
5.17678e-09
1.53342e-08
-4.6465e-08
6.03012e-09
1.75894e-08
-4.79431e-08
7.00534e-09
1.90578e-08
-4.85906e-08
8.11663e-09
1.954e-08
-4.8604e-08
9.34473e-09
1.88947e-08
-4.81591e-08
1.06484e-08
1.70442e-08
-4.74329e-08
1.19742e-08
1.39879e-08
-4.66103e-08
1.32667e-08
9.94763e-09
-4.58165e-08
1.43316e-08
5.19965e-09
-4.48556e-08
1.49401e-08
8.46818e-11
-4.43646e-08
1.52757e-08
-5.06073e-09
-4.44109e-08
1.53146e-08
-9.84307e-09
-4.49218e-08
1.49765e-08
-1.38526e-08
-4.57629e-08
1.42979e-08
-1.69057e-08
-4.6601e-08
1.32669e-08
-1.87744e-08
-4.74368e-08
1.19967e-08
-1.94423e-08
-4.81628e-08
1.06745e-08
-1.89809e-08
-4.86089e-08
9.36941e-09
-1.75305e-08
-4.8599e-08
8.13942e-09
-1.52914e-08
-4.79542e-08
7.02695e-09
-1.25028e-08
-4.64758e-08
6.04795e-09
-9.42428e-09
-4.39264e-08
5.18905e-09
-6.3261e-09
-3.99805e-08
4.40297e-09
-3.48389e-09
-3.41423e-08
3.5965e-09
-1.20505e-09
-2.55185e-08
2.61194e-09
-1.22611e-08
1.2188e-09
1.17145e-09
-1.45888e-08
1.19763e-09
3.39535e-09
-3.04459e-08
2.6127e-09
6.19285e-09
-4.05995e-08
3.59739e-09
9.25389e-09
-4.7443e-08
4.3821e-09
1.22945e-08
-5.21071e-08
5.14487e-09
1.50465e-08
-5.5224e-08
6.00709e-09
1.72676e-08
-5.71795e-08
7.01548e-09
1.87269e-08
-5.82267e-08
8.17691e-09
1.9225e-08
-5.85722e-08
9.47021e-09
1.86177e-08
-5.8405e-08
1.08533e-08
1.68312e-08
-5.79055e-08
1.22591e-08
1.38517e-08
-5.72521e-08
1.36213e-08
9.83444e-09
-5.65941e-08
1.4795e-08
5.13382e-09
-5.56042e-08
1.54493e-08
8.04735e-11
-5.51557e-08
1.58446e-08
-5.00969e-09
-5.51967e-08
1.58761e-08
-9.75781e-09
-5.56295e-08
1.54558e-08
-1.37392e-08
-5.65128e-08
1.47312e-08
-1.66993e-08
-5.72439e-08
1.3603e-08
-1.85002e-08
-5.79134e-08
1.22775e-08
-1.91284e-08
-5.84144e-08
1.08798e-08
-1.86506e-08
-5.85826e-08
9.49595e-09
-1.72094e-08
-5.82408e-08
8.20058e-09
-1.50037e-08
-5.71975e-08
7.03763e-09
-1.22663e-08
-5.52359e-08
6.02266e-09
-9.24778e-09
-5.20849e-08
5.14008e-09
-6.20884e-09
-4.73625e-08
4.343e-09
-3.41921e-09
-4.04703e-08
3.53835e-09
-1.17952e-09
-3.03294e-08
2.57119e-09
-1.4639e-08
1.19841e-09
1.11146e-09
-1.68234e-08
1.1231e-09
3.2108e-09
-3.49984e-08
2.45324e-09
5.82475e-09
-4.66256e-08
3.41213e-09
8.7054e-09
-5.45167e-08
4.19304e-09
1.15905e-08
-5.99265e-08
4.93427e-09
1.42041e-08
-6.35957e-08
5.75826e-09
1.63185e-08
-6.60453e-08
6.75143e-09
1.77211e-08
-6.75455e-08
7.91631e-09
1.82246e-08
-6.83007e-08
9.22505e-09
1.76818e-08
-6.84972e-08
1.06351e-08
1.60223e-08
-6.83145e-08
1.20685e-08
1.32323e-08
-6.79132e-08
1.3451e-08
9.36527e-09
-6.74089e-08
1.46818e-08
4.88596e-09
-6.65174e-08
1.53926e-08
7.48848e-11
-6.61559e-08
1.58115e-08
-4.76462e-09
-6.61948e-08
1.58377e-08
-9.27554e-09
-6.64942e-08
1.53757e-08
-1.31226e-08
-6.72453e-08
1.45795e-08
-1.5899e-08
-6.78925e-08
1.34251e-08
-1.75686e-08
-6.83283e-08
1.20845e-08
-1.81316e-08
-6.85123e-08
1.06608e-08
-1.76486e-08
-6.83159e-08
9.25041e-09
-1.62621e-08
-6.75666e-08
7.93945e-09
-1.41603e-08
-6.607e-08
6.7709e-09
-1.15686e-08
-6.35867e-08
5.75911e-09
-8.71621e-09
-5.9825e-08
4.88767e-09
-5.84415e-09
-5.4344e-08
4.10943e-09
-3.21368e-09
-4.64367e-08
3.33596e-09
-1.10763e-09
-3.48546e-08
2.41922e-09
-1.68756e-08
1.12894e-09
1.00307e-09
-1.88233e-08
9.96882e-10
2.90424e-09
-3.90487e-08
2.14912e-09
5.2469e-09
-5.19769e-08
3.00861e-09
7.80619e-09
-6.08486e-08
3.77261e-09
1.04014e-08
-6.70104e-08
4.48864e-09
1.27678e-08
-7.12127e-08
5.25071e-09
1.46928e-08
-7.41475e-08
6.17732e-09
1.5985e-08
-7.61261e-08
7.28852e-09
1.64716e-08
-7.73317e-08
8.54461e-09
1.60181e-08
-7.79379e-08
9.89425e-09
1.45728e-08
-7.81031e-08
1.12337e-08
1.20983e-08
-7.79428e-08
1.25041e-08
8.53516e-09
-7.75539e-08
1.37082e-08
4.44465e-09
-7.69711e-08
1.45444e-08
6.80329e-11
-7.67607e-08
1.49816e-08
-4.3261e-09
-7.67999e-08
1.49994e-08
-8.39594e-09
-7.69529e-08
1.45286e-08
-1.18951e-08
-7.74742e-08
1.37281e-08
-1.44056e-08
-7.80441e-08
1.2662e-08
-1.59023e-08
-7.81508e-08
1.13193e-08
-1.63809e-08
-7.79601e-08
9.92649e-09
-1.59164e-08
-7.73452e-08
8.56498e-09
-1.46377e-08
-7.61507e-08
7.30545e-09
-1.27209e-08
-7.41743e-08
6.18763e-09
-1.03777e-08
-7.11561e-08
5.22624e-09
-7.8053e-09
-6.67988e-08
4.4014e-09
-5.21348e-09
-6.06038e-08
3.66799e-09
-2.85275e-09
-5.17574e-08
2.95998e-09
-9.73792e-10
-3.88752e-08
2.14158e-09
-1.88534e-08
1.00405e-09
8.4526e-10
-2.04913e-08
8.22813e-10
2.46523e-09
-4.23963e-08
1.72761e-09
4.44487e-09
-5.63329e-08
2.37638e-09
6.59154e-09
-6.60234e-08
3.02805e-09
8.7297e-09
-7.28654e-08
3.7168e-09
1.07156e-08
-7.76252e-08
4.42664e-09
1.23574e-08
-8.10332e-08
5.24404e-09
1.34864e-08
-8.34895e-08
6.23451e-09
1.39458e-08
-8.51494e-08
7.35841e-09
1.36128e-08
-8.61349e-08
8.52994e-09
1.24058e-08
-8.65743e-08
9.67811e-09
1.02491e-08
-8.6681e-08
1.08948e-08
7.24079e-09
-8.65883e-08
1.20428e-08
3.78213e-09
-8.63287e-08
1.28163e-08
5.71704e-11
-8.62454e-08
1.32099e-08
-3.6948e-09
-8.62235e-08
1.31757e-08
-7.16033e-09
-8.61933e-08
1.2706e-08
-1.01265e-08
-8.64685e-08
1.19604e-08
-1.2245e-08
-8.69299e-08
1.10043e-08
-1.34802e-08
-8.66656e-08
9.7499e-09
-1.38454e-08
-8.61264e-08
8.53156e-09
-1.34173e-08
-8.51221e-08
7.34891e-09
-1.23037e-08
-8.34983e-08
6.23413e-09
-1.06527e-08
-8.10609e-08
5.23555e-09
-8.66818e-09
-7.75298e-08
4.38912e-09
-6.51489e-09
-7.26374e-08
3.68525e-09
-4.37482e-09
-6.58342e-08
3.09034e-09
-2.4096e-09
-5.62358e-08
2.51314e-09
-8.31465e-10
-4.22749e-08
1.8216e-09
-2.05352e-08
8.50301e-10
6.48578e-10
-2.17603e-08
6.2035e-10
1.86776e-09
-4.49368e-08
1.32127e-09
3.39629e-09
-5.96455e-08
1.78396e-09
5.03316e-09
-6.98435e-08
2.18316e-09
6.61982e-09
-7.713e-08
2.6779e-09
8.09678e-09
-8.23791e-08
3.27704e-09
9.3427e-09
-8.62319e-08
3.95294e-09
1.0244e-08
-8.91116e-08
4.72094e-09
1.06846e-08
-9.11716e-08
5.58178e-09
1.04502e-08
-9.24152e-08
6.51466e-09
9.41585e-09
-9.30918e-08
7.55169e-09
7.68194e-09
-9.35642e-08
8.617e-09
5.50171e-09
-9.39235e-08
9.51538e-09
2.90818e-09
-9.38679e-08
1.01328e-08
5.00462e-11
-9.38165e-08
1.04293e-08
-2.85607e-09
-9.36781e-08
1.03609e-08
-5.50366e-09
-9.35262e-08
9.98047e-09
-7.73252e-09
-9.35793e-08
9.33951e-09
-9.41483e-09
-9.36807e-08
8.43305e-09
-1.03477e-08
-9.30545e-08
7.32172e-09
-1.05748e-08
-9.22616e-08
6.36229e-09
-1.0213e-08
-9.09583e-08
5.47463e-09
-9.36088e-09
-8.90096e-08
4.65923e-09
-8.12232e-09
-8.62721e-08
3.97268e-09
-6.61339e-09
-8.24196e-08
3.38091e-09
-4.97386e-09
-7.71198e-08
2.84289e-09
-3.33968e-09
-6.98355e-08
2.36703e-09
-1.83891e-09
-5.96462e-08
1.90967e-09
-6.35445e-10
-4.48586e-08
1.38021e-09
-2.18137e-08
6.43077e-10
4.3825e-10
-2.25758e-08
3.77373e-10
1.18169e-09
-4.64733e-08
7.93082e-10
2.13579e-09
-6.17465e-08
1.14683e-09
3.17123e-09
-7.23108e-08
1.43171e-09
4.18718e-09
-7.99056e-08
1.75959e-09
5.13819e-09
-8.54672e-08
2.13714e-09
5.93705e-09
-8.9569e-08
2.53847e-09
6.47973e-09
-9.25951e-08
2.94114e-09
6.77243e-09
-9.4844e-08
3.37984e-09
6.60212e-09
-9.62699e-08
4.02508e-09
5.92331e-09
-9.72318e-08
4.81862e-09
4.8727e-09
-9.80624e-08
5.54854e-09
3.49827e-09
-9.86688e-08
6.11961e-09
1.8561e-09
-9.8742e-08
6.51639e-09
5.8808e-11
-9.87556e-08
6.73672e-09
-1.76608e-09
-9.85709e-08
6.71783e-09
-3.43926e-09
-9.83475e-08
6.49448e-09
-4.82033e-09
-9.82853e-08
6.08688e-09
-5.8992e-09
-9.8133e-08
5.53092e-09
-6.56263e-09
-9.71886e-08
4.79747e-09
-6.80974e-09
-9.60376e-08
4.0232e-09
-6.61676e-09
-9.44529e-08
3.30172e-09
-6.03235e-09
-9.23418e-08
2.74791e-09
-5.16906e-09
-8.95038e-08
2.36854e-09
-4.17266e-09
-8.5484e-08
2.06793e-09
-3.12596e-09
-7.99416e-08
1.77503e-09
-2.0931e-09
-7.2353e-08
1.48457e-09
-1.14911e-09
-6.17872e-08
1.1969e-09
-3.97468e-10
-4.64733e-08
8.63113e-10
-2.2613e-08
4.01827e-10
1.60351e-10
-2.28646e-08
1.28406e-10
4.11352e-10
-4.69991e-08
2.74792e-10
7.47666e-10
-6.2493e-08
4.10079e-10
1.11701e-09
-7.31925e-08
5.12136e-10
1.4901e-09
-8.08932e-08
6.14389e-10
1.86825e-09
-8.65452e-08
6.99839e-10
2.22008e-09
-9.06952e-08
7.74591e-10
2.43054e-09
-9.37009e-08
8.95646e-10
2.46075e-09
-9.59589e-08
1.08486e-09
2.32882e-09
-9.74924e-08
1.35433e-09
2.11825e-09
-9.86582e-08
1.63674e-09
1.80913e-09
-9.96295e-08
1.87594e-09
1.22813e-09
-1.00126e-07
2.03846e-09
6.1175e-10
-1.00279e-07
2.15381e-09
3.51766e-11
-1.00448e-07
2.26923e-09
-6.06589e-10
-1.00296e-07
2.3669e-09
-1.20728e-09
-1.00109e-07
2.36187e-09
-1.68249e-09
-1.00017e-07
2.20683e-09
-2.05685e-09
-9.97601e-08
2.00122e-09
-2.28833e-09
-9.87063e-08
1.74914e-09
-2.38234e-09
-9.74263e-08
1.48285e-09
-2.32363e-09
-9.57371e-08
1.2257e-09
-2.11982e-09
-9.35612e-08
1.01573e-09
-1.81409e-09
-9.06655e-08
8.56006e-10
-1.45879e-09
-8.65626e-08
7.23269e-10
-1.08714e-09
-8.09174e-08
6.04076e-10
-7.2198e-10
-7.32178e-08
4.99623e-10
-3.91906e-10
-6.25193e-08
4.02038e-10
-1.34814e-10
-4.70174e-08
2.87026e-10
-2.2886e-08
1.3819e-10
-1.12448e-10
-2.26282e-08
-1.23805e-10
-3.49613e-10
-4.65122e-08
-2.49815e-10
-6.41334e-10
-6.18609e-08
-3.4062e-10
-9.6051e-10
-7.24493e-08
-4.24235e-10
-1.28955e-09
-8.00625e-08
-5.01904e-10
-1.62006e-09
-8.56575e-08
-5.57115e-10
-1.92837e-09
-8.97881e-08
-5.98432e-10
-2.12385e-09
-9.28249e-08
-6.80036e-10
-2.12736e-09
-9.5085e-08
-8.70095e-10
-1.98393e-09
-9.64811e-08
-1.15486e-09
-1.79871e-09
-9.74184e-08
-1.42561e-09
-1.6389e-09
-9.81831e-08
-1.60675e-09
-1.38517e-09
-9.86562e-08
-1.72403e-09
-8.54266e-10
-9.8963e-08
-1.84687e-09
-7.95666e-11
-9.91877e-08
-2.03446e-09
5.56437e-10
-9.88243e-08
-2.10721e-09
1.10353e-09
-9.86336e-08
-2.02225e-09
1.59498e-09
-9.86203e-08
-1.88864e-09
1.86519e-09
-9.83139e-08
-1.71675e-09
2.03875e-09
-9.73651e-08
-1.51482e-09
2.12518e-09
-9.62232e-08
-1.28938e-09
2.07827e-09
-9.46317e-08
-1.05823e-09
1.9157e-09
-9.25212e-08
-8.77143e-10
1.64258e-09
-8.96457e-08
-7.46657e-10
1.32595e-09
-8.55994e-08
-6.46654e-10
9.97479e-10
-8.00372e-08
-5.51843e-10
6.69445e-10
-7.24326e-08
-4.5729e-10
3.72145e-10
-6.18596e-08
-3.62409e-10
1.34105e-10
-4.65276e-08
-2.51771e-10
-2.26345e-08
-1.17297e-10
-3.82427e-10
-2.18595e-08
-3.8618e-10
-1.1111e-09
-4.49573e-08
-8.26198e-10
-2.02061e-09
-5.98044e-08
-1.14719e-09
-3.01652e-09
-7.00293e-08
-1.42452e-09
-4.01694e-09
-7.73484e-08
-1.71391e-09
-4.9439e-09
-8.2693e-08
-2.0373e-09
-5.71367e-09
-8.66182e-08
-2.39955e-09
-6.25848e-09
-8.94716e-08
-2.80787e-09
-6.5104e-09
-9.15664e-08
-3.26642e-09
-6.31586e-09
-9.28156e-08
-3.86032e-09
-5.66743e-09
-9.3464e-08
-4.60353e-09
-4.73336e-09
-9.38449e-08
-5.27295e-09
-3.46202e-09
-9.41403e-08
-5.78747e-09
-1.86244e-09
-9.43706e-08
-6.19157e-09
-3.16559e-11
-9.4564e-08
-6.4539e-09
1.7367e-09
-9.41625e-08
-6.42979e-09
3.39898e-09
-9.40883e-08
-6.20775e-09
4.85307e-09
-9.42682e-08
-5.80666e-09
5.725e-09
-9.39332e-08
-5.25313e-09
6.2918e-09
-9.33096e-08
-4.62241e-09
6.54306e-09
-9.2577e-08
-3.8972e-09
6.35529e-09
-9.13031e-08
-3.14041e-09
5.81195e-09
-8.93353e-08
-2.64231e-09
4.98062e-09
-8.65034e-08
-2.31087e-09
4.02577e-09
-8.26315e-08
-2.01306e-09
3.03694e-09
-7.73333e-08
-1.71525e-09
2.04456e-09
-7.00274e-08
-1.41291e-09
1.14303e-09
-5.98409e-08
-1.11723e-09
4.15309e-10
-4.50227e-08
-7.7719e-10
-2.18485e-08
-3.7069e-10
-6.25973e-10
-2.06056e-08
-6.27671e-10
-1.80448e-09
-4.24307e-08
-1.34814e-09
-3.27624e-09
-5.64615e-08
-1.87149e-09
-4.88017e-09
-6.61024e-08
-2.32334e-09
-6.48355e-09
-7.29503e-08
-2.79491e-09
-7.94734e-09
-7.7888e-08
-3.34104e-09
-9.14026e-09
-8.14542e-08
-3.97044e-09
-9.9846e-09
-8.39272e-08
-4.69936e-09
-1.04067e-08
-8.56226e-08
-5.52134e-09
-1.01989e-08
-8.66449e-08
-6.37894e-09
-9.21182e-09
-8.70867e-08
-7.3653e-09
-7.57254e-09
-8.7099e-08
-8.38609e-09
-5.42676e-09
-8.70365e-08
-9.24983e-09
-2.86827e-09
-8.70494e-08
-9.87918e-09
-3.56804e-11
-8.71772e-08
-1.02185e-08
2.78248e-09
-8.68382e-08
-1.01419e-08
5.40681e-09
-8.68945e-08
-9.81826e-09
7.6787e-09
-8.73339e-08
-9.2069e-09
9.22329e-09
-8.71583e-08
-8.32008e-09
1.0157e-08
-8.69008e-08
-7.34269e-09
1.04398e-08
-8.65002e-08
-6.35929e-09
1.00821e-08
-8.55717e-08
-5.37329e-09
9.19803e-09
-8.39284e-08
-4.52244e-09
7.94433e-09
-8.14349e-08
-3.8147e-09
6.45956e-09
-7.79379e-08
-3.20898e-09
4.88627e-09
-7.30909e-08
-2.66931e-09
3.31397e-09
-6.62584e-08
-2.1968e-09
1.86125e-09
-5.66418e-08
-1.74637e-09
6.65043e-10
-4.25982e-08
-1.22821e-09
-2.05906e-08
-5.92795e-10
-8.35698e-10
-1.89396e-08
-8.30118e-10
-2.38702e-09
-3.90929e-08
-1.7864e-09
-4.32809e-09
-5.20284e-08
-2.49231e-09
-6.44665e-09
-6.09073e-08
-3.07712e-09
-8.57427e-09
-6.71494e-08
-3.67368e-09
-1.05446e-08
-7.15476e-08
-4.36988e-09
-1.21841e-08
-7.46067e-08
-5.20722e-09
-1.32912e-08
-7.6626e-08
-6.19321e-09
-1.37429e-08
-7.78759e-08
-7.29462e-09
-1.34209e-08
-7.85319e-08
-8.43539e-09
-1.22134e-08
-7.87259e-08
-9.56944e-09
-1.00525e-08
-7.85315e-08
-1.07294e-08
-7.14059e-09
-7.81222e-08
-1.18265e-08
-3.74094e-09
-7.78187e-08
-1.26298e-08
-2.89961e-11
-7.78324e-08
-1.30557e-08
3.6741e-09
-7.7592e-08
-1.29486e-08
7.10715e-09
-7.77814e-08
-1.25463e-08
1.00644e-08
-7.84559e-08
-1.18361e-08
1.21879e-08
-7.86109e-08
-1.06717e-08
1.34103e-08
-7.8691e-08
-9.4324e-09
1.37655e-08
-7.85214e-08
-8.33365e-09
1.33358e-08
-7.79009e-08
-7.24044e-09
1.22273e-08
-7.6665e-08
-6.1545e-09
1.06058e-08
-7.46397e-08
-5.17349e-09
8.64007e-09
-7.1623e-08
-4.34936e-09
6.52575e-09
-6.73434e-08
-3.6334e-09
4.43146e-09
-6.12341e-08
-2.93015e-09
2.47841e-09
-5.24216e-08
-2.26713e-09
8.75879e-10
-3.9395e-08
-1.60054e-09
-1.89302e-08
-7.84425e-10
-9.98572e-10
-1.69519e-08
-9.88749e-10
-2.84397e-09
-3.51304e-08
-2.11693e-09
-5.17816e-09
-4.67359e-08
-2.95864e-09
-7.75355e-09
-5.46671e-08
-3.66539e-09
-1.03229e-08
-6.01953e-08
-4.38516e-09
-1.26661e-08
-6.40055e-08
-5.19874e-09
-1.45826e-08
-6.65347e-08
-6.15456e-09
-1.58639e-08
-6.80806e-08
-7.26304e-09
-1.63423e-08
-6.88823e-08
-8.51465e-09
-1.5891e-08
-6.91277e-08
-9.85598e-09
-1.44466e-08
-6.8982e-08
-1.11896e-08
-1.19655e-08
-6.85923e-08
-1.24216e-08
-8.48561e-09
-6.80454e-08
-1.35572e-08
-4.40484e-09
-6.74348e-08
-1.44639e-08
-2.10543e-11
-6.72327e-08
-1.49822e-08
4.34702e-09
-6.7061e-08
-1.48982e-08
8.41504e-09
-6.73963e-08
-1.44533e-08
1.1891e-08
-6.82432e-08
-1.36897e-08
1.44051e-08
-6.86453e-08
-1.24807e-08
1.58862e-08
-6.90006e-08
-1.11718e-08
1.63541e-08
-6.91492e-08
-9.83966e-09
1.58838e-08
-6.89151e-08
-8.51464e-09
1.4607e-08
-6.81212e-08
-7.26643e-09
1.27004e-08
-6.65782e-08
-6.15468e-09
1.03516e-08
-6.40608e-08
-5.21366e-09
7.7649e-09
-6.03081e-08
-4.44885e-09
5.19355e-09
-5.48949e-08
-3.76797e-09
2.87312e-09
-4.70468e-08
-3.05427e-09
1.00638e-09
-3.53623e-08
-2.16585e-09
-1.69368e-08
-9.86791e-10
-1.10859e-09
-1.4718e-08
-1.12477e-09
-3.20663e-09
-3.06067e-08
-2.42554e-09
-5.83367e-09
-4.07703e-08
-3.33896e-09
-8.70395e-09
-4.76937e-08
-4.10393e-09
-1.15604e-08
-5.24648e-08
-4.87466e-09
-1.416e-08
-5.56626e-08
-5.74312e-09
-1.62681e-08
-5.76715e-08
-6.75407e-09
-1.76645e-08
-5.87629e-08
-7.92019e-09
-1.81608e-08
-5.91529e-08
-9.2325e-09
-1.76171e-08
-5.90282e-08
-1.06439e-08
-1.59587e-08
-5.85678e-08
-1.20742e-08
-1.31874e-08
-5.79498e-08
-1.34154e-08
-9.36623e-09
-5.72959e-08
-1.45713e-08
-4.82791e-09
-5.65651e-08
-1.54072e-08
-1.37925e-11
-5.61371e-08
-1.59081e-08
4.81022e-09
-5.60279e-08
-1.5856e-08
9.33389e-09
-5.64901e-08
-1.543e-08
1.31358e-08
-5.73575e-08
-1.46887e-08
1.59267e-08
-5.79716e-08
-1.34657e-08
1.76033e-08
-5.85885e-08
-1.20891e-08
1.81616e-08
-5.90518e-08
-1.06552e-08
1.76742e-08
-5.91826e-08
-9.24422e-09
1.62838e-08
-5.87988e-08
-7.93136e-09
1.41809e-08
-5.77136e-08
-6.7617e-09
1.15825e-08
-5.57104e-08
-5.75244e-09
8.70849e-09
-5.25272e-08
-4.90737e-09
5.80882e-09
-4.78058e-08
-4.18964e-09
3.17611e-09
-4.09494e-08
-3.46469e-09
1.1018e-09
-3.07797e-08
-2.50806e-09
-1.4706e-08
-1.12882e-09
-1.15893e-09
-1.23492e-08
-1.20927e-09
-3.41412e-09
-2.57441e-08
-2.60722e-09
-6.22024e-09
-3.44154e-08
-3.54921e-09
-9.26909e-09
-4.03009e-08
-4.34484e-09
-1.23003e-08
-4.42927e-08
-5.14155e-09
-1.5051e-08
-4.68856e-08
-6.02612e-09
-1.72714e-08
-4.84057e-08
-7.04433e-09
-1.87287e-08
-4.90927e-08
-8.21162e-09
-1.92234e-08
-4.9144e-08
-9.51366e-09
-1.86105e-08
-4.87378e-08
-1.09039e-08
-1.68178e-08
-4.80459e-08
-1.23165e-08
-1.38477e-08
-4.72497e-08
-1.36719e-08
-9.84883e-09
-4.64551e-08
-1.48403e-08
-5.06993e-09
-4.57123e-08
-1.56307e-08
-7.00852e-12
-4.51895e-08
-1.60087e-08
5.07131e-09
-4.51448e-08
-1.59601e-08
9.82919e-09
-4.56658e-08
-1.55823e-08
1.38121e-08
-4.64915e-08
-1.48502e-08
1.67862e-08
-4.72665e-08
-1.36805e-08
1.85918e-08
-4.80626e-08
-1.23319e-08
1.92173e-08
-4.8757e-08
-1.09198e-08
1.87328e-08
-4.91692e-08
-9.52793e-09
1.72829e-08
-4.91234e-08
-8.22485e-09
1.50654e-08
-4.84416e-08
-7.05438e-09
1.23163e-08
-4.69267e-08
-6.035e-09
9.28221e-09
-4.43399e-08
-5.15383e-09
6.21571e-09
-4.03631e-08
-4.3765e-09
3.40179e-09
-3.4525e-08
-3.61049e-09
1.16919e-09
-2.58996e-08
-2.64731e-09
-1.23329e-08
-1.20375e-09
-1.19553e-09
-9.92307e-09
-1.22991e-09
-3.49355e-09
-2.08115e-08
-2.63431e-09
-6.35463e-09
-2.79472e-08
-3.60774e-09
-9.47188e-09
-3.27705e-08
-4.41423e-09
-1.25715e-08
-3.59908e-08
-5.20316e-09
-1.53811e-08
-3.80091e-08
-6.06682e-09
-1.76408e-08
-3.90926e-08
-7.05225e-09
-1.9111e-08
-3.94479e-08
-8.17313e-09
-1.959e-08
-3.92514e-08
-9.4129e-09
-1.89367e-08
-3.86618e-08
-1.07301e-08
-1.70719e-08
-3.78445e-08
-1.20682e-08
-1.40181e-08
-3.69495e-08
-1.3356e-08
-1.00005e-08
-3.60601e-08
-1.44132e-08
-5.21693e-09
-3.53599e-08
-1.51347e-08
-4.06141e-11
-3.49051e-08
-1.54586e-08
5.11087e-09
-3.48566e-08
-1.54382e-08
9.87426e-09
-3.53032e-08
-1.5126e-08
1.39541e-08
-3.61072e-08
-1.44654e-08
1.70396e-08
-3.69661e-08
-1.33873e-08
1.89148e-08
-3.78528e-08
-1.20855e-08
1.95805e-08
-3.86754e-08
-1.07468e-08
1.91104e-08
-3.92701e-08
-9.428e-09
1.76466e-08
-3.94726e-08
-8.18638e-09
1.53903e-08
-3.91212e-08
-7.06424e-09
1.25823e-08
-3.80412e-08
-6.07805e-09
9.4828e-09
-3.60274e-08
-5.21365e-09
6.36084e-09
-3.28123e-08
-4.42925e-09
3.48642e-09
-2.8006e-08
-3.64461e-09
1.18452e-09
-2.09082e-08
-2.6893e-09
-9.91489e-09
-1.2332e-09
-1.185e-09
-7.53475e-09
-1.20248e-09
-3.43542e-09
-1.59886e-08
-2.57227e-09
-6.25353e-09
-2.15958e-08
-3.53401e-09
-9.3361e-09
-2.53752e-08
-4.31408e-09
-1.24077e-08
-2.78541e-08
-5.06616e-09
-1.51952e-08
-2.93407e-08
-5.88078e-09
-1.74332e-08
-3.00507e-08
-6.80271e-09
-1.88822e-08
-3.01535e-08
-7.84395e-09
-1.93444e-08
-2.97973e-08
-8.99116e-09
-1.86777e-08
-2.91249e-08
-1.02045e-08
-1.68149e-08
-2.82759e-08
-1.14334e-08
-1.38121e-08
-2.73696e-08
-1.25848e-08
-9.85933e-09
-2.65112e-08
-1.35023e-08
-5.16872e-09
-2.58721e-08
-1.41771e-08
-4.62165e-11
-2.55171e-08
-1.45081e-08
5.04493e-09
-2.54637e-08
-1.44822e-08
9.74035e-09
-2.58283e-08
-1.41702e-08
1.37454e-08
-2.65518e-08
-1.35617e-08
1.67822e-08
-2.73877e-08
-1.26166e-08
1.86537e-08
-2.82799e-08
-1.14451e-08
1.93295e-08
-2.91326e-08
-1.02181e-08
1.88783e-08
-2.98114e-08
-9.00656e-09
1.74354e-08
-3.01707e-08
-7.85845e-09
1.52005e-08
-3.00718e-08
-6.81453e-09
1.24156e-08
-2.93654e-08
-5.8915e-09
9.34576e-09
-2.78819e-08
-5.07653e-09
6.26119e-09
-2.54039e-08
-4.32433e-09
3.43618e-09
-2.16311e-08
-3.54989e-09
1.17211e-09
-1.60399e-08
-2.60405e-09
-7.53757e-09
-1.20493e-09
-1.1189e-09
-5.28907e-09
-1.12583e-09
-3.2462e-09
-1.14494e-08
-2.41161e-09
-5.92681e-09
-1.56021e-08
-3.31383e-09
-8.879e-09
-1.83879e-08
-4.03659e-09
-1.18375e-08
-2.01715e-08
-4.72519e-09
-1.45334e-08
-2.11797e-08
-5.4651e-09
-1.67021e-08
-2.15791e-08
-6.30187e-09
-1.81081e-08
-2.15024e-08
-7.24356e-09
-1.85562e-08
-2.10712e-08
-8.27733e-09
-1.79098e-08
-2.03999e-08
-9.3723e-09
-1.61045e-08
-1.95976e-08
-1.04859e-08
-1.32316e-08
-1.87624e-08
-1.14822e-08
-9.43703e-09
-1.80161e-08
-1.22903e-08
-4.94186e-09
-1.74656e-08
-1.29002e-08
-4.02874e-11
-1.71827e-08
-1.32334e-08
4.83395e-09
-1.71394e-08
-1.31965e-08
9.33634e-09
-1.74376e-08
-1.28928e-08
1.31702e-08
-1.80407e-08
-1.23462e-08
1.60725e-08
-1.87768e-08
-1.15147e-08
1.78844e-08
-1.96031e-08
-1.04894e-08
1.854e-08
-2.04043e-08
-9.38346e-09
1.81012e-08
-2.10795e-08
-8.29216e-09
1.67024e-08
-2.15138e-08
-7.25733e-09
1.45371e-08
-2.1593e-08
-6.31357e-09
1.18436e-08
-2.11969e-08
-5.47569e-09
8.88444e-09
-2.01898e-08
-4.73388e-09
5.93215e-09
-1.84073e-08
-4.04494e-09
3.25055e-09
-1.56265e-08
-3.32311e-09
1.11691e-09
-1.14803e-08
-2.42565e-09
-5.29313e-09
-1.12719e-09
-9.97298e-10
-3.29167e-09
-9.99087e-10
-2.91469e-09
-7.38462e-09
-2.14705e-09
-5.37009e-09
-1.02068e-08
-2.94079e-09
-8.1063e-09
-1.20868e-08
-3.56643e-09
-1.08759e-08
-1.32421e-08
-4.16111e-09
-1.34201e-08
-1.38339e-08
-4.80176e-09
-1.5479e-08
-1.39874e-08
-5.53159e-09
-1.68232e-08
-1.38005e-08
-6.35626e-09
-1.7265e-08
-1.33635e-08
-7.26515e-09
-1.66736e-08
-1.27612e-08
-8.23102e-09
-1.4997e-08
-1.2072e-08
-9.20429e-09
-1.23241e-08
-1.13848e-08
-1.00526e-08
-8.78383e-09
-1.0784e-08
-1.07728e-08
-4.59241e-09
-1.03419e-08
-1.13135e-08
-3.4248e-11
-1.01153e-08
-1.16228e-08
4.50141e-09
-1.00898e-08
-1.15831e-08
8.6925e-09
-1.03256e-08
-1.13026e-08
1.22562e-08
-1.07917e-08
-1.08138e-08
1.49572e-08
-1.13904e-08
-1.0089e-08
1.66478e-08
-1.20758e-08
-9.21872e-09
1.72483e-08
-1.27637e-08
-8.2407e-09
1.68154e-08
-1.33678e-08
-7.27784e-09
1.54775e-08
-1.38068e-08
-6.36836e-09
1.34215e-08
-1.39957e-08
-5.54126e-09
1.08789e-08
-1.38436e-08
-4.8115e-09
8.10959e-09
-1.32531e-08
-4.16837e-09
5.37523e-09
-1.2101e-08
-3.57266e-09
2.92234e-09
-1.02287e-08
-2.94497e-09
1.00012e-09
-7.40787e-09
-2.14993e-09
-3.29453e-09
-9.98028e-10
-8.15424e-10
-1.66056e-09
-8.14635e-10
-2.43656e-09
-4.01058e-09
-1.75262e-09
-4.57434e-09