/*--------------------------------*- C++ -*----------------------------------*\
| =========                 |                                                 |
| \\      /  F ield         | OpenFOAM: The Open Source CFD Toolbox           |
|  \\    /   O peration     | Version:  v1912                                 |
|   \\  /    A nd           | Website:  www.openfoam.com                      |
|    \\/     M anipulation  |                                                 |
\*---------------------------------------------------------------------------*/
FoamFile
{
    version     2.0;
    format      ascii;
    class       volScalarField;
    location    "212/oil";
    object      wallHeatFlux;
}
// * * * * * * * * * * * * * * * * * * * * * * * * * * * * * * * * * * * * * //

dimensions      [1 0 -3 0 0 0 0];


internalField   uniform 0;

boundaryField
{
    maxY
    {
        type            calculated;
        value           uniform 0;
    }
    minX
    {
        type            calculated;
        value           uniform 0;
    }
    maxX
    {
        type            calculated;
        value           uniform 0;
    }
    minY
    {
        type            calculated;
        value           uniform 0;
    }
    minZ
    {
        type            calculated;
        value           uniform 0;
    }
    maxZ
    {
        type            calculated;
        value           uniform 0;
    }
    oil_to_sphere
    {
        type            calculated;
        value           nonuniform List<scalar> 
1536
(
3797.33
3536.16
3534.3
3048.89
3028.92
3519.69
3311.27
3392.56
3361.02
3086.38
2897.69
3120.47
3355.22
3135.19
2828.15
3279.6
3521.77
3547.01
3264.8
3342.33
3455.86
3363.63
3384.49
3276.94
3303.64
3289.74
3299.76
3244.24
3508.88
3376.24
3587.25
3536.8
3547.47
3279.46
3296.01
3244.31
3266.53
3188.47
3239.57
3296.63
3227.88
3267.71
3352.33
3409.32
3474.77
3293.45
3463.48
3392.37
2843.78
3290.37
3431.66
3365.75
3386.32
3273.96
3499.94
3681.88
3379.67
3343.26
3453.62
3425.23
3347.55
3351.78
3343.79
3267.67
3295.4
3335.21
3341.2
3439.11
3433.99
3495.93
3266.39
3042.84
3122.56
3290.75
3287.68
3698.18
3549.69
3199.27
3280.39
3539.96
3459.21
3423.89
3044.24
3035.98
3507.34
3749.52
2985.88
3319
3427.22
3424.96
3366.93
3252.62
3249.9
3260.98
3288.59
3406.07
3460.16
3476.41
3567.34
3418.82
3462.02
3262.04
3804.74
3435.75
3111.88
3283.86
3303.3
3069.01
3069.43
3814.6
3546.31
3394.16
3350.29
3387.9
3008.51
3040.47
2959.67
3633.58
3775.85
3563.62
3373.15
3387.42
3236.65
3455.82
3582.31
3417.49
3368.38
3218.63
3471.81
3448.22
3337.23
3438.1
3495.67
3303.39
3322.08
3507.28
3388.61
3543
3224.34
3524.16
3362.22
3446.38
3448.56
3355.56
3324.17
3350.07
3403.69
3656.09
3361.61
3815.38
3482.82
3559.86
3378.86
3394.65
3281.5
3432.95
3501.33
3477.04
3866.45
3608.57
3545.29
3674.29
3142.21
3185.09
3256.35
3249.39
3488.58
3626.59
3560.4
3702.02
3247.53
3264.56
3204.55
3464.75
3389.33
3407.43
3726.78
3210.84
3173.68
3746.93
3237.49
3186.37
3178.96
3202.42
3459.27
3751.52
3611.61
3234.44
3154.74
3543.25
3173.54
3497.54
3493.28
3610.88
3118.3
2780.35
3603.12
3636.99
3323.37
3282.31
3369.04
3311.55
3550.31
3601
3479.99
3425.77
3274.44
3628.01
3573.22
3428.45
3216.53
3294.5
3284.04
3330.97
3471.36
3696.78
3191.3
3130.03
3136.45
2749.12
3526.62
3463.83
3420.88
3369.5
3382.74
3634.12
3497.57
3308.38
3529.58
3093.38
3247.19
2796.5
3350.6
3525.67
3604.44
3581.63
3523.61
3467.31
3559.89
3117.86
3154.48
3233.2
3640.53
3208.23
2803.06
2965.76
3462.63
3387.04
3743.67
3885.09
3393.79
3040.19
2752.81
3424.55
3595.31
3261.04
3269.16
2991.54
3251.16
3632.11
3766.22
3356.71
3271.61
3662.71
3621.06
3290.42
3097.77
3341.57
3705.05
3640.78
3468.08
3495.37
3592.44
3182.93
3278.64
3607.99
3495.03
3557.95
3355.29
3532.76
3690.57
3482.89
3460.49
3652.46
3270.1
3263.73
3293.49
3233.73
3254.41
3615.7
3709.54
3177.18
3316.22
3302.88
3317.21
3234.47
3387.57
3356.64
3200.57
2998.32
3246.54
3122.93
3223.57
3753.83
3659.44
3656.8
3869.5
3161.2
3180.5
3396.34
3814.1
3793.94
3251.99
3360.46
3236.96
3489.91
3277.71
3457.09
3479.15
3560.18
3499.26
3304.76
3513.25
3241.73
3595.32
3629.98
3533.61
3514.44
3200.3
3720.42
3719.25
3502.65
3110.27
3268
3319.34
3480.96
3454.35
3487.59
3192.44
3591.3
3627.42
3557.01
3654.79
3439.39
3410.98
3349.45
3156.53
3418.82
3490.06
3152.26
3131.17
3178.55
3792.85
3590.89
3658.25
3447.6
3408.73
3622.18
3137.98
3736.92
3556.37
3409.09
3407.02
3123.68
3564.63
3583.81
3214.07
3408.65
3340.4
3274.57
3493.29
3586.79
3352.51
3294.35
3168.55
3696.25
3595.91
3131.38
3626.1
3594.58
3528.45
3693.68
3405.06
3506.39
3091.68
3115.71
3480.1
3847.13
3541.44
3751.79
3451.26
3308.3
3566.25
3185.02
3247.19
3465.83
3582
3497.7
3447.93
3198.29
3185.1
3610.83
3622.59
3597.14
3404.93
3259.46
3460.71
3513.61
3574.28
3418.84
3327.87
3216.44
3394.13
3175.26
3070.54
3259.54
3216.34
3395.61
3083.9
3309.33
3735.59
3303.72
3300.53
3581.53
3575.46
3483.77
3342.16
3145.02
3538.21
3657.23
3473.18
3426.02
3541.58
3365.22
3387.95
3443.92
3042.83
3489.78
3625.25
3657.96
3567.88
3512.08
3492.67
3419.97
3335.72
3184.6
3377.38
3209.12
3123.75
3231.19
3063.4
3762.13
3727.05
3628.63
3833.67
3210.8
3762.14
3187.78
3237.96
3519.55
3201.18
3181.04
3312.15
3296.2
3736.7
3663.03
3443.97
3465.35
3691.95
3613.7
3415.98
3513.34
3217.46
3581.23
3106.69
3655.78
3039.76
3514.32
3542.16
3570.73
3302.73
3171
3334.69
3577.87
3347.05
3090.04
3587.25
3602.11
3660.14
3833.05
3444.75
3673.37
3158.59
3192.54
2859.06
2957.79
3407.58
3305.7
3275.44
3233.25
3778.69
3232.29
3130.37
3091.67
3333.48
3117.07
3865.52
3227.03
3245.17
3383.52
2902.26
2983.1
3260.98
3254.31
3348.79
3291.43
3599.84
3566.91
3494.18
3412.96
3067.94
3277.47
3567.72
3182.19
3213
3533.82
3695.03
3221.78
2871.65
3154.22
2899.23
3369.72
3299.83
3245.04
3113.36
2887.72
3500.72
3532.91
3452.05
3373.21
3708.9
3506.93
3476.49
3411.24
3198.33
3281.24
3600.27
3498.94
3317.89
2954.92
3421.51
3576.62
3722.83
3430.71
3292.89
3714.06
3410.38
3675.56
3212.24
3287.27
3177.63
3301.56
3419.86
3688.41
3256.51
3228.63
3195.61
3344.66
3863.44
3137.64
3280.45
3127.19
3396.67
3419.11
3607.72
3702.53
3109.81
3108.49
3704.01
3746.39
3013.22
3702.12
3625.24
3541.75
3627.1
3484.11
3402.99
3409.92
3697.38
3417.97
3482.8
3395.48
3575.88
3436.71
3375.35
3358.88
3149.57
3535.88
3386.38
3573.69
3512.89
3521.65
3498.25
3421.91
3118.67
3612.58
3614.04
3492.12
3372.5
3441.84
3805.45
3123.36
3206.6
3154.76
3447.83
3265.59
3805.73
3308.46
3336.57
3395.15
2873.03
2902.53
3269.41
3263.24
3399.19
3176
3224.99
3462.23
3271.13
3702.33
3195.85
3786.52
3345.24
3442.17
2831.57
2895.32
2852.09
3248.87
3540.46
3284.84
3246.86
2897.62
3390.38
3568.41
3394.08
3957.66
3217.98
3598.16
3514.54
3542.96
3629.53
3626.94
3550.82
3387.07
3331.69
3377.69
3547.04
3344.64
3454.49
3436.08
3452.62
3571.3
3500.59
3537.62
3155.27
3209.93
2774.96
2990.6
3061.31
2620.28
3268.84
3292.63
3344.2
3375.82
3066.29
3154.66
3317.44
3643.19
3625.95
3312.94
3096.2
3357.13
3569.08
3508.34
3382.32
3083.46
3217.57
3494.77
3452.12
3377.87
3278.66
3518.55
3527.95
3696.13
3527.04
3420.65
3292
3220.09
3140.5
3291.41
3378.42
3820.81
3406.95
3760.3
3263.5
3847.99
3264.9
3351.53
3171.68
3201.68
3292.72
3149.3
3339.64
3082.16
3273.03
3603.71
3309.5
3131.31
3716.86
3515.26
3459.5
3369.64
3709.52
3979.71
3001.98
3503.17
3462.89
3483.32
3151.3
3370.01
3236.85
3455.38
3546.25
3608.93
3201.09
3495.87
3411.04
3518.65
3504.88
3472.05
3322.59
3352.91
3281.9
3096.39
3068.13
3181.8
3669.29
3275.22
3134.06
3281.92
3605.6
3333.89
3671.21
3571.88
3473.31
3420.46
3470.98
3725.2
3181.64
3496.23
3624.82
3642.47
3419.77
3230.67
3334.56
3473.89
3650.82
3167.1
3355.64
3414.85
3597.34
3463.75
3475.15
3680.3
3169.87
3243.82
3210.22
3729.5
3608.07
3407.05
3596.04
3244.18
3276.87
3594.92
3478.96
3693.72
3191.26
3550.47
3585.45
3425.86
3456.54
3537.24
3204.68
3050.46
3388.84
3477.31
3754
3358.05
3263.3
3374.77
3469
3548.4
3415.56
3239.17
3358.65
3580.16
3192.55
3229.11
3356.03
3269.17
3443.28
3418.7
3637.09
3485.79
3563.33
3283.53
3380.85
3442.31
3366.83
3325.95
3292.82
3286.23
3177.72
3515.2
3436.14
3432.25
3476.52
3107.31
3303.3
3722.01
3724.49
3235.97
3601.15
3468.21
3507.93
3287.47
3649.12
3625.68
3183.48
3331.71
3300.32
3290.86
3109.86
3154.1
3299.64
3625.55
3831.34
3259.03
3536.61
3513.94
3460.13
3344.86
3444.21
3638.1
3455.52
3192.6
3305.33
3283.27
3304.01
3485.12
3522.31
3517.79
3528.62
3533.52
3242.89
3539.78
3313.55
3508.38
2890.2
3478.4
3658.93
3325.05
3002.61
3399.81
3357.5
3750.04
3215.65
3540.51
3377.84
3047.37
3714.43
3132.11
3351.62
3389.47
3109.38
3603.08
3441.44
3348.36
3425.84
3440.06
3345.42
3762.39
3142.8
3296.34
2833.29
3348.46
3322.4
3398.06
3600.78
3987.11
3096.96
3302.61
3896.06
3135.96
3523.55
3233.42
3507.75
2993.2
3220.81
3887.07
3030.27
3848.29
3071.96
3740.34
3060.46
3211.97
2872.72
3152.11
3849.17
2928.25
3386.77
3031.79
3696.18
3852.09
2943.81
3355.12
3253.31
3192.04
3180.66
3296.7
3392.65
3393.35
3498.34
3371.58
3691.02
3915.88
2940.45
3421.95
3464.44
3391.25
3422.61
3360.91
3335.36
3358.78
3558.12
3369.59
3559.86
3295.14
3438.61
3662.22
3321.41
3488.14
3600.55
3291.34
3438.77
3375.52
3496.59
3350.57
3417.48
3330.4
3586.44
3307.48
3454.97
3072.6
3710.69
2953.31
3483.34
3583.6
3702.63
3219.41
3420.07
3370.19
3415.54
3413.68
3371.06
3555.56
3187.65
2769.38
3379.54
3007.19
3621.13
3226.3
3388.46
3546.08
2797.27
3689.03
3197.18
2888.72
3232.39
3521.64
3503.07
3404.99
2927.34
3407.38
3444.52
3256.65
3225.51
3627.22
3592.45
3282.76
3400.06
3628.29
2937.03
3569.61
3221.2
3492.75
2962.26
3839.53
3780.9
3579
3401.84
3341.39
3526.01
3327.1
2923.57
3167.83
3530.65
3232.72
3499.72
2998.45
3616.69
3507.82
2664.77
3410.21
3449.69
2815.85
3689.13
3064.18
3622.08
3711.88
3556.25
2880.69
3414.05
3339.82
3411.1
3422.94
3489.59
2937.65
3298.15
3235.06
3237.82
3611.06
3390.33
3473.75
3503.38
3494.08
3336.16
3417.78
3349.2
3452.99
3624.58
3277.32
3325.57
3261.68
3426.43
3581.89
3275.68
3314.51
3293.75
3392.8
3236.14
3252.06
3314.53
3332.8
3414.04
3319.92
3692.64
3564.58
3015.65
3037.19
3674.23
2617.69
3534.48
3443.66
3240.49
3336.25
3695.53
2802
3606.52
3468.3
2902.3
3301.21
3263.56
3407.32
2776.13
3650.64
3487.88
2799.77
3629.44
3647.84
2965.65
3703.9
3592.06
2972.62
3265.45
3239.77
2809.51
3394.11
3422.55
3187.73
3220.11
3228.3
2699.36
3210.43
2817.04
2672.18
3594.14
3251.72
3846.91
3290.36
2933.5
3649.52
3374.38
2851.08
3279.47
3269.95
2845.5
3031.8
3681.99
2541.33
3171.11
3168.23
2628.32
3612.15
3563.46
3392.72
3309.3
3269.8
3169.36
2737.8
3400.11
3310.35
3324.12
3393.79
2878.3
3541.66
3275.91
3365.2
3251.36
3356.01
3412.65
3159.54
2901.37
3306.83
3448.85
3269.58
3311.2
3377.93
3218.7
3323.8
2872.32
3286.45
3478.55
3255.02
3337.95
3225.91
2911.77
3678.87
3675.39
3628.72
3721.71
2961.91
2816.19
3297.04
3566.79
3421.07
3520.61
3558.85
3171.32
3116.35
2845.93
2958.06
3212.89
3368.3
3352.64
3341.65
3126.32
3591.92
3461.01
2977.31
3194.95
3162.17
3553.26
3221.2
2739.98
3410.64
3380.13
3605.53
2859.28
3275.83
3437.79
3291.36
3332.46
3513.7
3363.97
3173.62
3736.26
2652.63
3114.9
3361.21
3222.53
3302.82
3709.81
3472.97
3394.02
3093.17
3666.69
3291.08
3413.45
3557.23
3607.48
3586.33
3605.54
3694.87
3746.62
3680.14
3680.89
3420.6
3572.29
3275.81
3334.46
3125.54
3049.64
2698.65
3719.46
3702.57
3629.59
3320.09
3414.39
3398.75
3228.89
3430.84
3566.53
3185.67
3346.81
3501.34
3266.58
3281.89
3267.73
3317.08
3213.4
3308.57
3288.78
2962.24
3435.01
3193.18
3343.77
2841.81
3731.73
3356.08
3243.58
3206.53
2988.7
3385.45
3251.07
2809.46
3093.63
3348.42
3048.13
3098.8
3754.36
3783.38
3292.98
3294.22
3534.59
3702.66
2801.96
3248.63
3215.58
3303.34
3302.65
3322.83
3359.78
3117.74
2912.29
3665.45
3297.94
3068.21
3112.56
3288.84
3388.72
2995.87
3350.18
3235.19
3275.26
3706.67
3077.28
2927.69
3307.6
3258.43
3217.36
2919.35
3617.61
3290.87
3274.18
3288.69
2811.73
3300.37
3301.89
2938.05
3292.8
3091.12
3456.11
3640.51
3233.33
3565.47
3440.83
3236.84
3243.15
3310.05
2922.68
3453.88
3489.6
3266.56
2862.19
3157.16
3337.53
3354.15
3234.11
2898.53
3244.85
3605.59
3450.21
3255.34
3748
3072.14
3571.78
2818.79
3062.78
3595.66
2818.24
3593.22
3259.42
3387.61
3276.98
3782.1
3129.76
3390.99
3702.48
3672.81
3008.51
3645.06
3709.59
2633.19
3371.33
3252.96
2832.37
3504.94
3247.36
3276.11
3277.34
3362.8
3325.58
3265.85
3247.43
2815.05
3493.68
3393.1
3372.75
3410.06
3319.09
3234.03
3160.05
3550.06
2748.08
3208.53
3232.62
2778.87
3582.68
3728.04
3381.47
3631.77
3674.07
3213.47
3281.88
3467.42
3629.49
3216.84
3500.11
3111.69
2844.34
3550.27
3176.19
3604.6
3754.84
3698.33
2859.94
3576.1
3411.21
3179.51
3263.51
3305.43
3251.84
2869.15
3648.23
2883.48
3639.51
3315.51
3112.55
3089.4
3341.28
3505.05
3693.99
3375.82
3813.77
3553.39
3591.94
2824.85
3570.93
3518.3
3610.8
3226.58
3182.97
2753.74
3348.1
3795.24
3641.54
2902.65
3128.23
2901.06
3225.43
3359.05
3103.11
3951.27
3279.1
3127.12
2918.51
3448.48
3190.82
2770.71
3345.5
3249.53
3253.29
3263.99
3267.84
2923.98
3104.02
2835.36
3260.15
3560.65
3458.88
3651.31
3612.7
3209.32
3156.34
2821.18
3227.71
3527.92
3667.44
3551.39
3553.97
3068.22
2775.54
3134.16
2734.83
3533.73
3556.79
3159.76
3583.56
3537.51
3643.35
3449.53
3388.9
3380.49
3209.11
2798.32
3148.55
2864.99
3111.51
3264.21
3233.08
2959.72
2857.58
3494.29
3794.58
3758.27
3699.76
3374.29
3480.6
3472.12
3357.12
3265.35
3351.92
3174.51
3315.99
3318.15
2857.83
3545.17
3300.25
3130.9
2952.85
3254.08
3367.18
3364.18
3235.6
2955.74
3685.85
3438.55
3253.79
3740.78
3181.44
2837.6
3481.15
3321.61
3320.25
3318.63
3238.52
2738.92
3345.66
3312.59
2887.72
3689.6
3289.38
2552.84
3262.78
3355.1
3372.84
3235.93
2869.34
3204.19
3217.86
3045.02
3328.83
2818.33
3343.88
3329.05
3019.86
3750.18
3310.24
2938.74
3816.13
3351.11
3352.16
2947.42
3327.68
2883.83
)
;
    }
}


// ************************************************************************* //
