/*--------------------------------*- C++ -*----------------------------------*\
| =========                 |                                                 |
| \\      /  F ield         | OpenFOAM: The Open Source CFD Toolbox           |
|  \\    /   O peration     | Version:  v1906                                 |
|   \\  /    A nd           | Web:      www.OpenFOAM.com                      |
|    \\/     M anipulation  |                                                 |
\*---------------------------------------------------------------------------*/
FoamFile
{
    version     2.0;
    format      ascii;
    class       volVectorField;
    location    "63.8/oil";
    object      U;
}
// * * * * * * * * * * * * * * * * * * * * * * * * * * * * * * * * * * * * * //

dimensions      [0 1 -1 0 0 0 0];


internalField   nonuniform List<vector> 
27760
(
(-2.50292e-05 -2.55108e-05 -2.50291e-05)
(-4.94055e-05 -1.91374e-05 -1.80301e-05)
(-3.60365e-06 -4.96235e-06 -4.93293e-06)
(-5.87677e-06 -8.08536e-07 -9.02572e-07)
(-1.21105e-06 -2.56967e-07 -3.6744e-07)
(-4.56837e-07 -1.04489e-07 -2.24843e-07)
(2.20961e-07 -1.19507e-08 -1.41788e-07)
(5.59484e-07 2.8456e-08 -1.09113e-07)
(7.48148e-07 5.18752e-08 -9.11885e-08)
(8.21851e-07 6.68471e-08 -7.96516e-08)
(8.05227e-07 7.7768e-08 -7.03124e-08)
(7.11832e-07 8.5993e-08 -6.25111e-08)
(5.54584e-07 9.21856e-08 -5.6158e-08)
(3.48558e-07 9.64192e-08 -5.15782e-08)
(1.11392e-07 9.86361e-08 -4.91168e-08)
(-1.37303e-07 9.87942e-08 -4.8962e-08)
(-3.77402e-07 9.6939e-08 -5.10689e-08)
(-5.89956e-07 9.32234e-08 -5.51338e-08)
(-7.58916e-07 8.7902e-08 -6.06137e-08)
(-8.72492e-07 8.12855e-08 -6.6773e-08)
(-9.24077e-07 7.37034e-08 -7.27787e-08)
(-9.12814e-07 6.52984e-08 -7.76261e-08)
(-8.43187e-07 5.65311e-08 -8.0292e-08)
(-7.24813e-07 4.75257e-08 -8.00651e-08)
(-5.72051e-07 3.85198e-08 -7.61418e-08)
(-4.02975e-07 2.99072e-08 -6.80059e-08)
(-2.38639e-07 2.24955e-08 -5.57224e-08)
(-1.01918e-07 1.77612e-08 -4.03542e-08)
(-1.34903e-08 1.76485e-08 -2.48758e-08)
(9.80009e-09 1.91979e-08 -9.73622e-09)
(-1.81572e-05 -5.07692e-05 -1.81571e-05)
(-5.94047e-06 -6.59746e-06 -8.13113e-06)
(-7.99819e-06 -7.99216e-06 -2.84384e-06)
(-3.58272e-06 -2.3307e-06 -8.17957e-07)
(-1.20559e-06 -1.42347e-06 -4.11058e-07)
(-3.07591e-08 -7.76946e-07 -2.06664e-07)
(8.19656e-07 -4.88461e-07 -1.05826e-07)
(1.33408e-06 -3.21064e-07 -5.50828e-08)
(1.63148e-06 -2.12216e-07 -2.32493e-08)
(1.74064e-06 -1.30317e-07 -4.89391e-11)
(1.68392e-06 -6.35709e-08 1.92448e-08)
(1.47905e-06 -8.47677e-09 3.56785e-08)
(1.14806e-06 3.5058e-08 4.89902e-08)
(7.19438e-07 6.56942e-08 5.85097e-08)
(2.28184e-07 8.20257e-08 6.35972e-08)
(-2.86313e-07 8.33033e-08 6.38969e-08)
(-7.83384e-07 6.9804e-08 5.94846e-08)
(-1.22469e-06 4.29425e-08 5.09038e-08)
(-1.57774e-06 5.16433e-09 3.91173e-08)
(-1.81869e-06 -4.03182e-08 2.54079e-08)
(-1.93439e-06 -8.98476e-08 1.12259e-08)
(-1.92288e-06 -1.39674e-07 -1.73308e-09)
(-1.79327e-06 -1.8585e-07 -1.2152e-08)
(-1.5652e-06 -2.24666e-07 -1.88732e-08)
(-1.26693e-06 -2.51997e-07 -2.09956e-08)
(-9.33488e-07 -2.62975e-07 -1.81852e-08)
(-6.0413e-07 -2.51325e-07 -1.10295e-08)
(-3.18537e-07 -2.0943e-07 -1.56499e-09)
(-1.1106e-07 -1.30117e-07 5.72851e-09)
(-5.85994e-09 -2.61137e-08 5.95657e-09)
(-5.01998e-06 -4.79025e-06 -5.0199e-06)
(-7.8684e-06 -9.01481e-06 -2.89683e-06)
(-4.0136e-06 -5.16319e-06 -1.26926e-06)
(-2.20789e-06 -3.05538e-06 -5.90969e-07)
(-5.17623e-07 -2.18298e-06 -2.68516e-07)
(5.81316e-07 -1.6251e-06 -1.09439e-07)
(1.40616e-06 -1.31198e-06 -2.42844e-08)
(1.95251e-06 -1.09601e-06 2.46882e-08)
(2.27236e-06 -9.28776e-07 5.88808e-08)
(2.37612e-06 -7.85795e-07 8.6092e-08)
(2.2764e-06 -6.59514e-07 1.09648e-07)
(1.989e-06 -5.50105e-07 1.3004e-07)
(1.53918e-06 -4.61366e-07 1.46678e-07)
(9.62672e-07 -3.9801e-07 1.58597e-07)
(3.04573e-07 -3.63987e-07 1.6496e-07)
(-3.83726e-07 -3.61333e-07 1.65307e-07)
(-1.04893e-06 -3.89559e-07 1.59713e-07)
(-1.64073e-06 -4.45498e-07 1.48823e-07)
(-2.11649e-06 -5.23562e-07 1.33774e-07)
(-2.44502e-06 -6.16302e-07 1.16091e-07)
(-2.60905e-06 -7.15145e-07 9.74576e-08)
(-2.60619e-06 -8.10829e-07 7.96297e-08)
(-2.44847e-06 -8.94107e-07 6.41135e-08)
(-2.16103e-06 -9.5552e-07 5.21267e-08)
(-1.77963e-06 -9.84972e-07 4.44096e-08)
(-1.34777e-06 -9.71127e-07 4.1024e-08)
(-9.12912e-07 -9.005e-07 4.10207e-08)
(-5.2105e-07 -7.57515e-07 4.18022e-08)
(-2.13637e-07 -5.25416e-07 3.83101e-08)
(-2.13029e-08 -2.01178e-07 2.14228e-08)
(-8.98729e-07 -6.97293e-06 -8.98631e-07)
(-2.01572e-06 -5.47686e-06 -8.03412e-07)
(-1.57406e-06 -4.68413e-06 -5.70846e-07)
(-6.86439e-07 -3.67441e-06 -2.8247e-07)
(3.89105e-07 -3.12215e-06 -1.12297e-07)
(1.26989e-06 -2.72639e-06 -1.342e-08)
(1.99187e-06 -2.45157e-06 4.82219e-08)
(2.50543e-06 -2.22288e-06 8.99794e-08)
(2.80649e-06 -2.01547e-06 1.23054e-07)
(2.88406e-06 -1.8186e-06 1.51775e-07)
(2.7385e-06 -1.63353e-06 1.77735e-07)
(2.3812e-06 -1.46737e-06 2.00664e-07)
(1.83779e-06 -1.32981e-06 2.19538e-07)
(1.14802e-06 -1.23049e-06 2.3311e-07)
(3.63706e-07 -1.17691e-06 2.40349e-07)
(-4.55388e-07 -1.17292e-06 2.40701e-07)
(-1.24695e-06 -1.21789e-06 2.3423e-07)
(-1.95211e-06 -1.30654e-06 2.21648e-07)
(-2.52096e-06 -1.42939e-06 2.04232e-07)
(-2.9172e-06 -1.57373e-06 1.83664e-07)
(-3.12079e-06 -1.72484e-06 1.61796e-07)
(-3.12911e-06 -1.86694e-06 1.40461e-07)
(-2.95606e-06 -1.98391e-06 1.21243e-07)
(-2.63026e-06 -2.05941e-06 1.05357e-07)
(-2.19188e-06 -2.07634e-06 9.3441e-08)
(-1.68897e-06 -2.016e-06 8.54144e-08)
(-1.17339e-06 -1.85682e-06 8.01744e-08)
(-6.94682e-07 -1.57312e-06 7.47744e-08)
(-3.01283e-07 -1.13142e-06 6.3676e-08)
(-3.37702e-08 -4.86442e-07 3.3918e-08)
(-2.8789e-07 -2.65302e-06 -2.87771e-07)
(-9.00454e-07 -4.13374e-06 -3.38389e-07)
(-4.43754e-07 -4.4837e-06 -2.21961e-07)
(2.45174e-07 -4.34451e-06 -9.31963e-08)
(1.08252e-06 -4.19719e-06 -2.51622e-09)
(1.8505e-06 -4.01644e-06 5.86119e-08)
(2.5069e-06 -3.82862e-06 1.03187e-07)
(2.98935e-06 -3.62024e-06 1.38697e-07)
(3.26693e-06 -3.39342e-06 1.70448e-07)
(3.31566e-06 -3.15491e-06 2.00245e-07)
(3.12717e-06 -2.91761e-06 2.28279e-07)
(2.70911e-06 -2.69775e-06 2.5356e-07)
(2.08686e-06 -2.51247e-06 2.74584e-07)
(1.30301e-06 -2.37742e-06 2.89781e-07)
(4.14519e-07 -2.30436e-06 2.97884e-07)
(-5.12134e-07 -2.29931e-06 2.98216e-07)
(-1.40734e-06 -2.36161e-06 2.90828e-07)
(-2.20524e-06 -2.48371e-06 2.76514e-07)
(-2.85017e-06 -2.65187e-06 2.56728e-07)
(-3.3018e-06 -2.84761e-06 2.33338e-07)
(-3.53813e-06 -3.04943e-06 2.08399e-07)
(-3.55651e-06 -3.23437e-06 1.83894e-07)
(-3.37234e-06 -3.37892e-06 1.61497e-07)
(-3.01677e-06 -3.45942e-06 1.42443e-07)
(-2.53301e-06 -3.45138e-06 1.27345e-07)
(-1.97218e-06 -3.3283e-06 1.16041e-07)
(-1.38926e-06 -3.05939e-06 1.07343e-07)
(-8.37028e-07 -2.60584e-06 9.8019e-08)
(-3.71226e-07 -1.9095e-06 8.20189e-08)
(-4.3064e-08 -8.61102e-07 4.32439e-08)
(-1.11663e-07 -2.40392e-06 -1.1152e-07)
(-1.5138e-07 -4.16173e-06 -1.03795e-07)
(2.71803e-07 -5.01908e-06 -4.58045e-08)
(8.87476e-07 -5.37125e-06 1.66396e-08)
(1.62089e-06 -5.51965e-06 6.76989e-08)
(2.33064e-06 -5.51974e-06 1.07897e-07)
(2.94957e-06 -5.42174e-06 1.42525e-07)
(3.41052e-06 -5.24526e-06 1.74633e-07)
(3.66877e-06 -5.01162e-06 2.06375e-07)
(3.69209e-06 -4.74222e-06 2.37993e-07)
(3.466e-06 -4.46109e-06 2.68697e-07)
(2.99513e-06 -4.19366e-06 2.96871e-07)
(2.3046e-06 -3.96495e-06 3.2053e-07)
(1.43925e-06 -3.79687e-06 3.3771e-07)
(4.60566e-07 -3.70576e-06 3.46868e-07)
(-5.59069e-07 -3.70002e-06 3.47171e-07)
(-1.54355e-06 -3.77898e-06 3.38658e-07)
(-2.42087e-06 -3.93284e-06 3.22239e-07)
(-3.13029e-06 -4.14352e-06 2.99598e-07)
(-3.62812e-06 -4.38661e-06 2.72887e-07)
(-3.89103e-06 -4.63385e-06 2.44451e-07)
(-3.91651e-06 -4.85489e-06 2.16488e-07)
(-3.72154e-06 -5.01887e-06 1.90811e-07)
(-3.33956e-06 -5.09482e-06 1.68742e-07)
(-2.81628e-06 -5.05073e-06 1.50908e-07)
(-2.20543e-06 -4.85184e-06 1.37107e-07)
(-1.56483e-06 -4.45686e-06 1.26066e-07)
(-9.50644e-07 -3.81055e-06 1.14284e-07)
(-4.2544e-07 -2.82294e-06 9.5156e-08)
(-4.98855e-08 -1.3047e-06 5.01007e-08)
(-1.22069e-08 -2.33384e-06 -1.20405e-08)
(1.79495e-07 -4.60373e-06 1.15748e-08)
(6.61138e-07 -5.90704e-06 4.59287e-08)
(1.29267e-06 -6.63766e-06 8.03855e-08)
(2.00683e-06 -7.03851e-06 1.12146e-07)
(2.70318e-06 -7.2029e-06 1.41614e-07)
(3.31126e-06 -7.1974e-06 1.71319e-07)
(3.76437e-06 -7.0628e-06 2.02441e-07)
(4.01177e-06 -6.83505e-06 2.35533e-07)
(4.01651e-06 -6.54753e-06 2.69909e-07)
(3.76006e-06 -6.23415e-06 3.04067e-07)
(3.24483e-06 -5.92901e-06 3.35845e-07)
(2.49572e-06 -5.66445e-06 3.62749e-07)
(1.55973e-06 -5.46861e-06 3.8236e-07)
(5.02437e-07 -5.36229e-06 3.92801e-07)
(-5.98269e-07 -5.35621e-06 3.93074e-07)
(-1.66032e-06 -5.44982e-06 3.83203e-07)
(-2.60598e-06 -5.63112e-06 3.64237e-07)
(-3.36999e-06 -5.87792e-06 3.38145e-07)
(-3.90584e-06 -6.16019e-06 3.07474e-07)
(-4.18919e-06 -6.44313e-06 2.74921e-07)
(-4.21817e-06 -6.68956e-06 2.42978e-07)
(-4.01152e-06 -6.86172e-06 2.13689e-07)
(-3.60493e-06 -6.92161e-06 1.88469e-07)
(-3.0466e-06 -6.82981e-06 1.67997e-07)
(-2.39265e-06 -6.54287e-06 1.52032e-07)
(-1.7036e-06 -6.00769e-06 1.39219e-07)
(-1.03879e-06 -5.14971e-06 1.25793e-07)
(-4.66512e-07 -3.8411e-06 1.0459e-07)
(-5.48681e-08 -1.80079e-06 5.51216e-08)
(2.72434e-08 -2.62925e-06 2.74323e-08)
(3.49916e-07 -5.39976e-06 6.53644e-08)
(8.88924e-07 -7.08148e-06 9.25567e-08)
(1.55417e-06 -8.11477e-06 1.16179e-07)
(2.27812e-06 -8.73112e-06 1.39513e-07)
(2.98039e-06 -9.04415e-06 1.64424e-07)
(3.59137e-06 -9.1316e-06 1.92615e-07)
(4.04556e-06 -9.0479e-06 2.24621e-07)
(4.28927e-06 -8.83936e-06 2.60218e-07)
(4.2825e-06 -8.54864e-06 2.982e-07)
(4.0038e-06 -8.21772e-06 3.36543e-07)
(3.45367e-06 -7.88796e-06 3.72549e-07)
(2.65685e-06 -7.59829e-06 4.03214e-07)
(1.66216e-06 -7.38235e-06 4.25641e-07)
(5.38955e-07 -7.26492e-06 4.37567e-07)
(-6.2986e-07 -7.25885e-06 4.37806e-07)
(-1.7568e-06 -7.36368e-06 4.2637e-07)
(-2.75897e-06 -7.56554e-06 4.04483e-07)
(-3.56701e-06 -7.83853e-06 3.74459e-07)
(-4.13213e-06 -8.14765e-06 3.39281e-07)
(-4.42956e-06 -8.45242e-06 3.02063e-07)
(-4.45844e-06 -8.70957e-06 2.6568e-07)
(-4.23951e-06 -8.87519e-06 2.32446e-07)
(-3.8107e-06 -8.90483e-06 2.0389e-07)
(-3.22266e-06 -8.75212e-06 1.80747e-07)
(-2.53368e-06 -8.36458e-06 1.62735e-07)
(-1.80654e-06 -7.6761e-06 1.48426e-07)
(-1.10318e-06 -6.59051e-06 1.33803e-07)
(-4.9604e-07 -4.93761e-06 1.11204e-07)
(-5.84e-08 -2.3358e-06 5.86926e-08)
(4.5948e-08 -3.06317e-06 4.61594e-08)
(4.36332e-07 -6.37403e-06 9.23113e-08)
(1.01755e-06 -8.42458e-06 1.17049e-07)
(1.71279e-06 -9.73419e-06 1.36337e-07)
(2.45255e-06 -1.05512e-05 1.56225e-07)
(3.16569e-06 -1.10082e-05 1.79691e-07)
(3.78406e-06 -1.11938e-05 2.08237e-07)
(4.24325e-06 -1.11729e-05 2.42199e-07)
(4.48804e-06 -1.09995e-05 2.80979e-07)
(4.47622e-06 -1.07233e-05 3.2302e-07)
(4.18399e-06 -1.03926e-05 3.659e-07)
(3.61011e-06 -1.00545e-05 4.06444e-07)
(2.77892e-06 -9.75314e-06 4.41141e-07)
(1.74063e-06 -9.52663e-06 4.66571e-07)
(5.67752e-07 -9.40315e-06 4.80055e-07)
(-6.52597e-07 -9.39735e-06 4.80261e-07)
(-1.82828e-06 -9.50883e-06 4.67199e-07)
(-2.87208e-06 -9.72218e-06 4.42221e-07)
(-3.71134e-06 -1.00085e-05 4.08016e-07)
(-4.29565e-06 -1.03287e-05 3.68075e-07)
(-4.60021e-06 -1.06376e-05 3.25982e-07)
(-4.62565e-06 -1.08871e-05 2.84991e-07)
(-4.39484e-06 -1.10282e-05 2.47665e-07)
(-3.948e-06 -1.10109e-05 2.15705e-07)
(-3.33783e-06 -1.07824e-05 1.89891e-07)
(-2.62428e-06 -1.02812e-05 1.69929e-07)
(-1.87164e-06 -9.42755e-06 1.5429e-07)
(-1.1434e-06 -8.10164e-06 1.38751e-07)
(-5.14368e-07 -6.08768e-06 1.153e-07)
(-6.06251e-08 -2.89737e-06 6.09573e-08)
(5.42032e-08 -3.57178e-06 5.44366e-08)
(4.77106e-07 -7.44891e-06 1.04751e-07)
(1.0806e-06 -9.86676e-06 1.28722e-07)
(1.79162e-06 -1.14411e-05 1.46448e-07)
(2.53941e-06 -1.24529e-05 1.65237e-07)
(3.25767e-06 -1.30549e-05 1.88763e-07)
(3.87992e-06 -1.33473e-05 2.18557e-07)
(4.34276e-06 -1.34034e-05 2.54875e-07)
(4.59036e-06 -1.32834e-05 2.97001e-07)
(4.57897e-06 -1.3042e-05 3.43122e-07)
(4.28264e-06 -1.27319e-05 3.90484e-07)
(3.69829e-06 -1.24039e-05 4.35489e-07)
(2.84951e-06 -1.21061e-05 4.74109e-07)
(1.78709e-06 -1.188e-05 5.02439e-07)
(5.85739e-07 -1.17563e-05 5.17438e-07)
(-6.64277e-07 -1.17509e-05 5.17612e-07)
(-1.86764e-06 -1.18637e-05 5.02963e-07)
(-2.93391e-06 -1.20779e-05 4.74988e-07)
(-3.78816e-06 -1.23625e-05 4.36753e-07)
(-4.37926e-06 -1.26752e-05 3.9221e-07)
(-4.68315e-06 -1.29677e-05 3.45379e-07)
(-4.70224e-06 -1.31883e-05 2.99944e-07)
(-4.4615e-06 -1.32843e-05 2.58725e-07)
(-4.00319e-06 -1.32017e-05 2.23567e-07)
(-3.38133e-06 -1.28815e-05 1.95272e-07)
(-2.65678e-06 -1.22537e-05 1.73524e-07)
(-1.89418e-06 -1.12245e-05 1.56755e-07)
(-1.15704e-06 -9.64954e-06 1.40597e-07)
(-5.20636e-07 -7.26535e-06 1.16795e-07)
(-6.14847e-08 -3.47289e-06 6.18576e-08)
(5.70401e-08 -4.10972e-06 5.72867e-08)
(4.87882e-07 -8.56243e-06 1.08762e-07)
(1.09227e-06 -1.13451e-05 1.32148e-07)
(1.79937e-06 -1.31783e-05 1.49227e-07)
(2.5393e-06 -1.43832e-05 1.67816e-07)
(3.24949e-06 -1.51346e-05 1.919e-07)
(3.86581e-06 -1.55447e-05 2.23062e-07)
(4.32645e-06 -1.56937e-05 2.61585e-07)
(4.57584e-06 -1.5647e-05 3.06656e-07)
(4.56928e-06 -1.54622e-05 3.56328e-07)
(4.27898e-06 -1.51942e-05 4.07579e-07)
(3.69995e-06 -1.48962e-05 4.5644e-07)
(2.8543e-06 -1.46185e-05 4.98479e-07)
(1.79236e-06 -1.44044e-05 5.29332e-07)
(5.89583e-07 -1.42864e-05 5.45614e-07)
(-6.62288e-07 -1.42816e-05 5.4576e-07)
(-1.86636e-06 -1.43898e-05 5.29768e-07)
(-2.93075e-06 -1.45935e-05 4.992e-07)
(-3.77977e-06 -1.486e-05 4.57443e-07)
(-4.36276e-06 -1.51453e-05 4.08878e-07)
(-4.65712e-06 -1.53992e-05 3.58001e-07)
(-4.66722e-06 -1.5568e-05 3.08793e-07)
(-4.42012e-06 -1.55973e-05 2.64278e-07)
(-3.95944e-06 -1.54298e-05 2.26434e-07)
(-3.33966e-06 -1.50021e-05 1.96105e-07)
(-2.62116e-06 -1.42361e-05 1.7295e-07)
(-1.86739e-06 -1.3024e-05 1.55333e-07)
(-1.14033e-06 -1.11965e-05 1.38886e-07)
(-5.13292e-07 -8.44173e-06 1.15341e-07)
(-6.07902e-08 -4.04845e-06 6.12061e-08)
(5.62651e-08 -4.64716e-06 5.65346e-08)
(4.74833e-07 -9.6647e-06 1.06706e-07)
(1.05756e-06 -1.28021e-05 1.29109e-07)
(1.73752e-06 -1.48865e-05 1.45643e-07)
(2.44824e-06 -1.6283e-05 1.64121e-07)
(3.13158e-06 -1.71886e-05 1.88656e-07)
(3.72709e-06 -1.77273e-05 2.20818e-07)
(4.17585e-06 -1.79859e-05 2.60924e-07)
(4.42354e-06 -1.80327e-05 3.08135e-07)
(4.42545e-06 -1.79268e-05 3.60439e-07)
(4.15238e-06 -1.77233e-05 4.14643e-07)
(3.59714e-06 -1.74758e-05 4.66498e-07)
(2.77943e-06 -1.7235e-05 5.11215e-07)
(1.74767e-06 -1.70448e-05 5.44088e-07)
(5.76165e-07 -1.69387e-05 5.61393e-07)
(-6.43874e-07 -1.69345e-05 5.61507e-07)
(-1.81609e-06 -1.70321e-05 5.44412e-07)
(-2.84919e-06 -1.72134e-05 5.11742e-07)
(-3.66857e-06 -1.74448e-05 4.67238e-07)
(-4.22555e-06 -1.76819e-05 4.15591e-07)
(-4.50006e-06 -1.78741e-05 3.61648e-07)
(-4.49884e-06 -1.7968e-05 3.09646e-07)
(-4.25057e-06 -1.79086e-05 2.62784e-07)
(-3.79922e-06 -1.76375e-05 2.2309e-07)
(-3.19848e-06 -1.70876e-05 1.91399e-07)
(-2.5066e-06 -1.61741e-05 1.67364e-07)
(-1.7839e-06 -1.47757e-05 1.49349e-07)
(-1.08883e-06 -1.26988e-05 1.33074e-07)
(-4.9032e-07 -9.58357e-06 1.10471e-07)
(-5.82802e-08 -4.60789e-06 5.87377e-08)
(5.26023e-08 -5.1586e-06 5.28745e-08)
(4.39933e-07 -1.07084e-05 9.94077e-08)
(9.77152e-07 -1.41794e-05 1.20101e-07)
(1.60392e-06 -1.65024e-05 1.35789e-07)
(2.2601e-06 -1.80856e-05 1.53858e-07)
(2.89357e-06 -1.91483e-05 1.78277e-07)
(3.44939e-06 -1.98251e-05 2.10616e-07)
(3.87322e-06 -2.02084e-05 2.51217e-07)
(4.1136e-06 -2.03682e-05 2.99276e-07)
(4.12692e-06 -2.03629e-05 3.52799e-07)
(3.88315e-06 -2.02464e-05 4.0856e-07)
(3.3726e-06 -2.007e-05 4.62204e-07)
(2.61156e-06 -1.9883e-05 5.08613e-07)
(1.64461e-06 -1.97288e-05 5.42824e-07)
(5.42532e-07 -1.96407e-05 5.60832e-07)
(-6.06423e-07 -1.96371e-05 5.609e-07)
(-1.7087e-06 -1.97179e-05 5.43035e-07)
(-2.67599e-06 -1.98647e-05 5.08957e-07)
(-3.43729e-06 -2.00437e-05 4.6268e-07)
(-3.94783e-06 -2.02117e-05 4.0919e-07)
(-4.19113e-06 -2.03195e-05 3.53596e-07)
(-4.17657e-06 -2.03157e-05 3.00255e-07)
(-3.93379e-06 -2.01469e-05 2.52443e-07)
(-3.50597e-06 -1.97551e-05 2.12105e-07)
(-2.94422e-06 -1.90714e-05 1.80062e-07)
(-2.30265e-06 -1.80047e-05 1.55921e-07)
(-1.63641e-06 -1.64222e-05 1.3809e-07)
(-9.98122e-07 -1.41068e-05 1.22516e-07)
(-4.49708e-07 -1.0653e-05 1.01661e-07)
(-5.37034e-08 -5.13283e-06 5.42073e-08)
(4.62086e-08 -5.61995e-06 4.65011e-08)
(3.83451e-07 -1.16466e-05 8.71238e-08)
(8.50283e-07 -1.54169e-05 1.05254e-07)
(1.39592e-06 -1.79576e-05 1.1952e-07)
(1.9694e-06 -1.97175e-05 1.3657e-07)
(2.52684e-06 -2.09357e-05 1.6003e-07)
(3.02099e-06 -2.17568e-05 1.91354e-07)
(3.40409e-06 -2.22776e-05 2.30998e-07)
(3.62962e-06 -2.2568e-05 2.78317e-07)
(3.65646e-06 -2.26843e-05 3.31473e-07)
(3.45474e-06 -2.26766e-05 3.87331e-07)
(3.01203e-06 -2.25924e-05 4.4155e-07)
(2.33976e-06 -2.24772e-05 4.88842e-07)
(1.47642e-06 -2.23718e-05 5.24032e-07)
(4.86418e-07 -2.23085e-05 5.42676e-07)
(-5.47639e-07 -2.23055e-05 5.42703e-07)
(-1.53738e-06 -2.23626e-05 5.24122e-07)
(-2.4002e-06 -2.24617e-05 4.88996e-07)
(-3.07158e-06 -2.25704e-05 4.41765e-07)
(-3.513e-06 -2.26479e-05 3.87645e-07)
(-3.71282e-06 -2.26487e-05 3.31942e-07)
(-3.68326e-06 -2.25257e-05 2.78926e-07)
(-3.45413e-06 -2.22289e-05 2.31766e-07)
(-3.06627e-06 -2.17025e-05 1.92283e-07)
(-2.56604e-06 -2.08772e-05 1.61129e-07)
(-2.00123e-06 -1.96573e-05 1.37847e-07)
(-1.41932e-06 -1.78993e-05 1.20956e-07)
(-8.64776e-07 -1.53654e-05 1.06768e-07)
(-3.89823e-07 -1.16082e-05 8.8529e-08)
(-4.68183e-08 -5.60275e-06 4.7362e-08)
(3.71517e-08 -6.00709e-06 3.74445e-08)
(3.05521e-07 -1.24311e-05 6.98556e-08)
(6.76662e-07 -1.64525e-05 8.44469e-08)
(1.11217e-06 -1.91807e-05 9.6565e-08)
(1.57326e-06 -2.10997e-05 1.11718e-07)
(2.02639e-06 -2.2466e-05 1.3299e-07)
(2.4344e-06 -2.34323e-05 1.61772e-07)
(2.75852e-06 -2.40983e-05 1.98574e-07)
(2.95942e-06 -2.45328e-05 2.42934e-07)
(3.00048e-06 -2.47887e-05 2.93361e-07)
(2.85297e-06 -2.49105e-05 3.47027e-07)
(2.50189e-06 -2.49394e-05 3.99889e-07)
(1.95284e-06 -2.49148e-05 4.46699e-07)
(1.23575e-06 -2.48728e-05 4.82087e-07)
(4.05277e-07 -2.4842e-05 5.01075e-07)
(-4.64945e-07 -2.48394e-05 5.01051e-07)
(-1.29476e-06 -2.48649e-05 4.82041e-07)
(-2.01061e-06 -2.49017e-05 4.46653e-07)
(-2.55778e-06 -2.49209e-05 3.99881e-07)
(-2.90638e-06 -2.48866e-05 3.47071e-07)
(-3.05086e-06 -2.47595e-05 2.9348e-07)
(-3.00617e-06 -2.44987e-05 2.43159e-07)
(-2.80088e-06 -2.40597e-05 1.98929e-07)
(-2.47158e-06 -2.33901e-05 1.62266e-07)
(-2.05756e-06 -2.24214e-05 1.33623e-07)
(-1.59771e-06 -2.10548e-05 1.12474e-07)
(-1.12946e-06 -1.91381e-05 9.74215e-08)
(-6.86916e-07 -1.64156e-05 8.53818e-08)
(-3.09748e-07 -1.24043e-05 7.07641e-08)
(-3.74645e-08 -5.99545e-06 3.80478e-08)
(2.55228e-08 -6.29635e-06 2.58145e-08)
(2.0689e-07 -1.30145e-05 4.77854e-08)
(4.57781e-07 -1.72241e-05 5.78532e-08)
(7.54789e-07 -2.00991e-05 6.69656e-08)
(1.0739e-06 -2.21509e-05 7.91803e-08)
(1.39392e-06 -2.36494e-05 9.68382e-08)
(1.69018e-06 -2.47538e-05 1.21114e-07)
(1.93521e-06 -2.5565e-05 1.52599e-07)
(2.09925e-06 -2.61501e-05 1.91169e-07)
(2.15256e-06 -2.65574e-05 2.35846e-07)
(2.06944e-06 -2.68247e-05 2.84365e-07)
(1.83316e-06 -2.69849e-05 3.33186e-07)
(1.44252e-06 -2.70689e-05 3.77339e-07)
(9.16692e-07 -2.71045e-05 4.11496e-07)
(2.97037e-07 -2.71145e-05 4.30207e-07)
(-3.5594e-07 -2.71122e-05 4.30155e-07)
(-9.7459e-07 -2.70977e-05 4.11378e-07)
(-1.49856e-06 -2.70577e-05 3.77148e-07)
(-1.88654e-06 -2.69693e-05 3.3297e-07)
(-2.11956e-06 -2.68048e-05 2.84176e-07)
(-2.19876e-06 -2.65335e-05 2.35732e-07)
(-2.141e-06 -2.61226e-05 1.91137e-07)
(-1.97199e-06 -2.55343e-05 1.52654e-07)
(-1.72153e-06 -2.47208e-05 1.21277e-07)
(-1.4194e-06 -2.36152e-05 9.71159e-08)
(-1.09324e-06 -2.21171e-05 7.95714e-08)
(-7.67959e-07 -2.00677e-05 6.74613e-08)
(-4.65238e-07 -1.71976e-05 5.84212e-08)
(-2.09741e-07 -1.29957e-05 4.83917e-08)
(-2.56483e-08 -6.28843e-06 2.62668e-08)
(1.1528e-08 -6.46544e-06 1.18105e-08)
(8.96266e-08 -1.33525e-05 2.12991e-08)
(1.98217e-07 -1.76735e-05 2.58622e-08)
(3.30972e-07 -2.06434e-05 3.10791e-08)
(4.80713e-07 -2.27915e-05 3.91333e-08)
(6.40301e-07 -2.43962e-05 5.14086e-08)
(7.99415e-07 -2.56202e-05 6.8799e-08)
(9.44165e-07 -2.65648e-05 9.19019e-08)
(1.05696e-06 -2.72948e-05 1.20885e-07)
(1.11743e-06 -2.78531e-05 1.55286e-07)
(1.1051e-06 -2.82704e-05 1.93653e-07)
(1.00314e-06 -2.85703e-05 2.33418e-07)
(8.04128e-07 -2.87729e-05 2.70398e-07)
(5.1489e-07 -2.88955e-05 2.99783e-07)
(1.5999e-07 -2.89516e-05 3.16265e-07)
(-2.18727e-07 -2.89497e-05 3.16165e-07)
(-5.72391e-07 -2.88897e-05 2.99564e-07)
(-8.59271e-07 -2.87632e-05 2.70062e-07)
(-1.05496e-06 -2.85568e-05 2.33046e-07)
(-1.1529e-06 -2.82536e-05 1.93265e-07)
(-1.16062e-06 -2.78332e-05 1.54943e-07)
(-1.09515e-06 -2.72722e-05 1.20592e-07)
(-9.77007e-07 -2.65401e-05 9.17042e-08)
(-8.26655e-07 -2.55941e-05 6.87078e-08)
(-6.61806e-07 -2.43698e-05 5.14154e-08)
(-4.96501e-07 -2.27659e-05 3.92477e-08)
(-3.41301e-07 -2.06201e-05 3.13012e-08)
(-2.0375e-07 -1.76541e-05 2.6177e-08)
(-9.15388e-08 -1.33391e-05 2.17057e-08)
(-1.15291e-08 -6.46003e-06 1.21781e-08)
(-4.39317e-09 -6.49517e-06 -4.10337e-09)
(-4.2464e-08 -1.34068e-05 -8.74865e-09)
(-9.35706e-08 -1.77502e-05 -1.05019e-08)
(-1.45484e-07 -2.07534e-05 -1.00119e-08)
(-1.87311e-07 -2.2951e-05 -7.29255e-09)
(-2.109e-07 -2.46243e-05 -2.11213e-09)
(-2.10899e-07 -2.59361e-05 5.91363e-09)
(-1.85937e-07 -2.69867e-05 1.73204e-08)
(-1.39281e-07 -2.78378e-05 3.25099e-08)
(-7.9424e-08 -2.85276e-05 5.16055e-08)
(-1.88032e-08 -2.90795e-05 7.40832e-08)
(2.79682e-08 -2.95079e-05 9.85928e-08)
(4.82952e-08 -2.98224e-05 1.22398e-07)
(3.62171e-08 -3.00284e-05 1.42099e-07)
(-3.92981e-09 -3.01296e-05 1.53497e-07)
(-5.48924e-08 -3.0128e-05 1.53384e-07)
(-9.35741e-08 -3.00234e-05 1.41829e-07)
(-1.02928e-07 -2.98138e-05 1.21972e-07)
(-7.88006e-08 -2.94963e-05 9.80787e-08)
(-2.75246e-08 -2.9065e-05 7.3515e-08)
(3.82094e-08 -2.85106e-05 5.10943e-08)
(1.03526e-07 -2.78189e-05 3.20434e-08)
(1.55835e-07 -2.69664e-05 1.69497e-08)
(1.86523e-07 -2.59152e-05 5.63802e-09)
(1.92172e-07 -2.46034e-05 -2.30335e-09)
(1.73988e-07 -2.29313e-05 -7.37155e-09)
(1.37091e-07 -2.07358e-05 -9.97827e-09)
(8.93199e-08 -1.7736e-05 -1.03288e-08)
(4.1163e-08 -1.33972e-05 -8.46498e-09)
(4.46368e-09 -6.49144e-06 -3.79073e-09)
(-2.15278e-08 -6.37181e-06 -2.12637e-08)
(-1.83564e-07 -1.31508e-05 -4.11007e-08)
(-4.04757e-07 -1.74187e-05 -4.97285e-08)
(-6.53763e-07 -2.03853e-05 -5.46123e-08)
(-9.00939e-07 -2.25767e-05 -5.8172e-08)
(-1.12261e-06 -2.42698e-05 -6.15505e-08)
(-1.29691e-06 -2.56245e-05 -6.48862e-08)
(-1.40611e-06 -2.67377e-05 -6.79491e-08)
(-1.43775e-06 -2.76676e-05 -7.02468e-08)
(-1.38631e-06 -2.84475e-05 -7.10948e-08)
(-1.25406e-06 -2.90951e-05 -7.01002e-08)
(-1.05112e-06 -2.96174e-05 -6.69652e-08)
(-7.93473e-07 -3.00147e-05 -6.23792e-08)
(-4.99842e-07 -3.02833e-05 -5.7435e-08)
(-1.88112e-07 -3.04185e-05 -5.40774e-08)
(1.29209e-07 -3.0417e-05 -5.41988e-08)
(4.42561e-07 -3.02785e-05 -5.77558e-08)
(7.39125e-07 -3.00067e-05 -6.28824e-08)
(1.00088e-06 -2.96069e-05 -6.75694e-08)
(1.20877e-06 -2.90822e-05 -7.0756e-08)
(1.34649e-06 -2.84328e-05 -7.17465e-08)
(1.40367e-06 -2.76514e-05 -7.08443e-08)
(1.37789e-06 -2.67208e-05 -6.84864e-08)
(1.27448e-06 -2.56074e-05 -6.53152e-08)
(1.10576e-06 -2.4253e-05 -6.18774e-08)
(8.89281e-07 -2.25613e-05 -5.84097e-08)
(6.46665e-07 -2.03718e-05 -5.47145e-08)
(4.01373e-07 -1.74081e-05 -4.96824e-08)
(1.82699e-07 -1.31438e-05 -4.09041e-08)
(2.16659e-08 -6.3692e-06 -2.09772e-08)
(-3.90254e-08 -6.08887e-06 -3.87644e-08)
(-3.26264e-07 -1.25722e-05 -7.40221e-08)
(-7.18751e-07 -1.66631e-05 -8.96691e-08)
(-1.16658e-06 -1.9519e-05 -1.00219e-07)
(-1.62173e-06 -2.16433e-05 -1.10514e-07)
(-2.0452e-06 -2.33005e-05 -1.23084e-07)
(-2.39869e-06 -2.46436e-05 -1.38728e-07)
(-2.64776e-06 -2.57643e-05 -1.57562e-07)
(-2.76355e-06 -2.67162e-05 -1.79044e-07)
(-2.72576e-06 -2.75293e-05 -2.02027e-07)
(-2.52508e-06 -2.82164e-05 -2.25007e-07)
(-2.16571e-06 -2.87797e-05 -2.46008e-07)
(-1.66589e-06 -2.92142e-05 -2.63358e-07)
(-1.05686e-06 -2.95116e-05 -2.75454e-07)
(-3.79639e-07 -2.96626e-05 -2.81511e-07)
(3.20986e-07 -2.9661e-05 -2.81642e-07)
(9.99844e-07 -2.9507e-05 -2.758e-07)
(1.61196e-06 -2.92069e-05 -2.63879e-07)
(2.11605e-06 -2.87699e-05 -2.46655e-07)
(2.48053e-06 -2.82046e-05 -2.25703e-07)
(2.68687e-06 -2.75161e-05 -2.02737e-07)
(2.7306e-06 -2.67021e-05 -1.79712e-07)
(2.6208e-06 -2.57498e-05 -1.58173e-07)
(2.37756e-06 -2.46293e-05 -1.39246e-07)
(2.02959e-06 -2.32869e-05 -1.23496e-07)
(1.61117e-06 -2.16308e-05 -1.1082e-07)
(1.16037e-06 -1.95084e-05 -1.00394e-07)
(7.15953e-07 -1.6655e-05 -8.96955e-08)
(3.25665e-07 -1.2567e-05 -7.38735e-08)
(3.91944e-08 -6.08704e-06 -3.84994e-08)
(-5.57632e-08 -5.64909e-06 -5.55298e-08)
(-4.61859e-07 -1.16775e-05 -1.05553e-07)
(-1.01662e-06 -1.54921e-05 -1.27931e-07)
(-1.65308e-06 -1.8164e-05 -1.43937e-07)
(-2.30613e-06 -2.01596e-05 -1.60768e-07)
(-2.92238e-06 -2.1724e-05 -1.8231e-07)
(-3.44791e-06 -2.29985e-05 -2.10022e-07)
(-3.83226e-06 -2.40681e-05 -2.44283e-07)
(-4.03063e-06 -2.49819e-05 -2.84461e-07)
(-4.00802e-06 -2.57662e-05 -3.28987e-07)
(-3.74368e-06 -2.64315e-05 -3.75302e-07)
(-3.23579e-06 -2.69785e-05 -4.19849e-07)
(-2.50445e-06 -2.7401e-05 -4.58554e-07)
(-1.59269e-06 -2.76903e-05 -4.87226e-07)
(-5.63859e-07 -2.78373e-05 -5.02429e-07)
(5.05896e-07 -2.78358e-05 -5.02544e-07)
(1.53634e-06 -2.76861e-05 -4.87559e-07)
(2.45116e-06 -2.73943e-05 -4.59074e-07)
(3.18678e-06 -2.69695e-05 -4.20478e-07)
(3.69987e-06 -2.64209e-05 -3.7599e-07)
(3.96996e-06 -2.57545e-05 -3.29715e-07)
(3.99854e-06 -2.49696e-05 -2.85162e-07)
(3.8062e-06 -2.40556e-05 -2.44913e-07)
(3.42769e-06 -2.29864e-05 -2.10595e-07)
(2.90761e-06 -2.17126e-05 -1.8278e-07)
(2.29629e-06 -2.01497e-05 -1.61115e-07)
(1.64744e-06 -1.81557e-05 -1.44162e-07)
(1.01418e-06 -1.54858e-05 -1.28001e-07)
(4.61435e-07 -1.16736e-05 -1.05427e-07)
(5.59601e-08 -5.6478e-06 -5.52678e-08)
(-7.06374e-08 -5.06529e-06 -7.04184e-08)
(-5.81316e-07 -1.04935e-05 -1.33546e-07)
(-1.2786e-06 -1.39411e-05 -1.61859e-07)
(-2.08119e-06 -1.6362e-05 -1.82683e-07)
(-2.90937e-06 -1.81719e-05 -2.05283e-07)
(-3.69702e-06 -1.95903e-05 -2.34699e-07)
(-4.37599e-06 -2.07444e-05 -2.72896e-07)
(-4.88121e-06 -2.17101e-05 -3.20486e-07)
(-5.15336e-06 -2.25316e-05 -3.76706e-07)
(-5.1442e-06 -2.32324e-05 -4.39524e-07)
(-4.82306e-06 -2.38227e-05 -5.05467e-07)
(-4.18291e-06 -2.4304e-05 -5.69548e-07)
(-3.24591e-06 -2.46725e-05 -6.25802e-07)
(-2.06597e-06 -2.49231e-05 -6.67964e-07)
(-7.26276e-07 -2.50496e-05 -6.90579e-07)
(6.69492e-07 -2.50483e-05 -6.90673e-07)
(2.01075e-06 -2.49193e-05 -6.68241e-07)
(3.19375e-06 -2.46665e-05 -6.26244e-07)
(4.13491e-06 -2.42959e-05 -5.70118e-07)
(4.78017e-06 -2.38132e-05 -5.06108e-07)
(5.10697e-06 -2.3222e-05 -4.40195e-07)
(5.12206e-06 -2.25208e-05 -3.77381e-07)
(4.85591e-06 -2.16993e-05 -3.21111e-07)
(4.35646e-06 -2.07341e-05 -2.7347e-07)
(3.68285e-06 -1.95809e-05 -2.35191e-07)
(2.90003e-06 -1.81638e-05 -2.05676e-07)
(2.07591e-06 -1.63554e-05 -1.82946e-07)
(1.27637e-06 -1.39364e-05 -1.61958e-07)
(5.80974e-07 -1.04906e-05 -1.33439e-07)
(7.08387e-08 -5.06442e-06 -7.01651e-08)
(-8.24845e-08 -4.36031e-06 -8.22878e-08)
(-6.75544e-07 -9.06686e-06 -1.55838e-07)
(-1.48547e-06 -1.20719e-05 -1.88856e-07)
(-2.42069e-06 -1.41852e-05 -2.13437e-07)
(-3.39013e-06 -1.5762e-05 -2.40506e-07)
(-4.31721e-06 -1.69912e-05 -2.76035e-07)
(-5.1217e-06 -1.7983e-05 -3.22316e-07)
(-5.72587e-06 -1.88038e-05 -3.80047e-07)
(-6.05811e-06 -1.94929e-05 -4.48352e-07)
(-6.05954e-06 -2.00716e-05 -5.24719e-07)
(-5.69147e-06 -2.05504e-05 -6.04885e-07)
(-4.94339e-06 -2.09336e-05 -6.82858e-07)
(-3.83998e-06 -2.12218e-05 -7.51379e-07)
(-2.44438e-06 -2.14145e-05 -8.02779e-07)
(-8.55739e-07 -2.15106e-05 -8.30385e-07)
(8.00808e-07 -2.15095e-05 -8.3047e-07)
(2.39091e-06 -2.1411e-05 -8.03046e-07)
(3.78936e-06 -2.12163e-05 -7.51781e-07)
(4.89678e-06 -2.09265e-05 -6.83374e-07)
(5.6498e-06 -2.05421e-05 -6.05486e-07)
(6.02336e-06 -2.00625e-05 -5.25353e-07)
(6.02775e-06 -1.94836e-05 -4.48991e-07)
(5.70135e-06 -1.87947e-05 -3.80668e-07)
(5.1028e-06 -1.79744e-05 -3.22885e-07)
(4.30357e-06 -1.69835e-05 -2.76531e-07)
(3.38117e-06 -1.57555e-05 -2.40912e-07)
(2.41564e-06 -1.41801e-05 -2.13696e-07)
(1.48341e-06 -1.20684e-05 -1.88963e-07)
(6.75271e-07 -9.06485e-06 -1.5575e-07)
(8.26891e-08 -4.35977e-06 -8.20436e-08)
(-9.01413e-08 -3.56699e-06 -8.99687e-08)
(-7.35965e-07 -7.46389e-06 -1.70221e-07)
(-1.61958e-06 -9.97094e-06 -2.06146e-07)
(-2.64448e-06 -1.17348e-05 -2.32985e-07)
(-3.71258e-06 -1.30434e-05 -2.62811e-07)
(-4.73934e-06 -1.40521e-05 -3.02185e-07)
(-5.635e-06 -1.48536e-05 -3.53647e-07)
(-6.31173e-06 -1.55042e-05 -4.17889e-07)
(-6.68844e-06 -1.6038e-05 -4.93793e-07)
(-6.6982e-06 -1.64745e-05 -5.78434e-07)
(-6.29703e-06 -1.68252e-05 -6.67028e-07)
(-5.47265e-06 -1.70968e-05 -7.52932e-07)
(-4.25229e-06 -1.72947e-05 -8.2816e-07)
(-2.70616e-06 -1.74233e-05 -8.84443e-07)
(-9.44747e-07 -1.74861e-05 -9.14657e-07)
(8.92277e-07 -1.74851e-05 -9.14728e-07)
(2.65505e-06 -1.74204e-05 -8.84672e-07)
(4.20387e-06 -1.72901e-05 -8.28514e-07)
(5.42802e-06 -1.70908e-05 -7.53392e-07)
(6.25705e-06 -1.68181e-05 -6.67565e-07)
(6.66346e-06 -1.64669e-05 -5.79014e-07)
(6.65925e-06 -1.60302e-05 -4.94393e-07)
(6.28815e-06 -1.54967e-05 -4.18474e-07)
(5.61685e-06 -1.48466e-05 -3.54187e-07)
(4.72627e-06 -1.4046e-05 -3.02661e-07)
(3.70401e-06 -1.30382e-05 -2.63219e-07)
(2.63968e-06 -1.17309e-05 -2.33261e-07)
(1.61762e-06 -9.96832e-06 -2.06267e-07)
(7.35706e-07 -7.46257e-06 -1.70148e-07)
(9.03366e-08 -3.56675e-06 -8.97403e-08)
(-9.23486e-08 -2.72795e-06 -9.21984e-08)
(-7.54048e-07 -5.76886e-06 -1.74244e-07)
(-1.66469e-06 -7.74681e-06 -2.10623e-07)
(-2.7291e-06 -9.13642e-06 -2.37653e-07)
(-3.84705e-06 -1.01561e-05 -2.68016e-07)
(-4.92874e-06 -1.09276e-05 -3.08579e-07)
(-5.87754e-06 -1.15254e-05 -3.62024e-07)
(-6.59836e-06 -1.19962e-05 -4.28935e-07)
(-7.00375e-06 -1.23687e-05 -5.07974e-07)
(-7.02179e-06 -1.26607e-05 -5.95906e-07)
(-6.60561e-06 -1.28838e-05 -6.87609e-07)
(-5.74256e-06 -1.30471e-05 -7.76156e-07)
(-4.46208e-06 -1.3159e-05 -8.53384e-07)
(-2.83874e-06 -1.32275e-05 -9.10942e-07)
(-9.89138e-07 -1.32594e-05 -9.41765e-07)
(9.39891e-07 -1.32586e-05 -9.41825e-07)