/*--------------------------------*- C++ -*----------------------------------*\
| =========                 |                                                 |
| \\      /  F ield         | OpenFOAM: The Open Source CFD Toolbox           |
|  \\    /   O peration     | Version:  v1906                                 |
|   \\  /    A nd           | Web:      www.OpenFOAM.com                      |
|    \\/     M anipulation  |                                                 |
\*---------------------------------------------------------------------------*/
FoamFile
{
    version     2.0;
    format      ascii;
    class       surfaceScalarField;
    location    "99.4/oil";
    object      phi;
}
// * * * * * * * * * * * * * * * * * * * * * * * * * * * * * * * * * * * * * //

dimensions      [1 0 -1 0 0 0 0];
oriented        oriented;


internalField   nonuniform List<scalar> 
80688
(
-2.02538e-06
-2.05235e-06
-2.02538e-06
-9.12666e-07
-5.71591e-07
-5.41128e-07
-2.70663e-07
-3.22779e-07
-3.19225e-07
-1.22623e-07
-7.41662e-08
-7.38728e-08
-3.95029e-08
-4.13752e-08
-4.17454e-08
2.35641e-09
-2.03556e-08
-2.15036e-08
2.57898e-08
-1.07417e-08
-1.26917e-08
3.9006e-08
-5.3182e-09
-7.89791e-09
4.54592e-08
-1.73594e-09
-4.71723e-09
4.66128e-08
1.00163e-09
-2.15523e-09
4.3236e-08
3.2665e-09
1.10415e-10
3.60069e-08
5.15494e-09
2.07418e-09
2.5663e-08
6.64346e-09
3.70046e-09
1.31038e-08
7.68647e-09
4.87277e-09
-6.29425e-10
8.23558e-09
5.49764e-09
-1.44232e-08
8.2654e-09
5.52841e-09
-2.71788e-08
7.78332e-09
4.97228e-09
-3.79046e-08
6.83225e-09
3.89362e-09
-4.58072e-08
5.48933e-09
2.41323e-09
-5.03627e-08
3.85285e-09
7.02674e-10
-5.13331e-08
2.05591e-09
-1.08545e-09
-4.88099e-08
2.06131e-10
-2.7293e-09
-4.32363e-08
-1.52833e-09
-4.04526e-09
-3.53254e-08
-3.04793e-09
-4.86297e-09
-2.60508e-08
-4.20691e-09
-5.06772e-09
-1.65897e-08
-4.8432e-09
-4.61786e-09
-8.23717e-09
-4.75999e-09
-3.59251e-09
-2.25595e-09
-3.73513e-09
-2.24606e-09
4.46229e-10
-1.6166e-09
-1.08555e-09
8.89149e-10
-4.42903e-10
-5.4626e-07
-9.59835e-07
-5.46254e-07
-3.34889e-07
-3.72539e-07
-4.10424e-07
-2.20049e-07
-2.53083e-07
-1.84536e-07
-9.31201e-08
-1.24823e-07
-7.62719e-08
-1.48157e-08
-8.28142e-08
-3.68653e-08
3.52972e-08
-5.70287e-08
-1.34398e-08
6.82842e-08
-4.29723e-08
-7.56291e-10
8.87359e-08
-3.31285e-08
7.35865e-09
9.87553e-08
-2.52519e-08
1.34966e-08
9.93529e-08
-1.83205e-08
1.87247e-08
9.13257e-08
-1.20973e-08
2.3391e-08
7.56682e-08
-6.67417e-09
2.74866e-08
5.37568e-08
-2.27705e-09
3.08318e-08
2.73717e-08
8.42245e-10
3.32294e-08
-1.39565e-09
2.49699e-09
3.4506e-08
-3.02828e-08
2.57888e-09
3.45736e-08
-5.70511e-08
1.10548e-09
3.34462e-08
-7.96849e-08
-1.77859e-09
3.12447e-08
-9.65647e-08
-5.82243e-09
2.81916e-08
-1.06605e-07
-1.06801e-08
2.45732e-08
-1.09346e-07
-1.59387e-08
2.07357e-08
-1.05e-07
-2.11509e-08
1.70105e-08
-9.43996e-08
-2.58484e-08
1.37201e-08
-7.89809e-08
-2.95617e-08
1.10951e-08
-6.06531e-08
-3.18056e-08
9.27089e-09
-4.1652e-08
-3.20641e-08
8.21979e-09
-2.43234e-08
-2.97813e-08
7.69278e-09
-1.0811e-08
-2.4403e-08
7.15546e-09
-2.59505e-09
-1.55565e-08
5.72398e-09
-4.30632e-09
2.60044e-09
-3.21017e-07
-3.17811e-07
-3.21008e-07
-2.16042e-07
-2.93804e-07
-1.83709e-07
-1.29501e-07
-2.29336e-07
-1.10287e-07
-4.25578e-08
-1.62952e-07
-4.88151e-08
2.21111e-08
-1.32118e-07
-1.53653e-08
7.05295e-08
-1.10871e-07
5.4238e-09
1.05199e-07
-9.60882e-08
1.8446e-08
1.27542e-07
-8.33334e-08
2.78621e-08
1.38067e-07
-7.13294e-08
3.55526e-08
1.3706e-07
-5.96818e-08
4.23685e-08
1.25079e-07
-4.86408e-08
4.85242e-08
1.03198e-07
-3.87289e-08
5.39356e-08
7.31363e-08
-3.05629e-08
5.8348e-08
3.71871e-08
-2.47131e-08
6.15047e-08
-1.89143e-09
-2.16085e-08
6.31841e-08
-4.11157e-08
-2.14698e-08
6.3273e-08
-7.75261e-08
-2.42715e-08
6.17874e-08
-1.08445e-07
-2.97374e-08
5.88775e-08
-1.31729e-07
-3.73571e-08
5.48187e-08
-1.45935e-07
-4.6435e-08
4.99614e-08
-1.5046e-07
-5.6137e-08
4.47233e-08
-1.45552e-07
-6.55506e-08
3.94914e-08
-1.32304e-07
-7.37275e-08
3.46318e-08
-1.12538e-07
-7.97116e-08
3.03832e-08
-8.86517e-08
-8.25433e-08
2.68518e-08
-6.34066e-08
-8.12473e-08
2.39381e-08
-3.96236e-08
-7.48372e-08
2.1273e-08
-1.98502e-08
-6.2335e-08
1.81587e-08
-6.04563e-09
-4.28678e-08
1.35067e-08
-1.64036e-08
6.05167e-09
-6.7165e-08
-1.8349e-07
-6.71561e-08
-7.2635e-08
-2.21248e-07
-6.70858e-08
-3.71139e-08
-2.21803e-07
-4.30538e-08
1.56212e-08
-2.04073e-07
-1.16139e-08
6.53997e-08
-1.92051e-07
1.01545e-08
1.08107e-07
-1.79572e-07
2.59944e-08
1.4107e-07
-1.6681e-07
3.7758e-08
1.62845e-07
-1.52512e-07
4.74036e-08
1.72368e-07
-1.36811e-07
5.59588e-08
1.69125e-07
-1.20307e-07
6.38677e-08
1.5333e-07
-1.03985e-07
7.11386e-08
1.26028e-07
-8.8995e-08
7.75679e-08
8.91329e-08
-7.64898e-08
8.28225e-08
4.53141e-08
-6.74761e-08
8.65818e-08
-2.18857e-09
-6.2684e-08
8.85782e-08
-4.98381e-08
-6.24956e-08
8.86754e-08
-9.41196e-08
-6.68799e-08
8.68898e-08
-1.31856e-07
-7.5395e-08
8.33941e-08
-1.60492e-07
-8.72196e-08
7.84989e-08
-1.7832e-07
-1.01218e-07
7.26107e-08
-1.84604e-07
-1.16039e-07
6.61853e-08
-1.79626e-07
-1.30197e-07
5.96685e-08
-1.64623e-07
-1.42167e-07
5.3437e-08
-1.41671e-07
-1.50401e-07
4.7738e-08
-1.13472e-07
-1.53393e-07
4.26511e-08
-8.31031e-08
-1.4964e-07
3.80238e-08
-5.37121e-08
-1.37637e-07
3.34092e-08
-2.82062e-08
-1.15833e-07
2.79925e-08
-9.18229e-09
-8.23943e-08
2.05027e-08
-3.47745e-08
9.18862e-09
-2.76242e-08
-1.2825e-07
-2.7615e-08
-1.80795e-08
-2.10372e-07
-2.04214e-08
1.38775e-08
-2.50102e-07
-3.65817e-09
5.78933e-08
-2.63794e-07
1.57057e-08
1.02672e-07
-2.68162e-07
3.1333e-08
1.43131e-07
-2.64212e-07
4.41815e-08
1.7533e-07
-2.54085e-07
5.50751e-08
1.96563e-07
-2.38691e-07
6.49466e-08
2.04911e-07
-2.19442e-07
7.42832e-08
1.99341e-07
-1.97953e-07
8.32169e-08
1.79813e-07
-1.76032e-07
9.15762e-08
1.47367e-07
-1.55566e-07
9.90167e-08
1.04083e-07
-1.38335e-07
1.05129e-07
5.29564e-08
-1.25851e-07
1.09501e-07
-2.33459e-09
-1.19214e-07
1.11821e-07
-5.77612e-08
-1.18989e-07
1.1192e-07
-1.09305e-07
-1.25146e-07
1.09809e-07
-1.53337e-07
-1.37053e-07
1.0569e-07
-1.86938e-07
-1.53534e-07
9.9915e-08
-2.08154e-07
-1.72952e-07
9.29498e-08
-2.16137e-07
-1.93368e-07
8.53125e-08
-2.11176e-07
-2.12655e-07
7.74973e-08
-1.94637e-07
-2.28611e-07
6.99044e-08
-1.6879e-07
-2.39057e-07
6.28092e-08
-1.36588e-07
-2.41873e-07
5.6277e-08
-1.0139e-07
-2.34958e-07
5.01199e-08
-6.66599e-08
-2.16195e-07
4.38268e-08
-3.57331e-08
-1.83225e-07
3.64653e-08
-1.1915e-08
-1.32781e-07
2.65687e-08
-5.86112e-08
1.19217e-08
-3.16009e-09
-1.2194e-07
-3.15021e-09
1.5856e-08
-2.37654e-07
8.26597e-09
4.92858e-08
-3.05502e-07
2.19704e-08
9.17958e-08
-3.42416e-07
3.61117e-08
1.35884e-07
-3.60888e-07
4.86378e-08
1.76398e-07
-3.64718e-07
5.99919e-08
2.08942e-07
-3.57279e-07
7.06506e-08
2.30134e-07
-3.40941e-07
8.10581e-08
2.37519e-07
-3.18209e-07
9.13813e-08
2.29701e-07
-2.91661e-07
1.01527e-07
2.06472e-07
-2.63962e-07
1.11159e-07
1.68884e-07
-2.37775e-07
1.19797e-07
1.19191e-07
-2.15565e-07
1.26922e-07
6.07363e-08
-1.99419e-07
1.32023e-07
-2.36553e-09
-1.90833e-07
1.34721e-07
-6.55812e-08
-1.90586e-07
1.34813e-07
-1.24387e-07
-1.98651e-07
1.32311e-07
-1.74691e-07
-2.1419e-07
1.27441e-07
-2.13206e-07
-2.35631e-07
1.20613e-07
-2.3774e-07
-2.60794e-07
1.12376e-07
-2.47334e-07
-2.87102e-07
1.03327e-07
-2.42293e-07
-3.11715e-07
9.40184e-08
-2.24111e-07
-3.31733e-07
8.49404e-08
-1.95257e-07
-3.44287e-07
7.63753e-08
-1.58952e-07
-3.46577e-07
6.84005e-08
-1.1886e-07
-3.35851e-07
6.08009e-08
-7.88181e-08
-3.09242e-07
5.30056e-08
-4.26362e-08
-2.63365e-07
4.39572e-08
-1.43459e-08
-1.9303e-07
3.19585e-08
-8.73103e-08
1.43532e-08
8.31985e-09
-1.3859e-07
8.33048e-09
3.50004e-08
-2.88927e-07
2.45929e-08
7.34331e-08
-3.82565e-07
3.86296e-08
1.18906e-07
-4.39236e-07
5.13476e-08
1.65478e-07
-4.70392e-07
6.29324e-08
2.08134e-07
-4.81425e-07
7.40504e-08
2.42294e-07
-4.76618e-07
8.51781e-08
2.64199e-07
-4.59432e-07
9.65857e-08
2.71049e-07
-4.33323e-07
1.08265e-07
2.61176e-07
-4.01747e-07
1.19959e-07
2.3426e-07
-3.68231e-07
1.31184e-07
1.91398e-07
-3.3623e-07
1.41318e-07
1.35065e-07
-3.08928e-07
1.49696e-07
6.89586e-08
-2.89016e-07
1.55704e-07
-2.31503e-09
-2.78433e-07
1.58874e-07
-7.36784e-08
-2.78178e-07
1.58955e-07
-1.4006e-07
-2.88229e-07
1.5596e-07
-1.96869e-07
-3.07533e-07
1.50152e-07
-2.40431e-07
-3.34093e-07
1.42024e-07
-2.68293e-07
-3.65148e-07
1.32217e-07
-2.79398e-07
-3.97434e-07
1.21437e-07
-2.74086e-07
-4.27386e-07
1.10359e-07
-2.54005e-07
-4.51353e-07
9.95385e-08
-2.21863e-07
-4.65746e-07
8.9317e-08
-1.81186e-07
-4.67049e-07
7.97952e-08
-1.35997e-07
-4.51773e-07
7.07334e-08
-9.05538e-08
-4.16178e-07
6.14924e-08
-4.91827e-08
-3.5562e-07
5.08847e-08
-1.66058e-08
-2.62569e-07
3.69626e-08
-1.2053e-07
1.6614e-08
1.47265e-08
-1.68055e-07
1.47382e-08
4.7867e-08
-3.57234e-07
3.51662e-08
9.20252e-08
-4.77318e-07
5.05952e-08
1.42198e-07
-5.52948e-07
6.3539e-08
1.92896e-07
-5.96469e-07
7.53786e-08
2.39018e-07
-6.14662e-07
8.7116e-08
2.75763e-07
-6.12691e-07
9.93277e-08
2.99077e-07
-5.94982e-07
1.12237e-07
3.05819e-07
-5.65793e-07
1.25727e-07
2.94117e-07
-5.29439e-07
1.39394e-07
2.63533e-07
-4.90264e-07
1.52617e-07
2.15232e-07
-4.5255e-07
1.64621e-07
1.51927e-07
-4.20202e-07
1.74578e-07
7.77339e-08
-3.96541e-07
1.81718e-07
-2.21133e-09
-3.83959e-07
1.85472e-07
-8.22243e-08
-3.83708e-07
1.85543e-07
-1.56623e-07
-3.95768e-07
1.81938e-07
-2.20271e-07
-4.1885e-07
1.74965e-07
-2.69066e-07
-4.50507e-07
1.65208e-07
-3.0029e-07
-4.87385e-07
1.53462e-07
-3.12796e-07
-5.25501e-07
1.40573e-07
-3.06996e-07
-5.60534e-07
1.27349e-07
-2.84714e-07
-5.88075e-07
1.14439e-07
-2.48955e-07
-6.03786e-07
1.02282e-07
-2.03605e-07
-6.03414e-07
9.10145e-08
-1.53092e-07
-5.8267e-07
8.03844e-08
-1.02126e-07
-5.36817e-07
6.96725e-08
-5.55648e-08
-4.59722e-07
5.75403e-08
-1.87901e-08
-3.41119e-07
4.17751e-08
-1.5812e-07
1.87995e-08
1.88479e-08
-2.05763e-07
1.88606e-08
5.74971e-08
-4.38719e-07
4.28364e-08
1.07439e-07
-5.87283e-07
6.00225e-08
1.63045e-07
-6.82509e-07
7.39552e-08
2.18755e-07
-7.38924e-07
8.67457e-08
2.69184e-07
-7.64803e-07
9.97118e-08
3.0925e-07
-7.66294e-07
1.13538e-07
3.34543e-07
-7.48709e-07
1.28434e-07
3.41616e-07
-7.17098e-07
1.44233e-07
3.28322e-07
-6.76537e-07
1.60392e-07
2.9415e-07
-6.32202e-07
1.76109e-07
2.40292e-07
-5.8912e-07
1.90428e-07
1.69727e-07
-5.51952e-07
2.02316e-07
8.70236e-08
-5.24673e-07
2.10835e-07
-2.07837e-09
-5.10168e-07
2.15311e-07
-9.12265e-08
-5.09929e-07
2.15369e-07
-1.74064e-07
-5.23942e-07
2.11011e-07
-2.44857e-07
-5.50671e-07
2.02614e-07
-2.99042e-07
-5.87214e-07
1.90893e-07
-3.33627e-07
-6.29578e-07
1.76778e-07
-3.47392e-07
-6.7303e-07
1.61294e-07
-3.40851e-07
-7.12529e-07
1.45454e-07
-3.16066e-07
-7.42912e-07
1.30051e-07
-2.76402e-07
-7.59081e-07
1.15631e-07
-2.26134e-07
-7.56037e-07
1.02356e-07
-1.70131e-07
-7.28643e-07
8.99706e-08
-1.13577e-07
-6.71086e-07
7.77155e-08
-6.18456e-08
-5.7551e-07
6.40564e-08
-2.09337e-08
-4.28511e-07
4.64802e-08
-1.99998e-07
2.09443e-08
2.18978e-08
-2.49573e-07
2.19117e-08
6.53795e-08
-5.31143e-07
4.8942e-08
1.20861e-07
-7.10679e-07
6.79145e-08
1.82069e-07
-8.2689e-07
8.31729e-08
2.43108e-07
-8.97307e-07
9.73429e-08
2.98268e-07
-9.31943e-07
1.11981e-07
3.42132e-07
-9.38054e-07
1.27896e-07
3.6985e-07
-9.21736e-07
1.45309e-07
3.77652e-07
-8.88845e-07
1.63945e-07
3.63103e-07
-8.45149e-07
1.83162e-07
3.25494e-07
-7.96537e-07
2.01945e-07
2.66084e-07
-7.48806e-07
2.19095e-07
1.88122e-07
-7.07348e-07
2.33359e-07
9.6653e-08
-6.76802e-07
2.43598e-07
-1.93434e-09
-6.60528e-07
2.48948e-07
-1.0055e-07
-6.60305e-07
2.48992e-07
-1.92103e-07
-6.76124e-07
2.43735e-07
-2.70201e-07
-7.06175e-07
2.33602e-07
-3.29787e-07
-7.47077e-07
2.19448e-07
-3.67623e-07
-7.94184e-07
2.02442e-07
-3.82428e-07
-8.42076e-07
1.83851e-07
-3.74879e-07
-8.84944e-07
1.64867e-07
-3.47348e-07
-9.16924e-07
1.46481e-07
-3.03568e-07
-9.3223e-07
1.29369e-07
-2.4826e-07
-9.25123e-07
1.13777e-07
-1.86748e-07
-8.89619e-07
9.94642e-08
-1.24698e-07
-8.18676e-07
8.55398e-08
-6.79365e-08
-7.02592e-07
7.03214e-08
-2.30193e-08
-5.24449e-07
5.10204e-08
-2.46048e-07
2.30311e-08
2.43339e-08
-2.98255e-07
2.43478e-08
7.20162e-08
-6.32812e-07
5.39872e-08
1.32517e-07
-8.45845e-07
7.46659e-08
1.99021e-07
-9.8476e-07
9.13656e-08
2.65295e-07
-1.07071e-06
1.07125e-07
3.25268e-07
-1.11569e-06
1.23769e-07
3.73109e-07
-1.1281e-06
1.42201e-07
4.03592e-07
-1.11485e-06
1.62631e-07
4.12515e-07
-1.08247e-06
1.847e-07
3.97091e-07
-1.03733e-06
2.07603e-07
3.56405e-07
-9.85938e-07
2.30086e-07
2.91717e-07
-9.34809e-07
2.50692e-07
2.06502e-07
-8.89993e-07
2.6786e-07
1.06306e-07
-8.56797e-07
2.80191e-07
-1.79339e-09
-8.39049e-07
2.86621e-07
-1.09905e-07
-8.38844e-07
2.86651e-07
-2.1014e-07
-8.56159e-07
2.8027e-07
-2.95401e-07
-8.88931e-07
2.68017e-07
-3.60167e-07
-9.33259e-07
2.50948e-07
-4.00952e-07
-9.83862e-07
2.30463e-07
-4.16449e-07
-1.03467e-06
2.08095e-07
-4.07593e-07
-1.07915e-06
1.8535e-07
-3.77121e-07
-1.11086e-06
1.63463e-07
-3.29179e-07
-1.1234e-06
1.43226e-07
-2.68947e-07
-1.11035e-06
1.2499e-07
-2.022e-07
-1.06488e-06
1.08518e-07
-1.34986e-07
-9.78755e-07
9.28646e-08
-7.35663e-08
-8.40153e-07
7.61413e-08
-2.49648e-08
-6.28264e-07
5.52144e-08
-2.9599e-07
2.49777e-08
2.62381e-08
-3.50746e-07
2.62529e-08
7.73215e-08
-7.4185e-07
5.79545e-08
1.42e-07
-9.90598e-07
8.00747e-08
2.13052e-07
-1.154e-06
9.81882e-08
2.8399e-07
-1.25734e-06
1.15693e-07
3.48403e-07
-1.31469e-06
1.34591e-07
4.00121e-07
-1.33568e-06
1.55871e-07
4.33537e-07
-1.32805e-06
1.79786e-07
4.43947e-07
-1.29875e-06
2.05868e-07
4.28207e-07
-1.25472e-06
2.33134e-07
3.85113e-07
-1.20292e-06
2.60073e-07
3.15774e-07
-1.15035e-06
2.84884e-07
2.23911e-07
-1.10376e-06
3.05629e-07
1.15492e-07
-1.06894e-06
3.20561e-07
-1.66164e-09
-1.05026e-06
3.28359e-07
-1.18815e-07
-1.05007e-06
3.28379e-07
-2.27224e-07
-1.06838e-06
3.20627e-07
-3.19107e-07
-1.1028e-06
3.05747e-07
-3.8843e-07
-1.14898e-06
2.85045e-07
-4.31513e-07
-1.20108e-06
2.60304e-07
-4.47233e-07
-1.2524e-06
2.33443e-07
-4.36753e-07
-1.29593e-06
2.06304e-07
-4.03239e-07
-1.32473e-06
1.80357e-07
-3.51328e-07
-1.33188e-06
1.56573e-07
-2.86617e-07
-1.31047e-06
1.35414e-07
-2.15247e-07
-1.25287e-06
1.16614e-07
-1.43632e-07
-1.14952e-06
9.91538e-08
-7.8315e-08
-9.86467e-07
8.09969e-08
-2.66096e-08
-7.38671e-07
5.87014e-08
-3.49223e-07
2.66231e-08
2.75229e-08
-4.05809e-07
2.75403e-08
8.08936e-08
-8.55824e-07
6.06035e-08
1.48398e-07
-1.14186e-06
8.37538e-08
2.22693e-07
-1.33136e-06
1.03061e-07
2.971e-07
-1.45398e-06
1.22235e-07
3.65087e-07
-1.52615e-06
1.43472e-07
4.20219e-07
-1.55863e-06
1.67816e-07
4.56496e-07
-1.55989e-06
1.95564e-07
4.68804e-07
-1.53723e-06
2.2618e-07
4.53498e-07
-1.49789e-06
2.58478e-07
4.08981e-07
-1.44907e-06
2.90676e-07
3.36194e-07
-1.39807e-06
3.20506e-07
2.38899e-07
-1.35205e-06
3.45587e-07
1.23477e-07
-1.31724e-06
3.6372e-07
-1.54557e-09
-1.29846e-06
3.73224e-07
-1.26559e-07
-1.29829e-06
3.7323e-07
-2.41959e-07
-1.31672e-06
3.63741e-07
-3.39206e-07
-1.35118e-06
3.45628e-07
-4.11903e-07
-1.39685e-06
3.20565e-07
-4.56339e-07
-1.44744e-06
2.9079e-07
-4.71549e-07
-1.49587e-06
2.58688e-07
-4.59121e-07
-1.53485e-06
2.26489e-07
-4.22679e-07
-1.55711e-06
1.95939e-07
-3.67332e-07
-1.55551e-06
1.68284e-07
-2.99022e-07
-1.52278e-06
1.43998e-07
-2.24232e-07
-1.45049e-06
1.22829e-07
-1.49513e-07
-1.32793e-06
1.03686e-07
-8.1516e-08
-1.1388e-06
8.43405e-08
-2.77533e-08
-8.53504e-07
6.10701e-08
-4.04744e-07
2.77674e-08
2.79657e-08
-4.61748e-07
2.79734e-08
8.20084e-08
-9.7125e-07
6.13829e-08
1.50409e-07
-1.29516e-06
8.49038e-08
2.25898e-07
-1.51186e-06
1.05019e-07
3.01955e-07
-1.65565e-06
1.25615e-07
3.72024e-07
-1.74525e-06
1.49032e-07
4.29568e-07
-1.79265e-06
1.76473e-07
4.68325e-07
-1.80684e-06
2.08193e-07
4.82809e-07
-1.79537e-06
2.43647e-07
4.68872e-07
-1.7654e-06
2.81439e-07
4.2443e-07
-1.7241e-06
3.1947e-07
3.50078e-07
-1.67883e-06
3.55107e-07
2.49442e-07
-1.6368e-06
3.85381e-07
1.29229e-07
-1.60445e-06
4.07427e-07
-1.44331e-09
-1.58683e-06
4.19044e-07
-1.32098e-07
-1.58667e-06
4.19041e-07
-2.52249e-07
-1.60399e-06
4.07421e-07
-3.52799e-07
-1.636e-06
3.85376e-07
-4.27052e-07
-1.67773e-06
3.55139e-07
-4.71372e-07
-1.72266e-06
3.19543e-07
-4.85145e-07
-1.76361e-06
2.81512e-07
-4.70489e-07
-1.7933e-06
2.43796e-07
-4.31521e-07
-1.8045e-06
2.08427e-07
-3.7374e-07
-1.79007e-06
1.76772e-07
-3.03402e-07
-1.74252e-06
1.49405e-07
-2.27039e-07
-1.65288e-06
1.26035e-07
-1.51182e-07
-1.50921e-06
1.05426e-07
-8.24337e-08
-1.29284e-06
8.52842e-08
-2.81034e-08
-9.69514e-07
6.168e-08
-4.60964e-07
2.81173e-08
2.72641e-08
-5.16286e-07
2.72742e-08
7.97983e-08
-1.08345e-06
5.96621e-08
1.46446e-07
-1.4445e-06
8.26916e-08
2.20327e-07
-1.68869e-06
1.02947e-07
2.95316e-07
-1.85507e-06
1.24435e-07
3.65158e-07
-1.96468e-06
1.49584e-07
4.23449e-07
-2.0306e-06
1.79661e-07
4.63858e-07
-2.06222e-06
2.14969e-07
4.80638e-07
-2.06712e-06
2.54972e-07
4.69133e-07
-2.05212e-06
2.98231e-07
4.26693e-07
-2.02401e-06
3.42344e-07
3.53453e-07
-1.98975e-06
3.8416e-07
2.52736e-07
-1.95611e-06
4.20036e-07
1.31279e-07
-1.92946e-06
4.46469e-07
-1.35543e-09
-1.9147e-06
4.60504e-07
-1.33966e-07
-1.91456e-06
4.60493e-07
-2.55359e-07
-1.92904e-06
4.46442e-07
-3.55968e-07
-1.95539e-06
4.19997e-07
-4.29074e-07
-1.98873e-06
3.84101e-07
-4.71322e-07
-2.02273e-06
3.42314e-07
-4.82613e-07
-2.0506e-06
2.98276e-07
-4.65655e-07
-2.06534e-06
2.55078e-07
-4.25044e-07
-2.06021e-06
2.15097e-07
-3.66489e-07
-2.02846e-06
1.79841e-07
-2.96404e-07
-1.96241e-06
1.49807e-07
-2.21128e-07
-1.85285e-06
1.24688e-07
-1.46995e-07
-1.68655e-06
1.03206e-07
-8.01066e-08
-1.44266e-06
8.29347e-08
-2.73553e-08
-1.08212e-06
5.98542e-08
-5.15689e-07
2.7369e-08
2.51015e-08
-5.66497e-07
2.5109e-08
7.3409e-08
-1.18651e-06
5.47569e-08
1.34805e-07
-1.582e-06
7.61059e-08
2.03376e-07
-1.85282e-06
9.55594e-08
2.73694e-07
-2.04243e-06
1.17038e-07
3.40127e-07
-2.17407e-06
1.42966e-07
3.96709e-07
-2.26184e-06
1.7466e-07
4.37321e-07
-2.31539e-06
2.12564e-07
4.56095e-07
-2.34204e-06
2.56142e-07
4.48074e-07
-2.34797e-06
3.03872e-07
4.10092e-07
-2.33919e-06
3.53165e-07
3.41546e-07
-2.32178e-06
4.00577e-07
2.45282e-07
-2.30168e-06
4.41825e-07
1.27792e-07
-2.28451e-06
4.72535e-07
-1.27619e-09
-2.27461e-06
4.8898e-07
-1.30314e-07
-2.27448e-06
4.88967e-07
-2.47719e-07
-2.28413e-06
4.72499e-07
-3.43842e-07
-2.30104e-06
4.41773e-07
-4.12242e-07
-2.32087e-06
4.00541e-07
-4.50044e-07
-2.33808e-06
3.53154e-07
-4.57894e-07
-2.3466e-06
3.03853e-07
-4.38905e-07
-2.34049e-06
2.5616e-07
-3.98039e-07
-2.3137e-06
2.12618e-07
-3.41258e-07
-2.26e-06
1.74755e-07
-2.74574e-07
-2.17219e-06
1.43094e-07
-2.04033e-07
-2.04058e-06
1.17192e-07
-1.35207e-07
-1.8511e-06
9.5722e-08
-7.35935e-08
-1.58053e-06
7.62616e-08
-2.51607e-08
-1.18544e-06
5.48833e-08
-5.66023e-07
2.51736e-08
2.11794e-08
-6.08867e-07
2.11906e-08
6.18937e-08
-1.27327e-06
4.60406e-08
1.13989e-07
-1.69839e-06
6.42945e-08
1.72749e-07
-1.99329e-06
8.17121e-08
2.33965e-07
-2.20553e-06
1.01884e-07
2.92904e-07
-2.36015e-06
1.27133e-07
3.44452e-07
-2.4721e-06
1.58709e-07
3.83043e-07
-2.55111e-06
1.97127e-07
4.03053e-07
-2.60404e-06
2.41999e-07
3.99407e-07
-2.63623e-06
2.91905e-07
3.68473e-07
-2.65249e-06
3.44231e-07
3.09024e-07
-2.65748e-06
3.95154e-07
2.23138e-07
-2.65577e-06
4.39978e-07
1.16647e-07
-2.65172e-06
4.73705e-07
-1.20445e-09
-2.64862e-06
4.91867e-07
-1.19029e-07
-2.64854e-06
4.91884e-07
-2.25452e-07
-2.6514e-06
4.73692e-07
-3.11184e-07
-2.65522e-06
4.39914e-07
-3.70455e-07
-2.65667e-06
3.95075e-07
-4.01194e-07
-2.6515e-06
3.44161e-07
-4.04625e-07
-2.63502e-06
2.91847e-07
-3.84399e-07
-2.60268e-06
2.41968e-07
-3.45586e-07
-2.54964e-06
1.97128e-07
-2.93819e-07
-2.4705e-06
1.58742e-07
-2.34647e-07
-2.35856e-06
1.27195e-07
-1.73241e-07
-2.20396e-06
1.01968e-07
-1.1429e-07
-1.99186e-06
8.18073e-08
-6.20379e-08
-1.69718e-06
6.43887e-08
-2.12243e-08
-1.27237e-06
4.61214e-08
-6.08483e-07
2.12363e-08
1.53023e-08
-6.39467e-07
1.52987e-08
4.47608e-08
-1.33582e-06
3.30954e-08
8.29483e-08
-1.78318e-06
4.65964e-08
1.26908e-07
-2.09776e-06
6.051e-08
1.73839e-07
-2.33018e-06
7.77215e-08
2.20515e-07
-2.50704e-06
1.00219e-07
2.62957e-07
-2.64382e-06
1.29275e-07
2.96637e-07
-2.75013e-06
1.65336e-07
3.16557e-07
-2.83213e-06
2.0817e-07
3.17849e-07
-2.89403e-06
2.56509e-07
2.96751e-07
-2.93923e-06
3.07838e-07
2.5135e-07
-2.97057e-06
3.58486e-07
1.82895e-07
-2.99088e-06
4.03567e-07
9.60233e-08
-3.00268e-06
4.37826e-07
-1.13773e-09
-3.00794e-06
4.5648e-07
-9.82691e-08
-3.00788e-06
4.56466e-07
-1.85054e-07
-3.00239e-06
4.37773e-07
-2.53365e-07
-2.9904e-06
4.03488e-07
-2.98574e-07
-2.9699e-06
3.58432e-07
-3.19489e-07
-2.93836e-06
3.07773e-07
-3.17959e-07
-2.89297e-06
2.56422e-07
-2.97821e-07
-2.83092e-06
2.08104e-07
-2.63946e-07
-2.74881e-06
1.65298e-07
-2.21273e-07
-2.64244e-06
1.29265e-07
-1.74435e-07
-2.50563e-06
1.00232e-07
-1.27302e-07
-2.32885e-06
7.77572e-08
-8.31822e-08
-2.09654e-06
6.05599e-08
-4.48904e-08
-1.78212e-06
4.66546e-08
-1.53213e-08
-1.33509e-06
3.31497e-08
-6.39137e-07
1.53323e-08
7.4226e-09
-6.54311e-07
7.42139e-09
2.19381e-08
-1.36623e-06
1.58947e-08
4.15436e-08
-1.82579e-06
2.30074e-08
6.54946e-08
-2.15347e-06
3.17582e-08
9.28252e-08
-2.40163e-06
4.41182e-08
1.22068e-07
-2.59779e-06
6.15025e-08
1.50909e-07
-2.7576e-06
8.49408e-08
1.76256e-07
-2.89044e-06
1.1497e-07
1.94218e-07
-3.0015e-06
1.51405e-07
2.00766e-07
-3.09389e-06
1.93309e-07
1.92136e-07
-3.16919e-06
2.38593e-07
1.66052e-07
-3.22835e-06
2.83865e-07
1.2257e-07
-3.27199e-06
3.24588e-07
6.47959e-08
-3.30069e-06
3.55791e-07
-1.07312e-09
-3.31489e-06
3.72814e-07
-6.69039e-08
-3.3148e-06
3.7275e-07
-1.24557e-07
-3.30042e-06
3.55684e-07
-1.6792e-07
-3.27153e-06
3.24489e-07
-1.93848e-07
-3.22768e-06
2.83709e-07
-2.0227e-07
-3.16836e-06
2.38427e-07
-1.95514e-07
-3.09292e-06
1.93196e-07
-1.77316e-07
-3.00043e-06
1.51311e-07
-1.51783e-07
-2.88924e-06
1.14897e-07
-1.22725e-07
-2.7564e-06
8.48953e-08
-9.32984e-08
-2.59653e-06
6.14816e-08
-6.58239e-08
-2.40044e-06
4.41172e-08
-4.17321e-08
-2.1524e-06
3.17758e-08
-2.19941e-08
-1.8249e-06
2.30383e-08
-7.43793e-09
-1.36558e-06
1.59303e-08
-6.54023e-07
7.44819e-09
-2.27874e-09
-6.49754e-07
-2.27913e-09
-6.06861e-09
-1.35721e-06
-5.22712e-09
-9.20234e-09
-1.8166e-06
-6.05089e-09
-1.00203e-08
-2.14867e-06
-3.98902e-09
-7.27733e-09
-2.40603e-06
1.65051e-09
-4.23302e-10
-2.61611e-06
1.14717e-08
1.03838e-08
-2.7945e-06
2.60957e-08
2.3864e-08
-2.94994e-06
4.60109e-08
3.78873e-08
-3.08686e-06
7.13366e-08
4.95296e-08
-3.20705e-06
1.01516e-07
5.56372e-08
-3.31031e-06
1.35011e-07
5.36653e-08
-3.39559e-06
1.69212e-07
4.25089e-08
-3.46136e-06
2.00536e-07
2.31883e-08
-3.50622e-06
2.24846e-07
-9.99288e-10
-3.52895e-06
2.3825e-07
-2.51581e-08
-3.52886e-06
2.38219e-07
-4.4408e-08
-3.50594e-06
2.24767e-07
-5.53954e-08
-3.46096e-06
2.00421e-07
-5.71949e-08
-3.39495e-06
1.69072e-07
-5.08911e-08
-3.30953e-06
1.34867e-07
-3.90494e-08
-3.20614e-06
1.01381e-07
-2.48465e-08
-3.08586e-06
7.12204e-08
-1.11507e-08
-2.94886e-06
4.59174e-08
-1.81723e-10
-2.79339e-06
2.60286e-08
6.84457e-09
-2.61499e-06
1.14286e-08
9.75578e-09
-2.40498e-06
1.62933e-09
9.06246e-09
-2.14772e-06
-3.9904e-09
5.99377e-09
-1.81579e-06
-6.0378e-09
2.26781e-09
-1.35665e-06
-5.20404e-09
-6.49497e-07
-2.25795e-09
-1.33005e-08
-6.23149e-07
-1.33037e-08
-3.78411e-08
-1.30354e-06
-2.91294e-08
-6.69055e-08
-1.74854e-06
-3.89996e-08
-9.61096e-08
-2.07453e-06
-4.49363e-08
-1.21955e-07
-2.33236e-06
-4.78169e-08
-1.41551e-07
-2.54864e-06
-4.78708e-08
-1.527e-07
-2.73837e-06
-4.49842e-08
-1.54285e-07
-2.90953e-06
-3.88241e-08
-1.46287e-07
-3.0658e-06
-2.90604e-08
-1.29972e-07
-3.20756e-06
-1.58043e-08
-1.07466e-07
-3.33318e-06
3.63077e-10
-8.14366e-08
-3.43978e-06
1.81593e-08
-5.4195e-08
-3.52385e-06
3.52415e-08
-2.72608e-08
-3.58213e-06
4.89757e-08
-9.17499e-10
-3.61196e-06
5.66699e-08
2.54649e-08
-3.61188e-06
5.66367e-08
5.25009e-08
-3.58191e-06
4.89338e-08
7.9844e-08
-3.52346e-06
3.51587e-08
1.06038e-07
-3.43916e-06
1.80111e-08
1.28726e-07
-3.33243e-06
2.11889e-10
1.45225e-07
-3.20669e-06
-1.59476e-08
1.53383e-07
-3.06483e-06
-2.91853e-08
1.52002e-07
-2.90855e-06
-3.89243e-08
1.41001e-07
-2.73733e-06
-4.50627e-08
1.2158e-07
-2.54764e-06
-4.7924e-08
9.58579e-08
-2.33141e-06
-4.78466e-08
6.67692e-08
-2.07368e-06
-4.49477e-08
3.77996e-08
-1.74783e-06
-3.8994e-08
1.32936e-08
-1.30303e-06
-2.911e-08
-6.2292e-07
-1.32832e-08
-2.49041e-08
-5.73339e-07
-2.49057e-08
-7.12417e-08
-1.20299e-06
-5.42109e-08
-1.27607e-07
-1.61845e-06
-7.3726e-08
-1.87069e-07
-1.92667e-06
-8.83958e-08
-2.43787e-07
-2.17479e-06
-1.00852e-07
-2.92393e-07
-2.38759e-06
-1.12452e-07
-3.28183e-07
-2.57895e-06
-1.23624e-07
-3.47284e-07
-2.75625e-06
-1.34178e-07
-3.47213e-07
-2.92218e-06
-1.43689e-07
-3.27051e-07
-3.07623e-06
-1.51489e-07
-2.87637e-07
-3.21557e-06
-1.57024e-07
-2.31425e-07
-3.33576e-06
-1.60234e-07
-1.61964e-07
-3.43192e-06
-1.61391e-07
-8.3595e-08
-3.49923e-06
-1.61265e-07
-8.22524e-10
-3.53391e-06
-1.6083e-07
8.19724e-08
-3.53381e-06
-1.60861e-07
1.6042e-07
-3.49896e-06
-1.61394e-07
2.2997e-07
-3.43146e-06
-1.61552e-07
2.86372e-07
-3.33519e-06
-1.6037e-07
3.25916e-07
-3.21482e-06
-1.57161e-07
3.46218e-07
-3.07538e-06
-1.51616e-07
3.46473e-07
-2.92128e-06
-1.43801e-07
3.27495e-07
-2.7553e-06
-1.34272e-07
2.9188e-07
-2.57802e-06
-1.23696e-07
2.43402e-07
-2.38666e-06
-1.12504e-07
1.86818e-07
-2.17394e-06
-1.00886e-07
1.2748e-07
-1.92596e-06
-8.83866e-08
7.11787e-08
-1.61783e-06
-7.37e-08
2.48966e-08
-1.20255e-06
-5.41943e-08
-5.73137e-07
-2.48865e-08
-3.60199e-08
-5.01298e-07
-3.60219e-08
-1.03227e-07
-1.05762e-06
-7.8167e-08
-1.8603e-07
-1.42875e-06
-1.06892e-07
-2.75158e-07
-1.70731e-06
-1.30225e-07
-3.627e-07
-1.93467e-06
-1.52584e-07
-4.40895e-07
-2.13299e-06
-1.76403e-07
-5.02295e-07
-2.31479e-06
-2.02762e-07
-5.40259e-07
-2.48652e-06
-2.31761e-07
-5.49532e-07
-2.65028e-06
-2.62625e-07
-5.26798e-07
-2.80496e-06
-2.94002e-07
-4.71314e-07
-2.94685e-06
-3.24205e-07
-3.84951e-07
-3.07084e-06
-3.51276e-07
-2.72652e-07
-3.17092e-06
-3.7329e-07
-1.416e-07
-3.24147e-06
-3.88814e-07
-7.07774e-10
-3.27793e-06
-3.96872e-07
1.40205e-07
-3.27783e-06
-3.96896e-07
2.71307e-07
-3.24118e-06
-3.88878e-07
3.8372e-07
-3.17049e-06
-3.7338e-07
4.70115e-07
-3.07021e-06
-3.51377e-07
5.25769e-07
-2.94616e-06
-3.2431e-07
5.48632e-07
-2.80415e-06
-2.94094e-07
5.39508e-07
-2.64945e-06
-2.62709e-07
5.01681e-07
-2.48564e-06
-2.31832e-07
4.40403e-07
-2.31392e-06
-2.02815e-07
3.62361e-07
-2.13218e-06
-1.76441e-07
2.74954e-07
-1.93392e-06
-1.52607e-07
1.85905e-07
-1.70665e-06
-1.30259e-07
1.03179e-07
-1.4282e-06
-1.06902e-07
3.60127e-08
-1.05724e-06
-7.8148e-08
-5.01123e-07
-3.60011e-08
-4.53196e-08
-4.10663e-07
-4.53149e-08
-1.30174e-07
-8.74584e-07
-9.81812e-08
-2.35808e-07
-1.18842e-06
-1.347e-07
-3.51241e-07
-1.4263e-06
-1.65584e-07
-4.66752e-07
-1.62221e-06
-1.96943e-07
-5.72435e-07
-1.795e-06
-2.32305e-07
-6.58327e-07
-1.95554e-06
-2.7336e-07
-7.15029e-07
-2.10937e-06
-3.20449e-07
-7.34451e-07
-2.25822e-06
-3.72641e-07
-7.1081e-07
-2.40066e-06
-4.27942e-07
-6.41561e-07
-2.53282e-06
-4.83277e-07
-5.28132e-07
-2.64938e-06
-5.34893e-07
-3.76288e-07
-2.74416e-06
-5.78606e-07
-1.96002e-07
-2.81132e-06
-6.10437e-07
-5.81607e-10
-2.84617e-06
-6.27178e-07
1.94847e-07
-2.84607e-06
-6.27187e-07
3.75163e-07
-2.81104e-06
-6.10462e-07
5.27039e-07
-2.74372e-06
-5.78646e-07
6.40557e-07
-2.64879e-06
-5.34929e-07
7.09887e-07
-2.53217e-06
-4.8332e-07
7.33625e-07
-2.39991e-06
-4.27973e-07
7.14292e-07
-2.25745e-06
-3.7267e-07
6.5775e-07
-2.10863e-06
-3.20473e-07
5.71956e-07
-1.95475e-06
-2.73375e-07
4.66401e-07
-1.79431e-06
-2.32318e-07
3.50994e-07
-1.62157e-06
-1.9695e-07
2.35666e-07
-1.42574e-06
-1.6558e-07
1.30129e-07
-1.18798e-06
-1.34685e-07
4.53047e-08
-8.74258e-07
-9.81565e-08
-4.10525e-07
-4.52933e-08
-5.1306e-08
-3.08047e-07
-5.13098e-08
-1.48068e-07
-6.66808e-07
-1.11013e-07
-2.69954e-07
-9.13956e-07
-1.52578e-07
-4.05246e-07
-1.10237e-06
-1.88639e-07
-5.42905e-07
-1.2579e-06
-2.26652e-07
-6.71228e-07
-1.39557e-06
-2.7111e-07
-7.78088e-07
-1.52436e-06
-3.24316e-07
-8.51511e-07
-1.64912e-06
-3.8683e-07
-8.81005e-07
-1.77111e-06
-4.57617e-07
-8.58437e-07
-1.88913e-06
-5.34102e-07
-7.7953e-07
-1.99965e-06
-6.12075e-07
-6.44997e-07
-2.09789e-06
-6.86018e-07
-4.61339e-07
-2.17833e-06
-7.49495e-07
-2.408e-07
-2.23556e-06
-7.96297e-07
-4.46111e-10
-2.26533e-06
-8.21193e-07
2.39909e-07
-2.26524e-06
-8.21183e-07
4.6045e-07
-2.23531e-06
-7.96271e-07
6.44138e-07
-2.17797e-06
-7.49438e-07
7.78685e-07
-2.09743e-06
-6.85913e-07
8.57596e-07
-1.99909e-06
-6.11995e-07
8.80227e-07
-1.88849e-06
-5.34059e-07
8.50849e-07
-1.77048e-06
-4.57584e-07
7.77489e-07
-1.64846e-06
-3.86806e-07
6.70783e-07
-1.52376e-06
-3.24294e-07
5.42566e-07
-1.39499e-06
-2.71096e-07
4.05011e-07
-1.25738e-06
-2.26635e-07
2.69829e-07
-1.10194e-06
-1.88623e-07
1.48004e-07
-9.13598e-07
-1.52554e-07
5.12982e-08
-6.66569e-07
-1.10984e-07
-3.07941e-07
-5.12865e-08
-5.24761e-08
-2.03097e-07
-5.24743e-08
-1.52889e-07
-4.53008e-07
-1.13387e-07
-2.818e-07
-6.29262e-07
-1.55783e-07
-4.27633e-07
-7.63353e-07
-1.9318e-07
-5.78657e-07
-8.73018e-07
-2.3386e-07
-7.21872e-07
-9.69365e-07
-2.82986e-07
-8.43436e-07
-1.05944e-06
-3.43358e-07
-9.29648e-07
-1.14711e-06
-4.15797e-07
-9.67952e-07
-1.23359e-06
-4.99211e-07
-9.48482e-07
-1.31798e-06
-5.90613e-07
-8.65502e-07
-1.3977e-06
-6.84936e-07
-7.19046e-07
-1.46902e-06
-7.75326e-07
-5.15839e-07
-1.52776e-06
-8.53768e-07
-2.69678e-07
-1.5697e-06
-9.1202e-07
-3.15445e-10
-1.59157e-06
-9.4312e-07
2.69035e-07
-1.5915e-06
-9.43091e-07
5.1517e-07
-1.5695e-06
-9.1194e-07
7.18342e-07
-1.52745e-06
-8.53695e-07
8.64793e-07
-1.46863e-06
-7.75251e-07
9.47752e-07
-1.39723e-06
-6.84819e-07
9.6726e-07
-1.3175e-06
-5.90494e-07
9.28984e-07
-1.23309e-06
-4.99114e-07
8.42877e-07
-1.14663e-06
-4.15718e-07
7.21406e-07
-1.05899e-06
-3.43299e-07
5.78305e-07
-9.6895e-07
-2.82943e-07
4.27401e-07
-8.72649e-07
-2.33824e-07
2.81665e-07
-7.63048e-07
-1.93154e-07
1.52835e-07
-6.29016e-07
-1.55752e-07
5.24624e-08
-4.5284e-07
-1.13355e-07
-2.03027e-07
-5.24513e-08
-4.74956e-08
-1.08107e-07
-4.74936e-08
-1.41495e-07
-2.56631e-07
-1.02378e-07
-2.66094e-07
-3.64619e-07
-1.40044e-07
-4.10802e-07
-4.45203e-07
-1.73442e-07
-5.63739e-07
-5.0898e-07
-2.11102e-07