/*--------------------------------*- C++ -*----------------------------------*\
| =========                 |                                                 |
| \\      /  F ield         | OpenFOAM: The Open Source CFD Toolbox           |
|  \\    /   O peration     | Version:  v1906                                 |
|   \\  /    A nd           | Web:      www.OpenFOAM.com                      |
|    \\/     M anipulation  |                                                 |
\*---------------------------------------------------------------------------*/
FoamFile
{
    version     2.0;
    format      ascii;
    class       volVectorField;
    location    "99.4/oil";
    object      U;
}
// * * * * * * * * * * * * * * * * * * * * * * * * * * * * * * * * * * * * * //

dimensions      [0 1 -1 0 0 0 0];


internalField   nonuniform List<vector> 
27760
(
(-2.47006e-05 -2.50402e-05 -2.47006e-05)
(-4.43827e-05 -1.5987e-05 -1.51848e-05)
(-4.6275e-06 -4.25147e-06 -4.27193e-06)
(-5.38503e-06 -8.12429e-07 -9.36717e-07)
(-1.19561e-06 -2.60336e-07 -4.07031e-07)
(-3.25552e-07 -8.90682e-08 -2.51504e-07)
(3.70308e-07 5.87186e-09 -1.6977e-07)
(7.34348e-07 4.87913e-08 -1.36168e-07)
(9.38341e-07 7.36396e-08 -1.16977e-07)
(1.01568e-06 8.95591e-08 -1.03547e-07)
(9.88686e-07 1.00901e-07 -9.23792e-08)
(8.71093e-07 1.09642e-07 -8.2296e-08)
(6.77764e-07 1.16131e-07 -7.39979e-08)
(4.26165e-07 1.20512e-07 -6.80081e-08)
(1.37484e-07 1.22792e-07 -6.48145e-08)
(-1.64663e-07 1.22934e-07 -6.46737e-08)
(-4.5597e-07 1.20984e-07 -6.75415e-08)
(-7.13457e-07 1.17084e-07 -7.30448e-08)
(-9.17471e-07 1.11433e-07 -8.04994e-08)
(-1.05361e-06 1.0426e-07 -8.90027e-08)
(-1.11352e-06 9.60464e-08 -9.70242e-08)
(-1.09544e-06 8.7008e-08 -1.03492e-07)
(-1.00533e-06 7.69564e-08 -1.07404e-07)
(-8.55863e-07 6.64579e-08 -1.07335e-07)
(-6.65358e-07 5.58033e-08 -1.02259e-07)
(-4.57363e-07 4.55045e-08 -9.15819e-08)
(-2.58999e-07 3.66002e-08 -7.55319e-08)
(-9.90814e-08 3.08827e-08 -5.56226e-08)
(-2.06784e-09 3.02692e-08 -3.55869e-08)
(1.51988e-08 2.97553e-08 -1.51774e-08)
(-1.5266e-05 -4.53873e-05 -1.5266e-05)
(-6.90066e-06 -7.44288e-06 -6.95026e-06)
(-7.01147e-06 -7.36544e-06 -2.56024e-06)
(-3.1893e-06 -2.37848e-06 -8.36203e-07)
(-9.07397e-07 -1.40579e-06 -4.2439e-07)
(3.04363e-07 -7.72862e-07 -2.23827e-07)
(1.19109e-06 -4.77138e-07 -1.26082e-07)
(1.74742e-06 -2.96681e-07 -7.6222e-08)
(2.07052e-06 -1.70215e-07 -4.46213e-08)
(2.18088e-06 -6.86185e-08 -2.09085e-08)
(2.09668e-06 1.7607e-08 -7.4346e-10)
(1.83551e-06 9.07027e-08 1.67283e-08)
(1.42258e-06 1.48958e-07 3.10143e-08)
(8.92086e-07 1.89978e-07 4.12693e-08)
(2.86411e-07 2.11604e-07 4.67198e-08)
(-3.46616e-07 2.12751e-07 4.69862e-08)
(-9.57473e-07 1.93681e-07 4.21406e-08)
(-1.49933e-06 1.56129e-07 3.27555e-08)
(-1.93217e-06 1.03231e-07 1.99029e-08)
(-2.22626e-06 3.91863e-08 5.03388e-09)
(-2.36462e-06 -3.08163e-08 -1.01167e-08)
(-2.3446e-06 -1.01484e-07 -2.38435e-08)
(-2.17763e-06 -1.67541e-07 -3.42835e-08)
(-1.88858e-06 -2.23114e-07 -4.01363e-08)
(-1.51417e-06 -2.62283e-07 -4.03734e-08)
(-1.09997e-06 -2.78485e-07 -3.46716e-08)
(-6.96632e-07 -2.64099e-07 -2.39124e-08)
(-3.545e-07 -2.11172e-07 -1.06842e-08)
(-1.14591e-07 -1.15255e-07 -3.41984e-10)
(-2.96053e-09 -2.36253e-09 2.99249e-09)
(-4.30694e-06 -5.58484e-06 -4.30695e-06)
(-7.13693e-06 -8.05984e-06 -2.57986e-06)
(-3.54803e-06 -4.91417e-06 -1.18987e-06)
(-1.81182e-06 -3.05182e-06 -5.70374e-07)
(-1.04052e-07 -2.24643e-06 -2.62039e-07)
(1.06387e-06 -1.72034e-06 -1.10417e-07)
(1.96078e-06 -1.39699e-06 -2.96834e-08)
(2.56891e-06 -1.14758e-06 1.66771e-08)
(2.92271e-06 -9.32273e-07 4.90785e-08)
(3.0235e-06 -7.33952e-07 7.51166e-08)
(2.87963e-06 -5.51389e-07 9.78821e-08)
(2.50757e-06 -3.90151e-07 1.17739e-07)
(1.93734e-06 -2.58516e-07 1.34008e-07)
(1.21267e-06 -1.6467e-07 1.4567e-07)
(3.88987e-07 -1.14951e-07 1.51902e-07)
(-4.70562e-07 -1.12566e-07 1.52208e-07)
(-1.30053e-06 -1.57052e-07 1.46663e-07)
(-2.03883e-06 -2.44116e-07 1.35929e-07)
(-2.63238e-06 -3.65892e-07 1.21139e-07)
(-3.04177e-06 -5.11622e-07 1.03843e-07)
(-3.24452e-06 -6.6849e-07 8.58038e-08)
(-3.23682e-06 -8.22536e-07 6.88146e-08)
(-3.03345e-06 -9.59051e-07 5.45425e-08)
(-2.66654e-06 -1.06337e-06 4.42641e-08)
(-2.18252e-06 -1.12041e-06 3.8715e-08)
(-1.63827e-06 -1.11461e-06 3.78182e-08)
(-1.09565e-06 -1.02965e-06 4.02594e-08)
(-6.1395e-07 -8.49826e-07 4.28843e-08)
(-2.43969e-07 -5.64001e-07 3.97764e-08)
(-2.1981e-08 -1.90871e-07 2.20171e-08)
(-8.87648e-07 -6.4467e-06 -8.87669e-07)
(-1.93106e-06 -5.29535e-06 -7.84657e-07)
(-1.25394e-06 -4.74284e-06 -5.34945e-07)
(-2.72463e-07 -3.90358e-06 -2.61505e-07)
(9.12216e-07 -3.42867e-06 -9.65597e-08)
(1.91136e-06 -3.05291e-06 -2.33287e-09)
(2.74088e-06 -2.7465e-06 5.56387e-08)
(3.33622e-06 -2.44964e-06 9.43724e-08)
(3.67828e-06 -2.14923e-06 1.24834e-07)
(3.7469e-06 -1.84633e-06 1.51277e-07)
(3.53862e-06 -1.55334e-06 1.75233e-07)
(3.06649e-06 -1.2875e-06 1.96439e-07)
(2.36259e-06 -1.06717e-06 2.13908e-07)
(1.47708e-06 -9.08879e-07 2.2646e-07)
(4.74913e-07 -8.24785e-07 2.3315e-07)
(-5.69287e-07 -8.21196e-07 2.33454e-07)
(-1.57782e-06 -8.97506e-07 2.27438e-07)
(-2.47692e-06 -1.04607e-06 2.1577e-07)
(-3.20347e-06 -1.25281e-06 1.99643e-07)
(-3.71065e-06 -1.49837e-06 1.80655e-07)
(-3.97162e-06 -1.75964e-06 1.60589e-07)
(-3.9816e-06 -2.01128e-06 1.41231e-07)
(-3.7574e-06 -2.22698e-06 1.24144e-07)
(-3.33567e-06 -2.38032e-06 1.10509e-07)
(-2.76904e-06 -2.44494e-06 1.00864e-07)
(-2.12127e-06 -2.39464e-06 9.49143e-08)
(-1.46125e-06 -2.203e-06 9.11518e-08)
(-8.54645e-07 -1.84394e-06 8.60213e-08)
(-3.63138e-07 -1.29092e-06 7.29919e-08)
(-3.83339e-08 -5.22832e-07 3.83749e-08)
(-2.87688e-07 -2.76773e-06 -2.87715e-07)
(-7.43189e-07 -4.33621e-06 -3.11249e-07)
(-1.10462e-07 -4.9041e-06 -1.88772e-07)
(7.35557e-07 -4.93066e-06 -6.42434e-08)
(1.74522e-06 -4.86833e-06 2.36431e-08)
(2.68131e-06 -4.69716e-06 8.13046e-08)
(3.48324e-06 -4.45054e-06 1.2257e-07)
(4.07073e-06 -4.12977e-06 1.54908e-07)
(4.39768e-06 -3.753e-06 1.83609e-07)
(4.43057e-06 -3.34423e-06 2.10479e-07)
(4.1576e-06 -2.93354e-06 2.35742e-07)
(3.58933e-06 -2.55322e-06 2.58506e-07)
(2.75972e-06 -2.23443e-06 2.77408e-07)
(1.72447e-06 -2.00405e-06 2.91043e-07)
(5.57028e-07 -1.88156e-06 2.98299e-07)
(-6.57688e-07 -1.87703e-06 2.98579e-07)
(-1.83094e-06 -1.98978e-06 2.91935e-07)
(-2.87844e-06 -2.20836e-06 2.79075e-07)
(-3.72802e-06 -2.51136e-06 2.61296e-07)
(-4.32615e-06 -2.86928e-06 2.40287e-07)
(-4.64216e-06 -3.2469e-06 2.17937e-07)
(-4.67025e-06 -3.60569e-06 1.96099e-07)
(-4.4288e-06 -3.90573e-06 1.76344e-07)
(-3.95802e-06 -4.10733e-06 1.59819e-07)
(-3.31559e-06 -4.17149e-06 1.46984e-07)
(-2.57099e-06 -4.06e-06 1.37422e-07)
(-1.79953e-06 -3.73437e-06 1.29493e-07)
(-1.07389e-06 -3.15381e-06 1.19233e-07)
(-4.68306e-07 -2.26583e-06 9.9305e-08)
(-5.16832e-08 -9.8111e-07 5.17322e-08)
(-9.62704e-08 -2.59284e-06 -9.62982e-08)
(1.25551e-08 -4.70115e-06 -7.2294e-08)
(6.47346e-07 -5.87241e-06 -7.89509e-09)
(1.49e-06 -6.43781e-06 5.46695e-08)
(2.4613e-06 -6.69188e-06 1.04524e-07)
(3.39581e-06 -6.69359e-06 1.42359e-07)
(4.20441e-06 -6.50443e-06 1.74265e-07)
(4.79873e-06 -6.16207e-06 2.03454e-07)
(5.11716e-06 -5.7095e-06 2.32171e-07)
(5.11689e-06 -5.19201e-06 2.60702e-07)
(4.78022e-06 -4.65803e-06 2.88339e-07)
(4.11604e-06 -4.15625e-06 3.1362e-07)
(3.16053e-06 -3.73222e-06 3.34772e-07)
(1.97509e-06 -3.42443e-06 3.50074e-07)
(6.41843e-07 -3.26077e-06 3.58206e-07)
(-7.43828e-07 -3.25561e-06 3.58454e-07)
(-2.08199e-06 -3.40829e-06 3.50856e-07)
(-3.27763e-06 -3.70311e-06 3.36206e-07)
(-4.24947e-06 -4.11049e-06 3.15959e-07)
(-4.93724e-06 -4.58964e-06 2.92023e-07)
(-5.30659e-06 -5.09198e-06 2.66506e-07)
(-5.35069e-06 -5.56432e-06 2.41434e-07)
(-5.08966e-06 -5.95191e-06 2.18489e-07)
(-4.56747e-06 -6.20059e-06 1.98898e-07)
(-3.84685e-06 -6.25754e-06 1.83135e-07)
(-3.00345e-06 -6.07101e-06 1.70712e-07)
(-2.11985e-06 -5.58797e-06 1.59844e-07)
(-1.27708e-06 -4.74781e-06 1.46091e-07)
(-5.62771e-07 -3.4618e-06 1.21112e-07)
(-6.29891e-08 -1.54939e-06 6.30504e-08)
(6.84626e-09 -2.72468e-06 6.82548e-09)
(3.79353e-07 -5.57074e-06 5.02701e-08)
(1.12105e-06 -7.31287e-06 9.31662e-08)
(2.04991e-06 -8.33044e-06 1.30031e-07)
(3.07304e-06 -8.86966e-06 1.61787e-07)
(4.05931e-06 -9.03172e-06 1.89915e-07)
(4.90967e-06 -8.89965e-06 2.1772e-07)
(5.53133e-06 -8.53781e-06 2.46627e-07)
(5.85331e-06 -8.01081e-06 2.77283e-07)
(5.82617e-06 -7.38393e-06 3.0903e-07)
(5.42788e-06 -6.72411e-06 3.40425e-07)
(4.6665e-06 -6.09721e-06 3.69465e-07)
(3.58092e-06 -5.56398e-06 3.93905e-07)
(2.23905e-06 -5.17563e-06 4.11612e-07)
(7.32409e-07 -4.96915e-06 4.20997e-07)
(-8.32201e-07 -4.96368e-06 4.21209e-07)
(-2.34274e-06 -5.15865e-06 4.12275e-07)
(-3.6926e-06 -5.5337e-06 3.95099e-07)
(-4.79068e-06 -6.05051e-06 3.71365e-07)
(-5.56965e-06 -6.65608e-06 3.43327e-07)
(-5.9913e-06 -7.28741e-06 3.1342e-07)
(-6.0482e-06 -7.87579e-06 2.83965e-07)
(-5.76269e-06 -8.35083e-06 2.56916e-07)
(-5.18307e-06 -8.643e-06 2.3363e-07)
(-4.37811e-06 -8.68451e-06 2.14667e-07)
(-3.43058e-06 -8.40854e-06 1.99498e-07)
(-2.43144e-06 -7.74467e-06 1.86171e-07)
(-1.47119e-06 -6.60749e-06 1.69701e-07)
(-6.51046e-07 -4.86223e-06 1.40562e-07)
(-7.31965e-08 -2.21769e-06 7.32762e-08)
(5.25363e-08 -3.25844e-06 5.25272e-08)
(5.98901e-07 -6.88903e-06 1.14979e-07)
(1.46272e-06 -9.1823e-06 1.52822e-07)
(2.50619e-06 -1.06063e-05 1.80532e-07)
(3.62216e-06 -1.141e-05 2.05097e-07)
(4.69167e-06 -1.17235e-05 2.29959e-07)
(5.60863e-06 -1.16485e-05 2.57612e-07)
(6.27523e-06 -1.12704e-05 2.8886e-07)
(6.61277e-06 -1.06724e-05 3.23492e-07)
(6.56582e-06 -9.93866e-06 3.60244e-07)
(6.10847e-06 -9.15404e-06 3.97052e-07)
(5.24817e-06 -8.40171e-06 4.31299e-07)
(4.02705e-06 -7.75831e-06 4.60206e-07)
(2.5202e-06 -7.2884e-06 4.81169e-07)
(8.29693e-07 -7.03858e-06 4.92246e-07)
(-9.25002e-07 -7.03309e-06 4.92417e-07)
(-2.61841e-06 -7.27144e-06 4.81697e-07)
(-4.13112e-06 -7.72842e-06 4.61153e-07)
(-5.3612e-06 -8.3563e-06 4.32782e-07)
(-6.23376e-06 -9.08925e-06 3.99275e-07)
(-6.7068e-06 -9.84927e-06 3.63505e-07)
(-6.77271e-06 -1.05514e-05 3.28257e-07)
(-6.45683e-06 -1.11091e-05 2.95868e-07)
(-5.8127e-06 -1.14366e-05 2.67909e-07)
(-4.91634e-06 -1.14508e-05 2.45086e-07)
(-3.85872e-06 -1.10679e-05 2.26831e-07)
(-2.74012e-06 -1.01974e-05 2.11024e-07)
(-1.6612e-06 -8.7243e-06 1.92052e-07)
(-7.36453e-07 -6.45888e-06 1.59095e-07)
(-8.2976e-08 -2.98115e-06 8.30782e-08)
(7.84651e-08 -3.99449e-06 7.84744e-08)
(7.47385e-07 -8.51596e-06 1.55451e-07)
(1.73218e-06 -1.13977e-05 1.93595e-07)
(2.89959e-06 -1.32326e-05 2.18841e-07)
(4.1284e-06 -1.43051e-05 2.41608e-07)
(5.30003e-06 -1.47759e-05 2.66954e-07)
(6.30086e-06 -1.47667e-05 2.97248e-07)
(7.02658e-06 -1.43821e-05 3.33076e-07)
(7.3907e-06 -1.3723e-05 3.73722e-07)
(7.33128e-06 -1.28905e-05 4.17374e-07)
(6.81831e-06 -1.19874e-05 4.61372e-07)
(5.85843e-06 -1.11141e-05 5.02439e-07)
(4.49719e-06 -1.03633e-05 5.3716e-07)
(2.81749e-06 -9.81319e-06 5.62326e-07)
(9.33052e-07 -9.52071e-06 5.75565e-07)
(-1.02261e-06 -9.5154e-06 5.75695e-07)
(-2.90904e-06 -9.79686e-06 5.62733e-07)
(-4.59268e-06 -1.03347e-05 5.37889e-07)
(-5.95987e-06 -1.10715e-05 5.03552e-07)
(-6.92769e-06 -1.19278e-05 4.63009e-07)
(-7.45034e-06 -1.28101e-05 4.19738e-07)
(-7.52079e-06 -1.36171e-05 3.77082e-07)
(-7.16836e-06 -1.42458e-05 3.37832e-07)
(-6.45312e-06 -1.45944e-05 3.03925e-07)
(-5.4593e-06 -1.45634e-05 2.76252e-07)
(-4.28699e-06 -1.40514e-05 2.54271e-07)
(-3.04641e-06 -1.2945e-05 2.35631e-07)
(-1.84849e-06 -1.1095e-05 2.14042e-07)
(-8.20367e-07 -8.24807e-06 1.77365e-07)
(-9.26615e-08 -3.83785e-06 9.27901e-08)
(9.52816e-08 -4.88021e-06 9.53156e-08)
(8.61354e-07 -1.03993e-05 1.84029e-07)
(1.95962e-06 -1.39207e-05 2.24731e-07)
(3.24995e-06 -1.61906e-05 2.50709e-07)
(4.59798e-06 -1.75504e-05 2.7469e-07)
(5.8803e-06 -1.8196e-05 3.03012e-07)
(6.97506e-06 -1.82713e-05 3.38198e-07)
(7.76989e-06 -1.78992e-05 3.80691e-07)
(8.16997e-06 -1.71973e-05 4.29478e-07)
(8.10603e-06 -1.62831e-05 4.82177e-07)
(7.54281e-06 -1.52758e-05 5.35456e-07)
(6.48543e-06 -1.42924e-05 5.85264e-07)
(4.98265e-06 -1.34417e-05 6.27365e-07)
(3.12552e-06 -1.28163e-05 6.57836e-07)
(1.04039e-06 -1.24835e-05 6.7383e-07)
(-1.1237e-06 -1.24785e-05 6.7392e-07)
(-3.21006e-06 -1.28011e-05 6.58115e-07)
(-5.06954e-06 -1.34152e-05 6.27855e-07)
(-6.57575e-06 -1.42532e-05 5.86032e-07)
(-7.63759e-06 -1.5222e-05 5.36623e-07)
(-8.20604e-06 -1.62122e-05 4.83833e-07)
(-8.27554e-06 -1.71064e-05 4.31795e-07)
(-7.8806e-06 -1.77855e-05 3.83905e-07)
(-7.08909e-06 -1.81322e-05 3.42545e-07)
(-5.99421e-06 -1.80307e-05 3.08819e-07)
(-4.70589e-06 -1.7361e-05 2.82216e-07)
(-3.34431e-06 -1.59851e-05 2.60207e-07)
(-2.02998e-06 -1.3715e-05 2.35781e-07)
(-9.01768e-07 -1.02259e-05 1.95366e-07)
(-1.02237e-07 -4.78628e-06 1.02397e-07)
(1.07829e-07 -5.88188e-06 1.07881e-07)
(9.53985e-07 -1.24993e-05 2.06348e-07)
(2.15378e-06 -1.67165e-05 2.50299e-07)
(3.55798e-06 -1.94564e-05 2.78501e-07)
(5.02122e-06 -2.11331e-05 3.05512e-07)
(6.41371e-06 -2.19823e-05 3.38637e-07)
(7.60537e-06 -2.21722e-05 3.80631e-07)
(8.47514e-06 -2.18439e-05 4.31906e-07)
(8.91911e-06 -2.113e-05 4.91078e-07)
(8.85953e-06 -2.01628e-05 5.55231e-07)
(8.25454e-06 -1.90761e-05 6.20216e-07)
(7.10658e-06 -1.80029e-05 6.8102e-07)
(5.46675e-06 -1.70675e-05 7.32461e-07)
(3.43408e-06 -1.63764e-05 7.69664e-07)
(1.14813e-06 -1.60079e-05 7.89132e-07)
(-1.22534e-06 -1.60032e-05 7.89189e-07)
(-3.51181e-06 -1.63622e-05 7.6984e-07)
(-5.5455e-06 -1.70433e-05 7.32772e-07)
(-7.18679e-06 -1.79676e-05 6.81506e-07)
(-8.33661e-06 -1.90285e-05 6.20925e-07)
(-8.94361e-06 -2.01012e-05 5.56294e-07)
(-9.00495e-06 -2.10527e-05 4.92618e-07)
(-8.56195e-06 -2.17496e-05 4.34011e-07)
(-7.69139e-06 -2.20602e-05 3.83429e-07)
(-6.49618e-06 -2.18533e-05 3.42273e-07)
(-5.09592e-06 -2.09904e-05 3.10072e-07)
(-3.6201e-06 -1.93074e-05 2.84029e-07)
(-2.19772e-06 -1.65732e-05 2.56468e-07)
(-9.77364e-07 -1.23832e-05 2.12445e-07)
(-1.11361e-07 -5.82278e-06 1.11558e-07)
(1.17479e-07 -6.97748e-06 1.1757e-07)
(1.02716e-06 -1.47808e-05 2.23922e-07)
(2.31024e-06 -1.97462e-05 2.71107e-07)
(3.81032e-06 -2.29954e-05 3.02255e-07)
(5.37408e-06 -2.5026e-05 3.3342e-07)
(6.86631e-06 -2.61181e-05 3.72827e-07)
(8.1498e-06 -2.64657e-05 4.23434e-07)
(9.09535e-06 -2.62271e-05 4.85634e-07)
(9.58941e-06 -2.5548e-05 5.57715e-07)
(9.54477e-06 -2.45725e-05 6.36144e-07)
(8.91143e-06 -2.34469e-05 7.15851e-07)
(7.6872e-06 -2.23176e-05 7.90639e-07)
(5.92386e-06 -2.13232e-05 8.54038e-07)
(3.72749e-06 -2.05836e-05 8.9998e-07)
(1.25093e-06 -2.01879e-05 9.24006e-07)
(-1.32242e-06 -2.01837e-05 9.24027e-07)
(-3.79897e-06 -2.05707e-05 9.00031e-07)
(-5.99537e-06 -2.13013e-05 8.5414e-07)
(-7.75867e-06 -2.22862e-05 7.90855e-07)
(-8.98269e-06 -2.34049e-05 7.16216e-07)
(-9.61566e-06 -2.4519e-05 6.36772e-07)
(-9.65951e-06 -2.54823e-05 5.58668e-07)
(-9.16393e-06 -2.61489e-05 4.86967e-07)
(-8.21536e-06 -2.63752e-05 4.25217e-07)
(-6.92683e-06 -2.60167e-05 3.75112e-07)
(-5.42676e-06 -2.49173e-05 3.36224e-07)
(-3.85223e-06 -2.28852e-05 3.05531e-07)
(-2.33853e-06 -1.96438e-05 2.7466e-07)
(-1.04126e-06 -1.47004e-05 2.27339e-07)
(-1.1935e-07 -6.93847e-06 1.19587e-07)
(1.2423e-07 -8.14356e-06 1.24335e-07)
(1.07628e-06 -1.71989e-05 2.3613e-07)
(2.41509e-06 -2.29555e-05 2.85933e-07)
(3.98138e-06 -2.67518e-05 3.20291e-07)
(5.61826e-06 -2.91779e-05 3.56392e-07)
(7.18784e-06 -3.05617e-05 4.03165e-07)
(8.54818e-06 -3.11233e-05 4.63879e-07)
(9.56352e-06 -3.10369e-05 5.38951e-07)
(1.01113e-05 -3.04583e-05 6.26377e-07)
(1.0094e-05 -2.95399e-05 7.21981e-07)
(9.45194e-06 -2.84364e-05 8.19708e-07)
(8.17572e-06 -2.73035e-05 9.11987e-07)
(6.31532e-06 -2.62912e-05 9.90563e-07)
(3.98193e-06 -2.5531e-05 1.04775e-06)
(1.34068e-06 -2.51222e-05 1.07774e-06)
(-1.40714e-06 -2.51183e-05 1.07772e-06)
(-4.04796e-06 -2.55193e-05 1.0477e-06)
(-6.38053e-06 -2.62714e-05 9.90506e-07)
(-8.23965e-06 -2.72752e-05 9.11965e-07)
(-9.51417e-06 -2.83992e-05 8.19796e-07)
(-1.01543e-05 -2.94934e-05 7.2225e-07)
(-1.01691e-05 -3.04024e-05 6.26842e-07)
(-9.61833e-06 -3.09717e-05 5.39722e-07)
(-8.59885e-06 -3.10495e-05 4.64967e-07)
(-7.23295e-06 -3.0481e-05 4.04596e-07)
(-5.65606e-06 -2.90935e-05 3.5813e-07)
(-4.0103e-06 -2.66685e-05 3.22282e-07)
(-2.4338e-06 -2.28803e-05 2.88054e-07)
(-1.08505e-06 -1.71414e-05 2.38124e-07)
(-1.25235e-07 -8.11669e-06 1.25521e-07)
(1.27128e-07 -9.34947e-06 1.27282e-07)
(1.09241e-06 -1.96915e-05 2.41189e-07)
(2.44738e-06 -2.6265e-05 2.9249e-07)
(4.03579e-06 -3.0639e-05 3.2978e-07)
(5.70281e-06 -3.35027e-05 3.71061e-07)
(7.31247e-06 -3.52337e-05 4.2579e-07)
(8.72199e-06 -3.60783e-05 4.97475e-07)
(9.7919e-06 -3.62243e-05 5.86765e-07)
(1.03925e-05 -3.58338e-05 6.91558e-07)
(1.04161e-05 -3.50619e-05 8.07127e-07)
(9.79211e-06 -3.40661e-05 9.2632e-07)
(8.50107e-06 -3.30061e-05 1.03992e-06)
(6.58743e-06 -3.20378e-05 1.13753e-06)
(4.16409e-06 -3.13004e-05 1.20924e-06)
(1.40614e-06 -3.09007e-05 1.24712e-06)
(-1.46817e-06 -3.08971e-05 1.24708e-06)
(-4.22537e-06 -3.12897e-05 1.20912e-06)
(-6.64722e-06 -3.20199e-05 1.13734e-06)
(-8.55872e-06 -3.29807e-05 1.03971e-06)
(-9.84717e-06 -3.40332e-05 9.26167e-07)
(-1.04681e-05 -3.50214e-05 8.07173e-07)
(-1.04409e-05 -3.57858e-05 6.91768e-07)
(-9.83635e-06 -3.61695e-05 5.87195e-07)
(-8.76176e-06 -3.60175e-05 4.9811e-07)
(-7.34668e-06 -3.51686e-05 4.2663e-07)
(-5.73057e-06 -3.34362e-05 3.72107e-07)
(-4.05627e-06 -3.05748e-05 3.31008e-07)
(-2.46011e-06 -2.62083e-05 2.93806e-07)
(-1.09805e-06 -1.9649e-05 2.42399e-07)
(-1.27689e-07 -9.33014e-06 1.28017e-07)
(1.24838e-07 -1.05527e-05 1.25011e-07)
(1.06412e-06 -2.21717e-05 2.36405e-07)
(2.3814e-06 -2.95622e-05 2.87371e-07)
(3.93083e-06 -3.45313e-05 3.26739e-07)
(5.56699e-06 -3.78699e-05 3.72655e-07)
(7.16145e-06 -4.00061e-05 4.34856e-07)
(8.57634e-06 -4.12114e-05 5.17285e-07)
(9.67301e-06 -4.16841e-05 6.20825e-07)
(1.0318e-05 -4.15882e-05 7.43367e-07)
(1.03952e-05 -4.10757e-05 8.79904e-07)
(9.82227e-06 -4.02994e-05 1.0223e-06)
(8.56734e-06 -3.94148e-05 1.15969e-06)
(6.66558e-06 -3.85761e-05 1.27923e-06)
(4.22678e-06 -3.79231e-05 1.36813e-06)
(1.43113e-06 -3.75647e-05 1.41553e-06)
(-1.4894e-06 -3.75614e-05 1.41546e-06)
(-4.28404e-06 -3.79133e-05 1.36793e-06)
(-6.72093e-06 -3.85598e-05 1.27895e-06)
(-8.61989e-06 -3.93919e-05 1.15939e-06)
(-9.87137e-06 -4.02699e-05 1.02202e-06)
(-1.04406e-05 -4.104e-05 8.79718e-07)
(-1.03593e-05 -4.15466e-05 7.43308e-07)
(-9.70982e-06 -4.16376e-05 6.2095e-07)
(-8.60829e-06 -4.11608e-05 5.17597e-07)
(-7.18807e-06 -3.99529e-05 4.35347e-07)
(-5.58784e-06 -3.78166e-05 3.73283e-07)
(-3.9456e-06 -3.44806e-05 3.27464e-07)
(-2.39024e-06 -2.95183e-05 2.88176e-07)
(-1.06781e-06 -2.21393e-05 2.37172e-07)
(-1.25133e-07 -1.05382e-05 1.25506e-07)
(1.15797e-07 -1.16974e-05 1.1599e-07)
(9.78876e-07 -2.45251e-05 2.18862e-07)
(2.18962e-06 -3.2698e-05 2.66963e-07)
(3.62123e-06 -3.8258e-05 3.06735e-07)
(5.14624e-06 -4.20961e-05 3.5574e-07)
(6.65068e-06 -4.46898e-05 4.23619e-07)
(8.0086e-06 -4.63337e-05 5.14558e-07)
(9.08848e-06 -4.72334e-05 6.2986e-07)
(9.75816e-06 -4.75496e-05 7.67784e-07)
(9.89694e-06 -4.74253e-05 9.23356e-07)
(9.41228e-06 -4.69998e-05 1.08777e-06)
(8.2589e-06 -4.64147e-05 1.24855e-06)
(6.45831e-06 -4.58116e-05 1.39029e-06)
(4.11102e-06 -4.5321e-05 1.49708e-06)
(1.39534e-06 -4.50453e-05 1.55467e-06)
(-1.45026e-06 -4.50423e-05 1.55461e-06)
(-4.16473e-06 -4.5312e-05 1.49691e-06)
(-6.50977e-06 -4.57968e-05 1.38999e-06)
(-8.3072e-06 -4.63939e-05 1.24818e-06)
(-9.45686e-06 -4.69734e-05 1.08742e-06)
(-9.93728e-06 -4.73939e-05 9.23111e-07)
(-9.79396e-06 -4.75137e-05 7.67641e-07)
(-9.11955e-06 -4.71934e-05 6.29821e-07)
(-8.03482e-06 -4.62908e-05 5.1466e-07)
(-6.67187e-06 -4.46454e-05 4.23858e-07)
(-5.16234e-06 -4.20523e-05 3.56106e-07)
(-3.63223e-06 -3.8217e-05 3.07199e-07)
(-2.19595e-06 -3.2663e-05 2.67467e-07)
(-9.81358e-07 -2.44995e-05 2.19376e-07)
(-1.15932e-07 -1.16861e-05 1.16345e-07)
(9.84731e-08 -1.27134e-05 9.86712e-08)
(8.25307e-07 -2.66093e-05 1.85679e-07)
(1.84733e-06 -3.54861e-05 2.2757e-07)
(3.06614e-06 -4.1602e-05 2.6523e-07)
(4.38158e-06 -4.59419e-05 3.14421e-07)
(5.70189e-06 -4.90285e-05 3.84144e-07)
(6.92097e-06 -5.11757e-05 4.78777e-07)
(7.92248e-06 -5.25934e-05 6.00059e-07)
(8.58322e-06 -5.34344e-05 7.46747e-07)
(8.78382e-06 -5.38252e-05 9.1408e-07)
(8.42537e-06 -5.38837e-05 1.09313e-06)
(7.44999e-06 -5.37272e-05 1.27056e-06)
(5.86321e-06 -5.34728e-05 1.42897e-06)
(3.74949e-06 -5.32285e-05 1.54962e-06)
(1.27524e-06 -5.30803e-05 1.61529e-06)
(-1.32723e-06 -5.30778e-05 1.6152e-06)
(-3.80024e-06 -5.32205e-05 1.54943e-06)
(-5.91148e-06 -5.34594e-05 1.42865e-06)
(-7.49479e-06 -5.37086e-05 1.27021e-06)
(-8.46613e-06 -5.38604e-05 1.09275e-06)
(-8.82006e-06 -5.37974e-05 9.13762e-07)
(-8.61482e-06 -5.34028e-05 7.46468e-07)
(-7.94931e-06 -5.25587e-05 5.99897e-07)
(-6.94302e-06 -5.1139e-05 4.78747e-07)
(-5.71923e-06 -4.89909e-05 3.84208e-07)
(-4.39435e-06 -4.59053e-05 3.14592e-07)
(-3.07456e-06 -4.15681e-05 2.65484e-07)
(-1.85191e-06 -3.54573e-05 2.27867e-07)
(-8.26963e-07 -2.65886e-05 1.86026e-07)
(-9.85065e-08 -1.27043e-05 9.89534e-08)
(7.17622e-08 -1.35193e-05 7.20032e-08)
(5.95624e-07 -2.82597e-05 1.34851e-07)
(1.33781e-06 -3.7709e-05 1.66605e-07)
(2.23806e-06 -4.43079e-05 1.98776e-07)
(3.2325e-06 -4.91191e-05 2.43973e-07)
(4.25985e-06 -5.27035e-05 3.0988e-07)
(5.24244e-06 -5.53898e-05 4.0061e-07)
(6.08805e-06 -5.73873e-05 5.18343e-07)
(6.69181e-06 -5.88369e-05 6.62518e-07)
(6.94427e-06 -5.98436e-05 8.29099e-07)
(6.74723e-06 -6.04959e-05 1.00957e-06)
(6.03381e-06 -6.08763e-05 1.19051e-06)
(4.79209e-06 -6.10668e-05 1.35374e-06)
(3.08389e-06 -6.11417e-05 1.47918e-06)
(1.05048e-06 -6.11609e-05 1.54791e-06)
(-1.09976e-06 -6.11589e-05 1.54784e-06)
(-3.1318e-06 -6.11349e-05 1.47901e-06)
(-4.83737e-06 -6.10549e-05 1.35341e-06)
(-6.07556e-06 -6.086e-05 1.1901e-06)
(-6.7849e-06 -6.04752e-05 1.0091e-06)
(-6.97731e-06 -5.98189e-05 8.28719e-07)
(-6.72013e-06 -5.88089e-05 6.62183e-07)
(-6.11165e-06 -5.73568e-05 5.18125e-07)
(-5.2614e-06 -5.53578e-05 4.00491e-07)
(-4.27437e-06 -5.2671e-05 3.09823e-07)
(-3.24289e-06 -4.90879e-05 2.44021e-07)
(-2.2447e-06 -4.42792e-05 1.98898e-07)
(-1.34127e-06 -3.76848e-05 1.66832e-07)
(-5.9678e-07 -2.82423e-05 1.35106e-07)
(-7.17584e-08 -1.35117e-05 7.2231e-08)
(3.5401e-08 -1.4028e-05 3.56124e-08)
(2.8864e-07 -2.93012e-05 6.57099e-08)
(6.58762e-07 -3.9135e-05 8.30588e-08)
(1.13229e-06 -4.60984e-05 1.05691e-07)
(1.6905e-06 -5.13083e-05 1.41636e-07)
(2.30953e-06 -5.53522e-05 1.96301e-07)
(2.94924e-06 -5.85678e-05 2.73395e-07)
(3.55128e-06 -6.11596e-05 3.75123e-07)
(4.03935e-06 -6.3252e-05 5.01616e-07)
(4.32479e-06 -6.49236e-05 6.49992e-07)
(4.31889e-06 -6.62281e-05 8.12784e-07)
(3.95158e-06 -6.72075e-05 9.78055e-07)
(3.19414e-06 -6.78992e-05 1.12864e-06)
(2.07907e-06 -6.83368e-05 1.24529e-06)
(7.0841e-07 -6.8547e-05 1.30959e-06)
(-7.55088e-07 -6.85451e-05 1.3095e-06)
(-2.12424e-06 -6.83304e-05 1.24505e-06)
(-3.23668e-06 -6.78884e-05 1.12822e-06)
(-3.99057e-06 -6.71927e-05 9.77585e-07)
(-4.35361e-06 -6.62093e-05 8.12293e-07)
(-4.35498e-06 -6.49014e-05 6.49506e-07)
(-4.06496e-06 -6.32269e-05 5.01207e-07)
(-3.57234e-06 -6.11325e-05 3.74768e-07)
(-2.9659e-06 -5.85396e-05 2.73164e-07)
(-2.32203e-06 -5.53237e-05 1.96167e-07)
(-1.69923e-06 -5.12811e-05 1.41548e-07)
(-1.13772e-06 -4.60735e-05 1.05714e-07)
(-6.61455e-07 -3.91143e-05 8.31754e-08)
(-2.89411e-07 -2.92863e-05 6.58904e-08)
(-3.53333e-08 -1.40213e-05 3.58207e-08)
(-9.98653e-09 -1.41545e-05 -9.75305e-09)
(-8.82589e-08 -2.95642e-05 -2.02484e-08)
(-1.72718e-07 -3.95393e-05 -2.13728e-08)
(-2.2385e-07 -4.67015e-05 -1.25745e-08)
(-2.08397e-07 -5.21911e-05 8.32565e-09)
(-1.0668e-07 -5.66056e-05 4.37155e-08)
(8.64736e-08 -6.02838e-05 9.62925e-08)
(3.56305e-07 -6.3421e-05 1.68137e-07)
(6.66088e-07 -6.61226e-05 2.6012e-07)
(9.58889e-07 -6.84396e-05 3.70835e-07)
(1.1661e-06 -7.03876e-05 4.9516e-07)
(1.22161e-06 -7.19639e-05 6.23833e-07)
(1.08146e-06 -7.31592e-05 7.42858e-07)
(7.42242e-07 -7.39629e-05 8.36093e-07)
(2.51704e-07 -7.43663e-05 8.8784e-07)
(-2.95398e-07 -7.43642e-05 8.87701e-07)
(-7.84494e-07 -7.39567e-05 8.3578e-07)
(-1.12108e-06 -7.31491e-05 7.42405e-07)
(-1.25773e-06 -7.19498e-05 6.23282e-07)
(-1.19817e-06 -7.03698e-05 4.94621e-07)
(-9.86635e-07 -6.8419e-05 3.70302e-07)
(-6.89444e-07 -6.60996e-05 2.59663e-07)
(-3.7534e-07 -6.33963e-05 1.67749e-07)
(-1.01421e-07 -6.02584e-05 9.60144e-08)
(9.55926e-08 -5.65801e-05 4.35382e-08)
(2.00816e-07 -5.21668e-05 8.23492e-09)
(2.19299e-07 -4.66796e-05 -1.2575e-08)
(1.70566e-07 -3.95211e-05 -2.13027e-08)
(8.76889e-08 -2.95511e-05 -2.00968e-08)
(1.00632e-08 -1.41487e-05 -9.57223e-09)
(-6.21373e-08 -1.38284e-05 -6.19405e-08)
(-5.16602e-07 -2.89086e-05 -1.19095e-07)
(-1.11652e-06 -3.87341e-05 -1.42072e-07)
(-1.7663e-06 -4.5886e-05 -1.50888e-07)
(-2.37679e-06 -5.14891e-05 -1.50476e-07)
(-2.88064e-06 -5.61321e-05 -1.42257e-07)
(-3.22151e-06 -6.01452e-05 -1.25059e-07)
(-3.36253e-06 -6.37109e-05 -9.69787e-08)
(-3.2908e-06 -6.69157e-05 -5.6242e-08)
(-3.02032e-06 -6.97816e-05 -2.40633e-09)
(-2.58912e-06 -7.22884e-05 6.27367e-08)
(-2.05223e-06 -7.43914e-05 1.33729e-07)
(-1.46689e-06 -7.60351e-05 2.0241e-07)
(-8.77147e-07 -7.71664e-05 2.57877e-07)
(-3.02927e-07 -7.77431e-05 2.89264e-07)
(2.62697e-07 -7.77412e-05 2.89129e-07)
(8.38281e-07 -7.71606e-05 2.57528e-07)
(1.4304e-06 -7.60255e-05 2.01879e-07)
(2.01899e-06 -7.43778e-05 1.33164e-07)
(2.55969e-06 -7.22716e-05 6.21824e-08)
(2.99492e-06 -6.97622e-05 -2.97808e-09)
(3.26938e-06 -6.68943e-05 -5.67364e-08)
(3.34509e-06 -6.36881e-05 -9.73401e-08)
(3.2079e-06 -6.0122e-05 -1.25379e-07)
(2.87055e-06 -5.61091e-05 -1.42463e-07)
(2.36994e-06 -5.14674e-05 -1.50556e-07)
(1.76228e-06 -4.58664e-05 -1.50908e-07)
(1.11465e-06 -3.87179e-05 -1.42018e-07)
(5.16164e-07 -2.88969e-05 -1.18936e-07)
(6.22386e-08 -1.38231e-05 -6.17515e-08)
(-1.17504e-07 -1.30056e-05 -1.17309e-07)
(-9.66723e-07 -2.72479e-05 -2.23954e-07)
(-2.10792e-06 -3.66017e-05 -2.7067e-07)
(-3.3912e-06 -4.35005e-05 -2.99906e-07)
(-4.67225e-06 -4.90098e-05 -3.24386e-07)
(-5.83505e-06 -5.369e-05 -3.49827e-07)
(-6.76821e-06 -5.78534e-05 -3.76817e-07)
(-7.37749e-06 -6.16666e-05 -4.04022e-07)
(-7.59258e-06 -6.51972e-05 -4.28749e-07)
(-7.37528e-06 -6.84422e-05 -4.48242e-07)
(-6.72494e-06 -7.13512e-05 -4.60381e-07)
(-5.67785e-06 -7.38434e-05 -4.64472e-07)
(-4.30129e-06 -7.58245e-05 -4.62035e-07)
(-2.68375e-06 -7.72057e-05 -4.5647e-07)
(-9.22495e-07 -7.79152e-05 -4.52059e-07)
(8.86306e-07 -7.79132e-05 -4.52171e-07)
(2.64877e-06 -7.72e-05 -4.56723e-07)
(4.26855e-06 -7.5815e-05 -4.62434e-07)
(5.64787e-06 -7.383e-05 -4.64966e-07)
(6.69822e-06 -7.13348e-05 -4.60861e-07)
(7.352e-06 -6.84233e-05 -4.48683e-07)
(7.57283e-06 -6.51767e-05 -4.29155e-07)
(7.36135e-06 -6.16455e-05 -4.04324e-07)
(6.75553e-06 -5.78319e-05 -3.77073e-07)
(5.82562e-06 -5.36691e-05 -3.5001e-07)
(4.66587e-06 -4.89904e-05 -3.24503e-07)
(3.38744e-06 -4.34832e-05 -2.99943e-07)
(2.10614e-06 -3.65874e-05 -2.70621e-07)
(9.6628e-07 -2.72375e-05 -2.23795e-07)
(1.17588e-07 -1.3001e-05 -1.17126e-07)
(-1.70883e-07 -1.16816e-05 -1.70712e-07)
(-1.3973e-06 -2.45749e-05 -3.25056e-07)
(-3.05869e-06 -3.31267e-05 -3.953e-07)
(-4.95876e-06 -3.95127e-05 -4.45851e-07)
(-6.9033e-06 -4.46949e-05 -4.97379e-07)
(-8.72983e-06 -4.91846e-05 -5.60205e-07)
(-1.0272e-05 -5.32679e-05 -6.36884e-07)
(-1.13756e-05 -5.70936e-05 -7.26763e-07)
(-1.19084e-05 -6.07131e-05 -8.26512e-07)
(-1.17751e-05 -6.41059e-05 -9.30712e-07)
(-1.09292e-05 -6.71995e-05 -1.03255e-06)
(-9.38258e-06 -6.98875e-05 -1.12464e-06)
(-7.20966e-06 -7.20487e-05 -1.20017e-06)
(-4.54295e-06 -7.35671e-05 -1.25344e-06)
(-1.56086e-06 -7.4351e-05 -1.28076e-06)
(1.52972e-06 -7.43488e-05 -1.28086e-06)
(4.51264e-06 -7.35608e-05 -1.2537e-06)
(7.18094e-06 -7.20386e-05 -1.20051e-06)
(9.35598e-06 -6.98741e-05 -1.12501e-06)
(1.09051e-05 -6.71836e-05 -1.03294e-06)
(1.17538e-05 -6.4088e-05 -9.31045e-07)
(1.18902e-05 -6.06939e-05 -8.268e-07)
(1.13604e-05 -5.7074e-05 -7.27022e-07)
(1.02599e-05 -5.32482e-05 -6.3708e-07)
(8.72076e-06 -4.91658e-05 -5.60343e-07)
(6.89704e-06 -4.46775e-05 -4.97464e-07)
(4.95499e-06 -3.94974e-05 -4.45808e-07)
(3.05699e-06 -3.31142e-05 -3.95211e-07)
(1.39688e-06 -2.45658e-05 -3.24896e-07)
(1.70966e-07 -1.16776e-05 -1.70525e-07)
(-2.15663e-07 -9.90389e-06 -2.15517e-07)
(-1.75791e-06 -2.09849e-05 -4.09821e-07)
(-3.86234e-06 -2.84274e-05 -5.00138e-07)
(-6.30078e-06 -3.40463e-05 -5.69953e-07)
(-8.84014e-06 -3.86608e-05 -6.47297e-07)
(-1.12768e-05 -4.27157e-05 -7.46821e-07)
(-1.33932e-05 -4.64642e-05 -8.73406e-07)
(-1.4977e-05 -5.00365e-05 -1.02733e-06)
(-1.58348e-05 -5.3472e-05 -1.2045e-06)
(-1.58125e-05 -5.67405e-05 -1.39692e-06)
(-1.48156e-05 -5.97589e-05 -1.59302e-06)
(-1.28283e-05 -6.24094e-05 -1.77824e-06)
(-9.92757e-06 -6.45581e-05 -1.93658e-06)
(-6.28566e-06 -6.6077e-05 -2.05258e-06)
(-2.1598e-06 -6.68637e-05 -2.11398e-06)
(2.1342e-06 -6.68615e-05 -2.11401e-06)
(6.26049e-06 -6.60707e-05 -2.05269e-06)
(9.90335e-06 -6.45483e-05 -1.93672e-06)
(1.28054e-05 -6.23963e-05 -1.77838e-06)
(1.47943e-05 -5.97435e-05 -1.59314e-06)
(1.57932e-05 -5.67235e-05 -1.39702e-06)
(1.58178e-05 -5.34542e-05 -1.20461e-06)
(1.49625e-05 -5.00184e-05 -1.02741e-06)
(1.33815e-05 -4.64467e-05 -8.73449e-07)
(1.12679e-05 -4.26991e-05 -7.46833e-07)
(8.8339e-06 -3.86456e-05 -6.4733e-07)
(6.29697e-06 -3.4033e-05 -5.69898e-07)
(3.86052e-06 -2.84166e-05 -5.00024e-07)
(1.7574e-06 -2.09772e-05 -4.0964e-07)
(2.15724e-07 -9.90049e-06 -2.15329e-07)
(-2.43997e-07 -7.78181e-06 -2.43865e-07)
(-1.99146e-06 -1.66928e-05 -4.63124e-07)
(-4.40166e-06 -2.27754e-05 -5.65883e-07)
(-7.23493e-06 -2.74062e-05 -6.48685e-07)
(-1.02347e-05 -3.12331e-05 -7.45606e-07)
(-1.31644e-05 -3.46219e-05 -8.75119e-07)
(-1.57625e-05 -3.77877e-05 -1.04449e-06)
(-1.77651e-05 -4.08419e-05 -1.25498e-06)
(-1.89247e-05 -4.38168e-05 -1.50208e-06)
(-1.90331e-05 -4.66808e-05 -1.77554e-06)
(-1.79502e-05 -4.93531e-05 -2.05936e-06)
(-1.56321e-05 -5.17199e-05 -2.33215e-06)
(-1.21538e-05 -5.3652e-05 -2.56914e-06)
(-7.71951e-06 -5.50242e-05 -2.74508e-06)
(-2.6534e-06 -5.57372e-05 -2.83906e-06)
(2.63379e-06 -5.57352e-05 -2.83901e-06)
(7.6999e-06 -5.50183e-05 -2.74498e-06)
(1.21344e-05 -5.36428e-05 -2.56903e-06)