/*--------------------------------*- C++ -*----------------------------------*\
| =========                 |                                                 |
| \\      /  F ield         | OpenFOAM: The Open Source CFD Toolbox           |
|  \\    /   O peration     | Version:  v1906                                 |
|   \\  /    A nd           | Web:      www.OpenFOAM.com                      |
|    \\/     M anipulation  |                                                 |
\*---------------------------------------------------------------------------*/
FoamFile
{
    version     2.0;
    format      ascii;
    class       surfaceScalarField;
    location    "93";
    object      phi;
}
// * * * * * * * * * * * * * * * * * * * * * * * * * * * * * * * * * * * * * //

dimensions      [1 0 -1 0 0 0 0];
oriented        oriented;


internalField   nonuniform List<scalar> 
228225
(
-6.79238e-10
-7.0536e-10
1.12398e-09
-1.30551e-09
1.82144e-09
-1.1955e-09
-3.43398e-09
3.72066e-09
-1.59527e-09
-7.33199e-09
5.51183e-09
-1.61255e-09
-1.28725e-08
7.16912e-09
-1.62702e-09
-1.97729e-08
8.63101e-09
-1.72885e-09
-2.77305e-08
9.87907e-09
-1.92317e-09
-3.64212e-08
1.08916e-08
-2.20239e-09
-4.55541e-08
1.16772e-08
-2.54305e-09
-5.48511e-08
1.22321e-08
-2.93591e-09
-6.40633e-08
1.25749e-08
-3.35999e-09
-7.2967e-08
1.27091e-08
-3.80767e-09
-8.13591e-08
1.26581e-08
-4.26326e-09
-8.90662e-08
1.2426e-08
-4.72235e-09
-9.59298e-08
1.20377e-08
-5.17235e-09
-1.01818e-07
1.14999e-08
-5.61081e-09
-1.06628e-07
1.08357e-08
-6.02714e-09
-1.10258e-07
1.00519e-08
-6.42074e-09
-1.12647e-07
9.16991e-09
-6.77961e-09
-1.13738e-07
8.1964e-09
-7.10542e-09
-1.13499e-07
7.15153e-09
-7.39048e-09
-1.11907e-07
6.04175e-09
-7.63443e-09
-1.08961e-07
4.88619e-09
-7.83115e-09
-1.04673e-07
3.69246e-09
-7.98231e-09
-9.90675e-08
2.48012e-09
-8.08426e-09
-9.21826e-08
1.25827e-09
-8.14114e-09
-8.40929e-08
6.0863e-11
-8.15307e-09
-7.48331e-08
-1.12952e-09
-8.12803e-09
-6.45171e-08
-2.2486e-09
-8.06966e-09
-5.32516e-08
-3.27766e-09
-7.98641e-09
-4.12123e-08
-4.16981e-09
-7.87209e-09
-2.86566e-08
-4.8663e-09
-7.6888e-09
-1.61297e-08
-5.25204e-09
-7.27067e-09
-4.9432e-09
-5.16223e-09
-6.02901e-09
-3.62945e-09
-1.31175e-09
-1.90654e-09
1.23108e-08
-1.11108e-08
-9.63428e-09
2.22122e-08
-1.26615e-08
-1.95005e-08
2.69965e-08
-1.34098e-08
-3.05226e-08
3.0647e-08
-1.41125e-08
-4.19731e-08
3.33286e-08
-1.47101e-08
-5.33438e-08
3.52166e-08
-1.5215e-08
-6.42496e-08
3.64498e-08
-1.56635e-08
-7.4432e-08
3.71433e-08
-1.60703e-08
-8.3692e-08
3.7384e-08
-1.64471e-08
-9.19092e-08
3.72436e-08
-1.67949e-08
-9.89911e-08
3.67779e-08
-1.71192e-08
-1.049e-07
3.60343e-08
-1.74178e-08
-1.09599e-07
3.50523e-08
-1.76938e-08
-1.13095e-07
3.38645e-08
-1.7944e-08
-1.15389e-07
3.25015e-08
-1.81708e-08
-1.16508e-07
3.09908e-08
-1.83701e-08
-1.16487e-07
2.93589e-08
-1.8544e-08
-1.15376e-07
2.76298e-08
-1.86889e-08
-1.13225e-07
2.58247e-08
-1.88065e-08
-1.101e-07
2.3965e-08
-1.88931e-08
-1.06068e-07
2.20696e-08
-1.89505e-08
-1.01207e-07
2.01575e-08
-1.89754e-08
-9.55995e-08
1.82459e-08
-1.8969e-08
-8.93291e-08
1.635e-08
-1.89276e-08
-8.24783e-08
1.44824e-08
-1.88517e-08
-7.51412e-08
1.26568e-08
-1.87362e-08
-6.73877e-08
1.08854e-08
-1.8579e-08
-5.93243e-08
9.17853e-09
-1.83712e-08
-5.10129e-08
7.54482e-09
-1.81048e-08
-4.2522e-08
5.99131e-09
-1.776e-08
-3.3901e-08
4.52415e-09
-1.73161e-08
-2.51865e-08
3.15485e-09
-1.67351e-08
-1.64312e-08
1.90758e-09
-1.59142e-08
-7.89801e-09
8.84796e-10
-1.4582e-08
1.00823e-10
-1.16273e-08
-3.75836e-10
2.19361e-08
-9.24977e-09
-3.79804e-09
3.66574e-08
-1.1023e-08
-8.2364e-09
4.32069e-08
-1.17712e-08
-1.31735e-08
4.79106e-08
-1.23267e-08
-1.82624e-08
5.1181e-08
-1.27646e-08
-2.32558e-08
5.3346e-08
-1.3135e-08
-2.79896e-08
5.46418e-08
-1.34596e-08
-3.23374e-08
5.52508e-08
-1.37593e-08
-3.62234e-08
5.5308e-08
-1.4039e-08
-3.95898e-08
5.49193e-08
-1.43079e-08
-4.24137e-08
5.41651e-08
-1.45642e-08
-4.46765e-08
5.31104e-08
-1.48125e-08
-4.63847e-08
5.18069e-08
-1.50483e-08
-4.75423e-08
5.02981e-08
-1.52742e-08
-4.81774e-08
4.86204e-08
-1.54853e-08
-4.8308e-08
4.68058e-08
-1.56836e-08
-4.79709e-08
4.48848e-08
-1.58632e-08
-4.7198e-08
4.28828e-08
-1.60258e-08
-4.60284e-08
4.08227e-08
-1.61668e-08
-4.45037e-08
3.87258e-08
-1.62875e-08
-4.26608e-08
3.66115e-08
-1.63837e-08
-4.05438e-08
3.44966e-08
-1.64567e-08
-3.81934e-08
3.23987e-08
-1.65022e-08
-3.56549e-08
3.03315e-08
-1.65214e-08
-3.2967e-08
2.83056e-08
-1.65101e-08
-3.01684e-08
2.63248e-08
-1.64676e-08
-2.7287e-08
2.43911e-08
-1.63877e-08
-2.43422e-08
2.25001e-08
-1.62663e-08
-2.13442e-08
2.06409e-08
-1.60921e-08
-1.82949e-08
1.87935e-08
-1.5853e-08
-1.51716e-08
1.6925e-08
-1.55255e-08
-1.19305e-08
1.49883e-08
-1.5073e-08
-8.52297e-09
1.29108e-08
-1.44115e-08
-4.85977e-09
1.05895e-08
-1.33657e-08
6.16872e-09
-1.09289e-08
8.8648e-11
2.66611e-08
-4.81317e-09
-3.85738e-10
4.35558e-08
-6.42464e-09
-1.08969e-09
5.11348e-08
-7.22497e-09
-2.03298e-09
5.66124e-08
-7.75734e-09
-3.17341e-09
6.04784e-08
-8.15905e-09
-4.42346e-09
6.31008e-08
-8.5028e-09
-5.7108e-09
6.47523e-08
-8.82324e-09
-6.97311e-09
6.56412e-08
-9.12887e-09
-8.15909e-09
6.59258e-08
-9.43148e-09
-9.23712e-09
6.57272e-08
-9.73125e-09
-1.01768e-08
6.51404e-08
-1.00341e-08
-1.0969e-08
6.42387e-08
-1.03358e-08
-1.16063e-08
6.30825e-08
-1.06391e-08
-1.20881e-08
6.17195e-08
-1.09382e-08
-1.24256e-08
6.01905e-08
-1.12346e-08
-1.26263e-08
5.85291e-08
-1.15219e-08
-1.27056e-08
5.67652e-08
-1.18009e-08
-1.26806e-08
5.49235e-08
-1.20654e-08
-1.25699e-08
5.30266e-08
-1.23161e-08
-1.23899e-08
5.10931e-08
-1.25471e-08
-1.21592e-08
4.91399e-08
-1.27588e-08
-1.18979e-08
4.71807e-08
-1.2946e-08
-1.16188e-08
4.52286e-08
-1.31086e-08
-1.13393e-08
4.32924e-08
-1.32409e-08
-1.1068e-08
4.13761e-08
-1.33421e-08
-1.08052e-08
3.9471e-08
-1.3408e-08
-1.05428e-08
3.75649e-08
-1.3437e-08
-1.02554e-08
3.56352e-08
-1.34223e-08
-9.90169e-09
3.36462e-08
-1.3359e-08
-9.41972e-09
3.15454e-08
-1.32348e-08
-8.71418e-09
2.92558e-08
-1.30358e-08
-7.65643e-09
2.66718e-08
-1.27406e-08
-6.05888e-09
2.36398e-08
-1.23276e-08
-3.7312e-09
1.9965e-08
-1.17034e-08
1.24183e-08
-9.98039e-09
-7.19583e-10
2.89274e-08
-1.54546e-09
-4.71844e-10
4.61116e-08
-2.80525e-09
2.52408e-10
5.39264e-08
-3.51602e-09
1.16005e-09
5.96806e-08
-3.97543e-09
2.10947e-09
6.38424e-08
-4.31312e-09
3.04823e-09
6.67766e-08
-4.61425e-09
3.94724e-09
6.8754e-08
-4.90203e-09
4.79449e-09
6.99836e-08
-5.18947e-09
5.57708e-09
7.06214e-08
-5.47764e-09
6.28741e-09
7.07901e-08
-5.77362e-09
6.92045e-09
7.05823e-08
-6.07458e-09
7.46956e-09
7.00727e-08
-6.38384e-09
7.92983e-09
6.93184e-08
-6.69614e-09
8.29435e-09
6.83677e-08
-7.01291e-09
8.55485e-09
6.72578e-08
-7.32804e-09
8.70524e-09
6.60215e-08
-7.64212e-09
8.73352e-09
6.46845e-08
-7.94888e-09
8.63582e-09
6.327e-08
-8.24853e-09
8.4016e-09
6.17961e-08
-8.53498e-09
8.02352e-09
6.02786e-08
-8.80829e-09
7.49805e-09
5.87289e-08
-9.06277e-09
6.82006e-09
5.71571e-08
-9.29825e-09
5.98875e-09
5.55678e-08
-9.50925e-09
5.01642e-09
5.39607e-08
-9.69568e-09
3.91653e-09
5.23284e-08
-9.85258e-09
2.71185e-09
5.06561e-08
-9.97966e-09
1.42907e-09
4.89177e-08
-1.00718e-08
1.18363e-10
4.70742e-08
-1.01278e-08
-1.16075e-09
4.50669e-08
-1.01411e-08
-2.32302e-09
4.28138e-08
-1.01064e-08
-3.25365e-09
4.01986e-08
-1.00115e-08
-3.79585e-09
3.70639e-08
-9.85107e-09
-3.71129e-09
3.31893e-08
-9.63355e-09
-2.7137e-09
2.8284e-08
-9.31799e-09
1.78706e-08
-8.16492e-09
-8.97553e-10
2.95169e-08
3.08286e-10
-5.85742e-10
4.64131e-08
-6.13542e-10
3.65796e-10
5.41699e-08
-1.19535e-09
1.64587e-09
5.99645e-08
-1.56349e-09
3.07367e-09
6.4254e-08
-1.83946e-09
4.55709e-09
6.73837e-08
-2.09049e-09
6.03535e-09
6.9617e-08
-2.34185e-09
7.46553e-09
7.115e-08
-2.59571e-09
8.8102e-09
7.21343e-08
-2.85835e-09
1.00438e-08
7.26834e-08
-3.1278e-09
1.1149e-08
7.28866e-08
-3.40774e-09
1.21033e-08
7.28111e-08
-3.69417e-09
1.28992e-08
7.25118e-08
-3.98869e-09
1.35229e-08
7.20299e-08
-4.2861e-09
1.3967e-08
7.14008e-08
-4.58697e-09
1.42221e-08
7.06509e-08
-4.8857e-09
1.42853e-08
6.98036e-08
-5.1824e-09
1.4151e-08
6.88761e-08
-5.47147e-09
1.38172e-08
6.78833e-08
-5.75285e-09
1.32801e-08
6.68352e-08
-6.02118e-09
1.25468e-08
6.57396e-08
-6.27632e-09
1.16183e-08
6.45986e-08
-6.51333e-09
1.05075e-08
6.34109e-08
-6.7321e-09
9.22831e-09
6.21682e-08
-6.92811e-09
7.8029e-09
6.08558e-08
-7.10122e-09
6.25588e-09
5.94488e-08
-7.24717e-09
4.62859e-09
5.791e-08
-7.36571e-09
2.97088e-09
5.61851e-08
-7.45261e-09
1.34733e-09
5.41973e-08
-7.50672e-09
-1.58639e-10
5.18404e-08
-7.52147e-09
-1.43585e-09
4.89678e-08
-7.49143e-09
-2.34059e-09
4.53821e-08
-7.41429e-09
-2.64632e-09
4.08111e-08
-7.31547e-09
-2.08804e-09
3.49015e-08
-7.1742e-09
2.21833e-08
-6.40299e-09
-7.72555e-10
2.9241e-08
1.04803e-09
-4.76956e-10
4.57746e-08
3.42635e-10
3.94232e-10
5.34164e-08
-1.15438e-10
1.56554e-09
5.9192e-08
-4.00459e-10
2.8907e-09
6.35426e-08
-6.13878e-10
4.28709e-09
6.68032e-08
-8.13855e-10
5.69256e-09
6.9225e-08
-1.01398e-09
7.06253e-09
7.09982e-08
-1.22022e-09
8.36648e-09
7.22648e-08
-1.43134e-09
9.56534e-09
7.31341e-08
-1.65224e-09
1.0646e-08
7.36877e-08
-1.88007e-09
1.15843e-08
7.39897e-08
-2.11641e-09
1.23646e-08
7.40877e-08
-2.35728e-09
1.29775e-08
7.40205e-08
-2.60341e-09
1.34136e-08
7.38166e-08
-2.85036e-09
1.36625e-08
7.35e-08
-3.09838e-09
1.37221e-08
7.30878e-08
-3.34285e-09
1.35864e-08
7.25942e-08
-3.58387e-09
1.32604e-08
7.20285e-08
-3.81689e-09
1.27391e-08
7.1397e-08
-4.04197e-09
1.20324e-08
7.07016e-08
-4.25483e-09
1.11469e-08
6.99404e-08
-4.45553e-09
1.00918e-08
6.91054e-08
-4.64014e-09
8.88607e-09
6.81832e-08
-4.8088e-09
7.54732e-09
6.71512e-08
-4.9579e-09
6.10857e-09
6.59767e-08
-5.08766e-09
4.60035e-09
6.46121e-08
-5.19471e-09
3.07441e-09
6.29918e-08
-5.27926e-09
1.58443e-09
6.10242e-08
-5.33768e-09
2.07967e-10
5.85856e-08
-5.36835e-09
-9.66502e-10
5.55061e-08
-5.36485e-09
-1.81243e-09
5.15588e-08
-5.33066e-09
-2.14246e-09
4.64329e-08
-5.28983e-09
-1.72768e-09
3.97204e-08
-5.23431e-09
2.51648e-08
-4.70943e-09
-4.99548e-10
2.85839e-08
1.15853e-09
-3.22865e-10
4.49471e-08
6.49109e-10
2.42548e-10
5.25379e-08
3.11577e-10
1.01818e-09
5.83136e-08
1.03194e-10
1.90116e-09
6.27147e-08
-5.4437e-11
2.83429e-09
6.60698e-08
-2.00179e-10
3.78208e-09
6.86272e-08
-3.49306e-10
4.70983e-09
7.05705e-08
-5.02243e-10
5.59849e-09
7.20398e-08
-6.61612e-10
6.41956e-09
7.31379e-08
-8.25249e-10
7.15824e-09
7.39446e-08
-9.95924e-10
7.8003e-09
7.4519e-08
-1.17074e-09
8.33037e-09
7.49068e-08
-1.35054e-09
8.74252e-09
7.51414e-08
-1.53205e-09
9.02468e-09
7.52494e-08
-1.71577e-09
9.17365e-09
7.52496e-08
-1.89818e-09
9.18302e-09
7.5157e-08
-2.07967e-09
9.05332e-09
7.49809e-08
-2.25667e-09
8.78331e-09
7.4728e-08
-2.42951e-09
8.37538e-09
7.44e-08
-2.59476e-09
7.83424e-09
7.39956e-08
-2.75277e-09
7.16666e-09
7.35079e-08
-2.90034e-09
6.3838e-09
7.29258e-08
-3.03788e-09
5.4999e-09
7.22301e-08
-3.16244e-09
4.53159e-09
7.13938e-08
-3.27454e-09
3.50259e-09
7.03776e-08
-3.37145e-09
2.43918e-09
6.91278e-08
-3.45375e-09
1.37982e-09
6.75701e-08
-3.51891e-09
3.67604e-10
6.56035e-08
-3.56725e-09
-5.42683e-10
6.30915e-08
-3.59515e-09
-1.28509e-09
5.98492e-08
-3.60089e-09
-1.77121e-09
5.56295e-08
-3.58523e-09
-1.86248e-09
5.00957e-08
-3.57044e-09
-1.40148e-09
4.28049e-08
-3.54663e-09
2.69495e-08
-3.18573e-09
-3.93168e-10
2.78147e-08
1.16221e-09
-4.09567e-10
4.41215e-08
8.42258e-10
-1.96474e-10
5.16969e-08
6.28252e-10
1.37752e-10
5.7481e-08
4.97771e-10
5.39661e-10
6.19146e-08
3.97488e-10
9.83617e-10
6.53278e-08
2.99781e-10
1.44547e-09
6.79651e-08
1.99813e-10
1.91096e-09
7.00106e-08
9.43529e-11
2.36261e-09
7.16004e-08
-1.24924e-11
2.788e-09
7.28376e-08
-1.24104e-10
3.17093e-09
7.37977e-08
-2.36666e-10
3.50468e-09
7.4539e-08
-3.54438e-10
3.78312e-09
7.51034e-08
-4.74223e-10
3.99766e-09
7.55238e-08
-5.96571e-10
4.14362e-09
7.58237e-08
-7.18526e-10
4.21111e-09
7.60206e-08
-8.40664e-10
4.20257e-09
7.61256e-08
-9.60343e-10
4.11652e-09
7.61468e-08
-1.07818e-09
3.94817e-09
7.60869e-08
-1.19155e-09
3.70414e-09
7.59462e-08
-1.30112e-09
3.3842e-09
7.57196e-08
-1.40438e-09
2.99568e-09
7.53986e-08
-1.50205e-09
2.54579e-09
7.4968e-08
-1.59177e-09
2.04256e-09
7.44067e-08
-1.67437e-09
1.50087e-09
7.36835e-08
-1.74765e-09
9.33628e-10
7.27563e-08
-1.81252e-09
3.62845e-10
7.15667e-08
-1.86699e-09
-1.9106e-10
7.00364e-08
-1.91204e-09
-7.00762e-10
6.80582e-08
-1.9457e-09
-1.13001e-09
6.54899e-08
-1.96829e-09
-1.44229e-09
6.21374e-08
-1.97674e-09
-1.58279e-09
5.77439e-08
-1.97473e-09
-1.46781e-09
5.1959e-08
-1.97605e-09
-1.00941e-09
4.43194e-08
-1.97385e-09
2.76949e-08
-1.75465e-09
-4.83966e-10
2.70376e-08
1.26385e-09
-7.49615e-10
4.32479e-08
1.13634e-09
-8.7327e-10
5.07822e-08
1.03783e-09
-9.15456e-10
5.65429e-08
9.81315e-10
-9.04864e-10
6.09709e-08
9.32267e-10
-8.51647e-10
6.43943e-08
8.80909e-10
-7.67701e-10
6.70573e-08
8.23817e-10
-6.61301e-10
6.91413e-08
7.63273e-10
-5.41581e-10
7.07824e-08
6.98448e-10
-4.17033e-10
7.20813e-08
6.31262e-10
-2.93191e-10
7.31138e-08
5.6061e-10
-1.77912e-10
7.39348e-08
4.89092e-10
-7.73612e-11
7.45865e-08
4.15843e-10
4.86123e-12
7.50988e-08
3.431e-10
6.62897e-11
7.54945e-08
2.69168e-10
1.01749e-10
7.57886e-08
1.96214e-10
1.10886e-10
7.59921e-08
1.23299e-10
9.42954e-11
7.61104e-08
5.26988e-11
5.14326e-11
7.6146e-08
-1.55739e-11
-1.86884e-11
7.60965e-08
-8.0317e-11
-1.12753e-10
7.59564e-08
-1.41625e-10
-2.30793e-10
7.57146e-08
-1.98743e-10
-3.64943e-10
7.53555e-08
-2.52624e-10
-5.12454e-10
7.48555e-08
-3.01377e-10
-6.65631e-10
7.4183e-08
-3.46109e-10
-8.17357e-10
7.32935e-08
-3.85219e-10
-9.58856e-10
7.2128e-08
-4.19994e-10
-1.07899e-09
7.06059e-08
-4.49097e-10
-1.16608e-09
6.86196e-08
-4.7398e-10
-1.20691e-09
6.60244e-08
-4.93258e-10
-1.18836e-09
6.26256e-08
-5.08176e-10
-1.08622e-09
5.81639e-08
-5.20134e-10
-8.74626e-10
5.2288e-08
-5.41927e-10
-5.18513e-10
4.45308e-08
-5.6616e-10
2.76673e-08
-4.91305e-10
-6.61888e-10
2.6259e-08
1.43841e-09
-1.13357e-09
4.2243e-08
1.47911e-09
-1.50193e-09
4.9672e-08
1.47796e-09
-1.79618e-09
5.5356e-08
1.48094e-09
-2.02961e-09
5.97291e-08
1.47537e-09
-2.21111e-09
6.3116e-08
1.45969e-09
-2.3473e-09
6.57561e-08
1.43719e-09
-2.44555e-09
6.78299e-08
1.40853e-09
-2.50969e-09
6.94699e-08
1.37655e-09
-2.54457e-09
7.07763e-08
1.34087e-09
-2.55673e-09
7.18223e-08
1.30361e-09
-2.55033e-09
7.26632e-08
1.26406e-09
-2.52559e-09
7.33389e-08
1.22408e-09
-2.4898e-09
7.38797e-08
1.18268e-09
-2.44239e-09
7.43054e-08
1.14217e-09
-2.38767e-09
7.46314e-08
1.1015e-09
-2.32502e-09
7.48668e-08
1.06233e-09
-2.25455e-09
7.50174e-08
1.02364e-09
-2.17956e-09
7.50837e-08
9.87032e-10
-2.09905e-09
7.5064e-08
9.51428e-10
-2.01199e-09
7.49509e-08
9.18346e-10
-1.91965e-09
7.4734e-08
8.8662e-10
-1.81587e-09
7.43961e-08
8.57666e-10
-1.70565e-09
7.39144e-08
8.30199e-10
-1.58603e-09
7.3256e-08
8.05495e-10
-1.45178e-09
7.23778e-08
7.82127e-10
-1.30481e-09
7.12204e-08
7.61119e-10
-1.1447e-09
6.97051e-08
7.40727e-10
-9.72091e-10
6.7725e-08
7.2156e-10
-7.88573e-10
6.51388e-08
7.01441e-10
-5.96711e-10
6.17549e-08
6.80348e-10
-4.07465e-10
5.73193e-08
6.53341e-10
-2.17651e-10
5.14877e-08
6.11734e-10
-4.6291e-11
4.38024e-08
5.55905e-10
2.71212e-08
5.00428e-10
-7.73139e-10
2.55181e-08
1.51422e-09
-1.35818e-09
4.11601e-08
1.66872e-09
-1.84732e-09
4.84312e-08
1.72942e-09
-2.26016e-09
5.3996e-08
1.77155e-09
-2.60258e-09
5.82795e-08
1.79286e-09
-2.88604e-09
6.15974e-08
1.80125e-09
-3.11403e-09
6.41853e-08
1.7998e-09
-3.29461e-09
6.62181e-08
1.79247e-09
-3.43164e-09
6.7827e-08
1.7801e-09
-3.52947e-09
6.91086e-08
1.76518e-09
-3.59074e-09
7.01357e-08
1.74754e-09
-3.61767e-09
7.09611e-08
1.72907e-09
-3.61238e-09
7.16249e-08
1.70916e-09
-3.57646e-09
7.21552e-08
1.68942e-09
-3.51414e-09
7.25732e-08
1.66907e-09
-3.42395e-09
7.28926e-08
1.64956e-09
-3.31036e-09
7.3123e-08
1.62997e-09
-3.17389e-09
7.32686e-08
1.61165e-09
-3.01377e-09
7.3331e-08
1.59358e-09
-2.83393e-09
7.33068e-08
1.57701e-09
-2.63404e-09
7.31899e-08
1.56081e-09
-2.41439e-09
7.29687e-08
1.54613e-09
-2.17665e-09
7.26273e-08
1.53172e-09
-1.92393e-09
7.21422e-08
1.51862e-09
-1.65549e-09
7.14824e-08
1.50543e-09
-1.37542e-09
7.06049e-08
1.49297e-09
-1.08699e-09
6.94529e-08
1.47958e-09
-7.97143e-10
6.79491e-08
1.46567e-09
-5.12521e-10
6.59913e-08
1.44901e-09
-2.4294e-10
6.34415e-08
1.42919e-09
-7.886e-12
6.01159e-08
1.40284e-09
1.77664e-10
5.57677e-08
1.36676e-09
2.88955e-10
5.00664e-08
1.31037e-09
2.9079e-10
4.25692e-08
1.23228e-09
2.63263e-08
1.08465e-09
-7.20422e-10
2.48745e-08
1.3641e-09
-1.28105e-09
4.01666e-08
1.55506e-09
-1.76426e-09
4.72752e-08
1.63847e-09
-2.17744e-09
5.27169e-08
1.69265e-09
-2.52675e-09
5.6905e-08
1.724e-09
-2.81835e-09
6.01482e-08
1.74077e-09
-3.05814e-09
6.26758e-08
1.74883e-09
-3.24805e-09
6.46595e-08
1.7501e-09
-3.39614e-09
6.62266e-08
1.74759e-09
-3.50082e-09
6.74726e-08
1.74172e-09
-3.5678e-09
6.84675e-08
1.73449e-09
-3.5967e-09
6.92646e-08
1.72564e-09
-3.59037e-09
6.99016e-08
1.71669e-09
-3.54961e-09
7.04076e-08
1.70705e-09
-3.4743e-09
7.0802e-08
1.69804e-09
-3.37267e-09
7.10996e-08
1.68889e-09
-3.23865e-09
7.13086e-08
1.68078e-09
-3.07752e-09
7.14346e-08
1.67282e-09
-2.89087e-09
7.14776e-08
1.66608e-09
-2.67801e-09
7.14358e-08
1.65955e-09
-2.44516e-09
7.13019e-08
1.6542e-09
-2.19047e-09
7.10659e-08
1.6489e-09
-1.91928e-09
7.0711e-08
1.64451e-09
-1.63275e-09
7.02159e-08
1.63979e-09
-1.33389e-09
6.9549e-08
1.63541e-09
-1.03052e-09
6.86702e-08
1.62994e-09
-7.24347e-10
6.75232e-08
1.62378e-09
-4.24294e-10
6.60347e-08
1.61511e-09
-1.40336e-10
6.41048e-08
1.60369e-09
1.11106e-10
6.16016e-08
1.58684e-09
3.16934e-10
5.83469e-08
1.56304e-09
4.52836e-10
5.41039e-08
1.52705e-09
4.9518e-10
4.85538e-08
1.47148e-09
4.04037e-10
4.12707e-08
1.39063e-09
2.55144e-08
1.21533e-09
-5.11191e-10
2.44281e-08
9.57623e-10
-9.37828e-10
3.94806e-08
1.11294e-09
-1.32307e-09
4.64783e-08
1.18171e-09
-1.66601e-09
5.1834e-08
1.22551e-09
-1.96562e-09
5.59547e-08
1.24961e-09
-2.22147e-09
5.91426e-08
1.26292e-09
-2.44053e-09
6.16242e-08
1.26868e-09
-2.61839e-09
6.35678e-08
1.27e-09
-2.75879e-09
6.50995e-08
1.26773e-09
-2.86249e-09
6.63126e-08
1.26383e-09
-2.93095e-09
6.72773e-08
1.25837e-09
-2.96422e-09
6.8045e-08
1.25277e-09
-2.96513e-09
6.86546e-08
1.24669e-09
-2.93149e-09
6.91334e-08
1.24131e-09
-2.86785e-09
6.95023e-08
1.23609e-09
-2.77456e-09
6.97746e-08
1.23204e-09
-2.65563e-09
6.996e-08
1.22849e-09
-2.50926e-09
7.00628e-08
1.22634e-09
-2.34194e-09
7.00846e-08
1.22479e-09
-2.15297e-09
7.00222e-08
1.22463e-09
-1.94547e-09
6.98702e-08
1.22497e-09
-1.72471e-09
6.96172e-08
1.22646e-09
-1.48923e-09
6.92485e-08
1.2281e-09
-1.24671e-09
6.87417e-08
1.23043e-09
-9.95354e-10
6.80676e-08
1.23231e-09
-7.46879e-10
6.71855e-08
1.23411e-09
-4.99841e-10
6.60421e-08
1.23448e-09
-2.63888e-10
6.45646e-08
1.23347e-09
-4.37859e-11
6.26571e-08
1.22925e-09
1.45543e-10
6.019e-08
1.22118e-09
2.95374e-10
5.69911e-08
1.20644e-09
3.86115e-10
5.28289e-08
1.18254e-09
4.03872e-10
4.73949e-08
1.14266e-09
3.17242e-10
4.02741e-08
1.0838e-09
2.48861e-08
9.44788e-10
-2.09905e-10
2.42496e-08
3.86861e-10
-4.41629e-10
3.92568e-08
4.56587e-10
-6.81313e-10
4.62316e-08
4.87954e-10
-9.22867e-10
5.15673e-08
5.05322e-10
-1.14783e-09
5.56688e-08
5.12201e-10
-1.35667e-09
5.88383e-08
5.12776e-10
-1.54202e-09
6.13008e-08
5.09915e-10
-1.70438e-09
6.32253e-08
5.04307e-10
-1.83964e-09
6.47368e-08
4.97513e-10
-1.94616e-09
6.59296e-08
4.89673e-10
-2.02357e-09
6.6873e-08
4.82017e-10
-2.07247e-09
6.76196e-08
4.74402e-10
-2.09333e-09
6.82072e-08
4.67936e-10
-2.08691e-09
6.86644e-08
4.62373e-10
-2.05255e-09
6.90114e-08
4.58125e-10
-1.99656e-09
6.92628e-08
4.54808e-10
-1.91615e-09
6.94273e-08
4.53273e-10
-1.81722e-09
6.95106e-08
4.5296e-10
-1.70087e-09
6.95135e-08
4.5453e-10
-1.56956e-09
6.9434e-08
4.57317e-10
-1.4274e-09
6.92657e-08
4.61851e-10
-1.2756e-09
6.89986e-08
4.67354e-10
-1.11986e-09
6.8617e-08
4.74257e-10
-9.5862e-10
6.80999e-08
4.81674e-10
-7.96819e-10
6.74172e-08
4.89928e-10
-6.41003e-10
6.65297e-08
4.9803e-10
-4.88268e-10
6.53835e-08
5.06177e-10
-3.44266e-10
6.39077e-08
5.13232e-10
-2.12618e-10
6.20062e-08
5.19163e-10
-9.67082e-11
5.95518e-08
5.22522e-10
-1.66715e-12
5.63733e-08
5.22791e-10
6.73132e-11
5.22427e-08
5.17757e-10
1.02799e-10
4.68537e-08
5.05377e-10
9.4235e-11
3.97967e-08
4.8453e-10
2.45539e-08
4.27754e-10
8.37139e-11
2.43668e-08
-2.02118e-10
3.88912e-11
3.9532e-08
-2.30032e-10
-6.36843e-11
4.6578e-08
-2.42734e-10
-2.05174e-10
5.19635e-08
-2.54755e-10
-3.65714e-10
5.60984e-08
-2.68244e-10
-5.3581e-10
5.92884e-08
-2.81914e-10
-7.00356e-10
6.17622e-08
-2.95944e-10
-8.55224e-10
6.36898e-08
-3.09721e-10
-9.93723e-10
6.51989e-08
-3.23482e-10
-1.11223e-09
6.63845e-08
-3.36503e-10
-1.2073e-09
6.73178e-08
-3.48983e-10
-1.27914e-09
6.80513e-08
-3.60194e-10
-1.32705e-09
6.86248e-08
-3.70381e-10
-1.35035e-09
6.90666e-08
-3.78874e-10
-1.35108e-09
6.93982e-08
-3.8551e-10
-1.33299e-09
6.96337e-08
-3.89736e-10
-1.29624e-09
6.97832e-08
-3.9198e-10
-1.24468e-09
6.98515e-08
-3.91721e-10
-1.1834e-09
6.98406e-08
-3.8944e-10
-1.11251e-09
6.97478e-08
-3.84716e-10
-1.03523e-09
6.95674e-08
-3.78117e-10
-9.57417e-10
6.92888e-08
-3.69346e-10
-8.77106e-10
6.8897e-08
-3.59036e-10
-7.99887e-10
6.83697e-08
-3.46972e-10
-7.26375e-10
6.76779e-08
-3.33871e-10
-6.58456e-10
6.67809e-08
-3.19546e-10
-5.95943e-10
6.56253e-08
-3.04729e-10
-5.37518e-10
6.41388e-08
-2.89209e-10
-4.83238e-10
6.22256e-08
-2.73653e-10
-4.30361e-10
5.97566e-08
-2.57759e-10
-3.753e-10
5.65602e-08
-2.42057e-10
-3.13259e-10
5.24061e-08
-2.2587e-10
-2.38098e-10
4.69867e-08
-2.08752e-10
-1.4199e-10
3.98891e-08
-1.86591e-10
2.45596e-08
-1.48249e-10
2.9611e-10
2.47349e-08
-6.64517e-10
3.92156e-10
4.02117e-08
-7.73932e-10
3.93493e-10
4.73993e-08
-8.23346e-10
3.27981e-10
5.28883e-08
-8.60737e-10
2.22927e-10
5.70967e-08
-8.91308e-10
8.92125e-11
6.03385e-08
-9.17791e-10
-5.41228e-11
6.28466e-08
-9.4122e-10
-1.97594e-10
6.47961e-08
-9.62628e-10
-3.33315e-10
6.63169e-08
-9.82087e-10
-4.56392e-10
6.75072e-08
-1.00002e-09
-5.61502e-10
6.84393e-08
-1.01606e-09
-6.49378e-10
6.91682e-08
-1.03042e-09
-7.14738e-10
6.9734e-08
-1.04261e-09
-7.62517e-10
7.01668e-08
-1.05281e-09
-7.92956e-10
7.0488e-08
-1.06049e-09
-8.06219e-10
7.07131e-08
-1.0658e-09
-8.05643e-10
7.08517e-08
-1.0683e-09
-7.958e-10
7.09098e-08
-1.06824e-09
-7.79845e-10
7.08887e-08
-1.06529e-09
-7.5882e-10
7.07866e-08
-1.0598e-09
-7.35909e-10
7.0597e-08
-1.05154e-09
-7.16836e-10
7.03097e-08
-1.04098e-09
-7.00549e-10
6.99088e-08
-1.02798e-09
-6.90305e-10
6.93724e-08
-1.01307e-09
-6.85747e-10
6.86698e-08
-9.96143e-10
-6.87362e-10
6.77604e-08
-9.77704e-10
-6.94161e-10
6.6589e-08
-9.57579e-10
-7.00609e-10
6.50824e-08
-9.36113e-10
-7.05231e-10
6.3142e-08
-9.12858e-10
-6.97699e-10
6.06371e-08
-8.87717e-10
-6.70171e-10
5.73917e-08
-8.59615e-10
-6.08716e-10
5.3172e-08
-8.27157e-10
-4.97643e-10
4.76629e-08
-7.8635e-10
-3.23367e-10
4.04446e-08
-7.30497e-10
2.48508e-08
-6.14699e-10
3.87072e-10
2.52592e-08
-9.10794e-10
5.46303e-10
4.11132e-08
-1.06234e-09
6.05508e-10
4.84734e-08
-1.13139e-09
5.86854e-10
5.4089e-08
-1.18211e-09
5.13841e-10
5.83895e-08
-1.22202e-09
4.12015e-10
6.16973e-08
-1.25518e-09
2.90419e-10
6.42517e-08
-1.28403e-09
1.63184e-10
6.62324e-08
-1.30956e-09
3.93305e-11
6.77736e-08
-1.3327e-09
-7.49936e-11
6.89755e-08
-1.35352e-09
-1.76891e-10
6.99134e-08
-1.37234e-09
-2.62637e-10
7.06434e-08
-1.38886e-09
-3.33505e-10
7.12073e-08
-1.40317e-09
-3.86426e-10
7.16358e-08
-1.41487e-09
-4.26159e-10
7.19516e-08
-1.424e-09
-4.53441e-10
7.21701e-08
-1.43019e-09
-4.69908e-10
7.23022e-08
-1.43355e-09
-4.79979e-10
7.23535e-08
-1.43378e-09
-4.86221e-10
7.23259e-08
-1.4311e-09
-4.90985e-10
7.22172e-08
-1.42531e-09
-4.99125e-10
7.20213e-08
-1.41673e-09
-5.11922e-10
7.17273e-08
-1.40528e-09
-5.29887e-10
7.13192e-08
-1.39134e-09
-5.5681e-10
7.07742e-08
-1.37489e-09
-5.93061e-10
7.00611e-08
-1.35633e-09
-6.32085e-10
6.91378e-08
-1.33559e-09
-6.80274e-10
6.79479e-08
-1.31298e-09
-7.25364e-10
6.64159e-08
-1.28817e-09
-7.63034e-10
6.44412e-08
-1.26105e-09
-7.84257e-10
6.18889e-08
-1.23072e-09
-7.76238e-10
5.85793e-08
-1.19615e-09
-7.21868e-10
5.42723e-08
-1.15467e-09
-6.02753e-10
4.8645e-08
-1.10137e-09
-3.97267e-10
4.12672e-08
-1.0277e-09
2.53249e-08
-8.71728e-10
3.55099e-10
2.58244e-08
-9.19275e-10
5.05542e-10
4.20292e-08
-1.06809e-09
5.65858e-10
4.95506e-08
-1.13676e-09
5.56324e-10
5.52856e-08
-1.18785e-09
5.0117e-10
5.96733e-08
-1.2278e-09
4.15299e-10
6.30441e-08
-1.26113e-09
3.14539e-10
6.56429e-08
-1.29001e-09
2.08805e-10
6.76544e-08
-1.31577e-09
1.05305e-10
6.92157e-08
-1.339e-09
1.01183e-11
7.04302e-08
-1.36013e-09
-7.15469e-11
7.13749e-08
-1.37912e-09
-1.3903e-10
7.21076e-08
-1.39602e-09
-1.93776e-10
7.26712e-08
-1.41057e-09
-2.30826e-10
7.30976e-08
-1.42269e-09
-2.58928e-10
7.34099e-08
-1.4321e-09
-2.73585e-10
7.36247e-08
-1.43874e-09
-2.80651e-10
7.37524e-08
-1.44239e-09
-2.84697e-10
7.37995e-08
-1.44307e-09
-2.84494e-10
7.37677e-08
-1.44066e-09
-2.87846e-10
7.3655e-08
-1.43531e-09
-2.94322e-10
7.3455e-08
-1.42698e-09
-3.07645e-10
7.31567e-08
-1.41593e-09
-3.28826e-10
7.27434e-08
-1.40221e-09
-3.60854e-10
7.2192e-08
-1.38613e-09
-4.03666e-10
7.14702e-08
-1.36776e-09
-4.52255e-10
7.05351e-08
-1.34738e-09
-5.07822e-10
6.93284e-08
-1.32493e-09
-5.63614e-10
6.77732e-08
-1.30045e-09
-6.15773e-10
6.57658e-08
-1.2735e-09
-6.51377e-10
6.31688e-08
-1.2435e-09
-6.61513e-10
5.97974e-08
-1.20909e-09
-6.27307e-10
5.54066e-08
-1.16797e-09
-5.33515e-10
4.96655e-08
-1.11503e-09
-3.56753e-10
4.21349e-08
-1.04313e-09
2.58593e-08
-8.91218e-10
2.34624e-10
2.63184e-08
-7.29705e-10
3.25565e-10
4.27767e-08
-8.37025e-10
3.48674e-10
5.04151e-08
-8.88463e-10
3.27462e-10
5.62369e-08
-9.28485e-10
2.70541e-10
6.0688e-08
-9.60702e-10
1.99112e-10
6.41046e-08
-9.88197e-10
1.20119e-10
6.67357e-08
-1.01267e-09
3.95293e-11
6.8769e-08
-1.03489e-09
-3.49016e-11
7.03446e-08
-1.05537e-09
-9.73824e-11
7.15675e-08
-1.07418e-09
-1.4663e-10
7.25165e-08
-1.09138e-09
-1.83291e-10
7.32504e-08
-1.10675e-09
-2.05746e-10
7.38133e-08
-1.12018e-09
-2.13274e-10
7.42377e-08
-1.13139e-09
-2.11098e-10
7.45473e-08
-1.14025e-09
-1.99707e-10
7.47589e-08
-1.14652e-09
-1.79241e-10
7.48837e-08
-1.15015e-09
-1.5859e-10
7.49279e-08
-1.15097e-09
-1.35237e-10
7.48938e-08
-1.14903e-09
-1.15072e-10
7.47788e-08
-1.14431e-09
-9.99057e-11
7.45769e-08
-1.13694e-09
-9.32394e-11
7.42765e-08
-1.12701e-09
-9.58015e-11
7.38608e-08
-1.11475e-09
-1.0853e-10
7.33059e-08
-1.10031e-09
-1.34779e-10
7.25792e-08
-1.08396e-09
-1.70556e-10
7.16366e-08
-1.06582e-09
-2.13581e-10
7.0419e-08
-1.04611e-09
-2.65092e-10
6.88477e-08
-1.02478e-09
-3.14883e-10
6.68174e-08
-1.00172e-09
-3.56942e-10
6.41881e-08
-9.76434e-10
-3.85106e-10
6.07719e-08
-9.48154e-10
-3.81283e-10
5.63198e-08
-9.15078e-10
-3.37051e-10
5.04953e-08
-8.73715e-10
-2.37531e-10
4.28528e-08
-8.19984e-10
2.63343e-08
-7.10426e-10
7.06858e-11
2.66617e-08
-4.15464e-10
6.96107e-11
4.3236e-08
-4.56656e-10
3.6207e-11
5.09285e-08
-4.79924e-10
-1.53083e-11
5.67906e-08
-5.01652e-10
-7.68754e-11
6.12706e-08
-5.20927e-10
-1.4203e-10
6.47072e-08
-5.3879e-10
-2.0214e-10
6.73516e-08
-5.55754e-10
-2.53528e-10
6.93931e-08
-5.72041e-10
-2.94202e-10
7.09728e-08
-5.87663e-10
-3.21205e-10
7.21969e-08
-6.0252e-10
-3.3413e-10
7.3145e-08
-6.164e-10
-3.29919e-10
7.38768e-08
-6.29076e-10
-3.13662e-10
7.44366e-08
-6.40285e-10
-2.83353e-10
7.48576e-08
-6.49796e-10
-2.42894e-10
7.51638e-08
-6.57366e-10
-1.92693e-10
7.53723e-08
-6.62828e-10
-1.38059e-10
7.54945e-08
-6.66028e-10
-7.96881e-11
7.55368e-08
-6.669e-10
-2.25267e-11
7.55012e-08
-6.65392e-10
3.31266e-11
7.53857e-08
-6.6156e-10
8.27037e-11
7.51836e-08
-6.55463e-10
1.21849e-10
7.48835e-08
-6.47273e-10
1.51217e-10
7.44683e-08
-6.37151e-10
1.69973e-10
7.39139e-08
-6.25342e-10
1.72825e-10
7.31871e-08
-6.12076e-10
1.64832e-10
7.22434e-08
-5.9762e-10
1.41957e-10
7.1023e-08
-5.82204e-10
1.09785e-10
6.94464e-08
-5.66024e-10
6.93837e-11
6.74074e-08
-5.49181e-10
2.45136e-11
6.47647e-08
-5.31664e-10
-2.00281e-11
6.13291e-08
-5.13242e-10
-5.50674e-11
5.68493e-08
-4.93329e-10
-7.77935e-11
5.09868e-08
-4.70596e-10
-7.23457e-11
4.32934e-08
-4.45612e-10
2.66656e-08
-4.02738e-10
-9.08879e-11
2.68109e-08
-5.83237e-11
-1.87625e-10
4.3358e-08
-2.52894e-11
-2.81621e-10
5.1039e-08
-1.658e-11
-3.65308e-10
5.6892e-08
-1.72395e-11
-4.37183e-10
6.13642e-08
-2.16128e-11
-4.96653e-10
6.47935e-08
-2.82705e-11
-5.38503e-10
6.74308e-08
-3.64854e-11
-5.64476e-10
6.94652e-08
-4.57542e-11
-5.74514e-10
7.10377e-08
-5.56338e-11
-5.66527e-10
7.22549e-08
-6.5714e-11
-5.41169e-10
7.31962e-08
-7.56012e-11
-5.00793e-10
7.39214e-08
-8.49536e-11
-4.46438e-10
7.44752e-08
-9.34408e-11
-3.77804e-10
7.48908e-08
-1.0078e-10
-3.01074e-10
7.51923e-08
-1.0672e-10
-2.13331e-10
7.53972e-08
-1.11066e-10
-1.22046e-10
7.55166e-08
-1.13668e-10
-2.83739e-11
7.55572e-08
-1.14446e-10
6.62403e-11
7.55211e-08
-1.13355e-10
1.55127e-10
7.54061e-08
-1.10439e-10
2.39374e-10
7.52056e-08
-1.05778e-10
3.13394e-10
7.49082e-08
-9.95242e-11
3.78529e-10
7.44966e-08
-9.18672e-11
4.28904e-10
7.39465e-08
-8.30662e-11
4.64173e-10
7.32246e-08
-7.33954e-11
4.83575e-10
7.22865e-08
-6.31832e-11
4.88189e-10
7.10721e-08
-5.27746e-11
4.75563e-10
6.95019e-08
-4.25533e-11
4.45588e-10
6.74696e-08
-3.29244e-11
4.01804e-10
6.4834e-08
-2.43228e-11
3.40638e-10
6.1406e-08
-1.72444e-11
2.67743e-10
5.6935e-08
-1.23446e-11
1.83729e-10
5.1083e-08
-1.09051e-11
9.03448e-11
4.3403e-08
-1.825e-11
2.6807e-08
-5.0043e-11
-2.27797e-10
2.67659e-08
2.71634e-10
-4.04216e-10
4.31608e-08
3.74716e-10
-5.51337e-10
5.07727e-08
4.13159e-10
-6.63276e-10
5.65733e-08
4.31946e-10
-7.46701e-10
6.1005e-08
4.41465e-10
-8.01108e-10
6.44025e-08
4.45367e-10
-8.29753e-10
6.70142e-08
4.45458e-10
-8.344e-10
6.90275e-08
4.42913e-10
-8.19112e-10
7.05826e-08
4.38581e-10
-7.81233e-10
7.1785e-08
4.33167e-10
-7.26667e-10
7.27137e-08
4.27202e-10
-6.54512e-10
7.34282e-08
4.2116e-10
-5.68109e-10
7.39729e-08
4.15406e-10
-4.68324e-10
7.4381e-08
4.10272e-10
-3.59174e-10
7.46766e-08
4.06008e-10
-2.40786e-10
7.48769e-08
4.02834e-10
-1.19123e-10
7.49934e-08
4.00885e-10
6.07532e-12
7.50325e-08
4.00269e-10
1.28552e-10
7.49964e-08
4.01002e-10
2.49245e-10
7.48829e-08
4.03068e-10
3.64053e-10
7.46855e-08
4.06363e-10
4.66373e-10
7.43926e-08
4.1075e-10
5.61326e-10