/*--------------------------------*- C++ -*----------------------------------*\
| =========                 |                                                 |
| \\      /  F ield         | OpenFOAM: The Open Source CFD Toolbox           |
|  \\    /   O peration     | Version:  v1912                                 |
|   \\  /    A nd           | Website:  www.openfoam.com                      |
|    \\/     M anipulation  |                                                 |
\*---------------------------------------------------------------------------*/
FoamFile
{
    version     2.0;
    format      ascii;
    class       volScalarField;
    location    "24/sphere";
    object      T;
}
// * * * * * * * * * * * * * * * * * * * * * * * * * * * * * * * * * * * * * //

dimensions      [0 0 0 1 0 0 0];


internalField   nonuniform List<scalar> 
1992
(
466.808
466.847
466.845
466.919
466.822
466.821
466.846
467.071
467.118
466.982
466.844
467.117
467.163
467.033
466.962
467.031
466.925
466.843
466.916
466.822
466.844
467.116
467.162
467.032
466.911
467.161
467.207
467.078
466.844
466.817
467.029
467.075
466.994
466.84
466.82
466.978
467.031
466.913
466.818
467.029
467.076
466.994
466.909
466.993
466.87
466.841
466.841
466.841
466.838
466.841
466.811
466.919
466.849
467.031
466.982
467.076
467.032
466.981
467.076
467.032
466.847
466.81
466.919
466.849
467.032
467.031
466.981
466.919
466.848
466.848
466.81
466.838
466.838
466.836
466.835
466.827
466.834
466.837
466.827
466.835
466.836
466.827
466.838
466.861
466.82
466.819
466.91
466.992
466.82
466.82
466.993
466.913
466.87
466.819
466.91
466.818
466.992
466.846
466.845
466.915
466.979
467.03
467.029
467.074
466.839
466.875
466.865
466.945
466.922
466.903
466.955
466.822
466.913
466.994
466.822
466.819
466.819
466.992
466.911
466.915
466.808
466.846
467.029
467.074
466.979
467.03
466.849
466.848
466.81
467.076
467.032
467.031
466.982
466.994
466.822
466.914
466.861
466.82
466.909
466.993
466.82
466.993
466.913
466.821
466.87
466.837
466.839
466.909
466.818
466.818
466.991
466.845
466.962
467.029
466.844
466.913
467.028
467.073
466.81
467.03
466.981
466.915
466.848
467.075
467.031
466.925
466.821
466.994
466.821
466.836
466.962
466.844
467.028
466.843
467.028
466.911
467.072
466.81
467.033
466.849
467.032
466.849
467.078
466.923
466.844
466.836
467.028
466.963
466.911
467.072
466.844
467.029
466.849
466.983
466.811
467.078
466.923
467.033
466.849
466.844
466.91
466.817
466.992
466.819
467.029
466.845
467.029
467.073
466.844
466.913
466.982
466.846
466.81
467.075
467.032
466.916
466.849
466.994
466.822
466.822
466.838
466.84
466.838
466.839
466.818
466.817
466.991
466.909
466.913
467.028
467.073
466.845
466.962
467.029
466.848
467.075
467.031
466.846
466.809
467.03
466.981
466.994
466.822
466.924
466.836
467.028
466.911
467.072
466.962
466.843
467.028
466.849
467.078
466.923
466.982
466.811
467.032
466.849
466.844
466.835
467.072
466.844
467.028
466.843
467.028
466.962
466.923
467.033
466.849
467.033
466.849
466.982
466.81
466.992
466.819
466.909
467.073
466.844
466.913
466.962
467.029
466.845
467.032
466.916
466.848
467.031
466.982
466.846
466.81
466.822
466.821
466.925
466.838
466.86
466.819
466.909
466.992
466.819
466.993
466.913
466.821
466.87
466.91
466.818
466.992
466.82
467.03
467.029
467.074
466.808
466.846
466.845
466.915
466.994
466.821
466.822
466.992
466.91
466.819
467.074
466.979
467.03
466.845
466.914
466.809
466.846
466.822
466.914
466.822
466.86
466.993
466.82
466.82
466.913
466.821
466.821
466.817
466.809
466.808
466.816
466.81
466.82
466.81
466.819
466.81
466.82
466.81
466.818
466.81
466.808
466.809
466.828
466.827
466.812
466.836
466.834
466.827
466.819
466.809
466.817
466.809
466.825
466.825
466.849
466.923
466.851
466.882
466.882
466.839
466.878
466.866
466.946
466.924
466.904
466.957
466.838
466.875
466.864
466.944
466.922
466.903
466.954
466.825
466.825
466.849
466.923
466.851
466.881
466.881
466.839
466.877
466.866
466.945
466.924
466.904
466.956
466.876
466.839
466.865
466.945
466.923
466.956
466.904
466.876
466.839
466.865
466.944
466.922
466.954
466.903
466.825
466.825
466.848
466.923
466.851
466.883
466.882
466.811
466.808
466.828
466.827
466.812
466.829
466.827
466.811
466.811
466.822
466.822
466.844
466.918
466.848
466.879
466.879
466.819
466.842
466.812
466.866
466.939
466.835
466.92
466.857
466.95
466.9
466.813
466.875
466.825
466.83
466.862
466.811
466.818
466.84
466.813
466.825
466.874
466.862
466.829
466.903
466.813
466.84
466.813
466.869
466.837
466.87
466.941
466.836
466.92
466.867
466.902
466.859
466.951
466.812
466.818
466.841
466.903
466.84
466.813
466.813
466.869
466.87
466.837
466.935
466.918
466.832
466.865
466.897
466.948
466.854
466.82
466.81
466.81
466.813
466.837
466.851
466.867
466.866
466.959
466.828
466.901
466.9
466.81
466.935
466.866
466.918
466.832
466.948
466.854
466.897
466.963
466.906
466.986
466.894
466.976
466.882
466.973
466.825
466.874
466.811
466.829
466.862
466.935
466.918
466.865
466.833
466.948
466.897
466.854
466.82
466.812
466.957
466.982
466.89
466.89
466.97
466.969
466.872
466.838
466.838
466.828
466.823
466.871
466.808
466.827
466.859
466.808
466.835
466.829
466.821
466.81
466.813
466.837
466.825
466.812
466.872
466.861
466.828
466.81
466.814
466.837
466.957
466.86
466.9
466.85
466.862
466.9
466.819
466.823
466.871
466.81
466.86
466.827
466.848
466.955
466.856
466.858
466.896
466.898
466.817
466.822
466.831
466.831
466.81
466.808
466.827
466.828
466.812
466.81
466.819
466.819
466.819
466.811
466.817
466.84
466.811
466.872
466.824
466.828
466.861
466.81
466.814
466.837
466.823
466.809
466.872
466.828
466.859
466.848
466.858
466.856
466.955
466.817
466.898
466.896
466.811
466.873
466.862
466.824
466.828
466.819
466.841
466.812
466.825
466.812
466.872
466.828
466.861
466.812
466.818
466.841
466.86
466.956
466.899
466.85
466.861
466.819
466.899
466.822
466.83
466.831
466.81
466.811
466.817
466.84
466.81
466.824
466.873
466.861
466.828
466.81
466.813
466.837
466.848
466.858
466.856
466.955
466.817
466.898
466.896
466.823
466.809
466.872
466.828
466.859
466.868
466.836
466.921
466.857
466.952
466.939
466.901
466.835
466.866
466.856
466.939
466.92
466.901
466.95
466.812
466.875
466.862
466.825
466.83
466.86
466.957
466.899
466.85
466.861
466.819
466.9
466.813
466.819
466.842
466.825
466.813
466.874
466.829
466.862
466.823
466.81
466.872
466.828
466.86
466.811
466.817
466.84
466.823
466.871
466.809
466.828
466.859
466.811
466.813
466.837
466.848
466.858
466.956
466.857
466.898
466.817
466.896
466.892
466.894
466.986
466.96
466.875
466.972
466.974
466.918
466.823
466.823
466.849
466.845
466.879
466.879
466.869
466.939
466.836
466.921
466.857
466.952
466.901
466.878
466.839
466.924
466.865
466.957
466.945
466.905
466.876
466.839
466.865
466.945
466.923
466.955
466.904
466.826
466.825
466.849
466.923
466.852
466.883
466.882
466.813
466.819
466.842
466.825
466.874
466.813
466.83
466.862
466.85
466.861
466.957
466.862
466.9
466.819
466.9
466.813
466.819
466.842
466.82
466.82
466.819
466.824
466.811
466.873
466.861
466.829
466.848
466.858
466.955
466.856
466.897
466.816
466.896
466.811
466.814
466.838
466.824
466.872
466.811
466.829
466.86
466.813
466.819
466.842
466.85
466.861
466.957
466.862
466.9
466.819
466.899
466.825
466.873
466.812
466.829
466.862
466.813
466.819
466.841
466.822
466.831
466.832
466.81
466.809
466.807
466.827
466.826
466.81
466.81
466.829
466.834
466.82
466.818
466.808
466.809
466.813
466.837
466.81
466.814
466.837
466.847
466.856
466.856
466.954
466.816
466.896
466.895
466.822
466.81
466.871
466.859
466.827
466.823
466.809
466.87
466.858
466.827
466.935
466.834
466.919
466.866
466.897
466.854
466.949
466.935
466.833
466.865
466.918
466.854
466.898
466.948
466.958
466.891
466.891
466.984
466.872
466.971
466.971
466.921
466.824
466.85
466.825
466.881
466.846
466.881
466.963
466.894
466.906
466.986
466.882
466.973
466.976
466.943
466.837
466.875
466.923
466.862
466.903
466.955
466.851
466.866
466.866
466.958
466.827
466.9
466.901
466.813
466.819
466.842
466.825
466.812
466.873
466.862
466.829
466.825
466.812
466.874
466.862
466.829
466.807
466.808
466.825
466.826
466.81
466.935
466.833
466.918
466.865
466.897
466.854
466.948
466.935
466.832
466.918
466.865
466.898
466.854
466.948
466.957
466.89
466.89
466.982
466.872
466.969
466.97
466.924
466.852
466.825
466.826
466.883
466.883
466.849
466.946
466.84
466.924
466.878
466.905
466.866
466.957
466.946
466.839
466.924
466.878
466.904
466.865
466.957
466.969
466.911
466.911
466.993
466.892
466.981
466.981
466.82
466.81
466.82
466.81
466.838
466.838
466.828
466.807
466.826
466.826
466.811
466.805
466.904
466.813
466.84
466.813
466.869
466.836
466.87
466.957
466.891
466.982
466.89
466.97
466.873
466.97
466.935
466.833
466.865
466.919
466.854
466.898
466.948
466.946
466.924
466.839
466.877
466.904
466.957
466.866
466.924
466.826
466.852
466.826
466.883
466.849
466.883
466.969
466.911
466.993
466.911
466.981
466.892
466.981
466.946
466.839
466.878
466.924
466.866
466.904
466.957
466.838
466.838
466.829
466.82
466.81
466.847
466.856
466.857
466.955
466.816
466.896
466.896
466.81
466.814
466.838
466.823
466.809
466.871
466.86
466.828
466.823
466.81
466.871
466.859
466.828
466.904
466.84
466.814
466.813
466.87
466.87
466.837
466.936
466.92
466.834
466.867
466.899
466.95
466.855
466.935
466.833
466.919
466.865
466.898
466.854
466.949
466.958
466.893
466.985
466.892
466.972
466.874
466.971
466.941
466.921
466.837
466.869
466.902
466.951
466.859
466.921
466.851
466.824
466.825
466.881
466.881
466.846
466.964
466.895
466.987
466.907
466.974
466.883
466.977
466.943
466.838
466.923
466.876
466.903
466.863
466.955
466.813
466.819
466.842
466.813
466.819
466.842
466.825
466.813
466.874
466.862
466.829
466.825
466.812
466.874
466.862
466.829
466.81
466.809
466.829
466.827
466.812
466.83
466.835
466.821
466.819
466.809
466.808
466.826
466.828
466.812
466.808
466.834
466.829
466.82
466.818
466.808
466.809
466.823
466.87
466.809
466.827
466.858
466.822
466.87
466.807
466.827
466.858
466.81
466.814
466.837
466.809
466.814
466.837
466.847
466.954
466.855
466.856
466.895
466.895
466.815
466.958
466.891
466.985
466.892
466.971
466.874
466.972
466.903
466.813
466.813
466.84
466.836
466.869
466.87
466.935
466.866
466.834
466.919
466.855
466.949
466.898
466.943
466.875
466.923
466.837
466.955
466.862
466.902
466.941
466.868
466.836
466.92
466.858
466.951
466.902
466.92
466.824
466.824
466.85
466.845
466.881
466.88
466.825
466.874
466.813
466.829
466.862
466.813
466.818
466.841
466.851
466.958
466.866
466.866
466.9
466.9
466.827
466.812
466.818
466.842
466.807
466.826
466.826
466.81
466.807
466.957
466.89
466.982
466.89
466.97
466.873
466.97
466.903
466.812
466.84
466.814
466.869
466.836
466.87
466.935
466.864
466.833
466.918
466.854
466.948
466.898
466.946
466.924
466.878
466.839
466.957
466.904
466.866
466.969
466.911
466.993
466.911
466.981
466.892
466.981
466.923
466.826
466.851
466.825
466.883
466.849
466.882
466.946
466.878
466.839
466.924
466.866
466.957
466.904
466.838
466.838
466.829
466.82
466.811
466.826
466.825
466.81
466.806
466.807
466.935
466.865
466.918
466.833
466.948
466.854
466.897
466.935
466.865
466.918
466.833
466.948
466.854
466.899
466.903
466.813
466.814
466.84
466.836
466.869
466.87
466.969
466.993
466.911
466.911
466.981
466.981
466.892
466.946
466.878
466.924
466.839
466.958
466.866
466.904
466.946
466.878
466.924
466.839
466.957
466.866
466.904
466.924
466.826
466.826
466.852
466.849
466.883
466.882
466.821
466.811
466.82
466.811
466.823
466.871
466.81
466.828
466.86
466.81
466.814
466.837
466.847
466.954
466.856
466.856
466.896
466.896
466.816
466.81
466.814
466.837
466.936
466.919
466.865
466.834
466.949
466.899
466.855
466.958
466.984
466.891
466.892
466.971
466.972
466.873
466.904
466.814
466.841
466.814
466.871
466.838
466.87
466.936
466.867
466.92
466.834
466.95
466.855
466.898
466.963
466.987
466.906
466.894
466.977
466.973
466.882
466.943
466.923
466.876
466.838
466.955
466.903
466.863
466.941
466.868
466.92
466.837
466.951
466.859
466.901
466.921
466.825
466.851
466.824
466.881
466.847
466.881
466.825
466.874
466.813
466.829
466.862
466.825
466.874
466.812
466.829
466.862
466.851
466.959
466.867
466.866
466.902
466.9
466.828
466.813
466.819
466.842
466.813
466.818
466.842
466.827
466.828
466.812
466.809
466.818
466.809
466.81
466.817
466.818
466.82
466.823
466.81
466.872
466.859
466.828
466.847
466.856
466.955
466.858
466.895
466.816
466.898
466.811
466.817
466.84
466.873
466.809
466.824
466.828
466.86
466.813
466.818
466.841
466.956
466.86
466.899
466.85
466.861
466.9
466.819
466.812
466.873
466.861
466.824
466.828
466.818
466.841
466.812
466.822
466.83
466.831
466.809
466.848
466.857
466.955
466.858
466.896
466.817
466.897
466.823
466.809
466.871
466.859
466.827
466.811
466.817
466.839
466.811
466.823
466.872
466.86
466.828
466.823
466.822
466.844
466.918
466.849
466.878
466.879
466.869
466.921
466.836
466.952
466.857
466.939
466.9
466.835
466.867
466.856
466.938
466.92
466.9
466.95
466.812
466.818
466.842
466.824
466.812
466.874
466.862
466.829
466.819
466.842
466.813
466.812
466.874
466.862
466.825
466.829
466.81
466.814
466.838
466.847
466.955
466.857
466.858
466.896
466.897
466.816
466.811
466.823
466.872
466.828
466.86
466.811
466.816
466.84
466.866
466.836
466.857
466.938
466.919
466.949
466.9
466.822
466.823
466.844
466.918
466.849
466.879
466.879
466.868
466.921
466.835
466.951
466.857
466.939
466.9
466.825
466.875
466.813
466.863
466.829
466.957
466.86
466.899
466.85
466.862
466.9
466.82
466.813
466.819
466.842
466.813
466.874
466.862
466.825
466.829
466.819
466.842
466.813
466.819
466.817
466.82
466.811
466.814
466.838
466.824
466.872
466.81
466.859
466.829
466.812
466.818
466.84
466.872
466.811
466.824
466.861
466.829
466.956
466.86
466.9
466.85
466.862
466.9
466.819
466.825
466.873
466.812
466.861
466.829
466.813
466.819
466.842
466.812
466.873
466.862
466.825
466.829
466.819
466.842
466.813
466.909
466.907
466.989
466.89
466.979
466.967
466.977
467.117
467.117
467.162
467.116
467.162
467.161
467.206
467.072
467.163
467.119
467.162
467.119
467.207
467.164
467.162
467.071
467.117
467.161
467.206
467.117
467.162
467.119
467.118
467.073
467.207
467.164
467.163
467.119
466.977
466.998
466.901
466.998
466.944
467.03
466.944
467.162
467.161
467.206
467.07
467.117
467.117
467.162
467.119
467.207
467.164
467.118
467.072
467.163
467.119
467.206
467.117
467.162
467.117
467.162
467.071
467.117
467.164
467.163
467.119
467.163
467.119
467.118
467.073
466.873
466.942
466.942
466.983
466.88
466.931
466.931
466.982
466.942
466.93
466.873
466.942
466.931
466.88
466.981
466.941
466.93
466.873
466.941
466.93
466.88
466.907
466.91
466.891
466.968
466.989
466.978
466.98
466.907
466.909
466.89
466.967
466.989
466.977
466.979
466.909
466.907
466.891
466.967
466.989
466.979
466.977
466.94
466.871
466.94
466.98
466.879
466.929
466.928
466.941
466.981
466.93
466.872
466.94
466.879
466.93
466.871
466.94
466.98
466.939
466.929
466.879
466.928
466.894
466.892
466.986
466.875
466.974
466.961
466.973
466.942
466.982
466.93
466.873
466.942
466.881
466.931
466.871
466.94
466.939
466.98
466.878
466.929
466.928
466.942
466.873
466.942
466.982
466.881
466.931
466.931
466.872
466.941
466.98
466.94
466.929
466.879
466.928
466.873
466.941
466.982
466.941
466.93
466.88
466.93
466.87
466.979
466.939
466.939
466.927
466.927
466.878
466.976
466.901
466.998
466.998
466.943
466.943
467.029
466.873
466.983
466.941
466.942
466.931
466.931
466.88
466.976
466.901
466.998
466.998
466.943
466.943
467.029
466.977
466.999
466.902
466.998
466.944
467.03
466.944
466.871
466.98
466.94
466.94
466.928
466.928
466.879
466.873
466.983
466.942
466.942
466.931
466.931
466.88
466.87
466.939
466.939
466.979
466.877
466.927
466.927
466.976
466.998
466.901
466.998
466.943
467.029
466.943
466.873
466.942
466.942
466.982
466.88
466.931
466.931
466.976
466.998
466.901
466.998
466.943
467.029
466.944
466.976
466.998
466.998
466.902
467.029
466.943
466.944
466.87
466.939
466.939
466.979
466.878
466.927
466.928
466.977
466.998
466.998
466.901
467.03
466.944
466.944
466.94
466.871
466.94
466.98
466.928
466.879
466.928
466.981
466.94
466.929
466.872
466.94
466.93
466.879
466.871
466.98
466.939
466.94
466.928
466.928
466.878
466.895
466.986
466.892
466.974
466.875
466.96
466.972
466.982
466.942
466.93
466.873
466.942
466.931
466.881
466.871
466.939
466.98
466.939
466.928
466.878
466.928
466.894
466.986
466.892
466.974
466.874
466.96
466.972
466.941
466.872
466.98
466.94
466.928
466.929
466.88
)
;

boundaryField
{
    sphere_to_oil
    {
        type            compressible::turbulentTemperatureCoupledBaffleMixed;
        refValue        nonuniform List<scalar> 
1536
(
339.021
340.009
340.089
341.864
341.933
340.083
340.912
340.528
340.695
341.648
342.451
341.517
340.614
341.492
342.706
340.989
340.069
340.033
341.028
340.661
340.263
340.672
340.609
341.001
340.897
340.953
340.899
341.123
340.119
338.317
340.125
341.696
341.529
338.631
340.62
339.852
341.541
341.178
342.103
338.671
340.055
340.042
340.978
340.918
341.113
341.028
341.079
341.329
341.132
341.32
340.922
341.172
341.367
341.023
340.896
340.682
340.486
340.45
340.561
340.201
340.359
340.882
340.598
340.367
339.947
340.63
341.922
341.775
342.629
340.172
340.995
340.423
340.691
340.656
340.643
340.198
341.031
340.075
338.559
339.816
342.299
341.834
342.573
338.827
340.207
339.515
340.611
340.76
340.266
340.356
340.427
340.743
340.705
340.757
340.931
340.839
340.234
340.73
340.457
340.703
341.704
342.152
339.53
339.941
339.343
341.15
340.572
340.332
340.406
340.124
341.027
342.939
342.023
339.22
339.58
339.934
341.909
341.594
340.947
340.947
342.832
341.245
340.191
339.397
340.005
341.322
340.987
340.136
340.069
340.311
340.467
341.878
341.908
341.861
339.857
340.162
339.222
342.115
340.835
340.435
340.436
340.679
341.07
341.086
340.954
340.861
340.447
340.462
339.883
340.285
342.211
341.146
342.122
339.039
340.244
339.883
340.456
340.255
341.043
342.05
341.562
340.003
338.99
340.444
341.637
340.973
340.889
342.768
341.8
341.813
341.81
338.953
340.018
340.59
340.715
340.589
341.627
342.017
341.912
342.204
339.67
339.124
339.955
340.555
340.647
340.369
340.594
341.128
340.067
340.31
339.857
340.467
340.611
341.171
340.354
340.301
340.359
340.793
339.159
340.177
339.718
342.349
341.939
340.403
340.195
340.907
340.847
340.124
340.597
342.697
338.826
339.92
340.094
342.28
340.378
341.229
340.831
340.068
340.672
340.359
340.318
340.721
340.726
340.828
340.519
340.737
340.89
340.508
339.463
339.927
339.718
340.944
340.911
338.984
339.76
340.264
340.045
340.363
340.065
340.935
340.62
339.504
339.784
340.369
340.093
340.575
340.582
339.6
340.335
340.134
340.985
339.675
339.652
340.566
341.286
340.142
339.381
339.886
340.412
338.907
338.839
339.926
339.266
340.035
339.575
341.518
341.337
341.318
342.96
339.785
341.073
341.092
341.094
341.277
340.193
338.834
341.055
339.788
341.588
339.912
339.591
340.806
339.486
341.148
341.098
340.81
341.1
342.866
342.416
341.982
340.907
341.269
341.1
340.337
342.958
342.809
342.174
342.154
341.047
340.626
341.137
340.536
342.84
340.628
339.279
341.424
339.493
341.791
339.222
341.156
341.333
339.557
341.633
339.773
341.358
341.263
339.553
339.946
340.491
340.886
339.21
339.935
340.552
341.149
340.476
341.531
341.372
341.176
340.001
341.425
342.54
340.189
340.197
339.767
341.572
342.968
339.789
339.644
340.985
340.994
340.66
341.462
340.876
339.971
339.813
340.284
340.894
340.458
341.077
342.467
339.729
339.87
340.614
341.26
340.944
340.887
340.982
340.133
340.873
340.24
342.42
340.248
339.367
341.574
341.442
341.421
342.957
340.057
340.237
340.48
340.783
340.625
340.574
342.502
342.057
340.594
339.71
340.21
340.756
340.943
340.055
341.697
341.097
342.885
340.005
340.726
339.694
339.38
340.203
339.812
339.841
340.118
340.609
340.325
339.957
342.784
341.655
341.507
339.382
341.404
339.635
341.166
342.801
342.136
340.231
340.793
339.239
338.809
341.526
340.498
341.92
343.017
340.69
340.439
339.834
340.291
339.923
341.051
341.021
341.294
342.104
341.083
339.738
339.158
340.807
341.464
341.016
339.821
339.561
339.914
340.944
341.646
340.62
340.806
339.316
339.655
340.299
340.667
340.181
339.79
342.556
341.3
340.928
339.724
340.142
340.033
340.742
340.653
340.067
339.447
340.306
340.491
340.37
339.583
343.427
341.019
341.08
341.001
341.173
341.088
339.734
339.371
341.699
340.906
340.86
340.92
340.9
341.227
340.609
340.716
341.333
342.083
341.137
341.609
341.219
339.515
339.192
339.581
339.514
339.632
338.948
341.415
341.35
340.666
339.914
340.714
340.655
338.96
339.187
340.833
341.093
340.686
341.2
341.159
340.171
341.378
341.012
340.302
340.232
339.958
340.154
340.681
340.474
340.928
342.214
339.767
340.499
340.09
340.793
341.105
340.829
340.712
339.738
339.686
340.05
340.729
340.423
340.106
342.617
341.179
341.242
339.368
339.328
339.343
340.896
341.069
341.061
341.355
340.719
339.473
339.373
340.265
340.482
341.616
340.779
341.236
340.677
341.06
340.876
342.102
340.211
340.346
340.176
340.811
341.263
339.629
339.803
339.79
340.502
341.04
339.867
339.56
340.385
340.62
340.493
340.72
342.758
340.61
340.735
341.451
341.942
340.437
340.193
341.65
341.45
341.569
341.393
339.146
339.087
339.047
339.837
339.54
340.408
340.972
340.533
340.544
342.848
339.248
341.223
339.765
340.909
341.564
340.827
341.631
339.224
339.968
340.56
340.384
340.736
340.546
342.413
340.978
341.268
340.951
340.913
341.623
339.432
339.578
340.029
340.685
341.815
341.221
343.264
341.241
343.356
340.033
339.496
339.903
341.262
340.518
341.641
340.767
341.03
340.928
341.046
340.175
339.822
340.759
340.84
340.925
340.968
342.118
340.963
341.437
340.823
339.431
339.796
340.585
341.017
340.671
341.581
339.507
339.775
339.933
340.701
341.785
340.064
339.438
340.563
340.957
340.167
341.798
342.376
341.098
341.602
339.413
340.29
338.979
340.489
341.233
340.029
339.308
340.419
340.374
340.962
339.913
342.406
341.14
341.016
341.39
341.011
340.932
340.929
340.798
341.568
341.822
343.243
342.288
342.618
340.986
341.187
341.038
340.348
342.704
339.841
340.22
340.388
340.63
340.646
341.38
342.822
341.015
341.351
339.779
339.874
339.816
340.968
340.91
340.994
340.575
341.116
340.31
340.157
339.894
340.723
340.513
340.859
342.335
341.768
341.261
340.556
340.359
341.421
341.831
341.098
341.258
340.564
341.768
340.87
340.519
339.351
339.389
341.173
340.899
341.083
339.596
340.976
339.899
339.885
340.27
340.478
339.919
340.802
342.382
341.131
341.503
340.424
340.05
339.581
340.877
341.045
340.246
340.497
340.027
340.829
341.258
340.702
342.624
341.527
340.615
340.372
340.779
341.912
340.326
339.827
339.614
340.71
341.183
339.942
340.135
340.23
340.905
340.497
340.807
342.473
340.857
341.388
340.636
341.272
341.618
341.192
341.856
339.766
339.147
339.317
339.408
339.661
339.004
340.32
341.433
339.116
341.227
341.037
339.938
339.833
339.781
339.816
340.024
341.466
341.247
340.783
341.08
340.495
340.39
340.846
339.077
339.353
339.514
339.269
339.469
340.396
340.424
339.895
340.297
343.428
339.447
339.724
340.48
340.649
340.167
340.109
342.719
341.024
341.101
341.118
340.945
341.17
339.167
340.832
339.832
340.619
340.982
340.939
341.6
339.405
340.316
339.565
340.774
341.075
341.662
342.689
341.722
342.703
341.728
340.507
340.958
340.924
341.486
341.921
341.059
341.9
340.178
340.035
339.908
341.348
340.012
340.905
342.754
341.346
340.722
340.357
339.549
339.861
340.587
340.683
340.442
341.687
340.28
339.83
339.805
340.794
341.123
340.907
339.654
338.92
339.699
340.512
339.523
341.441
341.316
340.055
341.362
339.872
341.448
343.037
341.27
342.944
340.789
341.235
341.195
340.514
342.434
342.59
342.186
341.23
340.513
339.542
339.313
340.789
340.539
340.893
339.621
339.723
339.489
340.999
341.163
341.244
340.139
339.12
341.462
341.529
341.675
341.227
340.169
340.891
339.679
341.853
338.812
341.449
339.768
340.295
342.516
341.326
341.032
339.665
341.203
341.62
342.696
342.188
340.995
341.187
341.117
340.63
342.484
342.118
341.052
341.077
341.366
340.081
340.726
340.094
339.781
339.237
340.494
341.203
340.999
339.815
339.918
340.224
340.523
340.406
340.522
342.618
341.824
340.994
340.058
339.414
340.004
341.405
341.361
341.06
341.244
339.948
340.06
339.442
340.894
341.103
342.35
340.568
340.099
340.276
340.416
339.95
340.575
341.392
341.203
342.576
341.461
342.469
341.589
342.685
341.159
340.649
340.931
341.126
341.628
342.454
340.23
340.03
340.38
341.117
340.374
340.684
342.587
339.393
340.17
340.29
341.22
341.129
340.524
342.518
341.314
340.978
339.711
339.82
340.176
340.866
340.849
342.248
340.443
339.753
340.036
339.366
341.652
340.412
339.731
341.119
339.351
339.871
340.676
339.503
341.225
340.944
341.857
340.847
340.131
341.347
340.903
342.302
340.621
341.005
340.456
339.478
338.965
340.037
339.679
339.382
341.454
341.069
341.205
342.786
339.832
340.808
339.954
338.718
341.634
340.901
341.441
340.662
340.556
340.129
340.392
338.984
339.632
339.76
339.005
339.372
341.839
341.167
341.581
339.788
339.393
339.27
340.654
340.939
340.591
341.986
338.517
339.484
339.742
340.71
341.531
339.97
339.795
340.269
340.47
340.567
340.502
342.321
339.402
340.492
340.222
340.787
340.555
339.867
342.937
341.368
341.123
340.367
340.076
340.047
340.382
340.844
341.079
339.692
342.288
341.088
341.26
342.953
342.308
341.463
342.41
341.122
340.594
340.616
340.676
341.586
341.044
341.438
339.986
340.677
339.882
341.011
340.995
340.072
340.123
340.205
341.388
340.065
340.43
342.305
341.648
341.582
339.755
339.776
340.23
341.182
340.639
340.374
342.709
340.221
339.005
341.806
341.269
341.452
339.952
340.347
340.467
339.8
341.278
338.995
340.156
340.792
339.613
343.323
340.487
341.797
339.755
341.256
341.465
342.766
342.125
341.059
340.888
340.808
340.604
342.601
342.413
341.03
341.043
341.188
340.374
340.55
340.126
339.54
340.041
341.361
341.182
339.962
340.442
341.176
339.613
339.41
341.58
339.776
339.093
341.058
341.769
342.968
341.531
343.11
339.418
340.064
340.548
339.952
339.964
342.951
342.522
341.411
342.444
342.603
341.12
340.023
340.959
341.167
342.527
340.511
340.567
339.853
340.103
340.038
340.793
340.555
339.646
340.485
338.48
340.585
341.242
339.8
340.26
340.016
340.607
341.271
339.68
339.797
340.068
340.504
340.323
340.668
342.841
341.566
340.853
340.647
339.981
340.806
340.376
340.46
340.461
340.365
342.624
341.203
343.066
340.235
341.745
339.895
342.308
340.991
340.175
340.045
341.457
341.25
342.938
342.073
341.803
343.495
341.063
340.949
340.763
340.667
341.808
341.485
340.84
339.962
339.662
339.792
341.06
340.865
341.697
340.693
339.776
339.946
340.237
341.183
340.597
341.782
341.248
340.167
340.41
340.662
341.189
341.052
340.095
342.247
340.096
339.451
340.117
341.172
340.47
340.968
342.624
341.192
341.492
340.677
340.196
341.114
339.828
340.791
338.96
340.599
340.51
339.05
339.23
339.211
340.383
341.264
338.869
340.632
341.05
340.702
340.218
341.4
341.316
340.94
341.509
340.759
341.694
340.947
340.482
339.368
339.812
341.343
340.818
340.963
340.22
341.595
339.347
340.108
340.303
340.78
341.062
340.669
342.588
340.129
339.507
338.417
340.797
342.031
340.796
341.544
340.09
340.376
340.224
340.415
340.651
341.522
342.199
341.129
340.665
341.155
340.327
340.064
339.742
340.605
341.276
340.624
341.144
340.755
340.204
340.547
342.246
340.09
340.123
340.238
340.817
340.723
341.012
341.369
341.661
341.815
341.379
339.199
339.449
339.517
341.265
340.688
341.037
341.573
340.996
340.741
339.253
339.803
341.369
340.786
339.506
339.925
340.345
341.029
340.705
340.475
342.704
340.317
340.334
339.327
340.857
341.389
340.848
341.151
340.799
340.884
340.51
340.886
340.859
341.942
343.812
341.403
343.537
340.173
339.721
339.666
340.853
340.369
340.506
343.084
341.234
340.842
340.857
340.329
339.592
340.872
341.431
341.065
341.09
340.739
342.505
340.518
339.791
340.338
339.5
340.371
339.504
341.447
341.158
340.962
341.266
339.275
339.795
340.544
340.434
340.639
339.853
343.841
341.121
341.179
341.033
339.853
340.382
339.449
340.705
341.342
340.637
341.165
340.009
339.84
340.472
341.04
340.385
340.037
342.595
341.901
343.555
340.556
341.329
340.886
341.326
341.011
341.368
343.097
341.87
340.579
339.394
340.356
339.305
341.248
340.696
340.982
341.122
340.685
340.267
340.007
340.511
340.859
341.203
340.709
341.926
339.754
339.889
341.499
341.194
340.706
340.81
341.032
340.939
340.423
340.485
342.776
339.676
340.23
339.949
341.768
341.002
340.625
340.39
340.676
340.855
340.965
340.977
341.42
340.139
340.407
340.445
340.572
340.787
340.299
342.003
341.642
340.898
339.317
339.374
339.374
340.874
341.161
339.809
340.271
340.158
341.186
340.831
341.011
342.327
339.072
339.656
339.707
341.373
340.789
340.727
340.919
340.477
340.983
341.703
341.469
340.916
339.987
339.719
338.993
340.717
341.077
340.074
340.119
340.365
341.115
340.784
340.369
342.289
339.824
339.672
340.456
341.34
340.894
340.815
340.984
340.899
340.98
340.232
342.529
340.156
340.087
340.102
)
;
        refGradient     uniform 0;
        valueFraction   nonuniform List<scalar> 
1536
(
0.000138601
0.000157376
0.00016705
0.000414358
0.000396073
0.000224891
0.000245031
0.000215206
0.000230431
0.000398567
0.000393322
0.00039595
0.000221928
0.000235156
0.000395678
0.000373917
0.000229892
0.000253932
0.000348499
0.000209501
0.000224169
0.000209117
0.000221149
0.000363787
0.000364529
0.00036394
0.00034546
0.000364359
0.00018525
0.00015911
0.000169341
0.000427468
0.000419657
0.00014581
0.000159764
0.000163324
0.00041917
0.000418075
0.000417277
0.000146855
0.000158825
0.000163219
0.000346278
0.000345952
0.000328748
0.000324464
0.000263679
0.000318547
0.000330844
0.000259509
0.000322086
0.000329307
0.00025903
0.000347008
0.000206838
0.000216798
0.000213442
0.000229337
0.000219238
0.000239214
0.000214195
0.000225337
0.000228152
0.000259147
0.000222453
0.000249376
0.000400844
0.000399326
0.000332043
0.000224641
0.00024275
0.000216125
0.000229339
0.000224278
0.000254246
0.000214842
0.000226406
0.000158923
0.000143078
0.000166885
0.000403811
0.000423707
0.000416774
0.000146131
0.000163137
0.000163347
0.000216434
0.000227451
0.00021956
0.00023918
0.000213723