/*--------------------------------*- C++ -*----------------------------------*\
| =========                 |                                                 |
| \\      /  F ield         | OpenFOAM: The Open Source CFD Toolbox           |
|  \\    /   O peration     | Version:  v1912                                 |
|   \\  /    A nd           | Website:  www.openfoam.com                      |
|    \\/     M anipulation  |                                                 |
\*---------------------------------------------------------------------------*/
FoamFile
{
    version     2.0;
    format      ascii;
    class       surfaceScalarField;
    location    "396/oil";
    object      phi;
}
// * * * * * * * * * * * * * * * * * * * * * * * * * * * * * * * * * * * * * //

dimensions      [1 0 -1 0 0 0 0];
oriented        oriented;


internalField   nonuniform List<scalar> 
104676
(
-1.24175e-11
2.83644e-11
-1.57404e-11
2.84013e-10
-2.33179e-10
-6.32458e-11
8.90522e-10
-4.37834e-10
-1.68671e-10
1.7134e-09
-5.34318e-10
-2.88559e-10
2.63174e-09
-5.46363e-10
-3.71977e-10
3.5247e-09
-4.96827e-10
-3.96128e-10
4.28318e-09
-4.03707e-10
-3.54769e-10
4.81599e-09
-2.80377e-10
-2.52426e-10
5.05209e-09
-1.37188e-10
-9.89162e-11
4.95277e-09
1.2947e-11
8.63855e-11
4.49922e-09
1.6811e-10
2.85441e-10
3.72285e-09
2.9471e-10
4.81662e-10
2.66426e-09
4.09752e-10
6.4885e-10
1.39946e-09
4.93081e-10
7.71727e-10
2.52669e-11
5.37111e-10
8.37087e-10
-1.35318e-09
5.3948e-10
8.38974e-10
-2.62134e-09
4.93488e-10
7.74676e-10
-3.68404e-09
4.09339e-10
6.53365e-10
-4.46777e-09
2.96389e-10
4.8734e-10
-4.92675e-09
1.6443e-10
2.94558e-10
-5.03807e-09
1.40249e-11
9.73076e-11
-4.80702e-09
-1.40094e-10
-9.09565e-11
-4.27835e-09
-2.82732e-10
-2.45931e-10
-3.52295e-09
-4.05901e-10
-3.49489e-10
-2.63251e-09
-4.98604e-10
-3.91832e-10
-1.71595e-09
-5.49086e-10
-3.6747e-10
-8.93613e-10
-5.3842e-10
-2.83916e-10
-2.86785e-10
-4.42527e-10
-1.64297e-10
1.04838e-11
-2.37384e-10
-5.98811e-11
2.4055e-11
-1.35696e-11
2.90516e-10
-5.52655e-10
2.9051e-10
1.12209e-09
-1.66179e-09
5.97043e-10
2.44356e-09
-2.49887e-09
7.39571e-10
4.108e-09
-3.00905e-09
8.10296e-10
5.91526e-09
-3.25376e-09
9.00135e-10
7.6498e-09
-3.29309e-09
1.06173e-09
9.10794e-09
-3.17852e-09
1.31667e-09
1.01134e-08
-2.95066e-09
1.6648e-09
1.05289e-08
-2.64358e-09
2.09093e-09
1.02664e-08
-2.28795e-09
2.56344e-09
9.2849e-09
-1.9138e-09
3.06337e-09
7.6387e-09
-1.58615e-09
3.52706e-09
5.45082e-09
-1.29799e-09
3.89563e-09
2.8599e-09
-1.08953e-09
4.17353e-09
5.09986e-11
-9.80516e-10
4.32654e-09
-2.76871e-09
-9.81207e-10
4.3404e-09
-5.36641e-09
-1.09466e-09
4.18585e-09
-7.55592e-09
-1.30681e-09
3.90567e-09
-9.188e-09
-1.59561e-09
3.52409e-09
-1.01718e-08
-1.92955e-09
3.07775e-09
-1.04493e-08
-2.2986e-09
2.59012e-09
-1.00471e-08
-2.65164e-09
2.10941e-09
-9.05802e-09
-2.95569e-09
1.68387e-09
-7.61758e-09
-3.18255e-09
1.33622e-09
-5.89758e-09
-3.29813e-09
1.07953e-09
-4.10326e-09
-3.26046e-09
9.17064e-10
-2.44695e-09
-3.02016e-09
8.25426e-10
-1.12634e-09
-2.51344e-09
7.5032e-10
-2.91962e-10
-1.67363e-09
6.01872e-10
-5.58821e-10
2.90918e-10
6.1184e-10
-1.78218e-09
6.17691e-10
1.94522e-09
-4.31699e-09
1.32183e-09
3.81575e-09
-6.12946e-09
1.76006e-09
6.03954e-09
-7.31255e-09
2.07972e-09
8.38635e-09
-7.99268e-09
2.39211e-09
1.06027e-08
-8.27465e-09
2.76521e-09
1.24409e-08
-8.24869e-09
3.23198e-09
1.36815e-08
-7.98927e-09
3.79805e-09
1.41531e-08
-7.56413e-09
4.44892e-09
1.37463e-08
-7.03015e-09
5.14903e-09
1.24073e-08
-6.44912e-09
5.87429e-09
1.01929e-08
-5.89982e-09
6.52808e-09
7.26338e-09
-5.41816e-09
7.0497e-09
3.80768e-09
-5.06653e-09
7.4327e-09
6.55297e-11
-4.88529e-09
7.64693e-09
-3.69437e-09
-4.89397e-09
7.67266e-09
-7.16044e-09
-5.07862e-09
7.45004e-09
-1.00898e-08
-5.43226e-09
7.05484e-09
-1.22907e-08
-5.91041e-09
6.51564e-09
-1.36463e-08
-6.46451e-09
5.89058e-09
-1.40749e-08
-7.04422e-09
5.17421e-09
-1.36191e-08
-7.57419e-09
4.46677e-09
-1.23953e-08
-7.99713e-09
3.81764e-09
-1.05747e-08
-8.25459e-09
3.25145e-09
-8.37453e-09
-8.28197e-09
2.7837e-09
-6.03873e-09
-8.0048e-09
2.40854e-09
-3.82211e-09
-7.32954e-09
2.09278e-09
-1.95281e-09
-6.15006e-09
1.76731e-09
-6.15482e-10
-4.33302e-09
1.32207e-09
-1.79082e-09
6.16516e-10
8.77685e-10
-3.54823e-09
8.88368e-10
2.63338e-09
-7.98943e-09
1.91674e-09
4.94916e-09
-1.10378e-08
2.59253e-09
7.59897e-09
-1.30758e-08
3.11344e-09
1.03295e-08
-1.43359e-08
3.61267e-09
1.2868e-08
-1.49784e-08
4.16527e-09
1.49463e-08
-1.51366e-08
4.80958e-09
1.63244e-08
-1.49208e-08
5.55333e-09
1.68078e-08
-1.44312e-08
6.38374e-09
1.62702e-08
-1.37599e-08
7.26738e-09
1.46488e-08
-1.29997e-08
8.17209e-09
1.20198e-08
-1.22414e-08
8.97061e-09
8.55792e-09
-1.1581e-08
9.62472e-09
4.48307e-09
-1.10722e-08
1.00805e-08
7.40059e-11
-1.08129e-08
1.03367e-08
-4.35859e-09
-1.08313e-08
1.03699e-08
-8.44713e-09
-1.10852e-08
1.00951e-08
-1.19107e-08
-1.15807e-08
9.61203e-09
-1.45274e-08
-1.22446e-08
8.95088e-09
-1.61623e-08
-1.30059e-08
8.1763e-09
-1.67197e-08
-1.37663e-08
7.27947e-09
-1.6254e-08
-1.4436e-08
6.3961e-09
-1.48952e-08
-1.49248e-08
5.56893e-09
-1.28346e-08
-1.51401e-08
4.82489e-09
-1.03134e-08
-1.49845e-08
4.18134e-09
-7.59743e-09
-1.4348e-08
3.62727e-09
-4.95455e-09
-1.30957e-08
3.12326e-09
-2.64088e-09
-1.10571e-08
2.59337e-09
-8.84184e-10
-7.99595e-09
1.90623e-09
-3.5601e-09
8.851e-10
1.07822e-09
-5.71464e-09
1.08819e-09
3.15991e-09
-1.24228e-08
2.35167e-09
5.82456e-09
-1.69073e-08
3.20488e-09
8.80318e-09
-1.9929e-08
3.87457e-09
1.18214e-08
-2.18681e-08
4.514e-09
1.45929e-08
-2.29573e-08
5.20741e-09
1.68387e-08
-2.33775e-08
5.99514e-09
1.83059e-08
-2.32761e-08
6.88817e-09
1.8791e-08
-2.27861e-08
7.86975e-09
1.81551e-08
-2.2032e-08
8.90801e-09
1.63308e-08
-2.11419e-08
9.96643e-09
1.33973e-08
-2.02272e-08
1.09193e-08
9.53099e-09
-1.94061e-08
1.16913e-08
4.98975e-09
-1.87392e-08
1.22083e-08
7.96229e-11
-1.8402e-08
1.24992e-08
-4.85809e-09
-1.8427e-08
1.25334e-08
-9.40892e-09
-1.87555e-08
1.22212e-08
-1.32697e-08
-1.93824e-08
1.16626e-08
-1.62011e-08
-2.02211e-08
1.09078e-08
-1.80406e-08
-2.11412e-08
9.97485e-09
-1.86967e-08
-2.20324e-08
8.92228e-09
-1.82311e-08
-2.27865e-08
7.88495e-09
-1.67824e-08
-2.32776e-08
6.90407e-09
-1.45536e-08
-2.33799e-08
6.01093e-09
-1.17987e-08
-2.29619e-08
5.22243e-09
-8.796e-09
-2.18773e-08
4.52665e-09
-5.82797e-09
-1.99452e-08
3.88148e-09
-3.16534e-09
-1.69214e-08
3.20164e-09
-1.08386e-09
-1.24137e-08
2.33632e-09
-5.72926e-09
1.0853e-09
1.21296e-09
-8.15234e-09
1.22474e-09
3.52611e-09
-1.7378e-08
2.64204e-09
6.44433e-09
-2.34428e-08
3.61733e-09
9.66148e-09
-2.75394e-08
4.39332e-09
1.2887e-08
-3.02285e-08
5.1349e-09
1.58259e-08
-3.18326e-08
5.93644e-09
1.81929e-08
-3.25851e-08
6.84055e-09
1.9728e-08
-3.26718e-08
7.86066e-09
2.02201e-08
-3.22564e-08
8.9781e-09
1.95253e-08
-3.14924e-08
1.01552e-08
1.75729e-08
-3.05362e-08
1.13468e-08
1.44169e-08
-2.95416e-08
1.24703e-08
1.02517e-08
-2.86051e-08
1.33643e-08
5.36394e-09
-2.77917e-08
1.39402e-08
7.96137e-11
-2.73668e-08
1.42492e-08
-5.23468e-09
-2.7394e-08
1.42813e-08
-1.01221e-08
-2.78292e-08
1.39611e-08
-1.42734e-08
-2.85591e-08
1.33279e-08
-1.74333e-08
-2.95274e-08
1.24662e-08
-1.94041e-08
-3.0532e-08
1.13616e-08
-2.01216e-08
-3.14888e-08
1.01739e-08
-1.96504e-08
-3.22546e-08
8.99681e-09
-1.81342e-08
-3.26725e-08
7.87877e-09
-1.57844e-08
-3.25871e-08
6.85751e-09
-1.28605e-08
-3.18365e-08
5.95073e-09
-9.64918e-09
-3.02352e-08
5.14657e-09
-6.44367e-09
-2.7549e-08
4.39829e-09
-3.53178e-09
-2.34441e-08
3.61084e-09
-1.21921e-09
-1.73523e-08
2.62604e-09
-8.17165e-09
1.22319e-09
1.28077e-09
-1.07418e-08
1.30868e-09
3.7363e-09
-2.26639e-08
2.83044e-09
6.81438e-09
-3.03908e-08
3.8699e-09
1.01794e-08
-3.5609e-08
4.70459e-09
1.35322e-08
-3.90966e-08
5.51534e-09
1.65746e-08
-4.12725e-08
6.39744e-09
1.90204e-08
-4.24263e-08
7.39546e-09
2.06045e-08
-4.27814e-08
8.52547e-09
2.11127e-08
-4.25303e-08
9.76572e-09
2.03929e-08
-4.18474e-08
1.10748e-08
1.83729e-08
-4.09167e-08
1.24005e-08
1.50708e-08
-3.99169e-08
1.36774e-08
1.07214e-08
-3.89556e-08
1.46999e-08
5.60895e-09
-3.80091e-08
1.53299e-08
8.66707e-11
-3.75043e-08
1.56597e-08
-5.46083e-09
-3.75458e-08
1.56993e-08
-1.059e-08
-3.80796e-08
1.53796e-08
-1.49237e-08
-3.89001e-08
1.46746e-08
-1.82293e-08
-3.9903e-08
1.36813e-08
-2.02692e-08
-4.09158e-08
1.24238e-08
-2.10115e-08
-4.18473e-08
1.11009e-08
-2.05251e-08
-4.25307e-08
9.78974e-09
-1.89601e-08
-4.27843e-08
8.5468e-09
-1.65318e-08
-4.2431e-08
7.41562e-09
-1.35034e-08
-4.12778e-08
6.41282e-09
-1.01642e-08
-3.91013e-08
5.52685e-09
-6.81168e-09
-3.56086e-08
4.70717e-09
-3.74572e-09
-3.03652e-08
3.85516e-09
-1.29633e-09
-2.26018e-08
2.80011e-09
-1.07731e-08
1.30516e-09
1.30615e-09
-1.33843e-08
1.33641e-09
3.80315e-09
-2.80634e-08
2.90246e-09
6.93401e-09
-3.74942e-08
3.97251e-09
1.03495e-08
-4.38567e-08
4.83218e-09
1.37405e-08
-4.81643e-08
5.67675e-09
1.68135e-08
-5.09583e-08
6.61287e-09
1.92868e-08
-5.2582e-08
7.68246e-09
2.0897e-08
-5.32927e-08
8.90105e-09
2.14253e-08
-5.33061e-08
1.02475e-08
2.0717e-08
-5.28156e-08
1.16765e-08
1.86868e-08
-5.2016e-08
1.31296e-08
1.53343e-08
-5.11104e-08
1.4546e-08
1.09029e-08
-5.02369e-08
1.57127e-08
5.69564e-09
-4.91809e-08
1.63791e-08
8.61874e-11
-4.86412e-08
1.67464e-08
-5.55638e-09
-4.8692e-08
1.67888e-08
-1.08006e-08
-4.92534e-08
1.6418e-08
-1.51972e-08
-5.01778e-08
1.56743e-08
-1.85448e-08
-5.10996e-08
1.45442e-08
-2.05934e-08
-5.20194e-08
1.31521e-08
-2.1325e-08
-5.28185e-08
1.17029e-08
-2.08181e-08
-5.33099e-08
1.02722e-08
-1.92262e-08
-5.33e-08
8.92383e-09
-1.67694e-08
-5.2592e-08
7.70411e-09
-1.371e-08
-5.09677e-08
6.63057e-09
-1.0333e-08
-4.81669e-08
5.6886e-09
-6.93498e-09
-4.38331e-08
4.8264e-09
-3.8184e-09
-3.74237e-08
3.94189e-09
-1.32032e-09
-2.79622e-08
2.86228e-09
-1.34288e-08
1.33535e-09
1.28348e-09
-1.598e-08
1.31218e-09
3.721e-09
-3.33644e-08
2.86345e-09
6.78789e-09
-4.45046e-08
3.94352e-09
1.01442e-08
-5.20175e-08
4.8044e-09
1.34785e-08
-5.71397e-08
5.64116e-09
1.64962e-08
-6.05629e-08
6.58681e-09
1.89316e-08
-6.271e-08
7.69252e-09
2.05315e-08
-6.38583e-08
8.9658e-09
2.1077e-08
-6.4235e-08
1.03834e-08
2.04102e-08
-6.40479e-08
1.18991e-08
1.84504e-08
-6.34957e-08
1.34395e-08
1.51826e-08
-6.27745e-08
1.49318e-08
1.07771e-08
-6.20487e-08
1.62174e-08
5.62257e-09
-6.09601e-08
1.69338e-08
8.16317e-11
-6.04666e-08
1.73663e-08
-5.4994e-09
-6.05115e-08
1.74005e-08
-1.07052e-08
-6.09873e-08
1.69398e-08
-1.50702e-08
-6.19587e-08
1.61459e-08
-1.83154e-08
-6.27641e-08
1.49096e-08
-2.02895e-08
-6.35025e-08
1.34572e-08
-2.09776e-08
-6.4056e-08
1.19256e-08
-2.04529e-08
-6.42437e-08
1.04091e-08
-1.88716e-08
-6.38706e-08
8.98936e-09
-1.64519e-08
-6.27262e-08
7.71462e-09
-1.34491e-08
-6.05724e-08
6.60191e-09
-1.01384e-08
-5.71118e-08
5.6342e-09
-6.80574e-09
-5.19258e-08
4.76012e-09
-3.74715e-09
-4.436e-08
3.87774e-09
-1.29223e-09
-3.32344e-08
2.81734e-09
-1.60339e-08
1.31289e-09
1.21763e-09
-1.8428e-08
1.23039e-09
3.51837e-09
-3.83535e-08
2.68841e-09
6.38369e-09
-5.111e-08
3.74004e-09
9.54184e-09
-5.97722e-08
4.59661e-09
1.27051e-08
-6.57125e-08
5.40956e-09
1.55706e-08
-6.97414e-08
6.31307e-09
1.78886e-08
-7.24298e-08
7.40185e-09
1.94258e-08
-7.40742e-08
8.67861e-09
1.99771e-08
-7.48991e-08
1.01128e-08
1.9381e-08
-7.51096e-08
1.16577e-08
1.75606e-08
-7.49033e-08
1.3228e-08
1.45011e-08
-7.4457e-08
1.47421e-08
1.0261e-08
-7.38986e-08
1.609e-08
5.35002e-09
-7.29171e-08
1.6868e-08
7.56712e-11
-7.25185e-08
1.73262e-08
-5.22955e-09
-7.25608e-08
1.73546e-08
-1.01744e-08
-7.28907e-08
1.68482e-08
-1.43913e-08
-7.37177e-08
1.5976e-08
-1.74346e-08
-7.44321e-08
1.47113e-08
-1.92646e-08
-7.49154e-08
1.32428e-08
-1.98812e-08
-7.51225e-08
1.16832e-08
-1.9351e-08
-7.49117e-08
1.01379e-08
-1.78301e-08
-7.4093e-08
8.70145e-09
-1.55249e-08
-7.24523e-08
7.42089e-09
-1.26825e-08
-6.97268e-08
6.31195e-09
-9.55439e-09
-6.55965e-08
5.35669e-09
-6.40518e-09
-5.95785e-08
4.50345e-09
-3.52146e-09
-5.08991e-08
3.65544e-09
-1.21331e-09
-3.8193e-08
2.65047e-09
-1.84838e-08
1.23662e-09
1.09874e-09
-2.06187e-08
1.09198e-09
3.18201e-09
-4.27916e-08
2.35482e-09
5.74958e-09
-5.69748e-08
3.29731e-09
8.55496e-09
-6.67127e-08
4.13515e-09
1.13999e-08
-7.34777e-08
4.92029e-09
1.39939e-08
-7.80911e-08
5.75571e-09
1.61037e-08
-8.13109e-08
6.77126e-09
1.75196e-08
-8.3479e-08
7.9889e-09
1.80521e-08
-8.47966e-08
9.36507e-09
1.75539e-08
-8.54549e-08
1.08434e-08
1.59688e-08
-8.56284e-08
1.23103e-08
1.32556e-08
-8.54451e-08
1.37013e-08
9.34947e-09
-8.5012e-08
1.50195e-08
4.86559e-09
-8.4368e-08
1.59348e-08
6.84441e-11
-8.41344e-08
1.64131e-08
-4.74759e-09
-8.41769e-08
1.64321e-08
-9.208e-09
-8.43466e-08
1.59163e-08
-1.30429e-08
-8.49222e-08
1.50394e-08
-1.57941e-08
-8.55528e-08
1.3872e-08
-1.74343e-08
-8.56767e-08
1.24015e-08
-1.79584e-08
-8.54744e-08
1.0876e-08
-1.74488e-08
-8.4806e-08
9.38465e-09
-1.60465e-08
-8.35002e-08
8.0049e-09
-1.39446e-08
-8.13344e-08
6.78021e-09
-1.13751e-08
-7.8023e-08
5.72678e-09
-8.55459e-09
-7.32399e-08
4.82281e-09
-5.71309e-09
-6.64389e-08
4.01891e-09
-3.12548e-09
-5.67296e-08
3.24284e-09
-1.06653e-09
-4.25978e-08
2.34585e-09
-2.065e-08
1.09963e-09
9.25703e-10
-2.24456e-08
9.01147e-10
2.70053e-09
-4.6459e-08
1.89262e-09
4.86983e-09
-6.17481e-08
2.60391e-09
7.22247e-09
-7.23838e-08
3.3184e-09
9.56583e-09
-7.98945e-08
4.07345e-09
1.17422e-08
-8.51188e-08
4.85143e-09
1.35412e-08
-8.88569e-08
5.74705e-09
1.47778e-08
-9.15477e-08
6.83212e-09
1.52804e-08
-9.33623e-08
8.06316e-09
1.49145e-08
-9.4435e-08
9.34605e-09
1.35908e-08
-9.49078e-08
1.0603e-08
1.12267e-08
-9.50158e-08
1.19349e-08
7.92939e-09
-9.49062e-08
1.31915e-08
4.13892e-09
-9.46156e-08
1.4038e-08
5.69233e-11
-9.45207e-08
1.44683e-08
-4.05436e-09
-9.4496e-08
1.44304e-08
-7.85156e-09
-9.44652e-08
1.39158e-08
-1.11015e-08
-9.47717e-08
1.30994e-08
-1.34227e-08
-9.52842e-08
1.20526e-08
-1.47758e-08
-9.50026e-08
1.06791e-08
-1.51757e-08
-9.44196e-08
9.34509e-09
-1.47063e-08
-9.33255e-08
8.05006e-09
-1.34853e-08
-9.15503e-08
6.82919e-09
-1.16752e-08
-8.888e-08
5.73543e-09
-9.49952e-09
-8.50069e-08
4.80822e-09
-7.13896e-09
-7.96375e-08
4.03708e-09
-4.79317e-09
-7.21699e-08
3.38522e-09
-2.63946e-09
-6.1636e-08
2.75273e-09
-9.10479e-10
-4.63218e-08
1.99497e-09
-2.24916e-08
9.31075e-10
7.10114e-10
-2.38349e-08
6.79228e-10
2.04547e-09
-4.92415e-08
1.44711e-09
3.72e-09
-6.53768e-08
1.95427e-09
5.51342e-09
-7.6569e-08
2.39178e-09
7.25179e-09
-8.45668e-08
2.93393e-09
8.86981e-09
-9.03272e-08
3.59037e-09
1.02344e-08
-9.45522e-08
4.33072e-09
1.12213e-08
-9.77064e-08
5.17177e-09
1.17032e-08
-9.99584e-08
6.11431e-09
1.14455e-08
-1.01313e-07
7.13552e-09
1.03115e-08
-1.02044e-07
8.27065e-09
8.41129e-09
-1.02552e-07
9.43661e-09
6.02237e-09
-1.02937e-07
1.04196e-08
3.18082e-09
-1.02869e-07
1.10949e-08
4.96067e-11
-1.02808e-07
1.14189e-08
-3.13388e-09
-1.02656e-07
1.13434e-08
-6.03395e-09
-1.02492e-07
1.09268e-08
-8.4752e-09
-1.02556e-07
1.02251e-08
-1.03177e-08
-1.02674e-07
9.23276e-09
-1.13394e-08
-1.01997e-07
8.01613e-09
-1.15879e-08
-1.01137e-07
6.96602e-09
-1.11913e-08
-9.97166e-08
5.99446e-09
-1.02573e-08
-9.75862e-08
5.10192e-09
-8.89977e-09
-9.45879e-08
4.35039e-09
-7.24592e-09
-9.03633e-08
3.70252e-09
-5.449e-09
-8.45478e-08
3.11332e-09
-3.65816e-09
-7.65528e-08
2.59208e-09
-2.01383e-09
-6.53714e-08
2.09107e-09
-6.95643e-10
-4.91511e-08
1.5111e-09
-2.38912e-08
7.03962e-10
4.79614e-10
-2.47275e-08
4.12981e-10
1.29346e-09
-5.09235e-08
8.6818e-10
2.33818e-09
-6.76773e-08
1.25578e-09
3.47207e-09
-7.92707e-08
1.56787e-09
4.58452e-09
-8.76063e-08
1.92702e-09
5.62564e-09
-9.37088e-08
2.34042e-09
6.49989e-09
-9.82061e-08
2.77965e-09
7.09337e-09
-1.0152e-07
3.2201e-09
7.4132e-09
-1.03978e-07
3.69979e-09
7.22603e-09
-1.05531e-07
4.40577e-09
6.48215e-09
-1.06575e-07
5.27415e-09
5.33138e-09
-1.07474e-07
6.0726e-09
3.82619e-09
-1.08129e-07
6.69693e-09
2.02787e-09
-1.08201e-07
7.13053e-09
5.98091e-11
-1.08211e-07
7.37116e-09
-1.93819e-09
-1.08008e-07
7.35012e-09
-3.76986e-09
-1.07766e-07
7.1057e-09
-5.28152e-09
-1.07704e-07
6.65976e-09
-6.46237e-09
-1.07545e-07
6.05153e-09
-7.18852e-09
-1.0652e-07
5.24902e-09
-7.45898e-09
-1.05268e-07
4.40175e-09
-7.24752e-09
-1.0354e-07
3.61227e-09
-6.60726e-09
-1.01233e-07
3.00644e-09
-5.66143e-09
-9.81254e-08
2.59167e-09
-4.56976e-09
-9.3718e-08
2.26304e-09
-3.42306e-09
-8.76371e-08
1.94262e-09
-2.29164e-09
-7.9309e-08
1.62471e-09
-1.2578e-09
-6.7715e-08
1.3098e-09
-4.34895e-10
-5.09184e-08
9.44416e-10
-2.47657e-08
4.39633e-10
1.7511e-10
-2.50428e-08
1.40195e-10
4.49209e-10
-5.14978e-08
3.00171e-10
8.16673e-10
-6.8493e-08
4.48194e-10
1.22026e-09
-8.02341e-08
5.59792e-10
1.62784e-09
-8.86854e-08
6.71508e-10
2.04079e-09
-9.48863e-08
7.64623e-10
2.42482e-09
-9.9436e-08
8.45815e-10
2.65403e-09
-1.02727e-07
9.77602e-10
2.68615e-09
-1.05194e-07
1.18395e-09
2.5413e-09
-1.06865e-07
1.47821e-09
2.31107e-09
-1.08131e-07
1.78652e-09
1.97347e-09
-1.09184e-07
2.04734e-09
1.33834e-09
-1.09718e-07
2.22416e-09
6.64608e-10
-1.09877e-07
2.34959e-09
3.46243e-11
-1.10057e-07
2.47552e-09
-6.66544e-10
-1.09889e-07
2.58237e-09
-1.32259e-09
-1.09687e-07
2.57726e-09
-1.84118e-09
-1.09593e-07
2.40802e-09
-2.24967e-09
-1.0932e-07
2.18364e-09
-2.50228e-09
-1.08176e-07
1.90853e-09
-2.60495e-09
-1.06784e-07
1.61789e-09
-2.54079e-09
-1.04942e-07
1.33719e-09
-2.31791e-09
-1.02564e-07
1.10809e-09
-1.98348e-09
-9.93937e-08
9.33929e-10
-1.5948e-09
-9.48959e-08
7.89204e-10
-1.18827e-09
-8.87028e-08
6.59176e-10
-7.8892e-10
-8.02535e-08
5.45192e-10
-4.28067e-10
-6.85146e-08
4.38703e-10
-1.4716e-10
-5.15125e-08
3.13186e-10
-2.50637e-08
1.50826e-10
-1.23747e-10
-2.4783e-08
-1.36098e-10
-3.84614e-10
-5.09623e-08
-2.7465e-10
-7.05502e-10
-6.77976e-08
-3.74514e-10
-1.05664e-09
-7.94165e-08
-4.66493e-10
-1.41881e-09
-8.77712e-08
-5.52037e-10
-1.78283e-09
-9.39092e-08
-6.13067e-10
-2.12262e-09
-9.84372e-08
-6.58984e-10
-2.33847e-09
-1.01762e-07
-7.49163e-10
-2.34318e-09
-1.04231e-07
-9.58364e-10
-2.18588e-09
-1.05751e-07
-1.27141e-09
-1.98183e-09
-1.06766e-07
-1.56912e-09
-1.80499e-09
-1.07592e-07
-1.76862e-09
-1.52497e-09
-1.081e-07
-1.89808e-09
-9.41242e-10
-1.08427e-07
-2.03335e-09
-9.03974e-11
-1.08669e-07
-2.23921e-09
6.08693e-10
-1.0827e-07
-2.31885e-09
1.21056e-09
-1.08064e-07
-2.2254e-09
1.75148e-09
-1.08055e-07
-2.07849e-09
2.04954e-09
-1.07729e-07
-1.88946e-09
2.24092e-09
-1.067e-07
-1.66735e-09
2.33601e-09
-1.05459e-07
-1.41944e-09
2.28435e-09
-1.03725e-07
-1.16525e-09
2.10553e-09
-1.01419e-07
-9.65967e-10
1.80534e-09
-9.82713e-08
-8.22207e-10
1.45735e-09
-9.38359e-08
-7.11957e-10
1.09633e-09
-8.77343e-08
-6.07486e-10
7.35798e-10
-7.93896e-08
-5.03354e-10
4.09026e-10
-6.7789e-08
-3.98871e-10
1.47379e-10
-5.09738e-08
-2.77048e-10
-2.47873e-08
-1.28997e-10
-4.19493e-10
-2.394e-08
-4.23492e-10
-1.21892e-09
-4.92567e-08
-9.06149e-10
-2.21684e-09
-6.55413e-08
-1.25837e-09
-3.3097e-09
-7.67609e-08
-1.56273e-09
-4.40779e-09
-8.47927e-08
-1.88036e-09
-5.42566e-09
-9.0656e-08
-2.23533e-09
-6.27134e-09
-9.49586e-08
-2.63294e-09
-6.87012e-09
-9.80819e-08
-3.08106e-09
-7.14699e-09
-1.0037e-07
-3.58421e-09
-6.93333e-09
-1.01729e-07
-4.23564e-09
-6.22117e-09
-1.02427e-07
-5.05068e-09
-5.19541e-09
-1.02833e-07
-5.78477e-09
-3.80004e-09
-1.03146e-07
-6.34902e-09
-2.04523e-09
-1.0339e-07
-6.7921e-09
-3.72369e-11
-1.03597e-07
-7.07956e-09
1.90254e-09
-1.03156e-07
-7.05294e-09
3.72644e-09
-1.03078e-07
-6.80937e-09
5.32234e-09
-1.03282e-07
-6.36961e-09
6.27995e-09
-1.02924e-07
-5.76273e-09
6.90236e-09
-1.02251e-07
-5.07121e-09
7.1781e-09
-1.01459e-07
-4.27604e-09
6.97197e-09
-1.00072e-07
-3.44612e-09
6.37572e-09
-9.79232e-08
-2.89968e-09
5.46361e-09
-9.48233e-08
-2.53594e-09
4.41602e-09
-9.05793e-08
-2.20907e-09
3.33118e-09
-8.47673e-08
-1.88221e-09
2.24248e-09
-7.67506e-08
-1.55037e-09
1.25353e-09
-6.55742e-08
-1.22582e-09
4.55353e-10
-4.93231e-08
-8.5258e-10
-2.39254e-08
-4.0651e-10
-6.86253e-10
-2.25658e-08
-6.87982e-10
-1.97854e-09
-4.64865e-08
-1.47793e-09
-3.59255e-09
-6.18753e-08
-2.05196e-09
-5.35171e-09
-7.24541e-08
-2.54762e-09
-7.11062e-09
-7.99689e-08
-3.06493e-09
-8.71692e-09
-8.53857e-08
-3.66399e-09
-1.00265e-08
-8.92947e-08
-4.35431e-09
-1.09536e-08
-9.20012e-08
-5.1536e-09
-1.14169e-08
-9.38519e-08
-6.05475e-09
-1.11884e-08
-9.49624e-08
-6.99476e-09
-1.01047e-08
-9.54355e-08
-8.07573e-09
-8.30579e-09
-9.54377e-08
-9.1943e-09
-5.95207e-09
-9.53591e-08
-1.01407e-08
-3.14664e-09
-9.53655e-08
-1.08302e-08
-4.11617e-11
-9.55008e-08
-1.12018e-08
3.04875e-09
-9.51287e-08
-1.11176e-08
5.92677e-09
-9.51933e-08
-1.07628e-08
8.41891e-09
-9.5681e-08
-1.00929e-08
1.01138e-08
-9.54973e-08
-9.12129e-09
1.11383e-08
-9.52252e-08
-8.05039e-09
1.14486e-08
-9.47964e-08
-6.97281e-09
1.10562e-08
-9.3788e-08
-5.89213e-09
1.00864e-08
-9.1994e-08
-4.95941e-09
8.71134e-09
-8.92648e-08
-4.18341e-09
7.08292e-09
-8.54317e-08
-3.51919e-09
5.35751e-09
-8.01145e-08
-2.92734e-09
3.63324e-09
-7.26172e-08
-2.40905e-09
2.04027e-09
-6.20663e-08
-1.91495e-09
7.28833e-10
-4.66651e-08
-1.34653e-09
-2.25469e-08
-6.49707e-10
-9.15961e-10
-2.07401e-08
-9.09699e-10
-2.61668e-09
-4.28278e-08
-1.958e-09
-4.74487e-09
-5.7015e-08
-2.73213e-09
-7.06792e-09
-6.67575e-08
-3.37352e-09
-9.40131e-09
-7.36077e-08
-4.0278e-09
-1.15628e-08
-7.84329e-08
-4.79129e-09
-1.33619e-08
-8.17862e-08
-5.70937e-09
-1.45771e-08
-8.39958e-08
-6.79021e-09
-1.50727e-08
-8.5359e-08
-7.99729e-09
-1.47189e-08
-8.6069e-08
-9.24722e-09
-1.33933e-08
-8.62715e-08
-1.04896e-08
-1.10225e-08
-8.60482e-08
-1.17602e-08
-7.82914e-09
-8.55905e-08
-1.29619e-08
-4.10216e-09
-8.52509e-08
-1.38416e-08
-3.34164e-11
-8.52617e-08
-1.43079e-08
4.02591e-09
-8.49977e-08
-1.41903e-08
7.79004e-09
-8.5208e-08
-1.37494e-08
1.10333e-08
-8.59528e-08
-1.29715e-08
1.33626e-08
-8.61305e-08
-1.16961e-08
1.47036e-08
-8.62275e-08
-1.03386e-08
1.50932e-08
-8.60509e-08
-9.13502e-09
1.46217e-08
-8.53792e-08
-7.93728e-09
1.34059e-08
-8.40309e-08
-6.74723e-09
1.16276e-08
-8.18145e-08
-5.67199e-09
9.47215e-09
-7.85077e-08
-4.76854e-09
7.15381e-09
-7.38126e-08
-3.98355e-09
4.85749e-09
-6.71085e-08
-3.21239e-09
2.71627e-09
-5.74398e-08
-2.48531e-09
9.59699e-10
-4.31543e-08
-1.75427e-09
-2.07277e-08
-8.59541e-10
-1.09435e-09
-1.85623e-08
-1.08343e-09
-3.11722e-09
-3.84849e-08
-2.32005e-09
-5.67607e-09
-5.12132e-08
-3.243e-09
-8.49961e-09
-5.99159e-08
-4.01804e-09
-1.1317e-08
-6.59829e-08
-4.80737e-09
-1.38871e-08
-7.01634e-08
-5.69947e-09
-1.59899e-08
-7.29361e-08
-6.74731e-09
-1.73961e-08
-7.46275e-08
-7.96219e-09
-1.79211e-08
-7.55004e-08
-9.33363e-09
-1.74255e-08
-7.57616e-08
-1.08031e-08
-1.58401e-08
-7.55931e-08
-1.22638e-08
-1.31181e-08
-7.51571e-08
-1.36131e-08
-9.30222e-09
-7.45498e-08
-1.48566e-08
-4.82901e-09
-7.38746e-08
-1.58495e-08
-2.43551e-11
-7.36495e-08
-1.64169e-08
4.76338e-09
-7.34609e-08
-1.63245e-08
9.22324e-09
-7.38308e-08
-1.58371e-08
1.3035e-08
-7.47637e-08
-1.50008e-08
1.57925e-08
-7.52113e-08
-1.36768e-08
1.7417e-08
-7.56087e-08
-1.22434e-08
1.793e-08
-7.57796e-08
-1.07843e-08
1.74138e-08
-7.55302e-08
-9.3328e-09
1.60135e-08
-7.46654e-08
-7.96515e-09
1.39227e-08
-7.2977e-08
-6.74677e-09
1.13474e-08
-7.02171e-08
-5.71532e-09
8.51136e-09
-6.60997e-08
-4.87686e-09
5.6923e-09
-6.01592e-08
-4.13028e-09
3.14858e-09
-5.15484e-08
-3.34765e-09
1.1026e-09
-3.87348e-08
-2.37348e-09
-1.85439e-08
-1.08113e-09
-1.21488e-09
-1.61151e-08
-1.23241e-09
-3.51448e-09
-3.35272e-08
-2.65812e-09
-6.39409e-09
-4.46739e-08
-3.65968e-09
-9.54062e-09
-5.22708e-08
-4.49854e-09
-1.26725e-08
-5.75073e-08
-5.34371e-09
-1.55237e-08
-6.10163e-08
-6.29592e-09
-1.78366e-08
-6.3219e-08
-7.4041e-09
-1.93691e-08
-6.44129e-08
-8.68205e-09
-1.99139e-08
-6.48357e-08
-1.01199e-08
-1.9317e-08
-6.46926e-08
-1.16659e-08
-1.74968e-08
-6.41808e-08
-1.32325e-08
-1.44566e-08
-6.34961e-08
-1.47012e-08
-1.02666e-08
-6.27729e-08
-1.59669e-08
-5.29211e-09
-6.1967e-08
-1.68821e-08
-1.60862e-11
-6.1495e-08
-1.74305e-08
5.2711e-09
-6.1375e-08
-1.73731e-08
1.02303e-08
-6.18835e-08
-1.69064e-08
1.43993e-08
-6.28381e-08
-1.60946e-08
1.74603e-08
-6.35169e-08
-1.47553e-08
1.92991e-08
-6.41997e-08
-1.32479e-08
1.9911e-08
-6.47141e-08
-1.16774e-08
1.93759e-08
-6.48633e-08
-1.01318e-08
1.78508e-08
-6.44469e-08
-8.6934e-09
1.55448e-08
-6.32594e-08
-7.41165e-09
1.26959e-08
-6.10628e-08
-6.30545e-09
9.54508e-09
-5.75698e-08
-5.37905e-09
6.36625e-09
-5.23883e-08
-4.59211e-09
3.4804e-09
-4.48654e-08
-3.79717e-09
1.20706e-09
-3.37132e-08
-2.74827e-09
-1.61002e-08
-1.23665e-09
-1.27005e-09
-1.352e-08
-1.32497e-09
-3.74174e-09
-2.81984e-08
-2.85711e-09
-6.81741e-09
-3.77082e-08
-3.88998e-09
-1.01594e-08
-4.41664e-08
-4.76245e-09
-1.34827e-08
-4.85479e-08
-5.63611e-09
-1.64995e-08
-5.13936e-08
-6.60595e-09
-1.89357e-08
-5.30607e-08
-7.72206e-09
-2.05352e-08
-5.38121e-08
-9.00126e-09
-2.10784e-08
-5.38648e-08
-1.04278e-08
-2.04056e-08
-5.34146e-08
-1.19507e-08
-1.84382e-08
-5.26505e-08
-1.34978e-08
-1.518e-08
-5.17721e-08
-1.49822e-08
-1.07951e-08
-5.08961e-08
-1.62616e-08
-5.55698e-09
-5.0078e-08
-1.71272e-08
-8.39339e-12
-4.95028e-08
-1.75408e-08
5.5574e-09
-4.94536e-08
-1.74872e-08
1.07733e-08
-5.00261e-08
-1.70734e-08
1.5141e-08
-5.09343e-08
-1.62715e-08
1.84028e-08
-5.17882e-08
-1.49906e-08
2.03829e-08
-5.2666e-08
-1.35138e-08
2.10683e-08
-5.34323e-08
-1.19672e-08
2.05361e-08
-5.38886e-08
-1.04425e-08
1.89456e-08
-5.38416e-08
-9.01483e-09
1.65138e-08
-5.30955e-08
-7.73217e-09
1.34997e-08
-5.14338e-08
-6.61488e-09
1.01735e-08
-4.85947e-08
-5.64891e-09
6.8119e-09
-4.423e-08
-4.79664e-09
3.72754e-09
-3.78243e-08
-3.95674e-09
1.28084e-09
-2.83658e-08
-2.90071e-09
-1.35007e-08
-1.3187e-09
-1.31017e-09
-1.08623e-08
-1.34757e-09
-3.82868e-09
-2.27931e-08
-2.88673e-09
-6.96435e-09
-3.06185e-08
-3.95401e-09
-1.03811e-08
-3.59113e-08
-4.83837e-09
-1.37792e-08
-3.94463e-08
-5.70348e-09
-1.68605e-08
-4.16618e-08
-6.65041e-09
-1.93401e-08
-4.28506e-08
-7.73061e-09
-2.09541e-08
-4.32391e-08
-8.95899e-09
-2.14803e-08
-4.30212e-08
-1.03174e-08
-2.07633e-08
-4.23712e-08
-1.17603e-08
-1.87168e-08
-4.14712e-08
-1.32259e-08
-1.53667e-08
-4.04858e-08
-1.46364e-08
-1.09612e-08
-3.95073e-08
-1.57943e-08
-5.71783e-09
-3.87369e-08
-1.65844e-08
-4.50173e-11
-3.82367e-08
-1.69389e-08
5.601e-09
-3.81834e-08
-1.69162e-08
1.08231e-08
-3.8674e-08
-1.65741e-08
1.5297e-08
-3.95577e-08
-1.58506e-08
1.86811e-08
-4.05024e-08
-1.46699e-08
2.07375e-08
-4.14783e-08
-1.32441e-08
2.14668e-08
-4.23837e-08
-1.17779e-08
2.09501e-08
-4.30388e-08
-1.03331e-08
1.93441e-08
-4.32629e-08
-8.9726e-09
1.68697e-08
-4.28783e-08
-7.74282e-09
1.3791e-08
-4.16932e-08
-6.66185e-09
1.0393e-08
-3.94825e-08
-5.71425e-09
6.97069e-09
-3.59535e-08
-4.85425e-09
3.82012e-09
-3.06797e-08
-3.99397e-09
1.2976e-09
-2.28967e-08
-2.94662e-09
-1.08522e-08
-1.35093e-09
-1.29864e-09
-8.24619e-09
-1.31749e-09
-3.76484e-09
-1.75083e-08
-2.81865e-09
-6.85315e-09
-2.36572e-08
-3.87304e-09
-1.02316e-08
-2.78045e-08
-4.72838e-09
-1.35988e-08
-3.05259e-08
-5.55309e-09
-1.66561e-08
-3.21583e-08
-6.44627e-09
-1.9112e-08
-3.29377e-08
-7.45691e-09
-2.0703e-08
-3.305e-08
-8.59809e-09
-2.12111e-08
-3.26579e-08
-9.85516e-09
-2.04796e-08
-3.19183e-08
-1.11844e-08
-1.84354e-08
-3.09848e-08
-1.25307e-08
-1.51409e-08
-2.99883e-08
-1.3792e-08
-1.08064e-08
-2.90448e-08
-1.4797e-08
-5.66485e-09
-2.83423e-08
-1.55362e-08
-5.09859e-11
-2.7952e-08
-1.58986e-08
5.52897e-09
-2.78933e-08
-1.587e-08
1.06766e-08
-2.82938e-08
-1.5528e-08
1.50687e-08
-2.90885e-08
-1.48613e-08
1.83995e-08
-3.00071e-08
-1.38261e-08
2.04519e-08
-3.09878e-08
-1.25428e-08
2.1192e-08
-3.19251e-08
-1.11988e-08
2.06959e-08
-3.26713e-08
-9.87133e-09
1.91125e-08
-3.30664e-08
-8.61314e-09
1.66613e-08
-3.29581e-08
-7.46896e-09
1.36077e-08
-3.21825e-08
-6.45713e-09
1.02424e-08
-3.05534e-08
-5.56368e-09
6.86119e-09
-2.78333e-08
-4.739e-09
3.7649e-09
-2.36935e-08
-3.88997e-09
1.28395e-09
-1.75626e-08
-2.85309e-09
-8.2483e-09
-1.31991e-09
-1.22618e-09
-5.78657e-09
-1.23345e-09
-3.55725e-09
-1.25348e-08
-2.64242e-09
-6.49453e-09
-1.70885e-08
-3.63146e-09
-9.72975e-09
-2.01454e-08
-4.42389e-09
-1.29729e-08
-2.21038e-08
-5.17894e-09
-1.59297e-08
-2.32113e-08
-5.99023e-09
-1.83098e-08
-2.36501e-08
-6.90758e-09
-1.98541e-08
-2.3566e-08
-7.93976e-09
-2.03469e-08
-2.30924e-08
-9.07266e-09
-1.9638e-08
-2.23548e-08
-1.02725e-08
-1.76567e-08
-2.14735e-08
-1.14926e-08
-1.45047e-08
-2.05561e-08
-1.25842e-08
-1.03435e-08
-1.97364e-08
-1.34697e-08
-5.4161e-09
-1.91317e-08
-1.4138e-08
-4.43551e-11
-1.88209e-08
-1.45029e-08
5.29791e-09
-1.87733e-08
-1.44623e-08
1.02341e-08
-1.91006e-08
-1.41293e-08
1.44386e-08
-1.97628e-08
-1.35302e-08
1.7622e-08
-2.05713e-08
-1.26192e-08
1.9609e-08
-2.14788e-08
-1.14959e-08
2.03269e-08
-2.23588e-08
-1.02842e-08
1.98441e-08
-2.31002e-08
-9.08835e-09
1.83087e-08
-2.35769e-08
-7.95412e-09
1.59336e-08
-2.36635e-08
-6.91956e-09
1.29801e-08
-2.3228e-08
-6.00098e-09
9.7362e-09
-2.21218e-08
-5.18772e-09
6.50018e-09
-2.01648e-08
-4.43243e-09
3.56128e-09
-1.71134e-08
-3.64116e-09
1.22342e-09
-1.25673e-08
-2.65744e-09
-5.79021e-09
-1.23468e-09
-1.09283e-09
-3.5993e-09
-1.09445e-09
-3.19357e-09
-8.08185e-09
-2.35221e-09
-5.88364e-09
-1.11762e-08
-3.22219e-09
-8.88179e-09
-1.32393e-08
-3.90802e-09
-1.19177e-08
-1.4508e-08
-4.56001e-09
-1.47082e-08
-1.51583e-08
-5.26246e-09
-1.69681e-08
-1.53275e-08
-6.06264e-09
-1.84447e-08
-1.51228e-08
-6.96665e-09
-1.8931e-08
-1.46432e-08
-7.9628e-09
-1.82825e-08
-1.3982e-08
-9.02133e-09
-1.64425e-08
-1.32255e-08
-1.0088e-08
-1.35098e-08
-1.24712e-08
-1.10177e-08
-9.62733e-09
-1.18116e-08
-1.18072e-08
-5.03293e-09
-1.13263e-08
-1.23998e-08
-3.76345e-11
-1.10774e-08
-1.27387e-08
4.93345e-09
-1.10494e-08
-1.26949e-08
9.52835e-09
-1.13083e-08
-1.23873e-08
1.34368e-08
-1.18199e-08
-1.18514e-08
1.63995e-08
-1.24771e-08
-1.1057e-08
1.82535e-08
-1.32294e-08
-1.01034e-08
1.89108e-08
-1.39844e-08
-9.03167e-09
1.84342e-08
-1.46473e-08
-7.97635e-09
1.69653e-08
-1.51287e-08
-6.97932e-09
1.47098e-08
-1.53354e-08
-6.0725e-09
1.19218e-08
-1.51677e-08
-5.27238e-09
8.88615e-09
-1.45188e-08
-4.56731e-09
5.88929e-09
-1.32536e-08
-3.91432e-09
3.20135e-09
-1.11991e-08
-3.22637e-09
1.09538e-09
-8.10633e-09
-2.35503e-09
-3.60179e-09
-1.09303e-09
-8.93362e-10
-1.8138e-09
-8.92144e-10
-2.66906e-09
-4.38659e-09
-1.91956e-09
-5.01059e-09
-6.2252e-09
-2.60949e-09