/*--------------------------------*- C++ -*----------------------------------*\
| =========                 |                                                 |
| \\      /  F ield         | OpenFOAM: The Open Source CFD Toolbox           |
|  \\    /   O peration     | Version:  v1912                                 |
|   \\  /    A nd           | Website:  www.openfoam.com                      |
|    \\/     M anipulation  |                                                 |
\*---------------------------------------------------------------------------*/
FoamFile
{
    version     2.0;
    format      ascii;
    class       volVectorField;
    location    "396/oil";
    object      U;
}
// * * * * * * * * * * * * * * * * * * * * * * * * * * * * * * * * * * * * * //

dimensions      [0 1 -1 0 0 0 0];


internalField   nonuniform List<vector> 
35580
(
(-1.23037e-09 2.44878e-09 -1.25482e-09)
(1.25467e-09 2.22596e-09 -3.01313e-09)
(1.15586e-08 2.19548e-09 -4.84636e-09)
(2.77862e-08 2.74161e-09 -6.70259e-09)
(4.75157e-08 3.61362e-09 -8.19748e-09)
(6.79849e-08 4.64053e-09 -9.20387e-09)
(8.66385e-08 5.7245e-09 -9.71199e-09)
(1.01258e-07 6.81943e-09 -9.7789e-09)
(1.10031e-07 7.89709e-09 -9.49108e-09)
(1.1175e-07 8.92902e-09 -8.92961e-09)
(1.05756e-07 9.86116e-09 -8.1684e-09)
(9.20986e-08 1.065e-08 -7.40852e-09)
(7.16077e-08 1.12681e-08 -6.70264e-09)
(4.55679e-08 1.17378e-08 -6.19936e-09)
(1.59846e-08 1.19963e-08 -5.93608e-09)
(-1.48913e-08 1.20274e-08 -5.94137e-09)
(-4.45641e-08 1.17571e-08 -6.1991e-09)
(-7.0659e-08 1.12793e-08 -6.68747e-09)
(-9.12775e-08 1.06223e-08 -7.36269e-09)
(-1.05063e-07 9.84847e-09 -8.13306e-09)
(-1.11273e-07 8.9318e-09 -8.88625e-09)
(-1.09724e-07 7.8874e-09 -9.47293e-09)
(-1.01055e-07 6.80907e-09 -9.76e-09)
(-8.65329e-08 5.71704e-09 -9.70237e-09)
(-6.79501e-08 4.63278e-09 -9.1963e-09)
(-4.75379e-08 3.60903e-09 -8.19043e-09)
(-2.7843e-08 2.73744e-09 -6.6917e-09)
(-1.16236e-08 2.18497e-09 -4.82507e-09)
(-1.31064e-09 2.20356e-09 -2.98659e-09)
(1.20488e-09 2.40311e-09 -1.23524e-09)
(6.32129e-10 -2.29697e-09 6.17387e-10)
(1.26886e-08 -1.40415e-08 5.32871e-10)
(3.69683e-08 -2.34164e-08 -3.1709e-10)
(7.07965e-08 -2.85035e-08 -1.42842e-09)
(1.10159e-07 -3.01166e-08 -2.24837e-09)
(1.50331e-07 -2.91238e-08 -2.53117e-09)
(1.86574e-07 -2.62424e-08 -2.21963e-09)
(2.14616e-07 -2.20099e-08 -1.3562e-09)
(2.30921e-07 -1.68822e-08 -4.35514e-11)
(2.32998e-07 -1.12874e-08 1.5672e-09)
(2.1948e-07 -5.67268e-09 3.45245e-09)
(1.90397e-07 -5.23534e-10 5.22038e-09)
(1.47551e-07 3.7249e-09 6.77392e-09)
(9.37604e-08 6.82781e-09 7.88934e-09)
(3.28659e-08 8.47408e-09 8.47814e-09)
(-3.06595e-08 8.50904e-09 8.49726e-09)
(-9.17572e-08 6.79523e-09 7.91666e-09)
(-1.45644e-07 3.63083e-09 6.83551e-09)
(-1.88504e-07 -7.10394e-10 5.3214e-09)
(-2.17679e-07 -5.80165e-09 3.55503e-09)
(-2.31565e-07 -1.14084e-08 1.70135e-09)
(-2.298e-07 -1.6994e-08 4.9809e-11)
(-2.13751e-07 -2.20858e-08 -1.26811e-09)
(-1.85991e-07 -2.629e-08 -2.15007e-09)
(-1.49993e-07 -2.91709e-08 -2.47296e-09)
(-1.1002e-07 -3.01806e-08 -2.19607e-09)
(-7.07993e-08 -2.8602e-08 -1.38593e-09)
(-3.70233e-08 -2.3552e-08 -2.8058e-10)
(-1.27222e-08 -1.41816e-08 5.53216e-10)
(-6.38662e-10 -2.41473e-09 6.07546e-10)
(2.4789e-09 -2.26419e-08 2.4759e-09)
(2.49031e-08 -5.99511e-08 4.38573e-09)
(6.09612e-08 -8.75871e-08 4.78882e-09)
(1.07332e-07 -1.05164e-07 4.72888e-09)
(1.59136e-07 -1.14522e-07 4.82325e-09)
(2.10961e-07 -1.17433e-07 5.35657e-09)
(2.57116e-07 -1.15428e-07 6.43039e-09)
(2.92316e-07 -1.09754e-07 8.03546e-09)
(3.12117e-07 -1.01493e-07 1.00715e-08)
(3.13358e-07 -9.16485e-08 1.23592e-08)
(2.9422e-07 -8.12286e-08 1.48835e-08)
(2.54647e-07 -7.13185e-08 1.72217e-08)
(1.97006e-07 -6.30045e-08 1.91989e-08)
(1.25045e-07 -5.69827e-08 2.06287e-08)
(4.3801e-08 -5.37978e-08 2.13879e-08)
(-4.09594e-08 -5.38109e-08 2.14381e-08)
(-1.22531e-07 -5.71411e-08 2.06673e-08)
(-1.94614e-07 -6.33468e-08 1.92567e-08)
(-2.52203e-07 -7.1786e-08 1.72795e-08)
(-2.91977e-07 -8.1629e-08 1.49832e-08)
(-3.11591e-07 -9.20105e-08 1.24846e-08)
(-3.10723e-07 -1.01763e-07 1.01538e-08)
(-2.91251e-07 -1.09939e-07 8.11403e-09)
(-2.56386e-07 -1.15557e-07 6.50219e-09)
(-2.10535e-07 -1.17546e-07 5.42123e-09)
(-1.58954e-07 -1.14662e-07 4.8869e-09)
(-1.07314e-07 -1.05365e-07 4.78294e-09)
(-6.10113e-08 -8.7851e-08 4.82588e-09)
(-2.49541e-08 -6.02018e-08 4.39084e-09)
(-2.50014e-09 -2.27983e-08 2.45147e-09)
(3.96297e-09 -5.61373e-08 3.95271e-09)
(3.51444e-08 -1.3086e-07 7.3261e-09)
(8.10579e-08 -1.83482e-07 8.5874e-09)
(1.37303e-07 -2.18424e-07 9.23209e-09)
(1.98248e-07 -2.39384e-07 9.98369e-09)
(2.58087e-07 -2.49242e-07 1.11213e-08)
(3.10678e-07 -2.50425e-07 1.27558e-08)
(3.5025e-07 -2.4496e-07 1.48884e-08)
(3.71859e-07 -2.34663e-07 1.74271e-08)
(3.7192e-07 -2.21226e-07 2.01868e-08)
(3.48292e-07 -2.06361e-07 2.31039e-08)
(3.00931e-07 -1.91703e-07 2.5811e-08)
(2.32582e-07 -1.79107e-07 2.81182e-08)
(1.47458e-07 -1.69846e-07 2.97469e-08)
(5.1606e-08 -1.64968e-07 3.05993e-08)
(-4.83951e-08 -1.6504e-07 3.06633e-08)
(-1.44674e-07 -1.70052e-07 2.97643e-08)
(-2.29859e-07 -1.7945e-07 2.81303e-08)
(-2.9816e-07 -1.92078e-07 2.58379e-08)
(-3.45746e-07 -2.06678e-07 2.31705e-08)
(-3.69825e-07 -2.21512e-07 2.02468e-08)
(-3.70165e-07 -2.3487e-07 1.74607e-08)
(-3.4894e-07 -2.45104e-07 1.49258e-08)
(-3.09743e-07 -2.50523e-07 1.27945e-08)
(-2.57495e-07 -2.49342e-07 1.1165e-08)
(-1.97961e-07 -2.39541e-07 1.00354e-08)
(-1.37236e-07 -2.18671e-07 9.27128e-09)
(-8.10899e-08 -1.83791e-07 8.59785e-09)
(-3.52093e-08 -1.31123e-07 7.30183e-09)
(-3.99882e-09 -5.63407e-08 3.91279e-09)
(5.0141e-09 -9.99738e-08 5.00209e-09)
(4.28762e-08 -2.2147e-07 9.35916e-09)
(9.65506e-08 -3.04164e-07 1.11633e-08)
(1.60524e-07 -3.59835e-07 1.22485e-08)
(2.28433e-07 -3.95045e-07 1.34083e-08)
(2.94179e-07 -4.14099e-07 1.49609e-08)
(3.51352e-07 -4.20419e-07 1.70007e-08)
(3.9393e-07 -4.1683e-07 1.95428e-08)
(4.16687e-07 -4.05884e-07 2.24925e-08)
(4.1578e-07 -3.89981e-07 2.56684e-08)
(3.88866e-07 -3.71532e-07 2.89214e-08)
(3.35794e-07 -3.52731e-07 3.19692e-08)
(2.59382e-07 -3.36153e-07 3.45932e-08)
(1.64334e-07 -3.23702e-07 3.64061e-08)
(5.74869e-08 -3.17165e-07 3.73541e-08)
(-5.39884e-08 -3.17271e-07 3.74317e-08)
(-1.61326e-07 -3.23869e-07 3.64294e-08)
(-2.56312e-07 -3.36275e-07 3.4597e-08)
(-3.32724e-07 -3.5283e-07 3.20259e-08)
(-3.86082e-07 -3.71594e-07 2.89883e-08)
(-4.13468e-07 -3.90039e-07 2.57173e-08)
(-4.14826e-07 -4.05927e-07 2.2529e-08)
(-3.92486e-07 -4.16876e-07 1.95836e-08)
(-3.503e-07 -4.2047e-07 1.70414e-08)
(-2.93477e-07 -4.14188e-07 1.49972e-08)
(-2.28049e-07 -3.95196e-07 1.34443e-08)
(-1.60399e-07 -3.60084e-07 1.22605e-08)
(-9.65676e-08 -3.04447e-07 1.11346e-08)
(-4.29628e-08 -2.21624e-07 9.28408e-09)
(-5.07131e-09 -1.00212e-07 4.9386e-09)
(5.68597e-09 -1.51163e-07 5.70008e-09)
(4.81721e-08 -3.2626e-07 1.06657e-08)
(1.07467e-07 -4.42826e-07 1.27758e-08)
(1.77094e-07 -5.21645e-07 1.41178e-08)
(2.50066e-07 -5.72962e-07 1.55298e-08)
(3.20085e-07 -6.0291e-07 1.73606e-08)
(3.80578e-07 -6.16012e-07 1.9709e-08)
(4.25376e-07 -6.1591e-07 2.26022e-08)
(4.49073e-07 -6.05864e-07 2.59349e-08)
(4.47618e-07 -5.88932e-07 2.95312e-08)
(4.18595e-07 -5.68184e-07 3.31608e-08)
(3.61635e-07 -5.46422e-07 3.66135e-08)
(2.79304e-07 -5.26666e-07 3.95818e-08)
(1.76906e-07 -5.11478e-07 4.16242e-08)
(6.18445e-08 -5.03474e-07 4.26757e-08)
(-5.81504e-08 -5.03565e-07 4.27487e-08)
(-1.73756e-07 -5.11621e-07 4.1632e-08)
(-2.75994e-07 -5.26574e-07 3.9581e-08)
(-3.58341e-07 -5.46369e-07 3.67041e-08)
(-4.15642e-07 -5.68116e-07 3.32472e-08)
(-4.45174e-07 -5.88867e-07 2.95988e-08)
(-4.47113e-07 -6.05817e-07 2.59931e-08)
(-4.23856e-07 -6.15905e-07 2.26588e-08)
(-3.79466e-07 -6.16043e-07 1.97708e-08)
(-3.19324e-07 -6.02992e-07 1.74075e-08)
(-2.49616e-07 -5.73094e-07 1.55667e-08)
(-1.76911e-07 -5.21841e-07 1.41145e-08)
(-1.07468e-07 -4.43011e-07 1.27129e-08)
(-4.82925e-08 -3.26259e-07 1.05445e-08)
(-5.77034e-09 -1.51426e-07 5.61475e-09)
(6.07e-09 -2.07024e-07 6.09092e-09)
(5.13025e-08 -4.40337e-07 1.13861e-08)
(1.14033e-07 -5.93354e-07 1.36789e-08)
(1.87131e-07 -6.96973e-07 1.51634e-08)
(2.63226e-07 -7.6578e-07 1.6733e-08)
(3.35889e-07 -8.08029e-07 1.87759e-08)
(3.98498e-07 -8.29481e-07 2.13837e-08)
(4.44817e-07 -8.34606e-07 2.45996e-08)
(4.6933e-07 -8.27316e-07 2.83046e-08)
(4.67827e-07 -8.11236e-07 3.23232e-08)
(4.37798e-07 -7.89981e-07 3.63704e-08)
(3.78644e-07 -7.6694e-07 4.02375e-08)
(2.92589e-07 -7.45389e-07 4.35904e-08)
(1.85322e-07 -7.28225e-07 4.5883e-08)
(6.47414e-08 -7.19053e-07 4.70155e-08)
(-6.09091e-08 -7.19095e-07 4.70906e-08)
(-1.82094e-07 -7.28419e-07 4.58684e-08)
(-2.89174e-07 -7.4521e-07 4.36059e-08)
(-3.7524e-07 -7.66879e-07 4.03672e-08)
(-4.34761e-07 -7.89916e-07 3.6492e-08)
(-4.65325e-07 -8.11167e-07 3.24217e-08)
(-4.67333e-07 -8.27275e-07 2.83892e-08)
(-4.43268e-07 -8.34616e-07 2.46746e-08)
(-3.97364e-07 -8.29528e-07 2.146e-08)
(-3.35103e-07 -8.08109e-07 1.88279e-08)
(-2.62738e-07 -7.65876e-07 1.67726e-08)
(-1.86906e-07 -6.9707e-07 1.51428e-08)
(-1.14009e-07 -5.93333e-07 1.35759e-08)
(-5.14336e-08 -4.4009e-07 1.12345e-08)
(-6.1627e-09 -2.07354e-07 6.00012e-09)
(6.18642e-09 -2.65154e-07 6.23258e-09)
(5.23891e-08 -5.59114e-07 1.16435e-08)
(1.16333e-07 -7.49939e-07 1.4013e-08)
(1.90585e-07 -8.79309e-07 1.55744e-08)
(2.67653e-07 -9.66602e-07 1.72368e-08)
(3.4112e-07 -1.02242e-06 1.94293e-08)
(4.04432e-07 -1.05382e-06 2.22617e-08)
(4.51414e-07 -1.06612e-06 2.57702e-08)
(4.76523e-07 -1.06378e-06 2.98304e-08)
(4.75432e-07 -1.05089e-06 3.42703e-08)
(4.45511e-07 -1.0315e-06 3.87686e-08)
(3.85932e-07 -1.00939e-06 4.30314e-08)
(2.98427e-07 -9.87863e-07 4.67909e-08)
(1.88906e-07 -9.69649e-07 4.93564e-08)
(6.59326e-08 -9.59904e-07 5.0604e-08)
(-6.21685e-08 -9.60114e-07 5.0728e-08)
(-1.8578e-07 -9.70169e-07 4.93625e-08)
(-2.95077e-07 -9.87823e-07 4.68504e-08)
(-3.82524e-07 -1.00944e-06 4.31672e-08)
(-4.42476e-07 -1.03154e-06 3.88822e-08)
(-4.72916e-07 -1.0509e-06 3.43661e-08)
(-4.74512e-07 -1.0638e-06 2.99143e-08)
(-4.49847e-07 -1.06619e-06 2.58429e-08)
(-4.03268e-07 -1.05394e-06 2.23388e-08)
(-3.40292e-07 -1.02255e-06 1.94835e-08)
(-2.67119e-07 -9.66714e-07 1.72576e-08)
(-1.90314e-07 -8.79322e-07 1.55153e-08)
(-1.16281e-07 -7.49682e-07 1.388e-08)
(-5.25133e-08 -5.58604e-07 1.14904e-08)
(-6.28713e-09 -2.65645e-07 6.15286e-09)
(6.08638e-09 -3.23407e-07 6.1318e-09)
(5.15225e-08 -6.78136e-07 1.1447e-08)
(1.1433e-07 -9.06973e-07 1.38025e-08)
(1.8718e-07 -1.06236e-06 1.54185e-08)
(2.62759e-07 -1.1686e-06 1.71415e-08)
(3.34857e-07 -1.23895e-06 1.9396e-08)
(3.97126e-07 -1.28181e-06 2.23668e-08)
(4.43593e-07 -1.30326e-06 2.60852e-08)
(4.68823e-07 -1.30824e-06 3.04194e-08)
(4.68434e-07 -1.30113e-06 3.52063e-08)
(4.39674e-07 -1.28622e-06 4.00973e-08)
(3.81589e-07 -1.26737e-06 4.47027e-08)
(2.95366e-07 -1.24793e-06 4.87644e-08)
(1.8682e-07 -1.23032e-06 5.163e-08)
(6.52237e-08 -1.22115e-06 5.30844e-08)
(-6.15638e-08 -1.22138e-06 5.32044e-08)
(-1.83788e-07 -1.23074e-06 5.15769e-08)
(-2.92098e-07 -1.24783e-06 4.88091e-08)
(-3.78206e-07 -1.26748e-06 4.48245e-08)
(-4.36706e-07 -1.28637e-06 4.02006e-08)
(-4.65955e-07 -1.30124e-06 3.53051e-08)
(-4.66851e-07 -1.30835e-06 3.0507e-08)
(-4.42059e-07 -1.30344e-06 2.61576e-08)
(-3.95964e-07 -1.28206e-06 2.24378e-08)
(-3.34011e-07 -1.23918e-06 1.9426e-08)
(-2.62209e-07 -1.16869e-06 1.70899e-08)
(-1.86873e-07 -1.0621e-06 1.52949e-08)
(-1.14228e-07 -9.06269e-07 1.3651e-08)
(-5.15957e-08 -6.77297e-07 1.12994e-08)
(-6.16784e-09 -3.23987e-07 6.05026e-09)
(5.76607e-09 -3.79568e-07 5.75884e-09)
(4.86616e-08 -7.92896e-07 1.07536e-08)
(1.07915e-07 -1.05865e-06 1.29759e-08)
(1.76614e-07 -1.23961e-06 1.45914e-08)
(2.47949e-07 -1.36471e-06 1.63682e-08)
(3.16131e-07 -1.44995e-06 1.86349e-08)
(3.75241e-07 -1.50539e-06 2.16207e-08)
(4.19673e-07 -1.53769e-06 2.54087e-08)
(4.44276e-07 -1.55214e-06 2.98473e-08)
(4.44737e-07 -1.55327e-06 3.47999e-08)
(4.18194e-07 -1.54539e-06 3.99134e-08)
(3.63558e-07 -1.53215e-06 4.47552e-08)
(2.81658e-07 -1.51663e-06 4.88916e-08)
(1.77993e-07 -1.50135e-06 5.19522e-08)
(6.21687e-08 -1.49393e-06 5.36384e-08)
(-5.88324e-08 -1.49415e-06 5.37612e-08)
(-1.75212e-07 -1.50142e-06 5.18943e-08)
(-2.78438e-07 -1.51578e-06 4.89129e-08)
(-3.60179e-07 -1.53171e-06 4.4877e-08)
(-4.15313e-07 -1.54544e-06 4.00078e-08)
(-4.4229e-07 -1.55344e-06 3.49023e-08)
(-4.42358e-07 -1.55234e-06 2.99334e-08)
(-4.18201e-07 -1.53801e-06 2.54746e-08)
(-3.74098e-07 -1.5058e-06 2.16977e-08)
(-3.15265e-07 -1.45025e-06 1.86574e-08)
(-2.47348e-07 -1.36454e-06 1.63183e-08)
(-1.76212e-07 -1.23882e-06 1.45626e-08)
(-1.07677e-07 -1.05743e-06 1.29865e-08)
(-4.86268e-08 -7.91827e-07 1.07655e-08)
(-5.80476e-09 -3.80254e-07 5.75221e-09)
(5.22029e-09 -4.31306e-07 5.13826e-09)
(4.37493e-08 -8.98498e-07 9.63693e-09)
(9.69869e-08 -1.19853e-06 1.16165e-08)
(1.58648e-07 -1.40383e-06 1.31028e-08)
(2.22748e-07 -1.54718e-06 1.48604e-08)
(2.84187e-07 -1.64701e-06 1.70805e-08)
(3.37751e-07 -1.71542e-06 1.995e-08)
(3.78338e-07 -1.75967e-06 2.35944e-08)
(4.01284e-07 -1.7851e-06 2.78593e-08)
(4.02486e-07 -1.79624e-06 3.27006e-08)
(3.78979e-07 -1.79718e-06 3.77693e-08)
(3.29785e-07 -1.79098e-06 4.26008e-08)
(2.55769e-07 -1.7811e-06 4.65945e-08)
(1.61838e-07 -1.77058e-06 4.96764e-08)
(5.65932e-08 -1.76567e-06 5.14307e-08)
(-5.36039e-08 -1.76594e-06 5.15868e-08)
(-1.59309e-07 -1.77053e-06 4.96892e-08)
(-2.52705e-07 -1.78009e-06 4.65188e-08)
(-3.26789e-07 -1.79071e-06 4.26084e-08)
(-3.76465e-07 -1.79735e-06 3.77732e-08)
(-4.0018e-07 -1.79653e-06 3.27906e-08)
(-3.99478e-07 -1.78534e-06 2.79521e-08)
(-3.76995e-07 -1.76008e-06 2.36509e-08)
(-3.36719e-07 -1.716e-06 2.00405e-08)
(-2.83444e-07 -1.64722e-06 1.71061e-08)
(-2.22219e-07 -1.54627e-06 1.48065e-08)
(-1.58202e-07 -1.40204e-06 1.30413e-08)
(-9.66027e-08 -1.19654e-06 1.15063e-08)
(-4.35845e-08 -8.97e-07 9.51394e-09)
(-5.17287e-09 -4.31896e-07 5.11203e-09)
(4.42145e-09 -4.76332e-07 4.27589e-09)
(3.67203e-08 -9.89932e-07 8.04748e-09)
(8.13554e-08 -1.31941e-06 9.74582e-09)
(1.33279e-07 -1.54651e-06 1.10826e-08)
(1.87277e-07 -1.70697e-06 1.26987e-08)
(2.39057e-07 -1.82078e-06 1.47876e-08)
(2.84484e-07 -1.90176e-06 1.74105e-08)
(3.19212e-07 -1.95813e-06 2.06528e-08)
(3.39279e-07 -1.99507e-06 2.43857e-08)
(3.40914e-07 -2.01662e-06 2.86843e-08)
(3.21306e-07 -2.02628e-06 3.3172e-08)
(2.79662e-07 -2.02776e-06 3.74564e-08)
(2.16994e-07 -2.02527e-06 4.11889e-08)
(1.37698e-07 -2.02134e-06 4.41829e-08)
(4.82205e-08 -2.01954e-06 4.58576e-08)
(-4.56659e-08 -2.01968e-06 4.60227e-08)
(-1.35602e-07 -2.02107e-06 4.4388e-08)
(-2.14516e-07 -2.02511e-06 4.14515e-08)
(-2.77322e-07 -2.02979e-06 3.79524e-08)
(-3.19137e-07 -2.02791e-06 3.34777e-08)
(-3.38769e-07 -2.01727e-06 2.88861e-08)
(-3.37636e-07 -1.99523e-06 2.44298e-08)
(-3.18083e-07 -1.95847e-06 2.04477e-08)
(-2.83589e-07 -1.90231e-06 1.71102e-08)
(-2.38342e-07 -1.82055e-06 1.44291e-08)
(-1.86595e-07 -1.70529e-06 1.23872e-08)
(-1.32686e-07 -1.54413e-06 1.08848e-08)
(-8.1006e-08 -1.31728e-06 9.63963e-09)
(-3.66018e-08 -9.8817e-07 8.01103e-09)
(-4.36323e-09 -4.76721e-07 4.33736e-09)
(3.45927e-09 -5.12227e-07 3.11735e-09)
(2.80661e-08 -1.06252e-06 5.83035e-09)
(6.17092e-08 -1.41521e-06 7.1338e-09)
(1.01111e-07 -1.65979e-06 8.1679e-09)
(1.42224e-07 -1.83474e-06 9.34989e-09)
(1.81736e-07 -1.96125e-06 1.0971e-08)
(2.16448e-07 -2.05365e-06 1.31313e-08)
(2.43119e-07 -2.12093e-06 1.59148e-08)
(2.59043e-07 -2.16834e-06 1.91143e-08)
(2.60898e-07 -2.19907e-06 2.26242e-08)
(2.45909e-07 -2.2171e-06 2.60493e-08)
(2.13829e-07 -2.22763e-06 2.94797e-08)
(1.66279e-07 -2.23371e-06 3.2795e-08)
(1.06025e-07 -2.23557e-06 3.5284e-08)
(3.73866e-08 -2.23618e-06 3.65627e-08)
(-3.46434e-08 -2.23555e-06 3.64572e-08)
(-1.03894e-07 -2.2338e-06 3.50689e-08)
(-1.64405e-07 -2.23242e-06 3.25871e-08)
(-2.12425e-07 -2.22997e-06 2.96009e-08)
(-2.44103e-07 -2.21899e-06 2.60443e-08)
(-2.58771e-07 -2.19954e-06 2.24458e-08)
(-2.57554e-07 -2.16805e-06 1.8959e-08)
(-2.42254e-07 -2.12089e-06 1.58147e-08)
(-2.15662e-07 -2.05372e-06 1.31449e-08)
(-1.81122e-07 -1.96059e-06 1.10099e-08)
(-1.4179e-07 -1.83332e-06 9.41141e-09)
(-1.00863e-07 -1.65868e-06 8.26421e-09)
(-6.15722e-08 -1.41497e-06 7.32504e-09)
(-2.77909e-08 -1.06211e-06 6.08343e-09)
(-3.32271e-09 -5.13111e-07 3.27065e-09)
(2.19251e-09 -5.37851e-07 2.02503e-09)
(1.77402e-08 -1.1138e-06 3.75058e-09)
(3.89583e-08 -1.48295e-06 4.48326e-09)
(6.38779e-08 -1.73892e-06 5.0204e-09)
(8.96642e-08 -1.92351e-06 5.71404e-09)
(1.14412e-07 -2.05933e-06 6.77594e-09)
(1.3619e-07 -2.16049e-06 8.22617e-09)
(1.52863e-07 -2.23622e-06 1.01148e-08)
(1.63092e-07 -2.29181e-06 1.23388e-08)
(1.6471e-07 -2.32993e-06 1.46962e-08)
(1.5544e-07 -2.356e-06 1.70287e-08)
(1.35415e-07 -2.37482e-06 1.94726e-08)
(1.05642e-07 -2.38778e-06 2.17397e-08)
(6.75857e-08 -2.39411e-06 2.34281e-08)
(2.41485e-08 -2.39641e-06 2.41987e-08)
(-2.13451e-08 -2.39412e-06 2.38013e-08)
(-6.53706e-08 -2.38916e-06 2.27212e-08)
(-1.03547e-07 -2.38297e-06 2.08773e-08)
(-1.3376e-07 -2.37333e-06 1.85636e-08)
(-1.54044e-07 -2.35433e-06 1.60464e-08)
(-1.63534e-07 -2.32723e-06 1.36797e-08)
(-1.62711e-07 -2.28818e-06 1.1614e-08)
(-1.529e-07 -2.23386e-06 9.80405e-09)
(-1.35971e-07 -2.16009e-06 8.30067e-09)
(-1.13999e-07 -2.05992e-06 7.07624e-09)
(-8.90665e-08 -1.92428e-06 6.08738e-09)
(-6.32657e-08 -1.73968e-06 5.35912e-09)
(-3.85767e-08 -1.48365e-06 4.74053e-09)
(-1.7403e-08 -1.11388e-06 3.91203e-09)
(-2.09824e-09 -5.38526e-07 2.0571e-09)
(8.08638e-10 -5.51244e-07 6.39321e-10)
(6.2122e-09 -1.14017e-06 1.27464e-09)
(1.35688e-08 -1.51847e-06 1.60204e-09)
(2.24135e-08 -1.78095e-06 1.81775e-09)
(3.15089e-08 -1.97086e-06 2.10153e-09)
(4.02905e-08 -2.11115e-06 2.54515e-09)
(4.82455e-08 -2.21578e-06 3.07109e-09)
(5.44134e-08 -2.29423e-06 3.60281e-09)
(5.81177e-08 -2.3535e-06 4.28965e-09)
(5.86685e-08 -2.3972e-06 5.23139e-09)
(5.53541e-08 -2.4295e-06 6.21163e-09)
(4.84054e-08 -2.45324e-06 7.11775e-09)
(3.7795e-08 -2.46919e-06 7.81548e-09)
(2.42948e-08 -2.47823e-06 8.55288e-09)
(9.11796e-09 -2.48258e-06 8.9069e-09)
(-6.93235e-09 -2.48027e-06 8.62289e-09)
(-2.30383e-08 -2.47406e-06 8.26897e-09)
(-3.64691e-08 -2.4655e-06 7.59723e-09)
(-4.69013e-08 -2.45226e-06 6.64302e-09)
(-5.40176e-08 -2.42859e-06 5.70666e-09)
(-5.7345e-08 -2.39576e-06 4.84754e-09)
(-5.71863e-08 -2.35109e-06 4.09348e-09)
(-5.39003e-08 -2.29236e-06 3.39421e-09)
(-4.80633e-08 -2.21529e-06 2.83325e-09)
(-4.03248e-08 -2.11177e-06 2.42354e-09)
(-3.14285e-08 -1.97193e-06 2.08563e-09)
(-2.22488e-08 -1.7821e-06 1.82875e-09)
(-1.35109e-08 -1.5196e-06 1.61498e-09)
(-6.05014e-09 -1.14091e-06 1.37051e-09)
(-6.92995e-10 -5.51789e-07 7.34626e-10)
(-5.81796e-10 -5.51792e-07 -6.85842e-10)
(-5.40161e-09 -1.14115e-06 -1.24292e-09)
(-1.21438e-08 -1.52001e-06 -1.45936e-09)
(-1.9816e-08 -1.78272e-06 -1.64224e-09)
(-2.78525e-08 -1.97284e-06 -1.8767e-09)
(-3.55919e-08 -2.11345e-06 -2.20915e-09)
(-4.24241e-08 -2.21847e-06 -2.6419e-09)
(-4.78124e-08 -2.29723e-06 -3.17884e-09)
(-5.0958e-08 -2.35649e-06 -3.85542e-09)
(-5.11228e-08 -2.39981e-06 -4.60609e-09)
(-4.7933e-08 -2.43197e-06 -5.54376e-09)
(-4.1639e-08 -2.45566e-06 -6.57983e-09)
(-3.27858e-08 -2.47131e-06 -7.443e-09)
(-2.13822e-08 -2.48063e-06 -7.78097e-09)
(-7.6177e-09 -2.48489e-06 -7.81113e-09)
(7.14422e-09 -2.48232e-06 -7.70355e-09)
(2.06701e-08 -2.47697e-06 -7.18939e-09)
(3.31864e-08 -2.46865e-06 -6.56255e-09)
(4.27593e-08 -2.45477e-06 -6.01497e-09)
(4.8613e-08 -2.43095e-06 -5.15037e-09)
(5.16724e-08 -2.39816e-06 -4.23907e-09)
(5.16281e-08 -2.35335e-06 -3.38467e-09)
(4.87239e-08 -2.29444e-06 -2.84763e-09)
(4.33959e-08 -2.217e-06 -2.50993e-09)
(3.62838e-08 -2.11309e-06 -2.1655e-09)
(2.83723e-08 -1.97295e-06 -1.89393e-09)
(2.01775e-08 -1.78289e-06 -1.6655e-09)
(1.23326e-08 -1.52026e-06 -1.44423e-09)
(5.62379e-09 -1.14143e-06 -1.11675e-09)
(7.26835e-10 -5.52081e-07 -5.61795e-10)
(-2.0195e-09 -5.39277e-07 -1.99836e-09)
(-1.68503e-08 -1.11559e-06 -3.7851e-09)
(-3.73492e-08 -1.48615e-06 -4.60038e-09)
(-6.11691e-08 -1.74279e-06 -5.21211e-09)
(-8.60807e-08 -1.92808e-06 -5.92705e-09)
(-1.1012e-07 -2.06482e-06 -6.88691e-09)
(-1.31193e-07 -2.16663e-06 -8.15355e-09)
(-1.47322e-07 -2.24234e-06 -9.80511e-09)
(-1.5675e-07 -2.29808e-06 -1.18582e-08)
(-1.57809e-07 -2.33653e-06 -1.40109e-08)
(-1.48739e-07 -2.36313e-06 -1.63922e-08)
(-1.2947e-07 -2.38225e-06 -1.89098e-08)
(-1.01265e-07 -2.39528e-06 -2.10821e-08)
(-6.50655e-08 -2.40297e-06 -2.24677e-08)
(-2.27663e-08 -2.40595e-06 -2.30025e-08)
(2.1716e-08 -2.40269e-06 -2.26917e-08)
(6.3704e-08 -2.39874e-06 -2.16735e-08)
(1.01171e-07 -2.39317e-06 -2.00274e-08)
(1.3004e-07 -2.38161e-06 -1.81742e-08)
(1.48777e-07 -2.36174e-06 -1.57777e-08)
(1.5824e-07 -2.33425e-06 -1.34981e-08)
(1.57418e-07 -2.29482e-06 -1.12927e-08)
(1.47614e-07 -2.23952e-06 -9.39309e-09)
(1.31318e-07 -2.16457e-06 -7.81e-09)
(1.10256e-07 -2.06388e-06 -6.5175e-09)
(8.64671e-08 -1.92794e-06 -5.55362e-09)
(6.16085e-08 -1.74298e-06 -4.82184e-09)
(3.7703e-08 -1.48667e-06 -4.2522e-09)
(1.7195e-08 -1.11629e-06 -3.49806e-09)
(2.16872e-09 -5.39468e-07 -1.89196e-09)
(-3.30184e-09 -5.14466e-07 -3.18042e-09)
(-2.73447e-08 -1.06511e-06 -5.94116e-09)
(-6.04718e-08 -1.41921e-06 -7.2002e-09)
(-9.9042e-08 -1.66382e-06 -8.13111e-09)
(-1.39241e-07 -1.8393e-06 -9.24951e-09)
(-1.77929e-07 -1.96747e-06 -1.07854e-08)
(-2.11924e-07 -2.06159e-06 -1.28317e-08)
(-2.38072e-07 -2.12987e-06 -1.54819e-08)
(-2.53305e-07 -2.1783e-06 -1.87079e-08)
(-2.54848e-07 -2.20984e-06 -2.21114e-08)
(-2.4024e-07 -2.22848e-06 -2.56113e-08)
(-2.08869e-07 -2.23929e-06 -2.898e-08)
(-1.62689e-07 -2.24596e-06 -3.20875e-08)
(-1.04145e-07 -2.24947e-06 -3.4424e-08)
(-3.64767e-08 -2.2509e-06 -3.56095e-08)
(3.46412e-08 -2.24835e-06 -3.53246e-08)
(1.02449e-07 -2.24691e-06 -3.39776e-08)
(1.62642e-07 -2.24608e-06 -3.16692e-08)
(2.09288e-07 -2.23977e-06 -2.88298e-08)
(2.401e-07 -2.22741e-06 -2.53613e-08)
(2.55195e-07 -2.20811e-06 -2.19285e-08)
(2.54135e-07 -2.17724e-06 -1.85547e-08)
(2.38746e-07 -2.12991e-06 -1.55465e-08)
(2.12513e-07 -2.06217e-06 -1.28975e-08)
(1.78357e-07 -1.96874e-06 -1.07718e-08)
(1.39494e-07 -1.84088e-06 -9.16635e-09)
(9.9126e-08 -1.66507e-06 -7.86823e-09)
(6.06536e-08 -1.42038e-06 -6.86619e-09)
(2.76739e-08 -1.0663e-06 -5.61887e-09)
(3.46146e-09 -5.14364e-07 -3.02775e-09)
(-4.39816e-09 -4.78666e-07 -4.19865e-09)
(-3.63413e-08 -9.92442e-07 -7.83484e-09)
(-8.0222e-08 -1.32293e-06 -9.52554e-09)
(-1.31391e-07 -1.55073e-06 -1.08045e-08)
(-1.84748e-07 -1.71282e-06 -1.22975e-08)
(-2.36052e-07 -1.82906e-06 -1.43193e-08)
(-2.80989e-07 -1.9118e-06 -1.69741e-08)
(-3.15277e-07 -1.96905e-06 -2.02584e-08)
(-3.34923e-07 -2.00703e-06 -2.41494e-08)
(-3.36456e-07 -2.0298e-06 -2.83883e-08)
(-3.17103e-07 -2.04048e-06 -3.28685e-08)
(-2.75826e-07 -2.04263e-06 -3.70606e-08)
(-2.14225e-07 -2.041e-06 -4.07174e-08)
(-1.36338e-07 -2.03902e-06 -4.36571e-08)
(-4.72889e-08 -2.03847e-06 -4.54192e-08)
(4.58123e-08 -2.0369e-06 -4.52778e-08)
(1.34803e-07 -2.03834e-06 -4.36254e-08)
(2.14028e-07 -2.04279e-06 -4.06758e-08)
(2.75912e-07 -2.04359e-06 -3.70236e-08)
(3.16803e-07 -2.04006e-06 -3.29204e-08)
(3.36312e-07 -2.02914e-06 -2.84744e-08)
(3.35336e-07 -2.00714e-06 -2.41023e-08)
(3.15815e-07 -1.96963e-06 -2.03616e-08)
(2.81533e-07 -1.91236e-06 -1.7185e-08)
(2.36546e-07 -1.83001e-06 -1.46275e-08)
(1.85219e-07 -1.71474e-06 -1.26276e-08)
(1.31781e-07 -1.55373e-06 -1.09812e-08)
(8.04414e-08 -1.32668e-06 -9.62509e-09)
(3.63908e-08 -9.95586e-07 -7.90478e-09)
(4.39672e-09 -4.78765e-07 -4.2039e-09)
(-5.18475e-09 -4.33979e-07 -5.09659e-09)
(-4.33789e-08 -9.01997e-07 -9.52077e-09)
(-9.60095e-08 -1.20287e-06 -1.15168e-08)
(-1.57339e-07 -1.40942e-06 -1.30157e-08)
(-2.21116e-07 -1.55476e-06 -1.47314e-08)
(-2.82242e-07 -1.6568e-06 -1.70099e-08)
(-3.35488e-07 -1.72672e-06 -1.99284e-08)
(-3.75802e-07 -1.77201e-06 -2.35298e-08)
(-3.98493e-07 -1.79857e-06 -2.783e-08)
(-3.99614e-07 -1.81089e-06 -3.2613e-08)
(-3.76249e-07 -1.81281e-06 -3.76711e-08)
(-3.27292e-07 -1.80752e-06 -4.24469e-08)
(-2.54034e-07 -1.79852e-06 -4.64368e-08)
(-1.61084e-07 -1.79002e-06 -4.95287e-08)
(-5.55225e-08 -1.78601e-06 -5.15387e-08)
(5.42299e-08 -1.78486e-06 -5.15101e-08)
(1.59426e-07 -1.78951e-06 -4.98212e-08)
(2.5311e-07 -1.7998e-06 -4.66989e-08)
(3.26687e-07 -1.80825e-06 -4.24747e-08)
(3.75803e-07 -1.81317e-06 -3.7724e-08)
(3.99435e-07 -1.81112e-06 -3.26579e-08)
(3.98716e-07 -1.79899e-06 -2.77859e-08)
(3.76141e-07 -1.77263e-06 -2.35113e-08)
(3.35903e-07 -1.72742e-06 -1.98715e-08)
(2.82668e-07 -1.65776e-06 -1.69689e-08)
(2.21557e-07 -1.55653e-06 -1.47905e-08)
(1.57851e-07 -1.41261e-06 -1.30805e-08)
(9.64936e-08 -1.2071e-06 -1.15429e-08)
(4.36807e-08 -9.05394e-07 -9.52737e-09)
(5.25218e-09 -4.34002e-07 -5.08209e-09)
(-5.77315e-09 -3.82288e-07 -5.77009e-09)
(-4.85072e-08 -7.97094e-07 -1.07736e-08)
(-1.07483e-07 -1.06399e-06 -1.29892e-08)
(-1.75995e-07 -1.24654e-06 -1.45638e-08)
(-2.47137e-07 -1.37349e-06 -1.63035e-08)
(-3.15183e-07 -1.46037e-06 -1.86282e-08)
(-3.74188e-07 -1.51705e-06 -2.16717e-08)
(-4.18523e-07 -1.55043e-06 -2.54513e-08)
(-4.43e-07 -1.56594e-06 -2.99176e-08)
(-4.43373e-07 -1.56815e-06 -3.486e-08)
(-4.16777e-07 -1.56127e-06 -4.00064e-08)
(-3.62208e-07 -1.54922e-06 -4.49049e-08)
(-2.81003e-07 -1.53508e-06 -4.91011e-08)
(-1.77985e-07 -1.52169e-06 -5.21524e-08)
(-6.13009e-08 -1.51415e-06 -5.39537e-08)
(5.96837e-08 -1.51315e-06 -5.37871e-08)
(1.76117e-07 -1.52046e-06 -5.21656e-08)
(2.79655e-07 -1.53481e-06 -4.91178e-08)
(3.6128e-07 -1.54914e-06 -4.48198e-08)
(4.16143e-07 -1.56143e-06 -3.99931e-08)
(4.43037e-07 -1.56838e-06 -3.48689e-08)
(4.42988e-07 -1.56636e-06 -2.99097e-08)
(4.18701e-07 -1.55101e-06 -2.5451e-08)
(3.7453e-07 -1.51775e-06 -2.16471e-08)
(3.15643e-07 -1.46121e-06 -1.86101e-08)
(2.47646e-07 -1.37462e-06 -1.63357e-08)
(1.76444e-07 -1.24842e-06 -1.46371e-08)
(1.07751e-07 -1.06673e-06 -1.30625e-08)
(4.86188e-08 -7.99603e-07 -1.08165e-08)
(5.74834e-09 -3.82338e-07 -5.77437e-09)
(-6.12128e-09 -3.26127e-07 -6.12548e-09)
(-5.1575e-08 -6.82445e-07 -1.13771e-08)
(-1.14427e-07 -9.12802e-07 -1.36825e-08)
(-1.87273e-07 -1.06982e-06 -1.53222e-08)
(-2.62834e-07 -1.17757e-06 -1.71173e-08)
(-3.3496e-07 -1.24915e-06 -1.94576e-08)
(-3.97272e-07 -1.29308e-06 -2.2485e-08)
(-4.43761e-07 -1.31552e-06 -2.62206e-08)
(-4.68953e-07 -1.32147e-06 -3.05972e-08)
(-4.68472e-07 -1.31533e-06 -3.54057e-08)
(-4.39523e-07 -1.30132e-06 -4.03445e-08)
(-3.81325e-07 -1.28351e-06 -4.50296e-08)
(-2.95557e-07 -1.26517e-06 -4.91227e-08)
(-1.87182e-07 -1.2491e-06 -5.2016e-08)
(-6.44579e-08 -1.23969e-06 -5.36079e-08)
(6.26812e-08 -1.23917e-06 -5.34905e-08)
(1.85273e-07 -1.2484e-06 -5.20694e-08)
(2.94024e-07 -1.26511e-06 -4.91546e-08)
(3.80247e-07 -1.28362e-06 -4.50258e-08)
(4.38773e-07 -1.30156e-06 -4.0386e-08)
(4.68031e-07 -1.31563e-06 -3.54482e-08)
(4.68799e-07 -1.3219e-06 -3.0627e-08)
(4.43813e-07 -1.31608e-06 -2.62493e-08)
(3.97483e-07 -1.29377e-06 -2.25027e-08)
(3.35278e-07 -1.24999e-06 -1.94796e-08)
(2.63204e-07 -1.17859e-06 -1.71706e-08)
(1.87561e-07 -1.07116e-06 -1.5472e-08)
(1.14524e-07 -9.14643e-07 -1.39367e-08)
(5.15758e-08 -6.84424e-07 -1.16077e-08)
(6.05547e-09 -3.2612e-07 -6.1908e-09)
(-6.2312e-09 -2.67746e-07 -6.25831e-09)
(-5.25848e-08 -5.63227e-07 -1.16224e-08)
(-1.16743e-07 -7.55763e-07 -1.39483e-08)
(-1.91179e-07 -8.8656e-07 -1.55703e-08)
(-2.6843e-07 -9.74984e-07 -1.73186e-08)
(-3.42112e-07 -1.03178e-06 -1.95651e-08)
(-4.05605e-07 -1.06407e-06 -2.24405e-08)
(-4.52707e-07 -1.07722e-06 -2.59717e-08)
(-4.77852e-07 -1.07571e-06 -3.00829e-08)
(-4.76667e-07 -1.06365e-06 -3.45617e-08)
(-4.46438e-07 -1.04501e-06 -3.91224e-08)
(-3.86568e-07 -1.02362e-06 -4.34842e-08)
(-2.99215e-07 -1.00274e-06 -4.7261e-08)
(-1.89631e-07 -9.85759e-07 -4.99129e-08)
(-6.54401e-08 -9.76018e-07 -5.13082e-08)
(6.34569e-08 -9.75748e-07 -5.12562e-08)
(1.87529e-07 -9.85336e-07 -4.99689e-08)
(2.97622e-07 -1.00282e-06 -4.7242e-08)
(3.85533e-07 -1.02373e-06 -4.34533e-08)
(4.45679e-07 -1.04515e-06 -3.91648e-08)
(4.76148e-07 -1.06385e-06 -3.46157e-08)
(4.77597e-07 -1.07604e-06 -3.01275e-08)
(4.52662e-07 -1.07767e-06 -2.60128e-08)
(4.0571e-07 -1.06464e-06 -2.24711e-08)
(3.42307e-07 -1.03246e-06 -1.95948e-08)
(2.6868e-07 -9.7578e-07 -1.73604e-08)
(1.91395e-07 -8.87488e-07 -1.56661e-08)
(1.16859e-07 -7.56926e-07 -1.41363e-08)
(5.26123e-08 -5.64635e-07 -1.18005e-08)
(6.2013e-09 -2.67688e-07 -6.30103e-09)
(-6.13853e-09 -2.09187e-07 -6.1019e-09)
(-5.16284e-08 -4.44012e-07 -1.13616e-08)
(-1.14668e-07 -5.98615e-07 -1.36654e-08)
(-1.88117e-07 -7.03386e-07 -1.52292e-08)
(-2.64563e-07 -7.73079e-07 -1.68717e-08)
(-3.3758e-07 -8.16101e-07 -1.89526e-08)
(-4.00481e-07 -8.38259e-07 -2.16082e-08)
(-4.47007e-07 -8.44049e-07 -2.48559e-08)
(-4.71625e-07 -8.37395e-07 -2.86177e-08)
(-4.70027e-07 -8.21939e-07 -3.26912e-08)
(-4.39601e-07 -8.01261e-07 -3.68375e-08)
(-3.79999e-07 -7.78715e-07 -4.08126e-08)
(-2.93874e-07 -7.57631e-07 -4.4188e-08)
(-1.86359e-07 -7.4137e-07 -4.65569e-08)
(-6.44021e-08 -7.32329e-07 -4.77993e-08)
(6.24295e-08 -7.31972e-07 -4.77629e-08)
(1.8416e-07 -7.40814e-07 -4.65496e-08)
(2.9224e-07 -7.57557e-07 -4.41158e-08)
(3.78931e-07 -7.78694e-07 -4.07319e-08)
(4.38783e-07 -8.01295e-07 -3.68451e-08)
(4.69421e-07 -8.22074e-07 -3.27394e-08)
(4.7128e-07 -8.37647e-07 -2.86613e-08)
(4.4689e-07 -8.44405e-07 -2.48958e-08)
(4.00515e-07 -8.38697e-07 -2.16372e-08)
(3.37705e-07 -8.16617e-07 -1.8979e-08)
(2.64752e-07 -7.73674e-07 -1.68989e-08)
(1.88314e-07 -7.04057e-07 -1.52715e-08)
(1.14822e-07 -5.99379e-07 -1.37535e-08)
(5.16435e-08 -4.44927e-07 -1.14888e-08)
(6.10028e-09 -2.09253e-07 -6.14453e-09)
(-5.77986e-09 -1.52878e-07 -5.68303e-09)
(-4.85984e-08 -3.29373e-07 -1.06337e-08)
(-1.08286e-07 -4.47269e-07 -1.27976e-08)
(-1.78365e-07 -5.26957e-07 -1.42081e-08)
(-2.51768e-07 -5.78908e-07 -1.56788e-08)
(-3.22217e-07 -6.09411e-07 -1.75403e-08)
(-3.83085e-07 -6.23022e-07 -1.99351e-08)
(-4.28141e-07 -6.23394e-07 -2.28548e-08)
(-4.51983e-07 -6.13784e-07 -2.62339e-08)
(-4.50446e-07 -5.97283e-07 -2.98785e-08)
(-4.20996e-07 -5.7688e-07 -3.36246e-08)
(-3.6354e-07 -5.5546e-07 -3.71737e-08)
(-2.81041e-07 -5.36101e-07 -4.01747e-08)
(-1.78193e-07 -5.21431e-07 -4.22978e-08)
(-6.16279e-08 -5.1348e-07 -4.345e-08)
(5.97067e-08 -5.13139e-07 -4.34112e-08)