/*--------------------------------*- C++ -*----------------------------------*\
| =========                 |                                                 |
| \\      /  F ield         | OpenFOAM: The Open Source CFD Toolbox           |
|  \\    /   O peration     | Version:  v1906                                 |
|   \\  /    A nd           | Web:      www.OpenFOAM.com                      |
|    \\/     M anipulation  |                                                 |
\*---------------------------------------------------------------------------*/
FoamFile
{
    version     2.0;
    format      ascii;
    class       volVectorField;
    location    "81.6/oil";
    object      U;
}
// * * * * * * * * * * * * * * * * * * * * * * * * * * * * * * * * * * * * * //

dimensions      [0 1 -1 0 0 0 0];


internalField   nonuniform List<vector> 
27760
(
(-2.4032e-05 -2.44831e-05 -2.4032e-05)
(-4.74328e-05 -1.83637e-05 -1.73173e-05)
(-3.44667e-06 -4.75546e-06 -4.74818e-06)
(-5.59924e-06 -7.66668e-07 -8.83105e-07)
(-1.08211e-06 -2.35578e-07 -3.72829e-07)
(-3.17366e-07 -8.71655e-08 -2.38041e-07)
(3.70965e-07 3.58869e-09 -1.59412e-07)
(7.2539e-07 4.42376e-08 -1.27876e-07)
(9.24286e-07 6.8443e-08 -1.09669e-07)
(9.98786e-07 8.43818e-08 -9.69798e-08)
(9.71305e-07 9.59317e-08 -8.63901e-08)
(8.55307e-07 1.04911e-07 -7.70098e-08)
(6.65308e-07 1.11661e-07 -6.92888e-08)
(4.18439e-07 1.16259e-07 -6.37084e-08)
(1.3534e-07 1.18651e-07 -6.07213e-08)
(-1.60979e-07 1.188e-07 -6.05742e-08)
(-4.4685e-07 1.16748e-07 -6.32236e-08)
(-6.99901e-07 1.12643e-07 -6.83108e-08)
(-9.01053e-07 1.06731e-07 -7.51877e-08)
(-1.03615e-06 9.93069e-08 -8.29737e-08)
(-1.09727e-06 9.07313e-08 -9.05721e-08)
(-1.08272e-06 8.14132e-08 -9.65465e-08)
(-9.97862e-07 7.12126e-08 -1.00151e-07)
(-8.54673e-07 6.06835e-08 -1.00066e-07)
(-6.70432e-07 5.00724e-08 -9.53221e-08)
(-4.6744e-07 3.9865e-08 -8.53122e-08)
(-2.71596e-07 3.10622e-08 -7.01701e-08)
(-1.10803e-07 2.54375e-08 -5.12674e-08)
(-9.64998e-09 2.51273e-08 -3.2209e-08)
(1.32339e-08 2.59279e-08 -1.32022e-08)
(-1.74315e-05 -4.87313e-05 -1.74315e-05)
(-5.68564e-06 -6.34541e-06 -7.80781e-06)
(-7.61726e-06 -7.70278e-06 -2.73439e-06)
(-3.31296e-06 -2.27821e-06 -7.92554e-07)
(-9.51934e-07 -1.40952e-06 -4.04663e-07)
(2.58033e-07 -7.83828e-07 -2.10238e-07)
(1.14886e-06 -4.96439e-07 -1.14364e-07)
(1.69993e-06 -3.21238e-07 -6.52526e-08)
(2.0183e-06 -1.99851e-07 -3.35541e-08)
(2.12648e-06 -1.03325e-07 -9.59062e-09)
(2.04418e-06 -2.201e-08 1.09576e-08)
(1.78944e-06 4.66008e-08 2.87062e-08)
(1.38695e-06 1.01227e-07 4.31964e-08)
(8.70032e-07 1.39714e-07 5.35905e-08)
(2.79884e-07 1.60085e-07 5.91362e-08)
(-3.37029e-07 1.61298e-07 5.94184e-08)
(-9.32673e-07 1.4362e-07 5.45096e-08)
(-1.46161e-06 1.08739e-07 4.5007e-08)
(-1.88506e-06 5.96292e-08 3.19721e-08)
(-2.17425e-06 2.71721e-10 1.68422e-08)
(-2.31288e-06 -6.4681e-08 1.25798e-09)
(-2.29823e-06 -1.30142e-07 -1.29433e-08)
(-2.14096e-06 -1.91387e-07 -2.40419e-08)
(-1.86459e-06 -2.43078e-07 -3.07592e-08)
(-1.50377e-06 -2.79792e-07 -3.20362e-08)
(-1.10163e-06 -2.95301e-07 -2.75016e-08)
(-7.06471e-07 -2.81995e-07 -1.79251e-08)
(-3.66874e-07 -2.31285e-07 -5.79404e-09)
(-1.23887e-07 -1.36509e-07 3.59223e-09)
(-5.14704e-09 -1.78868e-08 5.19529e-09)
(-4.81586e-06 -4.62249e-06 -4.81582e-06)
(-7.50948e-06 -8.7462e-06 -2.77473e-06)
(-3.73697e-06 -5.10542e-06 -1.21193e-06)
(-1.90771e-06 -3.11741e-06 -5.61755e-07)
(-1.75829e-07 -2.29397e-06 -2.53464e-07)
(9.89386e-07 -1.75318e-06 -1.01578e-07)
(1.87913e-06 -1.43179e-06 -2.03706e-08)
(2.47705e-06 -1.19163e-06 2.69649e-08)
(2.8239e-06 -9.90406e-07 6.07077e-08)
(2.92335e-06 -8.08623e-07 8.8155e-08)
(2.78513e-06 -6.42934e-07 1.12302e-07)
(2.42584e-06 -4.97294e-07 1.33379e-07)
(1.87466e-06 -3.78547e-07 1.50647e-07)
(1.17391e-06 -2.9383e-07 1.63027e-07)
(3.77131e-07 -2.48761e-07 1.69622e-07)
(-4.5466e-07 -2.46233e-07 1.69945e-07)
(-1.25814e-06 -2.85774e-07 1.64072e-07)
(-1.97336e-06 -3.6339e-07 1.52666e-07)
(-2.54916e-06 -4.71889e-07 1.36914e-07)
(-2.94765e-06 -6.01502e-07 1.18433e-07)
(-3.14731e-06 -7.40753e-07 9.90241e-08)
(-3.14449e-06 -8.77127e-07 8.05706e-08)
(-2.95314e-06 -9.97659e-07 6.47657e-08)
(-2.60359e-06 -1.08932e-06 5.29352e-08)
(-2.13962e-06 -1.13841e-06 4.58816e-08)
(-1.61494e-06 -1.13025e-06 4.36079e-08)
(-1.08825e-06 -1.04848e-06 4.49095e-08)
(-6.16323e-07 -8.75761e-07 4.6675e-08)
(-2.49323e-07 -5.96213e-07 4.29832e-08)
(-2.38164e-08 -2.16771e-07 2.38732e-08)
(-8.55877e-07 -6.77994e-06 -8.55829e-07)
(-1.86344e-06 -5.49175e-06 -7.57697e-07)
(-1.33829e-06 -4.8431e-06 -5.31973e-07)
(-3.5997e-07 -3.94539e-06 -2.54553e-07)
(8.10719e-07 -3.44761e-06 -9.12772e-08)
(1.79184e-06 -3.06481e-06 3.31825e-09)
(2.60268e-06 -2.76879e-06 6.24774e-08)
(3.18204e-06 -2.49407e-06 1.0301e-07)
(3.51515e-06 -2.22409e-06 1.35592e-07)
(3.58433e-06 -1.956e-06 1.64254e-07)
(3.38729e-06 -1.69846e-06 1.90375e-07)
(2.93683e-06 -1.46533e-06 2.13539e-07)
(2.2637e-06 -1.27208e-06 2.3263e-07)
(1.41589e-06 -1.13302e-06 2.46351e-07)
(4.55683e-07 -1.05882e-06 2.53656e-07)
(-5.45269e-07 -1.05501e-06 2.53982e-07)
(-1.5123e-06 -1.12098e-06 2.47394e-07)
(-2.37463e-06 -1.24982e-06 2.34604e-07)
(-3.07184e-06 -1.42891e-06 2.169e-07)
(-3.55934e-06 -1.64104e-06 1.95997e-07)
(-3.81176e-06 -1.86587e-06 1.73804e-07)
(-3.82476e-06 -2.08126e-06 1.52234e-07)
(-3.61438e-06 -2.2643e-06 1.3296e-07)
(-3.21517e-06 -2.39185e-06 1.17266e-07)
(-2.67656e-06 -2.4403e-06 1.05791e-07)
(-2.05836e-06 -2.38512e-06 9.83422e-08)
(-1.42539e-06 -2.19995e-06 9.35242e-08)
(-8.39654e-07 -1.85607e-06 8.78081e-08)
(-3.60962e-07 -1.31976e-06 7.46793e-08)
(-3.94138e-08 -5.52722e-07 3.94807e-08)
(-2.6603e-07 -2.72566e-06 -2.65974e-07)
(-7.6525e-07 -4.40562e-06 -3.04656e-07)
(-1.94929e-07 -4.92675e-06 -1.88835e-07)
(6.25506e-07 -4.91094e-06 -6.35108e-08)
(1.59875e-06 -4.8257e-06 2.41191e-08)
(2.49879e-06 -4.65371e-06 8.30929e-08)
(3.26794e-06 -4.42869e-06 1.26298e-07)
(3.83093e-06 -4.14759e-06 1.61075e-07)
(4.14581e-06 -3.82343e-06 1.92503e-07)
(4.18165e-06 -3.47424e-06 2.22217e-07)
(3.92753e-06 -3.12407e-06 2.50273e-07)
(3.39324e-06 -2.79958e-06 2.75593e-07)
(2.61057e-06 -2.52707e-06 2.96633e-07)
(1.63208e-06 -2.32962e-06 3.11814e-07)
(5.27417e-07 -2.22412e-06 3.19891e-07)
(-6.22631e-07 -2.21929e-06 3.20195e-07)
(-1.73358e-06 -2.31447e-06 3.12779e-07)
(-2.72527e-06 -2.49949e-06 2.98421e-07)
(-3.52934e-06 -2.7555e-06 2.78555e-07)
(-4.09544e-06 -3.05672e-06 2.55042e-07)
(-4.39511e-06 -3.37267e-06 2.29955e-07)
(-4.42342e-06 -3.67024e-06 2.05327e-07)
(-4.19803e-06 -3.91524e-06 1.82886e-07)
(-3.75678e-06 -4.0734e-06 1.63914e-07)
(-3.15341e-06 -4.1103e-06 1.49e-07)
(-2.45238e-06 -3.9906e-06 1.37844e-07)
(-1.72357e-06 -3.67624e-06 1.28931e-07)
(-1.03445e-06 -3.12313e-06 1.18351e-07)
(-4.55478e-07 -2.26968e-06 9.88726e-08)
(-5.16927e-08 -1.00512e-06 5.17733e-08)
(-9.36292e-08 -2.60987e-06 -9.35598e-08)
(-1.79868e-08 -4.69778e-06 -7.29544e-08)
(5.53628e-07 -5.79697e-06 -1.18641e-08)
(1.34037e-06 -6.30956e-06 5.05406e-08)
(2.24939e-06 -6.53765e-06 1.00728e-07)
(3.12513e-06 -6.54545e-06 1.40154e-07)
(3.88333e-06 -6.39331e-06 1.74308e-07)
(4.44194e-06 -6.11384e-06 2.0628e-07)
(4.74409e-06 -5.74278e-06 2.38124e-07)
(4.74989e-06 -5.31691e-06 2.69959e-07)
(4.44229e-06 -4.87576e-06 3.00885e-07)
(3.82876e-06 -4.4596e-06 3.29218e-07)
(2.94226e-06 -4.1066e-06 3.52949e-07)
(1.83968e-06 -3.84942e-06 3.70131e-07)
(5.97816e-07 -3.71191e-06 3.79263e-07)
(-6.93749e-07 -3.7064e-06 3.79537e-07)
(-1.94101e-06 -3.83223e-06 3.70989e-07)
(-3.05473e-06 -4.07572e-06 3.5451e-07)
(-3.95895e-06 -4.41129e-06 3.31736e-07)
(-4.59789e-06 -4.8039e-06 3.048e-07)
(-4.94043e-06 -5.21228e-06 2.76049e-07)
(-4.98118e-06 -5.59147e-06 2.47732e-07)
(-4.7396e-06 -5.8954e-06 2.2172e-07)
(-4.25677e-06 -6.07813e-06 1.99394e-07)
(-3.59048e-06 -6.09372e-06 1.81367e-07)
(-2.80988e-06 -5.89501e-06 1.67285e-07)
(-1.99018e-06 -5.43026e-06 1.55512e-07)
(-1.20504e-06 -4.63547e-06 1.41725e-07)
(-5.35748e-07 -3.4116e-06 1.17849e-07)
(-6.15545e-08 -1.5542e-06 6.16534e-08)
(5.45977e-09 -2.69811e-06 5.54682e-09)
(3.30114e-07 -5.45337e-06 4.4365e-08)
(9.94524e-07 -7.09144e-06 8.42028e-08)
(1.83785e-06 -8.03587e-06 1.20539e-07)
(2.76948e-06 -8.54224e-06 1.52827e-07)
(3.6696e-06 -8.71679e-06 1.82611e-07)
(4.44754e-06 -8.64012e-06 2.12783e-07)
(5.0189e-06 -8.36966e-06 2.44629e-07)
(5.31889e-06 -7.96e-06 2.78633e-07)
(5.30164e-06 -7.46462e-06 3.13975e-07)
(4.94572e-06 -6.93796e-06 3.49011e-07)
(4.25699e-06 -6.43396e-06 3.81484e-07)
(3.26981e-06 -6.0028e-06 4.0886e-07)
(2.04574e-06 -5.68725e-06 4.2873e-07)
(6.68877e-07 -5.51849e-06 4.3927e-07)
(-7.62057e-07 -5.51263e-06 4.3951e-07)
(-2.14329e-06 -5.66912e-06 4.29475e-07)
(-3.37626e-06 -5.97059e-06 4.10191e-07)
(-4.37728e-06 -6.38452e-06 3.83571e-07)
(-5.08529e-06 -6.8663e-06 3.52151e-07)
(-5.46659e-06 -7.36342e-06 3.18655e-07)
(-5.51589e-06 -7.81901e-06 2.85659e-07)
(-5.25486e-06 -8.17496e-06 2.5532e-07)
(-4.72816e-06 -8.37342e-06 2.29153e-07)
(-3.99813e-06 -8.35649e-06 2.07857e-07)
(-3.13897e-06 -8.06423e-06 1.91042e-07)
(-2.23174e-06 -7.42898e-06 1.76944e-07)
(-1.35675e-06 -6.36256e-06 1.60795e-07)
(-6.0553e-07 -4.71991e-06 1.3357e-07)
(-6.98458e-08 -2.18569e-06 6.99688e-08)
(4.7207e-08 -3.17214e-06 4.73135e-08)
(5.27163e-07 -6.62101e-06 1.03325e-07)
(1.28752e-06 -8.75529e-06 1.37747e-07)
(2.2098e-06 -1.00725e-05 1.64553e-07)
(3.19795e-06 -1.08301e-05 1.89536e-07)
(4.14727e-06 -1.1161e-05 2.15888e-07)
(4.96401e-06 -1.1162e-05 2.45762e-07)
(5.56152e-06 -1.09088e-05 2.79823e-07)
(5.86931e-06 -1.04711e-05 3.17732e-07)
(5.83666e-06 -9.91701e-06 3.58083e-07)
(5.43841e-06 -9.31459e-06 3.98621e-07)
(4.679e-06 -8.73069e-06 4.36462e-07)
(3.59436e-06 -8.22742e-06 4.68499e-07)
(2.25092e-06 -7.85763e-06 4.91798e-07)
(7.40468e-07 -7.65977e-06 5.04134e-07)
(-8.28664e-07 -7.65388e-06 5.04335e-07)
(-2.34248e-06 -7.83947e-06 4.92418e-07)
(-3.69268e-06 -8.19555e-06 4.69594e-07)
(-4.78756e-06 -8.68251e-06 4.38145e-07)
(-5.56081e-06 -9.24624e-06 4.0109e-07)
(-5.97657e-06 -9.82316e-06 3.61634e-07)
(-6.03013e-06 -1.03446e-05 3.22829e-07)
(-5.74599e-06 -1.07406e-05 2.87209e-07)
(-5.17288e-06 -1.09416e-05 2.56482e-07)
(-4.37838e-06 -1.08777e-05 2.3147e-07)
(-3.44216e-06 -1.04753e-05 2.11749e-07)
(-2.45132e-06 -9.64859e-06 1.95432e-07)
(-1.4928e-06 -8.28148e-06 1.77265e-07)
(-6.67303e-07 -6.17549e-06 1.4725e-07)
(-7.7117e-08 -2.88957e-06 7.7268e-08)
(6.95005e-08 -3.81805e-06 6.96301e-08)
(6.46981e-07 -8.03939e-06 1.37359e-07)
(1.49282e-06 -1.06855e-05 1.71031e-07)
(2.49563e-06 -1.23664e-05 1.94727e-07)
(3.55196e-06 -1.33718e-05 2.1748e-07)
(4.5615e-06 -1.38618e-05 2.43831e-07)
(5.42742e-06 -1.39503e-05 2.75814e-07)
(6.06008e-06 -1.37283e-05 3.1388e-07)
(6.38398e-06 -1.32788e-05 3.57236e-07)
(6.34354e-06 -1.26822e-05 4.0399e-07)
(5.90998e-06 -1.20191e-05 4.51335e-07)
(5.08615e-06 -1.13682e-05 4.95744e-07)
(3.9094e-06 -1.0803e-05 5.33462e-07)
(2.45105e-06 -1.03858e-05 5.60915e-07)
(8.10865e-07 -1.01624e-05 5.75401e-07)
(-8.92899e-07 -1.01567e-05 5.75565e-07)
(-2.53554e-06 -1.03682e-05 5.61423e-07)
(-3.99872e-06 -1.07725e-05 5.34353e-07)
(-5.18264e-06 -1.1323e-05 4.97073e-07)
(-6.01593e-06 -1.19561e-05 4.53232e-07)
(-6.46083e-06 -1.25978e-05 4.0665e-07)
(-6.51401e-06 -1.31681e-05 3.60923e-07)
(-6.20344e-06 -1.35863e-05 3.1899e-07)
(-5.58274e-06 -1.37712e-05 2.82873e-07)
(-4.72499e-06 -1.36414e-05 2.53532e-07)
(-3.71547e-06 -1.31088e-05 2.30559e-07)
(-2.64722e-06 -1.20685e-05 2.11888e-07)
(-1.61316e-06 -1.03723e-05 1.91786e-07)
(-7.21731e-07 -7.7621e-06 1.59344e-07)
(-8.35927e-08 -3.65775e-06 8.37752e-08)
(8.21912e-08 -4.57825e-06 8.23471e-08)
(7.25847e-07 -9.64119e-06 1.58238e-07)
(1.64128e-06 -1.28249e-05 1.92968e-07)
(2.71506e-06 -1.48771e-05 2.16466e-07)
(3.83695e-06 -1.61385e-05 2.39637e-07)
(4.90659e-06 -1.67997e-05 2.68024e-07)
(5.82399e-06 -1.69928e-05 3.03777e-07)
(6.49576e-06 -1.68228e-05 3.47232e-07)
(6.84159e-06 -1.63845e-05 3.97374e-07)
(6.80097e-06 -1.57688e-05 4.51853e-07)
(6.34081e-06 -1.50667e-05 5.07287e-07)
(5.46179e-06 -1.43676e-05 5.59459e-07)
(4.2023e-06 -1.37548e-05 6.03832e-07)
(2.63814e-06 -1.33003e-05 6.36126e-07)
(8.77048e-07 -1.30565e-05 6.5314e-07)
(-9.52563e-07 -1.30511e-05 6.53268e-07)
(-2.71534e-06 -1.32839e-05 6.36517e-07)
(-4.28272e-06 -1.37266e-05 6.04503e-07)
(-5.54686e-06 -1.4326e-05 5.60463e-07)
(-6.43177e-06 -1.50101e-05 5.0873e-07)
(-6.89872e-06 -1.56945e-05 4.53815e-07)
(-6.94644e-06 -1.62896e-05 4.00018e-07)
(-6.60716e-06 -1.67046e-05 3.50784e-07)
(-5.9399e-06 -1.68486e-05 3.08475e-07)
(-5.02325e-06 -1.66286e-05 2.74186e-07)
(-3.94807e-06 -1.59427e-05 2.4752e-07)
(-2.81249e-06 -1.46647e-05 2.26292e-07)
(-1.71413e-06 -1.26125e-05 2.04295e-07)
(-7.67456e-07 -9.46201e-06 1.69718e-07)
(-8.91869e-08 -4.48191e-06 8.94051e-08)
(8.99483e-08 -5.41196e-06 9.0122e-08)
(7.7725e-07 -1.13718e-05 1.7149e-07)
(1.74298e-06 -1.51196e-05 2.0759e-07)
(2.87057e-06 -1.75585e-05 2.32043e-07)
(4.0453e-06 -1.90917e-05 2.56977e-07)
(5.16586e-06 -1.99438e-05 2.88589e-07)
(6.12959e-06 -2.02664e-05 3.29195e-07)
(6.8396e-06 -2.01776e-05 3.79134e-07)
(7.21088e-06 -1.97817e-05 4.37145e-07)
(7.17766e-06 -1.91784e-05 5.00502e-07)
(6.70193e-06 -1.84668e-05 5.652e-07)
(5.7814e-06 -1.77448e-05 6.26238e-07)
(4.45444e-06 -1.71048e-05 6.78262e-07)
(2.80057e-06 -1.66267e-05 7.16133e-07)
(9.34917e-07 -1.63694e-05 7.36036e-07)
(-1.00422e-06 -1.63645e-05 7.36134e-07)
(-2.87086e-06 -1.66116e-05 7.16432e-07)
(-4.52661e-06 -1.70792e-05 6.7877e-07)
(-5.85622e-06 -1.77076e-05 6.26978e-07)
(-6.78e-06 -1.84169e-05 5.66208e-07)
(-7.2592e-06 -1.91142e-05 5.01886e-07)
(-7.29559e-06 -1.97015e-05 4.39012e-07)
(-6.92653e-06 -2.008e-05 3.81571e-07)
(-6.21674e-06 -2.01508e-05 3.32322e-07)
(-5.25015e-06 -1.9811e-05 2.92546e-07)
(-4.12216e-06 -1.89449e-05 2.61846e-07)
(-2.93475e-06 -1.74051e-05 2.37852e-07)
(-1.78855e-06 -1.49723e-05 2.13997e-07)
(-8.01462e-07 -1.12524e-05 1.77732e-07)
(-9.35569e-08 -5.35144e-06 9.38168e-08)
(9.41819e-08 -6.29089e-06 9.43904e-08)
(8.04367e-07 -1.31833e-05 1.78791e-07)
(1.79663e-06 -1.75147e-05 2.15926e-07)
(2.95368e-06 -2.03557e-05 2.4168e-07)
(4.15946e-06 -2.218e-05 2.68935e-07)
(5.31295e-06 -2.32484e-05 3.0443e-07)
(6.3104e-06 -2.37324e-05 3.50598e-07)
(7.05262e-06 -2.37623e-05 4.07802e-07)
(7.45032e-06 -2.34497e-05 4.74608e-07)
(7.43252e-06 -2.29003e-05 5.4792e-07)
(6.95567e-06 -2.22182e-05 6.23109e-07)
(6.0132e-06 -2.15076e-05 6.94302e-07)
(4.64188e-06 -2.08676e-05 7.55151e-07)
(2.92347e-06 -2.03845e-05 7.99551e-07)
(9.79335e-07 -2.01232e-05 8.22867e-07)
(-1.04302e-06 -2.01188e-05 8.22934e-07)
(-2.9876e-06 -2.03709e-05 7.99737e-07)
(-4.70688e-06 -2.08446e-05 7.55466e-07)
(-6.07931e-06 -2.14748e-05 6.9479e-07)
(-7.02293e-06 -2.21746e-05 6.23786e-07)
(-7.5008e-06 -2.2845e-05 5.48874e-07)
(-7.51913e-06 -2.33822e-05 4.7589e-07)
(-7.12101e-06 -2.36821e-05 4.09458e-07)
(-6.37666e-06 -2.36399e-05 3.5269e-07)
(-5.37472e-06 -2.3145e-05 3.07007e-07)
(-4.21366e-06 -2.20691e-05 2.72011e-07)
(-2.99704e-06 -2.02433e-05 2.452e-07)
(-1.82606e-06 -1.74103e-05 2.19683e-07)
(-8.1907e-07 -1.31014e-05 1.8234e-07)
(-9.61329e-08 -6.25123e-06 9.64352e-08)
(9.51219e-08 -7.18721e-06 9.534e-08)
(8.05106e-07 -1.50227e-05 1.80015e-07)
(1.79404e-06 -1.99446e-05 2.17353e-07)
(2.94793e-06 -2.31988e-05 2.44282e-07)
(4.15356e-06 -2.53333e-05 2.73995e-07)
(5.31277e-06 -2.66466e-05 3.13501e-07)
(6.32327e-06 -2.73298e-05 3.65418e-07)
(7.08559e-06 -2.75237e-05 4.30172e-07)
(7.50761e-06 -2.73451e-05 5.06227e-07)
(7.51357e-06 -2.69019e-05 5.90169e-07)
(7.05387e-06 -2.63002e-05 6.76801e-07)
(6.11609e-06 -2.56461e-05 7.59383e-07)
(4.73336e-06 -2.50422e-05 8.30298e-07)
(2.98737e-06 -2.45794e-05 8.8227e-07)
(1.00363e-06 -2.43271e-05 9.09628e-07)
(-1.06264e-06 -2.43231e-05 9.09655e-07)
(-3.04638e-06 -2.45673e-05 8.82362e-07)
(-4.79236e-06 -2.50218e-05 8.3046e-07)
(-6.17493e-06 -2.56171e-05 7.59641e-07)
(-7.11231e-06 -2.62622e-05 6.77207e-07)
(-7.57134e-06 -2.68546e-05 5.90764e-07)
(-7.5642e-06 -2.72885e-05 5.07023e-07)
(-7.14013e-06 -2.74579e-05 4.31255e-07)
(-6.37443e-06 -2.72555e-05 3.66796e-07)
(-5.35885e-06 -2.65655e-05 3.15197e-07)
(-4.19254e-06 -2.52485e-05 2.75973e-07)
(-2.97797e-06 -2.31151e-05 2.46485e-07)
(-1.81361e-06 -1.9869e-05 2.19647e-07)
(-8.14344e-07 -1.4965e-05 1.82125e-07)
(-9.62003e-08 -7.16031e-06 9.65541e-08)
(9.22609e-08 -8.06937e-06 9.25165e-08)
(7.74515e-07 -1.68269e-05 1.74221e-07)
(1.72312e-06 -2.23285e-05 2.10582e-07)
(2.83233e-06 -2.59974e-05 2.38093e-07)
(3.99644e-06 -2.84572e-05 2.69874e-07)
(5.12405e-06 -3.0044e-05 3.12988e-07)
(6.11784e-06 -3.09677e-05 3.7014e-07)
(6.88099e-06 -3.13779e-05 4.41984e-07)
(7.3211e-06 -3.13935e-05 5.27084e-07)
(7.35864e-06 -3.11206e-05 6.21863e-07)
(6.93823e-06 -3.06626e-05 7.20603e-07)
(6.04003e-06 -3.0123e-05 8.15644e-07)
(4.69067e-06 -2.96033e-05 8.98017e-07)
(2.96841e-06 -2.91948e-05 9.58976e-07)
(9.99716e-07 -2.89691e-05 9.91302e-07)
(-1.05492e-06 -2.89655e-05 9.91301e-07)
(-3.02325e-06 -2.9184e-05 9.58985e-07)
(-4.7448e-06 -2.95852e-05 8.98045e-07)
(-6.09306e-06 -3.00975e-05 8.15706e-07)
(-6.98987e-06 -3.06297e-05 7.20763e-07)
(-7.40843e-06 -3.10803e-05 6.22219e-07)
(-7.36839e-06 -3.1346e-05 5.27603e-07)
(-6.92522e-06 -3.13239e-05 4.427e-07)
(-6.15805e-06 -3.09079e-05 3.71037e-07)
(-5.1591e-06 -2.99799e-05 3.14067e-07)
(-4.02517e-06 -2.83918e-05 2.71133e-07)
(-2.8537e-06 -2.59344e-05 2.39504e-07)
(-1.73653e-06 -2.22729e-05 2.12045e-07)
(-7.8053e-07 -1.67853e-05 1.75534e-07)
(-9.28816e-08 -8.05052e-06 9.32803e-08)
(8.49079e-08 -8.89928e-06 8.51747e-08)
(7.06698e-07 -1.8519e-05 1.59963e-07)
(1.57041e-06 -2.4567e-05 1.93718e-07)
(2.58401e-06 -2.86383e-05 2.20795e-07)
(3.65494e-06 -3.14302e-05 2.53611e-07)
(4.70278e-06 -3.33148e-05 2.99019e-07)
(5.63974e-06 -3.45197e-05 3.59928e-07)
(6.37574e-06 -3.52006e-05 4.37207e-07)
(6.82152e-06 -3.54755e-05 5.29593e-07)
(6.8964e-06 -3.54453e-05 6.33645e-07)
(6.53974e-06 -3.52052e-05 7.43358e-07)
(5.72344e-06 -3.48504e-05 8.50376e-07)
(4.46512e-06 -3.44747e-05 9.44399e-07)
(2.83545e-06 -3.41647e-05 1.01491e-06)
(9.56859e-07 -3.39886e-05 1.05269e-06)
(-1.00919e-06 -3.39854e-05 1.05266e-06)
(-2.88713e-06 -3.4155e-05 1.01483e-06)
(-4.51557e-06 -3.44587e-05 9.44308e-07)
(-5.77204e-06 -3.48279e-05 8.50323e-07)
(-6.586e-06 -3.51766e-05 7.43362e-07)
(-6.93995e-06 -3.54107e-05 6.33745e-07)
(-6.86194e-06 -3.54355e-05 5.29818e-07)
(-6.41249e-06 -3.51559e-05 4.3759e-07)
(-5.67217e-06 -3.44712e-05 3.60472e-07)
(-4.73018e-06 -3.32639e-05 2.99712e-07)
(-3.67666e-06 -3.13793e-05 2.5442e-07)
(-2.59956e-06 -2.85901e-05 2.21679e-07)
(-1.57981e-06 -2.45252e-05 1.94651e-07)
(-7.10694e-07 -1.84884e-05 1.6082e-07)
(-8.5253e-08 -8.88569e-06 8.56983e-08)
(7.2343e-08 -9.63231e-06 7.262e-08)
(5.96093e-07 -2.00089e-05 1.35915e-07)
(1.32367e-06 -2.6542e-05 1.65083e-07)
(2.18262e-06 -3.09848e-05 1.90178e-07)
(3.09937e-06 -3.41016e-05 2.22312e-07)
(4.00915e-06 -3.62978e-05 2.67774e-07)
(4.83882e-06 -3.78162e-05 3.29476e-07)
(5.50993e-06 -3.88167e-05 4.08592e-07)
(5.94082e-06 -3.94136e-05 5.0434e-07)
(6.05372e-06 -3.96987e-05 6.13707e-07)
(5.78527e-06 -3.97542e-05 7.30789e-07)
(5.09959e-06 -3.96602e-05 8.4678e-07)
(4.00276e-06 -3.94959e-05 9.50251e-07)
(2.55315e-06 -3.93348e-05 1.02907e-06)
(8.62809e-07 -3.92358e-05 1.07187e-06)
(-9.12916e-07 -3.9233e-05 1.07184e-06)
(-2.60235e-06 -3.93262e-05 1.02899e-06)
(-4.05032e-06 -3.94817e-05 9.50114e-07)
(-5.14482e-06 -3.96405e-05 8.46624e-07)
(-5.8277e-06 -3.97294e-05 7.30675e-07)
(-6.09283e-06 -3.96693e-05 6.13699e-07)
(-5.97621e-06 -3.93801e-05 5.04428e-07)
(-5.54121e-06 -3.87796e-05 4.08772e-07)
(-4.86566e-06 -3.77766e-05 3.2977e-07)
(-4.03115e-06 -3.6257e-05 2.68181e-07)
(-3.11628e-06 -3.40614e-05 2.22822e-07)
(-2.19433e-06 -3.09474e-05 1.90765e-07)
(-1.33048e-06 -2.65102e-05 1.65693e-07)
(-5.98822e-07 -1.99859e-05 1.36505e-07)
(-7.25168e-08 -9.62228e-06 7.30044e-08)
(5.40184e-08 -1.02183e-05 5.42936e-08)
(4.39165e-07 -2.11955e-05 1.01058e-07)
(9.75354e-07 -2.81212e-05 1.23283e-07)
(1.61536e-06 -3.28807e-05 1.44408e-07)
(2.31031e-06 -3.62956e-05 1.73317e-07)
(3.01585e-06 -3.87988e-05 2.15286e-07)
(3.67858e-06 -4.06451e-05 2.73123e-07)
(4.23728e-06 -4.19967e-05 3.48248e-07)
(4.62386e-06 -4.29618e-05 4.40385e-07)
(4.76858e-06 -4.362e-05 5.47081e-07)
(4.60955e-06 -4.40364e-05 6.63047e-07)
(4.10528e-06 -4.42701e-05 7.79845e-07)
(3.24994e-06 -4.43785e-05 8.85682e-07)
(2.08513e-06 -4.44135e-05 9.67448e-07)
(7.04673e-07 -4.44173e-05 1.01241e-06)
(-7.53158e-07 -4.44149e-05 1.01234e-06)
(-2.13262e-06 -4.4406e-05 9.67325e-07)
(-3.29546e-06 -4.43661e-05 8.85483e-07)
(-4.14804e-06 -4.4253e-05 7.79647e-07)
(-4.64903e-06 -4.40151e-05 6.62852e-07)
(-4.80429e-06 -4.35949e-05 5.46948e-07)
(-4.65555e-06 -4.29335e-05 4.40294e-07)
(-4.26467e-06 -4.19658e-05 3.48255e-07)
(-3.70146e-06 -4.06126e-05 2.73237e-07)
(-3.0341e-06 -3.87658e-05 2.15479e-07)
(-2.32391e-06 -3.62636e-05 1.73597e-07)
(-1.62443e-06 -3.28513e-05 1.4476e-07)
(-9.80365e-07 -2.80965e-05 1.2367e-07)
(-4.41026e-07 -2.11779e-05 1.01471e-07)
(-5.40798e-08 -1.02107e-05 5.46048e-08)
(2.98384e-08 -1.06044e-05 3.01396e-08)
(2.35928e-07 -2.19732e-05 5.52688e-08)
(5.25758e-07 -2.91651e-05 6.80892e-08)
(8.82582e-07 -3.41605e-05 8.29116e-08)
(1.28703e-06 -3.78214e-05 1.05488e-07)
(1.71962e-06 -4.06011e-05 1.39572e-07)
(2.15156e-06 -4.27618e-05 1.87447e-07)
(2.54436e-06 -4.4465e-05 2.50684e-07)
(2.84978e-06 -4.58117e-05 3.29532e-07)
(3.01267e-06 -4.68673e-05 4.22404e-07)
(2.97876e-06 -4.76771e-05 5.25044e-07)
(2.70517e-06 -4.82751e-05 6.30089e-07)
(2.17484e-06 -4.86917e-05 7.26654e-07)
(1.40922e-06 -4.89516e-05 8.02241e-07)
(4.74534e-07 -4.90747e-05 8.44222e-07)
(-5.21746e-07 -4.90728e-05 8.44158e-07)
(-1.45527e-06 -4.89453e-05 8.02109e-07)
(-2.21871e-06 -4.86809e-05 7.26414e-07)
(-2.74605e-06 -4.82605e-05 6.29801e-07)
(-3.01612e-06 -4.76587e-05 5.24722e-07)
(-3.04599e-06 -4.68458e-05 4.22166e-07)
(-2.87882e-06 -4.57876e-05 3.29334e-07)
(-2.56895e-06 -4.44391e-05 2.50583e-07)
(-2.17162e-06 -4.27348e-05 1.87428e-07)
(-1.7352e-06 -4.0574e-05 1.39607e-07)
(-1.2983e-06 -3.77956e-05 1.05611e-07)
(-8.89847e-07 -3.41371e-05 8.31045e-08)
(-5.29593e-07 -2.91456e-05 6.83734e-08)
(-2.37241e-07 -2.19595e-05 5.55788e-08)
(-2.9845e-08 -1.05987e-05 3.03997e-08)
(3.75056e-10 -1.07408e-05 6.47271e-10)
(-8.50984e-09 -2.22426e-05 -5.03644e-10)
(-1.3717e-08 -2.95418e-05 5.59445e-10)
(2.43443e-09 -3.46644e-05 6.65547e-09)
(5.42228e-08 -3.84916e-05 1.95619e-08)
(1.50024e-07 -4.14857e-05 4.08641e-08)
(2.90127e-07 -4.39119e-05 7.21723e-08)
(4.63987e-07 -4.59278e-05 1.14776e-07)
(6.49187e-07 -4.7625e-05 1.69295e-07)
(8.12205e-07 -4.90539e-05 2.35169e-07)
(9.12845e-07 -5.02393e-05 3.09518e-07)
(9.12208e-07 -5.11905e-05 3.87245e-07)
(7.84359e-07 -5.19085e-05 4.59905e-07)
(5.27832e-07 -5.239e-05 5.17617e-07)
(1.72837e-07 -5.26313e-05 5.5003e-07)
(-2.18936e-07 -5.26295e-05 5.49954e-07)
(-5.72632e-07 -5.23843e-05 5.17426e-07)
(-8.26896e-07 -5.18988e-05 4.59585e-07)
(-9.5161e-07 -5.11776e-05 3.86883e-07)
(-9.48424e-07 -5.02232e-05 3.0914e-07)
(-8.43608e-07 -4.90353e-05 2.34803e-07)
(-6.76223e-07 -4.76043e-05 1.68991e-07)
(-4.86535e-07 -4.59059e-05 1.14516e-07)
(-3.08199e-07 -4.38894e-05 7.2014e-08)
(-1.63744e-07 -4.14633e-05 4.07877e-08)
(-6.38783e-08 -3.84705e-05 1.95308e-08)
(-8.48051e-09 -3.46455e-05 6.72619e-09)
(1.06886e-08 -2.95263e-05 7.21168e-10)
(7.61026e-09 -2.22317e-05 -2.74437e-10)
(-3.12472e-10 -1.07362e-05 8.87152e-10)
(-3.32225e-08 -1.05855e-05 -3.29411e-08)
(-2.8355e-07 -2.19212e-05 -6.38602e-08)
(-6.19182e-07 -2.91421e-05 -7.63911e-08)
(-9.86073e-07 -3.42591e-05 -8.11451e-08)
(-1.33397e-06 -3.81469e-05 -8.09097e-08)
(-1.62447e-06 -4.12634e-05 -7.665e-08)
(-1.8252e-06 -4.38697e-05 -6.7862e-08)
(-1.91449e-06 -4.61164e-05 -5.37168e-08)
(-1.88364e-06 -4.80847e-05 -3.3322e-08)
(-1.73882e-06 -4.98113e-05 -6.20225e-09)
(-1.49976e-06 -5.13017e-05 2.68531e-08)
(-1.19629e-06 -5.25423e-05 6.3707e-08)
(-8.60746e-07 -5.35089e-05 9.97867e-08)
(-5.19726e-07 -5.4174e-05 1.29529e-07)
(-1.86563e-07 -5.45131e-05 1.46639e-07)
(1.41839e-07 -5.45112e-05 1.46533e-07)
(4.76261e-07 -5.41686e-05 1.29288e-07)
(8.19622e-07 -5.35002e-05 9.9438e-08)
(1.15835e-06 -5.25305e-05 6.32816e-08)
(1.46562e-06 -5.12871e-05 2.64282e-08)
(1.70887e-06 -4.97948e-05 -6.62774e-09)
(1.85811e-06 -4.80667e-05 -3.36935e-08)
(1.89344e-06 -4.60975e-05 -5.40414e-08)
(1.80853e-06 -4.38506e-05 -6.81016e-08)
(1.61201e-06 -4.12447e-05 -7.68012e-08)
(1.3254e-06 -3.81293e-05 -8.09856e-08)
(9.80906e-07 -3.42436e-05 -8.11316e-08)
(6.1673e-07 -2.91295e-05 -7.62952e-08)
(2.82897e-07 -2.19124e-05 -6.36721e-08)
(3.33091e-08 -1.05819e-05 -3.27247e-08)
(-6.88652e-08 -1.01121e-05 -6.86176e-08)
(-5.72686e-07 -2.09577e-05 -1.31124e-07)
(-1.25469e-06 -2.78976e-05 -1.5831e-07)
(-2.02463e-06 -3.28589e-05 -1.75227e-07)
(-2.79595e-06 -3.66811e-05 -1.89688e-07)
(-3.49958e-06 -3.98035e-05 -2.05526e-07)
(-4.06966e-06 -4.24748e-05 -2.23596e-07)
(-4.4499e-06 -4.48358e-05 -2.43558e-07)
(-4.59698e-06 -4.69574e-05 -2.64226e-07)
(-4.48522e-06 -4.88634e-05 -2.84054e-07)
(-4.10956e-06 -5.05441e-05 -3.01438e-07)
(-3.48715e-06 -5.19692e-05 -3.14997e-07)
(-2.65489e-06 -5.30958e-05 -3.24258e-07)
(-1.66536e-06 -5.38794e-05 -3.29366e-07)
(-5.80187e-07 -5.42816e-05 -3.31362e-07)
(5.3721e-07 -5.428e-05 -3.31453e-07)
(1.62358e-06 -5.38745e-05 -3.29611e-07)
(2.6153e-06 -5.3088e-05 -3.24639e-07)
(3.45063e-06 -5.19585e-05 -3.15418e-07)
(4.0768e-06 -5.05312e-05 -3.01869e-07)
(4.4566e-06 -4.88487e-05 -2.84515e-07)
(4.57265e-06 -4.69416e-05 -2.64646e-07)
(4.42997e-06 -4.48193e-05 -2.43891e-07)
(4.05404e-06 -4.24584e-05 -2.239e-07)
(3.48801e-06 -3.97877e-05 -2.05739e-07)
(2.78813e-06 -3.66665e-05 -1.89794e-07)
(2.02004e-06 -3.28461e-05 -1.75261e-07)
(1.25259e-06 -2.78873e-05 -1.58254e-07)
(5.72209e-07 -2.09507e-05 -1.30948e-07)
(6.89839e-08 -1.01092e-05 -6.83984e-08)
(-1.03976e-07 -9.31546e-06 -1.03738e-07)
(-8.54816e-07 -1.93437e-05 -1.97312e-07)
(-1.87411e-06 -2.57961e-05 -2.39055e-07)
(-3.03845e-06 -3.04449e-05 -2.68479e-07)
(-4.22747e-06 -3.40645e-05 -2.98401e-07)
(-5.34265e-06 -3.70615e-05 -3.35518e-07)
(-6.28468e-06 -3.96654e-05 -3.82e-07)
(-6.96208e-06 -4.20041e-05 -4.38137e-07)
(-7.2957e-06 -4.41381e-05 -5.02451e-07)
(-7.22626e-06 -4.60806e-05 -5.7216e-07)
(-6.72239e-06 -4.78128e-05 -6.43187e-07)
(-5.78661e-06 -4.92942e-05 -7.10207e-07)
(-4.45925e-06 -5.04726e-05 -7.67553e-07)
(-2.81893e-06 -5.12957e-05 -8.09562e-07)
(-9.766e-07 -5.17193e-05 -8.31782e-07)
(9.35786e-07 -5.17178e-05 -8.31843e-07)
(2.77921e-06 -5.12914e-05 -8.09722e-07)
(4.42167e-06 -5.04655e-05 -7.6782e-07)
(5.75184e-06 -4.92844e-05 -7.10558e-07)
(6.69113e-06 -4.78011e-05 -6.43561e-07)
(7.19887e-06 -4.60673e-05 -5.72538e-07)
(7.27243e-06 -4.4124e-05 -5.0283e-07)
(6.94309e-06 -4.19899e-05 -4.38458e-07)
(6.26985e-06 -3.96513e-05 -3.82293e-07)
(5.33173e-06 -3.70481e-05 -3.35751e-07)
(4.22016e-06 -3.40524e-05 -2.98569e-07)
(3.03422e-06 -3.04345e-05 -2.68558e-07)
(1.8722e-06 -2.57878e-05 -2.39029e-07)
(8.54407e-07 -1.93381e-05 -1.97154e-07)
(1.04095e-07 -9.31313e-06 -1.03527e-07)
(-1.35369e-07 -8.21599e-06 -1.35156e-07)
(-1.10497e-06 -1.71221e-05 -2.56474e-07)
(-2.42414e-06 -2.28928e-05 -3.11384e-07)
(-3.94277e-06 -2.70781e-05 -3.52371e-07)
(-5.51152e-06 -3.03602e-05 -3.96862e-07)
(-7.00532e-06 -3.30996e-05 -4.54254e-07)
(-8.29367e-06 -3.5501e-05 -5.27882e-07)
(-9.25123e-06 -3.7677e-05 -6.18519e-07)
(-9.76425e-06 -3.96785e-05 -7.24488e-07)
(-9.74149e-06 -4.15126e-05 -8.41669e-07)
(-9.12561e-06 -4.31557e-05 -9.63458e-07)
(-7.905e-06 -4.4565e-05 -1.08087e-06)
(-6.12332e-06 -4.56877e-05 -1.18335e-06)
(-3.88344e-06 -4.64719e-05 -1.25978e-06)
(-1.34229e-06 -4.68753e-05 -1.30072e-06)
(1.30432e-06 -4.68738e-05 -1.30077e-06)
(3.84635e-06 -4.64676e-05 -1.25993e-06)
(6.088e-06 -4.56809e-05 -1.18357e-06)
(7.87219e-06 -4.45561e-05 -1.08114e-06)
(9.09597e-06 -4.31453e-05 -9.63781e-07)
(9.71542e-06 -4.1501e-05 -8.41997e-07)
(9.7421e-06 -3.96664e-05 -7.24817e-07)
(9.23309e-06 -3.76648e-05 -6.18844e-07)
(8.27945e-06 -3.5489e-05 -5.28169e-07)
(6.99492e-06 -3.30884e-05 -4.54491e-07)
(5.50455e-06 -3.03501e-05 -3.97042e-07)
(3.93874e-06 -2.70697e-05 -3.52427e-07)
(2.42243e-06 -2.28861e-05 -3.11357e-07)
(1.10465e-06 -1.71176e-05 -2.56335e-07)
(1.35497e-07 -8.21416e-06 -1.3495e-07)
(-1.59486e-07 -6.86364e-06 -1.59299e-07)
(-1.29639e-06 -1.43935e-05 -3.01858e-07)
(-2.84857e-06 -1.93181e-05 -3.66809e-07)
(-4.64915e-06 -2.2908e-05 -4.16856e-07)
(-6.52765e-06 -2.57312e-05 -4.73232e-07)
(-8.33668e-06 -2.8093e-05 -5.47497e-07)
(-9.91841e-06 -3.01693e-05 -6.44082e-07)
(-1.11174e-05 -3.20563e-05 -7.6413e-07)
(-1.17891e-05 -3.37967e-05 -9.05516e-07)
(-1.18137e-05 -3.53942e-05 -1.06285e-06)
(-1.11114e-05 -3.6826e-05 -1.22735e-06)
(-9.65875e-06 -3.80527e-05 -1.38681e-06)
(-7.50227e-06 -3.90281e-05 -1.52655e-06)
(-4.76563e-06 -3.97079e-05 -1.63116e-06)
(-1.64499e-06 -4.00569e-05 -1.6874e-06)
(1.61027e-06 -4.00556e-05 -1.68742e-06)
(4.73159e-06 -3.97042e-05 -1.63123e-06)
(7.46971e-06 -3.90223e-05 -1.52667e-06)
(9.62831e-06 -3.80449e-05 -1.38697e-06)
(1.10837e-05 -3.68169e-05 -1.22755e-06)
(1.17891e-05 -3.53843e-05 -1.06308e-06)
(1.17681e-05 -3.37863e-05 -9.05777e-07)
(1.11001e-05 -3.2046e-05 -7.6439e-07)
(9.90485e-06 -3.01593e-05 -6.44315e-07)
(8.32676e-06 -2.80839e-05 -5.47693e-07)
(6.52101e-06 -2.5723e-05 -4.73413e-07)
(4.64532e-06 -2.29011e-05 -4.16936e-07)
(2.84692e-06 -1.93128e-05 -3.66793e-07)
(1.29607e-06 -1.43901e-05 -3.01727e-07)
(1.59606e-07 -6.8623e-06 -1.59104e-07)
(-1.72405e-07 -5.33978e-06 -1.72239e-07)
(-1.4012e-06 -1.13187e-05 -3.25907e-07)
(-3.09141e-06 -1.52783e-05 -3.95746e-07)
(-5.07216e-06 -1.81722e-05 -4.5039e-07)
(-7.16167e-06 -2.04418e-05 -5.13787e-07)
(-9.19554e-06 -2.23318e-05 -5.99083e-07)
(-1.09939e-05 -2.39869e-05 -7.11587e-07)
(-1.23767e-05 -2.54872e-05 -8.52589e-07)
(-1.3175e-05 -2.68685e-05 -1.01954e-06)
(-1.32465e-05 -2.81338e-05 -1.20596e-06)
(-1.24939e-05 -2.92645e-05 -1.40127e-06)
(-1.0885e-05 -3.02296e-05 -1.5908e-06)
(-8.46881e-06 -3.09939e-05 -1.75701e-06)
(-5.38461e-06 -3.15243e-05 -1.88142e-06)
(-1.8571e-06 -3.17958e-05 -1.94828e-06)
(1.82606e-06 -3.17947e-05 -1.94827e-06)
(5.35408e-06 -3.15212e-05 -1.88142e-06)
(8.43942e-06 -3.09891e-05 -1.75705e-06)