/*--------------------------------*- C++ -*----------------------------------*\
| =========                 |                                                 |
| \\      /  F ield         | OpenFOAM: The Open Source CFD Toolbox           |
|  \\    /   O peration     | Version:  v1906                                 |
|   \\  /    A nd           | Web:      www.OpenFOAM.com                      |
|    \\/     M anipulation  |                                                 |
\*---------------------------------------------------------------------------*/
FoamFile
{
    version     2.0;
    format      ascii;
    class       volVectorField;
    location    "73.8/oil";
    object      U;
}
// * * * * * * * * * * * * * * * * * * * * * * * * * * * * * * * * * * * * * //

dimensions      [0 1 -1 0 0 0 0];


internalField   nonuniform List<vector> 
27760
(
(-2.44644e-05 -2.49285e-05 -2.44644e-05)
(-4.82874e-05 -1.86991e-05 -1.76267e-05)
(-3.51189e-06 -4.84512e-06 -4.82885e-06)
(-5.71387e-06 -7.8468e-07 -8.92346e-07)
(-1.12922e-06 -2.44552e-07 -3.71478e-07)
(-3.65644e-07 -9.40869e-08 -2.33314e-07)
(3.20825e-07 -2.632e-09 -1.53112e-07)
(6.7006e-07 3.81954e-08 -1.20974e-07)
(8.65681e-07 6.22711e-08 -1.02832e-07)
(9.39806e-07 7.79914e-08 -9.0593e-08)
(9.15877e-07 8.94228e-08 -8.04412e-08)
(8.07417e-07 9.82284e-08 -7.16687e-08)
(6.28371e-07 1.04861e-07 -6.44695e-08)
(3.95188e-07 1.09389e-07 -5.92698e-08)
(1.27486e-07 1.11752e-07 -5.64824e-08)
(-1.52876e-07 1.11905e-07 -5.63318e-08)
(-4.23427e-07 1.09893e-07 -5.87737e-08)
(-6.62956e-07 1.05869e-07 -6.34701e-08)
(-8.53419e-07 1.00091e-07 -6.98118e-08)
(-9.81482e-07 9.28677e-08 -7.69695e-08)
(-1.03965e-06 8.45659e-08 -8.39621e-08)
(-1.02659e-06 7.5434e-08 -8.95059e-08)
(-9.47335e-07 6.56747e-08 -9.27398e-08)
(-8.1296e-07 5.5619e-08 -9.2587e-08)
(-6.39707e-07 4.55196e-08 -8.81401e-08)
(-4.48326e-07 3.58292e-08 -7.88181e-08)
(-2.6297e-07 2.74796e-08 -6.47204e-08)
(-1.09781e-07 2.21467e-08 -4.70963e-08)
(-1.20701e-08 2.19407e-08 -2.93277e-08)
(1.1828e-08 2.31778e-08 -1.17837e-08)
(-1.77459e-05 -4.96164e-05 -1.77458e-05)
(-5.79322e-06 -6.4587e-06 -7.94764e-06)
(-7.77507e-06 -7.83382e-06 -2.78157e-06)
(-3.41685e-06 -2.30722e-06 -8.03413e-07)
(-1.04264e-06 -1.42198e-06 -4.07354e-07)
(1.58232e-07 -7.86915e-07 -2.08569e-07)
(1.03671e-06 -4.9888e-07 -1.10565e-07)
(1.57558e-06 -3.26324e-07 -6.05042e-08)
(1.88686e-06 -2.09664e-07 -2.85001e-08)
(1.99525e-06 -1.18723e-07 -4.61214e-09)
(1.9216e-06 -4.29814e-08 1.57098e-08)
(1.68387e-06 2.04554e-08 3.31567e-08)
(1.30578e-06 7.08492e-08 4.73629e-08)
(8.1901e-07 1.0635e-07 5.75423e-08)
(2.62603e-07 1.25189e-07 6.29749e-08)
(-3.1939e-07 1.26433e-07 6.32651e-08)
(-8.81447e-07 1.10354e-07 5.84871e-08)
(-1.38056e-06 7.85394e-08 4.9221e-08)
(-1.78012e-06 3.37731e-08 3.6501e-08)
(-2.05308e-06 -2.02479e-08 2.17174e-08)
(-2.18428e-06 -7.92461e-08 6.44154e-09)
(-2.17126e-06 -1.38681e-07 -7.47026e-09)
(-2.0241e-06 -1.94086e-07 -1.8518e-08)
(-1.76498e-06 -2.40799e-07 -2.54178e-08)
(-1.42618e-06 -2.73901e-07 -2.71624e-08)
(-1.04786e-06 -2.8767e-07 -2.33869e-08)
(-6.7507e-07 -2.74946e-07 -1.47862e-08)
(-3.53231e-07 -2.2736e-07 -3.68603e-09)
(-1.2119e-07 -1.3774e-07 4.87943e-09)
(-5.70496e-09 -2.29679e-08 5.77209e-09)
(-4.90381e-06 -4.70101e-06 -4.90375e-06)
(-7.66033e-06 -8.87554e-06 -2.82667e-06)
(-3.84598e-06 -5.14772e-06 -1.23568e-06)
(-2.0195e-06 -3.11022e-06 -5.73275e-07)
(-2.97774e-07 -2.26674e-06 -2.58761e-07)
(8.46351e-07 -1.71883e-06 -1.03555e-07)
(1.71445e-06 -1.40089e-06 -2.04799e-08)
(2.29464e-06 -1.17057e-06 2.78868e-08)
(2.63214e-06 -9.8321e-07 6.22122e-08)
(2.7331e-06 -8.17242e-07 8.99762e-08)
(2.60833e-06 -6.67538e-07 1.14302e-07)
(2.27415e-06 -5.36567e-07 1.35478e-07)
(1.75834e-06 -4.2993e-07 1.52806e-07)
(1.10088e-06 -3.53811e-07 1.65226e-07)
(3.52361e-07 -3.13175e-07 1.71847e-07)
(-4.2953e-07 -3.10585e-07 1.72182e-07)
(-1.18494e-06 -3.45561e-07 1.66304e-07)
(-1.85727e-06 -4.1443e-07 1.54883e-07)
(-2.39833e-06 -5.10621e-07 1.39105e-07)
(-2.77262e-06 -6.25277e-07 1.20575e-07)
(-2.96017e-06 -7.4809e-07 1.01073e-07)
(-2.95779e-06 -8.67818e-07 8.24735e-08)
(-2.77878e-06 -9.73064e-07 6.64053e-08)
(-2.45159e-06 -1.05222e-06 5.41829e-08)
(-2.01707e-06 -1.09303e-06 4.66008e-08)
(-1.52515e-06 -1.08208e-06 4.36954e-08)
(-1.03047e-06 -1.00397e-06 4.43616e-08)
(-5.8588e-07 -8.41706e-07 4.56625e-08)
(-2.38598e-07 -5.7838e-07 4.19449e-08)
(-2.3283e-08 -2.15812e-07 2.33641e-08)
(-8.73693e-07 -6.87558e-06 -8.73618e-07)
(-1.92336e-06 -5.51051e-06 -7.7609e-07)
(-1.42708e-06 -4.80741e-06 -5.47164e-07)
(-4.7954e-07 -3.86595e-06 -2.64823e-07)
(6.58774e-07 -3.34729e-06 -9.8374e-08)
(1.60481e-06 -2.96023e-06 -1.68607e-09)
(2.38425e-06 -2.67392e-06 5.8875e-08)
(2.94019e-06 -2.41899e-06 1.00374e-07)
(3.26195e-06 -2.17551e-06 1.33673e-07)
(3.33428e-06 -1.93738e-06 1.62901e-07)
(3.15585e-06 -1.71015e-06 1.89492e-07)
(2.73889e-06 -1.50492e-06 2.13051e-07)
(2.11223e-06 -1.33479e-06 2.32465e-07)
(1.32091e-06 -1.21217e-06 2.4642e-07)
(4.23452e-07 -1.14648e-06 2.53853e-07)
(-5.12678e-07 -1.14258e-06 2.54191e-07)
(-1.41717e-06 -1.19985e-06 2.47499e-07)
(-2.22344e-06 -1.31203e-06 2.34502e-07)
(-2.87483e-06 -1.46774e-06 2.16509e-07)
(-3.32974e-06 -1.65161e-06 1.95256e-07)
(-3.56482e-06 -1.84557e-06 1.72665e-07)
(-3.57639e-06 -2.03009e-06 1.50659e-07)
(-3.37979e-06 -2.1851e-06 1.30906e-07)
(-3.00741e-06 -2.29025e-06 1.14692e-07)
(-2.50526e-06 -2.32457e-06 1.02676e-07)
(-1.92878e-06 -2.26578e-06 9.47221e-08)
(-1.33795e-06 -2.08914e-06 8.95467e-08)
(-7.90168e-07 -1.76656e-06 8.38178e-08)
(-3.41187e-07 -1.26328e-06 7.13287e-08)
(-3.77398e-08 -5.35941e-07 3.78373e-08)
(-2.74602e-07 -2.71356e-06 -2.74511e-07)
(-8.16959e-07 -4.32751e-06 -3.17598e-07)
(-2.8797e-07 -4.78656e-06 -2.01209e-07)
(4.84512e-07 -4.72476e-06 -7.41667e-08)
(1.40809e-06 -4.61728e-06 1.50162e-08)
(2.25956e-06 -4.44435e-06 7.52516e-08)
(2.98718e-06 -4.23711e-06 1.19483e-07)
(3.52054e-06 -3.98832e-06 1.55113e-07)
(3.82188e-06 -3.70651e-06 1.8729e-07)
(3.8628e-06 -3.40498e-06 2.1769e-07)
(3.63325e-06 -3.10309e-06 2.46383e-07)
(3.14211e-06 -2.82312e-06 2.72283e-07)
(2.41871e-06 -2.58758e-06 2.93816e-07)
(1.51187e-06 -2.4165e-06 3.09364e-07)
(4.86617e-07 -2.32467e-06 3.17641e-07)
(-5.81448e-07 -2.31973e-06 3.17958e-07)
(-1.6132e-06 -2.40101e-06 3.10367e-07)
(-2.53365e-06 -2.5594e-06 2.9567e-07)
(-3.2791e-06 -2.77814e-06 2.75342e-07)
(-3.80291e-06 -3.03445e-06 2.51287e-07)
(-4.07912e-06 -3.30156e-06 2.25619e-07)
(-4.10377e-06 -3.55061e-06 2.00396e-07)
(-3.89378e-06 -3.7519e-06 1.77366e-07)
(-3.48453e-06 -3.87561e-06 1.57823e-07)
(-2.92582e-06 -3.8914e-06 1.4239e-07)
(-2.27703e-06 -3.7674e-06 1.30834e-07)
(-1.60234e-06 -3.46808e-06 1.21768e-07)
(-9.63626e-07 -2.95066e-06 1.11515e-07)
(-4.25836e-07 -2.15323e-06 9.3235e-08)
(-4.88545e-08 -9.62045e-07 4.89725e-08)
(-1.00486e-07 -2.54798e-06 -1.00376e-07)
(-6.86938e-08 -4.52065e-06 -8.45411e-08)
(4.46532e-07 -5.53134e-06 -2.44733e-08)
(1.16805e-06 -5.9847e-06 3.81954e-08)
(2.00997e-06 -6.18509e-06 8.90524e-08)
(2.82221e-06 -6.19423e-06 1.29214e-07)
(3.5272e-06 -6.06887e-06 1.64093e-07)
(4.04867e-06 -5.83637e-06 1.96757e-07)
(4.33444e-06 -5.52646e-06 2.29276e-07)
(4.34745e-06 -5.16937e-06 2.61786e-07)
(4.07147e-06 -4.79801e-06 2.93383e-07)
(3.51271e-06 -4.44635e-06 3.22359e-07)
(2.701e-06 -4.14702e-06 3.46657e-07)
(1.6886e-06 -3.92819e-06 3.6427e-07)
(5.46527e-07 -3.8106e-06 3.7364e-07)
(-6.42027e-07 -3.80497e-06 3.73927e-07)
(-1.78969e-06 -3.91063e-06 3.6517e-07)
(-2.81365e-06 -4.1155e-06 3.48287e-07)
(-3.64368e-06 -4.3971e-06 3.24976e-07)
(-4.22863e-06 -4.72484e-06 2.97428e-07)
(-4.5405e-06 -5.06292e-06 2.68048e-07)
(-4.57517e-06 -5.37259e-06 2.39118e-07)
(-4.35131e-06 -5.61427e-06 2.12532e-07)
(-3.90716e-06 -5.74838e-06 1.89684e-07)
(-3.29587e-06 -5.7348e-06 1.71219e-07)
(-2.58056e-06 -5.53135e-06 1.56854e-07)
(-1.8296e-06 -5.09004e-06 1.45099e-07)
(-1.10975e-06 -4.34933e-06 1.31926e-07)
(-4.95026e-07 -3.21157e-06 1.09774e-07)
(-5.74523e-08 -1.47339e-06 5.75949e-08)
(-1.26008e-09 -2.57555e-06 -1.12931e-09)
(2.71561e-07 -5.15546e-06 3.18722e-08)
(8.64054e-07 -6.66873e-06 6.9651e-08)
(1.62367e-06 -7.53353e-06 1.05439e-07)
(2.46916e-06 -8.00327e-06 1.37833e-07)
(3.28855e-06 -8.18029e-06 1.67943e-07)
(3.99937e-06 -8.13999e-06 1.98516e-07)
(4.52432e-06 -7.93302e-06 2.30783e-07)
(4.80412e-06 -7.60605e-06 2.65231e-07)
(4.79628e-06 -7.20386e-06 3.01055e-07)
(4.4803e-06 -6.772e-06 3.36617e-07)
(3.86044e-06 -6.35585e-06 3.69634e-07)
(2.96715e-06 -5.99795e-06 3.97521e-07)
(1.85621e-06 -5.73487e-06 4.17797e-07)
(6.04517e-07 -5.5934e-06 4.28567e-07)
(-6.97201e-07 -5.58742e-06 4.28823e-07)
(-1.95347e-06 -5.71636e-06 4.18588e-07)
(-3.0737e-06 -5.96512e-06 3.98926e-07)
(-3.98139e-06 -6.30551e-06 3.71822e-07)
(-4.62123e-06 -6.69913e-06 3.39884e-07)
(-4.96339e-06 -7.10103e-06 3.05893e-07)
(-5.00416e-06 -7.46285e-06 2.72454e-07)
(-4.76428e-06 -7.7353e-06 2.41732e-07)
(-4.28498e-06 -7.8691e-06 2.15241e-07)
(-3.62304e-06 -7.8142e-06 1.93698e-07)
(-2.84539e-06 -7.5174e-06 1.76786e-07)
(-2.02475e-06 -6.91645e-06 1.62904e-07)
(-1.23288e-06 -5.92737e-06 1.47663e-07)
(-5.51985e-07 -4.40924e-06 1.22722e-07)
(-6.42908e-08 -2.05414e-06 6.4463e-08)
(3.93898e-08 -2.97938e-06 3.95422e-08)
(4.56035e-07 -6.17545e-06 8.8394e-08)
(1.12634e-06 -8.13721e-06 1.19962e-07)
(1.94362e-06 -9.34683e-06 1.45655e-07)
(2.82365e-06 -1.00546e-05 1.70288e-07)
(3.67191e-06 -1.03871e-05 1.96533e-07)
(4.40475e-06 -1.0434e-05 2.26357e-07)
(4.94424e-06 -1.02619e-05 2.60362e-07)
(5.2267e-06 -9.93067e-06 2.98228e-07)
(5.20559e-06 -9.49703e-06 3.38592e-07)
(4.85695e-06 -9.01765e-06 3.79236e-07)
(4.18333e-06 -8.54815e-06 4.17276e-07)
(3.21588e-06 -8.14058e-06 4.49566e-07)
(2.0138e-06 -7.83947e-06 4.73106e-07)
(6.59902e-07 -7.67743e-06 4.85592e-07)
(-7.47547e-07 -7.67143e-06 4.85811e-07)
(-2.105e-06 -7.821e-06 4.73777e-07)
(-3.31422e-06 -8.10817e-06 4.50743e-07)
(-4.29244e-06 -8.49922e-06 4.19067e-07)
(-4.98054e-06 -8.94829e-06 3.81834e-07)
(-5.34736e-06 -9.40188e-06 3.42294e-07)
(-5.39009e-06 -9.80243e-06 3.03501e-07)
(-5.13195e-06 -1.00915e-05 2.67957e-07)
(-4.61747e-06 -1.02105e-05 2.37338e-07)
(-3.90736e-06 -1.00998e-05 2.12455e-07)
(-3.07244e-06 -9.69444e-06 1.92955e-07)
(-2.18966e-06 -8.9163e-06 1.77138e-07)
(-1.33544e-06 -7.65578e-06 1.60234e-07)
(-5.98755e-07 -5.72259e-06 1.33145e-07)
(-6.9846e-08 -2.69203e-06 7.00508e-08)
(5.99442e-08 -3.53914e-06 6.01203e-08)
(5.59613e-07 -7.41148e-06 1.18996e-07)
(1.29436e-06 -9.82533e-06 1.49004e-07)
(2.1676e-06 -1.13626e-05 1.71037e-07)
(3.09039e-06 -1.22999e-05 1.92927e-07)
(3.97502e-06 -1.27877e-05 2.18581e-07)
(4.73697e-06 -1.29301e-05 2.49812e-07)
(5.29732e-06 -1.2807e-05 2.87012e-07)
(5.58902e-06 -1.24887e-05 3.29448e-07)
(5.56188e-06 -1.20417e-05 3.75325e-07)
(5.18882e-06 -1.15323e-05 4.21934e-07)
(4.4706e-06 -1.1025e-05 4.65811e-07)
(3.43887e-06 -1.05803e-05 5.03203e-07)
(2.156e-06 -1.02499e-05 5.30503e-07)
(7.10534e-07 -1.00718e-05 5.44939e-07)
(-7.91997e-07 -1.0066e-05 5.45123e-07)
(-2.24012e-06 -1.02321e-05 5.31068e-07)
(-3.52817e-06 -1.05494e-05 5.04185e-07)
(-4.56758e-06 -1.09792e-05 4.67257e-07)
(-5.29582e-06 -1.14686e-05 4.23967e-07)
(-5.68081e-06 -1.19564e-05 3.78135e-07)
(-5.72127e-06 -1.23769e-05 3.33296e-07)
(-5.44337e-06 -1.26635e-05 2.92299e-07)
(-4.89534e-06 -1.27491e-05 2.57071e-07)
(-4.14175e-06 -1.25647e-05 2.28521e-07)
(-3.25713e-06 -1.20336e-05 2.06296e-07)
(-2.32216e-06 -1.10606e-05 1.88556e-07)
(-1.41702e-06 -9.50771e-06 1.70177e-07)
(-6.35779e-07 -7.13012e-06 1.41414e-07)
(-7.42979e-08 -3.37638e-06 7.45378e-08)
(7.04311e-08 -4.19366e-06 7.06323e-08)
(6.19386e-07 -8.79001e-06 1.35673e-07)
(1.39995e-06 -1.16682e-05 1.65838e-07)
(2.31646e-06 -1.35315e-05 1.87037e-07)
(3.27602e-06 -1.47e-05 2.08673e-07)
(4.19337e-06 -1.53506e-05 2.35509e-07)
(4.98332e-06 -1.56026e-05 2.69431e-07)
(5.56556e-06 -1.55472e-05 3.10737e-07)
(5.87026e-06 -1.52637e-05 3.58521e-07)
(5.84386e-06 -1.48269e-05 4.10622e-07)
(5.4559e-06 -1.43099e-05 4.63859e-07)
(4.705e-06 -1.37847e-05 5.14183e-07)
(3.62283e-06 -1.33188e-05 5.5716e-07)
(2.27433e-06 -1.29703e-05 5.8855e-07)
(7.53194e-07 -1.27821e-05 6.05127e-07)
(-8.28178e-07 -1.27767e-05 6.05276e-07)
(-2.35118e-06 -1.29539e-05 5.89005e-07)
(-3.70326e-06 -1.32904e-05 5.57931e-07)
(-4.79056e-06 -1.3743e-05 5.15314e-07)
(-5.54787e-06 -1.42529e-05 4.65444e-07)
(-5.94313e-06 -1.47522e-05 4.12734e-07)
(-5.97708e-06 -1.51684e-05 3.6132e-07)
(-5.67927e-06 -1.54282e-05 3.14446e-07)
(-5.10175e-06 -1.54574e-05 2.74292e-07)
(-4.31258e-06 -1.51783e-05 2.41848e-07)
(-3.38952e-06 -1.45025e-05 2.16755e-07)
(-2.41594e-06 -1.33171e-05 1.9709e-07)
(-1.47429e-06 -1.14535e-05 1.77414e-07)
(-6.61826e-07 -8.60879e-06 1.47397e-07)
(-7.756e-08 -4.09614e-06 7.78383e-08)
(7.56654e-08 -4.89923e-06 7.58829e-08)
(6.49717e-07 -1.02513e-05 1.4417e-07)
(1.45484e-06 -1.36056e-05 1.74707e-07)
(2.39515e-06 -1.57996e-05 1.96086e-07)
(3.37613e-06 -1.7207e-05 2.18577e-07)
(4.3141e-06 -1.80332e-05 2.47424e-07)
(5.12383e-06 -1.84137e-05 2.84629e-07)
(5.72412e-06 -1.84501e-05 3.30508e-07)
(6.04293e-06 -1.82289e-05 3.83984e-07)
(6.02347e-06 -1.78305e-05 4.42633e-07)
(5.63176e-06 -1.73333e-05 5.02813e-07)
(4.86376e-06 -1.68145e-05 5.59865e-07)
(3.75025e-06 -1.63471e-05 6.0871e-07)
(2.3577e-06 -1.59943e-05 6.44403e-07)
(7.8394e-07 -1.58029e-05 6.63202e-07)
(-8.52839e-07 -1.5798e-05 6.63324e-07)
(-2.42777e-06 -1.59792e-05 6.44769e-07)
(-3.82253e-06 -1.63216e-05 6.09324e-07)
(-4.93914e-06 -1.67775e-05 5.60738e-07)
(-5.71086e-06 -1.72835e-05 5.0397e-07)
(-6.10649e-06 -1.77665e-05 4.4417e-07)
(-6.12948e-06 -1.81489e-05 3.85998e-07)
(-5.81313e-06 -1.83527e-05 3.33088e-07)
(-5.21315e-06 -1.82981e-05 2.87894e-07)
(-4.40048e-06 -1.79002e-05 2.51519e-07)
(-3.45486e-06 -1.70598e-05 2.23588e-07)
(-2.46084e-06 -1.56457e-05 2.02046e-07)
(-1.50144e-06 -1.34576e-05 1.81271e-07)
(-6.74452e-07 -1.01312e-05 1.50561e-07)
(-7.93457e-08 -4.83833e-06 7.96669e-08)
(7.72252e-08 -5.6259e-06 7.74728e-08)
(6.55083e-07 -1.17446e-05 1.46456e-07)
(1.46051e-06 -1.55788e-05 1.76957e-07)
(2.39954e-06 -1.81072e-05 1.98711e-07)
(3.37907e-06 -1.97624e-05 2.22349e-07)
(4.31805e-06 -2.078e-05 2.53448e-07)
(5.1328e-06 -2.13116e-05 2.94065e-07)
(5.74261e-06 -2.14684e-05 3.44553e-07)
(6.07397e-06 -2.1342e-05 4.0374e-07)
(6.06745e-06 -2.10159e-05 4.68985e-07)
(5.68543e-06 -2.05713e-05 5.36233e-07)
(4.92042e-06 -2.00882e-05 6.00223e-07)
(3.80095e-06 -1.96429e-05 6.55157e-07)
(2.39351e-06 -1.93021e-05 6.95389e-07)
(7.98372e-07 -1.9116e-05 7.16552e-07)
(-8.61907e-07 -1.91116e-05 7.16643e-07)
(-2.45765e-06 -1.92888e-05 6.95645e-07)
(-3.86627e-06 -1.96204e-05 6.55582e-07)
(-4.98723e-06 -2.00559e-05 6.00845e-07)
(-5.75382e-06 -2.05283e-05 5.37057e-07)
(-6.13725e-06 -2.09614e-05 4.70084e-07)
(-6.14457e-06 -2.12753e-05 4.05158e-07)
(-5.81295e-06 -2.13892e-05 3.46335e-07)
(-5.20101e-06 -2.12201e-05 2.96273e-07)
(-4.38163e-06 -2.06774e-05 2.56131e-07)
(-3.4348e-06 -1.96521e-05 2.25529e-07)
(-2.44408e-06 -1.79954e-05 2.02337e-07)
(-1.4907e-06 -1.54747e-05 1.80821e-07)
(-6.70137e-07 -1.1663e-05 1.50105e-07)
(-7.92152e-08 -5.58637e-06 7.95796e-08)
(7.5564e-08 -6.34587e-06 7.58184e-08)
(6.35269e-07 -1.32175e-05 1.42837e-07)
(1.41285e-06 -1.75228e-05 1.72469e-07)
(2.3198e-06 -2.0384e-05 1.94343e-07)
(3.26806e-06 -2.2294e-05 2.18998e-07)
(4.18147e-06 -2.3519e-05 2.52061e-07)
(4.98019e-06 -2.42264e-05 2.95688e-07)
(5.58597e-06 -2.45352e-05 3.50285e-07)
(5.92551e-06 -2.45402e-05 4.14658e-07)
(5.93761e-06 -2.43256e-05 4.86023e-07)
(5.58109e-06 -2.39723e-05 5.60024e-07)
(4.84408e-06 -2.35598e-05 6.30896e-07)
(3.75128e-06 -2.31651e-05 6.91998e-07)
(2.36693e-06 -2.28562e-05 7.36923e-07)
(7.91373e-07 -2.26856e-05 7.60593e-07)
(-8.50602e-07 -2.26817e-05 7.60642e-07)
(-2.4263e-06 -2.28445e-05 7.3708e-07)
(-3.8109e-06 -2.31454e-05 6.92262e-07)
(-4.90388e-06 -2.35318e-05 6.31279e-07)
(-5.64084e-06 -2.39355e-05 5.60565e-07)
(-5.99699e-06 -2.42798e-05 4.86747e-07)
(-5.9839e-06 -2.44851e-05 4.15576e-07)
(-5.64237e-06 -2.44711e-05 3.51473e-07)
(-5.03314e-06 -2.41539e-05 2.97156e-07)
(-4.22915e-06 -2.34397e-05 2.53835e-07)
(-3.30836e-06 -2.22108e-05 2.21047e-07)
(-2.35079e-06 -2.03018e-05 1.96617e-07)
(-1.433e-06 -1.74485e-05 1.74835e-07)
(-6.44756e-07 -1.31608e-05 1.45018e-07)
(-7.6664e-08 -6.31946e-06 7.7079e-08)
(7.04903e-08 -7.0301e-06 7.0775e-08)
(5.87849e-07 -1.46124e-05 1.32946e-07)
(1.30529e-06 -1.9364e-05 1.60634e-07)
(2.14382e-06 -2.25468e-05 1.81985e-07)
(3.02437e-06 -2.47133e-05 2.07081e-07)
(3.87879e-06 -2.61593e-05 2.41381e-07)
(4.63409e-06 -2.70664e-05 2.87025e-07)
(5.21708e-06 -2.75605e-05 3.44605e-07)
(5.55716e-06 -2.77372e-05 4.13076e-07)
(5.59268e-06 -2.76782e-05 4.89675e-07)
(5.27969e-06 -2.74606e-05 5.69838e-07)
(4.60103e-06 -2.71601e-05 6.47345e-07)
(3.57541e-06 -2.68505e-05 7.14773e-07)
(2.26181e-06 -2.65984e-05 7.6483e-07)
(7.57467e-07 -2.64561e-05 7.91395e-07)
(-8.1341e-07 -2.64528e-05 7.91412e-07)
(-2.31749e-06 -2.65882e-05 7.64892e-07)
(-3.63057e-06 -2.68335e-05 7.14884e-07)
(-4.65536e-06 -2.7136e-05 6.47511e-07)
(-5.33287e-06 -2.74293e-05 5.70109e-07)
(-5.6442e-06 -2.76398e-05 4.90129e-07)
(-5.60631e-06 -2.76918e-05 4.13685e-07)
(-5.26315e-06 -2.75087e-05 3.45393e-07)
(-4.676e-06 -2.7009e-05 2.87983e-07)
(-3.91532e-06 -2.60976e-05 2.42511e-07)
(-3.05427e-06 -2.46502e-05 2.08386e-07)
(-2.166e-06 -2.2486e-05 1.83438e-07)
(-1.31916e-06 -1.93102e-05 1.62141e-07)
(-5.94041e-07 -1.45723e-05 1.34309e-07)
(-7.11183e-08 -7.01199e-06 7.15775e-08)
(6.16937e-08 -7.64615e-06 6.19849e-08)
(5.0999e-07 -1.58644e-05 1.16061e-07)
(1.13107e-06 -2.10181e-05 1.40441e-07)
(1.8597e-06 -2.44992e-05 1.60331e-07)
(2.6302e-06 -2.69153e-05 1.84814e-07)
(3.38566e-06 -2.85895e-05 2.18934e-07)
(4.06359e-06 -2.97168e-05 2.64902e-07)
(4.59924e-06 -3.0427e-05 3.23453e-07)
(4.92775e-06 -3.0815e-05 3.93746e-07)
(4.9895e-06 -3.09574e-05 4.73292e-07)
(4.73872e-06 -3.0924e-05 5.57573e-07)
(4.15273e-06 -3.07823e-05 6.40201e-07)
(3.24245e-06 -3.05985e-05 7.13108e-07)
(2.05828e-06 -3.04334e-05 7.68008e-07)
(6.8979e-07 -3.03354e-05 7.97473e-07)
(-7.43486e-07 -3.03325e-05 7.9745e-07)
(-2.11138e-06 -3.04245e-05 7.67966e-07)
(-3.29445e-06 -3.05837e-05 7.13069e-07)
(-4.20303e-06 -3.07616e-05 6.40211e-07)
(-4.78683e-06 -3.08974e-05 5.57646e-07)
(-5.03499e-06 -3.09252e-05 4.73455e-07)
(-4.9701e-06 -3.07776e-05 3.94026e-07)
(-4.63782e-06 -3.03851e-05 3.23878e-07)
(-4.09765e-06 -2.96712e-05 2.65474e-07)
(-3.41443e-06 -2.85416e-05 2.19646e-07)
(-2.65295e-06 -2.68673e-05 1.85639e-07)
(-1.87595e-06 -2.44536e-05 1.61236e-07)
(-1.14084e-06 -2.09787e-05 1.41398e-07)
(-5.14113e-07 -1.58356e-05 1.16953e-07)
(-6.20368e-08 -7.63348e-06 6.25412e-08)
(4.88828e-08 -8.15874e-06 4.91793e-08)
(3.99503e-07 -1.69022e-05 9.1657e-08)
(8.85298e-07 -2.23922e-05 1.1119e-07)
(1.45908e-06 -2.61327e-05 1.28345e-07)
(2.07282e-06 -2.87794e-05 1.50723e-07)
(2.68427e-06 -3.06789e-05 1.82666e-07)
(3.24521e-06 -3.20369e-05 2.26258e-07)
(3.70313e-06 -3.29863e-05 2.82437e-07)
(4.00244e-06 -3.36188e-05 3.50796e-07)
(4.08909e-06 -3.40041e-05 4.29366e-07)
(3.91785e-06 -3.42012e-05 5.14019e-07)
(3.46142e-06 -3.42654e-05 5.9846e-07)
(2.72128e-06 -3.425e-05 6.7425e-07)
(1.73557e-06 -3.42047e-05 7.32354e-07)
(5.81118e-07 -3.4169e-05 7.64036e-07)
(-6.33317e-07 -3.41664e-05 7.64001e-07)
(-1.78689e-06 -3.41968e-05 7.32283e-07)
(-2.77098e-06 -3.42372e-05 6.74127e-07)
(-3.50883e-06 -3.42475e-05 5.98328e-07)
(-3.96247e-06 -3.41786e-05 5.13929e-07)
(-4.13034e-06 -3.39772e-05 4.29371e-07)
(-4.03987e-06 -3.35881e-05 3.50891e-07)
(-3.73627e-06 -3.29523e-05 2.82618e-07)
(-3.27365e-06 -3.20005e-05 2.26546e-07)
(-2.70757e-06 -3.06413e-05 1.83061e-07)
(-2.09068e-06 -2.87424e-05 1.5122e-07)
(-1.47139e-06 -2.60983e-05 1.28925e-07)
(-8.92399e-07 -2.2363e-05 1.11807e-07)
(-4.02313e-07 -1.68813e-05 9.22677e-08)
(-4.90471e-08 -8.14974e-06 4.95927e-08)
(3.19359e-08 -8.53079e-06 3.22274e-08)
(2.56076e-07 -1.76518e-05 5.95108e-08)
(5.67423e-07 -2.33887e-05 7.24921e-08)
(9.4069e-07 -2.7332e-05 8.5409e-08)
(1.34933e-06 -3.01743e-05 1.03693e-07)
(1.769e-06 -3.22805e-05 1.30632e-07)
(2.16924e-06 -3.3864e-05 1.68091e-07)
(2.51377e-06 -3.50591e-05 2.17124e-07)
(2.76075e-06 -3.59531e-05 2.77743e-07)
(2.86569e-06 -3.66068e-05 3.48564e-07)
(2.78739e-06 -3.70668e-05 4.26258e-07)
(2.49605e-06 -3.73723e-05 5.05315e-07)
(1.98397e-06 -3.75597e-05 5.77626e-07)
(1.27405e-06 -3.76613e-05 6.34049e-07)
(4.24368e-07 -3.77032e-05 6.65294e-07)
(-4.75711e-07 -3.7701e-05 6.6522e-07)
(-1.32436e-06 -3.76546e-05 6.33908e-07)
(-2.03226e-06 -3.75485e-05 5.77407e-07)
(-2.54152e-06 -3.73569e-05 5.05092e-07)
(-2.82946e-06 -3.70476e-05 4.26036e-07)
(-2.90383e-06 -3.65843e-05 3.48398e-07)
(-2.79465e-06 -3.59277e-05 2.77622e-07)
(-2.54308e-06 -3.50314e-05 2.17096e-07)
(-2.19372e-06 -3.38348e-05 1.68164e-07)
(-1.78849e-06 -3.22509e-05 1.30788e-07)
(-1.3638e-06 -3.01457e-05 1.03938e-07)
(-9.50287e-07 -2.73058e-05 8.57358e-08)
(-5.72679e-07 -2.33668e-05 7.28709e-08)
(-2.57988e-07 -1.76363e-05 5.99351e-08)
(-3.19816e-08 -8.52435e-06 3.25636e-08)
(1.11009e-08 -8.72613e-06 1.141e-08)
(8.22342e-08 -1.80408e-05 2.01326e-08)
(1.83181e-07 -2.39123e-05 2.49194e-08)
(3.13802e-07 -2.79831e-05 3.19851e-08)
(4.71982e-07 -3.09679e-05 4.39651e-08)
(6.53995e-07 -3.32425e-05 6.27316e-08)
(8.50206e-07 -3.50243e-05 8.95828e-08)
(1.04414e-06 -3.64465e-05 1.25596e-07)
(1.212e-06 -3.75914e-05 1.71165e-07)
(1.32351e-06 -3.85104e-05 2.25675e-07)
(1.34622e-06 -3.92364e-05 2.86872e-07)
(1.2514e-06 -3.97913e-05 3.50544e-07)
(1.02324e-06 -4.01919e-05 4.09948e-07)
(6.67584e-07 -4.04505e-05 4.57169e-07)
(2.17228e-07 -4.05762e-05 4.83696e-07)
(-2.68063e-07 -4.05745e-05 4.83617e-07)
(-7.17186e-07 -4.04449e-05 4.57e-07)
(-1.07055e-06 -4.01823e-05 4.09664e-07)
(-1.29552e-06 -3.97782e-05 3.50205e-07)
(-1.38658e-06 -3.92201e-05 2.86497e-07)
(-1.35956e-06 -3.84913e-05 2.25374e-07)
(-1.24344e-06 -3.75701e-05 1.70903e-07)
(-1.07077e-06 -3.64237e-05 1.25427e-07)
(-8.7191e-07 -3.50007e-05 8.94963e-08)
(-6.70809e-07 -3.32189e-05 6.2707e-08)
(-4.84079e-07 -3.09455e-05 4.40335e-08)
(-3.21547e-07 -2.79629e-05 3.21366e-08)
(-1.87216e-07 -2.38957e-05 2.51765e-08)
(-8.35675e-08 -1.80293e-05 2.0444e-08)
(-1.10828e-08 -8.72146e-06 1.16942e-08)
(-1.28831e-08 -8.71344e-06 -1.26013e-08)
(-1.1581e-07 -1.80073e-05 -2.51964e-08)
(-2.53678e-07 -2.38808e-05 -3.00196e-08)
(-3.99397e-07 -2.7986e-05 -3.03251e-08)
(-5.28411e-07 -3.10414e-05 -2.67909e-08)
(-6.22362e-07 -3.34244e-05 -1.94013e-08)
(-6.67557e-07 -3.53519e-05 -7.51171e-09)
(-6.57636e-07 -3.69537e-05 9.6153e-09)
(-5.94754e-07 -3.83055e-05 3.25828e-08)
(-4.90344e-07 -3.94495e-05 6.15995e-08)
(-3.63689e-07 -4.04054e-05 9.56391e-08)
(-2.38458e-07 -4.11795e-05 1.32617e-07)
(-1.36224e-07 -4.17693e-05 1.68281e-07)
(-6.93874e-08 -4.21683e-05 1.97484e-07)
(-3.55754e-08 -4.23694e-05 2.14259e-07)
(-1.48749e-08 -4.23677e-05 2.1417e-07)
(2.03182e-08 -4.21631e-05 1.97259e-07)
(8.95979e-08 -4.17607e-05 1.67917e-07)
(1.95243e-07 -4.1168e-05 1.32193e-07)
(3.24623e-07 -4.03913e-05 9.51881e-08)
(4.55849e-07 -3.94332e-05 6.11585e-08)
(5.65072e-07 -3.82875e-05 3.21978e-08)
(6.32909e-07 -3.69347e-05 9.27713e-09)
(6.47777e-07 -3.53326e-05 -7.75021e-09)
(6.07387e-07 -3.34054e-05 -1.95542e-08)
(5.17932e-07 -3.10237e-05 -2.68837e-08)
(3.92901e-07 -2.79702e-05 -3.03066e-08)
(2.5048e-07 -2.38681e-05 -2.98899e-08)
(1.14905e-07 -1.79987e-05 -2.49701e-08)
(1.29714e-08 -8.70998e-06 -1.23397e-08)
(-3.89181e-08 -8.46998e-06 -3.86328e-08)
(-3.28298e-07 -1.75071e-05 -7.42222e-08)
(-7.21256e-07 -2.32355e-05 -8.95548e-08)
(-1.16299e-06 -2.72686e-05 -9.83595e-08)
(-1.60153e-06 -3.03077e-05 -1.04903e-07)
(-1.99564e-06 -3.27208e-05 -1.11209e-07)
(-2.30705e-06 -3.47187e-05 -1.17578e-07)
(-2.50448e-06 -3.64249e-05 -1.23728e-07)
(-2.56568e-06 -3.79081e-05 -1.28929e-07)
(-2.4802e-06 -3.92021e-05 -1.32228e-07)
(-2.25037e-06 -4.03158e-05 -1.32986e-07)
(-1.89147e-06 -4.1242e-05 -1.30816e-07)
(-1.42891e-06 -4.19641e-05 -1.26603e-07)
(-8.94074e-07 -4.24617e-05 -1.21671e-07)
(-3.18931e-07 -4.27157e-05 -1.18253e-07)
(2.69125e-07 -4.27141e-05 -1.18362e-07)
(8.45637e-07 -4.24569e-05 -1.21936e-07)
(1.38305e-06 -4.19563e-05 -1.26994e-07)
(1.84913e-06 -4.12316e-05 -1.31299e-07)
(2.21226e-06 -4.03031e-05 -1.33487e-07)
(2.4468e-06 -3.91879e-05 -1.32736e-07)
(2.53724e-06 -3.78927e-05 -1.29391e-07)
(2.48108e-06 -3.64088e-05 -1.24143e-07)
(2.28858e-06 -3.47027e-05 -1.17909e-07)
(1.98189e-06 -3.27053e-05 -1.11449e-07)
(1.59214e-06 -3.02934e-05 -1.05058e-07)
(1.15738e-06 -2.72562e-05 -9.84108e-08)
(7.18648e-07 -2.32257e-05 -8.94984e-08)
(3.27656e-07 -1.75005e-05 -7.40426e-08)
(3.90358e-08 -8.46743e-06 -3.83937e-08)
(-6.5317e-08 -7.98613e-06 -6.50625e-08)
(-5.42034e-07 -1.65222e-05 -1.23978e-07)
(-1.19082e-06 -2.19528e-05 -1.50072e-07)
(-1.93023e-06 -2.58002e-05 -1.67781e-07)
(-2.68157e-06 -2.87269e-05 -1.85115e-07)
(-3.38108e-06 -3.10803e-05 -2.06251e-07)
(-3.96592e-06 -3.30585e-05 -2.32543e-07)
(-4.37933e-06 -3.47765e-05 -2.6413e-07)
(-4.57353e-06 -3.6296e-05 -3.00131e-07)
(-4.51433e-06 -3.76429e-05 -3.38866e-07)
(-4.18534e-06 -3.88186e-05 -3.77946e-07)
(-3.59191e-06 -3.98081e-05 -4.14348e-07)
(-2.76215e-06 -4.05865e-05 -4.45051e-07)
(-1.74624e-06 -4.11264e-05 -4.67127e-07)
(-6.11967e-07 -4.14032e-05 -4.7858e-07)
(5.63179e-07 -4.14017e-05 -4.78673e-07)
(1.69878e-06 -4.11222e-05 -4.6739e-07)
(2.71719e-06 -4.05796e-05 -4.45463e-07)
(3.55044e-06 -3.97987e-05 -4.14826e-07)
(4.14817e-06 -3.88074e-05 -3.78455e-07)
(4.4819e-06 -3.76305e-05 -3.39411e-07)
(4.54606e-06 -3.62827e-05 -3.00645e-07)
(4.3569e-06 -3.47628e-05 -2.6457e-07)
(3.94841e-06 -3.30451e-05 -2.32944e-07)
(3.3682e-06 -3.10675e-05 -2.0656e-07)
(2.67291e-06 -2.87154e-05 -1.85313e-07)
(1.92521e-06 -2.57903e-05 -1.67888e-07)
(1.18858e-06 -2.19451e-05 -1.50062e-07)
(5.41577e-07 -1.65172e-05 -1.23819e-07)
(6.54674e-08 -7.98424e-06 -6.48239e-08)
(-9.02031e-08 -7.26846e-06 -8.99609e-08)
(-7.41706e-07 -1.50673e-05 -1.70832e-07)
(-1.62888e-06 -2.00518e-05 -2.07078e-07)
(-2.64672e-06 -2.36015e-05 -2.3336e-07)
(-3.69252e-06 -2.63185e-05 -2.6121e-07)
(-4.68163e-06 -2.85193e-05 -2.96817e-07)
(-5.52759e-06 -3.03845e-05 -3.42454e-07)
(-6.14896e-06 -3.20178e-05 -3.98714e-07)
(-6.47299e-06 -3.34734e-05 -4.64527e-07)
(-6.44213e-06 -3.47713e-05 -5.37398e-07)
(-6.02188e-06 -3.59091e-05 -6.13262e-07)
(-5.20749e-06 -3.68691e-05 -6.86409e-07)
(-4.02957e-06 -3.76249e-05 -7.50235e-07)
(-2.55647e-06 -3.81493e-05 -7.97805e-07)
(-8.90414e-07 -3.8418e-05 -8.23261e-07)
(8.43066e-07 -3.84166e-05 -8.23329e-07)
(2.51039e-06 -3.81455e-05 -7.98001e-07)
(3.98597e-06 -3.76188e-05 -7.50556e-07)
(5.16724e-06 -3.68607e-05 -6.86831e-07)
(5.98578e-06 -3.58992e-05 -6.1373e-07)
(6.41063e-06 -3.47603e-05 -5.37885e-07)
(6.44637e-06 -3.34618e-05 -4.65021e-07)
(6.12735e-06 -3.20063e-05 -3.99156e-07)
(5.51081e-06 -3.03732e-05 -3.42861e-07)
(4.66939e-06 -2.85088e-05 -2.97157e-07)
(3.6844e-06 -2.63092e-05 -2.61471e-07)
(2.64208e-06 -2.35938e-05 -2.33516e-07)
(1.62686e-06 -2.00459e-05 -2.07105e-07)
(7.41337e-07 -1.50636e-05 -1.70695e-07)
(9.03586e-08 -7.26709e-06 -8.97315e-08)
(-1.11427e-07 -6.34139e-06 -1.11209e-07)
(-9.10513e-07 -1.31929e-05 -2.10778e-07)
(-1.99967e-06 -1.75985e-05 -2.55718e-07)
(-3.25575e-06 -2.07489e-05 -2.89384e-07)
(-4.55623e-06 -2.3167e-05 -3.26374e-07)
(-5.79829e-06 -2.51297e-05 -3.74645e-07)
(-6.87429e-06 -2.67957e-05 -4.37187e-07)
(-7.68011e-06 -2.8256e-05 -5.14864e-07)
(-8.12018e-06 -2.95575e-05 -6.06457e-07)
(-8.11636e-06 -3.07167e-05 -7.08588e-07)
(-7.61774e-06 -3.17302e-05 -8.15597e-07)
(-6.61116e-06 -3.25819e-05 -9.19545e-07)
(-5.13022e-06 -3.32495e-05 -1.01087e-06)
(-3.25965e-06 -3.37104e-05 -1.07935e-06)
(-1.13175e-06 -3.39456e-05 -1.11615e-06)
(1.0865e-06 -3.39444e-05 -1.11621e-06)
(3.21551e-06 -3.37068e-05 -1.07954e-06)
(5.08832e-06 -3.32439e-05 -1.01115e-06)
(6.57241e-06 -3.25745e-05 -9.19911e-07)
(7.58293e-06 -3.17216e-05 -8.16035e-07)
(8.08597e-06 -3.07073e-05 -7.09047e-07)
(8.09456e-06 -2.95477e-05 -6.06921e-07)
(7.6593e-06 -2.82463e-05 -5.15321e-07)
(6.85814e-06 -2.67863e-05 -4.37601e-07)
(5.78658e-06 -2.51211e-05 -3.75e-07)
(4.54848e-06 -2.31596e-05 -3.26657e-07)
(3.25135e-06 -2.07429e-05 -2.89534e-07)
(1.99786e-06 -1.75941e-05 -2.55754e-07)
(9.10236e-07 -1.31902e-05 -2.10664e-07)
(1.11592e-07 -6.34044e-06 -1.10988e-07)
(-1.26719e-07 -5.24854e-06 -1.26527e-07)
(-1.0315e-06 -1.0987e-05 -2.39511e-07)
(-2.26784e-06 -1.47077e-05 -2.90582e-07)
(-3.7021e-06 -1.73755e-05 -3.295e-07)
(-5.19813e-06 -1.94207e-05 -3.73223e-07)
(-6.63843e-06 -2.10744e-05 -4.30999e-07)
(-7.89753e-06 -2.24715e-05 -5.06428e-07)
(-8.85203e-06 -2.36895e-05 -6.00511e-07)
(-9.38725e-06 -2.47682e-05 -7.11667e-07)
(-9.40786e-06 -2.57222e-05 -8.35709e-07)
(-8.85025e-06 -2.65494e-05 -9.65728e-07)
(-7.6953e-06 -2.72381e-05 -1.09203e-06)
(-5.9797e-06 -2.77729e-05 -1.2029e-06)
(-3.80163e-06 -2.81391e-05 -1.28601e-06)
(-1.31727e-06 -2.83248e-05 -1.33071e-06)
(1.2746e-06 -2.83238e-05 -1.33075e-06)
(3.75995e-06 -2.81361e-05 -1.28616e-06)
(5.94007e-06 -2.77683e-05 -1.20313e-06)
(7.65857e-06 -2.72319e-05 -1.09234e-06)
(8.81713e-06 -2.65421e-05 -9.66093e-07)
(9.37888e-06 -2.57143e-05 -8.3611e-07)
(9.36274e-06 -2.47601e-05 -7.12095e-07)
(8.8321e-06 -2.36814e-05 -6.00932e-07)
(7.8821e-06 -2.2464e-05 -5.06814e-07)
(6.62727e-06 -2.10676e-05 -4.31335e-07)
(5.19078e-06 -1.94149e-05 -3.73518e-07)
(3.69795e-06 -1.73709e-05 -3.29679e-07)
(2.26612e-06 -1.47043e-05 -2.90636e-07)
(1.03125e-06 -1.09851e-05 -2.39412e-07)
(1.26878e-07 -5.24797e-06 -1.2632e-07)
(-1.33629e-07 -4.0531e-06 -1.33459e-07)
(-1.08756e-06 -8.57429e-06 -2.52296e-07)
(-2.39959e-06 -1.154e-05 -3.05675e-07)
(-3.93517e-06 -1.36675e-05 -3.46549e-07)
(-5.55186e-06 -1.52875e-05 -3.93397e-07)
(-7.12145e-06 -1.65831e-05 -4.56309e-07)
(-8.50474e-06 -1.76644e-05 -5.39314e-07)
(-9.56333e-06 -1.85951e-05 -6.43371e-07)
(-1.01684e-05 -1.94094e-05 -7.66552e-07)
(-1.02121e-05 -2.01201e-05 -9.03999e-07)
(-9.62228e-06 -2.07277e-05 -1.04786e-06)
(-8.37627e-06 -2.12263e-05 -1.1873e-06)
(-6.51364e-06 -2.1608e-05 -1.30941e-06)
(-4.14203e-06 -2.1866e-05 -1.40071e-06)
(-1.43329e-06 -2.19957e-05 -1.44973e-06)
(1.39381e-06 -2.19949e-05 -1.44975e-06)
(4.10344e-06 -2.18636e-05 -1.40081e-06)