/*--------------------------------*- C++ -*----------------------------------*\
| =========                 |                                                 |
| \\      /  F ield         | OpenFOAM: The Open Source CFD Toolbox           |
|  \\    /   O peration     | Version:  v1906                                 |
|   \\  /    A nd           | Web:      www.OpenFOAM.com                      |
|    \\/     M anipulation  |                                                 |
\*---------------------------------------------------------------------------*/
FoamFile
{
    version     2.0;
    format      ascii;
    class       volVectorField;
    location    "96/oil";
    object      U;
}
// * * * * * * * * * * * * * * * * * * * * * * * * * * * * * * * * * * * * * //

dimensions      [0 1 -1 0 0 0 0];


internalField   nonuniform List<vector> 
27760
(
(-2.48824e-05 -2.52254e-05 -2.48824e-05)
(-4.47088e-05 -1.61055e-05 -1.52963e-05)
(-4.65974e-06 -4.28358e-06 -4.30283e-06)
(-5.4225e-06 -8.19214e-07 -9.42899e-07)
(-1.20235e-06 -2.63062e-07 -4.09176e-07)
(-3.26488e-07 -9.05404e-08 -2.52397e-07)
(3.73649e-07 5.10423e-09 -1.69993e-07)
(7.39451e-07 4.83441e-08 -1.36135e-07)
(9.44108e-07 7.33938e-08 -1.16838e-07)
(1.02142e-06 8.9474e-08 -1.03374e-07)
(9.93937e-07 1.00926e-07 -9.22142e-08)
(8.75524e-07 1.09769e-07 -8.21462e-08)
(6.81139e-07 1.16338e-07 -7.38734e-08)
(4.28312e-07 1.20762e-07 -6.78985e-08)
(1.38297e-07 1.23086e-07 -6.47204e-08)
(-1.65237e-07 1.23231e-07 -6.45785e-08)
(-4.57911e-07 1.2125e-07 -6.74302e-08)
(-7.16693e-07 1.17303e-07 -7.29101e-08)
(-9.21886e-07 1.1158e-07 -8.03281e-08)
(-1.05899e-06 1.0433e-07 -8.87754e-08)
(-1.11967e-06 9.59971e-08 -9.6816e-08)
(-1.10214e-06 8.6866e-08 -1.03251e-07)
(-1.01224e-06 7.67182e-08 -1.07157e-07)
(-8.62646e-07 6.61374e-08 -1.07097e-07)
(-6.71637e-07 5.54076e-08 -1.02044e-07)
(-4.62749e-07 4.5041e-08 -9.13937e-08)
(-2.63137e-07 3.60799e-08 -7.53599e-08)
(-1.01734e-07 3.03303e-08 -5.54439e-08)
(-3.24363e-09 2.97595e-08 -3.53917e-08)
(1.50377e-08 2.94419e-08 -1.50156e-08)
(-1.53782e-05 -4.57244e-05 -1.53782e-05)
(-6.94996e-06 -7.50126e-06 -7.00087e-06)
(-7.06076e-06 -7.42315e-06 -2.57838e-06)
(-3.21039e-06 -2.39909e-06 -8.41496e-07)
(-9.12495e-07 -1.41897e-06 -4.26488e-07)
(3.06685e-07 -7.81328e-07 -2.24291e-07)
(1.19807e-06 -4.8358e-07 -1.25695e-07)
(1.75661e-06 -3.02152e-07 -7.53674e-08)
(2.08054e-06 -1.75253e-07 -4.34728e-08)
(2.19073e-06 -7.34737e-08 -1.95643e-08)
(2.10564e-06 1.27951e-08 7.6264e-10)
(1.84308e-06 8.58905e-08 1.83579e-08)
(1.42833e-06 1.44127e-07 3.27381e-08)
(8.95777e-07 1.85156e-07 4.30787e-08)
(2.87856e-07 2.06757e-07 4.85405e-08)
(-3.47547e-07 2.07915e-07 4.88069e-08)
(-9.60726e-07 1.88885e-07 4.39437e-08)
(-1.50479e-06 1.51371e-07 3.44947e-08)
(-1.93965e-06 9.85412e-08 2.15652e-08)
(-2.23545e-06 3.45866e-08 6.60166e-09)
(-2.37518e-06 -3.53677e-08 -8.67838e-09)
(-2.35611e-06 -1.05974e-07 -2.25317e-08)
(-2.18957e-06 -1.72022e-07 -3.31066e-08)
(-1.90037e-06 -2.27648e-07 -3.91007e-08)
(-1.52518e-06 -2.66942e-07 -3.94716e-08)
(-1.10953e-06 -2.83323e-07 -3.38839e-08)
(-7.04122e-07 -2.69087e-07 -2.32076e-08)
(-3.5949e-07 -2.16101e-07 -1.00334e-08)
(-1.17027e-07 -1.19532e-07 2.45908e-10)
(-3.31518e-09 -4.7502e-09 3.34828e-09)
(-4.33837e-06 -5.63036e-06 -4.33837e-06)
(-7.18836e-06 -8.12509e-06 -2.59835e-06)
(-3.57291e-06 -4.9556e-06 -1.19803e-06)
(-1.82478e-06 -3.07847e-06 -5.73854e-07)
(-1.06273e-07 -2.2664e-06 -2.63107e-07)
(1.06773e-06 -1.73632e-06 -1.10205e-07)
(1.96846e-06 -1.41118e-06 -2.87066e-08)
(2.5785e-06 -1.16116e-06 1.81608e-08)
(2.93296e-06 -9.45961e-07 5.09521e-08)
(3.03351e-06 -7.48164e-07 7.73133e-08)
(2.88874e-06 -5.66297e-07 1.00361e-07)
(2.51527e-06 -4.05776e-07 1.20456e-07)
(1.94326e-06 -2.74762e-07 1.36908e-07)
(1.21647e-06 -1.8134e-07 1.48679e-07)
(3.90494e-07 -1.31862e-07 1.55001e-07)
(-4.714e-07 -1.2945e-07 1.55314e-07)
(-1.30373e-06 -1.73649e-07 1.497e-07)
(-2.04429e-06 -2.60208e-07 1.38855e-07)
(-2.63989e-06 -3.81272e-07 1.23892e-07)
(-3.05108e-06 -5.26153e-07 1.0638e-07)
(-3.25529e-06 -6.8213e-07 8.80938e-08)
(-3.24865e-06 -8.35325e-07 7.08478e-08)
(-3.04587e-06 -9.71145e-07 5.63202e-08)
(-2.67897e-06 -1.07501e-06 4.58011e-08)
(-2.1943e-06 -1.13189e-06 4.00406e-08)
(-1.64868e-06 -1.12616e-06 3.89735e-08)
(-1.10401e-06 -1.04132e-06 4.12915e-08)
(-6.19712e-07 -8.61239e-07 4.38237e-08)
(-2.46955e-07 -5.73939e-07 4.05994e-08)
(-2.24482e-08 -1.96519e-07 2.24858e-08)
(-8.93984e-07 -6.49964e-06 -8.93992e-07)
(-1.94503e-06 -5.34084e-06 -7.90093e-07)
(-1.26409e-06 -4.78233e-06 -5.38511e-07)
(-2.77719e-07 -3.9346e-06 -2.62991e-07)
(9.12343e-07 -3.45474e-06 -9.67163e-08)
(1.91495e-06 -3.07606e-06 -1.63107e-09)
(2.74668e-06 -2.76868e-06 5.69647e-08)
(3.34309e-06 -2.4722e-06 9.62e-08)
(3.68544e-06 -2.17314e-06 1.27108e-07)
(3.7538e-06 -1.87216e-06 1.53962e-07)
(3.54485e-06 -1.5813e-06 1.78294e-07)
(3.07176e-06 -1.31751e-06 1.9983e-07)
(2.36667e-06 -1.09892e-06 2.17567e-07)
(1.47979e-06 -9.41886e-07 2.30304e-07)
(4.76117e-07 -8.58402e-07 2.37099e-07)
(-5.69652e-07 -8.54768e-07 2.37408e-07)
(-1.57977e-06 -9.30364e-07 2.31298e-07)
(-2.48042e-06 -1.07757e-06 2.19452e-07)
(-3.20843e-06 -1.28245e-06 2.0307e-07)
(-3.71695e-06 -1.52579e-06 1.8377e-07)
(-3.97913e-06 -1.78468e-06 1.63358e-07)
(-3.99011e-06 -2.03403e-06 1.43642e-07)
(-3.76666e-06 -2.24776e-06 1.26207e-07)
(-3.3453e-06 -2.39966e-06 1.12255e-07)
(-2.77855e-06 -2.46348e-06 1.02342e-07)
(-2.13005e-06 -2.41297e-06 9.61827e-08)
(-1.46862e-06 -2.22139e-06 9.22745e-08)
(-8.59983e-07 -1.86197e-06 8.70384e-08)
(-3.66082e-07 -1.30682e-06 7.38833e-08)
(-3.88371e-08 -5.32055e-07 3.888e-08)
(-2.89721e-07 -2.79346e-06 -2.89734e-07)
(-7.49746e-07 -4.37247e-06 -3.13451e-07)
(-1.15335e-07 -4.94031e-06 -1.9011e-07)
(7.32488e-07 -4.96295e-06 -6.46548e-08)
(1.74413e-06 -4.89769e-06 2.3973e-08)
(2.68131e-06 -4.72513e-06 8.22256e-08)
(3.48373e-06 -4.47899e-06 1.24016e-07)
(4.07124e-06 -4.16034e-06 1.56852e-07)
(4.39804e-06 -3.78694e-06 1.86045e-07)
(4.43074e-06 -3.38229e-06 2.13399e-07)
(4.15767e-06 -2.97594e-06 2.39121e-07)
(3.58941e-06 -2.59971e-06 2.62297e-07)
(2.75989e-06 -2.28434e-06 2.81539e-07)
(1.72477e-06 -2.05641e-06 2.95417e-07)
(5.57465e-07 -1.93517e-06 3.02802e-07)
(-6.57139e-07 -1.93057e-06 3.03085e-07)
(-1.83034e-06 -2.04196e-06 2.96322e-07)
(-2.87788e-06 -2.25796e-06 2.83228e-07)
(-3.72764e-06 -2.55738e-06 2.6512e-07)
(-4.32614e-06 -2.91102e-06 2.43715e-07)
(-4.64273e-06 -3.28404e-06 2.20927e-07)
(-4.67163e-06 -3.63834e-06 1.98644e-07)
(-4.43115e-06 -3.93445e-06 1.78464e-07)
(-3.96139e-06 -4.13305e-06 1.61557e-07)
(-3.31981e-06 -4.1954e-06 1.48406e-07)
(-2.57569e-06 -4.08325e-06 1.38605e-07)
(-1.80413e-06 -3.7577e-06 1.30518e-07)
(-1.07768e-06 -3.177e-06 1.20158e-07)
(-4.70675e-07 -2.28676e-06 1.00129e-07)
(-5.21575e-08 -9.93614e-07 5.22088e-08)
(-9.70618e-08 -2.61548e-06 -9.70717e-08)
(9.76037e-09 -4.73417e-06 -7.30887e-08)
(6.43806e-07 -5.90613e-06 -8.35468e-09)
(1.48541e-06 -6.46891e-06 5.4643e-08)
(2.45554e-06 -6.72104e-06 1.04942e-07)
(3.38851e-06 -6.72267e-06 1.43227e-07)
(4.19557e-06 -6.53582e-06 1.75611e-07)
(4.78862e-06 -6.19797e-06 2.05313e-07)
(5.10635e-06 -5.75163e-06 2.34574e-07)
(5.10613e-06 -5.24138e-06 2.63662e-07)
(4.77029e-06 -4.71487e-06 2.91841e-07)
(4.10768e-06 -4.22005e-06 3.17618e-07)
(3.15432e-06 -3.80183e-06 3.39182e-07)
(1.97144e-06 -3.49818e-06 3.54781e-07)
(6.40986e-07 -3.33663e-06 3.6307e-07)
(-7.41843e-07 -3.3314e-06 3.63321e-07)
(-2.07729e-06 -3.48182e-06 3.55575e-07)
(-3.27054e-06 -3.77235e-06 3.40637e-07)
(-4.24048e-06 -4.17376e-06 3.19988e-07)
(-4.92702e-06 -4.64574e-06 2.95569e-07)
(-5.29596e-06 -5.14036e-06 2.69527e-07)
(-5.34055e-06 -5.60512e-06 2.43924e-07)
(-5.08083e-06 -5.986e-06 2.20479e-07)
(-4.56064e-06 -6.22948e-06 2.00446e-07)
(-3.84239e-06 -6.28317e-06 1.84321e-07)
(-3.00137e-06 -6.09539e-06 1.71634e-07)
(-2.11972e-06 -5.61264e-06 1.60604e-07)
(-1.27811e-06 -4.77311e-06 1.46771e-07)
(-5.64019e-07 -3.48559e-06 1.21744e-07)
(-6.33726e-08 -1.5643e-06 6.34369e-08)
(6.57524e-09 -2.74426e-06 6.57446e-09)
(3.76872e-07 -5.59925e-06 4.99143e-08)
(1.11544e-06 -7.3408e-06 9.28703e-08)
(2.04016e-06 -8.35534e-06 1.29926e-07)
(3.05872e-06 -8.89286e-06 1.61971e-07)
(4.04038e-06 -9.05606e-06 1.90477e-07)
(4.88671e-06 -8.92854e-06 2.18746e-07)
(5.50547e-06 -8.57437e-06 2.48192e-07)
(5.82611e-06 -8.05744e-06 2.79448e-07)
(5.79939e-06 -7.44203e-06 3.11825e-07)
(5.40331e-06 -6.7939e-06 3.43849e-07)
(4.64576e-06 -6.17785e-06 3.7347e-07)
(3.56535e-06 -5.65364e-06 3.98399e-07)
(2.22958e-06 -5.27172e-06 4.16461e-07)
(7.29621e-07 -5.06855e-06 4.26033e-07)
(-8.28152e-07 -5.063e-06 4.26249e-07)
(-2.3321e-06 -5.25449e-06 4.17136e-07)
(-3.676e-06 -5.62295e-06 3.99614e-07)
(-4.76916e-06 -6.13056e-06 3.754e-07)
(-5.54461e-06 -6.72508e-06 3.46791e-07)
(-5.96442e-06 -7.34448e-06 3.16269e-07)
(-6.02132e-06 -7.92112e-06 2.86201e-07)
(-5.73764e-06 -8.3857e-06 2.5858e-07)
(-5.16144e-06 -8.6697e-06 2.34794e-07)
(-4.36103e-06 -8.70603e-06 2.15432e-07)
(-3.41858e-06 -8.4281e-06 1.99978e-07)
(-2.42433e-06 -7.76506e-06 1.86492e-07)
(-1.46809e-06 -6.63007e-06 1.69976e-07)
(-6.5056e-07 -4.88541e-06 1.4087e-07)
(-7.34222e-08 -2.23349e-06 7.35055e-08)
(5.2292e-08 -3.27501e-06 5.23045e-08)
(5.94959e-07 -6.90987e-06 1.14487e-07)
(1.45249e-06 -9.19886e-06 1.52209e-07)
(2.48792e-06 -1.06177e-05 1.79972e-07)
(3.59514e-06 -1.14191e-05 2.0474e-07)
(4.65617e-06 -1.17349e-05 2.29941e-07)
(5.56596e-06 -1.1667e-05 2.58053e-07)
(6.22757e-06 -1.13005e-05 2.89866e-07)
(6.56294e-06 -1.07176e-05 3.25146e-07)
(6.51696e-06 -1.00008e-05 3.62596e-07)
(6.06371e-06 -9.23337e-06 4.00112e-07)
(5.21035e-06 -8.49698e-06 4.35024e-07)
(3.99852e-06 -7.86683e-06 4.64496e-07)
(2.50268e-06 -7.40636e-06 4.85873e-07)
(8.24205e-07 -7.16141e-06 4.97169e-07)
(-9.1813e-07 -7.15584e-06 4.97344e-07)
(-2.59958e-06 -7.38914e-06 4.86414e-07)
(-4.10144e-06 -7.8365e-06 4.65464e-07)
(-5.32245e-06 -8.45095e-06 4.36537e-07)
(-6.18835e-06 -9.16778e-06 4.02374e-07)
(-6.65762e-06 -9.91036e-06 3.65906e-07)
(-6.72293e-06 -1.05953e-05 3.29972e-07)
(-6.4096e-06 -1.11377e-05 2.96951e-07)
(-5.77084e-06 -1.14532e-05 2.68451e-07)
(-4.882e-06 -1.14598e-05 2.45202e-07)
(-3.83313e-06 -1.10742e-05 2.26654e-07)
(-2.7234e-06 -1.02055e-05 2.10704e-07)
(-1.65236e-06 -8.73731e-06 1.91736e-07)
(-7.33522e-07 -6.47643e-06 1.58927e-07)
(-8.29651e-08 -2.99563e-06 8.30716e-08)
(7.8009e-08 -4.00577e-06 7.80413e-08)
(7.40646e-07 -8.5232e-06 1.54465e-07)
(1.71497e-06 -1.13944e-05 1.92311e-07)
(2.86934e-06 -1.32202e-05 2.17497e-07)
(4.08415e-06 -1.42888e-05 2.40397e-07)
(5.24242e-06 -1.47627e-05 2.6604e-07)
(6.23208e-06 -1.47638e-05 2.96773e-07)
(6.95012e-06 -1.43957e-05 3.33166e-07)
(7.31099e-06 -1.37577e-05 3.74479e-07)
(7.25322e-06 -1.2949e-05 4.18868e-07)
(6.74679e-06 -1.20701e-05 4.63629e-07)
(5.79793e-06 -1.12192e-05 5.05425e-07)
(4.45142e-06 -1.0487e-05 5.40776e-07)
(2.78921e-06 -9.95025e-06 5.66406e-07)
(9.23943e-07 -9.66465e-06 5.79894e-07)
(-1.01201e-06 -9.65924e-06 5.80029e-07)
(-2.87935e-06 -9.93364e-06 5.66827e-07)
(-4.54564e-06 -1.0458e-05 5.41528e-07)
(-5.89831e-06 -1.1176e-05 5.0657e-07)
(-6.85538e-06 -1.20097e-05 4.65305e-07)
(-7.37179e-06 -1.28677e-05 4.21279e-07)
(-7.44091e-06 -1.36507e-05 3.77894e-07)
(-7.09205e-06 -1.4258e-05 3.37988e-07)
(-6.38479e-06 -1.45899e-05 3.03528e-07)
(-5.40239e-06 -1.45484e-05 2.75432e-07)
(-4.2436e-06 -1.4033e-05 2.53175e-07)
(-3.01708e-06 -1.29302e-05 2.34427e-07)
(-1.83208e-06 -1.10892e-05 2.12919e-07)
(-8.14168e-07 -8.25322e-06 1.76541e-07)
(-9.23201e-08 -3.84792e-06 9.24537e-08)
(9.44392e-08 -4.88257e-06 9.44969e-08)
(8.50667e-07 -1.03846e-05 1.82257e-07)
(1.93314e-06 -1.38861e-05 2.22456e-07)
(3.20414e-06 -1.61409e-05 2.48251e-07)
(4.53165e-06 -1.74942e-05 2.72278e-07)
(5.79452e-06 -1.81434e-05 3.00825e-07)
(6.8731e-06 -1.82322e-05 3.36386e-07)
(7.65682e-06 -1.78822e-05 3.79388e-07)
(8.0522e-06 -1.72087e-05 4.28798e-07)
(7.99067e-06 -1.63266e-05 4.8221e-07)
(7.43702e-06 -1.53519e-05 5.36249e-07)
(6.39579e-06 -1.43988e-05 5.86802e-07)
(4.91469e-06 -1.35734e-05 6.2956e-07)
(3.08337e-06 -1.29661e-05 6.60524e-07)
(1.02659e-06 -1.26426e-05 6.76783e-07)
(-1.10832e-06 -1.26375e-05 6.76878e-07)
(-3.1664e-06 -1.29506e-05 6.60818e-07)
(-5.00022e-06 -1.35465e-05 6.30075e-07)
(-6.48495e-06 -1.4359e-05 5.87604e-07)
(-7.5309e-06 -1.52974e-05 5.37456e-07)
(-8.09006e-06 -1.62547e-05 4.83913e-07)
(-8.15743e-06 -1.71167e-05 4.31168e-07)
(-7.76747e-06 -1.77672e-05 3.82659e-07)
(-6.98732e-06 -1.80918e-05 3.40798e-07)
(-5.90882e-06 -1.79766e-05 3.06704e-07)
(-4.64007e-06 -1.73032e-05 2.79886e-07)
(-3.29905e-06 -1.59337e-05 2.57839e-07)
(-2.00397e-06 -1.36787e-05 2.33599e-07)
(-8.91386e-07 -1.02098e-05 1.93679e-07)
(-1.01457e-07 -4.7879e-06 1.01622e-07)
(1.06454e-07 -5.87042e-06 1.0653e-07)
(9.38276e-07 -1.24521e-05 2.03527e-07)
(2.11578e-06 -1.66361e-05 2.46729e-07)
(3.49304e-06 -1.93525e-05 2.74593e-07)
(4.92786e-06 -2.10185e-05 3.01522e-07)
(6.29352e-06 -2.18709e-05 3.34737e-07)
(7.46281e-06 -2.20776e-05 3.7696e-07)
(8.31716e-06 -2.17774e-05 4.28588e-07)
(8.7545e-06 -2.11001e-05 4.88233e-07)
(8.6981e-06 -2.01744e-05 5.52962e-07)
(8.10624e-06 -1.91303e-05 6.18596e-07)
(6.98066e-06 -1.80967e-05 6.80069e-07)
(5.37107e-06 -1.71944e-05 7.3212e-07)
(3.37455e-06 -1.65271e-05 7.69792e-07)
(1.12843e-06 -1.61709e-05 7.89516e-07)
(-1.204e-06 -1.61662e-05 7.89578e-07)
(-3.45073e-06 -1.65126e-05 7.69985e-07)
(-5.4484e-06 -1.71698e-05 7.32457e-07)
(-7.05966e-06 -1.80608e-05 6.80591e-07)
(-8.18734e-06 -1.9082e-05 6.19349e-07)
(-8.78147e-06 -2.0112e-05 5.54073e-07)
(-8.8399e-06 -2.10219e-05 4.89824e-07)
(-8.40379e-06 -2.1682e-05 4.30749e-07)
(-7.54886e-06 -2.19644e-05 3.79816e-07)
(-6.37618e-06 -2.17408e-05 3.38434e-07)
(-5.00287e-06 -2.08746e-05 3.06144e-07)
(-3.55549e-06 -1.92022e-05 2.80185e-07)
(-2.16001e-06 -1.64917e-05 2.52957e-07)
(-9.6184e-07 -1.23351e-05 2.09673e-07)
(-1.10023e-07 -5.81085e-06 1.10227e-07)
(1.1544e-07 -6.94614e-06 1.15556e-07)
(1.00547e-06 -1.46881e-05 2.19813e-07)
(2.25868e-06 -1.96028e-05 2.65955e-07)
(3.72297e-06 -2.28169e-05 2.96567e-07)
(5.24913e-06 -2.48306e-05 3.27455e-07)
(6.70581e-06 -2.59244e-05 3.66727e-07)
(7.95956e-06 -2.62912e-05 4.17294e-07)
(8.8844e-06 -2.60867e-05 4.79544e-07)
(9.36927e-06 -2.54527e-05 5.51777e-07)
(9.32841e-06 -2.4529e-05 6.30468e-07)
(8.71218e-06 -2.34567e-05 7.10542e-07)
(7.5176e-06 -2.23773e-05 7.85763e-07)
(5.79466e-06 -2.1425e-05 8.49596e-07)
(3.6469e-06 -2.07155e-05 8.95894e-07)
(1.22404e-06 -2.03355e-05 9.2012e-07)
(-1.29387e-06 -2.03312e-05 9.20147e-07)
(-3.71679e-06 -2.07024e-05 8.95964e-07)
(-5.86472e-06 -2.14027e-05 8.49728e-07)
(-7.58781e-06 -2.23454e-05 7.86018e-07)
(-8.78243e-06 -2.34141e-05 7.10953e-07)
(-9.39854e-06 -2.44747e-05 6.31147e-07)
(-9.43887e-06 -2.53862e-05 5.52782e-07)
(-8.9527e-06 -2.60076e-05 4.80932e-07)
(-8.02504e-06 -2.61998e-05 4.19132e-07)
(-6.7664e-06 -2.58222e-05 3.69065e-07)
(-5.30198e-06 -2.4721e-05 3.30311e-07)
(-3.76509e-06 -2.27059e-05 2.99891e-07)
(-2.28717e-06 -1.94996e-05 2.69551e-07)
(-1.01969e-06 -1.46072e-05 2.23262e-07)
(-1.17338e-07 -6.90683e-06 1.17581e-07)
(1.21421e-07 -8.08526e-06 1.2155e-07)
(1.04787e-06 -1.7046e-05 2.30541e-07)
(2.34844e-06 -2.27292e-05 2.78964e-07)
(3.86913e-06 -2.64754e-05 3.12531e-07)
(5.45815e-06 -2.88757e-05 3.48079e-07)
(6.98236e-06 -3.02575e-05 3.94367e-07)
(8.30446e-06 -3.08393e-05 4.54609e-07)
(9.29278e-06 -3.07918e-05 5.29224e-07)
(9.82799e-06 -3.02663e-05 6.16245e-07)
(9.81476e-06 -2.94097e-05 7.11544e-07)
(9.19396e-06 -2.83704e-05 8.09095e-07)
(7.95546e-06 -2.72982e-05 9.01332e-07)
(6.14707e-06 -2.63372e-05 9.79967e-07)
(3.87669e-06 -2.56141e-05 1.03725e-06)
(1.30537e-06 -2.52247e-05 1.06731e-06)
(-1.37018e-06 -2.52207e-05 1.0673e-06)
(-3.94114e-06 -2.56022e-05 1.03723e-06)
(-6.21084e-06 -2.63171e-05 9.79941e-07)
(-8.01814e-06 -2.72695e-05 9.01352e-07)
(-9.25518e-06 -2.83327e-05 8.09232e-07)
(-9.87425e-06 -2.93626e-05 7.11864e-07)
(-9.88533e-06 -3.02097e-05 6.16765e-07)
(-9.34729e-06 -3.0726e-05 5.30049e-07)
(-8.355e-06 -3.07649e-05 4.55748e-07)
(-7.02748e-06 -3.01762e-05 3.95848e-07)
(-5.49606e-06 -2.87906e-05 3.49863e-07)
(-3.8982e-06 -2.63915e-05 3.14563e-07)
(-2.36729e-06 -2.26535e-05 2.81119e-07)
(-1.05673e-06 -1.69882e-05 2.32557e-07)
(-1.22446e-07 -8.05822e-06 1.2274e-07)
(1.23488e-07 -9.25648e-06 1.23664e-07)
(1.05695e-06 -1.94623e-05 2.34011e-07)
(2.36501e-06 -2.59344e-05 2.83567e-07)
(3.89763e-06 -3.02391e-05 3.19756e-07)
(5.506e-06 -3.30648e-05 3.60112e-07)
(7.05975e-06 -3.47873e-05 4.1386e-07)
(8.42168e-06 -3.56503e-05 4.84439e-07)
(9.45735e-06 -3.58377e-05 5.72511e-07)
(1.00412e-05 -3.55061e-05 6.76043e-07)
(1.00685e-05 -3.48044e-05 7.90402e-07)
(9.46966e-06 -3.38826e-05 9.08532e-07)
(8.22473e-06 -3.28933e-05 1.02128e-06)
(6.37566e-06 -3.19852e-05 1.11829e-06)
(4.03127e-06 -3.12916e-05 1.18964e-06)
(1.36136e-06 -3.09149e-05 1.22735e-06)
(-1.4218e-06 -3.09113e-05 1.22732e-06)
(-4.09101e-06 -3.12807e-05 1.18954e-06)
(-6.43406e-06 -3.1967e-05 1.11814e-06)
(-8.28118e-06 -3.28676e-05 1.02112e-06)
(-9.52375e-06 -3.38493e-05 9.0843e-07)
(-1.01198e-05 -3.47634e-05 7.90501e-07)
(-1.00891e-05 -3.54577e-05 6.76307e-07)
(-9.50148e-06 -3.57825e-05 5.72994e-07)
(-8.46131e-06 -3.55891e-05 4.85124e-07)
(-7.09395e-06 -3.47218e-05 4.14746e-07)
(-5.53383e-06 -3.29979e-05 3.612e-07)
(-3.9182e-06 -3.01747e-05 3.21021e-07)
(-2.37785e-06 -2.58774e-05 2.84912e-07)
(-1.06266e-06 -1.94197e-05 2.35239e-07)
(-1.24064e-07 -9.23707e-06 1.24401e-07)
(1.20373e-07 -1.04172e-05 1.20568e-07)
(1.02191e-06 -2.18502e-05 2.27668e-07)
(2.2841e-06 -2.91059e-05 2.76523e-07)
(3.76801e-06 -3.39823e-05 3.14436e-07)
(5.33505e-06 -3.72664e-05 3.58957e-07)
(6.86312e-06 -3.93834e-05 4.19527e-07)
(8.22074e-06 -4.06013e-05 4.99995e-07)
(9.27529e-06 -4.11138e-05 6.01269e-07)
(9.8985e-06 -4.10787e-05 7.21341e-07)
(9.97804e-06 -4.06411e-05 8.55365e-07)
(9.43344e-06 -3.99456e-05 9.95381e-07)
(8.23265e-06 -3.91393e-05 1.1307e-06)
(6.40812e-06 -3.8368e-05 1.24861e-06)
(4.0648e-06 -3.77643e-05 1.3364e-06)
(1.3763e-06 -3.74319e-05 1.38325e-06)
(-1.43306e-06 -3.74286e-05 1.38318e-06)
(-4.12062e-06 -3.77543e-05 1.33623e-06)
(-6.46216e-06 -3.83514e-05 1.24836e-06)
(-8.28407e-06 -3.91161e-05 1.13044e-06)
(-9.48164e-06 -3.99159e-05 9.95155e-07)
(-1.00227e-05 -4.06051e-05 8.5523e-07)
(-9.93926e-06 -4.10369e-05 7.21336e-07)
(-9.31181e-06 -4.1067e-05 6.01444e-07)
(-8.25255e-06 -4.05505e-05 5.00355e-07)
(-6.88971e-06 -3.93301e-05 4.2006e-07)
(-5.35595e-06 -3.72129e-05 3.59624e-07)
(-3.78286e-06 -3.39314e-05 3.15195e-07)
(-2.29302e-06 -2.90619e-05 2.77353e-07)
(-1.02566e-06 -2.18178e-05 2.2845e-07)
(-1.20682e-07 -1.04027e-05 1.21064e-07)
(1.10621e-07 -1.15123e-05 1.10833e-07)
(9.31121e-07 -2.4097e-05 2.08794e-07)
(2.08012e-06 -3.20968e-05 2.54458e-07)
(3.43817e-06 -3.7536e-05 2.92403e-07)
(4.88515e-06 -4.12986e-05 3.39469e-07)
(6.31383e-06 -4.38574e-05 4.04928e-07)
(7.60539e-06 -4.55024e-05 4.92851e-07)
(8.63517e-06 -4.64341e-05 6.04558e-07)
(9.27726e-06 -4.6807e-05 7.3845e-07)
(9.41586e-06 -4.67563e-05 8.89778e-07)
(8.96132e-06 -4.64129e-05 1.05003e-06)
(7.86867e-06 -4.59089e-05 1.20703e-06)
(6.15679e-06 -4.53768e-05 1.34569e-06)
(3.92068e-06 -4.49387e-05 1.45031e-06)
(1.33068e-06 -4.46909e-05 1.50678e-06)
(-1.38422e-06 -4.46878e-05 1.50672e-06)
(-3.97308e-06 -4.49296e-05 1.45016e-06)
(-6.20707e-06 -4.53619e-05 1.34542e-06)
(-7.91596e-06 -4.5888e-05 1.20671e-06)
(-9.00508e-06 -4.63864e-05 1.04972e-06)
(-9.45559e-06 -4.67248e-05 8.89583e-07)
(-9.31265e-06 -4.67709e-05 7.38356e-07)
(-8.666e-06 -4.6394e-05 6.04567e-07)
(-7.63149e-06 -4.54595e-05 4.92996e-07)
(-6.335e-06 -4.38131e-05 4.05207e-07)
(-4.90128e-06 -4.12549e-05 3.39869e-07)
(-3.44925e-06 -3.74951e-05 2.92896e-07)
(-2.08651e-06 -3.20619e-05 2.54985e-07)
(-9.3365e-07 -2.40715e-05 2.09322e-07)
(-1.10767e-07 -1.1501e-05 1.11189e-07)
(9.28311e-08 -1.24734e-05 9.30467e-08)
(7.743e-07 -2.60644e-05 1.74766e-07)
(1.7308e-06 -3.47258e-05 2.13991e-07)
(2.87125e-06 -4.06893e-05 2.4948e-07)
(4.10281e-06 -4.49278e-05 2.96163e-07)
(5.34063e-06 -4.79575e-05 3.62604e-07)
(6.48606e-06 -5.00872e-05 4.53026e-07)
(7.43031e-06 -5.15211e-05 5.69175e-07)
(8.05735e-06 -5.24058e-05 7.0997e-07)
(8.25391e-06 -5.28605e-05 8.70952e-07)
(7.92514e-06 -5.29942e-05 1.0436e-06)
(7.01438e-06 -5.29146e-05 1.21509e-06)
(5.52485e-06 -5.27289e-05 1.3685e-06)
(3.53504e-06 -5.25363e-05 1.48556e-06)
(1.20214e-06 -5.24158e-05 1.54936e-06)
(-1.25292e-06 -5.24132e-05 1.54928e-06)
(-3.58463e-06 -5.25282e-05 1.48539e-06)
(-5.57208e-06 -5.27155e-05 1.36821e-06)
(-7.0583e-06 -5.28959e-05 1.21477e-06)
(-7.96521e-06 -5.29708e-05 1.04327e-06)
(-8.28965e-06 -5.28327e-05 8.70678e-07)
(-8.08862e-06 -5.23743e-05 7.09735e-07)
(-7.45695e-06 -5.14866e-05 5.69055e-07)
(-6.50804e-06 -5.00506e-05 4.53034e-07)
(-5.35798e-06 -4.79202e-05 3.62703e-07)
(-4.11563e-06 -4.48915e-05 2.96364e-07)
(-2.87972e-06 -4.06557e-05 2.4976e-07)
(-1.73544e-06 -3.46973e-05 2.14309e-07)
(-7.75997e-07 -2.60438e-05 1.75125e-07)
(-9.28741e-08 -1.24644e-05 9.3331e-08)
(6.6057e-08 -1.32224e-05 6.63128e-08)
(5.44911e-07 -2.75943e-05 1.23873e-07)
(1.22215e-06 -3.67846e-05 1.52903e-07)
(2.04416e-06 -4.31963e-05 1.82653e-07)
(2.95385e-06 -4.78758e-05 2.24835e-07)
(3.89639e-06 -5.13752e-05 2.86634e-07)
(4.80148e-06 -5.40171e-05 3.71962e-07)
(5.58472e-06 -5.60054e-05 4.82975e-07)
(6.14911e-06 -5.74752e-05 6.19274e-07)
(6.39239e-06 -5.85247e-05 7.77181e-07)
(6.2217e-06 -5.92343e-05 9.4872e-07)
(5.57257e-06 -5.96774e-05 1.12118e-06)
(4.43149e-06 -5.99263e-05 1.27713e-06)
(2.85424e-06 -6.00463e-05 1.39725e-06)
(9.71926e-07 -6.00901e-05 1.46318e-06)
(-1.02018e-06 -6.00881e-05 1.46311e-06)
(-2.90119e-06 -6.00396e-05 1.39709e-06)
(-4.47591e-06 -5.99145e-05 1.27683e-06)
(-5.61361e-06 -5.96611e-05 1.1208e-06)
(-6.25882e-06 -5.92136e-05 9.48291e-07)
(-6.42505e-06 -5.85001e-05 7.7684e-07)
(-6.1772e-06 -5.74474e-05 6.18978e-07)
(-5.6082e-06 -5.59752e-05 4.82793e-07)
(-4.82042e-06 -5.39855e-05 3.71875e-07)
(-3.91095e-06 -5.13432e-05 2.86607e-07)
(-2.96429e-06 -4.7845e-05 2.24908e-07)
(-2.05085e-06 -4.31681e-05 1.82798e-07)
(-1.22566e-06 -3.67608e-05 1.53147e-07)
(-5.46101e-07 -2.75772e-05 1.24139e-07)
(-6.60603e-08 -1.3215e-05 6.65433e-08)
(3.01892e-08 -1.36767e-05 3.04145e-08)
(2.42966e-07 -2.85212e-05 5.57436e-08)
(5.54492e-07 -3.80539e-05 7.05587e-08)
(9.56556e-07 -4.47946e-05 9.07053e-08)
(1.43597e-06 -4.98393e-05 1.23314e-07)
(1.97429e-06 -5.37643e-05 1.73256e-07)
(2.538e-06 -5.69006e-05 2.43982e-07)
(3.07624e-06 -5.94475e-05 3.3762e-07)
(3.52085e-06 -6.15245e-05 4.54433e-07)
(3.79109e-06 -6.32048e-05 5.91914e-07)
(3.80485e-06 -6.45357e-05 7.43246e-07)
(3.49582e-06 -6.55515e-05 8.97405e-07)
(2.83485e-06 -6.62812e-05 1.03827e-06)
(1.84887e-06 -6.67499e-05 1.1477e-06)
(6.29353e-07 -6.69776e-05 1.20814e-06)
(-6.75203e-07 -6.69756e-05 1.20805e-06)
(-1.89327e-06 -6.67435e-05 1.14747e-06)
(-2.87672e-06 -6.62704e-05 1.03788e-06)
(-3.53429e-06 -6.55368e-05 8.96965e-07)
(-3.83919e-06 -6.4517e-05 7.42788e-07)
(-3.82104e-06 -6.31829e-05 5.91464e-07)
(-3.54633e-06 -6.14997e-05 4.54057e-07)
(-3.09727e-06 -5.94208e-05 3.37298e-07)
(-2.55469e-06 -5.6873e-05 2.43779e-07)
(-1.98685e-06 -5.37364e-05 1.73148e-07)
(-1.44476e-06 -4.98127e-05 1.23248e-07)
(-9.6205e-07 -4.47703e-05 9.07476e-08)
(-5.57235e-07 -3.80337e-05 7.06905e-08)
(-2.43767e-07 -2.85067e-05 5.5935e-08)
(-3.01275e-08 -1.36703e-05 3.06257e-08)
(-1.40178e-08 -1.37574e-05 -1.3773e-08)
(-1.23232e-07 -2.86878e-05 -2.78897e-08)
(-2.53089e-07 -3.83249e-05 -3.10392e-08)
(-3.60886e-07 -4.5231e-05 -2.45021e-08)
(-4.0983e-07 -5.0521e-05 -6.91918e-09)
(-3.76458e-07 -5.4779e-05 2.35673e-08)
(-2.50508e-07 -5.83366e-05 6.93399e-08)
(-4.03145e-08 -6.1384e-05 1.32329e-07)
(2.25008e-07 -6.40233e-05 2.13466e-07)
(4.96658e-07 -6.6302e-05 3.11688e-07)
(7.13447e-07 -6.82317e-05 4.2255e-07)
(8.14412e-07 -6.9805e-05 5.37931e-07)
(7.56651e-07 -7.10062e-05 6.45085e-07)
(5.32363e-07 -7.18186e-05 7.29345e-07)
(1.79261e-07 -7.22279e-05 7.76239e-07)
(-2.22346e-07 -7.22258e-05 7.76106e-07)
(-5.74065e-07 -7.18124e-05 7.29051e-07)
(-7.9582e-07 -7.09961e-05 6.44659e-07)
(-8.50209e-07 -6.9791e-05 5.37413e-07)
(-7.45321e-07 -6.82141e-05 4.22045e-07)
(-5.24318e-07 -6.62817e-05 3.1119e-07)
(-2.48362e-07 -6.40007e-05 2.13041e-07)
(2.12274e-08 -6.13599e-05 1.31968e-07)
(2.35475e-07 -5.83118e-05 6.90821e-08)
(3.65278e-07 -5.47544e-05 2.34128e-08)
(4.0217e-07 -5.04975e-05 -6.99276e-09)
(3.5627e-07 -4.52099e-05 -2.44883e-08)
(2.50895e-07 -3.83074e-05 -3.09567e-08)
(1.22639e-07 -2.86751e-05 -2.77289e-08)
(1.40908e-08 -1.37518e-05 -1.35886e-08)
(-6.4255e-08 -1.34005e-05 -6.40476e-08)
(-5.34945e-07 -2.79672e-05 -1.23005e-07)
(-1.15987e-06 -3.74281e-05 -1.47131e-07)
(-1.84291e-06 -4.42965e-05 -1.57611e-07)
(-2.49401e-06 -4.96683e-05 -1.60001e-07)
(-3.04432e-06 -5.41172e-05 -1.56185e-07)
(-3.43465e-06 -5.79653e-05 -1.45343e-07)
(-3.62374e-06 -6.13908e-05 -1.25812e-07)
(-3.59257e-06 -6.44781e-05 -9.58706e-08)
(-3.34772e-06 -6.72484e-05 -5.48447e-08)
(-2.91984e-06 -6.96807e-05 -3.97447e-09)
(-2.35763e-06 -7.17292e-05 5.28401e-08)
(-1.71547e-06 -7.33362e-05 1.08457e-07)
(-1.04008e-06 -7.44456e-05 1.53859e-07)
(-3.59615e-07 -7.50123e-05 1.79737e-07)
(3.19758e-07 -7.50103e-05 1.79612e-07)
(1.00153e-06 -7.44399e-05 1.53535e-07)
(1.67919e-06 -7.33267e-05 1.07962e-07)
(2.32449e-06 -7.17159e-05 5.23141e-08)
(2.8904e-06 -6.96643e-05 -4.48948e-09)
(3.32224e-06 -6.72295e-05 -5.53801e-08)
(3.57103e-06 -6.44573e-05 -9.63342e-08)
(3.60617e-06 -6.13687e-05 -1.2615e-07)
(3.42092e-06 -5.79429e-05 -1.45644e-07)
(3.03412e-06 -5.40951e-05 -1.56376e-07)
(2.48709e-06 -4.96475e-05 -1.6007e-07)
(1.83883e-06 -4.42778e-05 -1.57621e-07)
(1.15797e-06 -3.74125e-05 -1.47069e-07)
(5.34492e-07 -2.79561e-05 -1.22839e-07)
(6.43542e-08 -1.33955e-05 -6.38555e-08)
(-1.17047e-07 -1.25685e-05 -1.16843e-07)
(-9.63227e-07 -2.62863e-05 -2.22871e-07)
(-2.10267e-06 -3.52634e-05 -2.69507e-07)
(-3.38789e-06 -4.18618e-05 -2.99382e-07)
(-4.67671e-06 -4.71158e-05 -3.25532e-07)
(-5.85434e-06 -5.15695e-05 -3.53995e-07)
(-6.80955e-06 -5.55265e-05 -3.85706e-07)
(-7.44665e-06 -5.91496e-05 -4.19639e-07)
(-7.69186e-06 -6.25057e-05 -4.5329e-07)
(-7.5016e-06 -6.55936e-05 -4.83819e-07)
(-6.86863e-06 -6.83661e-05 -5.08649e-07)
(-5.82277e-06 -7.07454e-05 -5.26013e-07)
(-4.42697e-06 -7.264e-05 -5.36035e-07)
(-2.76963e-06 -7.3963e-05 -5.40275e-07)
(-9.53024e-07 -7.46434e-05 -5.41317e-07)
(9.16942e-07 -7.46414e-05 -5.41416e-07)
(2.73469e-06 -7.39574e-05 -5.40501e-07)
(4.39419e-06 -7.26308e-05 -5.36395e-07)
(5.79266e-06 -7.07324e-05 -5.26463e-07)
(6.84172e-06 -6.83503e-05 -5.09089e-07)
(7.4781e-06 -6.55755e-05 -4.84227e-07)
(7.67189e-06 -6.2486e-05 -4.53669e-07)
(7.43031e-06 -5.91294e-05 -4.19924e-07)
(6.79672e-06 -5.5506e-05 -3.8595e-07)
(5.84479e-06 -5.15496e-05 -3.5417e-07)
(4.67025e-06 -4.70974e-05 -3.25643e-07)
(3.38409e-06 -4.18455e-05 -2.99414e-07)
(2.10087e-06 -3.52499e-05 -2.69453e-07)
(9.6278e-07 -2.62766e-05 -2.22709e-07)
(1.17132e-07 -1.25642e-05 -1.16657e-07)
(-1.67433e-07 -1.1262e-05 -1.67254e-07)
(-1.36878e-06 -2.3648e-05 -3.18191e-07)
(-2.99753e-06 -3.183e-05 -3.86859e-07)
(-4.86266e-06 -3.79134e-05 -4.36641e-07)
(-6.77512e-06 -4.28292e-05 -4.88091e-07)
(-8.57664e-06 -4.70717e-05 -5.51617e-07)
(-1.01046e-05 -5.09178e-05 -6.30051e-07)
(-1.12069e-05 -5.45127e-05 -7.23073e-07)
(-1.17519e-05 -5.79085e-05 -8.27656e-07)
(-1.16422e-05 -6.10886e-05 -9.38528e-07)
(-1.08269e-05 -6.3987e-05 -1.0487e-06)
(-9.31254e-06 -6.65053e-05 -1.15014e-06)
(-7.16798e-06 -6.85305e-05 -1.23489e-06)
(-4.52256e-06 -6.99539e-05 -1.29569e-06)
(-1.55506e-06 -7.06889e-05 -1.32732e-06)
(1.5237e-06 -7.06868e-05 -1.32741e-06)
(4.49199e-06 -6.99478e-05 -1.29592e-06)
(7.13893e-06 -6.85209e-05 -1.23518e-06)
(9.28559e-06 -6.64925e-05 -1.15046e-06)
(1.08025e-05 -6.39719e-05 -1.04905e-06)
(1.16206e-05 -6.10715e-05 -9.38832e-07)
(1.17334e-05 -5.78903e-05 -8.27926e-07)
(1.11915e-05 -5.44941e-05 -7.2332e-07)
(1.00923e-05 -5.08992e-05 -6.30242e-07)
(8.56748e-06 -4.70539e-05 -5.51754e-07)
(6.76883e-06 -4.28129e-05 -4.88177e-07)
(4.85888e-06 -3.78991e-05 -4.36602e-07)
(2.99585e-06 -3.18183e-05 -3.86771e-07)
(1.36838e-06 -2.36396e-05 -3.1803e-07)
(1.67519e-07 -1.12582e-05 -1.67066e-07)
(-2.09241e-07 -9.5303e-06 -2.09087e-07)
(-1.70462e-06 -2.01518e-05 -3.97223e-07)
(-3.74526e-06 -2.72525e-05 -4.8442e-07)
(-6.11045e-06 -3.2585e-05 -5.51858e-07)
(-8.57492e-06 -3.69397e-05 -6.26943e-07)
(-1.09422e-05 -4.07446e-05 -7.24103e-07)
(-1.30019e-05 -4.42439e-05 -8.48328e-07)
(-1.45484e-05 -4.75639e-05 -1.00017e-06)
(-1.53936e-05 -5.07454e-05 -1.17594e-06)
(-1.53855e-05 -5.37634e-05 -1.36798e-06)
(-1.44293e-05 -5.65443e-05 -1.56501e-06)
(-1.2506e-05 -5.89819e-05 -1.75239e-06)
(-9.68668e-06 -6.09555e-05 -1.91367e-06)
(-6.13751e-06 -6.23494e-05 -2.03252e-06)
(-2.11008e-06 -6.3071e-05 -2.09572e-06)
(2.08389e-06 -6.30689e-05 -2.09575e-06)
(6.11174e-06 -6.23435e-05 -2.03261e-06)
(9.66186e-06 -6.09463e-05 -1.91377e-06)
(1.24825e-05 -5.89696e-05 -1.7525e-06)
(1.44076e-05 -5.65298e-05 -1.56512e-06)
(1.53657e-05 -5.37475e-05 -1.36808e-06)
(1.53762e-05 -5.07287e-05 -1.17604e-06)
(1.45338e-05 -4.7547e-05 -1.00026e-06)
(1.29901e-05 -4.42275e-05 -8.48382e-07)
(1.09332e-05 -4.07291e-05 -7.24127e-07)
(8.5687e-06 -3.69255e-05 -6.26986e-07)
(6.10668e-06 -3.25728e-05 -5.51813e-07)
(3.74347e-06 -2.72425e-05 -4.84313e-07)
(1.70414e-06 -2.01448e-05 -3.97046e-07)
(2.09307e-07 -9.52721e-06 -2.089e-07)
(-2.35234e-07 -7.48027e-06 -2.35097e-07)
(-1.91825e-06 -1.60077e-05 -4.46035e-07)
(-4.23832e-06 -2.17973e-05 -5.44424e-07)
(-6.96431e-06 -2.61775e-05 -6.23403e-07)
(-9.84931e-06 -2.97716e-05 -7.15894e-07)
(-1.26663e-05 -3.29303e-05 -8.39779e-07)
(-1.51644e-05 -3.58599e-05 -1.00218e-06)
(-1.7091e-05 -3.86677e-05 -1.20448e-06)
(-1.82085e-05 -4.13872e-05 -1.44258e-06)
(-1.83163e-05 -4.39927e-05 -1.70678e-06)
(-1.72791e-05 -4.64138e-05 -1.9818e-06)
(-1.50526e-05 -4.85506e-05 -2.24695e-06)
(-1.17071e-05 -5.02899e-05 -2.478e-06)
(-7.43805e-06 -5.15227e-05 -2.64999e-06)
(-2.55762e-06 -5.21623e-05 -2.74206e-06)
(2.53698e-06 -5.21605e-05 -2.74201e-06)
(7.41745e-06 -5.15173e-05 -2.64989e-06)
(1.16867e-05 -5.02816e-05 -2.47788e-06)