/*--------------------------------*- C++ -*----------------------------------*\
| =========                 |                                                 |
| \\      /  F ield         | OpenFOAM: The Open Source CFD Toolbox           |
|  \\    /   O peration     | Version:  v1906                                 |
|   \\  /    A nd           | Web:      www.OpenFOAM.com                      |
|    \\/     M anipulation  |                                                 |
\*---------------------------------------------------------------------------*/
FoamFile
{
    version     2.0;
    format      ascii;
    class       volVectorField;
    location    "7";
    object      U;
}
// * * * * * * * * * * * * * * * * * * * * * * * * * * * * * * * * * * * * * //

dimensions      [0 1 -1 0 0 0 0];


internalField   nonuniform List<vector> 
78750
(
(-0.0712688 -0.0352431 -0.028767)
(-0.0391016 -0.0385754 -0.0340627)
(-0.0364331 -0.0378842 -0.0337037)
(-0.0337259 -0.0358109 -0.0336739)
(-0.0266481 -0.0323178 -0.0324562)
(-0.0222948 -0.0299338 -0.0321107)
(-0.0173177 -0.0276376 -0.0318274)
(-0.0126761 -0.0254833 -0.0316659)
(-0.00835457 -0.0234359 -0.0316061)
(-0.0042521 -0.0214646 -0.0315916)
(-0.000411478 -0.0195764 -0.031603)
(0.00318649 -0.0177482 -0.0315985)
(0.00658991 -0.0159529 -0.03154)
(0.00977102 -0.014203 -0.0314352)
(0.0127003 -0.0125165 -0.0312974)
(0.0153988 -0.0108959 -0.0311232)
(0.0178779 -0.00933845 -0.0309054)
(0.0201415 -0.00783626 -0.0306352)
(0.0221886 -0.00637284 -0.0303034)
(0.0240148 -0.00492691 -0.029898)
(0.0256116 -0.00347958 -0.0294049)
(0.0269653 -0.00201095 -0.0288112)
(0.0280573 -0.000500977 -0.028099)
(0.0288582 0.00107053 -0.0272442)
(0.0293262 0.00272766 -0.0262287)
(0.0294214 0.00449647 -0.0250271)
(0.0290934 0.00640213 -0.0236073)
(0.0282776 0.00846521 -0.0219289)
(0.0268936 0.0106972 -0.0199419)
(0.0248496 0.0130893 -0.0175894)
(0.0220683 0.0156042 -0.0148091)
(0.0184356 0.0182495 -0.0114987)
(0.0136694 0.0211085 -0.0074435)
(0.00764621 0.0224384 -0.00260731)
(0.00174299 0.0148664 0.00140429)
(-0.00425603 0.0217996 -0.0163801)
(-0.00892873 -0.026628 -0.053088)
(-0.0155743 -0.044591 -0.0672249)
(-0.0197138 -0.0455451 -0.0703294)
(-0.0225572 -0.0396904 -0.0693257)
(-0.0243383 -0.0340771 -0.067318)
(-0.0252781 -0.03063 -0.0654886)
(-0.0253911 -0.0280998 -0.0639)
(-0.0249014 -0.0258898 -0.0625292)
(-0.0239269 -0.0237277 -0.0613349)
(-0.0225302 -0.0215591 -0.0603358)
(-0.0208196 -0.0194154 -0.059539)
(-0.0189298 -0.017344 -0.0589189)
(-0.0169654 -0.015357 -0.0584128)
(-0.0149521 -0.0134378 -0.0579674)
(-0.0128965 -0.0115636 -0.0575493)
(-0.0108015 -0.00971927 -0.0571375)
(-0.008671 -0.00789529 -0.0567179)
(-0.00653291 -0.0060812 -0.0562782)
(-0.00443414 -0.00424181 -0.0557884)
(-0.00239637 -0.00232496 -0.0552009)
(-0.000427832 -0.000296528 -0.0544755)
(0.00145339 0.00187007 -0.0535649)
(0.00322918 0.00420868 -0.0524157)
(0.004872 0.00677073 -0.0509751)
(0.00634442 0.00962497 -0.0491826)
(0.00760053 0.012853 -0.0469641)
(0.00858574 0.0165468 -0.0442151)
(0.00923307 0.0208097 -0.0407794)
(0.0094562 0.025761 -0.0364295)
(0.00913874 0.0315256 -0.0308615)
(0.00811465 0.0381001 -0.0237877)
(0.00621333 0.0446578 -0.0153716)
(0.0036365 0.0474301 -0.00671157)
(0.000581504 0.0331509 0.000372563)
(-0.000294242 0.0586146 -0.00715594)
(-0.00436167 0.0744819 -0.0252667)
(-0.010494 0.0715584 -0.0320927)
(-0.0158882 0.0629066 -0.0327319)
(-0.0195919 0.052391 -0.0320555)
(-0.0217572 0.041913 -0.0319067)
(-0.0228685 0.0321897 -0.0323284)
(-0.0232089 0.0232856 -0.0332287)
(-0.0228895 0.015453 -0.0344456)
(-0.0220193 0.00899768 -0.0357602)
(-0.0208804 0.00415402 -0.0370245)
(-0.0195904 0.00136099 -0.0380149)
(-0.0180661 0.000516176 -0.0387335)
(-0.0164606 0.000763507 -0.0393775)
(-0.0149115 0.0014345 -0.0400196)
(-0.0133712 0.00238104 -0.040652)
(-0.011856 0.0035546 -0.0412648)
(-0.0103933 0.00494714 -0.0418447)
(-0.00897907 0.00655941 -0.042376)
(-0.00757504 0.00840893 -0.0428362)
(-0.00618342 0.0105455 -0.0431911)
(-0.00482663 0.0130384 -0.0434037)
(-0.00351167 0.0159248 -0.0434457)
(-0.0022701 0.0191555 -0.0432982)
(-0.00112295 0.0226936 -0.0429243)
(-7.29012e-05 0.0265681 -0.0422611)
(0.000861175 0.030821 -0.0412237)
(0.0016529 0.0355074 -0.0396917)
(0.00226791 0.0406917 -0.0374921)
(0.002658 0.0464079 -0.0343812)
(0.0027618 0.05256 -0.0300656)
(0.00251456 0.0586568 -0.0243348)
(0.00193527 0.0632458 -0.0173362)
(0.00108313 0.0619376 -0.00931006)
(1.86763e-05 0.0391874 -0.00131595)
(-0.000672795 0.0604717 -0.00407683)
(-0.00264739 0.0733911 -0.0161594)
(-0.00435037 0.0644977 -0.021891)
(-0.00549485 0.0499614 -0.0240295)
(-0.0061786 0.034468 -0.0249335)
(-0.00666481 0.0204181 -0.0259273)
(-0.00706176 0.00853042 -0.0271938)
(-0.007433 -0.00105254 -0.0285294)
(-0.00784235 -0.00815381 -0.0296759)
(-0.00826068 -0.0125183 -0.0304143)
(-0.00859631 -0.0142934 -0.030737)
(-0.00877266 -0.0141956 -0.0308364)
(-0.0087305 -0.013238 -0.0309295)
(-0.00843432 -0.0120732 -0.0310944)
(-0.00793738 -0.0107868 -0.0313157)
(-0.00729024 -0.00936831 -0.0315793)
(-0.00651744 -0.00778998 -0.0318769)
(-0.00563257 -0.00601545 -0.0322024)
(-0.00466753 -0.00400669 -0.0325482)
(-0.0036577 -0.00174477 -0.0329026)
(-0.00262231 0.000816622 -0.0332482)
(-0.0015659 0.00372275 -0.0335599)
(-0.000505091 0.00700791 -0.0338067)
(0.000498591 0.0107139 -0.0339485)
(0.00141222 0.0149111 -0.0339421)
(0.00222614 0.0196736 -0.0337328)
(0.00292197 0.025068 -0.0332502)
(0.00347779 0.0311702 -0.032391)
(0.0038634 0.0380658 -0.0309983)
(0.00403888 0.0457977 -0.0288409)
(0.00395026 0.0541857 -0.025627)
(0.00351785 0.0623836 -0.021148)
(0.00277227 0.0683946 -0.0155691)
(0.00173429 0.0677909 -0.00871453)
(0.000348601 0.0427767 -0.00108066)
(0.000514297 0.064133 -0.00233003)
(0.000698643 0.0898623 -0.0113484)
(0.000342325 0.0877408 -0.0167925)
(-0.000134319 0.0793599 -0.0198725)
(-0.00080953 0.069367 -0.021613)
(-0.0016408 0.0598663 -0.0225458)
(-0.00262604 0.0517386 -0.0228942)
(-0.00374989 0.0450217 -0.0227832)
(-0.0049595 0.0393204 -0.0223844)
(-0.00614953 0.0341067 -0.0219402)
(-0.00717505 0.0290223 -0.0217057)
(-0.00793989 0.0240057 -0.0218396)
(-0.00837246 0.0199148 -0.0222147)
(-0.00851959 0.0173304 -0.0226645)
(-0.00848675 0.0157945 -0.0232279)
(-0.00831696 0.0148326 -0.0239335)
(-0.00802266 0.014294 -0.0247563)
(-0.00761756 0.0141466 -0.025663)
(-0.0071138 0.0144223 -0.026618)
(-0.00652786 0.0151881 -0.0275828)
(-0.00588601 0.0165353 -0.028513)
(-0.00523807 0.018551 -0.0293564)
(-0.00461079 0.0214053 -0.0300334)
(-0.00398324 0.0253196 -0.0305193)
(-0.00338953 0.0300426 -0.0308091)
(-0.00287245 0.0351758 -0.0308373)
(-0.00240102 0.0407899 -0.0305082)
(-0.00197186 0.0469734 -0.0297209)
(-0.0015895 0.0537231 -0.0283516)
(-0.00125386 0.0609119 -0.0262458)
(-0.000960636 0.0681247 -0.0232519)
(-0.000715171 0.0743731 -0.0193271)
(-0.00053138 0.0779324 -0.014565)
(-0.000362987 0.074084 -0.00852056)
(-0.00024208 0.0442482 -0.00147584)
(-4.7591e-05 0.0609373 -0.00169783)
(-0.000566181 0.0909558 -0.00892476)
(-0.0013406 0.089598 -0.0133522)
(-0.00207269 0.0803392 -0.0157739)
(-0.00278252 0.0676716 -0.0167763)
(-0.00337183 0.0549284 -0.0167104)
(-0.00381358 0.0437038 -0.0160302)
(-0.00409919 0.0341859 -0.0150767)
(-0.00423193 0.0260491 -0.014062)
(-0.00423015 0.018874 -0.013116)
(-0.00413617 0.0124003 -0.0123308)
(-0.00401278 0.00691345 -0.011744)
(-0.00387972 0.00295929 -0.0112913)
(-0.00371521 0.000506697 -0.010924)
(-0.0035129 -0.000869873 -0.0107236)
(-0.00328819 -0.00149739 -0.0107741)
(-0.00301937 -0.00150883 -0.011104)
(-0.0026869 -0.000954087 -0.0117085)
(-0.00228457 0.000187397 -0.0125528)
(-0.00183011 0.00199353 -0.0135746)
(-0.00135636 0.00461695 -0.0146988)
(-0.000894077 0.00817422 -0.0159133)
(-0.000514081 0.0124938 -0.0172197)
(-0.000223207 0.0173695 -0.0185236)
(3.78299e-06 0.0228686 -0.0197298)
(0.000188833 0.0290499 -0.0207427)
(0.00033622 0.0359302 -0.0214561)
(0.000445582 0.0434944 -0.0217435)
(0.000517616 0.0516498 -0.0214511)
(0.000557701 0.0601178 -0.0204049)
(0.000576841 0.0682408 -0.0184622)
(0.000568814 0.0748149 -0.0156242)
(0.000501919 0.0782997 -0.0120066)
(0.000347975 0.0743922 -0.00705199)
(8.85457e-05 0.0434929 -0.00091628)
(0.000458056 0.0584476 -0.00112232)
(0.00119622 0.0944126 -0.00671017)
(0.00148423 0.0971698 -0.0103992)
(0.00156736 0.0915879 -0.0126271)
(0.00151255 0.0820113 -0.0138574)
(0.00131884 0.0711294 -0.0141586)
(0.00108874 0.0607927 -0.0137854)
(0.000894461 0.0516094 -0.0129627)
(0.000749082 0.0436044 -0.0118012)
(0.000611358 0.0366643 -0.0103373)
(0.00040295 0.030708 -0.00860441)
(2.40464e-05 0.0257152 -0.00671411)
(-0.000558116 0.0217708 -0.00489786)
(-0.00125923 0.0189821 -0.00340862)
(-0.00201715 0.0171125 -0.00245626)
(-0.00279741 0.0157274 -0.00229832)
(-0.00355353 0.0145567 -0.00306204)
(-0.00425653 0.0136324 -0.00462099)
(-0.00488163 0.0131953 -0.00668444)
(-0.00539674 0.0135539 -0.00892417)
(-0.00574027 0.0150116 -0.01107)
(-0.00586042 0.0178012 -0.0130338)
(-0.0057599 0.0218895 -0.0148312)
(-0.00549341 0.0268597 -0.0163965)
(-0.00516144 0.0323463 -0.0176319)
(-0.0048387 0.0383128 -0.0184918)
(-0.00455194 0.0448216 -0.0189427)
(-0.00428188 0.051887 -0.0189312)
(-0.00397679 0.0593689 -0.0183826)
(-0.00357645 0.0668611 -0.0172194)
(-0.00304306 0.0736064 -0.0154022)
(-0.0024106 0.0785565 -0.0129742)
(-0.00175866 0.0803852 -0.00990951)
(-0.00101955 0.0741107 -0.00571423)
(-0.000257849 0.0415929 -0.000780742)
(0.000136309 0.0537139 -0.00111351)
(0.000678259 0.0913114 -0.00593141)
(0.000957905 0.0955653 -0.00896719)
(0.00112187 0.0911925 -0.0107275)
(0.00119889 0.0818956 -0.0116784)
(0.00111177 0.069785 -0.0117162)
(0.000974312 0.0572097 -0.0109047)
(0.000872872 0.0455041 -0.00931592)
(0.000803179 0.0353229 -0.00693746)
(0.000700146 0.0270455 -0.00373286)
(0.000512683 0.0207321 0.000295763)
(0.000256381 0.0161812 0.00499045)
(3.61756e-06 0.0129491 0.0099041)
(-0.00015559 0.0105398 0.0143182)
(-0.000162489 0.00874087 0.0175766)
(-4.23826e-05 0.00759749 0.0194781)
(0.000118016 0.00711088 0.0200289)
(0.000194113 0.00721178 0.0192046)
(9.29533e-05 0.00783805 0.0170182)
(-0.000242277 0.00881831 0.013429)
(-0.000828335 0.00993132 0.00863378)
(-0.00155662 0.0114031 0.00339604)
(-0.00225467 0.0139071 -0.00144736)
(-0.00279022 0.0180191 -0.00546599)
(-0.00309131 0.0239176 -0.00860644)
(-0.00315197 0.031269 -0.010927)
(-0.00304467 0.0394221 -0.0124886)
(-0.00287009 0.0477829 -0.0133471)
(-0.00267203 0.0559172 -0.0135263)
(-0.00241357 0.0634527 -0.0130314)
(-0.00202884 0.0698181 -0.0118833)
(-0.00152896 0.0742255 -0.010153)
(-0.000997878 0.0756588 -0.00780681)
(-0.000438056 0.0693677 -0.00440689)
(9.36819e-06 0.0382631 -0.000366995)
(5.08036e-05 0.0506633 -0.000413501)
(0.000393091 0.0890893 -0.00416422)
(0.00061695 0.0953773 -0.0067736)
(0.000737452 0.0925674 -0.00831238)
(0.000783534 0.0850503 -0.00912924)
(0.000676772 0.0743662 -0.00897326)
(0.000432762 0.0627218 -0.00750004)
(5.94222e-05 0.0518536 -0.00439143)
(-0.000450201 0.0426352 0.000544069)
(-0.00105841 0.0350989 0.00715117)
(-0.00165635 0.0286096 0.0145565)
(-0.00207246 0.0223111 0.0212034)
(-0.00218273 0.0158133 0.0258158)
(-0.00195614 0.00959015 0.0282088)
(-0.00141107 0.00451319 0.029095)
(-0.000623644 0.00127198 0.0292816)
(0.000283677 0.000168861 0.0292528)
(0.0011985 0.0012501 0.0291493)
(0.0020093 0.00438217 0.0288109)
(0.0025948 0.00919103 0.0277896)
(0.00283357 0.0149133 0.0254037)
(0.0026576 0.0204814 0.0210377)
(0.0020588 0.0250264 0.0146716)
(0.00112503 0.0283991 0.0072804)
(6.65816e-05 0.0314171 0.000518154)
(-0.000873597 0.0352912 -0.00446495)
(-0.00155537 0.0408119 -0.00760969)
(-0.00192636 0.0479386 -0.00927372)
(-0.00200386 0.0557347 -0.00977783)
(-0.0018675 0.062944 -0.0094037)
(-0.00158351 0.0686315 -0.00840005)
(-0.00120477 0.0722422 -0.00694391)
(-0.000783084 0.0729936 -0.0050232)
(-0.000317975 0.066207 -0.00238328)
(9.94797e-06 0.0363039 0.00030908)
(-0.000212586 0.0507404 -3.14458e-06)
(-0.000870269 0.0892398 -0.00311151)
(-0.0014782 0.095379 -0.00519183)
(-0.00209261 0.0923446 -0.00612871)
(-0.00285099 0.0841302 -0.00588481)
(-0.00370744 0.0724137 -0.00379041)
(-0.00463621 0.0598793 0.000621154)
(-0.00562578 0.0481463 0.00722463)
(-0.00658888 0.0373175 0.0149585)
(-0.00733551 0.0265293 0.0217721)
(-0.00762212 0.0153896 0.0256953)
(-0.00740164 0.00458686 0.026595)
(-0.00678542 -0.00499268 0.0257396)
(-0.00593021 -0.0127254 0.0243672)
(-0.00496415 -0.0183396 0.0231958)
(-0.00392994 -0.0217837 0.0225079)
(-0.00282035 -0.0231086 0.0223606)
(-0.00161094 -0.0223481 0.0227366)
(-0.000277899 -0.0194827 0.0235906)
(0.00117819 -0.0145005 0.0247976)
(0.00269287 -0.00751967 0.0260623)
(0.00412037 0.00116627 0.0268652)
(0.00528017 0.0109873 0.0264201)
(0.00596737 0.0210004 0.0238341)
(0.00601887 0.0299314 0.0186074)
(0.0054186 0.0368856 0.0114236)
(0.00438726 0.0421382 0.00419639)
(0.00326139 0.0470022 -0.00126604)
(0.00228551 0.0525688 -0.00448923)
(0.00155045 0.058791 -0.00585102)
(0.00106646 0.0645277 -0.00585293)
(0.00078301 0.0684361 -0.00498197)
(0.000609672 0.0695711 -0.00353484)
(0.00043912 0.0638497 -0.00144097)
(0.000156734 0.0355962 0.000630288)
(-0.000139552 0.0530717 0.000782645)
(-0.00111297 0.0937448 -0.00116351)
(-0.00218632 0.100967 -0.00251907)
(-0.00329433 0.0982723 -0.00257901)
(-0.00457112 0.0903877 -0.000883449)
(-0.00586029 0.078889 0.00330457)
(-0.00707061 0.0658864 0.00983527)
(-0.00812763 0.0522904 0.0171757)
(-0.00886749 0.0379424 0.0227352)
(-0.00912899 0.0233504 0.0246564)
(-0.00900361 0.00964246 0.0235964)
(-0.00865737 -0.00233309 0.0213278)
(-0.00818124 -0.0120742 0.0191534)
(-0.00761651 -0.0196658 0.0175167)
(-0.00699354 -0.0253244 0.0164345)
(-0.0063138 -0.0291989 0.0158247)
(-0.00556364 -0.0313588 0.0156176)
(-0.00471809 -0.0318317 0.01578)
(-0.00374083 -0.0305934 0.0163256)
(-0.00259592 -0.0275587 0.0173043)
(-0.00126328 -0.0226049 0.0187575)
(0.000250809 -0.0155909 0.0206476)
(0.00189675 -0.00639253 0.0227571)
(0.0035971 0.00490558 0.0245376)
(0.0051384 0.0175893 0.0250402)
(0.00628461 0.0306224 0.0232595)
(0.00680198 0.0426549 0.0186084)
(0.00651852 0.0520871 0.0119029)
(0.00558978 0.0585572 0.00545388)
(0.00441304 0.0631769 0.00112366)
(0.00325588 0.0669119 -0.00093555)
(0.00223853 0.0696293 -0.00135636)
(0.0014114 0.0702635 -0.00072693)
(0.000691303 0.0643164 0.000610407)
(0.000109898 0.0361425 0.0014846)
(-0.000149754 0.0557888 0.000985095)
(-0.0013832 0.0993096 -7.80132e-05)
(-0.00280625 0.107199 -0.000630186)
(-0.00427021 0.104004 0.000241112)
(-0.00592515 0.0944902 0.00323896)
(-0.00745648 0.0803862 0.00862279)
(-0.00869983 0.0639172 0.0150315)
(-0.00957057 0.0461431 0.0199226)
(-0.00996027 0.028213 0.0213683)
(-0.0099206 0.0115024 0.0199338)
(-0.0096229 -0.00304659 0.0174469)
(-0.00916467 -0.0149397 0.0151958)
(-0.00861508 -0.0244235 0.0135184)
(-0.00799482 -0.0318432 0.0123577)
(-0.0073137 -0.0374461 0.0116013)
(-0.00657982 -0.0414024 0.0111595)
(-0.00579811 -0.0438235 0.0109733)
(-0.00496804 -0.044783 0.0110092)
(-0.00408215 -0.0443108 0.0112609)
(-0.00312859 -0.0423869 0.0117519)
(-0.00209145 -0.0389411 0.0125356)
(-0.000947316 -0.033842 0.0136952)
(0.000331223 -0.0268664 0.0153266)
(0.00176954 -0.0177079 0.0174656)
(0.00335545 -0.00605143 0.0199307)
(0.00500327 0.00803152 0.0220655)
(0.00647627 0.0238114 0.0227226)
(0.00748514 0.0397567 0.0207366)
(0.00772199 0.0537745 0.0159142)
(0.00701464 0.0638884 0.00995611)
(0.00563594 0.0700285 0.00531465)
(0.00406902 0.0733153 0.00286302)
(0.00260358 0.0737951 0.00210254)
(0.00121682 0.067145 0.00233403)
(0.0001656 0.0375384 0.00205333)
(-6.21815e-05 0.0581597 0.00121173)
(-0.00115392 0.105176 0.0010733)
(-0.00258355 0.114678 0.00125151)
(-0.00410125 0.111571 0.00279278)
(-0.00580054 0.101091 0.00639481)
(-0.00732271 0.0848639 0.011769)
(-0.00845773 0.0653079 0.0168028)
(-0.00915014 0.0445042 0.0191275)
(-0.00938934 0.0244908 0.0183567)
(-0.00932185 0.00658883 0.0160031)
(-0.00902929 -0.00836984 0.013565)
(-0.00858791 -0.0203582 0.0116463)
(-0.00803773 -0.0299111 0.0102493)
(-0.00740851 -0.0374343 0.0092719)
(-0.00672204 -0.0431902 0.00862375)
(-0.00599282 -0.0473438 0.0082394)
(-0.00523109 -0.0500045 0.00807281)
(-0.00444279 -0.0512503 0.0080935)
(-0.00362947 -0.0511277 0.0082875)
(-0.00279087 -0.0496495 0.00865794)
(-0.00192692 -0.0468051 0.00922349)
(-0.00103531 -0.0425664 0.0100193)
(-0.000108112 -0.0368625 0.0111062)
(0.000873801 -0.0295234 0.0125829)
(0.00193998 -0.0201855 0.0145788)
(0.00310187 -0.00825077 0.017145)
(0.00435208 0.00677068 0.0199216)
(0.00556549 0.0244167 0.0217738)
(0.00647042 0.0430873 0.0212273)
(0.00665487 0.0601104 0.0176647)
(0.00581751 0.072253 0.0126384)
(0.00432288 0.0784446 0.00870431)
(0.00273873 0.079406 0.00654361)
(0.00120294 0.0714896 0.0053299)
(0.000127441 0.0393117 0.00316934)
(-2.02322e-05 0.0598471 0.000955853)
(-0.000939876 0.1101 0.0013055)
(-0.0022652 0.120949 0.00195338)
(-0.00371977 0.117556 0.00377715)
(-0.00538094 0.105218 0.00732093)
(-0.00687597 0.0858243 0.0118374)
(-0.00798533 0.0627361 0.0151017)
(-0.00865816 0.0390343 0.0156181)
(-0.00890826 0.0170239 0.0139687)
(-0.00882991 -0.00195397 0.0116259)
(-0.00850215 -0.0173464 0.00954246)
(-0.00801118 -0.0295764 0.00795024)
(-0.00739689 -0.0392459 0.00680049)
(-0.00669096 -0.0468152 0.00600105)
(-0.00591932 -0.0525948 0.00547203)
(-0.00510094 -0.0567851 0.00515431)
(-0.00425079 -0.059521 0.00500626)
(-0.00338072 -0.0608938 0.00500091)
(-0.00250055 -0.0609537 0.00512544)
(-0.00161999 -0.0597138 0.00538097)
(-0.000750226 -0.0571599 0.00578149)
(9.75649e-05 -0.0532635 0.00635299)
(0.00091097 -0.0479842 0.00713549)
(0.00167892 -0.0412498 0.00819102)
(0.00240637 -0.0328904 0.00962173)
(0.0031161 -0.0224939 0.0115878)
(0.00384653 -0.00928111 0.0142366)
(0.00460576 0.00753813 0.0173193)
(0.00531593 0.0276815 0.0196642)
(0.0057235 0.0490987 0.0196133)
(0.00535685 0.067861 0.0166944)
(0.00412031 0.0796333 0.0127963)
(0.00262821 0.0828975 0.00985784)
(0.00115157 0.0747408 0.00749996)
(0.000130795 0.0404936 0.00381765)
(8.24394e-05 0.0604114 0.00061096)
(-0.000417848 0.113566 0.00119898)
(-0.00140655 0.126484 0.00209437)
(-0.00258909 0.123669 0.00392098)
(-0.00400511 0.11094 0.00704751)
(-0.00536861 0.0900564 0.0107021)
(-0.00641527 0.0649206 0.0129921)
(-0.00706426 0.0391033 0.0130392)
(-0.00730819 0.0152196 0.0115265)
(-0.0072235 -0.00508475 0.00953738)
(-0.00689464 -0.0212832 0.00774088)
(-0.00638995 -0.0339912 0.00632773)
(-0.00576698 -0.0439702 0.0052844)
(-0.00506166 -0.0517682 0.00454676)
(-0.00430048 -0.0577295 0.0040497)
(-0.00350287 -0.0620618 0.0037418)
(-0.00268495 -0.0649027 0.00358522)
(-0.00185994 -0.0663463 0.00355433)
(-0.00103916 -0.066447 0.00363529)
(-0.000233908 -0.0652216 0.00382581)
(0.00054295 -0.0626625 0.00413454)
(0.00127673 -0.0587545 0.00458094)
(0.00195093 -0.0534846 0.00519687)
(0.00254771 -0.0468321 0.00603105)
(0.00305555 -0.0387254 0.00716051)
(0.00347306 -0.0289356 0.00871383)
(0.00381931 -0.0169116 0.0108841)
(0.00412562 -0.00165268 0.0138183)
(0.00441469 0.0177159 0.0171053)
(0.00463538 0.0404011 0.0192819)
(0.00444813 0.0630275 0.0187868)
(0.00349713 0.0794217 0.0159441)
(0.00223608 0.0849257 0.0128099)
(0.000963201 0.0766543 0.00957956)
(0.000115917 0.0410088 0.00450953)
(0.000118583 0.059763 7.59432e-05)
(-1.44658e-05 0.114914 0.000507106)
(-0.000626999 0.129758 0.00140974)
(-0.00147116 0.127629 0.00305749)
(-0.00256683 0.114701 0.00566796)
(-0.00372152 0.0923611 0.00862502)
(-0.00462821 0.0649224 0.0104431)
(-0.0051411 0.0365983 0.0105168)
(-0.00525027 0.0106285 0.00929581)
(-0.00505571 -0.011046 0.00754998)
(-0.0046601 -0.0280156 0.00587757)
(-0.00412399 -0.0411103 0.00452554)
(-0.00348707 -0.0512676 0.00351719)
(-0.00277656 -0.0591393 0.00279847)
(-0.00201539 -0.0651165 0.00230479)
(-0.00122199 -0.0694319 0.00198239)
(-0.000411962 -0.0722374 0.00179164)
(0.000400236 -0.0736344 0.00170599)
(0.00120024 -0.0736779 0.00171052)
(0.00197343 -0.0723827 0.00180096)
(0.00270342 -0.0697364 0.00198316)
(0.00337141 -0.0657181 0.00227345)
(0.00395653 -0.0603129 0.00270018)
(0.00443484 -0.0535139 0.00330763)
(0.00478587 -0.0453016 0.00416384)
(0.0049947 -0.0355651 0.00537977)
(0.00506147 -0.0239584 0.00713669)
(0.00500843 -0.00968736 0.0096799)
(0.00487113 0.00852426 0.0130789)
(0.00467996 0.0311687 0.0165047)
(0.00432434 0.0558862 0.0181651)
(0.00341755 0.0763046 0.0170537)
(0.00222569 0.0847512 0.0143887)
(0.00100209 0.0773426 0.0107715)
(0.000156458 0.0412451 0.00484318)
(0.000144029 0.0580552 -0.000200578)
(0.00032127 0.114152 -9.2866e-06)
(0.000100548 0.131038 0.000789735)
(-0.000351663 0.130099 0.00224085)
(-0.00103441 0.118027 0.00448908)
(-0.00181748 0.0954468 0.00720042)
(-0.00235987 0.0665793 0.0092039)
(-0.00248572 0.036134 0.00975048)
(-0.00228298 0.00832638 0.00886342)
(-0.00190099 -0.0143424 0.00722586)
(-0.0014286 -0.031713 0.00555458)
(-0.000886525 -0.0449588 0.00417878)
(-0.000282951 -0.0552068 0.00314286)
(0.000371219 -0.0631634 0.00239282)
(0.00106225 -0.0692082 0.0018616)
(0.00177675 -0.0735501 0.00149328)
(0.00250015 -0.0763275 0.00124702)
(0.00321833 -0.0776378 0.0010958)
(0.00391761 -0.0775344 0.00102402)
(0.00458382 -0.076027 0.00102584)
(0.00520082 -0.0730969 0.00110393)
(0.00574712 -0.0687202 0.0012702)
(0.00619732 -0.0628896 0.001548)
(0.00652619 -0.0556212 0.00197628)
(0.00670999 -0.0469407 0.00261566)
(0.00672694 -0.0368262 0.00356428)
(0.00656397 -0.0250934 0.00498318)
(0.00622187 -0.011202 0.00711935)
(0.00572753 0.00593146 0.0102105)
(0.00512517 0.0274841 0.0139732)
(0.00443664 0.0523143 0.0169119)
(0.00341466 0.0744861 0.0172945)
(0.00219862 0.0848385 0.0152921)
(0.000990467 0.0780752 0.0115398)
(0.000160921 0.0416449 0.0050557)
(8.86054e-05 0.0560457 -0.000159326)
(0.000287985 0.112057 -0.000153731)
(0.00022711 0.130192 0.000486452)
(-4.68485e-06 0.129979 0.00178379)
(-0.000375578 0.118023 0.00391964)
(-0.00070943 0.0942528 0.00677098)
(-0.000635822 0.0629391 0.00910073)
(-0.000137544 0.0301105 0.00967118)
(0.000489151 0.00135271 0.00848677)
(0.0010844 -0.0211049 0.00656381)
(0.00162565 -0.0379976 0.00473842)
(0.00216165 -0.0508761 0.00329973)
(0.00272675 -0.0609113 0.00223733)
(0.00333254 -0.0687461 0.0014665)
(0.00397276 -0.0746914 0.000907681)
(0.00463248 -0.0789174 0.000499605)
(0.00529671 -0.0815473 0.000199358)
(0.00595112 -0.0826731 -2.09025e-05)
(0.00658144 -0.0823432 -0.000177371)
(0.00717183 -0.0805596 -0.00027716)
(0.00770378 -0.0772929 -0.000319414)
(0.0081559 -0.0725086 -0.000294417)
(0.00850476 -0.0661945 -0.000180715)
(0.00872456 -0.058373 5.89638e-05)
(0.00878719 -0.0490933 0.000483332)
(0.00866286 -0.0383837 0.00118659)
(0.00832956 -0.0261559 0.00232168)
(0.00777325 -0.0120413 0.00413014)
(0.00699516 0.004807 0.00691252)
(0.00603356 0.0255777 0.0106913)
(0.00494686 0.0500827 0.0144426)
(0.00365292 0.0733318 0.0161894)
(0.00229273 0.0852761 0.0150795)
(0.00102401 0.0791293 0.0115081)
(0.00017149 0.0422909 0.00491435)
(1.98951e-05 0.0544933 0.000399096)
(4.78533e-05 0.109942 0.000558798)
(-6.78774e-05 0.128619 0.00116464)
(-0.000235103 0.128624 0.00253399)
(-0.000348782 0.115816 0.00501421)
(-7.27817e-05 0.0894953 0.0083707)
(0.000800376 0.0553781 0.0105876)
(0.00188706 0.0217401 0.0103385)
(0.00278523 -0.00586666 0.00839567)
(0.00343413 -0.0266245 0.00614448)
(0.00395043 -0.0422564 0.00427832)
(0.00443894 -0.0544523 0.00289436)
(0.00495259 -0.0641893 0.00189043)
(0.00550605 -0.0719024 0.00115471)
(0.00609182 -0.0777689 0.000605397)
(0.0066911 -0.0818899 0.000184972)
(0.00728918 -0.0843606 -0.000145159)
(0.00787277 -0.0852636 -0.000409932)
(0.00842829 -0.0846397 -0.000624192)
(0.00893987 -0.0824771 -0.000795465)
(0.00938794 -0.0787265 -0.00092507)
(0.00974883 -0.0733381 -0.00100654)
(0.00999612 -0.0663004 -0.0010218)
(0.0101025 -0.0576544 -0.000936166)
(0.0100417 -0.0474854 -0.00069282)
(0.00978903 -0.0358791 -0.000199522)
(0.00931829 -0.0228257 0.000692076)
(0.00859896 -0.00808384 0.00221603)
(0.00761689 0.00896197 0.00467624)
(0.00639419 0.0292366 0.00820651)
(0.00501048 0.0527227 0.0121131)
(0.00349036 0.0752441 0.0145593)
(0.00207042 0.087017 0.0141216)
(0.000872151 0.0806293 0.010854)
(0.000128838 0.0429971 0.00449022)
(-9.17997e-05 0.0539241 0.00140509)
(-0.000403998 0.108785 0.00222368)
(-0.000759481 0.126906 0.00308004)
(-0.000988963 0.125628 0.00485643)
(-0.000858049 0.108995 0.00798084)
(8.09454e-05 0.0776848 0.0111239)
(0.00151618 0.0412769 0.011698)
(0.00273202 0.00936277 0.00972863)
(0.00352533 -0.0150053 0.0069895)
(0.0040423 -0.033271 0.00464756)
(0.00446627 -0.0475574 0.0029386)
(0.00490491 -0.0591682 0.00173185)
(0.0053977 -0.0686641 0.000863188)
(0.00594057 -0.0762332 0.000216589)
(0.00651495 -0.0819461 -0.000279962)
(0.00710106 -0.0858733 -0.000674397)
(0.00768416 -0.0881054 -0.000999836)
(0.00825114 -0.08872 -0.00127837)
(0.00878825 -0.0877456 -0.00152383)
(0.00927871 -0.085149 -0.00174431)
(0.00970128 -0.0808557 -0.00194257)
(0.0100301 -0.074798 -0.00211323)
(0.010237 -0.0669649 -0.0022383)
(0.010295 -0.0574152 -0.00228298)
(0.0101774 -0.0462605 -0.00218922)
(0.00985957 -0.033617 -0.00186083)
(0.00931784 -0.019524 -0.00114356)
(0.00852946 -0.00382799 0.000195376)
(0.00747055 0.0139201 0.00244769)
(0.00614993 0.0343512 0.00576233)
(0.00465339 0.0571896 0.00959898)
(0.00306899 0.0784896 0.0123212)
(0.0017118 0.0890842 0.0123238)
(0.000673003 0.0819719 0.00948059)
(8.46016e-05 0.0434557 0.00373946)
(-0.000191832 0.0544278 0.00281777)
(-0.000845593 0.10884 0.00501306)
(-0.0014453 0.125396 0.0065332)
(-0.00168262 0.121036 0.00885298)
(-0.00124156 0.0980049 0.0119206)
(6.41567e-05 0.0624546 0.0130325)
(0.00135778 0.0275753 0.0110454)
(0.00215521 6.76123e-05 0.00782389)
(0.00257706 -0.0206457 0.00502083)
(0.00286488 -0.0369746 0.00303381)
(0.00317398 -0.0505189 0.00169051)
(0.0035635 -0.0619328 0.000762632)
(0.00403452 -0.0713926 9.16406e-05)
(0.00456267 -0.0789212 -0.000417096)
(0.00512645 -0.0845435 -0.000817845)
(0.00570611 -0.0883255 -0.001146)
(0.00628614 -0.0903548 -0.00142702)
(0.00685403 -0.090699 -0.00167855)
(0.00739636 -0.089366 -0.00191281)
(0.00789623 -0.086291 -0.00213865)
(0.00833134 -0.0813648 -0.00236097)
(0.00867416 -0.0745031 -0.00257664)
(0.00889516 -0.0657077 -0.00277011)
(0.00896716 -0.0550702 -0.00290951)
(0.00886372 -0.0427433 -0.00293918)
(0.00856052 -0.0288917 -0.00276201)
(0.00803373 -0.0136167 -0.00221874)
(0.00726001 0.00312773 -0.00107576)
(0.00623116 0.021589 0.00093639)
(0.00497458 0.0420425 0.00392904)
(0.00358468 0.0637772 0.00740879)
(0.00219542 0.082824 0.00994072)
(0.00110558 0.0911619 0.0100603)
(0.000364813 0.082767 0.00764999)
(2.12357e-05 0.0434632 0.00281712)
(-0.00028348 0.0558821 0.00423926)
(-0.00125624 0.109592 0.00823932)
(-0.00208626 0.123123 0.0105188)
(-0.00235078 0.113607 0.0127353)
(-0.00187854 0.0840105 0.0138865)
(-0.00097049 0.0479898 0.0118622)
(-0.000430654 0.0174264 0.00809833)
(-0.000267942 -0.00592083 0.00475572)
(-0.000230097 -0.0244565 0.00246171)
(-0.000139943 -0.0401008 0.000995315)
(7.99207e-05 -0.0536309 4.4212e-05)
(0.000429442 -0.0652035 -0.000602402)
(0.000878676 -0.0747844 -0.00106695)
(0.00140052 -0.0823511 -0.0014193)
(0.00197092 -0.0879392 -0.001699)
(0.0025707 -0.0916307 -0.00193138)
(0.00318242 -0.0935163 -0.00213599)
(0.00379299 -0.0936513 -0.00232761)
(0.00438886 -0.0920189 -0.00251793)
(0.00495342 -0.0885185 -0.00271649)
(0.00546481 -0.0830073 -0.00292867)
(0.00589578 -0.0753868 -0.00315128)
(0.00621725 -0.0656678 -0.00336968)
(0.00640213 -0.0539616 -0.00355541)
(0.00642354 -0.0404464 -0.00365736)
(0.0062562 -0.025327 -0.00358216)
(0.00587739 -0.0087752 -0.00317313)
(0.00527178 0.00912569 -0.00220629)
(0.00443937 0.0283999 -0.000444762)
(0.00341993 0.0489375 0.00217456)
(0.0023229 0.069549 0.00517923)
(0.00130627 0.0862089 0.00733562)
(0.000570353 0.0923555 0.00747032)
(0.000127661 0.0827326 0.00554281)
(-1.0774e-05 0.043057 0.00183938)
(-0.000320121 0.0580712 0.00519225)
(-0.00150492 0.111002 0.0107197)
(-0.00256534 0.121072 0.0133423)
(-0.00306296 0.106274 0.0143887)
(-0.00309776 0.0738149 0.0126696)
(-0.00309555 0.040791 0.00854114)
(-0.0033801 0.0143648 0.00455491)
(-0.0037441 -0.00672658 0.00184119)
(-0.00400561 -0.0247261 0.000210883)
(-0.00408836 -0.040656 -0.000752554)
(-0.00398477 -0.0546897 -0.00133607)
(-0.00372068 -0.0667271 -0.00170512)
(-0.00332638 -0.0766697 -0.00195333)
(-0.00283346 -0.0844911 -0.00213276)
(-0.00226984 -0.0902397 -0.00227119)
(-0.00165818 -0.0940133 -0.00238496)
(-0.0010164 -0.0959078 -0.00248781)
(-0.000357982 -0.0959708 -0.00259133)
(0.000305864 -0.0941626 -0.00270649)
(0.000959946 -0.0903477 -0.00284348)
(0.00158444 -0.0843502 -0.00300852)
(0.00215566 -0.07606 -0.00320046)
(0.00264556 -0.0654965 -0.00340946)
(0.0030259 -0.0527868 -0.00361506)
(0.0032676 -0.0381352 -0.00377643)
(0.00334251 -0.0217986 -0.00381107)
(0.00322633 -0.00404873 -0.00357338)
(0.00290714 0.0148563 -0.00285619)
(0.0023956 0.0346812 -0.00145475)
(0.00173818 0.0549673 0.000661955)
(0.00104498 0.074163 0.00306851)
(0.00047567 0.0883892 0.00476016)
(0.000117867 0.0926692 0.00489656)
(-3.99226e-05 0.0820612 0.00348729)
(-2.17444e-05 0.0424404 0.00096587)
(-0.000288791 0.060721 0.00532308)
(-0.00155537 0.113575 0.011539)
(-0.00287461 0.120905 0.0138689)
(-0.00388927 0.102793 0.0131965)
(-0.00479327 0.0706267 0.00932717)
(-0.00569966 0.0405413 0.00459979)
(-0.00661477 0.0160774 0.00113303)
(-0.00736431 -0.00469127 -0.000889706)
(-0.00788406 -0.0233056 -0.00196649)
(-0.00816767 -0.040145 -0.00251352)
(-0.00822035 -0.0550838 -0.00277841)
(-0.00807179 -0.067916 -0.00289721)
(-0.00775756 -0.0785097 -0.00294305)
(-0.00731226 -0.0868366 -0.00295475)
(-0.0067675 -0.0929635 -0.00295138)
(-0.00615015 -0.0970163 -0.00294218)
(-0.00548038 -0.0991099 -0.00293583)
(-0.00477294 -0.0992958 -0.00294112)
(-0.00403838 -0.0975223 -0.00296742)
(-0.00328562 -0.0936292 -0.00302337)
(-0.00252764 -0.0874117 -0.00311415)
(-0.00178494 -0.0787355 -0.00323948)
(-0.00108287 -0.0676015 -0.00339428)
(-0.000449052 -0.054125 -0.00356799)
(8.58071e-05 -0.0385133 -0.00373565)
(0.000488502 -0.0210633 -0.00383661)
(0.00072726 -0.00214764 -0.00375108)
(0.00078671 0.0177893 -0.00329888)
(0.000674206 0.0382367 -0.00230001)