/*--------------------------------*- C++ -*----------------------------------*\
| =========                 |                                                 |
| \\      /  F ield         | OpenFOAM: The Open Source CFD Toolbox           |
|  \\    /   O peration     | Version:  v1906                                 |
|   \\  /    A nd           | Web:      www.OpenFOAM.com                      |
|    \\/     M anipulation  |                                                 |
\*---------------------------------------------------------------------------*/
FoamFile
{
    version     2.0;
    format      ascii;
    class       volScalarField;
    location    "28";
    object      alphat;
}
// * * * * * * * * * * * * * * * * * * * * * * * * * * * * * * * * * * * * * //

dimensions      [1 -1 -1 0 0 0 0];


internalField   nonuniform List<scalar> 
78750
(
2.38318e-07
7.40339e-06
7.55939e-06
7.46473e-06
7.20571e-06
6.88694e-06
6.56643e-06
6.26718e-06
5.99482e-06
5.74862e-06
5.5261e-06
5.32504e-06
5.1434e-06
4.9792e-06
4.8305e-06
4.69534e-06
4.57175e-06
4.45756e-06
4.35059e-06
4.24827e-06
4.14784e-06
4.0458e-06
3.93831e-06
3.82175e-06
3.69108e-06
3.54004e-06
3.36277e-06
3.15184e-06
2.89845e-06
2.59351e-06
2.22781e-06
1.78905e-06
1.27642e-06
7.5338e-07
1.18318e-08
3.78278e-08
4.84702e-06
9.88964e-06
1.68617e-05
2.18927e-05
2.43611e-05
2.63045e-05
2.78808e-05
2.88048e-05
2.9249e-05
2.94564e-05
2.94992e-05
2.93766e-05
2.9118e-05
2.87824e-05
2.84169e-05
2.8067e-05
2.77561e-05
2.75102e-05
2.73671e-05
2.73734e-05
2.74784e-05
2.76018e-05
2.76852e-05
2.76211e-05
2.72338e-05
2.62211e-05
2.41064e-05
2.04701e-05
1.56585e-05
1.09972e-05
7.76113e-06
6.5336e-06
5.18416e-06
3.05983e-08
5.37594e-08
5.40546e-06
9.25237e-06
9.84248e-06
1.01452e-05
1.10835e-05
1.30609e-05
1.67206e-05
2.12524e-05
2.11678e-05
2.11594e-05
2.12075e-05
2.1297e-05
2.14213e-05
2.15745e-05
2.17508e-05
2.19453e-05
2.21535e-05
2.2371e-05
2.25932e-05
2.28148e-05
2.30211e-05
2.32003e-05
2.33387e-05
2.34178e-05
2.34123e-05
2.32882e-05
2.21016e-05
1.75581e-05
1.34342e-05
1.03477e-05
8.76747e-06
9.58477e-06
4.39529e-06
4.021e-08
4.045e-08
5.92556e-06
1.51255e-05
1.27084e-05
1.11839e-05
1.11267e-05
1.31039e-05
1.8402e-05
1.82291e-05
1.78324e-05
1.74855e-05
1.71998e-05
1.69837e-05
1.68467e-05
1.67936e-05
1.68168e-05
1.6909e-05
1.70632e-05
1.72731e-05
1.75331e-05
1.78371e-05
1.81772e-05
1.8547e-05
1.89383e-05
1.93259e-05
1.96779e-05
1.99503e-05
1.72432e-05
1.32049e-05
1.00996e-05
8.06753e-06
7.47055e-06
9.77587e-06
4.24938e-06
4.60335e-08
3.43348e-08
3.63921e-06
1.44472e-05
1.56996e-05
1.31513e-05
1.17179e-05
1.12335e-05
1.15307e-05
1.27096e-05
1.38318e-05
1.2832e-05
1.19442e-05
1.1219e-05
1.06721e-05
1.03077e-05
1.01061e-05
1.00479e-05
1.01185e-05
1.03102e-05
1.06224e-05
1.10604e-05
1.1634e-05
1.23521e-05
1.32192e-05
1.4198e-05
1.4641e-05
1.24518e-05
1.07038e-05
9.29716e-06
8.151e-06
7.52028e-06
8.15569e-06
1.22013e-05
3.41738e-06
5.19125e-08
2.42e-08
3.01465e-06
1.21749e-05
1.39389e-05
1.19829e-05
9.65438e-06
8.33394e-06
7.58008e-06
7.14395e-06
6.97136e-06
7.14458e-06
7.68925e-06
7.34755e-06
6.77138e-06
6.36182e-06
6.07628e-06
5.87111e-06
5.7104e-06
5.57116e-06
5.44722e-06
5.35326e-06
5.32939e-06
5.44347e-06
5.78499e-06
6.21799e-06
5.53977e-06
5.20644e-06
5.13488e-06
5.13964e-06
5.13672e-06
5.31224e-06
6.42269e-06
1.11575e-05
3.20868e-06
5.44538e-08
1.94387e-08
2.48519e-06
1.0367e-05
1.20065e-05
1.1688e-05
8.84593e-06
6.89533e-06
5.56152e-06
4.65404e-06
4.12497e-06
3.99255e-06
4.28498e-06
4.97214e-06
5.84565e-06
6.25962e-06
6.70901e-06
7.10187e-06
7.3781e-06
7.4991e-06
7.44e-06
7.18646e-06
6.7376e-06
6.11736e-06
5.08535e-06
3.75298e-06
2.80936e-06
2.41699e-06
2.51317e-06
2.91324e-06
3.4622e-06
4.20315e-06
5.79588e-06
1.06248e-05
2.79573e-06
5.99109e-08
1.62766e-08
2.17458e-06
8.76109e-06
1.00323e-05
8.22632e-06
5.64802e-06
4.14648e-06
3.2823e-06
2.88096e-06
2.93076e-06
3.45551e-06
4.44022e-06
5.8298e-06
7.55326e-06
9.46341e-06
1.04842e-05
1.11072e-05
1.15467e-05
1.17922e-05
1.18313e-05
1.16458e-05
1.12132e-05
1.05112e-05
8.1038e-06
5.69071e-06
3.71401e-06
2.36009e-06
1.71238e-06
1.68557e-06
2.08425e-06
2.82139e-06
4.34756e-06
9.03734e-06
2.53296e-06
6.39909e-08
1.46741e-08
1.82944e-06
7.11252e-06
8.46272e-06
6.25055e-06
4.17737e-06
3.06929e-06
2.55173e-06
2.51678e-06
2.96794e-06
3.91134e-06
5.33322e-06
7.23131e-06
9.55791e-06
1.11367e-05
1.18736e-05
1.24574e-05
1.28888e-05
1.31653e-05
1.32775e-05
1.32074e-05
1.29279e-05
1.2405e-05
1.05005e-05
7.3754e-06
4.79828e-06
2.93004e-06
1.8064e-06
1.37797e-06
1.51374e-06
2.12498e-06
3.57021e-06
7.94552e-06
2.24796e-06
6.81071e-08
1.33027e-08
1.61201e-06
6.27856e-06
7.21115e-06
4.63351e-06
3.08135e-06
2.37924e-06
2.20614e-06
2.49463e-06
3.24522e-06
4.44707e-06
6.07233e-06
8.09634e-06
1.04482e-05
1.22238e-05
1.29314e-05
1.35061e-05
1.39493e-05
1.42583e-05
1.44242e-05
1.44308e-05
1.42541e-05
1.38624e-05
1.1342e-05
8.30685e-06
5.66716e-06
3.58678e-06
2.16756e-06
1.42083e-06
1.2597e-06
1.61974e-06
2.78365e-06
6.87685e-06
2.06863e-06
7.06192e-08
1.22035e-08
1.44396e-06
5.63017e-06
6.46506e-06
4.14587e-06
2.80578e-06
2.26901e-06
2.22249e-06
2.60012e-06
3.39845e-06
4.60424e-06
6.20174e-06
8.19529e-06
1.05601e-05
1.25096e-05
1.32499e-05
1.38658e-05
1.43551e-05
1.47129e-05
1.493e-05
1.49917e-05
1.4877e-05
1.43574e-05
1.13333e-05
8.42604e-06
5.92851e-06
3.9075e-06
2.44503e-06
1.57733e-06
1.24898e-06
1.43034e-06
2.39503e-06
6.25411e-06
1.92697e-06
7.31067e-08
1.0688e-08
1.35644e-06
5.26681e-06
5.98054e-06
3.97085e-06
2.70938e-06
2.23065e-06
2.20571e-06
2.57132e-06
3.32789e-06
4.47667e-06
6.02379e-06
7.98289e-06
1.03602e-05
1.29886e-05
1.39484e-05
1.46579e-05
1.52269e-05
1.56486e-05
1.5913e-05
1.60067e-05
1.59125e-05
1.42139e-05
1.13073e-05
8.53382e-06
6.1188e-06
4.14438e-06
2.67523e-06
1.74897e-06
1.3174e-06
1.35974e-06
2.13479e-06
5.81144e-06
1.86552e-06
7.54129e-08
8.94795e-09
1.31086e-06
4.86746e-06
5.64448e-06
4.2225e-06
2.87046e-06
2.32222e-06
2.22384e-06
2.51034e-06
3.19121e-06
4.28328e-06
5.80588e-06
7.77808e-06
1.02159e-05
1.30274e-05
1.48854e-05
1.57203e-05
1.63959e-05
1.69021e-05
1.72251e-05
1.73484e-05
1.7253e-05
1.49622e-05
1.17591e-05
8.79765e-06
6.28227e-06
4.27165e-06
2.79792e-06
1.86804e-06
1.40962e-06
1.39505e-06
2.09035e-06
5.74024e-06
1.83544e-06
7.88516e-08
7.46498e-09
1.33308e-06
4.52006e-06
5.32135e-06
4.15116e-06
2.84695e-06
2.32624e-06
2.27235e-06
2.63358e-06
3.40967e-06
4.60616e-06
6.22238e-06
8.2558e-06
1.07148e-05
1.35858e-05
1.63797e-05
1.72947e-05
1.80521e-05
1.8637e-05
1.90298e-05
1.92065e-05
1.91408e-05
1.65768e-05
1.29072e-05
9.54077e-06
6.7371e-06
4.54349e-06
2.96563e-06
1.98448e-06
1.49789e-06
1.45313e-06
2.1138e-06
5.81907e-06
1.83441e-06
8.27824e-08
6.70505e-09
1.34465e-06
4.25767e-06
5.05816e-06
4.01097e-06
2.83497e-06
2.42331e-06
2.49483e-06
2.99411e-06
3.89218e-06
5.16448e-06
6.79207e-06
8.78567e-06
1.12002e-05
1.40949e-05
1.72996e-05
1.83386e-05
1.91722e-05
1.98469e-05
2.03364e-05
2.06085e-05
2.0627e-05
1.8312e-05
1.40653e-05
1.02293e-05
7.13316e-06
4.76972e-06
3.10226e-06
2.08583e-06
1.58876e-06
1.54585e-06
2.24283e-06
6.14809e-06
1.82558e-06
8.65651e-08
6.21638e-09
1.34033e-06
4.08894e-06
4.91587e-06
3.94941e-06
2.92033e-06
2.6275e-06
2.80015e-06
3.36684e-06
4.27354e-06
5.49227e-06
7.03319e-06
8.96293e-06
1.13913e-05
1.44016e-05
1.77375e-05
1.87816e-05
1.97055e-05
2.04863e-05
2.10952e-05
2.14955e-05
2.16453e-05
1.95042e-05
1.49379e-05
1.08073e-05
7.50709e-06
5.01135e-06
3.26199e-06
2.20294e-06
1.68744e-06
1.6463e-06
2.3945e-06
6.48173e-06
1.8177e-06
8.85694e-08
5.33936e-09
1.31401e-06
3.90127e-06
4.7807e-06
4.42947e-06
3.25649e-06
2.86745e-06
2.92635e-06
3.34263e-06
4.06311e-06
5.0914e-06
6.48168e-06
8.33623e-06
1.07936e-05
1.39558e-05
1.74087e-05
1.85506e-05
1.95754e-05
2.04642e-05
2.11922e-05
2.17247e-05
2.202e-05
1.98462e-05
1.52872e-05
1.11536e-05
7.81947e-06
5.27011e-06
3.46358e-06
2.36216e-06
1.81981e-06
1.77555e-06
2.5811e-06
6.76876e-06
1.81412e-06
8.91688e-08
4.13781e-09
1.34484e-06
3.61191e-06
4.52101e-06
4.98349e-06
3.60427e-06
3.04725e-06
2.94708e-06
3.20522e-06
3.78603e-06
4.71436e-06
6.05267e-06
7.8953e-06
1.03677e-05
1.35791e-05
1.73177e-05
1.85672e-05
1.96178e-05
2.05397e-05
2.13148e-05
2.19148e-05
2.23024e-05
1.9839e-05
1.5488e-05
1.15441e-05
8.28891e-06
5.71707e-06
3.83067e-06
2.63674e-06
2.01819e-06
1.92741e-06
2.7338e-06
6.99684e-06
1.84274e-06
8.96762e-08
3.33167e-09
1.42356e-06
3.31354e-06
4.2092e-06
4.80056e-06
3.69374e-06
3.10081e-06
2.98422e-06
3.25672e-06
3.88768e-06
4.89366e-06
6.31459e-06
8.21027e-06
1.06689e-05
1.37897e-05
1.7426e-05
1.87269e-05
1.97335e-05
2.06313e-05
2.14022e-05
2.20189e-05
2.24463e-05
1.94918e-05
1.52353e-05
1.15495e-05
8.53508e-06
6.10243e-06
4.24431e-06
3.0045e-06
2.31025e-06
2.15649e-06
2.94693e-06
7.33534e-06
1.90178e-06
9.13533e-08
2.99365e-09
1.461e-06
3.088e-06
3.95922e-06
4.5686e-06
3.58357e-06
3.10583e-06
3.11935e-06
3.53217e-06
4.30449e-06
5.42911e-06
6.91091e-06
8.77151e-06
1.10808e-05
1.39699e-05
1.73988e-05
1.87543e-05
1.97323e-05
2.06239e-05
2.14051e-05
2.20473e-05
2.25157e-05
1.88176e-05
1.46441e-05
1.12261e-05
8.49511e-06
6.2888e-06
4.56236e-06
3.36048e-06
2.63603e-06
2.439e-06
3.23321e-06
7.81752e-06
1.9857e-06
9.44161e-08
2.82572e-09
1.4499e-06
2.94218e-06
3.8112e-06
4.4661e-06
3.5523e-06
3.21373e-06
3.35769e-06
3.87457e-06
4.70695e-06
5.81994e-06
7.19095e-06
8.83588e-06
1.0855e-05
1.34471e-05
1.6697e-05
1.84223e-05
1.94105e-05
2.03198e-05
2.11236e-05
2.17939e-05
2.20378e-05
1.7628e-05
1.36188e-05
1.05243e-05
8.12403e-06
6.21039e-06
4.71025e-06
3.63438e-06
2.95066e-06
2.75886e-06
3.61007e-06
8.38192e-06
2.06509e-06
9.86835e-08
2.60743e-09
1.45923e-06
2.83769e-06
3.7183e-06
4.41847e-06
3.61926e-06
3.3543e-06
3.5506e-06
4.07467e-06
4.85393e-06
5.83989e-06
7.00973e-06
8.39632e-06
1.01252e-05
1.24297e-05
1.55075e-05
1.79457e-05
1.89529e-05
1.98779e-05
2.06939e-05
2.13744e-05
2.07173e-05
1.62148e-05
1.2414e-05
9.61754e-06
7.52255e-06
5.89776e-06
4.65538e-06
3.76215e-06
3.18669e-06
3.06592e-06
4.05599e-06
8.95996e-06
2.12929e-06
1.04041e-07
2.28026e-09
1.50252e-06
2.72151e-06
3.60422e-06
4.32234e-06
3.80942e-06
3.52424e-06
3.67308e-06
4.10775e-06
4.74513e-06
5.53544e-06
6.46491e-06
7.57819e-06
9.00577e-06
1.09883e-05
1.38374e-05
1.72702e-05
1.83119e-05
1.92599e-05
2.00874e-05
2.07688e-05
1.9312e-05
1.47273e-05
1.11362e-05
8.61742e-06
6.79541e-06
5.43405e-06
4.44821e-06
3.7629e-06
3.34014e-06
3.34189e-06
4.53125e-06
9.32111e-06
2.15949e-06
1.09427e-07
1.90075e-09
1.51108e-06
2.5754e-06
3.44533e-06
4.16198e-06
4.0417e-06
3.69992e-06
3.75577e-06
4.06536e-06
4.54337e-06
5.14566e-06
5.86829e-06
6.76161e-06
7.95123e-06
9.667e-06
1.2256e-05
1.59116e-05
1.77778e-05
1.87463e-05
1.95776e-05
2.02466e-05
1.80295e-05
1.34202e-05
1.00357e-05
7.74609e-06
6.12668e-06
4.95167e-06
4.15696e-06
3.65075e-06
3.39436e-06
3.56286e-06
5.01523e-06
9.4405e-06
2.17344e-06
1.14926e-07
1.5595e-09
1.39939e-06
2.41915e-06
3.26658e-06
3.97398e-06
4.31019e-06
3.90515e-06
3.85813e-06
4.03868e-06
4.36234e-06
4.79065e-06
5.32795e-06
6.03038e-06
7.02197e-06
8.52361e-06
1.08841e-05
1.4409e-05
1.72295e-05
1.82275e-05
1.90698e-05
1.97295e-05
1.6749e-05
1.22111e-05
9.07008e-06
7.01403e-06
5.58332e-06
4.55671e-06
3.8917e-06
3.50247e-06
3.36939e-06
3.68474e-06
5.377e-06
9.29404e-06
2.1689e-06
1.19926e-07
1.27052e-09
1.2973e-06
2.27156e-06
3.09117e-06
3.78122e-06
4.38662e-06
4.06606e-06
3.91812e-06
3.96579e-06
4.1361e-06
4.40116e-06
4.7789e-06
5.33804e-06
6.20937e-06
7.6134e-06
9.89769e-06
1.34019e-05
1.67256e-05
1.77715e-05
1.86326e-05
1.92808e-05
1.54736e-05
1.11112e-05
8.21125e-06
6.37374e-06
5.13204e-06
4.2481e-06
3.6813e-06
3.3625e-06
3.30679e-06
3.73339e-06
5.6235e-06
9.11825e-06
2.16903e-06
1.25424e-07
9.78042e-10
1.18915e-06
2.10879e-06
2.88527e-06
3.53626e-06
4.09788e-06
4.0411e-06
3.80082e-06
3.70897e-06
3.72664e-06
3.85185e-06
4.12683e-06
4.63726e-06
5.52251e-06
7.01033e-06
9.45787e-06
1.3164e-05
1.63819e-05
1.74712e-05
1.83375e-05
1.89528e-05
1.44139e-05
1.02695e-05
7.51405e-06
5.81254e-06
4.73789e-06
4.01708e-06
3.55719e-06
3.28177e-06
3.24473e-06
3.70602e-06
5.68278e-06
9.00302e-06
2.17266e-06
1.31397e-07
7.06023e-10
1.0612e-06
1.9055e-06
2.61577e-06
3.20471e-06
3.70644e-06
3.62949e-06
3.31966e-06
3.13634e-06
3.08698e-06
3.20304e-06
3.54378e-06
4.20043e-06
5.32148e-06
7.16184e-06
1.00938e-05
1.42039e-05
1.65334e-05
1.75541e-05
1.83369e-05
1.76884e-05
1.35415e-05
9.73081e-06
7.02838e-06
5.33494e-06
4.34037e-06
3.7695e-06
3.45768e-06
3.26884e-06
3.26045e-06
3.7381e-06
5.7795e-06
9.02378e-06
2.19101e-06
1.38721e-07
6.81065e-10
9.47936e-07
1.70907e-06
2.3524e-06
2.88615e-06
3.30207e-06
2.87085e-06
2.58743e-06
2.47881e-06
2.56888e-06
2.8924e-06
3.50421e-06
4.50068e-06
6.05465e-06
8.43828e-06
1.18757e-05
1.5886e-05
1.69228e-05
1.76668e-05
1.82296e-05
1.57899e-05
1.23698e-05
9.14161e-06
6.62894e-06
4.95114e-06
3.98182e-06
3.51436e-06
3.34933e-06
3.27831e-06
3.32236e-06
3.81922e-06
5.92627e-06
9.06205e-06
2.2053e-06
1.46328e-07
8.18046e-10
9.08169e-07
1.62951e-06
2.24767e-06
2.77687e-06
2.433e-06
2.18981e-06
2.14127e-06
2.30688e-06
2.7017e-06
3.35458e-06
4.32106e-06
5.69543e-06
7.60716e-06
1.01327e-05
1.30354e-05
1.55681e-05
1.65029e-05
1.64734e-05
1.48283e-05
1.2516e-05
1.00481e-05
7.73714e-06
5.79007e-06
4.36806e-06
3.52061e-06
3.18179e-06
3.18783e-06
3.2984e-06
3.47992e-06
4.08929e-06
6.4217e-06
8.99803e-06
2.21657e-06
1.53349e-07
9.88235e-10
9.44094e-07
1.70253e-06
2.19547e-06
2.09237e-06
2.00787e-06
2.07624e-06
2.33445e-06
2.79333e-06
3.45905e-06
4.33639e-06
5.42646e-06
6.71989e-06
8.17925e-06
9.70159e-06
1.10681e-05
1.1937e-05
1.19584e-05
1.10345e-05
9.51479e-06
7.93472e-06
6.5814e-06
5.43019e-06
4.39256e-06
3.51607e-06
2.94278e-06
2.76836e-06
2.93132e-06
3.22979e-06
3.60038e-06
4.40371e-06
7.07352e-06
8.72931e-06
2.21101e-06
1.58315e-07
1.30758e-09
9.99801e-07
1.65052e-06
1.85459e-06
1.9408e-06
2.10076e-06
2.39781e-06
2.83965e-06
3.40626e-06
4.06894e-06
4.81924e-06
5.68466e-06
6.70276e-06
7.86375e-06
9.04944e-06
1.00017e-05
1.03666e-05
9.82839e-06
8.35165e-06
6.41409e-06
4.70872e-06
3.58055e-06
2.96836e-06
2.63288e-06
2.37671e-06
2.20233e-06
2.25442e-06
2.58687e-06
3.08677e-06
3.6984e-06
4.78777e-06
7.91269e-06
8.37029e-06
2.20834e-06
1.61801e-07
1.90616e-09
1.15099e-06
1.74042e-06
1.90998e-06
2.06952e-06
2.30785e-06
2.6286e-06
3.02014e-06
3.50687e-06
4.17739e-06
5.1565e-06
6.55517e-06
8.41691e-06
1.06298e-05
1.28417e-05
1.45147e-05
1.51157e-05
1.42557e-05
1.18499e-05
8.49285e-06
5.31798e-06
3.05806e-06
1.78908e-06
1.29285e-06
1.24865e-06
1.38104e-06
1.64016e-06
2.10335e-06
2.75953e-06
3.60044e-06
4.99334e-06
8.52243e-06
8.0312e-06
2.2055e-06
1.63839e-07
2.37331e-09
1.42229e-06
1.99895e-06
2.02416e-06
2.11418e-06
2.28561e-06
2.54841e-06
2.97184e-06
3.67711e-06
4.81003e-06
6.54329e-06
9.07912e-06
1.25437e-05
1.66983e-05
2.07474e-05
2.37364e-05
2.50568e-05
2.43579e-05
2.13512e-05
1.62399e-05
1.04972e-05
5.8519e-06
2.83135e-06
1.19158e-06
5.80873e-07
6.2342e-07
9.76429e-07
1.52107e-06
2.26399e-06
3.26781e-06
4.90788e-06
8.73084e-06
7.85049e-06
2.22058e-06
1.65919e-07
1.95956e-09
1.43719e-06
2.08626e-06
1.97725e-06
1.9964e-06
2.14905e-06
2.47052e-06
3.04748e-06
3.99548e-06
5.47342e-06
7.73493e-06
1.11602e-05
1.61035e-05
2.23058e-05
2.84145e-05
3.2962e-05
3.54303e-05
3.58106e-05
3.39309e-05
2.91512e-05
2.13931e-05
1.3106e-05
6.93762e-06
3.16794e-06
1.13896e-06
3.52423e-07
3.96537e-07
8.781e-07
1.60704e-06
2.6328e-06
4.34124e-06
8.23135e-06
7.88049e-06
2.25403e-06
1.69744e-07
1.09763e-09
1.20198e-06
1.73382e-06
1.73229e-06
1.81878e-06
2.05462e-06
2.49002e-06
3.19783e-06
4.28069e-06
5.902e-06
8.33936e-06
1.20172e-05
1.73189e-05
2.38573e-05
2.99967e-05
3.42369e-05
3.62988e-05
3.65304e-05
3.5396e-05
3.30886e-05
2.9117e-05
2.26194e-05
1.45386e-05
7.84966e-06
3.64887e-06
1.34882e-06
3.9995e-07
4.05984e-07
9.5635e-07
1.87151e-06
3.42768e-06
7.02909e-06
8.1046e-06
2.30058e-06
1.80173e-07
8.39359e-10
9.69249e-07
1.36302e-06
1.569e-06
1.83416e-06
2.25689e-06
2.90299e-06
3.85215e-06
5.22976e-06
7.23763e-06
1.01585e-05
1.42082e-05
1.90889e-05
2.3769e-05
2.73418e-05
2.96434e-05
3.07913e-05
3.08011e-05
2.95894e-05
2.70629e-05
2.33853e-05
1.92174e-05
1.51313e-05
1.10592e-05
6.9853e-06
3.65401e-06
1.54047e-06
6.08258e-07
6.10397e-07
1.22951e-06
2.48677e-06
5.49286e-06
8.45222e-06
2.35246e-06
1.98949e-07
1.07695e-09
8.15862e-07
1.32322e-06
1.75296e-06
2.25921e-06
2.94204e-06
3.89143e-06
5.23535e-06
7.1738e-06
9.96515e-06
1.37369e-05
1.80732e-05
2.20479e-05
2.51195e-05
2.7392e-05
2.90719e-05
3.01989e-05
3.06415e-05
3.01482e-05
2.82537e-05
2.42799e-05
1.85076e-05
1.29498e-05
9.07759e-06
6.62763e-06
4.69284e-06
2.8619e-06
1.48344e-06
8.89116e-07
1.0434e-06
1.91948e-06
4.33118e-06
8.71337e-06
2.38317e-06
2.21853e-07
1.64336e-09
9.25929e-07
1.58625e-06
2.2206e-06
2.94901e-06
3.88598e-06
5.173e-06
7.01147e-06
9.63265e-06
1.30782e-05
1.6879e-05
2.03347e-05
2.32176e-05
2.571e-05
2.79783e-05
3.0035e-05
3.17546e-05
3.28844e-05
3.30672e-05
3.17407e-05
2.79434e-05
2.13471e-05
1.42452e-05
9.14923e-06
6.18738e-06
4.48841e-06
3.26434e-06
2.19823e-06
1.46112e-06
1.28899e-06
1.84775e-06
3.92595e-06
8.92201e-06
2.38533e-06
2.39267e-07
2.7509e-09
1.1138e-06
1.92092e-06
2.68871e-06
3.55962e-06
4.68552e-06
6.25309e-06
8.45597e-06
1.13171e-05
1.44973e-05
1.75614e-05
2.03994e-05
2.31336e-05
2.58553e-05
2.8546e-05
3.11008e-05
3.33369e-05
3.49601e-05
3.55001e-05
3.412e-05
2.93763e-05
2.11642e-05
1.33074e-05
8.37721e-06
5.77603e-06
4.40769e-06
3.53871e-06
2.78905e-06
2.11778e-06
1.80373e-06
2.19121e-06
4.29264e-06
8.94072e-06
2.34634e-06
2.42283e-07
4.49879e-09
1.19393e-06
2.09558e-06
2.9312e-06
3.86795e-06
5.08759e-06
6.76667e-06
8.99377e-06
1.16686e-05
1.45875e-05
1.76254e-05
2.07366e-05
2.38666e-05
2.6931e-05
2.984e-05
3.25025e-05
3.47852e-05
3.64362e-05
3.69365e-05
3.51679e-05
2.91002e-05
1.92308e-05
1.10983e-05
6.7229e-06
4.792e-06
4.06567e-06
3.7729e-06
3.42086e-06
2.88749e-06
2.53025e-06
2.92843e-06
5.55178e-06
8.24448e-06
2.26903e-06
2.26273e-07
6.38834e-09
1.10172e-06
2.01883e-06
2.91118e-06
3.93465e-06
5.27915e-06
7.09228e-06
9.40728e-06
1.21473e-05
1.51968e-05
1.8428e-05
2.17122e-05
2.49344e-05
2.80008e-05
3.08334e-05
3.33528e-05
3.5434e-05
3.68325e-05
3.70122e-05
3.47265e-05
2.78462e-05
1.75568e-05
9.66615e-06
5.63778e-06
4.05681e-06
3.77585e-06
4.01738e-06
4.08228e-06
3.76311e-06
3.50216e-06
4.12467e-06
7.77103e-06
7.20109e-06
2.18277e-06
1.99836e-07
7.83696e-09
9.75415e-07
1.89941e-06
2.94181e-06
4.22676e-06
5.8909e-06
7.98217e-06
1.04464e-05
1.31926e-05
1.61493e-05
1.92644e-05
2.24649e-05
2.56382e-05
2.86552e-05
3.13977e-05
3.37571e-05
3.5597e-05
3.66803e-05
3.65239e-05
3.40296e-05
2.73746e-05
1.74474e-05
9.43096e-06
5.16784e-06
3.48808e-06
3.33172e-06
3.97223e-06
4.53931e-06
4.6104e-06
4.62867e-06
5.68712e-06
1.01896e-05
6.64287e-06
2.14047e-06
1.78653e-07
8.61758e-09
9.45749e-07
1.94932e-06
3.20928e-06
4.77035e-06
6.63934e-06
8.77078e-06
1.11294e-05
1.37347e-05
1.66232e-05
1.97708e-05
2.30595e-05
2.63135e-05
2.93583e-05
3.20496e-05
3.42633e-05
3.58619e-05
3.66388e-05
3.62207e-05
3.38308e-05
2.81206e-05
1.90997e-05
1.06076e-05
5.47323e-06
3.18474e-06
2.70277e-06
3.40832e-06
4.48968e-06
5.21779e-06
5.756e-06
7.34562e-06
1.19056e-05
6.61044e-06
2.16294e-06
1.69997e-07
8.72256e-09
9.79481e-07
2.05714e-06
3.4068e-06
4.99563e-06
6.78858e-06
8.78949e-06
1.10572e-05
1.36719e-05
1.66693e-05
1.99837e-05
2.34458e-05
2.68413e-05
2.9976e-05
3.27001e-05
3.48948e-05
3.64448e-05
3.71949e-05
3.68934e-05
3.50523e-05
3.06805e-05
2.29655e-05
1.38739e-05
7.11797e-06
3.58174e-06
2.3114e-06
2.56159e-06
3.73609e-06
5.13452e-06
6.43532e-06
8.60059e-06
1.29041e-05
6.97883e-06
2.24858e-06
1.72965e-07
8.45488e-09
9.95554e-07
2.07662e-06
3.39005e-06
4.90284e-06
6.61735e-06
8.57658e-06
1.08482e-05
1.34958e-05
1.6535e-05
1.98926e-05
2.3406e-05
2.68672e-05
3.00756e-05
3.28651e-05
3.51048e-05
3.6689e-05
3.75126e-05
3.74322e-05
3.61449e-05
3.29685e-05
2.69747e-05
1.84464e-05
1.02975e-05
5.03352e-06
2.54791e-06
1.95683e-06
2.66609e-06
4.20669e-06
6.19186e-06
9.03373e-06
1.33831e-05
7.45442e-06
2.3562e-06
1.83809e-07
8.1647e-09
9.96005e-07
2.07132e-06
3.37208e-06
4.87785e-06
6.59841e-06
8.56554e-06
1.08225e-05
1.34113e-05
1.6344e-05
1.95696e-05
2.29652e-05
2.63592e-05
2.95669e-05
3.24144e-05
3.47469e-05
3.64298e-05
3.73556e-05
3.74219e-05
3.64462e-05
3.40064e-05
2.9401e-05
2.22685e-05
1.40375e-05
7.41014e-06
3.55918e-06
1.96259e-06
1.93989e-06
3.04079e-06
5.06853e-06
8.32219e-06
1.32641e-05
7.89792e-06
2.45724e-06
1.98427e-07
8.14621e-09
1.03876e-06
2.14711e-06
3.4664e-06
4.97063e-06
6.65954e-06
8.55517e-06
1.0704e-05
1.31688e-05
1.59873e-05
1.91238e-05
2.24595e-05
2.58234e-05
2.90361e-05
3.19339e-05
3.43717e-05
3.62151e-05
3.73477e-05
3.7652e-05
3.69337e-05
3.4854e-05
3.0896e-05
2.46749e-05
1.69256e-05
9.77377e-06
4.91437e-06
2.4256e-06
1.70141e-06
2.22433e-06
3.85472e-06
7.01299e-06
1.26232e-05
8.14291e-06
2.5164e-06
2.11867e-07
8.19922e-09
1.07573e-06
2.17983e-06
3.43572e-06
4.82126e-06
6.35408e-06
8.08805e-06
1.01111e-05
1.25203e-05
1.53637e-05
1.85913e-05
2.20579e-05
2.55708e-05
2.89425e-05
3.2012e-05
3.4643e-05
3.67123e-05
3.81172e-05
3.87536e-05
3.8445e-05
3.68682e-05
3.35218e-05
2.7879e-05
2.02153e-05
1.23815e-05
6.49552e-06
3.14614e-06
1.78814e-06
1.78765e-06
2.92979e-06
5.65517e-06
1.1581e-05
8.26382e-06
2.5417e-06
2.21204e-07
8.20031e-09
1.0368e-06
2.06324e-06
3.20379e-06
4.47105e-06
5.92654e-06
7.65675e-06
9.75753e-06
1.23085e-05
1.53246e-05
1.87218e-05
2.23338e-05
2.59686e-05
2.94539e-05
3.2643e-05
3.54089e-05
3.76394e-05
3.92349e-05
4.007e-05
3.99656e-05
3.86717e-05
3.58e-05
3.08442e-05
2.36672e-05
1.54677e-05
8.51609e-06
4.14472e-06
2.09521e-06
1.61472e-06
2.32388e-06
4.57103e-06
1.0385e-05
8.25171e-06
2.53538e-06
2.25703e-07
8.14306e-09
9.62438e-07
1.91509e-06
3.01424e-06
4.30513e-06
5.86004e-06
7.74966e-06
1.00364e-05
1.27601e-05
1.58995e-05
1.93503e-05
2.29509e-05
2.65343e-05
2.99606e-05
3.31103e-05
3.58751e-05
3.81562e-05
3.98611e-05
4.08497e-05
4.09263e-05
3.98557e-05
3.73695e-05
3.31053e-05
2.67793e-05
1.88713e-05
1.11869e-05
5.66366e-06
2.72015e-06
1.67362e-06
1.94095e-06
3.69955e-06
9.04272e-06
8.30046e-06
2.53008e-06
2.2804e-07
8.17732e-09
9.22274e-07
1.85582e-06
2.99014e-06
4.3741e-06
6.05557e-06
8.07237e-06
1.04615e-05
1.32447e-05
1.63891e-05
1.97905e-05
2.33009e-05
2.67732e-05
3.00843e-05
3.31282e-05
3.58075e-05
3.80342e-05
3.97224e-05
4.07356e-05
4.08778e-05
3.99213e-05
3.76605e-05
3.39349e-05
2.85741e-05
2.16615e-05
1.4126e-05
7.76632e-06
3.80831e-06
2.04506e-06
1.78779e-06
3.0022e-06
7.51223e-06
8.49208e-06
2.53254e-06
2.3101e-07
8.2752e-09
9.10267e-07
1.84788e-06
3.02084e-06
4.46835e-06
6.21601e-06
8.28385e-06
1.07016e-05
1.34916e-05
1.66261e-05
2.00061e-05
2.34867e-05
2.69204e-05
3.01824e-05
3.31672e-05
3.57819e-05
3.79481e-05
3.95954e-05
4.06048e-05
4.08037e-05
3.99815e-05
3.79445e-05
3.45763e-05
2.98567e-05
2.38307e-05
1.69035e-05
1.02659e-05
5.40817e-06
2.81428e-06
1.94602e-06
2.57749e-06
6.07089e-06
8.96783e-06
2.55703e-06
2.35994e-07
8.52319e-09
9.14923e-07
1.8688e-06
3.08489e-06
4.59615e-06
6.41241e-06
8.54001e-06
1.10048e-05
1.38288e-05
1.69753e-05
2.03317e-05
2.37448e-05
2.70691e-05
3.01864e-05
3.30005e-05
3.5429e-05
3.74092e-05
3.88911e-05
3.97775e-05
3.99357e-05
3.92017e-05
3.74253e-05
3.45128e-05
3.04448e-05
2.52749e-05
1.91904e-05
1.28133e-05
7.41642e-06
3.99812e-06
2.45562e-06
2.50668e-06
5.07461e-06
9.78295e-06
2.61138e-06
2.42851e-07
9.0125e-09
9.36217e-07
1.92145e-06
3.1929e-06
4.77508e-06
6.66205e-06
8.85071e-06
1.13633e-05
1.42125e-05
1.73465e-05
2.06422e-05
2.39447e-05
2.7113e-05
3.00367e-05
3.26307e-05
3.48268e-05
3.65793e-05
3.78522e-05
3.85526e-05
3.8568e-05
3.7766e-05
3.60497e-05
3.33965e-05
2.98494e-05
2.54652e-05
2.03219e-05
1.47118e-05
9.40286e-06
5.4503e-06
3.28105e-06
2.80439e-06
4.707e-06
1.08336e-05
2.70326e-06
2.49955e-07
9.72099e-09
9.56307e-07
1.97131e-06
3.29085e-06
4.92748e-06
6.86184e-06
9.08556e-06
1.1621e-05
1.44802e-05
1.76099e-05
2.08826e-05
2.41358e-05
2.72233e-05
3.00365e-05
3.24976e-05
3.45516e-05
3.61628e-05
3.72895e-05
3.7836e-05
3.7693e-05
3.67347e-05
3.48892e-05
3.21882e-05
2.87577e-05
2.47453e-05
2.02613e-05
1.54489e-05
1.07206e-05
6.75979e-06
4.22936e-06
3.37149e-06
4.92027e-06
1.18435e-05
2.8131e-06
2.55116e-07
1.0599e-08
9.76064e-07
2.02171e-06
3.38646e-06
5.06825e-06
7.03402e-06
9.27171e-06
1.18101e-05
1.46689e-05
1.77968e-05
2.10599e-05
2.42889e-05
2.73379e-05
3.01057e-05
3.25198e-05
3.45265e-05
3.60808e-05
3.71136e-05
3.75037e-05
3.71328e-05
3.58992e-05
3.37931e-05
3.09237e-05
2.74773e-05
2.36412e-05
1.95567e-05
1.53513e-05
1.12399e-05
7.62322e-06
5.0784e-06
4.07632e-06
5.5927e-06
1.25645e-05
2.89183e-06
2.56837e-07
1.15402e-08
9.91938e-07
2.05658e-06
3.44185e-06
5.1313e-06
7.08206e-06
9.28982e-06
1.18018e-05
1.46446e-05
1.77539e-05
2.09801e-05
2.41548e-05
2.71499e-05
2.98849e-05
3.22985e-05
3.43326e-05
3.59188e-05
3.69365e-05
3.72005e-05
3.65308e-05
3.48366e-05
3.22268e-05
2.89926e-05
2.54531e-05
2.18201e-05
1.81902e-05
1.46171e-05
1.11612e-05
8.04197e-06
5.74856e-06
4.86003e-06
6.68368e-06
1.27088e-05
2.91543e-06
2.5457e-07
1.22243e-08
9.71783e-07
2.01708e-06
3.38238e-06
5.04913e-06
6.98585e-06
9.20523e-06
1.17513e-05
1.46172e-05
1.76972e-05
2.08329e-05
2.38935e-05
2.68087e-05
2.95419e-05
3.20458e-05
3.42459e-05
3.60334e-05
3.72161e-05
3.75119e-05
3.66307e-05
3.44221e-05
3.10918e-05
2.71891e-05
2.32862e-05
1.9695e-05
1.64636e-05
1.35188e-05
1.07355e-05
8.19582e-06
6.29968e-06
5.71782e-06
8.11861e-06
1.21372e-05
2.88701e-06
2.50593e-07
1.28609e-08
9.45223e-07
1.98335e-06
3.37214e-06
5.10627e-06
7.16661e-06
9.54081e-06
1.21985e-05
1.50465e-05
1.79412e-05
2.07739e-05
2.35235e-05
2.62288e-05
2.89221e-05
3.15726e-05
3.40767e-05
3.62632e-05
3.78338e-05
3.8391e-05
3.75121e-05
3.49304e-05
3.08801e-05
2.6162e-05
2.16709e-05
1.79011e-05
1.4895e-05
1.24372e-05
1.02284e-05
8.23815e-06
6.79369e-06
6.64428e-06
9.79088e-06
1.13155e-05
2.84777e-06
2.4807e-07
1.38748e-08
9.65636e-07
2.06231e-06
3.56968e-06
5.49869e-06
7.82162e-06
1.04357e-05
1.31596e-05
1.58117e-05
1.8292e-05
2.06254e-05
2.29345e-05
2.53616e-05
2.79937e-05
3.08045e-05
3.36561e-05
3.63077e-05
3.83715e-05
3.93397e-05
3.86548e-05
3.59057e-05
3.12856e-05
2.57858e-05
2.06274e-05
1.65353e-05
1.35983e-05
1.14753e-05
9.73697e-06
8.24793e-06
7.26747e-06
7.61447e-06
1.14985e-05
1.0566e-05
2.81042e-06
2.48843e-07
1.55069e-08
1.04272e-06
2.25807e-06
3.95506e-06
6.16504e-06
8.8231e-06
1.16593e-05
1.43088e-05
1.65982e-05
1.85825e-05
2.04395e-05
2.23982e-05
2.46624e-05
2.73445e-05
3.0406e-05
3.36723e-05
3.68418e-05
3.94538e-05
4.09029e-05
4.05086e-05
3.77066e-05
3.25925e-05
2.62839e-05
2.03307e-05
1.57397e-05
1.2684e-05
1.0717e-05
9.3046e-06
8.21912e-06
7.66819e-06
8.52521e-06
1.29959e-05
1.00766e-05
2.79436e-06
2.53209e-07
1.79538e-08
1.1683e-06
2.54286e-06
4.47617e-06
7.01799e-06
1.00004e-05
1.2914e-05
1.53088e-05
1.71794e-05
1.87555e-05
2.03004e-05
2.20804e-05
2.43199e-05
2.71423e-05
3.05014e-05
3.42003e-05
3.79116e-05
4.11158e-05
4.31239e-05
4.31184e-05
4.03579e-05
3.47985e-05
2.76278e-05
2.07146e-05
1.54062e-05
1.2023e-05
1.00645e-05
8.89538e-06
8.16799e-06
8.02648e-06
9.38947e-06
1.42771e-05
9.68773e-06
2.78084e-06
2.59116e-07
2.08834e-08
1.30266e-06
2.83693e-06
5.00928e-06
7.84495e-06
1.09771e-05
1.37266e-05
1.58016e-05
1.73915e-05
1.87627e-05
2.01597e-05
2.18386e-05
2.40334e-05
2.68941e-05
3.03965e-05
3.435e-05
3.8434e-05
4.21267e-05
4.47111e-05
4.52791e-05
4.29111e-05
3.73378e-05
2.96399e-05
2.18655e-05
1.57151e-05
1.17567e-05
9.57079e-06
8.48186e-06
8.02671e-06
8.26074e-06
1.01142e-05
1.52864e-05
9.41421e-06
2.77752e-06
2.65427e-07
2.30197e-08
1.3865e-06
3.01607e-06
5.31806e-06
8.24746e-06
1.13205e-05
1.39078e-05
1.58415e-05
1.72984e-05
1.84845e-05
1.96285e-05
2.10176e-05
2.29405e-05
2.56114e-05
2.90698e-05
3.31515e-05
3.75245e-05
4.16748e-05
4.48587e-05
4.61146e-05
4.43901e-05
3.92055e-05
3.14478e-05
2.31783e-05
1.63422e-05
1.17718e-05
9.23471e-06
8.10241e-06
7.84104e-06
8.41894e-06
1.07497e-05
1.60783e-05
9.12285e-06
2.76641e-06
2.70068e-07
2.35255e-08
1.38965e-06
3.00544e-06
5.26963e-06
8.14615e-06
1.12255e-05
1.38731e-05
1.57728e-05
1.70089e-05
1.78048e-05
1.8468e-05
1.93743e-05
2.08781e-05
2.32424e-05
2.65635e-05
3.07223e-05
3.54063e-05
4.01284e-05
4.4132e-05
4.63974e-05
4.57164e-05
4.13229e-05
3.37971e-05
2.51391e-05
1.75479e-05
1.21949e-05
9.1082e-06
7.75871e-06
7.57962e-06
8.4479e-06
1.1208e-05
1.66076e-05
8.89254e-06
2.75822e-06
2.73883e-07
2.29087e-08
1.32877e-06
2.86735e-06
5.06176e-06
7.99095e-06
1.1325e-05
1.41994e-05
1.60266e-05
1.69195e-05
1.72669e-05
1.75181e-05
1.8106e-05
1.93695e-05
2.15404e-05
2.47181e-05
2.882e-05
3.35823e-05
3.85804e-05
4.31231e-05
4.62195e-05
4.66141e-05
4.32846e-05
3.64031e-05
2.76943e-05
1.94532e-05
1.32159e-05
9.37036e-06
7.57099e-06
7.28787e-06
8.33706e-06
1.14672e-05
1.69047e-05
8.68727e-06
2.74957e-06
2.77109e-07
2.29052e-08
1.28119e-06
2.80312e-06
5.08281e-06
8.32224e-06
1.21126e-05
1.51286e-05
1.66185e-05
1.69776e-05
1.68753e-05
1.69121e-05
1.7526e-05
1.89677e-05
2.13561e-05
2.47072e-05
2.89026e-05
3.36925e-05
3.87111e-05
4.33737e-05
4.68109e-05
4.78581e-05
4.53979e-05
3.92508e-05
3.07286e-05
2.20046e-05
1.48851e-05
1.01449e-05
7.68171e-06
7.05955e-06
8.08715e-06
1.14442e-05
1.69775e-05
8.5149e-06
2.73911e-06
2.79846e-07
2.48104e-08
1.32815e-06
2.97945e-06
5.57784e-06
9.36876e-06
1.35248e-05
1.61894e-05
1.69565e-05
1.66634e-05
1.61639e-05
1.60969e-05
1.68609e-05
1.86565e-05
2.15392e-05
2.5432e-05
3.01056e-05
3.52239e-05
4.0399e-05
4.51125e-05
4.86134e-05
4.98847e-05
4.79024e-05
4.23274e-05
3.40872e-05
2.50671e-05
1.71582e-05
1.14736e-05
8.20099e-06
7.03814e-06
7.82302e-06
1.12182e-05
1.69017e-05
8.33222e-06
2.71931e-06
2.8084e-07
2.79613e-08
1.45484e-06
3.31551e-06
6.31502e-06
1.06143e-05
1.47277e-05
1.66487e-05
1.66471e-05
1.58629e-05
1.51873e-05
1.51736e-05
1.61179e-05
1.81762e-05
2.14055e-05
2.57344e-05
3.09007e-05
3.64866e-05
4.20244e-05
4.69778e-05
5.0632e-05
5.20703e-05
5.04046e-05
4.52874e-05
3.74063e-05
2.83353e-05
1.98698e-05
1.33267e-05
9.19417e-06
7.35565e-06
7.71672e-06
1.09616e-05
1.68e-05
8.13301e-06
2.68581e-06
2.78572e-07
3.05481e-08
1.53955e-06