/*--------------------------------*- C++ -*----------------------------------*\
| =========                 |                                                 |
| \\      /  F ield         | OpenFOAM: The Open Source CFD Toolbox           |
|  \\    /   O peration     | Version:  v1906                                 |
|   \\  /    A nd           | Web:      www.OpenFOAM.com                      |
|    \\/     M anipulation  |                                                 |
\*---------------------------------------------------------------------------*/
FoamFile
{
    version     2.0;
    format      ascii;
    class       volScalarField;
    location    "28";
    object      nut;
}
// * * * * * * * * * * * * * * * * * * * * * * * * * * * * * * * * * * * * * //

dimensions      [0 2 -1 0 0 0 0];


internalField   nonuniform List<scalar> 
78750
(
1.99056e-07
6.1716e-06
6.29992e-06
6.22047e-06
6.00434e-06
5.73851e-06
5.4713e-06
5.22184e-06
4.99481e-06
4.78957e-06
4.60409e-06
4.43649e-06
4.28507e-06
4.14819e-06
4.02423e-06
3.91155e-06
3.80851e-06
3.71331e-06
3.62412e-06
3.53881e-06
3.45508e-06
3.37e-06
3.28039e-06
3.18323e-06
3.07431e-06
2.94842e-06
2.80069e-06
2.62493e-06
2.41381e-06
2.15979e-06
1.85528e-06
1.49024e-06
1.06412e-06
6.29286e-07
9.91209e-09
3.16308e-08
4.04717e-06
8.25042e-06
1.40605e-05
1.82517e-05
2.03073e-05
2.19259e-05
2.32389e-05
2.40083e-05
2.43779e-05
2.45502e-05
2.45852e-05
2.44825e-05
2.42663e-05
2.3986e-05
2.36809e-05
2.33886e-05
2.31288e-05
2.29232e-05
2.28033e-05
2.28077e-05
2.28944e-05
2.29963e-05
2.30648e-05
2.30104e-05
2.26868e-05
2.18422e-05
2.00798e-05
1.70504e-05
1.30427e-05
9.16126e-06
6.46807e-06
5.45042e-06
4.33243e-06
2.56406e-08
4.49592e-08
4.51473e-06
7.72055e-06
8.20813e-06
8.45793e-06
9.2389e-06
1.08867e-05
1.39371e-05
1.77144e-05
1.76438e-05
1.76367e-05
1.76767e-05
1.77511e-05
1.78546e-05
1.79821e-05
1.81288e-05
1.82907e-05
1.84639e-05
1.86449e-05
1.88297e-05
1.9014e-05
1.91856e-05
1.93345e-05
1.94495e-05
1.95151e-05
1.95104e-05
1.94071e-05
1.84188e-05
1.46336e-05
1.11986e-05
8.62899e-06
7.31639e-06
8.00784e-06
3.67893e-06
3.3749e-08
3.3831e-08
4.9501e-06
1.26255e-05
1.0602e-05
9.32666e-06
9.27681e-06
1.0924e-05
1.53399e-05
1.51953e-05
1.48643e-05
1.45749e-05
1.43366e-05
1.41563e-05
1.40419e-05
1.39975e-05
1.40167e-05
1.40933e-05
1.42217e-05
1.43965e-05
1.4613e-05
1.48662e-05
1.51496e-05
1.54576e-05
1.57836e-05
1.61066e-05
1.64e-05
1.66274e-05
1.43717e-05
1.1007e-05
8.42041e-06
6.72922e-06
6.2364e-06
8.17143e-06
3.55879e-06
3.86605e-08
2.87207e-08
3.04113e-06
1.20643e-05
1.31033e-05
1.0972e-05
9.77306e-06
9.3669e-06
9.61318e-06
1.05948e-05
1.15292e-05
1.06952e-05
9.95471e-06
9.34993e-06
8.89386e-06
8.59e-06
8.42188e-06
8.37332e-06
8.43214e-06
8.59191e-06
8.8521e-06
9.21729e-06
9.69545e-06
1.02942e-05
1.10172e-05
1.18336e-05
1.22036e-05
1.03799e-05
8.92418e-06
7.75326e-06
6.80008e-06
6.27786e-06
6.81502e-06
1.02095e-05
2.86505e-06
4.36471e-08
2.02446e-08
2.51971e-06
1.01693e-05
1.16371e-05
9.99997e-06
8.05408e-06
6.95064e-06
6.3206e-06
5.95599e-06
5.81142e-06
5.95532e-06
6.40898e-06
6.12398e-06
5.64369e-06
5.30234e-06
5.0644e-06
4.89345e-06
4.75954e-06
4.64351e-06
4.5402e-06
4.46185e-06
4.44189e-06
4.53691e-06
4.82152e-06
5.18246e-06
4.61739e-06
4.33999e-06
4.28114e-06
4.28643e-06
4.28611e-06
4.43593e-06
5.36925e-06
9.34122e-06
2.69181e-06
4.58156e-08
1.62626e-08
2.07758e-06
8.6615e-06
1.00265e-05
9.75672e-06
7.3817e-06
5.75226e-06
4.63844e-06
3.88087e-06
3.43929e-06
3.32872e-06
3.57255e-06
4.14566e-06
4.87432e-06
5.21993e-06
5.59512e-06
5.92316e-06
6.15387e-06
6.25502e-06
6.20582e-06
5.99431e-06
5.61976e-06
5.10217e-06
4.24117e-06
3.12976e-06
2.34273e-06
2.01555e-06
2.09603e-06
2.43043e-06
2.89001e-06
3.51156e-06
4.84828e-06
8.90169e-06
2.34729e-06
5.04508e-08
1.36176e-08
1.81805e-06
7.32046e-06
8.37875e-06
6.86759e-06
4.71342e-06
3.45931e-06
2.73775e-06
2.4027e-06
2.44416e-06
2.88191e-06
3.7035e-06
4.86308e-06
6.30148e-06
7.8959e-06
8.7484e-06
9.26895e-06
9.63626e-06
9.84162e-06
9.87443e-06
9.71971e-06
9.35852e-06
8.77243e-06
6.7629e-06
4.74877e-06
3.09903e-06
1.96921e-06
1.42884e-06
1.40679e-06
1.74041e-06
2.35803e-06
3.63834e-06
7.57576e-06
2.12802e-06
5.39234e-08
1.22771e-08
1.52959e-06
5.94335e-06
7.06827e-06
5.21845e-06
3.48635e-06
2.56086e-06
2.12867e-06
2.09939e-06
2.47579e-06
3.26302e-06
4.44971e-06
6.03405e-06
7.97629e-06
9.29472e-06
9.91052e-06
1.03985e-05
1.07592e-05
1.09905e-05
1.10845e-05
1.10261e-05
1.07929e-05
1.03563e-05
8.76616e-06
6.15702e-06
4.00549e-06
2.44589e-06
1.50802e-06
1.15061e-06
1.26463e-06
1.7769e-06
2.98952e-06
6.66484e-06
1.88994e-06
5.74342e-08
1.11299e-08
1.34782e-06
5.24659e-06
6.02306e-06
3.86852e-06
2.57176e-06
1.9853e-06
1.84065e-06
2.08132e-06
2.70771e-06
3.71085e-06
5.06762e-06
6.75746e-06
8.72128e-06
1.02043e-05
1.07957e-05
1.12762e-05
1.16468e-05
1.19053e-05
1.20442e-05
1.205e-05
1.19026e-05
1.15757e-05
9.47103e-06
6.9365e-06
4.73224e-06
2.99511e-06
1.81015e-06
1.18683e-06
1.05277e-06
1.35492e-06
2.33184e-06
5.77118e-06
1.7401e-06
5.9584e-08
1.02103e-08
1.20735e-06
4.70499e-06
5.40021e-06
3.46165e-06
2.342e-06
1.89358e-06
1.85459e-06
2.16972e-06
2.83609e-06
3.84271e-06
5.17653e-06
6.84123e-06
8.81616e-06
1.04445e-05
1.10633e-05
1.15783e-05
1.19874e-05
1.22867e-05
1.24685e-05
1.25203e-05
1.24248e-05
1.19911e-05
9.46553e-06
7.03751e-06
4.95165e-06
3.2638e-06
2.04247e-06
1.31796e-06
1.04415e-06
1.19688e-06
2.00701e-06
5.25064e-06
1.62162e-06
6.17077e-08
8.94256e-09
1.13423e-06
4.40168e-06
4.99598e-06
3.31592e-06
2.26186e-06
1.86187e-06
1.84091e-06
2.14606e-06
2.77767e-06
3.73685e-06
5.02879e-06
6.66494e-06
8.65055e-06
1.0846e-05
1.16482e-05
1.22415e-05
1.27173e-05
1.307e-05
1.32913e-05
1.337e-05
1.32916e-05
1.18731e-05
9.44535e-06
7.12879e-06
5.11159e-06
3.4624e-06
2.2353e-06
1.46173e-06
1.1016e-06
1.13805e-06
1.7893e-06
4.88009e-06
1.57029e-06
6.36694e-08
7.48685e-09
1.09621e-06
4.06841e-06
4.71596e-06
3.52669e-06
2.39681e-06
1.9387e-06
1.85641e-06
2.09556e-06
2.66406e-06
3.57602e-06
4.84765e-06
6.49496e-06
8.53138e-06
1.08801e-05
1.24327e-05
1.31308e-05
1.36958e-05
1.41193e-05
1.43896e-05
1.4493e-05
1.44137e-05
1.25002e-05
9.82437e-06
7.35046e-06
5.24913e-06
3.56948e-06
2.33837e-06
1.56167e-06
1.17904e-06
1.1679e-06
1.75248e-06
4.82146e-06
1.54536e-06
6.6591e-08
6.24619e-09
1.11487e-06
3.77846e-06
4.4466e-06
3.46769e-06
2.37763e-06
1.94244e-06
1.89729e-06
2.19888e-06
2.84699e-06
3.84631e-06
5.19637e-06
6.89511e-06
8.94958e-06
1.13485e-05
1.36831e-05
1.44483e-05
1.50818e-05
1.55712e-05
1.58999e-05
1.60481e-05
1.59936e-05
1.38516e-05
1.07856e-05
7.97281e-06
5.63027e-06
3.79745e-06
2.47914e-06
1.65946e-06
1.25326e-06
1.21691e-06
1.7727e-06
4.88924e-06
1.54502e-06
6.99375e-08
5.61045e-09
1.12461e-06
3.55942e-06
4.22714e-06
3.35101e-06
2.36798e-06
2.02383e-06
2.08341e-06
2.50034e-06
3.25045e-06
4.31327e-06
5.67307e-06
7.33884e-06
9.35647e-06
1.17755e-05
1.44538e-05
1.53228e-05
1.60201e-05
1.65846e-05
1.69943e-05
1.72223e-05
1.72384e-05
1.53042e-05
1.17555e-05
8.54985e-06
5.9625e-06
3.98747e-06
2.59407e-06
1.7448e-06
1.32981e-06
1.29515e-06
1.88184e-06
5.16832e-06
1.5384e-06
7.31746e-08
5.20163e-09
1.12104e-06
3.41859e-06
4.10858e-06
3.29992e-06
2.43957e-06
2.19465e-06
2.33872e-06
2.81203e-06
3.56947e-06
4.5877e-06
5.87528e-06
7.4879e-06
9.51735e-06
1.20333e-05
1.48214e-05
1.56948e-05
1.64677e-05
1.7121e-05
1.76307e-05
1.79659e-05
1.80919e-05
1.63029e-05
1.24867e-05
9.03454e-06
6.27629e-06
4.19042e-06
2.72837e-06
1.84338e-06
1.413e-06
1.38002e-06
2.01026e-06
5.45209e-06
1.5327e-06
7.49148e-08
4.46789e-09
1.0991e-06
3.26201e-06
3.99611e-06
3.70158e-06
2.72083e-06
2.39547e-06
2.44452e-06
2.79223e-06
3.39417e-06
4.25338e-06
5.41518e-06
6.96506e-06
9.01886e-06
1.16619e-05
1.45481e-05
1.55031e-05
1.63604e-05
1.71041e-05
1.77134e-05
1.81593e-05
1.8407e-05
1.65907e-05
1.27803e-05
9.32526e-06
6.53848e-06
4.40762e-06
2.89766e-06
1.97721e-06
1.52444e-06
1.48909e-06
2.16814e-06
5.6969e-06
1.53056e-06
7.54623e-08
3.46255e-09
1.12498e-06
3.02045e-06
3.77963e-06
4.16533e-06
3.01201e-06
2.54619e-06
2.46231e-06
2.67793e-06
3.16321e-06
3.93896e-06
5.0574e-06
6.59741e-06
8.66391e-06
1.13482e-05
1.44734e-05
1.55185e-05
1.63973e-05
1.71687e-05
1.78175e-05
1.83198e-05
1.86448e-05
1.65862e-05
1.29494e-05
9.65276e-06
6.93178e-06
4.78199e-06
3.20519e-06
2.2074e-06
1.69099e-06
1.61692e-06
2.29723e-06
5.8911e-06
1.55526e-06
7.59145e-08
2.78804e-09
1.19092e-06
2.77125e-06
3.51946e-06
4.0131e-06
3.08733e-06
2.59143e-06
2.4938e-06
2.72143e-06
3.24866e-06
4.08936e-06
5.27695e-06
6.86143e-06
8.91657e-06
1.15254e-05
1.45653e-05
1.56534e-05
1.64956e-05
1.72469e-05
1.78921e-05
1.84085e-05
1.87668e-05
1.62975e-05
1.27394e-05
9.65832e-06
7.1384e-06
5.10485e-06
3.55164e-06
2.51551e-06
1.93588e-06
1.80931e-06
2.4767e-06
6.17708e-06
1.60531e-06
7.73424e-08
2.50523e-09
1.2223e-06
2.58284e-06
3.3108e-06
3.81965e-06
2.99565e-06
2.59598e-06
2.60708e-06
2.95198e-06
3.59741e-06
4.53735e-06
5.77591e-06
7.33122e-06
9.26175e-06
1.16771e-05
1.45438e-05
1.56776e-05
1.64959e-05
1.72421e-05
1.78961e-05
1.84339e-05
1.88265e-05
1.57353e-05
1.22464e-05
9.38887e-06
7.10578e-06
5.26136e-06
3.81819e-06
2.81378e-06
2.209e-06
2.04641e-06
2.71737e-06
6.58328e-06
1.67617e-06
7.99367e-08
2.36473e-09
1.21307e-06
2.46103e-06
3.18727e-06
3.7343e-06
2.9698e-06
2.68645e-06
2.80658e-06
3.23848e-06
3.93416e-06
4.86446e-06
6.01052e-06
7.38566e-06
9.07372e-06
1.1241e-05
1.39583e-05
1.54012e-05
1.62281e-05
1.69891e-05
1.7662e-05
1.82235e-05
1.84285e-05
1.4742e-05
1.13901e-05
8.80295e-06
6.79628e-06
5.1965e-06
3.94253e-06
3.04354e-06
2.47292e-06
2.31495e-06
3.03425e-06
7.05877e-06
1.74324e-06
8.35547e-08
2.18208e-09
1.22092e-06
2.37376e-06
3.1098e-06
3.69478e-06
3.02606e-06
2.80423e-06
2.96812e-06
3.40607e-06
4.0574e-06
4.88158e-06
5.85954e-06
7.0188e-06
8.46432e-06
1.03912e-05
1.29647e-05
1.50037e-05
1.58466e-05
1.66208e-05
1.73039e-05
1.7874e-05
1.73256e-05
1.35612e-05
1.03835e-05
8.04544e-06
6.29399e-06
4.93573e-06
3.89733e-06
3.15117e-06
2.67126e-06
2.57306e-06
3.40956e-06
7.54658e-06
1.79769e-06
8.81078e-08
1.90831e-09
1.25719e-06
2.27671e-06
3.01462e-06
3.61472e-06
3.18536e-06
2.94661e-06
3.07083e-06
3.43407e-06
3.96683e-06
4.62749e-06
5.40455e-06
6.33535e-06
7.529e-06
9.18673e-06
1.15691e-05
1.44398e-05
1.53114e-05
1.61049e-05
1.67977e-05
1.73686e-05
1.61513e-05
1.23181e-05
9.31547e-06
7.20961e-06
5.68641e-06
4.54848e-06
3.72473e-06
3.15261e-06
2.80069e-06
2.80548e-06
3.81013e-06
7.85286e-06
1.8237e-06
9.26989e-08
1.59073e-09
1.2644e-06
2.15461e-06
2.88196e-06
3.48094e-06
3.37994e-06
3.09383e-06
3.1403e-06
3.39899e-06
3.79854e-06
4.30202e-06
4.90617e-06
5.65309e-06
6.64782e-06
8.08254e-06
1.02475e-05
1.33045e-05
1.48656e-05
1.56762e-05
1.63723e-05
1.69327e-05
1.50796e-05
1.12255e-05
8.39555e-06
6.48124e-06
5.12745e-06
4.14541e-06
3.48164e-06
3.05954e-06
2.84714e-06
2.99213e-06
4.21874e-06
7.95656e-06
1.83625e-06
9.74011e-08
1.30515e-09
1.17099e-06
2.02402e-06
2.73265e-06
3.324e-06
3.60483e-06
3.26578e-06
3.22622e-06
3.37702e-06
3.64752e-06
4.00556e-06
4.45477e-06
5.0421e-06
5.87125e-06
7.12697e-06
9.10092e-06
1.20488e-05
1.44078e-05
1.52431e-05
1.59483e-05
1.65011e-05
1.40094e-05
1.02147e-05
7.58825e-06
5.86918e-06
4.67318e-06
3.81528e-06
3.26009e-06
2.93605e-06
2.82716e-06
3.09572e-06
4.52499e-06
7.83661e-06
1.83327e-06
1.01687e-07
1.06332e-09
1.0856e-06
1.90064e-06
2.58609e-06
3.16303e-06
3.66908e-06
3.40066e-06
3.27669e-06
3.31637e-06
3.45865e-06
3.68019e-06
3.99599e-06
4.46352e-06
5.19214e-06
6.36626e-06
8.27657e-06
1.12071e-05
1.39871e-05
1.48624e-05
1.55834e-05
1.61265e-05
1.29432e-05
9.29515e-06
6.87013e-06
5.33375e-06
4.29579e-06
3.55722e-06
3.08426e-06
2.81928e-06
2.77541e-06
3.13773e-06
4.73437e-06
7.69173e-06
1.8342e-06
1.06395e-07
8.18552e-10
9.95134e-07
1.76454e-06
2.41399e-06
2.95834e-06
3.42786e-06
3.38008e-06
3.17888e-06
3.10188e-06
3.11653e-06
3.22114e-06
3.45103e-06
3.87784e-06
4.61812e-06
5.86234e-06
7.90921e-06
1.10088e-05
1.37003e-05
1.46118e-05
1.53371e-05
1.58527e-05
1.20572e-05
8.59133e-06
6.28711e-06
4.86439e-06
3.96609e-06
3.36397e-06
2.98048e-06
2.75185e-06
2.72375e-06
3.11544e-06
4.78566e-06
7.597e-06
1.83788e-06
1.11496e-07
5.90898e-10
8.88086e-07
1.59451e-06
2.18864e-06
2.68117e-06
3.10068e-06
3.03607e-06
2.77671e-06
2.62322e-06
2.58182e-06
2.6788e-06
2.9637e-06
3.51281e-06
4.45032e-06
5.98942e-06
8.44152e-06
1.18791e-05
1.38276e-05
1.46818e-05
1.53372e-05
1.47957e-05
1.13279e-05
8.14103e-06
5.88101e-06
4.46494e-06
3.63356e-06
3.15684e-06
2.89727e-06
2.74117e-06
2.73715e-06
3.14278e-06
4.86794e-06
7.61602e-06
1.85376e-06
1.1773e-07
5.70015e-10
7.93321e-07
1.4302e-06
1.96839e-06
2.41481e-06
2.76259e-06
2.40165e-06
2.1644e-06
2.07342e-06
2.14865e-06
2.41916e-06
2.93077e-06
3.7641e-06
5.06372e-06
7.05726e-06
9.93225e-06
1.32865e-05
1.41541e-05
1.47769e-05
1.52484e-05
1.32084e-05
1.03483e-05
7.64848e-06
5.54708e-06
4.144e-06
3.33366e-06
2.94342e-06
2.8067e-06
2.74927e-06
2.78926e-06
3.21116e-06
4.99193e-06
7.64902e-06
1.86604e-06
1.24198e-07
6.84667e-10
7.60055e-07
1.36365e-06
1.88081e-06
2.32345e-06
2.03556e-06
1.83195e-06
1.79122e-06
1.92963e-06
2.25976e-06
2.80573e-06
3.61397e-06
4.76338e-06
6.36225e-06
8.47455e-06
1.09025e-05
1.30211e-05
1.38034e-05
1.37793e-05
1.24038e-05
1.04703e-05
8.40645e-06
6.47384e-06
4.84549e-06
3.65632e-06
2.94788e-06
2.66528e-06
2.67181e-06
2.76658e-06
2.92197e-06
3.43867e-06
5.40982e-06
7.5957e-06
1.87576e-06
1.3017e-07
8.2711e-10
7.90123e-07
1.42476e-06
1.83712e-06
1.75069e-06
1.67983e-06
1.73687e-06
1.95272e-06
2.33641e-06
2.8931e-06
3.62678e-06
4.53838e-06
5.62008e-06
6.84059e-06
8.11382e-06
9.2568e-06
9.98373e-06
1.00019e-05
9.22956e-06
7.95891e-06
6.63774e-06
5.50621e-06
4.54372e-06
3.67619e-06
2.94342e-06
2.46437e-06
2.31937e-06
2.45735e-06
2.70968e-06
3.02384e-06
3.70386e-06
5.95997e-06
7.37e-06
1.87136e-06
1.3441e-07
1.09438e-09
8.36734e-07
1.3812e-06
1.55181e-06
1.62377e-06
1.75742e-06
2.00574e-06
2.37517e-06
2.84894e-06
3.40305e-06
4.03043e-06
4.75406e-06
5.60534e-06
6.57609e-06
7.56752e-06
8.36383e-06
8.66901e-06
8.21916e-06
6.98452e-06
5.36449e-06
3.93857e-06
2.99533e-06
2.48365e-06
2.20348e-06
1.98973e-06
1.84451e-06
1.88913e-06
2.16914e-06
2.59048e-06
3.10716e-06
4.02812e-06
6.66876e-06
7.06853e-06
1.86957e-06
1.37405e-07
1.59536e-09
9.63243e-07
1.45638e-06
1.59809e-06
1.73139e-06
1.93059e-06
2.19873e-06
2.52606e-06
2.933e-06
3.4936e-06
4.3122e-06
5.48159e-06
7.03812e-06
8.88826e-06
1.07376e-05
1.21364e-05
1.26389e-05
1.19201e-05
9.90874e-06
7.10197e-06
4.44743e-06
2.5578e-06
1.4967e-06
1.08187e-06
1.04527e-06
1.15667e-06
1.37454e-06
1.76405e-06
2.31649e-06
3.02583e-06
4.20246e-06
7.18479e-06
6.78406e-06
1.8677e-06
1.39177e-07
1.98634e-09
1.19028e-06
1.6727e-06
1.69362e-06
1.76876e-06
1.912e-06
2.13168e-06
2.48569e-06
3.0754e-06
4.0227e-06
5.47202e-06
7.59249e-06
1.04896e-05
1.3964e-05
1.73502e-05
1.985e-05
2.09542e-05
2.03698e-05
1.78555e-05
1.35811e-05
8.77886e-06
4.89427e-06
2.36832e-06
9.96952e-07
4.86179e-07
5.22071e-07
8.18269e-07
1.2758e-06
1.90086e-06
2.74702e-06
4.13177e-06
7.36265e-06
6.6333e-06
1.88101e-06
1.40984e-07
1.64005e-09
1.20277e-06
1.74581e-06
1.65444e-06
1.67031e-06
1.79788e-06
2.06668e-06
2.54917e-06
3.34201e-06
4.57812e-06
6.46968e-06
9.33478e-06
1.34699e-05
1.86584e-05
2.37689e-05
2.75735e-05
2.96387e-05
2.9957e-05
2.83845e-05
2.43857e-05
1.78955e-05
1.09631e-05
5.80337e-06
2.65026e-06
9.53079e-07
2.95044e-07
3.32216e-07
7.36378e-07
1.34923e-06
2.21339e-06
3.65533e-06
6.94283e-06
6.66009e-06
1.90976e-06
1.44265e-07
9.18669e-10
1.00595e-06
1.45095e-06
1.44957e-06
1.52183e-06
1.71905e-06
2.08323e-06
2.67528e-06
3.5811e-06
4.93739e-06
6.97644e-06
1.00534e-05
1.44891e-05
1.99597e-05
2.50967e-05
2.8645e-05
3.03709e-05
3.05652e-05
2.96165e-05
2.76862e-05
2.43631e-05
1.89262e-05
1.21646e-05
6.56785e-06
3.05321e-06
1.12891e-06
3.34926e-07
3.40294e-07
8.0262e-07
1.57304e-06
2.88593e-06
5.92903e-06
6.85018e-06
1.94942e-06
1.53148e-07
7.02518e-10
8.112e-07
1.1407e-06
1.31301e-06
1.53481e-06
1.88845e-06
2.42894e-06
3.22299e-06
4.37549e-06
6.05529e-06
8.49897e-06
1.18872e-05
1.59708e-05
1.98866e-05
2.28761e-05
2.48021e-05
2.57629e-05
2.57716e-05
2.47583e-05
2.26449e-05
1.95683e-05
1.60814e-05
1.26626e-05
9.25517e-06
5.84599e-06
3.05828e-06
1.28967e-06
5.09564e-07
5.11945e-07
1.03284e-06
2.09295e-06
4.63245e-06
7.14368e-06
1.99338e-06
1.69111e-07
9.01378e-10
6.82839e-07
1.10742e-06
1.46701e-06
1.89056e-06
2.46183e-06
3.2561e-06
4.38045e-06
6.00221e-06
8.33759e-06
1.14933e-05
1.51214e-05
1.84469e-05
2.1017e-05
2.29185e-05
2.43242e-05
2.52674e-05
2.56381e-05
2.52257e-05
2.36411e-05
2.03167e-05
1.54874e-05
1.08372e-05
7.59736e-06
5.5474e-06
3.92835e-06
2.39609e-06
1.2425e-06
7.45356e-07
8.75975e-07
1.61467e-06
3.65161e-06
7.36333e-06
2.01927e-06
1.88573e-07
1.37546e-09
7.74965e-07
1.32757e-06
1.85837e-06
2.46781e-06
3.25171e-06
4.32847e-06
5.86664e-06
8.05971e-06
1.09426e-05
1.41227e-05
1.70143e-05
1.94266e-05
2.15122e-05
2.34104e-05
2.51316e-05
2.65709e-05
2.75169e-05
2.76706e-05
2.65614e-05
2.33847e-05
1.78655e-05
1.19228e-05
7.65834e-06
5.17971e-06
3.75789e-06
2.73351e-06
1.84136e-06
1.22475e-06
1.08184e-06
1.55376e-06
3.30909e-06
7.53853e-06
2.02091e-06
2.03358e-07
2.30244e-09
9.32196e-07
1.60765e-06
2.25009e-06
2.97876e-06
3.92077e-06
5.23234e-06
7.07554e-06
9.46956e-06
1.21307e-05
1.46947e-05
1.70696e-05
1.93577e-05
2.16354e-05
2.38874e-05
2.60257e-05
2.78975e-05
2.92567e-05
2.97097e-05
2.85561e-05
2.45873e-05
1.77155e-05
1.11402e-05
7.01391e-06
4.83676e-06
3.69149e-06
2.96426e-06
2.33702e-06
1.77563e-06
1.51405e-06
1.84261e-06
3.6181e-06
7.55424e-06
1.98785e-06
2.05914e-07
3.76538e-09
9.99253e-07
1.75381e-06
2.45303e-06
3.23683e-06
4.25737e-06
5.6624e-06
7.52604e-06
9.76443e-06
1.2207e-05
1.47493e-05
1.73529e-05
1.99723e-05
2.2537e-05
2.49716e-05
2.72002e-05
2.91112e-05
3.04939e-05
3.09138e-05
2.94352e-05
2.43585e-05
1.60991e-05
9.29253e-06
5.6303e-06
4.01416e-06
3.40648e-06
3.16194e-06
2.86792e-06
2.42229e-06
2.12495e-06
2.46355e-06
4.68067e-06
6.96726e-06
1.92262e-06
1.92324e-07
5.3469e-09
9.22087e-07
1.6896e-06
2.43636e-06
3.29282e-06
4.41794e-06
5.93524e-06
7.87253e-06
1.01654e-05
1.27174e-05
1.54214e-05
1.81698e-05
2.08663e-05
2.34326e-05
2.58035e-05
2.79123e-05
2.96547e-05
3.0826e-05
3.09777e-05
2.90665e-05
2.33098e-05
1.46987e-05
8.09444e-06
4.72259e-06
3.39948e-06
3.16515e-06
3.3688e-06
3.42475e-06
3.15919e-06
2.94339e-06
3.4722e-06
6.55483e-06
6.08758e-06
1.85006e-06
1.69897e-07
6.55942e-09
8.16394e-07
1.58971e-06
2.4621e-06
3.53745e-06
4.93011e-06
6.6802e-06
8.74234e-06
1.10405e-05
1.35147e-05
1.61216e-05
1.88e-05
2.14556e-05
2.39806e-05
2.6276e-05
2.8251e-05
2.97915e-05
3.06991e-05
3.05696e-05
2.84836e-05
2.29154e-05
1.46075e-05
7.89786e-06
4.32941e-06
2.92359e-06
2.79395e-06
3.33275e-06
3.81071e-06
3.8734e-06
3.89311e-06
4.7907e-06
8.59911e-06
5.61766e-06
1.8148e-06
1.51934e-07
7.21285e-09
7.91581e-07
1.63153e-06
2.68604e-06
3.99251e-06
5.55664e-06
7.34038e-06
9.31417e-06
1.14944e-05
1.39117e-05
1.65459e-05
1.92981e-05
2.20215e-05
2.457e-05
2.68227e-05
2.8676e-05
3.00146e-05
3.06657e-05
3.03169e-05
2.8318e-05
2.35402e-05
1.59907e-05
8.88296e-06
4.58511e-06
2.66943e-06
2.26695e-06
2.86069e-06
3.77104e-06
4.3864e-06
4.84433e-06
6.19117e-06
1.00513e-05
5.59196e-06
1.83437e-06
1.44614e-07
7.30077e-09
8.19828e-07
1.72182e-06
2.85143e-06
4.18118e-06
5.6817e-06
7.35625e-06
9.25406e-06
1.14423e-05
1.39508e-05
1.67248e-05
1.96224e-05
2.24646e-05
2.50885e-05
2.73691e-05
2.92066e-05
3.05046e-05
3.11334e-05
3.08819e-05
2.9342e-05
2.5684e-05
1.92273e-05
1.16175e-05
5.96217e-06
3.00167e-06
1.93847e-06
2.15012e-06
3.13879e-06
4.31789e-06
5.41814e-06
7.25141e-06
1.08972e-05
5.90481e-06
1.90736e-06
1.47166e-07
7.07676e-09
8.33292e-07
1.73815e-06
2.83747e-06
4.1036e-06
5.53853e-06
7.17823e-06
9.07941e-06
1.12953e-05
1.3839e-05
1.66494e-05
1.95904e-05
2.24879e-05
2.5174e-05
2.75095e-05
2.9385e-05
3.07119e-05
3.14021e-05
3.13358e-05
3.02592e-05
2.76014e-05
2.25849e-05
1.54463e-05
8.62461e-06
4.21746e-06
2.13623e-06
1.64212e-06
2.23967e-06
3.53788e-06
5.21399e-06
7.61793e-06
1.13034e-05
6.308e-06
1.99888e-06
1.56411e-07
6.83392e-09
8.33679e-07
1.73375e-06
2.82248e-06
4.08277e-06
5.5228e-06
7.16921e-06
9.05823e-06
1.12251e-05
1.368e-05
1.63801e-05
1.92228e-05
2.20643e-05
2.47499e-05
2.71343e-05
2.90876e-05
3.04973e-05
3.12732e-05
3.13297e-05
3.0514e-05
2.84726e-05
2.4618e-05
1.86476e-05
1.17568e-05
6.20799e-06
2.98332e-06
1.64639e-06
1.62912e-06
2.55688e-06
4.26782e-06
7.01804e-06
1.12035e-05
6.68366e-06
2.0847e-06
1.68861e-07
6.81847e-09
8.69472e-07
1.79719e-06
2.90146e-06
4.16049e-06
5.57409e-06
7.16076e-06
8.95942e-06
1.10227e-05
1.33822e-05
1.60081e-05
1.88008e-05
2.16173e-05
2.43074e-05
2.67341e-05
2.87757e-05
3.03198e-05
3.12689e-05
3.15247e-05
3.09244e-05
2.91844e-05
2.58716e-05
2.06639e-05
1.41762e-05
8.18802e-06
4.11876e-06
2.03434e-06
1.42843e-06
1.86988e-06
3.24528e-06
5.91374e-06
1.06624e-05
6.89135e-06
2.13502e-06
1.8031e-07
6.86286e-09
9.00424e-07
1.8246e-06
2.87582e-06
4.03556e-06
5.31861e-06
6.7701e-06
8.46366e-06
1.04806e-05
1.28611e-05
1.55635e-05
1.84661e-05
2.14077e-05
2.42313e-05
2.68019e-05
2.90055e-05
3.0739e-05
3.19163e-05
3.24501e-05
3.21927e-05
3.08736e-05
2.80726e-05
2.33487e-05
1.69323e-05
1.03728e-05
5.44364e-06
2.63827e-06
1.50092e-06
1.50244e-06
2.46616e-06
4.7684e-06
9.78221e-06
6.99406e-06
2.15663e-06
1.8827e-07
6.86379e-09
8.67843e-07
1.72703e-06
2.68176e-06
3.74256e-06
4.96098e-06
6.40943e-06
8.16819e-06
1.03039e-05
1.28293e-05
1.56739e-05
1.86985e-05
2.17425e-05
2.46616e-05
2.73328e-05
2.96497e-05
3.15184e-05
3.28556e-05
3.3556e-05
3.34697e-05
3.23873e-05
2.99836e-05
2.58346e-05
1.98252e-05
1.29589e-05
7.13694e-06
3.4754e-06
1.75843e-06
1.35689e-06
1.9559e-06
3.8541e-06
8.77238e-06
6.98442e-06
2.15147e-06
1.92117e-07
6.81591e-09
8.05609e-07
1.60306e-06
2.52317e-06
3.60383e-06
4.90554e-06
6.48754e-06
8.40212e-06
1.06826e-05
1.33114e-05
1.62012e-05
1.92165e-05
2.22177e-05
2.50876e-05
2.7726e-05
3.00423e-05
3.19538e-05
3.33828e-05
3.4212e-05
3.42774e-05
3.33822e-05
3.13012e-05
2.77312e-05
2.2434e-05
1.58113e-05
9.37528e-06
4.7487e-06
2.28258e-06
1.40615e-06
1.63339e-06
3.11912e-06
7.6387e-06
7.0262e-06
2.14712e-06
1.94119e-07
6.84462e-09
7.72001e-07
1.55349e-06
2.50308e-06
3.66169e-06
5.06943e-06
6.758e-06
8.75843e-06
1.1089e-05
1.37221e-05
1.65707e-05
1.95109e-05
2.24193e-05
2.51929e-05
2.7743e-05
2.99881e-05
3.18541e-05
3.32693e-05
3.41192e-05
3.42398e-05
3.34401e-05
3.15479e-05
2.84288e-05
2.39397e-05
1.81504e-05
1.18387e-05
6.5113e-06
3.19516e-06
1.71781e-06
1.50417e-06
2.53084e-06
6.34566e-06
7.1886e-06
2.14926e-06
1.96649e-07
6.9266e-09
7.61961e-07
1.54687e-06
2.52885e-06
3.74072e-06
5.20396e-06
6.93538e-06
8.9599e-06
1.12964e-05
1.39215e-05
1.67524e-05
1.96678e-05
2.25443e-05
2.52771e-05
2.77781e-05
2.99692e-05
3.17849e-05
3.31661e-05
3.4013e-05
3.41812e-05
3.3494e-05
3.17891e-05
2.89691e-05
2.50168e-05
1.99697e-05
1.41672e-05
8.60667e-06
4.53671e-06
2.36324e-06
1.63674e-06
2.17222e-06
5.12748e-06
7.59092e-06
2.16991e-06
2.00877e-07
7.13421e-09
7.65868e-07
1.56442e-06
2.58254e-06
3.84785e-06
5.36862e-06
7.1502e-06
9.21429e-06
1.15793e-05
1.42147e-05
1.7026e-05
1.98851e-05
2.26701e-05
2.5282e-05
2.76402e-05
2.96755e-05
3.13357e-05
3.25786e-05
3.33229e-05
3.34571e-05
3.28441e-05
3.13577e-05
2.89193e-05
2.55126e-05
2.11825e-05
1.60855e-05
1.07427e-05
6.22079e-06
3.35644e-06
2.0645e-06
2.11169e-06
4.28488e-06
8.27943e-06
2.21566e-06
2.06678e-07
7.54382e-09
7.83705e-07
1.60853e-06
2.67304e-06
3.9978e-06
5.57785e-06
7.41065e-06
9.5149e-06
1.19012e-05
1.45261e-05
1.72867e-05
2.00533e-05
2.27078e-05
2.51577e-05
2.73316e-05
2.91725e-05
3.0642e-05
3.171e-05
3.22986e-05
3.23135e-05
3.16437e-05
3.02078e-05
2.79869e-05
2.50167e-05
2.13447e-05
1.70361e-05
1.23358e-05
7.8872e-06
4.57494e-06
2.75754e-06
2.36146e-06
3.97302e-06
9.16594e-06
2.29299e-06
2.1267e-07
8.13691e-09
8.00534e-07
1.65031e-06
2.75512e-06
4.12552e-06
5.74534e-06
7.60758e-06
9.73101e-06
1.21257e-05
1.47473e-05
1.74888e-05
2.02143e-05
2.28012e-05
2.51588e-05
2.72216e-05
2.89436e-05
3.02949e-05
3.12407e-05
3.17004e-05
3.15828e-05
3.07821e-05
2.9238e-05
2.69771e-05
2.41046e-05
2.07442e-05
1.6988e-05
1.2956e-05
8.99383e-06
5.67437e-06
3.55408e-06
2.83816e-06
4.15163e-06
1.00171e-05
2.38547e-06
2.17015e-07
8.8719e-09
8.17084e-07
1.69254e-06
2.83524e-06
4.24351e-06
5.88968e-06
7.7637e-06
9.88967e-06
1.22843e-05
1.49044e-05
1.7638e-05
2.03434e-05
2.28983e-05
2.5218e-05
2.72417e-05
2.89243e-05
3.02283e-05
3.10955e-05
3.14245e-05
3.1116e-05
3.00847e-05
2.83225e-05
2.59204e-05
2.30345e-05
1.98218e-05
1.64003e-05
1.28769e-05
9.43158e-06
6.4005e-06
4.26807e-06
3.43143e-06
4.7184e-06
1.06253e-05
2.45194e-06
2.18475e-07
9.6598e-09
8.30383e-07
1.72175e-06
2.88167e-06
4.2964e-06
5.93007e-06
7.7791e-06
9.8831e-06
1.22643e-05
1.4869e-05
1.75718e-05
2.02318e-05
2.27417e-05
2.50341e-05
2.70575e-05
2.87632e-05
3.00941e-05
3.09488e-05
3.11724e-05
3.06137e-05
2.91966e-05
2.70123e-05
2.43045e-05
2.13406e-05
1.8298e-05
1.52576e-05
1.22642e-05
9.3685e-06
6.7544e-06
4.8329e-06
4.09218e-06
5.63959e-06
1.07482e-05
2.47225e-06
2.16595e-07
1.02324e-08
8.13518e-07
1.68871e-06
2.83194e-06
4.22769e-06
5.84967e-06
7.70851e-06
9.84113e-06
1.22418e-05
1.48222e-05
1.74494e-05
2.0014e-05
2.24571e-05
2.47482e-05
2.68474e-05
2.86924e-05
3.0192e-05
3.11852e-05
3.14354e-05
3.06995e-05
2.88515e-05
2.60632e-05
2.2795e-05
1.95264e-05
1.65187e-05
1.38124e-05
1.13459e-05
9.01437e-06
6.88659e-06
5.29875e-06
4.81666e-06
6.85287e-06
1.02681e-05
2.44908e-06
2.13303e-07
1.07653e-08
7.91291e-07
1.6605e-06
2.82343e-06
4.27567e-06
6.00127e-06
7.98991e-06
1.02162e-05
1.26021e-05
1.50275e-05
1.74011e-05
1.97054e-05
2.19729e-05
2.42307e-05
2.64529e-05
2.85528e-05
3.03869e-05
3.17052e-05
3.21747e-05
3.14408e-05
2.928e-05
2.58881e-05
2.19361e-05
1.81741e-05
1.50165e-05
1.24989e-05
1.0441e-05
8.59168e-06
6.92525e-06
5.71724e-06
5.60011e-06
8.26834e-06
9.57715e-06
2.41693e-06
2.11256e-07
1.16142e-08
8.08392e-07
1.72665e-06
2.98893e-06
4.60447e-06
6.55011e-06
8.73981e-06
1.10218e-05
1.32438e-05
1.53223e-05
1.72778e-05
1.92133e-05
2.12478e-05
2.34545e-05
2.58111e-05
2.82024e-05
3.04264e-05
3.21582e-05
3.29723e-05
3.24011e-05
3.01e-05
2.62303e-05
2.16227e-05
1.73009e-05
1.38728e-05
1.1413e-05
9.63604e-06
8.18164e-06
6.93647e-06
6.11911e-06
6.42137e-06
9.71529e-06
8.94707e-06
2.38639e-06
2.12009e-07
1.29804e-08
8.72936e-07
1.8906e-06
3.31174e-06
5.16272e-06
7.38922e-06
9.76518e-06
1.19851e-05
1.39036e-05
1.55667e-05
1.71234e-05
1.87655e-05
2.06637e-05
2.29124e-05
2.54794e-05
2.82183e-05
3.08766e-05
3.30682e-05
3.42854e-05
3.39578e-05
3.16122e-05
2.73282e-05
2.20423e-05
1.70537e-05
1.32068e-05
1.06473e-05
9.00114e-06
7.82051e-06
6.91473e-06
6.45932e-06
7.1928e-06
1.09853e-05
8.53616e-06
2.3737e-06
2.15805e-07
1.50288e-08
9.78096e-07
2.12912e-06
3.74828e-06
5.87735e-06
8.37578e-06
1.08169e-05
1.28236e-05
1.43916e-05
1.57129e-05
1.70083e-05
1.85009e-05
2.03786e-05
2.27452e-05
2.55619e-05
2.86639e-05
3.17767e-05
3.44649e-05
3.6151e-05
3.61494e-05
3.38385e-05
2.91808e-05
2.31715e-05
1.73774e-05
1.29285e-05
1.00939e-05
8.4548e-06
7.4785e-06
6.87396e-06
6.76376e-06
7.92528e-06
1.2073e-05
8.20964e-06
2.36303e-06
2.20905e-07
1.74812e-08
1.09061e-06
2.37545e-06
4.19493e-06
6.57029e-06
9.19433e-06
1.14982e-05
1.32373e-05
1.45702e-05
1.572e-05
1.68916e-05
1.82996e-05
2.01401e-05
2.25391e-05
2.54763e-05
2.87921e-05
3.22178e-05
3.53161e-05
3.74858e-05
3.79653e-05
3.59834e-05
3.13138e-05
2.48618e-05
1.83449e-05
1.31892e-05
9.87171e-06
8.0414e-06
7.13244e-06
6.75696e-06
6.96345e-06
8.53993e-06
1.29307e-05
7.98021e-06
2.36086e-06
2.26339e-07
1.92697e-08
1.16083e-06
2.52553e-06
4.45369e-06
6.9077e-06
9.48236e-06
1.16505e-05
1.32714e-05
1.44929e-05
1.54876e-05
1.64473e-05
1.76125e-05
1.92254e-05
2.14655e-05
2.4366e-05
2.77897e-05
3.14581e-05
3.49405e-05
3.76133e-05
3.86701e-05
3.72279e-05
3.28839e-05
2.63815e-05
1.94487e-05
1.37172e-05
9.88574e-06
7.76039e-06
6.81489e-06
6.60247e-06
7.09901e-06
9.07943e-06
1.36045e-05
7.73526e-06
2.35199e-06
2.30346e-07
1.96933e-08
1.16348e-06
2.51669e-06
4.41324e-06
6.82301e-06
9.40312e-06
1.16219e-05
1.32143e-05
1.42509e-05
1.49188e-05
1.54756e-05
1.62362e-05
1.74978e-05
1.9481e-05
2.22666e-05
2.57551e-05
2.96846e-05
3.3647e-05
3.70075e-05
3.89113e-05
3.83444e-05
3.46638e-05
2.83555e-05
2.10963e-05
1.47308e-05
1.02422e-05
7.65516e-06
6.52703e-06
6.38386e-06
7.12538e-06
9.46916e-06
1.40558e-05
7.5417e-06
2.34553e-06
2.33641e-07
1.9177e-08
1.11252e-06
2.40107e-06
4.2392e-06
6.69318e-06
9.4867e-06
1.18957e-05
1.34275e-05
1.41767e-05
1.44688e-05
1.46804e-05
1.51742e-05
1.62344e-05
1.80555e-05
2.0721e-05
2.4162e-05
2.81575e-05
3.23516e-05
3.61648e-05
3.87659e-05
3.91016e-05
3.63136e-05
3.05455e-05
2.32432e-05
1.6332e-05
1.11009e-05
7.87634e-06
6.37001e-06
6.13931e-06
7.03348e-06
9.69034e-06
1.43103e-05
7.36901e-06
2.33855e-06
2.36424e-07
1.91741e-08
1.07269e-06
2.34732e-06
4.25695e-06
6.97096e-06
1.01471e-05
1.26749e-05
1.39245e-05
1.42266e-05
1.4142e-05
1.41739e-05
1.46895e-05
1.58992e-05
1.79027e-05
2.07137e-05
2.42334e-05
2.82524e-05
3.24642e-05
3.63785e-05
3.9266e-05
4.01495e-05
3.8091e-05
3.29389e-05
2.57928e-05
1.84759e-05
1.2504e-05
8.52798e-06
6.46372e-06
5.94772e-06
6.82378e-06
9.67269e-06
1.43745e-05
7.22392e-06
2.32996e-06
2.38782e-07
2.07692e-08
1.11203e-06
2.4951e-06
4.67187e-06
7.84821e-06
1.13311e-05
1.3565e-05
1.42091e-05
1.39647e-05
1.35473e-05
1.34922e-05
1.41337e-05
1.56401e-05
1.80583e-05
2.13239e-05
2.52451e-05
2.954e-05
3.38838e-05
3.78414e-05
4.0783e-05
4.1855e-05
4.01975e-05
3.55254e-05
2.86156e-05
2.10497e-05
1.44148e-05
9.64554e-06
6.90101e-06
5.93007e-06
6.6016e-06
9.48294e-06
1.43121e-05
7.06974e-06
2.31331e-06
2.3964e-07
2.34072e-08
1.21816e-06
2.77671e-06
5.28973e-06
8.8924e-06
1.23401e-05
1.39512e-05
1.39511e-05
1.32951e-05
1.27299e-05
1.27195e-05
1.35121e-05
1.5239e-05
1.79481e-05
2.15798e-05
2.59147e-05
3.06026e-05
3.52513e-05
3.94111e-05
4.2482e-05
4.36948e-05
4.23034e-05
3.80153e-05
3.14066e-05
2.37976e-05
1.66949e-05
1.12045e-05
7.73719e-06
6.19787e-06
6.51232e-06
9.26685e-06
1.42274e-05
6.90133e-06
2.28494e-06
2.37707e-07
2.5573e-08
1.28914e-06
2.9603e-06