/*--------------------------------*- C++ -*----------------------------------*\
| =========                 |                                                 |
| \\      /  F ield         | OpenFOAM: The Open Source CFD Toolbox           |
|  \\    /   O peration     | Version:  v1906                                 |
|   \\  /    A nd           | Web:      www.OpenFOAM.com                      |
|    \\/     M anipulation  |                                                 |
\*---------------------------------------------------------------------------*/
FoamFile
{
    version     2.0;
    format      ascii;
    class       volScalarField;
    location    "32";
    object      alphat;
}
// * * * * * * * * * * * * * * * * * * * * * * * * * * * * * * * * * * * * * //

dimensions      [1 -1 -1 0 0 0 0];


internalField   nonuniform List<scalar> 
78750
(
0.000679422
0.00156585
0.00111894
0.000386987
2.71032e-05
2.54681e-06
3.96111e-05
1.42108e-05
3.32207e-05
2.87578e-05
2.97409e-05
3.02298e-05
3.08644e-05
3.15162e-05
3.17777e-05
3.1553e-05
3.09042e-05
3.00956e-05
2.93645e-05
2.87235e-05
2.81079e-05
2.73597e-05
2.62523e-05
2.47098e-05
2.30951e-05
2.20872e-05
2.19806e-05
2.22036e-05
2.13952e-05
2.07759e-05
2.18396e-05
2.01992e-05
1.65668e-05
8.47392e-06
3.16498e-07
5.8996e-06
0.000334649
9.54614e-05
3.20866e-05
7.89519e-05
3.99412e-05
2.72196e-05
2.93562e-05
3.50812e-05
4.2105e-05
4.75592e-05
5.19375e-05
5.53576e-05
5.43934e-05
4.91519e-05
4.28282e-05
3.86154e-05
3.80503e-05
4.02346e-05
4.30218e-05
4.49114e-05
4.55559e-05
4.52188e-05
4.43884e-05
4.36037e-05
4.29438e-05
4.19227e-05
4.01323e-05
3.80861e-05
3.69021e-05
3.6212e-05
3.34945e-05
2.10466e-05
4.7245e-06
1.9617e-06
3.45924e-06
6.01049e-05
0.00025413
0.000114667
8.48081e-05
8.28235e-05
5.72892e-05
3.28928e-05
2.77237e-05
4.11979e-05
0.000105262
0.000171357
0.000176976
0.000195608
0.000186457
0.000178356
0.000135431
0.000104046
8.61319e-05
7.68038e-05
7.36008e-05
7.49855e-05
7.79372e-05
7.91964e-05
7.82506e-05
7.65317e-05
7.52232e-05
7.49449e-05
7.60906e-05
7.78709e-05
7.42295e-05
4.92573e-05
1.66943e-05
7.92669e-06
3.57331e-06
5.66184e-06
2.58327e-05
6.06624e-05
0.000123613
0.000135868
8.99788e-05
6.32955e-05
4.4341e-05
2.74778e-05
1.89753e-05
2.02312e-05
3.67376e-05
9.12838e-05
0.000159802
0.000176977
0.000177324
0.00017329
0.000166102
0.000159494
0.000157404
0.000157527
0.000151586
0.000140173
0.000129631
0.000122372
0.000118042
0.000115832
0.000114845
0.000113317
0.00010713
8.74944e-05
4.34571e-05
1.18493e-05
7.94789e-06
4.69608e-06
6.87303e-06
7.7448e-05
0.000200958
8.82005e-05
4.401e-05
2.83701e-05
2.46842e-05
3.46864e-05
7.68744e-05
9.51179e-05
6.54219e-05
5.57689e-05
6.95329e-05
0.000112326
0.00015364
0.000145046
0.000130533
0.000114959
9.36207e-05
7.5151e-05
7.13753e-05
8.44758e-05
0.000111278
0.000140655
0.000159133
0.000162844
0.000155554
0.000140607
0.000119135
9.14029e-05
5.85689e-05
2.81146e-05
1.26511e-05
1.30244e-05
5.76054e-06
5.08182e-06
2.63897e-05
8.20378e-05
0.000137557
0.000123376
8.79161e-05
5.60399e-05
3.65486e-05
2.71878e-05
2.48477e-05
2.93998e-05
4.05566e-05
5.16482e-05
5.84085e-05
6.6578e-05
9.28748e-05
0.000168345
0.000187162
0.00018544
0.000167931
0.000134052
0.000123371
0.000130932
0.000148775
0.000167374
0.000177563
0.00017489
0.000160343
0.00013707
0.000106333
6.6498e-05
2.70669e-05
1.07663e-05
1.27146e-05
6.45232e-06
8.25472e-06
5.15907e-05
0.000137782
6.70644e-05
3.65979e-05
2.95967e-05
3.74589e-05
5.9387e-05
6.43157e-05
4.82305e-05
4.11326e-05
5.64887e-05
0.000133539
0.000207113
0.000200684
0.000163874
0.000149863
0.000161949
0.000185886
0.000191617
0.000178773
0.000158249
0.000144216
0.000139381
0.000142751
0.000150851
0.000155994
0.000148527
0.000123662
8.56038e-05
4.70786e-05
2.17982e-05
1.2867e-05
2.0812e-05
7.24748e-06
9.62592e-06
5.72322e-05
8.00573e-05
4.32567e-05
3.8355e-05
4.80798e-05
5.51959e-05
5.08832e-05
4.31735e-05
3.65434e-05
3.36286e-05
3.79328e-05
5.6467e-05
9.65189e-05
0.000136525
0.000151126
0.000154119
0.000154088
0.000153487
0.000155484
0.000161689
0.00016869
0.000171068
0.000167548
0.000161139
0.000155304
0.000150532
0.000142905
0.000125855
9.37465e-05
5.0967e-05
2.10001e-05
1.27457e-05
2.31932e-05
7.65704e-06
9.65463e-06
5.6558e-05
2.58509e-05
1.911e-05
2.28108e-05
3.24035e-05
5.69517e-05
9.02683e-05
0.00011114
0.000104434
7.98635e-05
6.45524e-05
6.16986e-05
6.65427e-05
7.35984e-05
8.03616e-05
8.68243e-05
9.3655e-05
0.000102357
0.000114521
0.000129523
0.00014358
0.000152707
0.000155386
0.000152098
0.000144255
0.000133234
0.000119334
0.000101467
7.76251e-05
4.73057e-05
2.06999e-05
1.20496e-05
2.4954e-05
8.28018e-06
4.45528e-06
2.8312e-05
6.6769e-05
9.49187e-05
5.01674e-05
2.92902e-05
2.39945e-05
2.24043e-05
2.23508e-05
2.41591e-05
2.80632e-05
3.38387e-05
4.05943e-05
4.7085e-05
5.26155e-05
5.73032e-05
6.2183e-05
6.81582e-05
7.53986e-05
8.41605e-05
9.58065e-05
0.000110648
0.000125037
0.000134024
0.000136111
0.000132367
0.000123817
0.000109982
8.77014e-05
5.67903e-05
3.01725e-05
1.68366e-05
1.43597e-05
3.92415e-05
8.88744e-06
4.91559e-06
3.34432e-05
8.73307e-05
0.000157467
0.000155029
0.000114439
7.72541e-05
5.37246e-05
3.86489e-05
2.88693e-05
2.30404e-05
2.03099e-05
2.03125e-05
2.33896e-05
3.06675e-05
4.25824e-05
5.43615e-05
6.00384e-05
6.25426e-05
6.81537e-05
7.82148e-05
8.79761e-05
9.26529e-05
9.34426e-05
9.27845e-05
9.10375e-05
8.7606e-05
8.17758e-05
7.14996e-05
5.20694e-05
2.83886e-05
1.67177e-05
2.1387e-05
6.98869e-05
8.73601e-06
4.67711e-06
2.154e-05
5.89671e-05
0.000125336
0.000170172
0.000174131
0.000154093
0.000120622
8.74149e-05
6.30361e-05
4.81368e-05
3.94477e-05
3.36012e-05
2.90141e-05
2.50412e-05
2.14526e-05
2.01018e-05
2.62782e-05
3.71946e-05
4.49536e-05
6.26429e-05
7.66607e-05
8.46846e-05
9.3807e-05
0.000101844
0.000106229
0.000106121
0.000101194
9.34568e-05
8.58019e-05
6.40026e-05
1.25319e-05
7.71246e-06
2.62803e-05
8.90813e-06
7.64915e-06
2.81969e-05
6.76466e-05
0.00013045
0.000166307
0.000152784
0.000120016
8.6836e-05
5.79086e-05
3.70344e-05
3.01255e-05
3.66009e-05
5.1734e-05
6.16934e-05
5.79325e-05
4.70926e-05
3.58381e-05
2.92737e-05
2.89531e-05
3.88158e-05
4.74337e-05
4.02476e-05
4.74075e-05
6.42067e-05
8.45395e-05
0.000104281
0.000115763
0.000104425
7.12638e-05
4.2001e-05
2.82332e-05
2.06177e-05
1.98779e-05
6.84186e-05
9.58377e-06
1.09546e-05
5.92609e-05
0.000147626
0.00016301
0.000154854
0.000138211
0.000108405
6.9529e-05
3.73261e-05
1.8028e-05
1.17315e-05
1.65867e-05
3.19714e-05
5.57385e-05
5.37449e-05
3.31527e-05
2.26952e-05
2.06421e-05
2.84581e-05
5.681e-05
6.72348e-05
5.94435e-05
6.0358e-05
6.98838e-05
8.31387e-05
9.37414e-05
9.80754e-05
9.5417e-05
7.15289e-05
3.38867e-05
1.86288e-05
1.87503e-05
3.43669e-05
0.000106117
9.26404e-06
1.02337e-05
5.86998e-05
0.00010301
0.000128206
0.000147042
0.000150605
0.000139176
0.000118167
8.73474e-05
5.51303e-05
3.20447e-05
1.94129e-05
1.49286e-05
1.75529e-05
2.40268e-05
2.27543e-05
2.03518e-05
2.07313e-05
2.30028e-05
2.56837e-05
2.81264e-05
3.12463e-05
3.52024e-05
3.95943e-05
4.35583e-05
4.63331e-05
4.81235e-05
5.34979e-05
7.1252e-05
8.29484e-05
3.22803e-05
4.34889e-06
1.29295e-05
7.27086e-05
9.34088e-06
5.44758e-06
2.84013e-05
7.90495e-05
0.000156672
0.00020445
0.000219117
0.000208112
0.000172297
0.000129794
9.93247e-05
7.97203e-05
6.20995e-05
4.48599e-05
3.22266e-05
2.47271e-05
1.99271e-05
1.57696e-05
1.23634e-05
1.1197e-05
1.40906e-05
2.21154e-05
2.90775e-05
3.29249e-05
3.76349e-05
4.25815e-05
4.65596e-05
4.75707e-05
4.20995e-05
3.3644e-05
3.3827e-05
3.59009e-05
1.43745e-05
1.23359e-05
6.15702e-05
1.03574e-05
6.13614e-06
2.42317e-05
6.03181e-05
0.000125748
0.000193003
0.000214994
0.00020625
0.000191094
0.000181547
0.000176355
0.000167284
0.000151686
0.00013339
0.000112898
9.11534e-05
7.25439e-05
5.77472e-05
4.55482e-05
3.52252e-05
2.52691e-05
1.24172e-05
2.02592e-07
3.6994e-06
9.17892e-07
8.83959e-06
1.53621e-05
1.83021e-05
1.82281e-05
1.83708e-05
2.08894e-05
2.60677e-05
3.84019e-05
7.79985e-05
6.76144e-05
9.83563e-06
9.16377e-06
3.93056e-05
0.000122666
0.000207716
0.000229988
0.000226174
0.000204973
0.000169133
0.000127807
9.25001e-05
6.85901e-05
5.57948e-05
5.30672e-05
6.2823e-05
9.15739e-05
0.000137204
0.000152179
0.000115895
7.93892e-05
5.56312e-05
4.00565e-05
2.89469e-05
2.16334e-05
1.55942e-05
4.76752e-06
4.6562e-06
3.67205e-06
3.18453e-06
4.13735e-06
8.42197e-06
1.16422e-05
1.31648e-05
2.9609e-05
9.88085e-05
8.59908e-06
1.07338e-05
5.79071e-05
0.00017418
0.000231996
0.000253904
0.00026285
0.000260632
0.000246467
0.000220231
0.000185467
0.000148687
0.000113458
8.2382e-05
6.04481e-05
5.12665e-05
5.74958e-05
8.15704e-05
0.000114279
0.000120515
9.19016e-05
6.16838e-05
4.01745e-05
2.30099e-05
1.19557e-05
3.82757e-06
7.31655e-07
4.32516e-06
8.56066e-06
3.07161e-06
4.82451e-06
1.99279e-06
3.07567e-06
4.1804e-06
3.33961e-05
9.71796e-06
1.0051e-05
4.46391e-05
0.000125407
0.000197204
0.000215411
0.000204894
0.000176034
0.000137957
0.000102528
7.84932e-05
6.9872e-05
7.85436e-05
0.000100541
0.000111811
9.82093e-05
8.61727e-05
9.23092e-05
0.000116925
0.000142911
0.000134251
8.98666e-05
4.93235e-05
2.45874e-05
9.58928e-06
1.91384e-06
3.38368e-07
1.1621e-06
4.64494e-06
1.35638e-05
4.10067e-05
9.12877e-05
3.28336e-05
2.01015e-05
8.39283e-05
1.11992e-05
1.0796e-05
5.78114e-05
0.000178548
0.000218935
0.000218124
0.000200371
0.000170209
0.000135824
0.000105484
8.16867e-05
6.55121e-05
6.19946e-05
8.02805e-05
0.000132639
0.000201367
0.000218426
0.000179523
0.000149045
0.000146834
0.000161479
0.000164332
0.000128651
7.59087e-05
4.06155e-05
2.30021e-05
1.10702e-05
4.79282e-06
1.58532e-06
3.045e-06
1.07485e-05
2.72816e-05
3.41602e-05
3.89389e-05
0.000130214
1.12248e-05
1.07625e-05
5.4355e-05
0.000154975
0.000205115
0.000206429
0.000182748
0.000147296
0.000116023
9.66527e-05
8.85738e-05
8.72629e-05
8.60591e-05
8.44053e-05
9.00702e-05
0.000108212
0.000136069
0.000164191
0.00018327
0.000190399
0.000187831
0.000171139
0.000130284
7.45123e-05
3.14285e-05
8.87836e-06
2.78319e-06
1.81807e-06
3.08948e-07
1.3047e-05
2.07741e-05
3.27714e-05
5.59625e-05
9.24542e-05
8.21882e-05
1.04955e-05
1.01909e-05
4.65333e-05
0.000137803
0.000193526
0.000191605
0.000165737
0.000131516
0.000102303
8.19075e-05
6.85362e-05
6.29418e-05
6.81311e-05
8.57703e-05
0.000113006
0.000143406
0.000173806
0.000202278
0.000222523
0.000227692
0.000217697
0.000199448
0.000178419
0.0001504
0.000107797
6.36077e-05
3.79335e-05
2.48935e-05
6.93117e-06
3.57242e-06
9.77227e-06
1.69267e-05
3.19844e-05
7.48738e-05
7.17313e-05
9.84166e-06
1.08323e-05
4.99872e-05
0.000149732
0.000199911
0.00018774
0.000152091
0.000114074
8.93064e-05
7.89819e-05
7.62549e-05
7.30688e-05
6.97607e-05
7.41934e-05
9.24152e-05
0.000125591
0.000166145
0.000200083
0.000219205
0.000224832
0.000221085
0.000210092
0.000193444
0.000173806
0.000151397
0.000116393
6.11935e-05
2.87869e-05
1.20208e-05
4.31116e-07
6.2267e-06
1.44472e-05
2.29818e-05
5.09275e-05
7.69856e-05
9.67286e-06
1.11568e-05
5.09764e-05
0.000150155
0.000193896
0.000173434
0.000129097
8.83001e-05
6.47063e-05
5.60354e-05
5.80735e-05
6.73637e-05
7.92841e-05
9.23515e-05
0.000112711
0.000147743
0.000197132
0.000248428
0.000285591
0.000301728
0.000299636
0.000285952
0.000265499
0.000240129
0.000209492
0.000163831
8.61323e-05
3.43745e-05
1.56794e-05
5.00548e-06
3.50242e-06
1.182e-05
1.64121e-05
3.16073e-05
8.86899e-05
9.9363e-06
1.16832e-05
5.57932e-05
0.000163944
0.000190185
0.000157827
0.000109134
7.32209e-05
5.59994e-05
5.1831e-05
5.61853e-05
6.70091e-05
8.38675e-05
0.000105856
0.000131586
0.000160773
0.000193008
0.000225703
0.000254561
0.000275611
0.000286549
0.000286136
0.000273697
0.000248939
0.000209128
0.000148626
7.44509e-05
3.30773e-05
1.9517e-05
1.19436e-05
6.8955e-06
1.09804e-05
1.42622e-05
3.03316e-05
0.00010408
1.08532e-05
1.18025e-05
6.10365e-05
0.000170636
0.000179147
0.000137808
8.81836e-05
5.68626e-05
4.36052e-05
4.33268e-05
5.37582e-05
7.23969e-05
9.58744e-05
0.000122018
0.000149136
0.000175985
0.000202276
0.00022774
0.000251203
0.000270527
0.000283
0.000285388
0.000274515
0.000247474
0.00020131
0.000135858
6.65358e-05
2.77023e-05
1.66829e-05
1.71311e-05
1.81056e-05
2.367e-05
2.92817e-05
5.48532e-05
0.000108792
1.14204e-05
1.15073e-05
5.81683e-05
0.000162193
0.000179098
0.000147485
0.000100986
6.57281e-05
4.6542e-05
3.97806e-05
4.40713e-05
5.9006e-05
8.12971e-05
0.000105488
0.000129156
0.000153541
0.0001804
0.000209732
0.000239431
0.000266552
0.0002885
0.000302712
0.000305442
0.000290823
0.000251847
0.000184217
9.95673e-05
3.92562e-05
1.69562e-05
1.58426e-05
1.82063e-05
2.35099e-05
3.65778e-05
7.60102e-05
0.000102788
1.14926e-05
1.0986e-05
5.3744e-05
0.000153859
0.000184064
0.000162307
0.000119367
8.13374e-05
5.70772e-05
4.29825e-05
3.7385e-05
4.16197e-05
5.67223e-05
7.9495e-05
0.00010452
0.000130742
0.000160802
0.000197853
0.000242544
0.000289278
0.000326176
0.00034249
0.000334232
0.00030121
0.000244627
0.000169604
9.22207e-05
3.76564e-05
1.35113e-05
1.27121e-05
2.48263e-05
3.67294e-05
5.70545e-05
0.000107972
8.12313e-05
1.11719e-05
1.07777e-05
4.82057e-05
0.000141071
0.000184759
0.000170465
0.000130921
9.43115e-05
7.19829e-05
5.64836e-05
4.31278e-05
3.48147e-05
3.5138e-05
4.61595e-05
6.74091e-05
9.98472e-05
0.000150721
0.000225427
0.000311519
0.000378792
0.00041021
0.000409379
0.000382788
0.000333879
0.000265987
0.000185355
0.000104931
4.50515e-05
1.51999e-05
8.548e-06
2.06177e-05
4.92125e-05
9.23794e-05
0.00012517
5.85695e-05
1.02434e-05
1.08626e-05
4.63559e-05
0.000135025
0.000183763
0.000167444
0.000123749
8.74986e-05
7.31894e-05
7.18011e-05
6.57876e-05
4.91416e-05
3.4397e-05
2.84367e-05
3.39871e-05
5.29783e-05
7.66056e-05
9.72617e-05
0.000124243
0.000167223
0.000223811
0.000274969
0.000300664
0.00029409
0.0002567
0.000196647
0.000129247
7.02549e-05
3.00442e-05
1.1835e-05
1.32348e-05
3.34223e-05
8.40746e-05
0.000113266
4.96545e-05
9.61401e-06
1.1582e-05
5.06444e-05
0.000144662
0.000185125
0.000163978
0.000117352
7.87508e-05
6.31838e-05
6.57992e-05
7.6993e-05
7.54347e-05
5.40037e-05
3.44655e-05
2.58833e-05
2.9345e-05
4.5224e-05
7.21756e-05
0.000105177
0.000141205
0.000180636
0.000218716
0.000245969
0.000255486
0.000244318
0.000211148
0.000160402
0.000106469
6.23684e-05
3.19965e-05
1.74633e-05
1.96478e-05
4.40302e-05
9.65579e-05
5.09514e-05
9.65189e-06
1.20703e-05
5.74409e-05
0.000157963
0.000182676
0.000156456
0.000110946
7.63899e-05
6.23398e-05
6.34862e-05
7.30554e-05
7.87457e-05
6.63011e-05
4.35506e-05
2.88563e-05
2.82625e-05
4.05101e-05
6.31231e-05
9.03567e-05
0.000114961
0.000135457
0.000155255
0.000175383
0.000191284
0.000196802
0.000188379
0.0001648
0.000129156
9.19206e-05
6.12007e-05
3.71863e-05
2.26489e-05
2.53247e-05
5.86879e-05
6.37478e-05
1.01546e-05
1.22502e-05
6.1782e-05
0.000162784
0.000180119
0.000155048
0.000111966
7.80481e-05
6.37181e-05
6.43775e-05
7.14822e-05
7.11137e-05
5.5468e-05
3.51479e-05
2.51508e-05
3.50218e-05
6.41436e-05
0.000104383
0.000136501
0.000152932
0.000160642
0.000168106
0.000177478
0.000184782
0.000184931
0.000175775
0.000157469
0.000131746
0.000103911
7.99377e-05
5.77511e-05
3.38206e-05
2.3158e-05
4.28695e-05
7.6777e-05
1.06111e-05
1.20567e-05
5.98906e-05
0.000157706
0.000181855
0.000166666
0.000131155
9.00099e-05
6.36819e-05
5.62047e-05
6.33046e-05
7.56273e-05
7.36636e-05
5.24496e-05
3.22803e-05
2.87112e-05
4.86e-05
9.64953e-05
0.000152867
0.000175716
0.000171499
0.00016311
0.000160284
0.000162166
0.00016326
0.000158546
0.000146587
0.000128629
0.000107015
8.61479e-05
6.59952e-05
4.06291e-05
2.53689e-05
4.05335e-05
8.98415e-05
1.11507e-05
1.1894e-05
5.70152e-05
0.000153957
0.000185435
0.000177419
0.000152513
0.000114331
7.55534e-05
5.34385e-05
4.96014e-05
6.15645e-05
8.57825e-05
0.000100729
7.27178e-05
3.11231e-05
9.70815e-06
2.23562e-05
6.50183e-05
0.000142942
0.000205727
0.000214331
0.000196364
0.000178657
0.000166042
0.000153028
0.00013417
0.000111298
9.11062e-05
7.41445e-05
5.71765e-05
3.95328e-05
3.27666e-05
5.85624e-05
9.70396e-05
1.18858e-05
1.1477e-05
5.25847e-05
0.000146667
0.000187215
0.000181853
0.000160004
0.000129744
9.30716e-05
6.10148e-05
4.61984e-05
4.73586e-05
6.02465e-05
7.84177e-05
8.93873e-05
7.61367e-05
3.95187e-05
1.41626e-05
2.94311e-05
8.693e-05
0.000197442
0.000260806
0.000243107
0.000201484
0.000164409
0.000131763
9.72759e-05
6.89651e-05
6.15697e-05
6.52817e-05
5.83514e-05
4.64306e-05
5.1047e-05
9.96307e-05
8.80549e-05
1.19809e-05
1.16362e-05
5.19425e-05
0.000146069
0.000189416
0.000180593
0.000154516
0.000126165
9.82851e-05
6.81822e-05
4.79952e-05
4.49351e-05
5.74064e-05
8.10994e-05
0.000101321
9.8664e-05
7.2372e-05
3.80622e-05
1.48085e-05
2.68189e-05
8.40656e-05
0.000204497
0.000274409
0.000248488
0.000185991
0.000123194
7.33357e-05
4.39933e-05
3.97668e-05
5.85541e-05
7.80763e-05
7.6009e-05
9.01476e-05
0.000142085
6.9598e-05
1.12235e-05
1.19065e-05
5.37481e-05
0.000148113
0.000186301
0.000171442
0.00013822
0.000107525
8.64302e-05
6.80721e-05
5.06625e-05
4.40867e-05
5.16797e-05
7.19483e-05
9.75689e-05
0.000112812
0.000105415
7.89152e-05
4.62044e-05
2.31121e-05
2.90604e-05
7.36362e-05
0.000156087
0.000200838
0.000179351
0.000129
7.77318e-05
4.34238e-05
3.15196e-05
4.13483e-05
7.48811e-05
0.00011286
0.000138698
0.000147883
5.45613e-05
1.02103e-05
1.23107e-05
5.6803e-05
0.00015278
0.000184648
0.000165485
0.000129617
9.79609e-05
7.63136e-05
6.05284e-05
4.89133e-05
4.60397e-05
5.50002e-05
7.49789e-05
9.97879e-05
0.000117797
0.000119927
0.000106577
8.30116e-05
5.10264e-05
2.54068e-05
2.70242e-05
5.64228e-05
0.000104452
0.000139062
0.000134745
0.000100413
6.13799e-05
3.80056e-05
3.41284e-05
4.96362e-05
9.07435e-05
0.000136083
0.000136273
5.14851e-05
9.92278e-06
1.24066e-05
5.68351e-05
0.000153849
0.000180873
0.000152493
0.000113588
8.7657e-05
7.30453e-05
6.0256e-05
4.76162e-05
4.38677e-05
5.42412e-05
7.84524e-05
0.000109565
0.000134057
0.000140577
0.000124992
9.0223e-05
4.92187e-05
2.5543e-05
2.73427e-05
5.56784e-05
0.000110152
0.000159157
0.000166886
0.000140016
9.91752e-05
6.36983e-05
4.46808e-05
4.30752e-05
5.98912e-05
9.80719e-05
0.000126921
5.48983e-05
1.04175e-05
1.26166e-05
5.6098e-05
0.000153412
0.000175004
0.000136024
9.50966e-05
7.38526e-05
6.57483e-05
5.96955e-05
4.95394e-05
4.42806e-05
5.38609e-05
8.13299e-05
0.000120813
0.000153209
0.000157323
0.00012344
7.09639e-05
3.61107e-05
2.79266e-05
4.4993e-05
9.34854e-05
0.000164393
0.000207242
0.000204052
0.000174382
0.000135362
9.71524e-05
6.70695e-05
4.97111e-05
4.73176e-05
6.58141e-05
0.000110137
5.81742e-05
1.10287e-05
1.29694e-05
5.74968e-05
0.000156157
0.00016005
0.000108047
7.11093e-05
5.6359e-05
5.31119e-05
5.23078e-05
4.79387e-05
4.59335e-05
5.8307e-05
9.17074e-05
0.000137508
0.000165026
0.000146438
8.99726e-05
4.6063e-05
3.53035e-05
5.06533e-05
9.5982e-05
0.000174107
0.000241849
0.000258375
0.00023574
0.000195421
0.00015104
0.000109952
7.59674e-05
5.27581e-05
4.56808e-05
6.4705e-05
0.000118172
5.66577e-05
1.12715e-05
1.33956e-05
6.32577e-05
0.000163276
0.000134332
7.85475e-05
5.11057e-05
4.22352e-05
4.18334e-05
4.42461e-05
4.68108e-05
5.34105e-05
7.28309e-05
0.000106414
0.000137837
0.0001469
0.000123709
7.88633e-05
4.30631e-05
3.44522e-05
5.6899e-05
0.000122531
0.00021906
0.000279424
0.000287919
0.000264793
0.000224854
0.000177266
0.000129782
8.92732e-05
6.14815e-05
5.25198e-05
7.40125e-05
0.000129206
5.56918e-05
1.09563e-05
1.33147e-05
6.97116e-05
0.000155912
0.00010176
5.5943e-05
3.72379e-05
3.19782e-05
3.37003e-05
4.03232e-05
5.28174e-05
7.45542e-05
0.00010049
0.000115675
0.000116756
0.000103995
7.83964e-05
5.14022e-05
3.67863e-05
4.18676e-05
7.66501e-05
0.000157894
0.000255787
0.00030877
0.000316455
0.000298467
0.000265368
0.000222798
0.000175496
0.000128488
8.89511e-05
6.71528e-05
7.41454e-05
0.000123294
6.57302e-05
1.10001e-05
1.28313e-05
6.9733e-05
0.000146844
9.44317e-05
5.35448e-05
3.61732e-05
3.09403e-05
3.4212e-05
4.73903e-05
6.99994e-05
9.0116e-05
9.5929e-05
9.04822e-05
7.93259e-05
6.40085e-05
4.60133e-05
3.4863e-05
3.97246e-05
6.88018e-05
0.000132862
0.000220284
0.000295698
0.000340713
0.000354693
0.000341615
0.000309855
0.000267168
0.000216781
0.00016046
0.000107434
7.47682e-05
7.39224e-05
0.00011807
8.9336e-05
1.21665e-05
1.23439e-05
6.4527e-05
0.00014678
0.000108254
6.40075e-05
4.23145e-05
3.47063e-05
3.59726e-05
4.75249e-05
6.96142e-05
8.65688e-05
7.92143e-05
5.5988e-05
3.70045e-05
2.84966e-05
2.99805e-05
4.66535e-05
9.04495e-05
0.000166915
0.000239786
0.000277544
0.000288992
0.000292874
0.000300072
0.000306438
0.000297365
0.000264131
0.00021011
0.000150441
0.000105062
8.52954e-05
9.99858e-05
0.000160105
0.000100477
1.30685e-05
1.21985e-05
6.07138e-05
0.000145107
0.000122652
7.80098e-05
5.11288e-05
3.9693e-05
3.50223e-05
3.59603e-05
4.63257e-05
6.0277e-05
5.39034e-05
3.1784e-05
2.1055e-05
2.64152e-05
4.60433e-05
8.31458e-05
0.0001415
0.000196331
0.000226516
0.000247142
0.000259527
0.000256722
0.000247734
0.000244771
0.000243794
0.000229499
0.000195941
0.000155521
0.000127209
0.00012453
0.000157078
0.000195062
8.04323e-05
1.2457e-05
1.21249e-05
5.99576e-05
0.000143137
0.000121745
7.91785e-05
5.2931e-05
4.11525e-05
3.38032e-05
2.74576e-05
2.93417e-05
4.27154e-05
5.09195e-05
3.28131e-05
1.65485e-05
1.92156e-05
5.41676e-05
0.000175398
0.000267249
0.000217495
0.000170111
0.000151414
0.000162231
0.000197759
0.000231595
0.000233603
0.000215687
0.000196537
0.00017941
0.000164723
0.000158544
0.00016934
0.000193884
0.000186074
6.69513e-05
1.15081e-05
1.20675e-05
6.05518e-05
0.00014384
0.000122154
7.97954e-05
5.39881e-05
4.4315e-05
3.98814e-05
2.91579e-05
1.82338e-05
2.17179e-05
4.10666e-05
5.39443e-05
3.23396e-05
1.50056e-05
1.81844e-05
5.91397e-05
0.000242669
0.000392849
0.000290082
0.000186877
0.000137055
0.000129588
0.000158136
0.000209151
0.000230436
0.000209868
0.000183743
0.00016941
0.000170473
0.000185366
0.000201818
0.000184928
6.83268e-05
1.14482e-05
1.18693e-05
5.84632e-05
0.000142295
0.000127195
8.57159e-05
5.74324e-05
4.69562e-05
4.84451e-05
4.96975e-05
3.10182e-05
1.18705e-05
1.38889e-05
3.55436e-05
5.78762e-05
3.94451e-05
1.98461e-05
1.88858e-05
4.28167e-05
0.000127966
0.000297179
0.000311392
0.000220578
0.000145141
0.000114188
0.000122914
0.000167227
0.000212436
0.000218379
0.000206669
0.000200527
0.000205509
0.000212462
0.000193119
7.18594e-05
1.15155e-05
1.17965e-05
5.63635e-05
0.000142045
0.000130595
8.96217e-05
6.02757e-05
4.67325e-05
4.42258e-05
5.2048e-05
6.43637e-05
4.9855e-05
1.82141e-05
1.20773e-05
3.28951e-05
6.55552e-05
5.05853e-05
2.63355e-05
1.88507e-05
2.82785e-05
6.38119e-05
0.000151794
0.000252847
0.000228763
0.000151167
0.000106913
0.000106161
0.000142937
0.000193613
0.00021961
0.000224588
0.000223109
0.000216215
0.000180349
6.23034e-05
1.08263e-05
1.19155e-05
5.51055e-05
0.000140588
0.0001319
9.05455e-05
6.35346e-05
5.34831e-05
5.0198e-05
4.81727e-05
5.03393e-05
5.90385e-05
5.82383e-05
2.90101e-05
1.38483e-05
2.50792e-05
6.26953e-05
7.22113e-05
4.23496e-05
2.39013e-05
2.10574e-05
3.35682e-05
6.93554e-05
0.000132527
0.000169907
0.000146427
0.000119797
0.000119632
0.000144248
0.000176773
0.000198071
0.000204072
0.00019474
0.000147292
4.89067e-05
9.75748e-06
1.20561e-05
5.51431e-05
0.000140149
0.000127038
8.294e-05
5.68794e-05
5.03015e-05
5.59037e-05
6.69553e-05
7.26747e-05
6.7826e-05
5.85252e-05
4.61271e-05
2.53775e-05
1.29814e-05
2.22378e-05
5.84836e-05
8.36194e-05
5.9621e-05
3.23646e-05
1.98866e-05
2.08688e-05
3.5944e-05
6.86388e-05
0.000114899
0.000150218
0.000160657
0.000161779
0.000167304
0.000176972
0.000182806
0.000174951
0.000128707
4.23689e-05
9.1603e-06
1.19532e-05
5.33031e-05
0.00013726
0.000125168
8.13287e-05
5.60339e-05
4.9596e-05
5.28018e-05
6.03533e-05
7.0619e-05
8.08237e-05
8.32414e-05
7.14182e-05
4.83329e-05
2.5845e-05
1.8717e-05
3.54638e-05
8.19079e-05
0.000108931
8.23961e-05
4.53902e-05
2.33795e-05
1.5893e-05
2.03908e-05
3.80331e-05
7.49177e-05
0.000137649
0.000194766
0.000211202
0.000208519
0.00020037
0.000183215
0.000132512
4.28352e-05
9.1469e-06
1.20805e-05
5.34843e-05
0.00013576
0.00012256
7.66281e-05
5.25618e-05
4.97727e-05
5.94403e-05
7.34767e-05
8.35962e-05
8.56153e-05
7.88615e-05
6.27806e-05
4.14514e-05
2.53508e-05
2.06044e-05
3.34246e-05
8.22829e-05
0.000162002
0.000170538
0.000114798
6.05868e-05
2.85137e-05
1.42567e-05
1.25859e-05
2.25744e-05
4.90807e-05
0.000105802
0.00018032
0.000207658
0.000204598
0.000186647
0.000134036
4.45918e-05
9.26046e-06
1.21013e-05
5.55913e-05
0.000135647
0.000113029
6.76927e-05
4.62798e-05
4.56116e-05
5.82032e-05
7.62157e-05
9.1522e-05
9.76266e-05
8.76754e-05
6.15187e-05
3.62574e-05
2.5815e-05
3.14324e-05
6.12739e-05
0.000147202
0.000271549
0.000292207
0.000221564
0.000136664
7.24195e-05
3.38439e-05
1.48145e-05
9.13629e-06
1.40311e-05
3.07539e-05
6.68709e-05
0.000126319
0.000160568
0.000154812
0.000113434
4.09584e-05
9.22825e-06
1.20723e-05
5.65171e-05
0.000133949
0.000116742
7.25026e-05
4.73184e-05
4.40984e-05
5.62526e-05
7.51096e-05
8.86838e-05
9.01444e-05
7.65053e-05
5.1729e-05
3.20133e-05
2.78631e-05
4.25915e-05
8.89412e-05
0.000186419
0.000287827
0.000319044
0.000283844
0.000220377
0.000152543
9.31273e-05
5.02096e-05
2.4932e-05
1.34449e-05
1.19055e-05
1.87019e-05
3.58676e-05
7.13965e-05
0.000110112
9.41359e-05
3.61378e-05
9.27774e-06
1.211e-05
5.7726e-05
0.00013383
0.000122248
8.04304e-05
4.89465e-05
3.92324e-05
4.64293e-05
6.52353e-05
8.47638e-05
9.42571e-05
8.86825e-05
6.72686e-05
4.16826e-05
2.98929e-05
3.9634e-05
8.16512e-05
0.000171274
0.000259212
0.000299745
0.000294835
0.000265184
0.000224484
0.000178203
0.000130147
8.65287e-05
5.35489e-05
3.28531e-05
2.23428e-05
1.97144e-05
2.43933e-05
4.29882e-05
8.20322e-05
3.73311e-05
9.81829e-06
1.20325e-05
5.70155e-05
0.000134616
0.000135921
0.000104259
6.34713e-05
4.03924e-05
3.69818e-05
4.88267e-05
7.01741e-05
8.9467e-05
9.73669e-05
8.94867e-05
6.46958e-05
3.79438e-05
3.01881e-05
5.00759e-05
0.000112869
0.00021486
0.00029077
0.000312414
0.000300364
0.000274949
0.000244404
0.000210497
0.000173602
0.000135475
9.97807e-05
7.00216e-05
4.71892e-05
2.98788e-05
2.19708e-05
4.10237e-05
5.17964e-05
1.06512e-05
1.19891e-05
5.55798e-05
0.000135186
0.00014696
0.000126904
8.88871e-05
5.13695e-05
3.40601e-05
3.51448e-05
5.13068e-05
7.69797e-05
9.98354e-05
0.000109761
0.000101355
7.20801e-05
4.05595e-05
3.39061e-05
6.01686e-05
0.000136883
0.000250826
0.000327017
0.000342605
0.000326347
0.000299919
0.000270794
0.000240234
0.000207812
0.000172846
0.000134276
9.0711e-05
4.70173e-05
2.4017e-05
3.57308e-05
7.08799e-05
1.1145e-05
1.19973e-05
5.44589e-05
0.000136518
0.000152366
0.000135951
0.000108262
7.14055e-05
4.08048e-05
2.99262e-05
3.69799e-05
5.95487e-05
9.09919e-05
0.00011758
0.000128503
0.000116765
8.03145e-05
4.47788e-05
4.03792e-05
7.36287e-05
0.000163837
0.000285735
0.000355108
0.000361864
0.000340488
0.000310647
0.00027834
0.000244134
0.000205949
0.000159581
0.000103245
5.22122e-05
2.96413e-05
4.61962e-05
7.20483e-05
1.09881e-05
1.20961e-05
5.3609e-05
0.000135774
0.000152709
0.000134425
0.000108658
8.09367e-05
5.06098e-05
3.1744e-05
3.13578e-05
4.85019e-05
8.12552e-05
0.000119224
0.000146862
0.000153453
0.00013141
8.50715e-05
4.96728e-05
5.09853e-05
9.5974e-05
0.000200973
0.000312671
0.000356674
0.000348717
0.000320581
0.000285439
0.000246485
0.000202573
0.000151149
9.58068e-05
5.33717e-05
3.8486e-05
6.74498e-05
6.32782e-05
1.04334e-05
1.23079e-05
5.45326e-05
0.000137378
0.000148933
0.000125292
9.66103e-05
7.12292e-05
4.9185e-05
3.42731e-05
3.33562e-05
4.92223e-05
8.26982e-05
0.000126504
0.000165028
0.000184999
0.000177389
0.000138011
8.5223e-05
5.65988e-05
6.80197e-05
0.000129696
0.000240542
0.000320985
0.00033496
0.000313246
0.000277595
0.000235202
0.000187717
0.000136717
8.93547e-05
5.78962e-05
5.28266e-05
9.72428e-05
5.84209e-05
9.97025e-06
1.24441e-05
5.69462e-05
0.000140755
0.000142463
0.00011412
8.43223e-05
5.84036e-05
3.93029e-05
3.25255e-05
4.0634e-05
6.43614e-05
0.000103202
0.000148893
0.000188901
0.000213434
0.000214574
0.00018572
0.000132683
8.41437e-05
6.78393e-05
9.3432e-05
0.000170041
0.000263101
0.000302937
0.000293865
0.000262429
0.000220976
0.000174565
0.000128124
8.95118e-05
6.7756e-05
7.31478e-05
0.000124275
5.74756e-05
9.70081e-06
1.2369e-05
6.03499e-05
0.000143644
0.000131847
9.9753e-05
7.28001e-05
4.98235e-05
3.32863e-05
3.27644e-05
5.40997e-05
9.46857e-05
0.000140398
0.000181312
0.00021377
0.000234672
0.000238863
0.000219671
0.000175804
0.000122659
8.70857e-05
8.58229e-05
0.000126064
0.000204217
0.000266726
0.000278214
0.000256055
0.000218248
0.000173851
0.000130393
9.67936e-05
8.16986e-05
9.50859e-05
0.000141437
6.0966e-05
9.69408e-06
1.21022e-05
6.29534e-05
0.000142959
0.000120689
8.87275e-05
6.79133e-05
5.00903e-05
3.54005e-05
3.73028e-05
6.72182e-05
0.000123187
0.000174855
0.00021208
0.000238696
0.00025598
0.000260901
0.000247869
0.000213203
0.000163689
0.000119215
9.96529e-05
0.000114205
0.000163523
0.000223225
0.00025284
0.000246491
0.000218146
0.000179105
0.000138965
0.000108443
9.7451e-05
0.000115136
0.000154896
6.76186e-05
9.89481e-06
1.19257e-05
6.41884e-05
0.000143449
0.000114089
8.45387e-05
7.25682e-05
6.26781e-05
4.57214e-05
3.80482e-05
5.7607e-05
0.000113196
0.00018105
0.000230517
0.000262185
0.000281609
0.000288443
0.000278218
0.000246686
0.000197975
0.000148883
0.000119137
0.000120487
0.000156366
0.000210961
0.000243192
0.000240014
0.000214823
0.000180204
0.000145668
0.000120852
0.000115188
0.000136133
0.000167846
7.30387e-05
1.01222e-05
1.20845e-05
6.4877e-05
0.000146113
0.000109091
8.12565e-05
7.8932e-05
8.4254e-05
6.96978e-05
4.10116e-05
3.33504e-05
5.9758e-05
0.000129372
0.000211569
0.000267288
0.000299022
0.000313345
0.000309984
0.000285552
0.000240391
0.000186113
0.000142539
0.000124583
0.000138345
0.000181408
0.000225961
0.000236766
0.000216663
0.000183534
0.000151605
0.000131435
0.000131128
0.000154471
0.000177719
7.51724e-05
1.01902e-05
1.25418e-05
6.77992e-05
0.000146118
9.79053e-05
7.25929e-05
7.61067e-05
9.65785e-05
0.000112161
8.32178e-05
3.53089e-05
2.34309e-05
4.75805e-05
0.0001164
0.000205634
0.000267393
0.000299013
0.000311283
0.000308304
0.000288691
0.000251486
0.000204273
0.000163936
0.00014427
0.000149104
0.000173975
0.000201254
0.000207591
0.000189929
0.000163008
0.000143679
0.000143712
0.00016625
0.000185917
7.90337e-05
1.02089e-05
1.29007e-05