/*--------------------------------*- C++ -*----------------------------------*\
| =========                 |                                                 |
| \\      /  F ield         | OpenFOAM: The Open Source CFD Toolbox           |
|  \\    /   O peration     | Version:  v1906                                 |
|   \\  /    A nd           | Web:      www.OpenFOAM.com                      |
|    \\/     M anipulation  |                                                 |
\*---------------------------------------------------------------------------*/
FoamFile
{
    version     2.0;
    format      ascii;
    class       volScalarField;
    location    "32";
    object      k;
}
// * * * * * * * * * * * * * * * * * * * * * * * * * * * * * * * * * * * * * //

dimensions      [0 2 -2 0 0 0 0];


internalField   nonuniform List<scalar> 
78750
(
0.607641
0.212247
0.108523
0.0413828
0.00268702
0.000164426
0.00205791
0.000646418
0.00116809
0.000936109
0.000940959
0.000946389
0.000966488
0.000987987
0.00100287
0.00100767
0.00100038
0.000980753
0.000951223
0.000915446
0.000876239
0.000835627
0.000793494
0.000749926
0.000707224
0.000671253
0.000646037
0.000633892
0.000636649
0.000646272
0.000636333
0.000585007
0.000509686
0.000439276
0.00013788
0.00181877
0.00703008
0.00368817
0.000992768
0.00209164
0.0031386
0.0029453
0.00288182
0.00268558
0.00246213
0.00219734
0.00191359
0.00165156
0.00143457
0.00126179
0.00112875
0.00103624
0.000980752
0.000947247
0.000920002
0.000891677
0.000861174
0.000829002
0.000795961
0.000764485
0.00073827
0.000718173
0.000701468
0.000684095
0.000661301
0.000627656
0.000579537
0.000509234
0.000400242
0.00135218
0.000939197
0.00358036
0.00403253
0.00401482
0.00330546
0.00257629
0.00226078
0.00206285
0.00192332
0.00184179
0.00178021
0.00167916
0.00154483
0.00140416
0.0012783
0.00117192
0.0010869
0.00102056
0.000973508
0.000945272
0.000931004
0.000923631
0.000917124
0.000908735
0.000898337
0.000886812
0.000874624
0.000861482
0.000847039
0.000831585
0.000816121
0.000801857
0.000792928
0.000862918
0.00256592
0.00153086
0.00213405
0.00239764
0.00255723
0.00273824
0.00288688
0.00294433
0.00286697
0.00255027
0.00207574
0.00177467
0.00169249
0.00166215
0.00162419
0.00157482
0.0015127
0.00144261
0.00136926
0.00129627
0.00122801
0.00116938
0.00112302
0.00108803
0.00106187
0.00104152
0.001024
0.00100687
0.000988489
0.000967865
0.000944349
0.000916639
0.000878834
0.000822206
0.00101771
0.00345669
0.00192258
0.00318059
0.0033511
0.00331277
0.00304246
0.00259128
0.00216622
0.00190562
0.00181278
0.00175765
0.00168016
0.00157834
0.00147347
0.00137946
0.00131294
0.00126639
0.00122955
0.00120011
0.00118096
0.00117773
0.0011917
0.00120961
0.0012209
0.001226
0.00122741
0.00122635
0.00122317
0.0012178
0.00121006
0.00119967
0.00118599
0.00116877
0.00118284
0.00160993
0.00434756
0.00137111
0.00241117
0.00269527
0.00276578
0.00282624
0.00292328
0.00298821
0.00287312
0.00255592
0.00219341
0.0019466
0.00182837
0.00175396
0.00167008
0.00156528
0.00145277
0.00137183
0.00132439
0.00129771
0.00128754
0.00129083
0.00130373
0.0013181
0.00132797
0.00133226
0.0013323
0.00132952
0.00132462
0.00131736
0.00130631
0.00128748
0.00125006
0.00121022
0.00171644
0.00490177
0.00231732
0.0031539
0.00310606
0.00290163
0.00262501
0.00241724
0.00237658
0.00245664
0.00250111
0.00239153
0.00212327
0.00185387
0.00171795
0.00165474
0.00160873
0.00156037
0.00150674
0.00145547
0.00141571
0.00138977
0.00137564
0.00137137
0.0013754
0.00138599
0.00140123
0.00141895
0.00143726
0.00145538
0.00147353
0.00149209
0.0015105
0.00153159
0.00164245
0.00239168
0.00561186
0.00394573
0.00336612
0.00281452
0.00230885
0.00208767
0.00217438
0.00236487
0.00253311
0.00262818
0.00258582
0.00238625
0.00212481
0.00192302
0.001801
0.00173076
0.00168029
0.00163477
0.00158888
0.00154153
0.00149446
0.00145194
0.00141833
0.00139556
0.00138387
0.00138317
0.00139293
0.00141129
0.00143513
0.00146137
0.00148837
0.00151772
0.00156688
0.00178435
0.00269414
0.00593651
0.00365501
0.00278048
0.00217549
0.00171744
0.00166488
0.00167572
0.00174233
0.00179101
0.00182485
0.00184594
0.00184615
0.001815
0.00176247
0.001712
0.00166958
0.00163118
0.00159293
0.0015526
0.00151041
0.00147018
0.00143694
0.00141407
0.00140235
0.00140161
0.00141168
0.00143243
0.00146327
0.00150275
0.00154855
0.00159673
0.00163779
0.00164195
0.00175334
0.00282245
0.00645792
0.0012317
0.00295792
0.00334069
0.00320216
0.00276145
0.00226838
0.00195414
0.00175394
0.00163633
0.00158277
0.00157827
0.00160107
0.00162979
0.00165019
0.00165517
0.00164337
0.00161818
0.00158456
0.00154581
0.00150449
0.00146481
0.00143243
0.00141107
0.00140158
0.00140376
0.00141752
0.00144289
0.00148048
0.00153246
0.00160862
0.00173456
0.00193883
0.00226855
0.00346353
0.00699682
0.00133369
0.00459901
0.0051562
0.00524094
0.00516832
0.00490038
0.00442248
0.00383368
0.00320945
0.00261342
0.00210883
0.00172779
0.00147399
0.00134158
0.00131681
0.00137502
0.00147717
0.00156433
0.00158909
0.00155744
0.00150763
0.0014669
0.00144273
0.00143372
0.00143762
0.00145371
0.00148238
0.00152425
0.00157993
0.00165462
0.00178654
0.00216831
0.00321082
0.00445229
0.00698051
0.00125086
0.00344956
0.00441228
0.00486045
0.00507485
0.00517678
0.0051763
0.0050311
0.00471542
0.00427311
0.00382676
0.00343118
0.00304231
0.0026231
0.00217619
0.00173023
0.00128991
0.000996437
0.000976782
0.00116056
0.00135536
0.0014512
0.00146169
0.00143947
0.00141964
0.00141409
0.00142327
0.00144352
0.00146727
0.00147496
0.00142128
0.00117176
0.00147111
0.00311809
0.00748047
0.00259933
0.00413395
0.00473789
0.00487045
0.00475025
0.00445432
0.00399781
0.00341599
0.00278011
0.00223153
0.00207084
0.00234852
0.0027586
0.00305576
0.00316135
0.00307587
0.002768
0.00226737
0.00171068
0.00127275
0.00106475
0.00107474
0.00118656
0.00129656
0.00138007
0.00145074
0.00152674
0.00162462
0.00176875
0.00200516
0.00237951
0.00267386
0.00290524
0.00461331
0.00889287
0.00579975
0.00600963
0.00595047
0.00575722
0.00543396
0.00494622
0.00425213
0.00333191
0.00224783
0.00125696
0.000844006
0.00106924
0.00159042
0.00212423
0.00249755
0.00259528
0.00231721
0.00181692
0.00137635
0.00114651
0.00106426
0.00106423
0.00110788
0.00116225
0.00121199
0.00125246
0.0012815
0.00130191
0.00134271
0.00149986
0.00200095
0.00314211
0.00448976
0.00565138
0.00830668
0.00397784
0.00435034
0.00465537
0.00478341
0.00476456
0.0046484
0.00447989
0.00427894
0.00398986
0.0034839
0.00270969
0.00187956
0.00128743
0.00102781
0.000992022
0.00102229
0.00104578
0.00100995
0.000962596
0.00094518
0.000952171
0.000982323
0.00103142
0.00109236
0.00116066
0.00123621
0.00131885
0.0013923
0.0013824
0.00120181
0.000870946
0.00070356
0.00305708
0.00513158
0.00875717
0.00148324
0.00426021
0.0054314
0.00609786
0.00658908
0.00698115
0.00724846
0.00732627
0.00714407
0.00671171
0.00615891
0.00553178
0.0047454
0.00380315
0.0028197
0.0019318
0.00123846
0.000771779
0.000521776
0.000460155
0.000549154
0.000657703
0.000733484
0.000810566
0.000902078
0.00102844
0.00118652
0.00140448
0.00177646
0.00236708
0.00275259
0.0020047
0.00222305
0.00484754
0.00988304
0.00176479
0.00375872
0.00474296
0.00524285
0.00548303
0.00559385
0.00564919
0.00571043
0.0058393
0.00605911
0.00633328
0.00662336
0.00689411
0.00703985
0.00689707
0.00637315
0.00550762
0.00439653
0.00317224
0.00196912
0.00074163
7.02047e-06
0.00011382
3.39683e-05
0.000298835
0.000507452
0.000787115
0.00126073
0.00201261
0.00317815
0.00465801
0.00572757
0.00614392
0.00754459
0.0101091
0.00405358
0.00525875
0.00570582
0.00589595
0.00599234
0.00602819
0.00599304
0.00585824
0.00558374
0.00514287
0.00456792
0.0039841
0.00360147
0.0036126
0.00397996
0.00442097
0.00471234
0.00475015
0.00446707
0.00385403
0.00301195
0.00209269
0.00127167
0.000646853
0.00016723
0.000165299
0.000125669
8.55387e-05
0.000145817
0.000337659
0.00106756
0.00241475
0.00551872
0.00670746
0.00769514
0.00490197
0.00574005
0.00603655
0.00622164
0.00637172
0.00649742
0.00659977
0.00667782
0.00672563
0.00672328
0.0066198
0.00630979
0.00566917
0.00475134
0.00391813
0.00350444
0.00344524
0.00351222
0.00356938
0.00353098
0.00328341
0.00278616
0.00188416
0.000921617
0.000193948
1.68281e-05
6.99622e-05
0.000173702
0.000102714
0.000227615
8.49335e-05
0.000348886
0.000960227
0.00400091
0.00979658
0.00463596
0.00539613
0.00577911
0.00596271
0.00604285
0.00604894
0.00598602
0.00585051
0.00563826
0.00537495
0.00517572
0.00517739
0.00526155
0.00514513
0.0047139
0.00415244
0.003734
0.00349793
0.00335691
0.00323186
0.00304113
0.00263975
0.00188591
0.000807478
0.000115476
1.32878e-05
6.3264e-05
0.000461594
0.0018495
0.00359319
0.00391541
0.0032708
0.0031402
0.00608567
0.0123513
0.00542647
0.00615082
0.00637245
0.00646516
0.00650828
0.0065068
0.00645003
0.0063156
0.00606802
0.00566639
0.00511763
0.00460748
0.00439227
0.00440861
0.00445283
0.00442417
0.00427939
0.0040277
0.0037576
0.00353257
0.00334293
0.00313834
0.00282351
0.00226046
0.0014489
0.000499163
0.000127277
4.22773e-05
0.000344125
0.00219693
0.0042306
0.004494
0.00496763
0.00730233
0.0118804
0.00519344
0.00586257
0.00610794
0.00622275
0.00627971
0.00629074
0.00625592
0.00617788
0.00607058
0.00594731
0.00578169
0.00550054
0.00510153
0.00471896
0.00444678
0.00426535
0.0041208
0.00397097
0.00379353
0.00358658
0.00335067
0.00306169
0.0026411
0.0019429
0.000850785
0.000289517
0.00016718
3.27194e-05
0.00146032
0.00278183
0.0047161
0.00609935
0.00692309
0.00838656
0.0111488
0.00480361
0.00587037
0.00623304
0.00636638
0.0064053
0.0063743
0.00627233
0.00609703
0.00586032
0.00559142
0.00535301
0.00521733
0.00515637
0.00508249
0.00496667
0.00482762
0.0046849
0.00454332
0.00439657
0.00423458
0.00404864
0.00383391
0.00358057
0.00325088
0.00275816
0.00208626
0.0013889
0.000489427
0.000455712
0.00170506
0.00321642
0.00517218
0.00694163
0.00830531
0.0103241
0.00542774
0.00628468
0.00648448
0.00652344
0.00649659
0.00641447
0.00627707
0.00610384
0.00593812
0.00577986
0.00557194
0.00531222
0.00509622
0.0049768
0.00491423
0.00485911
0.00478906
0.00469737
0.00458255
0.00444562
0.00428769
0.0041079
0.00390261
0.00366414
0.00336497
0.0028903
0.00212705
0.0011046
4.45964e-05
0.000788914
0.00212391
0.00364654
0.00579182
0.00752049
0.0102125
0.00582228
0.00635742
0.00643888
0.0064056
0.00630242
0.00611496
0.00582733
0.00548815
0.00523397
0.00514877
0.00517144
0.00518563
0.00514811
0.00509311
0.00504891
0.00501229
0.00497203
0.00491972
0.00484962
0.00475737
0.00463984
0.00449492
0.00432048
0.00411139
0.00385034
0.00345286
0.00266056
0.00167068
0.000569086
0.000392676
0.00132221
0.00233834
0.00424035
0.0064792
0.0106916
0.00658531
0.00677082
0.00673809
0.00664192
0.00647596
0.00619877
0.00578189
0.00531228
0.00497934
0.00486585
0.00491244
0.00502056
0.00511676
0.0051767
0.00520517
0.00521022
0.00519533
0.00516039
0.00510322
0.00502112
0.00491094
0.00476895
0.00458989
0.00436219
0.00405188
0.00355082
0.0026655
0.00192072
0.0012139
0.000723868
0.0012713
0.00217188
0.00419414
0.00689131
0.0120567
0.00679288
0.00666617
0.00658083
0.006453
0.00623567
0.00586461
0.0053098
0.00472448
0.00439451
0.00439581
0.00457222
0.00479022
0.00499032
0.00515076
0.00526716
0.00534154
0.00537644
0.00537321
0.0053324
0.00525411
0.0051375
0.00497999
0.00477509
0.00450647
0.00413002
0.00353907
0.00258351
0.00197654
0.0020736
0.00215228
0.00283134
0.003869
0.00574875
0.00821374
0.0129159
0.00657259
0.00671785
0.00677095
0.00671352
0.00654563
0.00620883
0.00563384
0.00487602
0.00422928
0.00398985
0.00411907
0.00441454
0.00474435
0.00505279
0.00531472
0.00551737
0.00565684
0.00573483
0.00575481
0.00571961
0.00563045
0.00548677
0.00528488
0.00501262
0.00463489
0.0040554
0.00309057
0.00201077
0.00219516
0.00268604
0.00348507
0.0048171
0.00663196
0.00882234
0.0131411
0.00597345
0.00664806
0.00684909
0.00687825
0.0068142
0.00663238
0.00625275
0.00558478
0.00468585
0.00389567
0.00357476
0.00373976
0.00418597
0.00473014
0.00525778
0.00570206
0.00603138
0.00624229
0.00634893
0.0063699
0.00631818
0.00619678
0.00599826
0.00570073
0.00525189
0.00453501
0.00336733
0.00191163
0.00213857
0.0038915
0.00491338
0.00605876
0.0075345
0.00940702
0.0131674
0.00577446
0.00671951
0.00696998
0.00702288
0.00699696
0.0069038
0.00671998
0.00637709
0.00574554
0.00478915
0.00382118
0.00332821
0.00350909
0.00418929
0.00504223
0.00579716
0.00633255
0.00666458
0.00685146
0.00693469
0.00693128
0.00684104
0.00665131
0.00633445
0.00583671
0.00505233
0.00384805
0.00230234
0.00184777
0.00436637
0.00675286
0.00774677
0.00863812
0.00979213
0.0120376
0.00585408
0.00680305
0.00704546
0.00708035
0.00702174
0.00687983
0.00666239
0.00642711
0.00616587
0.00568216
0.00478635
0.00363426
0.00272649
0.00246048
0.00278818
0.0034611
0.0043445
0.00530532
0.00614825
0.00674796
0.007112
0.00728836
0.00730301
0.00714694
0.00677087
0.00607411
0.00494463
0.00341388
0.00213507
0.00303572
0.00609989
0.0081665
0.00902675
0.00974055
0.0111104
0.00667062
0.00714943
0.00722622
0.00719025
0.00708118
0.00687846
0.00656102
0.00619829
0.00590972
0.00565167
0.00523775
0.00445885
0.00338355
0.0025266
0.00235513
0.00268986
0.00324928
0.00392106
0.00464198
0.00533755
0.00593598
0.00640505
0.00673713
0.00692374
0.00693946
0.00672492
0.00617097
0.00517385
0.00387214
0.00301127
0.0038609
0.00619685
0.00783192
0.00900537
0.0112209
0.00726925
0.0072713
0.00722893
0.00715157
0.00701494
0.0067833
0.00643361
0.00602046
0.00562668
0.00524842
0.00482012
0.00422988
0.00338846
0.00254169
0.00230965
0.00259093
0.00301673
0.00344174
0.00385646
0.00428558
0.00473607
0.00518511
0.00559744
0.0059429
0.00619532
0.00632039
0.00625929
0.00591868
0.00522939
0.00430702
0.00362903
0.00428245
0.00626042
0.00823065
0.0119254
0.00747261
0.007331
0.00728567
0.00721344
0.00707668
0.00683911
0.00648543
0.00607968
0.0056978
0.00528917
0.00474797
0.00399314
0.00307039
0.00248813
0.00310812
0.00401315
0.00457157
0.00488946
0.00509989
0.00526937
0.00543413
0.00561175
0.00580171
0.00599212
0.00616531
0.00629682
0.00634874
0.00625974
0.0059505
0.00535416
0.00447435
0.00396374
0.00556292
0.00795475
0.0126181
0.00706743
0.00717483
0.00723534
0.00722598
0.00714258
0.00695927
0.00664619
0.00622431
0.00583928
0.00557102
0.00528897
0.00481411
0.00401706
0.00302569
0.00280878
0.00377769
0.00476385
0.00531762
0.00563047
0.00583552
0.00597971
0.00608669
0.0061775
0.00626631
0.00635614
0.00643963
0.00649554
0.00647675
0.00632537
0.00597765
0.00525488
0.0044262
0.00561105
0.0081341
0.0134636
0.00688534
0.00727187
0.00742398
0.007465
0.00742724
0.00729356
0.00702567
0.00657632
0.00600883
0.00558177
0.0053725
0.0052032
0.00487326
0.00414275
0.00263548
0.00104432
0.0022624
0.00404399
0.005053
0.00559484
0.00592245
0.00613706
0.00627125
0.00634999
0.00640173
0.00645003
0.0065084
0.00655701
0.00650344
0.00627901
0.00577348
0.00542544
0.00676156
0.00935052
0.0149903
0.00648673
0.00716307
0.0073946
0.00747399
0.00747385
0.0073901
0.00719347
0.00682816
0.00624293
0.00562292
0.00525801
0.00505803
0.00484209
0.00449914
0.00389915
0.00273595
0.00125406
0.00246957
0.00428032
0.00521606
0.00569368
0.00597116
0.00612157
0.00615592
0.00609913
0.00601109
0.00603925
0.00649442
0.00702156
0.00698299
0.00665568
0.00683832
0.00820509
0.0105115
0.0155515
0.00672719
0.00735908
0.00753008
0.00756933
0.00754189
0.00744401
0.00725201
0.00692636
0.00639976
0.00573453
0.0053245
0.00519551
0.0050824
0.00484304
0.00440551
0.0036916
0.00257605
0.00130955
0.00231599
0.0044379
0.0055724
0.00610055
0.00634338
0.0063838
0.00621921
0.00588574
0.00565673
0.00633574
0.00784676
0.00840887
0.0082951
0.00852295
0.00941422
0.0109647
0.0143627
0.00702345
0.00741427
0.00749434
0.00748489
0.00741497
0.00726983
0.00702654
0.00667334
0.00619863
0.00560686
0.00517957
0.00506952
0.00505574
0.00496867
0.0047491
0.00434971
0.00370636
0.00279409
0.00186877
0.00239961
0.00415142
0.00536351
0.00601252
0.00631697
0.00634693
0.00610617
0.0057524
0.00601483
0.00767016
0.00928236
0.00981593
0.0100675
0.0104765
0.0111762
0.0127536
0.00746739
0.00762769
0.00761408
0.00755568
0.00744626
0.00725794
0.00695973
0.00653704
0.00600784
0.00545274
0.0051211
0.00509035
0.00513712
0.00511844
0.00499912
0.00476487
0.00438718
0.00383428
0.0030851
0.00210792
0.0023507
0.00375403
0.00499065
0.00577163
0.00616448
0.00622823
0.00602504
0.00588142
0.00659544
0.00823912
0.0096133
0.0103034
0.0106624
0.0110025
0.0124934
0.00755943
0.00761042
0.00753775
0.00744076
0.00729831
0.00708217
0.00677866
0.00638484
0.00587981
0.00528632
0.00490588
0.00492045
0.00504577
0.00509449
0.00503552
0.00486982
0.00458192
0.00412597
0.00342438
0.00256295
0.00282128
0.00420779
0.00549025
0.00632819
0.00680867
0.00700934
0.00694065
0.00667204
0.0065561
0.00711576
0.00826733
0.0093292
0.00998243
0.0106945
0.0138506
0.00788375
0.00780951
0.00761313
0.00741699
0.00717756
0.00686428
0.00650994
0.0061557
0.00576034
0.00525289
0.00483069
0.00482472
0.00498675
0.00507517
0.00504582
0.00490006
0.00461015
0.00410025
0.00337425
0.00319238
0.00426528
0.00564256
0.00665727
0.00732153
0.00775248
0.00798806
0.0080071
0.00778848
0.00741224
0.0071713
0.00745728
0.00833531
0.00932748
0.0107664
0.0154322
0.00844379
0.00794544
0.00753859
0.00719622
0.006796
0.00629926
0.00582496
0.00548397
0.00522017
0.00491657
0.00465503
0.00473086
0.00493643
0.00504943
0.00503848
0.00489592
0.00456825
0.00403502
0.00398734
0.00498428
0.00630947
0.00738189
0.00810279
0.00859596
0.00892674
0.00909513
0.00906592
0.00879526
0.00828215
0.00768608
0.00750174
0.00829445
0.00957023
0.0114077
0.0158041
0.00932264
0.00807818
0.00744549
0.00694856
0.00634183
0.00560726
0.00499166
0.00466968
0.00456119
0.0045299
0.00458111
0.0047966
0.00500599
0.00511791
0.0051271
0.005016
0.00472904
0.00426368
0.00434977
0.00587838
0.00744885
0.00849381
0.00917539
0.0096555
0.0099797
0.0101384
0.0101001
0.00982576
0.00929688
0.00860778
0.00818221
0.00870421
0.00980953
0.0113662
0.0146302
0.00958396
0.00777085
0.00707755
0.00650685
0.00572879
0.00480269
0.00411126
0.00387843
0.00397784
0.00421885
0.00451507
0.00476147
0.0049053
0.00497582
0.00497393
0.00486939
0.00462897
0.0044531
0.00516764
0.00680099
0.00822372
0.00916218
0.00980268
0.0102705
0.0106017
0.0107971
0.0108448
0.0107241
0.0104089
0.00989371
0.00930975
0.00913727
0.00960612
0.01071
0.0142209
0.00909197
0.00746623
0.00692638
0.00642018
0.00566356
0.00472006
0.00398116
0.00376884
0.00395967
0.00420038
0.00434662
0.00441237
0.00443786
0.00445026
0.00446068
0.00445248
0.00455808
0.00535467
0.00680959
0.00813368
0.00913488
0.00989337
0.0104916
0.0109642
0.0113232
0.01157
0.0116911
0.0116584
0.011428
0.0109361
0.0101977
0.00967899
0.0100188
0.0113905
0.0163245
0.00840126
0.00731015
0.00693268
0.00655321
0.00597881
0.00516723
0.00434982
0.00390077
0.003882
0.00395837
0.00391943
0.00377128
0.00356514
0.00342117
0.00355248
0.00421604
0.00571666
0.00748255
0.00875134
0.00960031
0.0102528
0.0108337
0.0114129
0.0119992
0.0125275
0.0129061
0.0130692
0.0129683
0.0125576
0.0118526
0.0111069
0.0108913
0.0115297
0.0131844
0.0183008
0.00818902
0.00734559
0.00700633
0.00668556
0.00623287
0.00554587
0.00467159
0.0038989
0.00356851
0.00363584
0.00364791
0.00338123
0.00293148
0.00283436
0.00385105
0.00533203
0.00659096
0.0079514
0.00913926
0.010215
0.0112283
0.0121063
0.0128006
0.0133651
0.0138586
0.0142448
0.0144269
0.0143228
0.0139022
0.013266
0.0127325
0.0126638
0.0130983
0.0141647
0.0170965
0.0081132
0.0072317
0.00688011
0.00655561
0.00611165
0.00546793
0.00460798
0.0036427
0.00295309
0.00299487
0.00343511
0.00344196
0.00288901
0.00234315
0.0033348
0.00630662
0.00796986
0.00830875
0.00875359
0.00948196
0.0106022
0.0120401
0.0134111
0.0143021
0.0147172
0.0148953
0.0149584
0.0148973
0.0146836
0.0143571
0.0140574
0.0139161
0.0139301
0.0141339
0.0149669
0.00807464
0.00721036
0.00689693
0.0066094
0.00621438
0.00564523
0.00489536
0.00394628
0.00284539
0.00207398
0.00247087
0.00342074
0.00359124
0.00300103
0.00230864
0.00332117
0.00676973
0.00898675
0.0094378
0.0096531
0.0100078
0.0107324
0.0119611
0.0134774
0.0146557
0.015132
0.0151454
0.0149567
0.0146864
0.0144085
0.0141701
0.013983
0.0138349
0.0137897
0.0145979
0.00776081
0.00710504
0.00686472
0.00663699
0.00633107
0.00589721
0.00535721
0.00474596
0.00391438
0.00267556
0.00143017
0.00178001
0.0030938
0.00356244
0.00323695
0.00265307
0.00311056
0.00551958
0.00827873
0.00973877
0.0102661
0.0105115
0.0108222
0.0115103
0.0127953
0.01428
0.015147
0.0153393
0.0151394
0.0147552
0.0143413
0.0139899
0.0137503
0.0137575
0.0149671
0.00760677
0.00712291
0.00689757
0.00667863
0.00639886
0.00601844
0.00553912
0.00506911
0.00470675
0.00427337
0.00342449
0.00202197
0.00162938
0.00300595
0.00354351
0.00334668
0.0028012
0.00266301
0.00388552
0.00636229
0.00893413
0.0105057
0.0111849
0.0114328
0.011729
0.0126767
0.0141374
0.0152169
0.0156469
0.0155933
0.0152582
0.0148193
0.0144039
0.0141115
0.0143449
0.00765016
0.00715223
0.00689159
0.00666358
0.00640407
0.00609626
0.0057237
0.00522514
0.00465771
0.00421097
0.00391473
0.00352714
0.00267051
0.0018884
0.00283303
0.00374021
0.00371133
0.00324009
0.00271059
0.00287568
0.00441063
0.00716521
0.00997375
0.0117997
0.0125584
0.01281
0.0133042
0.0141197
0.0148465
0.0152402
0.0152736
0.0150179
0.0145493
0.0138364
0.0128264
0.00791007
0.00722449
0.00690667
0.00664453
0.00635207
0.00604064
0.00578774
0.00557986
0.00529543
0.00485681
0.00429138
0.00368452
0.00309562
0.00239888
0.00178347
0.00265329
0.00374251
0.00391125
0.00357484
0.00295204
0.00251525
0.00307958
0.00519883
0.00847837
0.0115785
0.0133783
0.0139228
0.0139698
0.0139899
0.0140325
0.0139994
0.0137965
0.0133596
0.0125704
0.0117725
0.00791905
0.00719958
0.00687411
0.00660021
0.00629217
0.00596964
0.00569804
0.00545394
0.00522913
0.00502516
0.00480257
0.00450699
0.00409613
0.00354703
0.00287164
0.00257975
0.00363512
0.00436714
0.00445817
0.00413233
0.00345597
0.00266255
0.00239527
0.00349755
0.00631831
0.0100166
0.0129258
0.0141999
0.0143755
0.0141049
0.0136849
0.0131995
0.0126161
0.0118438
0.0115854
0.00818012
0.00732819
0.00692536
0.00658984
0.00621828
0.00587444
0.00570274
0.00558647
0.00537397
0.00505658
0.00467186
0.00424585
0.00378554
0.00330105
0.0028942
0.00289944
0.00381411
0.00489573
0.00524573
0.00517686
0.00478469
0.00402098
0.00297567
0.00211948
0.00232014
0.00433339
0.00785191
0.0113542
0.0135831
0.0144895
0.0145646
0.0142055
0.0136021
0.0127037
0.0117722
0.00840418
0.00729623
0.00683861
0.00645649
0.0060096
0.00558383
0.00540937
0.00538853
0.00531623
0.00513242
0.00483584
0.00443404
0.00393988
0.00345416
0.0033687
0.00413855
0.00536955
0.00621446
0.00647604
0.0064588
0.00621395
0.00566377
0.00471611
0.00342452
0.00216291
0.00169996
0.00281805
0.00549665
0.00880717
0.0116409
0.0133957
0.0141123
0.0141308
0.0134624
0.0118873
0.00829802
0.0072728
0.00685441
0.00648096
0.00601578
0.00552777
0.00531096
0.00532823
0.00529086
0.00511137
0.00479689
0.00436635
0.00386691
0.00351447
0.00389075
0.00528678
0.00669069
0.00743157
0.00774169
0.00783327
0.00774768
0.00744572
0.00685188
0.00589253
0.00459176
0.0031913
0.00220113
0.00219906
0.00340169
0.00555328
0.00807451
0.0101972
0.0113795
0.0118118
0.0121145
0.00814842
0.00725408
0.00689592
0.0065567
0.00609068
0.00549427
0.00508477
0.0051198
0.00528546
0.00531841
0.005165
0.00483735
0.0043703
0.00390027
0.00394696
0.00527239
0.00707708
0.00807138
0.00858039
0.00886154
0.00898992
0.00896438
0.0087494
0.00829504
0.00755405
0.00651398
0.00527002
0.0040714
0.0032525
0.00310701
0.00378002
0.00531851
0.00723077
0.0091476
0.0130189
0.00782307
0.00723049
0.00701636
0.00678777
0.00642906
0.0058476
0.00513848
0.0048109
0.00497035
0.00521402
0.00530478
0.00519317
0.00488201
0.00439533
0.00390439
0.00420028
0.00605956
0.00781335
0.00874423
0.00927021
0.00960957
0.00982211
0.00990608
0.00983593
0.00957799
0.00909939
0.0083811
0.00744065
0.00635408
0.0052653
0.0043456
0.00387894
0.00532546
0.00829112
0.0142597
0.00753589
0.00724761
0.0071424
0.00701082
0.00677753
0.0063418
0.00558736
0.00477625
0.00459788
0.00495058
0.00532261
0.00550086
0.00545218
0.00517918
0.00468944
0.00413934
0.00451639
0.00650531
0.00817723
0.00911935
0.00968652
0.0100791
0.0103569
0.0105212
0.0105524
0.0104239
0.0101089
0.00958435
0.00883103
0.00781312
0.00645576
0.00487765
0.00567482
0.00887984
0.0148796
0.00746765
0.00727193
0.00719752
0.00711588
0.00696963
0.00668327
0.00611746
0.00513996
0.00436528
0.00450807
0.00506995
0.00553976
0.00577704
0.00577502
0.00554022
0.00507023
0.00451565
0.00501786
0.00695989
0.00849941
0.00940306
0.00997736
0.0103919
0.0106956
0.0108865
0.0109448
0.010844
0.0105525
0.0100243
0.00915913
0.00775979
0.00605185
0.00663119
0.00947962
0.0143654
0.00759324
0.00731262
0.00718916
0.00709425
0.00696308
0.00673228
0.006311
0.00553437
0.00451374
0.00430155
0.00488951
0.00557806
0.00605266
0.00627315
0.00625422
0.00600415
0.00551909
0.00502936
0.00577351
0.00760489
0.00892845
0.00972527
0.0102618
0.0106579
0.0109393
0.0110951
0.0111001
0.0109183
0.0104896
0.00969392
0.00837534
0.00697383
0.00743159
0.00953218
0.0131182
0.00797486
0.00738999
0.00716311
0.00701797
0.00684404
0.0065574
0.00608
0.0053876
0.00461448
0.00446574
0.0050916
0.00589562
0.00651018
0.00687116
0.00699709
0.00690224
0.00658398
0.00606223
0.00575213
0.00676605
0.00836229
0.00942241
0.010087
0.0105522
0.0108879
0.0110978
0.0111605
0.0110375
0.0106636
0.00993226
0.00879574
0.00778129
0.00807086
0.00939641
0.0119659
0.00835945
0.00739592
0.00709284
0.00691813
0.00670609
0.00633432
0.00569884
0.00489334
0.00449424
0.0049729
0.00586344
0.00671576
0.00734847
0.00774442
0.00792509
0.00790381
0.00768308
0.00726184
0.00673937
0.00672407
0.00788532
0.00914983
0.00996903
0.0105045
0.0108763
0.0111134
0.0112029
0.0111094
0.0107733
0.0101207
0.00919251
0.00847032
0.00857414
0.00931901
0.0111186
0.00849205
0.00729909
0.00699878
0.00683288
0.0066085
0.0061732
0.00541525
0.00456781
0.00462466
0.00587554
0.00704869
0.00789479
0.0084819
0.00885752
0.00904364
0.00904932
0.00887846
0.00853099
0.00803399
0.00761858
0.00793254
0.0089943
0.00991826
0.0105265
0.010928
0.0111815
0.0112909
0.0112308
0.0109532
0.0104086
0.00966497
0.00909946
0.00904748
0.00942036
0.010677
0.0082103
0.00714802
0.0069206
0.00679477
0.00661081
0.00621696
0.0055089
0.00477536
0.00509373
0.00672807
0.00804928
0.00892219
0.00951631
0.00990632
0.0101166
0.0101573
0.0100359
0.00975752
0.00933588
0.00886459
0.00868287
0.00916762
0.00993702
0.0105441
0.0109587
0.0112252
0.0113571
0.011339
0.011134
0.0107054
0.010114
0.0096377
0.00949936
0.009674
0.0106018
0.00779006
0.00709255
0.0069225
0.00683753
0.00675912
0.00655844
0.00606588
0.0053485
0.00513517
0.00647738
0.00810873
0.00921652
0.00996103
0.0104685
0.0107799
0.0109115
0.0108767
0.0106887
0.0103651
0.00996697
0.00969728
0.00989184
0.0104974
0.0110506
0.0114143
0.0116253
0.0117053
0.011649
0.0114351
0.0110486
0.0105517
0.0101442
0.0099727
0.0100396
0.0106641
0.00760905
0.00713817
0.00693258
0.00684437
0.00687221
0.00691708
0.00671158
0.00606337
0.00501404
0.00476364
0.00645538
0.00817774
0.00936235
0.0101829
0.0107673
0.0111494
0.0113391
0.0113458
0.0111843
0.0108912
0.0105777
0.0104985
0.01086
0.0114275
0.0118647
0.0121033
0.0121697
0.0120763
0.0118225
0.0114234
0.0109593
0.0105824
0.0103761
0.0103156
0.0104934
0.0079016
0.00724208
0.00688899
0.00673054
0.00680091
0.00701142
0.00709685
0.00686579
0.00610474
0.00451412
0.00376165
0.00553564
0.00744715
0.00881858
0.00982484
0.0106115
0.0112114
0.0116155
0.0118177
0.0118289
0.0116878
0.0114915
0.0114162
0.0115895
0.011926
0.0122346
0.012401
0.0123932
0.0122016
0.0118379
0.0113813
0.0109768
0.0107022
0.0105035
0.0103314
0.00839207
0.0072178
0.00667011
0.00644833
0.00661287
0.00693297
0.00713086
0.00715696
0.00697688
0.0063723
0.00459928
0.00368649
0.0052968
0.00701647
0.00833019
0.00935453
0.0102271
0.0109881
0.0116102
0.012054
0.0123045
0.0123797
0.0123286
0.0122322
0.0121867
0.012246
0.0123615
0.0124282
0.0123635
0.0121266
0.0117517
0.011361
0.011061
0.0108346
0.0108306
0.00856121
0.00692054
0.00624686
0.00601045
0.00631128
0.00675557
0.00697523
0.00696166
0.00675052
0.00635421
0.00568192
0.00418033
0.00461507
0.00595957
0.007158
0.0081345
0.00900208
0.00983263
0.0106229
0.0113252
0.0118953
0.0123154
0.0125848
0.0127087
0.0127137
0.0126825
0.0126995
0.0127397
0.0127122
0.0125443
0.0122264
0.0118441
0.0115261
0.0113537
0.0119272
0.00827769
0.00645163
0.00577956
0.00550064
0.00571107
0.00621014
0.00658541
0.00671293
0.006579
0.00614542
0.00531259
0.00399077
0.00401516
0.0051871
0.00627204
0.00715913
0.0079513
0.00873563
0.00956108
0.010444
0.0113358
0.0121388
0.0127719
0.0131965
0.0134174
0.0135009
0.0135379
0.0135497
0.013488
0.0132927
0.0129454
0.0125197
0.0121667
0.0120584
0.0133139
0.00780213
0.00610728
0.00550971
0.00511345
0.00496877
0.00532936
0.00588513
0.00624606
0.00628608
0.00597586
0.00522545
0.0039829
0.00324539
0.00439971
0.00552794
0.0065058
0.0075136
0.0086921
0.0100224
0.0113289
0.0124442
0.0133053
0.0139151
0.0142974
0.0144904
0.0145557
0.0145526
0.0144957
0.0143547
0.014088
0.0136935
0.0132502
0.0129056
0.0128665
0.014489
0.00732093
0.00609983
0.0055821
0.00505436
0.00446364
0.00430718
0.00487465
0.00557625
0.00592218
0.00583358
0.00525066
0.00397581
0.00243971
0.00342378
0.00480815
0.00621822
0.00801879
0.00998693
0.0116145
0.0128475
0.0138145
0.0145698
0.015104
0.0154143
0.0155348
0.0155192
0.0154149
0.0152439
0.0150027
0.0146798
0.0142921
0.0139061
0.0136266
0.0136286
0.0150379
0.00706283
0.0064195
0.00597957
0.00542397
0.00464141
0.00381395
0.00380319
0.00470629
0.0054928
0.00572785
0.0054068
0.00441769
0.00266567
0.00197074
0.0041157
0.00602258
0.00853098
0.0113679
0.013161
0.0140554
0.0146972
0.0152817
0.0158042
0.0161858
0.0163742
0.0163767
0.0162285
0.0159672
0.0156262
0.015234
0.014824
0.0144389
0.0141258
0.0139552
0.0144996
0.00719267
0.0068224
0.0063179
0.00571428
0.00499894
0.00419799
0.00340712
0.00386657
0.00501941
0.00569269
0.0057764
0.0052911
0.00399889
0.00186802
0.00174914
0.00449083
0.00706312
0.0104105
0.0134691
0.0149046
0.0154146
0.0157077
0.0159902
0.0162888
0.0165476
0.016692
0.0166784
0.0165057
0.0162014
0.0158046
0.0153554
0.0148855
0.0143998
0.0138226
0.0131383
0.00803858
0.00734335
0.0064345
0.00542443
0.00451122
0.00441465
0.00394379
0.00372736
0.00476707