/*--------------------------------*- C++ -*----------------------------------*\
| =========                 |                                                 |
| \\      /  F ield         | OpenFOAM: The Open Source CFD Toolbox           |
|  \\    /   O peration     | Version:  v1912                                 |
|   \\  /    A nd           | Website:  www.openfoam.com                      |
|    \\/     M anipulation  |                                                 |
\*---------------------------------------------------------------------------*/
FoamFile
{
    version     2.0;
    format      ascii;
    class       volScalarField;
    location    "186/oil";
    object      heatTransferCoeff(T);
}
// * * * * * * * * * * * * * * * * * * * * * * * * * * * * * * * * * * * * * //

dimensions      [1 0 -3 -1 0 0 0];


internalField   uniform 0;

boundaryField
{
    maxY
    {
        type            calculated;
        value           uniform 0;
    }
    minX
    {
        type            calculated;
        value           uniform 0;
    }
    maxX
    {
        type            calculated;
        value           uniform 0;
    }
    minY
    {
        type            calculated;
        value           uniform 0;
    }
    minZ
    {
        type            calculated;
        value           uniform 0;
    }
    maxZ
    {
        type            calculated;
        value           uniform 0;
    }
    oil_to_sphere
    {
        type            calculated;
        value           nonuniform List<scalar> 
1536
(
-67.0456
-63.6215
-63.6227
-57.1986
-56.8869
-63.3809
-60.6641
-61.6934
-61.2788
-57.6662
-55.2108
-58.1026
-61.1961
-58.3241
-54.2499
-60.2292
-63.4172
-63.7899
-60.0297
-61.0318
-62.538
-61.3034
-61.5919
-60.1952
-60.5525
-60.3642
-60.484
-59.7621
-63.2667
-61.4937
-64.2945
-63.6225
-63.7725
-60.21
-60.4342
-59.7501
-60.0299
-58.9991
-59.6861
-60.433
-59.5264
-60.0594
-61.1665
-61.9348
-62.8007
-60.3917
-62.7148
-61.765
-54.4279
-60.3847
-62.2219
-61.3474
-61.6798
-60.1399
-63.1467
-65.5508
-61.5177
-61.0462
-62.5202
-62.1233
-61.114
-61.1468
-61.0729
-60.0615
-60.4382
-60.9474
-61.0144
-62.3288
-62.2436
-63.0773
-60.0446
-57.1539
-58.1719
-60.3793
-60.328
-65.7589
-63.7948
-59.1905
-60.2407
-63.7095
-62.581
-62.1371
-57.0981
-56.9816
-63.2449
-66.4347
-56.3854
-60.7226
-62.1594
-62.124
-61.3927
-59.8563
-59.8301
-59.9713
-60.3476
-61.8861
-62.6332
-62.8361
-64.0185
-62.0428
-62.6239
-59.984
-67.162
-62.2869
-58.036
-60.2851
-60.5283
-57.472
-57.4945
-67.3103
-63.7463
-61.7323
-61.1298
-61.6531
-56.6388
-57.0972
-56.0134
-64.9158
-66.7805
-63.9898
-61.4425
-61.6443
-59.648
-62.5688
-64.218
-62.0932
-61.3623
-59.4073
-62.778
-62.423
-60.9793
-62.2931
-63.0856
-60.5138
-60.7733
-63.2147
-61.6582
-63.7553
-59.4872
-63.4471
-61.2872
-62.4056
-62.4313
-61.2066
-60.7873
-61.1365
-61.8134
-65.404
-61.5107
-67.2996
-62.8905
-64.1243
-61.5027
-61.7181
-60.205
-62.3833
-63.1121
-62.9994
-68.0177
-64.7998
-63.731
-65.676
-58.3431
-58.9134
-59.9069
-59.8004
-62.952
-64.9147
-63.8873
-65.9252
-59.8309
-60.0587
-59.2762
-62.7157
-61.7568
-61.9588
-66.1355
-59.5573
-59.2074
-66.3855
-59.6076
-58.9152
-58.8336
-59.1345
-62.7719
-66.4699
-64.8463
-59.6543
-58.6289
-63.7438
-58.8867
-63.1406
-63.0575
-64.608
-58.0783
-53.6737
-64.5183
-64.9499
-60.9281
-60.2367
-61.4033
-60.6515
-63.8539
-64.4963
-62.8742
-62.1686
-60.2351
-64.8859
-64.1178
-62.3762
-59.3687
-60.4219
-60.2852
-60.9985
-62.8142
-65.7831
-59.3243
-58.2514
-58.3266
-53.2893
-63.5157
-62.6899
-62.0924
-61.4258
-61.6113
-64.9982
-63.1514
-60.7097
-63.5625
-57.7857
-59.7986
-53.9111
-61.1188
-63.5926
-64.5359
-64.2612
-63.4507
-62.7031
-63.9237
-58.0841
-58.5587
-59.8593
-64.9815
-59.2889
-54.0632
-56.0733
-62.6549
-61.8648
-66.43
-68.4214
-61.7386
-57.0648
-53.3173
-62.1157
-64.5774
-59.9687
-60.0759
-56.386
-59.8373
-64.9645
-66.6902
-61.3167
-60.1254
-65.2651
-65.0159
-60.358
-57.7543
-61.1406
-65.8914
-65.0369
-62.7148
-63.0921
-64.3725
-58.9094
-60.1948
-64.5871
-63.088
-64.0643
-61.2223
-63.6207
-65.7077
-62.9441
-62.6442
-65.1525
-60.1285
-60.0269
-60.4582
-59.5761
-59.8781
-64.6774
-65.928
-59.1909
-60.7053
-60.5337
-60.7472
-59.6582
-61.7005
-61.2633
-59.1783
-56.4943
-59.7682
-58.1323
-59.4633
-66.5097
-65.2486
-65.2276
-68.2723
-58.5941
-58.8495
-61.9265
-67.2691
-67.2265
-59.8884
-61.3087
-59.6832
-63.02
-60.2116
-62.5898
-62.8815
-63.9871
-63.1244
-60.5994
-63.3353
-59.6937
-64.4186
-64.8787
-63.5879
-63.3486
-59.132
-66.0943
-66.1415
-63.2983
-57.962
-60.1052
-60.8087
-62.9096
-62.5555
-62.9595
-59.0322
-64.3672
-65.0219
-63.9123
-65.1987
-62.322
-61.9738
-61.1645
-58.6006
-62.1136
-63.052
-58.5329
-58.2426
-58.8702
-67.0332
-64.3917
-65.2635
-62.4414
-61.9577
-64.8356
-58.3344
-66.3022
-63.9157
-61.933
-61.9255
-58.1619
-64.0898
-64.2922
-59.3356
-61.9207
-61.0272
-60.177
-63.0802
-64.307
-61.1715
-60.442
-58.7222
-65.7704
-64.4187
-58.2601
-64.8956
-64.512
-63.5492
-65.7255
-61.8762
-63.2486
-57.8013
-58.0167
-62.9055
-67.9103
-63.7281
-66.5959
-62.5318
-60.6165
-64.0057
-59.0012
-59.8825
-62.7676
-64.2439
-63.141
-62.4317
-59.1897
-58.9319
-64.6346
-64.9542
-64.4381
-61.909
-59.9883
-62.6309
-63.33
-64.116
-62.0843
-60.8869
-59.4308
-61.7488
-58.8891
-57.4963
-59.9522
-59.4135
-61.753
-57.6075
-60.6176
-66.3806
-60.5459
-60.5045
-64.2526
-64.1554
-62.9293
-61.0549
-58.4125
-63.6822
-65.225
-62.8041
-62.2031
-63.6873
-61.3933
-61.6636
-62.3982
-57.0872
-63.1425
-64.9779
-65.2728
-64.0529
-63.3379
-63.0348
-62.0909
-61.0004
-58.9911
-61.5308
-59.2908
-58.1589
-59.5709
-57.3702
-66.6205
-66.1645
-64.8434
-67.7538
-59.539
-66.6012
-58.9561
-59.6084
-63.3841
-59.4662
-58.8754
-60.6532
-60.4015
-66.2951
-65.3281
-62.3946
-62.6921
-65.7161
-64.6791
-62.0318
-63.3365
-59.3632
-64.2259
-57.8955
-65.2491
-57.0432
-63.4244
-63.7645
-64.1081
-60.57
-58.7498
-60.9431
-64.1956
-61.1057
-57.6892
-64.3524
-64.5132
-65.4347
-67.5313
-62.5921
-65.413
-58.5582
-59.0097
-54.6511
-55.9197
-61.88
-60.5364
-60.1598
-59.6083
-66.807
-59.8354
-58.1865
-57.6654
-61.0602
-58.2527
-68.0197
-59.5581
-59.7889
-61.6377
-55.2611
-56.2545
-59.9688
-59.8824
-61.0989
-60.392
-64.4803
-64.0419
-63.0559
-61.99
-57.4128
-60.2043
-64.1124
-58.9494
-59.3097
-63.5974
-65.73
-59.4519
-54.9031
-58.5558
-55.2456
-61.41
-60.5118
-59.7819
-58.0314
-54.9934
-63.2172
-63.6134
-62.5027
-61.503
-65.9523
-63.2861
-62.8202
-62.0021
-59.1055
-60.2235
-64.4951
-63.1427
-60.7203
-55.9188
-62.0955
-64.3467
-66.1294
-62.2184
-60.5852
-65.9514
-62.1444
-65.4342
-59.2794
-60.2727
-58.822
-60.5065
-62.0389
-65.6023
-60.4112
-59.4868
-59.0624
-61.271
-67.9347
-58.4905
-60.229
-58.1478
-61.8831
-62.0323
-64.6215
-65.829
-58.2116
-57.9203
-65.88
-66.4996
-56.6738
-65.9425
-64.8736
-63.7387
-64.9602
-62.9648
-61.9149
-61.9633
-65.8052
-62.0771
-62.9117
-61.779
-64.1392
-62.3245
-61.5122
-61.3045
-58.4699
-63.6324
-61.7632
-64.1237
-63.3622
-63.4957
-63.136
-62.1398
-58.0741
-64.6822
-64.7217
-63.0677
-61.4746
-62.3892
-67.1864
-58.4017
-59.1994
-58.5114
-62.6019
-60.2605
-67.1757
-60.6315
-61.0087
-61.8245
-54.8823
-55.1915
-60.0815
-59.9954
-61.7666
-58.7911
-59.443
-62.8312
-60.2736
-65.8123
-59.3569
-66.9054
-61.3567
-62.5341
-54.6056
-55.1127
-54.5412
-59.8523
-63.7113
-60.3182
-59.8111
-55.1963
-61.6571
-64.165
-61.6984
-69.3497
-59.3844
-64.4526
-63.5326
-63.7045
-64.9141
-64.9279
-63.8692
-61.7015
-60.9598
-61.5418
-63.7812
-61.1002
-62.5289
-62.3388
-62.5231
-64.1096
-63.1712
-63.6723
-58.6076
-59.2982
-53.6127
-56.35
-57.3609
-51.5722
-60.1201
-60.4107
-61.0883
-61.526
-57.4201
-58.5386
-60.7163
-65.0736
-64.9197
-60.6597
-57.768
-61.2372
-64.1129
-63.3949
-61.5715
-57.6347
-59.3777
-63.0958
-62.5836
-61.5154
-60.2568
-63.4048
-63.559
-65.7715
-63.5201
-62.0941
-60.4006
-59.3741
-58.3242
-60.587
-61.7114
-67.3777
-61.8664
-66.6377
-60.2466
-67.7706
-60.0424
-61.1749
-58.8051
-59.2242
-60.4
-58.5268
-61.0332
-57.5857
-60.1301
-64.5849
-60.624
-58.2749
-66.063
-63.388
-62.5959
-61.4579
-66.0887
-69.5556
-56.5374
-63.202
-62.7535
-62.9261
-58.5728
-61.44
-59.6894
-62.5922
-63.8792
-64.5798
-59.1715
-63.1257
-62.0109
-63.3871
-63.2198
-62.7469
-60.8358
-61.2307
-60.2793
-57.7923
-57.4216
-58.9179
-65.3914
-60.1657
-58.265
-60.2497
-64.5805
-60.9422
-65.4421
-64.1437
-62.8145
-62.0941
-62.801
-66.1396
-58.9119
-63.0954
-64.8658
-65.0396
-62.1098
-59.5857
-60.9925
-62.8517
-65.1536
-58.7424
-61.2651
-62.0633
-64.462
-62.6536
-62.9002
-65.5584
-58.7671
-59.7702
-59.3276
-66.2133
-64.5818
-61.8996
-64.4505
-59.76
-60.2048
-64.4351
-62.9844
-65.7147
-59.0249
-63.8293
-64.3095
-62.1511
-62.6029
-63.6654
-59.2529
-57.1721
-61.6678
-62.9444
-66.6316
-61.274
-60.0441
-61.4885
-62.7448
-63.8144
-62.0003
-59.7133
-61.2733
-64.2204
-59.2037
-59.5181
-61.2214
-60.078
-62.3974
-62.0675
-64.9699
-62.9819
-63.9744
-60.2876
-61.591
-62.3815
-61.3761
-60.8338
-60.4189
-60.3137
-58.8827
-63.3614
-62.3034
-62.2279
-62.8675
-57.8987
-60.5326
-66.1294
-66.1396
-59.6502
-64.5151
-62.7367
-63.2339
-60.3605
-65.1467
-64.8058
-58.9091
-60.903
-60.4992
-60.3839
-58.0002
-58.5214
-60.4863
-64.8396
-67.6723
-59.9596
-63.6668
-63.3438
-62.6148
-61.102
-62.4067
-64.9995
-62.6786
-59.0357
-60.5599
-60.275
-60.604
-62.9584
-63.5166
-63.4028
-63.5324
-63.6373
-59.7733
-63.6654
-60.6787
-63.3142
-55.0406
-62.8974
-65.2378
-60.8231
-56.5504
-61.9068
-61.3189
-66.446
-59.405
-63.677
-61.5578
-57.1368
-66.0443
-58.2948
-61.1884
-61.6584
-57.9537
-64.5502
-62.3388
-61.1693
-62.2617
-62.3232
-61.0732
-66.593
-58.4598
-60.4523
-54.3589
-61.3338
-60.7632
-61.771
-64.5203
-69.6061
-57.8487
-60.5561
-68.379
-58.3564
-63.4703
-59.6365
-63.2339
-56.4978
-59.4974
-68.26
-56.912
-67.8682
-57.4534
-66.3413
-57.3659
-59.3541
-54.9452
-58.6342
-67.7561
-55.594
-61.753
-56.9477
-65.8574
-67.7909
-55.8075
-61.3782
-59.8209
-59.021
-58.8546
-60.4213
-61.7023
-61.7221
-63.0954
-61.427
-65.7144
-68.6302
-55.7771
-62.2701
-62.6374
-61.6773
-62.0929
-61.3018
-61.0136
-61.2676
-63.9215
-61.4355
-63.924
-60.4501
-62.3539
-65.299
-60.7648
-62.9586
-64.478
-60.3846
-62.3567
-61.5115
-63.0809
-61.1624
-62.0779
-60.8952
-64.2866
-60.591
-62.5249
-57.4836
-66.0206
-55.9161
-63.0728
-64.2963
-65.8024
-59.4417
-62.072
-61.3963
-61.9866
-62.0659
-61.4659
-63.8966
-59.0172
-53.5147
-61.8471
-56.6188
-64.8176
-59.5442
-61.6638
-63.9292
-53.8522
-65.8941
-59.2566
-55.0946
-59.7603
-63.4242
-63.1683
-61.914
-55.5496
-61.9842
-62.4681
-59.9292
-59.5191
-64.8868
-64.4366
-60.3008
-61.7855
-64.8988
-55.6969
-64.1679
-59.4698
-63.0421
-56.0328
-67.8416
-66.8544
-64.1885
-61.8845
-61.1263
-63.5558
-60.9181
-55.5001
-58.7524
-63.5468
-59.6196
-63.2773
-56.4832
-64.7717
-63.3306
-52.0786
-62.0282
-62.4892
-54.1032
-65.8521
-57.3617
-64.8121
-66.0221
-63.9386
-54.8955
-62.0242
-61.0403
-62.0284
-62.1592
-63.0747
-55.6849
-60.5359
-59.6269
-59.6717
-64.7081
-61.7205
-62.924
-63.17
-63.0692
-60.992
-62.0459
-61.1661
-62.499
-64.799
-60.202
-60.8556
-59.9848
-62.2423
-64.2792
-60.1894
-60.6847
-60.4102
-61.7464
-59.6561
-59.8505
-60.697
-60.9395
-62.0002
-60.8408
-65.6951
-64.0647
-56.6883
-57.057
-65.5695
-51.5153
-63.585
-62.4626
-59.7431
-61.0009
-65.9148
-53.9458
-64.5464
-62.8204
-55.1919
-60.5325
-60.0646
-62.0298
-53.5983
-65.1328
-63.1483
-53.8567
-64.8434
-65.1679
-56.03
-65.8125
-64.4355
-56.1247
-60.065
-59.7191
-54.0549
-61.7373
-62.1205
-59.1086
-59.4483
-59.7216
-52.6342
-59.2978
-54.3284
-52.2996
-64.4162
-59.8015
-67.7095
-60.4518
-55.6239
-65.0866
-61.6375
-54.5594
-60.2463
-60.1344
-54.4869
-56.9534
-65.8001
-50.5131
-58.8024
-59.0023
-51.7261
-64.6562
-63.9966
-61.7213
-60.6146
-60.156
-58.7581
-53.085
-61.8173
-60.6108
-60.8093
-61.7373
-54.897
-63.7894
-60.1711
-61.3586
-59.8326
-61.2318
-61.9821
-58.6587
-55.2098
-60.6137
-62.6131
-60.0799
-60.655
-61.5557
-59.4276
-60.8308
-54.8495
-60.3713
-63.0274
-59.8811
-61.0223
-59.5237
-55.3614
-65.6181
-65.6052
-64.8418
-66.1482
-55.9747
-54.0903
-60.5448
-64.1933
-62.099
-63.4294
-63.938
-58.8016
-58.0551
-54.606
-56.0794
-59.326
-61.3981
-61.1887
-61.0426
-58.2368
-64.3554
-62.6726
-56.1846
-59.0436
-58.687
-63.8616
-59.4467
-53.1404
-62.2032
-61.5436
-64.5407
-54.6535
-60.2734
-62.4443
-60.3833
-60.9257
-63.3498
-61.35
-58.809
-66.2771
-51.9634
-58.2511
-61.4367
-59.4871
-60.5298
-65.9433
-62.8498
-61.7924
-57.785
-65.3678
-60.4075
-62.0009
-63.9112
-64.5771
-64.2883
-64.5502
-65.7638
-66.4323
-65.5404
-65.5498
-62.2772
-64.1293
-60.1773
-60.9684
-58.2638
-57.188
-52.5819
-66.0677
-65.8388
-64.8634
-60.7592
-62.007
-61.8031
-59.5627
-62.2427
-64.0414
-58.9905
-61.1244
-63.1821
-60.0946
-60.2612
-60.063
-60.7216
-59.3377
-60.604
-60.3459
-56.025
-62.4046
-59.11
-61.0779
-54.4167
-66.3101
-61.2489
-59.7474
-59.2591
-56.3682
-61.6517
-59.8508
-54.034
-57.8399
-61.1371
-57.2112
-57.8232
-66.5157
-66.9118
-60.4123
-60.423
-63.6298
-65.8297
-53.9274
-59.9566
-59.3802
-60.5313
-60.5285
-60.7934
-61.2857
-58.1077
-55.3266
-65.4201
-60.4722
-57.4491
-58.0364
-60.3351
-61.6718
-56.478
-61.2846
-59.6892
-60.1679
-65.8804
-57.5788
-55.5671
-60.6243
-59.9526
-59.4169
-55.4241
-64.7571
-60.3944
-60.1375
-60.343
-54.0581
-60.5548
-60.5179
-55.7088
-60.4478
-57.7996
-62.5735
-64.989
-59.6516
-64.0019
-62.3462
-59.6671
-59.7364
-60.6261
-55.4833
-62.6212
-63.1038
-60.0565
-54.7114
-58.6266
-60.9981
-61.2137
-59.6431
-55.1735
-59.7906
-64.5371
-62.5211
-59.9587
-66.4366
-57.473
-64.2038
-54.1366
-57.3721
-64.5383
-54.1791
-64.3982
-60.0602
-61.6572
-60.1957
-66.9325
-58.2432
-61.6877
-65.7965
-65.4952
-56.5816
-65.0686
-65.9322
-51.7324
-61.6828
-59.8614
-54.3107
-63.4083
-59.7863
-60.1694
-60.1875
-61.3219
-60.8326
-60.041
-59.8128
-54.0717
-63.1996
-61.7645
-61.4587
-61.9441
-60.741
-59.6207
-58.6619
-63.9563
-53.218
-59.2828
-59.8102
-53.6752
-64.2685
-66.1466
-61.7605
-64.9083
-65.5154
-59.2919
-60.5386
-62.7264
-64.8787
-59.4026
-63.1724
-58.0276
-54.5302
-63.9201
-58.7994
-64.523
-66.576
-65.7654
-54.6664
-64.2511
-62.0642
-58.9277
-60.0113
-60.5752
-59.8566
-54.7845
-65.2524
-54.9604
-65.1386
-60.6943
-58.0438
-57.8698
-61.1597
-63.2093
-65.7895
-61.4874
-67.2512
-63.9431
-64.3594
-54.3674
-64.1172
-63.3947
-64.6325
-59.5425
-58.9581
-53.3429
-61.121
-67.0157
-65.0802
-55.1782
-58.2414
-55.321
-59.5233
-61.2677
-57.9014
-69.1679
-60.2195
-58.2118
-55.4051
-62.5077
-59.0763
-53.4598
-61.1764
-59.843
-59.8676
-60.0214
-60.073
-55.4811
-57.8886
-54.3486
-60.0288
-64.0939
-62.6147
-65.1863
-64.6729
-59.2942
-58.5866
-54.2014
-59.4829
-63.6341
-65.3466
-63.912
-63.8684
-57.439
-53.6442
-58.3009
-53.0865
-63.6244
-63.9481
-58.6478
-64.2391
-63.7284
-65.029
-62.6085
-61.6772
-61.56
-59.291
-53.8254
-58.515
-54.7767
-58.1159
-60.0239
-59.6256
-55.9701
-54.6415
-63.0842
-66.9886
-66.6281
-65.7914
-61.4799
-62.8737
-62.7695
-61.293
-60.0534
-61.1937
-58.8394
-60.7104
-60.738
-54.6305
-63.881
-60.5206
-58.2837
-55.8922
-59.952
-61.3789
-61.3381
-59.6674
-55.9325
-65.6209
-62.3389
-59.889
-66.3344
-58.9174
-54.3707
-63.0335
-60.8098
-60.768
-60.7368
-59.6841
-53.0634
-61.259
-60.6634
-55.018
-65.7876
-60.3683
-50.7196
-60.0032
-61.2129
-61.4492
-59.644
-54.7946
-59.253
-59.4357
-57.1026
-60.8631
-54.1331
-61.0794
-60.885
-56.7533
-66.5532
-60.6277
-55.7237
-67.4902
-61.1693
-61.1902
-55.8141
-60.8592
-54.978
)
;
    }
}


// ************************************************************************* //
