/*--------------------------------*- C++ -*----------------------------------*\
| =========                 |                                                 |
| \\      /  F ield         | OpenFOAM: The Open Source CFD Toolbox           |
|  \\    /   O peration     | Version:  v1912                                 |
|   \\  /    A nd           | Website:  www.openfoam.com                      |
|    \\/     M anipulation  |                                                 |
\*---------------------------------------------------------------------------*/
FoamFile
{
    version     2.0;
    format      ascii;
    class       volVectorField;
    location    "186/oil";
    object      U;
}
// * * * * * * * * * * * * * * * * * * * * * * * * * * * * * * * * * * * * * //

dimensions      [0 1 -1 0 0 0 0];


internalField   nonuniform List<vector> 
35580
(
(-1.07438e-09 2.14787e-09 -1.0961e-09)
(1.13556e-09 1.94059e-09 -2.63862e-09)
(1.02187e-08 1.91031e-09 -4.24786e-09)
(2.45081e-08 2.38909e-09 -5.8769e-09)
(4.1865e-08 3.15535e-09 -7.18826e-09)
(5.98632e-08 4.05798e-09 -8.07061e-09)
(7.62584e-08 5.01087e-09 -8.51564e-09)
(8.91034e-08 5.97349e-09 -8.57367e-09)
(9.68061e-08 6.92093e-09 -8.32085e-09)
(9.83097e-08 7.82963e-09 -7.82604e-09)
(9.30344e-08 8.64996e-09 -7.15795e-09)
(8.1024e-08 9.34428e-09 -6.49083e-09)
(6.30072e-08 9.88856e-09 -5.87102e-09)
(4.01128e-08 1.03023e-08 -5.42907e-09)
(1.4103e-08 1.05301e-08 -5.19785e-09)
(-1.30444e-08 1.05576e-08 -5.20247e-09)
(-3.91359e-08 1.03199e-08 -5.42874e-09)
(-6.20846e-08 9.89956e-09 -5.85751e-09)
(-8.02217e-08 9.32141e-09 -6.4503e-09)
(-9.23545e-08 8.64056e-09 -7.12657e-09)
(-9.78302e-08 7.83394e-09 -7.78768e-09)
(-9.64879e-08 6.91438e-09 -8.30473e-09)
(-8.88875e-08 5.9664e-09 -8.55681e-09)
(-7.61378e-08 5.00625e-09 -8.507e-09)
(-5.98142e-08 4.05293e-09 -8.0638e-09)
(-4.18745e-08 3.15277e-09 -7.18188e-09)
(-2.45546e-08 2.38633e-09 -5.86699e-09)
(-1.02781e-08 1.90053e-09 -4.22866e-09)
(-1.18513e-09 1.91812e-09 -2.61508e-09)
(1.05214e-09 2.09908e-09 -1.07949e-09)
(5.67239e-10 -2.07399e-09 5.54334e-10)
(1.12095e-08 -1.24402e-08 4.85657e-10)
(3.25962e-08 -2.06905e-08 -2.59201e-10)
(6.23658e-08 -2.51589e-08 -1.23385e-09)
(9.69839e-08 -2.65686e-08 -1.95246e-09)
(1.32299e-07 -2.56878e-08 -2.19923e-09)
(1.64149e-07 -2.31486e-08 -1.92417e-09)
(1.88786e-07 -1.94234e-08 -1.16459e-09)
(2.03104e-07 -1.49129e-08 -1.06751e-11)
(2.04919e-07 -9.99135e-09 1.40513e-09)
(1.93029e-07 -5.05377e-09 3.06148e-09)
(1.6746e-07 -5.25401e-10 4.61501e-09)
(1.29798e-07 3.2113e-09 5.98023e-09)
(8.2517e-08 5.94099e-09 6.96058e-09)
(2.89905e-08 7.38994e-09 7.47822e-09)
(-2.68509e-08 7.42192e-09 7.4953e-09)
(-8.05622e-08 5.91615e-09 6.98532e-09)
(-1.2794e-07 3.13457e-09 6.03555e-09)
(-1.65632e-07 -6.82024e-10 4.7054e-09)
(-1.913e-07 -5.15859e-09 3.1536e-09)
(-2.03535e-07 -1.00888e-08 1.52522e-09)
(-2.02017e-07 -1.50025e-08 7.35998e-11)
(-1.87945e-07 -1.9482e-08 -1.08494e-09)
(-1.63576e-07 -2.31832e-08 -1.86091e-09)
(-1.31959e-07 -2.57234e-08 -2.1461e-09)
(-9.68348e-08 -2.66208e-08 -1.90468e-09)
(-6.23542e-08 -2.52439e-08 -1.19489e-09)
(-3.26396e-08 -2.08129e-08 -2.25899e-10)
(-1.12384e-08 -1.25717e-08 5.03782e-10)
(-5.71946e-10 -2.19061e-09 5.4391e-10)
(2.19096e-09 -2.00338e-08 2.18861e-09)
(2.19548e-08 -5.29045e-08 3.87566e-09)
(5.36966e-08 -7.72057e-08 4.23205e-09)
(9.44901e-08 -9.2639e-08 4.1807e-09)
(1.40041e-07 -1.0084e-07 4.26465e-09)
(1.85596e-07 -1.03376e-07 4.73427e-09)
(2.26155e-07 -1.01596e-07 5.67863e-09)
(2.57081e-07 -9.65959e-08 7.08962e-09)
(2.74471e-07 -8.9327e-08 8.87917e-09)
(2.75553e-07 -8.06698e-08 1.08899e-08)
(2.58726e-07 -7.15089e-08 1.31086e-08)
(2.23944e-07 -6.27965e-08 1.51638e-08)
(1.73284e-07 -5.54871e-08 1.69021e-08)
(1.10038e-07 -5.01921e-08 1.81591e-08)
(3.86313e-08 -4.73904e-08 1.88269e-08)
(-3.58691e-08 -4.73997e-08 1.88715e-08)
(-1.07572e-07 -5.03248e-08 1.81943e-08)
(-1.7094e-07 -5.57779e-08 1.69548e-08)
(-2.21577e-07 -6.31949e-08 1.52174e-08)
(-2.56563e-07 -7.18471e-08 1.31995e-08)
(-2.73835e-07 -8.09741e-08 1.10038e-08)
(-2.73111e-07 -8.95514e-08 8.95532e-09)
(-2.56037e-07 -9.6748e-08 7.16251e-09)
(-2.25432e-07 -1.017e-07 5.74541e-09)
(-1.85162e-07 -1.0347e-07 4.79449e-09)
(-1.39843e-07 -1.00961e-07 4.32362e-09)
(-9.44518e-08 -9.2817e-08 4.23071e-09)
(-5.37304e-08 -7.7444e-08 4.26625e-09)
(-2.19967e-08 -5.31353e-08 3.88048e-09)
(-2.20982e-09 -2.01802e-08 2.16621e-09)
(3.49578e-09 -4.95519e-08 3.48727e-09)
(3.09572e-08 -1.15345e-07 6.46111e-09)
(7.13602e-08 -1.61603e-07 7.57139e-09)
(1.20831e-07 -1.92281e-07 8.13876e-09)
(1.74414e-07 -2.10658e-07 8.79964e-09)
(2.27012e-07 -2.19282e-07 9.79986e-09)
(2.73229e-07 -2.20291e-07 1.12367e-08)
(3.07999e-07 -2.15467e-07 1.31114e-08)
(3.26982e-07 -2.06405e-07 1.5343e-08)
(3.27029e-07 -1.94592e-07 1.77692e-08)
(3.06261e-07 -1.81526e-07 2.0334e-08)
(2.64638e-07 -1.68645e-07 2.27144e-08)
(2.0457e-07 -1.57575e-07 2.47435e-08)
(1.29758e-07 -1.49436e-07 2.61761e-08)
(4.55128e-08 -1.45146e-07 2.69264e-08)
(-4.23828e-08 -1.45207e-07 2.69832e-08)
(-1.27012e-07 -1.49609e-07 2.61932e-08)
(-2.01897e-07 -1.57864e-07 2.47568e-08)
(-2.61949e-07 -1.68959e-07 2.27417e-08)
(-3.03801e-07 -1.81789e-07 2.0397e-08)
(-3.24998e-07 -1.94828e-07 1.78269e-08)
(-3.25336e-07 -2.06574e-07 1.53776e-08)
(-3.06723e-07 -2.15583e-07 1.31493e-08)
(-2.72312e-07 -2.20371e-07 1.12755e-08)
(-2.26423e-07 -2.19368e-07 9.84265e-09)
(-1.74117e-07 -2.10798e-07 8.84894e-09)
(-1.20746e-07 -1.92505e-07 8.17633e-09)
(-7.13762e-08 -1.61885e-07 7.5826e-09)
(-3.10114e-08 -1.15589e-07 6.44025e-09)
(-3.5278e-09 -4.97398e-08 3.45112e-09)
(4.41979e-09 -8.81597e-08 4.40993e-09)
(3.77527e-08 -1.95098e-07 8.24858e-09)
(8.4976e-08 -2.6778e-07 9.83575e-09)
(1.41239e-07 -3.16656e-07 1.079e-08)
(2.00944e-07 -3.47535e-07 1.18095e-08)
(2.58736e-07 -3.64223e-07 1.31744e-08)
(3.08984e-07 -3.69734e-07 1.49676e-08)
(3.46401e-07 -3.66553e-07 1.72028e-08)
(3.66399e-07 -3.56921e-07 1.97965e-08)
(3.656e-07 -3.42944e-07 2.25894e-08)
(3.41948e-07 -3.26735e-07 2.54507e-08)
(2.95307e-07 -3.1022e-07 2.81319e-08)
(2.28151e-07 -2.95657e-07 3.04407e-08)
(1.44613e-07 -2.84719e-07 3.20361e-08)
(5.06994e-08 -2.78974e-07 3.28709e-08)
(-4.72878e-08 -2.79064e-07 3.29398e-08)
(-1.41643e-07 -2.84857e-07 3.20587e-08)
(-2.25148e-07 -2.95752e-07 3.04472e-08)
(-2.92333e-07 -3.10291e-07 2.81862e-08)
(-3.39259e-07 -3.26774e-07 2.55148e-08)
(-3.63363e-07 -3.42981e-07 2.26383e-08)
(-3.64594e-07 -3.56949e-07 1.98346e-08)
(-3.44998e-07 -3.66589e-07 1.72445e-08)
(-3.07958e-07 -3.69779e-07 1.5009e-08)
(-2.58047e-07 -3.64306e-07 1.32113e-08)
(-2.0056e-07 -3.47679e-07 1.18456e-08)
(-1.41102e-07 -3.16889e-07 1.08042e-08)
(-8.49791e-08 -2.68046e-07 9.81292e-09)
(-3.78267e-08 -1.95249e-07 8.18327e-09)
(-4.471e-09 -8.83785e-08 4.35306e-09)
(5.01048e-09 -1.3323e-07 5.02378e-09)
(4.24081e-08 -2.87314e-07 9.39762e-09)
(9.45724e-08 -3.89758e-07 1.12537e-08)
(1.55807e-07 -4.58958e-07 1.24337e-08)
(2.19967e-07 -5.03973e-07 1.36749e-08)
(2.81519e-07 -5.30218e-07 1.52848e-08)
(3.34692e-07 -5.4168e-07 1.735e-08)
(3.74068e-07 -5.41562e-07 1.98946e-08)
(3.94899e-07 -5.32726e-07 2.28261e-08)
(3.93625e-07 -5.17853e-07 2.599e-08)
(3.68121e-07 -4.99636e-07 2.91839e-08)
(3.18062e-07 -4.8053e-07 3.22227e-08)
(2.45699e-07 -4.63185e-07 3.48357e-08)
(1.55692e-07 -4.49849e-07 3.66339e-08)
(5.45457e-08 -4.42819e-07 3.75604e-08)
(-5.09434e-08 -4.42897e-07 3.76254e-08)
(-1.5258e-07 -4.49967e-07 3.66434e-08)
(-2.42469e-07 -4.63094e-07 3.48388e-08)
(-3.14878e-07 -4.80472e-07 3.23077e-08)
(-3.65274e-07 -4.99565e-07 2.92662e-08)
(-3.91264e-07 -5.17788e-07 2.60563e-08)
(-3.93003e-07 -5.32683e-07 2.28842e-08)
(-3.72596e-07 -5.41563e-07 1.9951e-08)
(-3.33613e-07 -5.41719e-07 1.74105e-08)
(-2.80778e-07 -5.30308e-07 1.53316e-08)
(-2.19525e-07 -5.04112e-07 1.37124e-08)
(-1.55621e-07 -4.59156e-07 1.24348e-08)
(-9.4563e-08 -3.89947e-07 1.12012e-08)
(-4.25134e-08 -2.87334e-07 9.29197e-09)
(-5.08597e-09 -1.33472e-07 4.94777e-09)
(5.34833e-09 -1.82409e-07 5.36777e-09)
(4.51619e-08 -3.87696e-07 1.00317e-08)
(1.00349e-07 -5.22172e-07 1.20485e-08)
(1.6464e-07 -6.1315e-07 1.3354e-08)
(2.3155e-07 -6.73517e-07 1.47342e-08)
(2.95436e-07 -7.10561e-07 1.65311e-08)
(3.50478e-07 -7.29357e-07 1.88253e-08)
(3.912e-07 -7.33836e-07 2.16548e-08)
(4.12757e-07 -7.27432e-07 2.49151e-08)
(4.11446e-07 -7.13324e-07 2.8452e-08)
(3.8506e-07 -6.94679e-07 3.20149e-08)
(3.33068e-07 -6.74468e-07 3.542e-08)
(2.57423e-07 -6.55561e-07 3.83728e-08)
(1.63122e-07 -6.40499e-07 4.03924e-08)
(5.71072e-08 -6.32449e-07 4.13909e-08)
(-5.33729e-08 -6.32484e-07 4.1458e-08)
(-1.59932e-07 -6.40665e-07 4.03827e-08)
(-2.54094e-07 -6.55398e-07 3.83911e-08)
(-3.29782e-07 -6.7441e-07 3.55404e-08)
(-3.82136e-07 -6.94621e-07 3.21292e-08)
(-4.09034e-07 -7.13269e-07 2.85466e-08)
(-4.1083e-07 -7.27409e-07 2.49974e-08)
(-3.89706e-07 -7.33866e-07 2.17282e-08)
(-3.49382e-07 -7.29427e-07 1.88992e-08)
(-2.94677e-07 -7.10666e-07 1.6583e-08)
(-2.31078e-07 -6.7364e-07 1.47745e-08)
(-1.64419e-07 -6.13274e-07 1.33404e-08)
(-1.00321e-07 -5.2219e-07 1.1961e-08)
(-4.5278e-08 -3.87507e-07 9.89959e-09)
(-5.43149e-09 -1.82714e-07 5.28707e-09)
(5.45102e-09 -2.33585e-07 5.49277e-09)
(4.61203e-08 -4.92216e-07 1.02588e-08)
(1.02379e-07 -6.59919e-07 1.23434e-08)
(1.67691e-07 -7.73514e-07 1.37169e-08)
(2.35466e-07 -8.50116e-07 1.51792e-08)
(3.00068e-07 -8.99077e-07 1.71083e-08)
(3.5574e-07 -9.26617e-07 1.9601e-08)
(3.97056e-07 -9.3741e-07 2.26892e-08)
(4.19145e-07 -9.35376e-07 2.62634e-08)
(4.18201e-07 -9.24097e-07 3.01726e-08)
(3.9191e-07 -9.07118e-07 3.41341e-08)
(3.3954e-07 -8.87747e-07 3.78892e-08)
(2.62608e-07 -8.68883e-07 4.12016e-08)
(1.66308e-07 -8.52912e-07 4.34626e-08)
(5.81679e-08 -8.44368e-07 4.45632e-08)
(-5.44899e-08 -8.44552e-07 4.46736e-08)
(-1.63205e-07 -8.53371e-07 4.34717e-08)
(-2.59334e-07 -8.6885e-07 4.12596e-08)
(-3.36251e-07 -8.878e-07 3.80162e-08)
(-3.88991e-07 -9.07166e-07 3.42427e-08)
(-4.15781e-07 -9.24129e-07 3.0266e-08)
(-4.1721e-07 -9.35431e-07 2.63461e-08)
(-3.95551e-07 -9.37521e-07 2.27614e-08)
(-3.54624e-07 -9.26778e-07 1.96764e-08)
(-2.99278e-07 -8.99252e-07 1.71628e-08)
(-2.34958e-07 -8.50273e-07 1.52033e-08)
(-1.67433e-07 -7.73584e-07 1.36697e-08)
(-1.02328e-07 -6.59745e-07 1.22298e-08)
(-4.62317e-08 -4.91807e-07 1.01257e-08)
(-5.54146e-09 -2.34037e-07 5.42192e-09)
(5.36333e-09 -2.84874e-07 5.40441e-09)
(4.53618e-08 -5.96962e-07 1.00866e-08)
(1.00627e-07 -7.98075e-07 1.21592e-08)
(1.64714e-07 -9.34525e-07 1.35811e-08)
(2.31191e-07 -1.02777e-06 1.50973e-08)
(2.94602e-07 -1.0895e-06 1.70819e-08)
(3.49368e-07 -1.12713e-06 1.96973e-08)
(3.90242e-07 -1.14598e-06 2.29713e-08)
(4.12445e-07 -1.1504e-06 2.67881e-08)
(4.12124e-07 -1.14424e-06 3.10042e-08)
(3.86853e-07 -1.13123e-06 3.53131e-08)
(3.3579e-07 -1.11475e-06 3.93715e-08)
(2.59972e-07 -1.09775e-06 4.29517e-08)
(1.64509e-07 -1.08233e-06 4.54783e-08)
(5.75562e-08 -1.0743e-06 4.67617e-08)
(-5.39722e-08 -1.07451e-06 4.68688e-08)
(-1.61492e-07 -1.08271e-06 4.54358e-08)
(-2.56775e-07 -1.09767e-06 4.29977e-08)
(-3.32529e-07 -1.11487e-06 3.94874e-08)
(-3.84e-07 -1.13139e-06 3.54139e-08)
(-4.09744e-07 -1.14438e-06 3.11014e-08)
(-4.10555e-07 -1.15056e-06 2.6875e-08)
(-3.88774e-07 -1.14621e-06 2.30441e-08)
(-3.48261e-07 -1.12742e-06 1.97679e-08)
(-2.93801e-07 -1.08979e-06 1.71155e-08)
(-2.30674e-07 -1.02793e-06 1.50583e-08)
(-1.6443e-07 -9.34376e-07 1.34776e-08)
(-1.00535e-07 -7.97526e-07 1.20297e-08)
(-4.54296e-08 -5.96276e-07 9.95868e-09)
(-5.43701e-09 -2.8541e-07 5.33219e-09)
(5.08173e-09 -3.34326e-07 5.0764e-09)
(4.28491e-08 -6.97969e-07 9.47696e-09)
(9.49954e-08 -9.31542e-07 1.14327e-08)
(1.55441e-07 -1.09047e-06 1.28546e-08)
(2.18197e-07 -1.20029e-06 1.44187e-08)
(2.78176e-07 -1.27511e-06 1.64147e-08)
(3.30177e-07 -1.3238e-06 1.90443e-08)
(3.69272e-07 -1.35222e-06 2.23806e-08)
(3.90932e-07 -1.36499e-06 2.62906e-08)
(3.91361e-07 -1.3661e-06 3.0654e-08)
(3.68039e-07 -1.35931e-06 3.51603e-08)
(3.2e-07 -1.34781e-06 3.94284e-08)
(2.47969e-07 -1.33427e-06 4.30762e-08)
(1.56778e-07 -1.32093e-06 4.57758e-08)
(5.48778e-08 -1.31446e-06 4.72642e-08)
(-5.15873e-08 -1.31465e-06 4.73738e-08)
(-1.53992e-07 -1.32102e-06 4.57296e-08)
(-2.44825e-07 -1.33356e-06 4.31023e-08)
(-3.16754e-07 -1.34746e-06 3.95453e-08)
(-3.65273e-07 -1.35941e-06 3.52543e-08)
(-3.89021e-07 -1.36633e-06 3.07553e-08)
(-3.89098e-07 -1.36526e-06 2.6377e-08)
(-3.67867e-07 -1.3526e-06 2.24484e-08)
(-3.29094e-07 -1.32427e-06 1.91207e-08)
(-2.77364e-07 -1.27548e-06 1.64421e-08)
(-2.1764e-07 -1.20024e-06 1.43813e-08)
(-1.55076e-07 -1.08987e-06 1.28347e-08)
(-9.47853e-08 -9.30558e-07 1.1446e-08)
(-4.28227e-08 -6.97096e-07 9.48951e-09)
(-5.11783e-09 -3.34964e-07 5.07025e-09)
(4.60152e-09 -3.79892e-07 4.53022e-09)
(3.85307e-08 -7.90931e-07 8.49431e-09)
(8.53919e-08 -1.05464e-06 1.02367e-08)
(1.39657e-07 -1.23496e-06 1.15453e-08)
(1.96061e-07 -1.36083e-06 1.3093e-08)
(2.50122e-07 -1.44848e-06 1.50487e-08)
(2.97256e-07 -1.50859e-06 1.75767e-08)
(3.32979e-07 -1.54754e-06 2.07876e-08)
(3.53189e-07 -1.57001e-06 2.45457e-08)
(3.54273e-07 -1.57996e-06 2.88123e-08)
(3.33617e-07 -1.58096e-06 3.32804e-08)
(2.90356e-07 -1.57568e-06 3.75409e-08)
(2.25244e-07 -1.56715e-06 4.10646e-08)
(1.42595e-07 -1.55802e-06 4.3784e-08)
(4.99777e-08 -1.55377e-06 4.5333e-08)
(-4.7008e-08 -1.55402e-06 4.54722e-08)
(-1.40046e-07 -1.55801e-06 4.38003e-08)
(-2.22252e-07 -1.56632e-06 4.10058e-08)
(-2.8746e-07 -1.57553e-06 3.75579e-08)
(-3.31187e-07 -1.58121e-06 3.32954e-08)
(-3.52067e-07 -1.58033e-06 2.89032e-08)
(-3.51462e-07 -1.57035e-06 2.46385e-08)
(-3.31696e-07 -1.54804e-06 2.08474e-08)
(-2.96277e-07 -1.50925e-06 1.76652e-08)
(-2.49422e-07 -1.44881e-06 1.5079e-08)
(-1.95569e-07 -1.36017e-06 1.30525e-08)
(-1.39255e-07 -1.23352e-06 1.14971e-08)
(-8.50542e-08 -1.053e-06 1.01444e-08)
(-3.83904e-08 -7.89699e-07 8.38864e-09)
(-4.56189e-09 -3.80453e-07 4.50709e-09)
(3.89828e-09 -4.19555e-07 3.77086e-09)
(3.23484e-08 -8.71438e-07 7.09485e-09)
(7.16478e-08 -1.16105e-06 8.58992e-09)
(1.17356e-07 -1.36053e-06 9.76718e-09)
(1.64884e-07 -1.50145e-06 1.11907e-08)
(2.10461e-07 -1.60141e-06 1.30314e-08)
(2.50448e-07 -1.67259e-06 1.53431e-08)
(2.81026e-07 -1.72222e-06 1.82007e-08)
(2.98708e-07 -1.75484e-06 2.14913e-08)
(3.00173e-07 -1.77399e-06 2.52811e-08)
(2.82943e-07 -1.7827e-06 2.92387e-08)
(2.46313e-07 -1.78423e-06 3.30184e-08)
(1.91169e-07 -1.78222e-06 3.63128e-08)
(1.21377e-07 -1.77891e-06 3.89555e-08)
(4.26114e-08 -1.77741e-06 4.04348e-08)
(-4.00457e-08 -1.77755e-06 4.05818e-08)
(-1.19231e-07 -1.77873e-06 3.91407e-08)
(-1.88713e-07 -1.78216e-06 3.65513e-08)
(-2.44012e-07 -1.78612e-06 3.34646e-08)
(-2.8083e-07 -1.78427e-06 2.95187e-08)
(-2.98121e-07 -1.77472e-06 2.547e-08)
(-2.97134e-07 -1.75515e-06 2.1541e-08)
(-2.79937e-07 -1.7227e-06 1.80303e-08)
(-2.49594e-07 -1.67326e-06 1.50878e-08)
(-2.09788e-07 -1.60139e-06 1.27241e-08)
(-1.64261e-07 -1.50014e-06 1.09239e-08)
(-1.16825e-07 -1.35861e-06 9.59924e-09)
(-7.13407e-08 -1.15931e-06 8.50107e-09)
(-3.22483e-08 -8.69992e-07 7.06523e-09)
(-3.84891e-09 -4.19947e-07 3.82489e-09)
(3.05088e-09 -4.51184e-07 2.75052e-09)
(2.47336e-08 -9.35368e-07 5.14246e-09)
(5.43672e-08 -1.2454e-06 6.29016e-09)
(8.90671e-08 -1.46026e-06 7.20131e-09)
(1.2527e-07 -1.61392e-06 8.24337e-09)
(1.60063e-07 -1.72506e-06 9.67293e-09)
(1.90634e-07 -1.80631e-06 1.15777e-08)
(2.1413e-07 -1.86558e-06 1.40318e-08)
(2.28169e-07 -1.90743e-06 1.68528e-08)
(2.29826e-07 -1.93469e-06 1.99482e-08)
(2.16653e-07 -1.95081e-06 2.29705e-08)
(1.88428e-07 -1.96033e-06 2.59987e-08)
(1.46572e-07 -1.9659e-06 2.89257e-08)
(9.3519e-08 -1.96771e-06 3.11239e-08)
(3.30731e-08 -1.96835e-06 3.22545e-08)
(-3.03692e-08 -1.96782e-06 3.21634e-08)
(-9.1368e-08 -1.96622e-06 3.09389e-08)
(-1.44671e-07 -1.96487e-06 2.87496e-08)
(-1.86971e-07 -1.96252e-06 2.61144e-08)
(-2.14877e-07 -1.95264e-06 2.29764e-08)
(-2.27802e-07 -1.93529e-06 1.98014e-08)
(-2.26739e-07 -1.90739e-06 1.67255e-08)
(-2.13278e-07 -1.86575e-06 1.39518e-08)
(-1.89877e-07 -1.8066e-06 1.15969e-08)
(-1.59479e-07 -1.7247e-06 9.71355e-09)
(-1.24862e-07 -1.61289e-06 8.30351e-09)
(-8.88367e-08 -1.45948e-06 7.29145e-09)
(-5.42448e-08 -1.24535e-06 6.46275e-09)
(-2.44946e-08 -9.35129e-07 5.36752e-09)
(-2.93235e-09 -4.52019e-07 2.88535e-09)
(1.93497e-09 -4.73772e-07 1.78789e-09)
(1.56448e-08 -9.80562e-07 3.31006e-09)
(3.43485e-08 -1.30508e-06 3.95551e-09)
(5.63118e-08 -1.52997e-06 4.42923e-09)
(7.90379e-08 -1.69211e-06 5.04144e-09)
(1.00851e-07 -1.81145e-06 5.97879e-09)
(1.20049e-07 -1.90043e-06 7.25872e-09)
(1.34753e-07 -1.96714e-06 8.92505e-09)
(1.43783e-07 -2.01623e-06 1.08873e-08)
(1.45226e-07 -2.05002e-06 1.29679e-08)
(1.37078e-07 -2.07324e-06 1.50277e-08)
(1.19449e-07 -2.09009e-06 1.71865e-08)
(9.32246e-08 -2.10174e-06 1.91901e-08)
(5.9693e-08 -2.10751e-06 2.0683e-08)
(2.14119e-08 -2.10965e-06 2.13656e-08)
(-1.86895e-08 -2.10766e-06 2.10173e-08)
(-5.75006e-08 -2.10323e-06 2.00639e-08)
(-9.11568e-08 -2.09763e-06 1.84365e-08)
(-1.17794e-07 -2.08895e-06 1.6394e-08)
(-1.35678e-07 -2.07197e-06 1.4172e-08)
(-1.44049e-07 -2.04787e-06 1.20823e-08)
(-1.43331e-07 -2.01327e-06 1.02576e-08)
(-1.34696e-07 -1.96532e-06 8.65861e-09)
(-1.19789e-07 -1.90033e-06 7.33029e-09)
(-1.00441e-07 -1.81222e-06 6.24851e-09)
(-7.84836e-08 -1.69302e-06 5.37511e-09)
(-5.57591e-08 -1.53084e-06 4.73189e-09)
(-3.4009e-08 -1.30587e-06 4.18554e-09)
(-1.53498e-08 -9.80764e-07 3.4541e-09)
(-1.85329e-09 -4.7443e-07 1.81596e-09)
(7.15627e-10 -4.85592e-07 5.66867e-10)
(5.49576e-09 -1.00383e-06 1.12857e-09)
(1.20032e-08 -1.33641e-06 1.41725e-09)
(1.98257e-08 -1.56703e-06 1.60791e-09)
(2.78715e-08 -1.73387e-06 1.8593e-09)
(3.56418e-08 -1.85717e-06 2.25229e-09)
(4.26822e-08 -1.94921e-06 2.71856e-09)
(4.8145e-08 -2.01833e-06 3.19041e-09)
(5.14313e-08 -2.07069e-06 3.79895e-09)
(5.19309e-08 -2.10941e-06 4.63205e-09)
(4.90155e-08 -2.13814e-06 5.50003e-09)
(4.28852e-08 -2.15933e-06 6.30384e-09)
(3.35142e-08 -2.17365e-06 6.92472e-09)
(2.15832e-08 -2.18181e-06 7.57906e-09)
(8.16551e-09 -2.18577e-06 7.89358e-09)
(-6.02847e-09 -2.18377e-06 7.64422e-09)
(-2.02716e-08 -2.17823e-06 7.33014e-09)
(-3.21536e-08 -2.17054e-06 6.73515e-09)
(-4.13859e-08 -2.15865e-06 5.89056e-09)
(-4.76849e-08 -2.13755e-06 5.06115e-09)
(-5.06334e-08 -2.10838e-06 4.29965e-09)
(-5.04993e-08 -2.06882e-06 3.63084e-09)
(-4.76014e-08 -2.01696e-06 3.01072e-09)
(-4.24502e-08 -1.94904e-06 2.51292e-09)
(-3.56198e-08 -1.85797e-06 2.14901e-09)
(-2.77666e-08 -1.73506e-06 1.8491e-09)
(-1.9662e-08 -1.56827e-06 1.62113e-09)
(-1.1945e-08 -1.33759e-06 1.43139e-09)
(-5.35283e-09 -1.00462e-06 1.2142e-09)
(-6.14687e-10 -4.8614e-07 6.50316e-10)
(-5.10077e-10 -4.86102e-07 -6.01412e-10)
(-4.7318e-09 -1.00474e-06 -1.09053e-09)
(-1.06325e-08 -1.33783e-06 -1.28081e-09)
(-1.7343e-08 -1.56868e-06 -1.44124e-09)
(-2.43691e-08 -1.73571e-06 -1.64626e-09)
(-3.11327e-08 -1.8593e-06 -1.93669e-09)
(-3.71012e-08 -1.9517e-06 -2.31499e-09)
(-4.18066e-08 -2.02112e-06 -2.78502e-09)
(-4.45503e-08 -2.07348e-06 -3.37787e-09)
(-4.46863e-08 -2.11189e-06 -4.03574e-09)
(-4.18866e-08 -2.14051e-06 -4.85772e-09)
(-3.63716e-08 -2.16168e-06 -5.76583e-09)
(-2.86202e-08 -2.17573e-06 -6.52154e-09)
(-1.86375e-08 -2.18416e-06 -6.81597e-09)
(-6.58528e-09 -2.18803e-06 -6.84139e-09)
(6.34031e-09 -2.18581e-06 -6.74699e-09)
(1.8179e-08 -2.18102e-06 -6.29656e-09)
(2.91347e-08 -2.17354e-06 -5.74714e-09)
(3.75096e-08 -2.16107e-06 -5.26789e-09)
(4.26253e-08 -2.13982e-06 -4.50945e-09)
(4.5297e-08 -2.11067e-06 -3.71001e-09)
(4.52522e-08 -2.07097e-06 -2.96085e-09)
(4.27035e-08 -2.01894e-06 -2.49127e-09)
(3.80323e-08 -1.95068e-06 -2.19685e-09)
(3.17985e-08 -1.85925e-06 -1.89606e-09)
(2.48652e-08 -1.73606e-06 -1.65876e-09)
(1.76839e-08 -1.56906e-06 -1.45905e-09)
(1.08089e-08 -1.33825e-06 -1.26544e-09)
(4.92944e-09 -1.00513e-06 -9.78785e-10)
(6.37245e-10 -4.86425e-07 -4.92838e-10)
(-1.77743e-09 -4.75105e-07 -1.75869e-09)
(-1.48155e-08 -9.82292e-07 -3.33151e-09)
(-3.28254e-08 -1.3081e-06 -4.04906e-09)
(-5.37467e-08 -1.53363e-06 -4.58726e-09)
(-7.56215e-08 -1.69643e-06 -5.21552e-09)
(-9.67273e-08 -1.81662e-06 -6.0588e-09)
(-1.15227e-07 -1.90621e-06 -7.17186e-09)
(-1.29386e-07 -1.97295e-06 -8.62411e-09)
(-1.37663e-07 -2.02221e-06 -1.04303e-08)
(-1.38593e-07 -2.05635e-06 -1.23248e-08)
(-1.30626e-07 -2.08007e-06 -1.44203e-08)
(-1.13698e-07 -2.09723e-06 -1.66355e-08)
(-8.89185e-08 -2.10898e-06 -1.85463e-08)
(-5.71117e-08 -2.11597e-06 -1.97655e-08)
(-1.99412e-08 -2.11872e-06 -2.0237e-08)
(1.91492e-08 -2.11588e-06 -1.99647e-08)
(5.60456e-08 -2.11233e-06 -1.90698e-08)
(8.89667e-08 -2.10726e-06 -1.76215e-08)
(1.14327e-07 -2.09684e-06 -1.59904e-08)
(1.30783e-07 -2.07906e-06 -1.38807e-08)
(1.3909e-07 -2.05456e-06 -1.18738e-08)
(1.38361e-07 -2.0196e-06 -9.93309e-09)
(1.2974e-07 -1.97073e-06 -8.26196e-09)
(1.15418e-07 -1.90466e-06 -6.86967e-09)
(9.69095e-08 -1.81606e-06 -5.73302e-09)
(7.6005e-08 -1.69656e-06 -4.88538e-09)
(5.41599e-08 -1.53402e-06 -4.24204e-09)
(3.31497e-08 -1.30876e-06 -3.74124e-09)
(1.51227e-08 -9.83053e-07 -3.07852e-09)
(1.90863e-09 -4.75341e-07 -1.66571e-09)
(-2.9082e-09 -4.53275e-07 -2.80127e-09)
(-2.40606e-08 -9.37898e-07 -5.23286e-09)
(-5.31883e-08 -1.24925e-06 -6.34142e-09)
(-8.70928e-08 -1.46421e-06 -7.16102e-09)
(-1.22422e-07 -1.61839e-06 -8.145e-09)
(-1.56419e-07 -1.73106e-06 -9.4961e-09)
(-1.8629e-07 -1.81388e-06 -1.12965e-08)
(-2.09269e-07 -1.87408e-06 -1.36291e-08)
(-2.2266e-07 -1.91691e-06 -1.64692e-08)
(-2.24022e-07 -1.94495e-06 -1.94668e-08)
(-2.11188e-07 -1.96167e-06 -2.25499e-08)
(-1.83614e-07 -1.9715e-06 -2.55177e-08)
(-1.43013e-07 -1.97765e-06 -2.82553e-08)
(-9.15348e-08 -1.98095e-06 -3.03139e-08)
(-3.20281e-08 -1.98233e-06 -3.13595e-08)
(3.05149e-08 -1.98011e-06 -3.111e-08)
(9.01452e-08 -1.97877e-06 -2.99245e-08)
(1.43075e-07 -1.97788e-06 -2.78913e-08)
(1.84087e-07 -1.97208e-06 -2.53892e-08)
(2.11172e-07 -1.96092e-06 -2.23327e-08)
(2.24436e-07 -1.94364e-06 -1.93079e-08)
(2.23495e-07 -1.91621e-06 -1.63359e-08)
(2.09959e-07 -1.87437e-06 -1.3687e-08)
(1.86891e-07 -1.81465e-06 -1.13552e-08)
(1.56859e-07 -1.73243e-06 -9.48427e-09)
(1.2269e-07 -1.62003e-06 -8.07114e-09)
(8.71955e-08 -1.46553e-06 -6.92864e-09)
(5.3363e-08 -1.25047e-06 -6.04663e-09)
(2.43553e-08 -9.39083e-07 -4.94933e-09)
(3.04878e-09 -4.53252e-07 -2.66776e-09)
(-3.87505e-09 -4.21764e-07 -3.69954e-09)
(-3.19874e-08 -8.73966e-07 -6.90299e-09)
(-7.05841e-08 -1.16457e-06 -8.39176e-09)
(-1.1558e-07 -1.36476e-06 -9.51806e-09)
(-1.62491e-07 -1.50718e-06 -1.08323e-08)
(-2.07591e-07 -1.60935e-06 -1.26119e-08)
(-2.47094e-07 -1.68216e-06 -1.49488e-08)
(-2.77239e-07 -1.73264e-06 -1.78407e-08)
(-2.94518e-07 -1.76627e-06 -2.1268e-08)
(-2.95876e-07 -1.78657e-06 -2.50031e-08)
(-2.78871e-07 -1.79626e-06 -2.89515e-08)
(-2.4258e-07 -1.79844e-06 -3.26471e-08)
(-1.88405e-07 -1.79726e-06 -3.58711e-08)
(-1.19896e-07 -1.79571e-06 -3.8463e-08)
(-4.15616e-08 -1.79534e-06 -4.00172e-08)
(4.03394e-08 -1.79398e-06 -3.98938e-08)
(1.18622e-07 -1.79518e-06 -3.84382e-08)
(1.8831e-07 -1.79894e-06 -3.58389e-08)
(2.42737e-07 -1.79942e-06 -3.2619e-08)
(2.78695e-07 -1.79606e-06 -2.90013e-08)
(2.95846e-07 -1.78618e-06 -2.50822e-08)
(2.9498e-07 -1.76657e-06 -2.12295e-08)
(2.77807e-07 -1.73338e-06 -1.79336e-08)
(2.47654e-07 -1.68289e-06 -1.51355e-08)
(2.0809e-07 -1.61042e-06 -1.28832e-08)
(1.62951e-07 -1.50909e-06 -1.11223e-08)
(1.15952e-07 -1.3676e-06 -9.67308e-09)
(7.07924e-08 -1.16804e-06 -8.47924e-09)
(3.20366e-08 -8.76861e-07 -6.96523e-09)
(3.87408e-09 -4.21912e-07 -3.70518e-09)
(-4.56914e-09 -3.82421e-07 -4.49184e-09)
(-3.81895e-08 -7.94373e-07 -8.39005e-09)
(-8.4492e-08 -1.05895e-06 -1.01476e-08)
(-1.38434e-07 -1.24046e-06 -1.14676e-08)
(-1.94517e-07 -1.36816e-06 -1.29782e-08)
(-2.48264e-07 -1.45784e-06 -1.49843e-08)
(-2.9508e-07 -1.51936e-06 -1.75543e-08)
(-3.30531e-07 -1.5593e-06 -2.07264e-08)
(-3.50491e-07 -1.58285e-06 -2.45148e-08)
(-3.5149e-07 -1.59393e-06 -2.87299e-08)
(-3.30955e-07 -1.59589e-06 -3.31888e-08)
(-2.87906e-07 -1.59149e-06 -3.74003e-08)
(-2.23469e-07 -1.58378e-06 -4.09199e-08)
(-1.41697e-07 -1.57647e-06 -4.36473e-08)
(-4.88223e-08 -1.57304e-06 -4.54203e-08)
(4.77419e-08 -1.57204e-06 -4.53957e-08)
(1.40294e-07 -1.57608e-06 -4.39067e-08)
(2.22712e-07 -1.585e-06 -4.1154e-08)
(2.87434e-07 -1.59224e-06 -3.7429e-08)
(3.30634e-07 -1.59634e-06 -3.32402e-08)
(3.51415e-07 -1.5943e-06 -2.87742e-08)
(3.50777e-07 -1.58341e-06 -2.44801e-08)
(3.30917e-07 -1.56005e-06 -2.07129e-08)
(2.95524e-07 -1.52018e-06 -1.75058e-08)
(2.487e-07 -1.45889e-06 -1.49489e-08)
(1.9495e-07 -1.36991e-06 -1.30305e-08)
(1.38913e-07 -1.24345e-06 -1.1525e-08)
(8.49329e-08 -1.06282e-06 -1.01714e-08)
(3.84606e-08 -7.9748e-07 -8.39707e-09)
(4.62871e-09 -3.82496e-07 -4.48021e-09)
(-5.08839e-09 -3.36905e-07 -5.08644e-09)
(-4.27098e-08 -7.02044e-07 -9.4953e-09)
(-9.46022e-08 -9.36747e-07 -1.14458e-08)
(-1.5487e-07 -1.09717e-06 -1.28323e-08)
(-2.17438e-07 -1.2087e-06 -1.43644e-08)
(-2.77276e-07 -1.28505e-06 -1.64119e-08)
(-3.29161e-07 -1.33491e-06 -1.90927e-08)
(-3.6815e-07 -1.36435e-06 -2.2422e-08)
(-3.89682e-07 -1.37815e-06 -2.63568e-08)
(-3.90023e-07 -1.38029e-06 -3.07125e-08)
(-3.66645e-07 -1.37446e-06 -3.52497e-08)
(-3.18656e-07 -1.36408e-06 -3.95703e-08)
(-2.47224e-07 -1.35182e-06 -4.32726e-08)
(-1.56587e-07 -1.34017e-06 -4.59655e-08)
(-5.39185e-08 -1.33362e-06 -4.75549e-08)
(5.25358e-08 -1.33275e-06 -4.74085e-08)
(1.54981e-07 -1.33913e-06 -4.59778e-08)
(2.46073e-07 -1.35165e-06 -4.32899e-08)
(3.17881e-07 -1.36409e-06 -3.94996e-08)
(3.66141e-07 -1.37471e-06 -3.52438e-08)
(3.89795e-07 -1.38063e-06 -3.07264e-08)
(3.89751e-07 -1.37867e-06 -2.63549e-08)
(3.68387e-07 -1.36503e-06 -2.24249e-08)
(3.29534e-07 -1.3357e-06 -1.90725e-08)
(2.77738e-07 -1.28597e-06 -1.63968e-08)
(2.17926e-07 -1.20987e-06 -1.43935e-08)
(1.55291e-07 -1.09898e-06 -1.28982e-08)
(9.48521e-08 -9.3929e-07 -1.1512e-08)
(4.28135e-08 -7.04355e-07 -9.53475e-09)
(5.0668e-09 -3.36997e-07 -5.09129e-09)
(-5.39598e-09 -2.87448e-07 -5.40088e-09)
(-4.54156e-08 -6.01127e-07 -1.00285e-08)
(-1.00724e-07 -8.03707e-07 -1.20577e-08)
(-1.64812e-07 -9.41692e-07 -1.35013e-08)
(-2.31272e-07 -1.03635e-06 -1.50824e-08)
(-2.94701e-07 -1.09923e-06 -1.71443e-08)
(-3.49496e-07 -1.13787e-06 -1.98112e-08)
(-3.90378e-07 -1.15767e-06 -2.31016e-08)
(-4.12538e-07 -1.16302e-06 -2.69567e-08)
(-4.12125e-07 -1.15778e-06 -3.11937e-08)
(-3.86675e-07 -1.14562e-06 -3.55477e-08)
(-3.35491e-07 -1.13012e-06 -3.96805e-08)
(-2.60042e-07 -1.11413e-06 -4.32927e-08)
(-1.6469e-07 -1.1001e-06 -4.5847e-08)
(-5.67039e-08 -1.09188e-06 -4.72522e-08)
(5.51679e-08 -1.09144e-06 -4.71484e-08)
(1.63033e-07 -1.09951e-06 -4.58935e-08)
(2.58713e-07 -1.11413e-06 -4.33222e-08)
(3.34567e-07 -1.13029e-06 -3.96813e-08)
(3.86052e-07 -1.14592e-06 -3.55907e-08)
(4.11791e-07 -1.15814e-06 -3.12382e-08)
(4.1247e-07 -1.16351e-06 -2.69886e-08)
(3.90495e-07 -1.15829e-06 -2.31299e-08)
(3.49746e-07 -1.13862e-06 -1.98277e-08)
(2.95031e-07 -1.10012e-06 -1.71638e-08)
(2.31631e-07 -1.03738e-06 -1.51302e-08)
(1.65087e-07 -9.42999e-07 -1.3635e-08)
(1.00821e-07 -8.0544e-07 -1.22837e-08)
(4.54212e-08 -6.02955e-07 -1.02334e-08)
(5.33814e-09 -2.87483e-07 -5.45922e-09)
(-5.49374e-09 -2.36032e-07 -5.51911e-09)
(-4.63094e-08 -4.96181e-07 -1.02459e-08)
(-1.02773e-07 -6.65509e-07 -1.22927e-08)
(-1.68264e-07 -7.80448e-07 -1.37206e-08)
(-2.36216e-07 -8.58116e-07 -1.52607e-08)
(-3.01015e-07 -9.07999e-07 -1.72406e-08)
(-3.56847e-07 -9.36389e-07 -1.97739e-08)
(-3.98265e-07 -9.4799e-07 -2.28837e-08)
(-4.2038e-07 -9.46747e-07 -2.65038e-08)
(-4.19344e-07 -9.3625e-07 -3.04488e-08)
(-3.92765e-07 -9.19988e-07 -3.44686e-08)
(-3.40107e-07 -9.01303e-07 -3.83161e-08)
(-2.63263e-07 -8.83038e-07 -4.16499e-08)
(-1.66847e-07 -8.68179e-07 -4.3992e-08)
(-5.75719e-08 -8.59652e-07 -4.5224e-08)
(5.58447e-08 -8.5942e-07 -4.51773e-08)
(1.6501e-07 -8.67826e-07 -4.40394e-08)
(2.61867e-07 -8.83144e-07 -4.16333e-08)
(3.39205e-07 -9.01447e-07 -3.82927e-08)
(3.92119e-07 -9.20174e-07 -3.45129e-08)
(4.18928e-07 -9.36511e-07 -3.05042e-08)
(4.20211e-07 -9.47132e-07 -2.65489e-08)
(3.98287e-07 -9.48496e-07 -2.29223e-08)
(3.56994e-07 -9.37004e-07 -1.98006e-08)
(3.01228e-07 -9.08715e-07 -1.7266e-08)
(2.36463e-07 -8.5893e-07 -1.52981e-08)
(1.68472e-07 -7.81371e-07 -1.3807e-08)
(1.02885e-07 -6.66623e-07 -1.24608e-08)
(4.63374e-08 -4.9749e-07 -1.04046e-08)
(5.46725e-09 -2.36014e-07 -5.55732e-09)
(-5.41313e-09 -1.84456e-07 -5.38262e-09)
(-4.54728e-08 -3.91229e-07 -1.00176e-08)
(-1.00958e-07 -5.27204e-07 -1.20445e-08)
(-1.65587e-07 -6.19272e-07 -1.3421e-08)
(-2.32834e-07 -6.8048e-07 -1.48685e-08)
(-2.97048e-07 -7.18255e-07 -1.6703e-08)
(-3.52358e-07 -7.3772e-07 -1.90428e-08)
(-3.93264e-07 -7.42831e-07 -2.19021e-08)
(-4.14909e-07 -7.37033e-07 -2.52126e-08)
(-4.13505e-07 -7.23518e-07 -2.87985e-08)
(-3.86749e-07 -7.05421e-07 -3.24515e-08)
(-3.34325e-07 -6.85678e-07 -3.59576e-08)
(-2.58561e-07 -6.67207e-07 -3.89378e-08)
(-1.63966e-07 -6.52957e-07 -4.1031e-08)
(-5.66598e-08 -6.45032e-07 -4.21284e-08)
(5.49354e-08 -6.44722e-07 -4.20947e-08)
(1.62036e-07 -6.52479e-07 -4.10214e-08)
(2.57118e-07 -6.67163e-07 -3.88734e-08)
(3.33382e-07 -6.85691e-07 -3.58901e-08)
(3.86038e-07 -7.05493e-07 -3.24657e-08)
(4.13001e-07 -7.23692e-07 -2.88493e-08)
(4.14651e-07 -7.37322e-07 -2.52567e-08)
(3.93212e-07 -7.43221e-07 -2.19386e-08)
(3.52432e-07 -7.3819e-07 -1.90665e-08)
(2.9719e-07 -7.18797e-07 -1.67242e-08)
(2.33019e-07 -6.8109e-07 -1.48923e-08)
(1.65771e-07 -6.19943e-07 -1.34604e-08)
(1.01099e-07 -5.27947e-07 -1.2125e-08)
(4.54885e-08 -3.92088e-07 -1.01315e-08)
(5.37898e-09 -1.84538e-07 -5.42044e-09)
(-5.09834e-09 -1.34855e-07 -5.01507e-09)
(-4.28117e-08 -2.90296e-07 -9.37813e-09)
(-9.53538e-08 -3.93994e-07 -1.12815e-08)
(-1.57025e-07 -4.64019e-07 -1.25233e-08)
(-2.21598e-07 -5.09638e-07 -1.38201e-08)
(-2.83556e-07 -5.3641e-07 -1.54621e-08)
(-3.37073e-07 -5.48355e-07 -1.75719e-08)
(-3.76682e-07 -5.48687e-07 -2.01411e-08)
(-3.97638e-07 -5.40266e-07 -2.31127e-08)
(-3.96281e-07 -5.25802e-07 -2.63184e-08)
(-3.7038e-07 -5.07915e-07 -2.9617e-08)
(-3.19841e-07 -4.89132e-07 -3.27469e-08)
(-2.47266e-07 -4.72152e-07 -3.53974e-08)
(-1.56779e-07 -4.59282e-07 -3.72744e-08)
(-5.4219e-08 -4.52306e-07 -3.82921e-08)
(5.25355e-08 -4.52008e-07 -3.82559e-08)