/*--------------------------------*- C++ -*----------------------------------*\
| =========                 |                                                 |
| \\      /  F ield         | OpenFOAM: The Open Source CFD Toolbox           |
|  \\    /   O peration     | Version:  v1906                                 |
|   \\  /    A nd           | Web:      www.OpenFOAM.com                      |
|    \\/     M anipulation  |                                                 |
\*---------------------------------------------------------------------------*/
FoamFile
{
    version     2.0;
    format      ascii;
    class       volVectorField;
    location    "92.2/oil";
    object      U;
}
// * * * * * * * * * * * * * * * * * * * * * * * * * * * * * * * * * * * * * //

dimensions      [0 1 -1 0 0 0 0];


internalField   nonuniform List<vector> 
27760
(
(-2.34829e-05 -2.39185e-05 -2.34829e-05)
(-4.63497e-05 -1.79385e-05 -1.69236e-05)
(-3.3709e-06 -4.64211e-06 -4.64395e-06)
(-5.46841e-06 -7.44522e-07 -8.6884e-07)
(-1.04583e-06 -2.25239e-07 -3.714e-07)
(-2.87982e-07 -7.98209e-08 -2.40495e-07)
(3.95274e-07 9.36065e-09 -1.63938e-07)
(7.50703e-07 4.9399e-08 -1.33126e-07)
(9.51124e-07 7.33247e-08 -1.14987e-07)
(1.02627e-06 8.9052e-08 -1.02022e-07)
(9.97533e-07 1.0044e-07 -9.1088e-08)
(8.78217e-07 1.09317e-07 -8.11866e-08)
(6.83065e-07 1.15952e-07 -7.30246e-08)
(4.29539e-07 1.20444e-07 -6.71205e-08)
(1.38852e-07 1.2279e-07 -6.39709e-08)
(-1.6535e-07 1.22932e-07 -6.38279e-08)
(-4.58703e-07 1.20901e-07 -6.66452e-08)
(-7.18191e-07 1.16899e-07 -7.20728e-08)
(-9.2414e-07 1.11084e-07 -7.94087e-08)
(-1.06197e-06 1.03735e-07 -8.7742e-08)
(-1.12343e-06 9.52424e-08 -9.57846e-08)
(-1.10673e-06 8.59781e-08 -1.02163e-07)
(-1.01754e-06 7.5743e-08 -1.06038e-07)
(-8.68445e-07 6.50914e-08 -1.05992e-07)
(-6.77613e-07 5.4305e-08 -1.01002e-07)
(-4.68442e-07 4.38971e-08 -9.04537e-08)
(-2.68006e-07 3.49116e-08 -7.45383e-08)
(-1.05225e-07 2.91624e-08 -5.47404e-08)
(-5.06727e-09 2.86895e-08 -3.47926e-08)
(1.466e-08 2.87148e-08 -1.46367e-08)
(-1.7033e-05 -4.76051e-05 -1.7033e-05)
(-5.55641e-06 -6.19204e-06 -7.63102e-06)
(-7.43627e-06 -7.52264e-06 -2.67488e-06)
(-3.21606e-06 -2.22574e-06 -7.78722e-07)
(-8.8908e-07 -1.37796e-06 -4.00843e-07)
(3.15705e-07 -7.653e-07 -2.118e-07)
(1.20785e-06 -4.8108e-07 -1.18745e-07)
(1.76409e-06 -3.05123e-07 -7.10972e-08)
(2.0864e-06 -1.80754e-07 -4.01864e-08)
(2.19523e-06 -8.03027e-08 -1.66007e-08)
(2.10904e-06 5.13158e-09 3.69702e-09)
(1.84561e-06 7.76195e-08 2.13459e-08)
(1.43016e-06 1.35419e-07 3.57972e-08)
(8.97e-07 1.76154e-07 4.61898e-08)
(2.88543e-07 1.97639e-07 5.17071e-08)
(-3.47376e-07 1.98809e-07 5.1982e-08)
(-9.611e-07 1.79947e-07 4.7099e-08)
(-1.50582e-06 1.4269e-07 3.75526e-08)
(-1.94154e-06 9.0259e-08 2.45132e-08)
(-2.23835e-06 2.68054e-08 9.41764e-09)
(-2.37929e-06 -4.26629e-08 -6.04386e-09)
(-2.36154e-06 -1.12755e-07 -2.00715e-08)
(-2.19631e-06 -1.7835e-07 -3.08631e-08)
(-1.90822e-06 -2.33664e-07 -3.70906e-08)
(-1.53368e-06 -2.72846e-07 -3.76982e-08)
(-1.11794e-06 -2.89324e-07 -3.23398e-08)
(-7.11563e-07 -2.75329e-07 -2.18642e-08)
(-3.65008e-07 -2.2251e-07 -8.86768e-09)
(-1.20076e-07 -1.25474e-07 1.25127e-09)
(-3.87844e-09 -8.45834e-09 3.91343e-09)
(-4.70563e-06 -4.50882e-06 -4.70562e-06)
(-7.33086e-06 -8.54892e-06 -2.71129e-06)
(-3.62876e-06 -5.00635e-06 -1.18452e-06)
(-1.81716e-06 -3.07469e-06 -5.49848e-07)
(-9.49699e-08 -2.27458e-06 -2.49419e-07)
(1.07544e-06 -1.74402e-06 -1.0185e-07)
(1.9744e-06 -1.42189e-06 -2.32754e-08)
(2.58192e-06 -1.17444e-06 2.23253e-08)
(2.93456e-06 -9.61823e-07 5.478e-08)
(3.03381e-06 -7.66603e-07 8.121e-08)
(2.88827e-06 -5.87198e-07 1.04496e-07)
(2.51451e-06 -4.28893e-07 1.24867e-07)
(1.9426e-06 -2.99687e-07 1.41573e-07)
(1.21623e-06 -2.07544e-07 1.5354e-07)
(3.9082e-07 -1.58692e-07 1.59941e-07)
(-4.70486e-07 -1.56253e-07 1.60249e-07)
(-1.30235e-06 -1.99745e-07 1.54522e-07)
(-2.04266e-06 -2.85023e-07 1.43512e-07)
(-2.63832e-06 -4.04258e-07 1.28285e-07)
(-3.05e-06 -5.46928e-07 1.10445e-07)
(-3.25518e-06 -7.00517e-07 9.17825e-08)
(-3.24993e-06 -8.51347e-07 7.41434e-08)
(-3.0488e-06 -9.85106e-07 5.92141e-08)
(-2.68359e-06 -1.08743e-06 4.83064e-08)
(-2.2003e-06 -1.14346e-06 4.21891e-08)
(-1.65541e-06 -1.13763e-06 4.08118e-08)
(-1.11052e-06 -1.05326e-06 4.28835e-08)
(-6.24917e-07 -8.73703e-07 4.52061e-08)
(-2.50103e-07 -5.85779e-07 4.1796e-08)
(-2.30865e-08 -2.04047e-07 2.31265e-08)
(-8.35332e-07 -6.62759e-06 -8.35325e-07)
(-1.80499e-06 -5.39989e-06 -7.38261e-07)
(-1.26504e-06 -4.79733e-06 -5.17232e-07)
(-2.73271e-07 -3.94235e-06 -2.46291e-07)
(9.11861e-07 -3.4658e-06 -8.72675e-08)
(1.91243e-06 -3.08888e-06 4.40815e-09)
(2.74219e-06 -2.78522e-06 6.13652e-08)
(3.33664e-06 -2.49307e-06 1.00102e-07)
(3.67756e-06 -2.19903e-06 1.31093e-07)
(3.74522e-06 -1.90347e-06 1.58301e-07)
(3.53645e-06 -1.61801e-06 1.83091e-07)
(3.06439e-06 -1.35916e-06 2.05083e-07)
(2.36107e-06 -1.14463e-06 2.23214e-07)
(1.4765e-06 -9.90468e-07 2.36242e-07)
(4.75468e-07 -9.08476e-07 2.43184e-07)
(-5.67583e-07 -9.04807e-07 2.43495e-07)
(-1.57515e-06 -9.78866e-07 2.37234e-07)
(-2.47365e-06 -1.1231e-06 2.25107e-07)
(-3.20014e-06 -1.32385e-06 2.08323e-07)
(-3.70796e-06 -1.56222e-06 1.88533e-07)
(-3.97036e-06 -1.81573e-06 1.67575e-07)
(-3.98251e-06 -2.05977e-06 1.47295e-07)
(-3.76102e-06 -2.26882e-06 1.29308e-07)
(-3.34213e-06 -2.41714e-06 1.14843e-07)
(-2.77795e-06 -2.47884e-06 1.04481e-07)
(-2.13164e-06 -2.42778e-06 9.79563e-08)
(-1.4716e-06 -2.23699e-06 9.37807e-08)
(-8.6316e-07 -1.87884e-06 8.83364e-08)
(-3.6847e-07 -1.32353e-06 7.50301e-08)
(-3.94366e-08 -5.4311e-07 3.94825e-08)
(-2.57806e-07 -2.68811e-06 -2.57799e-07)
(-7.21165e-07 -4.39251e-06 -2.9322e-07)
(-1.24122e-07 -4.95654e-06 -1.79019e-07)
(7.27672e-07 -4.97865e-06 -5.6265e-08)
(1.73386e-06 -4.91236e-06 2.90448e-08)
(2.66754e-06 -4.74064e-06 8.59885e-08)
(3.46624e-06 -4.49838e-06 1.27314e-07)
(4.0508e-06 -4.18611e-06 1.60285e-07)
(4.37583e-06 -3.821e-06 1.89926e-07)
(4.40832e-06 -3.4257e-06 2.17883e-07)
(4.13671e-06 -3.02885e-06 2.44254e-07)
(3.57148e-06 -2.66138e-06 2.68046e-07)
(2.74632e-06 -2.35328e-06 2.87809e-07)
(1.71656e-06 -2.13051e-06 3.02065e-07)
(5.55203e-07 -2.01193e-06 3.0965e-07)
(-6.5328e-07 -2.00727e-06 3.09937e-07)
(-1.82062e-06 -2.1159e-06 3.02981e-07)
(-2.86298e-06 -2.32663e-06 2.89515e-07)
(-3.70864e-06 -2.61868e-06 2.70887e-07)
(-4.30446e-06 -2.96345e-06 2.48853e-07)
(-4.62004e-06 -3.32686e-06 2.25376e-07)
(-4.64967e-06 -3.67169e-06 2.02388e-07)
(-4.41155e-06 -3.95939e-06 1.81528e-07)
(-3.94544e-06 -4.15147e-06 1.64004e-07)
(-3.30829e-06 -4.20984e-06 1.50327e-07)
(-2.56867e-06 -4.0965e-06 1.40113e-07)
(-1.80102e-06 -3.77227e-06 1.31742e-07)
(-1.07725e-06 -3.19425e-06 1.21186e-07)
(-4.71586e-07 -2.30547e-06 1.01069e-07)
(-5.26424e-08 -1.007e-06 5.26975e-08)
(-8.80281e-08 -2.6096e-06 -8.8016e-08)
(2.1569e-08 -4.75861e-06 -6.40921e-08)
(6.35727e-07 -5.91959e-06 -2.7202e-09)
(1.47239e-06 -6.47823e-06 5.88103e-08)
(2.4334e-06 -6.72746e-06 1.07683e-07)
(3.35912e-06 -6.73063e-06 1.45597e-07)
(4.15962e-06 -6.54991e-06 1.78081e-07)
(4.74795e-06 -6.22225e-06 2.08254e-07)
(5.0633e-06 -5.78909e-06 2.38192e-07)
(5.06348e-06 -5.2937e-06 2.68065e-07)
(4.7309e-06 -4.78228e-06 2.97052e-07)
(4.0742e-06 -4.30139e-06 3.23586e-07)
(3.129e-06 -3.89471e-06 3.4579e-07)
(1.95593e-06 -3.59929e-06 3.61854e-07)
(6.36297e-07 -3.44199e-06 3.70389e-07)
(-7.35409e-07 -3.43669e-06 3.70645e-07)
(-2.06014e-06 -3.58273e-06 3.62662e-07)
(-3.24376e-06 -3.8649e-06 3.47267e-07)
(-4.20582e-06 -4.25462e-06 3.25984e-07)
(-4.8868e-06 -4.71254e-06 3.00805e-07)
(-5.25293e-06 -5.19192e-06 2.73937e-07)
(-5.29763e-06 -5.64165e-06 2.475e-07)
(-5.04088e-06 -6.00913e-06 2.23262e-07)
(-4.52607e-06 -6.24216e-06 2.02518e-07)
(-3.81492e-06 -6.28936e-06 1.85798e-07)
(-2.98175e-06 -6.09957e-06 1.72655e-07)
(-2.1077e-06 -5.61903e-06 1.61331e-07)
(-1.27235e-06 -4.78457e-06 1.47327e-07)
(-5.62684e-07 -3.50181e-06 1.22309e-07)
(-6.36584e-08 -1.57805e-06 6.37272e-08)
(1.05084e-08 -2.74556e-06 1.05322e-08)
(3.76976e-07 -5.60955e-06 5.37253e-08)
(1.10094e-06 -7.33941e-06 9.50317e-08)
(2.01484e-06 -8.34634e-06 1.31421e-07)
(3.02e-06 -8.87971e-06 1.62987e-07)
(3.98962e-06 -9.04548e-06 1.91611e-07)
(4.82556e-06 -8.92722e-06 2.20305e-07)
(5.43704e-06 -8.58825e-06 2.50434e-07)
(5.75433e-06 -8.09091e-06 2.82532e-07)
(5.72875e-06 -7.49751e-06 3.15841e-07)
(5.33835e-06 -6.87172e-06 3.48812e-07)
(4.59066e-06 -6.2763e-06 3.79323e-07)
(3.52363e-06 -5.76921e-06 4.05005e-07)
(2.20387e-06 -5.39949e-06 4.23618e-07)
(7.21508e-07 -5.20264e-06 4.33482e-07)
(-8.18162e-07 -5.197e-06 4.33704e-07)
(-2.3046e-06 -5.38203e-06 4.24309e-07)
(-3.63269e-06 -5.73813e-06 4.06247e-07)
(-4.71274e-06 -6.22846e-06 3.81287e-07)
(-5.47867e-06 -6.80221e-06 3.51793e-07)
(-5.89323e-06 -7.3991e-06 3.20321e-07)
(-5.94947e-06 -7.95353e-06 2.89302e-07)
(-5.66965e-06 -8.39828e-06 2.60789e-07)
(-5.10126e-06 -8.66676e-06 2.36214e-07)
(-4.31166e-06 -8.69343e-06 2.162e-07)
(-3.38168e-06 -8.41256e-06 2.0026e-07)
(-2.40005e-06 -7.75319e-06 1.86478e-07)
(-1.45498e-06 -6.62704e-06 1.69834e-07)
(-6.46089e-07 -4.89273e-06 1.40871e-07)
(-7.34127e-08 -2.24474e-06 7.35015e-08)
(5.33345e-08 -3.2767e-06 5.33736e-08)
(5.87946e-07 -6.90181e-06 1.15233e-07)
(1.42887e-06 -9.1714e-06 1.52052e-07)
(2.44669e-06 -1.05765e-05 1.7954e-07)
(3.53428e-06 -1.13715e-05 2.04245e-07)
(4.57702e-06 -1.16909e-05 2.29779e-07)
(5.47136e-06 -1.16362e-05 2.58467e-07)
(6.12228e-06 -1.12912e-05 2.91068e-07)
(6.45296e-06 -1.07359e-05 3.27284e-07)
(6.40899e-06 -1.00501e-05 3.65762e-07)
(5.96455e-06 -9.31422e-06 4.0433e-07)
(5.12625e-06 -8.60693e-06 4.40239e-07)
(3.93477e-06 -8.00096e-06 4.70564e-07)
(2.46322e-06 -7.55775e-06 4.92568e-07)
(8.11454e-07 -7.32175e-06 5.042e-07)
(-9.0339e-07 -7.31608e-06 5.04381e-07)
(-2.55823e-06 -7.54027e-06 4.93128e-07)
(-4.03599e-06 -7.97021e-06 4.71562e-07)
(-5.23693e-06 -8.56032e-06 4.41791e-07)
(-6.0881e-06 -9.24791e-06 4.06638e-07)
(-6.54895e-06 -9.95884e-06 3.69122e-07)
(-6.61267e-06 -1.06126e-05 3.32155e-07)
(-6.30448e-06 -1.11271e-05 2.98178e-07)
(-5.67684e-06 -1.14209e-05 2.68843e-07)
(-4.80377e-06 -1.14139e-05 2.44916e-07)
(-3.77345e-06 -1.10245e-05 2.25873e-07)
(-2.68296e-06 -1.01619e-05 2.09648e-07)
(-1.62954e-06 -8.70809e-06 1.90621e-07)
(-7.24862e-07 -6.46621e-06 1.58134e-07)
(-8.25419e-08 -3.00045e-06 8.26548e-08)
(7.75941e-08 -3.99798e-06 7.76542e-08)
(7.27108e-07 -8.4856e-06 1.53226e-07)
(1.67922e-06 -1.13253e-05 1.90275e-07)
(2.80773e-06 -1.31291e-05 2.15268e-07)
(3.99472e-06 -1.4188e-05 2.38235e-07)
(5.12682e-06 -1.46661e-05 2.64263e-07)
(6.09457e-06 -1.46848e-05 2.956e-07)
(6.79749e-06 -1.43457e-05 3.32789e-07)
(7.15181e-06 -1.37449e-05 3.75045e-07)
(7.09705e-06 -1.29782e-05 4.20481e-07)
(6.60334e-06 -1.2142e-05 4.66332e-07)
(5.67618e-06 -1.13305e-05 5.09179e-07)
(4.35899e-06 -1.06312e-05 5.45443e-07)
(2.73182e-06 -1.0118e-05 5.71754e-07)
(9.05117e-07 -9.84457e-06 5.85605e-07)
(-9.91102e-07 -9.83907e-06 5.85747e-07)
(-2.81997e-06 -1.01011e-05 5.72195e-07)
(-4.45142e-06 -1.06018e-05 5.46228e-07)
(-5.77504e-06 -1.12867e-05 5.10368e-07)
(-6.71074e-06 -1.20808e-05 4.68061e-07)
(-7.2148e-06 -1.2896e-05 4.2295e-07)
(-7.28129e-06 -1.36369e-05 3.78518e-07)
(-6.93936e-06 -1.42068e-05 3.37661e-07)
(-6.24758e-06 -1.45096e-05 3.02388e-07)
(-5.28735e-06 -1.44503e-05 2.73644e-07)
(-4.15492e-06 -1.39304e-05 2.50931e-07)
(-2.95604e-06 -1.28373e-05 2.31966e-07)
(-1.79684e-06 -1.10187e-05 2.10505e-07)
(-8.00107e-07 -8.2142e-06 1.74683e-07)
(-9.13418e-08 -3.84112e-06 9.14827e-08)
(9.29514e-08 -4.85734e-06 9.30375e-08)
(8.30006e-07 -1.03036e-05 1.79264e-07)
(1.88222e-06 -1.37563e-05 2.18502e-07)
(3.11733e-06 -1.59779e-05 2.44027e-07)
(4.40678e-06 -1.73162e-05 2.68087e-07)
(5.63377e-06 -1.79696e-05 2.96942e-07)
(6.68236e-06 -1.80804e-05 3.33003e-07)
(7.44534e-06 -1.77676e-05 3.76675e-07)
(7.83165e-06 -1.71425e-05 4.26901e-07)
(7.77416e-06 -1.6315e-05 4.81248e-07)
(7.2379e-06 -1.5396e-05 5.36289e-07)
(6.22654e-06 -1.44947e-05 5.8784e-07)
(4.78596e-06 -1.37126e-05 6.31485e-07)
(3.00323e-06 -1.31362e-05 6.63122e-07)
(1.00003e-06 -1.28289e-05 6.79745e-07)
(-1.07963e-06 -1.28237e-05 6.79848e-07)
(-3.08422e-06 -1.31205e-05 6.63439e-07)
(-4.86964e-06 -1.36853e-05 6.32037e-07)
(-6.31412e-06 -1.44544e-05 5.8869e-07)
(-7.33051e-06 -1.53408e-05 5.37554e-07)
(-7.87263e-06 -1.62424e-05 4.83013e-07)
(-7.93633e-06 -1.70496e-05 4.29336e-07)
(-7.55577e-06 -1.76517e-05 3.8001e-07)
(-6.79667e-06 -1.79389e-05 3.3747e-07)
(-5.74838e-06 -1.78016e-05 3.02856e-07)
(-4.51566e-06 -1.71239e-05 2.75698e-07)
(-3.21263e-06 -1.57694e-05 2.53551e-07)
(-1.95338e-06 -1.35479e-05 2.29515e-07)
(-8.70602e-07 -1.01278e-05 1.90451e-07)
(-9.97629e-08 -4.76287e-06 9.99365e-08)
(1.03944e-07 -5.81906e-06 1.04048e-07)
(9.09421e-07 -1.23106e-05 1.98689e-07)
(2.04671e-06 -1.64226e-05 2.40613e-07)
(3.37623e-06 -1.90908e-05 2.68017e-07)
(4.76076e-06 -2.07341e-05 2.94812e-07)
(6.07892e-06 -2.15892e-05 3.28121e-07)
(7.20842e-06 -2.18218e-05 3.70579e-07)
(8.03501e-06 -2.15672e-05 4.22567e-07)
(8.45994e-06 -2.09501e-05 4.82697e-07)
(8.40844e-06 -2.00929e-05 5.48036e-07)
(7.83933e-06 -1.91192e-05 6.14384e-07)
(6.75332e-06 -1.81512e-05 6.76616e-07)
(5.19779e-06 -1.7304e-05 7.29379e-07)
(3.26641e-06 -1.66763e-05 7.67614e-07)
(1.09233e-06 -1.63407e-05 7.87649e-07)
(-1.16573e-06 -1.63359e-05 7.8772e-07)
(-3.34052e-06 -1.66616e-05 7.67831e-07)
(-5.27324e-06 -1.7279e-05 7.29757e-07)
(-6.8307e-06 -1.81148e-05 6.7719e-07)
(-7.91912e-06 -1.90702e-05 6.15198e-07)
(-8.49085e-06 -2.00298e-05 5.49216e-07)
(-8.54471e-06 -2.08711e-05 4.84358e-07)
(-8.12132e-06 -2.14711e-05 4.24797e-07)
(-7.29441e-06 -2.17078e-05 3.73498e-07)
(-6.16172e-06 -2.14581e-05 3.31871e-07)
(-4.83604e-06 -2.05892e-05 2.99471e-07)
(-3.43895e-06 -1.89396e-05 2.73613e-07)
(-2.09118e-06 -1.62775e-05 2.46813e-07)
(-9.33e-07 -1.2193e-05 2.04754e-07)
(-1.07444e-07 -5.75947e-06 1.07657e-07)
(1.11833e-07 -6.85886e-06 1.11976e-07)
(9.67338e-07 -1.4466e-05 2.12922e-07)
(2.16891e-06 -1.9279e-05 2.57369e-07)
(3.572e-06 -2.24253e-05 2.87232e-07)
(5.03385e-06 -2.4405e-05 3.17692e-07)
(6.42963e-06 -2.54976e-05 3.56674e-07)
(7.63205e-06 -2.58927e-05 4.06996e-07)
(8.52067e-06 -2.57412e-05 4.69041e-07)
(8.98874e-06 -2.51788e-05 5.41136e-07)
(8.95328e-06 -2.43377e-05 6.198e-07)
(8.36556e-06 -2.33511e-05 6.9998e-07)
(7.22159e-06 -2.23521e-05 7.75429e-07)
(5.56849e-06 -2.14676e-05 8.39555e-07)
(3.50539e-06 -2.08071e-05 8.86127e-07)
(1.17654e-06 -2.04527e-05 9.10517e-07)
(-1.24421e-06 -2.04483e-05 9.10554e-07)
(-3.57323e-06 -2.07938e-05 8.86223e-07)
(-5.63668e-06 -2.1445e-05 8.3973e-07)
(-7.2902e-06 -2.23198e-05 7.7574e-07)
(-8.43452e-06 -2.33079e-05 7.00455e-07)
(-9.02244e-06 -2.42829e-05 6.20548e-07)
(-9.05768e-06 -2.51118e-05 5.42213e-07)
(-8.5886e-06 -2.56616e-05 4.70499e-07)
(-7.69741e-06 -2.58007e-05 4.089e-07)
(-6.49027e-06 -2.53947e-05 3.59071e-07)
(-5.08686e-06 -2.42948e-05 3.20597e-07)
(-3.61431e-06 -2.23136e-05 2.90587e-07)
(-2.19756e-06 -1.91753e-05 2.60976e-07)
(-9.81613e-07 -1.43848e-05 2.16351e-07)
(-1.13714e-07 -6.81951e-06 1.13968e-07)
(1.16627e-07 -7.95126e-06 1.16783e-07)
(9.99718e-07 -1.67211e-05 2.21406e-07)
(2.23632e-06 -2.22652e-05 2.67649e-07)
(3.68131e-06 -2.59185e-05 3.00086e-07)
(5.19079e-06 -2.82694e-05 3.34767e-07)
(6.63931e-06 -2.96425e-05 3.80185e-07)
(7.89709e-06 -3.02519e-05 4.39439e-07)
(8.8393e-06 -3.02624e-05 5.12956e-07)
(9.35215e-06 -2.98179e-05 5.98834e-07)
(9.3441e-06 -2.90565e-05 6.93047e-07)
(8.75759e-06 -2.81172e-05 7.89666e-07)
(7.58158e-06 -2.71397e-05 8.81191e-07)
(5.86057e-06 -2.62591e-05 9.59348e-07)
(3.69699e-06 -2.55944e-05 1.01637e-06)
(1.24477e-06 -2.52356e-05 1.04631e-06)
(-1.30749e-06 -2.52317e-05 1.04631e-06)
(-3.75945e-06 -2.55824e-05 1.01637e-06)
(-5.92253e-06 -2.62388e-05 9.59369e-07)
(-7.64271e-06 -2.71107e-05 8.81269e-07)
(-8.81755e-06 -2.80791e-05 7.89871e-07)
(-9.40264e-06 -2.90091e-05 6.93438e-07)
(-9.40885e-06 -2.9761e-05 5.99427e-07)
(-8.89343e-06 -3.01963e-05 5.13851e-07)
(-7.94748e-06 -3.01772e-05 4.40645e-07)
(-6.68443e-06 -2.9561e-05 3.81725e-07)
(-5.2288e-06 -2.81841e-05 3.36602e-07)
(-3.71052e-06 -2.58344e-05 3.02158e-07)
(-2.2553e-06 -2.21893e-05 2.69828e-07)
(-1.00864e-06 -1.66632e-05 2.23427e-07)
(-1.17656e-07 -7.92421e-06 1.1796e-07)
(1.17472e-07 -9.06436e-06 1.17673e-07)
(9.987e-07 -1.90114e-05 2.2256e-07)
(2.23047e-06 -2.52991e-05 2.69414e-07)
(3.67282e-06 -2.94799e-05 3.04008e-07)
(5.18613e-06 -3.22354e-05 3.4291e-07)
(6.64884e-06 -3.39366e-05 3.94985e-07)
(7.93258e-06 -3.48215e-05 4.63534e-07)
(8.91108e-06 -3.50672e-05 5.49227e-07)
(9.4658e-06 -3.48217e-05 6.50143e-07)
(9.49695e-06 -3.4224e-05 7.61831e-07)
(8.93755e-06 -3.34132e-05 8.77433e-07)
(7.76706e-06 -3.25305e-05 9.87989e-07)
(6.02378e-06 -3.17138e-05 1.08327e-06)
(3.80995e-06 -3.10868e-05 1.15346e-06)
(1.28644e-06 -3.07453e-05 1.19059e-06)
(-1.3449e-06 -3.07416e-05 1.19056e-06)
(-3.86781e-06 -3.10758e-05 1.15338e-06)
(-6.08048e-06 -3.16954e-05 1.08317e-06)
(-7.82204e-06 -3.25046e-05 9.8788e-07)
(-8.99045e-06 -3.33797e-05 8.77398e-07)
(-9.54734e-06 -3.41829e-05 7.61999e-07)
(-9.51308e-06 -3.47732e-05 6.50478e-07)
(-8.95487e-06 -3.50119e-05 5.49776e-07)
(-7.97206e-06 -3.47604e-05 4.6428e-07)
(-6.68303e-06 -3.38711e-05 3.95928e-07)
(-5.21404e-06 -3.21685e-05 3.44047e-07)
(-3.69351e-06 -2.94155e-05 3.05311e-07)
(-2.24341e-06 -2.52422e-05 2.70786e-07)
(-1.00448e-06 -1.89688e-05 2.23801e-07)
(-1.18059e-07 -9.04503e-06 1.18406e-07)
(1.13212e-07 -1.0156e-05 1.13429e-07)
(9.54518e-07 -2.12509e-05 2.14044e-07)
(2.12937e-06 -2.82695e-05 2.59687e-07)
(3.50982e-06 -3.29844e-05 2.95479e-07)
(4.96745e-06 -3.61713e-05 3.37829e-07)
(6.38985e-06 -3.8248e-05 3.95712e-07)
(7.65551e-06 -3.94753e-05 4.72801e-07)
(8.64133e-06 -4.00389e-05 5.70014e-07)
(9.22748e-06 -4.00877e-05 6.85506e-07)
(9.30819e-06 -3.9756e-05 8.14695e-07)
(8.80671e-06 -3.91764e-05 9.49962e-07)
(7.69115e-06 -3.84833e-05 1.08098e-06)
(5.99019e-06 -3.78102e-05 1.19536e-06)
(3.80113e-06 -3.72789e-05 1.28066e-06)
(1.28674e-06 -3.69848e-05 1.32623e-06)
(-1.34169e-06 -3.69815e-05 1.32617e-06)
(-3.85523e-06 -3.72688e-05 1.28052e-06)
(-6.04267e-06 -3.77935e-05 1.19515e-06)
(-7.74124e-06 -3.846e-05 1.08077e-06)
(-8.85385e-06 -3.91466e-05 9.49799e-07)
(-9.35205e-06 -3.972e-05 8.14627e-07)
(-9.26773e-06 -4.0046e-05 6.85567e-07)
(-8.67755e-06 -3.99923e-05 5.70252e-07)
(-7.6872e-06 -3.94246e-05 4.73218e-07)
(-6.41644e-06 -3.81949e-05 3.96297e-07)
(-4.98842e-06 -3.61182e-05 3.38541e-07)
(-3.52478e-06 -3.29339e-05 2.96275e-07)
(-2.13838e-06 -2.82258e-05 2.60545e-07)
(-9.58324e-07 -2.12187e-05 2.14843e-07)
(-1.13532e-07 -1.01416e-05 1.13926e-07)
(1.02546e-07 -1.11726e-05 1.02779e-07)
(8.56903e-07 -2.33307e-05 1.93443e-07)
(1.9105e-06 -3.10341e-05 2.35463e-07)
(3.15517e-06 -3.62684e-05 2.70747e-07)
(4.48149e-06 -3.99e-05 3.14838e-07)
(5.79241e-06 -4.23913e-05 3.76433e-07)
(6.97985e-06 -4.4024e-05 4.5938e-07)
(7.92983e-06 -4.49899e-05 5.65002e-07)
(8.52633e-06 -4.5434e-05 6.91893e-07)
(8.66173e-06 -4.54807e-05 8.35667e-07)
(8.25158e-06 -4.52483e-05 9.88311e-07)
(7.25218e-06 -4.48556e-05 1.13824e-06)
(5.67886e-06 -4.44219e-05 1.27096e-06)
(3.61813e-06 -4.40571e-05 1.37131e-06)
(1.22758e-06 -4.38483e-05 1.42555e-06)
(-1.27954e-06 -4.38453e-05 1.4255e-06)
(-3.66902e-06 -4.40479e-05 1.37118e-06)
(-5.72778e-06 -4.44069e-05 1.27074e-06)
(-7.29832e-06 -4.48348e-05 1.13797e-06)
(-8.29444e-06 -4.52219e-05 9.88062e-07)
(-8.7008e-06 -4.54494e-05 8.35529e-07)
(-8.5613e-06 -4.53983e-05 6.91857e-07)
(-7.96042e-06 -4.49503e-05 5.65066e-07)
(-7.00587e-06 -4.39816e-05 4.59576e-07)
(-5.8136e-06 -4.23476e-05 3.76756e-07)
(-4.49769e-06 -3.98569e-05 3.15277e-07)
(-3.16634e-06 -3.62281e-05 2.71272e-07)
(-1.91697e-06 -3.09998e-05 2.36015e-07)
(-8.59483e-07 -2.33056e-05 1.93986e-07)
(-1.02703e-07 -1.11616e-05 1.03137e-07)
(8.42763e-08 -1.20495e-05 8.45114e-08)
(6.97226e-07 -2.51197e-05 1.58509e-07)
(1.55515e-06 -3.34213e-05 1.93829e-07)
(2.57787e-06 -3.91311e-05 2.26178e-07)
(3.68304e-06 -4.31982e-05 2.69087e-07)
(4.79585e-06 -4.61248e-05 3.30445e-07)
(5.82867e-06 -4.82097e-05 4.14192e-07)
(6.68409e-06 -4.96485e-05 5.22044e-07)
(7.25721e-06 -5.05783e-05 6.53138e-07)
(7.44451e-06 -5.11079e-05 8.03465e-07)
(7.15806e-06 -5.13344e-05 9.65182e-07)
(6.34388e-06 -5.13522e-05 1.1263e-06)
(5.00233e-06 -5.12552e-05 1.27085e-06)
(3.20298e-06 -5.11299e-05 1.38144e-06)
(1.08863e-06 -5.10458e-05 1.44182e-06)
(-1.13808e-06 -5.10432e-05 1.44174e-06)
(-3.25131e-06 -5.11219e-05 1.38128e-06)
(-5.04843e-06 -5.12418e-05 1.27059e-06)
(-6.38687e-06 -5.13337e-05 1.12603e-06)
(-7.19741e-06 -5.13112e-05 9.64896e-07)
(-7.47974e-06 -5.10805e-05 8.0324e-07)
(-7.28818e-06 -5.05473e-05 6.52954e-07)
(-6.71059e-06 -4.96145e-05 5.21971e-07)
(-5.85063e-06 -4.81738e-05 4.14241e-07)
(-4.81325e-06 -4.60882e-05 3.30582e-07)
(-3.69594e-06 -4.31626e-05 2.6932e-07)
(-2.58644e-06 -3.90983e-05 2.26485e-07)
(-1.55987e-06 -3.33935e-05 1.9417e-07)
(-6.98968e-07 -2.50997e-05 1.58883e-07)
(-8.43289e-08 -1.20407e-05 8.47984e-08)
(5.76748e-08 -1.27135e-05 5.79463e-08)
(4.70684e-07 -2.6471e-05 1.07945e-07)
(1.05319e-06 -3.52372e-05 1.33077e-07)
(1.7611e-06 -4.13437e-05 1.59373e-07)
(2.54677e-06 -4.58055e-05 1.97125e-07)
(3.36454e-06 -4.91576e-05 2.52762e-07)
(4.15463e-06 -5.17112e-05 3.29852e-07)
(4.84408e-06 -5.36613e-05 4.30465e-07)
(5.34773e-06 -5.51345e-05 5.54402e-07)
(5.57435e-06 -5.62199e-05 6.98492e-07)
(5.43975e-06 -5.69877e-05 8.556e-07)
(4.88379e-06 -5.74993e-05 1.01414e-06)
(3.89129e-06 -5.78146e-05 1.158e-06)
(2.50934e-06 -5.7987e-05 1.26917e-06)
(8.53628e-07 -5.80596e-05 1.33032e-06)
(-9.00841e-07 -5.80576e-05 1.33026e-06)
(-2.5553e-06 -5.79803e-05 1.26902e-06)
(-3.93486e-06 -5.78029e-05 1.15772e-06)
(-4.92413e-06 -5.74833e-05 1.01379e-06)
(-5.47635e-06 -5.69673e-05 8.55212e-07)
(-5.60668e-06 -5.61958e-05 6.98193e-07)
(-5.37565e-06 -5.51073e-05 5.54147e-07)
(-4.86753e-06 -5.36319e-05 4.3032e-07)
(-4.17361e-06 -5.16805e-05 3.29798e-07)
(-3.37918e-06 -4.91265e-05 2.52765e-07)
(-2.55732e-06 -4.57757e-05 1.97224e-07)
(-1.76789e-06 -4.13165e-05 1.59541e-07)
(-1.05677e-06 -3.52144e-05 1.33338e-07)
(-4.71911e-07 -2.64546e-05 1.08225e-07)
(-5.76843e-08 -1.27064e-05 5.81808e-08)
(2.28333e-08 -1.30896e-05 2.30741e-08)
(1.78841e-07 -2.72339e-05 4.17703e-08)
(4.08299e-07 -3.62824e-05 5.30705e-08)
(7.10124e-07 -4.26667e-05 6.97433e-08)
(1.07854e-06 -4.74443e-05 9.75904e-08)
(1.50251e-06 -5.11711e-05 1.40702e-07)
(1.95759e-06 -5.41653e-05 2.02105e-07)
(2.40352e-06 -5.66175e-05 2.83773e-07)
(2.78384e-06 -5.86404e-05 3.86108e-07)
(3.02956e-06 -6.03004e-05 5.07119e-07)
(3.06857e-06 -6.16369e-05 6.40945e-07)
(2.8407e-06 -6.26754e-05 7.77924e-07)
(2.3168e-06 -6.34347e-05 9.03639e-07)
(1.51613e-06 -6.39302e-05 1.00169e-06)
(5.14795e-07 -6.41737e-05 1.05601e-06)
(-5.59907e-07 -6.41717e-05 1.05593e-06)
(-1.55986e-06 -6.39239e-05 1.00148e-06)
(-2.35812e-06 -6.34241e-05 9.03278e-07)
(-2.87874e-06 -6.26609e-05 7.77517e-07)
(-3.10264e-06 -6.16187e-05 6.40522e-07)
(-3.05939e-06 -6.02791e-05 5.06706e-07)
(-2.80933e-06 -5.86164e-05 3.85768e-07)
(-2.42463e-06 -5.65918e-05 2.83483e-07)
(-1.9744e-06 -5.41387e-05 2.01929e-07)
(-1.51521e-06 -5.11443e-05 1.40616e-07)
(-1.08746e-06 -4.74189e-05 9.75469e-08)
(-7.15713e-07 -4.26435e-05 6.98033e-08)
(-4.11104e-07 -3.62632e-05 5.32171e-08)
(-1.79674e-07 -2.72202e-05 4.19735e-08)
(-2.27768e-08 -1.30836e-05 2.32895e-08)
(-1.93417e-08 -1.31076e-05 -1.90845e-08)
(-1.6899e-07 -2.72691e-05 -3.80119e-08)
(-3.58257e-07 -3.63719e-05 -4.38293e-08)
(-5.40675e-07 -4.28755e-05 -4.0357e-08)
(-6.75058e-07 -4.78499e-05 -2.73306e-08)
(-7.33219e-07 -5.18557e-05 -3.64126e-09)
(-6.98293e-07 -5.52105e-05 3.26198e-08)
(-5.70037e-07 -5.80967e-05 8.31379e-08)
(-3.6714e-07 -6.06111e-05 1.48883e-07)
(-1.27017e-07 -6.27974e-05 2.29237e-07)
(9.98446e-08 -6.46635e-05 3.20723e-07)
(2.60133e-07 -6.61972e-05 4.16731e-07)
(3.12977e-07 -6.7377e-05 5.06516e-07)
(2.44902e-07 -6.81799e-05 5.77559e-07)
(7.97712e-08 -6.85862e-05 6.17274e-07)
(-1.22445e-07 -6.85841e-05 6.1715e-07)
(-2.86254e-07 -6.81738e-05 5.77284e-07)
(-3.519e-07 -6.73671e-05 5.0612e-07)
(-2.95807e-07 -6.61836e-05 4.16248e-07)
(-1.31718e-07 -6.46465e-05 3.20251e-07)
(9.92573e-08 -6.27779e-05 2.28776e-07)
(3.43622e-07 -6.05895e-05 1.48489e-07)
(5.5075e-07 -5.80736e-05 8.28028e-08)
(6.83063e-07 -5.51869e-05 3.2383e-08)
(7.21862e-07 -5.18323e-05 -3.77973e-09)
(6.67257e-07 -4.78277e-05 -2.73914e-08)
(5.35961e-07 -4.28556e-05 -4.03325e-08)
(3.56006e-07 -3.63555e-05 -4.37362e-08)
(1.68374e-07 -2.72573e-05 -3.78416e-08)
(1.94129e-08 -1.31025e-05 -1.88948e-08)
(-6.65255e-08 -1.2713e-05 -6.63054e-08)
(-5.54091e-07 -2.64691e-05 -1.27329e-07)
(-1.20577e-06 -3.53621e-05 -1.52768e-07)
(-1.92579e-06 -4.17925e-05 -1.65375e-07)
(-2.62358e-06 -4.68066e-05 -1.71396e-07)
(-3.22904e-06 -5.0952e-05 -1.73338e-07)
(-3.67991e-06 -5.45362e-05 -1.70854e-07)
(-3.92961e-06 -5.77299e-05 -1.62631e-07)
(-3.95144e-06 -6.06144e-05 -1.47052e-07)
(-3.74236e-06 -6.32107e-05 -1.23146e-07)
(-3.32284e-06 -6.54984e-05 -9.13107e-08)
(-2.73308e-06 -6.74327e-05 -5.39598e-08)
(-2.02328e-06 -6.89557e-05 -1.61199e-08)
(-1.24286e-06 -7.00106e-05 1.55361e-08)
(-4.30459e-07 -7.05506e-05 3.38617e-08)
(3.90661e-07 -7.05487e-05 3.37476e-08)
(1.2043e-06 -7.0005e-05 1.52393e-08)
(1.98692e-06 -6.89466e-05 -1.65739e-08)
(2.69975e-06 -6.74199e-05 -5.44435e-08)
(3.29314e-06 -6.54827e-05 -9.17864e-08)
(3.71655e-06 -6.31927e-05 -1.23643e-07)
(3.92957e-06 -6.05947e-05 -1.47485e-07)
(3.91173e-06 -5.7709e-05 -1.6295e-07)
(3.6659e-06 -5.45152e-05 -1.71138e-07)
(3.21863e-06 -5.09314e-05 -1.73519e-07)
(2.61651e-06 -4.67873e-05 -1.7146e-07)
(1.92163e-06 -4.17752e-05 -1.6538e-07)
(1.20382e-06 -3.53478e-05 -1.527e-07)
(5.53625e-07 -2.64589e-05 -1.27158e-07)
(6.66245e-08 -1.27086e-05 -6.61089e-08)
(-1.15396e-07 -1.18772e-05 -1.15182e-07)
(-9.48966e-07 -2.47784e-05 -2.19749e-07)
(-2.07417e-06 -3.31773e-05 -2.65874e-07)
(-3.34839e-06 -3.93191e-05 -2.96369e-07)
(-4.63319e-06 -4.41864e-05 -3.24393e-07)
(-5.8166e-06 -4.82957e-05 -3.56366e-07)
(-6.7888e-06 -5.19356e-05 -3.93644e-07)
(-7.45332e-06 -5.52618e-05 -4.35605e-07)
(-7.73293e-06 -5.83402e-05 -4.80007e-07)
(-7.57792e-06 -6.11726e-05 -5.23952e-07)
(-6.97299e-06 -6.37176e-05 -5.64298e-07)
(-5.9397e-06 -6.59042e-05 -5.98078e-07)
(-4.53508e-06 -6.7648e-05 -6.23544e-07)
(-2.84635e-06 -6.88672e-05 -6.39987e-07)
(-9.80906e-07 -6.94949e-05 -6.47832e-07)
(9.44493e-07 -6.9493e-05 -6.47917e-07)
(2.81102e-06 -6.88619e-05 -6.40185e-07)
(4.50184e-06 -6.76392e-05 -6.23862e-07)
(5.90908e-06 -6.58919e-05 -5.98481e-07)
(6.94554e-06 -6.37027e-05 -5.64699e-07)
(7.5539e-06 -6.11556e-05 -5.2433e-07)
(7.71249e-06 -5.83218e-05 -4.80365e-07)
(7.43659e-06 -5.5243e-05 -4.35879e-07)
(6.77567e-06 -5.19166e-05 -3.93883e-07)
(5.80685e-06 -4.82774e-05 -3.5654e-07)
(4.6266e-06 -4.41695e-05 -3.24505e-07)
(3.34451e-06 -3.93042e-05 -2.96402e-07)
(2.07236e-06 -3.3165e-05 -2.65821e-07)
(9.48524e-07 -2.47697e-05 -2.19585e-07)
(1.15485e-07 -1.18733e-05 -1.14992e-07)
(-1.61387e-07 -1.06068e-05 -1.61198e-07)
(-1.31757e-06 -2.22127e-05 -3.0671e-07)
(-2.88646e-06 -2.98342e-05 -3.72728e-07)
(-4.6861e-06 -3.5465e-05 -4.21148e-07)
(-6.53552e-06 -3.99852e-05 -4.71942e-07)
(-8.28352e-06 -4.38614e-05 -5.35544e-07)
(-9.77391e-06 -4.73554e-05 -6.15065e-07)
(-1.08595e-05 -5.06058e-05 -7.10576e-07)
(-1.14107e-05 -5.3665e-05 -8.1944e-07)
(-1.13293e-05 -5.65224e-05 -9.36621e-07)
(-1.05603e-05 -5.9122e-05 -1.05502e-06)
(-9.10358e-06 -6.13781e-05 -1.16597e-06)
(-7.02113e-06 -6.31915e-05 -1.26027e-06)
(-4.4368e-06 -6.44657e-05 -1.32899e-06)
(-1.52727e-06 -6.51236e-05 -1.36517e-06)
(1.4951e-06 -6.51217e-05 -1.36524e-06)
(4.4054e-06 -6.44601e-05 -1.32918e-06)
(6.99124e-06 -6.31825e-05 -1.26052e-06)
(9.07579e-06 -6.13663e-05 -1.16625e-06)
(1.05351e-05 -5.91079e-05 -1.05534e-06)
(1.1307e-05 -5.65066e-05 -9.36905e-07)
(1.13916e-05 -5.36483e-05 -8.19701e-07)
(1.08437e-05 -5.05888e-05 -7.10822e-07)
(9.76134e-06 -4.73384e-05 -6.15262e-07)
(8.27419e-06 -4.38452e-05 -5.35691e-07)
(6.52914e-06 -3.99704e-05 -4.72039e-07)
(4.6823e-06 -3.54522e-05 -4.21122e-07)
(2.88478e-06 -2.98238e-05 -3.72649e-07)
(1.31718e-06 -2.22053e-05 -3.06552e-07)
(1.61479e-07 -1.06035e-05 -1.61007e-07)
(-1.98963e-07 -8.95294e-06 -1.988e-07)
(-1.61793e-06 -1.88748e-05 -3.77689e-07)
(-3.5541e-06 -2.54635e-05 -4.60097e-07)
(-5.7991e-06 -3.03737e-05 -5.23994e-07)
(-8.13937e-06 -3.43496e-05 -5.9543e-07)
(-1.03896e-05 -3.77931e-05 -6.88414e-07)
(-1.23511e-05 -4.09334e-05 -8.07958e-07)
(-1.38291e-05 -4.38906e-05 -9.54897e-07)
(-1.46443e-05 -4.67065e-05 -1.126e-06)
(-1.46506e-05 -4.93639e-05 -1.31418e-06)
(-1.37544e-05 -5.1802e-05 -1.50857e-06)
(-1.19336e-05 -5.39321e-05 -1.69477e-06)
(-9.25239e-06 -5.56522e-05 -1.85613e-06)
(-5.8671e-06 -5.6865e-05 -1.97576e-06)
(-2.01875e-06 -5.7492e-05 -2.03966e-06)
(1.99124e-06 -5.74902e-05 -2.03967e-06)
(5.84003e-06 -5.68596e-05 -1.97582e-06)
(9.22632e-06 -5.56439e-05 -1.8562e-06)
(1.1909e-05 -5.39209e-05 -1.69486e-06)
(1.37317e-05 -5.17889e-05 -1.50867e-06)
(1.463e-05 -4.93495e-05 -1.31428e-06)
(1.46264e-05 -4.66915e-05 -1.12612e-06)
(1.3814e-05 -4.38754e-05 -9.55007e-07)
(1.2339e-05 -4.09187e-05 -8.0804e-07)
(1.03805e-05 -3.77792e-05 -6.88468e-07)
(8.13314e-06 -3.43369e-05 -5.95496e-07)
(5.79536e-06 -3.03628e-05 -5.23971e-07)
(3.55237e-06 -2.54547e-05 -4.60007e-07)
(1.61749e-06 -1.88687e-05 -3.77521e-07)
(1.99039e-07 -8.95028e-06 -1.98613e-07)
(-2.21747e-07 -7.01732e-06 -2.21601e-07)
(-1.80403e-06 -1.49651e-05 -4.204e-07)
(-3.98318e-06 -2.03202e-05 -5.12339e-07)
(-6.54198e-06 -2.43354e-05 -5.85902e-07)
(-9.24775e-06 -2.75959e-05 -6.71911e-07)
(-1.1888e-05 -3.04292e-05 -7.87336e-07)
(-1.42286e-05 -3.30276e-05 -9.3897e-07)
(-1.60336e-05 -3.54922e-05 -1.12828e-06)
(-1.7081e-05 -3.78578e-05 -1.35163e-06)
(-1.71835e-05 -4.01065e-05 -1.6001e-06)
(-1.62131e-05 -4.21821e-05 -1.85949e-06)
(-1.41274e-05 -4.40035e-05 -2.1103e-06)
(-1.09907e-05 -4.54794e-05 -2.3295e-06)
(-6.98493e-06 -4.65217e-05 -2.49309e-06)
(-2.40315e-06 -4.70613e-05 -2.58083e-06)
(2.38065e-06 -4.70597e-05 -2.58078e-06)
(6.96255e-06 -4.65169e-05 -2.49299e-06)
(1.09687e-05 -4.5472e-05 -2.3294e-06)
(1.41061e-05 -4.3994e-05 -2.11022e-06)