/*--------------------------------*- C++ -*----------------------------------*\
| =========                 |                                                 |
| \\      /  F ield         | OpenFOAM: The Open Source CFD Toolbox           |
|  \\    /   O peration     | Version:  v1906                                 |
|   \\  /    A nd           | Web:      www.OpenFOAM.com                      |
|    \\/     M anipulation  |                                                 |
\*---------------------------------------------------------------------------*/
FoamFile
{
    version     2.0;
    format      ascii;
    class       volVectorField;
    location    "0.6/oil";
    object      U;
}
// * * * * * * * * * * * * * * * * * * * * * * * * * * * * * * * * * * * * * //

dimensions      [0 1 -1 0 0 0 0];


internalField   nonuniform List<vector> 
27760
(
(-3.89195e-05 -3.96484e-05 -3.89195e-05)
(-7.67716e-05 -2.95232e-05 -2.78553e-05)
(-6.09217e-06 -7.60838e-06 -7.56922e-06)
(-9.77629e-06 -1.25991e-06 -1.37042e-06)
(-2.744e-06 -4.17113e-07 -5.21593e-07)
(-1.77235e-06 -1.93079e-07 -2.88189e-07)
(-9.2448e-07 -6.01324e-08 -1.50095e-07)
(-5.54993e-07 -9.41561e-09 -9.64414e-08)
(-3.51988e-07 1.38438e-08 -7.09736e-08)
(-2.40375e-07 2.40881e-08 -5.89998e-08)
(-1.73535e-07 2.88023e-08 -5.29553e-08)
(-1.30837e-07 3.09809e-08 -4.9792e-08)
(-1.01388e-07 3.20319e-08 -4.80486e-08)
(-7.9667e-08 3.25826e-08 -4.70571e-08)
(-6.27305e-08 3.29379e-08 -4.64859e-08)
(-4.90416e-08 3.3247e-08 -4.61747e-08)
(-3.77772e-08 3.35843e-08 -4.60481e-08)
(-2.84469e-08 3.39842e-08 -4.60803e-08)
(-2.06316e-08 3.44565e-08 -4.62804e-08)
(-1.37997e-08 3.49898e-08 -4.66848e-08)
(-7.05235e-09 3.55252e-08 -4.73605e-08)
(1.02547e-09 3.59391e-08 -4.83653e-08)
(1.29591e-08 3.59442e-08 -4.97744e-08)
(3.20486e-08 3.52085e-08 -5.14592e-08)
(6.28048e-08 3.33902e-08 -5.31737e-08)
(1.05287e-07 3.13127e-08 -5.38583e-08)
(1.50294e-07 3.10029e-08 -5.24278e-08)
(1.63054e-07 3.48902e-08 -4.64028e-08)
(1.09284e-07 3.46423e-08 -3.37823e-08)
(1.24942e-08 1.56252e-08 -1.21025e-08)
(-2.80842e-05 -7.83919e-05 -2.80842e-05)
(-9.7277e-06 -9.63248e-06 -1.25253e-05)
(-1.32911e-05 -1.16419e-05 -4.44037e-06)
(-6.98306e-06 -2.87549e-06 -1.36806e-06)
(-3.75094e-06 -1.44057e-06 -7.25305e-07)
(-2.39994e-06 -4.48018e-07 -4.04492e-07)
(-1.49514e-06 -2.60085e-08 -2.46927e-07)
(-1.00735e-06 1.82803e-07 -1.7619e-07)
(-7.09271e-07 2.85253e-07 -1.4114e-07)
(-5.23e-07 3.37498e-07 -1.23898e-07)
(-3.98214e-07 3.64967e-07 -1.14982e-07)
(-3.09493e-07 3.7997e-07 -1.10244e-07)
(-2.4218e-07 3.88538e-07 -1.07606e-07)
(-1.88187e-07 3.93731e-07 -1.06073e-07)
(-1.42909e-07 3.97152e-07 -1.05129e-07)
(-1.03794e-07 3.99654e-07 -1.04513e-07)
(-6.94004e-08 4.0167e-07 -1.04098e-07)
(-3.87993e-08 4.03371e-07 -1.03836e-07)
(-1.11475e-08 4.04737e-07 -1.03736e-07)
(1.46277e-08 4.05536e-07 -1.03843e-07)
(4.02065e-08 4.05256e-07 -1.04249e-07)
(6.80616e-08 4.02971e-07 -1.05062e-07)
(1.02148e-07 3.97259e-07 -1.06469e-07)
(1.4713e-07 3.86765e-07 -1.08484e-07)
(2.08408e-07 3.72526e-07 -1.11139e-07)
(2.83144e-07 3.63195e-07 -1.13219e-07)
(3.52937e-07 3.77869e-07 -1.12797e-07)
(3.58831e-07 4.24801e-07 -1.03738e-07)
(2.46095e-07 4.32965e-07 -8.04452e-08)
(3.23412e-08 2.343e-07 -3.18653e-08)
(-7.77544e-06 -6.66308e-06 -7.77539e-06)
(-1.27901e-05 -1.21389e-05 -4.55521e-06)
(-7.43847e-06 -5.84553e-06 -2.10737e-06)
(-5.33518e-06 -2.44116e-06 -1.08577e-06)
(-3.37579e-06 -1.0238e-06 -5.8688e-07)
(-2.31536e-06 -1.37348e-07 -3.45438e-07)
(-1.58773e-06 3.19471e-07 -2.23679e-07)
(-1.14499e-06 5.73276e-07 -1.65584e-07)
(-8.51848e-07 7.13203e-07 -1.36014e-07)
(-6.53618e-07 7.92311e-07 -1.2107e-07)
(-5.11485e-07 8.3802e-07 -1.13162e-07)
(-4.04167e-07 8.65195e-07 -1.08878e-07)
(-3.18527e-07 8.81867e-07 -1.06449e-07)
(-2.4693e-07 8.92511e-07 -1.05002e-07)
(-1.8487e-07 8.99653e-07 -1.04066e-07)
(-1.29805e-07 9.04718e-07 -1.03396e-07)
(-8.02882e-08 9.08449e-07 -1.02867e-07)
(-3.5379e-08 9.11119e-07 -1.02437e-07)
(5.80435e-09 9.12638e-07 -1.02111e-07)
(4.43953e-08 9.12539e-07 -1.01934e-07)
(8.20972e-08 9.09902e-07 -1.01985e-07)
(1.21238e-07 9.0324e-07 -1.02362e-07)
(1.65197e-07 8.90654e-07 -1.03263e-07)
(2.17222e-07 8.71191e-07 -1.04766e-07)
(2.80134e-07 8.49468e-07 -1.07111e-07)
(3.47704e-07 8.43902e-07 -1.0944e-07)
(4.00189e-07 8.88833e-07 -1.10289e-07)
(3.83365e-07 9.88262e-07 -1.03289e-07)
(2.55991e-07 9.9326e-07 -8.19877e-08)
(3.31364e-08 5.51493e-07 -3.26237e-08)
(-1.46678e-06 -9.33261e-06 -1.46672e-06)
(-3.80019e-06 -5.34968e-06 -1.40149e-06)
(-3.81481e-06 -3.40498e-06 -1.06876e-06)
(-3.26958e-06 -1.50513e-06 -6.38031e-07)
(-2.41878e-06 -4.63406e-07 -3.77686e-07)
(-1.83621e-06 2.42032e-07 -2.36191e-07)
(-1.38048e-06 6.62451e-07 -1.58362e-07)
(-1.06467e-06 9.20894e-07 -1.18526e-07)
(-8.34515e-07 1.07665e-06 -9.73201e-08)
(-6.65051e-07 1.17168e-06 -8.6189e-08)
(-5.34589e-07 1.23035e-06 -8.01252e-08)
(-4.30021e-07 1.26728e-06 -7.67733e-08)
(-3.42455e-07 1.29101e-06 -7.48456e-08)
(-2.66445e-07 1.3067e-06 -7.36706e-08)
(-1.98688e-07 1.3174e-06 -7.28772e-08)
(-1.3736e-07 1.32492e-06 -7.22609e-08)
(-8.14943e-08 1.33023e-06 -7.17206e-08)
(-3.04976e-08 1.33366e-06 -7.12238e-08)
(1.62205e-08 1.33508e-06 -7.07805e-08)
(5.94842e-08 1.33388e-06 -7.04363e-08)
(1.00551e-07 1.32894e-06 -7.02661e-08)
(1.41006e-07 1.31866e-06 -7.03576e-08)
(1.82926e-07 1.30144e-06 -7.09005e-08)
(2.27589e-07 1.27773e-06 -7.20085e-08)
(2.75252e-07 1.25635e-06 -7.40192e-08)
(3.18593e-07 1.26375e-06 -7.64179e-08)
(3.41887e-07 1.34305e-06 -7.83006e-08)
(3.07483e-07 1.48629e-06 -7.45379e-08)
(1.95354e-07 1.4749e-06 -5.99237e-08)
(2.43663e-08 8.15663e-07 -2.37945e-08)
(-5.29519e-07 -1.88898e-06 -5.29466e-07)
(-2.09373e-06 -1.74733e-06 -6.87488e-07)
(-2.18748e-06 -1.16537e-06 -5.36547e-07)
(-2.0505e-06 -3.75656e-07 -3.51701e-07)
(-1.68916e-06 1.85229e-07 -2.20713e-07)
(-1.38839e-06 6.44085e-07 -1.4298e-07)
(-1.12189e-06 9.66215e-07 -9.74016e-08)
(-9.15012e-07 1.18776e-06 -7.28572e-08)
(-7.49947e-07 1.33408e-06 -5.92381e-08)
(-6.18229e-07 1.43029e-06 -5.18431e-08)
(-5.09647e-07 1.49355e-06 -4.77091e-08)
(-4.17417e-07 1.53552e-06 -4.53902e-08)
(-3.36435e-07 1.56371e-06 -4.40466e-08)
(-2.63481e-07 1.58297e-06 -4.32094e-08)
(-1.96653e-07 1.59639e-06 -4.26128e-08)
(-1.35062e-07 1.60587e-06 -4.20935e-08)
(-7.84284e-08 1.61246e-06 -4.15768e-08)
(-2.66837e-08 1.61653e-06 -4.1053e-08)
(2.03185e-08 1.61793e-06 -4.0544e-08)
(6.29596e-08 1.61602e-06 -4.00932e-08)
(1.01948e-07 1.60977e-06 -3.97756e-08)
(1.38107e-07 1.59784e-06 -3.96661e-08)
(1.72373e-07 1.57941e-06 -3.99323e-08)
(2.04667e-07 1.55675e-06 -4.06851e-08)
(2.33906e-07 1.54219e-06 -4.22608e-08)
(2.53721e-07 1.56718e-06 -4.43753e-08)
(2.53979e-07 1.67724e-06 -4.65414e-08)
(2.13277e-07 1.84978e-06 -4.51001e-08)
(1.26981e-07 1.81429e-06 -3.6463e-08)
(1.4682e-08 9.94336e-07 -1.40634e-08)
(-2.60238e-07 -6.99179e-07 -2.60183e-07)
(-9.7077e-07 -1.90585e-07 -3.30948e-07)
(-1.1866e-06 7.92035e-08 -2.70891e-07)
(-1.24409e-06 3.90398e-07 -1.89858e-07)
(-1.13747e-06 6.72979e-07 -1.23916e-07)
(-1.01165e-06 9.61283e-07 -8.20097e-08)
(-8.75049e-07 1.19813e-06 -5.59706e-08)
(-7.5285e-07 1.37862e-06 -4.12643e-08)
(-6.44012e-07 1.5077e-06 -3.27822e-08)
(-5.48809e-07 1.59816e-06 -2.8046e-08)
(-4.64077e-07 1.66093e-06 -2.53649e-08)
(-3.8734e-07 1.70452e-06 -2.38746e-08)
(-3.16369e-07 1.73492e-06 -2.30283e-08)
(-2.49794e-07 1.75632e-06 -2.24977e-08)
(-1.87009e-07 1.77153e-06 -2.20853e-08)
(-1.28061e-07 1.7824e-06 -2.16574e-08)
(-7.34169e-08 1.78994e-06 -2.11606e-08)
(-2.35789e-08 1.7945e-06 -2.06075e-08)
(2.11272e-08 1.79597e-06 -2.00324e-08)
(6.06559e-08 1.79378e-06 -1.94922e-08)
(9.52616e-08 1.78713e-06 -1.90636e-08)
(1.25234e-07 1.77514e-06 -1.88168e-08)
(1.50835e-07 1.7579e-06 -1.88849e-08)
(1.71428e-07 1.73924e-06 -1.93728e-08)
(1.85701e-07 1.73389e-06 -2.05638e-08)
(1.89157e-07 1.77569e-06 -2.2298e-08)
(1.76465e-07 1.90873e-06 -2.42995e-08)
(1.3755e-07 2.09683e-06 -2.4077e-08)
(7.54505e-08 2.0342e-06 -1.93367e-08)
(7.44444e-09 1.10255e-06 -6.80521e-09)
(-1.09819e-07 2.40423e-07 -1.09765e-07)
(-4.92532e-07 8.25373e-07 -1.57234e-07)
(-6.77887e-07 9.2077e-07 -1.36421e-07)
(-7.77818e-07 9.61566e-07 -1.01201e-07)
(-7.74984e-07 1.05669e-06 -6.85743e-08)
(-7.37854e-07 1.21747e-06 -4.65315e-08)
(-6.77005e-07 1.3808e-06 -3.20867e-08)
(-6.10793e-07 1.52041e-06 -2.35901e-08)
(-5.43168e-07 1.6285e-06 -1.85384e-08)
(-4.77394e-07 1.70901e-06 -1.56873e-08)
(-4.13626e-07 1.76778e-06 -1.41017e-08)
(-3.51696e-07 1.81039e-06 -1.32766e-08)
(-2.91125e-07 1.84117e-06 -1.28618e-08)
(-2.31827e-07 1.86345e-06 -1.26099e-08)
(-1.74181e-07 1.8796e-06 -1.23697e-08)
(-1.19036e-07 1.89123e-06 -1.20214e-08)
(-6.75407e-08 1.89928e-06 -1.15272e-08)
(-2.07292e-08 1.90407e-06 -1.09278e-08)
(2.06626e-08 1.90552e-06 -1.0264e-08)
(5.62577e-08 1.90321e-06 -9.62675e-09)
(8.6021e-08 1.89663e-06 -9.08442e-09)
(1.09981e-07 1.88541e-06 -8.70576e-09)
(1.28143e-07 1.87043e-06 -8.60224e-09)
(1.39876e-07 1.85671e-06 -8.8531e-09)
(1.44233e-07 1.86034e-06 -9.67644e-09)
(1.38585e-07 1.91582e-06 -1.09681e-08)
(1.20852e-07 2.06427e-06 -1.25345e-08)
(8.74734e-08 2.25858e-06 -1.2681e-08)
(4.38e-08 2.17036e-06 -9.89249e-09)
(3.49276e-09 1.1635e-06 -2.85693e-09)
(-5.13239e-08 6.5502e-07 -5.12685e-08)
(-2.59098e-07 1.37996e-06 -7.89349e-08)
(-4.00516e-07 1.43875e-06 -7.16585e-08)
(-4.98771e-07 1.35548e-06 -5.55493e-08)
(-5.3614e-07 1.34335e-06 -3.89057e-08)
(-5.42376e-07 1.42121e-06 -2.70292e-08)
(-5.24258e-07 1.53047e-06 -1.89042e-08)
(-4.93529e-07 1.63653e-06 -1.39865e-08)
(-4.54597e-07 1.72522e-06 -1.10282e-08)
(-4.111e-07 1.79516e-06 -9.4015e-09)
(-3.64423e-07 1.84871e-06 -8.5874e-09)
(-3.15409e-07 1.88911e-06 -8.26773e-09)
(-2.64512e-07 1.91929e-06 -8.20941e-09)
(-2.1242e-07 1.94168e-06 -8.20195e-09)
(-1.60196e-07 1.95814e-06 -8.11965e-09)
(-1.09303e-07 1.97001e-06 -7.83511e-09)
(-6.14686e-08 1.97809e-06 -7.32004e-09)
(-1.81646e-08 1.98265e-06 -6.65667e-09)
(1.95532e-08 1.98371e-06 -5.89518e-09)
(5.10926e-08 1.98103e-06 -5.14963e-09)
(7.62885e-08 1.97442e-06 -4.48844e-09)
(9.51097e-08 1.96396e-06 -3.99222e-09)
(1.07564e-07 1.95116e-06 -3.74878e-09)
(1.13282e-07 1.94182e-06 -3.81701e-09)
(1.11843e-07 1.95263e-06 -4.34917e-09)
(1.02062e-07 2.01787e-06 -5.26741e-09)
(8.3733e-08 2.1754e-06 -6.4137e-09)
(5.65185e-08 2.36986e-06 -6.5969e-09)
(2.56835e-08 2.25854e-06 -4.78571e-09)
(1.34247e-09 1.19895e-06 -7.26288e-10)
(-2.46254e-08 8.82372e-07 -2.45708e-08)
(-1.45283e-07 1.71985e-06 -4.10504e-08)
(-2.48761e-07 1.78161e-06 -3.92299e-08)
(-3.32075e-07 1.63822e-06 -3.18171e-08)
(-3.80326e-07 1.56264e-06 -2.31822e-08)
(-4.04968e-07 1.58598e-06 -1.66902e-08)
(-4.09114e-07 1.65612e-06 -1.21066e-08)
(-3.99509e-07 1.73587e-06 -9.30319e-09)
(-3.79496e-07 1.8081e-06 -7.65721e-09)
(-3.52017e-07 1.86835e-06 -6.84751e-09)
(-3.18596e-07 1.91666e-06 -6.58408e-09)
(-2.80329e-07 1.95459e-06 -6.65525e-09)
(-2.3803e-07 1.98382e-06 -6.89748e-09)
(-1.92768e-07 2.00596e-06 -7.10711e-09)
(-1.46009e-07 2.02235e-06 -7.16452e-09)
(-9.96253e-08 2.03401e-06 -6.93226e-09)
(-5.57949e-08 2.0416e-06 -6.39126e-09)
(-1.63034e-08 2.04537e-06 -5.656e-09)
(1.75986e-08 2.04546e-06 -4.78906e-09)
(4.52135e-08 2.04186e-06 -3.94311e-09)
(6.63566e-08 2.03468e-06 -3.18216e-09)
(8.10506e-08 2.02444e-06 -2.58921e-09)
(8.94339e-08 2.0131e-06 -2.22621e-09)
(9.14501e-08 2.00691e-06 -2.1465e-09)
(8.71353e-08 2.02277e-06 -2.44333e-09)
(7.62603e-08 2.09434e-06 -3.05861e-09)
(5.95376e-08 2.25662e-06 -3.83621e-09)
(3.79806e-08 2.44815e-06 -3.9125e-09)
(1.58858e-08 2.31707e-06 -2.5373e-09)
(4.85125e-10 1.21968e-06 1.01558e-10)
(-1.25544e-08 1.00908e-06 -1.25009e-08)
(-8.6711e-08 1.93427e-06 -2.26424e-08)
(-1.62008e-07 2.01406e-06 -2.27978e-08)
(-2.28995e-07 1.84432e-06 -1.92647e-08)
(-2.76168e-07 1.73262e-06 -1.45924e-08)
(-3.06736e-07 1.72131e-06 -1.09124e-08)
(-3.21449e-07 1.76444e-06 -8.27694e-09)
(-3.23754e-07 1.82481e-06 -6.68618e-09)
(-3.15752e-07 1.88425e-06 -5.83423e-09)
(-2.99469e-07 1.93666e-06 -5.54682e-09)
(-2.76118e-07 1.98064e-06 -5.65523e-09)
(-2.46674e-07 2.0165e-06 -6.00592e-09)
(-2.11985e-07 2.04494e-06 -6.47405e-09)
(-1.73234e-07 2.06686e-06 -6.85086e-09)
(-1.32049e-07 2.08302e-06 -7.03016e-09)
(-9.05252e-08 2.09416e-06 -6.84202e-09)
(-5.11129e-08 2.10076e-06 -6.27158e-09)
(-1.5765e-08 2.10312e-06 -5.48438e-09)
(1.41893e-08 2.10154e-06 -4.54419e-09)
(3.80365e-08 2.09628e-06 -3.63005e-09)
(5.56503e-08 2.08779e-06 -2.79948e-09)
(6.71483e-08 2.07692e-06 -2.14373e-09)
(7.28083e-08 2.06601e-06 -1.70452e-09)
(7.28315e-08 2.06158e-06 -1.5251e-09)
(6.75573e-08 2.08046e-06 -1.65693e-09)
(5.72982e-08 2.15563e-06 -2.05148e-09)
(4.31106e-08 2.31971e-06 -2.5664e-09)
(2.63849e-08 2.50681e-06 -2.55385e-09)
(1.03717e-08 2.35905e-06 -1.43129e-09)
(1.10881e-10 1.23322e-06 4.39887e-10)
(-6.81459e-09 1.08566e-06 -6.76233e-09)
(-5.50381e-08 2.07709e-06 -1.33134e-08)
(-1.10158e-07 2.17771e-06 -1.41164e-08)
(-1.62769e-07 1.99772e-06 -1.23941e-08)
(-2.04329e-07 1.8655e-06 -9.76766e-09)
(-2.34641e-07 1.83225e-06 -7.61412e-09)
(-2.5322e-07 1.85704e-06 -6.07511e-09)
(-2.61548e-07 1.9036e-06 -5.19333e-09)
(-2.6074e-07 1.95362e-06 -4.81059e-09)
(-2.52023e-07 2.00017e-06 -4.82815e-09)
(-2.36204e-07 2.04098e-06 -5.15163e-09)
(-2.14011e-07 2.07545e-06 -5.6614e-09)
(-1.86171e-07 2.10354e-06 -6.26418e-09)
(-1.53802e-07 2.12543e-06 -6.74451e-09)
(-1.1851e-07 2.14138e-06 -7.0068e-09)
(-8.2397e-08 2.15176e-06 -6.85899e-09)
(-4.79935e-08 2.15695e-06 -6.2869e-09)
(-1.7244e-08 2.15734e-06 -5.49331e-09)
(8.57106e-09 2.15344e-06 -4.53645e-09)
(2.87957e-08 2.14583e-06 -3.61448e-09)
(4.33768e-08 2.1353e-06 -2.78334e-09)
(5.25016e-08 2.12301e-06 -2.12452e-09)
(5.65452e-08 2.11157e-06 -1.66169e-09)
(5.58612e-08 2.10764e-06 -1.42577e-09)
(5.09406e-08 2.12794e-06 -1.45099e-09)
(4.23258e-08 2.2048e-06 -1.69198e-09)
(3.10964e-08 2.369e-06 -2.01198e-09)
(1.85809e-08 2.55137e-06 -1.92768e-09)
(7.08877e-09 2.38993e-06 -9.76392e-10)
(3.08285e-11 1.24248e-06 4.80986e-10)
(-3.96656e-09 1.13474e-06 -3.91718e-09)
(-3.6723e-08 2.17595e-06 -8.3374e-09)
(-7.72627e-08 2.29588e-06 -9.2459e-09)
(-1.17917e-07 2.11336e-06 -8.37607e-09)
(-1.52475e-07 1.96968e-06 -6.82401e-09)
(-1.79575e-07 1.92268e-06 -5.51146e-09)
(-1.98228e-07 1.93525e-06 -4.58578e-09)
(-2.08858e-07 1.97226e-06 -4.09235e-09)
(-2.11936e-07 2.01559e-06 -3.94598e-09)
(-2.08122e-07 2.058e-06 -4.0916e-09)
(-1.97893e-07 2.09665e-06 -4.47797e-09)
(-1.8175e-07 2.13036e-06 -5.00607e-09)
(-1.60245e-07 2.15845e-06 -5.61245e-09)
(-1.34338e-07 2.18047e-06 -6.09852e-09)
(-1.05456e-07 2.19622e-06 -6.38262e-09)
(-7.55128e-08 2.20572e-06 -6.26766e-09)
(-4.68692e-08 2.20925e-06 -5.74075e-09)
(-2.12706e-08 2.20733e-06 -5.0239e-09)
(1.62923e-10 2.20073e-06 -4.16091e-09)
(1.68705e-08 2.19038e-06 -3.33939e-09)
(2.88585e-08 2.17735e-06 -2.59782e-09)
(3.63302e-08 2.16314e-06 -2.00951e-09)
(3.96756e-08 2.15052e-06 -1.58614e-09)
(3.92778e-08 2.14623e-06 -1.35006e-09)
(3.56447e-08 2.16683e-06 -1.31789e-09)
(2.93515e-08 2.24416e-06 -1.45759e-09)
(2.1327e-08 2.40758e-06 -1.65018e-09)
(1.26379e-08 2.58555e-06 -1.53115e-09)
(4.81688e-09 2.41322e-06 -7.33322e-10)
(3.05913e-11 1.24926e-06 4.41089e-10)
(-2.48398e-09 1.16773e-06 -2.43662e-09)
(-2.53133e-08 2.24603e-06 -5.50861e-09)
(-5.49649e-08 2.38211e-06 -6.31635e-09)
(-8.57008e-08 2.20031e-06 -5.86378e-09)
(-1.13096e-07 2.05026e-06 -4.90911e-09)
(-1.35608e-07 1.99458e-06 -4.07485e-09)
(-1.52182e-07 1.99899e-06 -3.48929e-09)
(-1.62758e-07 2.02936e-06 -3.1865e-09)
(-1.67463e-07 2.06794e-06 -3.12318e-09)
(-1.6663e-07 2.10736e-06 -3.26194e-09)
(-1.6054e-07 2.1445e-06 -3.57867e-09)
(-1.49538e-07 2.17774e-06 -4.00621e-09)
(-1.34036e-07 2.20591e-06 -4.49765e-09)
(-1.14789e-07 2.22807e-06 -4.8922e-09)
(-9.29353e-08 2.24358e-06 -5.13443e-09)
(-6.99998e-08 2.25215e-06 -5.05024e-09)
(-4.7906e-08 2.25397e-06 -4.6297e-09)
(-2.80269e-08 2.24974e-06 -4.07775e-09)
(-1.12219e-08 2.24045e-06 -3.40813e-09)
(2.06512e-09 2.22738e-06 -2.78363e-09)
(1.18464e-08 2.21188e-06 -2.21618e-09)
(1.82756e-08 2.19565e-06 -1.76646e-09)
(2.1664e-08 2.1816e-06 -1.43887e-09)
(2.23269e-08 2.17653e-06 -1.24644e-09)
(2.06795e-08 2.19686e-06 -1.20032e-09)
(1.71966e-08 2.27401e-06 -1.27407e-09)
(1.25716e-08 2.43636e-06 -1.37631e-09)
(7.53707e-09 2.6107e-06 -1.2402e-09)
(2.98222e-09 2.4302e-06 -5.85258e-10)
(7.15095e-11 1.25415e-06 3.59967e-10)
(-1.66263e-09 1.19055e-06 -1.61942e-09)
(-1.76097e-08 2.29591e-06 -3.77593e-09)
(-3.87686e-08 2.44446e-06 -4.41144e-09)
(-6.11192e-08 2.26434e-06 -4.16073e-09)
(-8.16122e-08 2.11063e-06 -3.54988e-09)
(-9.89545e-08 2.04933e-06 -2.99121e-09)
(-1.12259e-07 2.0481e-06 -2.5775e-09)
(-1.21318e-07 2.07368e-06 -2.33221e-09)
(-1.26143e-07 2.10861e-06 -2.22808e-09)
(-1.26937e-07 2.14552e-06 -2.24202e-09)
(-1.2392e-07 2.18116e-06 -2.35952e-09)
(-1.1738e-07 2.21363e-06 -2.53777e-09)
(-1.07648e-07 2.24146e-06 -2.7577e-09)
(-9.5265e-08 2.26335e-06 -2.93338e-09)
(-8.09989e-08 2.27838e-06 -3.04116e-09)
(-6.58275e-08 2.28602e-06 -2.98529e-09)
(-5.09783e-08 2.2864e-06 -2.75482e-09)
(-3.72932e-08 2.28035e-06 -2.48635e-09)
(-2.53103e-08 2.26902e-06 -2.15126e-09)
(-1.53495e-08 2.25388e-06 -1.84674e-09)
(-7.45109e-09 2.23649e-06 -1.56327e-09)
(-1.57881e-09 2.21869e-06 -1.33174e-09)
(2.41977e-09 2.20347e-06 -1.1554e-09)
(4.71615e-09 2.19765e-06 -1.05063e-09)
(5.55674e-09 2.21758e-06 -1.02463e-09)
(5.24326e-09 2.29438e-06 -1.06271e-09)
(4.18891e-09 2.45581e-06 -1.10313e-09)
(2.76387e-09 2.62757e-06 -9.69174e-10)
(1.30219e-09 2.44156e-06 -4.54385e-10)
(1.13269e-10 1.25744e-06 2.80312e-10)
(-1.18563e-09 1.20635e-06 -1.14476e-09)
(-1.20065e-08 2.3305e-06 -2.63232e-09)
(-2.62366e-08 2.4878e-06 -3.07564e-09)
(-4.13267e-08 2.30913e-06 -2.92715e-09)
(-5.53339e-08 2.15308e-06 -2.53243e-09)
(-6.73698e-08 2.08789e-06 -2.14672e-09)
(-7.68378e-08 2.08254e-06 -1.82953e-09)
(-8.35838e-08 2.10433e-06 -1.59177e-09)
(-8.76503e-08 2.1361e-06 -1.4122e-09)
(-8.92408e-08 2.17051e-06 -1.28129e-09)
(-8.86135e-08 2.20429e-06 -1.18981e-09)
(-8.60558e-08 2.23541e-06 -1.12811e-09)
(-8.18611e-08 2.26225e-06 -1.10192e-09)
(-7.63463e-08 2.28334e-06 -1.09016e-09)
(-6.98556e-08 2.29759e-06 -1.08096e-09)
(-6.2736e-08 2.30435e-06 -1.05979e-09)
(-5.54037e-08 2.3037e-06 -1.00737e-09)
(-4.81042e-08 2.29653e-06 -9.86648e-10)
(-4.10137e-08 2.28405e-06 -9.53499e-10)
(-3.43185e-08 2.26781e-06 -9.37785e-10)
(-2.81259e-08 2.24942e-06 -9.0864e-10)
(-2.25435e-08 2.2308e-06 -8.81504e-10)
(-1.76233e-08 2.21496e-06 -8.52324e-10)
(-1.3378e-08 2.20874e-06 -8.31606e-10)
(-9.7673e-09 2.22843e-06 -8.28927e-10)
(-6.708e-09 2.30501e-06 -8.37386e-10)
(-4.08818e-09 2.46591e-06 -8.21732e-10)
(-1.90003e-09 2.6363e-06 -6.91573e-10)
(-3.30025e-10 2.44745e-06 -3.22308e-10)
(1.53147e-10 1.25916e-06 2.06135e-10)
(-8.99625e-10 1.21696e-06 -8.62827e-10)
(-7.6602e-09 2.35285e-06 -1.82564e-09)
(-1.6011e-08 2.51526e-06 -2.07832e-09)
(-2.46832e-08 2.33718e-06 -1.98023e-09)
(-3.26584e-08 2.17931e-06 -1.73414e-09)
(-3.95114e-08 2.11119e-06 -1.46322e-09)
(-4.49831e-08 2.10257e-06 -1.1901e-09)
(-4.90649e-08 2.12109e-06 -9.10576e-10)
(-5.19112e-08 2.14978e-06 -6.07774e-10)
(-5.38035e-08 2.18141e-06 -2.79436e-10)
(-5.50938e-08 2.21273e-06 7.83189e-11)
(-5.6122e-08 2.24172e-06 4.50209e-10)
(-5.71684e-08 2.26677e-06 8.11984e-10)
(-5.8342e-08 2.28642e-06 1.09881e-09)
(-5.95562e-08 2.29956e-06 1.27826e-09)
(-6.04866e-08 2.30551e-06 1.26971e-09)
(-6.06767e-08 2.30436e-06 1.09975e-09)
(-5.97375e-08 2.29691e-06 8.00747e-10)
(-5.74713e-08 2.28433e-06 4.59601e-10)
(-5.39388e-08 2.2681e-06 1.25651e-10)
(-4.93305e-08 2.24979e-06 -1.51916e-10)
(-4.39107e-08 2.23125e-06 -3.60156e-10)
(-3.79396e-08 2.2155e-06 -5.00508e-10)
(-3.16305e-08 2.20936e-06 -5.8005e-10)
(-2.51558e-08 2.2291e-06 -6.07568e-10)
(-1.86553e-08 2.30572e-06 -5.9173e-10)
(-1.23285e-08 2.46662e-06 -5.30489e-10)
(-6.52951e-09 2.63695e-06 -4.06527e-10)
(-1.94862e-09 2.44792e-06 -1.83421e-10)
(1.91253e-10 1.25933e-06 1.36576e-10)
(-7.31049e-10 1.22352e-06 -6.95633e-10)
(-4.11699e-09 2.36488e-06 -1.23018e-09)
(-7.30902e-09 2.52892e-06 -1.2969e-09)
(-1.02104e-08 2.3503e-06 -1.2315e-09)
(-1.2634e-08 2.19073e-06 -1.10651e-09)
(-1.4621e-08 2.12026e-06 -9.30905e-10)
(-1.62609e-08 2.10887e-06 -6.94012e-10)
(-1.77261e-08 2.1244e-06 -3.8224e-10)
(-1.93095e-08 2.14994e-06 1.42971e-11)
(-2.13841e-08 2.17839e-06 4.96407e-10)
(-2.43929e-08 2.20659e-06 1.05932e-09)
(-2.8719e-08 2.23267e-06 1.6567e-09)
(-3.46178e-08 2.25516e-06 2.25015e-09)
(-4.19819e-08 2.27273e-06 2.71483e-09)
(-5.03182e-08 2.28443e-06 2.99849e-09)
(-5.86954e-08 2.2897e-06 2.96042e-09)
(-6.58748e-08 2.28857e-06 2.62974e-09)
(-7.09061e-08 2.28169e-06 2.11345e-09)
(-7.3247e-08 2.27003e-06 1.50805e-09)
(-7.28067e-08 2.2549e-06 9.2978e-10)
(-6.98205e-08 2.23768e-06 4.28337e-10)
(-6.46718e-08 2.22011e-06 4.48438e-11)
(-5.77936e-08 2.20512e-06 -2.20911e-10)
(-4.95685e-08 2.1995e-06 -3.69659e-10)
(-4.03586e-08 2.2196e-06 -4.09129e-10)
(-3.05154e-08 2.2965e-06 -3.58396e-10)
(-2.05411e-08 2.45791e-06 -2.4053e-10)
(-1.11535e-08 2.62948e-06 -1.18812e-10)
(-3.5626e-09 2.44295e-06 -4.14774e-11)
(2.3442e-10 1.25795e-06 6.62284e-11)
(-6.37318e-10 1.22672e-06 -6.04791e-10)
(-1.07099e-09 2.36784e-06 -7.6758e-10)
(4.26734e-10 2.53014e-06 -6.57051e-10)
(2.80335e-09 2.34982e-06 -6.20233e-10)
(5.45559e-09 2.18859e-06 -6.08533e-10)
(7.88773e-09 2.11624e-06 -5.22518e-10)
(9.68381e-09 2.10257e-06 -3.18489e-10)
(1.05123e-08 2.11535e-06 2.23001e-11)
(9.96878e-09 2.13776e-06 5.05952e-10)
(7.61836e-09 2.16279e-06 1.12639e-09)
(2.95741e-09 2.18746e-06 1.87205e-09)
(-4.40923e-09 2.21008e-06 2.67691e-09)
(-1.46793e-08 2.22947e-06 3.48701e-09)
(-2.75463e-08 2.24457e-06 4.12218e-09)
(-4.21586e-08 2.25466e-06 4.51168e-09)
(-5.70881e-08 2.25934e-06 4.46152e-09)
(-7.0477e-08 2.2586e-06 3.99586e-09)
(-8.09073e-08 2.25288e-06 3.28754e-09)
(-8.75269e-08 2.24291e-06 2.44609e-09)
(-9.00853e-08 2.22966e-06 1.6442e-09)
(-8.88213e-08 2.21427e-06 9.37564e-10)
(-8.41837e-08 2.19829e-06 3.94783e-10)
(-7.67168e-08 2.18451e-06 1.6031e-11)
(-6.69128e-08 2.17969e-06 -1.91778e-10)
(-5.52732e-08 2.20023e-06 -2.34104e-10)
(-4.23152e-08 2.27749e-06 -1.3477e-10)
(-2.88149e-08 2.4398e-06 5.33908e-11)
(-1.58569e-08 2.61381e-06 1.74936e-10)
(-5.2088e-09 2.43246e-06 1.08316e-10)
(2.83733e-10 1.25497e-06 -5.81652e-12)
(-5.92666e-10 1.22702e-06 -5.60236e-10)
(1.75319e-09 2.36248e-06 -3.73033e-10)
(7.73099e-09 2.51979e-06 -9.13801e-11)
(1.50651e-08 2.33672e-06 -9.21019e-11)
(2.23313e-08 2.17397e-06 -2.12866e-10)
(2.86249e-08 2.10033e-06 -2.34903e-10)
(3.32539e-08 2.08501e-06 -9.6697e-11)
(3.57942e-08 2.09554e-06 2.34042e-10)
(3.57985e-08 2.11507e-06 7.49097e-10)
(3.28356e-08 2.1367e-06 1.4298e-09)
(2.64195e-08 2.15768e-06 2.26362e-09)
(1.62081e-08 2.17663e-06 3.16227e-09)
(2.10485e-09 2.19264e-06 4.0645e-09)
(-1.53964e-08 2.20507e-06 4.76503e-09)
(-3.51664e-08 2.21346e-06 5.18381e-09)
(-5.54372e-08 2.2176e-06 5.1278e-09)
(-7.3965e-08 2.21746e-06 4.61552e-09)
(-8.90109e-08 2.21328e-06 3.83153e-09)
(-9.94823e-08 2.20544e-06 2.88541e-09)
(-1.04969e-07 2.19454e-06 1.97628e-09)
(-1.05646e-07 2.1814e-06 1.17054e-09)
(-1.01942e-07 2.16729e-06 5.49501e-10)
(-9.44182e-08 2.15484e-06 1.21771e-10)
(-8.35888e-08 2.15074e-06 -9.95723e-11)
(-7.00175e-08 2.1715e-06 -1.04958e-10)
(-5.43019e-08 2.2489e-06 7.28589e-11)
(-3.74492e-08 2.41222e-06 3.58778e-10)
(-2.08779e-08 2.58971e-06 4.99527e-10)
(-7.00407e-09 2.41625e-06 2.82483e-10)
(3.34313e-10 1.25036e-06 -7.50655e-11)
(-5.38229e-10 1.22445e-06 -5.06742e-10)
(4.75369e-09 2.34874e-06 5.44841e-11)
(1.53385e-08 2.49788e-06 5.07361e-10)
(2.7528e-08 2.31123e-06 4.58214e-10)
(3.89921e-08 2.14745e-06 1.75338e-10)
(4.84979e-08 2.07349e-06 1.17999e-11)
(5.51763e-08 2.05747e-06 4.98682e-11)
(5.86478e-08 2.06655e-06 3.2875e-10)
(5.85195e-08 2.08381e-06 8.21825e-10)
(5.44641e-08 2.10254e-06 1.50109e-09)
(4.60926e-08 2.12019e-06 2.3368e-09)
(3.31768e-08 2.13571e-06 3.23634e-09)
(1.57602e-08 2.14857e-06 4.132e-09)
(-5.49985e-09 2.15849e-06 4.82536e-09)
(-2.92879e-08 2.16529e-06 5.23196e-09)
(-5.3659e-08 2.16895e-06 5.17929e-09)
(-7.6228e-08 2.16941e-06 4.67725e-09)
(-9.50889e-08 2.1667e-06 3.90093e-09)
(-1.0898e-07 2.16092e-06 2.95868e-09)
(-1.17343e-07 2.15227e-06 2.04027e-09)
(-1.20236e-07 2.14125e-06 1.2219e-09)
(-1.17994e-07 2.12879e-06 5.8579e-10)
(-1.11099e-07 2.11733e-06 1.6393e-10)
(-9.99779e-08 2.11345e-06 -2.63803e-11)
(-8.51449e-08 2.13379e-06 4.20371e-11)
(-6.71436e-08 2.21065e-06 3.32389e-10)
(-4.71204e-08 2.37466e-06 7.54926e-10)
(-2.6755e-08 2.55641e-06 9.33741e-10)
(-9.2426e-09 2.39358e-06 5.59064e-10)
(3.44265e-10 1.24381e-06 -1.00375e-10)
(-4.25179e-10 1.21868e-06 -3.92797e-10)
(8.58299e-09 2.32579e-06 6.56608e-10)
(2.44259e-08 2.46358e-06 1.29533e-09)
(4.16548e-08 2.27296e-06 1.1615e-09)
(5.69044e-08 2.10917e-06 6.57513e-10)
(6.88275e-08 2.03635e-06 3.02125e-10)
(7.65575e-08 2.02101e-06 1.97276e-10)
(7.99662e-08 2.02979e-06 3.84014e-10)
(7.88475e-08 2.04574e-06 8.01902e-10)
(7.30865e-08 2.06233e-06 1.41771e-09)
(6.24662e-08 2.07732e-06 2.18222e-09)
(4.69178e-08 2.09001e-06 3.00944e-09)
(2.66357e-08 2.10022e-06 3.82157e-09)
(2.39291e-09 2.108e-06 4.44857e-09)
(-2.44095e-08 2.11344e-06 4.80774e-09)
(-5.18006e-08 2.11663e-06 4.76005e-09)
(-7.74347e-08 2.11755e-06 4.31352e-09)
(-9.93785e-08 2.11603e-06 3.61155e-09)
(-1.16297e-07 2.1119e-06 2.7499e-09)
(-1.27523e-07 2.10507e-06 1.89932e-09)
(-1.32969e-07 2.09566e-06 1.14577e-09)
(-1.32817e-07 2.08427e-06 5.63101e-10)
(-1.27393e-07 2.07308e-06 1.97216e-10)
(-1.16916e-07 2.06849e-06 8.4339e-11)
(-1.01711e-07 2.08728e-06 2.75973e-10)
(-8.20642e-08 2.16234e-06 7.33217e-10)
(-5.90868e-08 2.32612e-06 1.35743e-09)
(-3.45213e-08 2.51248e-06 1.60903e-09)
(-1.25053e-08 2.36312e-06 1.05539e-09)
(2.73021e-10 1.2347e-06 -4.21711e-11)
(-3.02717e-11 1.20804e-06 1.70605e-12)
(1.45136e-08 2.29046e-06 1.8761e-09)
(3.70287e-08 2.41354e-06 2.78236e-09)
(5.97745e-08 2.21918e-06 2.54473e-09)
(7.82571e-08 2.05716e-06 1.75383e-09)
(9.14784e-08 1.98755e-06 1.15332e-09)
(9.89011e-08 1.97467e-06 8.53677e-10)
(1.00952e-07 1.98459e-06 9.0632e-10)
(9.77721e-08 2.00036e-06 1.21076e-09)
(8.95545e-08 2.01575e-06 1.7195e-09)
(7.62946e-08 2.0289e-06 2.36941e-09)
(5.80911e-08 2.0395e-06 3.07467e-09)
(3.52627e-08 2.04769e-06 3.76029e-09)
(8.6396e-09 2.05381e-06 4.29019e-09)
(-2.03906e-08 2.05815e-06 4.58852e-09)
(-4.99518e-08 2.06091e-06 4.54805e-09)
(-7.78782e-08 2.06205e-06 4.17247e-09)
(-1.02331e-07 2.06129e-06 3.57901e-09)
(-1.21989e-07 2.05828e-06 2.84912e-09)
(-1.36126e-07 2.05264e-06 2.12133e-09)
(-1.4453e-07 2.04413e-06 1.47458e-09)
(-1.47217e-07 2.03304e-06 9.8891e-10)
(-1.44302e-07 2.02115e-06 7.24196e-10)
(-1.35698e-07 2.01461e-06 7.30858e-10)
(-1.21383e-07 2.03022e-06 1.10096e-09)
(-1.01075e-07 2.10156e-06 1.78705e-09)
(-7.55347e-08 2.26345e-06 2.67955e-09)
(-4.61187e-08 2.45413e-06 3.02317e-09)
(-1.80154e-08 2.32134e-06 2.20525e-09)
(-9.46741e-11 1.22121e-06 3.14261e-10)
(8.41058e-10 1.1898e-06 8.71932e-10)
(2.4642e-08 2.23757e-06 4.20995e-09)
(5.6378e-08 2.34257e-06 5.56453e-09)
(8.53496e-08 2.14588e-06 5.21356e-09)
(1.06034e-07 1.9886e-06 4.03323e-09)
(1.18762e-07 1.92503e-06 3.10954e-09)
(1.23913e-07 1.91675e-06 2.55278e-09)
(1.22882e-07 1.92932e-06 2.42796e-09)
(1.16301e-07 1.946e-06 2.59082e-09)
(1.04733e-07 1.96107e-06 2.97283e-09)
(8.83525e-08 1.97315e-06 3.48784e-09)
(6.73844e-08 1.98233e-06 4.05926e-09)
(4.22053e-08 1.98908e-06 4.61481e-09)
(1.36221e-08 1.99398e-06 5.04267e-09)
(-1.70836e-08 1.99746e-06 5.27616e-09)
(-4.82262e-08 1.99979e-06 5.24366e-09)
(-7.78978e-08 2.00094e-06 4.94921e-09)
(-1.04447e-07 2.00056e-06 4.46724e-09)
(-1.2666e-07 1.99815e-06 3.87266e-09)
(-1.43821e-07 1.9931e-06 3.28145e-09)
(-1.55655e-07 1.98485e-06 2.76312e-09)
(-1.62052e-07 1.97329e-06 2.39672e-09)
(-1.62941e-07 1.95974e-06 2.26568e-09)
(-1.57866e-07 1.94987e-06 2.43219e-09)
(-1.46313e-07 1.96029e-06 3.04557e-09)
(-1.27021e-07 2.02518e-06 4.04221e-09)
(-9.98176e-08 2.18225e-06 5.30539e-09)
(-6.47039e-08 2.37582e-06 5.7532e-09)
(-2.78325e-08 2.26275e-06 4.49228e-09)
(-9.49494e-10 1.20044e-06 1.15798e-09)
(3.00151e-09 1.15646e-06 3.03338e-09)
(4.3027e-08 2.15419e-06 9.38147e-09)
(8.79976e-08 2.23752e-06 1.17197e-08)
(1.23602e-07 2.04153e-06 1.13951e-08)
(1.44192e-07 1.89335e-06 9.77838e-09)
(1.53306e-07 1.83927e-06 8.46754e-09)
(1.53203e-07 1.83779e-06 7.60237e-09)
(1.46737e-07 1.85425e-06 7.27893e-09)
(1.35094e-07 1.8726e-06 7.28099e-09)
(1.19139e-07 1.88787e-06 7.52519e-09)
(9.911e-08 1.89932e-06 7.90591e-09)
(7.52351e-08 1.9075e-06 8.34807e-09)
(4.78349e-08 1.9132e-06 8.77686e-09)
(1.75967e-08 1.91717e-06 9.10707e-09)
(-1.43855e-08 1.91996e-06 9.28767e-09)
(-4.66803e-08 1.92188e-06 9.26161e-09)
(-7.76971e-08 1.92289e-06 9.03169e-09)
(-1.06036e-07 1.92263e-06 8.65755e-09)
(-1.30665e-07 1.92048e-06 8.19713e-09)
(-1.50977e-07 1.91565e-06 7.73834e-09)
(-1.66747e-07 1.9073e-06 7.35343e-09)
(-1.7785e-07 1.89483e-06 7.11865e-09)
(-1.84154e-07 1.87897e-06 7.13847e-09)
(-1.84898e-07 1.86462e-06 7.49333e-09)
(-1.79008e-07 1.86777e-06 8.40221e-09)
(-1.63756e-07 1.92283e-06 9.77401e-09)
(-1.37078e-07 2.07076e-06 1.14638e-08)
(-9.57441e-08 2.26415e-06 1.18775e-08)
(-4.59907e-08 2.17425e-06 9.63053e-09)
(-3.1031e-09 1.16482e-06 3.29899e-09)
(6.96858e-09 1.09734e-06 7.00048e-09)
(7.49099e-08 2.02218e-06 1.88703e-08)
(1.3862e-07 2.08115e-06 2.31669e-08)
(1.80128e-07 1.89183e-06 2.32017e-08)
(1.96075e-07 1.75907e-06 2.11395e-08)
(1.96508e-07 1.71844e-06 1.93706e-08)
(1.8694e-07 1.72555e-06 1.81245e-08)
(1.72112e-07 1.74649e-06 1.75529e-08)
(1.53598e-07 1.76654e-06 1.73671e-08)
(1.32304e-07 1.78196e-06 1.74656e-08)
(1.08259e-07 1.79277e-06 1.77157e-08)
(8.14902e-08 1.80003e-06 1.80375e-08)
(5.21089e-08 1.80481e-06 1.83605e-08)
(2.05826e-08 1.80799e-06 1.86127e-08)
(-1.22531e-08 1.81017e-06 1.87482e-08)
(-4.52661e-08 1.81169e-06 1.87273e-08)
(-7.71992e-08 1.81251e-06 1.85523e-08)
(-1.06948e-07 1.81227e-06 1.82671e-08)
(-1.33733e-07 1.81029e-06 1.79183e-08)
(-1.57157e-07 1.80565e-06 1.75775e-08)
(-1.77197e-07 1.79724e-06 1.7321e-08)
(-1.93921e-07 1.78399e-06 1.72256e-08)
(-2.074e-07 1.76584e-06 1.74257e-08)
(-2.16827e-07 1.74652e-06 1.80222e-08)
(-2.20737e-07 1.74066e-06 1.93034e-08)
(-2.14512e-07 1.782e-06 2.11216e-08)