/*--------------------------------*- C++ -*----------------------------------*\
| =========                 |                                                 |
| \\      /  F ield         | OpenFOAM: The Open Source CFD Toolbox           |
|  \\    /   O peration     | Version:  v1906                                 |
|   \\  /    A nd           | Web:      www.OpenFOAM.com                      |
|    \\/     M anipulation  |                                                 |
\*---------------------------------------------------------------------------*/
FoamFile
{
    version     2.0;
    format      ascii;
    class       volVectorField;
    location    "6/oil";
    object      U;
}
// * * * * * * * * * * * * * * * * * * * * * * * * * * * * * * * * * * * * * //

dimensions      [0 1 -1 0 0 0 0];


internalField   nonuniform List<vector> 
27760
(
(-3.54205e-05 -3.61471e-05 -3.54205e-05)
(-6.99811e-05 -2.71397e-05 -2.55069e-05)
(-5.2184e-06 -7.05871e-06 -6.93176e-06)
(-8.63874e-06 -1.17826e-06 -1.19909e-06)
(-2.25628e-06 -4.06854e-07 -4.23394e-07)
(-1.42447e-06 -2.03522e-07 -2.10504e-07)
(-6.77855e-07 -8.48326e-08 -8.70043e-08)
(-3.63823e-07 -4.02411e-08 -4.04689e-08)
(-1.94934e-07 -1.93051e-08 -1.88184e-08)
(-1.07478e-07 -9.68512e-09 -8.9647e-09)
(-6.04417e-08 -4.91993e-09 -4.14071e-09)
(-3.58973e-08 -2.4535e-09 -1.67438e-09)
(-2.42616e-08 -1.10204e-09 -3.32592e-10)
(-2.03705e-08 -3.37759e-10 4.21906e-10)
(-2.11234e-08 8.4031e-11 8.37401e-10)
(-2.44827e-08 2.84319e-10 1.03578e-09)
(-2.89951e-08 3.27417e-10 1.08173e-09)
(-3.35692e-08 2.52984e-10 1.01584e-09)
(-3.73956e-08 9.35578e-11 8.72295e-10)
(-3.99134e-08 -1.2338e-10 6.80084e-10)
(-4.07923e-08 -3.70724e-10 4.67445e-10)
(-3.9913e-08 -6.25708e-10 2.57986e-10)
(-3.73295e-08 -8.70131e-10 7.24789e-11)
(-3.32322e-08 -1.09294e-09 -7.07473e-11)
(-2.79106e-08 -1.28912e-09 -1.52542e-10)
(-2.1733e-08 -1.45654e-09 -1.50893e-10)
(-1.51616e-08 -1.58275e-09 -4.31905e-11)
(-8.79166e-09 -1.62209e-09 1.74404e-10)
(-3.42047e-09 -1.43213e-09 4.14651e-10)
(-3.29306e-10 -7.93358e-10 4.68045e-10)
(-2.57303e-05 -7.18701e-05 -2.57303e-05)
(-8.54822e-06 -9.15992e-06 -1.15277e-05)
(-1.17552e-05 -1.10398e-05 -4.02562e-06)
(-5.8937e-06 -2.96025e-06 -1.14081e-06)
(-2.98252e-06 -1.65934e-06 -5.54319e-07)
(-1.78208e-06 -7.59131e-07 -2.60709e-07)
(-9.92988e-07 -3.88138e-07 -1.2045e-07)
(-5.82754e-07 -2.05331e-07 -5.79316e-08)
(-3.43479e-07 -1.15719e-07 -2.72651e-08)
(-2.0646e-07 -6.92923e-08 -1.22493e-08)
(-1.26933e-07 -4.42077e-08 -4.45575e-09)
(-8.22591e-08 -2.99846e-08 -2.26736e-10)
(-5.9212e-08 -2.15843e-08 2.196e-09)
(-4.99233e-08 -1.65074e-08 3.61357e-09)
(-4.9276e-08 -1.34795e-08 4.41157e-09)
(-5.36869e-08 -1.18111e-08 4.78529e-09)
(-6.04973e-08 -1.11026e-08 4.84371e-09)
(-6.76646e-08 -1.10931e-08 4.66056e-09)
(-7.36557e-08 -1.15765e-08 4.3028e-09)
(-7.74012e-08 -1.23805e-08 3.8311e-09)
(-7.82684e-08 -1.335e-08 3.30612e-09)
(-7.60247e-08 -1.43594e-08 2.78133e-09)
(-7.07688e-08 -1.5313e-08 2.30384e-09)
(-6.28595e-08 -1.61471e-08 1.91159e-09)
(-5.28416e-08 -1.6809e-08 1.63566e-09)
(-4.14039e-08 -1.72168e-08 1.4991e-09)
(-2.93801e-08 -1.71748e-08 1.51e-09)
(-1.775e-08 -1.62389e-08 1.62645e-09)
(-7.79078e-09 -1.34244e-08 1.67894e-09)
(-9.48168e-10 -7.0422e-09 1.15455e-09)
(-7.14146e-06 -6.49931e-06 -7.14148e-06)
(-1.14376e-05 -1.20514e-05 -4.15675e-06)
(-6.39771e-06 -6.27666e-06 -1.85483e-06)
(-4.38124e-06 -3.09206e-06 -8.92431e-07)
(-2.58911e-06 -1.75752e-06 -4.35199e-07)
(-1.6323e-06 -9.47399e-07 -2.14076e-07)
(-9.94713e-07 -5.44625e-07 -1.04191e-07)
(-6.21807e-07 -3.24738e-07 -5.13604e-08)
(-3.89371e-07 -2.04654e-07 -2.43254e-08)
(-2.47263e-07 -1.36449e-07 -1.03781e-08)
(-1.60462e-07 -9.64816e-08 -2.75574e-09)
(-1.09475e-07 -7.22302e-08 1.61051e-09)
(-8.20097e-08 -5.71049e-08 4.23265e-09)
(-7.01781e-08 -4.75473e-08 5.82838e-09)
(-6.84918e-08 -4.15922e-08 6.74616e-09)
(-7.28981e-08 -3.80949e-08 7.17223e-09)
(-8.02757e-08 -3.63495e-08 7.21583e-09)
(-8.81622e-08 -3.5877e-08 6.95658e-09)
(-9.46803e-08 -3.62933e-08 6.47463e-09)
(-9.85135e-08 -3.7279e-08 5.84507e-09)
(-9.88831e-08 -3.85537e-08 5.1462e-09)
(-9.55134e-08 -3.98963e-08 4.44799e-09)
(-8.85435e-08 -4.11449e-08 3.81187e-09)
(-7.84392e-08 -4.21905e-08 3.2867e-09)
(-6.58911e-08 -4.29252e-08 2.90803e-09)
(-5.17537e-08 -4.31493e-08 2.69488e-09)
(-3.70228e-08 -4.23997e-08 2.64027e-09)
(-2.2782e-08 -3.96758e-08 2.66556e-09)
(-1.04423e-08 -3.28639e-08 2.55317e-09)
(-1.34572e-09 -1.76396e-08 1.60918e-09)
(-1.31799e-06 -9.21049e-06 -1.31802e-06)
(-3.26778e-06 -6.20341e-06 -1.22478e-06)
(-3.18682e-06 -4.46986e-06 -9.11253e-07)
(-2.59287e-06 -2.64371e-06 -5.10185e-07)
(-1.78483e-06 -1.63819e-06 -2.76057e-07)
(-1.2363e-06 -9.92313e-07 -1.47114e-07)
(-8.23997e-07 -6.26525e-07 -7.62295e-08)
(-5.50631e-07 -4.0861e-07 -3.89626e-08)
(-3.65643e-07 -2.7937e-07 -1.85993e-08)
(-2.44328e-07 -2.0064e-07 -7.34179e-09)
(-1.66324e-07 -1.51628e-07 -7.78146e-10)
(-1.1878e-07 -1.20351e-07 3.22503e-09)
(-9.26366e-08 -1.00026e-07 5.75876e-09)
(-8.14499e-08 -8.67294e-08 7.3618e-09)
(-8.03095e-08 -7.81604e-08 8.29875e-09)
(-8.53156e-08 -7.28932e-08 8.72278e-09)
(-9.33149e-08 -7.00068e-08 8.72953e-09)
(-1.01718e-07 -6.8857e-08 8.39345e-09)
(-1.08504e-07 -6.89128e-08 7.80339e-09)
(-1.12247e-07 -6.97324e-08 7.04314e-09)
(-1.1211e-07 -7.09287e-08 6.20599e-09)
(-1.07823e-07 -7.22057e-08 5.37397e-09)
(-9.95846e-08 -7.33548e-08 4.62008e-09)
(-8.79558e-08 -7.42375e-08 4.00044e-09)
(-7.37397e-08 -7.46989e-08 3.55379e-09)
(-5.78971e-08 -7.4415e-08 3.29692e-09)
(-4.15113e-08 -7.26267e-08 3.21491e-09)
(-2.56988e-08 -6.77012e-08 3.20899e-09)
(-1.19339e-08 -5.61946e-08 3.03565e-09)
(-1.55863e-09 -3.0483e-08 1.89011e-09)
(-4.66735e-07 -2.57378e-06 -4.66775e-07)
(-1.78839e-06 -3.22395e-06 -5.92037e-07)
(-1.78684e-06 -2.75228e-06 -4.49492e-07)
(-1.57756e-06 -1.92144e-06 -2.8016e-07)
(-1.2017e-06 -1.3355e-06 -1.63799e-07)
(-8.94222e-07 -9.06486e-07 -9.28416e-08)
(-6.38069e-07 -6.29221e-07 -5.05065e-08)
(-4.50023e-07 -4.47725e-07 -2.64581e-08)
(-3.1331e-07 -3.30623e-07 -1.23444e-08)
(-2.18208e-07 -2.54129e-07 -3.91324e-09)
(-1.54568e-07 -2.03604e-07 1.39461e-09)
(-1.14984e-07 -1.69744e-07 4.87843e-09)
(-9.3468e-08 -1.46839e-07 7.21791e-09)
(-8.51997e-08 -1.31329e-07 8.75984e-09)
(-8.60941e-08 -1.20986e-07 9.67e-09)
(-9.26318e-08 -1.14331e-07 1.00607e-08)
(-1.01823e-07 -1.10365e-07 1.00077e-08)
(-1.11091e-07 -1.08376e-07 9.57426e-09)
(-1.18372e-07 -1.07749e-07 8.85844e-09)
(-1.22198e-07 -1.07973e-07 7.95067e-09)
(-1.21723e-07 -1.08599e-07 6.96169e-09)
(-1.1672e-07 -1.09294e-07 5.98615e-09)
(-1.07468e-07 -1.09837e-07 5.10882e-09)
(-9.46309e-08 -1.10089e-07 4.39234e-09)
(-7.91217e-08 -1.09871e-07 3.8785e-09)
(-6.19938e-08 -1.08746e-07 3.58262e-09)
(-4.43986e-08 -1.0565e-07 3.48492e-09)
(-2.74833e-08 -9.82709e-08 3.47485e-09)
(-1.27764e-08 -8.16884e-08 3.29177e-09)
(-1.66011e-09 -4.45906e-08 2.06076e-09)
(-2.26538e-07 -1.6104e-06 -2.26584e-07)
(-8.02929e-07 -1.99735e-06 -2.77904e-07)
(-9.32984e-07 -1.8361e-06 -2.22736e-07)
(-9.14935e-07 -1.4307e-06 -1.50903e-07)
(-7.67549e-07 -1.08676e-06 -9.39973e-08)
(-6.12739e-07 -8.07704e-07 -5.61699e-08)
(-4.64855e-07 -6.07754e-07 -3.17143e-08)
(-3.43919e-07 -4.66159e-07 -1.66237e-08)
(-2.49249e-07 -3.68133e-07 -7.00781e-09)
(-1.79741e-07 -3.00229e-07 -7.27701e-10)
(-1.31839e-07 -2.53086e-07 3.58402e-09)
(-1.02094e-07 -2.20156e-07 6.64471e-09)
(-8.69707e-08 -1.97088e-07 8.82214e-09)
(-8.30737e-08 -1.80955e-07 1.03106e-08)
(-8.71183e-08 -1.69807e-07 1.11873e-08)
(-9.60142e-08 -1.62249e-07 1.15324e-08)
(-1.07014e-07 -1.57313e-07 1.14026e-08)
(-1.17613e-07 -1.54306e-07 1.0846e-08)
(-1.2574e-07 -1.52607e-07 9.97277e-09)
(-1.2992e-07 -1.51704e-07 8.88127e-09)
(-1.29324e-07 -1.51144e-07 7.70466e-09)
(-1.2379e-07 -1.50611e-07 6.55227e-09)
(-1.13698e-07 -1.49917e-07 5.52255e-09)
(-9.98343e-08 -1.48962e-07 4.68554e-09)
(-8.32236e-08 -1.47571e-07 4.08586e-09)
(-6.50149e-08 -1.45208e-07 3.73746e-09)
(-4.64286e-08 -1.40506e-07 3.61651e-09)
(-2.86529e-08 -1.30431e-07 3.60467e-09)
(-1.3268e-08 -1.08483e-07 3.42825e-09)
(-1.70246e-09 -5.94312e-08 2.16574e-09)
(-9.27596e-08 -8.24163e-07 -9.28099e-08)
(-3.9224e-07 -1.20934e-06 -1.27964e-07)
(-5.05748e-07 -1.23034e-06 -1.09045e-07)
(-5.3645e-07 -1.06401e-06 -7.91184e-08)
(-4.84406e-07 -8.80993e-07 -5.20118e-08)
(-4.08961e-07 -7.11646e-07 -3.23886e-08)
(-3.25378e-07 -5.76874e-07 -1.85464e-08)
(-2.4967e-07 -4.73751e-07 -9.16766e-09)
(-1.86368e-07 -3.97593e-07 -2.58121e-09)
(-1.37942e-07 -3.4202e-07 2.18577e-09)
(-1.04254e-07 -3.01749e-07 5.78165e-09)
(-8.4218e-08 -2.72606e-07 8.54294e-09)
(-7.59104e-08 -2.51546e-07 1.06109e-08)
(-7.69646e-08 -2.36328e-07 1.20661e-08)
(-8.4712e-08 -2.25358e-07 1.29104e-08)
(-9.64305e-08 -2.17397e-07 1.32047e-08)
(-1.09632e-07 -2.1158e-07 1.29893e-08)
(-1.21891e-07 -2.07317e-07 1.22903e-08)
(-1.3114e-07 -2.04055e-07 1.12334e-08)
(-1.35902e-07 -2.01359e-07 9.92574e-09)
(-1.35368e-07 -1.98843e-07 8.52713e-09)
(-1.29462e-07 -1.96275e-07 7.16446e-09)
(-1.18679e-07 -1.93561e-07 5.95347e-09)
(-1.03938e-07 -1.90687e-07 4.97105e-09)
(-8.63839e-08 -1.87511e-07 4.26475e-09)
(-6.72607e-08 -1.83419e-07 3.84625e-09)
(-4.78585e-08 -1.76732e-07 3.6878e-09)
(-2.94108e-08 -1.63678e-07 3.66542e-09)
(-1.35398e-08 -1.36095e-07 3.49504e-09)
(-1.71122e-09 -7.4699e-08 2.22667e-09)
(-4.2e-08 -5.01426e-07 -4.20529e-08)
(-1.92613e-07 -8.12936e-07 -6.11813e-08)
(-2.7397e-07 -8.87771e-07 -5.43275e-08)
(-3.11201e-07 -8.30783e-07 -4.14053e-08)
(-2.98774e-07 -7.38227e-07 -2.82989e-08)
(-2.64016e-07 -6.39099e-07 -1.79413e-08)
(-2.17753e-07 -5.52137e-07 -9.91156e-09)
(-1.71346e-07 -4.8096e-07 -3.86239e-09)
(-1.30245e-07 -4.25563e-07 8.74736e-10)
(-9.80294e-08 -3.83494e-07 4.69231e-09)
(-7.6123e-08 -3.52035e-07 7.84115e-09)
(-6.46992e-08 -3.2866e-07 1.04269e-08)
(-6.27885e-08 -3.11315e-07 1.24377e-08)
(-6.86787e-08 -2.98322e-07 1.38789e-08)
(-8.01162e-08 -2.88397e-07 1.46922e-08)
(-9.46659e-08 -2.80464e-07 1.49361e-08)
(-1.10102e-07 -2.73795e-07 1.4638e-08)
(-1.24082e-07 -2.67964e-07 1.37932e-08)
(-1.34529e-07 -2.62556e-07 1.25461e-08)
(-1.39964e-07 -2.57287e-07 1.10087e-08)
(-1.396e-07 -2.51922e-07 9.37225e-09)
(-1.33451e-07 -2.46389e-07 7.7837e-09)
(-1.22133e-07 -2.40753e-07 6.37779e-09)
(-1.06698e-07 -2.35135e-07 5.23801e-09)
(-8.84089e-08 -2.29468e-07 4.41406e-09)
(-6.85996e-08 -2.23072e-07 3.91431e-09)
(-4.86178e-08 -2.1396e-07 3.7076e-09)
(-2.97356e-08 -1.976e-07 3.66551e-09)
(-1.35978e-08 -1.64136e-07 3.49871e-09)
(-1.68978e-09 -9.01558e-08 2.24587e-09)
(-1.87537e-08 -3.36976e-07 -1.88079e-08)
(-9.64304e-08 -5.93121e-07 -2.8916e-08)
(-1.49046e-07 -6.84859e-07 -2.67101e-08)
(-1.78943e-07 -6.82275e-07 -2.11701e-08)
(-1.80038e-07 -6.42665e-07 -1.47746e-08)
(-1.64355e-07 -5.893e-07 -9.15948e-09)
(-1.38551e-07 -5.37261e-07 -4.29389e-09)
(-1.10168e-07 -4.92004e-07 -1.58292e-10)
(-8.39851e-08 -4.55392e-07 3.47076e-09)
(-6.35315e-08 -4.26923e-07 6.70437e-09)
(-5.07389e-08 -4.05316e-07 9.57673e-09)
(-4.63368e-08 -3.89043e-07 1.20569e-08)
(-4.98274e-08 -3.76682e-07 1.40284e-08)
(-5.98617e-08 -3.66934e-07 1.54521e-08)
(-7.44354e-08 -3.58744e-07 1.62228e-08)
(-9.1338e-08 -3.5117e-07 1.64187e-08)
(-1.08621e-07 -3.43632e-07 1.60578e-08)
(-1.24033e-07 -3.35894e-07 1.50893e-08)
(-1.35487e-07 -3.27738e-07 1.36762e-08)
(-1.41505e-07 -3.19093e-07 1.19311e-08)
(-1.41313e-07 -3.09952e-07 1.00781e-08)
(-1.35019e-07 -3.00485e-07 8.28288e-09)
(-1.23352e-07 -2.90989e-07 6.6979e-09)
(-1.07483e-07 -2.81775e-07 5.41366e-09)
(-8.87773e-08 -2.72886e-07 4.48044e-09)
(-6.86327e-08 -2.63593e-07 3.90355e-09)
(-4.84333e-08 -2.51608e-07 3.64763e-09)
(-2.94679e-08 -2.3163e-07 3.58297e-09)
(-1.33742e-08 -1.92105e-07 3.42293e-09)
(-1.62984e-09 -1.05511e-07 2.21539e-09)
(-8.41708e-09 -2.58018e-07 -8.47187e-09)
(-4.82008e-08 -4.761e-07 -1.35959e-08)
(-8.01251e-08 -5.69791e-07 -1.29704e-08)
(-1.00598e-07 -5.93218e-07 -1.05059e-08)
(-1.04721e-07 -5.83972e-07 -7.23193e-09)
(-9.74471e-08 -5.6009e-07 -3.97946e-09)
(-8.26214e-08 -5.33197e-07 -7.96062e-10)
(-6.51236e-08 -5.08561e-07 2.25757e-09)
(-4.87307e-08 -4.88417e-07 5.22484e-09)
(-3.65055e-08 -4.72984e-07 8.08852e-09)
(-3.03844e-08 -4.61588e-07 1.07692e-08)
(-3.1256e-08 -4.53162e-07 1.31591e-08)
(-3.88055e-08 -4.4659e-07 1.50725e-08)
(-5.18647e-08 -4.40775e-07 1.64505e-08)
(-6.85713e-08 -4.34788e-07 1.71576e-08)
(-8.69099e-08 -4.27798e-07 1.73091e-08)
(-1.05247e-07 -4.19361e-07 1.69158e-08)
(-1.21446e-07 -4.09422e-07 1.58687e-08)
(-1.33426e-07 -3.97984e-07 1.43463e-08)
(-1.39726e-07 -3.85244e-07 1.24539e-08)
(-1.39597e-07 -3.71493e-07 1.04445e-08)
(-1.33229e-07 -3.57218e-07 8.50002e-09)
(-1.21443e-07 -3.43015e-07 6.78787e-09)
(-1.05503e-07 -3.29442e-07 5.40257e-09)
(-8.6829e-08 -3.16677e-07 4.39277e-09)
(-6.68501e-08 -3.03965e-07 3.76009e-09)
(-4.6947e-08 -2.88724e-07 3.46717e-09)
(-2.83896e-08 -2.64902e-07 3.38707e-09)
(-1.27685e-08 -2.19288e-07 3.2439e-09)
(-1.51838e-09 -1.2037e-07 2.12342e-09)
(-3.62368e-09 -2.19521e-07 -3.67906e-09)
(-2.36713e-08 -4.14001e-07 -6.15578e-09)
(-4.20614e-08 -5.05624e-07 -6.0303e-09)
(-5.47722e-08 -5.41873e-07 -4.87585e-09)
(-5.83219e-08 -5.50597e-07 -3.08376e-09)
(-5.45606e-08 -5.46204e-07 -1.04257e-09)
(-4.56644e-08 -5.37702e-07 1.20575e-09)
(-3.47809e-08 -5.29538e-07 3.59934e-09)
(-2.4766e-08 -5.23653e-07 6.11134e-09)
(-1.81267e-08 -5.20313e-07 8.67163e-09)
(-1.65845e-08 -5.18933e-07 1.11463e-08)
(-2.0987e-08 -5.18536e-07 1.33883e-08)
(-3.10558e-08 -5.18059e-07 1.51751e-08)
(-4.57123e-08 -5.16466e-07 1.64463e-08)
(-6.3204e-08 -5.12886e-07 1.7054e-08)
(-8.17214e-08 -5.06603e-07 1.71635e-08)
(-9.99703e-08 -4.97287e-07 1.67815e-08)
(-1.15984e-07 -4.85013e-07 1.57318e-08)
(-1.27737e-07 -4.70001e-07 1.41981e-08)
(-1.33826e-07 -4.52718e-07 1.22709e-08)
(-1.33545e-07 -4.33812e-07 1.02231e-08)
(-1.27154e-07 -4.14136e-07 8.24177e-09)
(-1.15535e-07 -3.94651e-07 6.5014e-09)
(-9.99884e-08 -3.762e-07 5.0963e-09)
(-8.19328e-08 -3.59126e-07 4.07254e-09)
(-6.27667e-08 -3.42664e-07 3.42812e-09)
(-4.38169e-08 -3.23956e-07 3.12493e-09)
(-2.62943e-08 -2.96239e-07 3.04619e-09)
(-1.16871e-08 -2.44744e-07 2.93906e-09)
(-1.34262e-09 -1.34229e-07 1.9585e-09)
(-1.43735e-09 -2.01497e-07 -1.49311e-09)
(-1.12837e-08 -3.82092e-07 -2.6182e-09)
(-2.1532e-08 -4.71083e-07 -2.61965e-09)
(-2.90418e-08 -5.13783e-07 -2.02902e-09)
(-3.14875e-08 -5.3344e-07 -9.62678e-10)
(-2.94185e-08 -5.42223e-07 4.19087e-10)
(-2.4056e-08 -5.47322e-07 2.09472e-09)
(-1.74378e-08 -5.52299e-07 4.01926e-09)
(-1.16695e-08 -5.58555e-07 6.14614e-09)
(-8.72149e-09 -5.66067e-07 8.39077e-09)
(-1.00241e-08 -5.74043e-07 1.06026e-08)
(-1.63035e-08 -5.81357e-07 1.26227e-08)
(-2.72819e-08 -5.86824e-07 1.42189e-08)
(-4.19666e-08 -5.89384e-07 1.53357e-08)
(-5.87475e-08 -5.8818e-07 1.58272e-08)
(-7.60477e-08 -5.82646e-07 1.58965e-08)
(-9.28945e-08 -5.72536e-07 1.55469e-08)
(-1.07545e-07 -5.57968e-07 1.45526e-08)
(-1.18115e-07 -5.39352e-07 1.3096e-08)
(-1.23332e-07 -5.17414e-07 1.12525e-08)
(-1.22585e-07 -4.93185e-07 9.29638e-09)
(-1.16199e-07 -4.67929e-07 7.40957e-09)
(-1.05066e-07 -4.42993e-07 5.76104e-09)
(-9.04458e-08 -4.19521e-07 4.43718e-09)
(-7.36842e-08 -3.98037e-07 3.47737e-09)
(-5.60766e-08 -3.77778e-07 2.87666e-09)
(-3.88329e-08 -3.55637e-07 2.59963e-09)
(-2.3055e-08 -3.24215e-07 2.54591e-09)
(-1.00729e-08 -2.67354e-07 2.49781e-09)
(-1.09581e-09 -1.46491e-07 1.71522e-09)
(-5.04336e-10 -1.93281e-07 -5.61361e-10)
(-5.45656e-09 -3.65782e-07 -1.05987e-09)
(-1.14239e-08 -4.52485e-07 -1.09182e-09)
(-1.61957e-08 -4.98473e-07 -7.67971e-10)
(-1.82339e-08 -5.24931e-07 -1.0032e-10)
(-1.75599e-08 -5.42728e-07 8.56191e-10)
(-1.48308e-08 -5.57849e-07 2.09457e-09)
(-1.13427e-08 -5.73097e-07 3.58464e-09)
(-8.58506e-09 -5.89302e-07 5.28074e-09)
(-8.03113e-09 -6.06034e-07 7.10305e-09)
(-1.07989e-08 -6.22161e-07 8.91297e-09)
(-1.74658e-08 -6.36281e-07 1.05655e-08)
(-2.77805e-08 -6.47001e-07 1.18514e-08)
(-4.08935e-08 -6.53221e-07 1.27258e-08)
(-5.54285e-08 -6.5411e-07 1.30732e-08)
(-7.00815e-08 -6.49292e-07 1.31005e-08)
(-8.41326e-08 -6.38587e-07 1.28118e-08)
(-9.61258e-08 -6.22055e-07 1.19682e-08)
(-1.04449e-07 -6.00232e-07 1.0727e-08)
(-1.0806e-07 -5.74059e-07 9.14762e-09)
(-1.06506e-07 -5.44933e-07 7.47612e-09)
(-1.00157e-07 -5.14516e-07 5.87075e-09)
(-8.98566e-08 -4.84534e-07 4.4786e-09)
(-7.67418e-08 -4.56426e-07 3.36964e-09)
(-6.19916e-08 -4.30886e-07 2.57529e-09)
(-4.67207e-08 -4.07158e-07 2.0893e-09)
(-3.19615e-08 -3.81938e-07 1.88415e-09)
(-1.86567e-08 -3.47296e-07 1.88403e-09)
(-7.92204e-09 -2.85925e-07 1.9207e-09)
(-7.7806e-10 -1.56533e-07 1.39511e-09)
(-2.11205e-10 -1.8918e-07 -2.69409e-10)
(-3.3416e-09 -3.56446e-07 -5.52908e-10)
(-7.71278e-09 -4.41087e-07 -6.10046e-10)
(-1.17723e-08 -4.88551e-07 -4.39595e-10)
(-1.44421e-08 -5.19128e-07 -3.08856e-11)
(-1.55066e-08 -5.42939e-07 5.99868e-10)
(-1.52458e-08 -5.65188e-07 1.45057e-09)
(-1.4408e-08 -5.88091e-07 2.50497e-09)
(-1.39511e-08 -6.11986e-07 3.73133e-09)
(-1.48824e-08 -6.36035e-07 5.07161e-09)
(-1.80048e-08 -6.58757e-07 6.42303e-09)
(-2.37653e-08 -6.78465e-07 7.67339e-09)
(-3.20214e-08 -6.93539e-07 8.66164e-09)
(-4.21683e-08 -7.02809e-07 9.33597e-09)
(-5.3185e-08 -7.05456e-07 9.60239e-09)
(-6.40511e-08 -7.01272e-07 9.58732e-09)
(-7.41427e-08 -6.90119e-07 9.2984e-09)
(-8.23197e-08 -6.71991e-07 8.57129e-09)
(-8.73909e-08 -6.47525e-07 7.55048e-09)
(-8.86705e-08 -6.17848e-07 6.29715e-09)
(-8.59427e-08 -5.84682e-07 5.00782e-09)
(-7.96217e-08 -5.50025e-07 3.79876e-09)
(-7.04481e-08 -5.15922e-07 2.77412e-09)
(-5.93491e-08 -4.84054e-07 1.97806e-09)
(-4.72507e-08 -4.55253e-07 1.42621e-09)
(-3.50143e-08 -4.28768e-07 1.11055e-09)
(-2.34329e-08 -4.01142e-07 1.01387e-09)
(-1.32457e-08 -3.64053e-07 1.09088e-09)
(-5.30612e-09 -2.99355e-07 1.2319e-09)
(-4.00437e-10 -1.63777e-07 1.01026e-09)
(-2.56891e-10 -1.8595e-07 -3.17081e-10)
(-3.3894e-09 -3.4876e-07 -6.24672e-10)
(-7.97991e-09 -4.31152e-07 -7.31016e-10)
(-1.28525e-08 -4.78794e-07 -6.79855e-10)
(-1.71363e-08 -5.11499e-07 -4.83497e-10)
(-2.04736e-08 -5.38915e-07 -1.58018e-10)
(-2.28437e-08 -5.65729e-07 2.91589e-10)
(-2.45452e-08 -5.93715e-07 8.53316e-10)
(-2.60555e-08 -6.22837e-07 1.50811e-09)
(-2.79318e-08 -6.51949e-07 2.22522e-09)
(-3.06644e-08 -6.79291e-07 2.95209e-09)
(-3.45737e-08 -7.02955e-07 3.62835e-09)
(-3.96703e-08 -7.21151e-07 4.17228e-09)
(-4.56674e-08 -7.32644e-07 4.53851e-09)
(-5.20015e-08 -7.36612e-07 4.67713e-09)
(-5.79775e-08 -7.32934e-07 4.61352e-09)
(-6.30231e-08 -7.21508e-07 4.36742e-09)
(-6.63791e-08 -7.0232e-07 3.87178e-09)
(-6.73931e-08 -6.76098e-07 3.23684e-09)
(-6.5813e-08 -6.44112e-07 2.50775e-09)
(-6.17016e-08 -6.08307e-07 1.79754e-09)
(-5.54849e-08 -5.70913e-07 1.16517e-09)
(-4.77368e-08 -5.34181e-07 6.58211e-10)
(-3.91014e-08 -4.99939e-07 2.90833e-10)
(-3.01836e-08 -4.691e-07 6.56886e-11)
(-2.15341e-08 -4.40918e-07 -2.19485e-11)
(-1.3666e-08 -4.11841e-07 2.53046e-11)
(-7.08653e-09 -3.7333e-07 2.00518e-10)
(-2.35062e-09 -3.06762e-07 4.62449e-10)
(2.09019e-11 -1.67763e-07 5.78026e-10)
(-4.77812e-10 -1.81746e-07 -5.40028e-10)
(-4.66028e-09 -3.39508e-07 -1.00261e-09)
(-1.06038e-08 -4.19063e-07 -1.17674e-09)
(-1.72907e-08 -4.65751e-07 -1.22861e-09)
(-2.38832e-08 -4.98944e-07 -1.21352e-09)
(-2.98938e-08 -5.27905e-07 -1.16474e-09)
(-3.50291e-08 -5.56946e-07 -1.09469e-09)
(-3.9194e-08 -5.87538e-07 -1.01074e-09)
(-4.24263e-08 -6.19401e-07 -9.11825e-10)
(-4.48563e-08 -6.51205e-07 -7.93418e-10)
(-4.6679e-08 -6.81053e-07 -6.47492e-10)
(-4.81088e-08 -7.06922e-07 -4.78625e-10)
(-4.93591e-08 -7.26941e-07 -2.9224e-10)
(-5.05196e-08 -7.39806e-07 -1.42612e-10)
(-5.15282e-08 -7.44649e-07 -6.85911e-11)
(-5.20221e-08 -7.41339e-07 -1.71481e-10)
(-5.14611e-08 -7.2981e-07 -4.20296e-10)
(-4.94784e-08 -7.10127e-07 -7.59108e-10)
(-4.60082e-08 -6.83133e-07 -1.07959e-09)
(-4.12817e-08 -6.50221e-07 -1.33296e-09)
(-3.56617e-08 -6.13446e-07 -1.48754e-09)
(-2.95736e-08 -5.75119e-07 -1.54728e-09)
(-2.33975e-08 -5.37551e-07 -1.52897e-09)
(-1.74498e-08 -5.02608e-07 -1.45468e-09)
(-1.19791e-08 -4.7121e-07 -1.34071e-09)
(-7.1963e-09 -4.42602e-07 -1.19112e-09)
(-3.31048e-09 -4.1321e-07 -9.93569e-10)
(-5.80139e-10 -3.74451e-07 -7.1783e-10)
(7.54797e-10 -3.07631e-07 -3.34298e-10)
(4.57898e-10 -1.68225e-07 1.27193e-10)
(-7.81003e-10 -1.75583e-07 -8.45332e-10)
(-6.54626e-09 -3.2689e-07 -1.52713e-09)
(-1.44492e-08 -4.0275e-07 -1.78154e-09)
(-2.34889e-08 -4.47432e-07 -1.92907e-09)
(-3.27571e-08 -4.79701e-07 -2.07988e-09)
(-4.16325e-08 -5.08418e-07 -2.29449e-09)
(-4.9573e-08 -5.37584e-07 -2.5972e-09)
(-5.6138e-08 -5.68471e-07 -2.99707e-09)
(-6.09672e-08 -6.00675e-07 -3.48067e-09)
(-6.37995e-08 -6.32825e-07 -4.01689e-09)
(-6.4547e-08 -6.63038e-07 -4.54221e-09)
(-6.33055e-08 -6.89319e-07 -5.00177e-09)
(-6.04479e-08 -7.09816e-07 -5.31382e-09)
(-5.6406e-08 -7.23162e-07 -5.5134e-09)
(-5.16214e-08 -7.28417e-07 -5.58606e-09)
(-4.6143e-08 -7.25348e-07 -5.7238e-09)
(-3.95847e-08 -7.13933e-07 -5.88512e-09)
(-3.20493e-08 -6.94393e-07 -5.91605e-09)
(-2.40559e-08 -6.67722e-07 -5.76311e-09)
(-1.62633e-08 -6.35392e-07 -5.40225e-09)
(-9.27231e-09 -5.9944e-07 -4.89558e-09)
(-3.4571e-09 -5.62114e-07 -4.31192e-09)
(1.02518e-09 -5.25626e-07 -3.7257e-09)
(4.19576e-09 -4.91752e-07 -3.1872e-09)
(6.16436e-09 -4.61351e-07 -2.72363e-09)
(7.05617e-09 -4.33647e-07 -2.33269e-09)
(6.95783e-09 -4.05115e-07 -1.9852e-09)
(5.85414e-09 -3.67314e-07 -1.61185e-09)
(3.81478e-09 -3.01885e-07 -1.11256e-09)
(8.85905e-10 -1.65124e-07 -3.17054e-10)
(-1.10193e-09 -1.67056e-07 -1.16773e-09)
(-8.60921e-09 -3.10137e-07 -2.08269e-09)
(-1.86498e-08 -3.81338e-07 -2.4132e-09)
(-3.01583e-08 -4.2307e-07 -2.63721e-09)
(-4.21034e-08 -4.53227e-07 -2.91915e-09)
(-5.37279e-08 -4.80192e-07 -3.3469e-09)
(-6.4269e-08 -5.07677e-07 -3.95666e-09)
(-7.29929e-08 -5.36804e-07 -4.75737e-09)
(-7.92029e-08 -5.6715e-07 -5.72455e-09)
(-8.23063e-08 -5.9742e-07 -6.8034e-09)
(-8.19633e-08 -6.25879e-07 -7.88675e-09)
(-7.81544e-08 -6.5069e-07 -8.87386e-09)
(-7.13656e-08 -6.7015e-07 -9.61506e-09)
(-6.23027e-08 -6.82917e-07 -1.01222e-08)
(-5.18508e-08 -6.88032e-07 -1.03316e-08)
(-4.05061e-08 -6.85121e-07 -1.0479e-08)
(-2.81725e-08 -6.74207e-07 -1.05272e-08)
(-1.54371e-08 -6.55702e-07 -1.02633e-08)
(-3.3225e-09 -6.30684e-07 -9.69291e-09)
(7.18533e-09 -6.00604e-07 -8.81186e-09)
(1.53211e-08 -5.67341e-07 -7.75506e-09)
(2.0787e-08 -5.32936e-07 -6.64012e-09)
(2.36407e-08 -4.99376e-07 -5.58554e-09)
(2.42093e-08 -4.68246e-07 -4.6646e-09)
(2.29245e-08 -4.4029e-07 -3.91375e-09)
(2.02124e-08 -4.14719e-07 -3.3272e-09)
(1.6427e-08 -3.88128e-07 -2.86106e-09)
(1.17792e-08 -3.52399e-07 -2.41175e-09)
(6.62457e-09 -2.89895e-07 -1.81789e-09)
(1.27539e-09 -1.58651e-07 -7.24909e-10)
(-1.40041e-09 -1.56178e-07 -1.4677e-09)
(-1.05509e-08 -2.89249e-07 -2.59871e-09)
(-2.25963e-08 -3.54884e-07 -2.99337e-09)
(-3.63733e-08 -3.92899e-07 -3.27291e-09)
(-5.07106e-08 -4.20043e-07 -3.65023e-09)
(-6.47301e-08 -4.44123e-07 -4.2392e-09)
(-7.74859e-08 -4.68559e-07 -5.08489e-09)
(-8.80117e-08 -4.94364e-07 -6.20008e-09)
(-9.53494e-08 -5.21157e-07 -7.5554e-09)
(-9.86438e-08 -5.47799e-07 -9.08125e-09)
(-9.73494e-08 -5.72801e-07 -1.06458e-08)
(-9.13346e-08 -5.94599e-07 -1.21125e-08)
(-8.11207e-08 -6.11733e-07 -1.32813e-08)
(-6.75975e-08 -6.22981e-07 -1.41209e-08)
(-5.1982e-08 -6.27453e-07 -1.45105e-08)
(-3.52281e-08 -6.24674e-07 -1.46552e-08)
(-1.77034e-08 -6.14707e-07 -1.45252e-08)
(-4.73519e-10 -5.98112e-07 -1.39224e-08)
(1.50691e-08 -5.75929e-07 -1.29221e-08)
(2.77341e-08 -5.49495e-07 -1.15597e-08)
(3.66886e-08 -5.20432e-07 -1.00273e-08)
(4.17329e-08 -4.9046e-07 -8.47476e-09)
(4.31154e-08 -4.61255e-07 -7.04741e-09)
(4.14148e-08 -4.34154e-07 -5.82924e-09)
(3.73233e-08 -4.09755e-07 -4.86037e-09)
(3.15118e-08 -3.87269e-07 -4.12944e-09)
(2.45579e-08 -3.63466e-07 -3.58002e-09)
(1.68623e-08 -3.30715e-07 -3.0807e-09)
(9.03009e-09 -2.72436e-07 -2.41682e-09)
(1.60694e-09 -1.4921e-07 -1.07706e-09)
(-1.65052e-09 -1.43227e-07 -1.71827e-09)
(-1.21756e-08 -2.64731e-07 -3.02575e-09)
(-2.58789e-08 -3.24073e-07 -3.46391e-09)
(-4.14975e-08 -3.57834e-07 -3.77165e-09)
(-5.77309e-08 -3.81389e-07 -4.19895e-09)
(-7.35998e-08 -4.01864e-07 -4.87835e-09)
(-8.80185e-08 -4.22372e-07 -5.86124e-09)
(-9.98537e-08 -4.43833e-07 -7.16152e-09)
(-1.07965e-07 -4.65943e-07 -8.74594e-09)
(-1.11321e-07 -4.87775e-07 -1.05377e-08)
(-1.09228e-07 -5.08132e-07 -1.23922e-08)
(-1.01466e-07 -5.25777e-07 -1.41543e-08)
(-8.85485e-08 -5.39574e-07 -1.56013e-08)
(-7.14768e-08 -5.48533e-07 -1.6663e-08)
(-5.16904e-08 -5.51929e-07 -1.71864e-08)
(-3.05383e-08 -5.49301e-07 -1.73162e-08)
(-8.88568e-09 -5.40737e-07 -1.70305e-08)
(1.18059e-08 -5.26819e-07 -1.61822e-08)
(2.99029e-08 -5.08434e-07 -1.48913e-08)
(4.41059e-08 -4.86699e-07 -1.32277e-08)
(5.35856e-08 -4.62888e-07 -1.141e-08)
(5.82319e-08 -4.38357e-07 -9.60326e-09)
(5.84382e-08 -4.14432e-07 -7.96388e-09)
(5.49594e-08 -3.92176e-07 -6.58034e-09)
(4.86734e-08 -3.72033e-07 -5.49358e-09)
(4.0432e-08 -3.53221e-07 -4.68927e-09)
(3.0983e-08 -3.32754e-07 -4.10411e-09)
(2.08785e-08 -3.03611e-07 -3.58677e-09)
(1.0927e-08 -2.50547e-07 -2.88359e-09)
(1.86599e-09 -1.37343e-07 -1.35931e-09)
(-1.83951e-09 -1.28649e-07 -1.90729e-09)
(-1.33877e-08 -2.374e-07 -3.34418e-09)
(-2.82992e-08 -2.89965e-07 -3.80516e-09)
(-4.5227e-08 -3.19203e-07 -4.11569e-09)
(-6.27666e-08 -3.38925e-07 -4.55246e-09)
(-7.98639e-08 -3.55513e-07 -5.26029e-09)
(-9.53394e-08 -3.71746e-07 -6.29372e-09)
(-1.07958e-07 -3.88467e-07 -7.66524e-09)
(-1.16473e-07 -4.05471e-07 -9.33931e-09)
(-1.19756e-07 -4.22045e-07 -1.12377e-08)
(-1.17026e-07 -4.37303e-07 -1.32154e-08)
(-1.08011e-07 -4.50356e-07 -1.51124e-08)
(-9.31884e-08 -4.60414e-07 -1.67027e-08)
(-7.36124e-08 -4.66766e-07 -1.78846e-08)
(-5.08498e-08 -4.6891e-07 -1.84906e-08)
(-2.65435e-08 -4.66482e-07 -1.86008e-08)
(-2.00376e-09 -4.59574e-07 -1.82002e-08)
(2.10199e-08 -4.48698e-07 -1.72016e-08)
(4.07683e-08 -4.34519e-07 -1.57487e-08)
(5.59101e-08 -4.17878e-07 -1.39414e-08)
(6.56584e-08 -3.99678e-07 -1.20031e-08)
(6.99711e-08 -3.80903e-07 -1.01004e-08)
(6.93354e-08 -3.62529e-07 -8.38735e-09)
(6.46106e-08 -3.45355e-07 -6.95209e-09)
(5.67855e-08 -3.29673e-07 -5.83389e-09)
(4.68264e-08 -3.14726e-07 -5.0181e-09)
(3.55975e-08 -2.97807e-07 -4.43848e-09)
(2.37623e-08 -2.72604e-07 -3.93113e-09)
(1.22848e-08 -2.25403e-07 -3.21591e-09)
(2.04853e-09 -1.23666e-07 -1.56827e-09)
(-1.96571e-09 -1.12945e-07 -2.03234e-09)
(-1.41699e-08 -2.08178e-07 -3.55056e-09)
(-2.98213e-08 -2.53733e-07 -4.01548e-09)
(-4.75128e-08 -2.78418e-07 -4.30871e-09)
(-6.57691e-08 -2.94353e-07 -4.72225e-09)
(-8.34895e-08 -3.07135e-07 -5.40618e-09)
(-9.94414e-08 -3.19201e-07 -6.41383e-09)
(-1.12343e-07 -3.31317e-07 -7.7555e-09)
(-1.2091e-07 -3.43371e-07 -9.39433e-09)
(-1.23982e-07 -3.54861e-07 -1.12534e-08)
(-1.20757e-07 -3.65191e-07 -1.3196e-08)
(-1.1094e-07 -3.73795e-07 -1.50668e-08)
(-9.4977e-08 -3.80211e-07 -1.66549e-08)
(-7.3932e-08 -3.84023e-07 -1.78421e-08)
(-4.94216e-08 -3.84954e-07 -1.84662e-08)
(-2.32662e-08 -3.82775e-07 -1.85557e-08)
(2.9051e-09 -3.77576e-07 -1.81007e-08)
(2.71768e-08 -3.6974e-07 -1.70646e-08)
(4.77508e-08 -3.59697e-07 -1.55936e-08)
(6.33129e-08 -3.47988e-07 -1.38024e-08)
(7.31318e-08 -3.35172e-07 -1.18998e-08)
(7.72077e-08 -3.2189e-07 -1.0046e-08)
(7.60655e-08 -3.088e-07 -8.38317e-09)
(7.0602e-08 -2.96457e-07 -6.99518e-09)
(6.18537e-08 -2.85027e-07 -5.9206e-09)
(5.0843e-08 -2.73793e-07 -5.14544e-09)
(3.85049e-08 -2.60356e-07 -4.60387e-09)
(2.55779e-08 -2.39158e-07 -4.12818e-09)
(1.31334e-08 -1.98146e-07 -3.42379e-09)
(2.15822e-09 -1.08786e-07 -1.70841e-09)
(-2.035e-09 -9.65928e-08 -2.09935e-09)
(-1.45607e-08 -1.77937e-07 -3.6571e-09)
(-3.0531e-08 -2.16473e-07 -4.11395e-09)
(-4.8506e-08 -2.36767e-07 -4.3787e-09)
(-6.69692e-08 -2.49186e-07 -4.74934e-09)
(-8.47983e-08 -2.58519e-07 -5.37647e-09)
(-1.00743e-07 -2.66862e-07 -6.3096e-09)
(-1.13519e-07 -2.74903e-07 -7.55541e-09)
(-1.21851e-07 -2.82614e-07 -9.07769e-09)
(-1.24609e-07 -2.89681e-07 -1.08026e-08)
(-1.21009e-07 -2.95752e-07 -1.26056e-08)
(-1.10767e-07 -3.00532e-07 -1.43443e-08)
(-9.43066e-08 -3.03835e-07 -1.58317e-08)
(-7.26733e-08 -3.05494e-07 -1.69456e-08)
(-4.74752e-08 -3.05429e-07 -1.75402e-08)
(-2.06028e-08 -3.03543e-07 -1.76115e-08)
(6.12779e-09 -2.99916e-07 -1.71532e-08)
(3.07424e-08 -2.94794e-07 -1.61613e-08)
(5.14728e-08 -2.88393e-07 -1.47716e-08)
(6.70492e-08 -2.80991e-07 -1.31028e-08)
(7.67932e-08 -2.72857e-07 -1.13393e-08)
(8.07177e-08 -2.64346e-07 -9.6265e-09)
(7.93449e-08 -2.55854e-07 -8.09263e-09)
(7.35573e-08 -2.4773e-07 -6.81481e-09)
(6.43883e-08 -2.40032e-07 -5.82989e-09)
(5.28729e-08 -2.321e-07 -5.12614e-09)
(3.99787e-08 -2.21856e-07 -4.64124e-09)
(2.64906e-08 -2.04523e-07 -4.20901e-09)
(1.35485e-08 -1.69771e-07 -3.52962e-09)
(2.20542e-09 -9.32364e-08 -1.79095e-09)
(-2.05564e-09 -8.00022e-08 -2.11624e-09)
(-1.46233e-08 -1.47414e-07 -3.68025e-09)
(-3.05676e-08 -1.79084e-07 -4.12218e-09)
(-4.84421e-08 -1.95268e-07 -4.35563e-09)
(-6.67167e-08 -2.04565e-07 -4.67666e-09)
(-8.42646e-08 -2.10959e-07 -5.23181e-09)
(-9.98441e-08 -2.16215e-07 -6.06642e-09)
(-1.12197e-07 -2.20934e-07 -7.18373e-09)
(-1.20097e-07 -2.25157e-07 -8.54735e-09)
(-1.22473e-07 -2.2872e-07 -1.0088e-08)
(-1.18595e-07 -2.3146e-07 -1.16962e-08)
(-1.08214e-07 -2.3329e-07 -1.32451e-08)
(-9.17384e-08 -2.34222e-07 -1.45747e-08)
(-7.0181e-08 -2.34279e-07 -1.557e-08)
(-4.51018e-08 -2.33525e-07 -1.61071e-08)
(-1.83807e-08 -2.31962e-07 -1.61638e-08)
(8.10065e-09 -2.29658e-07 -1.5736e-08)
(3.23906e-08 -2.26741e-07 -1.48396e-08)
(5.2789e-08 -2.23261e-07 -1.35918e-08)
(6.80868e-08 -2.19292e-07 -1.21042e-08)
(7.76502e-08 -2.1489e-07 -1.05346e-08)
(8.14823e-08 -2.10191e-07 -9.01127e-09)
(8.0072e-08 -2.05389e-07 -7.64534e-09)
(7.42548e-08 -2.00674e-07 -6.50749e-09)
(6.50256e-08 -1.96022e-07 -5.63316e-09)
(5.34016e-08 -1.90846e-07 -5.01379e-09)
(4.03566e-08 -1.83388e-07 -4.59137e-09)
(2.67028e-08 -1.69656e-07 -4.20494e-09)
(1.36218e-08 -1.41056e-07 -3.55755e-09)
(2.20138e-09 -7.74423e-08 -1.82824e-09)
(-2.03269e-09 -6.35167e-08 -2.08771e-09)
(-1.44009e-08 -1.172e-07 -3.62924e-09)
(-3.00415e-08 -1.42252e-07 -4.0532e-09)
(-4.75234e-08 -1.54656e-07 -4.25817e-09)
(-6.53241e-08 -1.61267e-07 -4.53251e-09)
(-8.23203e-08 -1.65286e-07 -5.01603e-09)
(-9.72942e-08 -1.6815e-07 -5.74978e-09)