/*--------------------------------*- C++ -*----------------------------------*\
| =========                 |                                                 |
| \\      /  F ield         | OpenFOAM: The Open Source CFD Toolbox           |
|  \\    /   O peration     | Version:  v1906                                 |
|   \\  /    A nd           | Web:      www.OpenFOAM.com                      |
|    \\/     M anipulation  |                                                 |
\*---------------------------------------------------------------------------*/
FoamFile
{
    version     2.0;
    format      ascii;
    class       surfaceScalarField;
    location    "93.4/oil";
    object      phi;
}
// * * * * * * * * * * * * * * * * * * * * * * * * * * * * * * * * * * * * * //

dimensions      [1 0 -1 0 0 0 0];
oriented        oriented;


internalField   nonuniform List<scalar> 
80688
(
-2.0517e-06
-2.07926e-06
-2.0517e-06
-9.2436e-07
-5.79279e-07
-5.48061e-07
-2.73921e-07
-3.27203e-07
-3.23236e-07
-1.23966e-07
-7.53074e-08
-7.46477e-08
-3.98319e-08
-4.20659e-08
-4.2068e-08
2.47393e-09
-2.07697e-08
-2.15362e-08
2.61075e-08
-1.1042e-08
-1.25917e-08
3.94022e-08
-5.56875e-09
-7.72609e-09
4.58682e-08
-1.96459e-09
-4.5015e-09
4.69979e-08
7.77503e-10
-1.90727e-09
4.35704e-08
3.04884e-09
3.78522e-10
3.62744e-08
4.93859e-09
2.3573e-09
2.58511e-08
6.4271e-09
3.99615e-09
1.32046e-08
7.46937e-09
5.17709e-09
-6.20993e-10
8.01948e-09
5.80611e-09
-1.45086e-08
8.05001e-09
5.8376e-09
-2.73559e-08
7.56833e-09
5.27886e-09
-3.81691e-08
6.61987e-09
4.19338e-09
-4.61515e-08
5.27933e-09
2.70301e-09
-5.07728e-08
3.64676e-09
9.7454e-10
-5.18025e-08
1.84864e-09
-8.19052e-10
-4.9318e-08
2.5725e-12
-2.4871e-09
-4.37621e-08
-1.73016e-09
-3.82574e-09
-3.58418e-08
-3.25275e-09
-4.66752e-09
-2.65264e-08
-4.41812e-09
-4.89733e-09
-1.69909e-08
-5.06423e-09
-4.47137e-09
-8.53346e-09
-4.99122e-09
-3.46622e-09
-2.42962e-09
-3.96883e-09
-2.13506e-09
3.85242e-10
-1.82511e-09
-9.89799e-10
7.6694e-10
-3.81728e-10
-5.53295e-07
-9.72675e-07
-5.53288e-07
-3.39036e-07
-3.77872e-07
-4.15667e-07
-2.22641e-07
-2.56795e-07
-1.86803e-07
-9.41164e-08
-1.26761e-07
-7.7072e-08
-1.4944e-08
-8.414e-08
-3.70984e-08
3.56214e-08
-5.80138e-08
-1.33214e-08
6.88324e-08
-4.38214e-08
-4.31736e-10
8.93736e-08
-3.39365e-08
7.82641e-09
9.9401e-08
-2.60719e-08
1.40798e-08
9.99518e-08
-1.918e-08
1.94066e-08
9.18448e-08
-1.30064e-08
2.41621e-08
7.60827e-08
-7.63328e-09
2.83339e-08
5.40482e-08
-3.27855e-09
3.17401e-08
2.75322e-08
-1.97553e-10
3.41829e-08
-1.37776e-09
1.44886e-09
3.54805e-08
-3.04104e-08
1.53279e-09
3.55498e-08
-5.73178e-08
7.09242e-11
3.44048e-08
-8.00901e-08
-2.76923e-09
3.21614e-08
-9.70978e-08
-6.76496e-09
2.9052e-08
-1.07252e-07
-1.15639e-08
2.53647e-08
-1.1009e-07
-1.67611e-08
2.14477e-08
-1.05815e-07
-2.19128e-08
1.76405e-08
-9.5253e-08
-2.65602e-08
1.4268e-08
-7.98299e-08
-3.02405e-08
1.15646e-08
-6.1446e-08
-3.24724e-08
9.67034e-09
-4.23323e-08
-3.2739e-08
8.56097e-09
-2.48388e-08
-3.04736e-08
7.98884e-09
-1.11273e-08
-2.50957e-08
7.41533e-09
-2.71592e-09
-1.61766e-08
5.94e-09
-4.67057e-09
2.72156e-09
-3.25147e-07
-3.2239e-07
-3.25138e-07
-2.18755e-07
-2.98192e-07
-1.86072e-07
-1.31119e-07
-2.32735e-07
-1.11696e-07
-4.3188e-08
-1.65297e-07
-4.93951e-08
2.20842e-08
-1.33942e-07
-1.54707e-08
7.08484e-08
-1.12411e-07
5.63334e-09
1.05691e-07
-9.75406e-08
1.88762e-08
1.28098e-07
-8.4818e-08
2.84744e-08
1.3862e-07
-7.29244e-08
3.63306e-08
1.37568e-07
-6.14308e-08
4.33024e-08
1.25517e-07
-5.05589e-08
4.96035e-08
1.03549e-07
-4.08087e-08
5.51437e-08
7.33881e-08
-3.27787e-08
5.96611e-08
3.73268e-08
-2.70269e-08
6.28906e-08
-1.8656e-09
-2.39704e-08
6.46116e-08
-4.12071e-08
-2.38283e-08
6.47026e-08
-7.77403e-08
-2.65752e-08
6.31793e-08
-1.08776e-07
-3.19354e-08
6.02016e-08
-1.32175e-07
-3.94097e-08
5.60435e-08
-1.4649e-07
-4.83135e-08
5.10653e-08
-1.51116e-07
-5.78288e-08
4.56929e-08
-1.46291e-07
-6.70606e-08
4.03234e-08
-1.33102e-07
-7.50805e-08
3.53311e-08
-1.13355e-07
-8.09498e-08
3.09624e-08
-8.94383e-08
-8.37194e-08
2.73301e-08
-6.41029e-08
-8.24133e-08
2.43389e-08
-4.01698e-08
-7.60259e-08
2.16192e-08
-2.02005e-08
-6.353e-08
1.84648e-08
-6.18822e-09
-4.39522e-08
1.37633e-08
-1.70534e-08
6.19454e-09
-6.80337e-08
-1.86332e-07
-6.80243e-08
-7.36442e-08
-2.24549e-07
-6.80324e-08
-3.78411e-08
-2.24787e-07
-4.37513e-08
1.52894e-08
-2.06499e-07
-1.19284e-08
6.53458e-08
-1.94124e-07
1.01264e-08
1.08213e-07
-1.81479e-07
2.62003e-08
1.41245e-07
-1.6874e-07
3.81674e-08
1.6303e-07
-1.54614e-07
4.80099e-08
1.72536e-07
-1.39193e-07
5.6763e-08
1.69266e-07
-1.2303e-07
6.48696e-08
1.53444e-07
-1.07068e-07
7.23306e-08
1.26119e-07
-9.24157e-08
7.8932e-08
8.92034e-08
-8.01926e-08
8.4329e-08
4.53663e-08
-7.13803e-08
8.81905e-08
-2.1554e-09
-6.66904e-08
9.02417e-08
-4.98276e-08
-6.64974e-08
9.03412e-08
-9.41385e-08
-7.077e-08
8.85056e-08
-1.31914e-07
-7.90733e-08
8.49131e-08
-1.60601e-07
-9.06038e-08
7.98815e-08
-1.78494e-07
-1.04249e-07
7.38291e-08
-1.84857e-07
-1.1869e-07
6.72242e-08
-1.79967e-07
-1.32477e-07
6.05263e-08
-1.65051e-07
-1.44121e-07
5.41242e-08
-1.42168e-07
-1.52108e-07
4.82761e-08
-1.14004e-07
-1.54954e-07
4.30701e-08
-8.36185e-08
-1.51158e-07
3.83585e-08
-5.41501e-08
-1.39188e-07
3.36937e-08
-2.8509e-08
-1.17421e-07
2.82501e-08
-9.31568e-09
-8.38753e-08
2.07298e-08
-3.56914e-08
9.32232e-09
-2.80423e-08
-1.30258e-07
-2.80324e-08
-1.85951e-08
-2.13085e-07
-2.09108e-08
1.34027e-08
-2.52711e-07
-4.07375e-09
5.74944e-08
-2.66043e-07
1.5452e-08
1.02294e-07
-2.70163e-07
3.12386e-08
1.42724e-07
-2.66164e-07
4.4255e-08
1.74866e-07
-2.56212e-07
5.53302e-08
1.96043e-07
-2.41194e-07
6.5403e-08
2.0436e-07
-2.22469e-07
7.49586e-08
1.988e-07
-2.01591e-07
8.41213e-08
1.79326e-07
-1.803e-07
9.27069e-08
1.46976e-07
-1.60421e-07
1.00356e-07
1.03818e-07
-1.43678e-07
1.06643e-07
5.28399e-08
-1.31543e-07
1.11141e-07
-2.29435e-09
-1.25085e-07
1.13528e-07
-5.75678e-08
-1.24854e-07
1.1363e-07
-1.08975e-07
-1.3082e-07
1.11457e-07
-1.52898e-07
-1.42367e-07
1.07217e-07
-1.86431e-07
-1.58345e-07
1.01273e-07
-2.07628e-07
-1.7716e-07
9.41072e-08
-2.15646e-07
-1.96925e-07
8.62532e-08
-2.10774e-07
-2.15572e-07
7.82229e-08
-1.94365e-07
-2.30962e-07
7.04319e-08
-1.6867e-07
-2.40972e-07
6.31691e-08
-1.36616e-07
-2.43519e-07
5.65104e-08
-1.01532e-07
-2.36515e-07
5.02735e-08
-6.68572e-08
-2.1781e-07
4.39474e-08
-3.59136e-08
-1.84954e-07
3.6589e-08
-1.20126e-08
-1.34481e-07
2.67048e-08
-5.97236e-08
1.20196e-08
-3.35174e-09
-1.23565e-07
-3.34093e-09
1.54925e-08
-2.39866e-07
7.93687e-09
4.87268e-08
-3.07526e-07
2.15809e-08
9.10199e-08
-3.44073e-07
3.57374e-08
1.3486e-07
-3.6233e-07
4.83268e-08
1.75124e-07
-3.6622e-07
5.97919e-08
2.07454e-07
-3.59148e-07
7.06063e-08
2.28505e-07
-3.43455e-07
8.12112e-08
2.35848e-07
-3.21577e-07
9.1765e-08
2.28099e-07
-2.96004e-07
1.02161e-07
2.05052e-07
-2.69301e-07
1.12048e-07
1.67742e-07
-2.44037e-07
1.20925e-07
1.18404e-07
-2.22594e-07
1.28253e-07
6.0354e-08
-2.06995e-07
1.33502e-07
-2.31869e-09
-1.9869e-07
1.36278e-07
-6.51087e-08
-1.98437e-07
1.36373e-07
-1.23521e-07
-2.06206e-07
1.33798e-07
-1.73487e-07
-2.21185e-07
1.28785e-07
-2.11749e-07
-2.41843e-07
1.2176e-07
-2.36134e-07
-2.66067e-07
1.13292e-07
-2.45697e-07
-2.91359e-07
1.03997e-07
-2.40744e-07
-3.14972e-07
9.44477e-08
-2.22758e-07
-3.34102e-07
8.51543e-08
-1.94181e-07
-3.45964e-07
7.64144e-08
-1.58195e-07
-3.47823e-07
6.8317e-08
-1.18414e-07
-3.3695e-07
6.06545e-08
-7.863e-08
-3.10451e-07
5.28573e-08
-4.26148e-08
-2.64829e-07
4.38597e-08
-1.43803e-08
-1.94657e-07
3.19408e-08
-8.84917e-08
1.43879e-08
8.15459e-09
-1.39886e-07
8.1663e-09
3.45072e-08
-2.90409e-07
2.41897e-08
7.24819e-08
-3.83551e-07
3.80498e-08
1.17421e-07
-4.39686e-07
5.06737e-08
1.63435e-07
-4.70585e-07
6.22404e-08
2.05574e-07
-4.81773e-07
7.34137e-08
2.39323e-07
-4.77561e-07
8.46639e-08
2.60977e-07
-4.61362e-07
9.6253e-08
2.67774e-07
-4.36535e-07
1.08161e-07
2.58058e-07
-4.06405e-07
1.20116e-07
2.31503e-07
-3.7436e-07
1.31614e-07
1.8918e-07
-3.43721e-07
1.42008e-07
1.33526e-07
-3.17551e-07
1.50611e-07
6.81923e-08
-2.98445e-07
1.56784e-07
-2.2621e-09
-2.88279e-07
1.60043e-07
-7.28096e-08
-2.88017e-07
1.60128e-07
-1.38429e-07
-2.97637e-07
1.57049e-07
-1.94576e-07
-3.16119e-07
1.51082e-07
-2.37622e-07
-3.41532e-07
1.42735e-07
-2.65152e-07
-3.71209e-07
1.32673e-07
-2.76133e-07
-4.02006e-07
1.21627e-07
-2.70912e-07
-4.3049e-07
1.10297e-07
-2.51122e-07
-4.5315e-07
9.9258e-08
-2.19433e-07
-4.66521e-07
8.88693e-08
-1.79314e-07
-4.67187e-07
7.92443e-08
-1.34713e-07
-4.51703e-07
7.01521e-08
-8.98128e-08
-4.16309e-07
6.09576e-08
-4.88679e-08
-3.56243e-07
5.04688e-08
-1.65461e-08
-2.637e-07
3.67211e-08
-1.21592e-07
1.65547e-08
1.44851e-08
-1.68869e-07
1.44979e-08
4.70566e-08
-3.57513e-07
3.45326e-08
9.04154e-08
-4.76563e-07
4.9653e-08
1.39664e-07
-5.51326e-07
6.23922e-08
1.89418e-07
-5.94466e-07
7.41269e-08
2.34685e-07
-6.12892e-07
8.58524e-08
2.70766e-07
-6.11779e-07
9.81358e-08
2.93688e-07
-5.95474e-07
1.1119e-07
3.00362e-07
-5.68095e-07
1.24886e-07
2.88935e-07
-5.3378e-07
1.38802e-07
2.58954e-07
-4.96677e-07
1.52297e-07
2.11544e-07
-4.6088e-07
1.64569e-07
1.49359e-07
-4.30127e-07
1.74762e-07
7.64403e-08
-4.07605e-07
1.82078e-07
-2.15295e-09
-3.95612e-07
1.85926e-07
-8.08173e-08
-3.95354e-07
1.86001e-07
-1.53952e-07
-4.06809e-07
1.82307e-07
-2.16497e-07
-4.28738e-07
1.75163e-07
-2.64422e-07
-4.58784e-07
1.65177e-07
-2.95068e-07
-4.93731e-07
1.53168e-07
-3.07328e-07
-5.29759e-07
1.40013e-07
-3.01628e-07
-5.62736e-07
1.26546e-07
-2.79769e-07
-5.88448e-07
1.13438e-07
-2.44703e-07
-6.02731e-07
1.01144e-07
-2.00233e-07
-6.01473e-07
8.98157e-08
-1.50679e-07
-5.80466e-07
7.92097e-08
-1.00637e-07
-5.34966e-07
6.86145e-08
-5.48502e-08
-4.58723e-07
5.66938e-08
-1.86003e-08
-3.41178e-07
4.12288e-08
-1.58803e-07
1.86101e-08
1.84593e-08
-2.05802e-07
1.84731e-08
5.62063e-08
-4.37103e-07
4.18427e-08
1.04908e-07
-5.83822e-07
5.85577e-08
1.59097e-07
-6.77672e-07
7.21565e-08
2.13377e-07
-7.33481e-07
8.47354e-08
2.62526e-07
-7.59639e-07
9.75975e-08
3.01605e-07
-7.62273e-07
1.11414e-07
3.26324e-07
-7.46577e-07
1.26385e-07
3.33307e-07
-7.17407e-07
1.42329e-07
3.20435e-07
-6.79598e-07
1.5869e-07
2.87179e-07
-6.38067e-07
1.74646e-07
2.34671e-07
-5.97584e-07
1.89212e-07
1.65801e-07
-5.62582e-07
2.01325e-07
8.50323e-08
-5.36852e-07
2.10016e-07
-2.01539e-09
-5.23151e-07
2.14586e-07
-8.91125e-08
-5.22904e-07
2.14647e-07
-1.70025e-07
-5.36099e-07
2.10202e-07
-2.39138e-07
-5.61264e-07
2.01639e-07
-2.91993e-07
-5.95627e-07
1.89698e-07
-3.25687e-07
-6.35379e-07
1.75342e-07
-3.39056e-07
-6.76014e-07
1.59624e-07
-3.32632e-07
-7.12747e-07
1.43586e-07
-3.08447e-07
-7.40675e-07
1.28043e-07
-2.69792e-07
-7.5494e-07
1.13553e-07
-2.20821e-07
-7.50736e-07
1.00293e-07
-1.66257e-07
-7.23047e-07
8.80168e-08
-1.11117e-07
-6.66083e-07
7.5977e-08
-6.06087e-08
-5.71882e-07
6.26514e-08
-2.0572e-08
-4.26752e-07
4.55367e-08
-1.99958e-07
2.0583e-08
2.13028e-08
-2.48422e-07
2.13176e-08
6.34544e-08
-5.26723e-07
4.74688e-08
1.17142e-07
-7.03281e-07
6.57708e-08
1.76324e-07
-8.1739e-07
8.05365e-08
2.35334e-07
-8.86846e-07
9.43557e-08
2.88682e-07
-9.21746e-07
1.08759e-07
3.31154e-07
-9.29283e-07
1.24538e-07
3.5806e-07
-9.15385e-07
1.41901e-07
3.65734e-07
-8.85648e-07
1.60566e-07
3.51784e-07
-8.45528e-07
1.7988e-07
3.15477e-07
-8.00573e-07
1.98814e-07
2.57994e-07
-7.56244e-07
2.16143e-07
1.8246e-07
-7.17632e-07
2.30584e-07
9.37669e-08
-6.89125e-07
2.40966e-07
-1.86777e-09
-6.73912e-07
2.46396e-07
-9.75338e-08
-6.73682e-07
2.46444e-07
-1.8632e-07
-6.88426e-07
2.41114e-07
-2.62006e-07
-7.16423e-07
2.30844e-07
-3.19684e-07
-7.54467e-07
2.16519e-07
-3.56242e-07
-7.9816e-07
1.99338e-07
-3.70472e-07
-8.42385e-07
1.80602e-07
-3.63075e-07
-8.81667e-07
1.61522e-07
-3.36378e-07
-9.10483e-07
1.43111e-07
-2.94008e-07
-9.23361e-07
1.26051e-07
-2.40524e-07
-9.14818e-07
1.10598e-07
-1.81048e-07
-8.79043e-07
9.6521e-08
-1.21022e-07
-8.09057e-07
8.2947e-08
-6.60433e-08
-6.95079e-07
6.82181e-08
-2.24393e-08
-5.19934e-07
4.95786e-08
-2.44849e-07
2.24515e-08
2.34784e-08
-2.95394e-07
2.3493e-08
6.93095e-08
-6.24477e-07
5.19225e-08
1.27351e-07
-8.33014e-07
7.16918e-08
1.91098e-07
-9.68842e-07
8.77036e-08
2.5462e-07
-1.0533e-06
1.02932e-07
3.12138e-07
-1.09842e-06
1.19157e-07
3.58085e-07
-1.11249e-06
1.37261e-07
3.87454e-07
-1.1022e-06
1.57442e-07
3.96185e-07
-1.07372e-06
1.79341e-07
3.81557e-07
-1.03305e-06
2.02151e-07
3.42633e-07
-9.86263e-07
2.24613e-07
2.80572e-07
-9.39439e-07
2.45255e-07
1.98685e-07
-8.98237e-07
2.62492e-07
1.02307e-07
-8.67641e-07
2.74894e-07
-1.72448e-09
-8.51249e-07
2.81368e-07
-1.05771e-07
-8.51037e-07
2.81401e-07
-2.02198e-07
-8.66982e-07
2.74984e-07
-2.84146e-07
-8.97142e-07
2.62668e-07
-3.46304e-07
-9.37845e-07
2.45536e-07
-3.85349e-07
-9.84134e-07
2.25019e-07
-4.00073e-07
-1.03034e-06
2.02675e-07
-3.9143e-07
-1.07033e-06
1.80025e-07
-3.62093e-07
-1.09813e-06
1.5831e-07
-3.1606e-07
-1.10772e-06
1.38323e-07
-2.58294e-07
-1.093e-06
1.20416e-07
-1.94305e-07
-1.04739e-06
1.04361e-07
-1.29847e-07
-9.62752e-07
8.92368e-08
-7.08798e-08
-8.27243e-07
7.31969e-08
-2.41186e-08
-6.19867e-07
5.31711e-08
-2.93099e-07
2.41318e-08
2.5075e-08
-3.45559e-07
2.50903e-08
7.37032e-08
-7.28306e-07
5.52007e-08
1.35155e-07
-9.70602e-07
7.61367e-08
2.02608e-07
-1.12962e-06
9.33288e-08
2.69954e-07
-1.23072e-06
1.10071e-07
3.31154e-07
-1.28792e-06
1.28302e-07
3.80379e-07
-1.31069e-06
1.48978e-07
4.123e-07
-1.30646e-06
1.72345e-07
4.22416e-07
-1.28178e-06
1.97945e-07
4.07678e-07
-1.24312e-06
2.24806e-07
3.66867e-07
-1.19689e-06
2.51435e-07
3.00972e-07
-1.14958e-06
2.76031e-07
2.13505e-07
-1.10741e-06
2.96646e-07
1.10151e-07
-1.0758e-06
3.11511e-07
-1.59184e-09
-1.05879e-06
3.19284e-07
-1.13338e-07
-1.0586e-06
3.19308e-07
-2.16691e-07
-1.07522e-06
3.11589e-07
-3.04193e-07
-1.10642e-06
2.96783e-07
-3.70091e-07
-1.14816e-06
2.76217e-07
-4.10912e-07
-1.19501e-06
2.51696e-07
-4.25652e-07
-1.24074e-06
2.25149e-07
-4.15487e-07
-1.27891e-06
1.98414e-07
-3.83485e-07
-1.30308e-06
1.72951e-07
-3.34081e-07
-1.30683e-06
1.49715e-07
-2.72594e-07
-1.28365e-06
1.29159e-07
-2.0482e-07
-1.22619e-06
1.11024e-07
-1.36805e-07
-1.12509e-06
9.43229e-08
-7.471e-08
-9.66421e-07
7.70825e-08
-2.54528e-08
-7.25088e-07
5.59638e-08
-3.44018e-07
2.54664e-08
2.60176e-08
-3.97612e-07
2.60352e-08
7.62703e-08
-8.3565e-07
5.70915e-08
1.39709e-07
-1.1128e-06
7.87555e-08
2.09478e-07
-1.29627e-06
9.68727e-08
2.79362e-07
-1.4156e-06
1.15002e-07
3.43282e-07
-1.48709e-06
1.35247e-07
3.95224e-07
-1.52125e-06
1.58613e-07
4.29546e-07
-1.52617e-06
1.8539e-07
4.41401e-07
-1.5087e-06
2.15067e-07
4.27287e-07
-1.4755e-06
2.46495e-07
3.85611e-07
-1.43314e-06
2.77934e-07
3.17182e-07
-1.38829e-06
3.07148e-07
2.25498e-07
-1.3475e-06
3.31773e-07
1.1658e-07
-1.31649e-06
3.4961e-07
-1.47654e-09
-1.2997e-06
3.58971e-07
-1.19527e-07
-1.29953e-06
3.58982e-07
-2.28433e-07
-1.31596e-06
3.49644e-07
-3.20083e-07
-1.34661e-06
3.31834e-07
-3.88442e-07
-1.38704e-06
3.07233e-07
-4.30056e-07
-1.43147e-06
2.78079e-07
-4.44096e-07
-1.47344e-06
2.46739e-07
-4.32139e-07
-1.50628e-06
2.1541e-07
-3.97668e-07
-1.52335e-06
1.858e-07
-3.45524e-07
-1.51809e-06
1.59114e-07
-2.81291e-07
-1.48368e-06
1.35805e-07
-2.1103e-07
-1.41208e-06
1.15624e-07
-1.40836e-07
-1.29281e-06
9.75231e-08
-7.69027e-08
-1.10972e-06
7.93623e-08
-2.62525e-08
-8.33309e-07
5.75711e-08
-3.96538e-07
2.62667e-08
2.61056e-08
-4.49831e-07
2.61133e-08
7.63521e-08
-9.4299e-07
5.7094e-08
1.39829e-07
-1.25509e-06
7.88188e-08
2.09836e-07
-1.46372e-06
9.74505e-08
2.80395e-07
-1.60283e-06
1.16671e-07
3.4548e-07
-1.69087e-06
1.38696e-07
3.99063e-07
-1.73951e-06
1.64676e-07
4.35326e-07
-1.7573e-06
1.94864e-07
4.49129e-07
-1.75126e-06
2.28756e-07
4.36529e-07
-1.72793e-06
2.65025e-07
3.95483e-07
-1.69375e-06
3.01654e-07
3.26447e-07
-1.65534e-06
3.36086e-07
2.32737e-07
-1.61921e-06
3.65414e-07
1.20608e-07
-1.59118e-06
3.86817e-07
-1.37688e-09
-1.57583e-06
3.9811e-07
-1.23347e-07
-1.57567e-06
3.98111e-07
-2.35423e-07
-1.5907e-06
3.86824e-07
-3.29062e-07
-1.6184e-06
3.6543e-07
-3.98016e-07
-1.65423e-06
3.36144e-07
-4.3896e-07
-1.69229e-06
3.01756e-07
-4.51415e-07
-1.72612e-06
2.65132e-07
-4.37458e-07
-1.74918e-06
2.28939e-07
-4.00999e-07
-1.75494e-06
1.95131e-07
-3.47192e-07
-1.73691e-06
1.65006e-07
-2.81846e-07
-1.68813e-06
1.39097e-07
-2.10985e-07
-1.60005e-06
1.17115e-07
-1.4061e-07
-1.46106e-06
9.78794e-08
-7.67849e-08
-1.25276e-06
7.92164e-08
-2.62471e-08
-9.41249e-07
5.74024e-08
-4.49046e-07
2.62609e-08
2.50707e-08
-4.99982e-07
2.50805e-08
7.31802e-08
-1.04575e-06
5.46532e-08
1.34104e-07
-1.39161e-06
7.55947e-08
2.01603e-07
-1.62529e-06
9.40698e-08
2.70151e-07
-1.7852e-06
1.13817e-07
3.34098e-07
-1.89193e-06
1.37109e-07
3.87625e-07
-1.95818e-06
1.65142e-07
4.24939e-07
-1.99284e-06
1.98221e-07
4.40727e-07
-2.00292e-06
2.35869e-07
4.30623e-07
-1.99457e-06
2.7675e-07
3.92068e-07
-1.9738e-06
3.18597e-07
3.25073e-07
-1.94675e-06
3.58402e-07
2.32608e-07
-1.9194e-06
3.92653e-07
1.20863e-07
-1.89738e-06
4.1795e-07
-1.29342e-09
-1.88508e-06
4.31402e-07
-1.23428e-07
-1.88493e-06
4.31395e-07
-2.35119e-07
-1.89695e-06
4.17935e-07
-3.27489e-07
-1.91866e-06
3.92633e-07
-3.94367e-07
-1.94572e-06
3.58369e-07
-4.32748e-07
-1.9725e-06
3.18596e-07
-4.42658e-07
-1.99303e-06
2.76825e-07
-4.26708e-07
-2.00113e-06
2.36005e-07
-3.89206e-07
-1.99083e-06
1.9838e-07
-3.35425e-07
-1.95604e-06
1.65351e-07
-2.71243e-07
-1.88967e-06
1.37359e-07
-2.02412e-07
-1.78298e-06
1.14094e-07
-1.3466e-07
-1.62316e-06
9.43483e-08
-7.34942e-08
-1.38978e-06
7.58533e-08
-2.5165e-08
-1.04443e-06
5.48552e-08
-4.99389e-07
2.51785e-08
2.26424e-08
-5.45274e-07
2.26492e-08
6.60319e-08
-1.13833e-06
4.91864e-08
1.21075e-07
-1.51487e-06
6.82143e-08
1.82532e-07
-1.77237e-06
8.56175e-08
2.45615e-07
-1.95327e-06
1.04989e-07
3.05339e-07
-2.08021e-06
1.28559e-07
3.56397e-07
-2.16679e-06
1.57557e-07
3.93287e-07
-2.22215e-06
1.92424e-07
4.10678e-07
-2.25301e-06
2.32702e-07
4.03997e-07
-2.2649e-06
2.77014e-07
3.70246e-07
-2.26302e-06
3.22971e-07
3.0873e-07
-2.25258e-06
3.67348e-07
2.2192e-07
-2.23868e-06
4.06091e-07
1.15666e-07
-2.22615e-06
4.35019e-07
-1.22033e-09
-2.21873e-06
4.50539e-07
-1.18079e-07
-2.2186e-06
4.50529e-07
-2.24257e-07
-2.22576e-06
4.34994e-07
-3.10939e-07
-2.23804e-06
4.06057e-07
-3.72324e-07
-2.25167e-06
3.67335e-07
-4.05912e-07
-2.2619e-06
3.22985e-07
-4.12437e-07
-2.26353e-06
2.77024e-07
-3.94846e-07
-2.25147e-06
2.32748e-07
-3.57715e-07
-2.22046e-06
1.92507e-07
-3.06467e-07
-2.16496e-06
1.57678e-07
-2.46497e-07
-2.07835e-06
1.28711e-07
-1.83194e-07
-1.95144e-06
1.05164e-07
-1.21484e-07
-1.77067e-06
8.57976e-08
-6.62225e-08
-1.51342e-06
6.83836e-08
-2.27041e-08
-1.13727e-06
4.93215e-08
-5.4481e-07
2.27168e-08
1.85789e-08
-5.82442e-07
1.85891e-08
5.41274e-08
-1.21407e-06
4.01907e-08
9.95385e-08
-1.61627e-06
5.59961e-08
1.5077e-07
-1.89476e-06
7.11644e-08
2.04241e-07
-2.09565e-06
8.89084e-08
2.5589e-07
-2.24318e-06
1.11318e-07
3.01296e-07
-2.35173e-06
1.39536e-07
3.35582e-07
-2.43051e-06
1.74069e-07
3.53754e-07
-2.4858e-06
2.14616e-07
3.51226e-07
-2.52231e-06
2.5994e-07
3.24632e-07
-2.54412e-06
3.07695e-07
2.72713e-07
-2.55505e-06
3.54382e-07
1.97172e-07
-2.55878e-06
3.95647e-07
1.03127e-07
-2.55891e-06
4.26805e-07
-1.15625e-09
-2.55807e-06
4.43623e-07
-1.05415e-07
-2.55799e-06
4.43643e-07
-1.99399e-07
-2.55858e-06
4.268e-07
-2.74798e-07
-2.55824e-06
3.95598e-07
-3.26553e-07
-2.55424e-06
3.54324e-07
-3.52967e-07
-2.54313e-06
3.07648e-07
-3.55295e-07
-2.52111e-06
2.59908e-07
-3.3692e-07
-2.48446e-06
2.1461e-07
-3.02422e-07
-2.42906e-06
1.74095e-07
-2.56805e-07
-2.35017e-06
1.39591e-07
-2.04928e-07
-2.24163e-06
1.11401e-07
-1.51268e-07
-2.09411e-06
8.90099e-08
-9.9846e-08
-1.89336e-06
7.12747e-08
-5.42763e-08
-1.61509e-06
5.61021e-08
-1.86257e-08
-1.2132e-06
4.02793e-08
-5.82073e-07
1.86375e-08
1.27471e-08
-6.07932e-07
1.2743e-08
3.71511e-08
-1.26586e-06
2.7383e-08
6.87702e-08
-1.68636e-06
3.84703e-08
1.05258e-07
-1.98131e-06
5.00609e-08
1.44395e-07
-2.19942e-06
6.46326e-08
1.83587e-07
-2.36628e-06
8.39124e-08
2.19551e-07
-2.49673e-06
1.09036e-07
2.48482e-07
-2.59987e-06
1.40429e-07
2.66086e-07
-2.68136e-06
1.77952e-07
2.68091e-07
-2.74487e-06
2.20547e-07
2.51109e-07
-2.79317e-06
2.66035e-07
2.13285e-07
-2.82839e-06
3.11167e-07
1.55525e-07
-2.85256e-06
3.51539e-07
8.17179e-08
-2.86745e-06
3.82353e-07
-1.09832e-09
-2.87444e-06
3.99186e-07
-8.38868e-08
-2.87437e-06
3.99174e-07
-1.57614e-07
-2.86716e-06
3.82309e-07
-2.1524e-07
-2.85208e-06
3.51474e-07
-2.52885e-07
-2.82772e-06
3.11129e-07
-2.69697e-07
-2.79231e-06
2.65989e-07
-2.67468e-07
-2.74382e-06
2.20482e-07
-2.49657e-07
-2.68018e-06
1.77908e-07
-2.20537e-07
-2.59859e-06
1.40413e-07
-1.84349e-07
-2.4954e-06
1.09044e-07
-1.44996e-07
-2.36492e-06
8.39428e-08
-1.05658e-07
-2.19814e-06
6.46832e-08
-6.90099e-08
-1.98014e-06
5.01233e-08
-3.72836e-08
-1.68536e-06
3.85383e-08
-1.27681e-08
-1.26516e-06
2.74439e-08
-6.0762e-07
1.2779e-08
5.1583e-09
-6.18247e-07
5.15656e-09
1.51964e-08
-1.28675e-06
1.08599e-08
2.89338e-08
-1.71591e-06
1.58052e-08
4.61054e-08
-2.02083e-06
2.23478e-08
6.62187e-08
-2.25158e-06
3.20444e-08
8.83475e-08
-2.43445e-06
4.6037e-08
1.10814e-07
-2.58439e-06
6.51943e-08
1.31237e-07
-2.71029e-06
9.00047e-08
1.46466e-07
-2.81695e-06
1.20367e-07
1.53138e-07
-2.9071e-06
1.55564e-07
1.47984e-07
-2.9819e-06
1.93885e-07
1.28894e-07
-3.04176e-06
2.32466e-07
9.56645e-08
-3.08672e-06
2.67382e-07
5.0668e-08
-3.11674e-06
2.94282e-07
-1.04318e-09
-3.13174e-06
3.09012e-07
-5.27184e-08
-3.13165e-06
3.08952e-07
-9.76017e-08
-3.11646e-06
2.94185e-07
-1.3072e-07
-3.08626e-06
2.67295e-07
-1.49664e-07
-3.04111e-06
2.32328e-07
-1.54622e-07
-2.98109e-06
1.93741e-07
-1.47752e-07
-2.90616e-06
1.55469e-07
-1.32297e-07
-2.81592e-06
1.20291e-07
-1.11692e-07
-2.70914e-06
8.99489e-08
-8.90125e-08
-2.58325e-06
6.51646e-08
-6.67009e-08
-2.43327e-06
4.60301e-08
-4.64416e-08
-2.25045e-06
3.20553e-08
-2.91279e-08
-2.01983e-06
2.23754e-08
-1.52573e-08
-1.71507e-06
1.58439e-08
-5.17517e-09
-1.28615e-06
1.09009e-08
-6.17981e-07
5.18546e-09
-3.96339e-09
-6.10319e-07
-3.9643e-09
-1.11088e-08
-1.27066e-06
-8.951e-09
-1.87289e-08
-1.69685e-06
-1.14405e-08
-2.48738e-08
-2.00345e-06
-1.12323e-08
-2.7998e-08
-2.24044e-06
-8.01197e-09
-2.71595e-08
-2.43385e-06
-1.43702e-09
-2.20146e-08
-2.59848e-06
8.93983e-09
-1.3212e-08
-2.74262e-06
2.35249e-08
-2.17806e-09
-2.87047e-06
4.2483e-08
8.86958e-09
-2.98361e-06
6.54626e-08
1.7355e-08
-3.08171e-06
9.13206e-08
2.10249e-08
-3.16347e-06
1.18039e-07
1.86368e-08
-3.22708e-06
1.42755e-07
1.057e-08
-3.27077e-06
1.62099e-07
-9.7974e-10
-3.29302e-06
1.72828e-07
-1.25028e-08
-3.29293e-06
1.728e-07
-2.0504e-08
-3.27049e-06
1.62029e-07
-2.27329e-08
-3.22668e-06
1.42654e-07
-1.89008e-08
-3.16285e-06
1.17917e-07
-1.02287e-08
-3.08096e-06
9.11955e-08
1.01154e-09
-2.98275e-06
6.53457e-08
1.22219e-08
-2.86951e-06
4.23835e-08
2.12363e-08
-2.7416e-06
2.34463e-08
2.65448e-08
-2.59744e-06
8.88505e-09
2.7556e-08
-2.43281e-06
-1.46919e-09
2.46004e-08
-2.23947e-06
-8.02412e-09
1.85827e-08
-2.00258e-06
-1.12263e-08
1.10317e-08
-1.6961e-06
-1.14215e-08
3.95138e-09
-1.27014e-06
-8.92361e-09
-6.10088e-07
-3.94125e-09
-1.41104e-08
-5.82095e-07
-1.41137e-08
-4.03272e-08
-1.21354e-06
-3.09016e-08
-7.17809e-08
-1.62372e-06
-4.16711e-08
-1.0405e-07
-1.92236e-06
-4.88273e-08
-1.33554e-07
-2.1574e-06
-5.35359e-08
-1.57228e-07
-2.35392e-06
-5.6256e-08
-1.72572e-07
-2.52609e-06
-5.70484e-08
-1.78017e-07
-2.68149e-06
-5.56894e-08
-1.72958e-07
-2.82367e-06
-5.18551e-08
-1.57996e-07
-2.95308e-06
-4.54972e-08
-1.34662e-07
-3.06822e-06
-3.68213e-08
-1.05192e-07
-3.16636e-06
-2.65861e-08
-7.18852e-08
-3.24409e-06
-1.62957e-08
-3.67196e-08
-3.29819e-06
-7.75036e-09
-9.09003e-10
-3.32595e-06
-2.88091e-09
3.49377e-08
-3.32586e-06
-2.90977e-09
7.01982e-08
-3.29797e-06
-7.78454e-09
1.036e-07
-3.24372e-06
-1.63656e-08
1.33227e-07
-3.16577e-06
-2.6715e-08
1.56737e-07
-3.06752e-06
-3.69535e-08
1.71878e-07
-2.95227e-06
-4.56231e-08
1.77099e-07
-2.82277e-06
-5.19651e-08
1.71857e-07
-2.68058e-06
-5.57777e-08
1.56664e-07
-2.52513e-06
-5.71173e-08
1.33168e-07
-2.35301e-06
-5.63017e-08
1.03791e-07
-2.15653e-06
-5.35601e-08
7.16402e-08
-1.9216e-06
-4.88342e-08
4.02828e-08
-1.62308e-06
-4.16617e-08
1.41027e-08
-1.21308e-06
-3.08795e-08
-5.81894e-07
-1.40919e-08
-2.45848e-08
-5.32924e-07
-2.45865e-08
-7.04391e-08
-1.1142e-06
-5.34833e-08
-1.26472e-07
-1.4948e-06
-7.28869e-08
-1.8599e-07
-1.77497e-06
-8.78682e-08
-2.43329e-07
-1.99886e-06
-1.01201e-07
-2.93216e-07
-2.18964e-06
-1.14391e-07
-3.30917e-07
-2.36037e-06
-1.28019e-07
-3.52377e-07
-2.51799e-06
-1.42031e-07
-3.54749e-07
-2.66525e-06
-1.56056e-07
-3.36608e-07
-2.80185e-06
-1.69364e-07
-2.9823e-07
-2.92545e-06
-1.81145e-07
-2.41591e-07
-3.03216e-06
-1.90834e-07
-1.70034e-07
-3.11765e-06
-1.97997e-07
-8.80766e-08
-3.17758e-06
-2.0256e-07
-8.26408e-10
-3.20848e-06
-2.04715e-07
8.64443e-08
-3.20839e-06
-2.0474e-07
1.68474e-07
-3.17733e-06
-2.02671e-07
2.40118e-07
-3.11723e-06
-1.98136e-07
2.96937e-07
-3.03164e-06
-1.9095e-07
3.35444e-07
-2.92476e-06
-1.81263e-07
3.53727e-07
-2.80108e-06
-1.69475e-07
3.5154e-07
-2.66443e-06
-1.56157e-07
3.30212e-07
-2.51714e-06
-1.42116e-07
2.92689e-07
-2.35952e-06
-1.28085e-07
2.42936e-07
-2.18882e-06
-1.14438e-07
1.85734e-07
-1.9981e-06
-1.01232e-07
1.26342e-07
-1.77434e-06
-8.78596e-08
7.03762e-08
-1.49426e-06
-7.28613e-08
2.45773e-08
-1.11382e-06
-5.34655e-08
-5.3275e-07
-2.45664e-08
-3.44249e-08
-4.64072e-07
-3.44266e-08
-9.87075e-08
-9.7529e-07
-7.46284e-08
-1.78051e-07
-1.31337e-06
-1.02085e-07
-2.63702e-07
-1.56471e-06
-1.24612e-07
-3.4818e-07
-1.76781e-06
-1.46571e-07
-4.24122e-07
-1.94327e-06
-1.70431e-07
-4.84391e-07
-2.10273e-06
-1.97368e-07
-5.22506e-07
-2.25227e-06
-2.27609e-07
-5.33186e-07
-2.39406e-06
-2.60503e-07
-5.12882e-07
-2.52741e-06
-2.94745e-07
-4.60442e-07
-2.64935e-06
-3.28546e-07
-3.77282e-07
-2.75567e-06
-3.59654e-07
-2.67934e-07
-2.84136e-06
-3.8564e-07
-1.39409e-07
-2.90172e-06
-4.04394e-07
-7.26376e-10
-2.93289e-06
-4.14277e-07
1.37975e-07
-2.9328e-06
-4.14295e-07
2.66548e-07
-2.90146e-06
-4.04443e-07
3.76004e-07
-2.84097e-06
-3.85711e-07
4.59204e-07
-2.7551e-06
-3.59737e-07
5.11811e-07
-2.64873e-06
-3.28636e-07
5.32251e-07
-2.52669e-06
-2.94825e-07
5.21726e-07
-2.39332e-06
-2.6058e-07
4.83755e-07
-2.25149e-06
-2.27677e-07
4.23618e-07
-2.10197e-06
-1.97421e-07
3.47833e-07
-1.94256e-06
-1.70471e-07
2.63492e-07
-1.76716e-06
-1.46597e-07
1.77926e-07
-1.56413e-06
-1.24646e-07
9.86601e-08
-1.31289e-06
-1.02096e-07
3.44182e-08
-9.74966e-07
-7.46102e-08
-4.63926e-07
-3.44058e-08
-4.24797e-08
-3.79117e-07
-4.24751e-08
-1.21999e-07
-8.03867e-07
-9.19037e-08
-2.21015e-07
-1.08836e-06
-1.25995e-07
-3.29286e-07
-1.30155e-06
-1.54884e-07
-4.3777e-07
-1.47493e-06
-1.84394e-07
-5.37251e-07
-1.62586e-06
-2.17929e-07
-6.18438e-07
-1.76435e-06
-2.57187e-07
-6.72505e-07
-1.8956e-06
-3.02606e-07
-6.91757e-07
-2.0214e-06
-3.53411e-07
-6.70561e-07
-2.14084e-06
-4.07774e-07
-6.06244e-07
-2.25092e-06
-4.62741e-07
-4.9986e-07
-2.34749e-06
-5.1456e-07
-3.56638e-07
-2.42569e-06
-5.58896e-07
-1.85967e-07
-2.48092e-06
-5.91467e-07
-6.16895e-10
-2.50952e-06
-6.08714e-07
1.84742e-07
-2.50944e-06
-6.08719e-07
3.55444e-07
-2.48068e-06
-5.91482e-07
4.98703e-07
-2.42531e-06
-5.58924e-07
6.05179e-07
-2.34699e-06
-5.14587e-07
6.69587e-07
-2.25036e-06
-4.62779e-07
6.90892e-07
-2.14019e-06
-4.07804e-07
6.71742e-07
-2.02073e-06
-3.53443e-07
6.17842e-07
-1.89496e-06
-3.02636e-07
5.36763e-07
-1.76368e-06
-2.57211e-07
4.37416e-07
-1.62526e-06
-2.1795e-07
3.29043e-07
-1.47438e-06
-1.84408e-07
2.20877e-07
-1.30108e-06
-1.54887e-07
1.21956e-07
-1.08799e-06
-1.25984e-07
4.24667e-08
-8.03595e-07
-9.18821e-08
-3.79005e-07
-4.24543e-08
-4.74865e-08
-2.84141e-07
-4.74895e-08
-1.36944e-07
-6.1183e-07
-1.02579e-07
-2.49512e-07
-8.35025e-07
-1.4077e-07
-3.74336e-07
-1.00293e-06
-1.73795e-07
-5.01242e-07
-1.13944e-06
-2.0859e-07
-6.19492e-07
-1.25826e-06
-2.4935e-07
-7.17974e-07
-1.36761e-06
-2.9826e-07
-7.85716e-07
-1.47194e-06
-3.55913e-07
-8.1307e-07
-1.57261e-06
-4.21438e-07
-7.92506e-07
-1.66887e-06
-4.9253e-07
-7.19985e-07
-1.75811e-06
-5.6533e-07
-5.96035e-07
-1.83675e-06
-6.3469e-07
-4.26536e-07
-1.90068e-06
-6.94509e-07
-2.22749e-07
-1.94592e-06
-7.3879e-07
-4.99491e-10
-1.96936e-06
-7.62414e-07
2.21753e-07
-1.96929e-06
-7.62404e-07
4.25549e-07
-1.94571e-06
-7.38766e-07
5.95086e-07
-1.90039e-06
-6.94459e-07
7.19067e-07
-1.83637e-06
-6.346e-07
7.91613e-07
-1.75764e-06
-5.65266e-07
8.12257e-07
-1.66833e-06
-4.92502e-07
7.8503e-07
-1.57208e-06
-4.21422e-07
7.17367e-07
-1.47139e-06
-3.55906e-07
6.19044e-07
-1.3671e-06
-2.98255e-07
5.00908e-07
-1.25778e-06
-2.49351e-07
3.74108e-07
-1.13899e-06
-2.08586e-07
2.49393e-07
-1.00258e-06
-1.7379e-07
1.36886e-07
-8.34727e-07
-1.40754e-07
4.74807e-08
-6.11635e-07
-1.02555e-07
-2.84057e-07
-4.7468e-08
-4.81969e-08
-1.8775e-07
-4.81947e-08
-1.40223e-07
-4.15871e-07
-1.03934e-07
-2.58095e-07
-5.74674e-07
-1.42479e-07
-3.91114e-07
-6.93687e-07
-1.76227e-07
-5.2853e-07
-7.89272e-07
-2.1275e-07
-6.58513e-07
-8.71529e-07
-2.56749e-07
-7.68535e-07
-9.4682e-07
-3.1077e-07
-8.46248e-07
-1.01865e-06
-3.75575e-07
-8.80371e-07
-1.08827e-06
-4.50211e-07
-8.62066e-07
-1.15514e-06
-5.32031e-07
-7.86229e-07
-1.21743e-06
-6.16522e-07
-6.52943e-07
-1.27248e-06
-6.97562e-07
-4.68323e-07
-1.31734e-06
-7.67956e-07
-2.44849e-07
-1.34911e-06
-8.20281e-07
-3.8513e-10
-1.36559e-06
-8.48238e-07
2.44072e-07
-1.36553e-06
-8.48214e-07
4.67533e-07
-1.34895e-06
-8.20217e-07
6.52139e-07
-1.31709e-06
-7.67903e-07
7.85442e-07
-1.27216e-06
-6.97511e-07
8.61285e-07
-1.21705e-06
-6.16438e-07
8.79648e-07
-1.15475e-06
-5.31947e-07
8.45575e-07
-1.08786e-06
-4.50147e-07
7.67978e-07
-1.01826e-06
-3.75527e-07
6.58058e-07
-9.4644e-07
-3.10738e-07
5.28192e-07
-8.71182e-07
-2.56728e-07
3.90895e-07
-7.88965e-07
-2.12733e-07
2.57971e-07
-6.93436e-07
-1.76215e-07
1.40176e-07
-5.74474e-07
-1.42458e-07
4.81863e-08
-4.15736e-07
-1.03909e-07
-1.87696e-07
-4.81742e-08
-4.34945e-08
-1.00763e-07
-4.34921e-08
-1.29262e-07
-2.36583e-07
-9.35208e-08
-2.42523e-07
-3.33847e-07
-1.27566e-07
-3.73563e-07
-4.05225e-07
-1.57422e-07
-5.11523e-07
-4.6052e-07