/*--------------------------------*- C++ -*----------------------------------*\
| =========                 |                                                 |
| \\      /  F ield         | OpenFOAM: The Open Source CFD Toolbox           |
|  \\    /   O peration     | Version:  v1906                                 |
|   \\  /    A nd           | Web:      www.OpenFOAM.com                      |
|    \\/     M anipulation  |                                                 |
\*---------------------------------------------------------------------------*/
FoamFile
{
    version     2.0;
    format      ascii;
    class       volScalarField;
    location    "72";
    object      k;
}
// * * * * * * * * * * * * * * * * * * * * * * * * * * * * * * * * * * * * * //

dimensions      [0 2 -2 0 0 0 0];


internalField   nonuniform List<scalar> 
78750
(
2.63678e-06
9.31744e-06
1.43698e-05
1.88501e-05
2.29992e-05
2.67581e-05
3.00577e-05
3.28762e-05
3.52311e-05
3.71559e-05
3.86854e-05
3.98496e-05
4.06746e-05
4.11838e-05
4.14002e-05
4.13455e-05
4.10272e-05
4.04627e-05
3.9669e-05
3.86626e-05
3.74563e-05
3.608e-05
3.45095e-05
3.2754e-05
3.08192e-05
2.87057e-05
2.64109e-05
2.39283e-05
2.12412e-05
1.83195e-05
1.51191e-05
1.16066e-05
7.92644e-06
4.63006e-06
2.53669e-06
1.6545e-06
1.61139e-05
3.00579e-05
4.33948e-05
5.55435e-05
6.60387e-05
7.47784e-05
8.18912e-05
8.75415e-05
9.18599e-05
9.49535e-05
9.6923e-05
9.78699e-05
9.78966e-05
9.71114e-05
9.56365e-05
9.35812e-05
9.10166e-05
8.80234e-05
8.46786e-05
8.10536e-05
7.72105e-05
7.31714e-05
6.89811e-05
6.46673e-05
6.02392e-05
5.56932e-05
5.10287e-05
4.62163e-05
4.11066e-05
3.54149e-05
2.88915e-05
2.19747e-05
1.63279e-05
1.39142e-05
1.78353e-06
1.87659e-05
3.50634e-05
5.05039e-05
6.45151e-05
7.65776e-05
8.64304e-05
9.41223e-05
9.99677e-05
0.000104311
0.00010735
0.000109205
0.00011
0.000109844
0.000108823
0.000107028
0.000104562
0.000101537
9.80725e-05
9.42864e-05
9.0296e-05
8.62065e-05
8.20935e-05
7.79955e-05
7.39092e-05
6.97972e-05
6.55982e-05
6.12281e-05
5.65577e-05
5.13574e-05
4.52875e-05
3.81906e-05
3.091e-05
2.49542e-05
2.19763e-05
3.62878e-06
2.65255e-05
4.8071e-05
6.75164e-05
8.3993e-05
9.7107e-05
0.00010705
0.000114356
0.000119568
0.00012308
0.000125147
0.000125937
0.000125568
0.000124137
0.00012174
0.000118496
0.000114543
0.000110037
0.00010515
0.000100064
9.49704e-05
9.00556e-05
8.54669e-05
8.12652e-05
7.74088e-05
7.3778e-05
7.02079e-05
6.65045e-05
6.2429e-05
5.76605e-05
5.18342e-05
4.49037e-05
3.79364e-05
3.19929e-05
2.8286e-05
5.44722e-06
3.33404e-05
5.89869e-05
8.11373e-05
9.87583e-05
0.000111818
0.0001211
0.000127593
0.000132038
0.000134782
0.000136
0.000135851
0.00013443
0.000131803
0.000128071
0.00012338
0.00011792
0.00011191
0.00010559
9.92229e-05
9.30918e-05
8.74914e-05
8.26514e-05
7.86413e-05
7.53732e-05
7.26483e-05
7.01957e-05
6.76969e-05
6.47884e-05
6.10479e-05
5.6073e-05
4.98759e-05
4.35389e-05
3.7674e-05
3.30368e-05
7.72345e-06
4.01356e-05
6.93541e-05
9.37229e-05
0.000112215
0.000125323
0.000134401
0.00014069
0.000144869
0.000147228
0.000147962
0.000147156
0.000144845
0.000141096
0.000136039
0.000129869
0.000122828
0.000115199
0.000107289
9.94367e-05
9.20209e-05
8.5442e-05
7.99869e-05
7.57207e-05
7.25471e-05
7.02587e-05
6.85531e-05
6.70456e-05
6.52751e-05
6.27111e-05
5.88581e-05
5.36572e-05
4.79912e-05
4.21469e-05
3.6591e-05
9.62949e-06
4.54669e-05
7.73927e-05
0.000103455
0.000122658
0.000135921
0.000144973
0.000151159
0.000155128
0.000157184
0.000157477
0.000156035
0.000152882
0.000148099
0.000141854
0.000134386
0.000125994
0.000117015
0.000107817
9.88094e-05
9.04641e-05
8.32597e-05
7.74398e-05
7.30057e-05
6.98539e-05
6.78041e-05
6.65832e-05
6.58107e-05
6.49877e-05
6.35044e-05
6.07592e-05
5.65642e-05
5.15213e-05
4.57262e-05
3.9627e-05
1.15554e-05
5.06901e-05
8.5223e-05
0.000112943
0.000132912
0.000146446
0.000155594
0.000161751
0.000165605
0.000167446
0.000167361
0.000165357
0.000161456
0.000155759
0.000148466
0.000139861
0.000130285
0.000120122
0.000109795
9.97821e-05
9.06442e-05
8.28909e-05
7.6665e-05
7.19062e-05
6.85122e-05
6.63476e-05
6.52078e-05
6.47728e-05
6.4563e-05
6.39243e-05
6.21418e-05
5.88509e-05
5.43763e-05
4.8713e-05
4.24587e-05
1.31357e-05
5.49375e-05
9.16323e-05
0.000120818
0.000141575
0.000155495
0.000164844
0.000171087
0.000174905
0.000176568
0.000176144
0.00017363
0.000169054
0.000162542
0.000154328
0.000144736
0.000134147
0.000122992
0.000111745
0.000100963
9.13054e-05
8.32622e-05
7.68313e-05
7.18816e-05
6.82928e-05
6.5955e-05
6.47281e-05
6.43754e-05
6.44828e-05
6.44037e-05
6.33475e-05
6.07893e-05
5.68252e-05
5.14086e-05
4.53675e-05
1.47759e-05
5.93104e-05
9.82113e-05
0.000128865
0.000150385
0.000164654
0.000174164
0.000180448
0.000184193
0.000185655
0.000184884
0.000181869
0.000176646
0.000169363
0.00016029
0.000149785
0.000138275
0.000126229
0.000114173
0.000102737
9.26722e-05
8.44146e-05
7.7837e-05
7.27424e-05
6.89804e-05
6.64463e-05
6.50434e-05
6.46114e-05
6.4818e-05
6.50619e-05
6.45195e-05
6.25401e-05
5.9042e-05
5.39606e-05
4.8325e-05
1.62917e-05
6.3304e-05
0.000104217
0.00013624
0.000158513
0.000173164
0.000182868
0.000189218
0.000192904
0.000194171
0.000193056
0.000189542
0.000183679
0.000175641
0.000165731
0.000154349
0.000141963
0.000129087
0.000116301
0.000104315
9.39824e-05
8.56534e-05
7.90812e-05
7.39962e-05
7.02028e-05
6.75789e-05
6.60459e-05
6.54977e-05
6.56822e-05
6.60674e-05
6.58444e-05
6.42901e-05
6.11945e-05
5.64752e-05
5.12978e-05
1.78941e-05
6.74076e-05
0.000110319
0.000143654
0.000166611
0.00018159
0.000191449
0.000197836
0.000201443
0.000202502
0.000201038
0.000197031
0.000190542
0.000181772
0.000171057
0.000158833
0.000145608
0.000131937
0.00011845
0.000105932
9.53378e-05
8.69459e-05
8.04129e-05
7.54005e-05
7.16611e-05
6.90411e-05
6.74557e-05
6.68257e-05
6.69569e-05
6.73894e-05
6.73568e-05
6.611e-05
6.33514e-05
5.89708e-05
5.41974e-05
1.94892e-05
7.13956e-05
0.000116212
0.000150795
0.000174409
0.000189711
0.000199726
0.00020615
0.000209675
0.000210521
0.000208701
0.000204195
0.000197079
0.00018758
0.000176069
0.000163018
0.000148973
0.000134532
0.000120373
0.000107359
9.65367e-05
8.81234e-05
8.16883e-05
7.68252e-05
7.32322e-05
7.07169e-05
6.91746e-05
6.8531e-05
6.86268e-05
6.90627e-05
6.91296e-05
6.80888e-05
6.55883e-05
6.14784e-05
5.69977e-05
2.11454e-05
7.54049e-05
0.00012207
0.000157832
0.000182044
0.000197634
0.000207791
0.000214249
0.000217697
0.000218341
0.000216181
0.000211198
0.000203484
0.000193292
0.000181022
0.00016718
0.000152344
0.00013715
0.000122321
0.000108792
9.77053e-05
8.92382e-05
8.28866e-05
7.81885e-05
7.47857e-05
7.24423e-05
7.10242e-05
7.04445e-05
7.05561e-05
7.10005e-05
7.11247e-05
7.02207e-05
6.79067e-05
6.39846e-05
5.96675e-05
2.28198e-05
7.93608e-05
0.000127809
0.000164702
0.00018949
0.000205364
0.000215663
0.000222158
0.000225531
0.000225974
0.00022348
0.000218031
0.000209735
0.000198871
0.000185867
0.000171261
0.00015566
0.000139736
0.000124251
0.000110203
9.88353e-05
9.03042e-05
8.40397e-05
7.9518e-05
7.63363e-05
7.42169e-05
7.29904e-05
7.25465e-05
7.27315e-05
7.32079e-05
7.33684e-05
7.25451e-05
7.03436e-05
6.65119e-05
6.22232e-05
2.45314e-05
8.32939e-05
0.000133461
0.000171428
0.000196754
0.0002129
0.000223344
0.000229885
0.000233198
0.000233462
0.000230659
0.000224778
0.000215941
0.00020445
0.000190757
0.000175426
0.000159091
0.000142452
0.000126306
0.000111711
0.000100001
9.13524e-05
8.51402e-05
8.07857e-05
7.78332e-05
7.59625e-05
7.49741e-05
7.47248e-05
7.50409e-05
7.5587e-05
7.57869e-05
7.50119e-05
7.28657e-05
6.90401e-05
6.46647e-05
2.6257e-05
8.71715e-05
0.000139002
0.000178005
0.000203857
0.000220275
0.00023087
0.000237466
0.000240729
0.000240825
0.000237732
0.000231442
0.000222094
0.000210011
0.000195668
0.000179648
0.000162607
0.000145266
0.000128466
0.000113305
0.000101207
9.23999e-05
8.62127e-05
8.20162e-05
7.93057e-05
7.77162e-05
7.70052e-05
7.69986e-05
7.7497e-05
7.8151e-05
7.8397e-05
7.76421e-05
7.54942e-05
7.15881e-05
6.70147e-05
2.80094e-05
9.10282e-05
0.000144471
0.000184468
0.000210824
0.000227512
0.000238268
0.000244932
0.000248162
0.000248112
0.000244756
0.000238091
0.000228274
0.000215645
0.000200698
0.000184031
0.000166311
0.000148287
0.000130827
0.000115066
0.000102502
9.34672e-05
8.72527e-05
8.31839e-05
8.07078e-05
7.9413e-05
7.90143e-05
7.92971e-05
8.00242e-05
8.08227e-05
8.11312e-05
8.03837e-05
7.81942e-05
7.41402e-05
6.92802e-05
2.9769e-05
9.48188e-05
0.00014982
0.000190783
0.000217638
0.000234605
0.000245533
0.000252276
0.000255484
0.000255302
0.000251701
0.000244689
0.000234439
0.000221307
0.000205802
0.000188528
0.000170166
0.000151478
0.000133355
0.00011697
0.000103878
9.4556e-05
8.82698e-05
8.43041e-05
8.20592e-05
8.10758e-05
8.10218e-05
8.16361e-05
8.26357e-05
8.36126e-05
8.39956e-05
8.32413e-05
8.09711e-05
7.6704e-05
7.14753e-05
3.15529e-05
9.85961e-05
0.000155122
0.000197031
0.000224381
0.000241636
0.000252745
0.000259577
0.000262772
0.000262471
0.000258646
0.000251318
0.000240675
0.000227087
0.000211071
0.000193236
0.000174269
0.00015494
0.000136149
0.000119098
0.000105392
9.56956e-05
8.92676e-05
8.53584e-05
8.33236e-05
8.26544e-05
8.29679e-05
8.39507e-05
8.52669e-05
8.64624e-05
8.69429e-05
8.61797e-05
8.38025e-05
7.92715e-05
7.36044e-05
3.33378e-05
0.000102296
0.000160294
0.00020313
0.000230986
0.000248548
0.000259854
0.000266779
0.000269962
0.000269545
0.00026551
0.000257892
0.000246893
0.000232895
0.000216419
0.000198073
0.000178544
0.000158599
0.000139145
0.000121402
0.00010702
9.68798e-05
9.02503e-05
8.63575e-05
8.45163e-05
8.41671e-05
8.48711e-05
8.62562e-05
8.79262e-05
8.93729e-05
8.99699e-05
8.91962e-05
8.66874e-05
8.1843e-05
7.56717e-05
3.51458e-05
0.000105982
0.000165427
0.000209191
0.000237579
0.000255483
0.000267
0.00027401
0.000277167
0.000276631
0.000272398
0.000264515
0.0002532
0.000238842
0.00022196
0.000203158
0.000183112
0.000162582
0.000142467
0.000123996
0.000108849
9.81637e-05
9.12437e-05
8.73016e-05
8.56167e-05
8.55788e-05
8.66884e-05
8.8507e-05
9.05689e-05
9.23007e-05
9.30341e-05
9.22526e-05
8.95982e-05
8.4407e-05
7.76814e-05
3.69483e-05
0.00010957
0.000170401
0.000215083
0.000244048
0.000262372
0.000274122
0.000281166
0.000284264
0.000283597
0.000279174
0.000271056
0.000259468
0.000244802
0.000227571
0.000208371
0.000187862
0.000166788
0.000146032
0.000126823
0.000110857
9.95483e-05
9.22597e-05
8.82064e-05
8.66416e-05
8.69055e-05
8.84337e-05
9.07137e-05
9.32023e-05
9.52537e-05
9.61492e-05
9.53658e-05
9.25488e-05
8.69702e-05
7.9637e-05
3.87712e-05
0.000113135
0.000175319
0.00022091
0.000250491
0.000269224
0.000281218
0.000288359
0.000291362
0.000290559
0.000285964
0.000277644
0.000265828
0.000250906
0.000233385
0.000213845
0.00019293
0.000171355
0.000149981
0.00013002
0.000113171
0.000101127
9.33584e-05
8.90999e-05
8.75911e-05
8.81269e-05
9.00743e-05
9.28377e-05
9.57847e-05
9.81844e-05
9.92579e-05
9.84875e-05
9.55033e-05
8.95188e-05
8.15432e-05
4.05815e-05
0.000116588
0.00018005
0.000226506
0.000256697
0.000275786
0.000288021
0.000295292
0.00029828
0.000297352
0.000292609
0.000284122
0.000272121
0.000256996
0.000239244
0.00021943
0.000198172
0.000176157
0.000154211
0.000133522
0.000115779
0.000102917
9.45726e-05
9.00193e-05
8.84992e-05
8.92707e-05
9.16311e-05
9.48942e-05
9.83284e-05
0.00010111
0.000102397
0.000101685
9.84686e-05
9.20473e-05
8.34005e-05
4.24116e-05
0.000120025
0.000184738
0.000232042
0.00026281
0.000282254
0.000294742
0.000302169
0.000305191
0.000304134
0.00029926
0.000290635
0.000278491
0.000263213
0.000245286
0.000225259
0.000203721
0.000181325
0.000158855
0.000137462
0.000118811
0.000105026
9.59855e-05
9.10186e-05
8.93907e-05
9.03355e-05
9.3083e-05
9.685e-05
0.000100794
0.000103986
0.000105519
0.00010492
0.000101511
9.45811e-05
8.52193e-05
4.42245e-05
0.000123341
0.000189243
0.000237399
0.000268653
0.000288418
0.000301153
0.000308748
0.000311834
0.000310701
0.000305732
0.000297004
0.000284759
0.000269377
0.000251335
0.00023116
0.000209412
0.000186708
0.000163783
0.000141744
0.000122222
0.000107458
9.76331e-05
9.21498e-05
9.03193e-05
9.13692e-05
9.44694e-05
9.87367e-05
0.00010321
0.000106851
0.000108703
0.000108207
0.000104606
9.7123e-05
8.70001e-05
4.60557e-05
0.000126621
0.000193668
0.000242667
0.000274377
0.000294465
0.000307461
0.000315247
0.000318437
0.0003173
0.000312212
0.000303389
0.00029107
0.000275627
0.00025752
0.000237255
0.000215362
0.000192416
0.0001691
0.000146466
0.000126098
0.000110294
9.95878e-05
9.34735e-05
9.13265e-05
9.23891e-05
9.57841e-05
0.00010053
0.000105542
0.00010967
0.000111906
0.000111518
0.000107727
9.96659e-05
8.87478e-05
4.7867e-05
0.00012977
0.000197874
0.000247653
0.000279793
0.000300192
0.000313446
0.000321425
0.000324729
0.000323613
0.00031844
0.000309567
0.000297224
0.000281772
0.000263657
0.000243365
0.000221396
0.000198284
0.00017466
0.00015151
0.000130356
0.000113511
0.000101874
9.50426e-05
9.2477e-05
9.34601e-05
9.7086e-05
0.000102282
0.000107838
0.000112484
0.000115139
0.000114866
0.000110877
0.00010221
9.04591e-05
4.97014e-05
0.000132903
0.000202026
0.000252555
0.000285106
0.00030581
0.000319324
0.000327507
0.00033094
0.000329863
0.000324628
0.000315729
0.000303386
0.000287956
0.000269872
0.000249598
0.000227609
0.000204397
0.000180533
0.000156938
0.000135056
0.000117171
0.000104559
9.69234e-05
9.38283e-05
9.46219e-05
9.83919e-05
0.000103986
0.000110071
0.000115249
0.000118354
0.000118216
0.000114035
0.000104747
9.21345e-05
5.15172e-05
0.000135909
0.000205963
0.000257177
0.000290105
0.000311101
0.000324871
0.000333262
0.000336837
0.000335824
0.00033056
0.000321666
0.000309359
0.000293989
0.00027598
0.000255778
0.00023383
0.000210589
0.000186571
0.00016262
0.000140099
0.000121233
0.000107648
9.91609e-05
9.54481e-05
9.59496e-05
9.97747e-05
0.000105711
0.000112305
0.000118021
0.000121582
0.00012158
0.0001172
0.000107271
9.37659e-05
5.33609e-05
0.00013891
0.000209859
0.000261723
0.000295001
0.000316274
0.000330296
0.000338897
0.000342625
0.000341696
0.000336429
0.000327552
0.000315293
0.000300004
0.000282097
0.000262003
0.000240141
0.000216929
0.000192823
0.000168597
0.000145517
0.00012573
0.000111186
0.000101808
9.7396e-05
9.74987e-05
0.000101274
0.000107469
0.000114518
0.000120746
0.000124779
0.00012493
0.000120356
0.000109771
9.53496e-05
5.51907e-05
0.000141796
0.000213557
0.000265996
0.000299585
0.000321117
0.000335383
0.000344195
0.000348086
0.000347268
0.000342064
0.000333198
0.000321003
0.000305823
0.000288056
0.000268113
0.000246389
0.000223266
0.000199148
0.000174737
0.000151203
0.000130598
0.000115148
0.000104882
9.97194e-05
9.93347e-05
0.00010296
0.000109331
0.000116788
0.000123545
0.000127986
0.000128269
0.000123492
0.000112236
9.68748e-05
5.70498e-05
0.000144689
0.000217238
0.000270195
0.000304055
0.000325825
0.000340325
0.000349342
0.000353392
0.000352683
0.000347544
0.00033871
0.000326607
0.000311564
0.000293965
0.000274202
0.00025265
0.000229658
0.000205586
0.000181065
0.000157171
0.000135848
0.00011955
0.000108409
0.000102457
0.000101502
0.000104877
0.000111332
0.000119138
0.000126398
0.000131205
0.000131596
0.0001266
0.000114657
9.83365e-05
5.88859e-05
0.000147464
0.000220772
0.000274125
0.000308211
0.000330201
0.000344928
0.000354151
0.00035837
0.000357786
0.000352735
0.000343961
0.000331975
0.000317095
0.000299691
0.00028014
0.000258795
0.00023598
0.000212012
0.00018746
0.00016331
0.0001414
0.000124343
0.000112376
0.00010563
0.000104049
0.000107085
0.000113531
0.000121612
0.000129321
0.000134444
0.000134909
0.000129674
0.000117024
9.97252e-05
6.07259e-05
0.000150175
0.000224206
0.000277931
0.000312223
0.000334421
0.000349364
0.000358784
0.000363164
0.000362704
0.00035775
0.000349058
0.000337207
0.000322511
0.000305323
0.000286005
0.000264893
0.000242285
0.000218462
0.000193939
0.00016962
0.000147237
0.000129505
0.000116769
0.00010924
0.000106995
0.000109615
0.000115962
0.000124234
0.000132323
0.000137708
0.00013821
0.00013271
0.000119333
0.000101039
6.25474e-05
0.000152772
0.000227441
0.000281463
0.000315926
0.000338316
0.000353472
0.000363092
0.000367641
0.000367315
0.000362467
0.000353871
0.000342189
0.000327707
0.000310764
0.000291706
0.000270855
0.000248487
0.000224852
0.000200417
0.000176013
0.000153278
0.00013497
0.000121541
0.000113267
0.000110343
0.000112489
0.000118653
0.00012703
0.000135423
0.000141005
0.000141498
0.000135702
0.000121577
0.000102272
6.43703e-05
0.000155313
0.000230566
0.000284852
0.000319467
0.000342035
0.000357394
0.000367207
0.000371921
0.000371731
0.000367003
0.000358523
0.000347011
0.000332753
0.000316079
0.000297298
0.000276727
0.000254622
0.000231206
0.000206905
0.000182485
0.000159498
0.000140707
0.000126664
0.000117688
0.000114083
0.000115707
0.000121612
0.000130007
0.000138622
0.000144333
0.00014477
0.000138647
0.000123754
0.000103427
6.61545e-05
0.000157709
0.000233467
0.000287964
0.000322702
0.000345436
0.000360989
0.000370992
0.000375874
0.000375828
0.000371235
0.000362897
0.000351586
0.00033757
0.000321169
0.000302702
0.000282437
0.000260623
0.000237458
0.000213334
0.000188964
0.000165822
0.000146653
0.000132088
0.000122475
0.000118209
0.000119279
0.000124854
0.000133181
0.000141929
0.000147696
0.000148026
0.000141542
0.00012586
0.000104502
6.79327e-05
0.000160043
0.000236258
0.000290929
0.000325768
0.000348651
0.000364388
0.000374572
0.000379616
0.000379714
0.000375259
0.000367076
0.000355978
0.000342222
0.00032611
0.000307948
0.000288014
0.000266511
0.000243622
0.000219711
0.000195443
0.000172227
0.000152774
0.000137777
0.000127595
0.000122697
0.000123197
0.000128381
0.000136556
0.000145348
0.000151093
0.000151264
0.000144385
0.000127897
0.000105505
6.96607e-05
0.000162227
0.000238823
0.000293622
0.00032854
0.000351559
0.00036747
0.00037783
0.000383035
0.000383281
0.000378979
0.000370975
0.000360112
0.000346635
0.000330833
0.000312999
0.000293395
0.000272231
0.000249643
0.000225979
0.000201862
0.000178648
0.000159011
0.000143674
0.000132999
0.000127514
0.000127442
0.000132191
0.000140134
0.000148882
0.000154527
0.000154485
0.000147177
0.000129868
0.000106442
7.13636e-05
0.000164332
0.000241267
0.000296162
0.000331137
0.000354276
0.000370349
0.000380876
0.000386235
0.000386627
0.00038248
0.000374665
0.000364048
0.000350861
0.000335381
0.000317886
0.000298625
0.000277794
0.000255536
0.000232143
0.000208219
0.000185072
0.000165337
0.000149743
0.000138645
0.000132617
0.000131978
0.000136255
0.000143899
0.000152517
0.000157992
0.000157687
0.000149917
0.000131775
0.00010732
7.30112e-05
0.000166293
0.000243499
0.000298448
0.000333457
0.000356703
0.000372928
0.000383614
0.000389125
0.000389665
0.000385683
0.000378077
0.000367724
0.000354842
0.000339699
0.000322559
0.000303658
0.000283179
0.000261249
0.000238162
0.000214472
0.000191454
0.000171711
0.000155944
0.000144494
0.00013797
0.000136779
0.000140556
0.000147839
0.000156251
0.000161485
0.000160869
0.000152608
0.000133623
0.000108144
7.4621e-05
0.000168165
0.0002456
0.000300574
0.000335599
0.000358937
0.000375301
0.000386137
0.000391793
0.000392477
0.000388663
0.000381275
0.000371194
0.000358627
0.000343827
0.000327049
0.000308515
0.000288399
0.000266815
0.000244042
0.00022062
0.000197785
0.000178112
0.000162247
0.000150512
0.00014354
0.00014181
0.000145068
0.000151937
0.000160071
0.000165001
0.000164029
0.000155249
0.000135414
0.000108917
7.61719e-05
0.0001699
0.000247503
0.000302465
0.000337486
0.000360902
0.000377395
0.000388372
0.000394167
0.000394997
0.000391358
0.000384206
0.000374411
0.00036217
0.000347726
0.00033132
0.000313164
0.000293421
0.000272196
0.000249758
0.000226633
0.000204033
0.000184509
0.000168622
0.00015667
0.000149298
0.000147051
0.000149771
0.000156176
0.000163969
0.000168536
0.000167167
0.000157844
0.000137151
0.000109647
7.76775e-05
0.000171541
0.000249274
0.000304197
0.000339196
0.000362676
0.000379285
0.000390394
0.00039632
0.000397291
0.000393828
0.00038692
0.000377419
0.000365511
0.000351427
0.000335398
0.000317625
0.000298261
0.000277403
0.000255312
0.000232505
0.000210188
0.000190881
0.000175038
0.000162932
0.000155212
0.000152471
0.000154646
0.000160557
0.000167937
0.000172083
0.000170281
0.000160392
0.000138839
0.000110336
7.91238e-05
0.000173056
0.000250866
0.000305717
0.000340676
0.000364206
0.00038092
0.000392151
0.000398204
0.000399314
0.000396034
0.000389383
0.000380186
0.000368621
0.000354907
0.000339262
0.000321878
0.000302902
0.000282422
0.000260695
0.000238232
0.000216234
0.00019721
0.000181473
0.00016927
0.00016125
0.000158046
0.000159681
0.000165084
0.000171976
0.000175646
0.000173373
0.000162898
0.000140481
0.000110993
8.05223e-05
0.000174479
0.000252328
0.000307082
0.000341986
0.000365554
0.000382361
0.000393704
0.000399874
0.00040112
0.000398022
0.000391636
0.00038275
0.000371532
0.000358189
0.000342932
0.000325942
0.000307357
0.000287262
0.000265911
0.000243815
0.00022218
0.000203491
0.00018791
0.00017566
0.000167384
0.000163747
0.000164849
0.000169724
0.000176076
0.000179219
0.000176442
0.000165363
0.000142082
0.00011162
8.18615e-05
0.000175784
0.000253626
0.000308256
0.000343087
0.00036668
0.000383571
0.000395018
0.0004013
0.00040268
0.00039977
0.00039366
0.000385093
0.000374229
0.000361265
0.0003464
0.000329808
0.000311621
0.000291919
0.000270958
0.000249255
0.000228026
0.000209718
0.00019434
0.000182086
0.000173593
0.000169551
0.000170129
0.000174457
0.000180229
0.000182803
0.000179493
0.000167793
0.000143648
0.000112222
8.31527e-05
0.000177001
0.000254802
0.000309284
0.000344028
0.000367634
0.000384597
0.000396138
0.000402524
0.000404033
0.00040131
0.000395483
0.000387241
0.000376734
0.000364151
0.000349681
0.00033349
0.000315705
0.000296404
0.000275848
0.000254564
0.000233789
0.000215901
0.000200764
0.000188545
0.000179868
0.000175442
0.000175499
0.000179266
0.000184422
0.000186393
0.000182527
0.000170191
0.000145181
0.0001128
8.43864e-05
0.000178107
0.000255825
0.000310134
0.000344777
0.000368385
0.000385411
0.000397038
0.000403523
0.00040516
0.00040263
0.000397096
0.000389187
0.000379042
0.000366844
0.000352773
0.000336988
0.00031961
0.00030072
0.000280586
0.000259752
0.000239485
0.000222047
0.000207181
0.000195031
0.000186201
0.000181413
0.000180954
0.00018414
0.000188649
0.000189988
0.000185544
0.000172561
0.000146687
0.000113358
8.55733e-05
0.00017913
0.000256732
0.000310848
0.000345374
0.000368973
0.000386052
0.000397755
0.000404331
0.000406092
0.000403755
0.000398521
0.000390947
0.000381168
0.000369357
0.000355687
0.000340311
0.000323346
0.000304878
0.000285183
0.000264832
0.000245131
0.000228162
0.000213591
0.000201535
0.00019258
0.000187452
0.000186482
0.000189075
0.000192908
0.000193588
0.000188548
0.000174908
0.000148171
0.000113901
8.6706e-05
0.000180052
0.000257503
0.000311402
0.0003458
0.000369379
0.000386501
0.000398274
0.000404935
0.00040682
0.000404679
0.000399754
0.000392522
0.000383111
0.000371689
0.000358422
0.000343457
0.000326911
0.000308873
0.000289636
0.0002698
0.000250717
0.000234244
0.000219992
0.000208057
0.000199002
0.000193552
0.000192077
0.000194065
0.000197198
0.000197197
0.000191545
0.000177239
0.000149642
0.000114434
8.77922e-05
0.000180897
0.000258167
0.000311831
0.000346086
0.000369635
0.000386791
0.000398624
0.000405365
0.000407369
0.000405427
0.000400815
0.000393926
0.000384885
0.000373852
0.000360988
0.000346435
0.000330311
0.000312711
0.000293948
0.000274655
0.000256236
0.000240287
0.000226378
0.000214584
0.000205445
0.000199693
0.000197723
0.000199102
0.000201518
0.000200817
0.000194539
0.000179561
0.000151107
0.000114959
8.88268e-05
0.000181653
0.00025871
0.000312117
0.000346219
0.000369728
0.00038691
0.000398799
0.000405616
0.000407739
0.000405999
0.000401707
0.000395164
0.000386492
0.000375848
0.000363385
0.000349245
0.000333544
0.000316388
0.00029811
0.000279384
0.000261669
0.000246273
0.000232739
0.000221118
0.000211928
0.000205885
0.000203423
0.000204183
0.000205866
0.000204451
0.000197538
0.00018188
0.00015257
0.000115481
8.98155e-05
0.000182336
0.000259153
0.000312285
0.000346219
0.000369679
0.00038688
0.000398818
0.000405708
0.000407953
0.000406419
0.00040245
0.000396253
0.000387948
0.000377689
0.000365626
0.000351897
0.00033662
0.000319912
0.000302129
0.00028399
0.000267011
0.000252195
0.000239064
0.000227647
0.000218429
0.00021211
0.00020917
0.000209309
0.000210244
0.000208103
0.000200545
0.000184203
0.000154039
0.000116007
9.07564e-05
0.000182939
0.000259486
0.000312324
0.00034608
0.000369481
0.000386694
0.000398677
0.00040564
0.000408012
0.000406693
0.000403052
0.000397198
0.000389256
0.000379378
0.000367711
0.000354391
0.000339537
0.000323279
0.000306001
0.000288465
0.000272249
0.000258036
0.000245335
0.000234152
0.000224942
0.000218388
0.000214976
0.000214491
0.000214666
0.000211786
0.000203573
0.000186541
0.000155521
0.000116545
9.16552e-05
0.000183474
0.000259723
0.000312247
0.000345813
0.000369146
0.000386363
0.000398385
0.000405422
0.000407931
0.000406848
0.000403526
0.000398008
0.000390424
0.000380924
0.000369652
0.000356739
0.000342309
0.000326503
0.000309735
0.00029282
0.000277385
0.000263793
0.000251545
0.000240627
0.000231457
0.000224692
0.000220822
0.000219724
0.000219135
0.000215509
0.000206634
0.000188907
0.000157027
0.000117098
9.25129e-05
0.000183941
0.000259863
0.000312054
0.000345417
0.000368673
0.000385885
0.000397939
0.000405047
0.000407707
0.000406899
0.000403871
0.000398678
0.000391448
0.000382326
0.000371448
0.000358942
0.000344937
0.000329587
0.000313336
0.000297055
0.000282411
0.00026945
0.000257673
0.000247044
0.000237949
0.000231011
0.000226723
0.000225019
0.000223664
0.000219284
0.000209739
0.000191308
0.000158562
0.000117668
9.33358e-05
0.000184346
0.000259915
0.000311753
0.000344901
0.000368071
0.00038527
0.000397348
0.000404518
0.000407319
0.000406782
0.000404059
0.000399202
0.000392335
0.000383595
0.000373114
0.000361018
0.000347441
0.000332552
0.000316831
0.000301205
0.00028735
0.00027502
0.000263722
0.000253402
0.00024441
0.00023733
0.000232649
0.000230351
0.000228245
0.000223116
0.000212898
0.000193756
0.000160133
0.000118256
9.41259e-05
0.00018469
0.000259878
0.000311345
0.000344266
0.000367342
0.000384521
0.000396617
0.00040385
0.000406799
0.000406541
0.000404125
0.000399602
0.000393096
0.000384737
0.000374654
0.000362972
0.000349828
0.000335412
0.000320238
0.000305298
0.000292214
0.000280504
0.000269683
0.000259683
0.000250817
0.000243627
0.000238585
0.000235726
0.000232874
0.000227001
0.00021611
0.000196252
0.000161742
0.000118866
9.48899e-05
0.000184981
0.000259759
0.000310837
0.00034352
0.000366492
0.000383643
0.00039575
0.000403039
0.000406135
0.000406163
0.000404058
0.000399874
0.000393731
0.000385757
0.000376077
0.000364815
0.000352116
0.00033819
0.000323593
0.000309385
0.000297043
0.000285931
0.000275574
0.000265897
0.000257174
0.000249904
0.000244535
0.000241143
0.000237562
0.000230956
0.000219392
0.000198811
0.000163398
0.000119499
9.56294e-05
0.000185216
0.000259557
0.000310226
0.00034266
0.000365521
0.000382639
0.000394751
0.000402094
0.00040534
0.00040566
0.00040387
0.000400025
0.000394244
0.000386654
0.000377376
0.000366539
0.000354295
0.000340878
0.000326889
0.000313462
0.000301837
0.000291301
0.000281395
0.000272033
0.000263462
0.000256133
0.000250468
0.000246575
0.000242298
0.000234965
0.000222735
0.000201427
0.000165101
0.000120157
9.63509e-05
0.000185404
0.000259279
0.00030952
0.000341693
0.000364435
0.000381512
0.000393626
0.000401021
0.000404421
0.00040504
0.00040357
0.000400067
0.000394651
0.000387444
0.000378569
0.000368157
0.000356375
0.00034348
0.000330124
0.000317513
0.000306591
0.000296619
0.000287155
0.000278109
0.000269698
0.000262331
0.000256401
0.000252044
0.000247096
0.000239057
0.000226157
0.000204115
0.000166857
0.000120839
9.70547e-05
0.000185541
0.00025892
0.000308713
0.000340615
0.000363231
0.000380262
0.000392371
0.000399818
0.000403374
0.0004043
0.000403154
0.000399996
0.000394944
0.000388121
0.000379649
0.000369665
0.000358347
0.000345985
0.00033328
0.000321504
0.000311281
0.000301867
0.000292837
0.000284102
0.000275855
0.000268468
0.000262303
0.000257518
0.000251933
0.000243211
0.000229651
0.00020687
0.000168663
0.000121542
9.77439e-05
0.000185632
0.000258486
0.000307812
0.000339432
0.000361916
0.000378896
0.000390998
0.000398498
0.000402218
0.000403458
0.000402642
0.00039983
0.000395143
0.000388703
0.000380634
0.000371078
0.000360229
0.000348406
0.000336366
0.000325436
0.000315909
0.000307052
0.000298457
0.000290034
0.000281959
0.000274568
0.000268195
0.000263016
0.000256822
0.000247437
0.000233226
0.0002097
0.000170525
0.00012227
9.84137e-05
0.000185668
0.000257966
0.000306808
0.000338136
0.000360482
0.000377406
0.0003895
0.000397055
0.000400944
0.000402507
0.000402024
0.000399562
0.000395241
0.000389186
0.000381521
0.000372395
0.000362018
0.000350743
0.000339383
0.000329299
0.000320461
0.000312156
0.000303993
0.000295884
0.000287984
0.0002806
0.000274044
0.000268507
0.000261741
0.00025172
0.000236871
0.000212595
0.000172436
0.000123019
9.90673e-05
0.000185653
0.000257367
0.000305707
0.000336735
0.000358936
0.000375803
0.000387889
0.000395508
0.000399576
0.000401468
0.000401319
0.000399205
0.000395252
0.000389583
0.000382325
0.000373634
0.000363739
0.000353026
0.000342365
0.000333117
0.000324957
0.000317198
0.000309466
0.000301672
0.000293956
0.000286596
0.000279877
0.000274014
0.000266702
0.000256066
0.000240586
0.000215557
0.000174393
0.000123783
9.97042e-05
0.000185585
0.000256684
0.000304506
0.000335222
0.000357273
0.000374078
0.00038616
0.000393855
0.00039812
0.000400344
0.000400525
0.000398757
0.000395169
0.000389887
0.000383041
0.000374794
0.000365393
0.000355263
0.000345335
0.000336899
0.000329397
0.00032217
0.000314862
0.000307382
0.000299854
0.000292528
0.000285681
0.000279512
0.000271688
0.000260461
0.000244363
0.000218577
0.000176393
0.000124563
0.000100333
0.000185472
0.00025593
0.000303215
0.00033361
0.000355502
0.000372241
0.000384321
0.000392113
0.00039662
0.000399157
0.00039966
0.000398234
0.000395012
0.00039012
0.00038369
0.000375896
0.000367009
0.000357491
0.000348339
0.000340681
0.000333812
0.000327098
0.000320201
0.00031303
0.000305694
0.000298425
0.000291504
0.000285025
0.000276705
0.00026491
0.000248204
0.000221659
0.000178439
0.000125364
0.000100954
0.000185317