/*--------------------------------*- C++ -*----------------------------------*\
| =========                 |                                                 |
| \\      /  F ield         | OpenFOAM: The Open Source CFD Toolbox           |
|  \\    /   O peration     | Version:  v1906                                 |
|   \\  /    A nd           | Web:      www.OpenFOAM.com                      |
|    \\/     M anipulation  |                                                 |
\*---------------------------------------------------------------------------*/
FoamFile
{
    version     2.0;
    format      ascii;
    class       surfaceScalarField;
    location    "25.4/oil";
    object      phi;
}
// * * * * * * * * * * * * * * * * * * * * * * * * * * * * * * * * * * * * * //

dimensions      [1 0 -1 0 0 0 0];
oriented        oriented;


internalField   nonuniform List<scalar> 
80688
(
-2.50791e-06
-2.55117e-06
-2.50791e-06
-1.13368e-06
-7.1037e-07
-6.63868e-07
-3.1098e-07
-4.13588e-07
-4.09109e-07
-1.57214e-07
-7.68844e-08
-7.68809e-08
-6.96165e-08
-4.39309e-08
-4.36671e-08
-2.94675e-08
-2.03697e-08
-1.97793e-08
-9.37427e-09
-1.04217e-08
-9.67151e-09
9.96049e-10
-5.61062e-09
-4.75969e-09
6.27559e-09
-3.12311e-09
-2.15642e-09
8.54864e-09
-1.69659e-09
-5.76446e-10
8.82619e-09
-7.88285e-10
5.10747e-10
7.66998e-09
-1.65062e-10
1.32129e-09
5.45982e-09
2.7974e-10
1.93043e-09
2.5273e-09
5.79602e-10
2.35292e-09
-8.01053e-10
7.43592e-10
2.58478e-09
-4.20393e-09
7.80198e-10
2.62269e-09
-7.37749e-09
6.98347e-10
2.47523e-09
-1.0056e-08
5.12219e-10
2.16633e-09
-1.20327e-08
2.41182e-10
1.73554e-09
-1.31771e-08
-8.53163e-11
1.22966e-09
-1.34418e-08
-4.3819e-10
7.02902e-10
-1.28567e-08
-7.98038e-10
2.13019e-10
-1.15209e-08
-1.13626e-09
-1.99535e-10
-9.59853e-09
-1.42903e-09
-4.93359e-10
-7.3101e-09
-1.65407e-09
-6.34349e-10
-4.91798e-09
-1.7791e-09
-6.12997e-10
-2.71785e-09
-1.75684e-09
-4.43277e-10
-1.01765e-09
-1.51938e-09
-1.8081e-10
-8.38047e-11
-9.77164e-10
4.33357e-11
-1.75336e-10
9.15397e-11
-6.76334e-07
-1.1985e-06
-6.76334e-07
-4.08286e-07
-4.34032e-07
-5.44386e-07
-2.97126e-07
-2.89214e-07
-2.35533e-07
-1.54869e-07
-1.21919e-07
-9.72229e-08
-7.67134e-08
-7.06567e-08
-5.14295e-08
-3.32526e-08
-3.98306e-08
-2.39999e-08
-7.99058e-09
-2.53737e-08
-1.031e-08
6.60743e-09
-1.74903e-08
-2.71828e-09
1.45907e-08
-1.29895e-08
1.88318e-09
1.80331e-08
-1.01499e-08
5.01096e-09
1.8092e-08
-8.20033e-09
7.35316e-09
1.55209e-08
-6.78303e-09
9.18907e-09
1.09423e-08
-5.74547e-09
1.06038e-08
4.95958e-09
-5.03452e-09
1.15969e-08
-1.80484e-09
-4.63367e-09
1.21417e-08
-8.71739e-09
-4.53265e-09
1.22254e-08
-1.51726e-08
-4.71113e-09
1.18647e-08
-2.06405e-08
-5.13168e-09
1.11118e-08
-2.47113e-08
-5.74006e-09
1.00521e-08
-2.71212e-08
-6.46846e-09
8.79305e-09
-2.77689e-08
-7.24447e-09
7.45396e-09
-2.67164e-08
-7.99511e-09
6.14462e-09
-2.41696e-08
-8.64822e-09
4.96514e-09
-2.04564e-08
-9.1323e-09
3.99013e-09
-1.60046e-08
-9.36893e-09
3.26303e-09
-1.13113e-08
-9.25784e-09
2.78551e-09
-6.90793e-09
-8.66259e-09
2.50235e-09
-3.30681e-09
-7.39821e-09
2.27772e-09
-9.20922e-10
-5.22341e-09
1.86037e-09
-2.0254e-09
9.29154e-10
-4.22541e-07
-3.53416e-07
-4.2254e-07
-2.87374e-07
-3.26585e-07
-2.42614e-07
-1.99674e-07
-2.23888e-07
-1.53027e-07
-1.14366e-07
-1.27737e-07
-7.94891e-08
-5.97125e-08
-8.39623e-08
-4.13484e-08
-2.39224e-08
-5.70214e-08
-1.85993e-08
-9.81776e-10
-4.24814e-08
-5.83295e-09
1.33156e-08
-3.37645e-08
1.97679e-09
2.14205e-08
-2.82861e-08
7.19173e-09
2.47594e-08
-2.45313e-08
1.10425e-08
2.42399e-08
-2.17768e-08
1.4096e-08
2.05602e-08
-1.96768e-08
1.65734e-08
1.43927e-08
-1.80922e-08
1.85143e-08
6.45419e-09
-1.69831e-08
1.98871e-08
-2.47372e-09
-1.63463e-08
2.06405e-08
-1.15821e-08
-1.61748e-08
2.07505e-08
-2.00909e-08
-1.64385e-08
2.02362e-08
-2.73131e-08
-1.70761e-08
1.91666e-08
-3.27184e-08
-1.79933e-08
1.76585e-08
-3.59667e-08
-1.90756e-08
1.58555e-08
-3.69338e-08
-2.01954e-08
1.3918e-08
-3.56987e-08
-2.12231e-08
1.19928e-08
-3.25285e-08
-2.20296e-08
1.02112e-08
-2.78409e-08
-2.24827e-08
8.66278e-09
-2.21696e-08
-2.2435e-08
7.39481e-09
-1.61211e-08
-2.17031e-08
6.39677e-09
-1.03204e-08
-2.00468e-08
5.58352e-09
-5.35421e-09
-1.71352e-08
4.77079e-09
-1.723e-09
-1.24953e-08
3.64066e-09
-5.47955e-09
1.73115e-09
-8.32837e-08
-1.86849e-07
-8.32833e-08
-1.15102e-07
-1.94522e-07
-1.00244e-07
-9.88558e-08
-1.60304e-07
-7.98303e-08
-6.34456e-08
-1.16414e-07
-4.67334e-08
-3.26845e-08
-8.99899e-08
-2.47335e-08
-8.3928e-09
-7.1658e-08
-9.65507e-09
9.1941e-09
-6.02457e-08
1.7745e-10
2.10404e-08
-5.25922e-08
6.98137e-09
2.79176e-08
-4.72319e-08
1.20686e-08
3.04245e-08
-4.32016e-08
1.61634e-08
2.90656e-08
-4.00193e-08
1.96013e-08
2.43662e-08
-3.74632e-08
2.2486e-08
1.69532e-08
-3.54674e-08
2.47882e-08
7.57898e-09
-3.40401e-08
2.64312e-08
-2.89383e-09
-3.32069e-08
2.73335e-08
-1.35497e-08
-3.29739e-08
2.74551e-08
-2.34971e-08
-3.33061e-08
2.6815e-08
-3.19488e-08
-3.41196e-08
2.54953e-08
-3.82948e-08
-3.52831e-08
2.36358e-08
-4.21507e-08
-3.66306e-08
2.14109e-08
-4.33768e-08
-3.79784e-08
1.90091e-08
-4.20703e-08
-3.91382e-08
1.66085e-08
-3.85348e-08
-3.99222e-08
1.43571e-08
-3.32421e-08
-4.01319e-08
1.23565e-08
-2.67815e-08
-3.95505e-08
1.06549e-08
-1.98097e-08
-3.79077e-08
9.2327e-09
-1.29975e-08
-3.48461e-08
7.98719e-09
-6.97708e-09
-2.98603e-08
6.70481e-09
-2.35182e-09
-2.21432e-08
5.02265e-09
-1.01928e-08
2.36144e-09
-4.39588e-08
-9.89322e-08
-4.39581e-08
-5.79313e-08
-1.29392e-07
-5.11572e-08
-5.02623e-08
-1.26998e-07
-4.09747e-08
-3.13401e-08
-1.10662e-07
-2.46738e-08
-1.19663e-08
-9.76087e-08
-1.1755e-08
5.17647e-09
-8.69764e-08
-1.82435e-09
1.86653e-08
-7.92874e-08
5.55292e-09
2.8191e-08
-7.34346e-08
1.13167e-08
3.36834e-08
-6.88205e-08
1.60963e-08
3.52199e-08
-6.49936e-08
2.02555e-08
3.30032e-08
-6.17341e-08
2.39316e-08
2.74042e-08
-5.89755e-08
2.71112e-08
1.89877e-08
-5.67471e-08
2.96962e-08
8.50949e-09
-5.51175e-08
3.15556e-08
-3.12099e-09
-5.41523e-08
3.25759e-08
-1.49198e-08
-5.38747e-08
3.26996e-08
-2.59188e-08
-5.4249e-08
3.19419e-08
-3.52613e-08
-5.5174e-08
3.03968e-08
-4.22857e-08
-5.64849e-08
2.82262e-08
-4.65793e-08
-5.79703e-08
2.56334e-08
-4.79976e-08
-5.93971e-08
2.2837e-08
-4.66518e-08
-6.05222e-08
2.00383e-08
-4.28753e-08
-6.10979e-08
1.73992e-08
-3.71714e-08
-6.08699e-08
1.50341e-08
-3.0161e-08
-5.95518e-08
1.29909e-08
-2.25286e-08
-5.67847e-08
1.12446e-08
-1.49697e-08
-5.20856e-08
9.68062e-09
-8.15949e-09
-4.47343e-08
8.06368e-09
-2.79807e-09
-3.35012e-08
5.99664e-09
-1.58009e-08
2.81002e-09
-1.76904e-08
-6.35523e-08
-1.76895e-08
-2.39148e-08
-1.00991e-07
-2.21762e-08
-2.02094e-08
-1.1278e-07
-1.79236e-08
-9.24847e-09
-1.1171e-07
-9.91328e-09
3.6619e-09
-1.08152e-07
-2.36673e-09
1.61652e-08
-1.03702e-07
4.22228e-09
2.66401e-08
-9.95866e-08
9.82422e-09
3.42482e-08
-9.57934e-08
1.47508e-08
3.84864e-08
-9.23042e-08
1.92456e-08
3.91163e-08
-8.90521e-08
2.34287e-08
3.61355e-08
-8.60431e-08
2.72897e-08
2.97918e-08
-8.33511e-08
3.07194e-08
2.05908e-08
-8.10969e-08
3.35508e-08
9.28199e-09
-7.94107e-08
3.56021e-08
-3.19923e-09
-7.83952e-08
3.67241e-08
-1.58239e-08
-7.80925e-08
3.68424e-08
-2.75727e-08
-7.84697e-08
3.59695e-08
-3.75389e-08
-7.94148e-08
3.42071e-08
-4.50282e-08
-8.07373e-08
3.17416e-08
-4.96125e-08
-8.21924e-08
2.88064e-08
-5.115e-08
-8.35093e-08
2.56497e-08
-4.97673e-08
-8.43978e-08
2.24929e-08
-4.58203e-08
-8.45681e-08
1.95232e-08
-3.98341e-08
-8.37126e-08
1.68566e-08
-3.24489e-08
-8.14806e-08
1.45436e-08
-2.43625e-08
-7.74256e-08
1.25546e-08
-1.62897e-08
-7.09255e-08
1.07671e-08
-8.93733e-09
-6.10168e-08
8.93023e-09
-3.08339e-09
-4.5973e-08
6.61786e-09
-2.1982e-08
3.09776e-09
-6.66564e-09
-5.02221e-08
-6.66456e-09
-8.11317e-09
-9.14062e-08
-8.13766e-09
-4.23026e-09
-1.11043e-07
-5.61999e-09
4.02505e-09
-1.18869e-07
-1.09552e-09
1.39663e-08
-1.21794e-07
3.70056e-09
2.39107e-08
-1.22033e-07
8.38701e-09
3.24716e-08
-1.21022e-07
1.28745e-08
3.8716e-08
-1.19277e-07
1.72396e-08
4.1991e-08
-1.17117e-07
2.1538e-08
4.19047e-08
-1.14718e-07
2.57523e-08
3.83357e-08
-1.1225e-07
2.97757e-08
3.14512e-08
-1.09892e-07
3.34251e-08
2.1714e-08
-1.07833e-07
3.64729e-08
9.85654e-09
-1.06249e-07
3.86958e-08
-3.16991e-09
-1.05276e-07
3.99077e-08
-1.63117e-08
-1.04967e-07
4.00164e-08
-2.85193e-08
-1.05294e-07
3.90317e-08
-3.88551e-08
-1.06143e-07
3.70641e-08
-4.6607e-08
-1.07311e-07
3.43258e-08
-5.13404e-08
-1.08535e-07
3.10757e-08
-5.29236e-08
-1.09518e-07
2.75922e-08
-5.14993e-08
-1.09948e-07
2.41258e-08
-4.74421e-08
-1.095e-07
2.08745e-08
-4.12908e-08
-1.07827e-07
1.79632e-08
-3.36952e-08
-1.0452e-07
1.54439e-08
-2.5358e-08
-9.90446e-08
1.32818e-08
-1.70009e-08
-9.06304e-08
1.13477e-08
-9.35112e-09
-7.80485e-08
9.382e-09
-3.23142e-09
-5.90325e-08
6.9398e-09
-2.84612e-08
3.24776e-09
-1.63018e-09
-4.69628e-08
-1.62913e-09
-8.9261e-11
-9.18591e-08
-1.08797e-09
4.54419e-09
-1.16628e-07
9.52073e-10
1.18371e-08
-1.30119e-07
3.95631e-09
2.03177e-08
-1.37624e-07
7.3494e-09
2.87797e-08
-1.41469e-07
1.09742e-08
3.60946e-08
-1.43123e-07
1.47861e-08
4.13811e-08
-1.43352e-07
1.87884e-08
4.39502e-08
-1.4264e-07
2.29533e-08
4.33556e-08
-1.41313e-07
2.71896e-08
3.94101e-08
-1.39637e-07
3.13329e-08
3.2229e-08
-1.37864e-07
3.51529e-08
2.22388e-08
-1.36217e-07
3.83746e-08
1.01574e-08
-1.349e-07
4.07329e-08
-3.069e-09
-1.34061e-07
4.20107e-08
-1.63835e-08
-1.33761e-07
4.21083e-08
-2.87302e-08
-1.33978e-07
4.10308e-08
-3.91607e-08
-1.34604e-07
3.88911e-08
-4.69607e-08
-1.35434e-07
3.59228e-08
-5.16997e-08
-1.36211e-07
3.24153e-08
-5.32603e-08
-1.36631e-07
2.86736e-08
-5.18017e-08
-1.36373e-07
2.49668e-08
-4.77078e-08
-1.35096e-07
2.1503e-08
-4.15247e-08
-1.32426e-07
1.84159e-08
-3.39007e-08
-1.27903e-07
1.57588e-08
-2.55314e-08
-1.20907e-07
1.34933e-08
-1.71305e-08
-1.10516e-07
1.14844e-08
-9.42739e-09
-9.52199e-08
9.46826e-09
-3.2576e-09
-7.21967e-08
6.9944e-09
-3.4994e-08
3.27515e-09
6.42186e-10
-4.8248e-08
6.43022e-10
3.77121e-09
-9.73154e-08
2.3273e-09
8.97579e-09
-1.261e-07
4.26686e-09
1.58754e-08
-1.4361e-07
6.592e-09
2.35382e-08
-1.54543e-07
9.2561e-09
3.10504e-08
-1.61255e-07
1.2273e-08
3.74954e-08
-1.6522e-07
1.56516e-08
4.20785e-08
-1.67317e-07
1.93822e-08
4.41451e-08
-1.6812e-07
2.34137e-08
4.32339e-08
-1.68022e-07
2.76204e-08
3.91402e-08
-1.67346e-07
3.1803e-08
3.19381e-08
-1.66362e-07
3.57001e-08
2.20265e-08
-1.65308e-07
3.90022e-08
1.00959e-08
-1.64392e-07
4.14226e-08
-2.9273e-09
-1.63767e-07
4.27293e-08
-1.60138e-08
-1.63488e-07
4.28138e-08
-2.81308e-08
-1.6354e-07
4.16789e-08
-3.83473e-08
-1.63825e-07
3.94374e-08
-4.59607e-08
-1.64159e-07
3.63383e-08
-5.05576e-08
-1.64295e-07
3.26806e-08
-5.2035e-08
-1.6394e-07
2.87862e-08
-5.05635e-08
-1.62791e-07
2.49464e-08
-4.6529e-08
-1.60508e-07
2.13774e-08
-4.04755e-08
-1.56695e-07
1.82153e-08
-3.30319e-08
-1.50853e-07
1.55065e-08
-2.4872e-08
-1.4228e-07
1.32126e-08
-1.66846e-08
-1.29907e-07
1.12043e-08
-9.17801e-09
-1.11942e-07
9.21515e-09
-3.16839e-09
-8.50056e-08
6.79936e-09
-4.13486e-08
3.18624e-09
1.60117e-09
-5.14507e-08
1.60161e-09
5.41103e-09
-1.04929e-07
3.80364e-09
1.07868e-08
-1.37154e-07
5.67803e-09
1.73105e-08
-1.57776e-07
7.64256e-09
2.42955e-08
-1.71406e-07
9.87826e-09
3.10208e-08
-1.8047e-07
1.24902e-08
3.67362e-08
-1.86465e-07
1.55301e-08
4.0734e-08
-1.90312e-07
1.89966e-08
4.24227e-08
-1.92635e-07
2.28259e-08
4.13636e-08
-1.93853e-07
2.68902e-08
3.73388e-08
-1.94296e-07
3.09744e-08
3.04103e-08
-1.94234e-07
3.48012e-08
2.09454e-08
-1.93897e-07
3.80544e-08
9.59292e-09
-1.93482e-07
4.04417e-08
-2.76925e-09
-1.9312e-07
4.17156e-08
-1.51734e-08
-1.92871e-07
4.17866e-08
-2.66483e-08
-1.92721e-07
4.06557e-08
-3.63049e-08
-1.92584e-07
3.84159e-08
-4.34771e-08
-1.92302e-07
3.53153e-08
-4.77784e-08
-1.91655e-07
3.16611e-08
-4.91189e-08
-1.90385e-07
2.77857e-08
-4.76742e-08
-1.88206e-07
2.39705e-08
-4.38241e-08
-1.84796e-07
2.04373e-08
-3.80846e-08
-1.79755e-07
1.73206e-08
-3.10538e-08
-1.72552e-07
1.4668e-08
-2.33632e-08
-1.62414e-07
1.24431e-08
-1.56622e-08
-1.4812e-07
1.05113e-08
-8.60828e-09
-1.27619e-07
8.62302e-09
-2.96783e-09
-9.70071e-08
6.36098e-09
-4.73015e-08
2.98508e-09
1.88589e-09
-5.52222e-08
1.88555e-09
5.75589e-09
-1.12979e-07
4.17967e-09
1.08785e-08
-1.482e-07
5.92378e-09
1.68201e-08
-1.71334e-07
7.61626e-09
2.30371e-08
-1.87142e-07
9.51862e-09
2.89433e-08
-1.98159e-07
1.17831e-08
3.39128e-08
-2.05915e-07
1.44803e-08
3.73487e-08
-2.11361e-07
1.76128e-08
3.87242e-08
-2.15133e-07
2.1123e-08
3.76419e-08
-2.17654e-07
2.48824e-08
3.39007e-08
-2.19234e-07
2.86792e-08
2.75498e-08
-2.20132e-07
3.22481e-08
1.89185e-08
-2.20545e-07
3.52793e-08
8.59834e-09
-2.20657e-07
3.74953e-08
-2.61343e-09
-2.20573e-07
3.86645e-08
-1.38491e-08
-2.20356e-07
3.8721e-08
-2.4238e-08
-2.19993e-07
3.76613e-08
-3.29652e-08
-2.19414e-07
3.55575e-08
-3.94298e-08
-2.18481e-07
3.2644e-08
-4.32801e-08
-2.17003e-07
2.91987e-08
-4.44341e-08
-2.1477e-07
2.55384e-08
-4.30697e-08
-2.11514e-07
2.19428e-08
-3.95412e-08
-2.06948e-07
1.86243e-08
-3.43213e-08
-2.00681e-07
1.57061e-08
-2.7953e-08
-1.92154e-07
1.32343e-08
-2.10099e-08
-1.80533e-07
1.11764e-08
-1.40681e-08
-1.64474e-07
9.41261e-09
-7.722e-09
-1.41675e-07
7.71068e-09
-2.65891e-09
-1.07757e-07
5.68702e-09
-5.26352e-08
2.67479e-09
1.78988e-09
-5.88008e-08
1.78876e-09
5.28027e-09
-1.20345e-07
3.87629e-09
9.77294e-09
-1.58081e-07
5.38841e-09
1.48623e-08
-1.83227e-07
6.80356e-09
2.01163e-08
-2.00782e-07
8.38646e-09
2.5059e-08
-2.1339e-07
1.02876e-08
2.91898e-08
-2.22623e-07
1.25772e-08
3.20221e-08
-2.29462e-07
1.52694e-08
3.3104e-08
-2.34526e-07
1.83106e-08
3.21051e-08
-2.38237e-07
2.15825e-08
2.88506e-08
-2.40876e-07
2.4897e-08
2.33685e-08
-2.42663e-07
2.80138e-08
1.59562e-08
-2.43783e-07
3.06503e-08
7.11186e-09
-2.44379e-07
3.25663e-08
-2.47187e-09
-2.44554e-07
3.35652e-08
-1.2064e-08
-2.44371e-07
3.36068e-08
-2.09284e-08
-2.4382e-07
3.26916e-08
-2.83686e-08
-2.42827e-07
3.08535e-08
-3.3859e-08
-2.41281e-07
2.829e-08
-3.70935e-08
-2.39021e-07
2.5253e-08
-3.80237e-08
-2.35865e-07
2.20262e-08
-3.6797e-08
-2.31601e-07
1.88612e-08
-3.37281e-08
-2.25961e-07
1.59442e-08
-2.92321e-08
-2.18562e-07
1.33849e-08
-2.3775e-08
-2.0884e-07
1.12288e-08
-1.78417e-08
-1.95909e-07
9.44262e-09
-1.19294e-08
-1.78312e-07
7.92551e-09
-6.53898e-09
-1.53548e-07
6.48262e-09
-2.24541e-09
-1.16836e-07
4.78522e-09
-5.71399e-08
2.25927e-09
1.46292e-09
-6.17249e-08
1.46121e-09
4.25552e-09
-1.26274e-07
3.13585e-09
7.79723e-09
-1.65944e-07
4.32164e-09
1.17672e-08
-1.9261e-07
5.41282e-09
1.5829e-08
-2.1148e-07
6.6361e-09
1.96341e-08
-2.25314e-07
8.11898e-09
2.28045e-08
-2.35711e-07
9.91757e-09
2.4961e-08
-2.43669e-07
1.20506e-08
2.57587e-08
-2.49796e-07
1.44726e-08
2.49292e-08
-2.54494e-07
1.70861e-08
2.2331e-08
-2.58016e-07
1.97374e-08
1.79913e-08
-2.60542e-07
2.22189e-08
1.21418e-08
-2.62236e-07
2.43023e-08
5.17642e-09
-2.63218e-07
2.58044e-08
-2.35184e-09
-2.636e-07
2.65741e-08
-9.87555e-09
-2.63445e-07
2.65986e-08
-1.68254e-08
-2.62747e-07
2.58768e-08
-2.26362e-08
-2.61435e-07
2.44187e-08
-2.68999e-08
-2.59392e-07
2.23749e-08
-2.93816e-08
-2.5648e-07
1.99404e-08
-3.00405e-08
-2.52557e-07
1.73502e-08
-2.90032e-08
-2.47443e-07
1.48044e-08
-2.65252e-08
-2.40897e-07
1.24573e-08
-2.29415e-08
-2.32556e-07
1.04098e-08
-1.86174e-08
-2.21856e-07
8.69214e-09
-1.39439e-08
-2.07862e-07
7.27965e-09
-9.30279e-09
-1.89049e-07
6.09635e-09
-5.08319e-09
-1.62754e-07
4.98598e-09
-1.74052e-09
-1.23868e-07
3.68893e-09
-6.06325e-08
1.75213e-09
9.87244e-10
-6.36952e-08
9.83076e-10
2.84801e-09
-1.30229e-07
2.09495e-09
5.19421e-09
-1.71163e-07
2.87209e-09
7.81013e-09
-1.9882e-07
3.59396e-09
1.04869e-08
-2.18571e-07
4.41408e-09
1.29941e-08
-2.33242e-07
5.42049e-09
1.50829e-08
-2.44462e-07
6.66206e-09
1.64983e-08
-2.53228e-07
8.14366e-09
1.70083e-08
-2.60142e-07
9.83645e-09
1.64232e-08
-2.65576e-07
1.16671e-08
1.46395e-08
-2.69755e-07
1.35233e-08
1.167e-08
-2.72842e-07
1.52689e-08
7.662e-09
-2.74967e-07
1.67392e-08
2.89385e-09
-2.76246e-07
1.77962e-08
-2.25463e-09
-2.76782e-07
1.83308e-08
-7.38657e-09
-2.76651e-07
1.83375e-08
-1.21018e-08
-2.75848e-07
1.78162e-08
-1.6018e-08
-2.7429e-07
1.67707e-08
-1.88517e-08
-2.71876e-07
1.53177e-08
-2.04466e-08
-2.68478e-07
1.35927e-08
-2.07855e-08
-2.63978e-07
1.17602e-08
-1.99707e-08
-2.58231e-07
9.97286e-09
-1.81858e-08
-2.51018e-07
8.33588e-09
-1.56646e-08
-2.4199e-07
6.91315e-09
-1.26654e-08
-2.30589e-07
5.73295e-09
-9.4493e-09
-2.15855e-07
4.7765e-09
-6.27465e-09
-1.96208e-07
3.98426e-09
-3.41182e-09
-1.68877e-07
3.26036e-09
-1.15838e-09
-1.28549e-07
2.42768e-09
-6.29585e-08
1.1676e-09
4.16065e-10
-6.45226e-08
4.11346e-10
1.18658e-09
-1.31859e-07
8.59402e-10
2.16357e-09
-1.73314e-07
1.17444e-09
3.26005e-09
-2.01402e-07
1.4856e-09
4.39655e-09
-2.21573e-07
1.86529e-09
5.4772e-09
-2.36678e-07
2.35551e-09
6.39051e-09
-2.48352e-07
2.97705e-09
7.01494e-09
-2.57583e-07
3.72985e-09
7.23781e-09
-2.64967e-07
4.60229e-09
6.95201e-09
-2.70854e-07
5.56381e-09
6.09064e-09
-2.75451e-07
6.55693e-09
4.65404e-09
-2.78906e-07
7.50037e-09
2.69806e-09
-2.81313e-07
8.30206e-09
3.55148e-10
-2.82794e-07
8.89085e-09
-2.17805e-09
-2.83438e-07
9.18854e-09
-4.68411e-09
-2.83322e-07
9.17677e-09
-6.94764e-09
-2.82443e-07
8.85831e-09
-8.76745e-09
-2.80721e-07
8.25064e-09
-1.00142e-08
-2.78064e-07
7.43512e-09
-1.06254e-08
-2.74359e-07
6.49242e-09
-1.06104e-08
-2.69514e-07
5.52053e-09
-1.00438e-08
-2.63385e-07
4.58725e-09
-9.02968e-09
-2.55782e-07
3.75044e-09
-7.68018e-09
-2.46383e-07
3.04364e-09
-6.13665e-09
-2.34602e-07
2.46947e-09
-4.51884e-09
-2.19495e-07
2.02224e-09
-2.96092e-09
-1.99441e-07
1.67519e-09
-1.58106e-09
-1.71637e-07
1.37968e-09
-5.23086e-10
-1.30657e-07
1.05091e-09
-6.40118e-08
5.30237e-10
-2.07008e-10
-6.41028e-08
-2.12843e-10
-6.09071e-10
-1.30974e-07
-4.83541e-10
-1.11012e-09
-1.72148e-07
-6.65283e-10
-1.63217e-09
-2.00092e-07
-7.87342e-10
-2.12306e-09
-2.20214e-07
-8.68035e-10
-2.54007e-09
-2.35342e-07
-9.18647e-10
-2.85309e-09
-2.47094e-07
-9.44698e-10
-3.04529e-09
-2.56447e-07
-9.43381e-10
-3.11361e-09
-2.63984e-07
-9.14605e-10
-3.0686e-09
-2.70042e-07
-8.56434e-10
-2.93187e-09
-2.74822e-07
-7.65536e-10
-2.74256e-09
-2.78458e-07
-6.37373e-10
-2.53439e-09
-2.81033e-07
-4.88203e-10
-2.32568e-09
-2.82648e-07
-3.54263e-10
-2.11541e-09
-2.83368e-07
-2.79861e-10
-1.86907e-09
-2.83261e-07
-3.07236e-10
-1.55585e-09
-2.82325e-07
-4.30751e-10
-1.17376e-09
-2.80493e-07
-6.0932e-10
-7.54066e-10
-2.77699e-07
-7.84863e-10
-3.30116e-10
-2.73856e-07
-9.2725e-10
4.47368e-11
-2.68871e-07
-1.01792e-09
3.48495e-10
-2.62632e-07
-1.05672e-09
5.62576e-10
-2.54942e-07
-1.05384e-09
6.70638e-10
-2.45475e-07
-1.01559e-09
6.91001e-10
-2.33675e-07
-9.46661e-10
6.27484e-10
-2.18577e-07
-8.5393e-10
5.04363e-10
-1.98583e-07
-7.34997e-10
3.32085e-10
-1.70882e-07
-5.82125e-10
1.41146e-10
-1.30083e-07
-3.84029e-10
-6.3735e-08
-1.35608e-10
-8.45862e-10
-6.2405e-08
-8.51928e-10
-2.45212e-09
-1.2751e-07
-1.8578e-09
-4.4493e-09
-1.67608e-07
-2.54232e-09
-6.61394e-09
-1.94827e-07
-3.10093e-09
-8.74689e-09
-2.14437e-07
-3.64401e-09
-1.06756e-08
-2.29177e-07
-4.23602e-09
-1.2227e-08
-2.40627e-07
-4.91597e-09
-1.32479e-08
-2.49738e-07
-5.68837e-09
-1.36131e-08
-2.57083e-07
-6.536e-09
-1.32423e-08
-2.63e-07
-7.41302e-09
-1.21161e-08
-2.67692e-07
-8.25618e-09
-1.02874e-08
-2.71286e-07
-9.00053e-09
-7.8835e-09
-2.7386e-07
-9.57683e-09
-5.07559e-09
-2.75498e-07
-9.95778e-09
-2.06054e-09
-2.76238e-07
-1.0145e-08
9.96445e-10
-2.76137e-07
-1.0181e-08
3.92389e-09
-2.75188e-07
-1.00648e-08
6.52798e-09
-2.73346e-07
-9.75105e-09
8.61967e-09
-2.70572e-07
-9.2185e-09
1.00625e-08
-2.668e-07
-8.49895e-09
1.07905e-08
-2.61939e-07
-7.65922e-09
1.08117e-08
-2.55885e-07
-6.7684e-09
1.01961e-08
-2.48434e-07
-5.89313e-09
9.05824e-09
-2.39254e-07
-5.08407e-09
7.5404e-09
-2.27794e-07
-4.36298e-09
5.79428e-09
-2.13103e-07
-3.72789e-09
3.97436e-09
-1.93622e-07
-3.14134e-09
2.2482e-09
-1.66616e-07
-2.5402e-09
8.05809e-10
-1.26822e-07
-1.8183e-09
-6.2128e-08
-8.01249e-10
-1.46603e-09
-5.94649e-08
-1.47399e-09
-4.23907e-09
-1.21545e-07
-3.19144e-09
-7.68813e-09
-1.59794e-07
-4.36546e-09
-1.1435e-08
-1.85739e-07
-5.3406e-09
-1.51583e-08
-2.04389e-07
-6.32459e-09
-1.85427e-08
-2.18355e-07
-7.43786e-09
-2.129e-08
-2.29142e-07
-8.7373e-09
-2.31148e-08
-2.37665e-07
-1.02481e-08
-2.37778e-08
-2.4448e-07
-1.19398e-08
-2.31128e-08
-2.49925e-07
-1.37396e-08
-2.10472e-08
-2.54222e-07
-1.5536e-08
-1.76503e-08
-2.57502e-07
-1.71808e-08
-1.31189e-08
-2.59863e-07
-1.85285e-08
-7.7733e-09
-2.6137e-07
-1.94739e-08
-2.00688e-09
-2.62059e-07
-1.99458e-08
3.80567e-09
-2.61958e-07
-1.99915e-08
9.28315e-09
-2.61063e-07
-1.96026e-08
1.40289e-08
-2.59361e-07
-1.87313e-08
1.77091e-08
-2.56819e-07
-1.74334e-08
2.01058e-08
-2.53376e-07
-1.582e-08
2.11432e-08
-2.48941e-07
-1.4036e-08
2.08731e-08
-2.43388e-07
-1.22269e-08
1.94499e-08
-2.36499e-07
-1.05114e-08
1.71057e-08
-2.27942e-07
-8.96691e-09
1.41051e-08
-2.17166e-07
-7.62793e-09
1.07407e-08
-2.03268e-07
-6.47098e-09
7.30109e-09
-1.84742e-07
-5.43989e-09
4.08228e-09
-1.58983e-07
-4.41401e-09
1.44405e-09
-1.20994e-07
-3.18933e-09
-5.92441e-08
-1.43983e-09
-2.03852e-09
-5.53801e-08
-2.0463e-09
-5.88335e-09
-1.13283e-07
-4.41733e-09
-1.06684e-08
-1.48972e-07
-6.03641e-09
-1.58706e-08
-1.73145e-07
-7.39248e-09
-2.10487e-08
-1.90438e-07
-8.77242e-09
-2.57695e-08
-2.03285e-07
-1.03491e-08
-2.96144e-08
-2.13087e-07
-1.22108e-08
-3.21823e-08
-2.20711e-07
-1.4386e-08
-3.31326e-08
-2.26684e-07
-1.68465e-08
-3.22061e-08
-2.31358e-07
-1.94943e-08
-2.92951e-08
-2.34963e-07
-2.217e-08
-2.44638e-08
-2.37659e-07
-2.4674e-08
-1.79808e-08
-2.39562e-07
-2.6784e-08
-1.02861e-08
-2.40757e-07
-2.83077e-08
-1.95074e-09
-2.41293e-07
-2.91008e-08
6.4328e-09
-2.4119e-07
-2.91511e-08
1.42679e-08
-2.40453e-07
-2.84452e-08
2.09699e-08
-2.39068e-07
-2.69953e-08
2.60889e-08
-2.36992e-07
-2.49458e-08
2.93401e-08
-2.34151e-07
-2.24764e-08
3.0641e-08
-2.3043e-07
-1.98116e-08
3.00848e-08
-2.25673e-07
-1.71584e-08
2.79124e-08
-2.19648e-07
-1.46782e-08
2.44588e-08
-2.12016e-07
-1.24728e-08
2.01068e-08
-2.0224e-07
-1.05736e-08
1.52609e-08
-1.89467e-07
-8.9544e-09
1.03389e-08
-1.72295e-07
-7.52567e-09
5.76217e-09
-1.48292e-07
-6.11456e-09
2.02607e-09
-1.12821e-07
-4.43688e-09
-5.51964e-08
-2.02165e-09
-2.53768e-09
-5.02971e-08
-2.54529e-09
-7.31506e-09
-1.03018e-07
-5.4876e-09
-1.32543e-08
-1.35542e-07
-7.49095e-09
-1.97165e-08
-1.57517e-07
-9.16564e-09
-2.61488e-08
-1.73137e-07
-1.08689e-08
-3.20208e-08
-1.84592e-07
-1.28212e-08
-3.68041e-08
-1.93165e-07
-1.5138e-08
-4.00074e-08
-1.99651e-07
-1.78567e-08
-4.11948e-08
-2.0456e-07
-2.09355e-08
-4.00449e-08
-2.08244e-07
-2.42633e-08
-3.64071e-08
-2.10946e-07
-2.76542e-08
-3.0345e-08
-2.12859e-07
-3.0862e-08
-2.21782e-08
-2.14133e-07
-3.35958e-08
-1.24487e-08
-2.14889e-07
-3.55977e-08
-1.88917e-09
-2.15201e-07
-3.66517e-08
8.71757e-09
-2.15101e-07
-3.66964e-08
1.85836e-08
-2.14592e-07
-3.57266e-08
2.69738e-08
-2.13658e-07
-3.37995e-08
3.33232e-08
-2.1222e-07
-3.11219e-08
3.7299e-08
-2.10177e-07
-2.79504e-08
3.88196e-08
-2.07375e-07
-2.45762e-08
3.80178e-08
-2.03624e-07
-2.12474e-08
3.52045e-08
-1.98682e-07
-1.81533e-08
3.0797e-08
-1.922e-07
-1.5409e-08
2.52787e-08
-1.83664e-07
-1.30581e-08
1.91631e-08
-1.72287e-07
-1.10651e-08
1.29626e-08
-1.5678e-07
-9.31378e-09
7.20953e-09
-1.34956e-07
-7.58295e-09
2.53055e-09
-1.02625e-07
-5.51763e-09
-5.01402e-08
-2.52561e-09
-2.94024e-09
-4.44091e-08
-2.94775e-09
-8.46934e-09
-9.11406e-08
-6.34816e-09
-1.53416e-08
-1.20016e-07
-8.65364e-09
-2.28134e-08
-1.39469e-07
-1.05756e-08
-3.02514e-08
-1.53172e-07
-1.25268e-08
-3.70392e-08
-1.63051e-07
-1.47533e-08
-4.25676e-08
-1.70247e-07
-1.73903e-08
-4.62644e-08
-1.75472e-07
-2.04817e-08
-4.76258e-08
-1.79214e-07
-2.3985e-08
-4.62807e-08
-1.81806e-07
-2.77834e-08
-4.20487e-08
-1.83515e-07
-3.16627e-08
-3.50001e-08
-1.84564e-07
-3.53439e-08
-2.54904e-08
-1.85141e-07
-3.85013e-08
-1.41478e-08
-1.85404e-07
-4.08274e-08
-1.82147e-09
-1.85463e-07
-4.20649e-08
1.05513e-08
-1.85368e-07
-4.21052e-08
2.20295e-08
-1.85128e-07
-4.09424e-08
3.17513e-08
-1.84696e-07
-3.86841e-08
3.90812e-08
-1.83968e-07
-3.55819e-08
4.36427e-08
-1.82801e-07
-3.19372e-08
4.53488e-08
-1.81004e-07
-2.80763e-08
4.43625e-08
-1.78357e-07
-2.42803e-08
4.10443e-08
-1.74597e-07
-2.07662e-08
3.58793e-08
-1.69381e-07
-1.76538e-08
2.94322e-08
-1.6223e-07
-1.4987e-08
2.22948e-08
-1.52426e-07
-1.2723e-08
1.50705e-08
-1.3883e-07
-1.07259e-08
8.37561e-09
-1.19512e-07
-8.74861e-09
2.93541e-09
-9.08034e-08
-6.38108e-09
-4.42749e-08
-2.92989e-09
-3.23324e-09
-3.79357e-08
-3.24016e-09
-9.30674e-09
-7.80959e-08
-6.97127e-09
-1.68495e-08
-1.0298e-07
-9.49292e-09
-2.50512e-08
-1.19689e-07
-1.15785e-08
-3.32143e-08
-1.3133e-07
-1.3679e-08
-4.06564e-08
-1.39542e-07
-1.60665e-08
-4.67118e-08
-1.45308e-07
-1.88836e-08
-5.07463e-08
-1.49263e-07
-2.21747e-08
-5.22131e-08
-1.51845e-07
-2.59027e-08
-5.07053e-08
-1.5338e-07
-2.99339e-08
-4.60308e-08
-1.54145e-07
-3.40448e-08
-3.82666e-08
-1.54377e-07
-3.79505e-08
-2.78002e-08
-1.54305e-07
-4.13031e-08
-1.53162e-08
-1.54111e-07
-4.37771e-08
-1.74689e-09
-1.53936e-07
-4.50954e-08
1.18659e-08
-1.53851e-07
-4.51304e-08
2.44783e-08
-1.53858e-07
-4.38822e-08
3.51483e-08
-1.53898e-07
-4.14676e-08
4.3183e-08
-1.53841e-07
-3.81613e-08
4.81723e-08
-1.53501e-07
-3.42894e-08
5.00262e-08
-1.52661e-07
-3.01974e-08
4.89227e-08
-1.51082e-07
-2.61717e-08
4.52494e-08
-1.48487e-07
-2.24372e-08
3.95464e-08
-1.44548e-07
-1.91294e-08
3.24297e-08
-1.38826e-07
-1.62871e-08
2.45557e-08
-1.30686e-07
-1.38662e-08
1.65916e-08
-1.19145e-07
-1.17214e-08
9.21587e-09
-1.02554e-07
-9.58289e-09
3.22848e-09
-7.7813e-08
-7.00298e-09
-3.78237e-08
-3.22272e-09
-3.40491e-09
-3.11196e-08
-3.41119e-09
-9.79356e-09
-6.43755e-08
-7.33174e-09
-1.77304e-08
-8.50783e-08
-9.96531e-09
-2.63638e-08
-9.89293e-08
-1.21265e-08
-3.49616e-08
-1.08446e-07
-1.42861e-08
-4.27994e-08
-1.1498e-07
-1.6724e-08
-4.91644e-08
-1.19355e-07
-1.95877e-08
-5.33888e-08
-1.22115e-07
-2.29243e-08
-5.48984e-08
-1.23649e-07
-2.66858e-08
-5.32718e-08
-1.24269e-07
-3.07371e-08
-4.83172e-08
-1.24239e-07
-3.48609e-08
-4.01155e-08
-1.23812e-07
-3.87672e-08
-2.90864e-08
-1.2322e-07
-4.21139e-08
-1.59451e-08
-1.2267e-07
-4.45824e-08
-1.66413e-09
-1.22316e-07
-4.59017e-08
1.26578e-08
-1.22241e-07
-4.59315e-08
2.59193e-08
-1.22449e-07
-4.46701e-08
3.71422e-08
-1.22868e-07
-4.22535e-08
4.55934e-08
-1.23343e-07
-3.89492e-08
5.08493e-08
-1.23682e-07
-3.50742e-08
5.28053e-08
-1.23648e-07
-3.09689e-08
5.16422e-08
-1.22994e-07
-2.69252e-08
4.77646e-08
-1.21449e-07
-2.31605e-08
4.17346e-08
-1.18707e-07
-1.98112e-08
3.42104e-08
-1.14375e-07
-1.69265e-08
2.58898e-08
-1.07906e-07
-1.44591e-08
1.74813e-08
-9.84741e-08
-1.22621e-08
9.70553e-09
-8.47268e-08
-1.0051e-08
3.39921e-09
-6.41465e-08
-7.36019e-09
-3.10308e-08
-3.39367e-09
-3.44441e-09
-2.42256e-08
-3.44956e-09
-9.90763e-09
-5.05037e-08
-7.40857e-09
-1.79521e-08
-6.69827e-08
-1.00511e-08
-2.67224e-08
-7.79613e-08
-1.21976e-08
-3.54706e-08
-8.53739e-08
-1.43242e-08
-4.3451e-08
-9.02876e-08
-1.67122e-08
-4.99281e-08
-9.33722e-08
-1.95056e-08
-5.42155e-08
-9.50794e-08
-2.27478e-08
-5.57259e-08
-9.575e-08
-2.63888e-08
-5.40389e-08
-9.56584e-08
-3.0298e-08
-4.89681e-08
-9.5051e-08
-3.42585e-08
-4.06146e-08
-9.4169e-08
-3.79965e-08
-2.94024e-08
-9.32403e-08
-4.11919e-08
-1.60608e-08
-9.24684e-08
-4.35428e-08
-1.57161e-09
-9.20104e-08
-4.47946e-08
1.29555e-08
-9.19484e-08
-4.48197e-08
2.64088e-08
-9.2286e-08
-4.36167e-08
3.77994e-08
-9.2948e-08
-4.13105e-08
4.63896e-08
-9.37819e-08
-3.81515e-08
5.17403e-08
-9.45909e-08
-3.44421e-08
5.37374e-08
-9.51458e-08
-3.04992e-08
5.25517e-08
-9.52092e-08
-2.65986e-08
4.85949e-08
-9.45351e-08
-2.29569e-08
4.24352e-08
-9.28419e-08
-1.97054e-08
3.47518e-08
-8.97969e-08
-1.68951e-08
2.62656e-08
-8.49387e-08
-1.44815e-08
1.77108e-08
-7.75996e-08
-1.23197e-08
9.82122e-09
-6.67091e-08
-1.01282e-08
3.43701e-09
-5.03286e-08
-7.43365e-09
-2.41613e-08
-3.43253e-09
-3.33858e-09
-1.75436e-08
-3.34339e-09
-9.62286e-09
-3.7048e-08
-7.1714e-09
-1.74806e-08
-4.94177e-08
-9.70727e-09
-2.60962e-08
-5.76021e-08
-1.17435e-08
-3.47271e-08
-6.29975e-08
-1.37456e-08
-4.26221e-08
-6.64038e-08
-1.59888e-08
-4.90393e-08
-6.8343e-08
-1.8612e-08
-5.32821e-08
-6.91845e-08
-2.1652e-08
-5.47737e-08
-6.92003e-08
-2.5058e-08
-5.31012e-08
-6.86273e-08
-2.87036e-08
-4.80907e-08
-6.7677e-08
-3.23845e-08
-3.98543e-08
-6.65619e-08
-3.58435e-08
-2.88184e-08
-6.54878e-08
-3.87883e-08
-1.57022e-08
-6.46356e-08
-4.0949e-08
-1.46585e-09
-6.41471e-08
-4.20996e-08
1.28055e-08
-6.40988e-08
-4.21209e-08
2.60243e-08
-6.44934e-08
-4.10114e-08
3.72256e-08
-6.52611e-08
-3.88881e-08
4.56793e-08
-6.6262e-08
-3.59737e-08
5.09476e-08
-6.73189e-08
-3.25403e-08
5.29081e-08
-6.82284e-08
-2.88779e-08
5.17216e-08
-6.87813e-08
-2.52415e-08
4.77842e-08
-6.87611e-08
-2.18366e-08
4.16674e-08
-6.79353e-08
-1.87898e-08
3.40501e-08
-6.6027e-08
-1.61527e-08
2.5665e-08
-6.26665e-08
-1.38871e-08
1.7252e-08
-5.73323e-08
-1.18543e-08
9.53816e-09
-4.92178e-08
-9.7774e-09
3.33056e-09
-3.69267e-08
-7.19434e-09
-1.75028e-08
-3.32787e-09
-3.06899e-09
-1.1402e-08
-3.07266e-09
-8.89863e-09
-2.46402e-08
-6.57811e-09
-1.62742e-08
-3.31721e-08
-8.87001e-09
-2.44488e-08
-3.87424e-08
-1.06852e-08
-3.27058e-08
-4.2277e-08
-1.24634e-08
-4.03017e-08
-4.43415e-08
-1.44664e-08
-4.64968e-08
-4.5323e-08
-1.68249e-08
-5.06115e-08
-4.54992e-08
-1.95706e-08
-5.2078e-08
-4.50826e-08
-2.26513e-08
-5.05057e-08
-4.42541e-08
-2.59454e-08
-4.57364e-08
-4.31827e-08
-2.92636e-08
-3.7889e-08
-4.20379e-08
-3.23714e-08
-2.73768e-08
-4.09865e-08
-3.50134e-08
-1.489e-08
-4.01752e-08
-3.69471e-08
-1.34154e-09
-3.97211e-08
-3.79745e-08
1.22385e-08
-3.96864e-08
-3.79925e-08
2.48182e-08
-4.0073e-08
-3.70001e-08
3.54797e-08
-4.08224e-08
-3.51002e-08
4.35253e-08
-4.18212e-08
-3.24864e-08
4.85298e-08
-4.29242e-08
-2.93992e-08
5.03654e-08
-4.39675e-08
-2.60965e-08
4.91762e-08
-4.47806e-08
-2.28115e-08
4.53443e-08
-4.51964e-08
-1.97328e-08
3.94231e-08
-4.50315e-08
-1.69825e-08
3.2083e-08
-4.40743e-08
-1.46126e-08
2.40525e-08
-4.20455e-08
-1.25906e-08
1.6063e-08
-3.85573e-08
-1.07855e-08
8.82022e-09
-3.30406e-08
-8.93441e-09
3.06039e-09
-2.45664e-08
-6.60047e-09
-1.13823e-08