/*--------------------------------*- C++ -*----------------------------------*\
| =========                 |                                                 |
| \\      /  F ield         | OpenFOAM: The Open Source CFD Toolbox           |
|  \\    /   O peration     | Version:  v1906                                 |
|   \\  /    A nd           | Web:      www.OpenFOAM.com                      |
|    \\/     M anipulation  |                                                 |
\*---------------------------------------------------------------------------*/
FoamFile
{
    version     2.0;
    format      ascii;
    class       volScalarField;
    location    "68.6/sphere";
    object      T;
}
// * * * * * * * * * * * * * * * * * * * * * * * * * * * * * * * * * * * * * //

dimensions      [0 0 0 1 0 0 0];


internalField   nonuniform List<scalar> 
304
(
463.838
463.866
463.862
463.879
463.837
463.829
463.837
463.866
463.837
463.979
463.979
463.878
463.861
463.974
463.974
463.904
463.867
463.899
463.827
463.865
463.881
463.837
463.867
463.979
463.978
463.908
463.879
463.974
463.975
463.93
463.827
463.898
463.926
463.861
463.838
463.88
463.907
463.842
463.84
463.905
463.93
463.867
463.827
463.862
463.816
463.825
463.838
463.839
463.84
463.872
463.838
463.838
463.872
463.84
463.826
463.839
463.842
463.839
463.872
463.866
463.866
463.881
463.879
463.908
463.907
463.932
463.838
463.881
463.866
463.908
463.879
463.932
463.908
463.839
463.842
463.872
463.84
463.834
463.833
463.866
463.828
463.878
463.826
463.858
463.903
463.929
463.867
463.9
463.864
463.859
463.829
463.93
463.904
463.901
463.869
463.868
463.836
463.829
463.813
463.827
463.825
463.86
463.826
463.861
463.827
463.826
463.813
463.839
463.837
463.837
463.871
463.866
463.878
463.908
463.865
463.882
463.908
463.934
463.838
463.909
463.879
463.882
463.866
463.934
463.908
463.84
463.838
463.871
463.838
463.879
463.866
463.907
463.866
463.908
463.881
463.932
463.837
463.907
463.867
463.908
463.867
463.932
463.881
463.903
463.827
463.869
463.879
463.93
463.859
463.9
463.863
463.87
463.829
463.93
463.879
463.901
463.86
463.827
463.828
463.861
463.826
463.898
463.825
463.856
463.899
463.926
463.856
463.874
463.867
463.857
463.825
463.926
463.899
463.874
463.857
463.86
463.827
463.826
463.836
463.838
463.871
463.842
463.881
463.908
463.933
463.836
463.865
463.879
463.908
463.865
463.933
463.907
463.865
463.834
463.907
463.876
463.871
463.837
463.838
463.909
463.881
463.932
463.84
463.881
463.868
463.909
463.866
463.932
463.881
463.879
463.839
463.907
463.866
463.93
463.86
463.901
463.865
463.906
463.83
463.871
463.879
463.901
463.86
463.904
463.863
463.87
463.829
463.86
463.826
463.828
463.926
463.856
463.874
463.868
463.899
463.826
463.857
463.899
463.875
463.858
463.9
463.869
463.858
463.829
463.829
463.827
463.829
463.829
463.836
463.841
463.871
463.837
463.87
463.838
463.837
463.825
463.844
463.84
463.874
463.841
463.908
463.908
463.933
463.841
463.867
463.867
463.881
463.878
463.932
463.907
463.865
463.837
463.881
463.866
463.872
463.839
463.838
463.87
463.832
463.836
463.93
463.87
463.901
463.863
463.879
463.828
463.86
463.904
463.901
463.87
463.879
463.862
463.86
463.829
463.835
463.83
463.834
463.816
463.861
463.827
463.829
463.829
463.828
463.828
)
;

boundaryField
{
    sphere_to_oil
    {
        type            compressible::turbulentTemperatureCoupledBaffleMixed;
        refValue        nonuniform List<scalar> 
360
(
334.344
334.344
322.682
357.882
365.705
325.146
366.75
366.75
366.75
344.962
344.962
328.867
333.13
321.03
344.099
353.822
349.984
349.984
349.984
322.552
348.831
326.933
330.462
360.459
317.347
360.707
322.823
360.664
360.664
360.664
367.35
359.578
322.62
322.27
328.648
328.741
350.915
350.915
350.915
350.226
353.72
327.132
328.009
334.792
334.792
322.646
330.707
314.688
333.709
361.047
325.071
325.172
332.509
333.016
322.354
326.722
350.531
322.678
328.105
335.398
319.853
361.858
361.858
361.858
314.733
360.383
333.612
324.375
365.243
365.243
365.243
366.208
364.85
320.153
349.302
343.417
322.154
329.636
353.737
351.024
331.247
322.882
330.908
319.699
322.596
324.747
328.89
332.888
321.67
322.802
322.799
331.971
328.526
322.949
331.64
328.559
329.076
329.082
325.11
317.336
317.452
322.442
325.102
328.525
331.915
322.342
320.939
333.069
324.794
329.054
329.069
328.903
325.043
322.542
314.919
314.879
329.32
324.548
330.472
334.174
334.174
357.882
357.882
360.459
360.459
358.42
358.42
358.42
359.825
359.825
359.825
329.787
324.789
329.268
323.466
365.705
365.705
341.223
341.223
367.35
367.35
340.449
340.449
366.648
366.648
366.648
323.112
322.748
354.323
354.323
354.323
354.153
354.153
354.153
353.822
348.831
344.099
353.822
353.738
322.582
353.738
353.738
330.479
331.275
322.991
327.022
327.022
355.088
355.088
355.088
319.841
348.831
326.933
354.177
354.177
319.692
354.177
331.245
322.879
314.761
322.824
323.147
331.281
317.236
330.76
323.092
314.811
317.482
360.707
360.707
359.578
359.578
335.168
335.168
357.91
357.91
357.91
333.444
333.444
317.179
328.082
325.412
332.126
328.257
324.834
331.965
324.824
333.147
329.119
324.679
350.226
332.994
329.266
322.694
354.504
354.504
354.504
327.515
327.515
319.718
328.226
328.048
335.272
353.72
327.033
335.169
328.362
350.226
353.72
327.31
322.679
327.31
320.118
314.845
330.636
317.287
322.992
322.874
323.133
317.103
317.097
361.787
356.853
361.787
361.787
356.853
356.853
361.047
360.383
333.709
359.189
317.314
361.047
359.189
359.189
331.398
322.326
328.293
331.862
322.969
366.208
328.371
328.823
328.899
324.936
350.531
349.302
329.095
328.939
325.002
350.055
353.631
326.722
354.098
319.893
350.531
354.098
354.098
335.739
327.007
353.737
328.154
328.216
327.959
354.113
326.955
353.85
327.156
350.055
327.156
354.113
350.055
354.113
314.646
324.623
328.829
329.006
334.019
357.989
334.019
357.989
357.989
317.187
360.383
359.068
333.612
359.068
317.186
359.068
329.924
329.593
321.835
364.268
341.16
364.268
364.268
341.16
322.394
324.789
328.158
331.786
364.85
366.208
340.665
323.127
364.85
340.665
322.374
349.302
354.217
343.417
354.217
321.406
354.217
333.176
351.024
325.027
329.32
353.42
350.64
353.631
342.991
353.631
353.42
342.991
353.42
322.735
330.746
353.737
326.969
319.76
351.024
326.969
322.926
353.85
350.64
353.85
327.141
350.64
327.141
)
;
        refGradient     uniform 0;
        valueFraction   nonuniform List<scalar> 
360
(
0.000137558
0.000131968
8.44874e-05
0.000301822
0.000309545
0.000177499
0.000311469
0.000267356
0.000416147
0.0001325
0.000129185
0.000173306
0.000264124
7.55192e-05
0.000135092
0.000262606
0.000300941
0.000281187
0.00039457
6.91049e-05
0.000259069
0.000127361
0.000117382
0.000311488
9.04372e-05
0.000320173
0.000180477
0.000316038
0.000413596
0.000276669
0.00031609
0.000318813
8.56085e-05
8.4652e-05
0.000177647
0.000174821
0.00029582
0.000401045
0.000275391
0.000414075
0.00040902
8.73376e-05
0.000173234
0.000126432
0.00012628
0.000178328
0.000266795
7.11805e-05
0.000127364
0.000270071
0.000175919
0.000177061
0.000263927
0.000261362
7.38424e-05
0.000135085
0.000275473
7.0739e-05
0.000175243
0.000261324
6.92412e-05
0.000307639
0.000271572
0.000425037
7.1384e-05
0.000277672
0.000129523
0.000125274
0.000314747
0.000410598
0.000276199
0.000395947
0.00040149
7.66809e-05
0.000267702
0.000135806
7.06976e-05
0.000126773
0.000400651
0.000416204
0.00012434
0.000121994
0.000119824
7.12135e-05
8.58744e-05
0.0001741
0.000175075
0.000265132
8.00333e-05
6.75771e-05
8.49879e-05
0.000264699
0.000174743
8.68157e-05
0.000264262
0.000176738
0.000175693
0.000175965
8.58085e-05
6.87799e-05
6.97447e-05
6.88164e-05
0.000176913
0.000173881
0.000264499
7.78725e-05
6.76407e-05
0.000264308
8.39668e-05
0.000174157
0.000174189
0.000177743
8.69145e-05
6.95974e-05
6.78746e-05
6.91859e-05
0.000120428
0.000120573
0.000125257
0.000135823
0.000127655
0.000263764
0.000415511
0.000277894
0.000419332
0.000268794
0.000413249
0.000307689
0.000269011
0.000404254
0.000303024
0.0001236
0.000116887
0.000119722
6.60911e-05
0.000274099
0.000412686
0.000127685
0.000128269
0.000417057
0.000277294
0.000133851
0.000141072
0.000411923
0.000282976
0.00032607
7.27372e-05
6.76901e-05
0.000285705
0.000395918
0.000313824
0.00029417
0.000409625
0.000313791
0.00032398
0.000298426
0.000139595
0.000416089
0.000268768
7.49334e-05
0.000404412
0.000302633
0.000115493
0.000121677
0.000120374
0.000126988
0.000132743
0.000414012
0.000272604
0.00031998
7.67219e-05
0.000398262
0.000136563
0.000418783
0.000268091
7.49407e-05
0.000317876
0.000116518
0.000117599
6.87079e-05
0.000180091
0.00018002
0.000266187
8.8766e-05
0.000266589
0.000175413
6.80024e-05
6.60326e-05
0.000416575
0.000264689
0.000411685
0.000274476
0.000130925
0.00012244
0.000413605
0.0002585
0.000298801
0.000121027
0.000140429
7.06487e-05
0.000176926
0.000176766
0.000264101
0.000172926
0.000173816
0.000263061
9.01661e-05
0.000263963
0.000178979
8.76839e-05
0.00029711
0.000263671
0.000177907
7.09014e-05
0.000404579
0.000262282
0.000306871
0.000127847
0.000118808
6.8627e-05
0.000175553
0.000178505
0.000264666
0.000300915
8.41603e-05
0.000262155
0.000171215
0.000260422
0.000275696
0.000125148
7.02935e-05
0.000138871
7.11628e-05
6.69851e-05
0.000267618
8.93101e-05
0.000179916
0.000177836
0.000175716
8.81875e-05
6.73632e-05
0.000273626
0.000256394
0.000430425
0.000320388
0.000401563
0.000288524
0.000309246
0.000316625
0.00014074
0.000271625
7.31824e-05
0.000413343
0.000401915
0.000305371
0.000266346
8.48679e-05
0.000173306
0.000263283
8.5628e-05
0.000313719
0.000174056
0.000175302
0.000173686
8.51103e-05
0.000311384
0.000291794
0.000177204
0.000172622
8.6749e-05
0.000292369
0.00032182
0.000127631
0.000288893
6.86117e-05
0.000411584
0.000399032
0.000301513
0.000261333
8.58508e-05
0.000301987
0.000173888
0.000174156
0.000175147
0.000303632
8.66552e-05
0.000310222
0.000130535
0.000267469
0.000131624
0.00027256
0.00041536
0.000407765
6.85781e-05
0.000137424
0.0001358
0.000132825
0.000120961
0.000404689
0.000132114
0.000269042
0.00031681
6.75787e-05
0.000408639
0.000408145
0.000133613
0.000290203
7.08197e-05
0.000311118
0.000118456
0.00011637
7.07612e-05
0.000400241
0.000119618
0.000262484
0.000309137
0.000128242
6.99097e-05
0.000173952
0.000173893
0.000262399
0.000300247
0.000260424
0.000125911
6.77757e-05
0.000264786
0.000139844
7.8276e-05
0.000383719
0.000412037
0.000121775
0.000261737
7.25664e-05
0.000329174
0.00026441
0.000316799
8.66642e-05
0.000174702
0.000305434
0.000296113
0.000278576
0.000124516
0.000408072
0.000407194
0.00014781
0.000272185
0.000119757
0.000121594
0.000274021
0.000135646
7.33405e-05
0.000277135
0.000130615
6.77288e-05
0.000403353
0.000408195
0.000268579
0.000130343
0.000263819
0.00013464
)
;
        value           nonuniform List<scalar> 
360
(
463.84
463.84
463.846
463.825
463.827
463.861
463.827
463.832
463.82
463.837
463.837
463.857
463.863
463.845
463.84
463.827
463.811
463.814
463.799
463.838
463.818
463.831
463.816
463.823
463.842
463.823
463.86
463.824
463.816
463.828
463.825
463.822
463.844
463.844
463.856
463.859
463.813
463.801
463.815
463.799
463.801
463.833
463.852
463.839
463.841
463.859
463.865
463.845
463.839
463.828
463.862
463.861
463.864
463.864
463.835
463.827
463.815
463.838
463.852
463.86
463.836
463.824
463.828
463.816
463.846
463.828
463.84
463.826
463.828
463.823
463.832
463.823
463.821
463.848
463.828
463.843
463.844
463.818
463.802
463.799
463.818
463.818
463.819
463.836
463.847
463.86
463.859
463.863
463.841
463.838
463.845
463.865
463.862
463.843
463.865
463.861
463.858
463.855
463.836
463.847
463.847
463.848
463.861
463.861
463.865
463.847
463.843
463.862
463.833
463.854
463.859
463.854
463.836
463.837
463.847
463.847
463.828
463.828
463.828
463.84
463.841
463.829
463.815
463.829
463.816
463.829
463.816
463.824
463.829
463.817
463.825
463.828
463.828
463.829
463.849
463.831
463.82
463.842
463.843
463.821
463.831
463.842
463.841
463.821
463.831
463.824
463.848
463.843
463.821
463.803
463.811
463.82
463.802
463.812
463.812
463.814
463.838
463.802
463.825
463.844
463.803
463.815
463.817
463.816
463.815
463.829
463.827
463.799
463.815
463.81
463.834
463.8
463.826
463.8
463.815
463.834
463.809
463.817
463.815
463.845
463.86
463.859
463.865
463.844
463.865
463.86
463.846
463.847
463.815
463.828
463.815
463.828
463.839
463.841
463.815
463.83
463.824
463.841
463.839
463.847
463.86
463.86
463.865
463.862
463.861
463.865
463.834
463.863
463.853
463.836
463.814
463.864
463.855
463.837
463.802
463.817
463.811
463.829
463.829
463.835
463.852
463.851
463.859
463.811
463.832
463.859
463.852
463.817
463.814
463.829
463.836
463.826
463.835
463.845
463.865
463.842
463.859
463.859
463.86
463.84
463.847
463.827
463.83
463.817
463.823
463.818
463.828
463.822
463.821
463.838
463.828
463.846
463.814
463.815
463.826
463.865
463.847
463.863
463.866
463.845
463.827
463.862
463.855
463.861
463.837
463.814
463.816
463.855
463.859
463.836
463.815
463.813
463.828
463.814
463.835
463.8
463.803
463.812
463.86
463.833
463.812
463.853
463.853
463.853
463.814
463.836
463.814
463.83
463.817
463.828
463.816
463.8
463.803
463.845
463.829
463.829
463.83
463.84
463.817
463.839
463.828
463.826
463.846
463.815
463.815
463.838
463.825
463.845
463.823
463.828
463.828
463.849
463.823
463.845
463.834
463.829
463.844
463.85
463.862
463.863
463.866
463.826
463.833
463.843
463.849
463.831
463.84
463.846
463.807
463.805
463.84
463.826
463.845
463.811
463.863
463.811
463.835
463.855
463.814
463.814
463.823
463.839
463.804
463.804
463.835
463.823
463.818
463.819
463.816
463.828
463.836
463.816
463.83
463.838
463.803
463.801
463.817
463.829
463.817
463.829
)
;
        Tnbr            T;
        thicknessLayers 0();
        kappaLayers     0();
        kappaMethod     solidThermo;
        kappa           none;
        alphaAni        none;
    }
}


// ************************************************************************* //
