/*--------------------------------*- C++ -*----------------------------------*\
| =========                 |                                                 |
| \\      /  F ield         | OpenFOAM: The Open Source CFD Toolbox           |
|  \\    /   O peration     | Version:  v1906                                 |
|   \\  /    A nd           | Web:      www.OpenFOAM.com                      |
|    \\/     M anipulation  |                                                 |
\*---------------------------------------------------------------------------*/
FoamFile
{
    version     2.0;
    format      ascii;
    class       volScalarField;
    location    "84";
    object      nut;
}
// * * * * * * * * * * * * * * * * * * * * * * * * * * * * * * * * * * * * * //

dimensions      [0 2 -1 0 0 0 0];


internalField   nonuniform List<scalar> 
78750
(
1.50966e-09
2.21383e-07
4.46007e-07
6.9325e-07
9.5292e-07
1.21503e-06
1.47176e-06
1.7175e-06
1.94841e-06
2.16184e-06
2.35598e-06
2.52967e-06
2.6823e-06
2.81335e-06
2.92202e-06
3.00848e-06
3.07279e-06
3.11497e-06
3.13493e-06
3.13245e-06
3.10716e-06
3.05876e-06
2.98593e-06
2.88768e-06
2.76325e-06
2.61197e-06
2.43293e-06
2.22667e-06
1.99454e-06
1.73795e-06
1.45675e-06
1.14913e-06
8.18264e-07
4.80002e-07
5.87278e-09
3.92476e-09
2.74935e-06
4.77883e-06
6.33443e-06
7.63188e-06
8.89219e-06
1.0166e-05
1.14602e-05
1.2779e-05
1.41318e-05
1.5525e-05
1.69768e-05
1.85462e-05
1.98173e-05
2.00988e-05
2.02719e-05
2.03439e-05
2.03211e-05
2.02087e-05
2.00109e-05
1.97301e-05
1.93666e-05
1.89166e-05
1.83746e-05
1.77335e-05
1.68719e-05
1.49308e-05
1.30281e-05
1.11491e-05
9.16438e-06
7.01615e-06
5.01972e-06
3.78927e-06
2.0704e-06
1.86957e-08
6.62271e-09
2.05524e-06
4.39652e-06
6.92718e-06
9.45771e-06
1.18425e-05
1.39891e-05
1.58781e-05
1.75311e-05
1.89743e-05
2.02217e-05
2.1275e-05
2.21582e-05
2.28972e-05
2.30677e-05
2.29063e-05
2.26487e-05
2.23093e-05
2.1903e-05
2.14457e-05
2.07078e-05
1.94953e-05
1.81815e-05
1.68885e-05
1.56988e-05
1.46312e-05
1.3643e-05
1.26162e-05
1.13486e-05
9.64796e-06
7.64066e-06
6.08658e-06
5.69349e-06
2.01509e-06
3.21007e-08
9.81692e-09
1.94854e-06
4.42048e-06
7.85269e-06
1.20537e-05
1.61265e-05
1.9353e-05
2.17073e-05
2.3386e-05
2.45257e-05
2.5199e-05
2.54504e-05
2.53211e-05
2.48663e-05
2.4146e-05
2.32124e-05
2.21195e-05
2.09212e-05
1.96641e-05
1.83838e-05
1.71059e-05
1.58679e-05
1.47242e-05
1.37207e-05
1.28933e-05
1.22524e-05
1.17384e-05
1.11769e-05
1.02944e-05
8.9278e-06
7.4181e-06
6.70191e-06
7.1086e-06
1.84399e-06
4.28127e-08
1.39983e-08
1.89948e-06
4.52755e-06
8.68544e-06
1.42289e-05
1.94225e-05
2.30561e-05
2.5328e-05
2.65799e-05
2.69952e-05
2.67102e-05
2.58672e-05
2.46261e-05
2.31535e-05
2.16003e-05
2.00782e-05
1.86501e-05
1.73361e-05
1.61273e-05
1.50033e-05
1.39481e-05
1.29634e-05
1.20754e-05
1.13206e-05
1.07303e-05
1.03091e-05
9.99329e-06
9.61109e-06
8.93331e-06
7.91894e-06
7.0191e-06
7.15885e-06
7.52003e-06
1.73324e-06
5.01875e-08
1.81487e-08
1.92293e-06
4.71904e-06
9.48817e-06
1.62144e-05
2.2392e-05
2.62925e-05
2.82988e-05
2.89183e-05
2.84603e-05
2.7189e-05
2.53817e-05
2.33243e-05
2.12673e-05
1.93799e-05
1.77387e-05
1.63489e-05
1.51731e-05
1.41566e-05
1.3246e-05
1.24052e-05
1.16224e-05
1.09015e-05
1.02558e-05
9.70675e-06
9.26121e-06
8.87062e-06
8.40936e-06
7.74913e-06
6.96647e-06
6.53478e-06
7.35703e-06
7.42186e-06
1.68219e-06
5.58895e-08
2.20723e-08
1.95122e-06
4.86593e-06
1.00405e-05
1.75097e-05
2.41648e-05
2.80322e-05
2.96778e-05
2.96922e-05
2.84657e-05
2.63926e-05
2.38971e-05
2.13673e-05
1.90717e-05
1.71306e-05
1.55489e-05
1.42768e-05
1.32507e-05
1.24071e-05
1.16934e-05
1.10775e-05
1.05417e-05
1.00556e-05
9.58794e-06
9.12528e-06
8.66111e-06
8.16683e-06
7.58693e-06
6.90828e-06
6.29234e-06
6.19745e-06
7.5046e-06
7.04806e-06
1.64539e-06
6.09987e-08
2.56282e-08
1.97902e-06
4.9579e-06
1.03658e-05
1.83528e-05
2.54233e-05
2.92864e-05
3.06097e-05
3.00976e-05
2.82643e-05
2.56426e-05
2.27625e-05
2.00399e-05
1.76982e-05
1.57903e-05
1.42766e-05
1.30868e-05
1.21481e-05
1.13978e-05
1.07922e-05
1.03086e-05
9.92349e-06
9.58223e-06
9.22192e-06
8.79627e-06
8.28229e-06
7.67205e-06
6.977e-06
6.27156e-06
5.75963e-06
5.8741e-06
7.48685e-06
6.75308e-06
1.6293e-06
6.62842e-08
2.87908e-08
1.99869e-06
5.01253e-06
1.05562e-05
1.8837e-05
2.60838e-05
2.9843e-05
3.08741e-05
2.9957e-05
2.77019e-05
2.47429e-05
2.16686e-05
1.88823e-05
1.65536e-05
1.4688e-05
1.32205e-05
1.20762e-05
1.11883e-05
1.05036e-05
9.99289e-06
9.64915e-06
9.43676e-06
9.26964e-06
9.04682e-06
8.68187e-06
8.1314e-06
7.41313e-06
6.60975e-06
5.86967e-06
5.42112e-06
5.67582e-06
7.49311e-06
6.44818e-06
1.6159e-06
7.19496e-08
3.20678e-08
2.01898e-06
5.05416e-06
1.06852e-05
1.91768e-05
2.65705e-05
3.0262e-05
3.10747e-05
2.98673e-05
2.73369e-05
2.41862e-05
2.10226e-05
1.82197e-05
1.59046e-05
1.40548e-05
1.2595e-05
1.14483e-05
1.05548e-05
9.87222e-06
9.38502e-06
9.10166e-06
8.98432e-06
8.93441e-06
8.82512e-06
8.53194e-06
7.98306e-06
7.20633e-06
6.33647e-06
5.57653e-06
5.17069e-06
5.51824e-06
7.47215e-06
6.20383e-06
1.60841e-06
7.7868e-08
3.50429e-08
2.032e-06
5.07739e-06
1.07625e-05
1.9381e-05
2.68309e-05
3.0423e-05
3.10394e-05
2.96009e-05
2.68728e-05
2.36075e-05
2.04135e-05
1.76288e-05
1.53444e-05
1.35183e-05
1.20698e-05
1.09244e-05
1.00264e-05
9.34347e-06
8.87569e-06
8.64437e-06
8.60576e-06
8.65259e-06
8.6389e-06
8.41049e-06
7.87318e-06
7.06319e-06
6.15387e-06
5.38693e-06
5.0179e-06
5.44239e-06
7.50777e-06
5.97069e-06
1.60204e-06
8.38448e-08
3.84263e-08
2.04961e-06
5.11386e-06
1.08722e-05
1.96242e-05
2.70998e-05
3.05801e-05
3.10241e-05
2.94101e-05
2.65542e-05
2.32317e-05
2.00359e-05
1.7272e-05
1.50059e-05
1.31843e-05
1.17258e-05
1.05593e-05
9.63469e-06
8.92648e-06
8.44533e-06
8.22506e-06
8.22214e-06
8.32747e-06
8.385e-06
8.21921e-06
7.7159e-06
6.91124e-06
6.00021e-06
5.24665e-06
4.91522e-06
5.40708e-06
7.567e-06
5.77392e-06
1.59883e-06
8.97542e-08
4.15685e-08
2.06274e-06
5.14141e-06
1.09568e-05
1.98022e-05
2.72732e-05
3.06405e-05
3.09262e-05
2.91592e-05
2.62035e-05
2.28518e-05
1.96772e-05
1.6951e-05
1.47153e-05
1.29081e-05
1.14477e-05
1.02665e-05
9.3198e-06
8.5889e-06
8.09432e-06
7.87851e-06
7.89663e-06
8.03884e-06
8.14328e-06
8.02263e-06
7.55184e-06
6.76774e-06
5.87646e-06
5.15175e-06
4.86403e-06
5.42571e-06
7.67477e-06
5.59507e-06
1.59735e-06
9.54767e-08
4.51243e-08
2.08031e-06
5.18394e-06
1.10849e-05
2.00495e-05
2.74899e-05
3.07193e-05
3.08517e-05
2.89623e-05
2.59459e-05
2.25941e-05
1.94516e-05
1.67602e-05
1.45454e-05
1.2741e-05
1.12672e-05
1.00607e-05
9.08169e-06
8.31688e-06
7.79384e-06
7.56361e-06
7.58127e-06
7.73846e-06
7.87167e-06
7.78835e-06
7.35687e-06
6.61177e-06
5.76093e-06
5.07946e-06
4.84125e-06
5.47383e-06
7.80463e-06
5.44572e-06
1.59852e-06
1.01e-07
4.84898e-08
2.09548e-06
5.22257e-06
1.11994e-05
2.02578e-05
2.76561e-05
3.07568e-05
3.07492e-05
2.87515e-05
2.56886e-05
2.23497e-05
1.92505e-05
1.66031e-05
1.44175e-05
1.26229e-05
1.11413e-05
9.91336e-06
8.90397e-06
8.10532e-06
7.55145e-06
7.30114e-06
7.30942e-06
7.46731e-06
7.61325e-06
7.55427e-06
7.15798e-06
6.45804e-06
5.65875e-06
5.03015e-06
4.84793e-06
5.55715e-06
7.9633e-06
5.3154e-06
1.60148e-06
1.06286e-07
5.21705e-08
2.11372e-06
5.27143e-06
1.13448e-05
2.05171e-05
2.78569e-05
3.08141e-05
3.06732e-05
2.85897e-05
2.55049e-05
2.21935e-05
1.91404e-05
1.65328e-05
1.43695e-05
1.25779e-05
1.10824e-05
9.82724e-06
8.78158e-06
7.94236e-06
7.34783e-06
7.06422e-06
7.04969e-06
7.19614e-06
7.34398e-06
7.30389e-06
6.94483e-06
6.29803e-06
5.55982e-06
4.9915e-06
4.87017e-06
5.65959e-06
8.13289e-06
5.20848e-06
1.60646e-06
1.11353e-07
5.57119e-08
2.13082e-06
5.3192e-06
1.14843e-05
2.07539e-05
2.80299e-05
3.08538e-05
3.05915e-05
2.84325e-05
2.53342e-05
2.20569e-05
1.90556e-05
1.64939e-05
1.43591e-05
1.25764e-05
1.10713e-05
9.79144e-06
8.71012e-06
7.82925e-06
7.19084e-06
6.86799e-06
6.82279e-06
6.94847e-06
7.08868e-06
7.05929e-06
6.73394e-06
6.14187e-06
5.46898e-06
4.96553e-06
4.90974e-06
5.78453e-06
8.31541e-06
5.11798e-06
1.61286e-06
1.16188e-07
5.94692e-08
2.14984e-06
5.37336e-06
1.16435e-05
2.10236e-05
2.82279e-05
3.09148e-05
3.05404e-05
2.83223e-05
2.5224e-05
2.1986e-05
1.9035e-05
1.65148e-05
1.44044e-05
1.26274e-05
1.11104e-05
9.80338e-06
8.68352e-06
7.75656e-06
7.06791e-06
6.69616e-06
6.61056e-06
6.70646e-06
6.83207e-06
6.81003e-06
6.51872e-06
5.98412e-06
5.38007e-06
4.94479e-06
4.95776e-06
5.9212e-06
8.49967e-06
5.04417e-06
1.62052e-06
1.20799e-07
6.3127e-08
2.16833e-06
5.42771e-06
1.18014e-05
2.12822e-05
2.84123e-05
3.09712e-05
3.04942e-05
2.82242e-05
2.513e-05
2.1934e-05
1.90366e-05
1.65626e-05
1.44823e-05
1.27165e-05
1.1192e-05
9.86056e-06
8.70272e-06
7.72808e-06
6.98574e-06
6.55886e-06
6.4258e-06
6.48442e-06
6.58841e-06
6.56861e-06
6.30911e-06
5.83184e-06
5.29712e-06
4.9315e-06
5.01608e-06
6.07223e-06
8.68726e-06
4.9836e-06
1.62927e-06
1.25181e-07
6.6923e-08
2.1879e-06
5.48606e-06
1.19728e-05
2.15639e-05
2.86176e-05
3.10502e-05
3.04789e-05
2.81663e-05
2.50813e-05
2.19271e-05
1.90802e-05
1.66496e-05
1.45982e-05
1.28441e-05
1.1313e-05
9.95793e-06
8.76161e-06
7.73691e-06
6.93616e-06
6.44662e-06
6.25859e-06
6.27318e-06
6.35023e-06
6.32952e-06
6.10077e-06
5.68116e-06
5.21666e-06
4.92123e-06
5.0791e-06
6.23023e-06
8.87076e-06
4.93441e-06
1.63866e-06
1.29335e-07
7.06465e-08
2.20706e-06
5.54469e-06
1.21453e-05
2.18429e-05
2.88209e-05
3.11348e-05
3.04753e-05
2.81229e-05
2.50475e-05
2.19353e-05
1.91412e-05
1.67583e-05
1.47414e-05
1.30047e-05
1.14722e-05
1.00968e-05
8.86285e-06
7.78646e-06
6.92351e-06
6.36513e-06
6.11568e-06
6.08019e-06
6.12516e-06
6.09977e-06
5.89927e-06
5.53548e-06
5.14025e-06
4.91563e-06
5.14806e-06
6.39679e-06
9.05182e-06
4.89549e-06
1.64881e-06
1.33269e-07
7.44503e-08
2.22657e-06
5.60538e-06
1.23273e-05
2.21416e-05
2.90473e-05
3.12457e-05
3.05008e-05
2.81097e-05
2.50427e-05
2.197e-05
1.92263e-05
1.68906e-05
1.49096e-05
1.31934e-05
1.16636e-05
1.02715e-05
9.00181e-06
7.873e-06
6.94429e-06
6.3105e-06
5.9931e-06
5.90178e-06
5.91016e-06
5.87699e-06
5.70264e-06
5.39295e-06
5.06547e-06
4.91135e-06
5.22013e-06
6.56762e-06
9.22627e-06
4.86525e-06
1.65941e-06
1.36985e-07
7.81996e-08
2.24554e-06
5.66549e-06
1.25094e-05
2.24415e-05
2.92779e-05
3.13678e-05
3.05402e-05
2.81079e-05
2.50475e-05
2.20146e-05
1.93237e-05
1.70389e-05
1.50992e-05
1.34095e-05
1.18881e-05
1.04839e-05
9.1809e-06
7.99916e-06
7.0014e-06
6.28637e-06
5.89492e-06
5.74225e-06
5.70946e-06
5.66492e-06
5.51378e-06
5.25549e-06
4.99344e-06
4.90835e-06
5.29373e-06
6.74202e-06
9.39542e-06
4.84305e-06
1.67061e-06
1.40494e-07
8.19856e-08
2.26442e-06
5.7258e-06
1.26934e-05
2.2742e-05
2.95007e-05
3.14848e-05
3.05856e-05
2.81176e-05
2.50652e-05
2.20715e-05
1.94325e-05
1.71995e-05
1.53039e-05
1.36458e-05
1.21391e-05
1.07288e-05
9.39683e-06
8.16358e-06
7.09477e-06
6.29357e-06
5.82208e-06
5.60238e-06
5.52351e-06
5.46343e-06
5.33185e-06
5.12172e-06
4.92259e-06
4.90529e-06
5.36779e-06
6.91949e-06
9.56425e-06
4.82827e-06
1.68197e-06
1.43796e-07
8.57314e-08
2.28294e-06
5.78585e-06
1.28759e-05
2.30321e-05
2.97128e-05
3.15953e-05
3.06284e-05
2.81345e-05
2.50905e-05
2.21347e-05
1.95486e-05
1.73703e-05
1.55232e-05
1.39023e-05
1.24167e-05
1.10066e-05
9.65025e-06
8.3674e-06
7.22632e-06
6.33509e-06
5.7778e-06
5.48575e-06
5.3559e-06
5.27567e-06
5.15916e-06
4.99302e-06
4.8535e-06
4.902e-06
5.44119e-06
7.09741e-06
9.72939e-06
4.82269e-06
1.69414e-06
1.46915e-07
8.9484e-08
2.30107e-06
5.84617e-06
1.3063e-05
2.33175e-05
2.99176e-05
3.16993e-05
3.06663e-05
2.81503e-05
2.51159e-05
2.21987e-05
1.96664e-05
1.75447e-05
1.57498e-05
1.41719e-05
1.27147e-05
1.13126e-05
9.93874e-06
8.61042e-06
7.39772e-06
6.41408e-06
5.76529e-06
5.39516e-06
5.20887e-06
5.10311e-06
4.99628e-06
4.86915e-06
4.78542e-06
4.89784e-06
5.51503e-06
7.28132e-06
9.89457e-06
4.82717e-06
1.70743e-06
1.49861e-07
9.31993e-08
2.31837e-06
5.90411e-06
1.32444e-05
2.35912e-05
3.011e-05
3.17943e-05
3.06987e-05
2.81637e-05
2.51425e-05
2.22654e-05
1.97872e-05
1.77233e-05
1.59838e-05
1.44538e-05
1.30315e-05
1.16447e-05
1.02603e-05
8.8916e-06
7.60955e-06
6.53315e-06
5.78774e-06
5.33402e-06
5.08575e-06
4.94871e-06
4.84555e-06
4.75174e-06
4.71935e-06
4.89329e-06
5.58869e-06
7.4673e-06
1.00587e-05
4.83909e-06
1.72158e-06
1.52648e-07
9.69031e-08
2.33529e-06
5.96132e-06
1.34244e-05
2.38593e-05
3.02942e-05
3.18814e-05
3.07234e-05
2.81702e-05
2.51677e-05
2.23293e-05
1.99039e-05
1.78994e-05
1.62189e-05
1.47423e-05
1.33622e-05
1.19993e-05
1.06128e-05
9.2105e-06
7.86302e-06
6.69483e-06
5.84799e-06
5.30495e-06
4.9888e-06
4.81416e-06
4.70802e-06
4.64129e-06
4.65541e-06
4.88803e-06
5.66098e-06
7.65274e-06
1.02211e-05
4.85715e-06
1.73639e-06
1.55279e-07
1.00581e-07
2.35171e-06
6.01726e-06
1.36011e-05
2.41185e-05
3.04674e-05
3.19588e-05
3.07398e-05
2.81693e-05
2.51879e-05
2.23886e-05
2.00171e-05
1.80736e-05
1.64549e-05
1.50358e-05
1.37037e-05
1.23722e-05
1.09919e-05
9.56359e-06
8.15593e-06
6.89825e-06
5.94682e-06
5.30985e-06
4.92039e-06
4.70182e-06
4.58573e-06
4.53938e-06
4.5947e-06
4.88272e-06
5.73193e-06
7.8366e-06
1.03809e-05
4.87993e-06
1.75166e-06
1.57765e-07
1.04234e-07
2.36779e-06
6.07246e-06
1.37759e-05
2.43708e-05
3.06309e-05
3.20262e-05
3.07461e-05
2.81579e-05
2.51974e-05
2.24386e-05
2.01226e-05
1.82423e-05
1.66881e-05
1.53309e-05
1.4053e-05
1.27607e-05
1.13955e-05
9.9494e-06
8.48741e-06
7.1428e-06
6.08464e-06
5.34979e-06
4.88193e-06
4.61314e-06
4.47994e-06
4.44694e-06
4.5377e-06
4.87711e-06
5.80028e-06
8.01736e-06
1.05379e-05
4.9066e-06
1.76723e-06
1.60109e-07
1.07868e-07
2.38371e-06
6.12729e-06
1.39487e-05
2.46154e-05
3.07839e-05
3.20833e-05
3.07423e-05
2.81373e-05
2.51985e-05
2.24813e-05
2.02218e-05
1.84056e-05
1.69177e-05
1.56251e-05
1.44058e-05
1.31595e-05
1.18178e-05
1.03628e-05
8.85346e-06
7.42568e-06
6.26042e-06
5.42502e-06
4.87447e-06
4.54964e-06
4.39234e-06
4.36557e-06
4.48578e-06
4.87266e-06
5.86824e-06
8.19507e-06
1.06919e-05
4.9363e-06
1.78298e-06
1.62321e-07
1.11471e-07
2.39947e-06
6.18191e-06
1.41193e-05
2.48518e-05
3.09255e-05
3.2128e-05
3.07255e-05
2.81034e-05
2.51871e-05
2.25134e-05
2.03123e-05
1.85618e-05
1.71421e-05
1.59171e-05
1.4761e-05
1.3567e-05
1.2257e-05
1.08016e-05
9.25232e-06
7.74568e-06
6.47389e-06
5.5358e-06
4.89857e-06
4.51215e-06
4.32387e-06
4.29616e-06
4.43978e-06
4.87025e-06
5.93669e-06
8.36989e-06
1.08438e-05
4.96867e-06
1.79883e-06
1.6441e-07
1.15057e-07
2.41535e-06
6.23769e-06
1.42878e-05
2.50804e-05
3.10562e-05
3.21607e-05
3.06962e-05
2.8057e-05
2.51644e-05
2.25363e-05
2.03945e-05
1.87102e-05
1.73594e-05
1.62038e-05
1.51142e-05
1.39777e-05
1.27067e-05
1.12598e-05
9.67892e-06
8.0993e-06
6.72339e-06
5.68177e-06
4.95474e-06
4.50167e-06
4.27588e-06
4.24023e-06
4.40114e-06
4.87084e-06
6.00535e-06
8.54227e-06
1.09937e-05
5.00308e-06
1.81467e-06
1.66384e-07
1.18603e-07
2.43068e-06
6.29278e-06
1.44523e-05
2.52989e-05
3.11737e-05
3.2179e-05
3.06511e-05
2.79947e-05
2.51268e-05
2.25493e-05
2.04676e-05
1.88501e-05
1.75698e-05
1.64857e-05
1.54657e-05
1.43914e-05
1.31657e-05
1.17352e-05
1.01307e-05
8.48448e-06
7.0079e-06
5.8627e-06
5.04323e-06
4.51883e-06
4.24924e-06
4.19873e-06
4.37064e-06
4.87471e-06
6.07381e-06
8.71189e-06
1.11424e-05
5.03946e-06
1.8305e-06
1.68255e-07
1.22106e-07
2.44529e-06
6.34613e-06
1.46144e-05
2.55101e-05
3.12792e-05
3.21836e-05
3.05918e-05
2.7918e-05
2.50751e-05
2.25492e-05
2.05288e-05
1.89791e-05
1.77706e-05
1.67598e-05
1.58117e-05
1.4803e-05
1.36283e-05
1.22215e-05
1.06019e-05
8.89655e-06
7.32461e-06
6.07729e-06
5.16388e-06
4.56418e-06
4.24499e-06
4.17299e-06
4.34963e-06
4.88298e-06
6.14277e-06
8.87914e-06
1.12899e-05
5.07737e-06
1.84625e-06
1.70033e-07
1.25541e-07
2.45933e-06
6.39774e-06
1.47715e-05
2.57107e-05
3.13713e-05
3.21711e-05
3.05126e-05
2.78215e-05
2.50058e-05
2.25349e-05
2.05787e-05
1.90988e-05
1.79636e-05
1.70275e-05
1.61532e-05
1.52131e-05
1.40935e-05
1.27166e-05
1.10892e-05
9.33222e-06
7.67096e-06
6.32392e-06
5.31596e-06
4.63775e-06
4.26365e-06
4.16373e-06
4.3388e-06
4.89613e-06
6.21244e-06
9.04411e-06
1.14372e-05
5.11697e-06
1.86198e-06
1.71728e-07
1.28943e-07
2.47276e-06
6.44843e-06
1.49294e-05
2.59084e-05
3.14533e-05
3.21464e-05
3.04216e-05
2.77139e-05
2.49243e-05
2.25047e-05
2.06124e-05
1.92053e-05
1.81457e-05
1.72855e-05
1.64864e-05
1.5617e-05
1.45562e-05
1.32147e-05
1.15867e-05
9.78611e-06
8.04287e-06
6.59987e-06
5.49806e-06
4.73925e-06
4.30587e-06
4.17217e-06
4.33949e-06
4.9153e-06
6.28363e-06
9.20726e-06
1.15842e-05
5.15785e-06
1.87763e-06
1.73352e-07
1.32295e-07
2.48572e-06
6.49804e-06
1.50844e-05
2.60963e-05
3.15216e-05
3.2105e-05
3.03114e-05
2.75865e-05
2.48256e-05
2.24628e-05
2.0637e-05
1.93008e-05
1.83172e-05
1.75354e-05
1.68134e-05
1.60166e-05
1.50171e-05
1.37149e-05
1.20922e-05
1.02551e-05
8.43717e-06
6.90244e-06
5.70818e-06
4.86749e-06
4.37126e-06
4.1986e-06
4.35242e-06
4.9413e-06
6.3569e-06
9.36877e-06
1.1732e-05
5.20027e-06
1.89326e-06
1.74915e-07
1.3561e-07
2.4983e-06
6.54718e-06
1.52396e-05
2.6278e-05
3.15767e-05
3.20477e-05
3.01848e-05
2.74438e-05
2.47123e-05
2.24061e-05
2.06484e-05
1.9386e-05
1.84778e-05
1.77735e-05
1.71296e-05
1.64069e-05
1.5471e-05
1.4212e-05
1.26001e-05
1.07339e-05
8.84928e-06
7.22832e-06
5.9443e-06
5.0216e-06
4.45988e-06
4.24374e-06
4.37865e-06
4.97527e-06
6.4333e-06
9.52937e-06
1.18806e-05
5.24398e-06
1.90884e-06
1.76428e-07
1.38869e-07
2.5103e-06
6.59491e-06
1.53913e-05
2.64493e-05
3.16172e-05
3.19732e-05
3.00397e-05
2.7283e-05
2.45828e-05
2.23358e-05
2.06484e-05
1.94614e-05
1.86308e-05
1.80041e-05
1.74379e-05
1.679e-05
1.59191e-05
1.47054e-05
1.31085e-05
1.12191e-05
9.27519e-06
7.57375e-06
6.2034e-06
5.19963e-06
4.57087e-06
4.30768e-06
4.41889e-06
5.01814e-06
6.51373e-06
9.68986e-06
1.20307e-05
5.28923e-06
1.92445e-06
1.77904e-07
1.42085e-07
2.52187e-06
6.6419e-06
1.55418e-05
2.66125e-05
3.16432e-05
3.18811e-05
2.98761e-05
2.71049e-05
2.44375e-05
2.22509e-05
2.06352e-05
1.95245e-05
1.87721e-05
1.82242e-05
1.77354e-05
1.71619e-05
1.6357e-05
1.51908e-05
1.36126e-05
1.17061e-05
9.71049e-06
7.93519e-06
6.48286e-06
5.39983e-06
4.70346e-06
4.39058e-06
4.47401e-06
5.07125e-06
6.59983e-06
9.85178e-06
1.21828e-05
5.33589e-06
1.94007e-06
1.79349e-07
1.4525e-07
2.53297e-06
6.68776e-06
1.56893e-05
2.67651e-05
3.16542e-05
3.17717e-05
2.96947e-05
2.69102e-05
2.42777e-05
2.21533e-05
2.06111e-05
1.9578e-05
1.89044e-05
1.84354e-05
1.80245e-05
1.75246e-05
1.67847e-05
1.56668e-05
1.41097e-05
1.21907e-05
1.01505e-05
8.30838e-06
6.77923e-06
5.61977e-06
4.85625e-06
4.492e-06
4.54442e-06
5.13561e-06
6.69292e-06
1.00166e-05
1.23376e-05
5.38412e-06
1.95576e-06
1.80774e-07
1.48359e-07
2.54348e-06
6.73226e-06
1.58339e-05
2.69078e-05
3.16499e-05
3.1644e-05
2.94943e-05
2.66977e-05
2.41019e-05
2.20415e-05
2.05743e-05
1.96197e-05
1.90252e-05
1.86351e-05
1.83017e-05
1.78754e-05
1.71998e-05
1.613e-05
1.4596e-05
1.26689e-05
1.05908e-05
8.68946e-06
7.08947e-06
5.85729e-06
5.02798e-06
4.61166e-06
4.63078e-06
5.21275e-06
6.79534e-06
1.01868e-05
1.2496e-05
5.4339e-06
1.97155e-06
1.82181e-07
1.51411e-07
2.5535e-06
6.77559e-06
1.59756e-05
2.70401e-05
3.16305e-05
3.14989e-05
2.92763e-05
2.64696e-05
2.39129e-05
2.19184e-05
2.05277e-05
1.96524e-05
1.91372e-05
1.88256e-05
1.85688e-05
1.82147e-05
1.76019e-05
1.65785e-05
1.50682e-05
1.31363e-05
1.10267e-05
9.07373e-06
7.40954e-06
6.10938e-06
5.21671e-06
4.74856e-06
4.73295e-06
5.3033e-06
6.90849e-06
1.03644e-05
1.26585e-05
5.4853e-06
1.98746e-06
1.83577e-07
1.54403e-07
2.5629e-06
6.81747e-06
1.61139e-05
2.71616e-05
3.15949e-05
3.13349e-05
2.90392e-05
2.62243e-05
2.37089e-05
2.17821e-05
2.04694e-05
1.96744e-05
1.92387e-05
1.90051e-05
1.8824e-05
1.85408e-05
1.79892e-05
1.70109e-05
1.55231e-05
1.35898e-05
1.14547e-05
9.4575e-06
7.73589e-06
6.37313e-06
5.42054e-06
4.90197e-06
4.85135e-06
5.40886e-06
7.03505e-06
1.05525e-05
1.28255e-05
5.53829e-06
2.00353e-06
1.84958e-07
1.57343e-07
2.57187e-06
6.85837e-06
1.62499e-05
2.72729e-05
3.15442e-05
3.11535e-05
2.87852e-05
2.59646e-05
2.34932e-05
2.1636e-05
2.04028e-05
1.96885e-05
1.93323e-05
1.9176e-05
1.9069e-05
1.88543e-05
1.83613e-05
1.74256e-05
1.59593e-05
1.40248e-05
1.18699e-05
9.83645e-06
8.0647e-06
6.6453e-06
5.63696e-06
5.07019e-06
4.9851e-06
5.52937e-06
7.17603e-06
1.07529e-05
1.29972e-05
5.59286e-06
2.0198e-06
1.86326e-07
1.60222e-07
2.58026e-06
6.89795e-06
1.63826e-05
2.73731e-05
3.1477e-05
3.0953e-05
2.85127e-05
2.5689e-05
2.32643e-05
2.14785e-05
2.03261e-05
1.96934e-05
1.94166e-05
1.93372e-05
1.93031e-05
1.91549e-05
1.87178e-05
1.7822e-05
1.63758e-05
1.44417e-05
1.22714e-05
1.02078e-05
8.39268e-06
6.92289e-06
5.86375e-06
5.25209e-06
5.13433e-06
5.66618e-06
7.33379e-06
1.09682e-05
1.31739e-05
5.64904e-06
2.03629e-06
1.8768e-07
1.63049e-07
2.58826e-06
6.93678e-06
1.65135e-05
2.74634e-05
3.13947e-05
3.07353e-05
2.82243e-05
2.54007e-05
2.30255e-05
2.13129e-05
2.02425e-05
1.96916e-05
1.9494e-05
1.94902e-05
1.95273e-05
1.94428e-05
1.9058e-05
1.81987e-05
1.67708e-05
1.48382e-05
1.26572e-05
1.05696e-05
8.71733e-06
7.20319e-06
6.0984e-06
5.44561e-06
5.29755e-06
5.81858e-06
7.50896e-06
1.12001e-05
1.33558e-05
5.70695e-06
2.05308e-06
1.89024e-07
1.65812e-07
2.59572e-06
6.97438e-06
1.66412e-05
2.75424e-05
3.12959e-05
3.04992e-05
2.79189e-05
2.50989e-05
2.27761e-05
2.11385e-05
2.0151e-05
1.96824e-05
1.95638e-05
1.9635e-05
1.97417e-05
1.97186e-05
1.93828e-05
1.85563e-05
1.71441e-05
1.52139e-05
1.30266e-05
1.09197e-05
9.03641e-06
7.48396e-06
6.33887e-06
5.64927e-06
5.47421e-06
5.98728e-06
7.70252e-06
1.14498e-05
1.35427e-05
5.7666e-06
2.07019e-06
1.90363e-07
1.68521e-07
2.60286e-06
7.01142e-06
1.67673e-05
2.76116e-05
3.11823e-05
3.02468e-05
2.75995e-05
2.4787e-05
2.25197e-05
2.09586e-05
2.00546e-05
1.9668e-05
1.96276e-05
1.97725e-05
1.99467e-05
1.99821e-05
1.96917e-05
1.88942e-05
1.74954e-05
1.55678e-05
1.33783e-05
1.1257e-05
9.34804e-06
7.763e-06
6.583e-06
5.86129e-06
5.66336e-06
6.17249e-06
7.9152e-06
1.17181e-05
1.37351e-05
5.82822e-06
2.0877e-06
1.91704e-07
1.71157e-07
2.60944e-06
7.04718e-06
1.68901e-05
2.7669e-05
3.10524e-05
2.99771e-05
2.72655e-05
2.44647e-05
2.2256e-05
2.07729e-05
1.99531e-05
1.96485e-05
1.96855e-05
1.99029e-05
2.01428e-05
2.0234e-05
1.99854e-05
1.92132e-05
1.7825e-05
1.59003e-05
1.3712e-05
1.15805e-05
9.65086e-06
8.03862e-06
6.82915e-06
6.08029e-06
5.86392e-06
6.3733e-06
8.14716e-06
1.20054e-05
1.39324e-05
5.89167e-06
2.1056e-06
1.93053e-07
1.73728e-07
2.61566e-06
7.08227e-06
1.70108e-05
2.77162e-05
3.09079e-05
2.96923e-05
2.69199e-05
2.41354e-05
2.19884e-05
2.05846e-05
1.98493e-05
1.96258e-05
1.9739e-05
2.0027e-05
2.03303e-05
2.04743e-05
2.02639e-05
1.95132e-05
1.81332e-05
1.62114e-05
1.40275e-05
1.18896e-05
9.94384e-06
8.30947e-06
7.07553e-06
6.30433e-06
6.07411e-06
6.58836e-06
8.39778e-06
1.23113e-05
1.41345e-05
5.95707e-06
2.12396e-06
1.94417e-07
1.76215e-07
2.62132e-06
7.11598e-06
1.71277e-05
2.77513e-05
3.07475e-05
2.93914e-05
2.6562e-05
2.37987e-05
2.17168e-05
2.03939e-05
1.97434e-05
1.96006e-05
1.97887e-05
2.01455e-05
2.05099e-05
2.07036e-05
2.05278e-05
1.97952e-05
1.84209e-05
1.65021e-05
1.43252e-05
1.21841e-05
1.02263e-05
8.57438e-06
7.32078e-06
6.53216e-06
6.29277e-06
6.81668e-06
8.6664e-06
1.26351e-05
1.43402e-05
6.02406e-06
2.14273e-06
1.95799e-07
1.78625e-07
2.62656e-06
7.14871e-06
1.72418e-05
2.77756e-05
3.05727e-05
2.90763e-05
2.61943e-05
2.34574e-05
2.14439e-05
2.02033e-05
1.96378e-05
1.95748e-05
1.9836e-05
2.02593e-05
2.06819e-05
2.09221e-05
2.07773e-05
2.00594e-05
1.86888e-05
1.67734e-05
1.46061e-05
1.24648e-05
1.04984e-05
8.8329e-06
7.56397e-06
6.76206e-06
6.51807e-06
7.05662e-06
8.95168e-06
1.29753e-05
1.4549e-05
6.09254e-06
2.1619e-06
1.97203e-07
1.80942e-07
2.63119e-06
7.1799e-06
1.73518e-05
2.77877e-05
3.03819e-05
2.87456e-05
2.58156e-05
2.31105e-05
2.11693e-05
2.00131e-05
1.95333e-05
1.95494e-05
1.98824e-05
2.03699e-05
2.08477e-05
2.11309e-05
2.10133e-05
2.03068e-05
1.89382e-05
1.70265e-05
1.4871e-05
1.27322e-05
1.07603e-05
9.08487e-06
7.80453e-06
6.99353e-06
6.74918e-06
7.30691e-06
9.25197e-06
1.33297e-05
1.47594e-05
6.16209e-06
2.18139e-06
1.98634e-07
1.83175e-07
2.63535e-06
7.20995e-06
1.74586e-05
2.77889e-05
3.01764e-05
2.84005e-05
2.54274e-05
2.27598e-05
2.08949e-05
1.98254e-05
1.94319e-05
1.95266e-05
1.99295e-05
2.04786e-05
2.10084e-05
2.13309e-05
2.12367e-05
2.05384e-05
1.91701e-05
1.72627e-05
1.51211e-05
1.29871e-05
1.10125e-05
9.33016e-06
8.04188e-06
7.22543e-06
6.98444e-06
7.56637e-06
9.56636e-06
1.36972e-05
1.49708e-05
6.23242e-06
2.20117e-06
2.00088e-07
1.85319e-07
2.63895e-06
7.23865e-06
1.7562e-05
2.77781e-05
2.99542e-05
2.80389e-05
2.50278e-05
2.24038e-05
2.06199e-05
1.96403e-05
1.93345e-05
1.95076e-05
1.99792e-05
2.05879e-05
2.11666e-05
2.15244e-05
2.14495e-05
2.07561e-05
1.93867e-05
1.74843e-05
1.53581e-05
1.32307e-05
1.12554e-05
9.56885e-06
8.27563e-06
7.45721e-06
7.22358e-06
7.83377e-06
9.89309e-06
1.40755e-05
1.51815e-05
6.30294e-06
2.22112e-06
2.01565e-07
1.87384e-07
2.64213e-06
7.26641e-06
1.76629e-05
2.77565e-05
2.97162e-05
2.76616e-05
2.4618e-05
2.20432e-05
2.03447e-05
1.94601e-05
1.92426e-05
1.94934e-05
2.00328e-05
2.06991e-05
2.13237e-05
2.17128e-05
2.1653e-05
2.09613e-05
1.95898e-05
1.76935e-05
1.55837e-05
1.34643e-05
1.14904e-05
9.80179e-06
8.50626e-06
7.68882e-06
7.46595e-06
8.10841e-06
1.02309e-05
1.44626e-05
1.53915e-05
6.37361e-06
2.2412e-06
2.03067e-07
1.89369e-07
2.64485e-06
7.29323e-06
1.77614e-05
2.77229e-05
2.94601e-05
2.72663e-05
2.41961e-05
2.16769e-05
2.00678e-05
1.92812e-05
1.91539e-05
1.94841e-05
2.00919e-05
2.0815e-05
2.14828e-05
2.18993e-05
2.18503e-05
2.1157e-05
1.97823e-05
1.78934e-05
1.57999e-05
1.36889e-05
1.17173e-05
1.00286e-05
8.73308e-06
7.91942e-06
7.71076e-06
8.38972e-06
1.05785e-05
1.48572e-05
1.55981e-05
6.44327e-06
2.26119e-06
2.04567e-07
1.91286e-07
2.64725e-06
7.31953e-06
1.78584e-05
2.7678e-05
2.91863e-05
2.68539e-05
2.37633e-05
2.1306e-05
1.97907e-05
1.91049e-05
1.90701e-05
1.94809e-05
2.01576e-05
2.09366e-05
2.16453e-05
2.20854e-05
2.20431e-05
2.13453e-05
1.99674e-05
1.80879e-05
1.60095e-05
1.39064e-05
1.19379e-05
1.02504e-05
8.95673e-06
8.1492e-06
7.95775e-06
8.6772e-06
1.09358e-05
1.52568e-05
1.58008e-05
6.51171e-06
2.28109e-06
2.06066e-07
1.93129e-07
2.64926e-06
7.34509e-06
1.79534e-05
2.76203e-05
2.88927e-05
2.64225e-05
2.33187e-05
2.09296e-05
1.9512e-05
1.89298e-05
1.89897e-05
1.94833e-05
2.02302e-05
2.10654e-05
2.18134e-05
2.22739e-05
2.22341e-05
2.15288e-05
2.01474e-05
1.82795e-05
1.62142e-05
1.41177e-05
1.21523e-05
1.04671e-05
9.17703e-06
8.37788e-06
8.20659e-06
8.97032e-06
1.13022e-05
1.56621e-05
1.59996e-05
6.57913e-06
2.30092e-06
2.0757e-07
1.94908e-07
2.65099e-06
7.37025e-06
1.8047e-05
2.75503e-05
2.85799e-05
2.59738e-05
2.28641e-05
2.05494e-05
1.92331e-05
1.87568e-05
1.89132e-05
1.94912e-05
2.03097e-05
2.12014e-05
2.19876e-05
2.24657e-05
2.24247e-05
2.17091e-05
2.03238e-05
1.84687e-05
1.64148e-05
1.4324e-05
1.23616e-05
1.06793e-05
9.39422e-06
8.60536e-06
8.45685e-06
9.26833e-06
1.16761e-05
1.60707e-05
1.61935e-05
6.64536e-06
2.32076e-06
2.09077e-07
1.96615e-07
2.65236e-06
7.39474e-06
1.81383e-05
2.74662e-05
2.82465e-05
2.55071e-05
2.23998e-05
2.01657e-05
1.89539e-05
1.85855e-05
1.88401e-05
1.95043e-05
2.03961e-05
2.13452e-05
2.21691e-05
2.26626e-05
2.26173e-05
2.18885e-05
2.0498e-05
1.86561e-05
1.6612e-05
1.45259e-05
1.25666e-05
1.08878e-05
9.6088e-06
8.83204e-06
8.70885e-06
9.57124e-06
1.20569e-05
1.64809e-05
1.63826e-05
6.71029e-06
2.34059e-06
2.10578e-07
1.98257e-07
2.65344e-06
7.41874e-06
1.82277e-05
2.73683e-05
2.78933e-05
2.50247e-05
2.19283e-05
1.97805e-05
1.86756e-05
1.84161e-05
1.87699e-05
1.95217e-05
2.0488e-05
2.14955e-05
2.23571e-05
2.28646e-05
2.28127e-05
2.20686e-05
2.06719e-05
1.88425e-05
1.6807e-05
1.4725e-05
1.27685e-05
1.10934e-05
9.82104e-06
9.05745e-06
8.96155e-06
9.8778e-06
1.24432e-05
1.6891e-05
1.65662e-05
6.77367e-06
2.36022e-06
2.12066e-07
1.99823e-07
2.65411e-06
7.44175e-06
1.83135e-05
2.72547e-05
2.75194e-05
2.45271e-05
2.14508e-05
1.93947e-05
1.83987e-05
1.82489e-05
1.87025e-05
1.95427e-05
2.05849e-05
2.16518e-05
2.25513e-05
2.30719e-05
2.30116e-05
2.22506e-05
2.08468e-05
1.90289e-05
1.70005e-05
1.49218e-05
1.2968e-05
1.12972e-05
1.00323e-05
9.28319e-06
9.21641e-06
1.01885e-05
1.2834e-05
1.72994e-05
1.67443e-05
6.83544e-06
2.37956e-06
2.13539e-07
2.01321e-07
2.65443e-06
7.46395e-06
1.83959e-05
2.71254e-05
2.71261e-05
2.40171e-05
2.097e-05
1.90104e-05
1.81245e-05
1.80842e-05
1.86373e-05
1.95661e-05
2.0685e-05
2.18122e-05
2.27502e-05
2.32838e-05
2.32145e-05
2.24361e-05
2.10253e-05
1.92173e-05
1.71941e-05
1.51177e-05
1.31664e-05
1.14997e-05
1.02424e-05
9.50814e-06
9.47153e-06
1.05022e-05
1.32286e-05
1.77052e-05
1.69169e-05
6.89563e-06
2.3986e-06
2.14996e-07
2.02733e-07
2.65421e-06
7.48448e-06
1.84727e-05
2.69789e-05
2.67134e-05
2.34959e-05
2.04876e-05
1.86289e-05
1.7854e-05
1.79223e-05
1.85739e-05
1.9591e-05
2.07867e-05
2.19751e-05
2.29521e-05
2.3499e-05
2.3421e-05
2.26263e-05
2.12095e-05
1.9409e-05
1.73888e-05
1.53134e-05
1.3364e-05
1.17016e-05
1.04526e-05
9.73459e-06
9.73048e-06
1.08193e-05
1.36259e-05
1.81071e-05
1.70842e-05
6.95421e-06
2.4173e-06
2.16434e-07
2.0406e-07
2.65343e-06
7.50316e-06
1.85433e-05
2.68153e-05
2.62824e-05
2.29656e-05
2.00053e-05
1.82517e-05
1.75887e-05
1.7764e-05
1.85119e-05
1.96159e-05
2.08884e-05
2.21383e-05
2.3155e-05
2.3716e-05
2.36308e-05
2.28222e-05
2.14022e-05
1.96063e-05
1.75861e-05
1.55098e-05
1.35618e-05
1.19039e-05
1.06639e-05
9.96363e-06
9.99402e-06
1.11408e-05
1.40261e-05
1.8505e-05
1.72469e-05
7.01147e-06
2.43572e-06
2.17858e-07
2.05292e-07
2.65191e-06
7.51914e-06
1.86057e-05
2.66335e-05
2.58329e-05
2.24268e-05
1.95234e-05
1.78788e-05
1.73309e-05
1.76104e-05
1.84516e-05
1.96408e-05
2.09892e-05
2.23006e-05
2.33574e-05
2.39333e-05
2.38427e-05
2.30237e-05
2.16039e-05
1.98096e-05
1.77863e-05
1.57075e-05
1.37602e-05
1.21068e-05
1.08765e-05
1.01953e-05
1.02615e-05
1.14667e-05
1.44289e-05
1.88985e-05
1.74056e-05
7.06753e-06
2.45386e-06
2.19266e-07
2.06432e-07
2.64963e-06
7.53223e-06
1.866e-05
2.64336e-05
2.53649e-05
2.18796e-05
1.90421e-05
1.75093e-05
1.70771e-05
1.74594e-05
1.83925e-05
1.96658e-05
2.10896e-05
2.24621e-05
2.35591e-05
2.41505e-05
2.40563e-05
2.323e-05
2.18137e-05
2.00185e-05
1.79899e-05
1.59071e-05
1.39598e-05
1.2311e-05
1.10911e-05
1.04298e-05
1.05331e-05
1.17974e-05
1.48345e-05
1.92877e-05
1.75612e-05
7.12277e-06
2.47179e-06