/*--------------------------------*- C++ -*----------------------------------*\
| =========                 |                                                 |
| \\      /  F ield         | OpenFOAM: The Open Source CFD Toolbox           |
|  \\    /   O peration     | Version:  v1906                                 |
|   \\  /    A nd           | Web:      www.OpenFOAM.com                      |
|    \\/     M anipulation  |                                                 |
\*---------------------------------------------------------------------------*/
FoamFile
{
    version     2.0;
    format      ascii;
    class       surfaceScalarField;
    location    "14.4/oil";
    object      phi;
}
// * * * * * * * * * * * * * * * * * * * * * * * * * * * * * * * * * * * * * //

dimensions      [1 0 -1 0 0 0 0];
oriented        oriented;


internalField   nonuniform List<scalar> 
80688
(
-2.76794e-06
-2.81567e-06
-2.76794e-06
-1.25179e-06
-7.83521e-07
-7.32623e-07
-3.44699e-07
-4.55699e-07
-4.51397e-07
-1.76408e-07
-8.38372e-08
-8.44532e-08
-8.12736e-08
-4.74549e-08
-4.76796e-08
-3.84538e-08
-2.15317e-08
-2.1288e-08
-1.75404e-08
-1.07008e-08
-1.02126e-08
-6.97955e-09
-5.58733e-09
-4.97349e-09
-1.54799e-09
-3.06747e-09
-2.36405e-09
1.12872e-09
-1.73377e-09
-9.42904e-10
2.18531e-09
-9.71594e-10
-8.49685e-11
2.2121e-09
-5.00451e-10
4.73683e-10
1.55149e-09
-1.97572e-10
8.58196e-10
4.43251e-10
-5.17075e-12
1.11342e-09
-9.17866e-10
1.04711e-10
1.25642e-09
-2.35964e-09
1.45047e-10
1.29674e-09
-3.72792e-09
1.23644e-10
1.24465e-09
-4.89291e-09
5.13083e-11
1.11369e-09
-5.75594e-09
-6.03257e-11
9.23365e-10
-6.25416e-09
-1.98002e-10
6.96237e-10
-6.36144e-09
-3.50942e-10
4.58227e-10
-6.08782e-09
-5.06985e-10
2.33374e-10
-5.47675e-09
-6.54938e-10
4.38813e-11
-4.59788e-09
-7.83571e-10
-9.52953e-11
-3.54492e-09
-8.82909e-10
-1.70042e-10
-2.4326e-09
-9.39733e-10
-1.72578e-10
-1.39202e-09
-9.32286e-10
-1.08282e-10
-5.6397e-10
-8.27027e-10
-1.00907e-12
-7.84896e-11
-5.73278e-10
8.78111e-11
-1.655e-10
8.70186e-11
-7.46975e-07
-1.32172e-06
-7.46975e-07
-4.52552e-07
-4.75898e-07
-6.02046e-07
-3.32138e-07
-3.14725e-07
-2.61388e-07
-1.77927e-07
-1.29205e-07
-1.08843e-07
-9.46904e-08
-7.22204e-08
-5.84707e-08
-4.96204e-08
-3.81107e-08
-2.84909e-08
-2.41694e-08
-2.23096e-08
-1.38421e-08
-9.72977e-09
-1.39373e-08
-6.08966e-09
-1.60606e-09
-9.41749e-09
-1.77366e-09
2.63293e-09
-6.80298e-09
8.30243e-10
4.31288e-09
-5.19331e-09
2.54179e-09
4.21119e-09
-4.14284e-09
3.7441e-09
2.84885e-09
-3.43772e-09
4.60251e-09
6.34322e-10
-2.97469e-09
5.18406e-09
-2.0711e-09
-2.70276e-09
5.51291e-09
-4.93522e-09
-2.59304e-09
5.60222e-09
-7.65828e-09
-2.62315e-09
5.46987e-09
-9.98424e-09
-2.76922e-09
5.1465e-09
-1.1717e-08
-3.00339e-09
4.67587e-09
-1.27298e-08
-3.29439e-09
4.10914e-09
-1.29721e-08
-3.61037e-09
3.50179e-09
-1.24653e-08
-3.91955e-09
2.90575e-09
-1.12951e-08
-4.19188e-09
2.36677e-09
-9.60092e-09
-4.39719e-09
1.91941e-09
-7.56586e-09
-4.5021e-09
1.58414e-09
-5.40551e-09
-4.46264e-09
1.36257e-09
-3.35404e-09
-4.21501e-09
1.23126e-09
-1.64428e-09
-3.66585e-09
1.12908e-09
-4.76534e-10
-2.67799e-09
9.36973e-10
-1.12717e-09
4.85146e-10
-4.67504e-07
-3.86713e-07
-4.67503e-07
-3.20545e-07
-3.52729e-07
-2.70128e-07
-2.26895e-07
-2.36373e-07
-1.72002e-07
-1.36453e-07
-1.28289e-07
-9.13593e-08
-8.00423e-08
-7.8842e-08
-4.97887e-08
-4.42324e-08
-4.85967e-08
-2.53239e-08
-2.19732e-08
-3.25154e-08
-1.20533e-08
-8.25934e-09
-2.32131e-08
-4.438e-09
-1.00179e-10
-1.77409e-08
1.6432e-10
4.26795e-09
-1.43333e-08
3.16226e-09
5.90661e-09
-1.21024e-08
5.27045e-09
5.51574e-09
-1.05767e-08
6.82476e-09
3.62535e-09
-9.5171e-09
7.96979e-09
6.94258e-10
-8.80268e-09
8.7591e-09
-2.84397e-09
-8.37156e-09
9.20704e-09
-6.57607e-09
-8.18499e-09
9.32407e-09
-1.01213e-08
-8.20957e-09
9.13163e-09
-1.31515e-08
-8.40818e-09
8.66918e-09
-1.54161e-08
-8.73485e-09
7.99609e-09
-1.67534e-08
-9.13908e-09
7.18196e-09
-1.71004e-08
-9.56667e-09
6.3033e-09
-1.64852e-08
-9.96408e-09
5.42937e-09
-1.50196e-08
-1.0279e-08
4.62147e-09
-1.28811e-08
-1.04573e-08
3.92169e-09
-1.02987e-08
-1.04372e-08
3.35274e-09
-7.53487e-09
-1.01376e-08
2.9111e-09
-4.86427e-09
-9.44493e-09
2.55932e-09
-2.55146e-09
-8.19143e-09
2.21279e-09
-8.33303e-10
-6.11544e-09
1.71931e-09
-2.80212e-09
8.41653e-10
-9.33981e-08
-1.99918e-07
-9.33972e-08
-1.31491e-07
-2.0074e-07
-1.13897e-07
-1.1744e-07
-1.57909e-07
-9.25141e-08
-8.27677e-08
-1.06111e-07
-5.68504e-08
-5.33512e-08
-7.48579e-08
-3.34005e-08
-3.07557e-08
-5.34969e-08
-1.76953e-08
-1.47943e-08
-4.05133e-08
-7.96355e-09
-4.01192e-09
-3.22449e-08
-1.75059e-09
2.76879e-09
-2.69218e-08
2.40018e-09
6.42023e-09
-2.33438e-08
5.35904e-09
7.57191e-09
-2.08457e-08
7.59164e-09
6.72286e-09
-1.90498e-08
9.32215e-09
4.32349e-09
-1.77554e-08
1.06376e-08
8.19038e-10
-1.68584e-08
1.15602e-08
-3.33485e-09
-1.63027e-08
1.20851e-08
-7.68505e-09
-1.60491e-08
1.22143e-08
-1.18049e-08
-1.60584e-08
1.19688e-08
-1.53238e-08
-1.62834e-08
1.1394e-08
-1.79563e-08
-1.6663e-08
1.05607e-08
-1.95214e-08
-1.71274e-08
9.55342e-09
-1.99494e-08
-1.76016e-08
8.463e-09
-1.92768e-08
-1.80107e-08
7.37403e-09
-1.76314e-08
-1.82809e-08
6.35661e-09
-1.52149e-08
-1.83328e-08
5.459e-09
-1.22806e-08
-1.80762e-08
4.70479e-09
-9.11305e-09
-1.73917e-08
4.08653e-09
-6.00622e-09
-1.61102e-08
3.55849e-09
-3.24286e-09
-1.39767e-08
3.0219e-09
-1.10153e-09
-1.05599e-08
2.3031e-09
-5.01517e-09
1.11153e-09
-5.03235e-08
-9.92715e-08
-5.03226e-08
-6.92144e-08
-1.21461e-07
-6.03875e-08
-6.51754e-08
-1.11386e-07
-5.05623e-08
-4.9216e-08
-8.83919e-08
-3.36786e-08
-3.28173e-08
-7.07779e-08
-2.04786e-08
-1.84769e-08
-5.71557e-08
-1.06815e-08
-7.30688e-09
-4.78e-08
-3.88328e-09
7.70222e-10
-4.12548e-08
9.32806e-10
6.01801e-09
-3.66621e-08
4.4925e-09
8.75034e-09
-3.33412e-08
7.26514e-09
9.27414e-09
-3.0876e-08
9.50647e-09
7.91253e-09
-2.90164e-08
1.13282e-08
5.02919e-09
-2.76274e-08
1.27554e-08
1.03707e-09
-2.66377e-08
1.37715e-08
-3.60641e-09
-2.60085e-08
1.43493e-08
-8.42925e-09
-2.5706e-08
1.44798e-08
-1.2978e-08
-2.56904e-08
1.41807e-08
-1.68546e-08
-2.59086e-08
1.35018e-08
-1.9753e-08
-2.62887e-08
1.25242e-08
-2.14806e-08
-2.67458e-08
1.1346e-08
-2.19665e-08
-2.71888e-08
1.00732e-08
-2.12543e-08
-2.75247e-08
8.80171e-09
-1.94861e-08
-2.76585e-08
7.60938e-09
-1.68786e-08
-2.74911e-08
6.55077e-09
-1.36999e-08
-2.69048e-08
5.64989e-09
-1.02469e-08
-2.57415e-08
4.89685e-09
-6.82414e-09
-2.37734e-08
4.24037e-09
-3.73122e-09
-2.06411e-08
3.57152e-09
-1.28535e-09
-1.57066e-08
2.70092e-09
-7.59851e-09
1.298e-09
-2.15237e-08
-5.62248e-08
-2.1523e-08
-3.22117e-08
-8.19439e-08
-2.88295e-08
-3.29303e-08
-8.49424e-08
-2.57246e-08
-2.61177e-08
-7.70525e-08
-1.81519e-08
-1.71648e-08
-6.86892e-08
-1.10416e-08
-8.19548e-09
-6.10244e-08
-5.1007e-09
-5.33534e-10
-5.50183e-08
-4.43682e-10
5.32537e-09
-5.03648e-08
3.25113e-09
9.17966e-09
-4.67988e-08
6.28241e-09
1.10079e-08
-4.40244e-08
8.85501e-09
1.08986e-08
-4.18375e-08
1.10709e-08
9.04044e-09
-4.01088e-08
1.29506e-08
5.72187e-09
-3.87705e-08
1.44617e-08
1.32245e-09
-3.77891e-08
1.55508e-08
-3.70758e-09
-3.71457e-08
1.61673e-08
-8.88932e-09
-3.68156e-08
1.62913e-08
-1.37552e-08
-3.67617e-08
1.59372e-08
-1.78891e-08
-3.69307e-08
1.51561e-08
-2.09732e-08
-3.72447e-08
1.40401e-08
-2.28092e-08
-3.76109e-08
1.27011e-08
-2.33285e-08
-3.79288e-08
1.12593e-08
-2.25829e-08
-3.80916e-08
9.82129e-09
-2.07259e-08
-3.79924e-08
8.47697e-09
-1.79856e-08
-3.75141e-08
7.28265e-09
-1.46399e-08
-3.65143e-08
6.26378e-09
-1.09923e-08
-3.47975e-08
5.40853e-09
-7.35558e-09
-3.20721e-08
4.66195e-09
-4.04161e-09
-2.78631e-08
3.90806e-09
-1.39811e-09
-2.12947e-08
2.94456e-09
-1.04101e-08
1.41348e-09
-9.46513e-09
-3.72951e-08
-9.46456e-09
-1.50732e-08
-6.27671e-08
-1.35687e-08
-1.58096e-08
-7.17332e-08
-1.24727e-08
-1.21855e-08
-7.18348e-08
-8.84182e-09
-6.68226e-09
-6.9322e-08
-4.87038e-09
-6.7809e-10
-6.58812e-08
-1.14735e-09
4.76675e-09
-6.26058e-08
2.14276e-09
9.05627e-09
-5.97142e-08
5.05988e-09
1.18299e-08
-5.72672e-08
7.69484e-09
1.29082e-08
-5.52077e-08
1.01049e-08
1.2258e-08
-5.34813e-08
1.2294e-08
9.98317e-09
-5.20502e-08
1.42163e-08
6.31968e-09
-5.08992e-08
1.57922e-08
1.61675e-09
-5.00256e-08
1.69394e-08
-3.68402e-09
-4.94293e-08
1.75843e-08
-9.10535e-09
-4.90914e-08
1.76972e-08
-1.41752e-08
-4.89808e-08
1.72889e-08
-1.84681e-08
-4.90491e-08
1.64113e-08
-2.16609e-08
-4.92196e-08
1.51677e-08
-2.35529e-08
-4.93994e-08
1.36804e-08
-2.40811e-08
-4.94851e-08
1.20846e-08
-2.33056e-08
-4.93678e-08
1.05007e-08
-2.13901e-08
-4.89328e-08
9.02494e-09
-1.85704e-08
-4.8052e-08
7.71818e-09
-1.51304e-08
-4.65613e-08
6.60697e-09
-1.13767e-08
-4.42284e-08
5.6773e-09
-7.62513e-09
-4.06948e-08
4.87117e-09
-4.19533e-09
-3.53617e-08
4.0688e-09
-1.45162e-09
-2.70983e-08
3.05996e-09
-1.33309e-08
1.46916e-09
-3.93474e-09
-2.9426e-08
-3.9344e-09
-6.28962e-09
-5.45681e-08
-5.84417e-09
-6.24694e-09
-6.64742e-08
-5.30168e-09
-3.72399e-09
-7.09714e-08
-3.38627e-09
1.40201e-10
-7.21702e-08
-1.01597e-09
4.48854e-09
-7.16953e-08
1.46583e-09
8.54176e-09
-7.05796e-08
3.92056e-09
1.17541e-08
-6.92515e-08
6.32504e-09
1.37317e-08
-6.79228e-08
8.67796e-09
1.42378e-08
-6.6674e-08
1.09603e-08
1.31776e-08
-6.55389e-08
1.31178e-08
1.06052e-08
-6.45407e-08
1.5063e-08
6.72066e-09
-6.36963e-08
1.66816e-08
1.85125e-09
-6.30222e-08
1.7866e-08
-3.57538e-09
-6.25269e-08
1.85243e-08
-9.09237e-09
-6.21982e-08
1.86238e-08
-1.42339e-08
-6.20105e-08
1.81714e-08
-1.85736e-08
-6.19243e-08
1.72149e-08
-2.17895e-08
-6.18698e-08
1.58661e-08
-2.36826e-08
-6.17656e-08
1.42593e-08
-2.41969e-08
-6.15133e-08
1.25425e-08
-2.34006e-08
-6.10093e-08
1.08451e-08
-2.1463e-08
-6.01395e-08
9.26921e-09
-1.86251e-08
-5.87703e-08
7.88036e-09
-1.51717e-08
-5.67207e-08
6.70601e-09
-1.14075e-08
-5.37234e-08
5.73082e-09
-7.64509e-09
-4.93516e-08
4.89429e-09
-4.20425e-09
-4.28775e-08
4.07498e-09
-1.45276e-09
-3.29108e-08
3.06094e-09
-1.62552e-08
1.47155e-09
-1.37736e-09
-2.66712e-08
-1.37736e-09
-1.88796e-09
-5.20939e-08
-1.96354e-09
-1.09279e-09
-6.57708e-08
-1.49854e-09
1.1321e-09
-7.28783e-08
-3.17987e-10
4.22771e-09
-7.65123e-08
1.24646e-09
7.64671e-09
-7.8154e-08
3.03967e-09
1.08263e-08
-7.87428e-08
4.98357e-09
1.33061e-08
-7.87714e-08
7.04018e-09
1.47212e-08
-7.8516e-08
9.17803e-09
1.48233e-08
-7.81179e-08
1.13418e-08
1.34992e-08
-7.76596e-08
1.34448e-08
1.07733e-08
-7.7188e-08
1.53733e-08
6.82427e-09
-7.67365e-08
1.69892e-08
1.95787e-09
-7.63287e-08
1.81729e-08
-3.41543e-09
-7.59776e-08
1.8824e-08
-8.85185e-09
-7.56705e-08
1.89087e-08
-1.39053e-08
-7.53881e-08
1.8431e-08
-1.81602e-08
-7.51016e-08
1.74323e-08
-2.13014e-08
-7.47575e-08
1.60289e-08
-2.31366e-08
-7.42866e-08
1.43563e-08
-2.36162e-08
-7.36043e-08
1.25706e-08
-2.28136e-08
-7.26236e-08
1.08118e-08
-2.09005e-08
-7.12391e-08
9.1865e-09
-1.81184e-08
-6.93145e-08
7.76212e-09
-1.47452e-08
-6.66575e-08
6.56358e-09
-1.1077e-08
-6.29672e-08
5.57561e-09
-7.41596e-09
-5.77531e-08
4.74048e-09
-4.0723e-09
-5.01574e-08
3.93621e-09
-1.40383e-09
-3.85333e-08
2.95405e-09
-1.90818e-08
1.42283e-09
-1.95421e-10
-2.62799e-08
-1.95881e-10
2.79299e-10
-5.25063e-08
-6.23277e-11
1.55351e-09
-6.74736e-08
4.28588e-10
3.67704e-09
-7.62809e-08
1.27912e-09
6.33492e-09
-8.15911e-08
2.42092e-09
9.15992e-09
-8.47886e-08
3.80966e-09
1.17409e-08
-8.67392e-08
5.41548e-09
1.36968e-08
-8.79363e-08
7.20901e-09
1.47117e-08
-8.86783e-08
9.14745e-09
1.45538e-08
-8.91259e-08
1.11659e-08
1.31049e-08
-8.93726e-08
1.3162e-08
1.03818e-08
-8.94737e-08
1.50088e-08
6.54629e-09
-8.9462e-08
1.6561e-08
1.88083e-09
-8.93602e-08
1.7697e-08
-3.23107e-09
-8.91753e-08
1.83096e-08
-8.38299e-09
-8.88977e-08
1.83792e-08
-1.31653e-08
-8.85134e-08
1.79077e-08
-1.71838e-08
-8.80021e-08
1.69189e-08
-2.01402e-08
-8.73268e-08
1.55257e-08
-2.18533e-08
-8.64368e-08
1.38633e-08
-2.22784e-08
-8.52714e-08
1.20922e-08
-2.14912e-08
-8.3759e-08
1.03482e-08
-1.96615e-08
-8.18101e-08
8.74129e-09
-1.70196e-08
-7.9295e-08
7.3386e-09
-1.3831e-08
-7.6012e-08
6.16591e-09
-1.03742e-08
-7.16331e-08
5.20912e-09
-6.93459e-09
-6.56013e-08
4.40855e-09
-3.80023e-09
-5.69423e-08
3.65061e-09
-1.30603e-09
-4.37682e-08
2.74076e-09
-2.17121e-08
1.32422e-09
3.13069e-10
-2.69049e-08
3.11916e-10
1.22465e-09
-5.41968e-08
7.789e-10
2.68044e-09
-7.02107e-08
1.28137e-09
4.66033e-09
-8.02135e-08
1.9527e-09
6.95957e-09
-8.67269e-08
2.83664e-09
9.31522e-09
-9.10945e-08
3.95032e-09
1.14164e-08
-9.41323e-08
5.29192e-09
1.29614e-08
-9.6322e-08
6.84076e-09
1.36816e-08
-9.79555e-08
8.55704e-09
1.33741e-08
-9.91911e-08
1.03727e-08
1.19334e-08
-1.00115e-07
1.21834e-08
9.37286e-09
-1.00778e-07
1.38649e-08
5.83829e-09
-1.01201e-07
1.52734e-08
1.58503e-09
-1.01403e-07
1.62962e-08
-3.04265e-09
-1.01384e-07
1.6836e-08
-7.69134e-09
-1.01139e-07
1.68904e-08
-1.2004e-08
-1.00659e-07
1.64579e-08
-1.56213e-08
-9.9929e-08
1.55442e-08
-1.8275e-08
-9.89251e-08
1.42521e-08
-1.97979e-08
-9.7613e-08
1.26991e-08
-2.01482e-08
-9.5959e-08
1.10378e-08
-1.94025e-08
-9.39076e-08
9.40297e-09
-1.77197e-08
-9.13934e-08
7.90051e-09
-1.53114e-08
-8.8296e-08
6.59268e-09
-1.24198e-08
-8.44084e-08
5.50478e-09
-9.29851e-09
-7.93789e-08
4.62457e-09
-6.20114e-09
-7.25982e-08
3.89961e-09
-3.38848e-09
-6.29801e-08
3.22509e-09
-1.16023e-09
-4.84201e-08
2.42365e-09
-2.4049e-08
1.17676e-09
4.70487e-10
-2.78439e-08
4.68547e-10
1.46328e-09
-5.62101e-08
1.0206e-09
2.84585e-09
-7.30737e-08
1.48046e-09
4.55991e-09
-8.39437e-08
2.01617e-09
6.4608e-09
-9.13359e-08
2.70809e-09
8.35318e-09
-9.65814e-08
3.59447e-09
1.00065e-08
-1.00471e-07
4.68566e-09
1.11877e-08
-1.03476e-07
5.97233e-09
1.16763e-08
-1.05863e-07
7.41853e-09
1.13092e-08
-1.07785e-07
8.96096e-09
9.9987e-09
-1.0931e-07
1.05054e-08
7.7523e-09
-1.1047e-07
1.19387e-08
4.70361e-09
-1.11282e-07
1.31295e-08
1.06619e-09
-1.1175e-07
1.39843e-08
-2.86419e-09
-1.11877e-07
1.44241e-08
-6.79974e-09
-1.11667e-07
1.44631e-08
-1.04482e-08
-1.11111e-07
1.4101e-08
-1.35047e-08
-1.10192e-07
1.33196e-08
-1.57352e-08
-1.08896e-07
1.22018e-08
-1.69927e-08
-1.07206e-07
1.08501e-08
-1.72506e-08
-1.05102e-07
9.40089e-09
-1.65718e-08
-1.02561e-07
7.97491e-09
-1.50978e-08
-9.95331e-08
6.66577e-09
-1.3015e-08
-9.59079e-08
5.52908e-09
-1.05316e-08
-9.14813e-08
4.58951e-09
-7.86254e-09
-8.58825e-08
3.83462e-09
-5.22723e-09
-7.84544e-08
3.22089e-09
-2.84563e-09
-6.80232e-08
2.66155e-09
-9.6805e-10
-5.23039e-08
2.00623e-09
-2.59993e-08
9.82267e-10
4.33727e-10
-2.87086e-08
4.31017e-10
1.27173e-09
-5.79573e-08
9.09128e-10
2.37531e-09
-7.54493e-08
1.27203e-09
3.68764e-09
-8.69248e-08
1.66875e-09
5.10307e-09
-9.49302e-08
2.17886e-09
6.4892e-09
-1.00809e-07
2.84162e-09
7.68237e-09
-1.05333e-07
3.66854e-09
8.50936e-09
-1.08959e-07
4.65693e-09
8.80833e-09
-1.11939e-07
5.77691e-09
8.45182e-09
-1.14405e-07
6.97647e-09
7.37239e-09
-1.16409e-07
8.17832e-09
5.58049e-09
-1.17964e-07
9.2856e-09
3.18112e-09
-1.19075e-07
1.01932e-08
3.41966e-10
-1.19745e-07
1.08345e-08
-2.70428e-09
-1.19984e-07
1.1153e-08
-5.74272e-09
-1.19804e-07
1.11757e-08
-8.55575e-09
-1.19199e-07
1.09011e-08
-1.08984e-08
-1.18149e-07
1.02992e-08
-1.25903e-08
-1.16634e-07
9.42969e-09
-1.35182e-08
-1.14645e-07
8.36779e-09
-1.36599e-08
-1.12186e-07
7.22561e-09
-1.30696e-08
-1.0925e-07
6.09856e-09
-1.18624e-08
-1.05804e-07
5.06378e-09
-1.01887e-08
-1.01753e-07
4.17139e-09
-8.21206e-09
-9.68965e-08
3.43856e-09
-6.10587e-09
-9.08453e-08
2.85659e-09
-4.03899e-09
-8.29149e-08
2.39362e-09
-2.18294e-09
-7.18609e-08
1.98166e-09
-7.3564e-10
-5.52553e-08
1.50409e-09
-2.74822e-08
7.47256e-10
2.83586e-10
-2.92714e-08
2.79187e-10
8.07092e-10
-5.90584e-08
5.77656e-10
1.48092e-09
-7.69196e-08
7.96493e-10
2.26942e-09
-8.87536e-08
1.04037e-09
3.11648e-09
-9.71402e-08
1.36299e-09
3.94223e-09
-1.03427e-07
1.7918e-09
4.64614e-09
-1.08376e-07
2.33947e-09
5.11784e-09
-1.12432e-07
3.00059e-09
5.25311e-09
-1.1583e-07
3.75571e-09
4.96554e-09
-1.18684e-07
4.56673e-09
4.20828e-09
-1.2103e-07
5.37858e-09
2.98653e-09
-1.22871e-07
6.12894e-09
1.36618e-09
-1.24199e-07
6.74441e-09
-5.36475e-10
-1.25018e-07
7.17553e-09
-2.56606e-09
-1.25338e-07
7.38391e-09
-4.57649e-09
-1.25183e-07
7.38974e-09
-6.41912e-09
-1.24549e-07
7.19264e-09
-7.93172e-09
-1.23405e-07
6.76922e-09
-8.99188e-09
-1.21739e-07
6.16533e-09
-9.52605e-09
-1.19543e-07
5.43206e-09
-9.5253e-09
-1.16833e-07
4.64658e-09
-9.03464e-09
-1.1362e-07
3.87967e-09
-8.1369e-09
-1.09884e-07
3.18266e-09
-6.93695e-09
-1.05539e-07
2.58656e-09
-5.55009e-09
-1.00389e-07
2.10585e-09
-4.09223e-09
-9.40372e-08
1.73403e-09
-2.67811e-09
-8.57761e-08
1.44712e-09
-1.42771e-09
-7.43168e-08
1.20546e-09
-4.70034e-10
-5.71452e-08
9.32189e-10
-2.84313e-08
4.79018e-10
6.62426e-11
-2.93986e-08
6.10341e-11
1.72517e-10
-5.92772e-08
1.12514e-10
3.1256e-10
-7.72156e-08
1.55942e-10
4.90016e-10
-8.91613e-08
2.30269e-10
6.9836e-10
-9.77039e-08
3.55359e-10
9.14909e-10
-1.04184e-07
5.4083e-10
1.10228e-09
-1.09353e-07
7.89132e-10
1.21356e-09
-1.13638e-07
1.09501e-09
1.20262e-09
-1.17268e-07
1.44948e-09
1.02415e-09
-1.20342e-07
1.83668e-09
6.49528e-10
-1.22886e-07
2.23063e-09
7.87486e-11
-1.24897e-07
2.59691e-09
-6.6602e-10
-1.26354e-07
2.89894e-09
-1.5334e-09
-1.27264e-07
3.11317e-09
-2.4489e-09
-1.27637e-07
3.21387e-09
-3.33542e-09
-1.27499e-07
3.20254e-09
-4.11677e-09
-1.26849e-07
3.08128e-09
-4.71238e-09
-1.25655e-07
2.84576e-09
-5.07129e-09
-1.23909e-07
2.52817e-09
-5.16787e-09
-1.21605e-07
2.15824e-09
-5.00836e-09
-1.18771e-07
1.7786e-09
-4.62716e-09
-1.1542e-07
1.41806e-09
-4.07136e-09
-1.11542e-07
1.10195e-09
-3.39113e-09
-1.07064e-07
8.44654e-10
-2.64903e-09
-1.01779e-07
6.47672e-10
-1.89841e-09
-9.52976e-08
5.09837e-10
-1.19973e-09
-8.68971e-08
4.22312e-10
-6.07066e-10
-7.52775e-08
3.68123e-10
-1.82774e-10
-5.78839e-08
3.14421e-10
-2.88035e-08
1.89466e-10
-1.86576e-10
-2.90192e-08
-1.92804e-10
-5.51726e-10
-5.84871e-08
-4.24893e-10
-1.0091e-09
-7.61815e-08
-5.76758e-10
-1.49471e-09
-8.79948e-08
-6.80883e-10
-1.96403e-09
-9.64772e-08
-7.57282e-10
-2.3818e-09
-1.02947e-07
-8.18909e-10
-2.72266e-09
-1.08138e-07
-8.73539e-10
-2.97007e-09
-1.12467e-07
-9.23286e-10
-3.11588e-09
-1.16153e-07
-9.69129e-10
-3.15998e-09
-1.19289e-07
-1.00895e-09
-3.11034e-09
-1.21899e-07
-1.0369e-09
-2.98567e-09
-1.23976e-07
-1.04583e-09
-2.80748e-09
-1.25497e-07
-1.0351e-09
-2.59138e-09
-1.26462e-07
-1.01843e-09
-2.34773e-09
-1.26869e-07
-1.01107e-09
-2.06703e-09
-1.26743e-07
-1.03707e-09
-1.74259e-09
-1.26082e-07
-1.09174e-09
-1.38203e-09
-1.24862e-07
-1.15372e-09
-1.00865e-09
-1.23086e-07
-1.19566e-09
-6.46088e-10
-1.20762e-07
-1.20527e-09
-3.24095e-10
-1.17914e-07
-1.17932e-09
-5.5943e-11
-1.14565e-07
-1.12323e-09
1.49062e-10
-1.107e-07
-1.04703e-09
2.84025e-10
-1.06242e-07
-9.5737e-10
3.57397e-10
-1.00994e-07
-8.58162e-10
3.70412e-10
-9.4559e-08
-7.5165e-10
3.31515e-10
-8.62248e-08
-6.33395e-10
2.41845e-10
-7.46938e-08
-4.94041e-10
1.14228e-10
-5.7435e-08
-3.21246e-10
-2.858e-08
-1.09284e-10
-4.5214e-10
-2.81082e-08
-4.58887e-10
-1.31154e-09
-5.66397e-08
-9.87999e-10
-2.38203e-09
-7.37707e-08
-1.34025e-09
-3.545e-09
-8.52084e-08
-1.62342e-09
-4.69757e-09
-9.34261e-08
-1.89861e-09
-5.75092e-09
-9.96919e-08
-2.20207e-09
-6.61796e-09
-1.04716e-07
-2.5556e-09
-7.22151e-09
-1.089e-07
-2.9634e-09
-7.49811e-09
-1.12459e-07
-3.41707e-09
-7.40609e-09
-1.15489e-07
-3.89243e-09
-6.93519e-09
-1.18016e-07
-4.3534e-09
-6.11113e-09
-1.20037e-07
-4.76298e-09
-4.99959e-09
-1.21529e-07
-5.07927e-09
-3.68315e-09
-1.22487e-07
-5.29132e-09
-2.25747e-09
-1.22898e-07
-5.39717e-09
-7.89109e-10
-1.22778e-07
-5.43314e-09
6.50597e-10
-1.22126e-07
-5.39553e-09
1.96773e-09
-1.20931e-07
-5.24792e-09
3.06746e-09
-1.19209e-07
-4.97733e-09
3.87539e-09
-1.16974e-07
-4.59601e-09
4.35318e-09
-1.14249e-07
-4.14272e-09
4.49916e-09
-1.11053e-07
-3.65719e-09
4.34305e-09
-1.07366e-07
-3.17855e-09
3.93579e-09
-1.03099e-07
-2.73543e-09
3.34055e-09
-9.80583e-08
-2.3406e-09
2.62293e-09
-9.18487e-08
-1.99265e-09
1.84734e-09
-8.37779e-08
-1.67134e-09
1.08193e-09
-7.25867e-08
-1.34166e-09
4.07617e-10
-5.58134e-08
-9.47281e-10
-2.77686e-08
-4.03715e-10
-7.11218e-10
-2.66779e-08
-7.19078e-10
-2.05145e-09
-5.37623e-08
-1.53716e-09
-3.71788e-09
-7.00197e-08
-2.08458e-09
-5.53136e-09
-8.08588e-08
-2.53619e-09
-7.34088e-09
-8.86203e-08
-2.99626e-09
-8.99894e-09
-9.45084e-08
-3.52538e-09
-1.03656e-08
-9.91964e-08
-4.15267e-09
-1.13065e-08
-1.03069e-07
-4.89036e-09
-1.17082e-08
-1.06335e-07
-5.72258e-09
-1.14912e-08
-1.09094e-07
-6.61151e-09
-1.06223e-08
-1.11388e-07
-7.4973e-09
-9.13554e-09
-1.13219e-07
-8.30474e-09
-7.12837e-09
-1.14579e-07
-8.95689e-09
-4.74755e-09
-1.15456e-07
-9.41175e-09
-2.1719e-09
-1.15836e-07
-9.63743e-09
4.50017e-10
-1.15719e-07
-9.68072e-09
2.9644e-09
-1.15106e-07
-9.53451e-09
5.18977e-09
-1.14005e-07
-9.15185e-09
6.9676e-09
-1.12435e-07
-8.55196e-09
8.18454e-09
-1.10412e-07
-7.77874e-09
8.79577e-09
-1.07953e-07
-6.90735e-09
8.81707e-09
-1.05062e-07
-6.01298e-09
8.31444e-09
-1.01703e-07
-5.16016e-09
7.38989e-09
-9.77835e-08
-4.39107e-09
6.15935e-09
-9.31027e-08
-3.72511e-09
4.74886e-09
-8.72861e-08
-3.15202e-09
3.27972e-09
-7.96656e-08
-2.64311e-09
1.87412e-09
-6.90435e-08
-2.13761e-09
6.849e-10
-5.30892e-08
-1.53498e-09
-2.64024e-08
-6.81333e-10
-9.49242e-10
-2.47715e-08
-9.57108e-10
-2.72887e-09
-4.99434e-08
-2.03929e-09
-4.9401e-09
-6.5046e-08
-2.76243e-09
-7.3465e-09
-7.50871e-08
-3.36524e-09
-9.74969e-09
-8.22304e-08
-3.98664e-09
-1.19546e-08
-8.75938e-08
-4.70975e-09
-1.37716e-08
-9.18024e-08
-5.57693e-09
-1.50178e-08
-9.52216e-08
-6.60121e-09
-1.55369e-08
-9.80492e-08
-7.76686e-09
-1.52097e-08
-1.00397e-07
-9.02426e-09
-1.39883e-08
-1.02317e-07
-1.0292e-08
-1.19044e-08
-1.03831e-07
-1.1472e-08
-9.0862e-09
-1.04943e-07
-1.24542e-08
-5.72988e-09
-1.05652e-07
-1.31595e-08
-2.08773e-09
-1.05953e-07
-1.35248e-08
1.60222e-09
-1.05839e-07
-1.35707e-08
5.09768e-09
-1.05313e-07
-1.32886e-08
8.13809e-09
-1.04389e-07
-1.26564e-08
1.05162e-08
-1.0308e-07
-1.17323e-08
1.20891e-08
-1.01396e-07
-1.0589e-08
1.28086e-08
-9.93356e-08
-9.33676e-09
1.27071e-08
-9.68825e-08
-8.07771e-09
1.18873e-08
-9.39872e-08
-6.89571e-09
1.04944e-08
-9.05467e-08
-5.84396e-09
8.69431e-09
-8.63615e-08
-4.94103e-09
6.65977e-09
-8.1076e-08
-4.17561e-09
4.56599e-09
-7.40672e-08
-3.50458e-09
2.58737e-09
-6.42206e-08
-2.84431e-09
9.33179e-10
-4.93762e-08
-2.05878e-09
-2.45399e-08
-9.29364e-10
-1.15434e-09
-2.24551e-08
-1.16206e-09
-3.31181e-09
-4.53136e-08
-2.47234e-09
-5.98744e-09
-5.90258e-08
-3.34459e-09
-8.89932e-09
-6.81052e-08
-4.07001e-09
-1.18049e-08
-7.45071e-08
-4.81763e-09
-1.44709e-08
-7.92371e-08
-5.69068e-09
-1.66634e-08
-8.28673e-08
-6.74258e-09
-1.81633e-08
-8.5732e-08
-7.98968e-09
-1.87752e-08
-8.8027e-08
-9.41026e-09
-1.83546e-08
-8.98687e-08
-1.0949e-08
-1.68358e-08
-9.13223e-08
-1.25138e-08
-1.42496e-08
-9.24298e-08
-1.39875e-08
-1.07438e-08
-9.3217e-08
-1.5232e-08
-6.55547e-09
-9.37012e-08
-1.61396e-08
-2.00217e-09
-9.38897e-08
-1.66169e-08
2.59817e-09
-9.37798e-08
-1.66592e-08
6.92321e-09
-9.33761e-08
-1.62616e-08
1.06512e-08
-9.26914e-08
-1.54254e-08
1.35283e-08
-9.17213e-08
-1.42363e-08
1.53931e-08
-9.0461e-08
-1.28e-08
1.61978e-08
-8.88862e-08
-1.12542e-08
1.59915e-08
-8.69587e-08
-9.71753e-09
1.49054e-08
-8.4616e-08
-8.28495e-09
1.3118e-08
-8.17443e-08
-7.01495e-09
1.08363e-08
-7.81487e-08
-5.93115e-09
8.27749e-09
-7.34988e-08
-5.01834e-09
5.65526e-09
-6.72227e-08
-4.22231e-09
3.18954e-09
-5.83159e-08
-3.43893e-09
1.14384e-09
-4.48287e-08
-2.50176e-09
-2.22566e-08
-1.13943e-09
-1.31691e-09
-1.98139e-08
-1.32431e-09
-3.77358e-09
-4.00429e-08
-2.814e-09
-6.81745e-09
-5.21815e-08
-3.80036e-09
-1.01254e-08
-6.01801e-08
-4.61712e-09
-1.34239e-08
-6.57523e-08
-5.45643e-09
-1.64461e-08
-6.97832e-08
-6.43164e-09
-1.8927e-08
-7.27823e-08
-7.6041e-09
-2.0616e-08
-7.50502e-08
-8.9927e-09
-2.12916e-08
-7.67759e-08
-1.05755e-08
-2.07901e-08
-7.80745e-08
-1.22958e-08
-1.90335e-08
-7.90281e-08
-1.40508e-08
-1.60542e-08
-7.96976e-08
-1.57115e-08
-1.20123e-08
-8.0132e-08
-1.71269e-08
-7.178e-09
-8.03679e-08
-1.81676e-08
-1.91425e-09
-8.04311e-08
-1.87223e-08
3.39515e-09
-8.03289e-08
-1.87603e-08
8.3631e-09
-8.0067e-08
-1.8277e-08
1.26178e-08
-7.9645e-08
-1.7301e-08
1.5879e-08
-7.90444e-08
-1.59381e-08
1.79702e-08
-7.82383e-08
-1.43139e-08
1.88427e-08
-7.71798e-08
-1.25788e-08
1.8558e-08
-7.58103e-08
-1.08636e-08
1.72666e-08
-7.40517e-08
-9.27292e-09
1.51736e-08
-7.17854e-08
-7.86594e-09
1.25177e-08
-6.88269e-08
-6.6659e-09
9.54668e-09
-6.48733e-08
-5.65447e-09
6.51079e-09
-5.94174e-08
-4.76942e-09
3.66358e-09
-5.15724e-08
-3.89625e-09
1.30874e-09
-3.96282e-08
-2.8457e-09
-1.96442e-08
-1.30365e-09
-1.43246e-09
-1.69422e-08
-1.4392e-09
-4.10036e-09
-3.43201e-08
-3.05489e-09
-7.40116e-09
-4.47608e-08
-4.11993e-09
-1.0986e-08
-5.16023e-08
-4.99291e-09
-1.4557e-08
-5.63002e-08
-5.88112e-09
-1.78222e-08
-5.96099e-08
-6.90812e-09
-2.04963e-08
-6.19704e-08
-8.13786e-09
-2.23058e-08
-6.36515e-08
-9.5891e-09
-2.30142e-08
-6.48246e-08
-1.12429e-08
-2.24447e-08
-6.56075e-08
-1.30365e-08
-2.05152e-08
-6.60921e-08
-1.48655e-08
-1.72598e-08
-6.63523e-08
-1.66007e-08
-1.28482e-08
-6.64592e-08
-1.80844e-08
-7.57124e-09
-6.6466e-08
-1.91789e-08
-1.823e-09
-6.64148e-08
-1.97645e-08
3.96824e-09
-6.63228e-08
-1.97973e-08
9.37186e-09
-6.61947e-08
-1.92759e-08
1.39861e-08
-6.60212e-08
-1.8238e-08
1.75106e-08
-6.57693e-08
-1.67997e-08
1.97585e-08
-6.53879e-08
-1.50982e-08
2.06816e-08
-6.48137e-08
-1.32892e-08
2.03477e-08
-6.39734e-08
-1.1503e-08
1.89167e-08
-6.27755e-08
-9.84516e-09
1.6614e-08
-6.1103e-08
-8.37972e-09
1.36969e-08
-5.87829e-08
-7.12686e-09
1.04377e-08
-5.55463e-08
-6.06774e-09
7.11108e-09
-5.09541e-08
-5.13666e-09
3.99543e-09
-4.42465e-08
-4.21029e-09
1.42446e-09
-3.39725e-08
-3.08464e-09
-1.68007e-08
-1.41901e-09
-1.49753e-09
-1.39412e-08
-1.50346e-09
-4.28197e-09
-2.8348e-08
-3.18764e-09
-7.72572e-09
-3.70274e-08
-4.28959e-09
-1.14641e-08
-4.26804e-08
-5.18352e-09
-1.51865e-08
-4.64941e-08
-6.08366e-09
-1.85863e-08
-4.9094e-08
-7.11603e-09
-2.13616e-08
-5.08493e-08
-8.34591e-09
-2.32281e-08
-5.19917e-08
-9.79324e-09
-2.39413e-08
-5.26764e-08
-1.14351e-08
-2.33207e-08
-5.30185e-08
-1.32095e-08
-2.1285e-08
-5.31104e-08
-1.50174e-08
-1.78689e-08
-5.3039e-08
-1.67294e-08
-1.32525e-08
-5.28822e-08
-1.81934e-08
-7.73597e-09
-5.27083e-08
-1.92742e-08
-1.72696e-09
-5.25687e-08
-1.98551e-08
4.32233e-09
-5.24893e-08
-1.98829e-08
9.95725e-09
-5.2474e-08
-1.93556e-08
1.47649e-08
-5.25052e-08
-1.83236e-08
1.84315e-08
-5.25358e-08
-1.69001e-08
2.07686e-08
-5.25064e-08
-1.52187e-08
2.17238e-08
-5.23387e-08
-1.34301e-08
2.13655e-08
-5.19505e-08
-1.16646e-08
1.9859e-08
-5.12473e-08
-1.00216e-08
1.74358e-08
-5.01159e-08
-8.56385e-09
1.43677e-08
-4.83998e-08
-7.31491e-09
1.09416e-08
-4.58658e-08
-6.25447e-09
7.44758e-09
-4.21434e-08
-5.31667e-09
4.18041e-09
-3.66061e-08
-4.37317e-09
1.48861e-09
-2.80671e-08
-3.21366e-09
-1.38288e-08
-1.48331e-09
-1.5091e-09
-1.09182e-08
-1.5139e-09
-4.31336e-09
-2.23369e-08
-3.20685e-09
-7.78503e-09
-2.92497e-08
-4.30602e-09
-1.15583e-08
-3.3721e-08
-5.18614e-09
-1.53173e-08
-3.66726e-08
-6.06246e-09
-1.87487e-08
-3.86021e-08
-7.06044e-09
-2.1544e-08
-3.98106e-08
-8.24342e-09
-2.34147e-08
-4.04911e-08
-9.62978e-09
-2.41139e-08
-4.07808e-08
-1.11964e-08
-2.3464e-08
-4.07837e-08
-1.28846e-08
-2.13868e-08
-4.05896e-08
-1.45979e-08
-1.79249e-08
-4.0285e-08
-1.6216e-08
-1.32572e-08
-3.99515e-08
-1.75985e-08
-7.68745e-09
-3.96606e-08
-1.86174e-08
-1.62398e-09
-3.94684e-08
-1.91637e-08
4.47676e-09
-3.9403e-08
-1.9187e-08
1.01564e-08
-3.94679e-08
-1.86858e-08
1.50007e-08
-3.96411e-08
-1.77083e-08
1.86974e-08
-3.9872e-08
-1.63606e-08
2.10551e-08
-4.0094e-08
-1.47701e-08
2.20185e-08
-4.02271e-08
-1.3075e-08
2.16518e-08
-4.01874e-08
-1.13964e-08
2.01211e-08
-3.98859e-08
-9.83074e-09
1.76577e-08
-3.92155e-08
-8.43703e-09
1.45391e-08
-3.80426e-08
-7.23866e-09
1.10595e-08
-3.61697e-08
-6.21641e-09
7.51789e-09
-3.3296e-08
-5.30582e-09
4.21426e-09
-2.89217e-08
-4.38083e-09
1.49874e-09
-2.21223e-08
-3.22928e-09
-1.08357e-08
-1.49437e-09
-1.4629e-09
-7.98842e-09
-1.46688e-09
-4.18703e-09
-1.65102e-08
-3.10249e-09
-7.57073e-09
-2.17111e-08
-4.15494e-09
-1.12643e-08
-2.50417e-08
-4.9857e-09
-1.49547e-08
-2.71781e-08
-5.80413e-09
-1.83279e-08
-2.84965e-08
-6.73237e-09
-2.10751e-08
-2.92324e-08
-7.83104e-09
-2.29067e-08
-2.95439e-08
-9.11565e-09
-2.35828e-08
-2.95412e-08
-1.05635e-08
-2.29317e-08
-2.9316e-08
-1.21189e-08
-2.0881e-08
-2.89477e-08
-1.36925e-08
-1.74777e-08
-2.85151e-08
-1.51732e-08
-1.28999e-08
-2.80949e-08
-1.64344e-08
-7.44505e-09
-2.77534e-08
-1.7362e-08
-1.51021e-09
-2.75434e-08
-1.78598e-08
4.45891e-09
-2.74928e-08
-1.78793e-08
1.00146e-08
-2.76041e-08
-1.74195e-08
1.47553e-08
-2.7855e-08
-1.65268e-08
1.83745e-08
-2.8196e-08
-1.52951e-08
2.06836e-08
-2.85643e-08
-1.38389e-08
2.16253e-08
-2.88858e-08
-1.22829e-08
2.12591e-08
-2.90838e-08
-1.07374e-08
1.97427e-08
-2.90773e-08
-9.29205e-09
1.73064e-08
-2.87768e-08
-8.00241e-09
1.4225e-08
-2.80699e-08
-6.89129e-09
1.07954e-08
-2.6798e-08
-5.94211e-09
7.31836e-09
-2.47254e-08
-5.09358e-09
4.09118e-09
-2.14719e-08
-4.22255e-09
1.45178e-09
-1.63601e-08
-3.12278e-09
-7.93478e-09
-1.44912e-09
-1.35172e-09
-5.28215e-09
-1.35454e-09
-3.88718e-09
-1.11168e-08
-2.85794e-09
-7.06776e-09
-1.47194e-08
-3.81111e-09
-1.05707e-08
-1.69876e-08
-4.55115e-09
-1.40934e-08
-1.83799e-08
-5.27554e-09
-1.7326e-08
-1.91642e-08
-6.0997e-09
-1.99625e-08
-1.95155e-08
-7.08034e-09
-2.17229e-08
-1.95527e-08
-8.2308e-09
-2.23733e-08
-1.93625e-08
-9.52831e-09
-2.17532e-08
-1.90158e-08
-1.09203e-08
-1.97978e-08
-1.85777e-08
-1.23254e-08
-1.65569e-08
-1.81127e-08
-1.36432e-08
-1.22021e-08
-1.76849e-08
-1.47648e-08
-7.01765e-09
-1.73498e-08
-1.5588e-08
-1.37966e-09
-1.71524e-08
-1.6029e-08
4.28928e-09
-1.71162e-08
-1.60456e-08
9.56503e-09
-1.72431e-08
-1.56367e-08
1.40672e-08
-1.7513e-08
-1.48442e-08
1.75045e-08
-1.78843e-08
-1.3749e-08
1.96953e-08
-1.83034e-08
-1.24518e-08
2.05807e-08
-1.87087e-08
-1.10624e-08
2.02128e-08
-1.90358e-08
-9.68009e-09
1.87421e-08
-1.92209e-08
-8.38578e-09
1.63897e-08
-1.91923e-08
-7.23205e-09
1.34246e-08
-1.88636e-08
-6.24128e-09
1.0141e-08
-1.81151e-08
-5.39932e-09
6.83565e-09
-1.67713e-08
-4.6487e-09
3.7984e-09
-1.45615e-08