/*--------------------------------*- C++ -*----------------------------------*\
| =========                 |                                                 |
| \\      /  F ield         | OpenFOAM: The Open Source CFD Toolbox           |
|  \\    /   O peration     | Version:  v1906                                 |
|   \\  /    A nd           | Web:      www.OpenFOAM.com                      |
|    \\/     M anipulation  |                                                 |
\*---------------------------------------------------------------------------*/
FoamFile
{
    version     2.0;
    format      ascii;
    class       volVectorField;
    location    "14.4/oil";
    object      U;
}
// * * * * * * * * * * * * * * * * * * * * * * * * * * * * * * * * * * * * * //

dimensions      [0 1 -1 0 0 0 0];


internalField   nonuniform List<vector> 
27760
(
(-3.16724e-05 -3.23188e-05 -3.16725e-05)
(-6.25665e-05 -2.42601e-05 -2.28051e-05)
(-4.65937e-06 -6.30826e-06 -6.20079e-06)
(-7.69868e-06 -1.05134e-06 -1.07807e-06)
(-1.97483e-06 -3.60858e-07 -3.85899e-07)
(-1.21205e-06 -1.78023e-07 -1.96388e-07)
(-5.27606e-07 -7.087e-08 -8.6425e-08)
(-2.33608e-07 -2.99443e-08 -4.48849e-08)
(-7.46751e-08 -1.01829e-08 -2.52952e-08)
(5.08892e-09 -5.74701e-10 -1.60358e-08)
(4.17475e-08 4.61576e-09 -1.11668e-08)
(5.13842e-08 7.67759e-09 -8.308e-09)
(4.32478e-08 9.59157e-09 -6.52509e-09)
(2.31718e-08 1.07834e-08 -5.40659e-09)
(-4.31657e-09 1.14194e-08 -4.79698e-09)
(-3.53139e-08 1.15964e-08 -4.61519e-09)
(-6.62895e-08 1.13915e-08 -4.79378e-09)
(-9.41477e-08 1.08482e-08 -5.27e-09)
(-1.16396e-07 1.00257e-08 -5.95625e-09)
(-1.31281e-07 8.98157e-09 -6.75217e-09)
(-1.37842e-07 7.80943e-09 -7.53098e-09)
(-1.35913e-07 6.56784e-09 -8.18142e-09)
(-1.26102e-07 5.30139e-09 -8.59751e-09)
(-1.09647e-07 4.05746e-09 -8.64714e-09)
(-8.83227e-08 2.85908e-09 -8.24881e-09)
(-6.43944e-08 1.7378e-09 -7.34909e-09)
(-4.0532e-08 7.9077e-10 -5.92665e-09)
(-1.97345e-08 2.20435e-10 -4.07938e-09)
(-4.9723e-09 3.83507e-10 -2.18964e-09)
(6.72506e-10 1.18474e-09 -5.37979e-10)
(-2.30014e-05 -6.42603e-05 -2.30014e-05)
(-7.63392e-06 -8.20861e-06 -1.0304e-05)
(-1.04758e-05 -9.89394e-06 -3.59846e-06)
(-5.20466e-06 -2.67588e-06 -1.02089e-06)
(-2.56618e-06 -1.51402e-06 -4.97185e-07)
(-1.45651e-06 -7.08479e-07 -2.3485e-07)
(-7.18396e-07 -3.74483e-07 -1.09051e-07)
(-3.26435e-07 -2.07668e-07 -5.22172e-08)
(-9.78864e-08 -1.23479e-07 -2.3428e-08)
(2.64615e-08 -7.7555e-08 -8.32449e-09)
(8.54644e-08 -5.06973e-08 4.59059e-10)
(9.93998e-08 -3.38244e-08 6.02355e-09)
(8.13788e-08 -2.28104e-08 9.72817e-09)
(4.09214e-08 -1.57192e-08 1.21322e-08)
(-1.38505e-08 -1.16583e-08 1.3461e-08)
(-7.54822e-08 -1.01342e-08 1.38136e-08)
(-1.37119e-07 -1.07805e-08 1.32763e-08)
(-1.92691e-07 -1.3248e-08 1.19896e-08)
(-2.37254e-07 -1.71244e-08 1.01461e-08)
(-2.67287e-07 -2.1962e-08 7.97318e-09)
(-2.80878e-07 -2.72725e-08 5.69815e-09)
(-2.77747e-07 -3.26089e-08 3.55171e-09)
(-2.59093e-07 -3.7554e-08 1.74386e-09)
(-2.27399e-07 -4.16959e-08 4.51784e-10)
(-1.86193e-07 -4.46051e-08 -2.02967e-10)
(-1.39832e-07 -4.57219e-08 -1.67694e-10)
(-9.32449e-08 -4.41846e-08 5.04838e-10)
(-5.15657e-08 -3.87148e-08 1.55916e-09)
(-1.96916e-08 -2.74974e-08 2.35192e-09)
(-1.62221e-09 -1.00599e-08 1.82306e-09)
(-6.38152e-06 -5.83925e-06 -6.38154e-06)
(-1.02018e-05 -1.08353e-05 -3.71137e-06)
(-5.66372e-06 -5.69702e-06 -1.6533e-06)
(-3.819e-06 -2.86546e-06 -7.92993e-07)
(-2.17041e-06 -1.68074e-06 -3.84095e-07)
(-1.2686e-06 -9.59618e-07 -1.85809e-07)
(-6.57383e-07 -5.98711e-07 -8.64154e-08)
(-2.92586e-07 -3.98485e-07 -3.74787e-08)
(-6.71112e-08 -2.85554e-07 -1.11607e-08)
(6.10195e-08 -2.17853e-07 3.80067e-09)
(1.216e-07 -1.74968e-07 1.32112e-08)
(1.3205e-07 -1.46406e-07 1.96013e-08)
(1.05009e-07 -1.26966e-07 2.40826e-08)
(5.07805e-08 -1.14061e-07 2.70821e-08)
(-2.11181e-08 -1.06392e-07 2.87448e-08)
(-1.01528e-07 -1.03187e-07 2.91442e-08)
(-1.81797e-07 -1.03832e-07 2.83748e-08)
(-2.54164e-07 -1.07656e-07 2.65984e-08)
(-3.12292e-07 -1.13862e-07 2.40546e-08)
(-3.51684e-07 -1.21568e-07 2.10276e-08)
(-3.69912e-07 -1.29853e-07 1.78188e-08)
(-3.66646e-07 -1.3781e-07 1.47171e-08)
(-3.43461e-07 -1.44557e-07 1.19723e-08)
(-3.03561e-07 -1.492e-07 9.77905e-09)
(-2.51413e-07 -1.50723e-07 8.25601e-09)
(-1.92401e-07 -1.47806e-07 7.42863e-09)
(-1.3244e-07 -1.38557e-07 7.1889e-09)
(-7.7378e-08 -1.20253e-07 7.18106e-09)
(-3.29393e-08 -8.88443e-08 6.64627e-09)
(-3.6343e-09 -3.93314e-08 3.89214e-09)
(-1.1748e-06 -8.29123e-06 -1.17483e-06)
(-2.88967e-06 -5.67312e-06 -1.08812e-06)
(-2.7757e-06 -4.16991e-06 -8.06438e-07)
(-2.19441e-06 -2.56822e-06 -4.47196e-07)
(-1.4179e-06 -1.68812e-06 -2.37118e-07)
(-8.74453e-07 -1.12051e-06 -1.2067e-07)
(-4.59284e-07 -7.96458e-07 -5.55952e-08)
(-1.79824e-07 -5.99584e-07 -2.00309e-08)
(4.76791e-09 -4.78438e-07 8.80275e-10)
(1.13348e-07 -4.00159e-07 1.39685e-08)
(1.62348e-07 -3.4734e-07 2.2958e-08)
(1.63223e-07 -3.10388e-07 2.95068e-08)
(1.25937e-07 -2.84297e-07 3.43185e-08)
(5.99822e-08 -2.66492e-07 3.76241e-08)
(-2.49235e-08 -2.5562e-07 3.94616e-08)
(-1.18875e-07 -2.50795e-07 3.98606e-08)
(-2.12251e-07 -2.51206e-07 3.8905e-08)
(-2.9629e-07 -2.55917e-07 3.67657e-08)
(-3.63794e-07 -2.63761e-07 3.37187e-08)
(-4.09678e-07 -2.73426e-07 3.00884e-08)
(-4.31228e-07 -2.83509e-07 2.62265e-08)
(-4.28147e-07 -2.92618e-07 2.24583e-08)
(-4.02289e-07 -2.99372e-07 1.906e-08)
(-3.5732e-07 -3.02343e-07 1.62362e-08)
(-2.98247e-07 -2.99875e-07 1.41014e-08)
(-2.30974e-07 -2.89825e-07 1.26646e-08)
(-1.61871e-07 -2.69164e-07 1.17938e-08)
(-9.70867e-08 -2.33428e-07 1.10772e-08)
(-4.30216e-08 -1.75382e-07 9.68479e-09)
(-5.09726e-09 -8.20568e-08 5.42405e-09)
(-4.12797e-07 -2.39793e-06 -4.12833e-07)
(-1.56043e-06 -3.0913e-06 -5.20696e-07)
(-1.51146e-06 -2.74307e-06 -3.91493e-07)
(-1.26799e-06 -2.04937e-06 -2.38986e-07)
(-8.72397e-07 -1.55708e-06 -1.33804e-07)
(-5.39896e-07 -1.192e-06 -6.88183e-08)
(-2.60778e-07 -9.52698e-07 -2.88908e-08)
(-5.52698e-08 -7.91624e-07 -4.75928e-09)
(8.70463e-08 -6.82778e-07 1.09694e-08)
(1.71402e-07 -6.06653e-07 2.19431e-08)
(2.04918e-07 -5.51768e-07 3.02233e-08)
(1.94129e-07 -5.11331e-07 3.66984e-08)
(1.4637e-07 -4.8166e-07 4.16727e-08)
(6.99941e-08 -4.60819e-07 4.51742e-08)
(-2.55203e-08 -4.47755e-07 4.71215e-08)
(-1.29977e-07 -4.41653e-07 4.74927e-08)
(-2.33226e-07 -4.41642e-07 4.6354e-08)
(-3.25882e-07 -4.46613e-07 4.38802e-08)
(-4.00199e-07 -4.55099e-07 4.03866e-08)
(-4.50732e-07 -4.65415e-07 3.62332e-08)
(-4.74633e-07 -4.75736e-07 3.18204e-08)
(-4.71693e-07 -4.84233e-07 2.75082e-08)
(-4.44006e-07 -4.8906e-07 2.35968e-08)
(-3.95567e-07 -4.88286e-07 2.02992e-08)
(-3.31726e-07 -4.79642e-07 1.77295e-08)
(-2.58677e-07 -4.60158e-07 1.58865e-08)
(-1.83032e-07 -4.25574e-07 1.46249e-08)
(-1.11142e-07 -3.69353e-07 1.3498e-08)
(-5.00228e-08 -2.80152e-07 1.16199e-08)
(-6.04304e-09 -1.34482e-07 6.44198e-09)
(-1.97537e-07 -1.58129e-06 -1.97577e-07)
(-6.75632e-07 -2.08712e-06 -2.38897e-07)
(-7.40197e-07 -2.04608e-06 -1.87566e-07)
(-6.63651e-07 -1.75288e-06 -1.21996e-07)
(-4.68772e-07 -1.49119e-06 -6.97364e-08)
(-2.69845e-07 -1.27029e-06 -3.41233e-08)
(-8.5298e-08 -1.10716e-06 -9.91366e-09)
(6.16642e-08 -9.8646e-07 6.5039e-09)
(1.66965e-07 -8.97583e-07 1.85373e-08)
(2.27981e-07 -8.30709e-07 2.79405e-08)
(2.45801e-07 -7.7946e-07 3.56981e-08)
(2.23348e-07 -7.39847e-07 4.21543e-08)
(1.65809e-07 -7.09714e-07 4.73006e-08)
(8.04416e-08 -6.87933e-07 5.09937e-08)
(-2.36477e-08 -6.73897e-07 5.30397e-08)
(-1.36209e-07 -6.66966e-07 5.33729e-08)
(-2.46843e-07 -6.66297e-07 5.20415e-08)
(-3.4578e-07 -6.70714e-07 4.92217e-08)
(-4.24929e-07 -6.78562e-07 4.52726e-08)
(-4.78637e-07 -6.87903e-07 4.05956e-08)
(-5.04035e-07 -6.9661e-07 3.56469e-08)
(-5.01032e-07 -7.0251e-07 3.08224e-08)
(-4.71956e-07 -7.03394e-07 2.64474e-08)
(-4.21069e-07 -6.96908e-07 2.27475e-08)
(-3.53948e-07 -6.8022e-07 1.98373e-08)
(-2.76963e-07 -6.49535e-07 1.77087e-08)
(-1.96869e-07 -5.99272e-07 1.62059e-08)
(-1.20174e-07 -5.20504e-07 1.48582e-08)
(-5.43772e-08 -3.9704e-07 1.27345e-08)
(-6.58803e-09 -1.93235e-07 7.05501e-09)
(-7.76921e-08 -9.26653e-07 -7.77345e-08)
(-3.06614e-07 -1.48125e-06 -1.04417e-07)
(-3.54443e-07 -1.6343e-06 -8.5403e-08)
(-3.1959e-07 -1.57605e-06 -5.71929e-08)
(-2.08336e-07 -1.47344e-06 -3.14477e-08)
(-7.90924e-08 -1.36178e-06 -1.1954e-08)
(4.89205e-08 -1.26515e-06 2.9541e-09)
(1.56087e-07 -1.18492e-06 1.44892e-08)
(2.33637e-07 -1.12001e-06 2.40773e-08)
(2.75673e-07 -1.06728e-06 3.24269e-08)
(2.80123e-07 -1.02432e-06 3.98667e-08)
(2.47712e-07 -9.89499e-07 4.63787e-08)
(1.82159e-07 -9.62016e-07 5.17166e-08)
(8.98837e-08 -9.41524e-07 5.5601e-08)
(-2.03813e-08 -9.27855e-07 5.77359e-08)
(-1.3846e-07 -9.20555e-07 5.8027e-08)
(-2.53925e-07 -9.18884e-07 5.65068e-08)
(-3.56823e-07 -9.2171e-07 5.3343e-08)
(-4.38876e-07 -9.27336e-07 4.89416e-08)
(-4.94353e-07 -9.33729e-07 4.37484e-08)
(-5.20413e-07 -9.38615e-07 3.82773e-08)
(-5.1713e-07 -9.39651e-07 3.29625e-08)
(-4.8705e-07 -9.34407e-07 2.81614e-08)
(-4.34636e-07 -9.20213e-07 2.41071e-08)
(-3.65622e-07 -8.93738e-07 2.09168e-08)
(-2.86458e-07 -8.50381e-07 1.85749e-08)
(-2.03958e-07 -7.83148e-07 1.69174e-08)
(-1.24707e-07 -6.80496e-07 1.54586e-08)
(-5.64781e-08 -5.20869e-07 1.32352e-08)
(-6.82267e-09 -2.55539e-07 7.34969e-09)
(-3.22984e-08 -6.87282e-07 -3.23424e-08)
(-1.28126e-07 -1.22728e-06 -4.47188e-08)
(-1.47265e-07 -1.46011e-06 -3.64958e-08)
(-1.18467e-07 -1.52126e-06 -2.34636e-08)
(-4.30125e-08 -1.51524e-06 -1.01825e-08)
(4.93875e-08 -1.47823e-06 1.10724e-09)
(1.436e-07 -1.43358e-06 1.09277e-08)
(2.24277e-07 -1.38922e-06 1.96284e-08)
(2.81886e-07 -1.34871e-06 2.77398e-08)
(3.09529e-07 -1.31275e-06 3.54527e-08)
(3.0369e-07 -1.2814e-06 4.27301e-08)
(2.63876e-07 -1.25463e-06 4.93268e-08)
(1.92885e-07 -1.2326e-06 5.48314e-08)
(9.65112e-08 -1.21551e-06 5.88725e-08)
(-1.68673e-08 -1.20349e-06 6.10685e-08)
(-1.37293e-07 -1.19623e-06 6.13173e-08)
(-2.54562e-07 -1.19311e-06 5.96389e-08)
(-3.58754e-07 -1.19316e-06 5.61796e-08)
(-4.41557e-07 -1.19479e-06 5.13916e-08)
(-4.97275e-07 -1.19606e-06 4.57509e-08)
(-5.2316e-07 -1.19476e-06 3.98274e-08)
(-5.19453e-07 -1.18855e-06 3.40949e-08)
(-4.88872e-07 -1.17494e-06 2.89405e-08)
(-4.36003e-07 -1.15107e-06 2.46027e-08)
(-3.66648e-07 -1.1132e-06 2.11992e-08)
(-2.87235e-07 -1.05595e-06 1.8706e-08)
(-2.04512e-07 -9.70846e-07 1.69558e-08)
(-1.25019e-07 -8.43606e-07 1.54558e-08)
(-5.65565e-08 -6.47059e-07 1.32347e-08)
(-6.79759e-09 -3.1902e-07 7.37502e-09)
(-1.17091e-08 -5.88532e-07 -1.17539e-08)
(-4.37671e-08 -1.12926e-06 -1.62596e-08)
(-3.91948e-08 -1.40824e-06 -1.22764e-08)
(-6.18008e-09 -1.53937e-06 -5.88118e-09)
(5.47268e-08 -1.59641e-06 1.38934e-09)
(1.27719e-07 -1.61253e-06 8.44267e-09)
(2.01642e-07 -1.60897e-06 1.54499e-08)
(2.64798e-07 -1.59604e-06 2.24697e-08)
(3.08423e-07 -1.57937e-06 2.96371e-08)
(3.25755e-07 -1.5616e-06 3.68921e-08)
(3.12846e-07 -1.54418e-06 4.40024e-08)
(2.68642e-07 -1.52799e-06 5.05932e-08)
(1.95413e-07 -1.51371e-06 5.61446e-08)
(9.84733e-08 -1.50179e-06 6.02352e-08)
(-1.41973e-08 -1.4925e-06 6.24207e-08)
(-1.3307e-07 -1.48559e-06 6.26292e-08)
(-2.48462e-07 -1.48059e-06 6.08713e-08)
(-3.50753e-07 -1.47673e-06 5.72397e-08)
(-4.31804e-07 -1.4727e-06 5.22202e-08)
(-4.86071e-07 -1.46682e-06 4.63025e-08)
(-5.10918e-07 -1.4571e-06 4.01026e-08)
(-5.06741e-07 -1.44144e-06 3.41177e-08)
(-4.76354e-07 -1.41744e-06 2.87527e-08)
(-4.24366e-07 -1.38217e-06 2.42541e-08)
(-3.56503e-07 -1.3316e-06 2.07366e-08)
(-2.79031e-07 -1.25957e-06 1.81728e-08)
(-1.98482e-07 -1.15619e-06 1.63915e-08)
(-1.21185e-07 -1.00437e-06 1.49086e-08)
(-5.47096e-08 -7.71294e-07 1.27774e-08)
(-6.53485e-09 -3.81475e-07 7.1528e-09)
(-2.8474e-09 -5.63519e-07 -2.89285e-09)
(-3.82781e-09 -1.11763e-06 -3.29755e-09)
(1.54066e-08 -1.42771e-06 -8.77649e-10)
(5.24149e-08 -1.60239e-06 2.67684e-09)
(1.06036e-07 -1.70176e-06 7.08078e-09)
(1.67172e-07 -1.7563e-06 1.19377e-08)
(2.27592e-07 -1.7853e-06 1.73427e-08)
(2.78339e-07 -1.79953e-06 2.32773e-08)
(3.11859e-07 -1.80532e-06 2.97246e-08)
(3.22034e-07 -1.80612e-06 3.65135e-08)
(3.05012e-07 -1.8039e-06 4.33157e-08)
(2.59579e-07 -1.79986e-06 4.96977e-08)
(1.87708e-07 -1.79483e-06 5.50797e-08)
(9.42715e-08 -1.78928e-06 5.90393e-08)
(-1.32652e-08 -1.78346e-06 6.11109e-08)
(-1.26054e-07 -1.77713e-06 6.12808e-08)
(-2.35319e-07 -1.76992e-06 5.95521e-08)
(-3.3205e-07 -1.76135e-06 5.59396e-08)
(-4.08497e-07 -1.7504e-06 5.09388e-08)
(-4.5941e-07 -1.73582e-06 4.50164e-08)
(-4.82322e-07 -1.71601e-06 3.8807e-08)
(-4.7773e-07 -1.68923e-06 3.28198e-08)
(-4.48427e-07 -1.65336e-06 2.74666e-08)
(-3.98902e-07 -1.60552e-06 2.29924e-08)
(-3.34622e-07 -1.54146e-06 1.9505e-08)
(-2.61526e-07 -1.45434e-06 1.69748e-08)
(-1.85743e-07 -1.33287e-06 1.52391e-08)
(-1.1319e-07 -1.15726e-06 1.3838e-08)
(-5.09555e-08 -8.89301e-07 1.18779e-08)
(-6.04053e-09 -4.40759e-07 6.68971e-09)
(8.91403e-10 -5.7034e-07 8.44466e-10)
(1.34951e-08 -1.14624e-06 2.30699e-09)
(3.92418e-08 -1.48106e-06 4.05833e-09)
(7.67398e-08 -1.68573e-06 6.29401e-09)
(1.24214e-07 -1.81516e-06 9.23082e-09)
(1.75892e-07 -1.89843e-06 1.28255e-08)
(2.2559e-07 -1.95355e-06 1.71638e-08)
(2.6642e-07 -1.9911e-06 2.2223e-08)
(2.92116e-07 -2.01741e-06 2.79245e-08)
(2.97409e-07 -2.03607e-06 3.40623e-08)
(2.78854e-07 -2.04908e-06 4.02766e-08)
(2.35309e-07 -2.05757e-06 4.61258e-08)
(1.68551e-07 -2.06225e-06 5.10318e-08)
(8.2972e-08 -2.06346e-06 5.46154e-08)
(-1.46711e-08 -2.06135e-06 5.64316e-08)
(-1.16529e-07 -2.05572e-06 5.65636e-08)
(-2.15076e-07 -2.04629e-06 5.50096e-08)
(-3.0227e-07 -2.03277e-06 5.16739e-08)
(-3.7103e-07 -2.01449e-06 4.70204e-08)
(-4.16566e-07 -1.99059e-06 4.14584e-08)
(-4.36618e-07 -1.95999e-06 3.56143e-08)
(-4.31716e-07 -1.92139e-06 2.99706e-08)
(-4.04513e-07 -1.87306e-06 2.4927e-08)
(-3.59188e-07 -1.81232e-06 2.07188e-08)
(-3.00755e-07 -1.73475e-06 1.74501e-08)
(-2.34605e-07 -1.63297e-06 1.50921e-08)
(-1.66268e-07 -1.4944e-06 1.34932e-08)
(-1.01063e-07 -1.29675e-06 1.2244e-08)
(-4.53261e-08 -9.96827e-07 1.05431e-08)
(-5.31737e-09 -4.94754e-07 5.98932e-09)
(2.14328e-09 -5.89595e-07 2.09523e-09)
(1.86693e-08 -1.18987e-06 4.13497e-09)
(4.45263e-08 -1.54519e-06 5.49292e-09)
(7.8386e-08 -1.77161e-06 7.02669e-09)
(1.18272e-07 -1.923e-06 9.10457e-09)
(1.60269e-07 -2.02803e-06 1.18397e-08)
(1.99763e-07 -2.10395e-06 1.53124e-08)
(2.31534e-07 -2.16101e-06 1.95072e-08)
(2.50586e-07 -2.20528e-06 2.43314e-08)
(2.5262e-07 -2.24008e-06 2.95841e-08)
(2.34763e-07 -2.26716e-06 3.49216e-08)
(1.96057e-07 -2.28738e-06 3.99355e-08)
(1.38064e-07 -2.30118e-06 4.40967e-08)
(6.45773e-08 -2.30874e-06 4.71019e-08)
(-1.86005e-08 -2.31012e-06 4.85625e-08)
(-1.04905e-07 -2.30522e-06 4.8655e-08)
(-1.8831e-07 -2.29387e-06 4.7372e-08)
(-2.62064e-07 -2.27579e-06 4.45176e-08)
(-3.20037e-07 -2.25058e-06 4.05017e-08)
(-3.58095e-07 -2.21775e-06 3.56463e-08)
(-3.74294e-07 -2.17674e-06 3.05217e-08)
(-3.69161e-07 -2.12675e-06 2.55616e-08)
(-3.45065e-07 -2.06649e-06 2.11312e-08)
(-3.05662e-07 -1.99351e-06 1.74416e-08)
(-2.55313e-07 -1.90336e-06 1.45854e-08)
(-1.98644e-07 -1.78821e-06 1.25404e-08)
(-1.40366e-07 -1.63436e-06 1.11783e-08)
(-8.50032e-08 -1.41738e-06 1.01559e-08)
(-3.79147e-08 -1.08972e-06 8.79652e-09)
(-4.37637e-09 -5.41385e-07 5.06313e-09)
(2.14506e-09 -6.10417e-07 2.09282e-09)
(1.68817e-08 -1.23274e-06 3.94588e-09)
(3.80455e-08 -1.60423e-06 4.94292e-09)
(6.44893e-08 -1.84638e-06 5.99789e-09)
(9.45209e-08 -2.01366e-06 7.45482e-09)
(1.25524e-07 -2.13484e-06 9.45806e-09)
(1.54234e-07 -2.22676e-06 1.20765e-08)
(1.7691e-07 -2.29933e-06 1.52966e-08)
(1.89836e-07 -2.35824e-06 1.90323e-08)
(1.89762e-07 -2.40646e-06 2.311e-08)
(1.7447e-07 -2.44533e-06 2.72403e-08)
(1.43228e-07 -2.47534e-06 3.10919e-08)
(9.7311e-08 -2.49662e-06 3.42295e-08)
(3.97252e-08 -2.50931e-06 3.64454e-08)
(-2.49478e-08 -2.51348e-06 3.74594e-08)
(-9.16645e-08 -2.50929e-06 3.75057e-08)
(-1.56e-07 -2.4966e-06 3.65809e-08)
(-2.12744e-07 -2.47502e-06 3.44218e-08)
(-2.57044e-07 -2.44422e-06 3.13343e-08)
(-2.85645e-07 -2.40397e-06 2.75441e-08)
(-2.9703e-07 -2.35411e-06 2.35166e-08)
(-2.91699e-07 -2.29436e-06 1.96027e-08)
(-2.716e-07 -2.22384e-06 1.61074e-08)
(-2.39693e-07 -2.14037e-06 1.31994e-08)
(-1.99463e-07 -2.03956e-06 1.096e-08)
(-1.54566e-07 -1.9132e-06 9.374e-09)
(-1.08705e-07 -1.74678e-06 8.34698e-09)
(-6.5432e-08 -1.51411e-06 7.62026e-09)
(-2.89152e-08 -1.16414e-06 6.67935e-09)
(-3.2421e-09 -5.78745e-07 3.93737e-09)
(1.47227e-09 -6.26635e-07 1.41697e-09)
(1.09228e-08 -1.26493e-06 2.62869e-09)
(2.39526e-08 -1.64743e-06 3.23194e-09)
(3.99597e-08 -1.89995e-06 3.87664e-09)
(5.79443e-08 -2.07789e-06 4.79986e-09)
(7.64466e-08 -2.21023e-06 6.1105e-09)
(9.34952e-08 -2.31355e-06 7.85018e-09)
(1.06755e-07 -2.39751e-06 1.00148e-08)
(1.13833e-07 -2.46739e-06 1.25468e-08)
(1.12561e-07 -2.52575e-06 1.53252e-08)
(1.01438e-07 -2.57356e-06 1.81469e-08)
(7.99093e-08 -2.61096e-06 2.07793e-08)
(4.87848e-08 -2.63784e-06 2.29163e-08)
(1.00587e-08 -2.65431e-06 2.44178e-08)
(-3.31716e-08 -2.66053e-06 2.50859e-08)
(-7.74807e-08 -2.65696e-06 2.50824e-08)
(-1.19893e-07 -2.64346e-06 2.44086e-08)
(-1.56859e-07 -2.61947e-06 2.28716e-08)
(-1.85093e-07 -2.58465e-06 2.07036e-08)
(-2.02483e-07 -2.53889e-06 1.80587e-08)
(-2.08103e-07 -2.4824e-06 1.5274e-08)
(-2.02446e-07 -2.41524e-06 1.25865e-08)
(-1.86963e-07 -2.33692e-06 1.02059e-08)
(-1.63764e-07 -2.24554e-06 8.24742e-09)
(-1.35265e-07 -2.13675e-06 6.76119e-09)
(-1.03982e-07 -2.00214e-06 5.73632e-09)
(-7.24367e-08 -1.8266e-06 5.11756e-09)
(-4.30514e-08 -1.58269e-06 4.74192e-09)
(-1.86467e-08 -1.21688e-06 4.27428e-09)
(-1.95391e-09 -6.05227e-07 2.65126e-09)
(4.2897e-10 -6.34546e-07 3.67885e-10)
(2.46628e-09 -1.28007e-06 6.64913e-10)
(5.05064e-09 -1.66753e-06 8.25935e-10)
(8.45287e-09 -1.92515e-06 1.07015e-09)
(1.26842e-08 -2.10884e-06 1.47453e-09)
(1.74199e-08 -2.24762e-06 2.07341e-09)
(2.19959e-08 -2.35787e-06 2.88263e-09)
(2.5478e-08 -2.44893e-06 3.89566e-09)
(2.68093e-08 -2.5258e-06 5.08153e-09)
(2.49503e-08 -2.59074e-06 6.38653e-09)
(1.9105e-08 -2.64437e-06 7.7172e-09)
(8.87005e-09 -2.68662e-06 8.96773e-09)
(-5.51979e-09 -2.71718e-06 9.99603e-09)
(-2.32421e-08 -2.73617e-06 1.07221e-08)
(-4.28856e-08 -2.7438e-06 1.10354e-08)
(-6.27145e-08 -2.74069e-06 1.09744e-08)
(-8.11266e-08 -2.72674e-06 1.05556e-08)
(-9.63258e-08 -2.70127e-06 9.70586e-09)
(-1.06805e-07 -2.664e-06 8.58453e-09)
(-1.11754e-07 -2.61487e-06 7.27018e-09)
(-1.10971e-07 -2.5543e-06 5.93182e-09)
(-1.04944e-07 -2.48263e-06 4.67939e-09)
(-9.45444e-08 -2.39962e-06 3.60374e-09)
(-8.0923e-08 -2.30353e-06 2.74882e-09)
(-6.53011e-08 -2.19007e-06 2.1355e-09)
(-4.89151e-08 -2.05072e-06 1.76051e-09)
(-3.29974e-08 -1.87004e-06 1.6057e-09)
(-1.87489e-08 -1.61995e-06 1.62016e-09)
(-7.51258e-09 -1.24553e-06 1.66967e-09)
(-5.59541e-10 -6.19622e-07 1.25419e-09)
(-8.00335e-10 -6.32052e-07 -8.67498e-10)
(-7.3344e-09 -1.27434e-06 -1.62762e-09)
(-1.6513e-08 -1.66008e-06 -1.93485e-09)
(-2.69607e-08 -1.91748e-06 -2.08508e-09)
(-3.74595e-08 -2.10216e-06 -2.17807e-09)
(-4.71824e-08 -2.24287e-06 -2.26996e-09)
(-5.54701e-08 -2.35567e-06 -2.37934e-09)
(-6.18783e-08 -2.44967e-06 -2.50978e-09)
(-6.61434e-08 -2.5296e-06 -2.64678e-09)
(-6.81718e-08 -2.59758e-06 -2.76367e-09)
(-6.80607e-08 -2.65407e-06 -2.82898e-09)
(-6.60922e-08 -2.69885e-06 -2.82577e-09)
(-6.27141e-08 -2.73151e-06 -2.74478e-09)
(-5.83767e-08 -2.75206e-06 -2.63692e-09)
(-5.34213e-08 -2.76064e-06 -2.57043e-09)
(-4.7816e-08 -2.75783e-06 -2.67892e-09)
(-4.12933e-08 -2.74357e-06 -2.93147e-09)
(-3.3827e-08 -2.71729e-06 -3.2379e-09)
(-2.5763e-08 -2.67882e-06 -3.4636e-09)
(-1.76902e-08 -2.62826e-06 -3.56411e-09)
(-1.01847e-08 -2.56618e-06 -3.52669e-09)
(-3.73631e-09 -2.49301e-06 -3.37658e-09)
(1.37207e-09 -2.40859e-06 -3.15146e-09)
(5.02952e-09 -2.31125e-06 -2.88829e-09)
(7.25918e-09 -2.19671e-06 -2.61105e-09)
(8.15732e-09 -2.05645e-06 -2.32199e-09)
(7.84889e-09 -1.87496e-06 -1.99846e-09)
(6.39996e-09 -1.62409e-06 -1.58589e-09)
(3.99455e-09 -1.24871e-06 -1.01118e-09)
(8.7608e-10 -6.21251e-07 -1.88465e-10)
(-2.09646e-09 -6.1817e-07 -2.17033e-09)
(-1.76137e-08 -1.24595e-06 -4.03851e-09)
(-3.90045e-08 -1.62298e-06 -4.82414e-09)
(-6.36759e-08 -1.87485e-06 -5.36079e-09)
(-8.91285e-08 -2.05594e-06 -5.93975e-09)
(-1.1339e-07 -2.19427e-06 -6.71664e-09)
(-1.34521e-07 -2.30544e-06 -7.74622e-09)
(-1.50752e-07 -2.3983e-06 -9.03778e-09)
(-1.60533e-07 -2.47746e-06 -1.05465e-08)
(-1.62679e-07 -2.54497e-06 -1.21834e-08)
(-1.56593e-07 -2.60133e-06 -1.37967e-08)
(-1.424e-07 -2.64633e-06 -1.52342e-08)
(-1.21133e-07 -2.67951e-06 -1.63162e-08)
(-9.44524e-08 -2.70067e-06 -1.70274e-08)
(-6.44452e-08 -2.70974e-06 -1.733e-08)
(-3.29033e-08 -2.7071e-06 -1.74795e-08)
(-1.07963e-09 -2.69273e-06 -1.74308e-08)
(2.9175e-08 -2.66629e-06 -1.69698e-08)
(5.5682e-08 -2.62795e-06 -1.60635e-08)
(7.6541e-08 -2.57801e-06 -1.47435e-08)
(9.04929e-08 -2.51705e-06 -1.31689e-08)
(9.71273e-08 -2.4455e-06 -1.15077e-08)
(9.67903e-08 -2.36309e-06 -9.91738e-09)
(9.04089e-08 -2.26808e-06 -8.50355e-09)
(7.92511e-08 -2.15617e-06 -7.3204e-09)
(6.47343e-08 -2.01889e-06 -6.35942e-09)
(4.83105e-08 -1.841e-06 -5.5578e-09)
(3.12952e-08 -1.59479e-06 -4.75085e-09)
(1.53763e-08 -1.22618e-06 -3.65937e-09)
(2.29415e-09 -6.09995e-07 -1.61727e-09)
(-3.36223e-09 -5.92793e-07 -3.44083e-09)
(-2.76526e-08 -1.19473e-06 -6.38825e-09)
(-6.09192e-08 -1.55615e-06 -7.62954e-09)
(-9.93365e-08 -1.79741e-06 -8.52092e-09)
(-1.39149e-07 -1.97059e-06 -9.53848e-09)
(-1.77288e-07 -2.10253e-06 -1.0934e-08)
(-2.10625e-07 -2.20815e-06 -1.28052e-08)
(-2.36173e-07 -2.29594e-06 -1.5165e-08)
(-2.51201e-07 -2.37046e-06 -1.79448e-08)
(-2.53516e-07 -2.43383e-06 -2.09996e-08)
(-2.41836e-07 -2.48673e-06 -2.40803e-08)
(-2.16085e-07 -2.52909e-06 -2.69229e-08)
(-1.77762e-07 -2.56056e-06 -2.91911e-08)
(-1.29567e-07 -2.58083e-06 -3.07733e-08)
(-7.52335e-08 -2.58965e-06 -3.15013e-08)
(-1.84261e-08 -2.58709e-06 -3.1664e-08)
(3.78782e-08 -2.57317e-06 -3.12212e-08)
(8.99111e-08 -2.54792e-06 -2.99103e-08)
(1.33791e-07 -2.51175e-06 -2.78375e-08)
(1.66508e-07 -2.46504e-06 -2.51249e-08)
(1.86276e-07 -2.4083e-06 -2.20893e-08)
(1.92837e-07 -2.34176e-06 -1.90187e-08)
(1.87174e-07 -2.2649e-06 -1.61667e-08)
(1.71191e-07 -2.17581e-06 -1.36965e-08)
(1.47321e-07 -2.07014e-06 -1.16849e-08)
(1.18207e-07 -1.93963e-06 -1.01156e-08)
(8.65343e-08 -1.76954e-06 -8.88203e-09)
(5.48049e-08 -1.53326e-06 -7.71458e-09)
(2.61153e-08 -1.17887e-06 -6.14808e-09)
(3.62742e-09 -5.86298e-07 -2.96481e-09)
(-4.52254e-09 -5.56562e-07 -4.60761e-09)
(-3.68634e-08 -1.122e-06 -8.54549e-09)
(-8.10014e-08 -1.46134e-06 -1.0199e-08)
(-1.31955e-07 -1.68737e-06 -1.14013e-08)
(-1.84798e-07 -1.84881e-06 -1.27951e-08)
(-2.35484e-07 -1.97083e-06 -1.47251e-08)
(-2.79822e-07 -2.06746e-06 -1.73212e-08)
(-3.13759e-07 -2.14678e-06 -2.06138e-08)
(-3.33543e-07 -2.21322e-06 -2.45253e-08)
(-3.36086e-07 -2.26905e-06 -2.88701e-08)
(-3.19494e-07 -2.31522e-06 -3.33371e-08)
(-2.83459e-07 -2.35199e-06 -3.75583e-08)
(-2.29766e-07 -2.37927e-06 -4.10617e-08)
(-1.61957e-07 -2.39682e-06 -4.36008e-08)
(-8.51576e-08 -2.40442e-06 -4.48505e-08)
(-4.87186e-09 -2.40191e-06 -4.50123e-08)
(7.39635e-08 -2.38936e-06 -4.40547e-08)
(1.45716e-07 -2.36706e-06 -4.17856e-08)
(2.05076e-07 -2.33542e-06 -3.84795e-08)
(2.48168e-07 -2.29476e-06 -3.43888e-08)
(2.72868e-07 -2.24534e-06 -2.99759e-08)
(2.79129e-07 -2.18698e-06 -2.56221e-08)
(2.68521e-07 -2.11887e-06 -2.16522e-08)
(2.43827e-07 -2.03886e-06 -1.82604e-08)
(2.08497e-07 -1.94262e-06 -1.55355e-08)
(1.66252e-07 -1.82224e-06 -1.3445e-08)
(1.20878e-07 -1.66376e-06 -1.18423e-08)
(7.59223e-08 -1.44216e-06 -1.03672e-08)
(3.57562e-08 -1.1088e-06 -8.38056e-09)
(4.8217e-09 -5.51171e-07 -4.17703e-09)
(-5.52331e-09 -5.10682e-07 -5.6116e-09)
(-4.47841e-08 -1.03016e-06 -1.03984e-08)
(-9.82314e-08 -1.34181e-06 -1.23963e-08)
(-1.59882e-07 -1.54865e-06 -1.38462e-08)
(-2.23793e-07 -1.69522e-06 -1.55256e-08)
(-2.85078e-07 -1.80452e-06 -1.78524e-08)
(-3.38654e-07 -1.88949e-06 -2.09865e-08)
(-3.79577e-07 -1.95766e-06 -2.49714e-08)
(-4.03264e-07 -2.01332e-06 -2.97216e-08)
(-4.05922e-07 -2.05892e-06 -3.50283e-08)
(-3.8515e-07 -2.09571e-06 -4.05309e-08)
(-3.40436e-07 -2.12436e-06 -4.57915e-08)
(-2.7375e-07 -2.14519e-06 -5.02474e-08)
(-1.89305e-07 -2.15831e-06 -5.35324e-08)
(-9.33473e-08 -2.16373e-06 -5.52101e-08)
(7.00807e-09 -2.16129e-06 -5.53588e-08)
(1.04987e-07 -2.1511e-06 -5.39545e-08)
(1.93353e-07 -2.13347e-06 -5.09179e-08)
(2.65644e-07 -2.10857e-06 -4.665e-08)
(3.17316e-07 -2.07643e-06 -4.15149e-08)
(3.46051e-07 -2.03684e-06 -3.60718e-08)
(3.51995e-07 -1.98921e-06 -3.07663e-08)
(3.37217e-07 -1.93235e-06 -2.59719e-08)
(3.05193e-07 -1.8639e-06 -2.19046e-08)
(2.60211e-07 -1.77961e-06 -1.86567e-08)
(2.06891e-07 -1.67203e-06 -1.61822e-08)
(1.49942e-07 -1.52827e-06 -1.43062e-08)
(9.37986e-08 -1.32539e-06 -1.25929e-08)
(4.39169e-08 -1.01891e-06 -1.02658e-08)
(5.83047e-09 -5.06082e-07 -5.20792e-09)
(-6.32028e-09 -4.56816e-07 -6.41194e-09)
(-5.10786e-08 -9.22541e-07 -1.18769e-08)
(-1.1189e-07 -1.20193e-06 -1.41413e-08)
(-1.81966e-07 -1.38652e-06 -1.57638e-08)
(-2.54546e-07 -1.51592e-06 -1.76274e-08)
(-3.24069e-07 -1.61063e-06 -2.02059e-08)
(-3.84747e-07 -1.68228e-06 -2.36816e-08)
(-4.30959e-07 -1.73776e-06 -2.81013e-08)
(-4.57502e-07 -1.7812e-06 -3.33717e-08)
(-4.60065e-07 -1.81514e-06 -3.92729e-08)
(-4.35892e-07 -1.84115e-06 -4.54197e-08)
(-3.84351e-07 -1.86037e-06 -5.13367e-08)
(-3.07537e-07 -1.8736e-06 -5.64087e-08)
(-2.10153e-07 -1.88139e-06 -6.0181e-08)
(-9.92761e-08 -1.88412e-06 -6.21515e-08)
(1.67325e-08 -1.88182e-06 -6.22805e-08)
(1.29565e-07 -1.8746e-06 -6.05525e-08)
(2.30742e-07 -1.86259e-06 -5.7e-08)
(3.12974e-07 -1.84562e-06 -5.20965e-08)
(3.71246e-07 -1.82327e-06 -4.62965e-08)
(4.03114e-07 -1.79483e-06 -4.02122e-08)
(4.08853e-07 -1.75923e-06 -3.43221e-08)
(3.90887e-07 -1.71493e-06 -2.902e-08)
(3.53216e-07 -1.65943e-06 -2.45368e-08)
(3.00744e-07 -1.58862e-06 -2.09638e-08)
(2.38782e-07 -1.49563e-06 -1.82515e-08)
(1.72767e-07 -1.36884e-06 -1.6206e-08)
(1.07839e-07 -1.18778e-06 -1.4333e-08)
(5.03259e-08 -9.1288e-07 -1.1751e-08)
(6.61954e-09 -4.52859e-07 -6.02393e-09)
(-6.89036e-09 -3.96927e-07 -6.98229e-09)
(-5.55376e-08 -8.03068e-07 -1.29318e-08)
(-1.2152e-07 -1.04688e-06 -1.53756e-08)
(-1.97486e-07 -1.20711e-06 -1.7096e-08)
(-2.76099e-07 -1.31792e-06 -1.90451e-08)
(-3.51306e-07 -1.39709e-06 -2.17298e-08)
(-4.16801e-07 -1.45481e-06 -2.53407e-08)
(-4.6649e-07 -1.49727e-06 -2.99255e-08)
(-4.94756e-07 -1.52832e-06 -3.53848e-08)
(-4.96972e-07 -1.55053e-06 -4.14913e-08)
(-4.70211e-07 -1.56578e-06 -4.7857e-08)
(-4.138e-07 -1.57556e-06 -5.39919e-08)
(-3.29943e-07 -1.58117e-06 -5.92797e-08)
(-2.23683e-07 -1.58362e-06 -6.32236e-08)
(-1.02632e-07 -1.58365e-06 -6.53107e-08)
(2.4028e-08 -1.58154e-06 -6.54183e-08)
(1.46936e-07 -1.5774e-06 -6.3536e-08)
(2.56804e-07 -1.57113e-06 -5.97784e-08)
(3.45809e-07 -1.56215e-06 -5.4639e-08)
(4.0863e-07 -1.5496e-06 -4.86105e-08)
(4.42727e-07 -1.53225e-06 -4.23059e-08)
(4.4844e-07 -1.50868e-06 -3.62198e-08)
(4.28374e-07 -1.47701e-06 -3.07426e-08)
(3.86844e-07 -1.43469e-06 -2.61098e-08)
(3.29177e-07 -1.37786e-06 -2.24189e-08)
(2.61166e-07 -1.30034e-06 -1.96176e-08)
(1.88783e-07 -1.1919e-06 -1.75011e-08)
(1.17687e-07 -1.03479e-06 -1.55456e-08)
(5.48181e-08 -7.9486e-07 -1.28012e-08)
(7.16954e-09 -3.93573e-07 -6.60702e-09)
(-7.21767e-09 -3.3314e-07 -7.30792e-09)
(-5.80297e-08 -6.75993e-07 -1.35348e-08)
(-1.26871e-07 -8.82199e-07 -1.60724e-08)
(-2.06115e-07 -1.01692e-06 -1.78206e-08)
(-2.88093e-07 -1.10861e-06 -1.97672e-08)
(-3.66447e-07 -1.17218e-06 -2.24351e-08)
(-4.34542e-07 -1.21631e-06 -2.60124e-08)
(-4.85987e-07 -1.24642e-06 -3.05414e-08)
(-5.14942e-07 -1.26606e-06 -3.59221e-08)
(-5.16667e-07 -1.27774e-06 -4.19237e-08)
(-4.88188e-07 -1.28349e-06 -4.81667e-08)
(-4.28882e-07 -1.28508e-06 -5.41747e-08)
(-3.41059e-07 -1.28416e-06 -5.93635e-08)
(-2.29948e-07 -1.28206e-06 -6.32301e-08)
(-1.03415e-07 -1.27984e-06 -6.52894e-08)
(2.8959e-08 -1.27798e-06 -6.53783e-08)
(1.57228e-07 -1.27657e-06 -6.34902e-08)
(2.71717e-07 -1.27532e-06 -5.97783e-08)
(3.64373e-07 -1.27331e-06 -5.47164e-08)
(4.2971e-07 -1.26933e-06 -4.88039e-08)
(4.65115e-07 -1.2618e-06 -4.26198e-08)
(4.70896e-07 -1.24901e-06 -3.66434e-08)
(4.49718e-07 -1.22892e-06 -3.1257e-08)
(4.06022e-07 -1.19903e-06 -2.66928e-08)
(3.45368e-07 -1.15577e-06 -2.30501e-08)
(2.73851e-07 -1.09371e-06 -2.02807e-08)
(1.97789e-07 -1.00414e-06 -1.81807e-08)
(1.23177e-07 -8.72125e-07 -1.62156e-08)
(5.73034e-08 -6.69215e-07 -1.33988e-08)
(7.47022e-09 -3.304e-07 -6.94757e-09)
(-7.2869e-09 -2.67694e-07 -7.3729e-09)
(-5.84623e-08 -5.45766e-07 -1.36557e-08)
(-1.27803e-07 -7.13644e-07 -1.61918e-08)
(-2.07726e-07 -8.22611e-07 -1.78986e-08)
(-2.90504e-07 -8.95339e-07 -1.97674e-08)
(-3.69634e-07 -9.43896e-07 -2.23177e-08)
(-4.38319e-07 -9.75489e-07 -2.57334e-08)
(-4.9003e-07 -9.94714e-07 -3.00494e-08)
(-5.18864e-07 -1.00472e-06 -3.51605e-08)
(-5.20099e-07 -1.00788e-06 -4.08377e-08)
(-4.9084e-07 -1.00623e-06 -4.67234e-08)
(-4.30576e-07 -1.00163e-06 -5.23687e-08)
(-3.4169e-07 -9.95892e-07 -5.72378e-08)
(-2.29462e-07 -9.90541e-07 -6.08569e-08)
(-1.0177e-07 -9.86782e-07 -6.27922e-08)
(3.17615e-08 -9.85216e-07 -6.28651e-08)
(1.6106e-07 -9.85922e-07 -6.10714e-08)
(2.76422e-07 -9.88453e-07 -5.75815e-08)
(3.69798e-07 -9.91732e-07 -5.28211e-08)
(4.35679e-07 -9.94332e-07 -4.72601e-08)
(4.71412e-07 -9.94525e-07 -4.14308e-08)
(4.77216e-07 -9.90469e-07 -3.57827e-08)
(4.55695e-07 -9.80142e-07 -3.06737e-08)
(4.11291e-07 -9.61169e-07 -2.63331e-08)
(3.4963e-07 -9.30378e-07 -2.28642e-08)
(2.76957e-07 -8.8315e-07 -2.02268e-08)
(1.99769e-07 -8.12253e-07 -1.82204e-08)
(1.24229e-07 -7.05579e-07 -1.63144e-08)
(5.77155e-08 -5.40432e-07 -1.35209e-08)
(7.5086e-09 -2.65592e-07 -7.03443e-09)
(-7.0688e-09 -2.02963e-07 -7.14754e-09)
(-5.66812e-08 -4.17029e-07 -1.32341e-08)
(-1.24121e-07 -5.47102e-07 -1.56554e-08)
(-2.0219e-07 -6.30849e-07 -1.72391e-08)
(-2.83363e-07 -6.85371e-07 -1.89539e-08)
(-3.61129e-07 -7.20023e-07 -2.13032e-08)
(-4.28656e-07 -7.40565e-07 -2.44648e-08)
(-4.79404e-07 -7.50774e-07 -2.84628e-08)
(-5.07542e-07 -7.53342e-07 -3.31895e-08)
(-5.08472e-07 -7.50378e-07 -3.8422e-08)
(-4.79451e-07 -7.43763e-07 -4.38269e-08)
(-4.20102e-07 -7.35298e-07 -4.89903e-08)