/*--------------------------------*- C++ -*----------------------------------*\
| =========                 |                                                 |
| \\      /  F ield         | OpenFOAM: The Open Source CFD Toolbox           |
|  \\    /   O peration     | Version:  v1912                                 |
|   \\  /    A nd           | Website:  www.openfoam.com                      |
|    \\/     M anipulation  |                                                 |
\*---------------------------------------------------------------------------*/
FoamFile
{
    version     2.0;
    format      ascii;
    class       surfaceScalarField;
    location    "366/oil";
    object      phi;
}
// * * * * * * * * * * * * * * * * * * * * * * * * * * * * * * * * * * * * * //

dimensions      [1 0 -1 0 0 0 0];
oriented        oriented;


internalField   nonuniform List<scalar> 
104676
(
-1.23698e-11
2.80968e-11
-1.56581e-11
2.82676e-10
-2.32194e-10
-6.28858e-11
8.86288e-10
-4.35838e-10
-1.67761e-10
1.70519e-09
-5.31842e-10
-2.87042e-10
2.61906e-09
-5.43822e-10
-3.70035e-10
3.50764e-09
-4.94525e-10
-3.94053e-10
4.26239e-09
-4.01862e-10
-3.52885e-10
4.79256e-09
-2.79139e-10
-2.51038e-10
5.02748e-09
-1.36653e-10
-9.8273e-11
4.92862e-09
1.27467e-11
8.61126e-11
4.47728e-09
1.67146e-10
2.84197e-10
3.70472e-09
2.93122e-10
4.79453e-10
2.65131e-09
4.07597e-10
6.4582e-10
1.39272e-09
4.90517e-10
7.68095e-10
2.52614e-11
5.34335e-10
8.33137e-10
-1.34645e-09
5.36698e-10
8.35018e-10
-2.60842e-09
4.90936e-10
7.71038e-10
-3.66595e-09
4.07202e-10
6.50324e-10
-4.44587e-09
2.94807e-10
4.85115e-10
-4.90264e-09
1.63495e-10
2.93279e-10
-5.01347e-09
1.38295e-11
9.69923e-11
-4.78359e-09
-1.39535e-10
-9.03427e-11
-4.25755e-09
-2.81474e-10
-2.44567e-10
-3.50589e-09
-4.0404e-10
-3.47625e-10
-2.61983e-09
-4.96292e-10
-3.89772e-10
-1.70775e-09
-5.46532e-10
-3.65543e-10
-8.89405e-10
-5.35928e-10
-2.82416e-10
-2.85493e-10
-4.40512e-10
-1.63398e-10
1.03864e-11
-2.36371e-10
-5.95108e-11
2.38344e-11
-1.34527e-11
2.89131e-10
-5.50208e-10
2.89139e-10
1.11671e-09
-1.65401e-09
5.94219e-10
2.43179e-09
-2.48698e-09
7.36069e-10
4.08813e-09
-2.99463e-09
8.06458e-10
5.88656e-09
-3.2381e-09
8.95864e-10
7.61258e-09
-3.27721e-09
1.05667e-09
9.06354e-09
-3.1632e-09
1.31037e-09
1.00641e-08
-2.93646e-09
1.6568e-09
1.04774e-08
-2.63089e-09
2.08084e-09
1.02162e-08
-2.27702e-09
2.55103e-09
9.23952e-09
-1.90471e-09
3.04852e-09
7.60139e-09
-1.57868e-09
3.50994e-09
5.42426e-09
-1.29195e-09
3.87669e-09
2.84608e-09
-1.08452e-09
4.15324e-09
5.09695e-11
-9.76036e-10
4.30551e-09
-2.75491e-09
-9.76714e-10
4.31931e-09
-5.33989e-09
-1.0896e-09
4.16551e-09
-7.51871e-09
-1.3007e-09
3.88672e-09
-9.14284e-09
-1.58807e-09
3.507e-09
-1.01218e-08
-1.92036e-09
3.06285e-09
-1.0398e-08
-2.28759e-09
2.57762e-09
-9.99794e-09
-2.63889e-09
2.09926e-09
-9.01377e-09
-2.94145e-09
1.6758e-09
-7.58045e-09
-3.16721e-09
1.32985e-09
-5.86893e-09
-3.28224e-09
1.07441e-09
-4.08342e-09
-3.24477e-09
9.12735e-10
-2.43519e-09
-3.00569e-09
8.21535e-10
-1.12099e-09
-2.5015e-09
7.46786e-10
-2.90602e-10
-1.6658e-09
5.99046e-10
-5.56336e-10
2.89566e-10
6.08897e-10
-1.77383e-09
6.1473e-10
1.93582e-09
-4.29638e-09
1.31545e-09
3.79724e-09
-6.09994e-09
1.75154e-09
6.01015e-09
-7.27714e-09
2.06961e-09
8.34545e-09
-7.95386e-09
2.38046e-09
1.05509e-08
-8.23439e-09
2.75172e-09
1.238e-08
-8.20853e-09
3.2162e-09
1.36145e-08
-7.95039e-09
3.77949e-09
1.40838e-08
-7.52734e-09
4.42716e-09
1.36789e-08
-6.99602e-09
5.12384e-09
1.23465e-08
-6.41787e-09
5.84554e-09
1.0143e-08
-5.8713e-09
6.49613e-09
7.22792e-09
-5.39203e-09
7.01521e-09
3.78924e-09
-5.04215e-09
7.39635e-09
6.54964e-11
-4.86179e-09
7.60953e-09
-3.67593e-09
-4.87042e-09
7.63514e-09
-7.125e-09
-5.05415e-09
7.41362e-09
-1.004e-08
-5.40602e-09
7.02035e-09
-1.22301e-08
-5.8818e-09
6.48379e-09
-1.35791e-08
-6.43315e-09
5.8618e-09
-1.40057e-08
-7.00998e-09
5.14895e-09
-1.35522e-08
-7.53734e-09
4.44498e-09
-1.23345e-08
-7.9582e-09
3.79903e-09
-1.05229e-08
-8.21441e-09
3.23562e-09
-8.33364e-09
-8.24169e-09
2.77016e-09
-6.00933e-09
-7.96594e-09
2.39685e-09
-3.80357e-09
-7.29408e-09
2.08264e-09
-1.94339e-09
-6.12046e-09
1.75878e-09
-6.12535e-10
-4.31236e-09
1.3157e-09
-1.78244e-09
6.13565e-10
8.73431e-10
-3.53133e-09
8.84069e-10
2.62058e-09
-7.95094e-09
1.90741e-09
4.92504e-09
-1.09843e-08
2.57987e-09
7.56185e-09
-1.30121e-08
3.09819e-09
1.0279e-08
-1.42659e-08
3.59494e-09
1.28049e-08
-1.49052e-08
4.14481e-09
1.4873e-08
-1.50625e-08
4.78594e-09
1.62444e-08
-1.48478e-08
5.52604e-09
1.67254e-08
-1.43607e-08
6.35236e-09
1.61904e-08
-1.36928e-08
7.23168e-09
1.45769e-08
-1.29363e-08
8.13195e-09
1.19609e-08
-1.21818e-08
8.92657e-09
8.51609e-09
-1.15247e-08
9.57749e-09
4.46133e-09
-1.10184e-08
1.0031e-08
7.39794e-11
-1.07604e-08
1.0286e-08
-4.33682e-09
-1.07787e-08
1.03191e-08
-8.40528e-09
-1.10313e-08
1.00456e-08
-1.18519e-08
-1.15243e-08
9.56491e-09
-1.44558e-08
-1.21849e-08
8.907e-09
-1.60827e-08
-1.29424e-08
8.13621e-09
-1.66374e-08
-1.36991e-08
7.24377e-09
-1.6174e-08
-1.43654e-08
6.36473e-09
-1.4822e-08
-1.48518e-08
5.54162e-09
-1.27716e-08
-1.50661e-08
4.80124e-09
-1.02628e-08
-1.49113e-08
4.16086e-09
-7.56028e-09
-1.4278e-08
3.60953e-09
-4.93038e-09
-1.3032e-08
3.10801e-09
-2.62805e-09
-1.10035e-08
2.58073e-09
-8.79909e-10
-7.95747e-09
1.89697e-09
-3.54316e-09
8.80819e-10
1.07298e-09
-5.68719e-09
1.0829e-09
3.14449e-09
-1.23626e-08
2.34018e-09
5.79607e-09
-1.6825e-08
3.18916e-09
8.76007e-09
-1.98317e-08
3.85552e-09
1.17634e-08
-2.1761e-08
4.49178e-09
1.45213e-08
-2.28448e-08
5.18175e-09
1.6756e-08
-2.32629e-08
5.96559e-09
1.8216e-08
-2.3162e-08
6.85422e-09
1.86987e-08
-2.26744e-08
7.83099e-09
1.80659e-08
-2.19241e-08
8.86416e-09
1.62506e-08
-2.10384e-08
9.91741e-09
1.33316e-08
-2.01284e-08
1.08657e-08
9.48437e-09
-1.93114e-08
1.16339e-08
4.96554e-09
-1.86478e-08
1.21483e-08
7.96034e-11
-1.83123e-08
1.24378e-08
-4.83381e-09
-1.83372e-08
1.24719e-08
-9.36228e-09
-1.86641e-08
1.21612e-08
-1.32041e-08
-1.92878e-08
1.16053e-08
-1.61211e-08
-2.01222e-08
1.08543e-08
-1.79516e-08
-2.10377e-08
9.92587e-09
-1.86046e-08
-2.19245e-08
8.87845e-09
-1.81414e-08
-2.26748e-08
7.8462e-09
-1.66998e-08
-2.31634e-08
6.87013e-09
-1.4482e-08
-2.32653e-08
5.98138e-09
-1.17408e-08
-2.28494e-08
5.19676e-09
-8.75289e-09
-2.17703e-08
4.50443e-09
-5.79946e-09
-1.98479e-08
3.86245e-09
-3.14989e-09
-1.68391e-08
3.18597e-09
-1.07859e-09
-1.23537e-08
2.32492e-09
-5.70177e-09
1.08002e-09
1.20704e-09
-8.11299e-09
1.21877e-09
3.50886e-09
-1.72935e-08
2.6291e-09
6.41275e-09
-2.33285e-08
3.59956e-09
9.61409e-09
-2.74047e-08
4.37168e-09
1.28237e-08
-3.00803e-08
5.10957e-09
1.57481e-08
-3.16763e-08
5.90714e-09
1.81035e-08
-3.2425e-08
6.80679e-09
1.9631e-08
-3.25114e-08
7.82188e-09
2.01207e-08
-3.2098e-08
8.93386e-09
1.94294e-08
-3.13379e-08
1.01052e-08
1.74866e-08
-3.03866e-08
1.12909e-08
1.43462e-08
-2.9397e-08
1.2409e-08
1.02015e-08
-2.84653e-08
1.32987e-08
5.3379e-09
-2.76559e-08
1.38718e-08
7.9618e-11
-2.72332e-08
1.41793e-08
-5.20853e-09
-2.72602e-08
1.42112e-08
-1.0072e-08
-2.76932e-08
1.38926e-08
-1.42028e-08
-2.84195e-08
1.32625e-08
-1.73472e-08
-2.93828e-08
1.2405e-08
-1.93084e-08
-3.03824e-08
1.13058e-08
-2.00224e-08
-3.13344e-08
1.01239e-08
-1.95536e-08
-3.20963e-08
8.95256e-09
-1.80449e-08
-3.25121e-08
7.84e-09
-1.57068e-08
-3.24272e-08
6.82375e-09
-1.27973e-08
-3.16803e-08
5.92144e-09
-9.60181e-09
-3.0087e-08
5.12125e-09
-6.41209e-09
-2.74143e-08
4.37669e-09
-3.51451e-09
-2.33298e-08
3.59313e-09
-1.21327e-09
-1.72681e-08
2.61319e-09
-8.13226e-09
1.21722e-09
1.2745e-09
-1.06898e-08
1.30229e-09
3.71799e-09
-2.25536e-08
2.81656e-09
6.78095e-09
-3.02423e-08
3.85086e-09
1.01294e-08
-3.54345e-08
4.6814e-09
1.34657e-08
-3.89046e-08
5.48812e-09
1.64932e-08
-4.10696e-08
6.36585e-09
1.89269e-08
-4.22177e-08
7.35896e-09
2.05032e-08
-4.25711e-08
8.48342e-09
2.10089e-08
-4.23213e-08
9.71761e-09
2.02927e-08
-4.16421e-08
1.10203e-08
1.82827e-08
-4.07161e-08
1.23395e-08
1.49969e-08
-3.97215e-08
1.36102e-08
1.0669e-08
-3.87651e-08
1.46277e-08
5.58174e-09
-3.78233e-08
1.52547e-08
8.66556e-11
-3.73211e-08
1.5583e-08
-5.43357e-09
-3.73623e-08
1.56223e-08
-1.05376e-08
-3.78934e-08
1.53043e-08
-1.48499e-08
-3.87098e-08
1.46027e-08
-1.81394e-08
-3.97076e-08
1.36142e-08
-2.01693e-08
-4.07153e-08
1.23628e-08
-2.0908e-08
-4.16419e-08
1.10463e-08
-2.0424e-08
-4.23219e-08
9.74161e-09
-1.88668e-08
-4.25741e-08
8.50474e-09
-1.64505e-08
-4.22226e-08
7.37911e-09
-1.3437e-08
-4.1075e-08
6.38124e-09
-1.01142e-08
-3.89094e-08
5.49965e-09
-6.77827e-09
-3.54342e-08
4.68402e-09
-3.72738e-09
-3.02169e-08
3.83623e-09
-1.29e-09
-2.24919e-08
2.7864e-09
-1.0721e-08
1.29878e-09
1.29976e-09
-1.33194e-08
1.32988e-09
3.78451e-09
-2.79265e-08
2.88822e-09
6.89999e-09
-3.73107e-08
3.95296e-09
1.02987e-08
-4.36416e-08
4.80835e-09
1.3673e-08
-4.79276e-08
5.64873e-09
1.67309e-08
-5.07077e-08
6.58023e-09
1.9192e-08
-5.23234e-08
7.64456e-09
2.07943e-08
-5.30306e-08
8.85718e-09
2.13201e-08
-5.30441e-08
1.0197e-08
2.06153e-08
-5.25564e-08
1.16191e-08
1.85951e-08
-5.1761e-08
1.30651e-08
1.52592e-08
-5.08602e-08
1.44746e-08
1.08496e-08
-4.99912e-08
1.56357e-08
5.66803e-09
-4.89405e-08
1.62989e-08
8.61862e-11
-4.84036e-08
1.66644e-08
-5.52865e-09
-4.8454e-08
1.67066e-08
-1.07471e-08
-4.90126e-08
1.63377e-08
-1.51222e-08
-4.99324e-08
1.55976e-08
-1.84534e-08
-5.08494e-08
1.4473e-08
-2.04919e-08
-5.17644e-08
1.30876e-08
-2.122e-08
-5.25593e-08
1.16454e-08
-2.07156e-08
-5.30481e-08
1.02218e-08
-1.91316e-08
-5.3038e-08
8.87995e-09
-1.66869e-08
-5.23334e-08
7.6662e-09
-1.36426e-08
-5.07173e-08
6.59793e-09
-1.02823e-08
-4.79304e-08
5.6606e-09
-6.90095e-09
-4.36182e-08
4.80267e-09
-3.79969e-09
-3.72407e-08
3.92254e-09
-1.31387e-09
-2.78259e-08
2.84826e-09
-1.33637e-08
1.32883e-09
1.2772e-09
-1.59024e-08
1.30577e-09
3.70277e-09
-3.32015e-08
2.8494e-09
6.7546e-09
-4.42866e-08
3.92412e-09
1.00945e-08
-5.17621e-08
4.78072e-09
1.34123e-08
-5.68588e-08
5.61333e-09
1.64152e-08
-6.0265e-08
6.55432e-09
1.88386e-08
-6.24015e-08
7.65461e-09
2.04306e-08
-6.35443e-08
8.92166e-09
2.09735e-08
-6.39194e-08
1.03323e-08
2.031e-08
-6.37335e-08
1.18407e-08
1.83599e-08
-6.31844e-08
1.33735e-08
1.51083e-08
-6.24671e-08
1.48586e-08
1.07245e-08
-6.17453e-08
1.6138e-08
5.59536e-09
-6.06623e-08
1.6851e-08
8.16668e-11
-6.01713e-08
1.72815e-08
-5.47198e-09
-6.02159e-08
1.73155e-08
-1.06523e-08
-6.06893e-08
1.6857e-08
-1.49959e-08
-6.16557e-08
1.60669e-08
-1.82252e-08
-6.24568e-08
1.48367e-08
-2.01897e-08
-6.31913e-08
1.33914e-08
-2.08744e-08
-6.37417e-08
1.18672e-08
-2.03523e-08
-6.39282e-08
1.0358e-08
-1.87788e-08
-6.35568e-08
8.94522e-09
-1.6371e-08
-6.24179e-08
7.6767e-09
-1.3383e-08
-6.02747e-08
6.56944e-09
-1.00886e-08
-5.68313e-08
5.60649e-09
-6.77235e-09
-5.16712e-08
4.73672e-09
-3.72879e-09
-4.4143e-08
3.85872e-09
-1.28592e-09
-3.30724e-08
2.80355e-09
-1.59561e-08
1.30648e-09
1.21167e-09
-1.83384e-08
1.22438e-09
3.50114e-09
-3.81662e-08
2.67522e-09
6.35241e-09
-5.08595e-08
3.72165e-09
9.49504e-09
-5.94787e-08
4.57396e-09
1.26428e-08
-6.53894e-08
5.3829e-09
1.54942e-08
-6.93983e-08
6.28197e-09
1.78008e-08
-7.20735e-08
7.36542e-09
1.93305e-08
-7.371e-08
8.63595e-09
1.98791e-08
-7.45311e-08
1.00631e-08
1.9286e-08
-7.4741e-08
1.16006e-08
1.74746e-08
-7.45362e-08
1.31632e-08
1.44302e-08
-7.40927e-08
1.467e-08
1.0211e-08
-7.35374e-08
1.60114e-08
5.3242e-09
-7.25611e-08
1.67856e-08
7.57576e-11
-7.21645e-08
1.72417e-08
-5.20347e-09
-7.22066e-08
1.72699e-08
-1.01241e-08
-7.25347e-08
1.67661e-08
-1.43205e-08
-7.33574e-08
1.58981e-08
-1.73489e-08
-7.4068e-08
1.46395e-08
-1.91699e-08
-7.45485e-08
1.31781e-08
-1.97835e-08
-7.47542e-08
1.16261e-08
-1.9256e-08
-7.4544e-08
1.00883e-08
-1.77425e-08
-7.3729e-08
8.6588e-09
-1.54487e-08
-7.20962e-08
7.38448e-09
-1.26202e-08
-6.93841e-08
6.28095e-09
-9.50752e-09
-6.52744e-08
5.33037e-09
-6.37378e-09
-5.92863e-08
4.48134e-09
-3.50423e-09
-5.065e-08
3.63751e-09
-1.20739e-09
-3.80067e-08
2.6375e-09
-1.83941e-08
1.23059e-09
1.09338e-09
-2.05184e-08
1.08665e-09
3.16644e-09
-4.25825e-08
2.34329e-09
5.72143e-09
-5.66956e-08
3.28111e-09
8.51304e-09
-6.63851e-08
4.11481e-09
1.1344e-08
-7.31165e-08
4.89607e-09
1.39253e-08
-7.7707e-08
5.72738e-09
1.60248e-08
-8.0911e-08
6.73798e-09
1.74338e-08
-8.30686e-08
7.9497e-09
1.79637e-08
-8.43802e-08
9.31918e-09
1.74679e-08
-8.50357e-08
1.07904e-08
1.58906e-08
-8.5209e-08
1.22502e-08
1.31908e-08
-8.50272e-08
1.36344e-08
9.30395e-09
-8.45968e-08
1.49462e-08
4.84217e-09
-8.39564e-08
1.58572e-08
6.85943e-11
-8.37241e-08
1.63332e-08
-4.7239e-09
-8.37663e-08
1.63522e-08
-9.16257e-09
-8.3935e-08
1.58389e-08
-1.29788e-08
-8.45075e-08
1.49663e-08
-1.57166e-08
-8.51346e-08
1.38044e-08
-1.73487e-08
-8.52573e-08
1.2341e-08
-1.78703e-08
-8.50555e-08
1.08229e-08
-1.73632e-08
-8.43899e-08
9.33879e-09
-1.59678e-08
-8.30901e-08
7.96574e-09
-1.38762e-08
-8.09348e-08
6.747e-09
-1.13194e-08
-7.76396e-08
5.6987e-09
-8.51267e-09
-7.28802e-08
4.79915e-09
-5.68512e-09
-6.6113e-08
3.99921e-09
-3.11019e-09
-5.64519e-08
3.22696e-09
-1.06133e-09
-4.239e-08
2.33439e-09
-2.05497e-08
1.09427e-09
9.21196e-10
-2.23364e-08
8.9676e-10
2.68734e-09
-4.6232e-08
1.88337e-09
4.84602e-09
-6.14454e-08
2.59114e-09
7.18712e-09
-7.20283e-08
3.3021e-09
9.51901e-09
-7.95018e-08
4.05343e-09
1.16847e-08
-8.47002e-08
4.82759e-09
1.34749e-08
-8.842e-08
5.71885e-09
1.47056e-08
-9.10979e-08
6.79867e-09
1.52057e-08
-9.2904e-08
8.02376e-09
1.48415e-08
-9.39721e-08
9.30044e-09
1.35243e-08
-9.44433e-08
1.05513e-08
1.11718e-08
-9.45515e-08
1.18767e-08
7.89083e-09
-9.4443e-08
1.31273e-08
4.11909e-09
-9.41542e-08
1.39697e-08
5.71568e-11
-9.40601e-08
1.4398e-08
-4.03407e-09
-9.40355e-08
1.43604e-08
-7.81284e-09
-9.40047e-08
1.38483e-08
-1.1047e-08
-9.43093e-08
1.30358e-08
-1.33569e-08
-9.48188e-08
1.19941e-08
-1.47035e-08
-9.45379e-08
1.06272e-08
-1.51014e-08
-9.39571e-08
9.29959e-09
-1.46342e-08
-9.28679e-08
8.01082e-09
-1.34193e-08
-9.11009e-08
6.79586e-09
-1.1618e-08
-8.84435e-08
5.70741e-09
-9.45302e-09
-8.45894e-08
4.78471e-09
-7.10404e-09
-7.92465e-08
4.01733e-09
-4.76975e-09
-7.18159e-08
3.36866e-09
-2.62658e-09
-6.13343e-08
2.73928e-09
-9.06045e-10
-4.60957e-08
1.98524e-09
-2.23823e-08
9.26545e-10
7.06666e-10
-2.3719e-08
6.75934e-10
2.03551e-09
-4.90009e-08
1.44006e-09
3.70185e-09
-6.50565e-08
1.94471e-09
5.4865e-09
-7.61931e-08
2.38007e-09
7.21637e-09
-8.41512e-08
2.91956e-09
8.82651e-09
-8.98831e-08
3.57278e-09
1.01845e-08
-9.40875e-08
4.30954e-09
1.11666e-08
-9.72265e-08
5.14655e-09
1.16461e-08
-9.94681e-08
6.08455e-09
1.13896e-08
-1.00817e-07
7.10084e-09
1.02611e-08
-1.01545e-07
8.23046e-09
8.37023e-09
-1.02051e-07
9.39074e-09
5.99316e-09
-1.02435e-07
1.0369e-08
3.16569e-09
-1.02368e-07
1.10411e-08
4.98743e-11
-1.02308e-07
1.13636e-08
-3.11811e-09
-1.02156e-07
1.12886e-08
-6.00416e-09
-1.01993e-07
1.0874e-08
-8.43366e-09
-1.02056e-07
1.01757e-08
-1.02673e-08
-1.02173e-07
9.18811e-09
-1.1284e-08
-1.01498e-07
7.97731e-09
-1.15312e-08
-1.00642e-07
6.93224e-09
-1.11365e-08
-9.92279e-08
5.96535e-09
-1.02071e-08
-9.71075e-08
5.07711e-09
-8.85626e-09
-9.41235e-08
4.32922e-09
-7.21053e-09
-8.99196e-08
3.68448e-09
-5.42241e-09
-8.41328e-08
3.09814e-09
-3.64033e-09
-7.61775e-08
2.57944e-09
-2.00403e-09
-6.50515e-08
2.08088e-09
-6.92268e-10
-4.89112e-08
1.50375e-09
-2.37751e-08
7.00546e-10
4.77292e-10
-2.46072e-08
4.10995e-10
1.28719e-09
-5.06748e-08
8.63978e-10
2.32683e-09
-6.73458e-08
1.24968e-09
3.4552e-09
-7.88817e-08
1.56024e-09
4.56225e-09
-8.71759e-08
1.91763e-09
5.59832e-09
-9.32482e-08
2.32902e-09
6.46833e-09
-9.77236e-08
2.76614e-09
7.05892e-09
-1.01022e-07
3.20449e-09
7.37714e-09
-1.03468e-07
3.68192e-09
7.19083e-09
-1.05015e-07
4.3845e-09
6.45054e-09
-1.06054e-07
5.24866e-09
5.30542e-09
-1.0695e-07
6.04324e-09
3.80771e-09
-1.07602e-07
6.66454e-09
2.01833e-09
-1.07674e-07
7.09608e-09
5.99667e-11
-1.07685e-07
7.33562e-09
-1.92831e-09
-1.07483e-07
7.31478e-09
-3.75118e-09
-1.07242e-07
7.0716e-09
-5.25563e-09
-1.07179e-07
6.62781e-09
-6.43085e-09
-1.07021e-07
6.02248e-09
-7.15352e-09
-1.06e-07
5.22379e-09
-7.42266e-09
-1.04753e-07
4.38056e-09
-7.2122e-09
-1.03033e-07
3.59487e-09
-6.57506e-09
-1.00737e-07
2.99194e-09
-5.63385e-09
-9.76439e-08
2.57915e-09
-4.54753e-09
-9.3258e-08
2.25209e-09
-3.40642e-09
-8.72071e-08
1.93321e-09
-2.28053e-09
-7.89202e-08
1.61684e-09
-1.25172e-09
-6.73837e-08
1.30346e-09
-4.32801e-10
-5.067e-08
9.3985e-10
-2.46454e-08
4.37511e-10
1.74274e-10
-2.49211e-08
1.39549e-10
4.4708e-10
-5.12463e-08
2.98764e-10
8.12812e-10
-6.81576e-08
4.46076e-10
1.21449e-09
-7.98405e-08
5.5714e-10
1.62012e-09
-8.82498e-08
6.68327e-10
2.03107e-09
-9.44202e-08
7.61009e-10
2.41322e-09
-9.89476e-08
8.41835e-10
2.64128e-09
-1.02223e-07
9.73014e-10
2.67322e-09
-1.04679e-07
1.1784e-09
2.52906e-09
-1.06342e-07
1.47126e-09
2.29994e-09
-1.07603e-07
1.77811e-09
1.964e-09
-1.08651e-07
2.03771e-09
1.33201e-09
-1.09183e-07
2.2137e-09
6.61637e-10
-1.09342e-07
2.33855e-09
3.4792e-11
-1.09522e-07
2.46389e-09
-6.62954e-10
-1.09355e-07
2.57027e-09
-1.31589e-09
-1.09154e-07
2.56521e-09
-1.8321e-09
-1.0906e-07
2.39679e-09
-2.23877e-09
-1.08787e-07
2.17347e-09
-2.49026e-09
-1.07648e-07
1.89963e-09
-2.59247e-09
-1.06262e-07
1.61034e-09
-2.52861e-09
-1.04428e-07
1.33093e-09
-2.30679e-09
-1.02061e-07
1.1029e-09
-1.97396e-09
-9.89063e-08
9.29551e-10
-1.58716e-09
-9.44303e-08
7.85502e-10
-1.1826e-09
-8.82678e-08
6.56085e-10
-7.85176e-10
-7.98603e-08
5.42635e-10
-4.26053e-10
-6.81795e-08
4.36645e-10
-1.46476e-10
-5.12613e-08
3.11717e-10
-2.4942e-08
1.50115e-10
-1.23125e-10
-2.46626e-08
-1.35391e-10
-3.82655e-10
-5.07135e-08
-2.73234e-10
-7.01877e-10
-6.74657e-08
-3.72584e-10
-1.05121e-09
-7.9027e-08
-4.64083e-10
-1.41155e-09
-8.73403e-08
-5.49177e-10
-1.7738e-09
-9.34481e-08
-6.09884e-10
-2.11198e-09
-9.7954e-08
-6.55567e-10
-2.32684e-09
-1.01263e-07
-7.45307e-10
-2.33155e-09
-1.03721e-07
-9.53479e-10
-2.175e-09
-1.05234e-07
-1.26497e-09
-1.97192e-09
-1.06245e-07
-1.56115e-09
-1.79594e-09
-1.07068e-07
-1.75959e-09
-1.51732e-09
-1.07574e-07
-1.88834e-09
-9.36461e-10
-1.079e-07
-2.02295e-09
-8.974e-11
-1.08141e-07
-2.22785e-09
6.05972e-10
-1.07744e-07
-2.30714e-09
1.20488e-09
-1.07538e-07
-2.21415e-09
1.74303e-09
-1.0753e-07
-2.06794e-09
2.03946e-09
-1.07204e-07
-1.87982e-09
2.22973e-09
-1.06179e-07
-1.65882e-09
2.32427e-09
-1.04944e-07
-1.41217e-09
2.27286e-09
-1.03217e-07
-1.15927e-09
2.09495e-09
-1.00922e-07
-9.61003e-10
1.79627e-09
-9.77896e-08
-8.17981e-10
1.45003e-09
-9.33758e-08
-7.08295e-10
1.09082e-09
-8.73042e-08
-6.04358e-10
7.32081e-10
-7.90008e-08
-5.00761e-10
4.06948e-10
-6.74576e-08
-3.96818e-10
1.46627e-10
-5.07253e-08
-2.75626e-10
-2.4667e-08
-1.28341e-10
-4.17427e-10
-2.38238e-08
-4.21382e-10
-1.21288e-09
-4.90164e-08
-9.0164e-10
-2.2058e-09
-6.52207e-08
-1.2521e-09
-3.2932e-09
-7.63846e-08
-1.55492e-09
-4.38586e-09
-8.43767e-08
-1.87096e-09
-5.39879e-09
-9.02111e-08
-2.22417e-09
-6.24044e-09
-9.44927e-08
-2.61984e-09
-6.83638e-09
-9.76012e-08
-3.0658e-09
-7.11193e-09
-9.98787e-08
-3.56651e-09
-6.89928e-09
-1.01232e-07
-4.21475e-09
-6.19055e-09
-1.01928e-07
-5.02575e-09
-5.1698e-09
-1.02332e-07
-5.75617e-09
-3.7813e-09
-1.02644e-07
-6.31761e-09
-2.03511e-09
-1.02888e-07
-6.75855e-09
-3.69041e-11
-1.03094e-07
-7.04468e-09
1.89345e-09
-1.02655e-07
-7.01827e-09
3.70846e-09
-1.02577e-07
-6.77591e-09
5.29648e-09
-1.0278e-07
-6.33827e-09
6.24923e-09
-1.02423e-07
-5.7343e-09
6.8684e-09
-1.01753e-07
-5.04613e-09
7.14268e-09
-1.00964e-07
-4.25485e-09
6.93751e-09
-9.95831e-08
-3.429e-09
6.34421e-09
-9.74438e-08
-2.88526e-09
5.43662e-09
-9.43587e-08
-2.52333e-09
4.39422e-09
-9.01353e-08
-2.19808e-09
3.31473e-09
-8.43519e-08
-1.87283e-09
2.2314e-09
-7.63749e-08
-1.54264e-09
1.24733e-09
-6.52538e-08
-1.21972e-09
4.53102e-10
-4.90828e-08
-8.48344e-10
-2.38094e-08
-4.04499e-10
-6.82883e-10
-2.24563e-08
-6.84585e-10
-1.96878e-09
-4.62599e-08
-1.47062e-09
-3.57477e-09
-6.15728e-08
-2.0418e-09
-5.32522e-09
-7.20992e-08
-2.53498e-09
-7.07548e-09
-7.95768e-08
-3.04972e-09
-8.67395e-09
-8.4967e-08
-3.64582e-09
-9.97721e-09
-8.88569e-08
-4.33277e-09
-1.08999e-08
-9.15505e-08
-5.12819e-09
-1.1361e-08
-9.33927e-08
-6.02498e-09
-1.11336e-08
-9.44985e-08
-6.96042e-09
-1.00552e-08
-9.497e-08
-8.03611e-09
-8.26506e-09
-9.49731e-08
-9.1492e-09
-5.92286e-09
-9.48956e-08
-1.0091e-08
-3.13114e-09
-9.49025e-08
-1.07771e-08
-4.08022e-11
-9.50374e-08
-1.1147e-08
3.03407e-09
-9.4667e-08
-1.10633e-08
5.89805e-09
-9.47311e-08
-1.07103e-08
8.37793e-09
-9.5216e-08
-1.00436e-08
1.00643e-08
-9.50327e-08
-9.07659e-09
1.10837e-08
-9.47612e-08
-8.01085e-09
1.13923e-08
-9.43337e-08
-6.93849e-09
1.10018e-08
-9.33296e-08
-5.86308e-09
1.00368e-08
-9.15438e-08
-4.93493e-09
8.66847e-09
-8.88276e-08
-4.16274e-09
7.04808e-09
-8.50131e-08
-3.50178e-09
5.33116e-09
-7.97222e-08
-2.91285e-09
3.61537e-09
-7.2262e-08
-2.39712e-09
2.03024e-09
-6.17632e-08
-1.90548e-09
7.25255e-10
-4.64379e-08
-1.33988e-09
-2.24376e-08
-6.46513e-10
-9.11467e-10
-2.06396e-08
-9.05224e-10
-2.6038e-09
-4.26192e-08
-1.94835e-09
-4.72147e-09
-5.67365e-08
-2.71864e-09
-7.03306e-09
-6.64307e-08
-3.35683e-09
-9.35499e-09
-7.3247e-08
-4.00787e-09
-1.15059e-08
-7.80485e-08
-4.76761e-09
-1.32963e-08
-8.13855e-08
-5.68122e-09
-1.45057e-08
-8.35845e-08
-6.75679e-09
-1.4999e-08
-8.49415e-08
-7.95801e-09
-1.46469e-08
-8.56487e-08
-9.20189e-09
-1.33278e-08
-8.58509e-08
-1.04382e-08
-1.09686e-08
-8.56295e-08
-1.17028e-08
-7.79081e-09
-8.51747e-08
-1.28986e-08
-4.08198e-09
-8.48371e-08
-1.37741e-08
-3.30464e-11
-8.48481e-08
-1.42381e-08
4.00649e-09
-8.45854e-08
-1.41211e-08
7.75222e-09
-8.47945e-08
-1.36824e-08
1.09795e-08
-8.55352e-08
-1.29081e-08
1.32973e-08
-8.57116e-08
-1.16389e-08
1.46315e-08
-8.58075e-08
-1.0288e-08
1.50191e-08
-8.56312e-08
-9.09021e-09
1.45498e-08
-8.49621e-08
-7.89828e-09
1.334e-08
-8.36199e-08
-6.71404e-09
1.15705e-08
-8.1414e-08
-5.64405e-09
9.42563e-09
-7.81233e-08
-4.74502e-09
7.11869e-09
-7.34513e-08
-3.96389e-09
4.83365e-09
-6.67804e-08
-3.19653e-09
2.70295e-09
-5.71595e-08
-2.47306e-09
9.55001e-10
-4.29443e-08
-1.74563e-09
-2.06273e-08
-8.55327e-10
-1.08899e-09
-1.84725e-08
-1.07811e-09
-3.1019e-09
-3.82976e-08
-2.30864e-09
-5.64815e-09
-5.09632e-08
-3.22701e-09
-8.4578e-09
-5.96228e-08
-3.99821e-09
-1.12614e-08
-6.56598e-08
-4.78364e-09
-1.38189e-08
-6.98197e-08
-5.67136e-09
-1.59115e-08
-7.25789e-08
-6.71408e-09
-1.73109e-08
-7.42623e-08
-7.92303e-09
-1.78334e-08
-7.51313e-08
-9.28781e-09
-1.73404e-08
-7.53917e-08
-1.07501e-08
-1.57628e-08
-7.52247e-08
-1.22039e-08
-1.30541e-08
-7.47914e-08
-1.35467e-08
-9.25677e-09
-7.41876e-08
-1.47842e-08
-4.80528e-09
-7.35161e-08
-1.57724e-08
-2.3992e-11
-7.32923e-08
-1.6337e-08
4.7404e-09
-7.31047e-08
-1.6245e-08
9.17843e-09
-7.34726e-08
-1.57599e-08
1.29714e-08
-7.44006e-08
-1.49277e-08
1.57153e-08
-7.48456e-08
-1.361e-08
1.73318e-08
-7.52406e-08
-1.21835e-08
1.78421e-08
-7.541e-08
-1.07315e-08
1.73284e-08
-7.51614e-08
-9.28703e-09
1.59349e-08
-7.43004e-08
-7.92603e-09
1.38543e-08
-7.26199e-08
-6.71358e-09
1.12917e-08
-6.98735e-08
-5.68718e-09
8.46962e-09
-6.57764e-08
-4.85284e-09
5.66439e-09
-5.98653e-08
-4.10994e-09
3.13315e-09
-5.12971e-08
-3.33118e-09
1.09721e-09
-3.85465e-08
-2.36183e-09
-1.84543e-08
-1.07585e-09
-1.20893e-09
-1.60372e-08
-1.22637e-09
-3.49723e-09
-3.33642e-08
-2.64506e-09
-6.3627e-09
-4.4456e-08
-3.64166e-09
-9.49378e-09
-5.20154e-08
-4.47637e-09
-1.26103e-08
-5.72259e-08
-5.31737e-09
-1.54475e-08
-6.07176e-08
-6.26491e-09
-1.77492e-08
-6.29096e-08
-7.36766e-09
-1.92742e-08
-6.40979e-08
-8.63938e-09
-1.98165e-08
-6.45189e-08
-1.00702e-08
-1.92227e-08
-6.43769e-08
-1.16088e-08
-1.74115e-08
-6.38681e-08
-1.31678e-08
-1.43862e-08
-6.31872e-08
-1.46296e-08
-1.02166e-08
-6.24679e-08
-1.58892e-08
-5.26615e-09
-6.16663e-08
-1.68001e-08
-1.57663e-11
-6.11969e-08
-1.73457e-08
5.24564e-09
-6.10775e-08
-1.72886e-08
1.01805e-08
-6.15834e-08
-1.68241e-08
1.43291e-08
-6.25331e-08
-1.60162e-08
1.73749e-08
-6.32082e-08
-1.46833e-08
1.92046e-08
-6.38872e-08
-1.31832e-08
1.98135e-08
-6.43986e-08
-1.16202e-08
1.92809e-08
-6.45467e-08
-1.00822e-08
1.77633e-08
-6.4132e-08
-8.65074e-09
1.54686e-08
-6.295e-08
-7.37522e-09
1.26337e-08
-6.07641e-08
-6.27443e-09
9.49831e-09
-5.72884e-08
-5.35258e-09
6.33507e-09
-5.21325e-08
-4.56952e-09
3.46337e-09
-4.46469e-08
-3.77852e-09
1.20117e-09
-3.35495e-08
-2.7348e-09
-1.60225e-08
-1.23061e-09
-1.26383e-09
-1.34548e-08
-1.31848e-09
-3.7234e-09
-2.80615e-08
-2.84309e-09
-6.78399e-09
-3.75246e-08
-3.87085e-09
-1.01096e-08
-4.39508e-08
-4.73899e-09
-1.34166e-08
-4.83106e-08
-5.60834e-09
-1.64186e-08
-5.11422e-08
-6.57343e-09
-1.88429e-08
-5.28012e-08
-7.68409e-09
-2.04347e-08
-5.35491e-08
-8.95705e-09
-2.09753e-08
-5.36018e-08
-1.03767e-08
-2.0306e-08
-5.31541e-08
-1.18922e-08
-1.83483e-08
-5.23941e-08
-1.34319e-08
-1.51061e-08
-5.15204e-08
-1.49091e-08
-1.07425e-08
-5.06489e-08
-1.61825e-08
-5.52979e-09
-4.98351e-08
-1.70439e-08
-8.15325e-12
-4.92629e-08
-1.74555e-08
5.53052e-09
-4.9214e-08
-1.74022e-08
1.07209e-08
-4.97836e-08
-1.69902e-08
1.50671e-08
-5.06872e-08
-1.61922e-08
1.83128e-08
-5.15366e-08
-1.49175e-08
2.02831e-08
-5.24098e-08
-1.34478e-08
2.09651e-08
-5.3172e-08
-1.19087e-08
2.04355e-08
-5.36257e-08
-1.03914e-08
1.88528e-08
-5.35786e-08
-8.97062e-09
1.6433e-08
-5.2836e-08
-7.6942e-09
1.34336e-08
-5.11825e-08
-6.58236e-09
1.01237e-08
-4.83574e-08
-5.62114e-09
6.77856e-09
-4.40144e-08
-4.77307e-09
3.70931e-09
-3.76403e-08
-3.93733e-09
1.27459e-09
-2.82283e-08
-2.88652e-09
-1.34356e-08
-1.31227e-09
-1.30376e-09
-1.081e-08
-1.34099e-09
-3.80994e-09
-2.26828e-08
-2.87259e-09
-6.93026e-09
-3.04697e-08
-3.93459e-09
-1.03302e-08
-3.57363e-08
-4.81457e-09
-1.37117e-08
-3.92537e-08
-5.67541e-09
-1.6778e-08
-4.14583e-08
-6.61769e-09
-1.92454e-08
-4.26412e-08
-7.69261e-09
-2.08515e-08
-4.3028e-08
-8.91501e-09
-2.13753e-08
-4.28113e-08
-1.02668e-08
-2.0662e-08
-4.21648e-08
-1.17028e-08
-1.86256e-08
-4.12694e-08
-1.31613e-08
-1.52919e-08
-4.02891e-08
-1.4565e-08
-1.09078e-08
-3.93155e-08
-1.57174e-08
-5.68992e-09
-3.85491e-08
-1.65038e-08
-4.46599e-11
-3.80516e-08
-1.68565e-08
5.57387e-09
-3.79985e-08
-1.68339e-08
1.07704e-08
-3.84867e-08
-1.64934e-08
1.52224e-08
-3.93659e-08
-1.57733e-08
1.85898e-08
-4.03058e-08
-1.45983e-08
2.06361e-08
-4.12767e-08
-1.31795e-08
2.13617e-08
-4.21774e-08
-1.17203e-08
2.08475e-08
-4.2829e-08
-1.02825e-08
1.92494e-08
-4.30519e-08
-8.92862e-09
1.67872e-08
-4.2669e-08
-7.70482e-09
1.37235e-08
-4.14897e-08
-6.62913e-09
1.03422e-08
-3.92899e-08
-5.68618e-09
6.93662e-09
-3.57784e-08
-4.83042e-09
3.80146e-09
-3.05307e-08
-3.9744e-09
1.29127e-09
-2.27859e-08
-2.93222e-09
-1.08e-08
-1.34435e-09
-1.2923e-09
-8.20666e-09
-1.31106e-09
-3.74644e-09
-1.74237e-08
-2.80486e-09
-6.81965e-09
-2.35425e-08
-3.85405e-09
-1.01815e-08
-2.76693e-08
-4.70515e-09
-1.35323e-08
-3.03772e-08
-5.52579e-09
-1.65746e-08
-3.20014e-08
-6.41458e-09
-1.90185e-08
-3.2777e-08
-7.42028e-09
-2.06017e-08
-3.28889e-08
-8.5559e-09
-2.11074e-08
-3.24988e-08
-9.80687e-09
-2.03796e-08
-3.1763e-08
-1.11297e-08
-1.83455e-08
-3.08342e-08
-1.24695e-08
-1.50672e-08
-2.98428e-08
-1.37247e-08
-1.07538e-08
-2.8904e-08
-1.47249e-08
-5.63726e-09
-2.82051e-08
-1.54606e-08
-5.06609e-11
-2.78168e-08
-1.58213e-08
5.50215e-09
-2.77585e-08
-1.57928e-08
1.06247e-08
-2.81569e-08
-1.54524e-08
1.49952e-08
-2.89476e-08
-1.47889e-08
1.83096e-08
-2.98616e-08
-1.37587e-08
2.03518e-08
-3.08373e-08
-1.24816e-08
2.10883e-08
-3.17699e-08
-1.11441e-08
2.05946e-08
-3.25122e-08
-9.82303e-09
1.9019e-08
-3.29053e-08
-8.57095e-09
1.65799e-08
-3.27975e-08
-7.43233e-09
1.35412e-08
-3.20256e-08
-6.42544e-09
1.01924e-08
-3.04047e-08
-5.53638e-09
6.8277e-09
-2.7698e-08
-4.71577e-09
3.74654e-09
-2.35787e-08
-3.87093e-09
1.27771e-09
-1.74779e-08
-2.83917e-09
-8.20878e-09
-1.31349e-09
-1.2202e-09
-5.75898e-09
-1.22745e-09
-3.5399e-09
-1.24745e-08
-2.62952e-09
-6.46284e-09
-1.70058e-08
-3.61369e-09
-9.68226e-09
-2.00477e-08
-4.4022e-09
-1.29096e-08
-2.19964e-08
-5.15352e-09
-1.58519e-08
-2.30983e-08
-5.96082e-09
-1.82204e-08
-2.35349e-08
-6.87369e-09
-1.97571e-08
-2.34513e-08
-7.90084e-09
-2.02476e-08
-2.29801e-08
-9.02824e-09
-1.95421e-08
-2.22463e-08
-1.02222e-08
-1.75706e-08
-2.13693e-08
-1.14365e-08
-1.44341e-08
-2.04566e-08
-1.25229e-08
-1.02932e-08
-1.96409e-08
-1.34041e-08
-5.38978e-09
-1.90393e-08
-1.40692e-08
-4.41102e-11
-1.873e-08
-1.44324e-08
5.27218e-09
-1.86827e-08
-1.4392e-08
1.01842e-08
-1.90085e-08
-1.40605e-08
1.43682e-08
-1.96674e-08
-1.34643e-08
1.7536e-08
-2.04718e-08
-1.25577e-08
1.95131e-08
-2.13747e-08
-1.14398e-08
2.02275e-08
-2.22502e-08
-1.0234e-08
1.97471e-08
-2.29879e-08
-9.04392e-09
1.82192e-08
-2.34622e-08
-7.9152e-09
1.58558e-08
-2.35484e-08
-6.88567e-09
1.29168e-08
-2.31151e-08
-5.97158e-09
9.68873e-09
-2.20143e-08
-5.16231e-09
6.46851e-09
-2.00671e-08
-4.41075e-09
3.54395e-09
-1.70307e-08
-3.62338e-09
1.21748e-09
-1.25069e-08
-2.6445e-09
-5.7626e-09
-1.22869e-09
-1.08752e-09
-3.58229e-09
-1.08914e-09
-3.17804e-09
-8.04319e-09
-2.34077e-09
-5.85501e-09
-1.11224e-08
-3.20647e-09
-8.83854e-09
-1.31753e-08
-3.88891e-09
-1.18596e-08
-1.44377e-08
-4.53769e-09
-1.46365e-08
-1.50847e-08
-5.23669e-09
-1.68854e-08
-1.52531e-08
-6.03295e-09
-1.83547e-08
-1.50494e-08
-6.93256e-09
-1.88387e-08
-1.45722e-08
-7.92388e-09
-1.81934e-08
-1.39143e-08
-8.97729e-09
-1.63624e-08
-1.31616e-08
-1.00388e-08
-1.34441e-08
-1.2411e-08
-1.09641e-08
-9.58058e-09
-1.17547e-08
-1.17497e-08
-5.00852e-09
-1.12718e-08
-1.23395e-08
-3.7454e-11
-1.10242e-08
-1.26768e-08
4.90949e-09
-1.09964e-08
-1.26332e-08
9.482e-09
-1.12539e-08
-1.2327e-08
1.33713e-08
-1.1763e-08
-1.17937e-08
1.63195e-08
-1.24169e-08
-1.10031e-08
1.81643e-08
-1.31655e-08
-1.00542e-08
1.88184e-08
-1.39167e-08
-8.98762e-09
1.83442e-08
-1.45763e-08
-7.93742e-09
1.68825e-08
-1.50553e-08
-6.94523e-09
1.46381e-08
-1.52611e-08
-6.04282e-09
1.18638e-08
-1.50942e-08
-5.24661e-09
8.84292e-09
-1.44485e-08
-4.545e-09
5.86068e-09
-1.31896e-08
-3.89522e-09
3.18583e-09
-1.11452e-08
-3.21066e-09
1.09009e-09
-8.06757e-09
-2.3436e-09
-3.58476e-09
-1.08775e-09
-8.89046e-10
-1.80536e-09
-8.87844e-10
-2.65615e-09
-4.3658e-09
-1.91027e-09
-4.9863e-09
-6.19544e-09
-2.59681e-09