/*--------------------------------*- C++ -*----------------------------------*\
| =========                 |                                                 |
| \\      /  F ield         | OpenFOAM: The Open Source CFD Toolbox           |
|  \\    /   O peration     | Version:  v1912                                 |
|   \\  /    A nd           | Website:  www.openfoam.com                      |
|    \\/     M anipulation  |                                                 |
\*---------------------------------------------------------------------------*/
FoamFile
{
    version     2.0;
    format      ascii;
    class       volScalarField;
    location    "198/oil";
    object      wallHeatFlux;
}
// * * * * * * * * * * * * * * * * * * * * * * * * * * * * * * * * * * * * * //

dimensions      [1 0 -3 0 0 0 0];


internalField   uniform 0;

boundaryField
{
    maxY
    {
        type            calculated;
        value           uniform 0;
    }
    minX
    {
        type            calculated;
        value           uniform 0;
    }
    maxX
    {
        type            calculated;
        value           uniform 0;
    }
    minY
    {
        type            calculated;
        value           uniform 0;
    }
    minZ
    {
        type            calculated;
        value           uniform 0;
    }
    maxZ
    {
        type            calculated;
        value           uniform 0;
    }
    oil_to_sphere
    {
        type            calculated;
        value           nonuniform List<scalar> 
1536
(
1890.59
1999.37
1816.33
1788.12
1455.88
1525.29
1502.93
964.28
886.961
2097.3
1435.35
2124.01
2168.41
2124.19
1775.14
1444.86
984.419
896.614
-411.481
2162.98
2098.19
1543.64
1511.29
1462.29
1570
1568.8
1569.12
1468.27
2003.52
1972.08
1819.18
1304.57
1155.61
1578.22
1452.13
1438.63
1354.11
1672.45
1542.05
1659.33
1541.71
1439.48
1948.04
2128.43
1989.07
2110.39
1530.66
1534.24
1740.46
1577.66
1543.3
1547.03
1494.06
1525
1229.36
1119.85
1515.96
1509.55
905.697
354.703
476.487
338.001
452.339
2160.57
2175.45
2119.28
1999.73
2116.95
1883.19
1980.16
1585.08
1523.45
1814.98
1549.3
1453.4
1164.25
1097.32
1049.96
1448.31
896.911
333.462
453.355
197.375
183.998
537.627
470.683
219.56
976.235
894.511
351.625
464.208
-413.463
-410.457
2171.61
2177.85
2131.48
2029.11
2074.48
2124.47
1871.71
2009.97
1576.16
1877.8
1823.92
1536.26
1548.59
1464.47
1061.16
1428.46
1175.29
1087.67
1151.01
350.73
479.295
207.832
226.657
204.435
529.535
470.319
549.859
903.012
466.291
-411.349
2119.27
1872.4
1978
1885.06
1967.07
1541.21
1548.39
1565
1541.06
1548.17
1528.86
1559.79
1565.51
1525.37
1121.25
1499
1492.67
356.28
472.288
978.792
904.433
455.357
882.029
1750.42
1748.73
1496.33
1598.24
1813.99
1744.96
1528.08
1561.84
1546.4
1353.35
1237.74
1257.89
1754.88
1716.42
1756.74
1897.95
1640.05
1561.42
1440.48
1359.39
1525.65
1391.49
1246.62
1268.06
1929.31
1689.68
1979.13
1661.51
1281.51
1084.21
1762.96
1780.58
1845.83
1731.23
1634.62
1554.34
1362.51
1544.28
1304.58
1272.56
1261.08
2037.72
1727.8
1819.51
1917.25
1764.3
1890.76
1804.48
1317.86
1327.51
1384.36
1400.02
1296.2
1343.14
1385.8
1451.36
893.993
848.262
802.255
925.992
985.807
960.789
1053.78
1019.93
856.066
763.813
714.307
2063.26
2223.23
2176.83
2073.98
2075.28
2092.2
2068.77
2047.12
2133.66
2001.17
2055.19
2059.25
1773.11
1767.77
1986.96
1864.54
1603.31
1367.92
1306.8
1523.37
1324.42
862.523
910.433
815.851
930.447
975.255
828.286
753.724
95.7132
-1.5665
2146.53
2067.21
2100.6
2055.15
2117.42
2229.74
2124.54
2052.46
1715.89
1576.81
1719.8
1745.5
1338.59
1454.56
869.676
773.776
992.938
1102.58
1043.83
727.656
-9.36762
83.2611
-195.728
-197.14
91.533
2097.23
2044.93
2033.99
2003.46
2054.63
2063.81
2024.3
2106.34
2261.4
2153.95
2045.91
1889.01
1750.27
1758.26
1849.46
2000.82
1872.84
1759.85
1756.78
1356.81
1372.67
1454.22
1476.64
1386.02
1450.6
817.304
765.903
841.261
952.678
909.53
980.792
964.525
967.874
808.934
741.289
929.484
842.25
1597.67
1493.06
1521.29
1357.71
1304.45
1275.17
1214.59
1948.9
1855.2
1993.7
1927.14
1855.15
1937.67
1968.19
2006.98
2075.72
1962.04
1989.17
1959.82
2210.46
2099.36
2060.62
1991.13
2076.66
2147.48
2060.76
1899.77
1930.9
1978
1857.51
1978.83
2011.67
2074.23
2062.54
2128.53
2103.08
2081.45
2023.73
2022.28
2006.31
2026.24
1944.67
1949.89
1872.88
1939.88
1834.51
1868.88
2009.77
1749.41
1939.21
1770.48
1805.9
1727.83
1603.86
1927.33
1755.87
1743.58
1845.36
1608.6
1695.17
1756.09
1588.47
1655.86
1534.56
1777.31
1924.05
1759.44
1773.89
1805.29
1633.68
1705.27
1687.29
1363.08
1417.91
1346.6
1250.11
1187.18
1256.79
1119.07
1070.22
1375.91
1423.89
1365.89
1274.04
1205.46
1304.95
1117.33
1069.84
1031.83
1313.59
1063.01
1269.76
1213.68
1277.24
1115
1369.64
1436.09
1359.32
1423.83
1095.66
1037.69
1270.67
1211.29
1292.3
1098.26
1052.53
953.521
899.691
947.256
895.306
811.337
814.994
747.172
877.569
777.295
994.086
731.874
759.901
703.228
632.549
730.274
692.097
581.893
536.255
425.236
912.44
865.634
805.836
934.044
766.235
815.229
582.789
524.467
496.5
426.361
707.965
643.913
733.766
695.13
673.835
946.655
893.758
955.123
962.598
814.314
740.509
903.841
834.936
2427.25
2305.97
2198.39
2397.17
2212.63
2243.24
2308.88
2139.31
2173.11
2218.92
2206.89
2057.23
2145.13
2025.31
2011.84
1982.55
1976.88
2026.5
2004.97
2075.17
2140.37
1928.14
2088.16
1953.56
2023.57
1964.73
2096.35
1989.71
2089.75
2043.41
2115.49
2054.34
1933.87
2003.96
1874.65
2017.17
1733.23
1811
1784.29
1546.71
1650.23
1636.09
1773.8
1546.67
1744.03
1534.3
1646.83
1565.18
1462.89
1523.27
1370.41
1327.36
1216.56
1281.6
1251.4
1180.2
1084.92
1291.17
1077.29
1440.86
1352.3
1238.97
765.255
697.269
643.634
746.903
702.244
861.14
767.479
989.716
721.049
574.209
549.656
436.747
280.302
169.58
289.991
174.393
379.423
476.705
375.387
260.471
287.301
848.54
904.039
801.318
925.211
721.744
647.299
746.78
681.453
849.567
758.57
951.931
1037.7
724.795
576.775
680.702
536.056
426.305
639.326
86.5521
-3.39956
105.503
-2.25746
-188.369
-190.886
-191.247
-192.961
-15.7204
2355
2175.4
2246.05
2220.94
2182.46
2358.26
2251.37
2215.34
2166.3
2064.39
2204.6
2229.82
2279.78
2074.23
2076.98
2145.42
2153.81
1928.87
2053.56
1934.02
2100.22
2029.82
2020.96
1983.05
2048.84
1978.05
2040.48
2111.08
1992.47
1918.65
1884.33
2036.97
2099.17
1928.27
2073.08
1950.61
1872.27
2123.17
2024.79
2011.85
2044.73
1960.8
1959.42
2017.69
2093.5
1968.28
1880.85
1777.62
1743.69
1656.08
1562.12
1671.13
1874.11
1805.37
1781.16
1693.23
1681.48
1620.71
1634.61
1646.34
1547
1549.29
1362.95
1515.46
1305.33
1391.07
1278.91
1219.66
1583.64
1455.6
1115.21
1318.71
1073.92
1311.28
1173.83
1080.11
1252.41
1271.74
1257.98
1253.25
1225.05
1537.15
1338.66
575
555.409
504.866
440.201
906.768
850.427
806.268
929.684
767.189
817.047
653.658
743.903
742.663
692.139
666.123
387.268
387.535
486.887
270.54
283.241
168.11
290.511
292.747
165.039
466.731
367.68
375.39
481.735
263.637
852.086
762.921
975.073
1030.57
726.492
581.561
684.709
525.584
500.25
644.628
826.086
747.62
897.051
861.152
805.171
930.244
970.745
643.029
705.995
741.976
686.226
672.462
-191.868
-189.225
100.974
90.8671
0.969357
-16.0717
205.119
88.1908
-12.4123
1851.67
1973.28
1955.77
1844.14
1954.79
1849.71
1843.72
2090.62
2046.99
2146.32
2050.65
1934.93
2013.88
1972.28
2074.19
1990.15
2031.39
1937.81
1939.74
2096.6
2025.01
1989.64
2001.24
1961.22
1958.44
2003.06
1886.4
1870.26
1939.47
1994.44
1932.35
2039.58
1971.21
2148.18
1943.16
1888.34
1918.9
1939.23
1872.67
1847.79
2013.9
1760.81
1648.32
1652.7
1720.31
1556.93
1910.29
1754.54
1747.94
1819.17
1698.42
1701.33
1635.48
1855.43
1732.81
1753.58
1816.08
1616.08
1634.15
1739.52
1716.47
1555.96
1797.64
1906.64
1784.34
1805.85
1708.96
1703.64
1649.83
1648.03
1547.27
1265.91
1206.87
1282.44
1115.51
1092.56
1043.39
1409.7
1325.72
1423.89
1366.84
1206.93
1271.44
1268.05
1094.28
1050.03
1063.64
1369.77
1364.98
1435.8
1357.39
1434.53
1086.84
1115.64
1260.07
1196.97
1269.85
1087.97
1047.8
1455.82
1350.54
1354.85
1393.6
1447.14
1112.34
1058.1
1213.16
1282.37
1281.71
893.974
955.356
813.138
804.542
736.395
948.199
899.183
955.105
708.26
642.215
739.292
682.238
599.405
709.029
546.105
433.027
654.6
857.715
895.507
799.112
932.437
1036.61
1165.01
904.206
799.025
741.575
771.468
864.058
580.068
673.686
532.807
513.102
631.311
715.029
650.688
726.025
707.339
673.985
954.67
1036.44
860.708
764.989
719.612
928.942
980.015
858.51
908.09
813.779
1828.07
1767.87
1094.29
1005.32
2122.51
2028.09
2091.9
2112.83
2090.94
1738.25
1896.53
1834.21
1885.18
1432.94
1551.38
1007.13
183.234
132.894
1821.07
1816.57
970.745
187.939
119.028
354.783
2115.72
1761.89
1511.14
339.107
1888.36
1803.41
1861.46
1424.08
1566.76
1546.44
963.137
1830.49
1889
1540.23
1559.96
1864.72
1530.15
1552.51
1388.88
1454.07
1050.26
1155.85
1238.29
1769.64
1845.63
1514.93
1638.53
1418.97
1500.79
1050.74
1153.13
1178.95
1752.1
1883.89
1524.85
1691.43
1209.67
1062.7
1187.69
1368.42
1643.61
1618.91
1866.13
1898.95
1557.38
1541.55
1511.27
1552.23
1171.43
1065.3
1171.66
981.243
2226.23
2163.49
1869.13
2075.47
1860.16
2130.45
2099.85
1551.37
1778.02
1772.19
1816.56
1765.45
1526.54
1199.59
1153.47
1154.22
1166.6
1160.22
1132.37
600.342
1003.78
553.741
611.069
2176.14
2103.15
2204.57
2119.45
2180.59
2138.73
2177.91
2157.97
2207.17
2143.4
1867.45
2082.61
1867.52
1977.77
1872.52
1520.83
1664.65
1747.81
1931.5
1574.12
1845.41
1520.7
1064.57
1174.04
1208.18
1084.09
1150.78
1145.87
984.917
608.281
510.902
468.768
506.303
1001.4
593.386
139.717
153.579
121.098
2225.07
2175.82
2140.08
2267.29
2151.34
2200.96
2142.02
2237.12
2191.75
1877.61
2075.61
1831.09
2109.17
2094.05
2023.97
2089.4
2011.9
1848.64
1917.8
1512.45
1738.27
1918.64
1764.79
1896.43
1558.58
1053.22
1183.07
1413.33
1535.18
1128.37
1235.42
1077.21
1165.07
1506.52
1010.68
602.344
452.313
514.483
464.443
994.122
593.006
141.61
122.714
131.463
2166.31
1962.76
1888.09
2119.74
1850.31
1552.56
1816.55
1780.7
1778.49
1768.19
1142.12
1244.49
1136.67
1137.08
1142.31
596.388
1029.25
617.883
1023.59
1860.5
1744.04
1629.39
1731.73
1886.84
1761.07
1279.8
1362.71
1274.62
1796.52
1885.27
1785.84
1670.28
1897.14
1602.1
1723.08
1705.95
1602.12
1782.14
1690.97
1880.74
1641.23
1693.58
1700.28
1644.66
1444.07
1426.21
1288.68
1282.97
1195.74
1086.78
1268.96
1170.15
1225.58
1871.61
1724.02
1655
1727.27
1854.69
1597.85
1627.22
1638.52
1485.73
1718.29
1360.56
1488.74
1453.18
1300.49
1310.03
1212.56
1086.3
1251.63
1157.29
1228.34
1736.14
1847.96
1597.4
1610.3
1655.08
1467.73
1711.73
1428.56
1283.78
1154.45
1293.73
1232.31
1278.31
2018.81
2024.91
2005.36
2039.5
1633.2
1866.67
1790.41
1373.21
1376.36
1455.1
1442.19
1430.48
961.274
1063.34
1041.23
839.821
802.359
1078.34
984.17
981.462
2038.74
2064.9
2110.46
2004.97
1676.1
1782.34
1617.54
1917.71
1764.62
1427.03
1424.43
1302.24
975.128
1113.68
1040.32
847.553
385.654
403.826
268.475
283.627
166.369
99.6725
2041.71
2027.5
2025.87
1988.37
2084.68
1733.16
1846.92
1794.28
1350.38
806.299
1057.02
281.686
165.173
102.765
-34.7253
425.46
2039.41
2048.61
2109.38
2038.46
2083.23
2079.93
2046.34
2021.75
2088.93
1602.98
1700.33
2007.1
1765.71
1439.4
1442.9
978.298
1063.41
965.787
908.889
1031.22
835.194
433.937
1429.84
1036.74
1931.79
1885.6
1735.2
1744.18
1431.61
1343.87
1400.74
1250.81
1149.84
1278.18
1172.45
1168.77
1127.17
2219.2
2172.1
1808.16
1825.29
1950.94
2021.55
1993.98
2015.2
1836.8
1943.14
1897.33
1989.92
1844.79
1926.26
2059.62
2002.23
2014.6
2003.2
1825.09
1891.32
1924.82
1976.88
2035.74
2092.32
2054.8
2079.05
1955.27
1831.51
1912.51
2089.78
2042.33
2094.57
2052.94
1843.12
2024.64
2072.57
1991.77
1894.47
1935.05
1895.28
1732.57
1672.19
1948.1
1733.87
1643.11
1640.94
1520.1
1537.04
1530.28
1661.99
1894.13
1780.49
1557.54
1545.09
1644.64
1560.75
1664.57
1854.03
1708.79
1544.6
1467.1
1447.99
1242.36
1279.72
1082.9
1450.91
1243.17
1299.82
1100.92
1384.81
1453.32
1256.34
1095.88
1441.03
1195.53
1256.85
970.424
967.574
804.623
818.068
669.823
681.894
823.423
688.188
651.421
526.227
488.84
481.447
551.766
953.077
842.09
680.755
634.028
538.944
542.027
475.86
909.4
975.349
677.459
2243.03
2124.8
2188.62
2063.08
2114.91
2242
2023.91
2360.77
2124.72
2154.47
2138.73
2246.12
2145.47
2230.23
2365.87
2250.48
2122.49
2206.08
1954.04
2034.75
2159.91
2079.74
1865.47
2013.61
1929.94
2050.79
1999.63
2037.42
2001.27
2094.57
1935.33
1816.94
1877.48
1963.14
2085.06
2023.12
2012.48
1957.49
1616.19
1693.07
1541.07
1740.11
1844.32
1622.66
1693.49
1722.28
1747.38
1756.24
1848.26
1635.67
1365.63
1282.29
1211.59
1319.36
1437.75
1150.64
1175
1271.58
1372.61
1280.33
1189.14
1088.57
546.231
513.696
494.431
800.967
679.891
635.118
534.009
953.382
1000.83
534.527
499.114
804.68
541.819
104.549
108.388
-17.9692
204.911
-30.1218
112.546
229.791
2268.71
2125.42
2307.64
2196.8
2185.89
2096.7
2120.47
2024.97
2220.91
2307.52
2230.51
2128.68
2101.2
2075.55
2149.37
2152.75
2150.74
1954.47
2098.54
1920.94
2073.63
2095.85
2032.18
1799.63
2081.39
1976.78
2028.34
2006.14
1950.48
2007.2
2006.47
1870.77
1927.16
1855.62
1702.5
1868.2
1741.13
1630.76
1590.79
1475.31
1647.59
1874.93
1711.28
1721.98
1399.78
1172.33
1201.97
1346.11
1338.14
1230.57
1311.77
1303.15
1272.89
1189.76
1418.84
1430.38
681.366
638.858
538.922
973.001
850.849
537.11
491.404
811.601
547.261
955.777
527.126
-23.7512
109.417
231.109
2240.04
2036.19
1858.71
2001.02
1852.64
1856.18
1927.07
2085.44
2034.82
2017.06
1867.22
1934.07
1981.69
1956.45
2047.27
2009.99
2031.63
2003.75
1954.32
1829.56
2003.56
1919.9
1896.17
1754.82
1555.7
1684.91
1951.93
1726.75
1637.88
1534.81
1534.12
1656.33
1879.62
1539.09
1649.6
1872.68
1557.14
1232.39
1113.55
1395.6
1448.32
1395.68
1231.97
1308.51
1426.77
1199.65
1438.3
1200.05
664.609
972.408
530.617
496.184
561.137
958.826
1065.37
821.93
535.132
557.614
797.98
963.664
)
;
    }
}


// ************************************************************************* //
