/*--------------------------------*- C++ -*----------------------------------*\
| =========                 |                                                 |
| \\      /  F ield         | OpenFOAM: The Open Source CFD Toolbox           |
|  \\    /   O peration     | Version:  v1906                                 |
|   \\  /    A nd           | Web:      www.OpenFOAM.com                      |
|    \\/     M anipulation  |                                                 |
\*---------------------------------------------------------------------------*/
FoamFile
{
    version     2.0;
    format      ascii;
    class       volScalarField;
    location    "1/oil";
    object      heatTransferCoeff(T);
}
// * * * * * * * * * * * * * * * * * * * * * * * * * * * * * * * * * * * * * //

dimensions      [1 0 -3 -1 0 0 0];


internalField   uniform 0;

boundaryField
{
    maxY
    {
        type            calculated;
        value           uniform 0;
    }
    minX
    {
        type            calculated;
        value           uniform 0;
    }
    maxX
    {
        type            calculated;
        value           uniform 0;
    }
    minY
    {
        type            calculated;
        value           uniform 0;
    }
    minZ
    {
        type            calculated;
        value           uniform 0;
    }
    maxZ
    {
        type            calculated;
        value           uniform 0;
    }
    oil_to_sphere
    {
        type            calculated;
        value           nonuniform List<scalar> 
360
(
-67.2109
-67.5882
-45.8895
-117.013
-124.654
-53.2506
-127.93
-115.452
-124.284
-66.4627
-66.8183
-53.2718
-58.9962
-41.2898
-65.0619
-110.341
-126.363
-117.088
-122.486
-41.2641
-102.16
-66.4901
-58.5121
-121.029
-45.9894
-125.445
-53.1571
-123.505
-122.58
-115.912
-131.704
-128.617
-46.0578
-45.5455
-52.7638
-52.9792
-121.382
-120.499
-117.248
-119.11
-122.395
-46.0228
-52.6656
-68.9369
-69.0967
-53.0337
-58.7371
-40.9212
-66.2626
-115.003
-53.4014
-53.1922
-58.481
-58.7378
-40.9582
-66.8076
-117.408
-41.2813
-52.9052
-58.682
-41.3725
-123.375
-117.17
-122.291
-40.9376
-106.249
-66.8442
-56.6337
-128.228
-121.868
-117.429
-120.384
-120.041
-40.8673
-91.0746
-64.8218
-41.4286
-56.1265
-120.936
-124.014
-57.5114
-56.4085
-56.6634
-41.3573
-45.7097
-52.8402
-53.0928
-58.8601
-41.1725
-41.5897
-45.8564
-58.7847
-53.1061
-45.8248
-58.5276
-52.9676
-53.0263
-53.0678
-45.7529
-41.6182
-41.6377
-41.0477
-53.2782
-53.3787
-58.9171
-41.0472
-41.4604
-59.107
-45.8607
-53.1683
-53.2247
-53.1084
-45.7989
-41.084
-41.7791
-41.7253
-57.8577
-57.6484
-57.4722
-68.463
-68.5764
-113
-120.383
-108.794
-121.299
-113.128
-121.483
-123.054
-114.454
-119.602
-117.583
-57.4415
-57.1692
-57.2371
-41.6914
-112.385
-122.372
-67.1817
-67.3417
-123.493
-114.102
-65.6688
-64.6919
-125.144
-114.793
-132.288
-41.6569
-41.6232
-120.598
-123.553
-131.817
-125.223
-125.264
-130.627
-131.734
-114.784
-64.5685
-124.549
-118.212
-41.2965
-123.249
-126.402
-56.2947
-55.5395
-57.6247
-65.8664
-66.6338
-125.544
-115.507
-130.609
-40.9539
-117.241
-66.9035
-124.029
-118.461
-40.9846
-127.852
-57.1624
-56.9391
-41.5365
-53.081
-53.2691
-58.9682
-45.8667
-58.6862
-53.0624
-41.0342
-41.5626
-122.665
-115.017
-123.337
-118.628
-68.4853
-68.5336
-120.701
-110.407
-118.701
-67.1901
-67.5965
-41.5553
-52.906
-53.5083
-58.9413
-53.2041
-52.9416
-59.1118
-45.8499
-58.6474
-52.8089
-45.487
-114.271
-59.0479
-52.878
-41.3484
-120.565
-114.17
-120.553
-68.3434
-68.3451
-40.9758
-52.9498
-53.0589
-58.6524
-123.648
-45.6169
-58.3856
-52.8714
-116.209
-117.402
-67.9203
-41.1584
-67.3953
-41.2405
-41.7733
-58.644
-45.8771
-53.1087
-52.9811
-53.2783
-45.7478
-41.2376
-117.101
-110.244
-123.294
-129.251
-116.089
-109.761
-125.345
-126.901
-67.0695
-118.665
-41.6744
-125.129
-123.348
-123.952
-58.4345
-45.9259
-53.2352
-58.6992
-46.1807
-123.93
-52.9164
-52.747
-53.211
-45.7277
-125.304
-115.538
-52.8327
-52.8811
-45.7396
-115.997
-130.511
-66.5822
-118.363
-41.3677
-122.962
-121.254
-124.364
-58.969
-45.7707
-122.488
-52.8138
-52.9338
-52.7456
-121.566
-45.9632
-119.722
-67.5978
-110.48
-67.9315
-116.65
-118.657
-121.115
-41.0321
-55.8718
-54.9327
-55.481
-68.9647
-121.178
-68.7776
-117.35
-120.84
-41.4138
-122.715
-124.224
-66.7154
-119.029
-41.5624
-130.898
-56.7098
-56.4224
-40.665
-117.609
-67.328
-104.561
-118.046
-67.265
-41.0967
-52.8338
-52.9897
-58.8944
-121.725
-112.863
-66.1146
-41.6451
-113.675
-67.15
-41.2975
-114.545
-123.437
-65.6716
-119.131
-40.5984
-128.675
-59.18
-126.916
-45.752
-53.1377
-127.132
-119.308
-116.641
-66.2946
-123.817
-122.73
-66.8207
-117.436
-55.7916
-57.3112
-115.928
-67.0514
-41.1122
-115.376
-67.2074
-41.4846
-119.622
-120
-113.779
-67.5377
-117.293
-67.6963
)
;
    }
}


// ************************************************************************* //
