/*--------------------------------*- C++ -*----------------------------------*\
| =========                 |                                                 |
| \\      /  F ield         | OpenFOAM: The Open Source CFD Toolbox           |
|  \\    /   O peration     | Version:  v1906                                 |
|   \\  /    A nd           | Web:      www.OpenFOAM.com                      |
|    \\/     M anipulation  |                                                 |
\*---------------------------------------------------------------------------*/
FoamFile
{
    version     2.0;
    format      ascii;
    class       volScalarField;
    location    "45.2/sphere";
    object      T;
}
// * * * * * * * * * * * * * * * * * * * * * * * * * * * * * * * * * * * * * //

dimensions      [0 0 0 1 0 0 0];


internalField   nonuniform List<scalar> 
304
(
475.108
475.136
475.133
475.15
475.108
475.104
475.106
475.136
475.106
475.255
475.255
475.15
475.133
475.253
475.253
475.179
475.146
475.177
475.105
475.134
475.151
475.106
475.137
475.255
475.254
475.18
475.151
475.253
475.253
475.205
475.102
475.177
475.204
475.139
475.107
475.152
475.18
475.112
475.111
475.179
475.205
475.14
475.105
475.139
475.092
475.095
475.108
475.108
475.11
475.143
475.108
475.108
475.143
475.11
475.095
475.109
475.112
475.11
475.144
475.136
475.136
475.151
475.151
475.181
475.18
475.206
475.107
475.151
475.137
475.181
475.151
475.206
475.181
475.109
475.112
475.144
475.11
475.105
475.105
475.139
475.103
475.149
475.099
475.132
475.177
475.205
475.144
475.176
475.135
475.133
475.102
475.205
475.179
475.178
475.146
475.141
475.107
475.104
475.09
475.103
475.104
475.138
475.103
475.138
475.105
475.103
475.089
475.109
475.106
475.107
475.142
475.136
475.149
475.181
475.135
475.151
475.18
475.206
475.107
475.181
475.15
475.151
475.135
475.206
475.18
475.109
475.107
475.142
475.108
475.15
475.136
475.18
475.136
475.181
475.151
475.206
475.106
475.18
475.137
475.18
475.136
475.206
475.151
475.178
475.101
475.145
475.15
475.205
475.132
475.177
475.135
475.146
475.102
475.205
475.15
475.178
475.133
475.106
475.103
475.139
475.104
475.177
475.104
475.133
475.177
475.204
475.133
475.149
475.146
475.133
475.103
475.204
475.177
475.15
475.133
475.138
475.102
475.103
475.106
475.108
475.142
475.112
475.151
475.18
475.206
475.105
475.135
475.15
475.18
475.134
475.206
475.179
475.135
475.103
475.179
475.147
475.141
475.107
475.108
475.181
475.152
475.206
475.11
475.153
475.138
475.182
475.136
475.206
475.151
475.15
475.108
475.18
475.137
475.205
475.133
475.177
475.137
475.18
475.103
475.147
475.15
475.178
475.133
475.178
475.135
475.146
475.102
475.138
475.103
475.106
475.204
475.133
475.15
475.146
475.178
475.104
475.134
475.178
475.15
475.134
475.178
475.148
475.134
475.106
475.104
475.104
475.107
475.098
475.106
475.111
475.142
475.107
475.141
475.108
475.106
475.094
475.115
475.111
475.145
475.111
475.181
475.181
475.206
475.11
475.137
475.138
475.151
475.15
475.206
475.18
475.135
475.106
475.151
475.136
475.143
475.109
475.108
475.143
475.107
475.107
475.205
475.146
475.177
475.135
475.15
475.101
475.133
475.178
475.178
475.146
475.15
475.134
475.133
475.102
475.106
475.105
475.105
475.092
475.139
475.104
475.103
475.107
475.105
475.103
)
;

boundaryField
{
    sphere_to_oil
    {
        type            compressible::turbulentTemperatureCoupledBaffleMixed;
        refValue        nonuniform List<scalar> 
360
(
339.864
339.864
320.299
362.266
370.932
322.405
372.046
372.046
372.046
346.673
346.673
324.525
327.79
317.344
344.696
361.265
357.418
357.418
357.418
319.628
355.956
333.181
334.871
365.149
315.978
365.568
320.732
365.353
365.353
365.353
372.83
364.294
320.311
319.979
324.29
324.45
358.398
358.398
358.398
357.65
365.878
324.835
324.391
340.122
340.122
320.586
326.864
313.435
338.275
365.962
322.417
322.438
327.326
327.739
319.42
333.11
358.269
319.719
324.472
328.686
317.349
366.662
366.662
366.662
313.461
365.181
338.203
326.269
370.666
370.666
370.666
371.428
369.858
316.651
355.886
344.009
318.15
333.703
365.825
358.491
335.833
325.73
335.278
317.239
320.27
322.154
324.657
327.615
317.798
319.809
320.351
327.17
324.326
320.61
326.956
324.35
324.696
324.716
321.105
315.32
315.399
318.744
322.382
324.356
327.167
318.578
317.329
327.779
320.988
324.795
324.75
324.654
321.121
319.54
313.739
313.691
330.232
326.231
331.628
339.585
339.585
362.266
362.266
365.149
365.149
363.134
363.134
363.134
364.628
364.628
364.628
330.857
326.408
330.219
319.586
370.932
370.932
343.056
343.056
372.83
372.83
341.571
341.571
372.008
372.008
372.008
319.434
318.69
361.74
361.74
361.74
361.649
361.649
361.649
361.265
355.956
344.696
361.265
360.272
318.476
360.272
360.272
334.919
335.641
325.904
333.045
333.045
367.393
367.393
367.393
317.424
355.956
333.181
366.348
366.348
317.32
366.348
335.535
325.816
313.515
320.692
320.982
327.317
315.872
326.889
320.956
313.537
315.245
365.568
365.568
364.294
364.294
340.271
340.271
362.354
362.354
362.354
338.28
338.28
315.197
323.958
322.61
327.354
324.126
322.19
327.303
320.89
327.839
324.784
320.882
357.65
327.816
324.986
319.694
366.78
366.78
366.78
334.056
334.056
317.25
324.558
324.486
328.578
365.878
324.739
328.441
324.65
357.65
365.878
333.982
319.666
333.982
317.648
313.701
326.796
315.944
320.882
320.766
321.019
315.756
314.919
366.624
361.099
366.624
366.624
361.099
361.099
365.962
365.181
338.275
363.825
315.26
365.962
363.825
363.825
326.756
319.902
324.249
327.112
320.564
371.428
324.127
324.649
324.744
321.097
358.269
355.886
324.815
324.561
321.041
357.759
360.496
333.11
366.293
317.526
358.269
366.293
366.293
329.053
324.736
365.825
324.542
324.428
324.348
366.135
324.454
365.849
333.964
357.759
333.964
366.135
357.759
366.135
313.405
326.245
329.606
329.894
338.882
362.405
338.882
362.405
362.405
315.2
365.181
363.498
338.203
363.498
315.191
363.498
330.965
330.534
318.172
369.505
342.232
369.505
369.505
342.232
318.538
322.15
324.112
327.152
369.858
371.428
341.89
319.259
369.858
341.89
318.624
355.886
361.376
344.009
361.376
317.455
361.376
327.894
358.491
321.178
324.924
360.338
358.095
360.496
343.88
360.496
360.338
343.88
360.338
325.291
335.114
365.825
333.207
317.335
358.491
333.207
319.886
365.849
358.095
365.849
333.885
358.095
333.885
)
;
        refGradient     uniform 0;
        valueFraction   nonuniform List<scalar> 
360
(
0.000134296
0.000128838
8.24837e-05
0.000294665
0.000302206
0.000173289
0.000304084
0.000261016
0.000406281
0.000129357
0.000126121
0.000169196
0.000257861
7.37278e-05
0.000131888
0.000256378
0.000293803
0.000274517
0.000385208
6.74651e-05
0.000252923
0.000124339
0.000114597
0.000304103
8.82924e-05
0.000312582
0.000176197
0.000308545
0.000403791
0.000270109
0.000308595
0.000311254
8.35781e-05
8.26444e-05
0.000173434
0.000170675
0.000288803
0.00039153
0.000268858
0.000404251
0.000399314
8.52647e-05
0.000169124
0.000123433
0.000123285
0.000174099
0.00026047
6.94922e-05
0.000124344
0.000263668
0.000171747
0.000172862
0.000257669
0.000255165
7.20902e-05
0.00013188
0.000268938
6.90605e-05
0.000171085
0.000255125
6.75979e-05
0.000300345
0.000265133
0.000414961
6.96909e-05
0.000271088
0.000126451
0.000122303
0.000307284
0.000400863
0.00026965
0.00038656
0.000391971
7.48619e-05
0.000261353
0.000132585
6.90206e-05
0.000123765
0.000391144
0.000406329
0.000121389
0.000119099
0.000116981
6.95234e-05
8.38377e-05
0.000169971
0.000170923
0.000258845
7.81349e-05
6.59736e-05
8.29722e-05
0.000258423
0.000170599
8.47568e-05
0.000257996
0.000172547
0.000171526
0.000171791
8.37729e-05
6.71486e-05
6.80905e-05
6.71841e-05
0.000172718
0.000169758
0.000258228
7.60255e-05
6.60362e-05
0.00025804
8.19747e-05
0.000170025
0.000170057
0.000173527
8.48525e-05
6.79459e-05
6.62648e-05
6.7545e-05
0.000117572
0.000117713
0.000122286
0.000132601
0.000124627
0.00025751
0.00040566
0.000271305
0.000409391
0.00026242
0.000403452
0.000300393
0.000262633
0.00039467
0.000295839
0.000120669
0.000114115
0.000116883
6.45235e-05
0.000267599
0.000402902
0.000124657
0.000125226
0.000407169
0.000270719
0.000130676
0.000137726
0.000402157
0.000276266
0.00031834
7.1012e-05
6.60844e-05
0.000278929
0.000386526
0.00030638
0.000287193
0.000399909
0.000306348
0.000316296
0.000291347
0.000136284
0.00040622
0.000262394
7.31559e-05
0.000394819
0.000295455
0.000112752
0.00011879
0.000117517
0.000123974
0.000129593
0.000404187
0.000266135
0.000312386
7.4901e-05
0.000388813
0.000133322
0.000408845
0.000261729
7.31621e-05
0.000310332
0.000113753
0.000114809
6.70783e-05
0.000175821
0.000175751
0.000259876
8.66608e-05
0.000260269
0.000171253
6.63896e-05
6.44664e-05
0.000406699
0.000258413
0.000401925
0.000267968
0.00012782
0.000119536
0.0004038
0.000252371
0.000291716
0.000118156
0.000137098
6.8973e-05
0.00017273
0.000172574
0.000257839
0.000168825
0.000169694
0.000256823
8.80269e-05
0.000257704
0.000174733
8.56037e-05
0.000290063
0.000257419
0.000173687
6.9219e-05
0.000394978
0.000256058
0.000299589
0.000124813
0.000115989
6.69983e-05
0.000171387
0.00017427
0.000258388
0.000293773
8.21628e-05
0.000255936
0.000167153
0.000254244
0.000269154
0.000122178
6.86255e-05
0.000135576
6.94739e-05
6.53963e-05
0.000261273
8.71921e-05
0.000175649
0.000173618
0.000171549
8.60961e-05
6.57654e-05
0.000267138
0.000250314
0.000420221
0.000312793
0.000392043
0.000281683
0.000301914
0.000309118
0.000137402
0.000265184
7.14467e-05
0.000403544
0.000392387
0.000298131
0.00026003
8.28551e-05
0.000169196
0.000257041
8.35972e-05
0.000306281
0.000169929
0.000171144
0.000169567
8.30911e-05
0.000303998
0.000284873
0.000173001
0.000168528
8.4691e-05
0.000285434
0.000314187
0.000124602
0.000282038
6.69833e-05
0.000401819
0.000389563
0.000294358
0.000255134
8.38132e-05
0.000294821
0.000169762
0.000170024
0.000170991
0.000296426
8.45985e-05
0.00030286
0.000127437
0.000261123
0.0001285
0.000266092
0.000405505
0.000398089
6.69516e-05
0.000134165
0.00013258
0.000129675
0.000118093
0.000395095
0.00012898
0.000262663
0.000309299
6.59758e-05
0.000398951
0.00039847
0.000130444
0.000283322
6.91401e-05
0.000303742
0.000115647
0.00011361
6.90829e-05
0.000390752
0.000116781
0.00025626
0.000301808
0.0001252
6.82516e-05
0.000169827
0.000169769
0.000256177
0.000293129
0.000254248
0.000122925
6.61681e-05
0.000258507
0.000136527
7.64195e-05
0.000374617
0.000402263
0.000118887
0.000255529
7.08451e-05
0.000321367
0.00025814
0.000309285
8.46082e-05
0.000170558
0.00029819
0.000289089
0.00027197
0.000121563
0.000398393
0.000397536
0.000144304
0.00026573
0.000116915
0.000118708
0.000267518
0.000132427
7.15999e-05
0.000270561
0.000127516
6.61217e-05
0.000393782
0.00039851
0.000262206
0.000127249
0.00025756
0.000131446
)
;
        value           nonuniform List<scalar> 
360
(
475.109
475.11
475.115
475.094
475.096
475.129
475.096
475.102
475.09
475.108
475.109
475.128
475.131
475.116
475.111
475.099
475.084
475.09
475.078
475.113
475.094
475.106
475.093
475.092
475.111
475.091
475.128
475.092
475.085
475.097
475.094
475.091
475.113
475.113
475.127
475.129
475.087
475.08
475.091
475.077
475.081
475.11
475.127
475.109
475.111
475.127
475.132
475.114
475.108
475.097
475.13
475.129
475.132
475.132
475.11
475.103
475.09
475.113
475.127
475.132
475.113
475.092
475.097
475.085
475.115
475.097
475.109
475.095
475.097
475.093
475.102
475.092
475.091
475.119
475.1
475.113
475.114
475.094
475.082
475.078
475.095
475.094
475.095
475.113
475.117
475.129
475.129
475.131
475.112
475.113
475.114
475.133
475.131
475.112
475.132
475.129
475.128
475.127
475.109
475.117
475.117
475.118
475.13
475.13
475.132
475.117
475.114
475.131
475.106
475.126
475.129
475.126
475.109
475.112
475.117
475.117
475.098
475.097
475.097
475.11
475.111
475.099
475.084
475.098
475.085
475.098
475.085
475.093
475.098
475.086
475.094
475.097
475.098
475.098
475.119
475.101
475.09
475.112
475.113
475.09
475.101
475.111
475.111
475.09
475.101
475.093
475.118
475.114
475.093
475.079
475.084
475.092
475.078
475.086
475.086
475.087
475.109
475.078
475.096
475.115
475.078
475.088
475.094
475.093
475.092
475.105
475.105
475.08
475.094
475.09
475.111
475.078
475.104
475.08
475.094
475.111
475.089
475.093
475.092
475.115
475.128
475.127
475.132
475.112
475.132
475.129
475.116
475.116
475.084
475.097
475.084
475.097
475.108
475.11
475.084
475.099
475.093
475.11
475.109
475.116
475.13
475.129
475.133
475.131
475.13
475.133
475.107
475.132
475.126
475.108
475.088
475.132
475.126
475.112
475.083
475.095
475.091
475.105
475.107
475.113
475.127
475.126
475.131
475.09
475.11
475.132
475.128
475.092
475.093
475.105
475.111
475.103
475.111
475.115
475.131
475.111
475.127
475.127
475.128
475.109
475.117
475.096
475.099
475.086
475.091
475.087
475.097
475.09
475.089
475.108
475.097
475.115
475.083
475.083
475.094
475.133
475.116
475.132
475.133
475.114
475.096
475.13
475.127
475.131
475.11
475.088
475.089
475.127
475.129
475.109
475.088
475.086
475.105
475.092
475.112
475.079
475.083
475.091
475.132
475.111
475.091
475.128
475.128
475.128
475.094
475.113
475.093
475.105
475.093
475.105
475.095
475.079
475.083
475.114
475.098
475.099
475.099
475.109
475.086
475.109
475.097
475.095
475.116
475.084
475.083
475.108
475.094
475.115
475.091
475.097
475.097
475.119
475.093
475.115
475.103
475.098
475.114
475.12
475.13
475.132
475.133
475.094
475.103
475.113
475.119
475.1
475.109
475.115
475.082
475.081
475.111
475.098
475.116
475.084
475.132
475.085
475.108
475.127
475.087
475.088
475.094
475.109
475.079
475.079
475.105
475.094
475.094
475.095
475.095
475.105
475.113
475.091
475.105
475.113
475.083
475.08
475.096
475.106
475.093
475.104
)
;
        Tnbr            T;
        thicknessLayers 0();
        kappaLayers     0();
        kappaMethod     solidThermo;
        kappa           none;
        alphaAni        none;
    }
}


// ************************************************************************* //
