/*--------------------------------*- C++ -*----------------------------------*\
| =========                 |                                                 |
| \\      /  F ield         | OpenFOAM: The Open Source CFD Toolbox           |
|  \\    /   O peration     | Version:  v1912                                 |
|   \\  /    A nd           | Website:  www.openfoam.com                      |
|    \\/     M anipulation  |                                                 |
\*---------------------------------------------------------------------------*/
FoamFile
{
    version     2.0;
    format      ascii;
    class       volScalarField;
    location    "90/sphere";
    object      T;
}
// * * * * * * * * * * * * * * * * * * * * * * * * * * * * * * * * * * * * * //

dimensions      [0 0 0 1 0 0 0];


internalField   nonuniform List<scalar> 
304
(
426.124
426.169
426.167
426.193
426.131
426.131
426.122
426.17
426.12
426.318
426.319
426.174
426.166
426.318
426.319
426.222
426.175
426.222
426.118
426.168
426.194
426.129
426.171
426.32
426.319
426.222
426.195
426.32
426.319
426.259
426.128
426.222
426.26
426.173
426.132
426.179
426.222
426.119
426.138
426.224
426.26
426.17
426.12
426.173
426.108
426.103
426.13
426.132
426.118
426.172
426.13
426.131
426.172
426.119
426.104
426.128
426.116
426.128
426.169
426.169
426.168
426.192
426.176
426.222
426.221
426.258
426.122
426.193
426.169
426.222
426.175
426.258
426.222
426.129
426.116
426.17
426.13
426.126
426.126
426.167
426.114
426.192
426.118
426.167
426.219
426.257
426.172
426.22
426.17
426.169
426.123
426.258
426.222
426.222
426.175
426.171
426.129
426.116
426.103
426.129
426.115
426.17
426.128
426.171
426.118
426.128
426.103
426.116
426.128
426.128
426.17
426.17
426.175
426.223
426.168
426.193
426.221
426.259
426.125
426.223
426.177
426.194
426.171
426.259
426.223
426.118
426.131
426.172
426.132
426.174
426.167
426.221
426.169
426.222
426.193
426.258
426.12
426.221
426.17
426.222
426.17
426.259
426.194
426.219
426.12
426.174
426.193
426.258
426.168
426.221
426.169
426.176
426.123
426.259
426.194
426.223
426.169
426.118
426.129
426.171
426.13
426.221
426.122
426.169
426.222
426.259
426.169
426.195
426.176
426.17
426.123
426.26
426.222
426.195
426.17
426.171
426.129
426.129
426.128
426.13
426.171
426.122
426.193
426.222
426.259
426.122
426.169
426.178
426.223
426.169
426.259
426.222
426.17
426.12
426.222
426.174
426.171
426.13
426.116
426.224
426.194
426.259
426.128
426.18
426.173
426.225
426.17
426.259
426.194
426.176
426.125
426.222
426.17
426.26
426.17
426.223
426.174
426.225
426.127
426.179
426.194
426.223
426.17
426.222
426.17
426.177
426.124
426.17
426.13
426.12
426.26
426.17
426.196
426.177
426.224
426.125
426.172
426.224
426.196
426.172
426.224
426.179
426.172
426.129
426.131
426.131
426.121
426.11
426.129
426.12
426.172
426.13
426.171
426.117
426.13
426.104
426.123
426.133
426.174
426.134
426.224
426.225
426.26
426.129
426.172
426.173
426.195
426.176
426.26
426.222
426.17
426.122
426.194
426.169
426.171
426.13
426.129
426.175
426.123
426.131
426.26
426.178
426.223
426.171
426.194
426.123
426.17
426.222
426.223
426.177
426.194
426.169
426.17
426.124
426.129
426.118
426.127
426.109
426.172
426.131
426.132
426.121
426.132
426.131
)
;

boundaryField
{
    sphere_to_oil
    {
        type            compressible::turbulentTemperatureCoupledBaffleMixed;
        refValue        nonuniform List<scalar> 
360
(
301.759
301.759
301.331
302.064
301.995
301.224
302.075
302.075
302.075
302.444
302.444
301.645
301.534
301.109
302.257
301.945
302.175
302.175
302.175
301.568
302.152
302.315
301.626
302.03
301.255
302.155
301.517
302.076
302.076
302.076
302.099
302.17
301.364
301.391
301.681
301.711
302.27
302.27
302.27
302.229
302.584
302.11
302.284
301.676
301.676
301.529
302.851
301.548
304.358
302.604
301.182
301.517
301.497
301.697
301.561
302.421
302.191
301.687
302.725
304.282
301.953
302.208
302.208
302.208
301.583
302.652
306.136
301.519
302.122
302.122
302.122
302.168
302.194
301.112
301.898
302.484
301.352
301.602
302.538
302.226
301.749
301.57
301.754
301.928
301.372
301.528
301.685
301.673
301.358
301.646
301.453
301.44
301.657
301.623
301.641
301.81
301.917
301.669
301.97
300.864
300.946
301.086
301.166
301.546
301.39
301.087
301.116
301.512
301.705
301.562
301.732
301.571
301.766
301.561
300.907
301.025
301.07
301.539
301.144
301.773
301.773
302.064
302.064
302.03
302.03
302.282
302.282
302.282
302.148
302.148
302.148
301.14
301.463
301.087
301.213
301.995
301.995
301.907
301.907
302.099
302.099
301.786
301.786
302.014
302.014
302.014
301.161
301.302
301.976
301.976
301.976
302.101
302.101
302.101
301.945
302.152
302.257
301.945
301.978
301.252
301.978
301.978
301.649
301.776
301.566
302.286
302.286
302.584
302.584
302.584
301.838
302.152
302.315
302.558
302.558
301.826
302.558
301.703
301.523
301.085
301.476
301.651
301.858
301.352
302.022
302.122
301.147
300.87
302.155
302.155
302.17
302.17
301.503
301.503
302.084
302.084
302.084
304.71
304.71
301.056
301.572
301.179
301.416
301.596
301.271
301.445
301.738
301.512
301.562
301.773
302.229
301.528
301.561
301.573
302.652
302.652
302.652
302.478
302.478
301.915
302.32
302.49
304.777
302.584
302.078
304.966
302.389
302.229
302.584
302.395
301.551
302.395
301.914
301.015
302.068
301.363
302.324
303.046
303.29
302.308
300.854
302.174
302.108
302.174
302.174
302.108
302.108
302.604
302.652
304.358
302.364
301.357
302.604
302.364
302.364
301.383
301.342
301.559
301.652
301.584
302.168
301.768
301.557
301.65
301.696
302.191
301.898
301.709
301.873
301.934
302.329
302.008
302.421
302.546
301.862
302.191
302.546
302.546
306.579
302.046
302.538
302.617
302.34
302.385
302.639
302.145
302.667
302.438
302.329
302.438
302.639
302.329
302.639
301.154
301.414
301.153
301.19
304.078
302.079
304.078
302.079
302.079
300.891
302.652
302.402
306.136
302.402
301.412
302.402
301.27
301.374
301.135
302.148
301.961
302.148
302.148
301.961
301.245
301.141
301.568
301.364
302.194
302.168
301.779
301.303
302.194
301.779
301.294
301.898
302.049
302.484
302.049
301.254
302.049
301.468
302.226
301.764
301.533
302.028
302.349
302.008
302.191
302.008
302.028
302.191
302.028
301.5
301.708
302.538
302.206
301.84
302.226
302.206
301.545
302.667
302.349
302.667
302.307
302.349
302.307
)
;
        refGradient     uniform 0;
        valueFraction   nonuniform List<scalar> 
360
(
0.000176606
0.000169429
0.000108473
0.000387482
0.000397398
0.000227882
0.000399868
0.000343238
0.000534247
0.000170111
0.000165856
0.000222498
0.000339085
9.69576e-05
0.000173439
0.000337136
0.000386342
0.000360981
0.000506525
8.87212e-05
0.000332588
0.00016351
0.0001507
0.000399889
0.000116111
0.000411038
0.000231705
0.00040573
0.000530966
0.00035519
0.000405801
0.000409293
0.000109912
0.000108684
0.000228071
0.000224444
0.000379769
0.000514838
0.000353541
0.000531562
0.000525074
0.000112129
0.000222403
0.000162321
0.000162127
0.000228946
0.000342515
9.13873e-05
0.000163518
0.00034672
0.000225853
0.00022732
0.000338832
0.00033554
9.48031e-05
0.000173426
0.000353646
9.0819e-05
0.000224982
0.000335486
8.88957e-05
0.000394949
0.000348647
0.000545652
9.16485e-05
0.000356477
0.000166288
0.000160835
0.000404075
0.000527122
0.000354589
0.000508316
0.000515431
9.84488e-05
0.000343676
0.000174355
9.07672e-05
0.000162756
0.000514332
0.000534294
0.000159632
0.000156621
0.000153835
9.14277e-05
0.000110253
0.000223518
0.000224769
0.000340378
0.000102753
8.67595e-05
0.000109115
0.000339825
0.000224345
0.000111462
0.000339263
0.000226906
0.000225562
0.000225909
0.000110167
8.83057e-05
8.95444e-05
8.83529e-05
0.00022713
0.000223238
0.000339568
9.99796e-05
8.68428e-05
0.000339321
0.000107802
0.000223588
0.000223632
0.000228192
0.000111586
8.93534e-05
8.71433e-05
8.88268e-05
0.000154614
0.000154799
0.000160813
0.000174377
0.000163891
0.000338625
0.000533423
0.000356763
0.000538329
0.000345082
0.000530519
0.000395013
0.00034536
0.000518974
0.000389024
0.000158686
0.000150068
0.000153708
8.4854e-05
0.000351894
0.000529805
0.000163931
0.00016468
0.000535415
0.000355996
0.000171846
0.000181117
0.000528825
0.000363289
0.000418612
9.33866e-05
8.69061e-05
0.000366788
0.000508261
0.00040288
0.000377653
0.000525856
0.000402838
0.000415917
0.000383113
0.00017922
0.000534153
0.000345046
9.62055e-05
0.000519163
0.000388515
0.000148275
0.000156214
0.00015454
0.000163031
0.00017042
0.000531483
0.000349963
0.00041078
9.84996e-05
0.000511264
0.000175323
0.000537606
0.00034417
9.62128e-05
0.000408078
0.000149591
0.000150978
8.82131e-05
0.00023121
0.000231118
0.000341735
0.000113965
0.000342251
0.000225203
8.73072e-05
8.47785e-05
0.000534791
0.000339812
0.000528513
0.000352376
0.00016809
0.000157196
0.000530976
0.000331866
0.000383604
0.000155382
0.00018029
9.07047e-05
0.000227147
0.000226941
0.000339057
0.000222012
0.000223154
0.000337721
0.000115761
0.000338879
0.000229779
0.000112574
0.000381424
0.000338504
0.000228403
9.10274e-05
0.000519375
0.000336713
0.000393953
0.000164133
0.00015253
8.81073e-05
0.000225379
0.000229169
0.000339777
0.000386306
0.00010805
0.000336553
0.000219811
0.000334326
0.000353932
0.000160669
9.02469e-05
0.000178286
9.13627e-05
8.60012e-05
0.000343571
0.000114664
0.000230984
0.000228313
0.000225592
0.000113222
8.64867e-05
0.000351284
0.000329163
0.000552569
0.000411315
0.000515519
0.000370411
0.000397011
0.000406483
0.000180689
0.000348715
9.39577e-05
0.00053064
0.00051597
0.000392037
0.000341938
0.000108961
0.000222499
0.000338007
0.000109937
0.000402756
0.000223463
0.000225059
0.000222986
0.00010927
0.000399746
0.0003746
0.0002275
0.00022162
0.000111374
0.000375337
0.000413143
0.000163856
0.000370873
8.80875e-05
0.000528364
0.000512255
0.000387074
0.000335498
0.00011022
0.000387683
0.000223242
0.000223586
0.000224858
0.000389794
0.000111253
0.000398253
0.000167584
0.000343371
0.000168983
0.000349906
0.000533211
0.000523465
8.80463e-05
0.000176433
0.000174349
0.000170529
0.000155298
0.000519531
0.000169615
0.000345399
0.000406722
8.67632e-05
0.000524602
0.000523968
0.00017154
0.000372562
9.09242e-05
0.000399415
0.000152082
0.000149404
9.08495e-05
0.000513828
0.000153574
0.000336983
0.000396874
0.000164645
8.97563e-05
0.000223329
0.000223253
0.000336871
0.000385462
0.000334338
0.000161653
8.70166e-05
0.000339937
0.00017954
0.000100497
0.0004926
0.00052895
0.000156343
0.000336019
9.31664e-05
0.000422583
0.000339452
0.000406698
0.000111265
0.000224288
0.00039211
0.000380144
0.000357636
0.000159861
0.000523861
0.000522734
0.000189766
0.000349431
0.000153748
0.000156107
0.000351782
0.000174146
9.41584e-05
0.000355779
0.000167687
8.69543e-05
0.000517801
0.000524014
0.000344797
0.000167337
0.000338686
0.000172855
)
;
        value           nonuniform List<scalar> 
360
(
426.131
426.133
426.133
426.099
426.098
426.164
426.096
426.109
426.073
426.128
426.128
426.162
426.174
426.142
426.133
426.112
426.094
426.107
426.076
426.144
426.114
426.135
426.108
426.096
426.131
426.095
426.164
426.098
426.076
426.11
426.093
426.092
426.129
426.13
426.161
426.165
426.096
426.078
426.109
426.076
426.077
426.132
426.165
426.131
426.134
426.163
426.175
426.141
426.133
426.11
426.166
426.165
426.176
426.176
426.14
426.13
426.108
426.143
426.166
426.179
426.143
426.097
426.109
426.076
426.144
426.111
426.135
426.107
426.102
426.081
426.113
426.079
426.078
426.149
426.118
426.14
426.141
426.112
426.08
426.077
426.111
426.111
426.112
426.144
426.139
426.165
426.166
426.175
426.138
426.144
426.132
426.174
426.164
426.131
426.176
426.164
426.164
426.166
426.134
426.142
426.142
426.141
426.164
426.164
426.173
426.139
426.138
426.173
426.128
426.163
426.165
426.164
426.132
426.141
426.144
426.143
426.107
426.107
426.107
426.132
426.135
426.111
426.075
426.111
426.075
426.11
426.077
426.097
426.111
426.078
426.101
426.108
426.109
426.108
426.141
426.108
426.074
426.131
426.131
426.073
426.108
426.131
426.131
426.074
426.108
426.092
426.142
426.138
426.103
426.074
426.092
426.102
426.072
426.093
426.095
426.099
426.13
426.073
426.109
426.14
426.075
426.098
426.108
426.107
426.107
426.132
426.131
426.073
426.109
426.095
426.14
426.078
426.13
426.075
426.109
426.14
426.095
426.108
426.108
426.14
426.164
426.162
426.174
426.135
426.175
426.166
426.144
426.141
426.073
426.109
426.074
426.108
426.13
426.132
426.076
426.114
426.096
426.136
426.134
426.144
426.162
426.164
426.174
426.165
426.166
426.175
426.129
426.174
426.163
426.132
426.099
426.175
426.164
426.141
426.078
426.111
426.097
426.132
426.134
426.142
426.165
426.164
426.177
426.098
426.133
426.178
426.166
426.111
426.109
426.132
426.141
426.13
426.141
426.14
426.174
426.132
426.164
426.164
426.166
426.13
426.143
426.108
426.113
426.077
426.095
426.081
426.106
426.095
426.094
426.131
426.11
426.142
426.074
426.076
426.1
426.175
426.138
426.168
426.176
426.135
426.098
426.166
426.165
426.17
426.137
426.101
426.104
426.165
426.166
426.133
426.101
426.096
426.133
426.107
426.142
426.078
426.08
426.1
426.179
426.134
426.1
426.167
426.168
426.168
426.104
426.138
426.103
426.134
426.112
426.133
426.111
426.079
426.08
426.141
426.111
426.111
426.112
426.134
426.079
426.133
426.111
426.102
426.143
426.076
426.076
426.133
426.107
426.142
426.096
426.108
426.108
426.145
426.082
426.137
426.116
426.103
426.137
426.146
426.167
426.168
426.176
426.098
426.112
426.134
426.143
426.11
426.13
426.139
426.085
426.08
426.135
426.113
426.143
426.094
426.176
426.096
426.133
426.166
426.099
426.1
426.108
426.132
426.076
426.077
426.127
426.107
426.113
426.113
426.111
426.133
426.143
426.111
426.134
426.144
426.081
426.08
426.113
426.135
426.112
426.133
)
;
        Tnbr            T;
        thicknessLayers 0();
        kappaLayers     0();
        kappaMethod     solidThermo;
        kappa           none;
        alphaAni        none;
        alpha           none;
    }
}


// ************************************************************************* //
