/*--------------------------------*- C++ -*----------------------------------*\
| =========                 |                                                 |
| \\      /  F ield         | OpenFOAM: The Open Source CFD Toolbox           |
|  \\    /   O peration     | Version:  v1912                                 |
|   \\  /    A nd           | Website:  www.openfoam.com                      |
|    \\/     M anipulation  |                                                 |
\*---------------------------------------------------------------------------*/
FoamFile
{
    version     2.0;
    format      ascii;
    class       volScalarField;
    location    "32/oil";
    object      wallHeatFlux;
}
// * * * * * * * * * * * * * * * * * * * * * * * * * * * * * * * * * * * * * //

dimensions      [1 0 -3 0 0 0 0];


internalField   uniform 0;

boundaryField
{
    maxY
    {
        type            calculated;
        value           uniform 0;
    }
    minX
    {
        type            calculated;
        value           uniform 0;
    }
    maxX
    {
        type            calculated;
        value           uniform 0;
    }
    minY
    {
        type            calculated;
        value           uniform 0;
    }
    minZ
    {
        type            calculated;
        value           uniform 0;
    }
    maxZ
    {
        type            calculated;
        value           uniform 0;
    }
    oil_to_sphere
    {
        type            calculated;
        value           nonuniform List<scalar> 
1536
(
21012.9
20864
20891
20548.8
20483.2
20828
20726.3
20733.1
20713.7
20544.1
20457.1
20552
20702.9
20591.5
20363.6
20686.7
20839.1
20899
20672.6
20700.8
20784.8
20704.8
20733.1
20686.3
20709.5
20694.7
20688
20662.8
20851.5
20738.9
20896.7
20856.4
20873.4
20667.8
20685
20648.6
20648.6
20596.1
20644
20675
20630.2
20664.9
20710.3
20765.8
20811.6
20673.6
20873.4
20813.7
20342.8
20708.4
20772.3
20723.3
20803.9
20666.9
20843.4
20967.8
20718
20703.6
20796.3
20753.2
20719
20696.7
20725.9
20667.5
20697.7
20706.5
20697.2
20786.4
20763.9
20822.7
20666.9
20583.3
20599
20697.4
20683.8
20970.9
20867.4
20656.8
20688.5
20908.1
20785.9
20786.8
20503.3
20489.5
20849.1
21003.3
20527.1
20683.8
20765.1
20757.5
20756.8
20650.7
20659.4
20661
20692.5
20757.3
20829.5
20827.7
20868.8
20753.2
20793.9
20660.5
21038.1
20786.9
20597.3
20689.2
20687.7
20570.9
20589.8
21064.5
20860.8
20753.1
20698.5
20753
20492.9
20553.9
20481.5
20938.4
21018.7
20888.8
20725.6
20749.8
20642.6
20819.1
20881
20826.5
20703.6
20627.3
20827.8
20764.4
20713.6
20761.3
20835.4
20670.6
20697
20817.3
20748.7
20916.2
20635.9
20838.7
20706.4
20770.7
20768.8
20709.8
20683.5
20708.7
20710.6
21162
20958.9
21042.1
20798.7
21087.6
20712.8
20730.8
20634
20930.9
20786.5
20997.6
21123.8
21155.6
20858.2
21209.3
20515.5
20549.1
20654.2
20633.7
20787
21033.2
20821.1
21099.8
20692.6
20707.3
20677.8
20856.8
20846.5
20818.3
20989.1
20898.6
21027.1
20984.9
20586.6
20533.4
20546
20552.1
20993.8
21014
21164.8
20679.7
20655.8
20900.3
20678.8
20869.9
20837.5
20913.9
20555.7
20391.4
20923.1
20928.7
20848.3
20657.5
20739.2
20708.7
20923.6
20928
20820.2
20795.2
20764.5
20982.4
20897
20985.2
20614.1
20692.4
20687.1
20820.8
20873.7
21017.2
20912.7
20583.5
20577.1
20400.8
20879.5
20841.1
20778.6
20757.3
20777.9
21021.3
20881.8
20816.2
20890.9
20579.1
20662.6
20428.9
20681.7
20976.8
20924.1
20938
20850.1
20808
20868.3
20567.4
20582.4
20920.9
20914.6
20641.2
20504.6
20462.6
20819.4
20995.6
21078.2
21308.7
20765.4
20522.6
20381.1
20754
21094.8
20657.2
20662.6
20449.9
20650.1
21012
21052.8
20814.5
20683.6
20919.2
21220.2
20678.7
20483.8
20830.5
21021.2
20971.4
20809.5
20846.7
20910.7
20574.2
20662.2
20931.1
20847.1
21048.3
20730.8
20910.1
21019.9
20856.7
20837.3
20937.5
20707.4
20683.9
20745.8
20604.2
20649.7
20924.2
21000
20961.4
20703.5
20699.5
20735.4
20683.6
20809.4
20757.1
20625.6
20474.9
20637.7
20550.7
20620.5
21025.7
20946.2
20959.3
21360.7
20528.7
20542.1
20935.8
21026.4
21257.6
20694.2
20754.2
20676.7
20843.3
20693.6
20824.8
20839.7
20933.1
20828.2
20745
20866.6
20622.4
20921.1
20947
20862.1
20864.7
20578.3
21031.1
21098.9
20971.8
20538.3
20710.7
20773.4
20845.5
20824.6
20808.7
20577.4
20920.4
21139
20894.9
20955.4
20775.1
20785.5
20747.7
20600.1
20830.9
20876.3
20584.8
20557.7
20591.6
21060.7
20953
20978.9
20792.9
20799.1
21007.6
20564.5
21031.8
20907.7
20767
20787.6
20572.8
20984.2
20941.5
20611.6
20759.7
20722.4
20698.8
20862.3
20916.7
20713
20716.2
20567.4
21010
20913.4
20574.1
21019.1
21033.7
20891.5
20996.6
20760.4
20866.6
20619
20523.8
20853.2
21272.9
20908.1
21148.2
20841.3
20715.2
20870.4
20646.2
20753.7
20898.8
20913.8
20868.1
20777.5
20669.3
20568.9
20943.7
21131.2
20917.4
20798.1
20700.7
20819.6
20855.7
20880
20798.3
20741.4
20683.6
20772.2
20658.3
20576.8
20660.3
20666
20756.2
20514
20702.4
21135.7
20701.3
20699.5
20929.6
20906.9
20828.3
20728.4
20552.9
20902.4
20951
20837.6
20829.4
20861.6
20781.1
20763.6
20796.6
20510.6
20978.9
21120.9
20993.2
20899.2
20885.7
20821.2
20790
20757.6
20640.9
20764.1
20630.9
20568.3
20633.4
20536.8
21032.7
21017
20926.9
21286.8
20878.6
21011.1
20558.4
20580.9
20833.1
20931.6
20563.1
20702.1
20646.2
21026.8
20983.8
20791.5
20822.7
21009.9
20953.2
20780.1
20866.7
20595.2
20904.6
20515.2
20997.1
20504.3
20949
20937.8
20920
20740.8
20563.7
20708.8
20917.4
20716.5
20518.6
20959.7
20931.1
21140.3
21052.4
20997.1
20934.3
20525.5
20551.9
20376.5
20404.4
20729.7
20663
20667.9
20645.7
21008.8
20907.4
20507.7
20470.6
20854.1
20762.9
21139.5
20676.6
20679.3
20796.3
20448.7
20422.1
20658.1
20655.5
20684.9
20701.9
20926.6
20900.7
20823.6
20776.3
20521
20689.1
20966.5
20628.6
20598.2
20870.1
20982.8
20633.1
20479.1
20583.2
20473.8
20737.5
20717.3
20673.6
20572.3
20356.4
20909.9
20900
20798.5
20790.8
21034.8
20899.9
20809.1
20813.1
20576.6
20657.8
20936.6
20852.9
20696.6
20442.9
20773.9
21099.9
21036.6
20781.6
20893
20962.9
20980.5
20927.3
20575.6
20628.7
20551.9
20687.7
20734.6
20934
21202.9
20576.5
20567.1
20930.5
21075
20739.5
20674.6
20508.7
20883.4
20737.4
20972.4
20987.5
20817.4
20517.4
21022.9
21117.1
20465.9
21117
21006.8
20915.2
21075.9
20862.3
20831.2
20788.9
21032.7
20802.4
20822.5
20786.3
20883.8
20815.2
20771.3
20771.1
20552.8
20879.9
20894
20896.7
20900.7
20926.1
20854.8
20816.7
20545.3
20971.9
20994.7
20864.4
20769.5
20815.1
21055.3
20839
20565.6
20527.1
20965.6
20913.7
21039.5
20729.4
20754.8
20840.4
20436.7
20368.9
20665.4
20656.1
20721.2
20540.7
20578.9
21018.2
20852.3
20972.3
20885.9
21008.5
21015.9
20969.4
20705.2
20382
20352.3
20697.6
20903.2
20712
20680.1
20441.6
20722.8
21014.3
20717
21325
20611.3
20919.7
21064.7
20861.6
20992.4
21043
20933.1
20817.4
20768.7
20772
20889.2
20744
20793.9
20839.5
20813.4
20914.7
20861.9
20899.8
20625.8
20628.2
20399.1
20423.4
20555.9
20297.2
20715.6
20706.1
20737
20780.2
20551.8
20557.9
20698.4
20978.5
21047.5
20698.6
20520.2
20721.6
20948.3
20999.3
20740.5
20549.7
20609.3
20859.1
20886
20740.1
20729.7
20869.7
20908.7
21012.7
20878.5
20784.1
20703.4
20571
20518.7
20915.7
20947.1
21052.9
20723.6
21076.8
20927.5
21108.4
20685
20730.7
20615.3
20660.6
20693.1
20619.1
20739.6
20514.1
20668.8
20987.6
20706.9
20591
21046.2
20896.6
20797.8
20790.8
21175
21246.5
20471.4
20859.5
20923.5
20830.9
20641.4
20766
20685
20850.7
21006.9
20910.3
20610.9
20876.5
20825.5
20848.7
20855.5
20790.2
20758.3
20772.8
20709.9
20544.2
20527.8
20599.1
20966.6
20677.5
20542.5
20677.2
20956.9
20719.2
20995.7
20943.5
20846.7
20786.8
20864.3
21015.4
20594.8
20838.3
21004
20950.9
20813.3
20656.3
20764.6
20879.3
20961
20609.8
20772.6
20830.1
20940.9
20802.3
20915.2
20997.8
20598.4
20677.3
20656.1
21037
20924.5
20758.8
20946.7
20661.3
20697.8
20944.9
20955
20984.2
20586.1
20894.4
20938.1
20774.8
20846.5
20897.5
20650.6
20498.3
20755.9
20933.7
21156.5
20749.4
20708.7
20753.5
20830.1
20906.6
20751.5
20679.1
20740.2
20913.3
20763.5
20604.1
20719.4
20665.2
20804.1
20782
20948.9
20858
20875.8
20696.9
20782.4
20800.5
20740.3
20709.9
20712.5
20688.2
20617.1
20868.3
20799.9
20770.7
20861
20510
20692.3
21047.7
21024.9
20654.4
20946.7
20832.2
20829
20722
20976.7
20926.8
20566.4
20706.3
20696.9
20700.8
20585.9
20546.9
20692
20965.6
21230.1
20675.2
20907.4
20866.5
20809.8
20742.8
20801.7
20967.7
20943.2
20579.3
20694.2
20686.4
20760.5
20841.8
20940
20877.9
20870.4
20917.4
20693.4
20862.3
20710.9
20910.8
20373.9
20867.9
20941.2
20710.2
20477.5
20866.6
20806.2
21008.1
20665.8
20864.9
20787.6
20502.5
21059.6
20601.9
20744
20737.1
20542.1
20958.5
20765.6
20768.2
20896.5
20767.6
20703.8
20999.1
20635.3
20700.3
20412
20946.5
20681.4
20742.1
20957.1
21199.9
20598.1
20727.5
21111.8
20616.5
20872.6
20674.5
20831.5
20549.4
20695.8
21105.4
20491.8
21210.4
20510.1
21027.4
20572.7
20660.9
20510.4
20697.7
21076.1
20455.2
20877.8
20510.2
21106.2
21074.1
20474.5
20903.4
20602
20570.8
20545.6
20661.3
20741
20753.3
20809.5
20730.2
21020.8
21113.8
20487.7
20958.7
20775.7
20733
20755.8
20740.3
20776.9
20732.1
20889.6
20766.8
20869
20714.3
20821.3
20962.9
20696.6
20800.8
20914.4
20695.1
20822.4
20768.5
20817.7
20730.1
20810.4
20715.7
20899.3
20698.6
20782.8
20534
21084.6
20462.3
20991
20948.9
20956.9
20654.1
20767.7
20715.6
20737.1
20849.6
20780.2
20897.8
20627
20368.8
21079.9
20489.1
21002.5
20671.3
20756.7
21064.3
20354
21244.7
20758.2
20453.4
20824.3
20848.3
20824.2
20803.1
20419.2
20846.9
20864.9
20674.5
20654.9
20994.4
20980.5
20721.5
20730.1
20992.4
20446.8
21001.1
20660.1
20827.9
20466.8
21302.2
21029.9
20894.3
20814.1
20817.5
20932.3
20786.4
20417
20610.3
20858.2
20665.3
20989.6
20461.2
21013.3
20936.7
20238.5
20856.5
20816.4
20372.6
21197.7
20517.1
20983.4
21070.8
20935.3
20346.5
20798.6
20744.6
20844.3
20824.2
20908
20425.3
20767.1
20641.2
20652.3
21021.3
20793
20960.8
20821.8
20839.5
20742.2
20770.8
20752.9
20781.8
20934.6
20688.4
20738.6
20666.2
20867.3
20953.7
20697.1
20704.2
20689.8
20787.7
20658.4
20651.7
20717.3
20731.3
20772.7
20801.1
20977.1
20957.4
20448.5
20555.6
21094.1
20270.7
20847.3
20870.2
20693.8
20750.7
21177.8
20390.6
20906.8
20922.4
20372.6
20721.1
20727.7
20897.3
20366.9
20940.7
21011.3
20324.1
20916.1
21017.7
20417
20950.6
20984.6
20424.6
20702.1
20677.3
20406.6
20759.7
20787.2
20726.6
20652.1
20837.9
20369.7
20620.8
20601.9
20378
20935.4
20602.5
21056.1
20781.8
20415.6
20905.5
20921.8
20386.3
20707.4
20716.1
20383.5
20516.3
21239.4
20225.8
20620.5
20878.2
20354.6
20949.6
20898.6
20761.5
20699.6
20742.2
20596.2
20333.6
20764.2
20680.5
20708.1
20763.8
20380.2
20971.9
20673.8
20743.4
20642
20731.5
20772.2
20622.3
20404.9
20732.4
20963.3
20661.4
20717.5
20783.8
20648.7
20736.4
20410.6
20747.6
21007.3
20644.1
20750.6
20654.2
20427.2
21082.3
21116.1
20924
21072.4
20407.9
20353.6
20792.1
21067.9
20783.9
20868.7
20898.4
20616.9
20557.2
20508.2
20575.5
20617.5
20743.9
20730.5
20722.2
20618.1
20898.9
20861
20425.4
20555.4
20617.3
20891.2
20635.6
20364.1
21041.5
20740.1
20914.3
20376
20787
20931.1
20693.2
20720.6
20876.4
20750.8
20592.7
21013.1
20279.3
20791.2
20883.7
20660.8
20696
21012.3
20890.6
20821.2
20580.8
20976.9
20723.7
20781.6
20891.1
20927.4
20902.7
20924.6
21021.7
21040.5
20980.3
20980.3
20985
20922.1
20682.6
20740.1
20659.2
20527.5
20322.4
21015.7
20997.6
20935.9
20709
20775.1
20767.5
20656
20806.4
20905.3
20625.3
20740.5
20863.3
20718.8
20690.3
20668.4
20709
20623
20697.8
20688
20458.2
20925.8
20652.5
20731.4
20357.4
21111.5
20748.7
20655.7
20631.7
20469.1
20784.9
20665.7
20384.3
20634
20732
20573
20544.6
21024.7
21058.5
20702.8
20697.2
20894.9
20986.8
20371.1
20814.8
20639.6
20690.4
20696.9
20708.9
20738.6
20595.3
20382.3
21051.2
20700
20557
20588.5
20675.1
20762
20490.5
20868.8
20707.4
20679.4
20987.2
20573.9
20433.3
20733.4
20675.8
20655.6
20391.9
20985.1
20712.5
20661
20686.1
20379.5
20756.8
20695.4
20445.4
20744
20625
20820.7
20923.4
20692.4
20876.9
20782.2
20660.9
20649.7
20701.9
20410.7
20903.2
20939.3
20677.6
20399.3
20619.8
20730.2
20737.2
20672.3
20404.4
20685.6
20909.7
20844.3
20725
21026.3
20529.1
21010.4
20368.3
20547.7
21047.6
20422.4
20927.8
20779.6
20761.3
20686.1
21098.8
20577.9
20747.9
20952.4
21031.3
20429.9
20947.1
21003.3
20294.3
21013.2
20651.2
20371.8
21060.7
20646.2
20669.4
20672.3
20736.4
20713.7
20670.2
20674.3
20348.7
20987.3
20803.1
20748.7
20765.8
20702.6
20648.6
20619.1
21039.4
20337.6
20630.6
20875.4
20413.6
20931.5
20983.4
20958.3
20954.5
21036.2
20571.7
20993.8
20832.3
20954.9
20647.6
20869.9
20591.4
20447.3
20996.2
20546.6
20907.4
21084.3
20976.1
20381.1
21002.8
20881.7
20641.7
20670.1
20709.8
20661.7
20383.3
21104.6
20378.6
21100.2
20700.8
20596.7
20725.2
20855.3
20842.1
21062.2
20738.1
21011.3
20978.6
20903
20537
20927.9
20862.3
20942.5
20666.4
20627.3
20396.1
20718.7
21008.6
21008.1
20352.5
20597.1
20530.8
20660.6
20728.6
20571
21214.1
20683
20579.8
20382.4
20853.3
20648
20290
20815.4
20678.4
20653.3
20674.4
20677.7
20390.1
20544.1
20371.7
20735.3
21044.1
20827.5
20990.6
20960.8
20632.6
20587.9
20406.5
20584.7
20991.1
20943
20971.9
20889.3
20546.3
20425.7
20581
20376.2
20901.4
20938.2
20608.1
20886.7
20962.4
20927.3
20948.8
20765.6
20753.4
20631.3
20310
20616.4
20432.3
20690.1
20674
20667.2
20432.9
20386.3
20853.3
20988.2
21094
20984.6
20750.8
20811.6
20814.2
20782.9
20690.8
20745.8
20613.7
20712.1
20712.5
20370.8
21023.6
20721.2
20606.4
20442.3
20734.8
20738.2
20735.1
20678.2
20446.6
20989.8
20805.4
20670.1
21014
20603.7
20365.2
20978.5
20743.4
20716.4
20704.6
20656.4
20293.8
20903
20707.4
20383
21120.3
20704.3
20293
20671.2
20723.2
20737.5
20648.2
20391.9
20657.5
20669
20497
20702.1
20370.7
20731.7
20723.3
20461.5
21123.4
20700.7
20452.4
21240.3
20730.3
20738.8
20431.6
20713.8
20392.8
)
;
    }
}


// ************************************************************************* //
