/*--------------------------------*- C++ -*----------------------------------*\
| =========                 |                                                 |
| \\      /  F ield         | OpenFOAM: The Open Source CFD Toolbox           |
|  \\    /   O peration     | Version:  v1906                                 |
|   \\  /    A nd           | Web:      www.OpenFOAM.com                      |
|    \\/     M anipulation  |                                                 |
\*---------------------------------------------------------------------------*/
FoamFile
{
    version     2.0;
    format      ascii;
    class       surfaceScalarField;
    location    "59";
    object      phi;
}
// * * * * * * * * * * * * * * * * * * * * * * * * * * * * * * * * * * * * * //

dimensions      [1 0 -1 0 0 0 0];
oriented        oriented;


internalField   nonuniform List<scalar> 
228225
(
0.000400723
-2.02526e-05
3.08058e-06
0.000435684
-2.55788e-05
5.5903e-06
0.000426691
-2.00981e-05
-1.29165e-06
0.000404922
-1.88581e-05
-5.93298e-06
0.000382978
-1.42665e-05
-9.39632e-06
0.000366769
-1.06595e-05
-1.10207e-05
0.000353703
-1.13924e-05
-6.25454e-06
0.00033282
-8.11798e-06
2.50507e-06
0.000306291
-8.41462e-06
1.17176e-05
0.00028312
-5.15556e-06
9.70255e-06
0.00027006
-3.07682e-06
2.06649e-06
0.000256014
-7.3721e-07
4.55571e-06
0.000252193
1.74137e-06
-4.99049e-06
0.000232491
4.24904e-06
1.12615e-05
0.000227798
6.55528e-06
-3.97025e-06
0.000228412
9.8571e-06
-1.03603e-05
0.000236036
1.1661e-05
-1.78252e-05
0.000238919
1.40859e-05
-1.38851e-05
0.000248189
1.52197e-05
-2.08308e-05
0.000251201
1.75071e-05
-1.58897e-05
0.000258433
1.85737e-05
-2.11505e-05
0.000259734
2.09115e-05
-1.71116e-05
0.00026369
2.20586e-05
-2.12621e-05
0.000261632
2.48665e-05
-1.79049e-05
0.000261916
2.61562e-05
-2.20016e-05
0.000255026
2.9657e-05
-1.83857e-05
0.000251021
3.1353e-05
-2.33266e-05
0.000239284
3.52943e-05
-1.98023e-05
0.000228044
3.808e-05
-2.32711e-05
0.00021145
4.25714e-05
-2.18043e-05
0.000192309
4.71098e-05
-2.33253e-05
0.000171396
5.20506e-05
-2.38275e-05
0.00015442
5.50071e-05
-2.8994e-05
0.000118519
7.90789e-05
-3.72113e-05
0.00011037
-4.42091e-06
-9.009e-05
7.65343e-05
-1.37759e-05
-0.000147852
6.5645e-05
-3.47465e-05
-0.000187299
6.14881e-05
-3.22458e-05
-0.000227544
4.62491e-05
-2.75776e-05
-0.000242509
3.50739e-05
-2.80985e-05
-0.000255229
2.67534e-05
-2.4483e-05
-0.000250675
1.30705e-05
-2.6401e-05
-0.000238008
6.33781e-06
-2.54832e-05
-0.000218946
-2.81956e-07
-2.57108e-05
-0.000198051
3.29584e-06
-2.77103e-05
-0.000180034
8.25187e-06
-2.80016e-05
-0.000163466
1.28221e-05
-2.87637e-05
-0.000146846
1.5697e-05
-2.94238e-05
-0.000132745
1.9191e-05
-2.82089e-05
-0.00011349
2.11122e-05
-3.30532e-05
-9.44143e-05
2.32575e-05
-3.15599e-05
-7.49183e-05
2.51799e-05
-3.20888e-05
-5.5993e-05
2.65564e-05
-3.01976e-05
-3.74485e-05
2.84872e-05
-3.07601e-05
-1.9843e-05
2.99863e-05
-2.88373e-05
-3.32044e-06
3.22075e-05
-2.90058e-05
1.19796e-05
3.40519e-05
-2.72238e-05
2.54174e-05
3.65965e-05
-2.69159e-05
3.76057e-05
3.91143e-05
-2.53401e-05
4.73277e-05
4.21127e-05
-2.48461e-05
5.56425e-05
4.54727e-05
-2.33566e-05
6.1142e-05
4.92519e-05
-2.29438e-05
6.485e-05
5.34162e-05
-2.16089e-05
6.56229e-05
5.79197e-05
-2.08082e-05
6.40006e-05
6.26996e-05
-1.92238e-05
5.90832e-05
6.79288e-05
-1.7558e-05
4.89171e-05
7.43781e-05
-1.5142e-05
2.85021e-05
8.26676e-05
-1.23573e-05
8.64663e-06
9.52478e-05
-5.78458e-06
9.40135e-05
1.17736e-05
-9.39477e-06
9.2837e-05
-4.09038e-06
-2.13627e-05
8.45685e-05
-7.7149e-06
-2.90522e-05
7.54236e-05
-5.14344e-06
-4.12042e-05
6.20031e-05
-2.69856e-06
-4.95697e-05
4.71745e-05
-2.32e-06
-5.41e-05
3.44969e-05
-1.86897e-06
-6.02564e-05
2.08363e-05
-9.76664e-07
-6.5818e-05
9.5482e-06
1.67721e-06
-7.95066e-05
3.91513e-06
6.93935e-06
-9.30801e-05
2.66634e-06
1.0459e-05
-9.91621e-05
-2.53328e-07
1.11963e-05
-0.000103624
4.84876e-06
9.96869e-06
-0.000107197
1.00097e-05
7.71596e-06
-0.000106612
1.33914e-05
4.22871e-06
-0.000105171
1.64383e-05
2.25386e-06
-0.000101057
1.83657e-05
-2.88372e-07
-9.60745e-05
2.05098e-05
-1.52092e-06
-9.00577e-05
2.23056e-05
-3.03869e-06
-8.36932e-05
2.45281e-05
-3.7897e-06
-7.69129e-05
2.6572e-05
-4.78557e-06
-6.99595e-05
2.901e-05
-5.23216e-06
-6.31023e-05
3.13271e-05
-5.67546e-06
-5.64036e-05
3.38991e-05
-5.68243e-06
-4.9766e-05
3.64312e-05
-5.76788e-06
-4.33486e-05
3.90083e-05
-5.39153e-06
-3.66281e-05
4.16078e-05
-5.22318e-06
-2.97289e-05
4.4178e-05
-4.63795e-06
-2.24513e-05
4.68529e-05
-4.11209e-06
-1.52772e-05
4.98161e-05
-3.27433e-06
-9.00164e-06
5.34844e-05
-2.28262e-06
-4.86515e-06
5.84137e-05
-1.07126e-06
-4.29124e-06
6.50578e-05
7.5022e-07
-7.42857e-06
7.27987e-05
3.48098e-06
-8.21248e-06
7.8274e-05
7.59638e-06
6.81301e-05
1.12669e-05
2.67648e-05
7.64011e-05
-1.49492e-06
3.84983e-05
7.95176e-05
2.8117e-07
4.29568e-05
7.64931e-05
3.41188e-08
4.08897e-05
7.01395e-05
-1.72689e-06
3.16568e-05
6.30199e-05
-3.38797e-06
1.49403e-05
5.6635e-05
-3.13252e-06
-1.09602e-05
5.1067e-05
-3.09501e-06
-4.71194e-05
4.62082e-05
-5.66703e-07
-9.47084e-05
4.30504e-05
7.31424e-06
-0.000143912
3.94438e-05
1.47709e-05
-0.00017981
3.02227e-05
1.02108e-05
-0.000211323
2.61695e-05
8.43986e-06
-0.000235305
2.18855e-05
8.89918e-06
-0.000244994
1.47702e-05
6.75894e-06
-0.000246046
1.044e-05
4.72543e-06
-0.000244105
1.11416e-05
3.02091e-06
-0.000241309
1.36531e-05
1.68095e-06
-0.000237261
1.51539e-05
5.82417e-07
-0.000231373
1.63091e-05
-3.15271e-07
-0.000224229
1.74951e-05
-8.18973e-07
-0.000215938
1.89097e-05
-1.04562e-06
-0.000207071
2.04716e-05
-9.78158e-07
-0.000197589
2.20783e-05
-7.29764e-07
-0.000187443
2.35001e-05
-3.48409e-07
-0.000176439
2.46214e-05
2.10814e-07
-0.000164449
2.53842e-05
1.10766e-06
-0.00015109
2.57793e-05
2.0604e-06
-0.000136088
2.60174e-05
3.09978e-06
-0.000119361
2.64243e-05
4.19701e-06
-0.000101137
2.76351e-05
5.29035e-06
-8.16744e-05
3.02e-05
6.32322e-06
-6.10497e-05
3.44582e-05
7.16312e-06
-4.00305e-05
4.06827e-05
7.64181e-06
-1.93112e-05
4.58706e-05
7.65428e-06
3.96852e-05
6.59177e-06
3.85054e-05
4.48462e-05
-5.95642e-06
6.33875e-05
5.94267e-05
-5.10094e-06
7.98978e-05
6.32459e-05
-4.7168e-06
9.05359e-05
6.23617e-05
-5.27962e-06
9.55383e-05
5.98814e-05
-5.13118e-06
9.71354e-05
5.67517e-05
-5.78596e-06
9.29358e-05
5.40305e-05
-3.58827e-06
8.5027e-05
5.11383e-05
-2.81908e-06
7.355e-05
4.81398e-05
-2.04148e-06
5.00885e-05
4.91898e-05
7.11308e-06
1.64489e-05
4.72261e-05
1.28672e-05
-1.37661e-05
4.12302e-05
1.25867e-05
-3.66914e-05
3.28986e-05
1.00253e-05
-5.77836e-05
2.27357e-05
1.22097e-05
-7.77207e-05
1.45269e-05
1.54292e-05
-9.65922e-05
1.22521e-05
1.68934e-05
-0.000111645
1.17863e-05
1.53381e-05
-0.000119895
9.25367e-06
1.24281e-05
-0.000120057
5.338e-06
9.37734e-06
-0.000112992
2.52675e-06
6.14025e-06
-0.00010094
2.23196e-06
3.02925e-06
-8.68854e-05
4.34518e-06
6.92752e-07
-7.34585e-05
7.95018e-06
-5.41574e-07
-6.13152e-05
1.12849e-05
-1.11452e-06
-5.0094e-05
1.37031e-05
-1.45953e-06
-3.96883e-05
1.54649e-05
-1.6177e-06
-3.02287e-05
1.67388e-05
-1.51451e-06
-2.20371e-05
1.78726e-05
-1.07976e-06
-1.59896e-05
1.97183e-05
-3.07304e-07
-1.26354e-05
2.206e-05
1.29916e-06
-1.12715e-05
2.46342e-05
3.32885e-06
-1.04709e-05
2.76086e-05
5.36526e-06
-8.11954e-06
3.12023e-05
7.03286e-06
-3.63748e-06
3.42703e-05
7.49191e-06
3.0347e-05
5.89988e-06
2.83798e-05
1.52669e-05
2.21971e-07
5.87532e-05
3.23317e-05
-5.99654e-06
8.80283e-05
4.12845e-05
-1.09175e-05
0.000115454
4.57063e-05
-1.47944e-05
0.000138511
4.83123e-05
-1.57112e-05
0.000157412
4.97034e-05
-1.61715e-05
0.000171732
5.07521e-05
-1.53173e-05
0.000183686
5.09617e-05
-1.60956e-05
0.000191329
5.01679e-05
-1.50404e-05
0.000188254
5.06716e-05
-4.73511e-06
0.000174891
5.06322e-05
4.45404e-06
0.0001582
4.91618e-05
4.72129e-06
0.000138151
4.66538e-05
3.46053e-06
0.000112792
4.34773e-05
2.53665e-06
8.35336e-05
4.02276e-05
1.92992e-06
5.61011e-05
3.73669e-05
1.21598e-06
3.16913e-05
3.4534e-05
1.4724e-06
7.68927e-06
3.00767e-05
3.47938e-06
-1.72001e-05
2.36248e-05
5.86164e-06
-3.97629e-05
1.77459e-05
6.07531e-06
-5.64311e-05
1.43592e-05
4.33536e-06
-6.78941e-05
1.35923e-05
2.69734e-06
-7.51695e-05
1.40155e-05
1.83199e-06
-7.83934e-05
1.36093e-05
1.4617e-06
-7.70891e-05
1.1545e-05
1.34053e-06
-7.02215e-05
7.62528e-06
1.40596e-06
-5.69317e-05
2.11898e-06
1.69424e-06
-3.97873e-05
-1.24831e-06
2.27838e-06
-2.32153e-05
2.14424e-07
3.20134e-06
-1.17683e-05
6.2704e-06
4.53874e-06
-6.03647e-06
1.28255e-05
6.13069e-06
-4.76356e-06
1.84979e-05
7.74094e-06
-4.90555e-06
2.23802e-05
8.91088e-06
-3.25677e-06
2.39094e-05
8.87113e-06
2.09897e-05
6.34896e-06
2.27389e-05
-1.25011e-05
4.30375e-06
5.71436e-05
-5.166e-06
1.39199e-06
9.39241e-05
3.0338e-06
-6.05174e-07
0.000123563
1.10056e-05
2.70288e-06
0.000142369
1.84542e-05
8.49165e-06
0.000156471
2.5139e-05
7.88888e-06
0.000169656
3.11021e-05
3.7334e-06
0.000178463
3.63027e-05
2.91138e-06
0.000184289
4.04082e-05
6.79184e-07
0.000187471
4.38217e-05
2.50217e-07
0.000186126
4.64786e-05
2.32514e-06
0.000182799
4.80085e-05
1.90618e-06
0.000175599
4.86318e-05
3.2331e-06
0.000166015
4.84441e-05
3.05338e-06
0.000154345
4.76183e-05
3.05292e-06
0.000141822
4.63455e-05
2.68626e-06
0.000128721
4.47928e-05
2.46517e-06
0.000113462
4.2903e-05
2.6223e-06
9.3597e-05
4.05447e-05
3.35901e-06
6.88792e-05
3.79139e-05
4.3761e-06
4.14433e-05
3.53813e-05
5.07051e-06
1.50531e-05
3.27962e-05
5.00689e-06
-6.80079e-06
2.94274e-05
4.21574e-06
-2.27582e-05
2.46527e-05
3.12355e-06
-3.28591e-05
1.82641e-05
2.08909e-06
-3.77965e-05
1.0271e-05
1.31194e-06
-3.88302e-05
1.35457e-06
9.79568e-07
-3.65253e-05
-4.54709e-06
6.66952e-07
-3.21077e-05
-4.17742e-06
1.7087e-07
-2.68609e-05
1.13228e-06
3.2817e-07
-2.14695e-05
6.35242e-06
1.62176e-06
-1.65161e-05
1.08702e-05
3.14806e-06
-1.18506e-05
1.38439e-05
4.17523e-06
-6.63486e-06
1.47003e-05
4.302e-06
1.14069e-05
3.37599e-06
4.38735e-06
-2.11021e-05
3.59341e-06
1.03393e-05
-1.83469e-05
6.39513e-06
2.06304e-05
-1.4583e-05
6.90338e-06
3.24939e-05
-6.75417e-06
5.77945e-06
4.60922e-05
1.43748e-06
3.37177e-06
6.01265e-05
1.00781e-05
8.93675e-07
7.43293e-05
1.79543e-05
-1.43393e-06
8.84306e-05
2.48152e-05
-3.32017e-06
0.000101133
3.04299e-05
-3.72127e-06
0.000110608
3.49329e-05
-1.73578e-06
0.000117288
3.83728e-05
2.44679e-07
0.000121968
4.08818e-05
1.26019e-06
0.000125025
4.25991e-05
1.77608e-06
0.000126721
4.35965e-05
1.94014e-06
0.000127356
4.39268e-05
1.87073e-06
0.000127226
4.36144e-05
1.76755e-06
0.00012673
4.2627e-05
1.73888e-06
0.000126206
4.09127e-05
1.84137e-06
0.000125829
3.85171e-05
2.01789e-06
0.000125781
3.57056e-05
2.13998e-06
0.000126247
3.299e-05
2.10748e-06
0.000127132
3.0624e-05
1.91226e-06
0.000127879
2.83111e-05
1.59625e-06
0.000127548
2.56997e-05
1.1419e-06
0.000124715
2.26863e-05
7.21167e-07
0.000117202
1.96499e-05
5.61178e-07
0.000103163
1.70502e-05
5.80162e-07
8.39709e-05
1.55737e-05
1.11184e-06
6.2808e-05
1.61407e-05
2.69546e-06
4.39633e-05
1.72433e-05
3.60758e-06
2.904e-05
1.74034e-05
3.49565e-06
1.85283e-05
1.68729e-05
3.58798e-06
1.1413e-05
1.59561e-05
4.0348e-06
5.4683e-06
1.52312e-05
4.48691e-06
1.21151e-05
4.04135e-06
-3.77896e-06
-2.1637e-05
4.01788e-06
-5.348e-06
-2.1709e-05
4.87584e-06
-5.98289e-06
-1.85691e-05
4.86519e-06
-5.40006e-06
-1.22924e-05
5.05102e-06
-4.57445e-06
-4.67758e-06
5.59662e-06
-3.67555e-06
2.99438e-06
6.59165e-06
-2.53939e-06
1.00902e-05
7.14604e-06
-1.27331e-06
1.68307e-05
7.06383e-06
2.19526e-07
2.26348e-05
6.49945e-06
2.10524e-06
2.72936e-05
5.81903e-06
4.10661e-06
3.09752e-05
5.41534e-06
6.04553e-06
3.38439e-05
5.13524e-06
7.83146e-06
3.59889e-05
4.92516e-06
9.47971e-06
3.74401e-05
4.72563e-06
1.10754e-05
3.81616e-05
4.57627e-06
1.27339e-05
3.80688e-05
4.59667e-06
1.44937e-05
3.70691e-05
4.96781e-06
1.61279e-05
3.51578e-05
5.832e-06
1.72439e-05
3.24996e-05
7.02014e-06
1.77039e-05
2.95009e-05
7.97933e-06
1.75589e-05
2.68167e-05
8.36205e-06
1.65825e-05
2.5014e-05
8.2617e-06
1.42333e-05
2.40471e-05
7.86975e-06
9.82763e-06
2.35361e-05
7.36884e-06
2.78775e-06
2.30324e-05
7.00735e-06
-6.84512e-06
2.22951e-05
6.88306e-06
-1.8353e-05
2.14248e-05
6.7831e-06
-3.01751e-05
2.04578e-05
6.50734e-06
-3.94905e-05
1.89582e-05
6.04441e-06
-4.43728e-05
1.62117e-05
5.42707e-06
-4.38869e-05
1.16715e-05
4.79541e-06
-3.65057e-05
4.8806e-06
4.2484e-06
-2.32844e-05
-1.48679e-06
3.95411e-06
-8.9858e-06
-3.02358e-06
3.8141e-06
1.96057e-07
2.84768e-06
-2.26909e-05
-3.78633e-06
5.30757e-06
-4.84322e-05
-2.37447e-06
6.91604e-06
-6.87535e-05
-4.13971e-06
5.98691e-06
-7.91224e-05
-5.98314e-06
4.8256e-06
-8.1253e-05
-5.85382e-06
4.35754e-06
-7.72717e-05
-4.06763e-06
4.10138e-06
-6.90785e-05
-1.06693e-06
4.0333e-06
-5.81159e-05
2.8359e-06
4.11327e-06
-4.57182e-05
6.99187e-06
4.31657e-06
-3.29846e-05
1.10315e-05
4.58003e-06
-2.05906e-05
1.4824e-05
4.80042e-06
-8.97763e-06
1.8302e-05
4.98107e-06
1.53083e-06
2.14167e-05
5.13799e-06
1.06802e-05
2.411e-05
5.28585e-06
1.83093e-05
2.62506e-05
5.42972e-06
2.42179e-05
2.78126e-05
5.56022e-06
2.82129e-05
2.87038e-05
5.65108e-06
3.00672e-05
2.89136e-05
5.656e-06
2.95706e-05
2.85661e-05
5.51927e-06
2.68604e-05
2.77942e-05
5.19672e-06
2.25332e-05
2.68686e-05
4.68868e-06
1.74131e-05
2.60763e-05
4.10117e-06
1.20756e-05
2.55349e-05
3.5995e-06
6.81199e-06
2.50797e-05
3.29584e-06
1.68646e-06
2.4473e-05
3.18327e-06
-3.31436e-06
2.35853e-05
3.1885e-06
-7.88701e-06
2.22241e-05
3.26524e-06
-1.17649e-05
2.05016e-05
3.35902e-06
-1.46294e-05
1.79802e-05
3.41119e-06
-1.67682e-05
1.46155e-05
3.3464e-06
-1.81128e-05
9.45214e-06
3.19971e-06
-1.90868e-05
2.35144e-06
3.22356e-06
-1.94659e-05
-5.07701e-06
4.04925e-06
-1.34295e-05
-1.34739e-05
5.08688e-06
-1.65585e-05
3.80544e-06
-1.82673e-05
3.86803e-06
1.08342e-05
-3.93052e-05
2.85276e-06
1.5792e-05
-5.46985e-05
-5.45107e-06
1.62645e-05
-6.31105e-05
-1.36519e-05
1.56402e-05
-6.53077e-05
-1.8664e-05
1.47947e-05
-6.23202e-05
-2.10872e-05
1.40159e-05
-5.48648e-05
-2.16612e-05
1.33061e-05
-4.37069e-05
-2.06486e-05
1.2665e-05
-2.96934e-05
-1.86389e-05
1.20983e-05
-1.35999e-05
-1.60558e-05
1.1591e-05
3.82856e-06
-1.30546e-05
1.11456e-05
2.19361e-05
-9.78166e-06
1.07586e-05
4.01619e-05
-6.37504e-06
1.04269e-05
5.80138e-05
-2.96203e-06
1.01518e-05
7.51901e-05
1.25239e-07
9.93414e-06
9.04462e-05
3.80742e-06
9.78513e-06
0.000103494
7.02859e-06
9.69221e-06
0.00011394
9.88345e-06
9.64108e-06
0.000121461
1.24536e-05
9.58281e-06
0.000125949
1.47075e-05
9.48442e-06
0.000127503
1.675e-05
9.30315e-06
0.000126617
1.8509e-05
9.00988e-06
0.000123908
2.00252e-05
8.57379e-06
0.000119954
2.11987e-05
8.02294e-06
0.000114828
2.23028e-05
7.37064e-06
0.000108925
2.28345e-05
6.6966e-06
0.000102057
2.31403e-05
6.00989e-06
9.47834e-05
2.24994e-05
5.40962e-06
8.64083e-05
2.17598e-05
4.81084e-06
7.73155e-05
1.96194e-05
4.42496e-06
6.55419e-05
1.76168e-05
4.05968e-06
5.07437e-05
1.34396e-05
4.33715e-06
3.22958e-05
9.74554e-06
4.42985e-06
1.17997e-05
1.7585e-06
6.54235e-06
-1.16331e-05
7.6954e-06
8.21715e-06
-1.10252e-05
6.74072e-06
2.60514e-05
-2.17113e-05
6.761e-06
4.32018e-05
-2.83189e-05
5.67571e-06
5.72924e-05
-3.24405e-05
4.6534e-06
6.93152e-05
-3.46055e-05
3.88822e-06
8.01678e-05
-3.53562e-05
3.39031e-06
9.04397e-05
-3.50923e-05
3.1252e-06
0.000100756
-3.40718e-05
3.05672e-06
0.000111351
-3.24443e-05
3.14032e-06
0.000122159
-3.0284e-05
3.3321e-06
0.000133011
-2.76045e-05
3.59755e-06
0.000143638
-2.44246e-05
3.90964e-06
0.000153756
-2.08405e-05
4.24588e-06
0.000163132
-1.70186e-05
4.59377e-06
0.000171441
-1.31953e-05
4.9425e-06
0.000179424
-9.51464e-06
5.30055e-06
0.000186942
-6.15978e-06
5.66771e-06
0.000194007
-3.20076e-06
6.05171e-06
0.000200705
-6.26334e-07
6.45075e-06
0.000206268
2.36279e-06
6.87564e-06
0.000210584
5.22438e-06
7.32671e-06
0.000213551
7.86902e-06
7.80043e-06
0.000214929
1.04973e-05
8.28212e-06
0.000214516
1.29689e-05
8.76547e-06
0.000212173
1.55524e-05
9.21475e-06
0.000207668
1.78193e-05
9.63982e-06
0.000200586
2.03756e-05
9.98004e-06
0.000190681
2.22285e-05
1.03503e-05
0.000177291
2.47331e-05
1.0603e-05
0.000160269
2.58591e-05
1.10933e-05
0.00013874
2.80853e-05
1.13351e-05
0.000111885
2.84113e-05
1.23652e-05
8.1431e-05
2.80311e-05
1.25888e-05
4.26284e-05
2.58813e-05
1.50178e-05
1.78592e-05
1.35555e-05
1.18129e-05
-2.47739e-05
1.90875e-06
2.50768e-05
-3.6578e-05
1.55755e-06
3.55185e-05
-4.00261e-05
1.23549e-06
4.31131e-05
-4.09801e-05
9.21491e-07
4.86744e-05
-4.08784e-05
6.79495e-07
5.30022e-05
-4.02181e-05
4.87844e-07
5.6679e-05
-3.91623e-05
3.3163e-07
6.00667e-05
-3.77432e-05
2.0579e-07
6.33407e-05
-3.5924e-05
1.09144e-07
6.64798e-05
-3.35897e-05
4.80212e-08
6.92752e-05
-3.05735e-05
3.21878e-08
7.14904e-05
-2.68213e-05
2.40145e-08
7.30217e-05
-2.25227e-05
-9.26182e-09
7.40121e-05
-1.80738e-05
-8.30465e-08
7.48223e-05
-1.39228e-05
-2.03885e-07
7.59196e-05
-1.03425e-05
-3.54216e-07
7.75562e-05
-7.37025e-06
-4.74848e-07
7.97215e-05
-4.86212e-06
-5.25166e-07
8.21785e-05
-2.58904e-06
-4.9472e-07
8.51509e-05
-2.23984e-07
-3.70116e-07
8.89666e-05
1.58875e-06
-1.52497e-07
9.30383e-05
3.6143e-06
2.22762e-07
9.68819e-05
5.93473e-06
7.68938e-07
0.000100036
8.47608e-06
1.3977e-06
0.000102382
1.11386e-05
2.13584e-06
0.000103448
1.38492e-05
2.98031e-06
0.000103329
1.66762e-05
3.91224e-06
0.000101214
1.95669e-05
4.88474e-06
9.74859e-05
2.27218e-05
5.88622e-06
9.07591e-05
2.58674e-05
6.89928e-06
8.17527e-05
2.9443e-05
7.90513e-06
6.82711e-05
3.32394e-05
9.00694e-06
5.05972e-05
3.70865e-05
9.34176e-06
2.65045e-05
4.07919e-05
1.04541e-05
3.61215e-05
8.97819e-06
1.6143e-06
-2.78697e-05
1.41328e-06
2.67738e-06
-3.92614e-05
1.54948e-06
2.85816e-06
-4.19143e-05
1.64161e-06
2.67886e-06
-4.25656e-05
1.69891e-06
2.50112e-06
-4.25064e-05
1.73535e-06
2.47178e-06
-4.20235e-05
1.75601e-06
2.62952e-06
-4.11826e-05
1.77144e-06
2.98477e-06
-4.00013e-05
1.795e-06
3.57551e-06
-3.84825e-05
1.83849e-06
4.50986e-06
-3.65867e-05
1.91006e-06
5.9678e-06
-3.41978e-05
2.00485e-06
8.09686e-06
-3.11677e-05
2.0839e-06
1.07771e-05
-2.73475e-05
2.07902e-06
1.35196e-05
-2.27178e-05
1.91761e-06
1.58566e-05
-1.77648e-05
1.57467e-06
1.77728e-05
-1.32921e-05
1.11059e-06
1.95767e-05
-9.74452e-06
6.27022e-07
2.15439e-05
-6.99222e-06
1.95023e-07
2.37656e-05
-4.68631e-06
-1.10457e-07
2.64335e-05
-2.59341e-06
-2.93971e-07
2.90805e-05
-6.42054e-07
-4.18819e-07
3.16278e-05
1.53847e-06
-4.73282e-07
3.4154e-05
3.86113e-06
-4.36247e-07
3.67311e-05
6.23822e-06
-2.84727e-07
3.93809e-05
8.62053e-06
-3.16143e-08
4.18935e-05
1.10075e-05
4.73216e-07
4.41765e-05
1.34704e-05
1.1059e-06
4.59605e-05
1.60996e-05
1.89999e-06
4.70712e-05
1.90608e-05
2.79945e-06
4.68816e-05
2.26014e-05
3.7206e-06
4.45348e-05
2.74354e-05
4.61389e-06
3.82594e-05
3.42238e-05
5.45028e-06
2.65586e-05
4.25902e-05
6.22809e-06
1.10624e-05
4.82119e-05
7.49608e-06
4.04805e-05
6.21755e-06
3.36646e-06
-3.1099e-05
-1.82684e-07
8.18924e-06
-4.34139e-05
-6.83895e-07
1.29548e-05
-4.59305e-05
-7.29916e-07
1.75197e-05
-4.63784e-05
-7.17602e-07
2.17542e-05
-4.59903e-05
-7.10678e-07
2.54753e-05
-4.49902e-05
-7.12894e-07
2.85193e-05
-4.34666e-05
-7.18912e-07
3.0769e-05
-4.14936e-05
-7.18898e-07
3.21859e-05
-3.91696e-05
-6.99939e-07
3.28775e-05
-3.66279e-05
-6.43025e-07
3.31447e-05
-3.39877e-05
-5.16749e-07
3.33567e-05
-3.1216e-05
-2.77975e-07
3.36405e-05
-2.79636e-05
1.48524e-07
3.37155e-05
-2.3682e-05
7.23144e-07
3.30937e-05
-1.82573e-05
1.08342e-06
3.13388e-05
-1.24075e-05
1.01815e-06
2.84383e-05
-7.10362e-06
5.2608e-07
2.4702e-05
-2.81281e-06
-1.6105e-07
2.04394e-05
5.08896e-07
-7.01611e-07
1.64043e-05
2.69836e-06
-1.08922e-06
1.26814e-05
4.50697e-06
-1.30785e-06
9.68477e-06
6.02297e-06
-1.39872e-06
7.6355e-06
7.38583e-06
-1.39456e-06
6.5362e-06
8.72787e-06
-1.3014e-06
6.22656e-06
1.01392e-05
-1.10226e-06
6.48838e-06
1.16442e-05
-7.68969e-07
7.12482e-06
1.3252e-05
-2.63847e-07
7.79413e-06
1.5021e-05
5.87075e-07
8.2046e-06
1.71236e-05
1.71872e-06
8.05398e-06
1.99816e-05
2.94346e-06
6.70797e-06
2.45922e-05
4.2551e-06
3.00424e-06
3.20966e-05
5.56644e-06
-1.84017e-06
4.01751e-05
6.43549e-06
-3.4487e-06
4.19318e-05
6.69479e-06
3.15987e-05
4.69355e-06
1.00099e-06
-3.19027e-05
-1.53445e-07
2.35427e-06
-4.45116e-05
-1.91173e-07
3.69048e-06
-4.71322e-05
-6.54427e-08
4.87453e-06
-4.75269e-05
3.51532e-08
5.84174e-06
-4.70303e-05
1.44793e-07
6.60633e-06
-4.58986e-05
2.18407e-07
7.16043e-06
-4.42103e-05
2.69287e-07
7.45611e-06
-4.20013e-05
3.00167e-07
7.39087e-06
-3.93195e-05
3.13369e-07
6.81056e-06
-3.62606e-05
3.18517e-07
5.58497e-06
-3.29948e-05
3.34929e-07
3.79886e-06
-2.97427e-05
3.92164e-07
1.98675e-06
-2.66489e-05
5.2999e-07
1.09614e-06
-2.35926e-05
7.80523e-07
1.90112e-06
-2.01883e-05
1.09555e-06
4.35906e-06
-1.61434e-05
1.30758e-06
7.55678e-06
-1.14214e-05
1.24393e-06
1.03633e-05
-6.27918e-06
8.4875e-07
1.21936e-05
-1.34378e-06
2.07039e-07
1.2563e-05
2.83768e-06
-3.78845e-07
1.21727e-05
5.77574e-06
-8.05945e-07
1.13524e-05
7.94952e-06
-1.0647e-06
1.01088e-05
9.85731e-06
-1.19251e-06
8.48829e-06
1.16158e-05
-1.22207e-06
6.62593e-06
1.32294e-05
-1.15748e-06
4.61229e-06
1.47473e-05
-9.83577e-07
2.43297e-06
1.62424e-05
-6.66356e-07
3.30177e-09
1.77925e-05
-1.55014e-07
-2.89144e-06
1.94707e-05
7.91469e-07
-5.99068e-06
2.1401e-05
2.02429e-06
-8.20992e-06
2.39788e-05
3.37155e-06
-8.00495e-06
2.79026e-05
4.77724e-06
-5.22234e-06
3.22218e-05
5.89771e-06
-2.05658e-06
3.30616e-05
6.16696e-06
2.57622e-05
4.15724e-06
4.18993e-06
-3.51097e-05
-9.53177e-07
8.95679e-06
-4.78776e-05
-1.39538e-06
1.34282e-05
-5.03844e-05
-1.21759e-06
1.76187e-05
-5.06591e-05
-1.05935e-06
2.15653e-05
-5.0028e-05
-9.53946e-07
2.52699e-05
-4.87255e-05
-8.86149e-07
2.87185e-05
-4.68226e-05
-8.45526e-07
3.19083e-05
-4.43715e-05
-8.26172e-07
3.48634e-05
-4.1449e-05
-8.24294e-07
3.75954e-05
-3.81371e-05
-8.38874e-07
4.00197e-05
-3.45092e-05
-8.69066e-07
4.19488e-05
-3.06939e-05
-9.08199e-07
4.32766e-05
-2.69485e-05
-9.38378e-07
4.42394e-05
-2.35414e-05
-9.2857e-07
4.53964e-05
-2.04758e-05
-8.27785e-07
4.70739e-05
-1.73327e-05
-5.43219e-07
4.8811e-05
-1.33431e-05
9.49907e-09
4.93906e-05
-7.9877e-06
8.92723e-07
4.78022e-05
-1.60204e-06
1.63051e-06
4.35053e-05
4.98968e-06
2.04606e-06
3.79076e-05
9.59893e-06
1.95044e-06
3.26088e-05
1.24904e-05
1.2302e-06
2.81522e-05
1.45987e-05
2.19012e-07
2.43454e-05
1.62817e-05
-4.79762e-07
2.10547e-05
1.76678e-05
-8.68242e-07
1.81494e-05
1.89062e-05
-1.02167e-06
1.54526e-05
2.01288e-05
-9.70627e-07
1.27795e-05
2.13902e-05
-6.93726e-07
1.00186e-05
2.26334e-05
-1.32369e-07
7.10789e-06
2.37218e-05
9.39266e-07
4.85876e-06
2.46354e-05
2.10544e-06
4.76795e-06
2.56967e-05
3.14277e-06
5.83528e-06
2.83397e-05
4.17761e-06
4.27858e-06
3.12044e-05
4.76631e-06
2.72561e-05
3.16944e-06
5.35043e-06
-3.9164e-05
-1.2113e-06
1.03438e-05
-5.12662e-05
-1.52579e-06
1.44591e-05
-5.31372e-05
-1.3071e-06
1.7937e-05
-5.30098e-05
-1.08718e-06
2.08666e-05
-5.20128e-05
-9.13456e-07
2.3257e-05
-5.03038e-05
-7.84345e-07
2.50839e-05
-4.79234e-05
-6.96193e-07
2.63384e-05
-4.49449e-05
-6.44308e-07
2.70985e-05
-4.1542e-05
-6.23412e-07
2.75475e-05
-3.7909e-05
-6.30053e-07
2.78846e-05
-3.41357e-05
-6.61423e-07
2.81865e-05
-3.0224e-05
-7.14368e-07
2.83309e-05
-2.62363e-05
-7.81423e-07
2.80984e-05
-2.23664e-05
-8.47405e-07
2.73754e-05
-1.87567e-05
-8.89112e-07
2.62976e-05
-1.5286e-05
-8.63326e-07
2.53221e-05
-1.16218e-05
-6.70845e-07
2.50131e-05
-7.43231e-06
-2.36908e-07
2.49525e-05
-1.88498e-06
3.30336e-07
2.40377e-05
5.37682e-06
6.32977e-07
2.20819e-05
1.14338e-05
4.34651e-07
2.03181e-05
1.48568e-05
-1.57427e-07
1.9355e-05
1.67451e-05
-7.67033e-07
1.91736e-05
1.8016e-05
-1.22297e-06
1.95755e-05
1.90534e-05
-1.51834e-06
2.03839e-05
2.00233e-05
-1.69126e-06
2.14665e-05
2.10015e-05
-1.74184e-06
2.27012e-05
2.19981e-05
-1.63793e-06
2.39051e-05
2.2962e-05
-1.32049e-06
2.46763e-05
2.38922e-05
-7.00093e-07
2.41633e-05
2.52863e-05
1.6493e-07
2.11063e-05
2.79775e-05
1.18826e-06
1.46681e-05
3.28261e-05
2.30961e-06
6.63944e-06
3.64796e-05
3.01097e-06
3.24214e-05
1.65257e-06
3.99118e-06
-4.19913e-05
-1.14369e-06
7.9575e-06
-5.37538e-05
-1.46384e-06
1.1536e-05
-5.52516e-05
-1.46186e-06
1.48177e-05
-5.49014e-05
-1.39669e-06
1.77858e-05
-5.36609e-05
-1.33123e-06
2.03544e-05
-5.1601e-05
-1.28209e-06
2.2381e-05
-4.86965e-05
-1.25691e-06
2.37576e-05
-4.50553e-05
-1.25799e-06
2.45322e-05
-4.10167e-05
-1.28114e-06
2.49073e-05
-3.69448e-05
-1.31698e-06
2.51518e-05
-3.30064e-05
-1.3571e-06
2.55027e-05
-2.91747e-05
-1.39526e-06
2.60424e-05
-2.53589e-05
-1.42322e-06
2.65657e-05
-2.14729e-05
-1.42946e-06
2.6506e-05
-1.73136e-05
-1.40006e-06
2.48689e-05
-1.23554e-05
-1.31286e-06
2.0435e-05
-6.07493e-06
-1.11877e-06
1.40805e-05
-3.52883e-07
-7.14194e-07
9.28137e-06
3.13454e-06
-1.76545e-07
7.56284e-06
7.44728e-06
-1.57699e-07
8.54284e-06
1.1656e-05
-8.53274e-07
1.08994e-05
1.44165e-05
-1.54998e-06
1.37564e-05
1.62075e-05
-2.00773e-06
1.67905e-05
1.7558e-05
-2.32256e-06
1.98852e-05
1.87288e-05
-2.56632e-06
2.29802e-05
1.98439e-05
-2.75646e-06
2.60075e-05
2.09717e-05
-2.88e-06
2.87868e-05
2.21981e-05
-2.90204e-06
3.07767e-05
2.37556e-05
-2.75325e-06
3.07655e-05
2.61155e-05
-2.28447e-06
2.71907e-05
2.98312e-05
-1.26038e-06
1.95665e-05
3.49631e-05
5.63107e-08
1.03635e-05
3.99486e-05
1.30306e-06
3.16929e-06
4.13441e-05
1.6152e-06
3.48235e-05
3.64809e-07
2.25112e-06
-4.34909e-05
-7.91135e-07
4.77043e-06
-5.54103e-05
-8.8979e-07
7.089e-06
-5.67226e-05
-8.70296e-07
9.15638e-06
-5.61757e-05
-8.14626e-07
1.08726e-05
-5.4641e-05
-7.54347e-07
1.20658e-05
-5.21018e-05
-7.01758e-07
1.25187e-05
-4.84777e-05
-6.65627e-07
1.21418e-05
-4.40027e-05
-6.52076e-07
1.10886e-05
-3.9268e-05
-6.60408e-07
9.62553e-06
-3.4758e-05
-6.86838e-07
7.97726e-06
-3.06008e-05
-7.27001e-07
6.27992e-06
-2.66873e-05
-7.71948e-07
4.58108e-06
-2.28537e-05
-8.03972e-07
2.82926e-06
-1.89427e-05
-7.95454e-07
8.72155e-07
-1.46938e-05
-7.08943e-07
-1.53305e-06
-9.52592e-06
-5.20543e-07
-4.71492e-06
-2.57289e-06
-4.58523e-07
-8.43901e-06
4.44503e-06
-1.07051e-06
-1.18733e-05
8.37921e-06
-1.65e-06
-1.30047e-05
1.07705e-05
-1.97255e-06
-1.12915e-05
1.24837e-05
-2.28733e-06
-7.95746e-06
1.39712e-05
-2.62873e-06
-3.9382e-06
1.53876e-05
-2.95885e-06
2.86829e-07
1.67932e-05
-3.25593e-06
4.43718e-06
1.82549e-05
-3.52367e-06
8.25317e-06
1.98708e-05
-3.76136e-06
1.13559e-05
2.17991e-05
-3.95019e-06
1.31451e-05
2.42724e-05
-4.03724e-06
1.28747e-05
2.7526e-05
-3.9011e-06
1.01038e-05
3.16208e-05
-3.39284e-06
5.46345e-06
3.61506e-05
-2.54595e-06
7.82486e-07
4.02258e-05
-1.554e-06
-2.04079e-06
4.25239e-05
-6.0813e-07
-2.90967e-06
4.17431e-05
-1.92059e-07
3.21576e-05
-7.25281e-07
1.10709e-06
-4.43672e-05
-2.76236e-07
2.37596e-06
-5.63953e-05
-3.00746e-07
3.76423e-06
-5.76249e-05
-4.9342e-07
5.20242e-06
-5.7e-05
-6.19873e-07
6.55333e-06
-5.52965e-05
-7.00213e-07
7.57198e-06
-5.2365e-05
-7.53465e-07
7.94049e-06
-4.80411e-05
-7.90614e-07
7.55577e-06
-4.27811e-05
-8.12693e-07
6.65597e-06
-3.75223e-05
-8.20547e-07
5.54976e-06
-3.28116e-05
-8.20725e-07
4.39218e-06
-2.86162e-05
-8.17772e-07
3.15512e-06
-2.4646e-05
-8.09412e-07
1.65319e-06
-2.05939e-05
-7.83813e-07
-4.16044e-07
-1.62118e-05
-7.16074e-07
-3.30867e-06
-1.13173e-05
-5.7175e-07
-6.71025e-06
-5.92576e-06
-3.19305e-07
-8.84101e-06
-6.1048e-07
1.07646e-08
-9.25682e-06
4.5899e-06
8.98894e-08
-9.42265e-06
8.87208e-06
-4.22832e-07
-9.25351e-06
1.1736e-05
-1.08152e-06
-8.71012e-06
1.36184e-05
-1.5468e-06
-7.82655e-06
1.51996e-05
-1.93925e-06
-6.69637e-06
1.67732e-05
-2.31717e-06
-5.48583e-06
1.84737e-05
-2.68212e-06
-4.4342e-06
2.04126e-05
-3.01521e-06
-3.8671e-06
2.27285e-05
-3.28652e-06
-4.15408e-06
2.55699e-05
-3.45961e-06
-5.52734e-06
2.8988e-05
-3.48904e-06
-7.73684e-06
3.27575e-05
-3.35547e-06
-9.84126e-06
3.63672e-05
-3.11724e-06
-1.06863e-05
3.93095e-05
-2.84899e-06
-9.6553e-06
4.12197e-05
-2.52328e-06
-7.21923e-06
4.17423e-05
-2.04591e-06
-4.183e-06
3.99829e-05
-1.52979e-06
2.9195e-05
-1.34584e-06
-6.07457e-07
-4.42293e-05
4.39966e-07
-1.07449e-06
-5.66047e-05
6.80909e-07
-1.31662e-06
-5.79429e-05
5.80737e-07
-1.38228e-06
-5.73765e-05
4.66995e-07
-1.3678e-06
-5.56525e-05
3.68318e-07
-1.50482e-06
-5.24779e-05
2.82666e-07
-2.14878e-06
-4.75719e-05
2.14984e-07
-3.46041e-06
-4.16123e-05
1.82806e-07
-5.22172e-06
-3.59195e-05
1.88525e-07
-7.09929e-06
-3.11267e-05
2.072e-07
-8.90458e-06
-2.7029e-05
2.13942e-07
-1.06478e-05
-2.31334e-05
2.00173e-07
-1.25241e-05
-1.89706e-05
1.76916e-07
-1.48786e-05
-1.41957e-05
1.79795e-07
-1.81147e-05
-8.62134e-06
2.56304e-07
-2.24534e-05
-2.34829e-06
3.73067e-07
-2.7091e-05
3.41951e-06
3.03284e-07
-2.9794e-05
7.25281e-06
-4.41617e-08
-3.03531e-05
9.80163e-06
-4.26213e-07
-2.98873e-05
1.18882e-05
-7.22819e-07
-2.92258e-05
1.38204e-05
-9.98742e-07
-2.86833e-05
1.58003e-05
-1.27916e-06
-2.83521e-05
1.78972e-05
-1.55656e-06
-2.82556e-05
2.01534e-05
-1.80945e-06
-2.84125e-05
2.26462e-05
-2.01415e-06
-2.88124e-05
2.5457e-05
-2.15542e-06
-2.93089e-05
2.85763e-05
-2.23509e-06
-2.95138e-05
3.18064e-05
-2.27444e-06
-2.88614e-05
3.47815e-05
-2.31718e-06
-2.68849e-05
3.71602e-05
-2.41276e-06
-2.34322e-05
3.8778e-05
-2.57095e-06
-1.86664e-05
3.9543e-05
-2.75259e-06
-1.29473e-05
3.92106e-05
-2.89184e-06
-6.45027e-06
3.65451e-05
-2.87939e-06
2.46839e-05
-2.03152e-06
-1.27159e-06
-4.35726e-05
6.16016e-07
-2.27398e-06
-5.63809e-05
8.162e-07
-3.07688e-06
-5.78771e-05
7.99893e-07
-3.73753e-06
-5.73833e-05
7.42566e-07
-4.32763e-06
-5.5649e-05
6.70756e-07
-5.05059e-06
-5.22477e-05
5.84992e-07
-6.26621e-06
-4.67633e-05
5.00208e-07
-8.30285e-06
-3.99612e-05
4.68112e-07
-1.12455e-05
-3.34374e-05
5.28636e-07
-1.48508e-05
-2.81281e-05
6.59636e-07
-1.87138e-05
-2.39506e-05
8.16043e-07
-2.24789e-05
-2.03428e-05
9.68382e-07
-2.59319e-05
-1.67004e-05
1.10645e-06
-2.89784e-05
-1.25897e-05
1.24404e-06
-3.14543e-05
-7.916e-06
1.41367e-06
-3.29853e-05
-2.8942e-06
1.60861e-06
-3.35716e-05
1.94748e-06
1.70299e-06
-3.37292e-05
5.80878e-06
1.55863e-06
-3.39053e-05
8.74985e-06
1.28521e-06
-3.42096e-05
1.1168e-05
9.65929e-07
-3.45819e-05
1.34183e-05
5.55284e-07
-3.49808e-05
1.5751e-05
5.49638e-08
-3.54408e-05
1.82264e-05
-4.17822e-07
-3.59181e-05
2.08105e-05
-8.30165e-07
-3.62774e-05
2.34896e-05
-1.17058e-06
-3.63051e-05
2.62762e-05
-1.45233e-06
-3.57363e-05
2.91187e-05
-1.70146e-06
-3.43266e-05
3.18431e-05
-1.95341e-06
-3.19414e-05