/*--------------------------------*- C++ -*----------------------------------*\
| =========                 |                                                 |
| \\      /  F ield         | OpenFOAM: The Open Source CFD Toolbox           |
|  \\    /   O peration     | Version:  v1906                                 |
|   \\  /    A nd           | Web:      www.OpenFOAM.com                      |
|    \\/     M anipulation  |                                                 |
\*---------------------------------------------------------------------------*/
FoamFile
{
    version     2.0;
    format      ascii;
    class       volScalarField;
    location    "26.4/sphere";
    object      T;
}
// * * * * * * * * * * * * * * * * * * * * * * * * * * * * * * * * * * * * * //

dimensions      [0 0 0 1 0 0 0];


internalField   nonuniform List<scalar> 
304
(
484.541
484.572
484.57
484.586
484.543
484.541
484.54
484.572
484.539
484.699
484.699
484.586
484.57
484.698
484.698
484.618
484.585
484.618
484.543
484.571
484.587
484.541
484.572
484.699
484.698
484.619
484.588
484.698
484.698
484.646
484.539
484.618
484.647
484.578
484.542
484.588
484.618
484.546
484.546
484.619
484.646
484.577
484.543
484.578
484.529
484.529
484.543
484.543
484.544
484.58
484.543
484.543
484.58
484.545
484.528
484.543
484.546
484.543
484.58
484.572
484.572
484.587
484.588
484.62
484.619
484.647
484.541
484.587
484.572
484.62
484.587
484.647
484.619
484.542
484.545
484.58
484.543
484.54
484.54
484.577
484.542
484.586
484.536
484.569
484.617
484.646
484.583
484.617
484.571
484.57
484.539
484.646
484.619
484.618
484.585
484.579
484.542
484.542
484.527
484.54
484.542
484.577
484.541
484.578
484.543
484.541
484.526
484.543
484.541
484.541
484.579
484.572
484.587
484.62
484.571
484.587
484.619
484.647
484.541
484.62
484.587
484.588
484.572
484.647
484.619
484.544
484.542
484.579
484.542
484.587
484.571
484.619
484.571
484.619
484.587
484.647
484.539
484.619
484.572
484.619
484.572
484.647
484.587
484.618
484.537
484.585
484.587
484.646
484.57
484.618
484.571
484.585
484.538
484.646
484.587
484.618
484.57
484.544
484.54
484.578
484.541
484.618
484.54
484.571
484.619
484.646
484.571
484.587
484.585
484.571
484.54
484.646
484.618
484.587
484.571
484.577
484.539
484.54
484.54
484.542
484.579
484.546
484.587
484.619
484.647
484.54
484.571
484.587
484.619
484.571
484.647
484.618
484.571
484.538
484.618
484.584
484.578
484.541
484.542
484.62
484.588
484.647
484.543
484.589
484.573
484.62
484.571
484.646
484.587
484.586
484.541
484.619
484.572
484.647
484.57
484.618
484.573
484.62
484.54
484.586
484.587
484.618
484.57
484.618
484.571
484.585
484.538
484.577
484.541
484.544
484.646
484.571
484.587
484.586
484.619
484.541
484.572
484.619
484.588
484.572
484.619
484.587
484.572
484.543
484.541
484.541
484.545
484.532
484.54
484.545
484.578
484.541
484.578
484.542
484.54
484.527
484.548
484.544
484.581
484.544
484.619
484.62
484.647
484.543
484.572
484.573
484.587
484.586
484.646
484.619
484.57
484.539
484.587
484.571
484.579
484.543
484.541
484.58
484.545
484.542
484.646
484.585
484.618
484.571
484.586
484.537
484.57
484.618
484.618
484.586
484.586
484.57
484.57
484.538
484.54
484.542
484.539
484.529
484.578
484.542
484.54
484.544
484.542
484.54
)
;

boundaryField
{
    sphere_to_oil
    {
        type            compressible::turbulentTemperatureCoupledBaffleMixed;
        refValue        nonuniform List<scalar> 
360
(
339.109
339.109
313.784
360.966
368.955
316.304
370.129
370.129
370.129
340.135
340.135
316.83
318.748
311.979
337.318
364.529
359.197
359.197
359.197
313.139
356.837
334.799
332.32
365.003
312.366
365.973
315.675
365.498
365.498
365.498
371.037
363.435
313.816
313.604
316.639
316.8
359.688
359.688
359.688
359.036
367.892
314.718
316.754
339.053
339.053
315.575
318.802
310.353
336.91
366.391
316.464
316.334
318.421
318.715
312.884
335.004
360.272
313.122
316.747
318.434
310.869
366.711
366.711
366.711
310.353
365.365
336.692
324.432
369.327
369.327
369.327
369.222
367.699
311.635
357.602
336.588
312.237
330.693
367.676
360.045
333.433
322.038
332.541
310.75
313.781
316.19
317.012
318.613
312.013
313.266
313.806
318.56
316.742
313.959
318.421
316.674
316.975
316.855
314.287
311.192
311.278
312.043
316.297
316.769
318.576
311.942
312.108
318.763
314.289
316.999
317.048
316.899
314.318
312.995
310.721
310.668
326.135
324.088
327.289
339.08
339.08
360.966
360.966
365.003
365.003
362.319
362.319
362.319
364.682
364.682
364.682
326.703
324.068
326.128
312.561
368.955
368.955
337.456
337.456
371.037
371.037
335.19
335.19
370.302
370.302
370.302
312.547
312.573
364.971
364.971
364.971
365.438
365.438
365.438
364.529
356.837
337.318
364.529
362.597
312.218
362.597
362.597
332.406
333.009
322.616
334.294
334.294
369.577
369.577
369.577
310.573
356.837
334.799
368.605
368.605
310.635
368.605
333.195
322.456
310.452
315.611
315.833
319.072
312.274
318.796
315.824
310.424
311.199
365.973
365.973
363.435
363.435
339.051
339.051
361.18
361.18
361.18
337.32
337.32
311.131
316.393
316.474
318.728
316.592
316.21
318.731
314.188
318.762
316.903
314.176
359.036
318.806
317.103
313.14
368.517
368.517
368.517
335.75
335.75
310.466
316.891
316.892
318.389
367.892
314.541
318.291
316.882
359.036
367.892
335.844
313.024
335.844
310.929
310.711
318.739
312.346
315.773
315.695
315.888
312.204
310.847
366.875
359.419
366.875
366.875
359.419
359.419
366.391
365.365
336.91
362.813
311.209
366.391
362.813
362.813
318.232
313.602
316.822
318.526
313.947
369.222
316.487
316.904
317.076
314.271
360.272
357.602
316.949
316.883
314.265
359.246
363.075
335.004
368.237
310.97
360.272
368.237
368.237
318.703
314.568
367.676
316.854
316.694
316.73
367.804
314.503
367.394
336.191
359.246
336.191
367.804
359.246
367.804
310.342
323.874
325.202
325.627
337.77
361.261
337.77
361.261
361.261
311.068
365.365
362.515
336.692
362.515
311.165
362.515
326.613
326.293
311.743
367.267
335.816
367.267
367.267
335.816
311.954
316.168
316.614
318.639
367.699
369.222
335.899
312.323
367.699
335.899
311.991
357.602
364.202
336.588
364.202
311.71
364.202
318.814
360.045
314.375
316.988
362.89
359.501
363.075
337.245
363.075
362.89
337.245
362.89
321.828
332.499
367.676
335.326
310.672
360.045
335.326
313.287
367.394
359.501
367.394
336.283
359.501
336.283
)
;
        refGradient     uniform 0;
        valueFraction   nonuniform List<scalar> 
360
(
0.000131557
0.000126211
8.08016e-05
0.000288659
0.000296046
0.000169755
0.000297886
0.000255695
0.000398001
0.000126719
0.000123549
0.000165745
0.000252603
7.22241e-05
0.000129198
0.00025115
0.000287812
0.000268918
0.000377352
6.60888e-05
0.000247764
0.000121802
0.000112259
0.000297903
8.64916e-05
0.000306209
0.000172604
0.000302255
0.00039556
0.000264601
0.000302305
0.000304909
8.18737e-05
8.09591e-05
0.000169896
0.000167194
0.000282914
0.000383545
0.000263374
0.000396007
0.000391171
8.35253e-05
0.000165674
0.000120916
0.000120771
0.000170548
0.000255159
6.80748e-05
0.000121808
0.000258291
0.000168244
0.000169337
0.000252415
0.000249962
7.06194e-05
0.000129189
0.000263453
6.76516e-05
0.000167595
0.000249922
6.62188e-05
0.000294222
0.000259727
0.000406503
6.82694e-05
0.000265561
0.000123872
0.000119809
0.00030102
0.000392693
0.000264153
0.000378682
0.000383983
7.3335e-05
0.000256024
0.000129881
6.76129e-05
0.00012124
0.000383167
0.000398043
0.000118913
0.00011667
0.000114594
6.8105e-05
8.2128e-05
0.000166505
0.000167437
0.000253567
7.65413e-05
6.46276e-05
8.12802e-05
0.000253154
0.00016712
8.30285e-05
0.000252736
0.000169029
0.000168028
0.000168287
8.20641e-05
6.5779e-05
6.67017e-05
6.5814e-05
0.000169195
0.000166296
0.000252962
7.44751e-05
6.46892e-05
0.000252779
8.03025e-05
0.000166557
0.000166589
0.000169987
8.31216e-05
6.65597e-05
6.49131e-05
6.61672e-05
0.000115174
0.000115313
0.000119793
0.000129897
0.000122085
0.00025226
0.000397392
0.000265773
0.000401047
0.00025707
0.000395228
0.00029427
0.000257277
0.000386625
0.000289808
0.000118208
0.000111788
0.0001145
6.32075e-05
0.000262144
0.000394691
0.000122115
0.000122673
0.000398871
0.0002652
0.000128012
0.000134918
0.000393961
0.000270634
0.000311851
6.95638e-05
6.47364e-05
0.000273242
0.000378643
0.000300132
0.000281337
0.000391753
0.000300101
0.000309846
0.000285406
0.000133505
0.000397936
0.000257044
7.16638e-05
0.000386768
0.00028943
0.000110452
0.000116366
0.00011512
0.000121445
0.000126949
0.000395945
0.000260707
0.000306016
7.33729e-05
0.000380884
0.000130602
0.000400508
0.00025639
7.16694e-05
0.000304003
0.000111433
0.000112467
6.57101e-05
0.000172235
0.000172166
0.000254577
8.48933e-05
0.000254962
0.00016776
6.50354e-05
6.31516e-05
0.000398409
0.000253144
0.000393733
0.000262504
0.000125213
0.000117098
0.00039557
0.000247225
0.00028577
0.000115747
0.000134302
6.75663e-05
0.000169207
0.000169054
0.000252582
0.000165382
0.000166234
0.000251587
8.62313e-05
0.000252449
0.000171169
8.38576e-05
0.000284148
0.00025217
0.000170144
6.78068e-05
0.000386923
0.000250835
0.000293479
0.000122267
0.000113622
6.56314e-05
0.000167891
0.000170715
0.000253119
0.000287782
8.04868e-05
0.000250717
0.000163743
0.000249059
0.000263664
0.000119686
6.72255e-05
0.00013281
6.80566e-05
6.40625e-05
0.000255945
8.54138e-05
0.000172067
0.000170077
0.00016805
8.43401e-05
6.44241e-05
0.000261691
0.000245211
0.000411656
0.000306416
0.000384053
0.000275941
0.000295759
0.000302816
0.0001346
0.000259778
6.99895e-05
0.000395318
0.000384389
0.000292053
0.000254728
8.11655e-05
0.000165746
0.0002518
8.18925e-05
0.000300038
0.000166463
0.000167653
0.000166109
8.13962e-05
0.000297799
0.000279064
0.000169472
0.000165091
8.29635e-05
0.000279613
0.00030778
0.00012206
0.000276286
6.56167e-05
0.000393625
0.000381619
0.000288355
0.000249931
8.21035e-05
0.000288808
0.000166299
0.000166555
0.000167503
0.000290381
8.28728e-05
0.000296684
0.000124838
0.000255797
0.000125879
0.000260665
0.000397236
0.000389971
6.5586e-05
0.000131429
0.000129876
0.000127031
0.000115684
0.000387042
0.00012635
0.000257308
0.000302994
6.46302e-05
0.00039082
0.000390348
0.000127784
0.000277546
6.77299e-05
0.000297551
0.000113289
0.000111294
6.7674e-05
0.000382788
0.000114399
0.000251036
0.000295656
0.000122647
6.68596e-05
0.000166364
0.000166307
0.000250954
0.000287154
0.000249065
0.000120418
6.48187e-05
0.000253237
0.000133744
7.48611e-05
0.000366978
0.00039406
0.000116463
0.000250319
6.94001e-05
0.000314813
0.000252877
0.000302979
8.28824e-05
0.000167079
0.000292109
0.000283194
0.000266424
0.000119084
0.000390269
0.000389429
0.000141362
0.000260311
0.00011453
0.000116287
0.000262062
0.000129726
7.01391e-05
0.000265043
0.000124915
6.47727e-05
0.000385752
0.000390384
0.000256858
0.000124653
0.000252307
0.000128764
)
;
        value           nonuniform List<scalar> 
360
(
484.544
484.545
484.548
484.526
484.528
484.564
484.527
484.534
484.521
484.543
484.543
484.563
484.565
484.551
484.545
484.534
484.52
484.527
484.515
484.551
484.531
484.544
484.53
484.526
484.546
484.525
484.564
484.526
484.518
484.531
484.526
484.523
484.546
484.546
484.562
484.564
484.523
484.517
484.528
484.514
484.518
484.547
484.564
484.544
484.545
484.562
484.566
484.55
484.543
484.531
484.565
484.564
484.566
484.566
484.548
484.541
484.527
484.55
484.564
484.567
484.551
484.526
484.531
484.518
484.551
484.531
484.544
484.529
484.529
484.524
484.534
484.523
484.522
484.554
484.534
484.547
484.549
484.531
484.519
484.515
484.532
484.531
484.532
484.551
484.55
484.563
484.564
484.565
484.547
484.55
484.547
484.566
484.565
484.545
484.566
484.563
484.563
484.562
484.545
484.552
484.552
484.552
484.564
484.565
484.566
484.55
484.55
484.565
484.543
484.562
484.564
484.562
484.545
484.549
484.553
484.552
484.531
484.531
484.53
484.544
484.546
484.532
484.516
484.532
484.517
484.532
484.517
484.525
484.533
484.519
484.527
484.531
484.531
484.531
484.553
484.533
484.521
484.546
484.546
484.522
484.534
484.544
484.544
484.521
484.533
484.524
484.552
484.55
484.528
484.517
484.521
484.528
484.516
484.522
484.522
484.523
484.543
484.515
484.531
484.55
484.515
484.524
484.531
484.53
484.529
484.542
484.543
484.517
484.532
484.526
484.549
484.515
484.542
484.517
484.532
484.549
484.525
484.53
484.529
484.55
484.564
484.563
484.566
484.548
484.566
484.564
484.551
484.551
484.517
484.532
484.517
484.53
484.543
484.545
484.516
484.533
484.524
484.546
484.543
484.551
484.564
484.564
484.566
484.565
484.564
484.566
484.543
484.566
484.562
484.545
484.523
484.566
484.562
484.549
484.52
484.533
484.527
484.543
484.545
484.55
484.564
484.563
484.566
484.527
484.547
484.566
484.564
484.529
484.53
484.542
484.549
484.541
484.549
484.55
484.565
484.546
484.562
484.563
484.563
484.544
484.552
484.53
484.532
484.519
484.525
484.519
484.529
484.524
484.523
484.542
484.53
484.55
484.516
484.516
484.526
484.566
484.55
484.566
484.566
484.548
484.527
484.564
484.563
484.566
484.547
484.523
484.525
484.563
484.564
484.545
484.524
484.522
484.543
484.529
484.55
484.516
484.52
484.528
484.567
484.547
484.528
484.565
484.565
484.565
484.53
484.55
484.529
484.543
484.53
484.543
484.532
484.516
484.52
484.55
484.531
484.532
484.532
484.544
484.518
484.543
484.53
484.527
484.55
484.517
484.516
484.542
484.527
484.549
484.523
484.53
484.53
484.553
484.524
484.548
484.536
484.529
484.547
484.553
484.565
484.566
484.566
484.526
484.535
484.545
484.552
484.532
484.542
484.549
484.519
484.518
484.545
484.532
484.551
484.52
484.565
484.52
484.544
484.563
484.523
484.523
484.529
484.543
484.516
484.516
484.539
484.528
484.531
484.532
484.532
484.543
484.55
484.528
484.543
484.55
484.52
484.516
484.533
484.544
484.529
484.542
)
;
        Tnbr            T;
        thicknessLayers 0();
        kappaLayers     0();
        kappaMethod     solidThermo;
        kappa           none;
        alphaAni        none;
    }
}


// ************************************************************************* //
