/*--------------------------------*- C++ -*----------------------------------*\
| =========                 |                                                 |
| \\      /  F ield         | OpenFOAM: The Open Source CFD Toolbox           |
|  \\    /   O peration     | Version:  v1906                                 |
|   \\  /    A nd           | Web:      www.OpenFOAM.com                      |
|    \\/     M anipulation  |                                                 |
\*---------------------------------------------------------------------------*/
FoamFile
{
    version     2.0;
    format      ascii;
    class       surfaceScalarField;
    location    "72.8/oil";
    object      phi;
}
// * * * * * * * * * * * * * * * * * * * * * * * * * * * * * * * * * * * * * //

dimensions      [1 0 -1 0 0 0 0];
oriented        oriented;


internalField   nonuniform List<scalar> 
80688
(
-2.1421e-06
-2.17839e-06
-2.14209e-06
-9.66342e-07
-6.08171e-07
-5.67583e-07
-2.59485e-07
-3.56158e-07
-3.507e-07
-1.22205e-07
-6.93641e-08
-6.79163e-08
-4.06955e-08
-4.12783e-08
-4.02309e-08
4.26832e-11
-2.06727e-08
-2.00654e-08
2.27135e-08
-1.13975e-08
-1.12732e-08
3.53875e-08
-6.22807e-09
-6.44585e-09
4.1554e-08
-2.9026e-09
-3.26391e-09
4.27141e-08
-4.40373e-10
-7.19627e-10
3.96683e-08
1.58521e-09
1.46064e-09
3.30524e-08
3.24823e-09
3.36769e-09
2.35635e-08
4.55448e-09
4.93446e-09
1.20313e-08
5.47067e-09
6.06156e-09
-5.87976e-10
5.95552e-09
6.66377e-09
-1.32732e-08
5.98793e-09
6.69736e-09
-2.50183e-08
5.57537e-09
6.16968e-09
-3.49178e-08
4.75704e-09
5.14253e-09
-4.22507e-08
3.60324e-09
3.72965e-09
-4.65353e-08
2.20262e-09
2.08207e-09
-4.75732e-08
6.51007e-10
3.86828e-10
-4.54457e-08
-9.08486e-10
-1.21891e-09
-4.05262e-08
-2.38854e-09
-2.53097e-09
-3.34413e-08
-3.68887e-09
-3.39606e-09
-2.50401e-08
-4.68944e-09
-3.7117e-09
-1.63539e-08
-5.25212e-09
-3.43411e-09
-8.53445e-09
-5.19526e-09
-2.62412e-09
-2.73939e-09
-4.29203e-09
-1.503e-09
1.22444e-10
-2.32286e-09
-5.3894e-10
2.39671e-10
-1.17209e-10
-5.75624e-07
-1.02715e-06
-5.75617e-07
-3.40704e-07
-3.82598e-07
-4.60492e-07
-2.36083e-07
-2.65093e-07
-1.95686e-07
-1.02329e-07
-1.2598e-07
-7.71383e-08
-2.22679e-08
-8.37706e-08
-3.75692e-08
2.7611e-08
-5.72757e-08
-1.32758e-08
5.98142e-08
-4.34635e-08
-1.37108e-10
7.9518e-08
-3.42625e-08
8.33075e-09
8.91891e-08
-2.73099e-08
1.47362e-08
9.00171e-08
-2.14402e-08
2.01719e-08
8.28773e-08
-1.62884e-08
2.50135e-08
6.87293e-08
-1.18515e-08
2.92478e-08
4.88482e-08
-8.26629e-09
3.27019e-08
2.48623e-08
-5.71979e-09
3.51764e-08
-1.31711e-09
-4.36186e-09
3.64968e-08
-2.76277e-08
-4.27273e-09
3.65713e-08
-5.20314e-08
-5.43503e-09
3.54141e-08
-7.26966e-08
-7.72812e-09
3.31504e-08
-8.81604e-08
-1.09394e-08
3.00065e-08
-9.74495e-08
-1.47815e-08
2.62733e-08
-1.00165e-07
-1.89256e-08
2.22926e-08
-9.64782e-08
-2.30072e-08
1.84115e-08
-8.71331e-08
-2.66671e-08
1.49334e-08
-7.33804e-08
-2.95367e-08
1.20951e-08
-5.68837e-08
-3.12259e-08
1.00398e-08
-3.96001e-08
-3.12947e-08
8.75901e-09
-2.36091e-08
-2.92249e-08
8.03862e-09
-1.08605e-08
-2.44266e-08
7.38605e-09
-2.80047e-09
-1.63293e-08
5.9464e-09
-5.36906e-09
2.80828e-09
-3.56356e-07
-3.14448e-07
-3.56348e-07
-2.3108e-07
-3.10536e-07
-1.97338e-07
-1.42188e-07
-2.36469e-07
-1.17516e-07
-5.26743e-08
-1.63013e-07
-5.24798e-08
1.15665e-08
-1.30077e-07
-1.79348e-08
5.86539e-08
-1.08075e-07
3.7116e-09
9.18258e-08
-9.39403e-08
1.73049e-08
1.13045e-07
-8.27002e-08
2.72186e-08
1.23165e-07
-7.27955e-08
3.53661e-08
1.2266e-07
-6.35455e-08
4.26097e-08
1.12145e-07
-5.49388e-08
4.91656e-08
9.26306e-08
-4.72699e-08
5.49328e-08
6.56825e-08
-4.09593e-08
5.96412e-08
3.33774e-08
-3.64276e-08
6.30129e-08
-1.79081e-09
-3.4002e-08
6.48084e-08
-3.71193e-08
-3.38509e-08
6.49067e-08
-6.99301e-08
-3.59482e-08
6.33241e-08
-9.78108e-08
-4.00678e-08
6.02204e-08
-1.18842e-07
-4.57977e-08
5.58897e-08
-1.31744e-07
-5.25873e-08
5.07075e-08
-1.35993e-07
-5.97887e-08
4.51122e-08
-1.31817e-07
-6.67011e-08
3.95178e-08
-1.20181e-07
-7.2609e-08
3.43061e-08
-1.02673e-07
-7.67834e-08
2.97389e-08
-8.13793e-08
-7.84677e-08
2.59478e-08
-5.87014e-08
-7.68406e-08
2.2868e-08
-3.71165e-08
-7.09852e-08
2.01755e-08
-1.89054e-08
-5.98536e-08
1.72159e-08
-5.91098e-09
-4.22471e-08
1.29234e-08
-1.71997e-08
5.91964e-09
-6.45763e-08
-1.85304e-07
-6.45677e-08
-7.83133e-08
-2.25769e-07
-7.103e-08
-4.66287e-08
-2.19802e-07
-4.8352e-08
3.97518e-09
-1.9735e-07
-1.62666e-08
5.11722e-08
-1.83129e-07
5.85555e-09
9.12564e-08
-1.70325e-07
2.21664e-08
1.21934e-07
-1.59018e-07
3.43996e-08
1.42198e-07
-1.47518e-07
4.4554e-08
1.51305e-07
-1.35552e-07
5.36501e-08
1.48919e-07
-1.23278e-07
6.21179e-08
1.35286e-07
-1.11249e-07
6.99439e-08
1.11347e-07
-1.0022e-07
7.68892e-08
7.88022e-08
-9.09978e-08
8.25829e-08
4.00311e-08
-8.43217e-08
8.66654e-08
-2.07129e-09
-8.07374e-08
8.88377e-08
-4.43366e-08
-8.05318e-08
8.89463e-08
-8.3619e-08
-8.36736e-08
8.70077e-08
-1.17087e-07
-8.98129e-08
8.32132e-08
-1.42481e-07
-9.83098e-08
7.79062e-08
-1.58312e-07
-1.08292e-07
7.15355e-08
-1.63962e-07
-1.18739e-07
6.46e-08
-1.59703e-07
-1.28549e-07
5.75888e-08
-1.46629e-07
-1.36599e-07
5.09166e-08
-1.26545e-07
-1.41736e-07
4.48687e-08
-1.01778e-07
-1.428e-07
3.9565e-08
-7.49715e-08
-1.38546e-07
3.48995e-08
-4.88434e-08
-1.27594e-07
3.04807e-08
-2.59335e-08
-1.08309e-07
2.55455e-08
-8.58796e-09
-7.84524e-08
1.88598e-08
-3.43849e-08
8.59732e-09
-2.91542e-08
-1.27005e-07
-2.91444e-08
-2.45935e-08
-2.05176e-07
-2.51533e-08
3.20351e-09
-2.37938e-07
-9.66087e-09
4.3076e-08
-2.46587e-07
9.36382e-09
8.35475e-08
-2.48466e-07
2.4866e-08
1.2e-07
-2.4463e-07
3.78526e-08
1.48965e-07
-2.37021e-07
4.90385e-08
1.68195e-07
-2.26083e-07
5.93351e-08
1.76104e-07
-2.1266e-07
6.91992e-08
1.71831e-07
-1.97735e-07
7.87301e-08
1.55338e-07
-1.82473e-07
8.77165e-08
1.27508e-07
-1.68153e-07
9.57636e-08
9.01298e-08
-1.56024e-07
1.02405e-07
4.58162e-08
-1.4718e-07
1.07172e-07
-2.20189e-09
-1.42427e-07
1.09708e-07
-5.0372e-08
-1.42181e-07
1.09819e-07
-9.51525e-08
-1.46412e-07
1.07519e-07
-1.33361e-07
-1.54635e-07
1.03031e-07
-1.62464e-07
-1.65962e-07
9.67553e-08
-1.80799e-07
-1.79173e-07
8.92167e-08
-1.87682e-07
-1.9285e-07
8.09937e-08
-1.83411e-07
-2.05458e-07
7.26379e-08
-1.69194e-07
-2.15417e-07
6.46013e-08
-1.46985e-07
-2.21152e-07
5.72066e-08
-1.19288e-07
-2.21066e-07
5.05693e-08
-8.89333e-08
-2.1346e-07
4.45581e-08
-5.88344e-08
-1.96423e-07
3.87302e-08
-3.18197e-08
-1.67549e-07
3.2225e-08
-1.07624e-08
-1.23157e-07
2.36476e-08
-5.59199e-08
1.07726e-08
-5.22938e-09
-1.16557e-07
-5.21829e-09
8.66854e-09
-2.21974e-07
2.90032e-09
3.62229e-08
-2.80094e-07
1.4602e-08
7.24291e-08
-3.10395e-07
2.76023e-08
1.10239e-07
-3.25776e-07
3.94991e-08
1.4511e-07
-3.30112e-07
5.06104e-08
1.7325e-07
-3.26455e-07
6.12944e-08
1.9181e-07
-3.16581e-07
7.19384e-08
1.98713e-07
-3.02227e-07
8.26639e-08
1.92742e-07
-2.85098e-07
9.33334e-08
1.73663e-07
-2.66957e-07
1.03563e-07
1.42301e-07
-2.49603e-07
1.12811e-07
1.00528e-07
-2.34738e-07
1.20487e-07
5.11766e-08
-2.23838e-07
1.26009e-07
-2.21784e-09
-2.17972e-07
1.2894e-07
-5.57425e-08
-2.17702e-07
1.29046e-07
-1.05494e-07
-2.22999e-07
1.26339e-07
-1.47959e-07
-2.33245e-07
1.21075e-07
-1.80358e-07
-2.47288e-07
1.13725e-07
-2.00882e-07
-2.63559e-07
1.04909e-07
-2.08796e-07
-2.80234e-07
9.52986e-08
-2.04438e-07
-2.95328e-07
8.55118e-08
-1.8912e-07
-3.06828e-07
7.60939e-08
-1.64934e-07
-3.12718e-07
6.73801e-08
-1.34548e-07
-3.10952e-07
5.95003e-08
-1.00964e-07
-2.99349e-07
5.23052e-08
-6.73097e-08
-2.75386e-07
4.53091e-08
-3.67021e-08
-2.35716e-07
3.75596e-08
-1.25131e-08
-1.74835e-07
2.74891e-08
-8.09574e-08
1.25244e-08
5.47853e-09
-1.27527e-07
5.49088e-09
2.58624e-08
-2.6007e-07
1.77119e-08
5.64338e-08
-3.39679e-07
2.90128e-08
9.32775e-08
-3.87181e-07
3.99423e-08
1.31307e-07
-4.14184e-07
5.03794e-08
1.66359e-07
-4.25978e-07
6.08132e-08
1.94659e-07
-4.26345e-07
7.15906e-08
2.13118e-07
-4.17949e-07
8.29093e-08
2.19398e-07
-4.03221e-07
9.47136e-08
2.12046e-07
-3.84451e-07
1.06705e-07
1.90686e-07
-3.63951e-07
1.18355e-07
1.56111e-07
-3.44004e-07
1.28976e-07
1.10291e-07
-3.26745e-07
1.37827e-07
5.62541e-08
-3.14016e-07
1.44215e-07
-2.15297e-09
-3.07167e-07
1.47602e-07
-6.0666e-08
-3.06888e-07
1.47699e-07
-1.15025e-07
-3.13158e-07
1.44517e-07
-1.61399e-07
-3.25229e-07
1.38359e-07
-1.96776e-07
-3.41697e-07
1.29785e-07
-2.19208e-07
-3.60645e-07
1.19518e-07
-2.27935e-07
-3.79851e-07
1.08344e-07
-2.2335e-07
-3.96916e-07
9.70031e-08
-2.06883e-07
-4.09397e-07
8.61012e-08
-1.80771e-07
-4.14856e-07
7.60259e-08
-1.47851e-07
-4.10799e-07
6.69272e-08
-1.11304e-07
-3.94534e-07
5.86382e-08
-7.4472e-08
-3.62846e-07
5.0628e-08
-4.07524e-08
-3.11295e-07
4.18597e-08
-1.39351e-08
-2.32251e-07
3.05986e-08
-1.0884e-07
1.39476e-08
1.09085e-08
-1.49357e-07
1.0922e-08
3.59724e-08
-3.11313e-07
2.61785e-08
6.97745e-08
-4.11479e-07
3.79979e-08
1.0853e-07
-4.74375e-07
4.84387e-08
1.47946e-07
-5.12115e-07
5.85161e-08
1.84061e-07
-5.31091e-07
6.89988e-08
2.13124e-07
-5.35722e-07
8.03133e-08
2.31938e-07
-5.29367e-07
9.26039e-08
2.37955e-07
-5.14955e-07
1.05717e-07
2.29571e-07
-4.95292e-07
1.19225e-07
2.06279e-07
-4.73139e-07
1.3248e-07
1.68854e-07
-4.51234e-07
1.44656e-07
1.19347e-07
-4.32093e-07
1.54856e-07
6.10049e-08
-4.17902e-07
1.62227e-07
-2.03649e-09
-4.1025e-07
1.66125e-07
-6.51613e-08
-4.09976e-07
1.66213e-07
-1.23756e-07
-4.17059e-07
1.62496e-07
-1.73679e-07
-4.30628e-07
1.55322e-07
-2.11695e-07
-4.49032e-07
1.45352e-07
-2.3574e-07
-4.70058e-07
1.33458e-07
-2.4505e-07
-4.91102e-07
1.20562e-07
-2.40102e-07
-5.09385e-07
1.07521e-07
-2.22442e-07
-5.22074e-07
9.50176e-08
-1.94477e-07
-5.26335e-07
8.35127e-08
-1.59217e-07
-5.19243e-07
7.3183e-08
-1.20021e-07
-4.97582e-07
6.38518e-08
-8.04234e-08
-4.57381e-07
5.49376e-08
-4.4071e-08
-3.92963e-07
4.53155e-08
-1.50883e-08
-2.94331e-07
3.30976e-08
-1.3903e-07
1.5102e-08
1.38196e-08
-1.7701e-07
1.38337e-08
4.20698e-08
-3.70743e-07
3.11801e-08
7.86227e-08
-4.91737e-07
4.37061e-08
1.19475e-07
-5.69518e-07
5.42896e-08
1.60609e-07
-6.17798e-07
6.45489e-08
1.98111e-07
-6.44086e-07
7.54919e-08
2.2824e-07
-6.53475e-07
8.76251e-08
2.47683e-07
-6.4989e-07
1.0108e-07
2.53761e-07
-6.36705e-07
1.15672e-07
2.44694e-07
-6.171e-07
1.30874e-07
2.199e-07
-5.94244e-07
1.459e-07
1.80086e-07
-5.71199e-07
1.59779e-07
1.27389e-07
-5.5083e-07
1.71434e-07
6.5253e-08
-5.35629e-07
1.79864e-07
-1.89377e-09
-5.27428e-07
1.84324e-07
-6.91022e-08
-5.27168e-07
1.844e-07
-1.31418e-07
-5.34838e-07
1.80095e-07
-1.84416e-07
-5.4945e-07
1.7182e-07
-2.24645e-07
-5.6916e-07
1.60357e-07
-2.49956e-07
-5.91452e-07
1.46706e-07
-2.59603e-07
-6.1339e-07
1.31934e-07
-2.5416e-07
-6.31894e-07
1.17067e-07
-2.35319e-07
-6.43802e-07
1.02887e-07
-2.05668e-07
-6.45911e-07
8.99259e-08
-1.68372e-07
-6.34902e-07
7.83632e-08
-1.26951e-07
-6.07024e-07
6.80218e-08
-8.5102e-08
-5.57537e-07
5.83068e-08
-4.66573e-08
-4.79394e-07
4.79862e-08
-1.59826e-08
-3.60026e-07
3.502e-08
-1.7101e-07
1.59973e-08
1.5421e-08
-2.07867e-07
1.54355e-08
4.57087e-08
-4.35122e-07
3.40919e-08
8.42312e-08
-5.77436e-07
4.71757e-08
1.26773e-07
-6.70131e-07
5.80715e-08
1.69361e-07
-7.29118e-07
6.87334e-08
2.08117e-07
-7.63155e-07
8.03129e-08
2.39302e-07
-7.7806e-07
9.34005e-08
2.5947e-07
-7.782e-07
1.08142e-07
2.65842e-07
-7.67364e-07
1.24287e-07
2.56493e-07
-7.49015e-07
1.41264e-07
2.30678e-07
-7.2658e-07
1.58151e-07
1.89083e-07
-7.03411e-07
1.73807e-07
1.33896e-07
-6.82643e-07
1.86999e-07
6.87246e-08
-6.67025e-07
1.96567e-07
-1.74453e-09
-6.58562e-07
2.01603e-07
-7.22572e-08
-6.58323e-07
2.01667e-07
-1.37557e-07
-6.663e-07
1.96762e-07
-1.92949e-07
-6.81394e-07
1.87335e-07
-2.34809e-07
-7.01581e-07
1.74281e-07
-2.60947e-07
-7.24105e-07
1.5879e-07
-2.70647e-07
-7.458e-07
1.42111e-07
-2.64615e-07
-7.633e-07
1.25373e-07
-2.44709e-07
-7.73196e-07
1.09488e-07
-2.13659e-07
-7.72015e-07
9.50538e-08
-1.74782e-07
-7.56075e-07
8.22962e-08
-1.31718e-07
-7.21132e-07
7.10439e-08
-8.82901e-08
-6.61589e-07
6.06238e-08
-4.84142e-08
-5.69024e-07
4.97545e-08
-1.65941e-08
-4.28148e-07
3.63018e-08
-2.04214e-07
1.66094e-08
1.61966e-08
-2.40274e-07
1.62102e-08
4.74976e-08
-5.0192e-07
3.5497e-08
8.70084e-08
-6.65835e-07
4.88889e-08
1.30423e-07
-7.73579e-07
6.00333e-08
1.73825e-07
-8.43594e-07
7.10736e-08
2.13374e-07
-8.86001e-07
8.32965e-08
2.453e-07
-9.07326e-07
9.73402e-08
2.66134e-07
-9.12381e-07
1.13346e-07
2.7296e-07
-9.05231e-07
1.31041e-07
2.63706e-07
-8.89534e-07
1.49773e-07
2.37498e-07
-8.68871e-07
1.68499e-07
1.94942e-07
-8.46794e-07
1.85939e-07
1.38226e-07
-8.266e-07
2.00674e-07
7.10798e-08
-8.11249e-07
2.11371e-07
-1.60454e-09
-8.02869e-07
2.16991e-07
-7.43159e-08
-8.02654e-07
2.17042e-07
-1.41546e-07
-8.10583e-07
2.11513e-07
-1.98376e-07
-8.25492e-07
2.00929e-07
-2.41093e-07
-8.45187e-07
1.86323e-07
-2.67488e-07
-8.66727e-07
1.69017e-07
-2.76904e-07
-8.86805e-07
1.50421e-07
-2.70219e-07
-9.01835e-07
1.31851e-07
-2.49456e-07
-9.08299e-07
1.1434e-07
-2.17468e-07
-9.02528e-07
9.8525e-08
-1.77675e-07
-8.80544e-07
8.46753e-08
-1.33789e-07
-8.37636e-07
7.26189e-08
-8.96301e-08
-7.67424e-07
6.16757e-08
-4.91477e-08
-6.59996e-07
5.04901e-08
-1.68633e-08
-4.9725e-07
3.68175e-08
-2.37956e-07
1.6879e-08
1.62984e-08
-2.72884e-07
1.63116e-08
4.75653e-08
-5.68729e-07
3.55421e-08
8.692e-08
-7.54055e-07
4.88651e-08
1.30104e-07
-8.76829e-07
6.00659e-08
1.73344e-07
-9.58214e-07
7.13796e-08
2.1287e-07
-1.00965e-06
8.41283e-08
2.44989e-07
-1.03842e-06
9.89722e-08
2.66245e-07
-1.04973e-06
1.16096e-07
2.73597e-07
-1.04777e-06
1.35191e-07
2.64882e-07
-1.03636e-06
1.55543e-07
2.39073e-07
-1.01908e-06
1.7602e-07
1.96597e-07
-9.99508e-07
1.95189e-07
1.39641e-07
-9.81083e-07
2.11439e-07
7.1931e-08
-9.66798e-07
2.23259e-07
-1.48171e-09
-9.58933e-07
2.29477e-07
-7.49088e-08
-9.58745e-07
2.29519e-07
-1.42653e-07
-9.66228e-07
2.23389e-07
-1.99689e-07
-9.8011e-07
2.11654e-07
-2.42229e-07
-9.98124e-07
1.95477e-07
-2.6811e-07
-1.01724e-06
1.76397e-07
-2.76884e-07
-1.03404e-06
1.56011e-07
-2.6953e-07
-1.04497e-06
1.3578e-07
-2.48224e-07
-1.04642e-06
1.16817e-07
-2.15942e-07
-1.03463e-06
9.98167e-08
-1.76126e-07
-1.00545e-06
8.50864e-08
-1.32441e-07
-9.53747e-07
7.24259e-08
-8.86637e-08
-8.72345e-07
6.11447e-08
-4.86258e-08
-7.49918e-07
4.9884e-08
-1.66956e-08
-5.65539e-07
3.63588e-08
-2.71362e-07
1.67109e-08
1.57535e-08
-3.04404e-07
1.57674e-08
4.58504e-08
-6.33063e-07
3.4237e-08
8.36774e-08
-8.38934e-07
4.70522e-08
1.25258e-07
-9.76395e-07
5.79858e-08
1.67008e-07
-1.06925e-06
6.92861e-08
2.05416e-07
-1.13035e-06
8.22897e-08
2.36944e-07
-1.16759e-06
9.76476e-08
2.58186e-07
-1.18656e-06
1.15583e-07
2.66114e-07
-1.19149e-06
1.35786e-07
2.58424e-07
-1.18618e-06
1.57504e-07
2.33916e-07
-1.17411e-06
1.79539e-07
1.92868e-07
-1.15874e-06
2.00277e-07
1.37288e-07
-1.14345e-06
2.17943e-07
7.0842e-08
-1.1312e-06
2.30846e-07
-1.38343e-09
-1.12436e-06
2.37651e-07
-7.36131e-08
-1.12419e-06
2.37679e-07
-1.40075e-07
-1.13069e-06
2.30929e-07
-1.95667e-07
-1.1426e-06
2.18082e-07
-2.36702e-07
-1.15755e-06
2.00462e-07
-2.61203e-07
-1.17254e-06
1.79795e-07
-2.68868e-07
-1.18423e-06
1.57859e-07
-2.60874e-07
-1.18919e-06
1.3623e-07
-2.39505e-07
-1.18388e-06
1.16093e-07
-2.07781e-07
-1.16459e-06
9.82404e-08
-1.69059e-07
-1.1271e-06
8.29362e-08
-1.26914e-07
-1.06588e-06
6.99851e-08
-8.48772e-08
-9.73083e-07
5.8702e-08
-4.6529e-08
-8.35981e-07
4.77147e-08
-1.60021e-08
-6.30823e-07
3.47574e-08
-3.03382e-07
1.60171e-08
1.45134e-08
-3.33436e-07
1.45187e-08
4.21426e-08
-6.92115e-07
3.14224e-08
7.68939e-08
-9.16876e-07
4.31902e-08
1.15195e-07
-1.06816e-06
5.34647e-08
1.539e-07
-1.17233e-06
6.43727e-08
1.89815e-07
-1.24347e-06
7.72064e-08
2.19688e-07
-1.29013e-06
9.2669e-08
2.40301e-07
-1.31812e-06
1.10949e-07
2.48716e-07
-1.33169e-06
1.31788e-07
2.42559e-07
-1.33443e-06
1.54411e-07
2.20461e-07
-1.32958e-06
1.77569e-07
1.82453e-07
-1.32034e-06
1.99616e-07
1.30246e-07
-1.30984e-06
2.18599e-07
6.73429e-08
-1.30086e-06
2.32569e-07
-1.30895e-09
-1.29568e-06
2.39973e-07
-6.99549e-08
-1.29554e-06
2.39989e-07
-1.32832e-07
-1.30044e-06
2.32618e-07
-1.85007e-07
-1.30911e-06
2.18683e-07
-2.22978e-07
-1.31934e-06
1.99756e-07
-2.45017e-07
-1.32826e-06
1.7776e-07
-2.51074e-07
-1.3328e-06
1.54621e-07
-2.42534e-07
-1.3298e-06
1.32064e-07
-2.21743e-07
-1.31597e-06
1.11298e-07
-1.91646e-07
-1.28776e-06
9.3073e-08
-1.55458e-07
-1.24096e-06
7.76689e-08
-1.16426e-07
-1.16978e-06
6.48663e-08
-7.77358e-08
-1.06572e-06
5.3942e-08
-4.2609e-08
-9.14736e-07
4.36279e-08
-1.4667e-08
-6.90527e-07
3.17615e-08
-3.32729e-07
1.46808e-08
1.25085e-08
-3.58459e-07
1.25143e-08
3.62419e-08
-7.42815e-07
2.69673e-08
6.61814e-08
-9.83932e-07
3.71169e-08
9.93419e-08
-1.14755e-06
4.6227e-08
1.33133e-07
-1.26236e-06
5.62409e-08
1.6488e-07
-1.34358e-06
6.83583e-08
1.91775e-07
-1.40027e-06
8.32407e-08
2.10935e-07
-1.43838e-06
1.011e-07
2.19631e-07
-1.46213e-06
1.21744e-07
2.15485e-07
-1.47479e-06
1.44504e-07
1.96965e-07
-1.47921e-06
1.68148e-07
1.63843e-07
-1.47817e-06
1.90945e-07
1.17439e-07
-1.47423e-06
2.10793e-07
6.08572e-08
-1.46989e-06
2.25605e-07
-1.25807e-09
-1.46709e-06
2.33529e-07
-6.33587e-08
-1.46697e-06
2.33532e-07
-1.19905e-07
-1.46951e-06
2.25622e-07
-1.66245e-07
-1.47359e-06
2.10825e-07
-1.99285e-07
-1.47728e-06
1.90983e-07
-2.17673e-07
-1.47809e-06
1.68223e-07
-2.21663e-07
-1.47346e-06
1.4465e-07
-2.12818e-07
-1.46058e-06
1.21939e-07
-1.93474e-07
-1.43664e-06
1.01319e-07
-1.6633e-07
-1.39841e-06
8.35019e-08
-1.34328e-07
-1.34161e-06
6.86522e-08
-1.00235e-07
-1.26042e-06
5.65545e-08
-6.67892e-08
-1.1457e-06
4.65387e-08
-3.65779e-08
-9.8235e-07
3.74031e-08
-1.2611e-08
-7.41685e-07
2.71912e-08
-3.57964e-07
1.26237e-08
9.69678e-09
-3.77856e-07
9.69965e-09
2.80631e-08
-7.81962e-07
2.07804e-08
5.12735e-08
-1.0358e-06
2.86579e-08
7.72434e-08
-1.20955e-06
3.60325e-08
1.04073e-07
-1.33372e-06
4.45288e-08
1.29762e-07
-1.42444e-06
5.51776e-08
1.52111e-07
-1.4912e-06
6.85827e-08
1.6875e-07
-1.54004e-06
8.50218e-08
1.77273e-07
-1.57501e-06
1.04356e-07
1.75485e-07
-1.599e-06
1.26e-07
1.61803e-07
-1.61437e-06
1.48838e-07
1.35605e-07
-1.62325e-06
1.71279e-07
9.77578e-08
-1.62757e-06
1.91187e-07
5.07919e-08
-1.62918e-06
2.0626e-07
-1.22413e-09
-1.6295e-06
2.14423e-07
-5.32175e-08
-1.62939e-06
2.14419e-07
-1.00122e-07
-1.62886e-06
2.06254e-07
-1.37866e-07
-1.62703e-06
1.91183e-07
-1.63957e-07
-1.62249e-06
1.71303e-07
-1.77497e-07
-1.61344e-06
1.48886e-07
-1.79138e-07
-1.59787e-06
1.26055e-07
-1.70425e-07
-1.57374e-06
1.04443e-07
-1.53553e-07
-1.53865e-06
8.51412e-08
-1.30994e-07
-1.4897e-06
6.87335e-08
-1.05046e-07
-1.42292e-06
5.53542e-08
-7.7967e-08
-1.33223e-06
4.4723e-08
-5.17266e-08
-1.20817e-06
3.62301e-08
-2.82805e-08
-1.03464e-06
2.88426e-08
-9.76433e-09
-7.8113e-07
2.09292e-08
-3.77504e-07
9.77588e-09
6.07536e-09
-3.90011e-07
6.07977e-09
1.75341e-08
-8.06287e-07
1.28663e-08
3.21875e-08
-1.06829e-06
1.78315e-08
4.88852e-08
-1.24911e-06
2.28603e-08
6.66537e-08
-1.38062e-06
2.91291e-08
8.42607e-08
-1.47949e-06
3.74364e-08
1.00306e-07
-1.55549e-06
4.82428e-08
1.13107e-07
-1.61467e-06
6.18278e-08
1.208e-07
-1.66087e-06
7.817e-08
1.21513e-07
-1.6966e-06
9.68852e-08
1.13693e-07
-1.72363e-06
1.17082e-07
9.64902e-08
-1.74334e-06
1.3729e-07
7.02043e-08
-1.75683e-06
1.55546e-07
3.65762e-08
-1.76516e-06
1.69609e-07
-1.20365e-09
-1.76902e-06
1.77303e-07
-3.89597e-08
-1.76895e-06
1.77313e-07
-7.25292e-08
-1.76489e-06
1.69602e-07
-9.86897e-08
-1.75638e-06
1.55507e-07
-1.15745e-07
-1.74269e-06
1.3725e-07
-1.23394e-07
-1.72284e-06
1.17052e-07
-1.22489e-07
-1.69565e-06
9.68724e-08
-1.1459e-07
-1.65982e-06
7.81804e-08
-1.01567e-07
-1.61354e-06
6.18656e-08
-8.5291e-08
-1.55428e-06
4.83071e-08
-6.74381e-08
-1.47829e-06
3.75238e-08
-4.94482e-08
-1.37945e-06
2.92337e-08
-3.25342e-08
-1.24806e-06
2.29739e-08
-1.77007e-08
-1.06742e-06
1.7943e-08
-6.12394e-09
-8.05669e-07
1.29624e-08
-3.89763e-07
6.13453e-09
1.71934e-09
-3.93444e-07
1.71373e-09
4.91383e-09
-8.12867e-07
3.38584e-09
9.2852e-09
-1.07747e-06
4.81293e-09
1.48338e-08
-1.26157e-06
6.91252e-09
2.15064e-08
-1.39752e-06
1.02301e-08
2.90944e-08
-1.50229e-06
1.52109e-08
3.7069e-08
-1.58569e-06
2.22213e-08
4.46365e-08
-1.65366e-06
3.14285e-08
5.06547e-08
-1.7098e-06
4.29091e-08
5.37566e-08
-1.75616e-06
5.64585e-08
5.26634e-08
-1.794e-06
7.14605e-08
4.63305e-08
-1.82391e-06
8.69033e-08
3.45572e-08
-1.84623e-06
1.01177e-07
1.80679e-08
-1.86108e-06
1.12409e-07
-1.19138e-09
-1.86846e-06
1.18696e-07
-2.04218e-08
-1.8684e-06
1.18679e-07
-3.68337e-08
-1.86084e-06
1.12362e-07
-4.84774e-08
-1.84584e-06
1.01108e-07
-5.46348e-08
-1.82338e-06
8.68478e-08
-5.55518e-08
-1.79333e-06
7.1403e-08
-5.22259e-08
-1.75537e-06
5.63915e-08
-4.5987e-08
-1.70892e-06
4.28599e-08
-3.82031e-08
-1.65272e-06
3.14029e-08
-2.99862e-08
-1.58472e-06
2.2219e-08
-2.21947e-08
-1.50131e-06
1.52298e-08
-1.52981e-08
-1.39661e-06
1.02688e-08
-9.56031e-09
-1.26076e-06
6.96561e-09
-5.0526e-09
-1.0768e-06
4.87569e-09
-1.74422e-09
-8.12425e-07
3.44726e-09
-3.93261e-07
1.75421e-09
-3.22008e-09
-3.87e-07
-3.22411e-09
-9.33004e-09
-7.99463e-07
-7.2947e-09
-1.65789e-08
-1.06036e-06
-9.85666e-09
-2.37034e-08
-1.24324e-06
-1.12058e-08
-2.97135e-08
-1.38004e-06
-1.14699e-08
-3.3786e-08
-1.48756e-06
-1.06525e-08
-3.54084e-08
-1.57542e-06
-8.63976e-09
-3.4376e-08
-1.6494e-06
-5.29658e-09
-3.09386e-08
-1.71268e-06
-5.56437e-10
-2.56577e-08
-1.76705e-06
5.60878e-09
-1.94773e-08
-1.81317e-06
1.29912e-08
-1.3392e-08
-1.85104e-06
2.10526e-08
-8.20965e-09
-1.88025e-06
2.88386e-08
-4.26665e-09
-1.90022e-06
3.51996e-08
-1.18189e-09
-1.91036e-06
3.88184e-08
1.93803e-09
-1.91029e-06
3.87704e-08
5.9861e-09
-1.9e-06
3.51133e-08
1.12919e-08
-1.87989e-06
2.87445e-08
1.75414e-08
-1.85054e-06
2.09171e-08
2.39279e-08
-1.81257e-06
1.28508e-08
2.94296e-08
-1.76636e-06
5.49693e-09
3.31097e-08
-1.71194e-06
-6.52948e-10
3.43625e-08
-1.6486e-06
-5.37483e-09
3.29814e-08
-1.57464e-06
-8.69508e-09
2.91275e-08
-1.48678e-06
-1.06849e-08
2.3306e-08
-1.37931e-06
-1.14828e-08
1.63521e-08
-1.24261e-06
-1.11981e-08
9.24925e-09
-1.05986e-06
-9.83139e-09
3.20246e-09
-7.9912e-07
-7.2584e-09
-3.86866e-07
-3.19267e-09
-8.49969e-09
-3.69997e-07
-8.50315e-09
-2.4516e-08
-7.64752e-07
-1.86946e-08
-4.40979e-08
-1.01526e-06
-2.55206e-08
-6.47659e-08
-1.19197e-06
-3.05985e-08
-8.44072e-08
-1.32557e-06
-3.48281e-08
-1.01165e-07
-1.43207e-06
-3.87351e-08
-1.1337e-07
-1.5207e-06
-4.25157e-08
-1.1978e-07
-1.59684e-06
-4.61522e-08
-1.19548e-07
-1.66344e-06
-4.94733e-08
-1.12415e-07
-1.72192e-06
-5.22605e-08
-9.87285e-08
-1.77252e-06
-5.43345e-08
-7.93731e-08
-1.81481e-06
-5.55857e-08
-5.56544e-08
-1.8479e-06
-5.60669e-08
-2.90887e-08
-1.87079e-06
-5.60006e-08
-1.16636e-09
-1.8825e-06
-5.57882e-08
2.67856e-08
-1.88243e-06
-5.5815e-08
5.34303e-08
-1.87058e-06
-5.6072e-08
7.73104e-08
-1.8476e-06
-5.61758e-08
9.68459e-08
-1.81436e-06
-5.57178e-08
1.10743e-07
-1.77199e-06
-5.44752e-08
1.18103e-07
-1.72132e-06
-5.24005e-08
1.1856e-07
-1.6628e-06
-4.96027e-08
1.12397e-07
-1.59617e-06
-4.6265e-08
1.00408e-07
-1.52005e-06
-4.26082e-08
8.38646e-08
-1.43143e-06
-3.88048e-08
6.4423e-08
-1.32499e-06
-3.48751e-08
4.39144e-08
-1.19148e-06
-3.0622e-08
2.44339e-08
-1.01486e-06
-2.55219e-08
8.48862e-09
-7.64498e-07
-1.86761e-08
-3.69899e-07
-8.47862e-09
-1.37755e-08
-3.42441e-07
-1.37801e-08
-3.96717e-08
-7.0881e-07
-3.0045e-08
-7.16e-08
-9.42234e-07
-4.10993e-08
-1.05823e-07
-1.10779e-06
-4.99596e-08
-1.39214e-07
-1.23385e-06
-5.83242e-08
-1.68841e-07
-1.33528e-06
-6.71646e-08
-1.91941e-07
-1.42061e-06
-7.699e-08
-2.06111e-07
-1.49474e-06
-8.79298e-08
-2.09414e-07
-1.56035e-06
-9.97891e-08
-2.00667e-07
-1.61849e-06
-1.12182e-07
-1.79556e-07
-1.66921e-06
-1.24421e-07
-1.46831e-07
-1.71187e-06
-1.35668e-07
-1.04251e-07
-1.74539e-06
-1.45091e-07
-5.45611e-08
-1.76863e-06
-1.51851e-07
-1.14409e-09
-1.78052e-06
-1.5539e-07
5.23081e-08
-1.78046e-06
-1.55416e-07
1.02097e-07
-1.76846e-06
-1.51902e-07
1.44802e-07
-1.74512e-06
-1.4518e-07
1.77715e-07
-1.71147e-06
-1.35805e-07
1.99038e-07
-1.66874e-06
-1.24573e-07
2.08013e-07
-1.61796e-06
-1.12337e-07
2.04935e-07
-1.55978e-06
-9.99376e-08
1.91011e-07
-1.49419e-06
-8.8064e-08
1.68126e-07
-1.42005e-06
-7.71071e-08
1.38716e-07
-1.33476e-06
-6.7259e-08
1.05502e-07
-1.23338e-06
-5.83945e-08
7.143e-08
-1.1074e-06
-5.00051e-08
3.96158e-08
-9.4193e-07
-4.11177e-08
1.37697e-08
-7.08615e-07
-3.00372e-08
-3.4237e-07
-1.3759e-08
-1.86855e-08
-3.05067e-07
-1.86889e-08
-5.37472e-08
-6.33179e-07
-4.05694e-08
-9.71142e-08
-8.43306e-07
-5.55611e-08
-1.43996e-07
-9.92981e-07
-6.79276e-08
-1.90299e-07
-1.10743e-06
-8.01223e-08
-2.32074e-07
-1.19988e-06
-9.36218e-08
-2.65539e-07
-1.27796e-06
-1.09191e-07
-2.87154e-07
-1.34606e-06
-1.2706e-07
-2.93953e-07
-1.40648e-06
-1.47065e-07
-2.83806e-07
-1.46011e-06
-1.68523e-07
-2.55799e-07
-1.50691e-06
-1.9031e-07
-2.1051e-07
-1.54617e-06
-2.10987e-07
-1.50147e-07
-1.57698e-06
-2.28777e-07
-7.86084e-08
-1.59827e-06
-2.419e-07
-1.11204e-09
-1.60914e-06
-2.4888e-07
7.64112e-08
-1.60908e-06
-2.48902e-07
1.48039e-07
-1.5981e-06
-2.41991e-07
2.08528e-07
-1.57671e-06
-2.28901e-07
2.54018e-07
-1.54584e-06
-2.11119e-07
2.82222e-07
-1.50648e-06
-1.90458e-07
2.92583e-07
-1.45965e-06
-1.68678e-07
2.86026e-07
-1.40601e-06
-1.47218e-07
2.64624e-07
-1.34558e-06
-1.27205e-07
2.3139e-07
-1.2775e-06
-1.09319e-07
1.8981e-07
-1.19945e-06
-9.37307e-08
1.43688e-07
-1.10705e-06
-8.02094e-08
9.6959e-08
-9.92697e-07
-6.79763e-08
5.36858e-08
-8.43077e-07
-5.55793e-08
1.86818e-08
-6.33041e-07
-4.05704e-08
-3.05017e-07
-1.8671e-08
-2.28176e-08
-2.59428e-07
-2.28209e-08
-6.55699e-08
-5.4104e-07
-4.93868e-08
-1.18624e-07
-7.22645e-07
-6.76066e-08
-1.76306e-07
-8.52415e-07
-8.2884e-08
-2.33757e-07
-9.51664e-07
-9.83135e-08
-2.86147e-07
-1.03174e-06
-1.15751e-07
-3.28693e-07
-1.09922e-06
-1.36194e-07
-3.56884e-07
-1.15788e-06
-1.59993e-07
-3.66803e-07
-1.20971e-06
-1.86857e-07
-3.55511e-07
-1.2555e-06
-2.15902e-07
-3.21576e-07
-1.29517e-06
-2.45671e-07
-2.65383e-07
-1.32826e-06
-2.74106e-07
-1.89666e-07
-1.35399e-06
-2.98708e-07
-9.93058e-08
-1.37165e-06
-3.1698e-07
-1.06641e-09
-1.38061e-06
-3.26776e-07
9.71999e-08
-1.38056e-06
-3.26795e-07
1.87637e-07
-1.3715e-06
-3.17039e-07
2.63497e-07
-1.35377e-06
-2.98801e-07
3.19824e-07
-1.32794e-06
-2.74225e-07
3.53978e-07
-1.29483e-06
-2.45812e-07
3.65486e-07
-1.2551e-06
-2.16048e-07
3.558e-07
-1.20931e-06
-1.87008e-07
3.2783e-07
-1.15747e-06
-1.60139e-07
2.8549e-07
-1.09883e-06
-1.36326e-07
2.33307e-07
-1.0314e-06
-1.15866e-07
1.76035e-07
-9.51372e-07
-9.84081e-08
1.1848e-07
-8.52176e-07
-8.29656e-08
6.55218e-08
-7.22466e-07
-6.76529e-08
2.2816e-08
-5.40942e-07
-4.9393e-08
-2.59396e-07
-2.28048e-08
-2.57479e-08
-2.07932e-07
-2.57477e-08
-7.40099e-08
-4.37167e-07
-5.56112e-08
-1.34166e-07
-5.86411e-07
-7.60777e-08
-1.99987e-07
-6.93231e-07
-9.33632e-08
-2.66007e-07
-7.74576e-07
-1.11068e-07
-3.26687e-07
-8.39709e-07
-1.31351e-07
-3.76444e-07
-8.94103e-07
-1.55355e-07
-4.09938e-07
-9.40918e-07
-1.83468e-07
-4.22437e-07
-9.81874e-07
-2.15335e-07
-4.10369e-07
-1.01766e-06
-2.49913e-07
-3.71883e-07
-1.04828e-06
-2.85377e-07
-3.07377e-07
-1.07349e-06
-3.1928e-07
-2.19876e-07
-1.09284e-06
-3.48653e-07
-1.15093e-07
-1.10596e-06
-3.70465e-07
-1.00919e-09
-1.11258e-06
-3.82109e-07
1.13098e-07
-1.11254e-06
-3.82124e-07
2.17953e-07
-1.10584e-06
-3.70513e-07
3.05565e-07
-1.09265e-06
-3.48733e-07
3.70235e-07
-1.07323e-06
-3.19381e-07
4.08906e-07
-1.048e-06
-2.85502e-07
4.2118e-07
-1.01733e-06
-2.50045e-07
4.08884e-07
-9.81543e-07
-2.15474e-07
3.75625e-07
-9.40608e-07
-1.83605e-07
3.2606e-07
-8.93786e-07
-1.55482e-07
2.65571e-07
-8.39445e-07
-1.31466e-07
1.9971e-07
-7.74347e-07
-1.11164e-07
1.34023e-07
-6.93055e-07
-9.34348e-08
7.39686e-08
-5.86293e-07
-7.61191e-08
2.57443e-08
-4.37097e-07
-5.56204e-08
-2.07918e-07
-2.57341e-08
-2.70543e-08
-1.5382e-07
-2.70583e-08
-7.7979e-08
-3.27916e-07
-5.83256e-08
-1.41898e-07
-4.42799e-07
-7.96925e-08
-2.12477e-07
-5.2487e-07
-9.77828e-08
-2.83865e-07
-5.86694e-07
-1.16494e-07
-3.49993e-07
-6.35394e-07
-1.38187e-07
-4.04675e-07
-6.7532e-07
-1.64101e-07
-4.41882e-07
-7.09103e-07
-1.94608e-07
-4.56371e-07
-7.38099e-07
-2.29286e-07
-4.441e-07
-7.62975e-07
-2.66951e-07
-4.02958e-07
-7.83845e-07
-3.05577e-07
-3.33338e-07
-8.00668e-07
-3.42438e-07
-2.38549e-07
-8.13342e-07
-3.74284e-07
-1.24837e-07
-8.21781e-07
-3.97894e-07
-9.37404e-10
-8.25976e-07
-4.10503e-07
1.22984e-07
-8.25944e-07
-4.10515e-07
2.36761e-07
-8.21686e-07
-3.97932e-07
3.31664e-07
-8.13208e-07
-3.7434e-07
4.01423e-07
-8.00491e-07
-3.42499e-07
4.42719e-07
-7.83626e-07
-3.05666e-07
4.55181e-07
-7.62725e-07
-2.67069e-07
4.40907e-07
-7.37855e-07
-2.29413e-07
4.03885e-07
-7.0885e-07
-1.94736e-07
3.49416e-07
-6.75094e-07
-1.64222e-07
2.83461e-07
-6.35192e-07
-1.38299e-07
2.12224e-07
-5.86522e-07
-1.16587e-07
1.41775e-07
-5.2475e-07
-9.78555e-08
7.79337e-08
-4.42716e-07
-7.97358e-08
2.70556e-08
-3.27881e-07
-5.83379e-08
-1.53815e-07
-2.70469e-08
-2.63324e-08
-1.01153e-07
-2.63339e-08
-7.64439e-08
-2.21163e-07
-5.66422e-08
-1.40253e-07
-3.01822e-07
-7.71677e-08
-2.11676e-07
-3.5893e-07
-9.45174e-08
-2.8474e-07
-4.00966e-07
-1.12663e-07
-3.53043e-07
-4.33061e-07
-1.3403e-07
-4.09972e-07
-4.585e-07
-1.59891e-07
-4.4918e-07
-4.79297e-07
-1.90598e-07
-4.65043e-07
-4.96572e-07
-2.25664e-07
-4.53329e-07
-5.10879e-07
-2.63809e-07
-4.11815e-07
-5.22447e-07
-3.02913e-07
-3.4092e-07
-5.31399e-07
-3.40163e-07
-2.44058e-07
-5.37879e-07
-3.72325e-07
-1.27695e-07
-5.42024e-07
-3.9612e-07
-8.50527e-10
-5.44027e-07
-4.08794e-07
1.26013e-07
-5.44004e-07
-4.08803e-07
2.42432e-07
-5.41956e-07
-3.96148e-07
3.39387e-07
-5.37771e-07
-3.72391e-07
4.10413e-07
-5.31262e-07
-3.40255e-07
4.5207e-07
-5.22279e-07
-3.03005e-07
4.6396e-07
-5.10704e-07
-2.63911e-07
4.48268e-07
-4.96388e-07
-2.25776e-07
4.09254e-07
-4.79124e-07
-1.90712e-07
3.525e-07
-4.58338e-07
-1.60002e-07
2.84363e-07
-4.32922e-07
-1.34134e-07
2.11447e-07
-4.00854e-07
-1.12751e-07
1.40138e-07
-3.58853e-07
-9.45884e-08
7.6409e-08
-3.01775e-07
-7.72114e-08
2.63319e-08
-2.21147e-07
-5.66571e-08
-1.01158e-07
-2.63256e-08
-2.31901e-08
-5.47716e-08
-2.31918e-08
-6.861e-08
-1.26046e-07
-4.96968e-08
-1.28033e-07
-1.75138e-07
-6.72609e-08
-1.96001e-07
-2.09016e-07
-8.19461e-08
-2.66617e-07
-2.3274e-07