/*--------------------------------*- C++ -*----------------------------------*\
| =========                 |                                                 |
| \\      /  F ield         | OpenFOAM: The Open Source CFD Toolbox           |
|  \\    /   O peration     | Version:  v1906                                 |
|   \\  /    A nd           | Web:      www.OpenFOAM.com                      |
|    \\/     M anipulation  |                                                 |
\*---------------------------------------------------------------------------*/
FoamFile
{
    version     2.0;
    format      ascii;
    class       volVectorField;
    location    "72.8/oil";
    object      U;
}
// * * * * * * * * * * * * * * * * * * * * * * * * * * * * * * * * * * * * * //

dimensions      [0 1 -1 0 0 0 0];


internalField   nonuniform List<vector> 
27760
(
(-2.45204e-05 -2.49862e-05 -2.45204e-05)
(-4.83981e-05 -1.87426e-05 -1.76667e-05)
(-3.52069e-06 -4.85674e-06 -4.83923e-06)
(-5.72942e-06 -7.87034e-07 -8.93442e-07)
(-1.13641e-06 -2.45753e-07 -3.71179e-07)
(-3.73408e-07 -9.50567e-08 -2.32575e-07)
(3.12485e-07 -3.50353e-09 -1.52132e-07)
(6.60834e-07 3.73125e-08 -1.19927e-07)
(8.55895e-07 6.13462e-08 -1.01803e-07)
(9.29977e-07 7.70143e-08 -8.96334e-08)
(9.06653e-07 8.84114e-08 -7.95474e-08)
(7.99453e-07 9.71772e-08 -7.08623e-08)
(6.22228e-07 1.0378e-07 -6.37394e-08)
(3.91314e-07 1.08289e-07 -5.85956e-08)
(1.26161e-07 1.10643e-07 -5.58376e-08)
(-1.51559e-07 1.10797e-07 -5.56865e-08)
(-4.1957e-07 1.08795e-07 -5.8098e-08)
(-6.5685e-07 1.04792e-07 -6.27372e-08)
(-8.45525e-07 9.90454e-08 -6.90005e-08)
(-9.72393e-07 9.18667e-08 -7.60665e-08)
(-1.03003e-06 8.36255e-08 -8.29672e-08)
(-1.01714e-06 7.45363e-08 -8.8449e-08)
(-9.38738e-07 6.48545e-08 -9.16302e-08)
(-8.05745e-07 5.48825e-08 -9.14687e-08)
(-6.34245e-07 4.48717e-08 -8.70669e-08)
(-4.44754e-07 3.52696e-08 -7.78491e-08)
(-2.61152e-07 2.69971e-08 -6.39108e-08)
(-1.093e-07 2.17134e-08 -4.64842e-08)
(-1.22938e-08 2.15179e-08 -2.89158e-08)
(1.16334e-08 2.27985e-08 -1.15872e-08)
(-1.77867e-05 -4.97308e-05 -1.77866e-05)
(-5.80752e-06 -6.47288e-06 -7.96579e-06)
(-7.79642e-06 -7.85011e-06 -2.78772e-06)
(-3.43193e-06 -2.31021e-06 -8.04836e-07)
(-1.05679e-06 -1.42281e-06 -4.07709e-07)
(1.42142e-07 -7.86587e-07 -2.0836e-07)
(1.01838e-06 -4.98504e-07 -1.10081e-07)
(1.55521e-06 -3.26397e-07 -5.99199e-08)
(1.86534e-06 -2.10453e-07 -2.79031e-08)
(1.97379e-06 -1.20347e-07 -4.05569e-09)
(1.90157e-06 -4.54327e-08 1.62051e-08)
(1.66662e-06 1.72376e-08 3.35842e-08)
(1.29251e-06 6.70026e-08 4.7729e-08)
(8.1065e-07 1.02059e-07 5.78627e-08)
(2.59738e-07 1.2067e-07 6.32716e-08)
(-3.16565e-07 1.21917e-07 6.35629e-08)
(-8.73145e-07 1.06075e-07 5.88109e-08)
(-1.36739e-06 7.47144e-08 4.95932e-08)
(-1.76303e-06 3.05909e-08 3.69386e-08)
(-2.0333e-06 -2.26422e-08 2.22285e-08)
(-2.16323e-06 -8.07599e-08 7.02159e-09)
(-2.15038e-06 -1.39309e-07 -6.82153e-09)
(-2.00475e-06 -1.93855e-07 -1.78352e-08)
(-1.74832e-06 -2.39834e-07 -2.47392e-08)
(-1.413e-06 -2.72397e-07 -2.65344e-08)
(-1.03851e-06 -2.85903e-07 -2.2858e-08)
(-6.69387e-07 -2.73265e-07 -1.43945e-08)
(-3.50555e-07 -2.26169e-07 -3.44449e-09)
(-1.20488e-07 -1.3741e-07 5.00339e-09)
(-5.74824e-09 -2.34448e-08 5.81825e-09)
(-4.91527e-06 -4.71047e-06 -4.91521e-06)
(-7.68047e-06 -8.8907e-06 -2.83353e-06)
(-3.86148e-06 -5.15106e-06 -1.23889e-06)
(-2.03628e-06 -3.10686e-06 -5.74905e-07)
(-3.16872e-07 -2.26064e-06 -2.59594e-07)
(8.23566e-07 -1.71181e-06 -1.03972e-07)
(1.68806e-06 -1.39438e-06 -2.0676e-08)
(2.26537e-06 -1.16546e-06 2.77907e-08)
(2.60139e-06 -9.80067e-07 6.21506e-08)
(2.70259e-06 -8.1633e-07 8.99108e-08)
(2.57999e-06 -6.68883e-07 1.14214e-07)
(2.24983e-06 -5.39986e-07 1.35362e-07)
(1.73967e-06 -4.35064e-07 1.52663e-07)
(1.08912e-06 -3.60164e-07 1.65063e-07)
(3.48331e-07 -3.20158e-07 1.71674e-07)
(-4.25573e-07 -3.17561e-07 1.7201e-07)
(-1.17329e-06 -3.51892e-07 1.66146e-07)
(-1.83874e-06 -4.19523e-07 1.54747e-07)
(-2.37423e-06 -5.13974e-07 1.39001e-07)
(-2.74461e-06 -6.26521e-07 1.20505e-07)
(-2.93016e-06 -7.47021e-07 1.01036e-07)
(-2.92777e-06 -8.64412e-07 8.24623e-08)
(-2.75062e-06 -9.67514e-07 6.64011e-08)
(-2.4269e-06 -1.04492e-06 5.41617e-08)
(-1.99698e-06 -1.08459e-06 4.65356e-08)
(-1.51024e-06 -1.07328e-06 4.35626e-08)
(-1.02069e-06 -9.95771e-07 4.41521e-08)
(-5.80572e-07 -8.35157e-07 4.53958e-08)
(-2.36615e-07 -5.74476e-07 4.16883e-08)
(-2.31453e-08 -2.14975e-07 2.32301e-08)
(-8.76097e-07 -6.88648e-06 -8.76019e-07)
(-1.9319e-06 -5.50978e-06 -7.78653e-07)
(-1.4403e-06 -4.79862e-06 -5.49341e-07)
(-4.97833e-07 -3.85092e-06 -2.66374e-07)
(6.35156e-07 -3.32925e-06 -9.95418e-08)
(1.57557e-06 -2.94152e-06 -2.60424e-09)
(2.35004e-06 -2.65651e-06 5.81045e-08)
(2.90232e-06 -2.40426e-06 9.96835e-08)
(3.2223e-06 -2.16441e-06 1.33023e-07)
(3.29512e-06 -1.93038e-06 1.62267e-07)
(3.11959e-06 -1.70733e-06 1.88864e-07)
(2.70785e-06 -1.50595e-06 2.12423e-07)
(2.08845e-06 -1.33901e-06 2.31835e-07)
(1.30596e-06 -1.21867e-06 2.45789e-07)
(4.18326e-07 -1.15416e-06 2.53224e-07)
(-5.07649e-07 -1.15025e-06 2.53563e-07)
(-1.40234e-06 -1.20632e-06 2.46873e-07)
(-2.19983e-06 -1.31619e-06 2.3388e-07)
(-2.84404e-06 -1.46868e-06 2.15892e-07)
(-3.29384e-06 -1.64865e-06 1.94645e-07)
(-3.52617e-06 -1.83837e-06 1.72059e-07)
(-3.53746e-06 -2.01866e-06 1.50052e-07)
(-3.34293e-06 -2.16985e-06 1.3029e-07)
(-2.97465e-06 -2.27198e-06 1.14053e-07)
(-2.47811e-06 -2.30443e-06 1.02004e-07)
(-1.90809e-06 -2.24528e-06 9.40104e-08)
(-1.32383e-06 -2.07005e-06 8.88064e-08)
(-7.8205e-07 -1.75081e-06 8.30924e-08)
(-3.37849e-07 -1.25281e-06 7.07159e-08)
(-3.74258e-08 -5.32281e-07 3.7528e-08)
(-2.75829e-07 -2.70956e-06 -2.75734e-07)
(-8.24556e-07 -4.31236e-06 -3.19493e-07)
(-3.01969e-07 -4.76182e-06 -2.03071e-07)
(4.63112e-07 -4.69315e-06 -7.58229e-08)
(1.37905e-06 -4.58227e-06 1.35318e-08)
(2.2231e-06 -4.40897e-06 7.38963e-08)
(2.94439e-06 -4.20397e-06 1.18215e-07)
(3.47324e-06 -3.95944e-06 1.53899e-07)
(3.7725e-06 -3.68329e-06 1.86109e-07)
(3.81417e-06 -3.38816e-06 2.1653e-07)
(3.58834e-06 -3.09278e-06 2.45239e-07)
(3.10374e-06 -2.81884e-06 2.71152e-07)
(2.38934e-06 -2.58832e-06 2.92697e-07)
(1.49343e-06 -2.42083e-06 3.08255e-07)
(4.80299e-07 -2.33087e-06 3.16539e-07)
(-5.75242e-07 -2.32592e-06 3.16858e-07)
(-1.5949e-06 -2.4053e-06 3.09264e-07)
(-2.50448e-06 -2.56008e-06 2.9456e-07)
(-3.24098e-06 -2.77377e-06 2.74223e-07)
(-3.75835e-06 -3.024e-06 2.5016e-07)
(-4.03099e-06 -3.28452e-06 2.24483e-07)
(-4.05505e-06 -3.52706e-06 1.99251e-07)
(-3.84735e-06 -3.72252e-06 1.76209e-07)
(-3.44291e-06 -3.84169e-06 1.56648e-07)
(-2.89091e-06 -3.85481e-06 1.41194e-07)
(-2.25e-06 -3.73049e-06 1.29621e-07)
(-1.58353e-06 -3.43364e-06 1.20561e-07)
(-9.52517e-07 -2.92176e-06 1.10375e-07)
(-4.21098e-07 -2.13312e-06 9.22897e-08)
(-4.83707e-08 -9.54029e-07 4.84945e-08)
(-1.01501e-07 -2.53647e-06 -1.01388e-07)
(-7.62268e-08 -4.4906e-06 -8.62846e-08)
(4.30603e-07 -5.48774e-06 -2.63872e-08)
(1.14245e-06 -5.93214e-06 3.62889e-08)
(1.97445e-06 -6.12817e-06 8.72002e-08)
(2.77731e-06 -6.13705e-06 1.27414e-07)
(3.47444e-06 -6.01496e-06 1.62332e-07)
(3.99042e-06 -5.78852e-06 1.95018e-07)
(4.27374e-06 -5.48661e-06 2.27548e-07)
(4.28777e-06 -5.1386e-06 2.60063e-07)
(4.01642e-06 -4.7765e-06 2.91667e-07)
(3.46573e-06 -4.43343e-06 3.20651e-07)
(2.66508e-06 -4.14127e-06 3.4496e-07)
(1.66605e-06 -3.92757e-06 3.62584e-07)
(5.38808e-07 -3.81266e-06 3.71961e-07)
(-6.34429e-07 -3.80701e-06 3.7225e-07)
(-1.76729e-06 -3.90998e-06 3.63489e-07)
(-2.77792e-06 -4.10968e-06 3.46599e-07)
(-3.59696e-06 -4.38407e-06 3.2328e-07)
(-4.17393e-06 -4.70318e-06 2.95727e-07)
(-4.48128e-06 -5.03193e-06 2.66347e-07)
(-4.51506e-06 -5.33244e-06 2.37418e-07)
(-4.2938e-06 -5.56597e-06 2.10835e-07)
(-3.85532e-06 -5.69381e-06 1.87987e-07)
(-3.2521e-06 -5.67666e-06 1.6952e-07)
(-2.54638e-06 -5.47302e-06 1.55162e-07)
(-1.80555e-06 -5.03552e-06 1.43443e-07)
(-1.09536e-06 -4.30308e-06 1.30379e-07)
(-4.8879e-07 -3.17858e-06 1.08494e-07)
(-5.67937e-08 -1.45944e-06 5.69432e-08)
(-2.26138e-09 -2.55507e-06 -2.12586e-09)
(2.63009e-07 -5.10766e-06 3.00117e-08)
(8.45115e-07 -6.6021e-06 6.74812e-08)
(1.5927e-06 -7.45494e-06 1.03166e-07)
(2.42584e-06 -7.9189e-06 1.35537e-07)
(3.23367e-06 -8.09558e-06 1.65639e-07)
(3.93487e-06 -8.05959e-06 1.96197e-07)
(4.45313e-06 -7.86062e-06 2.28439e-07)
(4.72997e-06 -7.54427e-06 2.62852e-07)
(4.72342e-06 -7.15416e-06 2.98641e-07)
(4.41311e-06 -6.73468e-06 3.34173e-07)
(3.80311e-06 -6.33004e-06 3.6717e-07)
(2.92333e-06 -5.98178e-06 3.95047e-07)
(1.82871e-06 -5.72562e-06 4.1532e-07)
(5.95108e-07 -5.58776e-06 4.26092e-07)
(-6.87916e-07 -5.58176e-06 4.26349e-07)
(-1.92611e-06 -5.70708e-06 4.16117e-07)
(-3.03007e-06 -5.94888e-06 3.96461e-07)
(-3.92431e-06 -6.27961e-06 3.6937e-07)
(-4.55438e-06 -6.66168e-06 3.37456e-07)
(-4.89095e-06 -7.05116e-06 3.03498e-07)
(-4.93053e-06 -7.40082e-06 2.70099e-07)
(-4.6937e-06 -7.66254e-06 2.3942e-07)
(-4.2212e-06 -7.78819e-06 2.12967e-07)
(-3.56899e-06 -7.72877e-06 1.91458e-07)
(-2.80298e-06 -7.43204e-06 1.74584e-07)
(-1.99473e-06 -6.83656e-06 1.60768e-07)
(-1.21481e-06 -5.85914e-06 1.45678e-07)
(-5.44084e-07 -4.3598e-06 1.21077e-07)
(-6.34403e-08 -2.03251e-06 6.36202e-08)
(3.82508e-08 -2.94874e-06 3.84081e-08)
(4.45916e-07 -6.10649e-06 8.62281e-08)
(1.10359e-06 -8.04272e-06 1.17385e-07)
(1.9062e-06 -9.23641e-06 1.42901e-07)
(2.77115e-06 -9.93641e-06 1.67446e-07)
(3.60533e-06 -1.02682e-05 1.93618e-07)
(4.32645e-06 -1.03203e-05 2.23359e-07)
(4.8578e-06 -1.01583e-05 2.57262e-07)
(5.13665e-06 -9.84043e-06 2.95014e-07)
(5.11704e-06 -9.42215e-06 3.35263e-07)
(4.77525e-06 -8.95855e-06 3.75803e-07)
(4.11358e-06 -8.5038e-06 4.13759e-07)
(3.16253e-06 -8.10861e-06 4.45989e-07)
(1.98031e-06 -7.81642e-06 4.69493e-07)
(6.4845e-07 -7.65904e-06 4.81962e-07)
(-7.36222e-07 -7.65303e-06 4.82183e-07)
(-2.07166e-06 -7.79792e-06 4.7017e-07)
(-3.26107e-06 -8.07615e-06 4.47177e-07)
(-4.22294e-06 -8.4548e-06 4.15564e-07)
(-4.89916e-06 -8.8891e-06 3.78417e-07)
(-5.2592e-06 -9.32686e-06 3.38983e-07)
(-5.30049e-06 -9.71202e-06 3.00308e-07)
(-5.04603e-06 -9.98763e-06 2.64882e-07)
(-4.53975e-06 -1.00965e-05 2.34372e-07)
(-3.8414e-06 -9.98041e-06 2.09583e-07)
(-3.02058e-06 -9.5756e-06 1.9017e-07)
(-2.15284e-06 -8.80505e-06 1.74462e-07)
(-1.31318e-06 -7.56033e-06 1.57755e-07)
(-5.88972e-07 -5.6527e-06 1.31087e-07)
(-6.87769e-08 -2.66078e-06 6.89901e-08)
(5.85925e-08 -3.49636e-06 5.87735e-08)
(5.47528e-07 -7.3171e-06 1.16412e-07)
(1.2671e-06 -9.69725e-06 1.45909e-07)
(2.12271e-06 -1.12136e-05 1.67694e-07)
(3.02736e-06 -1.21405e-05 1.89427e-07)
(3.89502e-06 -1.26268e-05 2.14924e-07)
(4.6428e-06 -1.27752e-05 2.4597e-07)
(5.19325e-06 -1.26639e-05 2.82949e-07)
(5.48046e-06 -1.23618e-05 3.2514e-07)
(5.45499e-06 -1.19335e-05 3.70767e-07)
(5.09006e-06 -1.14435e-05 4.17142e-07)
(4.38617e-06 -1.09544e-05 4.60818e-07)
(3.37423e-06 -1.0525e-05 4.98056e-07)
(2.11539e-06 -1.02057e-05 5.25253e-07)
(6.96647e-07 -1.00335e-05 5.39639e-07)
(-7.78244e-07 -1.00277e-05 5.39826e-07)
(-2.19966e-06 -1.01879e-05 5.25825e-07)
(-3.46372e-06 -1.04941e-05 4.99048e-07)
(-4.4834e-06 -1.09086e-05 4.62278e-07)
(-5.19736e-06 -1.13798e-05 4.19191e-07)
(-5.57429e-06 -1.18482e-05 3.73595e-07)
(-5.61312e-06 -1.22499e-05 3.29008e-07)
(-5.33975e-06 -1.25203e-05 2.88257e-07)
(-4.80165e-06 -1.25939e-05 2.53253e-07)
(-4.06223e-06 -1.24035e-05 2.24893e-07)
(-3.19456e-06 -1.18738e-05 2.02832e-07)
(-2.27767e-06 -1.09112e-05 1.85258e-07)
(-1.39007e-06 -9.3791e-06 1.67136e-07)
(-6.23879e-07 -7.03524e-06 1.38887e-07)
(-7.29792e-08 -3.3333e-06 7.32279e-08)
(6.88169e-08 -4.13642e-06 6.90228e-08)
(6.05055e-07 -8.66535e-06 1.3259e-07)
(1.36766e-06 -1.15001e-05 1.62138e-07)
(2.26329e-06 -1.33364e-05 1.83009e-07)
(3.20132e-06 -1.4491e-05 2.04398e-07)
(4.09848e-06 -1.51387e-05 2.30962e-07)
(4.87147e-06 -1.53967e-05 2.64551e-07)
(5.44172e-06 -1.53547e-05 3.05459e-07)
(5.7408e-06 -1.509e-05 3.52798e-07)
(5.71612e-06 -1.46751e-05 4.04435e-07)
(5.33761e-06 -1.4181e-05 4.57228e-07)
(4.60368e-06 -1.36774e-05 5.07158e-07)
(3.54512e-06 -1.32298e-05 5.49822e-07)
(2.22545e-06 -1.28947e-05 5.80998e-07)
(7.36475e-07 -1.27135e-05 5.97466e-07)
(-8.11606e-07 -1.27081e-05 5.97619e-07)
(-2.30247e-06 -1.28782e-05 5.81461e-07)
(-3.62576e-06 -1.32014e-05 5.50606e-07)
(-4.68949e-06 -1.36357e-05 5.08305e-07)
(-5.42989e-06 -1.4124e-05 4.58829e-07)
(-5.81574e-06 -1.46004e-05 4.06565e-07)
(-5.84801e-06 -1.49947e-05 3.55615e-07)
(-5.55583e-06 -1.52358e-05 3.09186e-07)
(-4.99031e-06 -1.52515e-05 2.6943e-07)
(-4.21808e-06 -1.49662e-05 2.37321e-07)
(-3.31518e-06 -1.42933e-05 2.12504e-07)
(-2.36305e-06 -1.31217e-05 1.9309e-07)
(-1.4422e-06 -1.12851e-05 1.73745e-07)
(-6.47602e-07 -8.4839e-06 1.44346e-07)
(-7.5962e-08 -4.03877e-06 7.62494e-08)
(7.37596e-08 -4.82492e-06 7.39816e-08)
(6.32982e-07 -1.00911e-05 1.40539e-07)
(1.41723e-06 -1.33904e-05 1.70344e-07)
(2.33325e-06 -1.55501e-05 1.91301e-07)
(3.28912e-06 -1.69391e-05 2.13429e-07)
(4.20341e-06 -1.776e-05 2.41847e-07)
(4.9931e-06 -1.8146e-05 2.78514e-07)
(5.57902e-06 -1.81965e-05 3.23743e-07)
(5.89082e-06 -1.79959e-05 3.76483e-07)
(5.87293e-06 -1.76221e-05 4.34356e-07)
(5.49195e-06 -1.71508e-05 4.93774e-07)
(4.74368e-06 -1.66568e-05 5.5014e-07)
(3.65795e-06 -1.62105e-05 5.98423e-07)
(2.29956e-06 -1.5873e-05 6.33722e-07)
(7.64033e-07 -1.56898e-05 6.52319e-07)
(-8.33102e-07 -1.56849e-05 6.52443e-07)
(-2.36981e-06 -1.5858e-05 6.34097e-07)
(-3.73045e-06 -1.6185e-05 5.9905e-07)
(-4.81932e-06 -1.66198e-05 5.51029e-07)
(-5.57135e-06 -1.71011e-05 4.94949e-07)
(-5.95629e-06 -1.75581e-05 4.3591e-07)
(-5.97774e-06 -1.7916e-05 3.78513e-07)
(-5.6684e-06 -1.80992e-05 3.26339e-07)
(-5.08278e-06 -1.80305e-05 2.81794e-07)
(-4.29012e-06 -1.7627e-05 2.45957e-07)
(-3.36814e-06 -1.67919e-05 2.18456e-07)
(-2.39915e-06 -1.53961e-05 1.97278e-07)
(-1.46397e-06 -1.32423e-05 1.76928e-07)
(-6.57785e-07 -9.97091e-06 1.4695e-07)
(-7.74479e-08 -4.76398e-06 7.77784e-08)
(7.50217e-08 -5.5318e-06 7.52731e-08)
(6.35965e-07 -1.15433e-05 1.4227e-07)
(1.41765e-06 -1.53093e-05 1.71918e-07)
(2.32904e-06 -1.77947e-05 1.9314e-07)
(3.27989e-06 -1.94257e-05 2.16273e-07)
(4.19165e-06 -2.04345e-05 2.46739e-07)
(4.98314e-06 -2.09698e-05 2.86548e-07)
(5.57597e-06 -2.11403e-05 3.3605e-07)
(5.89865e-06 -2.1035e-05 3.94107e-07)
(5.89329e-06 -2.0735e-05 4.58142e-07)
(5.52309e-06 -2.03184e-05 5.24183e-07)
(4.78051e-06 -1.98623e-05 5.87062e-07)
(3.69311e-06 -1.94404e-05 6.41071e-07)
(2.32544e-06 -1.91167e-05 6.80643e-07)
(7.7504e-07 -1.89396e-05 7.01462e-07)
(-8.38781e-07 -1.89353e-05 7.01556e-07)
(-2.3898e-06 -1.91034e-05 6.80907e-07)
(-3.75868e-06 -1.94179e-05 6.41509e-07)
(-4.84761e-06 -1.98301e-05 5.87699e-07)
(-5.5918e-06 -2.02756e-05 5.25023e-07)
(-5.96344e-06 -2.06807e-05 4.59256e-07)
(-5.96962e-06 -2.09686e-05 3.95539e-07)
(-5.64665e-06 -2.10613e-05 3.37845e-07)
(-5.05167e-06 -2.08784e-05 2.88767e-07)
(-4.25552e-06 -2.03321e-05 2.49433e-07)
(-3.33587e-06 -1.93157e-05 2.19462e-07)
(-2.37375e-06 -1.7683e-05 1.96778e-07)
(-1.44795e-06 -1.52053e-05 1.75795e-07)
(-6.51062e-07 -1.14617e-05 1.45931e-07)
(-7.70154e-08 -5.4923e-06 7.7389e-08)
(7.30859e-08 -6.22941e-06 7.33438e-08)
(6.14026e-07 -1.297e-05 1.38143e-07)
(1.36536e-06 -1.71922e-05 1.66808e-07)
(2.24168e-06 -2.00003e-05 1.8803e-07)
(3.15804e-06 -2.1879e-05 2.12009e-07)
(4.04091e-06 -2.30902e-05 2.44195e-07)
(4.81323e-06 -2.37977e-05 2.86683e-07)
(5.39935e-06 -2.41178e-05 3.39874e-07)
(5.72834e-06 -2.41428e-05 4.02618e-07)
(5.74087e-06 -2.3954e-05 4.72215e-07)
(5.3969e-06 -2.36291e-05 5.44421e-07)
(4.6847e-06 -2.32445e-05 6.13612e-07)
(3.62802e-06 -2.28741e-05 6.73292e-07)
(2.28893e-06 -2.25833e-05 7.17185e-07)
(7.64597e-07 -2.24222e-05 7.40313e-07)
(-8.24084e-07 -2.24184e-05 7.40365e-07)
(-2.34857e-06 -2.25717e-05 7.1735e-07)
(-3.68794e-06 -2.28546e-05 6.73566e-07)
(-4.74482e-06 -2.32166e-05 6.14008e-07)
(-5.45699e-06 -2.35925e-05 5.44976e-07)
(-5.80061e-06 -2.39084e-05 4.72951e-07)
(-5.78709e-06 -2.4088e-05 4.03548e-07)
(-5.45609e-06 -2.4054e-05 3.41071e-07)
(-4.86649e-06 -2.37254e-05 2.88158e-07)
(-4.08886e-06 -2.3011e-05 2.45974e-07)
(-3.19854e-06 -2.17961e-05 2.14063e-07)
(-2.27281e-06 -1.99183e-05 1.90311e-07)
(-1.38559e-06 -1.71181e-05 1.69182e-07)
(-6.23543e-07 -1.29134e-05 1.40332e-07)
(-7.41873e-08 -6.20306e-06 7.46112e-08)
(6.78001e-08 -6.88912e-06 6.80872e-08)
(5.65049e-07 -1.43145e-05 1.27861e-07)
(1.25443e-06 -1.89668e-05 1.54488e-07)
(2.06015e-06 -2.2085e-05 1.75068e-07)
(2.90632e-06 -2.42116e-05 1.99304e-07)
(3.72755e-06 -2.56367e-05 2.32455e-07)
(4.45376e-06 -2.65384e-05 2.76588e-07)
(5.01461e-06 -2.70393e-05 3.32283e-07)
(5.34218e-06 -2.72322e-05 3.98544e-07)
(5.37706e-06 -2.7196e-05 4.72706e-07)
(5.07679e-06 -2.70048e-05 5.50358e-07)
(4.42465e-06 -2.6731e-05 6.25477e-07)
(3.43845e-06 -2.6445e-05 6.90851e-07)
(2.17489e-06 -2.62106e-05 7.39401e-07)
(7.27572e-07 -2.60778e-05 7.65166e-07)
(-7.83842e-07 -2.60744e-05 7.65184e-07)
(-2.23091e-06 -2.62005e-05 7.39468e-07)
(-3.49396e-06 -2.64281e-05 6.9097e-07)
(-4.47934e-06 -2.6707e-05 6.25653e-07)
(-5.13033e-06 -2.69738e-05 5.50639e-07)
(-5.42895e-06 -2.7158e-05 4.73167e-07)
(-5.39169e-06 -2.71872e-05 3.99159e-07)
(-5.06101e-06 -2.69878e-05 3.33075e-07)
(-4.49596e-06 -2.64813e-05 2.77548e-07)
(-3.76431e-06 -2.55754e-05 2.33587e-07)
(-2.9364e-06 -2.41488e-05 2.0061e-07)
(-2.08244e-06 -2.20244e-05 1.76523e-07)
(-1.26837e-06 -1.89132e-05 1.55999e-07)
(-5.71262e-07 -1.42746e-05 1.2923e-07)
(-6.84276e-08 -6.87111e-06 6.88954e-08)
(5.88987e-08 -7.47933e-06 5.91916e-08)
(4.86558e-07 -1.55135e-05 1.10791e-07)
(1.0789e-06 -2.05507e-05 1.34053e-07)
(1.77382e-06 -2.39548e-05 1.53069e-07)
(2.50875e-06 -2.63209e-05 1.76517e-07)
(3.22953e-06 -2.79656e-05 2.09222e-07)
(3.87659e-06 -2.90793e-05 2.53303e-07)
(4.38819e-06 -2.9789e-05 3.09477e-07)
(4.70238e-06 -3.01864e-05 3.76947e-07)
(4.76213e-06 -3.03456e-05 4.53342e-07)
(4.52351e-06 -3.03333e-05 5.34327e-07)
(3.96466e-06 -3.0214e-05 6.1377e-07)
(3.09577e-06 -3.00506e-05 6.839e-07)
(1.96487e-06 -2.99011e-05 7.36734e-07)
(6.57588e-07 -2.98116e-05 7.65094e-07)
(-7.11691e-07 -2.98087e-05 7.65071e-07)
(-2.01838e-06 -2.98923e-05 7.36694e-07)
(-3.14817e-06 -3.00359e-05 6.83865e-07)
(-4.01536e-06 -3.01934e-05 6.13784e-07)
(-4.57202e-06 -3.0307e-05 5.34403e-07)
(-4.808e-06 -3.03137e-05 4.53506e-07)
(-4.7451e-06 -3.01494e-05 3.77229e-07)
(-4.42709e-06 -2.97475e-05 3.099e-07)
(-3.91092e-06 -2.90341e-05 2.53873e-07)
(-3.2585e-06 -2.7918e-05 2.09931e-07)
(-2.53165e-06 -2.62732e-05 1.77339e-07)
(-1.79017e-06 -2.39095e-05 1.53973e-07)
(-1.08872e-06 -2.05116e-05 1.35011e-07)
(-4.90694e-07 -1.54849e-05 1.11686e-07)
(-5.92399e-08 -7.46678e-06 5.97527e-08)
(4.61383e-08 -7.96596e-06 4.6436e-08)
(3.76736e-07 -1.64984e-05 8.64948e-08)
(8.34681e-07 -2.18546e-05 1.04912e-07)
(1.37565e-06 -2.55049e-05 1.2113e-07)
(1.95448e-06 -2.80904e-05 1.42338e-07)
(2.53148e-06 -2.99498e-05 1.72647e-07)
(3.06125e-06 -3.1284e-05 2.14038e-07)
(3.49425e-06 -3.22226e-05 2.67413e-07)
(3.77792e-06 -3.28544e-05 3.32405e-07)
(3.86105e-06 -3.32467e-05 4.07163e-07)
(3.70059e-06 -3.34561e-05 4.87774e-07)
(3.2704e-06 -3.35349e-05 5.68254e-07)
(2.57153e-06 -3.35339e-05 6.40543e-07)
(1.63985e-06 -3.34999e-05 6.96012e-07)
(5.48026e-07 -3.34706e-05 7.26272e-07)
(-6.00721e-07 -3.3468e-05 7.26237e-07)
(-1.69166e-06 -3.34922e-05 6.95939e-07)
(-2.62171e-06 -3.35212e-05 6.40418e-07)
(-3.31827e-06 -3.35172e-05 5.68118e-07)
(-3.74564e-06 -3.34337e-05 4.87681e-07)
(-3.9027e-06 -3.32202e-05 4.07163e-07)
(-3.81571e-06 -3.28241e-05 3.32494e-07)
(-3.52771e-06 -3.21889e-05 2.67587e-07)
(-3.08995e-06 -3.1248e-05 2.14319e-07)
(-2.55498e-06 -2.99126e-05 1.73036e-07)
(-1.97247e-06 -2.80538e-05 1.42829e-07)
(-1.38804e-06 -2.54709e-05 1.21705e-07)
(-8.41819e-07 -2.18257e-05 1.05526e-07)
(-3.79554e-07 -1.64777e-05 8.71067e-08)
(-4.62999e-08 -7.9571e-06 4.68534e-08)
(2.94418e-08 -8.31361e-06 2.97341e-08)
(2.35603e-07 -1.71983e-05 5.48325e-08)
(5.21937e-07 -2.2785e-05 6.67796e-08)
(8.65543e-07 -2.66252e-05 7.87635e-08)
(1.24231e-06 -2.93945e-05 9.5822e-08)
(1.63005e-06 -3.14489e-05 1.21015e-07)
(2.00083e-06 -3.29963e-05 1.56093e-07)
(2.32113e-06 -3.41677e-05 2.02062e-07)
(2.55206e-06 -3.50478e-05 2.58959e-07)
(2.65202e-06 -3.56955e-05 3.25516e-07)
(2.58226e-06 -3.61551e-05 3.98631e-07)
(2.31443e-06 -3.64641e-05 4.73138e-07)
(1.84074e-06 -3.66567e-05 5.41381e-07)
(1.18209e-06 -3.67632e-05 5.94708e-07)
(3.9247e-07 -3.6808e-05 6.2427e-07)
(-4.44398e-07 -3.68059e-05 6.24193e-07)
(-1.23297e-06 -3.67566e-05 5.94562e-07)
(-1.88959e-06 -3.66457e-05 5.41154e-07)
(-2.36041e-06 -3.6449e-05 4.72906e-07)
(-2.6248e-06 -3.61362e-05 3.98398e-07)
(-2.69059e-06 -3.56732e-05 3.25339e-07)
(-2.58633e-06 -3.50228e-05 2.58826e-07)
(-2.35075e-06 -3.41404e-05 2.02022e-07)
(-2.02556e-06 -3.29675e-05 1.56155e-07)
(-1.64973e-06 -3.14196e-05 1.2116e-07)
(-1.2569e-06 -2.93663e-05 9.60582e-08)
(-8.75212e-07 -2.65993e-05 7.9083e-08)
(-5.27223e-07 -2.27634e-05 6.71546e-08)
(-2.37517e-07 -1.71832e-05 5.52565e-08)
(-2.9484e-08 -8.3073e-06 3.00736e-08)
(9.08839e-09 -8.48805e-06 9.39721e-09)
(6.5904e-08 -1.7545e-05 1.63717e-08)
(1.46882e-07 -2.3252e-05 2.0304e-08)
(2.53576e-07 -2.72078e-05 2.65285e-08)
(3.85642e-07 -3.01081e-05 3.73422e-08)
(5.40964e-07 -3.23187e-05 5.44098e-08)
(7.11899e-07 -3.40511e-05 7.89176e-08)
(8.84302e-07 -3.54351e-05 1.11881e-07)
(1.037e-06 -3.65508e-05 1.53702e-07)
(1.14244e-06 -3.7448e-05 2.03864e-07)
(1.17065e-06 -3.81584e-05 2.60332e-07)
(1.09457e-06 -3.87028e-05 3.19251e-07)
(8.98644e-07 -3.9097e-05 3.74356e-07)
(5.87128e-07 -3.93521e-05 4.18275e-07)
(1.89192e-07 -3.94764e-05 4.42993e-07)
(-2.40696e-07 -3.94747e-05 4.42912e-07)
(-6.37381e-07 -3.93466e-05 4.18098e-07)
(-9.46569e-07 -3.90875e-05 3.74062e-07)
(-1.13926e-06 -3.869e-05 3.18899e-07)
(-1.21153e-06 -3.81424e-05 2.59944e-07)
(-1.17894e-06 -3.74292e-05 2.03547e-07)
(-1.06882e-06 -3.65298e-05 1.53425e-07)
(-9.1124e-07 -3.54127e-05 1.11696e-07)
(-7.33849e-07 -3.40279e-05 7.88164e-08)
(-5.57958e-07 -3.22955e-05 5.43722e-08)
(-3.97857e-07 -3.00861e-05 3.73991e-08)
(-2.61386e-07 -2.7188e-05 2.6671e-08)
(-1.5094e-07 -2.32358e-05 2.05547e-08)
(-6.72365e-08 -1.75337e-05 1.66816e-08)
(-9.06585e-09 -8.48351e-06 9.68449e-09)
(-1.4175e-08 -8.46011e-06 -1.38933e-08)
(-1.2611e-07 -1.74807e-05 -2.75893e-08)
(-2.7666e-07 -2.3179e-05 -3.2982e-08)
(-4.37928e-07 -2.71597e-05 -3.39316e-08)
(-5.84456e-07 -3.01205e-05 -3.13626e-08)
(-6.96989e-07 -3.2428e-05 -2.54199e-08)
(-7.60575e-07 -3.42931e-05 -1.55618e-08)
(-7.67209e-07 -3.5842e-05 -1.11351e-09)
(-7.17001e-07 -3.71487e-05 1.85234e-08)
(-6.19109e-07 -3.82542e-05 4.36149e-08)
(-4.90602e-07 -3.91781e-05 7.334e-08)
(-3.53452e-07 -3.99263e-05 1.05927e-07)
(-2.28646e-07 -4.04968e-05 1.37581e-07)
(-1.29588e-07 -4.08829e-05 1.63672e-07)
(-5.67195e-08 -4.10775e-05 1.78734e-07)
(5.52584e-09 -4.10759e-05 1.78642e-07)
(7.97954e-08 -4.08778e-05 1.63439e-07)
(1.81335e-07 -4.04883e-05 1.37206e-07)
(3.0961e-07 -3.99151e-05 1.05489e-07)
(4.50975e-07 -3.91641e-05 7.28727e-08)
(5.84129e-07 -3.82382e-05 4.31571e-08)
(6.86913e-07 -3.7131e-05 1.81208e-08)
(7.42156e-07 -3.58234e-05 -1.46788e-09)
(7.40546e-07 -3.42742e-05 -1.5816e-08)
(6.81835e-07 -3.24093e-05 -2.55874e-08)
(5.73862e-07 -3.01031e-05 -3.14674e-08)
(4.31372e-07 -2.71442e-05 -3.3923e-08)
(2.73443e-07 -2.31666e-05 -3.2859e-08)
(1.25207e-07 -1.74723e-05 -2.73648e-08)
(1.42677e-08 -8.45677e-06 -1.3629e-08)
(-3.92688e-08 -8.20911e-06 -3.89843e-08)
(-3.30874e-07 -1.69652e-05 -7.4837e-08)
(-7.27232e-07 -2.25127e-05 -9.03551e-08)
(-1.17377e-06 -2.64151e-05 -9.94992e-08)
(-1.61862e-06 -2.93522e-05 -1.06656e-07)
(-2.02052e-06 -3.16807e-05 -1.13943e-07)
(-2.34085e-06 -3.3605e-05 -1.21734e-07)
(-2.54759e-06 -3.52453e-05 -1.29805e-07)
(-2.61731e-06 -3.66688e-05 -1.37445e-07)
(-2.53802e-06 -3.7909e-05 -1.43665e-07)
(-2.31037e-06 -3.8975e-05 -1.47693e-07)
(-1.94816e-06 -3.98609e-05 -1.48901e-07)
(-1.47598e-06 -4.05512e-05 -1.47812e-07)
(-9.25465e-07 -4.10268e-05 -1.45328e-07)
(-3.30214e-07 -4.12696e-05 -1.43266e-07)
(2.79594e-07 -4.12679e-05 -1.43377e-07)
(8.76237e-07 -4.10221e-05 -1.456e-07)
(1.42936e-06 -4.05435e-05 -1.48214e-07)
(1.90514e-06 -3.98506e-05 -1.49398e-07)
(2.27166e-06 -3.89624e-05 -1.4821e-07)
(2.5041e-06 -3.78949e-05 -1.44191e-07)
(2.58844e-06 -3.66536e-05 -1.37925e-07)
(2.52384e-06 -3.52295e-05 -1.30238e-07)
(2.32213e-06 -3.35893e-05 -1.22082e-07)
(2.0066e-06 -3.16655e-05 -1.14199e-07)
(1.60912e-06 -2.93382e-05 -1.06825e-07)
(1.1681e-06 -2.6403e-05 -9.95616e-08)
(7.24604e-07 -2.25032e-05 -9.03059e-08)
(3.30236e-07 -1.69589e-05 -7.46597e-08)
(3.93914e-08 -8.20666e-06 -3.87424e-08)
(-6.45637e-08 -7.72712e-06 -6.43096e-08)
(-5.35657e-07 -1.59842e-05 -1.22507e-07)
(-1.17711e-06 -2.12341e-05 -1.48324e-07)
(-1.90883e-06 -2.49492e-05 -1.6598e-07)
(-2.65333e-06 -2.77702e-05 -1.83447e-07)
(-3.34777e-06 -3.00332e-05 -2.04905e-07)
(-3.92998e-06 -3.19302e-05 -2.31743e-07)
(-4.34356e-06 -3.35729e-05 -2.64141e-07)
(-4.54064e-06 -3.50216e-05 -3.01247e-07)
(-4.48651e-06 -3.63027e-05 -3.41385e-07)
(-4.16391e-06 -3.74185e-05 -3.82108e-07)
(-3.57707e-06 -3.83561e-05 -4.20273e-07)
(-2.75318e-06 -3.90928e-05 -4.52652e-07)
(-1.74185e-06 -3.96034e-05 -4.76072e-07)
(-6.10962e-07 -3.98649e-05 -4.88278e-07)
(5.61295e-07 -3.98635e-05 -4.88373e-07)
(1.69354e-06 -3.95991e-05 -4.76341e-07)
(2.70742e-06 -3.9086e-05 -4.53073e-07)
(3.53488e-06 -3.83468e-05 -4.20764e-07)
(4.12609e-06 -3.74074e-05 -3.82633e-07)
(4.45354e-06 -3.62904e-05 -3.41946e-07)
(4.51272e-06 -3.50086e-05 -3.01778e-07)
(4.32077e-06 -3.35595e-05 -2.64598e-07)
(3.91221e-06 -3.19171e-05 -2.3216e-07)
(3.3347e-06 -3.00208e-05 -2.0523e-07)
(2.64456e-06 -2.7759e-05 -1.83659e-07)
(1.90374e-06 -2.49396e-05 -1.66098e-07)
(1.17486e-06 -2.12267e-05 -1.48322e-07)
(5.35204e-07 -1.59794e-05 -1.22351e-07)
(6.47187e-08 -7.72533e-06 -6.40686e-08)
(-8.82702e-08 -7.02176e-06 -8.80285e-08)
(-7.2586e-07 -1.45542e-05 -1.67136e-07)
(-1.59438e-06 -1.9365e-05 -2.02604e-07)
(-2.59124e-06 -2.2786e-05 -2.28383e-07)
(-3.61609e-06 -2.53983e-05 -2.55798e-07)
(-4.58614e-06 -2.75077e-05 -2.90941e-07)
(-5.41672e-06 -2.92888e-05 -3.36068e-07)
(-6.02796e-06 -3.08423e-05 -3.9179e-07)
(-6.34825e-06 -3.22213e-05 -4.57078e-07)
(-6.32071e-06 -3.34466e-05 -5.29477e-07)
(-5.91094e-06 -3.45175e-05 -6.04962e-07)
(-5.11367e-06 -3.54188e-05 -6.7785e-07)
(-3.95848e-06 -3.61271e-05 -7.41526e-07)
(-2.51231e-06 -3.66178e-05 -7.89036e-07)
(-8.75723e-07 -3.6869e-05 -8.14476e-07)
(8.27435e-07 -3.68676e-05 -8.14546e-07)
(2.46531e-06 -3.66141e-05 -7.8924e-07)
(3.91403e-06 -3.61211e-05 -7.41859e-07)
(5.07264e-06 -3.54106e-05 -6.78286e-07)
(5.87417e-06 -3.45078e-05 -6.05447e-07)
(6.28865e-06 -3.34358e-05 -5.29982e-07)
(6.32116e-06 -3.22099e-05 -4.57589e-07)
(6.00599e-06 -3.0831e-05 -3.92251e-07)
(5.39968e-06 -2.92778e-05 -3.36492e-07)
(4.57371e-06 -2.74975e-05 -2.91296e-07)
(3.60785e-06 -2.53893e-05 -2.56074e-07)
(2.58654e-06 -2.27785e-05 -2.2855e-07)
(1.59234e-06 -1.93593e-05 -2.02638e-07)
(7.25495e-07 -1.45506e-05 -1.67002e-07)
(8.84305e-08 -7.02048e-06 -8.77968e-08)
(-1.08357e-07 -6.11757e-06 -1.0814e-07)
(-8.85611e-07 -1.27259e-05 -2.04939e-07)
(-1.94525e-06 -1.69717e-05 -2.48611e-07)
(-3.16749e-06 -2.00024e-05 -2.81321e-07)
(-4.43318e-06 -2.23221e-05 -3.17289e-07)
(-5.6423e-06 -2.41975e-05 -3.64271e-07)
(-6.69012e-06 -2.57819e-05 -4.25192e-07)
(-7.47528e-06 -2.71637e-05 -5.0091e-07)
(-7.90466e-06 -2.83891e-05 -5.90248e-07)
(-7.90203e-06 -2.94754e-05 -6.89922e-07)
(-7.41764e-06 -3.04211e-05 -7.94409e-07)
(-6.43842e-06 -3.12131e-05 -8.95952e-07)
(-4.99693e-06 -3.18322e-05 -9.8519e-07)
(-3.17558e-06 -3.22585e-05 -1.05212e-06)
(-1.10332e-06 -3.24759e-05 -1.08811e-06)
(1.05707e-06 -3.24747e-05 -1.08817e-06)
(3.13049e-06 -3.2255e-05 -1.05233e-06)
(4.95413e-06 -3.18266e-05 -9.85487e-07)
(6.39887e-06 -3.12059e-05 -8.96334e-07)
(7.38213e-06 -3.04127e-05 -7.94864e-07)
(7.87106e-06 -2.94661e-05 -6.904e-07)
(7.87855e-06 -2.83795e-05 -5.90731e-07)
(7.4541e-06 -2.71542e-05 -5.01385e-07)
(6.6737e-06 -2.57727e-05 -4.25624e-07)
(5.63041e-06 -2.41891e-05 -3.64642e-07)
(4.42532e-06 -2.23149e-05 -3.17586e-07)
(3.16303e-06 -1.99966e-05 -2.81483e-07)
(1.94341e-06 -1.69674e-05 -2.48654e-07)
(8.85337e-07 -1.27233e-05 -2.04828e-07)
(1.08526e-07 -6.1167e-06 -1.07916e-07)
(-1.22694e-07 -5.05714e-06 -1.22502e-07)
(-9.99009e-07 -1.05852e-05 -2.31874e-07)
(-2.1966e-06 -1.41662e-05 -2.81265e-07)
(-3.58591e-06 -1.67287e-05 -3.18836e-07)
(-5.03496e-06 -1.86866e-05 -3.61012e-07)
(-6.42987e-06 -2.02623e-05 -4.16749e-07)
(-7.64912e-06 -2.15859e-05 -4.89534e-07)
(-8.57322e-06 -2.27325e-05 -5.80339e-07)
(-9.09117e-06 -2.37417e-05 -6.87638e-07)
(-9.11075e-06 -2.46287e-05 -8.07387e-07)
(-8.57045e-06 -2.53935e-05 -9.3291e-07)
(-7.45187e-06 -2.60272e-05 -1.05485e-06)
(-5.79061e-06 -2.65172e-05 -1.16187e-06)
(-3.68175e-06 -2.68516e-05 -1.24209e-06)
(-1.2765e-06 -2.70208e-05 -1.28524e-06)
(1.23279e-06 -2.70198e-05 -1.28528e-06)
(3.63907e-06 -2.68486e-05 -1.24225e-06)
(5.75004e-06 -2.65126e-05 -1.16211e-06)
(7.41431e-06 -2.6021e-05 -1.05517e-06)
(8.53662e-06 -2.53864e-05 -9.33295e-07)
(9.08118e-06 -2.4621e-05 -8.0781e-07)
(9.06619e-06 -2.37337e-05 -6.88087e-07)
(8.55292e-06 -2.27247e-05 -5.8078e-07)
(7.63343e-06 -2.15785e-05 -4.89939e-07)
(6.41853e-06 -2.02557e-05 -4.17101e-07)
(5.02749e-06 -1.86809e-05 -3.6132e-07)
(3.5817e-06 -1.67243e-05 -3.19026e-07)
(2.19486e-06 -1.41631e-05 -2.81327e-07)
(9.98757e-07 -1.05834e-05 -2.31779e-07)
(1.22857e-07 -5.05664e-06 -1.22293e-07)
(-1.28983e-07 -3.9014e-06 -1.28814e-07)
(-1.05005e-06 -8.25245e-06 -2.43501e-07)
(-2.31694e-06 -1.11037e-05 -2.94945e-07)
(-3.79946e-06 -1.31445e-05 -3.34221e-07)
(-5.35989e-06 -1.46925e-05 -3.79154e-07)
(-6.87435e-06 -1.59239e-05 -4.39467e-07)
(-8.20843e-06 -1.69444e-05 -5.19038e-07)
(-9.22863e-06 -1.7816e-05 -6.18782e-07)
(-9.81083e-06 -1.85724e-05 -7.36838e-07)
(-9.85139e-06 -1.92274e-05 -8.68537e-07)
(-9.28096e-06 -1.97831e-05 -1.00634e-06)
(-8.07809e-06 -2.02359e-05 -1.13987e-06)
(-6.28125e-06 -2.05804e-05 -1.25676e-06)
(-3.99434e-06 -2.08121e-05 -1.34414e-06)
(-1.38294e-06 -2.09281e-05 -1.39104e-06)
(1.34239e-06 -2.09273e-05 -1.39107e-06)
(3.95472e-06 -2.08097e-05 -1.34426e-06)