/*--------------------------------*- C++ -*----------------------------------*\
| =========                 |                                                 |
| \\      /  F ield         | OpenFOAM: The Open Source CFD Toolbox           |
|  \\    /   O peration     | Version:  v1906                                 |
|   \\  /    A nd           | Web:      www.OpenFOAM.com                      |
|    \\/     M anipulation  |                                                 |
\*---------------------------------------------------------------------------*/
FoamFile
{
    version     2.0;
    format      ascii;
    class       volVectorField;
    location    "52/oil";
    object      U;
}
// * * * * * * * * * * * * * * * * * * * * * * * * * * * * * * * * * * * * * //

dimensions      [0 1 -1 0 0 0 0];


internalField   nonuniform List<vector> 
27760
(
(-2.57389e-05 -2.62433e-05 -2.57389e-05)
(-5.0813e-05 -1.96884e-05 -1.8537e-05)
(-3.72504e-06 -5.10984e-06 -5.06299e-06)
(-6.09362e-06 -8.38376e-07 -9.14173e-07)
(-1.3324e-06 -2.72675e-07 -3.60725e-07)
(-5.95719e-07 -1.17939e-07 -2.12218e-07)
(6.59324e-08 -2.46676e-08 -1.25717e-07)
(3.86759e-07 1.48864e-08 -9.22059e-08)
(5.64582e-07 3.70833e-08 -7.45241e-08)
(6.37698e-07 5.07296e-08 -6.38824e-08)
(6.32417e-07 6.04952e-08 -5.57356e-08)
(5.62312e-07 6.76138e-08 -4.9252e-08)
(4.38976e-07 7.29256e-08 -4.40682e-08)
(2.75279e-07 7.6551e-08 -4.03527e-08)
(8.58069e-08 7.84579e-08 -3.83484e-08)
(-1.13376e-07 7.862e-08 -3.81893e-08)
(-3.05859e-07 7.70833e-08 -3.98294e-08)
(-4.76255e-07 7.39878e-08 -4.30167e-08)
(-6.1161e-07 6.95644e-08 -4.73067e-08)
(-7.02462e-07 6.40999e-08 -5.21022e-08)
(-7.43583e-07 5.78155e-08 -5.67656e-08)
(-7.34546e-07 5.08565e-08 -6.05986e-08)
(-6.79012e-07 4.37212e-08 -6.26158e-08)
(-5.84585e-07 3.64408e-08 -6.23699e-08)
(-4.62706e-07 2.91977e-08 -5.92498e-08)
(-3.27615e-07 2.22974e-08 -5.28459e-08)
(-1.95878e-07 1.63696e-08 -4.31932e-08)
(-8.55482e-08 1.25863e-08 -3.11075e-08)
(-1.31806e-08 1.25623e-08 -1.89602e-08)
(7.26094e-09 1.41999e-08 -7.17635e-09)
(-1.86751e-05 -5.22141e-05 -1.8675e-05)
(-6.13177e-06 -6.76247e-06 -8.36288e-06)
(-8.29399e-06 -8.17867e-06 -2.92307e-06)
(-3.81763e-06 -2.34618e-06 -8.36987e-07)
(-1.44872e-06 -1.41074e-06 -4.16446e-07)
(-3.17903e-07 -7.49569e-07 -2.05116e-07)
(4.87278e-07 -4.60607e-07 -1.01359e-07)
(9.63349e-07 -2.99564e-07 -5.03008e-08)
(1.23927e-06 -2.0063e-07 -1.94185e-08)
(1.34926e-06 -1.30272e-07 2.06609e-09)
(1.31812e-06 -7.52274e-08 1.92256e-08)
(1.16335e-06 -3.1003e-08 3.35638e-08)
(9.04438e-07 3.50579e-09 4.50514e-08)
(5.65162e-07 2.76968e-08 5.32302e-08)
(1.74242e-07 4.06846e-08 5.76123e-08)
(-2.36191e-07 4.19928e-08 5.79211e-08)
(-6.3308e-07 3.19053e-08 5.42343e-08)
(-9.85378e-07 1.15806e-08 4.70217e-08)
(-1.26691e-06 -1.70287e-08 3.71036e-08)
(-1.45867e-06 -5.13905e-08 2.55615e-08)
(-1.55032e-06 -8.871e-08 1.36487e-08)
(-1.54055e-06 -1.26162e-07 2.69728e-09)
(-1.43689e-06 -1.60663e-07 -6.19495e-09)
(-1.25507e-06 -1.89531e-07 -1.20899e-08)
(-1.01748e-06 -2.09683e-07 -1.42683e-08)
(-7.51736e-07 -2.17397e-07 -1.24572e-08)
(-4.88702e-07 -2.07718e-07 -7.10778e-09)
(-2.59647e-07 -1.74392e-07 1.68126e-10)
(-9.19734e-08 -1.11002e-07 5.76617e-09)
(-5.36187e-09 -2.58189e-08 5.48881e-09)
(-5.16729e-06 -4.88879e-06 -5.16722e-06)
(-8.13954e-06 -9.16239e-06 -2.98722e-06)
(-4.24537e-06 -5.14696e-06 -1.31389e-06)
(-2.47943e-06 -2.94571e-06 -6.15782e-07)
(-8.43156e-07 -2.03355e-06 -2.83579e-07)
(1.85463e-07 -1.46008e-06 -1.1993e-07)
(9.44097e-07 -1.15037e-06 -3.34828e-08)
(1.43866e-06 -9.49687e-07 1.50507e-08)
(1.73133e-06 -8.05135e-07 4.77389e-08)
(1.83848e-06 -6.8871e-07 7.28121e-08)
(1.77554e-06 -5.89885e-07 9.39563e-08)
(1.55781e-06 -5.06068e-07 1.12008e-07)
(1.20698e-06 -4.38772e-07 1.26636e-07)
(7.52478e-07 -3.9082e-07 1.37094e-07)
(2.31055e-07 -3.6482e-07 1.42692e-07)
(-3.15584e-07 -3.62105e-07 1.4305e-07)
(-8.4429e-07 -3.82175e-07 1.38244e-07)
(-1.31447e-06 -4.22536e-07 1.28844e-07)
(-1.6919e-06 -4.78895e-07 1.15849e-07)
(-1.95178e-06 -5.45621e-07 1.00577e-07)
(-2.08065e-06 -6.16287e-07 8.44881e-08)
(-2.07698e-06 -6.84116e-07 6.90561e-08)
(-1.9507e-06 -7.42373e-07 5.55546e-08)
(-1.72195e-06 -7.8418e-07 4.49993e-08)
(-1.41906e-06 -8.02093e-07 3.80073e-08)
(-1.07623e-06 -7.87502e-07 3.46474e-08)
(-7.30741e-07 -7.29762e-07 3.41792e-08)
(-4.18649e-07 -6.15996e-07 3.45251e-08)
(-1.72794e-07 -4.31322e-07 3.15934e-08)
(-1.75928e-08 -1.69395e-07 1.77535e-08)
(-9.31674e-07 -7.06995e-06 -9.31582e-07)
(-2.14274e-06 -5.3843e-06 -8.40478e-07)
(-1.78206e-06 -4.46445e-06 -6.03828e-07)
(-9.83972e-07 -3.35931e-06 -3.08206e-07)
(-1.85837e-09 -2.7571e-06 -1.33722e-07)
(7.83069e-07 -2.34306e-06 -3.31875e-08)
(1.42048e-06 -2.07557e-06 2.8447e-08)
(1.87134e-06 -1.87236e-06 6.89847e-08)
(2.14104e-06 -1.70277e-06 1.00024e-07)
(2.22483e-06 -1.55065e-06 1.26231e-07)
(2.1259e-06 -1.41225e-06 1.49513e-07)
(1.85479e-06 -1.28998e-06 1.69896e-07)
(1.43273e-06 -1.1894e-06 1.86612e-07)
(8.91934e-07 -1.11675e-06 1.98625e-07)
(2.74176e-07 -1.0771e-06 2.05053e-07)
(-3.7237e-07 -1.07302e-06 2.05416e-07)
(-9.97559e-07 -1.10388e-06 1.99782e-07)
(-1.55412e-06 -1.16562e-06 1.88786e-07)
(-2.00224e-06 -1.25115e-06 1.73566e-07)
(-2.31323e-06 -1.35107e-06 1.55607e-07)
(-2.47161e-06 -1.45464e-06 1.36526e-07)
(-2.47581e-06 -1.55052e-06 1.17905e-07)
(-2.33733e-06 -1.62717e-06 1.01103e-07)
(-2.07909e-06 -1.67291e-06 8.71516e-08)
(-1.73279e-06 -1.67525e-06 7.66013e-08)
(-1.33611e-06 -1.62012e-06 6.9413e-08)
(-9.29511e-07 -1.49052e-06 6.47254e-08)
(-5.51558e-07 -1.26529e-06 6.01821e-08)
(-2.40223e-07 -9.15427e-07 5.13155e-08)
(-2.72711e-08 -3.98945e-07 2.74727e-08)
(-3.06138e-07 -2.53888e-06 -3.06023e-07)
(-1.01592e-06 -3.81645e-06 -3.6728e-07)
(-6.61195e-07 -4.00863e-06 -2.5138e-07)
(-8.97246e-08 -3.75776e-06 -1.20909e-07)
(6.26553e-07 -3.54767e-06 -2.91333e-08)
(1.27735e-06 -3.34449e-06 3.19481e-08)
(1.83331e-06 -3.16755e-06 7.54395e-08)
(2.24315e-06 -2.99555e-06 1.08976e-07)
(2.48561e-06 -2.82315e-06 1.38112e-07)
(2.54324e-06 -2.64962e-06 1.64922e-07)
(2.41056e-06 -2.48058e-06 1.89882e-07)
(2.09405e-06 -2.32531e-06 2.12287e-07)
(1.61399e-06 -2.19468e-06 2.30897e-07)
(1.00423e-06 -2.09918e-06 2.44358e-07)
(3.1017e-07 -2.0468e-06 2.51559e-07)
(-4.15117e-07 -2.04166e-06 2.51902e-07)
(-1.11606e-06 -2.08305e-06 2.45442e-07)
(-1.74021e-06 -2.16535e-06 2.3289e-07)
(-2.24348e-06 -2.27849e-06 2.15552e-07)
(-2.59432e-06 -2.40909e-06 1.95087e-07)
(-2.77594e-06 -2.54178e-06 1.73302e-07)
(-2.78694e-06 -2.66034e-06 1.51925e-07)
(-2.64007e-06 -2.74825e-06 1.32396e-07)
(-2.36016e-06 -2.7888e-06 1.15772e-07)
(-1.98117e-06 -2.76436e-06 1.02587e-07)
(-1.54285e-06 -2.6551e-06 9.27384e-08)
(-1.08772e-06 -2.43694e-06 8.53003e-08)
(-6.56431e-07 -2.07812e-06 7.7705e-08)
(-2.92113e-07 -1.52941e-06 6.51131e-08)
(-3.42452e-08 -6.96324e-07 3.44919e-08)
(-1.27085e-07 -2.1736e-06 -1.26949e-07)
(-2.63335e-07 -3.6169e-06 -1.30105e-07)
(3.65215e-08 -4.25615e-06 -7.54947e-08)
(5.10745e-07 -4.4624e-06 -1.38421e-08)
(1.09939e-06 -4.52778e-06 3.6595e-08)
(1.67204e-06 -4.49732e-06 7.55596e-08)
(2.17501e-06 -4.41226e-06 1.08187e-07)
(2.55321e-06 -4.28275e-06 1.37548e-07)
(2.77214e-06 -4.1206e-06 1.65965e-07)
(2.80656e-06 -3.93744e-06 1.93927e-07)
(2.64505e-06 -3.74756e-06 2.20934e-07)
(2.29089e-06 -3.56693e-06 2.45681e-07)
(1.76337e-06 -3.41195e-06 2.66472e-07)
(1.09741e-06 -3.29736e-06 2.81598e-07)
(3.41338e-07 -3.2343e-06 2.89686e-07)
(-4.47747e-07 -3.22846e-06 2.90002e-07)
(-1.20977e-06 -3.27917e-06 2.82583e-07)
(-1.88796e-06 -3.3793e-06 2.68245e-07)
(-2.4348e-06 -3.51589e-06 2.48498e-07)
(-2.81649e-06 -3.67168e-06 2.25253e-07)
(-3.01556e-06 -3.82689e-06 2.00568e-07)
(-3.03091e-06 -3.96048e-06 1.76352e-07)
(-2.87653e-06 -4.05115e-06 1.5416e-07)
(-2.57893e-06 -4.07736e-06 1.35116e-07)
(-2.17366e-06 -4.01635e-06 1.19757e-07)
(-1.70208e-06 -3.84233e-06 1.07947e-07)
(-1.20832e-06 -3.52324e-06 9.86991e-08)
(-7.35046e-07 -3.01432e-06 8.92585e-08)
(-3.29938e-07 -2.24076e-06 7.44135e-08)
(-3.90611e-08 -1.04361e-06 3.93543e-08)
(-2.69732e-08 -1.97356e-06 -2.6815e-08)
(6.01872e-08 -3.80474e-06 -1.52629e-08)
(4.00938e-07 -4.81683e-06 1.44116e-08)
(8.70051e-07 -5.35718e-06 4.66619e-08)
(1.41783e-06 -5.64891e-06 7.67088e-08)
(1.95771e-06 -5.77109e-06 1.04011e-07)
(2.43407e-06 -5.77844e-06 1.3083e-07)
(2.79356e-06 -5.70015e-06 1.58308e-07)
(2.9966e-06 -5.56035e-06 1.87145e-07)
(3.01397e-06 -5.38023e-06 2.16918e-07)
(2.83058e-06 -5.18137e-06 2.46456e-07)
(2.44738e-06 -4.98574e-06 2.73961e-07)
(1.88279e-06 -4.81459e-06 2.97293e-07)
(1.17265e-06 -4.68671e-06 3.14346e-07)
(3.67626e-07 -4.61611e-06 3.23454e-07)
(-4.7176e-07 -4.60996e-06 3.2374e-07)
(-1.28166e-06 -4.66768e-06 3.15228e-07)
(-2.00169e-06 -4.78082e-06 2.98844e-07)
(-2.58149e-06 -4.93393e-06 2.76348e-07)
(-2.98569e-06 -5.10626e-06 2.49976e-07)
(-3.19641e-06 -5.27406e-06 2.22077e-07)
(-3.21326e-06 -5.41214e-06 1.94793e-07)
(-3.05156e-06 -5.49496e-06 1.69852e-07)
(-2.73923e-06 -5.49655e-06 1.48436e-07)
(-2.3133e-06 -5.38918e-06 1.31108e-07)
(-1.8163e-06 -5.14095e-06 1.17698e-07)
(-1.29368e-06 -4.71093e-06 1.07159e-07)
(-7.89743e-07 -4.03935e-06 9.65744e-08)
(-3.55641e-07 -3.02153e-06 8.03825e-08)
(-4.22063e-08 -1.4259e-06 4.25459e-08)
(1.19264e-08 -2.13179e-06 1.21035e-08)
(2.20041e-07 -4.32081e-06 3.65228e-08)
(6.00976e-07 -5.6253e-06 5.81877e-08)
(1.08378e-06 -6.41481e-06 7.87804e-08)
(1.62049e-06 -6.88985e-06 9.96001e-08)
(2.14687e-06 -7.14459e-06 1.21488e-07)
(2.60977e-06 -7.24152e-06 1.45821e-07)
(2.95849e-06 -7.22085e-06 1.73078e-07)
(3.15176e-06 -7.11465e-06 2.03197e-07)
(3.1583e-06 -6.95091e-06 2.35277e-07)
(2.96071e-06 -6.75664e-06 2.67699e-07)
(2.55808e-06 -6.55841e-06 2.98226e-07)
(1.9681e-06 -6.38145e-06 3.24303e-07)
(1.22712e-06 -6.24778e-06 3.43441e-07)
(3.87643e-07 -6.17369e-06 3.53649e-07)
(-4.87125e-07 -6.16758e-06 3.53903e-07)
(-1.33043e-06 -6.22897e-06 3.44213e-07)
(-2.07905e-06 -6.34845e-06 3.25639e-07)
(-2.68046e-06 -6.50855e-06 3.00223e-07)
(-3.09829e-06 -6.68584e-06 2.70539e-07)
(-3.31479e-06 -6.85351e-06 2.39261e-07)
(-3.3305e-06 -6.98297e-06 2.0881e-07)
(-3.16208e-06 -7.04524e-06 1.81104e-07)
(-2.83873e-06 -7.01048e-06 1.57383e-07)
(-2.39863e-06 -6.84649e-06 1.38236e-07)
(-1.88512e-06 -6.51508e-06 1.23448e-07)
(-1.34441e-06 -5.96573e-06 1.11929e-07)
(-8.21794e-07 -5.12215e-06 1.00622e-07)
(-3.70444e-07 -3.84693e-06 8.37011e-08)
(-4.39779e-08 -1.83052e-06 4.4362e-08)
(2.943e-08 -2.41542e-06 2.96248e-08)
(2.94352e-07 -4.98632e-06 6.0933e-08)
(7.01167e-07 -6.56285e-06 7.94311e-08)
(1.19476e-06 -7.56712e-06 9.50419e-08)
(1.72711e-06 -8.20444e-06 1.11679e-07)
(2.24508e-06 -8.58185e-06 1.31198e-07)
(2.69858e-06 -8.76896e-06 1.54735e-07)
(3.03958e-06 -8.81348e-06 1.8256e-07)
(3.22675e-06 -8.75294e-06 2.14277e-07)
(3.22785e-06 -8.61982e-06 2.48703e-07)
(3.02401e-06 -8.44497e-06 2.83922e-07)
(2.61286e-06 -8.25811e-06 3.17354e-07)
(2.0112e-06 -8.08711e-06 3.46069e-07)
(1.25546e-06 -7.95613e-06 3.67199e-07)
(3.99183e-07 -7.88314e-06 3.78433e-07)
(-4.92813e-07 -7.87734e-06 3.78656e-07)
(-1.35196e-06 -7.93836e-06 3.67873e-07)
(-2.11332e-06 -8.05619e-06 3.47217e-07)
(-2.72316e-06 -8.21211e-06 3.19011e-07)
(-3.1448e-06 -8.3809e-06 2.86192e-07)
(-3.36097e-06 -8.53361e-06 2.51764e-07)
(-3.37335e-06 -8.63953e-06 2.18398e-07)
(-3.19987e-06 -8.66713e-06 1.88156e-07)
(-2.87078e-06 -8.58349e-06 1.62372e-07)
(-2.42486e-06 -8.35238e-06 1.4164e-07)
(-1.90562e-06 -7.92943e-06 1.25726e-07)
(-1.35926e-06 -7.25424e-06 1.13478e-07)
(-8.3109e-07 -6.23287e-06 1.01756e-07)
(-3.7471e-07 -4.69347e-06 8.462e-08)
(-4.44956e-08 -2.24568e-06 4.49217e-08)
(3.62964e-08 -2.76044e-06 3.65072e-08)
(3.23215e-07 -5.72408e-06 7.07119e-08)
(7.37317e-07 -7.56136e-06 8.78046e-08)
(1.229e-06 -8.76118e-06 1.01256e-07)
(1.75057e-06 -9.5482e-06 1.16024e-07)
(2.25521e-06 -1.0043e-05 1.34555e-07)
(2.69599e-06 -1.03226e-05 1.57962e-07)
(3.02747e-06 -1.04402e-05 1.86447e-07)
(3.20925e-06 -1.04372e-05 2.19526e-07)
(3.20908e-06 -1.03492e-05 2.55852e-07)
(3.00707e-06 -1.02089e-05 2.93312e-07)
(2.59962e-06 -1.00476e-05 3.29073e-07)
(2.00246e-06 -9.89452e-06 3.59883e-07)
(1.25131e-06 -9.77499e-06 3.82579e-07)
(3.99719e-07 -9.70776e-06 3.94618e-07)
(-4.87227e-07 -9.70249e-06 3.94809e-07)
(-1.34086e-06 -9.75889e-06 3.8315e-07)
(-2.09592e-06 -9.86668e-06 3.60833e-07)
(-2.69858e-06 -1.00066e-05 3.30419e-07)
(-3.11272e-06 -1.01527e-05 2.95117e-07)
(-3.3221e-06 -1.02751e-05 2.58186e-07)
(-3.32961e-06 -1.03421e-05 2.22541e-07)
(-3.15415e-06 -1.03206e-05 1.9037e-07)
(-2.82649e-06 -1.01759e-05 1.6306e-07)
(-2.38522e-06 -9.86782e-06 1.41186e-07)
(-1.87323e-06 -9.34642e-06 1.2449e-07)
(-1.3356e-06 -8.54123e-06 1.11816e-07)
(-8.16415e-07 -7.34042e-06 1.00009e-07)
(-3.68064e-07 -5.53717e-06 8.31344e-08)
(-4.37444e-08 -2.65964e-06 4.42109e-08)
(3.78322e-08 -3.1221e-06 3.80509e-08)
(3.23668e-07 -6.4748e-06 7.23038e-08)
(7.26178e-07 -8.56186e-06 8.8261e-08)
(1.19912e-06 -9.94407e-06 1.00483e-07)
(1.69676e-06 -1.08722e-05 1.14217e-07)
(2.17701e-06 -1.14813e-05 1.32115e-07)
(2.59651e-06 -1.18559e-05 1.55292e-07)
(2.91285e-06 -1.2054e-05 1.83972e-07)
(3.08749e-06 -1.21196e-05 2.17616e-07)
(3.08888e-06 -1.20897e-05 2.5484e-07)
(2.89677e-06 -1.19975e-05 2.93421e-07)
(2.5065e-06 -1.18747e-05 3.30376e-07)
(1.93235e-06 -1.17506e-05 3.62289e-07)
(1.20845e-06 -1.16504e-05 3.85799e-07)
(3.86899e-07 -1.15931e-05 3.98211e-07)
(-4.6876e-07 -1.15885e-05 3.98371e-07)
(-1.29162e-06 -1.16362e-05 3.86277e-07)
(-2.01796e-06 -1.17263e-05 3.63072e-07)
(-2.59542e-06 -1.18393e-05 3.31447e-07)
(-2.98946e-06 -1.19496e-05 2.94787e-07)
(-3.18529e-06 -1.20276e-05 2.56565e-07)
(-3.18692e-06 -1.20414e-05 2.19787e-07)
(-3.01385e-06 -1.1958e-05 1.86691e-07)
(-2.6966e-06 -1.17412e-05 1.58691e-07)
(-2.27261e-06 -1.13484e-05 1.3636e-07)
(-1.78288e-06 -1.07242e-05 1.19419e-07)
(-1.27019e-06 -9.78846e-06 1.06702e-07)
(-7.76077e-07 -8.41167e-06 9.51674e-08)
(-3.49862e-07 -6.35271e-06 7.90953e-08)
(-4.1642e-08 -3.06009e-06 4.21479e-08)
(3.60723e-08 -3.47309e-06 3.63049e-08)
(3.03456e-07 -7.19427e-06 6.84499e-08)
(6.75983e-07 -9.51432e-06 8.30012e-08)
(1.11167e-06 -1.10651e-05 9.41279e-08)
(1.56863e-06 -1.21256e-05 1.06892e-07)
(2.00967e-06 -1.28453e-05 1.23952e-07)
(2.39584e-06 -1.33161e-05 1.46366e-07)
(2.68871e-06 -1.35999e-05 1.74374e-07)
(2.85251e-06 -1.37426e-05 2.07445e-07)
(2.85735e-06 -1.37812e-05 2.44225e-07)
(2.68329e-06 -1.37482e-05 2.82498e-07)
(2.32474e-06 -1.36745e-05 3.19255e-07)
(1.79399e-06 -1.35882e-05 3.51035e-07)
(1.12247e-06 -1.35138e-05 3.74458e-07)
(3.59074e-07 -1.34697e-05 3.86762e-07)
(-4.36168e-07 -1.34657e-05 3.86887e-07)
(-1.20025e-06 -1.35017e-05 3.74815e-07)
(-1.87303e-06 -1.35676e-05 3.5161e-07)
(-2.40529e-06 -1.36447e-05 3.2004e-07)
(-2.76527e-06 -1.37083e-05 2.83481e-07)
(-2.94029e-06 -1.373e-05 2.45447e-07)
(-2.93547e-06 -1.36794e-05 2.08947e-07)
(-2.77025e-06 -1.3524e-05 1.7621e-07)
(-2.4738e-06 -1.32273e-05 1.48608e-07)
(-2.08129e-06 -1.2745e-05 1.2667e-07)
(-1.63053e-06 -1.2017e-05 1.10127e-07)
(-1.16043e-06 -1.09543e-05 9.78631e-08)
(-7.08558e-07 -9.41091e-06 8.704e-08)
(-3.19414e-07 -7.11299e-06 7.23358e-08)
(-3.80908e-08 -3.43376e-06 3.86327e-08)
(3.19661e-08 -3.79226e-06 3.21964e-08)
(2.66293e-07 -7.8445e-06 6.04086e-08)
(5.91117e-07 -1.03727e-05 7.30345e-08)
(9.70495e-07 -1.20744e-05 8.28504e-08)
(1.36845e-06 -1.32558e-05 9.43759e-08)
(1.75352e-06 -1.40798e-05 1.10043e-07)
(2.09235e-06 -1.4645e-05 1.30842e-07)
(2.35163e-06 -1.50167e-05 1.57007e-07)
(2.49961e-06 -1.52413e-05 1.88056e-07)
(2.50911e-06 -1.53551e-05 2.22734e-07)
(2.36118e-06 -1.53891e-05 2.58958e-07)
(2.04938e-06 -1.53718e-05 2.93887e-07)
(1.58349e-06 -1.53295e-05 3.24117e-07)
(9.90873e-07 -1.52851e-05 3.46408e-07)
(3.15313e-07 -1.52565e-05 3.58075e-07)
(-3.88844e-07 -1.52532e-05 3.5815e-07)
(-1.06453e-06 -1.52751e-05 3.46634e-07)
(-1.65732e-06 -1.53124e-05 3.24478e-07)
(-2.1232e-06 -1.53472e-05 2.9437e-07)
(-2.43456e-06 -1.53564e-05 2.59576e-07)
(-2.58141e-06 -1.53137e-05 2.23494e-07)
(-2.56986e-06 -1.51908e-05 1.88981e-07)
(-2.41854e-06 -1.49571e-05 1.58156e-07)
(-2.1542e-06 -1.45768e-05 1.32246e-07)
(-1.80832e-06 -1.40043e-05 1.11742e-07)
(-1.41401e-06 -1.3176e-05 9.63693e-08)
(-1.0049e-06 -1.19952e-05 8.51158e-08)
(-6.13053e-07 -1.03008e-05 7.54579e-08)
(-2.76352e-07 -7.78963e-06 6.27252e-08)
(-3.30416e-08 -3.76681e-06 3.36206e-08)
(2.5927e-08 -4.06194e-06 2.61669e-08)
(2.14332e-07 -8.39166e-06 4.88789e-08)
(4.74856e-07 -1.10941e-05 5.90191e-08)
(7.79475e-07 -1.29238e-05 6.71309e-08)
(1.09994e-06 -1.42103e-05 7.69648e-08)
(1.41183e-06 -1.51286e-05 9.05669e-08)
(1.68865e-06 -1.57827e-05 1.08767e-07)
(1.90351e-06 -1.62404e-05 1.31842e-07)
(2.03008e-06 -1.65481e-05 1.59438e-07)
(2.04495e-06 -1.67403e-05 1.905e-07)
(1.93104e-06 -1.68457e-05 2.23184e-07)
(1.68112e-06 -1.68896e-05 2.54937e-07)
(1.30162e-06 -1.68955e-05 2.82598e-07)
(8.14338e-07 -1.68843e-05 3.03163e-07)
(2.55899e-07 -1.68727e-05 3.13974e-07)
(-3.27046e-07 -1.68699e-05 3.13998e-07)
(-8.85111e-07 -1.6876e-05 3.03239e-07)
(-1.37161e-06 -1.68814e-05 2.82723e-07)
(-1.74981e-06 -1.68694e-05 2.55106e-07)
(-1.99786e-06 -1.68191e-05 2.23426e-07)
(-2.10911e-06 -1.6707e-05 1.9086e-07)
(-2.09063e-06 -1.65081e-05 1.5992e-07)
(-1.95943e-06 -1.61939e-05 1.32468e-07)
(-1.73871e-06 -1.57304e-05 1.09554e-07)
(-1.45469e-06 -1.50718e-05 9.15341e-08)
(-1.13434e-06 -1.41517e-05 7.81273e-08)
(-8.04426e-07 -1.28669e-05 6.84812e-08)
(-4.90059e-07 -1.10438e-05 6.04911e-08)
(-2.20856e-07 -8.35422e-06 5.03077e-08)
(-2.64897e-08 -4.04525e-06 2.70993e-08)
(1.82562e-08 -4.26657e-06 1.84905e-08)
(1.4948e-07 -8.80514e-06 3.43139e-08)
(3.30742e-07 -1.16393e-05 4.13929e-08)
(5.43577e-07 -1.3568e-05 4.7365e-08)
(7.69213e-07 -1.49393e-05 5.4953e-08)
(9.91341e-07 -1.59373e-05 6.56837e-08)
(1.19175e-06 -1.66706e-05 8.02589e-08)
(1.35129e-06 -1.72081e-05 9.89468e-08)
(1.45041e-06 -1.75956e-05 1.2152e-07)
(1.47071e-06 -1.78657e-05 1.47243e-07)
(1.39767e-06 -1.80437e-05 1.74664e-07)
(1.2235e-06 -1.81515e-05 2.01731e-07)
(9.50776e-07 -1.82088e-05 2.25702e-07)
(5.94284e-07 -1.82337e-05 2.43855e-07)
(1.81324e-07 -1.82406e-05 2.5354e-07)
(-2.51179e-07 -1.82383e-05 2.53501e-07)
(-6.6331e-07 -1.82267e-05 2.43763e-07)
(-1.0182e-06 -1.8197e-05 2.25576e-07)
(-1.2885e-06 -1.81347e-05 2.01606e-07)
(-1.45949e-06 -1.80219e-05 1.74563e-07)
(-1.52862e-06 -1.78387e-05 1.47193e-07)
(-1.50368e-06 -1.75636e-05 1.21562e-07)
(-1.39909e-06 -1.71716e-05 9.91098e-08)
(-1.23326e-06 -1.66303e-05 8.05626e-08)
(-1.02573e-06 -1.58946e-05 6.61365e-08)
(-7.9584e-07 -1.48961e-05 5.55523e-08)
(-5.62129e-07 -1.35268e-05 4.81024e-08)
(-3.41522e-07 -1.16038e-05 4.22554e-08)
(-1.5377e-07 -8.77937e-06 3.52164e-08)
(-1.8511e-08 -4.2555e-06 1.91491e-08)
(9.24002e-09 -4.39288e-06 9.46729e-09)
(7.39131e-08 -9.0586e-06 1.72498e-08)
(1.63331e-07 -1.19741e-05 2.07721e-08)
(2.69927e-07 -1.3967e-05 2.41645e-08)
(3.85734e-07 -1.53978e-05 2.89689e-08)
(5.03526e-07 -1.64564e-05 3.60826e-08)
(6.14522e-07 -1.72539e-05 4.59822e-08)
(7.08462e-07 -1.786e-05 5.89405e-08)
(7.73744e-07 -1.83194e-05 7.49609e-08)
(7.98296e-07 -1.86624e-05 9.37183e-08)
(7.71168e-07 -1.89112e-05 1.14304e-07)
(6.84509e-07 -1.90831e-05 1.35268e-07)
(5.3656e-07 -1.91939e-05 1.54421e-07)
(3.33903e-07 -1.92573e-05 1.6944e-07)
(9.27096e-08 -1.92845e-05 1.7771e-07)
(-1.62003e-07 -1.92825e-05 1.77628e-07)
(-4.01971e-07 -1.92512e-05 1.69232e-07)
(-6.02309e-07 -1.91838e-05 1.54092e-07)
(-7.46942e-07 -1.90688e-05 1.34874e-07)
(-8.29477e-07 -1.88928e-05 1.13903e-07)
(-8.51704e-07 -1.86402e-05 9.33643e-08)
(-8.21634e-07 -1.82936e-05 7.4682e-08)
(-7.50283e-07 -1.7831e-05 5.87548e-08)
(-6.49804e-07 -1.72225e-05 4.5915e-08)
(-5.31873e-07 -1.64237e-05 3.61477e-08)
(-4.0695e-07 -1.53654e-05 2.91724e-08)
(-2.84134e-07 -1.39369e-05 2.45091e-08)
(-1.71172e-07 -1.19487e-05 2.12443e-08)
(-7.67607e-08 -9.04067e-06 1.78281e-08)
(-9.30153e-09 -4.38547e-06 9.9636e-09)
(-8.00504e-10 -4.4303e-06 -5.8598e-10)
(-9.59311e-09 -9.13111e-06 -1.71678e-09)
(-2.13159e-08 -1.2071e-05 -2.16927e-09)
(-3.17769e-08 -1.40884e-05 -1.73418e-09)
(-3.73116e-08 -1.55485e-05 -2.53535e-10)
(-3.53859e-08 -1.66434e-05 2.44165e-09)
(-2.46593e-08 -1.74849e-05 6.57844e-09)
(-5.57929e-09 -1.81423e-05 1.23893e-08)
(1.93548e-08 -1.86593e-05 2.00567e-08)
(4.54494e-08 -1.90639e-05 2.9632e-08)
(6.63624e-08 -1.9375e-05 4.08659e-08)
(7.50531e-08 -1.96063e-05 5.31486e-08)
(6.58976e-08 -1.97684e-05 6.51133e-08)
(3.67738e-08 -1.987e-05 7.50827e-08)
(-8.80469e-09 -1.99176e-05 8.08651e-08)
(-6.03902e-08 -1.99158e-05 8.073e-08)
(-1.04461e-07 -1.98645e-05 7.47518e-08)
(-1.30702e-07 -1.97593e-05 6.46019e-08)
(-1.35785e-07 -1.95937e-05 5.25466e-08)
(-1.22144e-07 -1.93592e-05 4.02182e-08)
(-9.55711e-08 -1.9045e-05 2.90101e-08)
(-6.33592e-08 -1.86378e-05 1.94887e-08)
(-3.19525e-08 -1.81187e-05 1.19235e-08)
(-6.18014e-09 -1.74598e-05 6.23297e-09)
(1.13063e-08 -1.66179e-05 2.21919e-09)
(1.98725e-08 -1.55238e-05 -3.39942e-10)
(2.05697e-08 -1.40659e-05 -1.67448e-09)
(1.54859e-08 -1.20525e-05 -1.96087e-09)
(7.71864e-09 -9.11841e-06 -1.3496e-09)
(8.65213e-10 -4.42529e-06 -1.8385e-10)
(-1.14432e-08 -4.37171e-06 -1.12304e-08)
(-9.75487e-08 -9.00864e-06 -2.17773e-08)
(-2.15504e-07 -1.19115e-05 -2.64491e-08)
(-3.48973e-07 -1.39101e-05 -2.92376e-08)
(-4.82435e-07 -1.53655e-05 -3.14776e-08)
(-6.03308e-07 -1.64678e-05 -3.37963e-08)
(-6.99859e-07 -1.73273e-05 -3.63368e-08)
(-7.62302e-07 -1.80119e-05 -3.8937e-08)
(-7.83387e-07 -1.85637e-05 -4.12849e-08)
(-7.5955e-07 -1.90092e-05 -4.29437e-08)
(-6.91329e-07 -1.93647e-05 -4.35085e-08)
(-5.83813e-07 -1.964e-05 -4.27005e-08)
(-4.45753e-07 -1.9842e-05 -4.07649e-08)
(-2.87707e-07 -1.99742e-05 -3.82741e-08)
(-1.19982e-07 -2.00388e-05 -3.64407e-08)
(5.07912e-08 -2.00371e-05 -3.65925e-08)
(2.20265e-07 -1.99691e-05 -3.86672e-08)
(3.81593e-07 -1.98335e-05 -4.13781e-08)
(5.24251e-07 -1.96286e-05 -4.34519e-08)
(6.37264e-07 -1.93504e-05 -4.43372e-08)
(7.11677e-07 -1.89925e-05 -4.37421e-08)
(7.42098e-07 -1.85451e-05 -4.20348e-08)
(7.2778e-07 -1.79919e-05 -3.95846e-08)
(6.72125e-07 -1.73067e-05 -3.68711e-08)
(5.82201e-07 -1.64474e-05 -3.42168e-08)
(4.67607e-07 -1.53462e-05 -3.17585e-08)
(3.39802e-07 -1.38929e-05 -2.93674e-08)
(2.11011e-07 -1.18977e-05 -2.63935e-08)
(9.63055e-08 -8.99942e-06 -2.15393e-08)
(1.15822e-08 -4.36822e-06 -1.08874e-08)
(-2.21649e-08 -4.21435e-06 -2.19754e-08)
(-1.85744e-07 -8.68616e-06 -4.20058e-08)
(-4.09979e-07 -1.1489e-05 -5.09471e-08)
(-6.66616e-07 -1.34235e-05 -5.70646e-08)
(-9.28429e-07 -1.48378e-05 -6.32059e-08)
(-1.17314e-06 -1.59152e-05 -7.0867e-08)
(-1.37872e-06 -1.67623e-05 -8.05254e-08)
(-1.52515e-06 -1.74442e-05 -9.22255e-08)
(-1.59534e-06 -1.80013e-05 -1.05614e-07)
(-1.57695e-06 -1.84582e-05 -1.19917e-07)
(-1.46414e-06 -1.88295e-05 -1.3416e-07)
(-1.25914e-06 -1.91232e-05 -1.47036e-07)
(-9.72724e-07 -1.93431e-05 -1.57455e-07)
(-6.23364e-07 -1.94899e-05 -1.64513e-07)
(-2.35259e-07 -1.95629e-05 -1.67893e-07)
(1.66229e-07 -1.95612e-05 -1.6805e-07)
(5.56229e-07 -1.94849e-05 -1.64944e-07)
(9.09094e-07 -1.93349e-05 -1.58126e-07)
(1.20042e-06 -1.91123e-05 -1.47858e-07)
(1.41134e-06 -1.88162e-05 -1.35065e-07)
(1.53069e-06 -1.8443e-05 -1.20829e-07)
(1.55594e-06 -1.79848e-05 -1.06476e-07)
(1.4927e-06 -1.74269e-05 -9.3012e-08)
(1.3531e-06 -1.67448e-05 -8.11918e-08)
(1.15404e-06 -1.58983e-05 -7.14102e-08)
(9.15346e-07 -1.48222e-05 -6.36261e-08)
(6.58788e-07 -1.34099e-05 -5.7319e-08)
(4.06367e-07 -1.14784e-05 -5.1008e-08)
(1.84928e-07 -8.67922e-06 -4.18515e-08)
(2.23635e-08 -4.21182e-06 -2.16624e-08)
(-3.24424e-08 -3.96029e-06 -3.22608e-08)
(-2.69633e-07 -8.16832e-06 -6.13301e-08)
(-5.9456e-07 -1.081e-05 -7.43326e-08)
(-9.67949e-07 -1.26361e-05 -8.36563e-08)
(-1.35166e-06 -1.39731e-05 -9.35581e-08)
(-1.71431e-06 -1.4993e-05 -1.06335e-07)
(-2.02417e-06 -1.57959e-05 -1.22844e-07)
(-2.25147e-06 -1.64433e-05 -1.43324e-07)
(-2.36965e-06 -1.69728e-05 -1.67391e-07)
(-2.35798e-06 -1.7408e-05 -1.94014e-07)
(-2.20413e-06 -1.77625e-05 -2.21599e-07)
(-1.90715e-06 -1.80436e-05 -2.4791e-07)
(-1.47936e-06 -1.82545e-05 -2.70546e-07)
(-9.46551e-07 -1.83958e-05 -2.87119e-07)
(-3.46206e-07 -1.84663e-05 -2.95763e-07)
(2.77745e-07 -1.84646e-05 -2.9592e-07)
(8.80003e-07 -1.83908e-05 -2.87553e-07)
(1.41645e-06 -1.82465e-05 -2.71211e-07)
(1.84929e-06 -1.8033e-05 -2.48741e-07)
(2.15232e-06 -1.77498e-05 -2.22511e-07)
(2.31288e-06 -1.73939e-05 -1.94951e-07)
(2.33156e-06 -1.69577e-05 -1.68289e-07)
(2.22042e-06 -1.64278e-05 -1.44156e-07)
(1.99994e-06 -1.57807e-05 -1.2357e-07)
(1.69651e-06 -1.49786e-05 -1.06941e-07)
(1.3397e-06 -1.396e-05 -9.40333e-08)
(9.60999e-07 -1.2625e-05 -8.39709e-08)
(5.91514e-07 -1.08015e-05 -7.4454e-08)
(2.69066e-07 -8.16292e-06 -6.12187e-08)
(3.26673e-08 -3.9584e-06 -3.1968e-08)
(-4.16672e-08 -3.61691e-06 -4.15086e-08)
(-3.44534e-07 -7.47051e-06 -7.87064e-08)
(-7.59091e-07 -9.89485e-06 -9.53378e-08)
(-1.23644e-06 -1.15719e-05 -1.07476e-07)
(-1.72881e-06 -1.27986e-05 -1.20654e-07)
(-2.19669e-06 -1.37311e-05 -1.37889e-07)
(-2.59969e-06 -1.44611e-05 -1.60374e-07)
(-2.89927e-06 -1.50448e-05 -1.88468e-07)
(-3.06039e-06 -1.55175e-05 -2.21719e-07)
(-3.05468e-06 -1.59013e-05 -2.58883e-07)
(-2.86411e-06 -1.62095e-05 -2.97836e-07)
(-2.48499e-06 -1.64506e-05 -3.3559e-07)
(-1.93105e-06 -1.6629e-05 -3.68577e-07)
(-1.2346e-06 -1.67471e-05 -3.93183e-07)
(-4.44933e-07 -1.68056e-05 -4.06269e-07)
(3.77534e-07 -1.6804e-05 -4.06408e-07)
(1.16908e-06 -1.67424e-05 -3.93587e-07)
(1.86914e-06 -1.66214e-05 -3.69208e-07)
(2.42809e-06 -1.64406e-05 -3.3637e-07)
(2.8133e-06 -1.61977e-05 -2.98702e-07)
(3.0106e-06 -1.58882e-05 -2.59793e-07)
(3.02332e-06 -1.55038e-05 -2.22606e-07)
(2.86922e-06 -1.5031e-05 -1.89287e-07)
(2.57643e-06 -1.44477e-05 -1.61119e-07)
(2.17975e-06 -1.37187e-05 -1.38521e-07)
(1.71756e-06 -1.27875e-05 -1.21149e-07)
(1.23003e-06 -1.15627e-05 -1.07821e-07)
(7.56371e-07 -9.88795e-06 -9.54874e-08)
(3.44113e-07 -7.46622e-06 -7.86113e-08)
(4.19098e-08 -3.61545e-06 -4.12206e-08)
(-4.93197e-08 -3.19666e-06 -4.9175e-08)
(-4.0614e-07 -6.61831e-06 -9.31103e-08)
(-8.94146e-07 -8.77761e-06 -1.12701e-07)
(-1.45686e-06 -1.02713e-05 -1.27087e-07)
(-2.03873e-06 -1.13598e-05 -1.42827e-07)
(-2.59354e-06 -1.21807e-05 -1.63496e-07)
(-3.0734e-06 -1.28151e-05 -1.90508e-07)
(-3.43237e-06 -1.33135e-05 -2.24305e-07)
(-3.62826e-06 -1.3708e-05 -2.64346e-07)
(-3.62645e-06 -1.40192e-05 -3.09167e-07)
(-3.4046e-06 -1.42613e-05 -3.56247e-07)
(-2.95707e-06 -1.44441e-05 -4.02008e-07)
(-2.29915e-06 -1.45747e-05 -4.42129e-07)
(-1.46877e-06 -1.46586e-05 -4.72192e-07)
(-5.24862e-07 -1.46991e-05 -4.88286e-07)
(4.59051e-07 -1.46976e-05 -4.88403e-07)
(1.40478e-06 -1.46542e-05 -4.72537e-07)
(2.2387e-06 -1.45677e-05 -4.42673e-07)
(2.90149e-06 -1.44348e-05 -4.02704e-07)
(3.35496e-06 -1.42504e-05 -3.57035e-07)
(3.5834e-06 -1.40073e-05 -3.09994e-07)
(3.59211e-06 -1.36956e-05 -2.65175e-07)
(3.40316e-06 -1.33012e-05 -2.25084e-07)
(3.05086e-06 -1.28033e-05 -1.91224e-07)
(2.5772e-06 -1.21699e-05 -1.6412e-07)
(2.02796e-06 -1.13504e-05 -1.43335e-07)
(1.45077e-06 -1.02637e-05 -1.27443e-07)
(8.91597e-07 -8.77201e-06 -1.12862e-07)
(4.05773e-07 -6.6149e-06 -9.30249e-08)
(4.95599e-08 -3.19554e-06 -4.8894e-08)
(-5.48922e-08 -2.7165e-06 -5.47654e-08)
(-4.50477e-07 -5.64629e-06 -1.03604e-07)
(-9.91442e-07 -7.50384e-06 -1.25316e-07)
(-1.6164e-06 -8.78803e-06 -1.41229e-07)
(-2.26431e-06 -9.71787e-06 -1.58647e-07)
(-2.88373e-06 -1.04101e-05 -1.81549e-07)
(-3.42093e-06 -1.09344e-05 -2.11454e-07)
(-3.82396e-06 -1.13347e-05 -2.48805e-07)
(-4.04511e-06 -1.16397e-05 -2.92995e-07)
(-4.04534e-06 -1.1869e-05 -3.42345e-07)
(-3.79926e-06 -1.2037e-05 -3.94039e-07)
(-3.3004e-06 -1.21551e-05 -4.44185e-07)
(-2.56577e-06 -1.22333e-05 -4.88097e-07)
(-1.63772e-06 -1.22797e-05 -5.20956e-07)
(-5.82092e-07 -1.23007e-05 -5.38553e-07)
(5.18518e-07 -1.22993e-05 -5.38657e-07)
(1.57586e-06 -1.22757e-05 -5.21269e-07)
(2.50725e-06 -1.22269e-05 -4.8858e-07)
(3.24654e-06 -1.21468e-05 -4.44801e-07)
(3.75112e-06 -1.20273e-05 -3.94751e-07)
(4.00356e-06 -1.18585e-05 -3.43099e-07)
(4.01004e-06 -1.16288e-05 -2.93755e-07)
(3.79562e-06 -1.1324e-05 -2.49541e-07)
(3.39907e-06 -1.09242e-05 -2.12133e-07)
(2.86792e-06 -1.0401e-05 -1.82148e-07)
(2.25389e-06 -9.71002e-06 -1.59142e-07)
(1.61052e-06 -8.78178e-06 -1.41568e-07)
(9.89012e-07 -7.49936e-06 -1.25473e-07)
(4.5014e-07 -5.64364e-06 -1.03526e-07)
(5.51258e-08 -2.71569e-06 -5.44928e-08)
(-5.78953e-08 -2.1976e-06 -5.77867e-08)
(-4.74029e-07 -4.59711e-06 -1.09252e-07)
(-1.04394e-06 -6.12929e-06 -1.32004e-07)
(-1.70465e-06 -7.18709e-06 -1.48567e-07)
(-2.3923e-06 -7.94559e-06 -1.6668e-07)
(-3.0519e-06 -8.49975e-06 -1.90521e-07)
(-3.62545e-06 -8.90747e-06 -2.21679e-07)
(-4.05663e-06 -9.20603e-06 -2.60553e-07)
(-4.29392e-06 -9.42056e-06 -3.06407e-07)
(-4.29537e-06 -9.56906e-06 -3.574e-07)
(-4.0341e-06 -9.66578e-06 -4.10581e-07)
(-3.50366e-06 -9.72324e-06 -4.6194e-07)
(-2.72264e-06 -9.75307e-06 -5.06716e-07)
(-1.73637e-06 -9.76572e-06 -5.40103e-07)
(-6.14887e-07 -9.76924e-06 -5.57973e-07)
(5.54188e-07 -9.76808e-06 -5.58061e-07)
(1.67728e-06 -9.7623e-06 -5.40372e-07)
(2.66668e-06 -9.74767e-06 -5.07136e-07)
(3.4521e-06 -9.71616e-06 -4.62482e-07)
(3.98793e-06 -9.65751e-06 -4.11209e-07)
(4.25525e-06 -9.56007e-06 -3.58076e-07)
(4.26019e-06 -9.41132e-06 -3.071e-07)
(4.02935e-06 -9.19697e-06 -2.61229e-07)
(3.60441e-06 -8.899e-06 -2.22308e-07)
(3.03669e-06 -8.49219e-06 -1.91081e-07)
(2.38227e-06 -7.9392e-06 -1.67155e-07)
(1.69898e-06 -7.1821e-06 -1.48902e-07)
(1.04158e-06 -6.1258e-06 -1.3216e-07)
(4.73682e-07 -4.59518e-06 -1.09182e-07)
(5.81122e-08 -2.19709e-06 -5.75297e-08)
(-5.77686e-08 -1.66519e-06 -5.76766e-08)
(-4.73192e-07 -3.5207e-06 -1.08951e-07)
(-1.0452e-06 -4.71814e-06 -1.31357e-07)
(-1.71293e-06 -5.54248e-06 -1.47446e-07)
(-2.41256e-06 -6.12491e-06 -1.65093e-07)
(-3.08716e-06 -6.53903e-06 -1.88527e-07)
(-3.67598e-06 -6.83122e-06 -2.19357e-07)
(-4.11991e-06 -7.0321e-06 -2.57896e-07)
(-4.36532e-06 -7.16302e-06 -3.03299e-07)
(-4.36891e-06 -7.23986e-06 -3.53623e-07)
(-4.10347e-06 -7.27598e-06 -4.0587e-07)
(-3.56312e-06 -7.28385e-06 -4.56076e-07)
(-2.76767e-06 -7.27558e-06 -4.99651e-07)
(-1.76384e-06 -7.26227e-06 -5.32003e-07)
(-6.2302e-07 -7.25271e-06 -5.49281e-07)