/*--------------------------------*- C++ -*----------------------------------*\
| =========                 |                                                 |
| \\      /  F ield         | OpenFOAM: The Open Source CFD Toolbox           |
|  \\    /   O peration     | Version:  v1906                                 |
|   \\  /    A nd           | Web:      www.OpenFOAM.com                      |
|    \\/     M anipulation  |                                                 |
\*---------------------------------------------------------------------------*/
FoamFile
{
    version     2.0;
    format      ascii;
    class       surfaceScalarField;
    location    "36.2/oil";
    object      phi;
}
// * * * * * * * * * * * * * * * * * * * * * * * * * * * * * * * * * * * * * //

dimensions      [1 0 -1 0 0 0 0];
oriented        oriented;


internalField   nonuniform List<scalar> 
80688
(
-2.36567e-06
-2.40645e-06
-2.36567e-06
-1.0688e-06
-6.70576e-07
-6.26297e-07
-2.91737e-07
-3.90957e-07
-3.86107e-07
-1.45207e-07
-7.35654e-08
-7.29655e-08
-6.09356e-08
-4.24978e-08
-4.17732e-08
-2.14831e-08
-2.01777e-08
-1.92748e-08
-1.19454e-09
-1.06247e-08
-9.66386e-09
9.51897e-09
-5.86495e-09
-4.8486e-09
1.49066e-08
-3.26458e-09
-2.12307e-09
1.68578e-08
-1.65109e-09
-3.00197e-10
1.63173e-08
-5.27255e-10
1.06773e-09
1.38398e-08
3.07731e-10
2.16979e-09
9.86845e-09
9.38118e-10
3.03317e-09
4.85538e-09
1.36757e-09
3.64548e-09
-7.22079e-10
1.59993e-09
3.97752e-09
-6.37134e-09
1.63507e-09
4.01419e-09
-1.16161e-08
1.48123e-09
3.76354e-09
-1.6035e-08
1.15867e-09
3.26025e-09
-1.92993e-08
6.99581e-10
2.56463e-09
-2.11939e-08
1.41483e-10
1.75312e-09
-2.16442e-08
-4.59107e-10
9.09408e-10
-2.07015e-08
-1.06689e-09
1.24152e-10
-1.85251e-08
-1.63916e-09
-5.37217e-10
-1.53917e-08
-2.13685e-09
-9.96549e-10
-1.16658e-08
-2.51843e-09
-1.2075e-09
-7.78383e-09
-2.72992e-09
-1.15205e-09
-4.23583e-09
-2.69366e-09
-8.54355e-10
-1.5262e-09
-2.30172e-09
-4.07918e-10
-8.06493e-11
-1.42205e-09
-2.35198e-11
-1.68184e-10
8.75238e-11
-6.37428e-07
-1.1316e-06
-6.37427e-07
-3.83062e-07
-4.12648e-07
-5.12293e-07
-2.75799e-07
-2.77515e-07
-2.20706e-07
-1.38619e-07
-1.2063e-07
-9.01162e-08
-6.16679e-08
-7.26955e-08
-4.67531e-08
-1.75857e-08
-4.36725e-08
-2.05875e-08
8.82366e-09
-2.98153e-08
-7.21876e-09
2.4353e-08
-2.19661e-08
5.71727e-10
3.25935e-08
-1.71656e-08
5.66045e-09
3.5348e-08
-1.3857e-08
9.45146e-09
3.36646e-08
-1.13664e-08
1.25226e-08
2.8322e-08
-9.41617e-09
1.50665e-08
2.00855e-08
-7.91608e-09
1.70906e-08
9.79237e-09
-6.86733e-09
1.8528e-08
-1.62479e-09
-6.28944e-09
1.93065e-08
-1.31846e-08
-6.19285e-09
1.93877e-08
-2.39323e-08
-6.55847e-09
1.87873e-08
-3.30228e-08
-7.33121e-09
1.75804e-08
-3.97963e-08
-8.42343e-09
1.58965e-08
-4.38304e-08
-9.72286e-09
1.38984e-08
-4.49594e-08
-1.11051e-08
1.1775e-08
-4.32833e-08
-1.24434e-08
9.70042e-09
-3.91428e-08
-1.36121e-08
7.83243e-09
-3.3083e-08
-1.44865e-08
6.28984e-09
-2.58154e-08
-1.49296e-08
5.14351e-09
-1.8168e-08
-1.47722e-08
4.39486e-09
-1.10224e-08
-1.37916e-08
3.95232e-09
-5.22107e-09
-1.16974e-08
3.59437e-09
-1.42629e-09
-8.13526e-09
2.91841e-09
-3.02844e-09
1.43395e-09
-3.97401e-07
-3.36798e-07
-3.974e-07
-2.67499e-07
-3.16169e-07
-2.26382e-07
-1.81391e-07
-2.22548e-07
-1.41075e-07
-9.69307e-08
-1.33943e-07
-7.11468e-08
-4.11781e-08
-9.38245e-08
-3.46237e-08
-3.46615e-09
-6.88731e-08
-1.25113e-08
2.14309e-08
-5.50778e-08
3.65349e-10
3.71043e-08
-4.63558e-08
8.71641e-09
4.5557e-08
-4.03999e-08
1.47815e-08
4.79436e-08
-3.58899e-08
1.96463e-08
4.5064e-08
-3.22519e-08
2.3765e-08
3.76611e-08
-2.92681e-08
2.72548e-08
2.6599e-08
-2.69101e-08
3.00561e-08
1.29082e-08
-2.5231e-08
3.20545e-08
-2.22251e-09
-2.42948e-08
3.31361e-08
-1.75272e-08
-2.41313e-08
3.32431e-08
-3.17672e-08
-2.47121e-08
3.23936e-08
-4.3842e-08
-2.59435e-08
3.0687e-08
-5.28956e-08
-2.76689e-08
2.82991e-08
-5.83766e-08
-2.96911e-08
2.54493e-08
-6.00817e-08
-3.17861e-08
2.23861e-08
-5.81404e-08
-3.37232e-08
1.93385e-08
-5.29936e-08
-3.52718e-08
1.65129e-08
-4.53346e-08
-3.61962e-08
1.40508e-08
-3.60524e-08
-3.62384e-08
1.20266e-08
-2.61574e-08
-3.50884e-08
1.04213e-08
-1.66897e-08
-3.23542e-08
9.09489e-09
-8.61765e-09
-2.75184e-08
7.7489e-09
-2.75384e-09
-1.98752e-08
5.87609e-09
-8.54383e-09
2.76154e-09
-7.69722e-08
-1.82855e-07
-7.69711e-08
-1.03787e-07
-1.98285e-07
-9.10695e-08
-8.42701e-08
-1.71483e-07
-7.0582e-08
-4.60998e-08
-1.33678e-07
-3.84355e-08
-1.21869e-08
-1.10926e-07
-1.68114e-08
1.52642e-08
-9.4702e-08
-1.62224e-09
3.55566e-08
-8.4142e-08
8.77179e-09
4.91655e-08
-7.64691e-08
1.65043e-08
5.64824e-08
-7.04778e-08
2.27609e-08
5.78536e-08
-6.54298e-08
2.81687e-08
5.36876e-08
-6.10357e-08
3.29498e-08
4.45759e-08
-5.72515e-08
3.70951e-08
3.13743e-08
-5.41712e-08
4.04627e-08
1.52049e-08
-5.19403e-08
4.28786e-08
-2.59264e-09
-5.06833e-08
4.4186e-08
-2.05671e-08
-5.04615e-08
4.43047e-08
-3.72898e-08
-5.12416e-08
4.32522e-08
-5.14916e-08
-5.28905e-08
4.11488e-08
-6.21822e-08
-5.51828e-08
3.82045e-08
-6.87346e-08
-5.78251e-08
3.46863e-08
-7.09178e-08
-6.04876e-08
3.08847e-08
-6.889e-08
-6.28278e-08
2.70768e-08
-6.31521e-08
-6.45035e-08
2.34938e-08
-5.44871e-08
-6.51565e-08
2.02952e-08
-4.38774e-08
-6.44042e-08
1.7556e-08
-3.24196e-08
-6.17879e-08
1.52417e-08
-2.12334e-08
-5.67244e-08
1.3184e-08
-1.13688e-08
-4.84199e-08
1.10369e-08
-3.81719e-09
-3.5647e-08
8.22024e-09
-1.61873e-08
3.82622e-09
-3.95094e-08
-1.03838e-07
-3.95076e-08
-4.89106e-08
-1.4489e-07
-4.39938e-08
-3.68467e-08
-1.50695e-07
-3.28515e-08
-1.36208e-08
-1.40625e-07
-1.62791e-08
1.00866e-08
-1.31664e-07
-2.96914e-09
3.12352e-08
-1.23459e-07
7.60838e-09
4.79803e-08
-1.16835e-07
1.59479e-08
5.95762e-08
-1.1102e-07
2.29547e-08
6.55937e-08
-1.05688e-07
2.91927e-08
6.58689e-08
-1.00642e-07
3.49366e-08
6.05149e-08
-9.58939e-08
4.02122e-08
4.99858e-08
-9.16051e-08
4.48827e-08
3.51014e-08
-8.80135e-08
4.87266e-08
1.703e-08
-8.53669e-08
5.14981e-08
-2.78657e-09
-8.38641e-08
5.29974e-08
-2.27667e-08
-8.36001e-08
5.31188e-08
-4.1343e-08
-8.45415e-08
5.18761e-08
-5.71229e-08
-8.65197e-08
4.94091e-08
-6.9025e-08
-8.92438e-08
4.5963e-08
-7.63711e-08
-9.23291e-08
4.18502e-08
-7.89196e-08
-9.53473e-08
3.74081e-08
-7.68501e-08
-9.78473e-08
3.295e-08
-7.07124e-08
-9.93703e-08
2.8729e-08
-6.13429e-08
-9.94505e-08
2.49246e-08
-4.9779e-08
-9.75792e-08
2.16111e-08
-3.71672e-08
-9.31444e-08
1.87448e-08
-2.46738e-08
-8.53556e-08
1.61378e-08
-1.34277e-08
-7.30738e-08
1.34077e-08
-4.59231e-09
-5.43988e-08
9.91645e-09
-2.5383e-08
4.6034e-09
-1.44886e-08
-7.48633e-08
-1.44862e-08
-1.61449e-08
-1.27114e-07
-1.61193e-08
-7.33384e-09
-1.49152e-07
-1.03548e-08
8.84751e-09
-1.55396e-07
-1.4104e-09
2.68718e-08
-1.56706e-07
7.01751e-09
4.39825e-08
-1.55211e-07
1.46411e-08
5.81337e-08
-1.52505e-07
2.1519e-08
6.8063e-08
-1.48917e-07
2.79677e-08
7.29146e-08
-1.44726e-07
3.41868e-08
7.22096e-08
-1.40152e-07
4.02154e-08
6.58583e-08
-1.35472e-07
4.59291e-08
5.41995e-08
-1.3103e-07
5.10833e-08
3.8012e-08
-1.27198e-07
5.5372e-08
1.84929e-08
-1.24328e-07
5.848e-08
-2.84532e-09
-1.22683e-07
6.01574e-08
-2.43237e-08
-1.22396e-07
6.02741e-08
-4.42723e-08
-1.23434e-07
5.88415e-08
-6.12041e-08
-1.25603e-07
5.60149e-08
-7.39739e-08
-1.28553e-07
5.20791e-08
-8.1873e-08
-1.31826e-07
4.73965e-08
-8.46611e-08
-1.34911e-07
4.23521e-08
-8.25425e-08
-1.37258e-07
3.72922e-08
-7.61048e-08
-1.38319e-07
3.25106e-08
-6.62232e-08
-1.37523e-07
2.81906e-08
-5.39708e-08
-1.34242e-07
2.44104e-08
-4.05225e-08
-1.27712e-07
2.1119e-08
-2.70832e-08
-1.1691e-07
1.81147e-08
-1.48442e-08
-1.003e-07
1.49877e-08
-5.11104e-09
-7.51801e-08
1.1048e-08
-3.56183e-08
5.12428e-09
-3.92953e-09
-6.70072e-08
-3.92659e-09
-7.9623e-10
-1.27716e-07
-2.53171e-09
8.50998e-09
-1.6019e-07
1.73234e-09
2.24626e-08
-1.76862e-07
7.51308e-09
3.79752e-08
-1.85704e-07
1.34857e-08
5.29164e-08
-1.89623e-07
1.94708e-08
6.54493e-08
-1.90516e-07
2.54775e-08
7.42094e-08
-1.89281e-07
3.16042e-08
7.81864e-08
-1.86575e-07
3.7872e-08
7.67388e-08
-1.82888e-07
4.41834e-08
6.96531e-08
-1.78698e-07
5.03116e-08
5.71887e-08
-1.74489e-07
5.59241e-08
4.00946e-08
-1.70737e-07
6.06334e-08
1.95737e-08
-1.67872e-07
6.40646e-08
-2.80763e-09
-1.66216e-07
6.59136e-08
-2.53028e-08
-1.65922e-07
6.60215e-08
-4.61687e-08
-1.66966e-07
6.43976e-08
-6.38517e-08
-1.69137e-07
6.12168e-08
-7.71658e-08
-1.72047e-07
5.68077e-08
-8.53858e-08
-1.75185e-07
5.1578e-08
-8.82852e-08
-1.77975e-07
4.59632e-08
-8.60956e-08
-1.79807e-07
4.0359e-08
-7.94387e-08
-1.80054e-07
3.50785e-08
-6.92165e-08
-1.78065e-07
3.03203e-08
-5.65243e-08
-1.731e-07
2.61661e-08
-4.25522e-08
-1.6424e-07
2.25563e-08
-2.85257e-08
-1.50213e-07
1.92767e-08
-1.56805e-08
-1.29046e-07
1.59001e-08
-5.41047e-09
-9.71498e-08
1.16997e-08
-4.64543e-08
5.4255e-09
8.99512e-10
-6.88094e-08
9.027e-10
6.99902e-09
-1.38099e-07
4.28408e-09
1.71782e-08
-1.78537e-07
8.16719e-09
3.03892e-08
-2.02664e-07
1.25909e-08
4.46781e-08
-2.17325e-07
1.73314e-08
5.83574e-08
-2.25733e-07
2.24311e-08
6.9827e-08
-2.29931e-07
2.7946e-08
7.77691e-08
-2.31132e-07
3.39087e-08
8.11226e-08
-2.30188e-07
4.02592e-08
7.91854e-08
-2.27773e-07
4.68228e-08
7.16655e-08
-2.24486e-07
5.33081e-08
5.87665e-08
-2.20912e-07
5.93217e-08
4.12038e-08
-2.17583e-07
6.44085e-08
2.01839e-08
-2.14978e-07
6.81263e-08
-2.70727e-09
-2.13446e-07
7.01217e-08
-2.56868e-08
-2.13163e-07
7.02198e-08
-4.69727e-08
-2.14105e-07
6.84248e-08
-6.49744e-08
-2.16058e-07
6.49235e-08
-7.84893e-08
-2.18616e-07
6.00842e-08
-8.67932e-08
-2.21253e-07
5.43719e-08
-8.96824e-08
-2.23356e-07
4.82698e-08
-8.74186e-08
-2.24278e-07
4.22079e-08
-8.06439e-08
-2.23347e-07
3.65186e-08
-7.02795e-08
-2.19846e-07
3.14168e-08
-5.74264e-08
-2.12941e-07
2.69871e-08
-4.3272e-08
-2.01559e-07
2.31642e-08
-2.90385e-08
-1.84169e-07
1.97223e-08
-1.59761e-08
-1.58331e-07
1.62226e-08
-5.51468e-09
-1.19533e-07
1.19213e-08
-5.74998e-08
5.53086e-09
3.04381e-09
-7.49002e-08
3.04695e-09
1.06424e-08
-1.53203e-07
7.50513e-09
2.13603e-08
-2.00555e-07
1.13005e-08
3.41947e-08
-2.30605e-07
1.51068e-08
4.77099e-08
-2.50045e-07
1.92046e-08
6.04977e-08
-2.62323e-07
2.38024e-08
7.1165e-08
-2.69607e-07
2.90088e-08
7.84757e-08
-2.73287e-07
3.4844e-08
8.13987e-08
-2.74341e-07
4.12299e-08
7.92033e-08
-2.73532e-07
4.79538e-08
7.1574e-08
-2.71536e-07
5.46795e-08
5.86573e-08
-2.68964e-07
6.09688e-08
4.11382e-08
-2.66375e-07
6.63106e-08
2.02012e-08
-2.64262e-07
7.0221e-08
-2.57329e-09
-2.6299e-07
7.23178e-08
-2.54125e-08
-2.62727e-07
7.24036e-08
-4.65395e-08
-2.63459e-07
7.04805e-08
-6.43699e-08
-2.64976e-07
6.67476e-08
-7.77063e-08
-2.66887e-07
6.16074e-08
-8.58481e-08
-2.68663e-07
5.55526e-08
-8.86166e-08
-2.69688e-07
4.91011e-08
-8.62979e-08
-2.69324e-07
4.27264e-08
-7.95453e-08
-2.66878e-07
3.67779e-08
-6.92865e-08
-2.61582e-07
3.14772e-08
-5.66001e-08
-2.52526e-07
2.68987e-08
-4.26474e-08
-2.38488e-07
2.2976e-08
-2.86202e-08
-2.17687e-07
1.94903e-08
-1.57444e-08
-1.87199e-07
1.59929e-08
-5.43235e-09
-1.41582e-07
1.17379e-08
-6.8381e-08
5.44885e-09
3.87262e-09
-8.26483e-08
3.87543e-09
1.19661e-08
-1.70022e-07
8.72582e-09
2.26642e-08
-2.23651e-07
1.2398e-08
3.49514e-08
-2.58725e-07
1.58331e-08
4.76414e-08
-2.82256e-07
1.95217e-08
5.95326e-08
-2.97968e-07
2.37535e-08
6.94114e-08
-3.08166e-07
2.86794e-08
7.61284e-08
-3.14333e-07
3.43293e-08
7.87225e-08
-3.17544e-07
4.06093e-08
7.64806e-08
-3.18598e-07
4.7308e-08
6.90566e-08
-3.18179e-07
5.40667e-08
5.6576e-08
-3.16901e-07
6.04178e-08
3.96799e-08
-3.15311e-07
6.58328e-08
1.95025e-08
-3.1389e-07
6.98057e-08
-2.42868e-09
-3.12977e-07
7.19188e-08
-2.44043e-08
-3.12743e-07
7.19918e-08
-4.47114e-08
-3.13177e-07
7.00256e-08
-6.18112e-08
-3.1408e-07
6.6204e-08
-7.45509e-08
-3.15088e-07
6.09404e-08
-8.22717e-08
-3.15701e-07
5.47586e-08
-8.48195e-08
-3.15345e-07
4.82043e-08
-8.24974e-08
-3.1339e-07
4.17441e-08
-7.59595e-08
-3.09158e-07
3.5742e-08
-6.60981e-08
-3.01864e-07
3.04203e-08
-5.39528e-08
-2.90527e-07
2.5856e-08
-4.06251e-08
-2.738e-07
2.19852e-08
-2.72517e-08
-2.49636e-07
1.85763e-08
-1.49848e-08
-2.14669e-07
1.52022e-08
-5.16694e-09
-1.62553e-07
1.11529e-08
-7.87309e-08
5.18292e-09
3.98483e-09
-9.06198e-08
3.98671e-09
1.18344e-08
-1.86604e-07
8.73255e-09
2.19196e-08
-2.45893e-07
1.21564e-08
3.32576e-08
-2.85309e-07
1.52455e-08
4.48386e-08
-3.12389e-07
1.85514e-08
5.56267e-08
-3.31161e-07
2.24044e-08
6.45547e-08
-3.44062e-07
2.69689e-08
7.06112e-08
-3.52665e-07
3.22758e-08
7.29081e-08
-3.58081e-07
3.82397e-08
7.07765e-08
-3.61115e-07
4.46483e-08
6.38811e-08
-3.62428e-07
5.11441e-08
5.232e-08
-3.62612e-07
5.72715e-08
3.66733e-08
-3.62165e-07
6.25003e-08
1.79961e-08
-3.61543e-07
6.63303e-08
-2.29107e-09
-3.61044e-07
6.83542e-08
-2.26049e-08
-3.60842e-07
6.84131e-08
-4.13604e-08
-3.60923e-07
6.65015e-08
-5.71161e-08
-3.61113e-07
6.27887e-08
-6.88126e-08
-3.61074e-07
5.76831e-08
-7.58458e-08
-3.60349e-07
5.16809e-08
-7.80803e-08
-3.58427e-07
4.53167e-08
-7.58336e-08
-3.54702e-07
3.90656e-08
-6.97302e-08
-3.48545e-07
3.32836e-08
-6.06036e-08
-3.39168e-07
2.81772e-08
-4.94139e-08
-3.25539e-07
2.38221e-08
-3.71774e-08
-3.06196e-07
2.01587e-08
-2.49173e-08
-2.78873e-07
1.69764e-08
-1.36904e-08
-2.39764e-07
1.38688e-08
-4.71886e-09
-1.81694e-07
1.01694e-08
-8.81834e-08
4.7336e-09
3.65423e-09
-9.79293e-08
3.65523e-09
1.0687e-08
-2.01553e-07
7.91551e-09
1.96086e-08
-2.65739e-07
1.09242e-08
2.9529e-08
-3.08833e-07
1.36037e-08
3.96061e-08
-3.38947e-07
1.64816e-08
4.89585e-08
-3.60381e-07
1.98674e-08
5.66905e-08
-3.7571e-07
2.39155e-08
6.1941e-08
-3.86587e-07
2.8671e-08
6.39166e-08
-3.94109e-07
3.40526e-08
6.20352e-08
-3.99095e-07
3.98616e-08
5.59873e-08
-4.02152e-07
4.57725e-08
4.5825e-08
-4.03809e-07
5.13596e-08
3.20762e-08
-4.04538e-07
5.61221e-08
1.56537e-08
-4.04722e-07
5.96016e-08
-2.17119e-09
-4.04649e-07
6.14296e-08
-2.00076e-08
-4.0448e-07
6.14742e-08
-3.64583e-08
-4.04209e-07
5.97367e-08
-5.02546e-08
-4.03658e-07
5.63412e-08
-6.04477e-08
-4.02535e-07
5.16539e-08
-6.6507e-08
-4.00439e-07
4.61491e-08
-6.83588e-08
-3.96899e-07
4.0324e-08
-6.62806e-08
-3.91401e-07
3.46203e-08
-6.08449e-08
-3.83339e-07
2.93587e-08
-5.28029e-08
-3.71938e-07
2.47276e-08
-4.29977e-08
-3.56146e-07
2.08026e-08
-3.23075e-08
-3.34406e-07
1.75205e-08
-2.16319e-08
-3.04246e-07
1.46976e-08
-1.18776e-08
-2.61501e-07
1.19824e-08
-4.08846e-09
-1.98271e-07
8.78749e-09
-9.63732e-08
4.1013e-09
3.02502e-09
-1.0398e-07
3.0255e-09
8.78765e-09
-2.13829e-07
6.51344e-09
1.60461e-08
-2.81949e-07
8.95169e-09
2.40866e-08
-3.27988e-07
1.11151e-08
3.22257e-08
-3.60544e-07
1.34578e-08
3.97826e-08
-3.84182e-07
1.62441e-08
4.60449e-08
-4.01572e-07
1.95999e-08
5.03078e-08
-4.14425e-07
2.35755e-08
5.19321e-08
-4.23834e-07
2.81008e-08
5.04181e-08
-4.30587e-07
3.30063e-08
4.54944e-08
-4.35244e-07
3.80156e-08
3.72017e-08
-4.38261e-07
4.27445e-08
2.59579e-08
-4.40059e-07
4.67642e-08
1.25123e-08
-4.4097e-07
4.96929e-08
-2.07583e-09
-4.4128e-07
5.12193e-08
-1.66625e-08
-4.4114e-07
5.12464e-08
-3.01028e-08
-4.40542e-07
4.97731e-08
-4.13246e-08
-4.3933e-07
4.68942e-08
-4.95629e-08
-4.37214e-07
4.29173e-08
-5.44024e-08
-4.33839e-07
3.82403e-08
-5.57867e-08
-4.28813e-07
3.32984e-08
-5.39695e-08
-4.21679e-07
2.84614e-08
-4.94369e-08
-4.11878e-07
2.40059e-08
-4.28185e-08
-3.98667e-07
2.01107e-08
-3.47993e-08
-3.80992e-07
1.68266e-08
-2.61081e-08
-3.57201e-07
1.41031e-08
-1.74563e-08
-3.24691e-07
1.17933e-08
-9.56781e-09
-2.78993e-07
9.60305e-09
-3.29132e-09
-2.11596e-07
7.04888e-09
-1.02967e-07
3.30203e-09
2.17998e-09
-1.08337e-07
2.17681e-09
6.30595e-09
-2.22617e-07
4.66228e-09
1.14932e-08
-2.93524e-07
6.38788e-09
1.72308e-08
-3.41664e-07
7.938e-09
2.30557e-08
-3.76011e-07
9.6418e-09
2.84828e-08
-4.01304e-07
1.16949e-08
3.30053e-08
-4.20304e-07
1.42094e-08
3.61122e-08
-4.34742e-07
1.72099e-08
3.73363e-08
-4.4571e-07
2.06515e-08
3.62931e-08
-4.53943e-07
2.43988e-08
3.27624e-08
-4.59949e-07
2.82354e-08
2.67526e-08
-4.64135e-07
3.18842e-08
1.85429e-08
-4.66855e-07
3.5006e-08
8.69554e-09
-4.68407e-07
3.72847e-08
-2.00509e-09
-4.69047e-07
3.84673e-08
-1.26918e-08
-4.68929e-07
3.84761e-08
-2.24931e-08
-4.68052e-07
3.73113e-08
-3.06262e-08
-4.66247e-07
3.505e-08
-3.6525e-08
-4.6327e-07
3.19539e-08
-3.9899e-08
-4.58797e-07
2.83316e-08
-4.07339e-08
-4.52496e-07
2.45178e-08
-3.925e-08
-4.4398e-07
2.08162e-08
-3.58227e-08
-4.32737e-07
1.74319e-08
-3.09213e-08
-4.18055e-07
1.44871e-08
-2.50587e-08
-3.98886e-07
1.20311e-08
-1.875e-08
-3.73531e-07
1.00218e-08
-1.25015e-08
-3.39276e-07
8.33654e-09
-6.8381e-09
-2.91433e-07
6.77677e-09
-2.34427e-09
-2.21079e-07
4.9885e-09
-1.07663e-07
2.35262e-09
1.17876e-09
-1.10691e-07
1.17514e-09
3.39418e-09
-2.27319e-07
2.48655e-09
6.19372e-09
-2.99723e-07
3.39922e-09
9.30532e-09
-3.49022e-07
4.24657e-09
1.24948e-08
-3.84421e-07
5.22108e-09
1.55075e-08
-4.10756e-07
6.43959e-09
1.80658e-08
-4.30828e-07
7.96595e-09
1.98759e-08
-4.46368e-07
9.81513e-09
2.06627e-08
-4.58465e-07
1.19685e-08
2.01698e-08
-4.67808e-07
1.43587e-08
1.82305e-08
-4.74862e-07
1.68519e-08
1.48279e-08
-4.79987e-07
1.92543e-08
1.00896e-08
-4.83451e-07
2.13341e-08
4.33394e-09
-4.85537e-07
2.28852e-08
-1.9561e-09
-4.86455e-07
2.36983e-08
-8.22102e-09
-4.86353e-07
2.3688e-08
-1.39047e-08
-4.85226e-07
2.28577e-08
-1.85202e-08
-4.82925e-07
2.12932e-08
-2.17549e-08
-4.79238e-07
1.9203e-08
-2.34696e-08
-4.7389e-07
1.68077e-08
-2.36951e-08
-4.66616e-07
1.43451e-08
-2.26085e-08
-4.57053e-07
1.19865e-08
-2.04569e-08
-4.44755e-07
9.86697e-09
-1.75094e-08
-4.29065e-07
8.06251e-09
-1.40855e-08
-4.0889e-07
6.58026e-09
-1.0462e-08
-3.82554e-07
5.39978e-09
-6.93446e-09
-3.47255e-07
4.45131e-09
-3.76734e-09
-2.98212e-07
3.61209e-09
-1.28234e-09
-2.26241e-07
2.67771e-09
-1.10234e-07
1.28864e-09
7.82942e-11
-1.10842e-07
7.32086e-11
2.16528e-10
-2.2756e-07
1.02478e-10
4.01621e-10
-3.00036e-07
1.27672e-10
6.62123e-10
-3.49495e-07
2.12711e-10
1.00024e-09
-3.85154e-07
3.94522e-10
1.40474e-09
-4.11858e-07
6.97757e-10
1.84171e-09
-4.32405e-07
1.13999e-09
2.25232e-09
-4.48518e-07
1.7396e-09
2.55535e-09
-4.61263e-07
2.49475e-09
2.65513e-09
-4.71297e-07
3.38909e-09
2.46026e-09
-4.79053e-07
4.38574e-09
1.88539e-09
-4.84844e-07
5.43191e-09
9.09322e-10
-4.88892e-07
6.41726e-09
-4.08636e-10
-4.9142e-07
7.20123e-09
-1.92102e-09
-4.92576e-07
7.6331e-09
-3.3986e-09
-4.92482e-07
7.60674e-09
-4.61688e-09
-4.91137e-07
7.12865e-09
-5.42845e-09
-4.88418e-07
6.30454e-09
-5.79243e-09
-4.84175e-07
5.30078e-09
-5.72539e-09
-4.78204e-07
4.24642e-09
-5.33053e-09
-4.70263e-07
3.25239e-09
-4.69317e-09
-4.60071e-07
2.381e-09
-3.91574e-09
-4.47192e-07
1.659e-09
-3.10521e-09
-4.30974e-07
1.09863e-09
-2.30712e-09
-4.10385e-07
6.97167e-10
-1.58571e-09
-3.83708e-07
4.32253e-10
-9.61447e-10
-3.48163e-07
2.83157e-10
-4.74374e-10
-2.98921e-07
2.21741e-10
-1.42273e-10
-2.26778e-07
2.04789e-10
-1.10524e-07
1.46908e-10
-1.06802e-09
-1.08701e-07
-1.07313e-09
-3.09842e-09
-2.23154e-07
-2.37559e-09
-5.60912e-09
-2.94259e-07
-3.26586e-09
-8.30315e-09
-3.42831e-07
-3.97003e-09
-1.09114e-08
-3.77933e-07
-4.61286e-09
-1.32118e-08
-4.04294e-07
-5.26352e-09
-1.49845e-08
-4.24668e-07
-5.96444e-09
-1.6049e-08
-4.40742e-07
-6.71143e-09
-1.62726e-08
-4.53561e-07
-7.47833e-09
-1.55917e-08
-4.6377e-07
-8.20776e-09
-1.40248e-08
-4.71784e-07
-8.83581e-09
-1.16791e-08
-4.77877e-07
-9.31243e-09
-8.73569e-09
-4.82233e-07
-9.60243e-09
-5.4058e-09
-4.85022e-07
-9.72788e-09
-1.89298e-09
-4.86325e-07
-9.76396e-09
1.66058e-09
-4.86238e-07
-9.79699e-09
5.10459e-09
-4.8475e-07
-9.83016e-09
8.24141e-09
-4.81783e-07
-9.77128e-09
1.0836e-08
-4.77249e-07
-9.52036e-09
1.26989e-08
-4.71003e-07
-9.06351e-09
1.37095e-08
-4.6284e-07
-8.4341e-09
1.38393e-08
-4.52514e-07
-7.68732e-09
1.31429e-08
-4.39605e-07
-6.8905e-09
1.1744e-08
-4.23469e-07
-6.10616e-09
9.81564e-09
-4.03092e-07
-5.36526e-09
7.55508e-09
-3.76773e-07
-4.67435e-09
5.17306e-09
-3.41788e-07
-3.99266e-09
2.90884e-09
-2.93404e-07
-3.25246e-09
1.02863e-09
-2.22566e-07
-2.33238e-09
-1.0847e-07
-1.02503e-09
-2.20374e-09
-1.04285e-07
-2.21191e-09
-6.37859e-09
-2.1415e-07
-4.82898e-09
-1.15611e-08
-2.82446e-07
-6.63013e-09
-1.71675e-08
-3.29115e-07
-8.10983e-09
-2.27015e-08
-3.6283e-07
-9.56851e-09
-2.76802e-08
-3.88138e-07
-1.11774e-08
-3.16552e-08
-4.0768e-07
-1.3013e-08
-3.42053e-08
-4.23082e-07
-1.51102e-08
-3.49895e-08
-4.35356e-07
-1.74214e-08
-3.37863e-08
-4.45131e-07
-1.98426e-08
-3.0513e-08
-4.52833e-07
-2.22246e-08
-2.53015e-08
-4.58722e-07
-2.43668e-08
-1.84537e-08
-4.62987e-07
-2.60939e-08
-1.04531e-08
-4.65746e-07
-2.72768e-08
-1.86489e-09
-4.6706e-07
-2.78534e-08
6.76905e-09
-4.66973e-07
-2.78996e-08
1.48986e-08
-4.65474e-07
-2.74055e-08
2.19552e-08
-4.62545e-07
-2.6295e-08
2.7441e-08
-4.58123e-07
-2.46119e-08
3.1027e-08
-4.52092e-07
-2.24968e-08
3.25818e-08
-4.44269e-07
-2.01254e-08
3.21626e-08
-4.34403e-07
-1.76912e-08
2.99808e-08
-4.2207e-07
-1.53534e-08
2.63757e-08
-4.06643e-07
-1.32212e-08
2.17431e-08
-3.87113e-07
-1.13463e-08
1.65358e-08
-3.6187e-07
-9.69557e-09
1.12079e-08
-3.28267e-07
-8.19341e-09
6.2325e-09
-2.81761e-07
-6.66827e-09
2.18318e-09
-2.13693e-07
-4.82331e-09
-1.04107e-07
-2.17998e-09
-3.27655e-09
-9.77245e-08
-3.28434e-09
-9.46699e-09
-2.00823e-07
-7.13624e-09
-1.71662e-08
-2.64961e-07
-9.78641e-09
-2.55177e-08
-3.08767e-07
-1.19971e-08
-3.38001e-08
-3.40332e-07
-1.42166e-08
-4.13084e-08
-3.63915e-07
-1.67149e-08
-4.73685e-08
-3.81991e-07
-1.96285e-08
-5.13413e-08
-3.96108e-07
-2.30009e-08
-5.26931e-08
-4.07214e-07
-2.67901e-08
-5.10241e-08
-4.15954e-07
-3.0846e-08
-4.61786e-08
-4.22748e-07
-3.49296e-08
-3.82738e-08
-4.27888e-07
-3.87392e-08
-2.77418e-08
-4.3157e-07
-4.19493e-08
-1.52923e-08
-4.33936e-07
-4.42594e-08
-1.83222e-09
-4.35059e-07
-4.54604e-08
1.16764e-08
-4.34967e-07
-4.55144e-08
2.4267e-08
-4.33664e-07
-4.44016e-08
3.50132e-08
-4.31128e-07
-4.21627e-08
4.31973e-08
-4.27293e-07
-3.90137e-08
4.83706e-08
-4.22031e-07
-3.5235e-08
5.03965e-08
-4.15139e-07
-3.11565e-08
4.94172e-08
-4.06332e-07
-2.70914e-08
4.58115e-08
-3.95185e-07
-2.32796e-08
4.01144e-08
-3.81071e-07
-1.98751e-08
3.29444e-08
-3.6302e-07
-1.69233e-08
2.49639e-08
-3.39506e-07
-1.43836e-08
1.68669e-08
-3.08052e-07
-1.21179e-08
9.35869e-09
-2.64396e-07
-9.8564e-09
3.26518e-09
-2.00446e-07
-7.15324e-09
-9.75799e-08
-3.26183e-09
-4.23644e-09
-8.9244e-08
-4.24404e-09
-1.22261e-08
-1.83631e-07
-9.20244e-09
-2.21581e-08
-2.42423e-07
-1.26061e-08
-3.29522e-08
-2.82522e-07
-1.54504e-08
-4.36735e-08
-3.11291e-07
-1.83195e-08
-5.34294e-08
-3.32583e-07
-2.15761e-08
-6.1334e-08
-3.48676e-07
-2.54104e-08
-6.65706e-08
-3.60987e-07
-2.98848e-08
-6.84176e-08
-3.70432e-07
-3.49344e-08
-6.63471e-08
-3.77643e-07
-4.03816e-08
-6.01143e-08
-3.83049e-07
-4.59323e-08
-4.9829e-08
-3.86985e-07
-5.11879e-08
-3.602e-08
-3.89698e-07
-5.56806e-08
-1.95983e-08
-3.91385e-07
-5.89725e-08
-1.7913e-09
-3.92159e-07
-6.0707e-08
1.60629e-08
-3.92068e-07
-6.07532e-08
3.26201e-08
-3.91115e-07
-5.91054e-08
4.66532e-08
-3.89272e-07
-5.58895e-08
5.72211e-08
-3.86409e-07
-5.14521e-08
6.37831e-08
-3.82362e-07
-4.62303e-08
6.62108e-08
-3.76873e-07
-4.06934e-08
6.47303e-08
-3.6961e-07
-3.52417e-08
5.98627e-08
-3.60143e-07
-3.0174e-08
5.23074e-08
-3.47844e-07
-2.56718e-08
4.28792e-08
-3.31789e-07
-2.18022e-08
3.24498e-08
-3.10572e-07
-1.85051e-08
2.18949e-08
-2.81908e-07
-1.55896e-08
1.21305e-08
-2.41939e-07
-1.26925e-08
4.23054e-09
-1.83315e-07
-9.23129e-09
-8.91226e-08
-4.22671e-09
-5.03476e-09
-7.91668e-08
-5.04244e-09
-1.45197e-08
-1.63231e-07
-1.09157e-08
-2.63127e-08
-2.15697e-07
-1.49324e-08
-3.91289e-08
-2.51417e-07
-1.82893e-08
-5.18732e-08
-2.76864e-07
-2.16826e-08
-6.34831e-08
-2.95445e-07
-2.55286e-08
-7.29101e-08
-3.09191e-07
-3.00585e-08
-7.9173e-08
-3.19374e-07
-3.535e-08
-8.14081e-08
-3.26862e-07
-4.13355e-08
-7.89809e-08
-3.32247e-07
-4.78233e-08
-7.15787e-08
-3.35994e-07
-5.44573e-08
-5.93192e-08
-3.3848e-07
-6.07643e-08
-4.28049e-08
-3.4002e-07
-6.61929e-08
-2.31219e-08
-3.4087e-07
-7.01983e-08
-1.74142e-09
-3.41209e-07
-7.23305e-08
1.96862e-08
-3.41123e-07
-7.23726e-08
3.95068e-08
-3.40619e-07
-7.03166e-08
5.62316e-08
-3.39616e-07
-6.63808e-08
6.8771e-08
-3.37939e-07
-6.10095e-08
7.64973e-08
-3.35351e-07
-5.47379e-08
7.92758e-08
-3.31531e-07
-4.812e-08
7.74002e-08
-3.26103e-07
-4.16317e-08
7.14991e-08
-3.1861e-07
-3.56324e-08
6.24132e-08
-3.0844e-07
-3.03176e-08
5.11223e-08
-2.94742e-07
-2.57563e-08
3.86556e-08
-2.76233e-07
-2.18723e-08
2.60673e-08
-2.50885e-07
-1.84343e-08
1.44369e-08
-2.15284e-07
-1.50243e-08
5.03149e-09
-1.62961e-07
-1.09487e-08
-7.90641e-08
-5.02703e-09
-5.63991e-09
-6.788e-08
-5.64701e-09
-1.62534e-08
-1.40409e-07
-1.22084e-08
-2.94427e-08
-1.85824e-07
-1.66839e-08
-4.37857e-08
-2.16671e-07
-2.04028e-08
-5.80569e-08
-2.3845e-07
-2.41427e-08
-7.10579e-08
-2.54068e-07
-2.83753e-08
-8.16202e-08
-2.65278e-07
-3.33503e-08
-8.8631e-08
-2.73215e-07
-3.9148e-08
-9.11292e-08
-2.78654e-07
-4.57095e-08
-8.8397e-08
-2.82172e-07
-5.28067e-08
-8.00896e-08
-2.84246e-07
-6.00552e-08
-6.63338e-08
-2.85279e-07
-6.69567e-08
-4.78002e-08
-2.85654e-07
-7.2899e-08
-2.56983e-08
-2.85681e-07
-7.72907e-08
-1.68181e-09
-2.85596e-07
-7.96303e-08
2.23785e-08
-2.85516e-07
-7.96672e-08
4.46107e-08
-2.85448e-07
-7.74037e-08
6.33482e-08
-2.8528e-07
-7.30735e-08
7.73764e-08
-2.84791e-07
-6.71767e-08
8.59945e-08
-2.8366e-07
-6.03085e-08
8.90651e-08
-2.81525e-07
-5.3077e-08
8.69201e-08
-2.77975e-07
-4.59831e-08
8.02542e-08
-2.72531e-07
-3.94127e-08
7.00274e-08
-2.64618e-07
-3.35959e-08
5.73318e-08
-2.53453e-07
-2.8594e-08
4.33306e-08
-2.37904e-07
-2.43273e-08
2.92086e-08
-2.16221e-07
-2.05425e-08
1.61717e-08
-1.85476e-07
-1.67719e-08
5.63689e-09
-1.40185e-07
-1.22416e-08
-6.77951e-08
-5.63223e-09
-6.02226e-09
-5.58288e-08
-6.02888e-09
-1.73427e-08
-1.16071e-07
-1.30173e-08
-3.14196e-08
-1.5399e-07
-1.77571e-08
-4.67405e-08
-1.79678e-07
-2.16723e-08
-6.20031e-08
-1.97599e-07
-2.5588e-08
-7.59173e-08
-2.10156e-07
-2.9998e-08
-8.72119e-08
-2.18819e-07
-3.51646e-08
-9.46934e-08
-2.24559e-07
-4.11746e-08
-9.73332e-08
-2.28068e-07
-4.79467e-08
-9.43715e-08
-2.29889e-07
-5.52446e-08
-8.54541e-08
-2.30479e-07
-6.26844e-08
-7.07143e-08
-2.30274e-07
-6.97455e-08
-5.08926e-08
-2.29666e-07
-7.58102e-08
-2.72731e-08
-2.29012e-07
-8.02889e-08
-1.61113e-09
-2.28577e-07
-8.26806e-08
2.40924e-08
-2.28507e-07
-8.27124e-08
4.78337e-08
-2.28807e-07
-8.03825e-08
6.78525e-08
-2.2934e-07
-7.59586e-08
8.284e-08
-2.2984e-07
-6.99376e-08
9.20591e-08
-2.29971e-07
-6.29082e-08
9.53454e-08
-2.29326e-07
-5.54854e-08
9.30446e-08
-2.2748e-07
-4.81936e-08
8.58977e-08
-2.23968e-07
-4.1416e-08
7.49227e-08
-2.18252e-07
-3.5391e-08
6.13066e-08
-2.09635e-07
-3.02018e-08
4.6305e-08
-1.97141e-07
-2.57615e-08
3.11924e-08
-1.79299e-07
-2.18095e-08
1.72643e-08
-1.53703e-07
-1.78448e-08
6.01855e-09
-1.15891e-07
-1.30482e-08
-5.57624e-08
-6.0141e-09
-6.15474e-09
-4.3514e-08
-6.16014e-09
-1.77265e-08
-9.12112e-08
-1.32884e-08
-3.21477e-08
-1.21474e-07
-1.80945e-08
-4.78864e-08
-1.41909e-07
-2.20301e-08
-6.3599e-08
-1.55946e-07
-2.59411e-08
-7.79426e-08
-1.65483e-07
-3.03296e-08
-8.95885e-08
-1.71718e-07
-3.54548e-08
-9.72934e-08
-1.75457e-07
-4.13975e-08
-9.99883e-08
-1.77302e-07
-4.80702e-08
-9.69022e-08
-1.77737e-07
-5.5239e-08
-8.76844e-08
-1.77185e-07
-6.25119e-08
-7.25053e-08
-1.76065e-07
-6.93875e-08
-5.21238e-08
-1.7477e-07
-7.5277e-08
-2.78665e-08
-1.73656e-07
-7.96134e-08
-1.52835e-09
-1.72996e-07
-8.19191e-08
2.48484e-08
-1.72938e-07
-8.19461e-08
4.92193e-08
-1.73485e-07
-7.9693e-08
6.97811e-08
-1.74498e-07
-7.54044e-08
8.51992e-08
-1.75706e-07
-6.95526e-08
9.46967e-08
-1.76762e-07
-6.27066e-08
9.80899e-08
-1.77269e-07
-5.54503e-08
9.57126e-08
-1.76814e-07
-4.82888e-08
8.83306e-08
-1.74973e-07
-4.16136e-08
7.69886e-08
-1.7125e-07
-3.56596e-08
6.29281e-08
-1.65059e-07
-3.05159e-08
4.74625e-08
-1.55575e-07
-2.6101e-08
3.19259e-08
-1.41608e-07
-2.21545e-08
1.76496e-08
-1.21252e-07
-1.81741e-08
6.14917e-09
-9.10738e-08
-1.33166e-08
-4.34674e-08
-6.14589e-09
-6.00752e-09
-3.14932e-08
-6.01326e-09
-1.73413e-08
-6.69232e-08
-1.29542e-08
-3.15372e-08
-8.96779e-08
-1.76007e-08
-4.71264e-08
-1.04952e-07
-2.13677e-08
-6.27653e-08
-1.15218e-07
-2.50893e-08
-7.70891e-08
-1.21897e-07
-2.92622e-08
-8.87442e-08
-1.25924e-07
-3.41387e-08
-9.64548e-08
-1.27959e-07
-3.9787e-08
-9.91582e-08
-1.28483e-07
-4.6116e-08
-9.60879e-08
-1.27912e-07
-5.28948e-08
-8.69111e-08
-1.26614e-07
-5.97475e-08
-7.18202e-08
-1.2496e-07
-6.61965e-08
-5.15874e-08
-1.23308e-07
-7.16952e-08
-2.75333e-08
-1.21978e-07
-7.57317e-08
-1.43025e-09
-1.21222e-07
-7.78774e-08
2.47084e-08
-1.21176e-07
-7.79004e-08
4.88671e-08
-1.21844e-07
-7.57994e-08
6.92686e-08
-1.23096e-07
-7.18027e-08
8.45787e-08
-1.24681e-07
-6.63347e-08
9.40125e-08
-1.26284e-07
-5.99127e-08
9.7369e-08
-1.27546e-07
-5.30793e-08
9.4967e-08
-1.28104e-07
-4.63089e-08
8.75528e-08
-1.27579e-07
-3.99795e-08
7.61895e-08
-1.25564e-07
-3.43227e-08
6.21311e-08
-1.21569e-07
-2.9431e-08
4.67251e-08
-1.14934e-07
-2.52346e-08
3.13272e-08
-1.04728e-07
-2.1482e-08
1.72648e-08
-8.95158e-08
-1.76742e-08
6.0018e-09
-6.68301e-08
-1.29807e-08
-3.14652e-08
-6.00042e-09
-5.54352e-09
-2.04016e-08
-5.54819e-09
-1.61037e-08
-4.44328e-08
-1.19303e-08
-2.94957e-08
-6.01364e-08
-1.61494e-08
-4.43706e-08
-7.05498e-08
-1.95278e-08
-5.94255e-08
-7.73034e-08
-2.28592e-08
-7.33002e-08
-8.14037e-08
-2.66188e-08
-8.46355e-08
-8.35434e-08
-3.10459e-08
-9.21761e-08
-8.42195e-08
-3.61991e-08
-9.48669e-08
-8.38091e-08
-4.1983e-08
-9.19759e-08
-8.26309e-08
-4.81722e-08
-8.31962e-08
-8.09805e-08
-5.44137e-08
-6.87346e-08
-7.91549e-08
-6.02666e-08
-4.93458e-08
-7.74486e-08
-6.52483e-08
-2.6306e-08
-7.61227e-08
-6.88952e-08
-1.31213e-09
-7.53872e-08
-7.08286e-08
2.37139e-08
-7.53542e-08
-7.08482e-08
4.68485e-08
-7.60258e-08
-6.89529e-08
6.63892e-08
-7.72935e-08
-6.53436e-08
8.10515e-08
-7.89516e-08
-6.03922e-08
9.00665e-08
-8.07392e-08
-5.45594e-08
9.32199e-08
-8.23665e-08
-4.8333e-08
9.08016e-08
-8.35331e-08
-4.21523e-08
8.35383e-08
-8.39466e-08
-3.63692e-08
7.24681e-08
-8.32842e-08
-3.121e-08
5.88391e-08
-8.117e-08
-2.67703e-08
4.40006e-08
-7.71049e-08
-2.29907e-08
2.93005e-08
-7.03955e-08
-1.96322e-08
1.60331e-08
-6.00309e-08
-1.62175e-08
5.53689e-09
-4.43777e-08
-1.19563e-08
-2.03903e-08
-5.53807e-09
-4.71059e-09
-1.09762e-08