/*--------------------------------*- C++ -*----------------------------------*\
| =========                 |                                                 |
| \\      /  F ield         | OpenFOAM: The Open Source CFD Toolbox           |
|  \\    /   O peration     | Version:  v1906                                 |
|   \\  /    A nd           | Web:      www.OpenFOAM.com                      |
|    \\/     M anipulation  |                                                 |
\*---------------------------------------------------------------------------*/
FoamFile
{
    version     2.0;
    format      ascii;
    class       volVectorField;
    location    "16/oil";
    object      U;
}
// * * * * * * * * * * * * * * * * * * * * * * * * * * * * * * * * * * * * * //

dimensions      [0 1 -1 0 0 0 0];


internalField   nonuniform List<vector> 
27760
(
(-3.11234e-05 -3.17578e-05 -3.11234e-05)
(-6.148e-05 -2.38381e-05 -2.24094e-05)
(-4.57682e-06 -6.1982e-06 -6.09392e-06)
(-7.55936e-06 -1.03262e-06 -1.06068e-06)
(-1.93094e-06 -3.53949e-07 -3.8083e-07)
(-1.17716e-06 -1.74059e-07 -1.94797e-07)
(-5.00802e-07 -6.85361e-08 -8.6845e-08)
(-2.08936e-07 -2.80866e-08 -4.60396e-08)
(-5.09724e-08 -8.43764e-09 -2.6733e-08)
(2.77627e-08 1.22314e-09 -1.75313e-08)
(6.25702e-08 6.53165e-09 -1.26121e-08)
(6.92652e-08 9.73047e-09 -9.65023e-09)
(5.70958e-08 1.1773e-08 -7.75918e-09)
(3.20647e-08 1.30391e-08 -6.56475e-09)
(-1.00392e-09 1.37053e-08 -5.91812e-09)
(-3.77805e-08 1.38804e-08 -5.7382e-09)
(-7.42894e-08 1.36258e-08 -5.96581e-09)
(-1.07009e-07 1.29984e-08 -6.52705e-09)
(-1.33089e-07 1.20441e-08 -7.33135e-09)
(-1.50529e-07 1.08372e-08 -8.25743e-09)
(-1.58238e-07 9.47435e-09 -9.16201e-09)
(-1.56052e-07 8.02986e-09 -9.91083e-09)
(-1.44694e-07 6.55607e-09 -1.03742e-08)
(-1.25624e-07 5.10613e-09 -1.03993e-08)
(-1.00939e-07 3.69953e-09 -9.90662e-09)
(-7.33067e-08 2.38132e-09 -8.82171e-09)
(-4.5844e-08 1.26528e-09 -7.12615e-09)
(-2.20435e-08 5.83574e-10 -4.94462e-09)
(-5.32148e-09 7.40129e-10 -2.7176e-09)
(8.71814e-10 1.57934e-09 -7.38826e-10)
(-2.26015e-05 -6.31455e-05 -2.26015e-05)
(-7.49925e-06 -8.0702e-06 -1.01246e-05)
(-1.02863e-05 -9.72747e-06 -3.53586e-06)
(-5.09976e-06 -2.63591e-06 -1.00338e-06)
(-2.49909e-06 -1.49452e-06 -4.8891e-07)
(-1.40053e-06 -7.0281e-07 -2.31171e-07)
(-6.67904e-07 -3.74101e-07 -1.07469e-07)
(-2.77077e-07 -2.09424e-07 -5.14129e-08)
(-4.91911e-08 -1.25778e-07 -2.28142e-08)
(7.34287e-08 -7.96407e-08 -7.6012e-09)
(1.28692e-07 -5.22243e-08 1.43504e-09)
(1.36533e-07 -3.46839e-08 7.29803e-09)
(1.10109e-07 -2.30463e-08 1.1277e-08)
(5.93508e-08 -1.54987e-08 1.39003e-08)
(-6.93912e-09 -1.12067e-08 1.535e-08)
(-8.04897e-08 -9.70443e-09 1.56987e-08)
(-1.53552e-07 -1.06416e-08 1.50377e-08)
(-2.19201e-07 -1.36383e-08 1.3516e-08)
(-2.71775e-07 -1.82471e-08 1.13614e-08)
(-3.07232e-07 -2.39501e-08 8.83164e-09)
(-3.23398e-07 -3.01915e-08 6.19347e-09)
(-3.19989e-07 -3.6447e-08 3.71082e-09)
(-2.9845e-07 -4.22281e-08 1.62911e-09)
(-2.61723e-07 -4.70522e-08 1.54148e-10)
(-2.1397e-07 -5.04238e-08 -5.77225e-10)
(-1.60318e-07 -5.16817e-08 -5.03378e-10)
(-1.06541e-07 -4.98337e-08 3.09171e-10)
(-5.86208e-08 -4.34337e-08 1.55879e-09)
(-2.21911e-08 -3.04858e-08 2.50399e-09)
(-1.77048e-09 -1.07424e-08 1.96901e-09)
(-6.27002e-06 -5.74401e-06 -6.27004e-06)
(-1.00193e-05 -1.06607e-05 -3.64585e-06)
(-5.55281e-06 -5.61707e-06 -1.62349e-06)
(-3.73074e-06 -2.83816e-06 -7.78145e-07)
(-2.10038e-06 -1.67591e-06 -3.76323e-07)
(-1.20382e-06 -9.68019e-07 -1.81351e-07)
(-5.9395e-07 -6.13191e-07 -8.34278e-08)
(-2.28415e-07 -4.15598e-07 -3.49616e-08)
(-2.85449e-09 -3.03324e-07 -8.60709e-09)
(1.23321e-07 -2.3521e-07 6.62779e-09)
(1.79025e-07 -1.91364e-07 1.64443e-08)
(1.81381e-07 -1.6165e-07 2.32693e-08)
(1.43184e-07 -1.41127e-07 2.81411e-08)
(7.52946e-08 -1.27394e-07 3.14347e-08)
(-1.18882e-08 -1.19293e-07 3.32538e-08)
(-1.08114e-07 -1.16137e-07 3.36487e-08)
(-2.03554e-07 -1.17315e-07 3.27136e-08)
(-2.89328e-07 -1.22113e-07 3.06262e-08)
(-3.58156e-07 -1.29626e-07 2.76602e-08)
(-4.04874e-07 -1.38841e-07 2.41416e-08)
(-4.26717e-07 -1.48684e-07 2.04185e-08)
(-4.23352e-07 -1.58093e-07 1.68242e-08)
(-3.9667e-07 -1.66028e-07 1.36479e-08)
(-3.50466e-07 -1.71436e-07 1.11145e-08)
(-2.90007e-07 -1.73121e-07 9.35938e-09)
(-2.21628e-07 -1.69545e-07 8.40985e-09)
(-1.52262e-07 -1.5854e-07 8.13659e-09)
(-8.87285e-08 -1.3703e-07 8.12544e-09)
(-3.76297e-08 -1.00554e-07 7.50457e-09)
(-4.1169e-09 -4.39213e-08 4.37156e-09)
(-1.15361e-06 -8.15982e-06 -1.15364e-06)
(-2.83236e-06 -5.60282e-06 -1.06768e-06)
(-2.71106e-06 -4.13613e-06 -7.90597e-07)
(-2.1286e-06 -2.56917e-06 -4.37446e-07)
(-1.35344e-06 -1.70857e-06 -2.3085e-07)
(-8.07505e-07 -1.153e-06 -1.16166e-07)
(-3.89064e-07 -8.3522e-07 -5.18457e-08)
(-1.06553e-07 -6.41234e-07 -1.64043e-08)
(7.91751e-08 -5.20805e-07 4.74537e-09)
(1.85913e-07 -4.41939e-07 1.82683e-08)
(2.29401e-07 -3.87807e-07 2.77857e-08)
(2.20886e-07 -3.49259e-07 3.48697e-08)
(1.70582e-07 -3.21647e-07 4.01528e-08)
(8.8666e-08 -3.02677e-07 4.38082e-08)
(-1.4108e-08 -2.91202e-07 4.58301e-08)
(-1.26556e-07 -2.86449e-07 4.62249e-08)
(-2.37689e-07 -2.87623e-07 4.50747e-08)
(-3.37442e-07 -2.93708e-07 4.257e-08)
(-4.17529e-07 -3.03378e-07 3.90244e-08)
(-4.721e-07 -3.15106e-07 3.48107e-08)
(-4.98051e-07 -3.27244e-07 3.03329e-08)
(-4.95091e-07 -3.38144e-07 2.59661e-08)
(-4.65438e-07 -3.4617e-07 2.20284e-08)
(-4.13421e-07 -3.49626e-07 1.87554e-08)
(-3.44939e-07 -3.46562e-07 1.62774e-08)
(-2.66933e-07 -3.34486e-07 1.46024e-08)
(-1.86867e-07 -3.09928e-07 1.35738e-08)
(-1.1192e-07 -2.6785e-07 1.27146e-08)
(-4.94938e-08 -2.00213e-07 1.10719e-08)
(-5.83968e-09 -9.28704e-08 6.16221e-09)
(-4.0462e-07 -2.37782e-06 -4.04651e-07)
(-1.52471e-06 -3.08413e-06 -5.09722e-07)
(-1.46592e-06 -2.75834e-06 -3.82376e-07)
(-1.21402e-06 -2.08764e-06 -2.32273e-07)
(-8.11909e-07 -1.61095e-06 -1.28663e-07)
(-4.72221e-07 -1.25633e-06 -6.44638e-08)
(-1.86663e-07 -1.02304e-06 -2.47697e-08)
(2.3708e-08 -8.64896e-07 -4.75836e-10)
(1.68091e-07 -7.56788e-07 1.56656e-08)
(2.50841e-07 -6.79949e-07 2.72018e-08)
(2.7851e-07 -6.23483e-07 3.6111e-08)
(2.57502e-07 -5.81102e-07 4.32059e-08)
(1.95477e-07 -5.49557e-07 4.87202e-08)
(1.01558e-07 -5.2727e-07 5.26208e-08)
(-1.36198e-08 -5.13456e-07 5.47787e-08)
(-1.38447e-07 -5.07445e-07 5.51464e-08)
(-2.61263e-07 -5.08383e-07 5.37885e-08)
(-3.7125e-07 -5.15052e-07 5.09025e-08)
(-4.59469e-07 -5.25764e-07 4.68468e-08)
(-5.19642e-07 -5.38539e-07 4.20356e-08)
(-5.4851e-07 -5.51213e-07 3.69275e-08)
(-5.45875e-07 -5.61604e-07 3.19363e-08)
(-5.14228e-07 -5.67506e-07 2.74066e-08)
(-4.58273e-07 -5.66618e-07 2.35827e-08)
(-3.84301e-07 -5.56263e-07 2.05941e-08)
(-2.99581e-07 -5.32983e-07 1.84367e-08)
(-2.11856e-07 -4.91899e-07 1.69395e-08)
(-1.28546e-07 -4.25619e-07 1.55854e-08)
(-5.77862e-08 -3.21446e-07 1.33576e-08)
(-6.96315e-09 -1.53275e-07 7.35678e-09)
(-1.9298e-07 -1.58541e-06 -1.93014e-07)
(-6.54398e-07 -2.11814e-06 -2.32594e-07)
(-7.06208e-07 -2.1008e-06 -1.8171e-07)
(-6.17393e-07 -1.82815e-06 -1.16981e-07)
(-4.1168e-07 -1.58123e-06 -6.53227e-08)
(-2.02567e-07 -1.37052e-06 -2.99304e-08)
(-9.42183e-09 -1.21361e-06 -5.62138e-09)
(1.43755e-07 -1.09613e-06 1.11591e-08)
(2.51894e-07 -1.00818e-06 2.37413e-08)
(3.11599e-07 -9.40646e-07 3.38128e-08)
(3.23469e-07 -8.87731e-07 4.22896e-08)
(2.90341e-07 -8.45994e-07 4.94449e-08)
(2.17774e-07 -8.13777e-07 5.51977e-08)
(1.13857e-07 -7.90372e-07 5.93388e-08)
(-1.10625e-08 -7.75489e-07 6.16217e-08)
(-1.45224e-07 -7.68661e-07 6.19523e-08)
(-2.76614e-07 -7.69061e-07 6.03775e-08)
(-3.93938e-07 -7.75377e-07 5.70997e-08)
(-4.87841e-07 -7.85678e-07 5.25271e-08)
(-5.51798e-07 -7.97659e-07 4.71224e-08)
(-5.82517e-07 -8.08773e-07 4.14065e-08)
(-5.79931e-07 -8.16403e-07 3.58337e-08)
(-5.46791e-07 -8.1789e-07 3.07759e-08)
(-4.88099e-07 -8.10411e-07 2.64909e-08)
(-4.10391e-07 -7.90617e-07 2.31084e-08)
(-3.21131e-07 -7.54087e-07 2.06161e-08)
(-2.28222e-07 -6.94421e-07 1.88313e-08)
(-1.39264e-07 -6.01496e-07 1.72094e-08)
(-6.29702e-08 -4.57083e-07 1.46815e-08)
(-7.61704e-09 -2.21188e-07 8.07785e-09)
(-7.51574e-08 -9.53038e-07 -7.51938e-08)
(-2.9133e-07 -1.54499e-06 -1.00343e-07)
(-3.2621e-07 -1.72536e-06 -8.119e-08)
(-2.77888e-07 -1.68833e-06 -5.31466e-08)
(-1.5394e-07 -1.60112e-06 -2.75149e-08)
(-1.29797e-08 -1.50023e-06 -7.93141e-09)
(1.24853e-07 -1.41047e-06 7.28912e-09)
(2.3909e-07 -1.33402e-06 1.93244e-08)
(3.20035e-07 -1.2705e-06 2.95644e-08)
(3.6106e-07 -1.21742e-06 3.86699e-08)
(3.59632e-07 -1.17296e-06 4.6909e-08)
(3.16411e-07 -1.13608e-06 5.41941e-08)
(2.35507e-07 -1.1065e-06 6.02025e-08)
(1.24205e-07 -1.08436e-06 6.45827e-08)
(-7.47407e-09 -1.06982e-06 6.69802e-08)
(-1.4778e-07 -1.06263e-06 6.72699e-08)
(-2.84611e-07 -1.06206e-06 6.54831e-08)
(-4.06427e-07 -1.06682e-06 6.18167e-08)
(-5.03649e-07 -1.07489e-06 5.67327e-08)
(-5.69654e-07 -1.08383e-06 5.07461e-08)
(-6.01185e-07 -1.09088e-06 4.44421e-08)
(-5.98356e-07 -1.09318e-06 3.83179e-08)
(-5.64156e-07 -1.08778e-06 3.27804e-08)
(-5.03801e-07 -1.07145e-06 2.80952e-08)
(-4.23993e-07 -1.04024e-06 2.43944e-08)
(-3.32273e-07 -9.88784e-07 2.1657e-08)
(-2.366e-07 -9.0905e-07 1.96909e-08)
(-1.44658e-07 -7.87914e-07 1.79345e-08)
(-6.54911e-08 -6.01005e-07 1.52819e-08)
(-7.90485e-09 -2.93341e-07 8.42514e-09)
(-3.0544e-08 -7.28968e-07 -3.05817e-08)
(-1.1589e-07 -1.31815e-06 -4.16705e-08)
(-1.22533e-07 -1.58405e-06 -3.31195e-08)
(-8.01503e-08 -1.66919e-06 -1.99827e-08)
(8.58492e-09 -1.68042e-06 -6.59025e-09)
(1.13284e-07 -1.65553e-06 4.96491e-09)
(2.17852e-07 -1.61886e-06 1.52092e-08)
(3.06023e-07 -1.57922e-06 2.44943e-08)
(3.67372e-07 -1.54088e-06 3.3328e-08)
(3.94285e-07 -1.50519e-06 4.18617e-08)
(3.82795e-07 -1.47283e-06 5.00019e-08)
(3.32343e-07 -1.44434e-06 5.7432e-08)
(2.46115e-07 -1.42047e-06 6.36603e-08)
(1.30775e-07 -1.40188e-06 6.8238e-08)
(-3.9989e-09 -1.38906e-06 7.07189e-08)
(-1.46653e-07 -1.38191e-06 7.09675e-08)
(-2.85292e-07 -1.37982e-06 6.90027e-08)
(-4.08392e-07 -1.38164e-06 6.50032e-08)
(-5.06333e-07 -1.38546e-06 5.94835e-08)
(-5.72533e-07 -1.38887e-06 5.29954e-08)
(-6.03843e-07 -1.38916e-06 4.61861e-08)
(-6.00566e-07 -1.38343e-06 3.95971e-08)
(-5.65873e-07 -1.3686e-06 3.36674e-08)
(-5.05104e-07 -1.3412e-06 2.86676e-08)
(-4.25018e-07 -1.29678e-06 2.47298e-08)
(-3.33111e-07 -1.22903e-06 2.18231e-08)
(-2.3725e-07 -1.12822e-06 1.97518e-08)
(-1.45062e-07 -9.7808e-07 1.79466e-08)
(-6.56217e-08 -7.47788e-07 1.5292e-08)
(-7.88636e-09 -3.66925e-07 8.45674e-09)
(-1.03525e-08 -6.42925e-07 -1.03908e-08)
(-3.33142e-08 -1.24424e-06 -1.37796e-08)
(-1.70481e-08 -1.56251e-06 -9.41265e-09)
(2.90105e-08 -1.72123e-06 -2.79922e-09)
(1.02963e-07 -1.79796e-06 4.69365e-09)
(1.88122e-07 -1.82799e-06 1.20852e-08)
(2.72354e-07 -1.8339e-06 1.95712e-08)
(3.43035e-07 -1.82694e-06 2.72177e-08)
(3.90532e-07 -1.81352e-06 3.51432e-08)
(4.07378e-07 -1.79696e-06 4.32527e-08)
(3.89183e-07 -1.77932e-06 5.12596e-08)
(3.34817e-07 -1.76207e-06 5.87176e-08)
(2.46919e-07 -1.74643e-06 6.50237e-08)
(1.31647e-07 -1.73335e-06 6.96748e-08)
(-1.74543e-09 -1.72343e-06 7.21578e-08)
(-1.42165e-07 -1.71663e-06 7.23672e-08)
(-2.78273e-07 -1.71247e-06 7.03128e-08)
(-3.98881e-07 -1.71004e-06 6.612e-08)
(-4.94569e-07 -1.70767e-06 6.03413e-08)
(-5.58943e-07 -1.70323e-06 5.35473e-08)
(-5.88988e-07 -1.69422e-06 4.64355e-08)
(-5.85177e-07 -1.67794e-06 3.95727e-08)
(-5.50782e-07 -1.65141e-06 3.3416e-08)
(-4.91148e-07 -1.61101e-06 2.82445e-08)
(-4.12922e-07 -1.55192e-06 2.41856e-08)
(-3.2339e-07 -1.46693e-06 2.12051e-08)
(-2.30156e-07 -1.34464e-06 1.91028e-08)
(-1.40587e-07 -1.16553e-06 1.73191e-08)
(-6.34877e-08 -8.92335e-07 1.47675e-08)
(-7.58909e-09 -4.39347e-07 8.19992e-09)
(-1.73846e-09 -6.28805e-07 -1.77728e-09)
(5.24878e-09 -1.25408e-06 -1.19077e-09)
(3.51266e-08 -1.60958e-06 1.60637e-09)
(8.4168e-08 -1.81571e-06 5.40633e-09)
(1.4999e-07 -1.93746e-06 1.00705e-08)
(2.22586e-07 -2.00797e-06 1.52887e-08)
(2.92778e-07 -2.04813e-06 2.11844e-08)
(3.50715e-07 -2.06981e-06 2.77473e-08)
(3.88023e-07 -2.08018e-06 3.49485e-08)
(3.9791e-07 -2.08337e-06 4.25847e-08)
(3.76097e-07 -2.08197e-06 5.02762e-08)
(3.21285e-07 -2.07776e-06 5.7519e-08)
(2.35785e-07 -2.07207e-06 6.36507e-08)
(1.25258e-07 -2.06585e-06 6.81675e-08)
(-1.62578e-09 -2.05965e-06 7.05342e-08)
(-1.34544e-07 -2.05342e-06 7.07059e-08)
(-2.63165e-07 -2.04681e-06 6.86849e-08)
(-3.77003e-07 -2.03915e-06 6.45168e-08)
(-4.67098e-07 -2.02913e-06 5.87649e-08)
(-5.27406e-07 -2.01505e-06 5.19767e-08)
(-5.55119e-07 -1.99482e-06 4.48679e-08)
(-5.5082e-07 -1.96612e-06 3.80177e-08)
(-5.17742e-07 -1.92621e-06 3.18893e-08)
(-4.61069e-07 -1.87152e-06 2.67586e-08)
(-3.87129e-07 -1.7969e-06 2.27448e-08)
(-3.02806e-07 -1.69436e-06 1.9811e-08)
(-2.1522e-07 -1.55086e-06 1.77672e-08)
(-1.31248e-07 -1.34378e-06 1.60819e-08)
(-5.91255e-08 -1.02963e-06 1.37293e-08)
(-7.02214e-09 -5.08098e-07 7.66437e-09)
(1.83178e-09 -6.45034e-07 1.79097e-09)
(2.12797e-08 -1.30156e-06 4.08345e-09)
(5.6325e-08 -1.68746e-06 6.18043e-09)
(1.04448e-07 -1.92728e-06 8.65431e-09)
(1.62785e-07 -2.08177e-06 1.18485e-08)
(2.24722e-07 -2.1831e-06 1.57908e-08)
(2.83215e-07 -2.25114e-06 2.05936e-08)
(3.30561e-07 -2.2977e-06 2.62423e-08)
(3.59751e-07 -2.33002e-06 3.2648e-08)
(3.64901e-07 -2.35238e-06 3.95762e-08)
(3.42169e-07 -2.36739e-06 4.66194e-08)
(2.9033e-07 -2.37671e-06 5.32704e-08)
(2.11458e-07 -2.38155e-06 5.88738e-08)
(1.10652e-07 -2.38265e-06 6.29747e-08)
(-4.24352e-09 -2.38046e-06 6.5063e-08)
(-1.24056e-07 -2.37492e-06 6.51976e-08)
(-2.39873e-07 -2.36578e-06 6.33756e-08)
(-3.4233e-07 -2.3526e-06 5.95261e-08)
(-4.23257e-07 -2.3344e-06 5.41756e-08)
(-4.77153e-07 -2.30995e-06 4.78091e-08)
(-5.01454e-07 -2.27768e-06 4.11299e-08)
(-4.96778e-07 -2.23574e-06 3.46858e-08)
(-4.66182e-07 -2.18181e-06 2.89239e-08)
(-4.14472e-07 -2.11246e-06 2.41083e-08)
(-3.47431e-07 -2.02237e-06 2.03542e-08)
(-2.71293e-07 -1.90283e-06 1.76253e-08)
(-1.92462e-07 -1.73934e-06 1.57448e-08)
(-1.17109e-07 -1.50637e-06 1.42392e-08)
(-5.25869e-08 -1.15473e-06 1.21888e-08)
(-6.19061e-09 -5.70716e-07 6.85602e-09)
(2.90832e-09 -6.72172e-07 2.8662e-09)
(2.50565e-08 -1.36117e-06 5.58272e-09)
(5.86205e-08 -1.77247e-06 7.23229e-09)
(1.01336e-07 -2.03734e-06 8.97353e-09)
(1.50324e-07 -2.21623e-06 1.1279e-08)
(2.00954e-07 -2.34126e-06 1.43198e-08)
(2.47878e-07 -2.43177e-06 1.81986e-08)
(2.85188e-07 -2.49935e-06 2.29065e-08)
(3.07247e-07 -2.551e-06 2.83421e-08)
(3.09234e-07 -2.59079e-06 3.42798e-08)
(2.87931e-07 -2.62102e-06 4.03341e-08)
(2.42303e-07 -2.64308e-06 4.60394e-08)
(1.74163e-07 -2.65783e-06 5.07995e-08)
(8.79011e-08 -2.66584e-06 5.42474e-08)
(-9.75548e-09 -2.6674e-06 5.59383e-08)
(-1.11126e-07 -2.66261e-06 5.60334e-08)
(-2.09033e-07 -2.65125e-06 5.45244e-08)
(-2.95609e-07 -2.63293e-06 5.12315e-08)
(-3.63801e-07 -2.607e-06 4.66189e-08)
(-4.08871e-07 -2.57258e-06 4.10715e-08)
(-4.28625e-07 -2.52867e-06 3.52268e-08)
(-4.23664e-07 -2.47399e-06 2.95753e-08)
(-3.96706e-07 -2.40664e-06 2.45242e-08)
(-3.51938e-07 -2.32343e-06 2.03101e-08)
(-2.94372e-07 -2.21894e-06 1.70347e-08)
(-2.29338e-07 -2.08395e-06 1.46706e-08)
(-1.62278e-07 -1.90262e-06 1.30673e-08)
(-9.84268e-08 -1.64698e-06 1.18278e-08)
(-4.39907e-08 -1.26281e-06 1.01751e-08)
(-5.10838e-09 -6.24804e-07 5.78915e-09)
(2.72321e-09 -6.9925e-07 2.67634e-09)
(2.17277e-08 -1.41675e-06 5.04102e-09)
(4.87674e-08 -1.84818e-06 6.26105e-09)
(8.19869e-08 -2.13149e-06 7.47824e-09)
(1.19009e-07 -2.32828e-06 9.11527e-09)
(1.56662e-07 -2.47111e-06 1.13602e-08)
(1.91117e-07 -2.57903e-06 1.42991e-08)
(2.18097e-07 -2.66342e-06 1.79228e-08)
(2.33387e-07 -2.73092e-06 2.21378e-08)
(2.33327e-07 -2.78522e-06 2.67504e-08)
(2.15427e-07 -2.82824e-06 3.14379e-08)
(1.78891e-07 -2.86092e-06 3.58245e-08)
(1.25189e-07 -2.88382e-06 3.9421e-08)
(5.7792e-08 -2.8974e-06 4.19731e-08)
(-1.80007e-08 -2.90199e-06 4.31585e-08)
(-9.62851e-08 -2.89789e-06 4.32069e-08)
(-1.71763e-07 -2.88497e-06 4.21143e-08)
(-2.38366e-07 -2.86269e-06 3.96234e-08)
(-2.90526e-07 -2.83048e-06 3.60795e-08)
(-3.2452e-07 -2.78776e-06 3.17556e-08)
(-3.38636e-07 -2.73398e-06 2.71693e-08)
(-3.33434e-07 -2.66836e-06 2.27166e-08)
(-3.11135e-07 -2.58947e-06 1.87364e-08)
(-2.75111e-07 -2.4944e-06 1.54174e-08)
(-2.2935e-07 -2.37772e-06 1.28497e-08)
(-1.78047e-07 -2.22979e-06 1.10136e-08)
(-1.25468e-07 -2.03382e-06 9.79829e-09)
(-7.57036e-08 -1.75978e-06 8.90331e-09)
(-3.35683e-08 -1.34945e-06 7.73716e-09)
(-3.80458e-09 -6.68169e-07 4.49463e-09)
(1.84936e-09 -7.19932e-07 1.79919e-09)
(1.40892e-08 -1.45803e-06 3.34386e-09)
(3.09695e-08 -1.90331e-06 4.09255e-09)
(5.14286e-08 -2.19894e-06 4.84452e-09)
(7.40194e-08 -2.40788e-06 5.88877e-09)
(9.69186e-08 -2.56309e-06 7.36271e-09)
(1.17783e-07 -2.68349e-06 9.31837e-09)
(1.33921e-07 -2.78023e-06 1.17551e-08)
(1.42608e-07 -2.85962e-06 1.46105e-08)
(1.414e-07 -2.9249e-06 1.77499e-08)
(1.2861e-07 -2.97759e-06 2.09469e-08)
(1.03632e-07 -3.01829e-06 2.39386e-08)
(6.74022e-08 -3.04725e-06 2.6382e-08)
(2.22175e-08 -3.06491e-06 2.81078e-08)
(-2.83452e-08 -3.0717e-06 2.88886e-08)
(-8.02854e-08 -3.06821e-06 2.88862e-08)
(-1.3005e-07 -3.05433e-06 2.81017e-08)
(-1.73515e-07 -3.02932e-06 2.63438e-08)
(-2.06925e-07 -2.9926e-06 2.38719e-08)
(-2.27861e-07 -2.94374e-06 2.087e-08)
(-2.3527e-07 -2.88254e-06 1.77109e-08)
(-2.29691e-07 -2.80864e-06 1.4661e-08)
(-2.12762e-07 -2.72099e-06 1.19536e-08)
(-1.86867e-07 -2.61695e-06 9.71818e-09)
(-1.54753e-07 -2.49118e-06 8.01062e-09)
(-1.19291e-07 -2.33373e-06 6.81727e-09)
(-8.33671e-08 -2.12712e-06 6.07254e-09)
(-4.97534e-08 -1.8399e-06 5.58539e-09)
(-2.16883e-08 -1.41096e-06 4.96923e-09)
(-2.32419e-09 -6.98964e-07 3.0171e-09)
(5.93764e-10 -7.30381e-07 5.37232e-10)
(3.85247e-09 -1.47831e-06 9.78177e-10)
(8.12799e-09 -1.93017e-06 1.20095e-09)
(1.34926e-08 -2.23204e-06 1.49178e-09)
(1.97644e-08 -2.44759e-06 1.95051e-09)
(2.64625e-08 -2.60997e-06 2.6241e-09)
(3.27618e-08 -2.73794e-06 3.53374e-09)
(3.75729e-08 -2.8424e-06 4.67452e-09)
(3.96912e-08 -2.92934e-06 6.01293e-09)
(3.79469e-08 -3.00172e-06 7.4896e-09)
(3.14521e-08 -3.06071e-06 9.00023e-09)
(1.97639e-08 -3.10663e-06 1.04256e-08)
(3.16137e-09 -3.13957e-06 1.16052e-08)
(-1.7408e-08 -3.15995e-06 1.24454e-08)
(-4.03189e-08 -3.16824e-06 1.28162e-08)
(-6.3561e-08 -3.1652e-06 1.27553e-08)
(-8.52545e-08 -3.15076e-06 1.22791e-08)
(-1.03334e-07 -3.12407e-06 1.13175e-08)
(-1.16083e-07 -3.08459e-06 1.00474e-08)
(-1.22568e-07 -3.03194e-06 8.56067e-09)
(-1.22544e-07 -2.96617e-06 7.04348e-09)
(-1.16536e-07 -2.8872e-06 5.61952e-09)
(-1.05501e-07 -2.79425e-06 4.39004e-09)
(-9.07184e-08 -2.68486e-06 3.40511e-09)
(-7.35535e-08 -2.55373e-06 2.68842e-09)
(-5.53944e-08 -2.39079e-06 2.23543e-09)
(-3.76269e-08 -2.17816e-06 2.02275e-09)
(-2.15951e-08 -1.88366e-06 1.9874e-09)
(-8.81315e-09 -1.44456e-06 1.97202e-09)
(-7.21715e-10 -7.15801e-07 1.41278e-09)
(-8.5318e-10 -7.28413e-07 -9.16357e-10)
(-7.7754e-09 -1.47364e-06 -1.72634e-09)
(-1.74835e-08 -1.9241e-06 -2.05784e-09)
(-2.85341e-08 -2.22597e-06 -2.22483e-09)
(-3.96422e-08 -2.44272e-06 -2.33309e-09)
(-4.99226e-08 -2.60721e-06 -2.44202e-09)
(-5.86561e-08 -2.73793e-06 -2.57112e-09)
(-6.53444e-08 -2.84552e-06 -2.72328e-09)
(-6.96806e-08 -2.93575e-06 -2.88187e-09)
(-7.1545e-08 -3.0114e-06 -3.01667e-09)
(-7.10305e-08 -3.07347e-06 -3.0935e-09)
(-6.84445e-08 -3.12213e-06 -3.09289e-09)
(-6.42824e-08 -3.15733e-06 -3.00672e-09)
(-5.90586e-08 -3.1794e-06 -2.88638e-09)
(-5.31737e-08 -3.1887e-06 -2.81099e-09)
(-4.663e-08 -3.18595e-06 -2.92017e-09)
(-3.91861e-08 -3.17112e-06 -3.18278e-09)
(-3.08557e-08 -3.14348e-06 -3.50118e-09)
(-2.20508e-08 -3.10261e-06 -3.73056e-09)
(-1.34284e-08 -3.04831e-06 -3.82592e-09)
(-5.61117e-09 -2.98079e-06 -3.77484e-09)
(8.86885e-10 -2.90007e-06 -3.60564e-09)
(5.79074e-09 -2.80546e-06 -3.35907e-09)
(9.02024e-09 -2.69459e-06 -3.07505e-09)
(1.06463e-08 -2.56217e-06 -2.77949e-09)
(1.0824e-08 -2.39812e-06 -2.47509e-09)
(9.74616e-09 -2.18449e-06 -2.13837e-09)
(7.54803e-09 -1.88899e-06 -1.71178e-09)
(4.49814e-09 -1.44865e-06 -1.11581e-09)
(9.29769e-10 -7.17895e-07 -2.44866e-10)
(-2.36552e-09 -7.13027e-07 -2.43605e-09)
(-1.98667e-08 -1.44216e-06 -4.54647e-09)
(-4.39892e-08 -1.88293e-06 -5.44226e-09)
(-7.18112e-08 -2.1786e-06 -6.05907e-09)
(-1.00509e-07 -2.39126e-06 -6.72393e-09)
(-1.27841e-07 -2.553e-06 -7.61159e-09)
(-1.51588e-07 -2.68181e-06 -8.78332e-09)
(-1.69719e-07 -2.78805e-06 -1.02491e-08)
(-1.80445e-07 -2.87735e-06 -1.19588e-08)
(-1.82399e-07 -2.95245e-06 -1.38124e-08)
(-1.74881e-07 -3.01436e-06 -1.56414e-08)
(-1.58022e-07 -3.06326e-06 -1.72736e-08)
(-1.32986e-07 -3.09904e-06 -1.85111e-08)
(-1.01678e-07 -3.12178e-06 -1.93249e-08)
(-6.65206e-08 -3.1316e-06 -1.96751e-08)
(-2.96581e-08 -3.12902e-06 -1.9826e-08)
(7.31137e-09 -3.11402e-06 -1.97314e-08)
(4.21795e-08 -3.08614e-06 -1.91683e-08)
(7.24281e-08 -3.04533e-06 -1.81055e-08)
(9.59033e-08 -2.9916e-06 -1.65892e-08)
(1.11215e-07 -2.92521e-06 -1.47968e-08)
(1.17948e-07 -2.84618e-06 -1.29177e-08)
(1.16554e-07 -2.75372e-06 -1.11255e-08)
(1.08148e-07 -2.64538e-06 -9.53717e-09)
(9.42393e-08 -2.51586e-06 -8.2123e-09)
(7.65143e-08 -2.35517e-06 -7.14125e-09)
(5.67105e-08 -2.14563e-06 -6.25488e-09)
(3.64236e-08 -1.85549e-06 -5.36983e-09)
(1.76788e-08 -1.42294e-06 -4.17078e-09)
(2.56355e-09 -7.05093e-07 -1.88852e-09)
(-3.83821e-09 -6.84169e-07 -3.91387e-09)
(-3.16361e-08 -1.38384e-06 -7.28751e-09)
(-6.97364e-08 -1.80673e-06 -8.72108e-09)
(-1.13736e-07 -2.09023e-06 -9.75336e-09)
(-1.59315e-07 -2.29381e-06 -1.09248e-08)
(-2.0293e-07 -2.44823e-06 -1.25213e-08)
(-2.40969e-07 -2.5707e-06 -1.46545e-08)
(-2.69983e-07 -2.67123e-06 -1.73388e-08)
(-2.8682e-07 -2.75533e-06 -2.04984e-08)
(-2.8895e-07 -2.82584e-06 -2.39702e-08)
(-2.74887e-07 -2.88394e-06 -2.74769e-08)
(-2.44531e-07 -2.92995e-06 -3.07191e-08)
(-1.99581e-07 -2.96386e-06 -3.33219e-08)
(-1.43148e-07 -2.98563e-06 -3.51412e-08)
(-7.95626e-08 -2.99517e-06 -3.59868e-08)
(-1.31654e-08 -2.99267e-06 -3.6151e-08)
(5.23906e-08 -2.97814e-06 -3.55929e-08)
(1.12657e-07 -2.9515e-06 -3.40462e-08)
(1.63148e-07 -2.91298e-06 -3.16391e-08)
(2.00436e-07 -2.86273e-06 -2.85259e-08)
(2.22535e-07 -2.8009e-06 -2.50623e-08)
(2.29211e-07 -2.72731e-06 -2.15732e-08)
(2.2165e-07 -2.64095e-06 -1.834e-08)
(2.02098e-07 -2.53918e-06 -1.55444e-08)
(1.73414e-07 -2.41666e-06 -1.32707e-08)
(1.38708e-07 -2.26366e-06 -1.15003e-08)
(1.01156e-07 -2.06311e-06 -1.01133e-08)
(6.37427e-08 -1.78448e-06 -8.80597e-09)
(3.01403e-08 -1.36844e-06 -7.04956e-09)
(4.1037e-09 -6.77882e-07 -3.44213e-09)
(-5.18787e-09 -6.42607e-07 -5.27082e-09)
(-4.24289e-08 -1.30022e-06 -9.80373e-09)
(-9.33202e-08 -1.6976e-06 -1.17248e-08)
(-1.52077e-07 -1.96347e-06 -1.31235e-08)
(-2.12989e-07 -2.1535e-06 -1.47328e-08)
(-2.71353e-07 -2.29653e-06 -1.69465e-08)
(-3.22307e-07 -2.40879e-06 -1.99131e-08)
(-3.61154e-07 -2.49975e-06 -2.36682e-08)
(-3.83553e-07 -2.57482e-06 -2.81255e-08)
(-3.85938e-07 -2.63692e-06 -3.30762e-08)
(-3.66116e-07 -2.68756e-06 -3.81726e-08)
(-3.23725e-07 -2.7274e-06 -4.29958e-08)
(-2.60796e-07 -2.75668e-06 -4.70158e-08)
(-1.81428e-07 -2.77543e-06 -4.99328e-08)
(-9.15763e-08 -2.78361e-06 -5.13767e-08)
(2.26852e-09 -2.78114e-06 -5.15399e-08)
(9.41589e-08 -2.7681e-06 -5.03908e-08)
(1.77472e-07 -2.74469e-06 -4.77456e-08)
(2.46063e-07 -2.71114e-06 -4.39237e-08)
(2.95494e-07 -2.66752e-06 -3.92306e-08)
(3.2339e-07 -2.61372e-06 -3.41872e-08)
(3.29757e-07 -2.54916e-06 -2.9226e-08)
(3.16467e-07 -2.4725e-06 -2.47091e-08)
(2.86782e-07 -2.38088e-06 -2.08534e-08)
(2.44746e-07 -2.26903e-06 -1.77571e-08)
(1.94727e-07 -2.12762e-06 -1.53827e-08)
(1.4119e-07 -1.9405e-06 -1.35642e-08)
(8.83456e-08 -1.67897e-06 -1.18932e-08)
(4.13588e-08 -1.28742e-06 -9.64064e-09)
(5.48794e-09 -6.37397e-07 -4.84359e-09)
(-6.35385e-09 -5.89744e-07 -6.44048e-09)
(-5.17223e-08 -1.19414e-06 -1.19691e-08)
(-1.13583e-07 -1.55933e-06 -1.42994e-08)
(-1.84957e-07 -1.80288e-06 -1.59931e-08)
(-2.58927e-07 -1.97568e-06 -1.79396e-08)
(-3.29795e-07 -2.10407e-06 -2.06175e-08)
(-3.9164e-07 -2.20303e-06 -2.42109e-08)
(-4.38719e-07 -2.28139e-06 -2.87705e-08)
(-4.65714e-07 -2.34435e-06 -3.42015e-08)
(-4.68238e-07 -2.39503e-06 -4.02681e-08)
(-4.43506e-07 -2.43523e-06 -4.65647e-08)
(-3.90924e-07 -2.46604e-06 -5.25915e-08)
(-3.1275e-07 -2.48815e-06 -5.7712e-08)
(-2.13874e-07 -2.50198e-06 -6.14898e-08)
(-1.01575e-07 -2.50771e-06 -6.34256e-08)
(1.57768e-08 -2.50531e-06 -6.35759e-08)
(1.30102e-07 -2.49488e-06 -6.19164e-08)
(2.32906e-07 -2.47662e-06 -5.8389e-08)
(3.16688e-07 -2.45051e-06 -5.34577e-08)
(3.76223e-07 -2.41629e-06 -4.75564e-08)
(4.089e-07 -2.37337e-06 -4.13187e-08)
(4.14946e-07 -2.32073e-06 -3.5252e-08)
(3.96811e-07 -2.25663e-06 -2.97757e-08)
(3.58571e-07 -2.17803e-06 -2.51322e-08)
(3.05248e-07 -2.07977e-06 -2.14238e-08)
(2.42268e-07 -1.95308e-06 -1.85973e-08)
(1.75182e-07 -1.78305e-06 -1.64536e-08)
(1.09243e-07 -1.54337e-06 -1.44966e-08)
(5.08892e-08 -1.18323e-06 -1.18381e-08)
(6.66239e-09 -5.853e-07 -6.03951e-09)
(-7.28477e-09 -5.27508e-07 -7.37548e-09)
(-5.91262e-08 -1.06947e-06 -1.37019e-08)
(-1.29689e-07 -1.39703e-06 -1.6351e-08)
(-2.11036e-07 -1.6146e-06 -1.82537e-08)
(-2.95281e-07 -1.76741e-06 -2.04223e-08)
(-3.75918e-07 -1.87894e-06 -2.3401e-08)
(-4.4619e-07 -1.96264e-06 -2.74001e-08)
(-4.99551e-07 -2.0266e-06 -3.24744e-08)
(-5.29946e-07 -2.07581e-06 -3.85198e-08)
(-5.32375e-07 -2.11342e-06 -4.5287e-08)
(-5.03639e-07 -2.14158e-06 -5.23403e-08)
(-4.43006e-07 -2.16188e-06 -5.9135e-08)
(-3.52897e-07 -2.17552e-06 -6.49717e-08)
(-2.38789e-07 -2.1834e-06 -6.93142e-08)
(-1.0895e-07 -2.18613e-06 -7.15863e-08)
(2.67957e-08 -2.18386e-06 -7.17167e-08)
(1.58597e-07 -2.17669e-06 -6.96902e-08)
(2.76509e-07 -2.16466e-06 -6.55698e-08)
(3.72045e-07 -2.14734e-06 -5.99029e-08)
(4.39415e-07 -2.12398e-06 -5.32254e-08)
(4.75841e-07 -2.09346e-06 -4.62346e-08)
(4.81696e-07 -2.05424e-06 -3.94776e-08)
(4.59846e-07 -2.00423e-06 -3.33991e-08)
(4.14983e-07 -1.94029e-06 -2.82602e-08)
(3.52861e-07 -1.85744e-06 -2.41625e-08)
(2.79725e-07 -1.74761e-06 -2.10487e-08)
(2.01981e-07 -1.59737e-06 -1.86974e-08)
(1.25721e-07 -1.38326e-06 -1.65439e-08)
(5.84055e-08 -1.06009e-06 -1.35775e-08)
(7.58604e-09 -5.23684e-07 -6.98953e-09)
(-7.95282e-09 -4.58178e-07 -8.04423e-09)
(-6.43896e-08 -9.30768e-07 -1.49431e-08)
(-1.4109e-07 -1.21671e-06 -1.7809e-08)
(-2.29448e-07 -1.40574e-06 -1.98339e-08)
(-3.2089e-07 -1.53683e-06 -2.21115e-08)
(-4.08327e-07 -1.63034e-06 -2.52251e-08)
(-4.84379e-07 -1.69802e-06 -2.9395e-08)
(-5.41927e-07 -1.74714e-06 -3.46776e-08)
(-5.74422e-07 -1.78234e-06 -4.09608e-08)
(-5.76478e-07 -1.80679e-06 -4.79859e-08)
(-5.44693e-07 -1.82291e-06 -5.53115e-08)
(-4.78288e-07 -1.83268e-06 -6.23744e-08)
(-3.79829e-07 -1.83783e-06 -6.84706e-08)
(-2.55209e-07 -1.83975e-06 -7.30173e-08)
(-1.13336e-07 -1.83946e-06 -7.54249e-08)
(3.49985e-08 -1.83738e-06 -7.55338e-08)
(1.78735e-07 -1.8336e-06 -7.33338e-08)
(3.06978e-07 -1.8279e-06 -6.89755e-08)
(4.106e-07 -1.81943e-06 -6.30294e-08)
(4.83427e-07 -1.80694e-06 -5.60735e-08)
(5.22554e-07 -1.78878e-06 -4.8809e-08)
(5.2842e-07 -1.76302e-06 -4.1804e-08)
(5.04108e-07 -1.72725e-06 -3.55017e-08)
(4.54689e-07 -1.6783e-06 -3.017e-08)
(3.86424e-07 -1.61152e-06 -2.59189e-08)
(3.06136e-07 -1.51965e-06 -2.26875e-08)
(2.20871e-07 -1.39091e-06 -2.02415e-08)
(1.37331e-07 -1.20495e-06 -1.79808e-08)
(6.37001e-08 -9.22801e-07 -1.48141e-08)
(8.23439e-09 -4.54935e-07 -7.67057e-09)
(-8.33752e-09 -3.84236e-07 -8.42768e-09)
(-6.73449e-08 -7.8303e-07 -1.56558e-08)
(-1.47465e-07 -1.02489e-06 -1.86369e-08)
(-2.39763e-07 -1.18395e-06 -2.07013e-08)
(-3.35276e-07 -1.2926e-06 -2.29849e-08)
(-4.26542e-07 -1.36791e-06 -2.60908e-08)
(-5.05786e-07 -1.41989e-06 -3.0237e-08)
(-5.65523e-07 -1.45489e-06 -3.54734e-08)
(-5.98924e-07 -1.47715e-06 -4.16869e-08)
(-6.00455e-07 -1.48976e-06 -4.86134e-08)
(-5.66651e-07 -1.49526e-06 -5.58184e-08)
(-4.96795e-07 -1.4959e-06 -6.27533e-08)
(-3.93588e-07 -1.49379e-06 -6.87475e-08)
(-2.63157e-07 -1.49066e-06 -7.32132e-08)
(-1.14726e-07 -1.48786e-06 -7.55913e-08)
(4.04416e-08 -1.48602e-06 -7.56815e-08)
(1.90617e-07 -1.48523e-06 -7.34774e-08)
(3.24441e-07 -1.48504e-06 -6.91684e-08)
(4.325e-07 -1.48426e-06 -6.33026e-08)
(5.08404e-07 -1.48126e-06 -5.64642e-08)
(5.49146e-07 -1.47403e-06 -4.93182e-08)
(5.55124e-07 -1.46035e-06 -4.24166e-08)
(5.29492e-07 -1.43768e-06 -3.61966e-08)
(4.77485e-07 -1.40292e-06 -3.09239e-08)
(4.05654e-07 -1.35182e-06 -2.67112e-08)
(3.21187e-07 -1.27803e-06 -2.35025e-08)
(2.31548e-07 -1.17147e-06 -2.10641e-08)
(1.43838e-07 -1.01508e-06 -1.87821e-08)
(6.66473e-08 -7.76448e-07 -1.55213e-08)
(8.59283e-09 -3.81586e-07 -8.06853e-09)
(-8.41877e-09 -3.08316e-07 -8.50499e-09)
(-6.78684e-08 -6.31502e-07 -1.58005e-08)
(-1.48615e-07 -8.28364e-07 -1.87825e-08)
(-2.41782e-07 -9.57079e-07 -2.08027e-08)
(-3.38334e-07 -1.04341e-06 -2.30024e-08)
(-4.30639e-07 -1.10112e-06 -2.59815e-08)
(-5.10712e-07 -1.13853e-06 -2.99537e-08)
(-5.70893e-07 -1.16101e-06 -3.49603e-08)
(-6.0426e-07 -1.17231e-06 -4.08817e-08)
(-6.05286e-07 -1.17533e-06 -4.74541e-08)
(-5.70585e-07 -1.17257e-06 -5.42666e-08)
(-4.9957e-07 -1.16637e-06 -6.08003e-08)
(-3.95039e-07 -1.15895e-06 -6.64379e-08)
(-2.6319e-07 -1.15223e-06 -7.06266e-08)
(-1.1328e-07 -1.14772e-06 -7.2865e-08)
(4.33743e-08 -1.14617e-06 -7.29391e-08)
(1.94901e-07 -1.14765e-06 -7.08448e-08)
(3.29899e-07 -1.15157e-06 -6.67873e-08)
(4.38941e-07 -1.15656e-06 -6.126e-08)
(5.15593e-07 -1.1608e-06 -5.48115e-08)
(5.56784e-07 -1.16213e-06 -4.80557e-08)
(5.62806e-07 -1.15825e-06 -4.15122e-08)
(5.36752e-07 -1.14665e-06 -3.55923e-08)
(4.83867e-07 -1.12445e-06 -3.056e-08)
(4.10797e-07 -1.08785e-06 -2.65335e-08)
(3.24921e-07 -1.03147e-06 -2.34662e-08)
(2.33924e-07 -9.46957e-07 -2.11276e-08)
(1.45102e-07 -8.20504e-07 -1.89072e-08)
(6.71483e-08 -6.26321e-07 -1.56671e-08)
(8.64338e-09 -3.06285e-07 -8.1674e-09)
(-8.16028e-09 -2.33229e-07 -8.23944e-09)
(-6.57656e-08 -4.81692e-07 -1.53022e-08)
(-1.44286e-07 -6.34131e-07 -1.81486e-08)
(-2.3531e-07 -7.33077e-07 -2.00251e-08)
(-3.30045e-07 -7.97888e-07 -2.20479e-08)
(-4.20845e-07 -8.39219e-07 -2.47989e-08)
(-4.99677e-07 -8.63705e-07 -2.84853e-08)
(-5.58851e-07 -8.75755e-07 -3.31361e-08)
(-5.91513e-07 -8.78573e-07 -3.86277e-08)
(-5.92264e-07 -8.74705e-07 -4.47028e-08)
(-5.57887e-07 -8.66451e-07 -5.0976e-08)
(-4.87948e-07 -8.56018e-07 -5.69678e-08)