/*--------------------------------*- C++ -*----------------------------------*\
| =========                 |                                                 |
| \\      /  F ield         | OpenFOAM: The Open Source CFD Toolbox           |
|  \\    /   O peration     | Version:  v1906                                 |
|   \\  /    A nd           | Web:      www.OpenFOAM.com                      |
|    \\/     M anipulation  |                                                 |
\*---------------------------------------------------------------------------*/
FoamFile
{
    version     2.0;
    format      ascii;
    class       volScalarField;
    location    "91";
    object      alphat;
}
// * * * * * * * * * * * * * * * * * * * * * * * * * * * * * * * * * * * * * //

dimensions      [1 -1 -1 0 0 0 0];


internalField   nonuniform List<scalar> 
78750
(
3.99155e-09
3.90381e-07
6.70873e-07
9.48779e-07
1.21859e-06
1.47407e-06
1.71135e-06
1.92808e-06
2.12287e-06
2.29503e-06
2.44438e-06
2.57104e-06
2.67541e-06
2.75806e-06
2.81961e-06
2.85968e-06
2.879e-06
2.87833e-06
2.85833e-06
2.81949e-06
2.76296e-06
2.6873e-06
2.59309e-06
2.48027e-06
2.34845e-06
2.19698e-06
2.02509e-06
1.83115e-06
1.614e-06
1.37255e-06
1.10476e-06
8.12398e-07
5.19535e-07
2.8402e-07
6.00253e-09
3.73901e-09
2.14762e-06
5.41792e-06
8.81731e-06
1.1565e-05
1.34316e-05
1.47627e-05
1.58295e-05
1.67758e-05
1.76782e-05
1.85812e-05
1.9513e-05
2.04995e-05
2.15779e-05
2.2705e-05
2.27801e-05
2.25849e-05
2.22908e-05
2.19086e-05
2.1448e-05
2.09177e-05
2.03208e-05
1.96622e-05
1.8944e-05
1.81654e-05
1.73231e-05
1.64161e-05
1.46641e-05
1.23867e-05
1.00339e-05
7.48955e-06
5.10109e-06
3.71979e-06
2.48186e-06
2.66123e-08
6.03812e-09
2.35433e-06
5.182e-06
8.64374e-06
1.25375e-05
1.63507e-05
1.95206e-05
2.18278e-05
2.3387e-05
2.44065e-05
2.50556e-05
2.54449e-05
2.5643e-05
2.56949e-05
2.56297e-05
2.54501e-05
2.5143e-05
2.47126e-05
2.41728e-05
2.3535e-05
2.28086e-05
2.20114e-05
2.11563e-05
2.02384e-05
1.92444e-05
1.81448e-05
1.68821e-05
1.53706e-05
1.34927e-05
1.11486e-05
8.55279e-06
6.59179e-06
6.29839e-06
2.73403e-06
4.54235e-08
1.02954e-08
2.21441e-06
5.00088e-06
8.83679e-06
1.36463e-05
1.85959e-05
2.26344e-05
2.53902e-05
2.70384e-05
2.78466e-05
2.8029e-05
2.77489e-05
2.71336e-05
2.62842e-05
2.52814e-05
2.41891e-05
2.30542e-05
2.19103e-05
2.07821e-05
1.96912e-05
1.86617e-05
1.77233e-05
1.6905e-05
1.62217e-05
1.56619e-05
1.51684e-05
1.46129e-05
1.37876e-05
1.24632e-05
1.0591e-05
8.62821e-06
7.61265e-06
8.5911e-06
2.53765e-06
5.92052e-08
1.51429e-08
2.20343e-06
5.16092e-06
9.6724e-06
1.57896e-05
2.21414e-05
2.70304e-05
3.00296e-05
3.14291e-05
3.15942e-05
3.08679e-05
2.95612e-05
2.79361e-05
2.61925e-05
2.44651e-05
2.28292e-05
2.13144e-05
1.99201e-05
1.86309e-05
1.74314e-05
1.63191e-05
1.53125e-05
1.44431e-05
1.37385e-05
1.32086e-05
1.28212e-05
1.24625e-05
1.19178e-05
1.09629e-05
9.62294e-06
8.42833e-06
8.40745e-06
9.82393e-06
2.39053e-06
6.87171e-08
2.04021e-08
2.23583e-06
5.40193e-06
1.06115e-05
1.80448e-05
2.55682e-05
3.07401e-05
3.3304e-05
3.38627e-05
3.29967e-05
3.12153e-05
2.89612e-05
2.65836e-05
2.43167e-05
2.22819e-05
2.05148e-05
1.89971e-05
1.76842e-05
1.65262e-05
1.54837e-05
1.45371e-05
1.36882e-05
1.29463e-05
1.23186e-05
1.18075e-05
1.13925e-05
1.09937e-05
1.04625e-05
9.67639e-06
8.75018e-06
8.2148e-06
9.07373e-06
9.99082e-06
2.27731e-06
7.50785e-08
2.54527e-08
2.27779e-06
5.6059e-06
1.1332e-05
1.97007e-05
2.78813e-05
3.30157e-05
3.51215e-05
3.49708e-05
3.32579e-05
3.06393e-05
2.76942e-05
2.4842e-05
2.23149e-05
2.01855e-05
1.84324e-05
1.69944e-05
1.57992e-05
1.47805e-05
1.38891e-05
1.31031e-05
1.24229e-05
1.18349e-05
1.13134e-05
1.08397e-05
1.03895e-05
9.91198e-06
9.33588e-06
8.64704e-06
8.02626e-06
7.9842e-06
9.50162e-06
9.50907e-06
2.18817e-06
7.98075e-08
2.99576e-08
2.32288e-06
5.77141e-06
1.18787e-05
2.09759e-05
2.9644e-05
3.46411e-05
3.62183e-05
3.53407e-05
3.2867e-05
2.96115e-05
2.62399e-05
2.3171e-05
2.05773e-05
1.84688e-05
1.67827e-05
1.54383e-05
1.43582e-05
1.34781e-05
1.27558e-05
1.21721e-05
1.17034e-05
1.12886e-05
1.08625e-05
1.03853e-05
9.84242e-06
9.23014e-06
8.5586e-06
7.89936e-06
7.46645e-06
7.74393e-06
9.67794e-06
8.89948e-06
2.11934e-06
8.42074e-08
3.41232e-08
2.35679e-06
5.87108e-06
1.22011e-05
2.17275e-05
3.0603e-05
3.53968e-05
3.6568e-05
3.5201e-05
3.22619e-05
2.86572e-05
2.50872e-05
2.19423e-05
1.9342e-05
1.72519e-05
1.55903e-05
1.42737e-05
1.32302e-05
1.24074e-05
1.17813e-05
1.13526e-05
1.10824e-05
1.08678e-05
1.05938e-05
1.01742e-05
9.58158e-06
8.85338e-06
8.07993e-06
7.40479e-06
7.06404e-06
7.52007e-06
9.67256e-06
8.34639e-06
2.06621e-06
8.90885e-08
3.79533e-08
2.388e-06
5.9513e-06
1.24453e-05
2.22969e-05
3.13341e-05
3.59616e-05
3.67881e-05
3.50145e-05
3.17171e-05
2.78777e-05
2.42028e-05
2.10391e-05
1.8457e-05
1.63939e-05
1.47535e-05
1.34513e-05
1.24249e-05
1.1634e-05
1.10721e-05
1.07559e-05
1.0632e-05
1.05755e-05
1.0436e-05
1.00838e-05
9.46887e-06
8.65258e-06
7.78909e-06
7.08001e-06
6.77788e-06
7.32944e-06
9.58724e-06
7.87802e-06
2.02408e-06
9.4441e-08
4.17934e-08
2.41325e-06
6.00503e-06
1.26062e-05
2.26665e-05
3.17542e-05
3.62019e-05
3.6764e-05
3.47227e-05
3.1218e-05
2.72645e-05
2.3555e-05
2.03979e-05
1.78312e-05
1.57759e-05
1.41321e-05
1.28171e-05
1.17742e-05
1.09784e-05
1.04429e-05
1.01982e-05
1.01835e-05
1.0263e-05
1.02596e-05
1.0002e-05
9.40893e-06
8.54967e-06
7.62255e-06
6.8768e-06
6.58464e-06
7.18698e-06
9.49817e-06
7.49558e-06
1.99184e-06
1.00145e-07
4.55818e-08
2.43831e-06
6.06128e-06
1.27692e-05
2.30222e-05
3.21523e-05
3.64405e-05
3.67641e-05
3.44844e-05
3.08065e-05
2.67719e-05
2.30528e-05
1.99185e-05
1.73774e-05
1.53362e-05
1.36917e-05
1.23635e-05
1.13012e-05
1.04876e-05
9.95214e-06
9.74021e-06
9.78765e-06
9.95685e-06
1.00567e-05
9.88619e-06
9.33536e-06
8.47002e-06
7.51368e-06
6.74772e-06
6.46289e-06
7.10426e-06
9.45594e-06
7.17622e-06
1.9675e-06
1.05925e-07
4.95146e-08
2.46123e-06
6.11024e-06
1.29099e-05
2.33158e-05
3.24411e-05
3.65636e-05
3.66874e-05
3.42354e-05
3.04521e-05
2.6384e-05
2.26766e-05
1.95675e-05
1.70451e-05
1.50083e-05
1.33537e-05
1.2004e-05
1.0914e-05
1.00742e-05
9.52497e-06
9.32174e-06
9.40155e-06
9.62951e-06
9.80872e-06
9.71935e-06
9.22711e-06
8.38723e-06
7.43373e-06
6.66781e-06
6.39722e-06
7.07904e-06
9.47126e-06
6.91494e-06
1.95068e-06
1.11654e-07
5.34904e-08
2.48532e-06
6.16702e-06
1.30716e-05
2.36378e-05
3.27529e-05
3.6712e-05
3.66432e-05
3.40312e-05
3.01596e-05
2.60748e-05
2.2392e-05
1.93166e-05
1.6818e-05
1.47889e-05
1.31256e-05
1.1754e-05
1.06334e-05
9.76094e-06
9.18663e-06
8.97453e-06
9.06127e-06
9.31622e-06
9.54317e-06
9.51405e-06
9.07936e-06
8.2829e-06
7.35843e-06
6.61548e-06
6.37383e-06
7.10681e-06
9.54551e-06
6.70106e-06
1.94053e-06
1.17233e-07
5.75808e-08
2.5083e-06
6.22116e-06
1.32251e-05
2.39327e-05
3.30153e-05
3.68137e-05
3.65798e-05
3.38478e-05
2.99247e-05
2.58449e-05
2.21929e-05
1.91482e-05
1.66676e-05
1.46401e-05
1.29634e-05
1.15663e-05
1.0412e-05
9.50228e-06
8.89423e-06
8.66049e-06
8.73918e-06
9.00257e-06
9.2589e-06
9.27813e-06
8.90134e-06
8.16131e-06
7.2853e-06
6.5835e-06
6.38473e-06
7.18075e-06
9.66844e-06
6.52829e-06
1.9361e-06
1.22649e-07
6.17319e-08
2.53264e-06
6.28221e-06
1.33975e-05
2.42545e-05
3.3299e-05
3.69372e-05
3.65461e-05
3.37077e-05
2.97481e-05
2.56856e-05
2.20721e-05
1.90625e-05
1.6602e-05
1.45772e-05
1.28866e-05
1.14618e-05
1.02697e-05
9.31701e-06
8.66522e-06
8.39603e-06
8.45028e-06
8.70366e-06
8.96933e-06
9.02095e-06
8.69663e-06
8.01945e-06
7.20567e-06
6.55997e-06
6.41734e-06
7.28857e-06
9.82717e-06
6.39129e-06
1.93666e-06
1.27901e-07
6.59441e-08
2.55617e-06
6.34209e-06
1.35667e-05
2.45622e-05
3.35569e-05
3.70425e-05
3.65155e-05
3.35966e-05
2.96207e-05
2.55848e-05
2.20109e-05
1.90336e-05
1.65903e-05
1.45658e-05
1.28596e-05
1.14053e-05
1.01734e-05
9.17436e-06
8.47282e-06
8.15957e-06
8.1797e-06
8.41257e-06
8.67729e-06
8.75309e-06
8.47832e-06
7.86803e-06
7.12552e-06
6.54666e-06
6.47091e-06
7.42809e-06
1.00148e-05
6.28378e-06
1.94135e-06
1.32999e-07
7.02217e-08
2.58091e-06
6.40736e-06
1.3751e-05
2.48919e-05
3.38334e-05
3.71694e-05
3.65165e-05
3.35303e-05
2.95498e-05
2.55481e-05
2.20179e-05
1.90755e-05
1.66512e-05
1.46281e-05
1.29062e-05
1.14206e-05
1.01449e-05
9.0928e-06
8.33184e-06
7.96142e-06
7.93345e-06
8.13132e-06
8.38159e-06
8.47188e-06
8.2431e-06
7.70218e-06
7.03744e-06
6.53346e-06
6.53288e-06
7.5844e-06
1.02164e-05
6.20164e-06
1.94934e-06
1.37962e-07
7.45212e-08
2.60495e-06
6.47255e-06
1.39368e-05
2.52188e-05
3.41001e-05
3.72929e-05
3.65277e-05
3.34881e-05
2.95117e-05
2.55471e-05
2.20603e-05
1.91526e-05
1.67481e-05
1.47284e-05
1.29928e-05
1.14778e-05
1.01587e-05
9.05191e-06
8.22772e-06
7.79292e-06
7.70893e-06
7.86352e-06
8.09117e-06
8.18938e-06
8.00334e-06
7.53253e-06
6.94917e-06
6.5253e-06
6.6066e-06
7.75995e-06
1.04307e-05
6.13943e-06
1.96003e-06
1.42791e-07
7.88907e-08
2.62991e-06
6.54196e-06
1.41358e-05
2.55662e-05
3.4386e-05
3.74401e-05
3.65721e-05
3.34889e-05
2.95233e-05
2.55993e-05
2.21581e-05
1.92869e-05
1.69046e-05
1.48905e-05
1.3143e-05
1.15986e-05
1.02339e-05
9.06724e-06
8.17124e-06
7.65974e-06
7.50727e-06
7.60666e-06
7.8013e-06
7.89995e-06
7.75309e-06
7.35239e-06
6.85302e-06
6.51348e-06
6.68152e-06
7.94206e-06
1.06477e-05
6.09593e-06
1.97302e-06
1.47507e-07
8.32566e-08
2.65404e-06
6.61161e-06
1.43399e-05
2.59204e-05
3.46744e-05
3.75931e-05
3.66274e-05
3.35036e-05
2.95494e-05
2.56657e-05
2.22708e-05
1.94389e-05
1.70831e-05
1.508e-05
1.33264e-05
1.17576e-05
1.03503e-05
9.12421e-06
8.15434e-06
7.56018e-06
7.33229e-06
7.3692e-06
7.52358e-06
7.61621e-06
7.5039e-06
7.17102e-06
6.7555e-06
6.502e-06
6.76033e-06
8.13203e-06
1.08641e-05
6.06379e-06
1.98729e-06
1.52098e-07
8.76969e-08
2.67862e-06
6.68406e-06
1.45553e-05
2.62965e-05
3.49887e-05
3.77766e-05
3.67163e-05
3.35543e-05
2.96131e-05
2.57711e-05
2.24243e-05
1.96341e-05
1.73078e-05
1.53192e-05
1.35627e-05
1.19716e-05
1.05216e-05
9.23331e-06
8.18359e-06
7.49638e-06
7.18285e-06
7.1477e-06
7.25332e-06
7.33312e-06
7.25073e-06
6.98333e-06
6.65134e-06
6.4853e-06
6.83699e-06
8.32404e-06
1.10801e-05
6.04648e-06
2.00343e-06
1.56588e-07
9.21159e-08
2.70207e-06
6.7557e-06
1.47739e-05
2.66787e-05
3.53018e-05
3.79598e-05
3.68082e-05
3.36036e-05
2.96729e-05
2.58735e-05
2.25781e-05
1.98348e-05
1.75448e-05
1.55785e-05
1.38272e-05
1.2221e-05
1.07334e-05
9.38506e-06
8.25436e-06
7.46936e-06
7.06444e-06
6.9511e-06
7.00159e-06
7.06215e-06
7.00374e-06
6.7971e-06
6.54563e-06
6.46587e-06
6.91135e-06
8.51474e-06
1.12869e-05
6.03451e-06
2.01977e-06
1.60947e-07
9.6609e-08
2.72571e-06
6.82853e-06
1.4996e-05
2.70596e-05
3.56006e-05
3.81316e-05
3.69019e-05
3.3667e-05
2.97543e-05
2.60012e-05
2.27597e-05
2.00657e-05
1.78153e-05
1.58754e-05
1.41339e-05
1.25169e-05
1.09945e-05
9.58589e-06
8.3707e-06
7.48049e-06
6.97614e-06
6.77687e-06
6.76503e-06
6.7997e-06
6.75942e-06
6.60898e-06
6.43529e-06
6.44113e-06
6.9817e-06
8.70402e-06
1.14907e-05
6.0333e-06
2.03739e-06
1.65204e-07
1.01071e-07
2.74843e-06
6.90107e-06
1.52194e-05
2.74313e-05
3.58816e-05
3.82839e-05
3.69761e-05
3.37227e-05
2.9826e-05
2.61176e-05
2.29327e-05
2.02941e-05
1.8091e-05
1.61865e-05
1.44642e-05
1.28453e-05
1.12952e-05
9.83054e-06
8.53135e-06
7.53311e-06
6.92422e-06
6.63352e-06
6.55336e-06
6.55553e-06
6.52636e-06
6.42565e-06
6.32484e-06
6.4134e-06
7.04807e-06
8.88895e-06
1.16836e-05
6.03526e-06
2.05494e-06
1.69327e-07
1.05603e-07
2.77107e-06
6.97527e-06
1.54511e-05
2.77977e-05
3.61494e-05
3.84237e-05
3.70415e-05
3.37742e-05
2.99011e-05
2.62438e-05
2.31198e-05
2.05397e-05
1.83875e-05
1.65231e-05
1.48258e-05
1.32111e-05
1.16389e-05
1.01215e-05
8.73835e-06
7.62861e-06
6.909e-06
6.52045e-06
6.36543e-06
6.32818e-06
6.30298e-06
6.2454e-06
6.21245e-06
6.38078e-06
7.10847e-06
9.06838e-06
1.18708e-05
6.04283e-06
2.07278e-06
1.73331e-07
1.10086e-07
2.79212e-06
7.04595e-06
1.56762e-05
2.81491e-05
3.63949e-05
3.85399e-05
3.70834e-05
3.38039e-05
2.99596e-05
2.63555e-05
2.32944e-05
2.07774e-05
1.86834e-05
1.68678e-05
1.52052e-05
1.36046e-05
1.20189e-05
1.0455e-05
8.99138e-06
7.77076e-06
6.93645e-06
6.4451e-06
6.20944e-06
6.12589e-06
6.09675e-06
6.07454e-06
6.10325e-06
6.3475e-06
7.16692e-06
9.2473e-06
1.20573e-05
6.05455e-06
2.09062e-06
1.77195e-07
1.14639e-07
2.81344e-06
7.11805e-06
1.59048e-05
2.84975e-05
3.66295e-05
3.86446e-05
3.71156e-05
3.38271e-05
3.00219e-05
2.64705e-05
2.34717e-05
2.10201e-05
1.89879e-05
1.72263e-05
1.56048e-05
1.40257e-05
1.24342e-05
1.08304e-05
9.29038e-06
7.9604e-06
7.00687e-06
6.40733e-06
6.08522e-06
5.9485e-06
5.90744e-06
5.91243e-06
5.99587e-06
6.31132e-06
7.22051e-06
9.42275e-06
1.22382e-05
6.0709e-06
2.10841e-06
1.80922e-07
1.1914e-07
2.8335e-06
7.18766e-06
1.61284e-05
2.88309e-05
3.68411e-05
3.8724e-05
3.71205e-05
3.38212e-05
3.00539e-05
2.65596e-05
2.36298e-05
2.12504e-05
1.92874e-05
1.75877e-05
1.6016e-05
1.44678e-05
1.28798e-05
1.12441e-05
9.63367e-06
8.19824e-06
7.12295e-06
6.41136e-06
5.99801e-06
5.80184e-06
5.74099e-06
5.7648e-06
5.89592e-06
6.27831e-06
7.27714e-06
9.60557e-06
1.24197e-05
6.09327e-06
2.12664e-06
1.845e-07
1.23705e-07
2.85398e-06
7.25901e-06
1.63559e-05
2.91623e-05
3.70431e-05
3.87924e-05
3.71154e-05
3.38072e-05
3.008e-05
2.66444e-05
2.37847e-05
2.14788e-05
1.95872e-05
1.79531e-05
1.6437e-05
1.49274e-05
1.33514e-05
1.16921e-05
1.00177e-05
8.48083e-06
7.28201e-06
6.45528e-06
5.94657e-06
5.68527e-06
5.59717e-06
5.63153e-06
5.80302e-06
6.24756e-06
7.33477e-06
9.79118e-06
1.26007e-05
6.12008e-06
2.14522e-06
1.87924e-07
1.28219e-07
2.8737e-06
7.32899e-06
1.65794e-05
2.94784e-05
3.72221e-05
3.88351e-05
3.70822e-05
3.37638e-05
3.00777e-05
2.67046e-05
2.392e-05
2.16928e-05
1.98781e-05
1.83161e-05
1.68629e-05
1.54002e-05
1.38452e-05
1.21708e-05
1.04391e-05
8.80513e-06
7.48297e-06
6.53963e-06
5.93279e-06
5.60173e-06
5.47972e-06
5.51686e-06
5.72163e-06
6.2236e-06
7.39757e-06
9.98249e-06
1.2781e-05
6.14956e-06
2.16392e-06
1.91177e-07
1.32786e-07
2.89403e-06
7.40146e-06
1.68065e-05
2.97913e-05
3.73905e-05
3.88653e-05
3.70363e-05
3.37084e-05
3.00646e-05
2.67562e-05
2.40475e-05
2.18995e-05
2.01631e-05
1.86758e-05
1.72902e-05
1.5881e-05
1.43554e-05
1.26745e-05
1.08929e-05
9.16671e-06
7.72239e-06
6.66164e-06
5.95447e-06
5.54981e-06
5.38806e-06
5.42084e-06
5.65216e-06
6.20679e-06
7.4656e-06
1.0179e-05
1.29609e-05
6.1816e-06
2.18266e-06
1.94256e-07
1.37299e-07
2.91394e-06
7.47442e-06
1.70282e-05
3.0087e-05
3.75358e-05
3.88703e-05
3.69632e-05
3.36247e-05
3.00244e-05
2.67864e-05
2.4157e-05
2.20914e-05
2.04372e-05
1.90294e-05
1.77168e-05
1.63677e-05
1.4879e-05
1.31997e-05
1.13754e-05
9.56223e-06
7.9984e-06
6.82061e-06
6.01179e-06
5.5304e-06
5.32372e-06
5.34542e-06
5.59642e-06
6.19822e-06
7.53888e-06
1.03804e-05
1.31381e-05
6.21464e-06
2.2012e-06
1.97149e-07
1.41804e-07
2.9334e-06
7.54735e-06
1.72499e-05
3.03772e-05
3.76695e-05
3.88611e-05
3.68757e-05
3.35275e-05
2.99709e-05
2.68058e-05
2.42555e-05
2.22726e-05
2.07022e-05
1.93763e-05
1.81401e-05
1.68559e-05
1.54106e-05
1.37407e-05
1.18813e-05
9.98713e-06
8.3075e-06
7.01381e-06
6.10255e-06
5.5418e-06
5.28559e-06
5.29022e-06
5.55498e-06
6.20026e-06
7.62288e-06
1.05878e-05
1.33139e-05
6.24883e-06
2.21947e-06
1.99863e-07
1.46202e-07
2.95163e-06
7.61681e-06
1.74643e-05
3.06523e-05
3.77829e-05
3.88286e-05
3.676e-05
3.33989e-05
2.98872e-05
2.67992e-05
2.43338e-05
2.24385e-05
2.09559e-05
1.97157e-05
1.85598e-05
1.73448e-05
1.59484e-05
1.42941e-05
1.24065e-05
1.04375e-05
8.64694e-06
7.23963e-06
6.22608e-06
5.58407e-06
5.27442e-06
5.25658e-06
5.52957e-06
6.21427e-06
7.71699e-06
1.08025e-05
1.34882e-05
6.28387e-06
2.23742e-06
2.02395e-07
1.50594e-07
2.9696e-06
7.687e-06
1.76831e-05
3.09252e-05
3.78867e-05
3.8785e-05
3.6635e-05
3.32625e-05
2.97938e-05
2.67772e-05
2.43943e-05
2.25896e-05
2.1198e-05
2.00456e-05
1.89726e-05
1.78306e-05
1.64878e-05
1.48553e-05
1.2946e-05
1.09087e-05
9.01276e-06
7.4948e-06
6.37979e-06
5.65531e-06
5.28901e-06
5.24393e-06
5.51994e-06
6.23975e-06
7.81984e-06
1.10231e-05
1.36612e-05
6.32004e-06
2.25507e-06
2.04755e-07
1.54898e-07
2.98679e-06
7.75516e-06
1.78963e-05
3.11826e-05
3.79703e-05
3.8718e-05
3.64828e-05
3.30977e-05
2.96749e-05
2.67364e-05
2.44407e-05
2.27254e-05
2.14266e-05
2.03663e-05
1.93798e-05
1.83142e-05
1.70291e-05
1.54233e-05
1.3498e-05
1.13982e-05
9.40265e-06
7.77744e-06
6.56229e-06
5.75468e-06
5.32906e-06
5.25248e-06
5.52659e-06
6.27715e-06
7.93158e-06
1.12497e-05
1.3833e-05
6.35724e-06
2.27244e-06
2.06952e-07
1.59152e-07
3.00341e-06
7.82259e-06
1.81092e-05
3.14324e-05
3.80407e-05
3.86366e-05
3.63167e-05
3.29195e-05
2.95417e-05
2.66798e-05
2.44724e-05
2.28494e-05
2.16423e-05
2.06738e-05
1.97766e-05
1.87908e-05
1.75676e-05
1.59933e-05
1.40579e-05
1.1902e-05
9.81312e-06
8.08464e-06
6.77118e-06
5.88024e-06
5.39321e-06
5.2814e-06
5.54903e-06
6.32597e-06
8.05143e-06
1.14813e-05
1.40039e-05
6.39558e-06
2.28954e-06
2.08994e-07
1.63329e-07
3.01946e-06
7.88879e-06
1.83186e-05
3.16687e-05
3.8092e-05
3.85333e-05
3.6127e-05
3.2718e-05
2.93872e-05
2.66047e-05
2.44883e-05
2.29605e-05
2.18487e-05
2.0973e-05
2.01656e-05
1.9262e-05
1.81036e-05
1.65648e-05
1.46241e-05
1.24177e-05
1.02418e-05
8.41424e-06
7.00467e-06
6.0307e-06
5.48072e-06
5.33046e-06
5.58739e-06
6.38648e-06
8.17944e-06
1.17173e-05
1.4174e-05
6.43502e-06
2.30638e-06
2.10891e-07
1.67432e-07
3.03489e-06
7.95367e-06
1.85254e-05
3.18941e-05
3.81281e-05
3.84137e-05
3.59207e-05
3.25003e-05
2.92169e-05
2.65139e-05
2.44892e-05
2.30571e-05
2.20414e-05
2.12602e-05
2.05431e-05
1.9723e-05
1.86326e-05
1.71334e-05
1.51924e-05
1.29419e-05
1.06855e-05
8.76366e-06
7.26055e-06
6.20423e-06
5.59021e-06
5.39885e-06
5.64131e-06
6.45849e-06
8.31527e-06
1.19572e-05
1.43437e-05
6.47557e-06
2.32295e-06
2.12653e-07
1.71426e-07
3.04955e-06
8.01663e-06
1.87273e-05
3.21052e-05
3.81456e-05
3.82735e-05
3.56934e-05
3.22633e-05
2.90294e-05
2.6408e-05
2.44771e-05
2.31422e-05
2.22234e-05
2.15374e-05
2.09118e-05
2.01751e-05
1.91541e-05
1.76976e-05
1.57608e-05
1.34718e-05
1.11418e-05
9.13066e-06
7.53694e-06
6.39934e-06
5.72066e-06
5.48605e-06
5.71079e-06
6.54231e-06
8.45923e-06
1.22009e-05
1.45132e-05
6.51731e-06
2.3393e-06
2.14289e-07
1.75328e-07
3.06355e-06
8.07799e-06
1.89254e-05
3.2304e-05
3.8147e-05
3.81159e-05
3.54485e-05
3.20095e-05
2.88264e-05
2.62876e-05
2.44514e-05
2.32142e-05
2.23926e-05
2.18021e-05
2.12685e-05
2.06162e-05
1.96645e-05
1.82539e-05
1.63261e-05
1.40047e-05
1.16081e-05
9.51313e-06
7.83202e-06
6.61445e-06
5.87083e-06
5.59129e-06
5.79546e-06
6.63789e-06
8.61132e-06
1.24482e-05
1.46829e-05
6.56027e-06
2.35545e-06
2.15811e-07
1.79102e-07
3.0767e-06
8.13694e-06
1.91171e-05
3.24874e-05
3.81303e-05
3.79391e-05
3.51847e-05
3.1739e-05
2.86091e-05
2.61549e-05
2.44153e-05
2.32767e-05
2.25522e-05
2.20565e-05
2.16141e-05
2.10461e-05
2.01645e-05
1.87994e-05
1.68845e-05
1.45371e-05
1.20814e-05
9.90871e-06
8.14389e-06
6.84808e-06
6.03968e-06
5.71401e-06
5.89534e-06
6.74567e-06
8.77216e-06
1.26995e-05
1.48535e-05
6.60464e-06
2.37144e-06
2.17231e-07
1.82763e-07
3.08909e-06
8.19385e-06
1.93038e-05
3.26577e-05
3.80969e-05
3.77437e-05
3.49022e-05
3.14515e-05
2.8377e-05
2.60092e-05
2.43678e-05
2.33287e-05
2.27016e-05
2.23002e-05
2.19482e-05
2.14636e-05
2.0652e-05
1.93342e-05
1.74348e-05
1.50672e-05
1.25601e-05
1.03158e-05
8.47108e-06
7.09885e-06
6.22596e-06
5.85324e-06
6.00981e-06
6.86542e-06
8.94176e-06
1.29546e-05
1.50252e-05
6.6505e-06
2.38734e-06
2.18559e-07
1.86293e-07
3.10063e-06
8.24825e-06
1.94839e-05
3.28129e-05
3.80458e-05
3.75291e-05
3.4601e-05
3.11479e-05
2.81317e-05
2.58527e-05
2.43115e-05
2.33729e-05
2.28431e-05
2.25352e-05
2.22721e-05
2.18688e-05
2.11256e-05
1.98551e-05
1.79736e-05
1.55919e-05
1.30416e-05
1.07325e-05
8.81219e-06
7.36573e-06
6.42893e-06
6.00856e-06
6.13881e-06
6.99744e-06
9.12058e-06
1.32141e-05
1.51988e-05
6.6981e-06
2.40319e-06
2.19811e-07
1.89702e-07
3.1114e-06
8.30044e-06
1.96586e-05
3.29546e-05
3.79771e-05
3.72946e-05
3.428e-05
3.0827e-05
2.7872e-05
2.56843e-05
2.42454e-05
2.34088e-05
2.29769e-05
2.27623e-05
2.25867e-05
2.22629e-05
2.15863e-05
2.03622e-05
1.85004e-05
1.61087e-05
1.35236e-05
1.11567e-05
9.16557e-06
7.64738e-06
6.64751e-06
6.17909e-06
6.28176e-06
7.14147e-06
9.30866e-06
1.34779e-05
1.53749e-05
6.74756e-06
2.41906e-06
2.20997e-07
1.92987e-07
3.1214e-06
8.35037e-06
1.98275e-05
3.3082e-05
3.789e-05
3.70395e-05
3.39393e-05
3.04896e-05
2.75992e-05
2.55054e-05
2.4171e-05
2.34378e-05
2.31044e-05
2.29825e-05
2.28929e-05
2.26461e-05
2.20332e-05
2.08541e-05
1.90134e-05
1.66174e-05
1.40053e-05
1.15875e-05
9.53039e-06
7.94315e-06
6.88117e-06
6.36454e-06
6.43864e-06
7.29778e-06
9.50648e-06
1.37467e-05
1.55544e-05
6.79909e-06
2.43501e-06
2.22132e-07
1.96155e-07
3.13063e-06
8.39804e-06
1.99909e-05
3.31955e-05
3.77843e-05
3.67629e-05
3.35778e-05
3.01346e-05
2.73123e-05
2.53152e-05
2.40877e-05
2.34596e-05
2.32258e-05
2.31968e-05
2.31922e-05
2.30202e-05
2.2468e-05
2.13313e-05
1.95118e-05
1.71158e-05
1.44847e-05
1.20232e-05
9.9052e-06
8.25202e-06
7.12926e-06
6.5644e-06
6.60903e-06
7.46623e-06
9.71409e-06
1.40207e-05
1.57377e-05
6.85288e-06
2.45112e-06
2.23231e-07
1.99209e-07
3.13918e-06
8.4437e-06
2.01491e-05
3.3295e-05
3.76591e-05
3.6464e-05
3.31954e-05
2.97629e-05
2.70125e-05
2.51147e-05
2.39963e-05
2.34748e-05
2.33413e-05
2.34053e-05
2.34847e-05
2.33851e-05
2.28904e-05
2.17933e-05
1.99946e-05
1.76023e-05
1.49596e-05
1.24612e-05
1.02882e-05
8.57288e-06
7.39114e-06
6.7785e-06
6.79343e-06
7.64821e-06
9.93215e-06
1.43004e-05
1.59259e-05
6.90923e-06
2.46747e-06
2.24311e-07
2.02148e-07
3.14696e-06
8.48701e-06
2.03013e-05
3.33799e-05
3.75143e-05
3.61426e-05
3.27921e-05
2.93746e-05
2.66999e-05
2.49041e-05
2.38967e-05
2.34833e-05
2.34513e-05
2.36087e-05
2.37715e-05
2.37422e-05
2.33017e-05
2.22407e-05
2.04613e-05
1.80754e-05
1.54279e-05
1.28995e-05
1.06773e-05
8.90401e-06
7.66571e-06
7.00627e-06
6.99163e-06
7.84351e-06
1.01616e-05
1.4587e-05
1.61191e-05
6.96817e-06
2.48414e-06
2.25385e-07
2.04982e-07
3.15412e-06
8.52844e-06
2.04485e-05
3.34506e-05
3.73491e-05
3.57983e-05
3.23686e-05
2.8971e-05
2.63761e-05
2.46846e-05
2.37897e-05
2.34853e-05
2.35553e-05
2.38063e-05
2.40518e-05
2.4091e-05
2.37016e-05
2.26734e-05
2.09118e-05
1.85343e-05
1.58879e-05
1.33362e-05
1.10709e-05
9.24414e-06
7.95217e-06
7.24739e-06
7.20359e-06
8.0522e-06
1.04028e-05
1.48809e-05
1.63186e-05
7.03006e-06
2.50119e-06
2.26466e-07
2.07712e-07
3.16055e-06
8.56757e-06
2.05896e-05
3.35062e-05
3.71635e-05
3.54314e-05
3.19258e-05
2.85536e-05
2.60422e-05
2.44571e-05
2.36758e-05
2.3481e-05
2.36534e-05
2.3998e-05
2.43256e-05
2.44316e-05
2.40902e-05
2.30913e-05
2.13453e-05
1.89775e-05
1.63374e-05
1.37686e-05
1.14661e-05
9.59097e-06
8.2489e-06
7.50087e-06
7.42896e-06
8.27466e-06
1.06571e-05
1.51841e-05
1.65245e-05
7.09481e-06
2.5187e-06
2.27566e-07
2.10348e-07
3.1664e-06
8.60493e-06
2.07259e-05
3.35468e-05
3.6957e-05
3.50428e-05
3.14657e-05
2.81246e-05
2.57006e-05
2.42235e-05
2.35563e-05
2.34708e-05
2.37452e-05
2.4183e-05
2.45921e-05
2.47631e-05
2.4467e-05
2.34942e-05
2.17618e-05
1.94047e-05
1.67752e-05
1.41951e-05
1.18616e-05
9.94351e-06
8.55519e-06
7.76626e-06
7.66726e-06
8.51023e-06
1.09239e-05
1.54956e-05
1.67364e-05
7.16263e-06
2.53671e-06
2.28693e-07
2.12895e-07
3.17156e-06
8.6402e-06
2.08565e-05
3.35719e-05
3.67296e-05
3.46329e-05
3.09898e-05
2.76857e-05
2.53529e-05
2.39855e-05
2.3432e-05
2.34549e-05
2.38304e-05
2.43608e-05
2.48503e-05
2.50848e-05
2.48314e-05
2.38816e-05
2.21608e-05
1.98152e-05
1.72001e-05
1.46136e-05
1.22547e-05
1.02987e-05
8.86825e-06
8.04153e-06
7.91755e-06
8.75923e-06
1.12047e-05
1.58179e-05
1.69544e-05
7.23316e-06
2.55525e-06
2.29851e-07
2.15358e-07
3.17612e-06
8.67351e-06
2.09812e-05
3.3581e-05
3.64817e-05
3.42037e-05
3.05008e-05
2.72398e-05
2.50015e-05
2.37463e-05
2.33049e-05
2.34338e-05
2.39087e-05
2.45304e-05
2.50992e-05
2.53956e-05
2.51825e-05
2.42531e-05
2.25424e-05
2.02089e-05
1.76111e-05
1.50227e-05
1.26439e-05
1.06555e-05
9.18761e-06
8.32623e-06
8.17951e-06
9.02157e-06
1.14995e-05
1.61507e-05
1.71779e-05
7.3065e-06
2.57435e-06
2.31044e-07
2.17738e-07
3.17998e-06
8.70473e-06
2.11002e-05
3.35738e-05
3.6213e-05
3.37553e-05
2.99995e-05
2.67879e-05
2.46469e-05
2.35055e-05
2.31746e-05
2.34073e-05
2.39798e-05
2.46915e-05
2.53384e-05
2.56949e-05
2.55199e-05
2.46088e-05
2.2907e-05
2.05867e-05
1.80085e-05
1.54219e-05
1.30278e-05
1.10119e-05
9.51078e-06
8.61822e-06
8.45187e-06
9.29708e-06
1.18092e-05
1.64954e-05
1.74069e-05
7.38244e-06
2.59403e-06
2.32278e-07
2.20034e-07
3.1831e-06
8.73339e-06
2.12118e-05
3.35504e-05
3.5925e-05
3.32903e-05
2.94891e-05
2.63327e-05
2.42913e-05
2.32629e-05
2.30409e-05
2.33758e-05
2.40442e-05
2.4844e-05
2.55669e-05
2.59815e-05
2.58425e-05
2.49479e-05
2.32548e-05
2.09494e-05
1.8392e-05
1.581e-05
1.34048e-05
1.13664e-05
9.83696e-06
8.9175e-06
8.73452e-06
9.58571e-06
1.2134e-05
1.68519e-05
1.76404e-05
7.46079e-06
2.6143e-06
2.3355e-07
2.22249e-07
3.18548e-06
8.75978e-06
2.1317e-05
3.35105e-05
3.56164e-05
3.28077e-05
2.89694e-05
2.58752e-05
2.39365e-05
2.30218e-05
2.29078e-05
2.33427e-05
2.41043e-05
2.49896e-05
2.57859e-05
2.6256e-05
2.61507e-05
2.52715e-05
2.35879e-05
2.13002e-05
1.87636e-05
1.61878e-05
1.3775e-05
1.17183e-05
1.01648e-05
9.22222e-06
9.02606e-06
9.88696e-06
1.2474e-05
1.72208e-05
1.78784e-05
7.54166e-06
2.63523e-06
2.34869e-07
2.24391e-07
3.18707e-06
8.78355e-06
2.14153e-05
3.34549e-05
3.52887e-05
3.23091e-05
2.84419e-05
2.54161e-05
2.35827e-05
2.27819e-05
2.27748e-05
2.3308e-05
2.41606e-05
2.51286e-05
2.59953e-05
2.65179e-05
2.64441e-05
2.55796e-05
2.39074e-05
2.16411e-05
1.91244e-05
1.65554e-05
1.41377e-05
1.20667e-05
1.04936e-05
9.53211e-06
9.32688e-06
1.02008e-05
1.28293e-05
1.76017e-05
1.81197e-05
7.6245e-06
2.65673e-06
2.36229e-07
2.26469e-07
3.18799e-06
8.80535e-06
2.15082e-05
3.33834e-05
3.49399e-05
3.17931e-05
2.79062e-05
2.4956e-05
2.32314e-05
2.25457e-05
2.26454e-05
2.32757e-05
2.42173e-05
2.52648e-05
2.6198e-05
2.67692e-05
2.67237e-05
2.58728e-05
2.42138e-05
2.19729e-05
1.94753e-05
1.69135e-05
1.44929e-05
1.24111e-05
1.08223e-05
9.84611e-06
9.63583e-06
1.05269e-05
1.32e-05
1.79948e-05
1.83642e-05
7.70945e-06
2.67888e-06
2.37633e-07
2.285e-07
3.18831e-06
8.82548e-06
2.15969e-05
3.32969e-05
3.45705e-05
3.12601e-05
2.73625e-05
2.44945e-05
2.28817e-05
2.23124e-05
2.25193e-05
2.32466e-05
2.42757e-05
2.54002e-05
2.63963e-05
2.70119e-05
2.69908e-05
2.61518e-05
2.45071e-05
2.22943e-05
1.98162e-05
1.72624e-05
1.4841e-05
1.27516e-05
1.1151e-05
1.01641e-05
9.95299e-06
1.08656e-05
1.35859e-05
1.83997e-05
1.86111e-05
7.79608e-06
2.70159e-06
2.39076e-07
2.30498e-07
3.18818e-06
8.84458e-06
2.16825e-05
3.31947e-05
3.4179e-05
3.07098e-05
2.68115e-05
2.40326e-05
2.25346e-05
2.20832e-05
2.23981e-05
2.32225e-05
2.43385e-05
2.55379e-05
2.65933e-05
2.72484e-05
2.72473e-05
2.64172e-05
2.47869e-05
2.26038e-05
2.01456e-05
1.76012e-05
1.51815e-05
1.30877e-05
1.14789e-05
1.04851e-05
1.02775e-05
1.12164e-05
1.39871e-05
1.88156e-05
1.886e-05
7.88436e-06
2.72489e-06
2.40561e-07
2.32477e-07
3.18776e-06
8.8633e-06
2.17664e-05
3.30769e-05
3.37653e-05
3.01433e-05
2.62546e-05
2.35707e-05
2.21899e-05
2.18571e-05
2.22808e-05
2.32033e-05
2.44064e-05
2.56798e-05
2.67915e-05
2.74817e-05
2.74958e-05
2.66715e-05
2.50545e-05
2.29018e-05
2.04641e-05
1.79304e-05
1.55146e-05
1.34193e-05
1.18061e-05
1.08095e-05
1.06096e-05
1.15794e-05
1.44038e-05
1.92425e-05
1.91104e-05
7.97389e-06
2.7487e-06
2.42081e-07
2.34436e-07
3.18708e-06
8.88166e-06
2.1848e-05
3.29424e-05
3.33304e-05
2.95633e-05
2.56948e-05
2.31113e-05
2.18486e-05
2.16341e-05
2.21665e-05
2.31874e-05
2.44782e-05
2.5825e-05
2.69909e-05
2.77124e-05
2.77371e-05
2.6915e-05
2.53102e-05
2.31873e-05
2.07705e-05
1.82493e-05
1.584e-05
1.37464e-05
1.21321e-05
1.11366e-05
1.09488e-05
1.19546e-05
1.48361e-05
1.96806e-05
1.93619e-05
8.0645e-06
2.77299e-06
2.43635e-07
2.36369e-07
3.18616e-06
8.89973e-06
2.19268e-05
3.27906e-05
3.28751e-05
2.89727e-05
2.51353e-05
2.26568e-05
2.15123e-05
2.14145e-05
2.20542e-05
2.31733e-05
2.45522e-05
2.59726e-05
2.71916e-05
2.79415e-05
2.79733e-05
2.71506e-05
2.55568e-05
2.3462e-05
2.10657e-05
1.85583e-05
1.61582e-05
1.40696e-05
1.24575e-05
1.14663e-05
1.12944e-05
1.23408e-05
1.52823e-05
2.01277e-05
1.96138e-05
8.15615e-06
2.79774e-06
2.45224e-07
2.38253e-07
3.18482e-06
8.91658e-06
2.20003e-05
3.26207e-05
3.24016e-05
2.8375e-05
2.45794e-05
2.22098e-05
2.11828e-05
2.11989e-05
2.1943e-05
2.31583e-05
2.46247e-05
2.61188e-05
2.73904e-05
2.81672e-05
2.82038e-05
2.73789e-05
2.57959e-05
2.37257e-05
2.13483e-05
1.88555e-05
1.64672e-05
1.43872e-05
1.27814e-05
1.17987e-05
1.16474e-05
1.27395e-05
1.57442e-05
2.05852e-05
1.98655e-05
8.24839e-06
2.82292e-06
2.46854e-07
2.40065e-07
3.18289e-06
8.93153e-06
2.2067e-05
3.24322e-05
3.19107e-05
2.7772e-05
2.4029e-05
2.17726e-05
2.0863e-05
2.09895e-05
2.18338e-05
2.31421e-05
2.46942e-05
2.62613e-05
2.75854e-05
2.83885e-05
2.84294e-05
2.76029e-05
2.60318e-05
2.39818e-05
2.16201e-05
1.91416e-05
1.67667e-05
1.46982e-05
1.31023e-05
1.21322e-05
1.20059e-05
1.3149e-05
1.62198e-05
2.10505e-05
2.01149e-05
8.34027e-06
2.84828e-06
2.48514e-07
2.41788e-07
3.18014e-06
8.94365e-06
2.21252e-05
3.22252e-05
3.14026e-05
2.71638e-05
2.3484e-05
2.13454e-05
2.0556e-05
2.07891e-05
2.17284e-05
2.31253e-05
2.47601e-05
2.63985e-05
2.7774e-05
2.86031e-05
2.86486e-05
2.78223e-05
2.62651e-05
2.42308e-05
2.18816e-05
1.94163e-05
1.70563e-05
1.50025e-05
1.34209e-05
1.24681e-05
1.23723e-05
1.35715e-05
1.67106e-05
2.15241e-05
2.03627e-05
8.432e-06
2.87387e-06
2.50212e-07
2.43418e-07
3.17649e-06
8.95271e-06
2.21752e-05
3.1999e-05
3.08748e-05
2.65476e-05
2.29421e-05
2.09264e-05
2.02595e-05
2.05978e-05
2.16296e-05
2.3112e-05
2.4826e-05
2.65327e-05
2.79576e-05
2.88118e-05
2.88624e-05
2.8038e-05
2.64964e-05
2.44742e-05
2.21343e-05
1.96812e-05
1.73367e-05
1.52998e-05
1.37354e-05
1.2804e-05
1.27434e-05
1.40044e-05
1.72143e-05
2.20036e-05
2.06076e-05
8.52313e-06
2.89957e-06
2.51947e-07
2.44973e-07
3.17197e-06
8.95887e-06
2.2218e-05
3.17529e-05
3.03237e-05
2.59194e-05
2.23999e-05
2.05139e-05
1.9973e-05
2.04184e-05
2.15424e-05
2.3108e-05
2.48975e-05
2.66683e-05
2.81391e-05
2.9016e-05
2.9071e-05
2.82496e-05
2.67241e-05
2.47111e-05
2.23782e-05
1.9936e-05
1.76076e-05
1.55896e-05
1.4046e-05
1.31407e-05
1.31214e-05
1.44484e-05
1.77309e-05
2.24887e-05
2.08496e-05
8.61356e-06
2.92536e-06
2.53728e-07