/*--------------------------------*- C++ -*----------------------------------*\
| =========                 |                                                 |
| \\      /  F ield         | OpenFOAM: The Open Source CFD Toolbox           |
|  \\    /   O peration     | Version:  v1906                                 |
|   \\  /    A nd           | Web:      www.OpenFOAM.com                      |
|    \\/     M anipulation  |                                                 |
\*---------------------------------------------------------------------------*/
FoamFile
{
    version     2.0;
    format      ascii;
    class       volScalarField;
    location    "91";
    object      k;
}
// * * * * * * * * * * * * * * * * * * * * * * * * * * * * * * * * * * * * * //

dimensions      [0 2 -2 0 0 0 0];


internalField   nonuniform List<scalar> 
78750
(
1.16578e-06
4.38762e-06
7.55713e-06
1.07111e-05
1.37862e-05
1.67097e-05
1.94353e-05
2.19336e-05
2.41861e-05
2.61829e-05
2.79195e-05
2.93959e-05
3.06151e-05
3.15825e-05
3.23045e-05
3.27761e-05
3.30051e-05
3.30003e-05
3.27694e-05
3.23182e-05
3.16606e-05
3.07802e-05
2.96845e-05
2.83735e-05
2.68437e-05
2.50888e-05
2.31013e-05
2.08637e-05
1.8365e-05
1.55955e-05
1.25362e-05
9.21153e-06
5.89503e-06
3.23353e-06
1.7945e-06
1.60253e-06
1.51731e-05
2.77457e-05
3.911e-05
4.92019e-05
5.80352e-05
6.56392e-05
7.20545e-05
7.73437e-05
8.15835e-05
8.48554e-05
8.72406e-05
8.88176e-05
8.96627e-05
8.98561e-05
8.94851e-05
8.86119e-05
8.72933e-05
8.55825e-05
8.35286e-05
8.11761e-05
7.85447e-05
7.56631e-05
7.25473e-05
6.92004e-05
6.56169e-05
6.18009e-05
5.77162e-05
5.32306e-05
4.81336e-05
4.20692e-05
3.45991e-05
2.59321e-05
1.76439e-05
1.1687e-05
2.58812e-06
2.24349e-05
4.059e-05
5.66334e-05
7.01976e-05
8.12969e-05
9.02084e-05
9.72617e-05
0.000102731
0.000106825
0.00010971
0.000111522
0.000112382
0.000112399
0.000111676
0.000110313
0.000108405
0.000106049
0.000103338
0.000100365
9.7211e-05
9.39435e-05
9.06053e-05
8.72117e-05
8.37434e-05
8.01508e-05
7.63571e-05
7.22509e-05
6.76517e-05
6.22476e-05
5.5537e-05
4.7057e-05
3.73428e-05
2.76902e-05
1.99728e-05
4.41326e-06
2.95947e-05
5.24105e-05
7.19953e-05
8.7756e-05
9.98979e-05
0.000109078
0.00011593
0.000120903
0.000124297
0.000126327
0.000127155
0.000126915
0.000125726
0.0001237
0.000120957
0.000117621
0.000113828
0.000109728
0.00010548
0.000101249
9.71915e-05
9.34222e-05
8.99848e-05
8.68373e-05
8.3858e-05
8.08608e-05
7.76036e-05
7.37721e-05
6.89293e-05
6.25095e-05
5.41748e-05
4.47562e-05
3.49498e-05
2.60654e-05
6.49167e-06
3.65241e-05
6.33847e-05
8.57241e-05
0.000102828
0.0001153
0.000124282
0.000130692
0.000135096
0.00013783
0.000139103
0.000139054
0.000137787
0.000135402
0.000132011
0.000127751
0.000122786
0.00011731
0.000111539
0.000105717
0.000100109
9.4988e-05
9.05731e-05
8.69591e-05
8.41048e-05
8.18465e-05
7.99082e-05
7.7912e-05
7.5379e-05
7.17133e-05
6.62629e-05
5.8761e-05
5.00393e-05
4.02865e-05
3.02895e-05
8.74685e-06
4.30232e-05
7.32943e-05
9.77904e-05
0.000115805
0.000128436
0.000137281
0.000143447
0.000147524
0.000149822
0.000150507
0.000149675
0.000147401
0.000143776
0.000138931
0.000133047
0.000126354
0.000119118
0.000111637
0.000104242
9.73043e-05
9.12021e-05
8.61946e-05
8.23568e-05
7.96298e-05
7.78443e-05
7.67058e-05
7.5779e-05
7.44798e-05
7.2082e-05
6.78335e-05
6.14517e-05
5.35349e-05
4.39111e-05
3.31326e-05
1.09129e-05
4.87543e-05
8.18513e-05
0.000108123
0.000126925
0.000139789
0.00014864
0.000154689
0.000158531
0.000160453
0.000160584
0.000158985
0.000155712
0.000150862
0.000144603
0.000137177
0.000128881
0.000120055
0.000111075
0.000102358
9.43744e-05
8.75708e-05
8.21551e-05
7.81322e-05
7.54234e-05
7.38772e-05
7.3229e-05
7.30532e-05
7.27285e-05
7.14411e-05
6.83365e-05
6.30398e-05
5.58546e-05
4.63904e-05
3.526e-05
1.28451e-05
5.38159e-05
8.9423e-05
0.000117314
0.000136887
0.000150033
0.000158954
0.000164951
0.000168622
0.000170224
0.000169853
0.00016754
0.000163336
0.000157364
0.000149844
0.000141077
0.000131429
0.000121305
0.000111151
0.00010147
9.28285e-05
8.56399e-05
7.99584e-05
7.57132e-05
7.28221e-05
7.11801e-05
7.05991e-05
7.07286e-05
7.09795e-05
7.04994e-05
6.8333e-05
6.39611e-05
5.74288e-05
4.82415e-05
3.72439e-05
1.46319e-05
5.84718e-05
9.63906e-05
0.000125814
0.000146183
0.00015969
0.000168756
0.000174753
0.000178282
0.000179583
0.000178726
0.000175728
0.000170647
0.00016364
0.000154976
0.000145017
0.000134188
0.000122956
0.000111838
0.000101433
9.24003e-05
8.50401e-05
7.92465e-05
7.48686e-05
7.17963e-05
6.99454e-05
6.91984e-05
6.9307e-05
6.97726e-05
6.97722e-05
6.82879e-05
6.46524e-05
5.87084e-05
4.99348e-05
3.94416e-05
1.6275e-05
6.27651e-05
0.000102822
0.000133671
0.000154793
0.000168646
0.000177855
0.000183857
0.00018726
0.000188286
0.00018698
0.00018335
0.000177464
0.000169516
0.000159822
0.0001488
0.000136933
0.000124752
0.000112843
0.000101911
9.26858e-05
8.52942e-05
7.95004e-05
7.50851e-05
7.19009e-05
6.98602e-05
6.88857e-05
6.8815e-05
6.92578e-05
6.94687e-05
6.84251e-05
6.53499e-05
5.9933e-05
5.1659e-05
4.18489e-05
1.79225e-05
6.70217e-05
0.000109174
0.000141418
0.000163284
0.000177491
0.000186847
0.000192853
0.000196119
0.000196854
0.000195088
0.000190823
0.000184145
0.000175283
0.0001646
0.000152567
0.000139722
0.000126654
0.000114031
0.000102656
9.33221e-05
8.59824e-05
8.029e-05
7.59518e-05
7.27698e-05
7.06333e-05
6.94772e-05
6.91952e-05
6.94937e-05
6.97298e-05
6.89275e-05
6.62554e-05
6.1292e-05
5.35281e-05
4.4413e-05
1.95479e-05
7.1115e-05
0.000115221
0.000148743
0.000171279
0.000185807
0.0001953
0.000201313
0.000204457
0.000204926
0.000202731
0.00019787
0.000190448
0.000180725
0.000169109
0.000156121
0.000142352
0.000128452
0.000115155
0.000103381
9.39723e-05
8.67292e-05
8.12095e-05
7.70467e-05
7.39858e-05
7.18801e-05
7.06539e-05
7.02255e-05
7.03684e-05
7.05383e-05
6.98384e-05
6.74375e-05
6.28411e-05
5.55321e-05
4.70122e-05
2.12354e-05
7.52482e-05
0.000121282
0.00015605
0.000179235
0.00019407
0.000203694
0.000209706
0.000212719
0.00021291
0.000210281
0.00020483
0.000196679
0.000186121
0.000173607
0.000159698
0.000145036
0.000130325
0.000116367
0.000104182
9.46677e-05
8.75122e-05
8.21862e-05
7.82494e-05
7.539e-05
7.34176e-05
7.22314e-05
7.17495e-05
7.17816e-05
7.18599e-05
7.11774e-05
6.89422e-05
6.4619e-05
5.76677e-05
4.95909e-05
2.29416e-05
7.92951e-05
0.000127144
0.000163062
0.000186835
0.000201956
0.00021171
0.000217734
0.000220638
0.00022058
0.000217549
0.000211545
0.000202709
0.000191365
0.000177998
0.000163212
0.000147691
0.000132191
0.000117575
0.000104962
9.53206e-05
8.82367e-05
8.31108e-05
7.9432e-05
7.68315e-05
7.50738e-05
7.40258e-05
7.35897e-05
7.35859e-05
7.35964e-05
7.28957e-05
7.07525e-05
6.66147e-05
5.99074e-05
5.21043e-05
2.4697e-05
8.33364e-05
0.000132956
0.000169987
0.000194328
0.000209728
0.000219613
0.000225653
0.00022845
0.000228151
0.000224733
0.000218201
0.000208716
0.000196628
0.000182455
0.000166835
0.000150487
0.00013421
0.000118923
0.000105827
9.59892e-05
8.89335e-05
8.39847e-05
8.05723e-05
7.82677e-05
7.67869e-05
7.59585e-05
7.56578e-05
7.56965e-05
7.56816e-05
7.49527e-05
7.28473e-05
6.8813e-05
6.2234e-05
5.45467e-05
2.64786e-05
8.73347e-05
0.000138649
0.000176729
0.000201602
0.000217272
0.000227297
0.000233369
0.000236084
0.000235571
0.000231799
0.000224779
0.00021469
0.000201907
0.000186977
0.000170565
0.000153421
0.000136379
0.000120412
0.000106784
9.66813e-05
8.95967e-05
8.47942e-05
8.16387e-05
7.96455e-05
7.84821e-05
7.79357e-05
7.7847e-05
7.80046e-05
7.80195e-05
7.72756e-05
7.51778e-05
7.11825e-05
6.46297e-05
5.6918e-05
2.82866e-05
9.12797e-05
0.000144227
0.000183317
0.000208706
0.000224648
0.000234819
0.000240934
0.000243578
0.000242867
0.000238767
0.000231295
0.000220648
0.000207224
0.000191589
0.00017443
0.000156518
0.000138721
0.000122057
0.000107842
9.73982e-05
9.02233e-05
8.55295e-05
8.26216e-05
8.09553e-05
8.01461e-05
7.99372e-05
8.01285e-05
8.04748e-05
8.05738e-05
7.98355e-05
7.77239e-05
7.37093e-05
6.70854e-05
5.92225e-05
3.01228e-05
9.5212e-05
0.000149749
0.000189814
0.000215704
0.000231921
0.000242251
0.000248424
0.000251015
0.000250131
0.000245731
0.000237846
0.000226688
0.000212675
0.00019639
0.000178532
0.000159886
0.000141347
0.000123962
0.000109097
9.82113e-05
9.08567e-05
8.62052e-05
8.35077e-05
8.21614e-05
8.17263e-05
8.18957e-05
8.24231e-05
8.30207e-05
8.32585e-05
8.25556e-05
8.04244e-05
7.6351e-05
6.95822e-05
6.14683e-05
3.19685e-05
9.90629e-05
0.000155123
0.000196126
0.000222509
0.000239008
0.000249507
0.000255748
0.000258295
0.00025725
0.000252574
0.00024431
0.000232688
0.000218141
0.000201263
0.000182757
0.000163422
0.000144165
0.000126055
0.0001105
9.909e-05
9.14785e-05
8.68117e-05
8.42932e-05
8.32632e-05
8.32241e-05
8.38141e-05
8.4733e-05
8.5639e-05
8.60651e-05
8.54248e-05
8.32691e-05
7.91002e-05
7.21156e-05
6.36559e-05
3.38445e-05
0.000102918
0.000160478
0.000202413
0.000229298
0.000246093
0.000256774
0.000263089
0.000265598
0.000264402
0.000259471
0.000250862
0.000238822
0.000223796
0.000206385
0.000187289
0.00016731
0.000147357
0.00012851
0.000112202
0.000100148
9.21635e-05
8.73863e-05
8.49825e-05
8.42386e-05
8.45966e-05
8.56337e-05
8.69887e-05
8.82605e-05
8.89285e-05
8.83884e-05
8.62182e-05
8.1932e-05
7.46767e-05
6.57944e-05
3.57191e-05
0.00010667
0.000165662
0.000208504
0.000235904
0.000253022
0.000263895
0.000270275
0.000272734
0.000271385
0.000266212
0.000257288
0.000244875
0.000229426
0.000211541
0.000191919
0.000171353
0.000150748
0.000131182
0.000114107
0.000101334
9.28926e-05
8.79292e-05
8.55858e-05
8.51018e-05
8.58588e-05
8.73675e-05
8.91977e-05
9.08784e-05
9.18284e-05
9.14129e-05
8.92313e-05
8.48093e-05
7.72416e-05
6.78783e-05
3.76257e-05
0.000110424
0.000170831
0.000214592
0.000242554
0.000260062
0.000271136
0.000277542
0.000279923
0.000278413
0.000273012
0.000263806
0.000251068
0.000235254
0.000216957
0.000196868
0.000175768
0.000154544
0.000134262
0.000116378
0.000102772
9.37524e-05
8.84924e-05
8.61238e-05
8.58473e-05
8.69854e-05
8.89785e-05
9.13201e-05
9.34607e-05
9.47469e-05
9.44999e-05
9.23268e-05
8.77578e-05
7.98317e-05
6.99181e-05
3.95234e-05
0.000114052
0.000175788
0.000220439
0.000249011
0.000266921
0.00027821
0.000284645
0.000286904
0.000285228
0.000279617
0.000270165
0.000257149
0.000241026
0.000222381
0.000201895
0.000180326
0.00015854
0.000137579
0.000118893
0.000104399
9.47254e-05
8.90856e-05
8.66201e-05
8.6503e-05
8.80016e-05
9.0483e-05
9.33567e-05
9.59853e-05
9.76345e-05
9.75752e-05
9.54188e-05
9.06984e-05
8.23946e-05
7.19014e-05
4.14531e-05
0.000117677
0.000180709
0.000226222
0.000255398
0.000273654
0.000285167
0.0002917
0.000293871
0.000292054
0.000286261
0.0002766
0.000263354
0.000246976
0.000228045
0.000207222
0.000185241
0.000162936
0.000141317
0.00012181
0.000106346
9.59076e-05
8.9774e-05
8.71116e-05
8.70818e-05
8.89033e-05
9.18683e-05
9.5296e-05
9.84518e-05
0.00010051
0.000100678
9.85602e-05
9.36839e-05
8.49683e-05
7.38396e-05
4.33694e-05
0.000121175
0.000185427
0.000231762
0.000261489
0.000280082
0.000291829
0.000298491
0.000300666
0.000298674
0.000292704
0.000282861
0.000269427
0.000252852
0.000233698
0.000212609
0.00019029
0.000167537
0.000145319
0.000125022
0.00010857
9.73016e-05
9.05888e-05
8.76422e-05
8.76286e-05
8.9728e-05
9.31589e-05
9.71442e-05
0.000100844
0.000103331
0.000103743
0.000101671
9.66441e-05
8.75056e-05
7.57197e-05
4.53164e-05
0.000124661
0.000190118
0.00023732
0.000267501
0.000286394
0.000298364
0.000305161
0.000307353
0.000305231
0.00029913
0.000289152
0.000275581
0.000258859
0.000239541
0.000218247
0.000195651
0.000172509
0.000149736
0.000128668
0.000111197
9.90114e-05
9.16119e-05
8.82709e-05
8.81803e-05
9.04946e-05
9.43612e-05
9.8902e-05
0.000103162
0.000106103
0.000106783
0.000104787
9.95963e-05
9.00181e-05
7.75478e-05
4.7242e-05
0.000127987
0.000194537
0.00024254
0.00027316
0.000292365
0.00030458
0.000311541
0.000313791
0.000311583
0.000305364
0.000295269
0.000281591
0.000264771
0.000245347
0.000223918
0.000201123
0.000177672
0.000154424
0.000132654
0.000114205
0.00010106
9.28965e-05
8.90648e-05
8.88045e-05
9.12618e-05
9.55211e-05
0.000100601
0.000105425
0.000108834
0.000109807
0.000107941
0.00010254
9.2495e-05
7.93143e-05
4.91981e-05
0.000131312
0.000198927
0.0002477
0.00027873
0.000298227
0.000310676
0.000317804
0.000320139
0.00031792
0.000311563
0.000301366
0.000287618
0.000270747
0.000251273
0.000229767
0.000206836
0.000183145
0.000159491
0.000137083
0.000117698
0.000103541
9.45255e-05
9.00957e-05
8.95573e-05
9.20675e-05
9.66578e-05
0.000102244
0.00010762
0.000111505
0.000112808
0.000111081
0.000105481
9.49314e-05
8.10206e-05
5.11321e-05
0.000134489
0.000203072
0.000252553
0.000283969
0.000303753
0.00031644
0.000323742
0.000326168
0.000323948
0.000317494
0.000307244
0.000293474
0.000276602
0.000257132
0.000235613
0.000212619
0.000188769
0.000164802
0.000141851
0.000121625
0.000106453
9.6538e-05
9.14274e-05
9.05122e-05
9.29834e-05
9.78354e-05
0.000103887
0.000109803
0.000114181
0.000115866
0.000114254
0.000108461
9.73466e-05
8.26614e-05
5.30933e-05
0.000137666
0.000207187
0.00025734
0.000289112
0.000309166
0.000322084
0.000329562
0.000332091
0.000329889
0.000323359
0.000313076
0.00029931
0.000282469
0.000263043
0.000241558
0.000218556
0.000194614
0.000170407
0.000146997
0.000126012
0.000109828
9.89776e-05
9.31109e-05
9.17199e-05
9.40515e-05
9.90827e-05
0.000105545
0.000111976
0.000116851
0.000118939
0.000117442
0.000111451
9.97363e-05
8.42349e-05
5.50333e-05
0.000140715
0.000211089
0.000261846
0.00029394
0.000314251
0.000327399
0.000335057
0.000337702
0.000335539
0.000328966
0.000318685
0.000304959
0.00028819
0.000268853
0.000247454
0.000224508
0.000200546
0.000176185
0.000152411
0.000130768
0.000113624
0.000101843
9.51788e-05
9.32341e-05
9.53345e-05
0.000100461
0.000107272
0.000114183
0.000119541
0.000122029
0.000120639
0.000114435
0.000102089
8.57324e-05
5.69959e-05
0.000143766
0.000214972
0.000266278
0.000298658
0.000319207
0.000332575
0.000340414
0.000343181
0.000341074
0.00033448
0.000324216
0.000310547
0.000293871
0.000274652
0.000253377
0.00023053
0.000206605
0.000182159
0.000158103
0.000135888
0.00011784
0.000105144
9.76532e-05
9.50868e-05
9.6867e-05
0.000102002
0.000109095
0.000116444
0.000122262
0.000125136
0.000123839
0.000117405
0.0001044
8.71527e-05
5.89359e-05
0.000146701
0.000218705
0.000270448
0.000303072
0.000323844
0.000337429
0.000345452
0.000348355
0.000346328
0.000339761
0.000329527
0.000315938
0.000299385
0.000280321
0.000259212
0.000236516
0.000212688
0.00018823
0.000163979
0.000141293
0.000122428
0.000108864
0.000100543
9.73064e-05
9.86866e-05
0.000103742
0.000111036
0.000118758
0.000124991
0.000128233
0.000127018
0.000120342
0.000106654
8.8491e-05
6.08723e-05
0.000149576
0.000222353
0.000274493
0.000307345
0.00032833
0.000342124
0.000350326
0.000353363
0.000351426
0.000344915
0.000334712
0.000321218
0.000304812
0.000285929
0.000265016
0.000242505
0.000218818
0.000194406
0.000170034
0.000146967
0.000127373
0.000112995
0.000103855
9.99084e-05
0.000100814
0.000105703
0.000113121
0.000121169
0.000127819
0.000131347
0.000130177
0.000123236
0.000108847
8.97489e-05
6.27626e-05
0.000152304
0.000225783
0.000278282
0.000311333
0.000332515
0.000346508
0.000354888
0.000358063
0.000356226
0.000349792
0.000339654
0.00032629
0.000310064
0.000291396
0.000270712
0.000248424
0.000224923
0.000200613
0.000176195
0.000152841
0.000132623
0.000117509
0.000107581
0.000102908
0.000103279
0.000107918
0.000115382
0.000123695
0.000130722
0.00013448
0.000133315
0.000126082
0.000110973
9.09262e-05
6.4651e-05
0.000154982
0.000229121
0.000281931
0.000315161
0.00033653
0.00035072
0.000359275
0.000362586
0.000360847
0.000354489
0.000344438
0.000331231
0.000315206
0.000296775
0.000276346
0.000254309
0.000231026
0.000206862
0.000182457
0.000158896
0.000138155
0.000122382
0.000111709
0.000106304
0.000106089
0.000110401
0.000117829
0.000126339
0.000133686
0.000137623
0.000136427
0.000128878
0.000113033
9.20263e-05
6.65017e-05
0.000157536
0.000232258
0.000285334
0.00031872
0.000340265
0.000354645
0.000363373
0.000366826
0.000365198
0.000358936
0.000348987
0.000335948
0.000320162
0.000302
0.000281857
0.000260104
0.000237076
0.000213103
0.000188771
0.000165085
0.000143925
0.00012758
0.000116218
0.000110091
0.000109254
0.000113167
0.000120474
0.000129103
0.000136706
0.000140771
0.000139508
0.000131619
0.000115025
9.30528e-05
6.83309e-05
0.000160006
0.000235268
0.000288578
0.000322101
0.00034381
0.000358371
0.000367267
0.000370858
0.000369342
0.000363187
0.000353361
0.000340511
0.000324964
0.000307094
0.000287262
0.000265819
0.000243077
0.000219333
0.000195124
0.000171385
0.000149903
0.000133073
0.000121083
0.000114255
0.000112769
0.000116218
0.000123321
0.000131988
0.000139776
0.000143916
0.000142551
0.000134302
0.00011695
9.40101e-05
7.01269e-05
0.000162365
0.000238099
0.000291599
0.000325236
0.000347095
0.00036183
0.000370889
0.000374618
0.00037322
0.000367183
0.000357504
0.000344868
0.000329587
0.00031202
0.000292524
0.000271418
0.000248993
0.000225515
0.00020148
0.000177757
0.000156052
0.000138824
0.000126276
0.000118779
0.00011663
0.000119558
0.000126377
0.000134996
0.000142894
0.000147053
0.000145553
0.000136924
0.000118809
9.49022e-05
7.18915e-05
0.000164629
0.000240786
0.000294445
0.000328179
0.000350177
0.000365078
0.000374294
0.000378158
0.000376878
0.000370965
0.000361448
0.00034904
0.000334042
0.000316797
0.000297645
0.000276899
0.000254816
0.000231636
0.000207819
0.000184177
0.000162339
0.000144802
0.000131765
0.00012364
0.000120825
0.000123185
0.000129641
0.000138128
0.000146057
0.000150178
0.000148511
0.000139484
0.000120602
9.57332e-05
7.36098e-05
0.000166772
0.000243295
0.000297075
0.000330885
0.000353012
0.000368071
0.000377441
0.000381439
0.000380281
0.000374505
0.000365168
0.000353006
0.000338308
0.000321403
0.000302615
0.000282239
0.000260525
0.000237675
0.000214116
0.000190614
0.00016873
0.00015097
0.000137518
0.000128813
0.000125339
0.000127095
0.000133118
0.000141387
0.000149268
0.000153293
0.000151422
0.000141982
0.000122331
9.65076e-05
7.5288e-05
0.000168815
0.000245655
0.000299525
0.000333396
0.00035564
0.000370848
0.000380366
0.000384495
0.00038346
0.000377826
0.000368683
0.000356779
0.000342393
0.000325838
0.000307426
0.000287436
0.0002661
0.000243612
0.000220348
0.000197042
0.000175194
0.000157298
0.000143505
0.00013427
0.000130153
0.000131277
0.000136804
0.000144773
0.000152524
0.000156395
0.000154287
0.000144417
0.000123999
9.72304e-05
7.69117e-05
0.000170734
0.000247837
0.000301766
0.000335681
0.000358032
0.000373385
0.000383046
0.000387307
0.000386398
0.000380917
0.000371987
0.000360356
0.000346292
0.000330101
0.000312077
0.000292485
0.000271543
0.000249423
0.000226496
0.000203436
0.000181703
0.00016375
0.000149691
0.000139983
0.000135248
0.000135725
0.000140701
0.000148293
0.000155834
0.000159489
0.000157109
0.000146793
0.000125609
9.79065e-05
7.84869e-05
0.000172547
0.000249868
0.000303826
0.00033777
0.000360218
0.000375705
0.000385505
0.000389893
0.000389113
0.000383792
0.000375088
0.000363741
0.000350011
0.000334189
0.000316561
0.000297378
0.000276843
0.000255116
0.000232545
0.000209779
0.000188233
0.000170303
0.000156048
0.000145924
0.0001406
0.000140419
0.000144798
0.00015194
0.000159194
0.000162576
0.000159889
0.000149112
0.000127164
9.85414e-05
8.00055e-05
0.000174242
0.000251732
0.000305691
0.000339647
0.000362181
0.000377797
0.000387731
0.000392247
0.000391598
0.000386447
0.000377987
0.000366939
0.000353552
0.000338109
0.000320882
0.000302113
0.000281994
0.000260672
0.000238482
0.000216054
0.000194764
0.000176929
0.000162549
0.000152066
0.000146188
0.00014535
0.000149092
0.000155719
0.000162613
0.000165664
0.000162636
0.000151381
0.000128672
9.91415e-05
8.14726e-05
0.000175831
0.000253449
0.000307381
0.000341333
0.000363942
0.000379676
0.000389737
0.000394376
0.000393861
0.000388889
0.000380688
0.000369951
0.000356918
0.00034186
0.000325041
0.000306692
0.000286995
0.000266089
0.000244299
0.00022224
0.000201275
0.000183603
0.000169164
0.000158381
0.000151985
0.000150495
0.000153571
0.000159624
0.000166089
0.000168755
0.000165353
0.000153605
0.000130138
9.97117e-05
8.28866e-05
0.000177316
0.000255016
0.000308893
0.000342825
0.000365496
0.00038134
0.000391521
0.00039628
0.000395901
0.000391116
0.000383191
0.000372779
0.00036011
0.000345446
0.00032904
0.000311115
0.000291846
0.000271367
0.000249996
0.000228345
0.000207764
0.000190317
0.00017588
0.000164852
0.000157978
0.000155846
0.000158232
0.000163661
0.000169632
0.00017186
0.00016805
0.000155793
0.000131569
0.000100259
8.42499e-05
0.000178701
0.000256445
0.00031024
0.000344134
0.000366853
0.000382795
0.000393088
0.000397962
0.000397719
0.000393129
0.000385495
0.000375422
0.000363128
0.000348866
0.000332879
0.000315383
0.000296548
0.000276503
0.000255568
0.000234355
0.000214218
0.000197052
0.000182675
0.000171458
0.000164147
0.000161389
0.000163065
0.000167823
0.000173239
0.000174983
0.000170734
0.000157953
0.000132974
0.000100789
8.55644e-05
0.000179996
0.000257744
0.000311427
0.000345263
0.000368017
0.000384046
0.000394442
0.000399425
0.000399317
0.00039493
0.000387602
0.000377879
0.000365971
0.000352119
0.000336558
0.000319494
0.000301096
0.000281492
0.000261007
0.00024026
0.000220617
0.00020378
0.000189521
0.000178173
0.000170472
0.00016711
0.000168072
0.000172137
0.000176928
0.000178136
0.000173417
0.000160095
0.000134361
0.000101311
8.68301e-05
0.000181198
0.000258911
0.000312456
0.000346217
0.000368991
0.000385095
0.000395585
0.00040067
0.000400697
0.000396519
0.000389511
0.000380151
0.000368639
0.000355205
0.000340076
0.000323451
0.000305494
0.000286337
0.000266312
0.000246055
0.000226952
0.00021049
0.0001964
0.000184975
0.000176934
0.000172998
0.000173248
0.000176594
0.000180704
0.000181329
0.000176109
0.000162231
0.000135739
0.00010183
8.80502e-05
0.000182319
0.00025996
0.000313339
0.000347004
0.000369784
0.00038595
0.000396523
0.000401704
0.000401863
0.000397899
0.000391223
0.000382236
0.000371128
0.00035812
0.000343428
0.000327246
0.000309735
0.00029103
0.000271476
0.000251731
0.000233206
0.00021716
0.000203286
0.000191838
0.000183508
0.000179036
0.000178584
0.00018119
0.000184575
0.000184573
0.000178821
0.000164369
0.000137117
0.000102352
8.92256e-05
0.000183354
0.000260885
0.00031407
0.000347623
0.000370394
0.000386611
0.000397257
0.000402528
0.000402819
0.000399074
0.000392741
0.000384135
0.000373438
0.000360862
0.000346614
0.00033088
0.00031382
0.000295573
0.000276499
0.000257283
0.000239372
0.000223776
0.000210159
0.000198737
0.000190172
0.000185206
0.000184069
0.000185923
0.000188547
0.000187881
0.000181569
0.000166525
0.000138504
0.000102882
9.03608e-05
0.000184313
0.000261699
0.000314664
0.000348087
0.000370835
0.000387091
0.0003978
0.000403153
0.000403576
0.000400055
0.000394071
0.000385849
0.000375567
0.000363426
0.000349625
0.000334344
0.000317739
0.000299956
0.000281371
0.000262701
0.000245433
0.000230319
0.000217
0.000205655
0.000196906
0.000191491
0.000189689
0.00019078
0.000192617
0.000191258
0.000184361
0.000168706
0.000139907
0.000103424
9.14578e-05
0.000185194
0.000262397
0.000315116
0.000348392
0.000371106
0.000387391
0.000398154
0.000403586
0.000404143
0.000400855
0.000395223
0.000387386
0.000377518
0.000365814
0.000352464
0.00033764
0.000321495
0.000304181
0.000286094
0.000267987
0.000251386
0.000236778
0.000223786
0.000212557
0.000203672
0.000197855
0.000195419
0.000195752
0.000196789
0.000194712
0.000187208
0.000170925
0.000141335
0.00010398
9.25186e-05
0.000186002
0.000262986
0.000315436
0.000348551
0.000371219
0.000387521
0.00039833
0.000403835
0.000404534
0.000401505
0.000396207
0.000388744
0.000379287
0.000368021
0.000355124
0.00034076
0.000325081
0.000308243
0.000290665
0.000273138
0.000257223
0.000243142
0.000230507
0.000219434
0.000210464
0.000204288
0.000201251
0.000200836
0.000201062
0.000198249
0.000190118
0.000173187
0.000142792
0.000104552
9.35439e-05
0.000186734
0.000263464
0.000315621
0.000348562
0.000371175
0.000387486
0.000398331
0.000403905
0.000404748
0.000401995
0.000397019
0.000389924
0.000380876
0.000370049
0.000357608
0.000343709
0.0003285
0.000312148
0.00029509
0.000278162
0.000262949
0.000249408
0.000237149
0.000226262
0.000217244
0.000210751
0.000207154
0.000206017
0.000205433
0.000201874
0.0001931
0.000175505
0.000144285
0.000105142
9.4533e-05
0.000187389
0.000263831
0.000315678
0.000348435
0.000370985
0.000387298
0.000398172
0.000403806
0.000404787
0.000402307
0.000397654
0.00039093
0.000382291
0.000371901
0.000359918
0.000346487
0.000331757
0.000315899
0.000299379
0.000283076
0.000268568
0.000255577
0.00024371
0.000233034
0.000224007
0.000217249
0.000213125
0.000211289
0.0002099
0.000205585
0.000196156
0.000177878
0.000145815
0.00010575
9.54874e-05
0.000187968
0.000264089
0.000315608
0.000348172
0.000370653
0.000386963
0.000397862
0.000403557
0.00040468
0.00040248
0.00039815
0.000391791
0.000383553
0.000373596
0.000362066
0.000349105
0.000334858
0.000319508
0.000303546
0.000287905
0.000274098
0.000261654
0.000250186
0.00023974
0.000230734
0.000223747
0.000219135
0.000216635
0.000214457
0.000209388
0.000199294
0.000180319
0.000147392
0.000106379
9.64105e-05
0.000188475
0.000264244
0.000315418
0.000347781
0.000370187
0.000386489
0.000397407
0.000403158
0.000404424
0.000402509
0.000398504
0.000392507
0.000384668
0.000375138
0.000364059
0.000351569
0.000337813
0.000322987
0.000307613
0.00029268
0.000279558
0.000267654
0.000256585
0.000246381
0.000237421
0.000230242
0.000225189
0.000222049
0.000219096
0.000213277
0.000202511
0.000182824
0.00014901
0.000107027
9.73056e-05
0.000188916
0.000264302
0.000315114
0.000347266
0.000369591
0.000385879
0.000396814
0.000402623
0.000404039
0.000402418
0.000398741
0.000393105
0.000385657
0.000376547
0.000365911
0.000353888
0.000340626
0.000326336
0.000311578
0.000297397
0.00028495
0.000273579
0.000262908
0.000252954
0.00024406
0.000236721
0.000231262
0.000227519
0.000223813
0.000217252
0.000205813
0.0001854
0.000150678
0.000107695
9.81814e-05
0.0001893
0.000264275
0.000314706
0.000346636
0.000368871
0.000385137
0.000396083
0.000401949
0.000403521
0.000402207
0.000398866
0.000393593
0.000386535
0.000377839
0.000367641
0.000356079
0.000343311
0.000329567
0.000315444
0.000302049
0.000290274
0.000279433
0.000269162
0.000259465
0.000250654
0.000243182
0.000237354
0.000233046
0.000228601
0.000221309
0.000209195
0.000188044
0.000152391
0.000108382
9.90423e-05
0.000189634
0.000264167
0.000314195
0.000345889
0.000368025
0.000384264
0.000395214
0.000401136
0.000402871
0.000401876
0.00039888
0.000393976
0.000387308
0.000379021
0.000369254
0.000358148
0.000345872
0.000332677
0.000319203
0.000306614
0.000295512
0.000285207
0.00027534
0.000265909
0.000257196
0.000249616
0.00024345
0.000238614
0.000233461
0.000225449
0.00021266
0.000190761
0.000154155
0.000109088
9.98953e-05
0.000189926
0.000263987
0.000313587
0.000345031
0.000367059
0.00038326
0.000394209
0.000400184
0.000402087
0.000401424
0.000398785
0.000394259
0.000387985
0.000380109
0.00037077
0.000360116
0.000348328
0.000335685
0.000322871
0.000311099
0.000300671
0.000290903
0.000281446
0.000272289
0.00026369
0.000256025
0.000249553
0.000244222
0.000238386
0.000229664
0.000216204
0.000193546
0.000155966
0.00010981
0.00010074
0.000190173
0.000263725
0.000312875
0.000344055
0.000365967
0.000382124
0.000393063
0.00039909
0.000401166
0.000400843
0.000398568
0.000394426
0.000388554
0.000381092
0.000372183
0.000361981
0.000350683
0.000338595
0.000326453
0.000315501
0.000305747
0.000296519
0.000287478
0.000278605
0.000270133
0.000262405
0.000255658
0.000249868
0.000243378
0.000233966
0.00021983
0.000196401
0.000157825
0.000110548
0.000101573
0.00019037
0.000263378
0.000312054
0.000342962
0.000364752
0.000380861
0.000391788
0.000397868
0.000400118
0.00040014
0.000398232
0.00039448
0.000389014
0.000381973
0.000373499
0.000363753
0.000352949
0.000341426
0.000329969
0.000319833
0.000310748
0.000302062
0.000293443
0.000284863
0.000276529
0.000268749
0.000261744
0.000255528
0.000248414
0.000238333
0.000223532
0.000199326
0.000159731
0.000111303
0.000102386
0.000190501
0.000262927
0.000311113
0.000341744
0.000363411
0.000379472
0.00039039
0.000396527
0.000398958
0.000399323
0.000397776
0.00039441
0.000389353
0.000382738
0.000374707
0.000365426
0.000355127
0.000344184
0.00033344
0.000324101
0.000315673
0.000307523
0.00029933
0.000291056
0.000282878
0.000275069
0.000267832
0.000261226
0.000253514
0.00024278
0.000227316
0.00020232
0.000161685
0.000112077
0.000103167
0.000190555
0.000262364
0.000310047
0.000340397
0.000361946
0.000377964
0.000388882
0.000395093
0.000397722
0.000398419
0.000397219
0.000394227
0.000389574
0.000383387
0.000375806
0.000367002
0.000357226
0.000346889
0.000336893
0.000328324
0.000320531
0.000312905
0.000305133
0.000297166
0.000289153
0.000281331
0.000273886
0.000266922
0.000258643
0.000247279
0.000231158
0.000205365
0.000163671
0.000112865
0.000103911
0.000190522
0.000261682
0.00030885
0.000338921
0.000360353
0.000376337
0.00038727
0.000393585
0.000396462
0.000397458
0.000396578
0.000393944
0.000389684
0.000383922
0.000376794
0.000368478
0.000359243
0.000349541
0.000340333
0.000332507
0.000325328
0.000318212
0.000310858
0.000303204
0.000295373
0.000287566
0.000279945
0.000272652
0.000263828
0.000251847
0.000235073
0.000208472
0.000165698
0.000113671
0.000104614
0.000190405
0.000260884
0.000307525
0.000337312
0.00035863
0.000374585
0.000385546
0.000391985
0.000395146
0.000396435
0.000395873
0.000393587
0.00038971
0.000384363
0.000377684
0.000369859
0.000361179
0.000352134
0.000343743
0.00033664
0.000330057
0.000323436
0.000316489
0.000309147
0.000301504
0.000293724
0.00028595
0.000278371
0.000269037
0.000256462
0.000239041
0.000211627
0.000167759
0.000114494
0.000105285
0.000190217
0.000259985
0.000306079
0.000335571
0.000356774
0.000372706
0.00038371
0.0003903
0.000393774
0.000395378
0.00039514
0.000393197
0.000389687
0.00038474
0.000378499
0.000371162
0.000363039
0.000354668
0.00034711
0.000340715
0.000334713
0.000328576
0.000322029
0.000314998
0.000307552
0.000299823
0.000291948
0.000284093
0.000274278
0.00026113
0.000243071
0.000214837
0.000169858
0.000115339