/*--------------------------------*- C++ -*----------------------------------*\
| =========                 |                                                 |
| \\      /  F ield         | OpenFOAM: The Open Source CFD Toolbox           |
|  \\    /   O peration     | Version:  v1906                                 |
|   \\  /    A nd           | Web:      www.OpenFOAM.com                      |
|    \\/     M anipulation  |                                                 |
\*---------------------------------------------------------------------------*/
FoamFile
{
    version     2.0;
    format      ascii;
    class       volScalarField;
    location    "0.56/oil";
    object      alphat;
}
// * * * * * * * * * * * * * * * * * * * * * * * * * * * * * * * * * * * * * //

dimensions      [1 -1 -1 0 0 0 0];


internalField   nonuniform List<scalar> 
168664
(
0.00277315
0.000300842
0.0003075
8.64069e-05
7.45159e-05
3.70999e-05
2.53228e-05
1.96653e-05
1.29879e-05
1.39085e-05
1.21134e-05
1.43991e-05
1.31945e-05
1.34518e-05
1.20122e-05
1.19016e-05
1.08189e-05
9.90647e-06
8.89614e-06
7.9816e-06
7.37543e-06
7.40836e-06
7.20096e-06
6.63521e-06
5.65831e-06
4.48939e-06
3.28354e-06
2.42889e-06
1.63783e-06
4.14122e-07
0.000299867
0.000351605
7.90988e-05
6.80661e-05
2.97487e-05
2.27797e-05
1.50583e-05
1.27892e-05
9.99425e-06
1.04658e-05
1.03814e-05
1.16514e-05
1.11944e-05
1.15006e-05
1.06834e-05
1.06771e-05
9.81315e-06
9.1706e-06
8.29407e-06
7.69519e-06
7.29505e-06
7.26265e-06
6.99829e-06
6.47542e-06
5.89573e-06
5.11516e-06
4.35673e-06
3.46945e-06
3.51341e-06
2.01738e-06
0.000304986
7.90922e-05
7.19535e-05
4.65524e-05
3.49807e-05
2.53217e-05
1.89229e-05
1.49644e-05
1.23766e-05
1.15126e-05
1.11887e-05
1.14382e-05
1.0813e-05
1.11082e-05
1.03813e-05
1.02931e-05
9.50455e-06
8.94225e-06
8.11444e-06
7.61445e-06
7.43079e-06
7.46639e-06
7.35404e-06
6.96987e-06
6.45676e-06
5.83601e-06
5.26585e-06
4.87464e-06
5.7316e-06
4.56858e-06
8.97504e-05
7.00805e-05
4.86232e-05
3.65662e-05
2.59622e-05
1.99745e-05
1.65442e-05
1.36671e-05
1.25587e-05
1.14931e-05
1.12699e-05
1.09481e-05
1.07477e-05
1.10136e-05
1.0368e-05
1.00918e-05
9.33683e-06
8.78849e-06
8.08192e-06
7.66595e-06
7.45637e-06
7.51734e-06
7.61894e-06
7.38806e-06
6.8366e-06
6.18892e-06
5.76117e-06
6.05425e-06
7.17561e-06
6.42612e-06
7.63022e-05
3.33587e-05
3.67331e-05
2.62412e-05
2.44164e-05
2.01506e-05
1.77647e-05
1.55609e-05
1.41089e-05
1.30405e-05
1.22498e-05
1.16007e-05
1.12478e-05
1.13345e-05
1.0566e-05
1.00728e-05
9.31145e-06
8.8122e-06
8.38042e-06
8.32787e-06
8.11167e-06
8.16326e-06
8.21717e-06
8.10933e-06
7.67254e-06
7.17187e-06
6.93638e-06
7.52837e-06
8.80677e-06
8.59205e-06
4.69667e-05
3.11102e-05
3.18582e-05
2.37609e-05
2.27073e-05
1.77368e-05
1.6866e-05
1.42563e-05
1.37506e-05
1.26228e-05
1.22764e-05
1.13939e-05
1.09817e-05
1.11318e-05
1.04889e-05
9.72117e-06
8.98473e-06
8.39775e-06
8.31786e-06
8.53455e-06
8.33037e-06
8.22521e-06
8.1586e-06
8.11164e-06
7.80838e-06
7.67556e-06
7.69694e-06
8.54059e-06
9.84944e-06
1.00473e-05
3.4501e-05
2.37555e-05
2.44954e-05
1.98669e-05
1.97271e-05
1.68884e-05
1.6134e-05
1.444e-05
1.37047e-05
1.29463e-05
1.25066e-05
1.17914e-05
1.14445e-05
1.18748e-05
1.11039e-05
9.97266e-06
8.98677e-06
8.30297e-06
8.22085e-06
8.47055e-06
8.26836e-06
8.24541e-06
8.27053e-06
8.39275e-06
8.3911e-06
8.62409e-06
8.98704e-06
9.98288e-06
1.13157e-05
1.19993e-05
3.35606e-05
2.48821e-05
2.48898e-05
2.03607e-05
1.99987e-05
1.64698e-05
1.59066e-05
1.35582e-05
1.30236e-05
1.19434e-05
1.1898e-05
1.14775e-05
1.17954e-05
1.24855e-05
1.18534e-05
1.03821e-05
9.37907e-06
8.45278e-06
8.18527e-06
8.0247e-06
7.7424e-06
7.74233e-06
7.90407e-06
8.27619e-06
8.67367e-06
9.32885e-06
9.98709e-06
1.10619e-05
1.23251e-05
1.33192e-05
2.68662e-05
2.13706e-05
2.09497e-05
1.83318e-05
1.77389e-05
1.54162e-05
1.46221e-05
1.28369e-05
1.21105e-05
1.12729e-05
1.14234e-05
1.18052e-05
1.25191e-05
1.32324e-05
1.25233e-05
1.10503e-05
9.78951e-06
8.64669e-06
8.09124e-06
7.71604e-06
7.39075e-06
7.62599e-06
8.01509e-06
8.72701e-06
9.4899e-06
1.04009e-05
1.132e-05
1.23834e-05
1.34796e-05
1.47698e-05
2.85027e-05
2.27688e-05
2.22963e-05
1.96062e-05
1.86486e-05
1.58244e-05
1.4722e-05
1.24494e-05
1.15313e-05
1.04367e-05
1.08795e-05
1.1529e-05
1.23086e-05
1.24572e-05
1.19995e-05
1.0944e-05
9.63472e-06
8.44339e-06
7.8281e-06
7.31163e-06
7.03397e-06
7.42615e-06
8.02157e-06
8.90261e-06
9.74903e-06
1.08764e-05
1.20295e-05
1.30455e-05
1.40445e-05
1.55179e-05
2.53686e-05
2.09087e-05
2.01852e-05
1.83343e-05
1.72625e-05
1.52507e-05
1.41422e-05
1.21904e-05
1.11963e-05
1.04092e-05
1.09185e-05
1.15473e-05
1.15195e-05
1.07709e-05
1.00691e-05
9.44857e-06
8.49304e-06
7.77785e-06
7.37954e-06
7.1824e-06
7.19014e-06
7.90951e-06
8.72099e-06
9.77923e-06
1.06746e-05
1.19329e-05
1.31546e-05
1.39945e-05
1.48803e-05
1.65061e-05
2.69381e-05
2.21036e-05
2.12297e-05
1.93655e-05
1.84278e-05
1.66056e-05
1.55436e-05
1.32562e-05
1.17966e-05
1.0369e-05
1.0207e-05
1.00774e-05
9.16096e-06
7.78514e-06
7.07664e-06
6.59316e-06
6.00048e-06
6.14454e-06
6.3884e-06
6.68998e-06
7.22671e-06
8.34391e-06
9.40711e-06
1.07476e-05
1.17526e-05
1.29735e-05
1.39803e-05
1.4606e-05
1.53969e-05
1.714e-05
2.48514e-05
2.10319e-05
2.03566e-05
1.92338e-05
1.84372e-05
1.70705e-05
1.60727e-05
1.39274e-05
1.22725e-05
1.01188e-05
9.04054e-06
8.01215e-06
6.5009e-06
5.49529e-06
4.70767e-06
4.27567e-06
3.88761e-06
4.12321e-06
4.94417e-06
5.82848e-06
7.0214e-06
8.97947e-06
1.03688e-05
1.17691e-05
1.27852e-05
1.39417e-05
1.47776e-05
1.53982e-05
1.62745e-05
1.83889e-05
2.46507e-05
2.08418e-05
2.03092e-05
1.94043e-05
1.86426e-05
1.72411e-05
1.62667e-05
1.44716e-05
1.30352e-05
1.00635e-05
7.63244e-06
5.1593e-06
3.33866e-06
2.19654e-06
1.72941e-06
1.45243e-06
1.1588e-06
2.05915e-06
3.0898e-06
4.93629e-06
6.82593e-06
9.44101e-06
1.10987e-05
1.25303e-05
1.33812e-05
1.44878e-05
1.53308e-05
1.60558e-05
1.70303e-05
1.95489e-05
2.32622e-05
1.98425e-05
1.92612e-05
1.85001e-05
1.78006e-05
1.66352e-05
1.56995e-05
1.42191e-05
1.30258e-05
1.02609e-05
7.6263e-06
5.18435e-06
3.49862e-06
2.02094e-06
1.03019e-06
4.97352e-07
1.4053e-06
2.63785e-06
3.57969e-06
5.42101e-06
7.2974e-06
9.97222e-06
1.1826e-05
1.33806e-05
1.42492e-05
1.53114e-05
1.61662e-05
1.69232e-05
1.78519e-05
2.06739e-05
2.32379e-05
1.97384e-05
1.90723e-05
1.82974e-05
1.76392e-05
1.651e-05
1.55511e-05
1.38902e-05
1.23838e-05
9.80074e-06
7.56013e-06
5.38946e-06
3.86934e-06
2.14043e-06
1.07133e-06
7.652e-07
1.73756e-06
3.24004e-06
4.1216e-06
5.93521e-06
7.64553e-06
1.02575e-05
1.18863e-05
1.34391e-05
1.4264e-05
1.5377e-05
1.62196e-05
1.70184e-05
1.77984e-05
2.05027e-05
2.14928e-05
1.85156e-05
1.78096e-05
1.71394e-05
1.64987e-05
1.54665e-05
1.46007e-05
1.31922e-05
1.1553e-05
8.88289e-06
6.27044e-06
4.14021e-06
2.82652e-06
1.61291e-06
1.55085e-06
1.46341e-06
1.94547e-06
3.77976e-06
5.01119e-06
6.78951e-06
8.40984e-06
1.07254e-05
1.21277e-05
1.34511e-05
1.43096e-05
1.54827e-05
1.63913e-05
1.71123e-05
1.77662e-05
2.03313e-05
2.05855e-05
1.79023e-05
1.71673e-05
1.64604e-05
1.57585e-05
1.46011e-05
1.36469e-05
1.21756e-05
1.0774e-05
8.46782e-06
6.59369e-06
5.26704e-06
4.05095e-06
3.55871e-06
3.71146e-06
3.44116e-06
3.45697e-06
5.08449e-06
6.6969e-06
8.24865e-06
8.86646e-06
1.06826e-05
1.17413e-05
1.3183e-05
1.41507e-05
1.53609e-05
1.63113e-05
1.72081e-05
1.80231e-05
2.06419e-05
1.92879e-05
1.70675e-05
1.62644e-05
1.54812e-05
1.46493e-05
1.34851e-05
1.24594e-05
1.1046e-05
9.83454e-06
8.50622e-06
7.68428e-06
7.0301e-06
6.15253e-06
5.6401e-06
5.78506e-06
5.3975e-06
5.39684e-06
6.54665e-06
7.73434e-06
8.56825e-06
8.74914e-06
9.64942e-06
1.04939e-05
1.1934e-05
1.29e-05
1.39244e-05
1.48922e-05
1.61692e-05
1.74035e-05
2.0128e-05
1.83266e-05
1.6169e-05
1.52452e-05
1.42243e-05
1.32294e-05
1.20138e-05
1.11247e-05
9.96622e-06
9.0854e-06
8.19991e-06
8.03803e-06
7.91079e-06
7.7223e-06
7.84734e-06
8.24712e-06
8.03864e-06
8.08742e-06
8.51725e-06
8.47864e-06
8.43765e-06
8.12141e-06
8.69431e-06
9.30427e-06
1.05634e-05
1.1436e-05
1.24866e-05
1.34903e-05
1.48553e-05
1.61306e-05
1.86229e-05
1.67902e-05
1.492e-05
1.41137e-05
1.30187e-05
1.1981e-05
1.09736e-05
1.01976e-05
9.2477e-06
8.48696e-06
7.93033e-06
7.95025e-06
7.97437e-06
8.17745e-06
8.91912e-06
9.97332e-06
1.03837e-05
1.04192e-05
9.84071e-06
9.09336e-06
8.45495e-06
7.83221e-06
8.12428e-06
8.65274e-06
9.77585e-06
1.05554e-05
1.1603e-05
1.25416e-05
1.37643e-05
1.4876e-05
1.66892e-05
1.57146e-05
1.42168e-05
1.35123e-05
1.2375e-05
1.13727e-05
1.05037e-05
9.8641e-06
9.11319e-06
8.54085e-06
8.14723e-06
7.90616e-06
7.52724e-06
7.79497e-06
8.83809e-06
1.01192e-05
1.10843e-05
1.10787e-05
9.77109e-06
8.71169e-06
8.31634e-06
7.92726e-06
8.22732e-06
8.54882e-06
9.37404e-06
9.88821e-06
1.07573e-05
1.15062e-05
1.26784e-05
1.38092e-05
1.52301e-05
1.41365e-05
1.30394e-05
1.21453e-05
1.10581e-05
1.03492e-05
9.69908e-06
9.27351e-06
8.8295e-06
8.5357e-06
8.39371e-06
8.02913e-06
7.33065e-06
7.32226e-06
8.30341e-06
9.49521e-06
1.0439e-05
1.03498e-05
9.13199e-06
8.41774e-06
8.46932e-06
8.31656e-06
8.40806e-06
8.42247e-06
8.86211e-06
9.06784e-06
9.69248e-06
1.02778e-05
1.14134e-05
1.25553e-05
1.35301e-05
1.27266e-05
1.18669e-05
1.0756e-05
9.85759e-06
9.43253e-06
9.07937e-06
8.9564e-06
8.83316e-06
8.74151e-06
8.61314e-06
8.07695e-06
7.35863e-06
7.08533e-06
7.66841e-06
8.57844e-06
9.28238e-06
9.30019e-06
8.63511e-06
8.29011e-06
8.57941e-06
8.59943e-06
8.70612e-06
8.56643e-06
8.71895e-06
8.65078e-06
8.92282e-06
9.21988e-06
1.02866e-05
1.14546e-05
1.21408e-05
1.05567e-05
1.0197e-05
9.10196e-06
8.48217e-06
8.28661e-06
8.15784e-06
8.3053e-06
8.47284e-06
8.64933e-06
8.53082e-06
7.87744e-06
7.3048e-06
7.33068e-06
7.64113e-06
8.15424e-06
8.45345e-06
8.77088e-06
8.58101e-06
8.23697e-06
8.23067e-06
8.37211e-06
8.5826e-06
8.42473e-06
8.44838e-06
8.17348e-06
8.10783e-06
8.01889e-06
8.9798e-06
1.01611e-05
1.04189e-05
8.87473e-06
8.83805e-06
7.70032e-06
7.30279e-06
7.47144e-06
7.68847e-06
7.94991e-06
8.28532e-06
8.59186e-06
8.6181e-06
7.99925e-06
7.52932e-06
7.74638e-06
7.99478e-06
8.09553e-06
8.03529e-06
8.52041e-06
8.64858e-06
8.19108e-06
7.91352e-06
7.92314e-06
8.23066e-06
8.19832e-06
8.21021e-06
7.84435e-06
7.40255e-06
7.07029e-06
7.84472e-06
9.06742e-06
8.98451e-06
6.75542e-06
7.19597e-06
5.962e-06
5.79418e-06
6.31387e-06
6.71144e-06
7.12603e-06
7.60214e-06
7.99927e-06
8.25205e-06
7.86346e-06
7.70417e-06
8.0549e-06
8.19197e-06
8.00046e-06
7.68601e-06
8.1689e-06
8.32778e-06
8.08506e-06
7.69377e-06
7.41716e-06
7.41715e-06
7.3101e-06
7.27084e-06
6.91432e-06
6.46237e-06
5.98496e-06
6.45117e-06
7.55166e-06
6.98093e-06
4.84259e-06
5.79801e-06
4.67751e-06
5.09702e-06
5.6307e-06
6.17677e-06
6.74555e-06
7.32036e-06
7.80663e-06
8.11829e-06
7.93317e-06
7.99778e-06
8.34062e-06
8.34126e-06
8.12035e-06
7.73586e-06
7.93216e-06
8.11771e-06
8.08948e-06
7.8673e-06
7.34085e-06
7.10733e-06
6.83517e-06
6.76699e-06
6.51983e-06
6.14252e-06
5.543e-06
5.15881e-06
6.05207e-06
5.05645e-06
2.40961e-06
3.83889e-06
3.62429e-06
4.39435e-06
4.99002e-06
5.76461e-06
6.45097e-06
7.19929e-06
7.87338e-06
8.39257e-06
8.52333e-06
8.60451e-06
8.80017e-06
8.8249e-06
8.87704e-06
8.51911e-06
8.53408e-06
8.61489e-06
8.54745e-06
8.13907e-06
7.378e-06
6.96726e-06
6.57798e-06
6.40144e-06
5.97562e-06
5.30926e-06
4.53413e-06
3.54052e-06
3.69952e-06
2.33608e-06
1.09251e-06
2.26759e-06
3.23574e-06
4.07107e-06
5.01945e-06
5.93377e-06
6.78048e-06
7.68368e-06
8.5748e-06
9.13515e-06
9.39283e-06
9.54311e-06
9.56251e-06
9.78526e-06
9.69954e-06
9.24108e-06
9.31853e-06
9.50263e-06
9.42516e-06
8.66132e-06
7.62318e-06
7.0919e-06
6.52018e-06
6.21229e-06
5.42539e-06
4.42127e-06
3.18536e-06
2.19176e-06
1.48125e-06
4.85467e-07
0.000299337
0.000359832
8.11133e-05
7.00622e-05
2.99239e-05
2.32025e-05
1.49233e-05
1.31683e-05
9.43968e-06
1.03913e-05
9.2812e-06
1.11553e-05
1.03286e-05
1.14471e-05
1.06391e-05
1.0828e-05
1.00062e-05
9.04329e-06
8.59464e-06
7.61807e-06
7.23922e-06
6.70212e-06
6.71821e-06
6.20932e-06
5.86404e-06
4.93656e-06
4.16001e-06
3.15658e-06
2.63955e-06
1.61526e-06
0.000357113
7.16972e-05
5.77842e-05
2.72397e-05
1.38503e-05
1.0543e-05
7.25973e-06
5.41977e-06
4.6459e-06
4.50414e-06
4.77191e-06
4.1735e-06
3.36458e-06
3.43785e-06
3.62475e-06
3.72662e-06
3.53375e-06
3.46928e-06
3.13012e-06
2.89262e-06
2.81659e-06
3.37695e-06
3.88953e-06
4.30145e-06
4.20996e-06
3.80508e-06
3.31963e-06
2.89544e-06
4.08442e-06
3.55268e-06
7.89183e-05
5.87611e-05
3.00334e-05
2.6909e-05
1.45252e-05
1.28064e-05
8.98077e-06
6.86948e-06
5.67154e-06
5.71277e-06
6.24994e-06
6.24813e-06
4.66054e-06
3.60718e-06
3.25864e-06
3.10131e-06
2.57679e-06
2.10587e-06
2.01664e-06
2.59064e-06
3.00381e-06
4.18759e-06
5.00648e-06
5.16347e-06
5.15179e-06
4.93423e-06
4.10367e-06
3.81694e-06
4.61754e-06
5.79088e-06
7.01931e-05
2.4979e-05
2.49415e-05
1.5657e-05
8.8051e-06
8.32543e-06
5.18349e-06
5.32559e-06
4.881e-06
5.30018e-06
5.66115e-06
6.0074e-06
4.42128e-06
3.32096e-06
2.83873e-06
2.75824e-06
2.80915e-06
2.13949e-06
2.39992e-06
3.44942e-06
4.28453e-06
4.93257e-06
4.69752e-06
4.60803e-06
5.02852e-06
5.10779e-06
4.47126e-06
4.41398e-06
4.34434e-06
7.24484e-06
3.29954e-05
1.21307e-05
1.20503e-05
9.37709e-06
6.02336e-06
6.3873e-06
4.32335e-06
4.46203e-06
3.83616e-06
3.82427e-06
3.66014e-06
4.06151e-06
2.76289e-06
2.68766e-06
2.59816e-06
2.66741e-06
2.84333e-06
2.12861e-06
2.61688e-06
3.79035e-06
4.27734e-06
3.61602e-06
2.62938e-06
2.68795e-06
3.35079e-06
3.93261e-06
4.21079e-06
4.57106e-06
4.09092e-06
8.93027e-06
3.06527e-05
7.71466e-06
1.06235e-05
8.41249e-06
5.81583e-06
5.5902e-06
3.23905e-06
3.38649e-06
2.285e-06
2.5528e-06
2.65924e-06
3.13716e-06
2.51518e-06
2.67742e-06
2.75583e-06
2.88185e-06
3.04754e-06
2.61821e-06
3.19609e-06
3.58235e-06
3.24411e-06
2.14302e-06
1.3424e-06
1.55626e-06
2.03695e-06
2.93042e-06
3.78888e-06
4.42297e-06
3.81471e-06
9.96933e-06
2.37566e-05
4.9175e-06
6.89004e-06
5.05333e-06
4.14152e-06
4.00087e-06
2.82233e-06
2.93985e-06
2.11885e-06
2.37452e-06
2.46947e-06
3.04769e-06
2.54089e-06
2.85485e-06
3.14465e-06
3.06883e-06
3.1933e-06
3.16428e-06
3.714e-06
3.12774e-06
2.42446e-06
1.70534e-06
1.38591e-06
1.38524e-06
1.76546e-06
2.87519e-06
3.7922e-06
4.32084e-06
3.81884e-06
1.13949e-05
2.48169e-05
2.67115e-06
5.71982e-06
5.55243e-06
4.70035e-06
4.49304e-06
3.39951e-06
3.35995e-06
2.48933e-06
2.56892e-06
2.54128e-06
2.78954e-06
2.13285e-06
2.4991e-06
3.04545e-06
2.79807e-06
2.78162e-06
3.15419e-06
3.49033e-06
2.7349e-06
1.95177e-06
1.62037e-06
1.39607e-06
1.47627e-06
2.00388e-06
3.09012e-06
3.77673e-06
4.1615e-06
3.74877e-06
1.2359e-05
2.14432e-05
2.92599e-06
4.02067e-06
3.86668e-06
3.80016e-06
3.68359e-06
3.12972e-06
3.14785e-06
2.75287e-06
2.82788e-06
2.66147e-06
2.1206e-06
1.09732e-06
2.89398e-06
3.80902e-06
3.24718e-06
2.32573e-06
2.34076e-06
2.91289e-06
2.57082e-06
2.06868e-06
1.88291e-06
1.72671e-06
1.96992e-06
2.48804e-06
3.2552e-06
3.59273e-06
3.72814e-06
3.52276e-06
1.35544e-05
2.26426e-05
2.10589e-06
3.12675e-06
3.4617e-06
3.67321e-06
3.87084e-06
3.48289e-06
3.51801e-06
3.30712e-06
3.18832e-06
2.84976e-06
1.75504e-06
1.99357e-06
4.23027e-06
5.09609e-06
4.33264e-06
2.92947e-06
1.32722e-06
1.98322e-06
2.42705e-06
2.11775e-06
2.14614e-06
2.05958e-06
2.35744e-06
2.57875e-06
2.97159e-06
2.99444e-06
2.91066e-06
3.02927e-06
1.4251e-05
2.0969e-05
2.52224e-06
2.36681e-06
2.28714e-06
2.36397e-06
2.84059e-06
2.9926e-06
3.3957e-06
3.52978e-06
3.37249e-06
3.03851e-06
2.52095e-06
3.8486e-06
5.66499e-06
6.38059e-06
6.02095e-06
5.01138e-06
2.44109e-06
1.69388e-06
2.36881e-06
2.55333e-06
2.78888e-06
2.75904e-06
2.92757e-06
2.93989e-06
2.97331e-06
2.71396e-06
2.48571e-06
2.70698e-06
1.49595e-05
2.21131e-05
2.48705e-06
1.91793e-06
1.8975e-06
1.95541e-06
2.56764e-06
2.9498e-06
3.52791e-06
4.08256e-06
4.07018e-06
3.41006e-06
3.50459e-06
4.53378e-06
5.10902e-06
5.39283e-06
5.34452e-06
4.59435e-06
3.16953e-06
2.07441e-06
2.39514e-06
2.9792e-06
3.29375e-06
3.17317e-06
3.12851e-06
3.01621e-06
2.93468e-06
2.52357e-06
2.4145e-06
2.48092e-06
1.53814e-05
2.07993e-05
2.60646e-06
1.80184e-06
1.63685e-06
1.54189e-06
1.84581e-06
2.11984e-06
2.81606e-06
3.66022e-06
3.71117e-06
3.06268e-06
4.52799e-06
4.97986e-06
4.93972e-06
4.81682e-06
4.56306e-06
4.19489e-06
3.43643e-06
2.91752e-06
2.05998e-06
2.96225e-06
3.30136e-06
2.99904e-06
2.67809e-06
2.46443e-06
2.42476e-06
2.18858e-06
2.33896e-06
2.56445e-06
1.63629e-05
2.07685e-05
2.32357e-06
1.84046e-06
1.81827e-06
1.83985e-06
1.78631e-06
1.9171e-06
2.53897e-06
3.42284e-06
3.5709e-06
3.79865e-06
4.36062e-06
4.09981e-06
3.87993e-06
3.40629e-06
3.06875e-06
2.37586e-06
2.34748e-06
2.27484e-06
2.0882e-06
2.40508e-06
2.99694e-06
2.64894e-06
2.19235e-06
1.96571e-06
2.02756e-06
1.94931e-06
2.1716e-06
2.60278e-06
1.71803e-05
1.97862e-05
2.56272e-06
1.99453e-06
1.91704e-06
1.91615e-06
1.96866e-06
2.10891e-06
2.63891e-06
3.27804e-06
3.89534e-06
4.08134e-06
3.69065e-06
3.12042e-06
2.66393e-06
2.92258e-06
2.59967e-06
2.07769e-06
2.291e-06
2.4011e-06
2.9163e-06
3.29693e-06
3.32845e-06
2.64821e-06
1.98222e-06
1.79656e-06
1.85088e-06
1.82661e-06
2.01875e-06
2.64096e-06
1.79278e-05
1.97872e-05
2.7907e-06
2.20152e-06
2.05025e-06
2.14506e-06
2.30239e-06
2.49992e-06
2.89563e-06
3.55117e-06
3.91561e-06
3.45762e-06
2.49885e-06
2.13296e-06
2.12379e-06
2.77393e-06
2.82511e-06
2.36762e-06
2.58495e-06
2.87312e-06
3.50864e-06
3.6055e-06
3.39047e-06
2.47942e-06
1.6581e-06
1.40834e-06
1.57545e-06
1.6196e-06
1.74284e-06
2.25349e-06
1.77659e-05
1.86833e-05
2.8617e-06
2.472e-06
2.28341e-06
2.41616e-06
2.54267e-06
2.69603e-06
3.1107e-06
3.65311e-06
3.39864e-06
3.02073e-06
2.81865e-06
2.65173e-06
2.70542e-06
3.33889e-06
3.31517e-06
2.98345e-06
3.11816e-06
3.17025e-06
2.99644e-06
2.95757e-06
3.58005e-06
2.69461e-06
1.7652e-06
1.50798e-06
1.78446e-06
1.97961e-06
1.96746e-06
2.2571e-06
1.77207e-05
1.8065e-05
2.82227e-06
2.72478e-06
2.46905e-06
2.67535e-06
2.76922e-06
3.02751e-06
3.26578e-06
3.66618e-06
3.24702e-06
2.74349e-06
2.87784e-06
3.20535e-06
3.54794e-06
4.09806e-06
4.12569e-06
4.24038e-06
3.97254e-06
3.11883e-06
1.91806e-06
3.29446e-06
4.21216e-06
3.28962e-06
2.68612e-06
2.31102e-06
2.3463e-06
2.56569e-06
2.55595e-06
2.72235e-06
1.77856e-05
1.69957e-05
3.10779e-06
3.17531e-06
3.10525e-06
3.45791e-06
3.4895e-06
3.59344e-06
3.55514e-06
3.78855e-06
3.49446e-06
3.32578e-06
2.42261e-06
2.83666e-06
3.72638e-06
4.60721e-06
4.57755e-06
4.44899e-06
3.70394e-06
2.19869e-06
1.97929e-06
3.57067e-06
4.41339e-06
3.73647e-06
3.32867e-06
2.92212e-06
2.94438e-06
3.14431e-06
3.22431e-06
3.2725e-06
1.73717e-05
1.62506e-05
3.22743e-06
3.11601e-06
3.33215e-06
3.65965e-06
3.2638e-06
3.10688e-06
2.81603e-06
3.09671e-06
2.79849e-06
2.95793e-06
1.61232e-06
1.68631e-06
3.59319e-06
4.9728e-06
5.20732e-06
4.93004e-06
3.06946e-06
1.30968e-06
2.30407e-06
2.95453e-06
3.62857e-06
3.14294e-06
3.06912e-06
2.85913e-06
3.1915e-06
3.2688e-06
3.14489e-06
3.26884e-06
1.635e-05
1.52526e-05
3.57697e-06
3.27457e-06
3.72872e-06
3.96182e-06
3.06251e-06
2.65713e-06
2.27337e-06
2.55485e-06
2.41019e-06
2.8317e-06
1.99395e-06
9.78634e-07
1.61744e-06
3.39108e-06
4.24242e-06
3.95249e-06
1.49273e-06
1.51118e-06
2.84334e-06
2.75507e-06
3.0342e-06
2.60982e-06
2.8304e-06
2.99311e-06
3.74547e-06
3.70733e-06
3.49203e-06
3.33447e-06
1.48309e-05
1.42988e-05
3.71575e-06
3.84026e-06
4.22736e-06
3.96486e-06
2.82224e-06
2.3564e-06
1.7813e-06
2.0396e-06
2.04356e-06
2.71891e-06
2.74519e-06
2.2678e-06
1.51552e-06
2.2264e-06
2.78261e-06
2.30221e-06
1.53701e-06
2.16252e-06
2.7176e-06
2.20846e-06
2.35868e-06
1.95469e-06
2.33233e-06
2.62235e-06
3.69057e-06
3.99049e-06
3.9619e-06
3.3806e-06
1.36757e-05
1.30796e-05
3.75287e-06
4.44817e-06
4.32691e-06
3.61986e-06
2.45986e-06
2.0475e-06
1.40583e-06
1.78439e-06
1.88735e-06
2.69554e-06
3.12477e-06
2.97736e-06
2.93524e-06
3.05714e-06
3.02555e-06
1.914e-06
2.43212e-06
3.06096e-06
2.9642e-06
1.97672e-06
1.94545e-06
1.54905e-06
1.95759e-06
2.13865e-06
3.40097e-06
4.07331e-06
4.28856e-06
3.58245e-06
1.24951e-05
1.20559e-05
3.74574e-06
4.49688e-06
3.70658e-06
2.9755e-06
2.01966e-06
1.79384e-06
1.14059e-06
1.59036e-06
1.8791e-06
2.83399e-06
2.97508e-06
2.8918e-06
3.58651e-06
3.65087e-06
3.08666e-06
2.14491e-06
3.11961e-06
3.67486e-06
3.75156e-06
2.50658e-06
1.8091e-06
1.25664e-06
1.6471e-06
1.72744e-06
2.94859e-06
3.9116e-06
4.43798e-06
3.65126e-06
1.14667e-05
1.03973e-05
3.83943e-06
4.41744e-06
3.22725e-06
2.51682e-06
1.7947e-06
2.07394e-06
1.68104e-06
1.97157e-06
2.2177e-06
3.08515e-06
2.75798e-06
2.63567e-06
3.68529e-06
3.72266e-06
2.97306e-06
2.56477e-06
3.2426e-06
3.81967e-06
4.55365e-06
3.70901e-06
2.60871e-06
1.65158e-06
2.03525e-06
2.17738e-06
3.31088e-06
4.07616e-06
4.82854e-06
3.95579e-06
1.02233e-05
9.12307e-06
3.80504e-06
4.15409e-06
2.93415e-06
2.49576e-06
2.18871e-06
2.69922e-06
2.61035e-06
3.07004e-06
3.0598e-06
3.28635e-06
2.3442e-06
2.45632e-06
3.48522e-06
3.56034e-06
2.95465e-06
2.70184e-06
3.01618e-06
3.55951e-06
4.65213e-06
4.54173e-06
4.12543e-06
3.14925e-06
3.38191e-06
3.63344e-06
4.42555e-06
4.35545e-06
4.9707e-06
4.29665e-06
9.1303e-06
7.61409e-06
4.04667e-06
4.11977e-06
3.18843e-06
3.48193e-06
3.48608e-06
3.94535e-06
3.9771e-06
4.70306e-06
4.71938e-06
4.28998e-06
2.27985e-06
2.21499e-06
3.27285e-06
3.90503e-06
3.45558e-06
3.33658e-06
3.76974e-06
4.11186e-06
4.9934e-06
5.01784e-06
5.50434e-06
5.32633e-06
5.70477e-06
5.70208e-06
5.75734e-06
4.66161e-06
4.84533e-06
4.68962e-06
7.58827e-06
6.32848e-06
4.52777e-06
4.02725e-06
3.73962e-06
4.0986e-06
3.86392e-06
4.11277e-06
4.05152e-06
4.78951e-06
5.00762e-06
4.72232e-06
2.55383e-06
2.06393e-06
3.09368e-06
3.73419e-06
3.20718e-06
3.03998e-06
3.67318e-06
3.81386e-06
4.09081e-06
3.78099e-06
4.53474e-06
4.95071e-06
5.86426e-06
5.66834e-06
5.35794e-06
4.05367e-06
3.89862e-06
4.7541e-06
6.11526e-06
4.30768e-06
4.54548e-06
3.5104e-06
3.79582e-06
3.83392e-06
3.63521e-06
3.93755e-06
4.00321e-06
4.66991e-06
4.97989e-06
5.00419e-06
3.89849e-06
3.72061e-06
3.42203e-06
3.18539e-06
2.5092e-06
2.63455e-06
3.13571e-06
3.10121e-06
3.24807e-06
2.87632e-06
3.52619e-06
3.63839e-06
4.40173e-06
4.22027e-06
3.93871e-06
3.22179e-06
2.8672e-06
4.04321e-06
3.76265e-06
2.59922e-06
3.53067e-06
3.94398e-06
4.62008e-06
5.24056e-06
5.94413e-06
6.71254e-06
7.72728e-06
8.62234e-06
9.63138e-06
9.59927e-06
9.56449e-06
8.99715e-06
9.0591e-06
8.893e-06
8.55941e-06
8.67824e-06
8.53877e-06
8.77224e-06
8.20988e-06
7.60166e-06
6.9928e-06
6.51342e-06
6.22413e-06
5.72774e-06
4.92088e-06
3.96372e-06
2.92533e-06
2.44466e-06
1.68996e-06
0.000308177
8.12079e-05
7.18492e-05
4.54338e-05
3.19681e-05
2.47345e-05
1.66249e-05
1.41264e-05
9.14398e-06
9.26134e-06
8.01198e-06
8.65263e-06
8.5589e-06
7.65722e-06
7.7165e-06
7.76034e-06
7.21456e-06
7.87656e-06
6.74059e-06
7.45215e-06
5.64776e-06
6.46045e-06
5.95398e-06
7.00234e-06
6.40552e-06
5.96154e-06
4.87029e-06
3.77224e-06
2.85588e-06
2.35062e-06
7.8803e-05
5.90491e-05
3.08821e-05
2.76094e-05
1.30608e-05
1.10875e-05
7.70441e-06
6.42735e-06
6.00265e-06
5.35315e-06
4.27162e-06
3.2062e-06
2.57428e-06
2.87439e-06
3.32722e-06
2.84796e-06
3.03941e-06
3.11047e-06
3.10184e-06
2.37176e-06
1.56433e-06
2.01305e-06
2.96696e-06
3.45049e-06
3.21516e-06
2.6624e-06
2.48981e-06
2.56243e-06
3.10137e-06
3.33843e-06
7.04257e-05
3.15686e-05
2.74276e-05
2.5752e-05
1.61657e-05
1.34e-05
9.01056e-06
7.41821e-06
7.02098e-06
7.25661e-06
6.46289e-06
5.4963e-06
4.24612e-06
3.87627e-06
3.75327e-06
3.49293e-06
3.87642e-06
3.45579e-06
3.42721e-06
3.00246e-06
2.74682e-06
3.32567e-06
4.82656e-06
5.38733e-06
4.18902e-06
3.05283e-06
3.25901e-06
4.26186e-06
3.92602e-06
5.05194e-06
4.7971e-05
2.58421e-05
2.42387e-05
1.87709e-05
1.18325e-05
1.02971e-05
6.56472e-06
5.73221e-06
4.96361e-06
6.12489e-06
6.81861e-06
7.03206e-06
5.9801e-06
5.08291e-06
4.28351e-06
3.98543e-06
3.85198e-06
3.16266e-06
3.41248e-06
3.06353e-06
2.56511e-06
4.466e-06
6.49715e-06
6.56542e-06
5.32467e-06
3.78997e-06
3.77318e-06
4.52231e-06
4.22389e-06
6.42909e-06
3.56404e-05
1.28295e-05
1.41515e-05
1.11726e-05
8.4861e-06
8.20253e-06
6.04244e-06
5.43927e-06
4.6205e-06
5.73671e-06
7.32212e-06
7.59045e-06
5.64295e-06
4.61814e-06
3.89489e-06
3.62569e-06
3.22098e-06
2.79108e-06
3.24819e-06
3.39808e-06
4.6538e-06
6.03042e-06
6.50058e-06
6.30185e-06
5.79407e-06
4.54898e-06
4.44171e-06
3.97557e-06
4.35084e-06
7.99579e-06
3.16272e-05
1.03535e-05
1.24588e-05
9.65326e-06
7.51121e-06
6.29539e-06
4.36474e-06
3.57e-06
2.80981e-06
3.70926e-06
5.02434e-06
5.02868e-06
3.32566e-06
2.81281e-06
2.2865e-06
2.41008e-06
2.42957e-06
2.51259e-06
2.56131e-06
3.43421e-06
4.10253e-06
3.90791e-06
3.27508e-06
3.57349e-06
4.28765e-06
4.48212e-06
4.65903e-06
3.31416e-06
4.29192e-06
9.01328e-06
2.47611e-05
6.20193e-06
7.52935e-06
5.58532e-06
4.83308e-06
4.26379e-06
3.01612e-06
2.7554e-06
2.40106e-06
2.89986e-06
3.67266e-06
3.88269e-06
2.56411e-06
2.44939e-06
2.24559e-06
2.33036e-06
2.29749e-06
2.24607e-06
2.8138e-06
3.28559e-06
2.6778e-06
1.86645e-06
1.20426e-06
1.80567e-06
3.35557e-06
4.33588e-06
4.31612e-06
2.79908e-06
4.27032e-06
1.03372e-05
2.49751e-05
4.44327e-06
5.99516e-06
5.9449e-06
5.49979e-06
4.8717e-06
3.61753e-06
3.29059e-06
2.61521e-06
2.62276e-06
3.00231e-06
3.38766e-06
2.387e-06
2.65301e-06
1.95604e-06
1.60314e-06
1.38344e-06
2.03959e-06
2.9686e-06
2.77364e-06
1.62098e-06
1.18239e-06
9.29425e-07
1.62314e-06
3.09894e-06
3.88419e-06
3.71138e-06
2.62478e-06
4.10137e-06
1.12962e-05
2.10451e-05
3.74835e-06
3.49723e-06
3.04148e-06
3.44048e-06
3.72818e-06
3.13538e-06
2.99304e-06
2.55448e-06
2.54807e-06
2.64953e-06
2.66707e-06
2.38597e-06
3.11838e-06
2.09188e-06
1.2519e-06
1.313e-06
1.30636e-06
2.29406e-06
2.28243e-06
1.61391e-06
1.42633e-06
1.43538e-06
2.0664e-06
2.96207e-06
3.3157e-06
3.28381e-06
2.59047e-06
3.79186e-06
1.25753e-05
2.16181e-05
3.35688e-06
3.01181e-06
2.43704e-06
2.70112e-06
3.44826e-06
3.44093e-06
3.32718e-06
2.79834e-06
2.61672e-06
2.3675e-06
2.48649e-06
2.74011e-06
3.33931e-06
3.31204e-06
2.38674e-06
2.56922e-06
2.00614e-06
1.52603e-06
1.55383e-06
1.47588e-06
1.47674e-06
1.78265e-06
2.32674e-06
2.52778e-06
2.56897e-06
2.47683e-06
1.96257e-06
3.22526e-06
1.3519e-05
1.96713e-05
3.05936e-06
2.2098e-06
1.80946e-06
1.51626e-06
1.79537e-06
2.46318e-06
3.08314e-06
2.90553e-06
2.72918e-06
3.11354e-06
4.09137e-06
4.59011e-06
5.43647e-06
5.82378e-06
5.21175e-06
4.89668e-06
3.81294e-06
3.06831e-06
2.33785e-06
2.08356e-06
2.07507e-06
2.31962e-06
2.44932e-06
2.1855e-06
2.09506e-06
1.95886e-06
1.56633e-06
2.72851e-06
1.43558e-05
2.08473e-05
2.79072e-06
1.69651e-06
1.5698e-06
1.19186e-06
1.22872e-06
2.1431e-06
3.02646e-06
2.94285e-06
3.45357e-06
4.53785e-06
4.70251e-06
5.53403e-06
6.3627e-06
6.79494e-06
6.77165e-06
5.86899e-06
4.40548e-06
3.72516e-06
3.33124e-06
2.69146e-06
2.22692e-06
2.13453e-06
2.04666e-06
1.84119e-06
1.8632e-06
1.79468e-06
1.47315e-06
2.16634e-06
1.47991e-05
1.9748e-05
2.28597e-06
1.18047e-06
1.19165e-06
9.1883e-07
6.55799e-07
1.47461e-06
2.73546e-06
2.38634e-06
3.64782e-06
5.00584e-06
5.53439e-06
6.93336e-06
7.62977e-06
7.74768e-06
7.50276e-06
6.93467e-06
5.59819e-06
4.56049e-06
3.82316e-06
3.15912e-06
1.91465e-06
1.73928e-06
1.61258e-06
1.39577e-06
1.41182e-06
1.43535e-06
1.1639e-06
2.13581e-06
1.57247e-05
1.99569e-05
2.14555e-06
1.03375e-06
1.0203e-06
1.08775e-06
1.04149e-06
1.61956e-06
2.79045e-06
2.71883e-06
3.36433e-06
4.31447e-06
5.86009e-06
6.6564e-06
7.50318e-06
7.48848e-06
7.25131e-06
6.59814e-06
5.59338e-06
5.11901e-06
3.26707e-06
2.89564e-06
2.01373e-06
1.32929e-06
1.07914e-06
1.11693e-06
1.0607e-06
9.20849e-07
5.94055e-07
2.1336e-06
1.63813e-05
1.88458e-05
2.53014e-06
1.21365e-06
1.11584e-06
1.13516e-06
1.27853e-06
1.54377e-06
1.94621e-06
2.66087e-06
3.89769e-06
4.66812e-06
5.46375e-06
5.03997e-06
5.87422e-06
6.68254e-06
6.78423e-06
5.88095e-06
5.16981e-06
5.30449e-06
4.45285e-06
3.94231e-06
2.73866e-06
1.70521e-06
1.11015e-06
1.14506e-06
9.6913e-07
7.46379e-07
6.01645e-07
2.17397e-06
1.69993e-05
1.87747e-05
2.79643e-06
1.11759e-06
1.07166e-06
1.24045e-06
1.58278e-06
1.68952e-06
2.04197e-06
3.028e-06
4.24276e-06
4.56485e-06
4.96723e-06
4.37567e-06
5.35882e-06
6.47768e-06
6.66255e-06
5.83808e-06
5.16613e-06
5.62964e-06
4.8408e-06
4.06531e-06
2.946e-06
1.64439e-06
1.03516e-06
1.07184e-06
8.88251e-07
8.32111e-07
6.01528e-07
1.90559e-06
1.68787e-05
1.78273e-05
2.95569e-06
1.2462e-06
1.43864e-06
1.43597e-06
1.80981e-06
1.74773e-06
2.00294e-06
2.60822e-06
3.49791e-06
3.82946e-06
5.22035e-06
5.2719e-06
6.2281e-06
6.92311e-06
7.10435e-06
6.78898e-06
5.70997e-06
5.47877e-06
3.59943e-06
3.6613e-06
2.78693e-06
1.66329e-06
1.19749e-06
1.05523e-06
8.59838e-07
1.35827e-06
1.22002e-06
1.92129e-06
1.69149e-05
1.73925e-05
2.95998e-06
1.71837e-06
1.88015e-06
1.59409e-06
1.81391e-06
2.01376e-06
2.20243e-06
2.34953e-06
3.5977e-06
4.32251e-06
4.73451e-06
5.38471e-06
6.41682e-06
7.20582e-06
7.45454e-06
6.89916e-06
5.5901e-06
4.62991e-06
3.48857e-06
3.77046e-06
2.48227e-06
2.21019e-06
1.81989e-06
1.26928e-06
1.25209e-06
2.16761e-06
2.10109e-06
2.55032e-06
1.67409e-05
1.61458e-05
3.17227e-06
2.10842e-06
2.19384e-06
2.26596e-06
2.65693e-06
2.77626e-06
2.79839e-06
2.70978e-06
3.26674e-06
3.829e-06
3.98025e-06
4.11736e-06
5.3417e-06
6.61527e-06
7.09949e-06
5.9986e-06
4.70965e-06
3.8961e-06
3.56631e-06
3.44225e-06
3.03091e-06
2.61521e-06
2.19796e-06
1.82345e-06
1.74697e-06
2.41208e-06
2.28877e-06
3.22591e-06
1.61012e-05
1.5213e-05
3.34151e-06
2.11604e-06
2.06153e-06
2.74526e-06
3.18469e-06
2.77101e-06
2.48781e-06
2.22998e-06
2.35097e-06
2.43998e-06
3.07681e-06
3.04144e-06
4.0444e-06
5.27931e-06
6.33583e-06
5.57672e-06
4.32173e-06
3.41064e-06
2.78327e-06
2.79766e-06
2.75423e-06
2.65458e-06
2.5468e-06
2.66771e-06
2.33801e-06
2.16806e-06
1.89233e-06
3.45224e-06
1.49746e-05
1.41751e-05
3.81753e-06
2.51337e-06
2.3384e-06
3.51645e-06
3.86523e-06
2.79285e-06
2.08235e-06
1.75823e-06
1.77811e-06
1.68881e-06
2.01699e-06
2.03052e-06
2.91094e-06
2.81033e-06
3.78333e-06
3.53204e-06
3.2586e-06
2.48428e-06
2.1487e-06
2.46117e-06
2.31402e-06
2.38594e-06
2.87143e-06
3.69312e-06
3.39187e-06
2.40437e-06
1.78845e-06
3.43123e-06
1.34381e-05
1.31682e-05
3.8547e-06
2.50391e-06
3.24832e-06
4.27724e-06
3.8277e-06
2.55635e-06
1.8673e-06
1.54676e-06
1.54936e-06
2.02178e-06
2.66872e-06
1.79196e-06
2.14518e-06
2.86579e-06
2.9785e-06
2.84151e-06
2.98358e-06
2.64904e-06
2.14331e-06
2.15479e-06