/*--------------------------------*- C++ -*----------------------------------*\
| =========                 |                                                 |
| \\      /  F ield         | OpenFOAM: The Open Source CFD Toolbox           |
|  \\    /   O peration     | Version:  v1906                                 |
|   \\  /    A nd           | Web:      www.OpenFOAM.com                      |
|    \\/     M anipulation  |                                                 |
\*---------------------------------------------------------------------------*/
FoamFile
{
    version     2.0;
    format      ascii;
    class       volScalarField;
    location    "0.44/oil";
    object      heatTransferCoeff(T);
}
// * * * * * * * * * * * * * * * * * * * * * * * * * * * * * * * * * * * * * //

dimensions      [1 0 -3 -1 0 0 0];


internalField   uniform 0;

boundaryField
{
    maxY
    {
        type            calculated;
        value           uniform 0;
    }
    minX
    {
        type            calculated;
        value           uniform 0;
    }
    maxX
    {
        type            calculated;
        value           uniform 0;
    }
    minY
    {
        type            calculated;
        value           uniform 0;
    }
    minZ
    {
        type            calculated;
        value           uniform 0;
    }
    maxZ
    {
        type            calculated;
        value           uniform 0;
    }
    oil_to_sphere
    {
        type            calculated;
        value           nonuniform List<scalar> 
1536
(
-3268.38
-3133.99
-3074.39
-3279.02
-3310.46
-3169.49
-3077.22
-3046.84
-2839.12
-2878.2
-3316.12
-2885.93
-3070
-2955.84
-3406.77
-3385.44
-3042.62
-2824.3
-1552.73
-3048.12
-3019.2
-3230.67
-3039.38
-3393.27
-3457.85
-3446.46
-3443.85
-3403.04
-3055.61
-3215.09
-3054.36
-2904.53
-2948.27
-3446.92
-3385
-3357.38
-3300.26
-3420.26
-3387.87
-3420.29
-3403.77
-3380.94
-3187.52
-3063.67
-3142.06
-3028.92
-3064.23
-3094.14
-3490.5
-3109.31
-3252.92
-3064.71
-3025.93
-3017.63
-2916.03
-2772.97
-3152.86
-3086.16
-2795
-2727.03
-2622.47
-2724.94
-2633.91
-1514.99
-1539.9
-3019.61
-3153.12
-2921.54
-3302.87
-3139.87
-3462.35
-3243.87
-3329.46
-3423.06
-3393.52
-2880.19
-2686.78
-3090.3
-3385.63
-2771.61
-2732
-2614.59
-2602.15
-2608.64
-2514
-2710.08
-2573.22
-3030.01
-2862.04
-2721.8
-2598.53
-1493.58
-1528.61
-1525.92
-1545.21
-3031.17
-3160.38
-2833.78
-2981.72
-3269.2
-3171.05
-3461.02
-3169.46
-3137.35
-3188.55
-3428.26
-3397.71
-3139.29
-3160.41
-2829.36
-2779.85
-2957.94
-2739
-2653.25
-2610.54
-2581.13
-2601.84
-2549.35
-2626.99
-2590.27
-2745.56
-2602.15
-1514.5
-3009.55
-3257.57
-3190.15
-3302.61
-3092.87
-3124.15
-3284.25
-3055.26
-3271.82
-3083.08
-3264.43
-3090.01
-3257.29
-3043.91
-2800.26
-3019.2
-3124.89
-2701.17
-2638.65
-3048.37
-2753.99
-2591.87
-2794.83
-3254.19
-2712.17
-2556.97
-3294.76
-3347.02
-2661.37
-3255.78
-3220.97
-3200.18
-2483.31
-3140.44
-2504.05
-3282.31
-2555.73
-3234.29
-2601.06
-3468.03
-3441.77
-3362.17
-3293.26
-3213.9
-2420.02
-3069.02
-2520.63
-3029.08
-2951.57
-2979.38
-2856.28
-2749.65
-2559.34
-3242.35
-2683.31
-2721.12
-3236.56
-3478.79
-3429.37
-3331.67
-3371.28
-2465.3
-3034.94
-2462.86
-3044.67
-2969.9
-3120.15
-3216.46
-3336.63
-2918.82
-3267.01
-3445.02
-3267.58
-2920.22
-3096.95
-2617.47
-3182.63
-3107.31
-3179.62
-2945.93
-2681.29
-2808.05
-2807.41
-2797.77
-2811.66
-2879.48
-2538.58
-3022.75
-2808.66
-2855.67
-2700.75
-3077.94
-2995.17
-2714.36
-2864.19
-3005.35
-2557.26
-2921.44
-3234.65
-3120.46
-2930.14
-2878.84
-2845.28
-3392.43
-2867.01
-3417.85
-3532.16
-3395.46
-3220.43
-3261.32
-2590.44
-2669.5
-3007.85
-2734.92
-2710.58
-2675.59
-2907.28
-2878.1
-1921.28
-2308.29
-2986.7
-2622.22
-3236.48
-3193.41
-2914.52
-3075.1
-2614.29
-3185.11
-3506.37
-3131.08
-3306.19
-2696.59
-3315.44
-3338.96
-3024.44
-2816.72
-2830.94
-2898.1
-2528.79
-2803.09
-2314.28
-1909.05
-2004.93
-2037.01
-2011.01
-3193.39
-2946.16
-3157.93
-2997.66
-2973.61
-3212.43
-3139.95
-3013.03
-3005.96
-2646.91
-3181.22
-2881.28
-3296.02
-3276.38
-3135.58
-2990.19
-3203.49
-3167.02
-3120.21
-3234.98
-3041.71
-2934.6
-3156.27
-2487.37
-3095.63
-2752.33
-2851.88
-2860.74
-2807.95
-2720.53
-2849.32
-2858.85
-3083.01
-3019.71
-2871.08
-2761.16
-2783.05
-3246.21
-2553.59
-3367.62
-3333.65
-2373.48
-2974.82
-2453.72
-3223.87
-3124.33
-3144.34
-3051.07
-3180.43
-3247.59
-3315.32
-2904.69
-3194.01
-3103.8
-3017.41
-3340.97
-3249.58
-3031.45
-3167.85
-2907.86
-3241
-2933.38
-2950.37
-2824.54
-3282.08
-3154.63
-2999.58
-3334.16
-2955.54
-3219.72
-3276.09
-2848.18
-2578.86
-3169.36
-2984.24
-3088.91
-3030.43
-3029.25
-3114.3
-3082.79
-2998.86
-3197.09
-3212.5
-3302.01
-3115.13
-3286.7
-3003.24
-3213.62
-3113.74
-3044.37
-3273.82
-3043.92
-3294.77
-3209.08
-3054.19
-3268.07
-3092.06
-3081.07
-3221.9
-3168.43
-3196.54
-3150.68
-2979.48
-3364.79
-3234.91
-3083.41
-3287.68
-3045.33
-3184.71
-3173.54
-3002.88
-2443.35
-3108.23
-2660.11
-2982.4
-2762.31
-2850.11
-3197.03
-3025.4
-2486.74
-3059.12
-2831.16
-2887.46
-2799.64
-2667.18
-2867.1
-2759.82
-2586.01
-3051.43
-2544.18
-2989.76
-2799.63
-3200.95
-3018.37
-2372.27
-3141.93
-3013.75
-2794.28
-3061.21
-2673.85
-2942.37
-2830.22
-2754.75
-2781.71
-2841.29
-2869.02
-2803.49
-2765.3
-2829.56
-2870
-3007.36
-2856.46
-2849.18
-2871.91
-2775.56
-2625.2
-2977.13
-2741.4
-2705.09
-2828.9
-2540.3
-2767.9
-2931.62
-2740.55
-2836.25
-2770.48
-2849.75
-2731.58
-2846.45
-2506.85
-2387.49
-2695.76
-2635.84
-2910.35
-2741.12
-2675.86
-2653.86
-2901.27
-2818.25
-2937.98
-3018.38
-2829.1
-2978.11
-2894.79
-2802.78
-2369.45
-2312
-2282.48
-2449.97
-2048.6
-2080.3
-2416.84
-2110.05
-2120.03
-2065.21
-2450.02
-2899.24
-3208.72
-3139.25
-2924.41
-3003.12
-3270.64
-3170.21
-3127.88
-3246.13
-2841.86
-3226.75
-3096.84
-3259.72
-2995.05
-3383.57
-3109.94
-2956.35
-3232.07
-3226.35
-2916.58
-3214.89
-3264.22
-3076.36
-3201.24
-2531.95
-3263.07
-2578.39
-3283.29
-3430.51
-3492.12
-3461.22
-3542.2
-3280.73
-3294.07
-3371.05
-3419.81
-3242.85
-2537.3
-3384.95
-3300.3
-2444.99
-2514.68
-3037.32
-3321.58
-3353.13
-2495.61
-3164.68
-3359.61
-3341.61
-3305.52
-3098.93
-2821.41
-2644.93
-2911.84
-2729.6
-2624.13
-3053.2
-2850.53
-2673.51
-2835.34
-2845.15
-2452.47
-2782.05
-2707.24
-2330.89
-2681.89
-2386.43
-2808.44
-2416.44
-2856.01
-2643.6
-2700.12
-2735.97
-2901.66
-2826.89
-2726.91
-2553.14
-2935.49
-2777.36
-2589.89
-3008.08
-2871.11
-2757.62
-2920.52
-2824.33
-2825.75
-2778.84
-2464.31
-2767.32
-2828.59
-2005.61
-2308.16
-2043.75
-2274.1
-1946.29
-1951.13
-1984.66
-1996.87
-2272.41
-2466.88
-2116.62
-2096.29
-2084.58
-2100.3
-2476.01
-2097.44
-2081.67
-2131.46
-2250.47
-2439.29
-2347.42
-2382.89
-2092.59
-3254.15
-2866.04
-2656.99
-3270.6
-3014.73
-2742.86
-3310.22
-2851.57
-3014.53
-2975.81
-2906.63
-3345.56
-3004.13
-3235.32
-3151.43
-2987.45
-2992.11
-2729.06
-2812.16
-3216.23
-3189.39
-2761.92
-3222.05
-3274.63
-2917.36
-3073.2
-2870.62
-3263.34
-3348.12
-2966.73
-3230.01
-2978.25
-3017.33
-3315.6
-2547.2
-3468.77
-3452.52
-2584.79
-2615.32
-3263.96
-3453.91
-3474.48
-2988.02
-3240.66
-3438.82
-3419.88
-3395.13
-3269.7
-3295.94
-3372.69
-2524.62
-2663.58
-3046.6
-2518.37
-3295.56
-2484.32
-2503.1
-2722.36
-3354.26
-3382.17
-3267.42
-2595.8
-3325.72
-2709.76
-3221.17
-3076.29
-2523.41
-3225.79
-2449.72
-2808.23
-2537.73
-2277.8
-2823.45
-2931.71
-2703.84
-2751.59
-2677.29
-2789.37
-2751.05
-2921.63
-2589.82
-2838.23
-2674.86
-2630.04
-2782.69
-2826.26
-2367.32
-2678.33
-2703.38
-2384.21
-2706.35
-2693.88
-2325.55
-2467.89
-2868.13
-2818.66
-2494.41
-2631.55
-3064.01
-2805.96
-2709.72
-2556.47
-2839.13
-2843.15
-2772.35
-2522.88
-2304.11
-2823
-2940.14
-2949.9
-2970.64
-2693.75
-2793.22
-2619.68
-2776.54
-2902.72
-2554.33
-2765.6
-2528.15
-2571.9
-1999.03
-1985.33
-1979.55
-1977.7
-2253.24
-2245.61
-1943.56
-1930.1
-2330.13
-3030.49
-3168.53
-3162.24
-3113.3
-3226.44
-3097.67
-3125.77
-3234.22
-3145.96
-2923.64
-3147.45
-3111.8
-2975.34
-3290.57
-3241.33
-3187.1
-3165.26
-3257.71
-3239.79
-3311.32
-2888.24
-2997.34
-2977.19
-3156.67
-3043.44
-3027.67
-2789.15
-3239.17
-3292.86
-3077
-3147.52
-3060.2
-3342.71
-3249.03
-3168.41
-3064.53
-3255.33
-3133.59
-3094.76
-3219.71
-3152.14
-3083.5
-3313.65
-3159.42
-3076.03
-3149.87
-3088.21
-3189.46
-3257.18
-3044.08
-3105.05
-3246.45
-3277.12
-2963.2
-3248.52
-3158.94
-3037.96
-3256.13
-3181.74
-3106.81
-3249.33
-3156.39
-2993.74
-2927.65
-3330.81
-3290.36
-2959.17
-3267.26
-3284.19
-3175.87
-3120.06
-3115.98
-2597.03
-2986.58
-2767.86
-2913.35
-2856.54
-2952.4
-2467.42
-3140.57
-3194.72
-2515.6
-3056.05
-3017.99
-2899.95
-2851.84
-2645.34
-3144.8
-3132.14
-2948.07
-2521.25
-3141.62
-2894.31
-2965.29
-3033.29
-2637.27
-3031.47
-2787.77
-2783.59
-2877
-2527.24
-3198.03
-3029.84
-3067.8
-2797.76
-2853.36
-2659.04
-3023.12
-3031.7
-2845.15
-2900.15
-2795.47
-2827.15
-2866.72
-2928.53
-2827.28
-2910.42
-2638.52
-2914
-2781.16
-2734.26
-2824.18
-2767.55
-2544.28
-2721.34
-2816.35
-2672.82
-2897.76
-2885.5
-2777.81
-2729.65
-2898.34
-3054.27
-2845.81
-2821.08
-2934.83
-2815.9
-2816.4
-2805.11
-2543.25
-2378.69
-2858.83
-2511.73
-2860.28
-2819.27
-2643.67
-2621.23
-2816.99
-2543.48
-3001.78
-2847.23
-2817.11
-2790.25
-2785.71
-2628.1
-2940.56
-2820.74
-3157.49
-3333.8
-2919.89
-3036.14
-2676.38
-3123.97
-2679.38
-2805.63
-3302.28
-3273.91
-2792.95
-2765.38
-3156.24
-3159.37
-2950.6
-3104.03
-2619.67
-2038.22
-3321.01
-2947.08
-3083.18
-2558.29
-2028.1
-2712.08
-3288.96
-3413.88
-3242.86
-2728.56
-3197.18
-3245.27
-3045.65
-3272.79
-2946.9
-3178.39
-3036.77
-2844.02
-3217.56
-3184.48
-3042.4
-3155.5
-3137.48
-3085.36
-3141.2
-3048.93
-3200.85
-2681.48
-2854.68
-3421.98
-2725.86
-3302.59
-2912.53
-3187.85
-2972.69
-3145.26
-2836.23
-2929.96
-3326.99
-2957.33
-3288.39
-2892.74
-2900.56
-3341.12
-2685.06
-3316.47
-3466.63
-3444.12
-3246.02
-3322.16
-3283.23
-3243.31
-3251.69
-2917.83
-2841.14
-3303.78
-2733.08
-3048.66
-3057.8
-3048.52
-3271.31
-3293.01
-3297.39
-2911.6
-3279.9
-3253.13
-3335.74
-3408.39
-3155.17
-3329.18
-3254.58
-2871.45
-3107.87
-3126.78
-3094.52
-2912.66
-3108.5
-2967.59
-3081.9
-2508.02
-2911.74
-3041.35
-2882.78
-2456.66
-2899.2
-2457.16
-2389.53
-2944.87
-2918.31
-2441.86
-3082.91
-3321.47
-3362.4
-3422.78
-3161.79
-3294.4
-3356.62
-2898.89
-3402.26
-2786.59
-3042.01
-2941.28
-2871.53
-3313.54
-2588.36
-2704.4
-3171.11
-2621.78
-2871.29
-3085.59
-2991.1
-2695.33
-2371.14
-2295.54
-3084.25
-2930.48
-2072.6
-2054.93
-2267.24
-3104.65
-2382.69
-2954.69
-2319.73
-2919.97
-2449.16
-2959.16
-2382.72
-2915.62
-3318.68
-3293.29
-3355.71
-2702.79
-2639.4
-3139.96
-3243.95
-3116.67
-3281.4
-2758.91
-3343.53
-2901.25
-2979.94
-3249.12
-2854
-3038.01
-3368.27
-2591.78
-3327.94
-2911.71
-2821.9
-2584.07
-3123.02
-2845.44
-3022.4
-3155.47
-2978.59
-2442.08
-2725.18
-2390.68
-3059.91
-2895.51
-2104.23
-2291.71
-2071.89
-3052
-3017.61
-3347.68
-3266.1
-3275.42
-3232.35
-3094.51
-3339.41
-3358.6
-3328.6
-3169.15
-2970.06
-3068.85
-3140.76
-3082.08
-2933.86
-2978.52
-2930.91
-3046.01
-3462.79
-3439.3
-3506.24
-3168.01
-2963.44
-3431.19
-3462.06
-2629.18
-3249.52
-3307.2
-2747.06
-3445.6
-3482.44
-2661.88
-3132.37
-3242.43
-2866.14
-3435.47
-3480.06
-3457.12
-2668.84
-3153.05
-3289.16
-2887.73
-3440.13
-3163.65
-2791.21
-3356.36
-3071.66
-2673.33
-3389.38
-3315.09
-3264.27
-3265.17
-3475.31
-3431.83
-3423.5
-3524.17
-2488.38
-3184.06
-3499.88
-2682.67
-3074.51
-3360.89
-3309.26
-3065.57
-2984.58
-3393.55
-3024.22
-2754.49
-3348
-3325.97
-3328.48
-3228.82
-3475.18
-2642.09
-3127.84
-3490.49
-2621.96
-2943.98
-3379.51
-3202.47
-3244.55
-3215.82
-3330.32
-3364.81
-3252.07
-3183.94
-3147.05
-3195.26
-3151.78
-3193.25
-2664.11
-3213.48
-3043.43
-3132.77
-3102.81
-3128.48
-3098.12
-2947.16
-2646.54
-2636.14
-2849
-2909.46
-2817.79
-2828.92
-2880.38
-3062.91
-2676.28
-2629.98
-3248.72
-3466.92
-3466.29
-3265.74
-2535.6
-2518.6
-3116.14
-2917.53
-3402.25
-3123.57
-2566.13
-2630.71
-2867.05
-2818.55
-2783.51
-2669.53
-2721.94
-2314.37
-1958.91
-3133.2
-3185.97
-3136.42
-3194.87
-3183.43
-3182.16
-2767.64
-3477.49
-3331.75
-2913.97
-2984.63
-2683.24
-2334.14
-1961.57
-2299.61
-2751.09
-3121.13
-2647.57
-2695.27
-3204.5
-3125.44
-3028.58
-3071.76
-3265.71
-3160.25
-3269.99
-2745.45
-2611.07
-3200.77
-3123.66
-3123.88
-2779.01
-2677.48
-2923
-2900.57
-2886.27
-2756.92
-2737.37
-3194.41
-2907.08
-3268.78
-3335.14
-3314.38
-3264.48
-3130.78
-2671.93
-3222.54
-3261.46
-3194.95
-3385.61
-3394.21
-3263.98
-2761.07
-3047.45
-3109.84
-3103.8
-3048.99
-3075.53
-3181.05
-3007.17
-2811.35
-3085.82
-3063.65
-3029.72
-3080.61
-3065.09
-3112.48
-3132.37
-3120.55
-3190.86
-3120.17
-3127.12
-2715.87
-3138.56
-3246.53
-3082.61
-2675.83
-3176.57
-3161.8
-3228.17
-3172.31
-3164.75
-3164.12
-3107.1
-2757.96
-3148.48
-3126.19
-3318.76
-3236.97
-3114.07
-2951.28
-3029.68
-3042.66
-3214.88
-3212.31
-2781.6
-3051.79
-3210.98
-3210.86
-3172.94
-3110.41
-3132.24
-3279
-2762.55
-3172.31
-3159.85
-3113.01
-3185.12
-3125.55
-3139.19
-2841.85
-2901.33
-3121.53
-3071.03
-3111.63
-3085.43
-2827.78
-2942.31
-3136.82
-3283.26
-2726.61
-2948.07
-3022.31
-3015.49
-3090.62
-2978.6
-3105.39
-3128.18
-2845.28
-2907.46
-2996.65
-2825.53
-2811.97
-2675.64
-2658.03
-2910.78
-2754.49
-2773.35
-2765.02
-2302.73
-2317.45
-2770.59
-2967.36
-2811.71
-2791.87
-2800.42
-2782.24
-2731.87
-2532.65
-2800.01
-2728.29
-2557.08
-3102.11
-2991.83
-2188.87
-2703.45
-2968.12
-2199.85
-2617.17
-2386.46
-2212.27
-3100.54
-3195.63
-2459.58
-2923.06
-2415.13
-2380.41
-2547.95
-3048.87
-2998.98
-3325.78
-3164.93
-2705.49
-3175.05
-3295.72
-2840.67
-3140.16
-3170.41
-3184.06
-3132.49
-3220.99
-3187.77
-3185.47
-3123.65
-2796.97
-2960.06
-3185.12
-3123.81
-3175.38
-3217.87
-3527.65
-2473.67
-3265.26
-3499.28
-2597.11
-3223.51
-3351.68
-3243
-2919.92
-3264.85
-2655.56
-3462.51
-2669
-3096.69
-3097.87
-3444.96
-3213.18
-3355.47
-3324.08
-2477.97
-3289.72
-2959.94
-2833.29
-2921.4
-2776.94
-2390.12
-2466.53
-2928.09
-2803.31
-2833.17
-2763.59
-3013.15
-2540.13
-2742.52
-2371.74
-2915.95
-2784.5
-1913.91
-1916.88
-2296.74
-1954.4
-2318.59
-2340.91
-2105.34
-3132.81
-2071.66
-2425.99
-3066.92
-3077.89
-2929.83
-2971.53
-2675.72
-2417.56
-2442.71
-2505.99
-3038.69
-2987.12
-2535.58
-3190.19
-3103.15
-2941.98
-3351.59
-3170.44
-3162.1
-3167.7
-2711.95
-3164.12
-3239.81
-2840.25
-3211.63
-3195.8
-3191.83
-3204.54
-3004.65
-3259.13
-3203
-2968.03
-2675.05
-3361.41
-3474.57
-3412.97
-3524.2
-3472.08
-3105.2
-3459.03
-2630.51
-3196.16
-2907.96
-3191.18
-3404.99
-3134.86
-3399.23
-3265.5
-3087.93
-3103.45
-3382.34
-2967.36
-2748.64
-3112.99
-2882.39
-2826.11
-2857.97
-2728.36
-3123.77
-2814.47
-2717.14
-2412.29
-2949.47
-2790.1
-3032.23
-2710.66
-2253.33
-2350.64
-2109.63
-3089.16
-3240.49
-3211.59
-3047.38
-3151.18
-3079.99
-3139.11
-3141.37
-3197.58
-3239.5
-3235.74
-2757.78
-2960.16
-3200.23
-3075.66
-3151.3
-3167.42
-3204.67
-3235.53
-3162.12
-3236.6
-3110.47
-3158.81
-3334.35
-3150.02
-3284.96
-2511.28
-3076.42
-3182.59
-3138.42
-3148.36
-3174.91
-2657.05
-3131.05
-3264.48
-2745.52
-3140.17
-3279.77
-2880.06
-3095.17
-3138.82
-3120.99
-3169.09
-2806.34
-3116.26
-3175.26
-3095.77
-3105.36
-2595.86
-2800.62
-2785.06
-2344.09
-2774.32
-2977.23
-2495.04
-2963.94
-2780.69
-2756.92
-2918.61
-3023.9
)
;
    }
}


// ************************************************************************* //
