/*--------------------------------*- C++ -*----------------------------------*\
| =========                 |                                                 |
| \\      /  F ield         | OpenFOAM: The Open Source CFD Toolbox           |
|  \\    /   O peration     | Version:  v1906                                 |
|   \\  /    A nd           | Web:      www.OpenFOAM.com                      |
|    \\/     M anipulation  |                                                 |
\*---------------------------------------------------------------------------*/
FoamFile
{
    version     2.0;
    format      ascii;
    class       volScalarField;
    location    "0.44/oil";
    object      nut;
}
// * * * * * * * * * * * * * * * * * * * * * * * * * * * * * * * * * * * * * //

dimensions      [0 2 -1 0 0 0 0];


internalField   nonuniform List<scalar> 
168664
(
2.49045e-06
2.65404e-07
2.73782e-07
7.75577e-08
6.67415e-08
3.39269e-08
2.2773e-08
1.81388e-08
1.1734e-08
1.24343e-08
1.05995e-08
1.22795e-08
1.12505e-08
1.11871e-08
9.96836e-09
9.71792e-09
8.8303e-09
8.00053e-09
7.1596e-09
6.38468e-09
5.89525e-09
5.89167e-09
5.7317e-09
5.26607e-09
4.46332e-09
3.53257e-09
2.52159e-09
1.87742e-09
1.21874e-09
2.43491e-10
2.64535e-07
3.08639e-07
7.08485e-08
6.01402e-08
2.65278e-08
2.06345e-08
1.33806e-08
1.1614e-08
8.67963e-09
9.06445e-09
8.70804e-09
9.72055e-09
9.32336e-09
9.42795e-09
8.71879e-09
8.61832e-09
7.92289e-09
7.33357e-09
6.60954e-09
6.07966e-09
5.76521e-09
5.71484e-09
5.50611e-09
5.07955e-09
4.6034e-09
3.98891e-09
3.36555e-09
2.68189e-09
2.7141e-09
1.52069e-09
2.71796e-07
7.08064e-08
6.43076e-08
4.16956e-08
3.08448e-08
2.27797e-08
1.63946e-08
1.32947e-08
1.04724e-08
9.83293e-09
9.28431e-09
9.53182e-09
9.00507e-09
9.13158e-09
8.50664e-09
8.3502e-09
7.71288e-09
7.18278e-09
6.49389e-09
6.02988e-09
5.88597e-09
5.89043e-09
5.80627e-09
5.49218e-09
5.06123e-09
4.56203e-09
4.09272e-09
3.78979e-09
4.49358e-09
3.53403e-09
7.99042e-08
6.16704e-08
4.32476e-08
3.23419e-08
2.28057e-08
1.78184e-08
1.42748e-08
1.20579e-08
1.06165e-08
9.79752e-09
9.33644e-09
9.11978e-09
8.89885e-09
9.0119e-09
8.42951e-09
8.12665e-09
7.47554e-09
6.96195e-09
6.35836e-09
5.97486e-09
5.80909e-09
5.84474e-09
5.92977e-09
5.73186e-09
5.27107e-09
4.73894e-09
4.38959e-09
4.63839e-09
5.56641e-09
4.89169e-09
6.79623e-08
2.91579e-08
3.2113e-08
2.29614e-08
2.08485e-08
1.757e-08
1.4964e-08
1.33722e-08
1.17675e-08
1.09541e-08
1.01013e-08
9.58622e-09
9.27039e-09
9.25317e-09
8.58465e-09
8.11087e-09
7.45955e-09
6.98779e-09
6.62009e-09
6.53138e-09
6.36598e-09
6.38673e-09
6.42587e-09
6.3146e-09
5.95745e-09
5.52711e-09
5.33215e-09
5.80697e-09
6.86444e-09
6.61388e-09
4.13137e-08
2.70234e-08
2.77677e-08
2.06878e-08
1.94703e-08
1.54183e-08
1.4201e-08
1.2236e-08
1.14275e-08
1.05843e-08
1.00736e-08
9.37703e-09
8.97883e-09
9.02003e-09
8.41176e-09
7.72345e-09
7.06263e-09
6.53612e-09
6.44857e-09
6.60121e-09
6.42685e-09
6.32404e-09
6.25676e-09
6.19697e-09
5.95167e-09
5.82321e-09
5.84079e-09
6.52053e-09
7.60554e-09
7.65135e-09
2.95519e-08
1.9916e-08
2.05766e-08
1.66992e-08
1.63648e-08
1.42163e-08
1.32956e-08
1.20811e-08
1.12551e-08
1.06989e-08
1.02245e-08
9.64068e-09
9.33167e-09
9.588e-09
8.89074e-09
7.89491e-09
7.03698e-09
6.42613e-09
6.35863e-09
6.53242e-09
6.36392e-09
6.30639e-09
6.32215e-09
6.3851e-09
6.38917e-09
6.54746e-09
6.84612e-09
7.64536e-09
8.74986e-09
9.17974e-09
2.85943e-08
2.09269e-08
2.09013e-08
1.7112e-08
1.65671e-08
1.3786e-08
1.30017e-08
1.12549e-08
1.05742e-08
9.79939e-09
9.63443e-09
9.3258e-09
9.53067e-09
1.00145e-08
9.39479e-09
8.13256e-09
7.22071e-09
6.42784e-09
6.18487e-09
6.04284e-09
5.79926e-09
5.76862e-09
5.89994e-09
6.17232e-09
6.507e-09
7.01441e-09
7.56029e-09
8.42545e-09
9.4755e-09
1.01278e-08
2.21689e-08
1.74327e-08
1.70615e-08
1.4951e-08
1.43543e-08
1.25758e-08
1.1756e-08
1.04336e-08
9.70686e-09
9.107e-09
9.1762e-09
9.5139e-09
1.01109e-08
1.06234e-08
9.98632e-09
8.72642e-09
7.6127e-09
6.59131e-09
6.08159e-09
5.72638e-09
5.45607e-09
5.59606e-09
5.92728e-09
6.46634e-09
7.10777e-09
7.81983e-09
8.58225e-09
9.4343e-09
1.03476e-08
1.12232e-08
2.33764e-08
1.85294e-08
1.80577e-08
1.58919e-08
1.49278e-08
1.2726e-08
1.16218e-08
9.90748e-09
9.01113e-09
8.25292e-09
8.57837e-09
9.22067e-09
9.90176e-09
9.99103e-09
9.55308e-09
8.6617e-09
7.49293e-09
6.40891e-09
5.76301e-09
5.26468e-09
5.0147e-09
5.29311e-09
5.80373e-09
6.49473e-09
7.21747e-09
8.11443e-09
9.07895e-09
9.89417e-09
1.07336e-08
1.17331e-08
2.04796e-08
1.67715e-08
1.61351e-08
1.46547e-08
1.36701e-08
1.20831e-08
1.10428e-08
9.53424e-09
8.626e-09
8.10715e-09
8.56928e-09
9.22552e-09
9.33238e-09
8.68633e-09
8.11617e-09
7.5882e-09
6.72722e-09
5.97853e-09
5.45572e-09
5.11187e-09
5.07331e-09
5.60039e-09
6.30291e-09
7.129e-09
7.89898e-09
8.90164e-09
9.92785e-09
1.05962e-08
1.13447e-08
1.24458e-08
2.14774e-08
1.75704e-08
1.67828e-08
1.5304e-08
1.43992e-08
1.29757e-08
1.19487e-08
1.01594e-08
8.88322e-09
7.92256e-09
7.93091e-09
8.06287e-09
7.4277e-09
6.29339e-09
5.73359e-09
5.35638e-09
4.74944e-09
4.68024e-09
4.66656e-09
4.65165e-09
5.00072e-09
5.85343e-09
6.7756e-09
7.83478e-09
8.70795e-09
9.68201e-09
1.05436e-08
1.10392e-08
1.17158e-08
1.28939e-08
1.97263e-08
1.66596e-08
1.60524e-08
1.51574e-08
1.44074e-08
1.33257e-08
1.23788e-08
1.06618e-08
9.24391e-09
7.68785e-09
7.01686e-09
6.43777e-09
5.36071e-09
4.59786e-09
4.09884e-09
3.7872e-09
3.33595e-09
3.1822e-09
3.65986e-09
4.01334e-09
4.80821e-09
6.30781e-09
7.4946e-09
8.59751e-09
9.4849e-09
1.0406e-08
1.11297e-08
1.16214e-08
1.2368e-08
1.3836e-08
1.9276e-08
1.63155e-08
1.58215e-08
1.51198e-08
1.44019e-08
1.33089e-08
1.23871e-08
1.09748e-08
9.75698e-09
7.53878e-09
5.71556e-09
3.97752e-09
2.7882e-09
2.22443e-09
2.04009e-09
1.98978e-09
1.49011e-09
1.32614e-09
1.92997e-09
3.15064e-09
4.60421e-09
6.62365e-09
8.03434e-09
9.16142e-09
9.93148e-09
1.08117e-08
1.15528e-08
1.2129e-08
1.29599e-08
1.47489e-08
1.81803e-08
1.55191e-08
1.49953e-08
1.43876e-08
1.37342e-08
1.28041e-08
1.19309e-08
1.07523e-08
9.72286e-09
7.58343e-09
5.42848e-09
3.51281e-09
2.24155e-09
1.6586e-09
1.69222e-09
1.42575e-09
1.06559e-09
1.34191e-09
2.07818e-09
3.44713e-09
4.99223e-09
7.05097e-09
8.59988e-09
9.82479e-09
1.06056e-08
1.14518e-08
1.2199e-08
1.28011e-08
1.35921e-08
1.56238e-08
1.79756e-08
1.53116e-08
1.47212e-08
1.41107e-08
1.34986e-08
1.26072e-08
1.17204e-08
1.03926e-08
9.08548e-09
7.06803e-09
5.21762e-09
3.50523e-09
2.29492e-09
1.55181e-09
1.91876e-09
1.50705e-09
1.15304e-09
1.81696e-09
2.6037e-09
3.96315e-09
5.3448e-09
7.29755e-09
8.64726e-09
9.85852e-09
1.06143e-08
1.1498e-08
1.2244e-08
1.28785e-08
1.35514e-08
1.54824e-08
1.66173e-08
1.43596e-08
1.37423e-08
1.32008e-08
1.26137e-08
1.17796e-08
1.09832e-08
9.84622e-09
8.42919e-09
6.32704e-09
4.24502e-09
2.69404e-09
1.81172e-09
1.63187e-09
2.24913e-09
2.00027e-09
1.68884e-09
2.5254e-09
3.57023e-09
4.86702e-09
6.04581e-09
7.71042e-09
8.8478e-09
9.87573e-09
1.06522e-08
1.15923e-08
1.23838e-08
1.29552e-08
1.35204e-08
1.53393e-08
1.57812e-08
1.37984e-08
1.31608e-08
1.25958e-08
1.1967e-08
1.10404e-08
1.01871e-08
9.01453e-09
7.79209e-09
5.95299e-09
4.47868e-09
3.66163e-09
2.86882e-09
2.81033e-09
3.23977e-09
2.97183e-09
2.9112e-09
3.79684e-09
5.00578e-09
6.03217e-09
6.38885e-09
7.6958e-09
8.57729e-09
9.6924e-09
1.05597e-08
1.15265e-08
1.23557e-08
1.30675e-08
1.37651e-08
1.56366e-08
1.48088e-08
1.31807e-08
1.24941e-08
1.18566e-08
1.11344e-08
1.01888e-08
9.29269e-09
8.15123e-09
7.0939e-09
6.03272e-09
5.3835e-09
5.06356e-09
4.5506e-09
4.31981e-09
4.56194e-09
4.20372e-09
4.25268e-09
5.03032e-09
5.81391e-09
6.23757e-09
6.29181e-09
6.9079e-09
7.61353e-09
8.73774e-09
9.58057e-09
1.03998e-08
1.12326e-08
1.2263e-08
1.3296e-08
1.52672e-08
1.40111e-08
1.24452e-08
1.16645e-08
1.08365e-08
9.98743e-09
9.00575e-09
8.2283e-09
7.30082e-09
6.52089e-09
5.82837e-09
5.70172e-09
5.74781e-09
5.79571e-09
6.04391e-09
6.45943e-09
6.26802e-09
6.34891e-09
6.6245e-09
6.43248e-09
6.18982e-09
5.85947e-09
6.20482e-09
6.72052e-09
7.69658e-09
8.46062e-09
9.29261e-09
1.0151e-08
1.12546e-08
1.23193e-08
1.41158e-08
1.28541e-08
1.1496e-08
1.08189e-08
9.91945e-09
9.045e-09
8.22691e-09
7.55704e-09
6.79327e-09
6.12824e-09
5.69318e-09
5.70317e-09
5.79835e-09
6.07026e-09
6.78597e-09
7.73079e-09
8.08543e-09
8.15997e-09
7.63177e-09
6.9065e-09
6.25096e-09
5.68422e-09
5.82762e-09
6.2678e-09
7.14271e-09
7.81225e-09
8.643e-09
9.43633e-09
1.04276e-08
1.13542e-08
1.26104e-08
1.20209e-08
1.09601e-08
1.03723e-08
9.43912e-09
8.60074e-09
7.90233e-09
7.35357e-09
6.76476e-09
6.27033e-09
5.97974e-09
5.76641e-09
5.49548e-09
5.73837e-09
6.64198e-09
7.76659e-09
8.60336e-09
8.63887e-09
7.55479e-09
6.62488e-09
6.21975e-09
5.87307e-09
6.03548e-09
6.30174e-09
6.9234e-09
7.36579e-09
8.04438e-09
8.67584e-09
9.62586e-09
1.05679e-08
1.15239e-08
1.08264e-08
1.00726e-08
9.33229e-09
8.43764e-09
7.84704e-09
7.32481e-09
6.96144e-09
6.62031e-09
6.36503e-09
6.28156e-09
5.96483e-09
5.42104e-09
5.40164e-09
6.21957e-09
7.22912e-09
8.04671e-09
8.00843e-09
7.03208e-09
6.41984e-09
6.41598e-09
6.27307e-09
6.28062e-09
6.2884e-09
6.59838e-09
6.77705e-09
7.2576e-09
7.74535e-09
8.66623e-09
9.61444e-09
1.02221e-08
9.76578e-09
9.18602e-09
8.26922e-09
7.53181e-09
7.1785e-09
6.9017e-09
6.79276e-09
6.71716e-09
6.63453e-09
6.5556e-09
6.1054e-09
5.54243e-09
5.31967e-09
5.80231e-09
6.55698e-09
7.15706e-09
7.20213e-09
6.67434e-09
6.36799e-09
6.57006e-09
6.58976e-09
6.63198e-09
6.51279e-09
6.59418e-09
6.54483e-09
6.73613e-09
6.98203e-09
7.84501e-09
8.81214e-09
9.21527e-09
8.07079e-09
7.88784e-09
6.98275e-09
6.47377e-09
6.31092e-09
6.21163e-09
6.32686e-09
6.48325e-09
6.62638e-09
6.55199e-09
6.00802e-09
5.5625e-09
5.59329e-09
5.862e-09
6.27727e-09
6.52951e-09
6.80447e-09
6.66004e-09
6.33976e-09
6.29401e-09
6.42652e-09
6.57718e-09
6.4497e-09
6.44044e-09
6.21937e-09
6.13916e-09
6.06572e-09
6.84407e-09
7.81999e-09
7.88757e-09
6.82154e-09
6.87004e-09
5.93085e-09
5.6054e-09
5.74401e-09
5.92496e-09
6.13526e-09
6.42477e-09
6.67616e-09
6.71969e-09
6.21126e-09
5.85142e-09
6.04283e-09
6.2634e-09
6.3351e-09
6.28232e-09
6.67905e-09
6.79594e-09
6.39709e-09
6.1121e-09
6.12606e-09
6.36815e-09
6.36162e-09
6.35181e-09
6.05395e-09
5.66904e-09
5.39593e-09
6.02668e-09
7.03453e-09
6.86745e-09
5.14958e-09
5.57881e-09
4.55516e-09
4.40751e-09
4.83478e-09
5.15172e-09
5.49037e-09
5.88521e-09
6.2087e-09
6.42907e-09
6.11145e-09
6.01874e-09
6.31348e-09
6.44528e-09
6.26544e-09
6.00556e-09
6.39287e-09
6.54552e-09
6.33459e-09
5.96087e-09
5.71299e-09
5.69709e-09
5.63092e-09
5.59942e-09
5.30381e-09
4.92976e-09
4.54416e-09
4.94205e-09
5.84899e-09
5.29878e-09
3.73009e-09
4.53677e-09
3.60628e-09
3.93468e-09
4.37234e-09
4.8014e-09
5.26682e-09
5.73631e-09
6.12554e-09
6.39413e-09
6.2432e-09
6.34353e-09
6.62676e-09
6.64369e-09
6.4302e-09
6.11445e-09
6.28609e-09
6.44493e-09
6.42278e-09
6.20042e-09
5.75005e-09
5.52499e-09
5.30775e-09
5.26126e-09
5.05964e-09
4.76993e-09
4.2798e-09
3.99584e-09
4.72957e-09
3.89615e-09
1.79482e-09
2.97089e-09
2.77821e-09
3.37448e-09
3.86484e-09
4.47693e-09
5.03683e-09
5.64703e-09
6.18587e-09
6.63523e-09
6.73733e-09
6.83364e-09
6.98115e-09
7.01709e-09
7.03307e-09
6.74476e-09
6.76532e-09
6.83914e-09
6.79653e-09
6.44823e-09
5.82517e-09
5.45487e-09
5.13149e-09
4.98013e-09
4.63505e-09
4.11855e-09
3.48182e-09
2.71943e-09
2.85482e-09
1.76981e-09
8.09262e-10
1.73517e-09
2.52312e-09
3.15227e-09
3.94009e-09
4.66435e-09
5.36384e-09
6.10698e-09
6.83775e-09
7.33115e-09
7.54991e-09
7.67083e-09
7.67262e-09
7.8529e-09
7.77606e-09
7.40971e-09
7.48428e-09
7.66899e-09
7.62608e-09
7.007e-09
6.15888e-09
5.67417e-09
5.1907e-09
4.91181e-09
4.25995e-09
3.45503e-09
2.41419e-09
1.64667e-09
1.06263e-09
2.99162e-10
2.64036e-07
3.15774e-07
7.24465e-08
6.18032e-08
2.66697e-08
2.10456e-08
1.33031e-08
1.19728e-08
8.24939e-09
8.92688e-09
7.73767e-09
9.15231e-09
8.53596e-09
9.26399e-09
8.59107e-09
8.64031e-09
7.96908e-09
7.15442e-09
6.76324e-09
5.99832e-09
5.64952e-09
5.27461e-09
5.23649e-09
4.88188e-09
4.56293e-09
3.86938e-09
3.21388e-09
2.45995e-09
2.00794e-09
1.18775e-09
3.13455e-07
6.35265e-08
5.07238e-08
2.3881e-08
1.20556e-08
9.32415e-09
6.25915e-09
4.79053e-09
3.90265e-09
3.81263e-09
3.79314e-09
3.29977e-09
2.53644e-09
2.66728e-09
2.80584e-09
2.86118e-09
2.7414e-09
2.68266e-09
2.42237e-09
2.16556e-09
2.17909e-09
2.59801e-09
3.04325e-09
3.34079e-09
3.29985e-09
2.95825e-09
2.60568e-09
2.24547e-09
3.22194e-09
2.74944e-09
7.06691e-08
5.15631e-08
2.68749e-08
2.37761e-08
1.26586e-08
1.13581e-08
7.65046e-09
6.02766e-09
4.69997e-09
4.74932e-09
4.9509e-09
4.96558e-09
3.621e-09
2.81656e-09
2.52381e-09
2.37874e-09
2.01745e-09
1.6316e-09
1.54137e-09
1.93648e-09
2.31312e-09
3.26658e-09
3.96443e-09
4.05985e-09
4.08648e-09
3.89692e-09
3.24459e-09
2.97808e-09
3.64719e-09
4.54433e-09
6.17909e-08
2.21283e-08
2.22343e-08
1.38691e-08
7.846e-09
7.47892e-09
4.40537e-09
4.65822e-09
3.98617e-09
4.37182e-09
4.47924e-09
4.78631e-09
3.4622e-09
2.65361e-09
2.25499e-09
2.19172e-09
2.29936e-09
1.72525e-09
1.89818e-09
2.66236e-09
3.38376e-09
3.88689e-09
3.71781e-09
3.60755e-09
3.99946e-09
4.03725e-09
3.53359e-09
3.45301e-09
3.41557e-09
5.62651e-09
2.88395e-08
1.08216e-08
1.07285e-08
8.34489e-09
5.20885e-09
5.72482e-09
3.64043e-09
3.9069e-09
3.15055e-09
3.20015e-09
2.91964e-09
3.2351e-09
2.18689e-09
2.26794e-09
2.19117e-09
2.24216e-09
2.40244e-09
1.76077e-09
2.08346e-09
2.97119e-09
3.4087e-09
2.84727e-09
2.06959e-09
2.07452e-09
2.65597e-09
3.08657e-09
3.32568e-09
3.59928e-09
3.22976e-09
6.9705e-09
2.66207e-08
7.17829e-09
9.64687e-09
7.61938e-09
5.27556e-09
5.14272e-09
2.9023e-09
3.10495e-09
1.98842e-09
2.25446e-09
2.21398e-09
2.54878e-09
2.02683e-09
2.27941e-09
2.33176e-09
2.4237e-09
2.55482e-09
2.12612e-09
2.54516e-09
2.82723e-09
2.59901e-09
1.68133e-09
1.0685e-09
1.17794e-09
1.5856e-09
2.24967e-09
2.96711e-09
3.47393e-09
2.99937e-09
7.70922e-09
1.99177e-08
4.53018e-09
5.99086e-09
4.37352e-09
3.47793e-09
3.51253e-09
2.3697e-09
2.60208e-09
1.84305e-09
2.11379e-09
2.10685e-09
2.52703e-09
2.08043e-09
2.44927e-09
2.68382e-09
2.60386e-09
2.68351e-09
2.56621e-09
3.02247e-09
2.53963e-09
2.02574e-09
1.39794e-09
1.16691e-09
1.06394e-09
1.35758e-09
2.20747e-09
2.97766e-09
3.39905e-09
3.01225e-09
8.81969e-09
2.08676e-08
2.62201e-09
5.07737e-09
4.91364e-09
4.06689e-09
3.97546e-09
2.92499e-09
2.96178e-09
2.16035e-09
2.26384e-09
2.15718e-09
2.30537e-09
1.68899e-09
2.15027e-09
2.59409e-09
2.35415e-09
2.30522e-09
2.51659e-09
2.83752e-09
2.24092e-09
1.6586e-09
1.32019e-09
1.15402e-09
1.10878e-09
1.52575e-09
2.37272e-09
2.95471e-09
3.2591e-09
2.94331e-09
9.50839e-09
1.75126e-08
2.60246e-09
3.41025e-09
3.21582e-09
3.07342e-09
3.09067e-09
2.58346e-09
2.70424e-09
2.32922e-09
2.43101e-09
2.23655e-09
1.77924e-09
9.61629e-10
2.61233e-09
3.33752e-09
2.83906e-09
2.09033e-09
1.89592e-09
2.41108e-09
2.10055e-09
1.73638e-09
1.49129e-09
1.37998e-09
1.49841e-09
1.92999e-09
2.52113e-09
2.81035e-09
2.91204e-09
2.75813e-09
1.04152e-08
1.84381e-08
1.79433e-09
2.68663e-09
2.93073e-09
3.02777e-09
3.24306e-09
2.86119e-09
2.94424e-09
2.72466e-09
2.63001e-09
2.30132e-09
1.47114e-09
1.84252e-09
3.74322e-09
4.42253e-09
3.79386e-09
2.67828e-09
1.26571e-09
1.65989e-09
1.92458e-09
1.68411e-09
1.64787e-09
1.60121e-09
1.79786e-09
1.99975e-09
2.29064e-09
2.31998e-09
2.24743e-09
2.35144e-09
1.09081e-08
1.6827e-08
2.0196e-09
1.95445e-09
1.84247e-09
1.87164e-09
2.27807e-09
2.3894e-09
2.78311e-09
2.87924e-09
2.75919e-09
2.4831e-09
2.2429e-09
3.41801e-09
4.92925e-09
5.49842e-09
5.20337e-09
4.39798e-09
2.26751e-09
1.56746e-09
1.8596e-09
2.01268e-09
2.15392e-09
2.16405e-09
2.25931e-09
2.2889e-09
2.29697e-09
2.09317e-09
1.9072e-09
2.08718e-09
1.14124e-08
1.75778e-08
1.92079e-09
1.50474e-09
1.46184e-09
1.48028e-09
1.9768e-09
2.29935e-09
2.80695e-09
3.26792e-09
3.27086e-09
2.81897e-09
3.06958e-09
3.9454e-09
4.43278e-09
4.65646e-09
4.62099e-09
4.00825e-09
2.81812e-09
1.87555e-09
1.90273e-09
2.3229e-09
2.55181e-09
2.47774e-09
2.42554e-09
2.35268e-09
2.28356e-09
1.95937e-09
1.8695e-09
1.90715e-09
1.1708e-08
1.64642e-08
2.01584e-09
1.41175e-09
1.25295e-09
1.16658e-09
1.37389e-09
1.64174e-09
2.21359e-09
2.91569e-09
3.00205e-09
2.6483e-09
3.9364e-09
4.30685e-09
4.28516e-09
4.19665e-09
3.98146e-09
3.67968e-09
3.02034e-09
2.60071e-09
1.73186e-09
2.33388e-09
2.55716e-09
2.32927e-09
2.06311e-09
1.90377e-09
1.87789e-09
1.69136e-09
1.81318e-09
1.96813e-09
1.24479e-08
1.62529e-08
1.81933e-09
1.50396e-09
1.47751e-09
1.48706e-09
1.42361e-09
1.54881e-09
2.00444e-09
2.73496e-09
2.88484e-09
3.20722e-09
3.69855e-09
3.50484e-09
3.33626e-09
2.96274e-09
2.69484e-09
2.12721e-09
2.06517e-09
1.9971e-09
1.77215e-09
1.90392e-09
2.34903e-09
2.05282e-09
1.69051e-09
1.51566e-09
1.57961e-09
1.51145e-09
1.69039e-09
2.00824e-09
1.30905e-08
1.54725e-08
1.98028e-09
1.59677e-09
1.53879e-09
1.54611e-09
1.5855e-09
1.72738e-09
2.13028e-09
2.7115e-09
3.24675e-09
3.4535e-09
3.12075e-09
2.67452e-09
2.31315e-09
2.55801e-09
2.27079e-09
1.80718e-09
1.94415e-09
2.0576e-09
2.45202e-09
2.71748e-09
2.70043e-09
2.09644e-09
1.55204e-09
1.38101e-09
1.43928e-09
1.40183e-09
1.5612e-09
2.02816e-09
1.36592e-08
1.53511e-08
2.18137e-09
1.76315e-09
1.64151e-09
1.72379e-09
1.84676e-09
2.02699e-09
2.3283e-09
2.92664e-09
3.24164e-09
2.9344e-09
2.15239e-09
1.86323e-09
1.84651e-09
2.39336e-09
2.42609e-09
1.99609e-09
2.18392e-09
2.41838e-09
2.94636e-09
2.97791e-09
2.77155e-09
1.96885e-09
1.30833e-09
1.07766e-09
1.23308e-09
1.25322e-09
1.35557e-09
1.722e-09
1.35277e-08
1.45007e-08
2.22355e-09
1.95415e-09
1.80368e-09
1.92227e-09
2.02264e-09
2.15464e-09
2.47089e-09
2.95529e-09
2.76785e-09
2.57369e-09
2.43729e-09
2.31619e-09
2.35312e-09
2.88374e-09
2.8613e-09
2.5492e-09
2.65457e-09
2.70835e-09
2.5644e-09
2.41707e-09
2.88061e-09
2.10252e-09
1.35802e-09
1.13001e-09
1.38891e-09
1.53319e-09
1.52897e-09
1.71445e-09
1.34854e-08
1.39388e-08
2.20522e-09
2.1581e-09
1.94683e-09
2.11091e-09
2.18387e-09
2.39323e-09
2.5716e-09
2.90716e-09
2.56257e-09
2.27441e-09
2.46641e-09
2.77795e-09
3.05291e-09
3.51337e-09
3.53789e-09
3.60951e-09
3.37863e-09
2.68466e-09
1.68136e-09
2.61334e-09
3.34025e-09
2.56376e-09
2.08184e-09
1.76391e-09
1.81276e-09
1.99493e-09
1.99668e-09
2.10312e-09
1.35707e-08
1.31282e-08
2.42505e-09
2.49895e-09
2.4373e-09
2.72378e-09
2.75543e-09
2.84841e-09
2.8191e-09
3.02162e-09
2.76387e-09
2.68975e-09
2.05755e-09
2.51559e-09
3.24357e-09
3.9683e-09
3.93618e-09
3.8287e-09
3.2099e-09
1.96483e-09
1.5915e-09
2.80247e-09
3.49952e-09
2.93912e-09
2.59934e-09
2.24854e-09
2.27056e-09
2.44283e-09
2.51423e-09
2.53673e-09
1.32653e-08
1.25178e-08
2.53288e-09
2.44006e-09
2.61641e-09
2.87253e-09
2.56156e-09
2.43304e-09
2.20376e-09
2.43499e-09
2.17005e-09
2.32175e-09
1.28564e-09
1.60327e-09
3.14593e-09
4.27151e-09
4.46247e-09
4.23703e-09
2.72488e-09
1.21611e-09
1.78836e-09
2.28867e-09
2.8503e-09
2.4578e-09
2.38373e-09
2.20694e-09
2.47802e-09
2.56116e-09
2.45142e-09
2.54483e-09
1.24988e-08
1.17839e-08
2.81479e-09
2.56315e-09
2.94447e-09
3.11703e-09
2.39297e-09
2.061e-09
1.77191e-09
2.01201e-09
1.88699e-09
2.23226e-09
1.49848e-09
7.81023e-10
1.55658e-09
2.98758e-09
3.69027e-09
3.45961e-09
1.44775e-09
1.19615e-09
2.24849e-09
2.15865e-09
2.38709e-09
2.03158e-09
2.188e-09
2.31982e-09
2.93047e-09
2.91857e-09
2.72666e-09
2.59309e-09
1.13186e-08
1.10451e-08
2.93532e-09
3.02498e-09
3.3585e-09
3.11655e-09
2.1953e-09
1.80089e-09
1.36279e-09
1.59812e-09
1.62133e-09
2.15854e-09
2.12619e-09
1.73069e-09
1.22776e-09
1.90089e-09
2.39742e-09
2.02347e-09
1.17369e-09
1.64518e-09
2.15559e-09
1.74865e-09
1.85294e-09
1.51198e-09
1.7754e-09
2.01955e-09
2.87921e-09
3.15089e-09
3.11424e-09
2.64428e-09
1.04567e-08
1.01216e-08
2.95579e-09
3.51299e-09
3.43051e-09
2.82511e-09
1.89438e-09
1.54572e-09
1.06715e-09
1.41246e-09
1.51352e-09
2.17106e-09
2.4798e-09
2.39381e-09
2.39297e-09
2.50303e-09
2.43703e-09
1.49964e-09
1.84499e-09
2.37263e-09
2.36653e-09
1.57928e-09
1.55311e-09
1.20248e-09
1.48186e-09
1.63327e-09
2.63809e-09
3.21142e-09
3.37382e-09
2.80713e-09
9.56162e-09
9.35202e-09
2.94928e-09
3.55137e-09
2.91568e-09
2.28622e-09
1.52495e-09
1.31638e-09
8.23711e-10
1.23818e-09
1.49298e-09
2.26814e-09
2.36457e-09
2.372e-09
2.95062e-09
2.99504e-09
2.44765e-09
1.63294e-09
2.42131e-09
2.83997e-09
2.95312e-09
1.95814e-09
1.41203e-09
9.60268e-10
1.23939e-09
1.31412e-09
2.26725e-09
3.07897e-09
3.49668e-09
2.87061e-09
8.81617e-09
8.05635e-09
3.02271e-09
3.4823e-09
2.51306e-09
1.90552e-09
1.34204e-09
1.5545e-09
1.26114e-09
1.52143e-09
1.74937e-09
2.47436e-09
2.21007e-09
2.21173e-09
3.05422e-09
3.05269e-09
2.34491e-09
2.00078e-09
2.5604e-09
2.97094e-09
3.59128e-09
2.90115e-09
2.02021e-09
1.24407e-09
1.54434e-09
1.68481e-09
2.5639e-09
3.20807e-09
3.80893e-09
3.11322e-09
7.86353e-09
7.09944e-09
2.99146e-09
3.259e-09
2.26633e-09
1.88462e-09
1.66136e-09
2.05917e-09
2.00602e-09
2.3801e-09
2.37585e-09
2.58895e-09
1.87527e-09
2.07667e-09
2.86789e-09
2.85954e-09
2.29048e-09
2.10018e-09
2.37036e-09
2.75951e-09
3.65078e-09
3.54477e-09
3.22245e-09
2.42178e-09
2.60524e-09
2.85053e-09
3.47392e-09
3.43342e-09
3.91556e-09
3.38532e-09
7.07669e-09
5.91108e-09
3.178e-09
3.22182e-09
2.47548e-09
2.69545e-09
2.72216e-09
3.07778e-09
3.11623e-09
3.70718e-09
3.70094e-09
3.36426e-09
1.75361e-09
1.82231e-09
2.61732e-09
3.07003e-09
2.67263e-09
2.59679e-09
2.97413e-09
3.21213e-09
3.93776e-09
3.93644e-09
4.34369e-09
4.19308e-09
4.49614e-09
4.53268e-09
4.56358e-09
3.68664e-09
3.80107e-09
3.69296e-09
5.86744e-09
4.95511e-09
3.56476e-09
3.14038e-09
2.92463e-09
3.19379e-09
3.01429e-09
3.19925e-09
3.14413e-09
3.74629e-09
3.88705e-09
3.66375e-09
1.86753e-09
1.54566e-09
2.36889e-09
2.86431e-09
2.42631e-09
2.2768e-09
2.83088e-09
2.91942e-09
3.17485e-09
2.90377e-09
3.52771e-09
3.86837e-09
4.61716e-09
4.4887e-09
4.22666e-09
3.1882e-09
3.02406e-09
3.74179e-09
4.77061e-09
3.3419e-09
3.58855e-09
2.71724e-09
2.97145e-09
2.96947e-09
2.81732e-09
3.04601e-09
3.09552e-09
3.63301e-09
3.86941e-09
3.88752e-09
2.97705e-09
2.86108e-09
2.60344e-09
2.39014e-09
1.83334e-09
1.90547e-09
2.34076e-09
2.31466e-09
2.45547e-09
2.17074e-09
2.71552e-09
2.81576e-09
3.42992e-09
3.30939e-09
3.07185e-09
2.52704e-09
2.21062e-09
3.17805e-09
2.89789e-09
1.97773e-09
2.72956e-09
3.06955e-09
3.584e-09
4.09854e-09
4.61366e-09
5.28105e-09
6.02211e-09
6.82716e-09
7.54755e-09
7.62304e-09
7.48686e-09
7.08545e-09
7.06658e-09
6.95217e-09
6.67628e-09
6.75928e-09
6.71266e-09
6.83961e-09
6.4981e-09
5.91696e-09
5.52564e-09
5.04794e-09
4.88473e-09
4.4263e-09
3.82868e-09
3.02286e-09
2.22813e-09
1.81922e-09
1.22744e-09
2.74425e-07
7.25596e-08
6.41596e-08
4.08214e-08
2.85095e-08
2.24064e-08
1.47203e-08
1.27034e-08
7.97826e-09
8.04161e-09
6.67947e-09
7.25065e-09
7.12313e-09
6.25853e-09
6.2454e-09
6.1538e-09
5.7091e-09
6.15896e-09
5.28793e-09
5.78946e-09
4.44931e-09
5.00293e-09
4.72849e-09
5.45567e-09
5.08325e-09
4.64728e-09
3.81866e-09
2.91576e-09
2.18474e-09
1.78152e-09
7.06449e-08
5.17845e-08
2.7644e-08
2.43203e-08
1.14658e-08
9.89032e-09
6.61055e-09
5.57884e-09
4.98925e-09
4.46739e-09
3.47295e-09
2.50803e-09
2.07267e-09
2.31723e-09
2.69671e-09
2.28478e-09
2.35149e-09
2.43237e-09
2.37351e-09
1.83383e-09
1.14445e-09
1.53756e-09
2.29381e-09
2.70547e-09
2.51773e-09
2.1002e-09
1.9319e-09
1.97492e-09
2.40645e-09
2.55342e-09
6.30539e-08
2.81631e-08
2.41636e-08
2.27703e-08
1.38322e-08
1.18262e-08
7.59798e-09
6.39967e-09
5.78613e-09
5.97534e-09
5.20515e-09
4.31713e-09
3.34798e-09
3.03898e-09
2.98505e-09
2.77001e-09
3.06758e-09
2.78909e-09
2.70464e-09
2.45184e-09
2.19829e-09
2.64391e-09
3.81362e-09
4.27691e-09
3.3053e-09
2.39917e-09
2.57572e-09
3.37034e-09
3.07075e-09
3.93175e-09
4.27092e-08
2.29746e-08
2.16236e-08
1.6595e-08
1.02966e-08
9.07018e-09
5.59035e-09
4.96639e-09
4.12722e-09
5.02238e-09
5.42688e-09
5.51657e-09
4.67694e-09
3.93319e-09
3.31288e-09
3.06641e-09
2.99884e-09
2.54258e-09
2.67236e-09
2.42291e-09
1.9315e-09
3.48221e-09
5.1437e-09
5.20782e-09
4.21145e-09
2.96467e-09
2.94017e-09
3.55239e-09
3.30709e-09
4.95455e-09
3.11863e-08
1.14075e-08
1.22997e-08
9.71997e-09
7.01935e-09
7.01635e-09
4.92929e-09
4.53487e-09
3.71564e-09
4.59806e-09
5.80012e-09
5.95325e-09
4.38584e-09
3.54235e-09
2.98873e-09
2.76991e-09
2.50356e-09
2.28597e-09
2.53116e-09
2.62564e-09
3.62656e-09
4.769e-09
5.13286e-09
5.00444e-09
4.60133e-09
3.58464e-09
3.48539e-09
3.10709e-09
3.43043e-09
6.20367e-09
2.75462e-08
9.44931e-09
1.11743e-08
8.62991e-09
6.57617e-09
5.61253e-09
3.75994e-09
3.10472e-09
2.35662e-09
3.01287e-09
3.99636e-09
3.86524e-09
2.49838e-09
2.10894e-09
1.77968e-09
1.89063e-09
1.95594e-09
2.0984e-09
1.91608e-09
2.62593e-09
3.16666e-09
3.03204e-09
2.48065e-09
2.76594e-09
3.35274e-09
3.50896e-09
3.66744e-09
2.55846e-09
3.37753e-09
6.9232e-09
2.0788e-08
5.53286e-09
6.48901e-09
4.76391e-09
3.98975e-09
3.6427e-09
2.5081e-09
2.34142e-09
2.05348e-09
2.39094e-09
2.99294e-09
3.00032e-09
1.97506e-09
1.92357e-09
1.90789e-09
1.95256e-09
1.88027e-09
1.83708e-09
2.10665e-09
2.56347e-09
2.04723e-09
1.4584e-09
8.53015e-10
1.3493e-09
2.59625e-09
3.40113e-09
3.40249e-09
2.15585e-09
3.36691e-09
7.9503e-09
2.0975e-08
4.10293e-09
5.36716e-09
5.22686e-09
4.69366e-09
4.21261e-09
3.08164e-09
2.82082e-09
2.28945e-09
2.21111e-09
2.52386e-09
2.60951e-09
1.81028e-09
2.06406e-09
1.6672e-09
1.35517e-09
1.09522e-09
1.57758e-09
2.25627e-09
2.24017e-09
1.27135e-09
1.00634e-09
6.94519e-10
1.19305e-09
2.37265e-09
3.02074e-09
2.89919e-09
2.00583e-09
3.21482e-09
8.62996e-09
1.71783e-08
3.22294e-09
3.07373e-09
2.59855e-09
2.82134e-09
3.10041e-09
2.61711e-09
2.5228e-09
2.23324e-09
2.15005e-09
2.28162e-09
2.04807e-09
1.87493e-09
2.51965e-09
1.79344e-09
1.00299e-09
1.01813e-09
9.85616e-10
1.76726e-09
1.93859e-09
1.31606e-09
1.22995e-09
1.10889e-09
1.57165e-09
2.27466e-09
2.57139e-09
2.56202e-09
1.98689e-09
2.96471e-09
9.60325e-09
1.75301e-08
2.87024e-09
2.69582e-09
2.19201e-09
2.29572e-09
2.86513e-09
2.84417e-09
2.74504e-09
2.38251e-09
2.1413e-09
2.01645e-09
1.94897e-09
2.33849e-09
2.85185e-09
2.89999e-09
2.09411e-09
2.13286e-09
1.73686e-09
1.22676e-09
1.36748e-09
1.1684e-09
1.20323e-09
1.35364e-09
1.78624e-09
1.93859e-09
1.96476e-09
1.89518e-09
1.46501e-09
2.50824e-09
1.02904e-08
1.57254e-08
2.47669e-09
1.94762e-09
1.63359e-09
1.35288e-09
1.49904e-09
2.05387e-09
2.56141e-09
2.51087e-09
2.28032e-09
2.67491e-09
3.40894e-09
4.0211e-09
4.66508e-09
5.03394e-09
4.53543e-09
4.19972e-09
3.31497e-09
2.5622e-09
1.99413e-09
1.66148e-09
1.66699e-09
1.80991e-09
1.91611e-09
1.68087e-09
1.58773e-09
1.47814e-09
1.16441e-09
2.11823e-09
1.08965e-08
1.64706e-08
2.23798e-09
1.47434e-09
1.37134e-09
1.06784e-09
1.02591e-09
1.78307e-09
2.48582e-09
2.50092e-09
2.82704e-09
3.77949e-09
3.94399e-09
4.79185e-09
5.40742e-09
5.80034e-09
5.78424e-09
4.99646e-09
3.81959e-09
3.1051e-09
2.74722e-09
2.137e-09
1.76708e-09
1.65501e-09
1.60384e-09
1.42839e-09
1.43295e-09
1.38809e-09
1.12986e-09
1.66354e-09
1.12021e-08
1.55537e-08
1.81467e-09
1.03108e-09
9.99888e-10
8.19886e-10
6.46139e-10
1.28951e-09
2.2545e-09
2.02957e-09
3.02376e-09
4.21156e-09
4.72798e-09
5.93681e-09
6.46337e-09
6.58821e-09
6.38355e-09
5.89368e-09
4.81779e-09
3.90001e-09
3.20192e-09
2.55009e-09
1.50227e-09
1.34764e-09
1.27528e-09
1.10709e-09
1.11629e-09
1.13735e-09
9.04662e-10
1.64391e-09
1.18974e-08
1.55371e-08
1.73855e-09
9.68146e-10
9.33312e-10
9.88408e-10
9.81638e-10
1.43113e-09
2.29851e-09
2.24069e-09
2.782e-09
3.68421e-09
4.96133e-09
5.65129e-09
6.30733e-09
6.30817e-09
6.11414e-09
5.55717e-09
4.75306e-09
4.33244e-09
2.80726e-09
2.37993e-09
1.61754e-09
1.07353e-09
9.07543e-10
9.40697e-10
9.02535e-10
7.64168e-10
4.58897e-10
1.65979e-09
1.24041e-08
1.46597e-08
2.03069e-09
1.06368e-09
1.00458e-09
1.0252e-09
1.16515e-09
1.37127e-09
1.6741e-09
2.2477e-09
3.30845e-09
4.0017e-09
4.62828e-09
4.32174e-09
4.9966e-09
5.66955e-09
5.73868e-09
4.99468e-09
4.39752e-09
4.49434e-09
3.7829e-09
3.30942e-09
2.25316e-09
1.42538e-09
9.5086e-10
9.73501e-10
8.27711e-10
6.2079e-10
4.54554e-10
1.69331e-09
1.28713e-08
1.44782e-08
2.24562e-09
9.64792e-10
9.53385e-10
1.08822e-09
1.368e-09
1.46261e-09
1.74522e-09
2.53549e-09
3.57452e-09
3.89167e-09
4.21975e-09
3.7481e-09
4.53497e-09
5.46213e-09
5.60163e-09
4.92454e-09
4.36177e-09
4.73411e-09
4.08765e-09
3.40691e-09
2.41319e-09
1.38273e-09
9.03791e-10
9.40513e-10
7.93218e-10
7.16857e-10
5.02716e-10
1.48953e-09
1.27723e-08
1.37605e-08
2.3484e-09
1.02351e-09
1.20155e-09
1.2119e-09
1.52118e-09
1.48359e-09
1.68976e-09
2.16178e-09
2.94243e-09
3.29147e-09
4.46072e-09
4.51627e-09
5.28307e-09
5.86859e-09
6.00325e-09
5.74492e-09
4.83576e-09
4.65291e-09
3.09462e-09
3.04149e-09
2.23084e-09
1.33859e-09
9.86882e-10
9.16041e-10
7.53614e-10
1.11387e-09
9.85281e-10
1.48965e-09
1.28003e-08
1.33519e-08
2.34942e-09
1.39499e-09
1.52419e-09
1.27724e-09
1.4713e-09
1.62993e-09
1.79991e-09
1.91571e-09
2.97129e-09
3.59502e-09
4.03167e-09
4.60963e-09
5.44415e-09
6.11182e-09
6.30472e-09
5.84232e-09
4.76227e-09
3.97873e-09
2.96607e-09
3.08832e-09
1.95316e-09
1.73978e-09
1.41991e-09
9.84032e-10
9.41096e-10
1.71748e-09
1.67063e-09
1.99578e-09
1.26886e-08
1.24024e-08
2.50126e-09
1.67095e-09
1.71866e-09
1.76646e-09
2.11737e-09
2.22918e-09
2.28439e-09
2.22014e-09
2.70491e-09
3.15606e-09
3.35161e-09
3.58265e-09
4.58656e-09
5.67133e-09
6.05516e-09
5.1477e-09
4.08706e-09
3.38226e-09
3.00229e-09
2.83858e-09
2.44901e-09
2.11153e-09
1.72298e-09
1.39672e-09
1.31536e-09
1.88614e-09
1.78721e-09
2.5187e-09
1.22036e-08
1.16375e-08
2.63941e-09
1.66119e-09
1.58443e-09
2.14596e-09
2.52539e-09
2.19168e-09
2.01091e-09
1.80574e-09
1.93764e-09
2.01661e-09
2.53619e-09
2.62672e-09
3.48599e-09
4.57731e-09
5.44288e-09
4.79415e-09
3.76104e-09
2.90439e-09
2.33018e-09
2.2955e-09
2.21242e-09
2.12246e-09
1.9809e-09
2.08273e-09
1.81395e-09
1.68625e-09
1.45674e-09
2.70289e-09
1.1352e-08
1.08742e-08
3.01307e-09
1.9649e-09
1.79514e-09
2.78181e-09
3.07756e-09
2.19233e-09
1.66765e-09
1.42739e-09
1.47853e-09
1.40601e-09
1.58256e-09
1.61281e-09
2.4117e-09
2.48578e-09
3.32131e-09
3.11399e-09
2.7912e-09
2.02843e-09
1.75411e-09
2.0078e-09
1.85036e-09
1.89128e-09
2.23207e-09
2.91747e-09
2.66348e-09
1.85111e-09
1.33739e-09
2.66963e-09
1.0158e-08
1.00942e-08
3.03613e-09
1.93843e-09
2.5555e-09
3.40476e-09
3.03932e-09
1.99014e-09
1.49151e-09
1.27465e-09
1.27667e-09
1.62347e-09
2.07963e-09
1.32618e-09
1.66242e-09
2.29712e-09
2.38132e-09
2.27355e-09
2.30738e-09