/*--------------------------------*- C++ -*----------------------------------*\
| =========                 |                                                 |
| \\      /  F ield         | OpenFOAM: The Open Source CFD Toolbox           |
|  \\    /   O peration     | Version:  v1906                                 |
|   \\  /    A nd           | Web:      www.OpenFOAM.com                      |
|    \\/     M anipulation  |                                                 |
\*---------------------------------------------------------------------------*/
FoamFile
{
    version     2.0;
    format      ascii;
    class       volScalarField;
    location    "41.2/sphere";
    object      T;
}
// * * * * * * * * * * * * * * * * * * * * * * * * * * * * * * * * * * * * * //

dimensions      [0 0 0 1 0 0 0];


internalField   nonuniform List<scalar> 
304
(
477.076
477.104
477.102
477.118
477.076
477.073
477.074
477.104
477.074
477.224
477.224
477.118
477.101
477.222
477.222
477.147
477.115
477.146
477.074
477.102
477.119
477.074
477.105
477.224
477.224
477.148
477.119
477.223
477.223
477.174
477.071
477.146
477.174
477.108
477.075
477.12
477.148
477.08
477.079
477.148
477.174
477.108
477.074
477.108
477.061
477.063
477.076
477.076
477.078
477.111
477.076
477.076
477.111
477.078
477.063
477.077
477.08
477.077
477.112
477.104
477.104
477.119
477.119
477.15
477.149
477.175
477.075
477.119
477.104
477.149
477.119
477.175
477.149
477.077
477.08
477.112
477.077
477.073
477.073
477.108
477.072
477.117
477.068
477.1
477.146
477.173
477.113
477.145
477.103
477.101
477.071
477.174
477.148
477.146
477.114
477.11
477.075
477.073
477.059
477.071
477.073
477.107
477.072
477.107
477.074
477.072
477.058
477.077
477.074
477.075
477.11
477.104
477.118
477.149
477.103
477.119
477.148
477.175
477.075
477.149
477.118
477.119
477.103
477.175
477.148
477.077
477.075
477.11
477.076
477.118
477.104
477.149
477.104
477.149
477.119
477.175
477.073
477.149
477.105
477.149
477.104
477.175
477.119
477.147
477.069
477.114
477.118
477.174
477.101
477.146
477.103
477.115
477.07
477.174
477.118
477.147
477.101
477.075
477.071
477.108
477.072
477.146
477.072
477.102
477.146
477.173
477.102
477.118
477.115
477.102
477.072
477.173
477.146
477.118
477.102
477.107
477.071
477.071
477.073
477.076
477.111
477.08
477.119
477.148
477.175
477.073
477.103
477.119
477.149
477.102
477.175
477.148
477.103
477.071
477.148
477.115
477.11
477.075
477.075
477.15
477.12
477.175
477.077
477.121
477.106
477.15
477.104
477.175
477.119
477.118
477.075
477.149
477.104
477.174
477.101
477.146
477.105
477.149
477.072
477.116
477.118
477.147
477.101
477.147
477.103
477.115
477.07
477.107
477.072
477.075
477.173
477.102
477.118
477.115
477.147
477.073
477.103
477.147
477.118
477.103
477.147
477.117
477.103
477.075
477.072
477.073
477.076
477.066
477.074
477.078
477.11
477.074
477.109
477.076
477.074
477.062
477.083
477.078
477.113
477.078
477.149
477.15
477.175
477.078
477.104
477.105
477.119
477.118
477.175
477.149
477.103
477.073
477.119
477.104
477.111
477.077
477.075
477.111
477.076
477.075
477.174
477.115
477.146
477.103
477.118
477.07
477.101
477.147
477.147
477.115
477.118
477.102
477.101
477.07
477.074
477.073
477.073
477.061
477.108
477.073
477.072
477.076
477.073
477.072
)
;

boundaryField
{
    sphere_to_oil
    {
        type            compressible::turbulentTemperatureCoupledBaffleMixed;
        refValue        nonuniform List<scalar> 
360
(
340.623
340.623
319.258
362.703
371.414
321.465
372.539
372.539
372.539
346.213
346.213
323.212
326.212
316.357
343.987
362.557
358.451
358.451
358.451
318.556
356.871
334.339
335.301
365.789
315.465
366.281
319.991
366.017
366.017
366.017
373.356
364.816
319.278
318.961
322.977
323.145
359.4
359.4
359.4
358.657
367.427
322.888
322.996
340.811
340.811
319.854
325.598
312.986
338.807
366.686
321.509
321.499
325.773
326.167
318.335
334.328
359.356
318.626
323.065
326.784
315.922
367.334
367.334
367.334
313.006
365.867
338.735
326.412
371.232
371.232
371.232
371.881
370.288
315.734
356.93
343.309
317.05
334.03
367.35
359.496
336.321
325.408
335.69
315.805
319.236
321.247
323.359
326.044
316.729
318.723
319.297
325.712
323.009
319.556
325.516
323.013
323.374
323.377
319.931
314.572
314.649
317.524
321.443
323.041
325.715
317.361
316.369
326.208
319.841
323.477
323.441
323.344
319.954
318.451
313.307
313.257
329.931
326.303
331.34
340.357
340.357
362.703
362.703
365.789
365.789
363.665
363.665
363.665
365.306
365.306
365.306
330.575
326.451
329.925
318.297
371.414
371.414
342.685
342.685
373.356
373.356
341.021
341.021
372.533
372.533
372.533
318.194
317.559
363.027
363.027
363.027
362.997
362.997
362.997
362.557
356.871
343.987
362.557
361.356
317.299
361.356
361.356
335.356
336.09
325.644
334.119
334.119
368.965
368.965
368.965
315.935
356.871
334.339
367.909
367.909
315.869
367.909
336
325.56
313.069
319.944
320.224
326.02
315.361
325.617
320.203
313.082
314.485
366.281
366.281
364.816
364.816
340.897
340.897
362.812
362.812
362.812
338.913
338.913
314.462
322.643
321.668
325.898
322.821
321.273
325.863
319.736
326.256
323.446
319.738
358.657
326.254
323.651
318.605
368.312
368.312
368.312
335.262
335.262
315.751
323.156
323.104
326.685
367.427
322.783
326.551
323.235
358.657
367.427
335.239
318.562
335.239
316.18
313.276
325.531
315.436
320.133
320.022
320.269
315.252
314.155
367.318
361.486
367.318
367.318
361.486
361.486
366.686
365.867
338.807
364.324
314.523
366.686
364.324
364.324
325.321
318.88
322.974
325.661
319.502
371.881
322.792
323.343
323.453
319.929
359.356
356.93
323.484
323.247
319.878
358.815
361.646
334.328
367.84
316.097
359.356
367.84
367.84
327.137
322.781
367.35
323.141
323.02
322.967
367.607
322.528
367.32
335.302
358.815
335.302
367.607
358.815
367.607
312.959
326.286
329.253
329.575
339.501
362.863
339.501
362.863
362.863
314.452
365.867
363.969
338.735
363.969
314.462
363.969
330.652
330.221
316.994
369.966
341.673
369.966
369.966
341.673
317.309
321.231
322.815
325.722
370.288
371.881
341.401
317.98
370.288
341.401
317.402
356.93
362.581
343.309
362.581
316.385
362.581
326.313
359.496
320.014
323.572
361.494
359.098
361.646
343.314
361.646
361.494
343.314
361.494
324.985
335.532
367.35
334.419
315.885
359.496
334.419
318.786
367.32
359.098
367.32
335.222
359.098
335.222
)
;
        refGradient     uniform 0;
        valueFraction   nonuniform List<scalar> 
360
(
0.000133725
0.000128291
8.21331e-05
0.000293414
0.000300922
0.000172553
0.000302792
0.000259907
0.000404555
0.000128807
0.000125585
0.000168477
0.000256766
7.34145e-05
0.000131327
0.000255289
0.000292555
0.00027335
0.00038357
6.71783e-05
0.000251848
0.00012381
0.00011411
0.000302811
8.79172e-05
0.000311254
0.000175449
0.000307234
0.000402075
0.000268961
0.000307284
0.000309932
8.32229e-05
8.22932e-05
0.000172697
0.00016995
0.000287576
0.000389865
0.000267715
0.000402532
0.000397616
8.49022e-05
0.000168405
0.000122909
0.000122761
0.000173359
0.000259364
6.91969e-05
0.000123815
0.000262547
0.000171017
0.000172128
0.000256574
0.000254081
7.17837e-05
0.000131319
0.000267795
6.87669e-05
0.000170358
0.000254041
6.73105e-05
0.000299069
0.000264006
0.000413198
6.93947e-05
0.000269936
0.000125913
0.000121784
0.000305979
0.00039916
0.000268504
0.000384918
0.000390306
7.45438e-05
0.000260243
0.000132021
6.87272e-05
0.000123239
0.000389481
0.000404602
0.000120873
0.000118593
0.000116483
6.92278e-05
8.34815e-05
0.000169249
0.000170197
0.000257745
7.78028e-05
6.56931e-05
8.26196e-05
0.000257325
0.000169874
8.43966e-05
0.0002569
0.000171814
0.000170797
0.000171061
8.34168e-05
6.68632e-05
6.78011e-05
6.68986e-05
0.000171984
0.000169036
0.000257131
7.57025e-05
6.57555e-05
0.000256944
8.16262e-05
0.000169303
0.000169335
0.000172789
8.44918e-05
6.76571e-05
6.59831e-05
6.72579e-05
0.000117072
0.000117213
0.000121766
0.000132038
0.000124097
0.000256416
0.000403937
0.000270152
0.000407652
0.000261305
0.000401738
0.000299117
0.000261517
0.000392993
0.000294582
0.000120156
0.00011363
0.000116386
6.42493e-05
0.000266462
0.000401191
0.000124127
0.000124694
0.000405439
0.000269568
0.000130121
0.000137141
0.000400449
0.000275092
0.000316987
7.07102e-05
6.58035e-05
0.000277744
0.000384883
0.000305078
0.000285973
0.000398209
0.000305046
0.000314951
0.000290109
0.000135705
0.000404493
0.000261279
7.2845e-05
0.000393141
0.000294199
0.000112273
0.000118285
0.000117018
0.000123447
0.000129042
0.000402469
0.000265004
0.000311058
7.45826e-05
0.00038716
0.000132755
0.000407107
0.000260616
7.2851e-05
0.000309013
0.000113269
0.000114321
6.67932e-05
0.000175074
0.000175004
0.000258772
8.62925e-05
0.000259163
0.000170525
6.61074e-05
6.41925e-05
0.000404972
0.000257315
0.000400218
0.000266829
0.000127277
0.000119028
0.000402085
0.000251298
0.000290477
0.000117654
0.000136516
6.86799e-05
0.000171996
0.00017184
0.000256744
0.000168108
0.000168973
0.000255732
8.76527e-05
0.000256609
0.000173991
8.52398e-05
0.00028883
0.000256325
0.000172948
6.89247e-05
0.000393299
0.000254969
0.000298315
0.000124282
0.000115495
6.67134e-05
0.000170659
0.000173529
0.00025729
0.000292525
8.18135e-05
0.000254849
0.000166442
0.000253163
0.00026801
0.000121659
6.83337e-05
0.000134999
6.91786e-05
6.51184e-05
0.000260163
8.68215e-05
0.000174903
0.000172881
0.00017082
8.57302e-05
6.54859e-05
0.000266003
0.000249251
0.000418436
0.000311464
0.000390378
0.000280486
0.000300632
0.000307805
0.000136818
0.000264058
7.11431e-05
0.00040183
0.00039072
0.000296864
0.000258926
8.2503e-05
0.000168477
0.000255949
8.32419e-05
0.00030498
0.000169207
0.000170416
0.000168846
8.27379e-05
0.000302706
0.000283662
0.000172265
0.000167812
8.4331e-05
0.000284221
0.000312851
0.000124072
0.000280839
6.66985e-05
0.000400111
0.000387907
0.000293107
0.00025405
8.34569e-05
0.000293567
0.00016904
0.000169301
0.000170265
0.000295166
8.42389e-05
0.000301573
0.000126896
0.000260013
0.000127954
0.00026496
0.000403781
0.000396397
6.6667e-05
0.000133594
0.000132016
0.000129124
0.000117591
0.000393416
0.000128432
0.000261547
0.000307985
6.56955e-05
0.000397257
0.000396777
0.00012989
0.000282118
6.88462e-05
0.000302452
0.000115155
0.000113128
6.87893e-05
0.000389092
0.000116285
0.000255171
0.000300526
0.000124668
6.79615e-05
0.000169106
0.000169048
0.000255089
0.000291883
0.000253168
0.000122403
6.58869e-05
0.000257409
0.000135947
7.60948e-05
0.000373025
0.000400553
0.000118382
0.000254443
7.0544e-05
0.000320001
0.000257044
0.000307971
8.42486e-05
0.000169833
0.000296923
0.000287861
0.000270814
0.000121046
0.0003967
0.000395846
0.000143691
0.0002646
0.000116418
0.000118204
0.000266381
0.000131864
7.12955e-05
0.000269411
0.000126974
6.58406e-05
0.000392108
0.000396816
0.000261091
0.000126708
0.000256466
0.000130887
)
;
        value           nonuniform List<scalar> 
360
(
477.077
477.078
477.082
477.062
477.064
477.097
477.063
477.069
477.057
477.076
477.076
477.095
477.099
477.084
477.078
477.067
477.053
477.058
477.047
477.082
477.062
477.075
477.062
477.06
477.079
477.059
477.096
477.06
477.052
477.065
477.062
477.059
477.08
477.08
477.094
477.096
477.055
477.049
477.06
477.046
477.05
477.079
477.096
477.076
477.079
477.095
477.099
477.082
477.076
477.064
477.098
477.097
477.1
477.1
477.079
477.072
477.059
477.081
477.095
477.1
477.082
477.06
477.064
477.053
477.083
477.065
477.077
477.063
477.065
477.06
477.07
477.059
477.058
477.087
477.068
477.081
477.082
477.063
477.051
477.047
477.064
477.063
477.064
477.082
477.084
477.096
477.096
477.099
477.08
477.081
477.082
477.1
477.098
477.08
477.1
477.097
477.095
477.095
477.077
477.085
477.085
477.086
477.097
477.098
477.1
477.084
477.082
477.098
477.075
477.094
477.097
477.094
477.077
477.08
477.085
477.085
477.065
477.065
477.065
477.078
477.079
477.066
477.051
477.066
477.052
477.066
477.052
477.061
477.066
477.054
477.061
477.065
477.065
477.065
477.087
477.069
477.058
477.08
477.08
477.058
477.069
477.079
477.078
477.058
477.068
477.06
477.086
477.082
477.061
477.048
477.053
477.06
477.047
477.054
477.054
477.055
477.076
477.046
477.064
477.083
477.047
477.056
477.063
477.062
477.061
477.073
477.073
477.049
477.063
477.058
477.08
477.047
477.073
477.049
477.063
477.08
477.058
477.062
477.061
477.083
477.096
477.095
477.099
477.08
477.099
477.096
477.084
477.084
477.052
477.065
477.052
477.065
477.076
477.078
477.051
477.067
477.06
477.078
477.077
477.084
477.097
477.097
477.1
477.098
477.098
477.1
477.075
477.099
477.094
477.077
477.056
477.099
477.094
477.08
477.052
477.064
477.06
477.074
477.076
477.081
477.095
477.095
477.099
477.059
477.079
477.099
477.096
477.061
477.062
477.073
477.08
477.072
477.08
477.083
477.099
477.079
477.095
477.095
477.096
477.077
477.085
477.064
477.067
477.054
477.059
477.054
477.065
477.058
477.057
477.075
477.065
477.083
477.051
477.051
477.062
477.1
477.084
477.1
477.1
477.082
477.063
477.098
477.095
477.099
477.079
477.056
477.057
477.095
477.097
477.077
477.057
477.054
477.074
477.061
477.081
477.048
477.052
477.06
477.1
477.079
477.06
477.096
477.096
477.097
477.062
477.082
477.062
477.074
477.061
477.074
477.063
477.048
477.052
477.082
477.066
477.066
477.067
477.077
477.053
477.076
477.064
477.062
477.083
477.052
477.051
477.076
477.062
477.082
477.059
477.064
477.065
477.087
477.061
477.082
477.071
477.065
477.081
477.087
477.098
477.099
477.1
477.062
477.07
477.08
477.086
477.068
477.077
477.083
477.051
477.05
477.079
477.066
477.083
477.053
477.099
477.053
477.076
477.095
477.056
477.056
477.062
477.077
477.047
477.047
477.073
477.062
477.063
477.064
477.064
477.074
477.081
477.06
477.074
477.081
477.052
477.048
477.064
477.075
477.061
477.073
)
;
        Tnbr            T;
        thicknessLayers 0();
        kappaLayers     0();
        kappaMethod     solidThermo;
        kappa           none;
        alphaAni        none;
    }
}


// ************************************************************************* //
