/*--------------------------------*- C++ -*----------------------------------*\
| =========                 |                                                 |
| \\      /  F ield         | OpenFOAM: The Open Source CFD Toolbox           |
|  \\    /   O peration     | Version:  v1906                                 |
|   \\  /    A nd           | Web:      www.OpenFOAM.com                      |
|    \\/     M anipulation  |                                                 |
\*---------------------------------------------------------------------------*/
FoamFile
{
    version     2.0;
    format      ascii;
    class       volScalarField;
    location    "0.2/sphere";
    object      T;
}
// * * * * * * * * * * * * * * * * * * * * * * * * * * * * * * * * * * * * * //

dimensions      [0 0 0 1 0 0 0];


internalField   nonuniform List<scalar> 
7664
(
492.67
493.296
492.799
494.047
492.469
492.982
494.997
495.95
496.938
495.407
492.783
496.537
497.389
496.03
495.438
496.494
494.85
494.94
496.071
494.525
493.187
496.898
497.795
496.42
493.888
497.36
498.238
496.981
492.743
492.895
496.454
497.398
495.931
495.257
494.505
495.34
496.404
494.589
492.374
495.956
496.946
495.434
494.626
495.904
494.008
492.686
492.663
492.71
492.598
492.649
492.749
494.062
492.921
496.353
495.38
496.842
496.02
495.401
496.957
496.097
493.342
492.789
494.152
492.965
496.085
496.33
495.345
494.134
492.964
493.206
492.639
492.643
492.618
492.615
492.606
492.464
492.606
492.593
492.474
492.673
492.635
492.532
492.586
493.955
493.086
494.458
494.757
495.95
493.096
494.487
495.969
494.856
494.113
492.405
494.468
492.393
495.299
493.247
492.814
493.985
495.286
496.337
495.966
496.838
493.15
493.565
493.406
494.737
494.575
494.333
494.882
492.475
494.577
495.373
492.51
492.402
492.382
495.281
494.363
493.971
492.593
493.154
495.947
496.822
495.201
496.249
492.906
493.195
492.644
496.827
496.005
496.265
495.267
495.355
492.494
494.459
493.825
492.968
494.634
495.83
494.273
495.842
494.708
494.291
493.975
495.447
495.481
494.765
494.434
493.019
495.923
494.973
495.563
496.599
494.946
496.035
496.573
497.469
494.328
496.611
495.666
496.07
495.027
497.48
496.649
494.975
494.529
496.018
493.156
492.55
495.281
492.793
495.939
493.185
496.289
493.908
496.787
492.765
496.043
492.942
496.424
493.358
496.983
494.215
492.753
492.535
495.924
495.185
493.889
496.774
493.088
496.212
492.931
495.3
492.659
496.974
494.203
496.357
493.269
492.741
494.62
492.895
495.8
494.244
496.484
494.769
496.452
497.366
494.739
495.844
495.535
494.788
494.111
497.384
496.558
495.875
494.812
495.922
493.017
494.311
495.226
495.253
495.45
495.484
494.423
493.013
495.91
494.769
496.038
496.573
497.469
494.976
495.561
496.622
495.027
497.482
496.649
494.991
494.342
496.634
495.659
496.012
493.152
494.986
492.551
496.29
493.905
496.794
495.289
492.786
495.944
493.363
496.989
494.218
495.433
492.762
496.109
492.958
492.756
492.536
496.78
493.08
496.207
492.769
495.926
495.186
494.207
496.363
493.257
496.103
492.945
495.351
492.667
495.81
494.225
494.623
497.374
494.745
495.847
495.438
496.519
494.773
496.57
495.882
494.812
496.542
495.579
494.785
494.117
493.013
494.317
494.884
495.228
493.988
494.488
494.79
495.986
493.13
495.997
494.863
493.138
494.13
494.504
492.39
495.288
492.418
496.391
495.97
496.946
492.7
493.309
492.831
494.069
495.443
492.508
492.516
495.272
494.356
492.382
496.935
495.21
496.308
492.812
494.054
492.56
493.163
492.497
494.517
492.502
493.803
495.879
494.289
492.965
494.755
494.3
492.985
492.498
492.396
492.07
492.443
492.353
492.325
492.268
492.349
492.292
492.335
492.222
492.4
492.29
492.327
492.133
492.476
492.377
492.233
492.578
492.581
492.438
492.314
492.192
492.397
492.288
492.946
492.762
493.146
494.403
493.455
493.989
493.763
492.83
493.398
493.293
494.618
494.212
493.997
494.721
493.183
493.636
493.464
494.815
494.641
494.374
494.969
492.963
492.791
493.184
494.475
493.485
494.035
493.823
492.86
493.467
493.337
494.706
494.291
494.071
494.821
493.464
492.827
493.294
494.669
494.285
494.815
494.025
493.539
493.057
493.362
494.743
494.535
494.897
494.265
492.709
492.836
493.089
494.404
493.384
493.758
493.917
492.364
492.145
492.529
492.416
492.272
492.468
492.38
492.184
492.255
492.852
492.66
493.012
494.282
493.378
493.925
493.652
492.964
493.103
492.626
493.194
494.45
492.665
494.097
493.047
494.592
493.851
492.417
493.431
492.638
492.643
493.291
493.237
493.045
493.413
492.87
493.428
493.965
493.78
493.503
495.469
494.497
494.425
494.507
494.956
494.895
494.943
495.975
494.837
495.629
495.455
495.398
495.281
496.129
493.88
494.062
494.409
494.098
493.278
492.54
492.728
493.567
493.763
492.876
494.392
494.068
492.641
493.165
493.821
494.557
493.008
492.327
492.228
493.198
493.013
493.353
493.958
493.937
494.25
495.415
493.551
494.505
494.792
494.763
495.9
495.402
495.581
494.755
496.084
495.21
495.321
496.302
495.913
496.609
495.826
496.461
495.648
496.448
494.067
494.95
494.387
494.154
494.772
494.568
494.473
493.382
493.013
494.763
494.189
493.197
492.541
492.416
494.735
495.052
493.61
493.562
494.917
494.867
493.327
492.68
492.635
492.5
493.377
493.901
492.765
493.444
493.701
494.738
495.133
495.074
494.941
493.855
493.992
494.348
494.075
494.374
494.931
494.761
494.147
492.564
492.845
492.998
495.104
493.704
494.152
493.291
493.753
494.187
493.064
492.548
493.327
492.277
493.166
492.558
493.886
495.33
494.1
493.787
494.711
494.432
493.445
493.232
493.325
493.627
493.284
492.092
492.353
492.443
492.174
492.263
493.314
493.679
493.324
493.388
493.179
493.559
492.966
494.08
493.566
493.655
493.89
493.795
493.992
494.323
494.033
494.327
494.905
494.13
494.703
494.045
493.915
494.262
495.438
493.603
494.552
494.869
492.993
494.099
493.932
493.587
493.663
493.241
493.604
493.43
494.059
494.372
494.918
494.137
494.745
493.883
494.046
494.388
493.98
495.503
494.583
494.096
494.37
493.665
494.947
493.387
493.796
493.452
493.46
492.563
492.891
493.032
492.305
492.612
493.392
493.254
492.614
492.552
492.861
492.984
493.173
493.627
493.589
494.966
492.964
494.062
493.995
492.609
492.316
493.36
492.602
493.223
493.44
493.077
494.536
493.25
494.832
494.638
494.273
492.697
493.23
493.1
494.487
494.115
493.873
494.613
492.423
493.449
493.332
492.672
492.665
493.687
495.057
494.096
493.248
493.726
493.028
494.149
492.654
492.967
493.132
492.683
492.446
493.472
492.668
493.335
492.557
492.311
493.371
492.593
493.21
492.516
492.788
492.966
492.549
493.337
492.286
492.578
493.172
492.494
492.767
492.923
493.096
493.524
494.895
493.477
493.983
492.872
493.926
493.604
493.703
495.134
494.798
493.37
494.927
495.002
494.216
492.596
492.767
493.273
492.939
493.606
493.8
493.38
494.564
492.973
494.443
493.173
494.77
494.148
493.386
492.787
494.199
493.232
494.71
494.577
493.972
493.491
493.038
493.318
494.656
494.473
494.812
494.213
492.681
492.828
493.047
494.327
493.34
493.716
493.867
492.575
492.845
493.041
492.632
493.451
492.397
492.65
493.285
493.164
493.561
494.98
493.614
494.022
492.927
494.066
492.575
492.874
493.046
493.183
493.171
493.522
493.415
492.822
493.957
493.751
493.5
493.876
493.761
495.314
494.122
494.384
493.461
494.728
493.654
493.82
494.147
493.854
494.724
494.129
493.947
494.526
493.255
493.085
493.444
493.912
493.817
495.361
494.201
494.421
493.506
494.78
493.862
494.729
494.159
493.944
494.55
493.68
493.857
494.197
493.243
493.305
493.627
493.285
494.96
494.953
495.259
495.237
495.065
495.007
495.29
495.361
495.157
495.081
494.926
493.801
493.981
494.309
493.36
493.142
493.468
494.033
494.278
493.891
495.426
493.592
494.87
494.482
494.003
494.296
494.868
494.679
494.092
493.514
492.871
494.031
493.819
493.611
495.908
494.774
495.609
495.42
495.341
495.217
496.102
495.902
494.772
495.403
495.584
495.218
495.328
496.086
496.246
495.782
495.77
496.584
495.557
496.418
496.412
495.647
494.59
494.574
494.626
495.063
495.008
495.089
496.3
495.818
495.911
496.607
495.643
496.446
496.46
495.981
494.85
495.504
495.673
495.314
495.426
496.158
494.125
494.421
494.061
495.542
493.721
494.957
494.642
493.445
493.234
493.629
494.071
494.391
494.951
494.769
494.153
493.618
493.039
494.164
493.966
493.693
492.061
492.252
492.355
492.412
492.195
494.434
492.668
494.082
493.182
493.856
493.039
494.57
494.564
493.005
494.471
493.372
494.179
493.182
494.76
494.776
493.577
493.65
495.071
493.349
494.893
494.959
494.464
493.473
492.774
492.95
493.828
494.024
493.161
494.686
492.841
494.259
493.449
494.034
493.324
494.801
494.822
493.183
494.666
493.672
494.384
493.457
495.01
495.05
494.002
494.081
495.367
493.772
495.163
495.241
492.339
492.261
492.523
492.383
492.643
492.712
492.523
492.094
492.337
492.367
492.141
492.196
494.021
492.486
493.176
492.64
493.492
492.799
493.673
494.727
493.56
495.055
493.596
494.876
493.311
494.911
494.482
492.911
493.29
494.373
493.093
494.086
494.684
494.643
494.242
492.785
493.446
493.982
494.789
493.279
494.388
492.689
493.362
492.84
493.715
493.092
493.917
495.008
493.989
495.355
494.044
495.149
493.734
495.204
494.758
493.081
493.613
494.578
493.409
494.286
494.951
492.631
492.676
492.49
492.478
492.335
493.862
493.753
494.096
495.293
493.444
494.377
494.692
493.64
493.802
494.128
493.373
492.764
493.901
493.704
493.447
493.831
494.094
494.694
494.502
493.908
495.304
494.256
494.324
494.301
494.788
494.765
494.698
495.738
495.435
494.581
495.216
495.17
495.93
495.016
495.724
494.559
495.405
495.188
495.139
495.009
495.905
496.077
495.585
496.423
495.567
496.256
495.352
496.238
495.798
495.448
494.625
495.242
495.213
495.951
495.07
495.47
494.382
494.382
494.404
494.877
494.9
494.806
496.13
495.612
496.447
495.714
496.277
495.441
496.298
495.808
494.637
495.501
495.294
495.239
495.105
495.992
493.294
493.1
493.486
493.682
493.873
494.213
493.46
492.894
494.028
493.821
493.527
493.881
494.159
494.768
494.573
493.964
494.745
494.7
495.034
495.019
494.851
495.058
495.127
494.925
494.841
494.684
494.952
495.239
495.27
495.074
494.972
495.363
495.297
495.167
495.081
494.942
495.017
494.005
494.872
494.288
494.093
494.682
493.511
494.035
492.891
493.615
493.816
493.812
493.987
494.312
493.334
493.143
493.478
494.015
495.42
494.28
493.875
494.876
494.471
493.603
496.251
495.774
496.586
495.793
496.413
495.561
496.423
495.48
494.492
494.518
494.435
494.899
494.944
494.971
495.921
495.424
494.792
495.616
495.232
496.104
495.36
495.986
495.503
495.673
494.852
496.159
495.319
495.431
495.97
495.449
494.829
495.63
495.275
496.124
495.391
495.648
494.636
494.597
494.566
495.01
495.102
495.06
493.62
494.161
493.019
493.695
493.958
493.886
494.072
494.426
494.122
495.548
494.429
494.062
494.984
494.615
493.726
493.448
493.251
493.621
492.27
492.422
492.343
492.208
492.057
494.788
493.667
495.069
493.578
494.966
493.388
494.886
494.088
492.728
493.272
492.544
493.775
492.871
493.578
494.445
493.177
492.692
494.075
493.059
494.565
493.885
494.831
494.668
493.677
493.188
495.012
494.379
493.478
495.063
494.085
495.371
494.014
495.244
493.791
495.178
494.475
492.959
493.486
492.778
494.026
493.179
493.814
494.708
493.466
492.848
494.29
493.343
494.827
494.054
492.72
492.649
492.545
492.351
492.288
492.377
492.331
492.171
492.213
492.057
494.492
493.306
494.369
492.906
494.689
493.12
494.085
494.386
493.161
494.058
492.643
494.546
493.01
493.811
494.008
492.645
492.475
493.178
492.807
493.657
493.501
495.028
495.36
494.048
494.001
495.21
495.167
493.749
494.768
493.609
494.575
493.067
494.953
493.403
494.268
494.673
493.457
494.279
492.798
494.818
493.301
494.002
494.409
492.849
492.686
493.368
493.104
493.913
493.729
492.469
492.346
492.338
492.244
493.832
494.696
494.095
493.905
494.513
493.198
493.016
493.347
493.882
495.3
493.744
494.11
494.349
494.722
493.432
493.621
493.805
494.13
495.728
495.409
495.201
494.568
495.913
495.154
495.01
496.078
496.426
495.578
495.594
496.245
496.261
495.349
495.287
494.305
494.248
494.307
494.766
494.671
494.776
495.736
495.221
495.446
494.588
495.938
495.015
495.172
496.155
496.455
495.72
495.637
496.307
496.299
495.454
495.828
495.507
495.294
494.639
495.999
495.26
495.113
495.822
495.247
495.466
494.625
495.97
495.086
495.223
495.49
494.421
494.391
494.387
494.924
494.812
494.889
493.454
494.024
492.856
493.527
493.804
493.887
494.774
494.177
493.966
494.591
493.958
495.444
493.946
494.28
494.521
494.822
493.565
493.276
493.096
493.477
493.685
493.873
494.232
495.022
495.045
494.844
494.755
494.839
494.689
494.784
493.7
493.326
493.342
494.043
494.342
494.916
494.726
494.139
494.069
494.294
495.477
493.942
494.914
493.623
494.556
493.41
493.2
493.574
494.136
492.996
493.596
493.685
493.921
493.893
494.053
494.4
495.522
493.975
494.592
494.101
494.38
494.964
493.685
493.031
494.142
493.943
493.61
493.686
493.24
493.62
493.425
493.387
493.792
493.455
493.466
493.168
493.601
494.977
493.662
494.007
492.978
494.071
492.586
492.338
493.34
493.222
492.573
492.572
492.912
493.05
492.347
492.606
493.373
493.249
492.585
492.888
492.693
493.059
494.344
493.405
493.955
493.692
493.521
494.615
493.125
494.925
493.308
494.716
494.321
492.736
493.268
493.156
494.556
494.138
493.921
494.67
492.675
492.983
493.143
492.711
492.442
493.503
493.374
492.695
492.971
493.142
492.659
492.457
493.491
493.363
492.695
492.686
492.497
492.776
492.922
493.095
494.894
493.503
493.486
493.953
493.952
492.855
492.3
492.562
493.37
492.578
493.219
492.496
492.798
492.963
493.215
492.695
493.084
494.508
494.128
494.646
493.893
492.603
492.768
492.97
494.262
493.291
493.637
493.809
493.431
494.496
492.975
494.853
493.201
494.632
494.178
492.659
493.487
492.38
493.306
492.679
495.041
493.608
494.072
493.195
493.65
494.1
492.937
492.582
492.864
493.048
492.39
493.483
493.322
492.655
492.671
492.875
493.061
492.575
493.176
493.519
493.166
493.647
493.81
494.146
493.851
494.734
494.134
494.529
493.946
493.244
493.042
493.421
493.987
492.807
493.424
493.767
493.499
495.426
493.901
494.522
493.971
494.195
494.806
493.519
493.886
494.753
494.164
494.574
493.955
493.702
493.855
494.208
492.868
494.011
493.808
493.441
493.513
493.12
493.479
493.277
493.888
493.886
495.182
493.63
495.028
494.893
495.041
496.928
496.552
497.399
496.898
497.785
497.37
498.233
496.045
497.401
496.615
497.794
496.99
498.24
497.508
495.756
495.466
494.484
495.949
494.949
495.147
496.24
497.387
495.863
496.841
497.356
498.223
496.809
497.71
496.6
496.85
495.94
498.231
497.501
497.723
496.928
495.631
495.258
495.917
496.505
495.128
495.754
496.393
495.98
495.993
494.852
495.969
495.486
496.467
495.462
496.356
496.357
496.029
496.947
495.883
496.814
496.495
497.784
497.375
498.236
495.969
496.965
496.552
497.492
496.989
498.244
497.515
496.976
496.064
497.497
496.682
495.813
495.663
496.713
496.267
495.97
495.495
496.567
498.228
496.808
497.717
496.536
497.483
495.865
496.891
497.51
497.736
496.938
497.492
496.675
496.913
496.005
495.991
496.279
496.873
496.841
496.15
496.114
496.731
496.306
496.92
495.993
496.306
496.463
496.777
495.831
496.696
497.266
496.97
497.27
496.833
497.134
496.834
494.303
495.125
495.429
495.769
494.436
494.944
495.252
495.381
495.888
495.689
494.434
496.186
495.076
494.864
495.801
496.259
496.694
495.641
496.561
495.487
495.939
495.543
496.44
495.831
495.171
496.328
495.662
495.046
495.966
496.823
496.842
496.223
496.713
496.089
496.104
495.298
494.613
494.458
493.463
494.616
494.459
493.561
495.754
495.116
494.946
494.307
495.409
495.235
494.429
493.927
493.904
493.688
494.941
495.197
495.085
495.042
495.717
495.581
496.212
496.616
495.436
495.853
496.484
495.399
494.461
495.9
495.715
495.091
494.894
496.188
495.898
496.121
496.777
496.718
496.038
495.984
496.643
495.597
495.23
495.917
496.452
495.127
495.688
496.362
495.476
495.935
495.772
494.477
496.255
495.134
494.96
496
496.876
496.828
496.24
496.741
496.141
496.098
495.697
495.997
496.549
495.316
496.457
495.213
495.794
494.015
493.989
493.758
495.036
495.309
495.186
495.151
495.661
496.54
495.957
495.306
496.423
495.787
495.172
495.742
496.641
496.197
495.559
496.514
495.878
495.409
495.417
495.721
495.885
494.412
496.211
494.9
495.064
493.975
493.966
493.702
494.996
495.292
495.138
495.146
495.153
494.393
495.506
495.781
494.541
494.976
495.311
495.175
495.824
495.01
494.422
495.523
494.555
495.356
493.386
494.502
495.195
494.473
494.376
493.463
494.34
493.744
493.641
495.149
493.44
495.042
494.849
494.952
495.315
494.383
495.842
495.648
495.037
494.82
496.122
495.554
496.603
495.825
495.657
496.181
495.393
496.449
495.508
495.169
495.869
496.405
495.051
495.617
496.311
496.101
496.768
496.015
495.844
496.698
495.941
496.614
494.553
495.27
494.434
493.462
494.569
493.518
494.451
493.339
494.483
494.454
495.149
493.444
494.331
494.294
495.481
495.152
496.39
495.83
495.6
495.024
496.281
496.084
495.797
496.676
496.727
495.916
495.974
496.568
495.259
494.282
495.599
495.746
494.769
494.926
496.074
495.582
495.463
496.537
496.074
495.76
495.281
496.374
496.105
496.709
495.97
495.853
496.732
495.99
496.61
495.217
496.444
495.677
495.568
495.89
495.1
496.343
495.641
495.482
496.55
496.12
495.781
495.331
496.42
495.333
494.338
495.648
495.798
494.832
494.983
496.128
494.535
493.409
494.554
495.231
493.505
494.391
494.407
494.229
495.025
495.656
495.354
494.832
494.376
495.163
494.247
495.035
495.692
495.362
494.861
494.379
495.193
494.392
495.768
495.479
495.116
495.302
494.934
494.517
496.119
495.005
496.093
496.1
495.62
495.62
496.578
496.455
496.164
496.431
497.05
495.984
496.624
496.894
496.439
496.417
496.139
497.032
495.97
496.877
496.606
496.763
497.334
497.069
497.33
496.924
497.183
496.919
496.478
496.504
496.179
497.063
496.034
496.642
496.934
496.175
496.196
495.112
496.185
495.706
495.719
496.645
496.806
497.349
497.085
497.349
496.944
497.217
496.948
496.51
496.499
496.217
497.082
496.056
496.94
496.663
494.462
495.868
495.56
495.236
495.387
495.07
494.587
495.274
494.342
495.626
495.811
494.774
494.958
496.108
495.482
495.839
495.13
496.383
495.021
496.296
495.584
495.598
496.128
495.498
496.552
495.322
496.406
495.76
495.791
496.662
496.718
496.029
496.581
495.888
495.946
495.955
495.671
495.271
496.517
495.171
496.43
495.766
495.81
496.279
495.666
496.717
495.505
496.568
495.971
496.005
496.822
496.899
496.283
496.739
496.101
496.18
495.441
495.115
495.795
496.369
494.981
495.572
496.251
495.208
495.559
494.246
495.736
494.708
496.043
494.885
495.746
496.649
496.015
496.679
495.874
496.536
495.904
495.526
496.057
496.492
495.41
496.341
495.239
495.694
495.391
495.68
494.375
495.849
494.862
496.169
495.041
495.964
496.809
496.272
496.867
496.088
496.7
496.144
495.744
496.188
496.669
495.585
496.504
495.408
495.916
494.207
495.634
494.992
495.328
494.814
495.137
494.341
496.313
496.324
496.018
496.936
495.845
496.783
496.48
496.295
496.29
496.912
495.989
496.764
495.814
496.456
496.624
497.229
497.212
496.938
497.073
496.791
496.773
496.045
496.047
494.947
496.058
495.552
496.521
495.561
496.665
497.241
497.253
496.958
497.102
496.807
496.821
496.363
496.378
496.985
496.083
496.817
495.903
496.533
494.296
495.743
495.121
495.422
494.933
495.229
494.435
494.349
495.472
495.106
495.75
494.495
495.292
494.914
496.441
496.138
497.03
496.419
496.604
495.97
496.878
496.769
497.07
497.33
497.334
496.92
496.924
497.188
496.126
496.095
495.003
496.129
495.618
496.581
495.646
496.469
497.059
496.178
496.472
496.627
496.914
496.013
496.808
497.087
497.351
497.352
496.949
496.945
497.221
496.52
496.217
497.085
496.513
496.666
496.066
496.954
496.495
496.499
497.07
496.19
496.641
496.936
496.038
496.183
496.199
496.195
495.09
495.73
496.65
495.705
494.445
495.554
495.226
495.863
494.579
495.388
495.047
495.598
495.498
496.554
496.131
495.76
495.325
496.409
495.794
496.725
496.034
496.661
495.952
496.585
495.884
495.278
495.812
494.341
495.638
494.968
496.114
494.784
495.492
496.387
495.855
495.134
496.308
495.582
495.039
496.017
496.9
496.288
496.844
496.181
496.751
496.121
495.8
495.485
495.956
494.512
495.148
496.273
494.976
496.014
495.702
496.563
495.326
496.469
495.804
495.216
495.744
496.019
496.682
496.645
495.908
495.868
496.533
495.526
496.49
495.406
496.038
495.694
496.334
495.229
495.428
496.367
495.115
495.809
495.562
496.251
494.98
495.195
495.713
495.578
494.246
496.039
494.857
494.714
495.762
496.674
495.589
496.212
495.921
496.528
495.418
495.984
495.674
496.558
495.315
495.796
496.445
495.174
495.74
495.427
495.888
494.405
496.217
495.069
494.9
494.253
494.996
495.334
495.652
494.361
494.818
495.162
496.626
497.22
496.942
497.238
496.78
497.074
496.797
495.977
495.981
495.991
494.854
496.469
495.475
495.478
496.31
496.956
496.331
496.041
496.779
496.493
495.846
496.396
496.997
496.095
496.413
496.545
496.85
495.936
496.397
496.385
496.985
496.063
496.851
496.524
495.909
496.087
496.077
496.095
494.969
496.558
495.596
495.577
495.199
494.417
495.529
495.822
495.345
494.564
495.008
495.849
495.207
495.033
494.437
495.538
495.372
494.569
493.374
495.193
494.467
494.482
494.342
494.372
493.434
496.678
495.625
495.915
495.737
496.223
496.514
495.446
495.577
495.887
496.456
495.182
496.367
495.084
495.678
496.862
496.212
496.116
495.932
496.783
496.694
496.03
493.819
495.254
493.698
495.136
493.509
494.929
495.031
495.339
494.621
494.495
493.509
494.63
494.51
493.574
493.327
494.453
495.145
494.471
494.301
493.42
494.321
496.833
496.2
496.088
495.89
496.762
496.653
496.009
495.308
495.594
495.791
494.297
496.115
494.78
494.97
496.622
495.531
495.85
495.656
496.131
496.445
495.335
493.791
495.241
493.66
495.11
493.431
494.883
495.011
495.088
494.25
495.687
495.387
495.174
494.878
494.409
496.463
496.276
496.46
496.734
496.926
496.728
497.176
496.818
497.188
497.064
497.382
497.259
497.49
497.611
496.978
496.434
496.968
496.88
496.865
497.307
497.402
497.273
497.3
497.183
497.598
497.802
497.688
497.717
497.353
497.151
496.762
497.217
497.016
497.457
497.587
497.671
497.668
497.544
497.776
498.025
497.904
497.898
497.267
497.232
497.136
497.569
497.781
497.695
497.657
497.91
498.129
498.153
498.113
498.04
498.001
498.024
497.181
496.785
497.372
497.04
497.226
497.465
497.603
496.476
496.99
496.982
496.913
496.905
497.342
497.415
497.334
497.264
497.194
497.613
497.808
497.746
497.68
496.761
497.354
497.149
497.213
497.013
497.452
497.586
497.652
497.646
497.507
497.741
498.015
497.883
497.875
497.247
497.304
497.177
497.604
497.79
497.67
497.728
497.889
498.087
498.162
498.077
498.027
497.957
498.016
496.528
496.357
496.784
496.55
496.982
496.819
497.222
497.339
497.282
497.215
497.632
497.815
497.753
497.698
496.539
497.03
496.948
497.073
496.993
497.379
497.457
497.664
497.669
497.538
497.77
498.024
497.893
497.902
496.857
497.408
497.263
497.271
497.125
497.513
497.65
497.914
498.096
498.171
498.12
498.036
497.981
498.049
497.365
497.432
497.288
497.668
497.884
497.745
497.807
497.251
497.297
497.157
497.58
497.796
497.669
497.711
496.217
496.383
496.372
496.683
496.67
496.843
497.119
497.118
496.694
497.285
496.97
497.143
497.403
497.541
497.233
497.262
497.135
497.566
497.777
497.656
497.688
497.853
498.072
498.067
498.13
497.945
497.988
497.98
496.673
497.085
497.264
496.952
497.127
497.392
497.52
497.572
497.558
497.425
497.68
497.962
497.822
497.812
497.019
496.505
497.059
496.923
496.96
497.353
497.446
497.125
496.726
497.293
496.999
497.167
497.423
497.547
496.286
496.431
496.453
496.724
496.752
496.889
497.161
497.877
498.08
498.117
498.141
497.971
497.995
498.025
497.352
497.411
497.255
497.639
497.88
497.735
497.791
497.58
497.595
497.447
497.703
497.974
497.829
497.853
496.769
497.224
497.341
497.063
497.18
497.454
497.611
497.646
497.655
497.515
497.751
498.016
497.877
497.89
497.308
497.248
497.179
497.606
497.794
497.731
497.674
497.897
498.165
498.081
498.114
498.02
498.041
497.965
496.462
496.501
496.295
496.935
496.734
496.775
497.186
497.237
497.39
496.825
497.251
497.087
497.493
497.635
496.983
496.483
497.022
496.908
496.947
497.346
497.42
497.412
497.335
497.258
497.646
497.872
497.794
497.72
497.411
497.263
496.863
497.285
497.13
497.526
497.652
497.928
498.174
498.13
498.121
498.055
498.048
498.004
497.436
497.385
497.304
497.687
497.892
497.814
497.765
496.85
497.247
497.117
497.399
497.272
497.514
497.64
496.553
496.403
496.835
496.565
496.998
496.852
497.254
497.419
497.374
497.292
497.676
497.878
497.8
497.757
496.602
497.108
497.02
497.117
497.034
497.426
497.508
497.854
498.069
498.139
498.102
497.986
497.947
498.009
497.086
497.27
496.672
496.949
497.134
497.394
497.526
497.564
497.581
497.424
497.681
497.97
497.818
497.838
496.966
497.006
496.436
496.866
496.902
497.309
497.403
497.386
497.317
497.217
497.606
497.86
497.701
497.768
496.368
496.224
496.402
496.67
496.845
496.705
497.121
497.189
497.315
496.728
497.147
497.023
497.421
497.585
497.42
497.382
497.286
497.671
497.891
497.803
497.763
497.607
497.609
497.479
497.736
497.988
497.867
497.859
497.233
497.351
496.8
497.096
497.21
497.487
497.622
497.371
497.396
497.273
497.662
497.871
497.755
497.78
497.103
496.575
496.999
497.114
497.015
497.41
497.505
497.207
496.793
497.085
497.341
497.213
497.481
497.604
496.356
496.499
496.801
496.497
496.806
496.932
497.215
491.083
488.394
485.903
491.322
488.752
486.411
491.225
488.601
486.217
491.212
488.504
485.954
490.661
487.783
485.072
490.695
487.851
485.203
490.734
487.904
485.301
491.322
488.684
486.189
491.575
489.041
486.664
493.913
492.37
490.856
490.686
487.814
485.103
493.837
492.271
490.739
493.556
491.859
490.212
493.274
491.419
489.663
491.118
488.389
485.801
490.463
487.427
484.579
491.195
488.536
486.029
491.467
488.917
486.529
494.376
493.327
492.47
493.536
491.832
490.181
493.269
491.404
489.62
490.614
487.747
485.07
490.676
487.824
485.211
490.435
487.407
484.561
490.457
487.431
484.582
490.464
487.441
484.595
490.438
487.432
484.603
490.442
487.416
484.57
491.427
488.877
486.54
491.466
488.91
486.546
491.321
488.711
486.344
491.136
488.497
486.094
491.227
488.629
486.235
490.44
487.435
484.607
490.41
487.4
484.57
490.483
487.498
484.693
490.503
487.541
484.766
490.508
487.55
484.773
490.498
487.515
484.714
490.589
487.642
484.867
490.511
487.53
484.727
490.427
487.42
484.593
491.713
489.198
486.826
493.206
491.331
489.549
491.718
489.217
486.864
493.246
491.376
489.593
490.688
487.847
485.241
490.697
487.849
485.232
491.225
488.544
485.973
490.729
487.902
485.297
490.741
487.897
485.24
490.786
487.961
485.363
490.698
487.851
485.242
490.678
487.825
485.214
491.165
488.535
486.148
491.278
488.693
486.326
490.722
487.878
485.235
490.777
487.951
485.348
491.563
489.023
486.644
493.261
491.503
489.814
493.006
491.1
489.298
493.292
491.536
489.836
493.031
491.127
489.32
494.61
493.583
492.746
494.644
493.641
492.829
493.194
491.302
489.501
491.618
489.096
486.729
493.274
491.419
489.662
491.484
488.879
486.406
491.753
489.259
486.912
490.429
487.43
484.601
490.732
487.858
485.165
491.236
488.521
485.954
490.476
487.438
484.589
490.417
487.42
484.595
491.079
488.402
485.921
491.306
488.73
486.384
491.128
488.399
485.83
490.464
487.427
484.58
491.469
488.924
486.548
493.22
491.448
489.739
492.969
491.04
489.211
493.641
492.051
490.499
493.607
492.006
490.439
492.971
491.064
489.295
493.147
491.342
489.64
493.645
492.078
490.586
491.328
488.699
486.219
491.571
489.045
486.678
493.302
491.559
489.875
493.03
491.131
489.337
494.349
493.283
492.412
494.371
493.32
492.463
494.61
493.579
492.73
494.646
493.644
492.828
493.161
491.264
489.464
491.604
489.082
486.718
493.244
491.395
489.669
493.234
491.389
489.657
491.475
488.87
486.406
491.735
489.237
486.888
490.431
487.434
484.606
491.161
488.495
486.031
491.283
488.668
486.282
490.727
487.857
485.176
490.478
487.441
484.592
490.413
487.416
484.591
491.113
488.379
485.8
490.72
487.848
485.164
491.077
488.393
485.915
491.329
488.743
486.372
491.183
488.541
486.134
493.183
491.41
489.708
492.921
490.989
489.158
493.649
492.085
490.574
493.639
492.075
490.588
493.642
492.087
490.598
492.984
491.092
489.335
493.176
491.395
489.728
492.961
491.072
489.317
491.576
489.05
486.694
493.041
491.148
489.359
494.352
493.287
492.408
493.24
491.367
489.584
491.44
488.827
486.354
491.742
489.239
486.876
491.479
488.878
486.408
491.759
489.263
486.918
490.702
487.85
485.23
490.652
487.789
485.109
490.697
487.849
485.245
490.719
487.872
485.207
490.766
487.939
485.34
490.752
487.91
485.247
490.775
487.946
485.349
490.568
487.699
485.023
490.636
487.787
485.183
491.2
488.598
486.218
490.765
487.938
485.344
490.757
487.927
485.319
493.297
491.555
489.87
493.024
491.122
489.318
491.272
488.621
486.116
491.542
488.999
486.623
493.021
491.123
489.33
491.564
489.032
486.663
490.705
487.87
485.246
490.887
488.136
485.703
490.49
487.652
485.177
490.354
487.5
484.947
490.666
487.82
485.171
490.862
488.101
485.652
490.541
487.635
484.95
490.536
487.629
484.944
490.49
487.581
484.901
490.694
487.889
485.414
490.621
487.762
485.12
490.745
487.952
485.493
490.664
487.832
485.231
490.805
488.017
485.562
490.397
487.557
485.029
490.594
487.785
485.334
490.513
487.59
484.846
490.416
487.497
484.765
490.496
487.512
484.709
490.521
487.566
484.797
490.537
487.632
484.953
490.65
487.858
485.421
490.638
487.786
485.154
490.746
487.967
485.522
491.538
488.982
486.59
491.122
488.419
485.939
491.506
488.942
486.561
491.155
488.456
485.995
491.044
488.324
485.834
491.319
488.719
486.329
490.647
487.82
485.242
490.817
488.035
485.57
490.627
487.811
485.327
490.387
487.537
484.982
490.545
487.626
484.883
490.43
487.508
484.77
490.452
487.524
484.786
490.402
487.477
484.745
490.68
487.871
485.366
490.543
487.7
485.115
490.701
487.897
485.415
491.413
488.829
486.426
491.028
488.299
485.806
491.448
488.914
486.57
491.657
489.181
486.851
491.081
488.384
485.863
491.254
488.652
486.284
491.062
488.387
485.925
490.713
487.843
485.1
490.733
487.894
485.249
490.819
488.035
485.51
490.749
487.946
485.378
490.977
488.236
485.754
490.92
488.149
485.546
490.911
488.13
485.526
490.839
488.013
485.362
491.803
489.381
487.096
491.917
489.569
487.402
492.065
489.77
487.621
491.777
489.376
487.146
491.588
489.123
486.849
491.549
489.03
486.696
491.297
488.68
486.254
491.463
488.912
486.598
491.84
489.422
487.106
492.137
489.835
487.63
492.156
489.844
487.62