/*--------------------------------*- C++ -*----------------------------------*\
| =========                 |                                                 |
| \\      /  F ield         | OpenFOAM: The Open Source CFD Toolbox           |
|  \\    /   O peration     | Version:  v1906                                 |
|   \\  /    A nd           | Web:      www.OpenFOAM.com                      |
|    \\/     M anipulation  |                                                 |
\*---------------------------------------------------------------------------*/
FoamFile
{
    version     2.0;
    format      ascii;
    class       volScalarField;
    location    "0.73/oil";
    object      nut;
}
// * * * * * * * * * * * * * * * * * * * * * * * * * * * * * * * * * * * * * //

dimensions      [0 2 -1 0 0 0 0];


internalField   nonuniform List<scalar> 
168664
(
2.03596e-06
2.22877e-07
2.29195e-07
6.28269e-08
5.50031e-08
2.65661e-08
1.82975e-08
1.3875e-08
9.33315e-09
1.00589e-08
9.09418e-09
1.09192e-08
1.01461e-08
1.05151e-08
9.49208e-09
9.52732e-09
8.68575e-09
8.04622e-09
7.23727e-09
6.55367e-09
6.06624e-09
6.15475e-09
5.98057e-09
5.54173e-09
4.76493e-09
3.80339e-09
2.88043e-09
2.12546e-09
1.50794e-09
4.99019e-10
2.22189e-07
2.61993e-07
5.79358e-08
5.0427e-08
2.17324e-08
1.65301e-08
1.10573e-08
9.32476e-09
7.60528e-09
7.98917e-09
8.19094e-09
9.13369e-09
8.85674e-09
9.17514e-09
8.6127e-09
8.67323e-09
7.99187e-09
7.54067e-09
6.84771e-09
6.42744e-09
6.0998e-09
6.12331e-09
5.89698e-09
5.48845e-09
5.01972e-09
4.37248e-09
3.77085e-09
3.00931e-09
3.04095e-09
1.84217e-09
2.27051e-07
5.7965e-08
5.34429e-08
3.42822e-08
2.59962e-08
1.86143e-08
1.4218e-08
1.11219e-08
9.5949e-09
8.88878e-09
8.90771e-09
8.98375e-09
8.56907e-09
8.85052e-09
8.35188e-09
8.34126e-09
7.72188e-09
7.34847e-09
6.7026e-09
6.39214e-09
6.23502e-09
6.31084e-09
6.1912e-09
5.89031e-09
5.48568e-09
4.98097e-09
4.53326e-09
4.1891e-09
4.85601e-09
3.969e-09
6.60764e-08
5.22138e-08
3.61861e-08
2.73658e-08
1.95235e-08
1.49651e-08
1.265e-08
1.03975e-08
9.84497e-09
9.00445e-09
9.03653e-09
8.67649e-09
8.5985e-09
8.84956e-09
8.42896e-09
8.26115e-09
7.71079e-09
7.34791e-09
6.82212e-09
6.56508e-09
6.38528e-09
6.4595e-09
6.52084e-09
6.35263e-09
5.9263e-09
5.41977e-09
5.07847e-09
5.29206e-09
6.16158e-09
5.6842e-09
5.66489e-08
2.49481e-08
2.75667e-08
1.97604e-08
1.86121e-08
1.52736e-08
1.37796e-08
1.19563e-08
1.11497e-08
1.02532e-08
9.85479e-09
9.25775e-09
9.04884e-09
9.15317e-09
8.62311e-09
8.28329e-09
7.72134e-09
7.40081e-09
7.07376e-09
7.10405e-09
6.89941e-09
6.96952e-09
7.00021e-09
6.95074e-09
6.60229e-09
6.23567e-09
6.05059e-09
6.52618e-09
7.51854e-09
7.48697e-09
3.55189e-08
2.38562e-08
2.44228e-08
1.83471e-08
1.76314e-08
1.37982e-08
1.3302e-08
1.11944e-08
1.10139e-08
1.00668e-08
9.97706e-09
9.20226e-09
8.95834e-09
9.10693e-09
8.71587e-09
8.14873e-09
7.64038e-09
7.23196e-09
7.1917e-09
7.40272e-09
7.23343e-09
7.18119e-09
7.13945e-09
7.13607e-09
6.89407e-09
6.81572e-09
6.83419e-09
7.51029e-09
8.52397e-09
8.88611e-09
2.65961e-08
1.87128e-08
1.92025e-08
1.57157e-08
1.56838e-08
1.3395e-08
1.29848e-08
1.15197e-08
1.11307e-08
1.04345e-08
1.02255e-08
9.58909e-09
9.37794e-09
9.7712e-09
9.26658e-09
8.43318e-09
7.71848e-09
7.2418e-09
7.1664e-09
7.40228e-09
7.23044e-09
7.26805e-09
7.28626e-09
7.43498e-09
7.42324e-09
7.65013e-09
7.93285e-09
8.73785e-09
9.76892e-09
1.05349e-08
2.63794e-08
1.98499e-08
1.98281e-08
1.63646e-08
1.61198e-08
1.33374e-08
1.30182e-08
1.10624e-08
1.07924e-08
9.81236e-09
9.90083e-09
9.46003e-09
9.79586e-09
1.03735e-08
1.00111e-08
8.89823e-09
8.21654e-09
7.53514e-09
7.34856e-09
7.24362e-09
7.03005e-09
7.07879e-09
7.20523e-09
7.54236e-09
7.84296e-09
8.39612e-09
8.90603e-09
9.77094e-09
1.07441e-08
1.18125e-08
2.18189e-08
1.75338e-08
1.71953e-08
1.5155e-08
1.47179e-08
1.28187e-08
1.22827e-08
1.07432e-08
1.02702e-08
9.46496e-09
9.6484e-09
9.83263e-09
1.03994e-08
1.09832e-08
1.05076e-08
9.39083e-09
8.49024e-09
7.71027e-09
7.3394e-09
7.11426e-09
6.86016e-09
7.11436e-09
7.40051e-09
8.01553e-09
8.58859e-09
9.3504e-09
1.00569e-08
1.09188e-08
1.17575e-08
1.30855e-08
2.32731e-08
1.87344e-08
1.83932e-08
1.62867e-08
1.56081e-08
1.33445e-08
1.25965e-08
1.07007e-08
1.00954e-08
9.06512e-09
9.45662e-09
9.75132e-09
1.03134e-08
1.03937e-08
1.01225e-08
9.29706e-09
8.39134e-09
7.61197e-09
7.31007e-09
7.01563e-09
6.82701e-09
7.19054e-09
7.62597e-09
8.35788e-09
8.98238e-09
9.90168e-09
1.07803e-08
1.16008e-08
1.23562e-08
1.38797e-08
2.12657e-08
1.75767e-08
1.70349e-08
1.55626e-08
1.47843e-08
1.31576e-08
1.23805e-08
1.0748e-08
1.00405e-08
9.23239e-09
9.56984e-09
9.78951e-09
9.59898e-09
8.99118e-09
8.45503e-09
7.96408e-09
7.31777e-09
6.99301e-09
6.92786e-09
7.00854e-09
7.07082e-09
7.71176e-09
8.29758e-09
9.17663e-09
9.82321e-09
1.08452e-08
1.1766e-08
1.24497e-08
1.31122e-08
1.47872e-08
2.26548e-08
1.86163e-08
1.79832e-08
1.6499e-08
1.58725e-08
1.4404e-08
1.37173e-08
1.18454e-08
1.07867e-08
9.41645e-09
9.13542e-09
8.63679e-09
7.78321e-09
6.69137e-09
6.14425e-09
5.71261e-09
5.44117e-09
5.79809e-09
6.23234e-09
6.77686e-09
7.29619e-09
8.24256e-09
9.01132e-09
1.01041e-08
1.08232e-08
1.18098e-08
1.25475e-08
1.30581e-08
1.36384e-08
1.54453e-08
2.12335e-08
1.79238e-08
1.7443e-08
1.65405e-08
1.59981e-08
1.48919e-08
1.42324e-08
1.25041e-08
1.12598e-08
9.29939e-09
8.20109e-09
6.98006e-09
5.67805e-09
4.81774e-09
4.10225e-09
3.71757e-09
3.66683e-09
4.2798e-09
5.04112e-09
6.10362e-09
7.2064e-09
8.85382e-09
9.87887e-09
1.10205e-08
1.1736e-08
1.26683e-08
1.32658e-08
1.37699e-08
1.44162e-08
1.65354e-08
2.12573e-08
1.78916e-08
1.75367e-08
1.6799e-08
1.63047e-08
1.51622e-08
1.45443e-08
1.30805e-08
1.20122e-08
9.42283e-09
7.37352e-09
5.14642e-09
3.65135e-09
2.5925e-09
2.24307e-09
1.9305e-09
2.27075e-09
3.3366e-09
4.08783e-09
5.65958e-09
7.17546e-09
9.33914e-09
1.05729e-08
1.17336e-08
1.23024e-08
1.31913e-08
1.37818e-08
1.43678e-08
1.50865e-08
1.75477e-08
2.02144e-08
1.71439e-08
1.67423e-08
1.61297e-08
1.56697e-08
1.47325e-08
1.41238e-08
1.29291e-08
1.20586e-08
9.74049e-09
7.71803e-09
5.76464e-09
4.49821e-09
3.11041e-09
2.13213e-09
2.13202e-09
2.98966e-09
4.05642e-09
4.6955e-09
6.16659e-09
7.57536e-09
9.78872e-09
1.11946e-08
1.24546e-08
1.30371e-08
1.38874e-08
1.44884e-08
1.50987e-08
1.57837e-08
1.84928e-08
2.03302e-08
1.71483e-08
1.66846e-08
1.6057e-08
1.56365e-08
1.47235e-08
1.41049e-08
1.27758e-08
1.16951e-08
9.56515e-09
7.86496e-09
6.13442e-09
5.0092e-09
3.385e-09
1.80488e-09
2.19085e-09
3.27061e-09
4.54198e-09
5.06567e-09
6.50705e-09
7.80411e-09
1.00223e-08
1.12719e-08
1.25375e-08
1.30759e-08
1.39673e-08
1.45496e-08
1.51944e-08
1.57577e-08
1.83821e-08
1.88915e-08
1.6137e-08
1.56349e-08
1.51021e-08
1.4682e-08
1.38639e-08
1.33012e-08
1.21856e-08
1.10001e-08
8.81764e-09
6.75815e-09
4.99393e-09
3.99664e-09
2.74495e-09
1.86445e-09
2.20275e-09
3.09569e-09
4.70172e-09
5.47831e-09
6.94342e-09
8.31248e-09
1.03598e-08
1.14533e-08
1.2536e-08
1.31055e-08
1.40372e-08
1.46802e-08
1.52626e-08
1.57321e-08
1.82467e-08
1.82393e-08
1.5691e-08
1.51651e-08
1.45981e-08
1.41254e-08
1.31996e-08
1.25541e-08
1.13718e-08
1.03731e-08
8.5161e-09
7.00856e-09
5.71802e-09
4.6863e-09
3.97279e-09
3.67728e-09
3.61353e-09
3.70341e-09
5.32194e-09
6.57688e-09
8.04005e-09
8.68091e-09
1.02788e-08
1.10829e-08
1.22693e-08
1.29271e-08
1.3891e-08
1.4565e-08
1.5291e-08
1.58873e-08
1.8428e-08
1.70836e-08
1.49323e-08
1.43444e-08
1.37249e-08
1.31335e-08
1.22124e-08
1.14913e-08
1.03696e-08
9.51199e-09
8.44896e-09
7.78916e-09
7.03098e-09
6.14475e-09
5.53463e-09
5.49356e-09
5.29132e-09
5.21435e-09
6.26297e-09
7.37339e-09
8.33287e-09
8.56163e-09
9.37786e-09
1.00043e-08
1.11828e-08
1.18658e-08
1.26823e-08
1.33824e-08
1.44e-08
1.53377e-08
1.79475e-08
1.62904e-08
1.41896e-08
1.35009e-08
1.26904e-08
1.19624e-08
1.09939e-08
1.03725e-08
9.44468e-09
8.83372e-09
8.10848e-09
7.9765e-09
7.68369e-09
7.29481e-09
7.17988e-09
7.3791e-09
7.26361e-09
7.22307e-09
7.67415e-09
7.85078e-09
8.08731e-09
7.91931e-09
8.48717e-09
8.93616e-09
9.97042e-09
1.05848e-08
1.14321e-08
1.21664e-08
1.32519e-08
1.42244e-08
1.66185e-08
1.49133e-08
1.30805e-08
1.24756e-08
1.1618e-08
1.08445e-08
1.00452e-08
9.491e-09
8.73259e-09
8.19717e-09
7.73915e-09
7.77051e-09
7.69104e-09
7.72346e-09
8.1408e-09
8.85521e-09
9.14825e-09
9.10476e-09
8.75303e-09
8.3217e-09
8.00228e-09
7.57248e-09
7.90081e-09
8.29084e-09
9.21186e-09
9.77589e-09
1.06227e-08
1.13217e-08
1.22906e-08
1.31399e-08
1.49793e-08
1.39486e-08
1.24366e-08
1.19039e-08
1.10119e-08
1.02552e-08
9.55598e-09
9.09292e-09
8.47368e-09
8.06143e-09
7.71736e-09
7.54996e-09
7.20332e-09
7.38592e-09
8.11999e-09
9.0274e-09
9.71022e-09
9.64112e-09
8.65729e-09
7.90699e-09
7.70888e-09
7.43757e-09
7.76253e-09
8.00723e-09
8.70714e-09
9.0781e-09
9.79271e-09
1.03526e-08
1.12817e-08
1.21475e-08
1.36324e-08
1.25354e-08
1.13762e-08
1.06875e-08
9.83948e-09
9.30127e-09
8.77812e-09
8.46815e-09
8.09269e-09
7.88358e-09
7.74024e-09
7.47031e-09
6.8882e-09
6.8973e-09
7.63894e-09
8.53308e-09
9.20726e-09
9.08408e-09
8.11513e-09
7.586e-09
7.69518e-09
7.59326e-09
7.74339e-09
7.76036e-09
8.15413e-09
8.29937e-09
8.82056e-09
9.2674e-09
1.01658e-08
1.10454e-08
1.21552e-08
1.12437e-08
1.03149e-08
9.45285e-09
8.74994e-09
8.42756e-09
8.13398e-09
8.05112e-09
7.92025e-09
7.85904e-09
7.72214e-09
7.32007e-09
6.71637e-09
6.50536e-09
6.9495e-09
7.65248e-09
8.1748e-09
8.1329e-09
7.59998e-09
7.35461e-09
7.63332e-09
7.63665e-09
7.77909e-09
7.67065e-09
7.84054e-09
7.77779e-09
8.02353e-09
8.2528e-09
9.09966e-09
1.00041e-08
1.08266e-08
9.378e-09
8.87207e-09
8.02193e-09
7.54062e-09
7.39204e-09
7.28564e-09
7.41015e-09
7.516e-09
7.65485e-09
7.52984e-09
7.0285e-09
6.54288e-09
6.54611e-09
6.76825e-09
7.17589e-09
7.40846e-09
7.62658e-09
7.47294e-09
7.24718e-09
7.30986e-09
7.39563e-09
7.58611e-09
7.45606e-09
7.51208e-09
7.29113e-09
7.26405e-09
7.19708e-09
7.95525e-09
8.87459e-09
9.33396e-09
7.83004e-09
7.63736e-09
6.75223e-09
6.44506e-09
6.57889e-09
6.74859e-09
6.96229e-09
7.20362e-09
7.44417e-09
7.43093e-09
6.94607e-09
6.52821e-09
6.68119e-09
6.84906e-09
6.94194e-09
6.9125e-09
7.27885e-09
7.37363e-09
7.0447e-09
6.91976e-09
6.91709e-09
7.16694e-09
7.11022e-09
7.13872e-09
6.85083e-09
6.52562e-09
6.26718e-09
6.87123e-09
7.82614e-09
7.94226e-09
6.0224e-09
6.23471e-09
5.28077e-09
5.17094e-09
5.57982e-09
5.90954e-09
6.23876e-09
6.60641e-09
6.92062e-09
7.09873e-09
6.7863e-09
6.59523e-09
6.85678e-09
6.93918e-09
6.81793e-09
6.5866e-09
6.95611e-09
7.06471e-09
6.88992e-09
6.66969e-09
6.48512e-09
6.50578e-09
6.39041e-09
6.35233e-09
6.07818e-09
5.71898e-09
5.33725e-09
5.67067e-09
6.53122e-09
6.23149e-09
4.27565e-09
4.96649e-09
4.10456e-09
4.46712e-09
4.89242e-09
5.35224e-09
5.80718e-09
6.26114e-09
6.65961e-09
6.88514e-09
6.72826e-09
6.70087e-09
6.96118e-09
6.94486e-09
6.81345e-09
6.519e-09
6.65181e-09
6.78706e-09
6.76342e-09
6.65263e-09
6.27319e-09
6.13738e-09
5.90974e-09
5.844e-09
5.64226e-09
5.30787e-09
4.83249e-09
4.47372e-09
5.17308e-09
4.43798e-09
2.23665e-09
3.33957e-09
3.19906e-09
3.86387e-09
4.33536e-09
4.98254e-09
5.53012e-09
6.12527e-09
6.67388e-09
7.04815e-09
7.14162e-09
7.15948e-09
7.32747e-09
7.33682e-09
7.41047e-09
7.12439e-09
7.11985e-09
7.169e-09
7.10292e-09
6.80078e-09
6.20847e-09
5.93408e-09
5.63933e-09
5.50129e-09
5.1615e-09
4.58487e-09
3.97651e-09
3.11238e-09
3.22776e-09
2.13433e-09
1.03929e-09
2.02327e-09
2.80018e-09
3.55231e-09
4.289e-09
5.05499e-09
5.71234e-09
6.42203e-09
7.11422e-09
7.49813e-09
7.67473e-09
7.78349e-09
7.83277e-09
8.01082e-09
7.95761e-09
7.58116e-09
7.62008e-09
7.72017e-09
7.62751e-09
7.01892e-09
6.21036e-09
5.85885e-09
5.45033e-09
5.23033e-09
4.63128e-09
3.79549e-09
2.86853e-09
1.99727e-09
1.43841e-09
5.81023e-10
2.2182e-07
2.68216e-07
5.96386e-08
5.20001e-08
2.18829e-08
1.68015e-08
1.08744e-08
9.54513e-09
7.1245e-09
7.97221e-09
7.39956e-09
8.87601e-09
8.26934e-09
9.24592e-09
8.67889e-09
8.89962e-09
8.26131e-09
7.5294e-09
7.17577e-09
6.37934e-09
6.09822e-09
5.63153e-09
5.68787e-09
5.23411e-09
4.99274e-09
4.18267e-09
3.58829e-09
2.71342e-09
2.33228e-09
1.50178e-09
2.66134e-07
5.18291e-08
4.30203e-08
2.0038e-08
1.02805e-08
7.85805e-09
5.52903e-09
4.15821e-09
3.6835e-09
3.62052e-09
4.00137e-09
3.52732e-09
3.00059e-09
2.97332e-09
3.14591e-09
3.23727e-09
3.05049e-09
2.99852e-09
2.7152e-09
2.58927e-09
2.4372e-09
2.92177e-09
3.29155e-09
3.66797e-09
3.54583e-09
3.24115e-09
2.79321e-09
2.49284e-09
3.41844e-09
3.07211e-09
5.78293e-08
4.38047e-08
2.20863e-08
2.01375e-08
1.08832e-08
9.65169e-09
6.89514e-09
5.27522e-09
4.50526e-09
4.59113e-09
5.20628e-09
5.17224e-09
3.99122e-09
3.07673e-09
2.83218e-09
2.70638e-09
2.22441e-09
1.85596e-09
1.80811e-09
2.32351e-09
2.60773e-09
3.5553e-09
4.16746e-09
4.33066e-09
4.27006e-09
4.11485e-09
3.42198e-09
3.24947e-09
3.85899e-09
4.90542e-09
5.22928e-08
1.81052e-08
1.84643e-08
1.16602e-08
6.48949e-09
6.27783e-09
4.04066e-09
4.16751e-09
3.9696e-09
4.30052e-09
4.73909e-09
4.96767e-09
3.75949e-09
2.77009e-09
2.40484e-09
2.32159e-09
2.27249e-09
1.78313e-09
2.04088e-09
2.96931e-09
3.5864e-09
4.12545e-09
3.90901e-09
3.88046e-09
4.14732e-09
4.24792e-09
3.72139e-09
3.73192e-09
3.64706e-09
6.2168e-09
2.46909e-08
8.71989e-09
8.72597e-09
6.9412e-09
4.39428e-09
4.7657e-09
3.327e-09
3.41791e-09
3.0935e-09
3.05267e-09
3.08385e-09
3.38834e-09
2.37589e-09
2.1009e-09
2.03897e-09
2.08766e-09
2.19245e-09
1.71532e-09
2.20272e-09
3.21397e-09
3.54478e-09
3.04813e-09
2.23207e-09
2.32039e-09
2.79043e-09
3.31239e-09
3.51383e-09
3.83387e-09
3.42214e-09
7.61435e-09
2.35198e-08
5.36777e-09
7.7946e-09
6.29493e-09
4.25995e-09
4.16001e-09
2.42669e-09
2.52813e-09
1.80028e-09
1.95498e-09
2.16901e-09
2.57736e-09
2.1131e-09
2.05257e-09
2.13061e-09
2.23371e-09
2.36646e-09
2.13794e-09
2.66707e-09
3.00999e-09
2.6825e-09
1.83474e-09
1.15803e-09
1.39265e-09
1.75421e-09
2.54185e-09
3.19613e-09
3.71802e-09
3.20605e-09
8.61538e-09
1.87197e-08
3.40714e-09
5.07148e-09
3.82797e-09
3.12508e-09
3.0359e-09
2.20035e-09
2.20975e-09
1.63258e-09
1.74148e-09
1.93902e-09
2.44536e-09
2.11732e-09
2.18072e-09
2.40861e-09
2.36638e-09
2.49394e-09
2.59682e-09
3.01194e-09
2.54278e-09
1.90655e-09
1.386e-09
1.09759e-09
1.22872e-09
1.55506e-09
2.49773e-09
3.19101e-09
3.62864e-09
3.19989e-09
9.82838e-09
1.97984e-08
1.83852e-09
4.30719e-09
4.2615e-09
3.61277e-09
3.42508e-09
2.63026e-09
2.52459e-09
1.90598e-09
1.8946e-09
1.98963e-09
2.25153e-09
1.87319e-09
1.92303e-09
2.34036e-09
2.19548e-09
2.23691e-09
2.6468e-09
2.83959e-09
2.1959e-09
1.51e-09
1.33234e-09
1.14789e-09
1.34435e-09
1.78218e-09
2.68272e-09
3.19687e-09
3.51717e-09
3.16179e-09
1.07667e-08
1.75686e-08
2.16149e-09
3.06115e-09
3.08171e-09
3.06942e-09
2.92858e-09
2.53101e-09
2.45297e-09
2.19461e-09
2.17903e-09
2.13564e-09
1.74626e-09
9.65831e-10
1.97654e-09
2.7284e-09
2.35922e-09
1.66393e-09
1.97643e-09
2.34151e-09
2.08763e-09
1.64009e-09
1.59646e-09
1.45978e-09
1.74683e-09
2.14578e-09
2.79339e-09
3.04148e-09
3.16489e-09
2.9822e-09
1.18101e-08
1.86233e-08
1.73675e-09
2.43572e-09
2.75577e-09
2.95051e-09
3.06395e-09
2.80786e-09
2.7688e-09
2.66723e-09
2.55719e-09
2.36918e-09
1.44596e-09
1.25361e-09
2.90207e-09
3.62369e-09
3.02834e-09
1.88946e-09
8.55247e-10
1.61146e-09
2.05886e-09
1.81666e-09
1.89143e-09
1.80411e-09
2.0807e-09
2.2315e-09
2.5738e-09
2.58047e-09
2.51947e-09
2.60185e-09
1.25135e-08
1.76169e-08
2.0964e-09
1.89155e-09
1.92085e-09
2.01706e-09
2.39675e-09
2.55082e-09
2.78329e-09
2.9167e-09
2.7629e-09
2.49548e-09
1.79571e-09
2.6134e-09
4.01319e-09
4.59224e-09
4.30301e-09
3.49176e-09
1.48227e-09
1.15427e-09
2.04434e-09
2.19329e-09
2.41881e-09
2.3579e-09
2.53118e-09
2.51673e-09
2.5651e-09
2.3473e-09
2.16547e-09
2.33799e-09
1.31719e-08
1.86245e-08
2.16018e-09
1.64818e-09
1.66332e-09
1.73652e-09
2.22268e-09
2.52611e-09
2.93456e-09
3.38035e-09
3.33727e-09
2.69177e-09
2.46885e-09
3.19152e-09
3.619e-09
3.84388e-09
3.7928e-09
3.21564e-09
2.1169e-09
1.38579e-09
2.02018e-09
2.56799e-09
2.83845e-09
2.72398e-09
2.69484e-09
2.58561e-09
2.51626e-09
2.1754e-09
2.08603e-09
2.16359e-09
1.36202e-08
1.77448e-08
2.23175e-09
1.54261e-09
1.46356e-09
1.40649e-09
1.6834e-09
1.87707e-09
2.41687e-09
3.08433e-09
3.04873e-09
2.26161e-09
3.23482e-09
3.56978e-09
3.51091e-09
3.38427e-09
3.18489e-09
2.90323e-09
2.35993e-09
1.9698e-09
1.59097e-09
2.51112e-09
2.84455e-09
2.5856e-09
2.32629e-09
2.13314e-09
2.08455e-09
1.88582e-09
2.00337e-09
2.2259e-09
1.44756e-08
1.78339e-08
1.99188e-09
1.49967e-09
1.497e-09
1.51227e-09
1.4997e-09
1.58769e-09
2.13874e-09
2.83745e-09
2.89878e-09
2.87255e-09
3.25788e-09
3.01325e-09
2.81548e-09
2.4044e-09
2.11716e-09
1.59939e-09
1.63684e-09
1.60863e-09
1.5685e-09
2.02192e-09
2.54342e-09
2.29173e-09
1.91159e-09
1.72004e-09
1.73927e-09
1.68606e-09
1.8607e-09
2.25571e-09
1.51942e-08
1.70986e-08
2.20246e-09
1.64893e-09
1.59054e-09
1.57674e-09
1.62649e-09
1.70556e-09
2.15502e-09
2.58744e-09
3.01041e-09
3.06935e-09
2.7857e-09
2.30446e-09
1.92685e-09
2.06685e-09
1.84834e-09
1.51565e-09
1.72731e-09
1.77702e-09
2.19444e-09
2.57194e-09
2.6663e-09
2.20302e-09
1.68611e-09
1.56219e-09
1.58137e-09
1.58596e-09
1.73182e-09
2.28453e-09
1.58357e-08
1.71839e-08
2.37609e-09
1.82318e-09
1.70988e-09
1.76376e-09
1.89867e-09
2.02259e-09
2.35926e-09
2.78466e-09
3.02656e-09
2.55952e-09
1.79889e-09
1.49907e-09
1.51265e-09
1.9945e-09
2.04722e-09
1.77547e-09
1.93736e-09
2.15791e-09
2.62831e-09
2.79036e-09
2.67694e-09
2.05669e-09
1.40145e-09
1.24488e-09
1.3433e-09
1.40587e-09
1.49548e-09
1.97641e-09
1.57273e-08
1.62613e-08
2.44722e-09
2.06858e-09
1.92439e-09
2.00808e-09
2.12e-09
2.22814e-09
2.5849e-09
2.95763e-09
2.71003e-09
2.23147e-09
2.01514e-09
1.85504e-09
1.91321e-09
2.39283e-09
2.37266e-09
2.16686e-09
2.28699e-09
2.31142e-09
2.16665e-09
2.32905e-09
2.9054e-09
2.28277e-09
1.53359e-09
1.34999e-09
1.51757e-09
1.69576e-09
1.6723e-09
1.98087e-09
1.56916e-08
1.58055e-08
2.40791e-09
2.27567e-09
2.09205e-09
2.24734e-09
2.34257e-09
2.53588e-09
2.75464e-09
3.05281e-09
2.71888e-09
2.14022e-09
2.08024e-09
2.26957e-09
2.54017e-09
2.95513e-09
2.97377e-09
3.09794e-09
2.91202e-09
2.22251e-09
1.33819e-09
2.74417e-09
3.49865e-09
2.8085e-09
2.30482e-09
2.03325e-09
2.02454e-09
2.20372e-09
2.17088e-09
2.35361e-09
1.56988e-08
1.48648e-08
2.65157e-09
2.66973e-09
2.63534e-09
2.90249e-09
2.93564e-09
2.99455e-09
2.97088e-09
3.13386e-09
2.92557e-09
2.71179e-09
1.81583e-09
1.91146e-09
2.5995e-09
3.28124e-09
3.26956e-09
3.17249e-09
2.60897e-09
1.44573e-09
1.66012e-09
3.01841e-09
3.66458e-09
3.14327e-09
2.81525e-09
2.5344e-09
2.53183e-09
2.69061e-09
2.73032e-09
2.80316e-09
1.53184e-08
1.42442e-08
2.74332e-09
2.64393e-09
2.83364e-09
3.08704e-09
2.78162e-09
2.63646e-09
2.41241e-09
2.62128e-09
2.42396e-09
2.5353e-09
1.40311e-09
9.49067e-10
2.45498e-09
3.54384e-09
3.72741e-09
3.50326e-09
2.03606e-09
8.41564e-10
2.02758e-09
2.56826e-09
3.06179e-09
2.68527e-09
2.62144e-09
2.48954e-09
2.72884e-09
2.78288e-09
2.67847e-09
2.80205e-09
1.43974e-08
1.3321e-08
3.02024e-09
2.77332e-09
3.13492e-09
3.32247e-09
2.62689e-09
2.28815e-09
1.97614e-09
2.17482e-09
2.0813e-09
2.42337e-09
1.84938e-09
9.92756e-10
8.85118e-10
2.29213e-09
2.94692e-09
2.70206e-09
8.13214e-10
1.3616e-09
2.43122e-09
2.36362e-09
2.56749e-09
2.25288e-09
2.43512e-09
2.58932e-09
3.15854e-09
3.12414e-09
2.95651e-09
2.85495e-09
1.31021e-08
1.2474e-08
3.12624e-09
3.22511e-09
3.52517e-09
3.33071e-09
2.44605e-09
2.0698e-09
1.60419e-09
1.75673e-09
1.75087e-09
2.30488e-09
2.4055e-09
2.07239e-09
1.33131e-09
1.67563e-09
2.00794e-09
1.61187e-09
1.4659e-09
1.97366e-09
2.30988e-09
1.8871e-09
2.00459e-09
1.73134e-09
2.05568e-09
2.30529e-09
3.13184e-09
3.35782e-09
3.33313e-09
2.88543e-09
1.20437e-08
1.13841e-08
3.17014e-09
3.71767e-09
3.6183e-09
3.073e-09
2.17132e-09
1.83212e-09
1.3061e-09
1.52301e-09
1.58617e-09
2.24494e-09
2.62144e-09
2.49143e-09
2.37865e-09
2.47402e-09
2.5038e-09
1.72295e-09
2.23562e-09
2.67999e-09
2.4985e-09
1.67246e-09
1.64756e-09
1.38134e-09
1.74177e-09
1.91508e-09
2.90648e-09
3.43152e-09
3.59695e-09
3.04264e-09
1.10017e-08
1.0446e-08
3.17281e-09
3.76303e-09
3.14727e-09
2.58613e-09
1.84604e-09
1.66006e-09
1.13871e-09
1.38878e-09
1.59295e-09
2.36211e-09
2.48497e-09
2.32463e-09
2.81246e-09
2.90927e-09
2.61008e-09
1.95856e-09
2.73603e-09
3.19788e-09
3.18612e-09
2.16383e-09
1.5713e-09
1.15801e-09
1.48929e-09
1.57838e-09
2.55582e-09
3.31244e-09
3.72072e-09
3.09434e-09
1.00202e-08
9.02296e-09
3.24945e-09
3.70525e-09
2.7865e-09
2.23222e-09
1.66834e-09
1.86605e-09
1.56315e-09
1.72969e-09
1.8926e-09
2.55939e-09
2.27918e-09
2.03813e-09
2.84926e-09
2.9735e-09
2.54058e-09
2.23415e-09
2.77479e-09
3.29602e-09
3.84217e-09
3.16646e-09
2.26128e-09
1.53127e-09
1.80407e-09
1.92395e-09
2.83923e-09
3.44979e-09
4.03652e-09
3.34043e-09
8.93246e-09
7.86739e-09
3.23012e-09
3.51292e-09
2.57164e-09
2.2234e-09
1.98135e-09
2.36671e-09
2.30781e-09
2.64256e-09
2.64334e-09
2.78134e-09
1.94544e-09
1.85946e-09
2.71787e-09
2.93672e-09
2.58545e-09
2.33465e-09
2.58896e-09
3.07813e-09
3.94073e-09
3.87778e-09
3.50551e-09
2.76903e-09
2.91841e-09
3.10255e-09
3.72191e-09
3.67975e-09
4.16801e-09
3.62451e-09
7.88731e-09
6.5795e-09
3.4357e-09
3.4988e-09
2.76834e-09
2.99289e-09
3.00128e-09
3.35133e-09
3.39577e-09
3.94404e-09
4.00588e-09
3.64395e-09
2.02226e-09
1.79143e-09
2.70113e-09
3.32514e-09
3.02231e-09
2.87315e-09
3.20288e-09
3.51661e-09
4.19452e-09
4.25297e-09
4.60381e-09
4.49683e-09
4.76542e-09
4.74654e-09
4.76959e-09
3.91505e-09
4.08564e-09
3.95327e-09
6.57465e-09
5.4089e-09
3.82939e-09
3.4367e-09
3.20668e-09
3.49018e-09
3.32583e-09
3.51036e-09
3.5037e-09
4.06075e-09
4.30663e-09
4.05794e-09
2.3889e-09
1.90017e-09
2.72305e-09
3.27496e-09
2.87989e-09
2.74042e-09
3.20815e-09
3.34542e-09
3.51785e-09
3.30838e-09
3.8667e-09
4.22584e-09
4.90434e-09
4.74694e-09
4.47027e-09
3.43784e-09
3.3457e-09
4.01348e-09
5.23676e-09
3.73014e-09
3.83017e-09
3.02851e-09
3.24795e-09
3.29337e-09
3.15834e-09
3.39096e-09
3.47865e-09
3.9903e-09
4.28174e-09
4.29126e-09
3.4376e-09
3.24966e-09
3.0339e-09
2.87404e-09
2.36397e-09
2.4744e-09
2.85411e-09
2.82228e-09
2.89347e-09
2.58978e-09
3.06048e-09
3.16109e-09
3.73999e-09
3.59561e-09
3.34282e-09
2.75227e-09
2.48983e-09
3.42598e-09
3.28832e-09
2.3232e-09
3.07936e-09
3.38848e-09
4.00842e-09
4.46115e-09
5.13162e-09
5.66413e-09
6.59461e-09
7.19852e-09
8.1098e-09
7.96897e-09
8.04795e-09
7.55662e-09
7.66859e-09
7.51688e-09
7.25933e-09
7.35342e-09
7.19038e-09
7.41698e-09
6.85757e-09
6.45743e-09
5.85809e-09
5.59673e-09
5.26084e-09
4.96646e-09
4.20977e-09
3.5141e-09
2.59076e-09
2.24398e-09
1.60875e-09
2.29706e-07
5.97011e-08
5.34921e-08
3.33844e-08
2.34729e-08
1.80353e-08
1.2178e-08
1.03078e-08
6.94647e-09
7.00296e-09
6.4501e-09
6.77057e-09
6.84222e-09
6.20881e-09
6.34773e-09
6.50388e-09
6.08761e-09
6.6887e-09
5.74093e-09
6.3506e-09
4.79025e-09
5.51627e-09
4.99652e-09
5.94265e-09
5.36422e-09
5.07067e-09
4.13883e-09
3.26431e-09
2.50661e-09
2.09304e-09
5.76858e-08
4.39816e-08
2.26142e-08
2.06987e-08
9.66967e-09
8.34666e-09
5.88874e-09
5.00867e-09
4.74604e-09
4.27608e-09
3.46616e-09
2.69154e-09
2.13527e-09
2.36396e-09
2.69815e-09
2.35986e-09
2.60559e-09
2.65603e-09
2.68985e-09
2.06172e-09
1.44424e-09
1.76415e-09
2.53895e-09
2.90693e-09
2.71797e-09
2.23626e-09
2.14555e-09
2.22249e-09
2.66568e-09
2.93036e-09
5.22513e-08
2.32692e-08
2.03572e-08
1.94251e-08
1.22198e-08
1.01626e-08
6.90805e-09
5.71172e-09
5.52967e-09
5.7719e-09
5.25199e-09
4.56058e-09
3.57032e-09
3.25366e-09
3.12552e-09
2.92065e-09
3.22299e-09
2.83018e-09
2.84816e-09
2.41301e-09
2.23566e-09
2.75688e-09
4.02028e-09
4.45998e-09
3.50672e-09
2.57806e-09
2.73838e-09
3.5584e-09
3.33379e-09
4.33476e-09
3.57029e-08
1.9159e-08
1.80758e-08
1.42487e-08
8.94879e-09
7.9009e-09
5.0698e-09
4.46573e-09
3.95929e-09
4.96585e-09
5.66624e-09
5.88337e-09
5.057e-09
4.31726e-09
3.68901e-09
3.44195e-09
3.27029e-09
2.6027e-09
2.8548e-09
2.56838e-09
2.2747e-09
3.79935e-09
5.39787e-09
5.44087e-09
4.43373e-09
3.21563e-09
3.21967e-09
3.80735e-09
3.57354e-09
5.58062e-09
2.6749e-08
9.3036e-09
1.04252e-08
8.48506e-09
6.49331e-09
6.3538e-09
4.77005e-09
4.31357e-09
3.7668e-09
4.71963e-09
6.11339e-09
6.37005e-09
4.84068e-09
3.98888e-09
3.409e-09
3.177e-09
2.76176e-09
2.26374e-09
2.75622e-09
2.94856e-09
3.9628e-09
5.03797e-09
5.42183e-09
5.22417e-09
4.79966e-09
3.81668e-09
3.75245e-09
3.37975e-09
3.65024e-09
6.88237e-09
2.42898e-08
7.53561e-09
9.24257e-09
7.33782e-09
5.66331e-09
4.80702e-09
3.34675e-09
2.79614e-09
2.24392e-09
3.05802e-09
4.23199e-09
4.33807e-09
2.99797e-09
2.5021e-09
2.00636e-09
2.06507e-09
1.98887e-09
1.97356e-09
2.2946e-09
3.01948e-09
3.53882e-09
3.36225e-09
2.89572e-09
3.07585e-09
3.63076e-09
3.78422e-09
3.91216e-09
2.86334e-09
3.60557e-09
7.86774e-09
1.94334e-08
4.43928e-09
5.53096e-09
4.29154e-09
3.71272e-09
3.31366e-09
2.36083e-09
2.16622e-09
1.84239e-09
2.32722e-09
3.0323e-09
3.35459e-09
2.3157e-09
2.10009e-09
1.75619e-09
1.83706e-09
1.85213e-09
1.86525e-09
2.53444e-09
2.84071e-09
2.3562e-09
1.64809e-09
1.18904e-09
1.65343e-09
2.89301e-09
3.65764e-09
3.6228e-09
2.43661e-09
3.58206e-09
9.00238e-09
1.9889e-08
3.22212e-09
4.41314e-09
4.55563e-09
4.227e-09
3.76563e-09
2.77269e-09
2.51599e-09
1.9309e-09
2.01907e-09
2.38428e-09
2.93784e-09
2.20097e-09
2.28556e-09
1.55827e-09
1.31588e-09
1.24898e-09
1.84841e-09
2.63963e-09
2.31003e-09
1.41377e-09
9.7665e-10
9.04248e-10
1.52159e-09
2.71162e-09
3.31619e-09
3.15749e-09
2.30777e-09
3.46702e-09
9.94165e-09
1.72218e-08
2.80382e-09
2.49557e-09
2.38679e-09
2.75221e-09
3.00905e-09
2.50856e-09
2.3421e-09
1.93182e-09
1.99115e-09
2.0731e-09
2.36647e-09
2.1451e-09
2.56005e-09
1.6733e-09
1.2439e-09
1.27557e-09
1.34791e-09
2.03964e-09
1.79911e-09
1.32505e-09
1.13202e-09
1.29486e-09
1.84979e-09
2.58359e-09
2.84625e-09
2.80262e-09
2.26805e-09
3.21839e-09
1.10561e-08
1.78294e-08
2.61713e-09
2.17028e-09
1.81923e-09
2.08681e-09
2.74522e-09
2.74344e-09
2.6348e-09
2.15581e-09
2.10246e-09
1.8725e-09
2.11376e-09
2.09272e-09
2.44716e-09
2.35509e-09
1.76409e-09
2.03797e-09
1.57788e-09
1.3275e-09
1.21655e-09
1.29355e-09
1.2836e-09
1.60958e-09
2.05271e-09
2.22328e-09
2.25475e-09
2.18053e-09
1.78502e-09
2.76327e-09
1.19631e-08
1.66117e-08
2.48639e-09
1.58985e-09
1.32225e-09
1.11542e-09
1.51058e-09
2.03044e-09
2.47527e-09
2.23407e-09
2.16677e-09
2.38145e-09
3.14894e-09
3.24116e-09
3.9205e-09
4.17124e-09
3.67959e-09
3.54534e-09
2.76478e-09
2.36748e-09
1.82097e-09
1.76073e-09
1.76699e-09
1.99568e-09
2.10447e-09
1.91971e-09
1.8678e-09
1.75834e-09
1.43357e-09
2.33962e-09
1.27296e-08
1.76805e-08
2.30171e-09
1.2743e-09
1.2044e-09
8.79184e-10
1.01609e-09
1.71968e-09
2.40191e-09
2.26702e-09
2.73911e-09
3.52446e-09
3.53254e-09
3.94308e-09
4.65082e-09
4.95113e-09
4.92017e-09
4.27339e-09
3.1389e-09
2.83835e-09
2.64931e-09
2.25415e-09
1.91869e-09
1.86594e-09
1.77443e-09
1.61463e-09
1.64512e-09
1.5722e-09
1.30826e-09
1.89717e-09
1.32032e-08
1.69622e-08
1.9122e-09
8.95269e-10
9.90653e-10
7.30734e-10
5.13101e-10
1.16488e-09
2.20591e-09
1.90675e-09
2.86672e-09
3.82552e-09
4.02676e-09
5.05863e-09
5.63515e-09
5.69787e-09
5.49937e-09
5.08489e-09
4.03214e-09
3.30111e-09
2.94178e-09
2.57672e-09
1.68013e-09
1.5354e-09
1.39307e-09
1.19016e-09
1.20286e-09
1.20896e-09
1.0115e-09
1.85307e-09
1.40147e-08
1.7252e-08
1.75384e-09
6.65096e-10
7.05977e-10
7.47526e-10
6.47538e-10
1.17587e-09
2.20476e-09
2.19943e-09
2.63301e-09
3.18433e-09
4.3242e-09
4.91047e-09
5.60229e-09
5.57809e-09
5.38231e-09
4.89871e-09
4.10253e-09
3.76787e-09
2.37309e-09
2.27949e-09
1.6877e-09
1.12426e-09
8.84691e-10
8.66058e-10
8.20334e-10
7.39622e-10
5.5115e-10
1.8345e-09
1.46114e-08
1.64074e-08
2.07469e-09
8.7655e-10
7.75208e-10
7.87203e-10
8.54499e-10
1.10788e-09
1.4573e-09
2.06341e-09
2.91447e-09
3.4213e-09
4.03897e-09
3.65886e-09
4.30564e-09
4.92697e-09
5.01835e-09
4.3268e-09
3.80593e-09
3.91005e-09
3.27825e-09
2.97394e-09
2.16274e-09
1.3271e-09
8.52138e-10
8.50627e-10
7.32715e-10
5.8961e-10
5.53109e-10
1.8495e-09
1.5146e-08
1.64446e-08
2.28937e-09
8.41895e-10
7.64385e-10
9.01592e-10
1.15267e-09
1.24372e-09
1.52214e-09
2.33241e-09
3.19049e-09
3.35832e-09
3.64328e-09
3.16222e-09
3.95404e-09
4.81864e-09
4.9638e-09
4.32268e-09
3.81912e-09
4.19292e-09
3.59057e-09
3.07109e-09
2.33573e-09
1.27022e-09
7.64314e-10
7.44473e-10
6.15177e-10
6.16698e-10
4.87047e-10
1.6226e-09
1.50712e-08
1.56407e-08
2.44825e-09
1.01013e-09
1.12405e-09
1.11974e-09
1.38718e-09
1.34453e-09
1.5369e-09
2.05991e-09
2.661e-09
2.77817e-09
3.79088e-09
3.81402e-09
4.58706e-09
5.11191e-09
5.25662e-09
5.01824e-09
4.20394e-09
4.01781e-09
2.57629e-09
2.84137e-09
2.29699e-09
1.38012e-09
9.69217e-10
7.38068e-10
6.14028e-10
1.07285e-09
9.91245e-10
1.63924e-09
1.5096e-08
1.53277e-08
2.46022e-09
1.40955e-09
1.53419e-09
1.34318e-09
1.48482e-09
1.66202e-09
1.78112e-09
1.90879e-09
2.83182e-09
3.34145e-09
3.47001e-09
3.89036e-09
4.70687e-09
5.29593e-09
5.50025e-09
5.0732e-09
4.06175e-09
3.3079e-09
2.58227e-09
3.01259e-09
2.10813e-09
1.87481e-09
1.57237e-09
1.11279e-09
1.14139e-09
1.81217e-09
1.7541e-09
2.1602e-09
1.49166e-08
1.42397e-08
2.65829e-09
1.78376e-09
1.87084e-09
1.96103e-09
2.2167e-09
2.30168e-09
2.25765e-09
2.18282e-09
2.57498e-09
3.02487e-09
3.02882e-09
2.90086e-09
3.83588e-09
4.75408e-09
5.15624e-09
4.3108e-09
3.29374e-09
2.75559e-09
2.70432e-09
2.72278e-09
2.46718e-09
2.13309e-09
1.88051e-09
1.61107e-09
1.57537e-09
2.04547e-09
1.95181e-09
2.72418e-09
1.43518e-08
1.34722e-08
2.79875e-09
1.82146e-09
1.80944e-09
2.36046e-09
2.67166e-09
2.3473e-09
2.04837e-09
1.84543e-09
1.89852e-09
1.96476e-09
2.46437e-09
2.23324e-09
2.90949e-09
3.70279e-09
4.53223e-09
3.98321e-09
3.03579e-09
2.54753e-09
2.15947e-09
2.24353e-09
2.27183e-09
2.20158e-09
2.20173e-09
2.2911e-09
2.03244e-09
1.86841e-09
1.66473e-09
2.91731e-09
1.33458e-08
1.25124e-08
3.19458e-09
2.16429e-09
2.04595e-09
2.96081e-09
3.21123e-09
2.39292e-09
1.75936e-09
1.48187e-09
1.45676e-09
1.41633e-09
1.82146e-09
1.83182e-09
2.35795e-09
1.98025e-09
2.61869e-09
2.44174e-09
2.44427e-09
2.06801e-09
1.79197e-09
2.02173e-09
1.94553e-09
2.02025e-09
2.48176e-09
3.10145e-09
2.87674e-09
2.09122e-09
1.62906e-09
2.9173e-09
1.2036e-08
1.16185e-08
3.23956e-09
2.19333e-09
2.74626e-09
3.55922e-09
3.19518e-09
2.21937e-09
1.59671e-09
1.28312e-09
1.29447e-09
1.72855e-09
2.36712e-09
1.75996e-09
1.9658e-09
2.44211e-09
2.54305e-09
2.43352e-09
2.6804e-09
2.47414e-09
1.93722e-09
1.83374e-09