/*--------------------------------*- C++ -*----------------------------------*\
| =========                 |                                                 |
| \\      /  F ield         | OpenFOAM: The Open Source CFD Toolbox           |
|  \\    /   O peration     | Version:  v1906                                 |
|   \\  /    A nd           | Web:      www.OpenFOAM.com                      |
|    \\/     M anipulation  |                                                 |
\*---------------------------------------------------------------------------*/
FoamFile
{
    version     2.0;
    format      ascii;
    class       volVectorField;
    location    "57/oil";
    object      U;
}
// * * * * * * * * * * * * * * * * * * * * * * * * * * * * * * * * * * * * * //

dimensions      [0 1 -1 0 0 0 0];


internalField   nonuniform List<vector> 
27760
(
(-2.5425e-05 -2.59196e-05 -2.54249e-05)
(-5.01902e-05 -1.94449e-05 -1.83126e-05)
(-3.67089e-06 -5.04489e-06 -5.00536e-06)
(-5.99699e-06 -8.2529e-07 -9.08976e-07)
(-1.27785e-06 -2.65828e-07 -3.63636e-07)
(-5.33291e-07 -1.12091e-07 -2.17749e-07)
(1.3562e-07 -1.91099e-08 -1.32757e-07)
(4.6439e-07 2.08381e-08 -9.96352e-08)
(6.47041e-07 4.35977e-08 -8.18612e-08)
(7.20398e-07 5.78572e-08 -7.0835e-08)
(7.10048e-07 6.81971e-08 -6.2152e-08)
(6.29523e-07 7.58062e-08 -5.51072e-08)
(4.90959e-07 8.15285e-08 -4.94137e-08)
(3.08252e-07 8.54404e-08 -4.53191e-08)
(9.735e-08 8.7494e-08 -4.31139e-08)
(-1.24086e-07 8.76546e-08 -4.29567e-08)
(-3.37968e-07 8.59675e-08 -4.48018e-08)
(-5.27304e-07 8.25799e-08 -4.8374e-08)
(-6.77748e-07 7.77349e-08 -5.3185e-08)
(-7.78806e-07 7.17326e-08 -5.85754e-08)
(-8.24621e-07 6.48495e-08 -6.38165e-08)
(-8.14617e-07 5.72102e-08 -6.81102e-08)
(-7.5283e-07 4.93357e-08 -7.03923e-08)
(-6.47733e-07 4.12736e-08 -7.01445e-08)
(-5.12086e-07 3.32347e-08 -6.66637e-08)
(-3.61818e-07 2.55638e-08 -5.94924e-08)
(-2.15476e-07 1.89689e-08 -4.86768e-08)
(-9.32511e-08 1.47576e-08 -3.51399e-08)
(-1.35439e-08 1.46984e-08 -2.15204e-08)
(8.34341e-09 1.63318e-08 -8.26736e-09)
(-1.84459e-05 -5.15754e-05 -1.84459e-05)
(-6.04684e-06 -6.69035e-06 -8.26022e-06)
(-8.16242e-06 -8.09697e-06 -2.8879e-06)
(-3.71265e-06 -2.34018e-06 -8.28426e-07)
(-1.33979e-06 -1.41729e-06 -4.13886e-07)
(-1.89282e-07 -7.62731e-07 -2.05575e-07)
(6.36114e-07 -4.74079e-07 -1.0303e-07)
(1.12933e-06 -3.10421e-07 -5.2078e-08)
(1.41483e-06 -2.073e-07 -2.07151e-08)
(1.52449e-06 -1.32035e-07 1.59757e-09)
(1.48194e-06 -7.19679e-08 1.97562e-08)
(1.30478e-06 -2.31006e-08 3.51022e-08)
(1.01365e-06 1.52877e-08 4.74577e-08)
(6.34376e-07 4.22551e-08 5.62727e-08)
(1.98508e-07 5.6686e-08 6.099e-08)
(-2.58558e-07 5.79819e-08 6.12954e-08)
(-7.00337e-07 4.64235e-08 5.72654e-08)
(-1.0925e-06 2.3283e-08 4.94053e-08)
(-1.40604e-06 -9.26882e-09 3.86033e-08)
(-1.61979e-06 -4.8402e-08 2.60358e-08)
(-1.72219e-06 -9.09411e-08 1.3048e-08)
(-1.71165e-06 -1.33686e-07 1.13444e-09)
(-1.59645e-06 -1.73148e-07 -8.49809e-09)
(-1.39404e-06 -2.06236e-07 -1.48182e-08)
(-1.12944e-06 -2.29417e-07 -1.70234e-08)
(-8.33522e-07 -2.38476e-07 -1.48121e-08)
(-5.40869e-07 -2.27872e-07 -8.69434e-09)
(-2.86465e-07 -1.90724e-07 -4.70091e-10)
(-1.00819e-07 -1.20209e-07 5.86273e-09)
(-5.65064e-09 -2.64134e-08 5.76571e-09)
(-5.10205e-06 -4.84619e-06 -5.10197e-06)
(-8.01923e-06 -9.09872e-06 -2.94711e-06)
(-4.14218e-06 -5.1559e-06 -1.29401e-06)
(-2.35839e-06 -2.99606e-06 -6.04634e-07)
(-6.98037e-07 -2.10173e-06 -2.7667e-07)
(3.61876e-07 -1.53556e-06 -1.14935e-07)
(1.14996e-06 -1.22488e-06 -2.89951e-08)
(1.66756e-06 -1.01815e-06 1.9836e-08)
(1.97238e-06 -8.64344e-07 5.33163e-08)
(2.0781e-06 -7.36961e-07 7.94726e-08)
(1.99888e-06 -6.26745e-07 1.01819e-07)
(1.7502e-06 -5.32244e-07 1.21039e-07)
(1.35529e-06 -4.55973e-07 1.36668e-07)
(8.46402e-07 -4.01559e-07 1.47853e-07)
(2.63998e-07 -3.72187e-07 1.53832e-07)
(-3.45868e-07 -3.69496e-07 1.54186e-07)
(-9.35485e-07 -3.92992e-07 1.4899e-07)
(-1.4599e-06 -4.39889e-07 1.38851e-07)
(-1.88114e-06 -5.05336e-07 1.24837e-07)
(-2.17156e-06 -5.82922e-07 1.0837e-07)
(-2.31603e-06 -6.65311e-07 9.10164e-08)
(-2.31268e-06 -7.44676e-07 7.43856e-08)
(-2.1724e-06 -8.13229e-07 5.98634e-08)
(-1.91758e-06 -8.63013e-07 4.85596e-08)
(-1.57984e-06 -8.85466e-07 4.11502e-08)
(-1.19748e-06 -8.70806e-07 3.77035e-08)
(-8.1227e-07 -8.07133e-07 3.73883e-08)
(-4.64641e-07 -6.80321e-07 3.78947e-08)
(-1.91259e-07 -4.745e-07 3.46938e-08)
(-1.93094e-08 -1.8443e-07 1.94542e-08)
(-9.17038e-07 -7.02847e-06 -9.16939e-07)
(-2.08633e-06 -5.42741e-06 -8.23983e-07)
(-1.68977e-06 -4.56391e-06 -5.89132e-07)
(-8.52143e-07 -3.50108e-06 -2.96708e-07)
(1.71195e-07 -2.92151e-06 -1.24009e-07)
(9.98465e-07 -2.51639e-06 -2.41166e-08)
(1.67323e-06 -2.24686e-06 3.764e-08)
(2.15187e-06 -2.03387e-06 7.88683e-08)
(2.43556e-06 -1.8492e-06 1.10981e-07)
(2.51676e-06 -1.67898e-06 1.38485e-07)
(2.39736e-06 -1.52155e-06 1.63139e-07)
(2.08823e-06 -1.38129e-06 1.84824e-07)
(1.61248e-06 -1.26548e-06 2.02644e-07)
(1.00569e-06 -1.18183e-06 2.15456e-07)
(3.14059e-07 -1.13642e-06 2.22301e-07)
(-4.09043e-07 -1.13238e-06 2.2266e-07)
(-1.10803e-06 -1.16907e-06 2.16599e-07)
(-1.73045e-06 -1.24192e-06 2.04794e-07)
(-2.23201e-06 -1.34282e-06 1.88454e-07)
(-2.58064e-06 -1.46097e-06 1.69166e-07)
(-2.75891e-06 -1.58396e-06 1.48666e-07)
(-2.76481e-06 -1.69859e-06 1.28658e-07)
(-2.61096e-06 -1.79143e-06 1.10614e-07)
(-2.32283e-06 -1.84886e-06 9.5653e-08)
(-1.93587e-06 -1.85647e-06 8.43716e-08)
(-1.49231e-06 -1.7982e-06 7.67149e-08)
(-1.03761e-06 -1.65504e-06 7.17168e-08)
(-6.15135e-07 -1.40375e-06 6.6757e-08)
(-2.67456e-07 -1.0131e-06 5.68857e-08)
(-3.02072e-08 -4.39049e-07 3.03878e-08)
(-2.98037e-07 -2.59095e-06 -2.97915e-07)
(-9.64963e-07 -3.95892e-06 -3.54465e-07)
(-5.65466e-07 -4.22081e-06 -2.38367e-07)
(5.72905e-08 -4.01951e-06 -1.08801e-07)
(8.26397e-07 -3.83789e-06 -1.72568e-08)
(1.52855e-06 -3.64602e-06 4.39859e-08)
(2.12853e-06 -3.46626e-06 8.81074e-08)
(2.57031e-06 -3.28067e-06 1.22696e-07)
(2.82837e-06 -3.087e-06 1.53192e-07)
(2.88235e-06 -2.88763e-06 1.81543e-07)
(2.72542e-06 -2.69119e-06 2.08086e-07)
(2.36452e-06 -2.50982e-06 2.31974e-07)
(1.82212e-06 -2.35701e-06 2.51832e-07)
(1.13587e-06 -2.24541e-06 2.66193e-07)
(3.56282e-07 -2.1846e-06 2.73864e-07)
(-4.57619e-07 -2.17949e-06 2.74203e-07)
(-1.24403e-06 -2.22941e-06 2.67264e-07)
(-1.94454e-06 -2.32792e-06 2.53802e-07)
(-2.50997e-06 -2.4634e-06 2.35202e-07)
(-2.9049e-06 -2.62035e-06 2.13234e-07)
(-3.11032e-06 -2.78083e-06 1.89831e-07)
(-3.12434e-06 -2.92586e-06 1.66851e-07)
(-2.96095e-06 -3.03602e-06 1.4585e-07)
(-2.6478e-06 -3.09176e-06 1.27973e-07)
(-2.2229e-06 -3.07258e-06 1.13795e-07)
(-1.73098e-06 -2.95583e-06 1.03192e-07)
(-1.21996e-06 -2.7145e-06 9.51232e-08)
(-7.3576e-07 -2.31359e-06 8.67271e-08)
(-3.26973e-07 -1.69961e-06 7.2623e-08)
(-3.81705e-08 -7.70754e-07 3.83912e-08)
(-1.20298e-07 -2.27672e-06 -1.20152e-07)
(-2.14487e-07 -3.85884e-06 -1.18475e-07)
(1.38817e-07 -4.59399e-06 -6.24352e-08)
(6.74182e-07 -4.86486e-06 -4.74247e-10)
(1.3254e-06 -4.96782e-06 5.03389e-08)
(1.9574e-06 -4.95285e-06 8.99691e-08)
(2.51067e-06 -4.86502e-06 1.23638e-07)
(2.92491e-06 -4.71847e-06 1.54406e-07)
(3.16118e-06 -4.52894e-06 1.84515e-07)
(3.19113e-06 -4.31207e-06 2.14336e-07)
(3.00192e-06 -4.0861e-06 2.43226e-07)
(2.59732e-06 -3.87089e-06 2.69726e-07)
(1.9991e-06 -3.68639e-06 2.9199e-07)
(1.24646e-06 -3.55032e-06 3.08177e-07)
(3.93486e-07 -3.47597e-06 3.16819e-07)
(-4.96005e-07 -3.47017e-06 3.1713e-07)
(-1.35488e-06 -3.53226e-06 3.09148e-07)
(-2.11966e-06 -3.65397e-06 2.93741e-07)
(-2.73705e-06 -3.82024e-06 2.72511e-07)
(-3.16897e-06 -4.01083e-06 2.47497e-07)
(-3.39546e-06 -4.20248e-06 2.20905e-07)
(-3.41491e-06 -4.37034e-06 1.9479e-07)
(-3.24268e-06 -4.4892e-06 1.70835e-07)
(-2.90834e-06 -4.53368e-06 1.50261e-07)
(-2.4519e-06 -4.47721e-06 1.33652e-07)
(-1.92004e-06 -4.2902e-06 1.20845e-07)
(-1.3628e-06 -3.93661e-06 1.10729e-07)
(-8.28582e-07 -3.36692e-06 1.00224e-07)
(-3.71483e-07 -2.49924e-06 8.35018e-08)
(-4.38114e-08 -1.16029e-06 4.40742e-08)
(-2.0493e-08 -2.13299e-06 -2.03237e-08)
(1.1153e-07 -4.15639e-06 -3.65092e-09)
(5.12419e-07 -5.29572e-06 2.80421e-08)
(1.05086e-06 -5.9198e-06 6.12718e-08)
(1.66964e-06 -6.26082e-06 9.21478e-08)
(2.27638e-06 -6.40427e-06 1.2052e-07)
(2.80917e-06 -6.40998e-06 1.4877e-07)
(3.20896e-06 -6.31198e-06 1.7805e-07)
(3.43136e-06 -6.13924e-06 2.08993e-07)
(3.44375e-06 -5.91787e-06 2.4105e-07)
(3.22947e-06 -5.67445e-06 2.72892e-07)
(2.78997e-06 -5.43586e-06 3.02539e-07)
(2.14639e-06 -5.22787e-06 3.27672e-07)
(1.33931e-06 -5.07308e-06 3.46021e-07)
(4.25857e-07 -4.98831e-06 3.55807e-07)
(-5.25911e-07 -4.98219e-06 3.56089e-07)
(-1.44421e-06 -5.05415e-06 3.4689e-07)
(-2.26111e-06 -5.19429e-06 3.29202e-07)
(-2.91982e-06 -5.38437e-06 3.04896e-07)
(-3.38019e-06 -5.59986e-06 2.76372e-07)
(-3.62166e-06 -5.8125e-06 2.46155e-07)
(-3.64332e-06 -5.99226e-06 2.16562e-07)
(-3.46205e-06 -6.10865e-06 1.89474e-07)
(-3.10918e-06 -6.13085e-06 1.66184e-07)
(-2.62655e-06 -6.02633e-06 1.47312e-07)
(-2.0625e-06 -5.75837e-06 1.32659e-07)
(-1.46886e-06 -5.2808e-06 1.21047e-07)
(-8.96293e-07 -4.52722e-06 1.0919e-07)
(-4.03188e-07 -3.38236e-06 9.08317e-08)
(-4.76787e-08 -1.59182e-06 4.7985e-08)
(1.84636e-08 -2.34974e-06 1.86538e-08)
(2.74954e-07 -4.79157e-06 4.87905e-08)
(7.22397e-07 -6.25965e-06 7.28044e-08)
(1.28191e-06 -7.15569e-06 9.47241e-08)
(1.89735e-06 -7.69417e-06 1.16706e-07)
(2.49779e-06 -7.97786e-06 1.40025e-07)
(3.02321e-06 -8.07579e-06 1.66197e-07)
(3.41669e-06 -8.03405e-06 1.95722e-07)
(3.63167e-06 -7.89049e-06 2.28466e-07)
(3.63312e-06 -7.67897e-06 2.63388e-07)
(3.40177e-06 -7.4325e-06 2.98677e-07)
(2.93721e-06 -7.18355e-06 3.31873e-07)
(2.25999e-06 -6.96286e-06 3.60199e-07)
(1.41171e-06 -6.79714e-06 3.80959e-07)
(4.52055e-07 -6.70612e-06 3.92017e-07)
(-5.47329e-07 -6.70004e-06 3.92266e-07)
(-1.51079e-06 -6.77839e-06 3.81716e-07)
(-2.36667e-06 -6.92997e-06 3.61513e-07)
(-3.05527e-06 -7.13389e-06 3.33841e-07)
(-3.535e-06 -7.36204e-06 3.01483e-07)
(-3.78523e-06 -7.58213e-06 2.6733e-07)
(-3.80603e-06 -7.7597e-06 2.34024e-07)
(-3.61591e-06 -7.8598e-06 2.0367e-07)
(-3.24785e-06 -7.84672e-06 1.77642e-07)
(-2.74532e-06 -7.68254e-06 1.56595e-07)
(-2.15796e-06 -7.32314e-06 1.40286e-07)
(-1.53889e-06 -6.71131e-06 1.27483e-07)
(-9.40318e-07 -5.76197e-06 1.14716e-07)
(-4.23456e-07 -4.32293e-06 9.53777e-08)
(-5.01071e-08 -2.052e-06 5.0456e-08)
(3.63326e-08 -2.69647e-06 3.6543e-08)
(3.53304e-07 -5.5862e-06 7.40316e-08)
(8.32268e-07 -7.36666e-06 9.5136e-08)
(1.40924e-06 -8.50333e-06 1.12328e-07)
(2.02737e-06 -9.22065e-06 1.30422e-07)
(2.62617e-06 -9.63682e-06 1.51741e-07)
(3.14814e-06 -9.82957e-06 1.77577e-07)
(3.53848e-06 -9.85361e-06 2.0823e-07)
(3.75005e-06 -9.75317e-06 2.43215e-07)
(3.74637e-06 -9.56749e-06 2.81181e-07)
(3.50638e-06 -9.33432e-06 3.19985e-07)
(3.02804e-06 -9.09027e-06 3.56766e-07)
(2.33119e-06 -8.86963e-06 3.88316e-07)
(1.45793e-06 -8.70211e-06 4.11494e-07)
(4.69761e-07 -8.60976e-06 4.23804e-07)
(-5.59097e-07 -8.60396e-06 4.24022e-07)
(-1.55013e-06 -8.68433e-06 4.12153e-07)
(-2.42899e-06 -8.8387e-06 3.89442e-07)
(-3.13403e-06 -9.04432e-06 3.58397e-07)
(-3.62289e-06 -9.27039e-06 3.22226e-07)
(-3.87526e-06 -9.48156e-06 2.84212e-07)
(-3.89254e-06 -9.64026e-06 2.473e-07)
(-3.69484e-06 -9.7081e-06 2.13781e-07)
(-3.31664e-06 -9.64537e-06 1.85151e-07)
(-2.80255e-06 -9.40914e-06 1.62086e-07)
(-2.20288e-06 -8.94801e-06 1.44325e-07)
(-1.57124e-06 -8.19335e-06 1.30558e-07)
(-9.60402e-07 -7.03991e-06 1.1719e-07)
(-4.32638e-07 -5.29631e-06 9.74107e-08)
(-5.12253e-08 -2.52851e-06 5.16157e-08)
(4.36248e-08 -3.10884e-06 4.38541e-08)
(3.85887e-07 -6.46241e-06 8.46369e-08)
(8.76907e-07 -8.54727e-06 1.0455e-07)
(1.45763e-06 -9.90808e-06 1.198e-07)
(2.07108e-06 -1.07941e-05 1.36313e-07)
(2.6626e-06 -1.134e-05 1.57041e-07)
(3.17738e-06 -1.16324e-05 1.83272e-07)
(3.56269e-06 -1.17328e-05 2.15234e-07)
(3.7718e-06 -1.16901e-05 2.52345e-07)
(3.76768e-06 -1.15474e-05 2.9306e-07)
(3.52781e-06 -1.13451e-05 3.34982e-07)
(3.04866e-06 -1.11221e-05 3.74935e-07)
(2.34904e-06 -1.09151e-05 4.09307e-07)
(1.4708e-06 -1.07556e-05 4.34586e-07)
(4.76175e-07 -1.06672e-05 4.47986e-07)
(-5.59324e-07 -1.06619e-05 4.48172e-07)
(-1.55599e-06 -1.07395e-05 4.35143e-07)
(-2.43816e-06 -1.08872e-05 4.10236e-07)
(-3.14331e-06 -1.1081e-05 3.76258e-07)
(-3.62923e-06 -1.12887e-05 3.36767e-07)
(-3.87662e-06 -1.14732e-05 2.95374e-07)
(-3.88829e-06 -1.15951e-05 2.55343e-07)
(-3.68578e-06 -1.16136e-05 2.19138e-07)
(-3.30464e-06 -1.14864e-05 1.88344e-07)
(-2.78979e-06 -1.11658e-05 1.63629e-07)
(-2.1914e-06 -1.05937e-05 1.44709e-07)
(-1.56246e-06 -9.68979e-06 1.30256e-07)
(-9.54844e-07 -8.32813e-06 1.16614e-07)
(-4.30161e-07 -6.2771e-06 9.68943e-08)
(-5.10006e-08 -3.00894e-06 5.14319e-08)
(4.55235e-08 -3.54163e-06 4.5763e-08)
(3.89176e-07 -7.35923e-06 8.69018e-08)
(8.72049e-07 -9.74013e-06 1.05842e-07)
(1.43819e-06 -1.13143e-05 1.20058e-07)
(2.03229e-06 -1.2363e-05 1.3583e-07)
(2.60422e-06 -1.30382e-05 1.56352e-07)
(3.10237e-06 -1.3436e-05 1.82928e-07)
(3.47664e-06 -1.36235e-05 2.15813e-07)
(3.68165e-06 -1.36532e-05 2.54358e-07)
(3.68048e-06 -1.357e-05 2.96946e-07)
(3.44973e-06 -1.34155e-05 3.41017e-07)
(2.98446e-06 -1.32296e-05 3.83159e-07)
(2.30197e-06 -1.30496e-05 4.19505e-07)
(1.44282e-06 -1.29077e-05 4.46245e-07)
(4.68521e-07 -1.28282e-05 4.60363e-07)
(-5.45971e-07 -1.28234e-05 4.60519e-07)
(-1.5216e-06 -1.28934e-05 4.46711e-07)
(-2.38322e-06 -1.3025e-05 4.20272e-07)
(-3.0691e-06 -1.31939e-05 3.84213e-07)
(-3.53827e-06 -1.33673e-05 3.42369e-07)
(-3.77295e-06 -1.35076e-05 2.98664e-07)
(-3.77742e-06 -1.35748e-05 2.56529e-07)
(-3.57435e-06 -1.35275e-05 2.18534e-07)
(-3.19959e-06 -1.33214e-05 1.86327e-07)
(-2.69742e-06 -1.29057e-05 1.60589e-07)
(-2.11654e-06 -1.22156e-05 1.41011e-07)
(-1.50792e-06 -1.11595e-05 1.26234e-07)
(-9.21155e-07 -9.59083e-06 1.12679e-07)
(-4.15034e-07 -7.23791e-06 9.36027e-08)
(-4.93091e-08 -3.48001e-06 4.97818e-08)
(4.39733e-08 -3.96625e-06 4.42306e-08)
(3.70321e-07 -8.22964e-06 8.34212e-08)
(8.24732e-07 -1.08915e-05 1.01053e-07)
(1.35556e-06 -1.2667e-05 1.14339e-07)
(1.91139e-06 -1.38718e-05 1.29423e-07)
(2.44696e-06 -1.46756e-05 1.49537e-07)
(2.91496e-06 -1.51836e-05 1.75947e-07)
(3.26901e-06 -1.54678e-05 2.08929e-07)
(3.46605e-06 -1.55828e-05 2.47833e-07)
(3.47032e-06 -1.55741e-05 2.91044e-07)
(3.25814e-06 -1.54829e-05 3.35946e-07)
(2.82311e-06 -1.53485e-05 3.79015e-07)
(2.18034e-06 -1.52076e-05 4.16226e-07)
(1.36786e-06 -1.5092e-05 4.43629e-07)
(4.44564e-07 -1.50258e-05 4.58044e-07)
(-5.17194e-07 -1.50217e-05 4.58166e-07)
(-1.4412e-06 -1.50797e-05 4.43979e-07)
(-2.25501e-06 -1.51867e-05 4.16791e-07)
(-2.89942e-06 -1.53184e-05 3.79794e-07)
(-3.33605e-06 -1.54425e-05 3.3693e-07)
(-3.54947e-06 -1.55225e-05 2.92276e-07)
(-3.54555e-06 -1.55191e-05 2.49354e-07)
(-3.3475e-06 -1.53915e-05 2.10788e-07)
(-2.99034e-06 -1.50946e-05 1.78213e-07)
(-2.5165e-06 -1.45753e-05 1.52275e-07)
(-1.97174e-06 -1.37633e-05 1.32669e-07)
(-1.40329e-06 -1.25564e-05 1.18068e-07)
(-8.56745e-07 -1.07883e-05 1.05064e-07)
(-3.86082e-07 -8.1486e-06 8.72573e-08)
(-4.59926e-08 -3.92703e-06 4.65041e-08)
(3.98419e-08 -4.3596e-06 4.00988e-08)
(3.32417e-07 -9.03148e-06 7.52966e-08)
(7.38025e-07 -1.19497e-05 9.10068e-08)
(1.21149e-06 -1.39101e-05 1.03098e-07)
(1.70769e-06 -1.52616e-05 1.17188e-07)
(2.18736e-06 -1.61907e-05 1.36301e-07)
(2.60898e-06 -1.6811e-05 1.61656e-07)
(2.93125e-06 -1.71986e-05 1.93534e-07)
(3.11487e-06 -1.74089e-05 2.31334e-07)
(3.12634e-06 -1.7487e-05 2.73516e-07)
(2.94236e-06 -1.74723e-05 3.17549e-07)
(2.55512e-06 -1.74018e-05 3.59984e-07)
(1.97677e-06 -1.73101e-05 3.96725e-07)
(1.24123e-06 -1.72279e-05 4.23826e-07)
(4.02622e-07 -1.71787e-05 4.38054e-07)
(-4.71641e-07 -1.71753e-05 4.38129e-07)
(-1.31042e-06 -1.72176e-05 4.24052e-07)
(-2.04624e-06 -1.72926e-05 3.9709e-07)
(-2.62474e-06 -1.73766e-05 3.60477e-07)
(-3.01177e-06 -1.74389e-05 3.18187e-07)
(-3.19498e-06 -1.7445e-05 2.74306e-07)
(-3.18186e-06 -1.73579e-05 2.32296e-07)
(-2.99534e-06 -1.71384e-05 1.94728e-07)
(-2.6685e-06 -1.67423e-05 1.63107e-07)
(-2.24034e-06 -1.6115e-05 1.38046e-07)
(-1.75194e-06 -1.51816e-05 1.19219e-07)
(-1.24507e-06 -1.38307e-05 1.05385e-07)
(-7.59552e-07 -1.18778e-05 9.34305e-08)
(-3.4236e-07 -8.97656e-06 7.75882e-08)
(-4.09306e-08 -4.33411e-06 4.14837e-08)
(3.34542e-08 -4.70135e-06 3.3725e-08)
(2.76987e-07 -9.72548e-06 6.30773e-08)
(6.13871e-07 -1.28649e-05 7.61841e-08)
(1.00769e-06 -1.4987e-05 8.66029e-08)
(1.42184e-06 -1.64709e-05 9.91644e-08)
(1.82473e-06 -1.75178e-05 1.16506e-07)
(2.18223e-06 -1.82486e-05 1.39695e-07)
(2.45972e-06 -1.87425e-05 1.69082e-07)
(2.62338e-06 -1.90552e-05 2.0421e-07)
(2.64315e-06 -1.92294e-05 2.43734e-07)
(2.49712e-06 -1.93016e-05 2.8532e-07)
(2.17601e-06 -1.93054e-05 3.25729e-07)
(1.68799e-06 -1.92721e-05 3.60973e-07)
(1.06102e-06 -1.923e-05 3.87199e-07)
(3.4209e-07 -1.92012e-05 4.01045e-07)
(-4.08681e-07 -1.91984e-05 4.01072e-07)
(-1.1273e-06 -1.92214e-05 3.87286e-07)
(-1.75362e-06 -1.92576e-05 3.61119e-07)
(-2.24055e-06 -1.92846e-05 3.25929e-07)
(-2.56009e-06 -1.92743e-05 2.85606e-07)
(-2.70382e-06 -1.91954e-05 2.44154e-07)
(-2.68085e-06 -1.90145e-05 2.04759e-07)
(-2.51305e-06 -1.86954e-05 1.6978e-07)
(-2.23019e-06 -1.81958e-05 1.40552e-07)
(-1.866e-06 -1.74607e-05 1.17538e-07)
(-1.45513e-06 -1.64119e-05 1.00383e-07)
(-1.03199e-06 -1.49299e-05 8.7995e-08)
(-6.28776e-07 -1.28144e-05 7.76772e-08)
(-2.83452e-07 -9.68786e-06 6.44979e-08)
(-3.4039e-08 -4.68453e-06 3.46268e-08)
(2.50382e-08 -4.97256e-06 2.53056e-08)
(2.05393e-07 -1.02742e-05 4.70737e-08)
(4.54637e-07 -1.35888e-05 5.68447e-08)
(7.47208e-07 -1.58422e-05 6.50364e-08)
(1.0572e-06 -1.74382e-05 7.53755e-08)
(1.36218e-06 -1.85902e-05 8.99523e-08)
(1.6372e-06 -1.94249e-05 1.09723e-07)
(1.85607e-06 -2.00232e-05 1.3505e-07)
(1.99213e-06 -2.04402e-05 1.65627e-07)
(2.02037e-06 -2.0716e-05 2.0045e-07)
(1.92109e-06 -2.0883e-05 2.37565e-07)
(1.68375e-06 -2.09698e-05 2.74187e-07)
(1.31192e-06 -2.10035e-05 3.0664e-07)
(8.25769e-07 -2.10082e-05 3.3121e-07)
(2.62461e-07 -2.10035e-05 3.44362e-07)
(-3.27742e-07 -2.10011e-05 3.44331e-07)
(-8.90302e-07 -2.10009e-05 3.31141e-07)
(-1.37502e-06 -2.09913e-05 3.06554e-07)
(-1.74469e-06 -2.09525e-05 2.74121e-07)
(-1.97917e-06 -2.08605e-05 2.37535e-07)
(-2.07496e-06 -2.06884e-05 2.00481e-07)
(-2.04253e-06 -2.04077e-05 1.65756e-07)
(-1.90148e-06 -1.99862e-05 1.35303e-07)
(-1.67682e-06 -1.93841e-05 1.10115e-07)
(-1.39518e-06 -1.85471e-05 9.04879e-08)
(-1.08289e-06 -1.73946e-05 7.60463e-08)
(-7.65219e-07 -1.58008e-05 6.58284e-08)
(-4.65197e-07 -1.3553e-05 5.77407e-08)
(-2.09661e-07 -1.02482e-05 4.79803e-08)
(-2.53192e-08 -4.96136e-06 2.59407e-08)
(1.48259e-08 -5.15609e-06 1.50885e-08)
(1.19426e-07 -1.06434e-05 2.77251e-08)
(2.64065e-07 -1.40767e-05 3.34835e-08)
(4.3582e-07 -1.64234e-05 3.88479e-08)
(6.21292e-07 -1.81047e-05 4.62299e-08)
(8.08527e-07 -1.93429e-05 5.70278e-08)
(9.83341e-07 -2.02683e-05 7.19655e-08)
(1.12958e-06 -2.09631e-05 9.14332e-08)
(1.22938e-06 -2.14806e-05 1.15399e-07)
(1.26451e-06 -2.18582e-05 1.43319e-07)
(1.2188e-06 -2.21234e-05 1.73812e-07)
(1.08118e-06 -2.22994e-05 2.04691e-07)
(8.49918e-07 -2.24069e-05 2.3277e-07)
(5.35849e-07 -2.24649e-05 2.54648e-07)
(1.63863e-07 -2.24881e-05 2.66669e-07)
(-2.28599e-07 -2.24861e-05 2.666e-07)
(-5.99456e-07 -2.24586e-05 2.5448e-07)
(-9.11405e-07 -2.23965e-05 2.32503e-07)
(-1.13964e-06 -2.22847e-05 2.04377e-07)
(-1.27352e-06 -2.21046e-05 1.73506e-07)
(-1.31477e-06 -2.18355e-05 1.43073e-07)
(-1.2746e-06 -2.14544e-05 1.15231e-07)
(-1.16922e-06 -2.09337e-05 9.1355e-08)
(-1.01692e-06 -2.02366e-05 7.20003e-08)
(-8.35638e-07 -1.931e-05 5.71868e-08)
(-6.417e-07 -1.80722e-05 4.65158e-08)
(-4.49584e-07 -1.63931e-05 3.92589e-08)
(-2.71744e-07 -1.40512e-05 3.3998e-08)
(-1.22277e-07 -1.06253e-05 2.83162e-08)
(-1.49156e-08 -5.14857e-06 1.55661e-08)
(3.1166e-09 -5.23715e-06 3.36764e-09)
(2.17677e-08 -1.08037e-05 5.58938e-09)
(4.80336e-08 -1.42901e-05 6.71743e-09)
(8.29122e-08 -1.66848e-05 8.6922e-09)
(1.26754e-07 -1.84181e-05 1.23271e-08)
(1.79118e-07 -1.97164e-05 1.81876e-08)
(2.37695e-07 -2.07118e-05 2.67261e-08)
(2.97749e-07 -2.14864e-05 3.83036e-08)
(3.51878e-07 -2.20921e-05 5.31086e-08)
(3.90201e-07 -2.25626e-05 7.1034e-08)
(4.01597e-07 -2.29212e-05 9.14365e-08)
(3.7559e-07 -2.3185e-05 1.13056e-07)
(3.05721e-07 -2.3368e-05 1.33558e-07)
(1.92609e-07 -2.34815e-05 1.50192e-07)
(4.66217e-08 -2.35345e-05 1.59661e-07)
(-1.11339e-07 -2.35327e-05 1.5954e-07)
(-2.55931e-07 -2.3476e-05 1.49907e-07)
(-3.66379e-07 -2.33587e-05 1.3312e-07)
(-4.3249e-07 -2.31723e-05 1.1255e-07)
(-4.53947e-07 -2.29052e-05 9.08991e-08)
(-4.37339e-07 -2.25435e-05 7.05309e-08)
(-3.93381e-07 -2.20704e-05 5.26581e-08)
(-3.33263e-07 -2.14627e-05 3.79525e-08)
(-2.66986e-07 -2.06867e-05 2.64893e-08)
(-2.02091e-07 -1.96909e-05 1.80633e-08)
(-1.43483e-07 -1.83934e-05 1.23264e-08)
(-9.37424e-08 -1.66623e-05 8.82119e-09)
(-5.37361e-08 -1.42716e-05 6.97133e-09)
(-2.36583e-08 -1.07909e-05 5.97347e-09)
(-3.08015e-09 -5.23209e-06 3.75502e-09)
(-9.63956e-09 -5.20448e-06 -9.38696e-09)
(-8.38076e-08 -1.07328e-05 -1.84676e-08)
(-1.85112e-07 -1.41997e-05 -2.24051e-08)
(-2.97892e-07 -1.65912e-05 -2.42796e-08)
(-4.07502e-07 -1.83368e-05 -2.50573e-08)
(-5.02271e-07 -1.96621e-05 -2.51177e-08)
(-5.72021e-07 -2.06984e-05 -2.44419e-08)
(-6.09231e-07 -2.15261e-05 -2.2742e-08)
(-6.09675e-07 -2.21954e-05 -1.96645e-08)
(-5.73442e-07 -2.27372e-05 -1.48512e-08)
(-5.04838e-07 -2.31707e-05 -8.17388e-09)
(-4.12158e-07 -2.35073e-05 1.49342e-10)
(-3.0571e-07 -2.37547e-05 9.06894e-09)
(-1.95036e-07 -2.39169e-05 1.71072e-08)
(-8.62244e-08 -2.39965e-05 2.20492e-08)
(2.13673e-08 -2.39949e-05 2.19112e-08)
(1.31815e-07 -2.3912e-05 1.67619e-08)
(2.45548e-07 -2.37463e-05 8.52983e-09)
(3.5627e-07 -2.3496e-05 -5.07033e-10)
(4.5404e-07 -2.31565e-05 -8.89585e-09)
(5.28389e-07 -2.27207e-05 -1.55319e-08)
(5.70735e-07 -2.2177e-05 -2.02977e-08)
(5.7659e-07 -2.15064e-05 -2.32751e-08)
(5.45719e-07 -2.0678e-05 -2.48689e-08)
(4.82181e-07 -1.96419e-05 -2.54429e-08)
(3.9332e-07 -1.83176e-05 -2.52544e-08)
(2.89057e-07 -1.65742e-05 -2.43414e-08)
(1.80725e-07 -1.4186e-05 -2.23009e-08)
(8.25422e-08 -1.07237e-05 -1.82108e-08)
(9.74993e-09 -5.201e-06 -9.05692e-09)
(-2.28308e-08 -5.05177e-06 -2.26028e-08)
(-1.92355e-07 -1.04187e-05 -4.33634e-08)
(-4.24487e-07 -1.37893e-05 -5.25768e-08)
(-6.88904e-07 -1.61228e-05 -5.85793e-08)
(-9.56562e-07 -1.78363e-05 -6.41977e-08)
(-1.20387e-06 -1.91496e-05 -7.08787e-08)
(-1.40797e-06 -2.01899e-05 -7.90158e-08)
(-1.54875e-06 -2.10351e-05 -8.85716e-08)
(-1.60984e-06 -2.17325e-05 -9.91376e-08)
(-1.5805e-06 -2.23105e-05 -1.09934e-07)
(-1.45712e-06 -2.27851e-05 -1.20128e-07)
(-1.24443e-06 -2.31642e-05 -1.28659e-07)
(-9.55232e-07 -2.34502e-05 -1.34943e-07)
(-6.08809e-07 -2.36426e-05 -1.38633e-07)
(-2.28409e-07 -2.37389e-05 -1.401e-07)
(1.63511e-07 -2.37373e-05 -1.40244e-07)
(5.45701e-07 -2.36377e-05 -1.39022e-07)
(8.95408e-07 -2.34423e-05 -1.35549e-07)
(1.1892e-06 -2.31536e-05 -1.29397e-07)
(1.40743e-06 -2.27722e-05 -1.20935e-07)
(1.53692e-06 -2.22958e-05 -1.10743e-07)
(1.57266e-06 -2.17164e-05 -9.98939e-08)
(1.51807e-06 -2.10183e-05 -8.92582e-08)
(1.3837e-06 -2.01729e-05 -7.95866e-08)
(1.18573e-06 -1.9133e-05 -7.13346e-08)
(9.44088e-07 -1.78211e-05 -6.4544e-08)
(6.81393e-07 -1.61095e-05 -5.87721e-08)
(4.20979e-07 -1.3779e-05 -5.25945e-08)
(1.91522e-07 -1.0412e-05 -4.31923e-08)
(2.30047e-08 -5.04931e-06 -2.23012e-08)
(-3.58019e-08 -4.77855e-06 -3.55802e-08)
(-2.98185e-07 -9.86112e-06 -6.77593e-08)
(-6.57356e-07 -1.30589e-05 -8.21362e-08)
(-1.06916e-06 -1.52786e-05 -9.22624e-08)
(-1.49085e-06 -1.69145e-05 -1.02752e-07)
(-1.88743e-06 -1.81742e-05 -1.16074e-07)
(-2.22383e-06 -1.91781e-05 -1.33108e-07)
(-2.46756e-06 -1.99996e-05 -1.54071e-07)
(-2.59023e-06 -2.06829e-05 -1.7852e-07)
(-2.57029e-06 -2.12545e-05 -2.05345e-07)
(-2.39574e-06 -2.17281e-05 -2.32908e-07)
(-2.06707e-06 -2.21097e-05 -2.58943e-07)
(-1.59884e-06 -2.24e-05 -2.81148e-07)
(-1.01962e-06 -2.25966e-05 -2.97232e-07)
(-3.69591e-07 -2.26956e-05 -3.05554e-07)
(3.05036e-07 -2.2694e-05 -3.05702e-07)
(9.56871e-07 -2.25919e-05 -2.97634e-07)
(1.53953e-06 -2.23924e-05 -2.8176e-07)
(2.0125e-06 -2.20996e-05 -2.59705e-07)
(2.34687e-06 -2.1716e-05 -2.33739e-07)
(2.52772e-06 -2.1241e-05 -2.06196e-07)
(2.55425e-06 -2.06686e-05 -1.79329e-07)
(2.4382e-06 -1.99849e-05 -1.54818e-07)
(2.20089e-06 -1.91636e-05 -1.33753e-07)
(1.87056e-06 -1.81604e-05 -1.16604e-07)
(1.47949e-06 -1.69021e-05 -1.03161e-07)
(1.06253e-06 -1.52681e-05 -9.25222e-08)
(6.54423e-07 -1.30509e-05 -8.22205e-08)
(2.97611e-07 -9.85601e-06 -6.76339e-08)
(3.60047e-08 -4.77678e-06 -3.52993e-08)
(-4.77525e-08 -4.39116e-06 -4.7556e-08)
(-3.95121e-07 -9.07348e-06 -9.02706e-08)
(-8.703e-07 -1.20265e-05 -1.09397e-07)
(-1.4168e-06 -1.40799e-05 -1.23284e-07)
(-1.97953e-06 -1.55946e-05 -1.38212e-07)
(-2.51307e-06 -1.6761e-05 -1.576e-07)
(-2.97116e-06 -1.76894e-05 -1.82783e-07)
(-3.30994e-06 -1.84474e-05 -2.14146e-07)
(-3.48982e-06 -1.90761e-05 -2.51171e-07)
(-3.47909e-06 -1.95996e-05 -2.92463e-07)
(-3.25797e-06 -2.00311e-05 -3.35665e-07)
(-2.82307e-06 -2.0377e-05 -3.77464e-07)
(-2.19053e-06 -2.06385e-05 -4.13951e-07)
(-1.39733e-06 -2.08147e-05 -4.41122e-07)
(-4.99287e-07 -2.09031e-05 -4.55568e-07)
(4.35558e-07 -2.09015e-05 -4.55699e-07)
(1.33539e-06 -2.08102e-05 -4.41501e-07)
(2.132e-06 -2.06314e-05 -4.14543e-07)
(2.76927e-06 -2.03675e-05 -3.78191e-07)
(3.20994e-06 -2.002e-05 -3.36468e-07)
(3.43741e-06 -1.95873e-05 -2.93307e-07)
(3.45476e-06 -1.90632e-05 -2.5199e-07)
(3.28151e-06 -1.84344e-05 -2.14894e-07)
(2.94915e-06 -1.76768e-05 -1.83463e-07)
(2.49703e-06 -1.67493e-05 -1.58172e-07)
(1.96888e-06 -1.55843e-05 -1.38651e-07)
(1.41072e-06 -1.40713e-05 -1.23583e-07)
(8.67707e-07 -1.20201e-05 -1.09516e-07)
(3.94706e-07 -9.06956e-06 -9.01644e-08)
(4.79776e-08 -4.38986e-06 -4.72791e-08)
(-5.79568e-08 -3.90285e-06 -5.77748e-08)
(-4.77186e-07 -8.0831e-06 -1.09476e-07)
(-1.05024e-06 -1.07283e-05 -1.32604e-07)
(-1.71065e-06 -1.25693e-05 -1.49625e-07)
(-2.3931e-06 -1.39249e-05 -1.68211e-07)
(-3.04332e-06 -1.49636e-05 -1.92547e-07)
(-3.60515e-06 -1.57838e-05 -2.24281e-07)
(-4.0248e-06 -1.64461e-05 -2.63936e-07)
(-4.25297e-06 -1.69875e-05 -3.10886e-07)
(-4.24924e-06 -1.74306e-05 -3.63428e-07)
(-3.98763e-06 -1.77888e-05 -4.18637e-07)
(-3.46172e-06 -1.807e-05 -4.7232e-07)
(-2.68943e-06 -1.82784e-05 -5.19437e-07)
(-1.71523e-06 -1.84165e-05 -5.54758e-07)
(-6.08121e-07 -1.84849e-05 -5.73686e-07)
(5.45739e-07 -1.84834e-05 -5.73795e-07)
(1.65458e-06 -1.84124e-05 -5.55081e-07)
(2.63215e-06 -1.82719e-05 -5.19947e-07)
(3.40906e-06 -1.80614e-05 -4.72975e-07)
(3.94063e-06 -1.77787e-05 -4.19375e-07)
(4.20848e-06 -1.74194e-05 -3.64203e-07)
(4.21875e-06 -1.69759e-05 -3.11662e-07)
(3.99717e-06 -1.64347e-05 -2.64661e-07)
(3.58384e-06 -1.57729e-05 -2.24946e-07)
(3.02788e-06 -1.49537e-05 -1.93123e-07)
(2.38293e-06 -1.39164e-05 -1.68678e-07)
(1.7049e-06 -1.25624e-05 -1.49948e-07)
(1.04784e-06 -1.07233e-05 -1.32743e-07)
(4.76837e-07 -8.0801e-06 -1.09384e-07)
(5.81828e-08 -3.90192e-06 -5.75057e-08)
(-6.56844e-08 -3.33328e-06 -6.55226e-08)
(-5.38669e-07 -6.93011e-06 -1.24022e-07)
(-1.18519e-06 -9.21729e-06 -1.50148e-07)
(-1.93202e-06 -1.08094e-05 -1.69435e-07)
(-2.7063e-06 -1.19763e-05 -1.90611e-07)
(-3.44671e-06 -1.28616e-05 -2.1844e-07)
(-4.0891e-06 -1.35501e-05 -2.54748e-07)
(-4.57137e-06 -1.40947e-05 -3.00081e-07)
(-4.83639e-06 -1.45285e-05 -3.53727e-07)
(-4.83728e-06 -1.48725e-05 -4.13681e-07)
(-4.5434e-06 -1.51407e-05 -4.76553e-07)
(-3.94664e-06 -1.5343e-05 -5.37625e-07)
(-3.06703e-06 -1.5487e-05 -5.91194e-07)
(-1.9551e-06 -1.55789e-05 -6.31325e-07)
(-6.89822e-07 -1.56231e-05 -6.52844e-07)
(6.29459e-07 -1.56218e-05 -6.52942e-07)
(1.89637e-06 -1.55752e-05 -6.31626e-07)
(3.01147e-06 -1.54811e-05 -5.91653e-07)
(3.89553e-06 -1.53353e-05 -5.38211e-07)
(4.49774e-06 -1.51318e-05 -4.77232e-07)
(4.79768e-06 -1.48628e-05 -4.14398e-07)
(4.80318e-06 -1.45185e-05 -3.54449e-07)
(4.54455e-06 -1.40849e-05 -3.0078e-07)
(4.06843e-06 -1.35408e-05 -2.55391e-07)
(3.43179e-06 -1.28532e-05 -2.19004e-07)
(2.69649e-06 -1.19692e-05 -1.91076e-07)
(1.92649e-06 -1.08039e-05 -1.69746e-07)
(1.18293e-06 -9.21338e-06 -1.50289e-07)
(5.38368e-07 -6.92788e-06 -1.23943e-07)
(6.59081e-08 -3.33265e-06 -6.52621e-08)
(-7.02229e-08 -2.70821e-06 -7.00824e-08)
(-5.74385e-07 -5.66648e-06 -1.32552e-07)
(-1.26464e-06 -7.56135e-06 -1.60321e-07)
(-2.06505e-06 -8.87948e-06 -1.8076e-07)
(-2.89856e-06 -9.83767e-06 -2.03264e-07)
(-3.69881e-06 -1.05533e-05 -2.3292e-07)
(-4.39557e-06 -1.10971e-05 -2.71677e-07)
(-4.92048e-06 -1.1514e-05 -3.20045e-07)
(-5.21072e-06 -1.18328e-05 -3.77141e-07)
(-5.21486e-06 -1.2073e-05 -4.40711e-07)
(-4.89958e-06 -1.22486e-05 -5.07114e-07)
(-4.25634e-06 -1.23713e-05 -5.71354e-07)
(-3.30712e-06 -1.24513e-05 -6.27466e-07)
(-2.10682e-06 -1.24982e-05 -6.69365e-07)
(-7.40915e-07 -1.25191e-05 -6.91817e-07)
(6.83213e-07 -1.2518e-05 -6.91901e-07)
(2.05065e-06 -1.2495e-05 -6.69624e-07)
(3.25394e-06 -1.24463e-05 -6.27869e-07)
(4.20736e-06 -1.23647e-05 -5.71874e-07)
(4.85575e-06 -1.2241e-05 -5.07719e-07)
(5.17679e-06 -1.20647e-05 -4.41362e-07)
(5.17876e-06 -1.18244e-05 -3.77809e-07)
(4.89466e-06 -1.15057e-05 -3.20696e-07)
(4.3757e-06 -1.10895e-05 -2.72281e-07)
(3.68447e-06 -1.05465e-05 -2.33455e-07)
(2.88914e-06 -9.83198e-06 -2.0372e-07)
(2.05975e-06 -8.87512e-06 -1.81078e-07)
(1.26245e-06 -7.55838e-06 -1.60468e-07)
(5.74084e-07 -5.66493e-06 -1.32484e-07)
(7.04332e-08 -2.70787e-06 -6.98376e-08)
(-7.07818e-08 -2.05939e-06 -7.06609e-08)
(-5.79125e-07 -4.35499e-06 -1.33517e-07)
(-1.27897e-06 -5.84128e-06 -1.61156e-07)
(-2.09637e-06 -6.87279e-06 -1.81283e-07)
(-2.95364e-06 -7.61272e-06 -2.03576e-07)
(-3.78137e-06 -8.15234e-06 -2.33248e-07)
(-4.50525e-06 -8.54862e-06 -2.72303e-07)
(-5.05265e-06 -8.83827e-06 -3.2115e-07)
(-5.3573e-06 -9.04595e-06 -3.78757e-07)
(-5.36533e-06 -9.18886e-06 -4.42703e-07)
(-5.04234e-06 -9.28058e-06 -5.09213e-07)
(-4.38018e-06 -9.33332e-06 -5.73249e-07)
(-3.40241e-06 -9.35888e-06 -6.28937e-07)
(-2.1663e-06 -9.36813e-06 -6.70346e-07)
(-7.60098e-07 -9.36988e-06 -6.92483e-07)
(7.05849e-07 -9.369e-06 -6.92555e-07)