/*--------------------------------*- C++ -*----------------------------------*\
| =========                 |                                                 |
| \\      /  F ield         | OpenFOAM: The Open Source CFD Toolbox           |
|  \\    /   O peration     | Version:  v1912                                 |
|   \\  /    A nd           | Website:  www.openfoam.com                      |
|    \\/     M anipulation  |                                                 |
\*---------------------------------------------------------------------------*/
FoamFile
{
    version     2.0;
    format      ascii;
    class       surfaceScalarField;
    location    "180/oil";
    object      phi;
}
// * * * * * * * * * * * * * * * * * * * * * * * * * * * * * * * * * * * * * //

dimensions      [1 0 -1 0 0 0 0];
oriented        oriented;


internalField   nonuniform List<scalar> 
104676
(
-9.4375e-12
2.39107e-11
-1.22886e-11
2.49582e-10
-2.05341e-10
-5.3669e-11
7.7866e-10
-3.83861e-10
-1.45199e-10
1.49585e-09
-4.67845e-10
-2.49337e-10
2.29572e-09
-4.78153e-10
-3.21705e-10
3.07311e-09
-4.34846e-10
-3.42532e-10
3.73318e-09
-3.53633e-10
-3.06414e-10
4.19667e-09
-2.46156e-10
-2.17292e-10
4.40178e-09
-1.2141e-10
-8.36615e-11
4.31504e-09
9.3995e-12
7.74091e-11
3.91997e-09
1.44488e-10
2.50659e-10
3.24392e-09
2.54766e-10
4.21355e-10
2.3222e-09
3.54988e-10
5.668e-10
1.22094e-09
4.27598e-10
6.73713e-10
2.4385e-11
4.65986e-10
7.30605e-10
-1.17596e-09
4.68086e-10
7.3229e-10
-2.28039e-09
4.2807e-10
6.76394e-10
-3.20606e-09
3.54812e-10
5.70903e-10
-3.88897e-09
2.56458e-10
4.26513e-10
-4.28927e-09
1.41529e-10
2.58838e-10
-4.38698e-09
1.05827e-11
8.71891e-11
-4.18677e-09
-1.23704e-10
-7.64489e-11
-3.72737e-09
-2.47974e-10
-2.1138e-10
-3.07044e-09
-3.5533e-10
-3.01568e-10
-2.29564e-09
-4.36212e-10
-3.38555e-10
-1.49768e-09
-4.80391e-10
-3.17556e-10
-7.812e-10
-4.71368e-10
-2.45085e-10
-2.51842e-10
-3.8809e-10
-1.41242e-10
8.24176e-12
-2.09392e-10
-5.06632e-11
1.91564e-11
-1.08959e-11
2.54619e-10
-4.85257e-10
2.54572e-10
9.80552e-10
-1.45355e-09
5.223e-10
2.13273e-09
-2.1827e-09
6.46683e-10
3.58283e-09
-2.62636e-09
7.08436e-10
5.15654e-09
-2.83862e-09
7.86769e-10
6.66635e-09
-2.87213e-09
9.27493e-10
7.93518e-09
-2.77182e-09
1.14939e-09
8.80982e-09
-2.57308e-09
1.45232e-09
9.1709e-09
-2.30551e-09
1.82308e-09
8.94196e-09
-1.99578e-09
2.2342e-09
8.08737e-09
-1.67e-09
2.66917e-09
6.65429e-09
-1.38471e-09
3.07264e-09
4.74979e-09
-1.13378e-09
3.39335e-09
2.49444e-09
-9.5222e-10
3.63523e-09
4.92339e-11
-8.57225e-10
3.76846e-09
-2.40554e-09
-8.57745e-10
3.78064e-09
-4.66726e-09
-9.56429e-10
3.64626e-09
-6.5739e-09
-1.14106e-09
3.40257e-09
-7.99556e-09
-1.39245e-09
3.07065e-09
-8.85314e-09
-1.6832e-09
2.68238e-09
-9.09613e-09
-2.00453e-09
2.25818e-09
-8.74766e-09
-2.31204e-09
1.83995e-09
-7.88826e-09
-2.57702e-09
1.4697e-09
-6.63574e-09
-2.77497e-09
1.16717e-09
-5.13939e-09
-2.87625e-09
9.43721e-10
-3.57764e-09
-2.8443e-09
8.02182e-10
-2.13513e-09
-2.63604e-09
7.22202e-10
-9.84012e-10
-2.19567e-09
6.56492e-10
-2.55675e-10
-1.46441e-09
5.26717e-10
-4.91307e-10
2.54811e-10
5.34462e-10
-1.55919e-09
5.39507e-10
1.69748e-09
-3.77009e-09
1.15356e-09
3.32766e-09
-5.34812e-09
1.53527e-09
5.26456e-09
-6.37674e-09
1.8135e-09
7.30779e-09
-6.96714e-09
2.08532e-09
9.23685e-09
-7.21109e-09
2.40992e-09
1.08364e-08
-7.18734e-09
2.81601e-09
1.19156e-08
-6.96076e-09
3.30851e-09
1.23256e-08
-6.59026e-09
3.8748e-09
1.19712e-08
-6.12529e-09
4.484e-09
1.08056e-08
-5.6195e-09
5.11514e-09
8.87822e-09
-5.14138e-09
5.68414e-09
6.32847e-09
-4.72211e-09
6.13817e-09
3.32068e-09
-4.41599e-09
6.47162e-09
6.34255e-11
-4.25813e-09
6.65822e-09
-3.20949e-09
-4.26557e-09
6.68079e-09
-6.22692e-09
-4.42615e-09
6.48719e-09
-8.77749e-09
-4.73383e-09
6.14338e-09
-1.06942e-08
-5.14992e-09
5.67426e-09
-1.18756e-08
-5.63219e-09
5.13043e-09
-1.22503e-08
-6.13686e-09
4.50714e-09
-1.18554e-08
-6.59843e-09
3.8916e-09
-1.0792e-08
-6.96712e-09
3.32682e-09
-9.209e-09
-7.19214e-09
2.83418e-09
-7.2951e-09
-7.21728e-09
2.42717e-09
-5.26233e-09
-6.9777e-09
2.10067e-09
-3.33235e-09
-6.39175e-09
1.82576e-09
-1.70371e-09
-5.3665e-09
1.54223e-09
-5.375e-10
-3.78466e-09
1.15409e-09
-1.56724e-09
5.38461e-10
7.65854e-10
-3.10011e-09
7.75112e-10
2.29646e-09
-6.97202e-09
1.67137e-09
4.31413e-09
-9.62546e-09
2.2597e-09
6.62178e-09
-1.13973e-08
2.71293e-09
8.99897e-09
-1.24915e-08
3.14718e-09
1.12084e-08
-1.30483e-08
3.62787e-09
1.30169e-08
-1.31843e-08
4.18838e-09
1.4216e-08
-1.29953e-08
4.8355e-09
1.46364e-08
-1.25687e-08
5.55811e-09
1.41684e-08
-1.19843e-08
6.32715e-09
1.27571e-08
-1.13228e-08
7.11463e-09
1.0469e-08
-1.0663e-08
7.80978e-09
7.45613e-09
-1.00884e-08
8.37932e-09
3.90954e-09
-9.64558e-09
8.77626e-09
7.18367e-11
-9.41991e-09
8.99954e-09
-3.7866e-09
-9.43575e-09
9.02867e-09
-7.34584e-09
-9.65649e-09
8.78962e-09
-1.03614e-08
-1.00875e-08
8.36926e-09
-1.26401e-08
-1.0665e-08
7.79389e-09
-1.40646e-08
-1.13274e-08
7.11977e-09
-1.45514e-08
-1.19892e-08
6.33928e-09
-1.41479e-08
-1.25723e-08
5.57053e-09
-1.29672e-08
-1.29985e-08
4.85073e-09
-1.11753e-08
-1.31872e-08
4.20331e-09
-8.98211e-09
-1.30538e-08
3.64334e-09
-6.61866e-09
-1.25023e-08
3.16123e-09
-4.31784e-09
-1.14151e-08
2.72259e-09
-2.30258e-09
-9.64296e-09
2.26124e-09
-7.71433e-10
-6.9784e-09
1.66262e-09
-3.11094e-09
7.72289e-10
9.40389e-10
-4.98949e-09
9.49027e-10
2.75469e-09
-1.08361e-08
2.04986e-09
5.076e-09
-1.47392e-08
2.79252e-09
7.66987e-09
-1.73662e-08
3.37514e-09
1.02975e-08
-1.90504e-08
3.93133e-09
1.27099e-08
-1.99952e-08
4.53453e-09
1.46645e-08
-2.03587e-08
5.2199e-09
1.59413e-08
-2.02692e-08
5.99703e-09
1.63634e-08
-1.98422e-08
6.85138e-09
1.581e-08
-1.9186e-08
7.75522e-09
1.42223e-08
-1.84118e-08
8.67678e-09
1.16693e-08
-1.76165e-08
9.5066e-09
8.30424e-09
-1.69023e-08
1.0179e-08
4.35152e-09
-1.63222e-08
1.06295e-08
7.74265e-11
-1.60288e-08
1.08831e-08
-4.22097e-09
-1.60505e-08
1.09132e-08
-8.18287e-09
-1.6336e-08
1.06415e-08
-1.15444e-08
-1.68811e-08
1.01552e-08
-1.40971e-08
-1.76104e-08
9.49815e-09
-1.56996e-08
-1.84106e-08
8.68593e-09
-1.62724e-08
-1.9186e-08
7.76963e-09
-1.58689e-08
-1.98424e-08
6.86664e-09
-1.46098e-08
-2.02705e-08
6.01288e-09
-1.26714e-08
-2.03611e-08
5.23556e-09
-1.02748e-08
-1.99998e-08
4.54938e-09
-7.66176e-09
-1.90592e-08
3.94393e-09
-5.07799e-09
-1.73813e-08
3.38248e-09
-2.75906e-09
-1.47525e-08
2.79066e-09
-9.45261e-10
-1.08291e-08
2.037e-09
-5.00274e-09
9.46571e-10
1.05767e-09
-7.11502e-09
1.0679e-09
3.07347e-09
-1.51545e-08
2.30261e-09
5.61557e-09
-2.04328e-08
3.15151e-09
8.41721e-09
-2.39944e-08
3.82663e-09
1.12255e-08
-2.63304e-08
4.47173e-09
1.37839e-08
-2.77227e-08
5.1691e-09
1.58443e-08
-2.8375e-08
5.9559e-09
1.71805e-08
-2.84492e-08
6.84384e-09
1.7609e-08
-2.80875e-08
7.81674e-09
1.70045e-08
-2.74232e-08
8.84176e-09
1.53054e-08
-2.65923e-08
9.87961e-09
1.25586e-08
-2.5728e-08
1.08584e-08
8.93304e-09
-2.49141e-08
1.16374e-08
4.67827e-09
-2.42068e-08
1.21394e-08
7.78772e-11
-2.38373e-08
1.2409e-08
-4.54895e-09
-2.38609e-08
1.24372e-08
-8.80441e-09
-2.42391e-08
1.21585e-08
-1.24191e-08
-2.48735e-08
1.16072e-08
-1.5171e-08
-2.57151e-08
1.08567e-08
-1.6888e-08
-2.65883e-08
9.89473e-09
-1.75141e-08
-2.74201e-08
8.86036e-09
-1.71055e-08
-2.80862e-08
7.8354e-09
-1.57874e-08
-2.84504e-08
6.86195e-09
-1.37435e-08
-2.83778e-08
5.97287e-09
-1.11995e-08
-2.77274e-08
5.18358e-09
-8.4047e-09
-2.63377e-08
4.48368e-09
-5.6141e-09
-2.40043e-08
3.83244e-09
-3.07813e-09
-2.04354e-08
3.14694e-09
-1.06314e-09
-1.51334e-08
2.28927e-09
-7.13249e-09
1.06665e-09
1.11673e-09
-9.37273e-09
1.14104e-09
3.25658e-09
-1.9761e-08
2.46675e-09
5.93803e-09
-2.64857e-08
3.37151e-09
8.86865e-09
-3.10228e-08
4.09778e-09
1.17881e-08
-3.40529e-08
4.80319e-09
1.4437e-08
-3.59424e-08
5.57083e-09
1.65664e-08
-3.69439e-08
6.4396e-09
1.79456e-08
-3.7252e-08
7.4235e-09
1.83884e-08
-3.70339e-08
8.50366e-09
1.77624e-08
-3.64412e-08
9.64406e-09
1.60044e-08
-3.56333e-08
1.07991e-08
1.31301e-08
-3.47655e-08
1.19119e-08
9.34381e-09
-3.39308e-08
1.28032e-08
4.89267e-09
-3.31083e-08
1.33527e-08
8.42815e-11
-3.26695e-08
1.36406e-08
-4.74645e-09
-3.27055e-08
1.36754e-08
-9.21316e-09
-3.31694e-08
1.33971e-08
-1.29873e-08
-3.38823e-08
1.27829e-08
-1.58664e-08
-3.47534e-08
1.19175e-08
-1.76436e-08
-3.56329e-08
1.08219e-08
-1.82913e-08
-3.64418e-08
9.66941e-09
-1.78692e-08
-3.70354e-08
8.52729e-09
-1.65082e-08
-3.7256e-08
7.44471e-09
-1.43956e-08
-3.695e-08
6.45962e-09
-1.17603e-08
-3.59492e-08
5.58648e-09
-8.85374e-09
-3.40593e-08
4.81519e-09
-5.93493e-09
-3.10247e-08
4.10166e-09
-3.26462e-09
-2.64655e-08
3.35988e-09
-1.13036e-09
-1.97086e-08
2.441e-09
-9.40091e-09
1.1381e-09
1.1389e-09
-1.16769e-08
1.16527e-09
3.31502e-09
-2.44668e-08
2.52965e-09
6.0427e-09
-3.26744e-08
3.46115e-09
9.01766e-09
-3.82069e-08
4.20926e-09
1.19708e-08
-4.19502e-08
4.94426e-09
1.46468e-08
-4.43775e-08
5.75914e-09
1.68006e-08
-4.57882e-08
6.69048e-09
1.8203e-08
-4.64063e-08
7.75185e-09
1.86637e-08
-4.64194e-08
8.92486e-09
1.80477e-08
-4.59953e-08
1.01702e-08
1.62807e-08
-4.53029e-08
1.14367e-08
1.33622e-08
-4.45183e-08
1.26715e-08
9.50383e-09
-4.37612e-08
1.36889e-08
4.96928e-09
-4.2844e-08
1.42704e-08
8.39594e-11
-4.23753e-08
1.45911e-08
-4.8306e-09
-4.24195e-08
1.46285e-08
-9.39844e-09
-4.29072e-08
1.43056e-08
-1.32282e-08
-4.371e-08
1.36574e-08
-1.61443e-08
-4.45096e-08
1.26725e-08
-1.79292e-08
-4.5307e-08
1.14592e-08
-1.85675e-08
-4.59995e-08
1.01961e-08
-1.81273e-08
-4.6425e-08
8.94948e-09
-1.67425e-08
-4.64154e-08
7.77461e-09
-1.46046e-08
-4.57999e-08
6.71205e-09
-1.19417e-08
-4.4389e-08
5.77701e-09
-9.00185e-09
-4.19559e-08
4.95672e-09
-6.04294e-09
-3.81896e-08
4.20599e-09
-3.32825e-09
-3.26159e-08
3.43577e-09
-1.15136e-09
-2.43808e-08
2.49539e-09
-1.17167e-08
1.16451e-09
1.11925e-09
-1.39403e-08
1.14426e-09
3.24378e-09
-2.90872e-08
2.49591e-09
5.91609e-09
-3.87829e-08
3.43628e-09
8.83998e-09
-4.53163e-08
4.1856e-09
1.17442e-08
-4.97684e-08
4.91399e-09
1.43727e-08
-5.27433e-08
5.7374e-09
1.6494e-08
-5.461e-08
6.7005e-09
1.78878e-08
-5.561e-08
7.80986e-09
1.83637e-08
-5.59406e-08
9.04526e-09
1.77839e-08
-5.57821e-08
1.03665e-08
1.60781e-08
-5.53066e-08
1.17096e-08
1.3233e-08
-5.4684e-08
1.3011e-08
9.39636e-09
-5.40569e-08
1.41325e-08
4.90677e-09
-5.31123e-08
1.4758e-08
7.99669e-11
-5.26843e-08
1.51358e-08
-4.78221e-09
-5.27235e-08
1.51661e-08
-9.31769e-09
-5.31364e-08
1.47647e-08
-1.31207e-08
-5.39794e-08
1.40725e-08
-1.59482e-08
-5.46766e-08
1.29946e-08
-1.76685e-08
-5.53149e-08
1.17283e-08
-1.82687e-08
-5.57922e-08
1.0393e-08
-1.78128e-08
-5.59518e-08
9.07097e-09
-1.64367e-08
-5.56249e-08
7.83354e-09
-1.43305e-08
-5.46287e-08
6.72266e-09
-1.17164e-08
-5.27563e-08
5.75317e-09
-8.83367e-09
-4.97488e-08
4.91019e-09
-5.9312e-09
-4.52409e-08
4.1489e-09
-3.2666e-09
-3.86608e-08
3.38037e-09
-1.12702e-09
-2.89769e-08
2.45655e-09
-1.39888e-08
1.14508e-09
1.06198e-09
-1.60754e-08
1.07309e-09
3.06762e-09
-3.34364e-08
2.34368e-09
5.56473e-09
-4.45394e-08
3.25946e-09
8.31651e-09
-5.20732e-08
4.00521e-09
1.10725e-08
-5.72373e-08
4.71308e-09
1.35689e-08
-6.07397e-08
5.50006e-09
1.55885e-08
-6.30784e-08
6.44871e-09
1.69281e-08
-6.45112e-08
7.56145e-09
1.74092e-08
-6.52334e-08
8.81172e-09
1.6891e-08
-6.54228e-08
1.01589e-08
1.53065e-08
-6.52503e-08
1.15284e-08
1.26422e-08
-6.48689e-08
1.28494e-08
8.94888e-09
-6.4389e-08
1.40257e-08
4.67039e-09
-6.35387e-08
1.4705e-08
7.46238e-11
-6.3194e-08
1.51055e-08
-4.54854e-09
-6.32312e-08
1.51307e-08
-8.85785e-09
-6.35167e-08
1.46894e-08
-1.25328e-08
-6.42333e-08
1.39288e-08
-1.5185e-08
-6.48501e-08
1.28257e-08
-1.67799e-08
-6.52647e-08
1.15449e-08
-1.73178e-08
-6.54388e-08
1.01847e-08
-1.68568e-08
-6.52499e-08
8.83712e-09
-1.55329e-08
-6.45335e-08
7.58468e-09
-1.35258e-08
-6.31041e-08
6.46835e-09
-1.10507e-08
-6.07332e-08
5.5018e-09
-8.32641e-09
-5.71424e-08
4.66938e-09
-5.58315e-09
-5.19101e-08
3.92601e-09
-3.07042e-09
-4.43607e-08
3.18721e-09
-1.05839e-09
-3.33003e-08
2.31149e-09
-1.61259e-08
1.07876e-09
9.58471e-10
-1.79864e-08
9.52542e-10
2.7749e-09
-3.73061e-08
2.05326e-09
5.01303e-09
-4.96517e-08
2.87417e-09
7.45804e-09
-5.81219e-08
3.60383e-09
9.93731e-09
-6.40041e-08
4.2877e-09
1.21978e-08
-6.80158e-08
5.01562e-09
1.40366e-08
-7.08179e-08
5.90078e-09
1.52709e-08
-7.2708e-08
6.96235e-09
1.57357e-08
-7.38608e-08
8.16243e-09
1.53028e-08
-7.44419e-08
9.45197e-09
1.39228e-08
-7.46021e-08
1.07319e-08
1.15597e-08
-7.44516e-08
1.1946e-08
8.15659e-09
-7.40822e-08
1.30967e-08
4.24921e-09
-7.35271e-08
1.3896e-08
6.80436e-11
-7.33269e-08
1.43141e-08
-4.13015e-09
-7.33644e-08
1.43313e-08
-8.01851e-09
-7.35101e-08
1.38816e-08
-1.13615e-08
-7.40069e-08
1.31166e-08
-1.37598e-08
-7.45496e-08
1.20979e-08
-1.51896e-08
-7.46496e-08
1.08149e-08
-1.56468e-08
-7.44655e-08
9.484e-09
-1.52034e-08
-7.38763e-08
8.18308e-09
-1.39823e-08
-7.27343e-08
6.97967e-09
-1.21518e-08
-7.08464e-08
5.91168e-09
-9.91382e-09
-6.79644e-08
4.9932e-09
-7.45679e-09
-6.38046e-08
4.2052e-09
-4.98102e-09
-5.78904e-08
3.50458e-09
-2.7258e-09
-4.94441e-08
2.82823e-09
-9.30584e-10
-3.71418e-08
2.04637e-09
-1.80159e-08
9.59487e-10
8.07741e-10
-1.95804e-08
7.86273e-10
2.35565e-09
-4.05047e-08
1.65069e-09
4.24716e-09
-5.38135e-08
2.27039e-09
6.29824e-09
-6.30657e-08
2.89285e-09
8.34113e-09
-6.95976e-08
3.55074e-09
1.02384e-08
-7.41418e-08
4.22885e-09
1.18067e-08
-7.73961e-08
5.00977e-09
1.28851e-08
-7.97427e-08
5.9561e-09
1.33239e-08
-8.13299e-08
7.03001e-09
1.30061e-08
-8.22737e-08
8.14953e-09
1.18536e-08
-8.26964e-08
9.24687e-09
9.79409e-09
-8.28014e-08
1.04097e-08
6.92073e-09
-8.27154e-08
1.15069e-08
3.61666e-09
-8.24692e-08
1.22464e-08
5.76044e-11
-8.23907e-08
1.26228e-08
-3.52761e-09
-8.23699e-08
1.25904e-08
-6.8391e-09
-8.23405e-08
1.21416e-08
-9.6732e-09
-8.26021e-08
1.14291e-08
-1.16972e-08
-8.30409e-08
1.05154e-08
-1.28771e-08
-8.27861e-08
9.31658e-09
-1.3226e-08
-8.22687e-08
8.15224e-09
-1.28173e-08
-8.13071e-08
7.02208e-09
-1.17539e-08
-7.97546e-08
5.95683e-09
-1.0177e-08
-7.7426e-08
5.00268e-09
-8.28152e-09
-7.40539e-08
4.19393e-09
-6.22463e-09
-6.93829e-08
3.5214e-09
-4.18019e-09
-6.28878e-08
2.95299e-09
-2.3026e-09
-5.37231e-08
2.40153e-09
-7.94657e-10
-4.03905e-08
1.74079e-09
-1.96232e-08
8.1264e-10
6.19853e-10
-2.07931e-08
5.92868e-10
1.78497e-09
-4.29323e-08
1.26258e-09
3.24571e-09
-5.69788e-08
1.70461e-09
4.81004e-09
-6.67159e-08
2.08598e-09
6.32636e-09
-7.36724e-08
2.55865e-09
7.73768e-09
-7.86842e-08
3.1311e-09
8.92794e-09
-8.23634e-08
3.77694e-09
9.78877e-09
-8.51147e-08
4.51085e-09
1.02094e-08
-8.70844e-08
5.33355e-09
9.9856e-09
-8.82752e-08
6.22517e-09
8.99804e-09
-8.89251e-08
7.21639e-09
7.3423e-09
-8.93799e-08
8.23466e-09
5.25993e-09
-8.9726e-08
9.09348e-09
2.78208e-09
-8.9675e-08
9.68385e-09
5.07205e-11
-8.96269e-08
9.96753e-09
-2.7269e-09
-8.9495e-08
9.90235e-09
-5.25743e-09
-8.93492e-08
9.53889e-09
-7.38745e-09
-8.93985e-08
8.92631e-09
-8.9948e-09
-8.94934e-08
8.05993e-09
-9.88596e-09
-8.88925e-08
6.99772e-09
-1.01028e-08
-8.81322e-08
6.08064e-09
-9.75735e-09
-8.68848e-08
5.23218e-09
-8.94355e-09
-8.50214e-08
4.45284e-09
-7.76062e-09
-8.24058e-08
3.79667e-09
-6.31927e-09
-7.87265e-08
3.23111e-09
-4.75296e-09
-7.36661e-08
2.71694e-09
-3.19159e-09
-6.67113e-08
2.2622e-09
-1.75753e-09
-5.69822e-08
1.82515e-09
-6.07416e-10
-4.28597e-08
1.31918e-09
-2.08452e-08
6.14683e-10
4.1889e-10
-2.15727e-08
3.60732e-10
1.12956e-09
-4.44011e-08
7.58045e-10
2.0417e-09
-5.8987e-08
1.09607e-09
3.03172e-09
-6.90741e-08
1.3683e-09
4.00315e-09
-7.63253e-08
1.68164e-09
4.91225e-09
-8.16357e-08
2.04248e-09
5.6755e-09
-8.5553e-08
2.42611e-09
6.19359e-09
-8.84443e-08
2.81113e-09
6.47279e-09
-9.05947e-08
3.23066e-09
6.31002e-09
-9.19603e-08
3.84754e-09
5.662e-09
-9.28831e-08
4.60616e-09
4.65904e-09
-9.36804e-08
5.30404e-09
3.34644e-09
-9.4263e-08
5.85016e-09
1.77728e-09
-9.43352e-08
6.2297e-09
5.90107e-11
-9.43494e-08
6.44057e-09
-1.68614e-09
-9.41731e-08
6.4227e-09
-3.28618e-09
-9.3959e-08
6.20923e-09
-4.60648e-09
-9.3898e-08
5.81956e-09
-5.63738e-09
-9.37503e-08
5.28796e-09
-6.27101e-09
-9.28452e-08
4.5867e-09
-6.50693e-09
-9.17425e-08
3.84647e-09
-6.32262e-09
-9.02258e-08
3.15676e-09
-5.76455e-09
-8.8207e-08
2.62729e-09
-4.94004e-09
-8.5495e-08
2.26453e-09
-3.98818e-09
-8.16556e-08
1.97706e-09
-2.98803e-09
-7.63633e-08
1.697e-09
-2.00091e-09
-6.91176e-08
1.41931e-09
-1.09862e-09
-5.90287e-08
1.14429e-09
-3.80067e-10
-4.44033e-08
8.25202e-10
-2.16094e-08
3.84193e-10
1.53313e-10
-2.1849e-08
1.2286e-10
3.93534e-10
-4.49043e-08
2.62915e-10
7.15614e-10
-5.97014e-08
3.92307e-10
1.06957e-09
-6.99178e-08
4.89942e-10
1.42721e-09
-7.72705e-08
5.87805e-10
1.78928e-09
-8.26673e-08
6.69682e-10
2.12547e-09
-8.66308e-08
7.41426e-10
2.32594e-09
-8.95029e-08
8.57454e-10
2.35407e-09
-9.16622e-08
1.03866e-09
2.22775e-09
-9.31309e-08
1.29659e-09
2.02701e-09
-9.42491e-08
1.56691e-09
1.73256e-09
-9.51813e-08
1.79596e-09
1.17807e-09
-9.56594e-08
1.95171e-09
5.88798e-10
-9.58077e-08
2.0623e-09
3.6383e-11
-9.597e-08
2.17289e-09
-5.78939e-10
-9.58248e-08
2.2663e-09
-1.15475e-09
-9.56453e-08
2.26139e-09
-1.60978e-09
-9.55563e-08
2.11297e-09
-1.96755e-09
-9.53084e-08
1.91608e-09
-2.18838e-09
-9.42985e-08
1.67466e-09
-2.2779e-09
-9.30723e-08
1.41971e-09
-2.22182e-09
-9.14554e-08
1.17357e-09
-2.02733e-09
-8.93743e-08
9.72616e-10
-1.73546e-09
-8.66069e-08
8.19716e-10
-1.39597e-09
-8.26879e-08
6.92621e-10
-1.04056e-09
-7.72972e-08
5.78476e-10
-6.91157e-10
-6.99453e-08
4.7843e-10
-3.75241e-10
-5.97294e-08
3.84958e-10
-1.29118e-10
-4.49242e-08
2.74816e-10
-2.18707e-08
1.32287e-10
-1.07457e-10
-2.16235e-08
-1.1814e-10
-3.33666e-10
-4.44399e-08
-2.38296e-10
-6.1148e-10
-5.90987e-08
-3.24859e-10
-9.15004e-10
-6.92095e-08
-4.04549e-10
-1.22778e-09
-7.64787e-08
-4.7853e-10
-1.54243e-09
-8.18213e-08
-5.30983e-10
-1.8369e-09
-8.57664e-08
-5.70118e-10
-2.02457e-09
-8.86683e-08
-6.47679e-10
-2.02916e-09
-9.08299e-08
-8.28796e-10
-1.89277e-09
-9.21676e-08
-1.10036e-09
-1.71535e-09
-9.30677e-08
-1.35855e-09
-1.56151e-09
-9.38029e-08
-1.53119e-09
-1.31825e-09
-9.42585e-08
-1.64289e-09
-8.11443e-10
-9.45539e-08
-1.75996e-09
-7.3226e-11
-9.47696e-08
-1.93896e-09
5.31706e-10
-9.44224e-08
-2.00838e-09
1.05209e-09
-9.42395e-08
-1.92733e-09
1.52051e-09
-9.42252e-08
-1.79996e-09
1.77871e-09
-9.39301e-08
-1.63618e-09
1.94511e-09
-9.30205e-08
-1.44379e-09
2.02811e-09
-9.19259e-08
-1.2289e-09
1.9833e-09
-9.0402e-08
-1.00846e-09
1.8277e-09
-8.83832e-08
-8.35763e-10
1.56655e-09
-8.56348e-08
-7.11359e-10
1.26416e-09
-8.17697e-08
-6.16088e-10
9.50825e-10
-7.64581e-08
-5.25799e-10
6.38109e-10
-6.91967e-08
-4.35759e-10
3.54741e-10
-5.91005e-08
-3.45402e-10
1.27845e-10
-4.44571e-08
-2.4e-10
-2.16309e-08
-1.11859e-10
-3.65581e-10
-2.08893e-08
-3.68878e-10
-1.06148e-09
-4.29553e-08
-7.89025e-10
-1.92945e-09
-5.71353e-08
-1.09546e-09
-2.87923e-09
-6.68992e-08
-1.36018e-09
-3.833e-09
-7.38879e-08
-1.63638e-09
-4.71719e-09
-7.89915e-08
-1.94499e-09
-5.45258e-09
-8.27405e-08
-2.29065e-09
-5.97444e-09
-8.54671e-08
-2.68034e-09
-6.21694e-09
-8.74708e-08
-3.11803e-09
-6.03211e-09
-8.86683e-08
-3.68506e-09
-5.41211e-09
-8.92926e-08
-4.39482e-09
-4.51808e-09
-8.96613e-08
-5.03417e-09
-3.30212e-09
-8.99472e-08
-5.52556e-09
-1.77419e-09
-9.01694e-08
-5.91144e-09
-2.73346e-11
-9.0355e-08
-6.1619e-09
1.6589e-09
-8.99712e-08
-6.13883e-09
3.24435e-09
-8.98996e-08
-5.92678e-09
4.63245e-09
-9.00701e-08
-5.54383e-09
5.46581e-09
-8.97476e-08
-5.01536e-09
6.00823e-09
-8.91487e-08
-4.41323e-09
6.2489e-09
-8.84451e-08
-3.72073e-09
6.06948e-09
-8.72245e-08
-2.998e-09
5.55e-09
-8.53418e-08
-2.52231e-09
4.75545e-09
-8.2635e-08
-2.20584e-09
3.84332e-09
-7.89364e-08
-1.92153e-09
2.89918e-09
-7.38767e-08
-1.6373e-09
1.95188e-09
-6.69005e-08
-1.34878e-09
1.09131e-09
-5.71731e-08
-1.06662e-09
3.96565e-10
-4.30201e-08
-7.42079e-10
-2.08802e-08
-3.54029e-10
-5.98492e-10
-1.96916e-08
-5.99697e-10
-1.72434e-09
-4.0542e-08
-1.28779e-09
-3.12947e-09
-5.39428e-08
-1.78753e-09
-4.65987e-09
-6.31493e-08
-2.21895e-09
-6.18927e-09
-6.96883e-08
-2.66919e-09
-7.586e-09
-7.44033e-08
-3.19055e-09
-8.72573e-09
-7.78094e-08
-3.79141e-09
-9.53426e-09
-8.01725e-08
-4.48735e-09
-9.94008e-09
-8.17946e-08
-5.27233e-09
-9.74304e-09
-8.27752e-08
-6.0915e-09
-8.79939e-09
-8.32022e-08
-7.03382e-09
-7.23099e-09
-8.32187e-08
-8.00916e-09
-5.17888e-09
-8.31625e-08
-8.83442e-09
-2.73455e-09
-8.31769e-08
-9.43559e-09
-3.08972e-11
-8.32996e-08
-9.75964e-09
2.65772e-09
-8.29754e-08
-9.68637e-09
5.16188e-09
-8.30284e-08
-9.37725e-09
7.33134e-09
-8.34469e-08
-8.79332e-09
8.80774e-09
-8.32769e-08
-7.94636e-09
9.70115e-09
-8.30279e-08
-7.01286e-09
9.97214e-09
-8.26415e-08
-6.07353e-09
9.63039e-09
-8.17509e-08
-5.1316e-09
8.78514e-09
-8.01783e-08
-4.31876e-09
7.5869e-09
-7.77948e-08
-3.64268e-09
6.16845e-09
-7.44542e-08
-3.06417e-09
4.66602e-09
-6.98254e-08
-2.54888e-09
3.16476e-09
-6.33012e-08
-2.0978e-09
1.77761e-09
-5.41178e-08
-1.66783e-09
6.35239e-10
-4.07045e-08
-1.17312e-09
-1.96785e-08
-5.66332e-10
-7.99126e-10
-1.80997e-08
-7.93251e-10
-2.2814e-09
-3.73536e-08
-1.70666e-09
-4.13494e-09
-4.97086e-08
-2.38079e-09
-6.15676e-09
-5.81876e-08
-2.93923e-09
-8.18656e-09
-6.41482e-08
-3.50887e-09
-1.00669e-08
-6.83481e-08
-4.17361e-09
-1.16333e-08
-7.12698e-08
-4.97306e-09
-1.26935e-08
-7.31993e-08
-5.91458e-09
-1.31283e-08
-7.43956e-08
-6.9666e-09
-1.28227e-08
-7.50261e-08
-8.05654e-09
-1.16683e-08
-7.52161e-08
-9.14028e-09
-9.60084e-09
-7.5035e-08
-1.02489e-08
-6.8159e-09
-7.46472e-08
-1.12973e-08
-3.56756e-09
-7.4359e-08
-1.20647e-08
-2.40871e-11
-7.43724e-08
-1.24715e-08
3.50933e-09
-7.41422e-08
-1.23691e-08
6.78567e-09
-7.43224e-08
-1.19847e-08
9.60999e-09
-7.49657e-08
-1.13063e-08
1.164e-08
-7.51118e-08
-1.01941e-08
1.28096e-08
-7.51856e-08
-9.0102e-09
1.31501e-08
-7.50203e-08
-7.96048e-09
1.27394e-08
-7.44241e-08
-6.91592e-09
1.16796e-08
-7.32408e-08
-5.87827e-09
1.01297e-08
-7.13047e-08
-4.94101e-09
8.25173e-09
-6.8423e-08
-4.1538e-09
6.23245e-09
-6.43361e-08
-3.47008e-09
4.23255e-09
-5.85025e-08
-2.79859e-09
2.3674e-09
-5.00869e-08
-2.16553e-09
8.36761e-10
-3.76447e-08
-1.52901e-09
-1.80922e-08
-7.49539e-10
-9.55047e-10
-1.62003e-08
-9.44954e-10
-2.71857e-09
-3.35682e-08
-2.02263e-09
-4.94778e-09
-4.46532e-08
-2.82649e-09
-7.4058e-09
-5.22274e-08
-3.50143e-09
-9.85716e-09
-5.75064e-08
-4.1888e-09
-1.20933e-08
-6.11447e-08
-4.96565e-09
-1.39245e-08
-6.35601e-08
-5.87826e-09
-1.51516e-08
-6.50373e-08
-6.93674e-09
-1.56129e-08
-6.58051e-08
-8.13232e-09
-1.51843e-08
-6.60429e-08
-9.41409e-09
-1.38033e-08
-6.5908e-08
-1.06888e-08
-1.14291e-08
-6.55399e-08
-1.18666e-08
-8.1005e-09
-6.50203e-08
-1.29518e-08
-4.20097e-09
-6.44383e-08
-1.38182e-08
-1.59523e-11
-6.42452e-08
-1.43132e-08
4.15208e-09
-6.40806e-08
-1.42328e-08
8.03453e-09
-6.44002e-08
-1.38076e-08
1.13544e-08
-6.52084e-08
-1.30782e-08
1.3758e-08
-6.5591e-08
-1.19232e-08
1.51755e-08
-6.59282e-08
-1.06728e-08
1.5624e-08
-6.60672e-08
-9.39996e-09
1.51744e-08
-6.58406e-08
-8.13373e-09
1.39536e-08
-6.50799e-08
-6.9409e-09
1.2131e-08
-6.36046e-08
-5.87861e-09
9.88703e-09
-6.11999e-08
-4.9797e-09
7.41648e-09
-5.76163e-08
-4.24931e-09
4.96085e-09
-5.24473e-08
-3.59921e-09
2.74468e-09
-4.49527e-08
-2.91777e-09
9.61521e-10
-3.37921e-08
-2.06933e-09
-1.61877e-08
-9.43032e-10
-1.06054e-09
-1.40656e-08
-1.07506e-09
-3.0658e-09
-2.92463e-08
-2.31765e-09
-5.5749e-09
-3.89544e-08
-3.19002e-09
-8.31439e-09
-4.55664e-08
-3.92061e-09
-1.10395e-08
-5.01225e-08
-4.65669e-09
-1.35202e-08
-5.3176e-08
-5.48597e-09
-1.55345e-08
-5.50943e-08
-6.45114e-09
-1.68722e-08
-5.6137e-08
-7.56463e-09
-1.73515e-08
-5.65112e-08
-8.81822e-09
-1.6835e-08
-5.63949e-08
-1.01671e-08
-1.52494e-08
-5.59589e-08
-1.15346e-08
-1.25969e-08
-5.53721e-08
-1.28168e-08
-8.94131e-09
-5.47499e-08
-1.39216e-08
-4.60418e-09
-5.40528e-08
-1.47203e-08
-8.36173e-12
-5.36437e-08
-1.51987e-08
4.59452e-09
-5.35386e-08
-1.51486e-08
8.91169e-09
-5.39795e-08
-1.47414e-08
1.25429e-08
-5.48075e-08
-1.40332e-08
1.52115e-08
-5.53931e-08
-1.28649e-08
1.68164e-08
-5.59806e-08
-1.15499e-08
1.73516e-08
-5.64208e-08
-1.01796e-08
1.68857e-08
-5.65433e-08
-8.83116e-09
1.5556e-08
-5.61747e-08
-7.57641e-09
1.35458e-08
-5.51369e-08
-6.45873e-09
1.10632e-08
-5.32235e-08
-5.49459e-09
8.31818e-09
-5.01839e-08
-4.68756e-09
5.54891e-09
-4.56756e-08
-4.00228e-09
3.03434e-09
-3.91279e-08
-3.31011e-09
1.05276e-09
-2.94141e-08
-2.39651e-09
-1.40561e-08
-1.07889e-09
-1.10909e-09
-1.18019e-08
-1.15592e-09
-3.26491e-09
-2.46004e-08
-2.49136e-09
-5.94521e-09
-3.28835e-08
-3.39106e-09
-8.855e-09
-3.85045e-08
-4.151e-09
-1.17465e-08
-4.23165e-08
-4.91197e-09
-1.43711e-08
-4.47923e-08
-5.75661e-09
-1.64927e-08
-4.62436e-08
-6.72864e-09
-1.78892e-08
-4.68999e-08
-7.84311e-09
-1.83677e-08
-4.695e-08
-9.08687e-09
-1.77856e-08
-4.65643e-08
-1.04157e-08
-1.60714e-08
-4.59065e-08
-1.17664e-08
-1.32282e-08
-4.51489e-08
-1.30624e-08
-9.4018e-09
-4.43919e-08
-1.41792e-08
-4.83436e-09
-4.36829e-08
-1.49345e-08
-1.16132e-12
-4.31831e-08
-1.52952e-08
4.8439e-09
-4.31396e-08
-1.52483e-08
9.38417e-09
-4.36367e-08
-1.48871e-08
1.31883e-08
-4.44251e-08
-1.41877e-08
1.60323e-08
-4.51648e-08
-1.30705e-08
1.7761e-08
-4.5924e-08
-1.17822e-08
1.83608e-08
-4.65856e-08
-1.04328e-08
1.78977e-08
-4.69774e-08
-9.10249e-09
1.6511e-08
-4.6932e-08
-7.85699e-09
1.4391e-08
-4.62799e-08
-6.73847e-09
1.17644e-08
-4.4833e-08
-5.76468e-09
8.86652e-09
-4.2363e-08
-4.9232e-09
5.93791e-09
-3.85657e-08
-4.18101e-09
3.25016e-09
-3.29904e-08
-3.44964e-09
1.11723e-09
-2.47515e-08
-2.52977e-09
-1.17885e-08
-1.15066e-09
-1.14456e-09
-9.48341e-09
-1.17571e-09
-3.34175e-09
-1.98875e-08
-2.51732e-09
-6.07467e-09
-2.67041e-08
-3.44712e-09
-9.04951e-09
-3.13109e-08
-4.21755e-09
-1.20058e-08
-3.43862e-08
-4.97118e-09
-1.46863e-08
-3.63132e-08
-5.79586e-09
-1.68454e-08
-3.73476e-08
-6.73646e-09
-1.82548e-08
-3.76869e-08
-7.80645e-09
-1.8719e-08
-3.74999e-08
-8.99063e-09
-1.80987e-08
-3.69384e-08
-1.02497e-08
-1.63154e-08
-3.61601e-08
-1.15293e-08
-1.33913e-08
-3.53075e-08
-1.27609e-08
-9.54612e-09
-3.44596e-08
-1.37716e-08
-4.97376e-09
-3.3791e-08
-1.44608e-08
-3.24829e-11
-3.3356e-08
-1.47697e-08
4.88168e-09
-3.33089e-08
-1.47496e-08
9.42652e-09
-3.3735e-08
-1.4451e-08
1.3323e-08
-3.45029e-08
-1.38201e-08
1.62739e-08
-3.5323e-08
-1.27905e-08
1.80698e-08
-3.61694e-08
-1.1547e-08
1.87085e-08
-3.69538e-08
-1.02678e-08
1.82592e-08
-3.75205e-08
-9.00717e-09
1.6859e-08
-3.77127e-08
-7.82033e-09
1.47018e-08
-3.73764e-08
-6.74798e-09
1.20188e-08
-3.6345e-08
-5.80592e-09
9.05839e-09
-3.44222e-08
-4.98051e-09
6.07682e-09
-3.13524e-08
-4.23163e-09
3.33121e-09
-2.67623e-08
-3.48247e-09
1.13195e-09
-1.99825e-08
-2.57013e-09
-9.47789e-09
-1.17897e-09
-1.13501e-09
-7.20109e-09
-1.14952e-09
-3.28718e-09
-1.52793e-08
-2.45808e-09
-5.9792e-09
-2.0636e-08
-3.37681e-09
-8.92068e-09
-2.42459e-08
-4.12216e-09
-1.18498e-08
-2.66133e-08
-4.84071e-09
-1.45087e-08
-2.80328e-08
-5.61858e-09
-1.6647e-08
-2.87105e-08
-6.49844e-09
-1.80364e-08
-2.88085e-08
-7.49218e-09
-1.84852e-08
-2.84686e-08
-8.58776e-09
-1.78525e-08
-2.78275e-08
-9.74749e-09
-1.6071e-08
-2.70183e-08
-1.09229e-08
-1.31948e-08
-2.61543e-08
-1.20243e-08
-9.41069e-09
-2.53355e-08
-1.29015e-08
-4.9267e-09
-2.47252e-08
-1.35459e-08
-3.70751e-11
-2.43855e-08
-1.38614e-08
4.81873e-09
-2.43337e-08
-1.38359e-08
9.29798e-09
-2.46815e-08
-1.35376e-08
1.31228e-08
-2.53726e-08
-1.29565e-08
1.60275e-08
-2.61711e-08
-1.20541e-08
1.78205e-08
-2.7023e-08
-1.09352e-08
1.84692e-08
-2.78368e-08
-9.76275e-09
1.80382e-08
-2.84842e-08
-8.6046e-09
1.66578e-08
-2.88265e-08
-7.50708e-09
1.45208e-08
-2.87316e-08
-6.50947e-09
1.18597e-08
-2.80571e-08
-5.6278e-09
8.92771e-09
-2.66408e-08
-4.84968e-09
5.98191e-09
-2.42749e-08
-4.13162e-09
3.28344e-09
-2.06718e-08
-3.39224e-09
1.1202e-09
-1.53308e-08
-2.48892e-09
-7.20603e-09
-1.15213e-09
-1.07232e-09
-5.05513e-09
-1.07629e-09
-3.10733e-09
-1.09422e-08
-2.30461e-09
-5.66818e-09
-1.49096e-08
-3.16661e-09
-8.48495e-09
-1.75706e-08
-3.85738e-09
-1.13056e-08
-1.92742e-08
-4.51545e-09
-1.38767e-08
-2.02369e-08
-5.22204e-09
-1.59485e-08
-2.0618e-08
-6.0205e-09
-1.72972e-08
-2.05445e-08
-6.91895e-09
-1.77329e-08
-2.01327e-08
-7.90595e-09
-1.71201e-08
-1.94921e-08
-8.9525e-09
-1.53932e-08
-1.87269e-08
-1.00177e-08
-1.26405e-08
-1.79303e-08
-1.09709e-08
-9.00676e-09
-1.72181e-08
-1.17436e-08
-4.70909e-09
-1.66923e-08
-1.23259e-08
-3.07143e-11
-1.64216e-08
-1.26432e-08
4.61727e-09
-1.63796e-08
-1.26071e-08
8.91152e-09
-1.6664e-08
-1.23167e-08
1.25726e-08
-1.72401e-08
-1.17949e-08
1.5349e-08
-1.79435e-08
-1.10012e-08
1.70856e-08
-1.87328e-08
-1.00221e-08
1.77155e-08
-1.94978e-08
-8.96536e-09
1.72965e-08
-2.01422e-08
-7.92214e-09
1.59581e-08
-2.05564e-08
-6.93285e-09
1.38874e-08
-2.06317e-08
-6.03094e-09
1.13135e-08
-2.02536e-08
-5.23068e-09
8.48726e-09
-1.92923e-08
-4.52253e-09
5.66787e-09
-1.75905e-08
-3.86496e-09
3.10637e-09
-1.49347e-08
-3.17585e-09
1.06761e-09
-1.09739e-08
-2.31871e-09
-5.06101e-09
-1.07801e-09
-9.56541e-10
-3.14652e-09
-9.55155e-10
-2.79145e-09
-7.05835e-09
-2.05185e-09
-5.13736e-09
-9.75481e-09
-2.81038e-09
-7.74773e-09
-1.15507e-08
-3.40859e-09
-1.03877e-08
-1.26542e-08
-3.97713e-09
-1.28135e-08
-1.32192e-08
-4.58899e-09
-1.47804e-08
-1.33657e-08
-5.28528e-09
-1.60699e-08
-1.3187e-08
-6.07181e-09
-1.65001e-08
-1.27695e-08
-6.93927e-09
-1.59399e-08
-1.21945e-08
-7.86228e-09
-1.43359e-08
-1.15368e-08
-8.79332e-09
-1.17738e-08
-1.08808e-08
-9.60514e-09
-8.38242e-09
-1.03071e-08
-1.02939e-08
-4.37459e-09
-9.88478e-09
-1.081e-08
-2.43887e-11
-9.66806e-09
-1.11043e-08
4.2997e-09
-9.64334e-09
-1.10652e-08
8.2961e-09
-9.86837e-09
-1.0797e-08
1.16989e-08
-1.03137e-08
-1.03306e-08
1.42832e-08
-1.08857e-08
-9.6389e-09
1.59043e-08
-1.15406e-08
-8.80809e-09
1.64819e-08
-1.21976e-08
-7.87371e-09
1.60688e-08
-1.27745e-08
-6.95328e-09
1.47886e-08
-1.31934e-08
-6.08373e-09
1.2822e-08
-1.33737e-08
-5.29327e-09
1.03922e-08
-1.32286e-08
-4.59632e-09
7.74733e-09
-1.26651e-08
-3.98251e-09
5.13618e-09
-1.15652e-08
-3.41407e-09
2.79314e-09
-9.77712e-09
-2.81488e-09
9.56193e-10
-7.0822e-09
-2.0555e-09
-3.15081e-09
-9.5472e-10
-7.83115e-10
-1.58804e-09
-7.78874e-10
-2.33538e-09
-3.83447e-09
-1.675e-09
-4.37804e-09
-5.43703e-09
-2.27696e-09
-6.70404e-09