/*--------------------------------*- C++ -*----------------------------------*\
| =========                 |                                                 |
| \\      /  F ield         | OpenFOAM: The Open Source CFD Toolbox           |
|  \\    /   O peration     | Version:  v1912                                 |
|   \\  /    A nd           | Website:  www.openfoam.com                      |
|    \\/     M anipulation  |                                                 |
\*---------------------------------------------------------------------------*/
FoamFile
{
    version     2.0;
    format      ascii;
    class       volVectorField;
    location    "180/oil";
    object      U;
}
// * * * * * * * * * * * * * * * * * * * * * * * * * * * * * * * * * * * * * //

dimensions      [0 1 -1 0 0 0 0];


internalField   nonuniform List<vector> 
35580
(
(-1.05692e-09 2.13402e-09 -1.07843e-09)
(1.1358e-09 1.92311e-09 -2.60971e-09)
(1.01246e-08 1.8917e-09 -4.20519e-09)
(2.42758e-08 2.36537e-09 -5.81887e-09)
(4.14644e-08 3.12408e-09 -7.11754e-09)
(5.92882e-08 4.01796e-09 -7.99125e-09)
(7.55243e-08 4.96163e-09 -8.43185e-09)
(8.82446e-08 5.91496e-09 -8.4892e-09)
(9.58723e-08 6.85321e-09 -8.23878e-09)
(9.73612e-08 7.75316e-09 -7.74864e-09)
(9.21374e-08 8.56552e-09 -7.08707e-09)
(8.02438e-08 9.25307e-09 -6.42649e-09)
(6.24019e-08 9.79205e-09 -5.81272e-09)
(3.97293e-08 1.02018e-08 -5.37503e-09)
(1.39711e-08 1.04274e-08 -5.14599e-09)
(-1.29142e-08 1.04548e-08 -5.15044e-09)
(-3.8754e-08 1.02195e-08 -5.37444e-09)
(-6.14815e-08 9.80319e-09 -5.799e-09)
(-7.9444e-08 9.2306e-09 -6.38607e-09)
(-9.14599e-08 8.5563e-09 -7.05586e-09)
(-9.6883e-08 7.75744e-09 -7.71064e-09)
(-9.5554e-08 6.84668e-09 -8.22288e-09)
(-8.80277e-08 5.90792e-09 -8.47256e-09)
(-7.54021e-08 4.95711e-09 -8.4233e-09)
(-5.92373e-08 4.01304e-09 -7.98449e-09)
(-4.14717e-08 3.1216e-09 -7.11123e-09)
(-2.43196e-08 2.36255e-09 -5.80921e-09)
(-1.01808e-08 1.88145e-09 -4.18687e-09)
(-1.17485e-09 1.89889e-09 -2.58905e-09)
(1.04167e-09 2.0783e-09 -1.06856e-09)
(5.65267e-10 -2.04687e-09 5.52583e-10)
(1.11063e-08 -1.23204e-08 4.83376e-10)
(3.22866e-08 -2.04928e-08 -2.5499e-10)
(6.17687e-08 -2.49188e-08 -1.22038e-09)
(9.60519e-08 -2.63148e-08 -1.93204e-09)
(1.31025e-07 -2.54424e-08 -2.17632e-09)
(1.62566e-07 -2.29274e-08 -1.90379e-09)
(1.86964e-07 -1.92382e-08 -1.15144e-09)
(2.01143e-07 -1.47713e-08 -8.60607e-12)
(2.0294e-07 -9.89737e-09 1.39351e-09)
(1.91166e-07 -5.0077e-09 3.03376e-09)
(1.65846e-07 -5.2328e-10 4.57215e-09)
(1.28549e-07 3.17719e-09 5.92411e-09)
(8.17263e-08 5.8805e-09 6.89498e-09)
(2.87181e-08 7.31559e-09 7.40775e-09)
(-2.65831e-08 7.34745e-09 7.42485e-09)
(-7.97752e-08 5.85644e-09 6.91999e-09)
(-1.26695e-07 3.10186e-09 5.97948e-09)
(-1.64023e-07 -6.77816e-10 4.6622e-09)
(-1.89444e-07 -5.11112e-09 3.12532e-09)
(-2.01561e-07 -9.9937e-09 1.51259e-09)
(-2.00059e-07 -1.486e-08 7.49066e-11)
(-1.86124e-07 -1.92961e-08 -1.07248e-09)
(-1.61993e-07 -2.29616e-08 -1.841e-09)
(-1.30684e-07 -2.54774e-08 -2.1235e-09)
(-9.59007e-08 -2.63664e-08 -1.88455e-09)
(-6.17544e-08 -2.50033e-08 -1.18177e-09)
(-3.23269e-08 -2.06155e-08 -2.22345e-10)
(-1.11316e-08 -1.24539e-08 5.00059e-10)
(-5.66844e-10 -2.17197e-09 5.3935e-10)
(2.17116e-09 -1.98422e-08 2.16898e-09)
(2.17465e-08 -5.23984e-08 3.83988e-09)
(5.31824e-08 -7.64654e-08 4.19261e-09)
(9.3582e-08 -9.17491e-08 4.14168e-09)
(1.38693e-07 -9.98696e-08 4.22482e-09)
(1.83806e-07 -1.0238e-07 4.68996e-09)
(2.23972e-07 -1.00617e-07 5.62529e-09)
(2.54598e-07 -9.56649e-08 7.02274e-09)
(2.71819e-07 -8.84662e-08 8.79504e-09)
(2.7289e-07 -7.98928e-08 1.07863e-08)
(2.56227e-07 -7.08209e-08 1.29834e-08)
(2.21783e-07 -6.2193e-08 1.50187e-08)
(1.71615e-07 -5.49544e-08 1.674e-08)
(1.08983e-07 -4.97106e-08 1.79849e-08)
(3.8268e-08 -4.69358e-08 1.86464e-08)
(-3.55112e-08 -4.69448e-08 1.86908e-08)
(-1.0652e-07 -4.98412e-08 1.80204e-08)
(-1.69276e-07 -5.52414e-08 1.6793e-08)
(-2.19424e-07 -6.25866e-08 1.50724e-08)
(-2.54071e-07 -7.11551e-08 1.30739e-08)
(-2.71177e-07 -8.01939e-08 1.08994e-08)
(-2.70462e-07 -8.86883e-08 8.87058e-09)
(-2.53555e-07 -9.58154e-08 7.09508e-09)
(-2.23248e-07 -1.0072e-07 5.69168e-09)
(-1.83371e-07 -1.02473e-07 4.74994e-09)
(-1.38492e-07 -9.99895e-08 4.28354e-09)
(-9.35409e-08 -9.19256e-08 4.19141e-09)
(-5.32135e-08 -7.67025e-08 4.22644e-09)
(-2.17858e-08 -5.2629e-08 3.84419e-09)
(-2.1889e-09 -1.99902e-08 2.14601e-09)
(3.46284e-09 -4.90786e-08 3.45462e-09)
(3.06608e-08 -1.14239e-07 6.39999e-09)
(7.06744e-08 -1.60049e-07 7.49942e-09)
(1.19667e-07 -1.90429e-07 8.06122e-09)
(1.72732e-07 -2.08627e-07 8.71571e-09)
(2.24821e-07 -2.17165e-07 9.7063e-09)
(2.70589e-07 -2.18163e-07 1.11293e-08)
(3.05022e-07 -2.13385e-07 1.2986e-08)
(3.23821e-07 -2.0441e-07 1.51961e-08)
(3.23868e-07 -1.92711e-07 1.75988e-08)
(3.03302e-07 -1.79773e-07 2.01386e-08)
(2.62083e-07 -1.67017e-07 2.24959e-08)
(2.02599e-07 -1.56054e-07 2.45053e-08)
(1.28512e-07 -1.47993e-07 2.59241e-08)
(4.50844e-08 -1.43745e-07 2.66672e-08)
(-4.196e-08 -1.43805e-07 2.67237e-08)
(-1.25771e-07 -1.48164e-07 2.59416e-08)
(-1.99931e-07 -1.56339e-07 2.45192e-08)
(-2.59403e-07 -1.67326e-07 2.25237e-08)
(-3.0085e-07 -1.80032e-07 2.02015e-08)
(-3.21843e-07 -1.92945e-07 1.76561e-08)
(-3.22179e-07 -2.04578e-07 1.52305e-08)
(-3.03748e-07 -2.135e-07 1.30237e-08)
(-2.69673e-07 -2.18242e-07 1.11681e-08)
(-2.24231e-07 -2.17251e-07 9.74911e-09)
(-1.72433e-07 -2.08766e-07 8.76497e-09)
(-1.1958e-07 -1.90651e-07 8.09878e-09)
(-7.06881e-08 -1.6033e-07 7.51066e-09)
(-3.07132e-08 -1.14482e-07 6.37918e-09)
(-3.49412e-09 -4.92665e-08 3.4185e-09)
(4.37765e-09 -8.73159e-08 4.36817e-09)
(3.73899e-08 -1.93223e-07 8.16996e-09)
(8.41578e-08 -2.65202e-07 9.74169e-09)
(1.39878e-07 -3.13602e-07 1.06866e-08)
(1.99005e-07 -3.44179e-07 1.16962e-08)
(2.56237e-07 -3.60702e-07 1.3048e-08)
(3.05998e-07 -3.66158e-07 1.48239e-08)
(3.43052e-07 -3.63006e-07 1.70376e-08)
(3.62855e-07 -3.53467e-07 1.96062e-08)
(3.62064e-07 -3.39626e-07 2.23722e-08)
(3.38643e-07 -3.23575e-07 2.52056e-08)
(2.92455e-07 -3.0722e-07 2.78607e-08)
(2.25952e-07 -2.92799e-07 3.01471e-08)
(1.43226e-07 -2.81966e-07 3.17272e-08)
(5.02222e-08 -2.76277e-07 3.2554e-08)
(-4.68161e-08 -2.76365e-07 3.26226e-08)
(-1.40259e-07 -2.82101e-07 3.17502e-08)
(-2.22956e-07 -2.9289e-07 3.01545e-08)
(-2.89491e-07 -3.07289e-07 2.79153e-08)
(-3.35964e-07 -3.23612e-07 2.52696e-08)
(-3.59835e-07 -3.39663e-07 2.24208e-08)
(-3.61055e-07 -3.53495e-07 1.96442e-08)
(-3.41651e-07 -3.63043e-07 1.70791e-08)
(-3.04972e-07 -3.66204e-07 1.48654e-08)
(-2.55547e-07 -3.60786e-07 1.30851e-08)
(-1.98619e-07 -3.44322e-07 1.17325e-08)
(-1.39738e-07 -3.13834e-07 1.07012e-08)
(-8.4159e-08 -2.65466e-07 9.71932e-09)
(-3.74625e-08 -1.93375e-07 8.1053e-09)
(-4.42817e-09 -8.75338e-08 4.3117e-09)
(4.96248e-09 -1.31953e-07 4.97598e-09)
(4.2e-08 -2.8455e-07 9.30774e-09)
(9.36609e-08 -3.86001e-07 1.11458e-08)
(1.54304e-07 -4.54527e-07 1.23143e-08)
(2.17843e-07 -4.99102e-07 1.35435e-08)
(2.78799e-07 -5.25089e-07 1.51378e-08)
(3.31457e-07 -5.36437e-07 1.71831e-08)
(3.70451e-07 -5.36319e-07 1.97032e-08)
(3.91079e-07 -5.27567e-07 2.26064e-08)
(3.89818e-07 -5.12839e-07 2.57397e-08)
(3.64562e-07 -4.948e-07 2.89027e-08)
(3.1499e-07 -4.7588e-07 3.1912e-08)
(2.43331e-07 -4.58703e-07 3.44995e-08)
(1.54198e-07 -4.45496e-07 3.62805e-08)
(5.40326e-08 -4.38534e-07 3.71982e-08)
(-5.04354e-08 -4.3861e-07 3.7263e-08)
(-1.51089e-07 -4.45611e-07 3.62906e-08)
(-2.40109e-07 -4.5861e-07 3.45036e-08)
(-3.11818e-07 -4.7582e-07 3.19969e-08)
(-3.61726e-07 -4.94728e-07 2.89847e-08)
(-3.87466e-07 -5.12776e-07 2.58057e-08)
(-3.89189e-07 -5.27526e-07 2.26642e-08)
(-3.68981e-07 -5.36321e-07 1.97594e-08)
(-3.30379e-07 -5.36477e-07 1.72435e-08)
(-2.78058e-07 -5.2518e-07 1.51848e-08)
(-2.174e-07 -4.99241e-07 1.35812e-08)
(-1.54116e-07 -4.54725e-07 1.23159e-08)
(-9.36501e-08 -3.8619e-07 1.10941e-08)
(-4.21037e-08 -2.84572e-07 9.20321e-09)
(-5.03719e-09 -1.32194e-07 4.90063e-09)
(5.29697e-09 -1.80658e-07 5.31661e-09)
(4.47269e-08 -3.83963e-07 9.9356e-09)
(9.93819e-08 -5.17134e-07 1.19328e-08)
(1.63051e-07 -6.07226e-07 1.32256e-08)
(2.29315e-07 -6.67004e-07 1.45924e-08)
(2.92582e-07 -7.03684e-07 1.6372e-08)
(3.47091e-07 -7.22295e-07 1.86441e-08)
(3.87418e-07 -7.26728e-07 2.14463e-08)
(4.08764e-07 -7.20386e-07 2.46752e-08)
(4.07467e-07 -7.06415e-07 2.81779e-08)
(3.81338e-07 -6.87953e-07 3.17063e-08)
(3.29853e-07 -6.67939e-07 3.50783e-08)
(2.54943e-07 -6.49216e-07 3.80025e-08)
(1.61558e-07 -6.34299e-07 4.00027e-08)
(5.65705e-08 -6.26327e-07 4.09918e-08)
(-5.28409e-08 -6.26361e-07 4.10586e-08)
(-1.58371e-07 -6.34461e-07 3.9994e-08)
(-2.51622e-07 -6.49051e-07 3.80218e-08)
(-3.26579e-07 -6.67879e-07 3.51984e-08)
(-3.78427e-07 -6.87895e-07 3.18201e-08)
(-4.05065e-07 -7.06362e-07 2.82719e-08)
(-4.06844e-07 -7.20366e-07 2.4757e-08)
(-3.85927e-07 -7.26761e-07 2.15194e-08)
(-3.45996e-07 -7.22367e-07 1.87178e-08)
(-2.91823e-07 -7.03791e-07 1.64241e-08)
(-2.28842e-07 -6.67129e-07 1.4633e-08)
(-1.6283e-07 -6.07352e-07 1.32126e-08)
(-9.93522e-08 -5.17155e-07 1.18465e-08)
(-4.48418e-08 -3.83779e-07 9.80492e-09)
(-5.37938e-09 -1.80961e-07 5.23663e-09)
(5.39861e-09 -2.31341e-07 5.44036e-09)
(4.56761e-08 -4.87474e-07 1.01605e-08)
(1.01392e-07 -6.5355e-07 1.22249e-08)
(1.66073e-07 -7.66039e-07 1.3585e-08)
(2.33194e-07 -8.41892e-07 1.50331e-08)
(2.97171e-07 -8.90374e-07 1.69436e-08)
(3.52303e-07 -9.17643e-07 1.94123e-08)
(3.93218e-07 -9.2833e-07 2.24707e-08)
(4.15091e-07 -9.26315e-07 2.60105e-08)
(4.14157e-07 -9.15146e-07 2.9882e-08)
(3.88122e-07 -8.98334e-07 3.38051e-08)
(3.36263e-07 -8.79153e-07 3.75239e-08)
(2.6008e-07 -8.60473e-07 4.08042e-08)
(1.64715e-07 -8.44657e-07 4.30434e-08)
(5.76226e-08 -8.36195e-07 4.41337e-08)
(-5.39468e-08 -8.36376e-07 4.42434e-08)
(-1.61612e-07 -8.45108e-07 4.30535e-08)
(-2.56814e-07 -8.60437e-07 4.08628e-08)
(-3.32988e-07 -8.79204e-07 3.76505e-08)
(-3.85218e-07 -8.98382e-07 3.39133e-08)
(-4.11749e-07 -9.1518e-07 2.99747e-08)
(-4.13165e-07 -9.26374e-07 2.60927e-08)
(-3.91717e-07 -9.28444e-07 2.25427e-08)
(-3.51188e-07 -9.17808e-07 1.94876e-08)
(-2.96381e-07 -8.90551e-07 1.69983e-08)
(-2.32686e-07 -8.42053e-07 1.50577e-08)
(-1.65816e-07 -7.66113e-07 1.35388e-08)
(-1.01341e-07 -6.53382e-07 1.21127e-08)
(-4.57865e-08 -4.87073e-07 1.00288e-08)
(-5.48832e-09 -2.3179e-07 5.37015e-09)
(5.31175e-09 -2.82136e-07 5.35283e-09)
(4.4925e-08 -5.91209e-07 9.98997e-09)
(9.96574e-08 -7.90371e-07 1.20424e-08)
(1.63127e-07 -9.25493e-07 1.34506e-08)
(2.28962e-07 -1.01783e-06 1.49521e-08)
(2.9176e-07 -1.07896e-06 1.69174e-08)
(3.45996e-07 -1.11621e-06 1.95077e-08)
(3.86472e-07 -1.13488e-06 2.27503e-08)
(4.08458e-07 -1.13926e-06 2.65303e-08)
(4.0814e-07 -1.13315e-06 3.07057e-08)
(3.83116e-07 -1.12027e-06 3.49729e-08)
(3.32551e-07 -1.10396e-06 3.89921e-08)
(2.57472e-07 -1.08712e-06 4.25376e-08)
(1.62936e-07 -1.07185e-06 4.50399e-08)
(5.70184e-08 -1.0639e-06 4.63114e-08)
(-5.34339e-08 -1.06411e-06 4.64179e-08)
(-1.59918e-07 -1.07223e-06 4.49991e-08)
(-2.54283e-07 -1.08705e-06 4.25845e-08)
(-3.29306e-07 -1.10408e-06 3.91079e-08)
(-3.80279e-07 -1.12044e-06 3.50733e-08)
(-4.05773e-07 -1.1333e-06 3.08022e-08)
(-4.06576e-07 -1.13942e-06 2.66166e-08)
(-3.85008e-07 -1.13511e-06 2.28227e-08)
(-3.44889e-07 -1.11651e-06 1.95783e-08)
(-2.90959e-07 -1.07925e-06 1.69516e-08)
(-2.28445e-07 -1.01799e-06 1.49141e-08)
(-1.62843e-07 -9.25351e-07 1.33486e-08)
(-9.95657e-08 -7.89833e-07 1.19145e-08)
(-4.49926e-08 -5.90535e-07 9.86338e-09)
(-5.38495e-09 -2.82669e-07 5.28127e-09)
(5.03286e-09 -3.31112e-07 5.02794e-09)
(4.24367e-08 -6.91243e-07 9.38615e-09)
(9.40807e-08 -9.22549e-07 1.1323e-08)
(1.53945e-07 -1.07993e-06 1.27311e-08)
(2.16096e-07 -1.18867e-06 1.42801e-08)
(2.75496e-07 -1.26277e-06 1.62567e-08)
(3.26993e-07 -1.31098e-06 1.88611e-08)
(3.65708e-07 -1.33912e-06 2.21655e-08)
(3.87155e-07 -1.35177e-06 2.60379e-08)
(3.87579e-07 -1.35287e-06 3.03592e-08)
(3.64485e-07 -1.34615e-06 3.48218e-08)
(3.16915e-07 -1.33476e-06 3.90486e-08)
(2.45588e-07 -1.32136e-06 4.26611e-08)
(1.55283e-07 -1.30815e-06 4.53348e-08)
(5.4368e-08 -1.30174e-06 4.68094e-08)
(-5.10718e-08 -1.30193e-06 4.69185e-08)
(-1.52492e-07 -1.30823e-06 4.52905e-08)
(-2.42452e-07 -1.32066e-06 4.26886e-08)
(-3.13688e-07 -1.33442e-06 3.91656e-08)
(-3.61737e-07 -1.34626e-06 3.49155e-08)
(-3.85254e-07 -1.3531e-06 3.04596e-08)
(-3.8533e-07 -1.35205e-06 2.61235e-08)
(-3.64306e-07 -1.33951e-06 2.2233e-08)
(-3.2591e-07 -1.31145e-06 1.89375e-08)
(-2.74684e-07 -1.26315e-06 1.62847e-08)
(-2.15539e-07 -1.18864e-06 1.42438e-08)
(-1.53581e-07 -1.07935e-06 1.27119e-08)
(-9.3873e-08 -9.21582e-07 1.13365e-08)
(-4.24114e-08 -6.90384e-07 9.3987e-09)
(-5.06893e-09 -3.31747e-07 5.02182e-09)
(4.55727e-09 -3.7624e-07 4.48692e-09)
(3.81603e-08 -7.83309e-07 8.41292e-09)
(8.45708e-08 -1.04446e-06 1.01385e-08)
(1.38315e-07 -1.22303e-06 1.14345e-08)
(1.94176e-07 -1.34767e-06 1.29673e-08)
(2.47717e-07 -1.43446e-06 1.49041e-08)
(2.94395e-07 -1.49399e-06 1.74079e-08)
(3.2977e-07 -1.53255e-06 2.0588e-08)
(3.4978e-07 -1.55481e-06 2.43102e-08)
(3.50851e-07 -1.56466e-06 2.85356e-08)
(3.30397e-07 -1.56566e-06 3.29605e-08)
(2.8756e-07 -1.56044e-06 3.71796e-08)
(2.23085e-07 -1.552e-06 4.06692e-08)
(1.4124e-07 -1.54295e-06 4.33627e-08)
(4.95177e-08 -1.53874e-06 4.48973e-08)
(-4.65366e-08 -1.53899e-06 4.50359e-08)
(-1.38684e-07 -1.54294e-06 4.33805e-08)
(-2.20102e-07 -1.55117e-06 4.06129e-08)
(-2.84683e-07 -1.56029e-06 3.71977e-08)
(-3.27985e-07 -1.56592e-06 3.29758e-08)
(-3.48661e-07 -1.56504e-06 2.86255e-08)
(-3.48061e-07 -1.55516e-06 2.44019e-08)
(-3.28487e-07 -1.53306e-06 2.06475e-08)
(-2.93414e-07 -1.49465e-06 1.74962e-08)
(-2.47015e-07 -1.4348e-06 1.49349e-08)
(-1.93685e-07 -1.34702e-06 1.29279e-08)
(-1.37915e-07 -1.22161e-06 1.13873e-08)
(-8.42372e-08 -1.04285e-06 1.00474e-08)
(-3.80225e-08 -7.82096e-07 8.30843e-09)
(-4.51845e-09 -3.768e-07 4.46406e-09)
(3.86079e-09 -4.15521e-07 3.73476e-09)
(3.20379e-08 -8.63041e-07 7.02689e-09)
(7.09602e-08 -1.14984e-06 8.50772e-09)
(1.16231e-07 -1.34739e-06 9.67372e-09)
(1.63304e-07 -1.48693e-06 1.10835e-08)
(2.08443e-07 -1.58591e-06 1.29064e-08)
(2.48044e-07 -1.6564e-06 1.51959e-08)
(2.78322e-07 -1.70555e-06 1.80264e-08)
(2.95828e-07 -1.73786e-06 2.12856e-08)
(2.97275e-07 -1.75682e-06 2.50388e-08)
(2.80213e-07 -1.76546e-06 2.89581e-08)
(2.43944e-07 -1.76697e-06 3.27011e-08)
(1.89342e-07 -1.765e-06 3.59637e-08)
(1.2023e-07 -1.76172e-06 3.85811e-08)
(4.22253e-08 -1.76024e-06 4.00469e-08)
(-3.96414e-08 -1.76037e-06 4.01933e-08)
(-1.18073e-07 -1.76153e-06 3.87666e-08)
(-1.86893e-07 -1.76493e-06 3.62019e-08)
(-2.41661e-07 -1.76885e-06 3.31443e-08)
(-2.78121e-07 -1.76702e-06 2.92357e-08)
(-2.95241e-07 -1.75756e-06 2.52254e-08)
(-2.94261e-07 -1.73818e-06 2.13343e-08)
(-2.77231e-07 -1.70604e-06 1.78577e-08)
(-2.47185e-07 -1.65708e-06 1.49438e-08)
(-2.07767e-07 -1.58591e-06 1.26029e-08)
(-1.62682e-07 -1.48565e-06 1.08199e-08)
(-1.15704e-07 -1.34549e-06 9.50775e-09)
(-7.06574e-08 -1.14814e-06 8.41991e-09)
(-3.19404e-08 -8.61618e-07 6.99773e-09)
(-3.81244e-09 -4.15915e-07 3.7884e-09)
(3.02143e-09 -4.46847e-07 2.72411e-09)
(2.44965e-08 -9.26356e-07 5.09322e-09)
(5.38468e-08 -1.23339e-06 6.23019e-09)
(8.82163e-08 -1.44616e-06 7.13275e-09)
(1.24076e-07 -1.59832e-06 8.16481e-09)
(1.58537e-07 -1.70838e-06 9.58061e-09)
(1.88813e-07 -1.78884e-06 1.14673e-08)
(2.12077e-07 -1.84752e-06 1.3898e-08)
(2.25972e-07 -1.88898e-06 1.66922e-08)
(2.27607e-07 -1.91597e-06 1.97579e-08)
(2.14563e-07 -1.93194e-06 2.2751e-08)
(1.86618e-07 -1.94138e-06 2.57497e-08)
(1.45178e-07 -1.94691e-06 2.86482e-08)
(9.26457e-08 -1.9487e-06 3.08254e-08)
(3.27827e-08 -1.94934e-06 3.1946e-08)
(-3.00579e-08 -1.94881e-06 3.18568e-08)
(-9.04829e-08 -1.94722e-06 3.06445e-08)
(-1.43283e-07 -1.94589e-06 2.8476e-08)
(-1.85178e-07 -1.94356e-06 2.58652e-08)
(-2.12811e-07 -1.93377e-06 2.27565e-08)
(-2.25605e-07 -1.9166e-06 1.96115e-08)
(-2.24549e-07 -1.88896e-06 1.65651e-08)
(-2.11218e-07 -1.84772e-06 1.38185e-08)
(-1.88047e-07 -1.78914e-06 1.14866e-08)
(-1.57947e-07 -1.70804e-06 9.62153e-09)
(-1.23666e-07 -1.59731e-06 8.22489e-09)
(-8.79883e-08 -1.4454e-06 7.22225e-09)
(-5.3728e-08 -1.23335e-06 6.40123e-09)
(-2.4262e-08 -9.2613e-07 5.3163e-09)
(-2.90482e-09 -4.4768e-07 2.85785e-09)
(1.91596e-09 -4.69218e-07 1.77058e-09)
(1.54947e-08 -9.71117e-07 3.27835e-09)
(3.40207e-08 -1.29249e-06 3.91803e-09)
(5.57778e-08 -1.51519e-06 4.38742e-09)
(7.82926e-08 -1.67577e-06 4.99376e-09)
(9.99018e-08 -1.79394e-06 5.9222e-09)
(1.18916e-07 -1.88205e-06 7.19008e-09)
(1.33471e-07 -1.94811e-06 8.84084e-09)
(1.42403e-07 -1.99673e-06 1.07846e-08)
(1.43822e-07 -2.0302e-06 1.28454e-08)
(1.35753e-07 -2.05321e-06 1.48853e-08)
(1.18304e-07 -2.06991e-06 1.70228e-08)
(9.23481e-08 -2.08146e-06 1.90066e-08)
(5.91513e-08 -2.08717e-06 2.04853e-08)
(2.12386e-08 -2.08929e-06 2.11624e-08)
(-1.849e-08 -2.08731e-06 2.08187e-08)
(-5.69465e-08 -2.08292e-06 1.9875e-08)
(-9.0293e-08 -2.07738e-06 1.82628e-08)
(-1.16677e-07 -2.06878e-06 1.62388e-08)
(-1.34383e-07 -2.05197e-06 1.40369e-08)
(-1.42664e-07 -2.0281e-06 1.19666e-08)
(-1.41947e-07 -1.99383e-06 1.01594e-08)
(-1.33396e-07 -1.94633e-06 8.57626e-09)
(-1.18638e-07 -1.88197e-06 7.26123e-09)
(-9.94815e-08 -1.79472e-06 6.19002e-09)
(-7.77382e-08 -1.67668e-06 5.32482e-09)
(-5.52321e-08 -1.51608e-06 4.68738e-09)
(-3.36887e-08 -1.29329e-06 4.1459e-09)
(-1.5206e-08 -9.7133e-07 3.42122e-09)
(-1.83624e-09 -4.69878e-07 1.79868e-09)
(7.07718e-10 -4.80926e-07 5.61163e-10)
(5.44177e-09 -9.94162e-07 1.11771e-09)
(1.1889e-08 -1.32352e-06 1.40406e-09)
(1.96432e-08 -1.55191e-06 1.59307e-09)
(2.76227e-08 -1.71713e-06 1.84204e-09)
(3.53285e-08 -1.83922e-06 2.23146e-09)
(4.23039e-08 -1.93037e-06 2.69388e-09)
(4.7705e-08 -1.99882e-06 3.16192e-09)
(5.09431e-08 -2.05067e-06 3.76523e-09)
(5.14238e-08 -2.08903e-06 4.59056e-09)
(4.85345e-08 -2.1175e-06 5.44981e-09)
(4.2476e-08 -2.1385e-06 6.24509e-09)
(3.32161e-08 -2.15269e-06 6.85926e-09)
(2.14159e-08 -2.16078e-06 7.50752e-09)
(8.12667e-09 -2.16469e-06 7.82024e-09)
(-5.94917e-09 -2.1627e-06 7.57489e-09)
(-2.00812e-08 -2.15722e-06 7.26448e-09)
(-3.18681e-08 -2.1496e-06 6.67455e-09)
(-4.10152e-08 -2.13783e-06 5.83647e-09)
(-4.7244e-08 -2.11693e-06 5.01347e-09)
(-5.01512e-08 -2.08804e-06 4.25843e-09)
(-5.00105e-08 -2.04886e-06 3.5962e-09)
(-4.71411e-08 -1.99749e-06 2.98272e-09)
(-4.20457e-08 -1.93022e-06 2.4904e-09)
(-3.52877e-08 -1.84003e-06 2.13019e-09)
(-2.75132e-08 -1.71831e-06 1.83288e-09)
(-1.94852e-08 -1.55315e-06 1.60658e-09)
(-1.18385e-08 -1.32471e-06 1.4182e-09)
(-5.30576e-09 -9.94962e-07 1.20276e-09)
(-6.09623e-10 -4.81477e-07 6.44148e-10)
(-5.07204e-10 -4.81432e-07 -5.96007e-10)
(-4.69021e-09 -9.95071e-07 -1.08025e-09)
(-1.0532e-08 -1.32494e-06 -1.26834e-09)
(-1.7169e-08 -1.55355e-06 -1.42722e-09)
(-2.41119e-08 -1.71896e-06 -1.63033e-09)
(-3.07947e-08 -1.84135e-06 -1.91747e-09)
(-3.67007e-08 -1.93284e-06 -2.29105e-09)
(-4.13723e-08 -2.00158e-06 -2.75526e-09)
(-4.41131e-08 -2.05344e-06 -3.34159e-09)
(-4.42692e-08 -2.09149e-06 -3.99315e-09)
(-4.15012e-08 -2.11985e-06 -4.8081e-09)
(-3.60225e-08 -2.14084e-06 -5.7089e-09)
(-2.83168e-08 -2.15477e-06 -6.45817e-09)
(-1.84082e-08 -2.16312e-06 -6.74931e-09)
(-6.47281e-09 -2.16695e-06 -6.77271e-09)
(6.30333e-09 -2.16474e-06 -6.67728e-09)
(1.79934e-08 -2.15999e-06 -6.23054e-09)
(2.88192e-08 -2.15258e-06 -5.68755e-09)
(3.711e-08 -2.14024e-06 -5.21502e-09)
(4.21903e-08 -2.1192e-06 -4.46579e-09)
(4.48543e-08 -2.09033e-06 -3.6748e-09)
(4.48206e-08 -2.051e-06 -2.93247e-09)
(4.22955e-08 -1.99946e-06 -2.46634e-09)
(3.7661e-08 -1.93186e-06 -2.17389e-09)
(3.14788e-08 -1.84131e-06 -1.87575e-09)
(2.4609e-08 -1.71932e-06 -1.64111e-09)
(1.74989e-08 -1.55393e-06 -1.44397e-09)
(1.06951e-08 -1.32537e-06 -1.25279e-09)
(4.87723e-09 -9.95475e-07 -9.69307e-10)
(6.30245e-10 -4.81762e-07 -4.8815e-10)
(-1.76369e-09 -4.70541e-07 -1.74232e-09)
(-1.46808e-08 -9.72842e-07 -3.29994e-09)
(-3.25165e-08 -1.2955e-06 -4.01038e-09)
(-5.32255e-08 -1.51885e-06 -4.54362e-09)
(-7.48688e-08 -1.68007e-06 -5.16596e-09)
(-9.57494e-08 -1.79909e-06 -6.00032e-09)
(-1.14063e-07 -1.8878e-06 -7.10077e-09)
(-1.281e-07 -1.95389e-06 -8.53713e-09)
(-1.3633e-07 -2.00268e-06 -1.0325e-08)
(-1.37282e-07 -2.0365e-06 -1.22018e-08)
(-1.29399e-07 -2.06002e-06 -1.4279e-08)
(-1.12613e-07 -2.07703e-06 -1.6475e-08)
(-8.80317e-08 -2.08869e-06 -1.83684e-08)
(-5.65005e-08 -2.09561e-06 -1.95746e-08)
(-1.96885e-08 -2.09832e-06 -2.00391e-08)
(1.89928e-08 -2.0955e-06 -1.97671e-08)
(5.54894e-08 -2.09198e-06 -1.88805e-08)
(8.80632e-08 -2.08696e-06 -1.74479e-08)
(1.13177e-07 -2.07664e-06 -1.58353e-08)
(1.29495e-07 -2.05904e-06 -1.37479e-08)
(1.37746e-07 -2.03478e-06 -1.1761e-08)
(1.37037e-07 -2.00014e-06 -9.83805e-09)
(1.28498e-07 -1.95173e-06 -8.18155e-09)
(1.14303e-07 -1.88629e-06 -6.80152e-09)
(9.59613e-08 -1.79855e-06 -5.67556e-09)
(7.52538e-08 -1.6802e-06 -4.83658e-09)
(5.36219e-08 -1.51924e-06 -4.2002e-09)
(3.28202e-08 -1.29617e-06 -3.7049e-09)
(1.49723e-08 -9.7361e-07 -3.04904e-09)
(1.88943e-09 -4.70787e-07 -1.64991e-09)
(-2.88511e-09 -4.48922e-07 -2.77515e-09)
(-2.38418e-08 -9.28878e-07 -5.18341e-09)
(-5.269e-08 -1.23722e-06 -6.28126e-09)
(-8.62556e-08 -1.4501e-06 -7.0934e-09)
(-1.21218e-07 -1.6028e-06 -8.06809e-09)
(-1.54858e-07 -1.71437e-06 -9.40492e-09)
(-1.8443e-07 -1.79638e-06 -1.11853e-08)
(-2.07206e-07 -1.85599e-06 -1.34927e-08)
(-2.20511e-07 -1.89841e-06 -1.63045e-08)
(-2.21902e-07 -1.92619e-06 -1.92747e-08)
(-2.09204e-07 -1.94277e-06 -2.23313e-08)
(-1.81866e-07 -1.95253e-06 -2.52738e-08)
(-1.41603e-07 -1.95864e-06 -2.79859e-08)
(-9.0579e-08 -1.96191e-06 -3.00225e-08)
(-3.16448e-08 -1.96326e-06 -3.10542e-08)
(3.02543e-08 -1.96105e-06 -3.08046e-08)
(8.92543e-08 -1.95972e-06 -2.96306e-08)
(1.41638e-07 -1.95884e-06 -2.76195e-08)
(1.82255e-07 -1.95311e-06 -2.51448e-08)
(2.09106e-07 -1.94206e-06 -2.21201e-08)
(2.22274e-07 -1.92494e-06 -1.91246e-08)
(2.21359e-07 -1.89776e-06 -1.61797e-08)
(2.0795e-07 -1.85631e-06 -1.35543e-08)
(1.85089e-07 -1.79716e-06 -1.12435e-08)
(1.55333e-07 -1.71573e-06 -9.39045e-09)
(1.21488e-07 -1.60442e-06 -7.99159e-09)
(8.63381e-08 -1.45142e-06 -6.86104e-09)
(5.28386e-08 -1.23844e-06 -5.98828e-09)
(2.41162e-08 -9.30067e-07 -4.90209e-09)
(3.01867e-09 -4.48911e-07 -2.64254e-09)
(-3.84444e-09 -4.17712e-07 -3.66525e-09)
(-3.16981e-08 -8.65562e-07 -6.83804e-09)
(-6.99267e-08 -1.15337e-06 -8.31255e-09)
(-1.14475e-07 -1.35162e-06 -9.42866e-09)
(-1.60902e-07 -1.49266e-06 -1.07305e-08)
(-2.05531e-07 -1.59385e-06 -1.24912e-08)
(-2.44636e-07 -1.66594e-06 -1.4802e-08)
(-2.74514e-07 -1.71593e-06 -1.76624e-08)
(-2.91682e-07 -1.74923e-06 -2.10557e-08)
(-2.93081e-07 -1.76934e-06 -2.47575e-08)
(-2.76256e-07 -1.77897e-06 -2.8673e-08)
(-2.40278e-07 -1.78116e-06 -3.23372e-08)
(-1.86555e-07 -1.78001e-06 -3.55308e-08)
(-1.18652e-07 -1.77847e-06 -3.80944e-08)
(-4.10701e-08 -1.77809e-06 -3.96286e-08)
(3.9991e-08 -1.77673e-06 -3.95035e-08)
(1.17451e-07 -1.77791e-06 -3.80625e-08)
(1.86424e-07 -1.78164e-06 -3.54914e-08)
(2.40329e-07 -1.78212e-06 -3.23065e-08)
(2.75977e-07 -1.77879e-06 -2.8726e-08)
(2.93002e-07 -1.769e-06 -2.48445e-08)
(2.92166e-07 -1.74957e-06 -2.10265e-08)
(2.75153e-07 -1.71669e-06 -1.77598e-08)
(2.45272e-07 -1.66667e-06 -1.49871e-08)
(2.0607e-07 -1.5949e-06 -1.27565e-08)
(1.61359e-07 -1.49456e-06 -1.10135e-08)
(1.14818e-07 -1.35444e-06 -9.57929e-09)
(7.01005e-08 -1.15681e-06 -8.39777e-09)
(3.17241e-08 -8.68447e-07 -6.89889e-09)
(3.83614e-09 -4.17873e-07 -3.67027e-09)
(-4.534e-09 -3.78742e-07 -4.45037e-09)
(-3.78475e-08 -7.86733e-07 -8.31137e-09)
(-8.37112e-08 -1.04876e-06 -1.00524e-08)
(-1.37119e-07 -1.22852e-06 -1.13605e-08)
(-1.92622e-07 -1.35499e-06 -1.28569e-08)
(-2.45805e-07 -1.4438e-06 -1.48415e-08)
(-2.92149e-07 -1.50472e-06 -1.73819e-08)
(-3.27285e-07 -1.54427e-06 -2.05186e-08)
(-3.47122e-07 -1.56759e-06 -2.42696e-08)
(-3.48179e-07 -1.57858e-06 -2.84483e-08)
(-3.27863e-07 -1.58054e-06 -3.28714e-08)
(-2.85183e-07 -1.57621e-06 -3.70477e-08)
(-2.2128e-07 -1.5686e-06 -4.05336e-08)
(-1.40227e-07 -1.56135e-06 -4.323e-08)
(-4.82425e-08 -1.55794e-06 -4.49796e-08)
(4.73305e-08 -1.55694e-06 -4.49517e-08)
(1.38908e-07 -1.56092e-06 -4.34781e-08)
(2.20481e-07 -1.56976e-06 -4.07561e-08)
(2.84584e-07 -1.57695e-06 -3.70718e-08)
(3.27414e-07 -1.58101e-06 -3.29258e-08)
(3.48044e-07 -1.57899e-06 -2.8502e-08)
(3.47437e-07 -1.56819e-06 -2.4246e-08)
(3.27761e-07 -1.54504e-06 -2.05119e-08)
(2.92685e-07 -1.50555e-06 -1.73342e-08)
(2.4629e-07 -1.44484e-06 -1.48023e-08)
(1.93049e-07 -1.35673e-06 -1.29037e-08)
(1.37557e-07 -1.23149e-06 -1.14139e-08)
(8.41057e-08 -1.05261e-06 -1.00741e-08)
(3.80869e-08 -7.89832e-07 -8.31737e-09)
(4.58362e-09 -3.78836e-07 -4.43822e-09)
(-5.05097e-09 -3.33656e-07 -5.03944e-09)
(-4.23333e-08 -6.95288e-07 -9.40631e-09)
(-9.37371e-08 -9.27735e-07 -1.13388e-08)
(-1.53408e-07 -1.08662e-06 -1.27135e-08)
(-2.15326e-07 -1.19708e-06 -1.42313e-08)
(-2.74532e-07 -1.27269e-06 -1.62563e-08)
(-3.2589e-07 -1.32206e-06 -1.89049e-08)
(-3.64535e-07 -1.35121e-06 -2.21962e-08)
(-3.85941e-07 -1.36487e-06 -2.60922e-08)
(-3.86362e-07 -1.367e-06 -3.04117e-08)
(-3.63235e-07 -1.36125e-06 -3.49144e-08)
(-3.15653e-07 -1.351e-06 -3.91998e-08)
(-2.44804e-07 -1.33887e-06 -4.28663e-08)
(-1.54957e-07 -1.32734e-06 -4.55267e-08)
(-5.32701e-08 -1.32083e-06 -4.70931e-08)
(5.20876e-08 -1.31995e-06 -4.69437e-08)
(1.53449e-07 -1.32626e-06 -4.55284e-08)
(2.43603e-07 -1.33867e-06 -4.28718e-08)
(3.14726e-07 -1.351e-06 -3.91237e-08)
(3.62577e-07 -1.36152e-06 -3.49115e-08)
(3.86063e-07 -1.36738e-06 -3.04362e-08)
(3.86048e-07 -1.36543e-06 -2.61028e-08)
(3.64881e-07 -1.35191e-06 -2.22069e-08)
(3.26373e-07 -1.32285e-06 -1.88855e-08)
(2.7505e-07 -1.27359e-06 -1.62363e-08)
(2.15805e-07 -1.19823e-06 -1.42541e-08)
(1.53778e-07 -1.08842e-06 -1.27746e-08)
(9.39307e-08 -9.30272e-07 -1.14025e-08)
(4.23988e-08 -6.97604e-07 -9.44467e-09)
(5.01762e-09 -3.33775e-07 -5.04391e-09)
(-5.35902e-09 -2.84667e-07 -5.35055e-09)
(-4.50239e-08 -5.95337e-07 -9.93418e-09)
(-9.98158e-08 -7.95973e-07 -1.19455e-08)
(-1.63268e-07 -9.32639e-07 -1.33777e-08)
(-2.29032e-07 -1.02639e-06 -1.49444e-08)
(-2.91783e-07 -1.08867e-06 -1.69829e-08)
(-3.46018e-07 -1.12692e-06 -1.96164e-08)
(-3.86543e-07 -1.14652e-06 -2.28679e-08)
(-4.08584e-07 -1.15182e-06 -2.66849e-08)
(-4.08272e-07 -1.14664e-06 -3.08882e-08)
(-3.83096e-07 -1.13463e-06 -3.52113e-08)
(-3.32341e-07 -1.1193e-06 -3.93117e-08)
(-2.57496e-07 -1.10348e-06 -4.28881e-08)
(-1.62964e-07 -1.08958e-06 -4.54096e-08)
(-5.60087e-08 -1.08142e-06 -4.67916e-08)
(5.47042e-08 -1.08096e-06 -4.6684e-08)
(1.61418e-07 -1.08895e-06 -4.54432e-08)
(2.56107e-07 -1.10343e-06 -4.29035e-08)
(3.31239e-07 -1.11945e-06 -3.93045e-08)
(3.82294e-07 -1.13494e-06 -3.52562e-08)
(4.07855e-07 -1.14704e-06 -3.09436e-08)
(4.0856e-07 -1.15235e-06 -2.673e-08)
(3.86786e-07 -1.14717e-06 -2.29045e-08)
(3.46395e-07 -1.12767e-06 -1.96329e-08)
(2.92178e-07 -1.08954e-06 -1.69962e-08)
(2.29379e-07 -1.02741e-06 -1.49845e-08)
(1.63481e-07 -9.33941e-07 -1.35053e-08)
(9.9844e-08 -7.97713e-07 -1.21676e-08)
(4.49824e-08 -5.9718e-07 -1.01374e-08)
(5.28651e-09 -2.84737e-07 -5.40893e-09)
(-5.45968e-09 -2.33738e-07 -5.46688e-09)
(-4.59212e-08 -4.91394e-07 -1.01489e-08)
(-1.01862e-07 -6.59102e-07 -1.21788e-08)
(-1.66702e-07 -7.72946e-07 -1.35966e-08)
(-2.33935e-07 -8.49876e-07 -1.51234e-08)
(-2.98033e-07 -8.99281e-07 -1.70801e-08)
(-3.53289e-07 -9.27391e-07 -1.958e-08)
(-3.94348e-07 -9.3887e-07 -2.26514e-08)
(-4.16357e-07 -9.37635e-07 -2.62354e-08)
(-4.1544e-07 -9.27248e-07 -3.01505e-08)
(-3.89151e-07 -9.11164e-07 -3.41441e-08)
(-3.36928e-07 -8.92684e-07 -3.79626e-08)
(-2.60684e-07 -8.74607e-07 -4.12622e-08)
(-1.65084e-07 -8.59885e-07 -4.35716e-08)
(-5.68486e-08 -8.51422e-07 -4.47802e-08)
(5.53846e-08 -8.51174e-07 -4.47285e-08)
(1.63372e-07 -8.59492e-07 -4.36048e-08)
(2.59217e-07 -8.74669e-07 -4.12304e-08)
(3.35821e-07 -8.92809e-07 -3.793e-08)
(3.88299e-07 -9.11365e-07 -3.41895e-08)
(4.14929e-07 -9.27545e-07 -3.02165e-08)
(4.16238e-07 -9.38055e-07 -2.62938e-08)
(3.94513e-07 -9.39395e-07 -2.26977e-08)
(3.53579e-07 -9.28005e-07 -1.96055e-08)
(2.98317e-07 -8.99985e-07 -1.70976e-08)
(2.34164e-07 -8.50681e-07 -1.51516e-08)
(1.66835e-07 -7.73872e-07 -1.36768e-08)
(1.01889e-07 -6.60232e-07 -1.23441e-08)
(4.58911e-08 -4.92729e-07 -1.03079e-08)
(5.41464e-09 -2.33762e-07 -5.50682e-09)
(-5.38379e-09 -1.82653e-07 -5.33061e-09)
(-4.51045e-08 -3.87447e-07 -9.92184e-09)
(-1.00081e-07 -5.22125e-07 -1.19335e-08)
(-1.64066e-07 -6.13319e-07 -1.33021e-08)
(-2.30594e-07 -6.73949e-07 -1.47378e-08)
(-2.94103e-07 -7.11366e-07 -1.65502e-08)
(-3.48835e-07 -7.3064e-07 -1.88575e-08)
(-3.8939e-07 -7.35694e-07 -2.16796e-08)
(-4.10943e-07 -7.29946e-07 -2.49565e-08)
(-4.09674e-07 -7.16569e-07 -2.85163e-08)
(-3.83215e-07 -6.98664e-07 -3.21474e-08)
(-3.31215e-07 -6.79131e-07 -3.56279e-08)
(-2.56026e-07 -6.60848e-07 -3.85764e-08)
(-1.62216e-07 -6.4673e-07 -4.06371e-08)
(-5.59269e-08 -6.38864e-07 -4.17105e-08)
(5.44939e-08 -6.3854e-07 -4.16714e-08)
(1.60423e-07 -6.46216e-07 -4.06129e-08)
(2.54502e-07 -6.60765e-07 -3.84958e-08)
(3.30041e-07 -6.79127e-07 -3.55504e-08)
(3.82272e-07 -6.98749e-07 -3.2162e-08)
(4.09064e-07 -7.16774e-07 -2.8577e-08)
(4.10741e-07 -7.30267e-07 -2.50127e-08)
(3.89496e-07 -7.361e-07 -2.17222e-08)
(3.49066e-07 -7.31109e-07 -1.88776e-08)
(2.9432e-07 -7.119e-07 -1.6561e-08)
(2.30755e-07 -6.74555e-07 -1.47506e-08)
(1.64161e-07 -6.13999e-07 -1.33349e-08)
(1.00124e-07 -5.22891e-07 -1.20129e-08)
(4.50519e-08 -3.8834e-07 -1.00383e-08)
(5.32761e-09 -1.8278e-07 -5.37201e-09)
(-5.07586e-09 -1.33528e-07 -4.96537e-09)
(-4.24802e-08 -2.87482e-07 -9.28755e-09)
(-9.45474e-08 -3.90194e-07 -1.11786e-08)
(-1.55602e-07 -4.59559e-07 -1.24153e-08)
(-2.19476e-07 -5.04752e-07 -1.37026e-08)
(-2.80741e-07 -5.31273e-07 -1.53246e-08)
(-3.33692e-07 -5.43102e-07 -1.74034e-08)
(-3.72963e-07 -5.43424e-07 -1.99372e-08)
(-3.93843e-07 -5.35079e-07 -2.28775e-08)
(-3.9263e-07 -5.2076e-07 -2.60605e-08)
(-3.67021e-07 -5.03058e-07 -2.93404e-08)
(-3.16882e-07 -4.84472e-07 -3.2448e-08)
(-2.44839e-07 -4.67662e-07 -3.50688e-08)
(-1.55085e-07 -4.54911e-07 -3.69136e-08)
(-5.34935e-08 -4.47987e-07 -3.79066e-08)
(5.21263e-08 -4.47677e-07 -3.78645e-08)