/*--------------------------------*- C++ -*----------------------------------*\
| =========                 |                                                 |
| \\      /  F ield         | OpenFOAM: The Open Source CFD Toolbox           |
|  \\    /   O peration     | Version:  v1912                                 |
|   \\  /    A nd           | Website:  www.openfoam.com                      |
|    \\/     M anipulation  |                                                 |
\*---------------------------------------------------------------------------*/
FoamFile
{
    version     2.0;
    format      ascii;
    class       volScalarField;
    location    "528/oil";
    object      heatTransferCoeff(T);
}
// * * * * * * * * * * * * * * * * * * * * * * * * * * * * * * * * * * * * * //

dimensions      [1 0 -3 -1 0 0 0];


internalField   uniform 0;

boundaryField
{
    maxY
    {
        type            calculated;
        value           uniform 0;
    }
    minX
    {
        type            calculated;
        value           uniform 0;
    }
    maxX
    {
        type            calculated;
        value           uniform 0;
    }
    minY
    {
        type            calculated;
        value           uniform 0;
    }
    minZ
    {
        type            calculated;
        value           uniform 0;
    }
    maxZ
    {
        type            calculated;
        value           uniform 0;
    }
    oil_to_sphere
    {
        type            calculated;
        value           nonuniform List<scalar> 
1536
(
-10.6937
-5.43105
-5.29523
4.2568
4.46971
-5.19159
-0.93225
-2.70834
-2.07799
3.41028
7.28398
2.68291
-1.98702
2.49541
8.49693
-0.369162
-5.1996
-5.54908
-0.0911064
-1.7093
-3.92953
-2.167
-2.53008
-0.312322
-0.822266
-0.566486
-0.811542
0.329749
-4.87056
-2.32683
-6.44754
-5.47163
-5.64845
-0.432897
-0.739107
0.278274
-0.213522
1.33129
0.367219
-0.787702
0.578047
-0.182869
-1.89728
-2.96563
-4.25476
-0.721962
-3.78899
-2.42315
8.07894
-0.532235
-3.43699
-2.14874
-2.3233
-0.313991
-4.7008
-8.2945
-2.47567
-1.71996
-3.83982
-3.36171
-1.76102
-1.93274
-1.65375
-0.172659
-0.680868
-1.53167
-1.6969
-3.5531
-3.51822
-4.68424
-0.146929
4.51147
2.80141
-0.578945
-0.559276
-8.64429
-5.71836
1.30489
-0.380702
-5.36125
-4.00028
-3.21484
4.20098
4.33536
-4.84478
-9.66833
5.5762
-1.25183
-3.36385
-3.34062
-2.05835
0.101742
0.192639
-0.0474568
-0.548413
-2.92322
-3.86928
-4.23444
-6.10436
-3.21967
-4.03402
-0.0730234
-10.7694
-3.47698
3.03185
-0.454954
-0.89157
3.88913
3.9455
-10.8954
-5.66659
-2.67378
-1.89364
-2.53589
4.95566
4.4612
5.99718
-7.32785
-10.1976
-5.95217
-2.30463
-2.53649
0.427158
-3.80888
-6.39329
-2.93445
-2.27629
0.772973
-4.13282
-3.83169
-1.55156
-3.61821
-4.63422
-0.952471
-1.27389
-4.95465
-2.56678
-5.4003
0.676709
-5.25328
-2.13019
-3.76888
-3.82365
-1.97063
-1.36757
-1.85298
-3.03376
-7.04546
-1.23485
-10.9914
-4.4785
-5.17485
-2.47602
-2.7631
-0.595618
-2.91189
-4.93076
-3.65533
-11.8372
-6.01579
-5.65366
-7.28319
2.07401
1.24177
0.0315014
0.113694
-4.64646
-6.84234
-6.11774
-8.27957
0.361056
0.0355795
1.26119
-3.87482
-2.24061
-2.73986
-9.2148
1.89271
3.16394
-9.6758
0.212456
1.15849
1.36656
0.868569
-3.27525
-9.67566
-6.0508
0.605826
2.28683
-5.46081
1.95148
-4.55497
-4.57355
-6.91092
2.74402
9.6527
-6.70683
-7.43719
-0.77413
-0.531126
-2.16625
-0.999842
-5.53605
-6.64292
-4.34012
-3.22696
0.0164539
-7.05071
-6.13621
-2.62281
0.773526
-0.679421
-0.466115
-1.03859
-3.96227
-8.45196
2.37447
2.5818
2.41725
10.3772
-5.16534
-3.90922
-3.17659
-2.11313
-2.33425
-7.05025
-4.51429
-0.554463
-5.19109
3.37766
0.263751
9.42553
-1.95899
-4.80462
-6.73284
-6.1794
-5.20166
-4.10213
-5.94087
2.79511
2.03649
1.47566
-7.56489
1.05173
9.54515
5.79664
-3.95837
-1.66943
-9.27734
-11.6035
-2.62274
4.35783
10.2263
-3.34374
-5.9345
-0.0617992
-0.222458
5.18085
0.132128
-7.03885
-9.86547
-1.63097
-0.20347
-8.04032
-6.06673
-0.63735
2.94721
-1.23945
-8.62138
-7.37223
-4.11397
-4.588
-6.51393
1.37781
-0.433767
-6.78667
-4.57904
-5.26928
-1.89096
-5.19468
-8.30528
-4.27713
-3.84863
-7.74905
-0.0865161
-0.0277536
-0.470478
0.357791
0.0587649
-6.98185
-8.7948
2.85706
-1.12151
-0.840155
-1.03213
0.618953
-2.3311
-1.82897
1.16723
5.11877
0.1919
2.62467
0.640009
-9.68503
-7.87316
-7.76941
-11.0769
1.69956
1.31907
-2.08435
-11.0179
-9.764
0.267973
-1.92386
0.539619
-4.47885
-0.303302
-3.8169
-4.2536
-5.72128
-4.73902
-0.723083
-4.91438
0.244118
-6.54133
-7.21817
-5.38105
-4.94754
1.00728
-8.92727
-8.66458
-4.31252
2.8613
-0.0285047
-0.946265
-4.27284
-3.75672
-4.5486
1.17862
-6.45469
-6.49069
-5.78433
-7.73824
-3.59856
-2.93297
-1.70265
2.05312
-2.94777
-4.36667
2.09447
2.4665
1.53602
-10.427
-6.3319
-7.73287
-3.71837
-2.83627
-6.83411
2.33913
-9.28963
-5.72586
-2.95639
-2.83841
2.68452
-5.64189
-6.21505
0.819236
-2.97148
-1.5905
-0.215744
-4.48719
-6.36727
-1.89191
-0.592562
1.67287
-8.46531
-6.58118
2.51867
-6.8807
-6.13194
-5.16422
-8.45524
-2.89019
-4.76258
3.55468
2.68988
-4.22757
-10.8881
-5.39376
-9.21266
-3.63075
-0.905499
-6.07461
1.5833
0.58219
-3.75207
-6.27164
-4.5647
-3.77923
1.37027
1.31156
-6.80564
-6.41114
-6.59433
-2.75499
0.125495
-3.91528
-4.96014
-6.21892
-3.0624
-1.24684
1.01834
-2.60627
1.84177
3.87546
-0.0174787
0.958887
-2.69527
3.36017
-0.973077
-8.89772
-0.852581
-0.788172
-6.20616
-6.15131
-4.39565
-1.60914
2.14291
-5.34206
-7.80754
-4.12861
-3.11272
-5.55911
-1.9355
-2.4997
-3.62362
4.2579
-4.0025
-6.5062
-7.67637
-6.00992
-4.82152
-4.61711
-3.11626
-1.36413
1.57434
-2.26369
0.996424
2.66793
0.516359
3.89392
-9.84463
-9.12268
-7.259
-10.5416
1.8235
-9.92104
1.2151
0.182189
-5.17099
2.22198
1.38047
-1.03671
-0.878644
-9.30233
-7.82166
-3.64287
-4.00723
-8.37083
-6.83621
-3.06311
-4.91612
0.686556
-6.28706
2.85932
-7.61478
4.30389
-4.65028
-5.30588
-6.00064
-0.692393
1.60559
-1.51198
-6.16787
-1.75842
3.24033
-6.22757
-6.65659
-7.2111
-11.3468
-2.9426
-8.22378
1.74604
1.08637
7.85807
5.7696
-3.05297
-1.03004
-0.34296
0.513711
-10.2957
1.44796
2.3086
3.03586
-0.978426
3.4943
-11.7618
0.759461
0.367465
-2.28738
7.15394
5.27108
-0.0570235
0.0813637
-1.90777
-0.578145
-6.62219
-5.98337
-4.64254
-3.00909
3.73749
-0.313963
-5.77198
1.58416
0.795784
-5.35795
-8.53341
0.723363
7.9375
2.04491
7.30858
-2.18747
-0.710412
0.349833
2.91181
7.15345
-4.48562
-5.23293
-3.79707
-2.07818
-8.65848
-4.65821
-4.30126
-2.84237
1.04549
-0.506653
-6.59662
-4.64552
-1.18259
5.96775
-3.20679
-5.50257
-8.96124
-3.38347
0.0566693
-9.02449
-2.23947
-8.29669
0.733548
-0.742598
1.41718
-0.852339
-3.3081
-8.55778
1.9441
0.373833
1.07187
-0.958424
-11.9406
2.95767
-0.430704
2.38284
-2.27462
-3.28149
-6.6368
-8.68335
3.84574
2.8272
-8.59224
-9.20178
4.75644
-8.22259
-6.90462
-5.37582
-6.70435
-4.28456
-2.59689
-2.89797
-8.4116
-3.02907
-4.39467
-2.58748
-6.24109
-3.39912
-2.19398
-1.83003
2.04189
-5.36898
-2.00934
-6.1472
-4.7873
-4.89265
-4.62343
-3.06614
2.69991
-6.74596
-6.69867
-4.4543
-2.13696
-3.51293
-10.7257
3.62084
0.8231
1.83622
-3.12058
0.732688
-10.7871
-0.858972
-1.39276
-2.39094
7.75923
6.86946
-0.21842
-0.114176
-2.89704
1.41355
0.462121
-3.25549
0.396085
-8.73254
2.17989
-10.4702
-0.673853
-2.98185
9.61436
7.07481
7.92807
0.349185
-5.38877
-0.396926
0.33255
7.23199
-2.69606
-5.61997
-2.79872
-13.1533
0.731303
-6.6092
-4.2512
-5.58986
-7.04998
-6.81579
-5.5146
-2.29255
-1.23643
-2.24351
-5.58392
-1.60961
-3.86763
-3.3002
-3.75768
-6.03161
-4.65033
-5.33799
2.17075
0.968766
9.79869
5.10933
4.00718
12.8681
-0.0301703
-0.590082
-1.624
-2.17325
3.88228
1.94687
-1.16622
-7.40067
-6.77753
-1.06598
3.10975
-1.96409
-5.86493
-4.34236
-2.45547
3.49514
0.733797
-4.53135
-3.49305
-2.35882
-0.198085
-5.02047
-5.09271
-8.45348
-5.17819
-3.15208
-0.585697
0.543448
2.12329
0.168578
-1.64844
-11.074
-3.06045
-9.65039
0.827787
-11.4815
-0.0496873
-1.8082
1.77076
1.26463
-0.637396
2.27937
-1.51381
3.39907
-0.286431
-6.49475
-0.9607
2.57951
-8.79541
-4.85425
-3.96493
-1.99943
-8.18368
-13.9162
5.02493
-4.71621
-3.60044
-4.3763
2.31306
-2.09418
0.571299
-3.68862
-5.15502
-6.8805
1.10409
-4.49489
-2.79476
-5.09642
-4.76789
-4.26899
-1.07085
-1.69155
-0.338993
3.18977
3.75811
1.49033
-8.01966
-0.304899
2.34883
-0.454243
-6.64404
-1.45824
-7.96138
-5.94423
-4.10006
-3.13861
-3.98682
-9.08782
1.47811
-4.63616
-6.90471
-7.48102
-3.03066
0.607762
-1.31415
-3.99887
-7.63079
1.85297
-1.75278
-2.86337
-6.51667
-4.04304
-3.90101
-8.15485
1.75164
0.389926
1.05988
-9.10736
-6.81194
-2.93993
-6.46792
0.325927
-0.270431
-6.44937
-3.84636
-8.49958
1.23484
-5.64163
-6.26341
-3.30043
-3.72911
-5.33744
1.16287
4.04593
-2.54609
-3.88433
-9.23222
-1.88711
0.0686415
-2.24289
-4.0617
-5.55267
-3.1534
0.499442
-1.93255
-6.23245
1.82603
0.460079
-1.94726
-0.213444
-3.5833
-3.11631
-7.36873
-4.33635
-5.99116
-0.420684
-2.27681
-3.57439
-2.11352
-1.31467
-0.571908
-0.510705
1.64307
-4.9515
-3.44014
-3.45601
-4.12057
2.82789
-0.874761
-8.90449
-9.03875
0.483792
-6.58102
-4.03729
-4.92809
-0.420334
-7.53822
-7.19375
1.33832
-1.45482
-0.792265
-0.56924
3.03673
1.92097
-0.794627
-7.05508
-10.6876
0.0460202
-5.28902
-4.93004
-3.93664
-1.61833
-3.61224
-7.32565
-3.36844
1.18169
-0.912801
-0.451691
-0.652068
-4.37788
-4.8585
-4.97545
-5.24162
-5.18591
0.466729
-5.51699
-1.03679
-4.65207
7.15954
-4.13818
-7.87934
-1.29375
5.03261
-2.40267
-1.67694
-9.663
0.973752
-5.5236
-2.19204
4.1289
-8.69491
2.59982
-1.76391
-2.62598
2.89384
-6.58257
-3.67744
-1.6073
-2.87456
-3.63965
-1.76694
-9.96819
2.47966
-0.692727
8.55226
-0.987183
-1.33538
-2.79893
-6.53655
-14.2423
3.36503
-0.736337
-12.5339
2.5657
-5.12166
0.610362
-4.91532
5.49197
0.963581
-12.3572
4.46975
-11.1326
3.61066
-9.38115
4.08453
1.0376
8.02328
2.49147
-11.6206
6.60101
-2.07516
4.5004
-8.1284
-11.6922
6.32389
-1.28496
-0.0835632
1.16413
1.32778
-0.837138
-2.68296
-2.65573
-4.78366
-2.25438
-8.31221
-12.9661
6.44446
-2.57184
-4.15116
-2.68004
-3.29458
-1.9827
-1.28884
-1.96419
-5.82735
-2.08216
-5.93834
-0.617167
-3.42004
-7.87635
-1.26048
-4.58873
-6.6804
-0.600136
-3.41971
-2.20732
-4.71614
-1.78908
-2.99012
-1.39269
-6.42076
-0.944946
-3.91681
3.6802
-8.52476
6.07092
-3.81807
-6.18459
-8.79208
0.849268
-3.197
-2.27438
-3.20391
-2.76898
-2.06779
-5.74208
1.45816
9.81618
-1.20971
4.97106
-6.82903
0.756846
-2.53535
-4.95132
9.14692
-7.48652
1.70511
7.46989
1.15637
-5.16402
-4.83768
-2.73907
6.49527
-2.63909
-3.39841
0.0963919
0.717287
-6.99168
-6.27071
-0.318098
-2.88527
-7.02268
6.37728
-5.69291
0.830746
-4.59584
5.88851
-10.6176
-10.2699
-6.27396
-2.63107
-1.28066
-4.96717
-1.07292
6.57129
1.83847
-5.32908
0.593934
-4.18589
5.06745
-6.69293
-4.54945
11.6779
-2.6681
-3.68238
8.8006
-7.65295
3.80734
-6.91662
-8.59906
-5.62652
7.27413
-2.95526
-1.50072
-2.73089
-3.0628
-4.24588
6.28851
-0.499538
0.458154
0.435466
-6.54005
-2.45008
-3.71103
-4.85266
-4.58475
-1.42816
-3.13503
-1.67922
-3.8767
-7.14219
-0.313213
-1.20578
-0.0442283
-2.98998
-6.13014
-0.246632
-1.08111
-0.671899
-2.523
0.493908
0.118309
-1.03591
-1.39157
-3.04595
-0.86271
-8.50068
-5.73402
4.64236
4.53984
-7.68422
12.8324
-5.45239
-3.36124
0.521169
-1.40003
-7.86361
9.17047
-6.83944
-3.72434
6.88713
-0.727777
0.128816
-2.46204
9.66057
-7.69782
-3.84715
8.98789
-7.31417
-7.36677
5.63957
-8.84266
-6.24745
5.51187
-0.0021328
0.479521
9.0602
-2.65006
-3.18374
1.80395
0.826657
1.29412
11.3701
0.93159
9.57522
12.0006
-6.46524
-0.0469965
-11.6406
-0.276019
6.34675
-7.79622
-1.64691
8.06912
-0.294304
-0.0534791
8.18262
4.52178
-7.34861
14.3661
1.80103
2.76471
12.89
-6.81471
-5.91483
-2.6131
-0.98203
0.0415375
1.75511
10.3928
-2.767
-1.07179
-1.28024
-2.62833
7.44511
-5.17583
-0.332771
-2.06697
0.0996188
-1.90501
-3.01679
2.06418
7.02015
-0.812728
-3.15105
-0.236121
-0.961616
-2.20722
0.846318
-1.17402
7.68384
-0.30824
-3.65464
0.0259447
-1.43805
0.705875
6.86831
-7.82804
-7.63323
-7.27071
-8.81121
5.69102
8.72688
-0.387758
-5.3972
-3.16246
-5.06997
-5.81279
1.78414
2.79255
8.60874
6.36107
0.865495
-2.13399
-1.83359
-1.61935
2.78472
-6.54356
-3.77751
5.41102
1.04591
1.98781
-5.71422
0.744728
10.4509
-2.03188
-2.40927
-6.79087
7.85135
0.0643702
-3.01863
-0.607158
-1.42152
-4.88989
-2.01338
1.64873
-9.34024
12.0886
3.64165
-1.4885
0.803581
-0.851586
-8.75752
-3.93889
-2.43311
3.38829
-7.9262
-0.493805
-3.00115
-5.80265
-6.78834
-6.40642
-6.75546
-8.39402
-9.47453
-8.21233
-8.22956
-2.44977
-6.02818
-0.300054
-1.3976
2.94586
4.16612
11.2207
-8.95949
-8.6487
-7.2481
-1.18788
-3.04488
-2.72522
0.64591
-3.29975
-5.95874
1.49587
-1.66942
-4.66234
0.0309752
-0.407754
-0.170805
-1.12139
0.873689
-0.971799
-0.567962
5.85881
-2.97525
1.42449
-1.63411
8.17323
-8.89666
-1.84626
0.31988
1.05649
5.31128
-2.37006
0.188958
8.98367
3.56395
-1.73474
4.35853
3.13744
-9.70065
-10.2251
-0.609046
-0.656126
-5.28776
-8.68863
9.10354
0.763181
0.883267
-0.882309
-0.844469
-1.24895
-1.96376
2.89495
6.69956
-7.63996
-0.729133
3.85772
2.98633
-0.614581
-2.52237
5.2275
-1.29596
0.686407
-0.298687
-8.77607
3.71589
6.53695
-0.82657
0.0612018
0.899628
6.57668
-6.81144
-0.529085
-0.338958
-0.572485
8.91643
-0.584373
-0.832393
6.35
-0.461411
3.58843
-3.80924
-7.53351
0.674775
-6.03467
-3.60552
0.487239
0.30825
-0.990528
6.5689
-3.47225
-4.13678
-0.112683
7.86819
2.10795
-1.4999
-1.84356
0.587657
7.08159
0.396148
-6.80809
-3.59599
0.30168
-9.55463
3.67325
-5.70827
8.72119
3.94528
-6.10722
8.92183
-6.47183
0.401791
-2.5002
-0.313739
-10.0561
2.56839
-2.62225
-8.80481
-7.87224
4.73562
-7.55187
-8.78451
12.5716
-1.26013
0.0962164
8.43235
-4.05264
0.202756
-0.352842
-0.369694
-2.03819
-1.29324
-0.12287
0.299018
8.73558
-4.05935
-2.4758
-2.21545
-2.98151
-1.18819
0.50656
2.0411
-5.12635
10.1789
1.00791
1.32897
9.7627
-6.22567
-9.2624
-1.6766
-7.23186
-7.88308
0.692801
0.651762
-4.01956
-7.17975
0.883483
-4.61275
3.01483
8.43057
-5.28139
1.43053
-6.7946
-9.50311
-8.63035
7.85439
-5.83055
-2.60242
1.689
-0.0712747
-0.860671
0.157676
7.6588
-7.07162
7.32479
-6.89432
-1.11507
3.01488
3.97566
-1.14659
-4.8187
-8.23311
-2.32051
-11.0631
-5.41199
-6.52995
9.1755
-5.97767
-5.0413
-6.8092
0.733466
1.56237
10.2581
-1.77452
-10.6625
-7.26082
6.80901
2.66924
7.46692
0.73864
-1.98208
3.13416
-13.3998
-0.371566
2.63284
6.56235
-3.52711
1.46098
9.51186
-1.37943
0.267312
0.0964815
-0.0663858
-0.140317
6.4684
3.02015
8.36635
0.231114
-5.34432
-3.84777
-7.53813
-6.78736
0.997325
2.01442
8.80101
0.423051
-4.80454
-8.06191
-5.39129
-5.73732
3.81981
9.87861
2.48092
10.6071
-5.24671
-5.62832
2.00897
-6.40105
-5.11692
-7.583
-3.21669
-2.51411
-2.37045
0.99758
8.97026
2.28617
7.92155
3.36398
-0.072933
0.59271
5.82681
7.92526
-4.54123
-10.7191
-9.54522
-8.63205
-2.24206
-4.38344
-4.18662
-1.74969
-0.0397277
-1.76429
1.70212
-1.08665
-1.13278
7.86519
-5.07322
-0.706616
2.64246
6.01131
0.363569
-2.12885
-2.07289
0.574882
5.96217
-8.30548
-3.474
0.144235
-9.4378
1.51366
8.29344
-3.8133
-1.10168
-1.16623
-1.17127
0.433994
10.2294
-1.07674
-1.02734
7.24636
-7.9328
-0.524488
14.3457
-0.0514454
-1.91401
-2.25657
0.462856
7.68413
1.1982
0.935817
4.16193
-1.40557
8.73962
-1.63553
-1.3365
4.59476
-9.26354
-0.999021
6.35911
-10.3153
-1.80043
-1.79413
6.09443
-1.33921
7.3666
)
;
    }
}


// ************************************************************************* //
