/*--------------------------------*- C++ -*----------------------------------*\
| =========                 |                                                 |
| \\      /  F ield         | OpenFOAM: The Open Source CFD Toolbox           |
|  \\    /   O peration     | Version:  v1906                                 |
|   \\  /    A nd           | Web:      www.OpenFOAM.com                      |
|    \\/     M anipulation  |                                                 |
\*---------------------------------------------------------------------------*/
FoamFile
{
    version     2.0;
    format      ascii;
    class       surfaceScalarField;
    location    "11.2/oil";
    object      phi;
}
// * * * * * * * * * * * * * * * * * * * * * * * * * * * * * * * * * * * * * //

dimensions      [1 0 -1 0 0 0 0];
oriented        oriented;


internalField   nonuniform List<scalar> 
80688
(
-2.87683e-06
-2.92644e-06
-2.87683e-06
-1.30118e-06
-8.14225e-07
-7.61425e-07
-3.58601e-07
-4.7345e-07
-4.69133e-07
-1.84035e-07
-8.68875e-08
-8.76789e-08
-8.55303e-08
-4.90718e-08
-4.94324e-08
-4.13873e-08
-2.21468e-08
-2.19962e-08
-1.99578e-08
-1.09241e-08
-1.05053e-08
-9.19761e-09
-5.65501e-09
-5.10514e-09
-3.65048e-09
-3.08883e-09
-2.45826e-09
-8.31122e-10
-1.75868e-09
-1.06064e-09
4.47747e-10
-1.02169e-09
-2.57146e-10
7.89566e-10
-5.8479e-10
2.42993e-10
5.32648e-10
-3.12911e-10
5.69847e-10
-1.04937e-10
-1.43779e-10
7.81378e-10
-9.59421e-10
-4.73452e-11
9.01843e-10
-1.8966e-09
-6.38946e-12
9.43576e-10
-2.80155e-09
-1.19636e-11
9.16927e-10
-3.57909e-09
-5.56448e-11
8.332e-10
-4.15818e-09
-1.27461e-10
7.0656e-10
-4.4919e-09
-2.19804e-10
5.53533e-10
-4.56026e-09
-3.23139e-10
3.9151e-10
-4.36802e-09
-4.28987e-10
2.36755e-10
-3.94247e-09
-5.29754e-10
1.04216e-10
-3.3299e-09
-6.18337e-10
5.77948e-12
-2.59203e-09
-6.87522e-10
-5.03399e-11
-1.80509e-09
-7.28105e-10
-5.88239e-11
-1.05851e-09
-7.25029e-10
-2.15367e-11
-4.50478e-10
-6.53361e-10
4.5341e-11
-7.78705e-11
-4.72765e-10
1.00174e-10
-1.64111e-10
8.62512e-11
-7.76485e-07
-1.37347e-06
-7.76485e-07
-4.70814e-07
-4.93858e-07
-6.26038e-07
-3.4621e-07
-3.2603e-07
-2.72024e-07
-1.86601e-07
-1.32996e-07
-1.135e-07
-1.00817e-07
-7.36683e-08
-6.11878e-08
-5.46724e-08
-3.81896e-08
-3.01015e-08
-2.88084e-08
-2.17965e-08
-1.49916e-08
-1.42077e-08
-1.31647e-08
-7.09098e-09
-5.93487e-09
-8.5652e-09
-2.79647e-09
-1.42734e-09
-5.96211e-09
-3.0407e-10
7.05247e-10
-4.40903e-09
1.25478e-09
1.25757e-09
-3.43236e-09
2.29527e-09
7.32981e-10
-2.798e-09
3.0097e-09
-5.05888e-10
-2.38892e-09
3.48403e-09
-2.16449e-09
-2.14493e-09
3.7562e-09
-3.98707e-09
-2.03161e-09
3.84782e-09
-5.75137e-09
-2.02553e-09
3.77788e-09
-7.27173e-09
-2.10604e-09
3.57077e-09
-8.40647e-09
-2.25151e-09
3.25879e-09
-9.06417e-09
-2.4396e-09
2.87751e-09
-9.20566e-09
-2.6478e-09
2.46617e-09
-8.84099e-09
-2.85436e-09
2.06071e-09
-8.02429e-09
-3.03912e-09
1.69267e-09
-6.8462e-09
-3.18221e-09
1.3858e-09
-5.42731e-09
-3.26116e-09
1.15476e-09
-3.91114e-09
-3.2457e-09
1.00143e-09
-2.45642e-09
-3.09024e-09
9.10512e-10
-1.22531e-09
-2.7245e-09
8.40043e-10
-3.64919e-10
-2.03771e-09
7.04568e-10
-9.02217e-10
3.73196e-10
-4.86183e-07
-4.01107e-07
-4.86182e-07
-3.33969e-07
-3.64743e-07
-2.8133e-07
-2.37385e-07
-2.4309e-07
-1.79523e-07
-1.44271e-07
-1.30278e-07
-9.58321e-08
-8.6579e-08
-7.86064e-08
-5.27537e-08
-5.0248e-08
-4.70354e-08
-2.74851e-08
-2.78521e-08
-3.02957e-08
-1.38967e-08
-1.41005e-08
-2.06834e-08
-6.23294e-09
-5.81367e-09
-1.51101e-08
-1.74181e-09
-1.11492e-09
-1.17213e-08
1.06045e-09
1.11708e-09
-9.57326e-09
2.93225e-09
1.59339e-09
-8.15681e-09
4.24816e-09
8.1443e-10
-7.20367e-09
5.18465e-09
-8.23239e-10
-6.57135e-09
5.82011e-09
-2.97341e-09
-6.1825e-09
6.18774e-09
-5.32351e-09
-5.98969e-09
6.3082e-09
-7.59492e-09
-5.95805e-09
6.20394e-09
-9.55146e-09
-6.05584e-09
5.90635e-09
-1.10138e-08
-6.24827e-09
5.45911e-09
-1.18651e-08
-6.49981e-09
4.9115e-09
-1.2057e-08
-6.77334e-09
4.31745e-09
-1.16034e-08
-7.03317e-09
3.72522e-09
-1.05751e-08
-7.24494e-09
3.17759e-09
-9.08783e-09
-7.37343e-09
2.70392e-09
-7.29221e-09
-7.37731e-09
2.32054e-09
-5.36303e-09
-7.20067e-09
2.02581e-09
-3.48607e-09
-6.76171e-09
1.79451e-09
-1.84453e-09
-5.93355e-09
1.56752e-09
-6.09257e-10
-4.50793e-09
1.23497e-09
-2.12867e-09
6.17202e-10
-9.74259e-08
-2.06257e-07
-9.74248e-08
-1.37729e-07
-2.05279e-07
-1.19161e-07
-1.24053e-07
-1.59552e-07
-9.72142e-08
-8.90688e-08
-1.04907e-07
-6.03556e-08
-5.95796e-08
-7.191e-08
-3.61856e-08
-3.71056e-08
-4.94165e-08
-2.00929e-08
-2.13466e-08
-3.58003e-08
-1.02543e-08
-1.06942e-08
-2.72138e-08
-4.12195e-09
-3.84657e-09
-2.17836e-08
-1.74205e-10
1.55294e-10
-1.82319e-08
2.50875e-09
1.98505e-09
-1.58382e-08
4.43522e-09
2.14274e-09
-1.41808e-08
5.8663e-09
1.03929e-09
-1.30231e-08
6.92285e-09
-9.55243e-10
-1.22321e-08
7.65533e-09
-3.48766e-09
-1.17312e-08
8.08117e-09
-6.2224e-09
-1.14692e-08
8.21423e-09
-8.85163e-09
-1.14052e-08
8.07639e-09
-1.11109e-08
-1.14998e-08
7.70324e-09
-1.27975e-08
-1.17082e-08
7.14654e-09
-1.37814e-08
-1.19823e-08
6.46646e-09
-1.40097e-08
-1.22723e-08
5.72729e-09
-1.35019e-08
-1.25295e-08
4.98852e-09
-1.234e-08
-1.27063e-08
4.29952e-09
-1.0656e-08
-1.27518e-08
3.69438e-09
-8.61743e-09
-1.26061e-08
3.19021e-09
-6.41388e-09
-1.21869e-08
2.78267e-09
-4.24409e-09
-1.1372e-08
2.44055e-09
-2.30273e-09
-9.96926e-09
2.09437e-09
-7.87111e-10
-7.64224e-09
1.61871e-09
-3.71247e-09
7.96703e-10
-5.27342e-08
-1.00789e-07
-5.27332e-08
-7.31936e-08
-1.21119e-07
-6.37005e-08
-7.00476e-08
-1.08871e-07
-5.38272e-08
-5.46315e-08
-8.37776e-08
-3.65453e-08
-3.87744e-08
-6.46845e-08
-2.30826e-08
-2.49625e-08
-5.0044e-08
-1.31843e-08
-1.42427e-08
-4.00705e-08
-6.44961e-09
-6.43357e-09
-3.31963e-08
-1.8265e-09
-1.17916e-09
-2.84852e-08
1.44722e-09
1.90295e-09
-2.51895e-08
3.87558e-09
3.15311e-09
-2.28391e-08
5.75071e-09
2.88783e-09
-2.11361e-08
7.2206e-09
1.42361e-09
-1.99042e-08
8.34536e-09
-9.11115e-10
-1.90376e-08
9.14018e-09
-3.77268e-09
-1.8472e-08
9.60238e-09
-6.81878e-09
-1.81596e-08
9.73657e-09
-9.72679e-09
-1.80586e-08
9.56141e-09
-1.22152e-08
-1.81262e-08
9.11479e-09
-1.40679e-08
-1.83113e-08
8.45587e-09
-1.51474e-08
-1.85574e-08
7.65452e-09
-1.54004e-08
-1.88055e-08
6.78616e-09
-1.48519e-08
-1.89969e-08
5.91896e-09
-1.35944e-08
-1.9072e-08
5.10825e-09
-1.17712e-08
-1.8968e-08
4.39302e-09
-9.56068e-09
-1.86076e-08
3.79093e-09
-7.16164e-09
-1.78819e-08
3.29594e-09
-4.7799e-09
-1.66266e-08
2.87282e-09
-2.62096e-09
-1.45729e-08
2.44469e-09
-9.06435e-10
-1.12316e-08
1.87483e-09
-5.5376e-09
9.18702e-10
-2.28434e-08
-5.51032e-08
-2.28426e-08
-3.48541e-08
-7.81137e-08
-3.09947e-08
-3.6737e-08
-7.88425e-08
-2.81454e-08
-3.09053e-08
-6.90313e-08
-2.05778e-08
-2.28532e-08
-5.92556e-08
-1.3481e-08
-1.46755e-08
-5.05926e-08
-7.629e-09
-7.6382e-09
-4.39472e-08
-3.16065e-09
-2.1542e-09
-3.89335e-08
2.53159e-10
1.65183e-09
-3.52209e-08
2.92974e-09
3.81614e-09
-3.24536e-08
5.09973e-09
4.45383e-09
-3.03738e-08
6.89709e-09
3.74201e-09
-2.88026e-08
8.37841e-09
1.91698e-09
-2.76271e-08
9.548e-09
-7.33014e-10
-2.67751e-08
1.03875e-08
-3.87931e-09
-2.6199e-08
1.08733e-08
-7.18134e-09
-2.58581e-08
1.10006e-08
-1.03106e-08
-2.57137e-08
1.07844e-08
-1.29748e-08
-2.57246e-08
1.02626e-08
-1.49506e-08
-2.58375e-08
9.50202e-09
-1.60969e-08
-2.59933e-08
8.58225e-09
-1.63626e-08
-2.61294e-08
7.58963e-09
-1.57795e-08
-2.61804e-08
6.60039e-09
-1.44494e-08
-2.60814e-08
5.67927e-09
-1.25246e-08
-2.57597e-08
4.86699e-09
-1.01919e-08
-2.51228e-08
4.18253e-09
-7.65577e-09
-2.40366e-08
3.61855e-09
-5.12793e-09
-2.22915e-08
3.13709e-09
-2.82194e-09
-1.95349e-08
2.65608e-09
-9.78611e-10
-1.51044e-08
2.02949e-09
-7.50981e-09
9.93614e-10
-1.0332e-08
-3.44398e-08
-1.03314e-08
-1.71005e-08
-5.6166e-08
-1.51792e-08
-1.90426e-08
-6.24637e-08
-1.44367e-08
-1.65619e-08
-6.05265e-08
-1.09855e-08
-1.21247e-08
-5.65201e-08
-7.17278e-09
-7.05149e-09
-5.20155e-08
-3.65031e-09
-2.33408e-09
-4.8034e-08
-6.30543e-10
1.51034e-09
-4.47208e-08
1.94291e-09
4.19221e-09
-4.20741e-08
4.17127e-09
5.58567e-09
-3.99795e-08
6.13246e-09
5.68093e-09
-3.83291e-08
7.86002e-09
4.56789e-09
-3.70341e-08
9.34452e-09
2.42757e-09
-3.60325e-08
1.05457e-08
-4.85057e-10
-3.52809e-08
1.14185e-08
-3.85495e-09
-3.47483e-08
1.19192e-08
-7.34814e-09
-3.43995e-08
1.20346e-08
-1.06364e-08
-3.42017e-08
1.17763e-08
-1.34222e-08
-3.41198e-08
1.11809e-08
-1.54788e-08
-3.41041e-08
1.03233e-08
-1.66636e-08
-3.40989e-08
9.29037e-09
-1.69301e-08
-3.40428e-08
8.1799e-09
-1.63169e-08
-3.38725e-08
7.07896e-09
-1.49347e-08
-3.35212e-08
6.05754e-09
-1.29432e-08
-3.29115e-08
5.16031e-09
-1.0535e-08
-3.19384e-08
4.40735e-09
-7.91817e-09
-3.04433e-08
3.78985e-09
-5.3075e-09
-2.81697e-08
3.26754e-09
-2.92185e-09
-2.4676e-08
2.75541e-09
-1.01241e-09
-1.91153e-08
2.10153e-09
-9.55177e-09
1.02956e-09
-4.58519e-09
-2.52697e-08
-4.58491e-09
-7.97393e-09
-4.56248e-08
-7.15235e-09
-9.10536e-09
-5.43449e-08
-6.98728e-09
-7.76469e-09
-5.65427e-08
-5.32441e-09
-5.02341e-09
-5.60773e-08
-3.18398e-09
-1.66237e-09
-5.44137e-08
-9.62807e-10
1.61654e-09
-5.24872e-08
1.17427e-09
4.34542e-09
-5.06461e-08
3.19645e-09
6.2006e-09
-4.90385e-08
5.10929e-09
6.99586e-09
-4.76868e-08
6.91211e-09
6.65927e-09
-4.65715e-08
8.57898e-09
5.2305e-09
-4.56639e-08
1.00586e-08
2.85481e-09
-4.49348e-08
1.1278e-08
-2.35795e-10
-4.43598e-08
1.21695e-08
-3.74077e-09
-4.3917e-08
1.26737e-08
-7.33756e-09
-4.35776e-08
1.27748e-08
-1.0705e-08
-4.33147e-08
1.24804e-08
-1.3545e-08
-4.31023e-08
1.18226e-08
-1.56319e-08
-4.28989e-08
1.08817e-08
-1.68239e-08
-4.26601e-08
9.75313e-09
-1.70796e-08
-4.2332e-08
8.54496e-09
-1.64447e-08
-4.18592e-08
7.35172e-09
-1.50356e-08
-4.11789e-08
6.24872e-09
-1.30181e-08
-4.02137e-08
5.28459e-09
-1.05873e-08
-3.88495e-08
4.4804e-09
-7.95197e-09
-3.6905e-08
3.82642e-09
-5.32577e-09
-3.40764e-08
3.28048e-09
-2.92811e-09
-2.98297e-08
2.75605e-09
-1.01226e-09
-2.31308e-08
2.09961e-09
-1.15946e-08
1.0306e-09
-1.90973e-09
-2.14501e-08
-1.90981e-09
-3.34869e-09
-4.11054e-08
-3.08048e-09
-3.65597e-09
-5.10545e-08
-2.98315e-09
-2.5778e-09
-5.55448e-08
-2.0761e-09
-5.87858e-10
-5.72989e-08
-7.68386e-10
1.85062e-09
-5.75919e-08
7.39696e-10
4.25556e-09
-5.72386e-08
2.34655e-09
6.24374e-09
-5.66406e-08
4.00637e-09
7.5182e-09
-5.6005e-08
5.69207e-09
7.88037e-09
-5.54143e-08
7.36537e-09
7.23837e-09
-5.48966e-08
8.96713e-09
5.60427e-09
-5.44496e-08
1.04198e-08
3.10357e-09
-5.40617e-08
1.16276e-08
-5.05288e-11
-5.37175e-08
1.25118e-08
-3.57177e-09
-5.34003e-08
1.30046e-08
-7.15651e-09
-5.30829e-08
1.30901e-08
-1.04993e-08
-5.27448e-08
1.27729e-08
-1.33092e-08
-5.23702e-08
1.20777e-08
-1.53645e-08
-5.19318e-08
1.10883e-08
-1.65272e-08
-5.13979e-08
9.90058e-09
-1.67608e-08
-5.07281e-08
8.6298e-09
-1.61161e-08
-4.9883e-08
7.37911e-09
-1.47129e-08
-4.88103e-08
6.22833e-09
-1.27198e-08
-4.74348e-08
5.22807e-09
-1.03296e-08
-4.56377e-08
4.39802e-09
-7.74685e-09
-4.32163e-08
3.72847e-09
-5.17955e-09
-3.98226e-08
3.1789e-09
-2.84135e-09
-3.483e-08
2.66213e-09
-9.78952e-10
-2.70197e-08
2.0265e-09
-1.3571e-08
9.9741e-10
-6.46545e-10
-2.01565e-08
-6.47074e-10
-9.9505e-10
-3.97285e-08
-1.02835e-09
-7.22221e-10
-5.04515e-08
-8.75743e-10
3.39963e-10
-5.6316e-08
-2.90946e-10
1.96432e-09
-5.95183e-08
5.95046e-10
3.86598e-09
-6.11936e-08
1.70012e-09
5.71167e-09
-6.2058e-08
2.97364e-09
7.19546e-09
-6.25031e-08
4.37873e-09
8.06445e-09
-6.27511e-08
5.87714e-09
8.13401e-09
-6.29024e-08
7.41856e-09
7.30784e-09
-6.29978e-08
8.92739e-09
5.59086e-09
-6.30445e-08
1.03119e-08
3.09541e-09
-6.30335e-08
1.14673e-08
1.74693e-11
-6.29508e-08
1.23113e-08
-3.3758e-09
-6.27774e-08
1.27704e-08
-6.80865e-09
-6.249e-08
1.284e-08
-1.00024e-08
-6.20735e-08
1.25225e-08
-1.26796e-08
-6.15201e-08
1.18271e-08
-1.46295e-08
-6.08169e-08
1.0835e-08
-1.57207e-08
-5.99485e-08
9.64179e-09
-1.59204e-08
-5.88956e-08
8.3672e-09
-1.52822e-08
-5.7634e-08
7.11279e-09
-1.39268e-08
-5.61276e-08
5.96189e-09
-1.20171e-08
-5.43101e-08
4.9656e-09
-9.73969e-09
-5.20595e-08
4.1444e-09
-7.28869e-09
-4.91565e-08
3.48927e-09
-4.86215e-09
-4.52073e-08
2.95816e-09
-2.6595e-09
-3.95021e-08
2.46946e-09
-9.12386e-10
-3.0648e-08
1.8812e-09
-1.54133e-08
9.29921e-10
-6.67277e-11
-2.00218e-08
-6.79289e-11
1.35551e-10
-3.98889e-08
-4.18955e-11
7.18248e-10
-5.11974e-08
1.63185e-10
1.76269e-09
-5.7955e-08
5.9461e-10
3.14431e-09
-6.21439e-08
1.24401e-09
4.67523e-09
-6.48206e-08
2.09603e-09
6.11653e-09
-6.66306e-08
3.13136e-09
7.23333e-09
-6.79434e-08
4.32345e-09
7.81471e-09
-6.89689e-08
5.63635e-09
7.70057e-09
-6.98039e-08
7.01565e-09
6.80513e-09
-7.04837e-08
8.38135e-09
5.13144e-09
-7.10119e-08
9.6411e-09
2.78139e-09
-7.13719e-08
1.06884e-08
-6.72314e-11
-7.15485e-08
1.14463e-08
-3.17388e-09
-7.15182e-08
1.18474e-08
-6.30056e-09
-7.12644e-08
1.19011e-08
-9.20571e-09
-7.07753e-08
1.16069e-08
-1.16348e-08
-7.00493e-08
1.09583e-08
-1.33968e-08
-6.90841e-08
1.00291e-08
-1.43691e-08
-6.78784e-08
8.90218e-09
-1.45214e-08
-6.64364e-08
7.69326e-09
-1.39092e-08
-6.47503e-08
6.50401e-09
-1.26472e-08
-6.28055e-08
5.41591e-09
-1.08875e-08
-6.05467e-08
4.47695e-09
-8.8023e-09
-5.7852e-08
3.70736e-09
-6.57034e-09
-5.44877e-08
3.0992e-09
-4.36905e-09
-5.00238e-08
2.61526e-09
-2.38024e-09
-4.36709e-08
2.18e-09
-8.12234e-10
-3.38796e-08
1.66356e-09
-1.70535e-08
8.27966e-10
1.62864e-10
-2.03456e-08
1.60891e-10
5.7491e-10
-4.06544e-08
3.53513e-10
1.23748e-09
-5.24279e-08
5.67941e-10
2.17536e-09
-5.97949e-08
9.0203e-10
3.31089e-09
-6.46736e-08
1.39416e-09
4.51311e-09
-6.80797e-08
2.05691e-09
5.6121e-09
-7.06165e-08
2.88697e-09
6.43068e-09
-7.26315e-08
3.86959e-09
6.79877e-09
-7.43097e-08
4.97273e-09
6.58814e-09
-7.57384e-08
6.14514e-09
5.72788e-09
-7.69365e-08
7.31307e-09
4.21835e-09
-7.78929e-08
8.39051e-09
2.15411e-09
-7.85858e-08
9.27819e-09
-3.14909e-10
-7.89913e-08
9.91185e-09
-2.98068e-09
-7.90889e-08
1.02365e-08
-5.65037e-09
-7.88692e-08
1.02745e-08
-8.12708e-09
-7.83242e-08
1.00257e-08
-1.01929e-08
-7.74482e-08
9.46464e-09
-1.16795e-08
-7.62488e-08
8.65141e-09
-1.24784e-08
-7.4738e-08
7.65848e-09
-1.25706e-08
-7.29353e-08
6.5911e-09
-1.20029e-08
-7.08596e-08
5.54162e-09
-1.08796e-08
-6.85118e-08
4.58308e-09
-9.33658e-09
-6.58485e-08
3.75877e-09
-7.52394e-09
-6.27529e-08
3.08819e-09
-5.59493e-09
-5.89798e-08
2.56309e-09
-3.70452e-09
-5.40665e-08
2.15231e-09
-2.00744e-09
-4.71609e-08
1.79297e-09
-6.78896e-10
-3.65827e-08
1.37459e-09
-1.84245e-08
6.92177e-10
2.03176e-10
-2.07491e-08
2.00405e-10
6.03325e-10
-4.1463e-08
4.08417e-10
1.16256e-09
-5.35729e-08
5.85826e-10
1.88518e-09
-6.13464e-08
8.28947e-10
2.71813e-09
-6.6692e-08
1.18551e-09
3.57717e-09
-7.06144e-08
1.67572e-09
4.34533e-09
-7.36864e-08
2.30168e-09
4.89324e-09
-7.62355e-08
3.05611e-09
5.09694e-09
-7.8426e-08
3.91263e-09
4.85685e-09
-8.03272e-08
4.82887e-09
4.11843e-09
-8.19413e-08
5.7433e-09
2.88558e-09
-8.32413e-08
6.58128e-09
1.23366e-09
-8.41958e-08
7.26193e-09
-7.1835e-10
-8.47782e-08
7.73887e-09
-2.8052e-09
-8.49751e-08
7.97302e-09
-4.88293e-09
-8.47861e-08
7.99467e-09
-6.80492e-09
-8.42051e-08
7.80294e-09
-8.39401e-09
-8.32233e-08
7.36428e-09
-9.51934e-09
-8.18459e-08
6.72241e-09
-1.00966e-08
-8.00921e-08
5.93145e-09
-1.01109e-08
-7.80003e-08
5.07923e-09
-9.60398e-09
-7.56066e-08
4.24011e-09
-8.66264e-09
-7.2928e-08
3.47486e-09
-7.3985e-09
-6.99349e-08
2.82225e-09
-5.93125e-09
-6.65161e-08
2.29602e-09
-4.38616e-09
-6.24152e-08
1.89031e-09
-2.88419e-09
-5.71506e-08
1.5821e-09
-1.54757e-09
-4.98196e-08
1.32208e-09
-5.16209e-10
-3.86383e-08
1.0243e-09
-1.94675e-08
5.26744e-10
1.35374e-10
-2.10156e-08
1.31118e-10
3.76691e-10
-4.19605e-08
2.56198e-10
6.98724e-10
-5.4251e-08
3.56075e-10
1.10551e-09
-6.22537e-08
5.00496e-10
1.57407e-09
-6.78838e-08
7.23274e-10
2.05642e-09
-7.21367e-08
1.03989e-09
2.4825e-09
-7.55683e-08
1.45584e-09
2.77064e-09
-7.84876e-08
1.96395e-09
2.84091e-09
-8.1043e-08
2.54679e-09
2.62552e-09
-8.32851e-08
3.17331e-09
2.08621e-09
-8.52012e-08
3.79922e-09
1.22403e-09
-8.67543e-08
4.37521e-09
8.66249e-11
-8.79021e-08
4.84377e-09
-1.24238e-09
-8.86182e-08
5.1691e-09
-2.65111e-09
-8.88901e-08
5.32376e-09
-4.03957e-09
-8.87267e-08
5.32899e-09
-5.3056e-09
-8.81237e-08
5.18462e-09
-6.32971e-09
-8.70653e-08
4.86604e-09
-7.02238e-09
-8.55617e-08
4.4085e-09
-7.32913e-09
-8.36357e-08
3.85042e-09
-7.24564e-09
-8.13377e-08
3.25392e-09
-6.80819e-09
-7.87187e-08
2.6746e-09
-6.0813e-09
-7.58082e-08
2.15333e-09
-5.14486e-09
-7.25856e-08
1.71429e-09
-4.08513e-09
-6.89442e-08
1.36842e-09
-2.98771e-09
-6.46237e-08
1.11111e-09
-1.93669e-09
-5.91266e-08
9.25067e-10
-1.01948e-09
-5.15182e-08
7.81372e-10
-3.29068e-10
-3.9952e-08
6.23232e-10
-2.01334e-08
3.36849e-10
4.389e-12
-2.10193e-08
-7.19092e-13
-7.26296e-12
-4.1928e-08
-2.07925e-11
-1.53557e-11
-5.42165e-08
-2.64085e-11
1.26924e-12
-6.22772e-08
6.85996e-12
4.96311e-11
-6.80226e-08
9.0434e-11
1.20124e-10
-7.24359e-08
2.28739e-10
1.87903e-10
-7.60574e-08
4.21364e-10
2.18059e-10
-7.91802e-08
6.62487e-10
1.74214e-10
-8.19426e-08
9.43468e-10
1.99986e-11
-8.43814e-08
1.2505e-09
-2.68401e-10
-8.64749e-08
1.56211e-09
-6.93024e-10
-8.81803e-08
1.85067e-09
-1.23786e-09
-8.94442e-08
2.08691e-09
-1.86476e-09
-9.02436e-08
2.2523e-09
-2.51828e-09
-9.05645e-08
2.32798e-09
-3.14201e-09
-9.04195e-08
2.31658e-09
-3.68034e-09
-8.98056e-08
2.22022e-09
-4.07161e-09
-8.87071e-08
2.03313e-09
-4.27784e-09
-8.71372e-08
1.78171e-09
-4.28074e-09
-8.51227e-08
1.48991e-09
-4.08794e-09
-8.27235e-08
1.19295e-09
-3.72873e-09
-7.99925e-08
9.14596e-10
-3.2422e-09
-7.69697e-08
6.74986e-10
-2.66949e-09
-7.36433e-08
4.85055e-10
-2.05964e-09
-6.99e-08
3.45951e-10
-1.45474e-09
-6.54852e-08
2.56597e-10
-9.0161e-10
-5.98904e-08
2.10686e-10
-4.42792e-10
-5.21732e-08
1.96182e-10
-1.25817e-10
-4.04577e-08
1.88762e-10
-2.03904e-08
1.31197e-10
-1.60516e-10
-2.06921e-08
-1.66596e-10
-4.76835e-10
-4.12451e-08
-3.66601e-10
-8.72998e-10
-5.33245e-08
-4.95805e-10
-1.29279e-09
-6.12765e-08
-5.80921e-10
-1.69759e-09
-6.69792e-08
-6.38587e-10
-2.05836e-09
-7.13953e-08
-6.7982e-10
-2.35585e-09
-7.50483e-08
-7.11613e-10
-2.57901e-09
-7.82203e-08
-7.3674e-10
-2.724e-09
-8.10408e-08
-7.56834e-10
-2.79316e-09
-8.3541e-08
-7.71155e-10
-2.79463e-09
-8.56973e-08
-7.76088e-10
-2.7434e-09
-8.7464e-08
-7.67571e-10
-2.6556e-09
-8.87859e-08
-7.461e-10
-2.54056e-09
-8.96342e-08
-7.24487e-10
-2.40214e-09
-8.99872e-08
-7.15702e-10
-2.22624e-09
-8.98541e-08
-7.41274e-10
-2.00142e-09
-8.92338e-08
-7.96641e-10
-1.72857e-09
-8.81168e-08
-8.63201e-10
-1.42373e-09
-8.65259e-08
-9.16135e-10
-1.10607e-09
-8.44975e-08
-9.42872e-10
-8.01066e-10
-8.20897e-08
-9.38759e-10
-5.23413e-10
-7.93631e-08
-9.06966e-10
-2.85069e-10
-7.63531e-08
-8.54937e-10
-9.58615e-11
-7.30442e-08
-7.88311e-10
4.53218e-11
-6.93305e-08
-7.10721e-10
1.34637e-10
-6.49504e-08
-6.24083e-10
1.72747e-10
-5.94036e-08
-5.24977e-10
1.54748e-10
-5.17492e-08
-4.05996e-10
8.45315e-11
-4.01294e-08
-2.58059e-10
-2.02249e-08
-8.09748e-11
-3.39328e-10
-2.00068e-08
-3.45966e-10
-9.84483e-10
-3.98592e-08
-7.40729e-10
-1.78805e-09
-5.15212e-08
-9.99795e-10
-2.66076e-09
-5.91992e-08
-1.20449e-09
-3.52665e-09
-6.47123e-08
-1.40096e-09
-4.3211e-09
-6.8984e-08
-1.61682e-09
-4.982e-09
-7.25186e-08
-1.86873e-09
-5.455e-09
-7.55868e-08
-2.16051e-09
-5.69589e-09
-7.83136e-08
-2.48629e-09
-5.67608e-09
-8.07325e-08
-2.82834e-09
-5.38976e-09
-8.28243e-08
-3.15938e-09
-4.85651e-09
-8.45453e-08
-3.45192e-09
-4.1245e-09
-8.58433e-08
-3.67461e-09
-3.25038e-09
-8.66854e-08
-3.8229e-09
-2.29803e-09
-8.70421e-08
-3.89744e-09
-1.30276e-09
-8.69163e-08
-3.93307e-09
-3.044e-10
-8.63067e-08
-3.92541e-09
6.34463e-10
-8.52156e-08
-3.84003e-09
1.44609e-09
-8.36751e-08
-3.66243e-09
2.07345e-09
-8.17273e-08
-3.39761e-09
2.48438e-09
-7.94269e-08
-3.0737e-09
2.67253e-09
-7.68305e-08
-2.72072e-09
2.65429e-09
-7.39658e-08
-2.36909e-09
2.46121e-09
-7.08099e-08
-2.0412e-09
2.1333e-09
-6.72551e-08
-1.7475e-09
1.71163e-09
-6.30414e-08
-1.48726e-09
1.23537e-09
-5.76818e-08
-1.24547e-09
7.45345e-10
-5.02634e-08
-9.95763e-10
2.91949e-10
-3.89795e-08
-6.96556e-10
-1.96434e-08
-2.8948e-10
-5.15931e-10
-1.89674e-08
-5.23463e-10
-1.48474e-09
-3.77802e-08
-1.11014e-09
-2.68807e-09
-4.8821e-08
-1.49678e-09
-3.99812e-09
-5.60756e-08
-1.81354e-09
-5.30815e-09
-6.12647e-08
-2.13761e-09
-6.51433e-09
-6.52638e-08
-2.51396e-09
-7.51829e-09
-6.85502e-08
-2.96443e-09
-8.2254e-09
-7.13816e-08
-3.49805e-09
-8.55547e-09
-7.38805e-08
-4.10296e-09
-8.45232e-09
-7.6085e-08
-4.75067e-09
-7.89328e-09
-7.79879e-08
-5.39542e-09
-6.90319e-09
-7.95542e-08
-5.98114e-09
-5.55313e-09
-8.07434e-08
-6.44989e-09
-3.94466e-09
-8.15186e-08
-6.77524e-09
-2.19983e-09
-8.18504e-08
-6.93653e-09
-4.08816e-10
-8.17285e-08
-6.97875e-09
1.33328e-09
-8.11537e-08
-6.89508e-09
2.90175e-09
-8.01438e-08
-6.64027e-09
4.1835e-09
-7.87337e-08
-6.22308e-09
5.09295e-09
-7.69659e-08
-5.67084e-09
5.59306e-09
-7.48875e-08
-5.03948e-09
5.69002e-09
-7.25417e-08
-4.38582e-09
5.42637e-09
-6.99422e-08
-3.75989e-09
4.87002e-09
-6.7059e-08
-3.19461e-09
4.09818e-09
-6.37777e-08
-2.70553e-09
3.19384e-09
-5.98513e-08
-2.2858e-09
2.23518e-09
-5.48091e-08
-1.91407e-09
1.29971e-09
-4.77827e-08
-1.54516e-09
4.86958e-10
-3.70614e-08
-1.10525e-09
-1.86716e-08
-4.84843e-10
-6.78632e-10
-1.76026e-08
-6.86176e-10
-1.94393e-09
-3.50662e-08
-1.44868e-09
-3.51314e-09
-4.53019e-08
-1.94996e-09
-5.22137e-09
-5.20011e-08
-2.36627e-09
-6.93118e-09
-5.67551e-08
-2.79977e-09
-8.5073e-09
-6.03763e-08
-3.31142e-09
-9.81767e-09
-6.33075e-08
-3.9323e-09
-1.07341e-08
-6.57933e-08
-4.67187e-09
-1.11461e-08
-6.79506e-08
-5.51788e-09
-1.09692e-08
-6.98289e-08
-6.43295e-09
-1.01697e-08
-7.1432e-08
-7.35536e-09
-8.77024e-09
-7.27416e-08
-8.21206e-09
-6.86296e-09
-7.373e-08
-8.92071e-09
-4.58341e-09
-7.437e-08
-9.42817e-09
-2.10442e-09
-7.46384e-08
-9.69101e-09
4.22014e-10
-7.45196e-08
-9.73534e-09
2.8397e-09
-7.4018e-08
-9.55333e-09
4.96854e-09
-7.31553e-08
-9.11734e-09
6.66165e-09
-7.1962e-08
-8.46481e-09
7.81278e-09
-7.0473e-08
-7.64396e-09
8.38275e-09
-6.87208e-08
-6.73663e-09
8.38996e-09
-6.67294e-08
-5.8195e-09
7.9029e-09
-6.44982e-08
-4.95694e-09
7.01995e-09
-6.1986e-08
-4.19001e-09
5.85293e-09
-5.90768e-08
-3.53388e-09
4.51689e-09
-5.55344e-08
-2.98084e-09
3.1267e-09
-5.09197e-08
-2.49921e-09
1.79519e-09
-4.44238e-08
-2.02738e-09
6.60196e-10
-3.44607e-08
-1.46577e-09
-1.73536e-08
-6.57826e-10
-8.18344e-10
-1.59585e-08
-8.25699e-10
-2.33766e-09
-3.18075e-08
-1.73941e-09
-4.21715e-09
-4.10854e-08
-2.33699e-09
-6.26242e-09
-4.71235e-08
-2.83229e-09
-8.30727e-09
-5.13613e-08
-3.34885e-09
-1.01914e-08
-5.45305e-08
-3.96171e-09
-1.17532e-08
-5.70362e-08
-4.70955e-09
-1.28399e-08
-5.91026e-08
-5.60397e-09
-1.33145e-08
-6.08476e-08
-6.62841e-09
-1.30746e-08
-6.23274e-08
-7.74133e-09
-1.20738e-08
-6.35594e-08
-8.87338e-09
-1.03334e-08
-6.45438e-08
-9.9381e-09
-7.95816e-09
-6.52718e-08
-1.08334e-08
-5.11092e-09
-6.57316e-08
-1.14855e-08
-2.00913e-09
-6.59111e-08
-1.18291e-08
1.13931e-09
-6.57981e-08
-1.187e-08
4.12218e-09
-6.53972e-08
-1.16037e-08
6.71742e-09
-6.47298e-08
-1.10207e-08
8.74683e-09
-6.38125e-08
-1.01789e-08
1.00919e-08
-6.26677e-08
-9.15043e-09
1.07149e-08
-6.13073e-08
-8.03648e-09
1.06459e-08
-5.97351e-08
-6.92518e-09
9.97327e-09
-5.79369e-08
-5.88868e-09
8.81837e-09
-5.58594e-08
-4.97165e-09
7.32093e-09
-5.33866e-08
-4.19268e-09
5.62602e-09
-5.02982e-08
-3.54129e-09
3.87432e-09
-4.61899e-08
-2.97804e-09
2.20932e-09
-4.0332e-08
-2.42686e-09
8.0561e-10
-3.12904e-08
-1.76655e-09
-1.57454e-08
-8.02611e-10
-9.28264e-10
-1.4095e-08
-9.35227e-10
-2.64713e-09
-2.81219e-08
-1.9667e-09
-4.77028e-09
-3.63255e-08
-2.63666e-09
-7.07629e-09
-4.16286e-08
-3.18891e-09
-9.37896e-09
-4.52955e-08
-3.76313e-09
-1.14963e-08
-4.79717e-08
-4.44132e-09
-1.32466e-08
-5.00184e-08
-5.26752e-09
-1.44564e-08
-5.16378e-08
-6.25493e-09
-1.49713e-08
-5.29458e-08
-7.38691e-09
-1.46762e-08
-5.40014e-08
-8.62107e-09
-1.3516e-08
-5.48382e-08
-9.88134e-09
-1.15125e-08
-5.54741e-08
-1.10732e-08
-8.77715e-09
-5.59206e-08
-1.20866e-08
-5.49479e-09
-5.61825e-08
-1.28315e-08
-1.91301e-09
-5.62633e-08
-1.32296e-08
1.71377e-09
-5.61587e-08
-1.32662e-08
5.12788e-09
-5.58742e-08
-1.29371e-08
8.07367e-09
-5.5421e-08
-1.22546e-08
1.0356e-08
-5.48034e-08
-1.12914e-08
1.18478e-08
-5.40249e-08
-1.01345e-08
1.25112e-08
-5.30774e-08
-8.89328e-09
1.23854e-08
-5.19457e-08
-7.6637e-09
1.15719e-08
-5.05996e-08
-6.52382e-09
1.02096e-08
-4.89786e-08
-5.51844e-09
8.45917e-09
-4.69706e-08
-4.66559e-09
6.48587e-09
-4.43723e-08
-3.95259e-09
4.45465e-09
-4.08242e-08
-3.33448e-09
2.53144e-09
-3.56807e-08
-2.72805e-09
9.17954e-10
-2.76807e-08
-1.9962e-09
-1.39132e-08
-9.14248e-10
-1.00566e-09
-1.20774e-08
-1.01192e-09
-2.86376e-09
-2.41389e-08
-2.12492e-09
-5.15429e-09
-3.11915e-08
-2.84352e-09
-7.63898e-09
-3.57152e-08
-3.42867e-09
-1.01159e-08
-3.87882e-08
-4.03037e-09
-1.23872e-08
-4.09631e-08
-4.7374e-09
-1.42582e-08
-4.25519e-08
-5.59539e-09
-1.55415e-08
-4.37371e-08
-6.61737e-09
-1.60735e-08
-4.46249e-08
-7.78891e-09
-1.57309e-08
-4.528e-08
-9.06395e-09
-1.44559e-08
-4.5747e-08
-1.03662e-08
-1.22707e-08
-4.60574e-08
-1.16019e-08
-9.29215e-09
-4.62419e-08
-1.26573e-08
-5.71771e-09
-4.63207e-08
-1.34363e-08
-1.81519e-09
-4.63111e-08
-1.38547e-08
2.12965e-09
-4.62174e-08
-1.38861e-08
5.82863e-09
-4.60443e-08
-1.35289e-08
9.00681e-09
-4.57951e-08
-1.28041e-08
1.14569e-08
-4.54611e-08
-1.17923e-08
1.30464e-08
-4.50256e-08
-1.05888e-08
1.37388e-08
-4.44644e-08
-9.30555e-09
1.35779e-08
-4.37473e-08
-8.03741e-09
1.26709e-08
-4.28308e-08
-6.86177e-09
1.11695e-08
-4.16511e-08
-5.82608e-09
9.24601e-09
-4.01012e-08
-4.94595e-09
7.08136e-09
-3.79994e-08
-4.20826e-09
4.85655e-09
-3.50336e-08
-3.56582e-09
2.75393e-09
-3.06484e-08
-2.9296e-09
9.95627e-10
-2.37698e-08
-2.15255e-09
-1.1926e-08
-9.91489e-10
-1.04883e-09
-9.97438e-09
-1.05423e-09
-2.98245e-09
-1.99946e-08
-2.21059e-09
-5.36372e-09
-2.58597e-08
-2.95047e-09
-7.94372e-09
-2.95899e-08
-3.54527e-09
-1.05126e-08
-3.20699e-08
-4.14943e-09
-1.28632e-08
-3.37594e-08
-4.85306e-09
-1.47911e-08
-3.49215e-08
-5.70247e-09
-1.6103e-08
-3.57138e-08
-6.71142e-09
-1.66312e-08
-3.62337e-08
-7.86298e-09
-1.62512e-08
-3.65477e-08
-9.11235e-09
-1.4906e-08
-3.67045e-08
-1.03878e-08
-1.26178e-08
-3.67488e-08
-1.15968e-08
-9.50905e-09
-3.67201e-08
-1.26305e-08
-5.78271e-09
-3.66525e-08
-1.33945e-08
-1.71434e-09
-3.65724e-08
-1.3807e-08
2.39352e-09
-3.64918e-08
-1.38334e-08
6.23604e-09
-3.64149e-08
-1.3472e-08
9.53214e-09
-3.63369e-08
-1.27543e-08
1.20669e-08
-3.62368e-08
-1.1759e-08
1.37086e-08
-3.60882e-08
-1.05791e-08
1.44185e-08
-3.58523e-08
-9.32199e-09
1.42407e-08
-3.54885e-08
-8.081e-09
1.32853e-08
-3.49472e-08
-6.92822e-09
1.17069e-08
-3.41634e-08
-5.90936e-09
9.6864e-09
-3.30387e-08
-5.0419e-09
7.41353e-09
-3.14148e-08
-4.31166e-09
5.07902e-09
-2.90275e-08
-3.67159e-09
2.87635e-09
-2.54162e-08
-3.02958e-09
1.03798e-09
-1.96969e-08
-2.23459e-09
-9.85412e-09
-1.03393e-09
-1.05652e-09
-7.85704e-09
-1.0608e-09
-3.00197e-09
-1.58274e-08
-2.22182e-09
-5.39826e-09
-2.05056e-08
-2.95785e-09
-7.99526e-09
-2.34526e-08
-3.54032e-09
-1.05796e-08
-2.53617e-08
-4.1239e-09
-1.29406e-08
-2.66005e-08
-4.79795e-09
-1.48704e-08
-2.73846e-08
-5.60716e-09
-1.61744e-08
-2.78456e-08
-6.56419e-09
-1.66848e-08
-2.8071e-08
-7.65227e-09
-1.62804e-08
-2.81225e-08
-8.82954e-09
-1.49069e-08
-2.80509e-08
-1.00271e-08
-1.25918e-08
-2.79042e-08
-1.11597e-08
-9.45578e-09
-2.77281e-08
-1.2128e-08
-5.70298e-09
-2.75624e-08
-1.28429e-08
-1.60832e-09
-2.74388e-08
-1.32282e-08
2.5228e-09
-2.73728e-08
-1.32501e-08
6.3831e-09
-2.73676e-08
-1.29075e-08
9.69208e-09
-2.74141e-08
-1.22318e-08
1.22372e-08
-2.74856e-08
-1.12964e-08
1.3886e-08
-2.75473e-08
-1.01897e-08
1.45987e-08
-2.75555e-08
-9.00946e-09
1.4416e-08
-2.74645e-08
-7.8413e-09
1.34476e-08
-2.72246e-08
-6.75416e-09
1.18465e-08
-2.67721e-08
-5.79028e-09
9.79631e-09
-2.60219e-08
-4.96662e-09
7.49048e-09
-2.48393e-08
-4.26973e-09
5.12555e-09
-2.30087e-08
-3.65376e-09
2.89872e-09
-2.01607e-08
-3.02861e-09
1.04439e-09
-1.56001e-08
-2.24242e-09
-7.76851e-09
-1.0412e-09
-1.02652e-09
-5.80059e-09
-1.02991e-09
-2.9191e-09
-1.17815e-08
-2.15328e-09
-5.25547e-09
-1.5311e-08
-2.85813e-09
-7.79541e-09
-1.75061e-08
-3.40651e-09
-1.03271e-08
-1.88813e-08
-3.94865e-09
-1.26399e-08
-1.97165e-08
-4.57123e-09
-1.45268e-08
-2.01808e-08
-5.31681e-09
-1.57939e-08
-2.03825e-08
-6.19606e-09
-1.62798e-08
-2.03923e-08
-7.19275e-09
-1.58682e-08
-2.02664e-08
-8.26769e-09
-1.45097e-08
-2.00514e-08
-9.35794e-09
-1.2235e-08
-1.97934e-08
-1.03855e-08
-9.16333e-09
-1.9538e-08
-1.12618e-08
-5.494e-09
-1.93241e-08
-1.19076e-08
-1.49334e-09
-1.91834e-08
-1.22561e-08
2.54078e-09
-1.91325e-08
-1.22745e-08
6.30856e-09
-1.91737e-08
-1.19617e-08
9.53922e-09
-1.9296e-08
-1.13487e-08
1.20252e-08
-1.94711e-08
-1.05004e-08
1.36371e-08
-1.96634e-08
-9.49584e-09
1.43339e-08
-1.983e-08
-8.42219e-09
1.41527e-08
-1.99267e-08
-7.35667e-09
1.31966e-08
-1.99061e-08
-6.36239e-09
1.16168e-08
-1.97136e-08
-5.47859e-09
9.59344e-09
-1.92771e-08
-4.72145e-09
7.32142e-09
-1.84879e-08
-4.0793e-09
4.99805e-09
-1.71766e-08
-3.50875e-09
2.8196e-09
-1.50602e-08
-2.92212e-09
1.0137e-09
-1.16222e-08
-2.17199e-09
-5.74267e-09
-1.01214e-09
-9.5423e-10
-3.88985e-09
-9.56504e-10
-2.7238e-09
-8.01764e-09
-1.99426e-09
-4.92643e-09
-1.04734e-08
-2.63497e-09
-7.3384e-09
-1.19701e-08
-3.12403e-09
-9.7544e-09
-1.28621e-08
-3.60313e-09
-1.19665e-08
-1.33504e-08
-4.15395e-09
-1.37707e-08
-1.35605e-08
-4.81608e-09
-1.49804e-08
-1.35741e-08
-5.59867e-09
-1.54397e-08
-1.34474e-08
-6.48571e-09
-1.5041e-08
-1.32245e-08
-7.44061e-09
-1.37408e-08
-1.29449e-08
-8.40668e-09
-1.1572e-08
-1.26478e-08
-9.31438e-09
-8.64922e-09
-1.23728e-08
-1.00879e-08
-5.16247e-09
-1.21538e-08
-1.0657e-08
-1.36332e-09
-1.20188e-08
-1.09637e-08
2.466e-09
-1.19826e-08
-1.09792e-08
6.04182e-09
-1.20468e-08
-1.07028e-08
9.10841e-09
-1.22003e-08
-1.01623e-08
1.14691e-08
-1.24182e-08
-9.41353e-09
1.29999e-08
-1.26686e-08
-8.52557e-09
1.36586e-08
-1.29143e-08
-7.57435e-09
1.34771e-08
-1.31165e-08
-6.62873e-09
1.25528e-08
-1.32368e-08
-5.74493e-09
1.10293e-08
-1.32306e-08
-4.9595e-09
9.08234e-09
-1.30421e-08
-4.28804e-09
6.90416e-09
-1.25891e-08
-3.72063e-09
4.68978e-09
-1.17454e-08
-3.2168e-09