/*--------------------------------*- C++ -*----------------------------------*\
| =========                 |                                                 |
| \\      /  F ield         | OpenFOAM: The Open Source CFD Toolbox           |
|  \\    /   O peration     | Version:  v1906                                 |
|   \\  /    A nd           | Web:      www.OpenFOAM.com                      |
|    \\/     M anipulation  |                                                 |
\*---------------------------------------------------------------------------*/
FoamFile
{
    version     2.0;
    format      ascii;
    class       volScalarField;
    location    "99";
    object      omega;
}
// * * * * * * * * * * * * * * * * * * * * * * * * * * * * * * * * * * * * * //

dimensions      [0 0 -1 0 0 0 0];


internalField   nonuniform List<scalar> 
78750
(
352.294
13.54
13.5643
13.5913
13.6203
13.6501
13.6797
13.7082
13.7352
13.7603
13.7833
13.8039
13.8222
13.838
13.8513
13.8619
13.87
13.8755
13.8784
13.8786
13.8761
13.8709
13.8628
13.8516
13.8374
13.82
13.7996
13.7761
13.7499
13.7217
13.6927
13.6655
13.6452
13.6378
355.782
516.958
4.15714
4.24382
4.32305
4.39549
4.46102
4.51946
4.57084
4.61542
4.65352
4.68552
4.71181
4.7327
4.74857
4.75997
4.76729
4.77075
4.77054
4.76684
4.75975
4.74934
4.73563
4.7184
4.69751
4.67273
4.64389
4.61049
4.57168
4.52685
4.47531
4.41601
4.34828
4.27595
4.20819
522.493
516.971
4.21986
4.35185
4.46693
4.5645
4.64546
4.71152
4.7646
4.8064
4.83842
4.86189
4.8779
4.88736
4.8911
4.88988
4.88437
4.87512
4.86269
4.84764
4.83056
4.81196
4.79217
4.77132
4.74935
4.7259
4.70022
4.67121
4.63752
4.59756
4.54947
4.49093
4.42102
4.3458
4.27282
522.934
516.984
4.28268
4.45676
4.60213
4.71659
4.80387
4.86985
4.91928
4.9554
4.98046
4.99611
5.00362
5.00398
4.99799
4.9864
4.96989
4.94917
4.92502
4.89828
4.86988
4.84083
4.81214
4.78467
4.75888
4.73459
4.71085
4.68601
4.65792
4.62413
4.58185
4.52815
4.46278
4.39303
4.32288
523.339
517.003
4.34017
4.54362
4.70574
4.82531
4.91076
4.97206
5.01583
5.04594
5.06479
5.07397
5.07452
5.06718
5.05257
5.0313
5.00407
4.97181
4.93563
4.89685
4.85703
4.81793
4.78144
4.74922
4.72214
4.70007
4.68186
4.66529
4.6473
4.6243
4.59239
4.54807
4.4915
4.42919
4.36193
523.734
517.021
4.3904
4.61763
4.79331
4.91777
5.00354
5.0636
5.10561
5.13358
5.14973
5.15534
5.15115
5.13764
5.11525
5.08462
5.04671
5.00282
4.95457
4.90383
4.85271
4.80366
4.75925
4.72145
4.69107
4.66802
4.65136
4.63906
4.62802
4.6141
4.59253
4.55888
4.51255
4.4579
4.39309
524.085
517.039
4.43362
4.67881
4.86385
4.99111
5.07659
5.13527
5.1754
5.20098
5.21409
5.21575
5.20643
5.18639
5.15605
5.11627
5.06836
5.0141
4.95563
4.89536
4.83607
4.78092
4.73285
4.69323
4.66222
4.6395
4.62428
4.61502
4.60905
4.60239
4.58986
4.56613
4.52934
4.48143
4.41879
524.425
517.055
4.47196
4.73348
4.92809
5.05952
5.1463
5.20509
5.24468
5.26911
5.28029
5.279
5.26546
5.23984
5.20264
5.15497
5.09854
5.03551
4.96844
4.90018
4.83407
4.77392
4.72262
4.68077
4.64801
4.62389
4.60786
4.59893
4.59516
4.59314
4.58765
4.57252
4.54413
4.50224
4.4421
524.733
517.07
4.50489
4.77989
4.98225
5.11708
5.20498
5.26387
5.30291
5.32614
5.33532
5.33104
5.31337
5.28247
5.23901
5.18436
5.12059
5.05026
4.97631
4.90209
4.83164
4.7694
4.7175
4.67546
4.64244
4.61777
4.60099
4.59158
4.58841
4.58888
4.58819
4.57964
4.55808
4.52143
4.46425
525.024
517.084
4.53848
4.82707
5.03733
5.17574
5.26496
5.32408
5.36268
5.38482
5.39214
5.38506
5.36353
5.32772
5.27844
5.21733
5.14674
5.06958
4.98919
4.90942
4.835
4.77099
4.71865
4.67671
4.64382
4.61899
4.6017
4.59164
4.58826
4.5898
4.59209
4.58835
4.57221
4.54013
4.48616
525.293
517.098
4.56751
4.86743
5.08435
5.22594
5.31647
5.37598
5.41433
5.43557
5.44121
5.43154
5.40645
5.36613
5.31158
5.24464
5.16796
5.08477
4.9988
4.91443
4.8372
4.77265
4.72096
4.68016
4.6484
4.62438
4.60739
4.59722
4.59368
4.59566
4.59969
4.59919
4.5871
4.5588
4.5079
525.547
517.113
4.59939
4.91115
5.13456
5.27889
5.37036
5.42997
5.46783
5.48798
5.49182
5.47949
5.45082
5.40608
5.34636
5.27375
5.19111
5.10199
5.01048
4.92146
4.84125
4.77591
4.72478
4.68527
4.65502
4.63234
4.61629
4.6066
4.60323
4.60551
4.61056
4.61219
4.60305
4.5778
4.52958
525.786
517.127
4.62736
4.94898
5.17793
5.3248
5.41734
5.4773
5.51497
5.53432
5.53664
5.52198
5.49013
5.4414
5.37704
5.29928
5.21123
5.11669
5.02014
4.92693
4.84415
4.77836
4.72816
4.69035
4.66213
4.64138
4.62695
4.61842
4.61578
4.61856
4.6243
4.62728
4.62017
4.59721
4.55107
526.013
517.143
4.65787
4.98976
5.22404
5.37303
5.46629
5.52634
5.56361
5.58202
5.58273
5.56571
5.53071
5.47812
5.40929
5.3266
5.2333
5.13344
5.03182
4.93423
4.84847
4.78172
4.73207
4.69581
4.66963
4.65107
4.63864
4.63176
4.63032
4.6339
4.64029
4.64416
4.63841
4.61708
4.5724
526.229
517.158
4.68535
5.02595
5.26486
5.41585
5.50996
5.57034
5.60748
5.62522
5.62462
5.60555
5.5678
5.51178
5.43896
5.35183
5.25378
5.14905
5.04269
4.94094
4.85225
4.78454
4.73546
4.70082
4.67686
4.66076
4.65075
4.64601
4.64626
4.651
4.65811
4.66258
4.65765
4.63734
4.59347
526.436
517.174
4.71444
5.06398
5.30737
5.4601
5.55487
5.61544
5.65235
5.66937
5.66745
5.64642
5.60604
5.54682
5.47028
5.37899
5.27644
5.16697
5.05585
4.94969
4.85746
4.78803
4.73894
4.70557
4.68371
4.67016
4.66282
4.66059
4.66297
4.66925
4.67727
4.68223
4.67775
4.65798
4.6143
526.636
517.19
4.74135
5.0987
5.34609
5.50049
5.59605
5.65699
5.69387
5.71037
5.70736
5.68462
5.64195
5.5799
5.50009
5.40512
5.29853
5.18473
5.06916
4.95875
4.86288
4.79142
4.74203
4.70974
4.68995
4.67904
4.67459
4.6752
4.68009
4.68827
4.6974
4.70281
4.69851
4.67884
4.63482
526.828
517.207
4.76912
5.13434
5.38563
5.5416
5.63786
5.69912
5.73595
5.75193
5.74787
5.72353
5.67874
5.61413
5.53135
5.43304
5.32272
5.20479
5.08484
4.96996
4.86994
4.79568
4.74529
4.71359
4.69559
4.68727
4.68583
4.68954
4.69727
4.70769
4.7182
4.72411
4.71983
4.69991
4.65504
527.013
517.223
4.79536
5.1677
5.42259
5.58012
5.6772
5.73893
5.77582
5.7914
5.78643
5.76067
5.71403
5.64718
5.56184
5.46063
5.34703
5.22544
5.10145
4.98228
4.878
4.80048
4.7486
4.71708
4.70061
4.6948
4.69645
4.70346
4.71431
4.72726
4.73936
4.74586
4.74147
4.72104
4.67489
527.192
517.239
4.82189
5.20131
5.45979
5.6189
5.71684
5.77903
5.81595
5.8311
5.82523
5.79815
5.74983
5.68102
5.59344
5.48969
5.37317
5.24822
5.12037
4.99686
4.88798
4.80645
4.75237
4.72041
4.70508
4.70158
4.70633
4.7168
4.73104
4.74679
4.76072
4.76791
4.76337
4.74216
4.69432
527.365
517.256
4.84729
5.23327
5.49524
5.65609
5.7551
5.81782
5.85476
5.86946
5.86274
5.83446
5.78467
5.71419
5.62475
5.51889
5.39993
5.27208
5.14075
5.01313
4.8996
4.81358
4.75667
4.72372
4.70907
4.70765
4.71544
4.72948
4.74728
4.76608
4.78201
4.78998
4.78524
4.76312
4.71328
527.531
517.272
4.87255
5.26498
5.53051
5.69335
5.79374
5.85698
5.89366
5.90773
5.90011
5.87072
5.81966
5.74779
5.65682
5.54923
5.42821
5.29783
5.1633
5.0317
4.91338
4.82224
4.76181
4.7272
4.71273
4.71306
4.72377
4.7414
4.76294
4.78503
4.80324
4.81217
4.80728
4.78404
4.73183
527.691
517.289
4.89688
5.29532
5.56434
5.72955
5.83132
5.8952
5.93168
5.94496
5.93646
5.9061
5.854
5.78104
5.68891
5.58
5.45739
5.32493
5.18763
5.0523
4.92921
4.83253
4.76797
4.73104
4.71618
4.71788
4.73132
4.75253
4.77789
4.80339
4.82399
4.8339
4.82878
4.80449
4.7498
527.844
517.305
4.92081
5.325
5.59732
5.76476
5.8677
5.93229
5.96896
5.98158
5.97231
5.94112
5.88818
5.81439
5.72142
5.61158
5.48779
5.35368
5.21397
5.0752
4.94738
4.84477
4.77546
4.73552
4.71964
4.72223
4.73815
4.76286
4.79211
4.82118
4.84441
4.85561
4.85066
4.82484
4.76732
527.991
517.322
4.94404
5.35371
5.62935
5.79873
5.9028
5.96815
6.00517
6.01759
6.00744
5.97548
5.92188
5.84753
5.75404
5.64365
5.51912
5.38384
5.2422
5.10034
4.96797
4.85922
4.7846
4.74096
4.72339
4.72634
4.74437
4.77243
4.80556
4.83828
4.86424
4.87687
4.87243
4.84489
4.78432
528.132
517.338
4.96663
5.38155
5.66065
5.83151
5.93657
6.00268
6.04014
6.05251
6.04166
6.00915
5.95512
5.88046
5.78677
5.67619
5.55132
5.41532
5.27223
5.12774
4.9911
4.87616
4.79576
4.74775
4.72774
4.73041
4.75012
4.78129
4.81822
4.85467
4.88358
4.89813
4.89419
4.86519
4.80104
528.268
517.354
4.98849
5.40822
5.69053
5.86294
5.96908
6.03607
6.07409
6.08659
6.07524
6.0423
5.98797
5.9132
5.81954
5.70909
5.58428
5.44801
5.30397
5.15735
5.01686
4.8959
4.80935
4.75633
4.73314
4.73482
4.75566
4.78959
4.8302
4.87042
4.90252
4.91942
4.91595
4.88551
4.81749
528.397
517.37
5.00974
5.43399
5.71932
5.89312
6.00028
6.06812
6.10678
6.11959
6.10811
6.07469
6.02017
5.94546
5.85211
5.7421
5.61773
5.48165
5.33718
5.18901
5.04523
4.91868
4.82572
4.76713
4.73999
4.7399
4.76124
4.79752
4.84162
4.88562
4.92109
4.94056
4.93763
4.90572
4.83364
528.522
517.386
5.03039
5.45885
5.74701
5.92216
6.03034
6.09908
6.13841
6.1516
6.14016
6.10636
6.05181
5.97738
5.88457
5.77529
5.65167
5.51617
5.37176
5.22263
5.07621
4.94468
4.84522
4.78059
4.74878
4.74611
4.76721
4.80532
4.85259
4.90028
4.93915
4.96131
4.95903
4.92568
4.84944
528.642
517.402
5.05042
5.4828
5.77355
5.94992
6.05908
6.1287
6.16874
6.18237
6.17106
6.13705
6.08265
6.0087
5.91665
5.80834
5.68579
5.55125
5.40738
5.25788
5.10952
4.97374
4.86793
4.79701
4.75992
4.75386
4.77394
4.81326
4.86336
4.9146
4.95693
4.98179
4.98016
4.94536
4.86487
528.758
517.418
5.07002
5.50607
5.7992
5.97668
6.08677
6.15729
6.19807
6.21221
6.20113
6.16704
6.11292
6.0396
5.94849
5.84136
5.72013
5.58685
5.44392
5.29458
5.14493
5.00564
4.89382
4.81656
4.77374
4.76356
4.78179
4.82162
4.87403
4.92852
4.9741
5.00173
5.00086
4.96466
4.8799
528.87
517.433
5.08908
5.52859
5.82374
6.00216
6.11312
6.18451
6.22606
6.24077
6.23002
6.19599
6.1423
6.06977
5.97978
5.87404
5.75436
5.62266
5.48105
5.33236
5.18207
5.03998
4.92268
4.83926
4.79044
4.7755
4.79111
4.8307
4.88488
4.94235
4.99133
5.02134
5.02113
4.98354
4.8945
528.98
517.449
5.10783
5.55091
5.84748
6.02667
6.13845
6.21072
6.25305
6.26839
6.25804
6.2242
6.17103
6.09938
6.01063
5.90642
5.7885
5.65862
5.51866
5.37104
5.22067
5.0765
4.95434
4.86508
4.81017
4.78999
4.80221
4.8408
4.89616
4.95626
5.00848
5.04065
5.04099
5.00199
4.90869
529.086
517.464
5.12566
5.57192
5.86986
6.04981
6.16241
6.23555
6.27869
6.29468
6.28485
6.25139
6.19879
6.1281
6.04071
5.9382
5.82223
5.69441
5.55641
5.41029
5.26039
5.11484
4.98855
4.89391
4.833
4.80721
4.81538
4.8522
4.90809
4.97037
5.02556
5.05967
5.06045
5.02001
4.92247
529.19
517.479
5.14309
5.59233
5.89146
6.07205
6.18539
6.25935
6.30326
6.31992
6.31064
6.27771
6.22567
6.15601
6.07007
5.96939
5.85553
5.72996
5.59416
5.44989
5.30096
5.1547
5.02506
4.92564
4.85895
4.82733
4.83086
4.86516
4.92087
4.98483
5.04263
5.07844
5.07954
5.03763
4.93587
529.292
517.493
5.15968
5.61162
5.91183
6.09298
6.20701
6.28176
6.32642
6.34372
6.33501
6.30266
6.25131
6.18281
6.09847
5.99976
5.88815
5.76501
5.63166
5.48955
5.34205
5.19572
5.06355
4.96004
4.88795
4.85046
4.84885
4.87991
4.9347
4.99973
5.05971
5.09697
5.09826
5.05484
4.94891
529.393
517.508
5.1759
5.63034
5.93136
6.11296
6.22764
6.30316
6.34857
6.36652
6.35836
6.32658
6.27595
6.2087
6.12603
6.02938
5.92012
5.79955
5.6688
5.52912
5.38343
5.23763
5.10374
4.99685
4.91988
4.87662
4.86954
4.89667
4.9498
5.01525
5.07692
5.11531
5.11664
5.07168
4.96161
529.491
517.522
5.19146
5.64803
5.9497
6.13166
6.24693
6.32319
6.36932
6.38791
6.38033
6.34918
6.29937
6.2334
6.1525
6.05802
5.95124
5.83336
5.7054
5.56838
5.42486
5.28012
5.1453
5.03579
4.95452
4.90572
4.89296
4.91559
4.96631
5.0315
5.09432
5.13352
5.13472
5.08817
4.974
529.588
517.536
5.20651
5.66498
5.96713
6.14936
6.26517
6.34214
6.38897
6.40817
6.40117
6.37068
6.32174
6.25711
6.17797
6.08568
5.98147
5.86637
5.74131
5.60714
5.4661
5.32292
5.18791
5.07657
4.99165
4.9377
4.91919
4.93683
4.98442
5.04862
5.11201
5.15164
5.15254
5.10434
4.98611
529.684
517.55
5.2209
5.68096
5.98341
6.16583
6.28214
6.35977
6.40727
6.42708
6.42066
6.39085
6.34286
6.27964
6.20235
6.11229
6.01065
5.89844
5.77641
5.64525
5.50695
5.36576
5.23127
5.11883
5.03098
4.97234
4.94818
4.96047
5.00428
5.06676
5.13009
5.16978
5.17016
5.12023
4.99797
529.778
517.564
5.23477
5.69616
5.99875
6.18127
6.29802
6.37628
6.42442
6.44481
6.43895
6.40983
6.36282
6.30105
6.22563
6.13782
6.03877
5.92943
5.81052
5.6825
5.54716
5.40838
5.27505
5.16226
5.0722
5.00945
4.97985
4.98658
5.02601
5.08604
5.14868
5.18798
5.18762
5.13588
5.00961
529.872
517.578
5.24794
5.71038
6.01295
6.19551
6.31266
6.39152
6.44027
6.46123
6.45593
6.42753
6.38157
6.32128
6.24777
6.16224
6.06581
5.95936
5.84354
5.71877
5.58658
5.45052
5.31895
5.20651
5.11499
5.04878
5.01409
5.01517
5.04974
5.10665
5.16792
5.20637
5.20502
5.15136
5.02108
529.965
517.591
5.2605
5.72376
6.02618
6.20869
6.3262
6.40562
6.45495
6.47644
6.4717
6.44402
6.39914
6.34035
6.26875
6.18549
6.09166
5.98809
5.87538
5.75387
5.62497
5.49192
5.36264
5.25123
5.15899
5.09001
5.0507
5.04618
5.07552
5.12867
5.18792
5.22503
5.2224
5.16669
5.03239
530.057
517.604
5.27241
5.73623
6.03835
6.22076
6.33858
6.41852
6.4684
6.49041
6.48621
6.45928
6.41553
6.35828
6.28859
6.2076
6.11634
6.01564
5.90601
5.78776
5.66221
5.53237
5.40583
5.29606
5.20381
5.13281
5.08945
5.07955
5.10344
5.15227
5.20885
5.24412
5.23989
5.18196
5.04359
530.15
517.616
5.2837
5.74784
6.04955
6.23178
6.34986
6.43028
6.48068
6.50317
6.4995
6.47332
6.43074
6.37505
6.30726
6.22851
6.1398
6.0419
5.93533
5.82031
5.69813
5.57171
5.44828
5.34065
5.24906
5.17677
5.13002
5.11509
5.13343
5.17747
5.23079
5.2637
5.25754
5.19719
5.05469
530.243
517.629
5.2944
5.75865
6.05979
6.24176
6.36005
6.44092
6.4918
6.51474
6.51159
6.48618
6.44481
6.3907
6.32483
6.2483
6.16209
6.06694
5.96335
5.85153
5.73271
5.60975
5.48979
5.38476
5.29438
5.2215
5.17206
5.15258
5.16546
5.2044
5.2539
5.28393
5.27547
5.21249
5.06575
530.336
517.641
5.30451
5.76863
6.06908
6.25072
6.36918
6.45044
6.50175
6.52512
6.52246
6.49782
6.45771
6.40519
6.34125
6.26692
6.18316
6.09071
5.99004
5.88135
5.76589
5.64647
5.53018
5.4281
5.33945
5.26661
5.21516
5.19168
5.19931
5.23295
5.27818
5.30486
5.29376
5.2279
5.07679
530.429
517.653
5.31409
5.77785
6.07747
6.25872
6.37728
6.4589
6.5106
6.53436
6.53217
6.50832
6.4695
6.41861
6.35658
6.28443
6.20309
6.11327
6.01545
5.90983
5.79768
5.68186
5.56944
5.47057
5.38404
5.31178
5.25899
5.23212
5.23484
5.26315
5.30373
5.3266
5.31248
5.24348
5.08787
530.524
517.664
5.32306
5.78625
6.08491
6.26569
6.38431
6.46625
6.51832
6.54243
6.54071
6.51765
6.48015
6.43089
6.37077
6.30079
6.22183
6.1346
6.03956
5.93695
5.82807
5.71587
5.6075
5.51204
5.42795
5.35676
5.3032
5.27355
5.27176
5.29477
5.33049
5.34918
5.33173
5.25933
5.09903
530.619
517.676
5.33149
5.79389
6.09147
6.27171
6.39037
6.47259
6.525
6.54945
6.54818
6.52592
6.48978
6.44215
6.38393
6.31608
6.23946
6.15475
6.06243
5.96276
5.8571
5.74851
5.64431
5.55242
5.47102
5.40127
5.34748
5.3156
5.30977
5.32774
5.35839
5.37261
5.35153
5.27548
5.11033
530.716
517.687
5.33928
5.80066
6.09705
6.27672
6.39538
6.47787
6.5306
6.55538
6.55457
6.53313
6.49836
6.45238
6.39603
6.33027
6.25594
6.17371
6.08405
5.98725
5.88477
5.77981
5.67987
5.59166
5.51314
5.44515
5.3916
5.35806
5.34873
5.36203
5.38745
5.39692
5.37194
5.29199
5.12181
530.813
517.698
5.34649
5.80666
6.10177
6.28082
6.39946
6.48221
6.53526
6.56036
6.56003
6.53943
6.50608
6.46172
6.40721
6.34348
6.27138
6.19155
6.10448
6.01049
5.91113
5.80978
5.71417
5.62972
5.55422
5.48824
5.43528
5.40059
5.38827
5.39727
5.41749
5.42205
5.39296
5.3089
5.13349
530.911
517.708
5.35303
5.81179
6.10552
6.28393
6.40253
6.48554
6.53891
6.56437
6.56454
6.54484
6.51294
6.4702
6.41749
6.35574
6.2858
6.2083
6.12374
6.0325
5.93622
5.83848
5.74725
5.66661
5.59422
5.53045
5.47843
5.44304
5.42821
5.43329
5.4484
5.44797
5.4146
5.32622
5.14541
531.01
517.718
5.359
5.81617
6.10845
6.28617
6.40472
6.48797
6.54167
6.56751
6.56825
6.54952
6.51911
6.47798
6.42702
6.36719
6.29931
6.22406
6.14193
6.05336
5.9601
5.86595
5.77913
5.70231
5.63309
5.57165
5.5208
5.48505
5.46818
5.46974
5.47997
5.47455
5.43681
5.34396
5.15757
531.11
517.728
5.36435
5.81975
6.11049
6.28748
6.40594
6.48942
6.54346
6.56972
6.57113
6.55348
6.52461
6.48509
6.43585
6.37788
6.31201
6.23893
6.15915
6.07317
5.98289
5.89233
5.80991
5.73691
5.67088
5.61188
5.56242
5.52664
5.50808
5.50643
5.512
5.50168
5.45952
5.36207
5.16996
531.21
517.738
5.3692
5.82267
6.11177
6.28796
6.40631
6.48999
6.54435
6.57106
6.57324
6.55694
6.52952
6.49158
6.44405
6.3879
6.32399
6.253
6.17549
6.09205
6.0047
5.91772
5.83967
5.77044
5.70758
5.65105
5.60312
5.56756
5.54761
5.54319
5.54436
5.52925
5.48268
5.38054
5.18257
531.31
517.747
5.37353
5.82491
6.11225
6.28758
6.40575
6.4896
6.54426
6.57141
6.57439
6.55951
6.53366
6.4974
6.45163
6.39732
6.33534
6.2664
6.19112
6.11016
6.02572
5.94236
5.8686
5.80307
5.74332
5.68924
5.64291
5.60777
5.58676
5.57976
5.57681
5.55708
5.50616
5.3993
5.19538
531.411
517.756
5.37746
5.82657
6.11203
6.28641
6.40436
6.48834
6.54328
6.57089
6.57473
6.56137
6.53716
6.50262
6.45864
6.40618
6.34611
6.27919
6.2061
6.1276
6.0461
5.96645
5.89684
5.83486
5.77812
5.72646
5.68177
5.64718
5.62535
5.61614
5.60929
5.58514
5.52994
5.41833
5.20838
531.511
517.764
5.38095
5.82763
6.11107
6.28442
6.40208
6.48615
6.54132
6.56939
6.57413
6.5624
6.53993
6.5072
6.46508
6.41451
6.35637
6.29147
6.22055
6.14452
6.06601
5.99021
5.92459
5.86601
5.81215
5.76281
5.71972
5.68575
5.66327
5.65211
5.6416
5.6132
5.55384
5.43749
5.22146
531.611
517.773
5.38405
5.82813
6.10944
6.28167
6.39898
6.48308
6.53847
6.56699
6.57269
6.56267
6.54202
6.51117
6.47095
6.4223
6.36611
6.30323
6.23449
6.16095
6.08549
6.01367
5.95185
5.89651
5.8454
5.7983
5.7568
5.7235
5.70053
5.68765
5.67374
5.64128
5.57784
5.45679
5.23461
531.71
517.781
5.38674
5.82805
6.1071
6.27813
6.39503
6.47912
6.53469
6.56366
6.57037
6.56216
6.54341
6.51451
6.47627
6.42959
6.37539
6.31455
6.24798
6.17694
6.10456
6.0368
5.97865
5.92641
5.87791
5.83295
5.79298
5.76038
5.73701
5.72262
5.70553
5.66922
5.60182
5.47607
5.24774
531.808
517.789
5.38903
5.82742
6.10409
6.27384
6.39027
6.47429
6.53001
6.55944
6.5672
6.56089
6.54412
6.51724
6.48103
6.43638
6.38421
6.32543
6.26107
6.19254
6.12328
6.0596
6.00498
5.9557
5.90971
5.86679
5.8283
5.79641
5.77275
5.75702
5.73695
5.69698
5.62573
5.49533
5.26087
531.906
517.797
5.39095
5.82626
6.10042
6.2688
6.38469
6.4686
6.52442
6.55431
6.56319
6.55887
6.54415
6.51937
6.48525
6.44268
6.39259
6.33593
6.27381
6.20782
6.14171
6.08211
6.03092
5.98448
5.94085
5.89984
5.86275
5.83155
5.80766
5.79073
5.76788
5.72444
5.64949
5.51452
5.27396
532.002
517.805
5.39251
5.82459
6.09614
6.26306
6.37835
6.46208
6.51797
6.54832
6.55835
6.5561
6.54351
6.52087
6.48891
6.4485
6.40055
6.34606
6.28623
6.22285
6.15994
6.10439
6.05652
6.01281
5.97142
5.93222
5.89643
5.86586
5.84176
5.82375
5.7983
5.75159
5.6731
5.53367
5.28708
532.098
517.812
5.3937
5.8224
6.0912
6.25659
6.37122
6.45473
6.51066
6.54148
6.55272
6.55259
6.54216
6.52173
6.49199
6.4538
6.40807
6.35583
6.29839
6.2377
6.17811
6.12653
6.08186
6.04074
6.00148
5.96396
5.92937
5.89937
5.87507
5.85605
5.82813
5.77834
5.69645
5.55267
5.3002
532.192
517.819
5.39456
5.81972
6.08566
6.24945
6.36336
6.44659
6.50254
6.53386
6.54636
6.54838
6.54013
6.52192
6.49446
6.45856
6.41514
6.36526
6.31032
6.25247
6.19635
6.14864
6.10704
6.06838
6.03111
5.99517
5.96167
5.93217
5.90762
5.88767
5.85743
5.80472
5.71956
5.57154
5.31326
532.285
517.826
5.39501
5.81645
6.07945
6.24158
6.35474
6.43768
6.49363
6.52552
6.53942
6.54351
6.53738
6.5214
6.49626
6.46273
6.42171
6.37432
6.32203
6.26721
6.21481
6.17081
6.13212
6.09576
6.06033
6.02583
5.99331
5.96423
5.93948
5.91855
5.8861
5.83062
5.74234
5.59018
5.32618
532.376
517.832
5.39508
5.81263
6.0726
6.23304
6.34543
6.42803
6.48399
6.51653
6.53213
6.53804
6.53393
6.52018
6.49738
6.46628
6.42775
6.38295
6.33347
6.28187
6.23343
6.19302
6.15711
6.12292
6.08923
6.05607
6.02449
5.99586
5.9711
5.94897
5.91428
5.85613
5.76483
5.60864
5.33899
532.465
517.838
5.39471
5.80815
6.06504
6.22379
6.3354
6.41767
6.4736
6.50675
6.52401
6.53179
6.52976
6.51825
6.49783
6.4692
6.43324
6.39113
6.34458
6.29639
6.2521
6.21517
6.18193
6.14982
6.11776
6.08586
6.05516
6.02699
6.00227
5.97887
5.94196
5.88122
5.78699
5.62685
5.35165
532.553
517.844
5.39378
5.80303
6.05682
6.21388
6.32472
6.40666
6.46263
6.49648
6.51547
6.52511
6.5251
6.51579
6.49771
6.47155
6.43818
6.39882
6.35532
6.31067
6.27065
6.23715
6.20653
6.17645
6.14597
6.11529
6.08543
6.0577
6.03302
6.00835
5.96925
5.90598
5.80891
5.64489
5.36422
532.639
517.85
5.39236
5.79731
6.04794
6.20328
6.31335
6.39496
6.45099
6.48561
6.50641
6.51796
6.51999
6.51286
6.49711
6.47342
6.44266
6.40611
6.36572
6.32473
6.28901
6.25888
6.23083
6.20273
6.17378
6.14427
6.11522
6.08791
6.06329
6.03735
5.9961
5.93038
5.83053
5.66273
5.37668
532.724
517.855
5.39055
5.79108
6.03847
6.19203
6.30128
6.38258
6.43872
6.47423
6.49698
6.51052
6.51461
6.50965
6.49619
6.47493
6.44678
6.41306
6.37586
6.33865
6.3072
6.28038
6.25485
6.22869
6.20124
6.17287
6.14461
6.11772
6.09314
6.06595
6.0226
5.95451
5.85196
5.68043
5.38907
532.807
517.86
5.38844
5.78441
6.02842
6.1801
6.28846
6.3694
6.42569
6.46221
6.48707
6.50273
6.50898
6.50623
6.49508
6.47625
6.45071
6.41986
6.38593
6.35262
6.3253
6.30165
6.27854
6.25425
6.22827
6.201
6.17351
6.14703
6.1225
6.09409
6.04871
5.97832
5.87313
5.69796
5.40136
532.888
517.865
5.38615
5.77736
6.01782
6.16749
6.27487
6.35538
6.41183
6.44946
6.47661
6.49456
6.50309
6.50264
6.49383
6.47745
6.45455
6.42662
6.39609
6.36684
6.34345
6.32281
6.30201
6.27951
6.25492
6.22873
6.20199
6.17591
6.15145
6.12185
6.07452
6.0019
5.89414
5.71537
5.41361
532.968
517.869
5.38368
5.76991
6.00664
6.15417
6.26044
6.34042
6.39701
6.43584
6.4654
6.48581
6.4968
6.49879
6.49244
6.47859
6.45837
6.43344
6.40641
6.38136
6.36168
6.34386
6.32522
6.30441
6.28115
6.25597
6.22995
6.20427
6.1799
6.14915
6.09993
6.02518
5.91493
5.73263
5.42576
533.046
517.874
5.38098
5.76201
5.99485
6.14013
6.24517
6.32452
6.38122
6.42132
6.45335
6.47632
6.48993
6.49453
6.49078
6.47957
6.46215
6.44031
6.41688
6.39614
6.37999
6.36485
6.34827
6.32907
6.30706
6.28284
6.25751
6.23221
6.20792
6.17609
6.12507
6.04826
5.93557
5.74981
5.43786
533.123
517.879
5.37794
5.75357
5.98241
6.12533
6.22905
6.30766
6.36447
6.40596
6.44036
6.4659
6.48225
6.48965
6.48869
6.4803
6.4658
6.44717
6.42744
6.411
6.39824
6.38567
6.37105
6.35337
6.33255
6.30924
6.28454
6.25959
6.23538
6.20252
6.14979
6.07102
5.95599
5.76682
5.44987
533.198
517.884
5.37445
5.74451
5.9693
6.10982
6.21213
6.28991
6.34682
6.38996
6.42639
6.45444
6.47362
6.48398
6.48601
6.48063
6.46925
6.454
6.43813
6.42597
6.41649
6.40639
6.39366
6.37744
6.35776
6.33532
6.31123
6.2866
6.26246
6.22861
6.17424
6.0936
5.97628
5.78376
5.46181
533.272
517.888
5.37044
5.73479
5.95549
6.09359
6.19443
6.2713
6.32821
6.37287
6.41136
6.44196
6.46403
6.47745
6.48263
6.48044
6.47237
6.4607
6.4489
6.44093
6.4346
6.42687
6.41596
6.40114
6.38255
6.36093
6.3374
6.31309
6.28901
6.2542
6.19827
6.11584
5.99631
5.80052
5.47363
533.345
517.892
5.36595
5.72448
5.94104
6.07667
6.17599
6.25194
6.30889
6.35512
6.39564
6.42873
6.45365
6.47017
6.47857
6.47974
6.4752
6.46736
6.45989
6.45599
6.45271
6.44728
6.43812
6.42466
6.4071
6.38625
6.36323
6.33914
6.31515
6.27945
6.22203
6.13789
6.01622
5.8172
5.4854
533.417
517.896
5.36111
5.71367
5.92596
6.059
6.15672
6.23171
6.2888
6.3367
6.37935
6.41495
6.44268
6.46225
6.4739
6.47848
6.47761
6.47382
6.47093
6.47096
6.47064
6.46743
6.45998
6.44783
6.43128
6.41118
6.38867
6.36499
6.34086
6.30423
6.24538
6.15959
6.03584
5.83366
5.49702
533.487
517.9
5.35615
5.70252
5.91033
6.04059
6.13654
6.21055
6.2679
6.31774
6.36272
6.40092
6.43147
6.45405
6.46891
6.47694
6.47981
6.48022
6.48205
6.4859
6.48846
6.48744
6.48168
6.47083
6.45528
6.43591
6.41396
6.39078
6.36637
6.32875
6.2685
6.18112
6.05535
5.85006
5.50859
533.558
517.904
5.35123
5.69116
5.89414
6.02132
6.11525
6.18814
6.24591
6.29799
6.34561
6.38665
6.42012
6.44572
6.46375
6.47519
6.48182
6.4865
6.49306
6.50062
6.506
6.50715
6.50307
6.49354
6.47898
6.46037
6.43899
6.41632
6.39154
6.35288
6.29124
6.2023
6.07454
5.86619
5.51998
533.627
517.909
5.34657
5.6797
5.87746
6.00115
6.09269
6.16425
6.22249
6.27715
6.32784
6.37207
6.40871
6.43747
6.45872
6.47359
6.48401
6.49301
6.50418
6.5153
6.5234
6.52668
6.52428
6.51605
6.50252
6.48468
6.46389
6.44174
6.41656
6.37685
6.31382
6.22336
6.09365
5.88227
5.53131
533.696
517.914
5.34218
5.66815
5.86025
5.98003
6.06873
6.13863
6.19732
6.2548
6.30893
6.35677
6.39693
6.42908
6.45372
6.47213
6.48645
6.49986
6.51541
6.52989
6.5406
6.54596
6.5452
6.5383
6.52579
6.50873
6.48854
6.46687
6.44125
6.40045
6.33603
6.24404
6.11239
5.89802
5.54237
533.764
517.919
5.33808
5.65653
5.84257
5.95798
6.04333
6.11118
6.17023
6.23067
6.28857
6.34043
6.38451
6.42039
6.44868
6.47084
6.48924
6.50724
6.52691
6.54454
6.55772
6.56506
6.56593
6.56033
6.54885
6.5326
6.51302
6.49186
6.4658
6.42392
6.35813
6.26465
6.13109
5.91372
5.55334
533.832
517.925
5.33414
5.64479
5.82441
5.93499
6.01646
6.08185
6.14113
6.20448
6.26632
6.32253
6.37092
6.41091
6.44317
6.46936
6.49207
6.51483
6.53842
6.55906
6.57463
6.58391
6.58636
6.58207
6.57164
6.55619
6.53721
6.51651
6.48997
6.44697
6.37979
6.28481
6.14932
5.92897
5.56391
533.899
517.932
5.33034
5.63296
5.80584
5.91114
5.98817
6.0507
6.11025
6.17619
6.24201
6.30284
6.35589
6.40033
6.43689
6.4674
6.49469
6.52233
6.54974
6.57332
6.59122
6.60242
6.60649
6.60353
6.59418
6.57958
6.56124
6.54103
6.51403
6.46993
6.40141
6.30495
6.16754
5.9442
5.57441
533.967
517.938
5.32671
5.62111
5.78692
5.88645
5.95839
6.01752
6.07719
6.14555
6.21544
6.28109
6.33907
6.38829
6.42947
6.4646
6.49674
6.52932
6.56052
6.58701
6.60728
6.62044
6.62615
6.62457
6.61634
6.6026
6.5849
6.56515
6.53763
6.49241
6.42251
6.32455
6.18521
5.95889
5.58444
534.034
517.945
5.32341
5.60939
5.76777
5.86099
5.92716
5.98237
6.04194
6.11275
6.18682
6.25742
6.32049
6.3747
6.42075
6.46079
6.49806
6.53555
6.57049
6.59993
6.6226
6.6378
6.64524
6.64513
6.63811
6.62534
6.60835
6.58912
6.56115
6.51484
6.44361
6.34418
6.20293
5.97361
5.59443
534.102
517.953
5.3206
5.59792
5.74846
5.83472
5.89431
5.94499
6.00425
6.07764
6.15609
6.23182
6.30015
6.35951
6.41063
6.45583
6.49849
6.54078
6.57942
6.61182
6.63697
6.65428
6.66355
6.665
6.65928
6.64753
6.63129
6.61258
6.58413
6.53671
6.46413
6.36322
6.22003
5.98772
5.6039
534.169
517.961
5.31849
5.58691
5.72918
5.80776
5.85985
5.90528
5.96397
6.04011
6.12324
6.20433
6.27808
6.34272
6.39907
6.4496
6.49784
6.54479
6.58707
6.62246
6.65016
6.6697
6.68094
6.6841
6.67984
6.66927
6.65392
6.63584
6.60699
6.55853
6.48466
6.3823
6.23719
6.00188
5.61335
534.238
517.97
5.31705
5.57634
5.70994
5.78023
5.82372
5.86301
5.92072
5.99966
6.08774
6.17453
6.25397
6.32411
6.38586
6.4419
6.49582
6.54731
6.59321
6.63163
6.66196
6.68385
6.69717
6.70217
6.69947
6.69014
6.67572
6.65833
6.62912
6.57965
6.50451
6.40071
6.25366
6.01536
5.6222
534.305
517.979
5.31614
5.56618
5.69084
5.75218
5.78617
5.81825
5.87432
5.95589
6.04913
6.14194
6.22737
6.30326
6.37061
6.43234
6.49196
6.54795
6.59751
6.63905
6.67215
6.69653
6.71212
6.71914
6.71821
6.71039
6.69729
6.68053
6.65105
6.60067
6.52433
6.41913
6.27018
6.02889
5.63102
534.374
517.989
5.31568
5.55646
5.67205
5.72395
5.74747
5.77122
5.82477
5.90856
6.007
6.10609
6.19783
6.27976
6.35298
6.42061
6.48588
6.54636
6.59963
6.6444
6.68042
6.70745
6.72547
6.73469
6.7357
6.72958
6.718
6.70183
6.67206
6.62081
6.54333
6.43676
6.28592
6.04166
5.63918
534.441
517.999
5.31545
5.54714
5.65368
5.69579
5.70803
5.72254
5.77233
5.85763
5.96105
6.06654
6.16487
6.25314
6.33251
6.40631
6.47718
6.54215
6.59923
6.6474
6.68652
6.71644
6.73713
6.74881
6.75205
6.74792
6.73811
6.72269
6.69276
6.64075
6.56223
6.45437
6.30168
6.05447
5.64732
534.511
518.009
5.3155
5.53832
5.63587
5.66791
5.66813
5.6723
5.71735
5.80335
5.91133
6.02316
6.12822
6.22308
6.30888
6.3891
6.46552
6.53502
6.59603
6.64776
6.69017
6.72317
6.74674
6.76107
6.76674
6.76479
6.75688
6.7423
6.71229
6.65962
6.58013
6.47105
6.31656
6.06644
5.65473
534.578
518.019
5.31595
5.53009
5.61869
5.6404
5.628
5.62108
5.66053
5.74631
5.85823
5.97611
6.08784
6.18937
6.28176
6.3686
6.45054
6.52468
6.58979
6.64529
6.69124
6.72759
6.75432
6.77161
6.78
6.7805
6.77475
6.76122
6.73133
6.67815
6.59784
6.48763
6.33142
6.07843
5.66213
534.649
518.029
5.31697
5.52253
5.60214
5.61322
5.58757
5.56871
5.60175
5.68671
5.8021
5.92568
6.04392
6.15208
6.25111
6.34461
6.43207
6.51093
6.5803
6.63976
6.68947
6.72938
6.75947
6.77992
6.79122
6.79435
6.7909
6.77854
6.74889
6.69534
6.61433
6.50309
6.34522
6.08945
5.6687
534.717
518.041
5.31871
5.51573
5.58627
5.5864
5.54688
5.51542
5.54149
5.62509
5.74333
5.87218
5.99665
6.11131
6.21693
6.31705
6.41002
6.49371
6.56752
6.63118
6.68489
6.72863
6.76238
6.78627
6.80078
6.80682
6.80591
6.79496
6.76578
6.71206
6.6305
6.51836
6.35894
6.10044
5.67521
534.79
518.052
5.32116
5.50967
5.57108
5.55993
5.50586
5.46101
5.47937
5.56108
5.68188
5.81577
5.94625
6.06724
6.17935
6.28591
6.38434
6.47293
6.55131
6.61933
6.67724
6.725
6.76259
6.79011
6.808
6.81709
6.81885
6.80944
6.78086
6.72712
6.64517
6.53223
6.37135
6.11024
5.68073
534.858
518.065
5.32429
5.50437
5.55671
5.53405
5.4648
5.40566
5.41542
5.49471
5.61777
5.75641
5.8927
6.01987
6.13835
6.25115
6.35501
6.44857
6.53169
6.6043
6.66664
6.7187
6.76041
6.79185
6.8134
6.82582
6.8305
6.82287
6.79513
6.74158
6.65941
6.54583
6.38362
6.11996
5.68612
534.931
518.078
5.32788
5.49974
5.54323
5.50907
5.42418
5.34978
5.34968
5.42567
5.55058
5.69384
5.83584
5.96908
6.09386
6.21266
6.32188
6.42047
6.50845
6.58578
6.65273
6.70926
6.75526
6.79079
6.81613
6.83201
6.83972
6.83399
6.80725
6.75405
6.67182
6.55774
6.39431
6.12825
5.69033
534.999
518.091
5.33174
5.49572
5.53081
5.48538
5.38461
5.29406
5.28239
5.35383
5.47996
5.62757
5.77519
5.91447
6.04551
6.17021
6.28485
6.38862
6.48166
6.56396
6.63578
6.69705
6.74764
6.78753
6.81696
6.83657
6.84755
6.84398
6.81846
6.76584
6.68375
6.56934
6.40483
6.13644
5.69441
535.073
518.104
5.3356
5.49216
5.51951
5.46339
5.34688
5.23926
5.21422
5.27948
5.40586
5.55739
5.71045
5.85567
5.99289
6.12341
6.24354
6.35264
6.45092
6.53837
6.61524
6.68143
6.73676
6.78116
6.81481
6.83825
6.85259
6.8513
6.82718
6.77532
6.69354
6.57896
6.41352
6.143
5.69716
535.141
518.116
5.33928
5.48895
5.5093
5.44334
5.31168
5.18641
5.14612
5.20309
5.32826
5.48299
5.64122
5.79233
5.93568