/*--------------------------------*- C++ -*----------------------------------*\
| =========                 |                                                 |
| \\      /  F ield         | OpenFOAM: The Open Source CFD Toolbox           |
|  \\    /   O peration     | Version:  v1906                                 |
|   \\  /    A nd           | Web:      www.OpenFOAM.com                      |
|    \\/     M anipulation  |                                                 |
\*---------------------------------------------------------------------------*/
FoamFile
{
    version     2.0;
    format      ascii;
    class       surfaceScalarField;
    location    "99";
    object      phi;
}
// * * * * * * * * * * * * * * * * * * * * * * * * * * * * * * * * * * * * * //

dimensions      [1 0 -1 0 0 0 0];
oriented        oriented;


internalField   nonuniform List<scalar> 
228225
(
2.30324e-06
-3.96921e-07
-5.57375e-08
2.80151e-06
-5.02567e-07
4.76118e-09
3.3359e-06
-5.75735e-07
4.07846e-08
3.89747e-06
-6.37729e-07
7.58017e-08
4.49223e-06
-7.00066e-07
1.0485e-07
5.12399e-06
-7.59583e-07
1.27289e-07
5.78965e-06
-8.10418e-07
1.44223e-07
6.48073e-06
-8.4859e-07
1.56979e-07
7.18566e-06
-8.72071e-07
1.66627e-07
7.8912e-06
-8.79996e-07
1.7394e-07
8.58345e-06
-8.72185e-07
1.7945e-07
9.24852e-06
-8.49021e-07
1.835e-07
9.87327e-06
-8.11465e-07
1.86294e-07
1.04459e-05
-7.60915e-07
1.87934e-07
1.0955e-05
-6.97997e-07
1.88478e-07
1.13896e-05
-6.2286e-07
1.87936e-07
1.17393e-05
-5.36245e-07
1.86305e-07
1.19946e-05
-4.39134e-07
1.83579e-07
1.21473e-05
-3.32649e-07
1.79776e-07
1.21903e-05
-2.18117e-07
1.74919e-07
1.21184e-05
-9.72561e-08
1.69048e-07
1.19287e-05
2.74589e-08
1.6223e-07
1.16129e-05
1.61237e-07
1.54554e-07
1.11732e-05
2.93504e-07
1.46177e-07
1.06129e-05
4.23153e-07
1.37326e-07
9.93851e-06
5.46224e-07
1.28303e-07
9.16023e-06
6.59048e-07
1.19479e-07
8.29036e-06
7.58862e-07
1.11309e-07
7.34241e-06
8.44109e-07
1.04223e-07
6.32515e-06
9.19304e-07
9.84036e-08
5.22771e-06
1.00471e-06
9.32829e-08
3.99927e-06
1.14247e-06
8.66145e-08
2.57241e-06
1.35383e-06
7.3682e-08
1.03629e-06
1.48768e-06
4.89199e-08
1.02402e-06
1.24595e-08
1.43472e-07
-5.33898e-07
-6.33527e-09
6.09769e-07
-1.00941e-06
4.0436e-08
1.30879e-06
-1.35738e-06
8.27069e-08
2.17724e-06
-1.62241e-06
1.16137e-07
3.15822e-06
-1.82252e-06
1.41368e-07
4.20445e-06
-1.9665e-06
1.60543e-07
5.27843e-06
-2.06025e-06
1.7567e-07
6.35017e-06
-2.10879e-06
1.88223e-07
7.39523e-06
-2.11654e-06
1.99168e-07
8.39327e-06
-2.08741e-06
2.09083e-07
9.32726e-06
-2.02476e-06
2.18281e-07
1.01826e-05
-1.93161e-06
2.26887e-07
1.09472e-05
-1.81111e-06
2.34761e-07
1.16117e-05
-1.66724e-06
2.41501e-07
1.21698e-05
-1.50349e-06
2.46989e-07
1.26165e-05
-1.3213e-06
2.51358e-07
1.29469e-05
-1.1216e-06
2.54598e-07
1.31568e-05
-9.06019e-07
2.56651e-07
1.32428e-05
-6.76508e-07
2.57483e-07
1.32029e-05
-4.35551e-07
2.56984e-07
1.30361e-05
-1.85774e-07
2.55048e-07
1.27412e-05
7.05265e-08
2.51566e-07
1.23222e-05
3.33514e-07
2.46425e-07
1.17779e-05
5.98163e-07
2.39503e-07
1.11097e-05
8.60513e-07
2.30681e-07
1.03213e-05
1.11471e-06
2.1988e-07
9.41798e-06
1.35506e-06
2.07375e-07
8.40699e-06
1.57632e-06
1.93691e-07
7.29568e-06
1.77643e-06
1.79237e-07
6.08661e-06
1.96439e-06
1.64335e-07
4.77484e-06
2.16813e-06
1.4875e-07
3.36327e-06
2.42359e-06
1.30846e-07
1.92145e-06
2.68899e-06
1.06933e-07
6.4938e-07
2.68734e-06
7.24469e-08
1.64873e-06
2.4419e-08
9.799e-08
-6.50502e-07
1.83251e-08
5.34799e-07
-1.51799e-06
7.24232e-08
1.23046e-06
-2.16264e-06
1.09772e-07
2.09667e-06
-2.62246e-06
1.33808e-07
3.05387e-06
-2.92901e-06
1.49411e-07
4.04368e-06
-3.11644e-06
1.60291e-07
5.02814e-06
-3.21343e-06
1.6881e-07
5.98268e-06
-3.23957e-06
1.76295e-07
6.89053e-06
-3.20777e-06
1.83407e-07
7.73973e-06
-3.12699e-06
1.90431e-07
8.52131e-06
-3.00374e-06
1.97455e-07
9.22826e-06
-2.843e-06
2.04484e-07
9.85441e-06
-2.64874e-06
2.11498e-07
1.03932e-05
-2.42444e-06
2.18445e-07
1.08383e-05
-2.17382e-06
2.25184e-07
1.11852e-05
-1.89988e-06
2.31698e-07
1.14304e-05
-1.60481e-06
2.38055e-07
1.15712e-05
-1.29112e-06
2.44227e-07
1.16062e-05
-9.61587e-07
2.50079e-07
1.15345e-05
-6.19267e-07
2.55357e-07
1.13563e-05
-2.67398e-07
2.59765e-07
1.10725e-05
9.12842e-08
2.6307e-07
1.06789e-05
4.62076e-07
2.64991e-07
1.01771e-05
8.34739e-07
2.65113e-07
9.56767e-06
1.20701e-06
2.62938e-07
8.85183e-06
1.57261e-06
2.57954e-07
8.03374e-06
1.92346e-06
2.49752e-07
7.11988e-06
2.2522e-06
2.38097e-07
6.11559e-06
2.55795e-06
2.22954e-07
5.0224e-06
2.85348e-06
2.04311e-07
3.84282e-06
3.16614e-06
1.81795e-07
2.60743e-06
3.50455e-06
1.54587e-07
1.41687e-06
3.75764e-06
1.21883e-07
4.40622e-07
3.58174e-06
8.15647e-08
2.05977e-06
2.90096e-08
1.7235e-07
-8.49114e-07
2.65156e-08
6.43098e-07
-2.05986e-06
7.11045e-08
1.31891e-06
-2.9348e-06
9.64951e-08
2.10516e-06
-3.52015e-06
1.11606e-07
2.92461e-06
-3.87012e-06
1.21768e-07
3.73339e-06
-4.05487e-06
1.2972e-07
4.51152e-06
-4.12817e-06
1.36661e-07
5.24973e-06
-4.12075e-06
1.43013e-07
5.94275e-06
-4.04964e-06
1.48886e-07
6.58668e-06
-3.92519e-06
1.54312e-07
7.17779e-06
-3.75417e-06
1.59342e-07
7.71195e-06
-3.54123e-06
1.64091e-07
8.1844e-06
-3.28989e-06
1.68731e-07
8.58972e-06
-3.00323e-06
1.73488e-07
8.92177e-06
-2.68446e-06
1.78607e-07
9.17488e-06
-2.33729e-06
1.84321e-07
9.34504e-06
-1.96579e-06
1.90846e-07
9.42991e-06
-1.5743e-06
1.98327e-07
9.4285e-06
-1.16698e-06
2.06831e-07
9.34048e-06
-7.47535e-07
2.16309e-07
9.16538e-06
-3.18833e-07
2.26561e-07
8.9023e-06
1.17168e-07
2.37232e-07
8.55753e-06
5.59093e-07
2.47791e-07
8.12979e-06
1.00506e-06
2.57464e-07
7.61973e-06
1.45188e-06
2.65257e-07
7.02853e-06
1.89388e-06
2.70004e-07
6.3583e-06
2.32327e-06
2.70518e-07
5.61126e-06
2.73356e-06
2.6582e-07
4.78769e-06
3.12641e-06
2.55264e-07
3.88604e-06
3.51703e-06
2.38285e-07
2.91356e-06
3.92479e-06
2.13989e-07
1.91591e-06
4.32043e-06
1.81804e-07
9.92125e-07
4.53837e-06
1.42893e-07
2.79631e-07
4.19735e-06
9.64395e-08
2.30282e-06
3.58401e-08
1.57138e-07
-1.03028e-06
2.41705e-08
5.72818e-07
-2.53275e-06
5.7091e-08
1.14858e-06
-3.5853e-06
7.50724e-08
1.79405e-06
-4.25199e-06
8.65938e-08
2.44966e-06
-4.62065e-06
9.49532e-08
3.08974e-06
-4.79602e-06
1.01067e-07
3.70658e-06
-4.84999e-06
1.05013e-07
4.29771e-06
-4.81857e-06
1.06768e-07
4.86108e-06
-4.71945e-06
1.06513e-07
5.39361e-06
-4.5623e-06
1.04641e-07
5.89044e-06
-4.35264e-06
1.01666e-07
6.34488e-06
-4.09381e-06
9.81714e-08
6.74864e-06
-3.78839e-06
9.47769e-08
7.09278e-06
-3.43944e-06
9.21198e-08
7.36887e-06
-3.05131e-06
9.08055e-08
7.57019e-06
-2.62995e-06
9.13851e-08
7.69271e-06
-2.18259e-06
9.43197e-08
7.73537e-06
-1.71688e-06
9.99631e-08
7.69986e-06
-1.23996e-06
1.08523e-07
7.58984e-06
-7.57545e-07
1.20073e-07
7.41001e-06
-2.73458e-07
1.34501e-07
7.1653e-06
2.10453e-07
1.51488e-07
6.86013e-06
6.93857e-07
1.70463e-07
6.49764e-06
1.17708e-06
1.90541e-07
6.07939e-06
1.65975e-06
2.10451e-07
5.60522e-06
2.13961e-06
2.28519e-07
5.07307e-06
2.61275e-06
2.4277e-07
4.47848e-06
3.07704e-06
2.51205e-07
3.81477e-06
3.53816e-06
2.52068e-07
3.07712e-06
4.01106e-06
2.4373e-07
2.27753e-06
4.49988e-06
2.24553e-07
1.46996e-06
4.93389e-06
1.93996e-07
7.40173e-07
5.11389e-06
1.53936e-07
1.98774e-07
4.63422e-06
1.03948e-07
2.46278e-06
3.79462e-08
1.54835e-07
-1.20275e-06
1.77552e-08
5.1897e-07
-2.93948e-06
4.27664e-08
9.96439e-07
-4.12113e-06
5.84386e-08
1.51713e-06
-4.84239e-06
6.97855e-08
2.04065e-06
-5.22188e-06
7.77915e-08
2.5532e-06
-5.39084e-06
8.23497e-08
3.05217e-06
-5.43231e-06
8.34067e-08
3.53666e-06
-5.38423e-06
8.12357e-08
4.00452e-06
-5.2636e-06
7.63374e-08
4.45163e-06
-5.07864e-06
6.92746e-08
4.87156e-06
-4.83314e-06
6.06259e-08
5.25563e-06
-4.52885e-06
5.1035e-08
5.59369e-06
-4.16758e-06
4.11872e-08
5.87562e-06
-3.75312e-06
3.18045e-08
6.09307e-06
-3.2923e-06
2.36102e-08
6.24069e-06
-2.79483e-06
1.73287e-08
6.31667e-06
-2.27218e-06
1.36772e-08
6.32259e-06
-1.73604e-06
1.33161e-08
6.26278e-06
-1.1968e-06
1.67302e-08
6.14342e-06
-6.62325e-07
2.42123e-08
5.97145e-06
-1.3733e-07
3.59316e-08
5.75395e-06
3.76124e-07
5.19173e-08
5.49678e-06
8.79089e-07
7.20202e-08
5.20396e-06
1.37425e-06
9.57308e-08
4.87686e-06
1.86501e-06
1.21937e-07
4.51332e-06
2.35434e-06
1.48899e-07
4.1069e-06
2.84492e-06
1.74344e-07
3.64669e-06
3.34166e-06
1.95698e-07
3.11958e-06
3.85515e-06
2.10212e-07
2.51805e-06
4.39777e-06
2.14891e-07
1.85708e-06
4.9543e-06
2.06542e-07
1.19219e-06
5.41526e-06
1.83337e-07
5.95853e-07
5.56311e-06
1.46721e-07
1.60521e-07
4.9716e-06
9.73133e-08
2.58939e-06
3.29874e-08
1.23579e-07
-1.33895e-06
1.29269e-08
4.17921e-07
-3.26694e-06
3.31229e-08
8.07361e-07
-4.55861e-06
4.79708e-08
1.23653e-06
-5.33122e-06
5.97463e-08
1.67346e-06
-5.72681e-06
6.8145e-08
2.10634e-06
-5.89636e-06
7.27509e-08
2.53181e-06
-5.93129e-06
7.35535e-08
2.94784e-06
-5.87114e-06
7.08947e-08
3.35141e-06
-5.73242e-06
6.52681e-08
3.73765e-06
-5.522e-06
5.71577e-08
4.09962e-06
-5.24202e-06
4.69593e-08
4.4285e-06
-4.89281e-06
3.51462e-08
4.71459e-06
-4.47601e-06
2.23941e-08
4.94906e-06
-3.99695e-06
9.40803e-09
5.12511e-06
-3.46554e-06
-2.77774e-09
5.23874e-06
-2.89535e-06
-1.30719e-08
5.29036e-06
-2.30186e-06
-2.18896e-08
5.28302e-06
-1.70038e-06
-2.82544e-08
5.22179e-06
-1.10413e-06
-3.13694e-08
5.11303e-06
-5.22965e-07
-3.05249e-08
4.963e-06
3.78981e-08
-2.51195e-08
4.77997e-06
5.73966e-07
-1.47312e-08
4.56889e-06
1.0892e-06
1.03799e-09
4.3339e-06
1.5876e-06
2.17161e-08
4.07549e-06
2.0762e-06
4.73022e-08
3.7901e-06
2.56342e-06
7.63818e-08
3.46902e-06
3.05918e-06
1.06905e-07
3.09845e-06
3.57616e-06
1.36149e-07
2.66285e-06
4.13009e-06
1.60724e-07
2.15438e-06
4.72982e-06
1.76437e-07
1.58927e-06
5.34075e-06
1.78577e-07
1.01995e-06
5.82075e-06
1.63554e-07
5.09364e-07
5.94118e-06
1.32041e-07
1.39427e-07
5.25501e-06
8.58284e-08
2.70077e-06
2.70789e-08
1.05946e-07
-1.45484e-06
1.00177e-08
3.5424e-07
-3.5445e-06
2.93929e-08
6.83251e-07
-4.93324e-06
4.57502e-08
1.04825e-06
-5.75528e-06
5.91518e-08
1.42259e-06
-6.16976e-06
6.8672e-08
1.79575e-06
-6.3434e-06
7.39253e-08
2.16429e-06
-6.37485e-06
7.50714e-08
2.52589e-06
-6.30527e-06
7.25901e-08
2.87724e-06
-6.15073e-06
6.7022e-08
3.21343e-06
-5.91692e-06
5.87894e-08
3.52777e-06
-5.60449e-06
4.81904e-08
3.81235e-06
-5.21292e-06
3.55929e-08
4.05909e-06
-4.74426e-06
2.1581e-08
4.26107e-06
-4.20568e-06
6.8031e-09
4.4133e-06
-3.60978e-06
-7.91464e-09
4.51329e-06
-2.97323e-06
-2.20511e-08
4.56103e-06
-2.31465e-06
-3.48778e-08
4.55899e-06
-1.65234e-06
-4.59284e-08
4.51165e-06
-1.00212e-06
-5.45826e-08
4.42477e-06
-3.75985e-07
-6.00218e-08
4.3057e-06
2.18469e-07
-6.14166e-08
4.15944e-06
7.7831e-07
-5.80029e-08
3.99237e-06
1.30553e-06
-4.91876e-08
3.80782e-06
1.80673e-06
-3.44908e-08
3.60523e-06
2.29237e-06
-1.35124e-08
3.37946e-06
2.77611e-06
1.31658e-08
3.12005e-06
3.27463e-06
4.40271e-08
2.81127e-06
3.80783e-06
7.71708e-08
2.43655e-06
4.39603e-06
1.08817e-07
1.9881e-06
5.0445e-06
1.33761e-07
1.48165e-06
5.70131e-06
1.45765e-07
9.6463e-07
6.19805e-06
1.39418e-07
4.93334e-07
6.2977e-06
1.14256e-07
1.4264e-07
5.53194e-06
7.3022e-08
2.82094e-06
2.14679e-08
9.33032e-08
-1.55756e-06
9.41768e-09
3.15786e-07
-3.79541e-06
2.87046e-08
6.13422e-07
-5.27612e-06
4.53799e-08
9.45842e-07
-6.14668e-06
5.89992e-08
1.28822e-06
-6.58099e-06
6.88479e-08
1.62993e-06
-6.75988e-06
7.48051e-08
1.96678e-06
-6.78875e-06
7.71122e-08
2.29582e-06
-6.71042e-06
7.61859e-08
2.61351e-06
-6.54081e-06
7.24478e-08
2.91516e-06
-6.2847e-06
6.61801e-08
3.1949e-06
-5.94175e-06
5.75533e-08
3.4463e-06
-5.51107e-06
4.67804e-08
3.66329e-06
-4.99543e-06
3.42169e-08
3.84092e-06
-4.40361e-06
2.0338e-08
3.97566e-06
-3.75025e-06
5.78701e-09
4.06591e-06
-3.05411e-06
-9.29026e-09
4.11134e-06
-2.33587e-06
-2.4135e-08
4.11321e-06
-1.61601e-06
-3.81271e-08
4.07466e-06
-9.12689e-07
-5.08159e-08
4.00034e-06
-2.40152e-07
-6.14421e-08
3.89611e-06
3.91829e-07
-6.90593e-08
3.76838e-06
9.78798e-07
-7.2684e-08
3.62289e-06
1.52249e-06
-7.13928e-08
3.46329e-06
2.03083e-06
-6.44266e-08
3.28949e-06
2.5173e-06
-5.10587e-08
3.09606e-06
3.00023e-06
-3.06216e-08
2.87096e-06
3.50244e-06
-2.66287e-09
2.59945e-06
4.05033e-06
2.90514e-08
2.26408e-06
4.66811e-06
6.32956e-08
1.85676e-06
5.35776e-06
9.40003e-08
1.39176e-06
6.05253e-06
1.13603e-07
9.1183e-07
6.56261e-06
1.1501e-07
4.6955e-07
6.64292e-06
9.64811e-08
1.37571e-07
5.8019e-06
6.12339e-08
2.94035e-06
1.71174e-08
8.44519e-08
-1.65177e-06
9.89471e-09
2.8676e-07
-4.02813e-06
3.04869e-08
5.59006e-07
-5.59674e-06
4.8464e-08
8.63958e-07
-6.51459e-06
6.30414e-08
1.1784e-06
-6.96889e-06
7.35275e-08
1.49225e-06
-7.15357e-06
7.99058e-08
1.80137e-06
-7.18042e-06
8.26034e-08
2.10276e-06
-7.09399e-06
8.22339e-08
2.39285e-06
-6.91017e-06
7.93336e-08
2.6671e-06
-6.63312e-06
7.42185e-08
2.92026e-06
-6.26189e-06
6.70405e-08
3.14693e-06
-5.79566e-06
5.79695e-08
3.3424e-06
-5.23808e-06
4.72267e-08
3.50316e-06
-4.59936e-06
3.50619e-08
3.62688e-06
-3.89569e-06
2.17865e-08
3.71221e-06
-3.14724e-06
7.86851e-09
3.75905e-06
-2.37597e-06
-6.66805e-09
3.76836e-06
-1.60376e-06
-2.14792e-08
3.74204e-06
-8.50484e-07
-3.5814e-08
3.6836e-06
-1.32416e-07
-4.92127e-08
3.59776e-06
5.3854e-07
-6.07876e-08
3.49002e-06
1.15613e-06
-6.95138e-08
3.36543e-06
1.72148e-06
-7.43198e-08
3.22721e-06
2.24334e-06
-7.42076e-08
3.07528e-06
2.73753e-06
-6.82265e-08
2.90461e-06
3.22622e-06
-5.5263e-08
2.7042e-06
3.73729e-06
-3.43892e-08
2.4574e-06
4.30248e-06
-5.3107e-09
2.14884e-06
4.94916e-06
2.74998e-08
1.77021e-06
5.67601e-06
6.03109e-08
1.33427e-06
6.40342e-06
8.48504e-08
8.79899e-07
6.92397e-06
9.26092e-08
4.56662e-07
6.9851e-06
8.04503e-08
1.35414e-07
6.0709e-06
5.1431e-08
3.06057e-06
1.41192e-08
8.23195e-08
-1.74469e-06
1.06881e-08
2.78222e-07
-4.25603e-06
3.20169e-08
5.40211e-07
-5.90877e-06
5.01696e-08
8.31703e-07
-6.87056e-06
6.46202e-08
1.13042e-06
-7.3426e-06
7.50955e-08
1.42694e-06
-7.53184e-06
8.17953e-08
1.71736e-06
-7.55596e-06
8.51517e-08
1.99873e-06
-7.46105e-06
8.57151e-08
2.26762e-06
-7.263e-06
8.39765e-08
2.51983e-06
-6.96553e-06
8.02509e-08
2.75071e-06
-6.56741e-06
7.47011e-08
2.95582e-06
-6.06815e-06
6.74549e-08
3.13157e-06
-5.47241e-06
5.86532e-08
3.2755e-06
-4.79167e-06
4.84314e-08
3.38618e-06
-4.04325e-06
3.69428e-08
3.46286e-06
-3.24826e-06
2.43946e-08
3.50535e-06
-2.42952e-06
1.11205e-08
3.51394e-06
-1.60975e-06
-2.53377e-09
3.49086e-06
-8.0999e-07
-1.73319e-08
3.43848e-06
-4.82379e-08
-3.17087e-08
3.36081e-06
6.61532e-07
-4.52374e-08
3.2627e-06
1.31132e-06
-5.69974e-08
3.14871e-06
1.90147e-06
-6.59275e-08
3.02176e-06
2.4413e-06
-7.09444e-08
2.88178e-06
2.94856e-06
-7.09848e-08
2.72422e-06
3.44861e-06
-6.47719e-08
2.53891e-06
3.97349e-06
-5.08403e-08
2.31057e-06
4.55911e-06
-2.82752e-08
2.02219e-06
5.235e-06
2.53404e-09
1.66813e-06
5.99632e-06
3.36384e-08
1.25923e-06
6.7518e-06
6.02673e-08
8.31133e-07
7.2791e-06
7.25204e-08
4.3066e-07
7.31901e-06
6.59134e-08
1.27098e-07
6.3308e-06
4.28089e-08
3.17488e-06
1.16867e-08
7.85768e-08
-1.83524e-06
1.2088e-08
2.65848e-07
-4.47799e-06
3.47968e-08
5.15388e-07
-6.2118e-06
5.35763e-08
7.91475e-07
-7.21481e-06
6.824e-08
1.07311e-06
-7.70292e-06
7.87481e-08
1.35175e-06
-7.89588e-06
8.5444e-08
1.62382e-06
-7.91687e-06
8.88996e-08
1.88645e-06
-7.8134e-06
8.97794e-08
2.13627e-06
-7.6014e-06
8.86286e-08
2.36933e-06
-7.28432e-06
8.57853e-08
2.58145e-06
-6.8609e-06
8.14207e-08
2.76892e-06
-6.33122e-06
7.56427e-08
2.92906e-06
-5.70103e-06
6.85331e-08
3.06026e-06
-4.98295e-06
6.01404e-08
3.16177e-06
-4.1952e-06
5.04977e-08
3.23334e-06
-3.35943e-06
3.96585e-08
3.27498e-06
-2.49883e-06
2.77413e-08
3.28693e-06
-1.63658e-06
1.49685e-08
3.26956e-06
-7.94449e-07
1.90875e-09
3.22592e-06
8.20733e-09
-1.27264e-08
3.15841e-06
7.56074e-07
-2.69457e-08
3.07103e-06
1.43901e-06
-4.02276e-08
2.96755e-06
2.05666e-06
-5.16276e-08
2.85041e-06
2.61862e-06
-6.00961e-08
2.71944e-06
3.14417e-06
-6.4572e-08
2.57056e-06
3.66132e-06
-6.37731e-08
2.39475e-06
4.20538e-06
-5.60393e-08
2.17832e-06
4.81541e-06
-3.98593e-08
1.90635e-06
5.52198e-06
-1.50555e-08
1.57191e-06
6.31633e-06
1.42986e-08
1.18668e-06
7.09619e-06
4.05591e-08
7.83261e-07
7.62663e-06
5.54199e-08
4.05213e-07
7.64313e-06
5.32541e-08
1.19182e-07
6.58054e-06
3.54016e-08
3.28322e-06
9.70649e-09
7.81012e-08
-1.92627e-06
1.31039e-08
2.61253e-07
-4.69742e-06
3.63654e-08
5.02446e-07
-6.50795e-06
5.49769e-08
7.66698e-07
-7.54827e-06
6.92423e-08
1.03426e-06
-8.04989e-06
7.94707e-08
1.29753e-06
-8.24521e-06
8.61355e-08
1.55333e-06
-8.26239e-06
8.97979e-08
1.79896e-06
-8.15006e-06
9.10904e-08
2.03125e-06
-7.92418e-06
9.05435e-08
2.24653e-06
-7.58805e-06
8.85053e-08
2.44111e-06
-7.1406e-06
8.51662e-08
2.61197e-06
-6.58267e-06
8.06401e-08
2.75713e-06
-5.92113e-06
7.49928e-08
2.87566e-06
-5.16966e-06
6.82358e-08
2.96734e-06
-4.34716e-06
6.03389e-08
3.0323e-06
-3.47557e-06
5.12628e-08
3.07072e-06
-2.57817e-06
4.10024e-08
3.08284e-06
-1.67825e-06
2.9622e-08
3.06914e-06
-7.97924e-07
1.72594e-08
3.03048e-06
4.2669e-08
4.2836e-09
2.97e-06
8.26319e-07
-9.68014e-09
2.89059e-06
1.5419e-06
-2.34036e-08
2.7952e-06
2.18811e-06
-3.59781e-08
2.68567e-06
2.7747e-06
-4.64711e-08
2.56158e-06
3.32224e-06
-5.39075e-08
2.41916e-06
3.86087e-06
-5.70782e-08
2.25035e-06
4.42854e-06
-5.43191e-08
2.0431e-06
5.06649e-06
-4.38401e-08
1.78454e-06
5.8053e-06
-2.48083e-08
1.46773e-06
6.63155e-06
1.42093e-09
1.10584e-06
7.43255e-06
2.52225e-08
7.28245e-07
7.96268e-06
4.10555e-08
3.75005e-07
7.95349e-06
4.21708e-08
1.09443e-07
6.81637e-06
2.88148e-08
3.38357e-06
7.93306e-09
7.54647e-08
-2.016e-06
1.43714e-08
2.52279e-07
-4.91263e-06
3.84934e-08
4.83979e-07
-6.79673e-06
5.71719e-08
7.3604e-07
-7.87146e-06
7.11948e-08
9.89779e-07
-8.3847e-06
8.11356e-08
1.23842e-06
-8.58139e-06
8.76021e-08
1.47913e-06
-8.59427e-06
9.12355e-08
1.70934e-06
-8.47293e-06
9.27095e-08
1.92602e-06
-8.23337e-06
9.25637e-08
2.12576e-06
-7.87889e-06
9.11502e-08
2.30535e-06
-7.4088e-06
8.86611e-08
2.46235e-06
-6.82482e-06
8.52034e-08
2.59543e-06
-6.13497e-06
8.08212e-08
2.70424e-06
-5.3539e-06
7.54909e-08
2.789e-06
-4.50099e-06
6.91336e-08
2.85013e-06
-3.59827e-06
6.16431e-08
2.88791e-06
-2.66881e-06
5.29269e-08
2.90244e-06
-1.73565e-06
4.29475e-08
2.89383e-06
-8.20977e-07
3.17396e-08
2.86264e-06
5.44801e-08
1.94586e-08
2.81022e-06
8.72347e-07
6.48647e-09
2.73898e-06
1.6202e-06
-6.97697e-09
2.65128e-06
2.29596e-06
-2.00669e-08
2.54831e-06
2.90948e-06
-3.17317e-08
2.42943e-06
3.48232e-06
-4.11331e-08
2.29114e-06
4.04638e-06
-4.71627e-08
2.12632e-06
4.64166e-06
-4.82691e-08
1.92463e-06
5.31078e-06
-4.26116e-08
1.67543e-06
6.08336e-06
-2.89262e-08
1.37425e-06
6.94064e-06
-8.09073e-09
1.03276e-06
7.75989e-06
1.38302e-08
6.78814e-07
8.28673e-06
2.93639e-08
3.48614e-07
8.25026e-06
3.26985e-08
1.01444e-07
7.03952e-06
2.3074e-08
3.47742e-06
6.39379e-09
7.43289e-08
-2.10543e-06
1.51593e-08
2.46128e-07
-5.12374e-06
3.9449e-08
4.6881e-07
-7.07699e-06
5.77019e-08
7.08869e-07
-8.18261e-06
7.11738e-08
9.4894e-07
-8.70542e-06
8.06975e-08
1.18314e-06
-8.90251e-06
8.69574e-08
1.409e-06
-8.91068e-06
9.05902e-08
1.62415e-06
-8.78028e-06
9.22547e-08
1.82573e-06
-8.52738e-06
9.24801e-08
2.01063e-06
-8.15535e-06
9.16227e-08
2.17604e-06
-7.66403e-06
8.98866e-08
2.32004e-06
-7.05614e-06
8.73808e-08
2.44181e-06
-6.34084e-06
8.41459e-08
2.54148e-06
-5.53365e-06
8.01446e-08
2.61963e-06
-4.65436e-06
7.52685e-08
2.67695e-06
-3.72488e-06
6.93619e-08
2.71382e-06
-2.76786e-06
6.22588e-08
2.73029e-06
-1.80586e-06
5.38278e-08
2.72617e-06
-8.60778e-07
4.40061e-08
2.70146e-06
4.64309e-08
3.28559e-08
2.65682e-06
8.96456e-07
2.06266e-08
2.59354e-06
1.67576e-06
7.80181e-09
2.51317e-06
2.38152e-06
-5.09609e-09
2.41653e-06
3.02358e-06
-1.73748e-08
2.30268e-06
3.62426e-06
-2.80243e-08
2.16827e-06
4.21691e-06
-3.6063e-08
2.00697e-06
4.84308e-06
-4.0088e-08
1.81003e-06
5.54604e-06
-3.83378e-08
1.56904e-06
6.3536e-06
-2.93403e-08
1.28176e-06
7.24111e-06
-1.33851e-08
9.59604e-07
8.07607e-06
5.61367e-09
6.28715e-07
8.59713e-06
1.99299e-08
3.21509e-07
8.53211e-06
2.45911e-08
9.30623e-08
7.24898e-06
1.8005e-08
3.56426e-06
5.01059e-09
7.19159e-08
-2.19324e-06
1.60015e-08
2.37686e-07
-5.33e-06
4.05802e-08
4.51587e-07
-7.34934e-06
5.85277e-08
6.80817e-07
-8.48329e-06
7.15202e-08
9.08971e-07
-9.01413e-06
8.06188e-08
1.13077e-06
-9.21086e-06
8.66071e-08
1.34397e-06
-9.21398e-06
9.01592e-08
1.5463e-06
-9.07449e-06
9.1938e-08
1.73506e-06
-8.80854e-06
9.24627e-08
1.9074e-06
-8.41971e-06
9.20855e-08
2.0609e-06
-7.90849e-06
9.10122e-08
2.19413e-06
-7.27865e-06
8.93472e-08
2.30671e-06
-6.54048e-06
8.71193e-08
2.39918e-06
-5.71033e-06
8.42774e-08
2.47247e-06
-4.80828e-06
8.06963e-08
2.52749e-06
-3.85602e-06
7.61911e-08
2.56472e-06
-2.87557e-06
7.05488e-08
2.58409e-06
-1.88872e-06
6.35708e-08
2.58509e-06
-9.16805e-07
5.51138e-08
2.56715e-06
1.93046e-08
4.51538e-08
2.53006e-06
8.99781e-07
3.38537e-08
2.47433e-06
1.70999e-06
2.15871e-08
2.40068e-06
2.44634e-06
8.9164e-09
2.30934e-06
3.11849e-06
-3.49983e-09
2.19927e-06
3.74937e-06
-1.49697e-08
2.06725e-06
4.37343e-06
-2.4455e-08
1.90773e-06
5.03334e-06
-3.07206e-08
1.71346e-06
5.77242e-06
-3.21395e-08
1.47818e-06
6.61595e-06
-2.71798e-08
1.20185e-06
7.53289e-06
-1.56659e-08
8.96039e-07
8.38128e-06
2.18041e-10
5.85477e-07
8.89459e-06
1.25253e-08
2.98669e-07
8.80032e-06
1.78079e-08
8.63605e-08
7.44664e-06
1.36479e-08
3.64554e-06
3.8321e-09
7.0532e-08
-2.28014e-06
1.64889e-08
2.31038e-07
-5.53133e-06
4.08793e-08
4.36226e-07
-7.61268e-06
5.82139e-08
6.54417e-07
-8.77196e-06
7.05602e-08
8.70395e-07
-9.3092e-06
7.91709e-08
1.07958e-06
-9.50484e-06
8.48722e-08
1.28003e-06
-9.5027e-06
8.83334e-08
1.4696e-06
-9.35422e-06
9.02034e-08
1.64579e-06
-9.07567e-06
9.09866e-08
1.806e-06
-8.67091e-06
9.10333e-08
1.94816e-06
-8.14114e-06
9.05546e-08
2.07116e-06
-7.49124e-06
8.96574e-08
2.17499e-06
-6.73263e-06
8.83689e-08
2.26052e-06
-5.88242e-06
8.66328e-08
2.32896e-06
-4.96096e-06
8.43099e-08
2.38147e-06
-3.98965e-06
8.11918e-08
2.41868e-06
-2.98973e-06
7.70248e-08
2.44053e-06
-1.98204e-06
7.15494e-08
2.44627e-06
-9.87004e-07
6.45447e-08
2.43478e-06
-2.50099e-08
5.58965e-08
2.40517e-06
8.83802e-07
4.56747e-08
2.35705e-06
1.72404e-06
3.41726e-08
2.29035e-06
2.49125e-06
2.18814e-08
2.20474e-06
3.19476e-06
9.42227e-09
2.09885e-06
3.85782e-06
-2.49247e-09
1.96961e-06
4.51572e-06
-1.30084e-08
1.81212e-06
5.21183e-06
-2.09914e-08
1.62051e-06
5.98895e-06
-2.49594e-08
1.39053e-06
6.86921e-06
-2.34075e-08
1.12425e-06
7.81478e-06
-1.58423e-08
8.34651e-07
8.67459e-06
-4.12005e-09
5.43283e-07
9.17852e-06
6.82974e-09
2.76054e-07
9.05453e-06
1.22013e-08
7.95314e-08
7.63219e-06
9.94009e-09
3.72098e-06
2.83391e-09
6.81223e-08
-2.3651e-06
1.69453e-08
2.23026e-07
-5.7273e-06
4.11571e-08
4.20304e-07
-7.86778e-06
5.79131e-08
6.29019e-07
-9.05023e-06
6.9632e-08
8.34796e-07
-9.59266e-06
7.77495e-08
1.03354e-06
-9.78667e-06
8.31506e-08
1.22344e-06
-9.77905e-06
8.65081e-08
1.40248e-06
-9.62166e-06
8.84518e-08
1.56827e-06
-9.33086e-06
8.94657e-08
1.71844e-06
-8.9109e-06
8.98911e-08
1.85118e-06
-8.36376e-06
8.99384e-08
1.96572e-06
-7.69543e-06
8.9713e-08
2.06234e-06
-6.91843e-06
8.92396e-08
2.14218e-06
-6.05065e-06
8.84607e-08
2.20674e-06
-5.11269e-06
8.72346e-08
2.25739e-06
-4.12557e-06
8.53439e-08
2.29491e-06
-3.10969e-06
8.25132e-08
2.31924e-06
-2.08472e-06
7.84404e-08
2.32943e-06
-1.06996e-06
7.28401e-08
2.32395e-06
-8.49476e-08
6.55124e-08
2.30112e-06
8.50292e-07
5.64279e-08
2.25974e-06
1.71972e-06
4.57889e-08
2.19902e-06
2.51805e-06
3.40188e-08
2.11808e-06
3.2541e-06
2.16923e-08
2.01532e-06
3.95117e-06
9.47213e-09
1.88789e-06
4.64507e-06
-1.87135e-09
1.73141e-06
5.37946e-06
-1.11507e-08
1.54134e-06
6.19617e-06
-1.71944e-08
1.3153e-06
7.11363e-06
-1.85165e-08
1.05727e-06
8.08695e-06
-1.44141e-08
7.81196e-07
8.9564e-06
-6.17005e-09
5.06731e-07
9.44971e-06
2.64003e-09
2.56776e-07
9.29591e-06
7.74485e-09
7.39066e-08
7.80707e-06
6.94643e-09
3.79153e-06
2.07795e-09
6.67281e-08
-2.44887e-06
1.71505e-08
2.16883e-07
-5.91821e-06
4.08652e-08
4.06561e-07
-8.11423e-06
5.68457e-08
6.05832e-07
-9.31728e-06
6.78359e-08
8.01336e-07
-9.86353e-06
7.5421e-08
9.89546e-07
-1.00553e-05
8.05028e-08
1.16889e-06
-1.00421e-05
8.37363e-08
1.33748e-06
-9.87591e-06
8.57258e-08
1.49306e-06
-9.57332e-06
8.69338e-08
1.63345e-06
-9.13893e-06
8.76934e-08
1.75706e-06
-8.57553e-06
8.82158e-08
1.86334e-06
-7.89025e-06
8.86075e-08
1.9528e-06
-7.09672e-06
8.88944e-08
2.02682e-06
-6.21363e-06
8.90199e-08
2.08717e-06
-5.26181e-06
8.88416e-08
2.13546e-06
-4.26191e-06
8.81357e-08
2.17268e-06
-3.23344e-06
8.66096e-08
2.19887e-06
-2.19476e-06
8.39259e-08
2.21301e-06
-1.16374e-06
7.97428e-08
2.21316e-06
-1.58783e-07
7.37798e-08
2.19701e-06
8.00626e-07
6.591e-08
2.1625e-06
1.69809e-06
5.624e-08
2.10803e-06
2.52749e-06
4.51193e-08
2.03216e-06
3.29698e-06
3.30759e-08
1.933e-06
4.02966e-06
2.07425e-08
1.80782e-06
4.76147e-06
8.83238e-09
1.65308e-06
5.53596e-06
-1.75624e-09
1.46505e-06
6.3935e-06
-9.36378e-09
1.24319e-06
7.34844e-06
-1.30922e-08
9.93209e-07
8.34863e-06
-1.19852e-08
7.29819e-07
9.22612e-06
-6.78154e-09
4.71386e-07
9.70784e-06
-3.41506e-10
2.3789e-07
9.52423e-06
4.31977e-09
6.82495e-08
7.97105e-06
4.59587e-09
3.85696e-06
1.54204e-09
6.45331e-08
-2.53058e-06
1.7288e-08
2.09644e-07
-6.10367e-06
4.04473e-08
3.9245e-07
-8.35259e-06
5.56296e-08
5.83703e-07
-9.57435e-06
6.58804e-08
7.70694e-07
-1.01234e-05
7.2932e-08
9.50234e-07
-1.03125e-05
7.77053e-08
1.12089e-06
-1.02935e-05
8.08278e-08
1.28087e-06
-1.01187e-05
8.28673e-08
1.42803e-06
-9.80467e-06
8.42587e-08
1.56033e-06
-9.35649e-06
8.53224e-08
1.67635e-06
-8.77776e-06
8.62672e-08
1.77572e-06
-8.07675e-06
8.71991e-08
1.85916e-06
-7.26824e-06
8.81455e-08
1.92824e-06
-6.3717e-06
8.90551e-08
1.98493e-06
-5.40823e-06
8.97926e-08
2.03109e-06
-4.39813e-06
9.01385e-08
2.06789e-06
-3.35997e-06
8.97963e-08
2.09551e-06
-2.3107e-06
8.84091e-08
2.11286e-06
-1.2666e-06
8.55908e-08
2.11774e-06
-2.44564e-07
8.09886e-08
2.10726e-06
7.36828e-07
7.43765e-08
2.07857e-06
1.66111e-06
6.5756e-08
2.02935e-06
2.52141e-06
5.53904e-08
1.95759e-06
3.32508e-06
4.37525e-08
1.86114e-06
4.09473e-06
3.14436e-08
1.73739e-06
4.8661e-06
1.91588e-08
1.58341e-06
5.68223e-06
7.71495e-09
1.39703e-06
6.58157e-06
-1.75715e-09
1.17866e-06
7.57401e-06
-7.36229e-09
9.3574e-07
8.60011e-06
-8.85264e-09
6.83649e-07
9.48416e-06
-6.41756e-09
4.39426e-07
9.95353e-06
-2.12986e-09
2.20952e-07
9.74035e-06
1.48757e-09
6.32623e-08
8.12512e-06
2.55219e-09
3.91793e-06
1.0174e-09
6.32197e-08
-2.61093e-06
1.72308e-08
2.04207e-07
-6.28418e-06
3.96066e-08
3.80702e-07
-8.58285e-06
5.38573e-08
5.64272e-07
-9.82114e-06
6.33032e-08
7.42943e-07
-1.03718e-05
6.97921e-08
9.13931e-07
-1.05577e-05
7.42363e-08
1.07604e-06
-1.05328e-05
7.72258e-08
1.22762e-06
-1.03495e-05
7.92905e-08
1.36661e-06
-1.00244e-05
8.08369e-08
1.49106e-06
-9.56305e-06
8.21726e-08
1.59966e-06
-8.96979e-06
8.35037e-08
1.69215e-06
-8.25411e-06
8.49368e-08
1.76942e-06
-7.43194e-06
8.65005e-08
1.83324e-06
-6.5236e-06
8.81478e-08
1.88581e-06
-5.55047e-06
8.97494e-08
1.92921e-06
-4.53255e-06
9.10916e-08
1.9649e-06
-3.48746e-06
9.18788e-08
1.99323e-06
-2.43069e-06
9.17426e-08
2.01318e-06
-1.37673e-06
9.02651e-08
2.02235e-06
-3.4067e-07
8.70319e-08
2.0173e-06
6.60245e-07
8.17243e-08
1.99445e-06
1.60984e-06
7.42358e-08
1.95065e-06
2.50057e-06
6.47341e-08
1.88331e-06
3.33888e-06
5.3627e-08
1.78999e-06
4.14664e-06
4.14801e-08
1.66818e-06
4.95898e-06
2.89667e-08
1.51547e-06
5.81804e-06
1.68947e-08
1.33081e-06
6.75992e-06
6.23325e-09
1.11657e-06
7.78975e-06
-1.67149e-09
8.80834e-07
8.84076e-06
-5.21828e-09
6.39641e-07
9.73007e-06
-5.19774e-09
4.08837e-07
1.01866e-05
-2.92515e-09
2.04538e-07
9.94429e-06
-4.87026e-10
5.83337e-08
8.26937e-06
9.08473e-10
3.97439e-06
6.08154e-10
6.13388e-08
-2.68925e-06
1.70906e-08
1.98033e-07
-6.45937e-06
3.85943e-08
3.68787e-07
-8.80539e-06
5.18676e-08
5.45826e-07
-1.00586e-05
6.04886e-08
7.17632e-07
-1.06099e-05
6.64158e-08
8.81695e-07
-1.07922e-05
7.05438e-08
1.03689e-06
-1.07613e-05
7.34109e-08
1.18164e-06
-1.05697e-05
7.55005e-08
1.31396e-06
-1.02339e-05
7.71878e-08
1.43194e-06
-9.75972e-06
7.87656e-08
1.53433e-06
-9.15255e-06
8.04368e-08
1.621e-06
-8.42302e-06
8.23079e-08
1.69297e-06
-7.58826e-06
8.44095e-08
1.75216e-06
-6.66942e-06
8.67009e-08
1.80093e-06
-5.68823e-06
8.90629e-08
1.84158e-06
-4.66443e-06
9.12941e-08
1.87581e-06
-3.61473e-06
9.3109e-08
1.90421e-06
-2.55315e-06
9.41393e-08
1.92586e-06
-1.49224e-06
9.39478e-08
1.93828e-06
-4.45072e-07
9.20695e-08
1.93764e-06
5.72882e-07
8.80979e-08
1.91966e-06
1.5461e-06
8.18132e-08
1.88049e-06
2.46656e-06
7.32747e-08
1.81693e-06
3.33972e-06
6.28119e-08
1.72627e-06
4.18643e-06
5.09477e-08
1.60608e-06
5.04088e-06
3.8334e-08
1.45451e-06
5.94386e-06
2.57598e-08
1.27139e-06
6.92877e-06
1.41984e-08
1.06052e-06
7.99572e-06
4.72836e-09
8.31698e-07
9.07063e-06
-1.34966e-09
6.0053e-07
9.96406e-06
-3.29292e-09
3.81843e-07
1.04075e-05
-2.85439e-09
1.89991e-07
1.01366e-05
-1.33476e-09
5.40054e-08
8.40448e-06
-1.62616e-10
4.0268e-06
3.62863e-10
6.0129e-08
-2.76607e-06
1.67995e-08
1.93254e-07
-6.62968e-06
3.72642e-08
3.58798e-07
-9.02033e-06
4.94688e-08
5.29772e-07
-1.02867e-05
5.72236e-08
6.95241e-07
-1.08379e-05
6.25703e-08
8.53012e-07
-1.10163e-05
6.63647e-08
1.0019e-06
-1.09792e-05
6.90862e-08
1.14026e-06
-1.07791e-05
7.11725e-08
1.26625e-06
-1.04328e-05
7.29699e-08
1.37799e-06
-9.94616e-06
7.47573e-08
1.47431e-06
-9.32555e-06
7.67342e-08
1.55519e-06
-8.58284e-06
7.90065e-08
1.62174e-06
-7.73635e-06
8.16058e-08
1.67602e-06
-6.80812e-06
8.44953e-08
1.72056e-06
-5.82026e-06
8.75641e-08
1.7579e-06
-4.79231e-06
9.06225e-08
1.79e-06
-3.74014e-06
9.33978e-08
1.81771e-06
-2.6763e-06
9.55298e-08
1.84034e-06
-1.61136e-06
9.65742e-08
1.85541e-06
-5.5608e-07
9.60303e-08
1.85877e-06
4.76202e-07
9.34159e-08
1.84551e-06
1.47105e-06
8.84005e-08
1.81106e-06
2.42018e-06
8.09268e-08
1.75159e-06
3.32805e-06
7.12328e-08
1.66403e-06
4.21427e-06
5.97878e-08
1.54604e-06
5.11171e-06
4.72194e-08
1.39622e-06
6.05939e-06
3.43007e-08
1.21529e-06
7.08765e-06
2.19874e-08
1.00808e-06
8.19138e-06
1.13905e-08
7.85619e-07
9.2893e-06
3.50514e-09
5.6422e-07
1.01859e-05
-9.14122e-10
3.56999e-07
1.06161e-05
-2.02348e-09
1.76798e-07
1.03175e-05
-1.50547e-09
5.00241e-08
8.53067e-06
-4.27583e-10
4.07523e-06
3.84351e-10
5.85264e-08
-2.84092e-06
1.64256e-08