/*--------------------------------*- C++ -*----------------------------------*\
| =========                 |                                                 |
| \\      /  F ield         | OpenFOAM: The Open Source CFD Toolbox           |
|  \\    /   O peration     | Version:  v1906                                 |
|   \\  /    A nd           | Web:      www.OpenFOAM.com                      |
|    \\/     M anipulation  |                                                 |
\*---------------------------------------------------------------------------*/
FoamFile
{
    version     2.0;
    format      ascii;
    class       volScalarField;
    location    "0.03/oil";
    object      alphat;
}
// * * * * * * * * * * * * * * * * * * * * * * * * * * * * * * * * * * * * * //

dimensions      [1 -1 -1 0 0 0 0];


internalField   nonuniform List<scalar> 
168664
(
0.00546279
0.000562126
0.000542135
0.000190858
0.00012596
7.99672e-05
5.00223e-05
3.90486e-05
2.91448e-05
2.45432e-05
2.21507e-05
2.10599e-05
1.96992e-05
1.75533e-05
1.55372e-05
1.41438e-05
1.27269e-05
1.10908e-05
9.58794e-06
8.30491e-06
7.6517e-06
7.63743e-06
7.4786e-06
6.84761e-06
5.74005e-06
4.50873e-06
3.17085e-06
2.4108e-06
1.55008e-06
5.67541e-07
0.000560619
0.000639387
0.00015998
0.000142492
6.09728e-05
5.16141e-05
3.26208e-05
2.62339e-05
2.00244e-05
1.69875e-05
1.57904e-05
1.53427e-05
1.47954e-05
1.36914e-05
1.24724e-05
1.16657e-05
1.07189e-05
9.50474e-06
8.30351e-06
7.39585e-06
7.03469e-06
6.99068e-06
6.67226e-06
6.10477e-06
5.3751e-06
4.65734e-06
3.8099e-06
3.0526e-06
3.02439e-06
1.63414e-06
0.000539503
0.000159675
0.000109295
9.20798e-05
5.36944e-05
4.63042e-05
3.16036e-05
2.56622e-05
2.03765e-05
1.74362e-05
1.61715e-05
1.54096e-05
1.47284e-05
1.38612e-05
1.28272e-05
1.20168e-05
1.10884e-05
9.94574e-06
8.83088e-06
8.05987e-06
7.83863e-06
7.7955e-06
7.55521e-06
7.09738e-06
6.4406e-06
5.78684e-06
5.1301e-06
4.72459e-06
5.64821e-06
4.46076e-06
0.000192801
0.000144289
9.35989e-05
7.77473e-05
4.81315e-05
4.09981e-05
3.01109e-05
2.49797e-05
2.06527e-05
1.77292e-05
1.59796e-05
1.48397e-05
1.42312e-05
1.34316e-05
1.23622e-05
1.13596e-05
1.02806e-05
9.15622e-06
8.1672e-06
7.55063e-06
7.26215e-06
7.18008e-06
7.13009e-06
6.80335e-06
6.13897e-06
5.45034e-06
4.91384e-06
5.23267e-06
6.46043e-06
5.52465e-06
0.000127707
6.391e-05
5.556e-05
4.8967e-05
3.76693e-05
3.39289e-05
2.77246e-05
2.40826e-05
2.08647e-05
1.8414e-05
1.65494e-05
1.51284e-05
1.44656e-05
1.36621e-05
1.2528e-05
1.13592e-05
1.02619e-05
9.25583e-06
8.61898e-06
8.3541e-06
7.98673e-06
7.8344e-06
7.74159e-06
7.52011e-06
7.00655e-06
6.45994e-06
6.12407e-06
6.75472e-06
8.13368e-06
7.72446e-06
8.75091e-05
5.82941e-05
5.11893e-05
4.37885e-05
3.51044e-05
3.06327e-05
2.57916e-05
2.26214e-05
1.99887e-05
1.80306e-05
1.64076e-05
1.494e-05
1.40206e-05
1.33578e-05
1.21502e-05
1.07423e-05
9.53948e-06
8.55715e-06
8.25208e-06
8.29182e-06
7.88481e-06
7.59383e-06
7.4199e-06
7.25986e-06
6.91994e-06
6.71168e-06
6.67595e-06
7.52478e-06
8.95606e-06
8.91933e-06
5.85487e-05
4.06051e-05
3.74812e-05
3.3841e-05
2.9506e-05
2.65026e-05
2.33382e-05
2.09015e-05
1.88352e-05
1.73101e-05
1.60713e-05
1.47853e-05
1.40393e-05
1.37258e-05
1.2416e-05
1.06478e-05
9.20003e-06
8.14954e-06
7.8859e-06
7.90123e-06
7.48552e-06
7.25369e-06
7.18105e-06
7.18168e-06
7.13231e-06
7.30773e-06
7.62713e-06
8.66888e-06
1.01143e-05
1.04816e-05
5.01215e-05
3.62588e-05
3.34624e-05
3.00131e-05
2.66044e-05
2.38286e-05
2.11959e-05
1.90296e-05
1.7219e-05
1.59474e-05
1.51204e-05
1.44048e-05
1.42404e-05
1.42808e-05
1.29329e-05
1.08571e-05
9.16436e-06
7.93998e-06
7.44134e-06
7.14928e-06
6.70559e-06
6.56337e-06
6.66838e-06
6.93913e-06
7.32655e-06
7.93581e-06
8.57366e-06
9.69215e-06
1.10479e-05
1.17348e-05
4.11427e-05
3.08869e-05
2.89562e-05
2.63935e-05
2.38493e-05
2.14006e-05
1.9093e-05
1.70748e-05
1.53876e-05
1.42751e-05
1.38969e-05
1.40464e-05
1.45666e-05
1.47491e-05
1.35222e-05
1.15142e-05
9.50919e-06
7.82384e-06
6.94071e-06
6.32025e-06
5.89575e-06
5.93817e-06
6.30563e-06
6.92358e-06
7.69022e-06
8.60097e-06
9.49851e-06
1.06398e-05
1.18008e-05
1.26904e-05
3.65335e-05
2.80511e-05
2.65105e-05
2.42972e-05
2.19535e-05
1.95339e-05
1.72778e-05
1.52904e-05
1.3613e-05
1.27176e-05
1.28428e-05
1.36917e-05
1.44193e-05
1.41395e-05
1.31649e-05
1.16689e-05
9.60558e-06
7.66331e-06
6.40438e-06
5.54707e-06
5.20158e-06
5.4701e-06
6.13035e-06
6.96416e-06
7.85475e-06
8.9995e-06
1.01559e-05
1.12478e-05
1.22909e-05
1.33519e-05
3.32e-05
2.58683e-05
2.44891e-05
2.25189e-05
2.03776e-05
1.81888e-05
1.60947e-05
1.40776e-05
1.23987e-05
1.1798e-05
1.2277e-05
1.32203e-05
1.33341e-05
1.21597e-05
1.12663e-05
1.03395e-05
8.67541e-06
7.18494e-06
5.92259e-06
4.98768e-06
4.92736e-06
5.48749e-06
6.41448e-06
7.41012e-06
8.35441e-06
9.65265e-06
1.09157e-05
1.18282e-05
1.27735e-05
1.38823e-05
3.10166e-05
2.45164e-05
2.31613e-05
2.14051e-05
1.96708e-05
1.79308e-05
1.60151e-05
1.38164e-05
1.18762e-05
1.12057e-05
1.15454e-05
1.20352e-05
1.11433e-05
9.5356e-06
8.67651e-06
7.97742e-06
6.76593e-06
6.08204e-06
5.50073e-06
4.62884e-06
4.84239e-06
5.77411e-06
7.03332e-06
8.32787e-06
9.43113e-06
1.06722e-05
1.17327e-05
1.23977e-05
1.32505e-05
1.44445e-05
2.87686e-05
2.33558e-05
2.22972e-05
2.1047e-05
1.96246e-05
1.81468e-05
1.63678e-05
1.40984e-05
1.19316e-05
1.04801e-05
9.95482e-06
9.37522e-06
8.14603e-06
7.11789e-06
6.62683e-06
6.22287e-06
5.21058e-06
4.6438e-06
4.55929e-06
4.03072e-06
4.42317e-06
6.08865e-06
7.6558e-06
8.98109e-06
1.01144e-05
1.12974e-05
1.22077e-05
1.28727e-05
1.38465e-05
1.53613e-05
2.63064e-05
2.16302e-05
2.08201e-05
1.99619e-05
1.87518e-05
1.74115e-05
1.58253e-05
1.41042e-05
1.24132e-05
1.01896e-05
8.16512e-06
6.31131e-06
5.2254e-06
4.81534e-06
4.77455e-06
4.77683e-06
3.87504e-06
3.10752e-06
2.87225e-06
3.14532e-06
4.36925e-06
6.45513e-06
8.36219e-06
9.68346e-06
1.07472e-05
1.18572e-05
1.28035e-05
1.35584e-05
1.46336e-05
1.65693e-05
2.47105e-05
2.04544e-05
1.96253e-05
1.87822e-05
1.76803e-05
1.64338e-05
1.49475e-05
1.34313e-05
1.19238e-05
9.46492e-06
6.69003e-06
4.36283e-06
3.17737e-06
3.35296e-06
4.03535e-06
3.89849e-06
2.97523e-06
2.3793e-06
2.38454e-06
3.17247e-06
4.79287e-06
6.91593e-06
8.88181e-06
1.03184e-05
1.1398e-05
1.24703e-05
1.34538e-05
1.4236e-05
1.52807e-05
1.75064e-05
2.34355e-05
1.95188e-05
1.86421e-05
1.78771e-05
1.69025e-05
1.57873e-05
1.43612e-05
1.26952e-05
1.08049e-05
8.53465e-06
6.20693e-06
4.36158e-06
3.13892e-06
3.35386e-06
4.47734e-06
4.14354e-06
2.92105e-06
2.52319e-06
3.03609e-06
4.06453e-06
5.5884e-06
7.39759e-06
9.10589e-06
1.04338e-05
1.15175e-05
1.25963e-05
1.35909e-05
1.43888e-05
1.52826e-05
1.73565e-05
2.15459e-05
1.82047e-05
1.72791e-05
1.65687e-05
1.56254e-05
1.45205e-05
1.32301e-05
1.17242e-05
9.66024e-06
7.11657e-06
4.69317e-06
3.382e-06
3.09127e-06
3.70919e-06
4.80173e-06
4.66685e-06
3.75115e-06
3.77814e-06
4.73502e-06
5.83133e-06
6.73134e-06
7.9884e-06
9.24546e-06
1.03509e-05
1.14711e-05
1.2653e-05
1.37244e-05
1.4438e-05
1.52025e-05
1.71275e-05
1.98686e-05
1.71115e-05
1.61694e-05
1.54902e-05
1.45267e-05
1.33821e-05
1.21218e-05
1.06808e-05
8.90492e-06
6.5475e-06
4.64677e-06
4.16968e-06
3.76461e-06
4.14524e-06
5.05158e-06
4.93872e-06
4.60804e-06
5.05332e-06
6.16572e-06
6.7925e-06
6.93712e-06
7.96761e-06
9.06707e-06
1.02399e-05
1.14834e-05
1.26552e-05
1.37821e-05
1.46366e-05
1.55792e-05
1.75699e-05
1.85964e-05
1.63026e-05
1.53005e-05
1.45042e-05
1.34399e-05
1.22227e-05
1.09185e-05
9.42056e-06
7.88887e-06
6.45001e-06
5.54855e-06
5.56499e-06
5.4235e-06
5.61967e-06
6.2152e-06
5.92432e-06
5.96217e-06
6.64396e-06
7.17949e-06
7.02374e-06
6.75854e-06
7.01803e-06
7.84634e-06
9.09838e-06
1.02966e-05
1.12909e-05
1.24509e-05
1.37305e-05
1.51227e-05
1.72802e-05
1.72598e-05
1.5194e-05
1.40777e-05
1.30727e-05
1.18546e-05
1.06343e-05
9.50775e-06
8.32797e-06
7.15889e-06
6.20365e-06
5.85852e-06
6.07157e-06
6.60528e-06
7.31415e-06
8.14528e-06
8.03311e-06
8.10001e-06
8.29656e-06
7.75196e-06
6.81873e-06
6.28813e-06
6.25457e-06
6.89997e-06
7.93257e-06
9.00266e-06
9.94875e-06
1.11325e-05
1.24809e-05
1.39268e-05
1.58279e-05
1.58488e-05
1.40162e-05
1.30408e-05
1.19127e-05
1.06822e-05
9.62692e-06
8.66445e-06
7.63809e-06
6.68391e-06
6.04321e-06
5.97945e-06
6.09815e-06
6.76838e-06
7.94183e-06
9.45525e-06
1.00511e-05
1.01472e-05
9.40062e-06
8.20275e-06
6.98053e-06
6.12428e-06
5.94276e-06
6.48979e-06
7.43283e-06
8.38028e-06
9.32584e-06
1.04429e-05
1.16388e-05
1.29279e-05
1.4168e-05
1.45895e-05
1.32623e-05
1.24174e-05
1.12504e-05
1.00901e-05
9.21054e-06
8.43039e-06
7.64253e-06
6.951e-06
6.52519e-06
6.23231e-06
5.80298e-06
6.28552e-06
7.48783e-06
9.27124e-06
1.05467e-05
1.05716e-05
9.15419e-06
7.78999e-06
6.97677e-06
6.49825e-06
6.40185e-06
6.73521e-06
7.33218e-06
7.95893e-06
8.66975e-06
9.55647e-06
1.0684e-05
1.20086e-05
1.28167e-05
1.32706e-05
1.22845e-05
1.12137e-05
1.01085e-05
9.26553e-06
8.60373e-06
8.06926e-06
7.60316e-06
7.24249e-06
7.07131e-06
6.67473e-06
5.8805e-06
5.90155e-06
6.88612e-06
8.36788e-06
9.61992e-06
9.54591e-06
8.37968e-06
7.48826e-06
7.35812e-06
7.16806e-06
6.97854e-06
6.9911e-06
7.20477e-06
7.50202e-06
7.94537e-06
8.66072e-06
9.73061e-06
1.10792e-05
1.15194e-05
1.17434e-05
1.10813e-05
9.79386e-06
8.88575e-06
8.3742e-06
8.02842e-06
7.84344e-06
7.72544e-06
7.61293e-06
7.47957e-06
6.94397e-06
6.19463e-06
5.98963e-06
6.5908e-06
7.62821e-06
8.55362e-06
8.53558e-06
7.93833e-06
7.42789e-06
7.57929e-06
7.61404e-06
7.49919e-06
7.34613e-06
7.29118e-06
7.27764e-06
7.35384e-06
7.74429e-06
8.73077e-06
1.01078e-05
1.02409e-05
9.86943e-06
9.66542e-06
8.37195e-06
7.78639e-06
7.50745e-06
7.39849e-06
7.49618e-06
7.69141e-06
7.85458e-06
7.73459e-06
7.02696e-06
6.4244e-06
6.49593e-06
6.89063e-06
7.37403e-06
7.82685e-06
8.04719e-06
7.97937e-06
7.42222e-06
7.31676e-06
7.52096e-06
7.67665e-06
7.54711e-06
7.42244e-06
7.2016e-06
6.92892e-06
6.92298e-06
7.77302e-06
9.17174e-06
8.97652e-06
8.15393e-06
8.29387e-06
6.97261e-06
6.60368e-06
6.7324e-06
6.95797e-06
7.20442e-06
7.55769e-06
7.89886e-06
7.95685e-06
7.33004e-06
6.86284e-06
7.15771e-06
7.53356e-06
7.56551e-06
7.57487e-06
7.93212e-06
8.18546e-06
7.55406e-06
7.08764e-06
7.08386e-06
7.37316e-06
7.40172e-06
7.30673e-06
6.94474e-06
6.32826e-06
6.05479e-06
6.76702e-06
8.19584e-06
7.70981e-06
6.21995e-06
6.8638e-06
5.39685e-06
5.28258e-06
5.77103e-06
6.1857e-06
6.59674e-06
7.0703e-06
7.50603e-06
7.74262e-06
7.34547e-06
7.21309e-06
7.62955e-06
7.89887e-06
7.52563e-06
7.24973e-06
7.58702e-06
7.94817e-06
7.56021e-06
7.02837e-06
6.62691e-06
6.60491e-06
6.58693e-06
6.52798e-06
6.19488e-06
5.61352e-06
5.23633e-06
5.65396e-06
6.96748e-06
6.02534e-06
4.63576e-06
5.64285e-06
4.34832e-06
4.79739e-06
5.32612e-06
5.85661e-06
6.44739e-06
7.03245e-06
7.55525e-06
7.86987e-06
7.67818e-06
7.80123e-06
8.21534e-06
8.31019e-06
7.89495e-06
7.5126e-06
7.64749e-06
7.94852e-06
7.88811e-06
7.54896e-06
6.91651e-06
6.54428e-06
6.28763e-06
6.20241e-06
5.99256e-06
5.59534e-06
5.04472e-06
4.6569e-06
5.70512e-06
4.60323e-06
1.99989e-06
3.59136e-06
3.20353e-06
3.98187e-06
4.5818e-06
5.33976e-06
6.06502e-06
6.80271e-06
7.5149e-06
8.04293e-06
8.14745e-06
8.22638e-06
8.44613e-06
8.55123e-06
8.47459e-06
8.11385e-06
8.07312e-06
8.26108e-06
8.2027e-06
7.76767e-06
6.99291e-06
6.42674e-06
6.01044e-06
5.77885e-06
5.38602e-06
4.75826e-06
4.03279e-06
3.08913e-06
3.40425e-06
2.04338e-06
1.19368e-06
2.18938e-06
3.17622e-06
3.93365e-06
4.93073e-06
5.84502e-06
6.73761e-06
7.69128e-06
8.63392e-06
9.25675e-06
9.54983e-06
9.59238e-06
9.68983e-06
9.87032e-06
9.81512e-06
9.33577e-06
9.41346e-06
9.83365e-06
9.80734e-06
9.02519e-06
7.94941e-06
7.13579e-06
6.53137e-06
6.02899e-06
5.24821e-06
4.1405e-06
2.78792e-06
1.79113e-06
1.09226e-06
4.74854e-07
0.00055893
0.000652546
0.000161796
0.000144896
6.102e-05
5.19789e-05
3.28532e-05
2.64414e-05
1.98902e-05
1.63727e-05
1.43873e-05
1.36583e-05
1.34882e-05
1.27511e-05
1.18031e-05
1.10885e-05
1.00762e-05
8.9555e-06
8.00946e-06
7.17921e-06
6.4727e-06
6.34774e-06
6.19109e-06
5.94761e-06
5.48821e-06
4.73889e-06
3.89618e-06
3.0583e-06
2.457e-06
1.39307e-06
0.000648593
0.000156722
0.000112485
6.52126e-05
2.96923e-05
2.55606e-05
1.50588e-05
1.15155e-05
8.30685e-06
6.65725e-06
5.68767e-06
4.08517e-06
2.88582e-06
3.18861e-06
3.33139e-06
3.14913e-06
3.06112e-06
3.06753e-06
2.64701e-06
2.17013e-06
2.27742e-06
2.79258e-06
3.32477e-06
3.64248e-06
3.60983e-06
3.25962e-06
2.85904e-06
2.50016e-06
3.71958e-06
3.11607e-06
0.000159384
0.000113484
5.23284e-05
5.34072e-05
2.46862e-05
2.31314e-05
1.45778e-05
1.13344e-05
8.54767e-06
7.32056e-06
6.88692e-06
6.15159e-06
4.53015e-06
3.65991e-06
3.34154e-06
2.98574e-06
2.70241e-06
2.42739e-06
2.00991e-06
2.12143e-06
2.6868e-06
3.98089e-06
4.94704e-06
5.00373e-06
5.07195e-06
4.86645e-06
4.08835e-06
3.70628e-06
4.64183e-06
5.77112e-06
0.00014463
6.36155e-05
5.17111e-05
3.86364e-05
2.0631e-05
1.80663e-05
1.15845e-05
9.33782e-06
7.47457e-06
6.54949e-06
5.94472e-06
5.72231e-06
4.20445e-06
3.3529e-06
2.94256e-06
2.81039e-06
2.89104e-06
2.36876e-06
2.18545e-06
2.83188e-06
3.85897e-06
4.52578e-06
4.30776e-06
4.0933e-06
4.62089e-06
4.72537e-06
4.04736e-06
3.91204e-06
3.8856e-06
6.62119e-06
6.32732e-05
2.81036e-05
2.21231e-05
2.06519e-05
1.28255e-05
1.21294e-05
8.67317e-06
7.26409e-06
5.95062e-06
5.14957e-06
4.58419e-06
4.26936e-06
3.16308e-06
3.31138e-06
3.30891e-06
3.30866e-06
3.2274e-06
2.57435e-06
2.48659e-06
3.52942e-06
4.17226e-06
3.52866e-06
2.49708e-06
2.44246e-06
3.17168e-06
3.69593e-06
3.96759e-06
4.37655e-06
3.89347e-06
8.34911e-06
5.76135e-05
2.36094e-05
2.08544e-05
1.79284e-05
1.20617e-05
1.02978e-05
7.51331e-06
6.02629e-06
4.75657e-06
4.15376e-06
3.90609e-06
3.50508e-06
2.89533e-06
3.21177e-06
3.40862e-06
3.46559e-06
3.33438e-06
2.83305e-06
2.97493e-06
3.39507e-06
3.16777e-06
2.13236e-06
1.29938e-06
1.35916e-06
1.78682e-06
2.50746e-06
3.36382e-06
4.10521e-06
3.47126e-06
9.16499e-06
4.04017e-05
1.30969e-05
1.24341e-05
1.13578e-05
8.75452e-06
7.76397e-06
6.24427e-06
5.22361e-06
4.30535e-06
3.82308e-06
3.71654e-06
3.58803e-06
3.01337e-06
3.46451e-06
3.87724e-06
3.73742e-06
3.4581e-06
3.33183e-06
3.6198e-06
3.25831e-06
2.54583e-06
1.90254e-06
1.43899e-06
1.25598e-06
1.42177e-06
2.44078e-06
3.36172e-06
4.05178e-06
3.49125e-06
1.02643e-05
3.62032e-05
9.44426e-06
9.68976e-06
9.12682e-06
7.48375e-06
6.6646e-06
5.71173e-06
4.97727e-06
4.25009e-06
3.81055e-06
3.62426e-06
3.34698e-06
2.5142e-06
3.29046e-06
4.00158e-06
3.58954e-06
3.10792e-06
3.24164e-06
3.56774e-06
3.04156e-06
2.25067e-06
1.83974e-06
1.49659e-06
1.288e-06
1.63282e-06
2.67335e-06
3.35844e-06
3.88872e-06
3.4068e-06
1.11397e-05
3.09956e-05
6.44943e-06
6.79212e-06
6.60915e-06
6.06647e-06
5.68115e-06
5.1689e-06
4.73437e-06
4.26679e-06
3.88768e-06
3.49219e-06
2.61776e-06
1.7927e-06
3.82179e-06
4.81078e-06
4.2034e-06
2.97606e-06
2.53543e-06
2.95533e-06
2.69905e-06
2.11257e-06
1.78489e-06
1.54618e-06
1.59225e-06
2.05827e-06
2.82984e-06
3.13649e-06
3.39872e-06
3.11857e-06
1.19328e-05
2.80163e-05
4.65875e-06
5.04537e-06
4.84643e-06
4.80513e-06
4.79656e-06
4.56491e-06
4.44135e-06
4.22379e-06
3.82388e-06
3.22824e-06
2.25163e-06
3.26968e-06
5.578e-06
6.4617e-06
5.71835e-06
4.17936e-06
2.44714e-06
2.26709e-06
2.35194e-06
2.04065e-06
1.85431e-06
1.8294e-06
1.99787e-06
2.25929e-06
2.60041e-06
2.60435e-06
2.59364e-06
2.64202e-06
1.25493e-05
2.59653e-05
3.47008e-06
3.66546e-06
3.37803e-06
3.33712e-06
3.53482e-06
3.79709e-06
4.15327e-06
4.2541e-06
3.83773e-06
3.40077e-06
3.32519e-06
5.18165e-06
6.77257e-06
7.44832e-06
7.20164e-06
5.92204e-06
3.70023e-06
2.22746e-06
2.1411e-06
2.19918e-06
2.29285e-06
2.37451e-06
2.48163e-06
2.53825e-06
2.56848e-06
2.29101e-06
2.10495e-06
2.25772e-06
1.28897e-05
2.45513e-05
2.77663e-06
2.43825e-06
2.08753e-06
2.03267e-06
2.34723e-06
2.97491e-06
3.69184e-06
4.30527e-06
4.29963e-06
4.04655e-06
4.72279e-06
6.02987e-06
6.46208e-06
6.76179e-06
6.72744e-06
5.81726e-06
4.4207e-06
2.84857e-06
2.30234e-06
2.64899e-06
2.839e-06
2.87519e-06
2.79069e-06
2.74152e-06
2.66102e-06
2.22343e-06
2.13425e-06
2.07163e-06
1.32582e-05
2.30549e-05
2.63318e-06
2.19633e-06
1.92388e-06
1.75228e-06
1.72065e-06
2.19333e-06
2.84831e-06
3.70674e-06
3.91751e-06
4.02862e-06
5.69041e-06
6.21136e-06
6.06045e-06
5.90343e-06
5.73465e-06
5.07556e-06
4.42124e-06
3.63935e-06
2.28786e-06
2.57725e-06
2.74708e-06
2.55853e-06
2.25675e-06
2.08121e-06
2.07797e-06
1.83149e-06
2.03191e-06
2.11885e-06
1.3982e-05
2.1527e-05
2.56239e-06
2.42105e-06
2.3453e-06
2.24212e-06
2.13429e-06
2.2979e-06
2.64928e-06
3.49214e-06
3.85765e-06
4.70614e-06
5.47227e-06
5.20833e-06
5.02466e-06
4.59871e-06
4.21716e-06
3.49316e-06
3.15939e-06
3.11089e-06
2.42858e-06
2.24534e-06
2.66376e-06
2.34098e-06
1.87411e-06
1.71708e-06
1.80572e-06
1.69525e-06
1.93039e-06
2.2217e-06
1.4824e-05
2.03751e-05
2.48292e-06
2.32007e-06
2.30747e-06
2.23847e-06
2.29935e-06
2.47661e-06
2.84655e-06
3.65514e-06
4.42289e-06
4.78922e-06
4.39894e-06
3.8111e-06
3.55184e-06
3.87691e-06
3.46514e-06
2.75313e-06
2.65997e-06
2.93129e-06
3.16139e-06
3.39098e-06
3.20409e-06
2.36233e-06
1.66189e-06
1.44386e-06
1.53412e-06
1.48975e-06
1.69305e-06
2.20397e-06
1.53815e-05
1.954e-05
2.74629e-06
2.44762e-06
2.38004e-06
2.38918e-06
2.60345e-06
2.78796e-06
3.19534e-06
4.0307e-06
4.5569e-06
4.23044e-06
3.40704e-06
2.91387e-06
2.98712e-06
3.57622e-06
3.55361e-06
2.7763e-06
2.82617e-06
3.28512e-06
3.82694e-06
3.90055e-06
3.47065e-06
2.42243e-06
1.52509e-06
1.23134e-06
1.39991e-06
1.4523e-06
1.54117e-06
1.88514e-06
1.52509e-05
1.83794e-05
2.70754e-06
2.52165e-06
2.41116e-06
2.49738e-06
2.69459e-06
2.7576e-06
3.16521e-06
3.75278e-06
3.6577e-06
3.55777e-06
3.63136e-06
3.34895e-06
3.56229e-06
4.17217e-06
4.17038e-06
3.62251e-06
3.59297e-06
3.79016e-06
3.47848e-06
3.0556e-06
3.47873e-06
2.43233e-06
1.39833e-06
1.12249e-06
1.46813e-06
1.71941e-06
1.66883e-06
1.82124e-06
1.51477e-05
1.72713e-05
2.71597e-06
2.75741e-06
2.57494e-06
2.68655e-06
2.90599e-06
3.0536e-06
3.40064e-06
3.60722e-06
3.36355e-06
3.04431e-06
3.50425e-06
3.91936e-06
4.19047e-06
4.70074e-06
4.80817e-06
4.66355e-06
4.47781e-06
3.59345e-06
2.32798e-06
3.38551e-06
4.04219e-06
3.19788e-06
2.40641e-06
2.05156e-06
2.04383e-06
2.38284e-06
2.31522e-06
2.40248e-06
1.53181e-05
1.62417e-05
2.95822e-06
3.0869e-06
3.0699e-06
3.33021e-06
3.50104e-06
3.48331e-06
3.58768e-06
3.59687e-06
3.45456e-06
3.26e-06
2.86264e-06
3.65243e-06
4.51437e-06
5.38883e-06
5.43281e-06
5.12365e-06
4.51743e-06
2.82665e-06
1.99518e-06
3.48561e-06
4.0924e-06
3.58568e-06
2.90251e-06
2.57356e-06
2.49851e-06
2.87929e-06
2.89251e-06
2.93035e-06
1.50471e-05
1.52687e-05
3.14429e-06
2.99414e-06
3.30288e-06
3.52187e-06
3.29516e-06
2.99683e-06
2.89983e-06
2.87865e-06
2.77396e-06
2.6352e-06
1.79226e-06
2.4541e-06
4.12506e-06
5.55342e-06
5.88378e-06
5.45346e-06
3.86998e-06
1.86245e-06
2.09796e-06
2.93287e-06
3.31328e-06
3.10851e-06
2.7393e-06
2.67002e-06
2.85656e-06
3.12265e-06
2.84528e-06
2.996e-06
1.41593e-05
1.44369e-05
3.45634e-06
3.05456e-06
3.61279e-06
3.70726e-06
2.92386e-06
2.33726e-06
2.21142e-06
2.22355e-06
2.30901e-06
2.38903e-06
1.74492e-06
9.87292e-07
2.23411e-06
3.9602e-06
4.98137e-06
4.52969e-06
2.39967e-06
1.68947e-06
2.55828e-06
2.71966e-06
2.67099e-06
2.49878e-06
2.3914e-06
2.76433e-06
3.38239e-06
3.5516e-06
3.15475e-06
3.04311e-06
1.28639e-05
1.33853e-05
3.63694e-06
3.718e-06
4.2458e-06
3.78478e-06
2.76057e-06
2.06989e-06
1.77744e-06
1.79821e-06
2.07622e-06
2.43634e-06
2.61035e-06
1.93206e-06
1.5226e-06
2.40696e-06
3.09169e-06
2.68334e-06
1.68593e-06
2.19341e-06
2.53595e-06
2.32609e-06
2.13586e-06
1.94626e-06
1.96383e-06
2.46881e-06
3.3708e-06
3.89891e-06
3.70521e-06
3.16596e-06
1.18434e-05
1.23733e-05
3.61333e-06
4.2807e-06
4.24831e-06
3.29811e-06
2.27611e-06
1.61644e-06
1.31383e-06
1.50674e-06
1.90191e-06
2.42769e-06
3.02303e-06
2.88262e-06
2.86303e-06
3.24218e-06
2.9917e-06
2.05093e-06
2.12784e-06
2.89961e-06
2.6981e-06
2.07127e-06
1.75093e-06
1.53964e-06
1.54526e-06
1.93556e-06
2.98197e-06
3.92311e-06
3.99223e-06
3.35323e-06
1.0985e-05
1.13194e-05
3.64621e-06
4.39619e-06
3.64351e-06
2.6679e-06
1.88464e-06
1.34202e-06
1.02342e-06
1.32062e-06
1.93598e-06
2.61509e-06
2.91889e-06
2.98477e-06
3.61565e-06
3.89828e-06
2.96608e-06
2.00409e-06
2.8283e-06
3.47431e-06
3.36063e-06
2.48809e-06
1.56828e-06
1.27262e-06
1.34435e-06
1.6451e-06
2.5935e-06
3.80148e-06
4.20045e-06
3.47891e-06
1.00816e-05
9.89737e-06
3.72167e-06
4.24296e-06
3.05678e-06
2.09791e-06
1.57779e-06
1.58628e-06
1.50565e-06
1.57161e-06
2.22403e-06
2.90191e-06
2.78561e-06
2.90113e-06
3.79215e-06
3.97886e-06
2.85741e-06
2.3732e-06
3.04381e-06
3.65264e-06
4.15607e-06
3.60817e-06
2.21665e-06
1.505e-06
1.63654e-06
2.05873e-06
2.91288e-06
3.91216e-06
4.55739e-06
3.75832e-06
9.1995e-06
8.57611e-06
3.65769e-06
3.95671e-06
2.7598e-06
2.09447e-06
2.00325e-06
2.25897e-06
2.44968e-06
2.61545e-06
2.8761e-06
2.88683e-06
2.3086e-06
2.72809e-06
3.49912e-06
3.63052e-06
2.72977e-06
2.39869e-06
2.77205e-06
3.36732e-06
4.152e-06
4.35982e-06
3.63583e-06
2.89711e-06
2.87524e-06
3.48534e-06
4.11039e-06
4.21331e-06
4.70148e-06
4.09219e-06
8.21609e-06
7.27237e-06
3.88546e-06
3.89025e-06
3.01568e-06
3.16748e-06
3.38159e-06
3.6201e-06
3.916e-06
4.38358e-06
4.62741e-06
3.89106e-06
2.21544e-06
2.46679e-06
3.24165e-06
3.9574e-06
3.35208e-06
3.10745e-06
3.60226e-06
4.06599e-06
4.67936e-06
4.95335e-06
5.13138e-06
5.21077e-06
5.33515e-06
5.68308e-06
5.55815e-06
4.55198e-06
4.53216e-06
4.47376e-06
6.95388e-06
6.12181e-06
4.31677e-06
3.74261e-06
3.53642e-06
3.77052e-06
3.6985e-06
3.72116e-06
3.86747e-06
4.3424e-06
4.74004e-06
4.13459e-06
2.17814e-06
1.72995e-06
2.78097e-06
3.40431e-06
2.82426e-06
2.49892e-06
3.15303e-06
3.47398e-06
3.49303e-06
3.45704e-06
3.91791e-06
4.69421e-06
5.4073e-06
5.52528e-06
5.0055e-06
3.80258e-06
3.48794e-06
4.49124e-06
5.72267e-06
4.03907e-06
4.44122e-06
3.21434e-06
3.64054e-06
3.47511e-06
3.41793e-06
3.52984e-06
3.79199e-06
4.22877e-06
4.80325e-06
4.57354e-06
3.69472e-06
3.34476e-06
3.19205e-06
2.79988e-06
2.18214e-06
2.03399e-06
2.48767e-06
2.71624e-06
2.69744e-06
2.69595e-06
3.10219e-06
3.48857e-06
3.98691e-06
4.0691e-06
3.61641e-06
3.10899e-06
2.58944e-06
3.87668e-06
3.43273e-06
2.36737e-06
3.26686e-06
3.68063e-06
4.32934e-06
4.9127e-06
5.58932e-06
6.34633e-06
7.26373e-06
8.2193e-06
8.97807e-06
9.11588e-06
8.71725e-06
8.33438e-06
8.04229e-06
7.87917e-06
7.53076e-06
7.62362e-06
7.85091e-06
7.91192e-06
7.72193e-06
7.02497e-06
6.55492e-06
6.03595e-06
5.73426e-06
5.25657e-06
4.43875e-06
3.46319e-06
2.49905e-06
1.99208e-06
1.34201e-06
0.000543564
0.000162274
0.000108673
9.10605e-05
5.12038e-05
4.55092e-05
3.07399e-05
2.4486e-05
1.84369e-05
1.50581e-05
1.31796e-05
1.27429e-05
1.23177e-05
1.07112e-05
9.64886e-06
8.939e-06
8.27003e-06
7.72732e-06
7.22823e-06
6.77488e-06
5.81729e-06
5.6086e-06
6.04055e-06
6.44665e-06
6.38326e-06
5.60883e-06
4.69248e-06
3.51158e-06
2.5724e-06
2.07378e-06
0.000160081
0.000114641
5.48735e-05
5.46242e-05
2.37186e-05
2.12554e-05
1.31896e-05
1.06997e-05
8.72147e-06
7.25825e-06
5.32931e-06
3.18157e-06
2.76544e-06
3.53154e-06
3.70103e-06
3.17371e-06
2.57927e-06
2.71336e-06
2.47461e-06
1.89651e-06
1.12613e-06
1.42013e-06
2.50985e-06
3.03984e-06
2.88704e-06
2.46647e-06
2.13839e-06
2.21415e-06
2.65088e-06
2.7596e-06
0.000107469
5.46644e-05
3.11234e-05
4.00052e-05
2.03603e-05
1.89367e-05
1.2236e-05
1.02176e-05
9.06975e-06
8.76288e-06
7.42733e-06
5.10029e-06
4.01552e-06
3.86878e-06
4.03711e-06
3.86791e-06
3.89662e-06
3.73695e-06
3.44832e-06
3.07428e-06
2.95901e-06
3.15686e-06
4.7671e-06
5.30731e-06
4.1222e-06
3.00592e-06
3.33948e-06
4.29576e-06
3.83593e-06
4.91261e-06
9.28e-05
5.3247e-05
3.90154e-05
3.38945e-05
1.91771e-05
1.64894e-05
1.10255e-05
8.69096e-06
7.28354e-06
7.31172e-06
7.29226e-06
6.16334e-06
5.17244e-06
4.13049e-06
3.68233e-06
3.44869e-06
3.43749e-06
3.12329e-06
3.1025e-06
2.6749e-06
2.04624e-06
3.99544e-06
6.14393e-06
6.22634e-06
4.98831e-06
3.47796e-06
3.29051e-06
4.17494e-06
3.79283e-06
5.71759e-06
5.42994e-05
2.35348e-05
1.87838e-05
1.82344e-05
1.21334e-05
1.12119e-05
8.53434e-06
6.94077e-06
5.84464e-06
6.32927e-06
7.73777e-06
7.10717e-06
5.112e-06
3.88397e-06
3.41371e-06
3.18457e-06
3.13806e-06
2.95437e-06
2.94163e-06
3.01299e-06
4.41017e-06
5.93352e-06
6.27306e-06
6.16811e-06
5.67494e-06
4.45605e-06
4.16554e-06
3.82781e-06
4.23255e-06
7.37462e-06
5.06243e-05
2.11637e-05
1.82195e-05
1.56255e-05
1.0919e-05
9.27151e-06
7.0117e-06
5.31615e-06
4.30697e-06
4.66588e-06
5.61643e-06
4.69132e-06
2.85612e-06
2.59346e-06
2.57355e-06
2.66098e-06
3.03894e-06
2.8411e-06
2.17163e-06
3.0563e-06
3.84616e-06
3.61193e-06
2.75211e-06
3.17833e-06
3.87703e-06
4.10541e-06
4.31343e-06
2.92288e-06
4.06929e-06
8.13761e-06
3.76136e-05
1.21875e-05
1.14275e-05
1.05205e-05
8.30204e-06
7.22078e-06
5.61722e-06
4.53241e-06
3.94041e-06
4.0391e-06
4.51309e-06
4.01253e-06
2.43397e-06
2.54904e-06
2.96556e-06
2.82522e-06
2.69516e-06
2.21684e-06
2.3295e-06
3.01372e-06
2.4756e-06
1.69763e-06
9.83091e-07
1.45398e-06
2.96561e-06
4.00664e-06
4.04149e-06
2.45443e-06
4.099e-06
9.15899e-06
3.36996e-05
9.04533e-06
8.71972e-06
8.52745e-06
7.16041e-06
6.29979e-06
5.18861e-06
4.5293e-06
3.97305e-06
3.79197e-06
3.99928e-06
3.6584e-06
2.33942e-06
2.82302e-06
2.98363e-06
2.29437e-06
1.87046e-06
1.96635e-06
2.9923e-06
2.92725e-06
1.95313e-06
1.40653e-06
1.06446e-06
1.21152e-06
2.67677e-06
3.48496e-06
3.43727e-06
2.26839e-06
3.90247e-06
1.0015e-05
2.91141e-05
6.53192e-06
6.09481e-06
5.86733e-06
5.55345e-06
5.47721e-06
4.94522e-06
4.4617e-06
3.97865e-06
3.68056e-06
3.6055e-06
2.80323e-06
2.11499e-06
3.19136e-06
2.91405e-06
1.88199e-06
1.46753e-06
1.25712e-06
2.36074e-06
2.55772e-06
1.90501e-06
1.53926e-06
1.34932e-06
1.62757e-06
2.50972e-06
2.88096e-06
2.96891e-06
2.22088e-06
3.51293e-06
1.09231e-05
2.60117e-05
5.13784e-06
4.85646e-06
4.28246e-06
3.87358e-06
4.18672e-06
4.33639e-06
4.16052e-06
3.84086e-06
3.42814e-06
3.16108e-06
2.58339e-06
3.16599e-06
4.42475e-06
4.62758e-06
3.67414e-06
3.09128e-06
2.47593e-06
1.90005e-06
1.99935e-06
1.74314e-06
1.58846e-06
1.67437e-06
2.02426e-06
2.23306e-06
2.1906e-06
2.15227e-06
1.59461e-06
2.96226e-06
1.17819e-05
2.39857e-05
4.15131e-06
3.89953e-06
3.70349e-06
3.01292e-06
2.91942e-06
3.56493e-06
4.07883e-06
4.08998e-06
3.55841e-06
3.83465e-06
4.6118e-06
5.59609e-06
6.75201e-06
7.29024e-06
6.83184e-06
5.92438e-06
4.50533e-06
3.43288e-06
2.52595e-06
2.02289e-06
1.95063e-06
2.07833e-06
2.1512e-06
1.87165e-06
1.70383e-06
1.57547e-06
1.2073e-06
2.43488e-06
1.22463e-05
2.27431e-05
3.27549e-06
2.80664e-06
2.78711e-06
2.28551e-06
2.00358e-06
2.85066e-06
3.73866e-06
3.91998e-06
4.0805e-06
5.18643e-06
5.67319e-06
6.86075e-06
7.80523e-06
8.26634e-06
8.26353e-06
7.11183e-06
5.37471e-06
4.24499e-06
3.56417e-06
2.69776e-06
2.21269e-06
1.99947e-06
1.95555e-06
1.73177e-06
1.66975e-06
1.61774e-06
1.31558e-06
1.8814e-06
1.25996e-05
2.16253e-05
2.65887e-06
2.14681e-06
2.04868e-06
1.85692e-06
1.72385e-06
2.37406e-06
3.37443e-06
3.24035e-06
4.23279e-06
5.71494e-06
6.6843e-06
8.23187e-06
8.91336e-06
8.97966e-06
8.83547e-06
7.93772e-06
6.66903e-06
5.28231e-06
4.10552e-06
3.12137e-06
1.69221e-06
1.53894e-06
1.51624e-06
1.32105e-06
1.3075e-06
1.34848e-06
1.05773e-06
1.85634e-06
1.32576e-05
2.04506e-05
2.6269e-06
2.09011e-06
1.99067e-06
1.96986e-06
2.02898e-06
2.50272e-06
3.29504e-06
3.29464e-06
4.02506e-06
5.43717e-06
6.98815e-06
7.8883e-06
8.51681e-06
8.39537e-06
8.24586e-06
7.23446e-06
6.54618e-06
5.73392e-06
3.99924e-06
3.16947e-06
2.09236e-06
1.42652e-06
1.32415e-06
1.31728e-06
1.28607e-06
1.05211e-06
5.84959e-07
1.94501e-06
1.39078e-05
1.92015e-05
2.798e-06
2.01784e-06
1.99936e-06
2.00583e-06
2.16362e-06
2.41361e-06
2.6267e-06
3.35815e-06
4.67365e-06
5.86427e-06
6.1935e-06
6.07114e-06
6.51664e-06
7.51156e-06
7.51825e-06
6.41035e-06
5.95436e-06
5.81852e-06
5.19178e-06
4.26927e-06
2.86873e-06
1.81672e-06
1.27882e-06
1.21606e-06
1.08813e-06
8.13661e-07
5.00069e-07
1.94082e-06
1.43368e-05
1.82928e-05
2.98758e-06
1.76505e-06
1.82183e-06
1.96127e-06
2.25505e-06
2.42162e-06
2.74304e-06
3.76351e-06
5.04351e-06
5.692e-06
5.56733e-06
5.2243e-06
5.74363e-06
6.96378e-06
7.14218e-06
6.15161e-06
5.7605e-06
5.96678e-06
5.56613e-06
4.55626e-06
3.20464e-06
1.9569e-06
1.40208e-06
1.36587e-06
1.21965e-06
1.07291e-06
7.48293e-07
1.72813e-06
1.42439e-05
1.73072e-05
2.97017e-06
1.65318e-06
1.89275e-06
1.95913e-06
2.27623e-06
2.33468e-06
2.4532e-06
3.17325e-06
4.03197e-06
4.81315e-06
5.9246e-06
6.22456e-06
6.91382e-06
7.80836e-06
7.98277e-06
7.48732e-06
6.57137e-06
6.02624e-06
4.32714e-06
3.97693e-06
2.84611e-06
1.63481e-06
1.32431e-06
1.16242e-06
1.08536e-06
1.45647e-06
1.25868e-06
1.65799e-06
1.42339e-05
1.6393e-05
2.95193e-06
2.04796e-06
2.19044e-06
1.88424e-06
2.13423e-06
2.40824e-06
2.54209e-06
2.84497e-06
3.95834e-06
4.87064e-06
5.29078e-06
6.17032e-06
7.05952e-06
7.893e-06
8.25967e-06
7.54299e-06
6.34208e-06
5.14441e-06
3.99847e-06
4.00067e-06
2.53864e-06
2.11334e-06
1.82118e-06
1.17619e-06
1.13362e-06
2.17582e-06
2.11807e-06
2.34011e-06
1.41452e-05
1.52096e-05
3.09142e-06
2.245e-06
2.20167e-06
2.24247e-06
2.72378e-06
2.96769e-06
2.97246e-06
3.14698e-06
3.53589e-06
4.27789e-06
4.42812e-06
4.92858e-06
6.32435e-06
7.77506e-06
8.29659e-06
7.03977e-06
5.61247e-06
4.54291e-06
4.05809e-06
3.56016e-06
3.20382e-06
2.52413e-06
2.0495e-06
1.52564e-06
1.44895e-06
2.23936e-06
2.11066e-06
2.90508e-06
1.36311e-05
1.40034e-05
3.26403e-06
2.18495e-06
1.94974e-06
2.70237e-06
3.23696e-06
2.9195e-06
2.6508e-06
2.59042e-06
2.52588e-06
2.81536e-06
3.14927e-06
3.49367e-06
4.62832e-06
6.33848e-06
7.49158e-06
6.49687e-06
5.01825e-06
3.74775e-06
3.089e-06
2.85774e-06
2.89779e-06
2.58231e-06
2.4202e-06
2.5072e-06
2.20132e-06
2.04754e-06
1.70336e-06
3.15907e-06
1.26163e-05
1.31336e-05
3.6814e-06
2.46212e-06
2.0856e-06
3.4259e-06
3.78756e-06
2.70584e-06
2.04036e-06
1.95251e-06
1.891e-06
2.07589e-06
1.70493e-06
2.07962e-06
2.8768e-06
3.76568e-06
4.87528e-06
4.4642e-06
3.72573e-06
2.3122e-06
2.3531e-06
2.41765e-06
2.35367e-06
2.18789e-06
2.60287e-06
3.48579e-06
3.18041e-06
2.11116e-06
1.41979e-06
3.04968e-06
1.12797e-05
1.2002e-05
3.68363e-06
2.37721e-06
3.16913e-06
4.31563e-06
3.8047e-06
2.51196e-06
1.88558e-06
1.70193e-06
1.68614e-06
2.23321e-06
2.51757e-06
1.64233e-06
1.75977e-06
2.97275e-06
3.2045e-06
2.56109e-06
2.79186e-06