/*--------------------------------*- C++ -*----------------------------------*\
| =========                 |                                                 |
| \\      /  F ield         | OpenFOAM: The Open Source CFD Toolbox           |
|  \\    /   O peration     | Version:  v1906                                 |
|   \\  /    A nd           | Web:      www.OpenFOAM.com                      |
|    \\/     M anipulation  |                                                 |
\*---------------------------------------------------------------------------*/
FoamFile
{
    version     2.0;
    format      ascii;
    class       volScalarField;
    location    "84";
    object      omega;
}
// * * * * * * * * * * * * * * * * * * * * * * * * * * * * * * * * * * * * * //

dimensions      [0 0 -1 0 0 0 0];


internalField   nonuniform List<scalar> 
78750
(
316.103
31.4801
35.8428
32.503
31.8479
32.5661
35.212
37.0106
38.5537
40.078
39.8837
40.6058
40.2324
39.5314
38.2514
35.062
29.8637
23.9431
18.9604
13.5611
12.8944
10.3917
9.4787
7.93984
10.557
9.16995
8.65847
7.70923
6.6056
10.8628
5.88757
22.2131
34.0901
40.63
412.392
870.031
64.2591
47.9519
37.337
31.4975
28.7446
28.3364
27.3907
26.486
26.1495
26.309
26.6256
26.8847
26.9676
26.7752
26.221
25.2683
23.9857
22.5856
21.4083
20.7198
20.545
20.7572
21.2341
21.8986
22.6832
23.5009
24.276
24.9583
25.5188
25.9624
26.3301
26.4751
26.083
607.904
889.338
47.8582
23.2297
24.7855
23.8294
22.4095
19.1522
16.0642
23.0451
27.0182
26.8738
26.7504
26.7239
26.7672
26.8045
26.7977
26.7505
26.6923
26.6633
26.6976
26.809
26.9955
27.2474
27.5453
27.8626
28.1681
28.4203
28.5789
28.6078
28.4762
28.161
27.6333
26.806
25.0535
591.507
749.76
37.2575
26.8157
27.3633
28.0824
28.4851
27.8511
25.9353
22.6677
22.7412
23.6481
24.151
24.742
25.362
25.9024
26.3491
26.7367
27.0974
27.4506
27.8054
28.1609
28.5057
28.8218
29.0943
29.3061
29.4377
29.4751
29.4084
29.226
28.9083
28.4196
27.6018
26.0173
22.8599
582.103
632.773
24.1472
23.3977
26.0577
26.558
26.5879
26.1762
25.3504
24.3601
24.8689
25.8301
26.769
27.3866
27.7578
28.005
28.2032
28.3884
28.5725
28.7546
28.9277
29.0821
29.205
29.2806
29.2934
29.2299
29.077
28.8208
28.4486
27.947
27.2903
26.4148
25.1898
23.4264
20.7557
581.91
708.146
43.1002
30.158
24.7308
23.126
22.2292
20.783
15.1248
7.36782
16.5113
22.2742
23.8656
24.649
25.2384
25.669
25.9595
26.1618
26.3079
26.3979
26.4163
26.3597
26.2417
26.076
25.867
25.6081
25.2879
24.8939
24.4105
23.8167
23.0795
22.1463
20.958
19.467
17.5734
581.585
639.463
41.7886
31.6478
27.3072
26.3241
26.171
26.0406
25.6362
24.0679
21.6
20.2106
20.0308
20.3412
20.7361
21.0635
21.192
21.0801
20.7432
20.1915
19.6047
19.2716
19.1836
19.1801
19.1221
18.926
18.5671
18.0768
17.4995
16.8608
16.1706
15.4342
14.6587
13.8115
12.5675
573.756
472.131
18.8825
15.1525
15.5047
17.7165
20.0274
21.968
23.2636
23.7519
23.7705
23.5719
23.3639
23.2839
23.3491
23.5346
23.8316
24.2433
24.7653
25.3817
26.0718
26.7251
26.9848
26.4702
25.1541
23.3161
21.2986
19.3882
17.7713
16.613
16.0647
16.1047
16.5949
16.9251
16.1085
574.63
425.784
13.9549
15.0592
16.9403
19.5795
21.8344
23.5131
24.7149
25.5442
26.1277
26.5642
26.9241
27.2513
27.563
27.8563
28.1113
28.302
28.3997
28.3678
28.1437
27.605
26.5534
24.8164
22.4313
19.6962
16.9712
14.6058
12.7651
11.3787
10.5442
10.8826
12.5305
14.6304
15.8061
580.211
427.347
19.5696
20.2961
21.1448
21.8456
22.5289
23.0986
23.5321
23.8524
24.0831
24.2407
24.3316
24.3511
24.2913
24.1503
23.9036
23.4911
22.8817
22.0947
21.1479
20.0553
18.8581
17.6368
16.585
15.9386
15.6476
15.4456
15.1025
14.4976
13.8821
14.0699
15.0472
15.5446
14.996
580.281
443.043
20.182
20.0968
19.6696
19.4221
19.3549
19.3688
19.4172
19.4775
19.5363
19.585
19.6145
19.6135
19.5694
19.4766
19.3452
19.1983
19.0588
18.9361
18.8252
18.7168
18.5962
18.4403
18.2109
17.8726
17.4052
16.7757
15.8976
14.5817
12.4859
9.18832
5.94599
7.0686
10.1463
574.53
429.687
15.2158
16.1618
16.7978
17.3667
17.8816
18.3304
18.7092
19.0197
19.266
19.4532
19.5871
19.6745
19.7228
19.7389
19.7263
19.6856
19.6163
19.5186
19.3958
19.2531
19.0981
18.9377
18.7823
18.6283
18.4865
18.3427
18.2002
18.0202
17.7687
17.1602
15.7476
14.2334
12.7957
575.192
421.757
14.7121
17.2049
18.6916
19.6549
20.2796
20.6804
20.9261
21.0544
21.087
21.0379
20.9166
20.7303
20.4848
20.186
19.8413
19.4585
19.0448
18.6054
18.1457
17.6766
17.2186
16.799
16.4352
16.1227
15.8534
15.613
15.4369
15.3571
15.4909
15.6788
14.9738
12.9978
11.491
585.779
436.186
18.9302
20.0244
20.3524
20.4298
20.4088
20.3436
20.2518
20.1362
19.9938
19.8209
19.6155
19.3789
19.1144
18.8254
18.5148
18.1856
17.8413
17.4886
17.137
16.7923
16.4508
16.0978
15.7165
15.3019
14.8558
14.4058
14.0163
13.7811
13.7316
14.2714
15.2601
15.4852
15.8045
593.302
444.736
19.4901
19.9947
20.3121
20.5659
20.7565
20.8674
20.8856
20.8008
20.6045
20.2934
19.8804
19.3952
18.8691
18.3258
17.7863
17.2723
16.8023
16.3835
16.0091
15.6619
15.3255
14.9932
14.6675
14.3471
14.0109
13.6206
13.14
12.6147
12.3716
12.7204
13.4051
13.5273
13.6674
586.641
446.019
19.718
20.2018
20.4482
20.5842
20.6186
20.5481
20.3616
20.0382
19.5552
18.9195
18.2093
17.546
17.0077
16.5986
16.2823
16.0184
15.779
15.5496
15.3253
15.1041
14.8819
14.6539
14.4159
14.1647
13.8975
13.6137
13.3213
12.9792
12.0964
9.73119
7.63325
10.8326
14.3028
593.959
445.233
19.6691
20.2577
20.6041
20.8614
21.0317
21.0931
21.0135
20.7555
20.2955
19.6623
18.9627
18.3251
17.7993
17.3552
16.9482
16.5514
16.1551
15.7579
15.3687
15.0016
14.6677
14.3619
14.0432
13.634
13.0316
12.105
10.5764
8.37045
8.95085
12.1228
13.6885
14.7401
16.2971
591.53
444.576
19.6178
20.1476
20.4138
20.5811
20.6615
20.6386
20.4777
20.1356
19.577
18.8021
17.895
17.0519
16.4744
16.2074
16.1546
16.1941
16.2295
16.1984
16.0679
15.8283
15.4883
15.069
14.5877
14.0431
13.3481
12.239
10.0803
5.20281
6.47741
8.56402
12.7885
14.6278
15.053
578.888
444.159
19.7113
20.2903
20.589
20.8068
20.9713
21.0773
21.1024
21.0101
20.7499
20.2555
19.4614
18.3882
17.2505
16.3717
15.9481
15.9615
16.2289
16.5426
16.8024
16.9646
16.9892
16.8666
16.6287
16.3206
15.958
15.4725
14.6112
12.8416
9.65988
5.58285
7.23096
10.3254
11.5023
573.892
445.452
19.7398
20.1307
20.2902
20.3658
20.3754
20.3157
20.1797
19.9571
19.6203
19.1169
18.3713
17.3357
16.1519
15.2331
14.9944
15.6561
17.0003
18.1411
18.605
18.6391
18.4891
18.253
17.974
17.6733
17.3562
17.0123
16.5998
15.9934
14.8982
13.0168
11.35
10.8542
10.5914
575.41
447.769
20.0456
20.3325
20.4521
20.5046
20.4944
20.4154
20.2764
20.0939
19.8527
19.5001
18.95
18.0743
16.7767
15.1799
13.6314
12.6738
13.2039
15.2181
17.1316
18.005
18.1603
18.0536
17.8498
17.6134
17.3818
17.1659
16.9472
16.687
16.3253
15.7703
14.9859
14.0615
13.1695
581.144
449.681
19.9518
20.0523
20.0625
19.9974
19.8277
19.5298
19.1338
18.7124
18.2976
17.8607
17.3446
16.6782
15.7952
14.7194
13.6029
12.6242
12.0441
12.5137
14.2792
16.0337
16.8581
16.995
16.873
16.6713
16.4891
16.4256
16.5152
16.6737
16.7811
16.7721
16.6431
16.3768
16.1092
588.313
449.274
19.8269
19.9861
20.0337
19.9848
19.7989
19.4419
18.9394
18.3648
17.7492
17.0518
16.1986
15.1327
13.8861
12.6249
11.5605
10.8751
11.0105
12.2933
14.1395
15.6462
16.2694
16.3147
16.1564
15.9582
15.8644
16.0047
16.3333
16.6857
16.9444
17.0572
17.0511
16.9816
16.8983
589.646
446.943
19.4739
19.7242
19.7941
19.7359
19.5135
19.0816
18.4425
17.6823
16.8777
15.9862
14.8692
13.4111
11.7189
10.3027
10.4144
12.387
14.1949
15.0582
15.4971
15.7493
15.7527
15.6005
15.4301
15.3239
15.3689
15.6003
15.9256
16.2175
16.4016
16.4357
16.3306
16.1644
15.9523
585.683
445.218
19.4991
19.879
20.0281
20.0599
19.9483
19.6232
19.0034
18.1025
17.0767
16.0439
14.9299
13.542
11.801
10.0953
9.909
12.3859
15.3283
16.9168
17.2865
17.0076
16.3963
15.6861
15.0489
14.6042
14.4481
14.575
14.8391
15.0836
15.2264
15.2348
15.1257
14.9785
14.7017
581.485
443.791
19.3509
19.7854
19.9797
20.0927
20.1215
20.0116
19.6612
18.9587
17.9098
16.7096
15.5558
14.433
13.1474
11.5771
10.0297
9.89783
12.2256
15.1466
17.2689
18.4549
18.8167
18.5701
17.9855
17.2894
16.6545
16.2001
15.9432
15.806
15.6887
15.5178
15.261
14.9112
14.2092
578.394
443.966
19.4489
19.8519
20.0196
20.1224
20.1827
20.1883
20.094
19.81
19.2079
18.2185
16.9779
15.7539
14.6875
13.7045
12.6672
11.5877
10.8849
11.2818
12.8024
14.7335
16.5364
17.9449
18.8766
19.3785
19.5358
19.4421
19.1886
18.8548
18.4894
18.0978
17.6472
17.0422
15.8652
578.479
444.554
19.6103
20.0093
20.1588
20.2308
20.252
20.2256
20.1463
19.9962
19.7251
19.2309
18.4044
17.2794
16.0893
15.0594
14.2264
13.5189
12.8699
12.2985
11.9423
11.9823
12.4769
13.2992
14.2762
15.3184
16.3712
17.3553
18.1612
18.6885
18.9202
18.9098
18.6917
18.2143
17.105
581.393
446.31
19.8911
20.2526
20.3871
20.4425
20.4371
20.3661
20.2262
20.0282
19.77
19.4146
18.8821
18.0724
16.9941
15.8489
14.8449
14.048
13.4227
12.9115
12.4777
12.105
11.7424
11.4307
11.3443
11.5366
12.0248
12.8343
13.9403
15.1998
16.3314
17.113
17.51
17.513
16.9252
585.237
447.731
20.1387
20.4994
20.6427
20.7008
20.683
20.5721
20.3598
20.0735
19.735
19.3281
18.7999
18.0665
17.0647
15.8796
14.7226
13.7401
12.9328
12.2166
11.5375
11.213
11.896
12.6013
12.6795
12.4073
12.001
11.6138
11.4584
11.8169
12.8329
14.1758
15.2777
15.9024
16.0386
586.656
449.489
20.4194
20.7277
20.8536
20.901
20.8685
20.73
20.4813
20.1626
19.8019
19.3879
18.8774
18.1984
17.2732
16.1122
14.876
13.7309
12.6987
11.6849
10.6685
10.2419
11.4883
13.2271
14.0454
14.1544
13.891
13.3742
12.6632
11.9018
11.5078
12.0357
13.1322
13.9813
14.4898
584.187
450.223
20.5987
20.9017
21.0247
21.0647
21.0112
20.828
20.5182
20.1467
19.7566
19.3409
18.867
18.2859
17.5358
16.5802
15.4758
14.3557
13.2813
12.1906
11.0078
9.87366
9.58865
10.7155
12.1484
13.1853
13.756
13.9108
13.708
13.2099
12.6055
12.3357
12.5741
12.9119
13.0457
579.928
451.321
20.8218
21.0852
21.1973
21.2405
21.1986
21.0279
20.7225
20.3476
19.9577
19.5525
19.1049
18.5843
17.9645
17.2332
16.4036
15.5293
14.6616
13.7865
12.8376
11.756
10.6137
9.75304
9.54368
9.95522
10.6829
11.418
11.9642
12.2464
12.2963
12.2631
12.2844
12.2975
11.9973
576.568
451.809
20.8564
21.0779
21.1696
21.2025
21.1604
21.0012
20.7121
20.3465
19.9701
19.6007
19.2179
18.7913
18.2985
17.7395
17.1375
16.5321
15.9549
15.4013
14.836
14.2156
13.5027
12.6944
11.8522
11.1019
10.5824
10.3514
10.3514
10.4889
10.6998
10.9569
11.2185
11.3566
11.0058
575.646
453.452
21.0745
21.2063
21.2551
21.261
21.2071
21.0633
20.8144
20.4806
20.1051
19.7192
19.3258
18.9109
18.4599
17.974
17.4753
17.0021
16.5834
16.2244
15.9003
15.5822
15.2411
14.8509
14.3954
13.8722
13.291
12.6717
12.0527
11.522
11.2203
11.2027
11.2459
11.077
10.8103
578.532
454.518
21.0667
21.1229
21.1335
21.1024
21.0063
20.8367
20.6068
20.3251
20.0008
19.6435
19.2541
18.8237
18.3434
17.8199
17.2888
16.8035
16.403
16.0908
15.8487
15.6542
15.4881
15.3253
15.1231
14.8527
14.5284
14.1332
13.637
13.0664
12.4995
11.9892
11.5709
11.545
12.15
583.233
455.42
21.1402
21.1611
21.1566
21.107
20.9811
20.7812
20.54
20.265
19.9517
19.5977
19.1976
18.739
18.2075
17.6003
16.9508
16.329
15.8031
15.3911
15.0751
14.8445
14.7321
14.8582
15.3089
15.7454
15.8075
15.5223
14.9592
14.103
12.9414
11.7553
11.3686
11.895
12.7902
583.094
454.123
20.9122
20.9943
21.018
20.9789
20.8472
20.6312
20.3885
20.1436
19.8773
19.5671
19.1983
18.7561
18.2221
17.5824
16.85
16.0826
15.3621
14.7333
14.187
13.7304
13.5307
13.9991
15.2355
16.4099
16.8573
16.7533
16.2715
15.3954
14.0805
12.6259
11.9025
12.0161
12.3367
579.334
452.275
20.8589
21.077
21.1694
21.1793
21.0778
20.8413
20.5174
20.2002
19.9222
19.6526
19.352
18.9908
18.5447
17.9897
17.3122
16.5276
15.6914
14.8666
14.0762
13.3198
12.6763
12.4805
13.1781
14.5121
15.6439
16.2401
16.3375
15.9853
15.2092
14.1609
13.245
12.6325
12.0231
576.488
450.111
20.7639
21.1487
21.3388
21.4396
21.4358
21.2811
20.9426
20.4942
20.0752
19.7466
19.4749
19.2028
18.8873
18.4983
18.0123
17.4129
16.7086
15.9381
15.1432
14.3369
13.5126
12.712
12.1335
12.0869
12.5769
13.2786
13.9019
14.259
14.2586
13.9268
13.4065
12.788
11.9022
575.629
449.608
20.9125
21.3998
21.6603
21.8413
21.9421
21.9202
21.7047
21.2522
20.6538
20.0928
19.6722
19.3665
19.1046
18.8307
18.5102
18.1181
17.6433
17.0943
16.4973
15.8759
15.2351
14.5651
13.8645
13.1774
12.6058
12.2539
12.1604
12.2656
12.4364
12.5411
12.5105
12.293
11.72
576.503
450.477
21.0792
21.5612
21.8345
22.0521
22.2272
22.3253
22.2808
22.0188
21.4979
20.8039
20.1387
19.6361
19.2826
19.0055
18.7442
18.4598
18.131
17.7509
17.3288
16.8837
16.4318
15.9774
15.5139
15.0318
14.5306
14.0236
13.5417
13.1299
12.8389
12.6801
12.5711
12.4111
12.2102
579.875
452.48
21.3694
21.7744
22.0139
22.2155
22.3975
22.5338
22.564
22.4305
22.0897
21.5146
20.7828
20.0885
19.5548
19.1653
18.8547
18.5673
18.2706
17.9488
17.5997
17.2333
16.8648
16.5062
16.1619
15.8303
15.502
15.1558
14.7735
14.3659
13.9562
13.5557
13.22
13.1893
13.5045
584.247
454.749
21.6354
21.9576
22.1728
22.3704
22.558
22.7002
22.7363
22.6271
22.3587
21.911
21.2733
20.5363
19.8683
19.3443
18.9342
18.5801
18.2423
17.8987
17.5403
17.1683
16.7915
16.4203
16.0659
15.7438
15.4979
15.3802
15.261
14.9731
14.4531
13.7907
13.4124
13.571
13.9744
584.301
456.641
21.7878
22.0362
22.2412
22.458
22.6803
22.8479
22.8907
22.7879
22.5476
22.1663
21.623
20.9311
20.2048
19.5729
19.0621
18.6283
18.2272
17.8294
17.4178
16.984
16.5272
16.0507
15.5655
15.1337
14.9847
15.3258
15.6597
15.4857
14.8716
14.047
13.5073
13.4374
13.4551
580.924
457.762
21.7929
21.9733
22.1663
22.4013
22.6644
22.88
22.9657
22.9034
22.7116
22.3976
21.9461
21.3455
20.6443
19.9594
19.3714
18.8717
18.4193
17.9765
17.5151
17.0165
16.4699
15.8712
15.2281
14.6101
14.277
14.6143
15.37
15.68
15.3571
14.707
14.0738
13.6098
13.0623
578.454
457.123
21.5818
21.7653
21.963
22.2003
22.4691
22.7201
22.8792
22.906
22.804
22.583
22.2373
21.7543
21.1462
20.4844
19.8635
19.3223
18.8427
18.3886
17.9257
17.4266
16.8725
16.2524
15.5629
14.82
14.1251
13.7805
14.0874
14.722
15.0356
14.8675
14.4658
13.965
13.2001
578.24
455.175
21.3336
21.5985
21.8159
22.0268
22.2348
22.4463
22.6411
22.7646
22.7778
22.6734
22.4508
22.1019
21.6237
21.0483
20.4498
19.8942
19.3996
18.9488
18.5126
18.0631
17.5777
17.0386
16.4346
15.7588
15.0152
14.2658
13.7209
13.6396
13.956
14.2344
14.2005
13.9349
13.3829
579.471
452.936
21.1426
21.5189
21.7644
21.9516
22.0848
22.1886
22.3113
22.4584
22.5676
22.5847
22.4923
22.2847
21.9553
21.5103
20.9902
20.4588
19.9613
19.5078
19.0843
18.6692
18.2416
17.7831
17.2804
16.7228
16.0977
15.3926
14.6241
13.9143
13.5183
13.5691
13.7347
13.7373
13.5537
581.26
451.907
21.1324
21.5795
21.8567
22.0574
22.174
22.2018
22.1817
22.2082
22.3012
22.3821
22.3868
22.2928
22.0921
21.7807
21.3713
20.9028
20.4254
19.9728
19.5503
19.1471
18.7455
18.3284
17.8821
17.395
16.8518
16.2273
15.4868
14.6294
13.8114
13.411
13.5079
13.6558
13.6998
582.091
451.982
21.1186
21.5702
21.8756
22.1251
22.2968
22.3572
22.294
22.1806
22.1438
22.1867
22.2235
22.1959
22.0824
21.8745
21.5717
21.1887
20.7605
20.3261
19.9079
19.5077
19.1139
18.7112
18.2853
17.8228
17.3048
16.6963
15.9393
15.0004
14.0359
13.4556
13.4628
13.6159
13.6703
581.602
452.201
21.0099
21.4274
21.7418
22.0322
22.2706
22.4121
22.4179
22.2955
22.1521
22.0933
22.0945
22.083
22.0154
21.8736
21.6508
21.3485
20.9852
20.5913
20.193
19.8011
19.4108
19.0102
18.5871
18.1278
17.6105
16.9924
16.2013
15.1982
14.174
13.5459
13.4659
13.5376
13.4877
580.608
451.471
20.754
21.1718
21.4973
21.8137
22.0991
22.3101
22.4029
22.3572
22.2113
22.0746
22.0104
21.9827
21.9359
21.8374
21.6729
21.4366
21.1364
20.7917
20.4251
20.0507
19.6695
19.274
18.8536
18.3958
17.8794
17.2611
16.4655
15.4449
14.3799
13.6804
13.4814
13.4511
13.3032
579.985
450.288
20.5272
20.9853
21.3296
21.6645
21.9807
22.2397
22.3939
22.4128
22.299
22.1151
21.9643
21.8851
21.8373
21.7706
21.6559
21.4787
21.2389
20.9474
20.6209
20.273
19.9078
19.5219
19.1081
18.6561
18.1481
17.5448
16.7736
15.7764
14.7023
13.9343
13.6075
13.4754
13.2465
579.774
449.547
20.3906
20.8616
21.2066
21.5501
21.9014
22.2278
22.4669
22.5667
22.5097
22.3151
22.0639
21.8656
21.7541
21.6844
21.6031
21.4769
21.2946
21.0589
20.7799
20.4678
20.1277
19.759
19.3576
18.9159
18.4195
17.8342
17.0902
16.1136
15.0225
14.2171
13.8141
13.6036
13.2989
579.75
449.72
20.2989
20.6995
20.9997
21.3184
21.6881
22.0959
22.4656
22.706
22.7717
22.6582
22.3916
22.0649
21.8045
21.6504
21.553
21.4512
21.3134
21.1298
20.9016
20.6329
20.3267
19.9836
19.6012
19.1747
18.6936
18.1309
17.4244
16.4836
15.3594
14.4725
14.013
13.7555
13.4029
579.901
450.488
20.2143
20.5042
20.7372
21.0013
21.3453
21.7926
22.281
22.6833
22.911
22.9436
22.7866
22.4656
22.0822
21.7756
21.5847
21.4534
21.3269
21.1769
20.9915
20.7666
20.5006
20.192
19.8387
19.4373
18.9803
18.4484
17.7902
16.9112
15.7845
14.7633
14.2004
13.9022
13.5336
580.259
451.718
20.2547
20.4647
20.6489
20.8561
21.1334
21.5385
22.0536
22.548
22.8967
23.0548
23.0256
22.8167
22.4583
22.0629
21.7535
21.5434
21.3853
21.2359
21.0697
20.8737
20.6406
20.3651
20.0434
19.6722
19.2462
18.751
18.1453
17.3445
16.2708
15.1444
14.4248
14.0623
13.6822
580.728
453.306
20.5078
20.7018
20.8739
21.0409
21.2328
21.5323
21.982
22.467
22.8459
23.0572
23.0976
22.9759
22.7042
22.3381
21.9846
21.7107
21.5077
21.3375
21.1693
20.9828
20.7633
20.5057
20.2079
19.8635
19.4666
19.004
18.4411
17.7018
16.6938
15.5368
14.6877
14.2569
13.8539
581.114
454.763
20.8601
21.0779
21.2548
21.3861
21.4744
21.6283
21.9751
22.4143
22.7804
23.0013
23.0692
22.993
22.7869
22.4896
22.1698
21.8914
21.6689
21.4801
21.298
21.0995
20.8717
20.6131
20.3207
19.9875
19.6054
19.16
18.6179
17.9086
16.9439
15.8034
14.9007
14.42
13.9686
581.09
455.486
21.1525
21.4182
21.6071
21.7015
21.668
21.6309
21.8352
22.2274
22.5957
22.8382
22.9384
22.9054
22.7594
22.535
22.281
22.0404
21.8262
21.6277
21.4274
21.2103
20.9682
20.6981
20.3963
20.0569
19.6704
19.2198
18.6685
17.9482
16.9888
15.886
15.006
14.5057
13.9945
580.684
455.242
21.3243
21.6655
21.8875
21.9744
21.8509
21.6017
21.5768
21.8719
22.2485
22.5403
22.7027
22.7393
22.6712
22.5276
22.3445
22.1496
21.9531
21.7526
21.5402
21.3082
21.0512
20.7655
20.448
20.0937
19.6929
19.2261
18.6542
17.9105
16.9411
15.8588
15.0023
14.4824
13.9086
580.069
454.523
21.3869
21.8046
22.0832
22.2229
22.112
21.7334
21.4151
21.4823
21.7972
22.1258
22.364
22.4901
22.5118
22.452
22.338
22.1905
22.0201
21.8292
21.616
21.377
21.1092
20.8101
20.4771
20.106
19.6868
19.1992
18.6038
17.8419
16.8813
15.8453
15.0311
14.4931
13.8507
579.482
453.749
21.3106
21.7716
22.1126
22.351
22.3587
22.0335
21.5456
21.3085
21.4272
21.7052
21.9778
22.1743
22.2766
22.2949
22.2476
22.1506
22.0151
21.8459
21.644
21.4084
21.138
20.8315
20.4873
20.1015
19.6644
19.1558
18.5386
17.763
16.815
15.8222
15.04
14.4785
13.7668
578.97
452.918
21.0964
21.5696
21.9597
22.2956
22.442
22.2756
21.8487
21.4455
21.3142
21.4269
21.6416
21.849
21.9963
22.0721
22.0824
22.0366
21.9423
21.8049
21.6263
21.4068
21.1462
20.8441
20.4999
20.1096
19.6645
19.1457
18.5192
17.7436
16.8177
15.8688
15.1144
14.5367
13.7734
578.709
451.786
20.799
21.2932
21.7336
22.1531
22.4013
22.368
22.09
21.7254
21.4682
21.4023
21.485
21.6286
21.7633
21.8553
21.8948
21.8824
21.821
21.713
21.5601
21.362
21.1186
20.8295
20.4935
20.1068
19.6607
19.1375
18.5059
17.7304
16.818
15.8956
15.1548
14.5601
13.7485
578.41
450.421
20.4823
21.0144
21.5196
22.0268
22.3517
22.4031
22.2363
21.9617
21.6972
21.5299
21.4857
21.532
21.6139
21.6881
21.7308
21.7325
21.6905
21.6036
21.4716
21.2937
21.0691
20.7968
20.4748
20.0986
19.6593
19.1399
18.5122
17.7461
16.8544
15.9587
15.2277
14.62
13.774
578.228
449.128
20.1598
20.7104
21.2812
21.8914
22.3054
22.4426
22.3692
22.1732
21.9343
21.7201
21.5782
21.5209
21.5267
21.5595
21.5873
21.59
21.5582
21.4869
21.3729
21.2147
21.0108
20.7594
20.4575
20.0998
19.6771
19.1728
18.5607
17.8138
16.9454
16.0694
15.338
14.7136
13.8349
578.093
448.122
19.8085
20.319
20.9284
21.6463
22.1668
22.4067
22.4368
22.3308
22.1459
21.9313
21.7332
21.5862
21.503
21.4718
21.465
21.4547
21.4233
21.3607
21.2605
21.1203
20.9377
20.7103
20.4339
20.1027
19.7071
19.2314
18.6515
17.9435
17.1195
16.2792
15.5545
14.9138
13.9958
578.057
447.292
19.3733
19.7728
20.3736
21.2015
21.8565
22.2248
22.3768
22.381
22.2814
22.1127
21.9099
21.709
21.5432
21.4316
21.368
21.3265
21.2823
21.2186
21.1249
20.9969
20.8313
20.6246
20.372
20.0666
19.6984
19.2518
18.7042
18.0349
17.2565
16.4554
15.739
15.0751
14.0989
577.932
446.446
18.7923
18.9919
19.4736
20.3678
21.2119
21.7714
22.0884
22.2364
22.2588
22.1841
22.0376
21.8446
21.6374
21.453
21.3162
21.2223
21.1482
21.071
20.9746
20.8519
20.6977
20.5073
20.275
19.9934
19.6523
19.2371
18.7281
18.1092
17.3928
16.6476
15.9532
15.2786
14.2655
578.046
445.626
18.2219
18.1865
18.3794
19.0847
20.0556
20.8814
21.451
21.8057
21.9976
22.0613
22.0239
21.9043
21.7242
21.5157
21.3188
21.1608
21.0387
20.9333
20.8246
20.7012
20.5553
20.3807
20.1701
19.9152
19.6046
19.2226
18.7495
18.1699
17.4969
16.7914
16.1181
15.4422
14.4039
578.148
445.139
18.1524
18.0825
17.9922
18.0935
18.6651
19.5424
20.3789
21.0102
21.4328
21.6865
21.8057
21.8126
21.7249
21.5625
21.3572
21.1494
20.9646
20.8063
20.6612
20.5158
20.3603
20.1863
19.9855
19.7491
19.4654
19.1182
18.687
18.1557
17.5339
16.871
16.2161
15.529
14.4473
578.147
445.43
18.8924
19.15
19.1269
18.8441
18.5197
18.6272
19.2398
20.0058
20.649
21.1042
21.3934
21.5465
21.5862
21.5289
21.3916
21.2007
20.9876
20.7798
20.587
20.4041
20.223
20.0334
19.8251
19.588
19.3107
18.9783
18.5736
18.0832
17.5147
16.9051
16.2883
15.6225
14.559
578.485
446.212
19.8053
20.484
20.7834
20.7521
20.2778
19.5257
19.1321
19.3952
19.9796
20.5337
20.9424
21.2066
21.3496
21.3903
21.3414
21.2144
21.0243
20.797
20.5605
20.3306
20.1128
19.9008
19.6837
19.4495
19.1843
18.8718
18.4923
18.0316
17.4976
16.9244
16.3393
15.6959
14.6478
578.735
446.87
20.1661
21.0093
21.5751
21.9447
21.993
21.522
20.5934
19.9136
19.9117
20.2821
20.6784
20.9767
21.1673
21.2636
21.2772
21.2138
21.0752
20.8701
20.6189
20.3474
20.0761
19.814
19.5573
19.2972
19.0223
18.7175
18.3631
17.9394
17.4448
16.9065
16.3485
15.7221
14.6824
578.886
447.093
19.9201
20.666
21.3187
21.9757
22.4741
22.636
22.2642
21.3785
20.686
20.5739
20.7644
20.986
21.1496
21.2429
21.2701
21.2329
21.1278
20.9525
20.7132
20.4276
20.12
19.8118
19.5098
19.2095
18.9016
18.5744
18.2142
17.8067
17.3471
16.8507
16.3299
15.7313
14.7158
579.069
447.796
19.5468
20.064
20.6852
21.5166
22.2952
22.789
22.9134
22.5654
21.8603
21.3753
21.272
21.3275
21.3966
21.4336
21.4284
21.3749
21.2662
21.095
20.858
20.5616
20.2235
19.8699
19.5191
19.1751
18.8311
18.4752
18.0953
17.6831
17.2389
16.7737
16.2909
15.7303
14.7571
579.229
449.572
19.3668
19.6222
20.2412
21.2328
22.1468
22.7449
23.0179
22.9826
22.6537
22.2474
22.0124
21.9191
21.874
21.8288
21.7635
21.6664
21.5279
21.3392
21.0921
20.7829
20.4179
20.0192
19.6117
19.2117
18.8207
18.4292
18.0243
17.5974
17.1515
16.6995
16.2414
15.709
14.7607
579.185
450.792
19.0844
19.1285
19.9206
21.1439
22.1081
22.7064
23.0237
23.122
23.0498
22.8853
22.7189
22.5833
22.4665
22.3497
22.2197
22.0665
21.8822
21.6591
21.3886
21.0615
20.6733
20.2351
19.7701
19.3022
18.8458
18.4003
17.9557
17.5036
17.047
16.5986
16.1551
15.6388
14.6969
578.956
448.895
18.1198
18.0445
18.9575
20.3432
21.4531
22.2265
22.7392
23.0473
23.1965
23.2315
23.1911
23.1054
22.9908
22.8526
22.6907
22.503
22.2856
22.0337
21.7401
21.3949
20.9895
20.5246
20.0135
19.479
18.9456
18.4281
17.9273
17.4395
16.9681
16.5228
16.0935
15.5948
14.6656
578.772
445.068
17.1369
16.9149
17.1869
18.082
19.2921
20.4998
21.5105
22.2569
22.758
23.066
23.229
23.2846
23.2609
23.1769
23.0446
22.871
22.6581
22.4051
22.1076
21.7588
21.351
20.8787
20.3449
19.7624
19.1577
18.56
17.9866
17.445
16.9435
16.4904
16.0681
15.5828
14.6643
578.649
442.944
17.7817
17.684
17.279
16.8185
16.7656
17.3794
18.5537
19.9048
21.0798
21.9463
22.5283
22.8917
23.0923
23.1706
23.1568
23.0684
22.9159
22.7043
22.4359
22.1095
21.7203
21.2616
20.7289
20.1227
19.4634
18.7885
18.136
17.5295
16.9841
16.5088
16.0809
15.5994
14.6853
578.631
444.002
19.5203
20.1024
20.1525
19.7428
18.7746
17.5094
16.6453
16.8428
18.0644
19.5992
20.866
21.7469
22.3265
22.6913
22.8959
22.975
22.9509
22.8389
22.6481
22.3828
22.0431
21.6252
21.1209
20.5213
19.8317
19.0861
18.3447
17.6612
17.0639
16.56
16.1192
15.6331
14.7162
578.708
447.195
20.2697
21.1266
21.6892
22.0989
22.1768
21.5446
20.0015
18.0555
16.8292
17.2152
18.6828
20.127
21.1634
21.8527
22.3009
22.5766
22.7201
22.7495
22.6764
22.511
22.2564
21.9101
21.4657
20.9105
20.2335
19.4496
18.6261
17.8596
17.2086
16.6768
16.2212
15.7259
14.8029
578.927
451.635
20.2396
20.5065
20.854
21.4525
22.3011
22.9347
22.8907
21.928
19.9539
17.9247
17.5203
18.6691
20.0063
20.9782
21.6149
22.0385
22.323
22.488
22.5376
22.4807
22.3269
22.0756
21.7162
21.2344
20.6105
19.8344
18.9508
18.0862
17.3616
16.7954
16.3243
15.8179
14.8857
579.173
455.286
20.423
20.3303
20.4269
20.7472
21.4443
22.3473
22.8968
22.9365
22.4246
20.967
18.9305
18.3986
19.3133
20.3468
21.0761
21.5645
21.9176
22.1704
22.3156
22.354
22.2912
22.1304
21.8624
21.4704
20.9295
20.2123
19.3257
18.3785
17.551
16.9214
16.4237
15.91
14.9897
579.506
455.8
20.3233
20.3771
20.7725
21.4241
22.0496
22.5664
22.8675
22.9103
22.7289
22.2249
21.0194
19.5104
19.3843
20.1043
20.7782
21.2645
21.6216
21.8938
22.0853
22.1861
22.1934
22.1071
21.92
21.6168
21.1718
20.5493
19.7252
18.7582
17.8303
17.0992
16.5427
16.0072
15.1012
579.814
452.296
19.4424
19.5665
20.1112
21.1021
22.1043
22.7564
23.0579
23.1156
22.9905
22.6718
22.0392
20.9194
20.0413
20.1724
20.6559
21.0877
21.4249
21.6873
21.884
22.0108
22.0613
22.0294
21.907
21.6805
21.327
20.811
20.094
19.1861
18.2242
17.4036
16.7746
16.2029
15.2938
580.101
448.816
18.953
18.9729
19.0185
19.3244
20.2845
21.5676
22.4852
22.9477
23.0931
23.0066
22.6789
22.0129
21.0613
20.561
20.6851
20.9901
21.277
21.5152
21.7035
21.8376
21.91
21.9129
21.8371
21.6699
21.3909
20.9673
20.3571
19.5431
18.612
17.7543
17.071
16.454
15.4983
580.183
448.772
19.5682
19.6723
19.4874
18.9489
18.6032
19.6285
21.1213
22.1406
22.6739
22.8845
22.8508
22.5524
21.9402
21.2658
21.005
21.082
21.2541
21.4255
21.5735
21.6881
21.7587
21.7743
21.7239
21.594
21.3652
21.0074
20.4804
19.7592
18.9018
18.07
17.3721
16.717
15.6902
580.161
449.603
19.8827
20.2386
20.3647
20.0921
19.2476
19.0044
20.0815
21.2445
22.0081
22.4305
22.603
22.549
22.2553
21.8101
21.4938
21.4138
21.4525
21.5212
21.5905
21.6466
21.6765
21.6683
21.6089
21.483
21.2703
20.9418
20.461
19.8071
19.0298
18.2596
17.58
16.9009
15.8017
580.054
447.335
19.1677
19.5817
19.9193
20.1121
19.9111
19.3613
19.5144
20.3707
21.2035
21.7713
22.0774
22.1533
22.0579
21.906
21.8002
21.7581
21.7499
21.7529
21.7553
21.7479
21.7218
21.6667
21.5707
21.419
21.1913
20.8601
20.3938
19.7806
19.0706
18.3672
17.7225
17.0397
15.892
579.957
444.083
18.5119
18.9251
19.2554
19.6044
19.8317
19.6234
19.1189
19.2598
20.0755
20.897
21.4458
21.7494
21.891
21.9442
21.9599
21.9619
21.9566
21.943
21.9179
21.877
21.8147
21.7237
21.594
21.4124
21.1598
20.8112
20.342
19.7514
19.0902
18.4369
17.8172
17.1221
15.9035
579.604
445.541
18.6926
18.9282
19.1549
19.5004
19.9917
20.3423
20.0728
19.2423
18.9038
19.5153
20.3274
20.9485
21.3749
21.651
21.8201
21.9162
21.9643
21.978
21.9635
21.9222
21.8522
21.7492
21.6055
21.4093
21.1436
20.7872
20.3233
19.7601
19.1438
18.528
17.9181
17.1923
15.8688
579.127
450.617
18.8318
18.563
18.6007
18.9745
19.6867
20.4951
20.9354
20.7765
19.832
18.9958
19.3372
20.0663
20.638
21.0386
21.3336
21.5532
21.7043
21.796
21.837
21.8328
21.7848
21.6908
21.5462
21.342
21.0651
20.7011
20.2445
19.7118
19.1396
18.556
17.9492
17.1845
15.7477
578.67
448.334
17.5742
17.0927
17.198
17.9938
18.9219
19.6069
19.8942
19.8724
19.8324
20.0519
20.37
20.6575
20.9212
21.1566
21.3548
21.5116
21.6273
21.7029
21.7387
21.7334
21.6839
21.5851
21.4304
21.211
20.9181
20.5468
20.103
19.6055
19.0774
18.5278
17.9332
17.1467
15.6292
578.304
438.552
15.967
16.0867
16.3843
17.0278
17.7173
18.3891
19.0297
19.549
19.9384
20.2591
20.5486
20.7985
21.0116
21.1919
21.3424
21.4626
21.5518
21.6092
21.6328
21.6195
21.564
21.4597
21.2985
21.0728
20.777
20.4116
19.9858
19.5153
19.0139
18.4816
17.8886
17.0733
15.4627
577.727
436.467
16.9769
17.3513
17.3267
17.0416
16.6954
16.4524
16.5358
17.0784
17.8998
18.7222
19.3974
19.9113
20.2977
20.5934
20.8239
21.009
21.1556
21.265
21.3355
21.3633
21.3433
21.2694
21.1356
20.9365
20.6695
20.3368
19.9461
19.5085
19.0318
18.5129
17.9203
17.09
15.4323
577.484
439.184
17.1803
17.6593
18.0622
18.5097
18.7561
18.4118
17.4238
16.2183
15.6497
16.158
17.1655
18.1495
18.9578
19.5727
20.023
20.3508
20.5914
20.7678
20.8926
20.9708
20.9995
20.9724
20.8824
20.7244
20.4974
20.2049
19.854
19.4528
19.0055
18.5072
17.9271
17.1102
15.4848
577.707
443.829
17.4964
17.4515
17.5596
18.0598
18.9022
19.5427
19.6065
18.93
17.5436
16.3473
16.3111
17.0037
17.8058
18.5312
19.147
19.6412
20.0185
20.2956
20.4912
20.6185
20.6857
20.6935
20.6386
20.5167
20.3267
20.0716
19.7577
19.3916
18.9764
18.5073
17.9566
17.1838
15.6518
578.313
447.673
18.277
18.0543
18.0608
18.3549
18.8192
19.3065
19.5777
19.5118
18.9671
17.8363
16.9064
16.8961
17.3952
17.9855
18.5561
19.0797
19.5288
19.8863
20.152
20.334
20.4419
20.4817
20.4557
20.3638
20.2062
19.9858
19.7071
19.3747
18.9905
18.55
18.0282
17.2961
15.8401
578.883
449.334
18.125
17.6069
17.723
18.5302
19.1955
19.5476
19.6738
19.5959
19.2641
18.5868
17.7388
17.3668
17.5605
17.9551
18.388
18.8293
19.2553
19.6325
19.9365
20.1597
20.3042
20.3748
20.3754
20.309
20.1782
19.9864
19.7373
19.4336
19.0752
18.6562
18.1525
17.4374
15.9965
579.175
450.432
17.764
16.7416
16.675
17.8259
18.7534
19.2355
19.4293
19.4047
19.1531
18.6692
18.1001
17.8085
17.9052
18.169
18.4836
18.828
19.1894
19.5379
19.8407
20.0766
20.238
20.3249
20.3397
20.2853
20.1655
19.985
19.7485
19.4587
19.1147
18.7093
18.2164
17.5024
16.0304
579.02
449.798
17.1941
15.8109
15.3892
16.6543
17.6876
18.2875
18.6196
18.736
18.6412
18.3973
18.1676
18.1176
18.2399
18.4366
18.6703
18.9402
19.2417
19.5528
19.8411
20.0772
20.2442
20.3359
20.3523
20.2956
20.1705
19.9835
19.7418
19.4506
19.1103
18.7137
18.2315
17.5183
16.0059
578.619
449.176
17.0313
15.412
13.9519
14.6731
15.9273
16.8224
17.4425
17.8514
18.0586
18.1211
18.1575
18.2535
18.4011
18.5684
18.753
18.9668
19.2153
19.4897
19.7657
20.0113