/*--------------------------------*- C++ -*----------------------------------*\
| =========                 |                                                 |
| \\      /  F ield         | OpenFOAM: The Open Source CFD Toolbox           |
|  \\    /   O peration     | Version:  v1912                                 |
|   \\  /    A nd           | Website:  www.openfoam.com                      |
|    \\/     M anipulation  |                                                 |
\*---------------------------------------------------------------------------*/
FoamFile
{
    version     2.0;
    format      ascii;
    class       volScalarField;
    location    "27.5/oil";
    object      wallHeatFlux;
}
// * * * * * * * * * * * * * * * * * * * * * * * * * * * * * * * * * * * * * //

dimensions      [1 0 -3 0 0 0 0];


internalField   uniform 0;

boundaryField
{
    maxY
    {
        type            calculated;
        value           uniform 0;
    }
    minX
    {
        type            calculated;
        value           uniform 0;
    }
    maxX
    {
        type            calculated;
        value           uniform 0;
    }
    minY
    {
        type            calculated;
        value           uniform 0;
    }
    minZ
    {
        type            calculated;
        value           uniform 0;
    }
    maxZ
    {
        type            calculated;
        value           uniform 0;
    }
    oil_to_sphere
    {
        type            calculated;
        value           nonuniform List<scalar> 
1536
(
22578.5
22481
22495.1
22232.8
22156.4
22431.8
22362.2
22356.9
22337.3
22237.9
22156.7
22238.8
22354.2
22272.2
22068.8
22329.9
22444.5
22502.2
22319.1
22356.1
22418.3
22328.6
22353.9
22330
22350.5
22336.5
22327.5
22311.2
22525
22747
22473.6
22270.3
22304.7
22671.3
22375.8
22494
22282.6
22325.2
22238.7
22661.3
22455.9
22470.4
22309
22324.7
22295.2
22289.6
22238.6
22247.9
22290.9
22217.2
22312.2
22278.2
22190.4
22308.6
22303.6
22349.8
22379.8
22406.6
22367.4
22441.5
22398.8
22330
22374.5
22492.3
22468.3
22441.3
22172.2
22176.4
22044.4
22415.1
22346.5
22389.1
22346.4
22355
22432.2
22408.6
22304.8
22459.5
22663.5
22506.4
22180.8
22250.2
22222
22635.9
22448.9
22547.4
22339.8
22330.5
22387.3
22408.9
22370.2
22347.5
22323.2
22356.2
22341.3
22367.5
22422.5
22357.2
22358.1
22343.2
22229.1
22177
22540.5
22503.5
22552.4
22330.9
22363.8
22423.9
22383.3
22448.6
22311.4
22086
22171.6
22584.6
22549.8
22515.8
22266
22270.1
22339.4
22325.6
22062.4
22319.5
22422.3
22552.4
22464.7
22312.1
22331.7
22432.4
22513.9
22398.5
22405.6
22175.7
22161.7
22174.5
22493.9
22454.7
22575.7
22216.2
22315.8
22381.3
22374.7
22385.3
22297
22307.4
22335.4
22363.6
22374.7
22397.5
22493.1
22465.6
22163.1
22337.5
22178.9
22618.1
22453.5
22480.8
22375.9
22422.6
22305.1
22138.3
22269.6
22477.5
22607.5
22402.7
22265.9
22331.6
22326.1
22078.8
22186.7
22245.2
22266.9
22631.7
22458.4
22372.1
22325.5
22376.5
22204.6
22172.2
22233.3
22170.9
22527.2
22586.5
22486.3
22360.7
22348.5
22380.1
22372.8
22292
22453.5
22451.1
22479.2
22471.3
22336.9
22292.4
22393.9
22439.9
22375.9
22342.9
22571.9
22462.8
22525.3
22146.4
22185.5
22374.3
22444
22303.6
22327.4
22423.1
22370.7
22120.2
22631.9
22554.1
22518.8
22165.3
22382.4
22280.4
22311.5
22442.1
22331.2
22383.2
22383.9
22334.1
22333.5
22312.4
22364.8
22334.6
22354.6
22329.3
22558.5
22579.6
22774.1
22594
22602.3
22603.2
22576
22404.4
22450.5
22510.6
22714.7
22366.6
22333.7
22794
22499.1
22546
22479.4
22349.6
22541.9
22529.4
22643
22437.3
22267.1
22505
22613.2
22558.2
22346.8
22388.9
22526.8
22588
22622.9
22798
22682.1
22778.5
22604.8
22456.5
22836.4
22165.2
22194.7
22512.5
22330.1
22541.1
22298.2
22276.7
22238.7
22312.1
22392.9
22613.3
22425.5
22631.8
22362.3
22414.6
22487.9
22561.8
22691.4
22347.3
22354.8
22386.8
22351.2
22099
22059.6
22123.7
22365.9
22348.5
22377.1
22475
22077.7
22028.9
22095.3
22102.1
22350.2
22480.6
22328.4
22444.7
22114.3
22530.2
22571.8
22583.2
22705.1
22721.6
22556.3
22223.7
22176
22868.2
22560.3
22547.5
22192.7
22194.5
22694.7
22500.2
22622.7
22545.1
22587.8
22781.8
22389.1
22343.4
22407.7
22317
22396.2
22341.4
22511
22353.6
22071.2
22485.4
22453.9
22505.5
22220.4
22102.7
22517.8
22518.2
22489.5
22292.4
22365.8
22282.3
22345.5
22533.6
22522.2
22427.4
22344.9
22414.2
22412.5
22091.5
22577.7
22498.8
22620
22257.4
22330.1
22354.8
22327.1
22540.1
22472.9
22516.2
22082.9
22496.9
22625.7
22594.9
22278.1
22267.3
22151.4
22497.9
22480.6
22404.9
22361.5
22402.5
22421.9
22129.5
22157.3
22510.5
22622.8
22497.5
22443.1
22475.6
22503.9
22251.5
22310.7
22143.6
22468.2
22304.8
22513
22658
22588.9
22515.5
22543.7
22450.9
22421.4
22415.8
22464
22054
22225.4
22234.2
22646.9
22588.7
22500.6
22322.8
22254
22168.3
22454.2
22649.8
22682.3
22899.4
22307.9
22408.7
22197.4
22104.9
22388.4
22371.9
22494.7
22495.7
22714.3
22300.7
22304.9
22199.6
22124
22293.9
22609.2
22628.8
22446.2
22275
22327.3
22556.5
22499.3
22842.3
22318.1
22143
22365.2
22473.2
22628.8
22573.2
22430.4
22427.1
22467.5
22518.9
22092.5
22242.8
22320.2
22543.6
22479.2
22681.1
22373.9
22378.9
22530
22611.6
22466.4
22531.3
22454.1
22529.3
22008.5
22364.8
22330.3
22388.5
22243.4
22291.5
22516.5
22582.3
22644
22333
22338.2
22334.1
22369.3
22328.8
22439.8
22387.8
22272.8
22150.2
22277.6
22207.5
22263.9
22566.8
22601
22530.2
22604.4
22543.3
22945.3
22177.9
22188.1
22619.7
22525.3
22572
22590.4
22587
22847.6
22350.9
22355
22390.4
22315.5
22334.3
22466.8
22283.3
22340.6
22454.7
22462.9
22546.9
22449.9
22375.9
22403.3
22398.1
22147.7
22526.4
22563.8
22491.1
22364
22275.1
22351.9
22378.2
22539.5
22548.2
22473.9
22439
22436.8
22483.4
22075.7
22290.6
22242.5
22600.2
22713.9
22625.7
22347
22322.5
22373.6
22313.1
22390.6
22608.8
22705.3
22597.5
22405.7
22210.4
22358.2
22297.2
22368.5
22368
22418.8
22156.1
22471.4
22449.8
22431.4
22332.6
22244.4
22548.1
22533.6
22766.2
22407.8
22332.6
22520.4
22555.1
22400.9
22416.5
22419.9
22391
22113.3
22418.6
22374.6
22267.9
22250.4
22472.7
22499.4
22225.3
22253.9
22221.1
22247.9
22616.6
22636.9
22638.3
22557.7
22580.8
22404.4
22353.7
22400.4
22425.1
22077
22620.1
22483.8
22610
22325.8
22218.9
22343.4
22260.3
22623.6
22515.1
22383.9
22448
22381.7
22413.4
22066.8
22339.2
22289.9
22340.2
22333.4
22231.6
22566.4
22657.1
22591.6
22368.5
22228.7
22304.5
22098.4
22271.5
22116
22598.9
22566.4
22541.7
22255.8
22379.1
22254.9
22354.1
22315.4
22353
22342.3
22486.7
22519.5
22337.2
22331
22346.8
22358.7
22166.9
22311.7
22215.7
22523
22596
22511.7
22387.4
22320
22372.2
22232.1
22564.6
22617.8
22638
22361.2
22245.6
22501.4
22579.3
22377.2
22333.6
22475.5
22287.1
22117.5
22283.4
22181.4
22565.4
22465.3
22852.4
22393.9
22307.4
22516.7
22734.2
22456.9
22446.7
22345.8
22465.8
22072.2
22313.8
22348.2
22299.6
22324.7
22370.2
22369.7
22375.9
22336.6
22205.8
22045.8
22102.4
22087.5
22353.5
22406.4
22364.6
22520.7
22079
22515.4
22477
22387.2
22398.1
22412.3
22320.6
22083
22299.3
22215.3
22538.7
22741.2
22513.5
22324.4
22332.5
22396
22419.9
22343.7
22436.1
22459
22475.1
22360.2
22417.2
22373.7
22129.2
22297.1
22336.5
22397.4
22435.3
22317.5
22248
22299.1
22315.7
22377.2
22174
22339.4
22590.6
22596.7
22723.6
22307.5
22339.3
22295.4
22511.5
22330.7
22527.7
22508
22435.6
22436.4
22474.1
22355.1
22093.8
22294.1
22206.7
22525.9
22509.1
22537.9
22338.1
22320.7
22455.1
22449.8
22461.6
22346.5
22295.4
22411.4
22094.3
22273.6
22385.5
22412.4
22363.4
22181.4
22603
22731.7
22584.3
22367.9
22321.5
22496.4
22498.6
22425.8
22333.1
22408.4
22392.5
22092.3
22370.4
22294.6
22390.8
22279.3
22226.5
22276.9
22204.5
22502.8
22608
22596
22690.4
22538.2
22891
22635.6
22567.8
22605.1
22235.3
22248.8
22640.3
22678.3
22550.2
22572.9
22461.4
22632.2
22242.3
22366.9
22456.4
22398
22410.6
22304.3
22695.1
22549.6
22643.3
22613.8
22596.4
22414.1
22504.5
22518.5
22447.3
22052.3
22603.8
22559.8
22415
22418
22480.7
22487.6
22076.8
22319.5
22303.8
22297.2
22327.6
22258.7
22623.2
22677
22519.2
22383.6
22334.5
22330.5
22188.6
22586.2
22695.2
22605.9
22364.1
22337.2
22229
22096.8
22250.9
22158.7
22322.7
22412.8
22411
22353.8
22266.1
22127.2
22300.2
22186.2
22573.6
22555.2
22537.1
22287
22511.3
22394.8
22060.7
22234
22358.9
22651
22559.9
22532.5
22396.3
22364.5
22405.1
22192.8
22621
22580.1
22529.2
22353.2
22311.5
22734.3
22757.3
22611.3
22619.6
22637.6
22515.5
22173.8
22195.5
22665
22550.4
22534.9
22280.8
22054.6
22281.8
22131.4
22387.3
22356.5
22307.3
22449.7
22116.3
22073.7
22090
22319.7
22346.1
22689.4
22557.8
22601.8
22393.3
22296.2
22719.7
22545.3
22644.9
22309.3
22293.9
22212.2
22685.2
22573.9
22569.6
22161.7
22128.5
22661.2
22484.5
22498.2
22853.6
22433.3
22701.8
22418
22583.1
22448.7
22151
22484.3
22435.5
22551.4
22302
22261.4
22153.8
22085.8
22386
22330.8
22329.5
22425
22140.7
22096.4
22301.8
22300.4
22194.1
22453.1
22309.3
22606.5
22500
22664.5
22400.6
22341.2
22337
22520.6
22502.9
22427.9
22431.4
22394.7
22393.7
22075.3
22186.5
22331.8
22683.1
22557.2
22571.2
22298.4
22285.5
22312.1
22242.3
22611.2
22473.4
22564.8
22348.3
22305.8
22103.9
22475.2
22477.3
22560
22487.5
22502.6
22512.4
22276.6
22282.4
22185.6
22241.3
22172.9
22222
22224.3
22331.4
22365.4
22356
22322.5
22237.2
22046.2
22523.5
22511.5
22410.2
22316.1
22464.1
22419.9
22075
22619.3
22515.1
22415.8
22302.5
22373.2
22437.7
22067.2
22219.5
22294.7
22709
22533.1
22464.3
22334.7
22329.9
22124.5
22394.5
22705.5
22718.7
22618.5
22263.6
22400.9
22591.7
22547
22538.4
22583.9
22619.4
22506.3
22219.5
22261.9
22405.4
22498.5
22452.8
22201.7
22325.7
22269.4
22365.3
22364.8
22349.4
22653.3
22569.5
22590.3
22609.2
22535.3
22914.9
22246.3
22242.7
22276.4
22558.6
22603.3
22628.2
22653.6
22430.8
22343.5
22194.4
22374.9
22541.9
22460.6
22377.8
22592.1
22624.1
22590.4
22902
22590.1
22518.5
22286.5
22196
22518.3
22620.7
22715.1
22380.5
22344.8
22390.7
22150.3
22765.5
22726.9
22614
22369.4
22258.2
22544.7
22688.7
22483.4
22465.6
22469.6
22424
22085.4
22631.1
22433.5
22447.4
22464.9
22424.6
22488.5
22000.5
22314.1
22331.2
22447.3
22560.1
22491.3
22486.6
22439.9
22448.1
22560.6
22125.9
22348
22313.2
22143.8
22066.2
22291.3
22261.2
22337.5
22419.3
22381.6
22420.9
22264.6
22313.7
22220.8
22502
22539.6
22501
22334
22336.3
22535.6
22548.6
22471.6
22285.8
22504.2
22456.5
22091.5
22221
22215.9
22578.3
22604.1
22490.5
22319.3
22409.3
22442.3
22076.2
22631.3
22623.6
22530.8
22207.5
22176.7
22677.6
22444.4
22599.2
22615.4
22583.2
22607.1
22563.4
22466.8
22587
21966.1
22501.7
22475.9
22561.6
22284.7
22245.3
22114.4
22106.1
22402.3
22372.4
22391.5
22472.7
22133.9
22055.7
22307.3
22298.8
22223.9
22432.9
22337.7
22621
22526.4
22583.5
22188.2
22219.4
22493.3
22652.9
22506.8
22803.2
22550.5
22554.3
22578.4
22571.3
22665.3
22221.3
22144.9
22244
22098.4
22658.4
22510.7
22599.9
22544.3
22548.8
22435.5
22031.9
22271
22072.2
22048.6
22348.3
22510.5
22358
22323.6
22131.7
22421
22343
22482.1
22574.7
22621.8
22376.9
22335.2
22512.6
22577.2
22890.7
22391.3
22254.9
22515.5
22692.8
22463
22380.4
22280.8
22593.5
22642.7
22536
22477.2
22509.1
22444.2
22008.9
22271.3
22403.5
22398.4
22495.6
22370.7
22403
22451.2
22459.2
22427.5
22131.1
22285.6
22085.8
22526.9
22362.2
22518.9
22108.5
22408.9
22474.7
22505.9
22290.6
22279.6
22117.1
22097.3
22233.9
22039.5
22360.5
22348
22369.9
22407.9
22225.2
22208.4
22332.7
22495.6
22570.1
22648.6
22316.6
22333.7
22180.2
22349.4
22508.7
22553.6
22622
22316.3
22365.2
22213.7
22251.4
22474.2
22508.4
22360.7
22283.8
22372.1
22478.2
22109.7
22519.7
22596.5
22481.9
22296.2
22403.1
22341.3
22081.9
22212.5
22172.1
22689.7
22466.7
22574.4
22624.6
22588.6
22614.6
22420.6
22339.6
22546.5
22674.5
22654.4
22586.2
22591.1
22671.7
22390.1
22337
22371.6
22429.3
22282.5
22318
22340
22285
22380.4
22197.8
22328.7
22575.5
22585.7
22601.3
22289.8
22363.1
22342.9
22439.1
22257
22638.9
22518.6
22424.9
22384.3
22341.3
22435.1
22076.7
22645.7
22789
22795.6
22366.8
22158.6
22365.3
22283.1
22491
22557.9
22453.8
22409.7
22393.4
22312.1
22145.6
22399.4
22402.7
22344.2
22487
22630.8
22508.7
22384.4
22269.5
22379.5
22340
22389.8
22502
22455.3
22134.5
22463.1
22476.3
22414.2
22411.5
22413.4
22356.3
22261.3
22221
22200.2
22256
22608.2
22583.7
22560.9
22309.4
22429.9
22319.7
22195
22315.2
22540.2
22592
22555.8
22256
22352.4
22596
22550.9
22457.6
22330
22389
22411.1
22062.8
22617.4
22480.2
22595.6
22350.7
22244.1
22339
22303.1
22369.8
22375.5
22392.9
22378.1
22450.8
22193.2
21977.2
22279.9
22098
22457
22609.7
22540.6
22374.4
22437.6
22439
22003.8
22300.5
22400
22561.6
22498.4
22553.6
22343.5
22266.1
22311.1
22323.7
22407.4
22073.3
22466.4
22545.3
22412.5
22732
22533.5
22586.4
22249.9
22323.5
22345.5
22309
22622
22514.7
22375.7
22500.9
22447.2
22543.4
22042.4
22307.3
22301.8
22337
22542.8
22575.5
22566.8
22351.4
22232.1
22363.9
22293.9
22495.2
22541.7
22389.8
22337.6
22462.5
22504.3
22083.9
22238.6
22005.3
22387.8
22307.7
22336
22299.5
22397.7
22255.4
22048.9
22166.1
22380.9
22594.8
22555.1
22743.2
22321.4
22381.2
22363.8
22350.7
22376
22447
22510.4
22365
22339
22323.5
22367.5
22162.5
22524.3
22511.5
22422.3
22244
22346.3
22333.4
22305.7
22327.6
22417.6
22400.7
22072.9
22536.5
22473.2
22472.1
22244.7
22335.5
22411
22416.4
22365.8
22338.5
22351.9
22326.2
22268.5
22474.1
22419.4
22383.5
22416.3
22359.3
22474.6
22129.4
22166.8
22328.9
22705.7
22629.8
22602.8
22337.2
22301.5
22544
22449.4
22431.9
22303.6
22354.7
22361.6
22137.4
22824.6
22565.3
22517
22211.3
22338.1
22360.4
22334.5
22403.8
22337.3
22246.3
22197.4
22329.1
22491.9
22560.3
22810.6
22370.6
22319.5
22513.2
22476.4
22419.5
22292.7
22372.1
22418.8
22111.8
22501.5
22559.6
22569.2
22223.9
22330.2
22347.2
22326.5
22351.4
22399.5
22453.4
22082.6
22552.4
22489.9
22472.8
)
;
    }
}


// ************************************************************************* //
