/*--------------------------------*- C++ -*----------------------------------*\
| =========                 |                                                 |
| \\      /  F ield         | OpenFOAM: The Open Source CFD Toolbox           |
|  \\    /   O peration     | Version:  v1906                                 |
|   \\  /    A nd           | Web:      www.OpenFOAM.com                      |
|    \\/     M anipulation  |                                                 |
\*---------------------------------------------------------------------------*/
FoamFile
{
    version     2.0;
    format      ascii;
    class       volScalarField;
    location    "29";
    object      k;
}
// * * * * * * * * * * * * * * * * * * * * * * * * * * * * * * * * * * * * * //

dimensions      [0 2 -2 0 0 0 0];


internalField   nonuniform List<scalar> 
78750
(
0.000895249
0.00118668
0.0029654
0.00209586
0.00308026
0.00192185
0.00187021
0.00112461
0.00125828
0.00247795
0.00495456
0.00893459
0.0134301
0.0180931
0.0219649
0.0243904
0.0267788
0.0314034
0.0385889
0.0463365
0.0525003
0.0566357
0.0589886
0.0599085
0.0598744
0.0593225
0.0584421
0.0572363
0.0557648
0.0541759
0.0523018
0.0501044
0.0468847
0.0425586
0.0304822
0.0231696
0.0374489
0.0426124
0.045675
0.0496444
0.0541457
0.0566091
0.0443806
0.0321389
0.0376223
0.0477957
0.056119
0.0591997
0.0598671
0.0596903
0.0591601
0.0585019
0.0580165
0.0580111
0.0585024
0.0589844
0.0592775
0.0594502
0.0595357
0.0595765
0.0596203
0.0596904
0.0597555
0.0597576
0.0594283
0.0585931
0.0568555
0.0536254
0.0478011
0.0286747
0.0345578
0.0550683
0.057158
0.0555559
0.0540813
0.0540628
0.0538138
0.0530953
0.0527294
0.0544985
0.0563082
0.0569569
0.0567758
0.0563033
0.0557488
0.055174
0.0545549
0.0538028
0.0528219
0.0515215
0.0500323
0.0489415
0.0488369
0.0499105
0.0516793
0.053788
0.0561233
0.0584614
0.0603516
0.0613128
0.0612653
0.0594873
0.0552087
0.0476156
0.0263498
0.0249365
0.0388677
0.0424141
0.0436785
0.0438987
0.0438988
0.0438037
0.0439195
0.0440086
0.0437491
0.0430609
0.0419833
0.0404287
0.0382539
0.0353292
0.0320692
0.028427
0.0252376
0.0225995
0.0206843
0.0221679
0.0271832
0.0336089
0.0389563
0.0418144
0.0417307
0.039617
0.0367839
0.0340787
0.0325991
0.0330017
0.0333186
0.0300957
0.0242036
0.00978999
0.0237467
0.0365874
0.0415397
0.0447311
0.0469498
0.0482992
0.0489756
0.0492587
0.049288
0.0490938
0.0486705
0.0480459
0.0472591
0.0463058
0.0452339
0.0440919
0.0429636
0.0419374
0.0410965
0.0404384
0.0399857
0.0397631
0.039715
0.0397383
0.0397775
0.0398539
0.040054
0.0404758
0.0411723
0.0420963
0.042959
0.0432597
0.0422122
0.0388628
0.0269877
0.0252293
0.0347584
0.0382006
0.040558
0.0424187
0.0438937
0.0450552
0.0459515
0.0466369
0.0471496
0.0475054
0.0477042
0.0477376
0.047606
0.0473174
0.0468888
0.0463424
0.0457058
0.0450228
0.0443402
0.0436393
0.0429217
0.0421428
0.0413053
0.0404135
0.0394237
0.0383876
0.0373238
0.0362419
0.0352782
0.0345622
0.0337749
0.0321361
0.0291931
0.0209586
0.0278341
0.0415488
0.0469872
0.0505001
0.0528057
0.0543015
0.0552837
0.0559541
0.0564324
0.0567757
0.0570189
0.0571809
0.0572687
0.0572817
0.0572158
0.0570642
0.0568221
0.0564886
0.0560669
0.0555632
0.0549858
0.0543451
0.0536534
0.0529263
0.0521831
0.051445
0.0507398
0.0500808
0.049556
0.0489559
0.0482316
0.0470158
0.0445944
0.0388977
0.024886
0.0128353
0.040807
0.0525512
0.0580083
0.0612584
0.0632576
0.0638862
0.0628626
0.0608621
0.0589997
0.0577193
0.0568227
0.0560937
0.0554877
0.0549642
0.0545232
0.0541247
0.0537242
0.0532976
0.0528374
0.0523238
0.0517621
0.0511629
0.0505275
0.0498918
0.0492272
0.0485717
0.0478373
0.0470024
0.0458836
0.0443583
0.0420802
0.0386286
0.0328334
0.018824
0.00761582
0.0311295
0.0461304
0.0542719
0.0612236
0.0674312
0.0720401
0.0743733
0.0718028
0.0658145
0.0632579
0.0623611
0.0618096
0.0614088
0.0611396
0.0609956
0.0609561
0.060982
0.0610285
0.0610547
0.0610254
0.0609069
0.0606643
0.0602619
0.0596545
0.0587893
0.0575938
0.0560164
0.0540047
0.0517092
0.0493519
0.0471725
0.0448184
0.0413392
0.0323989
0.00970968
0.0205849
0.0275273
0.0339991
0.0414546
0.0466054
0.0502859
0.0524666
0.0533567
0.0543659
0.0566369
0.0581811
0.0577077
0.0557805
0.0542686
0.0536066
0.0534272
0.0536218
0.0540736
0.0546357
0.0552079
0.0557081
0.0560757
0.0562837
0.0562492
0.0559485
0.05533
0.0544054
0.05318
0.0516779
0.0499688
0.0479155
0.045506
0.0420157
0.032497
0.00191002
0.000627243
0.000825464
0.00727743
0.012632
0.0129257
0.0144903
0.0158748
0.0187623
0.023737
0.0304096
0.0376683
0.0453241
0.0529869
0.0593421
0.062786
0.0631466
0.0620389
0.0607793
0.0594836
0.0581321
0.0569938
0.0560857
0.0553132
0.0546041
0.0538581
0.0529774
0.0519001
0.0505832
0.0489961
0.0471255
0.0448865
0.0421426
0.0392005
0.0329943
0.0460696
0.0425359
0.037738
0.0331555
0.0280628
0.0210503
0.0148562
0.0100394
0.00638934
0.00421492
0.00375302
0.00504623
0.00690968
0.00966685
0.0130559
0.0173934
0.0217708
0.0309966
0.0408883
0.0442728
0.0465764
0.0486657
0.0502081
0.0512601
0.0514945
0.0511492
0.0504856
0.0495895
0.0484844
0.0472168
0.0457545
0.0440248
0.0419261
0.0393129
0.0329343
0.0415325
0.0440521
0.0429584
0.0403762
0.0364081
0.0316175
0.0267566
0.0222025
0.0180932
0.0144645
0.0103816
0.00672477
0.00342936
0.0023592
0.00196419
0.00198625
0.00318617
0.00450658
0.00503582
0.00443411
0.00305301
0.0188109
0.0393134
0.0471377
0.048807
0.0487692
0.0482485
0.0475454
0.0467688
0.0459703
0.0451022
0.0440094
0.0424979
0.0402677
0.0342538
0.0089473
0.0107938
0.00986434
0.00821188
0.00575667
0.00309769
0.000958633
0.00119276
0.000103376
0.00150511
0.00356614
0.00538994
0.00713591
0.0061354
0.0012253
0.000464128
0.000145134
0.00171242
0.0150269
0.0274432
0.03543
0.0425219
0.045921
0.0468849
0.0469246
0.0465824
0.0460516
0.0454329
0.0447653
0.0439574
0.0428216
0.0412413
0.0391419
0.0361698
0.0293058
0.00423417
0.00569299
0.00625835
0.00661901
0.00693947
0.00708178
0.00678677
0.00591762
0.00472661
0.00434923
0.00768289
0.0167578
0.0257185
0.0278652
0.0248886
0.0232933
0.0250815
0.0293722
0.035435
0.0395864
0.041589
0.0426386
0.0428022
0.0424238
0.0417106
0.0408179
0.0398972
0.0390051
0.0380975
0.0370672
0.035811
0.0343089
0.0325037
0.0298634
0.0228608
0.0049182
0.00593879
0.0059891
0.00585313
0.00560855
0.00522088
0.00463169
0.00400819
0.00452348
0.00913024
0.0197867
0.0329121
0.043194
0.0479598
0.048213
0.0475193
0.0473851
0.047844
0.0485795
0.0490061
0.0490305
0.0488
0.0483709
0.0478213
0.047249
0.0467415
0.0463242
0.0459178
0.0453818
0.0446031
0.0434592
0.0418085
0.0393817
0.0353422
0.0249142
0.00501199
0.00653448
0.00665034
0.00661112
0.00649042
0.00623576
0.00574565
0.00489302
0.00367491
0.00269026
0.00406218
0.0108583
0.0226293
0.034715
0.0436553
0.0494463
0.0530504
0.0553167
0.0567373
0.0575377
0.0578513
0.0577958
0.0574854
0.0570599
0.0567038
0.0565757
0.056657
0.0568059
0.0568564
0.056613
0.055827
0.0541611
0.051048
0.0445754
0.0242393
0.00416765
0.00580739
0.00611477
0.00620044
0.0062062
0.00614022
0.00598623
0.00570407
0.00522167
0.00447621
0.00355187
0.00293709
0.00362122
0.00672304
0.0116629
0.0167737
0.0214018
0.0253983
0.0286245
0.0309986
0.0326127
0.0336708
0.0343946
0.0349634
0.0355489
0.0363181
0.0373689
0.0387111
0.0402789
0.0419119
0.0433542
0.0442868
0.0440776
0.0412375
0.0248642
0.00549188
0.00656775
0.00667949
0.00667561
0.00662882
0.00653673
0.00638171
0.00613587
0.00576316
0.00521477
0.00438143
0.00370056
0.00189276
0.000994819
0.00245771
0.00493591
0.00740903
0.0095727
0.0116221
0.0138118
0.0160917
0.0181782
0.0198579
0.0211098
0.0220365
0.0227781
0.0234555
0.0241827
0.0250854
0.0262076
0.0275536
0.0288302
0.0301271
0.0305878
0.0243687
0.00544717
0.00613687
0.00628498
0.00631816
0.00629319
0.00620782
0.00604537
0.00579471
0.00545319
0.00499955
0.00438876
0.00344163
0.00221433
0.00375036
0.00690631
0.0110851
0.0168459
0.023088
0.0277486
0.0301539
0.0310605
0.0312301
0.0310595
0.0307089
0.0302553
0.0297419
0.0291767
0.0285291
0.0277778
0.0269539
0.0262256
0.0255439
0.0250245
0.023511
0.0246109
0.00728151
0.00694428
0.00679423
0.00667445
0.00651707
0.00626718
0.00586234
0.00526424
0.0044575
0.00344072
0.00220448
0.00142754
0.00432961
0.0102701
0.0182928
0.0274656
0.0352767
0.0398477
0.041468
0.0416291
0.0412453
0.0406728
0.0400464
0.0393892
0.0387066
0.0379698
0.0371206
0.0360748
0.0347441
0.0330922
0.0311519
0.0288546
0.0253389
0.0211596
0.0276952
0.00623806
0.00610694
0.00616516
0.00616689
0.00610152
0.00594241
0.00566722
0.0052624
0.00467584
0.00378188
0.00250524
0.00163382
0.00463379
0.0130039
0.0232625
0.0334558
0.0414528
0.0457095
0.046988
0.0469113
0.0463441
0.0456219
0.0448886
0.0442066
0.043553
0.0429028
0.0421938
0.041307
0.0400771
0.0383206
0.0359013
0.0326764
0.0285717
0.0272045
0.0338527
0.00710536
0.00663844
0.00654092
0.00642465
0.00622928
0.00590317
0.00541785
0.00480867
0.00411624
0.00330434
0.00236088
0.00190885
0.00451566
0.0120901
0.0222965
0.0327517
0.0415179
0.0468959
0.0490579
0.0494294
0.0490027
0.0482485
0.0473834
0.046526
0.045743
0.0450217
0.0443116
0.0435301
0.0425163
0.0410261
0.0387807
0.0356445
0.0324616
0.0331436
0.0368312
0.00558828
0.00592763
0.0061187
0.00617386
0.00615191
0.00603069
0.00575964
0.00530573
0.00466868
0.00382206
0.00276984
0.0019621
0.00339355
0.00969241
0.0196843
0.0305841
0.040478
0.0477279
0.0516935
0.0530895
0.0529527
0.052033
0.0507855
0.0494468
0.0481239
0.0468676
0.0456724
0.0445042
0.0432617
0.0417663
0.0396895
0.0364912
0.0316973
0.0279373
0.0356235
0.00578988
0.00624308
0.00634365
0.0063238
0.00624082
0.00607996
0.00581192
0.00543929
0.0049963
0.0044767
0.00377428
0.00279831
0.00204997
0.0039242
0.0110851
0.0218095
0.033176
0.0434618
0.0514548
0.0565363
0.0589852
0.0594242
0.0584932
0.0567717
0.0547096
0.0525792
0.0504932
0.0484614
0.0464289
0.0442558
0.0415881
0.0375918
0.0309788
0.0254345
0.0384081
0.00519202
0.00601386
0.00622252
0.00628834
0.00631303
0.00629213
0.00616848
0.00588761
0.00547323
0.00499701
0.00449142
0.00389465
0.00309785
0.00226441
0.0027266
0.00699935
0.0153726
0.0256827
0.03623
0.0457934
0.0535849
0.0591348
0.0624585
0.0637716
0.0634151
0.0618285
0.0594834
0.056775
0.0539318
0.0509791
0.0477145
0.0437031
0.038843
0.03639
0.0442551
0.00558456
0.0062154
0.00629011
0.00626841
0.00623145
0.00620809
0.00616447
0.00601686
0.00573928
0.00536737
0.00495452
0.00452737
0.00405651
0.00347496
0.00277334
0.00228959
0.00306865
0.0063581
0.0122556
0.0197871
0.0280834
0.0364112
0.0441991
0.0509337
0.0562035
0.059799
0.0616247
0.0617876
0.0605634
0.0583517
0.0554979
0.0521636
0.0485064
0.0450469
0.0400992
0.00594398
0.00625336
0.00624242
0.00619901
0.00617824
0.00622345
0.00627125
0.00620386
0.00601219
0.005736
0.00540882
0.00506016
0.0047026
0.00431984
0.00387575
0.00334114
0.00275845
0.00234134
0.00252256
0.00379987
0.00643696
0.0103398
0.015255
0.0209206
0.0269898
0.0330988
0.0388432
0.0437393
0.047316
0.0491882
0.0492417
0.0477198
0.0448621
0.0397533
0.02601
0.00590149
0.00612675
0.00607566
0.00600008
0.00594961
0.00600189
0.00611869
0.00615481
0.00607796
0.00591818
0.00570018
0.00544548
0.00517329
0.0048927
0.00459883
0.00427456
0.00389892
0.00345916
0.002976
0.00253065
0.00226689
0.00235255
0.00292585
0.00406686
0.00581655
0.00819122
0.0111561
0.0145775
0.0182017
0.0216715
0.0244548
0.0257723
0.0251779
0.0223222
0.0133863
0.00563745
0.00605217
0.00603608
0.00596622
0.0058945
0.00590959
0.00605529
0.00619359
0.00622879
0.00617155
0.0060457
0.00586844
0.00565396
0.00541605
0.00516435
0.00490064
0.00462
0.00431232
0.00396713
0.00358079
0.00316667
0.00276136
0.00241682
0.00217951
0.0020779
0.00213247
0.00237259
0.00284124
0.00358903
0.00467336
0.00614406
0.0078604
0.00892086
0.00853954
0.00679242
0.00520027
0.00592794
0.00597082
0.00590266
0.00577444
0.00563344
0.00563218
0.005808
0.00598779
0.00607789
0.00608126
0.00601766
0.00590161
0.00574545
0.00555961
0.0053512
0.00512367
0.00487655
0.00460681
0.00431076
0.00398723
0.00364135
0.00328714
0.00294508
0.00263393
0.00236351
0.00213409
0.00194042
0.00177691
0.00165047
0.00163102
0.00193267
0.00262755
0.00308261
0.00374526
0.0052861
0.00611311
0.00620423
0.00616518
0.00605078
0.00585146
0.00563853
0.00563331
0.0058241
0.00601606
0.00612429
0.00615123
0.00611366
0.00602663
0.00590184
0.00574819
0.00557133
0.00537384
0.00515673
0.00492027
0.00466455
0.00439047
0.00410111
0.00380266
0.00350381
0.00321371
0.00293899
0.00268134
0.00243663
0.00219369
0.00193521
0.00167167
0.00153267
0.00161847
0.00215603
0.00519695
0.00606421
0.00621802
0.00622929
0.00616225
0.00599859
0.00572062
0.00547269
0.00549099
0.00568977
0.00588258
0.0060028
0.00605109
0.0060441
0.00599564
0.00591416
0.00580339
0.00566493
0.00550062
0.00531335
0.00510641
0.00488276
0.00464483
0.00439493
0.00413581
0.00387126
0.00360623
0.00334663
0.00309925
0.00286973
0.0026537
0.00241205
0.00203537
0.00164986
0.00188338
0.00536436
0.00626683
0.00645627
0.00650329
0.00648042
0.00637395
0.00614152
0.0057821
0.00553563
0.0055907
0.00578292
0.00594701
0.0060395
0.00606934
0.00605387
0.00600476
0.00592604
0.00581751
0.00568041
0.00551879
0.0053371
0.00513952
0.00492952
0.00470941
0.0044803
0.0042426
0.00399822
0.0037517
0.00351175
0.00328685
0.0030618
0.00274595
0.00224685
0.0019675
0.00245965
0.0052717
0.00619073
0.0064142
0.00648974
0.00650147
0.00644405
0.00628198
0.00596211
0.00554927
0.00537924
0.00552051
0.00574186
0.00590407
0.00598784
0.00601382
0.00599847
0.00594576
0.0058575
0.00573702
0.00558803
0.00541471
0.00522168
0.00501405
0.00479787
0.00457924
0.00435635
0.00412475
0.00388357
0.00362514
0.00332389
0.00294193
0.00248766
0.0021672
0.00224127
0.00291017
0.00572688
0.00643881
0.00660208
0.00665468
0.0066611
0.00661763
0.00649939
0.00626478
0.00587534
0.0055172
0.00548342
0.00565786
0.00583268
0.00593495
0.00597468
0.00597112
0.0059302
0.00585268
0.00574042
0.00559649
0.00542493
0.00523052
0.0050187
0.00479563
0.00456856
0.0043419
0.00410516
0.00383331
0.00348679
0.00305024
0.00262577
0.0022554
0.00209991
0.00223267
0.00271622
0.00602924
0.00640803
0.00648782
0.0064996
0.00647014
0.00638896
0.00624677
0.00605598
0.00581755
0.00556748
0.00551301
0.0056634
0.00583096
0.00593006
0.00597067
0.00597104
0.00593528
0.00586268
0.00575415
0.00561213
0.00544032
0.00524345
0.00502713
0.00479784
0.00456289
0.00432216
0.00405465
0.00371999
0.00327952
0.00279425
0.00244355
0.00219006
0.00207135
0.00211306
0.00235
0.0064921
0.00659032
0.00660273
0.00658462
0.00652547
0.00639938
0.00619812
0.00597401
0.00578658
0.00565462
0.0056415
0.00576112
0.00589516
0.00597734
0.0060112
0.00600905
0.00597385
0.00590448
0.00580089
0.0056645
0.00549815
0.005306
0.00509337
0.00486668
0.00463362
0.0043844
0.00409462
0.0037378
0.00328638
0.00279077
0.00243461
0.00222549
0.00209435
0.00206421
0.00225176
0.00626754
0.00635892
0.00640184
0.00640085
0.00634506
0.00620275
0.00596909
0.00572915
0.00559952
0.00560374
0.0056992
0.00584007
0.00596284
0.00603738
0.00606917
0.00606727
0.00603445
0.00596982
0.00587311
0.00574522
0.00558842
0.00540644
0.00520451
0.0049892
0.00475818
0.0045025
0.0042126
0.00386975
0.00344724
0.00295904
0.00254639
0.00231147
0.00217253
0.00213737
0.002392
0.00624381
0.00646367
0.00653778
0.00655357
0.00651072
0.00637305
0.0061138
0.00578995
0.00555468
0.00551471
0.00563353
0.00580669
0.00595365
0.00604635
0.0060922
0.00610145
0.0060795
0.00602687
0.00594266
0.00582771
0.00568416
0.00551582
0.00532728
0.00511978
0.00489122
0.00463881
0.0043563
0.00402879
0.00362981
0.0031504
0.00268957
0.0024097
0.00228187
0.00227975
0.00256256
0.00590102
0.00627798
0.00641088
0.00646368
0.00645872
0.00636694
0.00615224
0.0058275
0.00551224
0.00537001
0.00544849
0.00564634
0.00584099
0.00597697
0.00605498
0.00608836
0.00608647
0.0060528
0.0059868
0.00588895
0.00576116
0.00560698
0.00542988
0.00523058
0.00500746
0.00475825
0.00447763
0.00415166
0.00375328
0.0032658
0.00277663
0.00248085
0.0023808
0.00239746
0.00260205
0.00598451
0.00643382
0.00658983
0.00666384
0.00668517
0.00662421
0.00643307
0.00608778
0.00566034
0.0053293
0.00524995
0.00540065
0.0056294
0.00581989
0.00594423
0.00601315
0.00604058
0.00603343
0.00599231
0.00591716
0.00580959
0.00567267
0.00551019
0.00532256
0.00510715
0.00486117
0.00457942
0.0042478
0.0038383
0.00333056
0.00280839
0.00250354
0.00242717
0.00243424
0.00250886
0.00574543
0.00626904
0.00647254
0.00658639
0.00665899
0.00667116
0.00657722
0.00632827
0.00592674
0.00548306
0.00519498
0.00518699
0.00537905
0.00560535
0.00577798
0.00588752
0.00594779
0.00596971
0.00595676
0.00590887
0.00582679
0.00571266
0.00556938
0.00539665
0.00519156
0.00495123
0.00467061
0.00433545
0.00391673
0.00338772
0.00281811
0.00245707
0.0023706
0.00235803
0.00235816
0.00589102
0.00640433
0.0065928
0.00670259
0.00678467
0.00682719
0.00678816
0.0066109
0.00626614
0.00579469
0.00533939
0.00509936
0.0051474
0.00535456
0.00556351
0.00571581
0.00581211
0.00586417
0.00587977
0.00586078
0.00580728
0.00572073
0.0056021
0.00545024
0.00526342
0.00503943
0.00477327
0.00445294
0.00405248
0.003539
0.00294358
0.00248271
0.00232322
0.00226991
0.00225158
0.00586435
0.00628543
0.00645602
0.00656396
0.006659
0.00673985
0.00677475
0.00670656
0.0064891
0.00611591
0.00564536
0.00523381
0.00506466
0.00515413
0.00534833
0.00552529
0.00565061
0.00572811
0.00576713
0.00577208
0.00574352
0.00568212
0.00558795
0.00545988
0.00529698
0.00509783
0.00485786
0.00456816
0.00420869
0.00374878
0.00319005
0.00268132
0.00243349
0.00230962
0.002223
0.00608347
0.00636741
0.00648642
0.00656615
0.00664293
0.00671968
0.0067729
0.00674931
0.0066038
0.00632414
0.00592804
0.00548576
0.00515063
0.00506004
0.00516995
0.00533721
0.00547834
0.00557409
0.00562938
0.00565031
0.00563872
0.00559476
0.00551827
0.00540837
0.00526411
0.00508418
0.00486473
0.00459834
0.00426975
0.0038562
0.0033573
0.00287584
0.00258841
0.00239272
0.00217034
0.00609408
0.00625151
0.00633955
0.00640551
0.0064773
0.00656502
0.00665569
0.00669447
0.00662551
0.00643297
0.00612895
0.00574499
0.00536164
0.00511777
0.00508831
0.00519387
0.00532439
0.00542643
0.0054904
0.00551971
0.00551663
0.00548114
0.00541231
0.00530884
0.00516931
0.00499164
0.00477133
0.00449976
0.00416316
0.00375
0.00328117
0.00284964
0.00256856
0.00233149
0.00199668
0.00621833
0.00628139
0.00633103
0.00636894
0.00641154
0.00647287
0.00656006
0.00663384
0.00662601
0.00650468
0.00627705
0.00596431
0.00560507
0.00528436
0.00511363
0.00511166
0.00519842
0.00529328
0.00536117
0.00539655
0.00539989
0.00537051
0.00530646
0.00520536
0.00506474
0.00488074
0.00464702
0.00435323
0.00398642
0.00354523
0.00307219
0.00266654
0.00239744
0.00214848
0.00177173
0.006247
0.00625932
0.00630029
0.00632717
0.00634724
0.00637149
0.00642687
0.00651279
0.00656176
0.0065161
0.0063675
0.00613143
0.00583121
0.00551083
0.00525155
0.00512634
0.00512868
0.00519116
0.0052532
0.00529228
0.0053029
0.00528255
0.00522816
0.00513619
0.00500279
0.00482257
0.00458804
0.00428853
0.00391283
0.00346402
0.00298987
0.00258807
0.00231143
0.00204419
0.00161071
0.00629465
0.00634132
0.00640258
0.00643131
0.00643095
0.00639985
0.00637061
0.00640237
0.00646931
0.0064874
0.00641636
0.00625789
0.00602705
0.00574742
0.00546465
0.00524575
0.00513963
0.00513394
0.00516988
0.00520507
0.00522198
0.00521375
0.00517576
0.00510352
0.00499176
0.00483434
0.00462372
0.00435041
0.00400548
0.00359222
0.00315003
0.00275866
0.00246179
0.00214797
0.00156169
0.00626891
0.00643408
0.00655301
0.00660958
0.00661352
0.006549
0.00642845
0.00634615
0.00636607
0.00641527
0.00641085
0.00632714
0.00616903
0.0059501
0.00569338
0.00543944
0.00524376
0.00514419
0.00512257
0.00513394
0.00514699
0.00514649
0.00512459
0.00507558
0.00499305
0.00487025
0.00469953
0.0044722
0.00418048
0.0038259
0.00343607
0.00306768
0.00275408
0.00238552
0.00160447
0.00628437
0.0065865
0.0067709
0.0068671
0.00689506
0.00682882
0.00664867
0.00642729
0.00631967
0.00633731
0.00637117
0.00635156
0.00626269
0.00610959
0.0059037
0.0056634
0.00542477
0.0052384
0.00513289
0.00508995
0.00507688
0.00506916
0.00505299
0.00502002
0.00496275
0.00487384
0.00474522
0.00456787
0.00433318
0.00403891
0.00370121
0.00335805
0.00303515
0.0026252
0.00170048
0.0063221
0.00672378
0.0069647
0.00710646
0.00717876
0.00715084
0.0069788
0.00667526
0.00640711
0.00631529
0.00633341
0.00634992
0.00631482
0.00621948
0.00606844
0.00586856
0.00563641
0.00540622
0.0052221
0.00510177
0.00503368
0.0049941
0.00496345
0.00492906
0.00488135
0.00481215
0.00471297
0.00457411
0.00438511
0.00413903
0.00384232
0.00352052
0.00319531
0.00276269
0.00178156
0.00637135
0.00680909
0.0070786
0.0072533
0.00737006
0.00739723
0.00727997
0.00698461
0.00661289
0.00637945
0.00632943
0.00634972
0.00635129
0.00630297
0.00620056
0.00604522
0.00584361
0.00561235
0.00538398
0.00519089
0.00504891
0.00495161
0.00488184
0.00482364
0.00476407
0.00469313
0.00460181
0.00447973
0.00431517
0.00409783
0.00382785
0.00352359
0.00320399
0.00276699
0.00179975
0.00644879
0.00685468
0.00711664
0.00730255
0.00745164
0.00753364
0.00748754
0.00725858
0.0068807
0.00654011
0.00638847
0.00637444
0.00638927
0.00637465
0.00631245
0.00619828
0.00603418
0.00582719
0.00559387
0.00535932
0.00515026
0.00498194
0.00485218
0.00474872
0.0046566
0.00456322
0.00445746
0.00432811
0.00416315
0.00395217
0.00369443
0.00340569
0.00310058
0.00267685
0.001762
0.00655404
0.00683672
0.00705358
0.00722656
0.00738921
0.0075137
0.00753407
0.00738971
0.00708513
0.00673501
0.00650927
0.00644188
0.00644679
0.00644955
0.00641669
0.00633667
0.00620786
0.00603276
0.00581835
0.00557713
0.00533017
0.00510071
0.00490333
0.00473913
0.00459803
0.00446666
0.0043316
0.00417988
0.0039992
0.00378095
0.00352713
0.00325314
0.00296714
0.00256595
0.00170208
0.00667782
0.00679116
0.00694764
0.00709648
0.00726005
0.00741085
0.00747668
0.00739836
0.00717999
0.00689225
0.00665847
0.00655213
0.00653529
0.00654046
0.00652534
0.00647143
0.00637332
0.00623061
0.00604516
0.00582091
0.00556887
0.00530739
0.00505663
0.00483057
0.00463087
0.00444992
0.00427562
0.00409413
0.00389263
0.00366399
0.0034125
0.0031526
0.00288587
0.00250759
0.00166439
0.00670912
0.00666788
0.00677513
0.00690559
0.00707253
0.00724591
0.00734546
0.00731691
0.00717243
0.00696588
0.00677514
0.00666517
0.00663369
0.00663572
0.00663059
0.0065958
0.00652245
0.00640788
0.00625143
0.00605305
0.00581623
0.00555161
0.00527528
0.00500509
0.00475268
0.00452028
0.00430203
0.00408724
0.00386398
0.00362504
0.00337465
0.00312444
0.00287009
0.00250378
0.00164617
0.00662319
0.00649742
0.00657813
0.00670047
0.00687442
0.00706787
0.00719607
0.0072087
0.00712129
0.00697829
0.00683331
0.00673628
0.0067009
0.00670304
0.00670857
0.00669319
0.00664476
0.00655823
0.00643119
0.00626166
0.00604939
0.00579909
0.00552067
0.00522882
0.0049385
0.00466012
0.00439704
0.00414547
0.00389747
0.00364712
0.00339555
0.0031494
0.00289913
0.00253259
0.0016383
0.0063834
0.00627723
0.00635938
0.00647995
0.0066534
0.00685517
0.00701062
0.00706825
0.00703541
0.00694588
0.00683839
0.00675281
0.00671243
0.00671184
0.00672623
0.00673094
0.00671001
0.00665499
0.00656116
0.00642496
0.00624421
0.0060201
0.00575743
0.00546562
0.00515717
0.0048451
0.00453996
0.00424708
0.00396622
0.003695
0.00343393
0.00318443
0.00293111
0.002556
0.00162362
0.00607478
0.00609605
0.00620409
0.00632141
0.00647413
0.00665592
0.00682036
0.00691534
0.00692861
0.00688043
0.00680019
0.0067207
0.00666937
0.00665626
0.00666956
0.00668811
0.00669277
0.0066704
0.00661238
0.00651291
0.00636832
0.00617809
0.00594358
0.00566952
0.00536377
0.00503716
0.00470243
0.00437147
0.00405289
0.00375165
0.00347069
0.0032089
0.00294594
0.00255749
0.00159621
0.00581488
0.00600197
0.00613698
0.00624995
0.00637798
0.00652578
0.00667329
0.00678377
0.00683008
0.00681374
0.00675381
0.00667657
0.0066089
0.00657081
0.00656526
0.0065812
0.00660062
0.00660577
0.00658189
0.00651912
0.00641213
0.00625896
0.00605881
0.00581311
0.00552514
0.00520193
0.0048547
0.00449795
0.00414709
0.00381534
0.00351093
0.0032327
0.00295634
0.00255185
0.00156583
0.00576611
0.00601513
0.00615399
0.00626498
0.00639143
0.00653195
0.00665687
0.00674915
0.00679656
0.00679202
0.00674271
0.00666604
0.00658309
0.00651424
0.00647228
0.00646061
0.00647111
0.0064868
0.00648676
0.00645513
0.00638324
0.00626697
0.00610361
0.00589178
0.00563111
0.00532463
0.0049803
0.00461209
0.0042392
0.00388208
0.0035554
0.0032599
0.0029687
0.00254667
0.00153663
0.00592951
0.00606337
0.00616174
0.00626404
0.0064172
0.00661244
0.00676874
0.0068543
0.00688402
0.00686786
0.00681212
0.0067279
0.00662999
0.0065327
0.00644931
0.00639131
0.00636402
0.00636097
0.00636241
0.00634726
0.0063013
0.00621664
0.00608811
0.00591134
0.00568306
0.00540287
0.00507511
0.00471124
0.00433073
0.00395784
0.00361248
0.00329872
0.00298978
0.00254728
0.00151316
0.0062576
0.00612405
0.00613187
0.00620301
0.00639047
0.00668509
0.00692791
0.00704928
0.00707786
0.00704756
0.00697687
0.00687819
0.00676334
0.00664144
0.00652207
0.00641609
0.00633477
0.0062842
0.00625669
0.00623414
0.00619784
0.00613445
0.00603485
0.00589105
0.00569695
0.00544911
0.00514859
0.00480375
0.0044321
0.00405802
0.00370358
0.00337604
0.00305122
0.00258934
0.00152014
0.00648817
0.00609199
0.00601275
0.0060491
0.0062764
0.0066921
0.00704702
0.007237
0.00729977
0.00728088
0.0072087
0.00710149
0.00697311
0.00683177
0.00668483
0.00653987
0.00640633
0.00629476
0.00621071
0.00614979
0.00609827
0.00603973
0.00595927
0.00584392
0.00568371
0.00547159
0.00520489
0.00488807
0.00453529
0.00416922
0.00381258
0.00347552
0.00313688
0.00265463
0.00153576
0.00642108
0.00595682
0.00584602
0.00585394
0.00608062
0.0065787
0.00704481
0.00732535
0.00745748
0.00748869
0.00744806
0.00735618
0.00722995
0.00708069
0.00691711
0.00674585
0.00657323
0.00640712
0.00625645
0.00612921
0.00602741
0.00594295
0.00585971
0.00575913
0.00562595
0.00544869
0.00522041
0.00494086
0.00461905
0.00427311
0.0039238
0.00358279
0.00323178
0.00272589
0.00154429
0.00613302
0.00582734
0.00572932
0.00568645
0.0057872
0.00624089
0.00681733
0.00723116
0.00747407
0.00759474
0.00762467
0.00758449
0.00749089
0.00735796
0.00719746
0.00701803
0.00682571
0.0066254
0.00642265
0.00622695
0.00605233
0.00590792
0.00578888
0.00567668
0.0055508
0.00539463
0.005197
0.00495334
0.00466741
0.00435129
0.00402092
0.00368665
0.00333206
0.00281083
0.00157141
0.00595679
0.00583822
0.00574743
0.00564159
0.0055451
0.00576932
0.00637551
0.00694046
0.00732209
0.00755529
0.00768029
0.00772085
0.00769153
0.00760567
0.00747583
0.00731256
0.00712341
0.00691272
0.00668296
0.00643925
0.0061961
0.00597441
0.00579069
0.00564174
0.00550612
0.00535867
0.00518046
0.00496158
0.00470177
0.00440951
0.0040976
0.00377466
0.00342454
0.0028993
0.00161859
0.00613107
0.00594876
0.00582324
0.00569354
0.00553086
0.00554329
0.00602501
0.00664684
0.00712462
0.00744584
0.0076524
0.00777081
0.0078149
0.00779433
0.00771818
0.00759515
0.00743231
0.00723376
0.00700077
0.00673471
0.00644326
0.00614375
0.00586437
0.00563173
0.00544977
0.00529561
0.00513621
0.0049465
0.00471591
0.00444744
0.00415216
0.00383909
0.00349231
0.00296071
0.00164144
0.00648242
0.00595404
0.00572941
0.00558458
0.00551871
0.00561844
0.00601319
0.00656385
0.00702793
0.00736752
0.00761028
0.00777686
0.00787785
0.00791875
0.00790379
0.00783717
0.0077227
0.0075626
0.007357
0.00710491
0.00680796
0.00647248
0.00611544
0.00576802
0.00546533
0.00522579
0.00503481
0.00485642
0.00465879
0.00442744
0.00416308
0.00387073
0.00353368
0.00299891
0.00164647
0.00644992
0.00570582
0.00541071
0.00525564
0.00533417
0.0056597
0.00609923
0.00656195
0.00696289
0.00728564
0.00754069
0.0077374
0.00788061
0.00797228
0.00801349
0.00800528
0.00794863
0.00784373
0.00768958
0.00748415
0.00722629
0.00691565
0.00655581
0.0061601
0.00575479
0.00537804
0.00506117
0.0048055
0.0045834
0.00436278
0.00412434
0.0038593
0.00354501
0.00302885
0.0016825
0.0057644
0.00532663
0.00516
0.00505937
0.0051114
0.00538089
0.00577361
0.00619959
0.00660267
0.00695717
0.00725844
0.00750864
0.00771012
0.007864
0.00797044
0.00802926
0.00804006
0.0080018
0.00791274
0.00777114
0.00757571
0.00732453
0.00701593
0.00665116
0.00623726
0.00579512
0.00536147
0.00497495
0.00465033
0.00437312
0.00411653
0.00385705
0.00356218
0.00307899
0.00177598
0.00494237
0.00525003
0.00534323
0.00532299
0.0051994
0.00508412
0.00513096
0.00537761
0.00575953
0.00618281
0.00658382
0.00693642
0.00723412
0.00748025
0.00767607
0.00782187
0.00791696
0.0079595
0.00794757
0.00788056
0.00775792
0.00757846
0.00734025
0.00704101
0.00667872
0.00625741
0.00579491
0.00532704
0.00489567
0.00452328
0.00420383
0.00391501
0.00361762
0.00315464
0.00189474
0.00447187
0.00543471
0.00576336
0.00589219
0.00587917
0.00567741
0.0053329
0.00503974
0.00496982
0.0051714
0.00556334
0.00601393
0.00643524
0.00680074
0.00710793
0.00735859
0.00755329
0.00768948
0.00776538
0.00778083
0.00773614
0.00763145
0.00746637
0.00723813
0.00694269
0.00657711
0.00614533
0.00566744
0.00518335
0.00473779
0.00435427
0.00402433
0.00370725
0.00323811
0.0019852
0.00441799
0.00546314
0.00592726
0.00622462
0.00645786
0.00659383
0.00652579
0.00615695
0.00558697
0.00507737
0.00489074
0.00510182
0.00552693
0.00597609
0.00638051
0.00672868
0.00701746
0.00724434
0.00740717
0.00750448
0.00753635
0.00750394
0.00740709
0.00724382
0.00701018
0.00670122
0.00631517
0.0058625
0.0053756
0.00490399
0.00448712
0.00412894
0.00378784
0.00328975
0.00200848
0.00482795
0.00545642
0.00578466
0.00603836
0.00631812
0.00664411
0.00696111
0.00713305
0.00699719
0.00643949
0.00560824
0.0050203
0.00500863
0.00534741
0.00575966
0.00614273
0.00647731
0.00675925
0.00698326
0.0071441
0.00723906
0.00726678
0.00722661
0.00711687
0.00693385
0.00667246
0.00632986
0.00591383
0.0054529
0.00499401
0.00457716
0.00420874
0.00384613
0.00330986
0.0019912
0.00565188
0.00570446
0.00578414
0.00588174
0.00602718
0.00625583
0.00659961
0.00697921
0.00723008
0.00722903
0.00678675
0.00588074
0.00525633
0.00524166
0.00552152
0.00584384
0.00614013
0.00640324
0.00663027
0.00681222
0.00693856
0.00700229
0.00699954
0.00692722
0.00678126
0.00655689
0.00625233
0.00587632
0.00545562
0.00503039
0.0046322
0.00426454
0.00388391
0.0033085
0.0019595
0.00633826
0.00574826
0.0056547
0.00571765
0.00590645
0.00615216
0.00642299
0.00670832
0.00691724
0.00696697
0.00678192
0.00625703
0.00570362