/*--------------------------------*- C++ -*----------------------------------*\
| =========                 |                                                 |
| \\      /  F ield         | OpenFOAM: The Open Source CFD Toolbox           |
|  \\    /   O peration     | Version:  v1906                                 |
|   \\  /    A nd           | Web:      www.OpenFOAM.com                      |
|    \\/     M anipulation  |                                                 |
\*---------------------------------------------------------------------------*/
FoamFile
{
    version     2.0;
    format      ascii;
    class       surfaceScalarField;
    location    "56";
    object      phi;
}
// * * * * * * * * * * * * * * * * * * * * * * * * * * * * * * * * * * * * * //

dimensions      [1 0 -1 0 0 0 0];
oriented        oriented;


internalField   nonuniform List<scalar> 
228225
(
-2.71325e-09
2.52668e-09
-5.28944e-11
-9.05101e-09
9.99887e-09
-3.66695e-09
-1.90999e-08
1.46787e-08
-4.62668e-09
-3.27396e-08
1.86522e-08
-5.01387e-09
-4.94223e-08
2.20013e-08
-5.31785e-09
-6.84433e-08
2.46915e-08
-5.67153e-09
-8.91041e-08
2.6754e-08
-6.09289e-09
-1.10699e-07
2.81903e-08
-6.59484e-09
-1.32605e-07
2.90633e-08
-7.15859e-09
-1.54214e-07
2.93968e-08
-7.78611e-09
-1.75021e-07
2.9267e-08
-8.4601e-09
-1.94536e-07
2.8697e-08
-9.18388e-09
-2.12359e-07
2.77666e-08
-9.94268e-09
-2.28128e-07
2.65086e-08
-1.07391e-08
-2.41562e-07
2.49916e-08
-1.15587e-08
-2.52403e-07
2.32464e-08
-1.24028e-08
-2.60478e-07
2.13203e-08
-1.32462e-08
-2.65621e-07
1.92414e-08
-1.40993e-08
-2.67755e-07
1.70664e-08
-1.49306e-08
-2.66833e-07
1.48182e-08
-1.57412e-08
-2.6286e-07
1.25393e-08
-1.65136e-08
-2.5587e-07
1.0248e-08
-1.72354e-08
-2.45962e-07
7.97794e-09
-1.78885e-08
-2.33244e-07
5.74454e-09
-1.8462e-08
-2.17879e-07
3.57631e-09
-1.89392e-08
-2.00061e-07
1.48975e-09
-1.931e-08
-1.80014e-07
-4.85135e-10
-1.95601e-08
-1.57999e-07
-2.33487e-09
-1.96811e-08
-1.34327e-07
-4.01426e-09
-1.96599e-08
-1.09354e-07
-5.48872e-09
-1.94833e-08
-8.3534e-08
-6.70189e-09
-1.91157e-08
-5.74995e-08
-7.57358e-09
-1.84629e-08
-3.23241e-08
-7.9462e-09
-1.72275e-08
-1.02918e-08
-7.5572e-09
-1.44759e-08
-4.85088e-09
-5.44078e-09
-7.84373e-09
2.58344e-08
-1.54647e-08
-2.75563e-08
4.67187e-08
-1.7006e-08
-5.14284e-08
5.63575e-08
-1.78071e-08
-7.73619e-08
6.33362e-08
-1.87495e-08
-1.03841e-07
6.80861e-08
-1.96071e-08
-1.29817e-07
7.10219e-08
-2.03536e-08
-1.54484e-07
7.24598e-08
-2.10393e-08
-1.77291e-07
7.26757e-08
-2.16785e-08
-1.97819e-07
7.18796e-08
-2.22872e-08
-2.1582e-07
7.02582e-08
-2.28616e-08
-2.31103e-07
6.79624e-08
-2.34109e-08
-2.43595e-07
6.51177e-08
-2.39294e-08
-2.53246e-07
6.18395e-08
-2.4423e-08
-2.60083e-07
5.82293e-08
-2.48843e-08
-2.64149e-07
5.43748e-08
-2.53176e-08
-2.65542e-07
5.03562e-08
-2.57154e-08
-2.64367e-07
4.62283e-08
-2.60835e-08
-2.60764e-07
4.20514e-08
-2.64149e-08
-2.54861e-07
3.78773e-08
-2.67119e-08
-2.46836e-07
3.37604e-08
-2.6967e-08
-2.36855e-07
2.97391e-08
-2.71815e-08
-2.25103e-07
2.58464e-08
-2.73502e-08
-2.1176e-07
2.2109e-08
-2.74751e-08
-1.97016e-07
1.85499e-08
-2.75485e-08
-1.81059e-07
1.51874e-08
-2.75683e-08
-1.6408e-07
1.20378e-08
-2.75271e-08
-1.46262e-07
9.11483e-09
-2.74191e-08
-1.27797e-07
6.43169e-09
-2.72307e-08
-1.08867e-07
4.00158e-09
-2.69457e-08
-8.96602e-08
1.84081e-09
-2.65356e-08
-7.03567e-08
-3.55595e-11
-2.59694e-08
-5.1172e-08
-1.56419e-09
-2.51957e-08
-3.23742e-08
-2.69632e-09
-2.40478e-08
-1.46805e-08
-3.20412e-09
-2.2046e-08
-2.02405e-09
-1.75077e-08
-5.54588e-09
4.0234e-08
-8.85251e-09
-1.56569e-08
6.74464e-08
-1.06193e-08
-2.71726e-08
7.92962e-08
-1.14221e-08
-3.92116e-08
8.74822e-08
-1.21058e-08
-5.11847e-08
9.27749e-08
-1.27168e-08
-6.26699e-08
9.58162e-08
-1.33092e-08
-7.33794e-08
9.70631e-08
-1.38929e-08
-8.31059e-08
9.68929e-08
-1.44907e-08
-9.1717e-08
9.55851e-08
-1.50948e-08
-9.91184e-08
9.33743e-08
-1.57149e-08
-1.05262e-07
9.04428e-08
-1.6336e-08
-1.10131e-07
8.69478e-08
-1.69624e-08
-1.13732e-07
8.3018e-08
-1.75773e-08
-1.16084e-07
7.87658e-08
-1.8183e-08
-1.1723e-07
7.42834e-08
-1.87635e-08
-1.17207e-07
6.96536e-08
-1.93206e-08
-1.16097e-07
6.49602e-08
-1.98426e-08
-1.13978e-07
6.02649e-08
-2.03312e-08
-1.10943e-07
5.56165e-08
-2.07756e-08
-1.07074e-07
5.10671e-08
-2.11752e-08
-1.02465e-07
4.6652e-08
-2.15223e-08
-9.72004e-08
4.24015e-08
-2.18189e-08
-9.13752e-08
3.83403e-08
-2.2059e-08
-8.50572e-08
3.44789e-08
-2.22444e-08
-7.83326e-08
3.08307e-08
-2.23697e-08
-7.1263e-08
2.74042e-08
-2.24349e-08
-6.39183e-08
2.42031e-08
-2.24333e-08
-5.63537e-08
2.12259e-08
-2.23599e-08
-4.86214e-08
1.84721e-08
-2.22014e-08
-4.07741e-08
1.59345e-08
-2.19418e-08
-3.28536e-08
1.35967e-08
-2.15524e-08
-2.48723e-08
1.14378e-08
-2.09832e-08
-1.6873e-08
9.42356e-09
-2.01197e-08
-8.88172e-09
7.50181e-09
-1.86979e-08
4.45687e-09
-1.53613e-08
-5.57185e-09
4.46121e-08
1.194e-09
-1.02542e-08
7.23759e-08
-2.48865e-10
-1.43622e-08
8.4619e-08
-1.21394e-09
-1.81515e-08
9.31745e-08
-1.90298e-09
-2.17367e-08
9.88629e-08
-2.50232e-09
-2.51061e-08
1.02301e-07
-3.11649e-09
-2.82143e-08
1.03961e-07
-3.78975e-09
-3.10187e-08
1.0421e-07
-4.51132e-09
-3.3484e-08
1.03341e-07
-5.29072e-09
-3.55796e-08
1.0158e-07
-6.11022e-09
-3.72804e-08
9.91182e-08
-6.9737e-09
-3.85813e-08
9.6107e-08
-7.86015e-09
-3.94775e-08
9.26792e-08
-8.76415e-09
-3.99847e-08
8.89385e-08
-9.66465e-09
-4.01187e-08
8.49781e-08
-1.05612e-08
-3.9903e-08
8.08716e-08
-1.14352e-08
-3.93659e-08
7.67035e-08
-1.22797e-08
-3.85527e-08
7.25313e-08
-1.30793e-08
-3.75058e-08
6.84034e-08
-1.38342e-08
-3.62662e-08
6.43575e-08
-1.45317e-08
-3.48663e-08
6.04263e-08
-1.51724e-08
-3.33512e-08
5.66338e-08
-1.57468e-08
-3.17553e-08
5.29986e-08
-1.62555e-08
-3.01062e-08
4.95235e-08
-1.66936e-08
-2.84255e-08
4.62133e-08
-1.70621e-08
-2.67323e-08
4.30648e-08
-1.73556e-08
-2.50203e-08
4.00656e-08
-1.75747e-08
-2.32725e-08
3.71929e-08
-1.77143e-08
-2.14463e-08
3.44168e-08
-1.77702e-08
-1.94723e-08
3.16892e-08
-1.77308e-08
-1.72255e-08
2.89332e-08
-1.75827e-08
-1.45257e-08
2.60533e-08
-1.73141e-08
-1.10688e-08
2.29071e-08
-1.69406e-08
-6.52021e-09
1.93387e-08
-1.6385e-08
1.23924e-08
-1.44566e-08
-6.46376e-09
4.41859e-08
6.89014e-09
-8.69485e-09
6.88075e-08
5.79965e-09
-8.81871e-09
7.98977e-08
4.8453e-09
-7.74108e-09
8.78933e-08
4.20199e-09
-5.99143e-09
9.34432e-08
3.67079e-09
-3.85259e-09
9.70665e-08
3.09561e-09
-1.51277e-09
9.91642e-08
2.45574e-09
9.02061e-10
1.00053e-07
1.74331e-09
3.29005e-09
9.99771e-08
9.75863e-10
5.58282e-09
9.91382e-08
1.48671e-10
7.72085e-09
9.7692e-08
-7.12392e-10
9.66163e-09
9.57754e-08
-1.60957e-09
1.13778e-08
9.34909e-08
-2.5285e-09
1.2849e-08
9.09322e-08
-3.4635e-09
1.40486e-08
8.81718e-08
-4.39384e-09
1.49553e-08
8.52772e-08
-5.31395e-09
1.55646e-08
8.23018e-08
-6.20597e-09
1.58658e-08
7.92956e-08
-7.06689e-09
1.58569e-08
7.62943e-08
-7.88255e-09
1.55353e-08
7.33304e-08
-8.65141e-09
1.48992e-08
7.04265e-08
-9.36276e-09
1.39494e-08
6.75997e-08
-1.00164e-08
1.26934e-08
6.48583e-08
-1.06047e-08
1.11427e-08
6.22032e-08
-1.11286e-08
9.3119e-09
5.9627e-08
-1.1583e-08
7.23376e-09
5.71122e-08
-1.19696e-08
4.95541e-09
5.46296e-08
-1.22851e-08
2.54666e-09
5.21327e-08
-1.2532e-08
1.13815e-10
4.95582e-08
-1.27073e-08
-2.20115e-09
4.68127e-08
-1.28102e-08
-4.19943e-09
4.3766e-08
-1.28338e-08
-5.59829e-09
4.02468e-08
-1.2795e-08
-5.92961e-09
3.60161e-08
-1.27777e-08
-4.55011e-09
3.07644e-08
-1.28069e-08
1.97403e-08
-1.18971e-08
-4.43737e-09
4.07814e-08
7.84255e-09
-4.92274e-09
6.23627e-08
6.92976e-09
-3.32288e-09
7.22497e-08
6.04797e-09
-4.93697e-10
7.95705e-08
5.49266e-09
3.01336e-09
8.48936e-08
5.04422e-09
6.8723e-09
8.86354e-08
4.57105e-09
1.08607e-08
9.11414e-08
4.034e-09
1.48083e-08
9.26604e-08
3.4446e-09
1.85848e-08
9.34011e-08
2.80052e-09
2.20917e-08
9.35174e-08
2.11459e-09
2.52552e-08
9.31414e-08
1.38602e-09
2.80303e-08
9.23696e-08
6.31285e-10
3.038e-08
9.12893e-08
-1.49099e-10
3.22705e-08
8.99688e-08
-9.26963e-10
3.36835e-08
8.84704e-08
-1.71078e-09
3.46042e-08
8.684e-08
-2.48431e-09
3.50292e-08
8.512e-08
-3.24369e-09
3.49589e-08
8.33414e-08
-3.97585e-09
3.44004e-08
8.1532e-08
-4.67837e-09
3.33608e-08
7.97109e-08
-5.34106e-09
3.18545e-08
7.78933e-08
-5.96256e-09
2.99076e-08
7.60857e-08
-6.5354e-09
2.75344e-08
7.42875e-08
-7.05964e-09
2.47796e-08
7.24899e-08
-7.53017e-09
2.16797e-08
7.0674e-08
-7.94806e-09
1.82933e-08
6.88094e-08
-8.31034e-09
1.46935e-08
6.68494e-08
-8.61917e-09
1.09683e-08
6.47293e-08
-8.87383e-09
7.24835e-09
6.23558e-08
-9.07739e-09
3.68542e-09
5.96042e-08
-9.22788e-09
4.76863e-10
5.62989e-08
-9.32488e-09
-2.09726e-09
5.22096e-08
-9.38993e-09
-3.56411e-09
4.70128e-08
-9.52742e-09
-3.3112e-09
4.03034e-08
-9.79395e-09
2.58323e-08
-9.40243e-09
-2.10719e-09
3.68198e-08
6.06879e-09
-1.55821e-09
5.65861e-08
5.22783e-09
4.62343e-10
6.57521e-08
4.47643e-09
3.33146e-09
7.26872e-08
4.01525e-09
6.65416e-09
7.79022e-08
3.66595e-09
1.02061e-08
8.17798e-08
3.30566e-09
1.38205e-08
8.46147e-08
2.91303e-09
1.73643e-08
8.6632e-08
2.4836e-09
2.07379e-08
8.80023e-08
2.02568e-09
2.38569e-08
8.88616e-08
1.53662e-09
2.66604e-08
8.93122e-08
1.02542e-09
2.90986e-08
8.94398e-08
4.92247e-10
3.11342e-08
8.9308e-08
-5.42726e-11
3.27311e-08
8.89729e-08
-6.0227e-10
3.38791e-08
8.84759e-08
-1.15137e-09
3.45599e-08
8.78538e-08
-1.69574e-09
3.47734e-08
8.71339e-08
-2.22691e-09
3.45184e-08
8.63394e-08
-2.74261e-09
3.38007e-08
8.54852e-08
-3.23476e-09
3.26292e-08
8.45826e-08
-3.7024e-09
3.10284e-08
8.36359e-08
-4.13919e-09
2.90144e-08
8.26436e-08
-4.5451e-09
2.66213e-08
8.15967e-08
-4.91547e-09
2.38844e-08
8.04774e-08
-5.25118e-09
2.08509e-08
7.92574e-08
-5.54919e-09
1.75775e-08
7.78941e-08
-5.81134e-09
1.4135e-08
7.63284e-08
-6.0361e-09
1.06133e-08
7.44774e-08
-6.22656e-09
7.1256e-09
7.22278e-08
-6.38261e-09
3.80942e-09
6.94258e-08
-6.50609e-09
8.41175e-10
6.5862e-08
-6.59473e-09
-1.5356e-09
6.12571e-08
-6.67041e-09
-2.93215e-09
5.52285e-08
-6.8199e-09
-2.80912e-09
4.72768e-08
-7.0952e-09
2.99094e-08
-6.88682e-09
-7.37167e-10
3.36541e-08
3.90474e-09
-1.95576e-10
5.28221e-08
3.21953e-09
1.14531e-09
6.17534e-08
2.65887e-09
2.93056e-09
6.85787e-08
2.32341e-09
4.95592e-09
7.38076e-08
2.06996e-09
7.1026e-09
7.78105e-08
1.82088e-09
9.29288e-09
8.08731e-08
1.5528e-09
1.14503e-08
8.32047e-08
1.26945e-09
1.35149e-08
8.49686e-08
9.68288e-10
1.54384e-08
8.62853e-08
6.54047e-10
1.71745e-08
8.72505e-08
3.24578e-10
1.86931e-08
8.79353e-08
-1.36972e-11
1.99581e-08
8.8397e-08
-3.54656e-10
2.09499e-08
8.86786e-08
-6.96867e-10
2.16484e-08
8.88155e-08
-1.03954e-09
2.20435e-08
8.88337e-08
-1.37495e-09
2.21278e-08
8.87531e-08
-1.70279e-09
2.18967e-08
8.85872e-08
-2.0168e-09
2.13533e-08
8.8345e-08
-2.31694e-09
2.05039e-08
8.80299e-08
-2.59829e-09
1.93618e-08
8.764e-08
-2.8615e-09
1.79411e-08
8.71668e-08
-3.10276e-09
1.62663e-08
8.65946e-08
-3.32347e-09
1.4366e-08
8.58989e-08
-3.52086e-09
1.2277e-08
8.50433e-08
-3.697e-09
1.00421e-08
8.39779e-08
-3.8501e-09
7.72145e-09
8.26323e-08
-3.9829e-09
5.3806e-09
8.09131e-08
-4.09475e-09
3.10574e-09
7.86911e-08
-4.18894e-09
1.00052e-09
7.57958e-08
-4.26395e-09
-8.10503e-10
7.19936e-08
-4.32113e-09
-2.15894e-09
6.69772e-08
-4.37267e-09
-2.77281e-09
6.0324e-08
-4.48106e-09
-2.30732e-09
5.14826e-08
-4.67204e-09
3.21142e-08
-4.51168e-09
-4.87986e-10
3.15016e-08
2.64074e-09
-4.6856e-10
5.0583e-08
2.21888e-09
-7.74427e-11
5.94749e-08
1.88792e-09
5.18636e-10
6.62927e-08
1.68918e-09
1.2413e-09
7.15483e-08
1.53696e-09
2.04723e-09
7.56211e-08
1.38287e-09
2.90919e-09
7.8792e-08
1.21993e-09
3.79366e-09
8.12732e-08
1.04579e-09
4.67724e-09
8.32219e-08
8.64793e-10
5.52798e-09
8.47587e-08
6.75105e-10
6.32463e-09
8.59725e-08
4.81218e-10
7.04602e-09
8.69324e-08
2.82009e-10
7.67085e-09
8.76893e-08
8.21268e-11
8.18216e-09
8.82827e-08
-1.15678e-10
8.56443e-09
8.87411e-08
-3.06263e-10
8.80524e-09
8.90862e-08
-4.93733e-10
8.89799e-09
8.93328e-08
-6.7279e-10
8.83785e-09
8.94912e-08
-8.43949e-10
8.61931e-09
8.95663e-08
-1.00269e-09
8.24292e-09
8.95568e-08
-1.15042e-09
7.7116e-09
8.94556e-08
-1.28411e-09
7.03445e-09
8.925e-08
-1.40582e-09
6.22338e-09
8.89196e-08
-1.51325e-09
5.29529e-09
8.84354e-08
-1.60901e-09
4.27287e-09
8.77566e-08
-1.69144e-09
3.18698e-09
8.68279e-08
-1.76367e-09
2.06965e-09
8.55742e-08
-1.82462e-09
9.66423e-10
8.38952e-08
-1.87797e-09
-7.4855e-11
8.16559e-08
-1.92313e-09
-9.92884e-10
7.86767e-08
-1.96315e-09
-1.71874e-09
7.47153e-08
-1.99637e-09
-2.15759e-09
6.94511e-08
-2.03433e-09
-2.16816e-09
6.2447e-08
-2.11276e-09
-1.56666e-09
5.3125e-08
-2.24466e-09
3.27165e-08
-2.16778e-09
-8.71928e-10
3.00622e-08
2.31123e-09
-1.50522e-09
4.90082e-08
2.20873e-09
-1.95304e-09
5.7827e-08
2.09466e-09
-2.27746e-09
6.45876e-08
2.02961e-09
-2.49929e-09
6.98034e-08
1.96715e-09
-2.62802e-09
7.38542e-08
1.89482e-09
-2.66702e-09
7.70225e-08
1.80893e-09
-2.6277e-09
7.95189e-08
1.71467e-09
-2.51939e-09
8.15018e-08
1.61196e-09
-2.35324e-09
8.30888e-08
1.50529e-09
-2.14489e-09
8.43693e-08
1.39412e-09
-1.90507e-09
8.54091e-08
1.28296e-09
-1.6449e-09
8.62588e-08
1.17126e-09
-1.37974e-09
8.69548e-08
1.06336e-09
-1.12306e-09
8.7525e-08
9.5836e-10
-8.84138e-10
8.79872e-08
8.61139e-10
-6.77281e-10
8.83549e-08
7.70361e-10
-5.09876e-10
8.86342e-08
6.89567e-10
-3.86245e-10
8.88278e-08
6.15564e-10
-3.12697e-10
8.89317e-08
5.5143e-10
-2.90796e-10
8.89376e-08
4.94799e-10
-3.17148e-10
8.883e-08
4.47842e-10
-3.92334e-10
8.85869e-08
4.07513e-10
-5.08244e-10
8.81768e-08
3.75344e-10
-6.57083e-10
8.75575e-08
3.47759e-10
-8.27088e-10
8.66718e-08
3.2577e-10
-1.00248e-09
8.54439e-08
3.05327e-10
-1.16603e-09
8.37722e-08
2.86878e-10
-1.29753e-09
8.15221e-08
2.65874e-10
-1.37753e-09
7.8514e-08
2.42631e-10
-1.38372e-09
7.4508e-08
2.12508e-10
-1.28759e-09
6.91855e-08
1.69921e-10
-1.04338e-09
6.21158e-08
8.69986e-11
-6.05895e-10
5.27261e-08
-3.77668e-11
3.22236e-08
-1.13533e-10
-1.3308e-09
2.89663e-08
2.42588e-09
-2.4411e-09
4.75186e-08
2.60091e-09
-3.41316e-09
5.61425e-08
2.65627e-09
-4.26592e-09
6.27473e-08
2.69131e-09
-4.99448e-09
6.78353e-08
2.6989e-09
-5.60522e-09
7.17811e-08
2.68246e-09
-6.09352e-09
7.48614e-08
2.64991e-09
-6.46362e-09
7.72856e-08
2.60358e-09
-6.72098e-09
7.92081e-08
2.54958e-09
-6.86687e-09
8.07467e-08
2.48853e-09
-6.91073e-09
8.19878e-08
2.42539e-09
-6.85979e-09
8.2998e-08
2.36009e-09
-6.72374e-09
8.38253e-08
2.29704e-09
-6.51187e-09
8.45071e-08
2.23564e-09
-6.23417e-09
8.50687e-08
2.17982e-09
-5.90574e-09
8.55298e-08
2.12838e-09
-5.53671e-09
8.5901e-08
2.08454e-09
-5.13815e-09
8.61892e-08
2.04673e-09
-4.72088e-09
8.6393e-08
2.01805e-09
-4.29547e-09
8.65094e-08
1.99584e-09
-3.86645e-09
8.65275e-08
1.98205e-09
-3.44349e-09
8.64327e-08
1.97348e-09
-3.02853e-09
8.62012e-08
1.97146e-09
-2.62802e-09
8.58025e-08
1.97223e-09
-2.23888e-09
8.51931e-08
1.97657e-09
-1.86659e-09
8.4318e-08
1.98022e-09
-1.50627e-09
8.31014e-08
1.98344e-09
-1.16244e-09
8.14461e-08
1.98133e-09
-8.33357e-10
7.92201e-08
1.97341e-09
-5.24682e-10
7.62518e-08
1.95403e-09
-2.49063e-10
7.23094e-08
1.92156e-09
-1.69906e-11
6.70878e-08
1.86539e-09
1.57459e-10
6.01745e-08
1.76805e-09
2.45922e-10
5.10215e-08
1.61757e-09
3.109e-08
1.37793e-09
-1.5283e-09
2.80949e-08
2.39951e-09
-2.82808e-09
4.60817e-08
2.73762e-09
-4.00636e-09
5.44352e-08
2.88449e-09
-5.05711e-09
6.08245e-08
2.9745e-09
-5.97589e-09
6.57367e-08
3.01693e-09
-6.75852e-09
6.95327e-08
3.03048e-09
-7.40218e-09
7.24841e-08
3.02217e-09
-7.91027e-09
7.47927e-08
2.99984e-09
-8.27826e-09
7.66118e-08
2.96601e-09
-8.51498e-09
7.80547e-08
2.92639e-09
-8.61627e-09
7.92086e-08
2.88204e-09
-8.59416e-09
8.01372e-08
2.83767e-09
-8.45297e-09
8.08903e-08
2.79349e-09
-8.20113e-09
8.15028e-08
2.75356e-09
-7.85102e-09
8.20023e-08
2.71743e-09
-7.41718e-09
8.24058e-08
2.68851e-09
-6.90807e-09
8.27267e-08
2.66565e-09
-6.34017e-09
8.29694e-08
2.65154e-09
-5.72638e-09
8.31361e-08
2.64421e-09
-5.08313e-09
8.32206e-08
2.6456e-09
-4.42322e-09
8.32145e-08
2.65292e-09
-3.7569e-09
8.31005e-08
2.66735e-09
-3.09851e-09
8.2857e-08
2.68537e-09
-2.45728e-09
8.24517e-08
2.7075e-09
-1.837e-09
8.18444e-08
2.72959e-09
-1.24884e-09
8.09791e-08
2.75159e-09
-7.014e-10
7.9785e-08
2.76874e-09
-2.025e-10
7.81662e-08
2.78028e-09
2.39342e-10
7.59995e-08
2.78057e-09
6.04239e-10
7.31188e-08
2.76769e-09
8.71818e-10
6.93068e-08
2.73431e-09
1.01206e-09
6.42717e-08
2.67388e-09
9.95848e-10
5.76277e-08
2.5661e-09
7.62755e-10
4.88551e-08
2.39842e-09
2.97985e-08
2.05458e-09
-1.33622e-09
2.74965e-08
1.93346e-09
-2.53634e-09
4.49965e-08
2.28613e-09
-3.66513e-09
5.3115e-08
2.44838e-09
-4.69576e-09
5.93143e-08
2.54125e-09
-5.61044e-09
6.40658e-08
2.58581e-09
-6.39954e-09
6.77218e-08
2.59943e-09
-7.05596e-09
7.05459e-08
2.59313e-09
-7.57003e-09
7.27375e-08
2.57089e-09
-7.94157e-09
7.44452e-08
2.53895e-09
-8.17066e-09
7.5783e-08
2.49944e-09
-8.25457e-09
7.68354e-08
2.45742e-09
-8.19976e-09
7.76686e-08
2.41401e-09
-8.01295e-09
7.83301e-08
2.3735e-09
-7.70418e-09
7.88581e-08
2.33631e-09
-7.28647e-09
7.92782e-08
2.30605e-09
-6.77336e-09
7.9611e-08
2.28239e-09
-6.18338e-09
7.98674e-08
2.26818e-09
-5.52923e-09
8.00553e-08
2.26224e-09
-4.83667e-09
8.01744e-08
2.26653e-09
-4.11489e-09
8.02217e-08
2.27895e-09
-3.38606e-09
8.01859e-08
2.30057e-09
-2.66861e-09
8.00526e-08
2.3284e-09
-1.97022e-09
7.97977e-08
2.3627e-09
-1.3117e-09
7.93918e-08
2.39971e-09
-6.96247e-10
7.87925e-08
2.43906e-09
-1.42184e-10
7.79477e-08
2.47635e-09
3.45775e-10
7.67859e-08
2.5106e-09
7.57272e-10
7.5217e-08
2.5368e-09
1.08557e-09
7.31195e-08
2.55315e-09
1.31468e-09
7.03366e-08
2.55364e-09
1.42666e-09
6.66585e-08
2.5349e-09
1.40391e-09
6.18087e-08
2.48711e-09
1.21516e-09
5.54184e-08
2.39636e-09
8.31879e-10
4.69956e-08
2.24432e-09
2.8721e-08
1.90874e-09
-8.59301e-10
2.73281e-08
1.02699e-09
-1.77361e-09
4.46406e-08
1.2716e-09
-2.70828e-09
5.26626e-08
1.38617e-09
-3.61228e-09
5.87729e-08
1.4443e-09
-4.44589e-09
6.34393e-08
1.46219e-09
-5.19037e-09
6.70086e-08
1.45619e-09
-5.82156e-09
6.97454e-08
1.43213e-09
-6.32625e-09
7.18462e-08
1.39597e-09
-6.69362e-09
7.34622e-08
1.35014e-09
-6.91641e-09
7.47061e-08
1.2996e-09
-6.99284e-09
7.56661e-08
1.24622e-09
-6.92758e-09
7.64073e-08
1.19436e-09
-6.72401e-09
7.69814e-08
1.14534e-09
-6.39382e-09
7.74256e-08
1.10293e-09
-5.95158e-09
7.77695e-08
1.06781e-09
-5.41773e-09
7.80324e-08
1.04303e-09
-4.80762e-09
7.82289e-08
1.02836e-09
-4.14124e-09
7.83651e-08
1.02593e-09
-3.44819e-09
7.84437e-08
1.03448e-09
-2.73911e-09
7.84595e-08
1.05515e-09
-2.04395e-09
7.84039e-08
1.08562e-09
-1.3768e-09
7.82595e-08
1.12605e-09
-7.56296e-10
7.80045e-08
1.17323e-09
-1.97748e-10
7.76065e-08
1.22648e-09
2.87489e-10
7.70254e-08
1.28189e-09
6.91636e-10
7.62062e-08
1.33819e-09
1.00454e-09
7.50801e-08
1.39101e-09
1.22913e-09
7.35553e-08
1.43862e-09
1.35708e-09
7.15145e-08
1.47618e-09
1.39237e-09
6.88009e-08
1.50153e-09
1.33004e-09
6.52114e-08
1.50911e-09
1.16923e-09
6.04737e-08
1.49452e-09
9.12401e-10
5.42306e-08
1.44519e-09
5.55898e-10
4.60011e-08
1.3496e-09
2.81526e-08
1.12584e-09
-2.97239e-10
2.76977e-08
-7.15445e-11
-8.79451e-10
4.52244e-08
-3.40388e-12
-1.58033e-09
5.3332e-08
3.29485e-11
-2.33094e-09
5.94888e-08
3.40742e-11
-3.07063e-09
6.41684e-08
1.04665e-11
-3.758e-09
6.77261e-08
-2.91252e-11
-4.36313e-09
7.04293e-08
-7.97702e-11
-4.85873e-09
7.24814e-08
-1.39951e-10
-5.22643e-09
7.40356e-08
-2.05843e-10
-5.45409e-09
7.52106e-08
-2.75454e-10
-5.53984e-09
7.60956e-08
-3.44734e-10
-5.48165e-09
7.67611e-08
-4.11772e-10
-5.28616e-09
7.72594e-08
-4.72721e-10
-4.96686e-09
7.76323e-08
-5.26096e-10
-4.53812e-09
7.79094e-08
-5.68651e-10
-4.02115e-09
7.81139e-08
-5.99664e-10
-3.43246e-09
7.82596e-08
-6.16714e-10
-2.80418e-09
7.83557e-08
-6.20088e-10
-2.15542e-09
7.84034e-08
-6.08465e-10
-1.51223e-09
7.83997e-08
-5.8327e-10
-8.97809e-10
7.83336e-08
-5.44334e-10
-3.32403e-10
7.81894e-08
-4.94164e-10
1.62118e-10
7.7942e-08
-4.33613e-10
5.77655e-10
7.75601e-08
-3.66051e-10
8.94558e-10
7.69995e-08
-2.93058e-10
1.1126e-09
7.62062e-08
-2.18522e-10
1.23022e-09
7.51071e-08
-1.44379e-10
1.24982e-09
7.36106e-08
-7.46222e-11
1.18001e-09
7.15951e-08
-1.10785e-11
1.03461e-09
6.89042e-08
4.26186e-11
8.30983e-10
6.53305e-08
8.49954e-11
5.89753e-10
6.0602e-08
1.12294e-10
3.42556e-10
5.4357e-08
1.20335e-10
1.27119e-10
4.61149e-08
1.0248e-10
2.82256e-08
5.358e-11
1.8446e-10
2.85972e-08
-1.08466e-09
-9.75233e-11
4.66957e-08
-1.18946e-09
-5.87975e-10
5.5054e-08
-1.23189e-09
-1.19323e-09
6.13802e-08
-1.28486e-09
-1.8439e-09
6.61663e-08
-1.34782e-09
-2.48179e-09
6.97813e-08
-1.41757e-09
-3.06216e-09
7.2505e-08
-1.49419e-09
-3.55398e-09
7.45483e-08
-1.57596e-09
-3.93026e-09
7.60736e-08
-1.66188e-09
-4.17479e-09
7.72039e-08
-1.74878e-09
-4.27929e-09
7.80354e-08
-1.83462e-09
-4.24341e-09
7.86413e-08
-1.91569e-09
-4.07508e-09
7.90794e-08
-1.98987e-09
-3.78072e-09
7.93932e-08
-2.05369e-09
-3.38339e-09
7.96164e-08
-2.10551e-09
-2.89849e-09
7.97728e-08
-2.14259e-09
-2.35381e-09
7.98793e-08
-2.16422e-09
-1.7741e-09
7.99446e-08
-2.16879e-09
-1.18635e-09
7.99722e-08
-2.15677e-09
-6.14797e-10
7.99572e-08
-2.12777e-09
-8.84078e-11
7.98901e-08
-2.0835e-09
3.73216e-10
7.97522e-08
-2.02475e-09
7.51213e-10
7.95189e-08
-1.9543e-09
1.02891e-09
7.91548e-08
-1.87387e-09
1.20138e-09
7.86156e-08
-1.78692e-09
1.2615e-09
7.78417e-08
-1.69565e-09
1.21321e-09
7.67588e-08
-1.60371e-09
1.06846e-09
7.52689e-08
-1.51314e-09
8.43664e-10
7.32473e-08
-1.42709e-09
5.65219e-10
7.05298e-08
-1.34648e-09
2.6572e-10
6.69032e-08
-1.27291e-09
-1.29808e-11
6.2085e-08
-1.20549e-09
-2.1435e-10
5.57033e-08
-1.14436e-09
-2.74691e-10
4.72616e-08
-1.08682e-09
2.89193e-08
-9.67787e-10
4.72541e-10
2.98932e-08
-1.76807e-09
3.82442e-10
4.87852e-08
-1.99998e-09
4.01936e-11
5.74978e-08
-2.10059e-09
-4.60212e-10
6.40742e-08
-2.19488e-09
-1.03529e-09
6.90286e-08
-2.28757e-09
-1.62183e-09
7.27508e-08
-2.3815e-09
-2.17433e-09
7.5533e-08
-2.47786e-09
-2.64539e-09
7.75996e-08
-2.57735e-09
-3.01545e-09
7.91204e-08
-2.6785e-09
-3.25909e-09
8.02278e-08
-2.77967e-09
-3.36888e-09
8.10228e-08
-2.87778e-09
-3.34313e-09
8.15853e-08
-2.97043e-09
-3.1845e-09
8.19762e-08
-3.05419e-09
-2.90927e-09
8.22438e-08
-3.12676e-09
-2.53115e-09
8.24237e-08
-3.18517e-09
-2.07343e-09
8.25429e-08
-3.22785e-09
-1.56137e-09
8.2619e-08
-3.25275e-09
-1.01991e-09
8.26632e-08
-3.25944e-09
-4.77152e-10
8.26778e-08
-3.24712e-09
3.51455e-11
8.26596e-08
-3.21664e-09
4.98055e-10
8.25967e-08
-3.1685e-09
8.84387e-10
8.24708e-08
-3.10478e-09
1.17525e-09
8.22538e-08
-3.02711e-09
1.36027e-09
8.19094e-08
-2.9385e-09
1.42838e-09
8.13886e-08
-2.8413e-09
1.37889e-09
8.06295e-08
-2.73894e-09
1.22077e-09
7.95514e-08
-2.63385e-09
9.66232e-10
7.80524e-08
-2.52909e-09
6.40743e-10
7.59991e-08
-2.42623e-09
2.7731e-10
7.32207e-08
-2.3267e-09
-8.30748e-11
6.94915e-08
-2.22977e-09
-3.81802e-10
6.45177e-08
-2.13368e-09
-5.52368e-10
5.7908e-08
-2.03348e-09
-5.14387e-10
4.91457e-08
-1.92198e-09
3.00844e-08
-1.67981e-09
5.29246e-10
3.14018e-08
-2.04053e-09
5.03155e-10
5.11386e-08
-2.32459e-09
2.20213e-10
6.02319e-08
-2.45071e-09
-2.2484e-10
6.70802e-08
-2.56291e-09
-7.46745e-10
7.22226e-08
-2.66925e-09
-1.29175e-09
7.60677e-08
-2.77403e-09
-1.80257e-09
7.89238e-08
-2.88014e-09
-2.24071e-09
8.10264e-08
-2.98796e-09
-2.57859e-09
8.25558e-08
-3.09704e-09
-2.79703e-09
8.36512e-08
-3.20513e-09
-2.88553e-09
8.44212e-08
-3.30998e-09
-2.84309e-09
8.49501e-08
-3.40839e-09
-2.67265e-09
8.53042e-08
-3.49769e-09
-2.38662e-09
8.55343e-08
-3.57474e-09
-2.0073e-09
8.56799e-08
-3.63729e-09
-1.55085e-09
8.57695e-08
-3.68293e-09
-1.0436e-09
8.58233e-08
-3.71036e-09
-5.15294e-10
8.58524e-08
-3.71832e-09
8.36509e-12
8.58607e-08
-3.70678e-09
5.00298e-10
8.58437e-08
-3.67578e-09
9.33907e-10
8.57899e-08
-3.62665e-09
1.28574e-09
8.56785e-08
-3.56068e-09
1.54119e-09
8.54805e-08
-3.48032e-09
1.68195e-09
8.5156e-08
-3.38784e-09
1.70236e-09
8.46535e-08
-3.2864e-09
1.60527e-09
8.39062e-08
-3.17869e-09
1.39495e-09
8.28293e-08
-3.06789e-09
1.08974e-09
8.13138e-08
-2.95627e-09
7.15883e-10
7.92199e-08
-2.84602e-09
3.07559e-10
7.63665e-08
-2.7376e-09
-8.85473e-11
7.25175e-08
-2.63059e-09
-4.12913e-10
6.7364e-08
-2.52172e-09
-5.96128e-10
6.04962e-08
-2.40527e-09
-5.51524e-10
5.1374e-08
-2.27152e-09
3.15116e-08
-1.97993e-09
4.24755e-10
3.29068e-08
-1.92907e-09
3.51679e-10
5.34029e-08
-2.19299e-09
5.78601e-11
6.2839e-08
-2.31213e-09
-3.75278e-10
6.99334e-08
-2.42053e-09
-8.73594e-10
7.52458e-08
-2.52438e-09
-1.38113e-09
7.92033e-08
-2.62798e-09
-1.84956e-09
8.21265e-08
-2.73341e-09
-2.24654e-09
8.42625e-08
-2.84125e-09
-2.53821e-09
8.57997e-08
-2.95043e-09
-2.71353e-09
8.68852e-08
-3.05906e-09
-2.75984e-09
8.76328e-08
-3.16436e-09
-2.6796e-09
8.81322e-08
-3.26354e-09
-2.47436e-09
8.84534e-08
-3.35344e-09
-2.16081e-09
8.8651e-08
-3.43137e-09
-1.75337e-09
8.87669e-08
-3.4946e-09
-1.27378e-09
8.88321e-08
-3.54116e-09
-7.48697e-10
8.88677e-08
-3.56932e-09
-2.04929e-10
8.88864e-08
-3.57822e-09
3.32176e-10
8.8892e-08
-3.5674e-09
8.31572e-10
8.88803e-08
-3.53734e-09
1.27192e-09
8.88383e-08
-3.48888e-09
1.63055e-09
8.87447e-08
-3.42378e-09
1.88519e-09
8.85679e-08
-3.34403e-09
2.03062e-09
8.8266e-08
-3.25234e-09
2.04999e-09
8.77837e-08
-3.15144e-09
1.95039e-09
8.70511e-08
-3.04446e-09
1.73641e-09
8.59778e-08
-2.93421e-09
1.42428e-09
8.44498e-08
-2.82343e-09
1.03831e-09
8.23198e-08
-2.71401e-09
6.11413e-10
7.9399e-08
-2.60701e-09
1.92533e-10
7.544e-08
-2.50183e-09
-1.70029e-10
7.01215e-08
-2.39613e-09
-4.04319e-10
6.30163e-08
-2.28467e-09
-4.36637e-10
5.35638e-08
-2.16012e-09
3.29678e-08
-1.89046e-09
2.07257e-10
3.42414e-08
-1.54177e-09
2.4575e-11
5.53156e-08
-1.73078e-09
-3.28297e-10
6.50128e-08
-1.81888e-09
-7.85258e-10
7.22936e-08
-1.90678e-09
-1.27292e-09
7.77335e-08
-1.99631e-09
-1.75564e-09
8.1772e-08
-2.08913e-09
-2.1815e-09
8.47409e-08
-2.18623e-09
-2.52942e-09
8.6895e-08
-2.28724e-09
-2.76865e-09
8.84304e-08
-2.39079e-09
-2.88767e-09
8.94994e-08
-2.49452e-09
-2.88142e-09
9.02212e-08
-2.59571e-09
-2.7462e-09
9.06894e-08
-2.69127e-09
-2.49205e-09
9.09777e-08
-2.77826e-09
-2.13236e-09
9.11435e-08
-2.85377e-09
-1.67979e-09
9.12313e-08
-2.91532e-09
-1.16119e-09
9.12738e-08
-2.96073e-09
-5.99537e-10
9.12937e-08
-2.98851e-09
-1.97525e-11
9.13043e-08
-2.99761e-09
5.50129e-10
9.13099e-08
-2.98776e-09
1.08391e-09
9.13059e-08
-2.95923e-09
1.55641e-09
9.12789e-08
-2.91307e-09
1.94508e-09
9.1206e-08
-2.85076e-09
2.23406e-09
9.10541e-08
-2.77449e-09
2.40688e-09
9.07787e-08
-2.68673e-09
2.45966e-09
9.03221e-08
-2.59037e-09
2.38785e-09
8.96105e-08
-2.48839e-09
2.20022e-09
8.85499e-08
-2.38383e-09
1.90787e-09
8.70211e-08
-2.2794e-09
1.53404e-09
8.48715e-08
-2.17746e-09
1.10652e-09
8.1905e-08
-2.07936e-09
6.65439e-10
7.78663e-08
-1.98544e-09
2.58317e-10
7.24237e-08
-1.89454e-09
-5.84336e-11
6.51373e-08
-1.80432e-09
-2.12347e-10
5.54314e-08
-1.71217e-09
3.42723e-08
-1.51847e-09
-4.42352e-11
3.52992e-08
-1.01411e-09
-3.61812e-10
5.67333e-08
-1.09936e-09
-7.97731e-10
6.65922e-08
-1.14336e-09
-1.28813e-09
7.39856e-08
-1.20186e-09
-1.78256e-09
7.94982e-08
-1.27032e-09
-2.24134e-09
8.35779e-08
-1.34702e-09
-2.63252e-09
8.65628e-08
-1.43112e-09
-2.92913e-09
8.87139e-08
-1.52129e-09
-3.11567e-09
9.02318e-08
-1.6155e-09
-3.17871e-09
9.12735e-08
-1.71106e-09
-3.1139e-09
9.19618e-08
-1.80502e-09
-2.92344e-09
9.23936e-08
-1.8943e-09
-2.6155e-09
9.26456e-08
-1.97589e-09
-2.20414e-09
9.27778e-08
-2.04696e-09
-1.70316e-09
9.28366e-08
-2.10504e-09
-1.13762e-09
9.28565e-08
-2.14806e-09
-5.31869e-10
9.28613e-08
-2.1745e-09
9.30702e-11
9.2865e-08
-2.1834e-09
7.0471e-10
9.28723e-08
-2.17446e-09
1.27943e-09
9.28783e-08
-2.14797e-09
1.79654e-09
9.2869e-08
-2.10488e-09
2.22686e-09
9.28203e-08
-2.04672e-09
2.56035e-09
9.26976e-08
-1.97552e-09
2.77867e-09
9.24545e-08
-1.89378e-09
2.87455e-09
9.20306e-08
-1.8043e-09
2.84502e-09
9.13494e-08
-1.71008e-09
2.69567e-09
9.03137e-08
-1.6142e-09
2.43636e-09
8.88006e-08
-1.51959e-09
2.0828e-09
8.66532e-08
-1.42892e-09
1.66275e-09
8.36705e-08
-1.34419e-09
1.20369e-09
7.95917e-08
-1.26673e-09
7.45244e-10
7.40785e-08
-1.19722e-09
3.37225e-10
6.6683e-08
-1.13689e-09
3.85132e-11
5.68202e-08
-1.08968e-09
3.53112e-08
-1.00047e-09
-2.71899e-10
3.60462e-08
-4.7493e-10
-7.1823e-10
5.76322e-08
-4.53116e-10
-1.2318e-09
6.75574e-08
-4.51168e-10
-1.76001e-09
7.4992e-08
-4.78703e-10
-2.26173e-09
8.0524e-08
-5.24654e-10
-2.70331e-09
8.46049e-08
-5.83779e-10
-3.06453e-09
8.7576e-08
-6.53417e-10
-3.32006e-09
8.97017e-08
-7.31253e-10
-3.45983e-09
9.11854e-08
-8.14624e-10
-3.47269e-09
9.21872e-08
-9.0055e-10
-3.35765e-09
9.28324e-08
-9.8588e-10
-3.11614e-09
9.3221e-08
-1.06754e-09
-2.7609e-09
9.34315e-08
-1.14251e-09
-2.30073e-09
9.35266e-08
-1.20807e-09
-1.75604e-09
9.35539e-08
-1.26177e-09
-1.14806e-09
9.35499e-08
-1.30168e-09
-4.98644e-10
9.3539e-08
-1.32628e-09
1.63638e-10
9.35363e-08
-1.3347e-09
8.1723e-10
9.35464e-08
-1.3266e-09
1.43302e-09
9.35646e-08
-1.30231e-09
1.98922e-09
9.35758e-08
-1.26268e-09
2.46289e-09
9.35552e-08
-1.20924e-09
2.83803e-09
9.34668e-08
-1.1439e-09
3.09995e-09
9.32622e-08
-1.06911e-09
3.23877e-09
9.28792e-08
-9.8756e-10
3.25098e-09
9.22389e-08
-9.02272e-10
3.13952e-09
9.12416e-08
-8.16311e-10
2.91158e-09
8.97615e-08
-7.32808e-10
2.58088e-09
8.76388e-08
-6.54721e-10
2.16633e-09
8.46699e-08
-5.84704e-10
1.69351e-09
8.05905e-08
-5.25034e-10
1.19109e-09
7.50592e-08
-4.78271e-10
6.96694e-10
6.76248e-08
-4.49247e-10
2.6893e-10
5.76992e-08
-4.48576e-10
3.60454e-08
-4.67131e-10
-4.37752e-10
3.65003e-08
-1.56214e-11
-9.76373e-10
5.80758e-08
9.43599e-11
-1.54658e-09
6.79922e-08
1.35326e-10
-2.09956e-09
7.54108e-08
1.3474e-10
-2.60427e-09
8.0919e-08
1.08822e-10
-3.03376e-09
8.49679e-08
6.59508e-11
-3.3675e-09
8.79002e-08
1.03989e-11
-3.59155e-09
8.99812e-08
-5.57016e-11
-3.69352e-09
9.14163e-08
-1.2849e-10
-3.67032e-09
9.2367e-08
-2.04706e-10
-3.51601e-09
9.2961e-08
-2.81249e-10
-3.24067e-09
9.32997e-08
-3.5501e-10
-2.85054e-09
9.34644e-08
-4.23115e-10
-2.36109e-09
9.35186e-08
-4.82843e-10
-1.78534e-09
9.35124e-08
-5.31948e-10
-1.15237e-09
9.34828e-08
-5.6848e-10
-4.76214e-10
9.3456e-08
-5.91088e-10
2.10515e-10
9.34468e-08
-5.98858e-10
8.88994e-10
9.34608e-08
-5.91546e-10
1.52995e-09
9.34925e-08
-5.69385e-10
2.11144e-09
9.35268e-08
-5.33287e-10
2.61505e-09
9.35375e-08
-4.84579e-10
3.01883e-09
9.34875e-08
-4.25209e-10
3.3104e-09
9.3327e-08