/*--------------------------------*- C++ -*----------------------------------*\
| =========                 |                                                 |
| \\      /  F ield         | OpenFOAM: The Open Source CFD Toolbox           |
|  \\    /   O peration     | Version:  v1912                                 |
|   \\  /    A nd           | Website:  www.openfoam.com                      |
|    \\/     M anipulation  |                                                 |
\*---------------------------------------------------------------------------*/
FoamFile
{
    version     2.0;
    format      ascii;
    class       volScalarField;
    location    "92/oil";
    object      heatTransferCoeff(T);
}
// * * * * * * * * * * * * * * * * * * * * * * * * * * * * * * * * * * * * * //

dimensions      [1 0 -3 -1 0 0 0];


internalField   uniform 0;

boundaryField
{
    maxY
    {
        type            calculated;
        value           uniform 0;
    }
    minX
    {
        type            calculated;
        value           uniform 0;
    }
    maxX
    {
        type            calculated;
        value           uniform 0;
    }
    minY
    {
        type            calculated;
        value           uniform 0;
    }
    minZ
    {
        type            calculated;
        value           uniform 0;
    }
    maxZ
    {
        type            calculated;
        value           uniform 0;
    }
    oil_to_sphere
    {
        type            calculated;
        value           nonuniform List<scalar> 
1536
(
-276.854
-289.426
-270.835
-267.261
-232.94
-239.254
-236.103
-184.265
-177.354
-300.961
-231.226
-303.806
-308.044
-303.34
-265.516
-230.864
-186.389
-178.575
-59.9196
-307.587
-300.622
-241.279
-237.681
-232.4
-244.045
-243.897
-243.852
-233.16
-290.621
-287.37
-270.298
-219.757
-202.999
-244.979
-231.483
-230.191
-221.515
-253.831
-241.048
-253.308
-241.069
-230.199
-284.561
-304.256
-288.781
-302.08
-238.864
-239.018
-262.152
-243.304
-240.58
-240.572
-236.194
-239.124
-210.168
-199.429
-238.504
-237.727
-179.422
-130.085
-141.124
-128.377
-138.697
-307.245
-308.873
-303.19
-290.202
-302.511
-277.173
-287.775
-245.504
-239.35
-270.096
-241.795
-231.606
-202.469
-196.885
-192.243
-231.185
-178.8
-128.072
-138.965
-115.366
-114.112
-146.612
-140.759
-117.481
-185.365
-178.045
-129.582
-139.77
-59.7427
-59.9482
-308.525
-309.153
-304.356
-293.251
-297.783
-303.093
-275.668
-291.116
-244.665
-275.405
-270.316
-240.866
-241.768
-232.983
-193.191
-229.205
-203.619
-196.306
-202.268
-129.775
-141.6
-116.443
-118.242
-116.052
-145.729
-140.761
-147.886
-178.827
-140.022
-60.1061
-303.068
-276.01
-287.964
-277.456
-286.583
-240.343
-241.256
-242.715
-240.16
-240.417
-238.83
-242.13
-243.616
-238.732
-199.705
-236.064
-235.222
-130.207
-140.703
-185.662
-179.173
-138.957
-176.929
-262.344
-262.023
-235.843
-245.478
-269.3
-262.094
-238.397
-241.916
-241.104
-221.97
-209.855
-213.085
-262.913
-258.88
-263.487
-285.219
-251.218
-242.725
-230.594
-222.017
-239.663
-226.101
-210.702
-213.86
-283.801
-255.602
-289.124
-251.724
-218.274
-196.697
-262.966
-266.598
-278.331
-260.003
-250.976
-242.223
-222.169
-241.64
-218.955
-212.848
-215.529
-295.484
-259.52
-269.71
-282.551
-264.065
-279.145
-268.892
-217.656
-222.675
-223.697
-225.337
-216.406
-221.09
-225.183
-231.88
-178.36
-174.083
-170.149
-181.467
-186.765
-184.804
-192.305
-191.893
-175.054
-166.742
-161.895
-295.512
-313.822
-308.584
-297.891
-296.792
-298.856
-297.223
-294.17
-304.402
-289.153
-295.479
-296.541
-263.961
-264.401
-289.107
-275.106
-248.081
-223.467
-220.526
-239.121
-219.212
-175.673
-179.93
-171.644
-182.25
-185.917
-172.396
-165.878
-107.793
-98.4449
-304.688
-297.691
-301.86
-296.068
-302.709
-315.161
-303.836
-295.593
-259.847
-243.592
-259.652
-262.612
-219.927
-231.918
-176.383
-167.706
-188.056
-198.348
-192.123
-163.26
-97.6349
-106.359
-79.5234
-79.6633
-106.874
-300.068
-294.524
-293.039
-289.116
-295.419
-297.976
-292.564
-301.32
-318.224
-306.849
-294.894
-279.419
-262.811
-264.205
-273.105
-291.372
-276.099
-263.397
-262.896
-222.298
-223.856
-231.247
-233.174
-225.224
-231.298
-171.424
-167.189
-173.892
-183.435
-179.867
-186.017
-186.653
-186.067
-170.669
-164.735
-182.065
-174.414
-245.458
-235.978
-238.929
-221.801
-217.535
-213.134
-207.997
-284.478
-274.745
-288.771
-281.64
-274.117
-284.637
-286.276
-291.303
-299.676
-286.649
-288.683
-284.801
-312.456
-300.193
-295.846
-288.728
-299.292
-306.034
-296.595
-279.33
-281.692
-288.603
-273.556
-287.216
-291.46
-298.557
-297.456
-303.773
-300.882
-298.343
-291.937
-291.711
-289.785
-293.245
-284.364
-285.638
-275.567
-283.544
-271.717
-275.56
-290.814
-261.797
-284.815
-264.87
-267.852
-259.385
-247.811
-283.045
-262.801
-262.785
-272.334
-248.527
-255.96
-263.578
-245.597
-252.775
-240.491
-265.672
-283.814
-263.747
-265.874
-268.444
-250.877
-257.27
-255.471
-222.734
-227.7
-221.569
-210.968
-205.413
-211.738
-200.309
-195.121
-223.95
-227.78
-223.15
-213.144
-207.113
-216.291
-199.588
-195.266
-190.777
-222.229
-194.823
-212.282
-207.711
-213.354
-199.024
-223.501
-229.463
-223.156
-228.791
-197.109
-191.49
-212.941
-207.799
-214.944
-197.736
-193.62
-183.314
-178.966
-182.77
-178.61
-170.894
-171.196
-165.378
-177.048
-167.93
-188.202
-163.726
-166.528
-161.32
-154.881
-163.546
-160.312
-150.341
-146.748
-136.731
-180.618
-175.763
-170.8
-181.877
-166.911
-171.231
-150.438
-145.515
-143.419
-136.828
-161.629
-155.951
-163.981
-160.547
-158.829
-182.895
-178.489
-185.073
-185.12
-171.357
-164.803
-179.461
-173.515
-337.603
-324.881
-313.414
-334.333
-312.946
-316.328
-324.666
-305.203
-308.673
-313.599
-312.248
-295.066
-305.673
-291.953
-290.383
-288.591
-287.252
-293.447
-291.7
-298.891
-304.991
-281.395
-299.899
-284.913
-292.881
-285.643
-301.244
-289.174
-300.485
-294.557
-302.458
-295.649
-282.359
-290.484
-275.808
-296.032
-259.877
-270.305
-264.733
-241.237
-252.015
-252.009
-265.849
-240.754
-261.71
-240.216
-251.943
-242.315
-233.277
-239.277
-223.051
-219.856
-208.226
-213.787
-210.826
-205.847
-197.079
-220.065
-195.401
-230.567
-221.34
-209.965
-167.115
-160.743
-155.956
-165.159
-161.342
-175.59
-167.053
-188.126
-162.713
-149.649
-148.203
-137.981
-123.274
-113.126
-124.224
-113.55
-132.519
-141.339
-132.135
-121.471
-123.757
-174.198
-179.426
-170.193
-181.273
-164.379
-156.647
-165.211
-159.391
-174.222
-166.06
-183.635
-190.848
-162.809
-149.831
-159.204
-146.693
-136.847
-155.247
-106.588
-98.1879
-109.257
-98.5859
-80.4584
-79.9834
-80.1382
-79.7783
-96.178
-329.758
-309.748
-316.764
-314.002
-310.311
-330.441
-317.919
-313.267
-308.022
-296.49
-312.025
-314.814
-321.27
-297.837
-299.598
-305.372
-305.974
-281.457
-295.882
-281.845
-301.13
-292.111
-291.25
-287.809
-294.999
-287.025
-294.187
-302.358
-289.382
-280.18
-276.381
-294.049
-300.657
-281.611
-298.621
-283.854
-274.679
-303.12
-291.479
-290.256
-293.87
-285.812
-284.976
-292.079
-300.974
-286.737
-276.476
-264.703
-263.958
-252.919
-242.803
-253.791
-282.634
-267.576
-266.115
-256.78
-254.961
-247.64
-251.723
-252.123
-241.548
-240.788
-222.241
-238.216
-217.731
-228.665
-213.446
-208.516
-242.686
-231.969
-199.013
-220.717
-194.796
-217.65
-205.001
-196.135
-211.091
-215.541
-216.166
-210.831
-210.191
-240.533
-220.782
-149.776
-149.119
-146.259
-138.688
-180.027
-174.386
-170.839
-181.985
-167.477
-171.813
-157.196
-166.743
-164.923
-160.447
-158.019
-133.782
-133.526
-142.283
-122.75
-123.5
-112.953
-124.213
-124.417
-112.768
-140.394
-131.381
-132.059
-141.727
-121.833
-174.524
-166.473
-186.075
-191.22
-163.027
-150.281
-159.546
-145.605
-145.568
-155.792
-172.21
-165.229
-178.715
-175.425
-170.56
-181.77
-185.285
-156.095
-161.699
-164.729
-159.813
-158.447
-80.376
-80.2789
-108.328
-107.273
-98.5601
-96.1232
-117.635
-107.298
-96.9298
-274.182
-287.868
-287.389
-272.661
-285.889
-274.264
-273.34
-300.835
-295.011
-305.66
-295.497
-282.218
-291.209
-286.497
-298.499
-289.39
-293.671
-282.125
-282.839
-300.762
-291.786
-287.529
-289.463
-285.621
-285.394
-290.732
-276.713
-275.391
-283.161
-289.603
-282.419
-293.159
-286.169
-306.518
-284.536
-277.503
-281.468
-283.782
-275.651
-273.014
-291.364
-263.341
-252.635
-252.947
-259.639
-242.688
-281.306
-262.544
-261.75
-269.598
-256.904
-257.127
-251.039
-275.468
-260.655
-263.644
-269.779
-248.895
-251.012
-261.183
-259.105
-242.803
-268.109
-282.237
-266.616
-269.09
-258.071
-257.432
-252.522
-252.065
-241.802
-212.37
-207.45
-214.233
-199.777
-197.39
-192.582
-226.233
-219.266
-227.598
-224.01
-207.46
-213.151
-212.696
-196.649
-193.006
-194.25
-223.696
-223.249
-229.33
-222.437
-229.734
-195.551
-198.848
-211.924
-206.251
-212.526
-195.87
-192.995
-231.21
-221.877
-221.886
-226.162
-231.284
-197.712
-193.39
-207.583
-213.437
-213.788
-178.766
-183.914
-171.254
-170.202
-164.455
-183.179
-178.956
-183.905
-161.929
-155.899
-164.414
-159.409
-152.131
-162.175
-147.738
-137.486
-156.925
-175.298
-178.493
-169.89
-182.693
-192.937
-204.893
-180.009
-170.29
-164.609
-168.128
-177.225
-150.175
-158.633
-146.362
-145.01
-154.542
-162.667
-156.644
-163.139
-162.059
-158.677
-184.692
-194.407
-175.655
-166.893
-162.375
-181.535
-185.954
-175.005
-179.788
-171.297
-270.888
-264.847
-196.719
-188.153
-302.712
-293.98
-300.105
-301.853
-299.84
-261.265
-280.21
-271.07
-276.634
-229.681
-241.243
-189.059
-114.008
-110.962
-271.073
-269.888
-184.837
-114.323
-108.987
-129.95
-302.087
-263.41
-237.998
-128.394
-276.779
-268.798
-275.344
-229.246
-242.008
-241.768
-184.09
-272.324
-276.796
-241.852
-241.988
-274.22
-239.73
-241.71
-225.092
-231.212
-192.204
-202.234
-209.013
-265.061
-273.93
-238.486
-251.861
-228.187
-236.111
-192.295
-201.943
-203.942
-263.22
-278.653
-240.007
-257.184
-206.937
-193.454
-205.447
-223.114
-251.521
-249.566
-275.6
-278.81
-241.288
-239.414
-237.752
-242.268
-202.974
-194.419
-203.63
-186.253
-314.029
-307.451
-274.72
-297.83
-273.677
-303.853
-300.783
-240.454
-265.852
-264.746
-269.904
-264.26
-239.345
-206.909
-202.443
-202.855
-203.865
-202.689
-200.591
-152.301
-188.089
-148.285
-153.307
-308.748
-301.808
-313.65
-303.549
-310.965
-306.035
-309.195
-306.986
-312.348
-305.288
-275.189
-299.007
-275.642
-287.616
-275.603
-239.57
-254.311
-262.519
-283.684
-243.202
-273.294
-239.465
-194.905
-204.105
-207.823
-196.684
-203.718
-201.236
-186.767
-152.97
-144.067
-142.029
-148.362
-187.729
-151.534
-111.523
-115.068
-108.779
-313.894
-310.115
-305.941
-320
-306.236
-311.582
-305.963
-316.765
-310.178
-275.814
-297.958
-271.648
-301.863
-299.547
-293.126
-299.63
-291.674
-272.844
-281.314
-238.775
-261.702
-280.337
-264.363
-278.538
-241.528
-193.111
-204.8
-228.568
-238.507
-199.635
-210.451
-195.122
-202.833
-236.883
-188.84
-152.471
-139.26
-144.443
-140.543
-187.209
-151.477
-111.46
-108.957
-110.14
-307.922
-285.748
-276.755
-302.936
-272.78
-240.929
-270.361
-266.222
-266.407
-265.256
-201.533
-211.313
-201.379
-201.179
-201.174
-151.925
-192.786
-153.928
-189.885
-274.775
-261.909
-250.374
-259.373
-278.238
-264.188
-214.373
-224.246
-216.696
-266.987
-278.793
-266.803
-254.304
-282.205
-245.556
-259.176
-258.389
-248.832
-266.439
-256.235
-279.832
-249.964
-256.007
-257.111
-252.614
-229.81
-229.331
-216.185
-213.82
-206.269
-197.062
-213.694
-204.735
-211.678
-275.989
-259.898
-252.899
-261.331
-277.625
-246.514
-250.218
-251.426
-233.809
-259.385
-222.3
-234.982
-231.468
-216.611
-216.116
-207.596
-196.851
-211.182
-203.541
-211.929
-262.141
-276.727
-246.524
-248.56
-253.577
-232.446
-258.189
-228.426
-215.059
-202.825
-217.758
-213.332
-221.661
-292.106
-292.686
-290.711
-294.223
-250.684
-278.882
-266.974
-223.949
-224.614
-232.398
-231.291
-228.868
-184.628
-194.162
-192.286
-173.435
-169.761
-195.63
-186.315
-186.205
-294.476
-296.6
-302.635
-290.808
-254.8
-266.429
-247.554
-284.982
-264.62
-228.098
-227.529
-216.576
-186.022
-199.681
-192.206
-174.426
-133.499
-135.827
-122.584
-123.639
-112.818
-107.826
-294.304
-292.922
-292.871
-289.147
-299.457
-260.654
-272.958
-268.163
-221.061
-170.32
-193.192
-123.486
-112.708
-108.961
-95.109
-137.024
-295.15
-294.003
-301.892
-295.179
-299.389
-298.292
-294.733
-292.83
-299.192
-246.438
-255.252
-296.249
-264.318
-229.967
-230.425
-186.351
-194.686
-185.4
-180.608
-190.999
-173.149
-137.553
-228.684
-191.582
-281.934
-277.133
-259.529
-261.72
-228.73
-221.902
-225.366
-210.538
-202.302
-215.662
-207.068
-207.363
-200.79
-313.371
-308.831
-268.685
-269.784
-286.312
-293.04
-289.365
-289.838
-271.575
-285.021
-278.674
-288.481
-274.188
-282.376
-296.598
-290.158
-291.915
-290.362
-270.957
-277.781
-281.558
-287.077
-294.846
-300.135
-297.554
-299.384
-284.86
-271.839
-280.26
-300.077
-294.697
-299.711
-296.629
-273.228
-293.169
-297.364
-288.951
-279.118
-283.505
-277.786
-259.349
-254.553
-286.071
-260.364
-251.898
-252.499
-238.875
-240.98
-240.044
-253.162
-280.318
-266.077
-243.041
-242.003
-252.401
-243.247
-253.872
-276.52
-257.394
-241.201
-231.976
-231.222
-213.739
-217.512
-195.178
-231.157
-213.445
-219.163
-197.252
-225.374
-231.605
-215.937
-196.247
-230.293
-207.751
-214.327
-185.348
-185.119
-170.237
-171.436
-158.344
-159.461
-171.962
-159.976
-156.628
-145.282
-142.742
-141.8
-147.704
-184.811
-173.458
-159.303
-154.843
-146.386
-146.783
-141.168
-180.36
-185.876
-159.073
-316.371
-302.465
-310.91
-297.442
-301.381
-315.684
-292.899
-330.139
-303.181
-306.098
-305.063
-317.03
-305.602
-315.02
-329.659
-317.895
-303.523
-312.277
-283.655
-294.581
-306.751
-299.35
-275.26
-290.508
-281.732
-295.22
-289.861
-293.961
-290.399
-300.581
-282.751
-270.344
-276.204
-287.777
-299.35
-292.497
-291.245
-285.202
-248.994
-254.839
-240.148
-262.586
-276.171
-249.589
-255.775
-259.377
-262.524
-262.831
-273.77
-250.793
-224.521
-213.537
-208.467
-220.818
-229.222
-204.127
-207.677
-215.606
-223.619
-213.798
-205.559
-197.166
-147.117
-145.113
-142.927
-169.928
-159.27
-155.153
-146.1
-184.171
-188.674
-146.112
-143.748
-169.945
-146.561
-108.922
-109.316
-97.4399
-117.679
-95.5563
-108.76
-119.478
-318.973
-303.724
-324.482
-310.732
-309.864
-299.017
-302.042
-293.033
-314.09
-323.655
-315.298
-303.942
-299.707
-297.962
-306.151
-305.749
-305.938
-283.792
-301.357
-281.132
-298.886
-300.124
-294.239
-268.076
-300.677
-286.95
-293.362
-290.715
-284.439
-290.976
-291.012
-276.926
-282.497
-278.418
-257.268
-275.277
-260.999
-250.816
-246.558
-232.852
-252.551
-279.913
-258.084
-259.241
-225.068
-206.064
-210.847
-221.338
-224.457
-209.09
-216.608
-218.706
-212.856
-205.344
-227.225
-228.734
-159.479
-155.468
-146.525
-186.76
-174.55
-146.429
-144.005
-170.621
-147.127
-184.207
-145.434
-96.8285
-108.395
-119.662
-315.754
-294.164
-274.311
-289.566
-275.056
-273.457
-283.829
-299.698
-293.911
-291.938
-275.874
-281.546
-288.605
-285.132
-295.449
-292.008
-293.552
-290.511
-284.93
-272.475
-290.526
-282.077
-278.782
-262.863
-242.429
-256.16
-287.439
-259.628
-251.009
-240.012
-239.82
-252.787
-280.283
-240.765
-252.759
-279.512
-242.584
-211.72
-199.565
-225.984
-231.163
-225.378
-212.52
-220.45
-228.757
-207.85
-229.915
-208.217
-157.906
-185.513
-145.664
-143.388
-148.606
-184.51
-195.137
-171.758
-145.969
-148.282
-169.35
-185.212
)
;
    }
}


// ************************************************************************* //
