/*--------------------------------*- C++ -*----------------------------------*\
| =========                 |                                                 |
| \\      /  F ield         | OpenFOAM: The Open Source CFD Toolbox           |
|  \\    /   O peration     | Version:  v1912                                 |
|   \\  /    A nd           | Website:  www.openfoam.com                      |
|    \\/     M anipulation  |                                                 |
\*---------------------------------------------------------------------------*/
FoamFile
{
    version     2.0;
    format      ascii;
    class       surfaceScalarField;
    location    "14/oil";
    object      phi;
}
// * * * * * * * * * * * * * * * * * * * * * * * * * * * * * * * * * * * * * //

dimensions      [1 0 -1 0 0 0 0];
oriented        oriented;


internalField   nonuniform List<scalar> 
104676
(
-1.62476e-06
-1.62702e-06
-1.6433e-06
-9.0814e-07
-3.55694e-07
-3.60924e-07
-3.32512e-07
-2.85764e-07
-2.89864e-07
-1.75572e-07
-7.79545e-08
-7.89848e-08
-7.217e-08
-5.14348e-08
-5.19677e-08
-3.81188e-08
-1.69709e-08
-1.70803e-08
-1.74651e-08
-1.0324e-08
-1.03297e-08
-9.4744e-09
-4.0283e-09
-3.9624e-09
-4.75114e-09
-2.40967e-09
-2.31358e-09
-2.65389e-09
-1.10531e-09
-9.91942e-10
-1.43217e-09
-6.73486e-10
-5.48237e-10
-8.55443e-10
-3.54099e-10
-2.22629e-10
-5.53505e-10
-2.20993e-10
-8.09453e-11
-4.38525e-10
-1.31206e-10
1.62267e-11
-4.16959e-10
-8.62578e-11
6.46916e-11
-4.50226e-10
-5.91504e-11
9.24171e-11
-5.05509e-10
-4.70662e-11
1.02349e-10
-5.62171e-10
-4.4013e-11
1.00675e-10
-6.06412e-10
-4.6867e-11
9.11074e-11
-6.28916e-10
-5.35665e-11
7.60713e-11
-6.24511e-10
-6.31181e-11
5.87129e-11
-5.90657e-10
-7.45289e-11
4.06743e-11
-5.29829e-10
-8.54176e-11
2.45901e-11
-4.46748e-10
-9.51337e-11
1.20529e-11
-3.48364e-10
-1.02672e-10
4.28814e-12
-2.44128e-10
-1.06954e-10
2.71754e-12
-1.44576e-10
-1.05903e-10
6.35073e-12
-6.34483e-11
-9.59926e-11
1.4865e-11
-1.20793e-11
-7.13791e-11
2.001e-11
-2.8846e-11
1.67666e-11
-3.54981e-07
-9.09969e-07
-3.62072e-07
-2.66108e-07
-2.66795e-07
-1.77772e-07
-1.58376e-07
-2.33022e-07
-1.60474e-07
-9.70991e-08
-7.5223e-08
-6.40082e-08
-5.26408e-08
-5.25299e-08
-4.33632e-08
-3.17969e-08
-1.96931e-08
-1.81217e-08
-1.77051e-08
-1.32185e-08
-1.11973e-08
-1.08326e-08
-5.86332e-09
-5.03744e-09
-6.28161e-09
-4.00962e-09
-2.95104e-09
-3.90473e-09
-2.13436e-09
-1.34782e-09
-2.37207e-09
-1.53136e-09
-6.74786e-10
-1.5733e-09
-9.60055e-10
-1.9281e-10
-1.12537e-09
-7.25848e-10
5.69225e-11
-9.5023e-10
-5.30429e-10
2.24083e-10
-9.15042e-10
-4.3825e-10
3.16805e-10
-9.73663e-10
-3.70832e-10
3.70303e-10
-1.0666e-09
-3.43135e-10
3.89002e-10
-1.16357e-09
-3.32019e-10
3.84979e-10
-1.23649e-09
-3.3875e-10
3.648e-10
-1.27037e-09
-3.53264e-10
3.33579e-10
-1.25283e-09
-3.75814e-10
2.95155e-10
-1.18221e-09
-3.99295e-10
2.54146e-10
-1.06265e-09
-4.21215e-10
2.16244e-10
-9.03078e-10
-4.38568e-10
1.8386e-10
-7.15785e-10
-4.48427e-10
1.58461e-10
-5.17952e-10
-4.46415e-10
1.41629e-10
-3.2772e-10
-4.26965e-10
1.3083e-10
-1.66249e-10
-3.80132e-10
1.22668e-10
-5.01868e-11
-2.89855e-10
1.02414e-10
-1.36299e-10
5.7266e-11
-2.85771e-07
-3.33774e-07
-2.90423e-07
-2.3272e-07
-1.59368e-07
-1.60479e-07
-1.59032e-07
-1.60143e-07
-1.46567e-07
-1.03485e-07
-6.60716e-08
-6.46981e-08
-6.12101e-08
-5.12939e-08
-4.3511e-08
-3.81243e-08
-2.30021e-08
-1.97768e-08
-2.2514e-08
-1.67386e-08
-1.20902e-08
-1.40457e-08
-8.55937e-09
-5.77223e-09
-8.50313e-09
-6.23235e-09
-3.31987e-09
-5.38836e-09
-3.70724e-09
-1.54189e-09
-3.40114e-09
-2.80715e-09
-7.11428e-10
-2.30192e-09
-1.92699e-09
-1.32288e-10
-1.67765e-09
-1.53952e-09
1.89408e-10
-1.40357e-09
-1.20639e-09
4.01883e-10
-1.32288e-09
-1.04429e-09
5.25351e-10
-1.36787e-09
-9.22958e-10
5.97118e-10
-1.46352e-09
-8.69657e-10
6.2217e-10
-1.56826e-09
-8.44418e-10
6.17137e-10
-1.64664e-09
-8.50246e-10
5.89884e-10
-1.67857e-09
-8.69987e-10
5.48652e-10
-1.6478e-09
-9.0108e-10
4.94489e-10
-1.55226e-09
-9.32824e-10
4.37996e-10
-1.39698e-09
-9.61102e-10
3.84602e-10
-1.19272e-09
-9.79942e-10
3.37114e-10
-9.54842e-10
-9.83726e-10
2.97422e-10
-7.02986e-10
-9.64697e-10
2.66427e-10
-4.58457e-10
-9.11798e-10
2.40303e-10
-2.45134e-10
-8.07931e-10
2.14475e-10
-8.11294e-11
-6.23725e-10
1.69865e-10
-3.06527e-10
8.9099e-11
-7.79767e-08
-1.767e-07
-7.9098e-08
-7.46974e-08
-9.87118e-08
-6.39352e-08
-6.47167e-08
-1.05444e-07
-6.46799e-08
-4.7071e-08
-4.93129e-08
-3.44044e-08
-3.28117e-08
-4.07377e-08
-2.48155e-08
-2.24778e-08
-2.05168e-08
-1.28192e-08
-1.49803e-08
-1.59526e-08
-8.28354e-09
-1.01085e-08
-9.12556e-09
-4.30556e-09
-6.69203e-09
-7.10736e-09
-2.54148e-09
-4.52598e-09
-4.68404e-09
-1.18925e-09
-3.08147e-09
-3.77418e-09
-4.77487e-10
-2.22796e-09
-2.82205e-09
4.1549e-11
-1.74311e-09
-2.37935e-09
3.54977e-10
-1.54113e-09
-1.97578e-09
5.674e-10
-1.50981e-09
-1.77271e-09
6.97099e-10
-1.58843e-09
-1.61752e-09
7.73174e-10
-1.70954e-09
-1.54682e-09
7.9828e-10
-1.83123e-09
-1.51256e-09
7.89835e-10
-1.91879e-09
-1.51859e-09
7.55911e-10
-1.9514e-09
-1.54296e-09
7.05575e-10
-1.91248e-09
-1.57949e-09
6.39491e-10
-1.80094e-09
-1.61621e-09
5.71845e-10
-1.6229e-09
-1.64635e-09
5.07206e-10
-1.39042e-09
-1.66111e-09
4.48684e-10
-1.12054e-09
-1.65199e-09
3.98387e-10
-8.34279e-10
-1.60764e-09
3.56686e-10
-5.53195e-10
-1.51187e-09
3.18991e-10
-3.03117e-10
-1.3382e-09
2.8019e-10
-1.0419e-10
-1.04051e-09
2.17863e-10
-5.23483e-10
1.12766e-10
-5.13217e-08
-7.34242e-08
-5.19538e-08
-5.18813e-08
-5.48557e-08
-4.32965e-08
-4.98306e-08
-6.40117e-08
-4.34827e-08
-3.8344e-08
-3.59828e-08
-2.48167e-08
-2.87052e-08
-3.20884e-08
-1.82881e-08
-2.0424e-08
-1.87291e-08
-1.00689e-08
-1.42774e-08
-1.54733e-08
-6.62584e-09
-9.8692e-09
-9.9454e-09
-3.5884e-09
-6.74927e-09
-8.12229e-09
-2.105e-09
-4.64905e-09
-5.8261e-09
-9.58158e-10
-3.24992e-09
-4.87102e-09
-3.02301e-10
-2.38889e-09
-3.86438e-09
1.81302e-10
-1.90656e-09
-3.35348e-09
4.9181e-10
-1.70437e-09
-2.88146e-09
7.03489e-10
-1.68071e-09
-2.63251e-09
8.36142e-10
-1.76816e-09
-2.44311e-09
9.13039e-10
-1.89844e-09
-2.35396e-09
9.37415e-10
-2.02646e-09
-2.30827e-09
9.23731e-10
-2.11696e-09
-2.31154e-09
8.83447e-10
-2.14634e-09
-2.33438e-09
8.20796e-10
-2.099e-09
-2.3702e-09
7.43374e-10
-1.97431e-09
-2.40572e-09
6.64822e-10
-1.77921e-09
-2.43125e-09
5.89808e-10
-1.52649e-09
-2.43554e-09
5.21709e-10
-1.23406e-09
-2.40711e-09
4.62689e-10
-9.23565e-10
-2.33112e-09
4.12979e-10
-6.17215e-10
-2.18584e-09
3.67612e-10
-3.41258e-10
-1.93506e-09
3.209e-10
-1.18593e-10
-1.51101e-09
2.47832e-10
-7.70095e-10
1.28019e-10
-1.6784e-08
-3.96209e-08
-1.70193e-08
-1.89528e-08
-3.46429e-08
-1.80439e-08
-2.1463e-08
-4.17535e-08
-1.97479e-08
-1.80337e-08
-2.65748e-08
-1.28373e-08
-1.52294e-08
-2.47985e-08
-1.00942e-08
-1.16617e-08
-1.61924e-08
-6.10438e-09
-8.89307e-09
-1.40361e-08
-4.20588e-09
-6.50825e-09
-9.93549e-09
-2.39473e-09
-4.73992e-09
-8.49763e-09
-1.39298e-09
-3.4232e-09
-6.57411e-09
-5.68716e-10
-2.53321e-09
-5.71818e-09
-4.28279e-11
-1.97353e-09
-4.78865e-09
3.64587e-10
-1.68866e-09
-4.28588e-09
6.47522e-10
-1.60826e-09
-3.80317e-09
8.41316e-10
-1.66848e-09
-3.53889e-09
9.666e-10
-1.81206e-09
-3.33858e-09
1.03904e-09
-1.97963e-09
-3.24823e-09
1.06185e-09
-2.13135e-09
-3.19593e-09
1.03938e-09
-2.23521e-09
-3.19612e-09
9.88431e-10
-2.26715e-09
-3.21219e-09
9.09758e-10
-2.21631e-09
-3.24186e-09
8.20818e-10
-2.08356e-09
-3.26932e-09
7.30849e-10
-1.87729e-09
-3.28301e-09
6.45486e-10
-1.61138e-09
-3.26994e-09
5.68492e-10
-1.30434e-09
-3.21617e-09
5.02026e-10
-9.7831e-10
-3.10345e-09
4.46296e-10
-6.55904e-10
-2.90395e-09
3.95712e-10
-3.64165e-10
-2.57084e-09
3.44045e-10
-1.26945e-10
-2.01338e-09
2.65148e-10
-1.03464e-09
1.37601e-10
-1.01347e-08
-1.92586e-08
-1.02275e-08
-1.24734e-08
-2.1189e-08
-1.11153e-08
-1.51894e-08
-2.69483e-08
-1.20893e-08
-1.34508e-08
-1.99702e-08
-8.34317e-09
-1.19402e-08
-1.96105e-08
-6.69862e-09
-9.44871e-09
-1.4426e-08
-4.25791e-09
-7.44678e-09
-1.30699e-08
-2.96812e-09
-5.5576e-09
-1.01147e-08
-1.71002e-09
-4.13606e-09
-8.97792e-09
-9.41256e-10
-3.02895e-09
-7.39185e-09
-2.89369e-10
-2.2867e-09
-6.62339e-09
1.62971e-10
-1.82302e-09
-5.77737e-09
5.25035e-10
-1.60496e-09
-5.29247e-09
7.88532e-10
-1.57061e-09
-4.80589e-09
9.68376e-10
-1.66807e-09
-4.53094e-09
1.08951e-09
-1.83905e-09
-4.32629e-09
1.15869e-09
-2.03127e-09
-4.23371e-09
1.1777e-09
-2.1959e-09
-4.17485e-09
1.14356e-09
-2.30664e-09
-4.16253e-09
1.07715e-09
-2.33724e-09
-4.16357e-09
9.81974e-10
-2.28141e-09
-4.17704e-09
8.79358e-10
-2.14124e-09
-4.18606e-09
7.7657e-10
-1.92663e-09
-4.17799e-09
6.80368e-10
-1.6521e-09
-4.13909e-09
5.9462e-10
-1.33674e-09
-4.053e-09
5.21466e-10
-1.00261e-09
-3.8985e-09
4.60923e-10
-6.72316e-10
-3.64129e-09
4.0704e-10
-3.73142e-10
-3.22335e-09
3.53339e-10
-1.29876e-10
-2.52911e-09
2.72466e-10
-1.30637e-09
1.41851e-10
-3.84104e-09
-1.15657e-08
-3.85186e-09
-5.13998e-09
-1.48984e-08
-4.99163e-09
-7.04138e-09
-1.92191e-08
-5.82777e-09
-6.65654e-09
-1.59218e-08
-4.43321e-09
-6.4418e-09
-1.6084e-08
-3.74128e-09
-5.36632e-09
-1.29704e-08
-2.53105e-09
-4.48784e-09
-1.2152e-08
-1.79642e-09
-3.4726e-09
-1.01062e-08
-1.02373e-09
-2.6935e-09
-9.27073e-09
-4.86286e-10
-2.03795e-09
-8.0468e-09
-6.04346e-13
-1.61699e-09
-7.41684e-09
3.72486e-10
-1.37478e-09
-6.70631e-09
6.86734e-10
-1.30748e-09
-6.28565e-09
9.25883e-10
-1.37526e-09
-5.83103e-09
1.09292e-09
-1.5466e-09
-5.568e-09
1.20839e-09
-1.77046e-09
-5.37177e-09
1.26934e-09
-2.00141e-09
-5.27814e-09
1.27538e-09
-2.18684e-09
-5.22159e-09
1.23217e-09
-2.3088e-09
-5.18859e-09
1.14802e-09
-2.3422e-09
-5.16637e-09
1.03621e-09
-2.2849e-09
-5.15336e-09
9.19022e-10
-2.14136e-09
-5.13291e-09
8.03307e-10
-1.92332e-09
-5.09274e-09
6.9671e-10
-1.64646e-09
-5.01896e-09
6.0301e-10
-1.33033e-09
-4.89351e-09
5.24388e-10
-9.96588e-10
-4.69252e-09
4.6027e-10
-6.67554e-10
-4.37498e-09
4.04662e-10
-3.70018e-10
-3.87157e-09
3.50679e-10
-1.28341e-10
-3.04181e-09
2.7102e-10
-1.57644e-09
1.41728e-10
-2.23141e-09
-7.10759e-09
-2.2267e-09
-3.32244e-09
-1.08486e-08
-2.95876e-09
-4.78048e-09
-1.43142e-08
-3.4468e-09
-4.72124e-09
-1.32294e-08
-2.7517e-09
-4.70949e-09
-1.37414e-08
-2.35434e-09
-4.01854e-09
-1.20248e-08
-1.6365e-09
-3.42759e-09
-1.16006e-08
-1.14229e-09
-2.6832e-09
-1.02448e-08
-6.05773e-10
-2.10594e-09
-9.65739e-09
-1.90599e-10
-1.60827e-09
-8.74454e-09
2.00066e-10
-1.30132e-09
-8.24765e-09
5.23859e-10
-1.14093e-09
-7.67054e-09
8.03836e-10
-1.13887e-09
-7.31459e-09
1.02688e-09
-1.25359e-09
-6.90618e-09
1.18987e-09
-1.45674e-09
-6.66454e-09
1.29969e-09
-1.70197e-09
-6.47676e-09
1.35023e-09
-1.94863e-09
-6.37096e-09
1.33947e-09
-2.1436e-09
-6.31309e-09
1.28647e-09
-2.26316e-09
-6.25512e-09
1.1861e-09
-2.29219e-09
-6.20026e-09
1.06291e-09
-2.23131e-09
-6.14817e-09
9.33932e-10
-2.0855e-09
-6.08593e-09
8.07212e-10
-1.86804e-09
-6.00259e-09
6.9239e-10
-1.595e-09
-5.88468e-09
5.92685e-10
-1.28581e-09
-5.71318e-09
5.10473e-10
-9.61189e-10
-5.46156e-09
4.44422e-10
-6.42455e-10
-5.08251e-09
3.88786e-10
-3.55192e-10
-4.49523e-09
3.36401e-10
-1.22461e-10
-3.53538e-09
2.60838e-10
-1.83569e-09
1.36796e-10
-9.42405e-10
-5.22522e-09
-9.39964e-10
-1.49083e-09
-8.87469e-09
-1.4255e-09
-2.34514e-09
-1.17064e-08
-1.75354e-09
-2.424e-09
-1.16514e-08
-1.49912e-09
-2.55975e-09
-1.22836e-08
-1.32206e-09
-2.25073e-09
-1.13906e-08
-9.43285e-10
-1.99283e-09
-1.12236e-08
-6.34903e-10
-1.58704e-09
-1.0374e-08
-2.76578e-10
-1.2771e-09
-1.00038e-08
3.64784e-11
-9.98063e-10
-9.37069e-09
3.47121e-10
-8.50742e-10
-9.0183e-09
6.23336e-10
-8.04259e-10
-8.58676e-09
8.69734e-10
-8.913e-10
-8.30798e-09
1.08043e-09
-1.06637e-09
-7.96938e-09
1.23827e-09
-1.30519e-09
-7.76355e-09
1.33782e-09
-1.56803e-09
-7.59307e-09
1.37915e-09
-1.82195e-09
-7.47396e-09
1.35692e-09
-2.02731e-09
-7.3985e-09
1.29078e-09
-2.14443e-09
-7.31989e-09
1.18188e-09
-2.16946e-09
-7.22576e-09
1.05054e-09
-2.10724e-09
-7.12468e-09
9.14293e-10
-1.96353e-09
-7.01096e-09
7.8132e-10
-1.75301e-09
-6.87583e-09
6.6273e-10
-1.4915e-09
-6.70711e-09
5.60917e-10
-1.19847e-09
-6.48458e-09
4.78373e-10
-8.92875e-10
-6.18027e-09
4.1311e-10
-5.94347e-10
-5.74063e-09
3.59593e-10
-3.27185e-10
-5.07297e-09
3.1058e-10
-1.12407e-10
-3.99132e-09
2.4117e-10
-2.07536e-09
1.27254e-10
-5.33491e-10
-4.1572e-09
-5.34524e-10
-9.42191e-10
-7.6277e-09
-8.38296e-10
-1.543e-09
-1.00718e-08
-1.03378e-09
-1.66418e-09
-1.06204e-08
-9.09772e-10
-1.79297e-09
-1.13505e-08
-8.04363e-10
-1.60581e-09
-1.10054e-08
-5.72289e-10
-1.44153e-09
-1.10327e-08
-3.55209e-10
-1.1602e-09
-1.05612e-08
-9.40848e-11
-9.45649e-10
-1.0373e-08
1.5468e-10
-7.51216e-10
-9.97305e-09
4.07921e-10
-6.57169e-10
-9.75075e-09
6.38397e-10
-6.45351e-10
-9.44817e-09
8.49592e-10
-7.63668e-10
-9.24009e-09
1.05042e-09
-9.50176e-10
-8.98962e-09
1.20675e-09
-1.18454e-09
-8.82616e-09
1.29697e-09
-1.43381e-09
-8.67316e-09
1.32936e-09
-1.66718e-09
-8.54033e-09
1.29974e-09
-1.85649e-09
-8.43616e-09
1.22697e-09
-1.96119e-09
-8.33764e-09
1.12245e-09
-1.97812e-09
-8.1939e-09
9.85068e-10
-1.91309e-09
-8.03789e-09
8.48175e-10
-1.77455e-09
-7.86661e-09
7.17108e-10
-1.57691e-09
-7.6753e-09
6.01827e-10
-1.33534e-09
-7.45218e-09
5.035e-10
-1.06845e-09
-7.17635e-09
4.24892e-10
-7.92218e-10
-6.81958e-09
3.63078e-10
-5.23482e-10
-6.32248e-09
3.13121e-10
-2.85446e-10
-5.58057e-09
2.69559e-10
-9.64505e-11
-4.39027e-09
2.09949e-10
-2.28399e-09
1.12181e-10
-2.45535e-10
-3.66152e-09
-2.50152e-10
-4.4715e-10
-6.97678e-09
-4.49304e-10
-7.87546e-10
-9.14449e-09
-5.86913e-10
-8.89496e-10
-9.97519e-09
-5.43306e-10
-1.01701e-09
-1.07414e-08
-4.81561e-10
-9.42371e-10
-1.07402e-08
-3.39937e-10
-8.78567e-10
-1.09047e-08
-1.91845e-10
-7.26039e-10
-1.07093e-08
-4.42267e-12
-6.14442e-10
-1.06719e-08
1.87295e-10
-5.08705e-10
-1.04605e-08
3.81722e-10
-4.75092e-10
-1.03494e-08
5.6501e-10
-5.12333e-10
-1.017e-08
7.5906e-10
-6.45889e-10
-1.00506e-08
9.44087e-10
-8.25645e-10
-9.88638e-09
1.07652e-09
-1.0397e-09
-9.7647e-09
1.1526e-09
-1.26173e-09
-9.62373e-09
1.1726e-09
-1.46345e-09
-9.47761e-09
1.13899e-09
-1.62193e-09
-9.34561e-09
1.06792e-09
-1.70553e-09
-9.22616e-09
9.72124e-10
-1.70981e-09
-9.03023e-09
8.40614e-10
-1.64272e-09
-8.82423e-09
7.19246e-10
-1.51342e-09
-8.59989e-09
6.0398e-10
-1.33521e-09
-8.35516e-09
5.01656e-10
-1.12125e-09
-8.08006e-09
4.13922e-10
-8.90387e-10
-7.7529e-09
3.45681e-10
-6.562e-10
-7.34826e-09
2.94495e-10
-4.33655e-10
-6.80192e-09
2.56887e-10
-2.36887e-10
-6.0018e-09
2.24465e-10
-8.05521e-11
-4.72311e-09
1.76511e-10
-2.4593e-09
9.47581e-11
-1.41333e-10
-3.37358e-09
-1.46604e-10
-2.98946e-10
-6.54659e-09
-2.72577e-10
-5.42769e-10
-8.53409e-09
-3.66581e-10
-6.51018e-10
-9.49941e-09
-3.67537e-10
-7.76294e-10
-1.02775e-08
-3.38615e-10
-7.62706e-10
-1.05065e-08
-2.47213e-10
-7.43841e-10
-1.07804e-08
-1.43152e-10
-6.50654e-10
-1.07894e-08
-1.31578e-11
-5.74114e-10
-1.08727e-08
1.24214e-10
-5.04001e-10
-1.07997e-08
2.69111e-10
-4.99733e-10
-1.0781e-08
4.27371e-10
-5.45138e-10
-1.07179e-08
5.93297e-10
-6.35628e-10
-1.06955e-08
7.35344e-10
-7.63359e-10
-1.0596e-08
8.37385e-10
-9.21144e-10
-1.05018e-08
8.94849e-10
-1.08586e-09
-1.03639e-08
9.04905e-10
-1.22883e-09
-1.02125e-08
8.7787e-10
-1.33237e-09
-1.00566e-08
8.14548e-10
-1.3878e-09
-9.89367e-09
7.22948e-10
-1.37403e-09
-9.65148e-09
6.07485e-10
-1.30245e-09
-9.4089e-09
5.13091e-10
-1.18635e-09
-9.14358e-09
4.27582e-10
-1.0384e-09
-8.85826e-09
3.55154e-10
-8.67662e-10
-8.54837e-09
2.97568e-10
-6.84813e-10
-8.1889e-09
2.53149e-10
-5.01313e-10
-7.74824e-09
2.16473e-10
-3.28421e-10
-7.16336e-09
1.88549e-10
-1.77448e-10
-6.318e-09
1.6523e-10
-5.95721e-11
-4.97263e-09
1.31637e-10
-2.59086e-09
7.19856e-11
-7.77093e-11
-3.20749e-09
-8.83766e-11
-1.87038e-10
-6.2556e-09
-1.81662e-10
-3.56004e-10
-8.12147e-09
-2.43649e-10
-4.57984e-10
-9.14213e-09
-2.55291e-10
-5.76513e-10
-9.9139e-09
-2.45064e-10
-6.10809e-10
-1.02731e-08
-1.99173e-10
-6.41417e-10
-1.0606e-08
-1.43744e-10
-6.22966e-10
-1.07308e-08
-7.70614e-11
-5.99558e-10
-1.08915e-08
-4.55033e-12
-5.69622e-10
-1.09242e-08
9.4559e-11
-5.7566e-10
-1.09893e-08
2.143e-10
-5.9786e-10
-1.1023e-08
3.2736e-10
-6.47717e-10
-1.10653e-08
4.19665e-10
-7.16293e-10
-1.10163e-08
4.88819e-10
-7.97647e-10
-1.09524e-08
5.31963e-10
-8.78522e-10
-1.08266e-08
5.43531e-10
-9.46513e-10
-1.06763e-08
5.3179e-10
-9.84809e-10
-1.05102e-08
4.91843e-10
-9.97865e-10
-1.03186e-08
4.38026e-10
-9.73454e-10
-1.00394e-08
3.63502e-10
-9.16221e-10
-9.75609e-09
2.89954e-10
-8.24963e-10
-9.45822e-09
2.23386e-10
-7.07909e-10
-9.15318e-09
1.7787e-10
-5.759e-10
-8.83088e-09
1.50502e-10
-4.43472e-10
-8.45502e-09
1.33698e-10
-3.17305e-10
-7.99362e-09
1.19216e-10
-2.02799e-10
-7.38507e-09
1.07211e-10
-1.06357e-10
-6.51172e-09
9.72709e-11
-3.45071e-11
-5.12501e-09
8.05288e-11
-2.67152e-09
4.61619e-11
-6.56393e-11
-3.07071e-09
-7.11462e-11
-1.8101e-10
-5.99102e-09
-1.49202e-10
-3.4278e-10
-7.75488e-09
-2.04824e-10
-4.69529e-10
-8.78718e-09
-2.28201e-10
-6.03614e-10
-9.54119e-09
-2.38629e-10
-6.7676e-10
-9.96777e-09
-2.32142e-10
-7.35698e-10
-1.03275e-08
-2.19559e-10
-7.56149e-10
-1.05167e-08
-1.93583e-10
-7.74987e-10
-1.07153e-08
-1.57449e-10
-7.71531e-10
-1.08195e-08
-1.08132e-10
-7.58839e-10
-1.09446e-08
-5.73947e-11
-7.34258e-10
-1.10353e-08
-1.23339e-11
-7.30588e-10
-1.1093e-08
2.40201e-11
-7.20187e-10
-1.1081e-08
5.43137e-11
-6.99696e-10
-1.10536e-08
8.07761e-11
-6.81571e-10
-1.0947e-08
1.02251e-10
-6.60261e-10
-1.08089e-08
1.11273e-10
-6.24548e-10
-1.06454e-08
9.9503e-11
-5.81751e-10
-1.04464e-08
8.50059e-11
-5.26962e-10
-1.01577e-08
6.3478e-11
-4.65433e-10
-9.86182e-09
4.4199e-11
-3.96381e-10
-9.55382e-09
2.65431e-11
-3.22796e-10
-9.24361e-09
1.68472e-11
-2.48469e-10
-8.91747e-09
1.22605e-11
-1.79248e-10
-8.53612e-09
1.18745e-11
-1.17951e-10
-8.06803e-09
1.31133e-11
-6.72761e-11
-7.45267e-09
1.69203e-11
-2.97056e-11
-6.57115e-09
2.18633e-11
-7.14128e-12
-5.1714e-09
2.3826e-11
-2.69662e-09
1.79542e-11
-6.63641e-11
-2.93534e-09
-6.90073e-11
-1.86836e-10
-5.72505e-09
-1.45504e-10
-3.50244e-10
-7.38742e-09
-2.0405e-10
-5.03605e-10
-8.39547e-09
-2.38358e-10
-6.65865e-10
-9.11596e-09
-2.62968e-10
-7.93143e-10
-9.5675e-09
-2.72986e-10
-9.08407e-10
-9.93632e-09
-2.75966e-10
-9.75459e-10
-1.01721e-08
-2.77583e-10
-1.00579e-09
-1.03954e-08
-2.895e-10
-9.92169e-10
-1.05243e-08
-3.08876e-10
-9.61733e-10
-1.06483e-08
-3.26687e-10
-9.17534e-10
-1.07442e-08
-3.35295e-10
-8.55672e-10
-1.08176e-08
-3.37187e-10
-7.5412e-10
-1.08432e-08
-3.39309e-10
-6.18507e-10
-1.08373e-08
-3.51961e-10
-4.92142e-10
-1.07211e-08
-3.52199e-10
-3.72697e-10
-1.0592e-08
-3.36367e-10
-2.55773e-10
-1.04456e-08
-3.16682e-10
-1.63119e-10
-1.025e-08
-2.89102e-10
-8.09757e-11
-9.98066e-09
-2.59145e-10
-1.19819e-11
-9.70712e-09
-2.23689e-10
3.94061e-11
-9.41694e-09
-1.88265e-10
7.25428e-11
-9.11994e-09
-1.56812e-10
8.78478e-11
-8.80107e-09
-1.31705e-10
9.08633e-11
-8.42949e-09
-1.09645e-10
8.46724e-11
-7.97255e-09
-8.92918e-11
6.90885e-11
-7.36836e-09
-6.87242e-11
4.67654e-11
-6.49997e-09
-4.88608e-11
2.04218e-11
-5.11739e-09
-2.76636e-11
-2.66756e-09
-8.64178e-12
-7.82735e-11
-2.77806e-09
-7.90075e-11
-2.25014e-10
-5.4115e-09
-1.66807e-10
-4.13841e-10
-6.96545e-09
-2.33143e-10
-6.0562e-10
-7.92506e-09
-2.78632e-10
-8.02865e-10
-8.59888e-09
-3.19837e-10
-9.71062e-10
-9.04254e-09
-3.56769e-10
-1.11697e-09
-9.3957e-09
-3.94708e-10
-1.21657e-09
-9.63775e-09
-4.34745e-10
-1.27561e-09
-9.85583e-09
-4.80558e-10
-1.26879e-09
-9.99132e-09
-5.39797e-10
-1.20533e-09
-1.00968e-08
-6.14938e-10
-1.09932e-09
-1.01667e-08
-6.83513e-10
-9.50595e-10
-1.02302e-08
-7.36219e-10
-7.57697e-10
-1.02591e-08
-7.77057e-10
-5.33504e-10
-1.02585e-08
-8.02943e-10
-3.10489e-10
-1.01495e-08
-7.94669e-10
-9.39223e-11
-1.00432e-08
-7.65364e-10
1.05029e-10
-9.9301e-09
-7.1447e-10
2.44363e-10
-9.74557e-09
-6.4376e-10
3.53371e-10
-9.52447e-09
-5.65194e-10
4.27985e-10
-9.30632e-09
-4.75419e-10
4.5787e-10
-9.06169e-09
-3.85138e-10
4.49508e-10
-8.79094e-09
-3.20634e-10
4.08938e-10
-8.48657e-09
-2.73927e-10
3.50678e-10
-8.13884e-09
-2.32393e-10
2.82273e-10
-7.71063e-09
-1.93511e-10
2.03923e-10
-7.13489e-09
-1.55123e-10
1.24181e-10
-6.30074e-09
-1.19483e-10
4.95496e-11
-4.96414e-09
-7.86198e-11
-2.58248e-09
-3.55234e-11
-9.2816e-11
-2.5918e-09
-9.34401e-11
-2.64124e-10
-5.0451e-09
-1.95096e-10
-4.78748e-10
-6.48038e-09
-2.70444e-10
-7.04775e-10
-7.37284e-09
-3.26186e-10
-9.34491e-10
-7.98776e-09
-3.81401e-10
-1.13838e-09
-8.39907e-09
-4.39585e-10
-1.31289e-09
-8.71599e-09
-5.0519e-10
-1.43933e-09
-8.93139e-09
-5.7993e-10
-1.51767e-09
-9.11155e-09
-6.65953e-10
-1.51889e-09
-9.23238e-09
-7.57713e-10
-1.43251e-09
-9.31846e-09
-8.64766e-10
-1.26899e-09
-9.3544e-09
-9.75797e-10
-1.04701e-09
-9.38071e-09
-1.07143e-09
-7.73996e-10
-9.39093e-09
-1.14116e-09
-4.65752e-10
-9.38862e-09
-1.17816e-09
-1.51782e-10
-9.29769e-09
-1.16574e-09
1.47882e-10
-9.21801e-09
-1.12483e-09
4.1554e-10
-9.14817e-09
-1.04958e-09
6.10238e-10
-8.99879e-09
-9.41477e-10
7.45307e-10
-8.83607e-09
-8.23475e-10
8.14605e-10
-8.67166e-09
-7.0395e-10
8.21494e-10
-8.47997e-09
-5.88603e-10
7.76033e-10
-8.25631e-09
-4.89174e-10
6.92943e-10
-7.99681e-09
-4.06674e-10
5.83501e-10
-7.69253e-09
-3.3686e-10
4.59877e-10
-7.3103e-09
-2.76709e-10
3.27297e-10
-6.77814e-09
-2.2417e-10
1.95869e-10
-5.99242e-09
-1.76893e-10
7.51593e-11
-4.72229e-09
-1.21138e-10
-2.44873e-09
-5.85936e-11
-1.07851e-10
-2.37696e-09
-1.06992e-10
-3.04411e-10
-4.62663e-09
-2.2191e-10
-5.46343e-10
-5.93094e-09
-3.0751e-10
-8.0499e-10
-6.74371e-09
-3.70484e-10
-1.06662e-09
-7.29211e-09
-4.34031e-10
-1.30615e-09
-7.65477e-09
-5.04759e-10
-1.51237e-09
-7.91947e-09
-5.90302e-10
-1.65865e-09
-8.09388e-09
-6.91233e-10
-1.73766e-09
-8.22597e-09
-8.06569e-10
-1.73227e-09
-8.30894e-09
-9.28822e-10
-1.63226e-09
-8.36411e-09
-1.05436e-09
-1.42615e-09
-8.37638e-09
-1.18414e-09
-1.13707e-09
-8.3623e-09
-1.30749e-09
-7.91086e-10
-8.33855e-09
-1.39835e-09
-4.07513e-10
-8.32593e-09
-1.44627e-09
-1.79256e-11
-8.25515e-09
-1.43213e-09
3.50366e-10
-8.20302e-09
-1.38328e-09
6.74629e-10
-8.17575e-09
-1.29668e-09
9.16492e-10
-8.08131e-09
-1.15935e-09
1.07141e-09
-7.97609e-09
-1.01489e-09
1.14164e-09
-7.85837e-09
-8.83517e-10
1.13718e-09
-7.71855e-09
-7.56968e-10
1.06772e-09
-7.55212e-09
-6.34724e-10
9.48803e-10
-7.35052e-09
-5.27369e-10
7.9394e-10
-7.09933e-09
-4.38344e-10
6.19625e-10
-6.77232e-09
-3.63659e-10
4.37736e-10
-6.305e-09
-2.9125e-10
2.58352e-10
-5.58703e-09
-2.26008e-10
9.71646e-11
-4.40349e-09
-1.57612e-10
-2.27236e-09
-7.92092e-11
-1.2075e-10
-2.13685e-09
-1.19356e-10
-3.37234e-10
-4.1655e-09
-2.44647e-10
-6.03792e-10
-5.32633e-09
-3.38057e-10
-8.93422e-10
-6.04563e-09
-4.08452e-10
-1.18267e-09
-6.52196e-09
-4.80893e-10
-1.44597e-09
-6.83045e-09
-5.61026e-10
-1.66808e-09
-7.04052e-09
-6.56828e-10
-1.82493e-09
-7.16802e-09
-7.69011e-10
-1.90285e-09
-7.24923e-09
-8.98811e-10
-1.88533e-09
-7.28565e-09
-1.04081e-09
-1.76614e-09
-7.29727e-09
-1.18604e-09
-1.53637e-09
-7.28262e-09
-1.32353e-09
-1.19947e-09
-7.24786e-09
-1.45135e-09
-7.95175e-10
-7.1901e-09
-1.55274e-09
-3.55111e-10
-7.15574e-09
-1.61025e-09
8.95719e-11
-7.1004e-09
-1.59943e-09
5.0936e-10
-7.07644e-09
-1.54637e-09
8.73788e-10
-7.08531e-09
-1.45487e-09
1.14621e-09
-7.03884e-09
-1.31488e-09
1.32037e-09
-6.98567e-09
-1.16458e-09
1.39741e-09
-6.923e-09
-1.01242e-09
1.38628e-09
-6.84209e-09
-8.65324e-10
1.29923e-09
-6.73568e-09
-7.29392e-10
1.1525e-09
-6.59217e-09
-6.11623e-10
9.60857e-10
-6.39406e-09
-5.1362e-10
7.4122e-10
-6.11572e-09
-4.36967e-10
5.13118e-10
-5.70716e-09
-3.69739e-10
2.98173e-10
-5.0688e-09
-3.03287e-10
1.10561e-10
-4.00034e-09
-2.15537e-10
-2.06056e-09
-1.01231e-10
-1.2967e-10
-1.87609e-09
-1.31094e-10
-3.66882e-10
-3.6587e-09
-2.69582e-10
-6.53804e-10
-4.67372e-09
-3.65686e-10
-9.62719e-10
-5.29857e-09
-4.38147e-10
-1.26891e-09
-5.70305e-09
-5.1273e-10
-1.54756e-09
-5.95578e-09
-5.96021e-10
-1.77898e-09
-6.11367e-09
-6.95427e-10
-1.94011e-09
-6.19527e-09
-8.11618e-10
-2.01453e-09
-6.2293e-09
-9.45507e-10
-1.98588e-09
-6.22211e-09
-1.0922e-09
-1.84622e-09
-6.19256e-09
-1.24437e-09
-1.59204e-09
-6.14669e-09
-1.39011e-09
-1.2283e-09
-6.09376e-09
-1.51783e-09
-7.86448e-10
-6.02103e-09
-1.61093e-09
-3.124e-10
-5.96396e-09
-1.66584e-09
1.68237e-10
-5.92199e-09
-1.65905e-09
6.23891e-10
-5.92295e-09
-1.60914e-09
1.01214e-09
-5.95122e-09
-1.52235e-09
1.3056e-09
-5.94657e-09
-1.38573e-09
1.49439e-09
-5.94149e-09
-1.23298e-09
1.57798e-09
-5.9313e-09
-1.07528e-09
1.56445e-09
-5.90503e-09
-9.23539e-10
1.46651e-09
-5.85309e-09
-7.84651e-10
1.30132e-09
-5.76278e-09
-6.64199e-10
1.08607e-09
-5.61669e-09
-5.62117e-10
8.38729e-10
-5.38845e-09
-4.79929e-10
5.77776e-10
-5.03502e-09
-4.11191e-10
3.30653e-10
-4.47588e-09
-3.45792e-10
1.20956e-10
-3.53818e-09
-2.5246e-10
-1.82194e-09
-1.17665e-10
-1.33803e-10
-1.60259e-09
-1.39695e-10
-3.84617e-10
-3.12184e-09
-2.86049e-10
-6.84499e-10
-3.99168e-09
-3.82158e-10
-1.0049e-09
-4.52268e-09
-4.55481e-10
-1.32048e-09
-4.85648e-09
-5.30982e-10
-1.60627e-09
-5.05564e-09
-6.14354e-10
-1.84068e-09
-5.16641e-09
-7.12852e-10
-2.00102e-09
-5.20774e-09
-8.27185e-10
-2.06944e-09
-5.20341e-09
-9.57475e-10
-2.03023e-09
-5.1624e-09
-1.09891e-09
-1.87561e-09
-5.1017e-09
-1.24547e-09
-1.60326e-09
-5.0307e-09
-1.38834e-09
-1.22625e-09
-4.95761e-09
-1.51316e-09
-7.66823e-10
-4.88113e-09
-1.59933e-09
-2.749e-10
-4.81549e-09
-1.64039e-09
2.23637e-10
-4.78607e-09
-1.63445e-09
6.95004e-10
-4.80358e-09
-1.59074e-09
1.09527e-09
-4.84279e-09
-1.5087e-09
1.40297e-09
-4.87185e-09
-1.38241e-09
1.60236e-09
-4.90347e-09
-1.23741e-09
1.6918e-09
-4.9338e-09
-1.08695e-09
1.67856e-09
-4.95029e-09
-9.41489e-10
1.5751e-09
-4.9423e-09
-8.07334e-10
1.39873e-09
-4.89674e-09
-6.89669e-10
1.16817e-09
-4.79731e-09
-5.88818e-10
9.03967e-10
-4.61948e-09
-5.04767e-10
6.24928e-10
-4.32445e-09
-4.31526e-10
3.57583e-10
-3.84553e-09
-3.63004e-10
1.29276e-10
-3.04058e-09
-2.69294e-10
-1.56539e-09
-1.27276e-10
-1.38275e-10
-1.32231e-09
-1.42007e-10
-3.9332e-10
-2.5784e-09
-2.884e-10
-6.97021e-10
-3.3008e-09
-3.87173e-10
-1.02161e-09
-3.7373e-09
-4.60796e-10
-1.33972e-09
-4.0037e-09
-5.34676e-10
-1.62638e-09
-4.15393e-09
-6.15046e-10
-1.85868e-09
-4.22504e-09
-7.09074e-10
-2.01437e-09
-4.23501e-09
-8.17041e-10
-2.07542e-09
-4.20368e-09
-9.3868e-10
-2.02759e-09
-4.14067e-09
-1.06956e-09
-1.86252e-09
-4.062e-09
-1.20478e-09
-1.58087e-09
-3.97584e-09
-1.3365e-09
-1.20341e-09
-3.88898e-09
-1.44609e-09
-7.47268e-10
-3.81492e-09
-1.52235e-09
-2.47863e-10
-3.75819e-09
-1.55671e-09
2.53683e-10
-3.73367e-09
-1.55395e-09
7.21577e-10
-3.75256e-09
-1.51891e-09
1.12889e-09
-3.80203e-09
-1.44807e-09
1.44613e-09
-3.85364e-09
-1.33545e-09
1.65201e-09
-3.90887e-09
-1.20048e-09
1.74585e-09
-3.96524e-09
-1.06238e-09
1.73469e-09
-4.01074e-09
-9.28397e-10
1.63019e-09
-4.03414e-09
-8.03664e-10
1.44946e-09
-4.02284e-09
-6.93172e-10
1.21139e-09
-3.96203e-09
-5.97211e-10
9.3778e-10
-3.83012e-09
-5.15753e-10
6.49502e-10
-3.59392e-09
-4.42258e-10
3.72014e-10
-3.19611e-09
-3.71935e-10
1.32689e-10
-2.52274e-09
-2.7852e-10
-1.2995e-09
-1.33203e-10
-1.39002e-10
-1.04257e-09
-1.40736e-10
-3.91098e-10
-2.04144e-09
-2.84858e-10
-6.91747e-10
-2.61688e-09
-3.83278e-10
-1.01326e-09
-2.96103e-09
-4.54759e-10
-1.3273e-09
-3.16446e-09
-5.25193e-10
-1.60926e-09
-3.27125e-09
-6.0072e-10
-1.83536e-09
-3.31084e-09
-6.88097e-10
-1.98403e-09
-3.299e-09
-7.87339e-10
-2.03787e-09
-3.25168e-09
-8.98169e-10
-1.98328e-09
-3.17891e-09
-1.01635e-09
-1.81373e-09
-3.09391e-09
-1.13763e-09
-1.534e-09
-3.00354e-09
-1.25203e-09
-1.16123e-09
-2.9175e-09
-1.34425e-09
-7.14063e-10
-2.84922e-09
-1.41287e-09
-2.20422e-10
-2.80514e-09
-1.44669e-09
2.74467e-10
-2.78494e-09
-1.44362e-09
7.35429e-10
-2.80282e-09
-1.41071e-09
1.13526e-09
-2.85367e-09
-1.3482e-09
1.44787e-09
-2.91397e-09
-1.25227e-09
1.65437e-09
-2.98096e-09
-1.13441e-09
1.75046e-09
-3.04993e-09
-1.0114e-09
1.74185e-09
-3.11095e-09
-8.91186e-10
1.63906e-09
-3.15323e-09
-7.78116e-10
1.45857e-09
-3.16556e-09
-6.76778e-10
1.21934e-09
-3.13499e-09
-5.87805e-10
9.43788e-10
-3.04327e-09
-5.11303e-10
6.5339e-10
-2.86292e-09
-4.40597e-10
3.74849e-10
-2.54741e-09
-3.70163e-10
1.34167e-10
-2.00617e-09
-2.75891e-10
-1.03186e-09
-1.33474e-10
-1.34727e-10
-7.7279e-10
-1.35054e-10
-3.78232e-10
-1.52467e-09
-2.73271e-10
-6.68814e-10
-1.95881e-09
-3.67485e-10
-9.80216e-10
-2.21492e-09
-4.34707e-10
-1.28434e-09
-2.36037e-09
-4.9997e-10
-1.55695e-09
-2.42968e-09
-5.68956e-10
-1.77401e-09
-2.44534e-09
-6.48438e-10
-1.91484e-09
-2.42039e-09
-7.3778e-10
-1.96239e-09
-2.36739e-09
-8.36735e-10
-1.90426e-09
-2.29521e-09
-9.41831e-10
-1.73474e-09
-2.21365e-09
-1.04978e-09
-1.46257e-09
-2.12919e-09
-1.14652e-09
-1.1008e-09
-2.05343e-09
-1.22584e-09
-6.69134e-10
-1.9947e-09
-1.28618e-09
-1.94461e-10
-1.96029e-09
-1.31953e-09
2.81662e-10
-1.94541e-09
-1.31565e-09
7.26582e-10
-1.96254e-09
-1.2852e-09
1.11241e-09
-2.00859e-09
-1.2309e-09
1.41434e-09
-2.06704e-09
-1.14887e-09
1.61722e-09
-2.13559e-09
-1.04825e-09
1.713e-09
-2.20587e-09
-9.39847e-10
1.70603e-09
-2.27049e-09
-8.33486e-10
1.60637e-09
-2.32081e-09
-7.32767e-10
1.42961e-09
-2.34708e-09
-6.41728e-10
1.19433e-09
-2.33883e-09
-5.60887e-10
9.2297e-10
-2.28112e-09
-4.90791e-10
6.37965e-10
-2.15288e-09
-4.25036e-10
3.66111e-10
-1.91763e-09
-3.57926e-10
1.32291e-10
-1.50661e-09
-2.65736e-10
-7.70052e-10
-1.29514e-10
-1.25091e-10
-5.22824e-10
-1.24874e-10
-3.52187e-10
-1.0447e-09
-2.52867e-10
-6.2571e-10
-1.34687e-09
-3.38419e-10
-9.2037e-10
-1.52205e-09
-3.98204e-10
-1.20912e-09
-1.6156e-09
-4.56014e-10
-1.4684e-09
-1.65337e-09
-5.17042e-10
-1.67421e-09
-1.65199e-09
-5.87534e-10
-1.80658e-09
-1.62144e-09
-6.66574e-10
-1.84934e-09
-1.57067e-09
-7.53957e-10
-1.79105e-09
-1.50692e-09
-8.46588e-10
-1.62774e-09
-1.43657e-09
-9.40381e-10
-1.36814e-09
-1.367e-09
-1.02179e-09
-1.02425e-09
-1.30584e-09
-1.09148e-09
-6.15546e-10
-1.25926e-09
-1.14414e-09
-1.6844e-10
-1.23264e-09
-1.17475e-09
2.80166e-10
-1.22331e-09
-1.17071e-09
6.99984e-10
-1.2389e-09
-1.14345e-09
1.06414e-09
-1.27672e-09
-1.09603e-09
1.35057e-09
-1.3275e-09
-1.02596e-09
1.54455e-09
-1.38783e-09
-9.4174e-10
1.63658e-09
-1.45104e-09
-8.46853e-10
1.62991e-09
-1.51036e-09
-7.53458e-10
1.53384e-09
-1.55991e-09
-6.64834e-10
1.36318e-09