/*--------------------------------*- C++ -*----------------------------------*\
| =========                 |                                                 |
| \\      /  F ield         | OpenFOAM: The Open Source CFD Toolbox           |
|  \\    /   O peration     | Version:  v1906                                 |
|   \\  /    A nd           | Web:      www.OpenFOAM.com                      |
|    \\/     M anipulation  |                                                 |
\*---------------------------------------------------------------------------*/
FoamFile
{
    version     2.0;
    format      ascii;
    class       volScalarField;
    location    "70";
    object      k;
}
// * * * * * * * * * * * * * * * * * * * * * * * * * * * * * * * * * * * * * //

dimensions      [0 2 -2 0 0 0 0];


internalField   nonuniform List<scalar> 
78750
(
4.18282e-07
3.04718e-06
5.8247e-06
8.68968e-06
1.15671e-05
1.43958e-05
1.7127e-05
1.97218e-05
2.21506e-05
2.43914e-05
2.64289e-05
2.82533e-05
2.98589e-05
3.12312e-05
3.23681e-05
3.32696e-05
3.39358e-05
3.43663e-05
3.45596e-05
3.45133e-05
3.42247e-05
3.36846e-05
3.28783e-05
3.17961e-05
3.04248e-05
2.87524e-05
2.67715e-05
2.44731e-05
2.18667e-05
1.89689e-05
1.57868e-05
1.23302e-05
8.69566e-06
5.11964e-06
1.85312e-06
1.61035e-06
1.313e-05
2.38159e-05
3.36135e-05
4.25099e-05
5.04906e-05
5.75404e-05
6.36663e-05
6.88975e-05
7.32767e-05
7.68542e-05
7.9681e-05
8.18038e-05
8.33008e-05
8.42402e-05
8.4671e-05
8.46384e-05
8.41843e-05
8.33466e-05
8.21578e-05
8.06438e-05
7.88156e-05
7.66702e-05
7.4196e-05
7.13633e-05
6.81311e-05
6.44722e-05
6.03212e-05
5.55346e-05
4.99446e-05
4.33065e-05
3.53782e-05
2.64428e-05
1.75318e-05
9.78541e-06
2.8344e-06
2.06146e-05
3.70851e-05
5.17766e-05
6.43298e-05
7.47427e-05
8.32204e-05
9.00056e-05
9.5311e-05
9.93134e-05
0.000102161
0.000103986
0.000104915
0.000105054
0.000104497
0.000103336
0.000101659
9.9556e-05
9.71183e-05
9.44336e-05
9.15866e-05
8.86548e-05
8.56852e-05
8.26759e-05
7.95875e-05
7.63436e-05
7.28285e-05
6.88874e-05
6.43123e-05
5.8816e-05
5.20215e-05
4.36952e-05
3.44351e-05
2.50315e-05
1.66856e-05
4.51974e-06
2.81906e-05
4.97809e-05
6.83019e-05
8.31442e-05
9.45699e-05
0.000103245
0.000109755
0.000114499
0.000117753
0.000119706
0.0001205
0.000120268
0.000119126
0.00011718
0.000114541
0.000111323
0.000107654
0.000103673
9.95328e-05
9.53926e-05
9.14051e-05
8.76833e-05
8.42669e-05
8.11068e-05
7.80689e-05
7.49489e-05
7.14916e-05
6.73939e-05
6.22889e-05
5.57875e-05
4.78131e-05
3.91819e-05
3.02467e-05
2.18228e-05
6.43864e-06
3.48763e-05
6.03849e-05
8.14939e-05
9.75262e-05
0.000109194
0.000117639
0.00012373
0.00012796
0.000130577
0.000131758
0.000131667
0.000130418
0.000128101
0.000124814
0.000120675
0.000115831
0.000110459
0.000104765
9.89885e-05
9.34032e-05
8.82907e-05
8.38653e-05
8.02058e-05
7.72506e-05
7.48106e-05
7.25855e-05
7.01913e-05
6.71868e-05
6.3094e-05
5.74966e-05
5.04214e-05
4.2602e-05
3.40785e-05
2.53928e-05
8.37296e-06
4.09975e-05
6.99034e-05
9.32488e-05
0.000110356
0.000122374
0.000130865
0.000136897
0.000140944
0.000143221
0.000143935
0.000143215
0.000141127
0.000137743
0.000133167
0.000127549
0.000121088
0.00011403
0.000106659
9.93007e-05
9.23323e-05
8.61353e-05
8.09536e-05
7.68419e-05
7.37264e-05
7.1423e-05
6.96298e-05
6.79303e-05
6.58145e-05
6.27171e-05
5.81537e-05
5.21179e-05
4.51097e-05
3.69469e-05
2.80571e-05
1.0195e-05
4.62682e-05
7.79192e-05
0.000103039
0.000121008
0.000133357
0.000141928
0.000147881
0.00015171
0.000153676
0.000153955
0.000152616
0.0001497
0.000145275
0.000139468
0.000132475
0.000124554
0.000116015
0.000107217
9.85766e-05
9.05846e-05
8.36957e-05
7.80915e-05
7.37525e-05
7.05767e-05
6.83898e-05
6.69182e-05
6.57653e-05
6.44056e-05
6.22172e-05
5.86347e-05
5.35525e-05
4.7233e-05
3.93729e-05
3.04631e-05
1.18135e-05
5.09913e-05
8.51924e-05
0.000112099
0.000131085
0.000143951
0.00015278
0.000158816
0.000162615
0.000164451
0.000164447
0.00016264
0.000159058
0.000153781
0.000146969
0.000138859
0.000129759
0.000120028
0.000110076
0.000100384
9.15191e-05
8.39573e-05
7.77982e-05
7.29783e-05
6.93988e-05
6.69256e-05
6.53514e-05
6.4348e-05
6.34254e-05
6.19334e-05
5.9204e-05
5.49632e-05
4.92686e-05
4.17485e-05
3.2996e-05
1.33055e-05
5.52437e-05
9.17001e-05
0.000120174
0.000140053
0.000153374
0.000162429
0.000168527
0.000172267
0.000173915
0.000173568
0.000171248
0.000166983
0.000160872
0.000153106
0.000143969
0.000133816
0.000123059
0.000112168
0.000101707
9.23417e-05
8.4496e-05
7.81348e-05
7.31222e-05
6.93322e-05
6.66475e-05
6.49206e-05
6.39107e-05
6.32074e-05
6.2185e-05
6.01085e-05
5.65493e-05
5.13926e-05
4.42297e-05
3.57768e-05
1.47751e-05
5.94338e-05
9.81272e-05
0.0001282
0.000149035
0.000162873
0.000172203
0.000178427
0.000182168
0.000183687
0.000183065
0.000180313
0.00017546
0.000168619
0.000160012
0.000149961
0.00013886
0.000127165
0.000115393
0.000104172
9.42572e-05
8.60537e-05
7.94378e-05
7.42122e-05
7.02117e-05
6.73104e-05
6.53901e-05
6.42769e-05
6.36437e-05
6.29194e-05
6.13398e-05
5.8344e-05
5.36704e-05
4.6871e-05
3.87298e-05
1.61978e-05
6.3318e-05
0.000104033
0.00013553
0.0001572
0.000171481
0.000181035
0.000187341
0.000191038
0.000192382
0.000191441
0.000188218
0.000182749
0.000175167
0.000165728
0.000154793
0.000142803
0.000130258
0.000117731
0.000105928
9.5693e-05
8.73667e-05
8.07237e-05
7.54988e-05
7.14817e-05
6.85266e-05
6.65258e-05
6.53511e-05
6.47469e-05
6.42073e-05
6.29763e-05
6.04106e-05
5.61311e-05
4.9641e-05
4.17554e-05
1.77473e-05
6.74484e-05
0.000110241
0.000143163
0.000165648
0.000180358
0.000190135
0.000196528
0.000200191
0.000201375
0.000200134
0.000196465
0.000190407
0.000182115
0.000171873
0.000160078
0.000147208
0.000133806
0.00012049
0.000108035
9.73771e-05
8.885e-05
8.21493e-05
7.69418e-05
7.29633e-05
7.00329e-05
6.80327e-05
6.68534e-05
6.62894e-05
6.58909e-05
6.49271e-05
6.27047e-05
5.87521e-05
5.25093e-05
4.47744e-05
1.92576e-05
7.12473e-05
0.000115887
0.00015007
0.00017327
0.000188358
0.000198331
0.000204795
0.000208414
0.000209426
0.000207877
0.000203756
0.000197114
0.000188128
0.000177112
0.000164498
0.000150802
0.000136607
0.00012258
0.000109566
9.86014e-05
8.99887e-05
8.33423e-05
7.82661e-05
7.44487e-05
7.16698e-05
6.97922e-05
6.87087e-05
6.82379e-05
6.79718e-05
6.72094e-05
6.52395e-05
6.15247e-05
5.5432e-05
4.77244e-05
2.09357e-05
7.53818e-05
0.000121953
0.000157395
0.00018127
0.000196703
0.000206853
0.000213378
0.000216945
0.000217783
0.000215925
0.000211359
0.000204145
0.000194481
0.000182707
0.000169286
0.000154767
0.000139767
0.000124992
0.000111346
9.99583e-05
9.11655e-05
8.45172e-05
7.95545e-05
7.59105e-05
7.33286e-05
7.16414e-05
7.07276e-05
7.04097e-05
7.03007e-05
6.9721e-05
6.79536e-05
6.44141e-05
5.83912e-05
5.05983e-05
2.25573e-05
7.91557e-05
0.00012742
0.00016397
0.000188446
0.000204199
0.000214524
0.000221118
0.000224647
0.000225328
0.000223181
0.000218195
0.000210443
0.000200143
0.000187663
0.000173491
0.000158205
0.000142458
0.000126992
0.000112773
0.000101023
9.21034e-05
8.55033e-05
8.07089e-05
7.73036e-05
7.49886e-05
7.35702e-05
7.29063e-05
7.28052e-05
7.28811e-05
7.24654e-05
7.08461e-05
6.74084e-05
6.13614e-05
5.33731e-05
2.43338e-05
8.32417e-05
0.000133287
0.000170953
0.000195999
0.000212044
0.000222527
0.00022918
0.000232663
0.00023318
0.000230745
0.000225348
0.000217074
0.000206161
0.000192998
0.000178096
0.000162056
0.000145555
0.000129367
0.000114503
0.00010227
9.31175e-05
8.64897e-05
8.18191e-05
7.86391e-05
7.66076e-05
7.54949e-05
7.51309e-05
7.53006e-05
7.55997e-05
7.53551e-05
7.38581e-05
7.04748e-05
6.43356e-05
5.60691e-05
2.60456e-05
8.6984e-05
0.000138592
0.000177241
0.000202806
0.000219136
0.000229789
0.000236518
0.000239977
0.000240359
0.000237667
0.000231896
0.000223147
0.000211675
0.000197888
0.000182316
0.000165579
0.000148374
0.000131513
0.000116047
0.000103359
9.39935e-05
8.73555e-05
8.28308e-05
7.9907e-05
7.82008e-05
7.74456e-05
7.74368e-05
7.79249e-05
7.84758e-05
7.84007e-05
7.69943e-05
7.3611e-05
6.73039e-05
5.86752e-05
2.78883e-05
9.09846e-05
0.000144233
0.000183884
0.000209952
0.000226551
0.000237362
0.000244159
0.000247589
0.000247831
0.000244885
0.000238753
0.00022955
0.000217547
0.000203168
0.000186953
0.000169531
0.000151621
0.000134058
0.000117922
0.000104654
9.49618e-05
8.82275e-05
8.37934e-05
8.11012e-05
7.97231e-05
7.93509e-05
7.97372e-05
8.0587e-05
8.14231e-05
8.15294e-05
8.01999e-05
7.67827e-05
7.02562e-05
6.12084e-05
2.96699e-05
9.46857e-05
0.000149391
0.000189939
0.000216477
0.000233348
0.000244333
0.000251218
0.000254639
0.000254765
0.000251596
0.000245141
0.00023553
0.000223051
0.000208141
0.000191346
0.000173302
0.000154741
0.000136516
0.000119739
0.000105896
9.5867e-05
8.90247e-05
8.46769e-05
8.22243e-05
8.11962e-05
8.12407e-05
8.20628e-05
8.33133e-05
8.44607e-05
8.47514e-05
8.34792e-05
7.99899e-05
7.31874e-05
6.3657e-05
3.15612e-05
9.85911e-05
0.000154818
0.000196287
0.000223295
0.000240434
0.000251588
0.000258552
0.000261954
0.000261959
0.000258567
0.0002518
0.000241804
0.000228882
0.000213476
0.000196132
0.00017749
0.000158284
0.000139374
0.000121893
0.00010736
9.68778e-05
8.98341e-05
8.55083e-05
8.32613e-05
8.25772e-05
8.30551e-05
8.43453e-05
8.60357e-05
8.75291e-05
8.80223e-05
8.68024e-05
8.32141e-05
7.609e-05
6.60278e-05
3.33994e-05
0.00010224
0.00015984
0.000202158
0.000229628
0.000247051
0.000258393
0.000265448
0.000268842
0.000268737
0.000265143
0.000258097
0.000247762
0.000234451
0.000218611
0.000200786
0.000181612
0.000161819
0.000142266
0.0001241
0.000108871
9.78981e-05
9.06144e-05
8.62816e-05
8.42272e-05
8.38918e-05
8.48221e-05
8.66073e-05
8.87639e-05
9.06197e-05
9.13161e-05
9.01359e-05
8.64261e-05
7.89445e-05
6.83067e-05
3.53285e-05
0.000106038
0.000165056
0.000208257
0.000236212
0.000253939
0.000265467
0.000272594
0.000275953
0.000275721
0.000271921
0.000264607
0.000253956
0.000240291
0.000224056
0.000205791
0.000186118
0.000165756
0.000145553
0.000126661
0.000110646
9.90651e-05
9.14386e-05
8.70218e-05
8.51141e-05
8.51109e-05
8.65022e-05
8.88082e-05
9.1466e-05
9.37198e-05
9.46447e-05
9.35082e-05
8.96505e-05
8.17622e-05
7.04956e-05
3.72119e-05
0.000109607
0.000169919
0.00021396
0.000242433
0.00026053
0.000272267
0.000279437
0.000282739
0.000282376
0.000278386
0.000270837
0.000259917
0.000245955
0.000229391
0.000210755
0.000190655
0.000169787
0.000148983
0.000129391
0.000112586
0.000100339
9.23036e-05
8.77455e-05
8.59468e-05
8.62616e-05
8.81189e-05
9.09615e-05
9.41361e-05
9.6793e-05
9.79357e-05
9.68251e-05
9.28144e-05
8.45025e-05
7.25773e-05
3.91664e-05
0.000113267
0.00017489
0.000219792
0.000248837
0.000267329
0.000279276
0.000286482
0.000289669
0.000289154
0.000284976
0.000277211
0.000266053
0.000251832
0.000234982
0.000216022
0.000195537
0.000174199
0.000152813
0.000132514
0.000114875
0.00010185
9.32911e-05
8.84946e-05
8.6736e-05
8.73321e-05
8.96478e-05
9.30407e-05
9.67575e-05
9.98461e-05
0.000101232
0.000100171
9.59664e-05
8.71843e-05
7.45548e-05
4.10786e-05
0.000116722
0.000179538
0.00022524
0.000254856
0.000273675
0.000285841
0.000293155
0.000296288
0.000295646
0.000291311
0.000283369
0.000272021
0.000257597
0.000240525
0.000221309
0.000200511
0.000178773
0.000156866
0.000135902
0.000117448
0.000103581
9.4421e-05
8.93063e-05
8.7523e-05
8.83599e-05
9.11185e-05
9.50643e-05
9.93331e-05
0.00010286
0.000104497
0.000103529
9.90593e-05
8.97758e-05
7.64175e-05
4.30426e-05
0.000120229
0.000184247
0.00023075
0.000260904
0.000280048
0.000292438
0.000299879
0.000303019
0.000302216
0.00029772
0.000289617
0.000278107
0.000263518
0.000246268
0.000226845
0.000205784
0.000183693
0.000161305
0.000139697
0.000120418
0.000105625
9.57619e-05
9.02258e-05
8.83299e-05
8.93467e-05
9.25163e-05
9.70067e-05
0.000101835
0.000105824
0.000107763
0.000106892
0.000102177
9.23144e-05
7.81736e-05
4.4967e-05
0.000123553
0.000188687
0.000235995
0.000266594
0.000286032
0.000298647
0.000306232
0.000309412
0.000308509
0.000303903
0.000295684
0.000284062
0.000269361
0.000251994
0.000232429
0.000211175
0.000188804
0.000166003
0.000143805
0.000123731
0.000107977
9.73443e-05
9.13007e-05
8.92083e-05
9.03396e-05
9.38817e-05
9.89049e-05
0.000104304
0.000108788
0.000111095
0.000110294
0.000105324
9.48136e-05
7.98242e-05
4.69209e-05
0.000126869
0.000193092
0.000241201
0.000272227
0.000291964
0.000304815
0.000312565
0.000315817
0.000314868
0.00031013
0.000301797
0.000290081
0.000275302
0.000257859
0.0002382
0.000216808
0.000194213
0.000171053
0.00014831
0.000127459
0.000110705
9.92239e-05
9.25779e-05
9.01912e-05
9.13551e-05
9.52147e-05
0.000100745
0.000106717
0.000111721
0.000114428
0.000113701
0.000108466
9.72649e-05
8.13732e-05
4.88384e-05
0.000130027
0.000197246
0.000246096
0.000277528
0.000297557
0.000310647
0.000318571
0.000321919
0.000320976
0.000316132
0.000307729
0.000295971
0.000281169
0.000263707
0.000244017
0.000222551
0.000199803
0.000176357
0.000153136
0.000131557
0.000113807
0.000101435
9.41093e-05
9.13354e-05
9.24454e-05
9.65591e-05
0.000102563
0.000109102
0.000114636
0.000117753
0.000117098
0.000111585
9.96612e-05
8.28232e-05
5.07716e-05
0.000133164
0.000201352
0.000250921
0.000282744
0.000303061
0.000316391
0.000324496
0.00032795
0.000327024
0.000322097
0.000313649
0.000301877
0.000287081
0.000269638
0.000249958
0.00022847
0.000205628
0.00018196
0.000158325
0.000136068
0.000117334
0.000104031
9.59479e-05
9.26869e-05
9.36439e-05
9.79324e-05
0.000104361
0.000111443
0.000117504
0.00012104
0.000120461
0.000114664
0.000101997
8.41796e-05
5.26721e-05
0.000136169
0.000205246
0.00025548
0.000287669
0.000308265
0.000321837
0.000330135
0.000333715
0.000332837
0.000327865
0.000319409
0.000307659
0.000292911
0.000275532
0.000255915
0.000234463
0.000211592
0.000187777
0.000163807
0.000140948
0.000121281
0.000107037
9.81409e-05
9.43034e-05
9.50058e-05
9.93786e-05
0.000106165
0.000113756
0.000120339
0.000124278
0.000123774
0.00011769
0.000104266
8.54462e-05
5.45776e-05
0.000139145
0.000209081
0.000259948
0.00029248
0.000313344
0.000327155
0.000335647
0.000339365
0.000338554
0.000333564
0.000325116
0.000313406
0.00029873
0.000281447
0.000261931
0.000240563
0.00021772
0.000193824
0.000169596
0.000146213
0.000125678
0.00011049
0.000100732
9.62308e-05
9.65731e-05
0.000100931
0.000108003
0.000116069
0.000123191
0.000127479
0.000127032
0.000120653
0.000106465
8.66282e-05
5.64544e-05
0.000142017
0.000212751
0.000264188
0.000297031
0.000318151
0.000332197
0.00034089
0.000344761
0.000344051
0.000339108
0.000330667
0.000319015
0.000304443
0.000287293
0.000267923
0.000246688
0.000223932
0.000200028
0.000175626
0.000151816
0.00013051
0.000114403
0.000103756
9.852e-05
9.8401e-05
0.00010264
0.000109915
0.000118405
0.000126041
0.000130643
0.000130233
0.000123551
0.000108592
8.77297e-05
5.83294e-05
0.000144858
0.000216381
0.00026832
0.000301441
0.000322802
0.000337076
0.000345968
0.000349992
0.000349386
0.000344504
0.000336088
0.000324523
0.000310086
0.000293103
0.000273915
0.000252854
0.000230234
0.000206383
0.000181888
0.000157746
0.000135776
0.000118787
0.000107241
0.000101209
0.000100531
0.000104542
0.000111926
0.000120775
0.000128881
0.000133764
0.000133372
0.000126379
0.000110648
8.8755e-05
6.01756e-05
0.000147598
0.000219889
0.000272238
0.000305607
0.000327197
0.000341698
0.00035079
0.000354975
0.000354487
0.000349685
0.000341324
0.000329874
0.000315601
0.000298817
0.000279845
0.000258998
0.000236562
0.000212824
0.000188311
0.000163936
0.00014142
0.000123614
0.000111189
0.000104325
0.000103006
0.000106683
0.000114073
0.000123199
0.000131717
0.000136842
0.000136448
0.000129136
0.000112632
8.97087e-05
6.19967e-05
0.000150244
0.000223249
0.000275995
0.000309604
0.000331416
0.000346135
0.000355423
0.000359769
0.000359401
0.000354689
0.000346402
0.00033509
0.000321005
0.000304447
0.000285721
0.000265122
0.00024291
0.000219336
0.000194871
0.000170353
0.000147399
0.000128853
0.000115589
0.000107879
0.00010585
0.000109093
0.000116382
0.000125696
0.000134556
0.000139878
0.00013946
0.000131821
0.000114547
9.05957e-05
6.37778e-05
0.000152786
0.000226457
0.000279564
0.000313383
0.000335397
0.000350325
0.000359803
0.000364306
0.000364067
0.000359464
0.000351278
0.000340126
0.000326255
0.000309948
0.000291497
0.000271177
0.000249226
0.000225862
0.000201509
0.000176928
0.000153644
0.000134456
0.000120415
0.000111869
0.000109085
0.000111802
0.000118885
0.000128287
0.000137409
0.000142879
0.00014241
0.000134435
0.000116392
9.14203e-05
6.55384e-05
0.000155248
0.000229544
0.000282968
0.000316978
0.000339188
0.000354322
0.000363991
0.000368655
0.000368543
0.000364045
0.000355964
0.000344997
0.000331365
0.000315334
0.000297182
0.000277168
0.00025551
0.000232395
0.000208205
0.000183634
0.000160115
0.000140383
0.000125639
0.000116285
0.000112717
0.000114832
0.000121605
0.000130991
0.000140287
0.000145848
0.0001453
0.000136979
0.000118174
9.2188e-05
6.72646e-05
0.000157616
0.000232476
0.00028618
0.00032036
0.000342752
0.00035808
0.000367932
0.000372755
0.000372778
0.000368403
0.00036045
0.000349673
0.000336292
0.000320566
0.000302736
0.000283053
0.000261718
0.00023889
0.000214913
0.00019042
0.000166758
0.000146589
0.000131225
0.000121109
0.000116747
0.000118197
0.000124561
0.000133827
0.000143206
0.000148798
0.000148137
0.00013946
0.000119895
9.29058e-05
6.89602e-05
0.000159898
0.000235273
0.000289223
0.000323554
0.000346117
0.000361634
0.000371665
0.000376644
0.0003768
0.000372552
0.00036474
0.000354172
0.000341052
0.000325629
0.000308155
0.000288827
0.000267841
0.000245334
0.000221613
0.000197259
0.00017354
0.000153038
0.000137144
0.00012632
0.00012117
0.000121903
0.00012777
0.00013681
0.000146178
0.000151735
0.000150928
0.00014188
0.000121562
9.35809e-05
7.06142e-05
0.000162075
0.000237916
0.000292079
0.000326542
0.000349263
0.000364957
0.000375159
0.000380289
0.00038058
0.000376466
0.000368812
0.000358468
0.000345629
0.000330527
0.000313401
0.000294461
0.000273848
0.00025169
0.000228266
0.000204108
0.000180413
0.000159688
0.000143359
0.000131893
0.000125973
0.000125956
0.000131245
0.00013996
0.00014922
0.000154673
0.000153682
0.000144251
0.000123183
9.42219e-05
7.22355e-05
0.000164169
0.000240429
0.000294771
0.000329346
0.000352212
0.000368074
0.00037844
0.000383716
0.000384138
0.000380161
0.000372674
0.000362566
0.000350018
0.000335252
0.000318492
0.000299933
0.000279727
0.000257943
0.000234852
0.000210942
0.000187348
0.000166504
0.000149837
0.000137802
0.000131144
0.000130353
0.000134992
0.000143285
0.000152341
0.000157624
0.000156411
0.000146581
0.000124767
9.48376e-05
7.3811e-05
0.000166157
0.000242789
0.00029728
0.000331949
0.000354947
0.000370967
0.000381487
0.000386904
0.000387456
0.000383618
0.00037631
0.000366447
0.000354201
0.000339782
0.0003234
0.000305236
0.000285428
0.000264053
0.000241328
0.000217717
0.000194298
0.000173441
0.000156536
0.000144015
0.000136663
0.000135092
0.000139024
0.000146803
0.00015556
0.000160601
0.000159125
0.000148879
0.000126322
9.54372e-05
7.53449e-05
0.000168056
0.000245017
0.000299628
0.000334374
0.000357491
0.000373658
0.000384325
0.000389874
0.000390551
0.000386853
0.000379732
0.00037012
0.000358183
0.000344119
0.000328124
0.000310368
0.000290974
0.000270006
0.000247677
0.000224405
0.00020123
0.000180461
0.000163417
0.000150495
0.000142505
0.00014016
0.00014334
0.000150525
0.000158893
0.000163623
0.000161843
0.000151161
0.000127862
9.60302e-05
7.68323e-05
0.000169856
0.000247102
0.000301801
0.000336606
0.000359829
0.000376132
0.000386935
0.000392609
0.000393406
0.00038985
0.000382921
0.000373568
0.000361945
0.000348241
0.00033264
0.0003153
0.000296332
0.000275788
0.000253868
0.000230974
0.000208103
0.000187517
0.000170433
0.000157202
0.000148641
0.000145545
0.000147941
0.000154459
0.000162351
0.000166701
0.000164573
0.000153436
0.000129393
9.66239e-05
7.82782e-05
0.00017157
0.00024906
0.000303819
0.000338666
0.000361982
0.00037841
0.00038934
0.000395131
0.000396042
0.000392625
0.000385896
0.000376804
0.000365498
0.000352156
0.000336952
0.000320032
0.000301496
0.000281387
0.000259894
0.000237406
0.000214892
0.000194578
0.000177545
0.000164097
0.000155038
0.000151227
0.000152828
0.000158622
0.000165959
0.00016986
0.000167339
0.000155722
0.000130929
9.72266e-05
7.96798e-05
0.00017319
0.000250881
0.000305671
0.00034054
0.000363937
0.000380479
0.000391526
0.000397424
0.000398444
0.000395165
0.00038864
0.000379813
0.000368825
0.000355846
0.000341039
0.000324541
0.000306441
0.000286774
0.000265722
0.000243666
0.000221568
0.000201606
0.000184711
0.000171133
0.000161656
0.000157178
0.000157981
0.000163005
0.000169718
0.000173107
0.000170151
0.000158029
0.000132476
9.78421e-05
8.10442e-05
0.000174731
0.000252583
0.000307376
0.00034225
0.000365715
0.00038236
0.000393514
0.000399511
0.000400632
0.000397489
0.00039117
0.000382609
0.00037194
0.000359322
0.00034491
0.00032883
0.000311166
0.000291944
0.000271341
0.000249734
0.000228081
0.000208556
0.000191888
0.000178275
0.000168464
0.00016338
0.000163405
0.000167628
0.000173655
0.000176468
0.000173029
0.000160372
0.000134047
9.84763e-05
8.23686e-05
0.000176182
0.000254152
0.000308917
0.00034378
0.0003673
0.000384038
0.000395289
0.000401376
0.000402592
0.000399583
0.000393475
0.000385181
0.000374828
0.000362568
0.000348547
0.000332883
0.000315652
0.000296875
0.000276729
0.000255592
0.000234426
0.000215399
0.000199033
0.00018547
0.000175413
0.000169789
0.000169063
0.000172467
0.000177762
0.000179949
0.000175986
0.000162764
0.000135646
9.91305e-05
8.36606e-05
0.000177558
0.000255606
0.000310317
0.00034515
0.000368714
0.000385535
0.000396874
0.000403042
0.000404348
0.00040147
0.000395576
0.000387548
0.000377507
0.0003656
0.000351964
0.00033671
0.000319906
0.000301571
0.000281884
0.000261229
0.000240584
0.000222112
0.000206118
0.000192684
0.000182468
0.000176381
0.000174952
0.000177557
0.000182061
0.000183565
0.000179035
0.000165214
0.00013728
9.98067e-05
8.49171e-05
0.000178847
0.000256929
0.000311554
0.000346341
0.000369937
0.000386832
0.000398252
0.000404495
0.000405885
0.000403138
0.000397462
0.0003897
0.000379969
0.00036841
0.000355152
0.000340299
0.000323915
0.000306019
0.000286791
0.000266631
0.000246539
0.000228667
0.000213098
0.000199869
0.000189578
0.000183113
0.000181041
0.000182866
0.000186552
0.000187327
0.000182187
0.000167731
0.000138954
0.000100504
8.61444e-05
0.000180062
0.000258137
0.000312649
0.000347375
0.000370993
0.000387954
0.000399446
0.000405758
0.000407228
0.000404613
0.000399158
0.000391662
0.000382238
0.000371019
0.00035813
0.000343669
0.000327697
0.000310231
0.000291462
0.000271806
0.000252298
0.000235059
0.000219962
0.000207001
0.000196717
0.000189955
0.000187305
0.000188376
0.000191229
0.000191239
0.00018545
0.000170322
0.000140671
0.000101222
8.73384e-05
0.00018119
0.000259213
0.000313583
0.00034823
0.00037186
0.000388879
0.000400439
0.000406814
0.000408363
0.000405882
0.000400655
0.000393427
0.000384306
0.000373422
0.000360894
0.000346816
0.000331248
0.000314209
0.000295899
0.000276762
0.000257877
0.000241288
0.000226694
0.000214049
0.000203838
0.000196858
0.000193699
0.000194059
0.000196079
0.000195299
0.000188829
0.000172993
0.000142433
0.000101958
8.85041e-05
0.000182244
0.000260174
0.000314374
0.000348928
0.00037256
0.000389631
0.000401252
0.000407688
0.000409315
0.000406971
0.00040198
0.000395022
0.000386201
0.000375644
0.000363468
0.000349763
0.000334589
0.00031797
0.000300122
0.00028152
0.0002633
0.000247366
0.000233293
0.000221001
0.000210921
0.000203796
0.000200197
0.000199892
0.000201089
0.000199501
0.000192322
0.000175744
0.00014424
0.000102713
8.96359e-05
0.000183209
0.000261001
0.000315001
0.000349446
0.000373072
0.000390188
0.000401866
0.000408361
0.000410068
0.000407868
0.000403123
0.000396438
0.000387917
0.000377684
0.000365852
0.000352512
0.000337724
0.000321521
0.000304138
0.000286088
0.000268575
0.000253297
0.000239757
0.000227844
0.000217939
0.000210726
0.000206754
0.000205841
0.000206236
0.000203835
0.000195927
0.000178575
0.000146093
0.000103483
9.07383e-05
0.000184099
0.000261713
0.000315486
0.000349806
0.000373416
0.000390571
0.000402303
0.000408856
0.000410647
0.000408598
0.00040411
0.000397703
0.000389481
0.000379565
0.00036807
0.000355084
0.000340673
0.000324878
0.000307959
0.000290473
0.000273697
0.000259082
0.000246084
0.000234572
0.00022488
0.000217633
0.000213349
0.000211881
0.000211497
0.000208286
0.000199635
0.000181483
0.000147991
0.000104269
9.1805e-05
0.000184898
0.00026229
0.000315806
0.000349986
0.00037357
0.00039076
0.000402544
0.000409155
0.000411036
0.00040915
0.00040493
0.000398809
0.000390888
0.000381288
0.000370124
0.000357486
0.000343443
0.000328051
0.000311594
0.000294682
0.000278665
0.000264718
0.000252271
0.000241177
0.000231728
0.000224493
0.000219948
0.000217981
0.000216853
0.000212841
0.000203438
0.000184462
0.000149928
0.000105068
9.28401e-05
0.000185622
0.00026275
0.000315982
0.000350006
0.000373556
0.000390775
0.000402608
0.000409281
0.000411259
0.000409546
0.00040561
0.00039978
0.00039216
0.000382874
0.000372034
0.000359736
0.000346054
0.000331058
0.000315061
0.000298727
0.000283485
0.00027021
0.000258321
0.000247657
0.000238473
0.000231289
0.000226534
0.000224119
0.000222279
0.000217481
0.000207325
0.000187509
0.000151908
0.000105883
9.38375e-05
0.000186256
0.000263077
0.000315995
0.000349845
0.000373352
0.000390595
0.000402478
0.000409217
0.000411303
0.000409779
0.00040614
0.00040061
0.000393295
0.00038432
0.000373803
0.00036184
0.000348514
0.000333909
0.000318373
0.000302624
0.000288166
0.000275566
0.000264239
0.000254014
0.000245116
0.000238012
0.00023309
0.000230263
0.000227752
0.000222191
0.000211285
0.000190613
0.00015392
0.00010671
9.48017e-05
0.000186813
0.000263287
0.000315864
0.000349525
0.000372978
0.00039024
0.00040217
0.000408982
0.000411192
0.000409877
0.000406546
0.000401318
0.000394307
0.000385643
0.000375444
0.000363813
0.000350839
0.000336624
0.000321549
0.000306394
0.000292726
0.000280799
0.000270033
0.00026025
0.000251648
0.000244649
0.000239597
0.000236413
0.000233254
0.000226953
0.000215305
0.000193771
0.00015597
0.000107553
9.5727e-05
0.000187282
0.000263365
0.000315571
0.000349025
0.000372415
0.000389689
0.000401667
0.00040856
0.000410916
0.000409846
0.000406824
0.000401897
0.000395191
0.000386838
0.000376959
0.000365659
0.000353037
0.000339212
0.000324604
0.000310056
0.000297179
0.000285922
0.000275713
0.000266374
0.000258078
0.000251203
0.000246053
0.000242551
0.000238777
0.000231756
0.000219375
0.000196973
0.000158047
0.000108405
9.66175e-05
0.000187675
0.00026333
0.000315137
0.000348368
0.000371682
0.000388961
0.000400983
0.000407962
0.000410486
0.000409713
0.000406982
0.000402354
0.000395954
0.000387914
0.000378357
0.00036739
0.000355122
0.000341694
0.000327564
0.000313646
0.000301548
0.000290948
0.000281288
0.000272387
0.000264399
0.000257662
0.000252439
0.000248655
0.000244304
0.000236587
0.000223483
0.00020021
0.000160146
0.000109263
9.74693e-05
0.000187982
0.000263166
0.000314546
0.000347536
0.000370764
0.000388041
0.000400102
0.000407165
0.000409861
0.000409393
0.000406977
0.000402668
0.000396588
0.00038887
0.000379639
0.00036901
0.000357103
0.000344083
0.000330453
0.000317201
0.000305861
0.000295899
0.000286773
0.000278303
0.000270622
0.000264031
0.000258755
0.000254718
0.000249822
0.000241437
0.000227622
0.000203476
0.000162263
0.000110131
9.82866e-05
0.000188216
0.000262892
0.000313819
0.000346551
0.000369681
0.000386948
0.000399046
0.000406201
0.000409084
0.000408944
0.000406856
0.000402872
0.000397116
0.000389723
0.000380822
0.000370534
0.000358995
0.000346398
0.000333295
0.000320754
0.000310141
0.00030079
0.000292175
0.000284121
0.000276743
0.000270306
0.000264997
0.000260737
0.000255323
0.000246294
0.00023178
0.000206758
0.000164389
0.000111006
9.90664e-05
0.000188367
0.000262496
0.000312942
0.000345399
0.000368419
0.000385666
0.000397796
0.000405043
0.000408123
0.000408329
0.000406585
0.000402943
0.000397524
0.000390466
0.000381902
0.000371963
0.000360801
0.000348642
0.000336094
0.000324307
0.000314397
0.000305632
0.000297507
0.000289852
0.000282766
0.00027648
0.000271146
0.000266689
0.000260788
0.000251144
0.000235947
0.000210052
0.000166524
0.000111884
9.98127e-05
0.000188448
0.000261996
0.000311935
0.000344099
0.000366997
0.000384218
0.000396377
0.000403719
0.000407009
0.000407579
0.000406195
0.000402904
0.000397831
0.000391114
0.000382892
0.000373306
0.000362528
0.000350819
0.000338847
0.00032784
0.000318617
0.00031042
0.00030277
0.000295502
0.000288704
0.000282576
0.000277235
0.000272597
0.000266228
0.000255989
0.000240122
0.000213363
0.00016868
0.000112766
0.000100523
0.000188451
0.000261379
0.000310786
0.000342641
0.000365405
0.000382591
0.000394773
0.000402214
0.000405725
0.000406677
0.000405667
0.000402743
0.000398028
0.000391663
0.000383791
0.000374567
0.000364182
0.000352934
0.000341554
0.000331343
0.000322794
0.000315152
0.00030796
0.000301063
0.000294536
0.000288551
0.000283195
0.000278414
0.000271616
0.000260814
0.000244298
0.000216683
0.000170857
0.000113651
0.0001012
0.000188385
0.000260661
0.000309512
0.000341043
0.000363663
0.000380805
0.000393008
0.000400552
0.000404295
0.000405644
0.000405019
0.000402471
0.000398124
0.00039212
0.000384608
0.000375753
0.00036577
0.000354995
0.000344224
0.000334814
0.000326927
0.000319826
0.000313079
0.000306542
0.000300282
0.000294449
0.000289122
0.000284173
0.000276957
0.000265614
0.000248466
0.000220005
0.00017304
0.000114537
0.000101843
0.000188245
0.000259833
0.000308106
0.000339297
0.000361761
0.000378853
0.000391074
0.000398727
0.000402715
0.000404474
0.000404246
0.000402084
0.000398116
0.000392485
0.000385345
0.000376872
0.000367305
0.00035702
0.000346878
0.000338264
0.000331024
0.00032445
0.000318135
0.000311947
0.000305951
0.000300283
0.000295022
0.000289881
0.000282249
0.000270382
0.000252616
0.000223319
0.000175221
0.000115422
0.000102454
0.000188038
0.000258909
0.000306583
0.00033742
0.000359717
0.000376751
0.000388991
0.000396763
0.000401011
0.000403188
0.00040336
0.00040159
0.000398008
0.000392761
0.000386005
0.000377931
0.000368798
0.000359028
0.000349549
0.000341713
0.000335099
0.000329032
0.000323135
0.000317286
0.00031155
0.000306053
0.000300872
0.000295539
0.000287498
0.00027512
0.000256749
0.000226623
0.000177395