/*--------------------------------*- C++ -*----------------------------------*\
| =========                 |                                                 |
| \\      /  F ield         | OpenFOAM: The Open Source CFD Toolbox           |
|  \\    /   O peration     | Version:  v1906                                 |
|   \\  /    A nd           | Web:      www.OpenFOAM.com                      |
|    \\/     M anipulation  |                                                 |
\*---------------------------------------------------------------------------*/
FoamFile
{
    version     2.0;
    format      ascii;
    class       volScalarField;
    location    "0.55/oil";
    object      wallHeatFlux;
}
// * * * * * * * * * * * * * * * * * * * * * * * * * * * * * * * * * * * * * //

dimensions      [1 0 -3 0 0 0 0];


internalField   uniform 0;

boundaryField
{
    maxY
    {
        type            calculated;
        value           uniform 0;
    }
    minX
    {
        type            calculated;
        value           uniform 0;
    }
    maxX
    {
        type            calculated;
        value           uniform 0;
    }
    minY
    {
        type            calculated;
        value           uniform 0;
    }
    minZ
    {
        type            calculated;
        value           uniform 0;
    }
    maxZ
    {
        type            calculated;
        value           uniform 0;
    }
    oil_to_sphere
    {
        type            calculated;
        value           nonuniform List<scalar> 
1536
(
518327
477524
468334
544338
551482
528113
504454
493820
446160
451294
553214
452768
481170
453537
576111
566475
495644
442403
243251
477001
463609
539916
499450
568786
581874
580406
580351
571135
467333
501237
460470
449733
456805
581180
566754
561373
548693
571508
568766
571919
572080
565538
500531
472334
489184
465846
494965
504153
590615
506202
539401
495171
495018
494236
446245
422624
524782
507472
438377
396623
380307
398311
381507
254964
260006
464370
490338
446876
532741
486380
583871
545734
556395
575522
569030
460744
407108
498704
566853
431556
398805
379707
381295
383160
359096
386886
373009
488889
448669
397742
374327
234327
239665
255635
260568
466911
491226
428294
455454
524891
492078
583453
490798
479309
534904
576751
570649
507169
522348
450345
427068
458211
398432
389528
381345
374167
379896
366773
371009
373056
426281
374917
236355
461898
520613
500832
532440
479038
509937
545836
494661
542581
500314
542483
498263
546537
495946
430168
492574
514977
394351
382265
497137
429944
372434
436359
531983
416542
378632
536788
552854
409117
537363
532568
532479
371016
514548
362374
528248
388395
508057
400765
578609
575114
562363
547727
538062
354482
500776
368225
472032
465087
455219
435758
425965
395710
513309
411918
424895
517501
579340
572274
554721
570300
376538
491355
368739
470806
471475
487588
494634
541778
434570
514171
575717
529230
462772
504169
404917
525304
511221
528391
463866
399309
421790
427594
427581
428702
459685
378881
481482
435427
444925
410587
486806
470722
412891
448222
471214
400719
436296
496556
475620
441519
433808
434291
553798
429037
550800
597028
567785
520012
545799
394968
394393
481924
409122
409469
397243
451960
442330
276371
345541
470155
410419
499420
491473
445430
484496
398298
488755
591121
527197
544408
411194
551490
557999
482868
437621
431819
462840
365881
432290
345979
273479
305236
309328
287948
489710
442224
481432
452342
449957
496553
481977
462451
473642
406414
486703
427693
535754
520001
477113
444587
492058
506750
493424
534978
495922
461752
521884
374397
509485
412259
426247
438699
435111
405818
442337
450024
498997
482243
447045
422743
410546
519279
374990
567969
555725
356424
478368
357184
485871
482085
480159
461579
502109
498472
515372
431722
489486
464942
461244
533311
502331
459708
483980
436864
500676
448362
442755
417898
524399
474499
451378
511930
440462
488604
504891
433644
391655
484463
448520
467166
458082
458800
469484
464021
455334
499744
512012
530660
468893
527727
448883
497640
488405
468077
547030
452847
531317
500258
464522
545817
483509
487819
537396
518356
531581
489511
443714
547088
504770
479099
551634
474466
513596
522675
477419
368522
508671
410103
480485
422944
442396
527952
481599
374908
497627
442008
460796
432211
403688
444751
429742
402309
497494
384207
483363
429831
528898
483779
354934
519023
479056
429564
498816
409036
469418
439602
425168
425704
433020
446412
431981
417597
434827
433047
478896
445821
436086
447859
412331
377113
454936
408821
398974
432430
363523
397581
458264
408589
426905
419898
427312
416212
433530
356880
333467
385175
381752
434286
413347
391440
396245
454836
432861
464597
482906
437219
466701
448969
415676
397933
376402
367897
410297
340188
345793
403566
339051
350634
344239
402994
434439
494110
476953
441529
453511
504801
483152
470084
501905
432890
518265
469820
509809
447794
525082
469759
436624
498057
499093
444938
494488
521645
468601
492981
388476
518505
384652
519667
572988
581673
589076
600580
542680
541309
565596
572359
526295
376836
571846
549210
368200
371640
489586
553150
561229
384097
508713
553587
558698
549970
507228
422769
385719
435475
407410
383499
486553
444606
396245
440021
438723
348955
398760
401375
337191
397658
345945
413245
338069
425900
389892
402241
410058
454315
428730
409291
366188
441853
419840
377257
477199
449721
415982
467581
437567
432777
423293
350606
398193
432827
287697
344984
295172
340188
294914
295209
300739
304057
338503
411588
339427
348083
345817
336418
414742
337791
346587
352601
358893
400722
375593
396995
333662
503891
436328
406006
524828
457392
410689
512629
425905
456632
449904
436931
512249
449607
491096
472744
449698
452063
413759
429485
515399
490839
404624
498646
503497
435057
465121
430591
509585
521497
441988
490935
440240
456087
527352
383200
578128
578161
387843
415859
518015
575185
581241
476953
544652
584886
573152
570211
540054
548117
569115
385599
405571
493339
376653
527559
371982
373459
413594
551251
562390
542748
401487
553839
411405
518920
503094
375657
538995
366104
432945
366739
314984
406060
463643
404369
414380
403793
412468
416874
437114
371993
433083
395665
386089
402318
411100
331135
397181
400461
345736
402170
398051
336096
350309
428353
416653
350700
386394
489690
436126
405639
375626
441331
434215
420681
360479
319071
432669
458558
463872
472327
394076
420146
387315
427618
432091
369945
416547
365965
376397
303865
301198
283111
285100
336781
334543
272193
277485
348662
464142
483930
481630
483413
486950
479909
484453
498020
481709
446930
480480
471898
445052
507529
493678
478809
489143
506262
515126
511798
431301
454569
448706
479850
457954
462125
417017
503741
525377
456279
479274
458843
512415
493148
482025
474645
508621
482899
480876
510191
473871
486730
556067
522063
476239
523354
467142
510028
516248
469523
483788
523637
547274
448127
526439
492704
466923
543709
522715
485114
526228
524291
459627
439065
542787
518478
454157
533210
550062
523369
517784
511770
395194
481457
420848
454723
437508
464041
374942
514690
528776
379592
497642
487517
454098
447464
413292
518118
515777
463902
379725
518543
451925
464911
492311
403360
493670
429094
433152
453633
383495
528168
493472
504557
430973
445874
407572
491836
490838
439203
451450
428906
431766
434478
460909
432416
460269
381028
435751
420763
407310
430507
421750
364951
388894
431278
393291
454319
442065
418067
411592
464438
487914
445102
436045
445465
429872
428013
430769
363433
331903
439997
358125
424892
430126
391118
387692
431531
378215
476965
441863
434185
427612
429498
388152
462022
422372
484783
536698
456605
486235
408995
479372
408984
425257
509088
551347
426237
411383
491549
522333
466703
506447
384926
288697
554170
469911
501739
374971
286685
395415
508708
553233
542795
400192
504432
537103
494086
543956
445042
530903
491279
455646
501076
535094
482250
495737
523786
494250
517639
496320
518083
418014
454951
577575
425586
557073
450282
527648
477175
508855
447597
471652
558709
470176
555171
447465
463132
545308
408558
552645
578395
572469
522729
536274
545950
536933
544580
447908
452675
539103
416734
496844
479643
476494
522317
509082
530077
443633
503904
537668
529401
560724
490177
539967
545123
436797
505791
512710
504275
452454
507961
447171
493997
356810
436501
475185
451600
393485
454756
392579
381308
456703
460062
391601
482374
534910
524353
554446
486472
526198
567603
441208
576173
441854
480445
470285
435152
538651
387997
415126
512982
390290
456940
504227
453799
407347
334576
318812
492219
441594
294163
291602
325830
488153
380031
465204
372731
460480
392552
467314
383277
451997
530320
509812
546574
412365
401202
482312
498318
477918
529972
432309
564446
444456
454320
548158
430123
479648
548727
389220
555122
435657
437225
389126
502600
449993
487420
517798
451543
344895
410262
334685
491207
430983
299776
330190
294781
477140
460106
536572
503051
524889
535099
472968
532712
542370
539916
521709
462581
500765
515414
502465
441603
472256
440752
488843
572457
574514
595806
496502
470107
579456
577915
385133
524012
531571
433139
572897
582836
407039
524104
517398
439478
584297
577567
578631
407021
527903
533292
439231
585218
521472
434052
558173
501074
407312
556596
553081
543513
526833
576049
574232
579861
594235
378287
536930
594976
418502
513834
545403
551215
501982
467460
564978
490470
422540
549582
553775
556538
516741
583733
408496
525942
591572
410584
490570
547717
532614
539778
534460
555930
563871
524725
487740
483422
491480
481940
532877
410469
503565
496495
516139
513846
515653
509559
466612
413705
396501
436459
456838
435454
437347
447568
466825
405060
400601
494318
578949
575570
549344
386833
374735
511875
443805
566202
502302
385682
389410
438992
408069
402063
395970
402940
334865
280470
481496
487824
480252
493709
488105
503146
428962
589407
555751
459724
481629
397748
337328
281138
346915
395372
477876
400361
410012
484075
477365
460416
465660
499594
481449
548851
423429
402026
509583
514072
517384
425930
408138
461207
443977
448319
407388
393487
526249
465379
508586
515651
539817
529799
517640
400680
538822
540519
530205
567105
568939
523741
437513
477361
488385
486773
468177
464892
479650
456352
419913
478162
460739
460998
466344
468939
473023
479908
481950
493668
477459
508254
404340
479316
506214
473989
406368
482198
484454
507625
507777
482296
484803
473954
420797
471835
482381
511207
496801
467999
437528
458004
463815
512875
537112
425741
481437
528989
530775
528226
515159
521981
553680
421002
503957
527590
518574
525986
518974
521625
440571
450308
519764
502889
512545
494460
438821
463656
517144
534442
417870
467212
490931
492472
500331
467421
510991
502413
443888
458639
475117
434455
433120
394371
388631
456450
418446
421768
422125
318651
324524
416355
473116
425020
426864
427902
417300
409324
359857
422612
412739
372721
488534
469973
351318
424365
465440
355191
408400
401132
353757
487663
504496
395408
461825
400262
393344
407739
479145
469885
516417
488507
413754
475615
538835
419753
474883
487862
489899
478930
498407
489264
502148
503993
417722
455070
487549
477074
485989
505027
596145
372815
552968
588486
402763
545570
545936
519356
443779
524887
412467
578367
400275
506929
508156
578925
539161
560037
536121
363313
548686
475495
438211
466934
424093
333329
349075
462480
428925
433556
416188
482523
379175
417160
331316
459127
419870
273745
274593
348841
274379
349990
344247
296481
494747
330145
405987
483294
485084
461011
465821
417724
399811
402374
400615
477683
469251
397712
504072
488368
465952
524024
486996
500182
486514
412674
475950
535017
425935
491103
490678
489603
505897
456374
496434
518049
456289
413860
546976
564258
556680
598037
584447
521401
576208
405192
511030
442077
532721
569059
500364
567754
530897
506039
511075
567125
478355
419953
510422
443698
435110
439415
411226
502206
426674
413712
341953
463758
420727
486245
408601
341339
346275
297192
485213
487445
503393
457138
485840
472243
480563
480253
490183
499201
524516
409728
449650
501073
469298
474709
484779
492923
509283
512534
492197
473374
479287
537475
524923
550709
380118
494590
526842
520861
523373
527903
407131
520973
547925
425673
523144
532841
446951
507300
518265
514120
513181
438397
512975
511814
508866
499159
375375
432304
426018
326945
416886
473357
364912
469239
418577
411059
458838
484086
)
;
    }
}


// ************************************************************************* //
