/*--------------------------------*- C++ -*----------------------------------*\
| =========                 |                                                 |
| \\      /  F ield         | OpenFOAM: The Open Source CFD Toolbox           |
|  \\    /   O peration     | Version:  v1906                                 |
|   \\  /    A nd           | Web:      www.OpenFOAM.com                      |
|    \\/     M anipulation  |                                                 |
\*---------------------------------------------------------------------------*/
FoamFile
{
    version     2.0;
    format      ascii;
    class       volScalarField;
    location    "96.6/sphere";
    object      T;
}
// * * * * * * * * * * * * * * * * * * * * * * * * * * * * * * * * * * * * * //

dimensions      [0 0 0 1 0 0 0];


internalField   nonuniform List<scalar> 
304
(
450.787
450.812
450.805
450.822
450.784
450.773
450.787
450.814
450.785
450.918
450.919
450.824
450.805
450.911
450.911
450.846
450.805
450.836
450.767
450.813
450.828
450.787
450.813
450.919
450.918
450.852
450.822
450.911
450.911
450.87
450.77
450.836
450.862
450.801
450.788
450.826
450.851
450.789
450.786
450.846
450.87
450.81
450.768
450.801
450.76
450.776
450.788
450.789
450.788
450.819
450.788
450.789
450.819
450.788
450.776
450.786
450.789
450.787
450.816
450.812
450.811
450.825
450.825
450.852
450.85
450.874
450.786
450.825
450.811
450.852
450.824
450.874
450.851
450.787
450.789
450.817
450.787
450.78
450.78
450.809
450.77
450.821
450.771
450.801
450.844
450.869
450.808
450.839
450.807
450.802
450.774
450.87
450.846
450.841
450.81
450.811
450.782
450.772
450.757
450.771
450.766
450.8
450.767
450.8
450.767
450.767
450.757
450.787
450.787
450.787
450.818
450.814
450.825
450.853
450.813
450.829
450.853
450.877
450.788
450.853
450.825
450.829
450.814
450.877
450.853
450.788
450.788
450.818
450.788
450.824
450.81
450.85
450.812
450.852
450.825
450.874
450.785
450.85
450.812
450.852
450.812
450.874
450.825
450.844
450.772
450.809
450.822
450.87
450.801
450.84
450.807
450.811
450.774
450.87
450.822
450.841
450.802
450.768
450.771
450.801
450.768
450.836
450.765
450.794
450.836
450.862
450.793
450.811
450.805
450.794
450.764
450.862
450.836
450.811
450.794
450.8
450.771
450.767
450.787
450.788
450.818
450.79
450.828
450.853
450.877
450.787
450.813
450.826
450.853
450.813
450.877
450.852
450.813
450.785
450.852
450.823
450.817
450.787
450.786
450.853
450.825
450.874
450.788
450.826
450.812
450.851
450.812
450.874
450.826
450.824
450.787
450.85
450.811
450.87
450.802
450.84
450.809
450.847
450.775
450.812
450.822
450.841
450.802
450.845
450.807
450.811
450.774
450.8
450.767
450.768
450.862
450.794
450.811
450.806
450.837
450.765
450.795
450.837
450.811
450.795
450.837
450.808
450.795
450.768
450.773
450.768
450.769
450.779
450.787
450.789
450.818
450.787
450.817
450.787
450.786
450.775
450.791
450.788
450.818
450.788
450.852
450.851
450.874
450.788
450.813
450.812
450.826
450.824
450.874
450.85
450.811
450.785
450.825
450.811
450.817
450.787
450.786
450.813
450.774
450.782
450.87
450.811
450.841
450.807
450.822
450.773
450.802
450.845
450.841
450.811
450.822
450.806
450.802
450.774
450.781
450.772
450.78
450.76
450.801
450.768
450.773
450.769
450.769
450.772
)
;

boundaryField
{
    sphere_to_oil
    {
        type            compressible::turbulentTemperatureCoupledBaffleMixed;
        refValue        nonuniform List<scalar> 
360
(
330.454
330.454
321.443
353.388
359.949
324.358
360.931
360.931
360.931
340.2
340.2
328.312
333.068
320.416
339.778
347.518
343.714
343.714
343.714
322.042
342.668
323.122
326.782
356.103
317.34
356.33
322.882
356.339
356.339
356.339
361.414
354.956
321.343
321.02
328.038
328.143
344.567
344.567
344.567
343.915
344.58
321.053
322.397
330.902
330.902
322.695
330.959
314.758
330.136
356.649
324.294
324.434
332.311
332.892
321.779
322.874
344.06
322.119
322.438
331.039
316.097
357.404
357.404
357.404
314.805
356.031
330.048
322.708
359.492
359.492
359.492
360.377
359.221
319.584
343.556
339.185
321.403
326.1
344.512
344.605
327.501
319.364
327.194
315.995
321.334
323.934
328.213
332.762
320.918
322.256
321.573
331.717
327.886
321.676
331.363
327.852
328.453
328.891
324.76
316.287
316.391
321.638
324.304
327.878
331.619
321.566
320.301
332.96
324.421
328.851
328.509
328.735
324.764
322.041
314.957
314.917
327.095
322.91
328.074
330.39
330.39
353.388
353.388
356.103
356.103
353.812
353.812
353.812
355.465
355.465
355.465
327.466
323.144
327.035
322.531
359.949
359.949
337.381
337.381
361.414
361.414
336.87
336.87
360.84
360.84
360.84
322.229
321.948
348.041
348.041
348.041
347.865
347.865
347.865
347.518
342.668
339.778
347.518
347.752
321.781
347.752
347.752
326.828
327.618
319.49
323.206
323.206
345.746
345.746
345.746
316.059
342.668
323.122
344.975
344.975
315.958
344.975
327.602
319.413
314.838
322.91
323.242
331.572
317.224
331.023
323.162
314.885
316.503
356.33
356.33
354.956
354.956
331.288
331.288
353.417
353.417
353.417
329.885
329.885
316.17
327.343
324.725
331.804
327.607
324.04
331.63
324.462
333.016
328.92
324.27
343.915
332.795
328.965
322.175
345.188
345.188
345.188
323.59
323.59
316.011
322.572
322.416
330.802
344.58
320.978
330.736
322.681
343.915
344.58
323.372
322.093
323.372
316.279
314.861
330.883
317.257
323.045
322.944
323.186
317.094
316.091
357.354
352.422
357.354
357.354
352.422
352.422
356.649
356.031
330.136
354.609
316.339
356.649
354.609
354.609
331.014
321.151
327.661
331.566
321.688
360.377
327.675
328.537
328.276
324.578
344.06
343.556
328.871
328.352
324.721
343.669
347.56
322.874
344.839
316.079
344.06
344.839
344.839
331.222
320.95
344.512
322.502
322.664
322.38
344.887
320.928
344.616
323.245
343.669
323.245
344.887
343.669
344.887
314.707
322.973
326.633
326.792
330.396
353.526
330.396
353.526
353.526
316.146
356.031
354.591
330.048
354.591
316.182
354.591
327.586
327.347
321.089
358.516
337.53
358.516
358.516
337.53
321.615
323.963
327.407
331.517
359.221
360.377
337.03
322.21
359.221
337.03
321.496
343.556
347.988
339.185
347.988
320.766
347.988
333.046
344.605
324.56
329.113
347.318
344.267
347.56
338.788
347.56
347.318
338.788
347.318
319.318
327.103
344.512
323.221
316.048
344.605
323.221
322.368
344.616
344.267
344.616
323.266
344.267
323.266
)
;
        refGradient     uniform 0;
        valueFraction   nonuniform List<scalar> 
360
(
0.000141323
0.00013558
8.68001e-05
0.00031008
0.000318015
0.000182357
0.000319991
0.000274672
0.000427533
0.000136127
0.000132722
0.000178051
0.000271355
7.75866e-05
0.00013879
0.000269794
0.000309178
0.000288884
0.000405371
7.09972e-05
0.000266161
0.000130848
0.000120596
0.000320009
9.29123e-05
0.000328932
0.000185417
0.000324684
0.00042491
0.000284238
0.000324739
0.000327536
8.79518e-05
8.69692e-05
0.000182511
0.000179608
0.000303917
0.000412024
0.000282929
0.00042541
0.000420218
8.97298e-05
0.00017798
0.000129892
0.000129736
0.000183209
0.000274097
7.31285e-05
0.00013085
0.00027746
0.000180734
0.000181908
0.000271152
0.000268517
7.58643e-05
0.000138784
0.000283014
7.2676e-05
0.000180044
0.000268481
7.11375e-05
0.000316055
0.000279002
0.000436665
7.33376e-05
0.000285269
0.000133067
0.000128702
0.000323359
0.000421833
0.000283758
0.000406781
0.000412475
7.87802e-05
0.000275029
0.000139524
7.2633e-05
0.000130244
0.00041162
0.000427597
0.000127744
0.000125334
0.000123105
7.31638e-05
8.8225e-05
0.000178866
0.000179869
0.00027239
8.22242e-05
6.94274e-05
8.73142e-05
0.000271944
0.000179527
8.9192e-05
0.000271495
0.000181577
0.000180503
0.000180783
8.81579e-05
7.06625e-05
7.16537e-05
7.07003e-05
0.000181756
0.000178642
0.000271739
8.00042e-05
6.94925e-05
0.000271543
8.62657e-05
0.000178925
0.000178958
0.000182609
8.92941e-05
7.15031e-05
6.97323e-05
7.10795e-05
0.000123723
0.000123872
0.000128684
0.00013954
0.000131148
0.000270981
0.000426878
0.000285497
0.000430804
0.000276149
0.000424554
0.000316108
0.000276371
0.000415313
0.000311314
0.000126982
0.000120086
0.000122998
6.79004e-05
0.0002816
0.000423978
0.00013118
0.00013178
0.000428468
0.000284883
0.000137514
0.000144933
0.000423194
0.00029072
0.000334993
7.47284e-05
6.95432e-05
0.000293525
0.000406754
0.000322413
0.000302221
0.000420837
0.00032238
0.000332847
0.000306594
0.000143416
0.000427478
0.000276124
7.69848e-05
0.00041548
0.000310916
0.000118655
0.000125008
0.00012367
0.000130464
0.000136378
0.000425346
0.000280068
0.000328742
7.88231e-05
0.000409164
0.000140303
0.000430247
0.000275432
7.69931e-05
0.00032658
0.000119708
0.000120819
7.05883e-05
0.000185021
0.000184947
0.000273472
9.11953e-05
0.000273885
0.000180214
6.98635e-05
6.784e-05
0.000427971
0.000271931
0.000422948
0.000281986
0.000134508
0.000125791
0.00042492
0.000265573
0.000306977
0.000124339
0.000144272
7.25823e-05
0.000181769
0.000181604
0.00027133
0.00017766
0.000178574
0.000270261
9.26347e-05
0.00027119
0.000183879
9.00846e-05
0.000305242
0.000270889
0.000182778
7.28428e-05
0.000415655
0.000269463
0.000315275
0.000131347
0.000122062
7.05066e-05
0.000180362
0.000183395
0.000271916
0.000309155
8.64655e-05
0.000269335
0.000175905
0.000267551
0.000283245
0.000128574
7.22182e-05
0.000142674
7.31118e-05
6.88183e-05
0.000274941
9.17543e-05
0.00018484
0.000182703
0.000180526
9.06009e-05
6.9207e-05
0.000281112
0.000263409
0.000442201
0.000329153
0.000412549
0.000296419
0.000317706
0.000325286
0.000144591
0.000279057
7.51854e-05
0.00042465
0.00041291
0.000313726
0.000273636
8.7191e-05
0.000178051
0.00027049
8.79718e-05
0.000322303
0.000178821
0.000180102
0.000178442
8.74406e-05
0.000319907
0.000299781
0.000182056
0.000177348
8.91241e-05
0.000300371
0.000330628
0.000131126
0.000296803
7.04908e-05
0.000422851
0.000409957
0.00030977
0.000268491
8.82023e-05
0.000310257
0.000178651
0.000178927
0.000179945
0.000311946
8.90288e-05
0.000318717
0.000134109
0.00027479
0.000135229
0.000280022
0.00042673
0.000418929
7.04549e-05
0.000141184
0.000139516
0.00013646
0.000124272
0.00041576
0.000135729
0.000276404
0.000325479
6.94283e-05
0.000419818
0.000419311
0.00013727
0.000298143
7.27581e-05
0.000319631
0.000121697
0.000119555
7.26983e-05
0.000411193
0.000122892
0.000269668
0.000317597
0.000131752
7.18235e-05
0.000178714
0.000178653
0.000269581
0.000308463
0.000267551
0.000129358
6.9631e-05
0.000272032
0.000143672
8.04188e-05
0.000394222
0.000423314
0.000125109
0.0002689
7.4553e-05
0.000338183
0.000271648
0.00032547
8.9037e-05
0.000179485
0.000313794
0.000304217
0.0002862
0.000127925
0.000419241
0.000418339
0.000151856
0.000279634
0.000123035
0.000124923
0.000281524
0.000139361
7.53491e-05
0.000284721
0.000134191
6.95833e-05
0.000414396
0.000419369
0.000275933
0.000133912
0.000271041
0.000138327
)
;
        value           nonuniform List<scalar> 
360
(
450.786
450.788
450.791
450.772
450.773
450.804
450.773
450.777
450.766
450.78
450.78
450.799
450.805
450.789
450.783
450.771
450.753
450.756
450.738
450.779
450.759
450.772
450.757
450.772
450.79
450.771
450.805
450.772
450.763
450.776
450.771
450.769
450.789
450.789
450.797
450.8
450.755
450.739
450.757
450.737
450.738
450.768
450.786
450.786
450.787
450.804
450.811
450.792
450.787
450.776
450.805
450.804
450.805
450.806
450.776
450.768
450.756
450.778
450.786
450.795
450.774
450.772
450.776
450.763
450.793
450.776
450.787
450.774
450.774
450.768
450.777
450.768
450.767
450.791
450.772
450.786
450.787
450.759
450.739
450.738
450.759
450.758
450.76
450.774
450.792
450.804
450.8
450.805
450.785
450.779
450.79
450.808
450.804
450.789
450.808
450.804
450.799
450.795
450.778
450.794
450.793
450.793
450.804
450.804
450.808
450.792
450.786
450.804
450.775
450.794
450.801
450.795
450.778
450.777
450.795
450.794
450.776
450.775
450.775
450.786
450.788
450.777
450.762
450.777
450.763
450.776
450.762
450.771
450.778
450.764
450.773
450.776
450.776
450.776
450.793
450.776
450.766
450.787
450.787
450.766
450.776
450.786
450.786
450.766
450.776
450.77
450.793
450.786
450.765
450.744
450.753
450.764
450.742
450.754
450.754
450.756
450.782
450.743
450.769
450.788
450.744
450.757
450.758
450.757
450.756
450.77
450.765
450.736
450.753
450.745
450.772
450.738
450.764
450.737
450.753
450.772
450.745
450.758
450.756
450.793
450.805
450.804
450.811
450.791
450.811
450.806
450.794
450.793
450.762
450.777
450.762
450.775
450.786
450.787
450.762
450.777
450.77
450.788
450.786
450.793
450.803
450.804
450.808
450.805
450.805
450.808
450.775
450.805
450.794
450.777
450.756
450.805
450.795
450.777
450.739
450.754
450.747
450.77
450.767
450.773
450.786
450.785
450.793
450.747
450.768
450.794
450.787
450.758
450.752
450.77
450.777
450.764
450.772
450.793
450.811
450.79
450.804
450.804
450.805
450.788
450.794
450.776
450.777
450.764
450.771
450.765
450.774
450.77
450.769
450.785
450.776
450.792
450.762
450.762
450.772
450.808
450.792
450.806
450.809
450.791
450.773
450.805
450.795
450.802
450.779
450.756
450.758
450.795
450.8
450.778
450.757
450.755
450.766
450.751
450.773
450.738
450.74
450.748
450.794
450.769
450.748
450.787
450.787
450.787
450.75
450.772
450.749
450.771
450.758
450.766
450.754
450.739
450.74
450.793
450.776
450.777
450.777
450.787
450.764
450.786
450.775
450.772
450.793
450.762
450.762
450.785
450.773
450.792
450.769
450.776
450.776
450.794
450.769
450.789
450.779
450.774
450.789
450.794
450.805
450.805
450.809
450.772
450.778
450.788
450.793
450.776
450.785
450.79
450.747
450.746
450.784
450.77
450.788
450.753
450.805
450.754
450.777
450.796
450.757
450.757
450.767
450.782
450.744
450.744
450.778
450.767
450.759
450.76
450.754
450.766
450.773
450.758
450.771
450.779
450.74
450.74
450.755
450.767
450.759
450.77
)
;
        Tnbr            T;
        thicknessLayers 0();
        kappaLayers     0();
        kappaMethod     solidThermo;
        kappa           none;
        alphaAni        none;
    }
}


// ************************************************************************* //
