/*--------------------------------*- C++ -*----------------------------------*\
| =========                 |                                                 |
| \\      /  F ield         | OpenFOAM: The Open Source CFD Toolbox           |
|  \\    /   O peration     | Version:  v1912                                 |
|   \\  /    A nd           | Website:  www.openfoam.com                      |
|    \\/     M anipulation  |                                                 |
\*---------------------------------------------------------------------------*/
FoamFile
{
    version     2.0;
    format      ascii;
    class       volScalarField;
    location    "265/oil";
    object      wallHeatFlux;
}
// * * * * * * * * * * * * * * * * * * * * * * * * * * * * * * * * * * * * * //

dimensions      [1 0 -3 0 0 0 0];


internalField   uniform 0;

boundaryField
{
    maxY
    {
        type            calculated;
        value           uniform 0;
    }
    minX
    {
        type            calculated;
        value           uniform 0;
    }
    maxX
    {
        type            calculated;
        value           uniform 0;
    }
    minY
    {
        type            calculated;
        value           uniform 0;
    }
    minZ
    {
        type            calculated;
        value           uniform 0;
    }
    maxZ
    {
        type            calculated;
        value           uniform 0;
    }
    oil_to_sphere
    {
        type            calculated;
        value           nonuniform List<scalar> 
360
(
3971.63
3993.99
2857.98
7383.74
7862.46
3311.9
8070.34
7283.97
7838.77
4106.86
4128.84
3305.56
3658.49
2576.52
4025.8
6987.18
7968.67
7384.71
7723.03
2557.17
6426.83
4127.92
3637.46
7624.4
2875.48
7907.95
3303.54
7786.67
7726.83
7308.69
8304.73
8127.24
2867.28
2835.52
3272.7
3286.22
7642.31
7585.58
7382.88
7498.38
7672.75
2835.1
3241.51
4107.55
4117.18
3296.89
3554.6
2554.86
4042.3
7232.11
3331
3310.22
3635.01
3644.82
2542.37
4153.21
7404.44
2558.86
3254.64
3566.88
2557.57
7756.68
7367.34
7687.15
2554.84
6673.66
4045.89
3541.31
8080.37
7678.23
7400.57
7577.88
7558.52
2549.95
5740.13
4001.35
2578.56
3489.17
7582.82
7819.33
3571.04
3513.93
3519.62
2557.33
2845.26
3286.96
3293.2
3651.51
2564.32
2577.85
2853.44
3648.95
3297.05
2849.11
3633.99
3286.25
3285.79
3290.26
2831.94
2599.57
2593.86
2560.39
3320.92
3316.22
3664.05
2560.78
2586.93
3670.92
2842.9
3299.51
3301.01
3291.78
2837.87
2548.62
2629.32
2625.58
3625.42
3611.34
3596.56
4076.18
4083.06
7131.37
7594.85
6854.54
7639.98
7134.89
7659.57
7759.92
7203.11
7524.86
7399.28
3596.68
3579.39
3584.2
2596.88
7089.25
7716.96
4180.57
4190.54
7785.66
7195.76
4088.61
4027.8
7897.32
7246.26
8349.45
2596.9
2590.57
7635.9
7821.01
8345.36
7926.16
7926.7
8267.54
8340.59
7220.02
3995.16
7884.25
7478.37
2571.97
7794.71
7995.71
3498.27
3444.96
3589.56
4092.34
4139.98
7875.57
7248.16
8194.87
2533.57
7373.24
4153.4
7784.68
7437.4
2534.8
8026
3550.22
3548.49
2614.9
3298.85
3311.53
3641.23
2862.49
3600.65
3238.23
2567.36
2591.53
7731.22
7251.52
7792.42
7497.2
4056.26
4059.2
7616.27
6969.06
7491.36
4068.01
4092.53
2589.82
3285.96
3330.55
3661.26
3304.59
3294.34
3671.05
2841.01
3639.2
3274.47
2818.34
7195.1
3663.7
3278.59
2563.12
7549.16
7150.81
7549.67
4241.39
4241.56
2532.99
3258.77
3263.06
3564.41
7752.69
2811.14
3547.87
3251.25
7317.91
7361.73
4215.27
2551.11
4182.62
2548.59
2628.84
3601.14
2855.22
3242.93
3233.59
3248.03
2838.17
2578.13
7376.43
6943.23
7764.41
8140.79
7309.33
6912.28
7881.43
7969.54
4091.46
7484.99
2597.93
7866.41
7778.07
7817.74
3636.83
2859.24
3306.38
3645.94
2871.28
7802.4
3283.06
3275.58
3301.18
2834.15
7901.96
7281.06
3275.9
3276.95
2831.26
7296.49
8256.72
4139.3
7421.03
2559.31
7752.74
7600.51
7796.81
3555.77
2821.02
7681.46
3249.32
3256.78
3245.16
7621.06
2832.2
7501.64
4198.72
6950.18
4219.43
7313.3
7462.41
7591.2
2568.15
3499.91
3435.9
3469.13
4190.11
7646.57
4178.71
7407.04
7626.73
2583.95
7705.46
7838.32
4037.99
7512.58
2588.88
8260.85
3545.56
3525.67
2535.3
7388.71
4185.4
6570.87
7417.52
4181.47
2559.08
3290.92
3291.26
3660.29
7665.79
7106.51
4120.74
2592.9
7159.62
4185.12
2573.55
7217.26
7804.66
4053.63
7534.47
2528.04
8136.71
3673.65
8003.6
2834.13
3295.68
8040.35
7513.32
7380
4107.33
7831.94
7760.48
4139.73
7427.62
3476.7
3559.16
7270.75
4167.26
2542.51
7276.83
4177
2571.75
7493.98
7555.61
7129.91
4196.59
7387.21
4206.38
)
;
    }
}


// ************************************************************************* //
