/*--------------------------------*- C++ -*----------------------------------*\
| =========                 |                                                 |
| \\      /  F ield         | OpenFOAM: The Open Source CFD Toolbox           |
|  \\    /   O peration     | Version:  v1906                                 |
|   \\  /    A nd           | Web:      www.OpenFOAM.com                      |
|    \\/     M anipulation  |                                                 |
\*---------------------------------------------------------------------------*/
FoamFile
{
    version     2.0;
    format      ascii;
    class       volScalarField;
    location    "0.43/oil";
    object      alphat;
}
// * * * * * * * * * * * * * * * * * * * * * * * * * * * * * * * * * * * * * //

dimensions      [1 -1 -1 0 0 0 0];


internalField   nonuniform List<scalar> 
168664
(
0.00313946
0.000334437
0.000344349
9.79083e-05
8.40098e-05
4.28713e-05
2.87015e-05
2.29154e-05
1.48173e-05
1.56355e-05
1.33156e-05
1.53512e-05
1.40679e-05
1.39451e-05
1.24191e-05
1.20858e-05
1.09777e-05
9.9354e-06
8.88407e-06
7.91709e-06
7.30998e-06
7.30437e-06
7.10733e-06
6.52845e-06
5.53046e-06
4.37636e-06
3.11878e-06
2.32371e-06
1.50437e-06
2.94989e-07
0.000333353
0.000388406
8.94133e-05
7.5744e-05
3.34847e-05
2.6092e-05
1.68748e-05
1.46713e-05
1.09139e-05
1.1365e-05
1.08843e-05
1.21232e-05
1.16285e-05
1.17333e-05
1.0843e-05
1.0705e-05
9.83959e-06
9.09892e-06
8.19559e-06
7.53253e-06
7.14344e-06
7.07991e-06
6.82111e-06
6.29119e-06
5.69873e-06
4.93748e-06
4.16284e-06
3.31727e-06
3.35631e-06
1.87775e-06
0.000341891
8.93524e-05
8.08898e-05
5.25565e-05
3.8748e-05
2.87227e-05
2.05634e-05
1.67277e-05
1.31106e-05
1.23068e-05
1.15893e-05
1.18898e-05
1.12347e-05
1.13707e-05
1.05865e-05
1.03802e-05
9.58591e-06
8.91777e-06
8.05809e-06
7.47643e-06
7.29799e-06
7.30154e-06
7.19612e-06
6.80503e-06
6.26797e-06
5.64819e-06
5.06438e-06
4.68904e-06
5.56304e-06
4.37142e-06
0.000100781
7.76327e-05
5.44702e-05
4.0734e-05
2.86888e-05
2.24844e-05
1.79157e-05
1.51774e-05
1.32912e-05
1.22673e-05
1.16531e-05
1.13793e-05
1.1097e-05
1.12177e-05
1.04845e-05
1.00966e-05
9.28066e-06
8.63388e-06
7.87992e-06
7.39954e-06
7.1934e-06
7.23532e-06
7.33934e-06
7.09162e-06
6.51795e-06
5.85674e-06
5.42239e-06
5.73157e-06
6.88496e-06
6.04239e-06
8.55152e-05
3.67175e-05
4.0314e-05
2.88806e-05
2.61096e-05
2.20692e-05
1.87199e-05
1.67571e-05
1.47056e-05
1.36868e-05
1.26001e-05
1.19519e-05
1.15543e-05
1.15162e-05
1.06776e-05
1.00782e-05
9.26215e-06
8.66824e-06
8.20802e-06
8.09325e-06
7.88675e-06
7.90883e-06
7.95532e-06
7.81444e-06
7.37058e-06
6.83404e-06
6.59133e-06
7.1796e-06
8.49391e-06
8.17703e-06
5.19777e-05
3.39789e-05
3.48797e-05
2.60225e-05
2.44016e-05
1.9381e-05
1.77639e-05
1.53396e-05
1.42746e-05
1.32233e-05
1.25597e-05
1.16875e-05
1.11845e-05
1.122e-05
1.04519e-05
9.58701e-06
8.75643e-06
8.09647e-06
7.98302e-06
8.16963e-06
7.95005e-06
7.81955e-06
7.73391e-06
7.65736e-06
7.35281e-06
7.19119e-06
7.2127e-06
8.05544e-06
9.40416e-06
9.45179e-06
3.70676e-05
2.49396e-05
2.57391e-05
2.09157e-05
2.04471e-05
1.7797e-05
1.66022e-05
1.51023e-05
1.40449e-05
1.33484e-05
1.27435e-05
1.20095e-05
1.16201e-05
1.1922e-05
1.10444e-05
9.79672e-06
8.72205e-06
7.95708e-06
7.87092e-06
8.08221e-06
7.87062e-06
7.7946e-06
7.81282e-06
7.88715e-06
7.89226e-06
8.08564e-06
8.4563e-06
9.44711e-06
1.08199e-05
1.13432e-05
3.58139e-05
2.61768e-05
2.61199e-05
2.14083e-05
2.06729e-05
1.72361e-05
1.62096e-05
1.4055e-05
1.31787e-05
1.22187e-05
1.19988e-05
1.16115e-05
1.18577e-05
1.24434e-05
1.16587e-05
1.00809e-05
8.93541e-06
7.94623e-06
7.64047e-06
7.46217e-06
7.15739e-06
7.11587e-06
7.27786e-06
7.61301e-06
8.02904e-06
8.6562e-06
9.33442e-06
1.04072e-05
1.17126e-05
1.25094e-05
2.77072e-05
2.17524e-05
2.12801e-05
1.86604e-05
1.78935e-05
1.56945e-05
1.46461e-05
1.30104e-05
1.20886e-05
1.13438e-05
1.14212e-05
1.18364e-05
1.25759e-05
1.31985e-05
1.23965e-05
1.08219e-05
9.42563e-06
8.14739e-06
7.50787e-06
7.06206e-06
6.7256e-06
6.89408e-06
7.30623e-06
7.97091e-06
8.76834e-06
9.6493e-06
1.05965e-05
1.16528e-05
1.27882e-05
1.38604e-05
2.91383e-05
2.30726e-05
2.24701e-05
1.97856e-05
1.85607e-05
1.58387e-05
1.44403e-05
1.23229e-05
1.11942e-05
1.02613e-05
1.0661e-05
1.14647e-05
1.23116e-05
1.24122e-05
1.18574e-05
1.0743e-05
9.27766e-06
7.91892e-06
7.10201e-06
6.47653e-06
6.16423e-06
6.50579e-06
7.14237e-06
7.9967e-06
8.89643e-06
1.00075e-05
1.12068e-05
1.22174e-05
1.32616e-05
1.44855e-05
2.55148e-05
2.08701e-05
2.00715e-05
1.82331e-05
1.69913e-05
1.50229e-05
1.37114e-05
1.18414e-05
1.07018e-05
1.00655e-05
1.06432e-05
1.14675e-05
1.16087e-05
1.07974e-05
1.00858e-05
9.42396e-06
8.34262e-06
7.39543e-06
6.72563e-06
6.28109e-06
6.22957e-06
6.87831e-06
7.75427e-06
8.7759e-06
9.73478e-06
1.09771e-05
1.22532e-05
1.30813e-05
1.40128e-05
1.53605e-05
2.66884e-05
2.18188e-05
2.08313e-05
1.89995e-05
1.78586e-05
1.60954e-05
1.48017e-05
1.25846e-05
1.09913e-05
9.81845e-06
9.8445e-06
1.0026e-05
9.24423e-06
7.83071e-06
7.13499e-06
6.66396e-06
5.89643e-06
5.7914e-06
5.75181e-06
5.70675e-06
6.13122e-06
7.18417e-06
8.33426e-06
9.64534e-06
1.07338e-05
1.19406e-05
1.30133e-05
1.3627e-05
1.44699e-05
1.59118e-05
2.45112e-05
2.06862e-05
1.99248e-05
1.88138e-05
1.7869e-05
1.65262e-05
1.53343e-05
1.32028e-05
1.14338e-05
9.52249e-06
8.71032e-06
8.01017e-06
6.68613e-06
5.74125e-06
5.13375e-06
4.74865e-06
4.17525e-06
3.95391e-06
4.52414e-06
4.9235e-06
5.89007e-06
7.7417e-06
9.22006e-06
1.05849e-05
1.16913e-05
1.28323e-05
1.37342e-05
1.4343e-05
1.52728e-05
1.70731e-05
2.39074e-05
2.02289e-05
1.9609e-05
1.87406e-05
1.78388e-05
1.64853e-05
1.53268e-05
1.35766e-05
1.20599e-05
9.32675e-06
7.07931e-06
4.94497e-06
3.49884e-06
2.82853e-06
2.61438e-06
2.56044e-06
1.9306e-06
1.66377e-06
2.36994e-06
3.84382e-06
5.63475e-06
8.12851e-06
9.88533e-06
1.12799e-05
1.22428e-05
1.3333e-05
1.42577e-05
1.49713e-05
1.60061e-05
1.82043e-05
2.25453e-05
1.92382e-05
1.85824e-05
1.7828e-05
1.70076e-05
1.58533e-05
1.47572e-05
1.32953e-05
1.20114e-05
9.3664e-06
6.69115e-06
4.32019e-06
2.75652e-06
2.09945e-06
2.19636e-06
1.87406e-06
1.38223e-06
1.62735e-06
2.5236e-06
4.20116e-06
6.11724e-06
8.65864e-06
1.05843e-05
1.21001e-05
1.30758e-05
1.4124e-05
1.50559e-05
1.58018e-05
1.67868e-05
1.92859e-05
2.22663e-05
1.89639e-05
1.82262e-05
1.74696e-05
1.6702e-05
1.5597e-05
1.44849e-05
1.28378e-05
1.12066e-05
8.71085e-06
6.4121e-06
4.29418e-06
2.79918e-06
1.95117e-06
2.48093e-06
1.97033e-06
1.46707e-06
2.21095e-06
3.18537e-06
4.85356e-06
6.56382e-06
8.96724e-06
1.06438e-05
1.21409e-05
1.30867e-05
1.4181e-05
1.51123e-05
1.58982e-05
1.67368e-05
1.91103e-05
2.05804e-05
1.77823e-05
1.70118e-05
1.63393e-05
1.56039e-05
1.45681e-05
1.357e-05
1.21584e-05
1.03904e-05
7.78745e-06
5.20895e-06
3.30742e-06
2.24479e-06
2.09713e-06
2.88729e-06
2.57388e-06
2.15546e-06
3.11421e-06
4.40514e-06
5.99628e-06
7.44188e-06
9.48305e-06
1.08925e-05
1.21625e-05
1.31332e-05
1.42985e-05
1.52854e-05
1.5993e-05
1.66976e-05
1.8932e-05
1.95287e-05
1.70766e-05
1.62815e-05
1.55807e-05
1.47944e-05
1.36451e-05
1.25782e-05
1.11246e-05
9.59816e-06
7.31746e-06
5.49067e-06
4.50308e-06
3.542e-06
3.49956e-06
4.05881e-06
3.7245e-06
3.64008e-06
4.69935e-06
6.18812e-06
7.43672e-06
7.86368e-06
9.46597e-06
1.05606e-05
1.1938e-05
1.30218e-05
1.42198e-05
1.5254e-05
1.61356e-05
1.70046e-05
1.93049e-05
1.83254e-05
1.63128e-05
1.54573e-05
1.46656e-05
1.37648e-05
1.25906e-05
1.14723e-05
1.00556e-05
8.73548e-06
7.41854e-06
6.61208e-06
6.23406e-06
5.61792e-06
5.34819e-06
5.66251e-06
5.21556e-06
5.27909e-06
6.23154e-06
7.18515e-06
7.6854e-06
7.7418e-06
8.4926e-06
9.36869e-06
1.07586e-05
1.18098e-05
1.2825e-05
1.38627e-05
1.51408e-05
1.64255e-05
1.88512e-05
1.73299e-05
1.53968e-05
1.44251e-05
1.33972e-05
1.23396e-05
1.11212e-05
1.01508e-05
9.00034e-06
8.02519e-06
7.16667e-06
7.00762e-06
7.07719e-06
7.15569e-06
7.47757e-06
8.00323e-06
7.76513e-06
7.86978e-06
8.20503e-06
7.95174e-06
7.62971e-06
7.21155e-06
7.62618e-06
8.26713e-06
9.47295e-06
1.0426e-05
1.14562e-05
1.25252e-05
1.38943e-05
1.52183e-05
1.74279e-05
1.58997e-05
1.42228e-05
1.33803e-05
1.22629e-05
1.11746e-05
1.01587e-05
9.32335e-06
8.37547e-06
7.5449e-06
7.00582e-06
7.01569e-06
7.13888e-06
7.4866e-06
8.38496e-06
9.56698e-06
1.00098e-05
1.01071e-05
9.44759e-06
8.53649e-06
7.70899e-06
6.99865e-06
7.16552e-06
7.71273e-06
8.79376e-06
9.6277e-06
1.06565e-05
1.16437e-05
1.28737e-05
1.40258e-05
1.55661e-05
1.48661e-05
1.35589e-05
1.28279e-05
1.16686e-05
1.06258e-05
9.7591e-06
9.07496e-06
8.3454e-06
7.72823e-06
7.36902e-06
7.10223e-06
6.76826e-06
7.07159e-06
8.1977e-06
9.60203e-06
1.06459e-05
1.06944e-05
9.34818e-06
8.18778e-06
7.67587e-06
7.24184e-06
7.43467e-06
7.76499e-06
8.53099e-06
9.08193e-06
9.92117e-06
1.07067e-05
1.18855e-05
1.30568e-05
1.42257e-05
1.33898e-05
1.24625e-05
1.15422e-05
1.04306e-05
9.69611e-06
9.048e-06
8.595e-06
8.17262e-06
7.85384e-06
7.75197e-06
7.35709e-06
6.68416e-06
6.65822e-06
7.67451e-06
8.9317e-06
9.95158e-06
9.90775e-06
8.69873e-06
7.9347e-06
7.9251e-06
7.74548e-06
7.7485e-06
7.75611e-06
8.13651e-06
8.35865e-06
8.9523e-06
9.55863e-06
1.07012e-05
1.188e-05
1.26179e-05
1.20786e-05
1.13665e-05
1.02271e-05
9.31106e-06
8.87171e-06
8.5286e-06
8.39223e-06
8.30001e-06
8.1963e-06
8.10027e-06
7.53986e-06
6.84269e-06
6.56599e-06
7.16546e-06
8.10371e-06
8.85147e-06
8.91026e-06
8.25702e-06
7.87358e-06
8.12072e-06
8.14517e-06
8.19269e-06
8.04464e-06
8.14067e-06
8.07965e-06
8.31412e-06
8.61948e-06
9.69003e-06
1.08921e-05
1.13786e-05
9.97942e-06
9.7595e-06
8.63447e-06
8.00233e-06
7.79958e-06
7.67654e-06
7.81879e-06
8.0142e-06
8.19154e-06
8.10053e-06
7.4243e-06
6.87273e-06
6.91178e-06
7.24681e-06
7.76207e-06
8.07616e-06
8.4188e-06
8.2413e-06
7.84065e-06
7.77809e-06
7.94394e-06
8.12904e-06
7.97065e-06
7.95567e-06
7.68199e-06
7.57947e-06
7.48813e-06
8.45365e-06
9.66654e-06
9.73772e-06
8.43791e-06
8.503e-06
7.33575e-06
6.93171e-06
7.10369e-06
7.32848e-06
7.58912e-06
7.94954e-06
8.26155e-06
8.31712e-06
7.68555e-06
7.24021e-06
7.47934e-06
7.75486e-06
7.84315e-06
7.77785e-06
8.26955e-06
8.41629e-06
7.91787e-06
7.55899e-06
7.5764e-06
7.87636e-06
7.8688e-06
7.8552e-06
7.48554e-06
7.00502e-06
6.66577e-06
7.44847e-06
8.70086e-06
8.48449e-06
6.36551e-06
6.90321e-06
5.63051e-06
5.44648e-06
5.97707e-06
6.36978e-06
6.79014e-06
7.28052e-06
7.68198e-06
7.95664e-06
7.56188e-06
7.44952e-06
7.81624e-06
7.98191e-06
7.75693e-06
7.43402e-06
7.91296e-06
8.10559e-06
7.84207e-06
7.37315e-06
7.06252e-06
7.04144e-06
6.9611e-06
6.92198e-06
6.55458e-06
6.08941e-06
5.61129e-06
6.10664e-06
7.23374e-06
6.54294e-06
4.61507e-06
5.61794e-06
4.46107e-06
4.86795e-06
5.41147e-06
5.94266e-06
6.52072e-06
7.1033e-06
7.58602e-06
7.92057e-06
7.73272e-06
7.86112e-06
8.21301e-06
8.23584e-06
7.96792e-06
7.57553e-06
7.78895e-06
7.98714e-06
7.96002e-06
7.67905e-06
7.11793e-06
6.83524e-06
6.56573e-06
6.50877e-06
6.25858e-06
5.90035e-06
5.29198e-06
4.94189e-06
5.85357e-06
4.81703e-06
2.21521e-06
3.67591e-06
3.43486e-06
4.17271e-06
4.7819e-06
5.54007e-06
6.23526e-06
6.99252e-06
7.6606e-06
8.22041e-06
8.34603e-06
8.46808e-06
8.6502e-06
8.69704e-06
8.71418e-06
8.35622e-06
8.38248e-06
8.47474e-06
8.42332e-06
7.98864e-06
7.2154e-06
6.75177e-06
6.3497e-06
6.16092e-06
5.73262e-06
5.09383e-06
4.30324e-06
3.36092e-06
3.53012e-06
2.18596e-06
9.99169e-07
2.14602e-06
3.12409e-06
3.90107e-06
4.88033e-06
5.77786e-06
6.64691e-06
7.56998e-06
8.47735e-06
9.0925e-06
9.36416e-06
9.5137e-06
9.51526e-06
9.7394e-06
9.64388e-06
9.18929e-06
9.28289e-06
9.51582e-06
9.46458e-06
8.69621e-06
7.6434e-06
7.0359e-06
6.43446e-06
6.08481e-06
5.2748e-06
4.27621e-06
2.98125e-06
2.03146e-06
1.30655e-06
3.6426e-07
0.000332711
0.000397352
9.13889e-05
7.78085e-05
3.36561e-05
2.66029e-05
1.67815e-05
1.51151e-05
1.03844e-05
1.11794e-05
9.66799e-06
1.13919e-05
1.0638e-05
1.1512e-05
1.06702e-05
1.0717e-05
9.88034e-06
8.86497e-06
8.37314e-06
7.42595e-06
6.98749e-06
6.53057e-06
6.4782e-06
6.04474e-06
5.64507e-06
4.79016e-06
3.97471e-06
3.04509e-06
2.48065e-06
1.46318e-06
0.000394454
8.03512e-05
6.38238e-05
3.01271e-05
1.52039e-05
1.17877e-05
7.87236e-06
6.04833e-06
4.8913e-06
4.76835e-06
4.71285e-06
4.08646e-06
3.13138e-06
3.30196e-06
3.47282e-06
3.5366e-06
3.39258e-06
3.31877e-06
2.9967e-06
2.66958e-06
2.69351e-06
3.21004e-06
3.76537e-06
4.13127e-06
4.08317e-06
3.65845e-06
3.22478e-06
2.77765e-06
3.99022e-06
3.40092e-06
8.91823e-05
6.48624e-05
3.38557e-05
2.99309e-05
1.58978e-05
1.43101e-05
9.57769e-06
7.57612e-06
5.86915e-06
5.91892e-06
6.14148e-06
6.14936e-06
4.47918e-06
3.48581e-06
3.12292e-06
2.93972e-06
2.49984e-06
2.02115e-06
1.906e-06
2.38581e-06
2.85824e-06
4.04116e-06
4.91045e-06
5.02577e-06
5.06193e-06
4.82581e-06
4.0183e-06
3.68514e-06
4.5173e-06
5.62691e-06
7.77856e-05
2.79612e-05
2.80261e-05
1.75007e-05
9.91037e-06
9.45612e-06
5.53667e-06
5.85818e-06
4.97166e-06
5.44256e-06
5.55427e-06
5.92852e-06
4.28584e-06
3.29117e-06
2.79696e-06
2.71778e-06
2.85878e-06
2.14309e-06
2.35218e-06
3.29021e-06
4.19057e-06
4.81285e-06
4.60466e-06
4.46388e-06
4.95492e-06
4.99972e-06
4.37544e-06
4.27284e-06
4.2282e-06
6.96067e-06
3.63163e-05
1.36794e-05
1.35085e-05
1.05258e-05
6.5469e-06
7.21691e-06
4.56401e-06
4.90227e-06
3.93184e-06
3.99001e-06
3.63069e-06
4.01042e-06
2.71274e-06
2.82725e-06
2.73167e-06
2.79365e-06
2.99374e-06
2.19065e-06
2.58195e-06
3.67771e-06
4.22463e-06
3.52606e-06
2.56347e-06
2.56439e-06
3.28967e-06
3.82045e-06
4.11781e-06
4.45616e-06
3.9997e-06
8.62682e-06
3.34734e-05
9.1378e-06
1.21901e-05
9.63481e-06
6.66516e-06
6.50116e-06
3.66943e-06
3.91509e-06
2.5049e-06
2.82956e-06
2.76556e-06
3.16626e-06
2.51712e-06
2.84379e-06
2.90735e-06
3.01951e-06
3.18102e-06
2.64004e-06
3.15436e-06
3.50228e-06
3.2236e-06
2.08235e-06
1.32559e-06
1.45416e-06
1.96108e-06
2.77915e-06
3.67078e-06
4.29973e-06
3.71282e-06
9.5341e-06
2.49407e-05
5.73698e-06
7.5163e-06
5.49943e-06
4.36136e-06
4.41884e-06
2.98027e-06
3.2711e-06
2.32085e-06
2.6531e-06
2.63608e-06
3.14678e-06
2.58819e-06
3.05837e-06
3.3492e-06
3.24725e-06
3.34236e-06
3.18666e-06
3.75369e-06
3.15354e-06
2.52094e-06
1.73776e-06
1.45273e-06
1.31514e-06
1.67723e-06
2.72694e-06
3.68473e-06
4.20776e-06
3.72992e-06
1.09077e-05
2.61021e-05
3.35915e-06
6.38704e-06
6.17496e-06
5.09835e-06
4.98817e-06
3.66629e-06
3.71009e-06
2.71025e-06
2.83388e-06
2.69404e-06
2.8696e-06
2.09566e-06
2.68627e-06
3.23736e-06
2.93504e-06
2.86904e-06
3.12073e-06
3.52379e-06
2.78477e-06
2.06723e-06
1.6397e-06
1.43529e-06
1.368e-06
1.88343e-06
2.93104e-06
3.65536e-06
4.03306e-06
3.64311e-06
1.17543e-05
2.18523e-05
3.27618e-06
4.26952e-06
4.0192e-06
3.83548e-06
3.86877e-06
3.23386e-06
3.38492e-06
2.91572e-06
3.03873e-06
2.79036e-06
2.21935e-06
1.20606e-06
3.27256e-06
4.17122e-06
3.54885e-06
2.619e-06
2.35549e-06
2.99869e-06
2.60926e-06
2.16115e-06
1.84748e-06
1.71259e-06
1.84931e-06
2.38548e-06
3.11649e-06
3.47671e-06
3.60292e-06
3.41315e-06
1.28732e-05
2.29608e-05
2.25146e-06
3.36348e-06
3.65654e-06
3.76833e-06
4.03999e-06
3.56481e-06
3.66841e-06
3.39388e-06
3.2724e-06
2.85804e-06
1.83322e-06
2.3101e-06
4.67833e-06
5.5193e-06
4.73828e-06
3.35626e-06
1.59178e-06
2.06704e-06
2.38406e-06
2.08771e-06
2.03574e-06
1.98068e-06
2.21926e-06
2.4723e-06
2.83076e-06
2.86833e-06
2.77834e-06
2.90801e-06
1.34791e-05
2.09402e-05
2.50908e-06
2.44001e-06
2.29482e-06
2.32954e-06
2.83168e-06
2.97282e-06
3.46468e-06
3.58268e-06
3.43127e-06
3.08618e-06
2.80637e-06
4.27335e-06
6.15276e-06
6.85699e-06
6.49056e-06
5.49238e-06
2.84284e-06
1.96547e-06
2.30106e-06
2.49153e-06
2.66119e-06
2.67752e-06
2.79174e-06
2.83057e-06
2.83913e-06
2.58677e-06
2.35608e-06
2.5793e-06
1.40973e-05
2.18278e-05
2.3733e-06
1.86338e-06
1.80392e-06
1.82625e-06
2.43964e-06
2.84608e-06
3.48133e-06
4.05378e-06
4.05818e-06
3.50682e-06
3.83579e-06
4.92556e-06
5.5323e-06
5.80857e-06
5.76374e-06
5.00243e-06
3.52114e-06
2.34694e-06
2.35637e-06
2.87271e-06
3.15361e-06
3.06516e-06
2.99879e-06
2.91072e-06
2.82461e-06
2.42319e-06
2.31145e-06
2.35662e-06
1.44608e-05
2.04427e-05
2.49415e-06
1.75203e-06
1.55065e-06
1.44306e-06
1.69345e-06
2.03223e-06
2.74249e-06
3.61522e-06
3.72728e-06
3.30716e-06
4.91525e-06
5.3737e-06
5.34767e-06
5.24024e-06
4.96987e-06
4.59326e-06
3.77053e-06
3.25076e-06
2.15442e-06
2.88823e-06
3.15997e-06
2.87979e-06
2.54914e-06
2.35293e-06
2.32134e-06
2.09036e-06
2.24151e-06
2.43126e-06
1.53728e-05
2.01504e-05
2.2548e-06
1.87292e-06
1.83847e-06
1.84913e-06
1.76803e-06
1.92563e-06
2.48424e-06
3.39173e-06
3.58185e-06
3.99614e-06
4.60985e-06
4.3702e-06
4.16109e-06
3.69677e-06
3.36618e-06
2.66121e-06
2.57901e-06
2.49411e-06
2.20573e-06
2.35714e-06
2.90563e-06
2.53749e-06
2.08879e-06
1.87319e-06
1.95374e-06
1.86899e-06
2.09076e-06
2.48242e-06
1.6169e-05
1.918e-05
2.45044e-06
1.98452e-06
1.91326e-06
1.92247e-06
1.97068e-06
2.1495e-06
2.6456e-06
3.37272e-06
4.04012e-06
4.30168e-06
3.88744e-06
3.33444e-06
2.8884e-06
3.19283e-06
2.83409e-06
2.2552e-06
2.42005e-06
2.56365e-06
3.04971e-06
3.37499e-06
3.3496e-06
2.59543e-06
1.91974e-06
1.70567e-06
1.77941e-06
1.73161e-06
1.92957e-06
2.50569e-06
1.68705e-05
1.90125e-05
2.70116e-06
2.18967e-06
2.03951e-06
2.14142e-06
2.2937e-06
2.51895e-06
2.89096e-06
3.63988e-06
4.03235e-06
3.65652e-06
2.68529e-06
2.32697e-06
2.30293e-06
2.98309e-06
3.02228e-06
2.48191e-06
2.71754e-06
3.00851e-06
3.6641e-06
3.69965e-06
3.44069e-06
2.43927e-06
1.61995e-06
1.33121e-06
1.5257e-06
1.54982e-06
1.67673e-06
2.12703e-06
1.67077e-05
1.79575e-05
2.75187e-06
2.42309e-06
2.23729e-06
2.38501e-06
2.50987e-06
2.67381e-06
3.06439e-06
3.66967e-06
3.43889e-06
3.20813e-06
3.04096e-06
2.89074e-06
2.93459e-06
3.59304e-06
3.56639e-06
3.17909e-06
3.30517e-06
3.37146e-06
3.19304e-06
3.00065e-06
3.57282e-06
2.60172e-06
1.67807e-06
1.39311e-06
1.71747e-06
1.89583e-06
1.89073e-06
2.11629e-06
1.66542e-05
1.72513e-05
2.73043e-06
2.67565e-06
2.41405e-06
2.61674e-06
2.70804e-06
2.96689e-06
3.18748e-06
3.60381e-06
3.17585e-06
2.82891e-06
3.07341e-06
3.46396e-06
3.80497e-06
4.37649e-06
4.40608e-06
4.49083e-06
4.20453e-06
3.34416e-06
2.09755e-06
3.23886e-06
4.13889e-06
3.17309e-06
2.57429e-06
2.17903e-06
2.24108e-06
2.46842e-06
2.47089e-06
2.6003e-06
1.6763e-05
1.62478e-05
3.00215e-06
3.09595e-06
3.01982e-06
3.37458e-06
3.41558e-06
3.53073e-06
3.49535e-06
3.74659e-06
3.42498e-06
3.33846e-06
2.56213e-06
3.14095e-06
4.04385e-06
4.94428e-06
4.90253e-06
4.76651e-06
4.00001e-06
2.45271e-06
1.97503e-06
3.47016e-06
4.3356e-06
3.63979e-06
3.21567e-06
2.77936e-06
2.80619e-06
3.02194e-06
3.11041e-06
3.13693e-06
1.6387e-05
1.54873e-05
3.13724e-06
3.02165e-06
3.24144e-06
3.55749e-06
3.17408e-06
3.01311e-06
2.73042e-06
3.01586e-06
2.68567e-06
2.87506e-06
1.59414e-06
2.00964e-06
3.92276e-06
5.3202e-06
5.55737e-06
5.27768e-06
3.40102e-06
1.52264e-06
2.21355e-06
2.83177e-06
3.5287e-06
3.04308e-06
2.94789e-06
2.72946e-06
3.06478e-06
3.17102e-06
3.03303e-06
3.14844e-06
1.54412e-05
1.45817e-05
3.48644e-06
3.17309e-06
3.64819e-06
3.85976e-06
2.96336e-06
2.54972e-06
2.19467e-06
2.4919e-06
2.33703e-06
2.7653e-06
1.85012e-06
9.71598e-07
1.95192e-06
3.72698e-06
4.60006e-06
4.31417e-06
1.81766e-06
1.48382e-06
2.78647e-06
2.67301e-06
2.9558e-06
2.5147e-06
2.7043e-06
2.86979e-06
3.62616e-06
3.61434e-06
3.37359e-06
3.20756e-06
1.39817e-05
1.36658e-05
3.63679e-06
3.74669e-06
4.16313e-06
3.85896e-06
2.71796e-06
2.22514e-06
1.68603e-06
1.97771e-06
2.0089e-06
2.67642e-06
2.63094e-06
2.13929e-06
1.52438e-06
2.36693e-06
2.98671e-06
2.52439e-06
1.45273e-06
2.03443e-06
2.67151e-06
2.16775e-06
2.29569e-06
1.86971e-06
2.19169e-06
2.49767e-06
3.56218e-06
3.90321e-06
3.85555e-06
3.2728e-06
1.29183e-05
1.25245e-05
3.66125e-06
4.35172e-06
4.25157e-06
3.49602e-06
2.34375e-06
1.90782e-06
1.31996e-06
1.74991e-06
1.8778e-06
2.69318e-06
3.07282e-06
2.96991e-06
2.97062e-06
3.10919e-06
3.02296e-06
1.85873e-06
2.28008e-06
2.93288e-06
2.93311e-06
1.95948e-06
1.92493e-06
1.48977e-06
1.82825e-06
2.0189e-06
3.26224e-06
3.97754e-06
4.177e-06
3.47466e-06
1.18139e-05
1.15734e-05
3.65337e-06
4.39937e-06
3.61182e-06
2.82593e-06
1.88437e-06
1.62066e-06
1.01518e-06
1.53181e-06
1.8508e-06
2.81255e-06
2.93009e-06
2.9466e-06
3.66449e-06
3.72028e-06
3.03274e-06
2.01781e-06
2.99584e-06
3.51098e-06
3.65692e-06
2.42409e-06
1.7474e-06
1.18862e-06
1.52782e-06
1.62495e-06
2.80197e-06
3.81322e-06
4.32984e-06
3.55438e-06
1.08964e-05
9.96911e-06
3.74414e-06
4.31306e-06
3.11085e-06
2.35254e-06
1.65718e-06
1.91684e-06
1.55742e-06
1.88062e-06
2.16736e-06
3.06834e-06
2.74073e-06
2.75237e-06
3.79556e-06
3.79235e-06
2.90486e-06
2.47659e-06
3.17235e-06
3.67406e-06
4.44811e-06
3.59222e-06
2.49931e-06
1.53523e-06
1.90554e-06
2.08528e-06
3.17008e-06
3.97302e-06
4.7168e-06
3.85491e-06
9.71967e-06
8.78752e-06
3.7051e-06
4.0351e-06
2.80396e-06
2.32626e-06
2.05314e-06
2.54285e-06
2.48071e-06
2.94296e-06
2.93955e-06
3.20578e-06
2.32445e-06
2.58481e-06
3.56144e-06
3.54692e-06
2.83467e-06
2.5991e-06
2.93605e-06
3.41322e-06
4.51956e-06
4.38691e-06
3.98696e-06
2.99438e-06
3.2191e-06
3.52974e-06
4.29999e-06
4.25265e-06
4.84837e-06
4.19227e-06
8.75213e-06
7.315e-06
3.93563e-06
3.98802e-06
3.06362e-06
3.33331e-06
3.37034e-06
3.80784e-06
3.85869e-06
4.59024e-06
4.58207e-06
4.16446e-06
2.16881e-06
2.26498e-06
3.24447e-06
3.80177e-06
3.30618e-06
3.2133e-06
3.6844e-06
3.97588e-06
4.87584e-06
4.87337e-06
5.37855e-06
5.19297e-06
5.56638e-06
5.61768e-06
5.65294e-06
4.56724e-06
4.70499e-06
4.57292e-06
7.25536e-06
6.13614e-06
4.41548e-06
3.88644e-06
3.62119e-06
3.95171e-06
3.73163e-06
3.95744e-06
3.89054e-06
4.63605e-06
4.80869e-06
4.5311e-06
2.29946e-06
1.90734e-06
2.9276e-06
3.53977e-06
2.99549e-06
2.80797e-06
3.49966e-06
3.6077e-06
3.92637e-06
3.58921e-06
4.363e-06
4.78804e-06
5.71584e-06
5.56158e-06
5.23364e-06
3.9481e-06
3.73984e-06
4.6333e-06
5.90336e-06
4.13565e-06
4.44595e-06
3.36092e-06
3.67933e-06
3.67238e-06
3.48608e-06
3.76644e-06
3.82916e-06
4.49399e-06
4.78716e-06
4.80845e-06
3.67801e-06
3.53626e-06
3.21504e-06
2.94823e-06
2.2569e-06
2.34277e-06
2.88527e-06
2.8525e-06
3.03169e-06
2.67972e-06
3.35631e-06
3.48314e-06
4.2426e-06
4.09767e-06
3.80013e-06
3.12887e-06
2.73267e-06
3.935e-06
3.58265e-06
2.44459e-06
3.37727e-06
3.79873e-06
4.43536e-06
5.07324e-06
5.70905e-06
6.5394e-06
7.45242e-06
8.45748e-06
9.34149e-06
9.44487e-06
9.26414e-06
8.77317e-06
8.74193e-06
8.60224e-06
8.25898e-06
8.36039e-06
8.31026e-06
8.46039e-06
8.04936e-06
7.31939e-06
6.84372e-06
6.24342e-06
6.04595e-06
5.47398e-06
4.73557e-06
3.73453e-06
2.75145e-06
2.24323e-06
1.51094e-06
0.000345163
9.15353e-05
8.06967e-05
5.14736e-05
3.5865e-05
2.82653e-05
1.85136e-05
1.59923e-05
1.00366e-05
1.00765e-05
8.34825e-06
9.0488e-06
8.88726e-06
7.79301e-06
7.7634e-06
7.63179e-06
7.07828e-06
7.62412e-06
6.54739e-06
7.1587e-06
5.50832e-06
6.18274e-06
5.85963e-06
6.74906e-06
6.30021e-06
5.75085e-06
4.72864e-06
3.60646e-06
2.69958e-06
2.19919e-06
8.91693e-05
6.51525e-05
3.48403e-05
3.06156e-05
1.44305e-05
1.24854e-05
8.29069e-06
7.01321e-06
6.23128e-06
5.57437e-06
4.32249e-06
3.09899e-06
2.57644e-06
2.88003e-06
3.35226e-06
2.83764e-06
2.90892e-06
3.01216e-06
2.93197e-06
2.26895e-06
1.40861e-06
1.8973e-06
2.83403e-06
3.34717e-06
3.11535e-06
2.60048e-06
2.39004e-06
2.44204e-06
2.9768e-06
3.1548e-06
7.9333e-05
3.5468e-05
3.03046e-05
2.86271e-05
1.729e-05
1.48629e-05
9.48911e-06
8.01737e-06
7.21092e-06
7.43686e-06
6.46654e-06
5.33747e-06
4.14505e-06
3.76078e-06
3.70146e-06
3.43374e-06
3.80014e-06
3.46191e-06
3.34835e-06
3.04546e-06
2.72442e-06
3.2745e-06
4.72216e-06
5.29787e-06
4.09272e-06
2.97026e-06
3.19151e-06
4.17523e-06
3.80096e-06
4.86519e-06
5.37993e-05
2.89531e-05
2.72144e-05
2.08929e-05
1.29232e-05
1.14157e-05
7.00442e-06
6.23342e-06
5.15781e-06
6.25119e-06
6.73454e-06
6.8216e-06
5.78429e-06
4.85939e-06
4.09597e-06
3.78912e-06
3.70901e-06
3.1553e-06
3.30627e-06
3.00014e-06
2.38164e-06
4.30771e-06
6.37054e-06
6.45105e-06
5.21578e-06
3.66888e-06
3.63782e-06
4.39793e-06
4.09358e-06
6.12574e-06
3.9159e-05
1.43642e-05
1.53994e-05
1.21986e-05
8.75031e-06
8.77996e-06
6.1415e-06
5.65721e-06
4.62318e-06
5.70328e-06
7.19218e-06
7.36682e-06
5.42392e-06
4.37335e-06
3.69318e-06
3.42129e-06
3.09787e-06
2.8425e-06
3.13066e-06
3.24563e-06
4.48706e-06
5.90773e-06
6.35605e-06
6.19994e-06
5.70098e-06
4.4384e-06
4.31421e-06
3.84506e-06
4.24889e-06
7.67442e-06
3.45991e-05
1.19522e-05
1.40631e-05
1.0872e-05
8.24941e-06
7.06041e-06
4.71476e-06
3.89497e-06
2.94852e-06
3.74648e-06
4.96104e-06
4.77544e-06
3.08102e-06
2.59741e-06
2.20322e-06
2.34133e-06
2.42705e-06
2.61153e-06
2.3611e-06
3.24356e-06
3.91455e-06
3.75015e-06
3.06174e-06
3.41942e-06
4.1485e-06
4.34162e-06
4.54013e-06
3.16257e-06
4.18245e-06
8.5578e-06
2.60007e-05
6.96303e-06
8.12377e-06
5.97572e-06
4.98724e-06
4.56943e-06
3.14598e-06
2.93513e-06
2.57576e-06
2.98259e-06
3.72737e-06
3.71272e-06
2.44521e-06
2.38269e-06
2.38005e-06
2.43132e-06
2.33599e-06
2.28307e-06
2.59591e-06
3.17255e-06
2.53051e-06
1.80637e-06
1.04823e-06
1.66321e-06
3.20962e-06
4.20884e-06
4.21274e-06
2.66462e-06
4.17002e-06
9.8279e-06
2.62137e-05
5.18828e-06
6.74454e-06
6.55504e-06
5.86091e-06
5.26756e-06
3.85379e-06
3.52468e-06
2.86907e-06
2.75965e-06
3.14996e-06
3.22744e-06
2.23786e-06
2.55481e-06
2.08223e-06
1.69066e-06
1.3581e-06
1.95328e-06
2.78612e-06
2.78154e-06
1.57516e-06
1.25551e-06
8.57668e-07
1.46815e-06
2.93035e-06
3.73532e-06
3.58687e-06
2.47746e-06
3.97957e-06
1.06628e-05
2.1429e-05
4.03936e-06
3.86395e-06
3.26647e-06
3.52482e-06
3.87112e-06
3.27632e-06
3.15605e-06
2.80231e-06
2.6852e-06
2.85419e-06
2.53471e-06
2.32344e-06
3.12689e-06
2.24123e-06
1.25234e-06
1.26291e-06
1.22262e-06
2.18607e-06
2.41704e-06
1.6351e-06
1.53427e-06
1.37088e-06
1.93997e-06
2.80997e-06
3.17888e-06
3.16947e-06
2.45482e-06
3.66911e-06
1.1864e-05
2.18191e-05
3.58877e-06
3.3856e-06
2.7559e-06
2.86742e-06
3.56498e-06
3.54152e-06
3.41649e-06
2.97692e-06
2.66492e-06
2.51802e-06
2.41039e-06
2.91462e-06
3.55341e-06
3.62252e-06
2.61883e-06
2.65357e-06
2.17037e-06
1.52233e-06
1.70978e-06
1.44762e-06
1.49562e-06
1.67147e-06
2.20684e-06
2.39495e-06
2.42632e-06
2.34105e-06
1.80603e-06
3.1029e-06
1.27104e-05
1.95638e-05
3.08416e-06
2.44947e-06
2.06119e-06
1.70512e-06
1.87619e-06
2.56653e-06
3.19352e-06
3.14131e-06
2.84219e-06
3.33856e-06
4.2381e-06
5.02034e-06
5.81401e-06
6.27836e-06
5.65986e-06
5.23419e-06
4.13745e-06
3.18603e-06
2.48527e-06
2.05883e-06
2.06773e-06
2.23869e-06
2.37073e-06
2.0773e-06
1.95949e-06
1.82375e-06
1.43453e-06
2.61967e-06
1.34547e-05
2.04433e-05
2.77662e-06
1.84669e-06
1.71922e-06
1.34386e-06
1.28098e-06
2.22278e-06
3.09307e-06
3.12195e-06
3.51363e-06
4.70238e-06
4.90771e-06
5.97825e-06
6.7347e-06
7.22653e-06
7.2069e-06
6.22281e-06
4.76424e-06
3.8599e-06
3.41375e-06
2.64602e-06
2.18953e-06
2.04627e-06
1.98558e-06
1.76717e-06
1.77109e-06
1.7165e-06
1.39601e-06
2.05586e-06
1.38299e-05
1.93051e-05
2.25311e-06
1.29575e-06
1.2516e-06
1.03298e-06
8.21508e-07
1.61682e-06
2.80628e-06
2.53418e-06
3.76091e-06
5.24391e-06
5.89171e-06
7.39993e-06
8.04802e-06
8.20605e-06
7.94986e-06
7.33812e-06
6.00555e-06
4.85716e-06
3.98296e-06
3.16214e-06
1.85966e-06
1.66647e-06
1.58023e-06
1.37168e-06
1.38236e-06
1.40857e-06
1.11859e-06
2.0317e-06
1.46866e-05
1.92558e-05
2.16176e-06
1.22176e-06
1.17506e-06
1.24279e-06
1.23764e-06
1.7938e-06
2.85921e-06
2.78827e-06
3.46075e-06
4.59453e-06
6.17942e-06
7.03926e-06
7.84846e-06
7.85117e-06
7.60932e-06
6.91441e-06
5.9186e-06
5.39083e-06
3.49868e-06
2.95541e-06
2.0059e-06
1.33176e-06
1.13027e-06
1.17053e-06
1.12426e-06
9.50163e-07
5.67867e-07
2.0535e-06
1.53138e-05
1.81658e-05
2.52217e-06
1.33514e-06
1.26382e-06
1.28946e-06
1.46396e-06
1.71938e-06
2.09079e-06
2.80176e-06
4.12298e-06
4.98991e-06
5.76583e-06
5.38756e-06
6.22273e-06
7.05901e-06
7.14364e-06
6.21882e-06
5.47584e-06
5.59542e-06
4.7103e-06
4.11582e-06
2.79858e-06
1.77231e-06
1.18498e-06
1.21134e-06
1.03086e-06
7.71818e-07
5.61364e-07
2.09462e-06
1.58896e-05
1.79238e-05
2.78753e-06
1.20892e-06
1.19754e-06
1.3645e-06
1.71038e-06
1.82934e-06
2.17873e-06
3.15825e-06
4.45177e-06
4.84927e-06
5.25321e-06
4.67047e-06
5.64483e-06
6.79678e-06
6.96812e-06
6.12634e-06
5.42717e-06
5.88893e-06
5.08737e-06
4.23753e-06
2.99715e-06
1.72099e-06
1.12847e-06
1.17326e-06
9.91387e-07
8.9405e-07
6.26273e-07
1.84332e-06
1.5767e-05
1.7034e-05
2.91174e-06
1.27664e-06
1.49896e-06
1.51368e-06
1.89662e-06
1.85258e-06
2.10731e-06
2.6914e-06
3.66434e-06
4.10417e-06
5.55617e-06
5.62646e-06
6.57593e-06
7.30404e-06
7.47078e-06
7.1515e-06
6.01958e-06
5.79361e-06
3.85537e-06
3.78184e-06
2.76676e-06
1.66137e-06
1.22741e-06
1.14149e-06
9.41066e-07
1.38393e-06
1.22299e-06
1.84186e-06
1.58011e-05
1.65186e-05
2.91271e-06
1.73573e-06
1.89524e-06
1.58839e-06
1.82996e-06
2.02739e-06
2.23909e-06
2.38272e-06
3.69509e-06
4.47131e-06
5.02193e-06
5.74221e-06
6.77705e-06
7.60471e-06
7.84541e-06
7.27308e-06
5.92982e-06
4.95663e-06
3.69233e-06
3.83643e-06
2.41994e-06
2.15507e-06
1.75779e-06
1.21698e-06
1.16222e-06
2.12844e-06
2.0712e-06
2.47008e-06
1.56652e-05
1.53434e-05
3.09915e-06
2.07398e-06
2.12998e-06
2.18886e-06
2.62693e-06
2.76831e-06
2.83954e-06
2.76112e-06
3.36458e-06
3.92266e-06
4.1718e-06
4.46737e-06
5.71437e-06
7.06734e-06
7.5401e-06
6.41116e-06
5.09372e-06
4.21682e-06
3.73643e-06
3.52819e-06
3.03978e-06
2.62e-06
2.13353e-06
1.72572e-06
1.62385e-06
2.33446e-06
2.21199e-06
3.11601e-06
1.50665e-05
1.43909e-05
3.27075e-06
2.06007e-06
1.96013e-06
2.6582e-06
3.13076e-06
2.71822e-06
2.49782e-06
2.24417e-06
2.41041e-06
2.50824e-06
3.15388e-06
3.27409e-06
4.34512e-06
5.70715e-06
6.78125e-06
5.97303e-06
4.68919e-06
3.61759e-06
2.89947e-06
2.85255e-06
2.74504e-06
2.63178e-06
2.45169e-06
2.57774e-06
2.24482e-06
2.08668e-06
1.80146e-06
3.34497e-06
1.40151e-05
1.3449e-05
3.7328e-06
2.43425e-06
2.21956e-06
3.44778e-06
3.81521e-06
2.71671e-06
2.07025e-06
1.77514e-06
1.84087e-06
1.75081e-06
1.96266e-06
2.00245e-06
2.99996e-06
3.10366e-06
4.14426e-06
3.88739e-06
3.4776e-06
2.51969e-06
2.18011e-06
2.49473e-06
2.29536e-06
2.34396e-06
2.76216e-06
3.61361e-06
3.29817e-06
2.28817e-06
1.64953e-06
3.30177e-06
1.25384e-05
1.24821e-05
3.76058e-06
2.39968e-06
3.16548e-06
4.22142e-06
3.76703e-06
2.46451e-06
1.85108e-06
1.58576e-06
1.59136e-06
2.01591e-06
2.57478e-06
1.63874e-06
2.05895e-06
2.84997e-06
2.95407e-06
2.82104e-06
2.85625e-06
2.45749e-06