/*--------------------------------*- C++ -*----------------------------------*\
| =========                 |                                                 |
| \\      /  F ield         | OpenFOAM: The Open Source CFD Toolbox           |
|  \\    /   O peration     | Version:  v1912                                 |
|   \\  /    A nd           | Website:  www.openfoam.com                      |
|    \\/     M anipulation  |                                                 |
\*---------------------------------------------------------------------------*/
FoamFile
{
    version     2.0;
    format      ascii;
    class       volScalarField;
    location    "100/oil";
    object      wallHeatFlux;
}
// * * * * * * * * * * * * * * * * * * * * * * * * * * * * * * * * * * * * * //

dimensions      [1 0 -3 0 0 0 0];


internalField   uniform 0;

boundaryField
{
    maxY
    {
        type            calculated;
        value           uniform 0;
    }
    minX
    {
        type            calculated;
        value           uniform 0;
    }
    maxX
    {
        type            calculated;
        value           uniform 0;
    }
    minY
    {
        type            calculated;
        value           uniform 0;
    }
    minZ
    {
        type            calculated;
        value           uniform 0;
    }
    maxZ
    {
        type            calculated;
        value           uniform 0;
    }
    oil_to_sphere
    {
        type            calculated;
        value           nonuniform List<scalar> 
1536
(
8630.08
9019.65
8433.42
8323.91
7272.82
7475.64
7379.9
5771.85
5556.89
9348.26
7217.33
9435.48
9572.51
9427.72
8271.53
7212.55
5837.25
5592.71
1865.63
9557.44
9342.59
7537.9
7426.43
7260.71
7616.47
7612.42
7612.12
7283.95
9055.2
8951.66
8421.52
6871.96
6354.45
7646.5
7231.11
7191.5
6925.15
7920.02
7524.44
7900.88
7525.65
7191.27
8855.7
9453.64
8988.72
9387.89
7459.46
7465.43
8165.55
7600.29
7511.81
7513.56
7379.21
7472.13
6577.28
6244.34
7451.19
7427.59
5619.67
4075.78
4423.66
4022.4
4347.14
9542.15
9592.89
9420.85
9031.96
9402.71
8629.55
8957.37
7663.08
7470.4
8412.66
7547.83
7234.57
6342.06
6165.97
6018.78
7222.73
5598.94
4011.67
4355.13
3611.41
3571.58
4597.47
4413.88
3679.74
5807.23
5578.78
4060.75
4381.69
1859.71
1866.54
9581.33
9601.18
9457.14
9127.85
9257.81
9422.5
8583.27
9061.21
7636.12
8586.31
8423.43
7517.04
7546.98
7276.84
6049.16
7159.93
6377.86
6146.1
6330.92
4065.98
4440.02
3645.28
3703.65
3634.35
4569.64
4413.83
4636.72
5603.78
4389.2
1870.76
9417.85
8593.46
8961.31
8638.1
8919.43
7503.28
7531.33
7578.62
7498.73
7509.4
7457.02
7561.24
7611.11
7461.45
6251.16
7377.61
7351.79
4079.01
4409.07
5815.11
5612.5
4355.9
5543.06
8180.24
8174.15
7371.41
7670.55
8397.03
8175.2
7444.92
7555.62
7535.29
6941.54
6565.43
6663.16
8200.38
8076.9
8226.03
8892.78
7836.36
7576.25
7203.05
6940.9
7486.82
7070.03
6591.94
6686.06
8834.4
7971.68
9002.34
7853.77
6813.7
6154.16
8205.05
8313.73
8678.98
8121.27
7826.97
7559.39
6946.79
7547.05
6837.12
6662.2
6732.73
9200.25
8093.5
8405.77
8796.87
8235.94
8700.69
8382.39
6805.3
6943.63
6997.82
7049.03
6765.86
6910.33
7039.55
7243.17
5588.98
5456.59
5332.22
5683.82
5850.28
5787.33
6024.28
6002.62
5482.4
5223.07
5073.78
9190.57
9755.17
9593.55
9259.61
9227.39
9291.25
9234.49
9152.22
9466.09
8996.54
9190.64
9221.5
8236.19
8245.85
9003.68
8571.96
7729.75
6984.69
6875.37
7470.91
6853.39
5505.44
5637.99
5377.62
5706.56
5822.97
5401.15
5196.12
3377.17
3081.69
9471.37
9246.01
9379.56
9205.45
9408.23
9793.49
9442.5
9191.21
8091.44
7596.92
8094.88
8189.04
6876.37
7245.15
5522.99
5252.92
5888.61
6210.19
6019.91
5116.11
3056.16
3331.7
2484.01
2488.46
3346.01
9332.92
9161.38
9116.62
8996.52
9189.81
9258.92
9098.06
9366.22
9891.91
9536.76
9169.71
8707.97
8195.95
8234.65
8509.98
9074.78
8600.33
8208.85
8194.12
6948.06
6997.49
7232.04
7292.98
7043.04
7226.7
5372.01
5237.59
5446.49
5745.47
5634.57
5826.29
5838.84
5823.38
5345.83
5159.81
5706.52
5465.07
7668.8
7373.05
7463.48
6935.47
6800.02
6671.43
6509.83
8854.18
8552.45
8987.47
8765.8
8536.27
8855.16
8908.55
9062
9316.83
8919.8
8986.7
8863.7
9718.2
9338.23
9203.57
8980.99
9298.89
9512.02
9235.33
8696.24
8768.09
8980.3
8521.06
8940
9068.71
9287.48
9244.43
9444.01
9353.57
9279.38
9082.61
9076.27
9015.37
9117.29
8846.48
8886.86
8583.3
8821.22
8459.56
8578.49
9051.42
8167.48
8878.38
8258.62
8349.62
8098.42
7727.95
8823.32
8197.02
8189.68
8488.27
7749.3
7990.37
8224.86
7661.04
7885.2
7506.2
8277.78
8843.06
8224.03
8286.56
8364.69
7823.94
8030.85
7973.64
6963.4
7120.85
6928.1
6602.22
6429.22
6625.16
6264.44
6105.86
7001.46
7124.38
6978.73
6671.29
6481.81
6769.03
6243.47
6110.38
5973.62
6937.44
6094.71
6646.04
6502.37
6676.19
6225.27
6986.82
7176.03
6977.09
7152.07
6164.69
5994.66
6664.27
6503.46
6726.31
6184.2
6058.44
5743.31
5605.95
5726.35
5594.27
5355.34
5365.4
5182.11
5544.62
5260.71
5892.69
5130.07
5217.47
5059.23
4855.37
5126.92
5025.87
4710.35
4602.36
4286.02
5657.54
5509.53
5350.07
5697.97
5230.06
5364.76
4713.85
4562.23
4498.43
4288.9
5068.79
4888.89
5139.1
5033.42
4978.2
5727.39
5589.3
5791.8
5793.66
5368.19
5161.67
5623.3
5437.23
10479.5
10083.6
9726.35
10377.4
9717.57
9822.1
10079.2
9479.18
9586.62
9739.57
9698.14
9181.13
9505.75
9083.09
9034.81
8978.24
8940.01
9126.98
9076.77
9287.62
9480.66
8758.49
9335.76
8864.4
9111.92
8890.45
9370.4
8999.93
9337.72
9159.49
9400.97
9193.66
8786.85
9042.87
8590.75
9243.16
8116.94
8425.63
8260.85
7529.19
7861.05
7856.62
8280.51
7517.06
8160.89
7498.92
7859.13
7569.56
7286.71
7473.73
6973.87
6872.61
6515.58
6691.1
6600.19
6437.87
6165.31
6866.72
6112.84
7202.91
6920.66
6569.3
5235.18
5039.12
4889.02
5177.07
5058.12
5497.95
5233.02
5890.43
5098.74
4688.07
4648.47
4325.07
3860.61
3540.5
3889.1
3554.17
4152.79
4431.42
4140.98
3803.84
3876.21
5459.78
5622.61
5332.65
5678.41
5149.76
4909.36
5180.22
4995.28
5457.56
5203.25
5753.05
5978.97
5103.07
4694.46
4989.74
4600.92
4289.44
4866.64
3339.28
3073.68
3423.78
3083.49
2512.3
2497.25
2502.86
2492.25
3009.65
10235.8
9618.17
9835.26
9749.63
9637.16
10255.7
9872.82
9729.12
9566.01
9212.68
9691.29
9781.27
9975.11
9253.12
9307.34
9492.59
9511.25
8760.06
9211.37
8779.96
9362.24
9089.66
9062.1
8952.52
9175.75
8933.51
9153.82
9405.9
9006.77
8726.48
8604.71
9138.73
9344.4
8763.74
9293.96
8840.8
8556.85
9427.37
9069.69
9031.6
9142.81
8892.23
8869.93
9087.49
9361.34
8924.25
8611.01
8257.6
8224.98
7888.31
7578.27
7923.81
8809.88
8359.44
8291
8005.57
7950.65
7725.09
7848
7864.37
7540.42
7519.24
6948.4
7441.38
6805.43
7135.65
6680.5
6525.07
7589.3
7248.48
6230.62
6895.14
6096.16
6801.94
6413.52
6138.42
6607.58
6736.24
6746.38
6598.17
6569.82
7515.38
6903.01
4690.88
4676.65
4575.22
4344.88
5637.09
5464.64
5350.88
5699.22
5245.52
5379.94
4926.36
5222.62
5169.65
5027.99
4952.83
4191.86
4185.58
4462.93
3844.53
3867.08
3535.1
3890.47
3896.85
3528.51
4400.64
4117.11
4137.49
4442.47
3815.82
5466.14
5215.69
5830.03
5992.82
5109.42
4709.02
5000.33
4565.67
4557.25
4883.6
5394.48
5175.52
5600.36
5499.8
5344.57
5695.12
5804.3
4893.48
5071.63
5164.49
5010
4966.9
2509.82
2506.7
3394.75
3361.37
3084.95
3007.73
3688.33
3361.31
3033.9
8530.15
8953.69
8940.07
8491.74
8895.21
8536.59
8509.13
9347.1
9173.05
9501.55
9187.59
8783.74
9062.62
8916.84
9285.1
9006.64
9140.53
8788.57
8801.72
9351.36
9079.09
8948.13
9003.52
8887.66
8880.45
9049.28
8620.17
8577.32
8811.14
9013.71
8793.05
9125.78
8907.6
9536.36
8853.21
8641.72
8762.22
8826.88
8581.94
8499.69
9067.98
8208.13
7878.39
7888.88
8100.3
7575.42
8768.18
8190.25
8163.94
8402.29
8016.61
8023.55
7829.63
8585.09
8129.58
8218.39
8406.05
7763.28
7828.52
8152.01
8084.82
7578.78
8352.7
8793.2
8313.36
8388.31
8054.13
8033.29
7875.27
7862.22
7546.96
6646.51
6492.13
6702.88
6246.48
6172.96
6026.38
7077.73
6856.41
7120.41
7000.29
6493.22
6670.26
6656.13
6152.22
6040.23
6079.42
6992.48
6978.36
7173.35
6956.1
7177.58
6122.19
6222.24
6632.69
6455.82
6650.52
6133
6040.64
7233.01
6938.02
6936.06
7069.67
7224.91
6192.12
6054.31
6497.89
6681.41
6690.24
5597.55
5761.1
5365.39
5333.16
5151.64
5736.64
5606.16
5758.3
5077.78
4887.41
5155.12
4995.79
4765.64
5080.37
4631.85
4309.1
4917.76
5493.13
5592.47
5322.71
5718.18
6037.9
6410.69
5634.55
5333
5158.56
5263.68
5544.76
4705.25
4970.06
4590.16
4548.42
4844.19
5098.85
4910.57
5113.01
5078.19
4974.22
5781.61
6077.7
5501.1
5227.8
5089.3
5685.1
5823.66
5485.1
5633.57
5367.91
8440.96
8251.71
6158.98
5893.93
9411.39
9134.35
9327.15
9384.55
9322.46
8139.56
8731.79
8448.96
8622.94
7174.82
7541.11
5917.8
3568.98
3478.49
8441.86
8412.47
5789.91
3578.29
3414.28
4071.96
9395.3
8210.18
7435.11
4023.06
8627.37
8372.35
8580.18
7158.2
7564.71
7553.36
5766.92
8485.17
8629.13
7546.08
7557.43
8548.53
7483.56
7547.13
7031.22
7226.23
6017.8
6329.59
6551.45
8257.49
8538.34
7441.94
7859.69
7128.15
7379.57
6020.36
6320.19
6388.9
8199.26
8683.13
7487.65
8028.61
6482.95
6055.23
6429.98
6975.7
7845.26
7782.76
8580.12
8680.92
7535.86
7478
7428.04
7565.25
6358.37
6081.42
6374.57
5831.57
9759.78
9555.26
8558.65
9262.83
8526.11
9446.38
9352.11
7511.52
8283.86
8251.32
8409.54
8234.08
7478.32
6476.74
6333.08
6346.77
6375.96
6343.7
6276.76
4773.83
5890.46
4649.99
4804.63
9594.74
9372.47
9735.56
9426.63
9652.09
9502.19
9610.18
9537.19
9702.83
9487.03
8568.5
9297.43
8582.33
8960.66
8583.02
7474.08
7937.63
8178.51
8842.44
7595.88
8517.89
7474.15
6094
6387.83
6501.12
6148.49
6368.85
6298.17
5847.46
4794.84
4512.52
4447.86
4638.7
5880.91
4747.54
3495.76
3600.73
3406.98
9754.88
9627.71
9499.75
9935.03
9514.06
9679.41
9502.04
9836.16
9642.89
8589.72
9265.69
8458.17
9382.23
9313.32
9109.19
9316.54
9087.1
8497.7
8771.04
7449.64
8171.14
8736.69
8235.28
8684.42
7544.24
6039.95
6410.92
7135.99
7455.49
6249.3
6584.94
6105.27
6350.02
7403.28
5914.74
4778.7
4366.14
4524.83
4407.91
5863.69
4746.04
3492.54
3412.41
3451.54
9567.57
8902.98
8621.24
9418.52
8496.43
7523.2
8421.38
8294.49
8298.38
8262.71
6305.65
6616.2
6298.55
6294.89
6294.86
4761.33
6026.13
4823.83
5945.6
8559.47
8166.13
7803.15
8094.23
8673.23
8229.83
6700.69
7000.49
6756.78
8328.8
8689.04
8312.13
7928.27
8799.03
7660.2
8089.61
8062.06
7755.62
8299.9
7989.5
8726.01
7796.44
7990.17
8024.8
7876.59
7188.05
7170.45
6752.9
6692.05
6454.96
6161
6686.28
6404.69
6608.71
8596.69
8102.39
7882.13
8137.38
8657.49
7685.75
7803.74
7844.89
7296.52
8094.75
6949.63
7348.23
7238.61
6769.09
6766.74
6497.99
6154.61
6610.25
6366.46
6615.95
8162.7
8625.93
7684.68
7751.51
7911.22
7252.36
8059.2
7143.11
6730.03
6346.21
6806.62
6664.35
6902.75
9086.26
9101.86
9041.56
9148.98
7813.73
8694.42
8318.72
7001.26
7020.17
7259.63
7223.38
7152.34
5781.09
6078.04
6024.5
5434.75
5319.78
6121.9
5835.18
5831.56
9152.52
9220.07
9403.54
9044.04
7944.19
8299.99
7721.58
8885.4
8253
7133.8
7119.76
6768.9
5822.33
6247.34
6020.5
5464.54
4183.68
4253.24
3837.87
3872.42
3531.1
3377.6
9151.71
9111.06
9105.63
8991.49
9307.11
8129.97
8511.26
8351.38
6911.96
5335.33
6053.32
3865.67
3527.11
3415.55
2975.25
4293.25
9171.61
9143.25
9383.38
9179.47
9305.19
9277.64
9165.54
9106
9311.18
7685.17
7967.77
9234.63
8236.99
7185.43
7204.84
5834.52
6091.23
5799.94
5658.26
5978.7
5427.98
4311.32
7151.96
5999.41
8781.8
8630.96
8103.56
8168.62
7153.44
6927.88
7048.58
6591.3
6330.51
6742.08
6471.72
6467.51
6285.44
9740.51
9598.29
8367.52
8405.11
8916.47
9114.49
8999.58
9021.87
8459.01
8875.91
8676.81
8977.04
8537.38
8784.15
9225.53
9022.25
9078.44
9028.19
8433.43
8650.76
8761.38
8933.53
9161.52
9327.65
9250.18
9302.37
8864.09
8460.59
8721.01
9326.8
9160.35
9317.29
9226.38
8505.97
9116.5
9254.18
8993.77
8694.13
8830.39
8652.39
8098.57
7935.19
8924.74
8115.38
7856.62
7871.74
7456.78
7520.73
7493.4
7892.79
8743.39
8291.06
7586.13
7552.87
7870.15
7592.42
7913.71
8621.79
8028.55
7530.12
7256.97
7224.24
6673.26
6792.4
6110.99
7223.02
6664.63
6845.56
6171.63
7044.21
7236.47
6739.35
6144.41
7195.31
6488.92
6696.23
5803.3
5795.6
5333.65
5372.36
4963.98
5000.11
5387.68
5012.38
4908.82
4551.62
4477.84
4446.34
4628.26
5779.63
5435.69
4991.46
4853.89
4588.39
4598.4
4425.16
5651.94
5821.4
4986.57
9832.49
9402.13
9654.57
9235.98
9368.73
9807.81
9096.33
10248.2
9418.91
9514.73
9479.1
9846.6
9494.46
9783.54
10239
9871.07
9427.41
9704.82
8835.96
9153.19
9536.6
9311.33
8567.98
9049.45
8768.58
9180.76
9016.3
9140.32
9031.01
9341.76
8798.28
8413.89
8602.51
8958.89
9304.78
9098.05
9058.82
8874.15
7765.82
7960.84
7494.74
8175.88
8607.81
7778.94
7984.51
8094.26
8192
8198.45
8535.23
7823
7011.29
6683.17
6523.21
6899.95
7169.03
6381.65
6478.57
6737.54
6991.43
6691.07
6433.04
6173.01
4609.95
4553.31
4483.39
5322.25
4990
4862.61
4577.93
5763.32
5908.33
4576.88
4509.23
5325.29
4593.86
3413.75
3426.07
3048.21
3689.34
2989.11
3406.53
3745.86
9912.9
9434.01
10072.4
9659.59
9631.85
9297.05
9389.16
9101.45
9755.15
10051.7
9792.29
9441.65
9318.5
9259.27
9513.27
9504.46
9506.89
8840.51
9363.98
8748.12
9286.6
9329.15
9152.07
8344.47
9363.65
8931.11
9123.25
9041.55
8850.36
9043.97
9050.83
8615.82
8796.94
8676.98
8029.59
8577.2
8142.18
7815.34
7689.48
7266.74
7876.25
8726.09
8054.69
8092.12
7039.9
6442.82
6577.02
6918.1
6997.26
6546.03
6781.68
6835.28
6662.48
6428.31
7106.4
7154.47
4995.8
4872.37
4590.85
5839.24
5469.28
4585.94
4509.3
5346.69
4611.55
5766.34
4554.9
3029.3
3394.43
3751.55
9814.54
9150.06
8542.95
9012.3
8564.38
8517.31
8836
9313.96
9140.87
9079.21
8585.16
8771.08
8987.66
8871.51
9182.13
9080.64
9130.8
9035.19
8865.59
8476.68
9040.51
8784.86
8682.7
8202.25
7568.03
7984.75
8966.74
8096.92
7830.19
7493.93
7488.37
7880.49
8738.35
7516.33
7877.12
8713.51
7572.72
6612.21
6240.06
7066.13
7223.02
7042.22
6635.04
6886.53
7147.87
6493.08
7183.55
6502.72
4949.89
5810.36
4563.3
4498
4657.04
5775.07
6111.02
5381.41
4575.18
4646.31
5306.65
5795.97
)
;
    }
}


// ************************************************************************* //
