/*--------------------------------*- C++ -*----------------------------------*\
| =========                 |                                                 |
| \\      /  F ield         | OpenFOAM: The Open Source CFD Toolbox           |
|  \\    /   O peration     | Version:  v1906                                 |
|   \\  /    A nd           | Web:      www.OpenFOAM.com                      |
|    \\/     M anipulation  |                                                 |
\*---------------------------------------------------------------------------*/
FoamFile
{
    version     2.0;
    format      ascii;
    class       volScalarField;
    location    "0.99/sphere";
    object      T;
}
// * * * * * * * * * * * * * * * * * * * * * * * * * * * * * * * * * * * * * //

dimensions      [0 0 0 1 0 0 0];


internalField   nonuniform List<scalar> 
7664
(
469.267
469.618
469.891
470.657
469.711
470.64
470.207
471.403
472.262
470.981
469.872
472.399
473.181
471.999
472.115
472.921
471.724
470.168
471.031
469.895
469.547
472.219
473.109
471.823
470.543
473.144
474.033
472.815
469.923
470.586
472.886
473.687
472.484
472.369
469.888
470.921
471.799
470.382
469.648
471.935
472.77
471.546
471.58
472.461
471.204
469.869
469.7
469.723
469.667
469.852
469.31
470.511
469.812
471.752
470.96
472.55
471.853
470.978
472.65
471.917
469.64
469.329
470.564
469.829
472.041
472.652
471.92
470.708
469.982
470.623
470.266
469.687
469.828
469.824
469.984
469.9
469.522
469.659
469.446
469.555
469.679
469.472
469.813
469.829
469.396
469.865
470.373
471.302
469.398
469.882
471.314
470.444
469.942
469.518
470.299
469.506
471.296
469.593
469.748
470.464
470.89
471.74
471.801
472.547
469.527
469.906
469.811
470.659
470.42
470.242
470.764
469.562
470.377
471.36
469.585
469.669
469.652
471.427
471.261
470.606
470.242
470.599
471.925
472.666
471.813
472.601
469.956
470.621
470.268
472.673
471.98
472.616
471.868
471.489
469.727
471.329
471.084
470.633
471.581
472.41
471.718
472.421
471.639
471.727
471.179
470.401
470.421
470.379
469.848
469.349
471.276
470.194
470.978
471.847
470.173
471.002
471.82
472.663
469.779
471.857
471.061
471.03
470.216
472.677
471.901
470.544
469.899
471.366
469.442
469.624
470.886
469.727
471.784
469.546
471.693
470.402
472.491
469.328
471.876
469.828
471.826
469.667
472.682
470.624
469.772
469.77
471.907
471.798
470.544
472.617
470.551
472.566
469.973
471.892
470.275
472.808
470.772
472.683
470.67
469.923
471.572
470.584
472.39
471.707
472.911
472.027
472.884
473.663
472.014
472.723
472.192
472.038
471.602
473.677
472.967
472.741
472.045
472.479
470.665
471.739
472.356
472.368
470.402
470.422
469.838
469.345
471.265
470.38
471.004
471.819
472.663
470.188
470.972
471.869
470.215
472.679
471.901
470.194
469.784
471.881
471.061
471.362
469.439
470.556
469.623
471.694
470.4
472.498
470.885
469.728
471.789
469.668
472.685
470.625
471.008
469.326
471.929
469.836
469.773
469.769
472.619
470.546
472.561
469.865
471.909
471.803
470.772
472.688
470.661
472.059
469.982
471.928
470.285
472.394
471.696
471.578
473.668
472.018
472.724
472.118
472.929
472.025
472.975
472.744
472.044
472.947
472.221
472.028
471.604
470.661
471.742
471.751
472.356
469.844
469.879
470.389
471.332
469.414
471.342
470.45
469.42
469.952
470.314
469.509
471.291
469.53
471.787
471.812
472.643
469.277
469.621
469.76
470.511
471.411
469.585
469.581
471.423
471.259
469.66
472.759
471.82
472.636
469.898
470.654
470.233
470.602
469.729
471.371
469.725
471.079
472.441
471.724
470.629
471.667
471.728
470.64
469.334
469.279
469.512
469.311
469.264
469.512
469.353
469.522
469.357
469.665
469.751
470.025
469.959
469.254
469.426
469.455
469.543
469.346
469.808
469.973
469.89
469.659
469.739
470.025
469.958
469.421
469.441
469.657
470.428
469.678
470.011
470.005
469.613
470.092
469.884
470.709
470.578
470.288
470.92
469.545
469.942
469.84
470.71
470.462
470.27
470.82
469.43
469.45
469.673
470.473
469.694
470.042
470.038
469.623
470.126
469.901
470.764
470.623
470.329
470.983
470.277
470.065
470.337
471.179
470.771
471.129
470.763
470.661
470.529
470.546
471.381
471.401
471.49
471.226
470.161
470.385
470.377
471.154
470.692
470.748
471.007
469.266
469.433
469.476
469.559
469.36
469.909
469.691
469.742
469.955
469.368
469.377
469.583
470.349
469.633
469.976
469.934
469.402
469.604
469.359
470.121
471.031
469.977
470.65
470.194
470.975
470.652
469.828
470.239
469.943
469.794
470.316
470.886
470.639
470.87
470.571
471.01
471.2
471.084
471.067
470.665
469.876
469.928
469.883
470.288
470.13
470.275
471.079
470.089
470.809
470.525
470.616
470.392
471.208
469.612
469.7
469.923
470.206
469.562
469.319
469.293
469.87
469.861
469.494
470.991
470.626
469.953
470.097
470.629
470.948
470.165
469.681
469.773
470.865
470.619
470.831
471.317
471.154
471.485
472.109
471.065
471.511
471.826
472.078
471.012
470.487
470.77
470.038
471.168
470.343
470.558
471.351
470.898
471.621
470.817
471.49
470.669
471.478
469.723
470.299
469.807
469.777
470.168
470.534
470.342
469.788
469.447
470.67
470.144
469.679
469.38
469.312
471.22
471.294
470.536
470.339
471.35
471.159
470.356
470.044
469.854
469.937
470.982
471.157
470.511
471.031
471.033
472.07
472.287
472.256
472.172
469.591
469.658
469.882
469.726
469.799
470.286
470.16
469.77
469.313
469.334
469.539
470.89
469.804
470.233
469.706
469.841
470.26
469.447
469.886
470.169
469.743
470.232
469.739
471.27
472.046
471.392
471.069
471.77
471.463
471.01
470.751
470.811
471.111
470.892
469.524
469.679
469.895
469.733
469.957
469.459
469.563
469.462
469.435
469.405
469.622
469.332
469.964
469.541
469.591
469.842
469.562
469.665
469.872
469.709
469.786
470.274
469.766
470.128
469.801
469.817
469.921
470.89
469.527
470.251
470.349
469.34
469.973
469.861
469.549
469.595
469.439
469.643
469.454
469.717
469.806
470.279
469.766
470.148
469.611
469.691
469.909
469.857
470.937
470.268
469.83
469.992
469.566
470.404
469.505
469.638
469.544
469.467
469.313
469.359
469.557
469.334
469.465
470.056
469.827
469.613
469.304
469.341
469.526
469.631
469.762
469.735
470.789
469.387
470.175
470.129
469.462
469.334
470.034
469.605
469.805
469.838
469.493
470.396
469.723
470.733
470.597
470.211
469.538
469.992
469.768
470.624
470.512
470.206
470.848
469.408
470.098
469.881
469.508
469.654
469.8
470.858
470.202
469.682
469.828
469.432
470.234
469.372
469.411
469.62
469.516
469.416
470.111
469.653
469.879
469.894
469.768
470.197
469.757
470.26
470.014
470.334
470.284
469.887
470.174
469.747
469.751
470.236
470.002
470.321
470.256
470.349
470.756
471.451
470.729
470.872
470.379
470.837
470.376
470.6
471.361
471.268
470.386
471.208
471.416
471.038
470.103
470.36
470.621
470.297
470.654
470.944
470.567
471.27
470.494
471.351
470.439
471.411
471.167
470.238
470.05
470.722
470.305
471.063
471.124
470.737
470.639
470.527
470.523
471.332
471.369
471.44
471.205
470.15
470.385
470.358
471.112
470.665
470.729
470.984
470.054
470.372
470.333
469.941
470.252
469.816
469.8
470.307
470.39
470.784
471.516
470.81
470.902
470.413
470.924
470.052
470.389
470.328
470.711
470.703
471.047
471.004
470.549
471.196
471.068
471.067
471.261
471.05
472.035
471.4
471.434
471.011
471.776
471.245
471.344
471.544
471.373
471.898
471.633
471.437
471.775
470.899
470.664
470.888
471.285
471.092
472.073
471.453
471.462
471.044
471.811
471.375
471.9
471.646
471.434
471.788
471.258
471.366
471.57
470.753
470.791
471.111
470.887
470.058
470.058
470.263
470.249
470.121
470.091
470.281
470.334
470.182
470.132
470.03
469.562
469.656
469.86
469.416
469.384
469.562
469.795
469.933
469.801
470.881
469.521
470.351
470.201
469.682
469.762
470.242
470.106
469.734
469.505
469.265
469.927
469.789
469.56
471.022
470.057
470.796
470.499
470.579
470.35
471.185
471.017
470.054
470.487
470.773
470.354
470.566
471.171
471.302
470.783
470.774
471.598
470.598
471.452
471.445
470.815
469.93
470.019
469.95
470.364
470.203
470.384
471.35
470.812
470.898
471.62
470.666
471.478
471.489
471.084
470.093
470.561
470.842
470.414
470.639
471.232
469.853
470.032
469.923
470.974
469.606
470.413
470.316
469.47
469.446
469.668
469.728
469.812
470.299
470.166
469.776
469.574
469.376
470.024
469.892
469.618
469.377
469.199
469.522
469.404
469.306
470.578
469.515
470.486
469.955
470.189
469.728
470.812
470.53
469.439
470.341
469.782
470.135
469.669
470.667
470.814
470.193
470.087
471.161
469.91
471.036
470.94
470.475
469.694
469.453
469.435
470.044
470.042
469.678
470.762
469.621
470.611
470.131
470.31
469.912
470.982
470.729
469.56
470.493
469.985
470.289
469.856
470.866
471.023
470.483
470.39
471.394
470.187
471.242
471.163
469.535
469.364
469.371
469.296
469.706
469.603
469.494
469.515
469.659
469.84
469.707
469.901
470.92
470.034
470.57
470.291
470.589
470.22
470.863
471.219
470.343
471.298
470.526
471.17
470.347
471.349
471.212
470.449
470.503
471.3
470.387
471.121
471.348
471.17
470.751
470.047
470.282
470.737
471.122
470.341
471.147
470.151
470.674
470.391
470.717
470.388
471.007
471.429
470.63
471.535
470.825
471.382
470.633
471.572
471.401
470.552
470.722
471.436
470.588
471.245
471.538
469.855
470.044
469.938
470.086
469.998
471.256
471.045
471.387
472.022
471.005
471.43
471.759
471.239
471.335
471.535
470.979
470.509
471.157
471.035
471.033
471.366
471.619
471.885
471.766
471.42
472.279
471.611
471.756
471.745
471.942
471.928
471.988
472.575
472.36
471.912
472.312
472.187
472.71
472.188
472.567
471.902
472.344
472.299
472.17
472.186
472.695
472.82
472.552
473.077
472.542
472.951
472.403
472.939
472.614
472.369
471.934
472.327
472.213
472.724
472.216
472.382
471.682
471.777
471.795
471.99
472.008
472.044
472.854
472.566
473.093
472.626
472.965
472.45
472.977
472.617
471.939
472.402
472.348
472.231
472.231
472.748
470.927
470.676
470.911
471.268
471.38
471.587
471.038
470.589
471.241
471.109
471.087
471.395
471.651
471.928
471.809
471.453
472.07
472.05
472.24
472.234
472.138
472.251
472.285
472.167
472.109
472.019
470.057
470.25
470.267
470.126
470.059
470.334
470.284
470.186
470.131
470.039
470.091
469.682
470.245
469.752
469.735
470.107
469.503
469.93
469.279
469.563
469.789
469.568
469.656
469.859
469.397
469.386
469.569
469.779
470.871
469.931
469.791
470.353
470.19
469.527
471.304
470.777
471.599
470.789
471.446
470.597
471.453
470.669
469.867
469.885
469.928
470.126
470.272
470.293
471.029
470.495
470.062
470.796
470.356
471.183
470.588
471.086
470.559
470.842
470.091
471.232
470.416
470.641
471.072
470.515
470.078
470.807
470.385
471.201
470.609
470.815
469.953
469.931
470.015
470.201
470.393
470.36
469.574
470.023
469.362
469.62
469.887
469.613
469.706
469.934
469.853
470.981
470.041
469.924
470.436
470.299
469.609
469.471
469.457
469.663
469.211
469.409
469.51
469.314
469.371
470.824
470.099
471.16
470.188
470.948
469.929
471.032
470.203
469.301
469.563
469.327
469.875
469.495
469.881
470.587
469.95
469.535
470.484
469.739
470.809
470.214
470.734
470.494
469.985
469.56
470.866
470.282
469.864
471.03
470.392
471.396
470.488
471.164
470.196
471.251
470.484
469.439
469.703
469.457
470.044
469.686
470.042
470.776
470.139
469.627
470.631
469.92
470.998
470.327
469.606
469.708
469.503
469.538
469.375
469.847
469.652
469.723
469.911
469.492
471.217
470.513
471.297
470.445
471.35
470.404
471.118
470.984
470.091
470.62
469.953
470.938
470.167
470.622
470.91
470.289
470.025
470.572
470.225
470.849
470.59
471.44
471.537
470.826
470.633
471.575
471.392
470.635
471.406
470.717
471.433
470.545
471.538
470.58
471.234
471.189
470.286
470.774
470.057
471.14
470.349
470.753
471.161
470.401
470.155
470.681
470.395
471.008
470.73
470.08
470.001
469.683
469.775
471.367
471.885
471.62
471.417
471.773
470.867
470.624
470.829
471.268
472.025
471.044
471.399
471.413
471.777
471.003
471.232
471.338
471.538
472.569
472.347
472.306
471.908
472.7
472.18
472.186
472.82
473.079
472.548
472.554
472.944
472.953
472.4
472.268
471.747
471.607
471.747
471.931
471.971
471.934
472.573
472.31
472.365
471.915
472.712
472.186
472.188
472.867
473.098
472.629
472.579
472.982
472.978
472.455
472.627
472.405
472.346
471.937
472.751
472.24
472.232
472.624
472.322
472.376
471.927
472.732
472.219
472.215
472.391
471.801
471.685
471.776
472.019
472.043
471.994
471.033
471.238
470.571
471.087
471.097
471.399
471.931
471.66
471.454
471.817
471.319
472.129
471.165
471.505
471.521
471.844
471.079
470.919
470.677
470.906
471.271
471.381
471.597
472.235
472.243
472.131
472.07
472.106
472.019
472.082
469.571
469.465
469.469
469.704
469.786
470.275
470.136
469.764
469.81
469.938
470.914
469.826
470.379
469.532
470.247
469.439
469.408
469.622
469.994
469.337
469.549
469.603
469.852
469.615
469.693
469.915
470.954
469.853
470.275
469.833
470
470.416
469.575
469.359
470
469.869
469.56
469.606
469.439
469.654
469.449
469.504
469.64
469.542
469.471
469.622
469.739
470.791
469.771
470.136
469.389
470.174
469.453
469.35
470.025
469.81
469.591
469.313
469.362
469.565
469.361
469.463
470.047
469.828
469.6
469.384
469.394
469.607
470.386
469.64
469.987
469.958
469.875
470.442
469.512
470.788
469.748
470.641
470.232
469.562
470.012
469.799
470.669
470.529
470.241
470.886
469.388
469.42
469.63
469.534
469.42
470.131
469.908
469.67
469.407
469.624
469.375
469.418
470.119
469.894
469.521
469.662
470.005
470.325
470.257
470.343
471.451
470.743
470.737
470.851
470.853
470.369
469.76
469.894
470.197
469.751
470.267
470.003
470.343
470.284
470.131
469.992
470.212
471.068
470.669
471.011
470.679
470.115
470.365
470.318
471.071
470.639
470.679
470.953
470.598
471.38
470.495
471.463
470.457
471.313
471.182
469.958
470.273
469.812
470.324
469.817
471.558
470.818
470.935
470.414
470.839
470.95
470.428
470.063
470.387
470.336
469.812
470.267
470.33
469.953
469.809
470.393
470.344
470.056
470.713
471.052
470.708
471.245
471.34
471.545
471.373
471.902
471.635
471.779
471.435
470.894
470.643
470.873
471.211
470.54
471.011
471.074
471.064
472.113
471.139
471.522
471.323
471.449
471.83
471.058
471.39
471.913
471.647
471.802
471.44
471.272
471.365
471.576
470.569
471.226
471.096
471.02
471.072
470.69
470.906
470.913
470.554
470.714
471.399
470.555
471.288
471.343
471.449
472.253
472.282
473.059
472.22
473.095
473.019
473.91
471.48
473.061
472.345
473.107
472.323
473.917
473.17
471.381
471.171
470.322
471.413
470.786
470.806
471.776
473.179
472.286
473.084
473.141
474.018
473.052
473.865
472.462
473.095
472.358
474.027
473.289
473.877
473.155
471.848
471.427
472.051
472.39
471.477
471.802
472.432
472.64
472.521
471.856
472.506
472.281
472.894
472.265
472.926
472.81
472.676
473.295
472.566
473.182
473.036
473.095
473.024
473.912
471.411
472.291
472.285
473.151
472.322
473.922
473.177
472.303
471.501
473.156
472.406
471.447
471.213
472.195
471.687
471.578
471.078
472.062
474.022
473.05
473.869
472.4
473.267
472.293
473.115
473.3
473.886
473.163
473.275
472.527
473.132
472.404
472.132
472.226
472.852
472.687
472.26
472.089
472.727
472.89
473.272
472.651
472.768
473.013
473.151
472.532
473.191
473.566
473.421
473.57
473.305
473.448
473.306
471.531
471.922
472.246
472.361
471.619
471.795
472.123
471.104
471.356
471.322
470.277
471.726
470.746
470.722
471.428
471.672
472.168
471.185
472.048
471.063
471.542
471.775
472.328
471.979
471.359
472.373
471.72
471.417
472.103
472.662
472.811
472.165
472.7
472.058
472.209
471.59
470.977
471.022
470.405
470.979
471.024
470.31
472.349
471.913
471.796
471.529
472.23
472.11
471.609
470.278
470.408
470.12
470.935
471.26
471.039
471.146
471.363
471.138
471.628
472.098
471.022
471.475
471.981
471.118
470.304
471.37
471.349
470.76
470.748
471.73
471.633
471.949
472.363
472.438
471.748
471.836
472.242
471.398
471.262
471.639
472.207
471.049
471.604
472.001
471.174
471.398
471.391
470.312
471.785
470.792
470.791
471.711
472.45
472.533
472.04
472.328
471.829
471.923
471.473
471.701
472.291
471.322
472.083
471.108
471.682
470.327
470.456
470.155
470.998
471.336
471.107
471.219
471.864
472.413
472.078
471.458
472.449
471.818
471.507
472.07
472.773
472.546
472.08
472.666
472.174
471.969
471.829
472.043
472.308
471.305
472.418
471.467
471.728
470.602
470.758
470.594
471.407
471.472
471.36
471.515
470.699
470.04
470.84
471.164
470.139
470.567
470.688
470.711
471.191
470.583
470.051
470.849
470.144
470.716
469.898
470.746
471.084
470.727
470.522
470.089
470.497
470.163
470.242
471.229
469.977
471.015
470.879
471.088
471.058
470.253
471.326
471.296
470.727
470.695
471.676
471.121
472.086
471.455
471.323
471.608
470.998
471.953
471.333
471.211
471.595
472.164
470.991
471.548
471.957
471.934
472.353
471.733
471.597
472.42
471.805
472.218
470.789
471.148
470.569
469.954
470.802
470.134
470.58
470.326
470.883
470.865
471.478
470.234
470.934
470.91
471.728
471.343
472.284
471.976
471.673
471.399
472.333
472.057
471.969
472.533
472.717
471.919
472.111
472.577
471.719
471.215
471.948
472.207
471.375
471.637
472.314
471.96
472.02
472.697
472.46
472.094
471.888
472.56
472.079
472.569
471.971
472.024
472.727
472.13
472.625
471.398
472.339
471.741
471.804
472.034
471.463
472.399
472.006
472.034
472.711
472.501
472.111
471.924
472.605
471.779
471.259
471.996
472.253
471.427
471.681
472.368
470.926
470.373
470.938
471.543
470.278
470.981
470.988
471.479
471.852
472.28
472.191
471.722
471.577
472.06
471.489
471.858
472.31
472.196
471.742
471.577
472.081
470.035
471.152
470.814
470.667
470.678
470.532
470.117
471.312
470.438
471.406
471.411
470.912
470.91
471.82
471.6
471.361
471.696
472.255
471.209
471.752
472.107
471.584
471.681
471.336
472.236
471.193
472.089
471.733
471.874
472.53
472.162
472.524
472.026
472.379
472.02
471.737
471.646
471.372
472.269
471.248
471.769
472.146
471.477
471.381
470.516
471.487
470.98
470.993
471.884
471.918
472.547
472.18
472.549
472.047
472.417
472.051
471.653
471.762
471.408
472.293
471.271
472.156
471.791
470.083
471.238
470.883
470.765
470.745
470.636
470.17
471.016
470.22
471.275
471.296
470.655
470.66
471.656
471.304
471.57
471.183
472.144
470.965
471.939
471.519
471.261
471.555
471.068
472.032
470.932
471.903
471.39
471.541
472.381
472.3
471.866
472.177
471.754
471.665
471.673
471.462
471.296
472.27
471.084
472.067
471.671
471.447
471.697
471.215
472.199
471.086
472.064
471.58
471.728
472.537
472.479
472.088
472.336
471.938
471.872
471.698
471.316
471.949
472.265
471.368
471.65
472.308
471.68
471.917
471.19
472.197
471.333
472.286
471.607
471.932
472.505
471.998
472.674
471.885
472.549
472.056
471.915
472.444
472.655
471.976
472.529
471.854
472.04
471.813
472.017
471.277
472.288
471.439
472.394
471.713
472.111
472.658
472.222
472.846
472.07
472.697
472.256
472.079
472.546
472.805
472.105
472.666
471.973
472.212
471.472
472.269
471.829
472.179
471.712
472.05
471.558
472.894
472.78
472.667
473.286
472.538
473.155
473.025
472.881
472.757
473.264
472.648
473.14
472.518
473.007
473.141
473.541
473.526
473.398
473.404
473.277
473.262
472.687
472.567
471.92
472.576
472.326
472.939
472.335
473.171
473.551
473.557
473.413
473.427
473.288
473.297
472.93
472.823
473.322
472.714
473.183
472.58
473.063
471.527
472.345
471.92
472.242
471.79
472.11
471.618
470.004
470.809
470.66
471.133
470.102
470.669
470.516
471.584
471.335
472.233
471.682
471.731
471.192
472.089
471.877
472.163
472.524
472.529
472.02
472.024
472.382
471.315
471.403
470.432
471.433
470.906
471.819
470.929
471.61
472.264
471.371
471.732
471.753
472.124
471.23
471.919
472.181
472.551
472.549
472.052
472.046
472.421
471.661
471.408
472.296
471.776
471.792
471.279
472.169
471.756
471.641
472.277
471.382
471.767
472.15
471.253
471.486
471.383
471.498
470.502
471.002
471.889
470.981
470.075
470.88
470.761
471.236
470.167
470.748
470.623
471.262
471.068
472.035
471.556
471.391
470.934
471.906
471.547
472.308
471.873
472.382
471.673
472.183
471.754
471.019
471.293
470.219
471.279
470.666
471.657
470.663
471.313
472.148
471.582
471.187
471.948
471.519
470.98
471.735
472.479
472.091
472.554
471.872
472.344
471.951
471.419
471.19
471.423
470.344
470.81
471.806
470.81
471.721
471.486
472.308
471.335
472.1
471.698
471.119
471.923
471.998
472.672
472.499
472.054
471.876
472.541
471.91
472.651
471.973
472.428
472.039
472.52
471.844
471.683
472.262
471.314
471.958
471.64
472.304
471.364
471.669
472.18
471.933
471.193
472.282
471.587
471.336
472.092
472.81
472.107
472.564
472.215
472.689
471.979
472.103
471.881
472.436
471.469
471.833
472.479
471.512
472.06
471.841
472.316
471.299
472.433
471.732
471.467
471.495
471.83
472.181
472.277
471.566
471.71
472.065
473.142
473.532
473.4
473.544
473.268
473.403
473.279
472.639
472.515
472.522
471.86
472.896
472.276
472.276
472.891
473.295
472.782
472.679
473.149
473.031
472.537
472.95
473.33
472.721
472.846
473.07
473.203
472.6
472.831
472.942
473.318
472.695
473.204
473.053
472.579
472.592
472.705
472.6
471.932
472.961
472.356
472.34
470.731
470.048
470.856
471.193
470.71
470.15
470.584
471.217
470.738
470.605
470.063
470.864
470.731
470.154
469.893
471.084
470.725
470.737
470.501
470.522
470.075
472.154
471.171
471.521
471.38
471.64
472.008
471.029
471.389
471.612
472.213
471.226
472.009
471.019
471.598
472.44
472.021
471.812
471.665
472.497
472.29
471.875
470.198
471.299
470.268
471.075
470.01
470.929
471.14
471.197
470.833
470.607
469.982
470.841
470.621
470.166
470.317
470.863
471.476
470.878
470.913
470.22
470.93
472.8
472.143
472.192
472.038
472.606
472.647
471.99
471.756
471.947
472.239
471.229
472.347
471.386
471.667
472.758
472.061
472.155
472.011
472.498
472.615
471.92
470.651
471.432
470.407
471.485
470.421
471.323
471.264
471.892
471.495
472.299
472.213
472.069
471.749
471.596
471.835
471.796
471.83
472.191
472.247
472.18
472.592
472.152
472.612
472.495
472.685
472.566
472.904
473.023
472.788
472.45
472.777
472.834
472.819
473.224
473.181
473.071
473.233
473.126
473.517
473.586
473.471
473.634
472.65
472.567
472.094
472.517
472.438
472.861
472.99
472.983
472.976
472.852
473.2
473.461
473.336
473.326
473.191
473.021
473.067
473.477
473.559
473.604
473.432
473.813
473.921
474.062
473.9
473.948
473.786
473.927
472.602
472.121
472.673
472.47
472.529
472.873
473.012
472.09
472.67
472.66
472.475
472.462
472.871
473.066
472.868
472.927
472.735
473.137
473.459
473.272
473.329
472.095
472.652
472.564
472.515
472.435
472.856
472.988
472.957
472.948
472.806
473.152
473.448
473.305
473.293
472.903
472.828
472.707
473.121
473.432
473.313
473.245
473.418
473.748
473.715
473.736
473.567
473.61
473.552
471.893
471.866
472.238
471.913
472.302
472.272
472.643
472.875
472.946
472.757
473.16
473.466
473.281
473.348
472.151
472.71
472.509
472.753
472.556
472.914
473.111
472.971
472.981
472.845
473.192
473.459
473.318
473.333
472.195
472.72
472.695
472.581
472.56
472.932
473.073
473.453
473.758
473.727
473.791
473.579
473.639
473.6
473.03
472.974
472.835
473.203
473.545
473.398
473.349
473.046
473.226
473.09
473.492
473.58
473.449
473.627
472.416
472.692
472.684
472.802
472.79
473.075
473.186
473.195
472.954
473.472
473.059
473.341
473.453
473.587
473.022
473.188
473.067
473.476
473.553
473.431
473.598
473.762
473.863
473.856
474.045
473.727
473.903
473.892
472.936
473.16
473.45
473.04
473.327
473.441
473.561
473.737
473.721
473.598
473.717
473.992
473.858
473.844
472.833
472.522
472.867
472.887
472.912
473.277
473.23
473.205
472.987
473.481
473.095
473.367
473.479
473.595
472.488
472.741
472.758
472.854
472.873
473.122
473.236
473.791
473.873
473.908
474.056
473.756
473.913
473.937
473.142
473.331
473.183
473.55
473.662
473.512
473.698
473.745
473.754
473.62
473.743
474.005
473.867
473.885
473.018
473.289
473.519
473.144
473.376
473.504
473.65
472.947
472.961
472.813
473.163
473.448
473.295
473.315
472.834
472.906
472.712
473.124
473.437
473.249
473.317
473.426
473.719
473.74
473.78
473.557
473.585
473.618
471.826
471.862
471.804
472.25
472.18
472.224
472.598
472.662
472.695
472.158
472.554
472.515
472.903
473.05
472.662
472.094
472.701
472.463
472.505
472.872
473.069
472.947
472.997
472.796
473.171
473.529
473.328
473.369
472.722
472.695
472.202
472.596
472.566
472.946
473.077
473.474
473.732
473.804
473.791
473.609
473.597
473.671
472.979
473.051
472.851
473.227
473.556
473.357
473.425
472.186
472.673
472.549
472.706
472.581
472.933
473.059
471.916
471.907
472.286
471.931
472.319
472.305
472.677
472.957
473.037
472.834
473.213
473.538
473.339
473.416
472.207
472.786
472.581
472.797
472.596
472.965
473.166
473.761
473.86
474.05
473.889
473.898
473.728
473.914
473.159
473.455
472.934
473.036
473.333
473.442
473.567
473.728
473.739
473.596
473.716
473.998
473.851
473.863
472.775
472.813
472.453
472.82
472.854
473.225
473.181
473.301
473.105
473.142
473.511
473.64
473.477
473.67
472.683
472.426
472.711
472.792
473.08
472.825
473.189
473.25
473.49
472.978
473.342
473.103
473.466
473.618
473.342
473.175
473.216
473.579
473.676
473.711
473.544
473.762
473.762
473.639
473.762
474.013
473.894
473.881
473.297
473.525
473.04
473.172
473.394
473.527
473.658
473.159
473.311
473.193
473.564
473.651
473.534
473.682
472.904
472.574
472.938
472.919
472.962
473.321
473.285
473.264
473.029
473.152
473.512
473.395
473.516
473.634
472.536
472.786
472.902
472.789
472.915
473.15
473.272
468.377
467.099
466.061
468.413
467.152
466.144
468.428
467.162
466.16
468.434
467.14
466.079
468.793
467.583
466.607
468.798
467.596
466.617
468.81
467.608
466.639
469.835
468.851
468.065
470.05
469.11
468.369
469.297
468.24
467.362
468.789
467.578
466.599
469.256
468.194
467.31
469.113
468.007
467.084
469.01
467.872
466.951
468.381
467.085
466.009
468.78
467.543
466.535
469.766
468.777
467.983
469.99
469.05
468.309
471.853
471.265
470.779
469.11
468.008
467.089
469.013
467.875
466.949
468.746
467.531
466.536
468.768
467.552
466.575
468.736
467.493
466.477
468.567
467.285
466.23
468.57
467.289
466.234
468.556
467.276
466.221
468.741
467.499
466.483
468.465
467.211
466.208
468.485
467.224
466.206
468.478
467.217
466.219
469.524
468.484
467.66
469.658
468.652
467.85
468.557
467.277
466.219
468.717
467.474
466.456
468.747
467.511
466.504
468.943
467.761
466.806
468.425
467.131
466.063
468.58
467.31
466.271
468.462
467.171
466.11
468.586
467.316
466.276
468.726
467.486
466.473
468.508
467.243
466.219
468.985
467.849
466.92
468.506
467.244
466.223
469.007
467.87
466.943
468.609
467.371
466.384
468.609
467.367
466.376
468.442
467.159
466.089
468.641
467.409
466.418
468.658
467.421
466.417
468.671
467.436
466.453
468.784
467.573
466.601
468.769
467.554
466.58
469.538
468.499
467.677
469.684
468.684
467.902
468.813
467.605
466.623
468.833
467.626
466.652
470.045
469.103
468.361
471.239
470.519
469.924
471.075
470.316
469.712
471.253
470.532
469.937
471.085
470.325
469.72
469.594
468.701
468.019
469.601
468.707
468.021
468.976
467.833
466.904
468.45
467.184
466.161
469.014
467.876
466.959
468.474
467.198
466.153
468.531
467.271
466.254
468.529
467.247
466.187
468.669
467.423
466.415
468.46
467.163
466.092
468.609
467.332
466.287
468.698
467.455
466.436
469.503
468.457
467.629
469.705
468.707
467.936
469.637
468.609
467.797
468.782
467.544
466.536
469.991
469.053
468.316
471.226
470.505
469.908
471.065
470.301
469.695
471.465
470.784
470.222
471.455
470.777
470.218
471.021
470.249
469.642
471.146
470.402
469.795
471.451
470.764
470.201
469.847
468.865
468.081
470.055
469.116
468.374
471.254
470.531
469.937
471.087
470.326
469.724
471.85
471.268
470.792
471.853
471.267
470.785
469.593
468.701
468.018
469.601
468.707
468.021
468.954
467.81
466.878
468.443
467.179
466.155
469.002
467.875
466.983
468.993
467.864
466.957
468.47
467.193
466.153
468.522
467.26
466.238
468.529
467.247
466.187
468.429
467.163
466.147
468.468
467.208
466.204
468.665
467.42
466.417
468.61
467.333
466.286
468.695
467.453
466.432
469.627
468.597
467.779
468.833
467.621
466.652
469.5
468.453
467.628
469.722
468.719
467.938
469.556
468.516
467.694
471.208
470.487
469.886
471.043
470.28
469.671
471.46
470.781
470.22
471.447
470.76
470.197
471.452
470.773
470.213
471.027
470.259
469.656
471.16
470.42
469.821
471.012
470.242
469.63
470.06
469.121
468.386
471.093
470.334
469.732
471.85
471.266
470.786
469
467.861
466.936
468.442
467.168
466.129
468.516
467.253
466.228
468.459
467.186
466.144
468.524
467.264
466.252
468.614
467.367
466.37
468.605
467.359
466.346
468.615
467.37
466.379
468.648
467.411
466.405
468.664
467.43
466.442
468.654
467.417
466.414
468.661
467.425
466.439
468.732
467.522
466.526
468.758
467.548
466.575
469.658
468.66
467.878
468.826
467.621
466.654
468.822
467.616
466.641
471.252
470.533
469.943
471.08
470.32
469.716
469.814
468.824
468.027
470.032
469.089
468.35
471.077
470.316
469.714
470.044
469.104
468.367
468.383
467.104
466.07
468.435
467.166
466.191
468.8
467.627
466.722
468.647
467.432
466.428
468.363
467.075
466.021
468.43
467.159
466.182
468.59
467.338
466.326
468.582
467.332
466.32
468.733
467.513
466.516
469.084
467.955
467.086
469.154
468.048
467.176
469.209
468.114
467.291
468.368
467.089
466.066
468.412
467.139
466.171
468.529
467.286
466.279
468.536
467.286
466.325
468.43
467.146
466.089
468.537
467.276
466.236
468.755
467.519
466.511
468.952
467.773
466.819
468.756
467.532
466.532
469.067
467.944
467.081
469.158
468.056
467.191
469.206
468.117
467.3
468.514
467.253
466.246
468.506
467.24
466.242
468.498
467.236
466.233
468.515
467.251
466.264
469.336
468.248
467.407
469.738
468.739
467.962
468.362
467.088
466.071
468.411
467.139
466.162
468.552
467.299
466.334
468.531
467.286
466.278
468.444
467.162
466.106
468.544
467.282
466.241
468.912
467.743
466.792
468.693
467.464
466.439
469.095
467.986
467.135
469.113
468.018
467.161
469.218
468.14
467.339
468.455
467.189
466.174
468.452
467.175
466.166
468.509
467.262
466.264
468.548
467.308
466.312
468.493
467.229
466.198
468.489
467.237
466.254
468.479
467.22
466.205
468.997
467.835
466.885
469.033
467.885
466.972
469.003
467.849
466.933
468.981
467.824
466.889
469.19
468.073
467.208
469.068
467.919
466.991
469.06
467.905
466.971
468.857
467.656
466.684
470.18
469.26
468.522
470.249
469.347
468.646
470.391
469.515
468.821
470.096
469.166
468.431
469.918
468.959
468.205
470.016
469.072
468.333
469.802
468.82
468.047
469.9
468.936
468.205
470.232
469.321
468.581
470.454
469.582
468.879
470.486
469.617
468.915