/*--------------------------------*- C++ -*----------------------------------*\
| =========                 |                                                 |
| \\      /  F ield         | OpenFOAM: The Open Source CFD Toolbox           |
|  \\    /   O peration     | Version:  v1906                                 |
|   \\  /    A nd           | Web:      www.OpenFOAM.com                      |
|    \\/     M anipulation  |                                                 |
\*---------------------------------------------------------------------------*/
FoamFile
{
    version     2.0;
    format      ascii;
    class       volScalarField;
    location    "51";
    object      T;
}
// * * * * * * * * * * * * * * * * * * * * * * * * * * * * * * * * * * * * * //

dimensions      [0 0 0 1 0 0 0];


internalField   nonuniform List<scalar> 
78750
(
300.065
300.158
300.204
300.232
300.253
300.269
300.28
300.287
300.291
300.29
300.286
300.28
300.27
300.258
300.244
300.229
300.213
300.197
300.182
300.169
300.156
300.146
300.137
300.13
300.125
300.122
300.124
300.134
300.157
300.208
300.316
300.54
300.978
301.736
302.823
300.046
300.132
300.209
300.277
300.336
300.386
300.427
300.46
300.484
300.5
300.509
300.511
300.507
300.497
300.481
300.46
300.435
300.406
300.375
300.342
300.309
300.277
300.249
300.225
300.207
300.196
300.196
300.209
300.246
300.324
300.477
300.766
301.268
302.046
303.111
300.057
300.164
300.26
300.343
300.414
300.476
300.53
300.576
300.615
300.649
300.676
300.698
300.714
300.724
300.729
300.727
300.718
300.703
300.682
300.654
300.621
300.582
300.54
300.495
300.452
300.414
300.389
300.387
300.423
300.52
300.715
301.056
301.6
302.388
303.447
300.056
300.16
300.254
300.336
300.406
300.468
300.523
300.573
300.619
300.66
300.697
300.73
300.76
300.786
300.807
300.825
300.838
300.845
300.847
300.842
300.831
300.811
300.784
300.75
300.711
300.669
300.632
300.612
300.628
300.712
300.909
301.266
301.828
302.626
303.69
300.064
300.183
300.29
300.385
300.467
300.536
300.596
300.649
300.697
300.739
300.777
300.81
300.839
300.864
300.885
300.903
300.917
300.928
300.936
300.939
300.937
300.929
300.914
300.893
300.866
300.835
300.806
300.788
300.803
300.885
301.084
301.453
302.023
302.825
303.893
300.07
300.202
300.321
300.425
300.515
300.588
300.651
300.707
300.757
300.802
300.842
300.877
300.907
300.934
300.957
300.976
300.992
301.004
301.012
301.017
301.018
301.014
301.004
300.989
300.969
300.946
300.924
300.914
300.935
301.022
301.228
301.604
302.176
302.976
304.048
300.076
300.22
300.349
300.463
300.559
300.638
300.704
300.761
300.813
300.859
300.899
300.935
300.966
300.993
301.016
301.036
301.052
301.065
301.074
301.08
301.081
301.078
301.071
301.059
301.043
301.026
301.011
301.009
301.041
301.14
301.357
301.744
302.315
303.11
304.185
300.083
300.238
300.379
300.501
300.603
300.686
300.755
300.814
300.866
300.913
300.955
300.991
301.023
301.051
301.075
301.095
301.112
301.125
301.133
301.138
301.139
301.135
301.128
301.117
301.104
301.089
301.08
301.086
301.128
301.239
301.469
301.864
302.434
303.225
304.301
300.088
300.254
300.403
300.533
300.64
300.726
300.796
300.857
300.911
300.958
301
301.038
301.071
301.1
301.126
301.147
301.165
301.178
301.186
301.191
301.191
301.187
301.179
301.169
301.156
301.145
301.14
301.154
301.206
301.331
301.574
301.977
302.547
303.336
304.414
300.093
300.269
300.427
300.563
300.676
300.765
300.837
300.899
300.953
301.002
301.045
301.083
301.118
301.149
301.176
301.198
301.215
301.228
301.236
301.24
301.239
301.235
301.227
301.216
301.204
301.194
301.194
301.214
301.276
301.413
301.668
302.078
302.649
303.438
304.516
300.098
300.282
300.447
300.589
300.705
300.798
300.872
300.935
300.991
301.041
301.085
301.126
301.162
301.195
301.223
301.246
301.264
301.277
301.285
301.288
301.286
301.281
301.272
301.26
301.249
301.242
301.245
301.271
301.342
301.491
301.758
302.175
302.747
303.537
304.617
300.102
300.293
300.465
300.613
300.734
300.829
300.905
300.97
301.027
301.078
301.124
301.167
301.205
301.239
301.268
301.292
301.31
301.323
301.331
301.334
301.331
301.325
301.316
301.304
301.293
301.287
301.293
301.325
301.404
301.563
301.84
302.263
302.837
303.63
304.71
300.105
300.304
300.482
300.635
300.759
300.857
300.935
301.002
301.06
301.113
301.162
301.206
301.246
301.281
301.311
301.336
301.355
301.368
301.376
301.378
301.376
301.369
301.359
301.347
301.336
301.331
301.341
301.377
301.464
301.632
301.918
302.347
302.924
303.72
304.802
300.109
300.314
300.498
300.656
300.783
300.884
300.964
301.033
301.093
301.148
301.198
301.244
301.285
301.322
301.353
301.378
301.398
301.412
301.42
301.422
301.419
301.412
301.401
301.389
301.379
301.375
301.387
301.428
301.521
301.697
301.992
302.425
303.006
303.805
304.888
300.112
300.324
300.513
300.675
300.807
300.909
300.992
301.062
301.124
301.181
301.233
301.28
301.323
301.361
301.393
301.42
301.44
301.454
301.462
301.464
301.461
301.454
301.443
301.431
301.421
301.419
301.432
301.477
301.576
301.76
302.063
302.501
303.085
303.888
304.972
300.116
300.333
300.528
300.695
300.829
300.934
301.019
301.091
301.155
301.213
301.267
301.316
301.36
301.399
301.432
301.46
301.481
301.495
301.504
301.506
301.503
301.496
301.485
301.473
301.463
301.462
301.477
301.526
301.63
301.821
302.131
302.573
303.16
303.967
305.053
300.119
300.342
300.542
300.714
300.851
300.959
301.045
301.119
301.184
301.244
301.299
301.35
301.396
301.436
301.47
301.498
301.52
301.535
301.544
301.546
301.544
301.536
301.526
301.514
301.505
301.504
301.522
301.575
301.684
301.882
302.198
302.644
303.234
304.045
305.132
300.122
300.351
300.557
300.732
300.873
300.982
301.07
301.146
301.213
301.275
301.332
301.384
301.431
301.472
301.507
301.536
301.559
301.574
301.583
301.586
301.584
301.576
301.566
301.555
301.546
301.547
301.567
301.623
301.737
301.941
302.263
302.713
303.306
304.121
305.209
300.125
300.36
300.571
300.75
300.894
301.005
301.095
301.172
301.241
301.305
301.363
301.416
301.464
301.507
301.543
301.573
301.596
301.612
301.622
301.625
301.623
301.616
301.606
301.595
301.587
301.589
301.611
301.671
301.79
302
302.328
302.782
303.377
304.195
305.284
300.128
300.369
300.585
300.768
300.915
301.028
301.12
301.198
301.269
301.334
301.394
301.448
301.498
301.541
301.578
301.609
301.632
301.649
301.659
301.663
301.661
301.655
301.645
301.635
301.628
301.631
301.656
301.718
301.843
302.058
302.392
302.848
303.446
304.268
305.358
300.131
300.378
300.599
300.786
300.935
301.05
301.143
301.224
301.296
301.362
301.424
301.48
301.53
301.575
301.613
301.644
301.668
301.685
301.696
301.7
301.699
301.693
301.684
301.674
301.668
301.673
301.7
301.766
301.896
302.117
302.456
302.915
303.514
304.339
305.431
300.134
300.387
300.613
300.804
300.955
301.072
301.167
301.249
301.323
301.391
301.453
301.511
301.562
301.608
301.646
301.678
301.703
301.721
301.732
301.737
301.736
301.731
301.723
301.714
301.709
301.715
301.745
301.814
301.948
302.175
302.519
302.98
303.582
304.41
305.503
300.137
300.396
300.626
300.821
300.975
301.093
301.19
301.274
301.349
301.418
301.482
301.541
301.593
301.64
301.679
301.712
301.737
301.756
301.768
301.773
301.773
301.769
301.761
301.753
301.749
301.757
301.789
301.863
302.001
302.233
302.582
303.046
303.649
304.48
305.574
300.14
300.404
300.64
300.839
300.995
301.115
301.213
301.298
301.375
301.446
301.511
301.571
301.624
301.671
301.712
301.745
301.771
301.79
301.802
301.809
301.809
301.806
301.799
301.792
301.789
301.799
301.834
301.911
302.054
302.291
302.645
303.111
303.715
304.549
305.644
300.143
300.413
300.653
300.856
301.014
301.136
301.235
301.322
301.4
301.472
301.539
301.6
301.654
301.702
301.744
301.777
301.804
301.824
301.837
301.844
301.845
301.842
301.836
301.83
301.83
301.842
301.879
301.959
302.107
302.35
302.708
303.175
303.781
304.618
305.713
300.146
300.422
300.667
300.873
301.033
301.157
301.257
301.346
301.425
301.499
301.567
301.629
301.684
301.733
301.775
301.809
301.837
301.857
301.871
301.878
301.881
301.878
301.874
301.869
301.87
301.884
301.924
302.008
302.161
302.408
302.77
303.24
303.847
304.685
305.782
300.149
300.431
300.681
300.89
301.052
301.177
301.279
301.369
301.45
301.525
301.594
301.657
301.714
301.763
301.806
301.841
301.869
301.89
301.904
301.912
301.915
301.914
301.911
301.907
301.91
301.926
301.969
302.057
302.214
302.467
302.833
303.304
303.912
304.752
305.849
300.152
300.439
300.694
300.906
301.071
301.197
301.301
301.392
301.474
301.551
301.621
301.685
301.743
301.793
301.836
301.872
301.901
301.922
301.937
301.946
301.95
301.95
301.947
301.945
301.95
301.968
302.014
302.106
302.268
302.525
302.895
303.367
303.976
304.818
305.916
300.155
300.448
300.707
300.923
301.089
301.217
301.322
301.414
301.498
301.576
301.647
301.713
301.771
301.822
301.866
301.903
301.932
301.954
301.97
301.98
301.984
301.985
301.984
301.983
301.989
302.01
302.059
302.155
302.322
302.584
302.958
303.431
304.04
304.884
305.981
300.158
300.456
300.72
300.939
301.107
301.237
301.343
301.437
301.522
301.601
301.674
301.74
301.799
301.852
301.896
301.933
301.963
301.986
302.002
302.013
302.018
302.02
302.02
302.021
302.029
302.053
302.105
302.205
302.376
302.643
303.02
303.494
304.103
304.948
306.046
300.161
300.465
300.733
300.955
301.125
301.256
301.364
301.459
301.546
301.626
301.7
301.767
301.828
301.88
301.926
301.963
301.994
302.017
302.034
302.045
302.052
302.055
302.056
302.059
302.069
302.095
302.15
302.254
302.43
302.701
303.082
303.556
304.166
305.012
306.109
300.164
300.473
300.746
300.972
301.143
301.275
301.385
301.482
301.57
301.651
301.726
301.794
301.856
301.909
301.955
301.993
302.024
302.048
302.066
302.078
302.085
302.09
302.092
302.097
302.108
302.137
302.196
302.304
302.484
302.76
303.143
303.618
304.227
305.074
306.172
300.167
300.482
300.759
300.988
301.161
301.295
301.406
301.504
301.593
301.676
301.752
301.822
301.883
301.938
301.984
302.023
302.054
302.079
302.097
302.11
302.119
302.124
302.128
302.134
302.148
302.179
302.241
302.353
302.538
302.818
303.204
303.679
304.288
305.136
306.233
300.17
300.49
300.772
301.004
301.179
301.314
301.426
301.526
301.617
301.701
301.778
301.848
301.911
301.966
302.013
302.053
302.085
302.11
302.129
302.142
302.152
302.158
302.163
302.171
302.187
302.221
302.287
302.403
302.592
302.876
303.265
303.74
304.348
305.196
306.293
300.173
300.498
300.785
301.02
301.197
301.333
301.447
301.548
301.641
301.726
301.804
301.875
301.939
301.995
302.042
302.082
302.115
302.14
302.16
302.174
302.184
302.192
302.199
302.208
302.227
302.264
302.332
302.452
302.646
302.934
303.325
303.8
304.408
305.256
306.353
300.176
300.507
300.798
301.035
301.215
301.352
301.468
301.57
301.664
301.751
301.83
301.902
301.967
302.023
302.071
302.111
302.144
302.171
302.191
302.206
302.217
302.226
302.234
302.245
302.266
302.306
302.378
302.502
302.699
302.991
303.385
303.859
304.466
305.315
306.411
300.179
300.515
300.811
301.051
301.232
301.372
301.488
301.592
301.688
301.775
301.856
301.929
301.994
302.051
302.1
302.141
302.174
302.201
302.222
302.238
302.25
302.259
302.269
302.282
302.305
302.348
302.424
302.551
302.753
303.049
303.444
303.918
304.524
305.373
306.468
300.182
300.523
300.823
301.067
301.25
301.391
301.509
301.614
301.711
301.8
301.882
301.956
302.022
302.079
302.129
302.17
302.204
302.231
302.252
302.269
302.282
302.293
302.304
302.319
302.345
302.39
302.469
302.601
302.807
303.106
303.503
303.976
304.581
305.429
306.525
300.185
300.532
300.836
301.083
301.267
301.409
301.529
301.636
301.734
301.825
301.907
301.982
302.049
302.107
302.157
302.199
302.233
302.261
302.283
302.3
302.314
302.326
302.339
302.356
302.384
302.432
302.515
302.65
302.86
303.163
303.561
304.033
304.638
305.485
306.58
300.188
300.54
300.849
301.098
301.284
301.428
301.549
301.658
301.757
301.849
301.933
302.009
302.077
302.135
302.186
302.228
302.263
302.291
302.313
302.331
302.346
302.359
302.373
302.392
302.423
302.474
302.56
302.7
302.913
303.219
303.618
304.09
304.693
305.541
306.635
300.191
300.548
300.861
301.114
301.302
301.447
301.569
301.679
301.78
301.873
301.959
302.036
302.104
302.163
302.214
302.257
302.292
302.321
302.344
302.362
302.378
302.392
302.408
302.429
302.462
302.516
302.606
302.749
302.966
303.275
303.675
304.146
304.748
305.595
306.688
300.193
300.556
300.874
301.129
301.318
301.465
301.589
301.701
301.803
301.898
301.984
302.062
302.131
302.191
302.242
302.286
302.321
302.35
302.374
302.393
302.41
302.425
302.442
302.465
302.5
302.557
302.651
302.798
303.019
303.33
303.731
304.201
304.801
305.648
306.741
300.196
300.564
300.886
301.144
301.335
301.483
301.609
301.722
301.826
301.922
302.009
302.088
302.158
302.219
302.271
302.314
302.35
302.38
302.404
302.424
302.442
302.458
302.477
302.501
302.539
302.599
302.696
302.846
303.071
303.385
303.787
304.255
304.854
305.7
306.792
300.199
300.572
300.898
301.158
301.352
301.501
301.628
301.743
301.848
301.946
302.034
302.114
302.185
302.246
302.299
302.343
302.379
302.409
302.434
302.455
302.473
302.491
302.511
302.537
302.577
302.64
302.74
302.895
303.123
303.44
303.842
304.309
304.906
305.751
306.843
300.202
300.58
300.91
301.173
301.368
301.519
301.647
301.764
301.871
301.969
302.059
302.14
302.212
302.274
302.327
302.371
302.408
302.439
302.464
302.485
302.504
302.523
302.545
302.573
302.615
302.681
302.785
302.943
303.174
303.493
303.896
304.361
304.957
305.801
306.892
300.204
300.588
300.921
301.187
301.384
301.536
301.667
301.784
301.893
301.993
302.084
302.166
302.239
302.301
302.355
302.4
302.437
302.468
302.494
302.516
302.536
302.556
302.578
302.609
302.653
302.722
302.829
302.99
303.225
303.546
303.948
304.412
305.006
305.85
306.94
300.207
300.595
300.933
301.201
301.4
301.554
301.685
301.805
301.915
302.016
302.109
302.192
302.265
302.329
302.383
302.428
302.466
302.497
302.523
302.546
302.567
302.588
302.612
302.644
302.691
302.762
302.872
303.037
303.275
303.598
304
304.462
305.055
305.898
306.987
300.21
300.603
300.944
301.215
301.415
301.571
301.704
301.825
301.937
302.04
302.133
302.218
302.292
302.356
302.41
302.456
302.494
302.526
302.553
302.576
302.598
302.62
302.645
302.679
302.728
302.803
302.915
303.083
303.324
303.649
304.051
304.511
305.102
305.944
307.032
300.212
300.61
300.955
301.229
301.431
301.588
301.723
301.845
301.958
302.063
302.158
302.243
302.318
302.383
302.438
302.484
302.523
302.555
302.582
302.606
302.629
302.652
302.679
302.714
302.766
302.842
302.958
303.129
303.373
303.699
304.101
304.559
305.148
305.989
307.077
300.215
300.617
300.967
301.243
301.446
301.605
301.741
301.865
301.98
302.086
302.182
302.269
302.344
302.41
302.465
302.512
302.551
302.584
302.611
302.636
302.659
302.684
302.712
302.749
302.803
302.882
303
303.174
303.42
303.748
304.149
304.606
305.193
306.033
307.12
300.217
300.624
300.978
301.256
301.461
301.622
301.76
301.885
302.002
302.109
302.207
302.294
302.371
302.437
302.493
302.54
302.579
302.612
302.641
302.666
302.69
302.715
302.745
302.784
302.839
302.921
303.042
303.219
303.467
303.797
304.197
304.652
305.237
306.076
307.162
300.22
300.631
300.988
301.27
301.477
301.638
301.778
301.905
302.023
302.132
302.231
302.32
302.397
302.463
302.52
302.567
302.607
302.641
302.67
302.696
302.72
302.747
302.778
302.818
302.876
302.96
303.084
303.263
303.514
303.844
304.243
304.696
305.28
306.117
307.203
300.222
300.638
300.999
301.283
301.492
301.655
301.797
301.926
302.045
302.156
302.256
302.345
302.423
302.49
302.547
302.595
302.635
302.669
302.699
302.725
302.751
302.778
302.81
302.853
302.912
302.999
303.125
303.307
303.56
303.891
304.289
304.74
305.321
306.158
307.244
300.225
300.646
301.01
301.297
301.508
301.673
301.816
301.946
302.067
302.179
302.281
302.371
302.449
302.517
302.574
302.623
302.663
302.697
302.727
302.755
302.781
302.809
302.843
302.887
302.948
303.037
303.166
303.35
303.605
303.936
304.334
304.782
305.362
306.198
307.283
300.227
300.653
301.022
301.311
301.523
301.69
301.835
301.967
302.09
302.203
302.305
302.397
302.476
302.544
302.602
302.65
302.691
302.726
302.756
302.784
302.811
302.841
302.876
302.921
302.984
303.075
303.206
303.393
303.649
303.982
304.378
304.824
305.402
306.237
307.322
300.23
300.66
301.033
301.325
301.54
301.708
301.854
301.988
302.113
302.227
302.331
302.423
302.503
302.571
302.629
302.678
302.719
302.754
302.785
302.813
302.841
302.872
302.908
302.955
303.02
303.113
303.247
303.436
303.693
304.026
304.421
304.864
305.441
306.275
307.361
300.232
300.668
301.045
301.34
301.556
301.726
301.874
302.01
302.136
302.252
302.356
302.449
302.529
302.598
302.656
302.705
302.747
302.782
302.814
302.843
302.872
302.903
302.941
302.989
303.056
303.151
303.287
303.478
303.737
304.07
304.463
304.905
305.479
306.313
307.399
300.235
300.675
301.056
301.354
301.573
301.744
301.894
302.032
302.159
302.277
302.382
302.476
302.556
302.625
302.684
302.733
302.775
302.81
302.842
302.872
302.902
302.934
302.973
303.023
303.092
303.189
303.327
303.52
303.781
304.114
304.505
304.944
305.517
306.351
307.437
300.238
300.683
301.069
301.37
301.59
301.763
301.915
302.054
302.183
302.302
302.409
302.503
302.584
302.653
302.711
302.761
302.802
302.839
302.871
302.901
302.932
302.965
303.005
303.057
303.128
303.227
303.367
303.562
303.824
304.158
304.547
304.984
305.555
306.389
307.474
300.241
300.691
301.081
301.385
301.607
301.783
301.936
302.077
302.208
302.328
302.435
302.53
302.612
302.681
302.739
302.789
302.83
302.867
302.899
302.93
302.962
302.996
303.038
303.091
303.164
303.265
303.407
303.604
303.868
304.201
304.588
305.023
305.593
306.426
307.512
300.243
300.699
301.094
301.401
301.625
301.802
301.958
302.101
302.233
302.354
302.463
302.558
302.64
302.709
302.767
302.817
302.859
302.895
302.928
302.959
302.992
303.027
303.07
303.125
303.2
303.303
303.447
303.646
303.911
304.244
304.629
305.062
305.63
306.463
307.55
300.246
300.708
301.107
301.417
301.643
301.822
301.98
302.125
302.259
302.381
302.49
302.586
302.668
302.737
302.795
302.845
302.887
302.923
302.957
302.989
303.022
303.058
303.102
303.159
303.236
303.341
303.488
303.688
303.954
304.287
304.67
305.1
305.668
306.501
307.588
300.249
300.716
301.12
301.433
301.662
301.843
302.002
302.149
302.284
302.408
302.518
302.614
302.696
302.766
302.824
302.873
302.915
302.952
302.985
303.018
303.052
303.089
303.135
303.193
303.272
303.379
303.528
303.731
303.998
304.33
304.711
305.139
305.705
306.538
307.626
300.252
300.725
301.133
301.45
301.68
301.863
302.025
302.173
302.311
302.436
302.547
302.643
302.725
302.794
302.852
302.901
302.943
302.98
303.014
303.047
303.082
303.121
303.168
303.228
303.308
303.418
303.569
303.773
304.041
304.373
304.752
305.178
305.743
306.576
307.664
300.256
300.734
301.147
301.467
301.699
301.884
302.048
302.198
302.337
302.464
302.576
302.672
302.754
302.823
302.881
302.93
302.972
303.009
303.043
303.077
303.112
303.152
303.2
303.262
303.344
303.456
303.609
303.816
304.085
304.416
304.793
305.217
305.781
306.614
307.703
300.259
300.743
301.161
301.484
301.719
301.906
302.071
302.224
302.365
302.492
302.605
302.702
302.784
302.852
302.91
302.959
303
303.037
303.072
303.106
303.142
303.183
303.233
303.297
303.381
303.495
303.65
303.859
304.129
304.46
304.835
305.257
305.82
306.653
307.742
300.262
300.752
301.175
301.501
301.738
301.927
302.095
302.25
302.392
302.521
302.634
302.731
302.813
302.882
302.939
302.987
303.029
303.066
303.101
303.135
303.172
303.215
303.266
303.331
303.418
303.534
303.692
303.902
304.174
304.504
304.876
305.296
305.859
306.692
307.782
300.265
300.762
301.19
301.519
301.758
301.949
302.119
302.276
302.42
302.55
302.664
302.761
302.843
302.911
302.968
303.016
303.058
303.095
303.13
303.165
303.203
303.246
303.299
303.366
303.455
303.574
303.734
303.946
304.218
304.548
304.918
305.336
305.898
306.731
307.822
300.269
300.771
301.204
301.537
301.778
301.972
302.144
302.302
302.448
302.58
302.694
302.792
302.873
302.941
302.997
303.045
303.086
303.123
303.159
303.194
303.233
303.277
303.332
303.401
303.492
303.613
303.776
303.99
304.263
304.592
304.96
305.376
305.937
306.771
307.862
300.272
300.781
301.219
301.555
301.799
301.994
302.169
302.329
302.477
302.61
302.725
302.822
302.904
302.971
303.027
303.074
303.115
303.152
303.188
303.224
303.263
303.309
303.365
303.436
303.529
303.653
303.818
304.034
304.308
304.636
305.002
305.416
305.977
306.811
307.902
300.276
300.791
301.234
301.573
301.82
302.017
302.194
302.357
302.506
302.64
302.755
302.853
302.934
303.001
303.056
303.103
303.144
303.181
303.217
303.253
303.293
303.34
303.397
303.47
303.566
303.692
303.86
304.078
304.353
304.68
305.044
305.457
306.017
306.851
307.942
300.279
300.801
301.25
301.592
301.841
302.041
302.22
302.385
302.536
302.671
302.786
302.884
302.965
303.031
303.086
303.132
303.173
303.21
303.246
303.283
303.323
303.371
303.43
303.505
303.603
303.732
303.902
304.122
304.398
304.724
305.086
305.497
306.056
306.89
307.982
300.283
300.811
301.265
301.611
301.862
302.065
302.246
302.413
302.566
302.702
302.818
302.915
302.996
303.061
303.116
303.162
303.202
303.239
303.275
303.312
303.354
303.403
303.463
303.54
303.64
303.771
303.944
304.166
304.443
304.768
305.127
305.537
306.096
306.93
308.021
300.286
300.822
301.281
301.63
301.884
302.089
302.272
302.442
302.597
302.733
302.85
302.947
303.027
303.092
303.146
303.191
303.231
303.268
303.304
303.342
303.384
303.434
303.496
303.574
303.676
303.81
303.985
304.21
304.487
304.811
305.169
305.577
306.135
306.969
308.06
300.29
300.832
301.297
301.649
301.906
302.113
302.299
302.471
302.628
302.765
302.882
302.978
303.058
303.122
303.176
303.221
303.26
303.297
303.333
303.371
303.414
303.465
303.528
303.609
303.713
303.849
304.027
304.253
304.531
304.854
305.21
305.616
306.175
307.008
308.099
300.294
300.843
301.313
301.669
301.928
302.138
302.327
302.501
302.659
302.797
302.914
303.011
303.089
303.153
303.206
303.25
303.289
303.326
303.362
303.401
303.444
303.496
303.561
303.643
303.75
303.888
304.068
304.296
304.575
304.897
305.25
305.656
306.214
307.047
308.138
300.297
300.853
301.329
301.689
301.951
302.164
302.355
302.532
302.692
302.83
302.947
303.043
303.121
303.184
303.236
303.28
303.318
303.355
303.391
303.43
303.475
303.528
303.594
303.678
303.786
303.927
304.109
304.339
304.618
304.939
305.291
305.695
306.252
307.085
308.176
300.301
300.864
301.346
301.71
301.974
302.19
302.384
302.564
302.725
302.864
302.981
303.077
303.153
303.215
303.266
303.31
303.348
303.384
303.42
303.46
303.505
303.559
303.627
303.712
303.823
303.966
304.15
304.382
304.661
304.981
305.331
305.734
306.291
307.123
308.214
300.305
300.875
301.363
301.731
301.998
302.217
302.414
302.596
302.759
302.899
303.016
303.11
303.186
303.247
303.297
303.34
303.377
303.413
303.45
303.49
303.535
303.591
303.66
303.747
303.86
304.005
304.191
304.424
304.704
305.023
305.37
305.772
306.329
307.162
308.252
300.309
300.886
301.38
301.752
302.023
302.244
302.445
302.63
302.794
302.935
303.051
303.145
303.22
303.279
303.328
303.37
303.407
303.443
303.479
303.519
303.566
303.622
303.693
303.782
303.897
304.044
304.233
304.467
304.747
305.064
305.41
305.81
306.367
307.199
308.289
300.313
300.898
301.398
301.774
302.048
302.273
302.477
302.665
302.831
302.972
303.088
303.18
303.254
303.312
303.36
303.4
303.437
303.472
303.508
303.549
303.596
303.654
303.725
303.817
303.934
304.084
304.274
304.509
304.789
305.105
305.449
305.848
306.405
307.237
308.326
300.317
300.91
301.417
301.797
302.075
302.303
302.51
302.701
302.869
303.01
303.125
303.216
303.288
303.345
303.392
303.431
303.467
303.502
303.538
303.579
303.627
303.685
303.758
303.851
303.97
304.123
304.315
304.551
304.831
305.146
305.488
305.886
306.442
307.274
308.363
300.321
300.922
301.436
301.821
302.102
302.333
302.545
302.738
302.907
303.049
303.163
303.253
303.324
303.379
303.424
303.462
303.497
303.531
303.568
303.608
303.657
303.716
303.791
303.886
304.007
304.162
304.356
304.593
304.873
305.186
305.526
305.923
306.479
307.31
308.398
300.326
300.935
301.456
301.845
302.13
302.365
302.58
302.776
302.947
303.089
303.203
303.291
303.36
303.413
303.457
303.494
303.528
303.561
303.597
303.638
303.687
303.747
303.823
303.92
304.043
304.2
304.396
304.635
304.914
305.226
305.564
305.96
306.515
307.346
308.433
300.33
300.949
301.476
301.871
302.159
302.398
302.617
302.816
302.988
303.13
303.243
303.329
303.396
303.448
303.49
303.526
303.559
303.592
303.627
303.668
303.717
303.778
303.856
303.954
304.079
304.238
304.436
304.675
304.955
305.265
305.601
305.996
306.551
307.38
308.467
300.335
300.962
301.497
301.897
302.189
302.432
302.654
302.857
303.03
303.172
303.283
303.368
303.433
303.483
303.524
303.558
303.59
303.622
303.657
303.698
303.748
303.809
303.888
303.988
304.115
304.275
304.475
304.715
304.994
305.303
305.637
306.031
306.585
307.414
308.5
300.34
300.977
301.519
301.924
302.22
302.467
302.693
302.898
303.074
303.215
303.325
303.408
303.471
303.519
303.557
303.591
303.621
303.653
303.687
303.728
303.778
303.84
303.92
304.021
304.15
304.312
304.513
304.754
305.033
305.34
305.672
306.065
306.619
307.447
308.532
300.345
300.991
301.542
301.952
302.252
302.503
302.734
302.941
303.118
303.259
303.367
303.448
303.509
303.555
303.592
303.623
303.653
303.684
303.718
303.758
303.808
303.871
303.951
304.054
304.184
304.348
304.551
304.792
305.07
305.376
305.707
306.098
306.652
307.479
308.563
300.35
301.006
301.565
301.98
302.285
302.54
302.775
302.985
303.162
303.303
303.41
303.489
303.547
303.591
303.626
303.657
303.685
303.715
303.749
303.789
303.839
303.902
303.983
304.087
304.218
304.384
304.587
304.83
305.107
305.411
305.74
306.131
306.684
307.51
308.593
300.356
301.022
301.589
302.01
302.318
302.578
302.817
303.03
303.208
303.348
303.453
303.53
303.586
303.628
303.662
303.69
303.718
303.747
303.78
303.82
303.87
303.933
304.015
304.12
304.253
304.419
304.624
304.866
305.143
305.445
305.773
306.163
306.715
307.541
308.623
300.361
301.038
301.613
302.04
302.353
302.618
302.86
303.076
303.255
303.394
303.497
303.572
303.626
303.665
303.697
303.724
303.751
303.779
303.811
303.851
303.901
303.965
304.047
304.152
304.286
304.454
304.659
304.902
305.178
305.479
305.805
306.194
306.746
307.57
308.652
300.367
301.054
301.638
302.071
302.389
302.658
302.905
303.124
303.303
303.441
303.542
303.614
303.665
303.703
303.733
303.759
303.784
303.811
303.843
303.882
303.932
303.996
304.079
304.185
304.321
304.489
304.695
304.938
305.213
305.512
305.837
306.225
306.776
307.6
308.681
300.373
301.071
301.664
302.103
302.426
302.7
302.951
303.172
303.352
303.489
303.588
303.657
303.706
303.741
303.769
303.793
303.817
303.843
303.875
303.914
303.964
304.028
304.112
304.219
304.355
304.524
304.73
304.973
305.247
305.544
305.867
306.254
306.806
307.629
308.709
300.379
301.088
301.691
302.136
302.464
302.743
302.999
303.223
303.403
303.538
303.634
303.701
303.747
303.78
303.806
303.828
303.851
303.876
303.907
303.946
303.996
304.061
304.145
304.252
304.389
304.559
304.766
305.008
305.281
305.577
305.899
306.285
306.836
307.658
308.738
300.385
301.106
301.718
302.17
302.504
302.788
303.049
303.276
303.456
303.589
303.683
303.746
303.789
303.82
303.843
303.864
303.885
303.909
303.94
303.978
304.028
304.093
304.177
304.286
304.423
304.594
304.801
305.043
305.314
305.608
305.928
306.313
306.864
307.686
308.765
300.391
301.125
301.747
302.206
302.545
302.835
303.101
303.33
303.511
303.642
303.732
303.792
303.832
303.86
303.881
303.9
303.92
303.943
303.973
304.011
304.061
304.126
304.211
304.32
304.459
304.63
304.837
305.078
305.348
305.64
305.959
306.343
306.894
307.715
308.794
300.398
301.144
301.777
302.243
302.588
302.885
303.156
303.388
303.568
303.697
303.784
303.84
303.876
303.901
303.919
303.936
303.955
303.977
304.006
304.044
304.094
304.159
304.245
304.354
304.493
304.665
304.872
305.112
305.381
305.671
305.988
306.372
306.921
307.742
308.82
300.405
301.164
301.808
302.281
302.632
302.935
303.212
303.447
303.626
303.753
303.836
303.889
303.921
303.942
303.959
303.973
303.99
304.012
304.04
304.077
304.127
304.193
304.279
304.389
304.529
304.701
304.908
305.147
305.414
305.703
306.019
306.401
306.951
307.771
308.848
300.413
301.186
301.84
302.32
302.678
302.988
303.27
303.507
303.686
303.81
303.89
303.938
303.967
303.985
303.998
304.011
304.026
304.047
304.074
304.111
304.16
304.226
304.313
304.424
304.564
304.736
304.943
305.181
305.446
305.733
306.047
306.429
306.978
307.797
308.874
300.42
301.207
301.873
302.36
302.724
303.041
303.328
303.568
303.747
303.868
303.944
303.988
304.013
304.028
304.039
304.05
304.063
304.082
304.109
304.145
304.195
304.261
304.348
304.459
304.6
304.773
304.979
305.216
305.48
305.765
306.077
306.458
307.007
307.826
308.902
300.428
301.229
301.905
302.401
302.771
303.094
303.387
303.629
303.808
303.927
303.999
304.039
304.06
304.072
304.08
304.088
304.1
304.118
304.144
304.18
304.229
304.295
304.382
304.494
304.635
304.807
305.013
305.249
305.511
305.794
306.105
306.485
307.034
307.852
308.927
300.436
301.251
301.939
302.441
302.819
303.148
303.447
303.691
303.869
303.986
304.054
304.09
304.108
304.116
304.121
304.128
304.138
304.155
304.179
304.215
304.264
304.33
304.417
304.53
304.671
304.844
305.049
305.284
305.545
305.826
306.135
306.514
307.063
307.88
308.955
300.443
301.273
301.972
302.482
302.867
303.203
303.507
303.754
303.932
304.045
304.11
304.142
304.156
304.161
304.163
304.168
304.176
304.191
304.215
304.25
304.299
304.365
304.452
304.565
304.706
304.879
305.083
305.317
305.575
305.854
306.162
306.541
307.088
307.905
308.98
300.451
301.295
302.006
302.524
302.915
303.259
303.569
303.818
303.995
304.106
304.167
304.195
304.205
304.206
304.206
304.208
304.215
304.229
304.252
304.286
304.335
304.401
304.489
304.601
304.743
304.916
305.12
305.352
305.609
305.886
306.192
306.57
307.118
307.934
309.009
300.459
301.318
302.04
302.567
302.965
303.316
303.631
303.883
304.06
304.168
304.225
304.249
304.254
304.252
304.249
304.249
304.254
304.267
304.289
304.323
304.371
304.437
304.524
304.637
304.778
304.95
305.153
305.384
305.639
305.914
306.219
306.596
307.143
307.959
309.033
300.467
301.341
302.075
302.61
303.016
303.375
303.695
303.95
304.126
304.232
304.285
304.304
304.305
304.299
304.293
304.29
304.294
304.305