/*--------------------------------*- C++ -*----------------------------------*\
| =========                 |                                                 |
| \\      /  F ield         | OpenFOAM: The Open Source CFD Toolbox           |
|  \\    /   O peration     | Version:  v1906                                 |
|   \\  /    A nd           | Web:      www.OpenFOAM.com                      |
|    \\/     M anipulation  |                                                 |
\*---------------------------------------------------------------------------*/
FoamFile
{
    version     2.0;
    format      ascii;
    class       surfaceScalarField;
    location    "23.8/oil";
    object      phi;
}
// * * * * * * * * * * * * * * * * * * * * * * * * * * * * * * * * * * * * * //

dimensions      [1 0 -1 0 0 0 0];
oriented        oriented;


internalField   nonuniform List<scalar> 
80688
(
-2.53681e-06
-2.58056e-06
-2.53681e-06
-1.14682e-06
-7.18482e-07
-6.71507e-07
-3.14789e-07
-4.18236e-07
-4.138e-07
-1.59464e-07
-7.76188e-08
-7.77061e-08
-7.10892e-08
-4.42835e-08
-4.40913e-08
-3.07017e-08
-2.04635e-08
-1.99239e-08
-1.05668e-08
-1.04238e-08
-9.71118e-09
-2.11209e-10
-5.58667e-09
-4.76886e-09
5.07238e-09
-3.10705e-09
-2.17652e-09
7.39819e-09
-1.70028e-09
-6.2551e-10
7.79235e-09
-8.18296e-10
4.24154e-10
6.81879e-09
-2.20838e-10
1.19441e-09
4.85136e-09
1.98708e-10
1.76874e-09
2.20446e-09
4.82268e-10
2.16464e-09
-8.15418e-10
6.37392e-10
2.3825e-09
-3.91038e-09
6.74308e-10
2.42066e-09
-6.80028e-09
6.02104e-10
2.28781e-09
-9.24075e-09
4.34134e-10
2.00634e-09
-1.10417e-08
1.88123e-10
1.61281e-09
-1.20839e-08
-1.07686e-10
1.14989e-09
-1.23235e-08
-4.28011e-10
6.67686e-10
-1.17872e-08
-7.54932e-10
2.18566e-10
-1.05657e-08
-1.06252e-09
-1.58893e-10
-8.80803e-09
-1.32858e-09
-4.29106e-10
-6.7149e-09
-1.53321e-09
-5.59906e-10
-4.52524e-09
-1.64706e-09
-5.42592e-10
-2.50854e-09
-1.62693e-09
-3.89751e-10
-9.46298e-10
-1.4104e-09
-1.51831e-10
-8.32086e-11
-9.13921e-10
5.08436e-11
-1.74308e-10
9.11076e-11
-6.84206e-07
-1.21215e-06
-6.84206e-07
-4.13283e-07
-4.38566e-07
-5.50838e-07
-3.01184e-07
-2.91875e-07
-2.3846e-07
-1.5771e-07
-1.2252e-07
-9.85728e-08
-7.91099e-08
-7.06071e-08
-5.22766e-08
-3.55845e-08
-3.94147e-08
-2.45742e-08
-1.03965e-08
-2.48178e-08
-1.0794e-08
4.1196e-09
-1.6896e-08
-3.20673e-09
1.20924e-08
-1.24158e-08
1.33598e-09
1.56423e-08
-9.62552e-09
4.3754e-09
1.59463e-08
-7.7392e-09
6.61692e-09
1.37583e-08
-6.38651e-09
8.3537e-09
9.68158e-09
-5.40634e-09
9.68174e-09
4.28954e-09
-4.73749e-09
1.06118e-08
-1.83774e-09
-4.35869e-09
1.11234e-08
-8.11433e-09
-4.25674e-09
1.12077e-08
-1.39827e-08
-4.41103e-09
1.08815e-08
-1.89559e-08
-4.78645e-09
1.01938e-08
-2.26584e-08
-5.33308e-09
9.22372e-09
-2.48475e-08
-5.98895e-09
8.0704e-09
-2.54304e-08
-6.68838e-09
6.8433e-09
-2.44634e-08
-7.36521e-09
5.64319e-09
-2.21334e-08
-7.95425e-09
4.56183e-09
-1.87391e-08
-8.39069e-09
3.66773e-09
-1.46693e-08
-8.60357e-09
3.00063e-09
-1.03769e-08
-8.50167e-09
2.5622e-09
-6.34581e-09
-7.96018e-09
2.30218e-09
-3.0441e-09
-6.80858e-09
2.09648e-09
-8.50881e-10
-4.82178e-09
1.71466e-09
-1.88442e-09
8.59242e-10
-4.2758e-07
-3.56992e-07
-4.2758e-07
-2.91193e-07
-3.2919e-07
-2.45763e-07
-2.02958e-07
-2.24854e-07
-1.55256e-07
-1.17229e-07
-1.27299e-07
-8.09498e-08
-6.25361e-08
-8.2852e-08
-4.2448e-08
-2.68904e-08
-5.55284e-08
-1.9532e-08
-4.14569e-09
-4.08234e-08
-6.739e-09
1.00062e-08
-3.20616e-08
1.01372e-09
1.80878e-08
-2.66161e-08
6.11865e-09
2.15702e-08
-2.29388e-08
9.83092e-09
2.13797e-08
-2.02841e-08
1.27354e-08
1.82117e-08
-1.82878e-08
1.50694e-08
1.27137e-08
-1.6796e-08
1.68876e-08
5.56127e-09
-1.57558e-08
1.81708e-08
-2.5196e-09
-1.5155e-08
1.88772e-08
-1.07823e-08
-1.49819e-08
1.89879e-08
-1.85097e-08
-1.52058e-08
1.85222e-08
-2.50712e-08
-1.57696e-08
1.75447e-08
-2.99808e-08
-1.65869e-08
1.61634e-08
-3.29267e-08
-1.7554e-08
1.45109e-08
-3.37948e-08
-1.85552e-08
1.2735e-08
-3.26566e-08
-1.94738e-08
1.09704e-08
-2.97552e-08
-2.01935e-08
9.33785e-09
-2.54705e-08
-2.0595e-08
7.91959e-09
-2.02881e-08
-2.05449e-08
6.75905e-09
-1.476e-08
-1.98766e-08
5.84681e-09
-9.45556e-09
-1.83698e-08
5.10523e-09
-4.91014e-09
-1.57197e-08
4.36571e-09
-1.58219e-09
-1.14861e-08
3.33638e-09
-5.05705e-09
1.59045e-09
-8.44671e-08
-1.88058e-07
-8.44667e-08
-1.17102e-07
-1.94664e-07
-1.01891e-07
-1.01256e-07
-1.59285e-07
-8.1415e-08
-6.61061e-08
-1.14382e-07
-4.80672e-08
-3.56773e-08
-8.73427e-08
-2.59382e-08
-1.17436e-08
-6.86371e-08
-1.0825e-08
5.52764e-09
-5.7045e-08
-1.04964e-09
1.71651e-08
-4.93455e-08
5.64647e-09
2.40011e-08
-4.40291e-08
1.05769e-08
2.66729e-08
-4.01006e-08
1.44901e-08
2.57008e-08
-3.70512e-08
1.77392e-08
2.16035e-08
-3.46354e-08
2.04449e-08
1.49783e-08
-3.27658e-08
2.2595e-08
6.52826e-09
-3.14331e-08
2.41273e-08
-2.94871e-09
-3.06496e-08
2.49715e-08
-1.26101e-08
-3.04143e-08
2.50938e-08
-2.16376e-08
-3.06917e-08
2.45134e-08
-2.93099e-08
-3.14042e-08
2.33069e-08
-3.50682e-08
-3.24322e-08
2.16036e-08
-3.85607e-08
-3.36259e-08
1.95644e-08
-3.96593e-08
-3.48198e-08
1.73631e-08
-3.84519e-08
-3.58446e-08
1.51635e-08
-3.52151e-08
-3.65318e-08
1.31015e-08
-3.0378e-08
-3.67027e-08
1.12707e-08
-2.44769e-08
-3.61613e-08
9.71534e-09
-1.81094e-08
-3.4662e-08
8.41785e-09
-1.18861e-08
-3.18776e-08
7.2845e-09
-6.38364e-09
-2.7342e-08
6.11978e-09
-2.15328e-09
-2.03071e-08
4.5906e-09
-9.37337e-09
2.16304e-09
-4.47393e-08
-9.858e-08
-4.47386e-08
-5.93998e-08
-1.27661e-07
-5.23421e-08
-5.23151e-08
-1.24113e-07
-4.22566e-08
-3.39235e-08
-1.06839e-07
-2.59354e-08
-1.50836e-08
-9.31558e-08
-1.30268e-08
1.56171e-09
-8.21269e-08
-3.15555e-09
1.46434e-08
-7.42341e-08
4.10746e-09
2.39112e-08
-6.83217e-08
9.70839e-09
2.93458e-08
-6.37534e-08
1.42898e-08
3.10597e-08
-6.00437e-08
1.82291e-08
2.92699e-08
-5.6942e-08
2.16807e-08
2.43379e-08
-5.43527e-08
2.46494e-08
1.67954e-08
-5.22786e-08
2.70553e-08
7.34295e-09
-5.07653e-08
2.87847e-08
-3.18168e-09
-4.98615e-08
2.97366e-08
-1.38757e-08
-4.95811e-08
2.98609e-08
-2.38525e-08
-4.9888e-08
2.91731e-08
-3.23278e-08
-5.06891e-08
2.77602e-08
-3.86967e-08
-5.18356e-08
2.57723e-08
-4.25818e-08
-5.31372e-08
2.33964e-08
-4.38506e-08
-5.43852e-08
2.08342e-08
-4.26043e-08
-5.53616e-08
1.82707e-08
-3.91463e-08
-5.58448e-08
1.5855e-08
-3.39348e-08
-5.56064e-08
1.36922e-08
-2.75348e-08
-5.4388e-08
1.18265e-08
-2.05687e-08
-5.18633e-08
1.02353e-08
-1.36699e-08
-4.75904e-08
8.81399e-09
-7.45299e-09
-4.09061e-08
7.34733e-09
-2.5569e-09
-3.06741e-08
5.47099e-09
-1.44993e-08
2.56904e-09
-1.81991e-08
-6.21827e-08
-1.81982e-08
-2.5078e-08
-9.76866e-08
-2.30959e-08
-2.20642e-08
-1.0809e-07
-1.90364e-08
-1.17839e-08
-1.05992e-07
-1.11265e-08
4.67101e-10
-1.01729e-07
-3.6773e-09
1.23781e-08
-9.68257e-08
2.78785e-09
2.23805e-08
-9.24624e-08
8.22601e-09
2.96913e-08
-8.85818e-08
1.29494e-08
3.38553e-08
-8.51264e-08
1.72089e-08
3.46677e-08
-8.19929e-08
2.11369e-08
3.21392e-08
-7.91532e-08
2.47396e-08
2.6507e-08
-7.66478e-08
2.79273e-08
1.82413e-08
-7.45661e-08
3.05532e-08
8.03187e-09
-7.3011e-08
3.24551e-08
-3.26313e-09
-7.2065e-08
3.34985e-08
-1.47023e-08
-7.17592e-08
3.36172e-08
-2.53542e-08
-7.20601e-08
3.28241e-08
-3.43902e-08
-7.2866e-08
3.12129e-08
-4.11758e-08
-7.40056e-08
2.89557e-08
-4.53203e-08
-7.52601e-08
2.62674e-08
-4.66939e-08
-7.6388e-08
2.33765e-08
-4.54119e-08
-7.71303e-08
2.04867e-08
-4.17983e-08
-7.72284e-08
1.777e-08
-3.63312e-08
-7.64068e-08
1.53333e-08
-2.95928e-08
-7.43493e-08
1.3223e-08
-2.2218e-08
-7.06505e-08
1.14123e-08
-1.48566e-08
-6.47413e-08
9.78958e-09
-8.15227e-09
-5.57358e-08
8.12535e-09
-2.81334e-09
-4.20421e-08
6.02905e-09
-2.01406e-08
2.82794e-09
-7.06592e-09
-4.80518e-08
-7.06499e-09
-9.14595e-09
-8.66709e-08
-8.93567e-09
-5.98981e-09
-1.04599e-07
-6.64713e-09
1.518e-09
-1.11221e-07
-2.27903e-09
1.07343e-08
-1.13317e-07
2.37153e-09
2.00308e-08
-1.13015e-07
6.89241e-09
2.80773e-08
-1.1169e-07
1.11807e-08
3.39963e-08
-1.09811e-07
1.53101e-08
3.71824e-08
-1.07654e-07
1.93414e-08
3.72774e-08
-1.05356e-07
2.32686e-08
3.41733e-08
-1.03051e-07
2.70017e-08
2.80265e-08
-1.0088e-07
3.0379e-08
1.92627e-08
-9.89978e-08
3.31956e-08
8.5524e-09
-9.75505e-08
3.52497e-08
-3.2349e-09
-9.66503e-08
3.63726e-08
-1.5138e-08
-9.63377e-08
3.64816e-08
-2.61998e-08
-9.65848e-08
3.55865e-08
-3.5565e-08
-9.72897e-08
3.37889e-08
-4.25839e-08
-9.82708e-08
3.12841e-08
-4.68597e-08
-9.92941e-08
2.83098e-08
-4.82723e-08
-1.00097e-07
2.51221e-08
-4.69516e-08
-1.00402e-07
2.19514e-08
-4.32388e-08
-9.99206e-08
1.89794e-08
-3.76241e-08
-9.83427e-08
1.63212e-08
-3.06985e-08
-9.52996e-08
1.40247e-08
-2.31009e-08
-9.03063e-08
1.20582e-08
-1.54873e-08
-8.2659e-08
1.03041e-08
-8.51906e-09
-7.12292e-08
8.52514e-09
-2.94439e-09
-5.39307e-08
6.31397e-09
-2.60459e-08
2.961e-09
-1.97886e-09
-4.40949e-08
-1.97799e-09
-1.04526e-09
-8.57849e-08
-1.8196e-09
2.85432e-09
-1.08484e-07
-1.51418e-11
9.37673e-09
-1.20548e-07
2.80394e-09
1.71054e-08
-1.27071e-07
6.02525e-09
2.48936e-08
-1.30262e-07
9.45961e-09
3.16723e-08
-1.31517e-07
1.30482e-08
3.66159e-08
-1.31545e-07
1.67904e-08
3.90839e-08
-1.30784e-07
2.06626e-08
3.86639e-08
-1.29521e-07
2.4585e-08
3.51832e-08
-1.27981e-07
2.84106e-08
2.8747e-08
-1.26375e-07
3.19315e-08
1.97446e-08
-1.24893e-07
3.48981e-08
8.83038e-09
-1.23706e-07
3.70698e-08
-3.13339e-09
-1.22936e-07
3.82491e-08
-1.51854e-08
-1.22632e-07
3.83467e-08
-2.63652e-08
-1.22773e-07
3.7368e-08
-3.58089e-08
-1.23262e-07
3.54156e-08
-4.28658e-08
-1.23918e-07
3.27039e-08
-4.71431e-08
-1.24515e-07
2.9498e-08
-4.85336e-08
-1.24785e-07
2.60781e-08
-4.71823e-08
-1.24445e-07
2.26911e-08
-4.34386e-08
-1.23193e-07
1.95282e-08
-3.77991e-08
-1.20695e-07
1.67124e-08
-3.08533e-08
-1.16538e-07
1.42926e-08
-2.32332e-08
-1.10161e-07
1.22342e-08
-1.55873e-08
-1.00719e-07
1.04143e-08
-8.57787e-09
-8.68305e-08
8.59182e-09
-2.96424e-09
-6.58994e-08
6.35505e-09
-3.19923e-08
2.98208e-09
3.24743e-10
-4.4745e-08
3.25369e-10
2.87122e-09
-8.99787e-08
1.64742e-09
7.36359e-09
-1.16324e-07
3.34794e-09
1.35017e-08
-1.3217e-07
5.48454e-09
2.04164e-08
-1.41952e-07
7.96593e-09
2.72553e-08
-1.47881e-07
1.07798e-08
3.31615e-08
-1.51345e-07
1.39218e-08
3.73961e-08
-1.53157e-07
1.73777e-08
3.93525e-08
-1.53841e-07
2.10998e-08
3.86045e-08
-1.53747e-07
2.49739e-08
3.49624e-08
-1.53158e-07
2.88189e-08
2.84919e-08
-1.52302e-07
3.2397e-08
1.95557e-08
-1.51383e-07
3.54262e-08
8.7812e-09
-1.50578e-07
3.76467e-08
-2.98975e-09
-1.50012e-07
3.88472e-08
-1.48238e-08
-1.4973e-07
3.89316e-08
-2.57845e-08
-1.49715e-07
3.79027e-08
-3.5025e-08
-1.49883e-07
3.58615e-08
-4.19063e-08
-1.50072e-07
3.3036e-08
-4.60513e-08
-1.50069e-07
2.96987e-08
-4.73658e-08
-1.49615e-07
2.61449e-08
-4.60046e-08
-1.48448e-07
2.26417e-08
-4.23187e-08
-1.46266e-07
1.93874e-08
-3.68027e-08
-1.42717e-07
1.6507e-08
-3.00279e-08
-1.37356e-07
1.40434e-08
-2.2606e-08
-1.29544e-07
1.19619e-08
-1.51625e-08
-1.18308e-07
1.01449e-08
-8.33977e-09
-1.02003e-07
8.34941e-09
-2.87886e-09
-7.75289e-08
6.16859e-09
-3.77681e-08
2.89699e-09
1.3105e-09
-4.73662e-08
1.31073e-09
4.57665e-09
-9.64212e-08
3.17631e-09
9.28005e-09
-1.25851e-07
4.82385e-09
1.50785e-08
-1.44572e-07
6.60383e-09
2.13475e-08
-1.56878e-07
8.65708e-09
2.74254e-08
-1.65024e-07
1.10647e-08
3.26189e-08
-1.70404e-07
1.38655e-08
3.62754e-08
-1.73867e-07
1.70536e-08
3.78497e-08
-1.75984e-07
2.05691e-08
3.69376e-08
-1.7713e-07
2.42944e-08
3.33381e-08
-1.77591e-07
2.80332e-08
2.71057e-08
-1.77602e-07
3.15328e-08
1.85739e-08
-1.77357e-07
3.4505e-08
8.33048e-09
-1.7702e-07
3.66857e-08
-2.82873e-09
-1.76703e-07
3.78503e-08
-1.40296e-08
-1.7645e-07
3.79209e-08
-2.43945e-08
-1.76249e-07
3.68989e-08
-3.31165e-08
-1.76026e-07
3.48654e-08
-3.95905e-08
-1.75645e-07
3.20461e-08
-4.34639e-08
-1.74915e-07
2.87202e-08
-4.46543e-08
-1.73617e-07
2.51916e-08
-4.33205e-08
-1.71499e-07
2.17178e-08
-3.98075e-08
-1.68281e-07
1.85023e-08
-3.45836e-08
-1.6361e-07
1.56684e-08
-2.8192e-08
-1.57008e-07
1.32601e-08
-2.12053e-08
-1.47776e-07
1.12447e-08
-1.42127e-08
-1.348e-07
9.49983e-09
-7.81001e-09
-1.16204e-07
7.7986e-09
-2.69207e-09
-8.84074e-08
5.7606e-09
-4.31698e-08
2.70958e-09
1.62567e-09
-5.0617e-08
1.62512e-09
5.00439e-09
-1.03416e-07
3.61643e-09
9.51607e-09
-1.35517e-07
5.15386e-09
1.47953e-08
-1.56527e-07
6.67507e-09
2.03552e-08
-1.70843e-07
8.40546e-09
2.5664e-08
-1.80808e-07
1.0475e-08
3.01494e-08
-1.87831e-07
1.29423e-08
3.32648e-08
-1.92789e-07
1.58063e-08
3.45273e-08
-1.96259e-07
1.90125e-08
3.35728e-08
-1.98618e-07
2.24427e-08
3.02167e-08
-2.00138e-07
2.59031e-08
2.45028e-08
-2.01041e-07
2.91522e-08
1.67296e-08
-2.01492e-07
3.19084e-08
7.43205e-09
-2.01645e-07
3.39219e-08
-2.6691e-09
-2.01586e-07
3.49841e-08
-1.27937e-08
-2.01366e-07
3.50403e-08
-2.21587e-08
-2.00971e-07
3.40872e-08
-3.00258e-08
-2.00344e-07
3.21852e-08
-3.58503e-08
-1.99366e-07
2.95462e-08
-3.93113e-08
-1.97875e-07
2.64208e-08
-4.03329e-08
-1.95693e-07
2.3098e-08
-3.90758e-08
-1.9259e-07
1.98332e-08
-3.58609e-08
-1.88317e-07
1.68209e-08
-3.11168e-08
-1.82528e-07
1.41741e-08
-2.53357e-08
-1.74724e-07
1.19354e-08
-1.90374e-08
-1.6415e-07
1.00756e-08
-1.27435e-08
-1.4958e-07
8.48648e-09
-6.99264e-09
-1.28912e-07
6.95709e-09
-2.4068e-09
-9.81318e-08
5.13861e-09
-4.79994e-08
2.4229e-09
1.56672e-09
-5.37491e-08
1.5654e-09
4.63399e-09
-1.09877e-07
3.3933e-09
8.59867e-09
-1.44208e-07
4.72705e-09
1.31134e-08
-1.67034e-07
5.99207e-09
1.77949e-08
-1.82946e-07
7.42167e-09
2.22151e-08
-1.94375e-07
9.14724e-09
2.59199e-08
-2.02765e-07
1.12289e-08
2.84666e-08
-2.09012e-07
1.36768e-08
2.94436e-08
-2.13676e-07
1.64404e-08
2.85499e-08
-2.17135e-07
1.9411e-08
2.56264e-08
-2.19631e-07
2.24167e-08
2.06982e-08
-2.21352e-07
2.52392e-08
1.40353e-08
-2.22451e-07
2.76225e-08
6.08681e-09
-2.23048e-07
2.93522e-08
-2.52315e-09
-2.23228e-07
3.02525e-08
-1.11411e-08
-2.23041e-07
3.02938e-08
-1.91084e-08
-2.2248e-07
2.94762e-08
-2.57965e-08
-2.2148e-07
2.78237e-08
-3.07295e-08
-2.19946e-07
2.55132e-08
-3.36282e-08
-2.17747e-07
2.27703e-08
-3.44474e-08
-2.14727e-07
1.98528e-08
-3.3319e-08
-2.10708e-07
1.69898e-08
-3.05275e-08
-2.0546e-07
1.43515e-08
-2.64485e-08
-1.98645e-07
1.20383e-08
-2.15034e-08
-1.89761e-07
1.00923e-08
-1.61311e-08
-1.78006e-07
8.48363e-09
-1.07812e-08
-1.62052e-07
7.12157e-09
-5.9065e-09
-1.39616e-07
5.82982e-09
-2.02675e-09
-1.06322e-07
4.31031e-09
-5.2067e-08
2.04082e-09
1.28417e-09
-5.63155e-08
1.28223e-09
3.73717e-09
-1.15079e-07
2.74945e-09
6.85459e-09
-1.51118e-07
3.79234e-09
1.03609e-08
-1.75302e-07
4.76193e-09
1.39595e-08
-1.92404e-07
5.85907e-09
1.73396e-08
-2.04951e-07
7.19573e-09
2.01609e-08
-2.14406e-07
8.8201e-09
2.20807e-08
-2.21679e-07
1.07472e-08
2.2787e-08
-2.27317e-07
1.29343e-08
2.20372e-08
-2.31677e-07
1.52919e-08
1.97035e-08
-2.34978e-07
1.768e-08
1.58114e-08
-2.37371e-07
1.99111e-08
1.05706e-08
-2.3899e-07
2.17792e-08
4.33543e-09
-2.39936e-07
2.31229e-08
-2.39831e-09
-2.40304e-07
2.38091e-08
-9.12707e-09
-2.40146e-07
2.38334e-08
-1.53453e-08
-2.39456e-07
2.31945e-08
-2.05449e-08
-2.38174e-07
2.1894e-08
-2.43579e-08
-2.36198e-07
2.00652e-08
-2.65702e-08
-2.33415e-07
1.78805e-08
-2.71432e-08
-2.29706e-07
1.55528e-08
-2.61899e-08
-2.24924e-07
1.32631e-08
-2.39403e-08
-2.18861e-07
1.1152e-08
-2.06963e-08
-2.11201e-07
9.31138e-09
-1.67875e-08
-2.0144e-07
7.76949e-09
-1.25668e-08
-1.88731e-07
6.50453e-09
-8.37867e-09
-1.71689e-07
5.44845e-09
-4.57431e-09
-1.47881e-07
4.46063e-09
-1.56429e-09
-1.12639e-07
3.30674e-09
-5.52074e-08
1.57607e-09
8.59922e-10
-5.80311e-08
8.55669e-10
2.47883e-09
-1.18519e-07
1.82086e-09
4.52214e-09
-1.55659e-07
2.49713e-09
6.80613e-09
-1.80717e-07
3.13173e-09
9.14925e-09
-1.98607e-07
3.85973e-09
1.13484e-08
-2.11908e-07
4.75795e-09
1.31817e-08
-2.22108e-07
5.86857e-09
1.44213e-08
-2.30113e-07
7.19446e-09
1.4859e-08
-2.36463e-07
8.70846e-09
1.43249e-08
-2.41487e-07
1.03437e-08
1.27273e-08
-2.45379e-07
1.19988e-08
1.00782e-08
-2.48273e-07
1.35517e-08
6.5107e-09
-2.50278e-07
1.48553e-08
2.27334e-09
-2.51489e-07
1.57897e-08
-2.2961e-09
-2.51994e-07
1.62597e-08
-6.84866e-09
-2.5186e-07
1.62663e-08
-1.10322e-08
-2.51082e-07
1.58092e-08
-1.45058e-08
-2.49586e-07
1.48857e-08
-1.70155e-08
-2.47287e-07
1.35984e-08
-1.84197e-08
-2.44076e-07
1.20653e-08
-1.87016e-08
-2.39859e-07
1.04342e-08
-1.7952e-08
-2.34516e-07
8.84193e-09
-1.63352e-08
-2.27862e-07
7.38367e-09
-1.40605e-08
-2.19593e-07
6.1172e-09
-1.13599e-08
-2.09209e-07
5.06849e-09
-8.46784e-09
-1.95844e-07
4.22116e-09
-5.61648e-09
-1.78062e-07
3.52232e-09
-3.04907e-09
-1.53335e-07
2.88666e-09
-1.03262e-09
-1.16811e-07
2.1556e-09
-5.7282e-08
1.042e-09
3.46015e-10
-5.87182e-08
3.41182e-10
9.83684e-10
-1.19867e-07
7.10158e-10
1.79316e-09
-1.57439e-07
9.70862e-10
2.70499e-09
-1.82863e-07
1.2339e-09
3.65409e-09
-2.01117e-07
1.56085e-09
4.55921e-09
-2.148e-07
1.98703e-09
5.32395e-09
-2.25402e-07
2.52939e-09
5.84219e-09
-2.33818e-07
3.18666e-09
6.01543e-09
-2.40584e-07
3.9478e-09
5.74971e-09
-2.46007e-07
4.78542e-09
4.98662e-09
-2.50264e-07
5.64874e-09
3.7273e-09
-2.5348e-07
6.46643e-09
2.02094e-09
-2.5573e-07
7.15855e-09
-1.67125e-11
-2.57116e-07
7.66496e-09
-2.21452e-09
-2.57715e-07
7.91891e-09
-4.38494e-09
-2.57596e-07
7.90716e-09
-6.34232e-09
-2.56757e-07
7.63236e-09
-7.91078e-09
-2.55124e-07
7.10661e-09
-8.97721e-09
-2.52621e-07
6.40034e-09
-9.48635e-09
-2.49149e-07
5.58257e-09
-9.44614e-09
-2.44638e-07
4.7392e-09
-8.92242e-09
-2.38969e-07
3.92932e-09
-8.00677e-09
-2.31982e-07
3.20399e-09
-6.79798e-09
-2.23394e-07
2.59287e-09
-5.42128e-09
-2.12684e-07
2.09831e-09
-3.98262e-09
-1.98998e-07
1.71578e-09
-2.60138e-09
-1.80866e-07
1.42233e-09
-1.38266e-09
-1.5573e-07
1.17591e-09
-4.53937e-10
-1.18642e-07
9.02432e-10
-5.81971e-08
4.61228e-10
-2.15927e-10
-5.82805e-08
-2.21849e-10
-6.35089e-10
-1.18948e-07
-4.9972e-10
-1.15826e-09
-1.5623e-07
-6.85929e-10
-1.70711e-09
-1.815e-07
-8.13886e-10
-2.22839e-09
-1.99691e-07
-9.04315e-10
-2.67806e-09
-2.1338e-07
-9.70118e-10
-3.02399e-09
-2.24038e-07
-1.01798e-09
-3.24632e-09
-2.3255e-07
-1.04625e-09
-3.33805e-09
-2.39437e-07
-1.05485e-09
-3.3051e-09
-2.44998e-07
-1.04107e-09
-3.16478e-09
-2.49405e-07
-9.99649e-10
-2.95212e-09
-2.52769e-07
-9.23451e-10
-2.70002e-09
-2.55159e-07
-8.23041e-10
-2.42963e-09
-2.56658e-07
-7.28064e-10
-2.14707e-09
-2.57322e-07
-6.75304e-10
-1.82831e-09
-2.57213e-07
-7.02565e-10
-1.45292e-09
-2.56328e-07
-8.04332e-10
-1.0258e-09
-2.54607e-07
-9.44193e-10
-5.80182e-10
-2.51995e-07
-1.07184e-09
-1.49069e-10
-2.48418e-07
-1.16303e-09
2.18848e-10
-2.43801e-07
-1.20466e-09
5.05087e-10
-2.38055e-07
-1.19969e-09
6.9548e-10
-2.31012e-07
-1.15979e-09
7.78384e-10
-2.22385e-07
-1.09203e-09
7.7356e-10
-2.11678e-07
-1.00112e-09
6.87238e-10
-1.98019e-07
-8.92754e-10
5.43676e-10
-1.79959e-07
-7.63396e-10
3.54279e-10
-1.54937e-07
-6.03697e-10
1.49489e-10
-1.18037e-07
-4.00099e-10
-5.79038e-08
-1.43817e-10
-7.92101e-10
-5.66901e-08
-7.98293e-10
-2.29633e-09
-1.15706e-07
-1.73778e-09
-4.16745e-09
-1.51983e-07
-2.37593e-09
-6.19682e-09
-1.76574e-07
-2.897e-09
-8.19898e-09
-1.94284e-07
-3.40515e-09
-1.00128e-08
-2.07605e-07
-3.9614e-09
-1.14769e-08
-2.17972e-07
-4.60262e-09
-1.24478e-08
-2.26245e-07
-5.33356e-09
-1.28077e-08
-2.32939e-07
-6.13834e-09
-1.24802e-08
-2.38352e-07
-6.97398e-09
-1.14455e-08
-2.42659e-07
-7.78036e-09
-9.75154e-09
-2.45968e-07
-8.49522e-09
-7.51669e-09
-2.48342e-07
-9.05123e-09
-4.90044e-09
-2.49853e-07
-9.4214e-09
-2.08774e-09
-2.50531e-07
-9.60425e-09
7.67006e-10
-2.50427e-07
-9.64038e-09
3.50332e-09
-2.49536e-07
-9.52835e-09
5.93907e-09
-2.47818e-07
-9.22508e-09
7.89778e-09
-2.4524e-07
-8.71324e-09
9.25199e-09
-2.41748e-07
-8.02381e-09
9.94074e-09
-2.37268e-07
-7.2216e-09
9.9724e-09
-2.31714e-07
-6.37281e-09
9.41282e-09
-2.24912e-07
-5.5409e-09
8.36884e-09
-2.16568e-07
-4.77356e-09
6.9725e-09
-2.0619e-07
-4.0912e-09
5.3639e-09
-1.92919e-07
-3.49159e-09
3.68507e-09
-1.75341e-07
-2.93941e-09
2.08945e-09
-1.50966e-07
-2.37497e-09
7.51704e-10
-1.15001e-07
-1.69843e-09
-5.64051e-08
-7.4701e-10
-1.35073e-09
-5.39806e-08
-1.35868e-09
-3.90496e-09
-1.10214e-07
-2.93778e-09
-7.08222e-09
-1.4479e-07
-4.01525e-09
-1.05351e-08
-1.68211e-07
-4.91033e-09
-1.39683e-08
-1.85035e-07
-5.81522e-09
-1.70923e-08
-1.97639e-07
-6.84145e-09
-1.96328e-08
-2.07389e-07
-8.04189e-09
-2.1327e-08
-2.15111e-07
-9.43984e-09
-2.19541e-08
-2.21305e-07
-1.10069e-08
-2.13603e-08
-2.2627e-07
-1.26758e-08
-1.9478e-08
-2.30199e-07
-1.43422e-08
-1.63705e-08
-2.33207e-07
-1.58686e-08
-1.22192e-08
-2.35375e-07
-1.71187e-08
-7.31851e-09
-2.36758e-07
-1.7996e-08
-2.03001e-09
-2.37385e-07
-1.8434e-08
3.30463e-09
-2.37282e-07
-1.84794e-08
8.33752e-09
-2.36445e-07
-1.81241e-08
1.27036e-08
-2.34863e-07
-1.73207e-08
1.60955e-08
-2.32511e-07
-1.61211e-08
1.83113e-08
-2.29337e-07
-1.46266e-08
1.92808e-08
-2.25265e-07
-1.29729e-08
1.90509e-08
-2.20189e-07
-1.12955e-08
1.77636e-08
-2.13919e-07
-9.70502e-09
1.56318e-08
-2.06162e-07
-8.2738e-09
1.28979e-08
-1.96422e-07
-7.03393e-09
9.82915e-09
-1.83887e-07
-5.96389e-09
6.68874e-09
-1.67189e-07
-5.01148e-09
3.74584e-09
-1.43958e-07
-4.06496e-09
1.32836e-09
-1.09647e-07
-2.93589e-09
-5.37527e-08
-1.324e-09
-1.86544e-09
-5.0242e-08
-1.87323e-09
-5.38233e-09
-1.02658e-07
-4.03873e-09
-9.75906e-09
-1.34899e-07
-5.51475e-09
-1.45183e-08
-1.56701e-07
-6.75083e-09
-1.92574e-08
-1.72286e-07
-8.01055e-09
-2.35809e-08
-1.83863e-07
-9.4526e-09
-2.71062e-08
-1.92706e-07
-1.11581e-08
-2.94667e-08
-1.99598e-07
-1.31531e-08
-3.03506e-08
-2.0501e-07
-1.54111e-08
-2.95203e-08
-2.09258e-07
-1.78419e-08
-2.68772e-08
-2.12544e-07
-2.02981e-08
-2.24803e-08
-2.15008e-07
-2.25959e-08
-1.65759e-08
-2.16749e-07
-2.45301e-08
-9.56545e-09
-2.17842e-07
-2.59265e-08
-1.97028e-09
-2.18328e-07
-2.66528e-08
5.67303e-09
-2.18223e-07
-2.67024e-08
1.28236e-08
-2.17533e-07
-2.60628e-08
1.89476e-08
-2.16247e-07
-2.47405e-08
2.36332e-08
-2.1433e-07
-2.28664e-08
2.66181e-08
-2.11718e-07
-2.06038e-08
2.78255e-08
-2.08313e-07
-1.81592e-08
2.73392e-08
-2.03979e-07
-1.57237e-08
2.53787e-08
-1.98512e-07
-1.34465e-08
2.22494e-08
-1.91611e-07
-1.14217e-08
1.83e-08
-1.82794e-07
-9.67897e-09
1.38984e-08
-1.71291e-07
-8.19435e-09
9.4239e-09
-1.55829e-07
-6.88555e-09
5.2587e-09
-1.34199e-07
-5.59385e-09
1.85268e-09
-1.02183e-07
-4.05844e-09
-5.00519e-08
-1.84811e-09
-2.31311e-09
-4.56081e-08
-2.32076e-09
-6.6656e-09
-9.33082e-08
-4.99762e-09
-1.2076e-08
-1.22672e-07
-6.81678e-09
-1.79632e-08
-1.42477e-07
-8.33694e-09
-2.38247e-08
-1.56539e-07
-9.88483e-09
-2.9178e-08
-1.66848e-07
-1.1662e-08
-3.35424e-08
-1.74568e-07
-1.37737e-08
-3.64704e-08
-1.80416e-07
-1.62538e-08
-3.75649e-08
-1.84852e-07
-1.90639e-08
-3.65329e-08
-1.88189e-07
-2.21016e-08
-3.32379e-08
-1.90643e-07
-2.51962e-08
-2.7738e-08
-1.92386e-07
-2.81223e-08
-2.03253e-08
-1.93548e-07
-3.06137e-08
-1.14927e-08
-1.94237e-07
-3.24373e-08
-1.90564e-09
-1.94517e-07
-3.33971e-08
7.72864e-09
-1.94416e-07
-3.34415e-08
1.66979e-08
-1.93936e-07
-3.25654e-08
2.43337e-08
-1.93066e-07
-3.08162e-08
3.01216e-08
-1.91737e-07
-2.83809e-08
3.37558e-08
-1.89861e-07
-2.54914e-08
3.51605e-08
-1.87304e-07
-2.2414e-08
3.44547e-08
-1.83897e-07
-1.93758e-08
3.19203e-08
-1.79427e-07
-1.6551e-08
2.79361e-08
-1.73581e-07
-1.40457e-08
2.2941e-08
-1.65899e-07
-1.19002e-08
1.74006e-08
-1.55668e-07
-1.00824e-08
1.1779e-08
-1.41721e-07
-8.48624e-09
6.55811e-09
-1.22069e-07
-6.90945e-09
2.3057e-09
-9.29028e-08
-5.02766e-09
-4.54456e-08
-2.3006e-09
-2.67305e-09
-4.02545e-08
-2.68055e-09
-7.69701e-09
-8.25181e-08
-5.76618e-09
-1.39402e-08
-1.08574e-07
-7.85414e-09
-2.07283e-08
-1.26095e-07
-9.59365e-09
-2.74865e-08
-1.3842e-07
-1.13613e-08
-3.36559e-08
-1.47298e-07
-1.33811e-08
-3.86835e-08
-1.53764e-07
-1.57759e-08
-4.205e-08
-1.58464e-07
-1.85857e-08
-4.32978e-08
-1.61833e-07
-2.17711e-08
-4.20903e-08
-1.64171e-07
-2.52251e-08
-3.82639e-08
-1.65718e-07
-2.87518e-08
-3.18832e-08
-1.66669e-07
-3.2097e-08
-2.3272e-08
-1.67195e-07
-3.49642e-08
-1.29997e-08
-1.67433e-07
-3.70759e-08
-1.83533e-09
-1.67482e-07
-3.81993e-08
9.3753e-09
-1.67387e-07
-3.82393e-08
1.9783e-08
-1.67154e-07
-3.71903e-08
2.86065e-08
-1.66744e-07
-3.51461e-08
3.52687e-08
-1.66065e-07
-3.23338e-08
3.94254e-08
-1.64993e-07
-2.90251e-08
4.09957e-08
-1.63357e-07
-2.55171e-08
4.01254e-08
-1.60961e-07
-2.2066e-08
3.71405e-08
-1.57572e-07
-1.88703e-08
3.24799e-08
-1.52881e-07
-1.60399e-08
2.66552e-08
-1.46458e-07
-1.36155e-08
2.02015e-08
-1.37656e-07
-1.15583e-08
1.36646e-08
-1.25439e-07
-9.74471e-09
7.6013e-09
-1.08056e-07
-7.94951e-09
2.66791e-09
-8.21704e-08
-5.79899e-09
-4.01155e-08
-2.66223e-09
-2.93392e-09
-3.43797e-08
-2.94083e-09
-8.44207e-09
-7.06897e-08
-6.32025e-09
-1.52811e-08
-9.31356e-08
-8.59956e-09
-2.2717e-08
-1.08176e-07
-1.04831e-08
-3.01185e-08
-1.18637e-07
-1.23812e-08
-3.68675e-08
-1.26007e-07
-1.45413e-08
-4.23612e-08
-1.31178e-07
-1.70927e-08
-4.60254e-08
-1.34724e-07
-2.00753e-08
-4.73648e-08
-1.37038e-07
-2.34552e-08
-4.6011e-08
-1.38415e-07
-2.71104e-08
-4.17906e-08
-1.39101e-07
-3.08371e-08
-3.47741e-08
-1.39309e-07
-3.43769e-08
-2.53132e-08
-1.39242e-07
-3.74137e-08
-1.40272e-08
-1.39065e-07
-3.96543e-08
-1.75859e-09
-1.38903e-07
-4.08485e-08
1.05534e-08
-1.38816e-07
-4.08832e-08
2.19677e-08
-1.3881e-07
-3.97583e-08
3.16321e-08
-1.38832e-07
-3.75768e-08
3.8919e-08
-1.38766e-07
-3.45862e-08
4.34549e-08
-1.38448e-07
-3.10804e-08
4.51561e-08
-1.37685e-07
-2.73728e-08
4.41819e-08
-1.36263e-07
-2.37235e-08
4.08817e-08
-1.33934e-07
-2.03376e-08
3.57433e-08
-1.30404e-07
-1.73385e-08
2.93233e-08
-1.25276e-07
-1.47622e-08
2.22143e-08
-1.17978e-07
-1.25688e-08
1.50189e-08
-1.07617e-07
-1.06266e-08
8.34951e-09
-9.26969e-08
-8.68982e-09
2.92885e-09
-7.0398e-08
-6.35171e-09
-3.42637e-08
-2.92293e-09
-3.08554e-09
-2.82024e-08
-3.0918e-09
-8.87155e-09
-5.82656e-08
-6.638e-09
-1.60576e-08
-7.69344e-08
-9.01509e-09
-2.38733e-08
-8.93965e-08
-1.09637e-08
-3.16564e-08
-9.79424e-08
-1.29114e-08
-3.87522e-08
-1.03799e-07
-1.51124e-08
-4.45164e-08
-1.07714e-07
-1.77002e-08
-4.83452e-08
-1.10178e-07
-2.07172e-08
-4.97198e-08
-1.11544e-07
-2.41196e-08
-4.82594e-08
-1.1209e-07
-2.77846e-08
-4.37913e-08
-1.12054e-07
-3.15149e-08
-3.63892e-08
-1.11663e-07
-3.50478e-08
-2.64332e-08
-1.11125e-07
-3.80735e-08
-1.45689e-08
-1.10624e-07
-4.03051e-08
-1.67409e-09
-1.10299e-07
-4.14983e-08
1.12616e-08
-1.10224e-07
-4.15278e-08
2.32458e-08
-1.10402e-07
-4.0392e-08
3.33954e-08
-1.10769e-07
-3.82119e-08
4.10474e-08
-1.1119e-07
-3.52283e-08
4.58169e-08
-1.11491e-07
-3.17269e-08
4.76077e-08
-1.11461e-07
-2.80152e-08
4.65811e-08
-1.10878e-07
-2.43581e-08
4.31013e-08
-1.09501e-07
-2.09528e-08
3.76749e-08
-1.07054e-07
-1.79234e-08
3.08956e-08
-1.03182e-07
-1.53149e-08
2.33925e-08
-9.73902e-08
-1.30846e-08
1.58047e-08
-8.89301e-08
-1.10992e-08
8.78186e-09
-7.65734e-08
-9.10067e-09
3.07952e-09
-5.80296e-08
-6.66611e-09
-2.81103e-08
-3.07382e-09
-3.11854e-09
-2.19602e-08
-3.12365e-09
-8.96654e-09
-4.57163e-08
-6.70136e-09
-1.62427e-08
-6.05741e-08
-9.08417e-09
-2.41736e-08
-7.04485e-08
-1.10171e-08
-3.20835e-08
-7.71002e-08
-1.29322e-08
-3.92991e-08
-8.14989e-08
-1.50845e-08
-4.51565e-08
-8.4252e-08
-1.76041e-08
-4.90362e-08
-8.57679e-08
-2.05304e-08
-5.04084e-08
-8.6354e-08
-2.38177e-08
-4.88938e-08
-8.62573e-08
-2.73477e-08
-4.43249e-08
-8.56991e-08
-3.09239e-08
-3.67933e-08
-8.4896e-08
-3.42988e-08
-2.66823e-08
-8.40526e-08
-3.71833e-08
-1.46497e-08
-8.33512e-08
-3.93055e-08
-1.58013e-09
-8.29326e-08
-4.04361e-08
1.15272e-08
-8.28701e-08
-4.0461e-08
2.36714e-08
-8.31673e-08
-3.93788e-08
3.39607e-08
-8.37577e-08
-3.73008e-08
4.17287e-08
-8.45052e-08
-3.44526e-08
4.65779e-08
-8.52339e-08
-3.11062e-08
4.84033e-08
-8.57384e-08
-2.75478e-08
4.73574e-08
-8.58058e-08
-2.40266e-08
4.38099e-08
-8.52149e-08
-2.07389e-08
3.82723e-08
-8.37125e-08
-1.78036e-08
3.13562e-08
-8.09986e-08
-1.52671e-08
2.37109e-08
-7.66556e-08
-1.30894e-08
1.5998e-08
-7.0078e-08
-1.11391e-08
8.87857e-09
-6.0293e-08
-9.16104e-09
3.11084e-09
-4.55358e-08
-6.72604e-09
-2.18933e-08
-3.10618e-09
-3.02131e-09
-1.59128e-08
-3.02601e-09
-8.70436e-09
-3.35496e-08
-6.48357e-09
-1.58071e-08
-4.47026e-08
-8.76879e-09
-2.35923e-08
-5.20623e-08
-1.0601e-08
-3.13896e-08
-5.6901e-08
-1.24019e-08
-3.85213e-08
-5.99461e-08
-1.44211e-08
-4.43183e-08
-6.16709e-08
-1.6784e-08
-4.81528e-08
-6.24096e-08
-1.95238e-08
-4.9505e-08
-6.24074e-08
-2.25944e-08
-4.80032e-08
-6.18776e-08
-2.58815e-08
-4.34911e-08
-6.10108e-08
-2.92004e-08
-3.60704e-08
-5.99975e-08
-3.23192e-08
-2.61258e-08
-5.90231e-08
-3.49741e-08
-1.43052e-08
-5.82495e-08
-3.69223e-08
-1.4732e-09
-5.78043e-08
-3.79604e-08
1.13937e-08
-5.77556e-08
-3.79814e-08
2.33167e-08
-5.81063e-08
-3.69841e-08
3.34264e-08
-5.87944e-08
-3.5073e-08
4.10645e-08
-5.96948e-08
-3.24484e-08
4.58346e-08
-6.06489e-08
-2.93551e-08
4.76251e-08
-6.14742e-08
-2.60546e-08
4.65789e-08
-6.19828e-08
-2.27769e-08
4.30516e-08
-6.198e-08
-1.97076e-08
3.75567e-08
-6.12564e-08
-1.69613e-08
3.07051e-08
-5.95622e-08
-1.45847e-08
2.3156e-08
-5.65631e-08
-1.25433e-08
1.55754e-08
-5.17859e-08
-1.07115e-08
8.61832e-09
-4.44972e-08
-8.83864e-09
3.01297e-09
-3.34244e-08
-6.50609e-09
-1.58703e-08
-3.01009e-09
-2.77742e-09
-1.03544e-08
-2.78097e-09
-8.04874e-09
-2.23314e-08
-5.94695e-09
-1.4714e-08
-3.00254e-08
-8.01192e-09
-2.20977e-08
-3.50341e-08
-9.64443e-09
-2.95533e-08
-3.82023e-08
-1.12431e-08
-3.64103e-08
-4.00446e-08
-1.30445e-08
-4.20023e-08
-4.09121e-08
-1.51669e-08
-4.57173e-08
-4.10558e-08
-1.76387e-08
-4.70442e-08
-4.06675e-08
-2.0413e-08
-4.56318e-08
-3.99102e-08
-2.33798e-08
-4.1338e-08
-3.8936e-08
-2.63685e-08
-3.42706e-08
-3.78973e-08
-2.91676e-08
-2.48022e-08
-3.69444e-08
-3.15472e-08
-1.35541e-08
-3.62086e-08
-3.32891e-08
-1.34785e-09
-3.57954e-08
-3.42151e-08
1.08899e-08
-3.57605e-08
-3.42329e-08
2.22307e-08
-3.61057e-08
-3.33415e-08
3.18483e-08
-3.6779e-08
-3.1633e-08
3.91138e-08
-3.76789e-08
-2.92814e-08
4.3643e-08
-3.8675e-08
-2.6503e-08
4.53192e-08
-3.96205e-08
-2.35299e-08
4.42707e-08
-4.03619e-08
-2.05723e-08
4.08397e-08
-4.07488e-08
-1.78002e-08
3.55233e-08
-4.0616e-08
-1.5324e-08
2.8924e-08
-3.97726e-08
-1.31903e-08
2.16969e-08
-3.7966e-08
-1.137e-08
1.45e-08
-3.48445e-08
-9.74451e-09
7.96908e-09
-2.98902e-08
-8.07601e-09
2.76854e-09
-2.22549e-08
-5.96892e-09
-1.03337e-08