/*--------------------------------*- C++ -*----------------------------------*\
| =========                 |                                                 |
| \\      /  F ield         | OpenFOAM: The Open Source CFD Toolbox           |
|  \\    /   O peration     | Version:  v1906                                 |
|   \\  /    A nd           | Web:      www.OpenFOAM.com                      |
|    \\/     M anipulation  |                                                 |
\*---------------------------------------------------------------------------*/
FoamFile
{
    version     2.0;
    format      ascii;
    class       volVectorField;
    location    "94";
    object      U;
}
// * * * * * * * * * * * * * * * * * * * * * * * * * * * * * * * * * * * * * //

dimensions      [0 1 -1 0 0 0 0];


internalField   nonuniform List<vector> 
78750
(
(0.00236235 -0.00187678 -0.000570229)
(0.00425767 -0.00146356 0.00103056)
(0.00545228 -0.00152353 0.00237401)
(0.00571149 -0.00170853 0.00349437)
(0.0065695 -0.00201151 0.00435116)
(0.00761292 -0.00241036 0.00496101)
(0.00871935 -0.00284526 0.00537588)
(0.00986475 -0.00326188 0.00564853)
(0.0110449 -0.00362286 0.00582053)
(0.0122428 -0.003905 0.00592172)
(0.0134346 -0.00409492 0.00597255)
(0.0145956 -0.00418643 0.00598663)
(0.0157025 -0.00417876 0.00597234)
(0.0167333 -0.00407181 0.00593483)
(0.0176671 -0.00386339 0.00587809)
(0.0184862 -0.00355851 0.00580437)
(0.019172 -0.00316441 0.00571548)
(0.0197077 -0.00268958 0.00561316)
(0.0200782 -0.00214333 0.00549933)
(0.0202706 -0.0015358 0.00537633)
(0.0202743 -0.000877782 0.00524697)
(0.0200838 -0.000181016 0.00511445)
(0.0196899 0.000539533 0.00498195)
(0.0190842 0.00126964 0.00485374)
(0.0182691 0.00199218 0.00473451)
(0.0172536 0.00268546 0.00462895)
(0.0160495 0.00332006 0.00454048)
(0.0146763 0.00386839 0.00447293)
(0.0131561 0.00430911 0.00442825)
(0.0115119 0.00465168 0.00440254)
(0.00975003 0.00500993 0.00436948)
(0.00781079 0.00569033 0.00423418)
(0.00554856 0.00698153 0.00377356)
(0.00299936 0.00811044 0.00269634)
(0.000721362 0.00580321 0.000949004)
(4.89087e-05 -0.00477621 0.000415578)
(0.000502015 -0.00743845 0.00209944)
(0.00150065 -0.00935897 0.00334597)
(0.00279216 -0.0110122 0.00421674)
(0.00430932 -0.012517 0.00481668)
(0.00597529 -0.0138112 0.005234)
(0.00772113 -0.014831 0.0055316)
(0.00948983 -0.0155439 0.00575096)
(0.0112363 -0.0159411 0.0059184)
(0.0129235 -0.0160263 0.00605006)
(0.0145209 -0.0158102 0.00615552)
(0.016005 -0.015308 0.0062395)
(0.0173527 -0.0145456 0.00629759)
(0.0185362 -0.0135648 0.00631662)
(0.0195488 -0.0123917 0.00629819)
(0.0203884 -0.0110284 0.00625407)
(0.0210415 -0.00948579 0.00618802)
(0.0214991 -0.00777906 0.00610278)
(0.0217554 -0.00592486 0.00600104)
(0.021806 -0.00394184 0.00588516)
(0.0216478 -0.00185036 0.00575783)
(0.0212776 0.000326551 0.00562217)
(0.0206982 0.00255983 0.00548183)
(0.0199134 0.00481304 0.00534046)
(0.018922 0.00703659 0.0052005)
(0.0177346 0.00916444 0.00506171)
(0.0163529 0.0111508 0.00493512)
(0.0147773 0.0129646 0.00483818)
(0.0130306 0.0145868 0.00477681)
(0.0111262 0.016094 0.00474651)
(0.00905878 0.0177734 0.00471689)
(0.00679038 0.0201185 0.00458519)
(0.00437336 0.0230552 0.0041178)
(0.00205419 0.0240164 0.00301829)
(0.000259492 0.0154965 0.00114477)
(-1.4966e-05 -0.00656063 0.000842947)
(0.000420823 -0.0143764 0.00246667)
(0.00140044 -0.020085 0.00350472)
(0.00271949 -0.0243187 0.004148)
(0.00424332 -0.0273582 0.00455226)
(0.0058627 -0.0293988 0.00481771)
(0.00749977 -0.0306023 0.00500351)
(0.00910346 -0.0311009 0.00514213)
(0.0106406 -0.0309984 0.00525043)
(0.0120886 -0.030376 0.0053367)
(0.0134309 -0.0292984 0.00540467)
(0.0146548 -0.027818 0.00545604)
(0.0157503 -0.025979 0.00549208)
(0.0167081 -0.0238249 0.00551233)
(0.0175143 -0.0214063 0.00551214)
(0.0181617 -0.0187542 0.00549469)
(0.0186463 -0.0158824 0.00546791)
(0.018961 -0.0128158 0.00543425)
(0.0191022 -0.00958421 0.00539433)
(0.0190683 -0.00622565 0.00534567)
(0.0188596 -0.00277592 0.00528667)
(0.0184766 0.000748779 0.00522207)
(0.0179179 0.00433468 0.00515726)
(0.0171811 0.00795183 0.00509296)
(0.016267 0.0115534 0.00502797)
(0.0151772 0.0150739 0.00496067)
(0.0139169 0.0184351 0.00489174)
(0.0124943 0.0215622 0.00482442)
(0.0109233 0.0244361 0.00476373)
(0.00921239 0.0271771 0.0047104)
(0.00734746 0.0301057 0.00464103)
(0.00530917 0.0335029 0.0044606)
(0.00328145 0.0364925 0.00396969)
(0.00144348 0.0355175 0.00290405)
(0.000144815 0.0210499 0.00110295)
(4.42516e-05 -0.00808509 0.000895124)
(0.000599623 -0.0195854 0.00222882)
(0.00158575 -0.0281632 0.00298089)
(0.00282906 -0.0341877 0.00341308)
(0.00417182 -0.0380262 0.00368029)
(0.00551611 -0.0402137 0.00385907)
(0.0068203 -0.0412188 0.00398622)
(0.0080658 -0.0413451 0.00407877)
(0.00924035 -0.0407757 0.00414394)
(0.0103362 -0.0396281 0.0041844)
(0.0113477 -0.0379834 0.00420118)
(0.0122691 -0.0358999 0.00419528)
(0.0130932 -0.0334223 0.00416862)
(0.0138115 -0.0305876 0.00412457)
(0.014414 -0.0274298 0.00406787)
(0.0148911 -0.0239842 0.00400412)
(0.0152342 -0.0202854 0.00394104)
(0.0154382 -0.0163677 0.00388726)
(0.0155006 -0.0122644 0.00385186)
(0.0154206 -0.00800644 0.00384354)
(0.015198 -0.00362065 0.00386958)
(0.0148323 0.000871254 0.00393546)
(0.0143277 0.0054475 0.00404333)
(0.0136892 0.0100788 0.00418807)
(0.0129172 0.0147189 0.00435598)
(0.0120124 0.0192945 0.00452478)
(0.010977 0.0237109 0.00466803)
(0.00981683 0.0278871 0.0047634)
(0.00853795 0.0318291 0.00479978)
(0.00713775 0.0357054 0.00477385)
(0.00559522 0.0398012 0.0046672)
(0.00391843 0.0440155 0.00440644)
(0.00233806 0.0467306 0.00385832)
(0.000961824 0.0438699 0.00281129)
(5.59825e-05 0.0246202 0.00107493)
(3.2796e-05 -0.010405 0.000788739)
(0.000543136 -0.0256046 0.00178952)
(0.00138777 -0.0364525 0.00230764)
(0.00242013 -0.0435157 0.00260145)
(0.00349691 -0.0475607 0.002785)
(0.00455145 -0.0495702 0.00290279)
(0.00557318 -0.0502655 0.002976)
(0.00655891 -0.050032 0.00301425)
(0.00750199 -0.0490692 0.00302106)
(0.00839723 -0.0474911 0.00299743)
(0.00923866 -0.045367 0.00294399)
(0.010017 -0.0427415 0.00286205)
(0.0107197 -0.0396473 0.00275426)
(0.011332 -0.0361164 0.00262518)
(0.011839 -0.0321875 0.00248152)
(0.0122277 -0.0279098 0.00233227)
(0.0124889 -0.023343 0.00218857)
(0.0126186 -0.0185518 0.00206373)
(0.0126176 -0.013599 0.00197282)
(0.0124912 -0.00853786 0.00193228)
(0.012247 -0.00340709 0.00195911)
(0.0118937 0.00177042 0.00206943)
(0.0114396 0.00698319 0.0022757)
(0.0108914 0.0122201 0.00258178)
(0.0102532 0.017457 0.00297639)
(0.00952573 0.0226438 0.00342755)
(0.00870731 0.0277102 0.00388393)
(0.00779403 0.0326069 0.00428677)
(0.00677889 0.0373805 0.00458651)
(0.00564697 0.0422121 0.00474697)
(0.00437693 0.0472455 0.00472786)
(0.00301268 0.0519154 0.00446523)
(0.00176271 0.0541527 0.00388349)
(0.000695425 0.0495799 0.00281928)
(3.30744e-05 0.026761 0.00107031)
(4.79673e-05 -0.0123187 0.000572059)
(0.000506115 -0.0303003 0.00128419)
(0.00121404 -0.0427383 0.00167343)
(0.00205458 -0.0504878 0.00191413)
(0.00291519 -0.054675 0.00206528)
(0.00375309 -0.05661 0.00215079)
(0.00457213 -0.0571621 0.0021867)
(0.00537393 -0.0567456 0.00218195)
(0.00615193 -0.0555522 0.00214079)
(0.0068996 -0.0536792 0.00206536)
(0.00760865 -0.0511767 0.00195712)
(0.00826694 -0.0480715 0.00181753)
(0.00885882 -0.0443864 0.00164866)
(0.00936707 -0.0401571 0.00145405)
(0.00977577 -0.0354442 0.00123926)
(0.0100731 -0.0303354 0.0010124)
(0.010253 -0.024937 0.000784775)
(0.0103156 -0.0193604 0.000571073)
(0.0102661 -0.0137056 0.000389395)
(0.0101138 -0.00804956 0.000261052)
(0.0098701 -0.00243983 0.00020977)
(0.00954727 0.00310501 0.000260115)
(0.00915669 0.00858983 0.000434776)
(0.00870706 0.0140329 0.000750069)
(0.0082031 0.0194515 0.00120836)
(0.00764415 0.0248485 0.00178906)
(0.0070232 0.0302164 0.00244365)
(0.0063267 0.035573 0.00310161)
(0.00553531 0.0410163 0.0036848)
(0.00462454 0.0467104 0.0041146)
(0.00357397 0.0526014 0.00430469)
(0.00245143 0.0576695 0.00416681)
(0.00143218 0.0595686 0.00364573)
(0.000561728 0.0536831 0.00262265)
(3.19236e-05 0.0282778 0.000951838)
(3.53422e-05 -0.0140157 0.000424715)
(0.000401326 -0.0343004 0.000978608)
(0.000970942 -0.0480068 0.00132314)
(0.00165933 -0.0562959 0.00156068)
(0.00237141 -0.0606062 0.0017149)
(0.00307162 -0.0624966 0.00180204)
(0.00376463 -0.0629333 0.00183892)
(0.00444974 -0.0623454 0.0018355)
(0.00511837 -0.0609177 0.0017965)
(0.00576287 -0.0587327 0.00172411)
(0.00637424 -0.0558207 0.00161929)
(0.00693996 -0.0521903 0.00148226)
(0.00744471 -0.0478575 0.00131309)
(0.00787271 -0.0428719 0.0011124)
(0.00821071 -0.0373288 0.000881931)
(0.00844946 -0.0313623 0.000625375)
(0.00858546 -0.025127 0.000349913)
(0.0086215 -0.0187776 6.78902e-05)
(0.00856447 -0.0124492 -0.000202155)
(0.0084239 -0.00624327 -0.000435574)
(0.00821074 -0.000220783 -0.000602799)
(0.00793714 0.00559693 -0.000671843)
(0.00761464 0.0112237 -0.000611826)
(0.00725157 0.016703 -0.000397321)
(0.00685196 0.0220959 -1.43195e-05)
(0.00641368 0.0274706 0.000531881)
(0.00592683 0.0329034 0.00120945)
(0.00537331 0.0385006 0.00195847)
(0.00472839 0.0444169 0.00269467)
(0.00396405 0.0507747 0.00331061)
(0.00306217 0.0572922 0.00367634)
(0.00210495 0.0625567 0.00367064)
(0.00123421 0.0640931 0.0032429)
(0.000485742 0.0570465 0.00230879)
(3.16263e-05 0.0295692 0.000801622)
(3.16315e-05 -0.0153755 0.000302914)
(0.000336704 -0.0375573 0.000763457)
(0.000815996 -0.0523974 0.00109806)
(0.00140188 -0.0612653 0.00134328)
(0.00201132 -0.0657994 0.00150099)
(0.00261327 -0.0677438 0.00158686)
(0.00321283 -0.0681514 0.00162049)
(0.00380878 -0.0674708 0.00161355)
(0.0043921 -0.0658813 0.00157189)
(0.00495494 -0.0634504 0.00149865)
(0.00548854 -0.0601904 0.00139546)
(0.00598131 -0.0560976 0.00126295)
(0.00641993 -0.0511909 0.00110114)
(0.0067916 -0.0455403 0.000909504)
(0.00708615 -0.0392732 0.000687083)
(0.00729715 -0.0325617 0.000433426)
(0.00742214 -0.0255992 0.000150457)
(0.00746283 -0.0185761 -0.00015495)
(0.00742443 -0.0116551 -0.000468694)
(0.00731541 -0.00495872 -0.000768161)
(0.00714656 0.001438 -0.00102283)
(0.00692869 0.00750821 -0.00119694)
(0.00667212 0.0132723 -0.00125365)
(0.00638519 0.0187941 -0.00115992)
(0.00607106 0.0241722 -0.000891521)
(0.00572547 0.0295318 -0.00043923)
(0.00533578 0.0350255 0.000183982)
(0.00488089 0.0408421 0.000936388)
(0.00433316 0.0471904 0.00174106)
(0.00366331 0.0541556 0.00247772)
(0.0028536 0.0612576 0.00298448)
(0.00198962 0.066763 0.00310613)
(0.00119202 0.0680828 0.00278899)
(0.000488308 0.0601269 0.00197492)
(4.21846e-05 0.0308659 0.000660557)
(2.64263e-05 -0.0165293 0.000258713)
(0.000296625 -0.040345 0.000700162)
(0.000729825 -0.0561896 0.00104492)
(0.00126519 -0.065583 0.00129863)
(0.00182363 -0.0703277 0.00145821)
(0.00237542 -0.0723238 0.0015428)
(0.0029251 -0.0726975 0.00157474)
(0.00347019 -0.0719148 0.0015673)
(0.00400089 -0.0701525 0.00152742)
(0.00450946 -0.0674669 0.00145911)
(0.00498801 -0.0638572 0.00136468)
(0.00542676 -0.0593131 0.00124501)
(0.00581519 -0.0538596 0.00109957)
(0.00614383 -0.047585 0.000926247)
(0.00640558 -0.0406416 0.000721547)
(0.00659589 -0.0332285 0.000481722)
(0.00671271 -0.025567 0.000204674)
(0.00675649 -0.0178769 -0.000107482)
(0.00673023 -0.0103514 -0.000445472)
(0.00663974 -0.00314057 -0.000790635)
(0.00649371 0.00365604 -0.00111443)
(0.00630261 0.0099959 -0.00138052)
(0.00607723 0.0159005 -0.00154914)
(0.00582635 0.0214536 -0.00158222)
(0.00555365 0.0267931 -0.00144761)
(0.00525531 0.0321024 -0.00112336)
(0.0049178 0.0376085 -0.000604098)
(0.00451903 0.0435762 8.89004e-05)
(0.00403104 0.0502602 0.000892485)
(0.00342385 0.0577055 0.00168465)
(0.00267903 0.0652549 0.0022843)
(0.00188218 0.0709178 0.00250973)
(0.00113713 0.0720163 0.00230222)
(0.000469678 0.0632005 0.00162544)
(4.00369e-05 0.0322256 0.000524218)
(2.27298e-05 -0.0176306 0.000244647)
(0.000267849 -0.0430619 0.000689567)
(0.000664868 -0.0599328 0.0010461)
(0.00115819 -0.069883 0.00130611)
(0.00167288 -0.074866 0.00146726)
(0.002181 -0.0769349 0.00155235)
(0.00268714 -0.0772927 0.0015858)
(0.00318872 -0.0764269 0.00158175)
(0.00367597 -0.074514 0.00154776)
(0.00414131 -0.0716028 0.00148844)
(0.00457731 -0.0676846 0.00140675)
(0.00497539 -0.0627477 0.00130414)
(0.00532688 -0.0568255 0.00118015)
(0.0056247 -0.0500214 0.001032)
(0.00586401 -0.0425049 0.000854718)
(0.00604181 -0.0344914 0.000642144)
(0.00615639 -0.026218 0.000388747)
(0.00620789 -0.0179208 9.21858e-05)
(0.0061986 -0.00981497 -0.000243615)
(0.00613207 -0.00207392 -0.000605415)
(0.00601474 0.00517707 -0.000968906)
(0.00585516 0.0118742 -0.00129985)
(0.00566267 0.0180299 -0.00155814)
(0.00544508 0.0237361 -0.00170302)
(0.00520595 0.0291568 -0.00169711)
(0.0049419 0.0345211 -0.00150916)
(0.00464039 0.0401171 -0.00111863)
(0.00427934 0.0462761 -0.000527086)
(0.00383104 0.053294 0.00022069)
(0.00326665 0.0611847 0.001011)
(0.00256729 0.0691443 0.00165632)
(0.00181668 0.0749678 0.0019572)
(0.00110608 0.0758809 0.00184858)
(0.000460319 0.0662596 0.00130946)
(4.01908e-05 0.0335978 0.000410871)
(2.26082e-05 -0.0186103 0.000248775)
(0.000261716 -0.0454743 0.000705899)
(0.000647446 -0.0632579 0.00106877)
(0.00112315 -0.0737033 0.00132601)
(0.00161529 -0.0788988 0.0014804)
(0.00209775 -0.0810311 0.00155902)
(0.0025758 -0.0813683 0.0015876)
(0.00304694 -0.080416 0.00158088)
(0.00350163 -0.078351 0.00154698)
(0.00393267 -0.0752167 0.00149117)
(0.00433327 -0.0709998 0.00141706)
(0.00469597 -0.0656908 0.00132654)
(0.00501373 -0.0593336 0.00121922)
(0.00528137 -0.0520461 0.00109204)
(0.00549575 -0.0440121 0.000939361)
(0.00565517 -0.0354599 0.000753941)
(0.00575863 -0.0266381 0.000528412)
(0.00580565 -0.0177958 0.000257495)
(0.0057978 -0.00916191 -5.91506e-05)
(0.00573856 -0.000931931 -0.00041366)
(0.00563276 0.00674542 -0.000787109)
(0.0054875 0.0137869 -0.0011495)
(0.00531104 0.0201976 -0.00146306)
(0.00511045 0.0260772 -0.00168709)
(0.00488909 0.0316136 -0.00178195)
(0.00464399 0.0370745 -0.00171076)
(0.00436384 0.0427981 -0.00144239)
(0.00402812 0.0491676 -0.000962508)
(0.00360926 0.0565085 -0.000297716)
(0.00307964 0.064796 0.000452687)
(0.00242208 0.0730929 0.00110521)
(0.00171776 0.0790154 0.00145329)
(0.00104587 0.079708 0.00142771)
(0.000431836 0.0692628 0.00101849)
(3.53878e-05 0.0349342 0.000309711)
(2.05957e-05 -0.0196583 0.000272772)
(0.000251106 -0.0480564 0.000757545)
(0.000620834 -0.0667957 0.00113022)
(0.00107429 -0.0777319 0.00138595)
(0.00154047 -0.0831198 0.00153556)
(0.00199543 -0.0852984 0.00161079)
(0.002445 -0.0856035 0.00163862)
(0.00288674 -0.0845579 0.00163412)
(0.00331135 -0.0823397 0.00160568)
(0.00371185 -0.0789888 0.00155893)
(0.00408193 -0.0744905 0.00149779)
(0.00441497 -0.0688402 0.00142423)
(0.00470531 -0.0620923 0.00133756)
(0.00494926 -0.0543767 0.00123403)
(0.00514506 -0.0458871 0.00110705)
(0.00529203 -0.0368581 0.000948149)
(0.00538994 -0.0275435 0.000748526)
(0.00543865 -0.0181985 0.000501025)
(0.00543849 -0.00906235 0.000202637)
(0.00539138 -0.000345175 -0.000142313)
(0.0053011 0.00778205 -0.000519078)
(0.00517317 0.0152149 -0.000901547)
(0.00501421 0.0219467 -0.00125483)
(0.00483005 0.0280786 -0.00153979)
(0.00462352 0.0338158 -0.00171667)
(0.00439192 0.0394571 -0.00174609)
(0.00412525 0.0453815 -0.00159069)
(0.00380543 0.0520132 -0.00122481)
(0.00340795 0.0596965 -0.00065917)
(0.00290642 0.0683697 2.36467e-05)
(0.00228431 0.0769731 0.00065222)
(0.00162157 0.0829682 0.00102177)
(0.000986647 0.0834269 0.00106115)
(0.000404435 0.0721594 0.000767282)
(3.21557e-05 0.0362043 0.000225946)
(2.14223e-05 -0.0206196 0.000287921)
(0.000249828 -0.0503873 0.00078255)
(0.00061075 -0.0699632 0.00115091)
(0.00104813 -0.0813241 0.00139542)
(0.00149336 -0.0868785 0.001534)
(0.00192492 -0.0890965 0.0016013)
(0.00234935 -0.089369 0.00162428)
(0.00276445 -0.0882327 0.00161792)
(0.00316126 -0.0858662 0.00159087)
(0.00353323 -0.0823069 0.00154927)
(0.00387454 -0.0775412 0.00149764)
(0.00417943 -0.071572 0.00143843)
(0.00444341 -0.0644661 0.00137118)
(0.00466401 -0.0563663 0.00129196)
(0.00484048 -0.0474754 0.0011936)
(0.00497296 -0.0380332 0.00106657)
(0.00506173 -0.028296 0.000900517)
(0.00510701 -0.0185213 0.000686244)
(0.00510905 -0.00895324 0.000418094)
(0.00506856 0.000187526 9.68735e-05)
(0.00498819 0.00871385 -0.000266774)
(0.00487254 0.0165053 -0.000650622)
(0.00472696 0.0235462 -0.00102284)
(0.00455586 0.02994 -0.00134618)
(0.00436124 0.0359065 -0.0015817)
(0.00414031 0.0417697 -0.00168935)
(0.00388402 0.0479401 -0.00162867)
(0.00357645 0.0548704 -0.00136668)
(0.00319611 0.0629102 -0.000901597)
(0.00271868 0.0719507 -0.000299316)
(0.00213036 0.0808124 0.000285272)
(0.00151027 0.0868268 0.00065628)
(0.00091588 0.0870141 0.000743752)
(0.000370993 0.0749109 0.000549273)
(2.78151e-05 0.037389 0.000154338)
(1.99177e-05 -0.0216499 0.000315256)
(0.00024238 -0.0528769 0.000834082)
(0.000590874 -0.0733211 0.00120546)
(0.00101022 -0.0850937 0.00144254)
(0.00143394 -0.0907888 0.00157235)
(0.00184259 -0.0930256 0.00163365)
(0.00224325 -0.0932516 0.00165399)
(0.00263374 -0.0920155 0.00164835)
(0.00300543 -0.0894965 0.00162552)
(0.00335209 -0.0857318 0.00159193)
(0.00366839 -0.0807106 0.00155233)
(0.00394942 -0.0744446 0.00150925)
(0.00419175 -0.0670126 0.001462)
(0.00439398 -0.0585673 0.00140617)
(0.00455624 -0.0493176 0.00133387)
(0.00467927 -0.0395046 0.00123465)
(0.00476371 -0.0293838 0.00109694)
(0.00480982 -0.0192117 0.000910153)
(0.00481758 -0.00923466 0.000666967)
(0.00478707 0.00031878 0.000366113)
(0.00471944 0.00924709 1.53408e-05)
(0.00461747 0.0174143 -0.000366515)
(0.00448515 0.0247951 -0.000750605)
(0.00432606 0.031493 -0.00110202)
(0.00414134 0.0377392 -0.00138332)
(0.00392807 0.0438785 -0.00155511)
(0.00367805 0.0503472 -0.00157593)
(0.00337742 0.0576179 -0.0014086)
(0.00300814 0.0660358 -0.00104196)
(0.00255006 0.0754379 -0.000526653)
(0.00199184 0.0845321 6.60962e-07)
(0.00141014 0.0905387 0.000357951)
(0.000853188 0.0904401 0.000478633)
(0.000342804 0.0775119 0.000367277)
(2.51991e-05 0.0384927 9.64686e-05)
(2.02487e-05 -0.0226104 0.000329743)
(0.000238682 -0.0551546 0.000851411)
(0.000576008 -0.0763591 0.0012107)
(0.000977558 -0.0884832 0.00143158)
(0.00137975 -0.0942963 0.00154829)
(0.00176558 -0.0965464 0.00160119)
(0.00214257 -0.0967262 0.00161702)
(0.00250868 -0.0953939 0.00161031)
(0.00285569 -0.0927289 0.00159)
(0.00317777 -0.0887687 0.00156292)
(0.00347009 -0.0835077 0.0015344)
(0.00372847 -0.0769682 0.00150741)
(0.00395036 -0.069242 0.00148154)
(0.00413522 -0.0604928 0.00145231)
(0.00428388 -0.0509349 0.00141136)
(0.00439763 -0.0408098 0.00134716)
(0.00447743 -0.0303695 0.0012465)
(0.00452365 -0.0198664 0.00109654)
(0.00453604 -0.00954457 0.000887482)
(0.0045141 0.000364238 0.000615521)
(0.004458 0.0096486 0.000285947)
(0.00436912 0.0181604 -8.49823e-05)
(0.00424979 0.025867 -0.000471015)
(0.00410239 0.0328726 -0.00083931)
(0.00392744 0.0394175 -0.00115387)
(0.00372183 0.0458632 -0.00137625)
(0.00347791 0.0526648 -0.00146506)
(0.00318363 0.0603052 -0.00138103)
(0.0028241 0.0691136 -0.00110631)
(0.00238321 0.0788638 -0.000678257)
(0.00185309 0.0881533 -0.000214966)
(0.00130837 0.094113 0.000118228)
(0.000788697 0.093705 0.000259851)
(0.000313622 0.0799582 0.000216649)
(2.21276e-05 0.0395166 4.98246e-05)
(1.89323e-05 -0.0236111 0.000351263)
(0.000231168 -0.0575222 0.00088633)
(0.000556345 -0.0795026 0.0012406)
(0.000941132 -0.0919666 0.00144934)
(0.00132409 -0.097879 0.00155494)
(0.00169002 -0.100129 0.00160053)
(0.00204669 -0.100254 0.00161272)
(0.00239195 -0.0988212 0.00160577)
(0.0027179 -0.0960106 0.00158868)
(0.00301907 -0.0918614 0.00156853)
(0.00329112 -0.0863745 0.0015509)
(0.00353059 -0.0795829 0.00153894)
(0.00373575 -0.0715905 0.00153229)
(0.0039068 -0.0625697 0.00152644)
(0.00404521 -0.0527383 0.00151284)
(0.0041527 -0.0423357 0.0014795)
(0.00423052 -0.0316086 0.00141225)
(0.00427902 -0.0208026 0.00129663)
(0.00429769 -0.0101578 0.00112058)
(0.00428533 9.34392e-05 0.00087765)
(0.004241 0.00973171 0.000570409)
(0.00416467 0.0185971 0.000212638)
(0.0040574 0.0266486 -0.000171687)
(0.00392028 0.033989 -0.000551693)
(0.00375313 0.0408659 -0.0008928)
(0.00355287 0.0476547 -0.00115766)
(0.00331243 0.0548253 -0.00130559)
(0.00302143 0.0628647 -0.00129648)
(0.00266799 0.0720783 -0.00110767)
(0.00223994 0.0821721 -0.000765075)
(0.00173307 0.0916358 -0.000368889)
(0.00122037 0.0975294 -6.66213e-05)
(0.000733775 0.0968058 8.60214e-05)
(0.000289831 0.082262 9.71873e-05)
(2.03333e-05 0.0404709 1.47695e-05)
(1.90147e-05 -0.0245566 0.000362012)
(0.000226297 -0.0597218 0.000892488)
(0.000539958 -0.0823907 0.00122899)
(0.000907661 -0.0951442 0.00141849)
(0.00127086 -0.101136 0.00150991)
(0.00161643 -0.10338 0.00154681)
(0.00195239 -0.10345 0.00155446)
(0.00227659 -0.101919 0.00154651)
(0.00258155 -0.0989682 0.00153199)
(0.0028622 -0.0946392 0.00151829)
(0.00311464 -0.0889405 0.00151141)
(0.00333598 -0.0819176 0.00151495)
(0.00352514 -0.073687 0.00152887)
(0.00368291 -0.0644307 0.00154886)
(0.00381123 -0.0543697 0.00156628)
(0.00391228 -0.043741 0.00156864)
(0.00398764 -0.0327836 0.00154067)
(0.00403782 -0.0217335 0.00146606)
(0.0040621 -0.0108221 0.00133018)
(0.00405872 -0.000277969 0.00112347)
(0.00402575 0.00967616 0.000845284)
(0.00396197 0.0188713 0.00050668)
(0.00386697 0.0272582 0.000129687)
(0.00374071 0.0349375 -0.000256112)
(0.00358218 0.0421617 -0.00061708)
(0.00338799 0.0493166 -0.000916754)
(0.00315166 0.0568814 -0.0011153)
(0.00286432 0.0653399 -0.00117249)
(0.0025168 0.0749654 -0.00106225)
(0.00210077 0.0853901 -0.000800756)
(0.00161648 0.0949988 -0.000471541)
(0.00113458 0.100801 -0.000204223)
(0.000679668 0.0997513 -4.84109e-05)
(0.000266038 0.0844279 4.92463e-06)
(1.81605e-05 0.0413589 -1.05716e-05)
(1.77613e-05 -0.025519 0.000375943)
(0.000218706 -0.0619556 0.000907963)
(0.000521068 -0.0853138 0.00123191)
(0.000873698 -0.0983449 0.00140559)
(0.00122007 -0.104403 0.00148446)
(0.00154857 -0.106632 0.00151336)
(0.00186734 -0.106644 0.00151672)
(0.0021741 -0.105015 0.00150772)
(0.00246165 -0.101927 0.00149533)
(0.00272524 -0.0974273 0.00148711)
(0.00296137 -0.0915313 0.0014893)
(0.00316768 -0.0842965 0.00150574)
(0.00334363 -0.0758513 0.00153668)
(0.00349053 -0.0663855 0.00157815)
(0.00361077 -0.0561229 0.00162185)
(0.00370692 -0.0452967 0.0016554)
(0.00378085 -0.0341374 0.00166314)
(0.00383319 -0.0228699 0.0016276)
(0.00386311 -0.0117153 0.00153193)
(0.00386834 -0.000895489 0.0013634)
(0.00384599 0.00936621 0.00111765)
(0.00379351 0.0188931 0.000802309)
(0.0037092 0.0276271 0.000436954)
(0.00359195 0.0356647 4.977e-05)
(0.00344012 0.043261 -0.000326342)
(0.00325025 0.0508092 -0.000655537)
(0.00301634 0.0587946 -0.000898702)
(0.00273088 0.0676925 -0.00101566)
(0.00238726 0.0777384 -0.000977672)
(0.00198065 0.0884871 -0.000792547)
(0.00151538 0.098223 -0.000528575)
(0.00106008 0.103921 -0.000298219)
(0.000633082 0.102544 -0.00014547)
(0.000246151 0.0864665 -6.1153e-05)
(1.68147e-05 0.0421874 -2.64129e-05)
(1.77186e-05 -0.0264382 0.00038153)
(0.000213778 -0.0640595 0.000901594)
(0.000505807 -0.0880397 0.00120358)
(0.000843553 -0.101309 0.00135633)
(0.001173 -0.107417 0.00142058)
(0.00148431 -0.109626 0.00144062)
(0.00178575 -0.109577 0.0014392)
(0.00207503 -0.107851 0.00142875)
(0.0023453 -0.104631 0.00141817)
(0.00259212 -0.0999676 0.00141518)
(0.00281231 -0.0938859 0.00142634)
(0.00300391 -0.0864558 0.00145583)
(0.00316679 -0.0778185 0.00150432)
(0.00330268 -0.0681726 0.00156822)
(0.0034144 -0.0577447 0.00163956)
(0.0035049 -0.0467638 0.00170608)
(0.00357648 -0.0354506 0.0017518)
(0.00363002 -0.0240163 0.00175818)
(0.00366469 -0.0126677 0.00170631)
(0.00367788 -0.00161567 0.00158036)
(0.00366582 0.00892023 0.00137209)
(0.00362471 0.0187585 0.00108537)
(0.00355147 0.0278329 0.000736988)
(0.00344381 0.0362338 0.000353614)
(0.00329934 0.0442159 -3.24558e-05)
(0.00311446 0.0521761 -0.000385705)
(0.00288394 0.0606003 -0.000667459)
(0.00260154 0.0699503 -0.00083765)
(0.0022626 0.0804181 -0.000865249)
(0.00186558 0.0914783 -0.000750787)
(0.00141856 0.10132 -0.000548776)
(0.000988307 0.106899 -0.000355709)
(0.000587832 0.105192 -0.000210708)
(0.000226574 0.0883824 -0.000105063)
(1.52418e-05 0.0429585 -3.45508e-05)
(1.6648e-05 -0.0273595 0.000387921)
(0.000206702 -0.066162 0.000898834)
(0.000488639 -0.0907547 0.0011822)
(0.000813365 -0.104248 0.00131661)
(0.00112856 -0.110394 0.00136755)
(0.0014256 -0.112577 0.00137921)
(0.00171276 -0.112466 0.001373)
(0.00198764 -0.110645 0.00136069)
(0.00224367 -0.107298 0.00135102)
(0.00247665 -0.10248 0.00135178)
(0.00268365 -0.0962244 0.00136968)
(0.00286302 -0.0886143 0.00140922)
(0.00301499 -0.0798026 0.00147147)
(0.00314162 -0.0699963 0.00155343)
(0.00324609 -0.0594243 0.00164777)
(0.00333172 -0.048312 0.00174284)
(0.00340114 -0.0368701 0.00182292)
(0.00345552 -0.0252952 0.00186898)
(0.0034941 -0.0137785 0.00186054)
(0.00351401 -0.00251658 0.00177879)
(0.00351073 0.0082784 0.00161136)
(0.00347934 0.0184226 0.00135768)
(0.00341546 0.0278415 0.00103104)
(0.0033157 0.0366182 0.00065611)
(0.00317698 0.0450044 0.000264482)
(0.00299558 0.053397 -0.00010844)
(0.00276681 0.062279 -0.000424055)
(0.00248622 0.0720935 -0.000642076)
(0.00215118 0.0829855 -0.00072952)
(0.00176246 0.0943477 -0.00068035)
(0.0013317 0.104278 -0.00053664)
(0.000923707 0.10973 -0.00038037)
(0.000547129 0.107696 -0.000246721)
(0.000209285 0.0901807 -0.000128334)
(1.40831e-05 0.0436755 -3.54395e-05)
(1.65381e-05 -0.0282465 0.000387764)
(0.00020202 -0.0681633 0.000879784)
(0.000475135 -0.0933174 0.0011382)
(0.000787555 -0.107004 0.0012511)
(0.00108892 -0.113175 0.00128758)
(0.00137197 -0.115327 0.00129042)
(0.00164507 -0.115152 0.00127915)
(0.00190584 -0.113237 0.00126474)
(0.00214799 -0.109766 0.00125567)
(0.00236753 -0.104799 0.00125981)
(0.00256168 -0.0983789 0.00128408)
(0.00272897 -0.0906014 0.00133331)
(0.00286992 -0.0816324 0.00140901)
(0.00298689 -0.0716882 0.00150871)
(0.00308339 -0.0610006 0.00162568)
(0.00316317 -0.0497911 0.00174884)
(0.00322929 -0.0382594 0.00186286)
(0.00328331 -0.0265862 0.00194859)
(0.00332469 -0.0149436 0.00198437)
(0.00335048 -0.00351056 0.00194888)
(0.00335549 0.00751303 0.00182574)
(0.00333371 0.0179444 0.00160968)
(0.00327939 0.0277013 0.00130992)
(0.00318794 0.036858 0.000948625)
(0.00305554 0.0456596 0.000556426)
(0.00287832 0.0544995 0.000168696)
(0.00265207 0.063853 -0.00017573)
(0.00237368 0.0741396 -0.000436026)
(0.00204307 0.0854528 -0.000577169)
(0.00166341 0.0971044 -0.000587398)
(0.00124876 0.107107 -0.000497623)
(0.000861863 0.112422 -0.000376904)
(0.000507865 0.110064 -0.000257486)
(0.000192472 0.0918672 -0.00013416)
(1.27882e-05 0.0443416 -3.0717e-05)
(1.57218e-05 -0.0291265 0.000386997)
(0.000195867 -0.0701414 0.000860902)
(0.000460423 -0.0958412 0.00109644)
(0.000762092 -0.109706 0.00118979)
(0.00105188 -0.115892 0.00121295)
(0.00132348 -0.118006 0.00120738)
(0.0015852 -0.117768 0.00119093)
(0.00183454 -0.11576 0.00117377)
(0.00206542 -0.112171 0.00116418)
(0.00227396 -0.107061 0.00116999)
(0.00245747 -0.100484 0.0011983)
(0.00261468 -0.0925496 0.00125425)
(0.00274629 -0.0834352 0.00133984)
(0.0028549 -0.0733665 0.00145325)
(0.00294431 -0.062579 0.00158856)
(0.00301857 -0.0512907 0.00173559)
(0.00308115 -0.0396913 0.00187979)
(0.003134 -0.0279454 0.00200231)
(0.0031769 -0.0162049 0.00208089)
(0.00320695 -0.00462801 0.00209206)
(0.00321856 0.006602 0.00201558)
(0.00320477 0.0173072 0.00184108)
(0.00315857 0.027399 0.001573)
(0.00307423 0.0369415 0.00123028)
(0.0029472 0.0461708 0.000842159)
(0.00277344 0.0554725 0.000443945)
(0.00254928 0.0653099 7.4999e-05)
(0.00227278 0.0760753 -0.000222935)
(0.00194577 0.0878077 -0.0004126)
(0.00157433 0.0997366 -0.000476851)
(0.00117487 0.109797 -0.000436816)
(0.000807128 0.114973 -0.000350207)
(0.000473171 0.112296 -0.000247284)
(0.000177716 0.0934468 -0.000125695)
(1.18374e-05 0.0449594 -2.15771e-05)
(1.5602e-05 -0.0299784 0.000381162)
(0.000191488 -0.0720388 0.000830136)
(0.000448558 -0.0982453 0.00103883)
(0.00074033 -0.112266 0.001111)
(0.0010194 -0.118456 0.00112048)
(0.00128055 -0.120529 0.00110649)
(0.00153195 -0.120224 0.00108473)
(0.00177076 -0.118126 0.00106453)
(0.00199102 -0.11442 0.00105397)
(0.00218905 -0.109171 0.00106091)
(0.00236228 -0.102444 0.0010926)
(0.00250954 -0.094361 0.00115448)
(0.00263173 -0.0851133 0.00124898)
(0.00273166 -0.0749363 0.00137484)
(0.00281337 -0.0640693 0.00152688)
(0.00288127 -0.0527274 0.00169579)
(0.00293924 -0.0410901 0.00186792)
(0.00298971 -0.0293053 0.00202511)
(0.0030329 -0.0175031 0.00214501)
(0.0030661 -0.00581779 0.0022027)
(0.00308347 0.00558833 0.00217455)
(0.00307725 0.0165465 0.00204513)
(0.0030392 0.0269633 0.00181358)
(0.00296234 0.036892 0.00149481)
(0.0028413 0.0465567 0.00111608)
(0.00267182 0.0563307 0.000712378)
(0.00245072 0.0666609 0.000323697)
(0.00217713 0.0779082 -7.01929e-06)
(0.00185448 0.090055 -0.000240105)
(0.00149097 0.10225 -0.000353269)
(0.00110602 0.112357 -0.000358751)
(0.000756585 0.11739 -0.000304563)
(0.000441432 0.114401 -0.000219902)
(0.000164395 0.0949251 -0.000105751)
(1.09983e-05 0.045532 -9.13944e-06)
(1.4974e-05 -0.0308171 0.000374025)
(0.000186161 -0.0738986 0.000797776)
(0.000436165 -0.100593 0.000980836)
(0.000719362 -0.114756 0.00103321)
(0.000989598 -0.120943 0.00102989)
(0.00124243 -0.122974 0.00100775)
(0.00148576 -0.122601 0.000980528)
(0.00171627 -0.12041 0.000956702)
(0.00192801 -0.116588 0.000944119)
(0.00211743 -0.111204 0.000950651)
(0.00228215 -0.104331 0.000983673)
(0.00242111 -0.0961043 0.00104888)
(0.00253529 -0.0867301 0.00114915)
(0.0026276 -0.076453 0.00128389)
(0.00270225 -0.0655168 0.00144879)
(0.00276391 -0.0541347 0.00163557)
(0.00281682 -0.0424776 0.0018317)
(0.00286388 -0.0306772 0.00202001)
(0.00290582 -0.0188412 0.00217854)
(0.00294033 -0.00707791 0.00228149)
(0.00296158 0.00447584 0.00230238)
(0.00296128 0.0156652 0.00222081)
(0.00293011 0.0263949 0.00203013)
(0.00285993 0.0367076 0.00174048)
(0.00274445 0.0468126 0.00137636)
(0.0025791 0.0570674 0.000972108)
(0.00236113 0.0678976 0.000568373)
(0.00209069 0.079629 0.000209556)
(0.00177256 0.0921855 -6.2093e-05)
(0.0014166 0.104636 -0.000219349)
(0.00104446 0.114778 -0.000266372)