/*--------------------------------*- C++ -*----------------------------------*\
| =========                 |                                                 |
| \\      /  F ield         | OpenFOAM: The Open Source CFD Toolbox           |
|  \\    /   O peration     | Version:  v1912                                 |
|   \\  /    A nd           | Website:  www.openfoam.com                      |
|    \\/     M anipulation  |                                                 |
\*---------------------------------------------------------------------------*/
FoamFile
{
    version     2.0;
    format      ascii;
    class       volScalarField;
    location    "230/oil";
    object      heatTransferCoeff(T);
}
// * * * * * * * * * * * * * * * * * * * * * * * * * * * * * * * * * * * * * //

dimensions      [1 0 -3 -1 0 0 0];


internalField   uniform 0;

boundaryField
{
    maxY
    {
        type            calculated;
        value           uniform 0;
    }
    minX
    {
        type            calculated;
        value           uniform 0;
    }
    maxX
    {
        type            calculated;
        value           uniform 0;
    }
    minY
    {
        type            calculated;
        value           uniform 0;
    }
    minZ
    {
        type            calculated;
        value           uniform 0;
    }
    maxZ
    {
        type            calculated;
        value           uniform 0;
    }
    oil_to_sphere
    {
        type            calculated;
        value           nonuniform List<scalar> 
360
(
-86.4445
-86.9297
-61.4244
-159.024
-169.496
-71.3442
-173.996
-157.024
-169.038
-88.5043
-88.9778
-71.0733
-78.8096
-55.3756
-86.7327
-150.533
-171.743
-159.139
-166.475
-55.0699
-138.468
-88.9067
-78.2897
-164.427
-61.7906
-170.548
-71.1915
-167.956
-166.7
-157.631
-179.054
-174.986
-61.6114
-60.9843
-70.3554
-70.6971
-164.707
-163.51
-159.098
-161.673
-165.565
-61.0442
-69.7922
-89.2324
-89.4395
-71.053
-76.9509
-54.8624
-87.0058
-155.839
-71.7293
-71.134
-78.2739
-78.3668
-54.7407
-89.42
-159.565
-55.029
-70.0693
-76.8725
-55.0217
-167.343
-158.927
-165.874
-54.865
-143.807
-86.9571
-76.1226
-174.207
-165.568
-159.536
-163.431
-162.968
-54.7989
-123.626
-86.2024
-55.4392
-75.0872
-163.615
-168.601
-76.8742
-75.5999
-75.7535
-55.0127
-61.1874
-70.6312
-70.8447
-78.513
-55.1201
-55.44
-61.3232
-78.6055
-70.8676
-61.2419
-78.117
-70.6497
-70.6484
-70.7582
-60.9017
-55.9873
-55.8853
-55.0387
-71.5082
-71.2884
-78.9016
-55.041
-55.6068
-79.0451
-61.1415
-71.0426
-70.9655
-70.9003
-61.0247
-54.8688
-56.4591
-56.3765
-77.9396
-77.5914
-77.3167
-88.7922
-88.9394
-153.57
-163.604
-147.805
-164.795
-153.648
-164.997
-167.13
-155.36
-162.348
-159.607
-77.3262
-76.9392
-77.0889
-55.8207
-152.814
-166.394
-90.0032
-90.2176
-167.892
-155.124
-88.0239
-86.7146
-170.348
-156.258
-180.073
-55.8392
-55.6884
-164.541
-168.573
-179.847
-170.798
-170.855
-178.168
-179.719
-155.578
-86.0748
-169.918
-161.146
-55.3087
-168.013
-172.311
-75.2997
-74.1536
-77.2257
-88.1165
-89.1431
-169.94
-156.353
-176.795
-54.5214
-158.908
-89.4593
-167.938
-160.399
-54.5533
-173.113
-76.4355
-76.3492
-56.1495
-71.0842
-71.3599
-78.6124
-61.5642
-77.7866
-69.5294
-55.2008
-55.8399
-166.769
-156.371
-167.804
-161.397
-88.096
-88.1583
-164.225
-150.219
-161.503
-87.4551
-87.9841
-55.6569
-70.617
-71.7492
-78.8631
-71.0835
-70.8151
-78.9381
-61.0926
-78.3884
-70.5289
-60.6434
-155.103
-78.7959
-70.524
-55.2006
-162.863
-154.224
-162.846
-91.3503
-91.3524
-54.5137
-70.1583
-70.2538
-76.7491
-167.258
-60.5319
-76.4355
-70.0024
-157.734
-158.81
-90.7243
-54.8756
-90.023
-54.8442
-56.4536
-77.7953
-61.3799
-69.4914
-69.3026
-69.6022
-60.879
-55.5332
-159.111
-149.484
-167.526
-175.619
-157.411
-148.829
-169.853
-171.757
-88.0653
-161.25
-55.811
-169.561
-167.615
-168.434
-78.3213
-61.4423
-71.0646
-78.3735
-61.7218
-168.245
-70.585
-70.532
-70.9663
-60.9442
-170.297
-156.834
-70.4474
-70.4628
-60.8913
-157.249
-177.921
-89.1183
-160.065
-55.0755
-167.114
-163.975
-168.181
-76.4299
-60.7451
-165.714
-69.9574
-70.1098
-69.8543
-164.377
-60.9732
-161.783
-90.3481
-149.77
-90.794
-157.729
-160.855
-163.768
-55.2031
-75.2199
-73.8648
-74.6163
-90.1767
-164.86
-89.9321
-159.652
-164.401
-55.5416
-166.092
-168.901
-86.7896
-161.837
-55.6141
-177.974
-76.247
-75.8095
-54.4914
-159.37
-90.1027
-141.689
-159.963
-90.0185
-55.0297
-70.7496
-70.7908
-78.7143
-165.253
-153.22
-88.7009
-55.7458
-154.325
-90.0901
-55.3159
-155.486
-168.239
-87.3322
-162.368
-54.3646
-175.376
-79.0162
-172.546
-60.9835
-70.895
-173.233
-161.905
-159.012
-88.4781
-168.796
-167.236
-89.1803
-160.02
-74.7994
-76.6245
-156.839
-89.6907
-54.7103
-156.857
-89.8994
-55.3223
-161.649
-162.845
-153.752
-90.303
-159.17
-90.5151
)
;
    }
}


// ************************************************************************* //
