/*--------------------------------*- C++ -*----------------------------------*\
| =========                 |                                                 |
| \\      /  F ield         | OpenFOAM: The Open Source CFD Toolbox           |
|  \\    /   O peration     | Version:  v1912                                 |
|   \\  /    A nd           | Website:  www.openfoam.com                      |
|    \\/     M anipulation  |                                                 |
\*---------------------------------------------------------------------------*/
FoamFile
{
    version     2.0;
    format      ascii;
    class       volScalarField;
    location    "102/oil";
    object      heatTransferCoeff(T);
}
// * * * * * * * * * * * * * * * * * * * * * * * * * * * * * * * * * * * * * //

dimensions      [1 0 -3 -1 0 0 0];


internalField   uniform 0;

boundaryField
{
    maxY
    {
        type            calculated;
        value           uniform 0;
    }
    minX
    {
        type            calculated;
        value           uniform 0;
    }
    maxX
    {
        type            calculated;
        value           uniform 0;
    }
    minY
    {
        type            calculated;
        value           uniform 0;
    }
    minZ
    {
        type            calculated;
        value           uniform 0;
    }
    maxZ
    {
        type            calculated;
        value           uniform 0;
    }
    oil_to_sphere
    {
        type            calculated;
        value           nonuniform List<scalar> 
1536
(
-263.151
-275.081
-257.088
-253.775
-221.449
-227.672
-224.775
-175.533
-168.95
-285.346
-219.748
-288.013
-292.2
-287.748
-252.192
-219.64
-177.525
-170.03
-56.4656
-291.735
-285.142
-229.572
-226.181
-221.12
-232.005
-231.887
-231.886
-221.821
-276.146
-272.971
-256.755
-209.04
-193.292
-232.931
-220.217
-219.01
-210.835
-241.352
-229.209
-240.744
-229.251
-219
-270.095
-288.523
-274.169
-286.524
-227.255
-227.447
-248.941
-231.562
-228.834
-228.901
-224.73
-227.576
-200.105
-189.943
-226.918
-226.202
-170.846
-123.692
-134.302
-122.071
-131.973
-291.358
-292.905
-287.528
-275.486
-286.986
-263.158
-273.211
-233.443
-227.547
-256.483
-229.914
-220.323
-192.985
-187.56
-183.088
-219.95
-170.214
-121.74
-132.215
-109.54
-108.329
-139.608
-134.004
-111.631
-176.616
-169.618
-123.242
-133.03
-56.2829
-56.4928
-292.551
-293.157
-288.642
-278.42
-282.563
-287.593
-261.752
-276.379
-232.617
-261.817
-256.825
-228.966
-229.888
-221.606
-184.016
-218.034
-194.076
-186.942
-192.606
-123.397
-134.811
-110.57
-112.358
-110.248
-138.763
-134.001
-140.798
-170.378
-133.254
-56.6154
-287.435
-262.059
-273.317
-263.42
-272.048
-228.577
-229.428
-230.882
-228.439
-228.782
-227.168
-230.353
-231.806
-227.263
-190.143
-224.696
-223.914
-123.787
-133.851
-176.858
-170.643
-132.246
-168.529
-249.339
-249.19
-224.486
-233.65
-255.951
-249.21
-226.811
-230.194
-229.509
-211.305
-199.832
-202.776
-249.967
-246.224
-250.612
-270.886
-238.783
-230.796
-219.351
-211.311
-228.004
-215.215
-200.637
-203.464
-269.357
-243.002
-274.499
-239.433
-207.255
-187.154
-250.133
-253.425
-264.383
-247.448
-238.485
-230.275
-211.506
-229.84
-208.049
-202.807
-204.837
-280.54
-246.724
-256.306
-268.22
-251.053
-265.249
-255.495
-207.18
-211.251
-213.084
-214.644
-205.928
-210.359
-214.307
-220.566
-169.901
-165.872
-162.047
-172.795
-177.907
-175.953
-183.244
-182.488
-166.626
-158.698
-154.169
-280.558
-297.803
-292.871
-282.631
-281.714
-283.655
-281.905
-279.292
-288.884
-274.531
-280.456
-281.387
-251.099
-251.354
-274.562
-261.355
-235.565
-212.632
-209.17
-227.523
-208.598
-167.354
-171.394
-163.42
-173.475
-177.068
-164.157
-157.873
-102.424
-93.4334
-289.159
-282.238
-286.207
-280.882
-287.15
-298.943
-288.196
-280.457
-246.664
-231.574
-246.715
-249.612
-209.343
-220.634
-167.858
-159.606
-179.036
-188.87
-183.095
-155.457
-92.6584
-101.042
-75.2554
-75.3913
-101.458
-284.835
-279.559
-278.196
-274.554
-280.438
-282.519
-277.61
-285.877
-301.973
-291.082
-279.801
-265.468
-249.832
-250.982
-259.48
-276.729
-262.266
-250.292
-249.851
-211.518
-213.03
-220.218
-222.081
-214.399
-220.086
-163.281
-159.143
-165.53
-174.705
-171.292
-177.164
-177.483
-177.036
-162.46
-156.762
-173.491
-166.089
-233.586
-224.514
-227.299
-211.156
-206.968
-203.085
-198.137
-270.072
-260.816
-274.193
-267.427
-260.345
-270.067
-271.746
-276.429
-284.21
-272.055
-274.108
-270.396
-296.605
-284.97
-280.854
-274.052
-283.738
-290.324
-281.715
-265.205
-267.483
-273.894
-259.894
-272.72
-276.645
-283.351
-282.089
-288.255
-285.501
-283.194
-277.159
-276.964
-275.11
-278.191
-269.855
-271.036
-261.789
-269.087
-257.993
-261.618
-276.113
-248.986
-270.673
-251.735
-254.605
-246.824
-235.463
-268.999
-249.877
-249.603
-258.831
-236.107
-243.521
-250.639
-233.436
-240.272
-228.64
-252.383
-269.567
-250.675
-252.56
-255.04
-238.386
-244.742
-242.99
-211.995
-216.821
-210.884
-200.957
-195.638
-201.649
-190.536
-185.691
-213.157
-216.941
-212.442
-203.072
-197.241
-206.045
-189.909
-185.826
-181.681
-211.015
-185.329
-202.306
-197.874
-203.201
-189.35
-212.698
-218.499
-212.367
-217.745
-187.494
-182.311
-202.845
-197.894
-204.731
-188.087
-184.232
-174.65
-170.416
-174.135
-170.059
-162.765
-163.076
-157.453
-168.518
-159.846
-179.151
-155.872
-158.531
-153.728
-147.483
-155.777
-152.692
-143.038
-139.755
-130.1
-171.971
-167.483
-162.572
-173.231
-158.917
-163.044
-143.147
-138.525
-136.591
-130.184
-154.015
-148.499
-156.136
-152.921
-151.225
-174.145
-169.894
-176.068
-176.132
-163.142
-156.812
-170.944
-165.242
-319.94
-307.817
-296.887
-316.822
-296.703
-299.896
-307.712
-289.392
-292.705
-297.377
-296.098
-280.185
-290.102
-277.174
-275.711
-273.873
-272.714
-278.441
-276.84
-283.404
-289.376
-267.189
-284.769
-270.405
-277.957
-271.205
-285.877
-274.51
-284.934
-279.483
-286.929
-280.535
-268.041
-275.821
-261.995
-281.671
-247.32
-256.819
-251.851
-229.36
-239.544
-239.36
-252.443
-228.996
-248.744
-228.428
-239.468
-230.553
-221.868
-227.61
-212.332
-209.187
-198.311
-203.689
-200.897
-195.82
-187.478
-208.839
-185.924
-219.346
-210.693
-199.946
-159.067
-153.102
-148.506
-157.302
-153.673
-167.096
-159.005
-179.086
-154.927
-142.358
-141.163
-131.288
-117.124
-107.367
-117.982
-107.785
-126.031
-134.535
-125.672
-115.389
-117.601
-165.961
-170.923
-162.049
-172.631
-156.439
-149.112
-157.402
-151.745
-165.876
-158.104
-174.918
-181.845
-155.065
-142.555
-151.579
-139.713
-130.202
-147.838
-101.274
-93.1909
-103.846
-93.4729
-76.1062
-75.6498
-75.8246
-75.5067
-91.2416
-312.493
-293.622
-300.293
-297.676
-294.218
-313.085
-301.409
-297.056
-292.072
-281.268
-295.889
-298.633
-304.539
-282.495
-283.99
-289.747
-290.326
-267.238
-280.977
-267.805
-285.701
-277.392
-276.538
-273.182
-280.001
-272.527
-279.253
-286.974
-274.725
-266.162
-262.524
-278.922
-285.208
-267.338
-283.468
-269.644
-260.976
-287.709
-276.781
-275.61
-279.011
-271.253
-270.581
-277.216
-285.598
-272.2
-262.63
-251.733
-250.674
-240.368
-230.861
-241.507
-268.354
-254.731
-252.77
-244.001
-242.352
-235.489
-239.102
-239.623
-229.693
-229.071
-211.555
-226.634
-207.134
-217.159
-203.366
-198.603
-231.221
-220.725
-189.512
-209.787
-185.431
-207.05
-195.092
-186.679
-201.115
-204.953
-205.185
-200.835
-199.901
-228.881
-210.115
-142.436
-142.016
-138.844
-131.876
-171.341
-166.112
-162.597
-173.26
-159.38
-163.504
-149.634
-158.655
-157.076
-152.746
-150.463
-127.214
-127.035
-135.508
-116.631
-117.317
-107.204
-118.036
-118.229
-106.999
-133.593
-124.946
-125.561
-134.868
-115.758
-166.131
-158.477
-177.265
-182.266
-155.252
-143
-151.9
-138.633
-138.319
-148.351
-163.952
-157.246
-170.244
-167.192
-162.415
-173.149
-176.508
-148.638
-154.105
-156.921
-152.204
-150.887
-76.0324
-75.9366
-102.96
-101.949
-93.5303
-91.1826
-111.901
-101.941
-91.9825
-260.203
-273.121
-272.646
-258.994
-271.304
-260.325
-259.497
-285.213
-279.897
-290.013
-280.342
-267.974
-276.477
-272.012
-283.277
-274.719
-278.794
-268.046
-268.5
-285.365
-277.063
-273.068
-274.739
-271.127
-270.91
-276.01
-262.921
-261.586
-268.781
-274.937
-268.171
-278.425
-271.739
-290.96
-270.02
-263.564
-267.22
-269.25
-261.737
-259.221
-276.62
-250.283
-240.053
-240.375
-246.839
-230.765
-267.312
-249.677
-248.867
-256.204
-244.298
-244.51
-238.572
-261.708
-247.804
-250.484
-256.298
-236.545
-238.528
-248.433
-246.366
-230.856
-254.663
-268.041
-253.399
-255.673
-245.442
-244.801
-239.956
-239.564
-229.884
-202.312
-197.551
-204.014
-189.983
-187.749
-183.265
-215.531
-208.706
-216.835
-213.097
-197.593
-203.03
-202.6
-187.142
-183.697
-184.889
-212.869
-212.436
-218.427
-211.741
-218.579
-186.247
-189.273
-201.884
-196.446
-202.421
-186.58
-183.705
-220.257
-211.187
-211.152
-215.222
-220.014
-188.396
-184.133
-197.734
-203.382
-203.633
-170.147
-175.185
-163.064
-162.091
-156.518
-174.432
-170.43
-175.085
-154.29
-148.459
-156.644
-151.768
-144.715
-154.321
-140.642
-130.798
-149.385
-166.977
-170.008
-161.753
-173.816
-183.552
-194.939
-171.237
-162.034
-156.751
-159.909
-168.473
-142.885
-150.972
-139.385
-138.113
-147.156
-154.913
-149.159
-155.345
-154.265
-151.113
-175.763
-184.749
-167.197
-158.846
-154.648
-172.825
-177.087
-166.736
-171.258
-163.132
-257.36
-251.574
-187.342
-179.242
-287.282
-278.734
-284.684
-286.435
-284.497
-248.17
-266.187
-257.633
-262.921
-218.488
-229.692
-179.941
-108.252
-105.519
-257.365
-256.46
-176.078
-108.533
-103.557
-123.579
-286.743
-250.338
-226.427
-122.095
-263.065
-255.261
-261.564
-217.968
-230.436
-230.035
-175.391
-258.657
-263.122
-229.837
-230.241
-260.659
-227.963
-229.916
-214.111
-220.089
-183.068
-192.608
-199.406
-251.756
-260.296
-226.679
-239.412
-217.067
-224.762
-183.138
-192.315
-194.42
-249.978
-264.696
-228.061
-244.582
-197.297
-184.209
-195.671
-212.379
-239.053
-237.132
-261.643
-264.73
-229.593
-227.829
-226.222
-230.392
-193.493
-184.963
-193.987
-177.333
-297.933
-291.679
-261.048
-282.693
-260.051
-288.322
-285.406
-228.865
-252.565
-251.587
-256.39
-251.041
-227.761
-197.058
-192.651
-193.069
-193.939
-192.991
-190.936
-144.983
-179.124
-141.205
-145.914
-292.89
-286.073
-297.177
-287.734
-294.63
-290.065
-293.344
-291.14
-296.229
-289.588
-261.311
-283.733
-261.728
-273.254
-261.766
-227.65
-241.806
-249.355
-269.578
-231.417
-259.669
-227.592
-185.335
-194.389
-197.802
-186.974
-193.702
-191.64
-177.823
-145.624
-136.994
-134.995
-140.737
-178.844
-144.167
-106.042
-109.188
-103.331
-297.787
-293.898
-289.961
-303.289
-290.436
-295.517
-290.042
-300.276
-294.363
-261.973
-282.775
-257.94
-286.373
-284.288
-277.978
-284.318
-277.11
-259.165
-267.421
-226.906
-248.946
-266.407
-251.086
-264.781
-229.847
-183.706
-195.102
-217.285
-227.11
-190.12
-200.37
-185.703
-193.231
-225.478
-179.877
-145.133
-132.55
-137.374
-133.83
-178.311
-144.125
-105.937
-103.495
-104.697
-292.043
-271.508
-262.957
-287.433
-259.137
-229.199
-256.742
-252.885
-252.983
-251.898
-191.819
-201.318
-191.592
-191.489
-191.493
-144.601
-183.178
-146.498
-180.798
-260.959
-248.912
-237.814
-246.759
-264.413
-250.911
-203.979
-213.067
-205.565
-253.896
-264.884
-253.412
-241.645
-268.142
-233.514
-246.532
-245.665
-236.267
-253.036
-243.523
-265.932
-237.665
-243.499
-244.554
-239.982
-218.883
-218.321
-205.533
-203.712
-196.426
-187.369
-203.495
-194.827
-201.022
-262.089
-246.959
-240.225
-248.057
-263.839
-234.26
-237.775
-239.051
-222.351
-246.679
-211.578
-223.752
-220.408
-206.048
-206.006
-197.747
-187.173
-201.196
-193.653
-201.237
-248.835
-262.857
-234.223
-236.179
-241.068
-220.994
-245.61
-217.508
-204.837
-193.058
-207.108
-202.656
-209.836
-277.212
-277.724
-275.844
-279.165
-238.149
-264.95
-253.636
-213.147
-213.71
-221.073
-219.956
-217.826
-175.768
-184.851
-183.224
-165.188
-161.693
-186.176
-177.438
-177.319
-279.302
-281.422
-286.994
-275.917
-242.131
-253.037
-235.373
-270.771
-251.572
-217.222
-216.816
-206.048
-177.016
-189.992
-183.097
-166.087
-126.97
-129.06
-116.418
-117.484
-107.083
-102.429
-279.249
-277.972
-277.838
-274.308
-284.017
-247.81
-259.49
-254.599
-210.431
-162.156
-184.112
-117.268
-106.959
-103.597
-90.1841
-130.306
-279.873
-279.109
-286.403
-280.046
-283.956
-283.114
-279.68
-277.807
-284.098
-234.261
-242.932
-281.412
-251.152
-218.833
-219.368
-177.408
-185.239
-176.319
-172.001
-181.821
-164.992
-130.866
-217.768
-182.457
-267.828
-263.222
-246.989
-248.938
-217.819
-210.855
-214.629
-200.63
-192.578
-205.147
-196.807
-196.668
-191.147
-297.343
-292.98
-255.195
-256.366
-271.884
-278.075
-274.608
-275.348
-258
-270.652
-264.624
-273.865
-260.314
-267.954
-281.461
-275.287
-276.964
-275.471
-257.184
-263.835
-267.277
-272.528
-279.561
-284.69
-282.183
-283.85
-270.402
-258.011
-266.038
-284.617
-279.55
-284.396
-281.484
-259.398
-278.128
-282.35
-274.356
-265.118
-269.272
-263.896
-246.84
-241.868
-272.032
-247.45
-239.394
-239.828
-227.145
-229.084
-228.263
-240.583
-266.486
-252.794
-231.086
-230.059
-239.785
-231.272
-241.202
-262.747
-244.747
-229.383
-220.995
-220.007
-202.986
-206.626
-185.91
-219.978
-202.727
-208.266
-187.73
-214.439
-220.376
-204.97
-186.926
-219.121
-197.39
-203.715
-176.452
-176.215
-162.1
-163.287
-150.805
-151.912
-163.751
-152.258
-149.111
-138.196
-135.971
-134.993
-140.539
-175.67
-165.217
-151.623
-147.449
-139.338
-139.616
-134.34
-171.817
-177.017
-151.483
-300.147
-287.037
-294.746
-281.916
-286.018
-299.464
-277.658
-312.881
-287.566
-290.455
-289.342
-300.609
-289.832
-298.709
-312.625
-301.34
-287.76
-296.24
-269.501
-279.309
-291.104
-284.088
-261.295
-276.033
-267.508
-280.14
-275.079
-278.904
-275.52
-285.076
-268.395
-256.581
-262.364
-273.157
-283.952
-277.571
-276.379
-270.705
-236.624
-242.663
-228.396
-249.236
-262.306
-237.091
-243.341
-246.661
-249.635
-249.909
-260.21
-238.369
-213.411
-203.429
-198.451
-209.934
-218.305
-194.087
-197.02
-205.003
-212.852
-203.676
-195.756
-187.735
-139.976
-138.274
-136.132
-161.753
-151.578
-147.71
-139.012
-175.204
-179.658
-138.955
-136.922
-161.859
-139.505
-103.538
-103.912
-92.3951
-111.927
-90.6033
-103.31
-113.648
-302.606
-288.021
-307.507
-294.891
-294.031
-283.848
-286.643
-277.822
-297.842
-306.891
-298.945
-288.207
-284.495
-282.667
-290.392
-290.146
-290.225
-269.641
-285.741
-266.865
-283.384
-284.761
-279.221
-254.473
-285.535
-272.47
-278.331
-275.846
-269.979
-275.988
-276.128
-262.723
-268.241
-264.402
-244.704
-261.515
-248.209
-238.176
-234.291
-221.445
-239.978
-265.904
-245.456
-246.608
-214.376
-195.955
-200.013
-210.603
-212.869
-199.171
-206.444
-207.973
-202.807
-195.623
-216.384
-217.852
-151.75
-148.006
-139.402
-177.486
-166.241
-139.232
-136.865
-162.51
-140.041
-175.306
-138.284
-91.8235
-102.94
-113.822
-299.605
-279.171
-260.553
-274.952
-261.14
-259.781
-269.414
-284.219
-278.875
-276.995
-261.809
-267.534
-274.068
-270.625
-280.205
-277.025
-278.573
-275.652
-270.444
-258.476
-275.773
-267.876
-264.767
-249.96
-230.546
-243.371
-273.3
-246.824
-238.599
-228.294
-228.128
-240.195
-266.293
-228.962
-240.073
-265.528
-230.681
-201.144
-189.786
-215.136
-219.976
-214.467
-201.823
-209.509
-217.679
-197.528
-218.767
-197.808
-150.377
-176.689
-138.551
-136.585
-141.421
-175.575
-185.844
-163.568
-138.938
-141.081
-161.295
-176.2
)
;
    }
}


// ************************************************************************* //
