/*--------------------------------*- C++ -*----------------------------------*\
| =========                 |                                                 |
| \\      /  F ield         | OpenFOAM: The Open Source CFD Toolbox           |
|  \\    /   O peration     | Version:  v1912                                 |
|   \\  /    A nd           | Website:  www.openfoam.com                      |
|    \\/     M anipulation  |                                                 |
\*---------------------------------------------------------------------------*/
FoamFile
{
    version     2.0;
    format      ascii;
    class       volScalarField;
    location    "55/sphere";
    object      T;
}
// * * * * * * * * * * * * * * * * * * * * * * * * * * * * * * * * * * * * * //

dimensions      [0 0 0 1 0 0 0];


internalField   nonuniform List<scalar> 
304
(
451.855
451.908
451.905
451.936
451.864
451.865
451.854
451.909
451.851
452.082
452.083
451.914
451.904
452.082
452.083
451.97
451.915
451.97
451.849
451.907
451.937
451.861
451.911
452.084
452.083
451.97
451.938
452.084
452.084
452.014
451.861
451.97
452.015
451.912
451.864
451.92
451.97
451.849
451.872
451.972
452.014
451.909
451.851
451.913
451.837
451.832
451.863
451.864
451.849
451.911
451.863
451.864
451.912
451.85
451.833
451.861
451.846
451.861
451.909
451.909
451.908
451.936
451.916
451.97
451.969
452.012
451.854
451.936
451.908
451.97
451.916
452.012
451.97
451.861
451.846
451.909
451.863
451.858
451.858
451.906
451.844
451.935
451.849
451.906
451.967
452.011
451.912
451.968
451.909
451.908
451.855
452.012
451.97
451.97
451.916
451.91
451.861
451.846
451.831
451.861
451.846
451.909
451.861
451.911
451.849
451.861
451.832
451.846
451.86
451.861
451.909
451.909
451.915
451.971
451.907
451.937
451.969
452.013
451.857
451.971
451.918
451.937
451.91
452.014
451.971
451.849
451.864
451.911
451.865
451.914
451.906
451.968
451.908
451.97
451.936
452.013
451.851
451.969
451.909
451.97
451.91
452.013
451.937
451.967
451.851
451.914
451.936
452.013
451.907
451.969
451.908
451.916
451.854
452.013
451.937
451.971
451.909
451.849
451.862
451.911
451.862
451.97
451.854
451.909
451.97
452.014
451.909
451.939
451.916
451.909
451.854
452.014
451.97
451.94
451.91
451.91
451.861
451.862
451.86
451.863
451.911
451.853
451.936
451.97
452.013
451.854
451.908
451.918
451.971
451.908
452.013
451.97
451.909
451.851
451.97
451.913
451.91
451.863
451.846
451.972
451.938
452.014
451.861
451.921
451.913
451.973
451.909
452.013
451.938
451.916
451.857
451.97
451.91
452.014
451.91
451.971
451.914
451.974
451.859
451.92
451.938
451.971
451.909
451.97
451.909
451.917
451.856
451.91
451.863
451.851
452.015
451.91
451.94
451.918
451.972
451.857
451.911
451.972
451.941
451.912
451.973
451.92
451.912
451.861
451.864
451.864
451.853
451.839
451.861
451.851
451.91
451.862
451.91
451.847
451.862
451.832
451.854
451.866
451.914
451.867
451.971
451.973
452.014
451.861
451.911
451.912
451.938
451.916
452.014
451.97
451.908
451.853
451.937
451.908
451.911
451.863
451.861
451.915
451.854
451.864
452.014
451.918
451.971
451.91
451.938
451.854
451.91
451.97
451.972
451.918
451.937
451.908
451.91
451.856
451.861
451.849
451.859
451.838
451.912
451.864
451.865
451.853
451.865
451.864
)
;

boundaryField
{
    sphere_to_oil
    {
        type            compressible::turbulentTemperatureCoupledBaffleMixed;
        refValue        nonuniform List<scalar> 
360
(
301.708
301.708
301.376
302.124
302.032
301.318
302.139
302.139
302.139
302.576
302.576
301.706
301.634
301.155
302.373
302.01
302.262
302.262
302.262
301.686
302.251
302.555
301.696
302.111
301.422
302.241
301.731
302.216
302.216
302.216
302.161
302.235
301.415
301.539
301.752
301.867
302.367
302.367
302.367
302.361
302.74
302.231
302.449
301.681
301.681
301.714
302.9
301.718
304.405
302.735
301.263
301.528
301.591
301.73
301.685
302.802
302.289
301.75
303.007
307.446
302.087
302.317
302.317
302.317
301.611
302.777
303.95
301.702
302.189
302.189
302.189
302.264
302.358
301.152
301.965
302.63
301.429
301.672
302.676
302.341
301.851
301.687
301.873
302.013
301.488
301.12
301.809
301.438
301.468
301.524
301.534
301.539
301.74
301.762
301.332
301.951
302.057
301.494
302.103
300.928
301.032
301.117
301.242
301.596
301.475
301.129
301.153
301.602
301.785
301.658
301.824
301.674
301.873
301.673
301.058
301.178
301.092
301.751
301.195
301.701
301.701
302.124
302.124
302.111
302.111
302.399
302.399
302.399
302.284
302.284
302.284
301.193
301.614
301.178
301.252
302.032
302.032
301.997
301.997
302.161
302.161
301.873
301.873
302.109
302.109
302.109
301.231
301.35
302.037
302.037
302.037
302.176
302.176
302.176
302.01
302.251
302.373
302.01
302.067
301.333
302.067
302.067
301.716
301.854
301.653
302.517
302.517
302.698
302.698
302.698
301.955
302.251
302.555
302.686
302.686
301.947
302.686
301.8
301.618
301.181
301.65
301.759
302.001
301.666
302.224
302.333
301.314
300.945
302.241
302.241
302.235
302.235
301.466
301.466
302.277
302.277
302.277
304.844
304.844
301.005
301.629
301.262
301.504
301.744
301.253
301.443
301.827
301.603
301.658
301.938
302.361
301.545
301.591
301.687
302.784
302.784
302.784
302.788
302.788
302.05
302.476
302.812
306.14
302.74
302.214
307.507
302.568
302.361
302.74
302.648
301.6
302.648
302.049
301.141
302.177
301.632
302.116
303.106
302.702
302.537
300.923
302.288
302.196
302.288
302.288
302.196
302.196
302.735
302.777
304.405
302.541
301.348
302.735
302.541
302.541
301.472
301.409
301.629
301.675
301.723
302.264
301.912
301.659
301.73
301.795
302.289
301.965
301.752
302.021
302.096
302.464
302.105
302.802
302.66
301.996
302.289
302.66
302.66
306.666
302.17
302.676
302.919
302.503
302.561
302.794
302.285
302.815
302.679
302.464
302.679
302.794
302.464
302.794
301.126
301.571
301.21
301.285
303.052
302.262
303.052
302.262
302.262
300.869
302.777
302.696
303.95
302.696
300.867
302.696
301.353
301.531
301.174
302.252
302.066
302.252
302.252
302.066
301.311
301.164
301.689
301.416
302.358
302.264
301.904
301.374
302.358
301.904
301.393
301.965
302.137
302.63
302.137
301.323
302.137
301.532
302.341
301.901
301.61
302.14
302.469
302.105
302.341
302.105
302.14
302.341
302.14
301.59
301.798
302.676
302.44
301.97
302.341
302.44
301.642
302.815
302.469
302.815
302.432
302.469
302.432
)
;
        refGradient     uniform 0;
        valueFraction   nonuniform List<scalar> 
360
(
0.000171156
0.000164201
0.000105125
0.000375532
0.000385143
0.000220849
0.000387536
0.000332651
0.000517777
0.000164863
0.000160738
0.000215632
0.000328621
9.39655e-05
0.000168087
0.000326737
0.000374428
0.000349847
0.000490909
8.59831e-05
0.000322329
0.000158465
0.000146051
0.000387557
0.000112528
0.000398363
0.000224554
0.000393218
0.000514596
0.000344235
0.000393286
0.000396672
0.00010652
0.00010533
0.000221033
0.000217517
0.000368057
0.000498965
0.000342636
0.000515173
0.000508886
0.000108669
0.000215539
0.000157312
0.000157124
0.00022188
0.000331945
8.85671e-05
0.000158472
0.000336026
0.000218883
0.000220304
0.000328375
0.000325185
9.18775e-05
0.000168075
0.000342738
8.80163e-05
0.000218038
0.000325132
8.61523e-05
0.000382769
0.000337894
0.00052883
8.88203e-05
0.000345482
0.000161158
0.000155873
0.000391613
0.000510871
0.000343652
0.000492644
0.000499539
9.54105e-05
0.000333075
0.000168975
8.79661e-05
0.000157735
0.000498474
0.000517822
0.000154708
0.000151789
0.000149089
8.86062e-05
0.000106851
0.00021662
0.000217832
0.000329874
9.95819e-05
8.40821e-05
0.000105748
0.000329337
0.000217421
0.000108022
0.000328793
0.000219903
0.000218601
0.000218937
0.000106767
8.55805e-05
8.6781e-05
8.56263e-05
0.000220121
0.000216349
0.000329089
9.68943e-05
8.41628e-05
0.00032885
0.000104476
0.000216688
0.00021673
0.00022115
0.000108143
8.65959e-05
8.4454e-05
8.60856e-05
0.000149844
0.000150024
0.000155852
0.000168997
0.000158834
0.00032818
0.000516978
0.000345759
0.000521733
0.000334438
0.000514163
0.000382831
0.000334708
0.000502973
0.000377026
0.00015379
0.000145438
0.000148966
8.22354e-05
0.00034104
0.000513471
0.000158873
0.000159599
0.000518909
0.000345016
0.000166544
0.000175529
0.000512521
0.000352084
0.000405703
9.05047e-05
8.42243e-05
0.000355475
0.000492591
0.000390456
0.000366006
0.000509644
0.000390415
0.000403091
0.000371298
0.00017369
0.000517685
0.000334403
9.32366e-05
0.000503157
0.000376533
0.0001437
0.000151395
0.000149773
0.000158
0.000165161
0.000515097
0.000339169
0.000398112
9.546e-05
0.000495501
0.000169913
0.000521031
0.000333554
9.32438e-05
0.000395493
0.000144976
0.000146321
8.54909e-05
0.000224074
0.000223986
0.000331189
0.000110448
0.000331689
0.000218253
8.46129e-05
8.21622e-05
0.000518303
0.000329331
0.000512219
0.000341507
0.000162903
0.000152346
0.000514606
0.000321629
0.000371773
0.000150587
0.000174727
8.79055e-05
0.000220137
0.000219937
0.000328593
0.00021516
0.000216267
0.000327299
0.000112189
0.000328421
0.000222688
0.000109101
0.000369661
0.000328057
0.000221354
8.82183e-05
0.000503362
0.000326327
0.000381803
0.000159069
0.000147824
8.53882e-05
0.000218424
0.000222097
0.00032929
0.000374392
0.000104716
0.000326166
0.000213027
0.000324014
0.000343015
0.000155711
8.74619e-05
0.000172785
8.85433e-05
8.33472e-05
0.000332968
0.000111126
0.000223856
0.000221267
0.00021863
0.000109729
8.38177e-05
0.000340449
0.00031901
0.000535534
0.000398631
0.000499625
0.000358986
0.000384768
0.000393948
0.000175114
0.000337959
9.10581e-05
0.000514281
0.000500063
0.000379947
0.000331386
0.000105599
0.000215632
0.000327576
0.000106544
0.000390335
0.000216566
0.000218113
0.000216104
0.000105898
0.000387418
0.000363046
0.000220479
0.00021478
0.000107937
0.000363762
0.000400402
0.0001588
0.000359434
8.53691e-05
0.000512074
0.000496461
0.000375137
0.000325143
0.000106819
0.000375726
0.000216352
0.000216685
0.000217919
0.000377772
0.00010782
0.000385971
0.000162414
0.00033278
0.000163768
0.000339113
0.000516771
0.000507325
8.53293e-05
0.00017099
0.00016897
0.000165268
0.000150506
0.000503513
0.000164381
0.000334746
0.000394178
8.40857e-05
0.000508429
0.000507814
0.000166247
0.000361072
8.81184e-05
0.000387097
0.00014739
0.000144795
8.80458e-05
0.000497985
0.000148835
0.000326588
0.000384634
0.000159564
8.69863e-05
0.000216436
0.000216362
0.000326475
0.000373574
0.000324026
0.000156665
8.43312e-05
0.000329452
0.000174
9.73962e-05
0.000477411
0.000512642
0.000151518
0.000325654
9.02913e-05
0.000409552
0.000328976
0.000394156
0.000107832
0.000217366
0.000380017
0.00036842
0.000346605
0.000154929
0.00050771
0.000506618
0.000183911
0.000338653
0.000149004
0.000151291
0.000340931
0.000168773
9.12526e-05
0.000344806
0.000162513
8.42708e-05
0.000501836
0.000507858
0.000334161
0.000162174
0.000328239
0.000167522
)
;
        value           nonuniform List<scalar> 
360
(
451.864
451.866
451.867
451.826
451.825
451.902
451.823
451.839
451.796
451.86
451.861
451.9
451.914
451.877
451.866
451.842
451.821
451.836
451.799
451.879
451.844
451.868
451.837
451.823
451.864
451.822
451.903
451.826
451.799
451.84
451.819
451.819
451.862
451.863
451.899
451.903
451.823
451.802
451.838
451.8
451.801
451.865
451.904
451.864
451.867
451.901
451.915
451.876
451.865
451.839
451.905
451.903
451.916
451.916
451.875
451.863
451.837
451.879
451.904
451.921
451.878
451.824
451.838
451.799
451.878
451.84
451.867
451.836
451.829
451.805
451.842
451.803
451.802
451.885
451.849
451.874
451.875
451.841
451.804
451.801
451.841
451.841
451.842
451.879
451.873
451.903
451.905
451.915
451.872
451.879
451.865
451.914
451.903
451.864
451.915
451.903
451.903
451.904
451.867
451.877
451.877
451.875
451.903
451.902
451.913
451.874
451.872
451.913
451.861
451.901
451.904
451.902
451.866
451.876
451.879
451.878
451.836
451.836
451.836
451.865
451.868
451.841
451.799
451.84
451.798
451.84
451.8
451.824
451.841
451.802
451.828
451.837
451.838
451.838
451.876
451.837
451.797
451.864
451.864
451.796
451.837
451.863
451.864
451.797
451.837
451.818
451.876
451.872
451.832
451.798
451.818
451.83
451.795
451.82
451.822
451.826
451.863
451.796
451.839
451.875
451.798
451.825
451.837
451.836
451.836
451.865
451.864
451.796
451.838
451.822
451.874
451.802
451.863
451.799
451.838
451.874
451.823
451.837
451.837
451.874
451.903
451.901
451.914
451.868
451.915
451.905
451.878
451.876
451.796
451.838
451.797
451.837
451.863
451.865
451.799
451.844
451.823
451.869
451.867
451.879
451.9
451.902
451.914
451.904
451.904
451.915
451.861
451.914
451.901
451.865
451.826
451.915
451.903
451.876
451.802
451.841
451.824
451.866
451.868
451.877
451.903
451.903
451.918
451.826
451.866
451.92
451.905
451.84
451.838
451.866
451.876
451.863
451.876
451.875
451.914
451.864
451.901
451.902
451.904
451.862
451.878
451.836
451.843
451.8
451.821
451.806
451.834
451.821
451.82
451.864
451.839
451.876
451.797
451.799
451.827
451.915
451.872
451.908
451.916
451.868
451.826
451.904
451.904
451.909
451.871
451.829
451.832
451.904
451.905
451.867
451.829
451.823
451.866
451.836
451.877
451.802
451.805
451.828
451.92
451.868
451.828
451.906
451.907
451.907
451.832
451.872
451.831
451.867
451.842
451.867
451.841
451.803
451.804
451.875
451.841
451.841
451.841
451.866
451.803
451.865
451.84
451.83
451.877
451.799
451.799
451.865
451.835
451.876
451.823
451.837
451.837
451.88
451.807
451.871
451.846
451.831
451.871
451.882
451.906
451.907
451.917
451.824
451.842
451.867
451.878
451.839
451.862
451.874
451.81
451.805
451.869
451.843
451.878
451.821
451.916
451.823
451.866
451.904
451.826
451.828
451.837
451.865
451.8
451.8
451.859
451.836
451.843
451.842
451.841
451.866
451.878
451.84
451.868
451.879
451.805
451.804
451.843
451.868
451.842
451.866
)
;
        Tnbr            T;
        thicknessLayers 0();
        kappaLayers     0();
        kappaMethod     solidThermo;
        kappa           none;
        alphaAni        none;
        alpha           none;
    }
}


// ************************************************************************* //
