/*--------------------------------*- C++ -*----------------------------------*\
| =========                 |                                                 |
| \\      /  F ield         | OpenFOAM: The Open Source CFD Toolbox           |
|  \\    /   O peration     | Version:  v1912                                 |
|   \\  /    A nd           | Website:  www.openfoam.com                      |
|    \\/     M anipulation  |                                                 |
\*---------------------------------------------------------------------------*/
FoamFile
{
    version     2.0;
    format      ascii;
    class       surfaceScalarField;
    location    "88/oil";
    object      phi;
}
// * * * * * * * * * * * * * * * * * * * * * * * * * * * * * * * * * * * * * //

dimensions      [1 0 -1 0 0 0 0];
oriented        oriented;


internalField   nonuniform List<scalar> 
104676
(
-6.75875e-12
1.87701e-11
-9.02483e-12
1.98707e-10
-1.6371e-10
-4.17341e-11
6.17954e-10
-3.05288e-10
-1.13937e-10
1.18596e-09
-3.71904e-10
-1.96075e-10
1.81919e-09
-3.80138e-10
-2.53048e-10
2.43447e-09
-3.45974e-10
-2.69266e-10
2.95683e-09
-2.81841e-10
-2.40469e-10
3.3236e-09
-1.9694e-10
-1.69783e-10
3.4859e-09
-9.83567e-11
-6.38893e-11
3.41739e-09
5.06637e-12
6.3516e-11
3.1049e-09
1.11763e-10
2.00791e-10
2.5701e-09
1.98949e-10
3.35935e-10
1.84089e-09
2.78212e-10
4.51083e-10
9.69577e-10
3.35659e-10
5.35745e-10
2.27888e-11
3.6606e-10
5.80826e-10
-9.27095e-10
3.6777e-10
5.82217e-10
-1.80121e-09
3.36196e-10
5.38027e-10
-2.53402e-09
2.78336e-10
4.54577e-10
-3.07488e-09
2.00634e-10
3.4033e-10
-3.39222e-09
1.09815e-10
2.07629e-10
-3.47019e-09
6.41521e-12
7.16615e-11
-3.31258e-09
-9.97629e-11
-5.775e-11
-2.9498e-09
-1.97975e-10
-1.64704e-10
-2.43064e-09
-2.82818e-10
-2.36251e-10
-1.81807e-09
-3.46746e-10
-2.65752e-10
-1.18689e-09
-3.81682e-10
-2.49414e-10
-6.19881e-10
-3.74582e-10
-1.92363e-10
-2.00564e-10
-3.08764e-10
-1.10487e-10
5.9272e-12
-1.67354e-10
-3.90773e-11
1.39855e-11
-8.02054e-12
2.02321e-10
-3.85725e-10
2.02199e-10
7.7742e-10
-1.15286e-09
4.14075e-10
1.68964e-09
-1.72978e-09
5.1231e-10
2.8373e-09
-2.08064e-09
5.61112e-10
4.08252e-09
-2.24843e-09
6.23124e-10
5.27701e-09
-2.27497e-09
7.34559e-10
6.2808e-09
-2.19582e-09
9.10243e-10
6.97282e-09
-2.03894e-09
1.15004e-09
7.25872e-09
-1.82769e-09
1.44351e-09
7.07803e-09
-1.5831e-09
1.76894e-09
6.4025e-09
-1.32582e-09
2.1132e-09
5.26945e-09
-1.10049e-09
2.43258e-09
3.76351e-09
-9.02221e-10
2.68648e-09
1.97996e-09
-7.58714e-10
2.87803e-09
4.60863e-11
-6.83564e-10
2.98362e-09
-1.89556e-09
-6.83864e-10
2.9934e-09
-3.68476e-09
-7.61681e-10
2.88719e-09
-5.19336e-09
-9.07407e-10
2.69446e-09
-6.31862e-09
-1.10587e-09
2.43189e-09
-6.99794e-09
-1.33544e-09
2.12469e-09
-7.19131e-09
-1.58916e-09
1.78905e-09
-6.91698e-09
-1.83202e-09
1.45804e-09
-6.23852e-09
-2.04129e-09
1.16497e-09
-5.24902e-09
-2.19768e-09
9.25453e-10
-4.06641e-09
-2.27775e-09
7.48488e-10
-2.83168e-09
-2.25265e-09
6.36326e-10
-1.6908e-09
-2.08828e-09
5.72893e-10
-7.79871e-10
-1.74039e-09
5.20775e-10
-2.02987e-10
-1.16213e-09
4.17962e-10
-3.9131e-10
2.02352e-10
4.23415e-10
-1.23641e-09
4.27295e-10
1.34394e-09
-2.98614e-09
9.1279e-10
2.63381e-09
-4.23375e-09
1.21415e-09
4.16602e-09
-5.04654e-09
1.43374e-09
5.78215e-09
-5.51289e-09
1.64838e-09
7.30791e-09
-5.70559e-09
1.90492e-09
8.57309e-09
-5.68697e-09
2.22603e-09
9.42691e-09
-5.50825e-09
2.61556e-09
9.75169e-09
-5.21594e-09
3.06354e-09
9.47215e-09
-4.84901e-09
3.54554e-09
8.5513e-09
-4.44982e-09
4.04495e-09
7.02806e-09
-4.07241e-09
4.49527e-09
5.01263e-09
-3.74136e-09
4.85469e-09
2.63487e-09
-3.49956e-09
5.11872e-09
5.96114e-11
-3.37478e-09
5.2666e-09
-2.5283e-09
-3.3805e-09
5.28468e-09
-4.9145e-09
-3.50708e-09
5.13172e-09
-6.93185e-09
-3.74981e-09
4.85988e-09
-8.44832e-09
-4.07814e-09
4.48886e-09
-9.38356e-09
-4.45875e-09
4.05868e-09
-9.68121e-09
-4.85703e-09
3.56564e-09
-9.37045e-09
-5.22136e-09
3.0787e-09
-8.53113e-09
-5.51241e-09
2.63191e-09
-7.28078e-09
-5.69012e-09
2.2422e-09
-5.76858e-09
-5.71012e-09
1.92026e-09
-4.16203e-09
-5.52117e-09
1.66206e-09
-2.6363e-09
-5.05866e-09
1.44474e-09
-1.34836e-09
-4.24889e-09
1.22063e-09
-4.25672e-10
-2.99849e-09
9.13745e-10
-1.24343e-09
4.26496e-10
6.05983e-10
-2.45554e-09
6.1319e-10
1.81665e-09
-5.51814e-09
1.32139e-09
3.41235e-09
-7.61508e-09
1.78567e-09
5.23718e-09
-9.01453e-09
2.14322e-09
7.11693e-09
-9.8785e-09
2.48592e-09
8.86406e-09
-1.03182e-08
2.86554e-09
1.02944e-08
-1.04257e-08
3.30848e-09
1.12431e-08
-1.02769e-08
3.82006e-09
1.15763e-08
-9.94057e-09
4.39148e-09
1.12073e-08
-9.47971e-09
4.99976e-09
1.00928e-08
-8.9579e-09
5.62273e-09
8.28506e-09
-8.43738e-09
6.1728e-09
5.90419e-09
-7.98395e-09
6.62359e-09
3.10121e-09
-7.63434e-09
6.93789e-09
6.77989e-11
-7.45608e-09
7.11484e-09
-2.98233e-09
-7.46842e-09
7.13818e-09
-5.79626e-09
-7.64238e-09
6.94936e-09
-8.18073e-09
-7.98227e-09
6.61706e-09
-9.98301e-09
-8.43784e-09
6.1621e-09
-1.11103e-08
-8.96036e-09
5.62897e-09
-1.14964e-08
-9.48246e-09
5.01173e-09
-1.1179e-08
-9.94247e-09
4.40376e-09
-1.02471e-08
-1.02788e-08
3.83455e-09
-8.83205e-09
-1.04277e-08
3.32264e-09
-7.0995e-09
-1.03226e-08
2.87997e-09
-5.2321e-09
-9.88746e-09
2.49899e-09
-3.41386e-09
-9.02932e-09
2.15251e-09
-1.82092e-09
-7.62984e-09
1.7881e-09
-6.10307e-10
-5.52416e-09
1.31514e-09
-2.46474e-09
6.11044e-10
7.43607e-10
-3.94942e-09
7.50326e-10
2.17797e-09
-8.57224e-09
1.61979e-09
4.01312e-09
-1.16559e-08
2.20568e-09
6.0637e-09
-1.37302e-08
2.66519e-09
8.14102e-09
-1.50597e-08
3.10398e-09
1.00484e-08
-1.58056e-08
3.58016e-09
1.1594e-08
-1.60929e-08
4.12156e-09
1.26042e-08
-1.60227e-08
4.73572e-09
1.29391e-08
-1.56865e-08
5.41113e-09
1.2503e-08
-1.51694e-08
6.12587e-09
1.12495e-08
-1.45591e-08
6.85475e-09
9.23292e-09
-1.39319e-08
7.51126e-09
6.57434e-09
-1.33687e-08
8.04341e-09
3.45098e-09
-1.29109e-08
8.40007e-09
7.32483e-11
-1.26793e-08
8.60107e-09
-3.32406e-09
-1.26962e-08
8.62524e-09
-6.45575e-09
-1.29212e-08
8.41069e-09
-9.11323e-09
-1.3351e-08
8.02637e-09
-1.11317e-08
-1.39261e-08
7.5069e-09
-1.23995e-08
-1.45571e-08
6.86468e-09
-1.28535e-08
-1.51685e-08
6.14017e-09
-1.25361e-08
-1.5686e-08
5.4262e-09
-1.15423e-08
-1.60236e-08
4.75121e-09
-1.00117e-08
-1.6095e-08
4.13677e-09
-8.11875e-09
-1.58099e-08
3.59453e-09
-6.05457e-09
-1.50678e-08
3.11626e-09
-4.01325e-09
-1.37435e-08
2.67292e-09
-2.18088e-09
-1.16678e-08
2.20563e-09
-7.47405e-10
-8.56796e-09
1.6104e-09
-3.96058e-09
7.48489e-10
8.35983e-10
-5.62931e-09
8.4397e-10
2.4291e-09
-1.19842e-08
1.81888e-09
4.43828e-09
-1.61534e-08
2.48843e-09
6.65264e-09
-1.89653e-08
3.0208e-09
8.87245e-09
-2.08091e-08
3.52963e-09
1.0895e-08
-2.19081e-08
4.08004e-09
1.25242e-08
-2.24234e-08
4.7014e-09
1.35814e-08
-2.24828e-08
5.40298e-09
1.39216e-08
-2.21985e-08
6.17195e-09
1.34455e-08
-2.16755e-08
6.98236e-09
1.21043e-08
-2.10209e-08
7.80311e-09
9.93502e-09
-2.03399e-08
8.57734e-09
7.07105e-09
-1.96983e-08
9.19375e-09
3.70943e-09
-1.91404e-08
9.59125e-09
7.42633e-11
-1.88489e-08
9.80492e-09
-3.5822e-09
-1.88674e-08
9.82773e-09
-6.94551e-09
-1.91655e-08
9.6077e-09
-9.80279e-09
-1.96657e-08
9.17202e-09
-1.19785e-08
-2.03291e-08
8.57877e-09
-1.33365e-08
-2.10173e-08
7.81828e-09
-1.38325e-08
-2.16729e-08
7.00052e-09
-1.3511e-08
-2.21977e-08
6.19023e-09
-1.24707e-08
-2.24845e-08
5.42075e-09
-1.08568e-08
-2.24269e-08
4.71809e-09
-8.84759e-09
-2.19135e-08
4.09448e-09
-6.64012e-09
-2.08169e-08
3.54172e-09
-4.43578e-09
-1.89753e-08
3.02759e-09
-2.43236e-09
-1.61575e-08
2.48644e-09
-8.40314e-10
-1.19692e-08
1.80924e-09
-5.64398e-09
8.43128e-10
8.82407e-10
-7.4132e-09
9.01539e-10
2.57319e-09
-1.5623e-08
1.9481e-09
4.69212e-09
-2.09338e-08
2.66159e-09
7.00811e-09
-2.45155e-08
3.23422e-09
9.31551e-09
-2.6907e-08
3.79056e-09
1.14095e-08
-2.83984e-08
4.39635e-09
1.30932e-08
-2.91894e-08
5.08235e-09
1.41846e-08
-2.94338e-08
5.85963e-09
1.45362e-08
-2.92633e-08
6.71327e-09
1.40433e-08
-2.87973e-08
7.61478e-09
1.26559e-08
-2.81615e-08
8.52813e-09
1.03863e-08
-2.74783e-08
9.40824e-09
7.3955e-09
-2.68209e-08
1.01135e-08
3.87898e-09
-2.61724e-08
1.05486e-08
7.96692e-11
-2.58263e-08
1.07769e-08
-3.73772e-09
-2.58548e-08
1.08049e-08
-7.26777e-09
-2.62206e-08
1.05853e-08
-1.02508e-08
-2.67825e-08
1.01e-08
-1.25269e-08
-2.74689e-08
9.41596e-09
-1.39324e-08
-2.81616e-08
8.54992e-09
-1.44454e-08
-2.87986e-08
7.63884e-09
-1.41131e-08
-2.92659e-08
6.736e-09
-1.30389e-08
-2.9439e-08
5.88033e-09
-1.13707e-08
-2.91968e-08
5.10187e-09
-9.28949e-09
-2.84068e-08
4.41208e-09
-6.99392e-09
-2.69154e-08
3.80298e-09
-4.68852e-09
-2.45204e-08
3.23973e-09
-2.57925e-09
-2.0921e-08
2.65421e-09
-8.93261e-10
-1.55839e-08
1.92878e-09
-7.43662e-09
8.99417e-10
8.99784e-10
-9.23348e-09
9.20548e-10
2.619e-09
-1.93397e-08
1.99752e-09
4.77425e-09
-2.58211e-08
2.73204e-09
7.12511e-09
-3.01881e-08
3.32186e-09
9.45903e-09
-3.31423e-08
3.90151e-09
1.15744e-08
-3.50582e-08
4.54456e-09
1.32775e-08
-3.61724e-08
5.27993e-09
1.43873e-08
-3.66618e-08
6.11834e-09
1.47532e-08
-3.66743e-08
7.04528e-09
1.42684e-08
-3.63421e-08
8.02963e-09
1.28742e-08
-3.57982e-08
9.03104e-09
1.05697e-08
-3.51814e-08
1.00076e-08
7.52202e-09
-3.45857e-08
1.08126e-08
3.93959e-09
-3.38629e-08
1.12731e-08
7.94856e-11
-3.34936e-08
1.15275e-08
-3.80415e-09
-3.35287e-08
1.15576e-08
-7.41412e-09
-3.39133e-08
1.13028e-08
-1.04411e-08
-3.45461e-08
1.07907e-08
-1.27465e-08
-3.51757e-08
1.00122e-08
-1.4158e-08
-3.58032e-08
9.0532e-09
-1.46635e-08
-3.63478e-08
8.05476e-09
-1.43168e-08
-3.66818e-08
7.06931e-09
-1.32237e-08
-3.66727e-08
6.14072e-09
-1.15354e-08
-3.6186e-08
5.30104e-09
-9.43242e-09
-3.50721e-08
4.56235e-09
-7.11052e-09
-3.31518e-08
3.91455e-09
-4.77353e-09
-3.01792e-08
3.32192e-09
-2.62931e-09
-2.57791e-08
2.71397e-09
-9.09768e-10
-1.92749e-08
1.97159e-09
-9.26655e-09
9.20194e-10
8.84207e-10
-1.10215e-08
9.039e-10
2.5626e-09
-2.29888e-08
1.9708e-09
4.67408e-09
-3.06448e-08
2.71234e-09
6.98459e-09
-3.58017e-08
3.30312e-09
9.27994e-09
-3.93152e-08
3.87757e-09
1.13578e-08
-4.16634e-08
4.52738e-09
1.30354e-08
-4.31377e-08
5.28784e-09
1.41385e-08
-4.3929e-08
6.16416e-09
1.45166e-08
-4.41927e-08
7.14039e-09
1.40606e-08
-4.40708e-08
8.18478e-09
1.27147e-08
-4.36989e-08
9.24671e-09
1.04681e-08
-4.32107e-08
1.0276e-08
7.43743e-09
-4.27184e-08
1.11634e-08
3.8903e-09
-4.19744e-08
1.16587e-08
7.61786e-11
-4.16377e-08
1.19583e-08
-3.76633e-09
-4.16691e-08
1.1983e-08
-7.351e-09
-4.19947e-08
1.16662e-08
-1.03571e-08
-4.26591e-08
1.11193e-08
-1.25925e-08
-4.32076e-08
1.02674e-08
-1.3953e-08
-4.3709e-08
9.26638e-09
-1.44284e-08
-4.40832e-08
8.21078e-09
-1.40691e-08
-4.42068e-08
7.16574e-09
-1.29827e-08
-4.39467e-08
6.18765e-09
-1.13194e-08
-4.3159e-08
5.30974e-09
-9.25472e-09
-4.16805e-08
4.54377e-09
-6.97783e-09
-3.93066e-08
3.87799e-09
-4.68532e-09
-3.57487e-08
3.27696e-09
-2.58062e-09
-3.0554e-08
2.67029e-09
-8.9053e-10
-2.29059e-08
1.94095e-09
-1.10619e-08
9.04846e-10
8.39003e-10
-1.27082e-08
8.47717e-10
2.42357e-09
-2.6424e-08
1.85068e-09
4.39678e-09
-3.51909e-08
2.57291e-09
6.57149e-09
-4.11373e-08
3.16098e-09
8.74987e-09
-4.52128e-08
3.71932e-09
1.07236e-08
-4.79775e-08
4.34044e-09
1.2321e-08
-4.98247e-08
5.08959e-09
1.33815e-08
-5.09582e-08
5.96867e-09
1.37638e-08
-5.15317e-08
6.95674e-09
1.33566e-08
-5.16852e-08
8.02168e-09
1.21063e-08
-5.15532e-08
9.10468e-09
1.00023e-08
-5.12562e-08
1.01496e-08
7.08448e-09
-5.08809e-08
1.10804e-08
3.70367e-09
-5.0212e-08
1.16185e-08
7.15774e-11
-4.99415e-08
1.1936e-08
-3.58259e-09
-4.99716e-08
1.19568e-08
-6.98902e-09
-5.01967e-08
1.16085e-08
-9.89436e-09
-5.07611e-08
1.10075e-08
-1.19915e-08
-5.12459e-08
1.01355e-08
-1.32531e-08
-5.15702e-08
9.12293e-09
-1.36792e-08
-5.17045e-08
8.04752e-09
-1.33158e-08
-5.15523e-08
6.98218e-09
-1.22703e-08
-5.09842e-08
5.99208e-09
-1.0685e-08
-4.9854e-08
5.10972e-09
-8.72986e-09
-4.79815e-08
4.34593e-09
-6.57784e-09
-4.51469e-08
3.68836e-09
-4.41083e-09
-4.1017e-08
3.10135e-09
-2.42587e-09
-3.5057e-08
2.51802e-09
-8.36375e-10
-2.63219e-08
1.82654e-09
-1.27508e-08
8.52519e-10
7.57353e-10
-1.42181e-08
7.52612e-10
2.1927e-09
-2.94809e-08
1.62159e-09
3.96162e-09
-3.92289e-08
2.26911e-09
5.89432e-09
-4.59146e-08
2.84467e-09
7.85444e-09
-5.05572e-08
3.38425e-09
9.64213e-09
-5.3724e-08
3.9589e-09
1.10969e-08
-5.59375e-08
4.65808e-09
1.20744e-08
-5.74325e-08
5.49692e-09
1.2444e-08
-5.83467e-08
6.44554e-09
1.2104e-08
-5.88103e-08
7.46517e-09
1.10151e-08
-5.89419e-08
8.4776e-09
9.14855e-09
-5.88279e-08
9.43828e-09
6.45933e-09
-5.85406e-08
1.03491e-08
3.371e-09
-5.81056e-08
1.0982e-08
6.57462e-11
-5.79499e-08
1.13137e-08
-3.25336e-09
-5.79806e-08
1.13282e-08
-6.32782e-09
-5.80953e-08
1.09731e-08
-8.9714e-09
-5.84861e-08
1.03686e-08
-1.08683e-08
-5.8912e-08
9.56311e-09
-1.19996e-08
-5.89874e-08
8.54857e-09
-1.2362e-08
-5.88381e-08
7.4961e-09
-1.20124e-08
-5.83692e-08
6.46734e-09
-1.10479e-08
-5.74643e-08
5.51574e-09
-9.60167e-09
-5.59715e-08
4.67135e-09
-7.83339e-09
-5.36951e-08
3.94532e-09
-5.89204e-09
-5.04109e-08
3.32265e-09
-3.93592e-09
-4.57423e-08
2.76922e-09
-2.15403e-09
-3.90739e-08
2.23503e-09
-7.35536e-10
-2.93579e-08
1.61747e-09
-1.42447e-08
7.58441e-10
6.38466e-10
-1.5478e-08
6.21453e-10
1.86207e-09
-3.20085e-08
1.30406e-09
3.35759e-09
-4.25173e-08
1.79295e-09
4.97953e-09
-4.98207e-08
2.28412e-09
6.59535e-09
-5.49764e-08
2.80345e-09
8.09644e-09
-5.85641e-08
3.33902e-09
9.33797e-09
-6.11351e-08
3.95615e-09
1.01925e-08
-6.29913e-08
4.70425e-09
1.05416e-08
-6.42492e-08
5.55352e-09
1.02923e-08
-6.50001e-08
6.43916e-09
9.3827e-09
-6.53399e-08
7.30766e-09
7.7553e-09
-6.54286e-08
8.22811e-09
5.48382e-09
-6.53659e-08
9.09684e-09
2.87125e-09
-6.51758e-08
9.68278e-09
5.66137e-11
-6.51167e-08
9.98154e-09
-2.77901e-09
-6.51018e-08
9.95684e-09
-5.39841e-09
-6.50782e-08
9.60242e-09
-7.6405e-09
-6.52831e-08
9.03912e-09
-9.24217e-09
-6.56266e-08
8.3163e-09
-1.01763e-08
-6.54212e-08
7.36797e-09
-1.04532e-08
-6.50079e-08
6.44674e-09
-1.01308e-08
-6.42441e-08
5.55257e-09
-9.29052e-09
-6.30144e-08
4.70981e-09
-8.04423e-09
-6.11729e-08
3.95506e-09
-6.54598e-09
-5.85088e-08
3.31544e-09
-4.9202e-09
-5.48204e-08
2.78371e-09
-3.3043e-09
-4.96926e-08
2.33444e-09
-1.82026e-09
-4.24566e-08
1.89865e-09
-6.28332e-10
-3.19263e-08
1.37651e-09
-1.55157e-08
6.42612e-10
4.90271e-10
-1.64372e-08
4.68919e-10
1.41192e-09
-3.39283e-08
9.98108e-10
2.56767e-09
-4.502e-08
1.347e-09
3.80561e-09
-5.27067e-08
1.64809e-09
5.00593e-09
-5.81982e-08
2.02147e-09
6.12354e-09
-6.21556e-08
2.47393e-09
7.06669e-09
-6.5063e-08
2.9847e-09
7.74957e-09
-6.72395e-08
3.56537e-09
8.0843e-09
-6.88005e-08
4.21659e-09
7.90906e-09
-6.97474e-08
4.92257e-09
7.12916e-09
-7.02675e-08
5.70758e-09
5.81997e-09
-7.06335e-08
6.51414e-09
4.17248e-09
-7.09132e-08
7.19479e-09
2.21165e-09
-7.0878e-08
7.66308e-09
5.00198e-11
-7.08437e-08
7.88868e-09
-2.14836e-09
-7.07413e-08
7.838e-09
-4.1514e-09
-7.06259e-08
7.55077e-09
-5.83778e-09
-7.06627e-08
7.06612e-09
-7.11076e-09
-7.0734e-08
6.3804e-09
-7.81711e-09
-7.02543e-08
5.53955e-09
-7.98975e-09
-6.96485e-08
4.81325e-09
-7.71714e-09
-6.8658e-08
4.14125e-09
-7.07369e-09
-6.71818e-08
3.52399e-09
-6.13807e-09
-6.51127e-08
3.0043e-09
-4.99803e-09
-6.22053e-08
2.55648e-09
-3.75922e-09
-5.82087e-08
2.14956e-09
-2.52439e-09
-5.27172e-08
1.78981e-09
-1.39025e-09
-4.50348e-08
1.44413e-09
-4.80601e-10
-3.38799e-08
1.04393e-09
-1.64827e-08
4.86423e-10
3.3176e-10
-1.70547e-08
2.85769e-10
8.94834e-10
-3.50915e-08
6.00157e-10
1.61768e-09
-4.66102e-08
8.67318e-10
2.4024e-09
-5.45739e-08
1.08253e-09
3.17265e-09
-6.02988e-08
1.3304e-09
3.89385e-09
-6.44929e-08
1.61607e-09
4.49998e-09
-6.75892e-08
1.92009e-09
4.91234e-09
-6.98774e-08
2.22556e-09
5.13534e-09
-7.15822e-08
2.55873e-09
5.00801e-09
-7.26682e-08
3.04807e-09
4.49575e-09
-7.34049e-08
3.64965e-09
3.70145e-09
-7.40426e-08
4.20341e-09
2.6611e-09
-7.45101e-08
4.63727e-09
1.4172e-09
-7.45731e-08
4.93908e-09
5.51469e-11
-7.45887e-08
5.10708e-09
-1.32813e-09
-7.44516e-08
5.09357e-09
-2.59648e-09
-7.42821e-08
4.92456e-09
-3.64354e-09
-7.42314e-08
4.61574e-09
-4.46144e-09
-7.41102e-08
4.19419e-09
-4.9646e-09
-7.33893e-08
3.63814e-09
-5.15241e-09
-7.25118e-08
3.0512e-09
-5.00701e-09
-7.13076e-08
2.50423e-09
-4.56528e-09
-6.97076e-08
2.08404e-09
-3.91237e-09
-6.75615e-08
1.79583e-09
-3.15852e-09
-6.45265e-08
1.56741e-09
-2.36645e-09
-6.03459e-08
1.34514e-09
-1.58477e-09
-5.46239e-08
1.12498e-09
-8.70253e-10
-4.66564e-08
9.07013e-10
-3.01162e-10
-3.51031e-08
6.54139e-10
-1.70884e-08
3.04508e-10
1.22193e-10
-1.7275e-08
9.80798e-11
3.14047e-10
-3.54929e-08
2.0961e-10
5.71183e-10
-4.71797e-08
3.12356e-10
8.53767e-10
-5.52465e-08
3.90016e-10
1.13935e-09
-6.10524e-08
4.68009e-10
1.42855e-09
-6.53157e-08
5.33637e-10
1.6974e-09
-6.84496e-08
5.91586e-10
1.85892e-09
-7.07239e-08
6.84902e-10
1.88356e-09
-7.2437e-08
8.30133e-10
1.78482e-09
-7.36056e-08
1.0362e-09
1.62542e-09
-7.44978e-08
1.25231e-09
1.39003e-09
-7.52432e-08
1.43591e-09
9.47599e-10
-7.56291e-08
1.56142e-09
4.76996e-10
-7.57532e-08
1.65063e-09
3.55547e-11
-7.58864e-08
1.73915e-09
-4.55272e-10
-7.57739e-08
1.81321e-09
-9.14492e-10
-7.56316e-08
1.80872e-09
-1.27808e-09
-7.55581e-08
1.69026e-09
-1.5644e-09
-7.53568e-08
1.53291e-09
-1.74163e-09
-7.45519e-08
1.33992e-09
-1.81386e-09
-7.35757e-08
1.13614e-09
-1.76968e-09
-7.22911e-08
9.39411e-10
-1.61498e-09
-7.06408e-08
7.78578e-10
-1.38255e-09
-6.84499e-08
6.55984e-10
-1.11212e-09
-6.5351e-08
5.54051e-10
-8.29037e-10
-6.10917e-08
4.62632e-10
-5.50794e-10
-5.52847e-08
3.82569e-10
-2.99185e-10
-4.72158e-08
3.07772e-10
-1.03029e-10
-3.5519e-08
2.19684e-10
-1.72971e-08
1.05629e-10
-8.36404e-11
-1.70992e-08
-9.21626e-11
-2.59959e-10
-3.51307e-08
-1.85898e-10
-4.76492e-10
-4.67098e-08
-2.53399e-10
-7.13198e-10
-5.46943e-08
-3.15516e-10
-9.57262e-10
-6.04353e-08
-3.73e-10
-1.20278e-09
-6.46569e-08
-4.13272e-10
-1.43222e-09
-6.77775e-08
-4.4273e-10
-1.57734e-09
-7.00766e-08
-5.02201e-10
-1.57856e-09
-7.17928e-08
-6.43055e-10
-1.46997e-09
-7.28591e-08
-8.55173e-10
-1.33118e-09
-7.35801e-08
-1.0566e-09
-1.21329e-09
-7.41707e-08
-1.19045e-09
-1.02626e-09
-7.45397e-08
-1.27649e-09
-6.31283e-10
-7.47807e-08
-1.36746e-09
-5.28996e-11
-7.49566e-08
-1.5082e-09
4.20794e-10
-7.46844e-08
-1.56324e-09
8.28043e-10
-7.45389e-08
-1.49994e-09
1.19426e-09
-7.45239e-08
-1.40046e-09
1.39454e-09
-7.42843e-08
-1.27279e-09
1.52307e-09
-7.35575e-08
-1.12296e-09
1.587e-09
-7.26842e-08
-9.55433e-10
1.55143e-09
-7.14721e-08
-7.83497e-10
1.42963e-09
-6.98699e-08
-6.49141e-10
1.22529e-09
-6.76929e-08
-5.52726e-10
9.88798e-10
-6.46355e-08
-4.79064e-10
7.43726e-10
-6.04375e-08
-4.09082e-10
4.99039e-10
-5.4701e-08
-3.39118e-10
2.77349e-10
-4.67253e-08
-2.6886e-10
9.99503e-11
-3.51548e-08
-1.86861e-10
-1.71099e-08
-8.72069e-11
-2.87455e-10
-1.65216e-08
-2.90207e-10
-8.34695e-10
-3.39628e-08
-6.20765e-10
-1.51744e-09
-4.51653e-08
-8.61697e-10
-2.26486e-09
-5.28772e-08
-1.06976e-09
-3.01567e-09
-5.83977e-08
-1.28684e-09
-3.71155e-09
-6.24316e-08
-1.52942e-09
-4.28964e-09
-6.53983e-08
-1.80108e-09
-4.69892e-09
-6.75601e-08
-2.10722e-09
-4.88821e-09
-6.91526e-08
-2.45089e-09
-4.74156e-09
-7.01092e-08
-2.89662e-09
-4.25349e-09
-7.0613e-08
-3.45523e-09
-3.5513e-09
-7.09145e-08
-3.9584e-09
-2.5961e-09
-7.11499e-08
-4.34503e-09
-1.39431e-09
-7.13336e-08
-4.64896e-09
-1.84599e-11
-7.1486e-08
-4.84656e-09
1.31052e-09
-7.11847e-08
-4.82874e-09
2.56021e-09
-7.11268e-08
-4.66184e-09
3.65367e-09
-7.12572e-08
-4.36014e-09
4.30847e-09
-7.09952e-08
-3.94398e-09
4.73397e-09
-7.05131e-08
-3.46996e-09
4.92226e-09
-6.9948e-08
-2.92459e-09
4.78023e-09
-6.89746e-08
-2.35546e-09
4.37091e-09
-6.74791e-08
-1.98156e-09
3.74514e-09
-6.53338e-08
-1.73331e-09
3.02683e-09
-6.2407e-08
-1.51023e-09
2.28328e-09
-5.84071e-08
-1.287e-09
1.53714e-09
-5.28946e-08
-1.06027e-09
8.59371e-10
-4.5209e-08
-8.38557e-10
3.12323e-10
-3.40242e-08
-5.83525e-10
-1.65191e-08
-2.78567e-10
-4.71461e-10
-1.55775e-08
-4.72633e-10
-1.35843e-09
-3.2061e-08
-1.01485e-09
-2.46577e-09
-4.26497e-08
-1.40835e-09
-3.67235e-09
-4.99226e-08
-1.748e-09
-4.87862e-09
-5.50889e-08
-2.10254e-09
-5.98017e-09
-5.88168e-08
-2.5133e-09
-6.87823e-09
-6.15135e-08
-2.9868e-09
-7.51425e-09
-6.33889e-08
-3.53527e-09
-7.83262e-09
-6.46805e-08
-4.15381e-09
-7.67643e-09
-6.54662e-08
-4.7992e-09
-6.93293e-09
-6.58145e-08
-5.54207e-09
-5.69818e-09
-6.58378e-08
-6.31155e-09
-4.08233e-09
-6.5803e-08
-6.9629e-09
-2.15594e-09
-6.58224e-08
-7.43769e-09
-2.29872e-11
-6.59251e-08
-7.69389e-09
2.09948e-09
-6.56707e-08
-7.63649e-09
4.07643e-09
-6.57111e-08
-7.3927e-09
5.7882e-09
-6.60373e-08
-6.93176e-09
6.95147e-09
-6.58952e-08
-6.26329e-09
7.65423e-09
-6.56892e-08
-5.52669e-09
7.86622e-09
-6.53744e-08
-4.78565e-09
7.59567e-09
-6.46613e-08
-4.04284e-09
6.92873e-09
-6.34101e-08
-3.40206e-09
5.9838e-09
-6.15197e-08
-2.86928e-09
4.86521e-09
-5.8875e-08
-2.41347e-09
3.68025e-09
-5.52146e-08
-2.0075e-09
2.49612e-09
-5.00582e-08
-1.65227e-09
1.40201e-09
-4.28012e-08
-1.31376e-09
5.01064e-10
-3.2199e-08
-9.24307e-10
-1.55716e-08
-4.46448e-10
-6.30059e-10
-1.43218e-08
-6.25711e-10
-1.79884e-09
-2.95462e-08
-1.34604e-09
-3.26091e-09
-3.93104e-08
-1.8773e-09
-4.85649e-09
-4.60098e-08
-2.31729e-09
-6.45909e-09
-5.07202e-08
-2.76623e-09
-7.94376e-09
-5.40417e-08
-3.29049e-09
-9.17982e-09
-5.63562e-08
-3.92135e-09
-1.0015e-08
-5.78892e-08
-4.66446e-09
-1.03563e-08
-5.88446e-08
-5.49475e-09
-1.01141e-08
-5.93536e-08
-6.35485e-09
-9.20413e-09
-5.95145e-08
-7.21009e-09
-7.57514e-09
-5.93813e-08
-8.08556e-09
-5.37997e-09
-5.9084e-08
-8.91425e-09
-2.81741e-09
-5.88638e-08
-9.52129e-09
-1.92825e-11
-5.88799e-08
-9.84339e-09
2.77267e-09
-5.86997e-08
-9.76305e-09
5.36156e-09
-5.88406e-08
-9.45953e-09
7.59201e-09
-5.93445e-08
-8.92336e-09
9.19329e-09
-5.94521e-08
-8.04447e-09
1.01144e-08
-5.95013e-08
-7.10913e-09
1.03811e-08
-5.9361e-08
-6.2802e-09
1.00559e-08
-5.88805e-08
-5.45563e-09
9.21913e-09
-5.79369e-08
-4.63655e-09
7.99596e-09
-5.63998e-08
-3.89679e-09
6.51373e-09
-5.41172e-08
-3.27561e-09
4.91974e-09
-5.08845e-08
-2.73622e-09
3.34101e-09
-4.6273e-08
-2.2066e-09
1.86869e-09
-3.96214e-08
-1.70746e-09
6.60554e-10
-2.97851e-08
-1.20588e-09
-1.43196e-08
-5.91419e-10
-7.53403e-10
-1.28226e-08
-7.45816e-10
-2.14477e-09
-2.65588e-08
-1.59612e-09
-3.90432e-09
-3.53209e-08
-2.22998e-09
-5.84554e-09
-4.13065e-08
-2.76214e-09
-7.78249e-09
-4.5479e-08
-3.30428e-09
-9.54953e-09
-4.83573e-08
-3.91747e-09
-1.09957e-08
-5.02718e-08
-4.63826e-09
-1.19632e-08
-5.14473e-08
-5.4745e-09
-1.23252e-08
-5.20637e-08
-6.41903e-09
-1.19856e-08
-5.22617e-08
-7.4316e-09
-1.08963e-08
-5.21651e-08
-8.43867e-09
-9.02481e-09
-5.18835e-08
-9.36946e-09
-6.39963e-09
-5.14813e-08
-1.0228e-08
-3.32136e-09
-5.1028e-08
-1.09141e-08
-1.44202e-11
-5.08803e-08
-1.13066e-08
3.28124e-09
-5.07517e-08
-1.12438e-08
6.35117e-09
-5.10029e-08
-1.09077e-08
8.97461e-09
-5.16374e-08
-1.03306e-08
1.08718e-08
-5.19324e-08
-9.41712e-09
1.19889e-08
-5.21901e-08
-8.42837e-09
1.23408e-08
-5.22908e-08
-7.42215e-09
1.19847e-08
-5.21029e-08
-6.42149e-09
1.10203e-08
-5.14936e-08
-5.47902e-09
9.58125e-09
-5.03209e-08
-4.63987e-09
7.80913e-09
-4.84153e-08
-3.92993e-09
5.85772e-09
-4.55798e-08
-3.35332e-09
3.91801e-09
-4.14929e-08
-2.8404e-09
2.1676e-09
-3.55682e-08
-2.30289e-09
7.59423e-10
-2.67433e-08
-1.63365e-09
-1.28156e-08
-7.44663e-10
-8.3692e-10
-1.11368e-08
-8.48974e-10
-2.41981e-09
-2.3146e-08
-1.82995e-09
-4.40133e-09
-3.08214e-08
-2.51808e-09
-6.56611e-09
-3.60474e-08
-3.09435e-09
-8.72073e-09
-3.96492e-08
-3.67519e-09
-1.06824e-08
-4.20655e-08
-4.33018e-09
-1.22742e-08
-4.3587e-08
-5.0931e-09
-1.33294e-08
-4.44186e-08
-5.97354e-09
-1.37054e-08
-4.4723e-08
-6.96472e-09
-1.32959e-08
-4.46402e-08
-8.03113e-09
-1.20445e-08
-4.43044e-08
-9.11232e-09
-9.9528e-09
-4.38488e-08
-1.01266e-08
-7.06864e-09
-4.33645e-08
-1.10011e-08
-3.64333e-09
-4.28192e-08
-1.16342e-08
-9.85256e-12
-4.24999e-08
-1.20141e-08
3.63177e-09
-4.24181e-08
-1.19753e-08
7.04746e-09
-4.27654e-08
-1.16533e-08
9.91842e-09
-4.3416e-08
-1.10925e-08
1.20258e-08
-4.38721e-08
-1.01677e-08
1.32912e-08
-4.43287e-08
-9.12695e-09
1.37116e-08
-4.46684e-08
-8.04286e-09
1.33423e-08
-4.47572e-08
-6.97638e-09
1.22916e-08
-4.44587e-08
-5.9843e-09
1.07037e-08
-4.36323e-08
-5.10075e-09
8.74227e-09
-4.21152e-08
-4.33876e-09
6.5731e-09
-3.97096e-08
-3.70119e-09
4.3846e-09
-3.61443e-08
-3.1602e-09
2.39752e-09
-3.09672e-08
-2.61403e-09
8.3189e-10
-2.32847e-08
-1.89304e-09
-1.11313e-08
-8.52397e-10
-8.75425e-10
-9.34814e-09
-9.13292e-10
-2.57784e-09
-1.94756e-08
-1.9681e-09
-4.69555e-09
-2.60257e-08
-2.67802e-09
-6.99614e-09
-3.04693e-08
-3.27763e-09
-9.28375e-09
-3.34833e-08
-3.87836e-09
-1.13605e-08
-3.54429e-08
-4.54587e-09
-1.3038e-08
-3.65948e-08
-5.31476e-09
-1.414e-08
-3.71201e-08
-6.19668e-09
-1.45151e-08
-3.71672e-08
-7.18083e-09
-1.40532e-08
-3.68701e-08
-8.23209e-09
-1.26996e-08
-3.63574e-08
-9.30064e-09
-1.04567e-08
-3.57655e-08
-1.03264e-08
-7.43695e-09
-3.51732e-08
-1.12111e-08
-3.82841e-09
-3.46176e-08
-1.18103e-08
-5.43311e-12
-3.42256e-08
-1.20973e-08
3.82984e-09
-3.41925e-08
-1.2061e-08
7.42396e-09
-3.45845e-08
-1.17752e-08
1.04331e-08
-3.52043e-08
-1.12209e-08
1.268e-08
-3.57832e-08
-1.03359e-08
1.40434e-08
-3.63767e-08
-9.31559e-09
1.45148e-08
-3.68926e-08
-8.24726e-09
1.41476e-08
-3.71956e-08
-7.19451e-09
1.30515e-08
-3.71536e-08
-6.20915e-09
1.13764e-08
-3.66328e-08
-5.32441e-09
9.30038e-09
-3.5485e-08
-4.55431e-09
7.00948e-09
-3.35296e-08
-3.88912e-09
4.69409e-09
-3.05262e-08
-3.30283e-09
2.56924e-09
-2.6117e-08
-2.7254e-09
8.8325e-10
-1.95996e-08
-1.99919e-09
-9.33865e-09
-9.09486e-10
-9.03631e-10
-7.51519e-09
-9.29387e-10
-2.63927e-09
-1.57505e-08
-1.98953e-09
-4.79946e-09
-2.11421e-08
-2.72351e-09
-7.15272e-09
-2.47845e-08
-3.33158e-09
-9.49301e-09
-2.72164e-08
-3.92672e-09
-1.16152e-08
-2.8742e-08
-4.57878e-09
-1.33233e-08
-2.95636e-08
-5.32333e-09
-1.44356e-08
-2.98371e-08
-6.1707e-09
-1.4799e-08
-2.96955e-08
-7.10837e-09
-1.43063e-08
-2.92579e-08
-8.10505e-09
-1.28975e-08
-2.86485e-08
-9.11787e-09
-1.05902e-08
-2.79799e-08
-1.00931e-08
-7.55502e-09
-2.73142e-08
-1.08943e-08
-3.9416e-09
-2.67896e-08
-1.14415e-08
-3.14375e-11
-2.64483e-08
-1.16876e-08
3.86056e-09
-2.64119e-08
-1.16726e-08
7.46017e-09
-2.6748e-08
-1.14362e-08
1.05439e-08
-2.73523e-08
-1.09359e-08
1.28761e-08
-2.7996e-08
-1.01196e-08
1.4293e-08
-2.86596e-08
-9.13408e-09
1.47951e-08
-2.92741e-08
-8.12074e-09
1.44386e-08
-2.97166e-08
-7.1226e-09
1.33317e-08
-2.98636e-08
-6.18315e-09
1.16267e-08
-2.95935e-08
-5.33445e-09
9.5054e-09
-2.87748e-08
-4.58902e-09
7.16416e-09
-2.72523e-08
-3.93618e-09
4.80596e-09
-2.48238e-08
-3.34427e-09
2.63447e-09
-2.11931e-08
-2.7525e-09
8.95287e-10
-1.58285e-08
-2.03194e-09
-7.51117e-09
-9.32232e-10
-8.96255e-10
-5.70982e-09
-9.09176e-10
-2.59681e-09
-1.21063e-08
-1.9437e-09
-4.72553e-09
-1.63442e-08
-2.6692e-09
-7.05359e-09
-1.91989e-08
-3.25759e-09
-9.37369e-09
-2.10712e-08
-3.82518e-09
-1.14801e-08
-2.21951e-08
-4.44051e-09
-1.31725e-08
-2.27339e-08
-5.13744e-09
-1.42692e-08
-2.28155e-08
-5.92502e-09
-1.46201e-08
-2.25516e-08
-6.79316e-09
-1.41169e-08
-2.20495e-08
-7.7117e-09
-1.27089e-08
-2.14142e-08
-8.64249e-09
-1.04389e-08
-2.0735e-08
-9.51494e-09
-7.45147e-09
-2.00911e-08
-1.02107e-08
-3.90697e-09
-1.96115e-08
-1.07227e-08
-3.6105e-11
-1.9345e-08
-1.09742e-08
3.81165e-09
-1.93048e-08
-1.0955e-08
7.36122e-09
-1.95791e-08
-1.07186e-08
1.03896e-08
-2.01233e-08
-1.02575e-08
1.26861e-08
-2.07511e-08
-9.54146e-09
1.41009e-08
-2.14204e-08
-8.65408e-09
1.4611e-08
-2.20594e-08
-7.72486e-09
1.42688e-08
-2.25672e-08
-6.80742e-09
1.31774e-08
-2.2834e-08
-5.93825e-09
1.1488e-08
-2.27558e-08
-5.14831e-09
9.38339e-09
-2.222e-08
-4.45027e-09
7.06378e-09
-2.10983e-08
-3.83448e-09
4.7329e-09
-1.92263e-08
-3.26666e-09
2.59783e-09
-1.63758e-08
-2.68232e-09
8.86413e-10
-1.21486e-08
-1.96854e-09
-5.71346e-09
-9.11357e-10
-8.46855e-10
-4.01125e-09
-8.51776e-10
-2.45527e-09
-8.67459e-09
-1.82337e-09
-4.48106e-09
-1.18142e-08
-2.50428e-09
-6.71158e-09
-1.39188e-08
-3.04968e-09
-8.94716e-09
-1.52662e-08
-3.56956e-09
-1.09852e-08
-1.60285e-08
-4.12873e-09
-1.26257e-08
-1.63319e-08
-4.76159e-09
-1.36904e-08
-1.62768e-08
-5.47423e-09
-1.40305e-08
-1.59546e-08
-6.25692e-09
-1.35423e-08
-1.54515e-08
-7.08628e-09
-1.21769e-08
-1.48496e-08
-7.93007e-09
-1.00041e-08
-1.42225e-08
-8.68548e-09
-7.13499e-09
-1.36617e-08
-9.29862e-09
-3.73697e-09
-1.3248e-08
-9.76162e-09
-3.19004e-11
-1.30355e-08
-1.00147e-08
3.65308e-09
-1.30027e-08
-9.98714e-09
7.05793e-09
-1.32271e-08
-9.7569e-09
9.95806e-09
-1.36812e-08
-9.34241e-09
1.21538e-08
-1.42348e-08
-8.7121e-09
1.35242e-08
-1.48559e-08
-7.93514e-09
1.40195e-08
-1.54576e-08
-7.09722e-09
1.36869e-08
-1.59641e-08
-6.27046e-09
1.26285e-08
-1.62891e-08
-5.48667e-09
1.09912e-08
-1.63465e-08
-4.77216e-09
8.955e-09
-1.60457e-08
-4.13823e-09
6.71823e-09
-1.52842e-08
-3.57748e-09
4.48645e-09
-1.39375e-08
-3.0572e-09
2.45887e-09
-1.1836e-08
-2.51233e-09
8.45214e-10
-8.70035e-09
-1.83472e-09
-4.01522e-09
-8.53078e-10
-7.55452e-10
-2.4994e-09
-7.56471e-10
-2.20607e-09
-5.59959e-09
-1.62446e-09
-4.06258e-09
-7.734e-09
-2.2238e-09
-6.13078e-09
-9.15461e-09
-2.69611e-09
-8.2244e-09
-1.00274e-08
-3.14528e-09
-1.01485e-08
-1.04748e-08
-3.62967e-09
-1.17066e-08
-1.0592e-08
-4.18195e-09
-1.27246e-08
-1.04525e-08
-4.80634e-09
-1.306e-08
-1.01246e-08
-5.49477e-09
-1.26128e-08
-9.67208e-09
-6.22666e-09
-1.13441e-08
-9.15402e-09
-6.96447e-09
-9.3215e-09
-8.63711e-09
-7.60803e-09
-6.64353e-09
-8.18505e-09
-8.15472e-09
-3.47402e-09
-7.85231e-09
-8.56531e-09
-2.75014e-11
-7.68181e-09
-8.80033e-09
3.40254e-09
-7.66246e-09
-8.77043e-09
6.57307e-09
-7.84009e-09
-8.55772e-09
9.26995e-09
-8.1913e-09
-8.18689e-09
1.13143e-08
-8.64209e-09
-7.63721e-09
1.25938e-08
-9.15803e-09
-6.97744e-09
1.30478e-08
-9.67553e-09
-6.23615e-09
1.27198e-08
-1.01298e-08
-5.50641e-09
1.17073e-08
-1.04595e-08
-4.81723e-09
1.01521e-08
-1.06007e-08
-4.19072e-09
8.22946e-09
-1.04848e-08
-3.6383e-09
6.13547e-09
-1.00384e-08
-3.15193e-09
4.06762e-09
-9.16782e-09
-2.70188e-09
2.21207e-09
-7.75263e-09
-2.22788e-09
7.57433e-10
-5.61853e-09
-1.62728e-09
-2.50196e-09
-7.5588e-10
-6.18383e-10
-1.26363e-09
-6.17451e-10
-1.8458e-09
-3.04503e-09
-1.32722e-09
-3.46305e-09
-4.31392e-09