/*--------------------------------*- C++ -*----------------------------------*\
| =========                 |                                                 |
| \\      /  F ield         | OpenFOAM: The Open Source CFD Toolbox           |
|  \\    /   O peration     | Version:  v1906                                 |
|   \\  /    A nd           | Web:      www.OpenFOAM.com                      |
|    \\/     M anipulation  |                                                 |
\*---------------------------------------------------------------------------*/
FoamFile
{
    version     2.0;
    format      ascii;
    class       volScalarField;
    location    "44";
    object      T;
}
// * * * * * * * * * * * * * * * * * * * * * * * * * * * * * * * * * * * * * //

dimensions      [0 0 0 1 0 0 0];


internalField   nonuniform List<scalar> 
78750
(
300.043
300.111
300.151
300.175
300.188
300.194
300.196
300.196
300.193
300.189
300.184
300.179
300.174
300.169
300.163
300.158
300.152
300.147
300.141
300.135
300.13
300.124
300.118
300.112
300.107
300.103
300.102
300.105
300.121
300.162
300.256
300.457
300.842
301.469
302.3
300.032
300.089
300.136
300.171
300.194
300.208
300.214
300.217
300.217
300.216
300.214
300.212
300.209
300.206
300.203
300.199
300.194
300.189
300.183
300.176
300.169
300.162
300.154
300.147
300.14
300.136
300.136
300.145
300.172
300.231
300.356
300.6
301.023
301.654
302.469
300.041
300.118
300.187
300.245
300.29
300.322
300.345
300.361
300.371
300.379
300.385
300.389
300.393
300.396
300.399
300.4
300.401
300.4
300.398
300.394
300.389
300.383
300.375
300.367
300.359
300.354
300.355
300.368
300.406
300.487
300.645
300.925
301.366
301.993
302.801
300.03
300.088
300.14
300.185
300.225
300.258
300.286
300.31
300.33
300.348
300.365
300.381
300.395
300.409
300.423
300.435
300.447
300.457
300.466
300.473
300.479
300.484
300.487
300.489
300.491
300.494
300.502
300.521
300.567
300.66
300.837
301.139
301.598
302.234
303.051
300.027
300.079
300.127
300.171
300.212
300.249
300.284
300.316
300.347
300.375
300.402
300.426
300.449
300.469
300.487
300.502
300.515
300.526
300.535
300.541
300.546
300.549
300.551
300.553
300.555
300.56
300.571
300.596
300.652
300.762
300.963
301.296
301.78
302.435
303.264
300.035
300.101
300.163
300.221
300.275
300.326
300.372
300.415
300.454
300.489
300.521
300.55
300.574
300.595
300.613
300.627
300.638
300.646
300.65
300.652
300.652
300.65
300.646
300.641
300.637
300.635
300.641
300.663
300.718
300.834
301.049
301.404
301.909
302.579
303.419
300.043
300.125
300.202
300.273
300.339
300.397
300.448
300.495
300.536
300.573
300.605
300.633
300.657
300.677
300.694
300.707
300.716
300.723
300.726
300.727
300.725
300.722
300.717
300.711
300.706
300.704
300.711
300.736
300.797
300.924
301.156
301.53
302.048
302.723
303.57
300.05
300.147
300.237
300.319
300.392
300.455
300.51
300.557
300.599
300.637
300.67
300.698
300.723
300.744
300.761
300.774
300.784
300.791
300.794
300.794
300.791
300.786
300.78
300.772
300.766
300.763
300.771
300.798
300.865
301.001
301.247
301.637
302.164
302.844
303.696
300.056
300.162
300.26
300.348
300.426
300.493
300.55
300.598
300.642
300.681
300.715
300.745
300.772
300.795
300.813
300.829
300.84
300.849
300.853
300.855
300.853
300.848
300.841
300.833
300.826
300.823
300.831
300.861
300.934
301.081
301.34
301.745
302.278
302.96
303.816
300.059
300.172
300.276
300.369
300.451
300.522
300.582
300.632
300.677
300.718
300.754
300.786
300.814
300.838
300.858
300.875
300.888
300.898
300.905
300.907
300.906
300.902
300.895
300.887
300.88
300.877
300.886
300.919
300.998
301.154
301.426
301.842
302.382
303.067
303.927
300.062
300.181
300.29
300.389
300.477
300.551
300.614
300.667
300.713
300.755
300.793
300.826
300.855
300.881
300.902
300.92
300.935
300.946
300.954
300.958
300.958
300.954
300.947
300.939
300.932
300.93
300.941
300.977
301.063
301.228
301.512
301.939
302.484
303.172
304.033
300.066
300.191
300.307
300.412
300.504
300.582
300.647
300.702
300.749
300.792
300.831
300.865
300.895
300.921
300.944
300.963
300.979
300.991
300.999
301.004
301.004
301.001
300.995
300.988
300.981
300.98
300.993
301.034
301.126
301.301
301.595
302.031
302.581
303.272
304.135
300.069
300.202
300.324
300.434
300.531
300.612
300.679
300.735
300.784
300.828
300.868
300.903
300.933
300.96
300.984
301.005
301.022
301.035
301.044
301.049
301.05
301.047
301.041
301.035
301.029
301.029
301.045
301.09
301.189
301.374
301.679
302.123
302.677
303.37
304.234
300.073
300.213
300.341
300.457
300.558
300.642
300.71
300.767
300.817
300.862
300.902
300.937
300.969
300.997
301.022
301.044
301.061
301.075
301.085
301.09
301.092
301.09
301.085
301.079
301.075
301.077
301.096
301.146
301.252
301.446
301.761
302.212
302.769
303.465
304.33
300.077
300.223
300.358
300.479
300.583
300.669
300.739
300.798
300.849
300.894
300.935
300.972
301.004
301.034
301.06
301.082
301.1
301.114
301.124
301.13
301.132
301.131
301.127
301.122
301.119
301.124
301.146
301.201
301.315
301.518
301.842
302.298
302.859
303.557
304.423
300.08
300.234
300.375
300.501
300.608
300.696
300.767
300.827
300.879
300.926
300.967
301.005
301.039
301.069
301.096
301.119
301.137
301.152
301.162
301.169
301.171
301.17
301.167
301.163
301.162
301.169
301.195
301.256
301.377
301.588
301.921
302.382
302.946
303.647
304.513
300.084
300.244
300.39
300.521
300.631
300.721
300.794
300.855
300.908
300.956
300.998
301.037
301.072
301.103
301.131
301.154
301.173
301.188
301.199
301.206
301.209
301.209
301.206
301.204
301.204
301.213
301.243
301.309
301.437
301.657
301.998
302.464
303.03
303.733
304.599
300.087
300.253
300.405
300.54
300.653
300.745
300.819
300.882
300.936
300.985
301.029
301.069
301.105
301.137
301.165
301.189
301.208
301.224
301.235
301.242
301.246
301.246
301.244
301.243
301.245
301.257
301.29
301.362
301.497
301.725
302.074
302.543
303.111
303.817
304.682
300.09
300.262
300.42
300.559
300.675
300.768
300.844
300.907
300.963
301.013
301.058
301.099
301.136
301.169
301.198
301.222
301.243
301.259
301.27
301.278
301.282
301.283
301.282
301.281
301.285
301.299
301.336
301.413
301.555
301.791
302.147
302.62
303.189
303.897
304.761
300.093
300.271
300.434
300.576
300.695
300.79
300.867
300.932
300.989
301.04
301.087
301.129
301.167
301.201
301.23
301.255
301.276
301.292
301.304
301.312
301.317
301.318
301.318
301.319
301.324
301.341
301.382
301.464
301.612
301.856
302.218
302.694
303.265
303.973
304.838
300.096
300.28
300.447
300.593
300.715
300.812
300.89
300.956
301.015
301.067
301.115
301.158
301.197
301.231
301.262
301.288
301.309
301.326
301.338
301.346
301.351
301.353
301.354
301.356
301.363
301.382
301.426
301.513
301.668
301.919
302.287
302.765
303.337
304.047
304.91
300.099
300.288
300.46
300.61
300.734
300.833
300.912
300.98
301.04
301.093
301.142
301.186
301.226
301.262
301.293
301.319
301.341
301.358
301.371
301.38
301.385
301.388
301.389
301.392
301.401
301.423
301.47
301.562
301.723
301.98
302.354
302.833
303.406
304.118
304.98
300.102
300.296
300.472
300.626
300.753
300.853
300.934
301.003
301.064
301.119
301.169
301.214
301.255
301.292
301.323
301.35
301.373
301.39
301.404
301.413
301.419
301.422
301.424
301.428
301.438
301.463
301.514
301.61
301.777
302.04
302.418
302.9
303.473
304.185
305.047
300.105
300.304
300.485
300.642
300.771
300.873
300.956
301.026
301.089
301.145
301.196
301.242
301.284
301.321
301.354
301.381
301.404
301.422
301.436
301.445
301.452
301.456
301.459
301.464
301.476
301.502
301.556
301.658
301.829
302.098
302.481
302.964
303.537
304.251
305.112
300.107
300.312
300.497
300.658
300.79
300.893
300.977
301.049
301.113
301.17
301.223
301.27
301.313
301.351
301.384
301.412
301.435
301.454
301.468
301.478
301.484
301.489
301.493
301.499
301.512
301.541
301.599
301.704
301.881
302.155
302.543
303.026
303.599
304.313
305.174
300.11
300.32
300.51
300.675
300.808
300.914
300.999
301.072
301.137
301.196
301.249
301.298
301.341
301.38
301.414
301.442
301.466
301.485
301.499
301.51
301.517
301.522
301.527
301.534
301.549
301.58
301.641
301.75
301.932
302.212
302.603
303.087
303.659
304.374
305.235
300.113
300.328
300.522
300.691
300.827
300.934
301.02
301.095
301.161
301.221
301.275
301.325
301.369
301.409
301.443
301.472
301.496
301.516
301.53
301.541
301.549
301.555
301.56
301.569
301.585
301.619
301.683
301.796
301.983
302.267
302.661
303.146
303.718
304.434
305.294
300.116
300.336
300.535
300.707
300.845
300.954
301.042
301.117
301.185
301.246
301.302
301.352
301.398
301.438
301.473
301.502
301.527
301.546
301.561
301.573
301.581
301.587
301.594
301.604
301.622
301.657
301.724
301.842
302.033
302.321
302.719
303.203
303.775
304.491
305.351
300.118
300.344
300.548
300.723
300.864
300.974
301.063
301.14
301.209
301.271
301.328
301.379
301.426
301.466
301.502
301.532
301.557
301.577
301.592
301.604
301.613
301.62
301.627
301.638
301.658
301.696
301.766
301.887
302.082
302.375
302.776
303.26
303.83
304.548
305.408
300.121
300.352
300.56
300.739
300.882
300.993
301.084
301.163
301.233
301.296
301.354
301.406
301.454
301.495
301.531
301.562
301.587
301.607
301.623
301.635
301.644
301.652
301.66
301.672
301.694
301.734
301.807
301.932
302.131
302.428
302.832
303.315
303.885
304.603
305.463
300.124
300.36
300.573
300.755
300.9
301.013
301.105
301.185
301.256
301.321
301.38
301.433
301.481
301.523
301.56
301.591
301.617
301.637
301.654
301.666
301.676
301.684
301.693
301.707
301.73
301.772
301.848
301.977
302.18
302.481
302.887
303.37
303.939
304.658
305.517
300.127
300.368
300.586
300.772
300.918
301.033
301.126
301.207
301.28
301.346
301.406
301.46
301.509
301.552
301.589
301.62
301.646
301.668
301.684
301.697
301.707
301.716
301.726
301.741
301.766
301.81
301.889
302.021
302.229
302.534
302.942
303.424
303.992
304.711
305.57
300.13
300.376
300.599
300.788
300.936
301.052
301.147
301.229
301.303
301.37
301.431
301.487
301.536
301.58
301.617
301.649
301.676
301.697
301.714
301.728
301.739
301.748
301.759
301.775
301.801
301.848
301.93
302.066
302.277
302.586
302.996
303.478
304.044
304.763
305.623
300.133
300.385
300.611
300.803
300.954
301.071
301.167
301.251
301.326
301.395
301.457
301.513
301.563
301.608
301.646
301.678
301.705
301.727
301.745
301.759
301.77
301.78
301.792
301.809
301.837
301.886
301.971
302.11
302.325
302.637
303.05
303.53
304.095
304.815
305.674
300.135
300.393
300.624
300.819
300.972
301.09
301.188
301.273
301.349
301.419
301.482
301.539
301.59
301.635
301.674
301.707
301.734
301.757
301.775
301.789
301.801
301.812
301.825
301.843
301.873
301.924
302.012
302.154
302.373
302.688
303.102
303.581
304.145
304.865
305.724
300.138
300.4
300.636
300.834
300.989
301.109
301.208
301.294
301.372
301.442
301.507
301.565
301.617
301.663
301.702
301.736
301.763
301.786
301.805
301.82
301.832
301.844
301.858
301.877
301.909
301.962
302.052
302.198
302.42
302.738
303.154
303.632
304.194
304.915
305.774
300.141
300.408
300.648
300.849
301.006
301.127
301.227
301.315
301.394
301.466
301.532
301.591
301.644
301.69
301.73
301.764
301.792
301.816
301.834
301.85
301.863
301.876
301.891
301.912
301.945
302.001
302.093
302.242
302.468
302.789
303.206
303.683
304.243
304.964
305.823
300.143
300.416
300.66
300.864
301.023
301.145
301.247
301.336
301.416
301.49
301.556
301.616
301.67
301.717
301.758
301.792
301.821
301.845
301.864
301.88
301.894
301.908
301.924
301.946
301.981
302.039
302.135
302.286
302.515
302.839
303.258
303.732
304.291
305.012
305.871
300.146
300.423
300.671
300.879
301.039
301.163
301.266
301.357
301.438
301.513
301.581
301.642
301.696
301.744
301.785
301.82
301.85
301.874
301.894
301.91
301.925
301.939
301.956
301.98
302.017
302.078
302.176
302.331
302.564
302.89
303.309
303.782
304.339
305.06
305.92
300.149
300.431
300.683
300.893
301.055
301.181
301.285
301.377
301.46
301.536
301.605
301.667
301.723
301.771
301.813
301.848
301.878
301.903
301.923
301.94
301.955
301.971
301.989
302.014
302.053
302.116
302.218
302.376
302.612
302.941
303.361
303.832
304.386
305.108
305.968
300.151
300.438
300.694
300.907
301.071
301.199
301.304
301.398
301.482
301.559
301.629
301.692
301.749
301.798
301.84
301.876
301.906
301.931
301.952
301.97
301.986
302.002
302.022
302.048
302.089
302.155
302.259
302.421
302.66
302.992
303.412
303.881
304.434
305.155
306.015
300.154
300.445
300.706
300.922
301.087
301.216
301.323
301.418
301.504
301.582
301.653
301.718
301.775
301.824
301.867
301.904
301.935
301.96
301.981
302
302.017
302.034
302.054
302.082
302.125
302.193
302.3
302.466
302.708
303.042
303.463
303.929
304.48
305.202
306.062
300.156
300.453
300.717
300.936
301.103
301.233
301.342
301.438
301.526
301.605
301.677
301.743
301.8
301.851
301.895
301.932
301.963
301.989
302.011
302.03
302.047
302.065
302.087
302.116
302.161
302.231
302.341
302.509
302.755
303.091
303.512
303.977
304.525
305.247
306.107
300.159
300.46
300.728
300.95
301.119
301.251
301.361
301.458
301.547
301.628
301.702
301.768
301.826
301.877
301.922
301.959
301.991
302.017
302.04
302.06
302.078
302.097
302.119
302.15
302.196
302.268
302.381
302.552
302.8
303.139
303.56
304.023
304.57
305.291
306.151
300.161
300.467
300.739
300.963
301.135
301.268
301.379
301.479
301.569
301.651
301.725
301.793
301.852
301.904
301.949
301.987
302.019
302.046
302.069
302.089
302.109
302.129
302.152
302.185
302.232
302.306
302.421
302.594
302.845
303.186
303.607
304.068
304.613
305.335
306.195
300.164
300.474
300.75
300.977
301.15
301.285
301.398
301.499
301.59
301.674
301.749
301.817
301.878
301.93
301.976
302.014
302.047
302.074
302.098
302.119
302.139
302.161
302.186
302.22
302.269
302.345
302.461
302.636
302.889
303.232
303.653
304.112
304.656
305.378
306.238
300.166
300.481
300.761
300.991
301.166
301.302
301.417
301.519
301.612
301.696
301.773
301.842
301.903
301.957
302.002
302.042
302.075
302.103
302.127
302.149
302.17
302.193
302.22
302.255
302.307
302.385
302.503
302.68
302.935
303.279
303.7
304.156
304.698
305.421
306.282
300.169
300.488
300.772
301.004
301.181
301.319
301.435
301.539
301.633
301.719
301.797
301.867
301.929
301.983
302.029
302.069
302.102
302.131
302.156
302.179
302.201
302.225
302.254
302.292
302.346
302.426
302.547
302.727
302.983
303.327
303.747
304.201
304.742
305.465
306.327
300.171
300.495
300.783
301.018
301.196
301.336
301.453
301.558
301.654
301.742
301.821
301.892
301.954
302.009
302.056
302.096
302.13
302.159
302.185
302.208
302.232
302.257
302.288
302.328
302.386
302.47
302.594
302.776
303.034
303.379
303.797
304.248
304.787
305.511
306.375
300.174
300.502
300.794
301.031
301.212
301.352
301.471
301.578
301.675
301.764
301.844
301.916
301.98
302.035
302.082
302.123
302.157
302.187
302.213
302.238
302.262
302.289
302.322
302.365
302.426
302.514
302.642
302.828
303.089
303.434
303.85
304.297
304.834
305.559
306.424
300.176
300.509
300.804
301.045
301.227
301.369
301.489
301.598
301.696
301.786
301.868
301.94
302.005
302.06
302.108
302.149
302.185
302.215
302.242
302.267
302.292
302.321
302.355
302.401
302.466
302.558
302.692
302.882
303.146
303.491
303.904
304.348
304.883
305.609
306.475
300.179
300.516
300.815
301.058
301.242
301.385
301.507
301.617
301.717
301.808
301.891
301.965
302.029
302.086
302.134
302.176
302.212
302.242
302.27
302.296
302.322
302.352
302.388
302.437
302.504
302.601
302.74
302.936
303.203
303.55
303.96
304.399
304.932
305.659
306.526
300.181
300.523
300.825
301.071
301.256
301.402
301.525
301.636
301.738
301.83
301.914
301.989
302.054
302.111
302.16
302.202
302.238
302.27
302.298
302.325
302.352
302.383
302.421
302.471
302.542
302.643
302.787
302.987
303.259
303.607
304.015
304.451
304.982
305.708
306.575
300.183
300.53
300.836
301.084
301.271
301.418
301.543
301.656
301.759
301.852
301.937
302.013
302.079
302.136
302.186
302.228
302.265
302.297
302.326
302.354
302.382
302.414
302.453
302.505
302.578
302.682
302.83
303.036
303.312
303.662
304.068
304.501
305.03
305.756
306.623
300.186
300.537
300.846
301.097
301.286
301.434
301.561
301.675
301.779
301.874
301.96
302.036
302.103
302.162
302.212
302.255
302.292
302.324
302.354
302.383
302.412
302.445
302.485
302.539
302.614
302.721
302.872
303.082
303.362
303.714
304.119
304.55
305.077
305.803
306.669
300.188
300.543
300.857
301.11
301.301
301.451
301.579
301.695
301.8
301.897
301.983
302.06
302.128
302.187
302.237
302.281
302.318
302.352
302.382
302.412
302.442
302.476
302.518
302.573
302.65
302.758
302.912
303.125
303.408
303.763
304.168
304.597
305.123
305.847
306.713
300.19
300.55
300.868
301.124
301.316
301.468
301.597
301.715
301.822
301.919
302.007
302.085
302.153
302.212
302.263
302.306
302.345
302.379
302.41
302.441
302.472
302.508
302.552
302.609
302.687
302.797
302.953
303.168
303.454
303.811
304.215
304.642
305.168
305.891
306.756
300.193
300.557
300.879
301.137
301.332
301.485
301.616
301.735
301.843
301.942
302.03
302.109
302.178
302.237
302.288
302.332
302.371
302.406
302.438
302.47
302.503
302.54
302.586
302.645
302.725
302.837
302.994
303.211
303.5
303.858
304.261
304.687
305.211
305.935
306.799
300.195
300.565
300.89
301.151
301.347
301.502
301.635
301.755
301.865
301.964
302.054
302.133
302.202
302.262
302.313
302.358
302.397
302.432
302.466
302.499
302.534
302.573
302.621
302.683
302.766
302.88
303.039
303.258
303.547
303.906
304.308
304.732
305.256
305.979
306.844
300.198
300.572
300.901
301.165
301.363
301.519
301.654
301.775
301.886
301.987
302.078
302.158
302.227
302.287
302.339
302.384
302.423
302.459
302.493
302.527
302.564
302.606
302.657
302.722
302.808
302.926
303.087
303.308
303.598
303.957
304.356
304.778
305.301
306.024
306.889
300.201
300.579
300.913
301.179
301.379
301.537
301.673
301.796
301.908
302.01
302.102
302.182
302.252
302.312
302.364
302.409
302.449
302.485
302.52
302.556
302.594
302.639
302.693
302.762
302.852
302.973
303.139
303.362
303.654
304.011
304.407
304.826
305.348
306.071
306.935
300.203
300.587
300.924
301.194
301.395
301.554
301.692
301.817
301.93
302.034
302.126
302.207
302.277
302.337
302.389
302.434
302.474
302.511
302.547
302.584
302.624
302.671
302.728
302.801
302.896
303.022
303.192
303.419
303.712
304.067
304.459
304.874
305.395
306.118
306.981
300.206
300.594
300.936
301.208
301.411
301.572
301.711
301.837
301.953
302.057
302.15
302.231
302.302
302.362
302.414
302.459
302.5
302.537
302.574
302.611
302.653
302.702
302.762
302.839
302.939
303.071
303.246
303.477
303.771
304.125
304.512
304.924
305.442
306.164
307.027
300.208
300.602
300.947
301.222
301.427
301.59
301.731
301.858
301.975
302.08
302.174
302.256
302.326
302.387
302.439
302.484
302.525
302.562
302.599
302.638
302.681
302.732
302.795
302.875
302.98
303.117
303.298
303.533
303.829
304.181
304.563
304.971
305.488
306.209
307.069
300.211
300.61
300.959
301.237
301.444
301.608
301.75
301.88
301.998
302.104
302.198
302.281
302.351
302.412
302.464
302.509
302.55
302.588
302.625
302.665
302.709
302.762
302.827
302.91
303.019
303.161
303.347
303.586
303.884
304.235
304.613
305.017
305.532
306.251
307.109
300.214
300.617
300.971
301.251
301.46
301.626
301.77
301.901
302.02
302.128
302.223
302.305
302.376
302.437
302.488
302.534
302.575
302.613
302.651
302.691
302.736
302.79
302.857
302.943
303.055
303.201
303.392
303.635
303.935
304.285
304.659
305.06
305.573
306.289
307.146
300.216
300.625
300.983
301.266
301.477
301.644
301.79
301.922
302.043
302.152
302.248
302.33
302.401
302.462
302.513
302.559
302.599
302.638
302.676
302.717
302.763
302.819
302.887
302.975
303.09
303.239
303.433
303.68
303.983
304.331
304.702
305.1
305.612
306.326
307.18
300.219
300.633
300.994
301.281
301.493
301.662
301.81
301.944
302.066
302.176
302.273
302.356
302.427
302.487
302.538
302.583
302.624
302.663
302.702
302.743
302.791
302.847
302.917
303.006
303.123
303.275
303.472
303.722
304.026
304.374
304.742
305.138
305.647
306.359
307.211
300.222
300.64
301.006
301.296
301.51
301.681
301.83
301.966
302.09
302.201
302.298
302.381
302.452
302.512
302.564
302.608
302.649
302.688
302.727
302.77
302.818
302.875
302.946
303.038
303.156
303.31
303.51
303.762
304.067
304.414
304.78
305.173
305.681
306.39
307.242
300.225
300.648
301.018
301.311
301.527
301.7
301.851
301.988
302.114
302.225
302.323
302.407
302.478
302.538
302.589
302.634
302.674
302.713
302.753
302.796
302.845
302.904
302.976
303.069
303.189
303.345
303.546
303.8
304.106
304.452
304.815
305.206
305.712
306.42
307.27
300.227
300.656
301.031
301.326
301.544
301.719
301.872
302.011
302.138
302.25
302.349
302.433
302.504
302.563
302.614
302.659
302.699
302.739
302.779
302.822
302.872
302.932
303.007
303.101
303.222
303.38
303.583
303.837
304.144
304.488
304.848
305.238
305.742
306.449
307.298
300.23
300.664
301.043
301.341
301.562
301.738
301.893
302.034
302.162
302.276
302.375
302.459
302.53
302.589
302.64
302.684
302.725
302.764
302.804
302.849
302.9
302.961
303.037
303.133
303.256
303.415
303.619
303.875
304.181
304.523
304.881
305.268
305.771
306.477
307.325
300.233
300.672
301.055
301.356
301.579
301.757
301.914
302.057
302.186
302.301
302.401
302.486
302.556
302.615
302.666
302.71
302.75
302.789
302.83
302.875
302.927
302.99
303.068
303.165
303.29
303.451
303.657
303.912
304.218
304.558
304.913
305.297
305.8
306.505
307.353
300.236
300.68
301.068
301.372
301.597
301.777
301.935
302.08
302.211
302.327
302.428
302.512
302.583
302.642
302.691
302.735
302.775
302.814
302.855
302.901
302.954
303.019
303.098
303.198
303.325
303.488
303.694
303.95
304.254
304.592
304.944
305.326
305.828
306.532
307.379
300.238
300.688
301.08
301.387
301.615
301.797
301.957
302.104
302.236
302.354
302.455
302.539
302.61
302.668
302.718
302.761
302.8
302.839
302.881
302.927
302.981
303.047
303.128
303.23
303.36
303.524
303.732
303.989
304.291
304.626
304.974
305.355
305.855
306.559
307.407
300.241
300.696
301.093
301.403
301.633
301.817
301.979
302.128
302.262
302.38
302.482
302.567
302.637
302.695
302.744
302.786
302.826
302.864
302.906
302.952
303.008
303.075
303.158
303.263
303.394
303.561
303.77
304.027
304.328
304.66
305.005
305.383
305.883
306.587
307.434
300.244
300.704
301.105
301.419
301.651
301.837
302.002
302.152
302.288
302.407
302.51
302.595
302.664
302.722
302.77
302.812
302.851
302.89
302.931
302.978
303.034
303.103
303.188
303.295
303.429
303.597
303.808
304.065
304.365
304.693
305.035
305.411
305.911
306.614
307.462
300.247
300.713
301.118
301.435
301.67
301.858
302.025
302.177
302.314
302.435
302.538
302.623
302.692
302.749
302.797
302.839
302.877
302.915
302.956
303.003
303.06
303.13
303.217
303.326
303.462
303.633
303.846
304.103
304.401
304.727
305.065
305.44
305.938
306.642
307.49
300.25
300.721
301.131
301.452
301.689
301.879
302.048
302.203
302.342
302.463
302.566
302.651
302.721
302.777
302.824
302.865
302.903
302.94
302.981
303.028
303.085
303.156
303.245
303.356
303.495
303.668
303.882
304.14
304.437
304.759
305.095
305.468
305.966
306.669
307.518
300.253
300.73
301.145
301.469
301.709
301.901
302.072
302.229
302.37
302.492
302.596
302.681
302.75
302.806
302.852
302.892
302.929
302.965
303.005
303.052
303.11
303.182
303.272
303.385
303.527
303.703
303.918
304.176
304.472
304.792
305.124
305.496
305.994
306.697
307.546
300.256
300.739
301.159
301.487
301.729
301.924
302.098
302.256
302.399
302.522
302.626
302.711
302.779
302.834
302.88
302.919
302.955
302.991
303.031
303.077
303.134
303.207
303.298
303.414
303.557
303.735
303.953
304.211
304.506
304.823
305.153
305.524
306.021
306.724
307.573
300.259
300.748
301.173
301.505
301.75
301.948
302.124
302.284
302.428
302.553
302.657
302.741
302.809
302.864
302.908
302.947
302.982
303.017
303.056
303.102
303.159
303.231
303.324
303.441
303.587
303.767
303.986
304.245
304.539
304.855
305.183
305.552
306.049
306.751
307.6
300.262
300.757
301.188
301.524
301.772
301.973
302.151
302.314
302.459
302.585
302.689
302.773
302.84
302.894
302.937
302.975
303.009
303.043
303.081
303.126
303.183
303.255
303.348
303.466
303.615
303.797
304.018
304.278
304.571
304.885
305.211
305.578
306.075
306.777
307.625
300.266
300.767
301.204
301.544
301.795
301.998
302.179
302.344
302.492
302.618
302.722
302.805
302.871
302.924
302.967
303.003
303.037
303.07
303.107
303.151
303.207
303.279
303.372
303.491
303.641
303.826
304.048
304.309
304.602
304.914
305.238
305.605
306.101
306.803
307.65
300.269
300.778
301.221
301.565
301.82
302.025
302.209
302.376
302.525
302.652
302.755
302.838
302.904
302.955
302.997
303.033
303.065
303.098
303.134
303.177
303.231
303.302
303.395
303.515
303.666
303.852
304.077
304.339
304.631
304.942
305.265
305.631
306.126
306.827
307.673
300.273
300.789
301.239
301.588
301.845
302.054
302.24
302.41
302.56
302.687
302.79
302.872
302.937
302.987
303.028
303.062
303.094
303.126
303.161
303.203
303.256
303.326
303.418
303.538
303.689
303.877
304.103
304.367
304.659
304.969
305.291
305.656
306.151
306.85
307.695
300.277
300.801
301.257
301.611
301.872
302.083
302.272
302.444
302.595
302.723
302.826
302.907
302.97
303.02
303.059
303.093
303.123
303.154
303.188
303.229
303.282
303.35
303.441
303.56
303.712
303.901
304.128
304.392
304.686
304.995
305.316
305.68
306.174
306.872
307.716
300.282
300.814
301.277
301.635
301.899
302.114
302.306
302.48
302.633
302.76
302.863
302.943
303.005
303.053
303.091
303.123
303.153
303.183
303.217
303.257
303.308
303.375
303.465
303.582
303.734
303.923
304.152
304.417
304.711
305.02
305.34
305.703
306.196
306.893
307.735
300.286
300.827
301.297
301.66
301.928
302.146
302.341
302.517
302.671
302.799
302.9
302.979
303.04
303.086
303.123
303.155
303.184
303.213
303.246
303.285
303.335
303.401
303.489
303.605
303.756
303.945
304.174
304.441
304.735
305.043
305.362
305.725
306.217
306.913
307.754
300.291
300.84
301.317
301.686
301.957
302.178
302.376
302.555
302.71
302.838
302.939
303.016
303.075
303.12
303.156
303.186
303.214
303.243
303.275
303.314
303.364
303.429
303.515
303.63
303.779
303.968
304.197
304.464
304.758
305.067
305.385
305.746
306.238
306.932
307.773
300.296
300.854
301.339
301.712
301.988
302.212
302.414
302.595
302.751
302.878
302.978
303.054
303.111
303.155
303.189
303.218
303.246
303.274
303.306
303.344
303.393
303.457
303.542
303.655
303.803
303.991
304.22
304.487
304.781
305.089
305.406
305.767
306.258
306.952
307.792
300.301
300.868
301.361
301.74
302.019
302.247
302.452
302.635
302.793
302.92
303.019
303.093
303.148
303.189
303.222
303.251
303.277
303.305
303.337
303.375
303.424
303.487
303.572
303.683
303.83
304.016
304.244
304.511
304.805
305.112
305.428
305.788
306.279
306.972
307.812
300.306
300.883
301.383
301.768
302.052
302.283
302.491
302.678
302.836
302.963
303.06
303.132
303.185
303.225
303.256
303.283
303.309
303.336
303.368
303.406
303.455
303.518
303.602
303.713
303.858
304.043
304.27
304.535
304.829
305.135
305.45
305.81
306.3
306.992
307.832
300.311
300.898
301.407
301.797
302.085
302.32
302.532
302.721
302.881
303.007
303.103
303.172
303.223
303.261
303.291
303.316
303.341
303.368
303.4
303.439
303.488
303.551
303.635
303.745
303.889
304.073
304.298
304.562
304.854
305.159
305.473
305.832
306.322
307.015
307.855
300.316
300.913
301.43
301.827
302.119
302.359
302.574
302.766
302.927
303.053
303.146
303.214
303.262
303.297
303.325
303.349
303.374
303.4
303.432
303.471
303.521
303.585
303.669
303.779
303.922
304.104
304.328
304.591
304.881
305.184
305.496
305.854
306.345
307.038
307.879
300.322
300.929
301.455
301.858
302.155
302.398
302.618
302.812
302.974
303.099
303.191
303.256
303.302
303.335
303.36
303.383
303.406
303.432
303.464
303.504
303.554
303.62
303.704
303.815
303.958
304.139
304.362
304.622
304.91
305.211
305.521
305.879
306.369
307.063
307.905
300.328
300.946
301.481
301.89
302.191
302.439
302.663
302.86
303.023
303.148
303.238
303.3
303.343
303.373
303.396
303.417
303.439
303.465
303.497
303.537
303.588
303.655
303.741
303.852
303.995
304.176
304.397
304.655
304.94
305.238
305.547
305.904
306.395
307.089
307.933
300.334
300.964
301.508
301.924
302.23
302.482
302.709
302.909
303.073
303.197
303.285
303.345
303.384
303.411
303.433
303.452
303.472
303.498
303.529
303.57
303.623
303.691
303.778
303.891
304.034
304.215
304.435
304.691
304.973
305.268
305.575
305.931
306.422
307.118
307.963
300.34
300.982
301.536
301.959
302.27
302.526
302.758
302.961
303.126
303.249
303.334
303.39
303.427
303.451
303.469
303.487
303.506
303.53
303.562
303.604
303.658
303.727
303.816
303.93
304.074
304.255
304.474
304.727
305.006
305.299
305.604
305.959
306.451
307.148
307.994
300.347
301.001
301.566
301.995
302.311
302.573
302.808
303.014
303.18
303.302
303.385
303.438
303.47
303.491
303.507
303.522
303.54
303.563
303.595
303.637
303.692
303.763
303.854
303.97
304.116
304.296
304.514
304.766
305.042
305.331
305.634
305.988
306.481
307.178
308.026
300.354
301.021
301.596
302.032
302.354
302.62
302.86
303.069
303.235
303.356
303.436
303.486
303.515
303.532
303.545
303.558
303.574
303.597
303.628
303.671
303.727
303.8
303.893
304.01
304.157
304.338
304.555
304.805
305.078
305.364
305.665
306.02
306.513
307.211
308.06
300.361
301.041
301.627
302.071
302.397
302.669
302.913
303.125
303.292
303.412
303.489
303.535
303.56
303.574
303.584
303.594
303.609
303.63
303.661
303.704
303.762
303.836
303.931
304.05
304.199
304.381
304.597
304.844
305.114
305.398
305.697
306.051
306.544
307.244
308.094
300.368
301.062
301.659
302.109
302.441
302.718
302.968
303.183
303.351
303.469
303.543
303.585
303.607
303.617
303.624
303.631
303.643
303.664
303.694
303.738
303.796
303.872
303.969
304.09
304.241
304.423
304.639
304.885
305.152
305.433
305.731
306.084
306.578
307.279
308.13
300.375
301.083
301.691
302.148
302.485
302.768
303.022
303.24
303.409
303.526
303.598
303.637
303.654
303.661
303.664
303.669
303.679
303.697
303.727
303.771
303.83
303.908
304.007
304.13
304.282
304.465
304.68
304.924
305.189
305.467
305.764
306.117
306.612
307.313
308.166
300.383
301.105
301.724
302.187
302.53
302.818
303.077
303.298
303.467
303.583
303.653
303.688
303.702
303.705
303.704
303.706
303.714
303.731
303.76
303.804
303.864
303.943
304.044
304.169
304.323
304.507
304.722
304.964
305.227
305.503
305.799
306.152
306.647
307.35
308.203
300.391
301.126
301.756
302.226
302.574
302.867
303.131
303.354
303.525
303.64
303.708
303.74
303.75
303.749
303.746