/*--------------------------------*- C++ -*----------------------------------*\
| =========                 |                                                 |
| \\      /  F ield         | OpenFOAM: The Open Source CFD Toolbox           |
|  \\    /   O peration     | Version:  v1906                                 |
|   \\  /    A nd           | Web:      www.OpenFOAM.com                      |
|    \\/     M anipulation  |                                                 |
\*---------------------------------------------------------------------------*/
FoamFile
{
    version     2.0;
    format      ascii;
    class       volScalarField;
    location    "0.95/oil";
    object      alphat;
}
// * * * * * * * * * * * * * * * * * * * * * * * * * * * * * * * * * * * * * //

dimensions      [1 -1 -1 0 0 0 0];


internalField   nonuniform List<scalar> 
168664
(
5.71627e-05
4.55349e-05
2.83769e-05
7.18652e-06
9.73694e-06
6.84834e-06
8.16043e-06
7.20129e-06
8.4037e-06
8.02478e-06
9.25584e-06
9.80801e-06
1.01803e-05
1.07218e-05
1.07656e-05
1.07652e-05
1.0251e-05
9.56585e-06
8.96133e-06
8.20066e-06
7.56032e-06
7.58648e-06
7.28638e-06
6.82626e-06
5.90486e-06
4.78325e-06
3.67605e-06
2.7211e-06
2.00176e-06
8.37017e-07
4.9163e-05
2.41153e-05
1.09844e-05
5.77253e-06
6.41291e-06
6.19098e-06
7.50073e-06
7.38561e-06
8.52754e-06
8.56182e-06
9.67953e-06
9.49821e-06
9.60079e-06
9.91469e-06
1.00598e-05
1.00368e-05
9.52726e-06
9.04287e-06
8.49238e-06
8.05265e-06
7.6231e-06
7.63051e-06
7.3099e-06
6.89573e-06
6.3504e-06
5.60043e-06
4.87457e-06
3.94913e-06
4.01715e-06
2.57891e-06
2.28807e-05
1.25743e-05
7.55455e-06
5.81491e-06
7.93341e-06
6.63642e-06
8.86822e-06
7.97787e-06
9.5614e-06
9.02446e-06
1.00825e-05
8.91652e-06
8.90577e-06
9.18398e-06
9.39911e-06
9.31453e-06
8.96457e-06
8.64452e-06
8.12663e-06
7.82064e-06
7.60467e-06
7.77024e-06
7.64543e-06
7.40261e-06
6.94707e-06
6.39443e-06
5.87385e-06
5.49223e-06
6.29792e-06
5.2417e-06
1.01413e-05
7.86559e-06
7.08075e-06
5.9624e-06
7.44892e-06
6.69357e-06
8.33899e-06
7.83479e-06
9.1724e-06
8.89685e-06
9.78733e-06
8.62332e-06
8.96871e-06
9.27281e-06
9.46909e-06
9.27064e-06
9.07802e-06
8.7821e-06
8.37111e-06
8.0951e-06
7.9057e-06
8.13442e-06
8.28899e-06
8.20397e-06
7.71992e-06
7.16905e-06
6.7811e-06
7.07984e-06
8.11295e-06
7.64964e-06
7.62183e-06
9.91685e-06
8.89245e-06
8.07377e-06
9.22575e-06
8.12407e-06
9.37219e-06
8.46436e-06
9.69763e-06
9.22586e-06
1.00632e-05
9.04092e-06
9.36913e-06
9.56321e-06
9.63837e-06
9.30489e-06
9.11354e-06
8.85826e-06
8.63647e-06
8.75853e-06
8.5777e-06
8.84105e-06
8.9446e-06
9.00461e-06
8.58997e-06
8.22844e-06
8.02518e-06
8.65664e-06
9.83026e-06
9.91748e-06
1.09757e-05
1.0974e-05
1.07217e-05
9.15478e-06
9.93749e-06
8.68419e-06
9.6018e-06
8.64487e-06
9.70173e-06
9.26922e-06
1.0091e-05
9.16312e-06
9.35828e-06
9.69715e-06
9.93458e-06
9.39276e-06
9.25437e-06
8.85845e-06
8.97642e-06
9.34278e-06
9.26589e-06
9.3648e-06
9.38843e-06
9.48824e-06
9.21582e-06
9.19657e-06
9.24451e-06
1.01143e-05
1.13128e-05
1.19697e-05
1.27556e-05
1.29542e-05
1.22024e-05
1.10005e-05
1.12713e-05
1.00804e-05
1.05848e-05
9.52392e-06
1.01248e-05
9.6318e-06
1.02103e-05
9.45168e-06
9.7727e-06
1.05041e-05
1.06725e-05
9.91065e-06
9.51612e-06
9.03743e-06
9.07283e-06
9.4967e-06
9.38655e-06
9.58972e-06
9.65063e-06
9.95104e-06
9.94844e-06
1.03147e-05
1.06688e-05
1.17007e-05
1.29186e-05
1.4081e-05
1.55045e-05
1.45798e-05
1.42313e-05
1.25646e-05
1.26206e-05
1.11212e-05
1.13726e-05
9.96665e-06
1.03081e-05
9.495e-06
1.01266e-05
9.62001e-06
1.05165e-05
1.15233e-05
1.1832e-05
1.0812e-05
1.04713e-05
9.75857e-06
9.66511e-06
9.63292e-06
9.4677e-06
9.65326e-06
9.85001e-06
1.03667e-05
1.07518e-05
1.15033e-05
1.21314e-05
1.32287e-05
1.4378e-05
1.59964e-05
1.70385e-05
1.58604e-05
1.53101e-05
1.40298e-05
1.3579e-05
1.21802e-05
1.19392e-05
1.05336e-05
1.04288e-05
9.5471e-06
1.01381e-05
1.02274e-05
1.12737e-05
1.2304e-05
1.24446e-05
1.1462e-05
1.09152e-05
1.02211e-05
9.92093e-06
9.74042e-06
9.46714e-06
9.89545e-06
1.02467e-05
1.11014e-05
1.17889e-05
1.27972e-05
1.36476e-05
1.47431e-05
1.57276e-05
1.76918e-05
1.94784e-05
1.75013e-05
1.71685e-05
1.57137e-05
1.52262e-05
1.34936e-05
1.30517e-05
1.13631e-05
1.1039e-05
9.90329e-06
1.05216e-05
1.05582e-05
1.14177e-05
1.18154e-05
1.21252e-05
1.14646e-05
1.09403e-05
1.03612e-05
1.02658e-05
1.00077e-05
9.81703e-06
1.0338e-05
1.08572e-05
1.18262e-05
1.25689e-05
1.37517e-05
1.48015e-05
1.5839e-05
1.67204e-05
1.90076e-05
2.0719e-05
1.83676e-05
1.77734e-05
1.65419e-05
1.58812e-05
1.45183e-05
1.39325e-05
1.23269e-05
1.17588e-05
1.06412e-05
1.09382e-05
1.07384e-05
1.06421e-05
1.02215e-05
1.01079e-05
9.80756e-06
9.60104e-06
9.67375e-06
9.94305e-06
1.02601e-05
1.03637e-05
1.12158e-05
1.18749e-05
1.30193e-05
1.37632e-05
1.50599e-05
1.61381e-05
1.70064e-05
1.77673e-05
2.0278e-05
2.30539e-05
1.99768e-05
1.93489e-05
1.80621e-05
1.76774e-05
1.6487e-05
1.61244e-05
1.43167e-05
1.33341e-05
1.14341e-05
1.07845e-05
9.73509e-06
8.94903e-06
7.95705e-06
7.73364e-06
7.44307e-06
7.70108e-06
8.49439e-06
9.33377e-06
1.02792e-05
1.09798e-05
1.21781e-05
1.30445e-05
1.44256e-05
1.52462e-05
1.64876e-05
1.73327e-05
1.79835e-05
1.86382e-05
2.13827e-05
2.32567e-05
2.03568e-05
1.98989e-05
1.9094e-05
1.86839e-05
1.76757e-05
1.72608e-05
1.55211e-05
1.42562e-05
1.15489e-05
9.94339e-06
8.21e-06
6.98715e-06
6.1113e-06
5.61632e-06
5.37613e-06
5.89084e-06
6.9893e-06
8.01003e-06
9.6189e-06
1.10719e-05
1.31511e-05
1.43087e-05
1.57374e-05
1.65224e-05
1.76831e-05
1.83433e-05
1.89777e-05
1.97049e-05
2.28588e-05
2.40002e-05
2.07771e-05
2.04867e-05
1.98176e-05
1.94789e-05
1.83627e-05
1.80004e-05
1.65003e-05
1.54237e-05
1.21377e-05
9.79035e-06
7.32482e-06
6.03933e-06
5.01361e-06
4.83652e-06
4.61698e-06
5.33442e-06
6.65681e-06
7.50735e-06
9.46378e-06
1.13068e-05
1.40023e-05
1.54139e-05
1.68413e-05
1.74269e-05
1.85164e-05
1.91539e-05
1.98803e-05
2.06884e-05
2.43055e-05
2.38159e-05
2.06072e-05
2.02336e-05
1.96311e-05
1.92839e-05
1.83357e-05
1.79145e-05
1.66686e-05
1.58237e-05
1.30308e-05
1.09308e-05
8.9129e-06
7.8635e-06
6.32858e-06
5.35513e-06
5.50251e-06
6.5706e-06
7.87589e-06
8.54142e-06
1.03091e-05
1.19127e-05
1.46667e-05
1.62918e-05
1.78381e-05
1.8425e-05
1.94558e-05
2.0097e-05
2.08469e-05
2.16126e-05
2.55508e-05
2.45098e-05
2.09816e-05
2.05382e-05
1.98914e-05
1.95994e-05
1.86531e-05
1.82313e-05
1.68307e-05
1.58155e-05
1.33229e-05
1.1543e-05
9.67774e-06
8.65304e-06
6.87687e-06
5.21974e-06
5.77275e-06
7.05637e-06
8.60151e-06
9.07515e-06
1.07552e-05
1.22226e-05
1.50215e-05
1.64958e-05
1.80526e-05
1.85787e-05
1.96503e-05
2.02591e-05
2.10457e-05
2.16594e-05
2.55218e-05
2.33335e-05
2.01302e-05
1.9626e-05
1.90648e-05
1.87379e-05
1.78775e-05
1.7472e-05
1.63e-05
1.51686e-05
1.26592e-05
1.04027e-05
8.40733e-06
7.4823e-06
6.2058e-06
5.29664e-06
5.76216e-06
6.80957e-06
8.69895e-06
9.40305e-06
1.11298e-05
1.27734e-05
1.54392e-05
1.67489e-05
1.8087e-05
1.86446e-05
1.97521e-05
2.04361e-05
2.11441e-05
2.16481e-05
2.5394e-05
2.29253e-05
1.98514e-05
1.93186e-05
1.86976e-05
1.82991e-05
1.72765e-05
1.67303e-05
1.54185e-05
1.45084e-05
1.24664e-05
1.0914e-05
9.39735e-06
8.32111e-06
7.51121e-06
6.98853e-06
7.06527e-06
7.16076e-06
9.12088e-06
1.04597e-05
1.23512e-05
1.32294e-05
1.53134e-05
1.62675e-05
1.7733e-05
1.83966e-05
1.95366e-05
2.02562e-05
2.11416e-05
2.17999e-05
2.55622e-05
2.17804e-05
1.90924e-05
1.84673e-05
1.77661e-05
1.71891e-05
1.61567e-05
1.54811e-05
1.42361e-05
1.34682e-05
1.23819e-05
1.18404e-05
1.09429e-05
9.88512e-06
9.11844e-06
8.93506e-06
8.81358e-06
8.64603e-06
9.93024e-06
1.12998e-05
1.2712e-05
1.30593e-05
1.41548e-05
1.48701e-05
1.63147e-05
1.70332e-05
1.79984e-05
1.87576e-05
1.9982e-05
2.10624e-05
2.49058e-05
2.09892e-05
1.83024e-05
1.75479e-05
1.66065e-05
1.58564e-05
1.47559e-05
1.41908e-05
1.31648e-05
1.26635e-05
1.19391e-05
1.19886e-05
1.16619e-05
1.11082e-05
1.082e-05
1.08929e-05
1.0804e-05
1.06214e-05
1.12474e-05
1.16263e-05
1.21997e-05
1.20948e-05
1.29013e-05
1.3413e-05
1.46775e-05
1.53219e-05
1.6335e-05
1.71439e-05
1.84449e-05
1.95691e-05
2.31057e-05
1.93854e-05
1.69883e-05
1.63183e-05
1.53212e-05
1.44953e-05
1.3592e-05
1.30744e-05
1.22417e-05
1.17839e-05
1.13477e-05
1.1556e-05
1.15262e-05
1.15561e-05
1.19469e-05
1.2649e-05
1.29474e-05
1.27504e-05
1.24402e-05
1.20875e-05
1.19508e-05
1.1522e-05
1.20218e-05
1.24612e-05
1.35836e-05
1.41933e-05
1.52116e-05
1.59957e-05
1.71525e-05
1.81333e-05
2.09905e-05
1.82177e-05
1.61954e-05
1.56022e-05
1.45591e-05
1.37391e-05
1.29378e-05
1.25081e-05
1.18162e-05
1.14645e-05
1.11171e-05
1.10499e-05
1.06968e-05
1.09745e-05
1.18357e-05
1.28096e-05
1.35167e-05
1.32822e-05
1.21628e-05
1.13677e-05
1.13051e-05
1.10406e-05
1.15302e-05
1.1817e-05
1.26904e-05
1.30906e-05
1.39602e-05
1.45922e-05
1.56995e-05
1.67025e-05
1.90613e-05
1.64609e-05
1.48549e-05
1.40666e-05
1.30776e-05
1.24976e-05
1.1905e-05
1.16289e-05
1.12196e-05
1.10708e-05
1.09401e-05
1.07078e-05
1.00531e-05
1.01396e-05
1.10643e-05
1.20984e-05
1.28224e-05
1.2557e-05
1.1409e-05
1.08315e-05
1.10806e-05
1.09928e-05
1.12691e-05
1.13001e-05
1.1809e-05
1.19599e-05
1.25966e-05
1.31145e-05
1.41819e-05
1.52089e-05
1.70925e-05
1.47648e-05
1.34625e-05
1.24625e-05
1.16401e-05
1.13066e-05
1.09782e-05
1.09553e-05
1.08177e-05
1.08185e-05
1.06694e-05
1.0254e-05
9.54159e-06
9.33189e-06
9.89692e-06
1.07203e-05
1.13224e-05
1.11625e-05
1.05517e-05
1.03108e-05
1.07439e-05
1.0743e-05
1.09837e-05
1.08638e-05
1.11085e-05
1.10227e-05
1.13313e-05
1.16009e-05
1.26085e-05
1.36722e-05
1.51138e-05
1.2415e-05
1.16253e-05
1.06355e-05
1.00791e-05
9.93953e-06
9.84136e-06
1.00467e-05
1.01913e-05
1.04041e-05
1.02572e-05
9.69771e-06
9.11527e-06
9.12344e-06
9.3953e-06
9.87205e-06
1.01777e-05
1.03799e-05
1.02353e-05
1.00428e-05
1.02512e-05
1.03362e-05
1.05915e-05
1.04342e-05
1.0527e-05
1.02623e-05
1.02344e-05
1.01602e-05
1.10516e-05
1.21401e-05
1.31115e-05
1.03247e-05
9.96568e-06
8.92869e-06
8.57828e-06
8.7701e-06
8.99986e-06
9.30301e-06
9.60062e-06
9.9255e-06
9.89636e-06
9.34071e-06
8.81548e-06
8.98601e-06
9.16772e-06
9.26655e-06
9.29756e-06
9.70957e-06
9.85451e-06
9.51442e-06
9.54085e-06
9.55723e-06
9.85413e-06
9.7437e-06
9.77697e-06
9.43708e-06
9.04936e-06
8.74179e-06
9.43415e-06
1.05689e-05
1.10088e-05
8.02689e-06
8.17029e-06
7.05338e-06
6.95615e-06
7.4693e-06
7.90448e-06
8.33214e-06
8.78849e-06
9.19261e-06
9.40058e-06
9.03872e-06
8.76277e-06
9.05233e-06
9.12589e-06
8.98978e-06
8.79064e-06
9.22434e-06
9.36568e-06
9.18007e-06
9.0888e-06
8.95531e-06
9.00805e-06
8.82964e-06
8.74812e-06
8.43008e-06
7.96644e-06
7.49356e-06
7.8203e-06
8.84122e-06
8.73557e-06
5.65521e-06
6.44857e-06
5.44364e-06
5.92406e-06
6.45872e-06
7.06012e-06
7.63656e-06
8.19808e-06
8.71213e-06
8.97732e-06
8.80023e-06
8.69916e-06
8.98335e-06
8.94505e-06
8.81937e-06
8.54865e-06
8.68766e-06
8.86226e-06
8.82698e-06
8.82184e-06
8.45926e-06
8.37096e-06
8.09273e-06
7.96943e-06
7.7073e-06
7.22807e-06
6.63302e-06
6.09631e-06
6.91369e-06
6.12904e-06
3.08512e-06
4.39749e-06
4.26336e-06
5.1351e-06
5.71765e-06
6.55078e-06
7.23225e-06
7.97019e-06
8.66223e-06
9.10245e-06
9.22433e-06
9.21411e-06
9.40982e-06
9.41367e-06
9.52949e-06
9.24494e-06
9.21884e-06
9.27402e-06
9.17091e-06
8.8565e-06
8.19104e-06
7.9378e-06
7.63094e-06
7.44603e-06
7.03077e-06
6.23824e-06
5.49905e-06
4.32784e-06
4.42428e-06
3.1267e-06
1.4536e-06
2.70699e-06
3.65794e-06
4.67791e-06
5.56289e-06
6.548e-06
7.34158e-06
8.20544e-06
9.04243e-06
9.4661e-06
9.6761e-06
9.80205e-06
9.87834e-06
1.0075e-05
1.00143e-05
9.60287e-06
9.60864e-06
9.68141e-06
9.50841e-06
8.80956e-06
7.89055e-06
7.60404e-06
7.21819e-06
6.96437e-06
6.28366e-06
5.17682e-06
4.12253e-06
2.91169e-06
2.21118e-06
1.04356e-06
4.46895e-05
2.63039e-05
1.06509e-05
7.18554e-06
6.61716e-06
6.01962e-06
6.91258e-06
7.3079e-06
8.37183e-06
9.12641e-06
9.82435e-06
1.033e-05
9.83384e-06
1.07423e-05
1.07997e-05
1.094e-05
1.04555e-05
9.53776e-06
9.31091e-06
8.32086e-06
7.98268e-06
7.31604e-06
7.3333e-06
6.73665e-06
6.44326e-06
5.39961e-06
4.65617e-06
3.52178e-06
3.10591e-06
2.16718e-06
2.53229e-05
1.10141e-05
6.18751e-06
3.84199e-06
3.9376e-06
3.1467e-06
3.33686e-06
2.84584e-06
3.58138e-06
4.08249e-06
5.41889e-06
4.94852e-06
4.49489e-06
4.01695e-06
4.25564e-06
4.40285e-06
4.07966e-06
3.99382e-06
3.66809e-06
3.68339e-06
3.41914e-06
4.01794e-06
4.37547e-06
4.87298e-06
4.66507e-06
4.30402e-06
3.65694e-06
3.29388e-06
4.37624e-06
4.05891e-06
1.28497e-05
8.86261e-06
7.12242e-06
5.14374e-06
5.24661e-06
4.10667e-06
4.50773e-06
3.47487e-06
4.29038e-06
5.0891e-06
6.93505e-06
6.91083e-06
5.70273e-06
4.24539e-06
3.98765e-06
3.80998e-06
3.02122e-06
2.56519e-06
2.63043e-06
3.39398e-06
3.63995e-06
4.72024e-06
5.38054e-06
5.63227e-06
5.50757e-06
5.32515e-06
4.42239e-06
4.26753e-06
4.95121e-06
6.34135e-06
8.3118e-06
4.88134e-06
4.33898e-06
3.43248e-06
3.37e-06
3.36904e-06
3.98933e-06
3.97264e-06
4.84547e-06
5.24926e-06
6.46834e-06
6.63326e-06
5.32163e-06
3.76077e-06
3.36049e-06
3.18534e-06
2.87734e-06
2.38556e-06
2.85371e-06
4.07798e-06
4.6973e-06
5.3355e-06
5.03296e-06
5.06593e-06
5.32236e-06
5.47842e-06
4.81727e-06
4.8959e-06
4.72138e-06
8.15166e-06
1.06019e-05
5.58658e-06
5.38098e-06
3.8235e-06
3.12051e-06
2.62863e-06
2.98491e-06
2.92335e-06
3.63144e-06
3.52491e-06
4.20723e-06
4.58457e-06
3.61031e-06
2.70979e-06
2.63688e-06
2.65978e-06
2.6577e-06
2.32433e-06
3.06246e-06
4.3068e-06
4.55461e-06
3.97219e-06
2.95213e-06
3.13795e-06
3.64694e-06
4.35645e-06
4.59516e-06
5.01847e-06
4.4358e-06
9.9143e-06
1.12683e-05
4.27272e-06
4.28709e-06
3.50195e-06
2.50475e-06
2.09117e-06
2.01493e-06
1.84797e-06
2.26287e-06
2.13893e-06
2.8631e-06
3.43388e-06
3.19156e-06
2.58634e-06
2.62059e-06
2.75303e-06
2.91134e-06
2.89118e-06
3.5987e-06
3.97444e-06
3.4325e-06
2.45752e-06
1.63592e-06
2.00022e-06
2.41947e-06
3.47382e-06
4.25425e-06
4.89334e-06
4.18962e-06
1.13916e-05
1.31205e-05
4.51434e-06
4.88513e-06
3.99715e-06
3.33021e-06
2.5954e-06
2.359e-06
1.78088e-06
1.83308e-06
1.70721e-06
2.46289e-06
3.1879e-06
3.14948e-06
2.63698e-06
2.79235e-06
2.845e-06
3.12549e-06
3.49014e-06
3.90556e-06
3.27313e-06
2.36746e-06
1.85681e-06
1.48975e-06
1.79774e-06
2.22805e-06
3.44278e-06
4.24688e-06
4.77638e-06
4.17528e-06
1.29647e-05
1.45648e-05
3.97623e-06
4.40136e-06
4.16042e-06
3.6265e-06
2.89638e-06
2.53219e-06
2.00128e-06
1.98364e-06
1.90995e-06
2.55632e-06
3.02858e-06
2.98879e-06
2.37042e-06
2.65988e-06
2.6516e-06
2.9384e-06
3.63312e-06
3.71058e-06
2.83545e-06
1.9535e-06
1.87714e-06
1.65428e-06
2.02378e-06
2.57988e-06
3.70246e-06
4.2852e-06
4.66337e-06
4.16453e-06
1.43839e-05
1.5791e-05
3.9988e-06
4.09523e-06
4.29013e-06
4.15482e-06
3.46879e-06
3.06076e-06
2.55718e-06
2.61704e-06
2.56981e-06
2.95394e-06
2.70144e-06
2.08254e-06
1.84761e-06
2.62199e-06
2.37561e-06
1.89477e-06
2.87891e-06
3.15768e-06
2.84805e-06
2.26487e-06
2.31871e-06
2.12584e-06
2.54782e-06
3.00774e-06
3.81582e-06
4.07476e-06
4.21354e-06
3.94168e-06
1.57732e-05
1.73076e-05
3.65771e-06
3.43711e-06
3.72535e-06
3.82183e-06
3.59278e-06
3.39355e-06
3.06128e-06
3.25712e-06
3.23623e-06
3.40728e-06
2.46772e-06
1.46621e-06
2.53335e-06
3.41881e-06
2.69672e-06
1.3234e-06
1.242e-06
2.42177e-06
3.01191e-06
2.71652e-06
2.82264e-06
2.67026e-06
3.00407e-06
3.1412e-06
3.56042e-06
3.52726e-06
3.43528e-06
3.50952e-06
1.68967e-05
1.84003e-05
3.78562e-06
3.14273e-06
3.31008e-06
3.33971e-06
3.58823e-06
3.70291e-06
3.60686e-06
3.86919e-06
3.72959e-06
3.57197e-06
2.22164e-06
2.20059e-06
3.75213e-06
4.51583e-06
4.15966e-06
3.22811e-06
1.00014e-06
1.69805e-06
3.11059e-06
3.25615e-06
3.50588e-06
3.34239e-06
3.54019e-06
3.46094e-06
3.51503e-06
3.21017e-06
2.98772e-06
3.18581e-06
1.78304e-05
1.99998e-05
3.70731e-06
3.0234e-06
3.06161e-06
3.12595e-06
3.52604e-06
3.76101e-06
3.94823e-06
4.50257e-06
4.39309e-06
3.4174e-06
2.23153e-06
2.77396e-06
3.28554e-06
3.62396e-06
3.5777e-06
3.01879e-06
1.89154e-06
1.64877e-06
3.02614e-06
3.75437e-06
4.05505e-06
3.84035e-06
3.74645e-06
3.54932e-06
3.43564e-06
2.99003e-06
2.87951e-06
2.99771e-06
1.86052e-05
2.01779e-05
3.38284e-06
2.59168e-06
2.67962e-06
2.64565e-06
2.94932e-06
3.08025e-06
3.57612e-06
4.36571e-06
4.07938e-06
2.42675e-06
2.93996e-06
3.37147e-06
3.25647e-06
3.0984e-06
2.91379e-06
2.70924e-06
2.2809e-06
1.95189e-06
2.28957e-06
3.62005e-06
4.05955e-06
3.65432e-06
3.27213e-06
2.97212e-06
2.87231e-06
2.59804e-06
2.73626e-06
3.0466e-06
1.97605e-05
2.07378e-05
2.87043e-06
2.03236e-06
2.11542e-06
2.13221e-06
2.19996e-06
2.26179e-06
3.02264e-06
3.8781e-06
3.69934e-06
3.13154e-06
3.41797e-06
3.11255e-06
2.82661e-06
2.33568e-06
2.01858e-06
1.65587e-06
1.87745e-06
1.90659e-06
2.11393e-06
2.93246e-06
3.60739e-06
3.28258e-06
2.75801e-06
2.47505e-06
2.42957e-06
2.356e-06
2.55889e-06
3.09105e-06
2.08026e-05
2.05748e-05
2.98768e-06
2.02348e-06
2.00099e-06
1.98997e-06
2.10628e-06
2.12452e-06
2.74222e-06
3.15112e-06
3.4735e-06
3.38898e-06
3.1344e-06
2.58262e-06
2.10432e-06
2.18718e-06
2.15492e-06
2.05121e-06
2.35418e-06
2.29409e-06
2.73731e-06
3.28574e-06
3.49579e-06
3.00283e-06
2.38198e-06
2.22945e-06
2.19586e-06
2.19473e-06
2.35717e-06
3.09018e-06
2.16626e-05
2.10475e-05
3.14223e-06
2.21529e-06
2.09687e-06
2.11932e-06
2.31736e-06
2.38379e-06
2.80541e-06
3.08922e-06
3.27273e-06
2.51435e-06
1.63985e-06
1.38504e-06
1.59933e-06
2.28957e-06
2.44346e-06
2.32886e-06
2.52518e-06
2.7086e-06
3.11951e-06
3.40474e-06
3.32235e-06
2.70428e-06
1.9351e-06
1.80481e-06
1.86197e-06
1.94571e-06
2.03814e-06
2.72587e-06
2.16164e-05
2.0301e-05
3.16076e-06
2.49059e-06
2.32303e-06
2.37714e-06
2.53817e-06
2.64288e-06
3.12066e-06
3.45062e-06
3.0365e-06
2.15158e-06
1.89523e-06
1.73069e-06
2.00728e-06
2.70107e-06
2.66783e-06
2.52307e-06
2.71562e-06
2.70305e-06
2.44506e-06
2.8237e-06
3.57772e-06
2.93844e-06
2.07554e-06
1.90978e-06
2.03575e-06
2.25362e-06
2.20835e-06
2.70922e-06
2.15932e-05
2.00003e-05
3.11045e-06
2.76849e-06
2.56407e-06
2.71275e-06
2.85221e-06
3.05231e-06
3.36745e-06
3.71367e-06
3.32642e-06
2.42328e-06
2.16175e-06
2.33785e-06
2.78134e-06
3.34596e-06
3.34987e-06
3.55616e-06
3.34897e-06
2.49724e-06
1.42465e-06
3.45267e-06
4.38727e-06
3.63608e-06
3.04999e-06
2.78414e-06
2.70684e-06
2.91257e-06
2.84428e-06
3.17549e-06
2.15728e-05
1.902e-05
3.37651e-06
3.27649e-06
3.25711e-06
3.55138e-06
3.5953e-06
3.62776e-06
3.6235e-06
3.83012e-06
3.65376e-06
3.35839e-06
2.06427e-06
1.84564e-06
2.76783e-06
3.6213e-06
3.60452e-06
3.48614e-06
2.83429e-06
1.49686e-06
2.13984e-06
3.85338e-06
4.612e-06
4.01968e-06
3.65174e-06
3.38212e-06
3.34179e-06
3.52674e-06
3.54646e-06
3.71823e-06
2.10498e-05
1.83706e-05
3.49536e-06
3.31654e-06
3.57803e-06
3.84906e-06
3.48211e-06
3.26722e-06
3.02689e-06
3.30571e-06
3.16299e-06
3.34408e-06
1.97273e-06
6.97101e-07
2.51328e-06
3.83474e-06
4.03331e-06
3.74785e-06
1.97805e-06
9.72171e-07
2.74091e-06
3.40757e-06
3.94945e-06
3.52047e-06
3.44725e-06
3.34731e-06
3.59178e-06
3.65637e-06
3.52335e-06
3.74924e-06
1.97814e-05
1.72674e-05
3.84311e-06
3.51867e-06
3.97232e-06
4.18436e-06
3.36722e-06
2.92706e-06
2.56135e-06
2.81207e-06
2.77596e-06
3.2364e-06
2.68549e-06
1.71643e-06
8.59218e-07
2.33816e-06
3.0522e-06
2.71786e-06
6.5063e-07
1.97966e-06
3.22986e-06
3.13598e-06
3.35659e-06
3.01106e-06
3.2369e-06
3.45917e-06
4.09765e-06
4.06175e-06
3.86475e-06
3.81083e-06
1.80913e-05
1.62271e-05
3.99236e-06
4.08056e-06
4.44985e-06
4.21889e-06
3.18862e-06
2.72142e-06
2.1765e-06
2.33842e-06
2.36243e-06
3.06261e-06
3.2945e-06
3.00568e-06
2.06001e-06
2.1562e-06
2.33466e-06
1.84856e-06
2.24031e-06
2.8298e-06
3.09046e-06
2.54667e-06
2.67766e-06
2.4119e-06
2.81391e-06
3.15027e-06
4.10406e-06
4.37741e-06
4.34075e-06
3.85751e-06
1.65875e-05
1.48546e-05
4.0623e-06
4.69128e-06
4.58371e-06
3.9368e-06
2.88871e-06
2.47084e-06
1.86073e-06
2.06597e-06
2.14594e-06
2.95436e-06
3.45513e-06
3.32681e-06
3.11364e-06
3.24011e-06
3.33298e-06
2.54068e-06
3.223e-06
3.67443e-06
3.33147e-06
2.28328e-06
2.23683e-06
1.98125e-06
2.42368e-06
2.67744e-06
3.83759e-06
4.47711e-06
4.66167e-06
4.03543e-06
1.51699e-05
1.36118e-05
4.08255e-06
4.7699e-06
4.05517e-06
3.3893e-06
2.54567e-06
2.32145e-06
1.73817e-06
1.94038e-06
2.15597e-06
3.09242e-06
3.25564e-06
2.97926e-06
3.46195e-06
3.66654e-06
3.51305e-06
2.85958e-06
3.77552e-06
4.33731e-06
4.2448e-06
2.95848e-06
2.20156e-06
1.746e-06
2.11997e-06
2.27649e-06
3.43464e-06
4.36001e-06
4.83058e-06
4.10755e-06
1.37094e-05
1.18063e-05
4.18227e-06
4.71745e-06
3.65132e-06
2.98274e-06
2.34921e-06
2.57277e-06
2.26041e-06
2.39686e-06
2.55717e-06
3.3305e-06
2.96829e-06
2.51458e-06
3.42187e-06
3.73591e-06
3.44588e-06
3.10083e-06
3.7465e-06
4.43771e-06
5.05953e-06
4.22951e-06
3.09903e-06
2.26353e-06
2.51684e-06
2.68308e-06
3.77478e-06
4.53733e-06
5.21978e-06
4.40707e-06
1.223e-05
1.0252e-05
4.18097e-06
4.5176e-06
3.42709e-06
2.99991e-06
2.74808e-06
3.19151e-06
3.16907e-06
3.54072e-06
3.56399e-06
3.68761e-06
2.57042e-06
2.23652e-06
3.29245e-06
3.81018e-06
3.57132e-06
3.20821e-06
3.51843e-06
4.15991e-06
5.19947e-06
5.15126e-06
4.65657e-06
3.81923e-06
3.92885e-06
4.14169e-06
4.85251e-06
4.84215e-06
5.41669e-06
4.77983e-06
1.06663e-05
8.6029e-06
4.45085e-06
4.52216e-06
3.66972e-06
3.92496e-06
3.97302e-06
4.37597e-06
4.4811e-06
5.11632e-06
5.2644e-06
4.81959e-06
2.83349e-06
2.34457e-06
3.49523e-06
4.42956e-06
4.1477e-06
3.88998e-06
4.27796e-06
4.68834e-06
5.48191e-06
5.60115e-06
5.98672e-06
5.90744e-06
6.16982e-06
6.13542e-06
6.11061e-06
5.12178e-06
5.34482e-06
5.2012e-06
8.91969e-06
7.00668e-06
4.94379e-06
4.46543e-06
4.20844e-06
4.53768e-06
4.39186e-06
4.59592e-06
4.66153e-06
5.31217e-06
5.71478e-06
5.40818e-06
3.44921e-06
2.75255e-06
3.7433e-06
4.48005e-06
4.04911e-06
3.85729e-06
4.39487e-06
4.57173e-06
4.72261e-06
4.50771e-06
5.13452e-06
5.61151e-06
6.35816e-06
6.17713e-06
5.77872e-06
4.56293e-06
4.47738e-06
5.29409e-06
7.01284e-06
4.88776e-06
4.92457e-06
3.97516e-06
4.25618e-06
4.31807e-06
4.20813e-06
4.47963e-06
4.65313e-06
5.26483e-06
5.69373e-06
5.70836e-06
4.70867e-06
4.42928e-06
4.20237e-06
4.05215e-06
3.48725e-06
3.62332e-06
4.06459e-06
4.01534e-06
4.0423e-06
3.65646e-06
4.15402e-06
4.29299e-06
4.94007e-06
4.7817e-06
4.41272e-06
3.69852e-06
3.39799e-06
4.54466e-06
4.50812e-06
3.10444e-06
4.06597e-06
4.41943e-06
5.29089e-06
5.79329e-06
6.7526e-06
7.32922e-06
8.60269e-06
9.25735e-06
1.04739e-05
1.02401e-05
1.04363e-05
9.81431e-06
1.00024e-05
9.80399e-06
9.54727e-06
9.62573e-06
9.41169e-06
9.68119e-06
8.92484e-06
8.48606e-06
7.67776e-06
7.48768e-06
6.98021e-06
6.73601e-06
5.66346e-06
4.898e-06
3.62546e-06
3.22238e-06
2.36963e-06
2.83677e-05
1.10722e-05
1.05351e-05
5.83573e-06
6.91524e-06
5.97143e-06
7.93684e-06
7.80752e-06
9.29666e-06
8.53772e-06
9.69591e-06
8.06939e-06
8.3609e-06
7.55816e-06
8.17935e-06
8.57803e-06
8.05771e-06
8.87064e-06
7.76494e-06
8.52003e-06
6.61036e-06
7.46202e-06
6.59152e-06
7.71829e-06
6.85609e-06
6.52619e-06
5.30757e-06
4.285e-06
3.36928e-06
2.9333e-06
1.06406e-05
5.90362e-06
1.10981e-06
3.57942e-06
3.58031e-06
3.15609e-06
3.72411e-06
3.65572e-06
4.42797e-06
4.47941e-06
4.52757e-06
4.11373e-06
2.93064e-06
2.84876e-06
3.03287e-06
2.87717e-06
3.39675e-06
3.49525e-06
3.60101e-06
2.78838e-06
2.10189e-06
2.58849e-06
3.53032e-06
3.91812e-06
3.63747e-06
2.96651e-06
2.83561e-06
2.92029e-06
3.50497e-06
3.96555e-06
7.12555e-06
6.73862e-06
6.17898e-06
5.43027e-06
5.74776e-06
3.93699e-06
3.88618e-06
3.39898e-06
4.70046e-06
5.74216e-06
6.47428e-06
6.35527e-06
5.23556e-06
4.4148e-06
3.95884e-06
3.82283e-06
4.17683e-06
3.61657e-06
3.70486e-06
3.11619e-06
2.92379e-06
3.69763e-06
5.28403e-06
5.79062e-06
4.60566e-06
3.39294e-06
3.50833e-06
4.54147e-06
4.32766e-06
5.69196e-06
8.47014e-06
3.96002e-06
4.49708e-06
5.27315e-06
5.35121e-06
4.51205e-06
3.65458e-06
3.00033e-06
3.53624e-06
5.19199e-06
7.24218e-06
7.9941e-06
7.15729e-06
5.98374e-06
5.09114e-06
4.77064e-06
4.35662e-06
3.33691e-06
3.78105e-06
3.52016e-06
3.25113e-06
5.0813e-06
6.99112e-06
7.02547e-06
5.7468e-06
4.23152e-06
4.23258e-06
4.92481e-06
4.61317e-06
7.39944e-06
9.74846e-06
4.79809e-06
4.52801e-06
5.65705e-06
5.52164e-06
4.77191e-06
4.27612e-06
3.80314e-06
4.02537e-06
5.33536e-06
7.79287e-06
8.4657e-06
6.8463e-06
5.60928e-06
4.82093e-06
4.48536e-06
3.71257e-06
2.88383e-06
3.76333e-06
4.1196e-06
5.26343e-06
6.53764e-06
7.03111e-06
6.75583e-06
6.18252e-06
4.99993e-06
4.94775e-06
4.45099e-06
4.67867e-06
9.03754e-06
1.16678e-05
3.67681e-06
3.75601e-06
4.63736e-06
3.90983e-06
2.86396e-06
2.51517e-06
2.22729e-06
2.39299e-06
3.31522e-06
5.27264e-06
5.84748e-06
4.5634e-06
3.75582e-06
2.98121e-06
2.97861e-06
2.6214e-06
2.54645e-06
3.38765e-06
4.21604e-06
4.7288e-06
4.49719e-06
4.00604e-06
4.18038e-06
4.82044e-06
5.02099e-06
5.15833e-06
3.85715e-06
4.6338e-06
1.04943e-05
1.28033e-05
3.9907e-06
3.60048e-06
4.3312e-06
3.74367e-06
2.67352e-06
2.21828e-06
1.70989e-06
1.63905e-06
2.22851e-06
3.51311e-06
4.45036e-06
3.62118e-06
3.09534e-06
2.28322e-06
2.49483e-06
2.52038e-06
2.69383e-06
3.72937e-06
3.91209e-06
3.2368e-06
2.35264e-06
1.8995e-06
2.4776e-06
3.963e-06
4.87556e-06
4.79286e-06
3.32678e-06
4.60779e-06
1.19774e-05
1.41918e-05
3.53559e-06
2.91924e-06
4.05413e-06
4.0118e-06
3.19853e-06
2.47002e-06
1.85283e-06
1.51987e-06
1.77249e-06
2.62262e-06
3.92553e-06
3.48421e-06
3.29596e-06
2.08711e-06
2.11063e-06
2.19134e-06
2.89857e-06
3.81053e-06
3.1186e-06
2.04762e-06
1.50948e-06
1.54982e-06
2.36428e-06
3.79854e-06
4.4931e-06
4.25241e-06
3.1913e-06
4.51272e-06
1.34044e-05
1.49372e-05
3.75738e-06
2.32645e-06
3.34131e-06
3.795e-06
3.63449e-06
2.95441e-06
2.301e-06
1.92344e-06
2.11726e-06
2.46565e-06
3.47428e-06
3.50361e-06
3.52682e-06
2.24599e-06
2.25953e-06
2.33082e-06
2.47803e-06
3.05878e-06
2.44387e-06
1.93728e-06
1.70283e-06
2.01628e-06
2.74567e-06
3.62748e-06
3.89769e-06
3.79547e-06
3.12883e-06
4.22207e-06
1.48889e-05
1.62613e-05
3.57026e-06
2.03589e-06
2.24098e-06
2.76204e-06
3.26286e-06
3.24505e-06
2.80248e-06
2.32428e-06
2.50423e-06
2.52266e-06
3.2819e-06
3.03294e-06
2.86084e-06
2.38442e-06
2.09664e-06
2.69031e-06
2.28507e-06
2.23677e-06
1.95485e-06
2.10417e-06
2.06434e-06
2.47119e-06
2.9949e-06
3.17769e-06
3.17773e-06
3.06079e-06
2.56753e-06
3.68712e-06
1.62683e-05
1.71796e-05
3.77543e-06
1.93511e-06
1.97421e-06
1.9968e-06
2.55095e-06
2.94604e-06
2.98664e-06
2.58173e-06
2.75426e-06
3.10874e-06
4.02159e-06
3.43971e-06
4.03367e-06
4.15171e-06
3.53611e-06
3.68333e-06
3.10298e-06
3.11478e-06
2.64214e-06
2.68939e-06
2.67328e-06
2.9006e-06
2.98877e-06
2.74372e-06
2.66776e-06
2.5221e-06
2.11281e-06
3.14823e-06
1.73458e-05
1.90263e-05
3.45328e-06
2.03883e-06
1.97056e-06
1.74123e-06
1.98953e-06
2.48854e-06
2.84129e-06
2.65738e-06
3.44266e-06
4.33506e-06
4.0022e-06
3.84264e-06
4.80033e-06
5.08744e-06
5.05651e-06
4.47122e-06
3.29946e-06
3.52769e-06
3.59135e-06
3.29095e-06
2.90712e-06
2.77855e-06
2.56458e-06
2.32775e-06
2.36652e-06
2.24915e-06
1.91494e-06
2.62735e-06
1.81586e-05
1.93706e-05
2.88535e-06
1.70548e-06
1.98365e-06
1.76231e-06
1.61489e-06
1.93884e-06
2.89622e-06
2.66569e-06
3.65302e-06
4.49227e-06
4.04926e-06
5.18345e-06
5.95527e-06
6.02068e-06
5.81669e-06
5.43443e-06
4.24434e-06
3.62573e-06
3.73837e-06
3.57716e-06
2.615e-06
2.33135e-06
2.04195e-06
1.74014e-06
1.74068e-06
1.70611e-06
1.47698e-06
2.52203e-06
1.92627e-05
2.01742e-05
2.35679e-06
7.93393e-07
1.11008e-06
1.15568e-06
8.99286e-07
1.42554e-06
2.78935e-06
3.02553e-06
3.22071e-06
3.27324e-06
4.42289e-06
5.12529e-06
6.0747e-06
6.07298e-06
5.868e-06
5.41043e-06
4.47352e-06
4.17034e-06
2.78522e-06
3.04343e-06
2.48554e-06
1.76501e-06
1.39304e-06
1.24291e-06
1.15891e-06
1.06675e-06
9.17437e-07
2.48035e-06
2.01624e-05
1.98559e-05
2.54413e-06
5.67865e-07
4.4131e-07
5.80924e-07
6.05073e-07
1.06613e-06
1.68784e-06
2.58032e-06
3.15454e-06
3.49905e-06
4.27038e-06
3.7873e-06
4.60462e-06
5.35681e-06
5.53723e-06
4.80606e-06
4.28705e-06
4.39339e-06
3.75312e-06
3.58744e-06
2.8362e-06
1.80571e-06
1.22832e-06
1.1381e-06
1.00822e-06
8.24783e-07
8.44301e-07
2.4539e-06
2.08911e-05
2.02948e-05
2.79569e-06
6.76915e-07
3.7791e-07
6.31756e-07
9.78728e-07
1.11231e-06
1.49256e-06
2.56616e-06
3.3764e-06
3.47588e-06
3.84526e-06
3.35535e-06
4.38781e-06
5.43944e-06
5.60003e-06
4.85525e-06
4.36986e-06
4.77501e-06
4.07124e-06
3.59969e-06
2.93487e-06
1.60804e-06
9.83774e-07
8.75044e-07
7.41129e-07
7.3126e-07
6.45756e-07
2.17289e-06
2.08882e-05
1.96847e-05
2.99623e-06
8.95049e-07
9.83775e-07
9.93413e-07
1.29395e-06
1.26358e-06
1.49794e-06
2.29041e-06
2.86861e-06
2.84448e-06
3.96976e-06
4.06747e-06
5.05659e-06
5.70232e-06
5.84186e-06
5.53743e-06
4.67105e-06
4.40637e-06
2.76489e-06
3.39144e-06
2.89009e-06
1.72409e-06
1.22659e-06
8.07536e-07
6.42545e-07
1.24424e-06
1.19315e-06
2.16772e-06
2.0936e-05
1.95464e-05
3.01993e-06
1.4619e-06
1.6411e-06
1.4723e-06
1.57648e-06
1.82299e-06
1.92258e-06
2.14455e-06
3.25615e-06
3.88402e-06
3.71916e-06
4.13271e-06
5.14583e-06
5.85501e-06
6.12188e-06
5.59942e-06
4.43084e-06
3.48363e-06
2.94806e-06
3.69956e-06
2.69817e-06
2.40512e-06
2.12159e-06
1.56541e-06
1.5712e-06
2.28489e-06
2.21917e-06
2.82799e-06
2.06913e-05
1.83675e-05
3.25489e-06
2.02073e-06
2.21656e-06
2.42213e-06
2.63181e-06
2.7016e-06
2.55075e-06
2.49267e-06
2.9667e-06
3.65943e-06
3.5116e-06
3.00794e-06
4.07181e-06
5.08133e-06
5.59437e-06
4.60256e-06
3.41237e-06
2.90523e-06
3.1593e-06
3.28566e-06
3.03408e-06
2.65535e-06
2.49481e-06
2.21453e-06
2.15581e-06
2.63131e-06
2.53993e-06
3.54606e-06
1.99404e-05
1.75383e-05
3.45119e-06
2.1751e-06
2.28693e-06
3.00606e-06
3.30159e-06
2.87401e-06
2.40039e-06
2.19284e-06
2.25178e-06
2.45574e-06
3.09899e-06
2.6268e-06
3.1742e-06
3.79338e-06
4.76117e-06
4.19065e-06
3.21627e-06
2.96603e-06
2.61839e-06
2.77239e-06
2.86935e-06
2.81351e-06
2.93403e-06
3.04437e-06
2.71732e-06
2.46852e-06
2.26439e-06
3.82648e-06
1.85674e-05
1.63848e-05
3.97687e-06
2.7014e-06
2.62768e-06
3.74368e-06
4.00644e-06
3.03846e-06
2.17628e-06
1.85689e-06
1.8314e-06
1.89919e-06
2.59425e-06
2.73582e-06
3.15339e-06
2.2876e-06
2.7085e-06
2.56318e-06
2.97436e-06
2.78576e-06
2.39067e-06
2.61016e-06
2.55267e-06
2.66962e-06
3.30858e-06
4.02039e-06
3.75527e-06
2.8034e-06
2.29952e-06
3.85231e-06
1.68611e-05
1.52771e-05
4.09453e-06
2.82069e-06
3.46264e-06
4.46225e-06
4.01774e-06
2.87468e-06
2.03651e-06
1.63404e-06
1.69223e-06
2.32433e-06
3.2662e-06
2.73174e-06
2.94321e-06
3.41705e-06
3.54193e-06
3.40859e-06
3.82944e-06
3.60615e-06
2.78205e-06