/*--------------------------------*- C++ -*----------------------------------*\
| =========                 |                                                 |
| \\      /  F ield         | OpenFOAM: The Open Source CFD Toolbox           |
|  \\    /   O peration     | Version:  v1906                                 |
|   \\  /    A nd           | Web:      www.OpenFOAM.com                      |
|    \\/     M anipulation  |                                                 |
\*---------------------------------------------------------------------------*/
FoamFile
{
    version     2.0;
    format      ascii;
    class       volScalarField;
    location    "0.95/oil";
    object      heatTransferCoeff(T);
}
// * * * * * * * * * * * * * * * * * * * * * * * * * * * * * * * * * * * * * //

dimensions      [1 0 -3 -1 0 0 0];


internalField   uniform 0;

boundaryField
{
    maxY
    {
        type            calculated;
        value           uniform 0;
    }
    minX
    {
        type            calculated;
        value           uniform 0;
    }
    maxX
    {
        type            calculated;
        value           uniform 0;
    }
    minY
    {
        type            calculated;
        value           uniform 0;
    }
    minZ
    {
        type            calculated;
        value           uniform 0;
    }
    maxZ
    {
        type            calculated;
        value           uniform 0;
    }
    oil_to_sphere
    {
        type            calculated;
        value           nonuniform List<scalar> 
1536
(
-2385.26
-2232.77
-2136.56
-2489.61
-2262.45
-2307.09
-2233.77
-1836.06
-1627.84
-1998.46
-2274.8
-2016.01
-2155.9
-1995.46
-2620.54
-2338.19
-1869.88
-1605.92
-1015.88
-2132.19
-2067.72
-2362.94
-2211.97
-2361.33
-2475.66
-2479.14
-2483.84
-2370.76
-2185.17
-2357.25
-2121.7
-1870.34
-1792.87
-2499.95
-2362.32
-2331.79
-2211.71
-2504.47
-2417.17
-2498.9
-2437.62
-2340.36
-2321.28
-2100.6
-2277.85
-2071.04
-2165.59
-2202.55
-2659.13
-2237.58
-2344.42
-2167.96
-2186.9
-2187.23
-1860.03
-1629.91
-2290.17
-2243.01
-1609.41
-1411.75
-1326.91
-1416.07
-1324.34
-1272.77
-1299.04
-2066.94
-2287.93
-1960.44
-2445.31
-2259.81
-2509.6
-2328.22
-2554.59
-2438.34
-2369.96
-1812.35
-1557.21
-1842.52
-2339.13
-1564.43
-1425.2
-1320.98
-1321.21
-1316.83
-1261.61
-1376.3
-1300.48
-1832.75
-1645.65
-1408.91
-1301.04
-969.458
-992.104
-1277.12
-1300.26
-2078.85
-2305.04
-1848.66
-2000.77
-2403.45
-2303.19
-2502.13
-2235.54
-2205.34
-2295.8
-2445.97
-2386.84
-1880.19
-2149.81
-1772.54
-1631.49
-1855.46
-1429.9
-1379.23
-1330.81
-1305.69
-1333.84
-1278.47
-1298.24
-1348.34
-1551.45
-1301.33
-987.982
-2053.77
-2386.54
-2337.29
-2455.15
-2217.05
-2233.29
-2373.2
-2188.23
-2353.17
-2203.53
-2340.26
-2187.53
-2409.18
-2214.77
-1638.55
-2174.82
-2274.39
-1392.09
-1330.07
-1878.29
-1564.55
-1290.62
-1578.05
-2391.28
-1875.44
-1606.26
-2543.2
-2527.36
-1822.41
-2336.9
-2326.19
-2346.47
-1541.38
-2014.54
-1409.77
-2373.99
-1699.5
-2396.72
-1864.85
-2518.1
-2478.89
-2337.37
-2218.55
-2371.77
-1489.02
-1953.66
-1414.23
-2155.61
-2067.81
-2091.82
-1914
-1681.61
-1491.99
-2314.09
-1848.06
-1961.23
-2393.62
-2515.81
-2460.9
-2268.02
-2485.75
-1470.38
-1987.26
-1369.78
-2190.01
-2113.44
-2248.12
-2275.63
-2460.86
-1978.28
-2357.17
-2282.89
-2094.47
-2021.67
-2219.41
-1637.61
-2178.07
-2167.23
-2272.28
-1763.79
-1457.3
-1549.54
-1607.58
-1656.15
-1585.83
-1767.91
-1387.92
-1798.67
-1586.59
-1616.73
-1736.49
-2179.6
-2084.02
-1732.68
-2001.96
-2105.07
-1704.9
-1927.32
-2251.27
-2180.31
-1950.01
-1909.51
-1952.78
-2477.13
-1975.5
-2493.19
-2589.86
-2305.95
-2025.18
-2382.99
-1610.49
-1448.46
-1855
-1487.05
-1522.73
-1494.37
-1704.85
-1656.29
-851.227
-1190.66
-2128.27
-1766.02
-2291.04
-2270.36
-1932.55
-2158.46
-1671.35
-2253.54
-2634.83
-2307.12
-2417
-1832.7
-2222.52
-2327.72
-1781.92
-1583.52
-1605.61
-1827.26
-1304.09
-1559.83
-1183.38
-800.206
-1153.04
-1188.67
-902.378
-2210.7
-1987.83
-2212.09
-2046.58
-2032.18
-2284.1
-2227.2
-2014.84
-2083.63
-1701.78
-2238.02
-1942.19
-2419.12
-2364.61
-2189.85
-2041.82
-2264.67
-2310.88
-2241.18
-2214.52
-2089.79
-2100.93
-2377.59
-1558.85
-2198.71
-1526.44
-1590.19
-1648.62
-1635.05
-1507.45
-1702.89
-1682.74
-1893.94
-1825.48
-1657.96
-1639.6
-1567.89
-2469.03
-1598.65
-2451.19
-2271.33
-1409.96
-1938.29
-1323.07
-2236.46
-2207.88
-2237.54
-2095.58
-2319.32
-2297.42
-2410.91
-1957.63
-2268.72
-2127.79
-2146.55
-2502.63
-2273.05
-2075.75
-2217.92
-1957.81
-2293.29
-1935.35
-2065.53
-1889.32
-2458.5
-2170.1
-2039.45
-2375.66
-2000.89
-2252.53
-2314.44
-1859.97
-1639.83
-2187.62
-2030.53
-2128.79
-2067.13
-2063.3
-2131
-2137.96
-2094.68
-2339.96
-2369.66
-2460.3
-2153.8
-2393.03
-2080.54
-2259.97
-2243.96
-2130.05
-2420.53
-2091.9
-2417.62
-2255.78
-2128.25
-2412.6
-2179.54
-2240.24
-2365.14
-2310.71
-2319.27
-2229.94
-2029.7
-2473.05
-2297.38
-2186.53
-2454.37
-2150.91
-2309.89
-2190.44
-2169.71
-1515.43
-2122.64
-1624.29
-2023.64
-1648.97
-1720.32
-2216.87
-2199.35
-1554.89
-2076.25
-1762.38
-1940.18
-1721.73
-1539.18
-1703.95
-1740.85
-1495.62
-2083.18
-1521.47
-2061.81
-1670.79
-2213.39
-2189.88
-1474.17
-2351.71
-1869.3
-1629.37
-2081.19
-1628.81
-2006.37
-1732.94
-1632.29
-1612.79
-1627.93
-1709.24
-1610.52
-1552.91
-1620.23
-1610.95
-1770.33
-1622.93
-1621.47
-1630.94
-1530.53
-1319.08
-1710.03
-1466.14
-1447.99
-1559.33
-1274.4
-1403.92
-1765.86
-1520.74
-1566.01
-1561.43
-1583.05
-1531.1
-1589.4
-1246.07
-1136.45
-1347.34
-1367.4
-1626.81
-1487.23
-1428.36
-1445.69
-1701
-1606.46
-1751.41
-1829
-1641.57
-1757.49
-1751.33
-1594.78
-1936.33
-1722.24
-1637.72
-1983.33
-1657.22
-1688.65
-1927.89
-1484.69
-1682.21
-1667.11
-1879.27
-1939.56
-2247.78
-2184.72
-2019.52
-2092.64
-2340.19
-2234.53
-2146.21
-2308.67
-1851.29
-2420.57
-2217.35
-2391.59
-2054.91
-2445.02
-2162.48
-1977.57
-2272.56
-2316.22
-1920.36
-2285.71
-2441
-2194.25
-2227.36
-1838.24
-2420
-1720.58
-2370.81
-2439.22
-2538.58
-2594.83
-2740.12
-2361.06
-2422.99
-2400.18
-2490.05
-2478.59
-1588.94
-2448.97
-2250.75
-1473.11
-1390.56
-1991.42
-2207.89
-2327.54
-1441.6
-1980.2
-2111.4
-2320.42
-2225.15
-1982.92
-1567.54
-1369.41
-1612.4
-1446.73
-1364.6
-1773.5
-1608.61
-1448.77
-1596.28
-1578.59
-1217.68
-1422.72
-1458.01
-1139.97
-1433.26
-1189.33
-1515.88
-1147.81
-1574.65
-1411.77
-1453.84
-1512.48
-1734.66
-1569.01
-1520.16
-1314.76
-1668.92
-1534.96
-1367.72
-1763.86
-1652.98
-1537.44
-1816.47
-1589.03
-1574.11
-1545.26
-1220.52
-1416.45
-1577.12
-868.885
-1182.87
-921.128
-1155.53
-1125.38
-1111.25
-1153.23
-1151.81
-1166.91
-1975.16
-1494.06
-1697.5
-1680.26
-1490.5
-2006.12
-1508.73
-1676.36
-1689.05
-1557.15
-1862.89
-1655.37
-1887.05
-1439.51
-2323.92
-1866.57
-1716.12
-2447.2
-2134
-1862.12
-2362.94
-1904.13
-2102.24
-2046.25
-1963.47
-2363.35
-2070.46
-2289.54
-2160.15
-2051.12
-2039.01
-1796.78
-1868.33
-2400.17
-2332.85
-1833.41
-2261.73
-2299.17
-1930.57
-2113.76
-1881.18
-2392.64
-2419.34
-2018
-2275.96
-1995.41
-2079.26
-2387.36
-1683.44
-2528.9
-2483.06
-1668.63
-1930.57
-2464.51
-2610.95
-2550.39
-2120.68
-2408.45
-2580.43
-2495.64
-2430.76
-2347.01
-2236.02
-2443.79
-1527.16
-1660.55
-2013.63
-1417.81
-2479.65
-1548.51
-1395.2
-1679.97
-2101.57
-2274.03
-2205.43
-1516.51
-2214.96
-1598.82
-2013.16
-1991.37
-1437.74
-2369.8
-1502.14
-1541.92
-1291.32
-1047.03
-1463.91
-1763.76
-1471.2
-1499.53
-1505.02
-1526.95
-1588.53
-1644.34
-1306.19
-1587.89
-1414.95
-1367.41
-1459.05
-1497.92
-1134.73
-1463.29
-1452.32
-1175.17
-1463.37
-1453.81
-1136.68
-1194.09
-1590.01
-1514.91
-1198.08
-1397.11
-1825.98
-1588.52
-1515.21
-1420.83
-1597.36
-1585.1
-1521.57
-1260.56
-1057.77
-1571.57
-1711.54
-1734.55
-1826
-1455.83
-1542.61
-1441.78
-1626.81
-1620.52
-1336.21
-1512.83
-1326.91
-1341.9
-1169.62
-1142.25
-871.705
-865.952
-1138.13
-1150.45
-810.655
-833.232
-1200.91
-2101.46
-2240.87
-2216.07
-2213.1
-2237.19
-2195.49
-2213.26
-2281.03
-2216.73
-1933.88
-2203.35
-2162.08
-2036.44
-2350.74
-2288.55
-2195.29
-2309.03
-2323.63
-2397.98
-2354.48
-1928.19
-2080.63
-2003.9
-2214.98
-2087.72
-2157.62
-1894.47
-2287.78
-2460.94
-2067.49
-2216.6
-2117.18
-2362.53
-2303.61
-2221.45
-2190.44
-2375.63
-2245.7
-2206.93
-2351.47
-2176.51
-2225.91
-2491.7
-2334.19
-2170.03
-2302.38
-2165.84
-2306.9
-2347.63
-2151.15
-2213.47
-2386.24
-2441.45
-2043.35
-2373.5
-2228.36
-2130.15
-2406.85
-2320.52
-2220.96
-2391.17
-2300.95
-2083.41
-2006.38
-2475.42
-2381.75
-2054.28
-2422.52
-2459.09
-2340.26
-2277.14
-2144.67
-1559.62
-2064.95
-1619.6
-1766.02
-1667.1
-2066.34
-1523.86
-2271.34
-2225.65
-1502.4
-2086.5
-2088.91
-1754.99
-1710.81
-1549.84
-2181.33
-2160.45
-2095.34
-1575.37
-2208.64
-1731.61
-1822.85
-2061.95
-1589.82
-2076.04
-1666.45
-1657.44
-2013.32
-1579.78
-2199.88
-2085.76
-2177.17
-1683.64
-1703.69
-1618.35
-2043.93
-2102.22
-1649.18
-1744.31
-1600.76
-1608.17
-1605.98
-1754.02
-1625.42
-1742.32
-1372.7
-1639.18
-1541.85
-1488.37
-1553.9
-1516.91
-1279.38
-1359.47
-1558.59
-1408.65
-1708.52
-1621.61
-1553.9
-1538.43
-1868.47
-1805.6
-1618.04
-1584.75
-1673.96
-1599.01
-1554.18
-1563.44
-1280.34
-1141.56
-1606.52
-1254.48
-1580.48
-1562.59
-1436.98
-1388.89
-1592.9
-1393
-1779.39
-1617.46
-1575.29
-1575.64
-1636.98
-1398.35
-1773.29
-1552.03
-2244.33
-2442.48
-1739.12
-1880.03
-1728.18
-2150.35
-1722.72
-1825.43
-2297.21
-2515.24
-1945.97
-1848.85
-2243.71
-2145.27
-2093.37
-1973.76
-1349.01
-898.396
-2548.52
-2134.75
-1879.87
-1290.71
-870.755
-1394.87
-2322.03
-2509.38
-2355.32
-1422.14
-2317.1
-2449.05
-2283.68
-2230.01
-1996.99
-2318.43
-1829.8
-2077.47
-2293.9
-2292.56
-2125.7
-2265.46
-2247.04
-2169.31
-2113.6
-2171.49
-1916.32
-1547.18
-1848.25
-2637.89
-1938.71
-2352.3
-2040.15
-2158.31
-2103.82
-1873.41
-1662.07
-1879.29
-2524.05
-2181.27
-2365.16
-2039.43
-1848.24
-2042.81
-1545.19
-2284.53
-2534.03
-2480.2
-2386.79
-2478.23
-2375.94
-2342.16
-2359.73
-2008.76
-1740.47
-2018.69
-1566.88
-1878.16
-2137.2
-2120.7
-2429.22
-2316.76
-2460.04
-1934.86
-2251.09
-2338.23
-2402.28
-2546.55
-2268.01
-2451.34
-2383.34
-1760.68
-2059.18
-2068.1
-2065.57
-1826.81
-2049.72
-1712.77
-1882.66
-1259.83
-1643.52
-2115.59
-2015.41
-1753.69
-2024.29
-1743.03
-1673.78
-2029.9
-2032.33
-1738.18
-2167.5
-2445.95
-2434.14
-2547.32
-2275.72
-2441.08
-2409.92
-2018.44
-2599.9
-2063.32
-2128.61
-2152.27
-1941.61
-1982.27
-1434.7
-1596.49
-1933.16
-1489.76
-1709.48
-1915.9
-1727.81
-1474.67
-1143.07
-1070.45
-1900.31
-1638.85
-911.867
-914.076
-1048.64
-2190.54
-1675.7
-2079.79
-1669.17
-2037.11
-1738.96
-2085.69
-1711.01
-1984.61
-2428.94
-2340.5
-2481.76
-1756.86
-1681.9
-2182.62
-2252.27
-2248.34
-2450.59
-2003.41
-2385.33
-2070.2
-2110.86
-2514.85
-1960.09
-2107.73
-2025.48
-1453.91
-2265.59
-1954.74
-1695.27
-1509.14
-1871.98
-1695.26
-2170.42
-2031.13
-1716.1
-1188.89
-1493.49
-1139.69
-1906.49
-1576.28
-937.54
-1072.47
-906.397
-2138.3
-2137.32
-2512.08
-2257.25
-2415.31
-2330.72
-2170.47
-2427.68
-2468.81
-2448.68
-2096.53
-1938.58
-2015.79
-2085.24
-2022.14
-1666.79
-1784.23
-1664.94
-1869.45
-2600.04
-2550.07
-2612.39
-2217.98
-2184.57
-2615.85
-2262.87
-1594.56
-2030.2
-2423.5
-1985.64
-2619.22
-2551.29
-1885.49
-2312.12
-2367.56
-1983.86
-2552.88
-2629.31
-2544.43
-1875.06
-2350.19
-2422.74
-1967.59
-2590.26
-2386.19
-1925.47
-2244.59
-2084.54
-1566.89
-2111.02
-2218.65
-2224.11
-2041.14
-2635.33
-2533.75
-2553.12
-2649.49
-1713.25
-2352.23
-2592.14
-1813.94
-2180.49
-2464.35
-2274.62
-2327.7
-2152.65
-2271.04
-2053.35
-1632.08
-2077.61
-2185.12
-2262.13
-1988.22
-2612
-1863.79
-2313.02
-2562.01
-1791.89
-2072.61
-2473.93
-2406.94
-2124.52
-2139.25
-2220.86
-2231.61
-1954.2
-2263.19
-2228.57
-2275.67
-2212.92
-2371.4
-1880.49
-2309.98
-2106.61
-2198.31
-2220.59
-2210.32
-2155.47
-1739.13
-1553.59
-1503.98
-1644.49
-1673.82
-1688.21
-1671.3
-1723.97
-2107.58
-1750.07
-1686.59
-2256.26
-2535.93
-2619.04
-2429.15
-1787.05
-1647.27
-2304.61
-1976.97
-2282.51
-1859.6
-1452.08
-1469
-1672.91
-1483.59
-1457.83
-1465.38
-1482.26
-1141.01
-852.586
-2230.35
-2267.08
-2208.85
-2290.67
-2222.15
-2233.2
-1959.38
-2703.08
-2300.7
-1676.48
-1902.11
-1446.71
-1133.16
-868.152
-1253.81
-1400.82
-2153.19
-1675.03
-1739.44
-2209.77
-2169.75
-2077.07
-2102.37
-2297.22
-2216.99
-2403.91
-1829.72
-1864.61
-2342.14
-2177.69
-2318.13
-1650.44
-1536.29
-1729.4
-1735.81
-1703.73
-1520.38
-1395.49
-2376.44
-1793.88
-2318.11
-2341.71
-2477.23
-2433.1
-2312.82
-1640.95
-2395.43
-2108.99
-2112.05
-2280.02
-2246.47
-1941.1
-1716.47
-2120.93
-2188.13
-2210.87
-2125.33
-2140.37
-2198.36
-2083.59
-1870.18
-2188.38
-2110.39
-2112.24
-2160.24
-2152.08
-2158.6
-2232.47
-2225.79
-2296.5
-2189.58
-2338.35
-1818.3
-2205.95
-2359.76
-2143.23
-1716.04
-2213.57
-2210.02
-2363.53
-2337.74
-2202.46
-2209.39
-2129.86
-1816.22
-2109.51
-2206.15
-2365.49
-2315.65
-2148.26
-1997.5
-2095.94
-2128.94
-2328.56
-2414.83
-1989.51
-2187.42
-2358.18
-2366.92
-2302.94
-2252.19
-2267.01
-2494.03
-1940.17
-2321.78
-2305.4
-2263.41
-2349.92
-2293.71
-2329.12
-2028.5
-2007.93
-2267.02
-2272.15
-2188.63
-1918.91
-1716.41
-1810.85
-2198.86
-2076.82
-1679.4
-1831.93
-2094.67
-2134.89
-1949.67
-1808.45
-2165.41
-1936.59
-1726.65
-1773.54
-1797.88
-1636.93
-1615.75
-1432.03
-1398.78
-1681.55
-1497.67
-1522.23
-1541.98
-1057.17
-1098.49
-1492.81
-1740.67
-1575.21
-1543.44
-1551.19
-1511.02
-1481.38
-1247.88
-1626.96
-1564.52
-1334.22
-2182.2
-2133.58
-1563.52
-1847.61
-2096.1
-1592.98
-1746.84
-1952.72
-1552.53
-2207.43
-2322.93
-1760.2
-2041.88
-1895.85
-1835.65
-1802.46
-2155.65
-2081.84
-2374.88
-2219.79
-1748.08
-2158.9
-2517.79
-1925
-2160.16
-2259.65
-2270.9
-2198.33
-2316.79
-2239.06
-2327.58
-2313.12
-1891.22
-2083.36
-2214.39
-2205.81
-2246.25
-2349.74
-2584.58
-1610.01
-2381.17
-2630.58
-1837.87
-2417.1
-2452.48
-2378.25
-2033.85
-2354
-1868.54
-2527.64
-1662.71
-2058.92
-2078.17
-2335.28
-2395.67
-2155.16
-2012.67
-1370.42
-2282.65
-1924.6
-1684.29
-1841.96
-1548.39
-1147.58
-1225.1
-1681.11
-1543.81
-1579.81
-1497.75
-1783.96
-1393.98
-1515.01
-1137.82
-1680.22
-1524.84
-834.179
-835.902
-1274.74
-828.701
-1267.04
-1123.42
-933.823
-2220.92
-1447.38
-1957.06
-2167.38
-2173.35
-2075.08
-2107.73
-1803.46
-1882.97
-1865.82
-1764.72
-2143.73
-2100.3
-1682.03
-2311.18
-2210.57
-2055.61
-2413.11
-2235.75
-2312.26
-2196.98
-1757.31
-2172.87
-2449.67
-1979.18
-2277.96
-2278.5
-2264.22
-2350.47
-2057.12
-2268.01
-2413.18
-2082.49
-1887.35
-2454.49
-2568.32
-2483.39
-2620.59
-2511.15
-2210.37
-2520.48
-1867.73
-2319.45
-2009.59
-2336.23
-2223.34
-1874.69
-2277.34
-2078.9
-2095.82
-2119.48
-2278.06
-1970.66
-1628.37
-2310.56
-1976.71
-1575.95
-1609.49
-1462.05
-1856.3
-1598.67
-1493.39
-1177
-1699.24
-1528.42
-1818.07
-1452.79
-1234.04
-1137.64
-937.43
-2165.93
-2220.2
-2330.95
-2081.51
-2233.9
-2150.46
-2219.61
-2182.35
-2273.91
-2316.93
-2440.07
-1865.46
-2064.86
-2323.31
-2098.29
-2156.39
-2249.27
-2278.15
-2372.7
-2355.41
-2274.26
-2173.58
-2198.09
-2485.68
-2300.85
-2481.3
-1756.31
-2222.84
-2348.48
-2276.11
-2283.7
-2357.17
-1866.91
-2267.58
-2444.14
-1956.62
-2294.12
-2066.93
-1716.23
-2158.23
-2230.6
-2155.84
-1987.37
-1740.62
-2171.83
-1985.27
-2158.3
-1917.56
-1320.06
-1659.17
-1558.84
-1107.88
-1507.62
-1753.27
-1374.45
-1731.81
-1520.19
-1502.8
-1680.42
-1796.71
)
;
    }
}


// ************************************************************************* //
