/*--------------------------------*- C++ -*----------------------------------*\
| =========                 |                                                 |
| \\      /  F ield         | OpenFOAM: The Open Source CFD Toolbox           |
|  \\    /   O peration     | Version:  v1912                                 |
|   \\  /    A nd           | Website:  www.openfoam.com                      |
|    \\/     M anipulation  |                                                 |
\*---------------------------------------------------------------------------*/
FoamFile
{
    version     2.0;
    format      ascii;
    class       volScalarField;
    location    "230/oil";
    object      wallHeatFlux;
}
// * * * * * * * * * * * * * * * * * * * * * * * * * * * * * * * * * * * * * //

dimensions      [1 0 -3 0 0 0 0];


internalField   uniform 0;

boundaryField
{
    maxY
    {
        type            calculated;
        value           uniform 0;
    }
    minX
    {
        type            calculated;
        value           uniform 0;
    }
    maxX
    {
        type            calculated;
        value           uniform 0;
    }
    minY
    {
        type            calculated;
        value           uniform 0;
    }
    minZ
    {
        type            calculated;
        value           uniform 0;
    }
    maxZ
    {
        type            calculated;
        value           uniform 0;
    }
    oil_to_sphere
    {
        type            calculated;
        value           nonuniform List<scalar> 
1536
(
3165.32
2899.83
2896.89
2405.87
2387.56
2884.06
2671.56
2755.65
2723.64
2444.94
2252.36
2480.02
2718.02
2493.83
2183.66
2640.15
2885.81
2909.79
2625.32
2704.73
2819.43
2726.68
2747.28
2637.41
2664.26
2650.39
2661.03
2604.35
2871.98
2738.5
2951.62
2900.77
2911.21
2640.71
2657.25
2604.96
2628
2548.95
2600.21
2658.26
2588.58
2628.63
2714.75
2771.84
2838.06
2655.01
2824.06
2752.49
2200.64
2650.54
2794.77
2728.19
2746.57
2635.04
2863
3047.18
2742.83
2705.59
2816.68
2788.81
2709.47
2714.68
2705.31
2628.49
2656.14
2697.12
2703.68
2801.99
2797.5
2859.61
2627.19
2398.31
2480.45
2651.33
2648.66
3063.98
2913.74
2557.91
2640.91
2902.14
2822.87
2786.18
2402.72
2394.66
2870.47
3116.06
2341.29
2681.14
2790.43
2788.37
2728.19
2613.5
2610.35
2621.79
2649.27
2768.78
2822.25
2839.16
2932
2782.16
2825.48
2622.92
3172.08
2798.49
2469.43
2644.48
2664.72
2425.92
2425.66
3181.33
2910.47
2756.57
2713.07
2750.08
2366.03
2396.94
2315.77
2998.16
3142.82
2927.4
2735.78
2749.71
2597.23
2818.12
2947.08
2778.08
2731.66
2579.09
2834.39
2812.25
2698.96
2801.87
2858.87
2665.44
2683.85
2871.58
2750.98
2905
2584.7
2888.3
2725.16
2810.11
2812.44
2718.12
2686.52
2712.47
2768.03
3013.28
2715.22
3182.97
2846.89
2916.17
2742.18
2757.91
2644.07
2790.27
2866.55
2833.55
3232.95
2964.2
2909.52
3030.42
2503.93
2547.18
2617.24
2610.77
2853.3
2987.41
2926.56
3063.22
2606.67
2623.79
2562.61
2826
2748.12
2767.93
3093
2561.01
2517.71
3114.06
2600.17
2549.08
2540.94
2565.05
2815.26
3117.75
2967.02
2593.56
2511.75
2905.84
2530.4
2859.53
2856.3
2975.51
2477.63
2133.04
2967.11
3002.06
2679.62
2644.04
2731.02
2672.5
2912.3
2964.74
2843.15
2787.82
2631.94
2990.75
2937.06
2783.6
2577.39
2655.41
2644.74
2688.51
2832.23
3060.83
2540.21
2488.77
2495.67
2100.29
2889.35
2825.62
2783.36
2730.83
2743.81
2995.66
2859.13
2665.24
2892
2450.91
2607.42
2148.42
2714.01
2884.78
2968.45
2944.28
2887.32
2830.45
2924.28
2476.74
2514.18
2583.38
3006.25
2567.78
2152.43
2322.78
2825.18
2740.24
3107.23
3245.47
2755.74
2397.81
2104.84
2788.07
2952.69
2621.99
2630.22
2350.01
2612
2993.93
3131.57
2715.46
2631.98
3029.1
2974.78
2651.68
2458.98
2699.16
3069.26
3004.42
2831.2
2858.14
2956.5
2544.01
2640.07
2971.87
2857.77
2915.63
2717.06
2894.59
3054.29
2844.82
2822.29
3017.78
2629.54
2623.79
2652.39
2595.61
2615.39
2980.13
3074.7
2523.76
2677.53
2663.84
2677.39
2593.45
2747.66
2717.5
2560.41
2356.12
2607.66
2482.61
2584.46
3119.7
3024.7
3021.49
3227.38
2523.14
2542.67
2752.1
3182.22
3152.78
2611.24
2721.57
2596.29
2852.6
2637.94
2819.23
2841.57
2922.2
2862.86
2664.12
2875.95
2603.24
2959.1
2994.1
2897.25
2877.26
2561.88
3084.85
3081.14
2861.08
2469.94
2627.23
2678.19
2843.22
2816.39
2851.47
2553.75
2954.95
2984.37
2920.32
3019.54
2802.69
2772.83
2710.38
2515.66
2779.29
2851.53
2511.78
2490.91
2538.81
3158.9
2953.33
3022.27
2810.55
2770
2983.78
2497.72
3101.93
2919.18
2771.56
2768.65
2482.58
2924.94
2946.4
2574.93
2771.36
2701.92
2634.49
2855.4
2950.4
2714.84
2654.37
2529.33
3060.54
2960
2490.52
2987.43
2954.19
2890.81
3058.37
2767.62
2868.84
2447.67
2476.12
2842.05
3207.41
2903.67
3113.08
2812.57
2668.89
2930.81
2543.52
2604.06
2825.57
2945.55
2859.76
2811.47
2556.43
2546.45
2974.36
2979.65
2961.12
2766.09
2618.74
2823.17
2876.73
2938.78
2780.51
2688.22
2574.74
2755.83
2532.94
2427.29
2620.32
2575.29
2757.97
2443.47
2670.43
3096.73
2664.65
2661.4
2944.47
2939.02
2846.78
2703.54
2505.46
2900.53
3022.24
2835.45
2786.82
2905.53
2725.52
2749.75
2806.6
2400.98
2847.46
2982.79
3021.44
2931.43
2874.03
2856.27
2781.99
2695.77
2543.27
2738.76
2569.09
2482.82
2591.9
2421.36
3128.06
3092.24
2993.45
3192.93
2561.7
3128.87
2549.62
2600.86
2883.73
2549.76
2542.46
2673.37
2658.88
3101.89
3027.04
2806.84
2827.88
3056.09
2976.99
2778.22
2876.05
2579.06
2945.09
2467.08
3019.03
2398.03
2874.03
2903.33
2933.62
2662.16
2532.01
2696.5
2941.13
2709.04
2449.67
2949.3
2965.77
3018.27
3200.92
2800.08
3039.6
2520.55
2554.81
2215.26
2316.67
2771.37
2668.11
2636.53
2593.58
3146.14
2582.94
2491.93
2453.14
2689.9
2468.72
3231.41
2585.98
2604.7
2743.94
2257.41
2342.28
2621.89
2615.07
2712.02
2651.87
2963.59
2930.37
2857.75
2775.22
2426.66
2637.86
2928.79
2541.23
2574.32
2897.17
3060.28
2582.15
2224.54
2513.89
2253.34
2731.79
2660.02
2604.79
2471.88
2245.73
2861.35
2895.12
2814.96
2733.45
3072.75
2868.17
2839.94
2772.08
2559.89
2642.93
2963.67
2861.62
2679.52
2312.27
2784.19
2933.1
3087.15
2793.45
2646.34
3080.76
2765.03
3042.13
2574.36
2650.27
2539.33
2662.91
2783.93
3055.21
2597.17
2591.34
2557.43
2698.67
3231.62
2490.92
2641.49
2488.59
2754.38
2783.04
2970.08
3067.89
2459.17
2468.87
3068.12
3108.62
2371.92
3062.7
2986.98
2903.73
2986.37
2845.88
2762.86
2771.61
3060.89
2779.46
2845.99
2756.72
2940.3
2798.43
2736.39
2719.3
2510.18
2898.94
2743.3
2937.55
2874.33
2882.48
2860.82
2783.02
2478.39
2975.13
2975.81
2854.12
2733.49
2803.76
3172.18
2472.44
2568.89
2516.52
2804.43
2617.26
3173.06
2668.52
2696.76
2754.38
2227.53
2260.63
2630.37
2624.31
2762.98
2538.05
2587.48
2817.43
2625.27
3068.25
2545.92
3154.27
2696.14
2798.41
2174.61
2252.67
2208.91
2607.87
2902.83
2644.66
2606.43
2252.86
2753.77
2927.75
2757.83
3320.17
2579
2962.1
2869.99
2906.97
2991.97
2987.42
2912.49
2746.84
2691.18
2738.79
2910.19
2705.53
2817.67
2796.88
2815.01
2934.42
2862.99
2900.02
2513.4
2570.03
2127.16
2350.01
2418.48
1970.42
2627.93
2652.96
2705.33
2736.54
2423.81
2515.28
2678.99
3006.65
2986.21
2674.31
2456
2719.31
2930.86
2865.97
2744.75
2441.69
2578.65
2857.06
2811.81
2740.16
2637.59
2881.34
2889.66
3060.32
2889.83
2782.92
2652.41
2582.68
2502.03
2643.97
2733.1
3188.21
2770.93
3124.54
2614.57
3214.36
2624.96
2713.17
2530.81
2560.27
2653.53
2507.45
2700.5
2441.66
2634
2965.35
2670.43
2489.82
3080.6
2876.93
2822.73
2729.74
3068.24
3345.94
2360.05
2865.76
2821.6
2846.21
2508.71
2731.04
2595.86
2816.49
2905.02
2973.62
2561.49
2857.56
2771.42
2882.22
2867.68
2836.02
2682.12
2713.05
2641.68
2455.31
2426.6
2541.91
3034.16
2635.96
2494.47
2642.92
2968.45
2695.3
3035.1
2933.95
2835.25
2782.62
2832.18
3090.39
2541.91
2859.33
2986.65
3006.92
2780.92
2590.51
2694.31
2834.65
3015.21
2526.26
2715.89
2775.21
2960.47
2826.97
2834.63
3044.45
2529.56
2603.38
2569.3
3094.05
2972.21
2769.74
2958.9
2604.35
2636.92
2957.81
2837.11
3058.87
2552.21
2913.55
2948.23
2788.67
2817.86
2899.7
2563.76
2409.35
2750.95
2836.19
3115.06
2719.24
2622.43
2736.44
2831.38
2910.95
2778.84
2598.49
2720.2
2943.65
2547.01
2590.81
2718.25
2630.12
2805.66
2780.97
3001.42
2847.78
2927.58
2643.85
2741.68
2804.79
2728.69
2687.4
2652.92
2646.98
2537.02
2877.91
2798.41
2795.45
2838.05
2467.91
2664.54
3085.89
3089.29
2596.08
2964.21
2830.49
2871.82
2647.02
3012.87
2990.39
2544.87
2693.5
2661.27
2651.32
2467.76
2515.1
2660.76
2988.82
3192.59
2619.24
2898.69
2876.67
2822.94
2705.8
2806.71
3001.77
2813.23
2553.85
2666.58
2643.98
2662.76
2847.68
2882.65
2880.25
2891.76
2895.12
2601.82
2903.64
2674.5
2869.28
2247.66
2839.75
3024.36
2686.45
2360.47
2758.25
2716.58
3116.42
2574.57
2904.3
2738.37
2406
3077.58
2490.26
2712.77
2752.3
2468.88
2965.77
2805.18
2708.5
2784.15
2803.66
2707.82
3129.57
2500.12
2657.03
2187.21
2702.03
2684.76
2761.03
2963.44
3355.33
2453.92
2662.53
3264.11
2493.71
2886.42
2592.69
2871.55
2348.06
2578.83
3255.02
2388.65
3210.92
2431.23
3105.66
2416.98
2570.94
2224.49
2507.47
3216.78
2284.14
2744.31
2389.55
3056.93
3219.88
2299.58
2710.53
2616
2553.58
2542.71
2658.84
2755.46
2755.73
2862.59
2734
3054.72
3284.6
2295.6
2777.84
2828.66
2754.3
2786
2722.55
2694.69
2720.64
2921.66
2730.58
2924.23
2655.27
2800.18
3026.97
2683.17
2852.33
2964.77
2652.03
2800.3
2736.66
2860.47
2712.19
2778.66
2691.8
2950.69
2668.64
2818.57
2431.01
3072.78
2309.88
2840.34
2945.92
3069.12
2578.91
2782.93
2733.09
2779.35
2773.27
2731.61
2918.7
2546.95
2122.49
2729.36
2364.81
2982.89
2585.42
2750.53
2902.73
2151.97
3044.41
2552
2243.19
2586.1
2885.33
2866.96
2765.97
2284.53
2766.84
2804.7
2616.79
2585.21
2989.5
2953.94
2642.16
2763.54
2990.69
2293.56
2929.48
2580.54
2856.11
2319.01
3198.44
3147.63
2943.16
2762.3
2699.44
2886.77
2685.76
2280.69
2527
2894.32
2592.31
2857.39
2356.76
2977.88
2867.74
2018.74
2769.41
2811.85
2170.57
3046.25
2422.9
2984.57
3074.52
2918.03
2238.8
2775.53
2700.51
2770.79
2783.82
2849.88
2295
2656.44
2595.62
2598.08
2971.74
2751.13
2831.5
2867.37
2857.06
2696.8
2780.43
2709.93
2816.56
2988.96
2637.73
2685.94
2622.32
2785.85
2943.97
2635.71
2675.74
2654.73
2753.89
2596.11
2612.87
2675.27
2693.71
2776.48
2677.78
3058.01
2925.87
2375.08
2393.47
3034.6
1968.71
2898.7
2803.62
2599.31
2696.57
3053.62
2155.53
2971.26
2827.26
2260.26
2661.31
2622
2764.92
2129.56
3015.78
2844.29
2155.67
2994.68
3010.04
2324.36
3070.67
2953.38
2331.31
2624.9
2599.18
2162.73
2756.28
2784.78
2543.37
2579.71
2581.36
2049.8
2570.82
2163.35
2021.3
2957.35
2614.34
3215.17
2647.83
2291.05
3015.91
2729.83
2206.61
2639.26
2629.07
2200.93
2389.33
3037.29
1891.14
2530.04
2517.55
1976.65
2975.52
2926.88
2754.78
2670.5
2627.94
2529.11
2091.02
2762.34
2672.29
2685.56
2755.79
2235.08
2901.55
2636.81
2726.89
2612.5
2717.79
2775.06
2517.95
2258.11
2666.72
2805.57
2630.69
2671.81
2738.6
2578.37
2684.18
2227.75
2645.02
2834.76
2616.23
2698.34
2585.65
2268.07
3039.84
3034.99
2993.65
3084.66
2320.8
2171.62
2654.37
2924.09
2783.36
2883.51
2922.09
2530.38
2475.55
2196.77
2310.64
2573.5
2730.09
2714.32
2703.23
2483.65
2956.39
2821.96
2336.14
2557.17
2520.88
2916.56
2581.45
2092.16
2763.05
2742.51
2969.94
2215.5
2632.55
2795.28
2652.12
2693.76
2876.05
2725.33
2533.66
3101.94
2004.66
2465.42
2717.57
2581.9
2663.91
3074.53
2833.28
2753.92
2450.63
3031.09
2650.7
2775.53
2920.69
2971.48
2950.45
2969.58
3058.68
3111.69
3044.92
3045.71
2775.46
2935.17
2636.38
2695.11
2481.32
2407.42
2050.81
3084.42
3067.56
2994.11
2681.34
2776.75
2760.81
2588.68
2792.66
2929.81
2544.96
2707.91
2863.72
2625.46
2642.41
2628.52
2678.23
2573.82
2669.8
2649.63
2319.3
2792.59
2551.75
2705.09
2198.06
3093.62
2717.23
2603.93
2566.37
2346.35
2746.37
2611.33
2163.5
2449.14
2709.89
2404.18
2457.8
3120.3
3149.16
2653.44
2654.94
2897.05
3068.05
2156.2
2603.31
2575.47
2664.65
2663.7
2684.19
2721.44
2475.58
2270.27
3027.07
2658.7
2425.61
2470.46
2650.18
2750.6
2353
2706.67
2593.31
2635.92
3072.2
2434.4
2284.37
2667.49
2618.6
2576.73
2277.25
2979.87
2650.9
2635.48
2649.61
2166.04
2659.12
2662.97
2294.67
2651.74
2446.86
2818.35
3005.9
2591.94
2929.76
2803.92
2596.74
2603.71
2671.19
2280
2813.01
2848.73
2626.97
2217.67
2515.58
2698.66
2715.65
2593.49
2255.18
2604.14
2970.17
2811.36
2613.57
3113.64
2430.72
2931.38
2173.77
2420.32
2954.79
2171.21
2956.68
2615.79
2749.47
2637.47
3146.34
2488.69
2753.48
3069.13
3035.44
2368.35
3009.75
3074.64
1983.93
2723.29
2613.82
2187.73
2860.17
2608.2
2637.18
2638.34
2724.65
2686.87
2626.5
2607.25
2170.61
2851.2
2753.63
2734.53
2772.6
2680.55
2594.28
2518.61
2907.78
2101.54
2568.49
2584.47
2130.69
2945.61
3094.51
2735.85
2995.69
3036.57
2575.79
2631.21
2829.67
2993.31
2576.48
2862.21
2469.46
2197.38
2909.59
2538.03
2969.23
3118.59
3063.96
2216
2936.15
2769.52
2537.97
2624.08
2666.11
2612.28
2225.47
3007.23
2240.51
2998.35
2676.9
2470.15
2441.4
2697.95
2868.35
3056.28
2738.1
3182.44
2913.47
2956.26
2173.85
2933.54
2881.35
2974.37
2585.89
2542.09
2105.26
2710.05
3163.31
3003.85
2261.37
2486.4
2253.15
2584.91
2721.05
2461.3
3317.63
2639.78
2485.89
2276.72
2809.25
2549.47
2126.78
2703.79
2609.26
2614.09
2624.41
2628.29
2282.11
2463.24
2190.84
2618.18
2918.6
2820.99
3014.63
2975.67
2569.23
2515.91
2174.85
2590.08
2886.59
3033.13
2911.65
2917.38
2426.01
2126.79
2493.16
2086.37
2895.93
2918.49
2518.72
2948.17
2897.59
3008.7
2806.81
2750.66
2742.38
2569.07
2154.68
2506.78
2219.35
2465.63
2624.66
2592.6
2317.61
2213.35
2856.78
3163.38
3121.79
3065.13
2736.04
2844.1
2835.21
2717.04
2625.22
2713.02
2533.82
2676.98
2679.21
2214.19
2903.29
2660.32
2488.83
2310.14
2611.91
2729.13
2726.13
2594.82
2312.99
3050.49
2800.7
2613.99
3106.6
2541.37
2193.41
2838.53
2681.65
2681.25
2680
2598.65
2093.65
2700.73
2673.62
2244.75
3049.57
2649.66
1900.61
2623.28
2717.15
2735.03
2596.26
2225.35
2562.99
2576.75
2403.76
2690.67
2173.21
2705.19
2690.12
2378.96
3112.32
2671.44
2295.13
3176.43
2712.75
2713.53
2304.9
2689.05
2240.36
)
;
    }
}


// ************************************************************************* //
