/*--------------------------------*- C++ -*----------------------------------*\
| =========                 |                                                 |
| \\      /  F ield         | OpenFOAM: The Open Source CFD Toolbox           |
|  \\    /   O peration     | Version:  v1912                                 |
|   \\  /    A nd           | Website:  www.openfoam.com                      |
|    \\/     M anipulation  |                                                 |
\*---------------------------------------------------------------------------*/
FoamFile
{
    version     2.0;
    format      ascii;
    class       volScalarField;
    location    "262/oil";
    object      wallHeatFlux;
}
// * * * * * * * * * * * * * * * * * * * * * * * * * * * * * * * * * * * * * //

dimensions      [1 0 -3 0 0 0 0];


internalField   uniform 0;

boundaryField
{
    maxY
    {
        type            calculated;
        value           uniform 0;
    }
    minX
    {
        type            calculated;
        value           uniform 0;
    }
    maxX
    {
        type            calculated;
        value           uniform 0;
    }
    minY
    {
        type            calculated;
        value           uniform 0;
    }
    minZ
    {
        type            calculated;
        value           uniform 0;
    }
    maxZ
    {
        type            calculated;
        value           uniform 0;
    }
    oil_to_sphere
    {
        type            calculated;
        value           nonuniform List<scalar> 
1536
(
2315.61
2044.3
2039.93
1541.32
1525.26
2029.47
1811.48
1899.34
1866.71
1582.53
1384.72
1618.94
1861.32
1631.53
1317.14
1780.43
2030.79
2053.07
1765.56
1847.49
1963.76
1870.32
1890.57
1777.59
1804.63
1790.8
1802.27
1744.04
2015.69
1881.08
2097.05
2045.64
2055.79
1781.93
1798.45
1745.35
1769.52
1689.12
1740.59
1799.99
1729.05
1769.4
1857.54
1914.76
1982.02
1796.65
1964.39
1892.18
1335.93
1790.29
1938.5
1871.01
1886.44
1776.02
2006.66
2193.87
1886.62
1848.25
1960.33
1933.16
1851.58
1858.12
1846.9
1769.13
1796.68
1839.24
1846.56
1945.4
1941.76
2004.08
1767.8
1531.75
1617.13
1791.65
1789.51
2211.33
2058.72
1695.61
1781.15
2044.62
1967.32
1928.8
1540.19
1532.4
2014.22
2264.41
1474.63
1823.56
1934.29
1932.49
1869.41
1754.21
1750.49
1762.42
1789.72
1911.96
1964.59
1982.4
2077.8
1926.18
1969.67
1763.62
2321.49
1941.7
1605.66
1784.86
1806.17
1561.29
1560.12
2329.93
2055.61
1899.35
1856.35
1892.56
1502.21
1531.72
1450.05
2143.86
2291.73
2072.02
1878.87
1892.32
1737.53
1960.75
2093.04
1918.4
1875.59
1719.23
1977.41
1957.21
1840.83
1946.46
2002.7
1807.72
1825.77
2016.9
1893.71
2047.23
1724.7
2033.41
1868.65
1954.66
1957.2
1861.1
1829.22
1855.22
1913.41
2149.03
1846.15
2332.73
1991.91
2050.75
1886.19
1901.83
1787.06
1926.2
2013.1
1968.41
2381.25
2097.88
2054.74
2164.75
1645.76
1689.51
1757.96
1752.16
1999.18
2128.07
2074.38
2204.38
1745.04
1762.29
1699.54
1967.21
1886.02
1908.15
2240.91
1687.31
1635.77
2263.2
1743.3
1692.26
1683.12
1708.11
1949.41
2265.67
2100.39
1731.91
1647.25
2048.86
1665.7
2001.75
1999.91
2121.28
1616.26
1262.72
2112.04
2148.41
1814.1
1785.9
1873.22
1813.3
2054.53
2109.31
1986.95
1930.12
1768.1
2133.99
2081.77
1916.61
1718.08
1796.16
1785.23
1824.74
1972.94
2205.82
1664.83
1626.6
1634.15
1227.92
2032.56
1967.56
1926.23
1872.16
1884.78
2137.28
2000.76
1800.56
2034.8
1587.11
1747.26
1277.06
1858.13
2023.12
2113.4
2087.38
2031.84
1974.22
2069.73
1614.75
1653.31
1709.7
2153.48
1706.71
1277.64
1458.31
1968.13
1870.64
2251.57
2385.53
1897.89
1534.12
1233.64
1932.35
2088.71
1762.8
1771.17
1487.47
1752.66
2135.91
2278.31
1853.31
1772.02
2177.23
2105.88
1792.91
1600.14
1835.45
2214.48
2148.85
1974.92
2001.4
2101.5
1684.98
1781.51
2116.64
2000.99
2052.06
1858.98
2036.6
2198.83
1986.96
1964.26
2164.48
1768.31
1763.41
1790.44
1737.66
1756.24
2125.64
2221.2
1645.25
1818.83
1804.66
1817.16
1731.6
1887.31
1858.18
1699.72
1492.67
1748.69
1621.71
1725.19
2267.15
2171.32
2167.33
2364.08
1665.28
1685.12
1885.94
2332.69
2290.78
1749.75
1862.59
1734.91
1995.75
1777.78
1961.64
1984.36
2064.45
2007.24
1802.78
2019.13
1744.8
2103.73
2139.2
2041.68
2020.6
1703.53
2230.35
2223.22
1998.51
1609.02
1765.73
1816.18
1985.81
1958.67
1996.22
1695.05
2099.41
2119.81
2064.3
2165.48
1946.67
1914.85
1851.17
1654
1919.45
1993.05
1650.67
1630.08
1678.7
2306.59
2096.15
2167.21
1954.07
1911.24
2125.48
1636.9
2248.23
2062.51
1914.41
1910.37
1620.63
2064.89
2089.43
1715.62
1914.54
1843.5
1773.92
1997.78
2094.81
1857.5
1793.93
1669.91
2205.86
2105.03
1628.89
2128.75
2093.2
2033.52
2204.22
1910.6
2011.67
1581.81
1616.19
1984.22
2347.33
2046.22
2254.36
1953.88
1809.21
2076.48
1681.02
1739.38
1964.75
2089.86
2002.08
1955.76
1693.46
1687.79
2118.65
2115.24
2106.02
1907.18
1757.31
1966.02
2020.46
2084.38
1922.3
1828.23
1711.98
1897.66
1669.35
1562.45
1760.89
1713.39
1900.67
1582.42
1811.44
2237.81
1805.43
1802.11
2087.98
2083.35
1990.37
1844.91
1645.57
2043.2
2168.51
1978.04
1927.42
2050.39
1865.45
1891.69
1949.74
1538.02
1983.88
2119.02
2165.66
2075.76
2016.2
2000.66
1924.24
1835.37
1681.01
1880.14
1708.57
1621.08
1732.37
1558.14
2275.59
2238.77
2139.48
2331.48
1689
2277.48
1691.63
1744.3
2028.89
1673.94
1683.9
1814.54
1802.01
2248.43
2171.99
1950.24
1970.81
2201.2
2120.95
1920.77
2019.22
1720.74
2089.83
1607.13
2162.95
1535.22
2013.17
2044.44
2077.06
1800.92
1672.9
1838.47
2085.06
1851.25
1588.71
2091.6
2110.25
2155.32
2351.07
1933.33
2187.53
1662.72
1697.38
1349.65
1454.67
1915.99
1810.89
1777.54
1733.55
2295.7
1709.9
1633.55
1594.65
1824.62
1597.01
2378.88
1724.1
1743.6
1884.04
1390.41
1480.69
1762.65
1755.62
1855.89
1791.99
2108.17
2074.57
2002.1
1917.8
1564.46
1777.91
2069.78
1679.47
1715.62
2041.22
2206.89
1722.16
1354.48
1652.96
1384.94
1874.11
1799.81
1743.97
1609.43
1382.57
2001.75
2037.64
1958.42
1873.29
2217.47
2009.38
1984.1
1912.75
1701.52
1784.72
2107.77
2004.75
1821.25
1448.22
1927.32
2067.91
2232.5
1936.66
1777.07
2229.33
1897.36
2190.51
1716.76
1793.82
1681.14
1804.25
1928.93
2203.92
1710.7
1734.51
1699.4
1830.16
2382.18
1621.41
1782.41
1630
1890.83
1927.87
2112.79
2214.65
1584.4
1608.9
2213.19
2251.17
1509.69
2203.03
2128.88
2045.94
2124.93
1987.8
1902.22
1913.41
2205.15
1921
1989.82
1897.93
2085.8
1940.29
1877.32
1859.41
1650.53
2042.61
1878.7
2082.29
2015.79
2023.13
2003.83
1924.05
1617.55
2118.11
2117.73
1996.33
1874.37
1945.88
2320.79
1597.28
1711.5
1658.42
1939.4
1745.59
2322.46
1808.14
1836.54
1892.88
1359.64
1397.6
1771.2
1765.29
1907.6
1680.35
1730.36
1950.52
1756.91
2215.76
1672.1
2304.24
1823.43
1932.9
1291.32
1388.63
1344.15
1746.05
2045.57
1783.95
1745.38
1385.97
1897.86
2066.39
1902.4
2463.09
1719.91
2106.94
2003.41
2051.9
2134.79
2127.6
2054.28
1886.08
1830.03
1879.81
2053.96
1846.26
1961.48
1937.5
1957.76
2078.14
2005.76
2042.78
1650.41
1709.69
1256.19
1488.74
1554.21
1096.66
1766.23
1792.94
1846.38
1877.06
1559.99
1655.63
1820.6
2150.85
2126.12
1815.69
1595.26
1861.78
2072.81
2002.32
1887.55
1578.84
1719.63
1999.67
1950.94
1882.76
1775.69
2024.62
2031.49
2205.51
2033.11
1925.5
1792.49
1725.7
1643.61
1773.5
1865.47
2337.71
1915.83
2269.79
1742.11
2362.47
1764.58
1854.9
1669.17
1697.91
1794.16
1644.5
1841.19
1580.52
1774.83
2107.1
1811.22
1627.35
2225.17
2018.73
1966.6
1869.41
2206.06
2493.88
1496.97
2008.78
1959.41
1989.65
1644.75
1871.96
1734.06
1957.53
2042.91
2119.48
1701.56
1999.36
1911.46
2026.56
2010.98
1980.9
1821.02
1852.76
1780.93
1593.39
1564.06
1681.58
2180.27
1776.48
1634.55
1783.79
2111.82
1836.71
2179.87
2076.29
1977.4
1925.06
1973.34
2236.91
1681.8
2003.05
2128.65
2152.45
1922.02
1729.82
1833.5
1975.21
2160.67
1664.67
1855.75
1915.22
2104.21
1970.83
1973.47
2189.57
1668.67
1742.32
1707.59
2239.72
2117.31
1912.9
2102.3
1744.1
1776.52
2101.24
1974.17
2205.35
1693.01
2057.24
2091.52
1931.98
1959.16
2042.56
1702.05
1547.39
1893.32
1974.22
2256.04
1860.38
1760.79
1878.21
1974.12
2053.92
1922.78
1737.1
1861.83
2087.89
1679.08
1732.63
1860.78
1770.94
1948.39
1923.56
2146.77
1990
2072.83
1783.83
1882.34
1947.65
1870.72
1828.87
1792.59
1787.52
1675.6
2021.1
1940.99
1939.29
1979.64
1608.24
1805.75
2230.65
2235.31
1735.76
2107.86
1973.09
2016.6
1785.95
2157.46
2136.28
1686.25
1835.45
1802.09
1791.47
1604.45
1655.96
1801.79
2132.77
2333.83
1759.05
2041.02
2019.89
1966.24
1846.6
1949.61
2146.25
1949.68
1695.05
1807.78
1784.46
1800.62
1990.66
2022.64
2023.1
2035.53
2036.8
1739.91
2048.38
1815.3
2010.01
1383.76
1981.1
2171.2
1827.87
1497.12
1895.69
1854.88
2264.56
1712.65
2048.93
1878.61
1543.67
2221.37
1627.29
1853.86
1895.63
1607.73
2108.94
1949.73
1848.22
1921.43
1948.05
1850.58
2278.78
1636.03
1797.48
1318.55
1832.92
1827.47
1904.56
2106.56
2505.94
1589.36
1801.95
2414.48
1630.21
2029.83
1731.25
2016.19
1480.67
1715.69
2405.26
1525.99
2354
1569.77
2252.35
1551.83
1709.09
1352.93
1640.76
2366.56
1418.14
1880.54
1526.05
2197.49
2369.9
1433.4
1843.89
1759.16
1695.19
1684.99
1801.25
1898.77
1898.46
2007.85
1876.78
2199.25
2435.89
1428.6
1911.84
1973.88
1897.93
1930.09
1864.28
1833.31
1862.68
2065.96
1871.44
2069.65
1794.96
1941.83
2172.9
1825.08
1997.51
2109.99
1792.49
1941.91
1877.74
2005.23
1853.91
1919.78
1833.2
2095.95
1809.74
1962.96
1568.4
2215.14
1444.79
1975.84
2088.57
2217.4
1717.76
1926.3
1876.52
1924.02
1912.25
1871.87
2062.47
1685.54
1252.74
1855.21
1501.12
2124.79
1723.77
1892.85
2037.78
1284.37
2177.74
1684.57
1375.28
1717.17
2029.84
2011.74
1906.82
1420.26
1905.64
1944.49
1756.51
1724.33
2132.11
2095.48
1780.88
1907.77
2133.45
1428.41
2068.84
1719.19
2000.17
1454.14
2336.53
2296.25
2088.3
1902.44
1836.36
2027.33
1823.5
1416.34
1665.42
2038.8
1731.27
1993.79
1494.01
2119.03
2007.17
1150.15
1907.88
1954.31
1302.97
2181.91
1560.7
2127.47
2217.62
2059.98
1375.78
1917.06
1840.97
1909.92
1924.53
1989.81
1430.95
1793.68
1735.9
1737.95
2112.2
1891.75
1968.01
2012.27
2000.62
1837.19
1923.53
1850.45
1960.9
2134.4
1777.81
1825.97
1762.71
1924.61
2086.3
1775.28
1816.91
1795.57
1894.88
1735.6
1753.49
1815.8
1834.47
1919.3
1814.43
2204.79
2067.15
1513.83
1527.99
2174.64
1096.15
2043.92
1943.1
1737.27
1836.54
2190.58
1286.35
2117.16
1965.4
1397.04
1800.98
1759.44
1901.22
1260.24
2162.23
1979.01
1289.66
2141.28
2152.53
1462.14
2219.34
2094.7
1469.06
1763.7
1737.91
1293.13
1898.74
1927.31
1677.02
1718.7
1711.56
1176.46
1710.88
1284.45
1146.17
2101.21
1757.4
2365.83
1783.94
1427.27
2164.06
1863.25
1340.12
1778.51
1767.41
1334.29
1525.53
2170.52
1016.94
1668.12
1642.71
1100.46
2119.59
2071.02
1897.07
1811.64
1764.97
1668.31
1221.41
1904.87
1814.43
1827.03
1898.03
1370.27
2040.95
1777.54
1868.69
1753.57
1859.72
1917.83
1655.35
1393.24
1806.12
1940.7
1771.73
1812.17
1879.04
1717.46
1824.22
1361.12
1782.62
1969.21
1757.38
1838.4
1724.83
1402.62
2180.7
2174
2139.82
2228.18
1458.84
1304.99
1790.31
2060
1925.98
2026.96
2066
1668.65
1614
1323.97
1440.17
1713.84
1872.02
1856.13
1844.89
1619.58
2101.95
1962.78
1474.09
1699.69
1658.66
2060.54
1721.32
1221.15
1892.37
1885.23
2115.42
1349.93
1767.66
1931.45
1792.67
1835.03
2018.77
1866.7
1673.25
2249.13
1133.43
1592.2
1852.21
1720.58
1804.92
2220.42
1973.23
1893.32
1586.73
2176.55
1789.72
1917.87
2064.87
2116.41
2095.53
2114.55
2203.35
2258.05
2190.9
2191.73
1908.09
2078.59
1776.67
1835.52
1615.17
1543.97
1179.77
2230.63
2213.81
2139.73
1822.56
1919.46
1903.1
1727.92
1934.66
2073.76
1683.54
1848.92
2006.46
1763.49
1782.63
1769.11
1819.3
1713.92
1810.99
1790.31
1454.87
1928.88
1689.36
1846.4
1332.53
2235.7
1858.3
1743.92
1705.68
1482.71
1887.13
1751.21
1295
1582.63
1851.4
1538.39
1595.99
2267.82
2296.48
1793.6
1795.43
2039.9
2214.85
1287.98
1735.68
1714.86
1805.96
1804.65
1825.56
1863.21
1612.21
1407.07
2168.8
1799.25
1561.63
1607.15
1791.5
1892.67
1488.66
1841.49
1730.32
1776.34
2219.18
1570.04
1419.42
1806.88
1758.35
1715.41
1413.93
2122.46
1790.48
1776.76
1790.37
1297.89
1796.98
1803.94
1429.64
1789.85
1580.67
1960.91
2152.69
1729.6
2075.07
1947.62
1736.14
1743.98
1812.26
1415.92
1951.37
1987.11
1767.04
1351.09
1652.99
1839.71
1857.19
1732.18
1390.19
1742.72
2115.87
1952.45
1750.72
2260.78
1568.32
2070.4
1306.53
1556.53
2093.17
1301.27
2100.87
1750.45
1891.52
1777.65
2291.6
1626.79
1896.37
2217.63
2178.53
1507.66
2155.61
2220.97
1110.97
1852.03
1754.52
1321.01
1993.31
1748.86
1778.14
1779.22
1866.68
1828.14
1766.91
1746.52
1304.16
1987.4
1893.88
1876.45
1915.56
1822.04
1734.14
1656.2
2044.26
1232.26
1707.96
1713.03
1259.19
2089.09
2242.76
1867.82
2140.51
2179.47
1718.43
1756.39
1972.23
2137.99
1715.53
2004.57
1605.98
1327.53
2048.21
1680.03
2115.01
2263.19
2211.07
1350.22
2075.76
1906.79
1675.43
1764.37
1806.55
1752.4
1360.03
2145.43
1376.04
2136.33
1818.29
1606.45
1570.16
1832.99
2012.34
2198.9
1880.7
2333.64
2053.13
2101.62
1298.56
2076.6
2025
2118.72
1724.5
1680.43
1233.36
1852.21
2313.71
2146.5
1399.16
1623.47
1382.02
1723.75
1863.27
1598.39
2465.74
1780.22
1623.77
1413.83
1949.81
1687.18
1260.99
1841.03
1748.44
1754.7
1764.51
1768.42
1419.11
1601.71
1324.27
1755.07
2055.38
1963.37
2158.64
2119.21
1708.65
1654.86
1305.85
1732.8
2024.34
2180.32
2051.54
2061.5
1562.57
1254.52
1631.33
1214.5
2038.42
2060.32
1656.84
2093.91
2037.25
2155.45
1942.7
1892.56
1884.46
1708.53
1289.31
1643.92
1351.28
1597.24
1764.79
1731.5
1454.3
1347.19
1999.66
2314.76
2266.09
2211.89
1877.93
1988.35
1978.91
1856.47
1764.58
1854.03
1672.41
1817.85
1820.16
1348.81
2040.3
1799.94
1625.57
1446.02
1748.51
1871.29
1868.28
1733.3
1448.8
2196.29
1943.13
1753.78
2253.99
1680.81
1327.28
1974.54
1821.25
1822.12
1821.37
1738.36
1226.07
1833.63
1814.54
1380.27
2189.09
1789.56
1023.66
1763.48
1859.45
1877.51
1736.25
1359.5
1700.9
1714.79
1541.58
1832.68
1305.83
1846.5
1831.09
1517.28
2254.75
1812.57
1429.79
2316.4
1854.48
1854.9
1441.03
1830.41
1375.2
)
;
    }
}


// ************************************************************************* //
