/*--------------------------------*- C++ -*----------------------------------*\
| =========                 |                                                 |
| \\      /  F ield         | OpenFOAM: The Open Source CFD Toolbox           |
|  \\    /   O peration     | Version:  v1906                                 |
|   \\  /    A nd           | Web:      www.OpenFOAM.com                      |
|    \\/     M anipulation  |                                                 |
\*---------------------------------------------------------------------------*/
FoamFile
{
    version     2.0;
    format      ascii;
    class       volScalarField;
    location    "78";
    object      k;
}
// * * * * * * * * * * * * * * * * * * * * * * * * * * * * * * * * * * * * * //

dimensions      [0 2 -2 0 0 0 0];


internalField   nonuniform List<scalar> 
78750
(
7.93024e-07
5.53707e-06
1.03011e-05
1.50085e-05
1.95825e-05
2.39519e-05
2.80478e-05
3.18125e-05
3.52069e-05
3.82096e-05
4.08128e-05
4.30171e-05
4.48279e-05
4.6251e-05
4.72901e-05
4.79561e-05
4.82584e-05
4.82061e-05
4.7808e-05
4.70737e-05
4.60136e-05
4.46414e-05
4.29741e-05
4.09974e-05
3.87342e-05
3.61996e-05
3.34078e-05
3.0368e-05
2.70891e-05
2.35648e-05
1.97574e-05
1.56054e-05
1.11316e-05
6.62775e-06
2.61279e-06
1.66147e-06
1.5129e-05
2.75399e-05
3.92934e-05
5.04038e-05
6.0657e-05
6.98479e-05
7.78692e-05
8.47003e-05
9.03719e-05
9.49386e-05
9.84637e-05
0.00010101
0.00010265
0.000103462
0.000103501
0.000102815
0.000101453
9.94618e-05
9.68867e-05
9.37728e-05
9.01619e-05
8.6086e-05
8.15566e-05
7.66123e-05
7.12907e-05
6.56456e-05
5.96931e-05
5.34158e-05
4.67837e-05
3.96592e-05
3.18938e-05
2.39026e-05
1.68962e-05
1.20163e-05
2.55103e-06
1.9446e-05
3.54501e-05
5.04343e-05
6.39913e-05
7.57674e-05
8.56292e-05
9.36457e-05
9.99889e-05
0.000104853
0.000108415
0.000110832
0.00011224
0.00011275
0.00011245
0.000111428
0.000109769
0.000107546
0.000104833
0.000101704
9.82382e-05
9.4511e-05
9.05789e-05
8.6463e-05
8.21414e-05
7.75587e-05
7.26479e-05
6.73427e-05
6.15611e-05
5.51563e-05
4.78942e-05
3.97229e-05
3.1501e-05
2.43638e-05
1.93336e-05
4.44087e-06
2.81297e-05
5.03123e-05
7.01766e-05
8.68481e-05
0.000100066
0.000110168
0.000117712
0.000123187
0.000126952
0.000129256
0.000130281
0.00013017
0.000129032
0.000126965
0.000124068
0.00012045
0.000116239
0.00011158
0.000106638
0.000101595
9.66345e-05
9.19157e-05
8.75158e-05
8.33918e-05
7.93963e-05
7.5325e-05
7.09601e-05
6.60718e-05
6.03792e-05
5.35836e-05
4.5735e-05
3.79503e-05
3.10143e-05
2.55827e-05
6.43423e-06
3.51764e-05
6.14582e-05
8.38672e-05
0.000101374
0.000114241
0.000123491
0.000130061
0.000134609
0.000137479
0.000138846
0.000138864
0.000137638
0.00013524
0.000131754
0.000127295
0.000122022
0.000116133
0.000109861
0.000103469
9.72466e-05
9.15033e-05
8.64907e-05
8.23062e-05
7.88744e-05
7.59803e-05
7.33101e-05
7.04974e-05
6.71483e-05
6.28392e-05
5.71984e-05
5.03154e-05
4.32978e-05
3.6531e-05
3.02021e-05
8.716e-06
4.20695e-05
7.20465e-05
9.68e-05
0.000115311
0.000128398
0.000137594
0.000144037
0.000148346
0.000150832
0.00015168
0.000150986
0.000148801
0.000145186
0.000140252
0.000134172
0.000127177
0.000119543
0.000111575
0.000103605
9.6005e-05
8.91703e-05
8.34027e-05
7.87991e-05
7.52967e-05
7.271e-05
7.07362e-05
6.89676e-05
6.6911e-05
6.40078e-05
5.97453e-05
5.40777e-05
4.78622e-05
4.1174e-05
3.3915e-05
1.06611e-05
4.75113e-05
8.02014e-05
0.00010657
0.000125684
0.00013884
0.00014792
0.000154155
0.000158162
0.000160242
0.000160534
0.000159088
0.000155936
0.000151153
0.000144896
0.000137403
0.000128976
0.000119964
0.000110739
0.00010171
9.33375e-05
8.60648e-05
8.01047e-05
7.54604e-05
7.20512e-05
6.97298e-05
6.82536e-05
6.72585e-05
6.62443e-05
6.45802e-05
6.16225e-05
5.71438e-05
5.16723e-05
4.5083e-05
3.7249e-05
1.26254e-05
5.29128e-05
8.83186e-05
0.000116442
0.000136414
0.000149914
0.000159115
0.000165342
0.000169219
0.000171026
0.000170867
0.000168768
0.000164757
0.000158935
0.000151504
0.00014276
0.000133061
0.000122805
0.000112418
0.000102376
9.32176e-05
8.54105e-05
7.90675e-05
7.4126e-05
7.04953e-05
6.80657e-05
6.66692e-05
6.60259e-05
6.56868e-05
6.49957e-05
6.31798e-05
5.97765e-05
5.49886e-05
4.85627e-05
4.04833e-05
1.42195e-05
5.71684e-05
9.47176e-05
0.000124266
0.000144984
0.000158832
0.000168183
0.000174429
0.000178196
0.000179744
0.000179156
0.000176438
0.000171627
0.000164858
0.000156383
0.000146554
0.000135787
0.000124533
0.000113277
0.000102573
9.30501e-05
8.51086e-05
7.87058e-05
7.37038e-05
6.999e-05
6.74759e-05
6.60597e-05
6.55581e-05
6.56115e-05
6.55938e-05
6.46535e-05
6.21273e-05
5.7944e-05
5.1773e-05
4.37928e-05
1.60053e-05
6.19391e-05
0.000101852
0.000132935
0.000154433
0.000168622
0.000178102
0.000184337
0.000187962
0.000189225
0.000188188
0.000184846
0.000179246
0.000171553
0.000162064
0.000151183
0.000139376
0.00012715
0.000115043
0.000103688
9.38046e-05
8.57143e-05
7.92505e-05
7.4203e-05
7.04195e-05
6.7808e-05
6.63044e-05
6.58035e-05
6.60417e-05
6.64544e-05
6.61584e-05
6.43319e-05
6.06865e-05
5.48343e-05
4.71221e-05
1.75556e-05
6.59012e-05
0.000107751
0.000140142
0.000162363
0.000176922
0.000186581
0.000192858
0.000196393
0.000197418
0.000195977
0.000192058
0.000185722
0.000177167
0.000166738
0.000154889
0.000142142
0.000129055
0.000116235
0.000104401
9.43596e-05
8.63083e-05
7.99604e-05
7.50332e-05
7.13292e-05
6.8739e-05
6.72137e-05
6.67013e-05
6.70199e-05
6.76818e-05
6.7817e-05
6.65094e-05
6.33148e-05
5.77928e-05
5.04128e-05
1.93382e-05
7.03736e-05
0.000114334
0.000148065
0.000170954
0.000185812
0.000195587
0.000201852
0.000205249
0.000205996
0.000204119
0.000199605
0.000192526
0.000183109
0.000171743
0.000158928
0.000145237
0.000131282
0.000117726
0.000105379
9.51367e-05
8.7097e-05
8.08709e-05
7.61013e-05
7.25388e-05
7.0043e-05
6.85595e-05
6.80611e-05
6.84222e-05
6.9226e-05
6.96422e-05
6.87118e-05
6.5885e-05
6.06674e-05
5.35952e-05
2.09973e-05
7.43387e-05
0.000120113
0.000155024
0.000178544
0.000193722
0.000203653
0.00020995
0.000213254
0.000213768
0.000211502
0.00020644
0.000198669
0.000188448
0.000176204
0.000162484
0.000147911
0.00013315
0.000118925
0.000106132
9.57579e-05
8.77934e-05
8.17552e-05
7.72185e-05
7.38828e-05
7.15726e-05
7.02163e-05
6.97913e-05
7.02026e-05
7.10883e-05
7.16716e-05
7.09938e-05
6.84441e-05
6.34706e-05
5.66327e-05
2.28216e-05
7.85946e-05
0.000126254
0.000162334
0.00018643
0.000201877
0.000211927
0.00021823
0.000221421
0.00022169
0.000219032
0.00021343
0.000204986
0.000193985
0.000180889
0.000166283
0.000150833
0.000135255
0.000120331
0.00010704
9.64657e-05
8.85225e-05
8.26482e-05
7.83503e-05
7.52738e-05
7.32028e-05
7.20395e-05
7.17491e-05
7.22444e-05
7.31976e-05
7.38828e-05
7.3368e-05
7.10131e-05
6.62075e-05
5.95055e-05
2.45868e-05
8.25552e-05
0.000131911
0.000169057
0.000193702
0.000209432
0.000219628
0.000225969
0.000229082
0.000229142
0.000226133
0.000220039
0.000210976
0.000199255
0.000185366
0.000169933
0.000153659
0.000137305
0.000121707
0.000107925
9.71429e-05
8.9217e-05
8.35072e-05
7.94654e-05
7.66808e-05
7.48965e-05
7.39836e-05
7.38851e-05
7.45037e-05
7.55261e-05
7.62696e-05
7.58453e-05
7.36078e-05
6.88873e-05
6.2217e-05
2.64443e-05
8.66286e-05
0.000137684
0.000175866
0.000201023
0.00021701
0.00022734
0.000233715
0.000236754
0.000236615
0.000233275
0.000226718
0.000217075
0.000204679
0.000190044
0.000173819
0.000156739
0.000139606
0.00012331
0.00010898
9.79077e-05
8.9936e-05
8.4356e-05
8.05522e-05
7.80648e-05
7.65937e-05
7.59747e-05
7.61196e-05
7.6907e-05
7.80196e-05
7.88037e-05
7.84197e-05
7.62323e-05
7.15142e-05
6.47704e-05
2.82753e-05
9.0534e-05
0.000143174
0.000182329
0.000207983
0.000224239
0.000234724
0.000241155
0.000244145
0.000243837
0.0002402
0.000233225
0.000223056
0.000210045
0.000194725
0.000177767
0.000159928
0.000142044
0.000125058
0.000110155
9.87365e-05
9.06693e-05
8.51854e-05
8.16084e-05
7.94239e-05
7.82873e-05
7.79967e-05
7.84278e-05
7.9425e-05
8.06524e-05
8.14718e-05
8.10919e-05
7.8897e-05
7.41026e-05
6.71859e-05
3.01511e-05
9.44536e-05
0.000148649
0.000188746
0.000214874
0.000231391
0.000242031
0.000248526
0.000251476
0.000251017
0.00024711
0.000239752
0.000229105
0.000215532
0.000199582
0.000181938
0.00016337
0.000144748
0.000127054
0.000111528
9.96712e-05
9.14292e-05
8.59844e-05
8.26039e-05
8.07171e-05
7.99308e-05
7.99998e-05
8.07575e-05
8.20069e-05
8.33804e-05
8.42412e-05
8.38422e-05
8.15922e-05
7.66506e-05
6.94693e-05
3.20163e-05
9.8272e-05
0.000153953
0.000194956
0.000221557
0.000238348
0.00024916
0.000255735
0.000258662
0.00025807
0.00025392
0.000246219
0.000235142
0.000221065
0.000204548
0.000186275
0.000167031
0.0001477
0.000129297
0.000113114
0.000100736
9.2239e-05
8.67718e-05
8.35498e-05
8.1948e-05
8.1521e-05
8.19757e-05
8.30977e-05
8.46366e-05
8.61873e-05
8.71018e-05
8.66695e-05
8.4325e-05
7.91716e-05
7.16399e-05
3.38996e-05
0.000102054
0.000159179
0.000201066
0.000228135
0.000245207
0.000256199
0.000262858
0.000265769
0.000265054
0.000260683
0.000252673
0.000241213
0.00022669
0.000209665
0.000190822
0.000170948
0.000150937
0.000131823
0.000114938
0.000101947
9.31053e-05
8.75422e-05
8.44304e-05
8.30917e-05
8.3026e-05
8.38866e-05
8.54046e-05
8.72752e-05
8.90378e-05
9.00247e-05
8.95546e-05
8.70854e-05
8.16626e-05
7.37034e-05
3.57796e-05
0.000105761
0.000164281
0.000207041
0.000234599
0.000251981
0.000263169
0.000269913
0.000272802
0.00027197
0.000267395
0.000259109
0.000247312
0.000232399
0.000214929
0.000195577
0.000175128
0.000154471
0.00013465
0.000117029
0.000103338
9.40585e-05
8.83197e-05
8.52614e-05
8.41564e-05
8.44483e-05
8.57313e-05
8.76753e-05
8.99113e-05
9.192e-05
9.2999e-05
9.24902e-05
8.98706e-05
8.41291e-05
7.56756e-05
3.76636e-05
0.000109398
0.000169266
0.000212891
0.000240968
0.000258707
0.000270102
0.000276904
0.00027975
0.000278795
0.000274032
0.000265505
0.000253422
0.00023818
0.000220329
0.000200535
0.000179568
0.000158306
0.000137791
0.000119404
0.000104927
9.5114e-05
8.91121e-05
8.6041e-05
8.51304e-05
8.57671e-05
8.7482e-05
8.9877e-05
9.2512e-05
9.47998e-05
9.5994e-05
9.54462e-05
9.26642e-05
8.65658e-05
7.75586e-05
3.95465e-05
0.000112961
0.000174126
0.000218611
0.000247262
0.000265419
0.000277034
0.000283867
0.000286625
0.000285542
0.00028061
0.000271878
0.000259559
0.000244046
0.000225878
0.000205708
0.000184283
0.00016246
0.000141267
0.000122092
0.000106752
9.63095e-05
8.99517e-05
8.67937e-05
8.60306e-05
8.69936e-05
8.91459e-05
9.20144e-05
9.50795e-05
9.76778e-05
9.90142e-05
9.84651e-05
9.5485e-05
8.89859e-05
7.93608e-05
4.14241e-05
0.000116434
0.000178832
0.000224137
0.000253367
0.000271857
0.000283696
0.000290642
0.000293341
0.000292156
0.000287086
0.000278191
0.000265687
0.000249963
0.000231547
0.000211071
0.000189255
0.000166929
0.000145092
0.000125123
0.000108858
9.76883e-05
9.08735e-05
8.75416e-05
8.68647e-05
8.8122e-05
9.07059e-05
9.40614e-05
9.75825e-05
0.000100525
0.000102042
0.00010153
9.83089e-05
9.1362e-05
8.10803e-05
4.33003e-05
0.00011984
0.000183424
0.00022952
0.000259296
0.000278125
0.000290204
0.000297291
0.000300008
0.000298697
0.000293497
0.000284467
0.000271819
0.000255938
0.000237336
0.000216621
0.000194483
0.000171713
0.000149275
0.000128522
0.000111293
9.93003e-05
9.1926e-05
8.83265e-05
8.76659e-05
8.91776e-05
9.21813e-05
9.60333e-05
0.000100032
0.000103341
0.000105059
0.000104633
0.000101202
9.37312e-05
8.27288e-05
4.51668e-05
0.000123156
0.000187878
0.000234769
0.000265011
0.000284144
0.000296454
0.000303692
0.000306458
0.000305059
0.000299776
0.000290659
0.000277923
0.000261943
0.00024322
0.000222339
0.000199953
0.000176813
0.000153832
0.000132327
0.000114122
0.000101214
9.31681e-05
8.9192e-05
8.84601e-05
9.01698e-05
9.35684e-05
9.79174e-05
0.000102413
0.000106131
0.000108139
0.000107776
0.000104132
9.60913e-05
8.43093e-05
4.70255e-05
0.000126381
0.000192186
0.000239865
0.000270528
0.000289962
0.000302517
0.00030993
0.000312777
0.000311329
0.00030598
0.000296797
0.000284003
0.000267969
0.000249181
0.000228197
0.000205636
0.0001822
0.00015875
0.000136549
0.000117393
0.000103491
9.46682e-05
9.02006e-05
8.92974e-05
9.11355e-05
9.48934e-05
9.97338e-05
0.000104744
0.000108909
0.000111255
0.000110957
0.000107087
9.84397e-05
8.5826e-05
4.88683e-05
0.000129505
0.00019632
0.000244734
0.000275802
0.000295534
0.000308337
0.00031594
0.000318904
0.000317486
0.000312061
0.000302834
0.000290024
0.000273991
0.000255201
0.000234184
0.000211524
0.000187874
0.000164035
0.00014121
0.000121151
0.000106194
9.64928e-05
9.14144e-05
9.02254e-05
9.21028e-05
9.61658e-05
0.000101477
0.000107011
0.00011165
0.000114367
0.000114145
0.000110046
0.000100767
8.72826e-05
5.07005e-05
0.000132552
0.000200326
0.000249438
0.000280889
0.000300908
0.000313953
0.000321746
0.000324831
0.000323453
0.000317982
0.000308752
0.000295971
0.000279987
0.000261246
0.000240256
0.000217565
0.000193779
0.000169635
0.000146269
0.000125372
0.00010934
9.86885e-05
9.28933e-05
9.13029e-05
9.31215e-05
9.74252e-05
0.00010318
0.000109238
0.00011437
0.000117479
0.00011734
0.000113007
0.000103073
8.86847e-05
5.25167e-05
0.000135507
0.000204177
0.000253945
0.000285757
0.000306055
0.000319348
0.000327342
0.000330565
0.000329254
0.000323766
0.000314564
0.000301847
0.000285952
0.000267311
0.000246407
0.000223753
0.000199908
0.000175545
0.000151724
0.000130061
0.000112955
0.000101303
9.46949e-05
9.25845e-05
9.42319e-05
9.86923e-05
0.000104843
0.000111414
0.000117052
0.000120568
0.000120523
0.000115957
0.000105355
9.00386e-05
5.432e-05
0.000138394
0.00020791
0.00025829
0.000290436
0.000310998
0.000324528
0.00033272
0.000336087
0.000334854
0.000329373
0.000320225
0.000307603
0.000291835
0.000273337
0.00025257
0.000230015
0.000206186
0.00018169
0.000157507
0.000135165
0.000117028
0.000104358
9.68666e-05
9.41285e-05
9.54904e-05
0.000100015
0.000106504
0.000113562
0.0001197
0.000123635
0.000123692
0.000118893
0.000107614
9.13494e-05
5.61135e-05
0.000141213
0.000211525
0.000262469
0.00029492
0.000315734
0.000329499
0.000337894
0.000341416
0.000340281
0.000334833
0.000325762
0.000313259
0.000297649
0.000279333
0.000258751
0.000236352
0.000212607
0.000188059
0.000163607
0.000140679
0.00012157
0.000107888
9.94582e-05
9.59916e-05
9.69477e-05
0.000101427
0.00010818
0.00011569
0.000122343
0.000126675
0.000126838
0.000121811
0.000109848
9.26241e-05
5.78965e-05
0.000143976
0.000215043
0.00026649
0.00029921
0.000320254
0.000334243
0.000342835
0.000346516
0.000345494
0.000340106
0.000331122
0.000318754
0.000303326
0.000285225
0.00026487
0.000242679
0.000219082
0.000194564
0.000169939
0.000146532
0.000126546
0.000111891
0.000102502
9.82278e-05
9.86638e-05
0.000102984
0.000109912
0.000117832
0.000125002
0.000129701
0.00012996
0.000124705
0.000112056
9.38652e-05
5.96702e-05
0.000146689
0.00021851
0.000270367
0.000303319
0.00032458
0.000338785
0.000347574
0.000351417
0.000350523
0.000345237
0.000336332
0.000324113
0.00030889
0.000291035
0.000270943
0.000249005
0.000225612
0.000201193
0.000176484
0.000152704
0.000131945
0.000116379
0.000106032
0.000100888
0.000100696
0.000104734
0.000111738
0.000120006
0.000127666
0.00013271
0.000133057
0.000127573
0.00011424
9.50789e-05
6.14125e-05
0.00014929
0.000221817
0.000274046
0.000307213
0.000328676
0.000343087
0.000352064
0.000356064
0.000355295
0.000350112
0.000341308
0.000329261
0.000314269
0.000296688
0.000276891
0.000255245
0.000232106
0.000207852
0.000183147
0.000159105
0.000137702
0.000121313
0.000110048
0.000104007
0.0001031
0.000106741
0.000113712
0.00012225
0.000130353
0.000135711
0.000136132
0.000130417
0.000116396
9.6264e-05
6.31547e-05
0.000151837
0.000225027
0.000277585
0.000310939
0.000332591
0.000347202
0.000356363
0.000360516
0.00035987
0.000354797
0.000346111
0.000334254
0.000319511
0.000302223
0.000282746
0.000261424
0.000238579
0.000214546
0.000189918
0.000165714
0.000143793
0.000126677
0.00011455
0.000107609
0.00010592
0.000109055
0.000115876
0.00012459
0.000133074
0.000138709
0.000139186
0.000133234
0.000118527
9.74239e-05
6.48773e-05
0.000154283
0.000228073
0.000280919
0.000314441
0.000336272
0.000351074
0.000360413
0.000364719
0.000364197
0.000359235
0.000350668
0.00033901
0.000324539
0.000307561
0.000288426
0.000267455
0.000244942
0.00022118
0.000196703
0.00017244
0.000150137
0.000132407
0.000119502
0.000111691
0.000109185
0.000111723
0.000118282
0.00012707
0.000135858
0.00014172
0.000142229
0.000136027
0.000120629
9.85557e-05
6.65985e-05
0.00015668
0.000231018
0.000284113
0.00031778
0.000339776
0.000354761
0.000364272
0.000368724
0.000368327
0.000363483
0.000355049
0.000343594
0.000329388
0.000312745
0.00029397
0.000273369
0.000251215
0.000227761
0.000203493
0.000179256
0.000156695
0.000138462
0.00012487
0.000116242
0.000112909
0.00011478
0.000120968
0.000129719
0.000138721
0.000144752
0.00014526
0.000138796
0.000122703
9.96599e-05
6.82997e-05
0.000158968
0.000233792
0.0002871
0.000320894
0.000343044
0.000358202
0.000367877
0.000372471
0.000372195
0.00036747
0.00035918
0.000347945
0.000334018
0.000317703
0.000299305
0.000279094
0.000257322
0.000234213
0.000210206
0.000186079
0.000163379
0.000144762
0.000130593
0.000121222
0.000117085
0.00011825
0.00012398
0.000132585
0.000141702
0.000147828
0.000148292
0.000141544
0.000124746
0.000100733
6.99989e-05
0.000161199
0.000236464
0.00028995
0.000323851
0.000346141
0.000361461
0.000371292
0.000376019
0.000375861
0.000371257
0.000363118
0.000352107
0.000338469
0.000322491
0.000304465
0.000284657
0.000263282
0.000240541
0.000216835
0.000192881
0.000170145
0.000151257
0.000136616
0.000126585
0.000121683
0.000122123
0.000127325
0.000135688
0.000144821
0.000150963
0.000151334
0.000144274
0.000126759
0.000101774
7.16774e-05
0.000163325
0.00023897
0.000292597
0.000326585
0.000349002
0.000364475
0.000374452
0.000379306
0.000379261
0.000374779
0.000366801
0.000356023
0.000342682
0.00032705
0.000309405
0.000289998
0.000269041
0.00024669
0.000223319
0.000199597
0.00017692
0.000157878
0.000142883
0.00013229
0.000126679
0.000126395
0.000131017
0.000139049
0.000148099
0.000154175
0.000154397
0.00014699
0.00012874
0.000102778
7.33486e-05
0.00016539
0.000241373
0.00029511
0.000329165
0.000351695
0.000367308
0.000377421
0.000382394
0.000382456
0.000378095
0.000370282
0.000359742
0.000346699
0.000331416
0.000314155
0.000295152
0.000274604
0.000252666
0.000229653
0.000206208
0.000183667
0.000164578
0.00014934
0.000138289
0.000132042
0.000131054
0.000135055
0.000142675
0.000151545
0.000157471
0.000157487
0.000149696
0.000130689
0.000103741
7.49914e-05
0.000167346
0.00024361
0.000297422
0.000331525
0.000354155
0.000369898
0.000380137
0.00038522
0.000385385
0.000381146
0.000373507
0.000363212
0.000350475
0.000335546
0.000318674
0.000300081
0.000279947
0.000258411
0.00023579
0.000212664
0.000190331
0.000171298
0.000155928
0.000144528
0.000137731
0.000136079
0.000139442
0.000146578
0.000155174
0.000160863
0.00016061
0.000152391
0.000132605
0.000104663
7.662e-05
0.000169239
0.000245746
0.000299603
0.000333735
0.00035645
0.000372309
0.000382663
0.000387846
0.000388106
0.000383986
0.000376525
0.000366478
0.000354047
0.000339472
0.000322987
0.000304803
0.000285086
0.000263959
0.000241723
0.000218947
0.00019688
0.000177994
0.000162591
0.000150944
0.00014369
0.000141431
0.000144159
0.000150761
0.000158998
0.000164363
0.000163776
0.000155084
0.000134492
0.00010555
7.82126e-05
0.000171023
0.000247718
0.000301587
0.000335728
0.000358516
0.000374481
0.000384939
0.000390214
0.000390564
0.000386565
0.000379292
0.000369498
0.000357379
0.000343159
0.000327064
0.000309291
0.000289995
0.000269286
0.000247452
0.000225045
0.000203296
0.000184634
0.000169284
0.000157482
0.000149858
0.000147056
0.000149164
0.000155197
0.000163004
0.000167969
0.000166985
0.000157777
0.000136354
0.000106405
7.97832e-05
0.000172742
0.00024959
0.000303443
0.000337574
0.000360419
0.000376477
0.000387028
0.000392385
0.000392817
0.000388936
0.000381853
0.000372315
0.000360505
0.00034664
0.000330931
0.000313566
0.000294688
0.000274399
0.000252975
0.000230958
0.000209571
0.000191202
0.000175978
0.000164103
0.00015619
0.000152911
0.000154434
0.000159884
0.000167201
0.000171689
0.000170248
0.000160476
0.000138196
0.000107234
8.13109e-05
0.000174351
0.0002513
0.000305106
0.00033921
0.000362099
0.000378239
0.000388875
0.000394306
0.000394818
0.000391057
0.000384172
0.000374895
0.000363398
0.000349888
0.000334566
0.000317607
0.000299148
0.00027928
0.000258275
0.00023667
0.000215685
0.000197671
0.000182638
0.00017076
0.000162629
0.000158932
0.000159898
0.000164751
0.000171546
0.000175506
0.000173559
0.000163184
0.000140023
0.000108041
8.28089e-05
0.000175892
0.000252909
0.000306642
0.000340701
0.000363621
0.000379831
0.00039054
0.000396035
0.00039662
0.000392977
0.000386296
0.00037728
0.000366094
0.000352935
0.000337994
0.000321438
0.000303393
0.000283946
0.000263367
0.000242193
0.000221652
0.000204038
0.00018925
0.000177429
0.000169146
0.00016509
0.000165543
0.000169827
0.000176042
0.000179418
0.000176919
0.000165903
0.000141838
0.00010883
8.42593e-05
0.000177324
0.000254361
0.000307992
0.000341989
0.000364929
0.0003812
0.000391974
0.000397528
0.000398183
0.000394661
0.000388193
0.000379444
0.000368572
0.000355764
0.000341202
0.000325045
0.000307414
0.000288389
0.000268243
0.000247523
0.000227471
0.000210294
0.000195793
0.000184079
0.000175701
0.000171344
0.00017133
0.000175071
0.000180666
0.000183411
0.00018032
0.000168632
0.000143643
0.000109603
8.56732e-05
0.000178685
0.000255711
0.000309215
0.000343135
0.000366083
0.000382403
0.000393233
0.000398837
0.000399558
0.000396159
0.000389907
0.000381427
0.000370866
0.000358405
0.000344218
0.000328455
0.000311232
0.00029263
0.000272925
0.000252677
0.000233158
0.000216448
0.000202265
0.000190699
0.000182274
0.000177667
0.000177228
0.000180447
0.000185402
0.000187481
0.000183764
0.000171373
0.000145442
0.000110367
8.70373e-05
0.000179941
0.000256911
0.000310262
0.00034409
0.000367035
0.000383397
0.000394275
0.000399926
0.000400712
0.000397439
0.000391415
0.000383209
0.000372962
0.000360848
0.000347032
0.00033166
0.000314843
0.000296664
0.000277406
0.000257651
0.000238708
0.000222487
0.000208646
0.000197259
0.000188827
0.000184015
0.000183192
0.000185909
0.000190215
0.000191604
0.000187238
0.000174123
0.000147237
0.000111123
8.83612e-05
0.000181123
0.000258007
0.000311184
0.000344906
0.000367837
0.000384231
0.00039515
0.000400842
0.000401691
0.000398547
0.000392756
0.000384826
0.000374891
0.000363118
0.000349669
0.000334682
0.000318268
0.000300511
0.000281706
0.000262463
0.000244132
0.000228421
0.000214946
0.000203763
0.000195354
0.000190375
0.000189202
0.000191439
0.000195094
0.000195779
0.000190745
0.000176885
0.000149026
0.000111874
8.9636e-05
0.000182208
0.000258965
0.000311943
0.000345545
0.000368451
0.00038487
0.000395823
0.000401553
0.000402466
0.000399458
0.000393912
0.000386264
0.000376643
0.000365211
0.000352124
0.000337518
0.000321503
0.000304167
0.000285822
0.000267105
0.000249419
0.000234237
0.000221147
0.000210189
0.000201829
0.00019671
0.000195216
0.000196993
0.000200002
0.000199977
0.000194265
0.00017965
0.000150818
0.000112621
9.08718e-05
0.000183221
0.000259825
0.000312583
0.00034605
0.000368922
0.000385356
0.000396338
0.0004021
0.000403077
0.000400209
0.000394916
0.000387552
0.000378243
0.000367148
0.000354418
0.000340188
0.000324567
0.000307651
0.000289769
0.000271593
0.000254581
0.000239947
0.000227258
0.000216546
0.000208258
0.000203019
0.000201229
0.000202568
0.000204935
0.000204199
0.000197804
0.000182427
0.000152625
0.000113364
9.20602e-05
0.000184144
0.000260555
0.00031307
0.00034639
0.000369218
0.000385661
0.000396665
0.000402459
0.000403504
0.000400785
0.000395755
0.000388681
0.000379687
0.000368927
0.000356552
0.000342693
0.000327462
0.000310965
0.000293549
0.000275929
0.000259614
0.000245543
0.000233271
0.000222819
0.00021462
0.000209284
0.000207216
0.00020813
0.000209864
0.000208422
0.000201346
0.000185205
0.000154431
0.000114098
9.32105e-05
0.000184999
0.00026119
0.000313442
0.000346602
0.000369377
0.000385821
0.000396842
0.000402665
0.000403782
0.000401218
0.000396457
0.000389674
0.000380992
0.000370565
0.000358541
0.00034505
0.000330206
0.000314126
0.000297181
0.000280127
0.000264529
0.000251036
0.000239194
0.000229018
0.000220923
0.000215508
0.000213167
0.000213676
0.000214785
0.000212643
0.000204888
0.000187983
0.000156232
0.000114823
9.43135e-05
0.000185766
0.000261702
0.000313669
0.000346658
0.000369372
0.000385811
0.000396846
0.0004027
0.000403898
0.000401506
0.000397019
0.000390525
0.000382155
0.000372061
0.000360388
0.000347264
0.000332806
0.000317144
0.000300674
0.000284199
0.000269333
0.000256427
0.000245024
0.000235132
0.000227156
0.000221677
0.000219091
0.000219198
0.000219688
0.000216852
0.000208422
0.000190752
0.000158025
0.000115538
9.5377e-05
0.000186465
0.000262119
0.000313784
0.00034659
0.000369236
0.000385663
0.000396706
0.000402591
0.000403882
0.000401693
0.000397463
0.00039125
0.000383189
0.000373427
0.000362104
0.000349347
0.000335277
0.000320035
0.000304048
0.000288168
0.000274044
0.000261729
0.00025077
0.000241171
0.000233322
0.000227791
0.00022497
0.000224683
0.000224567
0.000221047
0.000211948
0.000193514
0.00015981
0.000116243
9.63928e-05
0.000187078
0.000262417
0.000313761
0.000346377
0.000368949
0.000385361
0.000396408
0.000402321
0.00040371
0.000401742
0.000397765
0.000391838
0.00038409
0.000374663
0.000363694
0.000351308
0.00033763
0.000322816
0.000307325
0.00029206
0.000278677
0.00026695
0.000256434
0.000247129
0.000239411
0.000233835
0.00023079
0.000230128
0.000229403
0.000225215
0.000215455
0.000196261
0.000161582
0.000116936
9.73659e-05
0.000187621
0.000262618
0.000313626
0.000346043
0.000368537
0.000384931
0.000395982
0.000401926
0.000403416
0.000401678
0.000397958
0.000392316
0.000384879
0.000375787
0.000365172
0.000353159
0.000339881
0.000325509
0.000310535
0.000295921
0.000283267
0.000272118
0.000262039
0.000253025
0.00024544
0.000239823
0.00023656
0.000235532
0.000234216
0.000229359
0.000218948
0.000198999
0.000163349
0.000117621
9.82896e-05
0.000188078
0.000262702
0.000313359
0.000345571
0.000367986
0.000384361
0.000395415
0.000401393
0.000402993
0.000401495
0.000398039
0.000392684
0.000385559
0.000376801
0.000366541
0.000354906
0.000342036
0.000328123
0.000313697
0.000299782
0.000287836
0.000277246
0.000267588
0.000258858
0.000251402
0.000245744
0.000242267
0.00024088
0.000238984
0.000233477
0.00022242
0.000201722
0.000165101
0.000118298
9.91661e-05
0.00018846
0.000262688
0.000312979
0.000344983
0.000367315
0.000383672
0.000394733
0.00040075
0.000402469
0.000401224
0.000398036
0.000392969
0.000386152
0.000377723
0.000367816
0.000356559
0.000344103
0.000330664
0.000316817
0.000303651
0.000292393
0.000282348
0.000273103
0.000264652
0.000257325
0.000251625
0.000247931
0.000246183
0.000243715
0.000237569
0.000225876
0.000204432
0.000166847
0.000118973
9.99937e-05
0.000188763
0.000262566
0.000312479
0.000344267
0.000366516
0.000382856
0.000393927
0.000399992
0.000401845
0.000400867
0.000397957
0.000393181
0.000386671
0.000378568
0.000369007
0.000358125
0.000346083
0.000333127
0.000319877
0.000307491
0.000296909
0.0002874
0.000278565
0.000270393
0.000263198
0.00025746
0.000253551
0.000251443
0.000248408
0.000241634
0.000229314
0.00020713
0.00016859
0.000119652
0.000100777
0.000188997
0.000262352
0.000311872
0.000343438
0.000365601
0.000381924
0.00039301
0.000399133
0.000401134
0.000400443
0.000397822
0.000393341
0.000387139
0.000379358
0.000370139
0.000359626
0.000347997
0.000335525
0.000322884
0.000311296
0.000301381
0.000292403
0.000283976
0.000276087
0.00026903
0.000263262
0.000259144
0.000256679
0.000253082
0.000245687
0.000232746
0.000209828
0.000170335
0.000120332
0.000101521
0.000189166
0.000262047
0.000311156
0.00034249
0.000364563
0.000380869
0.000391974
0.000398167
0.000400336
0.000399954
0.000397637
0.000393462
0.000387568
0.000380108
0.000371226
0.000361077
0.000349856
0.000337869
0.000325842
0.000315052
0.000305793
0.000297336
0.000289312
0.000281706
0.000274795
0.000269008
0.000264694
0.000261883
0.000257735
0.00024973
0.000236175
0.000212527
0.000172085
0.000121017
0.000102233
0.000189281
0.000261662
0.000310341
0.000341431
0.000363407
0.000379694
0.000390822
0.000397097
0.000399454
0.000399404
0.000397411
0.000393553
0.000387977
0.00038084
0.000372295
0.000362508
0.000351694
0.000340193
0.000328784
0.000318785
0.000310166
0.000302217
0.000294588
0.000287263
0.000280502
0.000274705
0.000270206
0.000267067
0.00026238
0.000253775
0.000239612
0.000215236
0.000173845
0.000121704
0.000102916
0.000189346
0.000261199
0.000309423
0.000340255
0.000362126
0.000378392
0.000389546
0.000395916
0.000398483
0.000398791
0.00039714
0.000393614
0.000388366
0.000381559
0.000373354
0.000363932
0.000353527
0.000342516
0.000331737
0.000322507
0.000314502
0.000307041
0.000299792
0.000292741
0.00028613
0.000280334
0.000275683
0.000272215
0.000267005
0.000257816
0.000243055
0.000217953
0.000175613
0.000122395
0.000103578
0.000189368
0.000260664
0.000308408
0.000338964
0.00036072
0.000376959
0.000388143
0.000394623
0.000397426
0.000398115
0.000396825
0.000393648
0.000388743
0.000382279
0.000374425
0.000365376
0.000355392
0.000344888
0.000334761
0.000326267
0.000318844
0.000311842
0.000304951
0.00029816
0.000291695
0.000285915
0.000281152
0.000277343
0.000271619
0.000261859
0.000246509
0.000220686
0.000177394
0.000123088
0.000104219
0.000189345
0.000260052
0.000307288
0.000337551
0.00035918
0.000375385
0.000386601
0.000393213
0.000396284
0.00039737
0.000396454
0.000393641
0.000389095
0.000382989
0.000375501
0.00036684
0.000357294
0.000347322
0.000337884
0.000330082
0.000323202
0.000316628
0.000310071
0.000303524
0.000297203
0.000291449
0.000286595
0.00028245
0.00027622
0.000265904
0.000249973
0.000223433
0.000179189
0.000123785
0.000104845
0.000189283
0.000259368
0.000306067
0.000336016
0.000357505
0.000373666
0.000384915
0.000391684
0.000395089
0.000396555
0.000396019
0.000393589
0.000389424
0.000383696
0.000376592
0.000368338
0.00035925
0.000349838
0.000341124
0.000333973
0.000327599
0.000321422
0.000315173
0.00030885
0.000302663
0.000296938
0.000292005
0.000287533
0.000280811
0.000269953
0.000253453
0.0002262
0.000180999
0.000124483
0.000105454