/*--------------------------------*- C++ -*----------------------------------*\
| =========                 |                                                 |
| \\      /  F ield         | OpenFOAM: The Open Source CFD Toolbox           |
|  \\    /   O peration     | Version:  v1906                                 |
|   \\  /    A nd           | Web:      www.OpenFOAM.com                      |
|    \\/     M anipulation  |                                                 |
\*---------------------------------------------------------------------------*/
FoamFile
{
    version     2.0;
    format      ascii;
    class       surfaceScalarField;
    location    "78";
    object      phi;
}
// * * * * * * * * * * * * * * * * * * * * * * * * * * * * * * * * * * * * * //

dimensions      [1 0 -1 0 0 0 0];
oriented        oriented;


internalField   nonuniform List<scalar> 
228225
(
1.06687e-07
-1.50789e-07
5.6455e-08
3.04059e-07
-3.42614e-07
1.45078e-07
6.04429e-07
-5.07858e-07
2.07271e-07
1.02971e-06
-6.7224e-07
2.46746e-07
1.5938e-06
-8.33769e-07
2.69494e-07
2.2944e-06
-9.82283e-07
2.81547e-07
3.1156e-06
-1.10863e-06
2.87328e-07
4.03341e-06
-1.20742e-06
2.89553e-07
5.02024e-06
-1.27655e-06
2.897e-07
6.04782e-06
-1.31606e-06
2.88494e-07
7.08876e-06
-1.32713e-06
2.86246e-07
8.11727e-06
-1.31148e-06
2.8305e-07
9.10959e-06
-1.27111e-06
2.78899e-07
1.00441e-05
-1.20812e-06
2.73749e-07
1.09011e-05
-1.12432e-06
2.67566e-07
1.16625e-05
-1.02156e-06
2.60308e-07
1.23128e-05
-9.01927e-07
2.51966e-07
1.2838e-05
-7.67501e-07
2.42564e-07
1.32267e-05
-6.20564e-07
2.32173e-07
1.34699e-05
-4.63702e-07
2.20909e-07
1.35614e-05
-2.99979e-07
2.08935e-07
1.3499e-05
-1.33617e-07
1.96467e-07
1.32839e-05
3.17929e-08
1.8376e-07
1.2903e-05
2.10324e-07
1.71136e-07
1.23673e-05
3.77248e-07
1.5897e-07
1.16858e-05
5.34487e-07
1.47642e-07
1.08688e-05
6.79971e-07
1.37508e-07
9.92787e-06
8.12646e-07
1.28871e-07
8.87277e-06
9.33653e-07
1.2195e-07
7.70709e-06
1.04934e-06
1.16796e-07
6.41376e-06
1.18063e-06
1.13075e-07
4.9332e-06
1.37155e-06
1.09235e-07
3.19021e-06
1.64247e-06
1.00431e-07
1.29539e-06
1.81648e-06
7.75536e-08
1.26032e-06
3.32535e-08
1.0966e-07
-3.13044e-07
5.25847e-08
4.20875e-07
-7.8301e-07
1.29141e-07
9.07045e-07
-1.17424e-06
1.801e-07
1.543e-06
-1.521e-06
2.12627e-07
2.29788e-06
-1.82124e-06
2.32354e-07
3.13734e-06
-2.06588e-06
2.43845e-07
4.02823e-06
-2.25022e-06
2.50375e-07
4.94149e-06
-2.37506e-06
2.54041e-07
5.85283e-06
-2.44429e-06
2.56065e-07
6.74217e-06
-2.46285e-06
2.57108e-07
7.59286e-06
-2.43564e-06
2.57491e-07
8.39088e-06
-2.36715e-06
2.57335e-07
9.12417e-06
-2.2613e-06
2.56609e-07
9.7822e-06
-2.12161e-06
2.55192e-07
1.03558e-05
-1.95124e-06
2.53035e-07
1.08371e-05
-1.75311e-06
2.50089e-07
1.12187e-05
-1.52995e-06
2.46245e-07
1.14938e-05
-1.28405e-06
2.41385e-07
1.16559e-05
-1.01808e-06
2.354e-07
1.16992e-05
-7.3522e-07
2.2815e-07
1.1619e-05
-4.39218e-07
2.19518e-07
1.14107e-05
-1.34538e-07
2.09438e-07
1.10711e-05
1.7367e-07
1.97934e-07
1.06174e-05
4.79215e-07
1.85179e-07
1.00486e-05
7.7503e-07
1.71404e-07
9.37215e-06
1.05434e-06
1.57018e-07
8.59805e-06
1.31195e-06
1.42611e-07
7.73534e-06
1.54683e-06
1.29011e-07
6.78798e-06
1.76443e-06
1.17043e-07
5.748e-06
1.98254e-06
1.07177e-07
4.58982e-06
2.2398e-06
9.92895e-08
3.28798e-06
2.58168e-06
9.17638e-08
1.89773e-06
2.95215e-06
8.01904e-08
6.42247e-07
3.01248e-06
5.84082e-08
1.87742e-06
2.31305e-08
1.37362e-07
-5.01359e-07
5.0926e-08
5.59228e-07
-1.32176e-06
1.16931e-07
1.21684e-06
-1.98846e-06
1.56642e-07
2.03729e-06
-2.521e-06
1.79573e-07
2.94595e-06
-2.92223e-06
1.92328e-07
3.88196e-06
-3.20137e-06
1.99453e-07
4.80354e-06
-3.37559e-06
2.03738e-07
5.68481e-06
-3.4631e-06
2.06721e-07
6.51017e-06
-3.47888e-06
2.09166e-07
7.27013e-06
-3.4343e-06
2.11418e-07
7.95867e-06
-3.33786e-06
2.13617e-07
8.57162e-06
-3.19599e-06
2.15818e-07
9.10549e-06
-3.01333e-06
2.18092e-07
9.55661e-06
-2.7933e-06
2.20492e-07
9.92149e-06
-2.53917e-06
2.22973e-07
1.01973e-05
-2.25444e-06
2.25413e-07
1.0382e-05
-1.94242e-06
2.27721e-07
1.0474e-05
-1.60594e-06
2.29814e-07
1.04724e-05
-1.24808e-06
2.31556e-07
1.03767e-05
-8.72251e-07
2.32607e-07
1.01873e-05
-4.82363e-07
2.32556e-07
9.90746e-06
-8.56319e-08
2.30903e-07
9.53009e-06
3.24e-07
2.27086e-07
9.05879e-06
7.30018e-07
2.20597e-07
8.49767e-06
1.12524e-06
2.11065e-07
7.85275e-06
1.50106e-06
1.9841e-07
7.13183e-06
1.85015e-06
1.82981e-07
6.34216e-06
2.17118e-06
1.65606e-07
5.48531e-06
2.47413e-06
1.47429e-07
4.55211e-06
2.78642e-06
1.29542e-07
3.52682e-06
3.15278e-06
1.124e-07
2.41975e-06
3.59328e-06
9.52996e-08
1.32754e-06
3.96736e-06
7.63948e-08
4.18751e-07
3.86723e-06
5.27943e-08
2.2728e-06
2.12607e-08
1.84973e-07
-7.33483e-07
4.72097e-08
6.66463e-07
-1.90394e-06
1.00739e-07
1.35269e-06
-2.80281e-06
1.28185e-07
2.14787e-06
-3.45759e-06
1.41486e-07
2.97097e-06
-3.89288e-06
1.47635e-07
3.77182e-06
-4.15257e-06
1.5041e-07
4.52794e-06
-4.28317e-06
1.5153e-07
5.23197e-06
-4.31873e-06
1.51669e-07
5.88206e-06
-4.28005e-06
1.5114e-07
6.4769e-06
-4.17918e-06
1.50105e-07
7.015e-06
-4.02471e-06
1.48821e-07
7.49391e-06
-3.82247e-06
1.47641e-07
7.90957e-06
-3.57584e-06
1.46915e-07
8.25698e-06
-3.28765e-06
1.46994e-07
8.53093e-06
-2.96125e-06
1.48203e-07
8.72655e-06
-2.6008e-06
1.50806e-07
8.84046e-06
-2.21124e-06
1.54967e-07
8.87181e-06
-1.79796e-06
1.60737e-07
8.82196e-06
-1.36622e-06
1.68048e-07
8.69384e-06
-9.20716e-07
1.76649e-07
8.49074e-06
-4.65277e-07
1.8608e-07
8.21283e-06
-3.28985e-09
1.95647e-07
7.86994e-06
4.62548e-07
2.04424e-07
7.46187e-06
9.26959e-07
2.11231e-07
6.9889e-06
1.38354e-06
2.14793e-07
6.45199e-06
1.82412e-06
2.13994e-07
5.85236e-06
2.24173e-06
2.082e-07
5.18995e-06
2.63624e-06
1.97512e-07
4.46023e-06
3.02132e-06
1.82681e-07
3.65356e-06
3.42863e-06
1.64569e-07
2.76627e-06
3.89647e-06
1.43575e-07
1.83502e-06
4.40448e-06
1.1979e-07
9.62936e-07
4.74491e-06
9.38747e-08
2.79908e-07
4.48429e-06
6.47043e-08
2.52366e-06
2.69383e-08
1.73428e-07
-9.41076e-07
3.4249e-08
6.01724e-07
-2.40146e-06
6.92512e-08
1.17936e-06
-3.46674e-06
8.63395e-08
1.81473e-06
-4.18803e-06
9.51159e-08
2.44568e-06
-4.62345e-06
9.96436e-08
3.04608e-06
-4.85417e-06
1.01225e-07
3.61198e-06
-4.94916e-06
1.00098e-07
4.14609e-06
-4.94928e-06
9.64363e-08
4.65041e-06
-4.87515e-06
9.07895e-08
5.12406e-06
-4.73667e-06
8.38353e-08
5.56344e-06
-4.54027e-06
7.61805e-08
5.96235e-06
-4.28982e-06
6.84395e-08
6.31284e-06
-3.98758e-06
6.12614e-08
6.60634e-06
-3.63643e-06
5.52862e-08
6.83529e-06
-3.24131e-06
5.11179e-08
6.99443e-06
-2.80924e-06
4.93089e-08
7.08149e-06
-2.3486e-06
5.0316e-08
7.09719e-06
-1.86809e-06
5.44393e-08
7.04475e-06
-1.37562e-06
6.18674e-08
6.929e-06
-8.77526e-07
7.25928e-08
6.75547e-06
-3.78086e-07
8.63861e-08
6.52908e-06
1.20348e-07
1.02799e-07
6.25549e-06
6.15157e-07
1.21046e-07
5.93669e-06
1.10591e-06
1.39915e-07
5.57306e-06
1.58948e-06
1.57772e-07
5.1627e-06
2.06186e-06
1.72711e-07
4.70122e-06
2.52038e-06
1.82919e-07
4.18125e-06
2.96919e-06
1.87107e-07
3.59212e-06
3.42588e-06
1.84643e-07
2.92342e-06
3.92217e-06
1.75187e-07
2.18055e-06
4.48085e-06
1.58396e-07
1.41436e-06
5.03569e-06
1.34643e-07
7.18414e-07
5.33403e-06
1.0612e-07
1.96516e-07
4.93226e-06
7.2677e-08
2.6891e-06
2.90112e-08
1.53678e-07
-1.12075e-06
2.60435e-08
5.14606e-07
-2.81709e-06
5.47616e-08
9.87026e-07
-4.01067e-06
7.15651e-08
1.49765e-06
-4.78084e-06
8.22547e-08
2.00391e-06
-5.21816e-06
8.85038e-08
2.49224e-06
-5.43316e-06
9.06827e-08
2.96221e-06
-5.50811e-06
8.90171e-08
3.41474e-06
-5.48571e-06
8.39507e-08
3.84887e-06
-5.38533e-06
7.60881e-08
4.26202e-06
-5.21588e-06
6.61135e-08
4.64852e-06
-4.98136e-06
5.46363e-08
4.99975e-06
-4.68324e-06
4.22359e-08
5.30617e-06
-4.32351e-06
2.9568e-08
5.55912e-06
-3.90666e-06
1.73261e-08
5.75239e-06
-3.44061e-06
6.08307e-09
5.8822e-06
-2.93622e-06
-2.78373e-09
5.94769e-06
-2.40579e-06
-8.25368e-09
5.95199e-06
-1.86142e-06
-1.09257e-08
5.90002e-06
-1.31358e-06
-1.00266e-08
5.79788e-06
-7.70147e-07
-5.19289e-09
5.65186e-06
-2.3602e-07
3.99957e-09
5.46765e-06
2.86667e-07
1.79366e-08
5.24921e-06
7.97896e-07
3.57544e-08
4.99935e-06
1.29886e-06
5.69646e-08
4.71747e-06
1.79111e-06
8.03112e-08
4.39905e-06
2.27638e-06
1.03955e-07
4.03523e-06
2.75854e-06
1.25717e-07
3.61303e-06
3.24805e-06
1.43403e-07
3.11751e-06
3.76649e-06
1.54938e-07
2.53893e-06
4.34245e-06
1.58268e-07
1.88993e-06
4.97826e-06
1.51441e-07
1.22701e-06
5.56462e-06
1.33608e-07
6.27441e-07
5.82606e-06
1.06814e-07
1.77307e-07
5.30908e-06
7.20898e-08
2.83766e-06
2.67194e-08
1.29013e-07
-1.26804e-06
1.82964e-08
4.25831e-07
-3.15391e-06
4.00721e-08
8.106e-07
-4.44999e-06
5.46105e-08
1.22692e-06
-5.26196e-06
6.48446e-08
1.64333e-06
-5.70562e-06
7.10899e-08
2.05018e-06
-5.91333e-06
7.33512e-08
2.44655e-06
-5.97637e-06
7.19116e-08
2.83197e-06
-5.93841e-06
6.73102e-08
3.20436e-06
-5.81783e-06
6.0137e-08
3.5597e-06
-5.62206e-06
5.08706e-08
3.89171e-06
-5.35322e-06
3.98806e-08
4.19281e-06
-5.01179e-06
2.74865e-08
4.45509e-06
-4.59984e-06
1.40756e-08
4.67212e-06
-4.12341e-06
-2.46754e-10
4.83703e-06
-3.59322e-06
-1.22619e-08
4.94808e-06
-3.02321e-06
-2.40231e-08
5.00537e-06
-2.42891e-06
-3.41326e-08
5.01118e-06
-1.82536e-06
-4.18247e-08
4.96948e-06
-1.22545e-06
-4.63735e-08
4.88536e-06
-6.38854e-07
-4.71246e-08
4.76375e-06
-7.08262e-08
-4.3537e-08
4.61239e-06
4.73299e-07
-3.52226e-08
4.43546e-06
9.9681e-07
-2.19358e-08
4.23543e-06
1.50258e-06
-3.64303e-09
4.01148e-06
1.9963e-06
1.88048e-08
3.75792e-06
2.48567e-06
4.43174e-08
3.46382e-06
2.98177e-06
7.0906e-08
3.1137e-06
3.50203e-06
9.61628e-08
2.69115e-06
4.07179e-06
1.17254e-07
2.18803e-06
4.71469e-06
1.30827e-07
1.62115e-06
5.41162e-06
1.33333e-07
1.04609e-06
6.01686e-06
1.22418e-07
5.28459e-07
6.24374e-06
9.92271e-08
1.4756e-07
5.62303e-06
6.57411e-08
2.96064e-06
2.2593e-08
1.01852e-07
-1.38503e-06
1.51862e-08
3.42892e-07
-3.43205e-06
3.71364e-08
6.62984e-07
-4.82428e-06
5.4241e-08
1.01686e-06
-5.68299e-06
6.71942e-08
1.37795e-06
-6.14218e-06
7.5501e-08
1.73658e-06
-6.35103e-06
7.91043e-08
2.09025e-06
-6.40851e-06
7.84965e-08
2.43716e-06
-6.35974e-06
7.44522e-08
2.7743e-06
-6.22264e-06
6.7701e-08
3.09696e-06
-6.00346e-06
5.877e-08
3.39901e-06
-5.70317e-06
4.79479e-08
3.67346e-06
-5.32167e-06
3.54605e-08
3.91358e-06
-4.86158e-06
2.1669e-08
4.1138e-06
-4.33068e-06
7.08714e-09
4.27014e-06
-3.74187e-06
-7.64319e-09
4.38051e-06
-3.1116e-06
-2.195e-08
4.44457e-06
-2.45775e-06
-3.51739e-08
4.46371e-06
-1.79764e-06
-4.68031e-08
4.44078e-06
-1.14625e-06
-5.6226e-08
4.37984e-06
-5.15177e-07
-6.2692e-08
4.28682e-06
8.76895e-08
-6.54443e-08
4.16502e-06
6.58928e-07
-6.37846e-08
4.02013e-06
1.19886e-06
-5.71124e-08
3.85486e-06
1.71281e-06
-4.4915e-08
3.66804e-06
2.21014e-06
-2.69815e-08
3.4531e-06
2.70413e-06
-3.48269e-09
3.19911e-06
3.2127e-06
2.30864e-08
2.88956e-06
3.7599e-06
5.16962e-08
2.50801e-06
4.37436e-06
7.89503e-08
2.04782e-06
5.07432e-06
1.00465e-07
1.52705e-06
5.82094e-06
1.11225e-07
9.96928e-07
6.43926e-06
1.07278e-07
5.13874e-07
6.63742e-06
8.86263e-08
1.50821e-07
5.92699e-06
5.78932e-08
3.09083e-06
1.86512e-08
9.61703e-08
-1.49431e-06
1.31674e-08
3.18733e-07
-3.68868e-06
3.41056e-08
6.12119e-07
-5.16866e-06
5.10315e-08
9.36125e-07
-6.07095e-06
6.39868e-08
1.26678e-06
-6.5454e-06
7.25905e-08
1.59505e-06
-6.75624e-06
7.69837e-08
1.91807e-06
-6.8092e-06
7.76981e-08
2.23369e-06
-6.75074e-06
7.54071e-08
2.53883e-06
-6.59843e-06
7.06923e-08
2.82915e-06
-6.35769e-06
6.39515e-08
3.09932e-06
-6.02866e-06
5.53471e-08
3.34362e-06
-5.61091e-06
4.49749e-08
3.55675e-06
-5.10774e-06
3.30693e-08
3.73445e-06
-4.52832e-06
1.99865e-08
3.87367e-06
-3.8873e-06
6.25525e-09
3.97291e-06
-3.20285e-06
-7.94337e-09
4.03178e-06
-2.49456e-06
-2.20206e-08
4.0509e-06
-1.78143e-06
-3.52882e-08
4.0323e-06
-1.08026e-06
-4.73376e-08
3.97914e-06
-4.04448e-07
-5.75224e-08
3.89559e-06
2.3636e-07
-6.50649e-08
3.78694e-06
8.3676e-07
-6.91406e-08
3.65779e-06
1.397e-06
-6.89502e-08
3.51101e-06
1.92336e-06
-6.37335e-08
3.34577e-06
2.42812e-06
-5.27015e-08
3.15603e-06
2.92926e-06
-3.53573e-08
2.92977e-06
3.45074e-06
-1.17488e-08
2.65126e-06
4.02248e-06
1.59289e-08
2.30482e-06
4.67578e-06
4.49785e-08
1.8844e-06
5.42357e-06
7.10561e-08
1.40748e-06
6.20976e-06
8.78655e-08
9.20328e-07
6.83599e-06
8.99768e-08
4.73937e-07
7.00688e-06
7.6187e-08
1.39106e-07
6.21124e-06
4.9383e-08
3.21287e-06
1.50953e-08
8.22519e-08
-1.58983e-06
1.33151e-08
2.80727e-07
-3.92294e-06
3.58298e-08
5.47978e-07
-5.49033e-06
5.44606e-08
8.46675e-07
-6.43838e-06
6.87698e-08
1.15407e-06
-6.93103e-06
7.82662e-08
1.46095e-06
-7.14628e-06
8.31789e-08
1.7639e-06
-7.19641e-06
8.42803e-08
2.06026e-06
-7.12955e-06
8.24889e-08
2.34661e-06
-6.96328e-06
7.85216e-08
2.61857e-06
-6.70244e-06
7.28192e-08
2.87108e-06
-6.34667e-06
6.55286e-08
3.09906e-06
-5.89556e-06
5.67054e-08
3.29806e-06
-5.35318e-06
4.64756e-08
3.46471e-06
-4.72995e-06
3.50107e-08
3.59677e-06
-4.04188e-06
2.25587e-08
3.69292e-06
-3.30847e-06
9.52104e-09
3.75264e-06
-2.55046e-06
-3.77295e-09
3.77676e-06
-1.78799e-06
-1.75098e-08
3.76627e-06
-1.03917e-06
-3.05513e-08
3.72346e-06
-3.18993e-07
-4.25953e-08
3.65167e-06
3.61148e-07
-5.29571e-08
3.55507e-06
9.9426e-07
-6.08493e-08
3.43787e-06
1.57969e-06
-6.54331e-08
3.30283e-06
2.12433e-06
-6.58766e-08
3.14956e-06
2.64267e-06
-6.12398e-08
2.97289e-06
3.15647e-06
-5.05006e-08
2.762e-06
3.69459e-06
-3.29445e-08
2.50125e-06
4.29177e-06
-8.54534e-09
2.17653e-06
4.9813e-06
1.91469e-08
1.78264e-06
5.77093e-06
4.64095e-08
1.33576e-06
6.58961e-06
6.67747e-08
8.7754e-07
7.22019e-06
7.35677e-08
4.54623e-07
7.36466e-06
6.4387e-08
1.34998e-07
6.48774e-06
4.1923e-08
3.33337e-06
1.25266e-08
8.3624e-08
-1.68673e-06
1.33104e-08
2.78416e-07
-4.15395e-06
3.62584e-08
5.35941e-07
-5.80291e-06
5.50932e-08
8.20437e-07
-6.79228e-06
6.94305e-08
1.11075e-06
-7.3004e-06
7.90807e-08
1.39881e-06
-7.51874e-06
8.44239e-08
1.68172e-06
-7.56551e-06
8.62161e-08
1.95709e-06
-7.4902e-06
8.53089e-08
2.22177e-06
-7.31032e-06
8.23769e-08
2.47175e-06
-7.03024e-06
7.78562e-08
2.70246e-06
-6.64927e-06
7.1925e-08
2.9095e-06
-6.16721e-06
6.46403e-08
3.08918e-06
-5.58891e-06
5.60947e-08
3.23885e-06
-4.92596e-06
4.63838e-08
3.35692e-06
-4.19553e-06
3.56323e-08
3.44258e-06
-3.41812e-06
2.40324e-08
3.49562e-06
-2.61536e-06
1.19032e-08
3.51571e-06
-1.8082e-06
1.72521e-10
3.50551e-06
-1.01559e-06
-1.33303e-08
3.46604e-06
-2.53675e-07
-2.57981e-08
3.40001e-06
4.64569e-07
-3.73417e-08
3.3109e-06
1.13072e-06
-4.73004e-08
3.20215e-06
1.74338e-06
-5.48952e-08
3.07604e-06
2.30981e-06
-5.93192e-08
2.93225e-06
2.84614e-06
-5.96463e-08
2.76633e-06
3.37712e-06
-5.46959e-08
2.56868e-06
3.93549e-06
-4.32402e-08
2.32537e-06
4.55966e-06
-2.4584e-08
2.02148e-06
5.28402e-06
1.11785e-09
1.65486e-06
6.11121e-06
2.62042e-08
1.23962e-06
6.95682e-06
4.77611e-08
8.13436e-07
7.58817e-06
5.77443e-08
4.19511e-07
7.70521e-06
5.26365e-08
1.23464e-07
6.74802e-06
3.45666e-08
3.44478e-06
1.00976e-08
7.72102e-08
-1.77817e-06
1.42702e-08
2.61132e-07
-4.37633e-06
3.84947e-08
5.0593e-07
-6.10572e-06
5.80454e-08
7.76389e-07
-7.13544e-06
7.27327e-08
1.0521e-06
-7.65862e-06
8.25409e-08
1.32536e-06
-7.87998e-06
8.80048e-08
1.59328e-06
-7.92342e-06
9.00218e-08
1.85336e-06
-7.83978e-06
8.95267e-08
2.10247e-06
-7.64661e-06
8.72135e-08
2.33675e-06
-7.34799e-06
8.35117e-08
2.55203e-06
-6.94311e-06
7.8597e-08
2.74447e-06
-6.43213e-06
7.25192e-08
2.91103e-06
-5.82077e-06
6.53358e-08
3.04965e-06
-5.12163e-06
5.70852e-08
3.15917e-06
-4.35282e-06
4.78083e-08
3.23907e-06
-3.53556e-06
3.75863e-08
3.28925e-06
-2.69207e-06
2.65795e-08
3.30993e-06
-1.84388e-06
1.50528e-08
3.30154e-06
-1.01063e-06
3.47346e-09
3.26603e-06
-2.0931e-07
-8.8013e-09
3.20543e-06
5.45882e-07
-2.06662e-08
3.12248e-06
1.24523e-06
-3.15141e-08
3.01993e-06
1.88671e-06
-4.07327e-08
2.89957e-06
2.47786e-06
-4.7643e-08
2.76107e-06
3.03613e-06
-5.14337e-08
2.60059e-06
3.5886e-06
-5.09733e-08
2.40994e-06
4.17104e-06
-4.4871e-08
2.17705e-06
4.82445e-06
-3.19163e-08
1.88964e-06
5.58336e-06
-1.19824e-08
1.54414e-06
6.44517e-06
1.13968e-08
1.15538e-06
7.31327e-06
3.20617e-08
7.57317e-07
7.94211e-06
4.36734e-08
3.89529e-07
8.03045e-06
4.18083e-08
1.14204e-07
6.99434e-06
2.78159e-08
3.54907e-06
7.97353e-09
7.80601e-08
-1.871e-06
1.48181e-08
2.58289e-07
-4.59611e-06
3.95767e-08
4.93952e-07
-6.40052e-06
5.91628e-08
7.51123e-07
-7.46627e-06
7.36846e-08
1.01101e-06
-8.00188e-06
8.33945e-08
1.26711e-06
-8.22499e-06
8.89387e-08
1.5171e-06
-8.2646e-06
9.12186e-08
1.75879e-06
-8.17259e-06
9.11477e-08
1.98927e-06
-7.96646e-06
8.94055e-08
2.205e-06
-7.6501e-06
8.64217e-08
2.40226e-06
-7.22273e-06
8.23921e-08
2.57779e-06
-6.685e-06
7.73829e-08
2.72915e-06
-6.04352e-06
7.14436e-08
2.85481e-06
-5.31184e-06
6.45836e-08
2.95404e-06
-4.50878e-06
5.6786e-08
3.02655e-06
-3.65607e-06
4.80447e-08
3.07237e-06
-2.77625e-06
3.84069e-08
3.09172e-06
-1.89118e-06
2.80027e-08
3.08504e-06
-1.02093e-06
1.70358e-08
3.0531e-06
-1.83194e-07
5.87239e-09
2.99775e-06
6.06791e-07
-5.51168e-09
2.92136e-06
1.33834e-06
-1.6676e-08
2.82586e-06
2.00894e-06
-2.66741e-08
2.71244e-06
2.62635e-06
-3.50306e-08
2.58051e-06
3.20916e-06
-4.10604e-08
2.42656e-06
3.78637e-06
-4.37756e-08
2.24348e-06
4.39599e-06
-4.18473e-08
2.02103e-06
5.08075e-06
-3.38634e-08
1.74912e-06
5.87438e-06
-1.91637e-08
1.42427e-06
6.76866e-06
1.23708e-09
1.06234e-06
7.65562e-06
1.93146e-08
6.93774e-07
8.27897e-06
3.12652e-08
3.54503e-07
8.3372e-06
3.17993e-08
1.02844e-07
7.22337e-06
2.14582e-08
3.64404e-06
5.96313e-09
7.38928e-08
-1.96057e-06
1.57222e-08
2.46206e-07
-4.80957e-06
4.11834e-08
4.71631e-07
-6.68673e-06
6.08158e-08
7.16753e-07
-7.7865e-06
7.51382e-08
9.63564e-07
-8.33333e-06
8.46647e-08
1.20603e-06
-8.55762e-06
9.01817e-08
1.44195e-06
-8.59312e-06
9.26345e-08
1.66916e-06
-8.49269e-06
9.29254e-08
1.88488e-06
-8.27386e-06
9.17075e-08
2.08585e-06
-7.94042e-06
8.93908e-08
2.2688e-06
-7.49181e-06
8.61726e-08
2.43104e-06
-6.92933e-06
8.21233e-08
2.57072e-06
-6.26044e-06
7.72795e-08
2.68682e-06
-5.49953e-06
7.16283e-08
2.77891e-06
-4.66594e-06
6.51175e-08
2.84685e-06
-3.78166e-06
5.76877e-08
2.89062e-06
-2.86929e-06
4.93135e-08
2.91022e-06
-1.95078e-06
4.00381e-08
2.90581e-06
-1.04645e-06
2.99767e-08
2.87788e-06
-1.74562e-07
1.93452e-08
2.82746e-06
6.48755e-07
8.50695e-09
2.75602e-06
1.41191e-06
-2.08023e-09
2.66567e-06
2.11199e-06
-1.26482e-08
2.55699e-06
2.75698e-06
-2.18961e-08
2.42916e-06
3.36645e-06
-2.94198e-08
2.27898e-06
3.97099e-06
-3.4402e-08
2.1003e-06
4.61037e-06
-3.56721e-08
1.88465e-06
5.32824e-06
-3.18307e-08
1.62414e-06
6.15674e-06
-2.18948e-08
1.31754e-06
7.0816e-06
-6.45488e-09
9.79031e-07
7.98419e-06
9.70643e-09
6.37182e-07
8.59943e-06
2.09616e-08
3.24062e-07
8.62655e-06
2.30678e-08
9.34979e-08
7.43695e-06
1.5837e-08
3.73143e-06
4.22998e-09
7.3186e-08
-2.05e-06
1.62785e-08
2.40222e-07
-5.01855e-06
4.19871e-08
4.55856e-07
-6.96369e-06
6.13618e-08
6.87997e-07
-8.0939e-06
7.52946e-08
9.2008e-07
-8.64992e-06
8.45349e-08
1.147e-06
-8.87447e-06
8.99566e-08
1.36697e-06
-8.90557e-06
9.25121e-08
1.57802e-06
-8.79679e-06
9.30854e-08
1.77758e-06
-8.56569e-06
9.23094e-08
1.96269e-06
-8.21608e-06
9.05848e-08
2.13053e-06
-7.74773e-06
8.81148e-08
2.27892e-06
-7.16266e-06
8.49778e-08
2.40656e-06
-6.46925e-06
8.12047e-08
2.51288e-06
-5.68256e-06
7.67633e-08
2.59778e-06
-4.82237e-06
7.15669e-08
2.66131e-06
-3.91064e-06
6.55027e-08
2.70344e-06
-2.96984e-06
5.84732e-08
2.72398e-06
-2.02171e-06
5.04379e-08
2.72274e-06
-1.08659e-06
4.1433e-08
2.69969e-06
-1.83075e-07
3.16034e-08
2.65536e-06
6.71913e-07
2.1223e-08
2.59071e-06
1.46593e-06
1.0678e-08
2.50648e-06
2.19561e-06
6.62276e-10
2.40372e-06
2.86916e-06
-9.36337e-09
2.28115e-06
3.50697e-06
-1.7891e-08
2.13571e-06
4.14094e-06
-2.44685e-08
1.96206e-06
4.81216e-06
-2.812e-08
1.75331e-06
5.56457e-06
-2.75731e-08
1.50371e-06
6.42804e-06
-2.17225e-08
1.214e-06
7.38189e-06
-1.06882e-08
8.97762e-07
8.2974e-06
2.82596e-09
5.81704e-07
8.90245e-06
1.26513e-08
2.9411e-07
8.89784e-06
1.56386e-08
8.42212e-08
7.63477e-06
1.0968e-08
3.81107e-06
2.74781e-09
6.97149e-08
-2.13657e-06
1.68968e-08
2.29546e-07
-5.22112e-06
4.2766e-08
4.35591e-07
-7.23147e-06
6.17603e-08
6.56498e-07
-8.38998e-06
7.51974e-08
8.76493e-07
-8.95397e-06
8.40827e-08
1.0909e-06
-9.17823e-06
8.93855e-08
1.29802e-06
-9.2047e-06
9.20487e-08
1.49597e-06
-9.08762e-06
9.29135e-08
1.68232e-06
-8.84459e-06
9.25767e-08
1.85441e-06
-8.47955e-06
9.14219e-08
2.00983e-06
-7.99276e-06
8.96557e-08
2.1469e-06
-7.38705e-06
8.73601e-08
2.26478e-06
-6.67164e-06
8.45592e-08
2.36333e-06
-5.86227e-06
8.12127e-08
2.44272e-06
-4.97893e-06
7.72168e-08
2.50317e-06
-4.04347e-06
7.24268e-08
2.5446e-06
-3.07792e-06
6.66938e-08
2.56665e-06
-2.10361e-06
5.99062e-08
2.56871e-06
-1.14063e-06
5.20215e-08
2.55029e-06
-2.07709e-07
4.31059e-08
2.51126e-06
6.77626e-07
3.33633e-08
2.45205e-06
1.50207e-06
2.31208e-08
2.37323e-06
2.26169e-06
1.27882e-08
2.27481e-06
2.96476e-06
2.86614e-09
2.15583e-06
3.63236e-06
-6.3628e-09
2.01349e-06
4.29749e-06
-1.41572e-08
1.8432e-06
5.00215e-06
-1.96555e-08
1.63948e-06
5.79008e-06
-2.17575e-08
1.39853e-06
6.68833e-06
-1.93625e-08
1.12296e-06
7.66963e-06
-1.22352e-08
8.26591e-07
8.5956e-06
-2.00723e-09
5.3348e-07
9.18885e-06
6.35798e-09
2.68623e-07
9.15242e-06
9.65845e-09
7.66514e-08
7.81868e-06
6.99997e-09
3.88435e-06
1.58972e-09
6.81801e-08
-2.22197e-06
1.72651e-08
2.22378e-07
-5.41827e-06
4.29941e-08
4.19309e-07
-7.48981e-06
6.14412e-08
6.28788e-07
-8.67372e-06
7.42951e-08
8.36195e-07
-9.24411e-06
8.27662e-08
1.03752e-06
-9.46741e-06
8.78823e-08
1.23132e-06
-9.48905e-06
9.05755e-08
1.41586e-06
-9.36377e-06
9.16552e-08
1.58888e-06
-9.10926e-06
9.16896e-08
1.74799e-06
-8.72967e-06
9.10475e-08
1.89116e-06
-8.22582e-06
8.99381e-08
2.0171e-06
-7.6014e-06
8.84482e-08
2.12541e-06
-6.86651e-06
8.65964e-08
2.21633e-06
-6.03747e-06
8.43303e-08
2.29036e-06
-5.13444e-06
8.15276e-08
2.34792e-06
-4.17899e-06
7.80141e-08
2.38901e-06
-3.19256e-06
7.35955e-08
2.41314e-06
-2.19578e-06
6.80964e-08
2.41935e-06
-1.2082e-06
6.14001e-08
2.40658e-06
-2.4839e-07
5.34944e-08
2.37401e-06
6.65732e-07
4.45133e-08
2.32132e-06
1.52007e-06
3.47372e-08
2.24851e-06
2.31e-06
2.45513e-08
2.15532e-06
3.04361e-06
1.43891e-08
2.04057e-06
3.74245e-06
4.71939e-09
1.90173e-06
4.4403e-06
-3.9242e-09
1.73499e-06
5.1798e-06
-1.08503e-08
1.53616e-06
6.00401e-06
-1.50581e-08
1.30322e-06
6.9368e-06
-1.55193e-08
1.04046e-06
7.94413e-06
-1.17749e-08
7.62285e-07
8.87856e-06
-4.92125e-09
4.89979e-07
9.45891e-06
1.94185e-09
2.45748e-07
9.39096e-06
5.10994e-09
6.98825e-08
7.98959e-06
3.94708e-09
3.95175e-06
7.48122e-10
6.52462e-08
-2.30476e-06
1.7587e-08
2.13133e-07
-5.60914e-06
4.30166e-08
4.01602e-07
-7.73902e-06
6.07751e-08
6.01237e-07
-8.94627e-06
7.29455e-08
7.98144e-07
-9.52194e-06
8.09541e-08
9.8867e-07
-9.74378e-06
8.58752e-08
1.17148e-06
-9.76043e-06
8.86008e-08
1.34491e-06
-9.62705e-06
8.98878e-08
1.50685e-06
-9.36143e-06
9.0268e-08
1.65515e-06
-8.96802e-06
9.0094e-08
1.78809e-06
-8.4483e-06
8.95773e-08
1.90475e-06
-7.80682e-06
8.88104e-08
2.00507e-06
-7.05458e-06
8.7811e-08
2.08958e-06
-6.20846e-06
8.65251e-08
2.15909e-06
-5.28873e-06
8.48243e-08
2.21421e-06
-4.31658e-06
8.25185e-08
2.25505e-06
-3.31274e-06
7.93808e-08
2.28105e-06
-2.29692e-06
7.51826e-08
2.29101e-06
-1.28784e-06
6.9734e-08
2.28337e-06
-3.03647e-07
6.29373e-08
2.25664e-06
6.37669e-07
5.48416e-08
2.20978e-06
1.52132e-06
4.56656e-08
2.14221e-06
2.34185e-06
3.57668e-08
2.05333e-06
3.10697e-06
2.5575e-08
1.94194e-06
3.83835e-06
1.55476e-08
1.80582e-06
4.57031e-06
6.18625e-09
1.64182e-06
5.34573e-06
-1.87592e-09
1.44695e-06
6.20672e-06
-7.76756e-09
1.22075e-06
7.17362e-06
-1.05937e-08
9.68975e-07
8.20565e-06
-9.74422e-09
7.06427e-07
9.14683e-06
-5.81811e-09
4.52454e-07
9.71356e-06
-9.42949e-10
2.26236e-07
9.61473e-06
1.9243e-09
6.42156e-08
8.14887e-06
1.78855e-09
4.01407e-06
2.10299e-10
6.35064e-08
-2.38595e-06
1.77236e-08
2.06295e-07
-5.79452e-06
4.2634e-08
3.87079e-07
-7.97935e-06
5.95862e-08
5.77356e-07
-9.20753e-06
7.10158e-08
7.64096e-07
-9.78718e-06
7.85254e-08
9.44122e-07
-1.0007e-05
8.32112e-08
1.11627e-06
-1.00185e-05
8.59247e-08
1.27897e-06
-9.87708e-06
8.73752e-08
1.43029e-06
-9.60076e-06
8.80599e-08
1.56827e-06
-9.19427e-06
8.83144e-08
1.69147e-06
-8.6598e-06
8.83501e-08
1.79925e-06
-8.00282e-06
8.82629e-08
1.89185e-06
-7.2352e-06
8.80683e-08
1.97012e-06
-6.3744e-06
8.77093e-08
2.03515e-06
-5.44077e-06
8.70527e-08
2.08784e-06
-4.45511e-06
8.58978e-08
2.12844e-06
-3.4373e-06
8.39954e-08
2.15643e-06
-2.40594e-06
8.10768e-08
2.17041e-06
-1.37867e-06
7.68918e-08
2.16837e-06
-3.72822e-07
7.1263e-08
2.14809e-06
5.93843e-07
6.4151e-08
2.10773e-06
1.50602e-06
5.56997e-08
2.04605e-06
2.35735e-06
4.62238e-08
1.96204e-06
3.15489e-06
3.61423e-08
1.85442e-06
3.92012e-06
2.59134e-08
1.72125e-06
4.68752e-06
1.60231e-08
1.5601e-06
5.49992e-06
7.03611e-09
1.36925e-06
6.3981e-06
-4.48387e-10
1.14923e-06
7.39869e-06
-4.98727e-09
9.07181e-07
8.45423e-06
-6.50979e-09
6.5822e-07
9.40083e-06
-5.0908e-09
4.2017e-07
9.95363e-06
-2.23412e-09
2.0964e-07
9.82482e-06
-2.9495e-11
5.94338e-08
8.29765e-06
5.13721e-10
4.07193e-06
-5.6952e-11
6.11665e-08
-2.46485e-06
1.77723e-08
1.98833e-07
-5.97414e-06
4.19906e-08
3.72712e-07
-8.2112e-06
5.80048e-08
5.54942e-07
-9.45834e-06
6.86104e-08
7.33089e-07
-1.00409e-05
7.55845e-08
9.04277e-07
-1.02582e-05
8.00247e-08
1.06744e-06
-1.02643e-05
8.27181e-08
1.22111e-06
-1.0115e-05
8.43139e-08
1.36346e-06
-9.82833e-06
8.52716e-08
1.49272e-06
-9.40939e-06
8.59092e-08
1.60763e-06
-8.8611e-06
8.64381e-08
1.70779e-06
-8.18988e-06
8.69592e-08
1.79367e-06
-7.40852e-06
8.74892e-08
1.86638e-06
-6.53503e-06
8.79738e-08
1.92728e-06
-5.5899e-06
8.82818e-08
1.97749e-06
-4.59349e-06
8.821e-08
2.01752e-06
-3.56477e-06
8.74958e-08
2.04692e-06
-2.52113e-06
8.584e-08
2.06421e-06
-1.47886e-06
8.29393e-08
2.06704e-06
-4.5415e-07
7.85399e-08
2.05258e-06
5.35832e-07
7.2509e-08
2.01824e-06
1.4755e-06
6.49019e-08
1.96207e-06
2.35759e-06
5.59749e-08
1.88263e-06
3.18826e-06
4.61264e-08
1.77851e-06
3.98848e-06
3.58177e-08
1.64804e-06
4.79253e-06
2.55366e-08
1.48939e-06
5.64283e-06
1.58276e-08
1.30169e-06
6.57854e-06
7.34753e-09
1.08731e-06
7.61241e-06
7.5391e-10
8.53878e-07
8.69039e-06
-2.6624e-09
6.16766e-07
9.64127e-06
-3.34231e-09
3.9241e-07
1.01801e-05
-2.25757e-09
1.95355e-07
1.00223e-05
-8.8071e-10
5.53883e-08
8.43698e-06
-2.2962e-10
4.12583e-06
-1.07151e-10
5.95806e-08
-2.54205e-06
1.767e-08
1.93069e-07
-6.14861e-06
4.10152e-08
3.60908e-07
-8.43499e-06
5.59933e-08
5.35891e-07
-9.69901e-06
6.57296e-08
7.06182e-07
-1.02833e-05
7.21465e-08
8.69216e-07
-1.04975e-05
7.63236e-08
1.02409e-06
-1.04981e-05
7.89789e-08
1.16944e-06
-1.0341e-05
8.0701e-08
1.30355e-06
-1.00443e-05
8.19106e-08
1.42476e-06
-9.61346e-06
8.29063e-08
1.53198e-06
-9.05216e-06
8.38967e-08
1.62498e-06
-8.36782e-06
8.49853e-08
1.70447e-06
-7.57414e-06
8.61887e-08
1.77181e-06
-6.68977e-06
8.74539e-08
1.82861e-06
-5.73531e-06
8.86529e-08
1.8763e-06
-4.73071e-06
8.95845e-08
1.91562e-06
-3.69402e-06
8.99825e-08
1.94627e-06
-2.64127e-06
8.95309e-08
1.96677e-06
-1.5872e-06
8.78891e-08
1.97448e-06
-5.46557e-07
8.47393e-08
1.96599e-06
4.64507e-07
7.98589e-08
1.93791e-06
1.43042e-06
7.32062e-08
1.88758e-06
2.34301e-06
6.49609e-08
1.81302e-06
3.20739e-06
5.54833e-08
1.71267e-06
4.04367e-06
4.52301e-08
1.58506e-06
4.88554e-06
3.46967e-08
1.42893e-06
5.77463e-06
2.44236e-08
1.24432e-06
6.74823e-06
1.50439e-08
1.03451e-06
7.81505e-06
7.28709e-09
8.08573e-07
8.91462e-06
1.80434e-09
5.81802e-07
9.86897e-06
-8.99125e-10
3.6915e-07
1.03939e-05
-1.34066e-09
1.83533e-07
1.02084e-05
-8.48615e-10
5.20693e-08
8.56789e-06
-2.72935e-10
4.17625e-06
8.29748e-11
5.78862e-08
-2.61735e-06
1.74564e-08
1.87529e-07
-6.31797e-06
3.97559e-08
3.50115e-07
-8.65113e-06
5.35843e-08
5.18958e-07
-9.93021e-06
6.23867e-08
6.8264e-07
-1.05151e-05
6.82154e-08
8.38809e-07
-1.07257e-05
7.21103e-08
9.86688e-07
-1.07207e-05
7.47057e-08
1.12502e-06
-1.05558e-05
7.65252e-08
1.25218e-06
-1.02494e-05
7.79504e-08
1.36653e-06
-9.80702e-06
7.92605e-08
1.4671e-06
-9.23333e-06
8.0662e-08
1.55379e-06
-8.53672e-06
8.22625e-08
1.62749e-06
-7.73187e-06
8.40801e-08
1.68977e-06
-6.83806e-06
8.60657e-08
1.74248e-06
-5.87607e-06
8.80967e-08
1.78732e-06
-4.86547e-06
8.99771e-08
1.8253e-06
-3.8234e-06
9.14414e-08
1.85638e-06
-2.76447e-06
9.21634e-08
1.87918e-06
-1.70173e-06
9.17739e-08
1.89093e-06
-6.48162e-07
8.98992e-08
1.88774e-06
3.81501e-07
8.62322e-08
1.86552e-06
1.37205e-06
8.06296e-08
1.82085e-06
2.31455e-06
7.31829e-08
1.7512e-06
3.2129e-06
6.41997e-08
1.65472e-06
4.08609e-06
5.41239e-08
1.53008e-06
4.9668e-06
4.34611e-08
1.37653e-06
5.89552e-06
3.27608e-08
1.19491e-06
6.90733e-06
2.2648e-08
9.89412e-07
8.00685e-06
1.38382e-08
7.69803e-07
9.12731e-06
7.04124e-09
5.5162e-07
1.00846e-05
2.65757e-09
3.49135e-07
1.0596e-05
3.58475e-10
1.73494e-07
1.03839e-05
-1.64256e-10
4.93232e-08
8.69099e-06
2.77662e-10
4.22344e-06
6.02809e-10
5.65742e-08
-2.691e-06
1.71151e-08
1.82912e-07
-6.48249e-06
3.82229e-08
3.40866e-07
-8.85987e-06
5.08281e-08
5.04311e-07
-1.01523e-05
5.86677e-08
6.62256e-07
-1.07369e-05
6.38994e-08
8.12629e-07
-1.09436e-05
6.75044e-08
9.54597e-07
-1.09326e-05
7.00253e-08
1.08686e-06
-1.076e-05
7.19198e-08
1.20788e-06
-1.04439e-05
7.35321e-08
1.31611e-06
-9.99032e-06
7.51223e-08
1.41065e-06
-9.40471e-06
7.68936e-08
1.49156e-06
-8.69653e-06
7.89559e-08
1.55989e-06
-7.88146e-06
8.13274e-08
1.61738e-06
-6.97946e-06
8.39622e-08
1.6661e-06
-6.01148e-06
8.67446e-08
1.70799e-06
-4.9968e-06
8.94877e-08
1.74437e-06
-3.95166e-06
9.19343e-08
1.77548e-06
-2.88929e-06
9.37588e-08
1.80009e-06
-1.82088e-06
9.45761e-08
1.81541e-06
-7.57412e-07
9.39699e-08
1.81719e-06
2.88199e-07
9.15561e-08
1.80069e-06
1.30151e-06
8.70886e-08
1.76171e-06
2.27301e-06
8.05575e-08
1.6971e-06
3.20537e-06
7.2201e-08
1.6047e-06
4.11613e-06
6.2436e-08
1.4832e-06
5.03662e-06
5.17742e-08
1.33229e-06
6.00576e-06
4.07815e-08
1.15352e-06
7.05616e-06
3.00911e-08
9.51931e-07
8.18818e-06
2.04162e-08
7.37917e-07
9.32899e-06
1.24865e-08
5.27078e-07
1.02887e-05
6.80076e-09
3.32847e-07
1.07868e-05
3.28804e-09
1.65242e-07
1.05494e-05
1.70098e-09
4.69989e-08
8.80692e-06
1.54367e-09
4.26767e-06
1.26062e-09
5.53263e-08
-2.76294e-06
1.66634e-08
1.78752e-07
-6.6423e-06