/*--------------------------------*- C++ -*----------------------------------*\
| =========                 |                                                 |
| \\      /  F ield         | OpenFOAM: The Open Source CFD Toolbox           |
|  \\    /   O peration     | Version:  v1906                                 |
|   \\  /    A nd           | Web:      www.OpenFOAM.com                      |
|    \\/     M anipulation  |                                                 |
\*---------------------------------------------------------------------------*/
FoamFile
{
    version     2.0;
    format      ascii;
    class       volVectorField;
    location    "78";
    object      U;
}
// * * * * * * * * * * * * * * * * * * * * * * * * * * * * * * * * * * * * * //

dimensions      [0 1 -1 0 0 0 0];


internalField   nonuniform List<vector> 
78750
(
(4.75806e-05 -0.00074843 0.00160498)
(0.00030223 -0.0016978 0.00414331)
(0.000702066 -0.00257692 0.00583639)
(0.00129631 -0.0035342 0.00680083)
(0.00211329 -0.0045428 0.00725513)
(0.00316135 -0.00552306 0.00740497)
(0.0044237 -0.00640155 0.00739427)
(0.0058658 -0.00712922 0.00730748)
(0.00744424 -0.00768067 0.00718849)
(0.00911274 -0.00804765 0.007058)
(0.0108256 -0.00823251 0.00692464)
(0.0125391 -0.00824344 0.00679133)
(0.0142128 -0.00809143 0.0066583)
(0.0158092 -0.00778753 0.0065251)
(0.0172936 -0.00734211 0.00639171)
(0.0186358 -0.00676955 0.00625739)
(0.0198077 -0.00608456 0.00612184)
(0.0207847 -0.0053018 0.00598524)
(0.021546 -0.00443629 0.00584814)
(0.0220742 -0.00350382 0.00571153)
(0.0223566 -0.00252112 0.00557672)
(0.0223853 -0.00150586 0.0054452)
(0.0221588 -0.000476709 0.00531853)
(0.0216722 0.000543844 0.00519951)
(0.02092 0.0015388 0.00509002)
(0.0199143 0.00249235 0.00499247)
(0.0186742 0.00338912 0.0049088)
(0.0172187 0.00421244 0.00483977)
(0.0155679 0.00495164 0.00478563)
(0.0137381 0.0056119 0.00474481)
(0.0117283 0.00627233 0.00470504)
(0.00946913 0.00721802 0.00460274)
(0.00678483 0.00881415 0.00422898)
(0.00369999 0.0102229 0.00320344)
(0.000896009 0.00733256 0.00129725)
(7.80724e-06 -0.00246137 0.00132369)
(0.000378875 -0.00589092 0.00318327)
(0.00103852 -0.0087856 0.00426849)
(0.00196933 -0.0115552 0.00484652)
(0.00312869 -0.0141923 0.00510968)
(0.00445757 -0.0165557 0.00518714)
(0.00589653 -0.0185198 0.00516249)
(0.0073941 -0.0200171 0.00508585)
(0.00890719 -0.0210283 0.00498511)
(0.0103998 -0.0215628 0.00487492)
(0.011842 -0.0216444 0.00476252)
(0.0132097 -0.0213027 0.00465099)
(0.0144795 -0.0205717 0.00453942)
(0.0156302 -0.0194899 0.0044245)
(0.0166505 -0.0180883 0.00430842)
(0.0175276 -0.016391 0.0041951)
(0.018245 -0.0144275 0.00408544)
(0.0187913 -0.0122289 0.00398017)
(0.0191561 -0.00982981 0.00387973)
(0.0193296 -0.00726851 0.00378405)
(0.0193025 -0.00458768 0.00369293)
(0.0190666 -0.00183442 0.00360638)
(0.0186156 0.000940073 0.00352539)
(0.0179593 0.00367872 0.00345308)
(0.0171109 0.0063256 0.00339219)
(0.016078 0.00882679 0.003346)
(0.0148791 0.0111372 0.00331777)
(0.0135268 0.0132462 0.00331696)
(0.0120292 0.0151884 0.00335307)
(0.0103976 0.017094 0.00342519)
(0.00860497 0.0193196 0.00351852)
(0.00657092 0.0224541 0.00355855)
(0.00430203 0.0263875 0.00332977)
(0.0020396 0.0279659 0.00252486)
(0.000233351 0.018271 0.00100392)
(2.06135e-06 -0.0043309 0.00123872)
(0.000491546 -0.0112089 0.00287371)
(0.00140029 -0.0169476 0.00379652)
(0.0026418 -0.0218407 0.00427608)
(0.00409025 -0.0258518 0.00450193)
(0.00563008 -0.0289194 0.0045931)
(0.00717464 -0.0310591 0.00461811)
(0.00866926 -0.0323515 0.00461239)
(0.0100822 -0.0328997 0.00459172)
(0.0113945 -0.0328022 0.00456127)
(0.012594 -0.0321436 0.00452166)
(0.0136705 -0.0309934 0.00447193)
(0.0146193 -0.0294038 0.00441417)
(0.0154365 -0.0274127 0.00435211)
(0.0161144 -0.0250585 0.00428611)
(0.0166455 -0.0223831 0.00421467)
(0.0170273 -0.0194191 0.00414072)
(0.0172583 -0.0161859 0.00407168)
(0.0173353 -0.0127077 0.00401271)
(0.017257 -0.00901654 0.00396577)
(0.0170234 -0.00515274 0.00392975)
(0.0166368 -0.00116857 0.00389953)
(0.0160956 0.00286992 0.00386636)
(0.0153956 0.0068824 0.00381941)
(0.0145411 0.0107732 0.00374885)
(0.0135411 0.0144453 0.00365004)
(0.0124084 0.0178264 0.00352754)
(0.0111579 0.020903 0.00339601)
(0.00980147 0.0237632 0.00327619)
(0.00833724 0.0266705 0.0031889)
(0.00672909 0.0301199 0.0031377)
(0.00492236 0.0345309 0.00306068)
(0.00307275 0.0388038 0.00278541)
(0.00136781 0.0386605 0.0020789)
(0.000141648 0.023376 0.000826454)
(3.82567e-05 -0.00692166 0.00112647)
(0.000627728 -0.0181927 0.00244321)
(0.00161756 -0.0271542 0.00305825)
(0.00286953 -0.0340184 0.00329141)
(0.00422684 -0.0388777 0.00334433)
(0.00557733 -0.0419908 0.00332348)
(0.00686461 -0.0437176 0.00327743)
(0.00807015 -0.0443783 0.00322486)
(0.00918949 -0.0441984 0.00317253)
(0.01022 -0.0433301 0.00311721)
(0.0111586 -0.0418765 0.00305685)
(0.0120013 -0.0399085 0.0029922)
(0.0127432 -0.0374769 0.00292417)
(0.0133769 -0.0346204 0.00285545)
(0.0138936 -0.0313728 0.00279106)
(0.0142847 -0.0277693 0.00273762)
(0.0145431 -0.0238499 0.0027026)
(0.014665 -0.0196569 0.00269476)
(0.0146507 -0.0152331 0.00272314)
(0.014504 -0.0106196 0.002796)
(0.0142302 -0.00585481 0.00291815)
(0.0138327 -0.000977833 0.00308806)
(0.0133197 0.00396238 0.00329477)
(0.0126986 0.00889851 0.00351436)
(0.0119703 0.0137395 0.00371232)
(0.0111345 0.018377 0.00385136)
(0.0101932 0.0227174 0.003904)
(0.00915057 0.0267416 0.00386365)
(0.00800746 0.0305793 0.00374634)
(0.00675154 0.0345751 0.0035807)
(0.00534997 0.039234 0.00338523)
(0.00377989 0.0446087 0.00313138)
(0.00227487 0.048714 0.0027279)
(0.000961435 0.0467919 0.00200196)
(6.86092e-05 0.0269235 0.000808664)
(4.31938e-05 -0.00924265 0.000828756)
(0.000584299 -0.0238055 0.00169414)
(0.00143928 -0.0346976 0.00206193)
(0.0024671 -0.0423143 0.00220767)
(0.00352759 -0.0470945 0.00226344)
(0.00454569 -0.0497407 0.00228008)
(0.00550613 -0.0509176 0.00227506)
(0.00640932 -0.051058 0.0022517)
(0.00726723 -0.0503959 0.00221262)
(0.00808288 -0.0490438 0.00215761)
(0.00883997 -0.0470884 0.00208119)
(0.00953305 -0.0445903 0.00198084)
(0.0101558 -0.0415742 0.00185965)
(0.0106929 -0.0380634 0.00172257)
(0.0111291 -0.0340975 0.00157659)
(0.0114533 -0.0297329 0.00143166)
(0.0116589 -0.0250398 0.00130065)
(0.0117448 -0.0200954 0.00119899)
(0.0117144 -0.0149739 0.0011445)
(0.0115746 -0.00973816 0.00115623)
(0.0113344 -0.00443478 0.00125265)
(0.0110028 0.000904539 0.00144863)
(0.0105886 0.0062538 0.00174955)
(0.0100984 0.0115783 0.00214351)
(0.00953437 0.016824 0.00259549)
(0.00889476 0.0219187 0.00304875)
(0.00817481 0.0268015 0.00343811)
(0.00736717 0.0314894 0.00371086)
(0.00645963 0.0361563 0.00384056)
(0.005431 0.0411636 0.00382275)
(0.00425346 0.046868 0.00365758)
(0.00293686 0.0527972 0.00333555)
(0.0017249 0.0563645 0.00284214)
(0.000700613 0.0526984 0.00205807)
(3.58078e-05 0.0291983 0.000817313)
(4.46847e-05 -0.0114945 0.000607441)
(0.000508543 -0.0291501 0.00125808)
(0.00121425 -0.0418014 0.00157573)
(0.00204861 -0.0501479 0.00173906)
(0.00290075 -0.0550187 0.00181889)
(0.00372019 -0.0574977 0.00184641)
(0.00450631 -0.0584428 0.00183853)
(0.00526743 -0.0583238 0.00180201)
(0.00600347 -0.0573623 0.00173833)
(0.00670644 -0.0556659 0.00165088)
(0.00736902 -0.0532906 0.00154036)
(0.00798252 -0.0502592 0.00140617)
(0.00853066 -0.0465954 0.00124914)
(0.0089975 -0.0423399 0.00107247)
(0.00937002 -0.0375633 0.000881423)
(0.00963957 -0.0323654 0.000683614)
(0.0098023 -0.0268623 0.000489391)
(0.00985999 -0.0211694 0.000312368)
(0.00981954 -0.0153886 0.000169046)
(0.00969052 -0.00959807 7.93014e-05)
(0.00948358 -0.00384788 6.59838e-05)
(0.00920898 0.00183687 0.000153086)
(0.00887498 0.00744909 0.000361489)
(0.00848742 0.0129865 0.000701726)
(0.00804825 0.0184409 0.0011645)
(0.00755347 0.0237974 0.00171355)
(0.00699247 0.0290582 0.00228793)
(0.00634858 0.0343013 0.00281646)
(0.00559985 0.0397467 0.00323403)
(0.00472062 0.0457431 0.00348488)
(0.0036895 0.0524523 0.00351685)
(0.00254168 0.0589052 0.0032922)
(0.00150144 0.0621297 0.00281702)
(0.000621489 0.0571502 0.00202116)
(4.37749e-05 0.0309073 0.000765543)
(4.11647e-05 -0.0131775 0.00041916)
(0.000422341 -0.0329454 0.000890027)
(0.000997823 -0.0466743 0.00115794)
(0.00167999 -0.0553824 0.00132495)
(0.0023786 -0.0602194 0.00142131)
(0.0030554 -0.0625326 0.00146499)
(0.00371415 -0.0632801 0.00147049)
(0.00436045 -0.0629354 0.00144489)
(0.00498906 -0.0617056 0.0013912)
(0.00559271 -0.0596799 0.00131057)
(0.00616373 -0.0568893 0.00120231)
(0.00669072 -0.0533439 0.00106689)
(0.00716058 -0.0490641 0.000905239)
(0.00756061 -0.0441079 0.000719315)
(0.00787949 -0.0385808 0.000512705)
(0.00810974 -0.0326225 0.00029122)
(0.00824977 -0.0263904 6.34727e-05)
(0.00830181 -0.0200376 -0.000158368)
(0.00827116 -0.0136952 -0.000358056)
(0.0081654 -0.0074603 -0.000515422)
(0.00799329 -0.00139118 -0.000606946)
(0.00776546 0.00448924 -0.000607288)
(0.00749223 0.0101871 -0.000492318)
(0.00717991 0.0157314 -0.000243902)
(0.00683007 0.0211647 0.000143246)
(0.00643764 0.0265409 0.000654098)
(0.00598931 0.031944 0.00124984)
(0.00546387 0.0375298 0.00187144)
(0.00483473 0.0435612 0.00244592)
(0.00407509 0.0503329 0.00288704)
(0.0031691 0.0577573 0.00309773)
(0.00217308 0.0644174 0.00300157)
(0.00127707 0.0671923 0.00259575)
(0.000521231 0.0609575 0.00184352)
(3.31244e-05 0.0324007 0.000663172)
(2.91621e-05 -0.0146952 0.000321902)
(0.00033335 -0.0365152 0.000756594)
(0.000806622 -0.05145 0.00106378)
(0.00138363 -0.0607405 0.0012802)
(0.00198516 -0.0657671 0.00141209)
(0.00257625 -0.0680937 0.00147781)
(0.00316019 -0.0687791 0.00149719)
(0.00373962 -0.0683161 0.00148094)
(0.00430728 -0.0669052 0.00143389)
(0.0048551 -0.0646213 0.00135806)
(0.00537445 -0.0614805 0.00125462)
(0.00585464 -0.0574833 0.00112398)
(0.00628383 -0.0526546 0.000966242)
(0.00665116 -0.0470709 0.000781664)
(0.00694842 -0.0408635 0.000571077)
(0.00717057 -0.0342029 0.000336647)
(0.00731559 -0.0272762 8.3053e-05)
(0.00738443 -0.0202644 -0.00018099)
(0.00738048 -0.0133228 -0.000441637)
(0.0073097 -0.00657056 -0.000679186)
(0.00718035 -8.47362e-05 -0.000868449)
(0.00700059 0.00610036 -0.000980582)
(0.00677842 0.0119929 -0.000986214)
(0.00652108 0.0176424 -0.000860059)
(0.00623062 0.0231336 -0.000586358)
(0.0059012 0.0285844 -0.00016479)
(0.00551855 0.0341579 0.000384769)
(0.00506025 0.0400871 0.00101946)
(0.00449822 0.0466769 0.00167052)
(0.00380617 0.0541683 0.00223742)
(0.00297121 0.0622493 0.00259169)
(0.00205892 0.0691402 0.00262058)
(0.00123172 0.0716219 0.00230441)
(0.00051836 0.0643688 0.00162823)
(4.43171e-05 0.0338178 0.000562817)
(3.0539e-05 -0.0158421 0.000264681)
(0.000309964 -0.0391969 0.00067203)
(0.000745875 -0.0550367 0.000984164)
(0.00127653 -0.064768 0.00120766)
(0.0018277 -0.069942 0.00134288)
(0.00236804 -0.0722791 0.00140964)
(0.00290166 -0.0729064 0.00142923)
(0.00343009 -0.0723285 0.00141363)
(0.00394548 -0.0707406 0.00136865)
(0.00444013 -0.068206 0.00129747)
(0.00490641 -0.0647297 0.00120186)
(0.00533514 -0.0603077 0.00108261)
(0.00571663 -0.0549729 0.000939701)
(0.00604245 -0.0488202 0.000772637)
(0.00630644 -0.042004 0.000580882)
(0.00650488 -0.0347183 0.000364549)
(0.00663623 -0.0271731 0.000125313)
(0.00670081 -0.0195718 -0.000132395)
(0.0067007 -0.0120917 -0.000399848)
(0.00664004 -0.00487175 -0.0006626)
(0.00652507 0.00199194 -0.000899708)
(0.0063639 0.00845 -0.00108432)
(0.0061653 0.0145087 -0.0011861)
(0.00593622 0.0202341 -0.001175)
(0.00567897 0.0257492 -0.00102595)
(0.00538833 0.0312301 -0.00072394)
(0.0050497 0.0369128 -0.000269718)
(0.00464011 0.0431001 0.000313153)
(0.00413223 0.0501296 0.000967607)
(0.00350074 0.0581808 0.00159076)
(0.0027338 0.0667345 0.00203643)
(0.00190164 0.0737226 0.00216506)
(0.00114134 0.0758862 0.0019411)
(0.000478461 0.067654 0.00136419)
(3.86283e-05 0.0352349 0.000451848)
(2.18285e-05 -0.0170356 0.000262655)
(0.000267689 -0.0420872 0.000701549)
(0.000661745 -0.0589824 0.00104989)
(0.00114976 -0.06926 0.00129964)
(0.00166061 -0.0746436 0.00145068)
(0.00216397 -0.0770269 0.00152751)
(0.00266351 -0.077619 0.00155503)
(0.00315959 -0.0769448 0.00154695)
(0.00364364 -0.0751987 0.00150994)
(0.00410771 -0.0724373 0.00144767)
(0.0045443 -0.0686583 0.00136216)
(0.00494486 -0.0638559 0.00125407)
(0.00530091 -0.0580695 0.00112278)
(0.00560556 -0.0514069 0.000966694)
(0.00585416 -0.0440379 0.000783974)
(0.00604392 -0.0361721 0.000573448)
(0.00617341 -0.0280339 0.000335674)
(0.00624278 -0.0198424 7.39039e-05)
(0.0062537 -0.0117939 -0.000204877)
(0.00620865 -0.00404743 -0.000488808)
(0.00611225 0.00327836 -0.000760222)
(0.00597092 0.0101143 -0.000995732)
(0.00579213 0.0164574 -0.00116768)
(0.00558249 0.0223814 -0.00124672)
(0.00534466 0.0280361 -0.0012049)
(0.00507459 0.0336447 -0.00101901)
(0.00475929 0.0395042 -0.000675641)
(0.00437679 0.0459785 -0.000180627)
(0.00390107 0.053433 0.000424897)
(0.00330871 0.0619934 0.00104576)
(0.00258833 0.0709662 0.00153141)
(0.00181117 0.0780501 0.00172681)
(0.00109433 0.0799445 0.00158439)
(0.000460713 0.0708098 0.00111187)
(3.90556e-05 0.0366126 0.000356223)
(2.51585e-05 -0.018028 0.00025997)
(0.000268353 -0.0444732 0.000708415)
(0.000651924 -0.0622337 0.00106159)
(0.00111997 -0.0729661 0.00130859)
(0.00160412 -0.0785341 0.00145427)
(0.00207744 -0.0809648 0.00152663)
(0.00254494 -0.0815295 0.00155142)
(0.00300716 -0.0807682 0.00154284)
(0.00345593 -0.0788747 0.0015082)
(0.00388393 -0.0758994 0.0014519)
(0.00428429 -0.0718355 0.00137666)
(0.00464932 -0.0666791 0.00128355)
(0.00497176 -0.0604795 0.0011718)
(0.00524604 -0.053359 0.00103903)
(0.00546874 -0.0455026 0.000881906)
(0.00563807 -0.0371333 0.000697254)
(0.00575319 -0.028487 0.000483275)
(0.00581379 -0.0197925 0.000240722)
(0.0058216 -0.0112557 -2.60473e-05)
(0.0057796 -0.00305085 -0.000308113)
(0.00569101 0.00468613 -0.000590777)
(0.00556088 0.0118694 -0.000853384)
(0.00539542 0.018488 -0.0010705)
(0.00520018 0.024621 -0.00121397)
(0.00497748 0.0304396 -0.0012551)
(0.00472394 0.0362041 -0.00116659)
(0.00442822 0.0422596 -0.000926369)
(0.00407057 0.049017 -0.00052707)
(0.00362596 0.0568595 5.26686e-06)
(0.00307276 0.065855 0.000588161)
(0.0024014 0.0751549 0.00107639)
(0.00168253 0.0822683 0.00131043)
(0.00101525 0.0838683 0.001236)
(0.000422309 0.0738354 0.000866072)
(3.32443e-05 0.0379264 0.000265942)
(2.04996e-05 -0.0191153 0.000284497)
(0.000249875 -0.0471116 0.000769637)
(0.000613926 -0.0658273 0.00114264)
(0.00105943 -0.0770391 0.00139679)
(0.00151944 -0.0827825 0.00154368)
(0.00196835 -0.085246 0.00161635)
(0.00241143 -0.0857712 0.00164249)
(0.00284877 -0.0849145 0.00163697)
(0.00327209 -0.0828699 0.0016075)
(0.00367427 -0.079684 0.00155884)
(0.00404883 -0.0753473 0.00149394)
(0.00438886 -0.0698583 0.00141379)
(0.00468812 -0.0632745 0.00131716)
(0.0049422 -0.0557291 0.00120082)
(0.00514853 -0.0474179 0.00106033)
(0.00530592 -0.0385732 0.000891336)
(0.00541395 -0.0294393 0.000690998)
(0.00547267 -0.0202537 0.000459153)
(0.00548264 -0.011232 0.000199146)
(0.00544562 -0.00255916 -8.14248e-05)
(0.00536487 0.00561225 -0.000369999)
(0.00524452 0.0131807 -0.000648704)
(0.00508943 0.0201267 -0.000895152)
(0.00490412 0.0265321 -0.00108398)
(0.00469042 0.0325844 -0.00118809)
(0.00444543 0.0385733 -0.00117944)
(0.00415949 0.0448822 -0.00103158)
(0.0038157 0.0519575 -0.000728307)
(0.00339252 0.0601905 -0.000282805)
(0.00286985 0.0695948 0.000237063)
(0.00223859 0.0791817 0.000698404)
(0.00156937 0.0863018 0.000946133)
(0.00094589 0.0876055 0.000923824)
(0.000389866 0.0766964 0.000647364)
(3.0019e-05 0.0391523 0.000189464)
(2.27367e-05 -0.0200921 0.000296704)
(0.000250184 -0.0494462 0.000794187)
(0.00060382 -0.0689811 0.00116525)
(0.00103002 -0.0806024 0.00141009)
(0.00146502 -0.0865007 0.00154774)
(0.00188653 -0.0889973 0.00161425)
(0.00230082 -0.0894892 0.00163737)
(0.00270819 -0.0885458 0.00163195)
(0.00310086 -0.0863607 0.00160606)
(0.00347225 -0.0829774 0.00156505)
(0.00381645 -0.0783864 0.00151249)
(0.00412736 -0.0725913 0.00144982)
(0.00439978 -0.06566 0.00137571)
(0.00463032 -0.0577379 0.0012861)
(0.00481726 -0.0490304 0.0011749)
(0.00495994 -0.0397766 0.00103548)
(0.00505823 -0.0302258 0.000862397)
(0.00511232 -0.0206197 0.000653125)
(0.00512269 -0.0111796 0.000409297)
(0.00509021 -0.00209851 0.000137434)
(0.00501701 0.00645941 -0.000150628)
(0.0049066 0.0143808 -0.000437911)
(0.00476297 0.0216403 -0.000703455)
(0.00458936 0.0283232 -0.000923826)
(0.00438681 0.0346302 -0.00107384)
(0.00415242 0.0408739 -0.00112652)
(0.00387765 0.0474666 -0.00105435)
(0.00354809 0.054878 -0.000836548)
(0.00314554 0.0634962 -0.000476956)
(0.00265211 0.0732755 -2.95058e-05)
(0.00206079 0.0830965 0.000388576)
(0.00144208 0.0901779 0.000632923)
(0.00086546 0.0911609 0.000648954)
(0.00035146 0.0793806 0.000454697)
(2.52816e-05 0.0402829 0.000123516)
(1.99106e-05 -0.021126 0.000321125)
(0.000238041 -0.0519164 0.000843618)
(0.000576618 -0.0723036 0.00122023)
(0.000983846 -0.0843279 0.00146048)
(0.00139751 -0.0903596 0.00159152)
(0.00179689 -0.0928713 0.00165338)
(0.00218853 -0.0933177 0.0016745)
(0.00257243 -0.0922797 0.00166981)
(0.00294094 -0.0899511 0.00164762)
(0.00328787 -0.086374 0.00161364)
(0.00360789 -0.0815397 0.00157182)
(0.00389574 -0.0754578 0.00152383)
(0.00414727 -0.0682053 0.0014683)
(0.00436005 -0.0599365 0.00140072)
(0.00453307 -0.0508636 0.00131413)
(0.00466604 -0.0412299 0.00120046)
(0.00475888 -0.0312875 0.00105236)
(0.00481156 -0.0212812 0.000865155)
(0.00482417 -0.0114368 0.000638472)
(0.00479707 -0.00195508 0.000377361)
(0.00473143 0.00698897 9.2642e-05)
(0.00462941 0.0152715 -0.000199536)
(0.0044943 0.0228623 -0.000479188)
(0.00432888 0.0298492 -0.000724275)
(0.00413361 0.0364451 -0.000911229)
(0.00390552 0.0429822 -0.00101447)
(0.00363701 0.0498954 -0.0010069)
(0.00331593 0.0576696 -0.000865726)
(0.00292762 0.0666802 -0.000588373)
(0.0024579 0.0768174 -0.000216629)
(0.00190173 0.0868407 0.000148714)
(0.00132796 0.0938578 0.000377658)
(0.000794141 0.0945103 0.000419926)
(0.000318856 0.0818803 0.000294902)
(2.2309e-05 0.0413187 7.11012e-05)
(2.07331e-05 -0.0220929 0.00033536)
(0.000234337 -0.0541934 0.000865245)
(0.000560441 -0.0753383 0.00123341)
(0.000947969 -0.0877141 0.00145982)
(0.00133789 -0.093862 0.00157932)
(0.00171223 -0.0963865 0.00163402)
(0.00207811 -0.0967902 0.00165181)
(0.00243551 -0.0956631 0.00164728)
(0.00277726 -0.0931994 0.00162892)
(0.00309763 -0.0894405 0.00160294)
(0.00339188 -0.0843812 0.00157386)
(0.00365553 -0.0780388 0.00154381)
(0.00388539 -0.0705009 0.00151152)
(0.00407992 -0.0619306 0.00147208)
(0.00423877 -0.0525452 0.00141742)
(0.0043621 -0.0425895 0.00133768)
(0.00444996 -0.0323145 0.00122305)
(0.00450217 -0.0219643 0.00106599)
(0.00451833 -0.0117657 0.000863445)
(0.00449811 -0.00192442 0.000618429)
(0.00444181 0.0073753 0.000340788)
(0.00435066 0.0160001 4.65169e-05)
(0.00422645 0.0239155 -0.000244317)
(0.0040711 0.031212 -0.00050974)
(0.003885 0.0381121 -0.000726998)
(0.00366499 0.0449643 -0.000871876)
(0.00340414 0.0522203 -0.000918539)
(0.0030922 0.0603717 -0.000843937)
(0.00271768 0.0697729 -0.000641452)
(0.00227012 0.0802456 -0.000342786)
(0.00174712 0.090434 -3.28836e-05)
(0.00121597 0.0973563 0.000174042)
(0.000723834 0.0976653 0.0002333)
(0.000286926 0.0842052 0.000165201)
(1.91538e-05 0.0422677 3.00961e-05)
(1.87006e-05 -0.0230768 0.000353599)
(0.000223831 -0.0565038 0.000894391)
(0.000535984 -0.0784042 0.00125635)
(0.000905727 -0.091114 0.00147039)
(0.00127582 -0.0973592 0.00157894)
(0.00162984 -0.0998837 0.00162652)
(0.00197501 -0.100238 0.00164067)
(0.00231107 -0.0990183 0.00163568)
(0.00263105 -0.0964206 0.00162011)
(0.00292967 -0.0924868 0.0016005)
(0.00320271 -0.0872158 0.00158181)
(0.0034465 -0.0806332 0.0015666)
(0.0036587 -0.0728359 0.00155387)
(0.00383855 -0.0639942 0.00153878)
(0.0039863 -0.054329 0.00151297)
(0.00410247 -0.0440843 0.00146565)
(0.00418723 -0.0335085 0.00138526)
(0.0042402 -0.0228427 0.00126165)
(0.00426052 -0.0123129 0.00108858)
(0.00424708 -0.00212792 0.000865952)
(0.0041992 0.00751989 0.000601282)
(0.00411718 0.0164874 0.000309577)
(0.00400209 0.0247349 1.10193e-05)
(0.0038549 0.0323549 -0.000271957)
(0.00367537 0.0395791 -0.000516339)
(0.00346068 0.0467697 -0.000698433)
(0.00320472 0.054391 -0.000793418)
(0.00289901 0.0629356 -0.000778565)
(0.00253488 0.0727299 -0.000644636)
(0.0021054 0.0835238 -0.00041512)
(0.00161126 0.0938513 -0.00016054)
(0.00111791 0.10066 2.05252e-05)
(0.000663094 0.100622 8.92403e-05)
(0.000260377 0.0863619 6.61738e-05)
(1.71103e-05 0.0431368 9.82159e-07)
(1.86682e-05 -0.0240155 0.000364887)
(0.000218077 -0.0586845 0.000905209)
(0.000518001 -0.0812758 0.00125253)
(0.000870007 -0.0942824 0.00144914)
(0.00121957 -0.100611 0.00154447)
(0.0015524 -0.103132 0.00158401)
(0.00187601 -0.103436 0.00159421)
(0.00219004 -0.102128 0.00158879)
(0.00248786 -0.0994033 0.00157636)
(0.00276463 -0.0953052 0.00156381)
(0.00301664 -0.0898392 0.00155654)
(0.00324088 -0.0830404 0.00155752)
(0.00343575 -0.0750155 0.00156603)
(0.0036012 -0.0659417 0.00157726)
(0.00373808 -0.0560419 0.00158251)
(0.00384734 -0.0455576 0.00157015)
(0.00392942 -0.0347314 0.00152701)
(0.00398391 -0.0237976 0.00144057)
(0.00400956 -0.012978 0.00130151)
(0.00400449 -0.00248133 0.00110644)
(0.00396693 0.00749441 0.000860051)
(0.00389591 0.0167967 0.000575772)
(0.0037914 0.0253784 0.000273642)
(0.00365361 0.0333317 -2.32096e-05)
(0.00348186 0.0408947 -0.000291084)
(0.00327338 0.0484402 -0.000506185)
(0.00302286 0.0564415 -0.000644219)
(0.00272346 0.0653866 -0.000682771)
(0.00236908 0.0755692 -0.000610706)
(0.00195604 0.0866655 -0.000444779)
(0.00148832 0.0971051 -0.000242804)
(0.00102927 0.103783 -8.88618e-05)
(0.000608375 0.103399 -1.63715e-05)
(0.000236755 0.0883694 -5.21199e-06)
(1.52714e-05 0.0439377 -1.78622e-05)
(1.71397e-05 -0.0249484 0.000375826)
(0.000209003 -0.0608432 0.000913919)
(0.000496675 -0.0841052 0.00124564)
(0.000833024 -0.097387 0.00142448)
(0.00116527 -0.103782 0.00150628)
(0.00148054 -0.106291 0.00153733)
(0.00178639 -0.106542 0.00154291)
(0.00208222 -0.105145 0.00153614)
(0.00236167 -0.102295 0.00152558)
(0.00262026 -0.0980403 0.00151836)
(0.00285473 -0.0923921 0.00152023)
(0.00306266 -0.0853948 0.00153459)
(0.00324306 -0.0771648 0.0015612)
(0.00339645 -0.0678857 0.00159563)
(0.00352417 -0.0577819 0.00162942)
(0.00362758 -0.0470917 0.00165069)
(0.0037074 -0.0360502 0.0016453)
(0.00376328 -0.0248832 0.0015987)
(0.00379371 -0.0138051 0.00149846)
(0.00379623 -0.00302158 0.00133731)
(0.00376803 0.00726662 0.00111615)
(0.00370696 0.0168986 0.000845751)
(0.00361181 0.025819 0.000545269)
(0.00348202 0.0341172 0.000238417)
(0.00331659 0.0420348 -4.99674e-05)
(0.00311294 0.0499525 -0.000295272)
(0.00286657 0.0583489 -0.000473023)
(0.00257209 0.0677034 -0.000560668)
(0.00222571 0.0782725 -0.000545322)
(0.00182656 0.0896575 -0.000437995)
(0.00138164 0.10019 -0.000285449)
(0.000952412 0.106727 -0.000158837)
(0.000561298 0.106002 -8.71484e-05)
(0.000216881 0.0902371 -5.15417e-05)
(1.39523e-05 0.0446762 -2.74299e-05)
(1.67356e-05 -0.0258483 0.000381854)
(0.000202973 -0.0629095 0.00091041)
(0.000480078 -0.0867967 0.00122173)
(0.000801752 -0.100326 0.00138032)
(0.00111732 -0.106776 0.0014477)
(0.00141555 -0.109269 0.00147003)
(0.00170414 -0.109466 0.00147101)
(0.00198235 -0.107982 0.001463)
(0.0022441 -0.105013 0.00145449)
(0.0024853 -0.100611 0.00145276)
(0.00270304 -0.0947948 0.00146388)
(0.0028954 -0.087619 0.00149158)
(0.00306191 -0.0792093 0.00153596)
(0.00320361 -0.0697559 0.00159293)
(0.00332234 -0.0594841 0.00165426)
(0.00341992 -0.0486275 0.00170807)
(0.00349747 -0.0374125 0.00173967)
(0.00355481 -0.0260533 0.00173311)
(0.00359034 -0.0147538 0.00167345)
(0.00360105 -0.00371285 0.00154986)
(0.00358313 0.00686923 0.00135916)
(0.00353312 0.0168244 0.00110864)
(0.00344849 0.0260875 0.000815668)
(0.00332772 0.0347417 0.000503915)
(0.00316939 0.0430287 0.000199264)
(0.0029711 0.0513332 -7.25043e-05)
(0.00272918 0.0601353 -0.000286164)
(0.00243984 0.0699022 -0.000418534)
(0.00210114 0.0808515 -0.000454915)
(0.00171443 0.0925099 -0.000401138)
(0.00128948 0.103116 -0.000294318)
(0.00088614 0.109507 -0.000194409)
(0.000520977 0.108448 -0.000127138)
(0.000200132 0.0919829 -7.58209e-05)
(1.29374e-05 0.0453618 -2.9021e-05)
(1.5636e-05 -0.0267326 0.000385398)
(0.000195654 -0.0649304 0.000900181)
(0.000462823 -0.0894156 0.00118871)
(0.000771704 -0.103169 0.00132598)
(0.00107309 -0.109659 0.00137839)
(0.00135696 -0.112128 0.00139147)
(0.00163103 -0.112268 0.00138719)
(0.00189441 -0.110697 0.00137708)
(0.00214126 -0.107613 0.00136945)
(0.00236776 -0.10307 0.00137171)
(0.00257133 -0.0970955 0.00139016)
(0.00275039 -0.0897547 0.00142893)
(0.00290491 -0.0811831 0.00148861)
(0.00303632 -0.0715772 0.00156566)
(0.00314691 -0.0611636 0.00165238)
(0.00323892 -0.0501715 0.0017372)
(0.00331386 -0.0388177 0.00180526)
(0.00337186 -0.0273034 0.0018396)
(0.00341135 -0.0158189 0.00182306)
(0.00342903 -0.0045524 0.00174132)
(0.00342025 0.00630049 0.00158678)
(0.00338037 0.0165673 0.00136252)
(0.00330555 0.0261726 0.00108316)
(0.00319327 0.0351911 0.000771711)
(0.0030416 0.0438609 0.00045492)
(0.00284827 0.0525667 0.000160026)
(0.00261027 0.0617865 -8.64233e-05)
(0.00232513 0.0719717 -0.000260008)
(0.00199305 0.0832975 -0.000343886)
(0.0016175 0.0952177 -0.000339229)
(0.00121014 0.105886 -0.000274718)
(0.000829129 0.112127 -0.000200712)
(0.000486278 0.110745 -0.000140835)
(0.00018585 0.0936148 -8.14169e-05)
(1.21798e-05 0.0459991 -2.40309e-05)
(1.51639e-05 -0.0275918 0.00038516)
(0.000190337 -0.0668822 0.00088136)
(0.000449101 -0.091931 0.00114465)
(0.000746576 -0.105887 0.00125982)
(0.00103504 -0.112406 0.00129722)
(0.00130571 -0.114847 0.00130118)
(0.0015664 -0.114929 0.00129173)
(0.00181609 -0.113273 0.00127953)
(0.00204923 -0.110077 0.00127266)
(0.00226221 -0.105401 0.00127855)
(0.00245266 -0.0992796 0.0013037)
(0.00261932 -0.0917887 0.0013525)
(0.00276251 -0.083074 0.00142593)
(0.00288407 -0.0733385 0.00152095)
(0.0029867 -0.0628099 0.00163044)
(0.00307312 -0.0517126 0.00174334)
(0.00314528 -0.0402532 0.00184507)
(0.00320368 -0.0286185 0.00191828)
(0.00324691 -0.0169829 0.00194435)
(0.00327145 -0.00552026 0.00190605)
(0.00327194 0.00558236 0.00179152)
(0.00324253 0.0161505 0.00159911)
(0.00317803 0.0260985 0.00133973)
(0.00307479 0.03549 0.00103472)
(0.0029303 0.0445554 0.000711096)
(0.0027423 0.0536756 0.000397474)
(0.00250844 0.0633223 0.000122067)
(0.00222743 0.0739281 -8.89642e-05)
(0.00190103 0.0856251 -0.000216275)
(0.00153492 0.0977947 -0.000256491)
(0.00114296 0.108511 -0.000230939)
(0.000781232 0.114604 -0.000181925)
(0.00045736 0.11291 -0.000132012)
(0.000174132 0.0951486 -7.13045e-05)
(1.17043e-05 0.0465956 -1.38054e-05)
(1.44983e-05 -0.0284326 0.000381621)
(0.000184961 -0.0687816 0.000854414)
(0.000436232 -0.0943654 0.0010899)
(0.000723961 -0.108501 0.00118196)
(0.00100151 -0.115035 0.00120397)
(0.00126108 -0.11744 0.00119844)
(0.00151052 -0.117462 0.00118328)
(0.0017487 -0.115721 0.00116822)
(0.00197026 -0.112416 0.00116107)
(0.00217178 -0.107611 0.00116926)
(0.00235099 -0.101349 0.00119947)
(0.00250684 -0.0937177 0.00125643)
(0.00263992 -0.0848727 0.0013416)
(0.0027524 -0.0750243 0.00145253)
(0.00284734 -0.0644022 0.00158277)
(0.00292789 -0.0532266 0.00172191)
(0.00299646 -0.0416934 0.00185584)
(0.00305402 -0.0299744 0.00196711)
(0.0030995 -0.0182254 0.00203604)
(0.00312939 -0.00660239 0.00204293)
(0.00313785 0.00472109 0.00197188)
(0.00311802 0.0155726 0.00181627)
(0.0030634 0.025857 0.00158265)
(0.00296911 0.0356254 0.00128984)
(0.00283192 0.045097 0.000964511)
(0.00264945 0.0546443 0.000636487)
(0.00241993 0.0647285 0.000335853)
(0.00214312 0.0757601 9.09334e-05)
(0.00182218 0.0878265 -7.61023e-05)
(0.0014643 0.100239 -0.000157442)
(0.00108524 0.110998 -0.000167808)
(0.000739946 0.116943 -0.000142801)
(0.000432566 0.114951 -0.000104997)
(0.000164303 0.0965905 -4.88664e-05)
(1.14569e-05 0.0471537 2.73444e-07)
(1.41366e-05 -0.0292538 0.000375137)
(0.000180603 -0.0706258 0.000821428)
(0.000425321 -0.0967165 0.0010282)
(0.000704454 -0.111013 0.00109742)
(0.00097246 -0.117552 0.00110462)
(0.00122255 -0.119917 0.00109002)
(0.00146251 -0.119876 0.00106926)
(0.00169088 -0.118051 0.00105112)
(0.00190235 -0.114642 0.00104318)
(0.00209368 -0.109713 0.00105286)
(0.00226277 -0.103318 0.00108695)
(0.00240877 -0.0955551 0.00115042)
(0.00253253 -0.0865922 0.00124511)
(0.00263651 -0.0766463 0.00136911)
(0.00272408 -0.065949 0.00151668)
(0.00279877 -0.0547166 0.00167827)
(0.00286346 -0.0431352 0.00184058)
(0.00291961 -0.0313608 0.00198663)
(0.00296655 -0.0195296 0.00209634)
(0.00300097 -0.00777688 0.00214819)
(0.0030167 0.00374175 0.00212268)
(0.00300605 0.0148597 0.00200811)
(0.00296121 0.025474 0.00180593)
(0.00287606 0.035622 0.0015315)
(0.00274649 0.0455087 0.00121029)
(0.00256989 0.0554936 0.000872889)
(0.00234489 0.0660235 0.000551266)
(0.00207227 0.0774835 0.000276213)
(0.00175645 0.0899152 7.30343e-05)
(0.00140594 0.102561 -4.60311e-05)
(0.00103806 0.113356 -8.9693e-05)
(0.000706408 0.119157 -8.7902e-05)
(0.000412351 0.116879 -6.40515e-05)
(0.00015616 0.0979495 -1.72993e-05)
(1.12857e-05 0.0476775 1.69612e-05)
(1.37808e-05 -0.0300557 0.00036542)
(0.000176566 -0.0724158 0.000780862)
(0.00041557 -0.0989852 0.000956723)
(0.000687389 -0.113423 0.00100233)
(0.000947442 -0.119957 0.000994507)
(0.00118983 -0.122279 0.000970657)
(0.00142218 -0.122174 0.000943936)
(0.00164252 -0.120262 0.000922139)
(0.00184551 -0.116746 0.000912591)
(0.00202809 -0.111694 0.000922752)
(0.00218835 -0.105169 0.000959513)
(0.00232563 -0.0972814 0.00102807)
(0.00244091 -0.0882093 0.00113064)
(0.00253686 -0.0781779 0.00126585)
(0.00261711 -0.0674216 0.00142868)
(0.00268552 -0.0561534 0.00161045)
(0.00274543 -0.04455 0.00179875)
(0.0027988 -0.0327519 0.0019773)
(0.00284553 -0.0208743 0.00212609)
(0.0028827 -0.00902856 0.00222239)
(0.00290413 0.00265193 0.00224369)
(0.00290151 0.0140116 0.00217336)
(0.00286588 0.0249424 0.00200742)
(0.0027898 0.0354678 0.00175693)
(0.00266811 0.0457757 0.00144538)
(0.00249777 0.0562085 0.00110356)
(0.00227769 0.0671937 0.000765237)
(0.00200942 0.0790877 0.000463806)
(0.00169853 0.0918849 0.000227927)