/*--------------------------------*- C++ -*----------------------------------*\
| =========                 |                                                 |
| \\      /  F ield         | OpenFOAM: The Open Source CFD Toolbox           |
|  \\    /   O peration     | Version:  v1912                                 |
|   \\  /    A nd           | Website:  www.openfoam.com                      |
|    \\/     M anipulation  |                                                 |
\*---------------------------------------------------------------------------*/
FoamFile
{
    version     2.0;
    format      ascii;
    class       volScalarField;
    location    "156/oil";
    object      heatTransferCoeff(T);
}
// * * * * * * * * * * * * * * * * * * * * * * * * * * * * * * * * * * * * * //

dimensions      [1 0 -3 -1 0 0 0];


internalField   uniform 0;

boundaryField
{
    maxY
    {
        type            calculated;
        value           uniform 0;
    }
    minX
    {
        type            calculated;
        value           uniform 0;
    }
    maxX
    {
        type            calculated;
        value           uniform 0;
    }
    minY
    {
        type            calculated;
        value           uniform 0;
    }
    minZ
    {
        type            calculated;
        value           uniform 0;
    }
    maxZ
    {
        type            calculated;
        value           uniform 0;
    }
    oil_to_sphere
    {
        type            calculated;
        value           nonuniform List<scalar> 
1536
(
-202.999
-212.485
-197.036
-194.515
-168.157
-173.861
-171.848
-130.187
-124.466
-219.586
-166.528
-221.707
-225.48
-221.881
-193.392
-167.146
-131.819
-125.187
-25.8055
-225.045
-219.693
-175.386
-172.675
-168.471
-177.079
-177.039
-177.125
-168.97
-213.04
-210.253
-197.234
-157.667
-145.177
-177.909
-167.659
-166.643
-159.959
-185.14
-174.861
-184.247
-174.921
-166.637
-207.699
-222.278
-211.167
-220.783
-173.71
-173.996
-190.559
-177.567
-174.848
-175.118
-171.32
-173.85
-150.966
-142.406
-173.133
-172.596
-125.917
-84.5775
-93.9227
-83.2281
-91.9337
-224.751
-225.966
-221.473
-212.128
-221.292
-202.262
-210.403
-178.394
-173.358
-196.768
-175.451
-167.718
-145.487
-140.549
-136.622
-167.41
-125.251
-82.835
-92.0694
-72.179
-71.1079
-98.7292
-93.7646
-74.1119
-131.215
-125.09
-84.2891
-92.9229
-25.5967
-25.8392
-225.659
-226.168
-222.471
-214.616
-217.882
-221.976
-201.219
-212.952
-177.641
-201.99
-197.51
-174.451
-175.421
-168.685
-137.461
-165.76
-146.386
-139.784
-144.673
-84.3309
-94.4137
-73.0518
-74.7186
-72.8994
-98.0167
-93.7549
-99.6745
-125.749
-93.0666
-25.8181
-221.471
-201.386
-210.256
-202.458
-209.361
-174.62
-175.248
-176.609
-174.588
-175.157
-173.528
-176.247
-177.254
-173.811
-142.438
-171.613
-171.06
-84.6178
-93.447
-131.326
-125.803
-92.2338
-124.073
-191.519
-191.66
-171.606
-179.445
-196.893
-191.492
-173.412
-176.259
-175.592
-160.377
-150.895
-153.075
-192.132
-189.185
-192.806
-207.022
-182.689
-176.334
-166.808
-160.357
-173.95
-163.613
-151.578
-153.649
-206.672
-186.46
-211.03
-183.932
-155.287
-139.521
-192.672
-194.683
-202.087
-190.61
-182.256
-175.76
-160.63
-175.39
-156.505
-153.758
-153.831
-215.942
-189.549
-197.19
-205.849
-192.992
-203.997
-196.293
-156.964
-158.345
-162.361
-163.68
-155.604
-159.25
-162.743
-167.778
-125.171
-121.828
-118.294
-127.533
-132.146
-130.266
-137.185
-135.199
-122.108
-115.214
-111.492
-216.709
-230.253
-226.359
-217.844
-217.558
-219.063
-217.096
-215.625
-222.99
-211.697
-216.305
-216.786
-193.508
-193.177
-211.443
-200.993
-179.461
-161.206
-156.561
-173.677
-157.879
-123.007
-126.454
-119.347
-127.931
-131.354
-120.1
-114.476
-65.7632
-57.9907
-223.491
-217.017
-220.135
-216.299
-221.399
-230.844
-222.157
-216.038
-188.507
-176.942
-189.088
-191.575
-158.738
-167.956
-123.064
-115.94
-132.784
-141.301
-136.776
-112.558
-57.3236
-64.5996
-42.2833
-42.3206
-64.8642
-219.896
-215.55
-214.557
-211.889
-216.342
-217.094
-213.744
-220.482
-233.589
-224.591
-215.517
-203.988
-191.897
-192.41
-199.671
-213.057
-201.683
-192.159
-191.916
-160.29
-161.628
-168.234
-169.926
-163.016
-167.62
-119.436
-115.56
-121.154
-129.387
-126.332
-131.586
-130.752
-130.737
-118.515
-113.464
-128.364
-121.682
-179.344
-171.373
-173.435
-160.295
-156.44
-154.001
-149.556
-207.804
-200.129
-211.358
-205.831
-200.076
-207.177
-209.194
-212.683
-218.464
-209.091
-211.206
-208.305
-229.477
-220.113
-216.78
-211.046
-218.091
-224.029
-217.505
-203.85
-205.945
-210.518
-200.077
-210.182
-213.065
-218.35
-216.956
-222.479
-220.338
-218.56
-213.747
-213.633
-212.119
-214.03
-207.41
-208.112
-201.47
-206.81
-198.064
-200.98
-212.854
-191.598
-208.357
-193.395
-195.963
-190.094
-179.704
-207.144
-192.176
-191.22
-199.331
-180.136
-187.261
-192.655
-178.302
-183.99
-174.295
-193.692
-207.046
-192.503
-193.72
-195.953
-182.151
-188.152
-186.627
-160.841
-165.293
-159.895
-151.998
-147.312
-152.478
-142.333
-138.461
-161.847
-165.623
-161.392
-153.933
-148.682
-156.387
-142.072
-138.535
-135.411
-158.24
-137.843
-153.478
-149.413
-153.95
-141.721
-161.358
-166.713
-161.037
-165.757
-140.077
-135.878
-153.633
-149.211
-155.249
-140.475
-137.11
-129.509
-125.518
-129.072
-125.172
-118.941
-119.266
-114.15
-123.715
-116.219
-132.865
-112.851
-115.065
-111.239
-105.606
-112.916
-110.173
-101.497
-98.804
-90.2094
-126.849
-123.269
-118.595
-128.112
-115.5
-119.137
-101.65
-97.6964
-96.0169
-90.288
-111.515
-106.524
-113.174
-110.402
-108.776
-128.861
-124.965
-129.913
-130.181
-119.128
-113.461
-126.166
-121.066
-247.222
-237.211
-228.182
-244.695
-228.946
-231.485
-237.416
-223.104
-225.753
-229.533
-228.491
-216.43
-224.002
-213.78
-212.65
-210.632
-210.059
-214.234
-212.855
-217.918
-223.351
-205.692
-219.792
-207.928
-214.029
-208.913
-220.268
-211.33
-219.206
-215.277
-221.251
-216.179
-206.219
-212.563
-201.651
-217.18
-190.558
-197.173
-194.288
-175.059
-183.397
-182.553
-193.39
-175.032
-191.012
-174.249
-183.227
-176.661
-168.91
-173.61
-161.269
-158.328
-149.626
-154.466
-152.069
-146.872
-139.665
-156.174
-138.606
-166.853
-159.874
-151.028
-115.484
-110.558
-106.489
-114.21
-111.016
-122.395
-115.479
-132.721
-112.066
-100.869
-100.077
-91.1965
-78.753
-70.1403
-79.4081
-70.5177
-86.5945
-94.1343
-86.2843
-77.2125
-79.2141
-121.843
-126.054
-118.187
-127.486
-113.031
-106.86
-114.35
-109.257
-121.57
-114.815
-129.575
-135.888
-112.343
-101.104
-109.118
-98.8019
-90.2766
-105.977
-64.8553
-57.805
-66.9743
-57.8709
-42.8452
-42.5208
-42.6736
-42.5077
-56.2724
-241.16
-226.146
-231.75
-229.688
-226.822
-241.481
-232.585
-229.243
-225.222
-216.694
-228.332
-230.754
-234.951
-217.565
-218.135
-223.766
-224.314
-205.727
-216.794
-206.59
-220.169
-214.164
-213.338
-210.329
-215.892
-210.051
-215.325
-221.356
-211.531
-205.161
-202.124
-214.642
-219.827
-205.686
-218.487
-207.965
-201.124
-222.11
-213.698
-212.656
-215.376
-208.57
-208.445
-213.504
-220.012
-209.479
-202.136
-193.875
-191.716
-183.952
-176.359
-185.671
-204.809
-196.818
-193.933
-186.88
-185.784
-180.454
-182.392
-183.271
-175.295
-175.213
-160.623
-172.913
-156.506
-163.82
-154.197
-149.886
-178.031
-168.142
-141.99
-158.192
-138.332
-156.486
-146.403
-139.246
-152.147
-154.296
-153.327
-152.047
-150.266
-174.839
-159.191
-100.853
-100.694
-96.789
-91.5403
-126.114
-121.976
-118.542
-127.914
-115.687
-119.462
-107.351
-114.825
-113.992
-110.068
-108.152
-87.4789
-87.4529
-95.0995
-78.2401
-78.8917
-70.0185
-79.5716
-79.7472
-69.7746
-93.2506
-85.6584
-86.1532
-94.3862
-77.5745
-121.71
-115.106
-131.536
-136.026
-112.434
-101.509
-109.395
-97.8085
-96.6594
-106.383
-119.846
-113.906
-125.458
-122.997
-118.53
-127.992
-130.972
-106.538
-111.552
-113.899
-109.739
-108.598
-42.7357
-42.7295
-66.2722
-65.4259
-58.0857
-56.2235
-74.2579
-65.2669
-56.849
-199.525
-209.853
-209.008
-199.097
-208.44
-199.633
-199.111
-219.289
-215.575
-223.873
-215.89
-206.328
-213.139
-209.571
-218.26
-211.426
-214.833
-206.769
-206.654
-219.909
-213.853
-210.698
-211.689
-208.644
-208.475
-212.551
-202.566
-201.259
-206.741
-211.714
-206.428
-215.102
-209.472
-224.614
-207.411
-202.756
-205.415
-206.785
-201.215
-199.141
-213.24
-192.29
-183.496
-183.822
-189.479
-176.138
-205.677
-192.092
-191.35
-197.101
-187.555
-187.777
-182.367
-200.965
-190.308
-192.084
-196.944
-180.731
-182.284
-191.1
-189.161
-176.142
-195.462
-205.659
-194.697
-196.409
-188.556
-187.976
-183.486
-183.306
-175.311
-153.231
-148.902
-154.518
-141.889
-139.977
-136.379
-164.475
-158.062
-165.654
-161.339
-148.981
-153.751
-153.394
-140.066
-136.832
-137.786
-161.427
-161.075
-166.785
-160.732
-166.317
-139.374
-141.734
-152.845
-148.086
-153.394
-139.675
-136.737
-168.416
-160.19
-160.073
-163.426
-167.375
-141.486
-137.363
-149.279
-154.398
-154.38
-125.108
-129.824
-119.091
-118.381
-113.237
-129.076
-125.576
-129.523
-111.656
-106.444
-113.739
-109.267
-102.861
-111.23
-99.4514
-90.7809
-107.129
-122.648
-125.246
-117.953
-128.108
-136.258
-146.161
-125.735
-117.906
-113.659
-115.945
-123.106
-101.398
-108.473
-98.5165
-97.3114
-105.355
-112.076
-107.052
-112.468
-111.345
-108.774
-129.829
-136.657
-122.561
-115.332
-111.959
-127.589
-131.494
-122.562
-126.341
-119.22
-197.905
-192.949
-140.18
-133.387
-221.83
-214.039
-219.342
-221.065
-219.296
-190.197
-204.497
-198.37
-202.695
-166.135
-175.948
-133.564
-71.0946
-68.6791
-197.334
-197.155
-130.657
-71.338
-66.9998
-84.5395
-221.438
-192.377
-172.708
-83.2865
-202.848
-195.814
-201.036
-165.413
-176.933
-175.698
-130.136
-198.492
-202.997
-174.923
-176.236
-200.935
-173.879
-175.747
-162.475
-167.856
-136.64
-144.78
-151.493
-193.01
-200.06
-172.561
-183.109
-164.968
-171.743
-136.652
-144.493
-146.746
-191.499
-203.355
-173.497
-187.593
-149.294
-137.542
-147.425
-161.227
-182.906
-181.036
-200.93
-203.58
-175.807
-174.465
-172.642
-175.997
-146.016
-137.747
-146.083
-131.518
-230.314
-225.159
-201.055
-218.086
-200.266
-222.528
-220.065
-175.373
-193.855
-193.283
-196.965
-192.624
-173.967
-148.543
-144.585
-144.828
-145.572
-145.162
-143.023
-103.27
-133.169
-100.058
-104.026
-226.126
-219.967
-228.659
-221.353
-226.618
-223.21
-226.503
-224.516
-228.662
-223.366
-200.891
-218.694
-201.093
-210.675
-201.331
-173.159
-185.282
-191.101
-207.522
-177.309
-199.658
-173.322
-137.744
-146.279
-148.954
-139.188
-144.905
-143.941
-131.892
-103.85
-96.0844
-93.9343
-97.7719
-133.082
-102.464
-69.1229
-71.0687
-66.8509
-230.182
-226.216
-223.062
-233.896
-223.963
-228.144
-223.264
-231.5
-227.605
-201.667
-218.064
-198.004
-220.782
-219.437
-213.617
-219.186
-213.715
-199.272
-206.153
-172.542
-191.437
-205.451
-192.466
-204.106
-176.059
-136.679
-147.011
-164.681
-174.209
-142.672
-151.241
-138.596
-145.464
-172.268
-133.899
-103.391
-92.3801
-96.4476
-93.5427
-132.494
-102.437
-69.0111
-66.9838
-68.0951
-225.282
-209.371
-202.603
-221.708
-199.378
-175.41
-197.041
-194.041
-193.882
-193.009
-143.802
-152.281
-143.37
-143.453
-143.617
-102.912
-135.499
-104.532
-134.587
-200.534
-191.032
-181.551
-190.015
-203.492
-192.268
-153.98
-160.973
-153.719
-195.557
-203.593
-194.4
-184.949
-205.646
-178.853
-189.592
-188.457
-179.769
-194.049
-186.619
-204.074
-182.162
-187.05
-187.885
-183.208
-167.235
-166.253
-154.805
-154.499
-147.99
-139.438
-153.733
-146.129
-150.318
-201.418
-189.322
-183.598
-189.569
-202.258
-178.848
-181.662
-182.962
-169.591
-189.468
-160.513
-171.079
-168.292
-155.609
-156.685
-149.265
-139.322
-152.146
-145.074
-150.504
-190.248
-201.291
-178.728
-180.29
-184.464
-168.19
-188.807
-165.92
-154.975
-144.775
-156.052
-151.569
-155.492
-213.454
-213.815
-212.263
-214.985
-181.853
-203.019
-194.763
-161.777
-162.049
-168.171
-167.106
-165.919
-130.005
-137.844
-136.747
-121.064
-118.11
-139.016
-131.793
-131.633
-214.8
-216.947
-220.999
-212.238
-185.404
-194.08
-180.238
-207.624
-193.291
-165.796
-165.718
-155.717
-130.932
-141.958
-136.561
-121.712
-87.342
-88.7945
-77.9497
-79.0833
-69.9244
-65.7956
-215.098
-214.093
-213.806
-210.852
-218.679
-190.323
-199.872
-195.047
-159.67
-118.337
-137.626
-78.7803
-69.7843
-66.7658
-55.0993
-90.2461
-215.001
-215.503
-220.815
-215.351
-218.612
-218.424
-215.544
-213.687
-219.422
-179.143
-187.205
-215.78
-192.78
-166.657
-167.296
-131.6
-137.959
-130.313
-126.805
-135.305
-121.034
-90.8472
-166.185
-135.997
-206.42
-202.561
-190.405
-191.508
-166.249
-159.25
-163.608
-151.911
-144.414
-154.608
-146.868
-145.948
-143.199
-229.869
-226.093
-195.944
-197.317
-208.925
-213.924
-211.324
-212.858
-198.393
-208.053
-203.53
-210.995
-199.619
-205.821
-216.871
-211.781
-213.08
-211.924
-197.193
-203.012
-205.553
-209.914
-214.676
-219.317
-216.751
-218.267
-208.089
-197.828
-204.537
-219.159
-215.12
-219.413
-216.659
-199.051
-213.938
-217.983
-211.415
-203.816
-207.185
-203.259
-190.308
-185.051
-209.656
-189.973
-183.055
-182.983
-173.13
-174.573
-174.032
-184.138
-204.963
-194.044
-176.304
-175.311
-183.154
-176.479
-184.433
-201.541
-188.022
-175.083
-169.155
-167.492
-151.883
-155.047
-139.099
-167.626
-151.751
-156.737
-140.507
-162.698
-167.859
-153.144
-140.052
-166.802
-147.656
-153
-130.686
-130.452
-118.304
-119.437
-108.486
-109.537
-119.775
-109.577
-106.93
-97.258
-95.4974
-94.6411
-99.3308
-129.348
-121.167
-109.064
-105.6
-98.4277
-98.4784
-93.9372
-126.848
-131.311
-109.101
-231.973
-221.691
-227.172
-216.565
-220.898
-231.587
-213.263
-241.559
-221.763
-224.341
-223.064
-232.073
-223.474
-230.553
-241.942
-232.467
-221.546
-228.806
-208.034
-214.555
-224.998
-218.852
-200.613
-213.344
-205.938
-215.871
-211.749
-214.767
-211.92
-219.51
-206.428
-196.605
-201.879
-209.722
-218.709
-213.754
-212.814
-208.283
-180.764
-187.093
-174.387
-190.543
-200.862
-180.929
-187.086
-189.541
-191.86
-192.178
-200.219
-182.319
-161.433
-154.334
-149.423
-158.164
-166.68
-144.885
-146.403
-154.346
-161.608
-154.399
-147.445
-140.261
-98.8455
-97.5495
-95.6806
-117.911
-108.968
-105.712
-98.0024
-129.263
-133.387
-97.8455
-96.2914
-118.259
-98.6005
-66.7053
-67.0264
-56.7407
-74.2057
-55.4316
-66.6428
-75.8192
-234.024
-221.926
-237.196
-228.001
-227.155
-219.359
-221.364
-213.41
-229.828
-237.112
-230.725
-222.06
-219.763
-217.767
-223.962
-224.159
-223.959
-208.124
-219.86
-205.206
-217.823
-219.611
-214.842
-195.03
-220.01
-209.945
-214.206
-212.295
-207.684
-212.119
-212.402
-201.258
-206.249
-202.216
-187.986
-201.193
-190.868
-181.684
-178.739
-168.739
-183.423
-203.684
-188.607
-189.661
-163.478
-146.572
-148.779
-159.475
-159.339
-150.686
-156.936
-156.679
-153.742
-147.517
-165.095
-166.292
-109.043
-105.968
-98.3179
-130.752
-121.977
-98.0352
-95.5928
-118.805
-99.0333
-129.47
-97.2065
-56.3048
-66.3118
-75.9631
-231.669
-215.001
-200.326
-211.994
-200.277
-199.933
-206.726
-218.762
-214.725
-213.202
-200.821
-206.453
-210.988
-208.195
-215.498
-212.908
-214.528
-212.118
-208.049
-197.751
-212.371
-205.92
-203.646
-192.236
-176.051
-186.164
-210.38
-189.539
-182.54
-174.293
-174.22
-183.714
-204.127
-174.699
-183.269
-203.468
-176.119
-150.695
-141.658
-163.584
-167.526
-163.016
-150.901
-157.555
-165.659
-147.929
-166.55
-147.98
-108.114
-131.067
-97.5523
-96.042
-100.117
-129.685
-138.766
-119.615
-98.1013
-99.7879
-117.756
-130.095
)
;
    }
}


// ************************************************************************* //
