/*--------------------------------*- C++ -*----------------------------------*\
| =========                 |                                                 |
| \\      /  F ield         | OpenFOAM: The Open Source CFD Toolbox           |
|  \\    /   O peration     | Version:  v1912                                 |
|   \\  /    A nd           | Website:  www.openfoam.com                      |
|    \\/     M anipulation  |                                                 |
\*---------------------------------------------------------------------------*/
FoamFile
{
    version     2.0;
    format      ascii;
    class       volScalarField;
    location    "19.5/sphere";
    object      ddt0((betavSolid*thermo:rho),h);
}
// * * * * * * * * * * * * * * * * * * * * * * * * * * * * * * * * * * * * * //

dimensions      [1 -1 -3 0 0 0 0];


internalField   nonuniform List<scalar> 
1992
(
-4.80712e+06
-4.80961e+06
-4.80934e+06
-4.81446e+06
-4.80791e+06
-4.80779e+06
-4.80959e+06
-4.82495e+06
-4.82823e+06
-4.81893e+06
-4.8092e+06
-4.82807e+06
-4.83125e+06
-4.82233e+06
-4.81744e+06
-4.82212e+06
-4.81491e+06
-4.80943e+06
-4.8144e+06
-4.80803e+06
-4.8093e+06
-4.82809e+06
-4.83128e+06
-4.82237e+06
-4.81382e+06
-4.83111e+06
-4.83428e+06
-4.82546e+06
-4.80932e+06
-4.80753e+06
-4.82198e+06
-4.82519e+06
-4.81967e+06
-4.80891e+06
-4.80792e+06
-4.81863e+06
-4.82224e+06
-4.81421e+06
-4.80763e+06
-4.82203e+06
-4.8253e+06
-4.81967e+06
-4.8138e+06
-4.81956e+06
-4.81117e+06
-4.80908e+06
-4.80908e+06
-4.80908e+06
-4.80888e+06
-4.80908e+06
-4.80733e+06
-4.81448e+06
-4.8097e+06
-4.82227e+06
-4.81889e+06
-4.82534e+06
-4.82231e+06
-4.81884e+06
-4.82532e+06
-4.82228e+06
-4.8096e+06
-4.80724e+06
-4.81446e+06
-4.80965e+06
-4.82226e+06
-4.82219e+06
-4.81878e+06
-4.81445e+06
-4.80962e+06
-4.80957e+06
-4.80723e+06
-4.80888e+06
-4.80888e+06
-4.80881e+06
-4.80869e+06
-4.80818e+06
-4.80869e+06
-4.80882e+06
-4.80818e+06
-4.80869e+06
-4.80882e+06
-4.80818e+06
-4.80889e+06
-4.8106e+06
-4.80786e+06
-4.80791e+06
-4.81399e+06
-4.81964e+06
-4.80788e+06
-4.80797e+06
-4.81967e+06
-4.81424e+06
-4.81128e+06
-4.80773e+06
-4.81393e+06
-4.80765e+06
-4.8195e+06
-4.80948e+06
-4.80937e+06
-4.81417e+06
-4.81866e+06
-4.82217e+06
-4.82209e+06
-4.82519e+06
-4.809e+06
-4.81152e+06
-4.81086e+06
-4.81633e+06
-4.81479e+06
-4.81351e+06
-4.81699e+06
-4.80792e+06
-4.81422e+06
-4.81971e+06
-4.80793e+06
-4.80772e+06
-4.80764e+06
-4.81949e+06
-4.81388e+06
-4.81416e+06
-4.80707e+06
-4.80942e+06
-4.82205e+06
-4.82515e+06
-4.8186e+06
-4.82208e+06
-4.80967e+06
-4.80954e+06
-4.8072e+06
-4.82531e+06
-4.82229e+06
-4.82219e+06
-4.8188e+06
-4.8197e+06
-4.80792e+06
-4.81416e+06
-4.81045e+06
-4.80775e+06
-4.81381e+06
-4.81953e+06
-4.80774e+06
-4.81956e+06
-4.81412e+06
-4.80778e+06
-4.81114e+06
-4.80902e+06
-4.80914e+06
-4.81392e+06
-4.80781e+06
-4.80769e+06
-4.81954e+06
-4.80953e+06
-4.81756e+06
-4.82214e+06
-4.80943e+06
-4.8142e+06
-4.82209e+06
-4.82517e+06
-4.80739e+06
-4.82225e+06
-4.81892e+06
-4.81439e+06
-4.80976e+06
-4.82531e+06
-4.82235e+06
-4.81503e+06
-4.808e+06
-4.81977e+06
-4.80797e+06
-4.80866e+06
-4.81753e+06
-4.80923e+06
-4.822e+06
-4.80928e+06
-4.82202e+06
-4.81383e+06
-4.825e+06
-4.80733e+06
-4.82235e+06
-4.80972e+06
-4.82238e+06
-4.80974e+06
-4.82548e+06
-4.8148e+06
-4.80934e+06
-4.80865e+06
-4.82198e+06
-4.81748e+06
-4.81382e+06
-4.82498e+06
-4.80918e+06
-4.82196e+06
-4.80968e+06
-4.81888e+06
-4.80727e+06
-4.82546e+06
-4.81479e+06
-4.82232e+06
-4.80968e+06
-4.80933e+06
-4.81384e+06
-4.80755e+06
-4.81944e+06
-4.80763e+06
-4.82202e+06
-4.80934e+06
-4.82198e+06
-4.82505e+06
-4.80925e+06
-4.81401e+06
-4.81879e+06
-4.80941e+06
-4.8072e+06
-4.82519e+06
-4.82221e+06
-4.8142e+06
-4.8096e+06
-4.81966e+06
-4.80789e+06
-4.80783e+06
-4.80882e+06
-4.80893e+06
-4.80904e+06
-4.80914e+06
-4.8078e+06
-4.80765e+06
-4.81953e+06
-4.81387e+06
-4.81421e+06
-4.82207e+06
-4.82517e+06
-4.80951e+06
-4.81752e+06
-4.82213e+06
-4.80976e+06
-4.82531e+06
-4.82233e+06
-4.80956e+06
-4.8073e+06
-4.82224e+06
-4.81889e+06
-4.81977e+06
-4.80799e+06
-4.815e+06
-4.80867e+06
-4.82201e+06
-4.81384e+06
-4.825e+06
-4.81751e+06
-4.80925e+06
-4.822e+06
-4.80978e+06
-4.82548e+06
-4.8148e+06
-4.81889e+06
-4.80733e+06
-4.82233e+06
-4.8097e+06
-4.80933e+06
-4.80863e+06
-4.82497e+06
-4.80918e+06
-4.82194e+06
-4.80922e+06
-4.82197e+06
-4.81742e+06
-4.81479e+06
-4.82232e+06
-4.80968e+06
-4.82232e+06
-4.80971e+06
-4.81886e+06
-4.80721e+06
-4.81943e+06
-4.80764e+06
-4.81375e+06
-4.82505e+06
-4.80924e+06
-4.81398e+06
-4.81742e+06
-4.82202e+06
-4.80933e+06
-4.82222e+06
-4.81418e+06
-4.80958e+06
-4.82212e+06
-4.81879e+06
-4.8094e+06
-4.80716e+06
-4.80789e+06
-4.80782e+06
-4.81493e+06
-4.80879e+06
-4.81051e+06
-4.80788e+06
-4.81389e+06
-4.81961e+06
-4.80781e+06
-4.81965e+06
-4.81422e+06
-4.80789e+06
-4.81126e+06
-4.81393e+06
-4.80763e+06
-4.81949e+06
-4.80773e+06
-4.82214e+06
-4.82205e+06
-4.82516e+06
-4.80709e+06
-4.8095e+06
-4.80936e+06
-4.81416e+06
-4.81968e+06
-4.8079e+06
-4.8079e+06
-4.81947e+06
-4.81381e+06
-4.80771e+06
-4.82514e+06
-4.81856e+06
-4.82208e+06
-4.80934e+06
-4.81414e+06
-4.8071e+06
-4.80942e+06
-4.80793e+06
-4.81416e+06
-4.80787e+06
-4.8104e+06
-4.81953e+06
-4.8077e+06
-4.80776e+06
-4.81411e+06
-4.80776e+06
-4.80781e+06
-4.80759e+06
-4.80711e+06
-4.80697e+06
-4.80756e+06
-4.80714e+06
-4.80774e+06
-4.80718e+06
-4.80771e+06
-4.80713e+06
-4.80771e+06
-4.8071e+06
-4.80759e+06
-4.80712e+06
-4.80706e+06
-4.80703e+06
-4.80822e+06
-4.80811e+06
-4.80718e+06
-4.80879e+06
-4.80865e+06
-4.80814e+06
-4.8077e+06
-4.80708e+06
-4.80754e+06
-4.80705e+06
-4.80818e+06
-4.80815e+06
-4.8097e+06
-4.81486e+06
-4.81e+06
-4.81205e+06
-4.81207e+06
-4.809e+06
-4.8117e+06
-4.81088e+06
-4.81636e+06
-4.81488e+06
-4.8135e+06
-4.81713e+06
-4.80897e+06
-4.8115e+06
-4.8108e+06
-4.81627e+06
-4.81476e+06
-4.81347e+06
-4.81695e+06
-4.80813e+06
-4.80814e+06
-4.80967e+06
-4.8148e+06
-4.80994e+06
-4.81202e+06
-4.81199e+06
-4.80897e+06
-4.81164e+06
-4.81086e+06
-4.81631e+06
-4.81483e+06
-4.81348e+06
-4.81707e+06
-4.81159e+06
-4.80896e+06
-4.81082e+06
-4.81628e+06
-4.81482e+06
-4.81706e+06
-4.81349e+06
-4.81152e+06
-4.80892e+06
-4.8108e+06
-4.81624e+06
-4.8147e+06
-4.81691e+06
-4.81341e+06
-4.80811e+06
-4.8081e+06
-4.80961e+06
-4.81476e+06
-4.80991e+06
-4.81202e+06
-4.81198e+06
-4.80715e+06
-4.80696e+06
-4.80823e+06
-4.8081e+06
-4.80717e+06
-4.80822e+06
-4.8081e+06
-4.80714e+06
-4.80713e+06
-4.80795e+06
-4.80794e+06
-4.80933e+06
-4.81448e+06
-4.80978e+06
-4.81186e+06
-4.81183e+06
-4.80777e+06
-4.80924e+06
-4.80738e+06
-4.81087e+06
-4.81581e+06
-4.80869e+06
-4.81454e+06
-4.81012e+06
-4.81661e+06
-4.81318e+06
-4.80733e+06
-4.81151e+06
-4.8081e+06
-4.80838e+06
-4.81066e+06
-4.80718e+06
-4.80759e+06
-4.80901e+06
-4.80727e+06
-4.80804e+06
-4.81136e+06
-4.81059e+06
-4.80827e+06
-4.81349e+06
-4.80748e+06
-4.80919e+06
-4.80748e+06
-4.81123e+06
-4.80893e+06
-4.81126e+06
-4.81612e+06
-4.80896e+06
-4.81473e+06
-4.81112e+06
-4.81348e+06
-4.81045e+06
-4.81681e+06
-4.80747e+06
-4.8078e+06
-4.80932e+06
-4.81338e+06
-4.80908e+06
-4.80731e+06
-4.80729e+06
-4.81107e+06
-4.81116e+06
-4.80877e+06
-4.81553e+06
-4.81438e+06
-4.80845e+06
-4.81073e+06
-4.81296e+06
-4.81642e+06
-4.80986e+06
-4.80778e+06
-4.80719e+06
-4.80708e+06
-4.80726e+06
-4.80879e+06
-4.80987e+06
-4.81095e+06
-4.81089e+06
-4.81722e+06
-4.80826e+06
-4.81329e+06
-4.81322e+06
-4.80708e+06
-4.81569e+06
-4.81099e+06
-4.81454e+06
-4.80869e+06
-4.81662e+06
-4.81011e+06
-4.8131e+06
-4.81769e+06
-4.81376e+06
-4.81925e+06
-4.81292e+06
-4.81859e+06
-4.81216e+06
-4.81836e+06
-4.80822e+06
-4.81159e+06
-4.80742e+06
-4.80848e+06
-4.81077e+06
-4.81558e+06
-4.81445e+06
-4.81079e+06
-4.80857e+06
-4.81649e+06
-4.81301e+06
-4.80994e+06
-4.80786e+06
-4.8073e+06
-4.81702e+06
-4.81876e+06
-4.81241e+06
-4.81241e+06
-4.81789e+06
-4.81789e+06
-4.81116e+06
-4.80895e+06
-4.80894e+06
-4.80829e+06
-4.80784e+06
-4.81116e+06
-4.80698e+06
-4.80812e+06
-4.81031e+06
-4.80694e+06
-4.80863e+06
-4.80818e+06
-4.80769e+06
-4.80728e+06
-4.80745e+06
-4.80896e+06
-4.80819e+06
-4.80743e+06
-4.81144e+06
-4.8107e+06
-4.8084e+06
-4.80718e+06
-4.80739e+06
-4.80889e+06
-4.81716e+06
-4.81056e+06
-4.81326e+06
-4.80988e+06
-4.81066e+06
-4.81326e+06
-4.80778e+06
-4.80789e+06
-4.81117e+06
-4.80711e+06
-4.8104e+06
-4.80817e+06
-4.80964e+06
-4.81696e+06
-4.81016e+06
-4.81027e+06
-4.81292e+06
-4.81304e+06
-4.80749e+06
-4.80787e+06
-4.80849e+06
-4.80851e+06
-4.80722e+06
-4.80701e+06
-4.8081e+06
-4.80819e+06
-4.80714e+06
-4.80707e+06
-4.80777e+06
-4.80776e+06
-4.80771e+06
-4.80736e+06
-4.80764e+06
-4.80917e+06
-4.80731e+06
-4.8114e+06
-4.80811e+06
-4.80838e+06
-4.81061e+06
-4.80728e+06
-4.80752e+06
-4.809e+06
-4.8081e+06
-4.80731e+06
-4.81142e+06
-4.8084e+06
-4.81055e+06
-4.80977e+06
-4.81041e+06
-4.81031e+06
-4.81709e+06
-4.80767e+06
-4.81316e+06
-4.81305e+06
-4.80732e+06
-4.81146e+06
-4.8107e+06
-4.80816e+06
-4.8084e+06
-4.80781e+06
-4.80929e+06
-4.80741e+06
-4.80821e+06
-4.80747e+06
-4.81148e+06
-4.80843e+06
-4.81074e+06
-4.80745e+06
-4.80783e+06
-4.80931e+06
-4.81059e+06
-4.81718e+06
-4.81329e+06
-4.80993e+06
-4.8107e+06
-4.80782e+06
-4.81331e+06
-4.80795e+06
-4.80858e+06
-4.80859e+06
-4.80735e+06
-4.80724e+06
-4.80762e+06
-4.8091e+06
-4.80719e+06
-4.80798e+06
-4.81132e+06
-4.81054e+06
-4.80822e+06
-4.8072e+06
-4.80738e+06
-4.80888e+06
-4.80968e+06
-4.81036e+06
-4.81025e+06
-4.81702e+06
-4.80757e+06
-4.81308e+06
-4.81295e+06
-4.80795e+06
-4.80709e+06
-4.81125e+06
-4.80821e+06
-4.81041e+06
-4.81103e+06
-4.80881e+06
-4.81468e+06
-4.8102e+06
-4.81678e+06
-4.81592e+06
-4.8133e+06
-4.80873e+06
-4.81088e+06
-4.81011e+06
-4.81587e+06
-4.81456e+06
-4.81326e+06
-4.81664e+06
-4.80733e+06
-4.81151e+06
-4.81069e+06
-4.80813e+06
-4.80839e+06
-4.81057e+06
-4.81717e+06
-4.81323e+06
-4.80989e+06
-4.81064e+06
-4.80776e+06
-4.8133e+06
-4.80739e+06
-4.8078e+06
-4.80929e+06
-4.80814e+06
-4.80738e+06
-4.81148e+06
-4.80839e+06
-4.81071e+06
-4.80793e+06
-4.80715e+06
-4.81131e+06
-4.80821e+06
-4.81048e+06
-4.80717e+06
-4.80757e+06
-4.80901e+06
-4.80791e+06
-4.81121e+06
-4.80707e+06
-4.80819e+06
-4.81035e+06
-4.80716e+06
-4.80723e+06
-4.80879e+06
-4.8096e+06
-4.8103e+06
-4.81697e+06
-4.81019e+06
-4.81301e+06
-4.80747e+06
-4.8129e+06
-4.81261e+06
-4.81274e+06
-4.8191e+06
-4.81729e+06
-4.8114e+06
-4.81814e+06
-4.81824e+06
-4.81441e+06
-4.8079e+06
-4.80789e+06
-4.80971e+06
-4.8093e+06
-4.81173e+06
-4.81177e+06
-4.81102e+06
-4.81585e+06
-4.80874e+06
-4.81461e+06
-4.81014e+06
-4.81673e+06
-4.81321e+06
-4.81167e+06
-4.80897e+06
-4.81488e+06
-4.81083e+06
-4.81711e+06
-4.81631e+06
-4.81352e+06
-4.8115e+06
-4.80888e+06
-4.81078e+06
-4.81625e+06
-4.81471e+06
-4.81691e+06
-4.81343e+06
-4.80811e+06
-4.80806e+06
-4.80961e+06
-4.81478e+06
-4.80991e+06
-4.81202e+06
-4.81198e+06
-4.80735e+06
-4.80772e+06
-4.80922e+06
-4.80813e+06
-4.81147e+06
-4.80738e+06
-4.80839e+06
-4.81067e+06
-4.80985e+06
-4.81052e+06
-4.81714e+06
-4.81063e+06
-4.81324e+06
-4.80771e+06
-4.81325e+06
-4.80736e+06
-4.80776e+06
-4.80922e+06
-4.80769e+06
-4.80765e+06
-4.80762e+06
-4.80797e+06
-4.80718e+06
-4.81133e+06
-4.8105e+06
-4.80825e+06
-4.80961e+06
-4.8103e+06
-4.81693e+06
-4.81018e+06
-4.81298e+06
-4.80744e+06
-4.81289e+06
-4.80718e+06
-4.80734e+06
-4.80886e+06
-4.80796e+06
-4.81127e+06
-4.80716e+06
-4.80825e+06
-4.81042e+06
-4.80733e+06
-4.80771e+06
-4.80916e+06
-4.80979e+06
-4.8105e+06
-4.81707e+06
-4.81056e+06
-4.81319e+06
-4.80765e+06
-4.81314e+06
-4.80804e+06
-4.81132e+06
-4.80724e+06
-4.80827e+06
-4.81058e+06
-4.80729e+06
-4.80769e+06
-4.80912e+06
-4.80788e+06
-4.80848e+06
-4.80851e+06
-4.80723e+06
-4.80723e+06
-4.80712e+06
-4.80831e+06
-4.80824e+06
-4.80726e+06
-4.8073e+06
-4.80842e+06
-4.80887e+06
-4.80793e+06
-4.80782e+06
-4.80726e+06
-4.80724e+06
-4.80746e+06
-4.80895e+06
-4.80722e+06
-4.80742e+06
-4.80891e+06
-4.80969e+06
-4.81028e+06
-4.81027e+06
-4.81701e+06
-4.8076e+06
-4.813e+06
-4.81297e+06
-4.80804e+06
-4.80729e+06
-4.81134e+06
-4.81054e+06
-4.80831e+06
-4.808e+06
-4.80716e+06
-4.81126e+06
-4.81045e+06
-4.80826e+06
-4.81573e+06
-4.80878e+06
-4.81463e+06
-4.81105e+06
-4.81316e+06
-4.81016e+06
-4.81671e+06
-4.81572e+06
-4.8087e+06
-4.81095e+06
-4.81456e+06
-4.81011e+06
-4.8132e+06
-4.81662e+06
-4.81727e+06
-4.81275e+06
-4.81267e+06
-4.81911e+06
-4.81144e+06
-4.81823e+06
-4.81815e+06
-4.81477e+06
-4.8082e+06
-4.81002e+06
-4.80824e+06
-4.81205e+06
-4.80964e+06
-4.81208e+06
-4.81769e+06
-4.81292e+06
-4.81376e+06
-4.81925e+06
-4.81214e+06
-4.81836e+06
-4.81859e+06
-4.8163e+06
-4.80905e+06
-4.81167e+06
-4.81492e+06
-4.81078e+06
-4.81358e+06
-4.81711e+06
-4.81003e+06
-4.81102e+06
-4.81104e+06
-4.81734e+06
-4.80837e+06
-4.81337e+06
-4.81341e+06
-4.80751e+06
-4.80779e+06
-4.80932e+06
-4.80822e+06
-4.80746e+06
-4.81155e+06
-4.81077e+06
-4.80846e+06
-4.8082e+06
-4.80743e+06
-4.81153e+06
-4.81074e+06
-4.80845e+06
-4.80683e+06
-4.80693e+06
-4.80796e+06
-4.808e+06
-4.80701e+06
-4.81554e+06
-4.80854e+06
-4.81441e+06
-4.81073e+06
-4.81299e+06
-4.80993e+06
-4.81643e+06
-4.81557e+06
-4.80855e+06
-4.81445e+06
-4.81078e+06
-4.81306e+06
-4.80994e+06
-4.81648e+06
-4.81707e+06
-4.8124e+06
-4.81246e+06
-4.81877e+06
-4.81122e+06
-4.81791e+06
-4.81795e+06
-4.8149e+06
-4.81002e+06
-4.80819e+06
-4.80822e+06
-4.81211e+06
-4.81212e+06
-4.80973e+06
-4.81641e+06
-4.80905e+06
-4.81489e+06
-4.81177e+06
-4.81357e+06
-4.81095e+06
-4.81719e+06
-4.81641e+06
-4.80906e+06
-4.81493e+06
-4.81175e+06
-4.81358e+06
-4.81091e+06
-4.8172e+06
-4.818e+06
-4.81401e+06
-4.81402e+06
-4.81964e+06
-4.81269e+06
-4.81882e+06
-4.81883e+06
-4.80781e+06
-4.80722e+06
-4.80784e+06
-4.80721e+06
-4.80895e+06
-4.80897e+06
-4.80832e+06
-4.80686e+06
-4.80797e+06
-4.80793e+06
-4.80702e+06
-4.80673e+06
-4.81339e+06
-4.80725e+06
-4.80899e+06
-4.80724e+06
-4.81103e+06
-4.80869e+06
-4.81109e+06
-4.81704e+06
-4.81245e+06
-4.81876e+06
-4.81239e+06
-4.81791e+06
-4.81121e+06
-4.81789e+06
-4.81553e+06
-4.80846e+06
-4.81071e+06
-4.81438e+06
-4.80985e+06
-4.81299e+06
-4.81642e+06
-4.81637e+06
-4.81488e+06
-4.80898e+06
-4.81169e+06
-4.81352e+06
-4.81717e+06
-4.81089e+06
-4.81484e+06
-4.80816e+06
-4.80995e+06
-4.80816e+06
-4.81203e+06
-4.80969e+06
-4.81202e+06
-4.81797e+06
-4.814e+06
-4.81963e+06
-4.81399e+06
-4.81881e+06
-4.81267e+06
-4.8188e+06
-4.81636e+06
-4.80897e+06
-4.81171e+06
-4.81486e+06
-4.81087e+06
-4.81349e+06
-4.81716e+06
-4.80895e+06
-4.80895e+06
-4.80832e+06
-4.80779e+06
-4.8072e+06
-4.80956e+06
-4.81015e+06
-4.81022e+06
-4.81693e+06
-4.80746e+06
-4.81286e+06
-4.8129e+06
-4.80712e+06
-4.80734e+06
-4.80885e+06
-4.80788e+06
-4.80705e+06
-4.81118e+06
-4.81039e+06
-4.80814e+06
-4.8079e+06
-4.80709e+06
-4.81118e+06
-4.81036e+06
-4.80816e+06
-4.81337e+06
-4.80903e+06
-4.80729e+06
-4.80728e+06
-4.8111e+06
-4.81108e+06
-4.80875e+06
-4.81558e+06
-4.81449e+06
-4.80861e+06
-4.8109e+06
-4.81305e+06
-4.81656e+06
-4.80998e+06
-4.81555e+06
-4.80853e+06
-4.8144e+06
-4.81076e+06
-4.813e+06
-4.80993e+06
-4.81646e+06
-4.81711e+06
-4.81263e+06
-4.81893e+06
-4.81252e+06
-4.81807e+06
-4.81133e+06
-4.81798e+06
-4.81595e+06
-4.81456e+06
-4.80877e+06
-4.81098e+06
-4.81326e+06
-4.81666e+06
-4.81027e+06
-4.81458e+06
-4.80985e+06
-4.80799e+06
-4.80803e+06
-4.81185e+06
-4.81191e+06
-4.80943e+06
-4.81752e+06
-4.81275e+06
-4.81908e+06
-4.81358e+06
-4.8182e+06
-4.81194e+06
-4.81842e+06
-4.81611e+06
-4.80886e+06
-4.81476e+06
-4.81154e+06
-4.81336e+06
-4.81061e+06
-4.81695e+06
-4.80737e+06
-4.80771e+06
-4.80921e+06
-4.8073e+06
-4.80766e+06
-4.80913e+06
-4.80808e+06
-4.80735e+06
-4.81142e+06
-4.81062e+06
-4.80832e+06
-4.80804e+06
-4.80724e+06
-4.81141e+06
-4.81059e+06
-4.8083e+06
-4.80706e+06
-4.80696e+06
-4.80816e+06
-4.80807e+06
-4.80714e+06
-4.80823e+06
-4.80865e+06
-4.80771e+06
-4.80761e+06
-4.80705e+06
-4.80714e+06
-4.80825e+06
-4.80834e+06
-4.80733e+06
-4.80717e+06
-4.80886e+06
-4.80843e+06
-4.80792e+06
-4.80781e+06
-4.80723e+06
-4.80721e+06
-4.80802e+06
-4.81132e+06
-4.80723e+06
-4.80829e+06
-4.81049e+06
-4.80797e+06
-4.81125e+06
-4.80705e+06
-4.80825e+06
-4.81042e+06
-4.80728e+06
-4.8075e+06
-4.80896e+06
-4.8072e+06
-4.80743e+06
-4.80891e+06
-4.80967e+06
-4.81698e+06
-4.81024e+06
-4.81026e+06
-4.81298e+06
-4.81295e+06
-4.80752e+06
-4.81727e+06
-4.81272e+06
-4.81911e+06
-4.81279e+06
-4.81815e+06
-4.81149e+06
-4.81823e+06
-4.81351e+06
-4.80743e+06
-4.80747e+06
-4.80915e+06
-4.80892e+06
-4.81121e+06
-4.81123e+06
-4.81573e+06
-4.81104e+06
-4.80877e+06
-4.81465e+06
-4.81014e+06
-4.81671e+06
-4.81319e+06
-4.81627e+06
-4.81167e+06
-4.81492e+06
-4.80901e+06
-4.8171e+06
-4.81077e+06
-4.8135e+06
-4.81612e+06
-4.81113e+06
-4.80895e+06
-4.81471e+06
-4.81043e+06
-4.81682e+06
-4.81345e+06
-4.81475e+06
-4.80817e+06
-4.80817e+06
-4.81e+06
-4.80959e+06
-4.81207e+06
-4.81203e+06
-4.8082e+06
-4.81153e+06
-4.80745e+06
-4.80846e+06
-4.81074e+06
-4.80748e+06
-4.80777e+06
-4.8093e+06
-4.81e+06
-4.81731e+06
-4.81102e+06
-4.81098e+06
-4.81336e+06
-4.81334e+06
-4.80836e+06
-4.80745e+06
-4.80775e+06
-4.80929e+06
-4.80691e+06
-4.80801e+06
-4.80798e+06
-4.80704e+06
-4.80687e+06
-4.81709e+06
-4.81248e+06
-4.81878e+06
-4.81244e+06
-4.81796e+06
-4.81128e+06
-4.81792e+06
-4.81338e+06
-4.80727e+06
-4.80907e+06
-4.80735e+06
-4.81112e+06
-4.80875e+06
-4.81114e+06
-4.81558e+06
-4.81072e+06
-4.80858e+06
-4.81442e+06
-4.80994e+06
-4.81645e+06
-4.81307e+06
-4.81641e+06
-4.81493e+06
-4.81179e+06
-4.80908e+06
-4.8172e+06
-4.81358e+06
-4.81096e+06
-4.818e+06
-4.81403e+06
-4.81963e+06
-4.81401e+06
-4.81883e+06
-4.81272e+06
-4.81881e+06
-4.81487e+06
-4.80822e+06
-4.80997e+06
-4.80818e+06
-4.81211e+06
-4.80974e+06
-4.81207e+06
-4.81639e+06
-4.81173e+06
-4.809e+06
-4.81488e+06
-4.81092e+06
-4.81717e+06
-4.81353e+06
-4.80899e+06
-4.80895e+06
-4.80834e+06
-4.8078e+06
-4.80724e+06
-4.80793e+06
-4.80794e+06
-4.80698e+06
-4.80676e+06
-4.80688e+06
-4.81549e+06
-4.81067e+06
-4.81437e+06
-4.80849e+06
-4.81641e+06
-4.80985e+06
-4.81294e+06
-4.81551e+06
-4.81073e+06
-4.81439e+06
-4.80851e+06
-4.81643e+06
-4.80987e+06
-4.81306e+06
-4.81328e+06
-4.80721e+06
-4.80729e+06
-4.80899e+06
-4.80865e+06
-4.81102e+06
-4.81109e+06
-4.81797e+06
-4.81963e+06
-4.814e+06
-4.814e+06
-4.81881e+06
-4.81881e+06
-4.81267e+06
-4.81637e+06
-4.81173e+06
-4.81486e+06
-4.80898e+06
-4.81716e+06
-4.81089e+06
-4.81348e+06
-4.81637e+06
-4.81174e+06
-4.81488e+06
-4.809e+06
-4.81717e+06
-4.81092e+06
-4.81349e+06
-4.81484e+06
-4.80813e+06
-4.80814e+06
-4.80996e+06
-4.80969e+06
-4.81204e+06
-4.81202e+06
-4.8078e+06
-4.80722e+06
-4.8078e+06
-4.80722e+06
-4.80787e+06
-4.81118e+06
-4.80712e+06
-4.80815e+06
-4.8104e+06
-4.80708e+06
-4.80729e+06
-4.80875e+06
-4.80953e+06
-4.81688e+06
-4.81012e+06
-4.81016e+06
-4.81283e+06
-4.81286e+06
-4.80741e+06
-4.80708e+06
-4.80736e+06
-4.80882e+06
-4.81558e+06
-4.81441e+06
-4.81074e+06
-4.80853e+06
-4.81647e+06
-4.81305e+06
-4.80992e+06
-4.81711e+06
-4.81892e+06
-4.8125e+06
-4.81256e+06
-4.81799e+06
-4.81804e+06
-4.81126e+06
-4.81339e+06
-4.8073e+06
-4.80903e+06
-4.80727e+06
-4.81112e+06
-4.80878e+06
-4.81106e+06
-4.81557e+06
-4.81084e+06
-4.81448e+06
-4.80855e+06
-4.81654e+06
-4.80994e+06
-4.81299e+06
-4.8175e+06
-4.81907e+06
-4.81356e+06
-4.81268e+06
-4.81841e+06
-4.81816e+06
-4.81189e+06
-4.81612e+06
-4.81475e+06
-4.81151e+06
-4.80887e+06
-4.81694e+06
-4.81339e+06
-4.81061e+06
-4.81593e+06
-4.81093e+06
-4.81454e+06
-4.80876e+06
-4.81663e+06
-4.81022e+06
-4.81325e+06
-4.8146e+06
-4.80804e+06
-4.80985e+06
-4.808e+06
-4.81191e+06
-4.80945e+06
-4.81186e+06
-4.80808e+06
-4.81143e+06
-4.80733e+06
-4.80833e+06
-4.81062e+06
-4.80806e+06
-4.81139e+06
-4.80728e+06
-4.80831e+06
-4.8106e+06
-4.80988e+06
-4.81723e+06
-4.81093e+06
-4.81088e+06
-4.8133e+06
-4.81322e+06
-4.80826e+06
-4.80736e+06
-4.80769e+06
-4.80921e+06
-4.80731e+06
-4.80762e+06
-4.80914e+06
-4.80803e+06
-4.80811e+06
-4.80708e+06
-4.80701e+06
-4.80759e+06
-4.80703e+06
-4.80703e+06
-4.80766e+06
-4.80769e+06
-4.80779e+06
-4.80809e+06
-4.80732e+06
-4.81142e+06
-4.81057e+06
-4.80838e+06
-4.80972e+06
-4.81027e+06
-4.81703e+06
-4.81038e+06
-4.81299e+06
-4.80758e+06
-4.81311e+06
-4.80733e+06
-4.80766e+06
-4.80912e+06
-4.81142e+06
-4.80722e+06
-4.80807e+06
-4.80835e+06
-4.81058e+06
-4.8075e+06
-4.80782e+06
-4.80932e+06
-4.81716e+06
-4.81057e+06
-4.81323e+06
-4.8099e+06
-4.81068e+06
-4.81333e+06
-4.80779e+06
-4.80737e+06
-4.81145e+06
-4.81068e+06
-4.80814e+06
-4.80838e+06
-4.80775e+06
-4.80925e+06
-4.80739e+06
-4.80794e+06
-4.80857e+06
-4.8086e+06
-4.80732e+06
-4.80967e+06
-4.81027e+06
-4.81701e+06
-4.81038e+06
-4.81296e+06
-4.80759e+06
-4.81304e+06
-4.80794e+06
-4.80711e+06
-4.81121e+06
-4.81042e+06
-4.80819e+06
-4.80723e+06
-4.8076e+06
-4.80904e+06
-4.80721e+06
-4.80796e+06
-4.81128e+06
-4.81051e+06
-4.80822e+06
-4.80796e+06
-4.80791e+06
-4.8093e+06
-4.81443e+06
-4.80978e+06
-4.81179e+06
-4.81178e+06
-4.81106e+06
-4.81467e+06
-4.80879e+06
-4.81677e+06
-4.81017e+06
-4.81588e+06
-4.81326e+06
-4.80871e+06
-4.81089e+06
-4.8101e+06
-4.81582e+06
-4.81452e+06
-4.8132e+06
-4.81659e+06
-4.80735e+06
-4.80775e+06
-4.80924e+06
-4.8081e+06
-4.80735e+06
-4.81146e+06
-4.81069e+06
-4.80837e+06
-4.80776e+06
-4.80922e+06
-4.80738e+06
-4.80734e+06
-4.81144e+06
-4.81064e+06
-4.80811e+06
-4.80836e+06
-4.80709e+06
-4.80733e+06
-4.80882e+06
-4.80959e+06
-4.81693e+06
-4.81016e+06
-4.81025e+06
-4.81286e+06
-4.81298e+06
-4.80745e+06
-4.80718e+06
-4.80794e+06
-4.81125e+06
-4.8082e+06
-4.81045e+06
-4.80716e+06
-4.80751e+06
-4.809e+06
-4.81085e+06
-4.80869e+06
-4.8101e+06
-4.81577e+06
-4.81448e+06
-4.81656e+06
-4.81314e+06
-4.80788e+06
-4.80791e+06
-4.80927e+06
-4.81438e+06
-4.80971e+06
-4.81174e+06
-4.81174e+06
-4.811e+06
-4.81458e+06
-4.80869e+06
-4.8167e+06
-4.8101e+06
-4.81581e+06
-4.81319e+06
-4.8081e+06
-4.81149e+06
-4.80737e+06
-4.81067e+06
-4.80836e+06
-4.81711e+06
-4.81047e+06
-4.81316e+06
-4.80984e+06
-4.81058e+06
-4.81324e+06
-4.80774e+06
-4.80736e+06
-4.80774e+06
-4.80923e+06
-4.80733e+06
-4.81141e+06
-4.81063e+06
-4.80809e+06
-4.80834e+06
-4.80769e+06
-4.80917e+06
-4.80734e+06
-4.80756e+06
-4.80752e+06
-4.80767e+06
-4.80717e+06
-4.80735e+06
-4.80886e+06
-4.80796e+06
-4.81126e+06
-4.8071e+06
-4.81038e+06
-4.80825e+06
-4.80722e+06
-4.80757e+06
-4.80904e+06
-4.8113e+06
-4.8072e+06
-4.80799e+06
-4.8105e+06
-4.80827e+06
-4.81706e+06
-4.81048e+06
-4.81317e+06
-4.8098e+06
-4.81057e+06
-4.81317e+06
-4.80768e+06
-4.80805e+06
-4.8113e+06
-4.80726e+06
-4.81054e+06
-4.80828e+06
-4.80732e+06
-4.80769e+06
-4.80915e+06
-4.80728e+06
-4.81134e+06
-4.81057e+06
-4.80805e+06
-4.80829e+06
-4.80772e+06
-4.80916e+06
-4.80735e+06
-4.81384e+06
-4.81363e+06
-4.81932e+06
-4.8125e+06
-4.81865e+06
-4.81781e+06
-4.81849e+06
-4.82816e+06
-4.82809e+06
-4.83121e+06
-4.8281e+06
-4.83121e+06
-4.83114e+06
-4.83425e+06
-4.82512e+06
-4.83127e+06
-4.82827e+06
-4.83128e+06
-4.82829e+06
-4.8343e+06
-4.83133e+06
-4.83118e+06
-4.82488e+06
-4.82809e+06
-4.83111e+06
-4.83422e+06
-4.82803e+06
-4.83114e+06
-4.82825e+06
-4.82816e+06
-4.82505e+06
-4.83428e+06
-4.83131e+06
-4.83121e+06
-4.82823e+06
-4.81842e+06
-4.81991e+06
-4.81323e+06
-4.81989e+06
-4.81615e+06
-4.82205e+06
-4.81615e+06
-4.83121e+06
-4.83113e+06
-4.83425e+06
-4.82493e+06
-4.82815e+06
-4.82808e+06
-4.8312e+06
-4.82829e+06
-4.8343e+06
-4.83133e+06
-4.82822e+06
-4.8251e+06
-4.83126e+06
-4.82826e+06
-4.83422e+06
-4.82803e+06
-4.83115e+06
-4.82806e+06
-4.83118e+06
-4.82487e+06
-4.82809e+06
-4.83131e+06
-4.83122e+06
-4.82823e+06
-4.83124e+06
-4.82824e+06
-4.82816e+06
-4.82505e+06
-4.81137e+06
-4.81608e+06
-4.81605e+06
-4.81889e+06
-4.81182e+06
-4.81535e+06
-4.81531e+06
-4.81885e+06
-4.81607e+06
-4.8153e+06
-4.81137e+06
-4.8161e+06
-4.81532e+06
-4.81187e+06
-4.81877e+06
-4.81599e+06
-4.81525e+06
-4.81132e+06
-4.81597e+06
-4.81524e+06
-4.81181e+06
-4.81367e+06
-4.81387e+06
-4.81259e+06
-4.81789e+06
-4.81934e+06
-4.81854e+06
-4.81868e+06
-4.81366e+06
-4.81384e+06
-4.81255e+06
-4.81784e+06
-4.81931e+06
-4.81851e+06
-4.81864e+06
-4.81382e+06
-4.81365e+06
-4.81254e+06
-4.81781e+06
-4.8193e+06
-4.81863e+06
-4.81848e+06
-4.81607e+06
-4.81137e+06
-4.81606e+06
-4.8188e+06
-4.81189e+06
-4.81528e+06
-4.81523e+06
-4.8161e+06
-4.81889e+06
-4.81537e+06
-4.81145e+06
-4.8161e+06
-4.81191e+06
-4.81538e+06
-4.81124e+06
-4.81594e+06
-4.8187e+06
-4.8159e+06
-4.81519e+06
-4.81171e+06
-4.81512e+06
-4.81278e+06
-4.81264e+06
-4.81912e+06
-4.81148e+06
-4.81829e+06
-4.81736e+06
-4.81817e+06
-4.81613e+06
-4.81891e+06
-4.81535e+06
-4.81142e+06
-4.81613e+06
-4.81191e+06
-4.81537e+06
-4.81119e+06
-4.81592e+06
-4.81588e+06
-4.81867e+06
-4.8117e+06
-4.81514e+06
-4.81508e+06
-4.81612e+06
-4.81141e+06
-4.81612e+06
-4.81888e+06
-4.8119e+06
-4.81535e+06
-4.81535e+06
-4.81123e+06
-4.81596e+06
-4.81868e+06
-4.81593e+06
-4.81516e+06
-4.81176e+06
-4.8151e+06
-4.81133e+06
-4.816e+06
-4.81878e+06
-4.81597e+06
-4.81527e+06
-4.81179e+06
-4.81523e+06
-4.81127e+06
-4.81872e+06
-4.81598e+06
-4.81594e+06
-4.81519e+06
-4.81515e+06
-4.81178e+06
-4.81853e+06
-4.8134e+06
-4.82002e+06
-4.81999e+06
-4.81628e+06
-4.81628e+06
-4.82215e+06
-4.81151e+06
-4.819e+06
-4.81619e+06
-4.81618e+06
-4.81545e+06
-4.81545e+06
-4.81197e+06
-4.81845e+06
-4.81334e+06
-4.81997e+06
-4.81996e+06
-4.8162e+06
-4.81622e+06
-4.8221e+06
-4.81843e+06
-4.81992e+06
-4.81325e+06
-4.8199e+06
-4.81616e+06
-4.82205e+06
-4.81616e+06
-4.81118e+06
-4.81863e+06
-4.81586e+06
-4.81586e+06
-4.81507e+06
-4.81507e+06
-4.81168e+06
-4.81135e+06
-4.81888e+06
-4.81607e+06
-4.81604e+06
-4.81533e+06
-4.8153e+06
-4.81182e+06
-4.81124e+06
-4.81596e+06
-4.81593e+06
-4.81869e+06
-4.81175e+06
-4.81515e+06
-4.81512e+06
-4.81853e+06
-4.81997e+06
-4.81334e+06
-4.82e+06
-4.81625e+06
-4.82214e+06
-4.81626e+06
-4.81151e+06
-4.8162e+06
-4.81618e+06
-4.81898e+06
-4.81199e+06
-4.81545e+06
-4.81543e+06
-4.81845e+06
-4.81994e+06
-4.81329e+06
-4.81995e+06
-4.81619e+06
-4.82208e+06
-4.8162e+06
-4.81837e+06
-4.81986e+06
-4.81989e+06
-4.81324e+06
-4.82202e+06
-4.81612e+06
-4.81614e+06
-4.81112e+06
-4.81584e+06
-4.81585e+06
-4.8186e+06
-4.81165e+06
-4.81502e+06
-4.81504e+06
-4.81842e+06
-4.81987e+06
-4.81991e+06
-4.81323e+06
-4.82205e+06
-4.81614e+06
-4.81616e+06
-4.81604e+06
-4.81134e+06
-4.81605e+06
-4.81877e+06
-4.81522e+06
-4.81187e+06
-4.81524e+06
-4.81887e+06
-4.81606e+06
-4.81532e+06
-4.81143e+06
-4.81609e+06
-4.81537e+06
-4.81188e+06
-4.81123e+06
-4.81869e+06
-4.81588e+06
-4.81591e+06
-4.81511e+06
-4.81516e+06
-4.8117e+06
-4.8128e+06
-4.8191e+06
-4.81264e+06
-4.81827e+06
-4.81145e+06
-4.81731e+06
-4.81812e+06
-4.81888e+06
-4.81609e+06
-4.81534e+06
-4.81144e+06
-4.81611e+06
-4.81537e+06
-4.81192e+06
-4.81118e+06
-4.81587e+06
-4.81865e+06
-4.81589e+06
-4.81506e+06
-4.81169e+06
-4.81512e+06
-4.81275e+06
-4.81908e+06
-4.81257e+06
-4.81821e+06
-4.81136e+06
-4.81725e+06
-4.81809e+06
-4.81596e+06
-4.81123e+06
-4.81869e+06
-4.81594e+06
-4.81511e+06
-4.81517e+06
-4.81178e+06
)
;

boundaryField
{
    sphere_to_oil
    {
        type            calculated;
        value           nonuniform List<scalar> 
1536
(
-4.80645e+06
-4.80627e+06
-4.80618e+06
-4.80635e+06
-4.80626e+06
-4.80644e+06
-4.80624e+06
-4.8064e+06
-4.80626e+06
-4.8065e+06
-4.80612e+06
-4.80637e+06
-4.80658e+06
-4.80644e+06
-4.80619e+06
-4.80647e+06
-4.80602e+06
-4.80581e+06
-4.80629e+06
-4.80658e+06
-4.80646e+06
-4.80629e+06
-4.80619e+06
-4.80632e+06
-4.80632e+06
-4.80632e+06
-4.8063e+06
-4.80631e+06
-4.80622e+06
-4.80648e+06
-4.80637e+06
-4.80633e+06
-4.80631e+06
-4.8065e+06
-4.80635e+06
-4.80633e+06
-4.80636e+06
-4.80636e+06
-4.80627e+06
-4.80649e+06
-4.80636e+06
-4.80633e+06
-4.80628e+06
-4.80628e+06
-4.80637e+06
-4.80629e+06
-4.80634e+06
-4.80634e+06
-4.80636e+06
-4.80637e+06
-4.80632e+06
-4.80637e+06
-4.80638e+06
-4.80628e+06
-4.80654e+06
-4.80645e+06
-4.80654e+06
-4.8064e+06
-4.80646e+06
-4.80629e+06
-4.8066e+06
-4.80649e+06
-4.80622e+06
-4.80595e+06
-4.80621e+06
-4.80595e+06
-4.80636e+06
-4.80626e+06
-4.80648e+06
-4.80645e+06
-4.80627e+06
-4.80654e+06
-4.80641e+06
-4.80625e+06
-4.80598e+06
-4.80626e+06
-4.80614e+06
-4.80621e+06
-4.80637e+06
-4.80614e+06
-4.80625e+06
-4.80633e+06
-4.80623e+06
-4.80646e+06
-4.80629e+06
-4.8063e+06
-4.80652e+06
-4.80642e+06
-4.80633e+06
-4.80615e+06
-4.80636e+06
-4.80624e+06
-4.80638e+06
-4.80621e+06
-4.80647e+06
-4.80652e+06
-4.80648e+06
-4.80636e+06
-4.80626e+06
-4.80617e+06
-4.80648e+06
-4.80636e+06
-4.80656e+06
-4.80652e+06
-4.80674e+06
-4.8065e+06
-4.80659e+06
-4.80648e+06
-4.80654e+06
-4.80639e+06
-4.80615e+06
-4.80613e+06
-4.80621e+06
-4.80661e+06
-4.8064e+06
-4.80635e+06
-4.80637e+06
-4.80647e+06
-4.80648e+06
-4.80613e+06
-4.80605e+06
-4.80638e+06
-4.80647e+06
-4.8066e+06
-4.80641e+06
-4.80639e+06
-4.80648e+06
-4.80605e+06
-4.80579e+06
-4.80625e+06
-4.80607e+06
-4.80627e+06
-4.80618e+06
-4.8063e+06
-4.80632e+06
-4.80627e+06
-4.80651e+06
-4.80627e+06
-4.8065e+06
-4.80638e+06
-4.80635e+06
-4.80613e+06
-4.80627e+06
-4.80629e+06
-4.80647e+06
-4.80652e+06
-4.80647e+06
-4.80633e+06
-4.80612e+06
-4.80599e+06
-4.80641e+06
-4.80648e+06
-4.80647e+06
-4.80661e+06
-4.80641e+06
-4.80652e+06
-4.80657e+06
-4.80643e+06
-4.80616e+06
-4.80616e+06
-4.80646e+06
-4.80643e+06
-4.80661e+06
-4.80646e+06
-4.80636e+06
-4.80648e+06
-4.80612e+06
-4.80607e+06
-4.80615e+06
-4.80639e+06
-4.80637e+06
-4.8065e+06
-4.80636e+06
-4.80639e+06
-4.80629e+06
-4.8061e+06
-4.80617e+06
-4.80624e+06
-4.80628e+06
-4.80628e+06
-4.80626e+06
-4.80648e+06
-4.80628e+06
-4.8065e+06
-4.8064e+06
-4.80638e+06
-4.80623e+06
-4.80628e+06
-4.80646e+06
-4.80626e+06
-4.8063e+06
-4.80607e+06
-4.80648e+06
-4.80635e+06
-4.80624e+06
-4.80605e+06
-4.80636e+06
-4.80623e+06
-4.80644e+06
-4.80624e+06
-4.80619e+06
-4.8063e+06
-4.80624e+06
-4.80645e+06
-4.80629e+06
-4.80652e+06
-4.80639e+06
-4.80635e+06
-4.80621e+06
-4.80622e+06
-4.80638e+06
-4.80603e+06
-4.80615e+06
-4.80628e+06
-4.80648e+06
-4.80633e+06
-4.80648e+06
-4.80636e+06
-4.80637e+06
-4.80625e+06
-4.80641e+06
-4.80631e+06
-4.80646e+06
-4.80637e+06
-4.80643e+06
-4.80632e+06
-4.80615e+06
-4.80642e+06
-4.8064e+06
-4.80614e+06
-4.80572e+06
-4.80584e+06
-4.8057e+06
-4.80632e+06
-4.80598e+06
-4.80632e+06
-4.80646e+06
-4.80612e+06
-4.80577e+06
-4.80621e+06
-4.80648e+06
-4.80578e+06
-4.80647e+06
-4.80608e+06
-4.80614e+06
-4.80646e+06
-4.80591e+06
-4.80642e+06
-4.80591e+06
-4.80634e+06
-4.80651e+06
-4.80644e+06
-4.80607e+06
-4.80592e+06