/*--------------------------------*- C++ -*----------------------------------*\
| =========                 |                                                 |
| \\      /  F ield         | OpenFOAM: The Open Source CFD Toolbox           |
|  \\    /   O peration     | Version:  v1912                                 |
|   \\  /    A nd           | Website:  www.openfoam.com                      |
|    \\/     M anipulation  |                                                 |
\*---------------------------------------------------------------------------*/
FoamFile
{
    version     2.0;
    format      ascii;
    class       volScalarField;
    location    "250/oil";
    object      heatTransferCoeff(T);
}
// * * * * * * * * * * * * * * * * * * * * * * * * * * * * * * * * * * * * * //

dimensions      [1 0 -3 -1 0 0 0];


internalField   uniform 0;

boundaryField
{
    maxY
    {
        type            calculated;
        value           uniform 0;
    }
    minX
    {
        type            calculated;
        value           uniform 0;
    }
    maxX
    {
        type            calculated;
        value           uniform 0;
    }
    minY
    {
        type            calculated;
        value           uniform 0;
    }
    minZ
    {
        type            calculated;
        value           uniform 0;
    }
    maxZ
    {
        type            calculated;
        value           uniform 0;
    }
    oil_to_sphere
    {
        type            calculated;
        value           nonuniform List<scalar> 
1536
(
-41.2883
-37.0073
-36.9454
-29.0617
-28.7945
-36.7666
-33.3313
-34.7076
-34.1923
-29.7052
-26.5892
-30.2768
-34.1056
-30.4834
-25.5094
-32.8361
-36.7897
-37.1528
-32.5997
-33.8886
-35.7281
-34.2466
-34.5703
-32.7913
-33.22
-33
-33.1779
-32.2607
-36.5568
-34.4235
-37.8406
-37.0266
-37.1894
-32.8549
-33.1175
-32.2779
-32.6561
-31.3856
-32.2023
-33.1392
-32.0185
-32.658
-34.0482
-34.957
-36.0204
-33.0867
-35.7592
-34.6149
-25.7986
-32.9955
-35.3299
-34.2622
-34.5228
-32.7621
-36.4135
-39.3726
-34.5052
-33.9014
-35.6771
-35.2416
-33.957
-34.0538
-33.8853
-32.6545
-33.0929
-33.7609
-33.8733
-35.4413
-35.3791
-36.3683
-32.6333
-28.9202
-30.26
-33.0141
-32.977
-39.6466
-37.2338
-31.5017
-32.8476
-37.0227
-35.7839
-35.1814
-29.0329
-28.9077
-36.5331
-40.4848
-28.0129
-33.5102
-35.2623
-35.2323
-34.2451
-32.4168
-32.3608
-32.5479
-32.9828
-34.911
-35.7518
-36.0303
-37.5328
-35.1327
-35.8229
-32.5664
-41.3864
-35.3835
-30.0801
-32.9059
-33.2386
-29.3794
-29.3656
-41.5249
-37.1836
-34.7128
-34.0266
-34.6062
-28.4361
-28.9126
-27.6173
-38.583
-40.9161
-37.4472
-34.3856
-34.6018
-32.1539
-35.6892
-37.774
-35.0285
-34.329
-31.8642
-35.9518
-35.6206
-33.7874
-35.4519
-36.3497
-33.2591
-33.5479
-36.5672
-34.6232
-37.0657
-31.9519
-36.8309
-34.2209
-35.5823
-35.6214
-34.1037
-33.5986
-34.0115
-34.9224
-38.7176
-33.9297
-41.5631
-36.172
-37.162
-34.4971
-34.7461
-32.9272
-35.1755
-36.5005
-35.852
-42.3421
-37.9156
-37.1691
-38.9746
-30.6877
-31.3803
-32.4766
-32.3809
-36.2828
-38.3587
-37.4677
-39.5687
-32.2837
-32.5572
-31.5682
-35.7993
-34.5265
-34.866
-40.1135
-31.4298
-30.6544
-40.4613
-32.2308
-31.4196
-31.2795
-31.6721
-35.5536
-40.5071
-37.957
-32.0751
-30.7447
-37.0874
-31.0391
-36.3431
-36.3065
-38.224
-30.2355
-24.6646
-38.0814
-38.6518
-33.4017
-32.9147
-34.3006
-33.3556
-37.1817
-38.04
-36.0995
-35.2041
-32.6616
-38.4391
-37.6013
-35.0385
-31.843
-33.0835
-32.9111
-33.5616
-35.893
-39.5711
-31.0815
-30.4042
-30.5208
-24.1225
-36.8276
-35.8012
-35.1397
-34.2884
-34.4908
-38.4997
-36.33
-33.1819
-36.8647
-29.7849
-32.3108
-24.8979
-34.0508
-36.7032
-38.1028
-37.6989
-36.809
-35.8971
-37.406
-30.2153
-30.8221
-31.7856
-38.7277
-31.6715
-24.9254
-27.7422
-35.8049
-34.322
-40.3021
-42.4536
-34.6928
-28.9424
-24.2071
-35.2293
-37.7577
-32.5532
-32.6853
-28.1952
-32.3925
-38.4761
-40.7139
-34.0069
-32.7034
-39.1004
-38.0563
-33.0293
-29.9662
-33.7312
-39.7079
-38.6691
-35.9089
-36.3319
-37.9134
-31.3156
-32.8471
-38.1554
-36.3256
-37.173
-34.0756
-36.898
-39.4626
-36.1084
-35.7484
-38.9053
-32.6513
-32.5691
-33.007
-32.1469
-32.4484
-38.2942
-39.8075
-30.7868
-33.4407
-33.2182
-33.4223
-32.0712
-34.5378
-34.0694
-31.5585
-28.2828
-32.3277
-30.3199
-31.9559
-40.5332
-39.0147
-38.9553
-42.1301
-30.9962
-31.31
-34.5465
-41.5588
-40.9582
-32.3578
-34.1376
-32.1214
-36.2426
-32.7962
-35.7044
-36.0637
-37.3393
-36.419
-33.1998
-36.6141
-32.2631
-37.951
-38.5123
-36.9661
-36.6366
-31.6069
-39.9588
-39.8634
-36.3169
-30.1185
-32.6119
-33.4162
-36.0878
-35.6581
-36.2419
-31.4739
-37.8833
-38.255
-37.3278
-38.9255
-35.4585
-34.9632
-33.9576
-30.8372
-35.0459
-36.2084
-30.7814
-30.4526
-31.2216
-41.1589
-37.8399
-38.9581
-35.5784
-34.9098
-38.312
-30.5609
-40.2385
-37.3026
-34.9517
-34.8934
-30.3082
-37.3583
-37.7322
-31.8041
-34.9521
-33.8315
-32.7372
-36.2791
-37.8104
-34.0485
-33.0544
-31.0782
-39.5704
-37.9695
-30.4379
-38.3659
-37.8131
-36.8452
-39.5413
-34.8904
-36.4972
-29.7119
-30.227
-36.0646
-41.8468
-37.0479
-40.3623
-35.587
-33.2931
-37.5121
-31.2707
-32.2098
-35.7709
-37.7321
-36.3478
-35.6013
-31.4712
-31.3584
-38.19
-38.1816
-37.9861
-34.8461
-32.4777
-35.772
-36.6324
-37.6385
-35.0827
-33.5971
-31.764
-34.6906
-31.0909
-29.3988
-32.5239
-31.782
-34.7339
-29.6964
-33.3248
-40.1004
-33.2305
-33.1783
-37.7066
-37.6286
-36.155
-33.855
-30.6937
-36.9992
-38.9716
-35.9642
-35.1703
-37.102
-34.1889
-34.5954
-35.5115
-29.0008
-36.0896
-38.2382
-38.9371
-37.508
-36.5728
-36.3142
-35.1111
-33.7126
-31.2695
-34.4147
-31.6982
-30.3144
-32.0712
-29.322
-40.6668
-40.087
-38.5119
-41.6024
-31.4516
-40.6913
-31.4158
-32.2453
-36.7588
-31.2288
-31.2959
-33.3734
-33.1641
-40.2404
-39.034
-35.5183
-35.8475
-39.4974
-38.2281
-35.0544
-36.6156
-31.8801
-37.7294
-30.0833
-38.8958
-28.9558
-36.5409
-37.0273
-37.5336
-33.1698
-31.1241
-33.7496
-37.6581
-33.9514
-29.796
-37.7706
-38.0555
-38.8104
-41.8523
-35.3027
-39.265
-30.9553
-31.504
-26.0214
-27.6714
-34.9675
-33.307
-32.7863
-32.0927
-40.9754
-31.7853
-30.4946
-29.877
-33.5671
-29.9844
-42.3084
-31.9523
-32.258
-34.4836
-26.6766
-28.0826
-32.551
-32.4405
-34.0164
-33.0205
-38.0217
-37.4897
-36.3373
-35.0069
-29.4169
-32.797
-37.4305
-31.2422
-31.8007
-36.9605
-39.5797
-31.9112
-26.1214
-30.8165
-26.5968
-34.3139
-33.1465
-32.2623
-30.1328
-26.5315
-36.3527
-36.9118
-35.648
-34.3141
-39.758
-36.4695
-36.0524
-34.9368
-31.575
-32.8963
-38.018
-36.3859
-33.4771
-27.5795
-35.1553
-37.4336
-39.9935
-35.3033
-32.8329
-39.926
-34.7361
-39.3102
-31.8129
-33.0315
-31.25
-33.2089
-35.1711
-39.5216
-31.8691
-32.0911
-31.5394
-33.6724
-42.3448
-30.3606
-32.8642
-30.4396
-34.6106
-35.1553
-38.1051
-39.7025
-29.8004
-30.1115
-39.6882
-40.305
-28.5468
-39.5518
-38.365
-37.0454
-38.3198
-36.123
-34.7763
-34.9413
-39.5644
-35.0633
-36.145
-34.6983
-37.6612
-35.368
-34.3724
-34.0921
-30.7714
-36.9847
-34.4236
-37.6096
-36.5702
-36.6912
-36.3721
-35.1146
-30.2537
-38.1883
-38.188
-36.2572
-34.3258
-35.4556
-41.3792
-30.0069
-31.7281
-30.8884
-35.39
-32.3453
-41.4017
-33.2799
-33.7303
-34.6325
-26.1923
-26.7698
-32.6865
-32.5918
-34.8342
-31.2347
-32.0265
-35.5765
-32.5075
-39.7159
-31.1887
-41.1091
-33.5877
-35.2894
-25.1876
-26.6325
-25.9296
-32.3008
-37.0366
-32.8972
-32.2861
-26.6054
-34.6822
-37.3892
-34.7519
-43.6709
-31.8709
-38.0007
-36.4156
-37.1254
-38.4539
-38.3536
-37.18
-34.5203
-33.6317
-34.4112
-37.1643
-33.8797
-35.6946
-35.3302
-35.6409
-37.5486
-36.4035
-36.992
-30.7866
-31.7148
-24.5643
-28.2088
-29.2647
-22.044
-32.6207
-33.0363
-33.8799
-34.3703
-29.3543
-30.8524
-33.4674
-38.7022
-38.3317
-33.3905
-29.8989
-34.1174
-37.4737
-36.383
-34.5251
-29.6491
-31.8663
-36.3079
-35.5519
-34.4501
-32.7723
-36.7008
-36.8176
-39.5656
-36.8359
-35.1293
-33.0288
-31.9518
-30.6547
-32.7823
-34.2291
-41.6435
-34.9635
-40.5866
-32.2941
-42.0443
-32.5876
-34.0118
-31.0781
-31.5385
-33.0523
-30.6928
-33.7993
-29.6667
-32.7441
-38.0197
-33.3226
-30.4179
-39.8811
-36.615
-35.7758
-34.2533
-39.6132
-44.1338
-28.3492
-36.4506
-35.6934
-36.1444
-30.7023
-34.2873
-32.1102
-35.6465
-37.02
-38.1946
-31.5838
-36.3073
-34.9196
-36.7261
-36.484
-35.9978
-33.4883
-33.9884
-32.8494
-29.8753
-29.4124
-31.2685
-39.1596
-32.772
-30.5187
-32.8863
-38.086
-33.7243
-39.1602
-37.5269
-35.9565
-35.123
-35.897
-40.0572
-31.2706
-36.3559
-38.3609
-38.7207
-35.0819
-32.0371
-33.6853
-35.9302
-38.8515
-31.0062
-34.0352
-34.9796
-37.9633
-35.8431
-35.9114
-39.3124
-31.0663
-32.2375
-31.6889
-40.1062
-38.1641
-34.926
-37.9345
-32.2614
-32.7773
-37.9176
-35.9318
-39.5559
-31.444
-37.217
-37.7638
-35.2284
-35.6709
-36.988
-31.6008
-29.1445
-34.619
-35.9277
-40.3907
-34.1019
-32.5341
-34.3822
-35.9012
-37.1681
-35.0791
-32.1563
-34.1225
-37.7013
-31.2688
-32.0684
-34.1011
-32.6824
-35.4924
-35.0984
-38.6312
-36.1563
-37.4568
-32.8914
-34.4533
-35.4796
-34.2615
-33.5994
-33.0323
-32.9471
-31.179
-36.6454
-35.3754
-35.3418
-35.9948
-30.0995
-33.2334
-39.9673
-40.0347
-32.1292
-38.0217
-35.8855
-36.5655
-32.9308
-38.805
-38.4615
-31.3336
-33.7015
-33.1774
-33.0122
-30.0585
-30.855
-33.1715
-38.416
-41.6255
-32.4986
-36.9666
-36.626
-35.7731
-33.8848
-35.5108
-38.6274
-35.546
-31.4744
-33.2658
-32.8989
-33.1697
-36.1627
-36.6868
-36.6789
-36.8718
-36.903
-32.2038
-37.0707
-33.3873
-36.4819
-26.5544
-36.0191
-39.0117
-33.5841
-28.3528
-34.6825
-34.0294
-40.4885
-31.7705
-37.0801
-34.3962
-29.0871
-39.8246
-30.4195
-33.9987
-34.6507
-30.0989
-38.0413
-35.5039
-33.9162
-35.0923
-35.4782
-33.9376
-40.7087
-30.5642
-33.106
-25.543
-33.7197
-33.5707
-34.7914
-38.0039
-44.3115
-29.8251
-33.1825
-42.8592
-30.4686
-36.7829
-32.0635
-36.5596
-28.1127
-31.8252
-42.7132
-28.8081
-41.9365
-29.4974
-40.3017
-29.2318
-31.7135
-26.1047
-30.6533
-42.1006
-27.1117
-34.4482
-28.8133
-39.4622
-42.1524
-27.3551
-33.8809
-32.4829
-31.4745
-31.3088
-33.1557
-34.7007
-34.6988
-36.4238
-34.3539
-39.4694
-43.1944
-27.2831
-34.9574
-35.8841
-34.6858
-35.1943
-34.161
-33.685
-34.1339
-37.3526
-34.2793
-37.4049
-33.0701
-35.3935
-39.0435
-33.5371
-36.2597
-38.0473
-33.0267
-35.3949
-34.3782
-36.385
-33.9962
-35.0459
-33.6687
-37.8239
-33.2975
-35.7151
-29.4818
-39.7334
-27.5305
-35.9667
-37.7204
-39.7382
-31.8478
-35.138
-34.3466
-35.0947
-34.9375
-34.2891
-37.2999
-31.3371
-24.503
-34.1004
-28.4181
-38.2998
-31.9459
-34.6119
-36.9531
-24.9942
-39.1864
-31.3531
-26.4406
-31.879
-36.7774
-36.488
-34.8413
-27.1363
-34.8334
-35.4456
-32.459
-31.9506
-38.4124
-37.836
-32.8513
-34.8389
-38.4331
-27.2705
-37.4242
-31.8715
-36.3084
-27.6779
-41.685
-40.9895
-37.703
-34.7756
-33.7424
-36.758
-33.5338
-27.0745
-31.0183
-36.9199
-32.0619
-36.2469
-28.3002
-38.2122
-36.4434
-22.8667
-34.8706
-35.5878
-25.2898
-39.2403
-29.357
-38.3371
-39.7684
-37.2693
-26.4228
-35.0008
-33.7972
-34.8995
-35.1234
-36.1649
-27.3049
-33.0624
-32.1284
-32.1631
-38.1074
-34.6033
-35.8368
-36.496
-36.318
-33.7375
-35.0953
-33.9476
-35.6825
-38.4341
-32.7955
-33.5612
-32.5539
-35.1349
-37.686
-32.7579
-33.4111
-33.0737
-34.6509
-32.1276
-32.4062
-33.3969
-33.6921
-35.0294
-33.395
-39.5457
-37.3872
-28.6073
-28.8545
-39.1016
-22.0295
-36.9973
-35.4254
-32.1623
-33.7294
-39.3715
-25.0343
-38.1576
-35.7868
-26.7619
-33.1657
-32.5174
-34.7765
-24.6201
-38.871
-36.0211
-25.0701
-38.5374
-38.7376
-27.7911
-39.7669
-37.8248
-27.9012
-32.5779
-32.1685
-25.1443
-34.7045
-35.1581
-31.2273
-31.8617
-31.7946
-23.3098
-31.7317
-25.0553
-22.838
-37.9146
-32.4555
-42.0845
-32.9138
-27.2451
-38.8912
-34.1883
-25.8744
-32.8109
-32.6392
-25.7828
-28.8066
-39.0721
-20.7795
-31.0626
-30.727
-22.1172
-38.2057
-37.4335
-34.6788
-33.3273
-32.6072
-31.0597
-24.0045
-34.8018
-33.3666
-33.5703
-34.6945
-26.3449
-36.9809
-32.7878
-34.2305
-32.4049
-34.0872
-35.0062
-30.8635
-26.7102
-33.2488
-35.4102
-32.6938
-33.3399
-34.4022
-31.8415
-33.5331
-26.2092
-32.8851
-35.867
-32.4653
-33.7585
-31.9583
-26.8625
-39.1942
-39.0975
-38.5165
-39.9347
-27.7374
-25.3169
-33.0157
-37.3017
-35.1367
-36.7368
-37.3548
-31.0699
-30.2007
-25.6511
-27.4855
-31.7774
-34.2828
-34.0309
-33.853
-30.3029
-37.9178
-35.7312
-27.9802
-31.5412
-30.9139
-37.268
-31.8985
-24.0077
-34.6724
-34.4885
-38.1322
-26.0257
-32.6603
-35.2577
-33.0292
-33.6985
-36.6108
-34.2013
-31.1365
-40.2482
-22.615
-29.9158
-34.0064
-31.8934
-33.2212
-39.7988
-35.9015
-34.6344
-29.7797
-39.1038
-32.9902
-35.0093
-37.3356
-38.1508
-37.8182
-38.121
-39.5339
-40.3941
-39.3291
-39.342
-34.905
-37.5577
-32.776
-33.7106
-30.2432
-29.0977
-23.3503
-39.9592
-39.6919
-38.5178
-33.5006
-35.0327
-34.7749
-32.007
-35.2779
-37.4781
-31.3052
-33.9204
-36.415
-32.5787
-32.8712
-32.6546
-33.4496
-31.7801
-33.3169
-32.991
-27.6873
-35.2162
-31.4029
-33.879
-25.749
-40.0617
-34.0694
-32.2574
-31.6532
-28.1256
-34.5292
-32.3738
-25.1683
-29.7287
-33.9575
-29.0218
-29.9161
-40.5437
-41
-33.046
-33.0734
-36.946
-39.7053
-25.0551
-32.1665
-31.7987
-33.2362
-33.2172
-33.5472
-34.1435
-30.1819
-26.9212
-39.0002
-33.1336
-29.3813
-30.1013
-33.0066
-34.6103
-28.2238
-33.8354
-32.057
-32.7704
-39.773
-29.517
-27.1265
-33.2609
-32.4878
-31.811
-27.0307
-38.2589
-32.9993
-32.7725
-32.9915
-25.2123
-33.1118
-33.206
-27.2896
-32.9972
-29.6955
-35.692
-38.7174
-32.0419
-37.4917
-35.4748
-32.1367
-32.2567
-33.3375
-27.0664
-35.5626
-36.1304
-32.6242
-26.0494
-30.8259
-33.7739
-34.0491
-32.0775
-26.6623
-32.2456
-38.1383
-35.5654
-32.3804
-40.4334
-29.4793
-37.4508
-25.3448
-29.2992
-37.8159
-25.2753
-37.9079
-32.3893
-34.5921
-32.7924
-40.9334
-30.406
-34.6648
-39.7409
-39.1479
-28.5066
-38.769
-39.805
-22.2673
-34.0347
-32.4222
-25.5721
-36.2567
-32.3324
-32.796
-32.8136
-34.1974
-33.5889
-32.6205
-32.3024
-25.303
-36.1468
-34.6391
-34.3533
-34.9694
-33.4909
-32.1027
-30.8757
-37.0484
-24.175
-31.6884
-31.8265
-24.6147
-37.724
-40.1415
-34.2687
-38.5347
-39.1639
-31.8385
-32.5334
-35.8716
-38.4945
-31.8106
-36.3866
-30.0832
-25.6919
-37.1004
-31.2316
-38.1243
-40.4854
-39.6435
-26.0313
-37.5327
-34.8598
-31.1821
-32.5806
-33.25
-32.3912
-26.1855
-38.6476
-26.4347
-38.5041
-33.4319
-30.0922
-29.5552
-33.6987
-36.5017
-39.4738
-34.4171
-41.57
-37.173
-37.9136
-25.2606
-37.5279
-36.7048
-38.1904
-31.9557
-31.257
-24.2064
-33.967
-41.2577
-38.6413
-26.7904
-30.3585
-26.5648
-31.943
-34.1422
-29.96
-43.6856
-32.8318
-30.3591
-27.027
-35.5263
-31.3677
-24.6134
-33.815
-32.3334
-32.4255
-32.584
-32.646
-27.1116
-30.0056
-25.6232
-32.451
-37.2235
-35.7318
-38.8264
-38.2022
-31.6994
-30.8472
-25.343
-32.0664
-36.7257
-39.1547
-37.1466
-37.2821
-29.3932
-24.5445
-30.4774
-23.9065
-36.9239
-37.2752
-30.8829
-37.7891
-36.9207
-38.7619
-35.438
-34.6092
-34.4795
-31.6976
-25.0611
-30.6832
-26.0601
-29.9704
-32.5883
-32.0657
-27.6723
-25.9852
-36.306
-41.2691
-40.5329
-39.6585
-34.377
-36.1193
-35.9721
-34.0488
-32.5889
-34.0017
-31.1283
-33.4275
-33.4637
-26.0068
-36.9832
-33.1495
-30.3937
-27.5451
-32.3482
-34.2701
-34.2222
-32.0965
-27.5896
-39.4158
-35.4104
-32.4152
-40.3241
-31.2572
-25.6687
-35.9433
-33.4883
-33.4953
-33.4807
-32.1704
-24.068
-33.7205
-33.3748
-26.5021
-39.3345
-32.9831
-20.9008
-32.5671
-34.081
-34.367
-32.1354
-26.1792
-31.5846
-31.8047
-29.0534
-33.6573
-25.3344
-33.8804
-33.6373
-28.6645
-40.3625
-33.3423
-27.2934
-41.3552
-34.0051
-34.0136
-27.4644
-33.6246
-26.425
)
;
    }
}


// ************************************************************************* //
