/*--------------------------------*- C++ -*----------------------------------*\
| =========                 |                                                 |
| \\      /  F ield         | OpenFOAM: The Open Source CFD Toolbox           |
|  \\    /   O peration     | Version:  v1906                                 |
|   \\  /    A nd           | Web:      www.OpenFOAM.com                      |
|    \\/     M anipulation  |                                                 |
\*---------------------------------------------------------------------------*/
FoamFile
{
    version     2.0;
    format      ascii;
    class       surfaceScalarField;
    location    "15";
    object      phi;
}
// * * * * * * * * * * * * * * * * * * * * * * * * * * * * * * * * * * * * * //

dimensions      [1 0 -1 0 0 0 0];
oriented        oriented;


internalField   nonuniform List<scalar> 
228225
(
-8.27489e-09
1.38389e-08
-5.41606e-09
-3.09106e-08
3.42205e-08
-1.15858e-08
-6.2954e-08
4.61951e-08
-1.41482e-08
-1.0273e-07
5.52598e-08
-1.54864e-08
-1.4799e-07
6.15528e-08
-1.62934e-08
-1.96229e-07
6.51657e-08
-1.69234e-08
-2.45492e-07
6.68263e-08
-1.75703e-08
-2.9443e-07
6.72475e-08
-1.8305e-08
-3.42264e-07
6.70275e-08
-1.91914e-08
-3.88414e-07
6.6422e-08
-2.02746e-08
-4.32269e-07
6.53868e-08
-2.15289e-08
-4.7297e-07
6.35091e-08
-2.28117e-08
-5.09535e-07
6.06432e-08
-2.40754e-08
-5.41163e-07
5.70355e-08
-2.54092e-08
-5.67114e-07
5.285e-08
-2.68962e-08
-5.86864e-07
4.82263e-08
-2.84781e-08
-5.9998e-07
4.32839e-08
-3.01673e-08
-6.06238e-07
3.81588e-08
-3.19025e-08
-6.05561e-07
3.29669e-08
-3.36431e-08
-5.98017e-07
2.78142e-08
-3.53593e-08
-5.83783e-07
2.27903e-08
-3.70224e-08
-5.63156e-07
1.79708e-08
-3.85986e-08
-5.36508e-07
1.34091e-08
-4.00562e-08
-5.043e-07
9.14698e-09
-4.13559e-08
-4.67043e-07
5.20738e-09
-4.24638e-08
-4.25315e-07
1.61296e-09
-4.33439e-08
-3.79698e-07
-1.64622e-09
-4.39664e-08
-3.30836e-07
-4.57746e-09
-4.42899e-08
-2.79415e-07
-7.14231e-09
-4.42751e-08
-2.26239e-07
-9.31729e-09
-4.3858e-08
-1.72239e-07
-1.10574e-08
-4.29458e-08
-1.18671e-07
-1.22497e-08
-4.13163e-08
-6.75848e-08
-1.26705e-08
-3.84165e-08
-2.29284e-08
-1.19658e-08
-3.26912e-08
-7.56898e-09
-1.53586e-08
-2.79221e-08
6.35412e-08
-2.17804e-08
-8.23601e-08
1.10698e-07
-2.20394e-08
-1.46349e-07
1.32524e-07
-2.23403e-08
-2.14599e-07
1.46975e-07
-2.34641e-08
-2.82828e-07
1.5466e-07
-2.48799e-08
-3.477e-07
1.5654e-07
-2.65017e-08
-4.06651e-07
1.54251e-07
-2.84737e-08
-4.57852e-07
1.49331e-07
-3.08803e-08
-5.00166e-07
1.42946e-07
-3.36058e-08
-5.33095e-07
1.35722e-07
-3.63712e-08
-5.56669e-07
1.27832e-07
-3.88696e-08
-5.71356e-07
1.19114e-07
-4.09187e-08
-5.77978e-07
1.09666e-07
-4.24012e-08
-5.77409e-07
9.99017e-08
-4.34349e-08
-5.70454e-07
9.0016e-08
-4.41219e-08
-5.57925e-07
8.02608e-08
-4.45624e-08
-5.4064e-07
7.0802e-08
-4.48035e-08
-5.19375e-07
6.17769e-08
-4.48804e-08
-4.94903e-07
5.33177e-08
-4.48251e-08
-4.67895e-07
4.54817e-08
-4.46766e-08
-4.38932e-07
3.82937e-08
-4.44649e-08
-4.08499e-07
3.1753e-08
-4.42172e-08
-3.76982e-07
2.58412e-08
-4.39474e-08
-3.44693e-07
2.05252e-08
-4.36671e-08
-3.11879e-07
1.57668e-08
-4.33743e-08
-2.78724e-07
1.15241e-08
-4.30659e-08
-2.45401e-07
7.75557e-09
-4.27248e-08
-2.12069e-07
4.42444e-09
-4.23332e-08
-1.7886e-07
1.50033e-09
-4.18524e-08
-1.45909e-07
-1.02889e-09
-4.12391e-08
-1.13424e-07
-3.10929e-09
-4.0434e-08
-8.15804e-08
-4.72159e-09
-3.93705e-08
-5.07655e-08
-5.71253e-09
-3.77734e-08
-2.22802e-08
-5.61943e-09
-3.48323e-08
-1.841e-09
-2.80075e-08
-4.15324e-08
9.2612e-08
1.24608e-08
-1.0421e-07
1.57474e-07
1.59e-08
-1.71596e-07
1.82907e-07
1.70062e-08
-2.37543e-07
1.96244e-07
1.66773e-08
-2.98828e-07
2.00817e-07
1.51275e-08
-3.536e-07
1.98944e-07
1.23684e-08
-4.00733e-07
1.92868e-07
8.51608e-09
-4.38955e-07
1.84025e-07
3.52693e-09
-4.673e-07
1.73605e-07
-2.31415e-09
-4.8517e-07
1.62252e-07
-8.6584e-09
-4.92803e-07
1.50412e-07
-1.49483e-08
-4.9127e-07
1.38293e-07
-2.07121e-08
-4.82141e-07
1.26088e-07
-2.55498e-08
-4.66896e-07
1.13901e-07
-2.92446e-08
-4.47051e-07
1.01954e-07
-3.17814e-08
-4.23874e-07
9.05886e-08
-3.3507e-08
-3.98381e-07
8.00035e-08
-3.46942e-08
-3.71419e-07
7.03097e-08
-3.5496e-08
-3.43666e-07
6.1568e-08
-3.60017e-08
-3.15694e-07
5.37856e-08
-3.6277e-08
-2.8795e-07
4.69279e-08
-3.63769e-08
-2.60789e-07
4.09305e-08
-3.63408e-08
-2.34461e-07
3.57171e-08
-3.6201e-08
-2.09158e-07
3.12002e-08
-3.59799e-08
-1.84982e-07
2.72889e-08
-3.5697e-08
-1.61991e-07
2.38946e-08
-3.53617e-08
-1.40193e-07
2.0937e-08
-3.49807e-08
-1.19559e-07
1.83406e-08
-3.45497e-08
-1.00037e-07
1.60385e-08
-3.4061e-08
-8.15534e-08
1.39791e-08
-3.34903e-08
-6.39876e-08
1.21303e-08
-3.28061e-08
-4.72479e-08
1.04738e-08
-3.1935e-08
-3.12566e-08
9.02221e-09
-3.07262e-08
-1.58867e-08
7.79303e-09
-2.87821e-08
6.51445e-09
-2.42424e-08
-4.81001e-08
9.07153e-08
4.9998e-08
-9.32233e-08
1.47352e-07
5.5243e-08
-1.3639e-07
1.69535e-07
5.65402e-08
-1.78489e-07
1.81267e-07
5.70726e-08
-2.19236e-07
1.85497e-07
5.60694e-08
-2.57996e-07
1.84284e-07
5.34191e-08
-2.93134e-07
1.79556e-07
4.84498e-08
-3.22945e-07
1.72313e-07
4.15241e-08
-3.45618e-07
1.63394e-07
3.28819e-08
-3.60136e-07
1.5322e-07
2.35493e-08
-3.6624e-07
1.42225e-07
1.42917e-08
-3.64533e-07
1.30685e-07
5.90053e-09
-3.55989e-07
1.18901e-07
-1.35669e-09
-3.41978e-07
1.07156e-07
-7.26843e-09
-3.23988e-07
9.58386e-08
-1.1872e-08
-3.03392e-07
8.53309e-08
-1.53397e-08
-2.81185e-07
7.5879e-08
-1.80823e-08
-2.58181e-07
6.75655e-08
-2.02609e-08
-2.34996e-07
6.03842e-08
-2.19996e-08
-2.12151e-07
5.43095e-08
-2.33696e-08
-1.90057e-07
4.92651e-08
-2.44312e-08
-1.69041e-07
4.51456e-08
-2.52322e-08
-1.49338e-07
4.18259e-08
-2.58107e-08
-1.31115e-07
3.91792e-08
-2.62011e-08
-1.14467e-07
3.70693e-08
-2.64297e-08
-9.94172e-08
3.53689e-08
-2.65235e-08
-8.59253e-08
3.39444e-08
-2.65015e-08
-7.38726e-08
3.26755e-08
-2.6385e-08
-6.30798e-08
3.14363e-08
-2.61918e-08
-5.32815e-08
3.01131e-08
-2.59322e-08
-4.41248e-08
2.85763e-08
-2.56038e-08
-3.51071e-08
2.66941e-08
-2.52374e-08
-2.54105e-08
2.42924e-08
-2.49657e-08
-1.41482e-08
2.13395e-08
-2.48109e-08
1.55457e-08
-2.31787e-08
-2.88274e-08
6.59741e-08
5.35692e-08
-3.91179e-08
9.95466e-08
5.8095e-08
-4.36466e-08
1.14972e-07
5.90938e-08
-4.75711e-08
1.25723e-07
5.94664e-08
-5.29964e-08
1.32136e-07
5.87857e-08
-6.05446e-08
1.34862e-07
5.69724e-08
-6.95504e-08
1.34616e-07
5.39449e-08
-7.88827e-08
1.3197e-07
4.96752e-08
-8.70754e-08
1.27446e-07
4.41411e-08
-9.29289e-08
1.21482e-07
3.75918e-08
-9.56949e-08
1.14482e-07
3.05096e-08
-9.53304e-08
1.06792e-07
2.35285e-08
-9.23118e-08
9.874e-08
1.7143e-08
-8.74144e-08
9.06708e-08
1.15871e-08
-8.13727e-08
8.29047e-08
6.89401e-09
-7.4759e-08
7.57302e-08
2.98541e-09
-6.79653e-08
6.9357e-08
-2.71763e-10
-6.13213e-08
6.38729e-08
-2.95102e-09
-5.50454e-08
5.92921e-08
-5.18406e-09
-4.92826e-08
5.55681e-08
-7.02221e-09
-4.41306e-08
5.26315e-08
-8.51714e-09
-3.96567e-08
5.03808e-08
-9.71068e-09
-3.58931e-08
4.87061e-08
-1.06433e-08
-3.28461e-08
4.74819e-08
-1.13497e-08
-3.04947e-08
4.65848e-08
-1.18666e-08
-2.87795e-08
4.58817e-08
-1.22277e-08
-2.76098e-08
4.52425e-08
-1.24696e-08
-2.68289e-08
4.45266e-08
-1.26292e-08
-2.62511e-08
4.35977e-08
-1.27404e-08
-2.55975e-08
4.23004e-08
-1.28417e-08
-2.45262e-08
4.04644e-08
-1.29579e-08
-2.25707e-08
3.78842e-08
-1.31483e-08
-1.89137e-08
3.43167e-08
-1.36799e-08
-1.22691e-08
2.94502e-08
-1.47554e-08
1.87633e-08
-1.5487e-08
-8.69029e-09
4.12045e-08
3.34611e-08
-5.71397e-09
6.04979e-08
3.60705e-08
2.73382e-09
7.01373e-08
3.63882e-08
1.44643e-08
7.75657e-08
3.64246e-08
2.79182e-08
8.28139e-08
3.58707e-08
4.19814e-08
8.61632e-08
3.46348e-08
5.58519e-08
8.79772e-08
3.27681e-08
6.89545e-08
8.85115e-08
3.03559e-08
8.08611e-08
8.80245e-08
2.75151e-08
9.12361e-08
8.67181e-08
2.43882e-08
9.98061e-08
8.47813e-08
2.11306e-08
1.06343e-07
8.23766e-08
1.78776e-08
1.10672e-07
7.967e-08
1.47419e-08
1.12707e-07
7.68269e-08
1.18087e-08
1.1246e-07
7.40113e-08
9.13906e-09
1.10065e-07
7.13633e-08
6.76463e-09
1.05757e-07
6.8977e-08
4.68538e-09
9.98314e-08
6.6901e-08
2.89812e-09
9.26078e-08
6.51407e-08
1.37605e-09
8.44025e-08
6.36787e-08
9.34262e-11
7.55003e-08
6.24711e-08
-9.37098e-10
6.61772e-08
6.1471e-08
-1.76642e-09
5.66855e-08
6.0616e-08
-2.41768e-09
4.7233e-08
5.98471e-08
-2.91437e-09
3.80121e-08
5.90911e-08
-3.28407e-09
2.9172e-08
5.82773e-08
-3.55658e-09
2.08622e-08
5.7317e-08
-3.76368e-09
1.32079e-08
5.61183e-08
-3.9394e-09
6.37109e-09
5.45602e-08
-4.12515e-09
5.30944e-10
5.2505e-08
-4.36195e-09
-4.10399e-09
4.97773e-08
-4.68045e-09
-7.25126e-09
4.61765e-08
-5.14416e-09
-8.36994e-09
4.14526e-08
-6.01689e-09
-6.63537e-09
3.52134e-08
-7.49859e-09
2.13054e-08
-9.17726e-09
1.13e-09
2.49417e-08
1.51335e-08
7.55912e-09
3.89346e-08
1.51333e-08
1.73166e-08
4.59429e-08
1.44352e-08
2.92093e-08
5.16563e-08
1.4018e-08
4.22259e-08
5.62513e-08
1.3546e-08
5.55775e-08
5.99413e-08
1.28698e-08
6.86068e-08
6.29326e-08
1.20164e-08
8.07705e-08
6.53451e-08
1.10027e-08
9.16623e-08
6.7282e-08
9.84899e-09
1.01014e-07
6.88043e-08
8.56413e-09
1.08635e-07
6.99709e-08
7.1874e-09
1.14419e-07
7.08289e-08
5.76594e-09
1.18278e-07
7.14442e-08
4.36538e-09
1.20188e-07
7.18754e-08
3.04119e-09
1.20175e-07
7.21868e-08
1.83776e-09
1.18359e-07
7.24159e-08
7.64217e-10
1.14902e-07
7.25938e-08
-1.6289e-10
1.10013e-07
7.27262e-08
-9.32647e-10
1.03904e-07
7.28145e-08
-1.56552e-09
9.68081e-08
7.2839e-08
-2.06553e-09
8.89331e-08
7.27867e-08
-2.4403e-09
8.0479e-08
7.2628e-08
-2.70331e-09
7.16202e-08
7.23444e-08
-2.86839e-09
6.2521e-08
7.19003e-08
-2.95331e-09
5.33181e-08
7.12674e-08
-2.97585e-09
4.41602e-08
7.03943e-08
-2.95718e-09
3.51654e-08
6.92304e-08
-2.91876e-09
2.64795e-08
6.76902e-08
-2.88648e-09
1.82536e-08
6.5675e-08
-2.88919e-09
1.06853e-08
6.30299e-08
-2.95695e-09
4.01191e-09
5.95622e-08
-3.10998e-09
-1.41037e-09
5.50022e-08
-3.40433e-09
-4.8854e-09
4.90127e-08
-4.08568e-09
-5.28532e-09
4.0977e-08
-5.36246e-09
2.28216e-08
-6.80185e-09
-9.18134e-10
1.79967e-08
7.86484e-09
-2.83309e-09
3.40454e-08
6.80302e-09
-4.08754e-09
4.148e-08
5.71685e-09
-4.69843e-09
4.72475e-08
5.01928e-09
-4.71959e-09
5.18361e-08
4.4365e-09
-4.1225e-09
5.55402e-08
3.80505e-09
-2.84736e-09
5.85751e-08
3.081e-09
-8.77557e-10
6.11029e-08
2.27232e-09
1.77e-09
6.32396e-08
1.39569e-09
5.00045e-09
6.50784e-08
4.95075e-10
8.66138e-09
6.66862e-08
-3.75143e-10
1.25453e-08
6.81184e-08
-1.17412e-09
1.6485e-08
6.9413e-08
-1.90699e-09
2.0325e-08
7.0603e-08
-2.56934e-09
2.39711e-08
7.17077e-08
-3.16631e-09
2.7329e-08
7.27451e-08
-3.68715e-09
3.0327e-08
7.37196e-08
-4.12423e-09
3.28863e-08
7.46335e-08
-4.46566e-09
3.49313e-08
7.54754e-08
-4.70648e-09
3.63796e-08
7.62357e-08
-4.8436e-09
3.7155e-08
7.68912e-08
-4.88264e-09
3.71936e-08
7.74227e-08
-4.83055e-09
3.64429e-08
7.77942e-08
-4.70071e-09
3.48773e-08
7.79727e-08
-4.50501e-09
3.24977e-08
7.79083e-08
-4.26237e-09
2.9334e-08
7.75476e-08
-3.99002e-09
2.54637e-08
7.68122e-08
-3.71077e-09
2.09915e-08
7.56072e-08
-3.44543e-09
1.60917e-08
7.37955e-08
-3.22014e-09
1.09768e-08
7.11998e-08
-3.0552e-09
5.94626e-09
6.75668e-08
-2.97533e-09
1.42824e-09
6.25618e-08
-3.04009e-09
-1.82816e-09
5.57102e-08
-3.4416e-09
-2.8758e-09
4.63618e-08
-4.33784e-09
2.52412e-08
-5.29506e-09
-3.39883e-09
1.65335e-08
4.86124e-09
-7.72471e-09
3.37746e-08
4.59761e-09
-1.20855e-08
4.16493e-08
4.19135e-09
-1.63749e-08
4.76706e-08
3.86528e-09
-2.03704e-08
5.23264e-08
3.5068e-09
-2.38567e-08
5.59684e-08
3.05759e-09
-2.66533e-08
5.88524e-08
2.51864e-09
-2.86182e-08
6.11709e-08
1.89622e-09
-2.96554e-08
6.3068e-08
1.21054e-09
-2.97207e-08
6.46541e-08
4.88542e-10
-2.88341e-08
6.60175e-08
-2.1771e-10
-2.70756e-08
6.7226e-08
-8.64968e-10
-2.45595e-08
6.83346e-08
-1.43902e-09
-2.1407e-08
6.93845e-08
-1.93276e-09
-1.77717e-08
7.04065e-08
-2.33528e-09
-1.37966e-08
7.14171e-08
-2.64611e-09
-9.64657e-09
7.24255e-08
-2.85713e-09
-5.46858e-09
7.34293e-08
-2.97226e-09
-1.42521e-09
7.44199e-08
-2.98944e-09
2.34988e-09
7.53791e-08
-2.91756e-09
5.7152e-09
7.62843e-08
-2.75841e-09
8.5617e-09
7.71036e-08
-2.52652e-09
1.07838e-08
7.78004e-08
-2.22893e-09
1.23147e-08
7.83258e-08
-1.88533e-09
1.31092e-08
7.86226e-08
-1.50768e-09
1.31601e-08
7.86173e-08
-1.12021e-09
1.24902e-08
7.82201e-08
-7.38356e-10
1.11738e-08
7.73135e-08
-3.90029e-10
9.31712e-09
7.5746e-08
-9.31485e-11
7.06872e-09
7.33153e-08
1.32774e-10
4.61242e-09
6.97514e-08
2.70386e-10
2.21789e-09
6.46901e-08
2.66541e-10
2.81387e-10
5.76382e-08
8.45159e-12
-6.82878e-10
4.79284e-08
-6.02822e-10
2.59357e-08
-1.37736e-09
-4.60155e-09
1.6049e-08
5.08428e-09
-9.82291e-09
3.33576e-08
5.64124e-09
-1.51378e-08
4.11884e-08
5.77485e-09
-2.03289e-08
4.70961e-08
5.76492e-09
-2.51936e-08
5.15898e-08
5.60176e-09
-2.95676e-08
5.50272e-08
5.3146e-09
-3.3307e-08
5.76763e-08
4.91718e-09
-3.63065e-08
5.97343e-08
4.43369e-09
-3.84667e-08
6.13539e-08
3.87465e-09
-3.97346e-08
6.26487e-08
3.27306e-09
-4.00928e-08
6.37127e-08
2.66352e-09
-3.95776e-08
6.4618e-08
2.09315e-09
-3.82556e-08
6.54276e-08
1.58374e-09
-3.62136e-08
6.61872e-08
1.15634e-09
-3.35548e-08
6.69355e-08
8.11435e-10
-3.03937e-08
6.76943e-08
5.61402e-10
-2.68513e-08
6.84808e-08
4.03217e-10
-2.30655e-08
6.92965e-08
3.45661e-10
-1.91653e-08
7.01394e-08
3.81398e-10
-1.52931e-08
7.09927e-08
5.13686e-10
-1.15736e-08
7.18364e-08
7.28771e-10
-8.13124e-09
7.26336e-08
1.02637e-09
-5.06085e-09
7.33453e-08
1.38638e-09
-2.45044e-09
7.39154e-08
1.79921e-09
-3.47406e-10
7.42825e-08
2.23622e-09
1.22571e-09
7.43639e-08
2.68114e-09
2.27861e-09
7.40665e-08
3.10141e-09
2.84222e-09
7.32665e-08
3.48166e-09
2.98129e-09
7.18153e-08
3.79188e-09
2.76501e-09
6.95111e-08
4.02039e-09
2.28003e-09
6.60983e-08
4.13894e-09
1.62098e-09
6.12253e-08
4.12306e-09
9.38031e-10
5.44347e-08
3.88603e-09
4.29892e-10
4.5076e-08
3.362e-09
2.39254e-08
2.4394e-09
-5.35616e-09
1.58124e-08
5.59247e-09
-1.0926e-08
3.22307e-08
6.69817e-09
-1.65229e-08
3.96275e-08
7.1578e-09
-2.19344e-08
4.51693e-08
7.33721e-09
-2.69699e-08
4.93224e-08
7.30293e-09
-3.14809e-08
5.24292e-08
7.10952e-09
-3.53463e-08
5.47466e-08
6.79351e-09
-3.84504e-08
5.64703e-08
6.36988e-09
-4.07054e-08
5.77468e-08
5.86103e-09
-4.20364e-08
5.86948e-08
5.28551e-09
-4.24178e-08
5.94056e-08
4.68871e-09
-4.18689e-08
5.99603e-08
4.10891e-09
-4.04532e-08
6.04228e-08
3.58719e-09
-3.82538e-08
6.08506e-08
3.13926e-09
-3.53864e-08
6.12832e-08
2.78324e-09
-3.19642e-08
6.17552e-08
2.51885e-09
-2.81264e-08
6.22831e-08
2.35763e-09
-2.4001e-08
6.28792e-08
2.29527e-09
-1.97406e-08
6.35383e-08
2.33896e-09
-1.54799e-08
6.42518e-08
2.47984e-09
-1.13575e-08
6.4993e-08
2.72046e-09
-7.50167e-09
6.5732e-08
3.04663e-09
-4.03266e-09
6.6419e-08
3.45593e-09
-1.03915e-09
6.70014e-08
3.92343e-09
1.40688e-09
6.74051e-08
4.42917e-09
3.28878e-09
6.75533e-08
4.93025e-09
4.6125e-09
6.73437e-08
5.39854e-09
5.41504e-09
6.66648e-08
5.79893e-09
5.74199e-09
6.53663e-08
6.12108e-09
5.64411e-09
6.3269e-08
6.34124e-09
5.16512e-09
6.01304e-08
6.44768e-09
4.34638e-09
5.56401e-08
6.40175e-09
3.25799e-09
4.9382e-08
6.14277e-09
1.9572e-09
4.07964e-08
5.58095e-09
2.14643e-08
4.41762e-09
-4.84065e-09
1.55081e-08
5.14506e-09
-1.02088e-08
3.11018e-08
6.49772e-09
-1.57626e-08
3.80756e-08
7.10462e-09
-2.1188e-08
4.32247e-08
7.37049e-09
-2.62507e-08
4.69987e-08
7.3858e-09
-3.07724e-08
4.9719e-08
7.23245e-09
-3.46048e-08
5.1638e-08
6.94047e-09
-3.76133e-08
5.29459e-08
6.53365e-09
-3.9686e-08
5.37947e-08
6.0229e-09
-4.07342e-08
5.43055e-08
5.43911e-09
-4.07295e-08
5.45808e-08
4.81887e-09
-3.96893e-08
5.47066e-08
4.21386e-09
-3.76813e-08
5.47584e-08
3.65776e-09
-3.48129e-08
5.47985e-08
3.18174e-09
-3.12067e-08
5.48807e-08
2.79663e-09
-2.7012e-08
5.50439e-08
2.51699e-09
-2.23871e-08
5.5317e-08
2.34273e-09
-1.75041e-08
5.57126e-08
2.28161e-09
-1.25289e-08
5.62341e-08
2.32912e-09
-7.63473e-09
5.68678e-08
2.4898e-09
-2.98805e-09
5.75912e-08
2.75551e-09
1.25346e-09
5.83638e-08
3.12533e-09
4.9538e-09
5.91375e-08
3.58213e-09
7.99495e-09
5.98464e-08
4.11286e-09
1.02997e-08
6.04187e-08
4.68301e-09
1.18283e-08
6.07634e-08
5.25961e-09
1.25974e-08
6.07823e-08
5.79357e-09
1.26557e-08
6.03526e-08
6.25428e-09
1.20734e-08
5.93349e-08
6.61315e-09
1.0931e-08
5.75487e-08
6.86191e-09
9.30968e-09
5.47758e-08
6.97696e-09
7.29567e-09
5.07222e-08
6.93212e-09
5.01117e-09
4.50198e-08
6.64736e-09
2.62376e-09
3.71508e-08
6.0301e-09
1.93967e-08
4.69345e-09
-4.15895e-09
1.61717e-08
3.49544e-09
-9.48637e-09
3.1599e-08
4.82967e-09
-1.53032e-08
3.84287e-08
5.46383e-09
-2.11586e-08
4.33625e-08
5.71786e-09
-2.67069e-08
4.68393e-08
5.7071e-09
-3.1689e-08
4.91859e-08
5.51483e-09
-3.58889e-08
5.06594e-08
5.1785e-09
-3.91154e-08
5.14627e-08
4.70931e-09
-4.12082e-08
5.17614e-08
4.12677e-09
-4.20607e-08
5.16973e-08
3.46023e-09
-4.16301e-08
5.13897e-08
2.76129e-09
-3.99469e-08
5.09456e-08
2.07779e-09
-3.71029e-08
5.04564e-08
1.45629e-09
-3.32288e-08
5.00037e-08
9.21889e-10
-2.84974e-08
4.9653e-08
4.96037e-10
-2.30979e-08
4.94587e-08
1.84534e-10
-1.72317e-08
4.94562e-08
-3.69991e-12
-1.11198e-08
4.96685e-08
-6.92357e-11
-4.9767e-09
5.00986e-08
-5.87614e-12
9.71969e-10
5.07367e-08
1.80732e-10
6.52026e-09
5.15526e-08
4.91289e-10
1.14623e-08
5.25037e-08
9.17628e-10
1.56189e-08
5.35282e-08
1.45287e-09
1.88382e-08
5.45534e-08
2.07405e-09
2.10124e-08
5.54885e-08
2.75425e-09
2.20982e-08
5.62333e-08
3.44617e-09
2.21072e-08
5.66686e-08
4.10323e-09
2.11226e-08
5.6663e-08
4.67497e-09
1.92634e-08
5.60597e-08
5.13322e-09
1.66773e-08
5.4676e-08
5.45895e-09
1.35279e-08
5.22847e-08
5.6416e-09
1.00005e-08
4.86025e-08
5.64638e-09
6.35464e-09
4.32689e-08
5.39724e-09
2.9186e-09
3.58038e-08
4.78185e-09
1.88415e-08
3.47411e-09
-3.37314e-09
1.82943e-08
1.24956e-09
-8.79277e-09
3.46488e-08
2.37135e-09
-1.50948e-08
4.17949e-08
2.93477e-09
-2.16446e-08
4.68061e-08
3.10793e-09
-2.79639e-08
5.0156e-08
3.0021e-09
-3.36875e-08
5.22012e-08
2.70659e-09
-3.85075e-08
5.32326e-08
2.24832e-09
-4.2173e-08
5.34827e-08
1.64481e-09
-4.44763e-08
5.31515e-08
9.13218e-10
-4.52857e-08
5.24075e-08
9.93533e-11
-4.45518e-08
5.14042e-08
-7.4908e-10
-4.23145e-08
5.02741e-08
-1.56525e-09
-3.86906e-08
4.91384e-08
-2.30621e-09
-3.38496e-08
4.80988e-08
-2.93628e-09
-2.80012e-08
4.72446e-08
-3.43935e-09
-2.13841e-08
4.66432e-08
-3.80181e-09
-1.42516e-08
4.63468e-08
-4.02165e-09
-6.8752e-09
4.63828e-08
-4.09272e-09
4.79966e-10
4.6762e-08
-4.01702e-09
7.53759e-09
4.74698e-08
-3.79177e-09
1.40383e-08
4.84746e-08
-3.42219e-09
1.97326e-08
4.972e-08
-2.91018e-09
2.43955e-08
5.11341e-08
-2.26912e-09
2.78415e-08
5.26225e-08
-1.51597e-09
2.99416e-08
5.40774e-08
-6.87397e-10
3.06312e-08
5.53709e-08
1.71535e-10
2.99409e-08
5.63624e-08
9.96357e-10
2.79778e-08
5.68895e-08
1.7368e-09
2.49173e-08
5.67727e-08
2.34745e-09
2.09825e-08
5.58009e-08
2.81005e-09
1.64308e-08
5.37262e-08
3.10951e-09
1.1571e-08
5.02409e-08
3.22242e-09
6.80046e-09
4.49678e-08
3.06831e-09
2.65759e-09
3.74079e-08
2.5432e-09
2.00397e-08
1.45741e-09
-2.75927e-09
2.18751e-08
-8.21694e-10
-8.15487e-09
4.00602e-08
-1.57749e-11
-1.46813e-08
4.79238e-08
3.9748e-10
-2.16165e-08
5.32995e-08
4.41349e-10
-2.83893e-08
5.67162e-08
2.12707e-10
-3.45632e-08
5.85886e-08
-2.1306e-10
-3.97727e-08
5.92524e-08
-8.11701e-10
-4.37072e-08
5.89918e-08
-1.57377e-09
-4.61273e-08
5.80439e-08
-2.47225e-09
-4.68823e-08
5.66217e-08
-3.45914e-09
-4.59225e-08
5.49115e-08
-4.46651e-09
-4.33043e-08
5.30845e-08
-5.43027e-09
-3.91581e-08
5.12883e-08
-6.29492e-09
-3.36878e-08
4.96554e-08
-7.02771e-09
-2.71292e-08
4.82934e-08
-7.60692e-09
-1.97523e-08
4.72918e-08
-8.0254e-09
-1.18416e-08
4.67122e-08
-8.27628e-09
-3.69351e-09
4.65949e-08
-8.35983e-09
4.38915e-09
4.69505e-08
-8.27275e-09
1.21109e-08
4.77671e-08
-8.01747e-09
1.91752e-08
4.9003e-08
-7.59321e-09
2.53065e-08
5.05947e-08
-7.006e-09
3.02524e-08
5.24505e-08
-6.26277e-09
3.38002e-08
5.44596e-08
-5.38505e-09
3.57992e-08
5.64856e-08
-4.40641e-09
3.61778e-08
5.83756e-08
-3.38278e-09
3.49649e-08
5.99532e-08
-2.37938e-09
3.22931e-08
6.10254e-08
-1.46451e-09
2.83833e-08
6.13718e-08
-6.87291e-10
2.35098e-08
6.07471e-08
-7.40607e-11
1.80154e-08
5.88597e-08
3.60957e-10
1.22907e-08
5.53643e-08
6.01295e-10
6.84602e-09
4.98341e-08
5.78508e-10
2.32442e-09
4.17253e-08
2.04432e-10
2.29159e-08
-5.52327e-10
-2.33234e-09
2.63849e-08
-2.17608e-09
-7.49259e-09
4.68767e-08
-1.65845e-09
-1.38589e-08
5.56894e-08
-1.39819e-09
-2.0694e-08
6.16136e-08
-1.47927e-09
-2.74123e-08
6.52538e-08
-1.82032e-09
-3.35504e-08
6.70852e-08
-2.35696e-09
-3.87229e-08
6.75007e-08
-3.07604e-09
-4.25953e-08
6.68306e-08
-3.96674e-09
-4.49127e-08
6.53616e-08
-5.00052e-09
-4.55194e-08
6.33471e-08
-6.11823e-09
-4.43777e-08
6.10158e-08
-7.24723e-09
-4.15491e-08
5.85706e-08
-8.31292e-09
-3.71936e-08
5.61929e-08
-9.2612e-09
-3.15197e-08
5.40374e-08
-1.00563e-08
-2.47789e-08
5.22358e-08
-1.06829e-08
-1.7244e-08
5.08899e-08
-1.11325e-08
-9.205e-09
5.00763e-08
-1.1404e-08
-9.54604e-10
4.98389e-08
-1.14946e-08
7.20606e-09
5.01949e-08
-1.14053e-08
1.49813e-08
5.11278e-08
-1.11345e-08
2.20729e-08
5.25941e-08
-1.06841e-08
2.82051e-08
5.45174e-08
-1.00547e-08
3.31155e-08
5.6795e-08
-9.25412e-09
3.65784e-08
5.92936e-08
-8.29753e-09
3.84289e-08
6.18558e-08
-7.22058e-09
3.8585e-08
6.4297e-08
-6.07811e-09
3.70745e-08
6.641e-08
-4.9454e-09
3.40337e-08
6.79614e-08
-3.89644e-09
2.97054e-08
6.86925e-08
-2.99129e-09
2.44004e-08
6.83108e-08
-2.25948e-09
1.84924e-08
6.64805e-08
-1.71162e-09
1.24121e-08
6.28026e-08
-1.35932e-09
6.71248e-09
5.6795e-08
-1.26004e-09
2.07743e-09
4.78457e-08
-1.48874e-09
2.69723e-08
-1.97641e-09
-2.23027e-09
3.13249e-08
-2.70967e-09
-7.18669e-09
5.42193e-08
-2.38598e-09
-1.33021e-08
6.4043e-08
-2.2388e-09
-1.9872e-08
7.05854e-08
-2.40161e-09
-2.63294e-08
7.45202e-08
-2.80829e-09
-3.2222e-08
7.63866e-08
-3.40962e-09
-3.71562e-08
7.66302e-08
-4.19529e-09
-4.08001e-08
7.56324e-08
-5.15716e-09
-4.29002e-08
7.37239e-08
-6.26196e-09
-4.33102e-08
7.12029e-08
-7.44706e-09
-4.19963e-08
6.83349e-08
-8.63161e-09
-3.90458e-08
6.53595e-08
-9.73998e-09
-3.46207e-08
6.24848e-08
-1.07165e-08
-2.89452e-08
5.98913e-08
-1.15306e-08
-2.22666e-08
5.77254e-08
-1.21683e-08
-1.48534e-08
5.61035e-08
-1.2626e-08
-6.98248e-09
5.5107e-08
-1.29017e-08
1.06499e-09
5.47869e-08
-1.29958e-08
9.00744e-09
5.51592e-08
-1.29073e-08
1.65631e-08
5.62095e-08
-1.26365e-08
2.3451e-08
5.78884e-08
-1.21824e-08
2.93994e-08
6.01154e-08
-1.15465e-08
3.41513e-08
6.27742e-08
-1.07318e-08
3.74786e-08
6.57178e-08
-9.75218e-09
3.92088e-08
6.87641e-08
-8.63793e-09
3.92494e-08
7.1702e-08
-7.445e-09
3.76201e-08
7.4289e-08
-6.24989e-09
3.44602e-08
7.62555e-08
-5.13441e-09
3.00135e-08
7.72994e-08
-4.16227e-09
2.46074e-08
7.70856e-08
-3.36714e-09
1.86165e-08
7.52292e-08
-2.75732e-09
1.24809e-08
7.12802e-08
-2.34183e-09
6.74615e-09
6.46958e-08
-2.16619e-09
2.08623e-09
5.47978e-08
-2.29238e-09
3.16542e-08
-2.59605e-09
-2.35605e-09
3.62922e-08
-2.61112e-09
-7.29575e-09
6.15048e-08
-2.34599e-09
-1.33204e-08
7.23099e-08
-2.24296e-09
-1.97627e-08
7.94608e-08
-2.433e-09
-2.60816e-08
8.36988e-08
-2.86039e-09
-3.1829e-08
8.56174e-08
-3.4816e-09
-3.66227e-08
8.57131e-08
-4.28981e-09
-4.01242e-08
8.44102e-08
-5.27606e-09
-4.20804e-08
8.20844e-08
-6.40672e-09
-4.23355e-08
7.9075e-08
-7.61441e-09
-4.0876e-08
7.56893e-08
-8.81576e-09
-3.77889e-08
7.22049e-08
-9.93257e-09
-3.32571e-08
6.8865e-08
-1.09115e-08
-2.75144e-08
6.58719e-08
-1.17235e-08
-2.08179e-08
6.33865e-08
-1.23579e-08
-1.34335e-08
6.15306e-08
-1.28116e-08
-5.63008e-09
6.03887e-08
-1.30851e-08
2.32644e-09
6.00094e-08
-1.31785e-08
1.01666e-08
6.04101e-08
-1.30926e-08
1.76293e-08
6.15751e-08
-1.28259e-08
2.44379e-08
6.34575e-08
-1.2378e-08
3.03264e-08
6.59738e-08
-1.17478e-08
3.50347e-08
6.90034e-08
-1.09381e-08
3.83288e-08
7.23853e-08
-9.95938e-09
4.00155e-08
7.59162e-08
-8.84065e-09
4.00044e-08
7.93505e-08
-7.63556e-09
3.83079e-08
8.2407e-08
-6.42286e-09
3.50747e-08
8.47758e-08
-5.28668e-09
3.05537e-08
8.61142e-08
-4.29504e-09
2.50792e-08
8.60435e-08
-3.48174e-09
1.90262e-08
8.4137e-08
-2.8556e-09
1.28324e-08
7.98955e-08
-2.42257e-09
7.03008e-09
7.27232e-08
-2.22363e-09
2.2637e-09
6.1876e-08
-2.3121e-09
3.6479e-08
-2.56128e-09
-2.63622e-09
4.09585e-08
-2.02924e-09
-7.68513e-09
6.82649e-08
-1.71243e-09
-1.37359e-08
7.99561e-08
-1.59523e-09
-2.0169e-08
8.76612e-08
-1.76742e-09
-2.64718e-08
9.21768e-08
-2.17615e-09
-3.22147e-08
9.41419e-08
-2.78149e-09
-3.70114e-08
9.40895e-08
-3.57799e-09
-4.05221e-08
9.2479e-08
-4.55919e-09
-4.24655e-08
8.97199e-08
-5.69243e-09
-4.26699e-08
8.61898e-08
-6.90964e-09
-4.1102e-08
8.2244e-08
-8.12285e-09
-3.78638e-08
7.82176e-08
-9.2509e-09
-3.31574e-08
7.43958e-08
-1.02366e-08
-2.72432e-08
7.10072e-08
-1.10499e-08
-2.0398e-08
6.82202e-08
-1.16802e-08
-1.28921e-08
6.6153e-08
-1.21269e-08
-4.99577e-09
6.48854e-08
-1.23939e-08
3.0359e-09
6.44612e-08
-1.2485e-08
1.09531e-08
6.48954e-08
-1.24017e-08
1.84988e-08
6.61739e-08
-1.2142e-08
2.53996e-08
6.82541e-08
-1.17018e-08
3.13942e-08
7.10577e-08
-1.10766e-08
3.61961e-08
7.44676e-08
-1.02666e-08
3.9547e-08
7.83156e-08
-9.28179e-09
4.12415e-08
8.23744e-08
-8.15236e-09
4.11713e-08
8.6357e-08
-6.93703e-09
3.93748e-08
8.99226e-08
-5.71805e-09
3.60191e-08
9.27136e-08
-4.58348e-09
3.13854e-08
9.43504e-08
-3.6011e-09
2.58101e-08
9.44218e-08
-2.80342e-09
1.96767e-08
9.24669e-08
-2.19646e-09
1.34048e-08
8.79513e-08
-1.78484e-09
7.49958e-09
8.02347e-08
-1.60655e-09
2.57005e-09
6.8519e-08
-1.71253e-09
4.10633e-08
-2.01471e-09
-2.95991e-09
4.50352e-08
-1.11717e-09
-8.09066e-09
7.40778e-08
-6.81871e-10
-1.41281e-08
8.65073e-08
-5.13044e-10
-2.05168e-08
9.46805e-08
-6.31866e-10
-2.6787e-08
9.9436e-08
-9.87762e-10
-3.25486e-08
1.01443e-07
-1.54091e-09
-3.74284e-08
1.01259e-07
-2.28882e-09
-4.10834e-08
9.93638e-08
-3.23055e-09
-4.32012e-08
9.61816e-08
-4.34377e-09
-4.35473e-08
9.21112e-08
-5.57562e-09
-4.20168e-08
8.75573e-08
-6.84267e-09
-3.86894e-08
8.2924e-08
-8.03519e-09
-3.37981e-08
7.85624e-08
-9.05764e-09
-2.76604e-08
7.4744e-08
-9.87329e-09
-2.05924e-08
7.16365e-08
-1.04861e-08
-1.28734e-08
6.93474e-08
-1.09124e-08
-4.77396e-09
6.79498e-08
-1.11639e-08
3.45398e-09
6.74818e-08
-1.12492e-08
1.15637e-08
6.79566e-08
-1.11701e-08
1.93012e-08
6.93614e-08
-1.09248e-08
2.63999e-08
7.16588e-08
-1.05044e-08
3.25793e-08
7.4776e-08
-9.89682e-09
3.75238e-08
7.86078e-08
-9.08513e-09
4.09181e-08
8.29863e-08
-8.0646e-09
4.25209e-08
8.76408e-08
-6.87068e-09
4.22588e-08
9.22206e-08
-5.60151e-09
4.02367e-08
9.63165e-08
-4.37014e-09
3.66861e-08
9.9521e-08
-3.25849e-09
3.19212e-08
1.01435e-07
-2.31816e-09
2.62818e-08
1.01632e-07
-1.57129e-09
2.01343e-08
9.96324e-08
-1.01826e-09
1.38697e-08
9.48781e-08
-6.60923e-10
7.94136e-09
8.6699e-08
-5.37602e-10
2.90252e-09
7.42556e-08
-6.97274e-10
4.50851e-08
-1.11947e-09
-3.19165e-09
4.8339e-08
-1.12747e-10
-8.28693e-09
7.87187e-08
4.55785e-10
-1.41928e-08
9.17198e-08
6.92313e-10
-2.04092e-08
1.00257e-07
6.39496e-10
-2.65237e-08
1.05202e-07
3.48807e-10
-3.21841e-08
1.07241e-07
-1.37388e-10
-3.70559e-08
1.06951e-07
-8.18734e-10
-4.08083e-08
1.04818e-07
-1.70207e-09
-4.31199e-08
1.01271e-07
-2.77916e-09
-4.37077e-08
9.67262e-08
-4.027e-09
-4.23952e-08
9.16082e-08
-5.36355e-09
-3.91939e-08
8.63506e-08
-6.62762e-09
-3.43153e-08
8.13613e-08
-7.67771e-09
-2.80868e-08
7.69962e-08
-8.48097e-09
-2.08689e-08
7.34816e-08
-9.06261e-09
-1.29742e-08
7.0911e-08
-9.45829e-09
-4.68373e-09
6.93482e-08
-9.6896e-09
3.73893e-09
6.88252e-08
-9.76694e-09
1.20372e-08
6.93534e-08
-9.69312e-09
1.99406e-08
7.09218e-08
-9.46542e-09
2.71736e-08
7.34987e-08
-9.07353e-09
3.3425e-08
7.70211e-08
-8.49591e-09
3.83332e-08
8.13959e-08
-7.69636e-09
4.15721e-08
8.63969e-08
-6.64973e-09
4.29339e-08
9.16679e-08
-5.38863e-09
4.24057e-08
9.68015e-08
-4.05356e-09
4.0167e-08
1.01363e-07
-2.80688e-09
3.64934e-08
1.04925e-07
-1.73159e-09
3.17079e-08
1.0707e-07
-8.49964e-10
2.61392e-08
1.0737e-07
-1.69486e-10
2.01199e-08
1.05336e-07
3.16252e-10
1.39961e-08
1.00394e-07
6.08171e-10
8.17526e-09
9.18546e-08
6.64724e-10
3.14913e-09
7.88473e-08
4.35612e-10
4.83555e-08
-1.22363e-10
-3.31346e-09
5.09361e-08
7.17121e-10
-8.34098e-09
8.23105e-08
1.43383e-09
-1.40944e-08
9.574e-08
1.733e-09
-2.0126e-08
1.04553e-07
1.73705e-09
-2.60665e-08
1.09638e-07
1.50312e-09
-3.15981e-08
1.117e-07
1.07453e-09
-3.64241e-08
1.11327e-07
4.48962e-10
-4.02276e-08
1.09007e-07
-3.85666e-10
-4.26938e-08
1.05185e-07
-1.44505e-09
-4.35134e-08
1.00248e-07
-2.70499e-09
-4.24553e-08
9.45979e-08
-4.04729e-09
-3.94773e-08
8.86732e-08
-5.29937e-09
-3.47275e-08
8.29479e-08
-6.33845e-09
-2.84935e-08
7.78883e-08
-7.12573e-09
-2.11761e-08
7.38534e-08
-7.68823e-09
-1.31307e-08
7.09275e-08
-8.06272e-09
-4.65807e-09
6.91555e-08
-8.27993e-09
3.95473e-09
6.8564e-08
-8.35138e-09
1.24302e-08
6.91591e-08
-8.28181e-09
2.0484e-08
7.0935e-08
-8.06658e-09
2.78123e-08
7.38655e-08
-7.69423e-09
3.40599e-08
7.79062e-08
-7.13409e-09
3.88329e-08
8.2973e-08
-6.34976e-09
4.18375e-08
8.87065e-08
-5.31423e-09
4.29298e-08
9.46406e-08
-4.06616e-09
4.21583e-08
1.00301e-07
-2.7273e-09
3.97428e-08
1.05248e-07
-1.46959e-09
3.6e-08
1.0908e-07
-4.11784e-10
3.12416e-08
1.11408e-07
4.21274e-10
2.57772e-08
1.11787e-07
1.04591e-09
1.99093e-08
1.0973e-07
1.47438e-09
1.3946e-08
1.04648e-07
1.70929e-09
8.25594e-09
9.58364e-08
1.70823e-09
3.28148e-09
8.24062e-08
1.41486e-09
5.09313e-08
7.06061e-10
-3.35697e-09
5.29969e-08
1.29646e-09
-8.31071e-09
8.5153e-08
2.11012e-09
-1.39457e-08
9.89219e-08
2.45467e-09
-1.98475e-08
1.07953e-07
2.50085e-09
-2.5667e-08
1.13149e-07
2.30893e-09
-3.11164e-08
1.15226e-07
1.92234e-09
-3.59087e-08
1.14782e-07
1.33876e-09
-3.97539e-08
1.12312e-07
5.38993e-10
-4.23335e-08
1.0827e-07
-5.04923e-10
-4.32906e-08
1.02962e-07
-1.75645e-09
-4.23826e-08
9.67646e-08
-3.07496e-09
-3.95521e-08
9.01359e-08
-4.29409e-09
-3.49124e-08
8.36168e-08
-5.30733e-09
-2.87312e-08
7.77785e-08
-6.07321e-09
-2.13721e-08
7.31158e-08
-6.61944e-09
-1.32334e-08
6.97657e-08
-6.97902e-09
-4.63884e-09
6.77463e-08
-7.18476e-09
4.1051e-09
6.70739e-08
-7.25223e-09
1.26995e-08
6.77486e-08
-7.18582e-09
2.08472e-08
6.97707e-08
-6.98121e-09
2.821e-08
7.31238e-08
-6.62288e-09
3.44064e-08
7.77906e-08
-6.07816e-09
3.90575e-08
8.36335e-08
-5.31428e-09
4.19124e-08
9.01579e-08
-4.30376e-09
4.28449e-08
9.67926e-08
-3.08792e-09
4.19253e-08
1.02997e-07