/*--------------------------------*- C++ -*----------------------------------*\
| =========                 |                                                 |
| \\      /  F ield         | OpenFOAM: The Open Source CFD Toolbox           |
|  \\    /   O peration     | Version:  v1912                                 |
|   \\  /    A nd           | Website:  www.openfoam.com                      |
|    \\/     M anipulation  |                                                 |
\*---------------------------------------------------------------------------*/
FoamFile
{
    version     2.0;
    format      ascii;
    class       volScalarField;
    location    "488/oil";
    object      wallHeatFlux;
}
// * * * * * * * * * * * * * * * * * * * * * * * * * * * * * * * * * * * * * //

dimensions      [1 0 -3 0 0 0 0];


internalField   uniform 0;

boundaryField
{
    maxY
    {
        type            calculated;
        value           uniform 0;
    }
    minX
    {
        type            calculated;
        value           uniform 0;
    }
    maxX
    {
        type            calculated;
        value           uniform 0;
    }
    minY
    {
        type            calculated;
        value           uniform 0;
    }
    minZ
    {
        type            calculated;
        value           uniform 0;
    }
    maxZ
    {
        type            calculated;
        value           uniform 0;
    }
    oil_to_sphere
    {
        type            calculated;
        value           nonuniform List<scalar> 
1536
(
618.406
335.413
328.175
-185.637
-197.212
322.476
93.4718
188.89
154.99
-140.174
-348.446
-101.086
150.08
-90.9303
-413.798
63.1424
322.932
341.83
48.1768
135.158
254.594
159.753
179.315
60.0881
87.529
73.7585
86.908
25.5495
305.28
168.408
390.082
337.576
347.11
66.5262
83.0107
28.2846
54.702
-28.3895
23.4972
85.6
12.1436
53.0896
145.276
202.778
272.12
82.0655
247.231
173.74
-391.383
71.9471
228.111
158.81
168.356
60.1371
296.145
489.439
176.359
135.736
249.8
224.029
137.975
147.152
132.227
52.5467
79.9089
125.628
134.484
234.377
232.456
295.211
51.1632
-199.244
-107.352
74.4333
73.3485
508.233
350.852
-26.8437
63.7659
331.759
258.398
216.209
-182.734
-189.982
303.891
563.307
-256.557
110.549
224.167
222.904
154.024
37.7716
32.9074
45.8077
72.783
200.483
251.451
271.061
371.588
216.397
260.224
47.1797
622.519
230.289
-119.734
67.7559
91.2062
-165.839
-168.829
629.343
348.057
187.074
145.056
179.669
-223.296
-196.606
-279.268
437.454
591.766
363.456
167.188
179.694
20.2746
248.185
387.136
201.231
165.62
1.6669
265.605
249.297
126.712
237.822
292.552
94.4414
111.762
309.728
181.319
333.871
6.85613
325.811
157.779
245.935
248.874
149.214
116.765
142.893
206.323
422.756
110.214
634.461
284.11
322.121
176.368
191.826
75.1962
200.238
308.379
240.311
680.059
367.435
347.36
435.628
-68.4542
-23.6795
41.5522
37.0939
293.109
411.576
372.21
488.916
23.9301
41.4442
-24.4524
251.806
164.003
190.761
538.92
-57.9144
-125.932
563.674
31.6902
-19.2389
-30.3892
-3.62606
219.889
563.726
369.336
10.755
-79.5927
337.088
-61.5297
288.367
289.296
415.006
-104.362
-475.825
404.065
443.308
85.2337
71.7811
159.783
97.0658
341.179
400.643
276.722
216.878
42.5912
422.662
373.362
184.823
1.60957
79.82
68.3511
99.3816
256.54
498.005
-83.7632
-95.5894
-86.7629
-514.72
321.171
253.62
214.135
156.967
168.888
422.721
286.21
73.367
322.584
-138.352
29.0938
-463.548
148.53
302
405.466
375.768
323.064
263.915
362.809
-107.079
-66.2981
-35.4647
450.14
-13.2782
-469.81
-268.531
256.215
133.633
542.461
667.892
184.359
-191.121
-506.662
223.063
362.939
46.5702
55.2116
-235.483
36.138
422.089
574.007
131.189
54.2354
475.687
370.309
77.5313
-115.426
110.192
507.109
439.907
264.552
290.093
393.678
-30.9338
66.5611
408.37
289.613
327.11
144.979
322.814
490.13
273.416
250.359
460.079
48.0031
44.7972
68.7081
23.9202
40.0781
418.844
516.386
-109.586
103.59
88.4688
98.8559
10.0581
168.786
141.704
-19.5143
-232.092
32.9019
-97.9588
8.79527
564.249
466.76
461.219
639.722
-48.3131
-27.8461
155.797
635.846
568.985
28.9335
146.795
14.3051
284.224
59.619
248.628
272.116
351.148
298.165
82.2751
307.666
30.0645
395.17
431.58
332.722
309.443
-11.0219
523.558
509.591
275.557
-110.696
44.8938
94.3232
273.161
245.394
287.896
-20.2269
390.515
392.907
354.454
459.532
236.794
201.065
134.899
-67.1541
201.955
278.267
-69.4067
-89.4476
-39.3951
604.174
383.99
459.296
243.268
195.899
411.081
-82.5933
543.027
351.342
202.284
195.99
-101.129
346.992
377.687
-0.850757
203.079
128.822
54.9265
284.71
385.811
144.992
75.204
-46.7969
498.701
397.295
-92.2178
413.607
373.419
321.14
498.136
198.715
299.514
-147.775
-101.52
270.748
629.398
333.505
539.138
238.664
92.0116
369.998
-41.8215
12.1797
245.301
380.669
288.886
246.504
-30.3291
-27.3857
409.414
388.617
398.009
191.531
36.6006
253.901
310.1
377.765
208.044
110.401
-11.3958
183.489
-55.6804
-165.095
44.1959
-8.23895
188.236
-137.545
95.6148
522.194
89.1401
85.6762
377.186
374.193
279.722
129.835
-72.0769
330.715
463.25
265.399
210.812
342.287
147.476
177.746
238.187
-185.775
258.921
393.704
456.292
366.581
302.719
291.603
210.92
116.736
-41.3508
165.07
-10.3281
-100.246
15.4642
-166.168
572.837
534.026
433.732
610.809
-54.238
576.899
-22.2267
33.3041
321.38
-75.5314
-31.1001
99.0322
90.4243
543.697
464.076
239.21
258.847
493.627
411.079
208.044
307.76
6.24152
381.48
-110.639
452.992
-188.257
293.651
328.844
366.123
80.6178
-43.1903
124.575
375.102
137.829
-131.097
378.397
401.382
431.613
653.573
202.028
485.575
-50.8169
-15.3268
-379.446
-267.201
207.394
98.592
61.6955
15.6323
597.025
-34.006
-81.0738
-120.218
96.2203
-144.233
676.051
2.49627
23.5584
166.41
-341.471
-240.384
46.3157
38.8766
145.785
74.3996
399.527
365.16
292.975
205.135
-157.801
60.1822
353.944
-41.9052
0.380336
331.501
502.306
4.34363
-383.504
-66.75
-349.73
160.921
81.5368
24.4932
-113.339
-341.64
284.725
324.846
247.507
155.161
509.13
293.976
274.611
196.256
-13.0775
70.4671
398.173
293.195
106.857
-277.765
215.749
339.749
525.397
225.256
40.7001
528.643
164.223
489.474
3.6759
83.0801
-33.0959
89.0987
221.109
503.512
-60.0372
23.0007
-14.5152
95.3057
685.511
-115.453
66.4225
-85.0576
165.907
219.684
400.406
510.368
-162.993
-108.909
505.548
538.486
-212.65
485.89
414.866
332.555
404.252
273.826
183.108
199.192
495.868
206.263
279.658
182.509
378.968
226.168
161.34
141.79
-66.6496
332.112
151.679
373.949
300.911
306.622
292.011
208.283
-102.011
406.268
403.775
282.947
158.273
232.279
620.218
-150.87
-1.15592
-55.6582
211.522
4.42956
623.481
89.5422
118.268
172.065
-374.01
-326.357
55.0004
49.3814
199
-32.9249
18.2623
218.88
22.3823
512.985
-73.3681
606.396
80.1981
204.077
-473.112
-337.36
-383.258
24.5785
333.224
64.6867
25.4355
-345.678
188.208
345.875
193.71
751.171
3.8714
398.817
272.461
343.941
422.646
410.171
340.047
166.732
109.9
164.003
343.68
129.893
251.289
220.905
245.424
367.783
293.475
330.492
-73.4209
-8.84882
-483.652
-231.694
-172.215
-648.75
44.9935
75.0498
130.652
160.246
-165.513
-61.5349
105.981
441.449
408.122
100.597
-124.08
148.888
358.896
277.218
175.322
-144.719
3.734
287.076
231.36
170.129
54.0428
313.371
317.333
498.071
321.86
212.831
74.8084
13.8777
-71.0952
34.7361
132.405
638.916
207.783
562.5
-0.649493
660.925
45.9778
140.533
-51.9559
-24.6734
77.5641
-79.2686
124.739
-139.634
58.6607
392.809
94.9596
-95.4491
516.51
304.5
256.522
150.931
483.92
791.986
-227.06
297.006
237.207
278.688
-81.0308
155.968
12.621
241.792
320.886
413.368
-16.1537
285.154
193.725
317.406
299.774
272.838
100.984
134.355
61.5703
-128.328
-158.891
-36.9253
474.671
59.6708
-83.1603
67.6925
400.766
121.711
471.605
363.147
263.883
212.114
257.839
532.154
-36.279
292.661
414.862
445.706
206.37
10.6023
114.066
258.515
453.774
-56.3827
137.644
197.419
393.888
260.726
253.335
482.002
-50.9637
22.3474
-13.6843
533.252
409.716
201.383
391.284
25.7514
57.8619
390.283
250.484
500.492
-23.2292
346.789
380.28
220.781
243.958
330.457
-19.2284
-174.414
180.222
252.477
540.202
144.811
39.6714
163.93
261.788
342.035
212.833
16.4687
147.232
378.563
-54.6141
18.426
147.979
54.7327
236.036
210.905
439.671
276.599
365.522
65.9311
165.814
235.552
156.954
113.979
74.0871
70.7486
-45.0929
309.664
228.338
229.129
265.016
-108.961
90.3125
522.371
529.536
17.2574
397.358
260.482
308.324
65.9648
448.836
430.228
-28.8291
121.5
85.8911
73.9191
-120.02
-60.1671
86.0075
422.861
618.534
40.8164
327.875
308.507
255.028
130.359
237.586
437.399
224.787
-20.3882
92.3599
67.5748
78.4931
278.796
304.818
310.97
325.251
322.356
18.2556
340.027
99.0552
293.671
-341.93
265.977
467.081
112.856
-227.461
172.751
133.641
563.028
-9.03723
340.386
161.271
-178.864
511.143
-96.517
138.182
184.473
-112.438
397.467
241.013
129.821
198.162
238.987
138.261
579.406
-89.9939
80.5513
-416.669
96.8838
115.032
193.775
394.99
809.399
-137.63
82.951
717.456
-94.6547
318.814
10.5006
307.644
-251.987
-8.42872
707.95
-197.195
642.391
-151.01
547.937
-176.333
-12.4778
-388.047
-90.4979
668.325
-311.759
155.182
-198.805
480.812
672.169
-296.833
112.789
47.6235
-19.4627
-28.3067
88.2266
187.542
186.106
300.526
164.5
490.504
740.675
-303.283
182.031
266.481
187.369
220.427
149.926
112.732
148.915
356.752
155.324
362.676
76.5217
227.305
466.966
111.04
290.039
402.628
75.5667
227.29
162.051
296.914
139.505
204.188
118.183
388.649
94.0958
253.907
-154.694
502.053
-283.269
249.039
376.069
516.141
-2.37503
215.209
165.542
215.518
192.392
154.582
352.19
-35.1387
-484.658
109.116
-224.132
410.8
2.62552
179.646
310.068
-448.738
446.626
-48.1312
-358.439
-18.5161
321.037
303.46
190.688
-306.154
185.409
226.234
38.1092
4.71608
419.518
380.762
60.4721
198.387
421.178
-299.757
349.767
-1.36743
290.474
-273.46
614.927
595.676
380.756
184.909
112.379
310.641
101.154
-310.241
-55.6024
329.923
11.3641
268.796
-229.368
403.512
288.214
-584.939
186.988
241.384
-430.095
455.468
-161.562
415.465
506.022
346.068
-348.147
202.29
124.046
190.335
208.122
271.847
-295.034
70.3137
18.6072
19.8489
395.315
175.143
243.227
304.257
289.904
120.143
211.888
133.651
251.752
427.475
60.1402
108.19
45.6451
204.301
373.154
56.5819
101.422
79.4103
179.049
16.7222
36.8841
99.0207
118.155
207.108
89.8937
500.534
351.884
-206.558
-200.829
456.929
-646.887
336.525
224.248
15.332
118.65
466.736
-449.918
411.155
243.861
-327.3
82.4776
36.4787
176.003
-476.295
457.333
250.644
-440.25
436.674
439.713
-260.191
518.847
379.52
-253.316
43.4593
17.5347
-443.961
185.815
214.54
-53.5065
-1.16519
-25.887
-568.125
-6.86749
-471.222
-601.979
391.118
45.6602
669.357
58.3378
-298.182
462.545
132.27
-390.768
59.1646
46.2464
-396.868
-199.94
439.207
-729.372
-53.572
-104.799
-649.81
409.919
361.474
183.834
96.0901
41.1974
-51.1557
-515.704
192.105
100.871
112.126
184.656
-357.255
321.93
61.1603
154.46
37.8675
145.736
205.541
-67.7021
-334.378
87.0644
213.152
55.9426
95.0309
162.078
-2.22796
106.48
-370.014
59.9972
240.293
41.8295
120.692
5.32779
-326.171
464.622
454.228
434.353
517.412
-262.972
-426.17
64.3618
334.026
213.389
316.031
355.994
-52.672
-106.965
-419.501
-298.618
-3.32383
158.061
141.897
130.372
-106.415
395.243
246.587
-247.895
-13.1444
-63.6118
350.68
3.20094
-518.762
153.2
172.84
408.561
-379.087
40.0645
205.971
75.9397
119.741
306.37
151.596
-45.4475
545.702
-606.912
-152.087
123.681
0.0927232
89.0754
514.402
255.321
174.291
-138.917
469.674
69.9151
204.72
355.432
408.453
387.887
406.681
494.898
552.978
485.052
485.979
175.529
367.613
59.4214
118.498
-114.988
-180.812
-560.202
525.261
508.526
433.166
107.167
207.055
189.868
8.55222
220.811
363.845
-37.1687
133.099
294.122
41.7156
65.2226
52.4488
103.595
-3.752
95.5366
73.8237
-271.881
203.63
-33.2774
131.183
-396.416
522.084
142.615
26.0649
-13.5529
-242.445
170.827
33.1183
-439.893
-148.24
136.589
-191.049
-125.515
565.084
593.325
76.0614
78.5786
327.781
510.653
-446.364
2.58497
-4.23201
90.7141
88.695
110.448
148.906
-112.386
-317.204
454.458
82.5059
-164.183
-117.307
76.3006
178.96
-237.899
113.306
6.48494
59.3413
515.351
-156.529
-308.363
87.81
40.0019
-5.07782
-310.584
409.819
71.7864
61.466
74.0627
-436.293
74.8491
88.0432
-298.291
68.2174
-149.575
248.209
448.472
7.0777
367.865
237.185
17.0858
26.6768
96.5513
-310.125
230.28
266.052
49.3461
-379.944
-70.0585
123.972
142.447
11.7156
-337.678
22.0304
409.475
236.802
27.1875
557.251
-154.332
350.612
-425.831
-168.906
372.12
-436.498
391.453
21.9242
177.768
60.1638
584.336
-94.879
184.296
516.815
466.889
-211.605
449.504
515.837
-632.827
111.685
38.0694
-410.308
261.786
32.3361
62.2292
63.1406
152.899
112.836
49.8778
27.224
-426.641
261.99
176.545
162.446
203.631
107.17
16.0225
-66.4711
319.418
-504.207
-10.9467
-27.6813
-481.691
378.243
541.459
133.94
432.33
467.482
5.85736
8.9441
259.533
429.541
-4.22766
291.476
-118.836
-410.061
327.65
-33.8233
408.745
554.602
507.501
-379.242
357.165
183.512
-47.5097
47.1061
89.5928
34.7901
-368.727
424.04
-350.796
414.508
103.239
-118.824
-170.167
105.256
302.478
486.342
168.068
638.245
334.631
394.522
-449.885
364.912
314.477
409.607
3.87055
-40.7372
-508.336
138.699
616.717
433.999
-323.143
-100.257
-358.114
3.5809
149.869
-125.285
764.18
63.2634
-98.3384
-309.832
233.122
-35.2471
-468.469
117.679
28.9359
38.0599
46.8528
50.8308
-304.767
-119.216
-406.758
30.9997
331.137
250.294
448.865
408.475
-10.3743
-65.1031
-430.044
20.3743
302.026
476.892
333.503
351.923
-162.172
-487.894
-90.1773
-527.132
325.595
346.171
-64.7689
387.563
318.746
451.135
216.647
178.525
170.783
-10.3901
-439.336
-79.6398
-382.744
-137.383
47.2035
11.4337
-270.213
-383.035
287.598
619.717
556.886
507.606
163.88
279.033
268.466
137.5
45.4547
138.206
-48.2719
101.735
104.214
-379.842
316.527
81.3408
-98.7988
-280.105
23.8836
157.773
154.76
12.4141
-277.457
490.074
230.168
35.5299
550.951
-38.1699
-402.859
248.757
102.609
106.02
106.266
19.9361
-507
101.603
98.54
-346.573
470.33
71.5225
-728.137
46.0431
146.201
164.633
18.3687
-370.073
-21.1117
-6.99287
-180.647
118.846
-426.813
131.26
115.18
-203.973
541.817
97.0049
-298.769
598.56
140.115
139.795
-284.593
115.306
-353.012
)
;
    }
}


// ************************************************************************* //
