/*--------------------------------*- C++ -*----------------------------------*\
| =========                 |                                                 |
| \\      /  F ield         | OpenFOAM: The Open Source CFD Toolbox           |
|  \\    /   O peration     | Version:  v1912                                 |
|   \\  /    A nd           | Website:  www.openfoam.com                      |
|    \\/     M anipulation  |                                                 |
\*---------------------------------------------------------------------------*/
FoamFile
{
    version     2.0;
    format      ascii;
    class       volScalarField;
    location    "17/sphere";
    object      ddt0((betavSolid*thermo:rho),h);
}
// * * * * * * * * * * * * * * * * * * * * * * * * * * * * * * * * * * * * * //

dimensions      [1 -1 -3 0 0 0 0];


internalField   nonuniform List<scalar> 
1992
(
-4.99651e+06
-4.99907e+06
-4.99882e+06
-5.00414e+06
-4.99734e+06
-4.99723e+06
-4.99903e+06
-5.01503e+06
-5.01843e+06
-5.00877e+06
-4.99867e+06
-5.01828e+06
-5.02158e+06
-5.01232e+06
-5.00725e+06
-5.01212e+06
-5.00463e+06
-4.99886e+06
-5.00402e+06
-4.99742e+06
-4.99875e+06
-5.01828e+06
-5.0216e+06
-5.01234e+06
-5.00347e+06
-5.02144e+06
-5.02474e+06
-5.01558e+06
-4.9988e+06
-4.99696e+06
-5.01197e+06
-5.0153e+06
-5.00957e+06
-4.99839e+06
-4.9973e+06
-5.00845e+06
-5.01221e+06
-5.00386e+06
-4.99705e+06
-5.01201e+06
-5.0154e+06
-5.00956e+06
-5.00347e+06
-5.00946e+06
-5.00074e+06
-4.99854e+06
-4.99855e+06
-4.99854e+06
-4.99834e+06
-4.99854e+06
-4.99673e+06
-5.00416e+06
-4.99919e+06
-5.01224e+06
-5.00872e+06
-5.01544e+06
-5.01229e+06
-5.00868e+06
-5.01541e+06
-5.01226e+06
-4.99907e+06
-4.99663e+06
-5.00414e+06
-4.99914e+06
-5.01225e+06
-5.01218e+06
-5.00864e+06
-5.00413e+06
-4.99912e+06
-4.99907e+06
-4.99666e+06
-4.99833e+06
-4.99833e+06
-4.99827e+06
-4.99815e+06
-4.99762e+06
-4.99813e+06
-4.99827e+06
-4.9976e+06
-4.99813e+06
-4.99827e+06
-4.99761e+06
-4.99835e+06
-5.0001e+06
-4.99726e+06
-4.99729e+06
-5.00362e+06
-5.00949e+06
-4.99728e+06
-4.99736e+06
-5.00953e+06
-5.00388e+06
-5.00081e+06
-4.99715e+06
-5.00357e+06
-4.99706e+06
-5.00937e+06
-4.99894e+06
-4.99884e+06
-5.00383e+06
-5.00848e+06
-5.01214e+06
-5.01206e+06
-5.01528e+06
-4.99844e+06
-5.00107e+06
-5.00038e+06
-5.00608e+06
-5.00447e+06
-5.00313e+06
-5.00675e+06
-4.99734e+06
-5.00387e+06
-5.0096e+06
-4.99736e+06
-4.99715e+06
-4.99706e+06
-5.00936e+06
-5.00355e+06
-5.00382e+06
-4.99649e+06
-4.99892e+06
-5.01203e+06
-5.01525e+06
-5.00845e+06
-5.01207e+06
-4.99916e+06
-4.99903e+06
-4.99662e+06
-5.01541e+06
-5.01228e+06
-5.01218e+06
-5.00866e+06
-5.00959e+06
-4.99736e+06
-5.00384e+06
-4.99998e+06
-4.99718e+06
-5.00347e+06
-5.00942e+06
-4.99718e+06
-5.00946e+06
-5.0038e+06
-4.99722e+06
-5.00071e+06
-4.99843e+06
-4.99855e+06
-5.00355e+06
-4.99719e+06
-4.99709e+06
-5.00939e+06
-4.99896e+06
-5.00734e+06
-5.01209e+06
-4.99886e+06
-5.00382e+06
-5.01204e+06
-5.01524e+06
-4.99676e+06
-5.01221e+06
-5.00875e+06
-5.00402e+06
-4.99921e+06
-5.01539e+06
-5.0123e+06
-5.00471e+06
-4.99739e+06
-5.00964e+06
-4.99738e+06
-4.9981e+06
-5.00731e+06
-4.99869e+06
-5.01196e+06
-4.99874e+06
-5.01198e+06
-5.00348e+06
-5.01508e+06
-4.99674e+06
-5.01234e+06
-4.99921e+06
-5.01236e+06
-4.99922e+06
-5.01559e+06
-5.00449e+06
-4.99881e+06
-4.9981e+06
-5.01195e+06
-5.00728e+06
-5.00347e+06
-5.01507e+06
-4.99866e+06
-5.01194e+06
-4.99917e+06
-5.00875e+06
-4.99669e+06
-5.01558e+06
-5.00449e+06
-5.01232e+06
-4.99918e+06
-4.99881e+06
-5.00351e+06
-4.99698e+06
-5.00933e+06
-4.99707e+06
-5.01201e+06
-4.99884e+06
-5.01197e+06
-5.01516e+06
-4.99874e+06
-5.00369e+06
-5.00866e+06
-4.99891e+06
-4.99663e+06
-5.0153e+06
-5.01221e+06
-5.00389e+06
-4.9991e+06
-5.00956e+06
-4.99734e+06
-4.99728e+06
-4.9983e+06
-4.99841e+06
-4.99844e+06
-4.99856e+06
-4.99718e+06
-4.99704e+06
-5.00938e+06
-5.0035e+06
-5.00383e+06
-5.01202e+06
-5.01523e+06
-4.99895e+06
-5.00729e+06
-5.01208e+06
-4.99921e+06
-5.01538e+06
-5.01229e+06
-4.99899e+06
-4.99667e+06
-5.01219e+06
-5.00872e+06
-5.00963e+06
-4.9974e+06
-5.00467e+06
-4.99811e+06
-5.01196e+06
-5.00348e+06
-5.01508e+06
-5.00729e+06
-4.99871e+06
-5.01196e+06
-4.99925e+06
-5.01558e+06
-5.00449e+06
-5.00873e+06
-4.99673e+06
-5.01232e+06
-4.99919e+06
-4.99881e+06
-4.99808e+06
-5.01506e+06
-4.99866e+06
-5.01192e+06
-4.99869e+06
-5.01195e+06
-5.00723e+06
-5.00449e+06
-5.01232e+06
-4.99919e+06
-5.01231e+06
-4.99921e+06
-5.00873e+06
-4.99664e+06
-5.00932e+06
-4.99708e+06
-5.00342e+06
-5.01516e+06
-4.99873e+06
-5.00366e+06
-5.00723e+06
-5.01201e+06
-4.99882e+06
-5.01222e+06
-5.00386e+06
-4.99909e+06
-5.01212e+06
-5.00865e+06
-4.9989e+06
-4.99659e+06
-4.99734e+06
-4.99727e+06
-5.00464e+06
-4.99826e+06
-5.00001e+06
-4.99726e+06
-5.00352e+06
-5.00947e+06
-4.99721e+06
-5.00951e+06
-5.00387e+06
-4.99729e+06
-5.00079e+06
-5.00357e+06
-4.99705e+06
-5.00936e+06
-4.99715e+06
-5.0121e+06
-5.01202e+06
-5.01525e+06
-4.99648e+06
-4.99897e+06
-4.99883e+06
-5.00382e+06
-5.00957e+06
-4.99733e+06
-4.99732e+06
-5.00935e+06
-5.00348e+06
-4.99713e+06
-5.01524e+06
-5.00841e+06
-5.01207e+06
-4.99882e+06
-5.0038e+06
-4.99652e+06
-4.99892e+06
-4.99736e+06
-5.00384e+06
-4.9973e+06
-4.99994e+06
-5.00942e+06
-4.99715e+06
-4.99719e+06
-5.0038e+06
-4.99721e+06
-4.99724e+06
-4.997e+06
-4.9965e+06
-4.99636e+06
-4.99696e+06
-4.99654e+06
-4.99716e+06
-4.99657e+06
-4.99713e+06
-4.99653e+06
-4.99713e+06
-4.99651e+06
-4.99701e+06
-4.99653e+06
-4.99645e+06
-4.99642e+06
-4.99765e+06
-4.99754e+06
-4.99657e+06
-4.99825e+06
-4.9981e+06
-4.99758e+06
-4.99712e+06
-4.99649e+06
-4.99696e+06
-4.99646e+06
-4.99759e+06
-4.99758e+06
-4.99919e+06
-5.00455e+06
-4.99949e+06
-5.00162e+06
-5.00165e+06
-4.99845e+06
-5.00127e+06
-5.00042e+06
-5.00611e+06
-5.00458e+06
-5.00314e+06
-5.00692e+06
-4.99841e+06
-5.00105e+06
-5.00033e+06
-5.00601e+06
-5.00444e+06
-5.00309e+06
-5.00672e+06
-4.99755e+06
-4.99756e+06
-4.99915e+06
-5.00448e+06
-4.99943e+06
-5.00159e+06
-5.00156e+06
-4.99842e+06
-5.0012e+06
-5.0004e+06
-5.00606e+06
-5.00452e+06
-5.00311e+06
-5.00685e+06
-5.00116e+06
-4.99843e+06
-5.00036e+06
-5.00604e+06
-5.00451e+06
-5.00684e+06
-5.00314e+06
-5.00109e+06
-4.99839e+06
-5.00034e+06
-5.006e+06
-5.0044e+06
-5.0067e+06
-5.00307e+06
-4.99756e+06
-4.99755e+06
-4.99911e+06
-5.00446e+06
-4.99943e+06
-5.00162e+06
-5.00158e+06
-4.99654e+06
-4.99635e+06
-4.99765e+06
-4.99753e+06
-4.99656e+06
-4.99766e+06
-4.99752e+06
-4.99654e+06
-4.99653e+06
-4.99736e+06
-4.99735e+06
-4.9988e+06
-5.00415e+06
-4.99926e+06
-5.00141e+06
-5.00139e+06
-4.99718e+06
-4.9987e+06
-4.99678e+06
-5.00041e+06
-5.00555e+06
-4.99815e+06
-5.00422e+06
-4.99963e+06
-5.00638e+06
-5.00282e+06
-4.99675e+06
-5.00108e+06
-4.99754e+06
-4.99783e+06
-5.0002e+06
-4.99661e+06
-4.99702e+06
-4.99849e+06
-4.99669e+06
-4.99748e+06
-5.00093e+06
-5.00014e+06
-4.99772e+06
-5.00309e+06
-4.99685e+06
-4.99862e+06
-4.99685e+06
-5.00075e+06
-4.99834e+06
-5.00077e+06
-5.00583e+06
-4.99838e+06
-5.00438e+06
-5.00062e+06
-5.00308e+06
-4.99992e+06
-5.00654e+06
-4.99684e+06
-4.99718e+06
-4.99878e+06
-5.003e+06
-4.99853e+06
-4.9967e+06
-4.99668e+06
-5.0006e+06
-5.00069e+06
-4.99821e+06
-5.00525e+06
-5.00406e+06
-4.9979e+06
-5.00026e+06
-5.00258e+06
-5.00618e+06
-4.99936e+06
-4.99721e+06
-4.9966e+06
-4.9965e+06
-4.99668e+06
-4.99826e+06
-4.99939e+06
-5.00051e+06
-5.00045e+06
-5.00703e+06
-4.99771e+06
-5.00294e+06
-5.00287e+06
-4.9965e+06
-5.00537e+06
-5.00048e+06
-5.00418e+06
-4.99809e+06
-5.00634e+06
-4.99956e+06
-5.00268e+06
-5.00745e+06
-5.00337e+06
-5.00908e+06
-5.00248e+06
-5.00839e+06
-5.0017e+06
-5.00815e+06
-4.99762e+06
-5.00111e+06
-4.99679e+06
-4.99789e+06
-5.00027e+06
-5.00528e+06
-5.00411e+06
-5.00031e+06
-4.998e+06
-5.00624e+06
-5.00261e+06
-4.99943e+06
-4.99727e+06
-4.9967e+06
-5.0068e+06
-5.0086e+06
-5.00201e+06
-5.00201e+06
-5.00771e+06
-5.0077e+06
-5.00071e+06
-4.99842e+06
-4.9984e+06
-4.99774e+06
-4.99727e+06
-5.00072e+06
-4.9964e+06
-4.99756e+06
-4.99984e+06
-4.99635e+06
-4.9981e+06
-4.99763e+06
-4.99713e+06
-4.99666e+06
-4.99683e+06
-4.99839e+06
-4.99758e+06
-4.9968e+06
-5.00096e+06
-5.00019e+06
-4.9978e+06
-4.99658e+06
-4.99679e+06
-4.99833e+06
-5.00693e+06
-5.00007e+06
-5.00288e+06
-4.99937e+06
-5.00017e+06
-5.00289e+06
-4.99719e+06
-4.99732e+06
-5.00073e+06
-4.99652e+06
-4.99993e+06
-4.99761e+06
-4.99915e+06
-5.00675e+06
-4.99969e+06
-4.9998e+06
-5.00256e+06
-5.00268e+06
-4.99692e+06
-4.99731e+06
-4.99795e+06
-4.99797e+06
-4.99665e+06
-4.99641e+06
-4.99752e+06
-4.99762e+06
-4.99654e+06
-4.99647e+06
-4.99716e+06
-4.99715e+06
-4.9971e+06
-4.99674e+06
-4.99704e+06
-4.99862e+06
-4.9967e+06
-5.00094e+06
-4.99751e+06
-4.99779e+06
-5.00011e+06
-4.99666e+06
-4.9969e+06
-4.99843e+06
-4.9975e+06
-4.99668e+06
-5.00094e+06
-4.99781e+06
-5.00004e+06
-4.99924e+06
-4.99991e+06
-4.9998e+06
-5.00684e+06
-4.99706e+06
-5.00276e+06
-5.00264e+06
-4.99671e+06
-5.001e+06
-5.00021e+06
-4.99756e+06
-4.99781e+06
-4.99721e+06
-4.99874e+06
-4.9968e+06
-4.9976e+06
-4.99684e+06
-5.00101e+06
-4.99783e+06
-5.00024e+06
-4.99683e+06
-4.99722e+06
-4.99875e+06
-5.00009e+06
-5.00694e+06
-5.0029e+06
-4.99941e+06
-5.0002e+06
-4.99722e+06
-5.00291e+06
-4.99736e+06
-4.998e+06
-4.99802e+06
-4.99674e+06
-4.99664e+06
-4.99702e+06
-4.99856e+06
-4.99659e+06
-4.9974e+06
-5.00088e+06
-5.00006e+06
-4.99766e+06
-4.9966e+06
-4.99678e+06
-4.99832e+06
-4.99916e+06
-4.99986e+06
-4.99974e+06
-5.00679e+06
-4.99696e+06
-5.00269e+06
-5.00256e+06
-4.99737e+06
-4.99649e+06
-5.0008e+06
-4.99764e+06
-4.99993e+06
-5.00056e+06
-4.99825e+06
-5.00435e+06
-4.9997e+06
-5.00654e+06
-5.00564e+06
-5.00292e+06
-4.99818e+06
-5.00041e+06
-4.99961e+06
-5.0056e+06
-5.00424e+06
-5.00289e+06
-5.0064e+06
-4.99674e+06
-5.00108e+06
-5.00022e+06
-4.99756e+06
-4.99784e+06
-5.00008e+06
-5.00695e+06
-5.00285e+06
-4.99938e+06
-5.00015e+06
-4.99717e+06
-5.00292e+06
-4.9968e+06
-4.99721e+06
-4.99876e+06
-4.99757e+06
-4.9968e+06
-5.00105e+06
-4.99783e+06
-5.00024e+06
-4.99736e+06
-4.99656e+06
-5.00087e+06
-4.99765e+06
-5.00001e+06
-4.99658e+06
-4.99699e+06
-4.99851e+06
-4.99734e+06
-5.00076e+06
-4.99647e+06
-4.99762e+06
-4.99987e+06
-4.99657e+06
-4.99665e+06
-4.99825e+06
-4.99911e+06
-4.99983e+06
-5.00676e+06
-4.99971e+06
-5.00265e+06
-4.99689e+06
-5.00253e+06
-5.00221e+06
-5.00236e+06
-5.00897e+06
-5.00709e+06
-5.00096e+06
-5.00796e+06
-5.00807e+06
-5.0041e+06
-4.99734e+06
-4.99733e+06
-4.99922e+06
-4.99878e+06
-5.00131e+06
-5.00136e+06
-5.00058e+06
-5.00559e+06
-4.9982e+06
-5.00431e+06
-4.99966e+06
-5.0065e+06
-5.00285e+06
-5.00124e+06
-4.99843e+06
-5.00458e+06
-5.00037e+06
-5.0069e+06
-5.00607e+06
-5.00317e+06
-5.00108e+06
-4.99835e+06
-5.00033e+06
-5.00601e+06
-5.00441e+06
-5.0067e+06
-5.00308e+06
-4.99755e+06
-4.99751e+06
-4.99911e+06
-5.00448e+06
-4.99943e+06
-5.00162e+06
-5.00158e+06
-4.99677e+06
-4.99715e+06
-4.9987e+06
-4.99757e+06
-5.00104e+06
-4.9968e+06
-4.99784e+06
-5.00021e+06
-4.99936e+06
-5.00006e+06
-5.00693e+06
-5.00017e+06
-5.00289e+06
-4.99715e+06
-5.00289e+06
-4.99679e+06
-4.9972e+06
-4.9987e+06
-4.99713e+06
-4.99708e+06
-4.99705e+06
-4.99742e+06
-4.9966e+06
-5.0009e+06
-5.00004e+06
-4.9977e+06
-4.99912e+06
-4.99983e+06
-5.00672e+06
-4.99971e+06
-5.00262e+06
-4.99687e+06
-5.00253e+06
-4.9966e+06
-4.99677e+06
-4.99834e+06
-4.99741e+06
-5.00085e+06
-4.99659e+06
-4.9977e+06
-4.99997e+06
-4.99675e+06
-4.99714e+06
-4.99867e+06
-4.9993e+06
-5.00004e+06
-5.00686e+06
-5.00011e+06
-5.00284e+06
-4.99708e+06
-5.0028e+06
-4.99748e+06
-5.0009e+06
-4.99667e+06
-4.99772e+06
-5.00013e+06
-4.99671e+06
-4.99713e+06
-4.99863e+06
-4.99732e+06
-4.99795e+06
-4.99798e+06
-4.99666e+06
-4.99659e+06
-4.99646e+06
-4.99768e+06
-4.99761e+06
-4.99661e+06
-4.99666e+06
-4.99781e+06
-4.99827e+06
-4.9973e+06
-4.99719e+06
-4.99661e+06
-4.99661e+06
-4.99684e+06
-4.99838e+06
-4.9966e+06
-4.99681e+06
-4.99834e+06
-4.99915e+06
-4.99977e+06
-4.99976e+06
-5.00676e+06
-4.99698e+06
-5.00259e+06
-5.00256e+06
-4.99743e+06
-4.99665e+06
-5.00085e+06
-5.00002e+06
-4.99771e+06
-4.9974e+06
-4.99654e+06
-5.00079e+06
-4.99995e+06
-4.99767e+06
-5.00542e+06
-4.99818e+06
-5.00428e+06
-5.00055e+06
-5.00275e+06
-4.99961e+06
-5.00644e+06
-5.0054e+06
-4.9981e+06
-5.00044e+06
-5.0042e+06
-4.99956e+06
-5.00279e+06
-5.00634e+06
-5.00702e+06
-5.00231e+06
-5.00223e+06
-5.00893e+06
-5.00095e+06
-5.00801e+06
-5.00794e+06
-5.00442e+06
-4.9976e+06
-4.99949e+06
-4.99763e+06
-5.0016e+06
-4.99908e+06
-5.00163e+06
-5.00745e+06
-5.00249e+06
-5.00336e+06
-5.00908e+06
-5.00168e+06
-5.00815e+06
-5.00839e+06
-5.00601e+06
-4.99847e+06
-5.00119e+06
-5.00458e+06
-5.00027e+06
-5.00319e+06
-5.00685e+06
-4.99951e+06
-5.00054e+06
-5.00056e+06
-5.00711e+06
-4.99778e+06
-5.00298e+06
-5.00302e+06
-4.9969e+06
-4.99719e+06
-4.99878e+06
-4.99762e+06
-4.99683e+06
-5.00107e+06
-5.00027e+06
-4.99787e+06
-4.99761e+06
-4.99682e+06
-5.00107e+06
-5.00025e+06
-4.99786e+06
-4.99621e+06
-4.99631e+06
-4.99737e+06
-4.99741e+06
-4.9964e+06
-5.00525e+06
-4.99798e+06
-5.00408e+06
-5.00025e+06
-5.00261e+06
-4.99941e+06
-5.00618e+06
-5.00528e+06
-4.99798e+06
-5.00411e+06
-5.0003e+06
-5.00266e+06
-4.99942e+06
-5.00623e+06
-5.00684e+06
-5.00199e+06
-5.00205e+06
-5.00861e+06
-5.00076e+06
-5.00771e+06
-5.00775e+06
-5.00458e+06
-4.99952e+06
-4.99762e+06
-4.99765e+06
-5.00169e+06
-5.00169e+06
-4.99921e+06
-5.00617e+06
-4.99851e+06
-5.00459e+06
-5.00134e+06
-5.00321e+06
-5.00049e+06
-5.00697e+06
-5.00616e+06
-4.9985e+06
-5.00461e+06
-5.00132e+06
-5.00321e+06
-5.00044e+06
-5.00698e+06
-5.00781e+06
-5.00367e+06
-5.00367e+06
-5.00952e+06
-5.00229e+06
-5.00867e+06
-5.00867e+06
-4.99723e+06
-4.99662e+06
-4.99725e+06
-4.99661e+06
-4.99842e+06
-4.99843e+06
-4.99775e+06
-4.99625e+06
-4.99739e+06
-4.99735e+06
-4.99642e+06
-4.99612e+06
-5.00303e+06
-4.99666e+06
-4.99846e+06
-4.99666e+06
-5.00058e+06
-4.99814e+06
-5.00065e+06
-5.00683e+06
-5.00205e+06
-5.00861e+06
-5.00199e+06
-5.00772e+06
-5.00076e+06
-5.00771e+06
-5.00525e+06
-4.99791e+06
-5.00025e+06
-5.00407e+06
-4.99935e+06
-5.00262e+06
-5.00618e+06
-5.00614e+06
-5.00458e+06
-4.99845e+06
-5.00127e+06
-5.00317e+06
-5.00695e+06
-5.00044e+06
-5.00454e+06
-4.99761e+06
-4.99948e+06
-4.99761e+06
-5.00163e+06
-4.9992e+06
-5.00162e+06
-5.00779e+06
-5.00366e+06
-5.00951e+06
-5.00366e+06
-5.00866e+06
-5.00229e+06
-5.00866e+06
-5.00613e+06
-4.99845e+06
-5.00129e+06
-5.00457e+06
-5.00042e+06
-5.00315e+06
-5.00695e+06
-4.99842e+06
-4.99842e+06
-4.99777e+06
-4.99722e+06
-4.99661e+06
-4.99907e+06
-4.99967e+06
-4.99975e+06
-5.00672e+06
-4.99689e+06
-5.0025e+06
-5.00253e+06
-4.99654e+06
-4.99677e+06
-4.99832e+06
-4.99732e+06
-4.99647e+06
-5.00075e+06
-4.99992e+06
-4.99759e+06
-4.99735e+06
-4.99651e+06
-5.00076e+06
-4.99991e+06
-4.99761e+06
-5.00303e+06
-4.99851e+06
-4.99672e+06
-4.99671e+06
-5.00067e+06
-5.00065e+06
-4.99822e+06
-5.00533e+06
-5.00419e+06
-4.99808e+06
-5.00046e+06
-5.00269e+06
-5.00634e+06
-4.9995e+06
-5.00529e+06
-4.998e+06
-5.0041e+06
-5.00032e+06
-5.00265e+06
-4.99945e+06
-5.00624e+06
-5.00691e+06
-5.00225e+06
-5.0088e+06
-5.00214e+06
-5.0079e+06
-5.0009e+06
-5.00782e+06
-5.0057e+06
-5.00426e+06
-4.99824e+06
-5.00055e+06
-5.00291e+06
-5.00645e+06
-4.9998e+06
-5.00429e+06
-4.99937e+06
-4.99744e+06
-4.99748e+06
-5.00144e+06
-5.00151e+06
-4.99894e+06
-5.00734e+06
-5.00238e+06
-5.00896e+06
-5.00325e+06
-5.00804e+06
-5.00154e+06
-5.00828e+06
-5.00588e+06
-4.99834e+06
-5.00447e+06
-5.00113e+06
-5.00301e+06
-5.00017e+06
-5.00674e+06
-4.9968e+06
-4.99715e+06
-4.9987e+06
-4.99673e+06
-4.9971e+06
-4.99862e+06
-4.99753e+06
-4.99678e+06
-5.001e+06
-5.00017e+06
-4.99778e+06
-4.99749e+06
-4.99667e+06
-5.001e+06
-5.00014e+06
-4.99776e+06
-4.99648e+06
-4.99637e+06
-4.99761e+06
-4.99751e+06
-4.99656e+06
-4.99768e+06
-4.99812e+06
-4.99714e+06
-4.99704e+06
-4.99647e+06
-4.99649e+06
-4.99763e+06
-4.99772e+06
-4.99667e+06
-4.99652e+06
-4.99826e+06
-4.99781e+06
-4.99729e+06
-4.99718e+06
-4.99659e+06
-4.99656e+06
-4.99741e+06
-5.00084e+06
-4.99659e+06
-4.99769e+06
-4.99998e+06
-4.99736e+06
-5.00078e+06
-4.99642e+06
-4.99766e+06
-4.99992e+06
-4.99665e+06
-4.99687e+06
-4.99838e+06
-4.99657e+06
-4.99682e+06
-4.99834e+06
-4.99913e+06
-5.00674e+06
-4.99972e+06
-4.99975e+06
-5.00257e+06
-5.00254e+06
-4.9969e+06
-5.00701e+06
-5.00228e+06
-5.00893e+06
-5.00235e+06
-5.00794e+06
-5.001e+06
-5.00801e+06
-5.00311e+06
-4.9968e+06
-4.99683e+06
-4.99858e+06
-4.99833e+06
-5.00072e+06
-5.00075e+06
-5.00542e+06
-5.00054e+06
-4.99818e+06
-5.00429e+06
-4.9996e+06
-5.00644e+06
-5.00278e+06
-5.00599e+06
-5.00119e+06
-5.00458e+06
-4.99843e+06
-5.00685e+06
-5.00026e+06
-5.0031e+06
-5.00583e+06
-5.00063e+06
-4.99836e+06
-5.00436e+06
-4.9999e+06
-5.00655e+06
-5.00305e+06
-5.0044e+06
-4.99757e+06
-4.99756e+06
-4.99947e+06
-4.99903e+06
-5.00161e+06
-5.00158e+06
-4.99761e+06
-5.00108e+06
-4.99684e+06
-4.99787e+06
-5.00025e+06
-4.99686e+06
-4.99716e+06
-4.99874e+06
-4.99947e+06
-5.00707e+06
-5.00053e+06
-5.00051e+06
-5.00297e+06
-5.00295e+06
-4.99777e+06
-4.99683e+06
-4.99715e+06
-4.99875e+06
-4.99629e+06
-4.99742e+06
-4.9974e+06
-4.99642e+06
-4.99626e+06
-5.00686e+06
-5.00207e+06
-5.00862e+06
-5.00203e+06
-5.00776e+06
-5.00082e+06
-5.00773e+06
-5.003e+06
-4.99666e+06
-4.99852e+06
-4.99674e+06
-5.00065e+06
-4.99819e+06
-5.00068e+06
-5.00529e+06
-5.00025e+06
-4.99802e+06
-5.0041e+06
-4.99943e+06
-5.0062e+06
-5.00268e+06
-5.00615e+06
-5.00461e+06
-5.00135e+06
-4.99853e+06
-5.00698e+06
-5.00321e+06
-5.0005e+06
-5.00781e+06
-5.00369e+06
-5.00952e+06
-5.00367e+06
-5.00867e+06
-5.00233e+06
-5.00866e+06
-5.00456e+06
-4.99764e+06
-4.99947e+06
-4.99761e+06
-5.00169e+06
-4.99923e+06
-5.00165e+06
-5.00614e+06
-5.0013e+06
-4.99845e+06
-5.00457e+06
-5.00046e+06
-5.00695e+06
-5.00316e+06
-4.99844e+06
-4.99841e+06
-4.99777e+06
-4.99722e+06
-4.99664e+06
-4.99735e+06
-4.99736e+06
-4.99637e+06
-4.99615e+06
-4.99627e+06
-5.00522e+06
-5.00021e+06
-5.00405e+06
-4.99794e+06
-5.00617e+06
-4.99935e+06
-5.00257e+06
-5.00524e+06
-5.00026e+06
-5.00407e+06
-4.99795e+06
-5.00618e+06
-4.99936e+06
-5.00268e+06
-5.00292e+06
-4.99662e+06
-4.9967e+06
-4.99846e+06
-4.9981e+06
-5.00057e+06
-5.00064e+06
-5.0078e+06
-5.00951e+06
-5.00367e+06
-5.00366e+06
-5.00866e+06
-5.00866e+06
-5.00229e+06
-5.00614e+06
-5.00132e+06
-5.00457e+06
-4.99845e+06
-5.00696e+06
-5.00044e+06
-5.00313e+06
-5.00613e+06
-5.00132e+06
-5.00458e+06
-4.99848e+06
-5.00696e+06
-5.00047e+06
-5.00314e+06
-5.00455e+06
-4.99758e+06
-4.99759e+06
-4.99948e+06
-4.99919e+06
-5.00164e+06
-5.00162e+06
-4.99723e+06
-4.99664e+06
-4.99722e+06
-4.99663e+06
-4.99731e+06
-5.00076e+06
-4.99654e+06
-4.9976e+06
-4.99994e+06
-4.9965e+06
-4.99672e+06
-4.99822e+06
-4.99904e+06
-5.00667e+06
-4.99964e+06
-4.99969e+06
-5.00246e+06
-5.0025e+06
-4.99684e+06
-4.9965e+06
-4.99679e+06
-4.99829e+06
-5.00532e+06
-5.0041e+06
-5.0003e+06
-4.998e+06
-5.00625e+06
-5.00269e+06
-4.99944e+06
-5.00691e+06
-5.00879e+06
-5.00212e+06
-5.00218e+06
-5.00782e+06
-5.00787e+06
-5.00083e+06
-5.00305e+06
-4.99672e+06
-4.99851e+06
-4.9967e+06
-5.00068e+06
-4.99825e+06
-5.00063e+06
-5.00531e+06
-5.0004e+06
-5.00418e+06
-4.99802e+06
-5.00631e+06
-4.99945e+06
-5.00263e+06
-5.00732e+06
-5.00894e+06
-5.00322e+06
-5.00231e+06
-5.00826e+06
-5.00801e+06
-5.00149e+06
-5.00588e+06
-5.00446e+06
-5.0011e+06
-4.99834e+06
-5.00673e+06
-5.00305e+06
-5.00016e+06
-5.00569e+06
-5.00049e+06
-5.00424e+06
-4.99824e+06
-5.00641e+06
-4.99974e+06
-5.00291e+06
-5.0043e+06
-4.99749e+06
-4.99937e+06
-4.99745e+06
-5.00151e+06
-4.99895e+06
-5.00146e+06
-4.99753e+06
-5.00101e+06
-4.99676e+06
-4.99779e+06
-5.00016e+06
-4.99751e+06
-5.00098e+06
-4.99671e+06
-4.99776e+06
-5.00015e+06
-4.9994e+06
-5.00704e+06
-5.00049e+06
-5.00044e+06
-5.00296e+06
-5.00287e+06
-4.99771e+06
-4.99679e+06
-4.99713e+06
-4.9987e+06
-4.99674e+06
-4.99706e+06
-4.99863e+06
-4.99747e+06
-4.99755e+06
-4.99649e+06
-4.99643e+06
-4.99703e+06
-4.99646e+06
-4.99645e+06
-4.99705e+06
-4.99708e+06
-4.99718e+06
-4.99748e+06
-4.99668e+06
-5.00094e+06
-5.00006e+06
-4.99778e+06
-4.99918e+06
-4.99976e+06
-5.00679e+06
-4.99987e+06
-5.00258e+06
-4.99696e+06
-5.00272e+06
-4.9967e+06
-4.99705e+06
-4.99858e+06
-5.00095e+06
-4.9966e+06
-4.99747e+06
-4.99776e+06
-5.00009e+06
-4.99688e+06
-4.99721e+06
-4.99876e+06
-5.00692e+06
-5.00007e+06
-5.00284e+06
-4.99938e+06
-5.00018e+06
-5.00293e+06
-4.99718e+06
-4.99676e+06
-5.00098e+06
-5.00019e+06
-4.99754e+06
-4.99779e+06
-4.99716e+06
-4.9987e+06
-4.99677e+06
-4.99734e+06
-4.99799e+06
-4.99803e+06
-4.99671e+06
-4.99915e+06
-4.99976e+06
-5.00677e+06
-4.99988e+06
-5.00256e+06
-4.99698e+06
-5.00266e+06
-4.99736e+06
-4.99651e+06
-5.00076e+06
-4.99994e+06
-4.99762e+06
-4.99662e+06
-4.997e+06
-4.9985e+06
-4.99661e+06
-4.99739e+06
-5.00083e+06
-5.00002e+06
-4.99765e+06
-4.99737e+06
-4.99733e+06
-4.99876e+06
-5.00409e+06
-4.99926e+06
-5.00135e+06
-5.00134e+06
-5.00059e+06
-5.00434e+06
-4.99822e+06
-5.00652e+06
-4.99966e+06
-5.0056e+06
-5.00287e+06
-4.99815e+06
-5.00042e+06
-4.9996e+06
-5.00554e+06
-5.0042e+06
-5.00282e+06
-5.00635e+06
-4.99676e+06
-4.99716e+06
-4.99871e+06
-4.99753e+06
-4.99676e+06
-5.00103e+06
-5.00022e+06
-4.99781e+06
-4.99717e+06
-4.99868e+06
-4.99678e+06
-4.99674e+06
-5.001e+06
-5.00017e+06
-4.99754e+06
-4.9978e+06
-4.9965e+06
-4.99675e+06
-4.99828e+06
-4.99909e+06
-5.00672e+06
-4.99968e+06
-4.99978e+06
-5.00249e+06
-5.00262e+06
-4.99687e+06
-4.99659e+06
-4.99737e+06
-5.0008e+06
-4.99764e+06
-4.99999e+06
-4.99657e+06
-4.99693e+06
-4.99849e+06
-5.00039e+06
-4.99814e+06
-4.99961e+06
-5.0055e+06
-5.00416e+06
-5.00632e+06
-5.00278e+06
-4.99732e+06
-4.99735e+06
-4.99876e+06
-5.00407e+06
-4.99922e+06
-5.00132e+06
-5.00133e+06
-5.00055e+06
-5.00428e+06
-4.99815e+06
-5.00647e+06
-4.99961e+06
-5.00555e+06
-5.00283e+06
-4.99755e+06
-5.00106e+06
-4.9968e+06
-5.00022e+06
-4.99781e+06
-5.00691e+06
-5.00001e+06
-5.0028e+06
-4.99935e+06
-5.00012e+06
-5.00289e+06
-4.99718e+06
-4.99678e+06
-4.99718e+06
-4.99872e+06
-4.99675e+06
-5.00098e+06
-5.00016e+06
-4.99753e+06
-4.99779e+06
-4.99713e+06
-4.99866e+06
-4.99676e+06
-4.99699e+06
-4.99695e+06
-4.9971e+06
-4.99659e+06
-4.99678e+06
-4.99833e+06
-4.9974e+06
-5.00083e+06
-4.99652e+06
-4.99992e+06
-4.99771e+06
-4.99663e+06
-4.997e+06
-4.99854e+06
-5.00087e+06
-4.99662e+06
-4.99744e+06
-5.00004e+06
-4.99772e+06
-5.00685e+06
-5.00002e+06
-5.00282e+06
-4.99932e+06
-5.00012e+06
-5.00282e+06
-4.99712e+06
-4.9975e+06
-5.00087e+06
-4.99669e+06
-5.00009e+06
-4.99774e+06
-4.99676e+06
-4.99713e+06
-4.99864e+06
-4.9967e+06
-5.00091e+06
-5.00012e+06
-4.9975e+06
-4.99775e+06
-4.99716e+06
-4.99865e+06
-4.99678e+06
-5.00349e+06
-5.00328e+06
-5.00919e+06
-5.00211e+06
-5.0085e+06
-5.00763e+06
-5.00833e+06
-5.01836e+06
-5.0183e+06
-5.02154e+06
-5.01829e+06
-5.02153e+06
-5.02146e+06
-5.02469e+06
-5.0152e+06
-5.0216e+06
-5.01848e+06
-5.0216e+06
-5.0185e+06
-5.02475e+06
-5.02167e+06
-5.02152e+06
-5.01498e+06
-5.01831e+06
-5.02145e+06
-5.02468e+06
-5.01825e+06
-5.02148e+06
-5.01847e+06
-5.01838e+06
-5.01515e+06
-5.02474e+06
-5.02165e+06
-5.02156e+06
-5.01846e+06
-5.00827e+06
-5.00981e+06
-5.00288e+06
-5.0098e+06
-5.00592e+06
-5.01204e+06
-5.00591e+06
-5.02153e+06
-5.02146e+06
-5.02469e+06
-5.01501e+06
-5.01834e+06
-5.01828e+06
-5.02152e+06
-5.01849e+06
-5.02475e+06
-5.02166e+06
-5.01842e+06
-5.01518e+06
-5.02159e+06
-5.01847e+06
-5.02468e+06
-5.01824e+06
-5.02149e+06
-5.01827e+06
-5.02151e+06
-5.01497e+06
-5.01831e+06
-5.02166e+06
-5.02156e+06
-5.01846e+06
-5.02158e+06
-5.01846e+06
-5.01838e+06
-5.01515e+06
-5.00095e+06
-5.00584e+06
-5.00581e+06
-5.00876e+06
-5.00142e+06
-5.00508e+06
-5.00504e+06
-5.00871e+06
-5.00582e+06
-5.00502e+06
-5.00094e+06
-5.00585e+06
-5.00505e+06
-5.00146e+06
-5.00864e+06
-5.00575e+06
-5.00498e+06
-5.0009e+06
-5.00573e+06
-5.00497e+06
-5.0014e+06
-5.00331e+06
-5.00352e+06
-5.00219e+06
-5.00769e+06
-5.0092e+06
-5.00838e+06
-5.00852e+06
-5.0033e+06
-5.00349e+06
-5.00214e+06
-5.00764e+06
-5.00917e+06
-5.00834e+06
-5.00848e+06
-5.00348e+06
-5.0033e+06
-5.00215e+06
-5.00762e+06
-5.00917e+06
-5.00847e+06
-5.00832e+06
-5.00578e+06
-5.0009e+06
-5.00577e+06
-5.00862e+06
-5.00144e+06
-5.00497e+06
-5.00491e+06
-5.00582e+06
-5.00872e+06
-5.00506e+06
-5.00098e+06
-5.00581e+06
-5.00145e+06
-5.00506e+06
-5.00079e+06
-5.00567e+06
-5.00854e+06
-5.00563e+06
-5.00489e+06
-5.00128e+06
-5.00482e+06
-5.00239e+06
-5.00224e+06
-5.00898e+06
-5.00103e+06
-5.00811e+06
-5.00714e+06
-5.00799e+06
-5.00587e+06
-5.00875e+06
-5.00506e+06
-5.00097e+06
-5.00587e+06
-5.0015e+06
-5.00509e+06
-5.00075e+06
-5.00566e+06
-5.00562e+06
-5.00852e+06
-5.00127e+06
-5.00486e+06
-5.00479e+06
-5.00587e+06
-5.00098e+06
-5.00587e+06
-5.00874e+06
-5.00149e+06
-5.00507e+06
-5.00507e+06
-5.0008e+06
-5.00572e+06
-5.00854e+06
-5.00569e+06
-5.00488e+06
-5.00135e+06
-5.00483e+06
-5.00091e+06
-5.00576e+06
-5.00864e+06
-5.00573e+06
-5.005e+06
-5.00139e+06
-5.00496e+06
-5.0008e+06
-5.00854e+06
-5.00568e+06
-5.00565e+06
-5.00486e+06
-5.00483e+06
-5.00132e+06
-5.00834e+06
-5.003e+06
-5.00989e+06
-5.00986e+06
-5.006e+06
-5.006e+06
-5.01211e+06
-5.00104e+06
-5.00883e+06
-5.0059e+06
-5.0059e+06
-5.00514e+06
-5.00515e+06
-5.00153e+06
-5.00827e+06
-5.00296e+06
-5.00985e+06
-5.00984e+06
-5.00594e+06
-5.00595e+06
-5.01206e+06
-5.00827e+06
-5.00983e+06
-5.0029e+06
-5.00981e+06
-5.00592e+06
-5.01204e+06
-5.00592e+06
-5.00075e+06
-5.00849e+06
-5.00561e+06
-5.00561e+06
-5.00479e+06
-5.00479e+06
-5.00127e+06
-5.00093e+06
-5.00875e+06
-5.00583e+06
-5.00581e+06
-5.00507e+06
-5.00503e+06
-5.00141e+06
-5.00077e+06
-5.00567e+06
-5.00564e+06
-5.00851e+06
-5.00129e+06
-5.00483e+06
-5.0048e+06
-5.00833e+06
-5.00983e+06
-5.00294e+06
-5.00986e+06
-5.00597e+06
-5.01209e+06
-5.00598e+06
-5.00105e+06
-5.00591e+06
-5.0059e+06
-5.00881e+06
-5.00154e+06
-5.00514e+06
-5.00512e+06
-5.00827e+06
-5.00982e+06
-5.0029e+06
-5.00983e+06
-5.00592e+06
-5.01205e+06
-5.00594e+06
-5.00821e+06
-5.00976e+06
-5.00979e+06
-5.00289e+06
-5.012e+06
-5.00587e+06
-5.00589e+06
-5.00069e+06
-5.00558e+06
-5.0056e+06
-5.00845e+06
-5.00123e+06
-5.00474e+06
-5.00476e+06
-5.00827e+06
-5.00978e+06
-5.00982e+06
-5.00288e+06
-5.01204e+06
-5.00591e+06
-5.00592e+06
-5.00575e+06
-5.00087e+06
-5.00576e+06
-5.00859e+06
-5.00489e+06
-5.00142e+06
-5.00493e+06
-5.00869e+06
-5.00578e+06
-5.00501e+06
-5.00096e+06
-5.0058e+06
-5.00505e+06
-5.00143e+06
-5.00077e+06
-5.00853e+06
-5.00562e+06
-5.00564e+06
-5.00481e+06
-5.00486e+06
-5.00127e+06
-5.0024e+06
-5.00895e+06
-5.00224e+06
-5.00809e+06
-5.001e+06
-5.00709e+06
-5.00794e+06
-5.00873e+06
-5.00583e+06
-5.00505e+06
-5.001e+06
-5.00586e+06
-5.00508e+06
-5.0015e+06
-5.00074e+06
-5.0056e+06
-5.0085e+06
-5.00563e+06
-5.00477e+06
-5.00126e+06
-5.00483e+06
-5.00237e+06
-5.00894e+06
-5.00217e+06
-5.00804e+06
-5.00093e+06
-5.00704e+06
-5.00791e+06
-5.00571e+06
-5.00081e+06
-5.00855e+06
-5.00569e+06
-5.00483e+06
-5.00489e+06
-5.00137e+06
)
;

boundaryField
{
    sphere_to_oil
    {
        type            calculated;
        value           nonuniform List<scalar> 
1536
(
-4.9958e+06
-4.99561e+06
-4.99552e+06
-4.99567e+06
-4.99559e+06
-4.99581e+06
-4.99559e+06
-4.99578e+06
-4.99563e+06
-4.99579e+06
-4.99544e+06
-4.99565e+06
-4.9959e+06
-4.99575e+06
-4.99549e+06
-4.99582e+06
-4.99538e+06
-4.99516e+06
-4.99565e+06
-4.9959e+06
-4.99577e+06
-4.99565e+06
-4.99554e+06
-4.99566e+06
-4.99566e+06
-4.99566e+06
-4.99563e+06
-4.99565e+06
-4.99557e+06
-4.99584e+06
-4.99572e+06
-4.99566e+06
-4.99563e+06
-4.99587e+06
-4.9957e+06
-4.99568e+06
-4.9957e+06
-4.99571e+06
-4.99562e+06
-4.99588e+06
-4.99575e+06
-4.99571e+06
-4.99562e+06
-4.99562e+06
-4.99571e+06
-4.99564e+06
-4.99569e+06
-4.99567e+06
-4.9957e+06
-4.99571e+06
-4.99565e+06
-4.99571e+06
-4.99572e+06
-4.99562e+06
-4.99588e+06
-4.99579e+06
-4.99586e+06
-4.99571e+06
-4.99579e+06
-4.99561e+06
-4.99592e+06
-4.9958e+06
-4.99557e+06
-4.99529e+06
-4.99556e+06
-4.99528e+06
-4.99567e+06
-4.99559e+06
-4.9958e+06
-4.99581e+06
-4.99562e+06
-4.9959e+06
-4.99577e+06
-4.9956e+06
-4.99532e+06
-4.99562e+06
-4.99549e+06
-4.99558e+06
-4.99575e+06
-4.99551e+06
-4.99559e+06
-4.99566e+06
-4.99556e+06
-4.99585e+06
-4.99567e+06
-4.99568e+06
-4.99589e+06
-4.99578e+06
-4.99569e+06
-4.99551e+06
-4.99574e+06
-4.99561e+06
-4.99576e+06
-4.99558e+06
-4.99576e+06
-4.99581e+06
-4.9958e+06
-4.99567e+06
-4.99559e+06
-4.99549e+06
-4.99576e+06
-4.99563e+06
-4.9959e+06
-4.99585e+06
-4.99608e+06
-4.99579e+06
-4.9959e+06
-4.9958e+06
-4.99588e+06
-4.99572e+06
-4.99548e+06
-4.99544e+06
-4.99551e+06
-4.99598e+06
-4.99576e+06
-4.99571e+06
-4.99571e+06
-4.99579e+06
-4.99583e+06
-4.99545e+06
-4.99538e+06
-4.99572e+06
-4.99586e+06
-4.996e+06
-4.99579e+06
-4.99574e+06
-4.99583e+06
-4.99541e+06
-4.99514e+06
-4.99562e+06
-4.99543e+06
-4.99562e+06
-4.99553e+06
-4.99566e+06
-4.99571e+06
-4.99566e+06
-4.99591e+06
-4.99562e+06
-4.99588e+06
-4.99576e+06
-4.99573e+06
-4.99549e+06
-4.99562e+06
-4.99565e+06
-4.99575e+06
-4.9958e+06
-4.99578e+06
-4.99563e+06
-4.99545e+06
-4.99531e+06
-4.99569e+06
-4.99577e+06
-4.99575e+06
-4.99595e+06
-4.99574e+06
-4.99585e+06
-4.99591e+06
-4.99576e+06
-4.99548e+06
-4.99548e+06
-4.99578e+06
-4.99578e+06
-4.99598e+06
-4.99581e+06
-4.9957e+06
-4.99583e+06
-4.99544e+06
-4.99539e+06
-4.99547e+06
-4.99574e+06
-4.99571e+06
-4.9959e+06
-4.99575e+06
-4.99577e+06
-4.99567e+06
-4.99546e+06
-4.99552e+06
-4.99559e+06
-4.99563e+06
-4.99563e+06
-4.99565e+06
-4.99588e+06
-4.99567e+06
-4.99588e+06
-4.99577e+06
-4.99576e+06
-4.99561e+06
-4.99563e+06
-4.99578e+06
-4.99556e+06
-4.99563e+06
-4.99539e+06
-4.99581e+06
-4.99567e+06
-4.99559e+06
-4.99539e+06
-4.99571e+06
-4.99558e+06
-4.9958e+06
-4.99559e+06
-4.99554e+06
-4.99561e+06
-4.99556e+06
-4.99581e+06
-4.99565e+06
-4.99588e+06
-4.99574e+06
-4.9957e+06
-4.99555e+06
-4.99555e+06
-4.99577e+06
-4.9954e+06
-4.99552e+06
-4.99562e+06
-4.99584e+06
-4.99569e+06
-4.99585e+06
-4.99572e+06
-4.99574e+06
-4.99562e+06
-4.99577e+06
-4.99567e+06
-4.99585e+06
-4.99575e+06
-4.9958e+06
-4.99569e+06
-4.99548e+06
-4.99576e+06
-4.99576e+06
-4.99548e+06
-4.99505e+06
-4.99518e+06
-4.99503e+06
-4.99568e+06
-4.99531e+06
-4.99567e+06
-4.99581e+06
-4.99546e+06
-4.99509e+06
-4.99555e+06
-4.99583e+06
-4.99512e+06
-4.99583e+06
-4.99543e+06
-4.99548e+06
-4.99581e+06
-4.99525e+06
-4.99578e+06
-4.99524e+06
-4.99569e+06
-4.99587e+06
-4.99581e+06
-4.99543e+06
-4.99527e+06
-4.99538e+06