/*--------------------------------*- C++ -*----------------------------------*\
| =========                 |                                                 |
| \\      /  F ield         | OpenFOAM: The Open Source CFD Toolbox           |
|  \\    /   O peration     | Version:  v1912                                 |
|   \\  /    A nd           | Website:  www.openfoam.com                      |
|    \\/     M anipulation  |                                                 |
\*---------------------------------------------------------------------------*/
FoamFile
{
    version     2.0;
    format      ascii;
    class       volScalarField;
    location    "5/oil";
    object      heatTransferCoeff(T);
}
// * * * * * * * * * * * * * * * * * * * * * * * * * * * * * * * * * * * * * //

dimensions      [1 0 -3 -1 0 0 0];


internalField   uniform 0;

boundaryField
{
    maxY
    {
        type            calculated;
        value           uniform 0;
    }
    minX
    {
        type            calculated;
        value           uniform 0;
    }
    maxX
    {
        type            calculated;
        value           uniform 0;
    }
    minY
    {
        type            calculated;
        value           uniform 0;
    }
    minZ
    {
        type            calculated;
        value           uniform 0;
    }
    maxZ
    {
        type            calculated;
        value           uniform 0;
    }
    oil_to_sphere
    {
        type            calculated;
        value           nonuniform List<scalar> 
360
(
-69.456
-69.8455
-47.0281
-122.66
-130.842
-54.556
-134.374
-121.263
-130.553
-68.2028
-68.5676
-54.4873
-60.3187
-42.2682
-66.7657
-115.716
-132.096
-122.397
-128.05
-42.0423
-106.48
-68.2698
-59.9574
-126.921
-47.1538
-131.676
-54.456
-129.676
-128.713
-121.7
-138.329
-135.099
-47.1918
-46.6721
-53.9541
-54.187
-126.789
-125.873
-122.468
-124.38
-127.717
-46.8802
-53.7811
-71.2469
-71.4117
-54.3277
-60.0947
-41.9525
-68.4258
-120.761
-54.7223
-54.5098
-59.7758
-60.0456
-41.7355
-68.5726
-122.764
-42.0731
-54.0486
-60.1171
-42.1643
-129.466
-122.952
-128.337
-41.957
-111.367
-69.0082
-57.7456
-134.611
-127.942
-123.271
-126.295
-125.859
-41.827
-94.9564
-66.362
-42.3907
-57.4821
-126.176
-129.724
-58.9051
-57.7809
-58.0411
-42.1906
-46.842
-54.1529
-54.3027
-60.1841
-42.1337
-42.3792
-46.9738
-60.1584
-54.3673
-46.9507
-59.9028
-54.2366
-54.2304
-54.1618
-46.7172
-42.6817
-42.692
-42.0569
-54.5912
-54.6686
-60.2962
-42.059
-42.4319
-60.4298
-46.8359
-54.2647
-54.4267
-54.2033
-46.7648
-41.8567
-42.8251
-42.7759
-59.5889
-58.9696
-59.1441
-70.7695
-70.8863
-118.45
-126.201
-114.087
-127.212
-118.617
-127.39
-129.029
-119.929
-125.334
-123.211
-59.1489
-58.5437
-58.9382
-42.704
-117.962
-128.456
-69.176
-69.3408
-129.713
-119.838
-67.5842
-66.579
-131.508
-120.619
-139.008
-42.6804
-42.5793
-126.48
-129.589
-138.25
-131.406
-131.46
-137.08
-138.158
-119.642
-66.2597
-130.631
-123.859
-42.2508
-129.149
-132.445
-57.6669
-56.8404
-59.0226
-67.5841
-68.3718
-131.155
-120.659
-136.439
-41.7682
-122.209
-68.695
-129.565
-123.738
-41.7785
-133.551
-58.5509
-58.3368
-42.5641
-54.3625
-54.5552
-60.3556
-47.037
-60.0593
-54.3341
-42.0589
-42.6292
-128.766
-120.726
-129.56
-124.602
-70.7899
-70.8394
-126.539
-115.736
-124.435
-69.3989
-69.8191
-42.6223
-54.1732
-54.8279
-60.3185
-54.4851
-54.2577
-60.5036
-46.8077
-59.9486
-53.8732
-46.44
-119.319
-60.3657
-53.9493
-42.1257
-125.741
-119.061
-125.722
-70.1127
-70.1141
-41.7661
-54.112
-54.1842
-60.1004
-129.016
-46.4698
-59.8254
-54.0198
-121.339
-122.496
-69.738
-41.9557
-69.1994
-42.0588
-42.8276
-60.0121
-47.0304
-54.3761
-54.2664
-54.5621
-46.9173
-42.2967
-122.981
-115.396
-129.496
-135.745
-121.525
-114.892
-131.626
-133.018
-69.2593
-124.586
-42.748
-131.407
-129.515
-130.14
-59.7957
-47.0696
-54.5252
-60.0758
-47.3221
-130.008
-54.1875
-53.8118
-54.4295
-46.6958
-131.023
-120.467
-53.9002
-54.0827
-46.6968
-121.051
-136.79
-68.3409
-123.54
-42.1892
-128.582
-126.566
-129.806
-60.4355
-46.6332
-127.789
-53.9884
-54.0256
-53.8966
-126.89
-46.8376
-124.846
-69.4491
-115.291
-69.7919
-121.755
-123.835
-126.426
-42.0622
-57.1354
-56.5157
-57.0583
-71.2276
-127.107
-71.0345
-123.082
-126.745
-42.4735
-128.637
-130.433
-68.8756
-124.968
-42.6292
-137.433
-58.3822
-58.0484
-41.6524
-123.071
-69.218
-109.407
-123.522
-69.1534
-42.0804
-54.1391
-54.2677
-60.2777
-127.618
-118.394
-68.0777
-42.6614
-119.175
-69.1446
-42.3128
-119.437
-129.378
-67.2322
-124.853
-41.5268
-134.862
-60.5048
-132.753
-46.7189
-54.2258
-133.188
-124.638
-122.249
-68.0482
-129.781
-128.584
-68.5892
-123.027
-57.1485
-58.7001
-120.941
-68.8383
-41.9399
-120.679
-68.9982
-42.2655
-124.75
-125.369
-118.646
-69.4087
-122.53
-69.5719
)
;
    }
}


// ************************************************************************* //
