/*--------------------------------*- C++ -*----------------------------------*\
| =========                 |                                                 |
| \\      /  F ield         | OpenFOAM: The Open Source CFD Toolbox           |
|  \\    /   O peration     | Version:  v1906                                 |
|   \\  /    A nd           | Web:      www.OpenFOAM.com                      |
|    \\/     M anipulation  |                                                 |
\*---------------------------------------------------------------------------*/
FoamFile
{
    version     2.0;
    format      ascii;
    class       volScalarField;
    location    "19";
    object      T;
}
// * * * * * * * * * * * * * * * * * * * * * * * * * * * * * * * * * * * * * //

dimensions      [0 0 0 1 0 0 0];


internalField   nonuniform List<scalar> 
78750
(
298.529
297.391
297.412
297.415
297.42
297.426
297.433
297.441
297.45
297.458
297.467
297.475
297.484
297.492
297.5
297.507
297.514
297.52
297.525
297.529
297.532
297.533
297.534
297.533
297.531
297.527
297.522
297.515
297.507
297.497
297.494
297.526
297.666
298.037
298.724
299.22
298.175
297.717
297.55
297.495
297.484
297.49
297.5
297.513
297.526
297.539
297.553
297.567
297.581
297.594
297.607
297.618
297.628
297.636
297.641
297.645
297.647
297.647
297.645
297.64
297.634
297.626
297.617
297.607
297.6
297.605
297.653
297.808
298.151
298.782
299.373
298.439
297.894
297.613
297.509
297.495
297.511
297.53
297.547
297.563
297.579
297.596
297.614
297.632
297.65
297.668
297.684
297.698
297.71
297.718
297.724
297.727
297.727
297.725
297.719
297.71
297.699
297.687
297.678
297.679
297.713
297.818
298.043
298.433
299.084
299.449
298.616
298.162
297.885
297.702
297.594
297.537
297.51
297.499
297.498
297.505
297.521
297.547
297.581
297.62
297.659
297.693
297.721
297.743
297.759
297.771
297.78
297.785
297.787
297.784
297.777
297.767
297.754
297.745
297.752
297.8
297.93
298.187
298.591
299.229
299.56
298.812
298.387
298.114
297.903
297.747
297.638
297.564
297.517
297.493
297.491
297.51
297.547
297.596
297.649
297.699
297.741
297.775
297.799
297.817
297.83
297.838
297.844
297.845
297.841
297.832
297.817
297.799
297.785
297.792
297.853
298.018
298.317
298.77
299.454
299.631
298.973
298.573
298.308
298.087
297.902
297.761
297.662
297.598
297.563
297.557
297.579
297.62
297.672
297.724
297.77
297.807
297.836
297.857
297.872
297.883
297.89
297.895
297.896
297.893
297.885
297.87
297.85
297.829
297.821
297.853
297.984
298.267
298.709
299.373
299.676
299.095
298.713
298.459
298.258
298.082
297.925
297.798
297.72
297.693
297.706
297.742
297.787
297.83
297.865
297.891
297.911
297.924
297.934
297.942
297.947
297.95
297.952
297.95
297.942
297.927
297.903
297.873
297.846
297.839
297.888
298.045
298.334
298.783
299.487
299.669
299.083
298.691
298.418
298.188
297.995
297.862
297.796
297.784
297.804
297.836
297.868
297.893
297.912
297.927
297.94
297.951
297.961
297.971
297.979
297.986
297.992
297.995
297.995
297.986
297.966
297.935
297.902
297.888
297.917
298.021
298.227
298.505
298.921
299.653
299.676
299.092
298.676
298.368
298.113
297.936
297.848
297.826
297.84
297.865
297.891
297.916
297.938
297.957
297.973
297.987
297.999
298.01
298.019
298.028
298.037
298.046
298.054
298.061
298.063
298.055
298.036
298.016
298.02
298.076
298.212
298.431
298.71
299.138
299.887
299.665
299.055
298.621
298.295
298.046
297.911
297.865
297.868
297.888
297.913
297.937
297.958
297.976
297.992
298.005
298.017
298.027
298.037
298.047
298.058
298.068
298.08
298.093
298.109
298.125
298.14
298.149
298.157
298.184
298.26
298.41
298.631
298.919
299.369
300.131
299.665
299.046
298.608
298.281
298.044
297.929
297.897
297.904
297.923
297.947
297.97
297.992
298.01
298.026
298.04
298.051
298.061
298.071
298.081
298.091
298.102
298.115
298.13
298.149
298.173
298.202
298.234
298.27
298.319
298.406
298.566
298.804
299.117
299.597
300.37
299.679
299.078
298.671
298.366
298.127
298
297.95
297.941
297.951
297.969
297.991
298.013
298.033
298.049
298.063
298.075
298.085
298.095
298.104
298.114
298.126
298.138
298.154
298.174
298.201
298.238
298.287
298.349
298.425
298.53
298.696
298.954
299.293
299.791
300.571
299.698
299.126
298.743
298.458
298.221
298.077
298.009
297.989
297.994
298.011
298.032
298.054
298.072
298.086
298.097
298.107
298.116
298.125
298.134
298.144
298.154
298.166
298.18
298.198
298.223
298.259
298.314
298.394
298.504
298.647
298.84
299.117
299.479
299.997
300.782
299.742
299.244
298.875
298.611
298.397
298.237
298.141
298.093
298.077
298.079
298.09
298.101
298.111
298.119
298.126
298.134
298.142
298.15
298.159
298.169
298.18
298.192
298.206
298.221
298.242
298.271
298.316
298.391
298.512
298.692
298.937
299.261
299.667
300.218
301.003
299.778
299.348
299.006
298.768
298.579
298.422
298.312
298.244
298.207
298.187
298.175
298.166
298.161
298.16
298.162
298.167
298.174
298.182
298.191
298.202
298.213
298.225
298.239
298.256
298.275
298.301
298.337
298.396
298.499
298.674
298.946
299.322
299.787
300.374
301.156
299.797
299.407
299.098
298.884
298.717
298.571
298.454
298.366
298.3
298.251
298.216
298.195
298.186
298.185
298.189
298.196
298.204
298.213
298.223
298.234
298.246
298.259
298.275
298.293
298.314
298.341
298.377
298.431
298.519
298.675
298.938
299.332
299.83
300.434
301.205
299.806
299.437
299.147
298.944
298.778
298.622
298.487
298.379
298.3
298.251
298.225
298.215
298.215
298.218
298.224
298.231
298.238
298.246
298.255
298.266
298.279
298.294
298.311
298.332
298.357
298.387
298.426
298.478
298.557
298.692
298.925
299.297
299.788
300.388
301.153
299.807
299.44
299.154
298.94
298.752
298.58
298.441
298.345
298.288
298.26
298.249
298.247
298.249
298.252
298.256
298.261
298.268
298.276
298.286
298.298
298.313
298.331
298.352
298.378
298.41
298.449
298.498
298.561
298.648
298.783
299.004
299.351
299.81
300.389
301.16
299.806
299.437
299.152
298.926
298.719
298.546
298.423
298.349
298.31
298.293
298.285
298.283
298.282
298.283
298.285
298.289
298.294
298.302
298.312
298.325
298.342
298.362
298.387
298.418
298.457
298.506
298.567
298.644
298.746
298.892
299.117
299.456
299.89
300.452
301.236
299.801
299.423
299.142
298.913
298.699
298.535
298.43
298.372
298.342
298.327
298.32
298.315
298.312
298.311
298.311
298.314
298.319
298.327
298.339
298.353
298.372
298.396
298.427
298.465
298.514
298.577
298.655
298.752
298.874
299.04
299.28
299.623
300.039
300.586
301.386
299.799
299.417
299.142
298.918
298.711
298.56
298.467
298.415
298.387
298.37
298.358
298.35
298.343
298.339
298.337
298.338
298.342
298.349
298.361
298.376
298.396
298.423
298.457
298.502
298.561
298.638
298.736
298.858
299.009
299.203
299.465
299.817
300.225
300.767
301.581
299.804
299.43
299.163
298.952
298.758
298.615
298.525
298.472
298.439
298.417
298.399
298.385
298.374
298.367
298.362
298.362
298.365
298.372
298.383
298.399
298.42
298.448
298.485
298.534
298.599
298.687
298.801
298.946
299.125
299.349
299.636
300.002
300.415
300.965
301.787
299.821
299.475
299.219
299.022
298.848
298.71
298.615
298.551
298.507
298.474
298.447
298.425
298.408
298.396
298.389
298.386
298.388
298.395
298.407
298.423
298.445
298.473
298.511
298.563
298.634
298.729
298.857
299.021
299.226
299.478
299.793
300.176
300.603
301.165
301.992
299.839
299.524
299.277
299.095
298.939
298.804
298.702
298.628
298.571
298.527
298.491
298.462
298.44
298.424
298.415
298.411
298.413
298.421
298.432
298.449
298.471
298.499
298.537
298.59
298.663
298.764
298.9
299.08
299.307
299.586
299.927
300.33
300.771
301.346
302.174
299.854
299.567
299.332
299.163
299.021
298.891
298.783
298.699
298.631
298.577
298.533
298.499
298.473
298.454
298.443
298.439
298.441
298.448
298.461
298.478
298.5
298.528
298.566
298.618
298.691
298.795
298.938
299.131
299.38
299.686
300.054
300.478
300.934
301.516
302.337
299.867
299.603
299.381
299.22
299.085
298.959
298.848
298.758
298.684
298.624
298.576
298.537
298.507
298.486
298.473
298.467
298.468
298.476
298.49
298.508
298.529
298.557
298.592
298.641
298.711
298.812
298.957
299.158
299.424
299.755
300.149
300.593
301.058
301.64
302.446
299.881
299.641
299.432
299.277
299.151
299.03
298.92
298.827
298.749
298.683
298.629
298.584
298.549
298.523
298.505
298.496
298.495
298.501
298.515
298.533
298.555
298.581
298.614
298.657
298.717
298.804
298.936
299.131
299.404
299.759
300.187
300.659
301.134
301.706
302.489
299.894
299.679
299.485
299.338
299.219
299.107
299
298.905
298.822
298.751
298.69
298.638
298.596
298.564
298.541
298.526
298.521
298.524
298.536
298.554
298.577
298.606
298.641
298.681
298.729
298.794
298.894
299.054
299.297
299.64
300.078
300.574
301.057
301.62
302.39
299.906
299.714
299.539
299.402
299.292
299.188
299.085
298.99
298.903
298.824
298.753
298.692
298.642
298.603
298.575
298.555
298.545
298.543
298.551
298.568
298.595
298.631
298.677
298.725
298.771
298.819
298.887
299
299.189
299.485
299.902
300.407
300.907
301.481
302.259
299.913
299.737
299.577
299.449
299.345
299.243
299.139
299.037
298.941
298.851
298.773
298.708
298.657
298.619
298.592
298.572
298.558
298.552
298.557
298.578
298.617
298.677
298.754
298.827
298.884
298.926
298.973
299.048
299.184
299.419
299.781
300.248
300.722
301.281
302.065
299.909
299.728
299.569
299.443
299.335
299.227
299.114
299.005
298.904
298.817
298.747
298.695
298.657
298.629
298.605
298.579
298.552
298.532
298.535
298.569
298.643
298.761
298.901
299.023
299.104
299.155
299.206
299.288
299.429
299.651
299.964
300.342
300.764
301.321
302.113
299.9
299.702
299.534
299.402
299.29
299.182
299.073
298.972
298.886
298.819
298.769
298.733
298.702
298.67
298.627
298.574
298.517
298.472
298.455
298.474
298.542
298.674
298.865
299.079
299.269
299.4
299.482
299.556
299.67
299.863
300.142
300.481
300.89
301.468
302.283
299.904
299.714
299.55
299.423
299.319
299.224
299.135
299.055
298.988
298.936
298.892
298.85
298.803
298.745
298.678
298.603
298.529
298.461
298.401
298.351
298.318
298.321
298.395
298.575
298.856
299.191
299.515
299.783
299.998
300.201
300.438
300.726
301.107
301.691
302.52
299.907
299.724
299.573
299.455
299.361
299.282
299.214
299.151
299.086
299.011
298.926
298.83
298.73
298.633
298.545
298.473
298.422
298.392
298.379
298.381
298.391
298.404
298.414
298.431
298.487
298.631
298.892
299.251
299.648
300.033
300.394
300.745
301.145
301.723
302.548
299.917
299.756
299.625
299.523
299.43
299.325
299.192
299.037
298.874
298.719
298.584
298.474
298.393
298.341
298.317
298.315
298.328
298.35
298.378
298.41
298.444
298.479
298.516
298.556
298.606
298.684
298.819
299.048
299.382
299.793
300.235
300.675
301.141
301.757
302.607
299.906
299.72
299.548
299.375
299.171
298.947
298.731
298.552
298.423
298.348
298.321
298.329
298.356
298.392
298.428
298.464
298.496
298.527
298.556
298.585
298.612
298.639
298.668
298.702
298.747
298.814
298.922
299.096
299.367
299.744
300.203
300.689
301.195
301.836
302.696
299.868
299.607
299.372
299.134
298.884
298.679
298.547
298.486
298.47
298.472
298.478
298.478
298.474
298.468
298.463
298.463
298.469
298.482
298.502
298.53
298.564
298.603
298.644
298.689
298.743
298.814
298.916
299.071
299.305
299.644
300.091
300.608
301.149
301.823
302.735
299.84
299.533
299.276
299.041
298.827
298.677
298.589
298.539
298.507
298.483
298.465
298.456
298.453
298.458
298.468
298.484
298.505
298.531
298.565
298.605
298.652
298.704
298.757
298.811
298.869
298.938
299.034
299.176
299.39
299.707
300.143
300.672
301.249
301.976
302.945
299.852
299.569
299.347
299.159
298.99
298.859
298.762
298.69
298.634
298.592
298.562
298.539
298.524
298.514
298.51
298.511
298.518
298.531
298.552
298.586
298.634
298.699
298.776
298.861
298.951
299.051
299.172
299.333
299.556
299.87
300.301
300.83
301.429
302.201
303.198
299.855
299.586
299.373
299.186
299.01
298.86
298.741
298.652
298.591
298.553
298.533
298.524
298.522
298.525
298.532
298.542
298.556
298.575
298.6
298.634
298.68
298.742
298.821
298.914
299.022
299.147
299.302
299.502
299.766
300.118
300.573
301.104
301.718
302.511
303.461
299.853
299.577
299.356
299.162
298.982
298.838
298.735
298.671
298.633
298.612
298.599
298.588
298.579
298.573
298.571
298.575
298.586
298.605
298.636
298.682
298.747
298.833
298.938
299.057
299.188
299.337
299.521
299.763
300.081
300.486
300.965
301.469
302.034
302.732
303.519
299.864
299.602
299.393
299.219
299.062
298.935
298.843
298.78
298.736
298.701
298.671
298.644
298.62
298.601
298.588
298.583
298.585
298.597
298.62
298.659
298.721
298.815
298.944
299.102
299.277
299.467
299.68
299.941
300.271
300.676
301.129
301.577
302.066
302.662
303.367
299.876
299.637
299.446
299.294
299.16
299.045
298.955
298.885
298.828
298.778
298.733
298.694
298.665
298.644
298.632
298.627
298.628
298.635
298.65
298.677
298.721
298.793
298.906
299.067
299.269
299.494
299.734
299.999
300.307
300.67
301.073
301.481
301.946
302.553
303.305
299.889
299.671
299.494
299.355
299.231
299.119
299.023
298.94
298.866
298.802
298.748
298.708
298.681
298.667
298.661
298.662
298.667
298.677
298.692
298.713
298.746
298.8
298.889
299.03
299.232
299.487
299.777
300.091
300.428
300.792
301.172
301.554
302.002
302.593
303.317
299.9
299.701
299.538
299.407
299.291
299.183
299.084
298.994
298.915
298.848
298.797
298.761
298.741
298.73
298.728
298.73
298.735
298.742
298.75
298.761
298.777
298.802
298.848
298.933
299.077
299.294
299.579
299.909
300.269
300.653
301.045
301.419
301.837
302.388
303.084
299.909
299.726
299.572
299.447
299.333
299.225
299.122
299.027
298.946
298.88
298.833
298.804
298.789
298.785
298.787
298.794
298.803
298.813
298.824
298.834
298.845
298.858
298.881
298.927
299.015
299.173
299.415
299.732
300.085
300.449
300.814
301.171
301.588
302.18
302.965
299.926
299.773
299.636
299.518
299.405
299.291
299.18
299.08
298.997
298.935
298.897
298.878
298.873
298.878
298.889
298.904
298.919
298.934
298.946
298.955
298.959
298.96
298.962
298.974
299.011
299.101
299.283
299.584
299.992
300.446
300.882
301.27
301.706
302.328
303.158
299.913
299.745
299.599
299.468
299.341
299.217
299.109
299.023
298.966
298.937
298.93
298.94
298.96
298.987
299.017
299.046
299.074
299.098
299.116
299.127
299.13
299.124
299.111
299.096
299.086
299.096
299.155
299.309
299.608
300.064
300.614
301.16
301.713
302.397
303.236
299.864
299.62
299.436
299.288
299.163
299.069
299.013
298.99
298.995
299.02
299.06
299.109
299.162
299.217
299.269
299.318
299.362
299.398
299.421
299.43
299.426
299.414
299.395
299.373
299.352
299.338
299.339
299.375
299.487
299.741
300.196
300.828
301.482
302.159
302.884
299.847
299.586
299.396
299.249
299.142
299.084
299.07
299.087
299.124
299.177
299.245
299.324
299.408
299.494
299.582
299.668
299.747
299.799
299.807
299.768
299.693
299.601
299.508
299.429
299.369
299.335
299.332
299.365
299.456
299.655
300.027
300.555
301.093
301.64
302.306
299.876
299.648
299.473
299.342
299.244
299.174
299.134
299.125
299.148
299.204
299.291
299.399
299.511
299.626
299.753
299.893
300.029
300.121
300.142
300.086
299.974
299.828
299.665
299.491
299.314
299.164
299.083
299.107
299.253
299.521
299.899
300.338
300.85
301.55
302.488
299.914
299.748
299.608
299.496
299.408
299.345
299.303
299.281
299.272
299.268
299.258
299.234
299.216
299.247
299.358
299.543
299.783
300.042
300.267
300.43
300.526
300.558
300.531
300.45
300.32
300.16
300.002
299.899
299.909
300.073
300.389
300.835
301.462
302.371
303.47
299.954
299.856
299.768
299.691
299.626
299.57
299.522
299.479
299.439
299.4
299.361
299.324
299.29
299.256
299.217
299.177
299.151
299.162
299.231
299.361
299.542
299.763
300.009
300.262
300.507
300.731
300.924
301.085
301.231
301.392
301.603
301.9
302.366
303.104
304.02
299.95
299.845
299.742
299.64
299.534
299.427
299.323
299.228
299.143
299.069
299.007
298.956
298.917
298.886
298.864
298.849
298.841
298.84
298.843
298.851
298.862
298.878
298.908
298.966
299.074
299.255
299.528
299.89
300.311
300.759
301.21
301.667
302.186
302.881
303.762
299.897
299.698
299.506
299.317
299.141
298.991
298.871
298.781
298.72
298.684
298.667
298.667
298.674
298.682
298.689
298.696
298.707
298.727
298.758
298.803
298.852
298.897
298.931
298.958
298.994
299.063
299.195
299.42
299.763
300.226
300.791
301.418
302.073
302.825
303.686
299.816
299.462
299.153
298.903
298.728
298.63
298.599
298.617
298.666
298.74
298.838
298.955
299.065
299.14
299.165
299.152
299.123
299.096
299.077
299.068
299.067
299.075
299.093
299.126
299.18
299.271
299.425
299.665
300.014
300.476
301.029
301.603
302.19
302.834
303.527
299.761
299.323
298.989
298.777
298.673
298.641
298.651
298.684
298.739
298.82
298.922
299.025
299.108
299.156
299.169
299.161
299.146
299.133
299.124
299.123
299.131
299.15
299.181
299.231
299.309
299.43
299.613
299.874
300.22
300.644
301.111
301.563
302.027
302.543
303.145
299.807
299.461
299.17
298.931
298.761
298.653
298.595
298.575
298.585
298.62
298.686
298.781
298.89
298.998
299.093
299.163
299.205
299.223
299.23
299.235
299.245
299.265
299.299
299.351
299.428
299.541
299.701
299.921
300.207
300.551
300.923
301.3
301.722
302.253
302.934
299.861
299.605
299.392
299.203
299.029
298.872
298.736
298.632
298.567
298.537
298.533
298.549
298.589
298.659
298.753
298.859
298.967
299.07
299.161
299.239
299.304
299.364
299.426
299.498
299.586
299.698
299.84
300.023
300.253
300.53
300.845
301.195
301.633
302.221
302.964
299.856
299.588
299.355
299.143
298.955
298.809
298.712
298.66
298.638
298.631
298.63
298.632
298.637
298.648
298.67
298.71
298.77
298.85
298.945
299.049
299.158
299.271
299.386
299.505
299.631
299.773
299.936
300.125
300.345
300.598
300.885
301.214
301.63
302.18
302.865
299.866
299.607
299.39
299.199
299.03
298.898
298.807
298.749
298.715
298.696
298.685
298.68
298.68
298.684
298.694
298.711
298.738
298.779
298.834
298.904
298.988
299.087
299.203
299.338
299.492
299.66
299.846
300.053
300.282
300.534
300.808
301.114
301.49
301.981
302.615
299.873
299.627
299.421
299.246
299.087
298.96
298.869
298.811
298.776
298.757
298.745
298.738
298.734
298.734
298.739
298.75
298.769
298.798
298.838
298.887
298.945
299.009
299.081
299.172
299.294
299.451
299.637
299.847
300.076
300.325
300.59
300.879
301.233
301.712
302.378
299.874
299.629
299.426
299.257
299.108
298.995
298.919
298.875
298.85
298.833
298.819
298.807
298.797
298.792
298.794
298.804
298.825
298.858
298.908
298.971
299.04
299.104
299.153
299.189
299.234
299.319
299.455
299.63
299.832
300.056
300.302
300.583
300.959
301.537
302.374
299.89
299.669
299.484
299.333
299.199
299.091
299.017
298.973
298.946
298.925
298.902
298.877
298.852
298.833
298.824
298.828
298.849
298.892
298.962
299.063
299.185
299.306
299.394
299.421
299.39
299.349
299.361
299.453
299.618
299.843
300.127
300.485
301.003
301.81
302.864
299.917
299.744
299.587
299.458
299.352
299.261
299.192
299.146
299.116
299.089
299.053
299.006
298.949
298.895
298.852
298.826
298.823
298.849
298.916
299.035
299.208
299.42
299.636
299.803
299.874
299.849
299.788
299.778
299.87
300.079
300.407
300.871
301.54
302.464
303.516
299.942
299.819
299.705
299.612
299.538
299.479
299.43
299.389
299.349
299.3
299.237
299.16
299.074
298.989
298.911
298.844
298.794
298.766
298.771
298.823
298.936
299.125
299.391
299.707
300.02
300.273
300.443
300.558
300.676
300.855
301.138
301.559
302.158
302.915
303.735
299.963
299.882
299.803
299.726
299.649
299.567
299.482
299.392
299.298
299.201
299.104
299.012
298.933
298.867
298.812
298.768
298.735
298.713
298.705
298.716
298.753
298.83
298.966
299.181
299.484
299.855
300.249
300.63
300.98
301.3
301.612
301.956
302.374
302.869
303.462
299.913
299.74
299.572
299.406
299.247
299.103
298.978
298.875
298.793
298.734
298.696
298.672
298.661
298.66
298.666
298.676
298.689
298.705
298.721
298.741
298.767
298.805
298.863
298.956
299.103
299.326
299.635
300.021
300.456
300.902
301.315
301.675
302.029
302.438
302.99
299.837
299.527
299.255
299.033
298.877
298.784
298.74
298.727
298.73
298.742
298.757
298.772
298.786
298.798
298.807
298.814
298.82
298.825
298.831
298.84
298.853
298.873
298.904
298.952
299.025
299.138
299.307
299.548
299.868
300.253
300.666
301.057
301.452
301.931
302.579
299.802
299.438
299.15
298.954
298.848
298.803
298.79
298.788
298.792
298.797
298.805
298.816
298.83
298.848
298.87
298.892
298.914
298.934
298.949
298.962
298.975
298.991
299.014
299.047
299.098
299.174
299.285
299.445
299.668
299.958
300.306
300.683
301.11
301.669
302.413
299.801
299.436
299.149
298.957
298.859
298.82
298.804
298.796
298.79
298.787
298.787
298.792
298.805
298.828
298.861
298.905
298.955
299.007
299.056
299.098
299.132
299.158
299.182
299.212
299.256
299.324
299.424
299.566
299.76
300.011
300.318
300.667
301.092
301.675
302.449
299.851
299.565
299.336
299.16
299.031
298.951
298.905
298.875
298.85
298.824
298.796
298.769
298.746
298.733
298.736
298.76
298.806
298.875
298.963
299.064
299.169
299.266
299.348
299.411
299.463
299.518
299.595
299.713
299.886
300.12
300.411
300.748
301.167
301.747
302.52
299.905
299.713
299.548
299.414
299.31
299.233
299.181
299.148
299.129
299.107
299.068
299.003
298.921
298.838
298.764
298.703
298.656
298.632
298.642
298.693
298.792
298.939
299.122
299.32
299.507
299.668
299.804
299.929
300.07
300.254
300.495
300.796
301.194
301.778
302.584
299.938
299.81
299.694
299.595
299.515
299.453
299.404
299.365
299.329
299.286
299.232
299.168
299.1
299.037
298.984
298.941
298.903
298.858
298.798
298.72
298.642
298.598
298.63
298.755
298.965
299.226
299.503
299.771
300.024
300.278
300.557
300.881
301.298
301.916
302.777
299.954
299.856
299.765
299.683
299.606
299.527
299.443
299.349
299.244
299.131
299.018
298.914
298.83
298.771
298.739
298.727
298.729
298.743
298.761
298.777
298.787
298.797
298.819
298.873
298.98
299.149
299.376
299.647
299.948
300.274
300.627
301.01
301.46
302.086
302.938
299.939
299.814
299.697
299.586
299.47
299.346
299.216
299.083
298.956
298.842
298.751
298.691
298.663
298.656
298.666
298.689
298.725
298.765
298.8
298.825
298.844
298.872
298.924
299.007
299.125
299.283
299.482
299.725
300.014
300.348
300.725
301.129
301.591
302.219
303.057
299.926
299.778
299.639
299.499
299.353
299.207
299.062
298.924
298.799
298.692
298.606
298.543
298.501
298.477
298.471
298.485
298.525
298.59
298.668
298.74
298.79
298.82
298.852
298.916
299.028
299.191
299.404
299.662
299.964
300.314
300.712
301.141
301.614
302.243
303.097
299.915
299.749
299.589
299.427
299.258
299.088
298.922
298.768
298.633
298.524
298.441
298.383
298.346
298.325
298.32
298.333
298.374
298.448
298.552
298.668
298.771
298.841
298.886
298.936
299.025
299.175
299.392
299.671
300.007
300.393
300.817
301.257
301.739
302.378
303.222
299.903
299.717
299.539
299.357
299.172
298.994
298.833
298.697
298.592
298.52
298.478
298.456
298.448
298.449
298.457
298.477
298.518
298.586
298.674
298.767
298.848
298.908
298.951
298.999
299.076
299.2
299.385
299.636
299.958
300.346
300.788
301.255
301.769
302.428
303.26
299.895
299.695
299.506
299.316
299.134
298.966
298.822
298.709
298.632
298.59
298.574
298.576
298.588
298.61
298.639
298.678
298.735
298.806
298.872
298.915
298.936
298.955
298.991
299.061
299.172
299.329
299.538
299.8
300.119
300.493
300.912
301.353
301.859
302.509
303.291
299.897
299.696
299.506
299.316
299.131
298.957
298.805
298.683
298.599
298.552
298.535
298.542
298.57
298.617
298.671
298.726
298.79
298.872
298.958
299.026
299.071
299.109
299.163
299.249
299.382
299.567
299.805
300.091
300.419
300.781
301.165
301.564
302.021
302.581
303.239
299.895
299.684
299.472
299.254
299.038
298.837
298.665
298.533
298.447
298.404
298.397
298.417
298.462
298.531
298.609
298.671
298.704
298.726
298.761
298.816
298.877
298.936
299.003
299.094
299.225
299.407
299.643
299.933
300.266
300.624
300.985
301.335
301.718
302.177
302.752
299.862
299.582
299.305
299.038
298.8
298.614
298.489
298.423
298.405
298.421
298.461
298.519
298.599
298.694
298.793
298.883
298.949
298.985
298.995
298.992
298.985
298.985
299.002
299.047
299.13
299.261
299.448
299.692
299.982
300.301
300.627
300.956
301.332
301.815
302.453
299.836
299.513
299.219
298.97
298.782
298.656
298.581
298.542
298.529
298.539
298.572
298.635
298.729
298.846
298.955
299.03
299.06
299.063
299.06
299.06
299.062
299.067
299.08
299.109
299.163
299.252
299.388
299.576
299.812
300.087
300.386
300.713
301.119
301.669
302.386
299.844
299.546
299.286
299.066
298.887
298.742
298.625
298.535
298.474
298.446
298.454
298.5
298.593
298.74
298.923
299.1
299.222
299.26
299.223
299.16
299.11
299.084
299.084
299.113
299.173
299.268
299.4
299.574
299.789
300.039
300.318
300.633
301.038
301.614
302.393
299.867
299.602
299.349
299.111
298.901
298.73
298.606
298.527
298.481
298.455
298.439
298.438
298.461
298.527
298.657
298.843
299.054
299.239
299.354
299.378
299.334
299.268
299.213
299.179
299.176
299.213
299.295
299.422
299.593
299.811
300.08
300.417
300.893
301.624
302.61
299.828
299.485
299.157
298.874
298.67
298.56
298.527
298.537
298.554
298.559
298.552
298.547
298.558
298.599
298.679
298.803
298.964
299.141
299.302
299.416
299.469
299.469
299.44
299.409
299.392
299.405
299.465
299.581
299.757
299.992
300.293
300.689
301.268
302.139
303.223
299.799
299.427
299.115
298.881
298.744
298.686
298.671
298.659
298.627
298.576
298.521
298.481
298.475
298.522
298.633
298.805
299.017
299.235
299.42
299.546
299.608
299.626
299.63
299.64
299.66
299.698
299.768
299.885
300.065
300.32
300.657
301.091
301.693
302.538
303.554
299.84
299.557
299.334
299.164
299.05
298.979
298.934
298.896
298.852
298.789
298.699
298.59
298.485
298.417
298.419
298.519
298.732
299.028
299.352
299.638
299.833
299.912
299.895
299.847
299.83
299.866
299.959
300.106
300.304
300.554
300.878
301.315
301.95
302.856
303.937
299.861
299.615
299.416
299.254
299.132
299.046
298.985
298.934
298.885
298.834
298.78
298.721
298.646
298.548
298.432
298.334
298.31
298.419
298.683
299.059
299.483
299.888
300.201
300.372
300.406
300.367
300.347
300.405
300.578
300.874
301.281
301.804
302.513
303.449
304.46
299.892
299.697
299.538
299.406
299.296
299.197
299.097
298.989
298.873
298.76
298.662
298.591
298.555
298.551
298.563
298.561
298.505
298.386
298.26
298.228
298.396
298.799
299.337
299.891
300.383
300.758
301.004
301.15
301.277
301.474
301.797
302.271
302.902
303.623
304.324
299.918
299.754
299.601
299.448
299.285
299.111
298.938
298.78
298.653
298.564
298.511
298.484
298.473
298.469
298.473
298.492
298.534
298.595
298.654
298.665
298.606
298.536
298.574
298.817
299.269
299.844
300.444
300.985
301.432
301.792
302.119
302.475
302.878
303.287
303.768
299.913
299.725
299.511
299.269
299.02
298.798
298.633
298.536
298.5
298.505
298.535
298.575
298.618
298.657
298.689
298.71
298.718
298.714
298.708
298.708
298.718
298.73
298.738
298.76
298.856
299.104
299.54
300.115
300.727
301.281
301.724
302.076
302.413
302.833
303.475
299.873
299.603
299.311
299.027
298.803
298.675
298.634
298.645
298.676
298.704
298.719
298.723
298.719
298.715
298.716
298.724
298.742
298.768
298.799
298.829
298.855
298.878
298.901
298.932
298.989
299.107
299.346
299.752
300.301
300.894
301.423
301.85
302.283
302.863
303.634
299.834
299.505
299.211
298.991
298.866
298.813
298.791
298.772
298.747
298.715
298.685
298.661
298.646
298.641
298.645
298.656
298.675
298.701
298.735
298.777
298.823
298.87
298.914
298.956
299.009
299.099
299.27
299.58
300.065
300.683
301.321
301.872
302.374
302.921
303.559
299.833
299.521
299.273
299.099
298.983
298.901
298.838
298.788
298.75
298.725
298.712
298.706
298.706
298.708
298.713
298.721
298.735
298.755
298.785
298.826
298.878
298.938
298.998
299.05
299.093
299.139
299.219
299.389
299.711
300.216
300.845
301.46
301.975
302.45
302.999
299.854
299.584
299.367
299.201
299.08
298.994
298.935
298.896
298.871
298.852
298.837
298.821
298.804
298.788
298.774
298.764
298.76
298.764
298.779
298.809
298.859
298.931
299.025
299.13
299.231
299.314
299.382
299.462
299.608
299.884
300.315
300.839
301.343
301.858
302.508
299.881
299.657
299.471
299.323
299.208
299.12
299.049
298.988
298.935
298.888
298.847
298.814
298.788
298.771
298.759
298.751
298.746
298.744
298.745
298.752
298.771
298.81
298.881
298.993
299.144
299.317
299.485
299.632
299.773
299.952
300.227
300.62
301.091
301.669
302.445
299.9
299.705
299.533
299.384
299.255
299.144
299.049
298.971
298.911
298.869
298.843
298.83
298.827
298.828
298.833
298.84
298.847
298.855
298.862
298.87
298.877
298.888
298.907
298.95
299.036
299.183
299.386
299.619
299.856
300.094
300.369
300.726
301.188
301.803
302.634
299.903
299.708
299.528
299.366
299.227
299.114
299.028
298.969
298.931
298.908
298.893
298.881
298.871
298.862
298.856
298.853
298.855
298.863
298.877
298.897
298.923
298.955
298.993
299.04
299.104
299.203
299.357
299.577
299.852
300.166
300.516
300.928
301.425
302.065
302.904
299.905
299.719
299.549
299.403
299.283
299.189
299.118
299.063
299.02
298.984
298.952
298.925
298.903
298.886
298.874
298.868
298.867
298.87
298.88
298.897
298.922
298.957
299.004
299.069
299.156
299.274
299.432
299.642
299.912
300.246
300.641
301.102
301.627
302.268
303.088
299.917
299.752
299.603
299.474
299.364
299.271
299.192
299.124
299.067
299.02
298.982
298.955
298.936
298.924
298.917
298.914
298.915
298.92
298.93
298.944
298.966
298.996
299.038
299.099
299.187
299.318
299.5
299.734
300.02
300.366
300.777
301.254
301.78
302.405
303.201
299.922
299.765
299.619
299.488
299.37
299.266
299.176
299.101
299.042
298.998
298.967
298.946
298.931
298.922
298.917
298.916
298.92
298.929
298.942
298.962
298.989
299.026
299.075
299.142
299.238
299.379
299.576
299.83
300.131
300.475
300.874
301.337
301.846
302.451
303.227
299.921
299.763
299.617
299.484
299.365
299.265
299.186
299.127
299.085
299.054
299.029
299.008
298.99
298.976
298.965
298.959
298.957
298.96
298.968
298.982
299.005
299.039
299.089
299.162
299.271
299.434
299.668
299.976
300.339
300.728
301.135
301.571
302.049
302.629
303.39
299.931
299.793
299.668
299.556
299.458
299.374
299.303
299.242
299.186
299.134
299.088
299.049
299.018
298.997
298.982
298.974
298.971
298.972
298.977
298.986
298.998
299.017
299.043
299.085
299.151
299.263
299.449
299.742
300.146
300.627
301.14
301.657
302.175
302.763
303.506
299.936
299.808
299.691
299.582
299.482
299.389
299.303
299.225
299.156
299.099
299.057
299.027
299.008
298.997
298.992
298.991
298.994