/*--------------------------------*- C++ -*----------------------------------*\
| =========                 |                                                 |
| \\      /  F ield         | OpenFOAM: The Open Source CFD Toolbox           |
|  \\    /   O peration     | Version:  v1906                                 |
|   \\  /    A nd           | Web:      www.OpenFOAM.com                      |
|    \\/     M anipulation  |                                                 |
\*---------------------------------------------------------------------------*/
FoamFile
{
    version     2.0;
    format      ascii;
    class       volVectorField;
    location    "84/oil";
    object      U;
}
// * * * * * * * * * * * * * * * * * * * * * * * * * * * * * * * * * * * * * //

dimensions      [0 1 -1 0 0 0 0];


internalField   nonuniform List<vector> 
27760
(
(-2.39036e-05 -2.43509e-05 -2.39035e-05)
(-4.71792e-05 -1.82641e-05 -1.72253e-05)
(-3.42829e-06 -4.72885e-06 -4.72401e-06)
(-5.56717e-06 -7.61379e-07 -8.80065e-07)
(-1.07122e-06 -2.33017e-07 -3.72861e-07)
(-3.0719e-07 -8.52648e-08 -2.39025e-07)
(3.8076e-07 5.19074e-09 -1.60875e-07)
(7.36028e-07 4.57361e-08 -1.29511e-07)
(9.35573e-07 6.99211e-08 -1.113e-07)
(1.01022e-06 8.5863e-08 -9.85106e-08)
(9.82105e-07 9.73962e-08 -8.78225e-08)
(8.64664e-07 1.06385e-07 -7.82838e-08)
(6.72536e-07 1.13133e-07 -7.0432e-08)
(4.22974e-07 1.17724e-07 -6.47567e-08)
(1.36835e-07 1.2011e-07 -6.17194e-08)
(-1.62635e-07 1.20256e-07 -6.15732e-08)
(-4.51521e-07 1.18209e-07 -6.42751e-08)
(-7.07214e-07 1.14107e-07 -6.94597e-08)
(-9.10417e-07 1.08193e-07 -7.64702e-08)
(-1.04681e-06 1.00755e-07 -8.44141e-08)
(-1.10836e-06 9.21558e-08 -9.21574e-08)
(-1.09333e-06 8.28151e-08 -9.82475e-08)
(-1.00715e-06 7.25612e-08 -1.01936e-07)
(-8.61995e-07 6.19562e-08 -1.01865e-07)
(-6.75411e-07 5.12555e-08 -9.70501e-08)
(-4.70051e-07 4.0954e-08 -8.68768e-08)
(-2.72205e-07 3.20675e-08 -7.14918e-08)
(-1.10147e-07 2.63882e-08 -5.22983e-08)
(-8.68919e-09 2.60427e-08 -3.29478e-08)
(1.36179e-08 2.66788e-08 -1.3589e-08)
(-1.73382e-05 -4.84679e-05 -1.73382e-05)
(-5.65469e-06 -6.31041e-06 -7.76639e-06)
(-7.57296e-06 -7.66195e-06 -2.72045e-06)
(-3.28667e-06 -2.26746e-06 -7.8936e-07)
(-9.31759e-07 -1.40367e-06 -4.03859e-07)
(2.78809e-07 -7.80888e-07 -2.10718e-07)
(1.17151e-06 -4.93959e-07 -1.15502e-07)
(1.72492e-06 -3.18262e-07 -6.67159e-08)
(2.04477e-06 -1.95808e-07 -3.517e-08)
(2.15301e-06 -9.79761e-08 -1.12576e-08)
(2.06905e-06 -1.53454e-08 9.28086e-09)
(1.81089e-06 5.45004e-08 2.7051e-08)
(1.40344e-06 1.10133e-07 4.15675e-08)
(8.8036e-07 1.4933e-07 5.19844e-08)
(2.83305e-07 1.70066e-07 5.75452e-08)
(-3.40747e-07 1.71269e-07 5.78256e-08)
(-9.43247e-07 1.53205e-07 5.28963e-08)
(-1.47825e-06 1.17589e-07 4.33646e-08)
(-1.9065e-06 6.74399e-08 3.02948e-08)
(-2.19886e-06 6.8009e-09 1.51313e-08)
(-2.33879e-06 -5.95779e-08 -4.69745e-10)
(-2.32351e-06 -1.26496e-07 -1.46727e-08)
(-2.16383e-06 -1.89127e-07 -2.57325e-08)
(-1.8836e-06 -2.41994e-07 -3.23533e-08)
(-1.51802e-06 -2.79544e-07 -3.3472e-08)
(-1.11089e-06 -2.95431e-07 -2.87206e-08)
(-7.11257e-07 -2.81964e-07 -1.88896e-08)
(-3.6838e-07 -2.30556e-07 -6.50242e-09)
(-1.23699e-07 -1.34793e-07 3.0935e-09)
(-4.89426e-09 -1.58955e-08 4.93804e-09)
(-4.78992e-06 -4.59722e-06 -4.78989e-06)
(-7.46635e-06 -8.70332e-06 -2.75963e-06)
(-3.70848e-06 -5.08685e-06 -1.20525e-06)
(-1.88107e-06 -3.11273e-06 -5.58713e-07)
(-1.48987e-07 -2.29496e-06 -2.52277e-07)
(1.01981e-06 -1.75636e-06 -1.01405e-07)
(1.91372e-06 -1.43429e-06 -2.0804e-08)
(2.51532e-06 -1.19173e-06 2.61508e-08)
(2.86419e-06 -9.87007e-07 5.96288e-08)
(2.96341e-06 -8.01201e-07 8.68806e-08)
(2.82241e-06 -6.31437e-07 1.10872e-07)
(2.45783e-06 -4.82053e-07 1.31827e-07)
(1.89917e-06 -3.6022e-07 1.48999e-07)
(1.18925e-06 -2.73315e-07 1.61309e-07)
(3.82238e-07 -2.27117e-07 1.67864e-07)
(-4.60135e-07 -2.24609e-07 1.68184e-07)
(-1.27379e-06 -2.6532e-07 1.62345e-07)
(-1.99806e-06 -3.45173e-07 1.51e-07)
(-2.58114e-06 -4.5682e-07 1.35335e-07)
(-2.98462e-06 -5.90264e-07 1.16962e-07)
(-3.18665e-06 -7.33731e-07 9.76824e-08)
(-3.18345e-06 -8.74367e-07 7.93759e-08)
(-2.98916e-06 -9.98823e-07 6.37392e-08)
(-2.63454e-06 -1.09368e-06 5.20992e-08)
(-2.16406e-06 -1.14489e-06 4.52542e-08)
(-1.63229e-06 -1.13748e-06 4.31948e-08)
(-1.0989e-06 -1.0549e-06 4.46914e-08)
(-6.21494e-07 -8.79888e-07 4.65978e-08)
(-2.50828e-07 -5.97059e-07 4.29495e-08)
(-2.37818e-08 -2.151e-07 2.3833e-08)
(-8.50857e-07 -6.74737e-06 -8.50819e-07)
(-1.84788e-06 -5.47728e-06 -7.52745e-07)
(-1.31686e-06 -4.84192e-06 -5.28053e-07)
(-3.32555e-07 -3.95562e-06 -2.5213e-07)
(8.4449e-07 -3.46331e-06 -8.98412e-08)
(1.83298e-06 -3.08169e-06 4.08146e-09)
(2.65059e-06 -2.78314e-06 6.27471e-08)
(3.23512e-06 -2.50322e-06 1.02893e-07)
(3.57079e-06 -2.22624e-06 1.35145e-07)
(3.63933e-06 -1.95023e-06 1.63514e-07)
(3.4382e-06 -1.68469e-06 1.8937e-07)
(2.98035e-06 -1.4442e-06 2.12303e-07)
(2.29695e-06 -1.24487e-06 2.31205e-07)
(1.43667e-06 -1.10148e-06 2.44788e-07)
(4.62618e-07 -1.02505e-06 2.52019e-07)
(-5.52627e-07 -1.02127e-06 2.52341e-07)
(-1.53344e-06 -1.08953e-06 2.4582e-07)
(-2.40811e-06 -1.22276e-06 2.3316e-07)
(-3.11538e-06 -1.40802e-06 2.15635e-07)
(-3.60997e-06 -1.62763e-06 1.9495e-07)
(-3.86608e-06 -1.86064e-06 1.72999e-07)
(-3.87919e-06 -2.08421e-06 1.51684e-07)
(-3.66549e-06 -2.27471e-06 1.32669e-07)
(-3.26005e-06 -2.40824e-06 1.17229e-07)
(-2.71314e-06 -2.46052e-06 1.05993e-07)
(-2.08557e-06 -2.40651e-06 9.8749e-08)
(-1.4433e-06 -2.21952e-06 9.40741e-08)
(-8.49426e-07 -1.87091e-06 8.84013e-08)
(-3.64604e-07 -1.32765e-06 7.51652e-08)
(-3.96348e-08 -5.5355e-07 3.96947e-08)
(-2.63824e-07 -2.72234e-06 -2.63779e-07)
(-7.52537e-07 -4.41445e-06 -3.01449e-07)
(-1.73038e-07 -4.94961e-06 -1.85902e-07)
(6.58116e-07 -4.94493e-06 -6.11436e-08)
(1.64254e-06 -4.86503e-06 2.59656e-08)
(2.55368e-06 -4.69295e-06 8.44885e-08)
(3.33243e-06 -4.46294e-06 1.27288e-07)
(3.9023e-06 -4.17298e-06 1.61686e-07)
(4.22035e-06 -3.83727e-06 1.92748e-07)
(4.25502e-06 -3.47515e-06 2.22107e-07)
(3.99521e-06 -3.1119e-06 2.49823e-07)
(3.45094e-06 -2.77538e-06 2.74835e-07)
(2.65457e-06 -2.49291e-06 2.95615e-07)
(1.65956e-06 -2.28837e-06 3.10607e-07)
(5.3661e-07 -2.1792e-06 3.18583e-07)
(-6.32298e-07 -2.17441e-06 3.18882e-07)
(-1.76146e-06 -2.27333e-06 3.1156e-07)
(-2.76954e-06 -2.46553e-06 2.97383e-07)
(-3.5871e-06 -2.7316e-06 2.77768e-07)
(-4.16291e-06 -3.04497e-06 2.54552e-07)
(-4.46791e-06 -3.37417e-06 2.29787e-07)
(-4.49693e-06 -3.68495e-06 2.05487e-07)
(-4.26779e-06 -3.94189e-06 1.83365e-07)
(-3.81891e-06 -4.10955e-06 1.64687e-07)
(-3.20498e-06 -4.15244e-06 1.50029e-07)
(-2.49171e-06 -4.03438e-06 1.39069e-07)
(-1.75036e-06 -3.7168e-06 1.3026e-07)
(-1.04977e-06 -3.15562e-06 1.19645e-07)
(-4.61638e-07 -2.28992e-06 9.99212e-08)
(-5.21986e-08 -1.01101e-06 5.22706e-08)
(-9.1975e-08 -2.61819e-06 -9.19189e-08)
(-5.862e-09 -4.72984e-06 -7.02279e-08)
(5.79149e-07 -5.84922e-06 -8.95393e-09)
(1.3815e-06 -6.37584e-06 5.32994e-08)
(2.30667e-06 -6.61028e-06 1.03214e-07)
(3.19778e-06 -6.61694e-06 1.42324e-07)
(3.96891e-06 -6.45694e-06 1.76136e-07)
(4.53653e-06 -6.16419e-06 2.07748e-07)
(4.84265e-06 -5.77605e-06 2.39216e-07)
(4.84667e-06 -5.33107e-06 2.70665e-07)
(4.53138e-06 -4.87061e-06 3.01208e-07)
(3.90459e-06 -4.43666e-06 3.29183e-07)
(3.00003e-06 -4.0689e-06 3.52607e-07)
(1.87575e-06 -3.80119e-06 3.69563e-07)
(6.09914e-07 -3.65822e-06 3.78572e-07)
(-7.06371e-07 -3.65276e-06 3.78842e-07)
(-1.97753e-06 -3.78414e-06 3.70409e-07)
(-3.11282e-06 -4.03824e-06 3.54148e-07)
(-4.0349e-06 -4.38867e-06 3.31673e-07)
(-4.68685e-06 -4.7992e-06 3.05085e-07)
(-5.03677e-06 -5.22705e-06 2.76704e-07)
(-5.07893e-06 -5.62558e-06 2.48753e-07)
(-4.83294e-06 -5.94692e-06 2.23087e-07)
(-4.34059e-06 -6.14342e-06 2.01071e-07)
(-3.66081e-06 -6.16757e-06 1.83301e-07)
(-2.86425e-06 -5.97101e-06 1.694e-07)
(-2.02787e-06 -5.50118e-06 1.57697e-07)
(-1.22708e-06 -4.69386e-06 1.43804e-07)
(-5.44916e-07 -3.45049e-06 1.19543e-07)
(-6.23924e-08 -1.56815e-06 6.24813e-08)
(7.04603e-09 -2.72104e-06 7.11855e-09)
(3.4441e-07 -5.51468e-06 4.73176e-08)
(1.0267e-06 -7.18196e-06 8.76357e-08)
(1.89102e-06 -8.14541e-06 1.24051e-07)
(2.84438e-06 -8.66008e-06 1.56217e-07)
(3.76492e-06 -8.83269e-06 1.85785e-07)
(4.55985e-06 -8.74496e-06 2.15681e-07)
(5.14294e-06 -8.45608e-06 2.47213e-07)
(5.44797e-06 -8.02279e-06 2.80869e-07)
(5.42825e-06 -7.50096e-06 3.15838e-07)
(5.06216e-06 -6.94753e-06 3.50491e-07)
(4.35605e-06 -6.41882e-06 3.82592e-07)
(3.34527e-06 -5.96712e-06 4.09643e-07)
(2.09287e-06 -5.6369e-06 4.29268e-07)
(6.84723e-07 -5.46051e-06 4.39675e-07)
(-7.78473e-07 -5.45469e-06 4.3991e-07)
(-2.19092e-06 -5.61889e-06 4.3e-07)
(-3.45209e-06 -5.93513e-06 4.10952e-07)
(-4.47653e-06 -6.3697e-06 3.84649e-07)
(-5.2017e-06 -6.87631e-06 3.53592e-07)
(-5.59288e-06 -7.40033e-06 3.20471e-07)
(-5.64435e-06 -7.88255e-06 2.87834e-07)
(-5.37795e-06 -8.26239e-06 2.57825e-07)
(-4.83919e-06 -8.47962e-06 2.31944e-07)
(-4.09184e-06 -8.47421e-06 2.10877e-07)
(-3.21197e-06 -8.18451e-06 1.94212e-07)
(-2.28284e-06 -7.54165e-06 1.8014e-07)
(-1.38699e-06 -6.45686e-06 1.63807e-07)
(-6.18346e-07 -4.78506e-06 1.36039e-07)
(-7.10866e-08 -2.21131e-06 7.11983e-08)
(4.91066e-08 -3.2124e-06 4.91976e-08)
(5.45169e-07 -6.7194e-06 1.06983e-07)
(1.32883e-06 -8.89532e-06 1.42121e-07)
(2.2785e-06 -1.02388e-05 1.69166e-07)
(3.29498e-06 -1.10078e-05 1.94147e-07)
(4.27083e-06 -1.13364e-05 2.20386e-07)
(5.10958e-06 -1.1323e-05 2.50085e-07)
(5.72224e-06 -1.10456e-05 2.83929e-07)
(6.03655e-06 -1.05769e-05 3.21583e-07)
(6.00071e-06 -9.98786e-06 3.61645e-07)
(5.58934e-06 -9.35e-06 4.01867e-07)
(4.80744e-06 -8.73328e-06 4.39385e-07)
(3.69226e-06 -8.20265e-06 4.71126e-07)
(2.3121e-06 -7.81328e-06 4.94195e-07)
(7.61087e-07 -7.60523e-06 5.06403e-07)
(-8.49896e-07 -7.59938e-06 5.06599e-07)
(-2.4042e-06 -7.79525e-06 4.948e-07)
(-3.791e-06 -8.171e-06 4.72197e-07)
(-4.91625e-06 -8.6854e-06 4.41036e-07)
(-5.71178e-06 -9.28204e-06 4.04297e-07)
(-6.14041e-06 -9.89451e-06 3.6515e-07)
(-6.19691e-06 -1.0451e-05 3.26627e-07)
(-5.90601e-06 -1.08783e-05 2.9125e-07)
(-5.31752e-06 -1.11037e-05 2.60724e-07)
(-4.50082e-06 -1.10545e-05 2.35864e-07)
(-3.53794e-06 -1.06547e-05 2.16224e-07)
(-2.51875e-06 -9.81696e-06 1.99864e-07)
(-1.53301e-06 -8.42387e-06 1.81416e-07)
(-6.84549e-07 -6.27613e-06 1.50667e-07)
(-7.88535e-08 -2.93126e-06 7.89921e-08)
(7.1921e-08 -3.8804e-06 7.20348e-08)
(6.69948e-07 -8.18536e-06 1.42052e-07)
(1.54558e-06 -1.08892e-05 1.76686e-07)
(2.58336e-06 -1.26061e-05 2.00779e-07)
(3.67588e-06 -1.36275e-05 2.23667e-07)
(4.71928e-06 -1.41156e-05 2.50054e-07)
(5.61333e-06 -1.41864e-05 2.82031e-07)
(6.26545e-06 -1.39343e-05 3.2007e-07)
(6.59785e-06 -1.34455e-05 3.63374e-07)
(6.55356e-06 -1.28046e-05 4.10036e-07)
(6.10342e-06 -1.20963e-05 4.57243e-07)
(5.25096e-06 -1.14034e-05 5.01478e-07)
(4.03516e-06 -1.0803e-05 5.39012e-07)
(2.52973e-06 -1.03606e-05 5.66308e-07)
(8.37443e-07 -1.0124e-05 5.80702e-07)
(-9.20118e-07 -1.01184e-05 5.80861e-07)
(-2.6148e-06 -1.03432e-05 5.668e-07)
(-4.12493e-06 -1.07727e-05 5.39878e-07)
(-5.34774e-06 -1.13584e-05 5.02772e-07)
(-6.20945e-06 -1.20337e-05 4.59099e-07)
(-6.67072e-06 -1.27206e-05 4.1265e-07)
(-6.72753e-06 -1.33354e-05 3.6701e-07)
(-6.40828e-06 -1.37928e-05 3.25125e-07)
(-5.76796e-06 -1.40081e-05 2.89027e-07)
(-4.88196e-06 -1.3896e-05 2.59681e-07)
(-3.83853e-06 -1.33656e-05 2.36657e-07)
(-2.73414e-06 -1.23094e-05 2.17832e-07)
(-1.66526e-06 -1.05775e-05 1.97317e-07)
(-7.44284e-07 -7.90936e-06 1.63912e-07)
(-8.59341e-08 -3.72086e-06 8.61032e-08)
(8.52932e-08 -4.66874e-06 8.54334e-08)
(7.54823e-07 -9.8475e-06 1.64239e-07)
(1.7076e-06 -1.31093e-05 2.00211e-07)
(2.82515e-06 -1.521e-05 2.24295e-07)
(3.99233e-06 -1.64939e-05 2.47786e-07)
(5.10446e-06 -1.71548e-05 2.76436e-07)
(6.05732e-06 -1.73278e-05 3.12464e-07)
(6.75384e-06 -1.71218e-05 3.56222e-07)
(7.1108e-06 -1.66359e-05 4.06673e-07)
(7.06584e-06 -1.59661e-05 4.61431e-07)
(6.58525e-06 -1.52084e-05 5.17081e-07)
(5.67046e-06 -1.44572e-05 5.69389e-07)
(4.36178e-06 -1.38007e-05 6.13825e-07)
(2.73807e-06 -1.33147e-05 6.46131e-07)
(9.10878e-07 -1.30545e-05 6.6314e-07)
(-9.87042e-07 -1.30491e-05 6.63261e-07)
(-2.81584e-06 -1.32984e-05 6.46504e-07)
(-4.44267e-06 -1.37726e-05 6.14467e-07)
(-5.75583e-06 -1.44158e-05 5.70356e-07)
(-6.67633e-06 -1.51519e-05 5.18481e-07)
(-7.1635e-06 -1.5892e-05 4.63346e-07)
(-7.21539e-06 -1.65414e-05 4.09268e-07)
(-6.86482e-06 -1.70039e-05 3.59724e-07)
(-6.1727e-06 -1.71841e-05 3.17109e-07)
(-5.22052e-06 -1.69843e-05 2.82541e-07)
(-4.10284e-06 -1.62988e-05 2.55607e-07)
(-2.92203e-06 -1.49983e-05 2.34051e-07)
(-1.78003e-06 -1.28977e-05 2.11465e-07)
(-7.96191e-07 -9.66901e-06 1.75649e-07)
(-9.22475e-08 -4.57279e-06 9.24516e-08)
(9.38554e-08 -5.53774e-06 9.40138e-08)
(8.1307e-07 -1.16532e-05 1.79018e-07)
(1.82456e-06 -1.55043e-05 2.16681e-07)
(3.00574e-06 -1.80075e-05 2.41955e-07)
(4.23601e-06 -1.95723e-05 2.6747e-07)
(5.40887e-06 -2.04275e-05 2.99684e-07)
(6.41655e-06 -2.0729e-05 3.40999e-07)
(7.15764e-06 -2.05994e-05 3.91761e-07)
(7.54345e-06 -2.01484e-05 4.50667e-07)
(7.50575e-06 -1.94815e-05 5.14921e-07)
(7.00556e-06 -1.87038e-05 5.80441e-07)
(6.04124e-06 -1.79196e-05 6.42163e-07)
(4.65347e-06 -1.72271e-05 6.94701e-07)
(2.92549e-06 -1.67109e-05 7.32902e-07)
(9.77306e-07 -1.64338e-05 7.52963e-07)
(-1.04724e-06 -1.64288e-05 7.53055e-07)
(-2.99635e-06 -1.66959e-05 7.33181e-07)
(-4.72609e-06 -1.72015e-05 6.95178e-07)
(-6.11636e-06 -1.78825e-05 6.42864e-07)
(-7.08374e-06 -1.8654e-05 5.81403e-07)
(-7.58723e-06 -1.94173e-05 5.16256e-07)
(-7.62794e-06 -2.00683e-05 4.52487e-07)
(-7.24423e-06 -2.0502e-05 3.94151e-07)
(-6.50328e-06 -2.06135e-05 3.44079e-07)
(-5.49269e-06 -2.02949e-05 3.03595e-07)
(-4.31242e-06 -1.94257e-05 2.72292e-07)
(-3.06953e-06 -1.78544e-05 2.47715e-07)
(-1.86985e-06 -1.53574e-05 2.23039e-07)
(-8.37131e-07 -1.15341e-05 1.85217e-07)
(-9.74406e-08 -5.47739e-06 9.76857e-08)
(9.89746e-08 -6.45992e-06 9.91688e-08)
(8.47521e-07 -1.35561e-05 1.87988e-07)
(1.89446e-06 -1.80211e-05 2.27043e-07)
(3.11552e-06 -2.09462e-05 2.53907e-07)
(4.38781e-06 -2.28142e-05 2.82095e-07)
(5.60426e-06 -2.38919e-05 3.18669e-07)
(6.65512e-06 -2.43563e-05 3.66167e-07)
(7.43573e-06 -2.43429e-05 4.24956e-07)
(7.85222e-06 -2.39697e-05 4.93531e-07)
(7.83038e-06 -2.33487e-05 5.68679e-07)
(7.32512e-06 -2.25915e-05 6.45634e-07)
(6.33038e-06 -2.18094e-05 7.18387e-07)
(4.88548e-06 -2.11086e-05 7.80484e-07)
(3.07669e-06 -2.05813e-05 8.25743e-07)
(1.03145e-06 -2.02968e-05 8.49496e-07)
(-1.09571e-06 -2.02923e-05 8.49556e-07)
(-3.14134e-06 -2.05677e-05 8.25908e-07)
(-4.95089e-06 -2.10856e-05 7.80767e-07)
(-6.39675e-06 -2.17766e-05 7.18834e-07)
(-7.39248e-06 -2.25479e-05 6.46264e-07)
(-7.8986e-06 -2.32934e-05 5.69586e-07)
(-7.92083e-06 -2.39021e-05 4.94767e-07)
(-7.50382e-06 -2.42627e-05 4.26568e-07)
(-6.72101e-06 -2.42637e-05 3.68219e-07)
(-5.66565e-06 -2.37884e-05 3.21207e-07)
(-4.44165e-06 -2.27032e-05 2.85134e-07)
(-3.15859e-06 -2.08338e-05 2.57391e-07)
(-1.92369e-06 -1.79167e-05 2.30766e-07)
(-8.62122e-07 -1.34742e-05 1.91508e-07)
(-1.00911e-07 -6.42027e-06 1.01199e-07)
(1.00818e-07 -7.40776e-06 1.01023e-07)
(8.55552e-07 -1.55035e-05 1.90906e-07)
(1.90793e-06 -2.05949e-05 2.30534e-07)
(3.13616e-06 -2.39571e-05 2.58917e-07)
(4.41929e-06 -2.61513e-05 2.9001e-07)
(5.65238e-06 -2.7484e-05 3.31221e-07)
(6.72625e-06 -2.81528e-05 3.85297e-07)
(7.535e-06 -2.83049e-05 4.52667e-07)
(7.98092e-06 -2.80637e-05 5.31696e-07)
(7.98407e-06 -2.75446e-05 6.18794e-07)
(7.49258e-06 -2.68617e-05 7.08549e-07)
(6.49415e-06 -2.61293e-05 7.93979e-07)
(5.02465e-06 -2.54581e-05 8.67243e-07)
(3.17104e-06 -2.4946e-05 9.20879e-07)
(1.06624e-06 -2.46677e-05 9.49099e-07)
(-1.12574e-06 -2.46637e-05 9.49119e-07)
(-3.23048e-06 -2.49339e-05 9.20949e-07)
(-5.08398e-06 -2.54376e-05 8.67372e-07)
(-6.55319e-06 -2.61001e-05 7.94196e-07)
(-7.55106e-06 -2.68235e-05 7.0891e-07)
(-8.04174e-06 -2.74971e-05 6.19344e-07)
(-8.0373e-06 -2.80068e-05 5.32448e-07)
(-7.58924e-06 -2.82387e-05 4.53711e-07)
(-6.77707e-06 -2.80782e-05 3.8664e-07)
(-5.69812e-06 -2.74025e-05 3.32885e-07)
(-4.45796e-06 -2.60661e-05 2.91958e-07)
(-3.16596e-06 -2.38731e-05 2.61093e-07)
(-1.92735e-06 -2.05191e-05 2.32803e-07)
(-8.64715e-07 -1.54457e-05 1.92994e-07)
(-1.01888e-07 -7.38077e-06 1.02226e-07)
(9.87873e-08 -8.34934e-06 9.90315e-08)
(8.31451e-07 -1.74317e-05 1.86659e-07)
(1.85123e-06 -2.31438e-05 2.25667e-07)
(3.04395e-06 -2.6949e-05 2.55006e-07)
(4.29555e-06 -2.94889e-05 2.88697e-07)
(5.50726e-06 -3.11099e-05 3.34275e-07)
(6.57411e-06 -3.20297e-05 3.94607e-07)
(7.39196e-06 -3.2405e-05 4.70358e-07)
(7.86175e-06 -3.23619e-05 5.59967e-07)
(7.8987e-06 -3.20142e-05 6.59622e-07)
(7.44421e-06 -3.1474e-05 7.63285e-07)
(6.47798e-06 -3.08539e-05 8.62914e-07)
(5.02936e-06 -3.02639e-05 9.49152e-07)
(3.18256e-06 -2.98036e-05 1.0129e-06)
(1.07289e-06 -2.95503e-05 1.04669e-06)
(-1.12845e-06 -2.95467e-05 1.04669e-06)
(-3.23771e-06 -2.97927e-05 1.01289e-06)
(-5.08371e-06 -3.02457e-05 9.49151e-07)
(-6.53112e-06 -3.08281e-05 8.62939e-07)
(-7.49582e-06 -3.14408e-05 7.63403e-07)
(-7.94834e-06 -3.19735e-05 6.59939e-07)
(-7.9088e-06 -3.23139e-05 5.60449e-07)
(-7.43589e-06 -3.23505e-05 4.71042e-07)
(-6.614e-06 -3.19693e-05 3.95476e-07)
(-5.542e-06 -3.10453e-05 3.35329e-07)
(-4.32402e-06 -2.94229e-05 2.89933e-07)
(-3.06512e-06 -2.68855e-05 2.56396e-07)
(-1.86452e-06 -2.30877e-05 2.27112e-07)
(-8.37411e-07 -1.73897e-05 1.87955e-07)
(-9.94028e-08 -8.33032e-06 9.97861e-08)
(9.20717e-08 -9.2452e-06 9.23283e-08)
(7.68354e-07 -1.92606e-05 1.73575e-07)
(1.70876e-06 -2.55644e-05 2.10272e-07)
(2.81259e-06 -2.98047e-05 2.39548e-07)
(3.97862e-06 -3.27017e-05 2.74844e-07)
(5.11876e-06 -3.46409e-05 3.23557e-07)
(6.13708e-06 -3.58589e-05 3.888e-07)
(6.93541e-06 -3.65192e-05 4.71467e-07)
(7.41691e-06 -3.6747e-05 5.70155e-07)
(7.49447e-06 -3.66512e-05 6.81131e-07)
(7.10315e-06 -3.63356e-05 7.97953e-07)
(6.21354e-06 -3.59046e-05 9.11718e-07)
(4.84573e-06 -3.54613e-05 1.01152e-06)
(3.07688e-06 -3.51007e-05 1.08627e-06)
(1.03955e-06 -3.48976e-05 1.12629e-06)
(-1.09206e-06 -3.48943e-05 1.12625e-06)
(-3.1287e-06 -3.50909e-05 1.08618e-06)
(-4.89626e-06 -3.5445e-05 1.01141e-06)
(-6.26212e-06 -3.58818e-05 9.11636e-07)
(-7.14928e-06 -3.63066e-05 7.97925e-07)
(-7.5378e-06 -3.66161e-05 6.81199e-07)
(-7.45705e-06 -3.67064e-05 5.7035e-07)
(-6.97185e-06 -3.64738e-05 4.71825e-07)
(-6.16919e-06 -3.58097e-05 3.89323e-07)
(-5.14586e-06 -3.45894e-05 3.24233e-07)
(-4.00009e-06 -3.26501e-05 2.75637e-07)
(-2.82797e-06 -2.97557e-05 2.40418e-07)
(-1.71806e-06 -2.55221e-05 2.11191e-07)
(-7.72309e-07 -1.92295e-05 1.7442e-07)
(-9.2414e-08 -9.23138e-06 9.28439e-08)
(7.98104e-08 -1.00482e-05 8.00786e-08)
(6.59571e-07 -2.08949e-05 1.50065e-07)
(1.46583e-06 -2.77321e-05 1.82346e-07)
(2.41768e-06 -3.23796e-05 2.09955e-07)
(3.43311e-06 -3.56313e-05 2.45108e-07)
(4.43975e-06 -3.79084e-05 2.94702e-07)
(5.35622e-06 -3.94643e-05 3.61894e-07)
(6.09554e-06 -4.04669e-05 4.47913e-07)
(6.5677e-06 -4.10379e-05 5.51838e-07)
(6.68746e-06 -4.12765e-05 6.70318e-07)
(6.38601e-06 -4.1273e-05 7.96905e-07)
(5.62514e-06 -4.11162e-05 9.22054e-07)
(4.41285e-06 -4.08943e-05 1.03349e-06)
(2.8142e-06 -4.06893e-05 1.11821e-06)
(9.52459e-07 -4.05665e-05 1.16416e-06)
(-1.00253e-06 -4.05636e-05 1.16413e-06)
(-2.86335e-06 -4.06805e-05 1.11812e-06)
(-4.46031e-06 -4.08799e-05 1.03333e-06)
(-5.6702e-06 -4.10961e-05 9.21879e-07)
(-6.4282e-06 -4.12476e-05 7.9677e-07)
(-6.72627e-06 -4.12465e-05 6.70291e-07)
(-6.60275e-06 -4.10037e-05 5.51908e-07)
(-6.12648e-06 -4.0429e-05 4.48076e-07)
(-5.38273e-06 -3.94238e-05 3.62175e-07)
(-4.46147e-06 -3.78667e-05 2.95098e-07)
(-3.4498e-06 -3.55902e-05 2.45609e-07)
(-2.42924e-06 -3.23414e-05 2.10535e-07)
(-1.47255e-06 -2.76995e-05 1.82947e-07)
(-6.6227e-07 -2.08713e-05 1.50646e-07)
(-7.99835e-08 -1.00379e-05 8.04556e-08)
(6.13053e-08 -1.07043e-05 6.15726e-08)
(5.00406e-07 -2.22256e-05 1.14826e-07)
(1.11234e-06 -2.95039e-05 1.40147e-07)
(1.84231e-06 -3.4506e-05 1.63968e-07)
(2.63372e-06 -3.80889e-05 1.96304e-07)
(3.43527e-06 -4.07048e-05 2.43072e-07)
(4.18566e-06 -4.26202e-05 3.07371e-07)
(4.81523e-06 -4.40057e-05 3.90715e-07)
(5.24712e-06 -4.49764e-05 4.92707e-07)
(5.4034e-06 -4.56182e-05 6.10529e-07)
(5.21566e-06 -4.60032e-05 7.38258e-07)
(4.63901e-06 -4.61981e-05 8.66551e-07)
(3.66869e-06 -4.62679e-05 9.82511e-07)
(2.35278e-06 -4.6272e-05 1.07187e-06)
(7.96849e-07 -4.62586e-05 1.12091e-06)
(-8.45071e-07 -4.62562e-05 1.12085e-06)
(-2.39999e-06 -4.62643e-05 1.07174e-06)
(-3.71391e-06 -4.62551e-05 9.82307e-07)
(-4.68143e-06 -4.61805e-05 8.66347e-07)
(-5.25478e-06 -4.59813e-05 7.38054e-07)
(-5.43872e-06 -4.55924e-05 6.10387e-07)
(-5.27841e-06 -4.49473e-05 4.92607e-07)
(-4.84223e-06 -4.39739e-05 3.90716e-07)
(-4.2082e-06 -4.25867e-05 3.07482e-07)
(-3.45324e-06 -4.06708e-05 2.43263e-07)
(-2.64711e-06 -3.80559e-05 1.96583e-07)
(-1.85124e-06 -3.44757e-05 1.64317e-07)
(-1.11728e-06 -2.94784e-05 1.40528e-07)
(-5.02246e-07 -2.22073e-05 1.15233e-07)
(-6.1368e-08 -1.06964e-05 6.18771e-08)
(3.63246e-08 -1.11555e-05 3.66205e-08)
(2.89856e-07 -2.31367e-05 6.74851e-08)
(6.46413e-07 -3.07269e-05 8.3125e-08)
(1.08318e-06 -3.6002e-05 1.00617e-07)
(1.5745e-06 -3.98659e-05 1.26779e-07)
(2.09512e-06 -4.2794e-05 1.66003e-07)
(2.60932e-06 -4.50615e-05 2.20888e-07)
(3.07083e-06 -4.68384e-05 2.93147e-07)
(3.4229e-06 -4.82317e-05 3.82951e-07)
(3.6019e-06 -4.93118e-05 4.88358e-07)
(3.54635e-06 -5.01288e-05 6.04429e-07)
(3.20897e-06 -5.07224e-05 7.22771e-07)
(2.57273e-06 -5.11285e-05 8.31181e-07)
(1.66477e-06 -5.13774e-05 9.1574e-07)
(5.62846e-07 -5.14936e-05 9.6258e-07)
(-6.09555e-07 -5.14917e-05 9.62517e-07)
(-1.71031e-06 -5.1371e-05 9.15611e-07)
(-2.61608e-06 -5.11174e-05 8.30942e-07)
(-3.24932e-06 -5.07074e-05 7.22482e-07)
(-3.58319e-06 -5.01099e-05 6.04105e-07)
(-3.63471e-06 -4.92895e-05 4.8812e-07)
(-3.45145e-06 -4.82067e-05 3.82753e-07)
(-3.09498e-06 -4.68115e-05 2.9305e-07)
(-2.62901e-06 -4.50336e-05 2.20873e-07)
(-2.1104e-06 -4.27659e-05 1.66042e-07)
(-1.58555e-06 -3.98391e-05 1.26906e-07)
(-1.09031e-06 -3.59776e-05 1.00812e-07)
(-6.50187e-07 -3.07065e-05 8.34098e-08)
(-2.91156e-07 -2.31223e-05 6.77907e-08)
(-3.63353e-08 -1.11494e-05 3.68737e-08)
(5.35133e-09 -1.13459e-05 5.6177e-09)
(3.23916e-08 -2.35165e-05 8.81578e-09)
(7.80519e-08 -3.12527e-05 1.21129e-08)
(1.56123e-07 -3.66887e-05 2.05639e-08)
(2.76699e-07 -4.07528e-05 3.68485e-08)
(4.44118e-07 -4.39324e-05 6.31206e-08)
(6.53424e-07 -4.65064e-05 1.01324e-07)
(8.87645e-07 -4.86409e-05 1.52924e-07)
(1.11686e-06 -5.04325e-05 2.18518e-07)
(1.29956e-06 -5.19348e-05 2.97244e-07)
(1.38821e-06 -5.31751e-05 3.85547e-07)
(1.33881e-06 -5.41651e-05 4.77275e-07)
(1.12431e-06 -5.49085e-05 5.62556e-07)
(7.47611e-07 -5.54048e-05 6.29924e-07)
(2.49138e-07 -5.56527e-05 6.67606e-07)
(-2.94494e-07 -5.56508e-05 6.67531e-07)
(-7.91668e-07 -5.53988e-05 6.29736e-07)
(-1.16611e-06 -5.48985e-05 5.62237e-07)
(-1.37749e-06 -5.41518e-05 4.76915e-07)
(-1.4231e-06 -5.31585e-05 3.85172e-07)
(-1.33032e-06 -5.19155e-05 2.96883e-07)
(-1.14331e-06 -5.0411e-05 2.1822e-07)
(-9.09693e-07 -4.8618e-05 1.52671e-07)
(-6.71087e-07 -4.64828e-05 1.01174e-07)
(-4.57525e-07 -4.39089e-05 6.30535e-08)
(-2.8614e-07 -4.07306e-05 3.68244e-08)
(-1.62045e-07 -3.66687e-05 2.06398e-08)
(-8.10277e-08 -3.12363e-05 1.22772e-08)
(-3.3282e-08 -2.3505e-05 9.04185e-09)
(-5.29343e-09 -1.13409e-05 5.85114e-09)
(-3.049e-08 -1.12269e-05 -3.02128e-08)
(-2.61435e-07 -2.32693e-05 -5.88134e-08)
(-5.68902e-07 -3.09546e-05 -7.00269e-08)
(-9.00001e-07 -3.64114e-05 -7.30821e-08)
(-1.20596e-06 -4.05655e-05 -7.01373e-08)
(-1.45017e-06 -4.39019e-05 -6.17222e-08)
(-1.60319e-06 -4.66962e-05 -4.70245e-08)
(-1.64757e-06 -4.91073e-05 -2.50168e-08)
(-1.58028e-06 -5.12201e-05 5.23304e-09)
(-1.41406e-06 -5.30726e-05 4.39926e-08)
(-1.17533e-06 -5.46698e-05 8.9877e-08)
(-8.99181e-07 -5.59972e-05 1.39816e-07)
(-6.20139e-07 -5.70296e-05 1.87848e-07)
(-3.62356e-07 -5.77388e-05 2.2683e-07)
(-1.31464e-07 -5.80999e-05 2.49017e-07)
(8.77346e-08 -5.8098e-05 2.48909e-07)
(3.19878e-07 -5.77332e-05 2.26588e-07)
(5.79982e-07 -5.70206e-05 1.87498e-07)
(8.62166e-07 -5.5985e-05 1.3939e-07)
(1.14205e-06 -5.46546e-05 8.94564e-08)
(1.38489e-06 -5.30553e-05 4.35751e-08)
(1.55543e-06 -5.12012e-05 4.87099e-09)
(1.62709e-06 -4.90873e-05 -2.53303e-08)
(1.58696e-06 -4.6676e-05 -4.7251e-08)
(1.43804e-06 -4.3882e-05 -6.18593e-08)
(1.19762e-06 -4.05468e-05 -7.02001e-08)
(8.94956e-07 -3.63949e-05 -7.30581e-08)
(5.66498e-07 -3.09412e-05 -6.99259e-08)
(2.60784e-07 -2.32599e-05 -5.86267e-08)
(3.05698e-08 -1.12229e-05 -3.00033e-08)
(-6.90191e-08 -1.07659e-05 -6.87765e-08)
(-5.74327e-07 -2.23315e-05 -1.31566e-07)
(-1.25679e-06 -2.97477e-05 -1.58663e-07)
(-2.02419e-06 -3.50643e-05 -1.7488e-07)
(-2.78834e-06 -3.91736e-05 -1.87791e-07)
(-3.47928e-06 -4.25432e-05 -2.00997e-07)
(-4.03122e-06 -4.54367e-05 -2.15122e-07)
(-4.38921e-06 -4.80027e-05 -2.2962e-07)
(-4.51279e-06 -5.0315e-05 -2.43205e-07)
(-4.38053e-06 -5.23961e-05 -2.54417e-07)
(-3.99239e-06 -5.42335e-05 -2.62038e-07)
(-3.37032e-06 -5.57922e-05 -2.65425e-07)
(-2.55428e-06 -5.70245e-05 -2.65216e-07)
(-1.59676e-06 -5.78813e-05 -2.62892e-07)
(-5.55432e-07 -5.83211e-05 -2.60765e-07)
(5.13709e-07 -5.83194e-05 -2.60858e-07)
(1.55622e-06 -5.78763e-05 -2.63142e-07)
(2.51589e-06 -5.70163e-05 -2.65604e-07)
(3.33494e-06 -5.5781e-05 -2.65847e-07)
(3.96067e-06 -5.42199e-05 -2.62464e-07)
(4.35283e-06 -5.23807e-05 -2.54872e-07)
(4.48924e-06 -5.02983e-05 -2.43613e-07)
(4.36991e-06 -4.79853e-05 -2.29937e-07)
(4.01609e-06 -4.54193e-05 -2.15409e-07)
(3.46806e-06 -4.25262e-05 -2.01192e-07)
(2.78073e-06 -3.9158e-05 -1.87877e-07)
(2.01972e-06 -3.50504e-05 -1.749e-07)
(1.25473e-06 -2.97365e-05 -1.58599e-07)
(5.73847e-07 -2.23237e-05 -1.31389e-07)
(6.91303e-08 -1.07626e-05 -6.85633e-08)
(-1.07455e-07 -9.95292e-06 -1.07221e-07)
(-8.83468e-07 -2.06848e-05 -2.04065e-07)
(-1.93573e-06 -2.76068e-05 -2.47174e-07)
(-3.13566e-06 -3.26118e-05 -2.77192e-07)
(-4.358e-06 -3.6527e-05 -3.07165e-07)
(-5.50045e-06 -3.97868e-05 -3.43831e-07)
(-6.46045e-06 -4.26358e-05 -3.89239e-07)
(-7.14442e-06 -4.52089e-05 -4.43514e-07)
(-7.4725e-06 -4.75684e-05 -5.05018e-07)
(-7.38639e-06 -4.97248e-05 -5.70911e-07)
(-6.85724e-06 -5.16539e-05 -6.37233e-07)
(-5.8911e-06 -5.33073e-05 -6.99017e-07)
(-4.53188e-06 -5.46245e-05 -7.51245e-07)
(-2.86085e-06 -5.55455e-05 -7.89092e-07)
(-9.89753e-07 -5.60198e-05 -8.08953e-07)
(9.50466e-07 -5.60181e-05 -8.09016e-07)
(2.82262e-06 -5.5541e-05 -7.89252e-07)
(4.49575e-06 -5.46171e-05 -7.51511e-07)
(5.85767e-06 -5.32969e-05 -6.99364e-07)
(6.82718e-06 -5.16414e-05 -6.37597e-07)
(7.36004e-06 -4.97107e-05 -5.71273e-07)
(7.45009e-06 -4.75534e-05 -5.05378e-07)
(7.12611e-06 -4.51937e-05 -4.43811e-07)
(6.44613e-06 -4.26206e-05 -3.89508e-07)
(5.48987e-06 -3.97723e-05 -3.44041e-07)
(4.35091e-06 -3.65138e-05 -3.07312e-07)
(3.13154e-06 -3.26004e-05 -2.77253e-07)
(1.93385e-06 -2.75976e-05 -2.47137e-07)
(8.83048e-07 -2.06784e-05 -2.03904e-07)
(1.07564e-07 -9.95025e-06 -1.07016e-07)
(-1.42275e-07 -8.806e-06 -1.42066e-07)
(-1.16121e-06 -1.83676e-05 -2.69725e-07)
(-2.54668e-06 -2.45804e-05 -3.27545e-07)
(-4.14051e-06 -2.91063e-05 -3.7058e-07)
(-5.78532e-06 -3.26768e-05 -4.17011e-07)
(-7.3494e-06 -3.56792e-05 -4.76586e-07)
(-8.69554e-06 -3.83321e-05 -5.52669e-07)
(-9.69243e-06 -4.0755e-05 -6.45934e-07)
(-1.02216e-05 -4.29994e-05 -7.54517e-07)
(-1.01888e-05 -4.50687e-05 -8.74068e-07)
(-9.53599e-06 -4.69319e-05 -9.97776e-07)
(-8.25324e-06 -4.85364e-05 -1.11652e-06)
(-6.38795e-06 -4.98187e-05 -1.21978e-06)
(-4.04839e-06 -5.07162e-05 -1.29652e-06)
(-1.39775e-06 -5.11786e-05 -1.33754e-06)
(1.36162e-06 -5.11771e-05 -1.33759e-06)
(4.01308e-06 -5.07117e-05 -1.29668e-06)
(6.3543e-06 -4.98114e-05 -1.21998e-06)
(8.22195e-06 -4.85269e-05 -1.11678e-06)
(9.50768e-06 -4.69208e-05 -9.9808e-07)
(1.01638e-05 -4.50562e-05 -8.7437e-07)
(1.02003e-05 -4.29863e-05 -7.54815e-07)
(9.67498e-06 -4.07418e-05 -6.46229e-07)
(8.68182e-06 -3.83191e-05 -5.52925e-07)
(7.33932e-06 -3.56669e-05 -4.76794e-07)
(5.77854e-06 -3.26658e-05 -4.17164e-07)
(4.13656e-06 -2.90968e-05 -3.70611e-07)
(2.54499e-06 -2.45729e-05 -3.27501e-07)
(1.16087e-06 -1.83624e-05 -2.6958e-07)
(1.42392e-07 -8.80384e-06 -1.41864e-07)
(-1.69468e-07 -7.37616e-06 -1.69286e-07)
(-1.37734e-06 -1.54828e-05 -3.20936e-07)
(-3.0261e-06 -2.08014e-05 -3.90204e-07)
(-4.9386e-06 -2.46987e-05 -4.43701e-07)
(-6.93371e-06 -2.77864e-05 -5.03926e-07)
(-8.85475e-06 -3.03935e-05 -5.83107e-07)
(-1.05338e-05 -3.27087e-05 -6.85884e-07)
(-1.18056e-05 -3.48345e-05 -8.1339e-07)
(-1.25167e-05 -3.68134e-05 -9.63285e-07)
(-1.254e-05 -3.8645e-05 -1.12978e-06)
(-1.17916e-05 -4.02984e-05 -1.30356e-06)
(-1.02472e-05 -4.17235e-05 -1.47172e-06)
(-7.95709e-06 -4.28621e-05 -1.61886e-06)
(-5.0529e-06 -4.36586e-05 -1.72887e-06)
(-1.7426e-06 -4.40684e-05 -1.78797e-06)
(1.70999e-06 -4.40671e-05 -1.78798e-06)
(5.02089e-06 -4.36546e-05 -1.72893e-06)
(7.92641e-06 -4.28558e-05 -1.61896e-06)
(1.02184e-05 -4.1715e-05 -1.47185e-06)
(1.17653e-05 -4.02885e-05 -1.30373e-06)
(1.25166e-05 -3.86342e-05 -1.12997e-06)
(1.24966e-05 -3.68021e-05 -9.63502e-07)
(1.1789e-05 -3.48231e-05 -8.13605e-07)
(1.05207e-05 -3.26978e-05 -6.86074e-07)
(8.84512e-06 -3.03834e-05 -5.83264e-07)
(6.92723e-06 -2.77773e-05 -5.04074e-07)
(4.93482e-06 -2.46911e-05 -4.43753e-07)
(3.02444e-06 -2.07953e-05 -3.90168e-07)
(1.37699e-06 -1.54787e-05 -3.20795e-07)
(1.69577e-07 -7.37453e-06 -1.69094e-07)
(-1.84576e-07 -5.75015e-06 -1.84415e-07)
(-1.50003e-06 -1.22014e-05 -3.49108e-07)
(-3.30976e-06 -1.64892e-05 -4.24249e-07)
(-5.43151e-06 -1.96417e-05 -4.83391e-07)
(-7.67111e-06 -2.21356e-05 -5.52191e-07)
(-9.85257e-06 -2.42356e-05 -6.44752e-07)
(-1.1783e-05 -2.60978e-05 -7.66775e-07)
(-1.32689e-05 -2.78074e-05 -9.19631e-07)
(-1.41287e-05 -2.94003e-05 -1.10055e-06)
(-1.42087e-05 -3.08753e-05 -1.3025e-06)
(-1.34041e-05 -3.2206e-05 -1.51402e-06)
(-1.16797e-05 -3.33513e-05 -1.71925e-06)
(-9.08783e-06 -3.42644e-05 -1.89919e-06)
(-5.77785e-06 -3.49016e-05 -2.03385e-06)
(-1.99129e-06 -3.52288e-05 -2.10623e-06)
(1.96261e-06 -3.52276e-05 -2.1062e-06)
(5.74958e-06 -3.48982e-05 -2.03383e-06)