/*--------------------------------*- C++ -*----------------------------------*\
| =========                 |                                                 |
| \\      /  F ield         | OpenFOAM: The Open Source CFD Toolbox           |
|  \\    /   O peration     | Version:  v1906                                 |
|   \\  /    A nd           | Web:      www.OpenFOAM.com                      |
|    \\/     M anipulation  |                                                 |
\*---------------------------------------------------------------------------*/
FoamFile
{
    version     2.0;
    format      ascii;
    class       volScalarField;
    location    "75";
    object      k;
}
// * * * * * * * * * * * * * * * * * * * * * * * * * * * * * * * * * * * * * //

dimensions      [0 2 -2 0 0 0 0];


internalField   nonuniform List<scalar> 
78750
(
0.82682
0.21826
0.0823079
0.00378584
0.00432321
0.00370827
0.00403188
0.00378208
0.00379553
0.00371597
0.00364822
0.00357241
0.00349291
0.00340691
0.0033145
0.00321466
0.00310576
0.00298556
0.00285026
0.00269352
0.00250584
0.00227628
0.00199887
0.00167902
0.00132942
0.000987465
0.000758609
0.000798802
0.00107357
0.00125231
0.00123122
0.00115145
0.00102852
0.000781124
0.000218674
0.00740588
0.00318854
0.00426034
0.00425578
0.00470853
0.00492116
0.00495617
0.00500663
0.00502797
0.00503918
0.00503736
0.00502296
0.00499609
0.0049565
0.00490458
0.0048413
0.00476733
0.00468324
0.00458965
0.00448728
0.00437695
0.00425928
0.0041351
0.00400661
0.00388078
0.00377224
0.0037065
0.00368243
0.00364468
0.00355584
0.0034106
0.00319257
0.0028697
0.00208932
0.000896244
0.0010513
0.00325231
0.00360603
0.00336042
0.00341403
0.00360151
0.00379069
0.00393847
0.00405882
0.00416364
0.00425481
0.00433084
0.00439363
0.00444538
0.00448663
0.00451787
0.00453981
0.0045529
0.00455733
0.00455305
0.00453984
0.00451704
0.00448434
0.00444167
0.0043882
0.00432261
0.00424381
0.00415185
0.00404714
0.00392793
0.00379107
0.00362856
0.00337961
0.00275616
0.00144767
0.000643409
0.0023199
0.00297159
0.00330268
0.00351738
0.00369335
0.00384987
0.00398925
0.00410794
0.00420608
0.0042861
0.00434997
0.00440009
0.00443892
0.00446885
0.00449185
0.00450933
0.00452214
0.00453056
0.0045345
0.0045334
0.00452624
0.00451163
0.00448795
0.00445354
0.00440701
0.00434723
0.00427511
0.00418802
0.00407655
0.00392878
0.00372372
0.00339438
0.0027547
0.00165417
0.000473761
0.0017451
0.00222568
0.00250699
0.00269493
0.00283546
0.00295547
0.00306237
0.00315701
0.00324022
0.00331312
0.00337686
0.00343263
0.0034817
0.00352538
0.00356496
0.00360174
0.00363688
0.00367132
0.00370597
0.00374131
0.00377725
0.003813
0.00384719
0.00387777
0.00390208
0.00391708
0.00391968
0.00390514
0.00386554
0.00378693
0.00364308
0.00337216
0.00280382
0.00158948
0.000654336
0.00174304
0.00212179
0.00232295
0.00246737
0.00258831
0.00269665
0.00279675
0.00289008
0.00297664
0.00305571
0.0031265
0.0031884
0.00324117
0.00328507
0.00332086
0.00334983
0.00337372
0.00339449
0.00341453
0.00343597
0.00346017
0.00348721
0.00351593
0.0035443
0.00356975
0.00358948
0.00360029
0.00359824
0.00357695
0.0035247
0.003415
0.00318292
0.00274874
0.00199342
0.000719289
0.00155225
0.00185665
0.00202352
0.00214154
0.00223416
0.00231017
0.00237539
0.00243429
0.00248992
0.00254404
0.00259753
0.00265069
0.00270333
0.00275514
0.00280582
0.00285518
0.0029031
0.00294949
0.00299461
0.00303911
0.00308393
0.00313011
0.00317829
0.00322786
0.00327648
0.00332028
0.00335481
0.00337544
0.00337565
0.00334487
0.00326756
0.00311957
0.00278619
0.00203704
0.000758022
0.00167545
0.00211573
0.00236598
0.0025258
0.00263034
0.00269503
0.00272958
0.00274077
0.00273425
0.00271625
0.00269372
0.00267384
0.00266332
0.00266738
0.00268881
0.00272754
0.00278124
0.00284605
0.00291777
0.00299225
0.00306559
0.00313413
0.00319418
0.00324232
0.00327683
0.00329849
0.00330796
0.0033016
0.00326844
0.00318628
0.00301881
0.00281135
0.00270945
0.00244552
0.0010029
0.00229564
0.0029591
0.00331645
0.00352181
0.00363667
0.00368286
0.00366885
0.00360049
0.0034857
0.00333535
0.00316337
0.00298547
0.00281742
0.00267314
0.00256283
0.00249159
0.00246079
0.00246961
0.00251528
0.00259244
0.002694
0.00281251
0.00294042
0.00306901
0.00318988
0.00329731
0.00338636
0.00345035
0.0034783
0.00344499
0.00326872
0.00281171
0.00252417
0.00249908
0.000965225
0.00277297
0.00367742
0.00412991
0.0043838
0.00453428
0.00460572
0.00460312
0.00452937
0.00439165
0.00420248
0.00397785
0.00373459
0.00348769
0.00324848
0.00302395
0.00281714
0.00263152
0.00247139
0.00234321
0.00225528
0.00221498
0.0022244
0.00227868
0.00236804
0.00248161
0.00261091
0.00275177
0.00290305
0.00306306
0.00321928
0.00330488
0.00309875
0.00279372
0.00320518
0.00134622
0.00329375
0.00413905
0.00452907
0.00477179
0.00495909
0.00510683
0.00521309
0.00527182
0.00527779
0.0052293
0.00513044
0.00499039
0.00481999
0.00462856
0.00442227
0.00420455
0.00397552
0.00373431
0.00348037
0.00321748
0.00295603
0.00271118
0.00249887
0.00233144
0.00221592
0.00215539
0.0021518
0.00220877
0.00233097
0.00251465
0.0027054
0.0027234
0.00270266
0.00349642
0.00173965
0.00333915
0.00391054
0.00418588
0.00439653
0.00459567
0.00479269
0.00498687
0.0051674
0.00532106
0.00543571
0.00550305
0.00552016
0.00548983
0.00541879
0.00531459
0.00518335
0.00502851
0.00485102
0.00464913
0.00441896
0.00415706
0.00386263
0.00353934
0.0031957
0.00284477
0.00250529
0.00220529
0.00199132
0.00194039
0.00215131
0.00255749
0.00273638
0.00287347
0.00424551
0.00209952
0.00332255
0.00372242
0.00388487
0.00397514
0.00404245
0.00410763
0.00418306
0.00427482
0.00438201
0.00449867
0.00461723
0.00472972
0.00482902
0.00490902
0.00496535
0.00499618
0.00500196
0.00498356
0.00494094
0.00487222
0.00477204
0.00463095
0.00443661
0.00417603
0.00383596
0.00340501
0.00287946
0.00228923
0.00173967
0.00152467
0.0019501
0.00247213
0.00295743
0.00487422
0.0022366
0.00349183
0.00391783
0.00410076
0.00419863
0.00425123
0.00427322
0.00427667
0.00427535
0.00428347
0.00431238
0.00436734
0.00444597
0.00454003
0.00463927
0.00473486
0.0048193
0.0048863
0.00493154
0.00495318
0.00495122
0.00492642
0.00487917
0.00480799
0.00470558
0.0045543
0.00431879
0.00393795
0.00334973
0.00257355
0.00186004
0.00183755
0.00243801
0.0031502
0.0052799
0.00239166
0.00352826
0.00419209
0.00461556
0.00490903
0.00511619
0.00524731
0.00530437
0.0052916
0.00522061
0.00511336
0.00500201
0.00492102
0.00489068
0.00490769
0.00495515
0.00501587
0.00507609
0.00512525
0.00515428
0.00515539
0.00512286
0.00505426
0.00495118
0.00481921
0.00466591
0.00448666
0.00423678
0.00380071
0.00307975
0.00225453
0.00190454
0.00243039
0.00335912
0.00540241
0.00251441
0.00370804
0.00448164
0.00492975
0.00521723
0.00541875
0.00555922
0.00564723
0.00568417
0.00566589
0.0055867
0.00545083
0.00528625
0.00514043
0.00504744
0.00500939
0.00501192
0.00504029
0.00508238
0.00512774
0.00516679
0.0051896
0.0051855
0.00514354
0.00505515
0.00491858
0.00474012
0.00451268
0.00414976
0.00347196
0.00256137
0.00210508
0.00251057
0.00335998
0.00494184
0.00284287
0.0040966
0.00470687
0.0049755
0.00512819
0.00523106
0.00530439
0.00536357
0.00541966
0.00547002
0.00549731
0.0054809
0.00541282
0.00530841
0.00519775
0.00510276
0.00502951
0.00497576
0.00493752
0.00491107
0.00489318
0.00488087
0.00487098
0.00485919
0.00483869
0.00479948
0.00472928
0.00461603
0.00442206
0.00398538
0.00304887
0.00222099
0.00257218
0.00332007
0.00440925
0.00345564
0.00469893
0.00514643
0.00532453
0.00541909
0.00546745
0.00548433
0.00549665
0.00552807
0.00558082
0.00563742
0.00567661
0.00568429
0.00565453
0.00558915
0.00549688
0.0053886
0.00527269
0.00515399
0.00503515
0.00491792
0.0048041
0.004696
0.0045966
0.00450928
0.00443712
0.00438127
0.00433618
0.0042836
0.00416188
0.00371593
0.00267562
0.00245843
0.00320593
0.00407057
0.00457117
0.00521578
0.00531715
0.00534538
0.00536781
0.00538098
0.00538434
0.00539435
0.00542252
0.00546708
0.00551893
0.0055684
0.00560751
0.00562944
0.00562834
0.00560006
0.00554338
0.0054599
0.00535299
0.0052266
0.00508474
0.00493169
0.00477231
0.00461208
0.00445677
0.00431191
0.0041827
0.00407396
0.00398766
0.0039239
0.00383913
0.00338017
0.00260834
0.00283814
0.00350038
0.0049387
0.00516714
0.00519122
0.00523275
0.00532923
0.00544999
0.00555375
0.00562864
0.00567508
0.00569675
0.00569917
0.0056879
0.00566688
0.00563792
0.00560085
0.00555391
0.00549423
0.0054185
0.00532364
0.00520741
0.00506869
0.00490818
0.0047292
0.00453836
0.0043448
0.00415787
0.00398435
0.00382622
0.00367919
0.00354147
0.00343564
0.00328441
0.00284366
0.00298919
0.00387614
0.00458779
0.00482112
0.00485468
0.00490721
0.00502362
0.0051856
0.00535426
0.0055067
0.00563205
0.005725
0.00578427
0.00581165
0.0058109
0.00578662
0.0057431
0.00568357
0.00560976
0.00552182
0.00541843
0.0052972
0.00515491
0.00498823
0.0047957
0.00458088
0.00435434
0.00413024
0.00391868
0.00371872
0.0035178
0.00332584
0.0032143
0.00315574
0.00297309
0.00303337
0.00394314
0.00402732
0.00454492
0.00462137
0.00462392
0.0046322
0.00468769
0.00479887
0.00494316
0.00509409
0.00523372
0.00535177
0.0054429
0.00550492
0.00553798
0.00554382
0.0055249
0.00548362
0.00542164
0.0053395
0.00523661
0.00511073
0.00495731
0.00477069
0.00454937
0.00430387
0.00405551
0.00381878
0.00357889
0.00329057
0.00298666
0.00286818
0.00285609
0.00296628
0.00326863
0.0045867
0.00401571
0.00459828
0.00467071
0.004648
0.00461138
0.00460772
0.00467236
0.00479778
0.00494731
0.00508979
0.00520995
0.00530266
0.00536716
0.00540446
0.00541643
0.00540515
0.00537249
0.0053197
0.00524713
0.00515502
0.00504289
0.00490651
0.00473786
0.00452995
0.00428737
0.00403095
0.00377168
0.00346418
0.00303232
0.00264073
0.00264273
0.00283744
0.00304756
0.00341861
0.00432062
0.00380904
0.00429409
0.00438016
0.00436666
0.00431736
0.00426337
0.00425697
0.00434984
0.00452917
0.00473382
0.00491937
0.00506924
0.00517979
0.0052525
0.00529107
0.00529972
0.00528253
0.00524303
0.00518361
0.00510617
0.00501286
0.00490437
0.0047777
0.00462658
0.004444
0.0042266
0.00396975
0.00364043
0.00319029
0.00267462
0.00238648
0.00263299
0.00299366
0.00318411
0.00352592
0.00358373
0.0044082
0.00464365
0.00468403
0.00462963
0.00448843
0.00428612
0.00413737
0.00416415
0.00433817
0.00455762
0.004764
0.00493705
0.00507
0.00516202
0.00521534
0.00523362
0.00522109
0.00518206
0.00512025
0.00503916
0.00494299
0.00483595
0.00472073
0.00459429
0.00444791
0.00427301
0.0040664
0.0038049
0.00338704
0.00271789
0.00228849
0.00257276
0.00274289
0.00291307
0.00376227
0.00463125
0.00484632
0.00488172
0.00484439
0.00473813
0.00454804
0.00430867
0.00417291
0.00423512
0.00441099
0.00460908
0.00479369
0.00495186
0.00507697
0.00516559
0.00521653
0.00523007
0.00520738
0.00515034
0.00506149
0.00494438
0.00480359
0.00464388
0.00446916
0.00428105
0.00407697
0.0038496
0.00358886
0.00327856
0.0028759
0.00236704
0.00213712
0.00238044
0.00278424
0.00421334
0.00469371
0.00481962
0.00484693
0.00482936
0.00477133
0.00467285
0.00453633
0.00441295
0.00440347
0.00450595
0.00465315
0.0048065
0.00495063
0.00507735
0.00518117
0.00525832
0.00530625
0.0053232
0.005308
0.00525996
0.00517896
0.00506546
0.0049208
0.00474778
0.00455163
0.0043411
0.0041265
0.0039096
0.0036656
0.00333349
0.00283839
0.00225984
0.00209133
0.00253803
0.00447066
0.0048408
0.00490568
0.00489178
0.00483896
0.00475629
0.00466672
0.00459674
0.00456094
0.00457576
0.00464387
0.00474333
0.00485453
0.00496582
0.00506959
0.00516026
0.00523367
0.00528671
0.00531702
0.00532268
0.00530219
0.00525468
0.00518019
0.00507964
0.00495415
0.00480417
0.00462919
0.00442768
0.00419687
0.00392949
0.00360102
0.00315569
0.00254896
0.00203167
0.00219004
0.00463805
0.00481069
0.00483367
0.00481346
0.00476885
0.00471245
0.00466618
0.00464412
0.00464864
0.00467928
0.00473567
0.00481318
0.0049036
0.00499951
0.00509466
0.00518383
0.00526242
0.00532625
0.00537158
0.00539505
0.00539387
0.00536567
0.00530857
0.00522158
0.00510518
0.00496123
0.00479178
0.00459736
0.00437569
0.00411804
0.0037993
0.00336223
0.00273759
0.00204293
0.00176901
0.00449885
0.0046695
0.0047416
0.00476548
0.00475718
0.00472332
0.00467901
0.00463924
0.00461535
0.00461884
0.00465504
0.00471664
0.00479036
0.00486669
0.00494169
0.00501293
0.00507861
0.00513683
0.0051853
0.00522133
0.0052419
0.00524389
0.00522425
0.00518038
0.00511033
0.00501267
0.0048862
0.00472906
0.00453702
0.00429963
0.00399136
0.00355515
0.00290892
0.00210637
0.00154831
0.00398686
0.00461236
0.0048684
0.00498555
0.00503309
0.00501143
0.00491027
0.00473409
0.00452483
0.00436396
0.00432543
0.00440252
0.00453064
0.00466294
0.00478097
0.00488068
0.00496198
0.00502619
0.00507483
0.00510894
0.00512874
0.00513362
0.00512217
0.00509239
0.00504186
0.00496781
0.004867
0.00473529
0.0045659
0.00434658
0.00405265
0.00363255
0.00300909
0.0021979
0.00151652
0.00371085
0.00453263
0.00487549
0.00503242
0.00511519
0.00514055
0.00509317
0.00494012
0.00465498
0.00429038
0.00402138
0.00397887
0.00409147
0.00424829
0.00440233
0.00453959
0.00465624
0.00475126
0.00482522
0.00487953
0.00491576
0.00493519
0.00493843
0.00492518
0.00489399
0.00484218
0.00476567
0.00465815
0.00451005
0.00430665
0.00402187
0.00360713
0.00299385
0.00222913
0.00164135
0.00412528
0.00471447
0.0049664
0.00507332
0.00511691
0.00510923
0.00504312
0.00490509
0.00467868
0.00437121
0.00409354
0.00401087
0.00409727
0.00423371
0.00436948
0.00449251
0.00459845
0.00468496
0.00475093
0.00479634
0.00482217
0.00483026
0.00482272
0.00480108
0.00476557
0.00471468
0.00464491
0.00454948
0.00441798
0.00423436
0.00397171
0.00358028
0.0029925
0.0022892
0.00181576
0.00477898
0.00494739
0.00502972
0.00508394
0.00511597
0.00511116
0.00504733
0.00490177
0.00466179
0.0043383
0.00400415
0.00381422
0.00382681
0.00394372
0.00408902
0.00423467
0.00436967
0.00448768
0.00458427
0.00465617
0.00470124
0.00471945
0.00471337
0.00468708
0.00464405
0.00458558
0.00451001
0.00441184
0.00428187
0.00410492
0.00385595
0.00348135
0.00292592
0.00231818
0.00201804
0.0047318
0.00483283
0.00496776
0.00506647
0.00514018
0.0051855
0.00519451
0.00515521
0.00505244
0.0048668
0.0045821
0.00424666
0.0040081
0.00393678
0.00397882
0.00407326
0.00418892
0.00430877
0.0044211
0.00451695
0.00458825
0.00462831
0.00463411
0.00460814
0.00455668
0.00448567
0.00439715
0.00428902
0.00415516
0.00398383
0.00375165
0.00339942
0.00287991
0.00236091
0.00221656
0.00407065
0.00463891
0.0049323
0.00508793
0.00518242
0.00522937
0.00522384
0.00515604
0.00502268
0.0048349
0.0046054
0.00433515
0.00405707
0.00386591
0.00380652
0.00384573
0.00394059
0.0040629
0.00419535
0.00432558
0.00444167
0.00453052
0.00457876
0.00457801
0.00452984
0.00444381
0.00432933
0.00419212
0.00403351
0.00385235
0.00363431
0.00332267
0.002859
0.00243328
0.00239675
0.00467569
0.0050402
0.00516841
0.00523915
0.005291
0.00533041
0.00535324
0.00534839
0.00529707
0.00517159
0.00494576
0.00462003
0.00423568
0.00388911
0.00368321
0.00362317
0.00366053
0.00375651
0.00388604
0.0040348
0.00419109
0.00433985
0.00446045
0.00453006
0.00453173
0.00446027
0.00432199
0.00412956
0.00389602
0.00363498
0.00335974
0.00307045
0.00271522
0.00243301
0.00255299
0.00519946
0.00514411
0.00519467
0.0052374
0.00525841
0.00524359
0.00517751
0.00505354
0.00488802
0.00471032
0.0045315
0.00433226
0.0040887
0.00382066
0.00360733
0.0034969
0.00347342
0.00351175
0.00359665
0.00371997
0.00387847
0.00406333
0.00425233
0.00441025
0.00450523
0.00451979
0.00444849
0.00429011
0.00404439
0.00371449
0.00331543
0.0029039
0.00254677
0.00236325
0.00264356
0.00491364
0.00503091
0.00517289
0.00526645
0.00533173
0.00536715
0.00536007
0.00529028
0.00513298
0.00487841
0.00455306
0.00420379
0.00387137
0.00358912
0.00338849
0.00328137
0.00324892
0.00326737
0.00332325
0.00341406
0.00354534
0.0037246
0.00394619
0.00417718
0.00436777
0.00448304
0.00451174
0.00445103
0.00429101
0.00400809
0.00357754
0.00303108
0.00252719
0.00232726
0.00263181
0.0051817
0.00525546
0.0053155
0.00534045
0.0053369
0.00529749
0.0052199
0.0051262
0.00503538
0.00492398
0.00475164
0.00449044
0.00413503
0.00372465
0.0033564
0.00312212
0.00302239
0.00300706
0.00303685
0.00309504
0.00318266
0.00331428
0.00350437
0.00374597
0.00400256
0.00422139
0.00436364
0.00441308
0.00436238
0.00419751
0.00388498
0.00339886
0.00283629
0.00249624
0.00238033
0.00537735
0.00532336
0.00540147
0.0054619
0.00549664
0.00549003
0.00542706
0.00531635
0.00518001
0.00502489
0.00484248
0.00461406
0.00431382
0.00392448
0.00349109
0.00314549
0.00296044
0.002886
0.00286124
0.00285156
0.00284732
0.00285139
0.00286574
0.00289663
0.00295264
0.00302932
0.00311567
0.00320861
0.00328675
0.00332039
0.00327009
0.00308801
0.00276707
0.00240494
0.00195659
0.00524649
0.00519637
0.00524248
0.00526626
0.00525724
0.0051973
0.0050844
0.00496652
0.00487985
0.00479672
0.00467898
0.00450747
0.00427827
0.00399723
0.00367731
0.00336007
0.00313559
0.00305958
0.00308298
0.00313678
0.00318023
0.00320234
0.00320196
0.00317233
0.00310886
0.00300856
0.00286522
0.00269431
0.00253158
0.00239774
0.00227595
0.0021401
0.00196252
0.0017706
0.00153276
0.00564187
0.00554258
0.0055866
0.00562742
0.00564049
0.00559347
0.00545789
0.00525735
0.00505774
0.00488993
0.00474445
0.0046016
0.00444137
0.00424397
0.00399201
0.00368217
0.00336008
0.00312911
0.00304608
0.00306049
0.00312392
0.00320794
0.00329012
0.00335362
0.00338118
0.00336333
0.00330594
0.00321794
0.0030896
0.00289635
0.00264017
0.00232895
0.00195999
0.0015686
0.00126037
0.00485016
0.00500612
0.005134
0.00521074
0.00525681
0.00526639
0.00523142
0.00516677
0.00510485
0.00505082
0.00498727
0.00490064
0.00478515
0.00463743
0.00445349
0.00422737
0.0039482
0.00360358
0.00322391
0.00292258
0.00276927
0.0027153
0.00272321
0.00277272
0.00283812
0.00289336
0.00292013
0.00291417
0.00288222
0.00283028
0.00275017
0.002609
0.00233508
0.00180832
0.000975259
0.00571777
0.00565404
0.00566351
0.00567879
0.00567589
0.00562399
0.00549164
0.00529873
0.00512419
0.00501256
0.00494557
0.00489089
0.00482869
0.00474981
0.00464925
0.00452282
0.00436617
0.00417457
0.0039399
0.0036514
0.00331073
0.00296248
0.00267454
0.00245907
0.00230275
0.00219603
0.00212945
0.00209187
0.00206883
0.00204808
0.0020249
0.00199316
0.00191626
0.00161682
0.00074388
0.00523695
0.00507101
0.00511908
0.00517738
0.0052247
0.00524097
0.00520998
0.00514162
0.0050664
0.00500269
0.00494857
0.00489544
0.00483629
0.00476635
0.00468191
0.00457956
0.00445556
0.00430632
0.00412693
0.00391091
0.00365485
0.00337375
0.00309116
0.00281398
0.00254764
0.00230338
0.00209174
0.00191475
0.00175957
0.00162741
0.00153808
0.00148298
0.00142817
0.00125689
0.000672454
0.00538019
0.00541048
0.00547376
0.00551452
0.0055292
0.00549633
0.00539088
0.00522721
0.00507221
0.0049685
0.00490523
0.00485676
0.0048065
0.00474701
0.00467502
0.00458836
0.00448478
0.00436141
0.00421404
0.00403699
0.00382665
0.00359162
0.00334392
0.00308837
0.00283022
0.00257602
0.00233306
0.00211124
0.00192094
0.00175309
0.00160201
0.0014779
0.00136289
0.00117245
0.00073268
0.00516296
0.00510885
0.00517448
0.00523995
0.00529859
0.00533365
0.00531944
0.00524154
0.00512859
0.00502931
0.00495808
0.00490137
0.00484482
0.00478063
0.00470525
0.00461693
0.00451387
0.00439383
0.00425398
0.00409078
0.00390215
0.00369248
0.00346915
0.00323738
0.00300206
0.0027676
0.00253816
0.00231838
0.00211534
0.00193474
0.00177067
0.00161087
0.00144196
0.00122029
0.000869722
0.00511676
0.00520586
0.00529191
0.00534544
0.00537757
0.00537832
0.00532928
0.00522121
0.00508022
0.00495847
0.004881
0.00483279
0.0047911
0.00474284
0.00468264
0.00460821
0.00451758
0.00440908
0.00428075
0.00413041
0.00395639
0.00375963
0.00354697
0.00332866
0.00311016
0.00289387
0.00268291
0.0024807
0.00229242
0.00211676
0.00194225
0.00174989
0.00152909
0.00130299
0.00107088
0.00492634
0.00514837
0.00525982
0.00532873
0.00538385
0.00542743
0.00544287
0.00539374
0.0052631
0.00509608
0.00495846
0.00486846
0.00480624
0.00475041
0.00468957
0.00461792
0.00453268
0.00443159
0.00431119
0.00416925
0.00400612
0.00382283
0.00362257
0.00341226
0.00320026
0.0029926
0.00279327
0.00260425
0.00242277
0.00224355
0.00205729
0.00184364
0.00160141
0.00140517
0.0013367
0.0052978
0.00531392
0.00532656
0.00533128
0.00532928
0.00532547
0.00532683
0.00531251
0.00524557
0.00512396
0.00499396
0.00489489
0.00482481
0.00476593
0.00470548
0.00463767
0.00455866
0.00446231
0.00434476
0.00420653
0.00404872
0.00387319
0.0036829
0.00348225
0.00327704
0.00307258
0.00287263
0.00267877
0.00248967
0.00230107
0.00210298
0.00188165
0.00165418
0.00152474
0.00165279
0.00550331
0.00539576
0.00537406
0.00536235
0.00534448
0.00532481
0.005324
0.00532112
0.00527375
0.0051718
0.00504547
0.00493561
0.00485379
0.00478874
0.00472721
0.0046616
0.00458371
0.00448663
0.00436836
0.00422957
0.00407173
0.00389713
0.00370915
0.00351238
0.00331033
0.00310407
0.00289683
0.00269276
0.00249288
0.0022957
0.00209796
0.00189973
0.00172505
0.00168629
0.00198859
0.005976
0.00552952
0.00540234
0.00533724
0.00527308
0.00521458
0.00521357
0.00524659
0.00524687
0.00519149
0.00509807
0.0049999
0.00491601
0.00484516
0.0047782
0.00470778
0.0046255
0.00452431
0.00440204
0.00425955
0.00409836
0.00392082
0.00373042
0.0035322
0.00332681
0.00311089
0.00288639
0.00266017
0.00244012
0.00223682
0.00206123
0.00191623
0.00182638
0.00188477
0.00231961
0.00608808
0.00547059
0.00533415
0.00526663
0.00518476
0.00509322
0.0050752
0.00512142
0.00515589
0.00514916
0.00510641
0.00504452
0.00497817
0.00491201
0.00484284
0.00476612
0.00467674
0.00456902
0.00444023
0.00429149
0.00412451
0.00394184
0.00374725
0.00354323
0.00332583
0.00309093
0.0028425
0.00259065
0.00235479
0.00216306
0.00202746
0.00194255
0.001935
0.00206882
0.00260705
0.00600422
0.00544442
0.00534486
0.00529076
0.00519913
0.00506471
0.00499931
0.00504518
0.00510794
0.00513359
0.00512074
0.00508283
0.00503172
0.00497262
0.00490502
0.00482692
0.00473523
0.00462604
0.00449626
0.00434583
0.0041769
0.00399229
0.00379554
0.00358348
0.00334852
0.00308915
0.00281038
0.00252687
0.00227437
0.0021007
0.00200901
0.00197561
0.00202282
0.00220191
0.00282023
0.00560549
0.00532445
0.005316
0.00530153
0.00521966
0.00503366
0.00484323
0.00482583
0.00492793
0.0050264
0.00507993
0.00509098
0.00507119
0.00502928
0.0049702
0.00489583
0.0048057
0.00469715
0.00456775
0.00441779
0.00424928
0.00406476
0.00386431
0.00364203
0.00339102
0.00310958
0.00280174
0.00248405
0.00220606
0.00204036
0.00198952
0.00200173
0.00208308
0.0022877
0.00296435
0.00545048
0.00539416
0.00545523
0.00548483
0.00544863
0.00528431
0.00497505
0.00475019
0.00476409
0.0048807
0.00498347
0.00504266
0.00506189
0.00504869
0.00501049
0.00495214
0.00487442
0.00477509
0.00465322
0.00451011
0.00434744
0.00416718
0.00396903
0.00374553
0.00348802
0.00319418
0.00286605
0.00251682
0.00219684
0.00200156
0.00196488
0.00201266
0.00212
0.0023456
0.00307873
0.00523162
0.00528824
0.0053885
0.00545287
0.00546769
0.00537818
0.00510707
0.00474927
0.00462273
0.0047194
0.00486144
0.00496794
0.00502664
0.00504472
0.00503196
0.00499414
0.00493181
0.00484462
0.00473352
0.00459979
0.00444484
0.00427021
0.00407797
0.00386048
0.00360482
0.00330697
0.00296719
0.00259399
0.00222909
0.00197762
0.00192623
0.00200441
0.00214094
0.00239353
0.00319197
0.00547552
0.00540128
0.00545573
0.00550601
0.00552612
0.00546595
0.00525332
0.00487982
0.00461582
0.00463105
0.00477022
0.00490113
0.00498581
0.00502749
0.00503623
0.00501767
0.00497274
0.00490193
0.00480589
0.00468545
0.00454194
0.00437709
0.00419332
0.00398598
0.00374146
0.00345
0.00310994
0.00272485
0.00232153
0.00199489
0.00188289
0.00197006
0.00213847
0.00242579
0.00328948
0.00542529
0.00525015
0.00527888
0.00532028
0.00533801
0.00528602
0.00512454
0.00486181
0.00463481
0.00462329
0.00474887
0.00488053
0.00497131
0.00502194
0.0050418
0.00503584
0.00500455
0.00494775
0.00486553
0.00475835
0.0046272
0.00447373
0.00430039
0.00410432
0.00387275
0.00359325
0.00326193
0.00287877
0.0024567
0.00206619
0.00186222
0.00191725
0.00210821
0.00243168
0.00334245
0.00553629
0.00527953
0.00528218
0.00530751
0.00530359
0.00521502
0.0050211
0.00478538
0.00462361
0.00463188
0.00475269
0.00487877
0.00496913
0.00502372
0.00505008
0.00505266
0.00503184
0.00498675
0.00491695
0.00482257
0.00470436
0.00456384
0.00440344
0.00421971
0.00400096
0.00373656
0.00342157
0.00305287
0.00263351
0.00220707
0.00190966
0.00188334
0.00206652
0.00241377
0.00334299
0.00521971
0.0050306
0.00506647
0.00511659
0.00513629
0.00506589
0.00488982
0.00468854
0.00458417
0.00462665
0.00475089
0.00487312
0.00496341
0.00502184
0.00505401
0.0050638
0.00505177
0.00501676
0.00495806
0.0048756
0.00477004
0.00464288
0.00449626
0.00432476
0.00411745
0.00386778
0.00357113
0.00322253
0.0028203
0.0023894
0.00203197
0.00191272
0.00205491
0.00239959
0.00331192
0.00510452
0.00498097
0.00502142
0.0050732
0.005102
0.0050471
0.00487999
0.00466456
0.00453575
0.00456639
0.0046906
0.00481999
0.00492061
0.00499006
0.00503312
0.00505375
0.00505304
0.00503008
0.00498404
0.00491484
0.00482314
0.0047104
0.00457619
0.00441529
0.00422071
0.00398708
0.00370968
0.00338273
0.00300304
0.0025856
0.00220409
0.00201214
0.00209527
0.00240938
0.00327469
0.00488871
0.00480753
0.00485446
0.00491409
0.00496795
0.00495992
0.00484887
0.00466022
0.00450176
0.00448904
0.0045973
0.00473172
0.00484462
0.00492748
0.00498357
0.00501724
0.00502998
0.00502075
0.00498864
0.00493347
0.00485586
0.00475714
0.00463567
0.0044864
0.00430469
0.00408639
0.00382646
0.00351916
0.00316128
0.00276417
0.00238456
0.00215332
0.00218081
0.00244784
0.00325039
0.00489811
0.00477542
0.0047901
0.00483248
0.00488331
0.0048931
0.00482039
0.00466778
0.00449624
0.00442464
0.00449438
0.0046236
0.00474562
0.00484049
0.00490855
0.00495478
0.00498117
0.00498615
0.00496848
0.00492778
0.00486446
0.00477964
0.00467134
0.00453473
0.00436627
0.00416242
0.00391802
0.00362744
0.003288
0.00291063
0.002544
0.00229908
0.00228514
0.0025034
0.00324517
0.00482247
0.0046503
0.00464372
0.00467467
0.00472485
0.00474886
0.00471021
0.00460818
0.00447256
0.00438436
0.00441699
0.00452819
0.00464868
0.00474847
0.00482365
0.0048785
0.00491529
0.00493219
0.0049274
0.00490011
0.00485036
0.00477862
0.00468272
0.00455843
0.00440279
0.00421193
0.00398065
0.00370327
0.00337772
0.0030166
0.00266687
0.00242494
0.00238614
0.00256346
0.00325503
0.00475887
0.00456926
0.0045428
0.00455352
0.00458698
0.00460893
0.00458644
0.00451637
0.00441611
0.00433509
0.00434175
0.00443063
0.0045445
0.00464691
0.00472809
0.00478933
0.00483336
0.00485979
0.00486634
0.00485168
0.0048154
0.0047566
0.00467286
0.00456127
0.00441886
0.00424134
0.00402302
0.00375752
0.00344246
0.00309186
0.00275472
0.00252006
0.00246746
0.00261462
0.00327089
0.00465958
0.00449553
0.00445498
0.00444205
0.00445057
0.00446219
0.00444506
0.0043936
0.0043196
0.00425499
0.00425159
0.00432196
0.0044273
0.0045309
0.00461763
0.00468551
0.00473625
0.0047705
0.00478694
0.00478392
0.00476013
0.00471395
0.00464345
0.00454649
0.00441958
0.00425805
0.00405555
0.00380457
0.00350096
0.00315768
0.00282534
0.00259265
0.0025304
0.00265721
0.0032961
0.00467135
0.00450608
0.00443612
0.00438946
0.0043642
0.00436047
0.0043421
0.00429477
0.00422556
0.00415846
0.00413682
0.00418551
0.00428117
0.00438656
0.0044798
0.00455546
0.00461426
0.00465696
0.0046831
0.0046914
0.00468035
0.00464837
0.0045938
0.00451413
0.00440585
0.0042642
0.00408252
0.00385224
0.00356649
0.00323356
0.00290116
0.00266117
0.0025874
0.00270048
0.00334067
0.00481458
0.00456046
0.00443513
0.00434611
0.0042888
0.00428002
0.00426776
0.00422517
0.00415715
0.0040807
0.00403146
0.00404648
0.00412277
0.00422524
0.00432292
0.00440503
0.00447092
0.00452153
0.00455681
0.00457578
0.0045771
0.00455947
0.00452121
0.00445981
0.00437198
0.00425316
0.00409678
0.0038938
0.00363492
0.00332208
0.00299474
0.0027453
0.00265863
0.00276238
0.00341984
0.0050291
0.00460994
0.00441519
0.00427771
0.00418274
0.00417945
0.00419724
0.00417734
0.00411869
0.00403622
0.00395802
0.00392776
0.00396833
0.00405672
0.00415432
0.00424088
0.00431234
0.00436925
0.00441184
0.00443946
0.00445107
0.00444572
0.00442166
0.0043768
0.00430832
0.00421216
0.0040823
0.00390993
0.00368458
0.00340286
0.00309402
0.00284499
0.00275042
0.00284947
0.00353318
0.00522266
0.00466948
0.00443636
0.00426169
0.00410029
0.00404846
0.00408375
0.00410446
0.00407815
0.0040119
0.00392374
0.00385112
0.00383986
0.00389776
0.0039865
0.00407295
0.00414729
0.00420813
0.00425553
0.00428901
0.00430781
0.00431084
0.00429671
0.00426387
0.00421016
0.00413238
0.0040255
0.00388187
0.00369158
0.00344902
0.00317503
0.00294544
0.00285429
0.00295254
0.00366087
0.00531301
0.00478662
0.00459989
0.00443724
0.0042149
0.00401803
0.00396901
0.00399657
0.00400812
0.00397637
0.00390481
0.00381438
0.00374975
0.00375612
0.00382176
0.00390449
0.00398094
0.00404422
0.00409459
0.00413175
0.004155
0.00416296
0.00415441
0.0041282
0.00408292
0.00401642
0.00392524
0.00380389
0.00364492
0.00344357
0.00321522
0.00302137
0.00294454
0.00304492
0.00377156
0.00528277
0.00498925
0.00492618
0.00483034
0.00462065
0.00428275
0.00400803
0.00391195
0.00391276
0.00391443
0.00387966
0.00380598
0.00371334
0.0036569
0.00367508
0.00374053
0.00381528
0.00388208
0.00393658
0.00397719
0.00400343
0.0040141
0.00400805
0.00398424
0.00394164
0.00387897
0.00379452
0.00368596
0.00355044
0.00338702
0.00320795
0.00305845
0.00300215
0.00310465
0.00383533
0.00515872
0.0052146
0.00529362
0.0052923
0.00518571
0.00489405
0.00443622
0.00405424
0.00388513
0.00385327
0.00384418
0.00380594
0.00372669
0.00363006
0.0035787
0.00359957
0.0036601
0.00372633
0.00378421
0.00382985
0.00386093
0.00387507
0.00387097
0.00384756
0.00380402
0.00373974
0.00365446
0.00354889
0.00342549
0.00328911
0.00315131
0.0030424
0.00300657
0.00311222
0.00384722
0.00508103
0.00541081
0.00556768
0.00563194
0.00563094
0.00551857
0.00517695
0.00461549
0.00412167
0.00389147
0.00383581
0.00381691
0.00377042
0.00368192
0.00357959
0.00352659
0.00354295
0.00359512
0.00365252
0.00370202
0.00373831
0.00375806
0.00375866
0.00373803
0.00369472
0.00362793
0.00353803
0.0034279
0.00330474
0.00317999
0.00306779
0.0029887
0.00297142
0.00308517
0.00383199
0.00533437
0.00562129
0.00571833
0.00575727
0.0057736
0.00576499
0.00566165
0.00529257
0.00466244
0.00414882
0.00393444
0.00387886
0.00384424
0.00377981
0.00367739
0.00356673