/*--------------------------------*- C++ -*----------------------------------*\
| =========                 |                                                 |
| \\      /  F ield         | OpenFOAM: The Open Source CFD Toolbox           |
|  \\    /   O peration     | Version:  v1912                                 |
|   \\  /    A nd           | Website:  www.openfoam.com                      |
|    \\/     M anipulation  |                                                 |
\*---------------------------------------------------------------------------*/
FoamFile
{
    version     2.0;
    format      ascii;
    class       volScalarField;
    location    "200/oil";
    object      wallHeatFlux;
}
// * * * * * * * * * * * * * * * * * * * * * * * * * * * * * * * * * * * * * //

dimensions      [1 0 -3 0 0 0 0];


internalField   uniform 0;

boundaryField
{
    maxY
    {
        type            calculated;
        value           uniform 0;
    }
    minX
    {
        type            calculated;
        value           uniform 0;
    }
    maxX
    {
        type            calculated;
        value           uniform 0;
    }
    minY
    {
        type            calculated;
        value           uniform 0;
    }
    minZ
    {
        type            calculated;
        value           uniform 0;
    }
    maxZ
    {
        type            calculated;
        value           uniform 0;
    }
    oil_to_sphere
    {
        type            calculated;
        value           nonuniform List<scalar> 
1536
(
4293.7
4035.93
4034.9
3553.9
3532.61
4018.89
3813.68
3892.77
3861.6
3590.14
3404.49
3623.45
3855.65
3638.88
3334.29
3781.79
4021.23
4047.46
3767.02
3843.08
3955.7
3863.87
3884.93
3779.19
3805.78
3791.87
3801.39
3746.78
4009.08
3877.09
4086.45
4036.32
4047.18
3781.1
3797.67
3746.44
3768
3690.73
3741.71
3797.98
3729.96
3769.62
3853.06
3909.98
3974.83
3794.86
3965.65
3894.92
3348.87
3792.88
3931.85
3866.46
3888.76
3775.74
4000.18
4180.35
3879.82
3844.07
3953.85
3925.06
3848.67
3852.13
3845.22
3769.66
3797.44
3836.33
3841.88
3939.49
3933.86
3995.69
3768.4
3549.02
3626.84
3792.92
3789.55
4196.26
4049.16
3702.96
3782.61
4040.88
3958.98
3924.72
3548.06
3539.64
4007.52
4247.02
3492.12
3819.95
3927.33
3924.92
3868.58
3754.56
3752.18
3762.98
3790.68
3906.58
3961.16
3976.88
4066.32
3918.84
3961.94
3763.99
4301.63
3936.24
3616.43
3786
3804.82
3574.06
3575.01
4311.96
4045.68
3894.9
3850.74
3888.82
3513.08
3545.87
3465.36
4132.62
4273.02
4063.29
3873.71
3888.27
3738.84
3956.64
4081.2
3919.66
3868.45
3720.9
3972.42
3947.69
3838.5
3937.79
3995.8
3804.42
3823.32
4006.54
3889.39
4044.07
3726.7
4023.55
3862.55
3946.09
3948.15
3856.18
3824.96
3850.82
3902.91
4160.95
3869.27
4312.06
3982.26
4065.39
3878.88
3894.73
3782.11
3937.69
3999.87
3982.41
4363.99
4114.63
4044.61
4179.98
3643.5
3686.08
3758.29
3750.93
3987.52
4128.58
4058.2
4203.71
3750.84
3767.79
3708.7
3966.41
3892.92
3909.66
4224.54
3721.2
3688.85
4243.97
3738.03
3686.86
3680.05
3702.99
3965.06
4249.27
4117.85
3737.77
3659.72
4043.86
3678.63
3998.61
3993.54
4109.89
3621.46
3288.72
4102.61
4135.66
3828.95
3783.58
3870.12
3813.44
4051.37
4100.71
3980.14
3926.8
3779.04
4128.49
4072.84
3934.9
3718.48
3796.42
3786.11
3835.53
3973.32
4196.24
3702.64
3633.65
3639.7
3258.68
4027.11
3965.06
3921.57
3871.09
3884.54
4135.54
3998.99
3813.47
4030.31
3597.95
3749.64
3305.47
3850.55
4029
4103.93
4082.19
4023.34
3967.48
4059.08
3621.37
3657.34
3743.54
4138.68
3711.21
3314.03
3470.72
3963.27
3895.01
4243.51
4387.44
3894.9
3544.69
3261.68
3924.41
4100.01
3762.93
3770.97
3495.37
3753.13
4133.32
4264.66
3860.33
3773.95
4160.34
4128.63
3792.05
3599.45
3846.1
4204.38
4140.57
3968.28
3995.84
4091.9
3684.72
3780.16
4107.58
3995.51
4062.4
3856.53
4033.95
4190.29
3984
3961.71
4150.92
3773.18
3766.31
3796.99
3734.89
3756.28
4114.85
4208.12
3690.34
3817.82
3804.76
3819.71
3737.91
3890.14
3858.61
3703.32
3502.68
3748.29
3625.8
3725.5
4251.86
4157.95
4155.76
4373.82
3662.3
3681.43
3902.3
4310.36
4297.5
3755.22
3862.23
3740.13
3990.44
3780.16
3958.05
3979.89
4061.24
3999.08
3807.9
4013.76
3743.18
4094.99
4129.38
4033.39
4014.87
3701.7
4219.59
4220.42
4006.52
3613.16
3771.23
3822.87
3981.81
3955.39
3987.18
3694.04
4091.06
4132.45
4057.06
4153.71
3939.43
3912.16
3851.35
3659.85
3921.09
3991.54
3655.26
3634.01
3680.97
4290.74
4091.62
4157.74
3947.91
3910.37
4123.56
3640.81
4235.62
4056.8
3909.79
3908.38
3627.17
4067.03
4084.41
3716.02
3909.15
3841.84
3777.27
3994.27
4086.59
3853.32
3796.96
3670.57
4195.52
4095.34
3634.68
4127.7
4097.53
4029.23
4192.63
3905.69
4007.1
3597.46
3618.02
3981.19
4349.56
4042.32
4253.42
3952.87
3810.48
4065.31
3688.84
3752.29
3968.68
4081.85
3998.72
3947.79
3702.38
3686.67
4110.7
4127.55
4096.65
3906.66
3762.65
3961.41
4013.8
4073.38
3920.16
3830.22
3720.41
3895.42
3679.71
3575.71
3761.56
3719.8
3896.4
3586.87
3811.1
4237.33
3805.63
3802.48
4081.85
4075.31
3984.05
3843.72
3647.31
4039.02
4155.94
3974.04
3928.03
4041.11
3867.63
3889.18
3944.45
3546.91
3994.23
4129.82
4157.88
4067.73
4013.18
3992.48
3921.02
3838.31
3688.27
3878.94
3711.78
3627.12
3733.27
3567.63
4260.12
4225.62
4127.48
4336.9
3720.58
4259.49
3688.96
3738.31
4018.91
3712.77
3682.56
3813.83
3796.73
4235.26
4162.52
3944.35
3966.01
4191.34
4113.76
3916.85
4013.85
3718.83
4080.84
3609.02
4155.87
3543.74
4017.19
4043.88
4071.09
3805.81
3672.84
3835.89
4077.95
3848.12
3592.95
4088.28
4101.87
4164.24
4329.5
3951.06
4171.11
3659.68
3693.39
3364.67
3461.3
3907.25
3806.44
3777.21
3735.62
4275.49
3742.26
3631.77
3593.14
3838.93
3626.25
4363.53
3730.49
3748.16
3885.83
3408.69
3486.38
3762.9
3756.35
3848.9
3793.71
4099.54
4066.82
3994.01
3913.82
3571.58
3779.79
4069.52
3685.58
3714.59
4033.82
4193.54
3724.13
3379.86
3657.12
3406.47
3870.73
3802.32
3747.88
3617.14
3391.9
4002.85
4033.81
3952.39
3875.66
4208.51
4008.59
3976.43
3913.22
3699.73
3782.55
4100.25
3999.48
3819.24
3459.63
3922.05
4082.02
4222.09
3931.2
3800.66
4211.44
3917.22
4173.03
3713.2
3787.56
3678.92
3803.13
3919.3
4185.7
3774.32
3729.13
3696.81
3851.99
4359.65
3645.55
3782.26
3628.73
3901.11
3918.65
4108.51
4200.96
3620.79
3610.83
4203.42
4247.28
3516.88
4204.31
4126.5
4042.82
4130.31
3985.36
3905.73
3911.23
4197.27
3919.43
3982.93
3897.14
4075.04
3937.99
3877.17
3861.18
3651.73
4036.11
3891.43
4073.29
4014.41
4023.64
3998.86
3923.67
3621.51
4113.21
4115.29
3993.2
3874.35
3942.97
4302.8
3634.57
3707.44
3656.01
3953.14
3774.76
4302.62
3811.04
3839.06
3898.39
3379.97
3406.64
3771.29
3765.03
3898.86
3677.01
3725.66
3968.63
3778.36
4200.32
3706.27
4283.08
3855.03
3947.75
3347.51
3400.03
3357.21
3752.29
4041.23
3787.62
3749.83
3403.98
3890.35
4071.57
3893.78
4458.35
3719.81
4097.71
4020.75
4042.45
4130.25
4129.21
4052.15
3889.87
3834.72
3879.46
4047.21
3846.57
3954.62
3938.08
3953.38
4071.5
4001.34
4038.38
3659.37
3712.48
3283.71
3493.69
3566.16
3130.64
3772.19
3795
3845.95
3877.88
3570.87
3656.81
3818.86
4143.11
4128.38
3814.49
3598.98
3858.05
4070.31
4012.84
3883.04
3587.47
3719.36
3995.62
3955
3878.72
3782.13
4019
4029.25
4195.48
4027.5
3921.51
3794.32
3720.68
3641.92
3799.88
3885.24
4317.64
3906.45
4259.61
3773.13
4345.63
3767.48
3852.88
3674.99
3705.42
3794.71
3653.38
3841.59
3585.17
3774.9
4105.05
3811.4
3635.1
4216.57
4016.58
3959.61
3872.19
4213.17
4477.46
3506.13
4003.78
3966.53
3983.68
3655.97
3871.83
3740.26
3957.14
4049.86
4107.89
3703.4
3997.18
3913.37
4018.49
4005.32
3971.57
3825.59
3855.44
3784.7
3599.86
3571.96
3684.34
4168.1
3777.28
3636.37
3783.77
4106
3835.43
4170.81
4072.89
3974.43
3921.4
3972.67
4223.77
3684.06
3996.42
4126.02
4141.61
3921.49
3733.43
3837.39
3975.93
4150.01
3670.38
3858.08
3917.21
4097.53
3963.86
3978.19
4179.69
3672.75
3746.8
3713.58
4228.57
4107.46
3907.57
4096.43
3746.69
3779.47
4095.3
3983.04
4192.32
3693.14
4050.69
4085.9
3926.29
3958.14
4037.94
3708.04
3553.95
3889.82
3980.82
4255.81
3859.75
3766.61
3876.09
3969.76
4049.04
3915.62
3742.34
3860.06
4080.05
3699.54
3730.4
3856.92
3771.05
3944.05
3919.55
4136.34
3986.87
4062.64
3785.9
3882.83
3943.01
3868
3827.45
3795.38
3788.27
3680.91
4015.71
3936.99
3932.38
3977.95
3609.47
3804.96
4221.61
4223.35
3738.52
4101.39
3969.05
4007.51
3790.45
4148.81
4124.62
3685.03
3832.93
3802.2
3793.14
3614.15
3655.95
3801.4
4125.62
4332.99
3761.5
4037.62
4014.43
3960.57
3846.75
3944.88
4137.86
3959.95
3694.25
3806.98
3785.35
3807.62
3985.75
4024.68
4018.5
4028.79
4034.91
3746.36
4039.39
3815.45
4010.32
3394.82
3979.98
4157.31
3826.59
3506.91
3903.67
3860.86
4247.67
3719.12
4040.17
3880.06
3551.08
4214.6
3636.2
3853.35
3889.88
3612.4
4103.6
3941.15
3850.89
3929.79
3939.86
3846.17
4259.39
3647.54
3798.43
3340.69
3856.15
3823.18
3898.36
4101.33
4483.3
3601.98
3805.31
4392.39
3640.35
4023.93
3736.62
4007.41
3499.87
3725
4383.48
3534.17
4348.88
3575.16
4238.81
3565.81
3715.41
3381.81
3658.38
4345.85
3434.1
3891.33
3536.18
4198.23
4348.62
3449.77
3861.36
3753.82
3693.46
3681.68
3797.66
3893.09
3894.11
3997.65
3872.32
4190.75
4411.68
3446.88
3927.82
3963.76
3891.49
3922.59
3862.25
3838.52
3859.96
4057.98
3871.45
4059.07
3797.68
3940.01
4161.13
3822.66
3987.48
4099.87
3793.44
3940.19
3877.25
3996.18
3851.93
3919.19
3831.94
4085.74
3809.2
3954.77
3576.48
4211.69
3458.62
3988.33
4084.42
4200.18
3722.43
3920.47
3870.55
3915.18
3916.64
3873.27
4055.73
3690.83
3277.41
3890.16
3511.7
4122.4
3729.62
3889.47
4051.34
3304.04
4195.31
3703.87
3395.69
3739.96
4021.38
4002.65
3906.86
3432.18
3910.45
3947.01
3759.17
3728.38
4128.07
4093.93
3785.87
3899.95
4129.05
3442.38
4072.35
3724.35
3992.74
3467.45
4343.03
4278.25
4078.38
3904.12
3845.55
4028.05
3830.78
3428.45
3671.11
4030.41
3735.68
4004.19
3502.4
4118.4
4010.53
3172.11
3913.47
3950.62
3322.62
4194.04
3567.81
4122.76
4212.45
4057.48
3384.79
3915.52
3841.91
3913.98
3924.89
3992
3442.36
3802.12
3737.25
3740.25
4113.17
3892.34
3978.15
4002.89
3994.37
3838.3
3918.34
3851.26
3952.83
4123.78
3779.63
3827.91
3763.81
3929.52
4082.9
3778.29
3816.19
3795.62
3894.58
3738.8
3754.05
3816.58
3834.72
3914.76
3824.24
4191.06
4066.21
3518.73
3542.74
4176.58
3127.35
4033.8
3946.33
3744.04
3838.63
4199.68
3309.7
4105.45
3971.75
3406.52
3803.76
3767.41
3911.84
3283.91
4149.24
3993.33
3305.61
4127.95
4148.76
3469.3
4201.22
4093.67
3476.28
3768.51
3742.87
3317.46
3895.04
3923.44
3693.79
3723.06
3736.39
3209.48
3712.76
3330.42
3183.35
4094.25
3752.29
4343.07
3794.99
3438.05
4147.13
3880.58
3357.21
3782.27
3773.28
3351.71
3536.37
4188.32
3051.95
3674.59
3679.25
3140.11
4112.15
4063.42
3893.75
3810.99
3773.89
3672.18
3245.74
3900.99
3811.46
3825.62
3894.85
3383.46
4044.39
3777.84
3866.51
3753.09
3857.25
3913.4
3663.41
3406.56
3809.54
3954.06
3771.33
3813.36
3880.04
3721.59
3826.13
3378.53
3790.21
3984.16
3756.71
3840.28
3728.75
3417.3
4180.74
4178.34
4127.49
4222.04
3465.4
3322.41
3801.78
4071.55
3921.91
4020.97
4058.94
3674.68
3619.61
3355.74
3466.52
3715.04
3869.53
3853.94
3843.04
3631.05
4091.04
3962.9
3480.85
3695.83
3665.81
4053.31
3723.64
3248.75
3919.24
3880.91
4104.7
3364.87
3781.04
3942.39
3793.39
3834.08
4014.48
3865.53
3676.22
4234.45
3161.52
3624.97
3866.7
3725.66
3804.6
4208.75
3975.37
3896.74
3597.8
4165.87
3794.01
3914.45
4057.16
4106.97
4085.73
4105.01
4194.51
4245.28
4179.02
4179.75
3927.28
4072.67
3777.99
3836.58
3631.48
3554
3207.43
4218.21
4201.29
4128.68
3821.73
3915.17
3899.77
3731.69
3932.04
4066.6
3688.86
3848.58
4002.11
3770.09
3784.12
3769.75
3818.82
3715.71
3810.23
3790.74
3467.18
3939.55
3696.93
3845.36
3347.38
4232.9
3857.81
3745.94
3709.28
3493.18
3887.37
3753.49
3316.76
3599.78
3849.89
3553.86
3602.21
4252.35
4281.49
3795.25
3796.29
4035.3
4201.06
3309.1
3755.44
3718.3
3804.94
3804.46
3824.39
3861.12
3622.06
3416.5
4166.81
3799.98
3572.88
3616.83
3790.43
3889.88
3500.75
3855.56
3739.29
3777.37
4204.97
3582.18
3432.92
3810.32
3760.94
3720.49
3423.63
4118.48
3793.48
3775.79
3790.6
3318.83
3803.98
3803.68
3443.33
3796.27
3597.08
3956.98
4138.91
3737.06
4064.74
3941.04
3739.55
3745.35
3811.79
3427.41
3957.2
3992.91
3768.88
3368.37
3661.03
3839.27
3855.61
3737.23
3403.79
3748.03
4104.63
3951.94
3759.36
4246.21
3575.89
4074.73
3325.35
3567.34
4098.98
3326.38
4093.14
3764.9
3888.78
3779.24
4281.4
3633.22
3891.67
4199.9
4173.39
3511.26
4144.02
4208.27
3143.08
3880.27
3754.91
3338.63
4011.31
3749.33
3777.91
3779.18
3863.97
3827.2
3767.97
3750.22
3321.15
3998.27
3895.32
3874
3910.7
3820.58
3736.46
3663.81
4054.48
3255.84
3711.2
3741.66
3287.92
4083.02
4225.6
3888.52
4131.33
4174.75
3714.29
3792.9
3968.29
4129.13
3719.75
4001.1
3616.07
3352.44
4053.44
3677.37
4103.6
4254.53
4196.55
3365.66
4078.71
3915.17
3683.35
3765.7
3807.53
3754.13
3374.66
4151.66
3388.43
4143.06
3817.06
3617.07
3598.32
3846.54
4005.09
4194.84
3876.66
4309.61
4055.96
4091.18
3336.12
4071.51
4018.54
4110.64
3729.74
3686.3
3263.03
3849.2
4291.55
4142.37
3406.28
3632.3
3409.9
3728.46
3860.12
3607.16
4448.93
3781.2
3630.71
3422.54
3950.52
3694.51
3276.43
3849.48
3752.37
3755.3
3766.29
3770.12
3428.07
3607.26
3341.54
3764.33
4064.9
3959.85
4151.34
4113.01
3712.02
3659.3
3328.78
3728.48
4031.61
4165.62
4053.83
4053.94
3572.58
3285.04
3637.58
3244.1
4034.65
4058.09
3663.22
4082.58
4040.08
4141.78
3954.3
3890.16
3881.64
3711.78
3303.79
3652.57
3372.04
3618.76
3766.5
3736.08
3464
3363.52
3994.98
4290.32
4258.14
4198.19
3875.55
3980.48
3972.33
3859.82
3768.08
3853.7
3677.69
3817.84
3819.96
3363.31
4049.28
3802.83
3635.15
3457.6
3758.42
3868.29
3865.28
3738.85
3460.54
4184.84
3939.49
3756.27
4238.85
3684.12
3343.52
3985.85
3824.2
3822.11
3820.19
3741.04
3245.69
3852.17
3814.41
3392.67
4192.26
3791.8
3065.07
3765.03
3856.12
3873.75
3738.29
3375.09
3707.76
3721.36
3548.64
3830.02
3324.98
3845.48
3830.85
3523.19
4251.14
3811.94
3444.2
4318.53
3852.46
3853.72
3452.03
3829.25
3389.19
)
;
    }
}


// ************************************************************************* //
