/*--------------------------------*- C++ -*----------------------------------*\
| =========                 |                                                 |
| \\      /  F ield         | OpenFOAM: The Open Source CFD Toolbox           |
|  \\    /   O peration     | Version:  v1912                                 |
|   \\  /    A nd           | Website:  www.openfoam.com                      |
|    \\/     M anipulation  |                                                 |
\*---------------------------------------------------------------------------*/
FoamFile
{
    version     2.0;
    format      ascii;
    class       volScalarField;
    location    "146/oil";
    object      heatTransferCoeff(T);
}
// * * * * * * * * * * * * * * * * * * * * * * * * * * * * * * * * * * * * * //

dimensions      [1 0 -3 -1 0 0 0];


internalField   uniform 0;

boundaryField
{
    maxY
    {
        type            calculated;
        value           uniform 0;
    }
    minX
    {
        type            calculated;
        value           uniform 0;
    }
    maxX
    {
        type            calculated;
        value           uniform 0;
    }
    minY
    {
        type            calculated;
        value           uniform 0;
    }
    minZ
    {
        type            calculated;
        value           uniform 0;
    }
    maxZ
    {
        type            calculated;
        value           uniform 0;
    }
    oil_to_sphere
    {
        type            calculated;
        value           nonuniform List<scalar> 
1536
(
-209.795
-219.643
-203.784
-201.171
-173.822
-179.626
-177.487
-134.43
-128.525
-227.3
-172.173
-229.51
-233.339
-229.598
-199.987
-172.699
-136.114
-129.298
-27.2121
-232.898
-227.348
-181.207
-178.394
-174.059
-183.033
-182.979
-183.044
-174.588
-220.273
-217.437
-203.925
-162.897
-149.888
-183.868
-173.223
-172.174
-165.25
-191.313
-180.722
-190.455
-180.774
-172.169
-214.846
-230.048
-218.409
-228.475
-179.456
-179.729
-197.087
-183.392
-180.653
-180.897
-177.018
-179.6
-155.883
-147.022
-178.882
-178.32
-130.044
-87.5646
-97.1509
-86.1687
-95.1005
-232.602
-233.87
-229.213
-219.42
-228.979
-209.18
-217.617
-184.36
-179.19
-203.499
-181.329
-173.291
-150.157
-145.077
-141.081
-172.973
-129.379
-85.7828
-95.2494
-74.8593
-73.7595
-102.037
-96.9395
-76.8139
-135.467
-129.159
-87.2533
-96.1048
-27.0116
-27.2472
-233.555
-234.083
-230.234
-221.976
-225.408
-229.658
-208.083
-220.26
-183.595
-208.74
-204.173
-180.333
-181.298
-174.305
-141.938
-171.278
-151.088
-144.333
-149.373
-87.3
-97.6293
-75.7545
-77.4377
-75.5691
-101.307
-96.9233
-103.019
-129.835
-96.2616
-27.2492
-229.201
-208.267
-217.507
-209.385
-216.552
-180.423
-181.08
-182.465
-180.378
-180.916
-179.287
-182.073
-183.131
-179.526
-147.077
-177.267
-176.678
-87.6165
-96.6804
-135.61
-129.929
-95.3942
-128.126
-197.942
-198.028
-177.164
-185.259
-203.505
-197.879
-179.135
-182.067
-181.375
-165.601
-155.836
-158.049
-198.542
-195.464
-199.167
-214.217
-188.824
-182.196
-172.365
-165.659
-179.745
-168.93
-156.538
-158.615
-213.849
-192.697
-218.319
-190.02
-160.599
-144.14
-199.034
-201.215
-209.063
-196.835
-188.408
-181.63
-165.921
-181.25
-161.787
-158.715
-158.974
-223.406
-195.889
-203.826
-212.96
-199.438
-210.912
-202.912
-162.145
-163.833
-167.622
-168.977
-160.74
-164.557
-168.128
-173.375
-129.268
-125.782
-122.18
-131.709
-136.434
-134.518
-141.573
-139.687
-126.152
-119.052
-115.19
-224.112
-238.226
-234.172
-225.372
-225.043
-226.609
-224.679
-222.985
-230.698
-218.946
-223.746
-224.288
-199.896
-199.654
-218.682
-207.829
-185.612
-166.577
-162.014
-179.447
-163.076
-127.005
-130.593
-123.285
-132.145
-135.625
-124.056
-118.285
-68.2384
-60.2568
-231.207
-224.65
-227.878
-223.814
-229.094
-238.902
-229.876
-223.529
-194.996
-182.9
-195.477
-198
-163.978
-173.536
-127.163
-119.815
-137.131
-145.906
-141.153
-116.289
-59.5726
-67.0455
-44.1399
-44.1895
-67.354
-227.46
-222.963
-221.925
-219.113
-223.782
-224.736
-221.149
-228.12
-241.679
-232.381
-222.982
-210.933
-198.312
-198.933
-206.409
-220.36
-208.546
-198.649
-198.371
-165.623
-166.989
-173.68
-175.41
-168.311
-173.176
-123.349
-119.394
-125.158
-133.602
-130.446
-135.847
-135.163
-135.113
-122.455
-117.26
-132.507
-125.66
-185.162
-176.963
-179.206
-165.581
-161.564
-158.959
-154.374
-214.935
-207.007
-218.593
-212.869
-206.9
-214.386
-216.382
-220.038
-226.13
-216.321
-218.428
-215.433
-237.378
-227.656
-224.216
-218.303
-225.766
-231.8
-224.918
-210.825
-212.99
-217.807
-206.839
-217.362
-220.399
-225.902
-224.552
-230.165
-227.935
-226.081
-221.082
-220.953
-219.395
-221.464
-214.57
-215.329
-208.311
-213.964
-204.847
-207.867
-220.134
-197.947
-215.429
-199.88
-202.532
-196.326
-185.786
-214.151
-198.564
-197.701
-206.025
-186.245
-193.428
-199.073
-184.298
-190.166
-180.156
-200.251
-214.144
-198.966
-200.277
-202.582
-188.313
-194.368
-192.803
-166.164
-170.665
-165.123
-156.937
-152.097
-157.454
-147.032
-143
-167.195
-170.964
-166.631
-158.899
-153.511
-161.454
-146.724
-143.075
-139.797
-163.674
-142.434
-158.416
-154.221
-158.943
-146.315
-166.709
-172.13
-166.311
-171.198
-144.671
-140.283
-158.608
-154.053
-160.29
-145.062
-141.616
-133.694
-129.627
-133.239
-129.275
-122.854
-123.174
-117.939
-127.82
-120.094
-137.214
-116.607
-118.882
-114.865
-109.121
-116.632
-113.812
-104.961
-102.121
-93.3164
-130.985
-127.247
-122.506
-132.274
-119.317
-123.065
-105.099
-100.993
-99.2451
-93.395
-115.15
-110.054
-116.905
-114.043
-112.405
-133.067
-129.077
-134.234
-134.481
-123.068
-117.259
-130.241
-125.002
-255.998
-245.652
-236.329
-253.388
-236.992
-239.632
-245.82
-230.914
-233.662
-237.579
-236.502
-223.819
-231.743
-221.111
-219.933
-217.909
-217.253
-221.668
-220.234
-225.573
-231.077
-212.727
-227.32
-215.111
-221.414
-216.059
-227.908
-218.59
-226.895
-222.738
-228.932
-223.661
-213.305
-219.839
-208.476
-224.496
-196.779
-203.837
-200.67
-180.903
-189.545
-188.792
-200.02
-180.836
-197.421
-180.08
-189.395
-182.428
-174.473
-179.403
-166.592
-163.524
-154.468
-159.453
-157.012
-151.75
-144.305
-161.588
-143.207
-172.403
-165.147
-155.96
-119.318
-114.202
-110.028
-117.968
-114.675
-126.481
-119.334
-137.073
-115.791
-104.322
-103.411
-94.3316
-81.5967
-72.777
-82.2866
-73.1676
-89.627
-97.3436
-89.3081
-80.0252
-82.0725
-125.807
-130.174
-122.091
-131.638
-116.766
-110.428
-118.095
-112.888
-125.583
-118.626
-133.768
-140.214
-116.053
-104.55
-112.759
-102.109
-93.3913
-109.514
-67.2979
-60.0614
-69.4535
-60.1449
-44.7516
-44.4092
-44.5624
-44.3696
-58.4887
-249.727
-234.121
-239.914
-237.767
-234.777
-250.093
-240.759
-237.285
-233.115
-224.236
-236.333
-238.78
-243.247
-225.163
-225.844
-231.49
-232.06
-212.77
-224.204
-213.559
-227.825
-221.472
-220.648
-217.57
-223.33
-217.219
-222.717
-229.011
-218.798
-212.099
-208.993
-222.109
-227.466
-212.75
-226.02
-214.999
-207.892
-229.774
-220.975
-219.92
-222.739
-215.779
-215.567
-220.855
-227.649
-216.669
-208.991
-200.292
-198.263
-190.136
-182.232
-191.726
-211.962
-203.217
-200.532
-193.197
-192.023
-186.476
-188.619
-189.453
-181.161
-181.006
-165.927
-178.665
-161.661
-169.351
-159.179
-154.732
-183.695
-173.646
-146.584
-163.449
-142.903
-161.712
-151.245
-143.834
-157.113
-159.431
-158.626
-156.977
-155.239
-180.638
-164.41
-104.32
-104.056
-100.186
-94.696
-130.276
-125.936
-122.466
-132.091
-119.534
-123.407
-110.911
-118.599
-117.735
-113.735
-111.754
-90.537
-90.4945
-98.2869
-81.0746
-81.7479
-72.6485
-82.4357
-82.6103
-72.408
-96.4559
-88.6666
-89.1795
-97.608
-80.3804
-125.742
-118.93
-135.788
-140.381
-116.16
-104.961
-113.043
-101.108
-100.008
-109.939
-123.817
-117.72
-129.566
-126.973
-122.438
-132.147
-135.221
-110.089
-115.195
-117.645
-113.37
-112.202
-44.6399
-44.6276
-68.7486
-67.8725
-60.3507
-58.4384
-76.9057
-67.7351
-59.075
-206.426
-217.138
-216.32
-205.87
-215.652
-206.519
-205.947
-227.007
-223.053
-231.619
-223.381
-213.382
-220.44
-216.737
-225.815
-218.706
-222.217
-213.755
-213.744
-227.55
-221.147
-217.885
-218.967
-215.821
-215.64
-219.854
-209.409
-208.086
-213.859
-218.984
-213.474
-222.413
-216.61
-232.376
-214.584
-209.671
-212.471
-213.961
-208.094
-205.945
-220.537
-198.753
-189.696
-190.037
-195.799
-182.047
-212.654
-198.469
-197.725
-203.737
-193.79
-194.005
-188.521
-207.809
-196.668
-198.574
-203.608
-186.824
-188.445
-197.425
-195.462
-182.057
-202.099
-212.735
-201.239
-203.04
-194.811
-194.227
-189.685
-189.481
-181.213
-158.193
-153.736
-159.556
-146.572
-144.624
-140.85
-169.79
-163.252
-170.989
-166.743
-153.8
-158.738
-158.37
-144.613
-141.32
-142.331
-166.79
-166.422
-172.176
-165.968
-171.836
-143.911
-146.36
-157.793
-152.879
-158.365
-144.203
-141.24
-173.842
-165.423
-165.387
-168.847
-172.953
-146.026
-141.846
-154.091
-159.338
-159.373
-129.232
-134.033
-123.026
-122.271
-117.022
-133.294
-129.675
-133.786
-115.306
-109.975
-117.46
-112.907
-106.377
-114.985
-102.812
-93.9092
-110.731
-126.639
-129.349
-121.85
-132.336
-140.786
-150.988
-129.966
-121.87
-117.431
-119.819
-127.222
-104.844
-112.119
-101.814
-100.575
-108.877
-115.747
-110.601
-116.195
-115.032
-112.386
-134.108
-141.257
-126.619
-119.173
-115.657
-131.77
-135.758
-126.542
-130.468
-123.132
-204.585
-199.502
-144.74
-137.715
-229.472
-221.569
-226.961
-228.701
-226.903
-196.672
-211.483
-205.028
-209.499
-171.663
-181.708
-137.968
-73.7383
-71.1913
-204.112
-203.805
-134.917
-73.9921
-69.4892
-87.5161
-229.066
-198.826
-178.453
-86.2231
-209.66
-202.5
-207.87
-170.97
-182.647
-181.541
-134.363
-205.262
-209.789
-180.859
-182.048
-207.67
-179.699
-181.571
-167.891
-173.374
-141.093
-149.488
-156.248
-199.595
-206.824
-178.376
-189.224
-170.459
-177.388
-141.113
-149.203
-151.448
-198.044
-210.287
-179.375
-193.825
-154.039
-142.043
-152.182
-166.553
-189.054
-187.167
-207.813
-210.537
-181.595
-180.171
-178.37
-181.819
-150.685
-142.311
-150.791
-135.827
-238.312
-232.979
-207.849
-225.601
-207.031
-230.233
-227.693
-181.108
-200.41
-199.788
-203.639
-199.147
-179.721
-153.352
-149.309
-149.587
-150.325
-149.848
-147.741
-106.743
-137.521
-103.41
-107.531
-233.987
-227.739
-236.775
-229.166
-234.665
-231.08
-234.368
-232.366
-236.65
-231.15
-207.735
-226.276
-207.965
-217.834
-208.189
-179.023
-191.433
-197.615
-214.563
-183.139
-206.41
-179.127
-142.365
-151.019
-153.798
-143.83
-149.679
-148.632
-136.221
-107.336
-99.4123
-97.2099
-101.26
-137.392
-105.941
-71.6539
-73.7133
-69.3428
-238.178
-234.213
-230.954
-242.151
-231.79
-236.104
-231.134
-239.65
-235.46
-208.494
-225.599
-204.771
-228.439
-226.989
-221.104
-226.782
-220.997
-206.053
-213.081
-178.382
-197.76
-212.376
-199.04
-210.955
-181.836
-141.208
-151.749
-170.229
-179.83
-147.29
-156.131
-143.153
-150.171
-177.934
-138.241
-106.871
-95.5441
-99.7746
-96.7191
-136.815
-105.912
-71.552
-69.4807
-70.5839
-233.15
-216.459
-209.452
-229.399
-206.141
-181.191
-203.746
-200.624
-200.502
-199.602
-148.531
-157.178
-148.125
-148.19
-148.34
-106.38
-140.067
-108.045
-138.987
-207.383
-197.48
-187.736
-196.271
-210.368
-198.839
-159.123
-166.33
-159.061
-202.05
-210.513
-201.023
-191.2
-212.715
-184.823
-195.861
-194.75
-185.956
-200.662
-192.908
-211.049
-188.256
-193.248
-194.099
-189.449
-172.639
-171.696
-160.041
-159.482
-152.779
-144.122
-158.811
-150.97
-155.458
-208.305
-195.732
-189.847
-196.102
-209.167
-184.913
-187.806
-189.057
-175.223
-195.753
-165.826
-176.634
-173.751
-160.816
-161.704
-154.069
-143.996
-157.126
-149.891
-155.638
-196.798
-208.214
-184.809
-186.395
-190.638
-173.827
-195.044
-171.311
-160.067
-149.556
-161.292
-156.761
-161.116
-220.826
-221.225
-219.608
-222.433
-188.045
-210.001
-201.354
-167.127
-167.443
-173.783
-172.705
-171.385
-134.303
-142.37
-141.144
-125.033
-121.988
-143.537
-136.068
-135.908
-222.314
-224.449
-228.714
-219.597
-191.662
-200.687
-186.273
-214.782
-199.747
-171.164
-171.035
-160.907
-135.29
-146.626
-140.971
-125.716
-90.3872
-91.9241
-80.8017
-81.9335
-72.5517
-68.2755
-222.555
-221.489
-221.235
-218.177
-226.312
-196.681
-206.563
-201.76
-164.938
-122.254
-142.065
-81.6429
-72.4139
-69.252
-57.3197
-93.3713
-222.56
-222.872
-228.472
-222.853
-226.242
-225.949
-222.987
-221.116
-226.935
-185.161
-193.323
-223.301
-199.298
-172.162
-172.759
-135.874
-142.499
-134.624
-130.941
-139.732
-124.954
-93.9736
-171.569
-140.414
-213.419
-209.434
-196.634
-197.845
-171.639
-164.49
-168.915
-156.84
-149.177
-159.772
-151.862
-151.04
-147.817
-237.834
-233.959
-202.624
-203.969
-216.118
-221.344
-218.628
-220.057
-205.126
-215.199
-210.476
-218.242
-206.473
-212.937
-224.372
-219.133
-220.47
-219.276
-203.987
-209.919
-212.62
-217.11
-222.236
-226.945
-224.368
-225.932
-215.239
-204.644
-211.566
-226.805
-222.624
-226.994
-224.182
-205.883
-221.378
-225.455
-218.644
-210.766
-214.26
-210.144
-196.519
-191.325
-216.721
-196.358
-189.231
-189.229
-178.938
-180.455
-179.871
-190.352
-211.893
-200.611
-182.224
-181.226
-189.375
-182.411
-190.696
-208.423
-194.284
-180.939
-174.587
-173.046
-157.078
-160.308
-143.626
-173.157
-156.947
-161.975
-145.08
-168.104
-173.419
-158.449
-144.588
-172.33
-152.662
-158.149
-134.984
-134.746
-122.214
-123.355
-112.091
-113.147
-123.717
-113.263
-110.516
-100.597
-98.7037
-97.8405
-102.729
-133.71
-125.128
-112.719
-109.128
-101.77
-101.852
-97.1545
-130.945
-135.575
-112.712
-240.038
-229.358
-235.167
-224.23
-228.526
-239.63
-220.779
-250.133
-229.497
-232.112
-230.861
-240.206
-231.29
-238.652
-250.42
-240.646
-229.341
-236.767
-215.054
-222.1
-232.736
-226.442
-207.509
-220.523
-212.978
-223.344
-219.057
-222.21
-219.269
-227.175
-213.525
-203.391
-208.733
-217.001
-226.325
-221.137
-220.162
-215.453
-186.861
-193.157
-180.22
-197.113
-207.772
-187.109
-193.251
-195.831
-198.24
-198.578
-206.948
-188.45
-166.788
-159.299
-154.323
-163.514
-172.089
-149.782
-151.494
-159.454
-166.944
-159.386
-152.219
-144.85
-102.22
-100.797
-98.8995
-121.831
-112.636
-109.26
-101.357
-133.594
-137.752
-101.219
-99.5273
-122.146
-101.95
-69.1981
-69.5261
-59.0371
-76.8721
-57.6651
-69.1337
-78.5251
-242.163
-229.697
-245.614
-235.878
-235.026
-226.896
-229.016
-220.922
-237.894
-245.444
-238.815
-229.845
-227.326
-225.35
-231.779
-231.913
-231.754
-215.151
-227.577
-212.258
-225.49
-227.207
-222.298
-201.747
-227.601
-217.132
-221.637
-219.64
-214.836
-219.535
-219.764
-208.261
-213.328
-209.222
-194.211
-208.027
-197.223
-187.903
-184.782
-174.374
-189.625
-210.708
-194.86
-195.921
-168.771
-151.497
-153.947
-164.789
-164.914
-155.503
-161.977
-161.948
-158.7
-152.258
-170.441
-171.67
-112.725
-109.524
-101.688
-135.185
-125.961
-101.412
-98.9039
-122.709
-102.4
-133.782
-100.575
-58.5788
-68.7957
-78.6709
-239.702
-222.438
-207.143
-219.243
-207.163
-206.699
-213.882
-226.409
-222.161
-220.584
-207.759
-213.41
-218.227
-215.362
-223.04
-220.326
-221.945
-219.457
-215.212
-204.647
-219.676
-212.975
-210.581
-198.619
-181.933
-192.501
-217.517
-195.896
-188.68
-180.104
-180.017
-189.938
-211.144
-180.543
-189.537
-210.47
-182.02
-155.819
-146.363
-168.967
-173.072
-168.409
-156.086
-162.886
-171.135
-152.92
-172.066
-152.999
-111.703
-135.331
-100.901
-99.2598
-103.531
-134.006
-143.257
-123.564
-101.433
-103.181
-121.629
-134.448
)
;
    }
}


// ************************************************************************* //
