/*--------------------------------*- C++ -*----------------------------------*\
| =========                 |                                                 |
| \\      /  F ield         | OpenFOAM: The Open Source CFD Toolbox           |
|  \\    /   O peration     | Version:  v1906                                 |
|   \\  /    A nd           | Web:      www.OpenFOAM.com                      |
|    \\/     M anipulation  |                                                 |
\*---------------------------------------------------------------------------*/
FoamFile
{
    version     2.0;
    format      ascii;
    class       volScalarField;
    location    "0.53/sphere";
    object      T;
}
// * * * * * * * * * * * * * * * * * * * * * * * * * * * * * * * * * * * * * //

dimensions      [0 0 0 1 0 0 0];


internalField   nonuniform List<scalar> 
7664
(
480.257
480.797
480.57
481.692
480.299
480.839
482.073
483.419
484.707
482.787
480.552
484.307
485.479
483.691
483.066
484.325
482.454
482.022
483.331
481.584
480.706
484.649
485.989
484.031
481.535
485.434
486.811
484.918
480.595
480.769
484.279
485.562
483.654
482.754
481.571
482.709
484.001
481.904
480.225
483.605
484.863
483.007
482.226
483.619
481.641
480.531
480.472
480.503
480.421
480.505
480.308
481.666
480.625
483.939
482.754
484.696
483.644
482.778
484.848
483.735
480.828
480.337
481.743
480.651
483.754
484.125
482.971
481.769
480.696
481.013
480.517
480.451
480.477
480.466
480.504
480.382
480.376
480.409
480.262
480.422
480.436
480.299
480.453
481.221
480.572
481.539
482.021
483.389
480.575
481.562
483.408
482.113
481.366
480.207
481.792
480.194
482.826
480.761
480.541
481.593
482.659
483.92
483.58
484.691
480.66
481.095
480.946
482.186
481.97
481.71
482.344
480.259
481.894
482.906
480.288
480.249
480.229
482.843
481.958
481.62
480.481
480.969
483.591
484.699
482.81
484.023
480.656
481
480.517
484.706
483.659
484.043
482.882
482.923
480.319
482.053
481.46
480.83
482.226
483.529
481.871
483.542
482.303
481.888
481.604
482.496
482.524
482.03
481.522
480.514
483.357
482.054
482.909
484.205
482.03
483.293
484.169
485.446
481.385
484.219
483.022
483.331
482.088
485.464
484.276
482.253
481.59
483.476
480.634
480.37
482.653
480.518
483.55
480.704
483.857
481.513
484.619
480.333
483.674
480.644
484.037
480.861
484.891
481.819
480.561
480.399
483.565
482.792
481.536
484.632
480.909
483.979
480.677
482.921
480.533
484.908
481.848
484.161
481.069
480.594
482.214
480.768
483.498
481.855
484.313
482.33
484.275
485.515
482.309
483.475
483.177
482.346
481.711
485.541
484.413
483.508
482.365
483.642
480.875
481.904
482.73
482.752
482.498
482.525
481.508
480.508
483.34
482.03
483.295
484.168
485.445
482.046
482.9
484.232
482.086
485.467
484.275
482.055
481.394
484.249
483.016
483.468
480.63
482.267
480.37
483.859
481.511
484.628
482.656
480.516
483.556
480.864
484.898
481.821
482.82
480.329
483.751
480.656
480.562
480.399
484.639
480.903
483.974
480.543
483.568
482.8
481.85
484.17
481.06
483.777
480.689
482.981
480.545
483.51
481.837
482.224
485.527
482.315
483.477
483.072
484.361
482.329
484.429
483.515
482.364
484.391
483.232
482.338
481.714
480.873
481.908
482.496
482.731
481.243
481.558
482.044
483.428
480.596
483.441
482.121
480.603
481.382
481.82
480.195
482.816
480.218
483.984
483.588
484.834
480.27
480.802
480.554
481.665
482.98
480.286
480.286
482.837
481.96
480.235
484.848
482.826
484.099
480.582
481.693
480.465
480.981
480.322
482.117
480.32
481.448
483.591
481.884
480.833
482.356
481.891
480.846
480.233
480.147
480.038
480.2
480.123
480.19
480.103
480.202
480.111
480.235
480.184
480.374
480.281
480.115
480.051
480.275
480.238
480.094
480.442
480.485
480.363
480.225
480.164
480.368
480.277
480.485
480.384
480.712
481.839
480.866
481.364
481.213
480.497
481.039
480.897
482.11
481.752
481.491
482.261
480.682
481.147
480.988
482.258
482.028
481.745
482.425
480.496
480.4
480.735
481.903
480.89
481.405
481.262
480.511
481.089
480.924
482.19
481.82
481.553
482.354
481.132
480.62
481.02
482.272
481.856
482.389
481.638
481.281
480.878
481.117
482.378
482.193
482.541
481.921
480.557
480.689
480.875
482.033
481.105
481.415
481.585
480.135
480.061
480.309
480.266
480.118
480.398
480.282
480.176
480.27
480.419
480.306
480.609
481.73
480.81
481.318
481.12
480.446
480.623
480.243
480.906
482.062
480.496
481.687
480.816
482.172
481.485
480.293
481.07
480.446
480.419
480.982
481.007
480.831
481.146
480.742
481.178
481.654
481.478
481.252
482.671
481.567
481.555
481.578
482.1
481.966
482.085
483.28
481.89
482.87
482.572
482.585
482.365
483.478
481.057
481.194
481.535
481.54
480.718
480.217
480.319
481.038
481.162
480.49
482.001
481.657
480.473
480.877
481.455
482.133
480.778
480.244
480.2
480.979
480.809
481.098
481.616
481.581
481.862
483.058
481.249
482.128
482.399
482.268
483.191
482.521
482.82
481.823
483.425
482.302
482.508
483.694
483.125
484.109
483.013
483.906
482.786
483.89
481.235
482.105
481.448
481.323
481.908
482.017
481.869
480.931
480.555
482.219
481.579
480.767
480.29
480.185
482.348
482.65
481.314
481.232
482.539
482.453
481.056
480.577
480.498
480.423
481.145
481.6
480.661
481.209
481.414
482.256
482.625
482.564
482.426
481.03
481.134
481.477
481.237
481.434
482.083
481.894
481.311
480.196
480.36
480.543
482.513
481.056
481.55
480.772
481.106
481.587
480.517
480.375
480.983
480.184
480.877
480.352
481.55
482.965
481.719
481.447
482.317
482.06
481.159
480.977
481.054
481.311
481.028
480.052
480.26
480.376
480.163
480.269
480.664
480.915
480.671
480.717
480.58
480.913
480.473
481.418
480.882
480.964
481.235
480.99
481.149
481.466
481.217
481.416
482.068
481.308
481.852
481.274
481.199
481.453
482.778
480.861
481.838
482.087
480.481
481.431
481.26
480.887
480.967
480.618
480.936
480.734
481.223
481.441
482.075
481.307
481.878
481.05
481.174
481.509
481.246
482.84
481.855
481.304
481.543
480.901
482.154
480.716
481.01
480.773
480.734
480.193
480.395
480.569
480.083
480.289
480.996
480.821
480.349
480.185
480.372
480.528
480.676
480.999
480.964
482.374
480.439
481.473
481.41
480.287
480.088
480.966
480.338
480.793
480.989
480.612
481.935
480.818
482.297
482.094
481.665
480.394
480.896
480.736
481.987
481.664
481.382
482.157
480.174
481.043
480.886
480.337
480.39
481.045
482.465
481.501
480.737
481.083
480.489
481.551
480.266
480.458
480.65
480.347
480.19
481.062
480.391
480.887
480.38
480.213
481.02
480.378
480.913
480.369
480.604
480.73
480.373
480.989
480.189
480.366
480.88
480.352
480.587
480.695
480.827
481.196
482.482
481.158
481.601
480.659
481.55
481.277
481.404
482.741
482.416
481.099
482.519
482.631
481.858
480.469
480.637
481.008
480.756
481.282
481.482
481.142
482.204
480.814
482.104
480.959
482.415
481.814
481.071
480.592
481.781
480.97
482.288
482.184
481.595
481.238
480.86
481.079
482.292
482.131
482.455
481.87
480.534
480.679
480.839
481.96
481.062
481.378
481.536
480.418
480.65
480.793
480.44
481.087
480.277
480.423
480.974
480.885
481.23
482.57
481.278
481.638
480.708
481.678
480.417
480.677
480.795
480.92
480.913
481.206
481.17
480.709
481.648
481.455
481.251
481.533
481.415
482.941
481.733
482.006
481.164
482.326
481.341
481.467
481.764
481.523
482.322
481.741
481.611
482.124
481.019
480.864
481.17
481.564
481.467
482.993
481.807
482.041
481.205
482.378
481.527
482.326
481.764
481.607
482.144
481.36
481.499
481.807
480.976
481.027
481.303
481.02
481.959
481.961
482.282
482.263
482.071
482.004
482.306
482.378
482.147
482.059
481.898
480.996
481.138
481.452
480.693
480.553
480.832
481.265
481.471
481.178
482.764
480.853
482.088
481.767
481.186
481.387
482.031
481.827
481.273
480.837
480.387
481.373
481.166
480.927
483.204
481.846
482.852
482.536
482.533
482.311
483.446
483.198
481.845
482.522
482.824
482.316
482.519
483.429
483.63
482.969
482.958
484.079
482.695
483.855
483.848
482.876
481.634
481.679
481.669
482.2
482.065
482.231
483.694
483.008
483.125
484.108
482.784
483.89
483.906
483.286
481.897
482.618
482.918
482.397
482.618
483.511
481.341
481.603
481.336
482.894
480.96
482.172
481.924
480.761
480.627
480.972
481.242
481.455
482.106
481.906
481.323
480.925
480.53
481.5
481.302
481
479.986
480.047
480.212
480.213
480.05
481.929
480.367
481.63
480.85
481.363
480.681
482.11
482.012
480.546
481.867
480.923
481.568
480.753
482.216
482.28
481.204
481.225
482.633
480.953
482.443
482.472
481.905
480.889
480.401
480.501
481.275
481.407
480.735
482.183
480.507
481.798
481.088
481.527
480.93
482.346
482.28
480.701
482.069
481.2
481.772
481.002
482.485
482.57
481.609
481.641
482.961
481.343
482.733
482.781
480.211
480.108
480.277
480.161
480.463
480.478
480.316
480.045
480.238
480.302
480.128
480.205
481.669
480.384
480.926
480.539
481.181
480.638
481.365
482.34
481.231
482.653
481.3
482.462
481.041
482.532
482.12
480.759
481.057
482.036
480.886
481.754
482.325
482.253
481.822
480.59
481.127
481.603
482.371
481.015
482.021
480.541
481.085
480.695
481.378
480.881
481.587
482.636
481.638
482.985
481.726
482.756
481.432
482.849
482.398
480.902
481.352
482.239
481.164
481.945
482.602
480.496
480.574
480.415
480.444
480.325
481.524
481.411
481.711
482.922
481.152
482.001
482.295
481.333
481.453
481.751
481.138
480.66
481.6
481.414
481.21
481.509
481.716
482.301
482.108
481.585
482.904
481.855
481.906
481.889
482.365
482.346
482.256
483.39
483.057
482.146
482.772
482.765
483.613
482.569
483.377
482.132
483.032
482.749
482.738
482.565
483.588
483.787
483.174
484.215
483.156
484.005
482.915
483.984
483.458
483.071
482.183
482.797
482.809
483.636
482.617
483.088
481.97
481.954
481.975
482.456
482.482
482.354
483.849
483.2
484.244
483.32
484.029
483.007
484.056
483.469
482.192
483.132
482.851
482.839
482.65
483.687
481.064
480.885
481.215
481.374
481.52
481.83
481.217
480.769
481.719
481.523
481.282
481.554
481.767
482.369
482.173
481.634
482.255
482.219
482.534
482.523
482.356
482.553
482.621
482.415
482.334
482.186
481.96
482.265
482.289
482.079
481.962
482.378
482.308
482.152
482.057
481.91
482.003
481.187
482.035
481.375
481.274
481.829
480.833
481.376
480.405
480.932
481.165
481.004
481.137
481.451
480.667
480.553
480.842
481.243
482.753
481.467
481.162
482.091
481.754
480.86
483.634
482.962
484.08
482.978
483.848
482.697
483.857
482.678
481.557
481.58
481.554
481.963
482.08
482.106
483.215
482.532
481.854
482.852
482.321
483.443
482.546
483.289
482.615
482.917
481.894
483.511
482.398
482.621
483.269
482.555
481.873
482.866
482.351
483.467
482.573
482.875
481.673
481.635
481.67
482.06
482.244
482.195
480.926
481.498
480.513
481.002
481.295
481.061
481.201
481.55
481.34
482.901
481.613
481.337
482.202
481.898
480.965
480.763
480.643
480.965
480.062
480.221
480.201
480.063
479.983
482.293
481.241
482.631
481.204
482.48
480.986
482.438
481.533
480.324
480.715
480.225
481.177
480.489
481.052
481.941
480.846
480.391
481.626
480.699
482.106
481.394
482.288
482.07
481.203
480.703
482.485
481.764
481.017
482.582
481.645
482.965
481.618
482.783
481.358
482.748
481.915
480.507
480.901
480.403
481.408
480.747
481.263
482.202
481.101
480.512
481.826
480.943
482.371
481.545
480.483
480.466
480.331
480.218
480.125
480.311
480.232
480.15
480.218
480.017
482.129
481.07
482.033
480.754
482.33
480.908
481.754
481.997
480.873
481.65
480.475
482.124
480.781
481.448
481.658
480.541
480.376
480.93
480.645
481.352
481.189
482.656
482.99
481.73
481.646
482.855
482.774
481.445
482.41
481.348
482.236
480.894
482.605
481.16
481.93
482.283
481.135
481.857
480.602
482.4
481.033
481.623
482.043
480.706
480.544
481.097
480.894
481.589
481.393
480.436
480.333
480.251
480.211
481.513
482.304
481.719
481.584
482.121
480.983
480.814
481.095
481.547
482.933
481.41
481.729
481.979
482.329
481.15
481.321
481.461
481.756
483.381
483.036
482.762
482.141
483.597
482.756
482.565
483.788
484.218
483.168
483.18
483.993
484.011
482.909
482.886
481.893
481.852
481.891
482.349
482.227
482.356
483.388
482.772
483.07
482.151
483.622
482.564
482.769
483.879
484.254
483.326
483.227
484.067
484.058
483.017
483.492
483.138
482.849
482.192
483.694
482.862
482.655
483.484
482.797
483.091
482.176
483.659
482.626
482.819
483.11
481.987
481.98
481.953
482.506
482.356
482.467
481.215
481.716
480.742
481.283
481.51
481.561
482.376
481.781
481.637
482.191
481.62
483.094
481.597
481.896
482.149
482.432
481.269
481.055
480.891
481.213
481.38
481.522
481.849
482.525
482.539
482.344
482.257
482.33
482.186
482.281
480.924
480.671
480.677
481.207
481.416
482.068
481.862
481.303
481.281
481.473
482.811
481.212
482.123
480.864
481.829
480.719
480.583
480.911
481.46
480.48
480.892
480.978
481.249
481.06
481.18
481.52
482.862
481.241
481.864
481.31
481.554
482.173
480.919
480.507
481.466
481.267
480.904
480.98
480.619
480.951
480.729
480.719
481.01
480.775
480.741
480.668
480.971
482.381
481.019
481.421
480.445
481.477
480.272
480.109
480.952
480.796
480.317
480.197
480.403
480.579
480.117
480.285
480.979
480.817
480.327
480.439
480.327
480.642
481.782
480.822
481.333
481.151
481.047
482.002
480.64
482.38
480.857
482.161
481.697
480.424
480.927
480.779
482.05
481.686
481.424
482.211
480.285
480.471
480.66
480.369
480.189
481.088
480.921
480.412
480.454
480.654
480.268
480.192
481.073
480.906
480.353
480.402
480.358
480.598
480.696
480.83
482.486
481.184
481.172
481.577
481.58
480.651
480.208
480.388
481.021
480.369
480.926
480.359
480.62
480.735
480.924
480.525
480.851
482.122
481.718
482.226
481.528
480.484
480.647
480.79
481.908
481.032
481.318
481.498
481.189
482.159
480.823
482.501
480.989
482.275
481.848
480.463
481.118
480.266
480.994
480.446
482.636
481.278
481.686
480.913
481.316
481.712
480.724
480.427
480.677
480.802
480.269
481.11
481.004
480.458
480.437
480.681
480.81
480.419
480.922
481.21
480.916
481.34
481.464
481.767
481.524
482.333
481.745
482.129
481.613
481.022
480.839
481.162
481.681
480.705
481.185
481.477
481.256
483.07
481.549
482.144
481.623
481.809
482.41
481.224
481.551
482.35
481.764
482.167
481.62
481.385
481.5
481.819
480.745
481.7
481.507
481.194
481.265
480.901
481.207
481.046
481.537
481.573
482.793
481.331
482.624
482.512
482.672
484.694
484.297
485.467
484.65
485.971
485.42
486.779
483.529
485.47
484.38
485.987
484.786
486.792
485.633
483.244
482.934
481.815
483.428
482.363
482.526
483.833
485.476
483.541
484.771
485.428
486.784
484.729
486.019
484.39
484.784
483.635
486.799
485.648
486.041
484.894
483.274
482.831
483.582
484.279
482.719
483.389
484.161
483.686
483.702
482.442
483.675
483.121
484.284
483.096
484.144
484.15
483.75
484.92
483.575
484.74
484.321
485.97
485.426
486.784
483.436
484.743
484.298
485.603
484.784
486.799
485.642
484.759
483.554
485.611
484.467
483.343
483.126
484.457
483.831
483.536
482.926
484.258
486.792
484.728
486.031
484.308
485.617
483.549
484.841
485.663
486.062
484.908
485.629
484.488
484.87
483.716
483.698
484.025
484.796
484.723
483.894
483.818
484.603
484.085
484.886
483.713
484.09
484.284
484.692
483.521
484.584
485.371
484.954
485.376
484.768
485.182
484.769
481.95
482.778
483.082
483.463
482.081
482.585
482.888
482.838
483.348
483.166
481.761
483.764
482.444
482.275
483.317
483.811
484.422
483.088
484.241
482.906
483.488
483.178
484.195
483.486
482.741
484.082
483.282
482.637
483.663
484.694
484.748
483.948
484.574
483.781
483.831
482.887
482.157
482.035
481.119
482.162
482.037
481.172
483.442
482.764
482.581
481.943
483.056
482.864
482.066
481.488
481.511
481.257
482.45
482.772
482.607
482.601
483.225
483.025
483.753
484.323
482.851
483.393
484.145
482.856
481.789
483.364
483.194
482.459
482.304
483.766
483.484
483.796
484.574
484.527
483.656
483.626
484.392
483.128
482.763
483.481
484.178
482.606
483.276
484.026
482.937
483.404
483.258
481.801
483.846
482.503
482.369
483.598
484.703
484.67
483.934
484.517
483.775
483.757
483.237
483.572
484.3
482.851
484.144
482.693
483.391
481.561
481.581
481.31
482.541
482.885
482.707
482.708
483.304
484.319
483.628
482.877
484.197
483.419
482.762
483.423
484.505
483.958
483.237
484.337
483.586
483.066
483.053
483.375
483.581
482.022
483.955
482.499
482.688
481.61
481.644
481.393
482.615
482.905
482.734
482.779
482.493
481.628
482.808
483.184
481.778
482.298
482.583
482.512
483.224
482.321
481.64
482.822
481.785
482.621
480.925
482.013
482.669
481.985
481.84
481.047
481.805
481.319
481.269
482.722
481.039
482.566
482.362
482.51
482.772
481.722
483.302
483.124
482.413
482.235
483.689
482.999
484.306
483.363
483.164
483.722
482.814
484.104
483.035
482.7
483.426
484.119
482.531
483.198
483.965
483.772
484.562
483.632
483.426
484.501
483.579
484.356
482.061
482.748
481.894
480.99
482.078
481.095
481.91
481.014
482.033
482.006
482.728
481.074
481.914
481.879
483.105
482.718
484.132
483.48
483.212
482.61
484.021
483.784
483.469
484.502
484.597
483.58
483.679
484.387
482.884
481.892
483.235
483.417
482.365
482.545
483.79
483.246
483.13
484.37
483.807
483.45
482.927
484.162
483.81
484.546
483.645
483.534
484.604
483.699
484.441
482.786
484.2
483.299
483.202
483.55
482.689
484.099
483.309
483.15
484.387
483.863
483.474
482.979
484.218
482.962
481.946
483.29
483.478
482.428
482.601
483.855
482.083
481.073
482.102
482.814
481.126
481.972
481.986
481.87
482.667
483.326
482.993
482.463
482.016
482.785
481.885
482.676
483.366
483.001
482.491
482.017
482.815
481.626
483.168
482.778
482.454
482.573
482.252
481.755
483.525
482.219
483.546
483.555
482.921
482.92
484.168
483.959
483.59
483.98
484.825
483.364
484.186
484.601
483.938
483.961
483.559
484.797
483.345
484.576
484.161
484.376
485.242
484.811
485.235
484.603
485.015
484.596
484.038
484.021
483.606
484.843
483.418
484.21
484.656
483.644
483.618
482.323
483.659
483.013
483.031
484.257
484.434
485.265
484.835
485.266
484.631
485.066
484.636
484.029
484.07
483.656
484.874
483.449
484.667
484.239
481.688
483.287
482.868
482.585
482.662
482.395
481.821
482.722
481.68
483.096
483.263
482.184
482.326
483.669
483.001
483.391
482.658
484.09
482.497
483.945
483.158
483.09
483.652
482.932
484.236
482.729
484.045
483.282
483.358
484.451
484.493
483.682
484.309
483.512
483.544
483.528
483.217
482.809
484.264
482.656
484.117
483.369
483.341
483.845
483.13
484.463
482.938
484.261
483.538
483.616
484.669
484.743
483.998
484.524
483.771
483.833
483.06
482.678
483.44
484.104
482.564
483.178
483.984
482.828
483.189
481.86
483.406
482.304
483.752
482.502
483.408
484.464
483.699
484.532
483.529
484.344
483.595
483.181
483.787
484.312
483.072
484.118
482.882
483.374
483.026
483.327
481.984
483.54
482.46
483.906
482.665
483.666
484.681
484.017
484.787
483.789
484.561
483.887
483.429
483.949
484.545
483.269
484.327
483.068
483.634
481.853
483.304
482.635
482.971
482.446
482.762
481.987
484.09
484.108
483.737
484.905
483.531
484.696
484.302
484.07
484.068
484.873
483.709
484.672
483.499
484.275
484.488
485.316
485.292
484.909
485.093
484.71
484.687
483.764
483.769
482.541
483.784
483.194
484.355
483.208
484.541
485.332
485.351
484.938
485.135
484.73
484.751
484.156
484.181
484.976
483.821
484.746
483.604
484.374
481.941
483.431
482.773
483.073
482.571
482.861
482.078
481.582
482.769
482.443
483.143
481.733
482.559
482.231
483.937
483.558
484.794
483.962
484.158
483.343
484.577
484.381
484.812
485.234
485.239
484.597
484.601
485.02
483.528
483.544
482.209
483.584
482.914
484.167
482.944
483.973
484.835
483.603
484.029
484.186
484.625
483.393
484.434
484.837
485.268
485.267
484.637
484.63
485.072
484.041
483.656
484.877
484.089
484.241
483.461
484.686
484.061
484.012
484.852
483.617
484.205
484.658
483.422
483.654
483.619
483.671
482.3
483.043
484.262
483.012
481.674
482.862
482.576
483.281
481.815
482.664
482.373
483.091
482.932
484.24
483.655
483.282
482.733
484.048
483.363
484.502
483.689
484.45
483.553
484.315
483.509
482.727
483.262
481.678
483.106
482.335
483.674
482.195
483.013
484.095
483.409
482.663
483.959
483.157
482.516
483.629
484.744
484.003
484.697
483.834
484.538
483.793
483.296
482.957
483.438
481.845
482.528
483.875
482.393
483.596
483.251
484.321
482.866
484.165
483.41
482.703
483.406
483.703
484.535
484.459
483.599
483.522
484.341
483.181
484.31
483.069
483.766
483.373
484.112
482.873
483.047
484.101
482.679
483.457
483.168
483.983
482.565
482.816
483.383
483.215
481.865
483.749
482.477
482.313
483.451
484.552
483.274
483.981
483.64
484.361
483.081
483.661
483.323
484.346
482.891
483.436
484.228
482.769
483.399
483.068
483.589
482.019
483.966
482.699
482.502
481.899
482.641
482.978
483.328
482.007
482.453
482.792
484.492
485.304
484.915
485.33
484.696
485.097
484.719
483.686
483.693
483.705
482.449
484.29
483.114
483.116
484.09
484.935
484.121
483.769
484.695
484.322
483.537
484.198
484.993
483.835
484.226
484.389
484.792
483.644
484.204
484.183
484.975
483.795
484.792
484.361
483.609
483.821
483.805
483.833
482.568
484.406
483.25
483.226
482.536
481.636
482.826
483.223
482.611
481.79
482.321
483.254
482.544
482.347
481.654
482.837
482.639
481.795
480.916
482.667
481.98
481.995
481.808
481.836
481.023
484.402
483.07
483.46
483.248
483.767
484.183
482.861
483.11
483.447
484.185
482.715
484.035
482.565
483.266
484.686
483.903
483.746
483.524
484.613
484.459
483.68
481.377
482.828
481.314
482.657
481.091
482.436
482.589
482.821
482.124
481.95
481.029
482.135
481.967
481.14
481.007
482.006
482.727
482.025
481.887
481.056
481.91
484.737
483.921
483.814
483.578
484.615
484.498
483.689
482.942
483.235
483.475
481.916
483.843
482.383
482.597
484.481
483.208
483.556
483.332
483.881
484.254
482.99
481.484
482.851
481.326
482.743
481.155
482.504
482.604
482.736
481.896
483.367
483.033
482.802
482.516
482.05
484.063
483.869
484.058
484.462
484.684
484.452
485.071
484.538
485.097
484.918
485.346
485.162
485.538
485.723
484.892
484.201
484.877
484.782
484.761
485.375
485.488
485.31
485.375
485.207
485.811
486.1
485.923
485.992
485.299
485.04
484.46
485.096
484.847
485.484
485.681
485.792
485.785
485.593
485.982
486.388
486.191
486.178
485.325
485.248
485.138
485.763
486.065
485.957
485.872
486.294
486.629
486.691
486.601
486.505
486.418
486.478
485.087
484.494
485.33
484.885
485.112
485.498
485.71
484.164
484.88
484.868
484.742
484.728
485.345
485.481
485.342
485.267
485.137
485.752
486.083
485.96
485.882
484.46
485.302
485.038
485.092
484.844
485.477
485.68
485.76
485.749
485.533
485.923
486.37
486.153
486.138
485.241
485.293
485.108
485.735
486.05
485.864
485.927
486.183
486.532
486.636
486.514
486.41
486.317
486.391
484.146
483.969
484.529
484.176
484.763
484.578
485.141
485.349
485.294
485.167
485.783
486.094
485.971
485.911
484.245
484.936
484.79
484.997
484.854
485.403
485.546
485.78
485.789
485.584
485.973
486.386
486.171
486.187
484.596
485.39
485.213
485.182
485.009
485.576
485.789
486.228
486.548
486.653
486.592
486.427
486.36
486.451
485.418
485.491
485.277
485.841
486.208
485.986
486.062
485.277
485.37
485.167
485.78
486.09
485.891
485.983
483.951
484.17
484.158
484.54
484.524
484.766
485.129
485.136
484.573
485.385
484.929
485.18
485.538
485.744
485.249
485.317
485.134
485.758
486.057
485.87
485.945
486.201
486.532
486.523
486.651
486.323
486.419
486.406
484.546
485.089
485.354
484.902
485.158
485.521
485.711
485.808
485.786
485.587
485.953
486.398
486.176
486.159
484.95
484.294
485.005
484.844
484.894
485.446
485.557
485.147
484.616
485.397
484.971
485.216
485.57
485.754
484.04
484.234
484.264
484.598
484.636
484.832
485.192
486.243
486.547
486.609
486.671
486.368
486.432
486.481
485.425
485.538
485.309
485.873
486.226
485.995
486.109
485.821
485.844
485.622
485.992
486.42
486.188
486.226
484.677
485.29
485.469
485.061
485.237
485.618
485.853
485.748
485.763
485.543
485.938
486.371
486.141
486.164
485.299
485.243
485.112
485.738
486.058
485.932
485.871
486.195
486.642
486.52
486.578
486.397
486.434
486.33
484.057
484.107
483.889
484.692
484.458
484.515
485.084
485.167
485.356
484.545
485.146
484.949
485.539
485.759
484.87
484.172
484.925
484.732
484.787
485.349
485.488
485.454
485.37
485.227
485.802
486.185
486.036
485.943
485.393
485.211
484.605
485.202
485.016
485.595
485.792
486.252
486.659
486.607
486.591
486.461
486.447
486.399
485.497
485.447
485.299
485.871
486.222
486.072
486.019
484.581
485.181
484.992
485.371
485.181
485.574
485.768
484.178
484.027
484.597
484.197
484.784
484.623
485.188
485.466
485.427
485.277
485.851
486.196
486.047
486.005
484.326
485.045
484.89
485.06
484.911
485.472
485.623
486.204
486.527
486.666
486.581
486.415
486.327
486.453
485.091
485.364
484.547
484.901
485.17
485.526
485.721
485.797
485.823
485.587
485.956
486.412
486.169
486.2
484.875
484.93
484.207
484.765
484.815
485.379
485.49
485.499
485.372
485.254
485.819
486.192
485.941
486.07
484.156
483.965
484.2
484.526
484.773
484.574
485.135
485.238
485.43
484.621
485.189
485.004
485.566
485.812
485.552
485.47
485.355
485.923
486.244
486.128
486.04
485.863
485.865
485.67
486.042
486.442
486.249
486.235
485.303
485.484
484.72
485.108
485.28
485.666
485.87
485.451
485.513
485.333
485.906
486.209
486.027
486.09
485.065
484.383
484.946
485.082
484.971
485.529
485.645
485.262
484.708
485.089
485.468
485.283
485.655
485.841
484.128
484.323
484.7
484.322
484.709
484.892
485.27
478.991
477.196
475.732
479.11
477.347
475.935
479.068
477.289
475.873
479.12
477.313
475.822
478.948
477.145
475.653
478.958
477.183
475.727
478.974
477.204
475.77
479.553
477.888
476.524
479.732
478.108
476.802
480.825
479.332
478.07
478.957
477.156
475.664
480.771
479.277
478.012
480.507
478.936
477.607
480.317
478.697
477.366
479.051
477.236
475.718
478.9
477.037
475.481
479.46
477.788
476.417
479.655
478.03
476.723
481.743
480.666
479.855
480.5
478.935
477.611
480.318
478.698
477.363
478.896
477.105
475.628
478.93
477.142
475.702
478.854
476.992
475.433
478.818
476.937
475.355
478.819
476.939
475.36
478.801
476.928
475.352
478.862
477
475.44
479.171
477.415
476.009
479.2
477.436
476.011
479.127
477.354
475.944
479.348
477.678
476.348
479.427
477.777
476.453
478.8
476.929
475.353
478.834
476.979
475.426
478.873
477.031
475.494
478.94
477.125
475.618
478.79
476.928
475.37
478.835
476.976
475.423
478.839
476.979
475.423
478.838
476.979
475.424
478.845
476.99
475.439
479.374
477.617
476.189
480.279
478.662
477.322
479.369
477.617
476.196
480.308
478.689
477.35
478.887
477.092
475.645
478.89
477.09
475.636
479.116
477.32
475.805
478.918
477.134
475.687
478.937
477.141
475.664
478.957
477.167
475.725
478.947
477.163
475.726
478.93
477.144
475.706
479.363
477.691
476.363
479.457
477.808
476.504
478.975
477.193
475.736
479.003
477.226
475.789
479.727
478.102
476.799
480.912
479.545
478.42
480.733
479.313
478.176
480.938
479.569
478.445
480.751
479.33
478.19
481.427
480.257
479.383
481.438
480.263
479.382
480.277
478.653
477.313
479.301
477.545
476.121
480.321
478.702
477.374
479.262
477.485
476.022
479.405
477.655
476.239
478.775
476.902
475.324
478.952
477.138
475.644
479.151
477.34
475.838
478.857
476.975
475.4
478.818
476.964
475.411
479.323
477.636
476.281
479.484
477.839
476.547
479.426
477.72
476.324
478.901
477.038
475.482
479.656
478.033
476.733
480.892
479.525
478.398
480.716
479.291
478.151
481.203
479.893
478.812
481.187
479.879
478.801
480.68
479.254
478.128
480.807
479.416
478.286
481.182
479.859
478.777
479.567
477.906
476.548
479.738
478.118
476.813
480.936
479.565
478.44
480.751
479.331
478.196
481.739
480.67
479.873
481.744
480.668
479.862
481.427
480.255
479.38
481.437
480.262
479.38
480.246
478.622
477.28
479.29
477.537
476.114
480.269
478.653
477.347
480.255
478.636
477.313
479.255
477.48
476.022
479.392
477.642
476.22
478.777
476.905
475.326
479.05
477.269
475.83
479.112
477.341
475.925
478.947
477.135
475.651
478.858
476.976
475.4
478.815
476.962
475.408
479.416
477.708
476.304
478.995
477.197
475.729
479.327
477.637
476.286
479.509
477.857
476.551
479.388
477.708
476.37
480.86
479.493
478.364
480.678
479.256
478.115
481.195
479.886
478.808
481.173
479.851
478.769
481.182
479.874
478.799
480.687
479.264
478.138
480.82
479.433
478.311
480.664
479.241
478.111
479.744
478.123
476.829
480.758
479.339
478.205
481.738
480.667
479.866
480.298
478.677
477.342
479.215
477.44
475.983
479.382
477.629
476.201
479.24
477.468
476.008
479.393
477.644
476.231
478.896
477.091
475.632
478.875
477.07
475.58
478.894
477.093
475.646
478.922
477.126
475.645
478.944
477.155
475.709
478.937
477.141
475.662
478.944
477.153
475.708
478.871
477.084
475.607
478.908
477.127
475.692
479.417
477.769
476.462
478.995
477.219
475.789
478.987
477.211
475.769
480.935
479.568
478.447
480.744
479.322
478.183
479.527
477.859
476.489
479.718
478.093
476.794
480.738
479.317
478.183
479.729
478.105
476.805
478.859
477.045
475.565
478.951
477.161
475.772
478.874
477.108
475.743
478.76
476.978
475.532
478.838
477.017
475.518
478.944
477.15
475.757
478.847
477.027
475.537
478.836
477.016
475.526
478.858
477.054
475.577
479.049
477.308
475.963
479.046
477.294
475.872
479.11
477.381
476.052
478.841
477.03
475.564
478.925
477.124
475.735
478.746
476.955
475.52
478.85
477.06
475.68
478.793
476.949
475.403
478.77
476.941
475.41
478.886
477.043
475.506
478.951
477.14
475.637
478.895
477.088
475.607
479.019
477.287
475.959
479.055
477.308
475.897
479.108
477.386
476.063
479.267
477.502
476.083
479.057
477.267
475.836
479.242
477.478
476.067
479.075
477.286
475.868
479.27
477.559
476.208
479.513
477.858
476.553
478.824
477.02
475.566
478.926
477.13
475.736
478.874
477.082
475.694
478.743
476.952
475.509
478.81
476.968
475.423
478.781
476.951
475.419
478.904
477.11
475.619
478.811
476.994
475.474
479.067
477.331
475.983
478.995
477.259
475.871
479.107
477.383
476.056
479.192
477.425
476.002
478.993
477.189
475.749
479.179
477.427
476.022
479.294
477.553
476.145
479.01
477.222
475.755
479.079
477.316
475.922
478.989
477.211
475.77
479.025
477.239
475.731
479.06
477.287
475.835
479.067
477.326
475.94
479.03
477.282
475.867
479.199
477.477
476.13
479.132
477.394
475.968
479.121
477.377
475.955
479.035
477.263
475.81
479.856
478.264
476.976
479.918
478.351
477.116
480.037
478.492
477.255
479.804
478.214
476.948
479.658
478.047
476.768
479.7
478.081
476.793
479.523
477.868
476.541
479.627
477.994
476.727
479.9
478.314
477.011
480.107
478.56
477.302
480.136
478.588
477.325