/*--------------------------------*- C++ -*----------------------------------*\
| =========                 |                                                 |
| \\      /  F ield         | OpenFOAM: The Open Source CFD Toolbox           |
|  \\    /   O peration     | Version:  v1906                                 |
|   \\  /    A nd           | Web:      www.OpenFOAM.com                      |
|    \\/     M anipulation  |                                                 |
\*---------------------------------------------------------------------------*/
FoamFile
{
    version     2.0;
    format      ascii;
    class       volScalarField;
    location    "51";
    object      alphat;
}
// * * * * * * * * * * * * * * * * * * * * * * * * * * * * * * * * * * * * * //

dimensions      [1 -1 -1 0 0 0 0];


internalField   nonuniform List<scalar> 
78750
(
0.00120114
0.00266744
0.00186892
0.000712626
9.25974e-05
4.026e-06
3.32346e-05
2.06003e-05
3.46139e-05
2.93979e-05
3.71031e-05
3.75397e-05
4.2479e-05
4.45679e-05
4.7974e-05
5.09812e-05
5.37912e-05
5.64944e-05
5.90312e-05
6.13989e-05
6.34892e-05
6.52899e-05
6.6834e-05
6.80703e-05
6.89335e-05
6.92432e-05
6.86944e-05
6.6982e-05
6.38846e-05
5.92943e-05
5.31955e-05
4.57261e-05
3.64028e-05
1.41038e-05
6.77939e-07
0.000138401
0.00025703
0.000287247
6.5925e-05
6.02327e-06
2.75475e-05
2.63097e-05
3.79943e-05
4.92767e-05
6.31684e-05
7.52443e-05
9.06072e-05
0.000104109
0.000117917
0.000130816
0.000142538
0.000153057
0.000162297
0.000170331
0.000177177
0.000182862
0.000187423
0.000190875
0.000193033
0.000193377
0.000191874
0.000189317
0.000186054
0.000181256
0.000172662
0.000156004
0.000124372
6.81254e-05
1.80496e-05
1.56765e-06
8.33655e-06
2.85468e-05
7.90385e-05
7.06921e-05
6.28673e-05
9.09711e-05
5.29171e-05
5.10475e-05
6.20702e-05
7.21354e-05
8.48463e-05
9.49888e-05
0.000101566
0.000106451
0.0001118
0.00011855
0.000126825
0.00013614
0.000145134
0.000151479
0.000152821
0.000148539
0.000140577
0.000132528
0.000126741
0.00012331
0.000120792
0.000117092
0.000110547
0.000100156
8.43489e-05
6.05097e-05
3.46888e-05
2.0911e-05
3.36975e-06
5.06955e-06
1.93621e-05
4.46223e-05
0.000103841
7.23974e-05
5.59028e-05
4.99059e-05
4.65609e-05
4.60619e-05
5.27463e-05
6.93074e-05
9.56207e-05
0.000122815
0.000139027
0.00014287
0.000140083
0.000134912
0.000128774
0.00012198
0.000115034
0.000108924
0.000104766
0.000102824
0.000101271
9.61247e-05
8.51945e-05
7.09649e-05
5.4275e-05
3.6272e-05
2.86186e-05
2.77199e-05
2.77463e-05
2.35188e-05
1.65302e-05
3.74856e-06
4.91156e-06
7.41784e-05
0.000160822
0.000154913
0.000139336
0.00011788
9.41952e-05
8.27479e-05
8.49639e-05
0.00010093
0.000133966
0.000177895
0.000209651
0.000224553
0.000225407
0.000224949
0.000224635
0.000224182
0.00020183
0.000170932
0.000149557
0.000133901
0.000120929
0.00010967
9.86595e-05
8.65325e-05
7.32957e-05
5.82504e-05
3.76218e-05
1.0414e-05
4.69252e-06
1.93392e-06
7.19598e-06
1.86376e-05
5.0918e-06
4.90669e-06
2.0623e-05
5.94863e-05
0.000111997
0.000115787
9.32655e-05
7.30289e-05
5.98697e-05
5.25443e-05
5.03359e-05
5.34901e-05
6.33416e-05
8.24251e-05
0.000113176
0.000152818
0.000190543
0.000217528
0.000233581
0.000241713
0.000243358
0.000238633
0.000228577
0.000215243
0.00020114
0.000186868
0.000171003
0.000152978
0.000132661
0.000109101
8.15243e-05
4.74316e-05
1.02291e-05
3.22203e-06
8.77698e-06
5.25132e-06
6.43077e-06
6.84972e-05
0.000162551
0.000132876
9.79276e-05
7.76683e-05
6.74942e-05
6.38049e-05
6.64484e-05
7.77983e-05
0.000102884
0.000146705
0.0001998
0.000232709
0.000234516
0.000236514
0.000238405
0.000240001
0.000241171
0.000241812
0.000241821
0.000241076
0.000239428
0.000236696
0.000232664
0.000227161
0.000202344
0.000155894
0.000109284
6.79125e-05
2.99819e-05
3.64427e-06
1.21616e-06
1.24216e-05
6.48804e-06
4.93517e-06
2.35983e-05
7.53088e-05
0.000128341
0.000140476
0.0001191
8.95416e-05
6.88154e-05
5.62365e-05
4.83236e-05
4.40505e-05
4.4463e-05
5.27356e-05
7.5854e-05
0.000123883
0.000191563
0.000235024
0.000236032
0.000237352
0.00023878
0.000240119
0.000241175
0.000241752
0.000241637
0.000240587
0.000238322
0.000234573
0.00022918
0.000193863
0.000132995
6.94623e-05
1.42862e-05
1.28652e-06
8.0936e-06
6.93915e-06
6.50571e-06
4.92652e-05
0.000152381
0.000176436
0.000135432
9.40571e-05
7.26372e-05
6.68757e-05
7.11067e-05
7.74433e-05
7.68649e-05
7.17244e-05
7.24898e-05
8.90011e-05
0.000133017
0.000201831
0.00023663
0.0002366
0.000236951
0.000237592
0.00023841
0.000239278
0.000240044
0.000240534
0.000240546
0.000239845
0.000238177
0.000235416
0.000191698
0.000118838
5.49279e-05
1.42751e-05
4.11219e-06
1.27324e-05
7.84209e-06
6.30897e-06
2.96802e-05
9.19417e-05
0.000141522
0.000142935
0.000112596
7.8327e-05
5.92739e-05
5.27353e-05
5.29794e-05
5.56897e-05
5.78607e-05
5.95632e-05
6.50538e-05
8.11753e-05
0.000116979
0.000178322
0.000238617
0.000239222
0.00024
0.000240828
0.000241592
0.000242172
0.000242437
0.000242227
0.00024135
0.000239572
0.000236713
0.000230051
0.000149299
6.88624e-05
1.66923e-05
4.56875e-06
1.21836e-05
8.2171e-06
6.93045e-06
3.70449e-05
0.000109873
0.000157365
0.000138833
9.51895e-05
6.51814e-05
5.33628e-05
5.38022e-05
6.27773e-05
7.46945e-05
7.95736e-05
7.45171e-05
6.97369e-05
7.96843e-05
0.000126254
0.000229447
0.000232659
0.000233374
0.000234815
0.000236701
0.000238756
0.000240738
0.000242434
0.000243656
0.000244224
0.000243954
0.000242726
0.000193715
0.000117218
5.22333e-05
1.56945e-05
6.88266e-06
1.83562e-05
8.60503e-06
7.42109e-06
3.28895e-05
0.000100061
0.000143709
0.00012086
7.67496e-05
5.10852e-05
4.26274e-05
4.44128e-05
5.51329e-05
7.53787e-05
9.73933e-05
0.000102538
8.75564e-05
7.18297e-05
6.96716e-05
9.17103e-05
0.000159385
0.000234904
0.000234413
0.000234661
0.00023547
0.000236631
0.000237917
0.000239093
0.000239914
0.000240114
0.000239494
0.000225862
0.000146863
6.75185e-05
1.82753e-05
7.08342e-06
1.74464e-05
8.65236e-06
8.53937e-06
4.39092e-05
0.000134044
0.000140147
8.63898e-05
4.64375e-05
3.19592e-05
3.14589e-05
4.09849e-05
6.01757e-05
8.74306e-05
0.000115279
0.000135446
0.000149654
0.000165821
0.000189562
0.000219275
0.000237468
0.000237521
0.000237838
0.000238414
0.000239199
0.000240107
0.000241025
0.000241811
0.000242301
0.000242323
0.000227977
0.000164134
0.00010281
4.95593e-05
1.75995e-05
9.33222e-06
2.35169e-05
8.79921e-06
8.69143e-06
4.0632e-05
0.000125918
0.000134986
8.09427e-05
4.401e-05
3.17442e-05
3.47788e-05
5.15834e-05
7.5783e-05
9.27647e-05
9.7269e-05
9.26761e-05
8.4953e-05
8.13325e-05
8.97505e-05
0.000119552
0.000176667
0.000237197
0.000237219
0.00023758
0.000238233
0.000239069
0.000239956
0.000240745
0.000241263
0.000241352
0.000214951
0.000165668
0.000111898
5.5133e-05
1.76925e-05
9.36114e-06
2.35792e-05
8.89271e-06
9.34795e-06
5.24824e-05
0.000145162
0.000126109
7.20158e-05
3.80218e-05
2.43941e-05
2.32961e-05
3.67663e-05
7.53406e-05
0.000130136
0.000159932
0.000160102
0.000149007
0.00014254
0.000149972
0.000173523
0.00020723
0.000236241
0.000240294
0.000240311
0.00024054
0.000240924
0.000241379
0.000241785
0.000242001
0.000217361
0.000179444
0.000137929
9.25531e-05
4.61126e-05
1.71145e-05
1.08373e-05
2.91057e-05
9.19622e-06
8.7584e-06
4.39315e-05
0.000133605
0.000146135
0.000108009
5.97702e-05
3.29511e-05
2.45968e-05
2.88315e-05
4.54677e-05
7.04878e-05
9.37427e-05
0.000110425
0.00012372
0.000138203
0.000156815
0.000180563
0.000206843
0.000228906
0.000240814
0.000241189
0.000241533
0.000241825
0.000242017
0.000234761
0.000217805
0.000193148
0.000162615
0.000126598
8.35747e-05
3.8988e-05
1.47689e-05
1.12658e-05
3.43526e-05
9.29806e-06
9.10906e-06
4.81107e-05
0.000140102
0.000151906
0.000116841
7.30166e-05
4.01198e-05
2.49311e-05
2.319e-05
3.5253e-05
6.61331e-05
0.000107969
0.000137164
0.000151557
0.000166747
0.000192231
0.000222368
0.000238035
0.000238785
0.000239522
0.000240224
0.000240863
0.000241396
0.000241761
0.000240769
0.000218106
0.000188093
0.0001544
0.000117268
7.48179e-05
3.36812e-05
1.35606e-05
1.22255e-05
4.31371e-05
9.36601e-06
9.27869e-06
5.08664e-05
0.00014482
0.000143137
0.000106677
7.07533e-05
4.5644e-05
2.95135e-05
2.30682e-05
2.71805e-05
4.51628e-05
7.92926e-05
0.000117968
0.000144194
0.000158933
0.000172257
0.000189359
0.000207897
0.000222429
0.000230861
0.00023523
0.000237543
0.000237819
0.000233782
0.000221724
0.000200562
0.00017284
0.000140642
0.000103144
6.04579e-05
2.54816e-05
1.1832e-05
1.3854e-05
6.01708e-05
9.38972e-06
8.82781e-06
4.69799e-05
0.000133973
0.000165366
0.000153823
0.000118395
7.68393e-05
4.67892e-05
3.03446e-05
2.43402e-05
2.67041e-05
3.82405e-05
6.15445e-05
9.35379e-05
0.000124197
0.00014899
0.000169356
0.000186617
0.000200985
0.000212311
0.000220193
0.000223928
0.000222651
0.000215639
0.000202615
0.000183973
0.000160307
0.000131133
9.41722e-05
5.15196e-05
2.09192e-05
1.11603e-05
1.68457e-05
8.74456e-05
9.33734e-06
8.79008e-06
4.33285e-05
0.000130859
0.000165777
0.000150834
0.000122001
9.70074e-05
7.61733e-05
5.47126e-05
3.75063e-05
2.86343e-05
2.70472e-05
3.31966e-05
5.07177e-05
7.97804e-05
0.000108755
0.000131423
0.000151047
0.000168357
0.000181716
0.000190313
0.000194127
0.00019312
0.000187181
0.000176406
0.000161153
0.000141655
0.000116984
8.43152e-05
4.55835e-05
1.85014e-05
1.06517e-05
1.92375e-05
0.000105339
9.23774e-06
8.21032e-06
3.6664e-05
0.000106737
0.000159201
0.000162458
0.000138824
0.000106249
8.47246e-05
7.59724e-05
6.63138e-05
4.86118e-05
3.39034e-05
2.68768e-05
2.76397e-05
3.96155e-05
7.04795e-05
0.00011376
0.000143702
0.000160525
0.000171671
0.000177666
0.000178216
0.000173885
0.000165506
0.000153927
0.000139848
0.000123515
0.000104083
7.85277e-05
4.55095e-05
1.89657e-05
1.0522e-05
1.96021e-05
0.000106875
9.1869e-06
8.69396e-06
3.62672e-05
0.000103635
0.000154248
0.000155236
0.000130452
9.4319e-05
6.81711e-05
6.00528e-05
6.73671e-05
7.80507e-05
6.48617e-05
4.16016e-05
2.9607e-05
2.80467e-05
3.75091e-05
6.57374e-05
0.000118625
0.000171511
0.000197164
0.000201008
0.000193009
0.000179042
0.000162763
0.000146
0.000129321
0.000112578
9.47224e-05
7.30342e-05
4.47063e-05
1.90801e-05
1.01515e-05
1.84121e-05
0.000102871
9.24776e-06
9.16779e-06
3.84522e-05
0.000109162
0.000156301
0.000158048
0.000136308
9.92568e-05
6.70126e-05
5.11499e-05
4.96346e-05
5.96267e-05
7.10123e-05
5.91877e-05
3.8707e-05
2.9928e-05
3.31532e-05
5.39194e-05
0.000110453
0.0001936
0.000198372
0.000198957
0.000199777
0.000194124
0.000166642
0.000140971
0.000119693
0.00010153
8.44561e-05
6.51801e-05
4.0404e-05
1.78889e-05
1.01442e-05
1.85285e-05
0.000102899
9.41217e-06
9.52236e-06
3.98752e-05
0.00011467
0.000160268
0.000158669
0.000132622
9.45754e-05
6.56637e-05
5.20479e-05
4.95339e-05
5.42824e-05
6.10471e-05
5.83433e-05
4.37963e-05
3.30452e-05
3.26344e-05
4.63856e-05
8.57514e-05
0.000151878
0.000196304
0.000195611
0.000195074
0.000182242
0.000158096
0.000132529
0.000109391
8.94251e-05
7.15374e-05
5.27929e-05
3.08767e-05
1.44797e-05
1.01236e-05
2.04034e-05
0.000109435
9.62125e-06
9.79108e-06
4.22116e-05
0.000121956
0.000163921
0.000159536
0.000130472
8.96916e-05
5.97728e-05
4.66984e-05
4.57119e-05
5.18459e-05
5.84002e-05
5.71213e-05
4.7032e-05
3.7962e-05
3.73366e-05
4.97958e-05
8.25846e-05
0.000133734
0.000173857
0.000185459
0.000180804
0.000168188
0.000149128
0.000126315
0.000103015
8.11436e-05
6.0926e-05
4.1077e-05
2.20283e-05
1.14339e-05
1.03653e-05
2.37526e-05
0.000115255
9.81869e-06
9.88732e-06
4.2193e-05
0.000121316
0.000166934
0.000165939
0.000142314
0.000103771
6.74251e-05
4.70077e-05
4.10938e-05
4.5327e-05
5.43761e-05
5.83895e-05
5.14901e-05
4.19574e-05
3.91699e-05
4.79175e-05
7.44149e-05
0.00012164
0.00016914
0.000190079
0.000188933
0.000177304
0.00015837
0.000134171
0.000107689
8.09973e-05
5.49271e-05
3.1075e-05
1.49505e-05
9.24004e-06
1.08961e-05
2.78147e-05
0.000112562
9.9539e-06
9.92628e-06
4.12485e-05
0.000117818
0.000166513
0.000164895
0.000140817
0.000106611
7.36774e-05
5.016e-05
3.90645e-05
3.90148e-05
4.80782e-05
6.05928e-05
6.3508e-05
5.40768e-05
4.62283e-05
4.89948e-05
6.84863e-05
0.000113067
0.000174601
0.000207178
0.000204693
0.00020164
0.000182626
0.000154119
0.000123615
9.18622e-05
5.79253e-05
2.67755e-05
1.09146e-05
7.84009e-06
1.16965e-05
3.24727e-05
0.00010129
9.98203e-06
9.79472e-06
3.81285e-05
0.000109198
0.000162856
0.000161739
0.000135734
0.000101521
7.34473e-05
5.32812e-05
4.02083e-05
3.58295e-05
4.0605e-05
5.34434e-05
6.65603e-05
6.66102e-05
5.7761e-05
5.53157e-05
6.88999e-05
0.000110203
0.000183554
0.000214673
0.000212373
0.000209625
0.000203163
0.000171658
0.000139633
0.000106023
6.6764e-05
2.78297e-05
9.68801e-06
7.02451e-06
1.25362e-05
3.75124e-05
8.6217e-05
9.87832e-06
9.96141e-06
3.72488e-05
0.000106985
0.000164212
0.000157804
0.000122038
8.25457e-05
5.85614e-05
4.71594e-05
4.00911e-05
3.66061e-05
4.02813e-05
5.30879e-05
7.1083e-05
7.95886e-05
7.27054e-05
6.6241e-05
7.47042e-05
0.000112612
0.000194658
0.000222647
0.000220449
0.000218059
0.00021506
0.000186274
0.000151965
0.000118252
7.87891e-05
3.44882e-05
1.09935e-05
6.59111e-06
1.24628e-05
3.97955e-05
7.49503e-05
9.70597e-06
1.07368e-05
4.10771e-05
0.000122669
0.000170626
0.000148059
9.94523e-05
5.93301e-05
4.04523e-05
3.54129e-05
3.60549e-05
3.84033e-05
4.51327e-05
5.96391e-05
7.84047e-05
8.86531e-05
8.51516e-05
8.03657e-05
8.92706e-05
0.000126071
0.000197518
0.000231997
0.000229911
0.000227798
0.000222897
0.000187894
0.000155495
0.000124525
8.95675e-05
4.64998e-05
1.54978e-05
6.90468e-06
1.11244e-05
3.61078e-05
7.1861e-05
9.59882e-06
1.15558e-05
4.95937e-05
0.00014613
0.000162919
0.00012441
7.41188e-05
4.19593e-05
2.8968e-05
2.85209e-05
3.60276e-05
4.69263e-05
5.97489e-05
7.39087e-05
8.45491e-05
8.73188e-05
8.51319e-05
8.62973e-05
9.8915e-05
0.000127477
0.000166121
0.00019655
0.00020674
0.000199997
0.00018401
0.000164099
0.00014274
0.000120101
9.39346e-05
5.93832e-05
2.38119e-05
8.60009e-06
9.47557e-06
2.94416e-05
7.85811e-05
9.62277e-06
1.17207e-05
5.62411e-05
0.000150428
0.000147797
0.000108402
6.45454e-05
3.72112e-05
2.55664e-05
2.57806e-05
3.64866e-05
5.29505e-05
6.77004e-05
7.76906e-05
8.27846e-05
8.45176e-05
8.6428e-05
9.2815e-05
0.000106286
0.000125286
0.000144105
0.000157187
0.000162385
0.000160295
0.000152539
0.000140855
0.000126611
0.000110513
9.18134e-05
6.63763e-05
3.22814e-05
1.14695e-05
8.64353e-06
2.44164e-05
9.40048e-05
9.7736e-06
1.11976e-05
5.3464e-05
0.000145366
0.000156397
0.000131171
9.07848e-05
5.44817e-05
3.28642e-05
2.45961e-05
2.71625e-05
3.8767e-05
5.4567e-05
6.79561e-05
7.67947e-05
8.32314e-05
9.04933e-05
0.000101285
0.000116409
0.000133536
0.000148157
0.000156745
0.000158623
0.000154847
0.000146713
0.000135313
0.000121584
0.000106055
8.77989e-05
6.3151e-05
3.18391e-05
1.30916e-05
9.18069e-06
2.36053e-05
0.000105897
1.00907e-05
1.07889e-05
4.87695e-05
0.000140268
0.000169235
0.000160689
0.000135453
9.55601e-05
5.63193e-05
3.25523e-05
2.27966e-05
2.30585e-05
3.23892e-05
4.98229e-05
6.91794e-05
8.50985e-05
9.92372e-05
0.00011538
0.00013529
0.000157301
0.000176488
0.000187422
0.000188112
0.00018039
0.000167152
0.000150488
0.000131452
0.000109909
8.33023e-05
4.86562e-05
2.28409e-05
1.28813e-05
1.18171e-05
2.95818e-05
0.000108336
1.04554e-05
1.05891e-05
4.54178e-05
0.00013293
0.000174155
0.000169219
0.000151558
0.000130078
0.00010036
6.25449e-05
3.52191e-05
2.25194e-05
1.99435e-05
2.66031e-05
4.44813e-05
7.17495e-05
0.00010138
0.000130651
0.000161297
0.000192671
0.000219201
0.00023335
0.000232089
0.00021866
0.000198101
0.000173693
0.000146293
0.000114056
7.33078e-05
3.31841e-05
1.58935e-05
1.37569e-05
1.78936e-05
4.47005e-05
9.52765e-05
1.05071e-05
1.06797e-05
4.49889e-05
0.000131724
0.000176886
0.000171015
0.000148559
0.000124637
0.00010802
9.38905e-05
6.64296e-05
3.75393e-05
2.23855e-05
1.83393e-05
2.41454e-05
4.30912e-05
7.77098e-05
0.000122655
0.000169691
0.000212548
0.000243044
0.000254268
0.000247284
0.000228698
0.000204414
0.000177319
0.000147374
0.00011108
6.5187e-05
2.70578e-05
1.29344e-05
1.42795e-05
2.69134e-05
7.37879e-05
7.26695e-05
1.00977e-05
1.09579e-05
4.69448e-05
0.000135266
0.000178589
0.000175737
0.000156279
0.000127171
9.86563e-05
8.18991e-05
7.56188e-05
6.09067e-05
3.5635e-05
2.10382e-05
1.79195e-05
2.5535e-05
4.88016e-05
9.36112e-05
0.000152483
0.000203833
0.000232395
0.00023697
0.000224738
0.000204206
0.00018094
0.000157091
0.000132368
0.000103934
6.72314e-05
3.08779e-05
1.34432e-05
1.23128e-05
2.82972e-05
9.71783e-05
5.78362e-05
9.61752e-06
1.12763e-05
4.99556e-05
0.000142338
0.000180956
0.000176382
0.000159056
0.00013523
0.000106662
8.0553e-05
6.56602e-05
5.99079e-05
4.78281e-05
2.88896e-05
1.90908e-05
1.99223e-05
3.28166e-05
6.47727e-05
0.000120442
0.000181173
0.00021376
0.000213759
0.000197441
0.000176714
0.000156143
0.000136637
0.000117704
9.80111e-05
7.46484e-05
4.51672e-05
2.01707e-05
1.13201e-05
2.01636e-05
6.82961e-05
5.97527e-05
9.54769e-06
1.14907e-05
5.31492e-05
0.000151072
0.000182326
0.000173483
0.000153022
0.000129187
0.00010612
8.49579e-05
6.75421e-05
5.61493e-05
4.73958e-05
3.39117e-05
2.22891e-05
1.9585e-05
2.7706e-05
5.16996e-05
9.67987e-05
0.000149597
0.000180076
0.000181968
0.000169929
0.000154295
0.000138417
0.000123111
0.000108439
9.38328e-05
7.80963e-05
5.93171e-05
3.5763e-05
1.54613e-05
1.3849e-05
3.49992e-05
8.30409e-05
9.92715e-06
1.15058e-05
5.50564e-05
0.000155647
0.000183734
0.000174018
0.000152794
0.000127559
0.000103686
8.45284e-05
6.9979e-05
5.82431e-05
4.75055e-05
3.55666e-05
2.47034e-05
2.0588e-05
2.63605e-05
4.60991e-05
8.30554e-05
0.000125211
0.000150699
0.000155644
0.000149465
0.000139004
0.000127002
0.000114642
0.00010253
9.03825e-05
7.66412e-05
6.01723e-05
4.32092e-05
2.18357e-05
1.20249e-05
2.48501e-05
0.000109944
1.06464e-05
1.14419e-05
5.60283e-05
0.000158472
0.000183606
0.000172311
0.000150633
0.000126367
0.000103731
8.51707e-05
7.1498e-05
6.10358e-05
5.05674e-05
3.84142e-05
2.7152e-05
2.19031e-05
2.61486e-05
4.40578e-05
7.95273e-05
0.000121445
0.000147026
0.000152101
0.00014632
0.000136256
0.000124382
0.000111872
9.92178e-05
8.53646e-05
6.72089e-05
4.75712e-05
3.33615e-05
2.07501e-05
1.39586e-05
2.85369e-05
0.000120683
1.13631e-05
1.12955e-05
5.55035e-05
0.000157962
0.00018347
0.000171592
0.000149372
0.000126098
0.000105737
8.87368e-05
7.51951e-05
6.48189e-05
5.51662e-05
4.33015e-05
3.0876e-05
2.36404e-05
2.5637e-05
4.10884e-05
7.60857e-05
0.000125753
0.000163053
0.000172316
0.000163748
0.000148817
0.000132048
0.000114342
9.46591e-05
7.06115e-05
4.50672e-05
3.06996e-05
2.4492e-05
1.99775e-05
2.14781e-05
4.92267e-05
0.000102656
1.16383e-05
1.11945e-05
5.50954e-05
0.000158486
0.000184034
0.000169914
0.000145052
0.000121503
0.000103982
9.09965e-05
8.00905e-05
7.06756e-05
6.18924e-05
5.08143e-05
3.70662e-05
2.66391e-05
2.49694e-05
3.61821e-05
6.78176e-05
0.000123675
0.000179164
0.000199344
0.000188
0.000164523
0.000138134
0.00011019
7.96316e-05
4.89554e-05
2.82046e-05
2.22868e-05
2.4025e-05
2.49586e-05
3.54544e-05
9.07714e-05
7.70649e-05
1.12997e-05
1.11007e-05
5.41521e-05
0.000157359
0.000183984
0.000167521
0.000139457
0.000115139
9.98916e-05
9.08547e-05
8.3623e-05
7.63595e-05
6.90841e-05
5.99804e-05
4.64604e-05
3.24967e-05
2.57581e-05
3.05176e-05
5.27791e-05
0.000100015
0.000157173
0.000184353
0.000176391
0.000153104
0.000125682
9.65859e-05
6.60056e-05
3.8327e-05
2.15258e-05
1.75807e-05
2.52607e-05
3.90222e-05
6.10789e-05
0.000125114
6.16153e-05
1.04773e-05
1.11169e-05
5.37468e-05
0.000156861
0.000182133
0.000160955
0.000128674
0.000104171
9.20395e-05
8.78783e-05
8.57504e-05
8.19931e-05
7.64199e-05
6.90645e-05
5.74276e-05
4.17057e-05
2.96744e-05
2.74485e-05
3.86712e-05
6.85842e-05
0.000110625
0.000135735
0.000134678
0.00012043
0.000102035
8.24023e-05
6.12218e-05
3.89878e-05
2.19024e-05
1.50568e-05
1.94403e-05
4.27698e-05
0.000100531
0.00012804
4.75137e-05
9.57022e-06
1.11873e-05
5.36022e-05
0.000156078
0.000177748
0.00015116
0.000115592
9.2017e-05
8.28088e-05
8.25089e-05
8.50518e-05
8.58809e-05
8.35153e-05
7.82983e-05
6.89557e-05
5.37458e-05
3.76101e-05
2.88639e-05
3.0925e-05
4.59132e-05
7.23669e-05
9.53095e-05
0.000100914
9.36492e-05
8.17483e-05
6.92787e-05
5.75331e-05
4.51493e-05
3.05552e-05
1.86845e-05
1.55801e-05
2.58962e-05
7.16047e-05
0.000116672
4.42535e-05
9.17064e-06
1.12915e-05
5.43109e-05
0.000156964
0.000172534
0.000139672
0.000102089
8.09033e-05
7.52231e-05
7.877e-05
8.54145e-05
9.00783e-05
9.05163e-05
8.69983e-05
7.92973e-05
6.5751e-05
4.81155e-05
3.45184e-05
3.04599e-05
3.74934e-05
5.50821e-05
7.49101e-05
8.4064e-05
8.08812e-05
7.16621e-05
6.09672e-05
5.17955e-05
4.59051e-05
4.12124e-05
3.31303e-05
2.31166e-05
2.06703e-05
3.29918e-05
7.68348e-05
5.72814e-05
9.65346e-06
1.13372e-05
5.48728e-05
0.000156282
0.00016504
0.000127336
8.96309e-05
7.11716e-05
6.84547e-05
7.53367e-05
8.62364e-05
9.5804e-05
0.00010062
9.98065e-05
9.30693e-05
7.94338e-05
6.03146e-05
4.28249e-05
3.40489e-05
3.65509e-05
5.10615e-05
7.13584e-05
8.27923e-05
8.01707e-05
6.88336e-05
5.44099e-05
4.40541e-05
4.26565e-05
4.71044e-05
4.82505e-05
3.64049e-05
2.23548e-05
2.2009e-05
4.5648e-05
7.54469e-05
1.09239e-05
1.12933e-05
5.47111e-05
0.00015381
0.000158739
0.000118985
8.18269e-05
6.48603e-05
6.35193e-05
7.22081e-05
8.58854e-05
9.91076e-05
0.000108006
0.000111125
0.000107523
9.55296e-05
7.56223e-05
5.45357e-05
4.106e-05
3.9359e-05
5.24501e-05
7.89704e-05
9.76633e-05
8.925e-05
6.44724e-05
4.27859e-05
3.44142e-05
3.99069e-05
5.50135e-05
5.58536e-05
3.40847e-05
2.26178e-05
2.94343e-05
7.55765e-05
6.87896e-05
1.14614e-05
1.11954e-05
5.28962e-05
0.000148584
0.000154929
0.000116
7.83903e-05
6.0341e-05
5.7654e-05
6.56068e-05
8.06737e-05
9.7859e-05
0.00011167
0.000118875
0.000118246
0.000108657
9.00417e-05
6.74156e-05
4.95551e-05
4.17383e-05
4.61234e-05
6.32782e-05
8.15691e-05
7.94047e-05
5.78048e-05
3.65017e-05
2.78304e-05
3.14797e-05
4.77831e-05
6.30566e-05
4.34795e-05
3.05726e-05
4.61024e-05
0.000117645
5.44685e-05
1.06423e-05
1.11377e-05
5.0295e-05
0.000142662
0.000153797
0.00011718
7.8808e-05
5.84811e-05
5.28424e-05
5.73553e-05
6.97207e-05
8.69783e-05
0.000104185
0.000116479
0.000121055
0.000116551
0.000102519
8.15868e-05
6.09232e-05
4.70683e-05
4.2002e-05
4.49342e-05
5.32657e-05
6.13855e-05
6.04619e-05
4.41544e-05
2.67927e-05
2.1926e-05
2.74115e-05
4.11855e-05
5.39341e-05
5.40407e-05
7.33507e-05
0.000127226
4.60029e-05
9.40837e-06
1.11707e-05
4.77073e-05
0.000136533
0.000151562
0.000115412
7.76742e-05
5.7352e-05
5.03211e-05
5.21462e-05
6.15031e-05
7.73164e-05
9.61875e-05
0.000112483
0.000121294
0.000120409
0.000109894
9.18489e-05
7.12746e-05
5.43727e-05
4.42423e-05
4.08273e-05
4.39559e-05
5.34201e-05
5.99905e-05
4.69209e-05
2.75068e-05
1.78207e-05
1.72311e-05
2.25383e-05
3.35799e-05
5.62003e-05
0.000100806
0.00012314
4.17325e-05
8.72638e-06
1.13364e-05
4.68594e-05
0.000134103
0.000147135
0.000106868
7.12384e-05
5.47274e-05
4.96394e-05
5.10095e-05
5.83511e-05
7.20564e-05
9.05577e-05
0.000109235
0.000122089
0.000124784
0.00011619
9.84469e-05
7.67773e-05
5.77797e-05
4.52586e-05
4.00213e-05
4.005e-05
3.85055e-05
3.2168e-05
2.82344e-05
2.78363e-05
2.67702e-05
2.32848e-05
2.13252e-05
2.48902e-05
4.095e-05
8.95875e-05
0.000119796
4.47589e-05
8.60793e-06
1.15556e-05
4.82416e-05
0.000136743
0.000139235
9.22243e-05
6.06299e-05
4.99679e-05
4.96224e-05
5.37629e-05
6.22276e-05
7.66586e-05
9.61234e-05
0.000115536
0.000128138
0.000129337
0.00011796
9.63054e-05
7.07378e-05
4.90829e-05
3.40005e-05
2.42322e-05
2.04927e-05
2.33358e-05
3.17483e-05
4.41771e-05
5.72995e-05
6.45049e-05
6.01031e-05
4.85551e-05
4.02392e-05
4.07463e-05
5.12509e-05
7.88354e-05
5.88429e-05
9.43064e-06
1.1749e-05
5.2137e-05
0.000142141
0.000126121
7.60862e-05
5.10001e-05
4.62752e-05
5.13843e-05
5.95918e-05
7.03093e-05
8.68263e-05
0.000109349
0.000131853
0.000145277
0.000142352
0.000120035
8.39835e-05
4.86344e-05
2.37926e-05
1.40673e-05
1.8035e-05
2.96602e-05
4.95873e-05
7.37213e-05
9.24372e-05
0.000106934
0.000118279
0.00011723
9.80365e-05
6.64291e-05
3.90028e-05
3.07581e-05
5.25834e-05
8.60803e-05
1.14743e-05
1.17613e-05
5.66694e-05
0.00014328
0.000111581
6.45893e-05
4.51106e-05
4.46323e-05
5.47657e-05
6.74688e-05
8.01843e-05
9.72194e-05
0.000120512
0.000144405
0.000157035
0.000144948
0.000105159
5.8708e-05
2.62764e-05
1.21349e-05
1.48952e-05
2.90061e-05
6.05904e-05
0.000116264
0.000135833
0.000115539
0.000101147
0.000106423
0.00011709
0.000103522
6.97446e-05
4.61817e-05
4.8366e-05
9.92529e-05
8.42097e-05
1.23183e-05
1.16165e-05
6.01056e-05
0.000140407
0.000104427
6.08633e-05
4.26913e-05
4.26696e-05
5.45237e-05
7.00885e-05
8.41376e-05
9.96736e-05
0.000119109
0.000137686
0.000144358
0.000128538
9.14875e-05
5.10542e-05
2.28898e-05
1.11226e-05
1.43288e-05
2.84605e-05
6.20485e-05
0.000144409
0.000181759
0.000131133
9.04033e-05
7.79176e-05
8.43035e-05
9.1884e-05
8.6699e-05
8.27293e-05
0.00010477
0.000142736
5.42977e-05
1.07695e-05
1.134e-05
5.99615e-05
0.000138974
0.00011035
6.59779e-05
4.34046e-05
3.97511e-05
4.94638e-05
6.55538e-05
7.98739e-05
9.22671e-05
0.00010543
0.000117706
0.000122986
0.000115447
9.35995e-05
6.284e-05
3.4018e-05
1.55192e-05
1.07208e-05
1.75924e-05
3.3424e-05
6.29795e-05
0.000113598
0.000149112
0.000127821
9.74861e-05
8.18907e-05
8.04713e-05
8.91519e-05
0.000107196
0.000131966
0.000116395
3.98804e-05
8.70049e-06
1.11778e-05
5.86983e-05
0.000140477
0.000121707
7.62879e-05
4.66297e-05
3.69252e-05
4.15917e-05
5.65741e-05
7.3654e-05
8.723e-05
9.8226e-05
0.000107754
0.000113885
0.000113285
0.000103713
8.51182e-05
6.04736e-05
3.61784e-05
1.89813e-05
1.27786e-05
1.67338e-05
2.71423e-05
4.24422e-05
6.36685e-05
9.32903e-05
0.000126176
0.000139241
0.00013153
0.000125201
0.000130946
0.000139211
0.000109383
3.53651e-05
7.64304e-06
1.1172e-05
5.7987e-05
0.000143447
0.000127093
8.40497e-05
5.30327e-05
3.88092e-05
3.78565e-05
4.82549e-05
6.51388e-05
8.08856e-05
9.26708e-05
0.000101751
0.000108669
0.000112099
0.000110297
0.000102374
8.84514e-05
6.97204e-05
4.90523e-05
3.10741e-05
2.00808e-05
1.73991e-05
2.09009e-05
2.80824e-05
3.82422e-05
5.30796e-05
7.87704e-05
0.00012464
0.000167885
0.000171218
0.000153338
0.000111029
3.60766e-05
7.64768e-06
1.14063e-05
5.97521e-05
0.000147589
0.00012047
7.76158e-05
5.39404e-05
4.24594e-05
3.93319e-05
4.57291e-05
6.05006e-05
7.74694e-05
9.09952e-05
0.000100351
0.00010688
0.000111074
0.000112354
0.000109937
0.000103635
9.37967e-05
8.09355e-05
6.58915e-05
5.03233e-05
3.67181e-05
2.73437e-05
2.29352e-05
2.27774e-05
2.59208e-05
3.24948e-05
4.49551e-05
7.06131e-05
0.000112925
0.000133632
0.00011012
3.9814e-05
8.09823e-06
1.16878e-05
6.35794e-05
0.000147524
0.000103773
6.36696e-05
4.87042e-05
4.49821e-05
4.51997e-05
5.06322e-05
6.27498e-05
7.75977e-05
8.99169e-05
9.8134e-05
0.000103348
0.000106774
0.00010872
0.000108731
0.000106348
0.000101554
9.46363e-05
8.60145e-05
7.6233e-05
6.60905e-05
5.63578e-05
4.68407e-05
3.67365e-05
2.7198e-05
2.11389e-05
2.01159e-05
2.56604e-05
4.38778e-05
9.00397e-05
0.000112337
4.48374e-05
8.40143e-06
1.17868e-05
6.75688e-05
0.000141102
8.68737e-05
5.28873e-05
4.38407e-05
4.61168e-05
5.21523e-05
6.04127e-05
7.18399e-05
8.40946e-05
9.3582e-05
9.92705e-05
0.000102293
0.000104054
0.000105224
0.00010568
0.000104756
0.000101843
9.69661e-05
9.05945e-05
8.35842e-05
7.72883e-05
7.24052e-05
6.57623e-05
5.32848e-05
3.91793e-05
2.89986e-05
2.26179e-05
2.11728e-05
3.06539e-05
4.98355e-05
7.0833e-05
5.82449e-05
9.06805e-06
1.15851e-05
6.9501e-05
0.000132042
7.62082e-05
4.75598e-05
4.22533e-05
4.89495e-05
6.02946e-05
7.17698e-05
8.29113e-05
9.2996e-05
0.000100418
0.000104696
0.000106786
0.000108072
0.000109452
0.000110662
0.000110406
0.000107646
0.000102372
9.5312e-05
8.76769e-05
7.97259e-05
6.75479e-05
5.16298e-05
4.18891e-05
4.06794e-05
4.44462e-05
4.81111e-05
4.72791e-05
4.00034e-05
2.11184e-05
2.38951e-05
7.60623e-05
1.12517e-05
1.119e-05
6.74249e-05
0.000130303
7.83101e-05
4.86059e-05
4.20411e-05
4.90301e-05
6.36257e-05
7.94e-05
9.32298e-05
0.000104671
0.000113234
0.000118645
0.000121714
0.000124215
0.000127724
0.000132308
0.000135807
0.000134331
0.000125524
0.000109146
8.45731e-05
5.5987e-05
3.81565e-05
3.65143e-05
4.61081e-05
5.88481e-05
6.49487e-05
6.35591e-05
5.21678e-05
3.37746e-05
2.48459e-05
4.60905e-05
0.000114284
1.28413e-05
1.08223e-05
6.29882e-05
0.000134528
9.05633e-05
5.44269e-05
4.23251e-05
4.53231e-05
5.90066e-05
7.82778e-05
9.73614e-05
0.000113546
0.000126189
0.000135076
0.000140864
0.000145847
0.000153401
0.000165661
0.000179149
0.0001801
0.000152126
0.000101408
5.64664e-05
3.31674e-05
2.81378e-05
3.85924e-05
6.74492e-05
8.57264e-05
6.51752e-05
5.0593e-05
4.80443e-05
4.85708e-05
6.16626e-05
0.000122947
7.08027e-05
1.19986e-05
1.06298e-05
5.9238e-05
0.000137071
9.95128e-05
6.04864e-05
4.42357e-05
4.25656e-05
5.20382e-05
7.08229e-05
9.35983e-05
0.000114176
0.000129823
0.000140025
0.000145034
0.000146478
0.000147484
0.000150598
0.000154022
0.000148886
0.000124489
8.43203e-05
4.84484e-05
2.92897e-05
2.46087e-05
3.19728e-05
5.75044e-05
9.73356e-05
8.32477e-05
5.69917e-05
5.33228e-05
7.12685e-05
0.000112758
0.000138244
4.65084e-05
9.93711e-06
1.06976e-05
5.83745e-05
0.000137962
9.19137e-05
5.82782e-05
4.65795e-05
4.41431e-05
4.93523e-05
6.40312e-05
8.63368e-05
0.00010953
0.00012769
0.000138733
0.000142543
0.000140065
0.000133829
0.000127133
0.000121615
0.000115475
0.000104296
8.44969e-05
5.85282e-05
3.64685e-05
2.54915e-05
2.48688e-05
3.33421e-05
5.27608e-05
8.15831e-05
9.23391e-05
8.74067e-05
0.000100887
0.000137106
0.000129571
4.02505e-05
8.66689e-06
1.09551e-05
5.94174e-05
0.000132359
7.03287e-05
4.60379e-05
4.4702e-05
4.87658e-05
5.40499e-05
6.52713e-05
8.44007e-05
0.00010714
0.000126918
0.000139854
0.000144704
0.000141763
0.000133102
0.000122182
0.000112162
0.000104191
9.69835e-05
8.77261e-05
7.38719e-05
5.55667e-05
3.8095e-05
2.77728e-05
2.55645e-05
2.95316e-05
3.94435e-05
6.13272e-05
0.000102472
0.00013811
0.000151654
0.000126132
4.11689e-05
8.58207e-06
1.12208e-05
6.05837e-05
0.000116457
5.05291e-05
3.44449e-05
4.01174e-05
5.29172e-05
6.36653e-05
7.46472e-05
9.03142e-05
0.000109405
0.000127305
0.000140295
0.000146463
0.00014523
0.000137509
0.000125863
0.000113567
0.000103042
9.49279e-05
8.82257e-05
8.10942e-05
7.17033e-05
5.91578e-05
4.51259e-05
3.37797e-05
2.77197e-05
2.66497e-05
3.11191e-05
4.86158e-05
9.44867e-05
0.000139965
0.000126432
4.63445e-05
9.15829e-06