/*--------------------------------*- C++ -*----------------------------------*\
| =========                 |                                                 |
| \\      /  F ield         | OpenFOAM: The Open Source CFD Toolbox           |
|  \\    /   O peration     | Version:  v1906                                 |
|   \\  /    A nd           | Web:      www.OpenFOAM.com                      |
|    \\/     M anipulation  |                                                 |
\*---------------------------------------------------------------------------*/
FoamFile
{
    version     2.0;
    format      ascii;
    class       volScalarField;
    location    "51";
    object      k;
}
// * * * * * * * * * * * * * * * * * * * * * * * * * * * * * * * * * * * * * //

dimensions      [0 2 -2 0 0 0 0];


internalField   nonuniform List<scalar> 
78750
(
2.03246
0.686245
0.339487
0.123644
0.012842
0.000252815
0.00219879
0.00131447
0.00191472
0.00150215
0.00167684
0.00155499
0.00160116
0.00155494
0.00155536
0.00154398
0.00153591
0.00152873
0.00152204
0.00151534
0.00150807
0.00149964
0.00148941
0.00147664
0.0014605
0.00143897
0.00141055
0.00137356
0.00132531
0.00126206
0.00117827
0.00106434
0.000912624
0.000671733
0.000353977
0.062719
0.0212262
0.0105685
0.00409129
0.000869009
0.00362879
0.00226689
0.00259064
0.00232179
0.00231655
0.00225288
0.00223396
0.00221519
0.00221133
0.00221402
0.00222404
0.00224014
0.00226126
0.00228637
0.00231444
0.00234441
0.00237504
0.00240484
0.00243212
0.00245509
0.00247185
0.00248089
0.00247977
0.0024642
0.00242777
0.0023612
0.00224867
0.00204505
0.00157626
0.00125964
0.00243547
0.00252053
0.00344141
0.00314409
0.00232559
0.00202482
0.00237055
0.00227383
0.00227625
0.00223996
0.00221922
0.00219582
0.00216748
0.00213044
0.00208439
0.0020303
0.00197038
0.00190794
0.0018472
0.0017931
0.00175137
0.00172889
0.00173268
0.00176796
0.00183626
0.00193575
0.002061
0.00220453
0.00235496
0.00249502
0.00260418
0.00264395
0.00252213
0.00225444
0.00281026
0.00140059
0.00179977
0.00179639
0.00195494
0.00228778
0.00261666
0.0026523
0.00260816
0.0024884
0.00237675
0.0023081
0.00228199
0.00228067
0.00229061
0.0023039
0.00231462
0.00231657
0.0023036
0.00226946
0.0022067
0.00210726
0.00196535
0.00178131
0.00156352
0.00132428
0.00107662
0.000843774
0.000651873
0.000547722
0.000631456
0.000943893
0.00146545
0.00200935
0.00208123
0.00317741
0.00140792
0.00271935
0.0030301
0.00302908
0.00285027
0.00262349
0.00246325
0.00234947
0.00225968
0.00217864
0.00211145
0.00206193
0.00202758
0.00200483
0.00199082
0.00198279
0.00197698
0.00196889
0.00195327
0.00192394
0.00187419
0.00179808
0.00169055
0.00154874
0.00137056
0.00115335
0.000908119
0.000649212
0.000381266
0.000115201
0.000114966
0.000158336
0.001037
0.00232215
0.00443686
0.00134893
0.00194556
0.00224952
0.00243579
0.0025844
0.00270759
0.00278276
0.00279929
0.00276666
0.00270828
0.00264426
0.00258562
0.0025365
0.00249742
0.00246542
0.00243752
0.00241142
0.00238521
0.00235727
0.00232565
0.00228802
0.00224153
0.00218253
0.00210662
0.00201049
0.00188984
0.00173931
0.00155373
0.00132763
0.00107067
0.000804128
0.000505734
0.000462926
0.00154429
0.00457373
0.0018477
0.00272672
0.00292837
0.0029648
0.00290429
0.00276905
0.00260358
0.00244171
0.00230161
0.00219728
0.00213631
0.00211495
0.0021204
0.00214084
0.00216947
0.00220119
0.00223112
0.00225604
0.00227367
0.00228212
0.00227952
0.00226378
0.00223245
0.00218276
0.00211179
0.00201787
0.00190024
0.00174885
0.00154128
0.00126097
0.000881115
0.000310554
0.000211228
0.00193645
0.0057578
0.0013618
0.00216829
0.00254909
0.00273856
0.002863
0.00295174
0.00299777
0.00298835
0.00291964
0.00279563
0.00263015
0.00245201
0.00230163
0.00220971
0.0021733
0.0021692
0.00217928
0.00219691
0.00221945
0.00224357
0.00226595
0.00228328
0.00229211
0.00228871
0.00226894
0.00222823
0.00216267
0.00207081
0.00194834
0.00177477
0.00151043
0.00103713
0.000248399
0.00159448
0.00617646
0.00185141
0.00288852
0.00316094
0.00324268
0.00324312
0.00316766
0.0030225
0.00285143
0.0027068
0.00260405
0.00252578
0.00245005
0.00236959
0.00229595
0.00224593
0.0022203
0.00220912
0.00220648
0.00221035
0.00221916
0.00223108
0.00224392
0.00225515
0.00226177
0.0022603
0.0022468
0.00221709
0.00216948
0.00209934
0.0019881
0.00178805
0.00139328
0.000860855
0.00225929
0.00707967
0.00178963
0.00282024
0.0032212
0.00337485
0.00343268
0.00342472
0.00334085
0.00318186
0.00299219
0.00281613
0.00266786
0.00254332
0.002437
0.00235248
0.00229675
0.0022708
0.00226513
0.00226932
0.00227791
0.00228916
0.00230106
0.00231169
0.00231903
0.00232079
0.00231428
0.00229621
0.00226282
0.00221152
0.00214177
0.00204014
0.00186247
0.0015098
0.00101392
0.0023874
0.00746201
0.00196341
0.00339048
0.00382353
0.00394997
0.00395819
0.00386854
0.00366425
0.00338775
0.00312744
0.00293062
0.00278728
0.0026665
0.0025437
0.00240817
0.00227859
0.00219587
0.00216556
0.00216065
0.00217221
0.00219581
0.00222684
0.00226081
0.00229364
0.00232172
0.00234176
0.0023506
0.0023451
0.00232341
0.00228141
0.00220411
0.00205312
0.00175847
0.00154794
0.00306755
0.00788976
0.00255071
0.00370494
0.00402411
0.00407686
0.00401734
0.003844
0.00354639
0.00321996
0.00296686
0.00282212
0.00276199
0.00273867
0.00271512
0.00266549
0.00257037
0.00243683
0.00231424
0.0022455
0.00221685
0.00220688
0.00220935
0.00222121
0.002239
0.00225896
0.00227715
0.00228939
0.00229121
0.0022793
0.00225046
0.00219455
0.00208134
0.00184032
0.00160064
0.00309635
0.00792008
0.00320676
0.00412734
0.00428262
0.0042542
0.00411182
0.0037946
0.00332525
0.0029145
0.00264641
0.00248692
0.0023985
0.00235013
0.002322
0.00230392
0.00229102
0.00228069
0.00227249
0.00226742
0.0022664
0.00227012
0.00227842
0.00229041
0.00230464
0.00231917
0.00233162
0.00233921
0.00233903
0.002329
0.00230448
0.0022554
0.00216168
0.00199635
0.00199879
0.00352798
0.0080651
0.00345332
0.00399158
0.00408302
0.00403528
0.00387437
0.00353824
0.00310133
0.00283374
0.00276123
0.00273981
0.00271267
0.00267249
0.00261804
0.00254749
0.00246274
0.00237901
0.00231924
0.00228931
0.00227797
0.00227554
0.00227965
0.00228885
0.00230129
0.00231476
0.00232672
0.00233422
0.00233462
0.00232552
0.00230261
0.00225742
0.00217063
0.00200455
0.00202756
0.00356453
0.00810202
0.00382171
0.00420255
0.00423853
0.00416857
0.00397571
0.00357096
0.00296322
0.00245607
0.00228505
0.0022967
0.00234207
0.00238224
0.00241068
0.00242273
0.00241529
0.0023934
0.00236939
0.00235164
0.00234083
0.00233513
0.00233374
0.00233617
0.00234146
0.00234813
0.00235421
0.00235726
0.00235545
0.00234673
0.00232801
0.00229343
0.00223025
0.0021276
0.00229661
0.00390139
0.00837571
0.00348174
0.00395284
0.00406963
0.00407348
0.00400395
0.0038111
0.00338851
0.0028161
0.00245551
0.00232633
0.00229503
0.00229504
0.00230521
0.00231807
0.00232999
0.00233937
0.00234645
0.00235214
0.00235699
0.00236128
0.00236513
0.00236862
0.00237139
0.00237264
0.00237096
0.00236492
0.00235305
0.00233326
0.00230237
0.00225486
0.00217978
0.00210018
0.00247655
0.00422048
0.00868902
0.00365817
0.00419912
0.00429262
0.00426468
0.00415813
0.00394114
0.00354672
0.00295068
0.00245457
0.00226981
0.00224381
0.00225391
0.00226783
0.00228042
0.00229199
0.00230365
0.00231542
0.00232684
0.00233797
0.00234889
0.00235926
0.00236858
0.00237615
0.00238089
0.0023819
0.00237815
0.00236841
0.00235089
0.00232323
0.00228109
0.00221746
0.00218151
0.00275493
0.00464747
0.0090776
0.00390855
0.00416935
0.00421246
0.0041766
0.00406507
0.00384217
0.00347805
0.00296981
0.00242404
0.00212449
0.00206126
0.00208722
0.00212983
0.0021706
0.00220679
0.00223805
0.0022648
0.00228719
0.00230561
0.00232064
0.00233254
0.00234112
0.00234597
0.00234662
0.00234237
0.00233211
0.00231445
0.0022879
0.00225092
0.00220187
0.00214692
0.0022306
0.00314723
0.00518907
0.0094093
0.00343139
0.00415418
0.00436427
0.00442404
0.00441642
0.00433448
0.00412884
0.00372955
0.00313104
0.00252286
0.00213371
0.00197506
0.00195101
0.00198045
0.00202504
0.00207206
0.0021174
0.00215938
0.00219706
0.00222997
0.00225773
0.00227996
0.00229624
0.00230603
0.00230861
0.00230297
0.00228781
0.00226178
0.00222379
0.00217466
0.00214483
0.00239967
0.00374503
0.00578017
0.00952319
0.00345963
0.00423771
0.00447137
0.00454898
0.00456348
0.00452661
0.00443495
0.00427032
0.00397106
0.00346459
0.00285417
0.00233844
0.00202962
0.00191132
0.00189908
0.00192667
0.00196593
0.00200732
0.00204719
0.00208404
0.00211711
0.00214564
0.00216875
0.00218544
0.00219452
0.00219464
0.00218427
0.00216191
0.00212678
0.00208108
0.00207104
0.00245156
0.00418839
0.00615467
0.00947532
0.00312075
0.00424181
0.00462907
0.00476851
0.00481515
0.00480335
0.00473692
0.00462095
0.004476
0.00426926
0.00388486
0.00329242
0.00263371
0.00212277
0.00186268
0.0017906
0.00180151
0.00183876
0.00188308
0.00192752
0.00196897
0.00200597
0.00203758
0.00206287
0.00208081
0.00209026
0.00209023
0.00208028
0.00206057
0.00203549
0.00204702
0.00242365
0.00428714
0.00624737
0.00945006
0.0036319
0.00468876
0.00501467
0.00510298
0.00509385
0.00501101
0.00484853
0.00460726
0.00435687
0.00419169
0.00408413
0.0038857
0.00343769
0.00278994
0.00221391
0.00187624
0.00174706
0.00172506
0.00174147
0.00176974
0.00180132
0.00183273
0.00186207
0.00188806
0.00190935
0.00192454
0.00193226
0.00193124
0.00192129
0.00190669
0.00192499
0.00227094
0.00408763
0.00615601
0.00960299
0.00410755
0.00496394
0.00523058
0.00530524
0.00529527
0.00521384
0.00504375
0.00475389
0.00436988
0.00401159
0.00377157
0.0036206
0.00342799
0.00302447
0.00247675
0.00204099
0.00181752
0.0017405
0.00172186
0.00172107
0.00172869
0.00173987
0.0017511
0.00176039
0.00176795
0.00177434
0.00178024
0.00178641
0.00179428
0.00181031
0.00187414
0.00226601
0.00405876
0.00621356
0.00994573
0.00455059
0.00525146
0.00545862
0.00550011
0.0054639
0.00535597
0.00515827
0.00485425
0.00448435
0.00412268
0.00381181
0.00355586
0.00331281
0.00298968
0.00254197
0.00211946
0.00186197
0.00175205
0.00171185
0.00169338
0.00168132
0.00167157
0.00166164
0.00164914
0.00163308
0.00161427
0.00159567
0.0015824
0.00158245
0.00161406
0.00175706
0.00235994
0.00432795
0.00652164
0.0103895
0.00481065
0.00538034
0.00555396
0.00558346
0.00553659
0.00541076
0.00517868
0.00481617
0.00438839
0.00402078
0.00373756
0.00349073
0.0032333
0.00292311
0.00254537
0.00218479
0.00194715
0.00183014
0.00177519
0.00174152
0.00171211
0.00168141
0.00164763
0.00160919
0.00156446
0.00151326
0.00145918
0.0014122
0.00139138
0.00143532
0.00167836
0.00256182
0.00479481
0.00701067
0.0109194
0.00493189
0.00557444
0.00577556
0.00581807
0.00578457
0.00567869
0.00547825
0.00514097
0.00466852
0.00420406
0.00386552
0.00361615
0.00337471
0.00307916
0.00270844
0.00233425
0.00206698
0.00192546
0.00185688
0.00181557
0.00177903
0.00173836
0.00169045
0.00163315
0.00156351
0.00147878
0.00138029
0.00127936
0.00120284
0.00123791
0.00163219
0.00284012
0.00529464
0.00753585
0.0114801
0.00494439
0.00564946
0.0058596
0.00590262
0.00587008
0.00576962
0.00558714
0.00529484
0.00486182
0.00434718
0.00392812
0.003661
0.00346733
0.00325671
0.00296494
0.00260163
0.00227869
0.00207904
0.00197913
0.00192647
0.00188658
0.00184388
0.0017925
0.0017284
0.00164598
0.00154034
0.00141139
0.00126551
0.00112063
0.00109872
0.00162545
0.00317938
0.00573705
0.00797766
0.0119136
0.00498068
0.00583522
0.00608006
0.00611804
0.00606819
0.00594326
0.00573351
0.00543652
0.0050542
0.00456725
0.00408269
0.0037396
0.00352426
0.00334947
0.00313811
0.00284527
0.00251941
0.00227125
0.00213345
0.00206525
0.00202174
0.00198059
0.00193235
0.00187085
0.00178872
0.00167925
0.00153965
0.00137201
0.00118218
0.00108447
0.0016414
0.00353704
0.00608118
0.00825705
0.0120574
0.0052691
0.00608714
0.00625195
0.00622311
0.00610781
0.00590152
0.00558041
0.00517883
0.00480063
0.00442931
0.00404673
0.00374645
0.00355488
0.00341064
0.00324955
0.00302385
0.00273573
0.00247236
0.00230445
0.00222032
0.00217105
0.00213031
0.0020866
0.00203284
0.0019605
0.00186132
0.0017291
0.00156175
0.00135777
0.0011915
0.00160851
0.00367112
0.00626594
0.00836218
0.0119172
0.00624867
0.00650222
0.00642196
0.0062683
0.00604843
0.00570627
0.00518807
0.00460104
0.00419716
0.00395813
0.0037553
0.00358662
0.00346575
0.00336126
0.00323638
0.0030644
0.00284501
0.00263045
0.00248122
0.0024002
0.00235088
0.00231061
0.00227043
0.00222404
0.0021638
0.0020811
0.00196841
0.00181847
0.00162506
0.00141581
0.00156864
0.00337699
0.00623314
0.00832221
0.0116733
0.0072733
0.00672033
0.0064367
0.00619755
0.00588417
0.00538481
0.00463657
0.00388401
0.00353488
0.00350037
0.0035097
0.00348882
0.00343881
0.00336071
0.00324861
0.00309848
0.00292483
0.00276682
0.00265523
0.00258585
0.00253936
0.00250157
0.00246462
0.0024235
0.00237337
0.00230815
0.00221987
0.0020987
0.00193493
0.00172252
0.00163775
0.00283168
0.00590603
0.00809671
0.0114772
0.007496
0.00659106
0.00634231
0.00613374
0.00580951
0.00524807
0.00440055
0.0035356
0.00312916
0.00315672
0.00325926
0.00331506
0.00331921
0.00328093
0.00320548
0.00310156
0.0029887
0.00289049
0.00281673
0.00276319
0.00272161
0.00268544
0.00265016
0.00261219
0.0025681
0.00251359
0.00244305
0.00234936
0.00222069
0.00203262
0.00183322
0.00244506
0.00539489
0.00776412
0.0114783
0.00667012
0.00635811
0.006354
0.00628494
0.0061055
0.00574304
0.00510198
0.00418533
0.00334306
0.00299562
0.00299353
0.00307221
0.00312859
0.00314327
0.00312046
0.0030727
0.00301664
0.00296626
0.00292554
0.00289214
0.00286218
0.00283228
0.00279983
0.00276256
0.0027182
0.00266448
0.00259861
0.00251646
0.00240953
0.00225363
0.00209081
0.00250923
0.00523201
0.0077886
0.0119966
0.00601558
0.00635333
0.00649269
0.00652576
0.00649625
0.00637862
0.00608697
0.00545287
0.00440464
0.00335225
0.0027936
0.00269501
0.00278402
0.00288501
0.00294598
0.00296996
0.00297233
0.00296639
0.00295827
0.00294853
0.00293536
0.00291641
0.00288936
0.00285204
0.00280249
0.00273921
0.00266147
0.00256779
0.0024533
0.00235583
0.00247016
0.00316227
0.0057964
0.00843094
0.0128848
0.00572668
0.00627
0.00645175
0.00651483
0.00652637
0.00649097
0.00639416
0.00617682
0.00565084
0.00462352
0.00343047
0.00264705
0.00242754
0.00251081
0.00264843
0.0027563
0.00282922
0.00287786
0.00291007
0.00293053
0.00294069
0.00293953
0.00292485
0.00289369
0.00284289
0.00276954
0.00267143
0.00254644
0.00240713
0.00245076
0.00315188
0.00430475
0.00667518
0.00909692
0.0132282
0.00582897
0.00626545
0.00641793
0.00646667
0.00645911
0.00639517
0.00627091
0.00609621
0.00587185
0.00545101
0.00454747
0.00334533
0.00247432
0.00221728
0.00231104
0.00247561
0.00261547
0.00272111
0.00279953
0.00285743
0.00289853
0.00292365
0.00293094
0.00291638
0.00287468
0.00280038
0.00268922
0.00253872
0.00238468
0.00253758
0.00382414
0.00568098
0.00748865
0.00935264
0.0126286
0.00612427
0.00637406
0.00648363
0.00652978
0.00653052
0.00647231
0.00632946
0.00607663
0.00573483
0.00538602
0.00495983
0.00414072
0.00301767
0.00225256
0.00208347
0.0022121
0.00239086
0.00254152
0.002659
0.0027516
0.0028253
0.00288225
0.0029212
0.00293794
0.00292603
0.00287732
0.00278327
0.00263893
0.00247064
0.00252415
0.00373093
0.00650574
0.0079925
0.00936915
0.0118732
0.00644972
0.00646307
0.00650711
0.00653706
0.00653995
0.00649614
0.00637885
0.00614975
0.00576722
0.00526486
0.00477895
0.00426519
0.00344843
0.00252363
0.00206502
0.00206305
0.00222973
0.00240145
0.00254033
0.00265273
0.00274865
0.00283261
0.00290413
0.00295965
0.00299247
0.00299351
0.0029522
0.00285847
0.00271137
0.00258913
0.00303242
0.00548458
0.0075846
0.00909302
0.0117069
0.00670643
0.00645176
0.00643803
0.00645204
0.00644868
0.00640108
0.00628275
0.00606679
0.00572608
0.00524123
0.00466462
0.0040959
0.00346828
0.00268694
0.00213356
0.00202597
0.00215313
0.00231768
0.00245879
0.00257773
0.00268442
0.0027847
0.00288007
0.00296797
0.0030432
0.00309844
0.00312348
0.00310639
0.00303579
0.00290687
0.00280211
0.00373142
0.00643081
0.00855231
0.0122186
0.00672936
0.0063947
0.00638625
0.00640862
0.00641202
0.00636797
0.00624769
0.00602238
0.00567556
0.00521262
0.00465497
0.00404752
0.00341633
0.00273132
0.00218258
0.0020205
0.00211117
0.00225988
0.00239458
0.00251252
0.00262247
0.00273009
0.00283687
0.00294222
0.00304324
0.00313482
0.00320926
0.0032568
0.00326372
0.00323974
0.0031009
0.00308287
0.00568311
0.00849925
0.0135959
0.00666331
0.00633199
0.00633383
0.00636307
0.00637459
0.00634205
0.0062372
0.00602898
0.00569374
0.00523494
0.0046872
0.00408442
0.00344237
0.00277562
0.00221558
0.00200744
0.00206944
0.0022074
0.00233625
0.00244885
0.00255398
0.00265789
0.00276292
0.00286956
0.00297734
0.00308376
0.00318451
0.00327453
0.00335917
0.00349544
0.00355491
0.00367217
0.00625407
0.00953627
0.0155199
0.00650587
0.0062433
0.00626871
0.00630864
0.00632961
0.00631074
0.00622802
0.00605381
0.00576197
0.00534072
0.00481258
0.00421954
0.00358023
0.00290426
0.00229103
0.00199399
0.0020067
0.0021327
0.00226094
0.0023709
0.00247
0.00256658
0.00266471
0.00276506
0.00286653
0.00296837
0.00307363
0.00320346
0.00348117
0.0039453
0.00440824
0.0053651
0.00792747
0.0110696
0.0167552
0.00640463
0.00619689
0.00622756
0.00626537
0.00628507
0.00626996
0.00619981
0.00605209
0.00580581
0.00544467
0.00497054
0.00441404
0.00380126
0.00313031
0.00245398
0.00201134
0.00192575
0.00202231
0.0021486
0.00226058
0.00236082
0.00245758
0.00255528
0.00265349
0.00274933
0.00284197
0.00294639
0.00315654
0.00379362
0.00480606
0.00557874
0.00707367
0.00928065
0.0117884
0.0162217
0.00630393
0.00614716
0.00618003
0.00621282
0.00622738
0.00621108
0.00614811
0.00602173
0.00581668
0.00551795
0.00511613
0.00462347
0.00406551
0.00344154
0.00275221
0.00215103
0.0018925
0.00191386
0.00202536
0.0021407
0.00224761
0.00235232
0.00245906
0.00256634
0.00266823
0.00275936
0.00285655
0.00310447
0.00400677
0.00582126
0.00703679
0.00812368
0.00960145
0.0113628
0.0143779
0.00631749
0.0061648
0.0061728
0.00618433
0.00618018
0.00614851
0.00607721
0.00595709
0.00578032
0.00553519
0.00520761
0.00479344
0.00430703
0.00375675
0.00312361
0.00244719
0.0019812
0.0018567
0.00192005
0.00202878
0.00214063
0.00225499
0.00237715
0.00250826
0.00264259
0.00276481
0.00286551
0.00303955
0.00375858
0.00585852
0.00842386
0.0094636
0.0102912
0.011285
0.0126832
0.00640449
0.00617303
0.00613993
0.00612574
0.00609992
0.00604784
0.00596015
0.0058362
0.00567542
0.0054691
0.0052041
0.00487087
0.00447122
0.00401077
0.00347401
0.00284322
0.00223908
0.00191387
0.00186882
0.00194455
0.00205148
0.00216933
0.00230113
0.00245339
0.00262861
0.00281643
0.00298374
0.00311221
0.00338473
0.00449942
0.00713033
0.0094855
0.0104437
0.011016
0.0120634
0.00655807
0.00620391
0.00611896
0.0060741
0.00602224
0.00594408
0.00583387
0.00570167
0.00555173
0.00537407
0.00515422
0.00488079
0.00455012
0.00416391
0.00371372
0.00317219
0.00256112
0.00208485
0.00189698
0.0019049
0.0019867
0.00209515
0.00222451
0.0023843
0.00258746
0.0028452
0.0031429
0.00341366
0.0036165
0.00390921
0.00485251
0.00678373
0.00830908
0.00949142
0.0131658
0.00668373
0.00619233
0.00606104
0.00598907
0.00591146
0.00580328
0.00566474
0.00551988
0.00537689
0.00522302
0.00504255
0.00482327
0.00455714
0.00423865
0.00385692
0.00338724
0.00281745
0.00226296
0.00194158
0.00186899
0.00191579
0.00200692
0.00212849
0.00229499
0.00254281
0.00293895
0.00350503
0.00404669
0.0043817
0.00448811
0.00453257
0.00537524
0.00731055
0.00985286
0.016445
0.00669158
0.00616355
0.0060209
0.00593784
0.00584348
0.00570892
0.00554131
0.00538097
0.00524087
0.00510249
0.00494615
0.0047598
0.00453622
0.00426906
0.00394654
0.00354436
0.00303567
0.00246649
0.0020292
0.00185437
0.00185171
0.00191724
0.00202526
0.00220836
0.00256912
0.00330786
0.00445102
0.00535421
0.00551007
0.00522258
0.00530947
0.00674423
0.00903133
0.0119353
0.0179455
0.006581
0.00613488
0.00600783
0.00592424
0.00581949
0.00566152
0.00545862
0.00526815
0.00512138
0.00499972
0.00487469
0.00472774
0.00454826
0.00432859
0.00405896
0.00372113
0.00328905
0.00276525
0.00225966
0.00194911
0.00184989
0.00186422
0.00193505
0.00208001
0.0024284
0.0032858
0.00490631
0.00661936
0.00711694
0.00653788
0.0063448
0.00788442
0.0098505
0.0120495
0.015441
0.00646299
0.00616804
0.00606848
0.00599025
0.00588242
0.00571103
0.00547709
0.00524081
0.00505737
0.00492414
0.00480978
0.00468867
0.00454617
0.00437313
0.00416086
0.00389656
0.00356049
0.00313807
0.00266491
0.0022689
0.00204292
0.00196735
0.00197343
0.00200336
0.00206718
0.00236023
0.00339647
0.00546257
0.00751671
0.00825785
0.00810417
0.00864085
0.00966499
0.0109277
0.0125716
0.0064736
0.00626126
0.00616403
0.00607817
0.00595849
0.00577109
0.00551696
0.00524807
0.00502684
0.00487225
0.00475892
0.00465471
0.00453868
0.00439848
0.00422469
0.00400675
0.00373069
0.00338244
0.00297173
0.00257435
0.00228963
0.00215252
0.00210746
0.00203771
0.00189462
0.00178361
0.00201806
0.00309134
0.00520303
0.00758385
0.00920052
0.00999677
0.0105923
0.0111923
0.0114819
0.0067248
0.00640785
0.00626503
0.00614957
0.00599883
0.005777
0.00550367
0.00522453
0.0049813
0.0048005
0.00467045
0.00456098
0.00444828
0.00431783
0.00415853
0.00395763
0.00369791
0.00336057
0.00294705
0.00252501
0.00220627
0.0020005
0.00184522
0.00179249
0.00194289
0.00222554
0.00250467
0.00284996
0.00365453
0.00528083
0.00750557
0.00941465
0.0103375
0.0106649
0.0112654
0.00715655
0.00654625
0.00631304
0.00614523
0.00593817
0.00565583
0.00536184
0.00509983
0.00487224
0.00469168
0.00455384
0.00443296
0.00430492
0.00415387
0.00396635
0.00372471
0.00340224
0.00297039
0.00244233
0.00191326
0.00156732
0.00161573
0.00209687
0.00279301
0.00345419
0.00397283
0.00429276
0.00443051
0.00452879
0.00486041
0.00565849
0.00673787
0.00767951
0.00860259
0.0128471
0.00761646
0.0066261
0.00629591
0.00606925
0.00578982
0.00543659
0.0051356
0.0049137
0.00472184
0.0045526
0.00440785
0.00426953
0.00411446
0.003924
0.00367823
0.00334519
0.00287527
0.00224311
0.00152596
0.00129458
0.00209768
0.00329004
0.0042483
0.00488372
0.005383
0.00585028
0.00622269
0.00639027
0.00632994
0.00603847
0.00553724
0.00542401
0.00682142
0.00948402
0.0171046
0.00780857
0.0065696
0.0061978
0.00593501
0.00559457
0.00518481
0.00489009
0.00472175
0.00458273
0.00444361
0.00430601
0.00415999
0.00398461
0.00375737
0.00344823
0.00300385
0.00237474
0.00161506
0.00117286
0.00207663
0.00415764
0.00576488
0.00629761
0.00645449
0.0066277
0.00701733
0.00766085
0.00818578
0.00822961
0.00775821
0.00708416
0.00728352
0.00904494
0.0120576
0.0188016
0.00766817
0.00643977
0.00609901
0.0058401
0.00547848
0.00502539
0.0046997
0.00454963
0.00445028
0.00434904
0.0042398
0.00411625
0.00395949
0.00374258
0.00342903
0.00296638
0.00231112
0.00154813
0.00117091
0.00221735
0.00483672
0.00723161
0.00805707
0.0079563
0.00766581
0.00753998
0.00796457
0.00884718
0.00953169
0.00971398
0.00971992
0.0102074
0.0113303
0.0129713
0.0151253
0.00721061
0.00627876
0.00603618
0.00582939
0.00550471
0.00502824
0.00461335
0.00442863
0.00435071
0.00428548
0.00421137
0.0041242
0.00401217
0.00385187
0.00361258
0.00324958
0.00270835
0.00198948
0.00130553
0.00133503
0.00291892
0.00563402
0.00795306
0.00916186
0.00940081
0.00907492
0.00866971
0.0086423
0.00907357
0.00968566
0.0102678
0.0108281
0.0113538
0.0116894
0.0107324
0.00679227
0.0062145
0.00605506
0.00590517
0.00564674
0.00518887
0.0046475
0.00433402
0.00422986
0.00419092
0.00415814
0.0041168
0.00405971
0.00397453
0.00384111
0.00363029
0.00330179
0.00280981
0.0021596
0.00153155
0.00142553
0.00242339
0.00439913
0.00664666
0.00862009
0.00998324
0.0105451
0.0104255
0.0100143
0.00970411
0.00964201
0.00970731
0.00970304
0.00945449
0.00852556
0.00653846
0.00615172
0.00601811
0.00590163
0.00571561
0.00536568
0.00482886
0.00437457
0.00417205
0.00410652
0.00408133
0.00406339
0.00404265
0.00401159
0.00395767
0.00386516
0.00371306
0.00347271
0.00311168
0.00261972
0.00208037
0.00174047
0.00194771
0.00288564
0.00446051
0.00642873
0.00847279
0.0102404
0.0113195
0.0115009
0.0111054
0.0105282
0.00990138
0.00918819
0.00840704
0.00659477
0.00614344
0.00594824
0.00580294
0.00562188
0.0053481
0.00493456
0.00447931
0.00419784
0.00408146
0.00403705
0.00401709
0.00400586
0.00399576
0.00397982
0.00395071
0.00389901
0.003811
0.00366797
0.00345065
0.00314832
0.00277935
0.00241955
0.00221178
0.00232163
0.00288134
0.0039649
0.00559162
0.00765781
0.00979606
0.0112922
0.0117976
0.011717
0.0112087
0.00943244
0.00680327
0.00609345
0.00579994
0.00559781
0.00537925
0.00513488
0.00485045
0.00452535
0.00426765
0.00412418
0.00405016
0.00400704
0.00397925
0.00395991
0.00394538
0.00393246
0.00391749
0.00389389
0.00385337
0.00378808
0.00368938
0.00354978
0.00336605
0.00314766
0.00291747
0.00270081
0.00255048
0.00263699
0.00326952
0.00479969
0.00716289
0.00947974
0.0108128
0.0110489
0.0100314
0.00693443
0.00597992
0.00561967
0.00537361
0.00511272
0.00486974
0.00466143
0.00446094
0.00428849
0.00416802
0.00408679
0.00402635
0.00397772
0.00393796
0.00390592
0.00388093
0.00386182
0.00384609
0.00382947
0.0038086
0.0037808
0.00374484
0.00369789
0.00363232
0.00351358
0.00330591
0.00305328
0.00284327
0.0027473
0.00297513
0.00397173
0.00527811
0.00642017
0.00733186
0.0111549
0.00679542
0.00575275
0.0053984
0.00515117
0.00487897
0.00464398
0.0044882
0.00436609
0.00425546
0.00416015
0.00407873
0.0040057
0.00393776
0.00387559
0.00382065
0.003774
0.00373551
0.00370373
0.00367605
0.00365053
0.00362577
0.00360197
0.0035793
0.00353892
0.00349906
0.0035923
0.00385139
0.00411456
0.00422528
0.00412942
0.00393697
0.00321108
0.00402732
0.00697643
0.0156998
0.00643507
0.00553689
0.00526069
0.00505386
0.00479426
0.00453658
0.00437301
0.00427577
0.00419553
0.00411687
0.00403678
0.00395403
0.00386855
0.00378246
0.00370021
0.0036252
0.00355898
0.00350023
0.00344544
0.00339174
0.0033377
0.0032877
0.00327079
0.00344457
0.00404203
0.0047846
0.00528437
0.00553333
0.00560143
0.00537961
0.00480315
0.0044785
0.00651629
0.0106749
0.0196992
0.00606333
0.00543087
0.00524405
0.00509113
0.00486996
0.00458391
0.00435155
0.00421926
0.00413652
0.00406473
0.00398852
0.00390306
0.00380775
0.00370485
0.00359948
0.00349773
0.00340393
0.00331816
0.00323578
0.00315117
0.00306671
0.00302566
0.00321208
0.00400909
0.00544921
0.00653796
0.00667968
0.00644479
0.00633495
0.00653391
0.00680207
0.00764583
0.00964909
0.0127354
0.0179271
0.00585866
0.00542274
0.00526854
0.00514256
0.00497702
0.00473023
0.00444887
0.00424899
0.0041359
0.00406104
0.00399109
0.00391175
0.00381818
0.00371038
0.00359232
0.00347076
0.00335418
0.00324704
0.00314594
0.00304468
0.002947
0.00290752
0.00313275
0.00403811
0.00582232
0.00763557
0.00820528
0.00780446
0.00730737
0.00749983
0.00830876
0.00937849
0.0106744
0.0122177
0.0133292
0.00592245
0.00546765
0.00525009
0.00508952
0.00495672
0.00482113
0.00459964
0.00436719
0.00421061
0.00411794
0.00404901
0.00397972
0.00389863
0.00380154
0.0036881
0.00356307
0.00343612
0.00331747
0.00321061
0.00311028
0.00301028
0.0029268
0.0029561
0.00336959
0.00455167
0.00645245
0.00823992
0.00914589
0.00913796
0.00893527
0.00923443
0.00985957
0.0105264
0.0111089
0.0105949
0.0062243
0.00553025
0.00515917
0.00488972
0.00474273
0.00473579
0.00466982
0.00451348
0.00435973
0.00425266
0.00417724
0.00411117
0.00404091
0.00395792
0.00385803
0.00374327
0.0036201
0.00349919
0.00339004
0.0032959
0.00321225
0.00313342
0.00307106
0.00309786
0.0034183
0.00431315
0.00582184
0.00762789
0.0092588
0.0101519
0.0104019
0.0105913
0.0108045
0.0109082
0.0101724
0.00659998
0.00555864
0.00500778
0.00459516
0.00440795
0.00451509
0.00460123
0.00457954
0.00450216
0.00442241
0.00435422
0.00429151
0.00422622
0.00415168
0.00406475
0.0039649
0.00385502
0.00374124
0.00363234
0.00353807
0.00346367
0.00340786
0.00336444
0.00333126
0.00333799
0.00348486
0.00394978
0.00491518
0.00648378
0.00851587
0.0100694
0.010741
0.0110116
0.0110951
0.0111626
0.00673096
0.00547211
0.00482711
0.00430755
0.00403348
0.00421098
0.00441722
0.00452018
0.00454545
0.00452985
0.00449571
0.00445132
0.004398
0.00433387
0.00425781
0.00416953
0.00407026
0.00396462
0.00385899
0.00376294
0.00368695
0.00363818
0.00361771
0.00361822
0.00363127
0.00365711
0.00372198
0.00390697
0.00437846
0.00552354
0.00745852
0.00914562
0.0100796
0.0107343
0.0130639
0.00660107
0.00544194
0.00483857
0.00427244
0.00374285
0.00380418
0.00409067
0.00430826
0.00443645
0.00450077
0.00452252
0.00451532
0.00448728
0.00444163
0.00438017
0.00430413
0.00421493
0.00411542
0.00401076
0.00391005
0.00382543
0.00376868
0.00374851
0.0037653
0.00381378
0.00388396
0.0039658
0.00405995
0.00415502
0.00430636
0.00525869
0.00708038
0.00882956
0.0106188
0.0159361
0.00658174
0.0056594
0.00509529
0.00450333
0.00367891
0.0033712
0.00363749
0.00396027
0.00418825
0.00433299
0.00441754
0.0044577
0.00446419
0.00444382
0.00440077
0.00433776
0.00425663
0.00415938
0.00404993
0.00393744
0.00383645
0.00376395
0.00373417
0.00375538
0.00382906
0.00395664
0.00415183
0.00440461
0.00459676
0.00454209
0.00494228
0.00668629
0.00892319
0.011707
0.0190855
0.00707299
0.00597037
0.00526242
0.00458376
0.00369024
0.00309913
0.00326498
0.00363762
0.00393128
0.00412847
0.00425578
0.00433135
0.00436601
0.00436708
0.00433946
0.00428643
0.00420964
0.00410982
0.00398887
0.00385508
0.00372657
0.00362822
0.00358335
0.00361161
0.00373346
0.00400074
0.00445313
0.00497453
0.00534487
0.00550345
0.00619152
0.00810418
0.0103089
0.0132478
0.020467
0.00790717
0.0060118
0.00500799
0.00414364
0.00332455
0.00291209
0.00310049
0.00347683
0.00376903
0.0039716
0.00410973
0.00419855
0.00424606
0.00425798
0.00423827
0.00418964
0.00411294
0.00400707
0.00387099
0.00371092
0.00354873
0.00342045
0.00336562
0.00342838
0.00368517
0.00426312
0.00511294
0.0059179
0.00650437
0.00706731
0.00818325
0.00993668
0.0116904
0.0140732
0.0192015
0.00817903
0.00568545
0.00454924
0.00357646
0.0028887
0.00277866
0.00300719
0.00333083
0.00359264
0.00379059
0.00393655
0.00403737
0.00409738
0.00412027
0.00410933
0.00406644
0.00399158
0.00388222
0.00373498
0.00355384
0.00336252
0.00320901
0.00315402
0.00327966
0.00373266
0.00469158
0.00596529
0.0070375
0.00784824
0.00871286
0.00989684
0.0111962
0.012423
0.0140444
0.0168638
0.00727504
0.00530795
0.00461379
0.00392995
0.00325777
0.00288382
0.0027922
0.00293125
0.00316132
0.00339561
0.00359535
0.00374832
0.00385355
0.00391378
0.00393249
0.00391248
0.00385423
0.00375561
0.00361288
0.00342798
0.00322162
0.003045
0.00297548