/*--------------------------------*- C++ -*----------------------------------*\
| =========                 |                                                 |
| \\      /  F ield         | OpenFOAM: The Open Source CFD Toolbox           |
|  \\    /   O peration     | Version:  v1906                                 |
|   \\  /    A nd           | Web:      www.OpenFOAM.com                      |
|    \\/     M anipulation  |                                                 |
\*---------------------------------------------------------------------------*/
FoamFile
{
    version     2.0;
    format      ascii;
    class       volScalarField;
    location    "13.4/sphere";
    object      T;
}
// * * * * * * * * * * * * * * * * * * * * * * * * * * * * * * * * * * * * * //

dimensions      [0 0 0 1 0 0 0];


internalField   nonuniform List<scalar> 
304
(
491.565
491.6
491.599
491.618
491.568
491.567
491.564
491.601
491.562
491.74
491.74
491.613
491.598
491.739
491.739
491.651
491.613
491.651
491.565
491.599
491.619
491.566
491.601
491.74
491.739
491.651
491.619
491.74
491.739
491.683
491.565
491.651
491.683
491.606
491.567
491.616
491.651
491.566
491.572
491.652
491.683
491.605
491.566
491.607
491.551
491.55
491.567
491.568
491.566
491.608
491.567
491.568
491.608
491.567
491.55
491.567
491.566
491.567
491.607
491.601
491.6
491.618
491.615
491.652
491.652
491.683
491.564
491.618
491.6
491.652
491.614
491.683
491.652
491.566
491.566
491.607
491.567
491.565
491.565
491.605
491.564
491.617
491.56
491.598
491.65
491.682
491.611
491.65
491.6
491.599
491.563
491.683
491.651
491.651
491.613
491.607
491.566
491.565
491.549
491.565
491.564
491.605
491.565
491.606
491.565
491.565
491.548
491.565
491.566
491.566
491.606
491.601
491.614
491.653
491.6
491.619
491.652
491.683
491.566
491.653
491.615
491.619
491.601
491.683
491.652
491.566
491.567
491.607
491.567
491.614
491.6
491.652
491.6
491.652
491.619
491.683
491.562
491.651
491.6
491.651
491.6
491.683
491.618
491.65
491.562
491.613
491.619
491.683
491.599
491.651
491.6
491.614
491.563
491.683
491.618
491.651
491.599
491.566
491.565
491.606
491.566
491.651
491.563
491.6
491.651
491.682
491.599
491.618
491.613
491.6
491.563
491.682
491.651
491.618
491.599
491.605
491.564
491.565
491.565
491.567
491.607
491.569
491.619
491.652
491.683
491.564
491.6
491.615
491.652
491.599
491.683
491.651
491.6
491.562
491.651
491.612
491.606
491.566
491.564
491.653
491.619
491.683
491.567
491.617
491.602
491.653
491.6
491.682
491.619
491.614
491.564
491.651
491.6
491.683
491.6
491.651
491.603
491.653
491.565
491.615
491.618
491.651
491.599
491.651
491.6
491.614
491.563
491.605
491.566
491.567
491.683
491.599
491.618
491.614
491.651
491.564
491.6
491.652
491.619
491.601
491.652
491.615
491.601
491.567
491.566
491.566
491.567
491.553
491.565
491.567
491.606
491.566
491.606
491.564
491.565
491.548
491.57
491.569
491.609
491.569
491.652
491.653
491.683
491.567
491.601
491.602
491.619
491.613
491.683
491.651
491.599
491.562
491.618
491.599
491.606
491.567
491.565
491.609
491.568
491.567
491.683
491.614
491.651
491.6
491.618
491.562
491.6
491.651
491.651
491.614
491.618
491.599
491.599
491.563
491.565
491.565
491.564
491.552
491.606
491.567
491.566
491.567
491.567
491.566
)
;

boundaryField
{
    sphere_to_oil
    {
        type            compressible::turbulentTemperatureCoupledBaffleMixed;
        refValue        nonuniform List<scalar> 
360
(
326.199
326.199
307.598
347.992
352.826
309.28
353.999
353.999
353.999
325.892
325.892
309.329
310.325
306.82
323.707
352.857
348.351
348.351
348.351
307.065
345.203
324.015
319.368
351.328
307.51
352.785
309.213
352.275
352.275
352.275
354.76
350.659
307.598
307.521
309.226
309.329
348.17
348.17
348.17
347.533
352.821
307.87
309.392
326.111
326.111
309.154
310.241
306.332
324.794
353.147
309.432
309.296
310.137
310.299
306.862
323.919
349.296
306.998
309.335
309.829
306.588
352.997
352.997
352.997
306.325
351.942
324.544
315.976
353.74
353.74
353.74
352.798
351.777
306.665
345.471
322.974
306.838
318.165
352.51
349.029
319.985
314.984
319.347
306.572
307.599
309.228
309.478
310.245
306.709
307.141
307.624
310.242
309.408
307.631
310.16
309.348
309.438
309.305
307.864
306.766
306.83
306.613
309.286
309.427
310.256
306.564
306.966
310.34
307.9
309.417
309.479
309.353
307.885
306.949
306.634
306.596
316.731
315.786
317.172
326.38
326.38
347.992
347.992
351.328
351.328
349.463
349.463
349.463
351.112
351.112
351.112
316.976
315.655
316.668
306.914
352.826
352.826
324.954
324.954
354.76
354.76
322.919
322.919
354.264
354.264
354.264
306.886
307.025
353.333
353.333
353.333
354.405
354.405
354.405
352.857
345.203
323.707
352.857
351.059
306.778
351.059
351.059
319.404
319.436
315.609
323.55
323.55
354.471
354.471
354.471
306.315
345.203
324.015
353.89
353.89
306.373
353.89
319.938
315.47
306.42
309.164
309.292
310.395
307.449
310.237
309.313
306.375
306.838
352.785
352.785
350.659
350.659
326.016
326.016
348.28
348.28
348.28
325.193
325.193
306.76
309.171
309.372
310.352
309.309
309.253
310.36
307.831
310.319
309.323
307.81
347.533
310.355
309.455
307.046
352.949
352.949
352.949
324.645
324.645
306.318
309.478
309.481
309.798
352.821
307.688
309.744
309.416
347.533
352.821
324.496
306.914
324.496
306.549
306.633
310.206
307.497
309.284
309.245
309.356
307.427
306.587
353.466
346.233
353.466
353.466
346.233
346.233
353.147
351.942
324.794
349.921
306.824
353.147
349.921
349.921
310.014
307.59
309.485
310.222
307.682
352.798
309.221
309.359
309.488
307.84
349.296
345.471
309.352
309.385
307.848
347.489
351.516
323.919
353.058
306.633
349.296
353.058
353.058
309.979
307.75
352.51
309.427
309.297
309.339
352.739
307.744
352.061
324.77
347.489
324.77
352.739
347.489
352.739
306.336
315.422
315.767
316.102
325.543
348.496
325.543
348.496
348.496
306.695
351.942
349.955
324.544
349.955
306.791
349.955
316.813
316.707
306.489
350.836
323.37
350.836
350.836
323.37
306.671
309.226
309.344
310.312
351.777
352.798
323.708
306.795
351.777
323.708
306.639
345.471
352.505
322.974
352.505
306.5
352.505
310.352
349.029
307.92
309.374
351.143
348.114
351.516
323.873
351.516
351.143
323.873
351.143
314.871
319.427
352.51
324.598
306.416
349.029
324.598
307.143
352.061
348.114
352.061
325.214
348.114
325.214
)
;
        refGradient     uniform 0;
        valueFraction   nonuniform List<scalar> 
360
(
0.000129514
0.00012425
7.95466e-05
0.000284179
0.000291452
0.000167117
0.000293264
0.000251726
0.000391831
0.000124751
0.00012163
0.000163169
0.000248677
7.1102e-05
0.000127192
0.000247251
0.000283344
0.000264743
0.000371499
6.50619e-05
0.000243917
0.00011991
0.000110517
0.00029328
8.51481e-05
0.000301457
0.000169921
0.000297564
0.000389425
0.000260494
0.000297615
0.000300178
8.06022e-05
7.97018e-05
0.000167256
0.000164596
0.000278522
0.000377596
0.000259285
0.000389865
0.000385104
8.22281e-05
0.000163099
0.000119038
0.000118895
0.000167898
0.000251193
6.70172e-05
0.000119916
0.000254282
0.000165629
0.000166705
0.000248491
0.000246077
6.95223e-05
0.000127183
0.000259363
6.66005e-05
0.000164991
0.000246038
6.519e-05
0.000289656
0.000255695
0.000400199
6.72088e-05
0.000261438
0.000121948
0.00011795
0.000296349
0.000386605
0.000260053
0.000372811
0.00037803
7.21956e-05
0.000252049
0.000127864
6.65624e-05
0.000119358
0.000377224
0.000391869
0.000117067
0.000114859
0.000112815
6.70469e-05
8.08523e-05
0.000163917
0.000164835
0.000249626
7.53523e-05
6.36235e-05
8.00178e-05
0.000249219
0.000164523
8.17389e-05
0.000248808
0.000166402
0.000165417
0.000165671
8.07892e-05
6.4757e-05
6.56654e-05
6.47916e-05
0.000166566
0.000163712
0.000249031
7.33183e-05
6.36842e-05
0.00024885
7.90551e-05
0.000163969
0.000164
0.000167345
8.18304e-05
6.55256e-05
6.39046e-05
6.51392e-05
0.000113387
0.000113523
0.000117933
0.00012788
0.000120189
0.000248344
0.000391229
0.000261647
0.000394827
0.000253079
0.000389098
0.000289704
0.000253284
0.000380629
0.00028531
0.000116373
0.000110053
0.000112722
6.22257e-05
0.000258075
0.000388572
0.000120219
0.000120768
0.000392687
0.000261084
0.000126024
0.000132823
0.000387853
0.000266434
0.000307013
6.84832e-05
6.37307e-05
0.000269
0.00037277
0.000295474
0.00027697
0.000385676
0.000295443
0.000305036
0.000280976
0.000131431
0.000391763
0.000253053
7.05505e-05
0.000380768
0.000284937
0.000108737
0.00011456
0.000113333
0.000119559
0.000124978
0.000389804
0.00025666
0.000301268
7.2233e-05
0.000374976
0.000128574
0.000394297
0.000252411
7.0556e-05
0.000299287
0.000109703
0.000110721
6.46892e-05
0.000169558
0.000169491
0.000250621
8.35745e-05
0.000250999
0.000165153
6.4025e-05
6.21705e-05
0.000392231
0.000249214
0.000387626
0.00025843
0.000123269
0.000115279
0.000389435
0.000243387
0.000281335
0.000113949
0.000132216
6.65165e-05
0.000166578
0.000166427
0.000248656
0.000162812
0.00016365
0.000247677
8.48918e-05
0.000248526
0.000168509
8.25549e-05
0.000279737
0.000248251
0.0001675
6.67533e-05
0.000380923
0.000246942
0.000288926
0.000120367
0.000111858
6.46118e-05
0.000165282
0.000168062
0.000249185
0.000283317
7.92367e-05
0.00024682
0.000161198
0.000245192
0.000259572
0.000117827
6.6181e-05
0.000130747
6.69993e-05
6.30672e-05
0.000251967
8.4087e-05
0.000169393
0.000167434
0.000165439
8.30301e-05
6.34232e-05
0.000257629
0.000241404
0.000405272
0.000301661
0.000378096
0.000271658
0.000291169
0.000298117
0.000132509
0.000255745
6.89022e-05
0.000389188
0.000378427
0.000287521
0.000250769
7.99047e-05
0.00016317
0.000247886
8.06205e-05
0.000295383
0.000163877
0.000165047
0.000163527
8.01316e-05
0.000293176
0.000274732
0.000166838
0.000162525
8.16747e-05
0.000275273
0.000303003
0.000120164
0.000271997
6.45973e-05
0.000387519
0.0003757
0.000283881
0.000246047
8.08283e-05
0.000284327
0.000163715
0.000163967
0.0001649
0.000285875
8.15856e-05
0.00029208
0.000122898
0.000251826
0.000123924
0.000256619
0.000391075
0.000383923
6.45671e-05
0.000129388
0.00012786
0.000125059
0.000113887
0.000381039
0.000124388
0.000253314
0.000298292
6.36261e-05
0.000384758
0.000384294
0.0001258
0.000273238
6.66777e-05
0.000292933
0.00011153
0.000109566
6.66227e-05
0.000376853
0.000112623
0.000247139
0.000291068
0.000120742
6.58209e-05
0.000163778
0.000163722
0.000247053
0.000282698
0.0002452
0.000118548
6.38118e-05
0.000249307
0.000131667
7.36982e-05
0.000361284
0.000387947
0.000114654
0.000246432
6.83219e-05
0.000309927
0.000248946
0.000298276
8.15948e-05
0.000164482
0.000287575
0.000278798
0.000262288
0.000117234
0.000384215
0.000383388
0.000139167
0.00025627
0.000112752
0.000114482
0.000257994
0.000127711
6.90494e-05
0.000260928
0.000122974
6.37663e-05
0.000379769
0.000384328
0.000252871
0.000122717
0.00024839
0.000126764
)
;
        value           nonuniform List<scalar> 
360
(
491.569
491.57
491.573
491.547
491.547
491.592
491.546
491.555
491.535
491.567
491.568
491.592
491.596
491.578
491.569
491.556
491.543
491.55
491.533
491.578
491.554
491.57
491.552
491.546
491.572
491.545
491.593
491.547
491.534
491.553
491.544
491.543
491.57
491.57
491.591
491.593
491.545
491.535
491.551
491.532
491.535
491.571
491.593
491.568
491.57
491.591
491.596
491.576
491.568
491.553
491.594
491.592
491.597
491.597
491.575
491.566
491.551
491.577
491.592
491.597
491.577
491.547
491.553
491.534
491.577
491.553
491.569
491.55
491.549
491.539
491.556
491.537
491.536
491.581
491.558
491.573
491.575
491.554
491.536
491.533
491.553
491.553
491.554
491.577
491.575
491.592
491.593
491.596
491.573
491.577
491.572
491.596
491.593
491.57
491.596
491.592
491.592
491.592
491.571
491.578
491.578
491.578
491.593
491.593
491.596
491.576
491.576
491.595
491.569
491.591
491.593
491.592
491.571
491.576
491.579
491.579
491.553
491.552
491.552
491.569
491.571
491.554
491.533
491.554
491.534
491.554
491.534
491.545
491.555
491.536
491.549
491.552
491.553
491.553
491.579
491.554
491.535
491.57
491.57
491.535
491.554
491.568
491.568
491.535
491.553
491.543
491.577
491.576
491.55
491.536
491.542
491.55
491.534
491.544
491.544
491.545
491.567
491.533
491.554
491.576
491.534
491.546
491.553
491.552
491.552
491.568
491.567
491.533
491.553
491.545
491.575
491.533
491.566
491.534
491.553
491.575
491.544
491.552
491.551
491.576
491.593
491.592
491.596
491.573
491.596
491.594
491.578
491.577
491.534
491.554
491.533
491.552
491.568
491.57
491.533
491.555
491.544
491.571
491.568
491.578
491.592
491.592
491.596
491.594
491.593
491.596
491.569
491.596
491.591
491.57
491.545
491.596
491.592
491.576
491.536
491.554
491.546
491.568
491.57
491.576
491.592
491.591
491.596
491.546
491.571
491.596
491.593
491.552
491.551
491.568
491.575
491.566
491.575
491.576
491.596
491.571
491.592
491.592
491.593
491.569
491.578
491.552
491.555
491.536
491.545
491.537
491.55
491.544
491.543
491.567
491.553
491.576
491.533
491.533
491.547
491.597
491.575
491.595
491.596
491.572
491.546
491.593
491.593
491.596
491.573
491.546
491.548
491.592
491.593
491.571
491.546
491.543
491.568
491.551
491.576
491.534
491.537
491.547
491.597
491.572
491.547
491.593
491.594
491.594
491.55
491.574
491.549
491.569
491.553
491.568
491.553
491.533
491.536
491.576
491.553
491.554
491.554
491.569
491.535
491.568
491.552
491.547
491.577
491.533
491.533
491.567
491.549
491.576
491.543
491.551
491.552
491.579
491.539
491.572
491.557
491.549
491.571
491.58
491.594
491.595
491.597
491.545
491.556
491.57
491.578
491.553
491.566
491.574
491.538
491.537
491.57
491.555
491.577
491.542
491.596
491.543
491.57
491.592
491.545
491.546
491.551
491.568
491.534
491.534
491.563
491.551
491.554
491.555
491.554
491.568
491.577
491.552
491.568
491.577
491.537
491.535
491.554
491.569
491.553
491.567
)
;
        Tnbr            T;
        thicknessLayers 0();
        kappaLayers     0();
        kappaMethod     solidThermo;
        kappa           none;
        alphaAni        none;
    }
}


// ************************************************************************* //
