/*--------------------------------*- C++ -*----------------------------------*\
| =========                 |                                                 |
| \\      /  F ield         | OpenFOAM: The Open Source CFD Toolbox           |
|  \\    /   O peration     | Version:  v1912                                 |
|   \\  /    A nd           | Website:  www.openfoam.com                      |
|    \\/     M anipulation  |                                                 |
\*---------------------------------------------------------------------------*/
FoamFile
{
    version     2.0;
    format      ascii;
    class       volScalarField;
    location    "466/oil";
    object      heatTransferCoeff(T);
}
// * * * * * * * * * * * * * * * * * * * * * * * * * * * * * * * * * * * * * //

dimensions      [1 0 -3 -1 0 0 0];


internalField   uniform 0;

boundaryField
{
    maxY
    {
        type            calculated;
        value           uniform 0;
    }
    minX
    {
        type            calculated;
        value           uniform 0;
    }
    maxX
    {
        type            calculated;
        value           uniform 0;
    }
    minY
    {
        type            calculated;
        value           uniform 0;
    }
    minZ
    {
        type            calculated;
        value           uniform 0;
    }
    maxZ
    {
        type            calculated;
        value           uniform 0;
    }
    oil_to_sphere
    {
        type            calculated;
        value           nonuniform List<scalar> 
1536
(
-12.0519
-6.8322
-6.69965
2.77937
2.99471
-6.59267
-2.36944
-4.12797
-3.50266
1.94177
5.78227
1.22124
-3.41188
1.03286
6.98944
-1.8093
-6.60134
-6.95146
-1.53307
-3.13682
-5.34039
-3.59013
-3.95151
-1.75299
-2.25938
-2.00516
-2.24726
-1.1158
-6.27653
-3.75074
-7.84068
-6.87185
-7.04806
-1.87105
-2.17536
-1.16576
-1.65256
-0.119753
-1.07739
-2.22276
-0.867744
-1.62335
-3.32357
-4.38494
-5.66419
-2.1576
-5.20744
-3.85129
6.57711
-1.97223
-4.85198
-3.57339
-3.75177
-1.75328
-6.10793
-9.67386
-3.89662
-3.14757
-5.25239
-4.77612
-3.18928
-3.3577
-3.08358
-1.61344
-2.11861
-2.96138
-3.12428
-4.9679
-4.9318
-6.0901
-1.5879
3.02904
1.33523
-2.0177
-1.99724
-10.0203
-7.11685
-0.15014
-1.82085
-6.76617
-5.41049
-4.63307
2.7273
2.86129
-6.25084
-11.0362
4.0869
-2.68281
-4.77909
-4.75555
-3.48623
-1.34064
-1.25128
-1.48905
-1.98713
-4.34237
-5.28385
-5.64521
-7.49903
-4.63553
-5.44446
-1.5143
-12.1285
-4.89259
1.56346
-1.8944
-2.32644
2.41387
2.46837
-12.2551
-7.06514
-4.09518
-3.31912
-3.95865
3.47505
2.98134
4.50681
-8.71496
-11.5612
-7.34978
-3.72786
-3.95904
-1.01796
-5.22336
-7.78587
-4.35831
-3.69825
-0.674596
-5.54461
-5.24211
-2.98157
-5.0306
-6.04147
-2.38556
-2.70557
-6.35736
-3.98893
-6.8054
-0.770495
-6.65448
-3.55383
-5.18038
-5.23447
-3.39612
-2.79734
-3.2796
-4.44853
-8.45103
-2.68518
-12.3486
-5.88475
-6.5942
-3.8966
-4.18202
-2.02978
-4.34327
-6.33158
-5.08382
-13.1915
-7.43135
-7.05214
-8.68964
0.621053
-0.20508
-1.41042
-1.32762
-6.0502
-8.24098
-7.50893
-9.66829
-1.08689
-1.4101
-0.194858
-5.29126
-3.67292
-4.16513
-10.5863
0.41487
1.66424
-11.0423
-1.22657
-0.286417
-0.0813401
-0.574707
-4.70732
-11.0442
-7.46665
-0.8437
0.821926
-6.86421
0.488353
-5.96544
-5.98157
-8.30056
1.28147
8.13154
-8.09917
-8.82251
-2.22143
-1.96759
-3.59182
-2.43512
-6.94029
-8.03625
-5.74928
-4.64567
-1.43301
-8.4437
-7.5325
-4.0609
-0.673128
-2.1168
-1.90529
-2.48128
-5.37899
-9.83316
0.890757
1.11895
0.956506
8.848
-6.57028
-5.32422
-4.59467
-3.54051
-3.76083
-8.44595
-5.92597
-2.00173
-6.59653
1.90706
-1.18109
7.90407
-3.38265
-6.22001
-8.12498
-7.57811
-6.60416
-5.51284
-7.33714
1.33119
0.579234
0.000483847
-8.94793
-0.399627
8.01718
4.30959
-5.37136
-3.11793
-10.6544
-12.9731
-4.04551
2.88123
8.70003
-4.75841
-7.34666
-1.503
-1.66241
3.70097
-1.31051
-8.434
-11.2348
-3.06719
-1.64505
-9.41885
-7.48628
-2.07419
1.48761
-2.68077
-10.0011
-8.76119
-5.52468
-5.99651
-7.90735
-0.072188
-1.87154
-8.17877
-5.98766
-6.68494
-3.31874
-6.60144
-9.68815
-5.68947
-5.26397
-9.13181
-1.53097
-1.47116
-1.91371
-1.08394
-1.38311
-8.37146
-10.1713
1.36507
-2.55517
-2.27639
-2.46893
-0.830982
-3.75991
-3.25922
-0.284228
3.63774
-1.25052
1.16365
-0.805748
-11.0543
-9.25529
-9.15349
-12.4555
0.24949
-0.128082
-3.52445
-12.3737
-11.1487
-1.17914
-3.35293
-0.909029
-5.88823
-1.74458
-5.23169
-5.665
-7.12432
-6.1447
-2.16369
-6.32096
-1.19774
-7.93521
-8.60699
-6.78258
-6.35365
-0.439244
-10.3046
-10.0493
-5.73255
1.39875
-1.47378
-2.3866
-5.68446
-5.17212
-5.95486
-0.269592
-7.84941
-7.9003
-7.18407
-9.12238
-5.01211
-4.35401
-3.13353
0.594454
-4.37182
-5.7795
0.636441
1.00659
0.0831869
-11.7912
-7.73012
-9.11869
-5.13193
-4.25921
-8.23104
0.880069
-10.6634
-7.12707
-4.37587
-4.26052
1.22138
-7.04928
-7.61366
-0.627716
-4.39032
-3.02074
-1.65829
-5.89782
-7.76262
-3.31845
-2.0325
0.220341
-9.84589
-7.97413
1.05712
-8.27796
-7.53782
-6.56999
-9.83496
-4.30988
-6.17068
2.07949
1.23011
-5.64016
-12.2625
-6.79836
-10.5953
-5.04857
-2.34217
-7.46968
0.126196
-0.872266
-5.17268
-7.66775
-5.97494
-5.19112
-0.0863026
-0.137408
-8.19842
-7.82101
-7.98742
-4.1787
-1.32064
-5.32873
-6.36551
-7.61321
-4.48301
-2.68189
-0.435639
-4.02967
0.381202
2.39996
-1.45933
-0.493261
-4.11665
1.89426
-2.40817
-10.2827
-2.28882
-2.22494
-7.60402
-7.54815
-5.80482
-3.03959
0.686639
-6.7468
-9.19066
-5.54113
-4.53498
-6.9588
-3.36633
-3.92359
-5.03841
2.78312
-5.42616
-7.91437
-9.06376
-7.40767
-6.23037
-6.02354
-4.53575
-2.79912
0.117687
-3.69002
-0.453676
1.20524
-0.929041
2.421
-11.2128
-10.4971
-8.646
-11.9204
0.347753
-11.2869
-0.232146
-1.25614
-6.57263
0.738478
-0.0687771
-2.47115
-2.31079
-10.6756
-9.20692
-5.05711
-5.41995
-9.75234
-8.22933
-4.48242
-6.32268
-0.757891
-7.68236
1.39842
-9.00306
2.82908
-6.0653
-6.71347
-7.39993
-2.13303
0.153995
-2.94206
-7.56529
-3.18655
1.77531
-7.62734
-8.05001
-8.61345
-12.701
-4.37826
-9.60148
0.295729
-0.359082
6.35613
4.2869
-4.46889
-2.46183
-1.78206
-0.932525
-11.6576
-0.0259671
0.853834
1.57631
-2.42402
2.00971
-13.118
-0.691423
-1.07963
-3.71571
5.6541
3.79219
-1.49834
-1.36117
-3.33218
-2.01721
-8.01563
-7.38147
-6.04886
-4.42869
2.26729
-1.75481
-7.17681
0.128289
-0.649974
-6.76026
-9.91138
-0.724097
6.42761
0.587528
5.80544
-3.6127
-2.14922
-1.09667
1.44639
5.66007
-5.89958
-6.63861
-5.21024
-3.50825
-10.0388
-6.06971
-5.71006
-4.26624
-0.401315
-1.94338
-7.99103
-6.05388
-2.61517
4.48035
-4.62422
-6.91947
-10.3386
-4.79966
-1.40217
-10.3961
-3.68111
-9.67318
-0.709998
-2.17488
-0.0316514
-2.28763
-4.72175
-9.93209
0.444492
-1.06614
-0.374517
-2.40958
-13.2905
1.48012
-1.86937
0.927221
-3.70915
-4.69562
-8.03329
-10.0601
2.35374
1.36647
-9.97242
-10.5823
3.27975
-9.61307
-8.30078
-6.78111
-8.10737
-5.69722
-4.0245
-4.31958
-9.79428
-4.45028
-5.80343
-4.01205
-7.63541
-4.81748
-3.62151
-3.26123
0.586634
-6.77188
-3.44731
-7.54339
-6.19756
-6.30361
-6.03215
-4.488
1.2385
-8.14132
-8.0961
-5.86541
-3.56495
-4.93014
-12.0865
2.12964
-0.620642
0.384894
-4.55223
-0.734429
-12.1461
-2.29712
-2.82726
-3.8213
6.25409
5.37808
-1.6586
-1.55477
-4.31395
-0.0344449
-0.97888
-4.68944
-1.06333
-10.1077
0.700036
-11.8303
-2.13383
-4.41517
8.0717
5.58043
6.42711
-1.099
-6.7931
-1.83855
-1.11425
5.73186
-4.11512
-7.0297
-4.21632
-14.5083
-0.714714
-8.00228
-5.67832
-6.98922
-8.44365
-8.21538
-6.91971
-3.72227
-2.67347
-3.67056
-6.98527
-3.04114
-5.27973
-4.72125
-5.17227
-7.4302
-6.05925
-6.74258
0.709118
-0.480842
8.27551
3.632
2.53179
11.3209
-1.47576
-2.02932
-3.05491
-3.6016
2.40844
0.492224
-2.59909
-8.78984
-8.17784
-2.49988
1.64594
-3.39049
-7.26757
-5.764
-3.87821
2.02536
-0.712133
-5.9413
-4.91541
-3.7825
-1.64296
-6.42621
-6.50043
-9.83436
-6.58294
-4.57078
-2.0248
-0.897845
0.669614
-1.29297
-3.09375
-12.431
-4.47585
-11.0236
-0.641274
-12.8384
-1.49294
-3.23681
0.313913
-0.190249
-2.07525
0.817096
-2.94601
1.93276
-1.72615
-7.89374
-2.39624
1.11615
-10.1751
-6.26353
-5.37633
-3.43029
-9.5786
-15.258
3.54511
-6.1243
-5.02432
-5.78585
0.848879
-3.52235
-0.878259
-5.10653
-6.56895
-8.27018
-0.345694
-5.90643
-4.21998
-6.49991
-6.17518
-5.67679
-2.50887
-3.12428
-1.78106
1.72347
2.28719
0.0374404
-9.40173
-1.74503
0.891204
-1.89284
-8.03936
-2.88957
-9.34605
-7.34572
-5.5135
-4.55763
-5.40264
-10.4624
0.0256709
-6.0436
-8.30069
-8.86746
-4.45264
-0.840164
-2.75013
-5.41563
-9.01641
0.395659
-3.18487
-4.28821
-7.91218
-5.45398
-5.32126
-9.53772
0.296157
-1.05725
-0.392613
-10.4833
-8.2033
-4.359
-7.86431
-1.11947
-1.71233
-7.84584
-5.26993
-9.87799
-0.214532
-7.04276
-7.66128
-4.71697
-5.1463
-6.74188
-0.29027
2.57416
-3.96897
-5.30605
-10.6152
-3.31622
-1.37748
-3.66869
-5.47439
-6.95558
-4.56982
-0.948982
-3.36056
-7.62893
0.358273
-0.982707
-3.37368
-1.65366
-4.99903
-4.53523
-8.75617
-5.74821
-7.38747
-1.86099
-3.70425
-4.98994
-3.53969
-2.74682
-2.01178
-1.9495
0.187389
-6.35782
-4.85701
-4.87069
-5.53481
1.36767
-2.31015
-10.2832
-10.4145
-0.962736
-7.97628
-5.45036
-6.3319
-1.8624
-8.92587
-8.5814
-0.110728
-2.88531
-2.22882
-2.00833
1.56908
0.467359
-2.23081
-8.44685
-12.061
-1.39752
-6.69465
-6.33645
-5.34918
-3.04971
-5.02751
-8.71483
-4.79605
-0.266678
-2.34794
-1.89097
-2.09448
-5.78818
-6.27077
-6.3822
-6.64514
-6.59328
-0.982352
-6.91715
-2.47183
-6.06439
5.66487
-5.55272
-9.26106
-2.72615
3.5523
-3.83471
-3.11213
-11.0313
-0.478551
-6.9239
-3.6207
2.65601
-10.0766
1.13548
-3.1939
-4.04674
1.43072
-7.97862
-5.08951
-3.04056
-4.3039
-5.05225
-3.19408
-11.3327
1.01423
-2.13052
7.04083
-2.43916
-2.76535
-4.21827
-7.93298
-15.5775
1.8932
-2.17559
-13.8803
1.1007
-6.52656
-0.838852
-6.31944
4.00197
-0.490693
-13.705
2.99414
-12.5
2.1425
-10.7536
2.60718
-0.414991
6.51034
1.02157
-12.9738
5.10635
-3.5113
3.02321
-9.51908
-13.0445
4.83069
-2.73091
-1.52068
-0.283465
-0.119704
-2.27074
-4.10341
-4.0773
-6.18759
-3.67842
-9.69507
-14.3082
4.94912
-4.00859
-5.55913
-4.09996
-4.70987
-3.4102
-2.72593
-3.39131
-7.22628
-3.51051
-7.33468
-2.0567
-4.83861
-9.25962
-2.69227
-5.994
-8.07239
-2.0385
-4.83835
-3.63451
-6.12132
-3.21785
-4.41229
-2.82447
-7.81434
-2.38007
-5.32765
2.20965
-9.90994
4.58114
-5.24444
-7.58403
-10.1656
-0.600953
-4.6141
-3.69721
-4.61878
-4.19613
-3.49721
-7.14245
0.00364674
8.29495
-2.66872
3.49057
-8.22565
-0.693638
-3.9584
-6.37128
7.63352
-8.89335
0.238972
5.96654
-0.308817
-6.5668
-6.24206
-4.16328
5.00419
-4.06736
-4.82024
-1.34762
-0.731649
-8.38609
-7.67146
-1.76117
-4.3029
-8.41664
4.88546
-7.10096
-0.619709
-6.00296
4.40025
-11.9968
-11.6336
-7.66867
-4.05714
-2.72066
-6.37779
-2.51286
5.07959
0.381268
-6.73087
-0.854484
-5.60841
3.58793
-8.09168
-5.9646
10.1469
-4.09674
-5.09796
7.28942
-9.05482
2.3367
-8.31101
-9.98249
-7.03064
5.78023
-4.37698
-2.93341
-4.15803
-4.4852
-5.66211
4.7991
-1.94394
-0.987207
-1.01043
-7.94092
-3.87652
-5.13638
-6.25673
-5.99278
-2.86141
-4.55298
-3.11069
-5.28788
-8.5309
-1.75402
-2.64106
-1.48623
-4.41611
-7.53046
-1.68872
-2.51525
-2.10918
-3.94832
-0.952996
-1.32433
-2.47141
-2.82443
-4.46492
-2.3058
-9.87859
-7.13861
3.16802
3.05908
-9.07856
11.2874
-6.85215
-4.78382
-0.928483
-2.83417
-9.26198
7.65425
-8.2293
-5.14689
5.39532
-2.16667
-1.31922
-3.89563
8.14103
-9.08133
-5.27465
7.47815
-8.69986
-8.75902
4.15731
-10.2152
-7.64874
4.03038
-1.44706
-0.968561
7.54397
-4.07214
-4.60232
0.339007
-0.623177
-0.173417
9.83301
-0.51712
8.04016
10.4565
-7.86087
-1.48451
-12.9922
-1.72372
4.85741
-9.17628
-3.09048
6.56437
-1.73664
-1.49885
6.67691
3.04394
-8.75649
12.8087
0.343528
1.27945
11.3386
-8.20778
-7.31348
-4.03568
-2.41683
-1.40662
0.299762
8.86819
-4.18822
-2.50437
-2.71263
-4.05093
5.9471
-6.58711
-1.77238
-3.49382
-1.34213
-3.33268
-4.43601
0.603856
5.52474
-2.25154
-4.58225
-1.67583
-2.39788
-3.63548
-0.603493
-2.60946
6.18128
-1.75325
-5.08382
-1.41523
-2.87181
-0.742904
5.37286
-9.22012
-9.02965
-8.6574
-10.1926
4.20886
7.21775
-1.83503
-6.81291
-4.58103
-6.47511
-7.21246
0.327054
1.3294
7.09001
4.86045
-0.582318
-3.5602
-3.26191
-3.04927
1.31737
-7.93588
-5.19523
3.93048
-0.399418
0.528638
-7.11441
-0.703114
8.92355
-3.47988
-3.83243
-8.18175
6.34952
-1.38715
-4.44893
-2.04533
-2.85335
-6.29741
-3.44131
0.194686
-10.7122
10.5505
2.15356
-2.931
-0.646631
-2.28745
-10.1353
-5.35702
-3.86167
1.91745
-9.30994
-1.93527
-4.42122
-7.20193
-8.18016
-7.80038
-8.14741
-9.77613
-10.847
-9.59339
-9.61043
-3.8896
-7.42732
-1.74058
-2.83102
1.47403
2.6911
9.68845
-10.3354
-10.0265
-8.63585
-2.62126
-4.46404
-4.14709
-0.802371
-4.71851
-7.35742
0.0411102
-3.10011
-6.07123
-1.41545
-1.84774
-1.61167
-2.55545
-0.574607
-2.4066
-2.00617
4.37145
-4.40563
-0.031444
-3.06453
6.66943
-10.2799
-3.27574
-1.12508
-0.394273
3.82871
-3.79676
-1.25537
7.46976
2.0876
-3.16419
2.87837
1.67164
-11.0697
-11.5912
-2.04788
-2.09409
-6.69254
-10.0653
7.58935
-0.697359
-0.566276
-2.31748
-2.28048
-2.68169
-3.39132
1.4281
5.20898
-9.03176
-2.16653
2.38378
1.519
-2.05142
-3.94592
3.74427
-2.7394
-0.765887
-1.73903
-10.1519
2.24221
5.04446
-2.26531
-1.38253
-0.551183
5.08668
-8.20702
-1.96938
-1.77761
-2.01052
7.40355
-2.02722
-2.26844
4.85854
-1.90461
2.11247
-5.22382
-8.91748
-0.77633
-7.4306
-5.01948
-0.959775
-1.13616
-2.42541
5.07766
-4.896
-5.55632
-1.55477
6.36457
0.647359
-2.9316
-3.27226
-0.861173
5.58559
-1.05166
-8.19848
-5.0144
-1.14793
-10.9253
2.20312
-7.11683
7.21108
2.4711
-7.51432
7.40592
-7.86687
-1.05264
-3.92393
-1.75439
-11.4267
1.10604
-4.04379
-10.1779
-9.26032
3.26162
-8.93732
-10.1614
11.0276
-2.714
-1.34615
6.92493
-5.48149
-1.24034
-1.79192
-1.80881
-3.46485
-2.72587
-1.56434
-1.14701
7.22667
-5.48304
-3.90269
-3.64119
-4.40068
-2.62113
-0.939806
0.581266
-6.5428
8.65616
-0.442257
-0.141517
8.23888
-7.62345
-10.633
-3.12243
-8.62107
-9.27139
-0.750086
-0.820114
-5.4328
-8.56948
-0.566597
-6.02258
1.54706
6.91792
-6.69329
-0.0180806
-8.18496
-10.8783
-10.0068
6.35218
-7.23733
-4.03349
0.231159
-1.51326
-2.29742
-1.28604
6.1584
-8.47294
5.82812
-8.29712
-2.54863
1.5467
2.48878
-2.59058
-6.22453
-9.61967
-3.74443
-12.4174
-6.82133
-7.92267
7.64902
-7.37773
-6.44629
-8.20185
-0.716417
0.106806
8.73046
-3.20263
-12.0207
-8.65348
5.31938
1.20454
5.95819
-0.710907
-3.40878
1.66657
-14.7445
-1.81141
1.16973
5.07315
-4.94683
0.00499332
7.9992
-2.81827
-1.17869
-1.34605
-1.50874
-1.58215
4.9796
1.55558
6.85958
-1.21851
-6.75889
-5.26241
-8.92673
-8.18149
-0.452863
0.557031
7.28744
-1.01801
-6.22093
-9.44189
-6.80038
-7.1371
2.34702
8.35278
1.01929
9.07736
-6.65232
-7.03262
0.55024
-7.79396
-6.52814
-8.96675
-4.64623
-3.93798
-3.79492
-0.452537
7.4617
0.824026
6.4151
1.88576
-1.51519
-0.855823
4.34153
6.42195
-5.95065
-12.0753
-10.9207
-10.0091
-3.66767
-5.79157
-5.59693
-3.18253
-1.48348
-3.19438
0.246077
-2.52126
-2.56696
6.36359
-6.48913
-2.14572
1.17738
4.52351
-1.08735
-3.55473
-3.49912
-0.874227
4.47458
-9.68627
-4.89093
-1.29995
-10.8088
0.0602371
6.78789
-5.23884
-2.53833
-2.60034
-2.6045
-1.01215
8.70916
-2.5248
-2.46225
5.75017
-9.32647
-1.96427
12.7838
-1.4937
-3.341
-3.68109
-0.983015
6.18289
-0.255782
-0.516322
2.68907
-2.83627
7.22915
-3.06594
-2.76937
3.12
-10.6439
-2.43374
4.86709
-11.6932
-3.22909
-3.22344
4.60653
-2.77139
5.86851
)
;
    }
}


// ************************************************************************* //
