/*--------------------------------*- C++ -*----------------------------------*\
| =========                 |                                                 |
| \\      /  F ield         | OpenFOAM: The Open Source CFD Toolbox           |
|  \\    /   O peration     | Version:  v1912                                 |
|   \\  /    A nd           | Website:  www.openfoam.com                      |
|    \\/     M anipulation  |                                                 |
\*---------------------------------------------------------------------------*/
FoamFile
{
    version     2.0;
    format      ascii;
    class       volScalarField;
    location    "466/oil";
    object      wallHeatFlux;
}
// * * * * * * * * * * * * * * * * * * * * * * * * * * * * * * * * * * * * * //

dimensions      [1 0 -3 0 0 0 0];


internalField   uniform 0;

boundaryField
{
    maxY
    {
        type            calculated;
        value           uniform 0;
    }
    minX
    {
        type            calculated;
        value           uniform 0;
    }
    maxX
    {
        type            calculated;
        value           uniform 0;
    }
    minY
    {
        type            calculated;
        value           uniform 0;
    }
    minZ
    {
        type            calculated;
        value           uniform 0;
    }
    maxZ
    {
        type            calculated;
        value           uniform 0;
    }
    oil_to_sphere
    {
        type            calculated;
        value           nonuniform List<scalar> 
1536
(
652.869
370.114
362.934
-150.568
-162.234
357.139
128.358
223.624
189.749
-105.192
-313.251
-66.1584
184.829
-55.9529
-378.648
98.0148
357.612
376.578
83.051
169.929
289.301
194.488
214.064
94.9647
122.397
108.626
121.741
60.4461
340.011
203.186
424.744
372.261
381.806
101.36
117.846
63.1525
89.5242
6.48739
58.3655
120.413
47.0083
87.942
180.046
237.542
306.841
116.883
282.101
208.636
-356.307
106.841
262.842
193.578
203.244
94.9807
330.879
524.049
211.089
170.511
284.535
258.735
172.772
181.896
167.046
87.4047
114.771
160.426
169.251
269.121
267.166
329.912
86.0223
-164.093
-72.333
109.304
108.198
542.816
385.533
8.13348
98.6401
366.541
293.1
250.986
-147.747
-155.006
338.621
597.85
-221.402
145.334
258.893
257.62
188.858
72.6266
67.7857
80.6662
107.648
235.236
286.239
305.812
406.235
251.116
294.937
82.0349
657.019
265.041
-84.6971
102.624
126.031
-130.767
-133.719
663.875
382.731
221.844
179.806
214.451
-188.256
-161.509
-244.151
472.105
626.285
398.151
201.946
214.471
55.1463
282.961
421.776
236.1
200.344
36.5448
300.366
283.978
161.52
272.518
327.278
129.232
146.567
344.394
216.091
368.663
41.7397
360.486
192.52
280.633
283.564
183.977
151.539
177.664
240.988
457.81
145.464
668.946
318.789
357.223
211.089
226.55
109.958
235.286
342.996
275.403
714.603
402.574
382.031
470.74
-33.6444
11.1099
76.4066
71.9211
327.753
446.431
406.775
523.751
58.8798
76.3886
10.556
286.64
198.971
225.635
573.481
-22.4749
-90.1576
598.184
66.4471
15.5161
4.40645
31.1336
255.009
598.286
404.487
45.7056
-44.5264
371.847
-26.4554
323.159
324.033
449.654
-69.4217
-440.52
438.747
477.932
120.341
106.589
194.577
131.917
375.971
435.34
311.451
251.667
77.6303
457.413
408.053
219.99
36.4653
114.673
103.215
134.418
291.394
532.684
-48.2552
-60.6173
-51.8169
-479.332
355.923
288.424
248.901
191.797
203.732
457.537
321.027
108.44
357.353
-103.313
63.9839
-428.201
183.246
336.95
440.147
410.524
357.762
298.644
397.47
-72.1143
-31.3787
-0.0262116
484.728
21.6491
-434.325
-233.464
290.978
168.905
577.166
702.77
219.154
-156.087
-471.322
257.773
397.983
81.4211
90.0568
-200.495
70.9946
456.89
608.614
166.159
89.1176
510.239
405.551
112.365
-80.5888
145.226
541.779
474.609
299.283
324.843
428.357
3.91062
101.386
443.059
324.365
362.137
179.784
357.615
524.827
308.212
285.162
494.689
82.9364
79.6962
103.67
58.7205
74.9273
453.502
551.004
-73.9507
138.421
123.319
133.748
45.0166
203.683
176.56
15.3974
-197.068
67.7436
-63.0381
43.6494
598.828
501.373
495.863
674.737
-13.5157
6.9386
190.93
670.302
603.947
63.8773
181.637
49.2446
318.979
94.5088
283.413
306.885
385.938
332.87
117.213
342.42
64.8849
429.865
466.255
367.425
344.19
23.795
558.217
544.388
310.544
-75.774
79.8381
129.288
307.939
280.184
322.586
14.6045
425.216
427.974
389.174
494.173
271.515
235.865
169.75
-32.2032
236.832
313.088
-34.4777
-54.5299
-4.50644
638.743
418.758
493.977
278.008
230.732
445.893
-47.6761
577.653
386.089
237.051
230.803
-66.1662
381.876
412.446
34.005
237.833
163.641
89.8333
319.496
420.515
179.767
110.105
-11.9364
533.367
431.973
-57.2678
448.435
408.341
355.912
532.78
233.477
334.281
-112.653
-66.6392
305.542
664.282
368.283
573.967
273.493
126.882
404.65
-6.83646
47.2532
280.217
415.377
323.675
281.213
4.67524
7.44373
444.122
423.678
432.692
226.369
71.5422
288.668
344.831
412.42
242.854
145.284
23.6
218.298
-20.651
-130.014
79.056
26.7215
223.01
-102.618
130.457
557.031
123.992
120.531
411.925
408.899
314.459
164.663
-37.1973
365.489
497.877
300.176
245.67
376.972
182.362
212.55
272.942
-150.771
293.948
428.739
491.003
401.288
337.513
326.308
245.712
151.635
-6.37542
199.897
24.5768
-65.2914
50.3286
-131.153
607.413
568.643
468.369
645.748
-18.8388
611.431
12.576
68.0486
356.053
-40.0056
3.72585
133.868
125.181
578.314
498.757
273.955
293.61
528.301
445.8
242.823
342.513
41.0571
416.17
-75.757
487.714
-153.259
328.568
363.681
400.866
115.551
-8.34231
159.378
409.824
172.623
-96.1733
413.186
436.083
466.614
688.042
237.184
520.135
-16.0207
19.4527
-344.334
-232.235
242.089
133.363
96.5384
50.5173
631.518
1.40673
-46.2554
-85.3946
131.318
-108.874
710.629
37.4563
58.4866
201.289
-306.301
-205.435
81.1687
73.7379
180.511
109.278
434.223
399.871
327.681
239.913
-122.827
95.0633
388.786
-6.94984
35.2111
366.219
536.92
39.2267
-348.211
-31.8284
-314.504
195.71
116.429
59.41
-78.3556
-306.627
319.592
359.627
282.249
190.05
543.82
328.809
309.325
231.112
21.7403
105.278
432.888
327.951
141.67
-242.715
250.505
374.842
560.062
260.008
75.9597
563.177
199.416
524.016
38.4628
117.819
1.71466
123.928
255.789
538.04
-24.0796
57.7558
20.2887
130.534
719.964
-80.1829
101.268
-50.2303
200.934
254.371
435.178
544.975
-127.509
-74.0257
540.224
573.264
-177.675
520.759
449.671
367.347
439.192
308.631
218.017
234.002
530.576
241.083
314.385
217.343
413.627
260.975
196.185
176.669
-31.7795
366.846
186.749
408.639
335.734
341.478
326.772
243.124
-67.0929
441.029
438.579
317.74
193.121
267.076
654.75
-115.371
33.6223
-20.8511
246.609
39.7865
657.981
124.441
153.16
207.009
-338.805
-291.348
89.8505
84.2256
233.696
1.86601
53.0293
254.043
57.6046
547.561
-37.9236
640.873
115.597
239.184
-437.281
-302.311
-348.179
59.5358
367.995
99.599
60.3616
-310.514
222.925
380.813
228.407
785.933
38.7183
433.502
307.61
378.623
457.413
445.046
374.857
201.646
144.829
198.844
378.409
164.747
286.016
255.763
280.195
402.514
328.245
365.262
-38.4156
26.0488
-448.321
-196.758
-137.157
-613.305
79.9458
109.934
165.493
195.108
-130.474
-26.6651
140.799
476.16
443.008
135.424
-89.1654
183.67
393.699
312.249
210.092
-109.719
38.5779
321.852
266.278
204.906
89.0034
348.12
352.141
532.742
356.609
247.609
109.689
48.6391
-36.2752
70.0443
167.598
673.412
242.468
597.168
34.7399
695.477
80.8767
175.346
-17.0056
10.3063
112.422
-44.2647
159.594
-104.704
93.5103
427.619
129.811
-60.4649
551.206
339.309
291.247
185.827
518.89
826.544
-192.05
331.766
272.178
313.431
-45.9861
190.814
47.5776
276.632
355.854
448.012
18.7272
319.963
228.606
352.112
334.522
307.523
135.912
169.25
96.4844
-93.3652
-123.904
-2.02824
509.305
94.5331
-48.2794
102.54
435.511
156.537
506.293
397.934
298.679
246.898
292.674
566.771
-1.39067
327.393
449.663
480.363
241.209
45.5138
148.981
293.375
488.434
-21.434
172.532
232.301
428.618
295.452
288.264
516.676
-16.0436
57.2741
21.269
567.903
444.391
236.138
426.029
60.6451
92.7617
425.026
285.486
535.111
11.6219
381.522
415.029
255.53
278.787
365.224
15.7248
-139.45
215.008
287.44
575.044
179.648
74.6213
198.741
296.559
376.797
247.556
51.4087
182.049
413.273
-19.4087
53.2357
182.76
89.583
270.808
245.683
474.336
311.392
400.191
100.816
200.67
270.318
191.755
148.803
108.984
105.61
-10.1515
344.417
263.116
263.856
299.834
-74.0906
125.147
557.06
564.174
52.1542
432.091
295.259
343.012
100.892
483.531
464.871
5.99844
156.305
120.741
108.796
-85.0017
-25.3182
120.849
457.583
653.365
75.7077
362.662
343.259
289.776
165.21
272.351
472.099
259.813
14.4467
127.194
102.439
113.463
313.558
339.7
345.737
359.98
357.17
53.2165
374.717
133.906
328.523
-306.887
300.805
501.685
147.682
-192.441
207.737
168.593
597.579
25.9244
375.081
196.144
-143.885
545.871
-61.5122
173.021
219.221
-77.5072
432.221
275.711
164.715
233.155
273.691
173.032
613.914
-54.944
115.416
-381.432
132.137
149.806
228.515
429.746
843.848
-102.561
117.858
751.915
-59.6285
353.558
45.4431
342.338
-216.802
26.5823
742.416
-162.203
677.147
-116.067
582.546
-141.24
22.4813
-352.693
-55.3417
702.809
-276.63
190.218
-163.779
515.671
706.643
-261.697
147.941
82.3791
15.3561
6.48471
123.012
222.291
220.878
335.195
199.27
525.202
775.098
-268.114
217.157
301.152
222.104
255.144
184.739
147.671
183.715
391.46
190.172
397.338
111.417
262.12
501.607
145.846
324.712
437.298
110.431
262.107
196.89
331.604
174.318
239.026
153.009
423.318
128.935
288.612
-119.704
536.839
-248.177
284.104
410.843
550.687
32.5552
249.955
200.286
250.212
227.316
189.454
386.919
-0.197553
-449.376
144.573
-189.098
445.605
37.5762
214.435
345.152
-413.544
481.778
-12.946
-323.233
16.7297
355.736
338.149
225.536
-271.096
220.34
261.126
73.004
39.6355
454.294
415.582
95.4076
233.099
455.947
-264.663
384.675
33.5713
325.192
-238.378
649.886
630.208
415.429
219.786
147.387
345.5
136.129
-275.18
-20.6543
364.624
46.2895
303.824
-194.372
438.347
323.12
-549.705
221.933
276.168
-394.902
490.525
-126.588
450.229
540.777
380.871
-313.139
237.111
158.91
225.254
242.976
306.732
-259.985
105.309
53.4794
54.7376
430.179
210.001
278.251
338.941
324.642
155.01
246.645
168.513
286.458
462.136
95.0201
143.072
80.5127
239.234
407.941
91.4827
136.257
114.259
213.891
51.6266
71.7424
133.882
153.008
241.877
124.913
535.141
386.714
-171.622
-165.722
491.809
-611.491
371.196
259.152
50.2986
153.534
501.741
-414.66
445.797
278.819
-292.284
117.374
71.4662
211.036
-441.031
491.953
285.741
-405.121
471.288
474.494
-225.216
553.378
414.349
-218.34
78.3915
52.4698
-408.686
220.599
249.32
-18.3652
33.7595
9.39457
-532.698
28.0141
-435.569
-566.479
425.844
80.4198
703.805
93.3788
-263.144
497.096
167.42
-355.619
94.0786
81.1973
-361.713
-164.902
474.363
-693.909
-18.6101
-69.3126
-614.267
444.636
396.189
218.624
130.927
76.2014
-16.2391
-480.429
226.885
135.668
146.95
219.448
-322.174
356.837
96.014
189.27
72.7075
180.541
240.311
-32.7126
-299.295
121.972
248.232
90.7841
129.9
196.943
32.6929
141.361
-334.86
94.9778
275.401
76.6663
155.573
40.2451
-291.065
499.469
489.15
468.985
552.151
-228.007
-391.016
99.4098
369.074
248.166
350.773
390.717
-17.7177
-72.018
-384.096
-263.309
31.5459
192.865
176.707
165.187
-71.3661
429.9
281.437
-212.927
21.6375
-28.6382
385.401
38.0901
-483.43
188.516
207.613
443.221
-343.976
75.146
241.009
110.8
154.573
341.143
186.424
-10.5467
580.292
-571.571
-116.667
158.781
35.0299
123.918
549.045
290.205
209.198
-103.875
504.334
104.838
239.508
390.144
443.135
422.563
441.362
529.59
587.601
519.691
520.617
210.711
402.356
94.2928
153.365
-79.8541
-145.787
-524.868
559.89
543.154
467.819
142.001
241.827
224.658
43.4666
255.613
398.567
-2.22706
167.941
328.893
76.6789
100.097
87.3082
138.435
31.128
130.371
108.68
-236.816
238.664
1.70341
166.013
-361.306
556.881
177.454
60.9487
21.3589
-207.413
205.679
68.0068
-404.663
-113.091
171.411
-155.93
-90.5574
599.66
627.909
110.939
113.442
362.547
545.258
-411.145
37.778
30.6767
125.545
123.54
145.275
183.718
-77.3652
-282.189
489.27
117.367
-129.138
-82.2888
111.13
213.76
-202.838
148.4
41.49
94.2077
549.949
-121.468
-273.277
122.718
74.8955
29.8594
-275.565
444.596
106.687
96.2976
108.915
-401.077
109.819
122.887
-263.202
103.178
-114.44
282.988
483.078
42.0562
402.532
271.918
51.9938
61.5493
131.391
-275.075
265.229
301
84.2266
-344.792
-35.0692
158.812
177.267
46.6524
-302.591
56.9717
444.126
271.641
62.1865
591.843
-119.35
385.534
-390.652
-133.868
407.068
-401.209
426.165
57.0246
212.568
95.04
619.004
-59.9176
219.062
551.352
501.646
-176.692
484.149
550.461
-597.415
147.025
72.9245
-375.151
296.947
67.1927
97.0734
97.9882
187.7
147.668
84.7448
62.137
-391.493
297.027
211.418
197.251
238.394
141.993
50.9116
-31.4893
354.444
-468.944
23.9586
7.66647
-446.339
412.984
576.006
169.149
467.017
502.246
40.634
44.4287
294.311
464.233
30.6947
326.262
-83.8105
-374.776
362.588
0.979471
443.393
589.296
542.094
-344.122
392.064
218.506
-12.5227
81.9777
124.458
69.6688
-333.621
458.995
-315.73
449.471
138.066
-83.7897
-134.827
140.34
337.199
521.117
202.846
672.672
369.527
429.187
-414.379
399.67
349.211
444.313
38.8107
-5.78601
-472.967
173.494
651.176
468.774
-288.168
-65.2539
-322.778
38.5118
184.662
-90.2831
798.731
98.1289
-63.3681
-274.83
267.982
-0.270503
-433.349
152.674
63.853
72.919
81.7324
85.7091
-269.76
-84.2698
-371.607
66.0096
366.15
285.081
483.584
443.214
24.5333
-30.1764
-394.794
55.1479
337
511.482
368.39
386.638
-127.148
-452.511
-55.2191
-491.765
360.376
380.979
-29.8087
422.212
353.643
485.743
251.697
213.331
205.582
24.5154
-404.232
-44.6401
-347.531
-102.158
82.0818
46.3623
-235.194
-347.899
322.364
654.137
591.593
542.213
198.687
313.743
303.199
172.406
80.3641
173.048
-13.3307
136.584
139.059
-344.739
351.53
116.239
-63.7826
-245.053
58.9048
192.568
189.556
47.3594
-242.402
524.72
264.952
70.4217
585.533
-3.26324
-367.725
283.801
137.508
140.867
141.093
54.8315
-471.806
136.774
133.386
-311.506
505.232
106.41
-692.563
80.9183
180.991
199.415
53.2529
-334.95
13.8565
27.9706
-145.675
153.648
-391.629
166.09
150.024
-169.02
576.6
131.842
-263.667
633.442
174.928
174.622
-249.551
150.133
-317.917
)
;
    }
}


// ************************************************************************* //
