/*--------------------------------*- C++ -*----------------------------------*\
| =========                 |                                                 |
| \\      /  F ield         | OpenFOAM: The Open Source CFD Toolbox           |
|  \\    /   O peration     | Version:  v1906                                 |
|   \\  /    A nd           | Web:      www.OpenFOAM.com                      |
|    \\/     M anipulation  |                                                 |
\*---------------------------------------------------------------------------*/
FoamFile
{
    version     2.0;
    format      ascii;
    class       surfaceScalarField;
    location    "27.2/oil";
    object      phi;
}
// * * * * * * * * * * * * * * * * * * * * * * * * * * * * * * * * * * * * * //

dimensions      [1 0 -1 0 0 0 0];
oriented        oriented;


internalField   nonuniform List<scalar> 
80688
(
-2.47827e-06
-2.52101e-06
-2.47827e-06
-1.12018e-06
-7.02056e-07
-6.56032e-07
-3.07045e-07
-4.08833e-07
-4.04301e-07
-1.54856e-07
-7.61471e-08
-7.60417e-08
-6.80285e-08
-4.35857e-08
-4.32418e-08
-2.80987e-08
-2.02883e-08
-1.96415e-08
-8.02694e-09
-1.04317e-08
-9.64005e-09
2.37198e-09
-5.64273e-09
-4.75618e-09
7.65522e-09
-3.14424e-09
-2.139e-09
9.87104e-09
-1.69236e-09
-5.23456e-10
1.0016e-08
-7.52465e-10
6.07541e-10
8.64948e-09
-9.78747e-11
1.46438e-09
6.16003e-09
3.75498e-10
2.11396e-09
2.89828e-09
6.94794e-10
2.56697e-09
-7.85828e-10
8.69202e-10
2.81491e-09
-4.54388e-09
9.05496e-10
2.85256e-09
-8.04472e-09
8.1245e-10
2.6884e-09
-1.0998e-08
6.052e-10
2.34809e-09
-1.31778e-08
3.05289e-10
1.87454e-09
-1.44402e-08
-5.71294e-11
1.31951e-09
-1.4734e-08
-4.47933e-10
7.41728e-10
-1.40926e-08
-8.4598e-10
2.04647e-10
-1.26245e-08
-1.21992e-09
-2.48204e-10
-1.05118e-08
-1.54404e-09
-5.68637e-10
-7.99759e-09
-1.79297e-09
-7.21254e-10
-5.37138e-09
-1.93111e-09
-6.95093e-10
-2.95918e-09
-1.90646e-09
-5.05733e-10
-1.09963e-09
-1.64478e-09
-2.1476e-10
-8.42461e-11
-1.04964e-09
3.42676e-11
-1.76042e-10
9.18015e-11
-6.6825e-07
-1.18451e-06
-6.6825e-07
-4.03125e-07
-4.29431e-07
-5.37749e-07
-2.9289e-07
-2.8656e-07
-2.32507e-07
-1.51832e-07
-1.21392e-07
-9.58128e-08
-7.40806e-08
-7.08046e-08
-5.05327e-08
-3.06359e-08
-4.03545e-08
-2.33786e-08
-5.25581e-09
-2.60376e-08
-9.77419e-09
9.45471e-09
-1.81851e-08
-2.16819e-09
1.74595e-08
-1.36535e-08
2.50448e-09
2.0783e-08
-1.07515e-08
5.73555e-09
2.05618e-08
-8.7253e-09
8.19405e-09
1.75506e-08
-7.23065e-09
1.0144e-08
1.23934e-08
-6.12501e-09
1.16577e-08
5.72942e-09
-5.36414e-09
1.2723e-08
-1.77001e-09
-4.93712e-09
1.33058e-08
-9.41638e-09
-4.83706e-09
1.33889e-08
-1.6549e-08
-5.04386e-09
1.29889e-08
-2.25879e-08
-5.51741e-09
1.21616e-08
-2.70842e-08
-6.19835e-09
1.1e-08
-2.97494e-08
-7.01214e-09
9.62018e-09
-3.04722e-08
-7.8784e-09
8.15325e-09
-2.93212e-08
-8.71615e-09
6.71921e-09
-2.65237e-08
-9.44509e-09
5.42767e-09
-2.2442e-08
-9.98592e-09
4.36018e-09
-1.75482e-08
-1.02513e-08
3.56459e-09
-1.23914e-08
-1.01305e-08
3.04252e-09
-7.55731e-09
-9.47353e-09
2.73301e-09
-3.61001e-09
-8.07879e-09
2.48672e-09
-1.00159e-09
-5.68644e-09
2.02839e-09
-2.18731e-09
1.00968e-09
-4.17353e-07
-3.49802e-07
-4.17353e-07
-2.83398e-07
-3.24041e-07
-2.39345e-07
-1.96191e-07
-2.2308e-07
-1.50688e-07
-1.11251e-07
-1.28403e-07
-7.79287e-08
-5.65682e-08
-8.53376e-08
-4.01497e-08
-2.05656e-08
-5.87956e-08
-1.75615e-08
2.62997e-09
-4.4424e-08
-4.80913e-09
1.71116e-08
-3.57407e-08
3.07394e-09
2.52526e-08
-3.02129e-08
8.41846e-09
2.84314e-08
-2.63599e-08
1.24297e-08
2.75349e-08
-2.34834e-08
1.56547e-08
2.32661e-08
-2.12582e-08
1.82963e-08
1.63261e-08
-1.95625e-08
2.03775e-08
7.48056e-09
-1.83711e-08
2.18526e-08
-2.42514e-09
-1.76911e-08
2.26596e-08
-1.25099e-08
-1.75213e-08
2.2769e-08
-2.19212e-08
-1.7832e-08
2.21994e-08
-2.99068e-08
-1.85569e-08
2.10251e-08
-3.58852e-08
-1.95926e-08
1.93726e-08
-3.94834e-08
-2.08119e-08
1.7398e-08
-4.05653e-08
-2.20729e-08
1.52764e-08
-3.92184e-08
-2.32309e-08
1.31679e-08
-3.57375e-08
-2.4142e-08
1.1216e-08
-3.05838e-08
-2.46585e-08
9.51889e-09
-2.43468e-08
-2.46164e-08
8.1281e-09
-1.76959e-08
-2.38132e-08
7.03182e-09
-1.13208e-08
-2.19849e-08
6.13627e-09
-5.86767e-09
-1.8771e-08
5.23912e-09
-1.88568e-09
-1.36608e-08
3.99242e-09
-5.96669e-09
1.89371e-09
-8.20437e-08
-1.85715e-07
-8.20432e-08
-1.12972e-07
-1.94615e-07
-9.84979e-08
-9.62457e-08
-1.61679e-07
-7.81274e-08
-6.04903e-08
-1.18886e-07
-4.52728e-08
-2.93083e-08
-9.31285e-08
-2.33911e-08
-4.57652e-09
-7.51946e-08
-8.33277e-09
1.33999e-08
-6.39653e-08
1.565e-09
2.54984e-08
-5.63499e-08
8.51079e-09
3.243e-08
-5.0925e-08
1.37804e-08
3.47507e-08
-4.67653e-08
1.80847e-08
3.29471e-08
-4.34193e-08
2.17394e-08
2.7553e-08
-4.06929e-08
2.48289e-08
1.923e-08
-3.85444e-08
2.73049e-08
8.78799e-09
-3.70034e-08
2.90743e-08
-2.83568e-09
-3.61102e-08
3.00428e-08
-1.46411e-08
-3.58796e-08
3.01638e-08
-2.56519e-08
-3.62769e-08
2.94558e-08
-3.50052e-08
-3.72109e-08
2.80073e-08
-4.20313e-08
-3.85363e-08
2.59698e-08
-4.63082e-08
-4.00681e-08
2.35331e-08
-4.76824e-08
-4.16012e-08
2.09026e-08
-4.62615e-08
-4.29245e-08
1.82726e-08
-4.23806e-08
-4.38276e-08
1.58047e-08
-3.65604e-08
-4.40886e-08
1.36099e-08
-2.94516e-08
-4.34658e-08
1.17407e-08
-2.17797e-08
-4.16605e-08
1.01753e-08
-1.42849e-08
-3.82803e-08
8.80066e-09
-7.66434e-09
-3.27739e-08
7.38232e-09
-2.58161e-09
-2.42665e-08
5.52297e-09
-1.11394e-08
2.59108e-09
-4.31259e-08
-9.94635e-08
-4.31251e-08
-5.63298e-08
-1.3154e-07
-4.98712e-08
-4.7981e-08
-1.30464e-07
-3.95639e-08
-2.84249e-08
-1.15177e-07
-2.32642e-08
-8.41294e-09
-1.02824e-07
-1.03168e-08
9.32098e-09
-9.26259e-08
-3.02559e-10
2.3295e-08
-8.51506e-08
7.21133e-09
3.3128e-08
-7.93489e-08
1.31659e-08
3.86926e-08
-7.46652e-08
1.81756e-08
4.00269e-08
-7.06877e-08
2.25882e-08
3.73177e-08
-6.72322e-08
2.65222e-08
3.09473e-08
-6.42659e-08
2.99434e-08
2.15196e-08
-6.18498e-08
3.27331e-08
9.85397e-09
-6.0079e-08
3.47413e-08
-3.05659e-09
-5.90393e-08
3.58397e-08
-1.61344e-08
-5.87646e-08
3.59628e-08
-2.83172e-08
-5.92197e-08
3.51256e-08
-3.86643e-08
-6.02935e-08
3.34296e-08
-4.64485e-08
-6.18027e-08
3.10507e-08
-5.12162e-08
-6.35103e-08
2.821e-08
-5.28084e-08
-6.51549e-08
2.5146e-08
-5.13479e-08
-6.6463e-08
2.2078e-08
-4.72024e-08
-6.71562e-08
1.91831e-08
-4.09275e-08
-6.69495e-08
1.6586e-08
-3.32091e-08
-6.55233e-08
1.43391e-08
-2.48033e-08
-6.24807e-08
1.24143e-08
-1.64783e-08
-5.72909e-08
1.06857e-08
-8.97917e-09
-4.91677e-08
8.89475e-09
-3.07772e-09
-3.67744e-08
6.60643e-09
-1.73065e-08
3.08947e-09
-1.71319e-08
-6.52009e-08
-1.71308e-08
-2.2614e-08
-1.04905e-07
-2.11526e-08
-1.81098e-08
-1.18296e-07
-1.66723e-08
-6.35231e-09
-1.18399e-07
-8.53621e-09
7.33234e-09
-1.15641e-07
-8.67298e-10
2.05322e-08
-1.11697e-07
5.8708e-09
3.15633e-08
-1.07848e-07
1.16667e-08
3.95218e-08
-1.04137e-07
1.68301e-08
4.38496e-08
-1.0059e-07
2.15972e-08
4.42698e-08
-9.71824e-08
2.60745e-08
4.07651e-08
-9.39603e-08
3.02327e-08
3.35962e-08
-9.10373e-08
3.39403e-08
2.33104e-08
-8.85712e-08
3.70073e-08
1.07261e-08
-8.67245e-08
3.92298e-08
-3.13134e-09
-8.56238e-08
4.04419e-08
-1.71314e-08
-8.53243e-08
4.05598e-08
-3.01532e-08
-8.57937e-08
3.95958e-08
-4.11996e-08
-8.69075e-08
3.76604e-08
-4.95061e-08
-8.84527e-08
3.49564e-08
-5.46018e-08
-9.01531e-08
3.17384e-08
-5.63304e-08
-9.17034e-08
2.8277e-08
-5.48314e-08
-9.27759e-08
2.48139e-08
-5.04973e-08
-9.30437e-08
2.15535e-08
-4.39081e-08
-9.21613e-08
1.86226e-08
-3.57708e-08
-8.97368e-08
1.60762e-08
-2.68569e-08
-8.52759e-08
1.38813e-08
-1.79563e-08
-7.80947e-08
1.19031e-08
-9.85015e-09
-6.71398e-08
9.866e-09
-3.39724e-09
-5.05297e-08
7.30241e-09
-2.41151e-08
3.41135e-09
-6.21511e-09
-5.27719e-08
-6.21384e-09
-6.93721e-09
-9.69504e-08
-7.23245e-09
-2.21192e-09
-1.18574e-07
-4.44721e-09
6.91386e-09
-1.27791e-07
2.66313e-10
1.77036e-08
-1.31664e-07
5.23284e-09
2.8407e-08
-1.32515e-07
1.01151e-08
3.75712e-08
-1.31849e-07
1.48361e-08
4.41974e-08
-1.30239e-07
1.94755e-08
4.75781e-08
-1.28054e-07
2.40835e-08
4.72818e-08
-1.25516e-07
2.86297e-08
4.31722e-08
-1.22838e-07
3.29878e-08
3.54294e-08
-1.20245e-07
3.69508e-08
2.45596e-08
-1.17966e-07
4.02647e-08
1.13674e-08
-1.16214e-07
4.26815e-08
-3.10075e-09
-1.15151e-07
4.39958e-08
-1.76838e-08
-1.14846e-07
4.41043e-08
-3.12247e-08
-1.15269e-07
4.30166e-08
-4.26906e-08
-1.16295e-07
4.08539e-08
-5.12965e-08
-1.17694e-07
3.78473e-08
-5.65633e-08
-1.19166e-07
3.42801e-08
-5.83459e-08
-1.20377e-07
3.04561e-08
-5.68015e-08
-1.2097e-07
2.66492e-08
-5.23435e-08
-1.20577e-07
2.30756e-08
-4.5567e-08
-1.1881e-07
1.98722e-08
-3.71902e-08
-1.15209e-07
1.70955e-08
-2.79904e-08
-1.09183e-07
1.47069e-08
-1.87658e-08
-9.98831e-08
1.25638e-08
-1.03212e-08
-8.59653e-08
1.03808e-08
-3.5659e-09
-6.49543e-08
7.66933e-09
-3.1263e-08
3.58195e-09
-1.23001e-09
-5.03132e-08
-1.22871e-09
1.01717e-09
-9.89517e-08
-2.45856e-10
6.50014e-09
-1.26131e-07
2.07362e-09
1.46931e-08
-1.41275e-07
5.29079e-09
2.4054e-08
-1.49911e-07
8.88664e-09
3.33053e-08
-1.54502e-07
1.27352e-08
4.12489e-08
-1.56601e-07
1.68083e-08
4.69376e-08
-1.57042e-07
2.11138e-08
4.96258e-08
-1.56361e-07
2.56189e-08
4.88279e-08
-1.54937e-07
3.02194e-08
4.43394e-08
-1.53081e-07
3.47308e-08
3.62884e-08
-1.51091e-07
3.88967e-08
2.51446e-08
-1.49236e-07
4.24134e-08
1.17003e-08
-1.47757e-07
4.49872e-08
-3.00034e-09
-1.4683e-07
4.63789e-08
-1.77891e-08
-1.46533e-07
4.64765e-08
-3.14984e-08
-1.46845e-07
4.5285e-08
-4.30817e-08
-1.47641e-07
4.29292e-08
-5.17502e-08
-1.4869e-07
3.96645e-08
-5.70292e-08
-1.49696e-07
3.58085e-08
-5.87891e-08
-1.50312e-07
3.16947e-08
-5.72056e-08
-1.50171e-07
2.76177e-08
-5.27027e-08
-1.48885e-07
2.38052e-08
-4.5884e-08
-1.46032e-07
2.04036e-08
-3.74665e-08
-1.41097e-07
1.74708e-08
-2.82204e-08
-1.33393e-07
1.49645e-08
-1.89361e-08
-1.21903e-07
1.27355e-08
-1.04211e-08
-1.04973e-07
1.04932e-08
-3.60058e-09
-7.95169e-08
7.74208e-09
-3.84814e-08
3.61783e-09
1.01066e-09
-5.23356e-08
1.01176e-09
4.8186e-09
-1.05877e-07
3.11747e-09
1.08563e-08
-1.37506e-07
5.33718e-09
1.86485e-08
-1.56951e-07
7.88402e-09
2.71895e-08
-1.69215e-07
1.07632e-08
3.54926e-08
-1.76823e-07
1.40185e-08
4.25707e-08
-1.81353e-07
1.76747e-08
4.75635e-08
-1.83761e-07
2.17267e-08
4.97597e-08
-1.84677e-07
2.61195e-08
4.86572e-08
-1.84549e-07
3.07142e-08
4.40337e-08
-1.83747e-07
3.52901e-08
3.59734e-08
-1.82589e-07
3.95585e-08
2.49176e-08
-1.81358e-07
4.31779e-08
1.16312e-08
-1.80301e-07
4.58306e-08
-2.86055e-09
-1.79598e-07
4.72606e-08
-1.74158e-08
-1.79323e-07
4.73453e-08
-3.08891e-08
-1.79459e-07
4.60874e-08
-4.22505e-08
-1.79893e-07
4.36131e-08
-5.0723e-08
-1.80414e-07
4.01961e-08
-5.58505e-08
-1.80734e-07
3.61659e-08
-5.75195e-08
-1.80518e-07
3.1875e-08
-5.59187e-08
-1.79415e-07
2.76434e-08
-5.14749e-08
-1.77037e-07
2.37077e-08
-4.47902e-08
-1.72934e-07
2.0217e-08
-3.6561e-08
-1.66549e-07
1.7222e-08
-2.75338e-08
-1.571e-07
1.46799e-08
-1.84726e-08
-1.43412e-07
1.24478e-08
-1.01624e-08
-1.23515e-07
1.02315e-08
-3.50824e-09
-9.37109e-08
7.53988e-09
-4.55154e-08
3.52578e-09
1.94154e-09
-5.62194e-08
1.94226e-09
6.38986e-09
-1.14864e-07
4.53905e-09
1.25566e-08
-1.50353e-07
6.68043e-09
1.99343e-08
-1.73191e-07
8.86262e-09
2.77635e-08
-1.88358e-07
1.13137e-08
3.52527e-08
-1.98479e-07
1.41666e-08
4.15839e-08
-2.05173e-07
1.74883e-08
4.59845e-08
-2.09444e-07
2.12822e-08
4.78085e-08
-2.11982e-07
2.54806e-08
4.65759e-08
-2.13259e-07
2.99428e-08
4.20496e-08
-2.13653e-07
3.44323e-08
3.43001e-08
-2.13482e-07
3.86428e-08
2.37351e-08
-2.13018e-07
4.22252e-08
1.1075e-08
-2.12495e-07
4.48546e-08
-2.70554e-09
-2.12075e-07
4.62566e-08
-1.65284e-08
-2.11828e-07
4.63279e-08
-2.93121e-08
-2.11745e-07
4.50695e-08
-4.00708e-08
-2.11723e-07
4.25882e-08
-4.80663e-08
-2.11576e-07
3.91579e-08
-5.28722e-08
-2.11047e-07
3.51192e-08
-5.43897e-08
-2.09837e-07
3.08372e-08
-5.2814e-08
-2.07612e-07
2.66216e-08
-4.85661e-08
-2.04e-07
2.27155e-08
-4.22176e-08
-1.98549e-07
1.92668e-08
-3.44322e-08
-1.90661e-07
1.63271e-08
-2.59103e-08
-1.79478e-07
1.3856e-08
-1.73729e-08
-1.63653e-07
1.1704e-08
-9.55018e-09
-1.40933e-07
9.59536e-09
-3.29308e-09
-1.07037e-07
7.06913e-09
-5.21185e-08
3.31004e-09
2.19323e-09
-6.06057e-08
2.19314e-09
6.64428e-09
-1.24161e-07
4.84523e-09
1.24901e-08
-1.63033e-07
6.83404e-09
1.92167e-08
-1.88647e-07
8.72961e-09
2.6213e-08
-2.06191e-07
1.08361e-08
3.2828e-08
-2.18426e-07
1.33321e-08
3.83721e-08
-2.27019e-07
1.6302e-08
4.21888e-08
-2.33014e-07
1.97531e-08
4.36988e-08
-2.37115e-07
2.36236e-08
4.24652e-08
-2.39799e-07
2.7773e-08
3.82669e-08
-2.41423e-07
3.19681e-08
3.11603e-08
-2.42291e-07
3.59153e-08
2.15105e-08
-2.4264e-07
3.92721e-08
9.97647e-09
-2.42689e-07
4.17275e-08
-2.55366e-09
-2.42568e-07
4.30235e-08
-1.51081e-08
-2.42354e-07
4.30804e-08
-2.67124e-08
-2.42035e-07
4.18944e-08
-3.64602e-08
-2.41527e-07
3.95519e-08
-4.36842e-08
-2.40666e-07
3.63136e-08
-4.79962e-08
-2.39225e-07
3.249e-08
-4.93067e-08
-2.36957e-07
2.84301e-08
-4.78144e-08
-2.33547e-07
2.4443e-08
-4.39129e-08
-2.28664e-07
2.0762e-08
-3.81274e-08
-2.21857e-07
1.75224e-08
-3.10613e-08
-2.12502e-07
1.47746e-08
-2.33522e-08
-1.99669e-07
1.24818e-08
-1.56406e-08
-1.81876e-07
1.05111e-08
-8.58768e-09
-1.56591e-07
8.6046e-09
-2.95804e-09
-1.19004e-07
6.3376e-09
-5.80502e-08
2.97365e-09
2.05584e-09
-6.47165e-08
2.05496e-09
6.05084e-09
-1.32608e-07
4.45197e-09
1.11736e-08
-1.74332e-07
6.17691e-09
1.69491e-08
-2.02194e-07
7.77148e-09
2.28874e-08
-2.21667e-07
9.53788e-09
2.8455e-08
-2.35643e-07
1.16493e-08
3.30957e-08
-2.45848e-07
1.41882e-08
3.627e-08
-2.53361e-07
1.71733e-08
3.74781e-08
-2.5887e-07
2.05471e-08
3.6354e-08
-2.62854e-07
2.41801e-08
3.27039e-08
-2.65638e-07
2.78646e-08
2.65591e-08
-2.6748e-07
3.13338e-08
1.825e-08
-2.68605e-07
3.42738e-08
8.33316e-09
-2.69185e-07
3.64131e-08
-2.41666e-09
-2.69348e-07
3.75303e-08
-1.31754e-08
-2.69168e-07
3.75724e-08
-2.31136e-08
-2.68637e-07
3.65399e-08
-3.14539e-08
-2.67666e-07
3.44794e-08
-3.76106e-08
-2.66122e-07
3.16127e-08
-4.1246e-08
-2.63813e-07
2.82235e-08
-4.23081e-08
-2.60521e-07
2.46261e-08
-4.09624e-08
-2.55992e-07
2.10994e-08
-3.75604e-08
-2.49914e-07
1.78487e-08
-3.25644e-08
-2.41848e-07
1.49948e-08
-2.64936e-08
-2.3116e-07
1.25874e-08
-1.98885e-08
-2.16863e-07
1.05887e-08
-1.33031e-08
-1.97348e-07
8.88622e-09
-7.29539e-09
-1.69861e-07
7.26272e-09
-2.50681e-09
-1.29146e-07
5.35282e-09
-6.30774e-08
2.52044e-09
1.67837e-09
-6.80718e-08
1.67692e-09
4.8804e-09
-1.39411e-07
3.6015e-09
8.9339e-09
-1.83345e-07
4.95963e-09
1.34636e-08
-2.12922e-07
6.19777e-09
1.8085e-08
-2.33862e-07
7.57388e-09
2.24041e-08
-2.49196e-07
9.23425e-09
2.59972e-08
-2.60686e-07
1.12446e-08
2.84408e-08
-2.69433e-07
1.36281e-08
2.93499e-08
-2.76115e-07
1.63359e-08
2.84252e-08
-2.81191e-07
1.92609e-08
2.55075e-08
-2.84952e-07
2.22326e-08
2.06267e-08
-2.87619e-07
2.50193e-08
1.40398e-08
-2.89384e-07
2.73654e-08
6.18973e-09
-2.90396e-07
2.90608e-08
-2.30169e-09
-2.9079e-07
2.99327e-08
-1.0789e-08
-2.90638e-07
2.99576e-08
-1.86252e-08
-2.89935e-07
2.91343e-08
-2.5176e-08
-2.88599e-07
2.74836e-08
-2.99845e-08
-2.86491e-07
2.51776e-08
-3.2791e-08
-2.83445e-07
2.24385e-08
-3.35521e-08
-2.79289e-07
1.95287e-08
-3.24113e-08
-2.73805e-07
1.66714e-08
-2.96554e-08
-2.66708e-07
1.40375e-08
-2.56592e-08
-2.57583e-07
1.17385e-08
-2.08316e-08
-2.45795e-07
9.80746e-09
-1.56097e-08
-2.30301e-07
8.21608e-09
-1.04202e-08
-2.09416e-07
6.87875e-09
-5.69831e-09
-1.80203e-07
5.62027e-09
-1.95346e-09
-1.37041e-07
4.15044e-09
-6.69958e-08
1.96485e-09
1.14345e-09
-7.03546e-08
1.13937e-09
3.30091e-09
-1.44e-07
2.43106e-09
6.01886e-09
-1.89395e-07
3.33201e-09
9.04251e-09
-2.20107e-07
4.16133e-09
1.21295e-08
-2.42044e-07
5.09528e-09
1.50161e-08
-2.58319e-07
6.2358e-09
1.742e-08
-2.70729e-07
7.63999e-09
1.90531e-08
-2.80381e-07
9.31522e-09
1.96533e-08
-2.87946e-07
1.12306e-08
1.90064e-08
-2.93848e-07
1.33047e-08
1.69944e-08
-2.98353e-07
1.54121e-08
1.36301e-08
-3.01653e-07
1.73985e-08
9.07847e-09
-3.03909e-07
1.90772e-08
3.65457e-09
-3.0526e-07
2.0288e-08
-2.20977e-09
-3.05829e-07
2.09036e-08
-8.05796e-09
-3.05701e-07
2.09106e-08
-1.343e-08
-3.04871e-07
2.03086e-08
-1.78922e-08
-3.03247e-07
1.91101e-08
-2.11246e-08
-3.00708e-07
1.74499e-08
-2.29531e-08
-2.97102e-07
1.54849e-08
-2.33602e-08
-2.92283e-07
1.34012e-08
-2.24629e-08
-2.86073e-07
1.13707e-08
-2.0469e-08
-2.78213e-07
9.51126e-09
-1.76423e-08
-2.68304e-07
7.89433e-09
-1.4274e-08
-2.55714e-07
6.55096e-09
-1.0658e-08
-2.39376e-07
5.45938e-09
-7.08479e-09
-2.17541e-07
4.55184e-09
-3.85811e-09
-1.87149e-07
3.71935e-09
-1.31303e-09
-1.42348e-07
2.76192e-09
-6.96308e-08
1.32206e-09
5.05585e-10
-7.13612e-08
5.00987e-10
1.44581e-09
-1.4599e-07
1.05007e-09
2.63686e-09
-1.92021e-07
1.43466e-09
3.96953e-09
-2.23247e-07
1.8077e-09
5.34605e-09
-2.45676e-07
2.25551e-09
6.65187e-09
-2.62453e-07
2.82874e-09
7.75617e-09
-2.75387e-07
3.55314e-09
8.51751e-09
-2.85573e-07
4.43025e-09
8.80476e-09
-2.93681e-07
5.44771e-09
8.49376e-09
-3.00108e-07
6.57081e-09
7.50645e-09
-3.05099e-07
7.73336e-09
5.84183e-09
-3.08829e-07
8.84116e-09
3.56421e-09
-3.11418e-07
9.78638e-09
8.27561e-10
-3.13006e-07
1.04831e-08
-2.13854e-09
-3.13701e-07
1.08383e-08
-5.07777e-09
-3.13588e-07
1.08266e-08
-7.73606e-09
-3.12664e-07
1.04508e-08
-9.87948e-09
-3.10839e-07
9.73576e-09
-1.13576e-08
-3.08007e-07
8.77715e-09
-1.20989e-08
-3.04032e-07
7.67101e-09
-1.21147e-08
-2.98798e-07
6.53119e-09
-1.14913e-08
-2.92133e-07
5.43691e-09
-1.03487e-08
-2.8381e-07
4.45489e-09
-8.81668e-09
-2.73459e-07
3.62363e-09
-7.05738e-09
-2.6042e-07
2.94612e-09
-5.20841e-09
-2.4364e-07
2.41512e-09
-3.42284e-09
-2.21325e-07
1.99895e-09
-1.83571e-09
-1.90377e-07
1.64043e-09
-6.1173e-10
-1.44813e-07
1.24096e-09
-7.08613e-08
6.18697e-10
-1.8931e-10
-7.09768e-08
-1.95063e-10
-5.57657e-10
-1.45172e-07
-4.49273e-10
-1.01551e-09
-1.90943e-07
-6.20114e-10
-1.48684e-09
-2.22046e-07
-7.2993e-10
-1.92218e-09
-2.44448e-07
-7.92982e-10
-2.28179e-09
-2.61276e-07
-8.17875e-10
-2.53959e-09
-2.74321e-07
-8.08291e-10
-2.68405e-09
-2.84669e-07
-7.59847e-10
-2.71859e-09
-2.92974e-07
-6.72502e-10
-2.66081e-09
-2.9962e-07
-5.45655e-10
-2.53862e-09
-3.04842e-07
-3.79099e-10
-2.39644e-09
-3.08799e-07
-1.72613e-10
-2.26829e-09
-3.11595e-07
4.91888e-11
-2.16733e-09
-3.13348e-07
2.40554e-10
-2.08107e-09
-3.14134e-07
3.46731e-10
-1.95887e-09
-3.14029e-07
3.19281e-10
-1.75399e-09
-3.13033e-07
1.64009e-10
-1.4532e-09
-3.11068e-07
-7.16297e-11
-1.08353e-09
-3.08058e-07
-3.1874e-10
-6.78087e-10
-3.03898e-07
-5.38564e-10
-2.96144e-10
-2.98476e-07
-7.04414e-10
3.49586e-11
-2.91653e-07
-8.112e-10
2.89773e-10
-2.83199e-07
-8.6651e-10
4.44605e-10
-2.72739e-07
-8.75301e-10
5.143e-10
-2.59647e-07
-8.42232e-10
4.98172e-10
-2.42848e-07
-7.75736e-10
4.18995e-10
-2.20571e-07
-6.75249e-10
2.84636e-10
-1.89707e-07
-5.35701e-10
1.23994e-10
-1.44303e-07
-3.49724e-10
-7.06186e-08
-1.1864e-10
-9.02411e-10
-6.9166e-08
-9.08354e-10
-2.61605e-09
-1.41474e-07
-1.9849e-09
-4.74555e-09
-1.86095e-07
-2.71878e-09
-7.05147e-09
-2.16423e-07
-3.31668e-09
-9.31982e-09
-2.38284e-07
-3.89512e-09
-1.13659e-08
-2.54708e-07
-4.52189e-09
-1.30045e-08
-2.67444e-07
-5.23808e-09
-1.40727e-08
-2.77553e-07
-6.04767e-09
-1.44383e-08
-2.85677e-07
-6.93198e-09
-1.40179e-08
-2.92199e-07
-7.84212e-09
-1.27935e-08
-2.97354e-07
-8.71202e-09
-1.08246e-08
-3.01293e-07
-9.47471e-09
-8.24823e-09
-3.04111e-07
-1.00603e-08
-5.24772e-09
-3.05906e-07
-1.04429e-08
-2.03106e-09
-3.06722e-07
-1.06292e-08
1.22743e-09
-3.06623e-07
-1.0665e-08
4.34682e-09
-3.05602e-07
-1.05499e-08
7.12251e-09
-3.03609e-07
-1.02347e-08
9.35244e-09
-3.00596e-07
-9.6923e-09
1.08903e-08
-2.96483e-07
-8.95368e-09
1.16634e-08
-2.91162e-07
-8.08639e-09
1.16786e-08
-2.84506e-07
-7.16174e-09
1.10093e-08
-2.7628e-07
-6.24926e-09
9.77701e-09
-2.66104e-07
-5.40272e-09
8.1346e-09
-2.53359e-07
-4.64544e-09
6.24584e-09
-2.36984e-07
-3.97592e-09
4.27843e-09
-2.15249e-07
-3.35466e-09
2.41518e-09
-1.85128e-07
-2.71522e-09
8.62666e-10
-1.40805e-07
-1.94512e-09
-6.88977e-08
-8.58291e-10
-1.59605e-09
-6.59659e-08
-1.60404e-09
-4.61584e-09
-1.34976e-07
-3.47806e-09
-8.37113e-09
-1.77578e-07
-4.76137e-09
-1.24488e-08
-2.06519e-07
-5.82666e-09
-1.64977e-08
-2.27337e-07
-6.89897e-09
-2.01734e-08
-2.42924e-07
-8.10854e-09
-2.31509e-08
-2.5495e-07
-9.51665e-09
-2.51195e-08
-2.64434e-07
-1.11506e-08
-2.58196e-08
-2.71999e-07
-1.29772e-08
-2.50721e-08
-2.78028e-07
-1.4918e-08
-2.27989e-08
-2.82774e-07
-1.68534e-08
-1.90771e-08
-2.86391e-07
-1.86239e-08
-1.41207e-08
-2.88993e-07
-2.00742e-08
-8.27969e-09
-2.90656e-07
-2.10904e-08
-1.98187e-09
-2.91422e-07
-2.15972e-08
4.36208e-09
-2.91324e-07
-2.16431e-08
1.03347e-08
-2.90355e-07
-2.12196e-08
1.55048e-08
-2.88501e-07
-2.02776e-08
1.95087e-08
-2.85723e-07
-1.88764e-08
2.21101e-08
-2.81947e-07
-1.71367e-08
2.32268e-08
-2.77066e-07
-1.52133e-08
2.29148e-08
-2.70932e-07
-1.32625e-08
2.13419e-08
-2.63296e-07
-1.14115e-08
1.87615e-08
-2.5378e-07
-9.74348e-09
1.54627e-08
-2.41765e-07
-8.29574e-09
1.17667e-08
-2.26245e-07
-7.04265e-09
7.99087e-09
-2.05549e-07
-5.92376e-09
4.46142e-09
-1.7679e-07
-4.80853e-09
1.57444e-09
-1.34442e-07
-3.47563e-09
-6.57528e-08
-1.57041e-09
-2.23802e-09
-6.14821e-08
-2.2458e-09
-6.46078e-09
-1.25899e-07
-4.85416e-09
-1.17161e-08
-1.65684e-07
-6.63849e-09
-1.74282e-08
-1.92674e-07
-8.13288e-09
-2.31112e-08
-2.12003e-07
-9.6509e-09
-2.82882e-08
-2.26365e-07
-1.13816e-08
-3.24992e-08
-2.37317e-07
-1.34215e-08
-3.53038e-08
-2.45827e-07
-1.58019e-08
-3.63287e-08
-2.52482e-07
-1.84923e-08
-3.52899e-08
-2.57681e-07
-2.13861e-08
-3.20698e-08
-2.61684e-07
-2.43103e-08
-2.67391e-08
-2.64674e-07
-2.70473e-08
-1.95922e-08
-2.66785e-07
-2.93555e-08
-1.1113e-08
-2.68113e-07
-3.10227e-08
-1.92971e-09
-2.68715e-07
-3.18908e-08
7.3019e-09
-2.68614e-07
-3.19418e-08
1.59216e-08
-2.67814e-07
-3.11613e-08
2.32871e-08
-2.66299e-07
-2.95678e-08
2.89043e-08
-2.6402e-07
-2.73203e-08
3.24627e-08
-2.60888e-07
-2.46174e-08
3.38731e-08
-2.56773e-07
-2.17032e-08
3.32387e-08
-2.51494e-07
-1.88032e-08
3.08245e-08
-2.44789e-07
-1.60925e-08
2.69996e-08
-2.36274e-07
-1.36815e-08
2.21857e-08
-2.25347e-07
-1.16039e-08
1.68294e-08
-2.11058e-07
-9.83076e-09
1.13926e-08
-1.91848e-07
-8.26429e-09
6.34216e-09
-1.65024e-07
-6.71553e-09
2.22587e-09
-1.25453e-07
-4.8735e-09
-6.13053e-08
-2.22164e-09
-2.79953e-09
-5.58754e-08
-2.80715e-09
-8.07225e-09
-1.14567e-07
-6.05933e-09
-1.46279e-08
-1.50851e-07
-8.27776e-09
-2.17599e-08
-1.75409e-07
-1.01328e-08
-2.88568e-08
-1.92889e-07
-1.2017e-08
-3.53323e-08
-2.05716e-07
-1.41732e-08
-4.06027e-08
-2.15319e-07
-1.67284e-08
-4.41257e-08
-2.2258e-07
-1.9724e-08
-4.54205e-08
-2.28072e-07
-2.31148e-08
-4.41324e-08
-2.3219e-07
-2.6779e-08
-4.00953e-08
-2.35207e-07
-3.05135e-08
-3.33787e-08
-2.37343e-07
-3.4048e-08
-2.43345e-08
-2.38766e-07
-3.70629e-08
-1.35619e-08
-2.39614e-07
-3.92714e-08
-1.87157e-09
-2.3997e-07
-4.04346e-08
9.86604e-09
-2.39872e-07
-4.04796e-08
2.07751e-08
-2.39322e-07
-3.94012e-08
3.0043e-08
-2.38299e-07
-3.72678e-08
3.70462e-08
-2.36714e-07
-3.43091e-08
4.14199e-08
-2.34451e-07
-3.08106e-08
4.30765e-08
-2.31337e-07
-2.70923e-08
4.21641e-08
-2.27155e-07
-2.34264e-08
3.90273e-08
-2.21632e-07
-2.00198e-08
3.41279e-08
-2.14376e-07
-1.69981e-08
2.80012e-08
-2.04812e-07
-1.44086e-08
2.12163e-08
-1.92061e-07
-1.22117e-08
1.43417e-08
-1.74694e-07
-1.02796e-08
7.96878e-09
-1.50282e-07
-8.36898e-09
2.7927e-09
-1.14187e-07
-6.0893e-09
-5.57246e-08
-2.78797e-09
-3.25417e-09
-4.93595e-08
-3.2617e-09
-9.37656e-09
-1.01412e-07
-7.03218e-09
-1.69874e-08
-1.33646e-07
-9.59349e-09
-2.5262e-08
-1.55404e-07
-1.173e-08
-3.34979e-08
-1.70756e-07
-1.38972e-08
-4.10115e-08
-1.81836e-07
-1.63668e-08
-4.71274e-08
-1.89914e-07
-1.92883e-08
-5.12118e-08
-1.95785e-07
-2.27107e-08
-5.27063e-08
-1.9999e-07
-2.65876e-08
-5.11999e-08
-2.02905e-07
-3.07909e-08
-4.64919e-08
-2.0483e-07
-3.50848e-08
-3.86596e-08
-2.06014e-07
-3.91611e-08
-2.80955e-08
-2.0667e-07
-4.266e-08
-1.54969e-08
-2.06974e-07
-4.52385e-08
-1.80677e-09
-2.0705e-07
-4.66105e-08
1.19299e-08
-2.06957e-07
-4.66511e-08
2.46645e-08
-2.06702e-07
-4.53543e-08
3.54405e-08
-2.06231e-07
-4.28439e-08
4.3554e-08
-2.05427e-07
-3.94006e-08
4.85906e-08
-2.04127e-07
-3.53606e-08
5.04564e-08
-2.02118e-07
-3.10848e-08
4.93341e-08
-1.9915e-07
-2.68834e-08
4.56253e-08
-1.94929e-07
-2.29951e-08
3.98686e-08
-1.89068e-07
-1.95512e-08
3.26917e-08
-1.81035e-07
-1.65996e-08
2.47521e-08
-1.70029e-07
-1.40924e-08
1.67213e-08
-1.54784e-07
-1.18794e-08
9.28493e-09
-1.33158e-07
-9.68802e-09
3.24966e-09
-1.01087e-07
-7.06521e-09
-4.92306e-08
-3.24433e-09
-3.58682e-09
-4.21789e-08
-3.59377e-09
-1.03279e-08
-8.69309e-08
-7.74046e-09
-1.87014e-08
-1.14724e-07
-1.05486e-08
-2.7807e-08
-1.33426e-07
-1.28732e-08
-3.68694e-08
-1.4648e-07
-1.52133e-08
-4.51297e-08
-1.55705e-07
-1.78701e-08
-5.18482e-08
-1.62194e-07
-2.1002e-08
-5.63203e-08
-1.66654e-07
-2.46584e-08
-5.79381e-08
-1.69573e-07
-2.8799e-08
-5.62491e-08
-1.71318e-07
-3.32762e-08
-5.1039e-08
-1.72198e-07
-3.78429e-08
-4.23924e-08
-1.72478e-07
-4.21831e-08
-3.07389e-08
-1.72413e-07
-4.59107e-08
-1.68402e-08
-1.7221e-07
-4.86622e-08
-1.7346e-09
-1.72028e-07
-5.01281e-08
1.34145e-08
-1.71943e-07
-5.01634e-08
2.7442e-08
-1.71961e-07
-4.87686e-08
3.92992e-08
-1.72012e-07
-4.6077e-08
4.82165e-08
-1.71949e-07
-4.23955e-08
5.37407e-08
-1.71563e-07
-3.8089e-08
5.57744e-08
-1.70611e-07
-3.35409e-08
5.4518e-08
-1.68824e-07
-2.90688e-08
5.04042e-08
-1.65893e-07
-2.49213e-08
4.40347e-08
-1.61451e-07
-2.12477e-08
3.60961e-08
-1.55006e-07
-1.80903e-08
2.73193e-08
-1.45853e-07
-1.53999e-08
1.8448e-08
-1.32897e-07
-1.30156e-08
1.02388e-08
-1.14311e-07
-1.06383e-08
3.58239e-09
-8.66578e-08
-7.77245e-09
-4.20714e-08
-3.57684e-09
-3.78371e-09
-3.46052e-08
-3.79006e-09
-1.08869e-08
-7.16731e-08
-8.15464e-09
-1.97137e-08
-9.48049e-08
-1.10926e-08
-2.93165e-08
-1.10317e-07
-1.35064e-08
-3.888e-08
-1.20999e-07
-1.59179e-08
-4.75975e-08
-1.2835e-07
-1.86379e-08
-5.46754e-08
-1.33286e-07
-2.18303e-08
-5.93694e-08
-1.36413e-07
-2.55477e-08
-6.104e-08
-1.38165e-07
-2.97374e-08
-5.92174e-08
-1.38891e-07
-3.42496e-08
-5.36868e-08
-1.38885e-07
-3.88433e-08
-4.45374e-08
-1.38431e-07
-4.31958e-08
-3.22358e-08
-1.37788e-07
-4.69262e-08
-1.75795e-08
-1.37188e-07
-4.9678e-08
-1.6538e-09
-1.36805e-07
-5.11483e-08
1.4313e-08
-1.36731e-07
-5.11785e-08
2.90897e-08
-1.36971e-07
-4.97666e-08
4.15856e-08
-1.3744e-07
-4.70672e-08
5.09842e-08
-1.37968e-07
-4.33794e-08
5.6816e-08
-1.38336e-07
-3.90583e-08
5.89671e-08
-1.38279e-07
-3.44828e-08
5.76414e-08
-1.37521e-07
-2.99779e-08
5.32918e-08
-1.35759e-07
-2.57846e-08
4.65461e-08
-1.32651e-07
-2.2054e-08
3.81391e-08
-1.27759e-07
-1.88404e-08
2.88496e-08
-1.20472e-07
-1.60908e-08
1.94687e-08
-1.09874e-07
-1.36421e-08
1.08006e-08
-9.4464e-08
-1.11786e-08
3.77837e-09
-7.1452e-08
-8.1835e-09
-3.452e-08
-3.77304e-09
-3.83217e-09
-2.69356e-08
-3.83737e-09
-1.10271e-08
-5.62281e-08
-8.25003e-09
-1.99852e-08
-7.4645e-08
-1.12018e-08
-2.97537e-08
-8.69452e-08
-1.36027e-08
-3.94989e-08
-9.52717e-08
-1.59818e-08
-4.83891e-08
-1.00808e-07
-1.86515e-08
-5.56038e-08
-1.04299e-07
-2.17723e-08
-6.03771e-08
-1.06247e-07
-2.53927e-08
-6.20532e-08
-1.07032e-07
-2.94573e-08
-6.01623e-08
-1.06961e-07
-3.38211e-08
-5.44955e-08
-1.06309e-07
-3.82426e-08
-4.51645e-08
-1.05346e-07
-4.24163e-08
-3.26419e-08
-1.04326e-07
-4.59851e-08
-1.77423e-08
-1.03477e-07
-4.86107e-08
-1.56286e-09
-1.02976e-07
-5.00082e-08
1.46546e-08
-1.02915e-07
-5.00336e-08
2.96662e-08
-1.03297e-07
-4.86855e-08
4.23674e-08
-1.04037e-07
-4.6105e-08
5.19353e-08
-1.04963e-07
-4.25728e-08
5.78818e-08
-1.05855e-07
-3.84278e-08
6.00821e-08
-1.06456e-07
-3.40238e-08
5.87293e-08
-1.065e-07
-2.96684e-08
5.4285e-08
-1.05712e-07
-2.56027e-08
4.73851e-08
-1.03779e-07
-2.19726e-08
3.87891e-08
-1.00328e-07
-1.88347e-08
2.93031e-08
-9.48471e-08
-1.61392e-08
1.97475e-08
-8.65933e-08
-1.3725e-08
1.09424e-08
-7.43797e-08
-1.12791e-08
3.82508e-09
-5.60592e-08
-8.27559e-09
-2.68741e-08
-3.82083e-09
-3.71702e-09
-1.94966e-08
-3.72197e-09
-1.07181e-08
-4.12353e-08
-7.99177e-09
-1.94758e-08
-5.50606e-08
-1.08267e-08
-2.90813e-08
-6.42329e-08
-1.31068e-08
-3.87061e-08
-7.02975e-08
-1.53495e-08
-4.75116e-08
-7.41414e-08
-1.78612e-08
-5.46689e-08
-7.63446e-08
-2.07969e-08
-5.93997e-08
-7.73185e-08
-2.41974e-08
-6.10587e-08
-7.73664e-08
-2.80066e-08
-5.91839e-08
-7.67526e-08
-3.20833e-08
-5.35799e-08
-7.57135e-08
-3.61997e-08
-4.43711e-08
-7.44862e-08
-4.00684e-08
-3.20334e-08
-7.33011e-08
-4.33625e-08
-1.73711e-08
-7.23604e-08
-4.57793e-08
-1.4584e-09
-7.18233e-08
-4.70657e-08
1.44894e-08
-7.17754e-08
-4.70872e-08
2.92546e-08
-7.22194e-08
-4.58425e-08
4.1758e-08
-7.30766e-08
-4.34634e-08
5.11843e-08
-7.41896e-08
-4.01997e-08
5.70458e-08
-7.53596e-08
-3.63568e-08
5.9208e-08
-7.63589e-08
-3.2259e-08
5.78533e-08
-7.69537e-08
-2.81913e-08
5.34261e-08
-7.69021e-08
-2.43829e-08
4.65673e-08
-7.59446e-08
-2.09753e-08
3.80372e-08
-7.37725e-08
-1.80256e-08
2.86557e-08
-6.99743e-08
-1.54913e-08
1.92506e-08
-6.39704e-08
-1.32179e-08
1.06349e-08
-5.48668e-08
-1.08972e-08
3.70937e-09
-4.11184e-08
-8.01522e-09
-1.94578e-08
-3.70692e-09
-3.41746e-09
-1.26579e-08
-3.42129e-09
-9.91403e-09
-2.74064e-08
-7.33231e-09
-1.81381e-08
-3.69412e-08
-9.89544e-09
-2.72571e-08
-4.31847e-08
-1.19292e-08
-3.64715e-08
-4.71601e-08
-1.3923e-08
-4.49503e-08
-4.94944e-08
-1.61682e-08
-5.18665e-08
-5.06177e-08
-1.88107e-08
-5.64598e-08
-5.08393e-08
-2.18859e-08
-5.80941e-08
-5.03962e-08
-2.53359e-08
-5.63321e-08
-4.94902e-08
-2.90245e-08
-5.09954e-08
-4.83099e-08
-3.27403e-08
-4.22163e-08
-4.70447e-08
-3.62206e-08
-3.04567e-08
-4.58811e-08
-3.91796e-08
-1.64889e-08
-4.49831e-08
-4.1345e-08
-1.33519e-09
-4.44821e-08
-4.24948e-08
1.38501e-08
-4.44477e-08
-4.2513e-08
2.79111e-08
-4.48817e-08
-4.13987e-08
3.98203e-08
-4.57183e-08
-3.92676e-08
4.87979e-08
-4.68301e-08
-3.6337e-08
5.43695e-08
-4.8054e-08
-3.28772e-08
5.63946e-08
-4.9207e-08
-2.91769e-08
5.50364e-08
-5.00983e-08
-2.54972e-08
5.07247e-08
-5.05413e-08
-2.20491e-08
4.40806e-08
-5.03314e-08
-1.8969e-08
3.58555e-08
-4.92326e-08
-1.63149e-08
2.68657e-08
-4.69339e-08
-1.40505e-08
1.79298e-08
-4.30045e-08
-1.20299e-08
9.83699e-09
-3.68138e-08
-9.96026e-09
3.40917e-09
-2.73354e-08
-7.35517e-09