/*--------------------------------*- C++ -*----------------------------------*\
| =========                 |                                                 |
| \\      /  F ield         | OpenFOAM: The Open Source CFD Toolbox           |
|  \\    /   O peration     | Version:  v1906                                 |
|   \\  /    A nd           | Web:      www.OpenFOAM.com                      |
|    \\/     M anipulation  |                                                 |
\*---------------------------------------------------------------------------*/
FoamFile
{
    version     2.0;
    format      ascii;
    class       surfaceScalarField;
    location    "82/oil";
    object      phi;
}
// * * * * * * * * * * * * * * * * * * * * * * * * * * * * * * * * * * * * * //

dimensions      [1 0 -1 0 0 0 0];
oriented        oriented;


internalField   nonuniform List<scalar> 
80688
(
-2.09748e-06
-2.13268e-06
-2.09748e-06
-9.46149e-07
-5.95393e-07
-5.55943e-07
-2.53619e-07
-3.48818e-07
-3.43712e-07
-1.18536e-07
-6.81053e-08
-6.69775e-08
-3.79248e-08
-4.06131e-08
-3.99978e-08
2.78216e-09
-2.03698e-08
-2.03371e-08
2.56619e-08
-1.11416e-08
-1.17381e-08
3.85677e-08
-5.91511e-09
-6.99063e-09
4.48385e-08
-2.46421e-09
-3.80656e-09
4.59129e-08
1.52108e-10
-1.2265e-09
4.25543e-08
2.32954e-09
1.02915e-09
3.54231e-08
4.13212e-09
2.99907e-09
2.52456e-08
5.5528e-09
4.62471e-09
1.29009e-08
6.54955e-09
5.79513e-09
-5.94189e-10
7.07544e-09
6.41968e-09
-1.41532e-08
7.10685e-09
6.45216e-09
-2.67041e-08
6.65112e-09
5.89983e-09
-3.72804e-08
5.7497e-09
4.82663e-09
-4.51093e-08
4.47779e-09
3.35103e-09
-4.96727e-08
2.93141e-09
1.63208e-09
-5.0756e-08
1.2234e-09
-1.40095e-10
-4.84288e-08
-5.19161e-10
-1.80807e-09
-4.311e-08
-2.15813e-09
-3.16064e-09
-3.54727e-08
-3.60267e-09
-4.03461e-09
-2.64405e-08
-4.71326e-09
-4.31893e-09
-1.71357e-08
-5.3368e-09
-3.96801e-09
-8.80759e-09
-5.27754e-09
-3.05055e-09
-2.70038e-09
-4.29948e-09
-1.80772e-09
2.34771e-10
-2.19524e-09
-7.39899e-10
4.65249e-10
-2.30468e-10
-5.63492e-07
-1.00571e-06
-5.63485e-07
-3.32905e-07
-3.75424e-07
-4.50556e-07
-2.29403e-07
-2.61132e-07
-1.91188e-07
-9.69878e-08
-1.25402e-07
-7.51189e-08
-1.6952e-08
-8.42362e-08
-3.64127e-08
3.34995e-08
-5.81697e-08
-1.26515e-08
6.64059e-08
-4.42773e-08
2.29285e-10
8.66477e-08
-3.47295e-08
8.57262e-09
9.65115e-08
-2.72654e-08
1.49374e-08
9.70926e-08
-2.08082e-08
2.03792e-08
8.92378e-08
-1.50637e-08
2.5248e-08
7.39353e-08
-1.00828e-08
2.95174e-08
5.25339e-08
-6.04912e-09
3.30033e-08
2.67675e-08
-3.1851e-09
3.55011e-08
-1.32555e-09
-1.66413e-09
3.68326e-08
-2.95456e-08
-1.57763e-09
3.69045e-08
-5.57169e-08
-2.9083e-09
3.57308e-08
-7.78797e-08
-5.52521e-09
3.34377e-08
-9.44628e-08
-9.19319e-09
3.0254e-08
-1.04414e-07
-1.35918e-08
2.64746e-08
-1.07291e-07
-1.83494e-08
2.24496e-08
-1.03281e-07
-2.30557e-08
1.85269e-08
-9.3175e-08
-2.72943e-08
1.50299e-08
-7.83305e-08
-3.06437e-08
1.21966e-08
-6.05573e-08
-3.26597e-08
1.01732e-08
-4.19854e-08
-3.28529e-08
8.94423e-09
-2.48727e-08
-3.06657e-08
8.27547e-09
-1.1321e-08
-2.54913e-08
7.64022e-09
-2.85733e-09
-1.67989e-08
6.13993e-09
-5.2561e-09
2.86403e-09
-3.48482e-07
-3.0875e-07
-3.48473e-07
-2.24713e-07
-3.07026e-07
-1.92168e-07
-1.35985e-07
-2.36245e-07
-1.13615e-07
-4.62405e-08
-1.65437e-07
-4.97084e-08
1.89303e-08
-1.33654e-07
-1.57528e-08
6.72031e-08
-1.11971e-07
5.52862e-09
1.01481e-07
-9.74801e-08
1.8925e-08
1.23454e-07
-8.54293e-08
2.87266e-08
1.33793e-07
-7.44174e-08
3.68131e-08
1.32873e-07
-6.39119e-08
4.40238e-08
1.21285e-07
-5.40348e-08
5.05589e-08
1.00088e-07
-4.51973e-08
5.63115e-08
7.09522e-08
-3.79198e-08
6.10066e-08
3.61003e-08
-3.27003e-08
6.43671e-08
-1.79877e-09
-2.99195e-08
6.61545e-08
-3.9853e-08
-2.97726e-08
6.62491e-08
-7.51946e-08
-3.22338e-08
6.46672e-08
-1.05235e-07
-3.7051e-08
6.15664e-08
-1.27907e-07
-4.37605e-08
5.72391e-08
-1.4182e-07
-5.17366e-08
5.20581e-08
-1.46396e-07
-6.02366e-08
4.64628e-08
-1.41866e-07
-6.84517e-08
4.08665e-08
-1.29268e-07
-7.5548e-08
3.56552e-08
-1.10321e-07
-8.06792e-08
3.10888e-08
-8.72975e-08
-8.29767e-08
2.72936e-08
-6.28176e-08
-8.1522e-08
2.41892e-08
-3.95801e-08
-7.5326e-08
2.14227e-08
-2.00574e-08
-6.3312e-08
1.8298e-08
-6.2203e-09
-4.43349e-08
1.36989e-08
-1.77042e-08
6.22783e-09
-6.24617e-08
-1.83836e-07
-6.24522e-08
-7.42093e-08
-2.27539e-07
-6.77389e-08
-4.08284e-08
-2.24796e-07
-4.48304e-08
1.14879e-08
-2.048e-07
-1.29536e-08
6.05803e-08
-1.91762e-07
9.01508e-09
1.02507e-07
-1.79104e-07
2.52061e-08
1.34712e-07
-1.67046e-07
3.73614e-08
1.55941e-07
-1.5412e-07
4.74616e-08
1.65277e-07
-1.40268e-07
5.65153e-08
1.62288e-07
-1.25867e-07
6.49442e-08
1.47208e-07
-1.11684e-07
7.27286e-08
1.21049e-07
-9.86687e-08
7.96305e-08
8.56468e-08
-8.77992e-08
8.52819e-08
4.35655e-08
-7.99486e-08
8.93297e-08
-2.07886e-09
-7.57557e-08
9.14805e-08
-4.78804e-08
-7.55556e-08
9.15847e-08
-9.04558e-08
-7.93171e-08
8.96587e-08
-1.26753e-07
-8.66437e-08
8.58897e-08
-1.54324e-07
-9.68035e-08
8.06141e-08
-1.71542e-07
-1.08792e-07
7.42731e-08
-1.77713e-07
-1.21424e-07
6.73594e-08
-1.73113e-07
-1.33409e-07
6.03571e-08
-1.58914e-07
-1.43424e-07
5.36772e-08
-1.37075e-07
-1.50117e-07
4.75985e-08
-1.10139e-07
-1.52142e-07
4.22293e-08
-8.10047e-08
-1.48098e-07
3.74419e-08
-5.2653e-08
-1.36487e-07
3.28089e-08
-2.78624e-08
-1.15619e-07
2.75169e-08
-9.17741e-09
-8.32888e-08
2.02689e-08
-3.6067e-08
9.18542e-09
-2.74291e-08
-1.28988e-07
-2.74187e-08
-2.06277e-08
-2.12299e-07
-2.20416e-08
9.68715e-09
-2.49251e-07
-5.86011e-09
5.22495e-08
-2.60813e-07
1.34509e-08
9.5452e-08
-2.64082e-07
2.91182e-08
1.34399e-07
-2.60248e-07
4.21977e-08
1.65337e-07
-2.51428e-07
5.34437e-08
1.85763e-07
-2.38324e-07
6.37771e-08
1.93908e-07
-2.2207e-07
7.36573e-08
1.88815e-07
-2.03958e-07
8.3184e-08
1.70447e-07
-1.85463e-07
9.21465e-08
1.39781e-07
-1.68157e-07
1.00154e-07
9.87771e-08
-1.53546e-07
1.06751e-07
5.02791e-08
-1.42928e-07
1.11477e-07
-2.20981e-09
-1.37254e-07
1.13988e-07
-5.4845e-08
-1.37015e-07
1.14094e-07
-1.03793e-07
-1.42179e-07
1.11809e-07
-1.45599e-07
-1.52189e-07
1.07352e-07
-1.77497e-07
-1.66016e-07
1.0111e-07
-1.97653e-07
-1.82234e-07
9.35979e-08
-2.05287e-07
-1.99173e-07
8.53822e-08
-2.00691e-07
-2.15011e-07
7.70067e-08
-1.85163e-07
-2.27869e-07
6.89162e-08
-1.60832e-07
-2.35873e-07
6.14253e-08
-1.30453e-07
-2.37156e-07
5.46345e-08
-9.71532e-08
-2.29784e-07
4.83862e-08
-6.41608e-08
-2.11674e-07
4.21947e-08
-3.46071e-08
-1.8031e-07
3.51366e-08
-1.16529e-08
-1.31976e-07
2.57331e-08
-5.93814e-08
1.16615e-08
-3.63137e-09
-1.21737e-07
-3.6199e-09
1.30175e-08
-2.35201e-07
6.25344e-09
4.39497e-08
-2.9922e-07
1.90374e-08
8.38015e-08
-3.3336e-07
3.26947e-08
1.25224e-07
-3.50528e-07
4.50236e-08
1.63319e-07
-3.54778e-07
5.64353e-08
1.93955e-07
-3.49407e-07
6.73422e-08
2.13994e-07
-3.36519e-07
7.81561e-08
2.21152e-07
-3.18235e-07
8.90072e-08
2.14111e-07
-2.96678e-07
9.97618e-08
1.92646e-07
-2.74036e-07
1.10037e-07
1.57706e-07
-2.52513e-07
1.19297e-07
1.11374e-07
-2.34175e-07
1.26961e-07
5.67727e-08
-2.20789e-07
1.32462e-07
-2.22688e-09
-2.13631e-07
1.35376e-07
-6.1351e-08
-2.13368e-07
1.35477e-07
-1.16335e-07
-2.19971e-07
1.32776e-07
-1.63331e-07
-2.32716e-07
1.27523e-07
-1.99272e-07
-2.50248e-07
1.20173e-07
-2.22134e-07
-2.70706e-07
1.11334e-07
-2.31064e-07
-2.91908e-07
1.01665e-07
-2.26384e-07
-3.11466e-07
9.17743e-08
-2.09508e-07
-3.26948e-07
8.22047e-08
-1.82735e-07
-3.35929e-07
7.32824e-08
-1.49027e-07
-3.35986e-07
6.51229e-08
-1.1174e-07
-3.24618e-07
5.75475e-08
-7.43858e-08
-2.99047e-07
5.00192e-08
-4.04634e-08
-2.55737e-07
4.15052e-08
-1.37386e-08
-1.89024e-07
3.03234e-08
-8.68679e-08
1.37479e-08
7.26694e-09
-1.36283e-07
7.27955e-09
3.10677e-08
-2.80683e-07
2.16815e-08
6.59405e-08
-3.6851e-07
3.44171e-08
1.07459e-07
-4.21188e-07
4.63101e-08
1.50088e-07
-4.50593e-07
5.7435e-08
1.89215e-07
-4.623e-07
6.8395e-08
2.20646e-07
-4.6044e-07
7.96026e-08
2.40942e-07
-4.48101e-07
9.12862e-08
2.47522e-07
-4.28214e-07
1.03399e-07
2.38811e-07
-4.03609e-07
1.15642e-07
2.14453e-07
-3.77158e-07
1.27481e-07
1.75392e-07
-3.51683e-07
1.3823e-07
1.23865e-07
-3.29806e-07
1.47158e-07
6.3258e-08
-3.13765e-07
1.53583e-07
-2.16354e-09
-3.0519e-07
1.5698e-07
-6.76855e-08
-3.04917e-07
1.57072e-07
-1.28599e-07
-3.12925e-07
1.53867e-07
-1.80654e-07
-3.28321e-07
1.47661e-07
-2.20482e-07
-3.4942e-07
1.39e-07
-2.45871e-07
-3.73911e-07
1.28595e-07
-2.55912e-07
-3.99088e-07
1.1722e-07
-2.50978e-07
-4.22015e-07
1.05615e-07
-2.32621e-07
-4.39693e-07
9.43882e-08
-2.03326e-07
-4.49149e-07
8.39242e-08
-1.66284e-07
-4.47391e-07
7.43628e-08
-1.25104e-07
-4.31303e-07
6.55052e-08
-8.35979e-08
-3.97312e-07
5.67588e-08
-4.56442e-08
-3.40675e-07
4.69841e-08
-1.55465e-08
-2.53412e-07
3.42904e-08
-1.17971e-07
1.55568e-08
1.30595e-08
-1.62416e-07
1.30733e-08
4.23585e-08
-3.41001e-07
3.10187e-08
8.15343e-08
-4.52338e-07
4.46522e-08
1.26146e-07
-5.22171e-07
5.63712e-08
1.71315e-07
-5.6318e-07
6.74182e-08
2.12517e-07
-5.82204e-07
7.87023e-08
2.45484e-07
-5.84135e-07
9.07274e-08
2.66593e-07
-5.7288e-07
1.03671e-07
2.72991e-07
-5.51993e-07
1.17381e-07
2.62928e-07
-5.24963e-07
1.31418e-07
2.35914e-07
-4.95258e-07
1.45114e-07
1.92907e-07
-4.66311e-07
1.57635e-07
1.36287e-07
-4.41266e-07
1.6808e-07
6.97491e-08
-4.22829e-07
1.75602e-07
-2.04842e-09
-4.1296e-07
1.79568e-07
-7.39241e-08
-4.12691e-07
1.7965e-07
-1.40699e-07
-4.22001e-07
1.75852e-07
-1.97711e-07
-4.39825e-07
1.68516e-07
-2.41277e-07
-4.64144e-07
1.5829e-07
-2.69008e-07
-4.92222e-07
1.46042e-07
-2.79961e-07
-5.20831e-07
1.32696e-07
-2.74594e-07
-5.465e-07
1.19118e-07
-2.54606e-07
-5.65689e-07
1.06008e-07
-2.22707e-07
-5.74884e-07
9.38365e-08
-1.8234e-07
-5.70537e-07
8.27788e-08
-1.37387e-07
-5.48881e-07
7.26252e-08
-9.19537e-08
-5.05465e-07
6.27194e-08
-5.02839e-08
-4.34149e-07
5.18046e-08
-1.71506e-08
-3.2433e-07
3.77842e-08
-1.52284e-07
1.71621e-08
1.64515e-08
-1.95334e-07
1.64661e-08
4.99111e-08
-4.11562e-07
3.71019e-08
9.30791e-08
-5.47375e-07
5.1869e-08
1.41147e-07
-6.34322e-07
6.40833e-08
1.89375e-07
-6.87056e-07
7.56483e-08
2.33161e-07
-7.13737e-07
8.77469e-08
2.68129e-07
-7.20079e-07
1.00976e-07
2.90443e-07
-7.10695e-07
1.155e-07
2.97044e-07
-6.8972e-07
1.31126e-07
2.85954e-07
-6.61165e-07
1.47292e-07
2.56602e-07
-6.29076e-07
1.6317e-07
2.09909e-07
-5.97373e-07
1.77754e-07
1.48414e-07
-5.69711e-07
1.89941e-07
7.61128e-08
-5.49249e-07
1.98722e-07
-1.90615e-09
-5.38294e-07
2.03352e-07
-7.99816e-08
-5.38037e-07
2.03421e-07
-1.52447e-07
-5.48467e-07
1.98931e-07
-2.14219e-07
-5.68346e-07
1.90293e-07
-2.61299e-07
-5.95353e-07
1.78289e-07
-2.91137e-07
-6.2631e-07
1.63926e-07
-3.02775e-07
-6.57488e-07
1.48295e-07
-2.96783e-07
-6.84951e-07
1.32458e-07
-2.75048e-07
-7.04664e-07
1.1724e-07
-2.40542e-07
-7.12594e-07
1.03204e-07
-1.96959e-07
-7.04656e-07
9.05365e-08
-1.48453e-07
-6.76417e-07
7.90291e-08
-9.94128e-08
-6.22505e-07
6.80007e-08
-5.43968e-08
-5.35212e-07
5.6047e-08
-1.85674e-08
-4.01011e-07
4.08522e-08
-1.89431e-07
1.85801e-08
1.86237e-08
-2.32597e-07
1.8639e-08
5.52298e-08
-4.89435e-07
4.12663e-08
1.01768e-07
-6.5098e-07
5.70665e-08
1.5306e-07
-7.55612e-07
6.99977e-08
2.04268e-07
-8.2064e-07
8.23762e-08
2.50688e-07
-8.55726e-07
9.55694e-08
2.8782e-07
-8.67489e-07
1.10277e-07
3.11571e-07
-8.61121e-07
1.26676e-07
3.18684e-07
-8.4132e-07
1.44486e-07
3.06972e-07
-8.12531e-07
1.63077e-07
2.75671e-07
-7.79218e-07
1.81443e-07
2.25707e-07
-7.45774e-07
1.98366e-07
1.59752e-07
-7.16305e-07
2.12549e-07
8.2094e-08
-6.94383e-07
2.22791e-07
-1.75571e-09
-6.8261e-07
2.28166e-07
-8.56438e-08
-6.82371e-07
2.28222e-07
-1.63416e-07
-6.93659e-07
2.22964e-07
-2.29554e-07
-7.15058e-07
2.1285e-07
-2.79755e-07
-7.43946e-07
1.98795e-07
-3.11351e-07
-7.76744e-07
1.8203e-07
-3.2339e-07
-8.09317e-07
1.63868e-07
-3.16595e-07
-8.37261e-07
1.45516e-07
-2.93093e-07
-8.56129e-07
1.27962e-07
-2.5609e-07
-8.61466e-07
1.1187e-07
-2.09552e-07
-8.48683e-07
9.74892e-08
-1.57881e-07
-8.12709e-07
8.46213e-08
-1.05729e-07
-7.47141e-07
7.24831e-08
-5.78723e-08
-6.42648e-07
5.95788e-08
-1.977e-08
-4.82534e-07
4.34205e-08
-2.28985e-07
1.97836e-08
2.00316e-08
-2.72674e-07
2.00463e-08
5.88555e-08
-5.723e-07
4.40412e-08
1.07895e-07
-7.60687e-07
6.06676e-08
1.61723e-07
-8.83745e-07
7.43052e-08
2.1542e-07
-9.61888e-07
8.75524e-08
2.64176e-07
-1.00645e-06
1.01968e-07
3.03318e-07
-1.02495e-06
1.18321e-07
3.28592e-07
-1.02317e-06
1.36779e-07
3.36483e-07
-1.00623e-06
1.57016e-07
3.24559e-07
-9.7889e-07
1.78283e-07
2.91883e-07
-9.45937e-07
1.99395e-07
2.39318e-07
-9.12143e-07
2.18933e-07
1.69614e-07
-8.81951e-07
2.3535e-07
8.73319e-08
-8.59317e-07
2.47217e-07
-1.61216e-09
-8.47099e-07
2.53433e-07
-9.05782e-08
-8.46881e-07
2.53476e-07
-1.7293e-07
-8.58642e-07
2.47335e-07
-2.42727e-07
-8.80829e-07
2.35569e-07
-2.95429e-07
-9.10516e-07
2.19271e-07
-3.28268e-07
-9.43769e-07
1.99864e-07
-3.40331e-07
-9.76132e-07
1.78878e-07
-3.32567e-07
-1.0028e-06
1.57773e-07
-3.07356e-07
-1.01906e-06
1.3772e-07
-2.68151e-07
-1.02013e-06
1.19455e-07
-2.1916e-07
-1.00097e-06
1.03297e-07
-1.64997e-07
-9.5592e-07
8.90488e-08
-1.10447e-07
-8.7759e-07
7.58997e-08
-6.04627e-08
-7.54856e-07
6.22239e-08
-2.0682e-08
-5.6764e-07
4.53251e-08
-2.70363e-07
2.06963e-08
2.0786e-08
-3.14261e-07
2.08006e-08
6.08041e-08
-6.57804e-07
4.54855e-08
1.11231e-07
-8.73689e-07
6.25745e-08
1.66539e-07
-1.01582e-06
7.67682e-08
2.21818e-07
-1.10803e-06
9.08625e-08
2.72192e-07
-1.16333e-06
1.06508e-07
3.12919e-07
-1.1902e-06
1.24522e-07
3.39609e-07
-1.19499e-06
1.45121e-07
3.4847e-07
-1.183e-06
1.67914e-07
3.36863e-07
-1.15932e-06
1.92039e-07
3.03623e-07
-1.12885e-06
2.16148e-07
2.49422e-07
-1.09652e-06
2.38579e-07
1.77094e-07
-1.06712e-06
2.57496e-07
9.13556e-08
-1.04478e-06
2.71201e-07
-1.4826e-09
-1.03265e-06
2.78391e-07
-9.43309e-08
-1.03246e-06
2.78425e-07
-1.80089e-07
-1.04419e-06
2.71308e-07
-2.52481e-07
-1.06611e-06
2.57677e-07
-3.06723e-07
-1.0951e-06
2.38823e-07
-3.40014e-07
-1.12695e-06
2.16476e-07
-3.51664e-07
-1.15694e-06
1.92454e-07
-3.42789e-07
-1.18013e-06
1.68455e-07
-3.16046e-07
-1.1916e-06
1.45797e-07
-2.75159e-07
-1.18634e-06
1.25326e-07
-2.24506e-07
-1.15905e-06
1.07428e-07
-1.688e-07
-1.1035e-06
9.1873e-08
-1.12922e-07
-1.01128e-06
7.78133e-08
-6.1836e-08
-8.69504e-07
6.35624e-08
-2.11725e-08
-6.54581e-07
4.62773e-08
-3.12723e-07
2.1187e-08
2.0858e-08
-3.55993e-07
2.08742e-08
6.0855e-08
-7.43293e-07
4.54925e-08
1.11196e-07
-9.8661e-07
6.25795e-08
1.66519e-07
-1.14816e-06
7.70146e-08
2.2199e-07
-1.25522e-06
9.1719e-08
2.72876e-07
-1.32265e-06
1.08427e-07
3.14452e-07
-1.35975e-06
1.27974e-07
3.4222e-07
-1.37337e-06
1.50622e-07
3.52238e-07
-1.36898e-06
1.75959e-07
3.41573e-07
-1.35168e-06
2.03019e-07
3.08782e-07
-1.32636e-06
2.30303e-07
2.54354e-07
-1.29793e-06
2.55839e-07
1.81004e-07
-1.27126e-06
2.77492e-07
9.35602e-08
-1.25059e-06
2.93251e-07
-1.37415e-09
-1.23926e-06
3.01546e-07
-9.63092e-08
-1.23909e-06
3.01566e-07
-1.8376e-07
-1.25005e-06
2.93313e-07
-2.57105e-07
-1.27037e-06
2.77599e-07
-3.115e-07
-1.29668e-06
2.55983e-07
-3.44267e-07
-1.3247e-06
2.30515e-07
-3.54894e-07
-1.34964e-06
2.03331e-07
-3.44805e-07
-1.36658e-06
1.76366e-07
-3.16912e-07
-1.37059e-06
1.51097e-07
-2.75148e-07
-1.35664e-06
1.28536e-07
-2.23959e-07
-1.31929e-06
1.09043e-07
-1.6811e-07
-1.25174e-06
9.2392e-08
-1.12355e-07
-1.14475e-06
7.77081e-08
-6.15091e-08
-9.83571e-07
6.32212e-08
-2.10999e-08
-7.40986e-07
4.59959e-08
-3.54937e-07
2.11146e-08
2.01231e-08
-3.96246e-07
2.01299e-08
5.85757e-08
-8.25479e-07
4.37335e-08
1.07011e-07
-1.09523e-06
6.01901e-08
1.6039e-07
-1.27597e-06
7.44381e-08
2.14257e-07
-1.39847e-06
8.93791e-08
2.64107e-07
-1.47927e-06
1.06771e-07
3.05385e-07
-1.52858e-06
1.27547e-07
3.33635e-07
-1.55356e-06
1.51936e-07
3.44838e-07
-1.55975e-06
1.79566e-07
3.3582e-07
-1.55204e-06
2.0938e-07
3.04826e-07
-1.53509e-06
2.39726e-07
2.52028e-07
-1.51359e-06
2.68459e-07
1.79875e-07
-1.49219e-06
2.93087e-07
9.31931e-08
-1.47505e-06
3.11147e-07
-1.2857e-09
-1.46549e-06
3.20704e-07
-9.57559e-08
-1.46533e-06
3.20714e-07
-1.82402e-07
-1.47459e-06
3.1118e-07
-2.54512e-07
-1.4914e-06
2.93145e-07
-3.0726e-07
-1.51251e-06
2.6857e-07
-3.38186e-07
-1.53366e-06
2.39887e-07
-3.47095e-07
-1.55029e-06
2.09554e-07
-3.35765e-07
-1.55773e-06
1.79812e-07
-3.07341e-07
-1.55128e-06
1.52262e-07
-2.65849e-07
-1.52606e-06
1.27931e-07
-2.15742e-07
-1.47661e-06
1.07219e-07
-1.61569e-07
-1.39578e-06
8.98621e-08
-1.07818e-07
-1.2734e-06
7.49028e-08
-5.90248e-08
-1.09298e-06
6.06161e-08
-2.02712e-08
-8.23801e-07
4.40618e-08
-3.95494e-07
2.02852e-08
1.84179e-08
-4.3309e-07
1.84258e-08
5.35008e-08
-9.00442e-07
3.98803e-08
9.78086e-08
-1.19452e-06
5.49793e-08
1.46872e-07
-1.39346e-06
6.84251e-08
1.96783e-07
-1.53141e-06
8.3029e-08
2.43525e-07
-1.62653e-06
1.00516e-07
2.82915e-07
-1.68979e-06
1.21819e-07
3.10719e-07
-1.72857e-06
1.47208e-07
3.22975e-07
-1.74837e-06
1.76367e-07
3.16318e-07
-1.75369e-06
2.08309e-07
2.88663e-07
-1.74872e-06
2.41283e-07
2.39822e-07
-1.73764e-06
2.72891e-07
1.71839e-07
-1.72448e-06
3.00273e-07
8.92662e-08
-1.71309e-06
3.20614e-07
-1.21756e-09
-1.70647e-06
3.31469e-07
-9.16851e-08
-1.70634e-06
3.3147e-07
-1.74218e-07
-1.71268e-06
3.20622e-07
-2.4213e-07
-1.72378e-06
3.00291e-07
-2.90883e-07
-1.73666e-06
2.72908e-07
-3.18398e-07
-1.74748e-06
2.41337e-07
-3.24892e-07
-1.75223e-06
2.08439e-07
-3.12495e-07
-1.74668e-06
1.76553e-07
-2.84517e-07
-1.72667e-06
1.47416e-07
-2.44887e-07
-1.68776e-06
1.22072e-07
-1.97909e-07
-1.62439e-06
1.00805e-07
-1.47714e-07
-1.52931e-06
8.33393e-08
-9.83871e-08
-1.39146e-06
6.87329e-08
-5.38259e-08
-1.1928e-06
5.5261e-08
-1.85172e-08
-8.99208e-07
4.00986e-08
-4.32541e-07
1.85305e-08
1.55993e-08
-4.64293e-07
1.56042e-08
4.5266e-08
-9.63735e-07
3.3626e-08
8.27975e-08
-1.27852e-06
4.64664e-08
1.24719e-07
-1.49373e-06
5.8346e-08
1.67873e-07
-1.64637e-06
7.18107e-08
2.08956e-07
-1.75607e-06
8.8461e-08
2.44394e-07
-1.83443e-06
1.09208e-07
2.70404e-07
-1.88901e-06
1.34428e-07
2.83225e-07
-1.92505e-06
1.63854e-07
2.79526e-07
-1.94653e-06
1.9654e-07
2.56996e-07
-1.95695e-06
2.30761e-07
2.14898e-07
-1.95966e-06
2.64116e-07
1.54771e-07
-1.95784e-06
2.93484e-07
8.06539e-08
-1.95455e-06
3.1557e-07
-1.16376e-09
-1.95214e-06
3.27479e-07
-8.29582e-08
-1.95202e-06
3.27475e-07
-1.57012e-07
-1.95419e-06
3.15563e-07
-2.17033e-07
-1.95724e-06
2.93478e-07
-2.59025e-07
-1.95881e-06
2.64139e-07
-2.81415e-07
-1.95591e-06
2.30813e-07
-2.84977e-07
-1.94526e-06
1.96594e-07
-2.71974e-07
-1.92362e-06
1.63943e-07
-2.4574e-07
-1.88746e-06
1.34551e-07
-2.10113e-07
-1.83275e-06
1.09364e-07
-1.68786e-07
-1.75436e-06
8.86438e-08
-1.25404e-07
-1.6447e-06
7.20113e-08
-8.3226e-08
-1.49218e-06
5.85483e-08
-4.54704e-08
-1.27721e-06
4.66533e-08
-1.5665e-08
-9.62788e-07
3.37738e-08
-4.63884e-07
1.56774e-08
1.15668e-08
-4.87434e-07
1.15741e-08
3.35082e-08
-1.01045e-06
2.47696e-08
6.14992e-08
-1.3409e-06
3.43861e-08
9.31631e-08
-1.5692e-06
4.38062e-08
1.2644e-07
-1.73477e-06
5.51241e-08
1.58905e-07
-1.85826e-06
6.97291e-08
1.87873e-07
-1.9518e-06
8.84054e-08
2.10271e-07
-2.02297e-06
1.11562e-07
2.22841e-07
-2.07669e-06
1.39078e-07
2.22462e-07
-2.11636e-06
1.70204e-07
2.06701e-07
-2.14458e-06
2.03388e-07
1.74437e-07
-2.1636e-06
2.36202e-07
1.26522e-07
-2.17544e-06
2.65515e-07
6.61736e-08
-2.18206e-06
2.87858e-07
-1.12198e-09
-2.18484e-06
2.99998e-07
-6.83957e-08
-2.18476e-06
3.00016e-07
-1.28691e-07
-2.18175e-06
2.87862e-07
-1.76482e-07
-2.17493e-06
2.65485e-07
-2.08603e-07
-2.16286e-06
2.36172e-07
-2.24203e-07
-2.14368e-06
2.03372e-07
-2.244e-07
-2.11527e-06
1.70205e-07
-2.11638e-07
-2.07549e-06
1.39103e-07
-1.89035e-07
-2.02167e-06
1.11616e-07
-1.59857e-07
-1.95042e-06
8.84863e-08
-1.27163e-07
-1.85689e-06
6.98328e-08
-9.36877e-08
-1.73342e-06
5.52435e-08
-6.18249e-08
-1.56798e-06
4.39318e-08
-3.36669e-08
-1.33987e-06
3.45051e-08
-1.16158e-08
-1.00971e-06
2.48681e-08
-4.87127e-07
1.16273e-08
6.32147e-09
-5.00072e-07
6.31653e-09
1.82856e-08
-1.03572e-06
1.3315e-08
3.38884e-08
-1.37518e-06
1.86813e-08
5.21922e-08
-1.6122e-06
2.46956e-08
7.22903e-08
-1.7876e-06
3.2731e-08
9.30254e-08
-1.92279e-06
4.37909e-08
1.12752e-07
-2.03012e-06
5.85901e-08
1.2943e-07
-2.11708e-06
7.74321e-08
1.40579e-07
-2.18817e-06
1.00331e-07
1.43558e-07
-2.24608e-06
1.26741e-07
1.36123e-07
-2.29252e-06
1.55375e-07
1.16797e-07
-2.3285e-06
1.84224e-07
8.57766e-08
-2.35481e-06
2.1039e-07
4.50998e-08
-2.372e-06
2.30618e-07
-1.08842e-09
-2.38043e-06
2.4178e-07
-4.72505e-08
-2.38036e-06
2.41768e-07
-8.78559e-08
-2.37173e-06
2.30582e-07
-1.18755e-07
-2.35437e-06
2.10338e-07
-1.37916e-07
-2.32789e-06
1.84196e-07
-1.45193e-07
-2.29175e-06
1.55345e-07
-1.42004e-07
-2.24516e-06
1.26699e-07
-1.30655e-07
-2.18714e-06
1.00308e-07
-1.13785e-07
-2.11598e-06
7.74336e-08
-9.38347e-08
-2.02898e-06
5.86141e-08
-7.29245e-08
-1.92163e-06
4.38341e-08
-5.26201e-08
-1.78652e-06
3.27917e-08
-3.4145e-08
-1.61122e-06
2.47668e-08
-1.84223e-08
-1.37435e-06
1.87569e-08
-6.34562e-09
-1.03517e-06
1.33823e-08
-4.99829e-07
6.35647e-09
-2.052e-11
-5.00028e-07
-2.34982e-11
-2.15287e-11
-1.03529e-06
-4.31763e-10
6.56444e-10
-1.37567e-06
-1.87931e-10
2.73985e-09
-1.61576e-06
1.47547e-09
6.69776e-09
-1.79666e-06
5.1015e-09
1.27239e-08
-1.93997e-06
1.11496e-08
2.05124e-08
-2.05796e-06
2.00512e-08
2.92725e-08
-2.15795e-06
3.21064e-08
3.76014e-08
-2.24384e-06
4.73407e-08
4.37934e-08
-2.31778e-06
6.55072e-08
4.59109e-08
-2.38043e-06
8.58008e-08
4.24317e-08
-2.43174e-06
1.06718e-07
3.27134e-08
-2.47112e-06
1.26032e-07
1.74604e-08
-2.49793e-06
1.41189e-07
-1.05858e-09
-2.5115e-06
1.49593e-07
-1.95444e-08
-2.51142e-06
1.49543e-07
-3.46953e-08
-2.49769e-06
1.41108e-07
-4.43074e-08
-2.47072e-06
1.25957e-07
-4.76444e-08
-2.43116e-06
1.06601e-07
-4.53401e-08
-2.37973e-06
8.56817e-08
-3.89521e-08
-2.31697e-06
6.54275e-08
-3.04015e-08
-2.24297e-06
4.72777e-08
-2.14505e-08
-2.15699e-06
3.20614e-08
-1.34435e-08
-2.05702e-06
2.00286e-08
-7.22337e-09
-1.939e-06
1.11478e-08
-3.10276e-09
-1.79575e-06
5.11576e-09
-8.66495e-10
-1.61496e-06
1.50573e-09
-5.1083e-11
-1.37502e-06
-1.46225e-10
1.98305e-12
-1.03483e-06
-3.87334e-10
-4.99835e-07
8.44839e-12
-7.19152e-09
-4.85643e-07
-7.19369e-09
-2.06621e-08
-1.00588e-06
-1.59441e-08
-3.67452e-08
-1.33808e-06
-2.15104e-08
-5.30335e-08
-1.57458e-06
-2.48935e-08
-6.75121e-08
-1.7556e-06
-2.65763e-08
-7.85618e-08
-1.90214e-06
-2.67815e-08
-8.49108e-08
-2.02614e-06
-2.54675e-08
-8.59507e-08
-2.13445e-06
-2.24586e-08
-8.16365e-08
-2.2306e-06
-1.75616e-08
-7.26254e-08
-2.31604e-06
-1.07447e-08
-6.01298e-08
-2.39062e-06
-2.30626e-09
-4.56141e-08
-2.45332e-06
7.06986e-09
-3.04478e-08
-2.50253e-06
1.62437e-08
-1.5526e-08
-2.53661e-06
2.37549e-08
-1.02255e-09
-2.55406e-06
2.80518e-08
1.35065e-08
-2.55398e-06
2.80282e-08
2.84934e-08
-2.53637e-06
2.36945e-08
4.38093e-08
-2.50219e-06
1.61546e-08
5.84829e-08
-2.45279e-06
6.96288e-09
7.11635e-08
-2.39e-06
-2.41627e-09
8.03719e-08
-2.31533e-06
-1.085e-08
8.48758e-08
-2.22982e-06
-1.76538e-08
8.40556e-08
-2.13364e-06
-2.25336e-08
7.78889e-08
-2.02533e-06
-2.55228e-08
6.70274e-08
-1.90133e-06
-2.68162e-08
5.27285e-08
-1.75486e-06
-2.6592e-08
3.65807e-08
-1.57392e-06
-2.4891e-08
2.05818e-08
-1.33753e-06
-2.14929e-08
7.17902e-09
-1.00551e-06
-1.59158e-08
-4.85488e-07
-7.16832e-09
-1.4742e-08
-4.56155e-07
-1.47458e-08
-4.23642e-08
-9.4604e-07
-3.22154e-08
-7.61352e-08
-1.26043e-06
-4.38773e-08
-1.11845e-07
-1.48614e-06
-5.27258e-08
-1.46011e-07
-1.66106e-06
-6.03785e-08
-1.7547e-07
-1.80498e-06
-6.76922e-08
-1.97369e-07
-1.92919e-06
-7.5054e-08
-2.09438e-07
-2.0399e-06
-8.24779e-08
-2.10068e-07
-2.14026e-06
-8.97067e-08
-1.98618e-07
-2.23105e-06
-9.64405e-08
-1.75384e-07
-2.31161e-06
-1.02249e-07
-1.41684e-07
-2.38024e-06
-1.06784e-07
-9.95766e-08
-2.43467e-06
-1.09971e-07
-5.17261e-08
-2.47262e-06
-1.11838e-07
-9.80477e-10
-2.49213e-06
-1.12671e-07
4.9798e-08
-2.49206e-06
-1.12694e-07
9.77382e-08
-2.47244e-06
-1.1187e-07
1.39945e-07
-2.43436e-06
-1.10034e-07
1.73805e-07
-2.37976e-06
-1.06895e-07
1.9722e-07
-2.31104e-06
-1.02368e-07
2.08864e-07
-2.23042e-06
-9.65589e-08
2.08417e-07
-2.13956e-06
-8.98151e-08
1.96565e-07
-2.03921e-06
-8.25703e-08
1.74843e-07
-1.92848e-06
-7.51306e-08
1.45576e-07
-1.80431e-06
-6.77482e-08
1.11558e-07
-1.66043e-06
-6.0414e-08
7.59808e-08
-1.4856e-06
-5.27424e-08
4.23134e-08
-1.25999e-06
-4.38746e-08
1.47345e-08
-9.45738e-07
-3.21959e-08
-4.5603e-07
-1.4723e-08
-2.21392e-08
-4.11874e-07
-2.21416e-08
-6.35854e-08
-8.56494e-07
-4.80997e-08
-1.14634e-07
-1.14362e-06
-6.57623e-08
-1.6949e-07
-1.35126e-06
-8.00261e-08
-2.23226e-07
-1.51367e-06
-9.36566e-08
-2.71143e-07
-1.64879e-06
-1.08274e-07
-3.08843e-07
-1.76683e-06
-1.24658e-07
-3.32315e-07
-1.87345e-06
-1.42976e-07
-3.3837e-07
-1.97121e-06
-1.62993e-07
-3.24901e-07
-2.06057e-06
-1.83952e-07
-2.91266e-07
-2.14052e-06
-2.04722e-07
-2.38514e-07
-2.20899e-06
-2.23999e-07
-1.69382e-07
-2.26356e-06
-2.40242e-07
-8.83028e-08
-2.30169e-06
-2.52012e-07
-9.28866e-10
-2.32131e-06
-2.58192e-07
8.64661e-08
-2.32125e-06
-2.58211e-07
1.67619e-07
-2.30149e-06
-2.52099e-07
2.36848e-07
-2.26323e-06
-2.40354e-07
2.89779e-07
-2.20859e-06
-2.24102e-07
3.23567e-07
-2.14e-06
-2.04834e-07
3.37206e-07
-2.05999e-06
-1.84063e-07
3.31355e-07
-1.97061e-06
-1.63101e-07
3.08049e-07
-1.87283e-06
-1.43075e-07
2.70549e-07
-1.76623e-06
-1.24741e-07
2.22793e-07
-1.64821e-06
-1.08341e-07
1.69213e-07
-1.51315e-06
-9.37067e-08
1.14493e-07
-1.35085e-06
-8.00392e-08
6.35237e-08
-1.14327e-06
-6.57533e-08
2.21333e-08
-8.5626e-07
-4.80878e-08
-4.11776e-07
-2.21216e-08
-2.87245e-08
-3.54423e-07
-2.87266e-08
-8.24506e-08
-7.40583e-07
-6.21853e-08
-1.48993e-07
-9.91975e-07
-8.5101e-08
-2.2117e-07
-1.17487e-06
-1.04212e-07
-2.92847e-07
-1.31866e-06
-1.23332e-07
-3.57941e-07
-1.43898e-06
-1.44717e-07
-4.10461e-07
-1.54477e-06
-1.69544e-07
-4.4482e-07
-1.64091e-06
-1.98182e-07
-4.56245e-07
-1.72957e-06
-2.30218e-07
-4.41254e-07
-1.81101e-06
-2.6455e-07
-3.98285e-07
-1.88404e-06
-2.9945e-07
-3.28008e-07
-1.94674e-06
-3.32527e-07
-2.3395e-07
-1.99667e-06
-3.60948e-07
-1.22161e-07
-2.03154e-06
-3.81943e-07
-8.63548e-10
-2.04945e-06
-3.93167e-07
1.20455e-07
-2.04938e-06
-3.93181e-07
2.323e-07
-2.03135e-06
-3.81985e-07
3.26475e-07
-1.99639e-06
-3.61014e-07
3.96832e-07
-1.94634e-06
-3.32609e-07
4.39986e-07
-1.88361e-06
-2.99547e-07
4.55146e-07
-1.8105e-06
-2.64647e-07
4.43909e-07
-1.72905e-06
-2.30318e-07
4.09729e-07
-1.64037e-06
-1.98277e-07
3.57373e-07
-1.54425e-06
-1.69627e-07
2.92458e-07
-1.43851e-06
-1.44787e-07
2.20936e-07
-1.31824e-06
-1.23386e-07
1.48861e-07
-1.17451e-06
-1.04264e-07
8.24042e-08
-9.91684e-07
-8.51256e-08
2.87205e-08
-7.40399e-07
-6.21772e-08
-3.54347e-07
-2.87077e-08
-3.37732e-08
-2.8688e-07
-3.37704e-08
-9.70042e-08
-6.04401e-07
-7.295e-08
-1.75787e-07
-8.13322e-07
-9.98698e-08
-2.61997e-07
-9.65958e-07
-1.22703e-07
-3.48494e-07
-1.086e-06
-1.46158e-07
-4.28021e-07
-1.18641e-06
-1.73048e-07
-4.93242e-07
-1.2747e-06
-2.04843e-07
-5.37134e-07
-1.355e-06
-2.4202e-07
-5.53478e-07
-1.42915e-06
-2.84079e-07
-5.3759e-07
-1.49728e-06
-3.29622e-07
-4.87057e-07
-1.55833e-06
-3.76243e-07
-4.02427e-07
-1.61064e-06
-4.20734e-07
-2.87681e-07
-1.65218e-06
-4.59232e-07
-1.50318e-07
-1.68111e-06
-4.87789e-07
-7.89432e-10
-1.69595e-06
-5.03021e-07
1.48753e-07
-1.6959e-06
-5.03027e-07
2.86164e-07
-1.68095e-06
-4.87811e-07
4.0098e-07
-1.65194e-06
-4.59274e-07
4.85733e-07
-1.61031e-06
-4.20785e-07
5.364e-07
-1.55796e-06
-3.76312e-07
5.52442e-07
-1.49685e-06
-3.29694e-07
5.36248e-07
-1.4287e-06
-2.84157e-07
4.92552e-07
-1.35458e-06
-2.42098e-07
4.27479e-07
-1.27426e-06
-2.04914e-07
3.48112e-07
-1.18603e-06
-1.73113e-07
2.61746e-07
-1.08566e-06
-1.46212e-07
1.75653e-07
-9.65676e-07
-1.22738e-07
9.69647e-08
-8.13111e-07
-9.98839e-08
3.37656e-08
-6.04257e-07
-7.29432e-08
-2.86828e-07
-3.37533e-08
-3.65359e-08
-2.13805e-07
-3.65388e-08
-1.05275e-07
-4.5689e-07
-7.87718e-08
-1.91631e-07
-6.19172e-07
-1.07794e-07
-2.87165e-07
-7.37778e-07
-1.32646e-07
-3.84051e-07
-8.30472e-07
-1.58645e-07
-4.741e-07
-9.07337e-07
-1.8902e-07
-5.48902e-07
-9.74428e-07
-2.25476e-07
-6.00186e-07
-1.03519e-06
-2.68522e-07
-6.20694e-07
-1.09107e-06
-3.17569e-07
-6.04757e-07
-1.14226e-06
-3.70951e-07
-5.49322e-07
-1.18796e-06
-4.25806e-07
-4.54774e-07
-1.22693e-06
-4.78258e-07
-3.25545e-07
-1.25775e-06
-5.23658e-07
-1.70173e-07
-1.27911e-06
-5.57369e-07
-7.05346e-10
-1.29003e-06
-5.75392e-07
1.68774e-07
-1.28999e-06
-5.75391e-07
3.24183e-07
-1.27899e-06
-5.57373e-07
4.53487e-07
-1.25758e-06
-5.2366e-07
5.48119e-07
-1.22669e-06
-4.78244e-07
6.03645e-07
-1.18767e-06
-4.25819e-07
6.19718e-07
-1.14193e-06
-3.70997e-07
5.99379e-07
-1.09074e-06
-3.17626e-07
5.48226e-07
-1.03484e-06
-2.68584e-07
4.73606e-07
-9.74109e-07
-2.25535e-07
3.83698e-07
-9.07042e-07
-1.89079e-07
2.86937e-07
-8.30208e-07
-1.58691e-07
1.91518e-07
-7.37576e-07
-1.32681e-07
1.05228e-07
-6.19012e-07
-1.07808e-07
3.65348e-08
-4.56797e-07
-7.87668e-08
-2.13771e-07
-3.6523e-08
-3.62918e-08
-1.41222e-07
-3.6291e-08
-1.05381e-07
-3.09725e-07
-7.80762e-08
-1.93537e-07
-4.24413e-07
-1.06602e-07
-2.92539e-07
-5.07647e-07
-1.31129e-07
-3.94255e-07
-5.71517e-07
-1.5724e-07
-4.89865e-07
-6.23352e-07
-1.88374e-07
-5.70157e-07
-6.67768e-07
-2.26367e-07
-6.26164e-07
-7.07431e-07
-2.71756e-07
-6.49809e-07
-7.43565e-07
-3.23859e-07
-6.34874e-07
-7.76381e-07
-3.80816e-07
-5.77905e-07
-8.05442e-07
-4.39484e-07
-4.79201e-07
-8.30002e-07
-4.95629e-07
-3.43376e-07
-8.49273e-07
-5.44307e-07
-1.79545e-07
-8.62506e-07
-5.80439e-07
-6.14867e-10
-8.69232e-07
-5.99727e-07
1.78323e-07
-8.69201e-07
-5.99722e-07
3.42178e-07
-8.62416e-07
-5.80427e-07
4.78047e-07
-8.49129e-07
-5.4432e-07
5.7683e-07
-8.29819e-07
-4.95658e-07
6.33878e-07
-8.05216e-07
-4.39499e-07
6.48932e-07
-7.76145e-07
-3.80836e-07
6.254e-07
-7.43314e-07
-3.23893e-07
5.69547e-07
-7.07193e-07
-2.71798e-07
4.89391e-07
-6.67539e-07
-2.26415e-07
3.93918e-07
-6.23147e-07
-1.88422e-07
2.9233e-07
-5.71341e-07
-1.5728e-07
1.93427e-07
-5.07511e-07
-1.31162e-07
1.05345e-07
-4.24313e-07
-1.06616e-07
3.6288e-08
-3.09667e-07
-7.80732e-08
-1.41205e-07
-3.62777e-08
-3.23766e-08
-7.64696e-08
-3.23758e-08
-9.58801e-08
-1.76817e-07
-6.94046e-08
-1.79229e-07
-2.46873e-07
-9.41913e-08
-2.74982e-07
-2.96512e-07
-1.15382e-07