/*--------------------------------*- C++ -*----------------------------------*\
| =========                 |                                                 |
| \\      /  F ield         | OpenFOAM: The Open Source CFD Toolbox           |
|  \\    /   O peration     | Version:  v1912                                 |
|   \\  /    A nd           | Website:  www.openfoam.com                      |
|    \\/     M anipulation  |                                                 |
\*---------------------------------------------------------------------------*/
FoamFile
{
    version     2.0;
    format      ascii;
    class       volScalarField;
    location    "145/sphere";
    object      T;
}
// * * * * * * * * * * * * * * * * * * * * * * * * * * * * * * * * * * * * * //

dimensions      [0 0 0 1 0 0 0];


internalField   nonuniform List<scalar> 
304
(
392.876
392.91
392.909
392.929
392.881
392.882
392.875
392.911
392.873
393.025
393.025
392.915
392.908
393.025
393.025
392.951
392.915
392.951
392.872
392.91
392.93
392.881
392.912
393.026
393.026
392.951
392.93
393.026
393.026
392.98
392.879
392.951
392.981
392.913
392.883
392.918
392.952
392.872
392.887
392.953
392.98
392.911
392.873
392.913
392.864
392.86
392.881
392.882
392.872
392.913
392.881
392.882
392.913
392.872
392.861
392.879
392.87
392.88
392.911
392.911
392.91
392.928
392.916
392.951
392.95
392.979
392.875
392.929
392.91
392.951
392.916
392.979
392.951
392.88
392.87
392.911
392.881
392.877
392.877
392.909
392.868
392.928
392.872
392.909
392.949
392.978
392.913
392.95
392.911
392.91
392.875
392.979
392.951
392.951
392.915
392.912
392.88
392.87
392.86
392.88
392.869
392.911
392.88
392.912
392.872
392.879
392.86
392.87
392.879
392.88
392.911
392.911
392.915
392.952
392.91
392.929
392.951
392.98
392.877
392.952
392.917
392.93
392.912
392.98
392.952
392.872
392.882
392.913
392.883
392.915
392.909
392.95
392.91
392.951
392.929
392.979
392.873
392.951
392.911
392.952
392.912
392.979
392.93
392.949
392.873
392.914
392.929
392.979
392.91
392.951
392.911
392.916
392.875
392.98
392.93
392.952
392.911
392.872
392.88
392.912
392.88
392.951
392.875
392.911
392.951
392.98
392.911
392.93
392.916
392.911
392.875
392.98
392.951
392.931
392.911
392.912
392.88
392.88
392.879
392.881
392.912
392.875
392.93
392.951
392.98
392.875
392.911
392.917
392.952
392.911
392.98
392.951
392.912
392.874
392.952
392.915
392.912
392.881
392.87
392.953
392.93
392.98
392.879
392.919
392.914
392.953
392.911
392.98
392.93
392.916
392.877
392.952
392.912
392.98
392.911
392.952
392.914
392.954
392.878
392.918
392.93
392.952
392.911
392.951
392.911
392.917
392.876
392.912
392.881
392.873
392.98
392.911
392.931
392.917
392.952
392.877
392.912
392.952
392.931
392.913
392.953
392.918
392.913
392.88
392.882
392.881
392.874
392.865
392.88
392.874
392.913
392.881
392.913
392.871
392.881
392.861
392.875
392.883
392.915
392.884
392.952
392.953
392.98
392.88
392.913
392.913
392.931
392.916
392.98
392.952
392.911
392.875
392.93
392.911
392.912
392.881
392.88
392.915
392.875
392.882
392.98
392.917
392.952
392.912
392.93
392.875
392.912
392.951
392.952
392.917
392.93
392.911
392.912
392.876
392.88
392.872
392.878
392.864
392.913
392.882
392.882
392.874
392.882
392.882
)
;

boundaryField
{
    sphere_to_oil
    {
        type            compressible::turbulentTemperatureCoupledBaffleMixed;
        refValue        nonuniform List<scalar> 
360
(
302.097
302.097
301.223
301.919
301.867
301.023
301.93
301.93
301.93
302.164
302.164
301.494
301.306
301.014
302.007
301.774
301.967
301.967
301.967
301.324
301.947
301.898
301.467
301.858
301.014
301.971
301.156
301.873
301.873
301.873
301.964
302.034
301.258
301.154
301.523
301.445
302.051
302.051
302.051
301.968
302.284
301.865
301.992
301.809
301.809
301.213
302.535
301.206
303.842
302.383
301.012
301.433
301.289
301.582
301.321
301.925
301.98
301.543
302.129
303.045
301.714
302.012
302.012
302.012
301.233
302.403
304.781
301.236
301.976
301.976
301.976
301.983
301.991
301.012
301.721
302.171
301.197
301.44
302.248
301.97
301.546
301.363
301.542
301.703
301.163
301.48
301.442
301.595
301.191
301.539
301.318
301.218
301.509
301.412
301.575
301.583
301.673
301.581
301.714
300.724
300.773
301.01
300.993
301.422
301.192
301.008
301.017
301.304
301.525
301.347
301.565
301.341
301.574
301.33
300.592
300.727
300.986
301.194
301.057
302.103
302.103
301.919
301.919
301.858
301.858
302.097
302.097
302.097
301.93
301.93
301.93
301.04
301.171
300.941
301.119
301.867
301.867
301.712
301.712
301.964
301.964
301.593
301.593
301.835
301.835
301.835
301.025
301.184
301.799
301.799
301.799
301.903
301.903
301.903
301.774
301.947
302.007
301.774
301.769
301.09
301.769
301.769
301.483
301.593
301.381
301.888
301.888
302.329
302.329
302.329
301.599
301.947
301.898
302.304
302.304
301.589
302.304
301.499
301.334
300.859
301.119
301.365
301.533
301.017
301.692
301.996
300.939
300.716
301.971
301.971
302.034
302.034
301.714
301.714
301.781
301.781
301.781
304.58
304.58
301.14
301.449
300.997
301.216
301.347
301.291
301.428
301.552
301.303
301.347
301.49
301.968
301.473
301.486
301.338
302.378
302.378
302.378
302.004
302.004
301.651
302.021
302.079
303.47
302.284
301.825
303.304
302.07
301.968
302.284
302.031
301.451
302.031
301.67
300.765
301.808
301.051
302.692
303.14
304.494
302.14
300.717
301.965
301.959
301.965
301.965
301.959
301.959
302.383
302.403
303.842
302.102
301.298
302.383
302.102
302.102
301.186
301.225
301.427
301.548
301.381
301.983
301.548
301.338
301.493
301.51
301.98
301.721
301.583
301.636
301.678
302.075
301.799
301.925
302.303
301.611
301.98
302.303
302.303
305.028
301.801
302.248
302.052
302.049
302.07
302.352
301.882
302.371
302.057
302.075
302.057
302.352
302.075
302.352
300.956
301.108
301.057
301.029
303.9
301.794
303.9
301.794
301.794
300.988
302.403
302.113
304.781
302.113
301.381
302.113
301.131
301.213
301.047
301.947
301.733
301.947
301.947
301.733
301.099
301.169
301.343
301.334
301.991
301.983
301.571
301.168
301.991
301.571
301.148
301.721
301.829
302.171
301.829
301.092
301.829
301.408
301.97
301.497
301.441
301.809
302.092
301.799
301.926
301.799
301.809
301.926
301.809
301.312
301.502
302.248
301.899
301.608
301.97
301.899
301.429
302.371
302.092
302.371
302.002
302.092
302.002
)
;
        refGradient     uniform 0;
        valueFraction   nonuniform List<scalar> 
360
(
0.000183529
0.000176071
0.000112726
0.000402665
0.00041297
0.000236818
0.000415536
0.000356689
0.000555174
0.00017678
0.000172358
0.000231223
0.000352382
0.00010076
0.000180239
0.000350349
0.00040148
0.000375128
0.000526367
9.22002e-05
0.000345623
0.000169921
0.000156607
0.000415558
0.000120663
0.000427144
0.000240791
0.000421629
0.000551764
0.00036911
0.000421701
0.00042533
0.000114221
0.000112945
0.000237015
0.000233245
0.00039465
0.000535006
0.000367396
0.000552384
0.000545642
0.000116525
0.000231124
0.000168685
0.000168483
0.000237924
0.000355946
9.49708e-05
0.000169929
0.000360308
0.00023471
0.000236234
0.000352119
0.000348698
9.85204e-05
0.000180225
0.000367505
9.43803e-05
0.000233804
0.000348642
9.23815e-05
0.000410425
0.00036231
0.000567025
9.52423e-05
0.000370447
0.000172808
0.000167139
0.000419909
0.000547771
0.000368486
0.000528229
0.000535621
0.000102309
0.000357146
0.000181191
9.43263e-05
0.000169136
0.00053448
0.000555223
0.00016589
0.00016276
0.000159865
9.50129e-05
0.000114576
0.000232283
0.000233584
0.000353725
0.000106782
9.01616e-05
0.000113393
0.00035315
0.000233142
0.000115832
0.000352567
0.000235804
0.000234408
0.000234768
0.000114486
9.17683e-05
9.30556e-05
9.18174e-05
0.000236037
0.000231993
0.000352884
0.0001039
9.0248e-05
0.000352627
0.000112029
0.000232356
0.000232401
0.000237141
0.000115962
9.28571e-05
9.05604e-05
9.231e-05
0.000160674
0.000160867
0.000167117
0.000181214
0.000170316
0.000351896
0.000554318
0.000370745
0.000559416
0.000358606
0.0005513
0.000410491
0.000358895
0.000539303
0.000404268
0.000164906
0.00015595
0.000159733
8.81814e-05
0.000365684
0.000550557
0.000170358
0.000171137
0.000556387
0.000369948
0.000178584
0.000188218
0.000549539
0.000377527
0.000435014
9.70485e-05
9.03138e-05
0.000381162
0.000528171
0.000418666
0.000392452
0.000546454
0.000418622
0.000432214
0.000398126
0.000186246
0.000555076
0.000358568
9.99778e-05
0.0005395
0.000403739
0.000154087
0.000162337
0.000160598
0.000169423
0.000177101
0.000552301
0.000363679
0.000426875
0.000102362
0.000531291
0.000182196
0.000558664
0.000357658
9.99855e-05
0.000424067
0.000155454
0.000156896
9.16721e-05
0.000240277
0.000240181
0.000355136
0.000118433
0.000355672
0.000234034
9.07307e-05
8.81029e-05
0.000555738
0.00035313
0.000549215
0.000366185
0.00017468
0.000163359
0.000551775
0.000344873
0.000398635
0.000161474
0.000187358
9.42614e-05
0.000236054
0.00023584
0.000352352
0.000230718
0.000231905
0.000350965
0.0001203
0.000352168
0.000238789
0.000116988
0.000396371
0.000351778
0.000237359
9.45968e-05
0.00053972
0.000349909
0.00040939
0.000170569
0.00015851
9.15622e-05
0.000234218
0.000238156
0.000353101
0.000401443
0.000112286
0.000349751
0.000228431
0.000347429
0.000367803
0.000166968
9.37857e-05
0.000185276
9.49452e-05
8.93734e-05
0.000357043
0.000119159
0.000240042
0.000237266
0.000234439
0.000117661
8.98781e-05
0.000365051
0.000342063
0.000574214
0.000427432
0.000535714
0.000384926
0.000412567
0.000422409
0.000187773
0.000362381
9.76419e-05
0.000551426
0.000536182
0.000407399
0.000355347
0.000113233
0.000231225
0.000351262
0.000114247
0.000418537
0.000232226
0.000233884
0.000231731
0.000113554
0.000415411
0.000389279
0.000236422
0.000230311
0.000115741
0.000390046
0.000429331
0.00017028
0.000385407
9.15416e-05
0.000549061
0.000532322
0.000402242
0.000348654
0.000114542
0.000402874
0.000231996
0.000232354
0.000233676
0.000405068
0.000115615
0.000413859
0.000174155
0.000356828
0.000175608
0.000363619
0.000554098
0.00054397
9.14987e-05
0.000183348
0.000181183
0.000177214
0.000161386
0.000539882
0.000176265
0.000358936
0.000422659
9.01654e-05
0.000545151
0.000544493
0.000178265
0.000387163
9.44895e-05
0.000415065
0.000158043
0.00015526
9.44121e-05
0.000533956
0.000159595
0.00035019
0.000412426
0.0001711
9.32759e-05
0.000232087
0.000232008
0.000350081
0.000400566
0.000347442
0.000167991
9.04288e-05
0.00035326
0.000186579
0.000104438
0.000511898
0.00054967
0.000162472
0.000349188
9.68197e-05
0.000439141
0.000352763
0.000422634
0.000115628
0.000233084
0.000407475
0.00039504
0.000371651
0.000166129
0.000544382
0.000543211
0.000197205
0.000363125
0.000159775
0.000162226
0.000365568
0.000180974
9.78506e-05
0.000369723
0.000174262
9.03641e-05
0.000538085
0.000544541
0.00035831
0.000173898
0.00035196
0.000179632
)
;
        value           nonuniform List<scalar> 
360
(
392.882
392.883
392.883
392.857
392.856
392.906
392.855
392.865
392.837
392.879
392.88
392.905
392.914
392.89
392.883
392.867
392.853
392.863
392.839
392.891
392.868
392.884
392.864
392.855
392.882
392.854
392.907
392.857
392.84
392.866
392.852
392.852
392.88
392.881
392.904
392.907
392.855
392.841
392.865
392.84
392.84
392.882
392.908
392.882
392.884
392.906
392.916
392.89
392.883
392.866
392.909
392.908
392.916
392.916
392.888
392.881
392.864
392.891
392.908
392.918
392.891
392.856
392.865
392.84
392.892
392.867
392.885
392.863
392.859
392.843
392.868
392.842
392.842
392.895
392.872
392.888
392.889
392.867
392.843
392.841
392.866
392.867
392.867
392.891
392.887
392.908
392.908
392.916
392.887
392.891
392.882
392.914
392.907
392.882
392.916
392.907
392.907
392.908
392.884
392.89
392.89
392.889
392.907
392.907
392.914
392.888
392.887
392.913
392.879
392.906
392.908
392.906
392.883
392.889
392.892
392.891
392.863
392.864
392.863
392.882
392.884
392.867
392.839
392.866
392.839
392.866
392.84
392.855
392.867
392.841
392.858
392.864
392.865
392.864
392.889
392.864
392.838
392.882
392.882
392.837
392.864
392.881
392.881
392.838
392.864
392.852
392.89
392.887
392.861
392.838
392.852
392.859
392.837
392.853
392.854
392.857
392.881
392.837
392.865
392.889
392.839
392.856
392.864
392.863
392.863
392.882
392.881
392.837
392.864
392.854
392.888
392.841
392.881
392.839
392.865
392.888
392.854
392.864
392.864
392.888
392.907
392.906
392.915
392.884
392.916
392.909
392.891
392.889
392.838
392.865
392.838
392.864
392.881
392.883
392.839
392.869
392.855
392.886
392.884
392.892
392.905
392.906
392.914
392.908
392.908
392.915
392.88
392.915
392.906
392.882
392.857
392.915
392.907
392.889
392.841
392.867
392.856
392.883
392.884
392.89
392.907
392.907
392.917
392.857
392.883
392.917
392.909
392.866
392.864
392.883
392.889
392.881
392.889
392.889
392.915
392.882
392.907
392.908
392.909
392.881
392.891
392.864
392.868
392.84
392.854
392.844
392.862
392.854
392.854
392.882
392.866
392.89
392.838
392.84
392.858
392.915
392.887
392.91
392.916
392.885
392.857
392.908
392.908
392.911
392.886
392.859
392.861
392.908
392.908
392.883
392.859
392.855
392.883
392.864
392.89
392.841
392.843
392.858
392.918
392.884
392.858
392.909
392.91
392.91
392.861
392.887
392.86
392.884
392.867
392.883
392.866
392.842
392.843
392.89
392.866
392.867
392.867
392.884
392.842
392.884
392.866
392.859
392.891
392.84
392.84
392.883
392.864
392.89
392.855
392.864
392.864
392.892
392.845
392.886
392.87
392.86
392.886
392.893
392.909
392.91
392.917
392.856
392.868
392.884
392.891
392.866
392.881
392.888
392.846
392.843
392.885
392.868
392.891
392.853
392.916
392.855
392.883
392.908
392.857
392.858
392.864
392.883
392.84
392.84
392.878
392.863
392.868
392.867
392.866
392.883
392.891
392.866
392.884
392.892
392.843
392.843
392.868
392.884
392.867
392.883
)
;
        Tnbr            T;
        thicknessLayers 0();
        kappaLayers     0();
        kappaMethod     solidThermo;
        kappa           none;
        alphaAni        none;
        alpha           none;
    }
}


// ************************************************************************* //
