/*--------------------------------*- C++ -*----------------------------------*\
| =========                 |                                                 |
| \\      /  F ield         | OpenFOAM: The Open Source CFD Toolbox           |
|  \\    /   O peration     | Version:  v1912                                 |
|   \\  /    A nd           | Website:  www.openfoam.com                      |
|    \\/     M anipulation  |                                                 |
\*---------------------------------------------------------------------------*/
FoamFile
{
    version     2.0;
    format      ascii;
    class       surfaceScalarField;
    location    "348/oil";
    object      phi;
}
// * * * * * * * * * * * * * * * * * * * * * * * * * * * * * * * * * * * * * //

dimensions      [1 0 -1 0 0 0 0];
oriented        oriented;


internalField   nonuniform List<scalar> 
104676
(
-1.21947e-11
2.80033e-11
-1.54837e-11
2.8172e-10
-2.31353e-10
-6.2556e-11
8.82981e-10
-4.34228e-10
-1.67027e-10
1.69868e-09
-5.2986e-10
-2.85833e-10
2.60896e-09
-5.4179e-10
-3.68488e-10
3.49405e-09
-4.92684e-10
-3.92401e-10
4.24582e-09
-4.00382e-10
-3.51387e-10
4.7739e-09
-2.78139e-10
-2.49935e-10
5.00789e-09
-1.36213e-10
-9.7766e-11
4.90941e-09
1.25992e-11
8.58877e-11
4.45983e-09
1.66387e-10
2.83197e-10
3.69029e-09
2.91872e-10
4.77685e-10
2.641e-09
4.05901e-10
6.43398e-10
1.38732e-09
4.88498e-10
7.65191e-10
2.52117e-11
5.32143e-10
8.29977e-10
-1.34112e-09
5.34494e-10
8.3185e-10
-2.59815e-09
4.8891e-10
7.68123e-10
-3.65153e-09
4.05506e-10
6.47886e-10
-4.4284e-09
2.93554e-10
4.8333e-10
-4.8834e-09
1.62759e-10
2.92251e-10
-4.99382e-09
1.36849e-11
9.67345e-11
-4.76487e-09
-1.39076e-10
-8.98554e-11
-4.24093e-09
-2.80456e-10
-2.43479e-10
-3.49224e-09
-4.02541e-10
-3.46136e-10
-2.60968e-09
-4.94432e-10
-3.88125e-10
-1.70119e-09
-5.4448e-10
-3.64004e-10
-8.86039e-10
-5.33924e-10
-2.81215e-10
-2.84462e-10
-4.3889e-10
-1.6268e-10
1.03065e-11
-2.35547e-10
-5.92153e-11
2.36693e-11
-1.33588e-11
2.88092e-10
-5.48166e-10
2.88085e-10
1.1125e-09
-1.64773e-09
5.91981e-10
2.42245e-09
-2.47744e-09
7.33271e-10
4.07229e-09
-2.98308e-09
8.03382e-10
5.86364e-09
-3.22557e-09
8.92439e-10
7.58285e-09
-3.26451e-09
1.05262e-09
9.02808e-09
-3.15093e-09
1.30532e-09
1.00246e-08
-2.92508e-09
1.65039e-09
1.04364e-08
-2.62071e-09
2.07276e-09
1.01761e-08
-2.26824e-09
2.5411e-09
9.20331e-09
-1.8974e-09
3.03662e-09
7.57163e-09
-1.57266e-09
3.49623e-09
5.40306e-09
-1.28706e-09
3.86154e-09
2.83501e-09
-1.08044e-09
4.137e-09
5.08881e-11
-9.7239e-10
4.28866e-09
-2.74395e-09
-9.7307e-10
4.30241e-09
-5.31875e-09
-1.08551e-09
4.14923e-09
-7.489e-09
-1.29578e-09
3.87153e-09
-9.10675e-09
-1.58201e-09
3.49332e-09
-1.00819e-08
-1.91298e-09
3.05092e-09
-1.03571e-08
-2.27875e-09
2.5676e-09
-9.95861e-09
-2.62866e-09
2.09113e-09
-8.97837e-09
-2.93003e-09
1.66934e-09
-7.55075e-09
-3.1549e-09
1.32475e-09
-5.84599e-09
-3.26949e-09
1.07032e-09
-4.06753e-09
-3.2322e-09
9.09268e-10
-2.42577e-09
-2.99409e-09
8.18421e-10
-1.1167e-09
-2.49191e-09
7.43957e-10
-2.89514e-10
-1.65951e-09
5.96784e-10
-5.54323e-10
2.88483e-10
6.06571e-10
-1.7671e-09
6.12369e-10
1.92834e-09
-4.27984e-09
1.31035e-09
3.78248e-09
-6.07628e-09
1.74471e-09
5.98668e-09
-7.24879e-09
2.06151e-09
8.31278e-09
-7.92278e-09
2.37113e-09
1.05095e-08
-8.20216e-09
2.74092e-09
1.23314e-08
-8.17638e-09
3.20355e-09
1.3561e-08
-7.91924e-09
3.76462e-09
1.40284e-08
-7.49786e-09
4.40973e-09
1.36252e-08
-6.96865e-09
5.10367e-09
1.2298e-08
-6.3928e-09
5.82253e-09
1.01032e-08
-5.8484e-09
6.47056e-09
7.19959e-09
-5.37103e-09
6.9876e-09
3.77446e-09
-5.02253e-09
7.36723e-09
6.53986e-11
-4.8429e-09
7.57958e-09
-3.66126e-09
-4.85149e-09
7.6051e-09
-7.09673e-09
-5.03449e-09
7.38446e-09
-1.00003e-08
-5.38497e-09
6.99274e-09
-1.21817e-08
-5.85885e-09
6.4583e-09
-1.35254e-08
-6.408e-09
5.83876e-09
-1.39504e-08
-6.98254e-09
5.12872e-09
-1.34987e-08
-7.5078e-09
4.42752e-09
-1.22859e-08
-7.92699e-09
3.78413e-09
-1.04815e-08
-8.18221e-09
3.22294e-09
-8.3009e-09
-8.20941e-09
2.75932e-09
-5.98578e-09
-7.9348e-09
2.38749e-09
-3.78873e-09
-7.26566e-09
2.07452e-09
-1.93584e-09
-6.09673e-09
1.75194e-09
-6.10174e-10
-4.29578e-09
1.31061e-09
-1.7757e-09
6.11203e-10
8.70042e-10
-3.51776e-09
8.80629e-10
2.61035e-09
-7.92009e-09
1.89995e-09
4.90576e-09
-1.09414e-08
2.56973e-09
7.53218e-09
-1.29612e-08
3.08598e-09
1.02386e-08
-1.42099e-08
3.58075e-09
1.27546e-08
-1.48465e-08
4.12843e-09
1.48144e-08
-1.50032e-08
4.76701e-09
1.61804e-08
-1.47894e-08
5.50418e-09
1.66595e-08
-1.43042e-08
6.32725e-09
1.61266e-08
-1.36389e-08
7.2031e-09
1.45195e-08
-1.28855e-08
8.09983e-09
1.19138e-08
-1.2134e-08
8.89132e-09
8.48267e-09
-1.14795e-08
9.53968e-09
4.4439e-09
-1.09752e-08
9.99144e-09
7.38716e-11
-1.07183e-08
1.02454e-08
-4.3195e-09
-1.07365e-08
1.02784e-08
-8.37188e-09
-1.09881e-08
1.0006e-08
-1.18049e-08
-1.14792e-08
9.52717e-09
-1.43985e-08
-1.21371e-08
8.87186e-09
-1.6019e-08
-1.28915e-08
8.10411e-09
-1.65715e-08
-1.36452e-08
7.21519e-09
-1.61101e-08
-1.43088e-08
6.33962e-09
-1.47635e-08
-1.47933e-08
5.51976e-09
-1.27212e-08
-1.50068e-08
4.78231e-09
-1.02224e-08
-1.48527e-08
4.14446e-09
-7.53054e-09
-1.4222e-08
3.59532e-09
-4.91103e-09
-1.29809e-08
3.09579e-09
-2.61776e-09
-1.09606e-08
2.57062e-09
-8.76481e-10
-7.92661e-09
1.88956e-09
-3.52956e-09
8.77393e-10
1.06878e-09
-5.6652e-09
1.07866e-09
3.13216e-09
-1.23144e-08
2.33097e-09
5.7733e-09
-1.67591e-08
3.17658e-09
8.72559e-09
-1.97537e-08
3.84027e-09
1.17171e-08
-2.16754e-08
4.47398e-09
1.4464e-08
-2.27547e-08
5.1612e-09
1.66899e-08
-2.31711e-08
5.94193e-09
1.81442e-08
-2.30706e-08
6.82705e-09
1.8625e-08
-2.2585e-08
7.79996e-09
1.79947e-08
-2.18377e-08
8.82907e-09
1.61866e-08
-2.09556e-08
9.87817e-09
1.32791e-08
-2.00492e-08
1.08227e-08
9.44711e-09
-1.92354e-08
1.15879e-08
4.94612e-09
-1.85745e-08
1.21004e-08
7.9487e-11
-1.82404e-08
1.23887e-08
-4.8145e-09
-1.82652e-08
1.24227e-08
-9.32506e-09
-1.85907e-08
1.21132e-08
-1.31517e-08
-1.9212e-08
1.15595e-08
-1.60571e-08
-2.0043e-08
1.08114e-08
-1.78805e-08
-2.09549e-08
9.88665e-09
-1.85309e-08
-2.18381e-08
8.84336e-09
-1.80695e-08
-2.25854e-08
7.81517e-09
-1.66338e-08
-2.3072e-08
6.84296e-09
-1.44248e-08
-2.31735e-08
5.95772e-09
-1.16944e-08
-2.27593e-08
5.17621e-09
-8.71836e-09
-2.16846e-08
4.48663e-09
-5.77662e-09
-1.97699e-08
3.84721e-09
-3.13752e-09
-1.67731e-08
3.17343e-09
-1.07437e-09
-1.23055e-08
2.31579e-09
-5.67973e-09
1.0758e-09
1.2023e-09
-8.08148e-09
1.21398e-09
3.49506e-09
-1.72259e-08
2.61873e-09
6.3875e-09
-2.32369e-08
3.58532e-09
9.57619e-09
-2.72968e-08
4.35435e-09
1.27732e-08
-2.99616e-08
5.08929e-09
1.5686e-08
-3.15512e-08
5.88368e-09
1.8032e-08
-3.22969e-08
6.77976e-09
1.95535e-08
-3.23829e-08
7.79084e-09
2.00414e-08
-3.19712e-08
8.89843e-09
1.93528e-08
-3.12142e-08
1.00651e-08
1.74177e-08
-3.02667e-08
1.12463e-08
1.42897e-08
-2.92812e-08
1.236e-08
1.01614e-08
-2.83532e-08
1.32461e-08
5.31703e-09
-2.75471e-08
1.3817e-08
7.9509e-11
-2.71261e-08
1.41233e-08
-5.18774e-09
-2.7153e-08
1.41551e-08
-1.00319e-08
-2.75843e-08
1.38377e-08
-1.41465e-08
-2.83076e-08
1.32102e-08
-1.72784e-08
-2.92671e-08
1.2356e-08
-1.92319e-08
-3.02625e-08
1.12611e-08
-1.99431e-08
-3.12107e-08
1.00838e-08
-1.94761e-08
-3.19695e-08
8.91714e-09
-1.79735e-08
-3.23836e-08
7.80896e-09
-1.56446e-08
-3.2299e-08
6.79673e-09
-1.27467e-08
-3.15552e-08
5.89799e-09
-9.56388e-09
-2.99684e-08
5.10098e-09
-6.38679e-09
-2.73064e-08
4.35938e-09
-3.50067e-09
-2.32382e-08
3.57896e-09
-1.20851e-09
-1.72006e-08
2.60291e-09
-8.10068e-09
1.21245e-09
1.2695e-09
-1.06481e-08
1.29717e-09
3.70336e-09
-2.24652e-08
2.80544e-09
6.75422e-09
-3.01233e-08
3.8356e-09
1.00895e-08
-3.52948e-08
4.66282e-09
1.34125e-08
-3.8751e-08
5.46631e-09
1.6428e-08
-4.09072e-08
6.34055e-09
1.88522e-08
-4.20507e-08
7.32972e-09
2.04223e-08
-4.24028e-08
8.44974e-09
2.09261e-08
-4.21541e-08
9.67907e-09
2.02127e-08
-4.14776e-08
1.09767e-08
1.82107e-08
-4.05554e-08
1.22907e-08
1.49379e-08
-3.95649e-08
1.35564e-08
1.06271e-08
-3.86124e-08
1.457e-08
5.55992e-09
-3.76744e-08
1.51945e-08
8.65194e-11
-3.71742e-08
1.55215e-08
-5.4119e-09
-3.72153e-08
1.55607e-08
-1.04957e-08
-3.77443e-08
1.52439e-08
-1.4791e-08
-3.85574e-08
1.45451e-08
-1.80675e-08
-3.95511e-08
1.35604e-08
-2.00893e-08
-4.05546e-08
1.2314e-08
-2.08252e-08
-4.14775e-08
1.10027e-08
-2.03431e-08
-4.21546e-08
9.70307e-09
-1.87921e-08
-4.24057e-08
8.47107e-09
-1.63854e-08
-4.20556e-08
7.34988e-09
-1.33839e-08
-4.09127e-08
6.35596e-09
-1.00743e-08
-3.87558e-08
5.47786e-09
-6.75151e-09
-3.52946e-08
4.66549e-09
-3.71269e-09
-3.00981e-08
3.82108e-09
-1.28493e-09
-2.24038e-08
2.77542e-09
-1.06793e-08
1.29369e-09
1.29465e-09
-1.32674e-08
1.32465e-09
3.7696e-09
-2.7817e-08
2.8768e-09
6.87278e-09
-3.71638e-08
3.9373e-09
1.02581e-08
-4.34693e-08
4.78926e-09
1.3619e-08
-4.77382e-08
5.62628e-09
1.66648e-08
-5.05071e-08
6.55408e-09
1.91162e-08
-5.21163e-08
7.61419e-09
2.07123e-08
-5.28208e-08
8.82203e-09
2.1236e-08
-5.28344e-08
1.01566e-08
2.05341e-08
-5.23487e-08
1.15731e-08
1.8522e-08
-5.15567e-08
1.30135e-08
1.51992e-08
-5.06596e-08
1.44175e-08
1.08071e-08
-4.97942e-08
1.5574e-08
5.64589e-09
-4.87479e-08
1.62346e-08
8.60445e-11
-4.82131e-08
1.65988e-08
-5.50665e-09
-4.82634e-08
1.66408e-08
-1.07045e-08
-4.88197e-08
1.62733e-08
-1.50623e-08
-4.97357e-08
1.55361e-08
-1.83803e-08
-5.0649e-08
1.44159e-08
-2.04108e-08
-5.15602e-08
1.3036e-08
-2.1136e-08
-5.23517e-08
1.15994e-08
-2.06336e-08
-5.28384e-08
1.01814e-08
-1.90559e-08
-5.28282e-08
8.84482e-09
-1.66209e-08
-5.21264e-08
7.63584e-09
-1.35887e-08
-5.05167e-08
6.5718e-09
-1.02416e-08
-4.7741e-08
5.63819e-09
-6.8737e-09
-4.34462e-08
4.78366e-09
-3.78472e-09
-3.70941e-08
3.90704e-09
-1.30871e-09
-2.77168e-08
2.83703e-09
-1.33116e-08
1.32361e-09
1.27218e-09
-1.58403e-08
1.30063e-09
3.68818e-09
-3.30711e-08
2.83814e-09
6.72796e-09
-4.41121e-08
3.90857e-09
1.00546e-08
-5.15577e-08
4.76174e-09
1.33594e-08
-5.66339e-08
5.59103e-09
1.63504e-08
-6.00265e-08
6.52828e-09
1.87643e-08
-6.21545e-08
7.62423e-09
2.03501e-08
-6.32929e-08
8.88629e-09
2.08909e-08
-6.36667e-08
1.02914e-08
2.02302e-08
-6.34818e-08
1.17939e-08
1.82878e-08
-6.29351e-08
1.33208e-08
1.5049e-08
-6.22209e-08
1.48001e-08
1.06825e-08
-6.15021e-08
1.60745e-08
5.57352e-09
-6.04236e-08
1.67847e-08
8.1523e-11
-5.99347e-08
1.72135e-08
-5.45025e-09
-5.99791e-08
1.72475e-08
-1.06101e-08
-6.04506e-08
1.67908e-08
-1.49366e-08
-6.1413e-08
1.60038e-08
-1.81531e-08
-6.22108e-08
1.47783e-08
-2.01098e-08
-6.29421e-08
1.33386e-08
-2.07918e-08
-6.34901e-08
1.18204e-08
-2.02718e-08
-6.36755e-08
1.03171e-08
-1.87045e-08
-6.33054e-08
8.90987e-09
-1.63063e-08
-6.2171e-08
7.64634e-09
-1.33301e-08
-6.00363e-08
6.54344e-09
-1.00488e-08
-5.66067e-08
5.5843e-09
-6.74563e-09
-5.14673e-08
4.71799e-09
-3.7141e-09
-4.39691e-08
3.84348e-09
-1.28086e-09
-3.29425e-08
2.7925e-09
-1.58938e-08
1.30135e-09
1.20691e-09
-1.82667e-08
1.21957e-09
3.48735e-09
-3.80162e-08
2.66466e-09
6.32737e-09
-5.06591e-08
3.70692e-09
9.4576e-09
-5.92438e-08
4.55582e-09
1.25929e-08
-6.51308e-08
5.36154e-09
1.54331e-08
-6.91236e-08
6.25704e-09
1.77307e-08
-7.17883e-08
7.33621e-09
1.92544e-08
-7.34184e-08
8.60175e-09
1.9801e-08
-7.42365e-08
1.00234e-08
1.92103e-08
-7.44459e-08
1.15548e-08
1.74061e-08
-7.42423e-08
1.31114e-08
1.43737e-08
-7.38008e-08
1.46123e-08
1.01711e-08
-7.3248e-08
1.59485e-08
5.30344e-09
-7.22757e-08
1.67198e-08
7.55993e-11
-7.18809e-08
1.71741e-08
-5.18286e-09
-7.19229e-08
1.72022e-08
-1.00841e-08
-7.22496e-08
1.67003e-08
-1.42639e-08
-7.30689e-08
1.58357e-08
-1.72804e-08
-7.37763e-08
1.4582e-08
-1.90942e-08
-7.42546e-08
1.31263e-08
-1.97054e-08
-7.44591e-08
1.15803e-08
-1.91799e-08
-7.42495e-08
1.00485e-08
-1.76724e-08
-7.34375e-08
8.62463e-09
-1.53876e-08
-7.18111e-08
7.35531e-09
-1.25704e-08
-6.91097e-08
6.25612e-09
-9.46999e-09
-6.50164e-08
5.3093e-09
-6.34865e-09
-5.90522e-08
4.46364e-09
-3.49043e-09
-5.04505e-08
3.62316e-09
-1.20265e-09
-3.78574e-08
2.62712e-09
-1.83222e-08
1.22576e-09
1.08908e-09
-2.04382e-08
1.08238e-09
3.15398e-09
-4.24151e-08
2.33404e-09
5.6989e-09
-5.64721e-08
3.26813e-09
8.47952e-09
-6.61229e-08
4.0985e-09
1.12994e-08
-7.28273e-08
4.87666e-09
1.38705e-08
-7.73995e-08
5.70469e-09
1.59618e-08
-8.05908e-08
6.71131e-09
1.73653e-08
-8.27401e-08
7.91827e-09
1.78932e-08
-8.40468e-08
9.2824e-09
1.73995e-08
-8.47002e-08
1.07479e-08
1.58285e-08
-8.48732e-08
1.2202e-08
1.31393e-08
-8.46925e-08
1.35809e-08
9.26768e-09
-8.42641e-08
1.48877e-08
4.82332e-09
-8.36265e-08
1.57951e-08
6.84085e-11
-8.33953e-08
1.62693e-08
-4.70526e-09
-8.34374e-08
1.62882e-08
-9.12643e-09
-8.36053e-08
1.57769e-08
-1.29276e-08
-8.41754e-08
1.49077e-08
-1.56546e-08
-8.47996e-08
1.37503e-08
-1.72803e-08
-8.49215e-08
1.22926e-08
-1.77998e-08
-8.472e-08
1.07804e-08
-1.72947e-08
-8.40566e-08
9.30207e-09
-1.59048e-08
-8.27618e-08
7.93436e-09
-1.38215e-08
-8.06148e-08
6.7204e-09
-1.12747e-08
-7.73326e-08
5.67622e-09
-8.4791e-09
-7.25922e-08
4.78021e-09
-5.66272e-09
-6.5852e-08
3.98343e-09
-3.09797e-09
-5.62295e-08
3.21425e-09
-1.05717e-09
-4.22234e-08
2.32521e-09
-2.04694e-08
1.08998e-09
9.17576e-10
-2.2249e-08
8.93237e-10
2.67678e-09
-4.60503e-08
1.87594e-09
4.82698e-09
-6.12032e-08
2.5809e-09
7.15889e-09
-7.17438e-08
3.28903e-09
9.48162e-09
-7.91874e-08
4.03739e-09
1.16388e-08
-8.43652e-08
4.8085e-09
1.3422e-08
-8.80703e-08
5.69626e-09
1.46479e-08
-9.07378e-08
6.77184e-09
1.51461e-08
-9.25372e-08
7.99214e-09
1.47836e-08
-9.36015e-08
9.26388e-09
1.34717e-08
-9.40713e-08
1.05099e-08
1.11284e-08
-9.41795e-08
1.18303e-08
7.86021e-09
-9.40719e-08
1.30761e-08
4.10308e-09
-9.37846e-08
1.39153e-08
5.69509e-11
-9.3691e-08
1.43419e-08
-4.01824e-09
-9.36666e-08
1.43044e-08
-7.78212e-09
-9.36357e-08
1.37943e-08
-1.10035e-08
-9.39389e-08
1.29849e-08
-1.33043e-08
-9.4446e-08
1.19472e-08
-1.46456e-08
-9.41658e-08
1.05856e-08
-1.5042e-08
-9.35868e-08
9.26318e-09
-1.45766e-08
-9.25014e-08
7.97941e-09
-1.33664e-08
-9.07411e-08
6.76917e-09
-1.15723e-08
-8.80939e-08
5.68496e-09
-9.41579e-09
-8.4255e-08
4.76588e-09
-7.07607e-09
-7.89334e-08
4.00151e-09
-4.75098e-09
-7.15325e-08
3.3554e-09
-2.61627e-09
-6.10927e-08
2.72851e-09
-9.02499e-10
-4.59147e-08
1.97745e-09
-2.22948e-08
9.22919e-10
7.03895e-10
-2.36262e-08
6.73282e-10
2.02753e-09
-4.88083e-08
1.43439e-09
3.68734e-09
-6.48001e-08
1.93704e-09
5.46501e-09
-7.58922e-08
2.37067e-09
7.18813e-09
-8.38186e-08
2.90803e-09
8.79197e-09
-8.95277e-08
3.55869e-09
1.01447e-08
-9.37155e-08
4.29256e-09
1.11229e-08
-9.68424e-08
5.12629e-09
1.16007e-08
-9.90755e-08
6.06064e-09
1.13454e-08
-1.00419e-07
7.07301e-09
1.02215e-08
-1.01146e-07
8.19831e-09
8.33797e-09
-1.0165e-07
9.35419e-09
5.97005e-09
-1.02033e-07
1.03287e-08
3.15343e-09
-1.01966e-07
1.09982e-08
4.96498e-11
-1.01907e-07
1.13195e-08
-3.10597e-09
-1.01756e-07
1.12447e-08
-5.98067e-09
-1.01593e-07
1.08317e-08
-8.40056e-09
-1.01655e-07
1.01361e-08
-1.0227e-08
-1.01772e-07
9.15234e-09
-1.12397e-08
-1.01099e-07
7.94625e-09
-1.1486e-08
-1.00246e-07
6.90522e-09
-1.10929e-08
-9.88366e-08
5.94206e-09
-1.01671e-08
-9.67241e-08
5.05725e-09
-8.82149e-09
-9.37517e-08
4.31225e-09
-7.18221e-09
-8.95643e-08
3.67002e-09
-5.40111e-09
-8.38005e-08
3.08597e-09
-3.62603e-09
-7.58769e-08
2.56932e-09
-1.99618e-09
-6.47953e-08
2.07273e-09
-6.89561e-10
-4.87191e-08
1.49787e-09
-2.36821e-08
6.97812e-10
4.75431e-10
-2.4511e-08
4.09385e-10
1.28218e-09
-5.04756e-08
8.60587e-10
2.31777e-09
-6.70804e-08
1.24476e-09
3.44175e-09
-7.85702e-08
1.5541e-09
4.5445e-09
-8.68314e-08
1.91009e-09
5.57656e-09
-9.28796e-08
2.31988e-09
6.44322e-09
-9.73375e-08
2.75529e-09
7.03158e-09
-1.00623e-07
3.19196e-09
7.34868e-09
-1.0306e-07
3.66755e-09
7.16323e-09
-1.04601e-07
4.36744e-09
6.42593e-09
-1.05637e-07
5.22831e-09
5.28526e-09
-1.06529e-07
6.0199e-09
3.79324e-09
-1.07179e-07
6.63889e-09
2.01061e-09
-1.07252e-07
7.0688e-09
5.96998e-11
-1.07263e-07
7.3074e-09
-1.92091e-09
-1.07062e-07
7.28658e-09
-3.73665e-09
-1.06821e-07
7.04428e-09
-5.23516e-09
-1.06759e-07
6.60218e-09
-6.40574e-09
-1.06601e-07
5.99918e-09
-7.12556e-09
-1.05583e-07
5.20358e-09
-7.39366e-09
-1.04341e-07
4.36362e-09
-7.18404e-09
-1.02627e-07
3.58096e-09
-6.54939e-09
-1.00339e-07
2.98034e-09
-5.61185e-09
-9.72584e-08
2.56913e-09
-4.52976e-09
-9.28897e-08
2.24332e-09
-3.39311e-09
-8.68628e-08
1.92567e-09
-2.27161e-09
-7.86089e-08
1.61054e-09
-1.24683e-09
-6.71185e-08
1.29838e-09
-4.31112e-10
-5.04711e-08
9.36195e-10
-2.45491e-08
4.35813e-10
1.73613e-10
-2.48236e-08
1.39006e-10
4.45381e-10
-5.1045e-08
2.97606e-10
8.09716e-10
-6.78891e-08
4.44343e-10
1.20987e-09
-7.95254e-08
5.54976e-10
1.61399e-09
-8.79012e-08
6.65737e-10
2.02342e-09
-9.40471e-08
7.58079e-10
2.40419e-09
-9.85568e-08
8.38623e-10
2.63148e-09
-1.01819e-07
9.69332e-10
2.66339e-09
-1.04266e-07
1.17397e-09
2.51985e-09
-1.05923e-07
1.46574e-09
2.29163e-09
-1.0718e-07
1.77145e-09
1.95693e-09
-1.08225e-07
2.03011e-09
1.32726e-09
-1.08755e-07
2.20548e-09
6.59291e-10
-1.08914e-07
2.32989e-09
3.46609e-11
-1.09093e-07
2.45476e-09
-6.60547e-10
-1.08927e-07
2.5607e-09
-1.31102e-09
-1.08726e-07
2.55561e-09
-1.82522e-09
-1.08632e-07
2.38779e-09
-2.23025e-09
-1.08361e-07
2.1653e-09
-2.48073e-09
-1.07225e-07
1.89249e-09
-2.58252e-09
-1.05844e-07
1.60429e-09
-2.51893e-09
-1.04017e-07
1.32594e-09
-2.29797e-09
-1.01659e-07
1.09877e-09
-1.96643e-09
-9.8516e-08
9.26054e-10
-1.5811e-09
-9.40576e-08
7.82537e-10
-1.17808e-09
-8.79194e-08
6.53602e-10
-7.82163e-10
-7.95454e-08
5.4058e-10
-4.24413e-10
-6.79112e-08
4.34992e-10
-1.4591e-10
-5.10601e-08
3.10539e-10
-2.48445e-08
1.49547e-10
-1.22614e-10
-2.45661e-08
-1.34853e-10
-3.81088e-10
-5.05144e-08
-2.72133e-10
-6.99019e-10
-6.72001e-08
-3.71078e-10
-1.04692e-09
-7.87153e-08
-4.62207e-10
-1.40575e-09
-8.69955e-08
-5.46951e-10
-1.76642e-09
-9.3079e-08
-6.07394e-10
-2.10309e-09
-9.75673e-08
-6.5285e-10
-2.31695e-09
-1.00863e-07
-7.42173e-10
-2.32159e-09
-1.03312e-07
-9.49454e-10
-2.16568e-09
-1.0482e-07
-1.25967e-09
-1.96348e-09
-1.05827e-07
-1.55467e-09
-1.78831e-09
-1.06648e-07
-1.75233e-09
-1.51092e-09
-1.07152e-07
-1.88058e-09
-9.32514e-10
-1.07478e-07
-2.01462e-09
-8.93461e-11
-1.07718e-07
-2.21866e-09
6.03397e-10
-1.07322e-07
-2.29762e-09
1.19978e-09
-1.07118e-07
-2.20501e-09
1.73577e-09
-1.07109e-07
-2.05942e-09
2.03106e-09
-1.06784e-07
-1.8721e-09
2.22065e-09
-1.05763e-07
-1.65201e-09
2.31485e-09
-1.04532e-07
-1.40635e-09
2.26364e-09
-1.02811e-07
-1.15447e-09
2.08643e-09
-1.00525e-07
-9.57014e-10
1.78894e-09
-9.74039e-08
-8.14581e-10
1.4441e-09
-9.30074e-08
-7.05357e-10
1.08637e-09
-8.69598e-08
-6.01857e-10
7.29108e-10
-7.86895e-08
-4.98693e-10
4.05307e-10
-6.71922e-08
-3.95182e-10
1.46041e-10
-5.05263e-08
-2.74492e-10
-2.45707e-08
-1.27816e-10
-4.15761e-10
-2.37307e-08
-4.1972e-10
-1.20805e-09
-4.8824e-08
-8.98061e-10
-2.19704e-09
-6.4964e-08
-1.24712e-09
-3.2801e-09
-7.60834e-08
-1.54873e-09
-4.36835e-09
-8.40437e-08
-1.86351e-09
-5.37712e-09
-8.9855e-08
-2.2153e-09
-6.21524e-09
-9.41198e-08
-2.60936e-09
-6.80868e-09
-9.72163e-08
-3.05349e-09
-7.0831e-09
-9.94853e-08
-3.55217e-09
-6.87136e-09
-1.00833e-07
-4.19784e-09
-6.16557e-09
-1.01528e-07
-5.00567e-09
-5.14897e-09
-1.01931e-07
-5.73329e-09
-3.76605e-09
-1.02243e-07
-6.29257e-09
-2.02687e-09
-1.02485e-07
-6.73177e-09
-3.67222e-11
-1.02691e-07
-7.01673e-09
1.88581e-09
-1.02254e-07
-6.99037e-09
3.6935e-09
-1.02176e-07
-6.74894e-09
5.2752e-09
-1.02378e-07
-6.31305e-09
6.22423e-09
-1.02022e-07
-5.71149e-09
6.84105e-09
-1.01353e-07
-5.02606e-09
7.11429e-09
-1.00567e-07
-4.2379e-09
6.90994e-09
-9.91913e-08
-3.41531e-09
6.31897e-09
-9.70599e-08
-2.87372e-09
5.41496e-09
-9.39867e-08
-2.51322e-09
4.37669e-09
-8.97798e-08
-2.18926e-09
3.30151e-09
-8.40193e-08
-1.86532e-09
2.22252e-09
-7.6074e-08
-1.53646e-09
1.24238e-09
-6.49972e-08
-1.21483e-09
4.51313e-10
-4.88903e-08
-8.44957e-10
-2.37165e-08
-4.02893e-10
-6.8018e-10
-2.23686e-08
-6.8189e-10
-1.96099e-09
-4.60784e-08
-1.4648e-09
-3.56063e-09
-6.13306e-08
-2.0337e-09
-5.30413e-09
-7.1815e-08
-2.52492e-09
-7.04738e-09
-7.92628e-08
-3.03761e-09
-8.63939e-09
-8.46316e-08
-3.63133e-09
-9.93731e-09
-8.85064e-08
-4.31553e-09
-1.08562e-08
-9.11896e-08
-5.10777e-09
-1.13155e-08
-9.30251e-08
-6.00098e-09
-1.10891e-08
-9.41272e-08
-6.93274e-09
-1.0015e-08
-9.45974e-08
-8.00423e-09
-8.23209e-09
-9.4601e-08
-9.11302e-09
-5.89925e-09
-9.45243e-08
-1.00512e-08
-3.11867e-09
-9.45315e-08
-1.07346e-08
-4.0666e-11
-9.46662e-08
-1.1103e-08
3.02191e-09
-9.42973e-08
-1.10196e-08
5.87447e-09
-9.43611e-08
-1.0668e-08
8.34454e-09
-9.48437e-08
-1.00039e-08
1.00243e-08
-9.46606e-08
-9.04074e-09
1.10398e-08
-9.43896e-08
-7.97919e-09
1.13472e-08
-9.39633e-08
-6.91104e-09
1.09582e-08
-9.29625e-08
-5.83985e-09
9.997e-09
-9.11833e-08
-4.91533e-09
8.63409e-09
-8.84776e-08
-4.14618e-09
7.02011e-09
-8.4678e-08
-3.48783e-09
5.31e-09
-7.9408e-08
-2.90124e-09
3.60104e-09
-7.19775e-08
-2.38757e-09
2.02221e-09
-6.15205e-08
-1.8979e-09
7.22395e-10
-4.62559e-08
-1.33456e-09
-2.23501e-08
-6.43961e-10
-9.07876e-10
-2.05591e-08
-9.01665e-10
-2.59352e-09
-4.24521e-08
-1.94066e-09
-4.70282e-09
-5.65134e-08
-2.70788e-09
-7.00525e-09
-6.61691e-08
-3.34353e-09
-9.31792e-09
-7.29582e-08
-3.99197e-09
-1.14602e-08
-7.77406e-08
-4.74869e-09
-1.32434e-08
-8.10645e-08
-5.65866e-09
-1.44479e-08
-8.32552e-08
-6.72998e-09
-1.49391e-08
-8.46074e-08
-7.92647e-09
-1.45885e-08
-8.53123e-08
-9.16547e-09
-1.32748e-08
-8.55142e-08
-1.0397e-08
-1.0925e-08
-8.52942e-08
-1.16566e-08
-7.7599e-09
-8.48416e-08
-1.28478e-08
-4.06586e-09
-8.45057e-08
-1.37198e-08
-3.30311e-11
-8.45169e-08
-1.41821e-08
3.99046e-09
-8.42552e-08
-1.40656e-08
7.72136e-09
-8.44634e-08
-1.36286e-08
1.0936e-08
-8.5201e-08
-1.28573e-08
1.32447e-08
-8.53762e-08
-1.15931e-08
1.45737e-08
-8.54712e-08
-1.02474e-08
1.49597e-08
-8.5295e-08
-9.05435e-09
1.44923e-08
-8.46281e-08
-7.86708e-09
1.32873e-08
-8.32908e-08
-6.68746e-09
1.15247e-08
-8.10933e-08
-5.62167e-09
9.38832e-09
-7.78155e-08
-4.72618e-09
7.09051e-09
-7.31621e-08
-3.94814e-09
4.81454e-09
-6.65177e-08
-3.18384e-09
2.69228e-09
-5.6935e-08
-2.46324e-09
9.51241e-10
-4.27762e-08
-1.73873e-09
-2.05469e-08
-8.51959e-10
-1.08471e-09
-1.84005e-08
-1.07388e-09
-3.08968e-09
-3.81476e-08
-2.29953e-09
-5.62586e-09
-5.0763e-08
-3.21425e-09
-8.42438e-09
-5.93882e-08
-3.98237e-09
-1.12168e-08
-6.5401e-08
-4.76468e-09
-1.37642e-08
-6.95444e-08
-5.64886e-09
-1.58484e-08
-7.22928e-08
-6.68747e-09
-1.72421e-08
-7.39698e-08
-7.89167e-09
-1.77626e-08
-7.48358e-08
-9.25109e-09
-1.72715e-08
-7.50957e-08
-1.07077e-08
-1.57001e-08
-7.49299e-08
-1.21557e-08
-1.30023e-08
-7.44988e-08
-1.34933e-08
-9.22011e-09
-7.38977e-08
-1.4726e-08
-4.78637e-09
-7.32291e-08
-1.57103e-08
-2.40839e-11
-7.30064e-08
-1.62728e-08
4.72145e-09
-7.28195e-08
-1.61813e-08
9.14197e-09
-7.31858e-08
-1.56981e-08
1.29201e-08
-7.411e-08
-1.48691e-08
1.56532e-08
-7.45528e-08
-1.35565e-08
1.72633e-08
-7.49458e-08
-1.21356e-08
1.77717e-08
-7.51141e-08
-1.06892e-08
1.726e-08
-7.4866e-08
-9.25038e-09
1.58719e-08
-7.40081e-08
-7.8947e-09
1.37996e-08
-7.2334e-08
-6.68701e-09
1.12471e-08
-6.95983e-08
-5.66464e-09
8.43615e-09
-6.55175e-08
-4.8336e-09
5.64203e-09
-5.96299e-08
-4.09365e-09
3.1208e-09
-5.10958e-08
-3.318e-09
1.09289e-09
-3.83958e-08
-2.35251e-09
-1.83824e-08
-1.07162e-09
-1.20419e-09
-1.59747e-08
-1.22156e-09
-3.48347e-09
-3.32337e-08
-2.63464e-09
-6.33761e-09
-4.42816e-08
-3.62727e-09
-9.45628e-09
-5.18109e-08
-4.45865e-09
-1.25604e-08
-5.70006e-08
-5.2963e-09
-1.53864e-08
-6.04784e-08
-6.24008e-09
-1.76789e-08
-6.26618e-08
-7.33849e-09
-1.91979e-08
-6.38456e-08
-8.60522e-09
-1.97379e-08
-6.42653e-08
-1.00305e-08
-1.91464e-08
-6.41243e-08
-1.1563e-08
-1.73424e-08
-6.36179e-08
-1.3116e-08
-1.43291e-08
-6.29401e-08
-1.4572e-08
-1.01761e-08
-6.2224e-08
-1.58267e-08
-5.24545e-09
-6.14258e-08
-1.6734e-08
-1.59179e-11
-6.09583e-08
-1.72776e-08
5.22468e-09
-6.08394e-08
-1.72208e-08
1.01401e-08
-6.13432e-08
-1.67582e-08
1.42724e-08
-6.22889e-08
-1.59533e-08
1.73063e-08
-6.29611e-08
-1.46257e-08
1.91289e-08
-6.3637e-08
-1.31313e-08
1.97353e-08
-6.4146e-08
-1.15745e-08
1.92049e-08
-6.42931e-08
-1.00424e-08
1.76932e-08
-6.38798e-08
-8.61658e-09
1.54075e-08
-6.27023e-08
-7.34606e-09
1.25838e-08
-6.0525e-08
-6.2496e-09
9.46083e-09
-5.70631e-08
-5.33139e-09
6.3101e-09
-5.19278e-08
-4.55144e-09
3.44973e-09
-4.44719e-08
-3.76359e-09
1.19645e-09
-3.34185e-08
-2.72403e-09
-1.59602e-08
-1.22578e-09
-1.25889e-09
-1.34026e-08
-1.31332e-09
-3.70877e-09
-2.79519e-08
-2.83191e-09
-6.75727e-09
-3.73776e-08
-3.85557e-09
-1.00697e-08
-4.37782e-08
-4.72025e-09
-1.33636e-08
-4.81205e-08
-5.58614e-09
-1.63537e-08
-5.09409e-08
-6.5474e-09
-1.87684e-08
-5.25934e-08
-7.65368e-09
-2.03538e-08
-5.33385e-08
-8.92166e-09
-2.08923e-08
-5.33912e-08
-1.03357e-08
-2.02256e-08
-5.29457e-08
-1.18454e-08
-1.82756e-08
-5.2189e-08
-1.3379e-08
-1.50462e-08
-5.13191e-08
-1.48505e-08
-1.07e-08
-5.04513e-08
-1.61189e-08
-5.50803e-09
-4.96408e-08
-1.69769e-08
-8.31814e-12
-4.9071e-08
-1.7387e-08
5.50846e-09
-4.90222e-08
-1.7334e-08
1.06784e-08
-4.95895e-08
-1.69237e-08
1.50075e-08
-5.04893e-08
-1.61287e-08
1.82406e-08
-5.13352e-08
-1.48589e-08
2.02031e-08
-5.22046e-08
-1.3395e-08
2.08824e-08
-5.29635e-08
-1.18618e-08
2.03549e-08
-5.34152e-08
-1.03505e-08
1.87784e-08
-5.33681e-08
-8.93522e-09
1.63681e-08
-5.26283e-08
-7.6638e-09
1.33806e-08
-5.09812e-08
-6.55633e-09
1.00838e-08
-4.81674e-08
-5.5989e-09
6.75187e-09
-4.38417e-08
-4.7542e-09
3.69473e-09
-3.74929e-08
-3.92179e-09
1.2696e-09
-2.81182e-08
-2.87515e-09
-1.33835e-08
-1.30712e-09
-1.29867e-09
-1.07682e-08
-1.33574e-09
-3.79499e-09
-2.25943e-08
-2.86129e-09
-6.90298e-09
-3.03505e-08
-3.91908e-09
-1.02895e-08
-3.55961e-08
-4.79554e-09
-1.36576e-08
-3.90995e-08
-5.65296e-09
-1.67117e-08
-4.12953e-08
-6.59151e-09
-1.91694e-08
-4.24736e-08
-7.6622e-09
-2.07691e-08
-4.28589e-08
-8.8798e-09
-2.12908e-08
-4.26433e-08
-1.02263e-08
-2.05802e-08
-4.19995e-08
-1.16567e-08
-1.85518e-08
-4.1108e-08
-1.31095e-08
-1.52313e-08
-4.01318e-08
-1.45078e-08
-1.08647e-08
-3.91623e-08
-1.56556e-08
-5.66749e-09
-3.8399e-08
-1.6439e-08
-4.46437e-11
-3.79035e-08
-1.67904e-08
5.55166e-09
-3.78506e-08
-1.67679e-08
1.07277e-08
-3.83368e-08
-1.64288e-08
1.51622e-08
-3.92124e-08
-1.57115e-08
1.85164e-08
-4.01484e-08
-1.4541e-08
2.05547e-08
-4.11152e-08
-1.31277e-08
2.12776e-08
-4.20121e-08
-1.16742e-08
2.07654e-08
-4.2661e-08
-1.0242e-08
1.91735e-08
-4.28828e-08
-8.8934e-09
1.6721e-08
-4.25013e-08
-7.6744e-09
1.36694e-08
-4.13267e-08
-6.60293e-09
1.03014e-08
-3.91357e-08
-5.66371e-09
6.90933e-09
-3.56382e-08
-4.81135e-09
3.78654e-09
-3.04114e-08
-3.95873e-09
1.28621e-09
-2.26972e-08
-2.92069e-09
-1.07582e-08
-1.33908e-09
-1.28726e-09
-8.17496e-09
-1.30594e-09
-3.73177e-09
-1.7356e-08
-2.79385e-09
-6.79285e-09
-2.34506e-08
-3.83887e-09
-1.01415e-08
-2.7561e-08
-4.68659e-09
-1.3479e-08
-3.0258e-08
-5.50396e-09
-1.65092e-08
-3.18758e-08
-6.38924e-09
-1.89434e-08
-3.26483e-08
-7.39098e-09
-2.05204e-08
-3.27598e-08
-8.52215e-09
-2.10241e-08
-3.23714e-08
-9.76822e-09
-2.02991e-08
-3.16386e-08
-1.10859e-08
-1.82729e-08
-3.07137e-08
-1.24205e-08
-1.50076e-08
-2.97264e-08
-1.36708e-08
-1.07113e-08
-2.87915e-08
-1.46671e-08
-5.61501e-09
-2.80954e-08
-1.53999e-08
-5.05774e-11
-2.77087e-08
-1.57592e-08
5.48026e-09
-2.76506e-08
-1.57308e-08
1.05826e-08
-2.80474e-08
-1.53918e-08
1.4936e-08
-2.88349e-08
-1.47309e-08
1.82374e-08
-2.97451e-08
-1.37047e-08
2.02717e-08
-3.07168e-08
-1.24326e-08
2.10053e-08
-3.16455e-08
-1.11002e-08
2.05135e-08
-3.23849e-08
-9.78436e-09
1.89441e-08
-3.27762e-08
-8.53716e-09
1.65146e-08
-3.26688e-08
-7.40301e-09
1.34879e-08
-3.19e-08
-6.40008e-09
1.01523e-08
-3.02856e-08
-5.51452e-09
6.80088e-09
-2.75897e-08
-4.69718e-09
3.73186e-09
-2.34867e-08
-3.85569e-09
1.27271e-09
-1.741e-08
-2.82802e-09
-8.17711e-09
-1.30836e-09
-1.21546e-09
-5.73685e-09
-1.22266e-09
-3.52607e-09
-1.24262e-08
-2.61922e-09
-6.4375e-09
-1.69396e-08
-3.59948e-09
-9.64421e-09
-1.99694e-08
-4.38486e-09
-1.28588e-08
-2.19103e-08
-5.1332e-09
-1.57895e-08
-2.30078e-08
-5.93731e-09
-1.81485e-08
-2.34427e-08
-6.84659e-09
-1.96792e-08
-2.33594e-08
-7.86971e-09
-2.01677e-08
-2.28901e-08
-8.9927e-09
-1.9465e-08
-2.21593e-08
-1.0182e-08
-1.75012e-08
-2.1286e-08
-1.13915e-08
-1.4377e-08
-2.0377e-08
-1.24737e-08
-1.02525e-08
-1.95646e-08
-1.33515e-08
-5.36849e-09
-1.89654e-08
-1.4014e-08
-4.40179e-11
-1.86574e-08
-1.43758e-08
5.25123e-09
-1.86103e-08
-1.43356e-08
1.01439e-08
-1.89347e-08
-1.40054e-08
1.43115e-08
-1.95909e-08
-1.34115e-08
1.74668e-08
-2.03921e-08
-1.25084e-08
1.94363e-08
-2.12914e-08
-1.13949e-08
2.01479e-08
-2.21633e-08
-1.01938e-08
1.96694e-08
-2.2898e-08
-9.00834e-09
1.81475e-08
-2.33704e-08
-7.88403e-09
1.57934e-08
-2.34562e-08
-6.85854e-09
1.2866e-08
-2.30246e-08
-5.94805e-09
9.65066e-09
-2.19283e-08
-5.14197e-09
6.44314e-09
-1.99888e-08
-4.39339e-09
3.53008e-09
-1.69645e-08
-3.60915e-09
1.21273e-09
-1.24585e-08
-2.63414e-09
-5.74049e-09
-1.22389e-09
-1.08331e-09
-3.56863e-09
-1.08491e-09
-3.16566e-09
-8.01221e-09
-2.33163e-09
-5.83212e-09
-1.10793e-08
-3.1939e-09
-8.80389e-09
-1.3124e-08
-3.87364e-09
-1.1813e-08
-1.43813e-08
-4.51985e-09
-1.45789e-08
-1.50258e-08
-5.21608e-09
-1.68189e-08
-1.51935e-08
-6.00922e-09
-1.82824e-08
-1.49906e-08
-6.9053e-09
-1.87645e-08
-1.45154e-08
-7.89274e-09
-1.81216e-08
-1.38601e-08
-8.94202e-09
-1.62979e-08
-1.31104e-08
-9.99935e-09
-1.3391e-08
-1.23629e-08
-1.0921e-08
-9.54269e-09
-1.17093e-08
-1.17036e-08
-4.98872e-09
-1.12283e-08
-1.22911e-08
-3.73646e-11
-1.09817e-08
-1.26271e-08
4.89e-09
-1.09539e-08
-1.25837e-08
9.44448e-09
-1.12104e-08
-1.22787e-08
1.33185e-08
-1.17175e-08
-1.17475e-08
1.62552e-08
-1.23687e-08
-1.096e-08
1.80929e-08
-1.31143e-08
-1.00148e-08
1.87444e-08
-1.38625e-08
-8.95235e-09
1.82721e-08
-1.45194e-08
-7.90624e-09
1.68162e-08
-1.49965e-08
-6.91793e-09
1.45805e-08
-1.52015e-08
-6.01906e-09
1.18172e-08
-1.50353e-08
-5.22597e-09
8.80825e-09
-1.43922e-08
-4.52713e-09
5.83774e-09
-1.31383e-08
-3.87994e-09
3.1734e-09
-1.11021e-08
-3.19809e-09
1.08585e-09
-8.03653e-09
-2.33445e-09
-3.57113e-09
-1.08352e-09
-8.85629e-10
-1.7986e-09
-8.84416e-10
-2.64586e-09
-4.34914e-09
-1.90285e-09
-4.96689e-09
-6.17159e-09
-2.58669e-09