/*--------------------------------*- C++ -*----------------------------------*\
| =========                 |                                                 |
| \\      /  F ield         | OpenFOAM: The Open Source CFD Toolbox           |
|  \\    /   O peration     | Version:  v1912                                 |
|   \\  /    A nd           | Website:  www.openfoam.com                      |
|    \\/     M anipulation  |                                                 |
\*---------------------------------------------------------------------------*/
FoamFile
{
    version     2.0;
    format      ascii;
    class       volScalarField;
    location    "348/oil";
    object      wallHeatFlux;
}
// * * * * * * * * * * * * * * * * * * * * * * * * * * * * * * * * * * * * * //

dimensions      [1 0 -3 0 0 0 0];


internalField   uniform 0;

boundaryField
{
    maxY
    {
        type            calculated;
        value           uniform 0;
    }
    minX
    {
        type            calculated;
        value           uniform 0;
    }
    maxX
    {
        type            calculated;
        value           uniform 0;
    }
    minY
    {
        type            calculated;
        value           uniform 0;
    }
    minZ
    {
        type            calculated;
        value           uniform 0;
    }
    maxZ
    {
        type            calculated;
        value           uniform 0;
    }
    oil_to_sphere
    {
        type            calculated;
        value           nonuniform List<scalar> 
1536
(
1135.57
856.139
849.775
340.606
327.665
842.627
616.981
710.097
676.582
384.771
179.691
423.042
671.527
433.941
113.66
586.436
843.346
863.275
571.499
656.937
775.408
680.994
700.766
583.446
610.765
596.975
609.613
549.208
826.47
690.291
910.221
858.053
867.772
589.246
605.741
551.51
577.242
494.973
546.73
608.009
535.322
576.084
667.035
724.452
793.158
604.532
770.481
697.382
134.971
595.56
749.296
680.55
691.888
583.001
817.368
1008.81
697.508
657.572
771.029
744.833
660.144
668.517
654.72
575.624
603.044
647.799
656.188
755.756
753.313
815.934
574.258
328.229
418.136
597.703
596.296
1027.19
871.267
498.023
587.087
853.697
779.137
738.067
342.28
334.867
825.057
1081.66
270.976
632.537
745.272
743.848
676.736
560.805
556.29
568.894
595.97
722.001
773.476
792.537
891.499
737.4
781.124
570.215
1140.22
751.785
406.032
590.992
613.789
360.455
358.02
1147.54
868.376
708.836
666.519
701.618
302.505
330.053
247.697
957.423
1109.77
884.085
688.769
701.562
543.558
770.034
906.952
724.484
686.681
525.044
787.222
769.729
649.035
758.476
813.665
616.511
634.053
829.934
703.115
855.96
530.319
846.148
679.112
766.615
769.431
670.858
638.583
664.673
726.503
948.78
639.188
1151.95
804.506
848.865
697.384
712.896
596.836
726.169
827.838
766.894
1198.43
894.729
867.627
962.519
453.903
498.367
564.577
559.711
812.979
934.619
890.891
1011.65
548.386
565.82
500.884
774.52
688.734
714.082
1057.54
473.891
410.895
1081.54
553.252
502.293
491.752
517.976
746.904
1082.33
896.816
535.225
446.613
858.694
464.795
810.465
810.55
934.936
419.948
53.9519
924.512
962.881
612.052
594.108
681.9
620.037
863.267
921.303
797.859
738.933
568.388
944.133
893.941
712.531
524.654
602.823
591.518
625.133
779.559
1018.4
449.069
429.2
437.636
16.306
842.663
775.888
735.842
679.617
691.753
945.175
808.664
599.676
844.326
387.434
552.654
66.8584
669.478
826.456
925.9
897.324
843.757
785.073
882.936
417.601
457.702
496.325
969.176
510.839
62.6812
257.676
777.867
662.932
1063.25
1191.28
706.504
334.598
23.651
743.914
888.809
569.542
578.098
289.541
559.197
944.319
1093.33
655.952
577.678
994.174
899.167
600.243
407.345
635.91
1027.37
960.648
785.733
811.557
914.078
491.941
589.142
928.909
811.099
852.731
667.268
845.035
1010.8
795.562
772.614
979.437
572.214
568.492
593.354
546.133
563.026
938.932
1035.87
425.151
626.258
611.427
622.455
534.647
692.453
664.746
504.371
293.483
555.737
426.061
531.817
1083.15
986.167
981.098
1165.16
473.855
494.132
683.003
1152.9
1093.64
553.301
669.63
538.608
805.755
583.177
770.612
793.867
873.221
818.949
606.547
829.179
552.579
915.796
951.919
853.47
830.861
511.439
1043.64
1031.76
800.571
413.338
569.268
619.006
795.036
767.459
808.452
502.453
911.244
919.123
875.473
979.36
757.823
723.287
657.878
457.32
725.308
800.792
454.738
434.528
484.143
1122.92
905.715
979.725
764.579
718.596
933.486
441.374
1062.63
872.763
724.001
718.393
423.528
870.465
899.284
522.194
724.595
651.318
578.738
806.712
906.572
666.827
598.933
476.32
1018.9
917.671
432.242
936.24
897.464
842.932
1018.01
720.356
821.237
379.267
421.904
792.874
1152.87
855.399
1061.79
761.32
615.275
889.99
483.165
538.492
769.248
901.488
810.926
767.344
494.946
495.265
930.246
914.747
918.469
714.32
560.935
775.615
831.276
897.8
730.409
633.856
513.751
705.829
469.972
361.326
567.308
516.378
710.046
386.567
618.46
1044.97
612.127
608.706
898.493
895.002
800.987
652.453
451.326
852.538
982.869
787.271
733.896
862.775
670.975
700.017
759.728
339.503
784.548
919.438
977.163
887.395
824.846
812.382
733.001
640.437
483.49
687.684
513.455
424.28
538.64
359.267
1091.69
1053.49
953.502
1135.12
476.962
1095.09
500.021
554.679
841.688
457.569
491.496
621.781
611.979
1063.15
984.504
760.591
780.511
1013.95
932.106
729.943
829.272
528.684
902.041
412.803
974.044
336.926
817.62
851.614
887.475
604.829
479.738
646.832
896.155
659.941
392.965
900.44
922.102
956.852
1170.82
729.587
1004.19
471.334
506.572
147.452
257.495
728.034
620.363
584.548
539.116
1114.63
497.398
441.409
402.339
622.895
386.363
1194.93
527.106
547.69
689.804
186.276
284.065
569.318
562.005
666.887
597.783
920.179
886.046
813.775
727.017
367.011
583.609
876.788
482.635
523.05
852.482
1021.72
527.798
146.103
457.283
178.867
682.963
605.127
548.454
411.626
183.768
807.933
846.763
768.852
678.709
1029.69
816.689
795.524
719.303
509.397
592.835
919.116
814.736
629.265
248.182
737.295
866.351
1045.58
746.753
569.806
1046.87
692.342
1007.81
525.687
604.378
489.27
611.74
741.514
1021.65
479.542
544.534
507.751
623.947
1202.51
413.807
589.32
437.559
691.523
740.199
922.197
1029.69
369.474
414.545
1025.89
1060.37
312.186
1009.13
937.154
854.654
928.57
796.105
706.953
721.546
1016.71
728.775
800.774
705.229
899.066
748.491
684.23
665.181
456.611
853.329
677.935
894.509
823.466
829.672
813.632
731.109
421.975
927.895
926.046
805.046
681.199
754.443
1138.41
381.83
520.725
466.658
738.039
534.996
1141.19
613.233
641.858
696.43
154.276
198.974
577.961
572.253
719.641
489.146
539.974
746.541
550.928
1031.85
458.512
1123.75
611.394
730.883
64.5542
188.589
143.127
549.147
855.005
588.581
549.538
181.998
709.171
870.146
714.381
1272.81
526.784
919.311
799.913
864.385
944.365
933.499
862.404
690.65
634.056
686.84
864.83
652.903
772.415
743.981
767.202
888.958
815.238
852.255
451.867
514.824
46.521
292.561
353.865
-116.876
569.488
598.524
653.469
683.389
360.286
461.721
628.458
962.332
931.623
623.218
399.842
670.84
881.155
802.888
697.071
380.488
526.602
808.934
755.346
691.999
578.663
834.819
839.665
1018.35
843.308
734.712
598.22
535.506
451.412
564.571
660.503
1156.56
728.257
1082.74
530.403
1179.41
569.671
662.934
472.509
500.232
600.643
446
647.774
384.534
581.613
915.183
617.939
429.525
1037.16
826.855
777.613
674.585
1008.68
1310.57
298.292
818.615
761.992
800.047
444.85
678.863
537.18
764.61
845.618
933.247
507.269
807.503
717.151
838.214
821.209
793.316
625.113
657.986
585.492
396.316
366.129
486.74
994.393
582.816
440.262
590.622
922.153
644.306
992.139
885.169
786.023
734.08
780.583
1051.62
487.255
813.846
937.082
965.778
729.159
534.484
638.012
781.624
973.892
468.058
661.183
720.864
915.051
781.825
777.491
1002.32
473.046
546.457
510.824
1053.24
930.049
722.913
912.659
549.366
581.57
911.64
775.723
1019.99
499.746
867.992
901.723
742.215
766.612
852.164
505.28
350.257
702.234
777.124
1063.04
667.577
564.131
686.304
783.568
863.674
733.886
540.779
669.701
899.425
473.679
540.781
669.901
577.697
757.823
732.782
959.852
798.702
885.769
589.408
688.87
757.259
679.172
636.54
597.749
593.881
479.238
831.17
750.215
750.245
787.493
414.308
613.039
1042.91
1049.31
540.919
918.576
782.346
828.864
590.077
969.481
950.088
493.793
643.773
608.852
597.29
405.464
462.775
608.84
943.899
1141.21
564.396
849.901
829.995
776.465
653.33
759.272
958.112
750.395
502.343
615.084
590.744
603.258
800.431
828.269
832.685
846.403
844.777
542.88
860.59
622.027
816.67
183.929
788.605
986.353
635.453
298.057
697.763
658.135
1081.51
515.597
861.01
684.576
346.03
1032.28
428.763
660.981
705.896
411.733
918.981
761.691
653.449
723.273
759.769
660.038
1097.23
435.963
603.734
112.094
625.888
636.844
715.082
916.533
1326.36
388.621
606.764
1234.56
430.948
840.19
534.847
828.267
275.994
516.946
1225.14
327.9
1163.94
373.351
1067.3
350.278
512.118
142.473
437.055
1185.8
215.381
680.932
326.798
1003.91
1189.49
230.41
640.288
569.164
503.028
493.772
610.22
708.984
707.894
820.776
686.263
1011.19
1257.23
224.462
709.135
786.755
708.61
741.392
672.323
637.026
671.131
877.577
678.256
882.821
600.165
749.752
986.791
633.34
810.336
922.89
598.747
749.764
684.852
817.467
661.916
726.959
640.783
908.891
616.886
774.687
370.371
1024.06
243.311
775.227
897.897
1034.54
521.787
736.61
686.909
736.13
716.463
677.873
873.34
489.188
44.7705
641.185
301.591
933.082
527.095
701.691
836.531
79.3814
974.124
479.859
169.866
510.382
841.74
824.002
713.625
219.926
709.594
749.818
561.741
528.716
941.372
903.266
584.714
719.268
942.935
226.857
873.598
522.922
811.45
252.981
1139.52
1113.86
901.072
708.273
637.71
833.745
625.988
215.889
468.829
850.645
535.455
794.432
295.784
926.257
812.01
-56.2112
711.376
763.343
98.0136
981.543
363.25
937.141
1027.57
868.327
177.176
724.813
647.225
714.323
731.142
795.34
230.913
595.456
541.9
543.389
918.479
698.224
768.8
824.72
811.188
643.361
733.455
656.792
772.561
947.603
583.549
631.63
568.869
728.51
895.177
580.303
624.165
602.357
701.896
540.498
559.968
622.157
641.15
728.845
615.393
1019.85
874.553
317.683
325.983
980.342
-115.738
856.796
748.015
540.042
642.126
992.02
79.1648
931.003
768.445
198.148
606.139
561.501
701.709
52.8706
976.843
777.309
86.8969
956.096
961.636
264.643
1037.01
902.163
271.533
567.652
541.77
85.3746
707.775
736.451
473.823
522.914
503.548
-36.5061
516.566
63.7738
-69.2708
912.211
567.263
1186.29
584.163
227.603
981.024
659.732
136.675
583.084
570.719
130.659
325.851
966.766
-197.222
471.064
427.704
-116.455
930.883
882.4
705.89
618.852
566.467
472.802
13.6387
714.017
623.027
634.691
706.752
169.163
845.745
584.176
676.819
560.678
668.02
727.307
457.35
192.069
610.893
739.568
578.776
618.276
685.267
521.795
629.91
157.506
584.915
767.125
564.592
644.112
529.295
200.632
987.538
978.27
954.036
1038.71
261.705
101.356
590.293
859.96
735.248
837.38
877.06
471.851
417.451
111.779
231.233
519.931
680.338
664.256
652.818
419.533
915.304
769.543
276.835
508.791
461.202
871.704
526.747
11.4342
683.156
694.638
928.669
147.787
566.498
731.756
599.062
642.424
828.167
674.22
478.274
1064.76
-76.583
379.434
650.398
524.36
611.926
1034.25
778.799
698.111
386.926
989.787
593.973
726.749
876.328
928.896
908.236
927.097
1015.49
1072.54
1004.85
1005.75
703.472
888.977
582.702
641.708
412.228
344.767
-29.9863
1044.91
1028.15
953.183
629.881
728.856
711.923
532.478
743.05
884.885
487.166
655.941
815.902
566.376
588.549
575.55
626.403
519.657
618.27
596.872
254.299
729.344
491.645
653.843
130.437
1044.25
665.417
549.531
510.332
283.25
693.817
556.655
88.771
379.195
659.125
335.95
399.063
1083.93
1112.3
599.428
601.738
849.493
1029.95
82.1324
530.692
519.609
613.382
611.579
633.075
671.288
413.137
208.224
976.845
605.63
361.711
408.174
598.956
701.159
288.222
639.917
531.771
582.547
1034.53
369.596
218.132
611.644
563.616
519.19
214.916
931.687
595.505
584.149
597.057
92.1548
599.615
610.911
228.251
592.831
377.668
770.101
967.775
531.966
888.078
758.385
540.917
549.974
619.361
215.842
754.727
790.489
572.763
147.545
454.99
646.79
664.963
535.976
188.844
546.358
929.443
759.591
552.383
1076.34
370.599
874.659
102.063
356.873
896.552
93.0432
912.342
548.641
699.98
583.516
1104.57
429.751
705.995
1035.08
988.452
312.295
969.381
1035.42
-101.444
642
561.107
117.268
789.412
555.395
585.103
586.065
675.121
635.522
573.092
551.128
100.776
787.754
699.848
684.734
725.286
629.723
539.569
458.464
845.007
24.9375
512.841
502.747
48.7991
899.567
1059.87
662.285
952.839
989.153
527.715
541.427
781.423
950.132
519.817
813.487
406.753
119.424
851.935
488.425
928.672
1075.24
1026.61
147.765
880.85
708.627
477.506
570.39
612.784
558.18
158.068
948.576
175.411
939.176
625.85
406.903
360.149
631.73
823.502
1008.18
689.94
1154.86
858.287
914.703
82.9097
886.493
835.703
930.402
528.182
483.74
22.4021
660.84
1133.81
955.827
201.685
425
172.146
527.753
671.974
399.957
1282.67
586.455
426.425
215.409
756.228
489.612
58.5418
642.817
552.902
561.155
570.257
574.214
220.539
405.187
120.728
556.358
856.543
772.298
969.861
929.764
513.448
459.005
98.9253
542.185
826.845
995.953
857.018
872.86
363.396
43.0633
434.404
3.58773
847.523
868.502
459.843
907.514
842.404
970.467
742.606
700.823
692.974
513.401
87.4252
445.567
145.654
391.193
570.587
535.572
255.285
144.205
809.293
1136.22
1077.7
1026.93
686.184
799.893
789.667
661.304
569.306
661.049
476.055
624.667
627.095
146.919
841.79
605.031
426.654
245.886
549.412
679.915
676.904
536.804
248.573
1009.98
752.139
559.116
1069.89
485.64
124.357
774.634
626.312
628.948
628.891
543.576
21.109
629.384
621.439
179.637
994.064
595.043
-194.316
569.382
668.261
686.579
541.842
156.971
503.622
517.669
344.154
641.084
101.166
653.925
638.05
320.53
1063.77
619.772
227.962
1122.01
662.516
662.419
241.245
637.933
173.614
)
;
    }
}


// ************************************************************************* //
