/*--------------------------------*- C++ -*----------------------------------*\
| =========                 |                                                 |
| \\      /  F ield         | OpenFOAM: The Open Source CFD Toolbox           |
|  \\    /   O peration     | Version:  v1906                                 |
|   \\  /    A nd           | Web:      www.OpenFOAM.com                      |
|    \\/     M anipulation  |                                                 |
\*---------------------------------------------------------------------------*/
FoamFile
{
    version     2.0;
    format      ascii;
    class       volScalarField;
    location    "81";
    object      k;
}
// * * * * * * * * * * * * * * * * * * * * * * * * * * * * * * * * * * * * * //

dimensions      [0 2 -2 0 0 0 0];


internalField   nonuniform List<scalar> 
78750
(
1.57472e-06
5.05698e-06
8.32604e-06
1.15209e-05
1.46019e-05
1.75025e-05
2.0188e-05
2.26394e-05
2.48455e-05
2.68004e-05
2.8502e-05
2.99516e-05
3.11528e-05
3.21114e-05
3.28339e-05
3.33146e-05
3.356e-05
3.35784e-05
3.33772e-05
3.29616e-05
3.23411e-05
3.15053e-05
3.04532e-05
2.91831e-05
2.76886e-05
2.59611e-05
2.39903e-05
2.17577e-05
1.92472e-05
1.64465e-05
1.33347e-05
9.93237e-06
6.49351e-06
3.6286e-06
1.91368e-06
1.46555e-06
1.50507e-05
2.77487e-05
3.92389e-05
4.93909e-05
5.82355e-05
6.58304e-05
7.22215e-05
7.74701e-05
8.16546e-05
8.48606e-05
8.71743e-05
8.8679e-05
8.94555e-05
8.95876e-05
8.9166e-05
8.82566e-05
8.69185e-05
8.52069e-05
8.31718e-05
8.08568e-05
7.82855e-05
7.54779e-05
7.24474e-05
6.91915e-05
6.56967e-05
6.19543e-05
5.7927e-05
5.34837e-05
4.84027e-05
4.23327e-05
3.48528e-05
2.61883e-05
1.79049e-05
1.19917e-05
2.32942e-06
2.19285e-05
3.99974e-05
5.60707e-05
6.97066e-05
8.08501e-05
8.97526e-05
9.67569e-05
0.000102157
0.000106172
0.000108968
0.000110684
0.000111439
0.000111345
0.000110507
0.000109029
0.000107009
0.00010455
0.000101749
9.87021e-05
9.54978e-05
9.22078e-05
8.88789e-05
8.5531e-05
8.21454e-05
7.8668e-05
7.50137e-05
7.10599e-05
6.66155e-05
6.13603e-05
5.47978e-05
4.64907e-05
3.70041e-05
2.76338e-05
2.02913e-05
4.19303e-06
2.92354e-05
5.1982e-05
7.15657e-05
8.73665e-05
9.95381e-05
0.00010871
0.000115525
0.000120446
0.000123782
0.000125747
0.000126501
0.000126176
0.000124887
0.000122748
0.000119876
0.000116398
0.000112454
0.000108197
0.000103791
9.94098e-05
9.52187e-05
9.13451e-05
8.7842e-05
8.46727e-05
8.17175e-05
7.87882e-05
7.56377e-05
7.1945e-05
6.72698e-05
6.10566e-05
5.29923e-05
4.39266e-05
3.45699e-05
2.6265e-05
6.21874e-06
3.609e-05
6.2828e-05
8.51193e-05
0.000102243
0.000114737
0.000123712
0.000130095
0.000134468
0.000137173
0.000138416
0.000138331
0.000137017
0.000134568
0.000131094
0.000126729
0.000121639
0.000116018
0.000110087
0.000104093
9.8311e-05
9.30266e-05
8.84706e-05
8.47452e-05
8.18116e-05
7.95075e-05
7.756e-05
7.55954e-05
7.31396e-05
6.96057e-05
6.43612e-05
5.71614e-05
4.88446e-05
3.9639e-05
3.03903e-05
8.43952e-06
4.25165e-05
7.26355e-05
9.70885e-05
0.000115159
0.000127854
0.000136733
0.000142914
0.000147005
0.000149319
0.000150019
0.000149196
0.000146919
0.000143272
0.000138379
0.000132417
0.000125611
0.000118229
0.000110574
0.000102984
9.58452e-05
8.95512e-05
8.43756e-05
8.03944e-05
7.75438e-05
7.56509e-05
7.4424e-05
7.34375e-05
7.21247e-05
6.97837e-05
6.56947e-05
5.95953e-05
5.20908e-05
4.30778e-05
3.31902e-05
1.05377e-05
4.81228e-05
8.10325e-05
0.000107262
0.000126144
0.000139098
0.000148009
0.000154104
0.000157997
0.000159979
0.000160178
0.00015865
0.000155442
0.000150642
0.000144406
0.000136961
0.000128598
0.000119652
0.000110502
0.000101574
9.33564e-05
8.63244e-05
8.07057e-05
7.65047e-05
7.36353e-05
7.19385e-05
7.11479e-05
7.08464e-05
7.0434e-05
6.91314e-05
6.6127e-05
6.10705e-05
5.4284e-05
4.54756e-05
3.53544e-05
1.24195e-05
5.30897e-05
8.84916e-05
0.000116357
0.000136047
0.00014932
0.000158338
0.000164421
0.000168187
0.000169901
0.00016966
0.00016749
0.000163433
0.000157598
0.000150181
0.000141468
0.000131806
0.000121595
0.000111277
0.00010136
9.24291e-05
8.49485e-05
7.90009e-05
7.45167e-05
7.14071e-05
6.95583e-05
6.87775e-05
6.87195e-05
6.88171e-05
6.82591e-05
6.61409e-05
6.19722e-05
5.58298e-05
4.73391e-05
3.7434e-05
1.41596e-05
5.76556e-05
9.53433e-05
0.000124737
0.000145231
0.000158877
0.000168056
0.000174162
0.000177817
0.000179269
0.000178592
0.000175799
0.000170935
0.000164137
0.000155645
0.000145794
0.000134991
0.000123692
0.000112407
0.000101735
9.23631e-05
8.46724e-05
7.85829e-05
7.39438e-05
7.06373e-05
6.8568e-05
6.76083e-05
6.75086e-05
6.77884e-05
6.7667e-05
6.61862e-05
6.27197e-05
5.71535e-05
4.90979e-05
3.97356e-05
1.57758e-05
6.18974e-05
0.000101713
0.00013254
0.000153802
0.000167811
0.000177153
0.00018329
0.00018685
0.000188066
0.000186992
0.000183628
0.000178029
0.00017036
0.000160905
0.000150049
0.000138249
0.000126019
0.000113931
0.000102677
9.30312e-05
8.52414e-05
7.9097e-05
7.43781e-05
7.09304e-05
6.86547e-05
6.7461e-05
6.71799e-05
6.74303e-05
6.75048e-05
6.64422e-05
6.35156e-05
5.84676e-05
5.09164e-05
4.22308e-05
1.7392e-05
6.60855e-05
0.000107971
0.000140179
0.000162178
0.000176541
0.000186037
0.00019219
0.000195634
0.000196589
0.000195092
0.00019114
0.000184802
0.000176272
0.000165878
0.000154053
0.000141306
0.000128204
0.000115388
0.000103649
9.38432e-05
8.607e-05
8.00026e-05
7.53453e-05
7.18935e-05
6.95247e-05
6.81606e-05
6.76849e-05
6.78072e-05
6.79133e-05
6.70857e-05
6.4549e-05
5.99419e-05
5.28857e-05
4.48565e-05
1.89995e-05
7.01491e-05
0.000113982
0.000147466
0.000170138
0.000184824
0.000194465
0.000200639
0.000203981
0.000204697
0.000202808
0.000198307
0.000191277
0.000181942
0.000170669
0.000157934
0.000144294
0.000130369
0.000116863
0.000104659
9.47034e-05
8.6964e-05
8.10199e-05
7.65025e-05
7.31514e-05
7.08074e-05
6.9381e-05
6.87789e-05
6.87726e-05
6.8838e-05
6.81269e-05
6.58621e-05
6.16131e-05
5.49875e-05
4.74966e-05
2.06534e-05
7.42148e-05
0.00011995
0.000154666
0.000177974
0.000192962
0.000202735
0.000208915
0.000212139
0.000212599
0.000210304
0.000205249
0.000197531
0.000187407
0.000175279
0.000161665
0.000147165
0.000132448
0.000118277
0.000105628
9.55263e-05
8.78361e-05
8.20516e-05
7.77354e-05
7.45699e-05
7.23542e-05
7.09748e-05
7.03389e-05
7.02518e-05
7.02583e-05
6.95881e-05
6.74967e-05
6.35123e-05
5.72139e-05
5.01031e-05
2.23376e-05
7.82365e-05
0.000125786
0.000161648
0.000185539
0.000200808
0.000210711
0.00021691
0.000220035
0.000220263
0.000217593
0.000212018
0.000203656
0.00019279
0.000179854
0.000165404
0.000150078
0.000134589
0.000119753
0.00010663
9.634e-05
8.8668e-05
8.30349e-05
7.89411e-05
7.60105e-05
7.39974e-05
7.27568e-05
7.21815e-05
7.20869e-05
7.2062e-05
7.14065e-05
6.94237e-05
6.56213e-05
5.95374e-05
5.26394e-05
2.40526e-05
8.22098e-05
0.000131511
0.000168474
0.000192923
0.000208463
0.000218494
0.00022471
0.000227736
0.000227737
0.0002247
0.000218625
0.000209647
0.000198075
0.000184375
0.000169132
0.000153016
0.000136778
0.000121281
0.000107662
9.71423e-05
8.94614e-05
8.39725e-05
8.01118e-05
7.74538e-05
7.57033e-05
7.46788e-05
7.42476e-05
7.42174e-05
7.41986e-05
7.3546e-05
7.1619e-05
6.7919e-05
6.19376e-05
5.51032e-05
2.58063e-05
8.61841e-05
0.000137183
0.000175195
0.000200169
0.000215972
0.000226137
0.000232384
0.000235332
0.000235128
0.000231754
0.000225215
0.000215663
0.000203431
0.000189013
0.000173017
0.00015614
0.000139164
0.000122997
0.000108834
9.80075e-05
9.0254e-05
8.48699e-05
8.12311e-05
7.88524e-05
7.73991e-05
7.66473e-05
7.64314e-05
7.65373e-05
7.65769e-05
7.59408e-05
7.40412e-05
7.03818e-05
6.44044e-05
5.74991e-05
2.75689e-05
9.00656e-05
0.000142687
0.000181703
0.000207186
0.000223253
0.000233558
0.000239847
0.000242726
0.000242334
0.000238644
0.000231672
0.000221587
0.000208745
0.000193658
0.000176955
0.000159352
0.000141656
0.000124819
0.00011008
9.88891e-05
9.10144e-05
8.57055e-05
8.22826e-05
8.02046e-05
7.90827e-05
7.86548e-05
7.87164e-05
7.90206e-05
7.9165e-05
7.85595e-05
7.66637e-05
7.29881e-05
6.69231e-05
5.98318e-05
2.93725e-05
9.3977e-05
0.000148198
0.000188193
0.000214172
0.000230505
0.000240962
0.000247305
0.000250132
0.000249571
0.000245592
0.00023822
0.000227643
0.000214236
0.000198528
0.000181161
0.00016286
0.000144457
0.000126929
0.000111558
9.98964e-05
9.18068e-05
8.65033e-05
8.3256e-05
8.14683e-05
8.06979e-05
8.06333e-05
8.10251e-05
8.15853e-05
8.18833e-05
8.13325e-05
7.94319e-05
7.57018e-05
6.94809e-05
6.21125e-05
3.11716e-05
9.77749e-05
0.000153517
0.000194451
0.00022092
0.000237528
0.000248148
0.000254556
0.000257342
0.000256625
0.000252378
0.000244638
0.000233612
0.00021969
0.000203416
0.000185434
0.000166481
0.000147399
0.000129184
0.000113156
0.000100958
9.2588e-05
8.72404e-05
8.41421e-05
8.26433e-05
8.22466e-05
8.25868e-05
8.33625e-05
8.42349e-05
8.47335e-05
8.42618e-05
8.23492e-05
7.85261e-05
7.20785e-05
6.43414e-05
3.30133e-05
0.000101616
0.000158876
0.00020075
0.000227718
0.000244615
0.000255411
0.000261891
0.000264639
0.000263775
0.000259277
0.000251197
0.000239761
0.000225372
0.000208582
0.000190033
0.000170467
0.000150724
0.000131809
0.000115064
0.000102208
9.34431e-05
8.79569e-05
8.49436e-05
8.37033e-05
8.36807e-05
8.44512e-05
8.5653e-05
8.68872e-05
8.76326e-05
8.72703e-05
8.53509e-05
8.14147e-05
7.46945e-05
6.6527e-05
3.48436e-05
0.000105331
0.000164033
0.000206821
0.000234301
0.000251511
0.000262496
0.000269046
0.000271751
0.000270739
0.000266001
0.000257609
0.000245803
0.000230998
0.000213746
0.000194692
0.000174566
0.000154204
0.000134608
0.000117135
0.000103564
9.43317e-05
8.86406e-05
8.56647e-05
8.46613e-05
8.50181e-05
8.62464e-05
8.79163e-05
8.95593e-05
9.05921e-05
9.03628e-05
8.84383e-05
8.43678e-05
7.73285e-05
6.86651e-05
3.67186e-05
0.000109086
0.00016923
0.000212954
0.00024099
0.000258566
0.000269753
0.000276347
0.000278981
0.000277809
0.000272841
0.000264163
0.000252027
0.000236855
0.000219195
0.000199685
0.000179044
0.00015809
0.000137811
0.000119565
0.000105168
9.53494e-05
8.93456e-05
8.63233e-05
8.55052e-05
8.62234e-05
8.7921e-05
9.00928e-05
9.21917e-05
9.35615e-05
9.35048e-05
9.15922e-05
8.73766e-05
7.99784e-05
7.07634e-05
3.85795e-05
0.000112699
0.000174198
0.000218833
0.000247478
0.000265492
0.000276895
0.000283494
0.000286006
0.000284663
0.000279477
0.000270543
0.000258121
0.000242636
0.000224628
0.000204726
0.000183631
0.000162139
0.000141212
0.0001222
0.000106937
9.6465e-05
9.00735e-05
8.69399e-05
8.6264e-05
8.73272e-05
8.95015e-05
9.2199e-05
9.47834e-05
9.65161e-05
9.66468e-05
9.47501e-05
9.03839e-05
8.26084e-05
7.28108e-05
4.04852e-05
0.000116339
0.000179173
0.000224706
0.000253978
0.000272339
0.000283964
0.000290656
0.000293068
0.000291573
0.000286196
0.00027704
0.000264374
0.000248622
0.000230319
0.00021008
0.00018858
0.000166586
0.000145029
0.000125229
0.000109022
9.77855e-05
9.0893e-05
8.75495e-05
8.69453e-05
8.83165e-05
9.09635e-05
9.42092e-05
9.73207e-05
9.94667e-05
9.98309e-05
9.79759e-05
9.34502e-05
8.52558e-05
7.48162e-05
4.23751e-05
0.00011984
0.000183922
0.000230301
0.000260154
0.000278868
0.00029073
0.000297548
0.000299949
0.000298276
0.00029271
0.000283359
0.000270489
0.000254522
0.000235984
0.000215472
0.000193637
0.00017121
0.000149078
0.000128527
0.00011137
9.93055e-05
9.18297e-05
8.81934e-05
8.75939e-05
8.92318e-05
9.23358e-05
9.61335e-05
9.97848e-05
0.000102355
0.000102953
0.000101134
9.64623e-05
8.78524e-05
7.67614e-05
4.43086e-05
0.00012336
0.000188685
0.000235942
0.000266299
0.00028533
0.00029742
0.000304372
0.000306786
0.000304968
0.000299253
0.000289745
0.000276715
0.00026058
0.000241858
0.000221128
0.000199012
0.000176204
0.00015354
0.000132258
0.000114134
0.000101145
9.29733e-05
8.89312e-05
8.82434e-05
9.00865e-05
9.36204e-05
9.79725e-05
0.000102187
0.000105218
0.000106095
0.000104371
9.95101e-05
9.04433e-05
7.86541e-05
4.62198e-05
0.000126715
0.00019318
0.00024128
0.000272091
0.000291438
0.000303774
0.000310889
0.000313357
0.000311448
0.000305599
0.000295955
0.000282796
0.000266539
0.000247689
0.000226806
0.000204482
0.000181369
0.000158252
0.00013631
0.000117273
0.000103318
9.43723e-05
8.98288e-05
8.89606e-05
9.09382e-05
9.48596e-05
9.97487e-05
0.000104526
0.000108021
0.000109187
0.000107597
0.000102512
9.2976e-05
8.04773e-05
4.81692e-05
0.000130076
0.000197648
0.000246557
0.000277807
0.000297462
0.000310042
0.000317328
0.00031988
0.000317951
0.000311947
0.000302181
0.000288928
0.000272592
0.000253663
0.00023268
0.000210204
0.000186846
0.000163337
0.000140793
0.000120885
0.000105909
9.61025e-05
9.09519e-05
8.9797e-05
9.18215e-05
9.60719e-05
0.000101469
0.000106804
0.000110786
0.000112306
0.000110842
0.000105566
9.54869e-05
8.22364e-05
5.00951e-05
0.000133285
0.000201868
0.000251525
0.000283185
0.00030314
0.000315965
0.000323428
0.000326073
0.000324139
0.000318026
0.000308189
0.000294891
0.000278528
0.000259576
0.000238552
0.000215992
0.000192465
0.000168645
0.000145584
0.000124884
0.000108891
9.81846e-05
9.23516e-05
9.08176e-05
9.28018e-05
9.73161e-05
0.000103185
0.000109071
0.00011356
0.000115477
0.000114126
0.000108649
9.79766e-05
8.3922e-05
5.20533e-05
0.000136498
0.000206061
0.000256434
0.000288479
0.000308722
0.000321791
0.00032944
0.000332192
0.000330275
0.000324074
0.000314186
0.000300869
0.000284508
0.000265569
0.000244548
0.000221954
0.000198317
0.000174252
0.00015074
0.000129311
0.000112306
0.000100664
9.40765e-05
9.20683e-05
9.39161e-05
9.86158e-05
0.000104905
0.000111318
0.000116317
0.000118652
0.000117418
0.000111733
0.000100433
8.55309e-05
5.39872e-05
0.000139576
0.00021003
0.000261051
0.000293446
0.000313964
0.000327274
0.000335113
0.000337988
0.000336114
0.000329863
0.000319962
0.000306662
0.000290345
0.000271466
0.000250503
0.000227937
0.000204258
0.000180026
0.000156152
0.00013408
0.000116114
0.000103543
9.61611e-05
9.36037e-05
9.52272e-05
0.000100034
0.000106689
0.000113602
0.000119104
0.00012185
0.00012072
0.000114808
0.000102847
8.7055e-05
5.59467e-05
0.000142656
0.000213978
0.000265599
0.000298313
0.000319089
0.000332634
0.000340665
0.000343673
0.000341862
0.00033559
0.000325685
0.000312417
0.000296165
0.000277375
0.000256506
0.000234011
0.000210345
0.000186011
0.000161847
0.000139209
0.000120336
0.000106845
9.86357e-05
9.54584e-05
9.67674e-05
0.000101594
0.000108546
0.000115912
0.000121887
0.00012504
0.000124009
0.000117858
0.00010521
8.84933e-05
5.78823e-05
0.000145617
0.000217749
0.000269873
0.000302863
0.000323881
0.000337656
0.000345883
0.000349036
0.000347319
0.000341093
0.000331183
0.000317966
0.000301814
0.000283153
0.000262425
0.000240055
0.000216463
0.000192099
0.00016773
0.00014462
0.000124926
0.00011056
0.000101517
9.76675e-05
9.85801e-05
0.000103337
0.000110509
0.000118277
0.00012471
0.000128225
0.000127272
0.000120866
0.000107509
8.98417e-05
5.98269e-05
0.00014855
0.000221502
0.000274047
0.000307281
0.000328527
0.000342525
0.000350942
0.000354238
0.00035261
0.000346431
0.00033654
0.000323405
0.000307382
0.000288882
0.000268326
0.000246118
0.000222645
0.000198309
0.000173809
0.000150313
0.000129886
0.000114694
0.00010482
0.000100255
0.000100692
0.00010529
0.000112606
0.000120726
0.000127608
0.000131418
0.000130508
0.000123825
0.00010974
9.11028e-05
6.17256e-05
0.000151317
0.000224995
0.000277931
0.000311393
0.000332856
0.000347072
0.000355682
0.00035913
0.000357612
0.000351506
0.000341667
0.000328643
0.000312778
0.000294468
0.000274118
0.000252112
0.000228805
0.000204557
0.000180001
0.000156216
0.000135166
0.000119222
0.000108547
0.000103242
0.000103137
0.000107489
0.000114866
0.000123279
0.000130567
0.000134619
0.000133715
0.000126729
0.0001119
9.22773e-05
6.36122e-05
0.000154031
0.000228415
0.000281695
0.000315353
0.000337016
0.000351439
0.000360234
0.000363827
0.000362414
0.000356393
0.000346631
0.000333741
0.000318057
0.000299963
0.000279846
0.000258069
0.000234964
0.000210849
0.000186301
0.000162313
0.000140746
0.000124127
0.00011269
0.000106636
0.000105932
0.000109954
0.000117304
0.000125936
0.000133571
0.000137818
0.000136886
0.000129575
0.000113987
9.33695e-05
6.54651e-05
0.000156618
0.000231613
0.000285184
0.000319016
0.000340873
0.000355504
0.000364491
0.000368241
0.000366949
0.000361023
0.000351353
0.000338628
0.000323161
0.000305312
0.000285457
0.000263941
0.000241072
0.000217137
0.000192658
0.00016855
0.000146577
0.000129373
0.000117231
0.000110436
0.000109091
0.000112704
0.000119937
0.000128706
0.000136619
0.00014101
0.000140015
0.000132359
0.000116
9.43833e-05
6.72977e-05
0.00015913
0.000234693
0.000288521
0.000322506
0.000344539
0.000359366
0.000368536
0.00037244
0.000371273
0.000365459
0.000355906
0.000343356
0.000328116
0.000310542
0.000290969
0.000269738
0.000247135
0.000223415
0.000199057
0.000174905
0.000152631
0.000134928
0.000122144
0.00011463
0.000112615
0.000115747
0.000122773
0.00013159
0.000139707
0.000144187
0.000143098
0.000135078
0.000117942
9.53246e-05
6.90869e-05
0.000161507
0.000237565
0.000291602
0.000325717
0.000347917
0.000362936
0.000372289
0.000376351
0.000375318
0.000369632
0.000360224
0.000347879
0.000332889
0.000315598
0.000296347
0.000275428
0.000253119
0.000229649
0.000205458
0.000181331
0.000158855
0.000140747
0.000127395
0.000119197
0.000116499
0.000119092
0.000125823
0.000134597
0.000142837
0.000147349
0.000146131
0.000137729
0.000119813
9.61979e-05
7.08529e-05
0.000163805
0.00024031
0.000294521
0.000328742
0.000351094
0.000366293
0.000375821
0.000380035
0.000379137
0.000373586
0.00036434
0.000352217
0.000337499
0.000320511
0.000301582
0.000281008
0.000259019
0.00023583
0.000211849
0.000187807
0.000165216
0.000146793
0.000132948
0.000124112
0.000120731
0.000122735
0.000129091
0.000137729
0.000146009
0.000150494
0.000149113
0.000140311
0.000121614
9.7009e-05
7.25658e-05
0.000165964
0.000242849
0.000297193
0.000331501
0.000353994
0.000369368
0.000379067
0.000383436
0.000382679
0.000377278
0.000368217
0.000356339
0.000341913
0.000325252
0.000306666
0.000286439
0.000264804
0.000241925
0.000218193
0.000194292
0.00017167
0.000153022
0.000138763
0.000129343
0.000125292
0.000126674
0.00013258
0.000140994
0.000149229
0.000153623
0.000152043
0.000142827
0.000123348
9.77624e-05
7.42408e-05
0.000168029
0.000245248
0.000299692
0.000334066
0.000356685
0.000372221
0.000382084
0.000386602
0.000385985
0.00038074
0.00037188
0.000360262
0.000346143
0.000329824
0.000311601
0.000291742
0.000270462
0.000247927
0.000224479
0.000200768
0.000178188
0.000159402
0.000144808
0.000134862
0.000130161
0.000130897
0.000136291
0.000144394
0.000152497
0.000156739
0.000154923
0.000145275
0.000125018
9.8463e-05
7.58613e-05
0.000169964
0.000247457
0.000301962
0.000336382
0.000359115
0.000374806
0.000384828
0.000389494
0.000389022
0.000383944
0.000375303
0.000363961
0.000350166
0.000334204
0.00031636
0.000296886
0.000275985
0.000253807
0.000230676
0.000207202
0.000184734
0.000165897
0.000151046
0.000140635
0.000135316
0.000135394
0.000140222
0.000147935
0.000155822
0.000159847
0.000157759
0.000147662
0.000126628
9.91164e-05
7.74329e-05
0.000171794
0.000249512
0.000304047
0.000338496
0.00036133
0.000377165
0.000387339
0.000392149
0.000391822
0.000386916
0.000378509
0.000367457
0.000353996
0.000338402
0.000320946
0.00030187
0.000281363
0.00025956
0.000236772
0.000213578
0.000191288
0.000172482
0.00015745
0.000146634
0.000140731
0.000140147
0.000144364
0.000151614
0.000159204
0.00016295
0.000160552
0.00014999
0.000128181
9.97277e-05
7.89472e-05
0.0001735
0.00025139
0.00030592
0.000340378
0.0003633
0.000379272
0.000389591
0.000394543
0.000394363
0.00038964
0.000381484
0.000370735
0.00035762
0.000342404
0.000325348
0.000306681
0.000286579
0.000265168
0.000242744
0.000219874
0.00019782
0.000179125
0.000163987
0.000152831
0.000146384
0.000145141
0.000148712
0.000155433
0.000162649
0.000166056
0.000163312
0.000152267
0.000129686
0.000100304
8.04071e-05
0.000175096
0.000253111
0.000307608
0.000342057
0.000365056
0.000381154
0.000391612
0.000396702
0.00039667
0.000392135
0.000384244
0.000373809
0.000361049
0.00034622
0.000329571
0.00031132
0.000291635
0.000270629
0.000248591
0.000226069
0.000204318
0.000185808
0.000170635
0.000159199
0.000152248
0.000150356
0.000153252
0.000159387
0.000166159
0.00016917
0.000166043
0.000154498
0.000131147
0.000100849
8.1808e-05
0.000176573
0.000254665
0.000309098
0.000343522
0.000366585
0.0003828
0.000393391
0.000398616
0.000398733
0.000394396
0.000386784
0.000376676
0.000364281
0.000349845
0.000333609
0.00031578
0.00029652
0.000275935
0.000254304
0.000232171
0.000210779
0.000192519
0.000177376
0.000165721
0.000158309
0.000155779
0.000157979
0.000163472
0.000169738
0.000172299
0.000168755
0.000156693
0.000132574
0.000101371
8.31526e-05
0.000177942
0.000256068
0.000310409
0.000344791
0.000367907
0.000384229
0.000394945
0.0004003
0.000400568
0.000396435
0.000389116
0.000379345
0.000367322
0.000353286
0.000337467
0.000320067
0.000301238
0.000281083
0.000259879
0.000238168
0.000217195
0.000199244
0.000184192
0.000172375
0.000164546
0.000161399
0.000162886
0.000167705
0.000173391
0.000175449
0.000171455
0.00015886
0.000133973
0.000101877
8.44398e-05
0.000179202
0.000257318
0.00031154
0.000345863
0.000369019
0.000385439
0.000396273
0.000401755
0.000402174
0.000398252
0.00039124
0.000381816
0.000370174
0.000356542
0.000341144
0.000324175
0.000305782
0.000286067
0.000265309
0.000244056
0.000223564
0.000205968
0.000191062
0.000179141
0.000170943
0.000167202
0.000167974
0.00017209
0.000177129
0.000178633
0.000174156
0.00016101
0.000135355
0.000102375
8.56721e-05
0.00018036
0.000258427
0.000312503
0.000346752
0.000369935
0.000386442
0.000397386
0.000402989
0.000403559
0.000399856
0.000393164
0.000384098
0.000372843
0.00035962
0.000344647
0.00032811
0.000310157
0.000290888
0.000270591
0.000249828
0.000229874
0.00021268
0.000197969
0.000185996
0.000177478
0.000173174
0.000173232
0.000176616
0.000180956
0.000181859
0.000176868
0.000163154
0.000136729
0.000102871
8.68515e-05
0.00018142
0.000259398
0.000313304
0.000347461
0.000370658
0.000387241
0.000398286
0.000404006
0.000404726
0.000401247
0.000394887
0.000386188
0.000375327
0.000362518
0.000347971
0.00033187
0.000314358
0.000295541
0.000275718
0.000255471
0.000236105
0.000219355
0.000204889
0.00019292
0.000184133
0.000179304
0.000178657
0.000181286
0.000184882
0.00018514
0.000179603
0.000165304
0.000138104
0.000103372
8.79816e-05
0.00018239
0.000260242
0.000313951
0.000347999
0.000371197
0.000387845
0.000398982
0.000404813
0.000405684
0.000402434
0.000396418
0.000388094
0.000377634
0.000365243
0.000351124
0.000335457
0.000318387
0.000300024
0.000280683
0.000260973
0.000242238
0.00022597
0.000211793
0.000199879
0.00019088
0.000185569
0.000184237
0.0001861
0.000188913
0.000188487
0.000182375
0.000167472
0.000139491
0.000103885
8.90663e-05
0.000183275
0.000260964
0.00031445
0.000348373
0.000371558
0.000388261
0.000399481
0.000405415
0.000406435
0.00040342
0.000397758
0.000389817
0.000379762
0.000367792
0.000354103
0.000338871
0.000322242
0.000304334
0.000285481
0.000266325
0.000248256
0.000232504
0.000218661
0.000206859
0.000197705
0.000191958
0.00018996
0.000191049
0.000193052
0.00019191
0.000185196
0.000169671
0.000140899
0.000104414
9.01098e-05
0.000184079
0.00026157
0.000314809
0.00034859
0.00037175
0.000388496
0.000399791
0.000405824
0.000406993
0.000404218
0.000398918
0.000391366
0.00038172
0.000370173
0.000356914
0.000342118
0.000325929
0.000308477
0.000290115
0.000271525
0.000254146
0.000238936
0.000225461
0.000213814
0.000204554
0.000198426
0.000195798
0.000196116
0.000197296
0.000195415
0.000188077
0.00017191
0.000142334
0.000104962
9.11166e-05
0.000184809
0.000262067
0.000315035
0.000348657
0.000371779
0.000388558
0.000399918
0.000406046
0.000407365
0.000404836
0.000399905
0.000392743
0.000383508
0.000372385
0.000359558
0.000345197
0.000329449
0.000312452
0.000294584
0.00027657
0.000259902
0.000245254
0.000232179
0.000220733
0.000211428
0.000204968
0.000201746
0.000201305
0.000201652
0.00019901
0.000191027
0.000174199
0.000143804
0.000105531
9.20898e-05
0.000185467
0.000262457
0.00031513
0.000348579
0.000371652
0.000388452
0.000399871
0.00040609
0.000407567
0.000405296
0.000400733
0.000393959
0.000385133
0.000374434
0.00036204
0.000348116
0.00033281
0.000316271
0.000298902
0.000281474
0.000265529
0.000251458
0.000238802
0.000227587
0.000218275
0.000211526
0.000207761
0.000206594
0.000206112
0.0002027
0.000194056
0.000176549
0.000145315
0.000106121
9.30321e-05
0.000186056
0.000262746
0.000315102
0.000348364
0.000371375
0.000388187
0.000399653
0.000405961
0.000407605
0.000405633
0.000401409
0.000395011
0.000386589
0.000376314
0.000364356
0.000350872
0.00033601
0.000319932
0.000303069
0.000286239
0.000271028
0.000257543
0.000245322
0.000234368
0.000225096
0.000218123
0.000213851
0.000211982
0.000210677
0.000206487
0.000197167
0.000178962
0.000146869
0.000106734
9.39477e-05
0.00018658
0.000262936
0.000314955
0.000348016
0.000370956
0.000387769
0.000399273
0.000405659
0.000407467
0.000405795
0.000401913
0.000395893
0.000387879
0.000378032
0.000366512
0.000353472
0.000339061
0.000323452
0.000307104
0.00029089
0.000276415
0.000263518
0.000251742
0.000241066
0.000231865
0.000224704
0.000219965
0.000217444
0.000215337
0.000210373
0.000200369
0.00018145
0.000148474
0.00010737
9.48369e-05
0.000187039
0.000263029
0.000314692
0.000347542
0.000370401
0.000387207
0.000398739
0.000405197
0.000407164
0.000405794
0.000402254
0.000396613
0.000389007
0.000379589
0.00036851
0.000355918
0.000341965
0.000326835
0.00031102
0.000295449
0.000281703
0.000269391
0.000258061
0.000247679
0.000238576
0.000231271
0.000226126
0.000222976
0.000220086
0.000214352
0.000203658
0.000184009
0.000150128
0.000108029
9.57046e-05
0.000187439
0.000263034
0.000314321
0.000346948
0.000369718
0.000386509
0.000398063
0.000404589
0.000406717
0.000405656
0.00040246
0.000397196
0.000389995
0.000381002
0.000370364
0.000358224
0.000344736
0.0003301
0.000314843
0.000299956
0.000286919
0.000275179
0.000264291
0.000254208
0.000245224
0.000237808
0.000232296
0.000228558
0.000224914
0.000218424
0.000207039
0.000186646
0.000151835
0.00010871
9.65504e-05
0.00018778
0.00026295
0.000313843
0.000346237
0.000368909
0.000385676
0.000397244
0.000403831
0.000406119
0.000405369
0.000402518
0.000397632
0.000390836
0.00038227
0.000372073
0.000360389
0.000347377
0.000333254
0.000318586
0.00030443
0.000292085
0.000280899
0.000270443
0.000260658
0.000251806
0.000244308
0.000238469
0.000234193
0.000229813
0.000222581
0.000210505
0.000189356
0.000153592
0.000109413
9.73793e-05
0.00018807
0.000262787
0.000313267
0.000345415
0.000367983
0.00038472
0.000396295
0.000402941
0.000405393
0.00040496
0.000402458
0.000397947
0.000391552
0.000383407
0.00037365
0.000362423
0.000349893
0.000336299
0.000322248
0.000308864
0.000297199
0.000286559
0.000276527
0.000267039
0.000258325
0.000250766
0.000244632
0.000239858
0.000234778
0.000226819
0.000214057
0.000192142
0.000155402
0.000110137
9.8194e-05
0.00018831
0.000262544
0.000312592
0.000344484
0.000366937
0.000383636
0.000395211
0.000401913
0.000404531
0.000404423
0.000402273
0.00039814
0.000392145
0.000384419
0.000375099
0.000364329
0.000352286
0.000339231
0.000325819
0.000313238
0.000302252
0.000292156
0.000282545
0.000273353
0.000264787
0.000257185
0.000250788
0.000245553
0.000239803
0.000231132
0.000217687
0.000194998
0.00015726
0.000110879
9.89978e-05
0.000188505
0.000262226
0.000311821
0.000343444
0.000365777
0.00038243
0.000394
0.000400757
0.000403544
0.000403769
0.000401974
0.00039822
0.000392624
0.000385315
0.000376428
0.000366114
0.000354559
0.000342053
0.000329297
0.000317538
0.000307235
0.000297685
0.000288498
0.000279605
0.000271192
0.000263562
0.00025693
0.00025127
0.000244884
0.000235525
0.000221398
0.000197923
0.000159165
0.00011164
9.97932e-05
0.000188656
0.000261834
0.000310954
0.000342295
0.000364497
0.000381099
0.000392659
0.000399469
0.00040243
0.000402996
0.000401563
0.000398189
0.000392991
0.000386097
0.000377643
0.000367783
0.000356718
0.000344767
0.000332683
0.000321756
0.000312139
0.000303141
0.000294385
0.0002858
0.000277549
0.000269901
0.000263052
0.000256999
0.000250005
0.00023998
0.000225183
0.000200918
0.000161119
0.000112418
0.000100579
0.000188762
0.000261363
0.000309987
0.000341036
0.000363101
0.000379645
0.000391191
0.000398056
0.000401198
0.000402111
0.00040104
0.000398048
0.000393249
0.00038677
0.000378748
0.000369342
0.000358771
0.000347384
0.000335987
0.000325892
0.000316957
0.000308512
0.000300194
0.000291926
0.000283849
0.000276201
0.000269156
0.000262745
0.000255174
0.000244504
0.000229041
0.000203976
0.000163115
0.000113213
0.000101351
0.000188816
0.000260808
0.000308915
0.000339661
0.000361583
0.000378066
0.000389598
0.000396524
0.000399856
0.000401119
0.00040041
0.000397798
0.000393398
0.000387335
0.000379747
0.000370801
0.000360731
0.000349921
0.000339235
0.000329959
0.000321697
0.000313799
0.000305919
0.000297972
0.000290077
0.00028244
0.000275216
0.000268479
0.000260362
0.00024907
0.000232951
0.000207078
0.000165141
0.00011402
0.000102107
0.000188816
0.000260165
0.000307736
0.000338169
0.000359943
0.000376363
0.000387884
0.000394886
0.000398425
0.000400033
0.000399677
0.00039744
0.000393438
0.000387794
0.000380645
0.000372166
0.00036261
0.000352399
0.000342458
0.000333976
0.000326366
0.000319006
0.000311561
0.000303943
0.000296247
0.000288647
0.000281277
0.000274239
0.000265595
0.000253696
0.000236925
0.000210238
0.000167205
0.000114843
0.000102839
0.000188749
0.000259421
0.000306439
0.000336553
0.000358177
0.000374532
0.000386048
0.000393148
0.000396951
0.000398864
0.000398842
0.000396973
0.000393367
0.000388144
0.000381441
0.00037344
0.000364417
0.000354834
0.000345678
0.000337958
0.000330975
0.000324134
0.000317113
0.000309819
0.000302324
0.000294767
0.000287264
0.00027997
0.000270839
0.000258358
0.000240943
0.000213437
0.000169294
0.000115678
0.000103543
0.000188613
0.000258577
0.000305027
0.000334815
0.000356285
0.000372574
0.000384085
0.000391289
0.000395372
0.000397589
0.000397904
0.000396403
0.000393193
0.000388392
0.000382139
0.000374626
0.000366151
0.000357222
0.000348886
0.000341904
0.000335526
0.000329185
0.000322577
0.000315605
0.000308319
0.000300832
0.00029326
0.000285702
0.000276103
0.000263061
0.000245012
0.000216684
0.000171427
0.00011653