/*--------------------------------*- C++ -*----------------------------------*\
| =========                 |                                                 |
| \\      /  F ield         | OpenFOAM: The Open Source CFD Toolbox           |
|  \\    /   O peration     | Version:  v1906                                 |
|   \\  /    A nd           | Web:      www.OpenFOAM.com                      |
|    \\/     M anipulation  |                                                 |
\*---------------------------------------------------------------------------*/
FoamFile
{
    version     2.0;
    format      ascii;
    class       volVectorField;
    location    "63.4/oil";
    object      U;
}
// * * * * * * * * * * * * * * * * * * * * * * * * * * * * * * * * * * * * * //

dimensions      [0 1 -1 0 0 0 0];


internalField   nonuniform List<vector> 
27760
(
(-2.5052e-05 -2.55343e-05 -2.5052e-05)
(-4.94507e-05 -1.91552e-05 -1.80464e-05)
(-3.60749e-06 -4.96709e-06 -4.93712e-06)
(-5.88361e-06 -8.09506e-07 -9.02952e-07)
(-1.21475e-06 -2.5748e-07 -3.67235e-07)
(-4.61044e-07 -1.04926e-07 -2.24451e-07)
(2.16286e-07 -1.23564e-08 -1.41281e-07)
(5.54285e-07 2.80268e-08 -1.08582e-07)
(7.4262e-07 5.14115e-08 -9.06668e-08)
(8.16304e-07 6.63455e-08 -7.91594e-08)
(8.00024e-07 7.72375e-08 -6.98568e-08)
(7.07335e-07 8.54305e-08 -6.20984e-08)
(5.5111e-07 9.1599e-08 -5.57825e-08)
(3.46358e-07 9.58163e-08 -5.12299e-08)
(1.10628e-07 9.80249e-08 -4.87829e-08)
(-1.36578e-07 9.81832e-08 -4.8628e-08)
(-3.75245e-07 9.63365e-08 -5.07202e-08)
(-5.86531e-07 9.26378e-08 -5.47573e-08)
(-7.54479e-07 8.73409e-08 -6.01994e-08)
(-8.67371e-07 8.07564e-08 -6.63151e-08)
(-9.1864e-07 7.32111e-08 -7.22768e-08)
(-9.0745e-07 6.48446e-08 -7.70957e-08)
(-8.38259e-07 5.61261e-08 -7.97375e-08)
(-7.20619e-07 4.71718e-08 -7.95084e-08)
(-5.68801e-07 3.82184e-08 -7.56093e-08)
(-4.00759e-07 2.9657e-08 -6.7527e-08)
(-2.37408e-07 2.22899e-08 -5.53253e-08)
(-1.01475e-07 1.75841e-08 -4.0059e-08)
(-1.35127e-08 1.74746e-08 -2.46842e-08)
(9.71556e-09 1.90317e-08 -9.65095e-09)
(-1.81738e-05 -5.08157e-05 -1.81738e-05)
(-5.94655e-06 -6.6029e-06 -8.13857e-06)
(-8.00753e-06 -7.99833e-06 -2.84638e-06)
(-3.58999e-06 -2.33137e-06 -8.18553e-07)
(-1.21301e-06 -1.42324e-06 -4.11218e-07)
(-3.94869e-08 -7.76252e-07 -2.06595e-07)
(8.09568e-07 -4.87762e-07 -1.05648e-07)
(1.32283e-06 -3.20587e-07 -5.4889e-08)
(1.61958e-06 -2.12072e-07 -2.3076e-08)
(1.72877e-06 -1.30557e-07 8.13255e-11)
(1.67283e-06 -6.41957e-08 1.93174e-08)
(1.46949e-06 -9.45958e-09 3.56959e-08)
(1.14069e-06 3.37801e-08 4.8959e-08)
(7.1478e-07 6.42063e-08 5.84426e-08)
(2.26563e-07 8.04293e-08 6.35113e-08)
(-2.84785e-07 8.1708e-08 6.38114e-08)
(-7.78825e-07 6.83199e-08 5.94186e-08)
(-1.21744e-06 4.16716e-08 5.08747e-08)
(-1.56832e-06 4.19329e-09 3.91385e-08)
(-1.80777e-06 -4.0924e-08 2.54874e-08)
(-1.92274e-06 -9.00499e-08 1.13663e-08)
(-1.91129e-06 -1.39469e-07 -1.5407e-09)
(-1.78248e-06 -1.85254e-07 -1.19209e-08)
(-1.55583e-06 -2.23738e-07 -1.86245e-08)
(-1.25942e-06 -2.50826e-07 -2.07558e-08)
(-9.28044e-07 -2.6169e-07 -1.79821e-08)
(-6.00705e-07 -2.50094e-07 -1.08868e-08)
(-3.16819e-07 -2.08461e-07 -1.49297e-09)
(-1.10525e-07 -1.2963e-07 5.74575e-09)
(-5.8542e-09 -2.61702e-08 5.95196e-09)
(-5.0247e-06 -4.79361e-06 -5.02463e-06)
(-7.87702e-06 -9.01989e-06 -2.89971e-06)
(-4.02083e-06 -5.16308e-06 -1.27066e-06)
(-2.21628e-06 -3.05231e-06 -5.91736e-07)
(-5.27614e-07 -2.17866e-06 -2.68976e-07)
(5.69172e-07 -1.62035e-06 -1.0975e-07)
(1.392e-06 -1.30739e-06 -2.45195e-08)
(1.93676e-06 -1.092e-06 2.44591e-08)
(2.2558e-06 -9.25565e-07 5.86239e-08)
(2.35967e-06 -7.83514e-07 8.57881e-08)
(2.26109e-06 -6.58186e-07 1.09288e-07)
(1.97584e-06 -5.49658e-07 1.29625e-07)
(1.52905e-06 -4.61654e-07 1.46216e-07)
(9.56274e-07 -3.98824e-07 1.581e-07)
(3.02347e-07 -3.65073e-07 1.64445e-07)
(-3.81631e-07 -3.62417e-07 1.64793e-07)
(-1.04267e-06 -3.90365e-07 1.59218e-07)
(-1.63075e-06 -4.45772e-07 1.48363e-07)
(-2.1035e-06 -5.23093e-07 1.33363e-07)
(-2.42993e-06 -6.14938e-07 1.15737e-07)
(-2.59288e-06 -7.12805e-07 9.71645e-08)
(-2.58999e-06 -8.07518e-07 7.9392e-08)
(-2.43323e-06 -8.89915e-07 6.39207e-08)
(-2.1476e-06 -9.50625e-07 5.19626e-08)
(-1.76862e-06 -9.79643e-07 4.42546e-08)
(-1.3395e-06 -9.65721e-07 4.08594e-08)
(-9.07394e-07 -8.95463e-07 4.08344e-08)
(-5.17972e-07 -7.53368e-07 4.15979e-08)
(-2.12426e-07 -5.22717e-07 3.81201e-08)
(-2.11985e-08 -2.0033e-07 2.132e-08)
(-8.99773e-07 -6.97635e-06 -8.99676e-07)
(-2.01971e-06 -5.47444e-06 -8.04575e-07)
(-1.58054e-06 -4.67774e-06 -5.71877e-07)
(-6.95679e-07 -3.66505e-06 -2.83264e-07)
(3.76955e-07 -3.11128e-06 -1.1297e-07)
(1.25475e-06 -2.71506e-06 -1.40024e-08)
(1.97412e-06 -2.44061e-06 4.76661e-08)
(2.48574e-06 -2.21291e-06 8.94092e-08)
(2.78584e-06 -2.00689e-06 1.22446e-07)
(2.86363e-06 -1.81164e-06 1.51114e-07)
(2.71954e-06 -1.62823e-06 1.77017e-07)
(2.36494e-06 -1.46363e-06 1.99891e-07)
(1.82529e-06 -1.32737e-06 2.18718e-07)
(1.14014e-06 -1.22899e-06 2.32256e-07)
(3.60963e-07 -1.17589e-06 2.39478e-07)
(-4.52805e-07 -1.1719e-06 2.3983e-07)
(-1.23923e-06 -1.21638e-06 2.33378e-07)
(-1.93979e-06 -1.30408e-06 2.20831e-07)
(-2.5049e-06 -1.42562e-06 2.03462e-07)
(-2.89848e-06 -1.56839e-06 1.82952e-07)
(-3.10066e-06 -1.7178e-06 1.61145e-07)
(-3.10884e-06 -1.85823e-06 1.39868e-07)
(-2.93685e-06 -1.97373e-06 1.20702e-07)
(-2.61315e-06 -2.04811e-06 1.04855e-07)
(-2.17764e-06 -2.06442e-06 9.29639e-08)
(-1.67804e-06 -2.00414e-06 8.49498e-08)
(-1.16586e-06 -1.84581e-06 7.97178e-08)
(-6.90282e-07 -1.56389e-06 7.4339e-08)
(-2.99421e-07 -1.12502e-06 6.33074e-08)
(-3.35774e-08 -4.83926e-07 3.37272e-08)
(-2.88463e-07 -2.64976e-06 -2.88343e-07)
(-9.04094e-07 -4.12428e-06 -3.39289e-07)
(-4.5061e-07 -4.46932e-06 -2.22878e-07)
(2.34599e-07 -4.32667e-06 -9.40579e-08)
(1.0681e-06 -4.17749e-06 -3.33301e-09)
(1.83238e-06 -3.99622e-06 5.78155e-08)
(2.48561e-06 -3.80899e-06 1.0238e-07)
(2.96578e-06 -3.60208e-06 1.37854e-07)
(3.24227e-06 -3.37733e-06 1.69552e-07)
(3.29132e-06 -3.14123e-06 1.99287e-07)
(3.10463e-06 -2.90643e-06 2.27256e-07)
(2.68979e-06 -2.68891e-06 2.52477e-07)
(2.07203e-06 -2.5056e-06 2.73451e-07)
(1.29366e-06 -2.37197e-06 2.88612e-07)
(4.1127e-07 -2.29965e-06 2.96697e-07)
(-5.09066e-07 -2.29459e-06 2.97029e-07)
(-1.39817e-06 -2.35614e-06 2.89661e-07)
(-2.19061e-06 -2.47682e-06 2.75383e-07)
(-2.83108e-06 -2.643e-06 2.55649e-07)
(-3.27951e-06 -2.83638e-06 2.32321e-07)
(-3.51409e-06 -3.03567e-06 2.07449e-07)
(-3.53221e-06 -3.21816e-06 1.83012e-07)
(-3.3492e-06 -3.36057e-06 1.60676e-07)
(-2.99601e-06 -3.43948e-06 1.41673e-07)
(-2.51556e-06 -3.43067e-06 1.26614e-07)
(-1.95862e-06 -3.30783e-06 1.1534e-07)
(-1.37975e-06 -3.0404e-06 1.0667e-07)
(-8.31351e-07 -2.58976e-06 9.73947e-08)
(-3.68755e-07 -1.89801e-06 8.14995e-08)
(-4.27942e-08 -8.56211e-07 4.29766e-08)
(-1.12152e-07 -2.39698e-06 -1.12009e-07)
(-1.54963e-07 -4.14501e-06 -1.04606e-07)
(2.64239e-07 -4.99551e-06 -4.67392e-08)
(8.75326e-07 -5.34315e-06 1.56804e-08)
(1.60405e-06 -5.48909e-06 6.67303e-08)
(2.30936e-06 -5.48849e-06 1.06908e-07)
(2.92456e-06 -5.39129e-06 1.41496e-07)
(3.38286e-06 -5.21678e-06 1.73546e-07)
(3.63988e-06 -4.98594e-06 2.05216e-07)
(3.66361e-06 -4.71982e-06 2.36755e-07)
(3.43964e-06 -4.44211e-06 2.67377e-07)
(2.97256e-06 -4.1779e-06 2.95478e-07)
(2.28729e-06 -3.9519e-06 3.19076e-07)
(1.42833e-06 -3.78578e-06 3.36213e-07)
(4.56781e-07 -3.69569e-06 3.45349e-07)
(-5.55478e-07 -3.68995e-06 3.45653e-07)
(-1.53284e-06 -3.76788e-06 3.37162e-07)
(-2.40376e-06 -3.91978e-06 3.20788e-07)
(-3.10795e-06 -4.12773e-06 2.98208e-07)
(-3.60202e-06 -4.36758e-06 2.71573e-07)
(-3.86283e-06 -4.61138e-06 2.4322e-07)
(-3.88795e-06 -4.8291e-06 2.1534e-07)
(-3.69425e-06 -4.99023e-06 1.8974e-07)
(-3.31497e-06 -5.06412e-06 1.67738e-07)
(-2.7955e-06 -5.0191e-06 1.49959e-07)
(-2.18916e-06 -4.82071e-06 1.36204e-07)
(-1.55332e-06 -4.42796e-06 1.25208e-07)
(-9.43703e-07 -3.78592e-06 1.13494e-07)
(-4.22382e-07 -2.80502e-06 9.45012e-08)
(-4.95449e-08 -1.29678e-06 4.97631e-08)
(-1.26789e-08 -2.3227e-06 -1.25117e-08)
(1.75583e-07 -4.57874e-06 1.07074e-08)
(6.52554e-07 -5.87279e-06 4.49069e-08)
(1.27869e-06 -6.59744e-06 7.92971e-08)
(1.98733e-06 -6.99504e-06 1.11014e-07)
(2.67849e-06 -7.15848e-06 1.40431e-07)
(3.28223e-06 -7.15392e-06 1.70069e-07)
(3.73228e-06 -7.02179e-06 2.01105e-07)
(3.97827e-06 -6.79759e-06 2.34096e-07)
(3.98349e-06 -6.51426e-06 2.68364e-07)
(3.7295e-06 -6.20528e-06 3.02415e-07)
(3.21866e-06 -5.90429e-06 3.34096e-07)
(2.47565e-06 -5.64324e-06 3.60919e-07)
(1.54707e-06 -5.44995e-06 3.80474e-07)
(4.98056e-07 -5.34496e-06 3.90885e-07)
(-5.94091e-07 -5.33888e-06 3.91158e-07)
(-1.64788e-06 -5.43115e-06 3.81318e-07)
(-2.58613e-06 -5.6099e-06 3.6241e-07)
(-3.34406e-06 -5.85317e-06 3.36399e-07)
(-3.87554e-06 -6.13127e-06 3.05827e-07)
(-4.15644e-06 -6.4098e-06 2.73382e-07)
(-4.18497e-06 -6.65201e-06 2.41549e-07)
(-3.97976e-06 -6.82058e-06 2.12364e-07)
(-3.57626e-06 -6.87795e-06 1.87235e-07)
(-3.0223e-06 -6.7851e-06 1.66838e-07)
(-2.37355e-06 -6.49901e-06 1.50937e-07)
(-1.69003e-06 -5.96695e-06 1.38184e-07)
(-1.03056e-06 -5.11482e-06 1.24845e-07)
(-4.62866e-07 -3.81546e-06 1.03804e-07)
(-5.4458e-08 -1.78918e-06 5.47147e-08)
(2.67337e-08 -2.61355e-06 2.69233e-08)
(3.4553e-07 -5.36542e-06 6.44017e-08)
(8.79156e-07 -7.03498e-06 9.14089e-08)
(1.53818e-06 -8.06051e-06 1.14936e-07)
(2.25575e-06 -8.67261e-06 1.38199e-07)
(2.95204e-06 -8.98426e-06 1.6303e-07)
(3.55801e-06 -9.07273e-06 1.91121e-07)
(4.00866e-06 -8.99192e-06 2.23005e-07)
(4.25071e-06 -8.78766e-06 2.5846e-07)
(4.24448e-06 -8.50203e-06 2.96292e-07)
(3.96859e-06 -8.1765e-06 3.34486e-07)
(3.4235e-06 -7.85186e-06 3.70357e-07)
(2.63369e-06 -7.56653e-06 4.00911e-07)
(1.64756e-06 -7.35375e-06 4.23259e-07)
(5.33906e-07 -7.23796e-06 4.35144e-07)
(-6.25022e-07 -7.2319e-06 4.35384e-07)
(-1.74242e-06 -7.33507e-06 4.2399e-07)
(-2.73603e-06 -7.53377e-06 4.02182e-07)
(-3.53708e-06 -7.80241e-06 3.7227e-07)
(-4.09717e-06 -8.1064e-06 3.37229e-07)
(-4.3918e-06 -8.40578e-06 3.0016e-07)
(-4.42017e-06 -8.6578e-06 2.63928e-07)
(-4.2029e-06 -8.81912e-06 2.30837e-07)
(-3.77763e-06 -8.84583e-06 2.02407e-07)
(-3.1946e-06 -8.69204e-06 1.79369e-07)
(-2.5116e-06 -8.30581e-06 1.61442e-07)
(-1.79082e-06 -7.62153e-06 1.47213e-07)
(-1.09363e-06 -6.54363e-06 1.32694e-07)
(-4.9179e-07 -4.9029e-06 1.10284e-07)
(-5.79183e-08 -2.31986e-06 5.82144e-08)
(4.5379e-08 -3.04233e-06 4.55911e-08)
(4.31387e-07 -6.32906e-06 9.12291e-08)
(1.00649e-06 -8.36411e-06 1.15752e-07)
(1.69466e-06 -9.66386e-06 1.3492e-07)
(2.42715e-06 -1.04754e-05 1.54711e-07)
(3.13346e-06 -1.09304e-05 1.78062e-07)
(3.74609e-06 -1.11169e-05 2.06466e-07)
(4.2012e-06 -1.10992e-05 2.40255e-07)
(4.44405e-06 -1.09308e-05 2.78837e-07)
(4.43276e-06 -1.06605e-05 3.20667e-07)
(4.14369e-06 -1.03361e-05 3.63339e-07)
(3.57553e-06 -1.0004e-05 4.03692e-07)
(2.75235e-06 -9.70782e-06 4.3823e-07)
(1.72387e-06 -9.48507e-06 4.63548e-07)
(5.61962e-07 -9.36357e-06 4.76973e-07)
(-6.47025e-07 -9.35777e-06 4.7718e-07)
(-1.81175e-06 -9.46727e-06 4.64178e-07)
(-2.84574e-06 -9.67686e-06 4.39313e-07)
(-3.677e-06 -9.95806e-06 4.05267e-07)
(-4.2556e-06 -1.02722e-05 3.65519e-07)
(-4.55701e-06 -1.05748e-05 3.23635e-07)
(-4.58192e-06 -1.08183e-05 2.82854e-07)
(-4.35305e-06 -1.09545e-05 2.45727e-07)
(-3.91028e-06 -1.0934e-05 2.13941e-07)
(-3.30584e-06 -1.07045e-05 1.88272e-07)
(-2.59909e-06 -1.02052e-05 1.68426e-07)
(-1.85369e-06 -9.35704e-06 1.52889e-07)
(-1.13248e-06 -8.04095e-06 1.37474e-07)
(-5.09498e-07 -6.04251e-06 1.1424e-07)
(-6.00688e-08 -2.87641e-06 6.04046e-08)
(5.35648e-08 -3.54516e-06 5.37988e-08)
(4.71573e-07 -7.39199e-06 1.03537e-07)
(1.06823e-06 -9.79053e-06 1.27264e-07)
(1.77132e-06 -1.13526e-05 1.44845e-07)
(2.51094e-06 -1.23573e-05 1.63505e-07)
(3.22149e-06 -1.29566e-05 1.86876e-07)
(3.83724e-06 -1.32496e-05 2.16473e-07)
(4.2954e-06 -1.33089e-05 2.52552e-07)
(4.54071e-06 -1.31943e-05 2.94405e-07)
(4.52981e-06 -1.29595e-05 3.40232e-07)
(4.23695e-06 -1.26565e-05 3.87301e-07)
(3.65902e-06 -1.23354e-05 4.32036e-07)
(2.81928e-06 -1.20435e-05 4.7043e-07)
(1.76801e-06 -1.18217e-05 4.98599e-07)
(5.7915e-07 -1.17002e-05 5.13514e-07)
(-6.57913e-07 -1.16949e-05 5.13689e-07)
(-1.84879e-06 -1.18054e-05 4.99125e-07)
(-2.90392e-06 -1.20153e-05 4.71312e-07)
(-3.74913e-06 -1.2294e-05 4.33303e-07)
(-4.33382e-06 -1.25999e-05 3.89031e-07)
(-4.63425e-06 -1.28852e-05 3.42493e-07)
(-4.65283e-06 -1.30992e-05 2.97352e-07)
(-4.41438e-06 -1.31899e-05 2.56407e-07)
(-3.96072e-06 -1.3104e-05 2.21488e-07)
(-3.34535e-06 -1.27831e-05 1.9339e-07)
(-2.62848e-06 -1.21581e-05 1.71799e-07)
(-1.87401e-06 -1.11359e-05 1.55161e-07)
(-1.14476e-06 -9.57321e-06 1.3915e-07)
(-5.15147e-07 -7.20833e-06 1.15593e-07)
(-6.08521e-08 -3.44622e-06 6.12287e-08)
(5.63312e-08 -4.07668e-06 5.65782e-08)
(4.81782e-07 -8.49223e-06 1.07417e-07)
(1.07864e-06 -1.12514e-05 1.3053e-07)
(1.77701e-06 -1.30695e-05 1.47437e-07)
(2.50791e-06 -1.42656e-05 1.65861e-07)
(3.20955e-06 -1.5013e-05 1.89739e-07)
(3.81857e-06 -1.5423e-05 2.20637e-07)
(4.27391e-06 -1.55752e-05 2.58837e-07)
(4.5206e-06 -1.55339e-05 3.03535e-07)
(4.51443e-06 -1.53561e-05 3.52805e-07)
(4.22786e-06 -1.50957e-05 4.0365e-07)
(3.65589e-06 -1.48052e-05 4.52135e-07)
(2.82032e-06 -1.45339e-05 4.93856e-07)
(1.77088e-06 -1.43246e-05 5.24481e-07)
(5.82165e-07 -1.42092e-05 5.40643e-07)
(-6.55103e-07 -1.42043e-05 5.4079e-07)
(-1.84512e-06 -1.431e-05 5.24919e-07)
(-2.89701e-06 -1.4509e-05 4.9458e-07)
(-3.73595e-06 -1.4769e-05 4.53141e-07)
(-4.31189e-06 -1.50469e-05 4.04953e-07)
(-4.60252e-06 -1.52931e-05 3.54481e-07)
(-4.61222e-06 -1.5455e-05 3.05675e-07)
(-4.3678e-06 -1.54788e-05 2.61532e-07)
(-3.91241e-06 -1.53082e-05 2.24012e-07)
(-3.29989e-06 -1.48805e-05 1.93947e-07)
(-2.5899e-06 -1.41184e-05 1.70998e-07)
(-1.84513e-06 -1.29152e-05 1.53548e-07)
(-1.12677e-06 -1.11027e-05 1.37274e-07)
(-5.07219e-07 -8.3715e-06 1.14003e-07)
(-6.00837e-08 -4.01539e-06 6.05032e-08)
(5.54932e-08 -4.60709e-06 5.57628e-08)
(4.6825e-07 -9.58002e-06 1.05244e-07)
(1.04288e-06 -1.26893e-05 1.27348e-07)
(1.71343e-06 -1.47556e-05 1.43682e-07)
(2.41438e-06 -1.6141e-05 1.61955e-07)
(3.0884e-06 -1.70412e-05 1.86224e-07)
(3.67589e-06 -1.75788e-05 2.18042e-07)
(4.11872e-06 -1.78398e-05 2.57724e-07)
(4.36327e-06 -1.78917e-05 3.04441e-07)
(4.36538e-06 -1.77926e-05 3.56207e-07)
(4.0962e-06 -1.75969e-05 4.09864e-07)
(3.54855e-06 -1.73571e-05 4.61204e-07)
(2.74186e-06 -1.7123e-05 5.05483e-07)
(1.72388e-06 -1.69379e-05 5.38038e-07)
(5.67943e-07 -1.68344e-05 5.55176e-07)
(-6.35898e-07 -1.68303e-05 5.5529e-07)
(-1.79254e-06 -1.69252e-05 5.38364e-07)
(-2.81187e-06 -1.71015e-05 5.06013e-07)
(-3.62024e-06 -1.73261e-05 4.61947e-07)
(-4.16961e-06 -1.75556e-05 4.10815e-07)
(-4.44024e-06 -1.774e-05 3.57419e-07)
(-4.43879e-06 -1.7827e-05 3.05954e-07)
(-4.19365e-06 -1.77626e-05 2.59585e-07)
(-3.74821e-06 -1.7489e-05 2.20315e-07)
(-3.15546e-06 -1.69402e-05 1.88968e-07)
(-2.47284e-06 -1.60321e-05 1.65199e-07)
(-1.75989e-06 -1.46448e-05 1.47391e-07)
(-1.07419e-06 -1.2586e-05 1.31316e-07)
(-4.83753e-07 -9.49891e-06 1.09014e-07)
(-5.75089e-08 -4.56782e-06 5.79699e-08)
(5.17844e-08 -5.11101e-06 5.20564e-08)
(4.33024e-07 -1.06083e-05 9.78624e-08)
(9.61774e-07 -1.40463e-05 1.18237e-07)
(1.57868e-06 -1.63477e-05 1.33697e-07)
(2.22457e-06 -1.79174e-05 1.51519e-07)
(2.84815e-06 -1.89727e-05 1.75608e-07)
(3.39537e-06 -1.96468e-05 2.07515e-07)
(3.8127e-06 -2.00314e-05 2.47577e-07)
(4.04948e-06 -2.01952e-05 2.95004e-07)
(4.06274e-06 -2.01961e-05 3.4783e-07)
(3.82285e-06 -2.00868e-05 4.02874e-07)
(3.32025e-06 -1.99179e-05 4.55836e-07)
(2.57094e-06 -1.97375e-05 5.01657e-07)
(1.61883e-06 -1.95882e-05 5.35438e-07)
(5.33613e-07 -1.95028e-05 5.53218e-07)
(-5.97766e-07 -1.94992e-05 5.53286e-07)
(-1.68318e-06 -1.95774e-05 5.3565e-07)
(-2.63563e-06 -1.97192e-05 5.02003e-07)
(-3.3852e-06 -1.98917e-05 4.56313e-07)
(-3.88778e-06 -2.00522e-05 4.03506e-07)
(-4.12718e-06 -2.01528e-05 3.48628e-07)
(-4.11267e-06 -2.01428e-05 2.95983e-07)
(-3.87346e-06 -1.99699e-05 2.48802e-07)
(-3.4521e-06 -1.95769e-05 2.09003e-07)
(-2.89894e-06 -1.88958e-05 1.77392e-07)
(-2.26721e-06 -1.78366e-05 1.5358e-07)
(-1.61123e-06 -1.62676e-05 1.35999e-07)
(-9.82778e-07 -1.39737e-05 1.20653e-07)
(-4.42809e-07 -1.0553e-05 1.00118e-07)
(-5.28851e-08 -5.08527e-06 5.33922e-08)
(4.5373e-08 -5.56461e-06 4.5665e-08)
(3.76462e-07 -1.15306e-05 8.55486e-08)
(8.34753e-07 -1.52628e-05 1.0335e-07)
(1.37041e-06 -1.77783e-05 1.17366e-07)
(1.93342e-06 -1.95219e-05 1.34128e-07)
(2.48073e-06 -2.07303e-05 1.57196e-07)
(2.96592e-06 -2.15466e-05 1.88e-07)
(3.34212e-06 -2.20667e-05 2.26989e-07)
(3.56363e-06 -2.23595e-05 2.73533e-07)
(3.59006e-06 -2.24804e-05 3.25824e-07)
(3.39204e-06 -2.24787e-05 3.80779e-07)
(2.95734e-06 -2.2401e-05 4.34127e-07)
(2.29716e-06 -2.22916e-05 4.80661e-07)
(1.44929e-06 -2.21907e-05 5.15288e-07)
(4.77018e-07 -2.21299e-05 5.33631e-07)
(-5.38521e-07 -2.21268e-05 5.33659e-07)
(-1.51053e-06 -2.21815e-05 5.15379e-07)
(-2.35787e-06 -2.22762e-05 4.80815e-07)
(-3.01716e-06 -2.2379e-05 4.34342e-07)
(-3.45056e-06 -2.24501e-05 3.81092e-07)
(-3.64666e-06 -2.2445e-05 3.26291e-07)
(-3.61748e-06 -2.23173e-05 2.74139e-07)
(-3.39234e-06 -2.20181e-05 2.27755e-07)
(-3.01135e-06 -2.14924e-05 1.88926e-07)
(-2.52004e-06 -2.06718e-05 1.58292e-07)
(-1.96534e-06 -1.94617e-05 1.35403e-07)
(-1.39387e-06 -1.77202e-05 1.18801e-07)
(-8.49271e-07 -1.52114e-05 1.04863e-07)
(-3.82841e-07 -1.14923e-05 8.69549e-08)
(-4.59816e-08 -5.54743e-06 4.65282e-08)
(3.63385e-08 -5.94405e-06 3.66306e-08)
(2.98786e-07 -1.22994e-05 6.83263e-08)
(6.61721e-07 -1.62777e-05 8.25939e-08)
(1.08761e-06 -1.8977e-05 9.44502e-08)
(1.53853e-06 -2.08765e-05 1.09285e-07)
(1.9817e-06 -2.22302e-05 1.30114e-07)
(2.38079e-06 -2.31891e-05 1.58302e-07)
(2.69787e-06 -2.38517e-05 1.9435e-07)
(2.89446e-06 -2.42862e-05 2.37805e-07)
(2.93471e-06 -2.45443e-05 2.87211e-07)
(2.79049e-06 -2.46699e-05 3.39796e-07)
(2.4471e-06 -2.47034e-05 3.91601e-07)
(1.90995e-06 -2.46833e-05 4.37479e-07)
(1.20835e-06 -2.46447e-05 4.72166e-07)
(3.95757e-07 -2.46158e-05 4.90777e-07)
(-4.55728e-07 -2.46133e-05 4.90752e-07)
(-1.26766e-06 -2.46368e-05 4.72119e-07)
(-1.96801e-06 -2.46702e-05 4.37431e-07)
(-2.50326e-06 -2.4685e-05 3.91591e-07)
(-2.84416e-06 -2.46461e-05 3.39837e-07)
(-2.98533e-06 -2.45153e-05 2.87326e-07)
(-2.94142e-06 -2.42522e-05 2.38025e-07)
(-2.7404e-06 -2.38133e-05 1.947e-07)
(-2.41811e-06 -2.3147e-05 1.58792e-07)
(-2.01297e-06 -2.21857e-05 1.30742e-07)
(-1.56305e-06 -2.08318e-05 1.10036e-07)
(-1.10494e-06 -1.89344e-05 9.53035e-08)
(-6.71994e-07 -1.62409e-05 8.35268e-08)
(-3.03017e-07 -1.22727e-05 6.92349e-08)
(-3.66498e-08 -5.93244e-06 3.72357e-08)
(2.47828e-08 -6.2261e-06 2.50736e-08)
(2.00826e-07 -1.28683e-05 4.63975e-08)
(4.44344e-07 -1.70299e-05 5.61666e-08)
(7.32663e-07 -1.98724e-05 6.50211e-08)
(1.04252e-06 -2.19015e-05 7.69054e-08)
(1.35334e-06 -2.33843e-05 9.4096e-08)
(1.64122e-06 -2.44781e-05 1.17737e-07)
(1.87946e-06 -2.52827e-05 1.48407e-07)
(2.03911e-06 -2.58645e-05 1.85988e-07)
(2.09124e-06 -2.62708e-05 2.29535e-07)
(2.01077e-06 -2.65389e-05 2.76841e-07)
(1.78136e-06 -2.67009e-05 3.24458e-07)
(1.40175e-06 -2.6787e-05 3.67535e-07)
(8.90521e-07 -2.68246e-05 4.00873e-07)
(2.87915e-07 -2.68356e-05 4.19139e-07)
(-3.47141e-07 -2.68334e-05 4.19086e-07)
(-9.48736e-07 -2.68178e-05 4.00753e-07)
(-1.45808e-06 -2.67759e-05 3.67341e-07)
(-1.83502e-06 -2.66853e-05 3.24237e-07)
(-2.06114e-06 -2.6519e-05 2.76646e-07)
(-2.13767e-06 -2.6247e-05 2.29414e-07)
(-2.08106e-06 -2.58371e-05 1.8595e-07)
(-1.9164e-06 -2.52521e-05 1.48455e-07)
(-1.6727e-06 -2.44452e-05 1.17893e-07)
(-1.37892e-06 -2.33502e-05 9.43673e-08)
(-1.06191e-06 -2.18678e-05 7.72908e-08)
(-7.45869e-07 -1.98411e-05 6.55122e-08)
(-4.51815e-07 -1.70035e-05 5.67317e-08)
(-2.03678e-07 -1.28495e-05 4.70031e-08)
(-2.49065e-08 -6.21821e-06 2.55273e-08)
(1.092e-08 -6.38897e-06 1.12014e-08)
(8.47048e-08 -1.31937e-05 2.01629e-08)
(1.87318e-07 -1.74626e-05 2.44767e-08)
(3.12976e-07 -2.03967e-05 2.94612e-08)
(4.55055e-07 -2.2519e-05 3.72017e-08)
(6.06911e-07 -2.41048e-05 4.90237e-08)
(7.58807e-07 -2.53148e-05 6.57907e-08)
(8.97516e-07 -2.62492e-05 8.80841e-08)
(1.00617e-06 -2.69719e-05 1.16075e-07)
(1.06515e-06 -2.75254e-05 1.49325e-07)
(1.05463e-06 -2.79396e-05 1.86442e-07)
(9.58213e-07 -2.82378e-05 2.24949e-07)
(7.68513e-07 -2.84397e-05 2.60791e-07)
(4.91904e-07 -2.85622e-05 2.89298e-07)
(1.51939e-07 -2.86183e-05 3.05298e-07)
(-2.11015e-07 -2.86164e-05 3.05197e-07)
(-5.49736e-07 -2.85563e-05 2.89076e-07)
(-8.23968e-07 -2.843e-05 2.60449e-07)
(-1.01032e-06 -2.82244e-05 2.24569e-07)
(-1.10269e-06 -2.79228e-05 1.86046e-07)
(-1.10857e-06 -2.75055e-05 1.48973e-07)
(-1.04455e-06 -2.69494e-05 1.15773e-07)
(-9.30511e-07 -2.62246e-05 8.78778e-08)
(-7.86165e-07 -2.52888e-05 6.56913e-08)
(-6.28501e-07 -2.40784e-05 4.90232e-08)
(-4.70898e-07 -2.24935e-05 3.73096e-08)
(-3.23335e-07 -2.03734e-05 2.9678e-08)
(-1.92861e-07 -1.74433e-05 2.47881e-08)
(-8.66162e-08 -1.31803e-05 2.05683e-08)
(-1.0919e-08 -6.38359e-06 1.15701e-08)
(-4.80771e-09 -6.41401e-06 -4.51934e-09)
(-4.57586e-08 -1.32386e-05 -9.51827e-09)
(-1.0087e-07 -1.75267e-05 -1.14451e-08)
(-1.57613e-07 -2.04914e-05 -1.11366e-08)
(-2.04775e-07 -2.26605e-05 -8.67959e-09)
(-2.33909e-07 -2.43119e-05 -3.88883e-09)
(-2.39276e-07 -2.56064e-05 3.59304e-09)
(-2.19025e-07 -2.6643e-05 1.42849e-08)
(-1.75853e-07 -2.74828e-05 2.85862e-08)
(-1.17629e-07 -2.81634e-05 4.66385e-08)
(-5.62058e-08 -2.87082e-05 6.79668e-08)
(-5.74409e-09 -2.91311e-05 9.13086e-08)
(2.12927e-08 -2.94415e-05 1.14038e-07)
(1.86448e-08 -2.9645e-05 1.32904e-07)
(-1.01381e-08 -2.97449e-05 1.43838e-07)
(-4.90352e-08 -2.97433e-05 1.43725e-07)
(-7.63426e-08 -2.964e-05 1.32629e-07)
(-7.6245e-08 -2.94329e-05 1.13605e-07)
(-4.53819e-08 -2.91194e-05 9.07827e-08)
(9.61673e-09 -2.86937e-05 6.73911e-08)
(7.61932e-08 -2.81465e-05 4.61176e-08)
(1.39914e-07 -2.74639e-05 2.811e-08)
(1.88775e-07 -2.66228e-05 1.39048e-08)
(2.14789e-07 -2.55855e-05 3.30865e-09)
(2.15103e-07 -2.42911e-05 -4.08785e-09)
(1.91402e-07 -2.26409e-05 -8.7655e-09)
(1.49194e-07 -2.04739e-05 -1.11085e-08)
(9.66108e-08 -1.75126e-05 -1.12761e-08)
(4.44595e-08 -1.3229e-05 -9.2362e-09)
(4.88045e-09 -6.41031e-06 -4.20577e-09)
(-2.16921e-08 -6.28804e-06 -2.14294e-08)
(-1.8479e-07 -1.29773e-05 -4.13969e-08)
(-4.07491e-07 -1.71882e-05 -5.00972e-08)
(-6.5844e-07 -2.01144e-05 -5.50849e-08)
(-9.07954e-07 -2.22753e-05 -5.88189e-08)
(-1.13229e-06 -2.3944e-05 -6.24692e-08)
(-1.30944e-06 -2.52785e-05 -6.61948e-08)
(-1.42145e-06 -2.63745e-05 -6.97798e-08)
(-1.45549e-06 -2.72893e-05 -7.27372e-08)
(-1.40563e-06 -2.80562e-05 -7.43728e-08)
(-1.27367e-06 -2.86926e-05 -7.42575e-08)
(-1.06935e-06 -2.92056e-05 -7.20315e-08)
(-8.08438e-07 -2.95957e-05 -6.82887e-08)
(-5.09768e-07 -2.98595e-05 -6.40087e-08)
(-1.917e-07 -2.99922e-05 -6.10212e-08)
(1.3244e-07 -2.99906e-05 -6.11438e-08)
(4.52141e-07 -2.98546e-05 -6.43338e-08)
(7.53764e-07 -2.95878e-05 -6.87982e-08)
(1.01881e-06 -2.91951e-05 -7.26446e-08)
(1.22812e-06 -2.86797e-05 -7.49222e-08)
(1.36558e-06 -2.80415e-05 -7.50339e-08)
(1.42123e-06 -2.72731e-05 -7.33443e-08)
(1.39309e-06 -2.63576e-05 -7.03261e-08)
(1.28691e-06 -2.52614e-05 -6.66322e-08)
(1.11537e-06 -2.39273e-05 -6.28039e-08)
(8.96248e-07 -2.22599e-05 -5.90632e-08)
(6.51318e-07 -2.0101e-05 -5.51926e-08)
(4.04099e-07 -1.71776e-05 -5.0055e-08)
(1.83926e-07 -1.29704e-05 -4.12018e-08)
(2.18323e-08 -6.28544e-06 -2.11421e-08)
(-3.88941e-08 -6.00499e-06 -3.86348e-08)
(-3.25081e-07 -1.23986e-05 -7.37616e-08)
(-7.16186e-07 -1.64322e-05 -8.936e-08)
(-1.1626e-06 -1.92471e-05 -9.99139e-08)
(-1.61657e-06 -2.13398e-05 -1.10263e-07)
(-2.03929e-06 -2.29712e-05 -1.22939e-07)
(-2.39258e-06 -2.4292e-05 -1.38754e-07)
(-2.64206e-06 -2.5393e-05 -1.5783e-07)
(-2.75879e-06 -2.6327e-05 -1.79633e-07)
(-2.72232e-06 -2.71239e-05 -2.03015e-07)
(-2.52308e-06 -2.77967e-05 -2.26456e-07)
(-2.16498e-06 -2.83478e-05 -2.47948e-07)
(-1.666e-06 -2.87726e-05 -2.65762e-07)
(-1.05731e-06 -2.90632e-05 -2.78231e-07)
(-3.79967e-07 -2.92107e-05 -2.84497e-07)
(3.20954e-07 -2.92091e-05 -2.8463e-07)
(9.99943e-07 -2.90586e-05 -2.78581e-07)
(1.61175e-06 -2.87653e-05 -2.66288e-07)
(2.11501e-06 -2.8338e-05 -2.48602e-07)
(2.47827e-06 -2.77849e-05 -2.2716e-07)
(2.68322e-06 -2.71108e-05 -2.03734e-07)
(2.72567e-06 -2.63129e-05 -1.8031e-07)
(2.61496e-06 -2.53784e-05 -1.5845e-07)
(2.37134e-06 -2.42777e-05 -1.3928e-07)
(2.0236e-06 -2.29575e-05 -1.23359e-07)
(1.60596e-06 -2.13274e-05 -1.10575e-07)
(1.15636e-06 -1.92366e-05 -1.00094e-07)
(7.13381e-07 -1.64241e-05 -8.939e-08)
(3.24484e-07 -1.23934e-05 -7.36145e-08)
(3.90652e-08 -6.00317e-06 -3.83689e-08)
(-5.5312e-08 -5.56793e-06 -5.50801e-08)
(-4.58093e-07 -1.15095e-05 -1.0469e-07)
(-1.00838e-06 -1.52683e-05 -1.26887e-07)
(-1.63982e-06 -1.79001e-05 -1.42782e-07)
(-2.28789e-06 -1.98642e-05 -1.59526e-07)
(-2.89966e-06 -2.14023e-05 -1.80979e-07)
(-3.42162e-06 -2.26537e-05 -2.08598e-07)
(-3.80369e-06 -2.37023e-05 -2.42763e-07)
(-4.00131e-06 -2.45966e-05 -2.82851e-07)
(-3.97962e-06 -2.5363e-05 -3.27302e-07)
(-3.71786e-06 -2.60122e-05 -3.73562e-07)
(-3.21406e-06 -2.65452e-05 -4.1808e-07)
(-2.48807e-06 -2.69565e-05 -4.56777e-07)
(-1.58258e-06 -2.72379e-05 -4.85456e-07)
(-5.60547e-07 -2.73808e-05 -5.00667e-07)
(5.02225e-07 -2.73793e-05 -5.00783e-07)
(1.52588e-06 -2.72337e-05 -4.85792e-07)
(2.43446e-06 -2.69498e-05 -4.57301e-07)
(3.16475e-06 -2.65362e-05 -4.18715e-07)
(3.67379e-06 -2.60015e-05 -3.74258e-07)
(3.94134e-06 -2.53513e-05 -3.28037e-07)
(3.96904e-06 -2.45843e-05 -2.83559e-07)
(3.77749e-06 -2.36897e-05 -2.434e-07)
(3.4013e-06 -2.26416e-05 -2.09177e-07)
(2.88481e-06 -2.1391e-05 -1.81456e-07)
(2.27801e-06 -1.98543e-05 -1.59878e-07)
(1.63415e-06 -1.78918e-05 -1.43012e-07)
(1.00593e-06 -1.52621e-05 -1.26959e-07)
(4.5767e-07 -1.15056e-05 -1.04565e-07)
(5.55106e-08 -5.56665e-06 -5.48174e-08)
(-6.98676e-08 -4.98976e-06 -6.965e-08)
(-5.74999e-07 -1.03368e-05 -1.32082e-07)
(-1.26476e-06 -1.37322e-05 -1.60081e-07)
(-2.05877e-06 -1.61151e-05 -1.80679e-07)
(-2.87818e-06 -1.7895e-05 -2.03043e-07)
(-3.6576e-06 -1.9288e-05 -2.32167e-07)
(-4.3296e-06 -2.04194e-05 -2.69996e-07)
(-4.82978e-06 -2.13642e-05 -3.17138e-07)
(-5.09943e-06 -2.21663e-05 -3.7284e-07)
(-5.09073e-06 -2.28489e-05 -4.35088e-07)
(-4.77326e-06 -2.34228e-05 -5.00442e-07)
(-4.14002e-06 -2.38897e-05 -5.63957e-07)
(-3.21288e-06 -2.42468e-05 -6.19716e-07)
(-2.04519e-06 -2.44892e-05 -6.6151e-07)
(-7.19287e-07 -2.46116e-05 -6.83928e-07)
(6.62149e-07 -2.46102e-05 -6.84022e-07)
(1.98962e-06 -2.44854e-05 -6.6179e-07)
(3.16039e-06 -2.42407e-05 -6.20163e-07)
(4.09173e-06 -2.38816e-05 -5.64533e-07)
(4.73012e-06 -2.34132e-05 -5.0109e-07)
(5.05327e-06 -2.28384e-05 -4.35767e-07)
(5.06795e-06 -2.21554e-05 -3.73522e-07)
(4.80434e-06 -2.13534e-05 -3.17769e-07)
(4.30996e-06 -2.04091e-05 -2.70575e-07)
(3.64336e-06 -1.92786e-05 -2.32664e-07)
(2.86879e-06 -1.78869e-05 -2.03442e-07)
(2.05346e-06 -1.61085e-05 -1.80946e-07)
(1.26252e-06 -1.37275e-05 -1.60184e-07)
(5.74657e-07 -1.0334e-05 -1.31977e-07)
(7.00703e-08 -4.98889e-06 -6.9396e-08)
(-8.14274e-08 -4.29316e-06 -8.12322e-08)
(-6.66944e-07 -8.92716e-06 -1.53835e-07)
(-1.46662e-06 -1.18852e-05 -1.86418e-07)
(-2.39003e-06 -1.3964e-05 -2.10666e-07)
(-3.34726e-06 -1.55135e-05 -2.37364e-07)
(-4.26265e-06 -1.67194e-05 -2.72411e-07)
(-5.05702e-06 -1.76903e-05 -3.18069e-07)
(-5.65359e-06 -1.84918e-05 -3.75028e-07)
(-5.98167e-06 -1.91627e-05 -4.42422e-07)
(-5.9831e-06 -1.97245e-05 -5.17772e-07)
(-5.61972e-06 -2.01881e-05 -5.96868e-07)
(-4.88112e-06 -2.0558e-05 -6.73796e-07)
(-3.79171e-06 -2.08356e-05 -7.41392e-07)
(-2.41383e-06 -2.10208e-05 -7.92096e-07)
(-8.45386e-07 -2.11131e-05 -8.19327e-07)
(7.90104e-07 -2.11119e-05 -8.19412e-07)
(2.36002e-06 -2.10173e-05 -7.92366e-07)
(3.74077e-06 -2.08301e-05 -7.41799e-07)
(4.83422e-06 -2.05509e-05 -6.74316e-07)
(5.57779e-06 -2.01798e-05 -5.97475e-07)
(5.94671e-06 -1.97155e-05 -5.18412e-07)
(5.95113e-06 -1.91534e-05 -4.43067e-07)
(5.62893e-06 -1.84827e-05 -3.75655e-07)
(5.03801e-06 -1.76817e-05 -3.18643e-07)
(4.24894e-06 -1.67117e-05 -2.72912e-07)
(3.33824e-06 -1.5507e-05 -2.37774e-07)
(2.38495e-06 -1.39589e-05 -2.10928e-07)
(1.46455e-06 -1.18816e-05 -1.86528e-07)
(6.66671e-07 -8.92515e-06 -1.53747e-07)
(8.16333e-08 -4.29262e-06 -8.09871e-08)
(-8.88608e-08 -3.51054e-06 -8.86895e-08)
(-7.25595e-07 -7.34575e-06 -1.67799e-07)
(-1.59682e-06 -9.81245e-06 -2.03197e-07)
(-2.60732e-06 -1.15467e-05 -2.2962e-07)
(-3.66038e-06 -1.28317e-05 -2.58968e-07)
(-4.6726e-06 -1.38204e-05 -2.97708e-07)
(-5.55548e-06 -1.46039e-05 -3.48342e-07)
(-6.22246e-06 -1.52379e-05 -4.11549e-07)
(-6.59359e-06 -1.57561e-05 -4.86226e-07)
(-6.60296e-06 -1.61782e-05 -5.69494e-07)
(-6.20727e-06 -1.65158e-05 -6.5664e-07)
(-5.3945e-06 -1.67763e-05 -7.4113e-07)
(-4.19154e-06 -1.69652e-05 -8.15109e-07)
(-2.66763e-06 -1.70875e-05 -8.70452e-07)
(-9.31646e-07 -1.71471e-05 -9.00158e-07)
(8.78832e-07 -1.71461e-05 -9.00229e-07)
(2.61619e-06 -1.70846e-05 -8.70683e-07)
(4.14282e-06 -1.69606e-05 -8.15467e-07)
(5.34959e-06 -1.67702e-05 -7.41595e-07)
(6.16704e-06 -1.65088e-05 -6.57183e-07)
(6.56801e-06 -1.61706e-05 -5.70079e-07)
(6.56423e-06 -1.57483e-05 -4.86831e-07)
(6.19874e-06 -1.52303e-05 -4.12139e-07)
(5.53723e-06 -1.45969e-05 -3.48887e-07)
(4.65946e-06 -1.38142e-05 -2.98189e-07)
(3.65176e-06 -1.28265e-05 -2.5938e-07)
(2.60249e-06 -1.15428e-05 -2.299e-07)
(1.59484e-06 -9.80983e-06 -2.0332e-07)
(7.25335e-07 -7.34443e-06 -1.67726e-07)
(8.90571e-08 -3.5103e-06 -8.84602e-08)
(-9.09424e-08 -2.68381e-06 -9.07934e-08)
(-7.42662e-07 -5.67552e-06 -1.71588e-07)
(-1.63959e-06 -7.62092e-06 -2.07394e-07)
(-2.68792e-06 -8.98662e-06 -2.33967e-07)
(-3.78889e-06 -9.98736e-06 -2.63791e-07)
(-4.85401e-06 -1.07428e-05 -3.03625e-07)
(-5.7881e-06 -1.13264e-05 -3.56106e-07)
(-6.49754e-06 -1.17841e-05 -4.21806e-07)
(-6.89628e-06 -1.21445e-05 -4.99407e-07)
(-6.91358e-06 -1.24253e-05 -5.85727e-07)
(-6.5034e-06 -1.26383e-05 -6.75736e-07)
(-5.65343e-06 -1.2793e-05 -7.62631e-07)
(-4.39271e-06 -1.28982e-05 -8.38406e-07)
(-2.7947e-06 -1.2962e-05 -8.94873e-07)
(-9.74134e-07 -1.29915e-05 -9.25109e-07)
(9.24555e-07 -1.29907e-05 -9.2517e-07)