/*--------------------------------*- C++ -*----------------------------------*\
| =========                 |                                                 |
| \\      /  F ield         | OpenFOAM: The Open Source CFD Toolbox           |
|  \\    /   O peration     | Version:  v1906                                 |
|   \\  /    A nd           | Web:      www.OpenFOAM.com                      |
|    \\/     M anipulation  |                                                 |
\*---------------------------------------------------------------------------*/
FoamFile
{
    version     2.0;
    format      ascii;
    class       volScalarField;
    location    "31";
    object      alphat;
}
// * * * * * * * * * * * * * * * * * * * * * * * * * * * * * * * * * * * * * //

dimensions      [1 -1 -1 0 0 0 0];


internalField   nonuniform List<scalar> 
78750
(
2.51522e-07
5.005e-06
5.39057e-06
5.31123e-06
5.10703e-06
4.85288e-06
4.59484e-06
4.35216e-06
4.1288e-06
3.92432e-06
3.73775e-06
3.5685e-06
3.41689e-06
3.28304e-06
3.16594e-06
3.06384e-06
2.97443e-06
2.8952e-06
2.82351e-06
2.75698e-06
2.69297e-06
2.6287e-06
2.56136e-06
2.48852e-06
2.40783e-06
2.31729e-06
2.21047e-06
2.08372e-06
1.93216e-06
1.74695e-06
1.51897e-06
1.23614e-06
8.97899e-07
5.48444e-07
9.74741e-09
2.72359e-08
3.42483e-06
6.99813e-06
1.17759e-05
1.53254e-05
1.73594e-05
1.9238e-05
2.09553e-05
2.22009e-05
2.30277e-05
2.36423e-05
2.36218e-05
2.32827e-05
2.2983e-05
2.27133e-05
2.24703e-05
2.22415e-05
2.18813e-05
2.14806e-05
2.11902e-05
2.10041e-05
2.08976e-05
2.05627e-05
2.01219e-05
1.96094e-05
1.90088e-05
1.82947e-05
1.74405e-05
1.61408e-05
1.17594e-05
7.84605e-06
5.35645e-06
4.48837e-06
4.19458e-06
2.61328e-08
3.8504e-08
4.17442e-06
7.12618e-06
7.54214e-06
7.34582e-06
7.40271e-06
8.24418e-06
1.0384e-05
1.26018e-05
1.23535e-05
1.21895e-05
1.20916e-05
1.20482e-05
1.20521e-05
1.20993e-05
1.21871e-05
1.23135e-05
1.24763e-05
1.26732e-05
1.29015e-05
1.31571e-05
1.34337e-05
1.37218e-05
1.40082e-05
1.42749e-05
1.44975e-05
1.46449e-05
1.39763e-05
1.10569e-05
8.42518e-06
6.48764e-06
5.49229e-06
6.24579e-06
3.97915e-06
3.40437e-08
2.22028e-08
4.90164e-06
1.02548e-05
9.64877e-06
8.52083e-06
7.84972e-06
7.97957e-06
9.08782e-06
9.33707e-06
8.58438e-06
7.86723e-06
7.22194e-06
6.67461e-06
6.23723e-06
5.90967e-06
5.68491e-06
5.55371e-06
5.50836e-06
5.54517e-06
5.66559e-06
5.87622e-06
6.18744e-06
6.61053e-06
7.15281e-06
7.81053e-06
8.53348e-06
7.83772e-06
7.01879e-06
6.11294e-06
5.19474e-06
4.46685e-06
4.27823e-06
5.72153e-06
3.67605e-06
3.84563e-08
1.78359e-08
2.93944e-06
8.1415e-06
9.30654e-06
8.04147e-06
6.61885e-06
5.46101e-06
4.47594e-06
3.65198e-06
3.03581e-06
2.64469e-06
2.46715e-06
2.47761e-06
2.38397e-06
2.41658e-06
2.52357e-06
2.63844e-06
2.71512e-06
2.72758e-06
2.66854e-06
2.54977e-06
2.4051e-06
2.29521e-06
2.31124e-06
2.37429e-06
2.36026e-06
2.53569e-06
2.85417e-06
3.2083e-06
3.47881e-06
3.6777e-06
4.18502e-06
6.63311e-06
3.0112e-06
4.41415e-08
1.23918e-08
2.43774e-06
6.56342e-06
7.53006e-06
5.94505e-06
4.37951e-06
3.307e-06
2.55829e-06
2.08028e-06
1.87936e-06
2.00009e-06
2.478e-06
3.27926e-06
4.30209e-06
5.41699e-06
6.481e-06
7.36117e-06
7.96275e-06
8.23057e-06
8.13577e-06
7.66623e-06
6.82988e-06
5.67071e-06
4.29035e-06
2.85546e-06
1.60271e-06
8.21553e-07
6.46375e-07
9.13273e-07
1.39915e-06
1.98377e-06
2.82258e-06
5.30662e-06
2.68598e-06
4.7527e-08
1.00782e-08
1.96823e-06
5.49744e-06
6.34609e-06
5.16338e-06
3.59779e-06
2.58351e-06
1.97877e-06
1.76535e-06
1.98655e-06
2.68955e-06
3.88634e-06
5.56692e-06
7.72087e-06
9.99325e-06
1.09125e-05
1.16235e-05
1.21306e-05
1.24399e-05
1.25529e-05
1.24625e-05
1.21519e-05
1.15948e-05
9.88535e-06
7.2152e-06
4.81666e-06
2.91212e-06
1.65582e-06
1.09075e-06
1.08655e-06
1.46112e-06
2.26609e-06
4.82577e-06
2.28083e-06
5.18442e-08
7.92454e-09
1.73232e-06
4.51321e-06
5.16863e-06
3.64208e-06
2.41179e-06
1.73268e-06
1.48004e-06
1.64916e-06
2.27493e-06
3.39318e-06
5.02561e-06
7.17718e-06
9.751e-06
1.16278e-05
1.24311e-05
1.30484e-05
1.34868e-05
1.37491e-05
1.38329e-05
1.37293e-05
1.3424e-05
1.28982e-05
1.07715e-05
8.09452e-06
5.62962e-06
3.57665e-06
2.09488e-06
1.25471e-06
9.86397e-07
1.15384e-06
1.78787e-06
4.08969e-06
2.09767e-06
5.42467e-08
6.65656e-09
1.47008e-06
3.67972e-06
4.18211e-06
2.59247e-06
1.77733e-06
1.45678e-06
1.55858e-06
2.10177e-06
3.12835e-06
4.67247e-06
6.74352e-06
9.32201e-06
1.22222e-05
1.35974e-05
1.44567e-05
1.51533e-05
1.56876e-05
1.60553e-05
1.62453e-05
1.62396e-05
1.60138e-05
1.55387e-05
1.26901e-05
9.50821e-06
6.65324e-06
4.2905e-06
2.54971e-06
1.48848e-06
1.04022e-06
1.07221e-06
1.61511e-06
3.8892e-06
1.92322e-06
5.70538e-08
5.42362e-09
1.2796e-06
2.96889e-06
3.09484e-06
1.9581e-06
1.51307e-06
1.48621e-06
1.84791e-06
2.62926e-06
3.8768e-06
5.62963e-06
7.91458e-06
1.07086e-05
1.33169e-05
1.43037e-05
1.51534e-05
1.58693e-05
1.64526e-05
1.68994e-05
1.7199e-05
1.73327e-05
1.72744e-05
1.69907e-05
1.42411e-05
1.08245e-05
7.72427e-06
5.12609e-06
3.1517e-06
1.86542e-06
1.22504e-06
1.10067e-06
1.51629e-06
3.68138e-06
1.86053e-06
5.87636e-08
4.07954e-09
1.1616e-06
2.41896e-06
2.59246e-06
1.76082e-06
1.48927e-06
1.57506e-06
2.00123e-06
2.80281e-06
4.03238e-06
5.74333e-06
7.98824e-06
1.07614e-05
1.32364e-05
1.42642e-05
1.51631e-05
1.59353e-05
1.65814e-05
1.70973e-05
1.74739e-05
1.7695e-05
1.77368e-05
1.75032e-05
1.4249e-05
1.09328e-05
7.9566e-06
5.43243e-06
3.46666e-06
2.13156e-06
1.41422e-06
1.20693e-06
1.56114e-06
3.7791e-06
1.81386e-06
6.09032e-08
2.7545e-09
1.19822e-06
1.95876e-06
2.13663e-06
1.60971e-06
1.49434e-06
1.68178e-06
2.17472e-06
3.01502e-06
4.25242e-06
5.92748e-06
8.06929e-06
1.06878e-05
1.35175e-05
1.45461e-05
1.54528e-05
1.62409e-05
1.69111e-05
1.74598e-05
1.78783e-05
1.81519e-05
1.82586e-05
1.73282e-05
1.41618e-05
1.09862e-05
8.13222e-06
5.69476e-06
3.76e-06
2.39762e-06
1.62106e-06
1.34396e-06
1.63957e-06
3.87653e-06
1.82849e-06
6.32109e-08
1.88385e-09
1.00917e-06
1.64215e-06
1.84009e-06
1.5784e-06
1.62139e-06
1.92497e-06
2.50333e-06
3.38682e-06
4.5987e-06
6.14908e-06
8.05e-06
1.03387e-05
1.29619e-05
1.44399e-05
1.53277e-05
1.61073e-05
1.67762e-05
1.73296e-05
1.77588e-05
1.80502e-05
1.81839e-05
1.64171e-05
1.32735e-05
1.02977e-05
7.69182e-06
5.49496e-06
3.74867e-06
2.50091e-06
1.76906e-06
1.49222e-06
1.79386e-06
4.21267e-06
1.8384e-06
6.66006e-08
1.38163e-09
8.83631e-07
1.50969e-06
1.68112e-06
1.62768e-06
1.80432e-06
2.19769e-06
2.82203e-06
3.69401e-06
4.82201e-06
6.21094e-06
7.87791e-06
9.86527e-06
1.22046e-05
1.45003e-05
1.53745e-05
1.61338e-05
1.67768e-05
1.73022e-05
1.77068e-05
1.79824e-05
1.80389e-05
1.51642e-05
1.21999e-05
9.51203e-06
7.16827e-06
5.1969e-06
3.63165e-06
2.51159e-06
1.85236e-06
1.60689e-06
1.94018e-06
4.55914e-06
1.86693e-06
7.05354e-08
1.02477e-09
7.92465e-07
1.40136e-06
1.60385e-06
1.65477e-06
1.87244e-06
2.25837e-06
2.82688e-06
3.59382e-06
4.57125e-06
5.76902e-06
7.20315e-06
8.9102e-06
1.09561e-05
1.33433e-05
1.5177e-05
1.58714e-05
1.64284e-05
1.68556e-05
1.7161e-05
1.73492e-05
1.60002e-05
1.31655e-05
1.05377e-05
8.27349e-06
6.32261e-06
4.66785e-06
3.3439e-06
2.40329e-06
1.86254e-06
1.69201e-06
2.10759e-06
5.03568e-06
1.87467e-06
7.52288e-08
7.72933e-10
7.12038e-07
1.30283e-06
1.47748e-06
1.62403e-06
1.89444e-06
2.31185e-06
2.89822e-06
3.666e-06
4.611e-06
5.71466e-06
6.96078e-06
8.36224e-06
9.97847e-06
1.18964e-05
1.41119e-05
1.62715e-05
1.66687e-05
1.68991e-05
1.69791e-05
1.61314e-05
1.34164e-05
1.07991e-05
8.64279e-06
6.89566e-06
5.4131e-06
4.1178e-06
3.03871e-06
2.25936e-06
1.82403e-06
1.72819e-06
2.22884e-06
5.41788e-06
1.88576e-06
8.02866e-08
7.23231e-10
6.88939e-07
1.29353e-06
1.46705e-06
1.72012e-06
2.08758e-06
2.59056e-06
3.23432e-06
4.00007e-06
4.84757e-06
5.73968e-06
6.67954e-06
7.72938e-06
8.99323e-06
1.05715e-05
1.24866e-05
1.4559e-05
1.63039e-05
1.70441e-05
1.62626e-05
1.40343e-05
1.11692e-05
8.58422e-06
6.65528e-06
5.29557e-06
4.27389e-06
3.40655e-06
2.64644e-06
2.07221e-06
1.75841e-06
1.74465e-06
2.34172e-06
5.7829e-06
1.8834e-06
8.55563e-08
8.27693e-10
7.54924e-07
1.36263e-06
1.59847e-06
1.92963e-06
2.36868e-06
2.91168e-06
3.53303e-06
4.18938e-06
4.8519e-06
5.54807e-06
6.36892e-06
7.43703e-06
8.86621e-06
1.07167e-05
1.29206e-05
1.51901e-05
1.70071e-05
1.7773e-05
1.70161e-05
1.46391e-05
1.12842e-05
8.08612e-06
5.72255e-06
4.20772e-06
3.28705e-06
2.68384e-06
2.21325e-06
1.85403e-06
1.66822e-06
1.73291e-06
2.41247e-06
6.04213e-06
1.88941e-06
9.043e-08
8.93587e-10
8.01393e-07
1.51971e-06
1.72466e-06
2.03885e-06
2.4408e-06
2.90179e-06
3.39068e-06
3.90101e-06
4.48307e-06
5.24253e-06
6.31204e-06
7.82682e-06
9.89919e-06
1.25509e-05
1.55869e-05
1.85221e-05
2.07336e-05
2.17106e-05
2.11039e-05
1.86833e-05
1.46664e-05
1.02026e-05
6.57826e-06
4.19019e-06
2.82032e-06
2.11713e-06
1.76984e-06
1.59696e-06
1.55574e-06
1.71164e-06
2.47566e-06
6.26991e-06
1.89833e-06
9.45954e-08
7.51158e-10
7.73272e-07
1.46717e-06
1.69322e-06
1.95063e-06
2.27181e-06
2.63953e-06
3.06033e-06
3.58441e-06
4.30619e-06
5.34911e-06
6.85759e-06
8.99561e-06
1.19105e-05
1.55934e-05
1.96606e-05
2.33581e-05
2.5975e-05
2.71468e-05
2.67255e-05
2.45452e-05
2.04466e-05
1.49551e-05
9.62755e-06
5.69434e-06
3.28741e-06
2.02798e-06
1.49203e-06
1.35116e-06
1.41587e-06
1.66444e-06
2.5101e-06
6.46248e-06
1.92526e-06
9.80998e-08
5.23428e-10
6.98061e-07
1.3211e-06
1.52614e-06
1.75567e-06
2.03326e-06
2.3811e-06
2.84916e-06
3.51719e-06
4.4865e-06
5.88155e-06
7.866e-06
1.065e-05
1.4418e-05
1.90776e-05
2.3966e-05
2.80813e-05
3.0771e-05
3.19086e-05
3.15663e-05
2.97089e-05
2.60904e-05
2.06079e-05
1.41898e-05
8.59248e-06
4.76046e-06
2.5635e-06
1.52747e-06
1.20857e-06
1.28339e-06
1.60359e-06
2.53097e-06
6.63668e-06
1.95967e-06
1.01608e-07
5.22954e-10
6.62273e-07
1.09335e-06
1.37046e-06
1.64631e-06
1.99348e-06
2.47648e-06
3.1666e-06
4.14326e-06
5.5047e-06
7.39106e-06
1.00034e-05
1.35706e-05
1.81622e-05
2.33481e-05
2.81775e-05
3.18147e-05
3.39756e-05
3.47289e-05
3.42058e-05
3.24181e-05
2.92138e-05
2.44038e-05
1.82377e-05
1.19216e-05
6.91073e-06
3.68543e-06
1.95451e-06
1.26116e-06
1.20734e-06
1.53564e-06
2.52134e-06
6.76846e-06
2.00239e-06
1.06907e-07
6.70043e-10
5.85159e-07
1.03496e-06
1.44087e-06
1.89588e-06
2.48551e-06
3.27783e-06
4.33815e-06
5.75501e-06
7.6668e-06
1.02701e-05
1.37641e-05
1.81569e-05
2.30164e-05
2.75956e-05
3.13396e-05
3.40438e-05
3.56353e-05
3.60365e-05
3.51567e-05
3.28954e-05
2.92383e-05
2.44092e-05
1.88881e-05
1.33181e-05
8.42896e-06
4.81475e-06
2.58796e-06
1.50747e-06
1.24147e-06
1.50296e-06
2.50822e-06
6.89506e-06
2.03951e-06
1.14967e-07
8.80578e-10
6.91067e-07
1.2683e-06
1.88789e-06
2.61081e-06
3.49299e-06
4.60019e-06
6.036e-06
7.95926e-06
1.05569e-05
1.39157e-05
1.78167e-05
2.17725e-05
2.54351e-05
2.87386e-05
3.16402e-05
3.39609e-05
3.54272e-05
3.57553e-05
3.4711e-05
3.20888e-05
2.78834e-05
2.26266e-05
1.72297e-05
1.23824e-05
8.33786e-06
5.18417e-06
3.00473e-06
1.78191e-06
1.36272e-06
1.53872e-06
2.54824e-06
7.12955e-06
2.06394e-06
1.25123e-07
1.21843e-09
1.01322e-06
1.76602e-06
2.53503e-06
3.38721e-06
4.39821e-06
5.68241e-06
7.38384e-06
9.59229e-06
1.21857e-05
1.48771e-05
1.75878e-05
2.04928e-05
2.36798e-05
2.69766e-05
3.00429e-05
3.25344e-05
3.41742e-05
3.47204e-05
3.39233e-05
3.14619e-05
2.71474e-05
2.15255e-05
1.58579e-05
1.1114e-05
7.50154e-06
4.85207e-06
3.00967e-06
1.91467e-06
1.48996e-06
1.63665e-06
2.69411e-06
7.54617e-06
2.0655e-06
1.35037e-07
1.55381e-09
1.37607e-06
2.2131e-06
2.93555e-06
3.70568e-06
4.63587e-06
5.80432e-06
7.20228e-06
8.72837e-06
1.04053e-05
1.24956e-05
1.52544e-05
1.86798e-05
2.24634e-05
2.61648e-05
2.94441e-05
3.21133e-05
3.40324e-05
3.5006e-05
3.47294e-05
3.26821e-05
2.83145e-05
2.20331e-05
1.55687e-05
1.03786e-05
6.72715e-06
4.29595e-06
2.74362e-06
1.87912e-06
1.57134e-06
1.7822e-06
3.00504e-06
8.00749e-06
2.03511e-06
1.40704e-07
1.96077e-09
1.3696e-06
2.22747e-06
2.8464e-06
3.43365e-06
4.09057e-06
4.85296e-06
5.76835e-06
6.98722e-06
8.74789e-06
1.12567e-05
1.45582e-05
1.84437e-05
2.25102e-05
2.63811e-05
2.98402e-05
3.27779e-05
3.50749e-05
3.65169e-05
3.67314e-05
3.50263e-05
3.0513e-05
2.3407e-05
1.59211e-05
1.00673e-05
6.17238e-06
3.77798e-06
2.41002e-06
1.77e-06
1.63119e-06
1.98925e-06
3.53501e-06
7.87519e-06
1.97128e-06
1.38475e-07
2.53267e-09
1.02067e-06
1.82673e-06
2.39993e-06
2.87806e-06
3.3966e-06
4.0789e-06
5.07022e-06
6.53116e-06
8.6036e-06
1.13656e-05
1.47775e-05
1.86494e-05
2.26875e-05
2.66009e-05
3.01734e-05
3.32502e-05
3.56765e-05
3.72376e-05
3.75885e-05
3.60771e-05
3.17983e-05
2.47074e-05
1.67975e-05
1.03723e-05
6.0864e-06
3.53391e-06
2.18161e-06
1.66606e-06
1.68342e-06
2.22905e-06
4.17412e-06
7.14458e-06
1.90104e-06
1.30429e-07
3.00318e-09
7.2862e-07
1.42056e-06
2.02858e-06
2.61104e-06
3.30786e-06
4.2569e-06
5.57764e-06
7.36553e-06
9.68434e-06
1.255e-05
1.59005e-05
1.95707e-05
2.33142e-05
2.68796e-05
3.00742e-05
3.27599e-05
3.48057e-05
3.60398e-05
3.62045e-05
3.48393e-05
3.13295e-05
2.55059e-05
1.83929e-05
1.17963e-05
6.90846e-06
3.84784e-06
2.20857e-06
1.5886e-06
1.64323e-06
2.32598e-06
4.53393e-06
6.60582e-06
1.85882e-06
1.22981e-07
3.17781e-09
6.45044e-07
1.32936e-06
2.09283e-06
2.95805e-06
4.01511e-06
5.35962e-06
7.07211e-06
9.21482e-06
1.18164e-05
1.48355e-05
1.81308e-05
2.14905e-05
2.47133e-05
2.76617e-05
3.02495e-05
3.23954e-05
3.39888e-05
3.48635e-05
3.47957e-05
3.34409e-05
3.04137e-05
2.57036e-05
1.99055e-05
1.39426e-05
8.74152e-06
4.96506e-06
2.70753e-06
1.68084e-06
1.52732e-06
2.13701e-06
4.27555e-06
6.48564e-06
1.86005e-06
1.21006e-07
3.29167e-09
7.40932e-07
1.5409e-06
2.50447e-06
3.6482e-06
5.02296e-06
6.69548e-06
8.73242e-06
1.11728e-05
1.39883e-05
1.70578e-05
2.01997e-05
2.32518e-05
2.6106e-05
2.86902e-05
3.09365e-05
3.2757e-05
3.40319e-05
3.46048e-05
3.42892e-05
3.28195e-05
2.99201e-05
2.57039e-05
2.07818e-05
1.57827e-05
1.10382e-05
6.90935e-06
3.90546e-06
2.21044e-06
1.59881e-06
1.86082e-06
3.52535e-06
6.79822e-06
1.91577e-06
1.24998e-07
3.72481e-09
8.97336e-07
1.80338e-06
2.86961e-06
4.13811e-06
5.66854e-06
7.53097e-06
9.78034e-06
1.24116e-05
1.53306e-05
1.83833e-05
2.14205e-05
2.43264e-05
2.70078e-05
2.93836e-05
3.13765e-05
3.29021e-05
3.38574e-05
3.41211e-05
3.35515e-05
3.1953e-05
2.91744e-05
2.53948e-05
2.11388e-05
1.69295e-05
1.29582e-05
9.17214e-06
5.78585e-06
3.35434e-06
2.11277e-06
1.87013e-06
2.90413e-06
7.22525e-06
2.03391e-06
1.33871e-07
4.50248e-09
9.75123e-07
1.91513e-06
3.01416e-06
4.34614e-06
5.99302e-06
8.02724e-06
1.04774e-05
1.32926e-05
1.634e-05
1.94479e-05
2.24554e-05
2.52354e-05
2.76981e-05
2.97845e-05
3.14468e-05
3.26282e-05
3.32478e-05
3.32012e-05
3.23585e-05
3.05538e-05
2.77139e-05
2.41049e-05
2.0314e-05
1.68456e-05
1.38014e-05
1.08882e-05
7.85676e-06
5.04689e-06
3.14123e-06
2.32504e-06
2.79516e-06
7.26656e-06
2.24698e-06
1.48569e-07
5.58691e-09
9.80629e-07
1.94369e-06
3.1261e-06
4.61808e-06
6.49863e-06
8.81028e-06
1.15276e-05
1.45401e-05
1.76754e-05
2.07533e-05
2.36303e-05
2.62128e-05
2.84475e-05
3.03017e-05
3.17373e-05
3.26923e-05
3.30713e-05
3.27468e-05
3.15525e-05
2.92961e-05
2.59725e-05
2.20717e-05
1.83921e-05
1.54459e-05
1.3209e-05
1.12953e-05
9.2076e-06
6.76043e-06
4.50693e-06
3.17409e-06
3.21094e-06
7.32656e-06
2.5706e-06
1.69431e-07
7.10409e-09
9.94478e-07
2.0263e-06
3.36835e-06
5.10111e-06
7.26152e-06
9.82297e-06
1.26857e-05
1.56996e-05
1.87129e-05
2.16093e-05
2.43118e-05
2.67718e-05
2.89538e-05
3.08176e-05
3.22982e-05
3.32862e-05
3.3621e-05
3.30848e-05
3.13877e-05
2.82418e-05
2.38331e-05
1.92136e-05
1.55274e-05
1.31281e-05
1.17014e-05
1.06892e-05
9.50418e-06
7.72403e-06
5.59848e-06
4.04835e-06
3.95742e-06
8.56087e-06
2.7662e-06
1.89404e-07
9.14484e-09
1.03309e-06
2.15924e-06
3.66283e-06
5.58403e-06
7.89728e-06
1.05232e-05
1.33549e-05
1.62846e-05
1.92178e-05
2.20741e-05
2.47899e-05
2.73189e-05
2.9622e-05
3.16499e-05
3.33187e-05
3.44749e-05
3.48642e-05
3.40845e-05
3.15314e-05
2.67257e-05
2.05468e-05
1.51722e-05
1.18037e-05
1.02364e-05
9.80753e-06
9.81074e-06
9.47781e-06
8.20897e-06
6.30547e-06
4.87591e-06
5.19823e-06
1.11238e-05
2.6669e-06
1.92563e-07
1.13091e-08
1.06401e-06
2.26391e-06
3.87517e-06
5.8954e-06
8.27623e-06
1.0958e-05
1.38701e-05
1.6916e-05
1.99784e-05
2.29495e-05
2.57559e-05
2.83575e-05
3.07268e-05
3.28212e-05
3.45512e-05
3.57306e-05
3.59978e-05
3.46811e-05
3.07337e-05
2.38248e-05
1.63532e-05
1.11139e-05
8.50132e-06
7.81146e-06
8.31559e-06
9.21805e-06
9.51008e-06
8.60913e-06
7.05871e-06
6.10845e-06
7.45317e-06
1.03086e-05
2.41057e-06
1.76102e-07
1.30206e-08
1.08208e-06
2.33431e-06
4.02122e-06
6.12563e-06
8.61873e-06
1.14642e-05
1.4572e-05
1.77886e-05
2.09508e-05
2.39449e-05
2.67176e-05
2.92497e-05
3.15233e-05
3.34935e-05
3.50564e-05
3.59999e-05
3.59052e-05
3.39844e-05
2.91127e-05
2.13724e-05
1.37435e-05
8.74056e-06
6.38656e-06
5.97729e-06
6.9341e-06
8.44997e-06
9.35364e-06
9.04459e-06
8.13979e-06
7.97156e-06
1.04868e-05
8.05541e-06
2.21538e-06
1.56481e-07
1.39714e-08
1.09929e-06
2.39017e-06
4.12552e-06
6.29541e-06
8.89891e-06
1.1903e-05
1.51791e-05
1.85229e-05
2.17445e-05
2.47293e-05
2.74306e-05
2.98321e-05
3.19149e-05
3.36355e-05
3.48954e-05
3.55052e-05
3.51182e-05
3.31224e-05
2.8669e-05
2.15923e-05
1.39567e-05
8.35463e-06
5.36504e-06
4.45495e-06
5.16483e-06
6.9404e-06
8.67501e-06
9.35006e-06
9.32804e-06
9.99477e-06
1.26059e-05
7.11623e-06
2.13401e-06
1.45839e-07
1.41937e-08
1.11589e-06
2.42861e-06
4.18607e-06
6.40536e-06
9.12221e-06
1.23075e-05
1.57876e-05
1.92903e-05
2.25798e-05
2.55323e-05
2.81128e-05
3.03221e-05
3.21587e-05
3.35956e-05
3.45628e-05
3.49256e-05
3.44522e-05
3.27729e-05
2.93659e-05
2.37988e-05
1.66985e-05
1.01654e-05
5.83481e-06
3.77454e-06
3.51802e-06
4.71647e-06
6.82706e-06
8.79347e-06
1.00166e-05
1.14454e-05
1.35231e-05
7.01135e-06
2.15246e-06
1.45911e-07
1.39758e-08
1.13828e-06
2.46685e-06
4.24039e-06
6.51391e-06
9.35386e-06
1.27213e-05
1.63866e-05
2.00111e-05
2.33291e-05
2.62245e-05
2.86841e-05
3.07304e-05
3.23806e-05
3.36279e-05
3.44276e-05
3.46841e-05
3.42373e-05
3.28601e-05
3.02805e-05
2.6207e-05
2.05654e-05
1.40765e-05
8.36392e-06
4.64212e-06
2.95591e-06
2.93117e-06
4.23366e-06
6.52611e-06
9.12587e-06
1.17301e-05
1.38664e-05
7.27136e-06
2.23558e-06
1.5433e-07
1.36204e-08
1.16208e-06
2.49573e-06
4.2726e-06
6.58805e-06
9.53599e-06
1.3069e-05
1.6906e-05
2.06463e-05
2.39957e-05
2.68475e-05
2.92126e-05
3.11382e-05
3.2665e-05
3.38069e-05
3.45359e-05
3.47776e-05
3.44069e-05
3.32574e-05
3.11675e-05
2.80089e-05
2.37393e-05
1.84463e-05
1.26366e-05
7.49263e-06
4.08382e-06
2.5574e-06
2.54993e-06
3.82311e-06
6.32159e-06
9.9236e-06
1.34002e-05
7.56508e-06
2.33003e-06
1.68725e-07
1.33961e-08
1.1821e-06
2.51499e-06
4.30078e-06
6.67534e-06
9.75356e-06
1.3469e-05
1.74765e-05
2.13139e-05
2.46766e-05
2.74834e-05
2.97745e-05
3.16195e-05
3.30736e-05
3.41607e-05
3.48637e-05
3.51199e-05
3.48218e-05
3.3814e-05
3.19546e-05
2.91919e-05
2.56331e-05
2.14414e-05
1.66836e-05
1.1566e-05
6.9293e-06
3.79435e-06
2.38922e-06
2.38288e-06
3.67743e-06
6.63465e-06
1.15474e-05
7.73542e-06
2.38061e-06
1.86786e-07
1.35422e-08
1.20256e-06
2.5413e-06
4.35763e-06
6.82069e-06
1.00523e-05
1.39475e-05
1.8089e-05
2.19732e-05
2.53139e-05
2.80666e-05
3.02979e-05
3.20913e-05
3.3508e-05
3.45731e-05
3.52695e-05
3.55325e-05
3.52469e-05
3.42618e-05
3.24446e-05
2.97924e-05
2.64968e-05
2.28751e-05
1.90859e-05
1.49858e-05
1.05227e-05
6.39382e-06
3.61878e-06
2.37231e-06
2.47642e-06
4.09757e-06
8.52752e-06
7.90032e-06
2.3827e-06
2.05473e-07
1.41768e-08
1.21943e-06
2.56984e-06
4.43427e-06
7.00645e-06
1.04017e-05
1.44603e-05
1.86929e-05
2.25817e-05
2.58802e-05
2.85835e-05
3.07778e-05
3.25514e-05
3.39624e-05
3.5029e-05
3.57248e-05
3.59735e-05
3.56446e-05
3.45636e-05
3.2582e-05
2.97276e-05
2.63359e-05
2.29093e-05
1.97518e-05
1.67012e-05
1.33037e-05
9.4226e-06
5.84637e-06
3.46147e-06
2.51266e-06
3.02836e-06
6.07085e-06
8.28587e-06
2.37106e-06
2.21724e-07
1.53947e-08
1.23004e-06
2.60042e-06
4.53547e-06
7.24711e-06
1.08321e-05
1.50595e-05
1.93704e-05
2.3255e-05
2.65219e-05
2.92051e-05
3.14033e-05
3.32022e-05
3.46504e-05
3.57517e-05
3.64616e-05
3.66795e-05
3.62407e-05
3.49154e-05
3.25227e-05
2.91634e-05
2.53838e-05
2.18965e-05
1.90899e-05
1.68305e-05
1.45777e-05
1.17356e-05
8.30904e-06
5.22491e-06
3.38201e-06
3.05887e-06
5.08949e-06
8.95855e-06
2.37932e-06
2.31988e-07
1.71985e-08
1.23904e-06
2.64399e-06
4.67857e-06
7.56488e-06
1.13648e-05
1.57576e-05
2.01231e-05
2.39907e-05
2.72369e-05
2.99299e-05
3.2173e-05
3.40432e-05
3.5574e-05
3.67503e-05
3.75003e-05
3.76832e-05
3.707e-05
3.53375e-05
3.22533e-05
2.80686e-05
2.36795e-05
2.00507e-05
1.75734e-05
1.60244e-05
1.47887e-05
1.30654e-05
1.03284e-05
7.1366e-06
4.71688e-06
3.81017e-06
5.3907e-06
9.83569e-06
2.42709e-06
2.33287e-07
1.94571e-08
1.2543e-06
2.71051e-06
4.86679e-06
7.94662e-06
1.19627e-05
1.64975e-05
2.08929e-05
2.47394e-05
2.7978e-05
3.07002e-05
3.3008e-05
3.49681e-05
3.65997e-05
3.78683e-05
3.86717e-05
3.88166e-05
3.79782e-05
3.56902e-05
3.16545e-05
2.63945e-05
2.13059e-05
1.75717e-05
1.54698e-05
1.46261e-05
1.43415e-05
1.36562e-05
1.17269e-05
8.81708e-06
6.21955e-06
5.07669e-06
6.81032e-06
1.04339e-05
2.48859e-06
2.24213e-07
2.17981e-08
1.27485e-06
2.78846e-06
5.06593e-06
8.32904e-06
1.25429e-05
1.7203e-05
2.16266e-05
2.54616e-05
2.86995e-05
3.14476e-05
3.38067e-05
3.58366e-05
3.75471e-05
3.88893e-05
3.97361e-05
3.98449e-05
3.87913e-05
3.59486e-05
3.09509e-05
2.46414e-05
1.89122e-05
1.50673e-05
1.3242e-05
1.29644e-05
1.34809e-05
1.36667e-05
1.25177e-05
1.01435e-05
7.78704e-06
6.85267e-06
9.42309e-06
1.02963e-05
2.53674e-06
2.07633e-07
2.3792e-08
1.29643e-06
2.86316e-06
5.24672e-06
8.67501e-06
1.30774e-05
1.78636e-05
2.23189e-05
2.61381e-05
2.93559e-05
3.20954e-05
3.44592e-05
3.65039e-05
3.82344e-05
3.9595e-05
4.04469e-05
4.05262e-05
3.93629e-05
3.62341e-05
3.06753e-05
2.36265e-05
1.72781e-05
1.30941e-05
1.11986e-05
1.11305e-05
1.2178e-05
1.31415e-05
1.28736e-05
1.1294e-05
9.54744e-06
9.27735e-06
1.30809e-05
9.94729e-06
2.59342e-06
1.90872e-07
2.51554e-08
1.31745e-06
2.92717e-06
5.39412e-06
8.96381e-06
1.35395e-05
1.84416e-05
2.29181e-05
2.67058e-05
2.98793e-05
3.2578e-05
3.49087e-05
3.69281e-05
3.86401e-05
3.99896e-05
4.0844e-05
4.09571e-05
3.98942e-05
3.69447e-05
3.14995e-05
2.41732e-05
1.71265e-05
1.21763e-05
9.68878e-06
9.2967e-06
1.04181e-05
1.19811e-05
1.27444e-05
1.22626e-05
1.14615e-05
1.21575e-05
1.66392e-05
9.96089e-06
2.69049e-06
1.81116e-07
2.58928e-08
1.33606e-06
2.97478e-06
5.50084e-06
9.18755e-06
1.39158e-05
1.89124e-05
2.33888e-05
2.71257e-05
3.02373e-05
3.28805e-05
3.51687e-05
3.71604e-05
3.88609e-05
4.02201e-05
4.1122e-05
4.13619e-05
4.0579e-05
3.8152e-05
3.33908e-05
2.63729e-05
1.87685e-05
1.27194e-05
9.1359e-06
7.86778e-06
8.4783e-06
1.01702e-05
1.18647e-05
1.27094e-05
1.31344e-05
1.48506e-05
1.90888e-05
1.03446e-05
2.8293e-06
1.80346e-07
2.61685e-08
1.34919e-06
3.00228e-06
5.56793e-06
9.35233e-06
1.42101e-05
1.92734e-05
2.37288e-05
2.74063e-05
3.04581e-05
3.30582e-05
3.53261e-05
3.7322e-05
3.9052e-05
4.04716e-05
4.14853e-05
4.19337e-05
4.15244e-05
3.97402e-05
3.59088e-05
2.9694e-05
2.20149e-05
1.4914e-05
9.9373e-06
7.38795e-06
6.97559e-06
8.10085e-06
1.00692e-05
1.20404e-05
1.38272e-05
1.65589e-05
2.04122e-05
1.08754e-05
2.98261e-06
1.87454e-07
2.6238e-08
1.35586e-06
3.01252e-06
5.60786e-06
9.47879e-06
1.44456e-05
1.95503e-05
2.39715e-05
2.75921e-05
3.05997e-05
3.3183e-05
3.54656e-05
3.7507e-05
3.93115e-05
4.08365e-05
4.20015e-05
4.26818e-05
4.26321e-05
4.14139e-05
3.84228e-05
3.31632e-05
2.59526e-05
1.83271e-05
1.20913e-05
8.13167e-06
6.44052e-06
6.55459e-06
8.00183e-06
1.027e-05
1.30312e-05
1.67428e-05
2.07743e-05
1.13065e-05
3.11013e-06
2.00305e-07
2.63217e-08
1.35608e-06
3.01019e-06
5.63202e-06
9.58164e-06
1.46362e-05
1.97562e-05
2.41289e-05
2.76941e-05
3.06728e-05
3.32672e-05
3.56035e-05
3.7738e-05
3.96701e-05
4.13543e-05
4.27194e-05
4.36633e-05
4.39649e-05
4.32258e-05
4.08769e-05
3.63697e-05
2.97414e-05
2.20691e-05
1.50423e-05
9.88175e-06
6.9408e-06
5.93751e-06
6.47152e-06
8.24679e-06
1.1131e-05
1.54699e-05
2.03716e-05
1.15563e-05
3.19176e-06
2.17191e-07
2.66477e-08
1.35259e-06
3.00506e-06
5.65855e-06
9.68626e-06
1.48105e-05
1.99165e-05
2.42192e-05
2.77213e-05
3.06782e-05
3.33045e-05
3.57274e-05
3.79964e-05
4.01016e-05
4.19928e-05
4.3602e-05
4.48285e-05
4.54578e-05
4.51058e-05
4.32083e-05
3.9172e-05
3.28982e-05
2.52911e-05
1.79105e-05
1.20098e-05
8.13185e-06
6.17482e-06
5.79787e-06
6.78286e-06
9.1496e-06
1.34631e-05
1.94352e-05
1.16313e-05
3.22138e-06
2.35975e-07
2.73438e-08
1.34924e-06
3.007e-06
5.70448e-06
9.81868e-06
1.50019e-05
2.00657e-05
2.42722e-05
2.7698e-05
3.06353e-05
3.33115e-05
3.58534e-05
3.83016e-05
4.06329e-05
4.27878e-05
4.4695e-05
4.6243e-05
4.72071e-05
4.71879e-05
4.55863e-05
4.1739e-05
3.54731e-05
2.76877e-05
2.00076e-05
1.37357e-05
9.38093e-06
6.83491e-06
5.79128e-06
6.07765e-06
7.77732e-06
1.16428e-05
1.83425e-05
1.15419e-05
3.20314e-06
2.53875e-07
2.85144e-08
1.35206e-06
3.02912e-06
5.79281e-06
1.0015e-05
1.52506e-05
2.02327e-05
2.43013e-05
2.76233e-05
3.05303e-05
3.32622e-05
3.59435e-05
3.86039e-05
4.12044e-05
4.3674e-05
4.59347e-05
4.78539e-05
4.91795e-05
4.94698e-05
4.805e-05
4.41515e-05
3.75554e-05
2.92901e-05
2.12014e-05
1.46887e-05
1.01845e-05
7.43866e-06
6.07019e-06
5.91432e-06
7.10636e-06
1.05209e-05
1.75795e-05
1.12417e-05
3.14185e-06
2.67133e-07
3.01184e-08
1.36344e-06
3.0754e-06
5.92972e-06
1.02821e-05
1.55549e-05
2.04049e-05
2.42871e-05
2.74704e-05
3.03261e-05
3.31051e-05
3.59279e-05
3.88117e-05
4.17009e-05
4.45136e-05
4.71641e-05
4.94907e-05
5.1201e-05
5.17871e-05
5.04625e-05
4.63214e-05
3.91257e-05
3.01419e-05
2.15399e-05
1.4841e-05
1.03796e-05
7.71073e-06
6.3261e-06
6.01813e-06
6.9703e-06
1.01995e-05
1.75103e-05
1.06895e-05
3.0487e-06
2.72912e-07
3.20052e-08
1.38363e-06
3.14394e-06
6.10873e-06
1.06061e-05
1.5891e-05
2.05536e-05
2.41962e-05
2.71965e-05
2.99669e-05
3.27684e-05
3.57144e-05
3.88055e-05
4.19709e-05
4.51204e-05
4.81531e-05
5.08763e-05
5.29545e-05
5.3809e-05
5.25363e-05
4.80992e-05
4.02636e-05
3.05519e-05
2.14432e-05
1.45669e-05
1.0179e-05
7.67657e-06
6.44272e-06
6.20058e-06
7.16101e-06
1.05024e-05
1.80029e-05
1.00059e-05
2.94645e-06
2.71764e-07
3.39839e-08
1.41013e-06
3.22611e-06
6.31046e-06
1.0951e-05
1.62055e-05
2.06156e-05
2.3957e-05
2.67206e-05
2.93632e-05
3.2156e-05
3.52002e-05
3.84731e-05
4.1886e-05
4.53387e-05
4.87059e-05
5.17664e-05
5.4147e-05
5.52116e-05
5.39759e-05
4.93321e-05
4.1072e-05
3.08702e-05
2.13778e-05
1.43111e-05
9.91265e-06
7.51251e-06
6.44457e-06
6.37292e-06
7.51333e-06
1.11595e-05
1.85916e-05
9.37649e-06
2.8569e-06
2.67306e-07
3.58271e-08
1.43724e-06
3.30588e-06
6.49991e-06
1.1258e-05
1.64285e-05
2.05225e-05
2.34979e-05
2.59635e-05
2.84283e-05
3.11752e-05
3.42888e-05
3.77171e-05
4.13478e-05
4.50662e-05
4.87186e-05
5.20564e-05
5.46784e-05
5.59202e-05
5.47805e-05
5.01614e-05
4.18654e-05
3.153e-05
2.17947e-05
1.44651e-05
9.87211e-06
7.396e-06
6.38186e-06
6.46153e-06
7.83444e-06
1.18301e-05
1.89206e-05
8.9318e-06
2.79599e-06
2.63665e-07
3.74956e-08
1.46316e-06
3.37878e-06
6.67078e-06
1.15273e-05
1.65755e-05
2.02997e-05
2.28495e-05
2.49637e-05
2.72116e-05
2.98858e-05
3.30494e-05
3.66165e-05
4.04479e-05
4.44102e-05
4.83183e-05
5.18965e-05
5.47253e-05
5.61374e-05
5.51648e-05
5.07783e-05
4.27802e-05
3.26326e-05
2.28065e-05
1.51703e-05
1.02154e-05
7.46834e-06
6.33303e-06
6.44331e-06
7.98004e-06
1.22435e-05
1.89749e-05
8.67809e-06
2.76449e-06
2.63066e-07
3.90786e-08
1.48722e-06
3.44249e-06
6.81927e-06
1.176e-05
1.66617e-05
1.99797e-05
2.20673e-05
2.38057e-05
2.58263e-05
2.84243e-05
3.16361e-05
3.53413e-05
3.93736e-05
4.35779e-05
4.77361e-05
5.15485e-05
5.45835e-05
5.6183e-05
5.54306e-05
5.13814e-05
4.38398e-05
3.40643e-05
2.42851e-05
1.63653e-05
1.09647e-05
7.80822e-06
6.39033e-06
6.36721e-06
7.90881e-06
1.22743e-05
1.88701e-05
8.56179e-06
2.75306e-06
2.65502e-07
4.07606e-08
1.50946e-06
3.49766e-06
6.95041e-06
1.19685e-05
1.67015e-05
1.95834e-05
2.11933e-05
2.25605e-05
2.43697e-05
2.69085e-05
3.01816e-05
3.40393e-05
3.82921e-05
4.27504e-05
4.71679e-05
5.1224e-05
5.44738e-05
5.6264e-05
5.57217e-05
5.19822e-05
4.48758e-05
3.55131e-05
2.58931e-05
1.77978e-05
1.1993e-05
8.39907e-06
6.61858e-06
6.3402e-06
7.72722e-06
1.2017e-05
1.86907e-05
8.49885e-06
2.74618e-06
2.69279e-07
4.26554e-08
1.52831e-06
3.54123e-06
7.05812e-06
1.21339e-05
1.6663e-05
1.90933e-05
2.02398e-05
2.12664e-05
2.28933e-05
2.53925e-05
2.87404e-05
3.27625e-05
3.72481e-05
4.19751e-05
4.66683e-05
5.0983e-05
5.44562e-05
5.64303e-05
5.60606e-05
5.25501e-05
4.57732e-05
3.67597e-05
2.73352e-05
1.91701e-05
1.3075e-05
9.1163e-06
6.99426e-06
6.43158e-06
7.58844e-06
1.16988e-05
1.85072e-05
8.41936e-06
2.7309e-06
2.71937e-07
4.47801e-08
1.54246e-06
3.5724e-06
7.1407e-06
1.2247e-05
1.65425e-05
1.85328e-05
1.92581e-05
1.99842e-05
2.14479e-05
2.39057e-05
2.73172e-05
3.14947e-05
3.62113e-05
4.12124e-05
4.61897e-05
5.07689e-05
5.44612e-05
5.65952e-05
5.63463e-05
5.29826e-05
4.64373e-05
3.77004e-05
2.84666e-05
2.02941e-05
1.40172e-05
9.80418e-06
7.42774e-06
6.63644e-06
7.59317e-06
1.15475e-05
1.84017e-05
8.2758e-06
2.69966e-06
2.71228e-07
4.70104e-08
1.55235e-06
3.59435e-06
7.20566e-06
1.23245e-05
1.63873e-05
1.79837e-05
1.83414e-05
1.87985e-05
2.00945e-05
2.24763e-05
2.59036e-05
3.01905e-05
3.51034e-05
4.03565e-05
4.56046e-05
5.04359e-05
5.43277e-05
5.65912e-05
5.64272e-05
5.31808e-05
4.68521e-05
3.83901e-05
2.93546e-05
2.11932e-05
1.47805e-05
1.03811e-05
7.82954e-06
6.89309e-06
7.74151e-06
1.16498e-05
1.83796e-05
8.05994e-06
2.65222e-06
2.66089e-07
4.9129e-08
1.55909e-06
3.61101e-06
7.26011e-06
1.23834e-05
1.62413e-05
1.75073e-05
1.75481e-05
1.77501e-05
1.88516e-05
2.10988e-05
2.44644e-05
2.87802e-05
3.38172e-05
3.92643e-05
4.47374e-05
4.9782e-05
5.38368e-05
5.62005e-05
5.61191e-05
5.30393e-05
4.7027e-05
3.89538e-05
3.01944e-05
2.20688e-05
1.55108e-05
1.09095e-05
8.18656e-06
7.14017e-06
7.95067e-06
1.19063e-05
1.82897e-05
7.78271e-06
2.59131e-06
2.56938e-07
5.0921e-08
1.56439e-06
3.62572e-06
7.3056e-06
1.24219e-05
1.61087e-05
1.71126e-05
1.6885e-05
1.68405e-05
1.77172e-05
1.97675e-05
2.2987e-05
2.72367e-05
3.23031e-05
3.78577e-05
4.34819e-05
4.86783e-05
5.28509e-05
5.52989e-05
5.534e-05
5.25433e-05
4.70303e-05
3.95476e-05
3.1215e-05
2.31939e-05
1.64687e-05
1.15847e-05
8.59821e-06
7.37005e-06
8.09801e-06
1.20501e-05
1.79222e-05
7.4659e-06
2.52158e-06