/*--------------------------------*- C++ -*----------------------------------*\
| =========                 |                                                 |
| \\      /  F ield         | OpenFOAM: The Open Source CFD Toolbox           |
|  \\    /   O peration     | Version:  v1906                                 |
|   \\  /    A nd           | Web:      www.OpenFOAM.com                      |
|    \\/     M anipulation  |                                                 |
\*---------------------------------------------------------------------------*/
FoamFile
{
    version     2.0;
    format      ascii;
    class       volScalarField;
    location    "31";
    object      nut;
}
// * * * * * * * * * * * * * * * * * * * * * * * * * * * * * * * * * * * * * //

dimensions      [0 2 -1 0 0 0 0];


internalField   nonuniform List<scalar> 
78750
(
2.09895e-07
4.17037e-06
4.49096e-06
4.42459e-06
4.25432e-06
4.04249e-06
3.82746e-06
3.62524e-06
3.43912e-06
3.26873e-06
3.11327e-06
2.97225e-06
2.84592e-06
2.73438e-06
2.63681e-06
2.55172e-06
2.47721e-06
2.41118e-06
2.35143e-06
2.29598e-06
2.24262e-06
2.18906e-06
2.13294e-06
2.07224e-06
2.00499e-06
1.92955e-06
1.84055e-06
1.73495e-06
1.60871e-06
1.45446e-06
1.2647e-06
1.02952e-06
7.48546e-07
4.58224e-07
8.17257e-09
2.27494e-08
2.85772e-06
5.83534e-06
9.81558e-06
1.27717e-05
1.44653e-05
1.60298e-05
1.746e-05
1.84973e-05
1.91858e-05
1.96974e-05
1.96799e-05
1.9397e-05
1.91469e-05
1.89219e-05
1.87191e-05
1.85282e-05
1.82277e-05
1.78936e-05
1.76513e-05
1.7496e-05
1.74069e-05
1.71276e-05
1.676e-05
1.63327e-05
1.5832e-05
1.5237e-05
1.45254e-05
1.3443e-05
9.79452e-06
6.53642e-06
4.46481e-06
3.7457e-06
3.50795e-06
2.19265e-08
3.21657e-08
3.48412e-06
5.94358e-06
6.28736e-06
6.12175e-06
6.1681e-06
6.86866e-06
8.65111e-06
1.04985e-05
1.02915e-05
1.01547e-05
1.00731e-05
1.00368e-05
1.00401e-05
1.00794e-05
1.01525e-05
1.02578e-05
1.03935e-05
1.05576e-05
1.07479e-05
1.09609e-05
1.11915e-05
1.14316e-05
1.16704e-05
1.18929e-05
1.20788e-05
1.22022e-05
1.16461e-05
9.2147e-06
7.02317e-06
5.41052e-06
4.58419e-06
5.22023e-06
3.33288e-06
2.8607e-08
1.85495e-08
4.09207e-06
8.55621e-06
8.04704e-06
7.10391e-06
6.54271e-06
6.64966e-06
7.5721e-06
7.7789e-06
7.15117e-06
6.55328e-06
6.01544e-06
5.55934e-06
5.19493e-06
4.92207e-06
4.73486e-06
4.62561e-06
4.58789e-06
4.6186e-06
4.71896e-06
4.89448e-06
5.15381e-06
5.50635e-06
5.95825e-06
6.50642e-06
7.10912e-06
6.5301e-06
5.8486e-06
5.09487e-06
4.33112e-06
3.72643e-06
3.57258e-06
4.78507e-06
3.08126e-06
3.23401e-08
1.49023e-08
2.45442e-06
6.79453e-06
7.76346e-06
6.70562e-06
5.51751e-06
4.55105e-06
3.72927e-06
3.04224e-06
2.52867e-06
2.20278e-06
2.05492e-06
2.06371e-06
1.98584e-06
2.01316e-06
2.10244e-06
2.19828e-06
2.26228e-06
2.27275e-06
2.22358e-06
2.12463e-06
2.00405e-06
1.91244e-06
1.92576e-06
1.97827e-06
1.96663e-06
2.11297e-06
2.37876e-06
2.67471e-06
2.90166e-06
3.06988e-06
3.49735e-06
5.55208e-06
2.52621e-06
3.71557e-08
1.03539e-08
2.03565e-06
5.47801e-06
6.2821e-06
4.9579e-06
3.65113e-06
2.75629e-06
2.1319e-06
1.73343e-06
1.56603e-06
1.66678e-06
2.06533e-06
2.7336e-06
3.58684e-06
4.51706e-06
5.40501e-06
6.1397e-06
6.64198e-06
6.86572e-06
6.78681e-06
6.3951e-06
5.69723e-06
4.72999e-06
3.57828e-06
2.38125e-06
1.33637e-06
6.84959e-07
5.38901e-07
7.61545e-07
1.1672e-06
1.6562e-06
2.35941e-06
4.44351e-06
2.2545e-06
4.00274e-08
8.42108e-09
1.64373e-06
4.58892e-06
5.29519e-06
4.30686e-06
3.00013e-06
2.15392e-06
1.64958e-06
1.47168e-06
1.65623e-06
2.24267e-06
3.24116e-06
4.64349e-06
6.44109e-06
8.33781e-06
9.10567e-06
9.69969e-06
1.01235e-05
1.03821e-05
1.04766e-05
1.04013e-05
1.01421e-05
9.67699e-06
8.24999e-06
6.02123e-06
4.01927e-06
2.42982e-06
1.38153e-06
9.10138e-07
9.06938e-07
1.22047e-06
1.8952e-06
4.04306e-06
1.91557e-06
4.36908e-08
6.62175e-09
1.44682e-06
3.76776e-06
4.31333e-06
3.03845e-06
2.01159e-06
1.44496e-06
1.23421e-06
1.3753e-06
1.89735e-06
2.83036e-06
4.19259e-06
5.98827e-06
8.13659e-06
9.70347e-06
1.03746e-05
1.08905e-05
1.12569e-05
1.14763e-05
1.15466e-05
1.14603e-05
1.12055e-05
1.07666e-05
8.99126e-06
6.75653e-06
4.69892e-06
2.98527e-06
1.74852e-06
1.04738e-06
8.23683e-07
9.64191e-07
1.49584e-06
3.42784e-06
1.76257e-06
4.57378e-08
5.56237e-09
1.22789e-06
3.07226e-06
3.49053e-06
2.16317e-06
1.48272e-06
1.21518e-06
1.30009e-06
1.75331e-06
2.60998e-06
3.89875e-06
5.62757e-06
7.78026e-06
1.02019e-05
1.13507e-05
1.2069e-05
1.26513e-05
1.30981e-05
1.34057e-05
1.35648e-05
1.35603e-05
1.33719e-05
1.29752e-05
1.05964e-05
7.93933e-06
5.55529e-06
3.5824e-06
2.12896e-06
1.24302e-06
8.6899e-07
8.96372e-07
1.35192e-06
3.26138e-06
1.61682e-06
4.81297e-08
4.5322e-09
1.06885e-06
2.47902e-06
2.58339e-06
1.63411e-06
1.26251e-06
1.24001e-06
1.54181e-06
2.19389e-06
3.23518e-06
4.69844e-06
6.60614e-06
8.93912e-06
1.11174e-05
1.19421e-05
1.26524e-05
1.32509e-05
1.37387e-05
1.41124e-05
1.43631e-05
1.44753e-05
1.4427e-05
1.41903e-05
1.1894e-05
9.04054e-06
6.45127e-06
4.28135e-06
2.63246e-06
1.55834e-06
1.02376e-06
9.20501e-07
1.26968e-06
3.08834e-06
1.56477e-06
4.95929e-08
3.40913e-09
9.70369e-07
2.02007e-06
2.16438e-06
1.46975e-06
1.24291e-06
1.31443e-06
1.67009e-06
2.33916e-06
3.3656e-06
4.79408e-06
6.6686e-06
8.98446e-06
1.10517e-05
1.19107e-05
1.26621e-05
1.33077e-05
1.3848e-05
1.42795e-05
1.45947e-05
1.47799e-05
1.48153e-05
1.46205e-05
1.19025e-05
9.13265e-06
6.64671e-06
4.53829e-06
2.89633e-06
1.78122e-06
1.18225e-06
1.00974e-06
1.30775e-06
3.17158e-06
1.52614e-06
5.14196e-08
2.30191e-09
1.00104e-06
1.63597e-06
1.78411e-06
1.34387e-06
1.2474e-06
1.4038e-06
1.81525e-06
2.51676e-06
3.5499e-06
4.94863e-06
6.7373e-06
8.92427e-06
1.12879e-05
1.21476e-05
1.29056e-05
1.35645e-05
1.4125e-05
1.4584e-05
1.49342e-05
1.51633e-05
1.52531e-05
1.44763e-05
1.18315e-05
9.1788e-06
6.79465e-06
4.75844e-06
3.14215e-06
2.00408e-06
1.35556e-06
1.12472e-06
1.37388e-06
3.2544e-06
1.53896e-06
5.33859e-08
1.57436e-09
8.43163e-07
1.3717e-06
1.53673e-06
1.31797e-06
1.35372e-06
1.60711e-06
2.08995e-06
2.82762e-06
3.8396e-06
5.13439e-06
6.72208e-06
8.63383e-06
1.08251e-05
1.20602e-05
1.28024e-05
1.34543e-05
1.40137e-05
1.44766e-05
1.48358e-05
1.50799e-05
1.51922e-05
1.37167e-05
1.10906e-05
8.60472e-06
6.42769e-06
4.59232e-06
3.13336e-06
2.09095e-06
1.47975e-06
1.24919e-06
1.50366e-06
3.53779e-06
1.54783e-06
5.62689e-08
1.15467e-09
7.38321e-07
1.26117e-06
1.40413e-06
1.35931e-06
1.50668e-06
1.83507e-06
2.35638e-06
3.08454e-06
4.0266e-06
5.1867e-06
6.57916e-06
8.23938e-06
1.01938e-05
1.21119e-05
1.28427e-05
1.34777e-05
1.40155e-05
1.4455e-05
1.47937e-05
1.50246e-05
1.50725e-05
1.26711e-05
1.01947e-05
7.94919e-06
5.99105e-06
4.34397e-06
3.03617e-06
2.10038e-06
1.54985e-06
1.34559e-06
1.62685e-06
3.83005e-06
1.5724e-06
5.96151e-08
8.56444e-10
6.62182e-07
1.17077e-06
1.33974e-06
1.3821e-06
1.56378e-06
1.886e-06
2.36074e-06
3.00126e-06
3.81766e-06
4.81819e-06
6.01626e-06
7.44242e-06
9.15182e-06
1.11464e-05
1.26788e-05
1.32594e-05
1.37254e-05
1.40829e-05
1.43387e-05
1.44965e-05
1.33699e-05
1.10018e-05
8.80653e-06
6.91485e-06
5.28492e-06
3.90236e-06
2.79616e-06
2.01032e-06
1.55885e-06
1.41737e-06
1.76792e-06
4.23209e-06
1.57957e-06
6.36097e-08
6.45988e-10
5.95006e-07
1.08853e-06
1.2343e-06
1.35659e-06
1.58235e-06
1.93092e-06
2.42065e-06
3.06194e-06
3.85134e-06
4.77335e-06
5.81446e-06
6.98542e-06
8.3359e-06
9.93852e-06
1.17899e-05
1.35946e-05
1.39269e-05
1.412e-05
1.41873e-05
1.34797e-05
1.12115e-05
9.02486e-06
7.22336e-06
5.76371e-06
4.52512e-06
3.44293e-06
2.54138e-06
1.89034e-06
1.52706e-06
1.44819e-06
1.87037e-06
4.55524e-06
1.58961e-06
6.79176e-08
6.04458e-10
5.75729e-07
1.08083e-06
1.22569e-06
1.43699e-06
1.74386e-06
2.16395e-06
2.70166e-06
3.34133e-06
4.04934e-06
4.79469e-06
5.57998e-06
6.45721e-06
7.51329e-06
8.8321e-06
1.04324e-05
1.21643e-05
1.36226e-05
1.42415e-05
1.3589e-05
1.17275e-05
9.3338e-06
7.1741e-06
5.56249e-06
4.42653e-06
3.57305e-06
2.84854e-06
2.21362e-06
1.73411e-06
1.47252e-06
1.4625e-06
1.96592e-06
4.86433e-06
1.58836e-06
7.24096e-08
6.91773e-10
6.30891e-07
1.13863e-06
1.33556e-06
1.61213e-06
1.97883e-06
2.43238e-06
2.9514e-06
3.49971e-06
4.05322e-06
4.63489e-06
5.32077e-06
6.21326e-06
7.40748e-06
8.95374e-06
1.07955e-05
1.2692e-05
1.42106e-05
1.4851e-05
1.4219e-05
1.22332e-05
9.43014e-06
6.75796e-06
4.78303e-06
3.51732e-06
2.74817e-06
2.24437e-06
1.85146e-06
1.55175e-06
1.39728e-06
1.45307e-06
2.02604e-06
5.08439e-06
1.59407e-06
7.65647e-08
7.46854e-10
6.69742e-07
1.26994e-06
1.44107e-06
1.70348e-06
2.0392e-06
2.42426e-06
2.83265e-06
3.259e-06
3.7453e-06
4.37986e-06
5.27352e-06
6.53928e-06
8.27103e-06
1.0487e-05
1.30242e-05
1.54774e-05
1.73259e-05
1.81429e-05
1.76364e-05
1.5614e-05
1.22574e-05
8.52728e-06
5.49849e-06
3.5028e-06
2.35805e-06
1.77055e-06
1.48065e-06
1.33673e-06
1.30327e-06
1.43555e-06
2.07969e-06
5.2777e-06
1.60209e-06
8.0115e-08
6.2782e-10
6.46258e-07
1.22608e-06
1.41489e-06
1.62988e-06
1.89815e-06
2.20531e-06
2.55685e-06
2.9947e-06
3.59778e-06
4.46924e-06
5.72981e-06
7.51658e-06
9.95274e-06
1.3031e-05
1.64307e-05
1.95217e-05
2.17096e-05
2.26898e-05
2.23382e-05
2.05163e-05
1.70909e-05
1.25011e-05
8.04813e-06
4.76059e-06
2.74875e-06
1.69609e-06
1.2483e-06
1.13107e-06
1.18621e-06
1.39614e-06
2.10897e-06
5.44084e-06
1.62513e-06
8.30974e-08
4.37487e-10
5.83418e-07
1.10407e-06
1.27534e-06
1.46708e-06
1.69896e-06
1.98955e-06
2.38061e-06
2.93879e-06
3.74878e-06
4.91465e-06
6.57322e-06
8.90025e-06
1.205e-05
1.59454e-05
2.00325e-05
2.34736e-05
2.57231e-05
2.6675e-05
2.63896e-05
2.48375e-05
2.18127e-05
1.72295e-05
1.18639e-05
7.18452e-06
3.98087e-06
2.14413e-06
1.27803e-06
1.01176e-06
1.07529e-06
1.3452e-06
2.12672e-06
5.5881e-06
1.65435e-06
8.60779e-08
4.37095e-10
5.53523e-07
9.13773e-07
1.14531e-06
1.37578e-06
1.66584e-06
2.06942e-06
2.64611e-06
3.46229e-06
4.60016e-06
6.17691e-06
8.36071e-06
1.13429e-05
1.51819e-05
1.9518e-05
2.35565e-05
2.65985e-05
2.84063e-05
2.90372e-05
2.86007e-05
2.71067e-05
2.44281e-05
2.04066e-05
1.52509e-05
9.96969e-06
5.77978e-06
3.08285e-06
1.63545e-06
1.05585e-06
1.01162e-06
1.28826e-06
2.11873e-06
5.69938e-06
1.69052e-06
9.05743e-08
5.6004e-10
4.89083e-07
8.64999e-07
1.20421e-06
1.58443e-06
2.07716e-06
2.7393e-06
3.62549e-06
4.80979e-06
6.40795e-06
8.58436e-06
1.15057e-05
1.51787e-05
1.92422e-05
2.30716e-05
2.6203e-05
2.8465e-05
2.97968e-05
3.01333e-05
2.93986e-05
2.75086e-05
2.44512e-05
2.04135e-05
1.57969e-05
1.11392e-05
7.05054e-06
4.02802e-06
2.16572e-06
1.26214e-06
1.04027e-06
1.26089e-06
2.1078e-06
5.80632e-06
1.722e-06
9.74144e-08
7.36016e-10
5.77611e-07
1.06005e-06
1.57787e-06
2.18203e-06
2.91932e-06
3.84476e-06
5.04498e-06
6.65283e-06
8.82459e-06
1.16329e-05
1.48949e-05
1.82027e-05
2.12657e-05
2.40286e-05
2.64556e-05
2.8397e-05
2.96241e-05
2.98995e-05
2.90273e-05
2.68356e-05
2.33198e-05
1.89243e-05
1.44114e-05
1.03578e-05
6.97536e-06
4.33774e-06
2.51485e-06
1.49211e-06
1.14198e-06
1.29102e-06
2.14166e-06
6.0045e-06
1.74288e-06
1.06039e-07
1.01841e-09
8.4689e-07
1.47608e-06
2.11881e-06
2.83106e-06
3.6761e-06
4.7496e-06
6.17199e-06
8.01837e-06
1.01867e-05
1.24372e-05
1.47039e-05
1.71332e-05
1.97985e-05
2.25557e-05
2.51204e-05
2.72047e-05
2.85771e-05
2.9035e-05
2.83698e-05
2.63127e-05
2.27057e-05
1.80049e-05
1.32654e-05
9.29813e-06
6.27679e-06
4.06069e-06
2.51953e-06
1.60362e-06
1.24887e-06
1.37347e-06
2.26474e-06
6.35682e-06
1.74464e-06
1.14475e-07
1.29874e-09
1.15018e-06
1.8498e-06
2.45363e-06
3.09735e-06
3.87489e-06
4.85167e-06
6.02039e-06
7.29633e-06
8.69846e-06
1.04463e-05
1.27532e-05
1.56175e-05
1.87817e-05
2.18774e-05
2.46205e-05
2.68536e-05
2.84598e-05
2.92753e-05
2.90456e-05
2.7335e-05
2.36836e-05
1.84312e-05
1.30251e-05
8.68424e-06
5.63002e-06
3.59624e-06
2.29754e-06
1.57439e-06
1.31756e-06
1.49617e-06
2.52708e-06
6.74801e-06
1.71964e-06
1.19329e-07
1.6389e-09
1.14479e-06
1.86184e-06
2.37918e-06
2.87005e-06
3.41918e-06
4.05653e-06
4.82184e-06
5.84093e-06
7.31306e-06
9.4108e-06
1.21716e-05
1.54208e-05
1.88218e-05
2.20594e-05
2.49531e-05
2.74109e-05
2.93332e-05
3.05408e-05
3.07219e-05
2.92976e-05
2.55244e-05
1.95821e-05
1.33213e-05
8.42508e-06
5.16691e-06
3.16366e-06
2.01903e-06
1.48371e-06
1.3685e-06
1.67096e-06
2.97447e-06
6.64028e-06
1.66664e-06
1.17503e-07
2.11694e-09
8.53145e-07
1.52691e-06
2.00605e-06
2.40572e-06
2.83921e-06
3.40962e-06
4.23843e-06
5.45993e-06
7.19279e-06
9.50237e-06
1.23556e-05
1.55937e-05
1.8971e-05
2.22445e-05
2.5233e-05
2.78073e-05
2.98377e-05
3.11449e-05
3.144e-05
3.01777e-05
2.66006e-05
2.06708e-05
1.40554e-05
8.68102e-06
5.09571e-06
2.96008e-06
1.82845e-06
1.39737e-06
1.41325e-06
1.8737e-06
3.51463e-06
6.02819e-06
1.60828e-06
1.10741e-07
2.51023e-09
6.09041e-07
1.18744e-06
1.69571e-06
2.18263e-06
2.76519e-06
3.55864e-06
4.66293e-06
6.15789e-06
8.09689e-06
1.04933e-05
1.32954e-05
1.6365e-05
1.94961e-05
2.24785e-05
2.51511e-05
2.73983e-05
2.91105e-05
3.0144e-05
3.02833e-05
2.9143e-05
2.62089e-05
2.1339e-05
1.53902e-05
9.87265e-06
5.7839e-06
3.22322e-06
1.85142e-06
1.33293e-06
1.38026e-06
1.95637e-06
3.81989e-06
5.57676e-06
1.57339e-06
1.04464e-07
2.65621e-09
5.39193e-07
1.11125e-06
1.7495e-06
2.47286e-06
3.35665e-06
4.48084e-06
5.9128e-06
7.7046e-06
9.88026e-06
1.24052e-05
1.51613e-05
1.79715e-05
2.06673e-05
2.31339e-05
2.52991e-05
2.7095e-05
2.84289e-05
2.91618e-05
2.91065e-05
2.79746e-05
2.54438e-05
2.1505e-05
1.66557e-05
1.16682e-05
7.31763e-06
4.15833e-06
2.26935e-06
1.4103e-06
1.28314e-06
1.79802e-06
3.60353e-06
5.47725e-06
1.57491e-06
1.02811e-07
2.75142e-09
6.19361e-07
1.28813e-06
2.09372e-06
3.05e-06
4.19951e-06
5.59806e-06
7.30144e-06
9.34227e-06
1.16971e-05
1.42644e-05
1.68924e-05
1.94456e-05
2.18335e-05
2.39958e-05
2.58756e-05
2.73995e-05
2.84672e-05
2.89477e-05
2.86851e-05
2.7457e-05
2.50328e-05
2.15067e-05
1.73897e-05
1.32081e-05
9.23922e-06
5.78528e-06
3.27212e-06
1.85386e-06
1.34276e-06
1.56542e-06
2.97127e-06
5.74152e-06
1.62211e-06
1.06199e-07
3.11349e-09
7.50119e-07
1.5076e-06
2.39907e-06
3.45972e-06
4.73946e-06
6.2969e-06
8.17803e-06
1.03786e-05
1.28201e-05
1.53736e-05
1.79145e-05
2.03456e-05
2.25893e-05
2.45775e-05
2.62457e-05
2.7523e-05
2.83235e-05
2.85455e-05
2.80703e-05
2.67345e-05
2.44111e-05
2.12501e-05
1.769e-05
1.41687e-05
1.08464e-05
7.67893e-06
4.84587e-06
2.81156e-06
1.77316e-06
1.5723e-06
2.4467e-06
6.10052e-06
1.72173e-06
1.1371e-07
3.76355e-09
8.15156e-07
1.60106e-06
2.51998e-06
3.63376e-06
5.01093e-06
6.71213e-06
8.76133e-06
1.1116e-05
1.3665e-05
1.6265e-05
1.87813e-05
2.11074e-05
2.31683e-05
2.49147e-05
2.63065e-05
2.7296e-05
2.78157e-05
2.77781e-05
2.70745e-05
2.5566e-05
2.31913e-05
2.01728e-05
1.70016e-05
1.41002e-05
1.15533e-05
9.11586e-06
6.57943e-06
4.22845e-06
2.63438e-06
1.95305e-06
2.35306e-06
6.13169e-06
1.90117e-06
1.2614e-07
4.67003e-09
8.19769e-07
1.62497e-06
2.61365e-06
3.86127e-06
5.43394e-06
7.36729e-06
9.64008e-06
1.21601e-05
1.4783e-05
1.73581e-05
1.97655e-05
2.19267e-05
2.37972e-05
2.53495e-05
2.65518e-05
2.7352e-05
2.76706e-05
2.74005e-05
2.64027e-05
2.45162e-05
2.17366e-05
1.84737e-05
1.53955e-05
1.29308e-05
1.10595e-05
9.45827e-06
7.71138e-06
5.66359e-06
3.77819e-06
2.6643e-06
2.70071e-06
6.17739e-06
2.17356e-06
1.43769e-07
5.93826e-09
8.31359e-07
1.69407e-06
2.81629e-06
4.26533e-06
6.07218e-06
8.21462e-06
1.06093e-05
1.31307e-05
1.56519e-05
1.80755e-05
2.03371e-05
2.23962e-05
2.42228e-05
2.57834e-05
2.70235e-05
2.78516e-05
2.81332e-05
2.76863e-05
2.62679e-05
2.36371e-05
1.99492e-05
1.60845e-05
1.30005e-05
1.09933e-05
9.80002e-06
8.95348e-06
7.96208e-06
6.47228e-06
4.69352e-06
3.39749e-06
3.32719e-06
7.21446e-06
2.33781e-06
1.60653e-07
7.64416e-09
8.63654e-07
1.80527e-06
3.06261e-06
4.66935e-06
6.60416e-06
8.80076e-06
1.11697e-05
1.36209e-05
1.60753e-05
1.84657e-05
2.07387e-05
2.28557e-05
2.47839e-05
2.64819e-05
2.78797e-05
2.88487e-05
2.91763e-05
2.85258e-05
2.63913e-05
2.23713e-05
1.72016e-05
1.27042e-05
9.88576e-06
8.57506e-06
8.21736e-06
8.22139e-06
7.9437e-06
6.88194e-06
5.28874e-06
4.09372e-06
4.37172e-06
9.3756e-06
2.25399e-06
1.63357e-07
9.4533e-09
8.89519e-07
1.89283e-06
3.24027e-06
4.92992e-06
6.9214e-06
9.16482e-06
1.16013e-05
1.41499e-05
1.67126e-05
1.91993e-05
2.15483e-05
2.37263e-05
2.57101e-05
2.7464e-05
2.89132e-05
2.99019e-05
3.01274e-05
2.90277e-05
2.57263e-05
1.99457e-05
1.36932e-05
9.30858e-06
7.12264e-06
6.5467e-06
6.97103e-06
7.72923e-06
7.97588e-06
7.22266e-06
5.92543e-06
5.1331e-06
6.27326e-06
8.69478e-06
2.0388e-06
1.49505e-07
1.0884e-08
9.04636e-07
1.95174e-06
3.3625e-06
5.12264e-06
7.20814e-06
9.58869e-06
1.2189e-05
1.48806e-05
1.75271e-05
2.00332e-05
2.23543e-05
2.44743e-05
2.63782e-05
2.80283e-05
2.93378e-05
3.01291e-05
3.00519e-05
2.84464e-05
2.43712e-05
1.78942e-05
1.15095e-05
7.32226e-06
5.35253e-06
5.01176e-06
5.81622e-06
7.08994e-06
7.85071e-06
7.59473e-06
6.83983e-06
6.70589e-06
8.83544e-06
6.80066e-06
1.87555e-06
1.32975e-07
1.16789e-08
9.19041e-07
1.99848e-06
3.44981e-06
5.2648e-06
7.44274e-06
9.95612e-06
1.26974e-05
1.54956e-05
1.8192e-05
2.06905e-05
2.29521e-05
2.49629e-05
2.67072e-05
2.81486e-05
2.92046e-05
2.97167e-05
2.93945e-05
2.7726e-05
2.40004e-05
1.80786e-05
1.16881e-05
6.99906e-06
4.4968e-06
3.73624e-06
4.3341e-06
5.82694e-06
7.28664e-06
7.85807e-06
7.84581e-06
8.41612e-06
1.06306e-05
6.01303e-06
1.80825e-06
1.24035e-07
1.18648e-08
9.32924e-07
2.03066e-06
3.50052e-06
5.35691e-06
7.62977e-06
1.02948e-05
1.32069e-05
1.61383e-05
1.88917e-05
2.13633e-05
2.35239e-05
2.53741e-05
2.69126e-05
2.81167e-05
2.89277e-05
2.92329e-05
2.88383e-05
2.74343e-05
2.45841e-05
1.99256e-05
1.39831e-05
8.51475e-06
4.88961e-06
3.16518e-06
2.95237e-06
3.96109e-06
5.73753e-06
7.39524e-06
8.43111e-06
9.64464e-06
1.14119e-05
5.9282e-06
1.825e-06
1.24164e-07
1.16827e-08
9.51659e-07
2.06267e-06
3.54603e-06
5.44784e-06
7.82378e-06
1.06414e-05
1.37085e-05
1.6742e-05
1.95194e-05
2.19435e-05
2.40031e-05
2.5717e-05
2.70996e-05
2.81451e-05
2.8816e-05
2.90323e-05
2.86598e-05
2.75085e-05
2.53506e-05
2.1942e-05
1.72204e-05
1.17891e-05
7.00701e-06
3.89112e-06
2.47968e-06
2.4613e-06
3.55843e-06
5.49027e-06
7.68483e-06
9.88916e-06
1.17067e-05
6.15048e-06
1.89614e-06
1.31368e-07
1.13856e-08
9.71566e-07
2.08685e-06
3.57305e-06
5.51e-06
7.97637e-06
1.09326e-05
1.41436e-05
1.72741e-05
2.0078e-05
2.24658e-05
2.44465e-05
2.60596e-05
2.73391e-05
2.82964e-05
2.89082e-05
2.91121e-05
2.88034e-05
2.78427e-05
2.60945e-05
2.34515e-05
1.98782e-05
1.54478e-05
1.05846e-05
6.27807e-06
3.42393e-06
2.14616e-06
2.14236e-06
3.21591e-06
5.32393e-06
8.36804e-06
1.13159e-05
6.40031e-06
1.97658e-06
1.43641e-07
1.11982e-08
9.88313e-07
2.10299e-06
3.5967e-06
5.58316e-06
8.15863e-06
1.12676e-05
1.46215e-05
1.78335e-05
2.06487e-05
2.29991e-05
2.49181e-05
2.64638e-05
2.76826e-05
2.85942e-05
2.91843e-05
2.94005e-05
2.91525e-05
2.83105e-05
2.67553e-05
2.44436e-05
2.14652e-05
1.79565e-05
1.39737e-05
9.68935e-06
5.80719e-06
3.1821e-06
2.00585e-06
2.00326e-06
3.09614e-06
5.59432e-06
9.75198e-06
6.54507e-06
2.01963e-06
1.59025e-07
1.13204e-08
1.00543e-06
2.12503e-06
3.64433e-06
5.70491e-06
8.40879e-06
1.16684e-05
1.51346e-05
1.83861e-05
2.11831e-05
2.34883e-05
2.53575e-05
2.68603e-05
2.80478e-05
2.89411e-05
2.95259e-05
2.97478e-05
2.95105e-05
2.86875e-05
2.71677e-05
2.49484e-05
2.21903e-05
1.91587e-05
1.59866e-05
1.2554e-05
8.81719e-06
5.35988e-06
3.03604e-06
1.99281e-06
2.08364e-06
3.45379e-06
7.20072e-06
6.68455e-06
2.02139e-06
1.7493e-07
1.1851e-08
1.01955e-06
2.14895e-06
3.70853e-06
5.86049e-06
8.70144e-06
1.20979e-05
1.56407e-05
1.88962e-05
2.16582e-05
2.39224e-05
2.57607e-05
2.72471e-05
2.84301e-05
2.93248e-05
2.99091e-05
3.01193e-05
2.98457e-05
2.89425e-05
2.7285e-05
2.48965e-05
2.20577e-05
1.91894e-05
1.65462e-05
1.39923e-05
1.11477e-05
7.89782e-06
4.90301e-06
2.90584e-06
2.11257e-06
2.55109e-06
5.12473e-06
7.00988e-06
2.01132e-06
1.88742e-07
1.28692e-08
1.02843e-06
2.17456e-06
3.79328e-06
6.06202e-06
9.06187e-06
1.25999e-05
1.62084e-05
1.94608e-05
2.21966e-05
2.44442e-05
2.6286e-05
2.77939e-05
2.90081e-05
2.99321e-05
3.05284e-05
3.07128e-05
3.03474e-05
2.92397e-05
2.72379e-05
2.44266e-05
2.12628e-05
1.83436e-05
1.59941e-05
1.41028e-05
1.22169e-05
9.83721e-06
6.96772e-06
4.38478e-06
2.84195e-06
2.57532e-06
4.29459e-06
7.57704e-06
2.01785e-06
1.97426e-07
1.43771e-08
1.03598e-06
2.21106e-06
3.9131e-06
6.32809e-06
9.50805e-06
1.31847e-05
1.68392e-05
2.00777e-05
2.27965e-05
2.50526e-05
2.69323e-05
2.84999e-05
2.97836e-05
3.07705e-05
3.14006e-05
3.15559e-05
3.10446e-05
2.9596e-05
2.70151e-05
2.35123e-05
1.98379e-05
1.67999e-05
1.47263e-05
1.34302e-05
1.23965e-05
1.09542e-05
8.66232e-06
5.98904e-06
3.96282e-06
3.20669e-06
4.54713e-06
8.31611e-06
2.05761e-06
1.98449e-07
1.62653e-08
1.04875e-06
2.26675e-06
4.07067e-06
6.64772e-06
1.00088e-05
1.38046e-05
1.74845e-05
2.07056e-05
2.34183e-05
2.56991e-05
2.76333e-05
2.92764e-05
3.06447e-05
3.1709e-05
3.23841e-05
3.25077e-05
3.18079e-05
2.98941e-05
2.65163e-05
2.21126e-05
1.7852e-05
1.47255e-05
1.29664e-05
1.22615e-05
1.20252e-05
1.14531e-05
9.83823e-06
7.40112e-06
5.22589e-06
4.2724e-06
5.74345e-06
8.81925e-06
2.10899e-06
1.90657e-07
1.82224e-08
1.06596e-06
2.33199e-06
4.23739e-06
6.96794e-06
1.04947e-05
1.43957e-05
1.80996e-05
2.13114e-05
2.40238e-05
2.63265e-05
2.83039e-05
3.00057e-05
3.14401e-05
3.25663e-05
3.32779e-05
3.33714e-05
3.24915e-05
3.01131e-05
2.59293e-05
2.06462e-05
1.58485e-05
1.26292e-05
1.11018e-05
1.08717e-05
1.13076e-05
1.14664e-05
1.05061e-05
8.51816e-06
6.54535e-06
5.7683e-06
7.94693e-06
8.70167e-06
2.14939e-06
1.76532e-07
1.98893e-08
1.08402e-06
2.39453e-06
4.38877e-06
7.25768e-06
1.09425e-05
1.49493e-05
1.868e-05
2.18789e-05
2.45748e-05
2.68707e-05
2.88521e-05
3.05665e-05
3.20179e-05
3.31596e-05
3.38755e-05
3.39444e-05
3.29725e-05
3.03544e-05
2.57003e-05
1.97975e-05
1.44808e-05
1.09769e-05
9.3907e-06
9.33661e-06
1.02186e-05
1.10307e-05
1.08103e-05
9.48942e-06
8.02916e-06
7.81236e-06
1.10336e-05
8.40701e-06
2.19754e-06
1.62303e-07
2.10293e-08
1.10161e-06
2.44812e-06
4.51221e-06
7.4996e-06
1.13296e-05
1.54338e-05
1.91826e-05
2.23554e-05
2.50145e-05
2.72764e-05
2.92303e-05
3.09237e-05
3.23598e-05
3.34924e-05
3.42104e-05
3.43075e-05
3.34197e-05
3.09515e-05
2.63923e-05
2.02566e-05
1.43544e-05
1.02082e-05
8.12564e-06
7.80001e-06
8.7446e-06
1.00608e-05
1.0707e-05
1.03088e-05
9.64404e-06
1.02423e-05
1.40391e-05
8.42009e-06
2.28031e-06
1.54053e-07
2.16458e-08
1.11719e-06
2.488e-06
4.60163e-06
7.68707e-06
1.1645e-05
1.58285e-05
1.95775e-05
2.27081e-05
2.53156e-05
2.75312e-05
2.94498e-05
3.11203e-05
3.25469e-05
3.36877e-05
3.44455e-05
3.46488e-05
3.39954e-05
3.19647e-05
2.79782e-05
2.21005e-05
1.57308e-05
1.06634e-05
7.66194e-06
6.60152e-06
7.11758e-06
8.54268e-06
9.9719e-06
1.06893e-05
1.10568e-05
1.25163e-05
1.61111e-05
8.7467e-06
2.39864e-06
1.53447e-07
2.18765e-08
1.12819e-06
2.51105e-06
4.65789e-06
7.82523e-06
1.18918e-05
1.61314e-05
1.98631e-05
2.29442e-05
2.5502e-05
2.76817e-05
2.95835e-05
3.12576e-05
3.27091e-05
3.39006e-05
3.47522e-05
3.51302e-05
3.47897e-05
3.32973e-05
3.00896e-05
2.48844e-05
1.84517e-05
1.25027e-05
8.33332e-06
6.19833e-06
5.85585e-06
6.80505e-06
8.4646e-06
1.01297e-05
1.1644e-05
1.39606e-05
1.72329e-05
9.19788e-06
2.52926e-06
1.59539e-07
2.19347e-08
1.13378e-06
2.51968e-06
4.69143e-06
7.93133e-06
1.20894e-05
1.6364e-05
2.00673e-05
2.31011e-05
2.5622e-05
2.77879e-05
2.97023e-05
3.14146e-05
3.29287e-05
3.42087e-05
3.51871e-05
3.57596e-05
3.57204e-05
3.47021e-05
3.21982e-05
2.77932e-05
2.17526e-05
1.53638e-05
1.01388e-05
6.82127e-06
5.40572e-06
5.50546e-06
6.72666e-06
8.64131e-06
1.09759e-05
1.41189e-05
1.75424e-05
9.56446e-06
2.63794e-06
1.70512e-07
2.20048e-08
1.13398e-06
2.51778e-06
4.71179e-06
8.0177e-06
1.22494e-05
1.65371e-05
2.02002e-05
2.31878e-05
2.56848e-05
2.78603e-05
2.98198e-05
3.16104e-05
3.32315e-05
3.46451e-05
3.57914e-05
3.65848e-05
3.684e-05
3.62233e-05
3.42574e-05
3.04826e-05
2.49297e-05
1.85012e-05
1.26129e-05
8.28844e-06
5.8245e-06
4.98602e-06
5.43924e-06
6.93841e-06
9.37573e-06
1.30469e-05
1.72049e-05
9.77731e-06
2.70761e-06
1.84916e-07
2.22774e-08
1.13108e-06
2.51356e-06
4.73414e-06
8.10557e-06
1.23958e-05
1.66722e-05
2.02769e-05
2.32121e-05
2.56911e-05
2.78935e-05
2.99257e-05
3.18293e-05
3.35957e-05
3.51829e-05
3.65338e-05
3.75643e-05
3.80943e-05
3.78019e-05
3.62145e-05
3.28342e-05
2.75781e-05
2.12037e-05
1.50185e-05
1.00732e-05
6.82327e-06
5.18429e-06
4.87191e-06
5.70565e-06
7.70604e-06
1.13545e-05
1.64154e-05
9.84194e-06
2.73307e-06
2.00934e-07
2.28595e-08
1.1283e-06
2.51525e-06
4.77274e-06
8.21674e-06
1.25567e-05
1.6798e-05
2.03226e-05
2.31941e-05
2.56569e-05
2.79015e-05
3.00337e-05
3.20876e-05
3.40437e-05
3.5852e-05
3.7453e-05
3.87531e-05
3.95639e-05
3.95507e-05
3.82112e-05
3.49892e-05
2.97395e-05
2.32153e-05
1.67785e-05
1.15215e-05
7.87143e-06
5.73809e-06
4.86565e-06
5.11154e-06
6.54943e-06
9.81895e-06
1.54932e-05
9.76727e-06
2.71793e-06
2.16206e-07
2.38383e-08
1.13067e-06
2.53382e-06
4.84684e-06
8.38146e-06
1.27656e-05
1.69389e-05
2.03484e-05
2.31332e-05
2.5571e-05
2.78624e-05
3.01116e-05
3.23436e-05
3.45256e-05
3.6598e-05
3.84955e-05
4.01069e-05
4.1221e-05
4.14675e-05
4.02805e-05
3.70155e-05
3.14887e-05
2.45616e-05
1.77818e-05
1.23224e-05
8.54664e-06
6.24539e-06
5.10001e-06
4.97394e-06
5.98411e-06
8.87288e-06
1.48499e-05
9.51436e-06
2.66637e-06
2.27541e-07
2.51795e-08
1.14021e-06
2.57263e-06
4.96162e-06
8.60545e-06
1.30211e-05
1.70842e-05
2.03379e-05
2.30069e-05
2.5402e-05
2.77331e-05
3.01012e-05
3.25206e-05
3.49448e-05
3.73051e-05
3.95296e-05
4.14829e-05
4.29197e-05
4.34144e-05
4.23074e-05
3.88391e-05
3.28093e-05
2.52792e-05
1.80683e-05
1.24522e-05
8.71199e-06
6.47505e-06
5.31593e-06
5.06193e-06
5.87021e-06
8.60296e-06
1.47938e-05
9.04887e-06
2.58797e-06
2.32527e-07
2.67571e-08
1.15713e-06
2.63006e-06
5.11167e-06
8.87711e-06
1.33034e-05
1.72099e-05
2.02633e-05
2.27793e-05
2.51031e-05
2.74534e-05
2.9925e-05
3.25185e-05
3.51744e-05
3.78173e-05
4.03625e-05
4.26486e-05
4.43942e-05
4.51142e-05
4.40509e-05
4.03342e-05
3.37675e-05
2.56264e-05
1.79898e-05
1.22244e-05
8.54547e-06
6.44807e-06
5.41549e-06
5.21691e-06
6.03251e-06
8.8608e-06
1.5214e-05
8.47264e-06
2.50197e-06
2.31623e-07
2.84117e-08
1.17932e-06
2.69891e-06
5.28074e-06
9.16635e-06
1.35675e-05
1.7263e-05
2.00644e-05
2.23824e-05
2.45994e-05
2.69426e-05
2.94967e-05
3.22428e-05
3.51065e-05
3.80039e-05
4.08299e-05
4.33991e-05
4.53986e-05
4.6295e-05
4.52628e-05
4.13727e-05
3.44493e-05
2.58966e-05
1.79375e-05
1.20118e-05
8.32373e-06
6.31203e-06
5.41886e-06
5.36386e-06
6.33165e-06
9.41851e-06
1.57167e-05
7.94222e-06
2.42675e-06
2.27895e-07
2.99529e-08
1.20203e-06
2.76576e-06
5.43956e-06
9.42387e-06
1.3755e-05
1.71861e-05
1.96812e-05
2.17497e-05
2.3818e-05
2.61229e-05
2.87354e-05
3.1612e-05
3.46586e-05
3.7779e-05
4.08444e-05
4.36465e-05
4.58487e-05
4.6894e-05
4.59423e-05
4.20726e-05
3.51187e-05
2.64531e-05
1.82895e-05
1.21428e-05
8.29113e-06
6.21557e-06
5.36772e-06
5.44034e-06
6.60467e-06
9.98802e-06
1.59999e-05
7.56785e-06
2.37571e-06
2.24849e-07
3.13482e-08
1.22373e-06
2.82686e-06
5.58282e-06
9.64977e-06
1.38789e-05
1.70005e-05
1.91393e-05
2.09136e-05
2.28003e-05
2.50444e-05
2.76989e-05
3.06921e-05
3.39072e-05
3.72324e-05
4.05126e-05
4.35166e-05
4.58925e-05
4.70807e-05
4.62693e-05
4.25944e-05
3.58897e-05
2.7381e-05
1.91405e-05
1.2736e-05
8.58046e-06
6.27732e-06
5.32776e-06
5.42643e-06
6.72941e-06
1.03401e-05
1.60502e-05
7.35471e-06
2.34947e-06
2.24379e-07
3.2672e-08
1.24389e-06
2.88027e-06
5.70735e-06
9.84514e-06
1.39518e-05
1.67335e-05
1.84853e-05
1.99448e-05
2.1641e-05
2.38214e-05
2.65165e-05
2.96256e-05
3.30094e-05
3.65378e-05
4.0028e-05
4.32288e-05
4.5778e-05
4.71237e-05
4.64969e-05
4.31047e-05
3.67824e-05
2.8585e-05
2.03833e-05
1.37404e-05
9.21044e-06
6.56349e-06
5.37653e-06
5.36317e-06
6.67064e-06
1.03682e-05
1.59647e-05
7.25748e-06
2.34012e-06
2.26485e-07
3.40786e-08
1.26252e-06
2.92653e-06
5.81737e-06
1.00202e-05
1.39859e-05
1.64025e-05
1.77542e-05
1.89027e-05
2.04219e-05
2.25527e-05
2.52993e-05
2.85365e-05
3.21054e-05
3.58471e-05
3.95552e-05
4.29607e-05
4.56904e-05
4.71963e-05
4.67458e-05
4.36132e-05
3.76556e-05
2.98039e-05
2.17351e-05
1.49444e-05
1.00749e-05
7.06047e-06
5.56883e-06
5.3408e-06
6.51816e-06
1.01522e-05
1.58151e-05
7.2051e-06
2.33454e-06
2.2973e-07
3.56631e-08
1.27832e-06
2.96309e-06
5.90776e-06
1.01591e-05
1.39543e-05
1.59928e-05
1.69564e-05
1.78195e-05
1.91859e-05
2.12836e-05
2.40931e-05
2.74683e-05
3.12327e-05
3.52001e-05
3.91398e-05
4.27626e-05
4.56801e-05
4.73404e-05
4.70349e-05
4.40944e-05
3.84128e-05
3.08535e-05
2.29481e-05
1.60983e-05
1.09848e-05
7.66387e-06
5.88517e-06
5.418e-06
6.40151e-06
9.8843e-06
1.56616e-05
7.13851e-06
2.3218e-06
2.32022e-07
3.74398e-08
1.29018e-06
2.98927e-06
5.97711e-06
1.02542e-05
1.3854e-05
1.55241e-05
1.61348e-05
1.67461e-05
1.79758e-05
2.00388e-05
2.29018e-05
2.64075e-05
3.03659e-05
3.45635e-05
3.87418e-05
4.25869e-05
4.56886e-05
4.74836e-05
4.72796e-05
4.44622e-05
3.89745e-05
3.16468e-05
2.39009e-05
1.70444e-05
1.17777e-05
8.24304e-06
6.25047e-06
5.591e-06
6.40599e-06
9.75742e-06
1.5574e-05
7.01763e-06
2.29553e-06
2.31446e-07
3.93049e-08
1.29848e-06
3.00772e-06
6.03172e-06
1.03196e-05
1.37247e-05
1.50649e-05
1.53676e-05
1.57535e-05
1.68425e-05
1.88419e-05
2.17182e-05
2.53159e-05
2.94392e-05
3.38486e-05
3.82545e-05
4.23115e-05
4.5581e-05
4.7485e-05
4.73524e-05
4.46333e-05
3.93272e-05
3.22297e-05
2.46497e-05
1.78019e-05
1.2421e-05
8.72941e-06
6.58957e-06
5.80804e-06
6.53203e-06
9.84517e-06
1.55575e-05
6.83561e-06
2.25553e-06
2.27091e-07
4.10765e-08
1.30414e-06
3.02176e-06
6.07751e-06
1.03693e-05
1.3603e-05
1.46665e-05
1.47037e-05
1.48758e-05
1.58017e-05
1.76883e-05
2.0513e-05
2.41351e-05
2.83628e-05
3.29352e-05
3.75303e-05
4.17666e-05
4.51734e-05
4.71617e-05
4.70986e-05
4.45193e-05
3.94784e-05
3.27069e-05
2.53581e-05
1.854e-05
1.30367e-05
9.17528e-06
6.89134e-06
6.01743e-06
6.70985e-06
1.00638e-05
1.54842e-05
6.60164e-06
2.20406e-06
2.19299e-07
4.25751e-08
1.3086e-06
3.03415e-06
6.11581e-06
1.04019e-05
1.34925e-05
1.43365e-05
1.41488e-05
1.41142e-05
1.48517e-05
1.65732e-05
1.92755e-05
2.28423e-05
2.70949e-05
3.17579e-05
3.648e-05
4.08443e-05
4.43501e-05
4.64095e-05
4.64494e-05
4.41075e-05
3.94854e-05
3.32092e-05
2.62183e-05
1.94876e-05
1.38436e-05
9.74457e-06
7.23908e-06
6.21237e-06
6.83563e-06
1.01874e-05
1.51759e-05
6.33387e-06
2.1449e-06