/*--------------------------------*- C++ -*----------------------------------*\
| =========                 |                                                 |
| \\      /  F ield         | OpenFOAM: The Open Source CFD Toolbox           |
|  \\    /   O peration     | Version:  v1906                                 |
|   \\  /    A nd           | Web:      www.OpenFOAM.com                      |
|    \\/     M anipulation  |                                                 |
\*---------------------------------------------------------------------------*/
FoamFile
{
    version     2.0;
    format      ascii;
    class       volScalarField;
    location    "31";
    object      omega;
}
// * * * * * * * * * * * * * * * * * * * * * * * * * * * * * * * * * * * * * //

dimensions      [0 0 -1 0 0 0 0];


internalField   nonuniform List<scalar> 
78750
(
355.857
14.0681
14.0829
14.0749
14.0556
14.0318
14.0077
13.985
13.9641
13.945
13.9275
13.9117
13.8974
13.8848
13.8738
13.8641
13.8556
13.848
13.8412
13.8348
13.8286
13.8224
13.8159
13.8088
13.8011
13.7923
13.7821
13.7699
13.7555
13.7381
13.7176
13.6956
13.6778
13.6756
357.17
521.429
4.60405
4.82676
4.90609
4.91198
4.88866
4.8588
4.83136
4.80923
4.79156
4.77679
4.76425
4.75336
4.74377
4.73516
4.72738
4.72004
4.7129
4.70558
4.6978
4.68898
4.67865
4.66662
4.6527
4.63658
4.61777
4.59553
4.5691
4.53777
4.49933
4.45008
4.38886
4.31908
4.24868
524.562
521.47
4.38798
4.48644
4.51655
4.50466
4.47734
4.45283
4.4357
4.42471
4.41729
4.4124
4.40948
4.4082
4.40833
4.40975
4.41239
4.41618
4.42105
4.42696
4.4338
4.44146
4.44977
4.45842
4.46705
4.4751
4.48186
4.48641
4.48723
4.48248
4.46898
4.44306
4.40247
4.34948
4.28666
525.376
521.414
4.2847
4.36076
4.39607
4.40403
4.39386
4.37398
4.35091
4.32803
4.30573
4.28466
4.26584
4.24998
4.23738
4.228
4.2216
4.21792
4.21671
4.21787
4.22144
4.2276
4.23668
4.249
4.26481
4.28403
4.306
4.32985
4.35423
4.37624
4.39088
4.39236
4.37648
4.3432
4.29444
525.799
521.4
4.2364
4.30001
4.33228
4.34087
4.32937
4.30203
4.26486
4.22484
4.18859
4.16025
4.14125
4.13097
4.12749
4.12843
4.13149
4.1348
4.13705
4.13751
4.13597
4.13279
4.12892
4.12608
4.12683
4.13451
4.15279
4.18451
4.22944
4.28173
4.33011
4.36153
4.3674
4.34818
4.30917
526.308
521.382
4.2008
4.25476
4.28099
4.28478
4.26937
4.24031
4.20632
4.17685
4.15858
4.1549
4.16548
4.18658
4.21289
4.23961
4.26341
4.28235
4.29531
4.30155
4.30053
4.29172
4.27461
4.2489
4.21496
4.17508
4.13575
4.10918
4.10993
4.14494
4.2063
4.27148
4.31546
4.3254
4.30629
526.609
521.375
4.17828
4.22469
4.24747
4.24966
4.2342
4.20777
4.18165
4.16783
4.17341
4.19808
4.2355
4.27738
4.31709
4.35101
4.37858
4.40003
4.41542
4.42486
4.42836
4.42571
4.41641
4.39969
4.37431
4.33834
4.29121
4.23736
4.18972
4.16839
4.18668
4.2351
4.28465
4.30899
4.30588
526.953
521.368
4.15877
4.19703
4.21425
4.21256
4.19626
4.17572
4.16477
4.17309
4.20149
4.24335
4.28956
4.33304
4.37015
4.40039
4.42463
4.44336
4.45671
4.46475
4.46737
4.46431
4.45514
4.43936
4.41589
4.38307
4.33991
4.28789
4.23421
4.19474
4.18787
4.21701
4.26209
4.29349
4.30211
527.219
521.364
4.14314
4.17374
4.1866
4.18413
4.17294
4.16573
4.17477
4.2039
4.24814
4.29874
4.34821
4.39233
4.42965
4.46095
4.48722
4.50862
4.52509
4.53647
4.54236
4.54221
4.53528
4.52071
4.49692
4.46146
4.41275
4.35177
4.28521
4.22887
4.20293
4.21565
4.25313
4.28641
4.30283
527.503
521.361
4.1294
4.154
4.1652
4.16613
4.16461
4.17202
4.19573
4.23458
4.28217
4.33156
4.37789
4.41872
4.45364
4.48377
4.50986
4.53195
4.55002
4.56392
4.57327
4.57747
4.57571
4.56697
4.54955
4.52066
4.47747
4.41882
4.34853
4.28026
4.23634
4.22989
4.25447
4.28451
4.30425
527.73
521.357
4.11801
4.13901
4.1506
4.1557
4.16078
4.17419
4.20044
4.2383
4.28328
4.33037
4.37553
4.41628
4.45193
4.48325
4.51081
4.53462
4.55464
4.57071
4.58249
4.58947
4.59088
4.58575
4.57236
4.54802
4.50986
4.45601
4.38863
4.31902
4.2684
4.25064
4.26459
4.28966
4.30989
527.953
521.353
4.10827
4.12663
4.13884
4.1476
4.1584
4.17738
4.20727
4.24687
4.29239
4.33946
4.3845
4.42531
4.46101
4.4924
4.52025
4.5446
4.56543
4.58257
4.59572
4.60439
4.60787
4.60526
4.59499
4.57452
4.541
4.49209
4.42862
4.35955
4.30475
4.27779
4.28132
4.29989
4.31828
528.139
521.351
4.10153
4.11822
4.13155
4.14425
4.16083
4.18499
4.2177
4.2573
4.30059
4.34438
4.38628
4.42481
4.45918
4.48968
4.51694
4.54103
4.56183
4.57915
4.59267
4.60194
4.60631
4.60493
4.59631
4.57821
4.54803
4.50372
4.44607
4.38316
4.33218
4.30368
4.30164
4.31509
4.33117
528.339
521.35
4.09825
4.11485
4.13023
4.14705
4.16834
4.19573
4.22918
4.26721
4.30779
4.34897
4.38914
4.42697
4.4614
4.49189
4.51876
4.54229
4.56238
4.57892
4.59178
4.60065
4.60506
4.60425
4.59681
4.58059
4.55307
4.51228
4.45913
4.40161
4.35539
4.32816
4.32348
4.33323
4.34687
528.546
521.35
4.09592
4.11216
4.12804
4.1456
4.16669
4.19249
4.22345
4.25918
4.29858
4.33991
4.38116
4.42037
4.45591
4.48667
4.51259
4.53415
4.55166
4.56529
4.57524
4.58159
4.58429
4.58284
4.57615
4.56225
4.53852
4.5028
4.4561
4.40695
4.36917
4.34758
4.34432
4.35275
4.36482
528.792
521.35
4.09385
4.10966
4.12604
4.14472
4.16739
4.19542
4.22942
4.26877
4.31167
4.3557
4.39847
4.43813
4.47333
4.50316
4.52701
4.54497
4.55755
4.56521
4.56843
4.56784
4.56407
4.55757
4.54844
4.53554
4.51612
4.48708
4.44827
4.40781
4.37842
4.36339
4.3634
4.3721
4.38339
529.053
521.351
4.09331
4.10978
4.1282
4.15028
4.17745
4.21044
4.24885
4.29113
4.3352
4.37931
4.42232
4.46343
4.50157
4.53511
4.56215
4.58118
4.5916
4.5936
4.58777
4.57496
4.55646
4.53477
4.51327
4.49411
4.47595
4.45451
4.42702
4.3993
4.38125
4.37482
4.3799
4.39024
4.40173
529.32
521.352
4.09522
4.11405
4.13595
4.16229
4.19354
4.22938
4.26884
4.31102
4.35578
4.40384
4.45593
4.51145
4.5676
4.61976
4.66301
4.69365
4.70982
4.71097
4.69715
4.66858
4.62616
4.57354
4.51869
4.47172
4.43864
4.41688
4.39938
4.38563
4.38041
4.38356
4.39453
4.40727
4.41925
529.546
521.353
4.09665
4.11643
4.13893
4.16499
4.19464
4.22786
4.26527
4.30873
4.36125
4.42582
4.50322
4.59018
4.67943
4.76206
4.83054
4.88044
4.91001
4.9186
4.90555
4.86959
4.80891
4.72336
4.61973
4.51564
4.43355
4.3855
4.36589
4.3644
4.37444
4.38938
4.40732
4.42291
4.43544
529.716
521.354
4.09604
4.11503
4.13592
4.15957
4.18664
4.21859
4.25842
4.31071
4.38047
4.47053
4.57861
4.6965
4.81255
4.91597
5.00018
5.06305
5.10478
5.1256
5.12467
5.09956
5.0459
4.95737
4.82985
4.67264
4.51696
4.40284
4.34862
4.34334
4.36508
4.39303
4.41947
4.43862
4.45142
529.821
521.354
4.0941
4.11166
4.13076
4.1527
4.1794
4.21439
4.26314
4.33196
4.42505
4.54092
4.67101
4.8022
4.92182
5.02192
5.10042
5.15918
5.2009
5.22718
5.23788
5.23091
5.20178
5.1423
5.04001
4.88469
4.68802
4.49815
4.37384
4.33503
4.35569
4.39445
4.43027
4.45375
4.46706
529.888
521.354
4.09315
4.1104
4.13023
4.15534
4.19022
4.24139
4.31578
4.41704
4.54177
4.679
4.81394
4.93359
5.03076
5.10473
5.15907
5.1984
5.22631
5.24485
5.25453
5.2544
5.24157
5.21003
5.14851
5.03918
4.86771
4.65215
4.45967
4.35922
4.3557
4.39664
4.44098
4.46965
4.48463
529.949
521.356
4.0951
4.11581
4.14361
4.1847
4.24697
4.33691
4.45495
4.59253
4.73442
4.86481
4.97297
5.0556
5.1155
5.15822
5.18893
5.21108
5.22657
5.23614
5.23978
5.23678
5.22535
5.20185
5.15926
5.08484
4.96013
4.77624
4.56807
4.41688
4.37398
4.40376
4.45206
4.48605
4.50512
530.036
521.357
4.1031
4.13616
4.18605
4.26154
4.36706
4.49767
4.63871
4.77199
4.88391
4.96987
5.03326
5.08114
5.1198
5.15288
5.18154
5.20557
5.22418
5.23643
5.2413
5.23767
5.22384
5.19693
5.15222
5.08223
4.97641
4.82506
4.63971
4.47866
4.40848
4.42117
4.46736
4.505
4.52967
530.171
521.359
4.11951
4.17358
4.25199
4.35757
4.48193
4.60762
4.71721
4.80256
4.86707
4.9204
4.97121
5.02335
5.07626
5.12731
5.1737
5.21317
5.2441
5.26524
5.27544
5.27355
5.25764
5.22442
5.16905
5.08609
4.97161
4.82552
4.65966
4.51508
4.44281
4.44595
4.48787
4.52687
4.5564
530.358
521.362
4.13762
4.20696
4.29441
4.39432
4.49259
4.57602
4.64165
4.69782
4.75647
4.82458
4.90137
4.98118
5.05794
5.12765
5.18824
5.23863
5.278
5.30553
5.32018
5.3206
5.3044
5.26714
5.20202
5.10244
4.96777
4.80823
4.64686
4.5234
4.46671
4.47291
4.51294
4.55129
4.58137
530.598
521.364
4.1428
4.2082
4.27888
4.349
4.41194
4.46753
4.52372
4.59068
4.67306
4.76721
4.86471
4.95786
5.04241
5.11704
5.18161
5.23605
5.27991
5.31233
5.33202
5.33725
5.32506
5.28992
5.2226
5.1133
4.96096
4.78371
4.62009
4.51735
4.48294
4.49996
4.53997
4.57439
4.59678
530.882
521.367
4.13465
4.18522
4.23511
4.2837
4.33299
4.38897
4.45864
4.54491
4.64412
4.74841
4.84999
4.94393
5.02826
5.10274
5.16764
5.22311
5.26883
5.30401
5.32737
5.33709
5.3301
5.30064
5.23853
5.13074
4.97149
4.77902
4.60501
4.51251
4.49712
4.52537
4.56413
4.5908
4.59881
531.166
521.369
4.12527
4.1653
4.20703
4.25392
4.31112
4.38338
4.47203
4.57346
4.68067
4.7864
4.88544
4.97516
5.05492
5.12507
5.18617
5.23852
5.28193
5.31574
5.33889
5.34984
5.34588
5.32212
5.26972
5.17508
5.025
4.82551
4.62667
4.51292
4.49876
4.53625
4.57643
4.59668
4.59183
531.384
521.371
4.12459
4.16723
4.21833
4.28237
4.36228
4.45738
4.56289
4.67165
4.77685
4.87398
4.96129
5.03908
5.10852
5.1707
5.22616
5.27474
5.31583
5.34829
5.37086
5.3821
5.37978
5.36023
5.31716
5.2401
5.1145
4.93093
4.71383
4.54704
4.49429
4.52635
4.57282
4.59448
4.58622
531.501
521.372
4.13552
4.19318
4.26449
4.35076
4.44939
4.55459
4.65956
4.7588
4.84944
4.93117
5.00529
5.07348
5.137
5.19636
5.25134
5.30119
5.34484
5.38093
5.40789
5.42413
5.42731
5.41438
5.3805
5.31854
5.21819
5.06679
4.86314
4.65482
4.53055
4.51749
4.55906
4.58754
4.58672
531.497
521.374
4.15362
4.22801
4.3139
4.40875
4.50746
4.60488
4.69746
4.78381
4.86425
4.93982
5.01153
5.07993
5.14502
5.20645
5.26358
5.31576
5.36222
5.40204
5.43415
5.45746
5.4702
5.4694
5.45018
5.40598
5.32879
5.20851
5.03667
4.82741
4.64741
4.55795
4.56027
4.58487
4.59443
531.4
521.378
4.17035
4.25461
4.3446
4.43788
4.53161
4.62381
4.71351
4.80024
4.88362
4.96326
5.03871
5.10955
5.17542
5.23599
5.29093
5.34004
5.38316
5.42009
5.45063
5.47458
5.49128
5.49879
5.49379
5.47078
5.42158
5.3348
5.20047
5.01963
4.82516
4.67204
4.60915
4.60733
4.61878
531.218
521.383
4.18434
4.27584
4.37077
4.46837
4.56725
4.66572
4.76198
4.85433
4.9415
5.02279
5.0979
5.16675
5.22932
5.28551
5.33514
5.37803
5.41417
5.44364
5.46686
5.48451
5.49699
5.50427
5.50523
5.49661
5.47085
5.41617
5.32077
5.18046
5.00356
4.82678
4.70959
4.66843
4.66957
530.984
521.389
4.20021
4.30179
4.40673
4.51364
4.61985
4.72264
4.82003
4.91103
4.99551
5.07372
5.1459
5.21209
5.27201
5.32517
5.37092
5.40861
5.43786
5.45864
5.47165
5.4782
5.47982
5.47917
5.47955
5.48214
5.47944
5.45531
5.39326
5.28299
5.12518
4.94816
4.80937
4.7457
4.73615
530.838
521.397
4.21857
4.33011
4.44265
4.55357
4.66024
4.76122
4.85621
4.9455
5.02947
5.1082
5.18143
5.24853
5.30859
5.36052
5.40318
5.43538
5.45625
5.4653
5.46304
5.45063
5.43031
5.40909
5.40111
5.41766
5.44923
5.46787
5.44344
5.35443
5.20192
5.02159
4.877
4.80855
4.78512
530.926
521.406
4.23311
4.34972
4.46474
4.57637
4.68361
4.7862
4.884
4.97671
5.06393
5.14518
5.21989
5.28727
5.34632
5.39577
5.43417
5.45991
5.4714
5.46721
5.4466
5.4089
5.35571
5.30095
5.27807
5.31567
5.39782
5.47057
5.47982
5.40289
5.24993
5.06639
4.91941
4.83985
4.79003
531.27
521.412
4.24144
4.36056
4.47824
4.59321
4.70448
4.81101
4.91177
5.00606
5.09364
5.17448
5.24838
5.31483
5.37287
5.42111
5.45772
5.48052
5.48704
5.47442
5.43981
5.37958
5.29297
5.19706
5.14197
5.18357
5.31247
5.43748
5.48027
5.42247
5.28236
5.10635
4.95612
4.8539
4.77032
531.714
521.416
4.24565
4.36697
4.48757
4.60576
4.71982
4.82825
4.92998
5.02471
5.11257
5.19377
5.26823
5.33548
5.39465
5.44445
5.48301
5.50795
5.51628
5.50419
5.4674
5.39998
5.29549
5.15966
5.03768
5.01707
5.14611
5.32571
5.42609
5.41066
5.30143
5.14366
4.99182
4.86692
4.75557
532.119
521.418
4.24752
4.37121
4.49495
4.61661
4.73401
4.84515
4.94879
5.04466
5.13308
5.2145
5.28906
5.35659
5.41649
5.46774
5.50892
5.53801
5.55226
5.54785
5.52017
5.46267
5.36574
5.2209
5.04242
4.9038
4.92076
5.10069
5.28233
5.34871
5.29617
5.17059
5.02577
4.88839
4.7611
532.412
521.418
4.24969
4.37703
4.50483
4.63037
4.75084
4.86393
4.96852
5.06469
5.15321
5.23476
5.30972
5.37802
5.43921
5.49255
5.53692
5.57078
5.59198
5.5974
5.58346
5.54475
5.47264
5.35452
5.17956
4.96624
4.8077
4.83694
5.02199
5.19045
5.2348
5.16948
5.05195
4.91931
4.78778
532.603
521.418
4.25285
4.38429
4.51593
4.64482
4.7679
4.88286
4.98874
5.08593
5.17535
5.25783
5.33378
5.40321
5.46588
5.52126
5.5685
5.60652
5.63378
5.64803
5.64694
5.6266
5.58058
5.49877
5.36674
5.17164
4.93359
4.75837
4.77135
4.93625
5.08276
5.11196
5.051
4.94684
4.8261
532.726
521.418
4.25754
4.3939
4.5301
4.66297
4.78915
4.90625
5.01358
5.11182
5.20212
5.28539
5.36208
5.43225
5.49573
5.55219
5.60115
5.64199
5.67367
5.69472
5.70379
5.69836
5.67378
5.62257
5.53344
5.3908
5.18147
4.93015
4.74604
4.73812
4.87193
4.9856
5.00254
4.94977
4.86012
532.811
521.419
4.26545
4.40812
4.54962
4.68647
4.81527
4.934
5.04248
5.14174
5.23304
5.31723
5.39469
5.46541
5.52922
5.5859
5.63517
5.6767
5.70994
5.73458
5.75038
5.75601
5.74797
5.72079
5.66583
5.57019
5.41741
5.19752
4.94806
4.7612
4.74259
4.84376
4.91964
4.92527
4.88145
532.86
521.422
4.27598
4.42508
4.57131
4.71138
4.84238
4.96285
5.073
5.174
5.26701
5.3527
5.43122
5.50242
5.56608
5.62197
5.66996
5.70999
5.74207
5.76656
5.78411
5.79454
5.79661
5.78719
5.75987
5.70283
5.60105
5.43955
5.21916
4.9685
4.79326
4.77994
4.8504
4.89424
4.89289
532.849
521.427
4.2882
4.44332
4.59415
4.73784
4.87186
4.99505
5.10781
5.21133
5.30664
5.39417
5.47388
5.54543
5.60846
5.66267
5.70793
5.74431
5.77235
5.79295
5.80757
5.81731
5.82283
5.82356
5.81566
5.7898
5.73164
5.6263
5.45898
5.22446
4.97842
4.83969
4.84167
4.88302
4.90264
532.736
521.435
4.30139
4.46227
4.61804
4.76591
4.9034
5.02953
5.14498
5.25102
5.34856
5.43783
5.51853
5.5901
5.65193
5.70357
5.7448
5.77567
5.797
5.81015
5.81722
5.82058
5.82336
5.82885
5.83716
5.84027
5.82235
5.76573
5.64754
5.45058
5.19778
4.98528
4.90479
4.91013
4.91994
532.519
521.443
4.31526
4.4817
4.64237
4.7942
4.93484
5.06371
5.18182
5.29051
5.39052
5.48179
5.5637
5.63535
5.69585
5.74443
5.78063
5.80431
5.8163
5.81811
5.81214
5.80188
5.79361
5.79681
5.81839
5.85221
5.87813
5.86815
5.79132
5.62833
5.39005
5.15034
5.01039
4.96802
4.94169
532.286
521.452
4.32804
4.49914
4.66391
4.81916
4.96276
5.09451
5.21563
5.32748
5.43058
5.52456
5.60848
5.6811
5.74115
5.78751
5.81931
5.83603
5.83814
5.82674
5.80387
5.77324
5.744
5.73387
5.76128
5.82496
5.89708
5.93069
5.88875
5.75399
5.53596
5.29356
5.12168
5.03274
4.95632
532.152
521.46
4.33826
4.51321
4.68157
4.83996
4.98642
5.12102
5.24526
5.36051
5.46714
5.56452
5.65141
5.72626
5.78748
5.83355
5.86316
5.87529
5.86983
5.84703
5.80774
5.75427
5.69589
5.65689
5.67167
5.75376
5.86895
5.94548
5.93828
5.83238
5.63907
5.40851
5.22194
5.09206
4.96326
532.165
521.466
4.34589
4.52418
4.69541
4.85617
5.00479
5.14181
5.26901
5.38781
5.49841
5.59995
5.69094
5.76961
5.83408
5.88258
5.91344
5.92516
5.91711
5.88863
5.83905
5.768
5.68046
5.59891
5.57015
5.63708
5.77941
5.9014
5.93817
5.87057
5.7102
5.50069
5.31049
5.14906
4.97525
532.29
521.469
4.35158
4.53253
4.70561
4.86777
5.01796
5.15714
5.28731
5.40986
5.52481
5.63107
5.72698
5.8106
5.87993
5.93305
5.96813
5.98356
5.97839
5.95138
5.9009
5.82429
5.72044
5.60054
5.50617
5.50651
5.63263
5.79122
5.88366
5.8689
5.75281
5.57329
5.38833
5.20759
5.00168
532.461
521.471
4.35566
4.53845
4.71243
4.87542
5.02696
5.16832
5.30164
5.42818
5.54777
5.65915
5.76046
5.84965
5.92466
5.98353
6.02444
6.04598
6.04718
6.02665
5.98258
5.91152
5.80891
5.67436
5.5288
5.43569
5.47955
5.62773
5.76899
5.8187
5.75939
5.62007
5.45134
5.26563
5.04216
532.633
521.472
4.35876
4.54266
4.71703
4.88063
5.03349
5.17713
5.31374
5.44449
5.56901
5.68583
5.79289
5.88802
5.96906
6.03404
6.08115
6.10933
6.11777
6.10523
6.07025
6.00986
5.91872
5.79128
5.63064
5.47205
5.40277
5.47085
5.61442
5.71914
5.72292
5.63254
5.49108
5.31478
5.0888
532.789
521.473
4.36134
4.54575
4.72025
4.88439
5.03849
5.18431
5.32416
5.45917
5.5888
5.71135
5.82453
5.92595
6.01331
6.08456
6.13788
6.17254
6.18784
6.18277
6.15634
6.10638
6.02869
5.91633
5.76487
5.58626
5.43786
5.39638
5.47616
5.5947
5.65057
5.61186
5.50678
5.35176
5.13589
532.93
521.475
4.36417
4.54892
4.72369
4.88836
5.04344
5.19106
5.3338
5.47286
5.60758
5.736
5.85554
5.96346
6.05722
6.13457
6.19384
6.23432
6.25541
6.25632
6.23645
6.19428
6.12652
6.02766
5.89166
5.71948
5.54314
5.42466
5.41331
5.49137
5.56735
5.57068
5.5026
5.3752
5.17814
533.062
521.479
4.3679
4.55335
4.72879
4.8939
5.04937
5.19802
5.34298
5.48564
5.62527
5.75962
5.88572
6.00041
6.10074
6.18419
6.24907
6.29461
6.32023
6.32529
6.30952
6.2719
6.20978
6.11836
5.99214
5.83111
5.65572
5.50721
5.43054
5.44673
5.50551
5.52939
5.48953
5.38817
5.21265
533.193
521.484
4.37376
4.56078
4.73722
4.90222
5.05698
5.20542
5.3515
5.49694
5.64094
5.78094
5.9135
6.03494
6.14186
6.23131
6.30157
6.35167
6.3809
6.38865
6.37486
6.33879
6.27811
6.18846
6.06506
5.90907
5.74015
5.58903
5.48562
5.45586
5.48224
5.50461
5.47884
5.39542
5.23669
533.338
521.49
4.38185
4.57116
4.74855
4.91256
5.06533
5.21228
5.3584
5.50578
5.65356
5.79883
5.9376
6.06563
6.17898
6.27428
6.34971
6.40397
6.43614
6.44554
6.43216
6.39532
6.33264
6.23963
6.112
5.95346
5.7884
5.64397
5.53941
5.49058
5.49104
5.50137
5.47675
5.40052
5.24886
533.501
521.498
4.39185
4.58403
4.76196
4.92382
5.07314
5.21717
5.3621
5.5105
5.66144
5.8116
5.95637
6.09087
6.21061
6.31193
6.39268
6.45123
6.48637
6.49729
6.48391
6.44545
6.37918
6.2801
6.14388
5.97677
5.80975
5.671
5.57546
5.52666
5.51479
5.51285
5.48199
5.40395
5.24984
533.668
521.506
4.40297
4.59799
4.77552
4.93374
5.07801
5.21761
5.36002
5.5084
5.66184
5.81658
5.96729
6.10839
6.23477
6.34256
6.42921
6.49272
6.53163
6.54495
6.53248
6.49322
6.4241
6.31947
6.1745
5.99677
5.8218
5.68149
5.59354
5.55269
5.53987
5.52905
5.48991
5.40522
5.24351
533.82
521.513
4.41376
4.61118
4.78743
4.94094
5.0789
5.2126
5.35096
5.49793
5.65282
5.8115
5.96794
6.11577
6.24923
6.3642
6.45771
6.52741
6.57158
6.58905
6.57951
6.54182
6.47272
6.36623
6.2168
6.0313
5.84383
5.69078
5.59963
5.56449
5.55602
5.54182
5.4968
5.40556
5.23676
533.945
521.519
4.42422
4.62407
4.7989
4.9473
5.0782
5.20484
5.33764
5.48163
5.63658
5.79814
5.95961
6.11384
6.2544
6.37689
6.47792
6.5548
6.60556
6.62893
6.62449
6.59111
6.52561
6.42215
6.27476
6.08815
5.88904
5.71479
5.60527
5.56503
5.55989
5.54701
5.50061
5.40635
5.23442
534.041
521.526
4.43479
4.63728
4.8107
4.95383
5.07729
5.19614
5.32232
5.46207
5.61582
5.77914
5.94477
6.10477
6.25209
6.38203
6.49073
6.5752
6.63328
6.6636
6.66575
6.63868
6.57954
6.48301
6.34325
6.16279
5.95852
5.76309
5.62415
5.56399
5.55477
5.54451
5.50074
5.40793
5.23742
534.117
521.532
4.44611
4.65129
4.82316
4.96089
5.07683
5.18763
5.30665
5.44136
5.59297
5.75712
5.92599
6.09093
6.24448
6.38139
6.49741
6.58927
6.65469
6.6922
6.70144
6.68149
6.62987
6.54199
6.41273
6.24312
6.04141
5.83253
5.66376
5.57295
5.54862
5.53741
5.49734
5.40882
5.24275
534.182
521.54
4.45791
4.66528
4.83512
4.96736
5.07598
5.17896
5.29071
5.41991
5.56869
5.73288
5.90422
6.07337
6.23248
6.37576
6.49856
6.59735
6.66973
6.71414
6.73025
6.71725
6.67303
6.59371
6.47512
6.3172
6.12249
5.90903
5.71873
5.59666
5.54915
5.53048
5.49178
5.40744
5.24599
534.245
521.548
4.46948
4.67815
4.84551
4.97247
5.07439
5.17009
5.27477
5.3981
5.54326
5.70654
5.87946
6.05206
6.21607
6.36517
6.49427
6.59959
6.67855
6.72953
6.75214
6.74564
6.70818
6.63651
6.52735
6.37925
6.19164
5.97834
5.77593
5.63005
5.55869
5.52742
5.48592
5.40282
5.24301
534.309
521.557
4.48004
4.68912
4.85386
4.97611
5.07226
5.16151
5.25939
5.37646
5.517
5.67812
5.85143
6.02651
6.19471
6.34911
6.48418
6.59583
6.68131
6.73883
6.76792
6.76782
6.73683
6.6722
6.57118
6.43034
6.24742
6.03403
5.824
5.66233
5.57252
5.52801
5.48048
5.39456
5.23153
534.361
521.565
4.48882
4.69767
4.85997
4.97834
5.0697
5.15323
5.24451
5.3548
5.48954
5.64704
5.81934
5.99579
6.16738
6.3266
6.46745
6.58553
6.67788
6.74253
6.77886
6.78601
6.76234
6.70546
6.61249
6.47764
6.29709
6.08061
5.86103
5.68525
5.58138
5.52615
5.47203
5.38064
5.2106
534.373
521.572
4.4957
4.7042
4.86464
4.97999
5.06737
5.14569
5.23037
5.33322
5.46093
5.61331
5.78319
5.95986
6.13401
6.29752
6.44393
6.56858
6.6683
6.74099
6.78588
6.80199
6.78776
6.741
6.65776
6.53022
6.35263
6.13152
5.89724
5.70011
5.57778
5.51197
5.45251
5.3565
5.18078
534.314
521.577
4.50104
4.70929
4.86833
4.98142
5.06561
5.13929
5.21745
5.31223
5.43173
5.57739
5.74331
5.91912
6.09506
6.26235
6.4141
6.54539
6.65293
6.73456
6.78945
6.8166
6.81457
6.7811
6.71061
6.59422
6.42425
6.20234
5.95222
5.72401
5.56882
5.48385
5.41787
5.32031
5.14529
534.17
521.581
4.50467
4.71249
4.87044
4.98206
5.06406
5.1341
5.20648
5.29325
5.40357
5.54087
5.70102
5.87448
6.05114
6.22152
6.37822
6.51605
6.63164
6.72281
6.78885
6.82887
6.84156
6.82406
6.7696
6.66917
6.51388
6.30051
6.04307
5.78367
5.5825
5.46249
5.38221
5.28296
5.11343
533.959
521.583
4.50642
4.71364
4.87089
4.98176
5.06244
5.12987
5.19759
5.27726
5.37861
5.50684
5.65975
5.82917
6.00505
6.17731
6.33807
6.48181
6.60505
6.70571
6.78325
6.83704
6.86582
6.86561
6.82936
6.74852
6.61394
6.4191
6.16912
5.89305
5.64884
5.48279
5.37624
5.26776
5.09915
533.727
521.585
4.50744
4.71413
4.87091
4.98123
5.06087
5.12619
5.19005
5.26371
5.35709
5.47673
5.62213
5.78656
5.96038
6.13322
6.29681
6.44531
6.57515
6.68438
6.77276
6.83994
6.88434
6.90109
6.88335
6.82324
6.71202
6.54177
6.31149
6.03907
5.77071
5.56266
5.42256
5.29346
5.11185
533.528
521.587
4.50822
4.71428
4.87052
4.98025
5.05884
5.12216
5.18253
5.25074
5.33711
5.44894
5.58725
5.74664
5.91799
6.09075
6.25632
6.40864
6.54403
6.66069
6.75872
6.83801
6.8963
6.92834
6.92768
6.88706
6.79839
6.65358
6.44857
6.19325
5.92184
5.68793
5.51681
5.35967
5.15027
533.396
521.589
4.50856
4.714
4.86988
4.97905
5.05654
5.11792
5.17506
5.23845
5.31844
5.42302
5.55452
5.70886
5.87752
6.04986
6.21692
6.37245
6.51261
6.63571
6.74216
6.83188
6.90191
6.94702
6.96114
6.93748
6.86856
6.74661
6.56633
6.33275
6.07144
5.82807
5.63445
5.44903
5.20423
533.345
521.591
4.50946
4.71489
4.87063
4.97896
5.05482
5.11375
5.16748
5.22643
5.30086
5.39912
5.52452
5.67404
5.8399
6.01151
6.17961
6.33784
6.48214
6.61084
6.72456
6.82291
6.90248
6.95827
6.98454
6.97491
6.92232
6.81941
6.66051
6.44807
6.2014
5.95928
5.75206
5.5428
5.26278
533.365
521.594
4.51189
4.71783
4.87329
4.9802
5.05371
5.10947
5.15925
5.21346
5.28259
5.37532
5.49559
5.64107
5.80452
5.97552
6.14457
6.30524
6.45332
6.58712
6.70718
6.81256
6.8997
6.96395
6.99991
7.00151
6.96205
6.87448
6.73311
6.53911
6.30772
6.07151
5.85709
5.62947
5.31871
533.44
521.597
4.51495
4.72151
4.87653
4.98174
5.05253
5.10466
5.14992
5.19887
5.26234
5.34955
5.46507
5.6071
5.7688
5.93977
6.11031
6.27361
6.4257
6.56458
6.69043
6.80164
6.89477
6.9656
7.0091
7.01953
6.99047
6.91515
6.78799
6.60947
6.39222
6.16393
5.94626
5.70516
5.36938
533.548
521.6
4.51852
4.72623
4.88106
4.98446
5.05216
5.10009
5.14012
5.18305
5.24019
5.32141
5.43193
5.57052
5.7307
5.90205
6.07463
6.24116
6.39782
6.5422
6.67373
6.79016
6.88831
6.96437
7.01377
7.03114
7.01034
6.94485
6.82921
6.66348
6.45858
6.2386
6.02019
5.76941
5.4142
533.676
521.603
4.52302
4.73251
4.88727
4.98868
5.05296
5.09621
5.13032
5.16639
5.21632
5.29074
5.39566
5.53047
5.68914
5.86115
6.03629
6.20686
6.36861
6.51907
6.65645
6.77798
6.88067
6.96113
7.01525
7.0381
7.02396
6.96661
6.86073
6.70609
6.51237
6.30027
6.08241
5.82473
5.45465
533.807
521.606
4.52825
4.73946
4.89384
4.99306
5.05385
5.0924
5.12047
5.14936
5.19155
5.25848
5.357
5.48728
5.6439
5.81642
5.99432
6.16952
6.33707
6.4942
6.63786
6.76486
6.87228
6.95693
7.01507
7.04229
7.03341
6.98269
6.8851
6.74023
6.55693
6.35201
6.1355
5.87307
5.49194
533.937
521.609
4.53398
4.74682
4.90072
4.99775
5.0551
5.08896
5.11091
5.13243
5.16664
5.22584
5.31761
5.4428
5.59665
5.76909
5.94943
6.12927
6.30312
6.46694
6.61726
6.7504
6.86324
6.95258
7.01482
7.04594
7.04139
6.99609
6.90548
6.76911
6.59543
6.39742
6.18305
5.91769
5.52846
534.057
521.612
4.54096
4.75517
4.9082
5.00286
5.05683
5.08613
5.10203
5.11607
5.14206
5.1933
5.27824
5.39831
5.5491
5.72112
5.90348
6.08761
6.26746
6.43771
6.59473
6.73454
6.85371
6.94872
7.01577
7.05099
7.05033
7.0096
6.92501
6.79622
6.63099
6.43928
6.22744
5.96043
5.5652
534.169
521.617
4.54765
4.7622
4.91389
5.00629
5.05728
5.08255
5.0929
5.09983
5.11769
5.16074
5.23865
5.35352
5.5012
5.67264
5.85689
6.04507
6.23043
6.40662
6.56986
6.71654
6.8429
6.94487
7.01813
7.05845
7.06198
7.02526
6.94569
6.82369
6.66515
6.47886
6.26975
6.00214
5.60256
534.273
521.623
4.55516
4.76947
4.91959
5.00974
5.05795
5.07947
5.08458
5.08468
5.09461
5.12959
5.20058
5.31041
5.45513
5.62583
5.81185
6.00379
6.1938
6.37487
6.54341
6.69647
6.8302
6.9401
7.02112
7.06825
7.07719
7.04479
6.96955
6.85347
6.70042
6.51874
6.31237
6.04488
5.64195
534.381
521.631
4.56341
4.77659
4.92474
5.01262
5.05825
5.07635
5.07663
5.07037
5.07284
5.10023
5.1646
5.26994
5.41243
5.58287
5.77076
5.96632
6.16016
6.3449
6.51746
6.67556
6.81571
6.93332
7.02281
7.07827
7.09448
7.06792
6.99775
6.88722
6.73861
6.56049
6.3562
6.08858
5.68258
534.504
521.641
4.57179
4.7831
4.92919
5.01499
5.05833
5.07334
5.06912
5.05673
5.05179
5.07148
5.12928
5.23069
5.37202
5.5436
5.7343
5.93395
6.13139
6.31907
6.49455
6.65605
6.80083
6.92466
7.02183
7.08578
7.11035
7.09135
7.02825
6.92312
6.77852
6.60334
6.40028
6.13123
5.72052
534.662
521.654
4.58049
4.7898
4.93409
5.01805
5.05928
5.07136
5.06289
5.04465
5.03248
5.04445
5.09536
5.19268
5.33325
5.5071
5.70231
5.90719
6.10868
6.29935
6.47701
6.64053
6.78794
6.91564
7.01823
7.08902
7.12115
7.10973
7.05447
6.95488
6.81438
6.64193
6.43913
6.16657
5.74866
534.856
521.667
4.58939
4.79702
4.93984
5.02211
5.06136
5.07065
5.05808
5.03406
5.01449
5.01831
5.06199
5.15433
5.29398
5.47064
5.67163
5.88323
6.08997
6.28435
6.46451
6.6297
6.77843
6.90773
7.01292
7.0878
7.12561
7.12122
7.07282
6.97841
6.84215
6.67256
6.46924
6.19098
5.76331
535.082
521.68
4.5974
4.80374
4.94549
5.02644
5.06405
5.07103
5.05494
5.02565
4.99871
4.99364
5.02864
5.11454
5.25201
5.43096
5.63813
5.85728
6.0704
6.2698
6.45366
6.62123
6.77108
6.90063
7.0059
7.08164
7.12207
7.12294
7.07932
6.9891
6.8568
6.68997
6.48554
6.20033
5.76245
535.313
521.69
4.60435
4.81043
4.95176
5.03175
5.06801
5.07299
5.05385
5.01978
4.98558
4.97086
4.99538
5.07274
5.20514
5.38449
5.59689
5.82314
6.04296
6.24837
6.43737
6.60885
6.76105
6.89133
6.99619
7.07139
7.1125
7.11596
7.07506
6.98807
6.85933
6.69508
6.48925
6.19708
5.7507
535.527
521.699
4.61074
4.8174
4.95862
5.03792
5.07321
5.07683
5.0555
5.01755
4.97662
4.95173
4.96379
5.02946
5.15383
5.32998
5.545
5.7764
6.00192
6.21315
6.40786
6.58446
6.74055
6.87305
6.97856
7.05371
7.09559
7.0995
7.05974
6.97511
6.84941
6.68723
6.47985
6.18198
5.73173
535.702
521.704
4.61546
4.82289
4.96427
5.0434
5.07842
5.08156
5.05916
5.01863
4.97211
4.93729
4.93547
4.98625
5.09862
5.26799
5.4819
5.71565
5.94493
6.1607
6.36059
6.5428
6.70436
6.84147
6.95033
7.02781
7.07211
7.07705
7.03858
6.95635
6.83366
6.67345
6.46499
6.16335
5.71362
535.832
521.708
4.6199
4.82849
4.97034
5.04978
5.08519
5.08867
5.06617
5.0242
4.97335
4.92951
4.91349
4.94707
5.04358
5.20206
5.41101
5.64426
5.87489
6.09286
6.29589
6.48245
6.64954
6.7928
6.90783
6.99131
7.03996
7.04796
7.0124
6.93363
6.81463
6.65712
6.44894
6.14585
5.69962
535.911
521.711
4.62318
4.83224
4.97454
5.055
5.09194
5.09713
5.07601
5.03414
4.98054
4.92915
4.89949
4.91465
4.99237
5.1364
5.33713
5.56814
5.79877
6.01702
6.22084
6.40951
6.58067
6.73004
6.85271
6.94484
7.0008
7.01501
6.98511
6.91192
6.79824
6.64506
6.43935
6.13697
5.69405
535.946
521.714
4.62531
4.83461
4.97782
5.06016
5.09967
5.10776
5.08932
5.049
4.99436
4.93733
4.89554
4.89214
4.94867
5.07461
5.2637
5.49102
5.72135
5.93938
6.14228
6.33057
6.50315
6.65655
6.78598
6.88716
6.95214
6.97494
6.95317
6.88769
6.7811
6.63413
6.43308
6.13336
5.69289
535.943
521.717
4.62767
4.83715
4.98144
5.06607
5.10878
5.12061
5.10586
5.06828
5.01412
4.95347
4.90179
4.88121
4.91577
5.02087
5.19524
5.41734
5.64736
5.86564
6.06779
6.25435
6.4261
6.581
6.71502
6.82396
6.89803
6.93041
6.91821
6.862
6.76409
6.625
6.43045
6.13479
5.69538
535.911
521.72
4.62924
4.83829
4.98367
5.07097
5.1176
5.13417
5.12443
5.09122
5.03948
4.97749
4.91843
4.8826
4.89516
4.977
5.13328
5.34774
5.57726
5.7964
5.99827
6.18343
6.35299
6.50697
6.6428
6.75686
6.83841
6.87973
6.8771
6.83056
6.74205
6.61178
6.42487
6.13445
5.69617
535.854
521.724
4.63107
4.83992
4.98645
5.0763
5.12669
5.14799
5.14359
5.11564
5.06794
5.00708
4.94386
4.89606
4.8884
4.94603
5.08148
5.2852
5.51357
5.73425
5.93656
6.12045
6.28817
6.44027
6.57569
6.6922
6.77907
6.82782
6.83386
6.79657
6.71749
6.5964
6.41783
6.13361
5.69675
535.781
521.729
4.6333
4.84169
4.9891
5.0813
5.13538
5.16155
5.16291
5.14105
5.09877
5.04111
4.97654
4.91996
4.89432
4.92742
5.03938
5.22875
5.45518
5.67832
5.88213
6.06515
6.23043
6.38014
6.51423
6.63107
6.72087
6.775
6.7882
6.75918
6.68904
6.57707
6.40718
6.12998
5.69541
535.695
521.733
4.6348
4.84264
4.9908
5.085
5.14234
5.17298
5.17997
5.16463
5.12903
5.07684
5.01427
4.95299
4.91293
4.92246
5.0086
5.17967
5.40289
5.62983
5.83709
6.02048
6.18349
6.32992
6.46134
6.57745
6.66912
6.72721
6.74612
6.72408
6.66183
6.55822
6.39669
6.12678
5.69481
535.612
521.738
4.63717
4.84486
4.99373
5.08958
5.14966
5.18423
5.19636
5.18729
5.15867
5.11316
5.05505
4.99279
4.94233
4.93021
4.98842
5.13637
5.35369
5.58576
5.79949
5.98579
6.14767
6.29047
6.41776
6.53089
6.62236
6.68312
6.7068
6.69098
6.63591
6.54001
6.38636
6.12343
5.69354
535.53
521.742
4.63765
4.84492
4.99434
5.09165
5.15423
5.19244
5.20954
5.20682
5.18577
5.14837
5.09737
5.03821
4.98228
4.95204
4.98123
5.10025
5.3058
5.54268
5.76654
5.96021
6.12439
6.26534
6.38855
6.49731
6.58654
6.64778
6.6744
6.66334
6.61432
6.52524
6.37867
6.12158
5.69175
535.466
521.744
4.63814
4.84594
4.99624
5.09482
5.15939
5.20054
5.22173
5.22448
5.21043
5.1814
5.13917
5.08673
5.03085
4.98793
4.98913
5.07313
5.25663
5.49414
5.73051
5.9366
6.10795
6.25056
6.3715
6.47596
6.56166
6.62138
6.64881
6.64062
6.596
6.51235
6.37162
6.119
5.68798
535.402
521.744
4.6363
4.84463
4.99579
5.09562
5.16214
5.20619
5.23139
5.23947
5.2323
5.21184
5.17959
5.1369
5.08664
5.03836
5.01616
5.06068
5.20779
5.4352
5.68305