/*--------------------------------*- C++ -*----------------------------------*\
| =========                 |                                                 |
| \\      /  F ield         | OpenFOAM: The Open Source CFD Toolbox           |
|  \\    /   O peration     | Version:  v1906                                 |
|   \\  /    A nd           | Web:      www.OpenFOAM.com                      |
|    \\/     M anipulation  |                                                 |
\*---------------------------------------------------------------------------*/
FoamFile
{
    version     2.0;
    format      ascii;
    class       volScalarField;
    location    "31";
    object      T;
}
// * * * * * * * * * * * * * * * * * * * * * * * * * * * * * * * * * * * * * //

dimensions      [0 0 0 1 0 0 0];


internalField   nonuniform List<scalar> 
78750
(
299.537
299.084
299.038
299.02
299.009
299.001
298.994
298.988
298.983
298.977
298.972
298.966
298.96
298.955
298.949
298.944
298.938
298.933
298.927
298.921
298.915
298.909
298.903
298.896
298.889
298.881
298.872
298.862
298.852
298.844
298.856
298.944
299.236
299.894
300.949
299.813
299.504
299.3
299.187
299.13
299.099
299.082
299.07
299.062
299.054
299.048
299.041
299.035
299.029
299.024
299.018
299.013
299.007
299.002
298.996
298.989
298.983
298.976
298.969
298.962
298.954
298.948
298.944
298.947
298.966
299.027
299.19
299.548
300.184
301.166
299.853
299.584
299.373
299.223
299.128
299.076
299.052
299.039
299.032
299.027
299.023
299.02
299.018
299.017
299.017
299.017
299.018
299.019
299.021
299.023
299.025
299.028
299.033
299.038
299.045
299.055
299.071
299.095
299.135
299.209
299.346
299.592
300.001
300.642
301.618
299.878
299.655
299.484
299.354
299.251
299.174
299.117
299.073
299.039
299.012
298.991
298.974
298.963
298.957
298.954
298.954
298.955
298.958
298.962
298.966
298.971
298.977
298.984
298.994
299.008
299.027
299.054
299.096
299.16
299.265
299.442
299.736
300.19
300.862
301.852
299.902
299.712
299.554
299.424
299.311
299.213
299.129
299.061
299.01
298.977
298.963
298.964
298.976
298.996
299.018
299.039
299.058
299.073
299.084
299.089
299.089
299.086
299.079
299.072
299.07
299.076
299.1
299.151
299.242
299.388
299.616
299.959
300.44
301.127
302.133
299.91
299.732
299.579
299.451
299.338
299.24
299.164
299.113
299.09
299.094
299.121
299.163
299.212
299.262
299.307
299.346
299.378
299.401
299.416
299.424
299.422
299.412
299.393
299.365
299.329
299.29
299.259
299.256
299.305
299.433
299.668
300.039
300.557
301.277
302.299
299.92
299.76
299.618
299.498
299.395
299.311
299.253
299.224
299.226
299.254
299.298
299.349
299.398
299.441
299.477
299.506
299.529
299.547
299.56
299.569
299.573
299.573
299.568
299.557
299.54
299.516
299.491
299.477
299.502
299.602
299.819
300.19
300.72
301.456
302.488
299.928
299.782
299.651
299.54
299.448
299.376
299.333
299.319
299.332
299.362
299.401
299.441
299.478
299.509
299.536
299.558
299.576
299.591
299.603
299.611
299.616
299.618
299.617
299.613
299.606
299.596
299.588
299.591
299.626
299.727
299.94
300.309
300.848
301.598
302.636
299.935
299.802
299.681
299.58
299.497
299.439
299.409
299.407
299.427
299.46
299.499
299.537
299.572
299.603
299.629
299.652
299.671
299.687
299.7
299.71
299.716
299.72
299.72
299.717
299.711
299.703
299.698
299.705
299.746
299.852
300.071
300.446
300.994
301.752
302.793
299.941
299.82
299.711
299.618
299.545
299.497
299.477
299.48
299.501
299.531
299.564
299.596
299.625
299.651
299.673
299.694
299.712
299.727
299.741
299.752
299.762
299.769
299.774
299.778
299.78
299.781
299.785
299.801
299.848
299.96
300.181
300.559
301.113
301.877
302.919
299.949
299.844
299.747
299.665
299.601
299.559
299.541
299.542
299.558
299.583
299.611
299.639
299.666
299.69
299.712
299.732
299.749
299.765
299.779
299.792
299.803
299.812
299.821
299.828
299.835
299.843
299.857
299.883
299.941
300.062
300.29
300.675
301.233
302
303.043
299.957
299.868
299.785
299.714
299.659
299.622
299.605
299.605
299.617
299.637
299.661
299.685
299.709
299.73
299.75
299.768
299.785
299.8
299.814
299.827
299.839
299.85
299.861
299.871
299.883
299.898
299.918
299.954
300.02
300.147
300.381
300.769
301.33
302.099
303.144
299.965
299.89
299.82
299.759
299.712
299.68
299.664
299.662
299.67
299.685
299.704
299.724
299.744
299.763
299.781
299.797
299.813
299.828
299.842
299.855
299.868
299.88
299.893
299.907
299.923
299.944
299.973
300.018
300.095
300.233
300.475
300.869
301.432
302.203
303.252
299.971
299.907
299.847
299.794
299.752
299.724
299.71
299.707
299.713
299.725
299.741
299.759
299.777
299.795
299.811
299.826
299.841
299.855
299.869
299.882
299.895
299.908
299.923
299.939
299.96
299.987
300.024
300.079
300.167
300.316
300.566
300.967
301.533
302.307
303.363
299.976
299.923
299.871
299.825
299.789
299.764
299.75
299.746
299.751
299.761
299.774
299.79
299.806
299.821
299.836
299.85
299.863
299.876
299.888
299.901
299.914
299.928
299.945
299.964
299.99
300.023
300.07
300.138
300.242
300.408
300.673
301.084
301.655
302.431
303.495
299.981
299.937
299.893
299.855
299.823
299.802
299.79
299.786
299.789
299.798
299.809
299.822
299.835
299.848
299.86
299.871
299.882
299.893
299.904
299.916
299.928
299.943
299.961
299.983
300.012
300.051
300.107
300.188
300.309
300.494
300.778
301.205
301.783
302.564
303.634
299.986
299.95
299.913
299.879
299.852
299.834
299.823
299.819
299.821
299.827
299.836
299.845
299.855
299.865
299.875
299.884
299.893
299.902
299.912
299.923
299.935
299.95
299.97
299.995
300.028
300.073
300.136
300.229
300.368
300.575
300.883
301.33
301.918
302.703
303.777
299.989
299.958
299.926
299.897
299.873
299.855
299.845
299.841
299.842
299.846
299.853
299.86
299.868
299.877
299.886
299.894
299.903
299.911
299.92
299.93
299.942
299.956
299.975
300.002
300.038
300.087
300.157
300.259
300.411
300.637
300.969
301.437
302.036
302.824
303.897
299.991
299.966
299.938
299.912
299.89
299.873
299.863
299.859
299.858
299.861
299.867
299.875
299.885
299.895
299.907
299.918
299.928
299.938
299.947
299.956
299.965
299.976
299.991
300.014
300.048
300.099
300.172
300.28
300.442
300.682
301.033
301.52
302.129
302.918
303.986
299.994
299.974
299.95
299.928
299.908
299.893
299.883
299.878
299.878
299.882
299.889
299.901
299.915
299.931
299.948
299.964
299.977
299.989
299.999
300.007
300.015
300.022
300.031
300.046
300.073
300.117
300.187
300.296
300.461
300.709
301.071
301.571
302.187
302.975
304.038
299.997
299.982
299.963
299.945
299.928
299.915
299.906
299.902
299.904
299.91
299.922
299.939
299.958
299.979
299.999
300.018
300.034
300.047
300.058
300.067
300.074
300.081
300.087
300.097
300.115
300.149
300.212
300.316
300.48
300.729
301.094
301.6
302.219
303.007
304.069
299.999
299.989
299.976
299.961
299.947
299.937
299.931
299.931
299.937
299.949
299.966
299.986
300.008
300.029
300.049
300.065
300.08
300.092
300.104
300.113
300.122
300.13
300.138
300.147
300.162
300.189
300.242
300.337
300.495
300.742
301.106
301.614
302.235
303.026
304.094
300.001
299.996
299.986
299.974
299.965
299.959
299.958
299.964
299.976
299.994
300.014
300.034
300.053
300.07
300.085
300.098
300.11
300.121
300.131
300.141
300.151
300.161
300.173
300.186
300.203
300.231
300.279
300.366
300.516
300.757
301.119
301.628
302.252
303.05
304.127
300.003
300
299.993
299.985
299.98
299.979
299.985
299.997
300.013
300.031
300.049
300.065
300.079
300.091
300.102
300.113
300.123
300.133
300.144
300.156
300.168
300.182
300.198
300.217
300.241
300.274
300.324
300.409
300.553
300.788
301.149
301.659
302.288
303.094
304.184
300.004
300.004
299.999
299.995
299.993
299.997
300.006
300.019
300.033
300.047
300.06
300.072
300.084
300.094
300.105
300.117
300.128
300.14
300.153
300.167
300.183
300.201
300.222
300.249
300.282
300.325
300.385
300.473
300.617
300.849
301.209
301.723
302.356
303.169
304.272
300.005
300.007
300.005
300.003
300.003
300.008
300.016
300.026
300.038
300.049
300.061
300.074
300.086
300.099
300.112
300.125
300.139
300.153
300.168
300.184
300.202
300.223
300.25
300.284
300.329
300.389
300.466
300.569
300.721
300.958
301.321
301.837
302.471
303.287
304.398
300.006
300.01
300.01
300.009
300.01
300.015
300.021
300.03
300.042
300.054
300.068
300.083
300.098
300.113
300.127
300.142
300.156
300.17
300.186
300.202
300.221
300.244
300.274
300.316
300.375
300.457
300.562
300.695
300.872
301.124
301.496
302.011
302.642
303.457
304.566
300.007
300.013
300.015
300.017
300.019
300.024
300.031
300.042
300.054
300.069
300.084
300.1
300.115
300.129
300.143
300.156
300.17
300.184
300.198
300.214
300.232
300.255
300.286
300.331
300.4
300.502
300.643
300.822
301.04
301.322
301.707
302.217
302.84
303.65
304.744
300.009
300.018
300.023
300.028
300.033
300.04
300.05
300.062
300.075
300.09
300.104
300.118
300.131
300.144
300.156
300.169
300.181
300.194
300.208
300.222
300.239
300.26
300.287
300.328
300.393
300.498
300.66
300.882
301.157
301.485
301.89
302.398
303.011
303.81
304.884
300.011
300.024
300.034
300.042
300.051
300.062
300.073
300.086
300.099
300.112
300.125
300.137
300.15
300.161
300.173
300.185
300.198
300.21
300.224
300.238
300.254
300.272
300.294
300.325
300.374
300.459
300.605
300.836
301.154
301.54
301.988
302.509
303.118
303.901
304.954
300.013
300.032
300.046
300.058
300.069
300.082
300.094
300.106
300.119
300.132
300.144
300.157
300.169
300.182
300.195
300.208
300.22
300.234
300.247
300.262
300.277
300.294
300.314
300.338
300.372
300.428
300.53
300.717
301.022
301.442
301.946
302.511
303.132
303.905
304.943
300.015
300.037
300.054
300.069
300.082
300.094
300.107
300.12
300.133
300.147
300.161
300.175
300.188
300.202
300.216
300.229
300.243
300.257
300.272
300.287
300.303
300.321
300.341
300.364
300.391
300.428
300.49
300.611
300.844
301.23
301.762
302.389
303.05
303.832
304.869
300.017
300.041
300.06
300.076
300.09
300.105
300.119
300.134
300.149
300.164
300.18
300.195
300.209
300.224
300.238
300.252
300.266
300.28
300.295
300.311
300.329
300.349
300.372
300.397
300.425
300.457
300.498
300.569
300.716
301.009
301.496
302.152
302.866
303.685
304.735
300.018
300.044
300.065
300.084
300.101
300.118
300.135
300.152
300.169
300.186
300.203
300.218
300.234
300.248
300.263
300.277
300.292
300.307
300.323
300.341
300.361
300.384
300.411
300.443
300.477
300.512
300.548
300.597
300.688
300.886
301.274
301.887
302.624
303.483
304.559
300.019
300.048
300.073
300.094
300.114
300.134
300.153
300.172
300.191
300.208
300.226
300.242
300.258
300.273
300.289
300.304
300.32
300.336
300.354
300.375
300.4
300.43
300.467
300.509
300.555
300.599
300.64
300.684
300.754
300.903
301.216
301.762
302.471
303.335
304.437
300.021
300.053
300.081
300.105
300.128
300.149
300.17
300.191
300.21
300.229
300.247
300.265
300.281
300.297
300.313
300.329
300.346
300.364
300.385
300.41
300.442
300.483
300.537
300.601
300.667
300.725
300.775
300.824
300.898
301.045
301.342
301.852
302.512
303.349
304.482
300.022
300.058
300.088
300.115
300.14
300.163
300.186
300.208
300.229
300.248
300.267
300.285
300.302
300.319
300.335
300.351
300.369
300.388
300.412
300.441
300.482
300.539
300.618
300.712
300.806
300.885
300.95
301.017
301.117
301.295
301.61
302.099
302.729
303.565
304.711
300.024
300.062
300.095
300.124
300.151
300.176
300.2
300.223
300.245
300.265
300.284
300.303
300.32
300.337
300.353
300.37
300.387
300.407
300.431
300.462
300.508
300.577
300.678
300.807
300.941
301.056
301.15
301.248
301.384
301.598
301.932
302.399
303.012
303.862
305.004
300.025
300.066
300.1
300.131
300.16
300.187
300.212
300.236
300.258
300.279
300.299
300.318
300.335
300.352
300.369
300.385
300.402
300.42
300.441
300.47
300.511
300.577
300.682
300.833
301.014
301.188
301.336
301.476
301.646
301.886
302.228
302.676
303.276
304.13
305.257
300.026
300.069
300.106
300.138
300.169
300.197
300.223
300.248
300.271
300.292
300.312
300.331
300.349
300.367
300.383
300.4
300.416
300.432
300.451
300.473
300.504
300.554
300.638
300.775
300.974
301.208
301.434
301.638
301.847
302.106
302.448
302.883
303.47
304.314
305.424
300.027
300.072
300.11
300.145
300.177
300.206
300.234
300.259
300.283
300.305
300.325
300.345
300.363
300.381
300.398
300.414
300.431
300.447
300.464
300.482
300.505
300.538
300.592
300.688
300.851
301.092
301.382
301.672
301.949
302.241
302.588
303.015
303.59
304.42
305.516
300.028
300.075
300.115
300.151
300.184
300.215
300.244
300.27
300.295
300.317
300.338
300.358
300.377
300.396
300.413
300.43
300.447
300.463
300.48
300.497
300.516
300.54
300.574
300.631
300.736
300.92
301.2
301.548
301.912
302.273
302.655
303.089
303.655
304.472
305.558
300.029
300.077
300.119
300.157
300.192
300.225
300.255
300.282
300.307
300.331
300.353
300.373
300.393
300.412
300.43
300.447
300.465
300.482
300.499
300.517
300.535
300.556
300.581
300.617
300.679
300.794
301.001
301.324
301.737
302.183
302.637
303.11
303.685
304.493
305.571
300.03
300.081
300.125
300.164
300.201
300.235
300.267
300.295
300.322
300.346
300.369
300.39
300.41
300.429
300.448
300.466
300.484
300.502
300.52
300.539
300.559
300.58
300.604
300.632
300.673
300.743
300.875
301.118
301.499
301.988
302.525
303.071
303.682
304.49
305.563
300.031
300.084
300.13
300.172
300.211
300.247
300.28
300.31
300.337
300.362
300.386
300.408
300.429
300.449
300.468
300.487
300.506
300.524
300.544
300.564
300.586
300.61
300.636
300.664
300.699
300.748
300.834
301.001
301.302
301.765
302.349
302.979
303.643
304.459
305.525
300.032
300.088
300.136
300.181
300.222
300.26
300.294
300.326
300.354
300.381
300.405
300.428
300.45
300.47
300.49
300.51
300.529
300.549
300.57
300.593
300.617
300.645
300.676
300.709
300.745
300.789
300.855
300.975
301.203
301.6
302.175
302.858
303.565
304.387
305.441
300.034
300.092
300.143
300.191
300.234
300.274
300.31
300.343
300.373
300.4
300.426
300.449
300.472
300.493
300.513
300.533
300.554
300.575
300.598
300.623
300.652
300.686
300.724
300.765
300.808
300.855
300.916
301.016
301.2
301.536
302.067
302.748
303.462
304.275
305.314
300.035
300.096
300.151
300.201
300.247
300.289
300.327
300.361
300.392
300.42
300.446
300.47
300.493
300.515
300.536
300.557
300.578
300.6
300.625
300.654
300.688
300.729
300.779
300.832
300.887
300.944
301.01
301.107
301.274
301.571
302.051
302.687
303.372
304.164
305.197
300.037
300.101
300.159
300.212
300.26
300.304
300.343
300.378
300.41
300.439
300.466
300.49
300.514
300.536
300.557
300.579
300.6
300.623
300.65
300.681
300.72
300.771
300.834
300.905
300.978
301.05
301.129
301.235
301.402
301.681
302.118
302.687
303.325
304.108
305.151
300.038
300.106
300.166
300.222
300.272
300.318
300.358
300.394
300.427
300.457
300.485
300.51
300.534
300.556
300.578
300.599
300.621
300.644
300.67
300.703
300.745
300.803
300.879
300.969
301.066
301.162
301.263
301.386
301.563
301.836
302.236
302.74
303.336
304.124
305.191
300.04
300.11
300.173
300.231
300.284
300.331
300.373
300.41
300.444
300.474
300.503
300.529
300.553
300.576
300.598
300.619
300.64
300.662
300.687
300.718
300.759
300.817
300.899
301.006
301.129
301.257
301.387
301.534
301.726
301.998
302.371
302.826
303.393
304.192
305.28
300.041
300.114
300.18
300.24
300.295
300.343
300.386
300.425
300.46
300.491
300.52
300.547
300.572
300.595
300.617
300.638
300.659
300.681
300.704
300.731
300.767
300.819
300.895
301.005
301.146
301.307
301.474
301.652
301.864
302.139
302.495
302.922
303.471
304.278
305.378
300.043
300.118
300.186
300.248
300.305
300.355
300.4
300.439
300.475
300.508
300.538
300.565
300.591
300.615
300.637
300.658
300.679
300.7
300.722
300.746
300.777
300.819
300.882
300.978
301.118
301.296
301.499
301.716
301.956
302.243
302.594
303.007
303.548
304.357
305.462
300.044
300.122
300.192
300.257
300.316
300.368
300.413
300.454
300.491
300.525
300.556
300.584
300.611
300.635
300.658
300.68
300.701
300.721
300.742
300.765
300.792
300.827
300.876
300.953
301.072
301.243
301.462
301.714
301.99
302.301
302.66
303.073
303.611
304.419
305.526
300.045
300.126
300.199
300.266
300.326
300.38
300.428
300.47
300.508
300.543
300.575
300.604
300.632
300.657
300.68
300.702
300.724
300.744
300.765
300.788
300.813
300.843
300.884
300.945
301.039
301.185
301.393
301.659
301.967
302.311
302.694
303.118
303.659
304.467
305.574
300.047
300.13
300.206
300.275
300.338
300.394
300.443
300.487
300.526
300.563
300.596
300.626
300.654
300.68
300.704
300.727
300.749
300.77
300.791
300.814
300.838
300.867
300.904
300.956
301.033
301.153
301.334
301.588
301.909
302.282
302.696
303.142
303.694
304.504
305.613
300.048
300.134
300.213
300.285
300.351
300.409
300.46
300.505
300.546
300.584
300.618
300.649
300.678
300.705
300.73
300.753
300.775
300.797
300.819
300.842
300.867
300.896
300.932
300.981
301.051
301.155
301.312
301.543
301.855
302.242
302.685
303.156
303.722
304.54
305.654
300.05
300.139
300.221
300.297
300.365
300.425
300.478
300.525
300.568
300.606
300.642
300.674
300.704
300.731
300.757
300.781
300.804
300.826
300.849
300.873
300.899
300.929
300.967
301.018
301.088
301.188
301.333
301.544
301.841
302.227
302.686
303.177
303.76
304.591
305.713
300.052
300.145
300.231
300.31
300.381
300.443
300.498
300.546
300.59
300.63
300.667
300.7
300.731
300.759
300.785
300.81
300.834
300.857
300.88
300.905
300.932
300.964
301.005
301.06
301.137
301.243
301.39
301.595
301.881
302.262
302.726
303.226
303.822
304.667
305.796
300.054
300.152
300.242
300.325
300.398
300.462
300.518
300.567
300.613
300.654
300.692
300.726
300.758
300.787
300.814
300.839
300.863
300.887
300.911
300.937
300.965
300.999
301.044
301.105
301.191
301.31
301.469
301.682
301.968
302.346
302.807
303.307
303.908
304.764
305.894
300.057
300.16
300.254
300.34
300.416
300.481
300.538
300.589
300.635
300.677
300.716
300.752
300.784
300.814
300.842
300.868
300.893
300.918
300.942
300.969
300.998
301.034
301.081
301.147
301.242
301.375
301.553
301.782
302.078
302.457
302.914
303.405
304.005
304.866
305.989
300.059
300.167
300.266
300.355
300.432
300.498
300.556
300.608
300.656
300.699
300.74
300.776
300.81
300.841
300.869
300.896
300.922
300.947
300.973
300.999
301.029
301.066
301.114
301.183
301.283
301.427
301.622
301.871
302.183
302.568
303.019
303.502
304.097
304.955
306.067
300.062
300.175
300.277
300.369
300.448
300.515
300.574
300.627
300.676
300.721
300.762
300.8
300.835
300.866
300.896
300.924
300.95
300.976
301.002
301.029
301.06
301.096
301.144
301.213
301.314
301.462
301.667
301.933
302.262
302.656
303.107
303.583
304.172
305.022
306.123
300.064
300.181
300.288
300.382
300.463
300.531
300.59
300.645
300.695
300.741
300.784
300.823
300.858
300.891
300.922
300.951
300.978
301.005
301.031
301.059
301.09
301.126
301.173
301.24
301.338
301.483
301.69
301.965
302.308
302.715
303.169
303.643
304.228
305.07
306.161
300.067
300.188
300.298
300.395
300.477
300.546
300.606
300.662
300.713
300.761
300.805
300.845
300.882
300.916
300.948
300.977
301.005
301.033
301.06
301.089
301.12
301.157
301.204
301.269
301.362
301.501
301.703
301.978
302.329
302.746
303.208
303.686
304.268
305.105
306.191
300.069
300.195
300.308
300.407
300.49
300.56
300.622
300.678
300.731
300.781
300.826
300.868
300.906
300.941
300.973
301.004
301.033
301.061
301.09
301.12
301.152
301.19
301.237
301.301
301.393
301.527
301.721
301.991
302.341
302.765
303.236
303.718
304.302
305.137
306.222
300.071
300.201
300.317
300.418
300.502
300.573
300.636
300.694
300.749
300.8
300.847
300.89
300.93
300.966
300.999
301.03
301.061
301.09
301.12
301.15
301.184
301.223
301.272
301.338
301.43
301.562
301.753
302.017
302.363
302.788
303.264
303.751
304.338
305.175
306.26
300.073
300.206
300.326
300.429
300.514
300.586
300.65
300.71
300.766
300.819
300.867
300.912
300.952
300.99
301.024
301.057
301.088
301.118
301.149
301.181
301.216
301.258
301.309
301.376
301.471
301.606
301.798
302.062
302.406
302.829
303.305
303.793
304.383
305.221
306.3
300.075
300.212
300.334
300.439
300.526
300.599
300.664
300.725
300.782
300.836
300.886
300.932
300.974
301.013
301.048
301.082
301.114
301.146
301.178
301.211
301.248
301.291
301.344
301.414
301.512
301.651
301.849
302.118
302.466
302.889
303.362
303.848
304.435
305.265
306.324
300.077
300.217
300.342
300.449
300.538
300.612
300.678
300.739
300.798
300.853
300.904
300.951
300.995
301.035
301.072
301.107
301.14
301.173
301.206
301.24
301.279
301.323
301.377
301.449
301.548
301.69
301.892
302.168
302.524
302.952
303.423
303.903
304.481
305.287
306.312
300.078
300.222
300.35
300.46
300.55
300.626
300.692
300.754
300.813
300.868
300.921
300.969
301.014
301.055
301.094
301.13
301.165
301.199
301.233
301.269
301.308
301.353
301.408
301.479
301.577
301.716
301.916
302.193
302.555
302.988
303.459
303.933
304.493
305.263
306.251
300.08
300.227
300.358
300.47
300.562
300.639
300.706
300.769
300.827
300.883
300.936
300.985
301.031
301.074
301.114
301.152
301.188
301.224
301.259
301.296
301.336
301.382
301.437
301.506
301.6
301.732
301.921
302.187
302.542
302.973
303.442
303.908
304.449
305.187
306.147
300.082
300.232
300.366
300.481
300.575
300.653
300.721
300.783
300.842
300.898
300.951
301.001
301.048
301.092
301.134
301.173
301.211
301.248
301.285
301.323
301.365
301.411
301.465
301.533
301.621
301.743
301.916
302.161
302.493
302.907
303.365
303.821
304.348
305.068
306.024
300.083
300.237
300.374
300.492
300.588
300.667
300.736
300.799
300.858
300.914
300.967
301.017
301.065
301.11
301.153
301.194
301.233
301.272
301.311
301.351
301.393
301.441
301.496
301.562
301.646
301.759
301.916
302.136
302.438
302.822
303.258
303.701
304.218
304.94
305.914
300.085
300.242
300.383
300.503
300.602
300.682
300.752
300.816
300.875
300.931
300.983
301.033
301.082
301.128
301.172
301.214
301.255
301.295
301.336
301.378
301.423
301.472
301.528
301.595
301.677
301.784
301.929
302.129
302.401
302.753
303.161
303.588
304.099
304.833
305.837
300.087
300.248
300.392
300.516
300.616
300.699
300.77
300.834
300.893
300.948
301
301.05
301.099
301.145
301.19
301.234
301.277
301.319
301.362
301.406
301.453
301.505
301.563
301.632
301.715
301.82
301.958
302.145
302.396
302.72
303.103
303.513
304.019
304.769
305.804
300.089
300.254
300.402
300.529
300.632
300.716
300.788
300.853
300.912
300.967
301.019
301.069
301.117
301.163
301.209
301.254
301.298
301.342
301.387
301.433
301.483
301.538
301.599
301.671
301.757
301.863
302
302.181
302.42
302.725
303.087
303.484
303.986
304.748
305.81
300.092
300.261
300.413
300.543
300.648
300.733
300.807
300.872
300.932
300.987
301.039
301.088
301.136
301.183
301.229
301.275
301.32
301.365
301.412
301.46
301.513
301.57
301.636
301.712
301.802
301.913
302.052
302.232
302.465
302.76
303.108
303.495
303.994
304.765
305.846
300.094
300.268
300.424
300.557
300.664
300.751
300.826
300.892
300.953
301.008
301.059
301.108
301.156
301.202
301.249
301.295
301.341
301.388
301.436
301.486
301.541
301.602
301.672
301.752
301.848
301.964
302.108
302.291
302.524
302.813
303.152
303.532
304.03
304.807
305.899
300.096
300.275
300.435
300.572
300.681
300.769
300.845
300.912
300.973
301.029
301.08
301.129
301.176
301.223
301.269
301.316
301.363
301.41
301.459
301.511
301.568
301.632
301.705
301.791
301.892
302.015
302.165
302.354
302.589
302.876
303.209
303.585
304.083
304.864
305.962
300.099
300.283
300.447
300.586
300.698
300.788
300.864
300.932
300.994
301.049
301.101
301.149
301.196
301.243
301.29
301.337
301.384
301.432
301.482
301.535
301.594
301.66
301.736
301.825
301.932
302.061
302.219
302.414
302.653
302.941
303.271
303.644
304.143
304.926
306.025
300.102
300.29
300.459
300.602
300.716
300.807
300.885
300.953
301.015
301.071
301.122
301.17
301.217
301.264
301.311
301.359
301.406
301.455
301.505
301.559
301.618
301.686
301.764
301.857
301.968
302.103
302.268
302.469
302.714
303.003
303.332
303.704
304.203
304.988
306.085
300.104
300.298
300.471
300.618
300.734
300.827
300.906
300.975
301.037
301.093
301.143
301.191
301.239
301.286
301.333
301.381
301.429
301.478
301.528
301.582
301.642
301.71
301.789
301.883
301.998
302.138
302.308
302.516
302.766
303.057
303.386
303.758
304.258
305.042
306.138
300.107
300.307
300.485
300.635
300.754
300.849
300.929
300.999
301.061
301.116
301.166
301.214
301.261
301.309
301.357
301.405
301.454
301.503
301.554
301.607
301.666
301.734
301.813
301.908
302.024
302.167
302.341
302.554
302.809
303.103
303.433
303.805
304.306
305.091
306.183
300.11
300.315
300.498
300.653
300.776
300.872
300.954
301.024
301.086
301.14
301.189
301.236
301.284
301.332
301.382
301.431
301.481
301.53
301.581
301.635
301.693
301.76
301.838
301.932
302.048
302.191
302.368
302.584
302.842
303.14
303.47
303.843
304.346
305.131
306.222
300.113
300.324
300.514
300.674
300.8
300.899
300.981
301.053
301.114
301.167
301.214
301.261
301.308
301.357
301.408
301.459
301.511
301.561
301.613
301.667
301.725
301.79
301.866
301.959
302.072
302.214
302.391
302.609
302.869
303.169
303.501
303.875
304.379
305.167
306.261
300.117
300.335
300.53
300.696
300.825
300.927
301.012
301.083
301.144
301.195
301.241
301.286
301.333
301.383
301.436
301.49
301.544
301.597
301.65
301.704
301.762
301.827
301.902
301.992
302.103
302.242
302.417
302.633
302.894
303.194
303.527
303.903
304.41
305.205
306.308
300.12
300.346
300.549
300.719
300.853
300.958
301.044
301.116
301.176
301.225
301.269
301.312
301.358
301.41
301.465
301.523
301.58
301.637
301.692
301.749
301.808
301.873
301.947
302.036
302.144
302.28
302.452
302.667
302.926
303.225
303.558
303.936
304.45
305.259
306.378
300.124
300.358
300.568
300.744
300.882
300.99
301.078
301.15
301.209
301.257
301.298
301.339
301.384
301.436
301.495
301.557
301.619
301.681
301.741
301.802
301.864
301.931
302.006
302.094
302.202
302.336
302.505
302.717
302.974
303.271
303.603
303.984
304.509
305.337
306.475
300.129
300.371
300.588
300.77
300.911
301.022
301.111
301.185
301.244
301.289
301.328
301.366
301.409
301.462
301.524
301.591
301.66
301.728
301.796
301.862
301.93
302.002
302.08
302.171
302.28
302.415
302.584
302.794
303.048
303.342
303.672
304.057
304.596
305.445
306.599
300.133
300.383
300.607
300.795
300.94
301.053
301.145
301.219
301.277
301.322
301.357
301.392
301.434
301.486
301.55
301.622
301.698
301.775
301.852
301.927
302.004
302.083
302.168
302.265
302.378
302.517
302.688
302.898
303.149
303.439
303.767
304.155
304.708
305.575
306.735
300.137
300.395
300.627
300.819
300.968
301.083
301.177
301.253
301.311
301.354
301.387
301.418
301.456
301.506
301.571
301.647
301.731
301.817
301.905
301.992
302.081
302.171
302.267
302.373
302.495
302.639
302.815
303.026
303.275
303.56
303.883
304.274
304.837
305.712
306.866
300.141
300.407
300.644
300.841
300.993
301.112
301.208
301.285
301.344
301.386
301.417
301.444
301.477
301.524
301.586
301.664
301.753
301.849
301.948
302.049
302.151
302.256
302.365
302.484
302.617
302.77
302.951
303.164
303.411
303.691
304.009
304.4
304.968
305.839
306.975
300.145
300.417
300.66
300.862
301.017
301.138
301.237
301.316
301.376
301.418
301.447
301.471
301.499
301.539
301.597
301.674
301.765
301.867
301.976
302.089
302.207
302.327
302.453
302.586
302.731
302.895
303.082
303.297
303.542
303.817
304.13
304.518
305.083
305.94
307.053
300.148
300.427
300.675
300.88
301.039
301.163
301.265
301.346
301.407
301.45
301.478
301.499
301.522
301.555
301.606
301.678
301.767
301.871
301.986
302.11
302.24
302.376
302.518
302.666
302.825
302.999
303.193
303.41
303.652
303.922
304.23
304.613
305.171
306.011
307.099
300.151
300.435
300.688
300.897
301.059
301.187
301.291
301.375
301.439
301.482
301.51
301.529
301.547
301.573
301.616
301.68
301.764
301.866
301.983
302.113
302.253
302.401
302.558
302.721
302.893
303.077
303.277
303.497
303.737
304.003
304.305
304.682
305.231
306.051
307.118
300.154
300.443
300.7
300.914
301.08
301.211
301.318
301.405
301.471
301.516
301.543
301.56
301.574
301.595
301.63
301.684
301.761
301.857
301.972
302.102
302.247
302.405
302.573
302.749
302.934
303.128
303.335
303.557
303.796
304.059
304.355
304.726
305.265
306.067
307.114
300.157
300.451
300.713
300.932
301.102
301.236
301.346
301.436
301.503
301.55
301.578
301.594
301.605
301.62
301.647
301.693
301.761
301.85
301.959
302.086
302.232
302.394
302.57
302.757
302.953
303.157
303.371
303.597
303.837
304.097
304.389
304.753
305.282
306.066
307.095
300.159
300.459
300.727
300.95
301.124
301.262
301.376
301.468
301.537
301.585
301.614
301.629
301.638
301.648
301.668
301.706
301.764
301.845
301.946
302.068
302.21
302.372
302.552
302.747
302.952
303.166
303.387
303.618
303.859
304.118
304.406
304.764
305.283
306.051
307.064
300.162
300.468
300.743
300.971
301.149
301.29
301.406
301.501
301.573
301.622
301.652
301.667
301.673
301.679
301.694
301.724
301.774
301.845
301.938
302.052
302.188
302.347
302.527
302.725
302.937
303.159
303.389
303.624
303.869
304.127
304.412
304.764
305.274
306.025
307.025
300.166
300.478
300.758
300.991
301.173
301.318
301.437
301.534
301.608
301.66
301.691
301.705
301.71
301.713
301.723
301.747
301.789
301.851
301.935
302.04
302.167
302.319
302.495
302.692
302.908
303.135
303.371
303.612
303.86
304.118
304.4
304.748
305.249
305.988
306.98
300.169
300.489
300.775
301.013
301.198
301.345
301.468
301.567
301.644
301.698
301.73
301.745
301.749
301.75
301.755
301.773
301.809
301.864
301.939
302.034
302.152
302.294
302.462
302.655
302.87
303.1
303.341
303.587
303.838
304.097
304.378
304.722
305.217
305.948
306.936
300.173
300.5
300.792
301.033
301.222
301.372
301.497
301.6
301.679
301.735
301.769
301.785
301.789
301.787
301.789
301.803
301.833
301.882
301.95
302.037
302.145
302.275
302.432
302.615
302.824
303.053
303.294
303.543
303.795
304.056
304.336
304.679
305.171
305.902
306.895
300.177
300.51
300.808
301.054
301.245
301.398
301.526
301.631
301.714
301.772
301.809
301.826
301.829
301.826
301.825
301.834
301.86
301.905
301.969
302.05
302.15
302.27
302.414
302.586
302.785
303.007
303.247
303.496
303.75
304.012
304.293
304.636
305.131
305.865
306.865
300.18
300.521
300.824
301.074
301.268
301.424
301.554
301.662
301.747
301.809
301.847
301.866
301.87
301.866
301.862
301.867
301.888
301.93
301.991
302.069
302.163
302.275
302.409
302.568
302.754
302.966
303.198
303.444
303.697
303.958
304.24
304.585
305.083
305.827
306.837
300.184
300.53
300.839
301.094
301.291
301.45
301.583
301.694
301.781
301.845
301.886
301.907
301.911
301.906
301.899
301.899
301.916