/*--------------------------------*- C++ -*----------------------------------*\
| =========                 |                                                 |
| \\      /  F ield         | OpenFOAM: The Open Source CFD Toolbox           |
|  \\    /   O peration     | Version:  v1912                                 |
|   \\  /    A nd           | Website:  www.openfoam.com                      |
|    \\/     M anipulation  |                                                 |
\*---------------------------------------------------------------------------*/
FoamFile
{
    version     2.0;
    format      ascii;
    class       volScalarField;
    location    "6/oil";
    object      wallHeatFlux;
}
// * * * * * * * * * * * * * * * * * * * * * * * * * * * * * * * * * * * * * //

dimensions      [1 0 -3 0 0 0 0];


internalField   uniform 0;

boundaryField
{
    maxY
    {
        type            calculated;
        value           uniform 0;
    }
    minX
    {
        type            calculated;
        value           uniform 0;
    }
    maxX
    {
        type            calculated;
        value           uniform 0;
    }
    minY
    {
        type            calculated;
        value           uniform 0;
    }
    minZ
    {
        type            calculated;
        value           uniform 0;
    }
    maxZ
    {
        type            calculated;
        value           uniform 0;
    }
    oil_to_sphere
    {
        type            calculated;
        value           nonuniform List<scalar> 
1536
(
27179.8
27090
27129.3
26881.4
26798.9
27051.2
27005
26986.2
26964.3
26850.2
26826.5
26842.8
26950.7
26899.6
26721.6
26969.1
27068.9
27134.2
26959.3
26953.9
27018.9
26950.4
26979.9
26969.6
26991.1
26975.2
26962.9
26952.2
27081.2
26986.4
27114.1
27079.1
27093.8
26942.5
26959.4
26932.7
26920.4
26882
26928.1
26942.3
26914.4
26944.7
26964.5
27014.1
27050.1
26938
27138.1
27087.8
26683.8
26988
27013.9
26972.7
27078.5
26939.1
27078.3
27166.9
26961.9
26958.6
27036.1
26992.5
26980.4
26947
26993.3
26939.2
26969.8
26964.1
26949.5
27029.9
26998.7
27054.9
26948.8
26938.3
26917.4
26979.3
26962.7
27174.4
27091
26962.8
26971.2
27150.5
27020.6
27038.7
26820.2
26804.2
27087.4
27189.5
26885.7
26945
27008.1
26997.6
27025.9
26933.2
26947.1
26933.3
26966
27003.3
27074.9
27066.4
27080.5
26991.7
27030.5
26941.5
27214.5
27026.9
26924.5
26970.5
26959.6
26903.9
26933.3
27253
27081.2
27002.7
26949.5
27010.8
26823.4
26895.9
26832.2
27157
27197.9
27114.3
26976
27004.9
26930.5
27065.1
27093.1
27088.8
26949.2
26910.8
27071.1
26992.4
26975.2
26992.1
27072.7
26929.9
26959.5
27043
27000.8
27154.3
26917.2
27066.5
26954.8
27006.3
27008.9
26959.7
26939.9
26962.3
26937.6
27460.1
27294.9
27209
27017.2
27401.6
26952.5
26967.9
26887.6
27229
27000.3
27305
27295
27468.4
27073.5
27527
26780.8
26812.7
26933.4
26907.3
27007.7
27287.6
27021.3
27352.2
26991.1
26999.9
26989.4
27118.7
27146.3
27098.2
27184.7
27290.3
27443.1
27164.8
26836.8
26787.8
26812.3
26809.9
27305.9
27207.2
27479.7
26977.8
26978.8
27149.8
26996.4
27124.6
27074.7
27127.3
26864.9
26774.2
27148.9
27140
27161.4
26921.2
26999.2
26984.9
27183.5
27154.4
27052.6
27053.6
27081.3
27219.1
27131.4
27307.9
26887.4
26968.9
26966.9
27124.2
27136.6
27238.3
27307.7
26895
26882
26809.5
27120.9
27101.4
27020.6
27022.7
27048.7
27274.4
27137.7
27127.5
27140.6
26907.1
26954.7
26827.8
26921.2
27250.4
27143.5
27189.8
27074.3
27044.6
27088.3
26867.3
26872.3
27307
27115.3
26936.3
26925.4
26787.3
27074.3
27332.4
27288.9
27556.1
27028.4
26844.7
26784.6
26991.8
27395.1
26936.1
26939.8
26762.4
26934.6
27256
27258.4
27102.1
26971.6
27107.5
27558.1
26951.5
26766.3
27149.6
27245
27191
27040.3
27087.2
27136.5
26846.5
26933.4
27155.1
27085
27341
26993.1
27153.3
27248.5
27099.8
27086
27142.5
27000.2
26967.4
27041.2
26867.4
26927.2
27144.7
27208.8
27376.3
26974.1
26976.1
27015.7
26979.1
27096
27035.2
26913.4
26797.3
26910.5
26844.9
26897.9
27226.6
27149.8
27162.7
27641.5
26798.1
26805.8
27255.2
27192.7
27534.9
26987
27026.9
26971.8
27092.7
26975.9
27078.6
27088.4
27181.6
27052.4
27025.8
27108.1
26890.2
27151.5
27162
27085.8
27105
26840.4
27237.1
27330.3
27255.7
26830.4
26996.9
27073.5
27098.6
27075.8
27035.3
26846.1
27145
27439.7
27137
27166.8
27007.2
27040.7
27019.5
26900.2
27111.9
27143.2
26882.1
26846
26871.6
27252
27199.8
27203.8
27027.9
27061.5
27256.3
26853.6
27244.1
27148
27007.9
27044.9
26873
27243.2
27177.9
26886.1
27006.2
26989.7
26984.4
27115.5
27153
26960.7
27000.2
26843.5
27231.1
27140.3
26874.2
27268
27302.5
27143.2
27215.1
27004.1
27114.6
26951.9
26813.9
27102.1
27529.8
27157.7
27396.2
27095.7
26982.8
27093.9
26955.4
27077.4
27181.7
27151.6
27118
27009.1
26973.2
26841.8
27171.3
27426.3
27140.9
27060.9
26995.3
27072.4
27090.1
27099.4
27055.4
27019.2
26997
27040.9
26978.8
26908.5
26936.2
26971.7
27012.7
26806.4
26980.3
27379.5
26979.7
26967.1
27165.4
27139.2
27063.2
26991.4
26839.8
27150.3
27160
27097.4
27097.6
27087.3
27063.7
27023.7
27049.5
26826.6
27275.2
27416.8
27216.6
27128.9
27141.1
27048.5
27045
27044.9
26947.4
27034.5
26922.9
26868.7
26912.6
26851.3
27235.9
27223
27121
27547.6
27246
27183.2
26816.3
26822.1
27050.1
27333.4
26830.2
26966.4
26890.7
27228.5
27213
27026.4
27066
27227.6
27187.9
27021
27107
26858.3
27127.4
26802
27223.2
26815.4
27221.1
27197.3
27145.3
27031.9
26835.8
26972.6
27146.6
26975.8
26813
27201.4
27156.2
27422.1
27213.6
27323.2
27123.5
26790.7
26811.4
26725.8
26716.1
26961.8
26918
26944.2
26932.8
27179.2
27271.7
26783.9
26748.6
27178.2
27124.5
27328.8
26984.7
26979.3
27076.9
26800.9
26727.6
26937.5
26937.2
26929.1
26978.4
27153.9
27134.7
27051.3
27028.5
26826.8
26977
27217.3
26935.4
26871.4
27103.8
27186.8
26920.2
26869.2
26880.9
26846.9
26997
27005.1
26967.4
26885.5
26685.7
27175.3
27158.1
27037
27071.1
27262.3
27162.3
27039.2
27087.4
26843.5
26926.9
27166
27100.2
26963.6
26770.9
27027.5
27404.5
27246.9
27033.3
27244.3
27148.8
27312.5
27114.2
26840.5
26878.9
26825.5
26959
26964.9
27109.4
27676
26821.8
26823.7
27282.1
27229.2
27090.7
26941.8
26777.7
27191.1
26959.7
27209.4
27175
27203.5
26800.3
27238.1
27354
26772.8
27356.5
27251.2
27164.3
27344.6
27108
27107.5
27044.1
27264.6
27058.4
27049.5
27048.1
27102.7
27081.6
27040.8
27046.6
26836.4
27120.7
27206.7
27124.9
27160.8
27186.5
27091
27086.3
26839
27212.8
27239.8
27097.1
27039.7
27074.1
27238.9
27234.7
26823
26796.3
27284.1
27258.6
27215.7
27017.1
27034.4
27132.4
26796.9
26693.4
26941.5
26933.2
26952.2
26807.6
26837.4
27352.5
27199.9
27167.6
27265.3
27173.7
27372
27278
27182.9
26716.4
26696.2
27001.1
27155.5
27008.8
26968.2
26786.2
26964.1
27285.3
26952.3
27566.9
26885
27149
27389.9
27086.1
27242
27299.2
27175.4
27095.4
27057.5
27043.2
27130.8
27011.8
27028.3
27106.8
27064.4
27155.4
27110.8
27150.2
26945.6
26919
26800.3
26729.6
26893
26735.3
27016.5
26990.3
27007.1
27053.6
26879.7
26837.6
26969.5
27206
27309.9
26970
26814.8
26981.6
27201.2
27302.9
26996.9
26859.9
26883
27118.3
27167.2
26989.4
27027.2
27118.5
27162.4
27231.6
27114.1
27041.3
26986.1
26829.7
26794.6
27282.5
27281.4
27223.8
26954.2
27294.6
27305.9
27291.9
26969.8
26994
26912.1
26966.7
26967.9
26931.6
27016.6
26806.1
26948.1
27232.6
26984.4
26892.5
27273
27153.9
27027.7
27065.9
27429.4
27418.5
26788
27108.1
27208.7
27067.9
26955.9
27034
26985.6
27109.6
27293.7
27126.6
26892.7
27122
27096.9
27078.5
27100.1
27013.3
27049.8
27058
26997.1
26850.3
26835.7
26882.4
27175.9
26951
26823
26951.8
27194
26990.2
27217.3
27191.6
27088.5
27040.7
27122
27219.6
26877.5
27074.7
27254.8
27160.9
27076
26937.5
27045.4
27141.3
27181.3
26912.1
27053.1
27096.2
27181.4
27035.3
27187
27216.4
26886.9
26968.7
26959.7
27259.7
27144
27002.8
27181.9
26941.6
26985.5
27179.7
27242.3
27188.8
26862
27131
27184.8
27016.9
27105.1
27148.9
26947.5
26806.4
27015.5
27215.9
27406.6
27022.6
27000.2
27010.3
27087.4
27154.4
26987.6
26970.5
27007.7
27143.4
27098.5
26869.3
26977.1
26943.1
27050
27037
27167.6
27114.4
27095.7
26981
27059.5
27053.7
27003
26974.3
26999.4
26969.4
26912.7
27111.6
27054.7
27008.2
27119.1
26795.7
26966.8
27265.5
27225
26944.2
27184.5
27091
27055.3
27012.2
27195.9
27139.5
26835.2
26972.9
26973.5
26981.6
26898
26825.6
26967.7
27198.8
27481.9
26962.7
27155.8
27112.2
27047.3
27013.9
27057.1
27194.2
27240.2
26849.6
26968.1
26966.9
27054.9
27092.3
27208.2
27132.3
27102.8
27163.5
26991.7
27079.4
26982.6
27177
26698.9
27127.7
27144.2
26974.4
26797.3
27156.5
27099.2
27194.7
26971.3
27098.7
27073.4
26818.7
27294.7
26916.8
27015.6
26990.6
26844.5
27196.9
27001.9
27054
27199
27005
26962.7
27176.5
26961
26979.2
26791.8
27284.8
26937.1
26994.2
27193.9
27357
26933.5
27014.4
27278.8
26941.6
27114.8
26974.6
27064.8
26912.1
27001.6
27276
26807.6
27427.2
26815
27232.5
26914
26962.7
26914.6
27033.3
27249.4
26803
27181.4
26834.7
27366.4
27242.3
26826.7
27222
26856.2
26840.4
26806.9
26922.5
26987.1
26998.8
27033.1
26981.5
27237.1
27272.8
26847
27265.2
27008.3
26973.2
26994
27003.9
27072.1
26994.7
27115.7
27032.9
27087.5
26996
27087.4
27171.6
26960
27028.2
27133.1
26975.9
27093.6
27044
27047
26998.8
27081.5
26980.6
27120.1
26970.1
27017.3
26841.9
27318.2
26795.6
27289.4
27194.1
27143.3
26946.1
27010.7
26958
26972.2
27143
27058.7
27130.9
26924.7
26760.5
27454.6
26815.5
27252.3
26969.5
27019.2
27370.9
26722.9
27550.1
27095.5
26819.3
27176.3
27082.7
27057.2
27077.8
26750.7
27134.9
27144.7
26957
26947.9
27239
27235.2
27017.6
26965.4
27229.1
26782.5
27265.7
26953.6
27060
26799.2
27566.8
27213.3
27113.7
27094.7
27129
27197.8
27080.3
26745.7
26902.8
27091.7
26957.6
27282.5
26781.7
27266.7
27218.5
26619.6
27152.7
27069.2
26739.9
27493.3
26831.2
27218.3
27306.9
27199.6
26666.2
27061.9
27019.9
27137.3
27098.6
27188.3
26755.2
27071.2
26919.9
26937.5
27281.1
27067.3
27256.9
27046.1
27073.6
27019.3
27019.5
27024.3
27013.2
27151.8
26968
27016.7
26946.7
27167.4
27197.6
26982.7
26979.4
26968.5
27060.3
26945.1
26928.9
26989.7
27004.5
27019.1
27117.8
27176
27212.8
26750
26904.6
27368.7
26684.9
27069.2
27151
27000.2
27027.7
27463.6
26765.9
27117.3
27208.4
26698.8
27009.9
27029.8
27195.8
26745.4
27148.4
27325.1
26679.7
27124.9
27264
26732.1
27137.8
27237.8
26738.4
27001.2
26979.3
26786
27016.1
27037.1
27073.7
26947.3
27189.6
26786.9
26908.7
27040.9
26815.8
27179
26855.7
27219.9
27089.6
26749.5
27098.5
27242
26745.6
27003.3
27018.5
26731.2
26841.7
27567.4
26663.5
26927.5
27276.8
26800.1
27178
27130.7
27022.6
26971.1
27064.6
26901.2
26716.8
27019.5
26943.7
26975.5
27023.6
26718.1
27243.9
26946.6
27008.5
26917.7
26996.4
27027
26935.2
26740.2
27018.3
27266.7
26927.6
26996.8
27061.8
26940.2
27018.3
26759.6
27049.5
27317.2
26910.6
27030.2
26948.3
26765.9
27330.5
27380.5
27133.4
27303.7
26720.5
26708.7
27101.5
27366.9
27034.3
27110
27135.2
26923.9
26865.6
26925
26958.9
26902.5
27009.5
26995.3
26989.3
26940.7
27114.9
27130.3
26737
26818.6
26923.1
27130.6
26924.8
26766.9
27407.7
26992.5
27132.8
26709.7
27102.9
27227.9
26958.6
26987.4
27130
27017.4
26876.8
27219.1
26676.3
27181
27202.1
26950.3
26971.4
27222
27164
27097.4
26898.2
27203.4
27016.1
27046.1
27117.9
27155.6
27132.4
27146.9
27239.2
27245.2
27191.3
27188.2
27307.1
27161.6
26964.1
27017.7
27014.5
26861.9
26721.5
27223.4
27195.9
27147.7
26978.9
27028.6
27023.3
26936.4
27062.1
27141.6
26918.4
27009
27111.1
27017.7
26970.4
26944.4
26980.6
26908.6
26969.1
26966.2
26785.7
27227.4
26953.7
27000.5
26693.5
27350.8
27007.6
26938.3
26922.5
26789
27055.7
26948.9
26747.3
26973.4
26989.1
26907.7
26843.7
27221.8
27254.1
26983.7
26973.2
27148.7
27183.2
26740.8
27144
26925.4
26960.9
26970.8
26980.4
27005.8
26915.1
26699.9
27294.6
26972.9
26884.4
26909
26945.9
27023.7
26816.6
27175.2
27010.7
26959.9
27183.7
26904.4
26766.3
27018
26952.7
26956.6
26707.2
27230
26991
26933.6
26962.4
26745.8
27050.9
26970.8
26779.1
27040.9
26969
27071.1
27141.8
27000.3
27102.3
27023.6
26950.4
26933.9
26976.9
26737.2
27188.5
27227.6
26963
26750.1
26922.9
27003.5
27006.3
26969.9
26741.4
26982
27129
27113.9
27035.5
27224.3
26842.6
27279.7
26724.8
26869.5
27327.9
26802.5
27145
27104.6
27018.9
26966
27310.4
26878.6
26993
27128
27262.1
26722
27158.2
27204.2
26702
27372.2
26918.5
26723.1
27378.6
26918.9
26944.9
26949.8
26998.9
26983.6
26947.7
26966
26700.5
27287.9
27086.3
27008.7
27017.1
26970.9
26933.9
26930.8
27343.5
26721.6
26919.9
27228
26815.1
27170
27168.3
27291.5
27169.3
27278.3
26828.6
27389.2
27085.9
27186.9
26950.3
27126.3
26918.1
26832.1
27270.1
26815.6
27123.2
27307.6
27178.1
26726.2
27278
27182.4
26949.5
26952.7
26992.3
26946.3
26724.6
27385.6
26713.1
27380.9
26969.9
26919.2
27105.4
27180
27084.1
27306.5
26995.6
27167.4
27249.9
27112.8
26957.2
27167.2
27098.1
27172.1
26967.6
26928.8
26795
26970.3
27166.2
27244.4
26663.6
26916.4
26920.9
26953.5
26986.3
26883.1
27386.3
26959.6
26887.3
26693.4
27116.6
26938.5
26634.1
27107.7
26966.5
26929.8
26956.2
26960.4
26704.4
26837.2
26721.1
27043.4
27348.4
27078.2
27221.3
27198.6
26925
26884.3
26785.8
26841
27271.7
27141.5
27241
27126.6
26876.7
26833.2
26890.3
26783.1
27150
27197.1
26923.5
27104.8
27232.5
27128.4
27250.1
27029.1
27017.5
26922.2
26654.4
26920.3
26795.7
27045.4
26957.3
26963.1
26750.3
26737
27102.4
27140
27319.4
27182
27005.3
27049.1
27061.9
27068.6
26976.8
27015.4
26909.5
26987.3
26986.9
26711.3
27305.4
27009.5
26923.2
26764.2
27033.1
26997.8
26995.4
26976.6
26770.8
27203.8
27058.7
26952.3
27211.4
26897
26714.7
27274.3
27023.6
26988.7
26975.1
26946.1
26658.2
27226.3
26982.8
26715.5
27384.1
26990.4
26742.7
26943.8
26984.1
26996.7
26934.1
26735.7
26958.2
26972.5
26800.4
26965.5
26733.9
26997.6
26995.5
26764
27357.5
26975.1
26791.4
27501.9
26996.2
27009.8
26756.1
26984.1
26731.6
)
;
    }
}


// ************************************************************************* //
