/*--------------------------------*- C++ -*----------------------------------*\
| =========                 |                                                 |
| \\      /  F ield         | OpenFOAM: The Open Source CFD Toolbox           |
|  \\    /   O peration     | Version:  v1906                                 |
|   \\  /    A nd           | Web:      www.OpenFOAM.com                      |
|    \\/     M anipulation  |                                                 |
\*---------------------------------------------------------------------------*/
FoamFile
{
    version     2.0;
    format      ascii;
    class       volScalarField;
    location    "69.6/sphere";
    object      T;
}
// * * * * * * * * * * * * * * * * * * * * * * * * * * * * * * * * * * * * * //

dimensions      [0 0 0 1 0 0 0];


internalField   nonuniform List<scalar> 
304
(
463.364
463.392
463.387
463.404
463.363
463.355
463.363
463.392
463.362
463.504
463.504
463.404
463.387
463.499
463.5
463.43
463.392
463.424
463.352
463.391
463.407
463.362
463.393
463.504
463.504
463.433
463.405
463.5
463.5
463.456
463.352
463.424
463.452
463.387
463.363
463.406
463.433
463.368
463.366
463.43
463.456
463.392
463.353
463.387
463.341
463.351
463.364
463.364
463.366
463.398
463.364
463.364
463.398
463.366
463.351
463.365
463.368
463.365
463.398
463.392
463.392
463.406
463.405
463.434
463.433
463.458
463.364
463.407
463.392
463.434
463.405
463.458
463.433
463.365
463.368
463.398
463.365
463.359
463.359
463.391
463.353
463.404
463.352
463.384
463.428
463.455
463.393
463.425
463.389
463.385
463.355
463.455
463.43
463.426
463.395
463.394
463.362
463.354
463.339
463.353
463.351
463.386
463.351
463.386
463.352
463.351
463.338
463.365
463.362
463.363
463.397
463.392
463.404
463.434
463.391
463.407
463.433
463.459
463.364
463.434
463.405
463.408
463.392
463.459
463.433
463.365
463.363
463.397
463.364
463.404
463.391
463.433
463.392
463.434
463.407
463.458
463.362
463.433
463.392
463.434
463.392
463.458
463.407
463.428
463.353
463.394
463.404
463.455
463.384
463.426
463.389
463.395
463.355
463.456
463.405
463.427
463.385
463.353
463.353
463.386
463.352
463.424
463.351
463.382
463.424
463.451
463.381
463.399
463.392
463.382
463.35
463.451
463.424
463.4
463.382
463.386
463.353
463.351
463.362
463.364
463.397
463.368
463.407
463.434
463.459
463.362
463.391
463.405
463.434
463.391
463.459
463.433
463.391
463.36
463.433
463.402
463.396
463.363
463.364
463.435
463.407
463.458
463.366
463.407
463.393
463.434
463.392
463.458
463.407
463.404
463.364
463.433
463.392
463.456
463.385
463.426
463.391
463.431
463.356
463.396
463.405
463.427
463.385
463.43
463.389
463.395
463.355
463.385
463.352
463.353
463.451
463.382
463.4
463.393
463.425
463.351
463.383
463.425
463.4
463.383
463.425
463.394
463.383
463.354
463.354
463.352
463.354
463.354
463.362
463.366
463.397
463.363
463.396
463.364
463.363
463.35
463.37
463.366
463.399
463.366
463.434
463.434
463.458
463.366
463.392
463.393
463.407
463.404
463.458
463.433
463.391
463.362
463.407
463.391
463.398
463.365
463.364
463.395
463.357
463.362
463.456
463.395
463.426
463.389
463.405
463.354
463.385
463.429
463.427
463.396
463.404
463.388
463.385
463.355
463.36
463.355
463.359
463.341
463.387
463.353
463.354
463.354
463.353
463.354
)
;

boundaryField
{
    sphere_to_oil
    {
        type            compressible::turbulentTemperatureCoupledBaffleMixed;
        refValue        nonuniform List<scalar> 
360
(
334.148
334.148
322.677
357.69
365.466
325.175
366.509
366.509
366.509
344.796
344.796
328.932
333.223
321.086
343.962
353.547
349.679
349.679
349.679
322.577
348.533
326.725
330.292
360.274
317.366
360.519
322.855
360.48
360.48
360.48
367.102
359.378
322.612
322.263
328.713
328.804
350.609
350.609
350.609
349.922
353.219
326.888
327.892
334.598
334.598
322.676
330.772
314.707
333.535
360.857
325.099
325.201
332.595
333.105
322.377
326.512
350.215
322.702
327.986
335.446
319.717
361.669
361.669
361.669
314.753
360.196
333.438
324.298
365.002
365.002
365.002
365.967
364.618
320.208
349.053
343.284
322.21
329.475
353.233
350.714
331.076
322.693
330.74
319.563
322.588
324.772
328.95
332.977
321.723
322.828
322.795
332.056
328.58
322.941
331.72
328.61
329.14
329.151
325.179
317.334
317.451
322.477
325.129
328.578
331.996
322.379
320.994
333.159
324.854
329.121
329.134
328.971
325.11
322.569
314.936
314.896
329.235
324.474
330.378
333.983
333.983
357.69
357.69
360.274
360.274
358.22
358.22
358.22
359.637
359.637
359.637
329.697
324.714
329.183
323.499
365.466
365.466
341.078
341.078
367.102
367.102
340.321
340.321
366.407
366.407
366.407
323.143
322.803
354.051
354.051
354.051
353.88
353.88
353.88
353.547
348.533
343.962
353.547
353.488
322.634
353.488
353.488
330.31
331.112
322.801
326.816
326.816
354.577
354.577
354.577
319.698
348.533
326.725
353.673
353.673
319.552
353.673
331.084
322.693
314.78
322.857
323.181
331.349
317.254
330.825
323.125
314.83
317.487
360.519
360.519
359.378
359.378
334.977
334.977
357.718
357.718
357.718
333.267
333.267
317.178
328.131
325.445
332.21
328.309
324.86
332.044
324.89
333.237
329.188
324.739
349.922
333.079
329.329
322.721
353.994
353.994
353.994
327.299
327.299
319.577
328.109
327.927
335.316
353.219
326.79
335.216
328.246
349.922
353.219
327.095
322.704
327.095
319.975
314.861
330.7
317.304
323.024
322.906
323.165
317.121
317.1
361.598
356.664
361.598
361.598
356.664
356.664
360.857
360.196
333.535
358.991
317.316
360.857
358.991
358.991
331.477
322.324
328.345
331.945
322.961
365.967
328.424
328.887
328.958
324.997
350.215
349.053
329.161
329.005
325.071
349.743
353.372
326.512
353.592
319.752
350.215
353.592
353.592
335.78
326.764
353.233
328.035
328.11
327.845
353.608
326.719
353.347
326.939
349.743
326.939
353.608
349.743
353.608
314.664
324.548
328.746
328.922
333.84
357.798
333.84
357.798
357.798
317.185
360.196
358.877
333.438
358.877
317.186
358.877
329.833
329.507
321.872
364.028
341.032
364.028
364.028
341.032
322.433
324.814
328.206
331.864
364.618
365.967
340.538
323.161
364.618
340.538
322.408
349.053
353.949
343.284
353.949
321.464
353.949
333.264
350.714
325.085
329.389
353.16
350.333
353.372
342.857
353.372
353.16
342.857
353.16
322.555
330.579
353.233
326.766
319.623
350.714
326.766
322.952
353.347
350.333
353.347
326.926
350.333
326.926
)
;
        refGradient     uniform 0;
        valueFraction   nonuniform List<scalar> 
360
(
0.000137695
0.0001321
8.45716e-05
0.000302122
0.000309853
0.000177675
0.000311779
0.000267622
0.000416561
0.000132632
0.000129314
0.000173479
0.000264387
7.55944e-05
0.000135227
0.000262868
0.000301241
0.000281468
0.000394963
6.91738e-05
0.000259327
0.000127488
0.000117499
0.000311798
9.05273e-05
0.000320492
0.000180657
0.000316353
0.000414008
0.000276944
0.000316405
0.00031913
8.56938e-05
8.47364e-05
0.000177824
0.000174996
0.000296115
0.000401445
0.000275665
0.000414488
0.000409427
8.74247e-05
0.000173407
0.000126558
0.000126406
0.000178506
0.000267061
7.12514e-05
0.000127491
0.00027034
0.000176094
0.000177237
0.00026419
0.000261623
7.3916e-05
0.00013522
0.000275748
7.08096e-05
0.000175418
0.000261584
6.93102e-05
0.000307945
0.000271842
0.00042546
7.14551e-05
0.000277948
0.000129652
0.000125399
0.00031506
0.000411007
0.000276474
0.000396341
0.00040189
7.67573e-05
0.000267969
0.000135941
7.0768e-05
0.0001269
0.00040105
0.000416619
0.000124464
0.000122116
0.000119944
7.12845e-05
8.59599e-05
0.000174273
0.00017525
0.000265396
8.0113e-05
6.76444e-05
8.50725e-05
0.000264962
0.000174917
8.69022e-05
0.000264525
0.000176915
0.000175868
0.00017614
8.58941e-05
6.88484e-05
6.98142e-05
6.8885e-05
0.000177089
0.000174055
0.000264762
7.79501e-05
6.77081e-05
0.000264571
8.40504e-05
0.00017433
0.000174362
0.00017792
8.70011e-05
6.96668e-05
6.79422e-05
6.92549e-05
0.000120548
0.000120693
0.000125381
0.000135958
0.000127782
0.000264027
0.000415925
0.000278171
0.00041975
0.000269062
0.00041366
0.000307995
0.000269279
0.000404656
0.000303326
0.000123723
0.000117004
0.000119841
6.6157e-05
0.000274372
0.000413097
0.000127813
0.000128396
0.000417472
0.00027757
0.000133984
0.000141212
0.000412333
0.000283258
0.000326395
7.28097e-05
6.77576e-05
0.00028599
0.000396312
0.000314137
0.000294463
0.000410034
0.000314104
0.000324303
0.000298723
0.000139734
0.000416504
0.000269036
7.5008e-05
0.000404815
0.000302935
0.000115608
0.000121798
0.000120494
0.000127114
0.000132876
0.000414424
0.000272876
0.000320299
7.67984e-05
0.000398659
0.000136699
0.0004192
0.000268358
7.50154e-05
0.000318193
0.000116634
0.000117717
6.87764e-05
0.000180271
0.000180199
0.000266453
8.88544e-05
0.000266855
0.000175587
6.80702e-05
6.60984e-05
0.00041699
0.000264953
0.000412095
0.000274749
0.000131056
0.000122562
0.000414017
0.000258757
0.000299098
0.000121147
0.000140569
7.0719e-05
0.000177102
0.000176942
0.000264364
0.000173098
0.000173989
0.000263323
9.02559e-05
0.000264226
0.000179157
8.77713e-05
0.000297406
0.000263934
0.000178084
7.09721e-05
0.000404982
0.000262543
0.000307177
0.000127974
0.000118927
6.86955e-05
0.000175728
0.000178683
0.00026493
0.000301215
8.42442e-05
0.000262416
0.000171386
0.000260682
0.000275971
0.000125273
7.03635e-05
0.00013901
7.12338e-05
6.70518e-05
0.000267884
8.93991e-05
0.000180095
0.000178013
0.000175891
8.82753e-05
6.74303e-05
0.000273898
0.000256649
0.000430854
0.000320707
0.000401963
0.000288811
0.000309554
0.00031694
0.00014088
0.000271895
7.32553e-05
0.000413754
0.000402315
0.000305675
0.000266611
8.49525e-05
0.000173479
0.000263546
8.57133e-05
0.000314031
0.00017423
0.000175477
0.000173859
8.51951e-05
0.000311694
0.000292085
0.000177381
0.000172794
8.68355e-05
0.00029266
0.00032214
0.000127758
0.000289182
6.86801e-05
0.000411994
0.00039943
0.000301814
0.000261593
8.59364e-05
0.000302288
0.000174061
0.00017433
0.000175322
0.000303934
8.67416e-05
0.000310531
0.000130665
0.000267735
0.000131755
0.000272831
0.000415774
0.000408172
6.86464e-05
0.00013756
0.000135935
0.000132957
0.000121082
0.000405092
0.000132245
0.00026931
0.000317126
6.7646e-05
0.000409046
0.000408552
0.000133746
0.000290492
7.08903e-05
0.000311428
0.000118574
0.000116486
7.08318e-05
0.00040064
0.000119737
0.000262746
0.000309445
0.000128369
6.99794e-05
0.000174126
0.000174066
0.00026266
0.000300546
0.000260683
0.000126037
6.78432e-05
0.000265049
0.000139983
7.8354e-05
0.000384101
0.000412447
0.000121897
0.000261997
7.26387e-05
0.000329502
0.000264674
0.000317115
8.67506e-05
0.000174876
0.000305738
0.000296408
0.000278854
0.00012464
0.000408479
0.0004076
0.000147957
0.000272456
0.000119876
0.000121715
0.000274294
0.000135782
7.34136e-05
0.000277411
0.000130745
6.77963e-05
0.000403755
0.000408602
0.000268847
0.000130472
0.000264082
0.000134775
)
;
        value           nonuniform List<scalar> 
360
(
463.365
463.366
463.371
463.351
463.353
463.386
463.352
463.358
463.346
463.362
463.363
463.383
463.389
463.371
463.366
463.353
463.336
463.34
463.325
463.364
463.344
463.356
463.342
463.349
463.368
463.349
463.385
463.35
463.342
463.354
463.351
463.348
463.369
463.369
463.382
463.384
463.338
463.327
463.341
463.324
463.326
463.358
463.377
463.365
463.367
463.384
463.391
463.371
463.365
463.354
463.387
463.386
463.389
463.39
463.361
463.353
463.34
463.363
463.377
463.386
463.361
463.35
463.353
463.342
463.372
463.354
463.366
463.352
463.354
463.349
463.358
463.348
463.347
463.374
463.354
463.368
463.369
463.343
463.328
463.325
463.344
463.343
463.344
463.362
463.373
463.386
463.384
463.389
463.367
463.363
463.371
463.391
463.388
463.369
463.391
463.386
463.384
463.381
463.362
463.373
463.373
463.374
463.387
463.387
463.391
463.373
463.369
463.388
463.359
463.379
463.385
463.38
463.362
463.362
463.373
463.373
463.354
463.353
463.354
463.366
463.367
463.355
463.341
463.355
463.341
463.355
463.341
463.35
463.355
463.343
463.351
463.354
463.354
463.354
463.375
463.357
463.346
463.368
463.368
463.346
463.357
463.367
463.367
463.346
463.357
463.35
463.374
463.369
463.347
463.329
463.336
463.346
463.327
463.337
463.338
463.339
463.364
463.328
463.351
463.37
463.329
463.34
463.342
463.342
463.341
463.355
463.352
463.324
463.341
463.335
463.359
463.325
463.351
463.325
463.341
463.359
463.334
463.342
463.341
463.371
463.385
463.384
463.391
463.369
463.391
463.386
463.372
463.372
463.341
463.354
463.341
463.354
463.364
463.366
463.341
463.356
463.35
463.367
463.365
463.373
463.386
463.386
463.391
463.388
463.387
463.391
463.359
463.389
463.379
463.361
463.34
463.389
463.38
463.362
463.328
463.342
463.336
463.355
463.355
463.361
463.377
463.376
463.384
463.336
463.358
463.385
463.378
463.342
463.34
463.355
463.362
463.351
463.36
463.371
463.391
463.368
463.385
463.385
463.385
463.366
463.373
463.353
463.356
463.343
463.349
463.344
463.354
463.347
463.347
463.364
463.354
463.372
463.34
463.341
463.351
463.391
463.373
463.389
463.391
463.371
463.353
463.388
463.38
463.386
463.363
463.339
463.341
463.38
463.385
463.362
463.34
463.338
463.353
463.339
463.361
463.325
463.328
463.337
463.385
463.359
463.337
463.378
463.378
463.378
463.34
463.361
463.339
463.355
463.343
463.353
463.341
463.326
463.328
463.371
463.354
463.355
463.356
463.365
463.343
463.365
463.353
463.352
463.372
463.341
463.34
463.364
463.351
463.371
463.349
463.353
463.354
463.375
463.349
463.37
463.359
463.355
463.37
463.376
463.387
463.389
463.391
463.352
463.359
463.369
463.375
463.356
463.365
463.372
463.332
463.331
463.366
463.352
463.37
463.337
463.389
463.337
463.361
463.381
463.34
463.34
463.349
463.364
463.329
463.329
463.36
463.348
463.343
463.344
463.341
463.353
463.361
463.342
463.355
463.364
463.329
463.327
463.342
463.354
463.343
463.354
)
;
        Tnbr            T;
        thicknessLayers 0();
        kappaLayers     0();
        kappaMethod     solidThermo;
        kappa           none;
        alphaAni        none;
    }
}


// ************************************************************************* //
