/*--------------------------------*- C++ -*----------------------------------*\
| =========                 |                                                 |
| \\      /  F ield         | OpenFOAM: The Open Source CFD Toolbox           |
|  \\    /   O peration     | Version:  v1906                                 |
|   \\  /    A nd           | Web:      www.OpenFOAM.com                      |
|    \\/     M anipulation  |                                                 |
\*---------------------------------------------------------------------------*/
FoamFile
{
    version     2.0;
    format      ascii;
    class       volVectorField;
    location    "57";
    object      U;
}
// * * * * * * * * * * * * * * * * * * * * * * * * * * * * * * * * * * * * * //

dimensions      [0 1 -1 0 0 0 0];


internalField   nonuniform List<vector> 
78750
(
(-0.344942 -0.24596 -0.0988089)
(-0.296418 -0.232736 -0.0976014)
(-0.281488 -0.203909 -0.0919417)
(-0.229741 -0.166504 -0.0864399)
(-0.169873 -0.111669 -0.0806624)
(-0.143587 -0.078613 -0.074595)
(-0.137176 -0.0716941 -0.0729962)
(-0.112338 -0.0508695 -0.0708216)
(-0.100081 -0.0476039 -0.069946)
(-0.0850313 -0.0372918 -0.069079)
(-0.0731341 -0.0324764 -0.0685483)
(-0.0627179 -0.0274049 -0.0681425)
(-0.0530459 -0.0228305 -0.0676849)
(-0.0445172 -0.0187342 -0.0672872)
(-0.0368904 -0.0151884 -0.0669017)
(-0.0300316 -0.0122044 -0.0664874)
(-0.0238042 -0.0097684 -0.066007)
(-0.0180811 -0.00783676 -0.065437)
(-0.0127279 -0.00634017 -0.0647707)
(-0.00761555 -0.00516175 -0.064021)
(-0.00267129 -0.0041012 -0.0632307)
(0.0021344 -0.00293359 -0.0624776)
(0.00679058 -0.00150673 -0.061839)
(0.0112463 0.000214561 -0.0613852)
(0.0154178 0.00217952 -0.0611889)
(0.019202 0.00429917 -0.0613253)
(0.0224697 0.00649247 -0.061867)
(0.0251923 0.00871498 -0.0628856)
(0.0274139 0.0110236 -0.0643105)
(0.0292373 0.0137156 -0.0656204)
(0.0306499 0.0175807 -0.0654874)
(0.0313968 0.0241329 -0.0615012)
(0.0296068 0.0350436 -0.0514854)
(0.0274219 0.0441857 -0.0387003)
(0.0139288 0.0896722 -0.0197936)
(0.0417656 -0.268421 0.0461993)
(-0.0377525 -0.271187 0.0412106)
(-0.0119486 -0.293751 0.0272489)
(-0.0348672 -0.310859 -0.000505908)
(-0.0522088 -0.262545 -0.0468605)
(-0.0581895 -0.184286 -0.0585098)
(-0.0554397 -0.141155 -0.0572037)
(-0.0569629 -0.105538 -0.053933)
(-0.0544389 -0.0755836 -0.0493866)
(-0.0535819 -0.0543982 -0.0465659)
(-0.0529228 -0.0431149 -0.0461413)
(-0.0521275 -0.036317 -0.0464829)
(-0.0506831 -0.030021 -0.0467052)
(-0.0488348 -0.0238266 -0.0469681)
(-0.0468356 -0.0184641 -0.047454)
(-0.0445945 -0.0141236 -0.048229)
(-0.0421107 -0.0109248 -0.0493994)
(-0.0394551 -0.00890981 -0.0509283)
(-0.0365417 -0.00783251 -0.0527278)
(-0.0332699 -0.00750704 -0.0547969)
(-0.0296959 -0.00769187 -0.0569971)
(-0.0259236 -0.0077392 -0.0588692)
(-0.0218888 -0.00700791 -0.0600771)
(-0.0175616 -0.00525386 -0.0605574)
(-0.0130163 -0.00248775 -0.0603681)
(-0.00834576 0.00120286 -0.0595886)
(-0.00367106 0.00574126 -0.0582924)
(0.000861011 0.011111 -0.0565128)
(0.00508507 0.0173804 -0.0542229)
(0.00882522 0.0247229 -0.0513157)
(0.0119026 0.0334685 -0.0475703)
(0.0141357 0.0443979 -0.0425335)
(0.0153617 0.0606283 -0.0350443)
(0.0144257 0.101845 -0.0223407)
(0.00472573 0.222707 -0.00409438)
(-0.0208592 -0.107379 0.0157576)
(-0.0165313 -0.0916691 0.00955566)
(-0.0336048 -0.0266452 -0.00789284)
(-0.0384366 -0.000969318 -0.0198763)
(-0.0414774 -0.0235801 -0.0270267)
(-0.0425217 -0.0612343 -0.0421423)
(-0.041703 -0.069553 -0.052508)
(-0.040213 -0.0668202 -0.0582189)
(-0.0379041 -0.0553229 -0.0620266)
(-0.0352968 -0.039837 -0.0634021)
(-0.0336456 -0.027973 -0.0627822)
(-0.0330115 -0.0210809 -0.0614379)
(-0.0327751 -0.0165338 -0.0599257)
(-0.0325272 -0.0125245 -0.0583864)
(-0.0321196 -0.00865887 -0.0570063)
(-0.0315122 -0.00509166 -0.0560006)
(-0.0307299 -0.00214501 -0.0555436)
(-0.0297684 -9.55348e-05 -0.0557416)
(-0.0286056 0.00099197 -0.0565918)
(-0.0272302 0.00120166 -0.057999)
(-0.0256399 0.00073644 -0.0597905)
(-0.0237555 -0.000189603 -0.0618416)
(-0.0214976 -0.00146668 -0.0640492)
(-0.0188508 -0.00278072 -0.0661528)
(-0.0157773 -0.00353432 -0.0678607)
(-0.0122601 -0.00319098 -0.0690133)
(-0.0083486 -0.00143215 -0.0695694)
(-0.00416512 0.00193058 -0.0695161)
(0.000146137 0.00708852 -0.0688218)
(0.00439724 0.0143887 -0.0674082)
(0.00830753 0.0246664 -0.0650899)
(0.0115617 0.0404696 -0.061338)
(0.0135855 0.0713367 -0.0544063)
(0.0122233 0.153975 -0.0387165)
(0.00306234 0.282337 -0.0109726)
(0.00152216 -0.152737 0.0361904)
(-0.00999419 -0.237369 0.0469314)
(-0.00596588 -0.246592 0.0465221)
(-0.00182294 -0.235008 0.0460056)
(0.003622 -0.204879 0.044726)
(0.00564867 -0.16311 0.0409827)
(0.00459599 -0.121879 0.0307982)
(0.00158185 -0.0890877 0.0158237)
(-0.0026637 -0.0643503 0.000598315)
(-0.00728321 -0.0434047 -0.0117492)
(-0.0113647 -0.0244005 -0.0200839)
(-0.0144158 -0.00978406 -0.0250593)
(-0.0164485 -0.00122074 -0.0280814)
(-0.0177237 0.00357138 -0.0301252)
(-0.0183852 0.0070158 -0.031697)
(-0.018497 0.00998169 -0.0331092)
(-0.0181392 0.0125007 -0.0345501)
(-0.017408 0.0144853 -0.0361142)
(-0.0163671 0.0159061 -0.0378568)
(-0.0150623 0.0167389 -0.0398087)
(-0.0135213 0.0169945 -0.0419745)
(-0.0117546 0.0167291 -0.0443431)
(-0.00979206 0.0160503 -0.0468547)
(-0.00767296 0.0152198 -0.0493759)
(-0.00543479 0.0146439 -0.0517292)
(-0.00309753 0.0147631 -0.0537607)
(-0.000667904 0.0159666 -0.055371)
(0.0018387 0.0185953 -0.0564962)
(0.00436277 0.0230248 -0.0570722)
(0.00677459 0.0298473 -0.0569964)
(0.00888508 0.0404055 -0.0560474)
(0.0104567 0.0588319 -0.0536128)
(0.010638 0.10097 -0.0476748)
(0.00792575 0.210776 -0.0333606)
(0.000812464 0.329053 -0.00880861)
(-0.00117707 -0.0781938 0.038144)
(0.00173057 -0.122283 0.0502041)
(0.002931 -0.142012 0.0525197)
(0.00575719 -0.148271 0.0523304)
(0.00879717 -0.143437 0.0513518)
(0.0124932 -0.12504 0.0501927)
(0.0164244 -0.0916698 0.0494511)
(0.0198164 -0.0482727 0.0474649)
(0.0219076 -0.00643583 0.0407053)
(0.0221055 0.0210435 0.0287087)
(0.0207421 0.0319395 0.0153171)
(0.0179945 0.0335551 0.00351088)
(0.0141984 0.0318176 -0.00552983)
(0.0102821 0.0298266 -0.0119588)
(0.00694938 0.0284979 -0.0165072)
(0.00438982 0.0278997 -0.0199556)
(0.00253798 0.02784 -0.0228872)
(0.00134854 0.0279159 -0.0256398)
(0.000757819 0.0277955 -0.0283577)
(0.00066952 0.0273527 -0.0311068)
(0.00100364 0.0266026 -0.0339004)
(0.00168484 0.0256716 -0.0367132)
(0.00263877 0.0247761 -0.03949)
(0.00379327 0.024198 -0.0421544)
(0.00506708 0.0242731 -0.0446145)
(0.00642036 0.0253541 -0.0468275)
(0.00782108 0.027769 -0.0487955)
(0.00920533 0.0318688 -0.0504826)
(0.0105084 0.0381905 -0.0518376)
(0.0116575 0.0477838 -0.0527847)
(0.0125483 0.0631386 -0.0531867)
(0.0129777 0.0913845 -0.0525559)
(0.0121318 0.153875 -0.0486337)
(0.00863832 0.276199 -0.0355404)
(0.00117507 0.369163 -0.011197)
(0.00308445 -0.210864 0.0347202)
(0.0108751 -0.316558 0.0478509)
(0.0158541 -0.342486 0.0495563)
(0.0187252 -0.341492 0.0478203)
(0.0212406 -0.324533 0.043833)
(0.0230786 -0.294264 0.0396603)
(0.0237928 -0.255392 0.0384316)
(0.0241089 -0.209043 0.0419432)
(0.0246986 -0.154215 0.048569)
(0.0251609 -0.0945699 0.0534936)
(0.0241334 -0.0382313 0.0527766)
(0.0214902 0.00614538 0.0451467)
(0.0185827 0.0314593 0.0340767)
(0.0159569 0.0417146 0.0233515)
(0.0136557 0.0445163 0.0143788)
(0.0116755 0.0444103 0.00698521)
(0.0101213 0.0433962 0.000881562)
(0.00898607 0.0423011 -0.00434784)
(0.00822958 0.0413148 -0.00901718)
(0.00784786 0.040425 -0.013218)
(0.0077812 0.0396712 -0.0170236)
(0.0079625 0.0391373 -0.0205033)
(0.00833195 0.0389413 -0.0237088)
(0.00883713 0.0392304 -0.0266676)
(0.00942573 0.0401834 -0.0293784)
(0.0100396 0.0420502 -0.031808)
(0.0106481 0.0451798 -0.0339779)
(0.0112019 0.0499541 -0.0359337)
(0.0116071 0.056762 -0.0376653)
(0.0117772 0.0664559 -0.039145)
(0.0116191 0.0813855 -0.0403276)
(0.0109021 0.109714 -0.0410474)
(0.00908814 0.180593 -0.0398898)
(0.00634071 0.321792 -0.03083)
(0.000588934 0.402213 -0.00993416)
(-0.00741574 -0.178094 0.0462913)
(-0.0136986 -0.221574 0.05467)
(-0.0165194 -0.226238 0.0531141)
(-0.0180913 -0.214036 0.048493)
(-0.0171661 -0.181383 0.0402909)
(-0.0127355 -0.140448 0.0324393)
(-0.0065568 -0.0990215 0.0260868)
(0.000293177 -0.0598595 0.0209209)
(0.00758444 -0.0249314 0.0175794)
(0.0151513 0.00594047 0.0163513)
(0.0225867 0.0322254 0.0163316)
(0.0288536 0.0514835 0.0157966)
(0.0326485 0.0604175 0.0143025)
(0.0337944 0.0617498 0.0121217)
(0.0332143 0.0605932 0.00958132)
(0.0313539 0.0588241 0.00673518)
(0.0287296 0.0568532 0.00362415)
(0.0258395 0.0549879 0.000301455)
(0.0230259 0.0532774 -0.00315797)
(0.020521 0.0517695 -0.00663903)
(0.0183891 0.0505984 -0.0100498)
(0.0166377 0.0499144 -0.0133261)
(0.0152522 0.0498751 -0.0164175)
(0.0142045 0.0506663 -0.0192846)
(0.0134484 0.0525371 -0.0219246)
(0.0129311 0.0558179 -0.0243785)
(0.0126135 0.0609142 -0.0267022)
(0.0124463 0.0683028 -0.0289597)
(0.0123586 0.0787076 -0.0312004)
(0.0122506 0.0935643 -0.0334459)
(0.0119758 0.116473 -0.0356486)
(0.0111719 0.157893 -0.037443)
(0.00849294 0.244637 -0.0366703)
(0.00504565 0.380727 -0.0282646)
(8.65026e-05 0.433263 -0.00992594)
(-0.00463848 -0.161725 0.040397)
(-0.00126909 -0.320699 0.0536801)
(0.00541113 -0.382197 0.0576306)
(0.014423 -0.411045 0.0614482)
(0.0240841 -0.424118 0.0659797)
(0.0340634 -0.422122 0.0699291)
(0.044102 -0.401127 0.072075)
(0.0533551 -0.358917 0.0711653)
(0.0612807 -0.301422 0.067443)
(0.0685517 -0.236209 0.0624615)
(0.075667 -0.167154 0.0571654)
(0.0822209 -0.0969833 0.0512592)
(0.0867644 -0.0328686 0.0439519)
(0.0871771 0.0154118 0.0359507)
(0.0831942 0.0464833 0.0290354)
(0.0766855 0.0654429 0.0239099)
(0.0696453 0.0757716 0.0201283)
(0.0628878 0.0800908 0.0169683)
(0.0563684 0.0808594 0.0139779)
(0.0501667 0.0798092 0.0109463)
(0.0444688 0.0780364 0.00781043)
(0.0393253 0.0761954 0.0045842)
(0.0347343 0.0747137 0.00132316)
(0.0306756 0.0739168 -0.00189889)
(0.0271212 0.07411 -0.00500873)
(0.0240376 0.0756108 -0.00797169)
(0.0213866 0.0787988 -0.010813)
(0.0191214 0.0842209 -0.0136241)
(0.0171915 0.0927906 -0.0165472)
(0.015534 0.106273 -0.0197591)
(0.0140346 0.129091 -0.0234878)
(0.0124659 0.174971 -0.0278022)
(0.00977767 0.278452 -0.0304515)
(0.00622676 0.423205 -0.0251275)
(0.000998465 0.459582 -0.00950799)
(0.00316345 -0.169482 0.00390435)
(0.0184325 -0.314976 0.00763728)
(0.0309023 -0.367778 0.0105305)
(0.0414187 -0.379359 0.0116153)
(0.0509126 -0.37032 0.0117444)
(0.0591317 -0.344053 0.0115743)
(0.0642428 -0.302286 0.0108644)
(0.0652504 -0.252759 0.00826866)
(0.0629528 -0.206335 0.00516331)
(0.0594624 -0.166663 0.00515205)
(0.0566822 -0.127427 0.00948256)
(0.0557527 -0.0785594 0.0169521)
(0.0566278 -0.0143365 0.0229806)
(0.0570166 0.0527388 0.0229633)
(0.0543749 0.0984174 0.0187215)
(0.0507523 0.118339 0.0145241)
(0.0475955 0.12596 0.0113842)
(0.0444285 0.128499 0.00901359)
(0.0410669 0.127603 0.00729274)
(0.0378074 0.124426 0.00598562)
(0.0346697 0.120261 0.00479116)
(0.0316338 0.116051 0.00349962)
(0.0287302 0.112378 0.00203944)
(0.0259938 0.109617 0.000420067)
(0.0234418 0.108071 -0.00132016)
(0.0210761 0.10805 -0.00313388)
(0.0188934 0.109921 -0.00501137)
(0.0168833 0.114256 -0.00700096)
(0.015042 0.122112 -0.00924831)
(0.0133655 0.135715 -0.0120347)
(0.0117913 0.160582 -0.0158373)
(0.0100541 0.212401 -0.0210171)
(0.00713322 0.325298 -0.024845)
(0.00427331 0.467923 -0.0206094)
(0.00035815 0.484539 -0.00782586)
(0.00630184 -0.29722 0.0264963)
(0.0176498 -0.492292 0.0410854)
(0.0253835 -0.548647 0.045309)
(0.0305842 -0.557719 0.0477102)
(0.0346243 -0.54509 0.0499029)
(0.0375264 -0.507991 0.0516895)
(0.0380371 -0.440064 0.0493612)
(0.0349683 -0.349396 0.0353672)
(0.0290623 -0.259585 0.0120354)
(0.0231818 -0.192107 -0.00633643)
(0.0188262 -0.14439 -0.0126055)
(0.0155472 -0.0996469 -0.00808152)
(0.0136442 -0.0427989 0.00251857)
(0.0134766 0.0234744 0.0101123)
(0.0132806 0.0792369 0.0105418)
(0.01366 0.108529 0.00785613)
(0.0145443 0.12073 0.00552048)
(0.015452 0.127136 0.00375457)
(0.0162266 0.130186 0.00242333)
(0.0167179 0.1307 0.0014932)
(0.0169334 0.129638 0.000850449)
(0.0169056 0.127755 0.000360203)
(0.0166745 0.125634 -0.000105122)
(0.0162963 0.123897 -0.00064454)
(0.0158056 0.123052 -0.00128374)
(0.0152285 0.123491 -0.00201981)
(0.0145796 0.125604 -0.00285129)
(0.0138504 0.129965 -0.00381598)
(0.0130476 0.137677 -0.00505183)
(0.0121612 0.151261 -0.0068847)
(0.0111122 0.177727 -0.010054)
(0.00967886 0.237862 -0.0157003)
(0.00668907 0.36689 -0.0217803)
(0.00388613 0.504325 -0.0198623)
(0.000466083 0.505314 -0.00924836)
(0.0022993 -0.347993 0.0186491)
(-0.000834995 -0.478609 0.0128999)
(-0.00309732 -0.494162 0.0118007)
(-0.00605372 -0.484836 0.0124745)
(-0.00906102 -0.452085 0.0143024)
(-0.0112862 -0.37867 0.0151535)
(-0.0125841 -0.275952 0.00884373)
(-0.0141673 -0.184765 -0.00765659)
(-0.0159056 -0.126093 -0.0247513)
(-0.0174682 -0.0920821 -0.0321679)
(-0.019387 -0.0636049 -0.0314362)
(-0.0222129 -0.0281157 -0.0239516)
(-0.0251864 0.0192931 -0.0127697)
(-0.0257986 0.0655004 -0.00586658)
(-0.0236853 0.093668 -0.0045652)
(-0.0205148 0.107725 -0.00478839)
(-0.0170216 0.116207 -0.00519729)
(-0.0134421 0.122067 -0.00553749)
(-0.0100356 0.125918 -0.00574256)
(-0.00690865 0.128041 -0.0057635)
(-0.00411357 0.128846 -0.00560344)
(-0.00167432 0.128871 -0.00531121)
(0.000407271 0.128661 -0.00496085)
(0.0021482 0.128719 -0.00461949)
(0.00357643 0.129506 -0.00433434)
(0.00471502 0.131439 -0.00412152)
(0.00561663 0.134997 -0.00395061)
(0.00631819 0.140904 -0.00384305)
(0.00682267 0.150431 -0.00393798)
(0.0071229 0.166539 -0.00458374)
(0.00711143 0.197504 -0.00660894)
(0.00636027 0.266834 -0.0112231)
(0.00398769 0.410621 -0.0158333)
(0.00219657 0.541182 -0.0141278)
(0.000173361 0.52423 -0.00647329)
(-0.00950307 -0.300529 0.0252769)
(-0.0208108 -0.481078 0.0325058)
(-0.0261773 -0.527148 0.0389358)
(-0.0289334 -0.534183 0.0416355)
(-0.0305476 -0.518191 0.0430217)
(-0.0289504 -0.466578 0.0428179)
(-0.0224912 -0.378626 0.0413465)
(-0.0135972 -0.277897 0.0390541)
(-0.00567561 -0.187919 0.0309608)
(-0.00133139 -0.11886 0.0183603)
(-0.00133077 -0.066772 0.00714005)
(-0.00454796 -0.021826 0.00114976)
(-0.00768091 0.0195 -0.000405397)
(-0.00889494 0.0522029 -0.00116245)
(-0.0086682 0.0735672 -0.00242604)
(-0.00770895 0.0870548 -0.00371744)
(-0.00635325 0.0963551 -0.00473754)
(-0.00477917 0.103208 -0.00544676)
(-0.00308849 0.108347 -0.00587786)
(-0.00136487 0.112237 -0.00607364)
(0.00031456 0.115281 -0.00607586)
(0.0018859 0.117824 -0.00592067)
(0.00329825 0.120171 -0.00564653)
(0.0045242 0.122631 -0.00528954)
(0.00556342 0.125553 -0.00486755)
(0.00642274 0.129337 -0.00436995)
(0.00711333 0.13447 -0.00379208)
(0.00764417 0.141687 -0.00318277)
(0.00803222 0.152401 -0.00266067)
(0.00829427 0.170208 -0.00253172)
(0.00835014 0.205837 -0.00379293)
(0.00762652 0.287694 -0.00888697)
(0.0043065 0.441309 -0.0156905)
(0.00201626 0.559997 -0.0146272)
(0.000403662 0.531004 -0.00816808)
(-0.00330799 -0.237827 -0.00078)
(0.00180261 -0.444626 0.0101044)
(0.00450037 -0.517998 0.0189637)
(0.00808868 -0.537677 0.0208948)
(0.0107702 -0.53703 0.0186104)
(0.0123169 -0.516069 0.0113645)
(0.0118342 -0.462588 0.00175955)
(0.0122047 -0.37703 0.00368402)
(0.0157634 -0.274333 0.0204885)
(0.0214042 -0.166409 0.037489)
(0.0268931 -0.0685414 0.0426103)
(0.0302067 0.00312266 0.0347558)
(0.0305812 0.0458767 0.0221221)
(0.0285576 0.0693133 0.0124223)
(0.0254441 0.0842263 0.00695644)
(0.0222319 0.0951852 0.00382308)
(0.0194497 0.10324 0.0016892)
(0.0172401 0.109033 5.44876e-05)
(0.0155554 0.113343 -0.00122704)
(0.0142914 0.116794 -0.00220079)
(0.0133473 0.1198 -0.00289124)
(0.0126364 0.12264 -0.00331444)
(0.0120814 0.125536 -0.00349306)
(0.0116155 0.12871 -0.00344835)
(0.0111839 0.132437 -0.00318536)
(0.0107386 0.137067 -0.00271407)
(0.0102384 0.143076 -0.00205557)
(0.00964818 0.151227 -0.00124541)
(0.00894458 0.163037 -0.000348733)
(0.00811835 0.182526 0.000468105)
(0.00719558 0.222443 0.000540465)
(0.00618735 0.319068 -0.00224537)
(0.00405882 0.496543 -0.00858968)
(0.00260131 0.594727 -0.00920497)
(0.00119721 0.553953 -0.005008)
(0.00501555 -0.306922 0.0129006)
(0.0227365 -0.538604 0.0421513)
(0.0310919 -0.604203 0.0523026)
(0.034516 -0.609733 0.0541824)
(0.0353694 -0.58454 0.04953)
(0.0328106 -0.519439 0.032319)
(0.0265548 -0.432496 -0.00249703)
(0.0203799 -0.358782 -0.0403806)
(0.0174908 -0.302883 -0.0564379)
(0.0183836 -0.247618 -0.0447208)
(0.0227886 -0.177154 -0.0129724)
(0.0290499 -0.089683 0.0223399)
(0.0341068 0.000705203 0.0416286)
(0.0351452 0.0686138 0.0386968)
(0.0320884 0.104317 0.0264579)
(0.0279771 0.120073 0.0162448)
(0.024292 0.127149 0.00960466)
(0.0212295 0.130631 0.00526358)
(0.018698 0.132622 0.00234355)
(0.016672 0.13402 0.000344159)
(0.015107 0.13527 -0.00103616)
(0.013934 0.136635 -0.00196238)
(0.013087 0.138325 -0.00252214)
(0.0124807 0.140556 -0.00277128)
(0.0120423 0.14357 -0.00273662)
(0.0117129 0.147655 -0.00244329)
(0.0114409 0.153228 -0.00191995)
(0.0111835 0.160969 -0.0012044)
(0.0109052 0.172238 -0.000355511)
(0.0105526 0.190638 0.000500194)
(0.00995693 0.227758 0.00079733)
(0.00850949 0.318289 -0.00143623)
(0.00507715 0.494598 -0.00401011)
(0.00295453 0.59497 -0.00319241)
(0.0015237 0.550271 -0.000739038)
(0.00918405 -0.437092 0.0292434)
(0.0220171 -0.612358 0.0442759)
(0.0249958 -0.630947 0.0448571)
(0.023312 -0.610426 0.0406565)
(0.0183562 -0.552693 0.0269092)
(0.0108273 -0.468687 0.00486546)
(0.00534162 -0.380571 -0.0175726)
(0.00332432 -0.300868 -0.0425122)
(0.00307688 -0.237283 -0.0664785)
(0.00318442 -0.187711 -0.0790323)
(0.0032662 -0.141303 -0.0728071)
(0.00393691 -0.0847361 -0.0430878)
(0.00557496 -0.0111329 -0.00229234)
(0.0076392 0.0666441 0.0232621)
(0.00719102 0.119969 0.0253188)
(0.00589748 0.141306 0.0190078)
(0.00527453 0.148289 0.0135)
(0.00488135 0.150686 0.00906291)
(0.00450112 0.150759 0.00537549)
(0.00425015 0.149796 0.00260555)
(0.00417019 0.148819 0.000695232)
(0.00423977 0.148373 -0.000549563)
(0.00442969 0.148738 -0.00129239)
(0.0047059 0.150091 -0.00164354)
(0.00503287 0.152601 -0.00166896)
(0.00537581 0.156511 -0.00140463)
(0.00569821 0.162221 -0.000871142)
(0.00596035 0.17047 -7.87254e-05)
(0.00611855 0.182932 0.000978473)
(0.00611263 0.204647 0.00232548)
(0.00584604 0.253145 0.0035872)
(0.00488715 0.375688 0.00135436)
(0.00263245 0.568466 -0.00705114)
(0.00158345 0.642779 -0.00783964)
(0.00105569 0.58785 -0.00514275)
(0.00258446 -0.550861 0.0597711)
(-0.00128445 -0.658688 0.0619569)
(-0.00732339 -0.647947 0.0603665)
(-0.0163509 -0.595396 0.0525764)
(-0.0251516 -0.508675 0.0308212)
(-0.030246 -0.430748 0.0014547)
(-0.0322332 -0.374602 -0.0218669)
(-0.032029 -0.325716 -0.036595)
(-0.0310461 -0.272452 -0.0476356)
(-0.0304178 -0.21169 -0.0553676)
(-0.0310222 -0.145774 -0.0543542)
(-0.0329895 -0.0779829 -0.0385512)
(-0.0347357 -0.00792288 -0.0112029)
(-0.033572 0.0603196 0.0112977)
(-0.0299559 0.108333 0.0170778)
(-0.0256579 0.127813 0.0147367)
(-0.0216279 0.136294 0.0120792)
(-0.0177867 0.141092 0.00951518)
(-0.0141828 0.143738 0.00699031)
(-0.0109948 0.144997 0.00473309)
(-0.00818686 0.14565 0.00290829)
(-0.00568843 0.146347 0.00155072)
(-0.00344786 0.147541 0.000615338)
(-0.00142625 0.149541 4.71872e-05)
(0.000401261 0.152598 -0.000206762)
(0.00205444 0.157 -0.000191298)
(0.00354952 0.163173 6.42444e-05)
(0.00488355 0.171851 0.000537263)
(0.00603321 0.184596 0.00120889)
(0.0069188 0.205762 0.00208631)
(0.00723835 0.249715 0.00320611)
(0.00649625 0.358588 0.00513281)
(0.00347853 0.550723 0.00814513)
(0.00171399 0.624221 0.0085473)
(0.00132116 0.56896 0.00776167)
(-0.0162218 -0.466731 0.0518289)
(-0.0338278 -0.565893 0.0392264)
(-0.0469763 -0.548949 0.0436295)
(-0.0569747 -0.502095 0.0494697)
(-0.0592132 -0.447182 0.0534796)
(-0.0572399 -0.387551 0.0504648)
(-0.0559828 -0.326872 0.0391718)
(-0.0562474 -0.266178 0.0243739)
(-0.0574926 -0.202599 0.0110103)
(-0.0589289 -0.136397 0.00338039)
(-0.060052 -0.071529 0.00294606)
(-0.0609475 -0.0164903 0.00739699)
(-0.0602687 0.0251786 0.0122788)
(-0.0562515 0.0555546 0.0149603)
(-0.0502405 0.0771561 0.0151103)
(-0.0434993 0.0919729 0.0139558)
(-0.0367386 0.102586 0.0124585)
(-0.0304751 0.110383 0.0109175)
(-0.0248709 0.116239 0.00942554)
(-0.0199151 0.120869 0.00807118)
(-0.0155562 0.124862 0.00691278)
(-0.0117382 0.128684 0.00597662)
(-0.00839911 0.1327 0.00526746)
(-0.00547816 0.13722 0.00478253)
(-0.00292099 0.142542 0.00451131)
(-0.000682055 0.149025 0.00444298)
(0.00126439 0.157188 0.0045788)
(0.00291777 0.167973 0.00493507)
(0.0042608 0.183674 0.00555427)
(0.00522336 0.211607 0.00647203)
(0.00527151 0.276739 0.00681099)
(0.00344661 0.431288 0.0010769)
(0.00110085 0.627183 -0.00791855)
(4.07235e-05 0.679607 -0.00801115)
(0.000284577 0.608457 -0.00514261)
(-0.0212858 -0.30829 0.0252951)
(-0.042108 -0.519272 0.013789)
(-0.0563641 -0.557594 0.0276563)
(-0.0642474 -0.567096 0.0453058)
(-0.0709997 -0.541899 0.0676233)
(-0.0723195 -0.473583 0.0881537)
(-0.0677512 -0.3912 0.0980072)
(-0.06007 -0.311295 0.0988465)
(-0.0499657 -0.234399 0.0926679)
(-0.0384198 -0.167648 0.0813887)
(-0.0266679 -0.110906 0.0685588)
(-0.0159671 -0.0624214 0.0575168)
(-0.00694262 -0.0228963 0.0491664)
(-0.000318065 0.00720919 0.0428341)
(0.00319591 0.0301406 0.0377998)
(0.00488903 0.0484403 0.0337609)
(0.00599868 0.0636191 0.0303633)
(0.00695849 0.0760939 0.0273399)
(0.0078068 0.0863507 0.0246382)
(0.00851052 0.0950487 0.0222562)
(0.00905679 0.102761 0.0201796)
(0.00946864 0.109933 0.0183902)
(0.00976303 0.116935 0.0168738)
(0.00993887 0.124102 0.0156209)
(0.00998536 0.131787 0.0146112)
(0.00989673 0.140423 0.0138241)
(0.00967174 0.150647 0.0132519)
(0.00931543 0.163604 0.0128999)
(0.00885974 0.181943 0.0127932)
(0.00839972 0.213043 0.013025)
(0.00817357 0.277923 0.0140799)
(0.00675881 0.416978 0.0180494)
(0.00378539 0.603313 0.0203878)
(0.00240687 0.651311 0.019476)
(0.00146407 0.580151 0.0172287)
(-0.00853819 -0.242332 0.00638402)
(-0.0168202 -0.477102 -0.0189655)
(-0.0308166 -0.541294 -0.0340769)
(-0.0400065 -0.561248 -0.0403292)
(-0.0472045 -0.569857 -0.039016)
(-0.0506189 -0.56937 -0.0274436)
(-0.0476056 -0.552759 -0.00664907)
(-0.0385354 -0.517724 0.0180602)
(-0.0250627 -0.462497 0.0437261)
(-0.00824901 -0.389014 0.0677434)
(0.0106141 -0.303317 0.0873519)
(0.0301074 -0.212301 0.100182)
(0.0483582 -0.12387 0.105095)
(0.0641045 -0.0466498 0.102488)
(0.0756092 0.0130117 0.093421)
(0.0805251 0.0508517 0.0800171)
(0.0787646 0.0706371 0.0672716)
(0.0726657 0.0833294 0.0578967)
(0.0651365 0.0942814 0.0511637)
(0.0580287 0.10386 0.0458777)
(0.0517433 0.112152 0.0414467)
(0.0461478 0.119691 0.037654)
(0.0411247 0.127006 0.0344175)
(0.0365873 0.134522 0.0316776)
(0.0324613 0.142634 0.0293654)
(0.0286849 0.151777 0.0274201)
(0.0252041 0.162522 0.0258058)
(0.0219865 0.175791 0.0245159)
(0.0190499 0.19373 0.0235625)
(0.0164713 0.223628 0.0229195)
(0.0142319 0.294025 0.021604)
(0.0139565 0.472114 0.0122066)
(0.0119738 0.662247 0.00303399)
(0.00822264 0.710266 0.00342523)
(0.00430484 0.625033 0.0058955)
(0.00216024 -0.235531 0.00925242)
(0.00776295 -0.424256 -0.00429445)
(0.00883314 -0.497599 -0.0205032)
(0.00983234 -0.52891 -0.0317462)
(0.0105453 -0.546722 -0.0409311)
(0.0105227 -0.558319 -0.0496045)
(0.00976437 -0.564435 -0.0571133)
(0.00907066 -0.563642 -0.0614786)
(0.00956392 -0.553009 -0.0598136)
(0.0128055 -0.528041 -0.0491135)
(0.0201246 -0.486911 -0.0293863)
(0.0317948 -0.429888 -0.00296285)
(0.0476275 -0.356855 0.0274226)
(0.0666912 -0.269576 0.0586898)
(0.0873855 -0.165396 0.0901434)
(0.106438 -0.0416801 0.114678)
(0.116871 0.0638036 0.117529)
(0.115707 0.119731 0.103482)
(0.107462 0.13959 0.0867827)
(0.0967369 0.145811 0.0733575)
(0.0859493 0.148955 0.0634062)
(0.0761965 0.151948 0.0559444)
(0.0675122 0.155317 0.0500917)
(0.059765 0.159207 0.0453115)
(0.0528574 0.163869 0.0412955)
(0.0466795 0.169696 0.0378438)
(0.041119 0.177261 0.0348115)
(0.0360712 0.187522 0.0320813)
(0.0313809 0.202587 0.0295422)
(0.0267479 0.228291 0.0272111)
(0.0215504 0.281904 0.0266774)
(0.0116362 0.416115 0.035235)
(0.00463323 0.652837 0.0349317)
(0.00236751 0.709117 0.0308028)
(0.00126217 0.635962 0.0258005)
(0.00444267 -0.321553 0.0102601)
(0.0142209 -0.523044 -0.00300871)
(0.0228823 -0.590742 -0.00656139)
(0.0285663 -0.611311 -0.00657737)
(0.0331524 -0.612141 -0.00583127)
(0.0372613 -0.59964 -0.00566159)
(0.0406141 -0.576082 -0.00791859)
(0.0430553 -0.546143 -0.0143125)
(0.0448018 -0.515518 -0.0248024)
(0.0459403 -0.487497 -0.0376159)
(0.0466164 -0.462591 -0.0499352)
(0.0473177 -0.439888 -0.0586316)
(0.0489726 -0.415839 -0.0600228)
(0.0531714 -0.383041 -0.0496047)
(0.0605777 -0.330537 -0.0211268)
(0.0738356 -0.218182 0.0359694)
(0.0878477 -0.0548094 0.0897297)
(0.0927581 0.08726 0.110516)
(0.0871783 0.16892 0.104868)
(0.0776795 0.202151 0.0911173)
(0.0683609 0.21238 0.0783545)
(0.059558 0.214181 0.0682097)
(0.051313 0.213819 0.0605095)
(0.043695 0.213971 0.0546896)
(0.0366502 0.215776 0.0501939)
(0.0300993 0.21991 0.0466352)
(0.02399 0.227156 0.0437814)
(0.0184071 0.238931 0.0414694)
(0.0136274 0.258897 0.0393848)
(0.0101373 0.29934 0.0364818)
(0.0116804 0.400016 0.0290558)
(0.018145 0.596935 0.0128624)
(0.0158409 0.719446 0.01197)
(0.0114051 0.750516 0.0150925)
(0.00580195 0.646085 0.0155253)
(0.00299295 -0.392582 -0.0185376)
(0.00614681 -0.578083 -0.0492999)
(0.00790126 -0.627234 -0.0622032)
(0.00925501 -0.64477 -0.0679933)
(0.0104293 -0.652595 -0.0702984)
(0.0119679 -0.654866 -0.0694909)
(0.0143427 -0.651377 -0.0652895)
(0.0178082 -0.639763 -0.0577513)
(0.022435 -0.61617 -0.0475689)
(0.0280051 -0.577178 -0.0366053)
(0.0338646 -0.523932 -0.0281185)
(0.0390291 -0.466158 -0.0251226)
(0.0424542 -0.41672 -0.0274368)
(0.0440127 -0.378532 -0.0316186)
(0.0428735 -0.341539 -0.0318681)
(0.0415585 -0.255885 0.0034583)
(0.0425748 -0.0978791 0.0584932)
(0.0388083 0.0575902 0.0911734)
(0.0340805 0.157607 0.0941056)
(0.0318335 0.201376 0.0839006)
(0.0314224 0.216256 0.073401)
(0.0314888 0.220895 0.0647305)
(0.0315631 0.221674 0.0574818)
(0.0317036 0.221369 0.0515123)
(0.0319363 0.221446 0.0465564)
(0.0322302 0.22257 0.0423137)
(0.0324369 0.224836 0.038604)
(0.0320601 0.22748 0.0355566)
(0.0301504 0.227956 0.033872)
(0.0265587 0.221521 0.0350704)
(0.0178898 0.211595 0.0425681)
(0.0081571 0.367601 0.0522967)
(0.00694513 0.704488 0.0360607)
(0.00374947 0.783867 0.0286766)
(0.0022298 0.708475 0.0232665)
(0.00197755 -0.37724 -0.0247427)
(0.0047815 -0.548944 -0.0347257)
(0.00705043 -0.597482 -0.0387364)
(0.00844175 -0.613495 -0.0422881)
(0.00922182 -0.617877 -0.0463308)
(0.00925509 -0.615541 -0.051255)
(0.00835364 -0.608293 -0.0569199)
(0.00644739 -0.59737 -0.0624813)
(0.00372542 -0.583364 -0.0662364)
(0.000684703 -0.565067 -0.0658397)
(-0.00179957 -0.537954 -0.0587804)
(-0.00271313 -0.497014 -0.0446781)
(-0.00229287 -0.444621 -0.026904)
(-0.00167305 -0.384937 -0.00752325)
(-0.00314972 -0.30783 0.018096)
(-0.00682392 -0.177616 0.0616424)
(-0.00924326 -0.000442975 0.0917068)
(-0.0148314 0.119398 0.0877317)
(-0.0168865 0.170954 0.0766346)
(-0.0159667 0.18757 0.0675664)
(-0.0139693 0.193637 0.0609128)
(-0.01197 0.196181 0.0556532)
(-0.0102454 0.19758 0.0513096)
(-0.00887754 0.199292 0.0476398)
(-0.00786618 0.202529 0.0444156)
(-0.00712953 0.208743 0.0413375)
(-0.00652176 0.220586 0.0378929)
(-0.00588261 0.244252 0.0330082)
(-0.00504695 0.293351 0.0245417)
(-0.00341053 0.389264 0.0100926)
(0.000954353 0.537256 -0.00557862)
(-0.00776438 0.664661 0.00128377)
(-0.0134341 0.761078 0.0203722)
(-0.0111599 0.774196 0.0230794)
(-0.0058549 0.663781 0.0166864)
(0.00143726 -0.400606 -0.0158461)
(0.00454069 -0.588997 -0.0286996)
(0.00700707 -0.638415 -0.0327519)
(0.00873252 -0.653027 -0.0338014)
(0.0101479 -0.654624 -0.0339693)
(0.0112133 -0.647016 -0.0341311)
(0.0117523 -0.630491 -0.0350608)
(0.0115081 -0.60464 -0.0376118)
(0.0099999 -0.570451 -0.0423183)
(0.00673048 -0.532081 -0.0485165)
(0.00160536 -0.494691 -0.0537606)
(-0.0049908 -0.459013 -0.0541945)
(-0.0122231 -0.420539 -0.0459469)
(-0.0192623 -0.375204 -0.0273286)
(-0.0254543 -0.31755 0.00269632)
(-0.0282035 -0.224914 0.0492621)
(-0.0214275 -0.0621803 0.101929)
(-0.0135706 0.0782215 0.103026)
(-0.010494 0.142987 0.0830353)
(-0.0110307 0.167399 0.0727392)
(-0.0121578 0.182016 0.0676545)
(-0.0128277 0.192959 0.0629156)
(-0.0131093 0.20228 0.058788)
(-0.0132725 0.211473 0.0556724)
(-0.0134748 0.221236 0.053462)
(-0.0137572 0.231557 0.0520935)
(-0.0140492 0.241717 0.0518322)
(-0.0140284 0.2502 0.0533256)
(-0.0126551 0.255577 0.0576543)
(-0.00880717 0.25843 0.06553)
(0.0011977 0.28443 0.0704157)
(0.0201429 0.551417 0.040378)
(0.0272095 0.764518 0.00791839)
(0.0211696 0.811196 0.00468707)
(0.0119276 0.676236 0.0060544)
(0.00109598 -0.413307 -0.0311027)
(0.0040424 -0.583974 -0.0577514)
(0.00604068 -0.626679 -0.0663367)
(0.00714249 -0.640148 -0.0700263)
(0.00764569 -0.642782 -0.0720427)
(0.00757879 -0.637857 -0.0730631)
(0.00699846 -0.625644 -0.07322)
(0.00599327 -0.60513 -0.0724511)
(0.00468876 -0.574353 -0.0707058)
(0.00317037 -0.532221 -0.0684938)
(0.00133961 -0.482096 -0.0668296)
(-0.0010415 -0.431715 -0.0657484)
(-0.00393483 -0.387026 -0.063299)
(-0.00669043 -0.348652 -0.0566455)
(-0.00825724 -0.313686 -0.0430476)
(-0.00738051 -0.274372 -0.0167779)
(-0.00127134 -0.203991 0.0374099)
(0.0135533 -0.0686744 0.100932)
(0.0269397 0.0495244 0.113471)
(0.0341178 0.104587 0.0930724)
(0.038129 0.114361 0.0720227)
(0.0414182 0.112894 0.0633681)
(0.0454701 0.11395 0.0590216)
(0.0505867 0.116504 0.0540889)
(0.0562184 0.119997 0.0484361)
(0.0612018 0.124793 0.0426208)
(0.0642794 0.130511 0.0369849)
(0.0644973 0.136891 0.0313084)
(0.0598393 0.148953 0.0232559)
(0.0496046 0.179916 0.0112815)
(0.0269446 0.220387 0.0141638)
(-0.00292346 0.359585 0.0590207)
(-0.00714453 0.70545 0.055674)
(-0.00797814 0.792833 0.0423769)
(-0.00509888 0.736256 0.0291503)
(0.00170792 -0.411556 -0.0353958)
(0.00560717 -0.582983 -0.0434038)
(0.00890346 -0.622586 -0.044697)
(0.0109398 -0.63162 -0.046115)
(0.0122656 -0.628998 -0.048428)
(0.0126691 -0.617454 -0.0520762)
(0.0118271 -0.596861 -0.0573641)
(0.009485 -0.567379 -0.0640924)
(0.00566112 -0.531128 -0.0709762)