/*--------------------------------*- C++ -*----------------------------------*\
| =========                 |                                                 |
| \\      /  F ield         | OpenFOAM: The Open Source CFD Toolbox           |
|  \\    /   O peration     | Version:  v1906                                 |
|   \\  /    A nd           | Web:      www.OpenFOAM.com                      |
|    \\/     M anipulation  |                                                 |
\*---------------------------------------------------------------------------*/
FoamFile
{
    version     2.0;
    format      ascii;
    class       volVectorField;
    location    "80/oil";
    object      U;
}
// * * * * * * * * * * * * * * * * * * * * * * * * * * * * * * * * * * * * * //

dimensions      [0 1 -1 0 0 0 0];


internalField   nonuniform List<vector> 
27760
(
(-2.41194e-05 -2.45731e-05 -2.41193e-05)
(-4.76053e-05 -1.84314e-05 -1.73799e-05)
(-3.45942e-06 -4.77356e-06 -4.76457e-06)
(-5.62158e-06 -7.70283e-07 -8.85091e-07)
(-1.09034e-06 -2.37348e-07 -3.72705e-07)
(-3.25398e-07 -8.84966e-08 -2.37252e-07)
(3.62939e-07 2.4269e-09 -1.58311e-07)
(7.16593e-07 4.31366e-08 -1.26653e-07)
(9.14965e-07 6.73411e-08 -1.08452e-07)
(9.89375e-07 8.32617e-08 -9.58401e-08)
(9.62441e-07 9.4809e-08 -8.53269e-08)
(8.47639e-07 1.03772e-07 -7.60599e-08)
(6.59391e-07 1.10514e-07 -6.84344e-08)
(4.14721e-07 1.15109e-07 -6.29233e-08)
(1.341e-07 1.17501e-07 -5.99727e-08)
(-1.59651e-07 1.17651e-07 -5.9825e-08)
(-4.43059e-07 1.15601e-07 -6.24364e-08)
(-6.93945e-07 1.11501e-07 -6.74522e-08)
(-8.93401e-07 1.056e-07 -7.42315e-08)
(-1.02741e-06 9.81969e-08 -8.19023e-08)
(-1.08811e-06 8.96516e-08 -8.93926e-08)
(-1.07388e-06 8.0356e-08 -9.52852e-08)
(-9.90007e-07 7.02141e-08 -9.8825e-08)
(-8.48329e-07 5.97542e-08 -9.8727e-08)
(-6.65929e-07 4.92207e-08 -9.40364e-08)
(-4.64839e-07 3.90933e-08 -8.41486e-08)
(-2.70658e-07 3.0361e-08 -6.91899e-08)
(-1.10993e-07 2.47819e-08 -5.05091e-08)
(-1.02403e-08 2.44944e-08 -3.16741e-08)
(1.29633e-08 2.53976e-08 -1.29296e-08)
(-1.7495e-05 -4.89103e-05 -1.7495e-05)
(-5.70694e-06 -6.36885e-06 -7.83602e-06)
(-7.64808e-06 -7.73004e-06 -2.74389e-06)
(-3.33206e-06 -2.28495e-06 -7.94733e-07)
(-9.67478e-07 -1.41293e-06 -4.05206e-07)
(2.41514e-07 -7.85289e-07 -2.09902e-07)
(1.13058e-06 -4.97675e-07 -1.13589e-07)
(1.67972e-06 -3.22892e-07 -6.42662e-08)
(1.99691e-06 -2.02329e-07 -3.24788e-08)
(2.10508e-06 -1.06792e-07 -8.49869e-09)
(2.02417e-06 -2.64703e-08 1.2037e-08)
(1.77219e-06 4.12146e-08 2.97543e-08)
(1.37369e-06 9.50847e-08 4.42126e-08)
(8.61714e-07 1.33039e-07 5.45814e-08)
(2.77099e-07 1.53137e-07 6.01133e-08)
(-3.34089e-07 1.54357e-07 6.0397e-08)
(-9.24232e-07 1.36966e-07 5.55056e-08)
(-1.4483e-06 1.02634e-07 4.60327e-08)
(-1.86786e-06 5.43027e-08 3.30358e-08)
(-2.15445e-06 -4.0966e-09 1.79458e-08)
(-2.29195e-06 -6.79813e-08 2.39211e-09)
(-2.27768e-06 -1.32355e-07 -1.17861e-08)
(-2.12221e-06 -1.92555e-07 -2.28994e-08)
(-1.8488e-06 -2.43358e-07 -2.96724e-08)
(-1.49171e-06 -2.79435e-07 -3.10531e-08)
(-1.09352e-06 -2.94644e-07 -2.66693e-08)
(-7.01992e-07 -2.81449e-07 -1.72763e-08)
(-3.65165e-07 -2.31274e-07 -5.33339e-09)
(-1.23751e-07 -1.37317e-07 3.90084e-09)
(-5.29622e-09 -1.91164e-08 5.34765e-09)
(-4.83355e-06 -4.63914e-06 -4.83351e-06)
(-7.53926e-06 -8.77415e-06 -2.78508e-06)
(-3.7574e-06 -5.11643e-06 -1.21657e-06)
(-1.92761e-06 -3.11876e-06 -5.63926e-07)
(-1.96628e-07 -2.2914e-06 -2.54372e-07)
(9.65423e-07 -1.74915e-06 -1.01802e-07)
(1.85172e-06 -1.42834e-06 -2.01949e-08)
(2.44671e-06 -1.18998e-06 2.73823e-08)
(2.79198e-06 -9.91319e-07 6.12836e-08)
(2.89166e-06 -8.12477e-07 8.88399e-08)
(2.75567e-06 -6.49764e-07 1.13068e-07)
(2.40055e-06 -5.06854e-07 1.34207e-07)
(1.85528e-06 -3.90358e-07 1.51522e-07)
(1.16177e-06 -3.07238e-07 1.63935e-07)
(3.73055e-07 -2.62991e-07 1.70549e-07)
(-4.50398e-07 -2.6045e-07 1.70875e-07)
(-1.24585e-06 -2.99141e-07 1.64987e-07)
(-1.95392e-06 -3.75129e-07 1.53552e-07)
(-2.52394e-06 -4.81335e-07 1.37761e-07)
(-2.91844e-06 -6.08159e-07 1.19228e-07)
(-3.11616e-06 -7.44341e-07 9.97552e-08)
(-3.11352e-06 -8.77607e-07 8.12266e-08)
(-2.92436e-06 -9.95281e-07 6.53282e-08)
(-2.57868e-06 -1.0846e-06 5.33851e-08)
(-2.11975e-06 -1.13214e-06 4.62012e-08)
(-1.6006e-06 -1.12344e-06 4.37869e-08)
(-1.07924e-06 -1.04228e-06 4.49562e-08)
(-6.11757e-07 -8.71343e-07 4.6626e-08)
(-2.47845e-07 -5.94443e-07 4.29139e-08)
(-2.37881e-08 -2.17387e-07 2.38491e-08)
(-8.59364e-07 -6.80096e-06 -8.59311e-07)
(-1.87464e-06 -5.49918e-06 -7.61204e-07)
(-1.35421e-06 -4.84071e-06 -5.348e-07)
(-3.80833e-07 -3.93482e-06 -2.5637e-07)
(7.8464e-07 -3.43313e-06 -9.24328e-08)
(1.75992e-06 -3.04954e-06 2.60847e-09)
(2.56545e-06 -2.75538e-06 6.20854e-08)
(3.14082e-06 -2.48442e-06 1.02859e-07)
(3.47197e-06 -2.21948e-06 1.35637e-07)
(3.54168e-06 -1.95709e-06 1.6447e-07)
(3.34781e-06 -1.70532e-06 1.90741e-07)
(2.90308e-06 -1.47748e-06 2.14036e-07)
(2.2379e-06 -1.28861e-06 2.33235e-07)
(1.39975e-06 -1.15266e-06 2.47033e-07)
(4.50254e-07 -1.08007e-06 2.5438e-07)
(-5.3963e-07 -1.07624e-06 2.54708e-07)
(-1.49599e-06 -1.14056e-06 2.48084e-07)
(-2.34875e-06 -1.26624e-06 2.35222e-07)
(-3.03816e-06 -1.4409e-06 2.17417e-07)
(-3.52011e-06 -1.64766e-06 1.96392e-07)
(-3.76963e-06 -1.86662e-06 1.74063e-07)
(-3.78246e-06 -2.07612e-06 1.52349e-07)
(-3.57454e-06 -2.2538e-06 1.32926e-07)
(-3.18003e-06 -2.37706e-06 1.17082e-07)
(-2.64777e-06 -2.42276e-06 1.05463e-07)
(-2.03677e-06 -2.36679e-06 9.78869e-08)
(-1.41099e-06 -2.18304e-06 9.29797e-08)
(-8.31659e-07 -1.8428e-06 8.72438e-08)
(-3.57877e-07 -1.312e-06 7.42103e-08)
(-3.91886e-08 -5.51042e-07 3.92607e-08)
(-2.67624e-07 -2.72604e-06 -2.67561e-07)
(-7.74627e-07 -4.3957e-06 -3.07014e-07)
(-2.11409e-07 -4.90608e-06 -1.91033e-07)
(6.00757e-07 -4.88203e-06 -6.5339e-08)
(1.5654e-06 -4.79283e-06 2.26313e-08)
(2.45697e-06 -4.62085e-06 8.18942e-08)
(3.21885e-06 -4.39938e-06 1.25352e-07)
(3.77663e-06 -4.12458e-06 1.60358e-07)
(4.08913e-06 -3.80862e-06 1.92e-07)
(4.12586e-06 -3.46865e-06 2.21921e-07)
(3.87607e-06 -3.12779e-06 2.50172e-07)
(3.34936e-06 -2.81187e-06 2.75671e-07)
(2.57708e-06 -2.54647e-06 2.96861e-07)
(1.61114e-06 -2.35408e-06 3.12154e-07)
(5.20367e-07 -2.2512e-06 3.2029e-07)
(-6.15348e-07 -2.24635e-06 3.20596e-07)
(-1.71245e-06 -2.33885e-06 3.13126e-07)
(-2.69168e-06 -2.51875e-06 2.98663e-07)
(-3.48549e-06 -2.76759e-06 2.78653e-07)
(-4.0442e-06 -3.06016e-06 2.5497e-07)
(-4.33978e-06 -3.36668e-06 2.29698e-07)
(-4.36749e-06 -3.65487e-06 2.04882e-07)
(-4.14488e-06 -3.89138e-06 1.82258e-07)
(-3.70933e-06 -4.04281e-06 1.63115e-07)
(-3.11389e-06 -4.0755e-06 1.48051e-07)
(-2.42209e-06 -3.95474e-06 1.36779e-07)
(-1.70279e-06 -3.64287e-06 1.27809e-07)
(-1.02245e-06 -3.09593e-06 1.17268e-07)
(-4.50557e-07 -2.25201e-06 9.79871e-08)
(-5.12562e-08 -9.99246e-07 5.13431e-08)
(-9.48607e-08 -2.60146e-06 -9.47827e-08)
(-2.70584e-08 -4.67033e-06 -7.50078e-08)
(5.34498e-07 -5.75412e-06 -1.40761e-08)
(1.30956e-06 -6.2562e-06 4.84124e-08)
(2.20653e-06 -6.47951e-06 9.87677e-08)
(3.07083e-06 -6.48794e-06 1.38385e-07)
(3.81943e-06 -6.34127e-06 1.72743e-07)
(4.37134e-06 -6.07113e-06 2.04923e-07)
(4.67055e-06 -5.7121e-06 2.3698e-07)
(4.67768e-06 -5.2997e-06 2.69034e-07)
(4.37581e-06 -4.87219e-06 3.00177e-07)
(3.77215e-06 -4.4686e-06 3.28715e-07)
(2.8991e-06 -4.12604e-06 3.52622e-07)
(1.8127e-06 -3.87631e-06 3.69936e-07)
(5.88719e-07 -3.74266e-06 3.79139e-07)
(-6.84394e-07 -3.73712e-06 3.79416e-07)
(-1.91381e-06 -3.85904e-06 3.70803e-07)
(-3.01144e-06 -4.09502e-06 3.54198e-07)
(-3.90234e-06 -4.42008e-06 3.31253e-07)
(-4.53158e-06 -4.80004e-06 3.04119e-07)
(-4.86859e-06 -5.19468e-06 2.7516e-07)
(-4.90826e-06 -5.56025e-06 2.46636e-07)
(-4.66991e-06 -5.85192e-06 2.20431e-07)
(-4.19411e-06 -6.02499e-06 1.97932e-07)
(-3.5378e-06 -6.03463e-06 1.7976e-07)
(-2.76901e-06 -5.8346e-06 1.65577e-07)
(-1.96171e-06 -5.37378e-06 1.53774e-07)
(-1.18828e-06 -4.58845e-06 1.40079e-07)
(-5.2869e-07 -3.37952e-06 1.165e-07)
(-6.08786e-08 -1.54197e-06 6.09848e-08)
(4.26437e-09 -2.6788e-06 4.36087e-09)
(3.195e-07 -5.40414e-06 4.21407e-08)
(9.70738e-07 -7.02016e-06 8.16147e-08)
(1.79866e-06 -7.9504e-06 1.17876e-07)
(2.71439e-06 -8.45047e-06 1.50223e-07)
(3.59959e-06 -8.62611e-06 1.80126e-07)
(4.36513e-06 -8.55701e-06 2.10447e-07)
(4.92794e-06 -8.29935e-06 2.42462e-07)
(5.22424e-06 -7.9062e-06 2.7665e-07)
(5.20877e-06 -7.4293e-06 3.1219e-07)
(4.86026e-06 -6.92139e-06 3.47433e-07)
(4.18426e-06 -6.43472e-06 3.80108e-07)
(3.21436e-06 -6.01797e-06 4.07664e-07)
(2.01108e-06 -5.71274e-06 4.27671e-07)
(6.57174e-07 -5.54933e-06 4.38287e-07)
(-7.5007e-07 -5.54344e-06 4.3853e-07)
(-2.10839e-06 -5.69452e-06 4.28426e-07)
(-3.32066e-06 -5.98562e-06 4.0901e-07)
(-4.30451e-06 -6.38507e-06 3.82215e-07)
(-4.99996e-06 -6.84946e-06 3.50598e-07)
(-5.37402e-06 -7.32774e-06 3.16903e-07)
(-5.42172e-06 -7.76472e-06 2.83716e-07)
(-5.1646e-06 -8.10401e-06 2.53206e-07)
(-4.64668e-06 -8.28943e-06 2.2689e-07)
(-3.92927e-06 -8.2646e-06 2.05475e-07)
(-3.0852e-06 -7.97084e-06 1.88589e-07)
(-2.19398e-06 -7.34142e-06 1.74495e-07)
(-1.33428e-06 -6.28874e-06 1.58493e-07)
(-5.95924e-07 -4.66809e-06 1.31676e-07)
(-6.88855e-08 -2.16456e-06 6.90169e-08)
(4.57914e-08 -3.14002e-06 4.59079e-08)
(5.1399e-07 -6.54458e-06 1.00609e-07)
(1.25746e-06 -8.64784e-06 1.34507e-07)
(2.15997e-06 -9.94566e-06 1.61126e-07)
(3.12771e-06 -1.06946e-05 1.86082e-07)
(4.05794e-06 -1.10266e-05 2.12475e-07)
(4.85884e-06 -1.10374e-05 2.42421e-07)
(5.44544e-06 -1.08008e-05 2.76572e-07)
(5.74852e-06 -1.03847e-05 3.14586e-07)
(5.71812e-06 -9.85477e-06 3.55063e-07)
(5.3293e-06 -9.27698e-06 3.95747e-07)
(4.58609e-06 -8.71592e-06 4.33743e-07)
(3.5235e-06 -8.2317e-06 4.65927e-07)
(2.20659e-06 -7.87557e-06 4.89345e-07)
(7.25478e-07 -7.68482e-06 5.01747e-07)
(-8.13369e-07 -7.6789e-06 5.01952e-07)
(-2.29788e-06 -7.85733e-06 4.89974e-07)
(-3.62164e-06 -8.1997e-06 4.67039e-07)
(-4.69459e-06 -8.66756e-06 4.35448e-07)
(-5.45178e-06 -9.20839e-06 3.98242e-07)
(-5.85826e-06 -9.76061e-06 3.58646e-07)
(-5.90973e-06 -1.02578e-05 3.19721e-07)
(-5.63045e-06 -1.06322e-05 2.84e-07)
(-5.06841e-06 -1.08164e-05 2.53195e-07)
(-4.28986e-06 -1.07425e-05 2.28127e-07)
(-3.3728e-06 -1.03386e-05 2.08388e-07)
(-2.40238e-06 -9.52035e-06 1.92127e-07)
(-1.4635e-06 -8.17246e-06 1.74176e-07)
(-6.54647e-07 -6.09755e-06 1.44699e-07)
(-7.58121e-08 -2.85647e-06 7.59724e-08)
(6.77272e-08 -3.76984e-06 6.7867e-08)
(6.30434e-07 -7.92859e-06 1.33934e-07)
(1.455e-06 -1.05322e-05 1.66914e-07)
(2.4329e-06 -1.21869e-05 1.90313e-07)
(3.46352e-06 -1.31802e-05 2.12943e-07)
(4.449e-06 -1.3671e-05 2.39226e-07)
(5.29492e-06 -1.37711e-05 2.71154e-07)
(5.91373e-06 -1.35697e-05 3.09164e-07)
(6.23154e-06 -1.31471e-05 3.52473e-07)
(6.19378e-06 -1.2581e-05 3.99199e-07)
(5.77195e-06 -1.1949e-05 4.46547e-07)
(4.96846e-06 -1.13272e-05 4.9099e-07)
(3.81955e-06 -1.07862e-05 5.28763e-07)
(2.39478e-06 -1.03865e-05 5.56272e-07)
(7.91807e-07 -1.01722e-05 5.70793e-07)
(-8.73524e-07 -1.01665e-05 5.70962e-07)
(-2.479e-06 -1.03689e-05 5.56791e-07)
(-3.90867e-06 -1.07557e-05 5.29672e-07)
(-5.06487e-06 -1.12818e-05 4.92343e-07)
(-5.87794e-06 -1.18859e-05 4.48472e-07)
(-6.31125e-06 -1.24964e-05 4.0189e-07)
(-6.36188e-06 -1.30362e-05 3.56193e-07)
(-6.05752e-06 -1.34273e-05 3.14312e-07)
(-5.45077e-06 -1.35916e-05 2.78255e-07)
(-4.61308e-06 -1.34499e-05 2.48977e-07)
(-3.62763e-06 -1.29165e-05 2.26082e-07)
(-2.58507e-06 -1.1888e-05 2.07548e-07)
(-1.57579e-06 -1.02181e-05 1.87754e-07)
(-7.05467e-07 -7.65045e-06 1.56006e-07)
(-8.18729e-08 -3.60903e-06 8.20653e-08)
(7.99561e-08 -4.50987e-06 8.0122e-08)
(7.0526e-07 -9.48742e-06 1.5393e-07)
(1.59437e-06 -1.26143e-05 1.87778e-07)
(2.63736e-06 -1.46314e-05 2.1085e-07)
(3.72742e-06 -1.58761e-05 2.33766e-07)
(4.76722e-06 -1.65368e-05 2.61922e-07)
(5.65968e-06 -1.6743e-05 2.97416e-07)
(6.31401e-06 -1.65974e-05 3.40575e-07)
(6.65194e-06 -1.61912e-05 3.90402e-07)
(6.61427e-06 -1.56125e-05 4.44578e-07)
(6.16838e-06 -1.49485e-05 4.9975e-07)
(5.3145e-06 -1.42849e-05 5.5172e-07)
(4.08965e-06 -1.37021e-05 5.95959e-07)
(2.5675e-06 -1.32692e-05 6.28179e-07)
(8.53081e-07 -1.30367e-05 6.45162e-07)
(-9.28277e-07 -1.30313e-05 6.45294e-07)
(-2.64442e-06 -1.32528e-05 6.28583e-07)
(-4.16987e-06 -1.36739e-05 5.96651e-07)
(-5.39948e-06 -1.42433e-05 5.52751e-07)
(-6.25938e-06 -1.48917e-05 5.01222e-07)
(-6.71217e-06 -1.5538e-05 4.46571e-07)
(-6.75705e-06 -1.60962e-05 3.93079e-07)
(-6.42576e-06 -1.64789e-05 3.44161e-07)
(-5.77601e-06 -1.65986e-05 3.02149e-07)
(-4.88432e-06 -1.63654e-05 2.68122e-07)
(-3.83897e-06 -1.56799e-05 2.41692e-07)
(-2.73518e-06 -1.44186e-05 2.20723e-07)
(-1.66751e-06 -1.24014e-05 1.99157e-07)
(-7.47035e-07 -9.3078e-06 1.65459e-07)
(-8.69796e-08 -4.41328e-06 8.72082e-08)
(8.71742e-08 -5.31862e-06 8.73577e-08)
(7.52116e-07 -1.11652e-05 1.66163e-07)
(1.68594e-06 -1.48388e-05 2.01167e-07)
(2.77624e-06 -1.72314e-05 2.25034e-07)
(3.91236e-06 -1.87416e-05 2.49531e-07)
(4.99656e-06 -1.95905e-05 2.80673e-07)
(5.92968e-06 -1.99266e-05 3.20712e-07)
(6.61798e-06 -1.98649e-05 3.69983e-07)
(6.97903e-06 -1.9506e-05 4.27259e-07)
(6.94878e-06 -1.89457e-05 4.89867e-07)
(6.48997e-06 -1.82788e-05 5.53863e-07)
(5.59987e-06 -1.7599e-05 6.14298e-07)
(4.31529e-06 -1.69947e-05 6.65856e-07)
(2.71316e-06 -1.65424e-05 7.03417e-07)
(9.05203e-07 -1.62988e-05 7.23166e-07)
(-9.74204e-07 -1.62938e-05 7.2327e-07)
(-2.78319e-06 -1.65273e-05 7.0373e-07)
(-4.38728e-06 -1.6969e-05 6.66386e-07)
(-5.6746e-06 -1.75618e-05 6.15066e-07)
(-6.56806e-06 -1.82288e-05 5.54902e-07)
(-7.03046e-06 -1.88815e-05 4.91283e-07)
(-7.06398e-06 -1.94258e-05 4.29158e-07)
(-6.70522e-06 -1.97673e-05 3.72452e-07)
(-6.01718e-06 -1.9811e-05 3.23869e-07)
(-5.0812e-06 -1.94576e-05 2.8466e-07)
(-3.98956e-06 -1.85947e-05 2.54431e-07)
(-2.8407e-06 -1.70779e-05 2.30875e-07)
(-1.73171e-06 -1.46913e-05 2.07607e-07)
(-7.76433e-07 -1.10456e-05 1.72435e-07)
(-9.07983e-08 -5.25801e-06 9.10689e-08)
(9.08234e-08 -6.16733e-06 9.10408e-08)
(7.74429e-07 -1.29132e-05 1.72365e-07)
(1.72897e-06 -1.71494e-05 2.0817e-07)
(2.84191e-06 -1.99306e-05 2.33141e-07)
(4.0019e-06 -2.17234e-05 2.59719e-07)
(5.11202e-06 -2.27839e-05 2.94413e-07)
(6.07262e-06 -2.32801e-05 3.3958e-07)
(6.78827e-06 -2.33381e-05 3.95585e-07)
(7.17284e-06 -2.30659e-05 4.61042e-07)
(7.15763e-06 -2.25641e-05 5.32941e-07)
(6.7002e-06 -2.19324e-05 6.06757e-07)
(5.79369e-06 -2.12697e-05 6.76722e-07)
(4.47316e-06 -2.06706e-05 7.36577e-07)
(2.81726e-06 -2.02174e-05 7.80285e-07)
(9.43159e-07 -1.99718e-05 8.03248e-07)
(-1.00659e-06 -1.99674e-05 8.0332e-07)
(-2.88118e-06 -2.02038e-05 7.80486e-07)
(-4.53801e-06 -2.06477e-05 7.36915e-07)
(-5.85975e-06 -2.1237e-05 6.77238e-07)
(-6.76751e-06 -2.18888e-05 6.07465e-07)
(-7.22606e-06 -2.25089e-05 5.33927e-07)
(-7.24188e-06 -2.29984e-05 4.62354e-07)
(-6.85694e-06 -2.32581e-05 3.97269e-07)
(-6.13919e-06 -2.31877e-05 3.41699e-07)
(-5.1741e-06 -2.26806e-05 2.97014e-07)
(-4.05637e-06 -2.16125e-05 2.62819e-07)
(-2.88549e-06 -1.98183e-05 2.36685e-07)
(-1.75854e-06 -1.7045e-05 2.11949e-07)
(-7.89202e-07 -1.28313e-05 1.75933e-07)
(-9.27834e-08 -6.12769e-06 9.30967e-08)
(9.11772e-08 -7.02806e-06 9.14037e-08)
(7.70479e-07 -1.46782e-05 1.72494e-07)
(1.71607e-06 -1.94804e-05 2.0826e-07)
(2.81924e-06 -2.26584e-05 2.34181e-07)
(3.972e-06 -2.47503e-05 2.62913e-07)
(5.08078e-06 -2.60486e-05 3.0119e-07)
(6.04795e-06 -2.67399e-05 3.5154e-07)
(6.7784e-06 -2.69605e-05 4.14386e-07)
(7.18386e-06 -2.68227e-05 4.88261e-07)
(7.19148e-06 -2.64294e-05 5.69874e-07)
(6.75327e-06 -2.58815e-05 6.54188e-07)
(5.85681e-06 -2.52793e-05 7.34639e-07)
(4.53343e-06 -2.47201e-05 8.03786e-07)
(2.8612e-06 -2.42901e-05 8.54497e-07)
(9.60566e-07 -2.40552e-05 8.81199e-07)
(-1.01939e-06 -2.40512e-05 8.81231e-07)
(-2.92006e-06 -2.42781e-05 8.54603e-07)
(-4.59234e-06 -2.46998e-05 8.0397e-07)
(-5.91564e-06 -2.52504e-05 7.34925e-07)
(-6.81179e-06 -2.58436e-05 6.54624e-07)
(-7.24942e-06 -2.63824e-05 5.70498e-07)
(-7.24068e-06 -2.67663e-05 4.89086e-07)
(-6.83321e-06 -2.68949e-05 4.15494e-07)
(-6.09938e-06 -2.66659e-05 3.5294e-07)
(-5.12712e-06 -2.59678e-05 3.02906e-07)
(-4.01121e-06 -2.46658e-05 2.64908e-07)
(-2.84945e-06 -2.2575e-05 2.36401e-07)
(-1.73575e-06 -1.94051e-05 2.10571e-07)
(-7.79768e-07 -1.46207e-05 1.74618e-07)
(-9.22613e-08 -7.00124e-06 9.2626e-08)
(8.77926e-08 -7.86959e-06 8.80552e-08)
(7.35835e-07 -1.6398e-05 1.65726e-07)
(1.63629e-06 -2.17522e-05 2.0029e-07)
(2.68905e-06 -2.53257e-05 2.26547e-07)
(3.79403e-06 -2.77289e-05 2.56994e-07)
(4.86476e-06 -2.92903e-05 2.98372e-07)
(5.80904e-06 -3.02143e-05 3.5327e-07)
(6.53499e-06 -3.06459e-05 4.22337e-07)
(6.95471e-06 -3.06988e-05 5.04216e-07)
(6.99232e-06 -3.04741e-05 5.95496e-07)
(6.59468e-06 -3.00695e-05 6.90685e-07)
(5.74238e-06 -2.95826e-05 7.82398e-07)
(4.46028e-06 -2.91088e-05 8.61953e-07)
(2.82261e-06 -2.87345e-05 9.20869e-07)
(9.49835e-07 -2.85269e-05 9.5212e-07)
(-1.00495e-06 -2.85233e-05 9.52123e-07)
(-2.87739e-06 -2.87238e-05 9.2089e-07)
(-4.5144e-06 -2.90909e-05 8.62001e-07)
(-5.79547e-06 -2.95573e-05 7.82484e-07)
(-6.64645e-06 -3.00368e-05 6.90871e-07)
(-7.04231e-06 -3.04341e-05 5.95876e-07)
(-7.00225e-06 -3.06517e-05 5.04758e-07)
(-6.57949e-06 -3.05922e-05 4.23072e-07)
(-5.84952e-06 -3.01549e-05 3.54185e-07)
(-4.90006e-06 -2.92267e-05 2.99466e-07)
(-3.82297e-06 -2.76639e-05 2.58267e-07)
(-2.71057e-06 -2.52631e-05 2.27969e-07)
(-1.64979e-06 -2.16969e-05 2.01764e-07)
(-7.41887e-07 -1.63567e-05 1.67049e-07)
(-8.84162e-08 -7.85088e-06 8.88258e-08)
(8.00586e-08 -8.65488e-06 8.03314e-08)
(6.65251e-07 -1.79979e-05 1.50768e-07)
(1.4776e-06 -2.3868e-05 1.82548e-07)
(2.43082e-06 -2.78221e-05 2.08132e-07)
(3.43812e-06 -3.05402e-05 2.39245e-07)
(4.42413e-06 -3.23854e-05 2.82367e-07)
(5.30647e-06 -3.35786e-05 3.40265e-07)
(6.00046e-06 -3.42705e-05 4.13787e-07)
(6.42195e-06 -3.4574e-05 5.01763e-07)
(6.49464e-06 -3.45848e-05 6.00952e-07)
(6.16086e-06 -3.43925e-05 7.05646e-07)
(5.3935e-06 -3.40864e-05 8.07881e-07)
(4.20865e-06 -3.37541e-05 8.97787e-07)
(2.67263e-06 -3.34766e-05 9.65268e-07)
(9.01019e-07 -3.33181e-05 1.00144e-06)
(-9.53383e-07 -3.3315e-05 1.00141e-06)
(-2.72436e-06 -3.34671e-05 9.65201e-07)
(-4.25919e-06 -3.37383e-05 8.97709e-07)
(-5.44225e-06 -3.40642e-05 8.07845e-07)
(-6.20731e-06 -3.43643e-05 7.05669e-07)
(-6.53843e-06 -3.45506e-05 6.01069e-07)
(-6.46265e-06 -3.45345e-05 5.02005e-07)
(-6.03749e-06 -3.42263e-05 4.14185e-07)
(-5.33917e-06 -3.35307e-05 3.4082e-07)
(-4.45176e-06 -3.23351e-05 2.83069e-07)
(-3.46002e-06 -3.04899e-05 2.40062e-07)
(-2.44651e-06 -2.77743e-05 2.09025e-07)
(-1.48708e-06 -2.38267e-05 1.83488e-07)
(-6.69275e-07 -1.79676e-05 1.51633e-07)
(-8.04047e-08 -8.64146e-06 8.08608e-08)
(6.73485e-08 -9.34111e-06 6.76306e-08)
(5.53907e-07 -1.93915e-05 1.2647e-07)
(1.22939e-06 -2.57148e-05 1.5357e-07)
(2.02683e-06 -3.00164e-05 1.76982e-07)
(2.87827e-06 -3.30395e-05 2.07074e-07)
(3.72385e-06 -3.51784e-05 2.49726e-07)
(4.49588e-06 -3.66683e-05 3.0768e-07)
(5.1215e-06 -3.76638e-05 3.8207e-07)
(5.52466e-06 -3.82741e-05 4.72199e-07)
(5.63256e-06 -3.85864e-05 5.7528e-07)
(5.38559e-06 -3.86776e-05 6.8578e-07)
(4.74954e-06 -3.86221e-05 7.95404e-07)
(3.72933e-06 -3.84935e-05 8.93318e-07)
(2.37893e-06 -3.83598e-05 9.67994e-07)
(8.02906e-07 -3.82758e-05 1.00859e-06)
(-8.53196e-07 -3.8273e-05 1.00855e-06)
(-2.42833e-06 -3.83513e-05 9.67921e-07)
(-3.77711e-06 -3.84796e-05 8.93188e-07)
(-4.79501e-06 -3.86028e-05 7.95258e-07)
(-5.4283e-06 -3.86532e-05 6.85677e-07)
(-5.67196e-06 -3.85575e-05 5.75282e-07)
(-5.56034e-06 -3.82412e-05 4.72295e-07)
(-5.15308e-06 -3.76273e-05 3.82256e-07)
(-4.52298e-06 -3.66294e-05 3.07979e-07)
(-3.74608e-06 -3.51382e-05 2.50136e-07)
(-2.89535e-06 -3.3e-05 2.07586e-07)
(-2.03866e-06 -2.99795e-05 1.77572e-07)
(-1.23625e-06 -2.56835e-05 1.54184e-07)
(-5.56656e-07 -1.93689e-05 1.27066e-07)
(-6.75219e-08 -9.33128e-06 6.80204e-08)
(4.92117e-08 -9.88075e-06 4.94913e-08)
(3.9901e-07 -2.04831e-05 9.19926e-08)
(8.85693e-07 -2.71672e-05 1.12191e-07)
(1.46694e-06 -3.17607e-05 1.31534e-07)
(2.09886e-06 -3.50599e-05 1.58162e-07)
(2.74159e-06 -3.74845e-05 1.96923e-07)
(3.34683e-06 -3.92808e-05 2.50427e-07)
(3.85889e-06 -4.06056e-05 3.20026e-07)
(4.2154e-06 -4.15624e-05 4.05515e-07)
(4.35209e-06 -4.22267e-05 5.0468e-07)
(4.21142e-06 -4.26592e-05 6.12653e-07)
(3.75427e-06 -4.29146e-05 7.2161e-07)
(2.97424e-06 -4.30451e-05 8.20518e-07)
(1.90875e-06 -4.3098e-05 8.97071e-07)
(6.43849e-07 -4.31119e-05 9.39222e-07)
(-6.92675e-07 -4.31095e-05 9.39154e-07)
(-1.95658e-06 -4.30907e-05 8.96947e-07)
(-3.02012e-06 -4.30329e-05 8.2032e-07)
(-3.7974e-06 -4.28978e-05 7.21414e-07)
(-4.25127e-06 -4.26384e-05 6.12459e-07)
(-4.38816e-06 -4.22021e-05 5.04548e-07)
(-4.24745e-06 -4.15347e-05 4.05425e-07)
(-3.8866e-06 -4.05753e-05 3.20033e-07)
(-3.36999e-06 -3.9249e-05 2.50539e-07)
(-2.76006e-06 -3.74521e-05 1.97114e-07)
(-2.11262e-06 -3.50286e-05 1.58441e-07)
(-1.47611e-06 -3.17319e-05 1.31885e-07)
(-8.90755e-07 -2.7143e-05 1.12578e-07)
(-4.00885e-07 -2.04659e-05 9.24099e-08)
(-4.92713e-08 -9.87343e-06 4.98072e-08)
(2.56361e-08 -1.02245e-05 2.594e-08)
(2.01196e-07 -2.11742e-05 4.73693e-08)
(4.48185e-07 -2.80949e-05 5.83748e-08)
(7.53702e-07 -3.29002e-05 7.14654e-08)
(1.10236e-06 -3.64226e-05 9.16987e-08)
(1.47833e-06 -3.91001e-05 1.22414e-07)
(1.85721e-06 -4.11859e-05 1.6568e-07)
(2.20553e-06 -4.28357e-05 2.2297e-07)
(2.48053e-06 -4.41465e-05 2.94576e-07)
(2.63257e-06 -4.51805e-05 3.79137e-07)
(2.61212e-06 -4.598e-05 4.7284e-07)
(2.37933e-06 -4.65759e-05 5.69007e-07)
(1.91719e-06 -4.69951e-05 6.57636e-07)
(1.24356e-06 -4.72592e-05 7.27193e-07)
(4.17201e-07 -4.73852e-05 7.65899e-07)
(-4.64917e-07 -4.73834e-05 7.65833e-07)
(-1.29011e-06 -4.72531e-05 7.27057e-07)
(-1.96155e-06 -4.69846e-05 6.57392e-07)
(-2.42068e-06 -4.65616e-05 5.68716e-07)
(-2.64995e-06 -4.5962e-05 4.72515e-07)
(-2.66632e-06 -4.51595e-05 3.78894e-07)
(-2.50996e-06 -4.4123e-05 2.94373e-07)
(-2.23047e-06 -4.28104e-05 2.22863e-07)
(-1.87757e-06 -4.11597e-05 1.65654e-07)
(-1.49414e-06 -3.90738e-05 1.22442e-07)
(-1.11378e-06 -3.63975e-05 9.18156e-08)
(-7.6106e-07 -3.28774e-05 7.16539e-08)
(-4.52063e-07 -2.80761e-05 5.86565e-08)
(-2.02517e-07 -2.11609e-05 4.76812e-08)
(-2.5639e-08 -1.0219e-05 2.62049e-08)
(-2.756e-09 -1.03265e-05 -2.48072e-09)
(-3.40768e-08 -2.13735e-05 -6.35399e-09)
(-7.09913e-08 -2.83771e-05 -6.68881e-09)
(-9.34572e-08 -3.32882e-05 -2.08335e-09)
(-8.46439e-08 -3.69551e-05 8.66792e-09)
(-3.37102e-08 -3.98233e-05 2.67891e-08)
(6.28751e-08 -4.21479e-05 5.36743e-08)
(1.98577e-07 -4.40809e-05 9.04924e-08)
(3.5571e-07 -4.57107e-05 1.37872e-07)
(5.05835e-07 -4.70857e-05 1.95437e-07)
(6.13484e-07 -4.82292e-05 2.60737e-07)
(6.43111e-07 -4.91494e-05 3.29358e-07)
(5.696e-07 -4.9846e-05 3.93785e-07)
(3.88812e-07 -5.03145e-05 4.4518e-07)
(1.24482e-07 -5.05495e-05 4.74135e-07)
(-1.71245e-07 -5.05477e-05 4.74057e-07)
(-4.34268e-07 -5.03088e-05 4.44987e-07)
(-6.12777e-07 -4.98366e-05 3.93462e-07)
(-6.83123e-07 -4.91368e-05 3.2899e-07)
(-6.49635e-07 -4.82135e-05 2.60352e-07)
(-5.37759e-07 -4.70676e-05 1.95064e-07)
(-3.83203e-07 -4.56906e-05 1.37559e-07)
(-2.2151e-07 -4.40596e-05 9.02236e-08)
(-8.12558e-08 -4.21261e-05 5.35055e-08)
(1.97574e-08 -3.98016e-05 2.6703e-08)
(7.48327e-08 -3.69348e-05 8.62915e-09)
(8.73224e-08 -3.32699e-05 -2.01982e-09)
(6.79265e-08 -2.83622e-05 -6.53052e-09)
(3.31731e-08 -2.13631e-05 -6.12368e-09)
(2.82257e-09 -1.03222e-05 -2.23638e-09)
(-3.48103e-08 -1.01491e-05 -3.4527e-08)
(-2.96268e-07 -2.1007e-05 -6.67786e-08)
(-6.48103e-07 -2.79156e-05 -8.00778e-08)
(-1.03574e-06 -3.28049e-05 -8.58586e-08)
(-1.40817e-06 -3.65142e-05 -8.72874e-08)
(-1.72605e-06 -3.94831e-05 -8.55942e-08)
(-1.95533e-06 -4.19623e-05 -8.04669e-08)
(-2.07181e-06 -4.40971e-05 -7.12043e-08)
(-2.06339e-06 -4.59659e-05 -5.69438e-08)
(-1.93218e-06 -4.76049e-05 -3.70856e-08)
(-1.69378e-06 -4.90201e-05 -1.20707e-08)
(-1.37463e-06 -5.01987e-05 1.65763e-08)
(-1.00561e-06 -5.11177e-05 4.51504e-08)
(-6.14702e-07 -5.17506e-05 6.90677e-08)
(-2.19922e-07 -5.20735e-05 8.29513e-08)
(1.74371e-07 -5.20717e-05 8.28456e-08)
(5.70421e-07 -5.17454e-05 6.88273e-08)
(9.63701e-07 -5.11092e-05 4.47985e-08)
(1.33594e-06 -5.01872e-05 1.61457e-08)
(1.65895e-06 -4.90059e-05 -1.25036e-08)
(1.90162e-06 -4.75889e-05 -3.75204e-08)
(2.03733e-06 -4.59485e-05 -5.73267e-08)
(2.05033e-06 -4.40787e-05 -7.15411e-08)
(1.93832e-06 -4.19438e-05 -8.07196e-08)
(1.71335e-06 -3.9465e-05 -8.57585e-08)
(1.39945e-06 -3.64973e-05 -8.73753e-08)
(1.03048e-06 -3.27901e-05 -8.5855e-08)
(6.45618e-07 -2.79037e-05 -7.99873e-08)
(2.95614e-07 -2.09987e-05 -6.65908e-08)
(3.49022e-08 -1.01457e-05 -3.43059e-08)
(-6.85093e-08 -9.66983e-06 -6.82592e-08)
(-5.69471e-07 -2.00314e-05 -1.30352e-07)
(-1.24852e-06 -2.66527e-05 -1.57484e-07)
(-2.01691e-06 -3.13776e-05 -1.74749e-07)
(-2.78943e-06 -3.50089e-05 -1.90075e-07)
(-3.49779e-06 -3.79672e-05 -2.07415e-07)
(-4.07638e-06 -4.04905e-05 -2.27762e-07)
(-4.46832e-06 -4.27146e-05 -2.50896e-07)
(-4.62878e-06 -4.47084e-05 -2.75701e-07)
(-4.52966e-06 -4.64963e-05 -3.00582e-07)
(-4.16293e-06 -4.80709e-05 -3.23719e-07)
(-3.54283e-06 -4.9405e-05 -3.43292e-07)
(-2.70429e-06 -5.04592e-05 -3.58167e-07)
(-1.69969e-06 -5.11923e-05 -3.67696e-07)
(-5.92797e-07 -5.15687e-05 -3.72153e-07)
(5.48823e-07 -5.15671e-05 -3.72243e-07)
(1.65693e-06 -5.11876e-05 -3.6794e-07)
(2.66376e-06 -5.04516e-05 -3.58549e-07)
(3.50544e-06 -4.93946e-05 -3.43718e-07)
(4.12938e-06 -4.80583e-05 -3.24158e-07)
(4.50035e-06 -4.64822e-05 -3.01053e-07)
(4.60387e-06 -4.46932e-05 -2.76133e-07)
(4.44792e-06 -4.26988e-05 -2.51245e-07)
(4.06041e-06 -4.04749e-05 -2.28081e-07)
(3.48597e-06 -3.79521e-05 -2.07644e-07)
(2.78144e-06 -3.49951e-05 -1.90196e-07)
(2.01224e-06 -3.13655e-05 -1.74795e-07)
(1.24638e-06 -2.6643e-05 -1.57435e-07)
(5.68997e-07 -2.00248e-05 -1.30179e-07)
(6.86337e-08 -9.66713e-06 -6.80359e-08)
(-1.01417e-07 -8.88636e-06 -1.01178e-07)
(-8.3377e-07 -1.84439e-05 -1.92367e-07)
(-1.82867e-06 -2.45839e-05 -2.33098e-07)
(-2.96634e-06 -2.89972e-05 -2.62018e-07)
(-4.12986e-06 -3.2422e-05 -2.91739e-07)
(-5.22339e-06 -3.52463e-05 -3.28902e-07)
(-6.15002e-06 -3.76894e-05 -3.75731e-07)
(-6.81996e-06 -3.98742e-05 -4.32607e-07)
(-7.1549e-06 -4.186e-05 -4.98151e-07)
(-7.09534e-06 -4.36617e-05 -5.69629e-07)
(-6.60863e-06 -4.52643e-05 -6.42919e-07)
(-5.69529e-06 -4.66321e-05 -7.12523e-07)
(-4.39341e-06 -4.77185e-05 -7.72437e-07)
(-2.77967e-06 -4.84767e-05 -8.16562e-07)
(-9.63948e-07 -4.88667e-05 -8.39989e-07)
(9.21963e-07 -4.88652e-05 -8.4005e-07)
(2.7388e-06 -4.84725e-05 -8.16725e-07)
(4.35474e-06 -4.77116e-05 -7.72709e-07)
(5.65952e-06 -4.66226e-05 -7.12881e-07)
(6.57648e-06 -4.5253e-05 -6.43305e-07)
(7.06718e-06 -4.3649e-05 -5.70022e-07)
(7.13101e-06 -4.18466e-05 -4.98548e-07)
(6.80048e-06 -3.98607e-05 -4.32948e-07)
(6.13482e-06 -3.7676e-05 -3.76043e-07)
(5.21223e-06 -3.52336e-05 -3.29154e-07)
(4.1224e-06 -3.24106e-05 -2.91923e-07)
(2.96203e-06 -2.89874e-05 -2.6211e-07)
(1.82674e-06 -2.45762e-05 -2.33082e-07)
(8.33369e-07 -1.84387e-05 -1.92213e-07)
(1.01544e-07 -8.88425e-06 -1.00963e-07)
(-1.30574e-07 -7.8205e-06 -1.30358e-07)
(-1.06597e-06 -1.629e-05 -2.47294e-07)
(-2.33908e-06 -2.17681e-05 -3.00194e-07)
(-3.80533e-06 -2.57296e-05 -3.39739e-07)
(-5.32085e-06 -2.88231e-05 -3.82811e-07)
(-6.76511e-06 -3.13915e-05 -4.38543e-07)
(-8.01223e-06 -3.36298e-05 -5.1023e-07)
(-8.94106e-06 -3.56463e-05 -5.98687e-07)
(-9.44132e-06 -3.7491e-05 -7.02352e-07)
(-9.42407e-06 -3.91734e-05 -8.17258e-07)
(-8.83283e-06 -4.06748e-05 -9.36966e-07)
(-7.65524e-06 -4.19583e-05 -1.05263e-06)
(-5.93261e-06 -4.29783e-05 -1.1538e-06)
(-3.76412e-06 -4.36894e-05 -1.22937e-06)
(-1.30209e-06 -4.40548e-05 -1.26991e-06)
(1.26277e-06 -4.40534e-05 -1.26995e-06)
(3.72571e-06 -4.36853e-05 -1.22953e-06)
(5.89605e-06 -4.29718e-05 -1.15402e-06)
(7.62131e-06 -4.19499e-05 -1.05291e-06)
(8.80221e-06 -4.06649e-05 -9.37307e-07)
(9.39718e-06 -3.91624e-05 -8.17608e-07)
(9.41852e-06 -3.74794e-05 -7.02704e-07)
(8.92242e-06 -3.56347e-05 -5.99036e-07)
(7.99765e-06 -3.36185e-05 -5.1054e-07)
(6.75447e-06 -3.13809e-05 -4.38803e-07)
(5.31374e-06 -2.88137e-05 -3.83011e-07)
(3.80123e-06 -2.57217e-05 -3.39812e-07)
(2.33736e-06 -2.1762e-05 -3.00179e-07)
(1.06566e-06 -1.62859e-05 -2.47159e-07)
(1.30709e-07 -7.81888e-06 -1.30149e-07)
(-1.52708e-07 -6.52118e-06 -1.5252e-07)
(-1.24151e-06 -1.36683e-05 -2.8893e-07)
(-2.72825e-06 -1.83332e-05 -3.50977e-07)
(-4.45295e-06 -2.17221e-05 -3.98698e-07)
(-6.25231e-06 -2.43736e-05 -4.52455e-07)
(-7.98519e-06 -2.65775e-05 -5.23342e-07)
(-9.50052e-06 -2.85007e-05 -6.15636e-07)
(-1.06495e-05 -3.02356e-05 -7.30468e-07)
(-1.12938e-05 -3.18245e-05 -8.65842e-07)
(-1.13184e-05 -3.32738e-05 -1.01663e-06)
(-1.06468e-05 -3.45656e-05 -1.17442e-06)
(-9.25607e-06 -3.56673e-05 -1.32751e-06)
(-7.19053e-06 -3.654e-05 -1.46177e-06)
(-4.5685e-06 -3.71465e-05 -1.56233e-06)
(-1.57799e-06 -3.74572e-05 -1.61641e-06)
(1.54174e-06 -3.7456e-05 -1.61643e-06)
(4.53298e-06 -3.7143e-05 -1.56242e-06)
(7.1566e-06 -3.65345e-05 -1.46191e-06)
(9.22442e-06 -3.56599e-05 -1.3277e-06)
(1.0618e-05 -3.45569e-05 -1.17466e-06)
(1.1293e-05 -3.32643e-05 -1.01689e-06)
(1.12721e-05 -3.18147e-05 -8.66135e-07)
(1.06317e-05 -3.02258e-05 -7.30759e-07)
(9.48662e-06 -2.84913e-05 -6.159e-07)
(7.97505e-06 -2.65689e-05 -5.23567e-07)
(6.24555e-06 -2.43661e-05 -4.52658e-07)
(4.44908e-06 -2.17158e-05 -3.98798e-07)
(2.72659e-06 -1.83284e-05 -3.50976e-07)
(1.24121e-06 -1.36652e-05 -2.88806e-07)
(1.52837e-07 -6.52003e-06 -1.52322e-07)
(-1.6424e-07 -5.06607e-06 -1.64073e-07)
(-1.33503e-06 -1.07322e-05 -3.10373e-07)
(-2.94533e-06 -1.44764e-05 -3.76694e-07)
(-4.8319e-06 -1.72021e-05 -4.28372e-07)
(-6.82126e-06 -1.93271e-05 -4.88201e-07)
(-8.75667e-06 -2.10829e-05 -5.68685e-07)
(-1.0467e-05 -2.26067e-05 -6.74867e-07)
(-1.17809e-05 -2.39752e-05 -8.07973e-07)
(-1.25382e-05 -2.5224e-05 -9.65597e-07)
(-1.26038e-05 -2.63587e-05 -1.1416e-06)
(-1.18858e-05 -2.73653e-05 -1.32601e-06)
(-1.03538e-05 -2.82191e-05 -1.50496e-06)
(-8.05493e-06 -2.88917e-05 -1.66188e-06)
(-5.1216e-06 -2.93565e-05 -1.77932e-06)
(-1.76737e-06 -2.95937e-05 -1.84244e-06)
(1.73466e-06 -2.95928e-05 -1.84244e-06)
(5.08949e-06 -2.93536e-05 -1.77935e-06)
(8.02408e-06 -2.88872e-05 -1.66195e-06)