/*--------------------------------*- C++ -*----------------------------------*\
| =========                 |                                                 |
| \\      /  F ield         | OpenFOAM: The Open Source CFD Toolbox           |
|  \\    /   O peration     | Version:  v1906                                 |
|   \\  /    A nd           | Web:      www.OpenFOAM.com                      |
|    \\/     M anipulation  |                                                 |
\*---------------------------------------------------------------------------*/
FoamFile
{
    version     2.0;
    format      ascii;
    class       volVectorField;
    location    "23/oil";
    object      U;
}
// * * * * * * * * * * * * * * * * * * * * * * * * * * * * * * * * * * * * * //

dimensions      [0 1 -1 0 0 0 0];


internalField   nonuniform List<vector> 
27760
(
(-2.92057e-05 -2.97977e-05 -2.92057e-05)
(-5.76842e-05 -2.23633e-05 -2.10275e-05)
(-4.28562e-06 -5.81328e-06 -5.72168e-06)
(-7.06594e-06 -9.66653e-07 -1.00144e-06)
(-1.7663e-06 -3.29039e-07 -3.64977e-07)
(-1.03926e-06 -1.59187e-07 -1.91308e-07)
(-3.86913e-07 -5.91084e-08 -9.04908e-08)
(-9.9205e-08 -2.00648e-08 -5.22598e-08)
(5.72996e-08 -5.67539e-10 -3.38875e-08)
(1.32731e-07 9.52946e-09 -2.47466e-08)
(1.5965e-07 1.54875e-08 -1.94628e-08)
(1.52932e-07 1.93629e-08 -1.59894e-08)
(1.21937e-07 2.19589e-08 -1.36006e-08)
(7.35697e-08 2.3595e-08 -1.20312e-08)
(1.42314e-08 2.44732e-08 -1.1172e-08)
(-4.97645e-08 2.46436e-08 -1.09981e-08)
(-1.12367e-07 2.41562e-08 -1.14589e-08)
(-1.68073e-07 2.30865e-08 -1.2448e-08)
(-2.12319e-07 2.15424e-08 -1.38004e-08)
(-2.41869e-07 1.95835e-08 -1.53424e-08)
(-2.55047e-07 1.73254e-08 -1.68524e-08)
(-2.51692e-07 1.4923e-08 -1.8086e-08)
(-2.33048e-07 1.24771e-08 -1.87786e-08)
(-2.01602e-07 1.00504e-08 -1.87126e-08)
(-1.60984e-07 7.66677e-09 -1.77719e-08)
(-1.15755e-07 5.41972e-09 -1.5814e-08)
(-7.11746e-08 3.5048e-09 -1.28278e-08)
(-3.30693e-08 2.3041e-09 -9.04955e-09)
(-6.9963e-09 2.42944e-09 -5.23363e-09)
(1.81735e-09 3.45474e-09 -1.69532e-09)
(-2.12042e-05 -5.92523e-05 -2.12042e-05)
(-7.02572e-06 -7.59058e-06 -9.49785e-06)
(-9.61522e-06 -9.15199e-06 -3.31718e-06)
(-4.7164e-06 -2.5035e-06 -9.42441e-07)
(-2.2387e-06 -1.43394e-06 -4.60447e-07)
(-1.1697e-06 -6.90287e-07 -2.18817e-07)
(-4.47983e-07 -3.79355e-07 -1.02366e-07)
(-5.47878e-08 -2.21137e-07 -4.88286e-08)
(1.74377e-07 -1.38203e-07 -2.06011e-08)
(2.91287e-07 -9.0016e-08 -4.59877e-09)
(3.30301e-07 -5.93396e-08 5.73771e-09)
(3.10116e-07 -3.82646e-08 1.30339e-08)
(2.44467e-07 -2.34697e-08 1.83448e-08)
(1.45389e-07 -1.35963e-08 2.19898e-08)
(2.4872e-08 -8.08157e-09 2.39721e-08)
(-1.04888e-07 -6.65337e-09 2.43056e-08)
(-2.31886e-07 -8.9869e-09 2.30811e-08)
(-3.45134e-07 -1.45835e-08 2.05049e-08)
(-4.35582e-07 -2.27416e-08 1.69048e-08)
(-4.9677e-07 -3.26644e-08 1.27215e-08)
(-5.25212e-07 -4.34602e-08 8.4048e-09)
(-5.20577e-07 -5.42288e-08 4.36551e-09)
(-4.85449e-07 -6.41181e-08 1.01815e-09)
(-4.24909e-07 -7.23221e-08 -1.30282e-09)
(-3.4612e-07 -7.79969e-08 -2.37725e-09)
(-2.57847e-07 -8.00108e-08 -2.10725e-09)
(-1.69885e-07 -7.6742e-08 -6.22282e-10)
(-9.22569e-08 -6.59351e-08 1.56095e-09)
(-3.41161e-08 -4.47538e-08 3.22709e-09)
(-2.4791e-09 -1.40083e-08 2.66115e-09)
(-5.87989e-06 -5.41723e-06 -5.8799e-06)
(-9.37588e-06 -1.00655e-05 -3.41585e-06)
(-5.15088e-06 -5.35918e-06 -1.51815e-06)
(-3.39711e-06 -2.76815e-06 -7.25093e-07)
(-1.81844e-06 -1.68639e-06 -3.47973e-07)
(-9.28306e-07 -1.02526e-06 -1.64454e-07)
(-3.1262e-07 -6.91082e-07 -7.14287e-08)
(6.34495e-08 -5.01279e-07 -2.42614e-08)
(2.93674e-07 -3.89318e-07 2.66486e-09)
(4.13126e-07 -3.17412e-07 1.94521e-08)
(4.47302e-07 -2.67763e-07 3.12616e-08)
(4.123e-07 -2.31703e-07 4.01422e-08)
(3.21907e-07 -2.05394e-07 4.68419e-08)
(1.89787e-07 -1.87315e-07 5.14971e-08)
(3.0577e-08 -1.7696e-07 5.40342e-08)
(-1.40272e-07 -1.7397e-07 5.44148e-08)
(-3.07366e-07 -1.77772e-07 5.27276e-08)
(-4.56525e-07 -1.87402e-07 4.92268e-08)
(-5.76017e-07 -2.01473e-07 4.43281e-08)
(-6.57505e-07 -2.18286e-07 3.85572e-08)
(-6.96575e-07 -2.3601e-07 3.24757e-08)
(-6.92856e-07 -2.5282e-07 2.66198e-08)
(-6.49693e-07 -2.66891e-07 2.14622e-08)
(-5.73643e-07 -2.76377e-07 1.73684e-08)
(-4.73757e-07 -2.79211e-07 1.45542e-08)
(-3.60869e-07 -2.72803e-07 1.30552e-08)
(-2.46752e-07 -2.53639e-07 1.26421e-08)
(-1.42867e-07 -2.16978e-07 1.26248e-08)
(-6.00114e-08 -1.56394e-07 1.15938e-08)
(-6.42002e-09 -6.58125e-08 6.65311e-09)
(-1.07864e-06 -7.71461e-06 -1.07864e-06)
(-2.62384e-06 -5.38899e-06 -9.94518e-07)
(-2.46616e-06 -4.06202e-06 -7.33176e-07)
(-1.86654e-06 -2.62417e-06 -4.01142e-07)
(-1.08198e-06 -1.83626e-06 -2.06542e-07)
(-5.13629e-07 -1.32478e-06 -9.77647e-08)
(-7.17495e-08 -1.0289e-06 -3.57087e-08)
(2.30383e-07 -8.4352e-07 -1.97498e-10)
(4.24897e-07 -7.2303e-07 2.237e-08)
(5.25056e-07 -6.3885e-07 3.8078e-08)
(5.4377e-07 -5.7657e-07 5.01152e-08)
(4.916e-07 -5.28986e-07 5.97038e-08)
(3.8015e-07 -4.93059e-07 6.71744e-08)
(2.22961e-07 -4.67815e-07 7.24443e-08)
(3.57702e-08 -4.53067e-07 7.53188e-08)
(-1.64157e-07 -4.48567e-07 7.5701e-08)
(-3.59342e-07 -4.53574e-07 7.36671e-08)
(-5.33555e-07 -4.66661e-07 6.94974e-08)
(-6.73347e-07 -4.85702e-07 6.36739e-08)
(-7.69212e-07 -5.08092e-07 5.67907e-08)
(-8.16174e-07 -5.30955e-07 4.94904e-08)
(-8.13916e-07 -5.51367e-07 4.23764e-08)
(-7.66336e-07 -5.66397e-07 3.59612e-08)
(-6.80885e-07 -5.73031e-07 3.06244e-08)
(-5.67677e-07 -5.67874e-07 2.65711e-08)
(-4.38569e-07 -5.46736e-07 2.38042e-08)
(-3.06241e-07 -5.04018e-07 2.20518e-08)
(-1.8279e-07 -4.31947e-07 2.05263e-08)
(-8.04268e-08 -3.18669e-07 1.76915e-08)
(-9.38738e-09 -1.44457e-07 9.68222e-09)
(-3.74868e-07 -2.33171e-06 -3.74874e-07)
(-1.38985e-06 -3.11208e-06 -4.6914e-07)
(-1.28417e-06 -2.88366e-06 -3.47843e-07)
(-9.87951e-07 -2.3058e-06 -2.05866e-07)
(-5.47365e-07 -1.89126e-06 -1.07484e-07)
(-1.67409e-07 -1.5771e-06 -4.56778e-08)
(1.53764e-07 -1.36585e-06 -6.34011e-09)
(3.90815e-07 -1.21673e-06 1.91182e-08)
(5.47533e-07 -1.10834e-06 3.73957e-08)
(6.24317e-07 -1.02505e-06 5.16598e-08)
(6.25272e-07 -9.58577e-07 6.3542e-08)
(5.56375e-07 -9.04936e-07 7.3531e-08)
(4.26969e-07 -8.62919e-07 8.15519e-08)
(2.49952e-07 -8.32677e-07 8.72983e-08)
(4.14951e-08 -8.14696e-07 9.04319e-08)
(-1.80047e-07 -8.09008e-07 9.07895e-08)
(-3.95831e-07 -8.14816e-07 8.84313e-08)
(-5.88233e-07 -8.30329e-07 8.36584e-08)
(-7.42641e-07 -8.52743e-07 7.70241e-08)
(-8.48795e-07 -8.78574e-07 6.91902e-08)
(-9.01433e-07 -9.0395e-07 6.08813e-08)
(-9.00375e-07 -9.24904e-07 5.27607e-08)
(-8.49949e-07 -9.37416e-07 4.53775e-08)
(-7.58211e-07 -9.37336e-07 3.91229e-08)
(-6.35905e-07 -9.19972e-07 3.41988e-08)
(-4.95431e-07 -8.79503e-07 3.05877e-08)
(-3.49935e-07 -8.08053e-07 2.79959e-08)
(-2.11949e-07 -6.94147e-07 2.5572e-08)
(-9.49976e-08 -5.18645e-07 2.16747e-08)
(-1.13724e-08 -2.43019e-07 1.17323e-08)
(-1.7572e-07 -1.63589e-06 -1.75726e-07)
(-5.68892e-07 -2.30391e-06 -2.08019e-07)
(-5.62239e-07 -2.3962e-06 -1.58182e-07)
(-4.14316e-07 -2.213e-06 -9.60555e-08)
(-1.53795e-07 -2.02889e-06 -4.61695e-08)
(1.07132e-07 -1.86005e-06 -1.11241e-08)
(3.44292e-07 -1.72731e-06 1.40831e-08)
(5.29469e-07 -1.62045e-06 3.28101e-08)
(6.529e-07 -1.53297e-06 4.81023e-08)
(7.07557e-07 -1.45879e-06 6.13758e-08)
(6.91809e-07 -1.39492e-06 7.325e-08)
(6.08207e-07 -1.34053e-06 8.36823e-08)
(4.6418e-07 -1.29637e-06 9.22668e-08)
(2.71869e-07 -1.26381e-06 9.84936e-08)
(4.75735e-08 -1.24411e-06 1.01881e-07)
(-1.89704e-07 -1.23766e-06 1.02205e-07)
(-4.20239e-07 -1.24367e-06 9.95087e-08)
(-6.25451e-07 -1.26011e-06 9.4115e-08)
(-7.89944e-07 -1.28365e-06 8.66568e-08)
(-9.02999e-07 -1.31009e-06 7.78797e-08)
(-9.59277e-07 -1.33474e-06 6.8603e-08)
(-9.58787e-07 -1.35274e-06 5.95526e-08)
(-9.06256e-07 -1.35912e-06 5.1317e-08)
(-8.10195e-07 -1.34874e-06 4.43066e-08)
(-6.81728e-07 -1.31568e-06 3.87223e-08)
(-5.33546e-07 -1.25246e-06 3.45328e-08)
(-3.79063e-07 -1.14874e-06 3.1426e-08)
(-2.31135e-07 -9.88656e-07 2.85047e-08)
(-1.04332e-07 -7.44282e-07 2.40394e-08)
(-1.25693e-08 -3.54903e-07 1.29913e-08)
(-6.48632e-08 -1.09437e-06 -6.48678e-08)
(-2.25814e-07 -1.87182e-06 -8.33658e-08)
(-2.00671e-07 -2.1828e-06 -6.3171e-08)
(-8.81213e-08 -2.24317e-06 -3.5335e-08)
(9.79926e-08 -2.22487e-06 -9.7201e-09)
(2.9688e-07 -2.17054e-06 1.06914e-08)
(4.83637e-07 -2.10896e-06 2.75931e-08)
(6.33315e-07 -2.04621e-06 4.21373e-08)
(7.31752e-07 -1.98523e-06 5.55496e-08)
(7.68769e-07 -1.92665e-06 6.82775e-08)
(7.39668e-07 -1.87159e-06 8.03158e-08)
(6.4485e-07 -1.82188e-06 9.12561e-08)
(4.90365e-07 -1.77992e-06 1.00426e-07)
(2.87709e-07 -1.74815e-06 1.0714e-07)
(5.31223e-08 -1.72852e-06 1.10775e-07)
(-1.94056e-07 -1.72173e-06 1.11063e-07)
(-4.33649e-07 -1.72709e-06 1.08029e-07)
(-6.46501e-07 -1.74246e-06 1.02011e-07)
(-8.16756e-07 -1.76422e-06 9.37282e-08)
(-9.33496e-07 -1.78769e-06 8.40199e-08)
(-9.91425e-07 -1.80765e-06 7.38036e-08)
(-9.90828e-07 -1.81861e-06 6.38736e-08)
(-9.36797e-07 -1.81495e-06 5.48695e-08)
(-8.38154e-07 -1.79066e-06 4.72123e-08)
(-7.06253e-07 -1.73873e-06 4.11047e-08)
(-5.53883e-07 -1.65003e-06 3.6501e-08)
(-3.94532e-07 -1.51152e-06 3.30741e-08)
(-2.41215e-07 -1.3025e-06 2.98967e-08)
(-1.09117e-07 -9.8513e-07 2.51744e-08)
(-1.31432e-08 -4.74555e-07 1.36211e-08)
(-2.29308e-08 -9.37479e-07 -2.29345e-08)
(-6.06392e-08 -1.76776e-06 -2.8193e-08)
(-8.41764e-09 -2.19306e-06 -1.79221e-08)
(9.90327e-08 -2.39124e-06 -4.0162e-09)
(2.52438e-07 -2.48199e-06 1.02131e-08)
(4.1751e-07 -2.51135e-06 2.31978e-08)
(5.73199e-07 -2.50892e-06 3.55956e-08)
(6.98603e-07 -2.48777e-06 4.77713e-08)
(7.78873e-07 -2.45571e-06 6.01243e-08)
(8.02858e-07 -2.41732e-06 7.26244e-08)
(7.64411e-07 -2.37635e-06 8.49127e-08)
(6.62667e-07 -2.33636e-06 9.63361e-08)
(5.02723e-07 -2.30092e-06 1.06027e-07)
(2.95486e-07 -2.27318e-06 1.13167e-07)
(5.69722e-08 -2.25548e-06 1.17011e-07)
(-1.93514e-07 -2.24873e-06 1.17261e-07)
(-4.3583e-07 -2.25237e-06 1.13933e-07)
(-6.50681e-07 -2.26433e-06 1.07364e-07)
(-8.22076e-07 -2.28092e-06 9.83586e-08)
(-9.39141e-07 -2.29738e-06 8.78335e-08)
(-9.96772e-07 -2.30828e-06 7.68001e-08)
(-9.95548e-07 -2.30784e-06 6.6124e-08)
(-9.40842e-07 -2.29006e-06 5.64914e-08)
(-8.41635e-07 -2.24832e-06 4.83288e-08)
(-7.0933e-07 -2.17464e-06 4.18366e-08)
(-5.56601e-07 -2.05827e-06 3.69528e-08)
(-3.96767e-07 -1.88333e-06 3.33438e-08)
(-2.42741e-07 -1.62395e-06 3.0067e-08)
(-1.09808e-07 -1.23187e-06 2.53073e-08)
(-1.31953e-08 -5.97178e-07 1.3721e-08)
(-4.13742e-09 -9.09814e-07 -4.14029e-09)
(1.56604e-08 -1.80644e-06 -2.29142e-09)
(8.79641e-08 -2.31471e-06 4.00104e-09)
(1.97153e-07 -2.60506e-06 1.17669e-08)
(3.34867e-07 -2.77419e-06 2.048e-08)
(4.79884e-07 -2.86808e-06 2.9614e-08)
(6.15091e-07 -2.91592e-06 3.95081e-08)
(7.23193e-07 -2.93383e-06 5.02643e-08)
(7.90206e-07 -2.93205e-06 6.19219e-08)
(8.05148e-07 -2.91726e-06 7.42186e-08)
(7.61431e-07 -2.8947e-06 8.66074e-08)
(6.57536e-07 -2.86888e-06 9.82941e-08)
(4.97907e-07 -2.84387e-06 1.08279e-07)
(2.92852e-07 -2.82308e-06 1.15659e-07)
(5.78906e-08 -2.80902e-06 1.19593e-07)
(-1.88194e-07 -2.80262e-06 1.19808e-07)
(-4.25876e-07 -2.80344e-06 1.16309e-07)
(-6.36261e-07 -2.80964e-06 1.0939e-07)
(-8.03649e-07 -2.81777e-06 9.99217e-08)
(-9.17472e-07 -2.82327e-06 8.88723e-08)
(-9.72879e-07 -2.82085e-06 7.73302e-08)
(-9.70736e-07 -2.80487e-06 6.62028e-08)
(-9.16559e-07 -2.76922e-06 5.61998e-08)
(-8.19303e-07 -2.7069e-06 4.77581e-08)
(-6.90142e-07 -2.60913e-06 4.10694e-08)
(-5.41357e-07 -2.46359e-06 3.60646e-08)
(-3.85801e-07 -2.25157e-06 3.2402e-08)
(-2.35944e-07 -1.9419e-06 2.91519e-08)
(-1.0664e-07 -1.47576e-06 2.45401e-08)
(-1.27756e-08 -7.18356e-07 1.33408e-08)
(3.6506e-09 -9.47373e-07 3.64804e-09)
(4.90385e-08 -1.91911e-06 8.8681e-09)
(1.30633e-07 -2.49475e-06 1.35604e-08)
(2.3866e-07 -2.85196e-06 1.86211e-08)
(3.6467e-07 -3.07999e-06 2.46362e-08)
(4.94086e-07 -3.22504e-06 3.16988e-08)
(6.12956e-07 -3.31594e-06 4.00755e-08)
(7.06917e-07 -3.37007e-06 4.97951e-08)
(7.63432e-07 -3.39878e-06 6.07701e-08)
(7.72315e-07 -3.40969e-06 7.26387e-08)
(7.27106e-07 -3.40856e-06 8.47669e-08)
(6.26037e-07 -3.40011e-06 9.63023e-08)
(4.73071e-07 -3.38844e-06 1.06175e-07)
(2.77777e-07 -3.37686e-06 1.1347e-07)
(5.48185e-08 -3.36772e-06 1.17315e-07)
(-1.78108e-07 -3.36188e-06 1.17494e-07)
(-4.02857e-07 -3.35903e-06 1.14008e-07)
(-6.01561e-07 -3.35761e-06 1.0707e-07)
(-7.59262e-07 -3.35458e-06 9.75766e-08)
(-8.65988e-07 -3.34591e-06 8.64851e-08)
(-9.17275e-07 -3.32681e-06 7.49089e-08)
(-9.14178e-07 -3.29202e-06 6.37775e-08)
(-8.62145e-07 -3.23564e-06 5.38047e-08)
(-7.6983e-07 -3.15056e-06 4.54202e-08)
(-6.47835e-07 -3.0273e-06 3.87999e-08)
(-5.07737e-07 -2.85213e-06 3.38695e-08)
(-3.61548e-07 -2.60356e-06 3.03027e-08)
(-2.20899e-07 -2.24529e-06 2.72122e-08)
(-9.96997e-08 -1.70829e-06 2.29157e-08)
(-1.19033e-08 -8.33851e-07 1.25003e-08)
(6.4609e-09 -1.00933e-06 6.45594e-09)
(5.96119e-08 -2.05881e-06 1.28088e-08)
(1.4066e-07 -2.69286e-06 1.66345e-08)
(2.41596e-07 -3.10247e-06 2.03219e-08)
(3.54194e-07 -3.37694e-06 2.48448e-08)
(4.67606e-07 -3.56368e-06 3.05774e-08)
(5.70436e-07 -3.6917e-06 3.7766e-08)
(6.50838e-07 -3.77894e-06 4.64361e-08)
(6.97984e-07 -3.83711e-06 5.64481e-08)
(7.02835e-07 -3.87406e-06 6.74229e-08)
(6.59481e-07 -3.89547e-06 7.87128e-08)
(5.6619e-07 -3.90584e-06 8.94759e-08)
(4.26481e-07 -3.90889e-06 9.86664e-08)
(2.48995e-07 -3.90758e-06 1.0543e-07)
(4.70641e-08 -3.90395e-06 1.08929e-07)
(-1.63385e-07 -3.8988e-06 1.09072e-07)
(-3.66317e-07 -3.89188e-06 1.05856e-07)
(-5.45616e-07 -3.88194e-06 9.93591e-08)
(-6.87626e-07 -3.86643e-06 9.0427e-08)
(-7.83298e-07 -3.84197e-06 7.99438e-08)
(-8.28615e-07 -3.80444e-06 6.90024e-08)
(-8.24699e-07 -3.7492e-06 5.84833e-08)
(-7.76702e-07 -3.67079e-06 4.90705e-08)
(-6.92627e-07 -3.56219e-06 4.11739e-08)
(-5.82142e-07 -3.41345e-06 3.49606e-08)
(-4.55703e-07 -3.20956e-06 3.03571e-08)
(-3.24101e-07 -2.92651e-06 2.70563e-08)
(-1.97756e-07 -2.52317e-06 2.42621e-08)
(-8.90941e-08 -1.92107e-06 2.04575e-08)
(-1.05896e-08 -9.39528e-07 1.12115e-08)
(6.75732e-09 -1.07574e-06 6.75123e-09)
(5.71678e-08 -2.198e-06 1.28659e-08)
(1.29557e-07 -2.88209e-06 1.59903e-08)
(2.17038e-07 -3.33356e-06 1.87996e-08)
(3.12234e-07 -3.64503e-06 2.22961e-08)
(4.06877e-07 -3.86574e-06 2.69437e-08)
(4.91893e-07 -4.02516e-06 3.2959e-08)
(5.578e-07 -4.14158e-06 4.03686e-08)
(5.95641e-07 -4.22669e-06 4.90267e-08)
(5.9783e-07 -4.28813e-06 5.85809e-08)
(5.59303e-07 -4.33116e-06 6.8431e-08)
(4.78524e-07 -4.35979e-06 7.78094e-08)
(3.58506e-07 -4.37721e-06 8.57686e-08)
(2.0668e-07 -4.3859e-06 9.15877e-08)
(3.45232e-08 -4.38761e-06 9.45255e-08)
(-1.44447e-07 -4.38319e-06 9.46293e-08)
(-3.16944e-07 -4.37244e-06 9.18882e-08)
(-4.69279e-07 -4.35422e-06 8.62404e-08)
(-5.89648e-07 -4.32645e-06 7.84398e-08)
(-6.70272e-07 -4.28634e-06 6.92229e-08)
(-7.07756e-07 -4.23057e-06 5.95773e-08)
(-7.03196e-07 -4.15524e-06 5.02939e-08)
(-6.6117e-07 -4.05546e-06 4.1993e-08)
(-5.8864e-07 -3.92439e-06 3.50408e-08)
(-4.93967e-07 -3.75182e-06 2.95842e-08)
(-3.8608e-07 -3.52171e-06 2.55636e-08)
(-2.74134e-07 -3.20781e-06 2.27146e-08)
(-1.66953e-07 -2.76483e-06 2.03615e-08)
(-7.5025e-08 -2.10599e-06 1.72126e-08)
(-8.85716e-09 -1.03137e-06 9.49671e-09)
(5.70917e-09 -1.13466e-06 5.6966e-09)
(4.669e-08 -2.31823e-06 1.06962e-08)
(1.04016e-07 -3.04264e-06 1.30684e-08)
(1.72263e-07 -3.52654e-06 1.51402e-08)
(2.45572e-07 -3.86664e-06 1.77465e-08)
(3.17916e-07 -4.11404e-06 2.13034e-08)
(3.82536e-07 -4.29878e-06 2.59889e-08)
(4.32319e-07 -4.43935e-06 3.18198e-08)
(4.60393e-07 -4.54723e-06 3.86649e-08)
(4.60863e-07 -4.62967e-06 4.62252e-08)
(4.29717e-07 -4.69139e-06 5.4002e-08)
(3.65703e-07 -4.73574e-06 6.13738e-08)
(2.71218e-07 -4.76533e-06 6.75567e-08)
(1.52136e-07 -4.7824e-06 7.20166e-08)
(1.75499e-08 -4.78856e-06 7.41931e-08)
(-1.21983e-07 -4.78482e-06 7.42474e-08)
(-2.56339e-07 -4.77106e-06 7.21755e-08)
(-3.74817e-07 -4.74603e-06 6.77924e-08)
(-4.68063e-07 -4.70786e-06 6.16742e-08)
(-5.29957e-07 -4.65424e-06 5.43755e-08)
(-5.57868e-07 -4.58254e-06 4.67011e-08)
(-5.52798e-07 -4.48958e-06 3.92932e-08)
(-5.18486e-07 -4.37107e-06 3.26695e-08)
(-4.60532e-07 -4.2205e-06 2.71221e-08)
(-3.85589e-07 -4.02752e-06 2.27814e-08)
(-3.00674e-07 -3.77526e-06 1.96018e-08)
(-2.12958e-07 -3.43581e-06 1.73819e-08)
(-1.29311e-07 -2.96042e-06 1.55995e-08)
(-5.78689e-08 -2.25558e-06 1.32577e-08)
(-6.75262e-09 -1.1057e-06 7.40499e-09)
(3.87658e-09 -1.17874e-06 3.86044e-09)
(3.10354e-08 -2.40701e-06 7.18795e-09)
(6.85156e-08 -3.16017e-06 8.71594e-09)
(1.12867e-07 -3.66685e-06 1.00575e-08)
(1.60298e-07 -4.02724e-06 1.17862e-08)
(2.07059e-07 -4.29393e-06 1.41957e-08)
(2.488e-07 -4.49741e-06 1.73982e-08)
(2.80878e-07 -4.65627e-06 2.14143e-08)
(2.98712e-07 -4.78169e-06 2.61573e-08)
(2.98266e-07 -4.88043e-06 3.14168e-08)
(2.76748e-07 -4.95666e-06 3.68367e-08)
(2.33163e-07 -5.01316e-06 4.19773e-08)
(1.69033e-07 -5.05207e-06 4.6277e-08)
(8.82887e-08 -5.07542e-06 4.93753e-08)
(-2.84047e-09 -5.08488e-06 5.08629e-08)
(-9.70736e-08 -5.08173e-06 5.08629e-08)
(-1.87473e-07 -5.06586e-06 4.93764e-08)
(-2.66659e-07 -5.03584e-06 4.62584e-08)
(-3.28247e-07 -4.98985e-06 4.19412e-08)
(-3.68199e-07 -4.92586e-06 3.68039e-08)
(-3.84871e-07 -4.84179e-06 3.14323e-08)
(-3.79179e-07 -4.73508e-06 2.62644e-08)
(-3.53863e-07 -4.60197e-06 2.16637e-08)
(-3.12882e-07 -4.43631e-06 1.78361e-08)
(-2.6082e-07 -4.22775e-06 1.48642e-08)
(-2.02482e-07 -3.9589e-06 1.27153e-08)
(-1.4271e-07 -3.60058e-06 1.12628e-08)
(-8.61324e-08 -3.1016e-06 1.01602e-08)
(-3.82115e-08 -2.36352e-06 8.73835e-09)
(-4.34511e-09 -1.15937e-06 5.0039e-09)
(1.58493e-09 -1.20328e-06 1.56054e-09)
(1.21187e-08 -2.45584e-06 2.86169e-09)
(2.64625e-08 -3.22452e-06 3.45386e-09)
(4.35638e-08 -3.74383e-06 4.03539e-09)
(6.21286e-08 -4.11593e-06 4.84832e-09)
(8.0761e-08 -4.39424e-06 6.01875e-09)
(9.76654e-08 -4.60951e-06 7.60265e-09)
(1.10786e-07 -4.78015e-06 9.60748e-09)
(1.17971e-07 -4.91712e-06 1.19861e-08)
(1.17188e-07 -5.02677e-06 1.46433e-08)
(1.06906e-07 -5.11279e-06 1.7404e-08)
(8.63649e-08 -5.17754e-06 2.00566e-08)
(5.60545e-08 -5.22281e-06 2.23115e-08)
(1.76826e-08 -5.2505e-06 2.39667e-08)
(-2.57729e-08 -5.26225e-06 2.47599e-08)
(-7.05147e-08 -5.25953e-06 2.46975e-08)
(-1.12803e-07 -5.24224e-06 2.37967e-08)
(-1.48811e-07 -5.20886e-06 2.20282e-08)
(-1.75497e-07 -5.15766e-06 1.96944e-08)
(-1.91188e-07 -5.08679e-06 1.69943e-08)
(-1.95438e-07 -4.99456e-06 1.42372e-08)
(-1.89079e-07 -4.87886e-06 1.164e-08)
(-1.7369e-07 -4.73635e-06 9.37215e-09)
(-1.51393e-07 -4.56113e-06 7.51972e-09)
(-1.24474e-07 -4.3429e-06 6.12005e-09)
(-9.52594e-08 -4.064e-06 5.15673e-09)
(-6.60553e-08 -3.69452e-06 4.57121e-09)
(-3.90572e-08 -3.18194e-06 4.22339e-09)
(-1.67931e-08 -2.42496e-06 3.81294e-09)
(-1.72094e-09 -1.18997e-06 2.38189e-09)
(-9.4356e-10 -1.2055e-06 -9.76523e-10)
(-8.56892e-09 -2.45954e-06 -1.88873e-09)
(-1.92122e-08 -3.22941e-06 -2.27937e-09)
(-3.12493e-08 -3.75068e-06 -2.47448e-09)
(-4.3225e-08 -4.12571e-06 -2.58191e-09)
(-5.41144e-08 -4.40788e-06 -2.66183e-09)
(-6.30732e-08 -4.62774e-06 -2.73078e-09)
(-6.95261e-08 -4.80351e-06 -2.78512e-09)
(-7.3156e-08 -4.94587e-06 -2.79988e-09)
(-7.39099e-08 -5.06097e-06 -2.73489e-09)
(-7.20217e-08 -5.1522e-06 -2.55986e-09)
(-6.80203e-08 -5.22164e-06 -2.26491e-09)
(-6.26194e-08 -5.2708e-06 -1.88244e-09)
(-5.65058e-08 -5.30137e-06 -1.49344e-09)
(-5.00968e-08 -5.31473e-06 -1.26436e-09)
(-4.3181e-08 -5.31226e-06 -1.37718e-09)
(-3.52432e-08 -5.29392e-06 -1.79924e-09)
(-2.61099e-08 -5.25834e-06 -2.38455e-09)
(-1.62459e-08 -5.20405e-06 -2.90293e-09)
(-6.50577e-09 -5.12952e-06 -3.27883e-09)
(2.26777e-09 -5.03335e-06 -3.46575e-09)
(9.33945e-09 -4.91364e-06 -3.48578e-09)
(1.43104e-08 -4.76728e-06 -3.37814e-09)
(1.70573e-08 -4.5885e-06 -3.19108e-09)
(1.76928e-08 -4.36707e-06 -2.95899e-09)
(1.64829e-08 -4.08527e-06 -2.69136e-09)
(1.37936e-08 -3.71306e-06 -2.36857e-09)
(9.95973e-09 -3.1976e-06 -1.93418e-09)
(5.4975e-09 -2.43694e-06 -1.30349e-09)
(1.00642e-09 -1.19605e-06 -3.4759e-10)
(-3.5457e-09 -1.18417e-06 -3.58846e-09)
(-2.97655e-08 -2.41577e-06 -6.76948e-09)
(-6.58781e-08 -3.17202e-06 -8.15784e-09)
(-1.07482e-07 -3.68447e-06 -9.12628e-09)
(-1.5031e-07 -4.05365e-06 -1.01547e-08)
(-1.90919e-07 -4.33191e-06 -1.14993e-08)
(-2.25875e-07 -4.54917e-06 -1.3248e-08)
(-2.52011e-07 -4.72331e-06 -1.5412e-08)
(-2.66543e-07 -4.86482e-06 -1.79168e-08)
(-2.67359e-07 -4.97974e-06 -2.06148e-08)
(-2.53376e-07 -5.07146e-06 -2.3271e-08)
(-2.24819e-07 -5.14195e-06 -2.56292e-08)
(-1.83451e-07 -5.19254e-06 -2.74328e-08)
(-1.32269e-07 -5.22449e-06 -2.85997e-08)
(-7.51015e-08 -5.23877e-06 -2.91082e-08)
(-1.55318e-08 -5.23643e-06 -2.92648e-08)
(4.34296e-08 -5.21746e-06 -2.90196e-08)
(9.81162e-08 -5.18085e-06 -2.81047e-08)
(1.44569e-07 -5.12571e-06 -2.64698e-08)
(1.79512e-07 -5.05089e-06 -2.42174e-08)
(2.00946e-07 -4.95515e-06 -2.15855e-08)
(2.08357e-07 -4.8367e-06 -1.88518e-08)
(2.026e-07 -4.69235e-06 -1.62559e-08)
(1.85558e-07 -4.51633e-06 -1.39649e-08)
(1.59765e-07 -4.29845e-06 -1.20634e-08)
(1.28078e-07 -4.02115e-06 -1.05397e-08)
(9.34986e-08 -3.65482e-06 -9.29957e-09)
(5.88742e-08 -3.1474e-06 -8.08037e-09)
(2.77385e-08 -2.3986e-06 -6.411e-09)
(3.72892e-09 -1.17716e-06 -3.07599e-09)
(-6.07359e-09 -1.13937e-06 -6.12272e-09)
(-5.03274e-08 -2.32478e-06 -1.15034e-08)
(-1.11081e-07 -3.0528e-06 -1.38483e-08)
(-1.81204e-07 -3.54594e-06 -1.55459e-08)
(-2.53726e-07 -3.90077e-06 -1.74363e-08)
(-3.22882e-07 -4.16763e-06 -1.99655e-08)
(-3.828e-07 -4.37525e-06 -2.33086e-08)
(-4.27884e-07 -4.54095e-06 -2.74887e-08)
(-4.53034e-07 -4.67504e-06 -3.23949e-08)
(-4.54177e-07 -4.78364e-06 -3.77821e-08)
(-4.28895e-07 -4.87028e-06 -4.32453e-08)
(-3.77004e-07 -4.93705e-06 -4.83197e-08)
(-3.01124e-07 -4.98535e-06 -5.24618e-08)
(-2.06284e-07 -5.01617e-06 -5.53674e-08)
(-9.95805e-08 -5.03015e-06 -5.67586e-08)
(1.15174e-08 -5.02787e-06 -5.69286e-08)
(1.20187e-07 -5.00932e-06 -5.5834e-08)
(2.18831e-07 -4.97403e-06 -5.32049e-08)
(3.00169e-07 -4.92157e-06 -4.92572e-08)
(3.58818e-07 -4.85098e-06 -4.43055e-08)
(3.91863e-07 -4.761e-06 -3.88722e-08)
(3.99148e-07 -4.64968e-06 -3.34578e-08)
(3.82802e-07 -4.51362e-06 -2.84677e-08)
(3.46637e-07 -4.34686e-06 -2.41702e-08)
(2.95486e-07 -4.13926e-06 -2.06855e-08)
(2.34643e-07 -3.87375e-06 -1.79839e-08)
(1.69584e-07 -3.52172e-06 -1.58852e-08)
(1.05565e-07 -3.033e-06 -1.39255e-08)
(4.89651e-08 -2.31117e-06 -1.12788e-08)
(6.32464e-09 -1.13388e-06 -5.68145e-09)
(-8.39826e-09 -1.07241e-06 -8.4581e-09)
(-6.92324e-08 -2.18931e-06 -1.58649e-08)
(-1.52602e-07 -2.87539e-06 -1.90841e-08)
(-2.48857e-07 -3.3395e-06 -2.14367e-08)
(-3.48516e-07 -3.67218e-06 -2.40903e-08)
(-4.43738e-07 -3.92073e-06 -2.76754e-08)
(-5.26439e-07 -4.11229e-06 -3.2431e-08)
(-5.88844e-07 -4.26331e-06 -3.84185e-08)
(-6.23793e-07 -4.38381e-06 -4.55125e-08)
(-6.25429e-07 -4.47998e-06 -5.33928e-08)
(-5.90114e-07 -4.55569e-06 -6.1539e-08)
(-5.17209e-07 -4.61347e-06 -6.92847e-08)
(-4.09905e-07 -4.655e-06 -7.58251e-08)
(-2.74942e-07 -4.6814e-06 -8.05874e-08)
(-1.22274e-07 -4.69331e-06 -8.29897e-08)
(3.68599e-08 -4.69102e-06 -8.31582e-08)
(1.91574e-07 -4.67459e-06 -8.10611e-08)
(3.30469e-07 -4.64389e-06 -7.65761e-08)
(4.43386e-07 -4.59848e-06 -7.02342e-08)
(5.23213e-07 -4.53728e-06 -6.26139e-08)
(5.66394e-07 -4.45876e-06 -5.45122e-08)
(5.73204e-07 -4.36045e-06 -4.66113e-08)
(5.46973e-07 -4.23861e-06 -3.94498e-08)
(4.9327e-07 -4.0871e-06 -3.33536e-08)
(4.18981e-07 -3.896e-06 -2.84644e-08)
(3.31587e-07 -3.64902e-06 -2.47202e-08)
(2.38808e-07 -3.31904e-06 -2.18616e-08)
(1.48047e-07 -2.85889e-06 -1.92476e-08)
(6.82814e-08 -2.17806e-06 -1.57145e-08)
(8.68698e-09 -1.0679e-06 -8.05761e-09)
(-1.04223e-08 -9.85639e-07 -1.04876e-08)
(-8.56235e-08 -2.01409e-06 -1.96495e-08)
(-1.88529e-07 -2.64616e-06 -2.36136e-08)
(-3.07312e-07 -3.07275e-06 -2.65094e-08)
(-4.30319e-07 -3.37668e-06 -2.97739e-08)
(-5.47902e-07 -3.60122e-06 -3.4185e-08)
(-6.50082e-07 -3.77143e-06 -4.00449e-08)
(-7.27222e-07 -3.90264e-06 -4.74432e-08)
(-7.70427e-07 -4.00446e-06 -5.62407e-08)
(-7.72391e-07 -4.0832e-06 -6.60707e-08)
(-7.28434e-07 -4.1431e-06 -7.63103e-08)
(-6.3752e-07 -4.18722e-06 -8.615e-08)
(-5.03265e-07 -4.21789e-06 -9.45936e-08)
(-3.3384e-07 -4.23676e-06 -1.00839e-07)
(-1.41568e-07 -4.24489e-06 -1.04077e-07)
(5.90054e-08 -4.24263e-06 -1.04233e-07)
(2.53313e-07 -4.23009e-06 -1.01282e-07)
(4.26673e-07 -4.20709e-06 -9.52929e-08)
(5.66512e-07 -4.17275e-06 -8.70411e-08)
(6.643e-07 -4.12552e-06 -7.7323e-08)
(7.16047e-07 -4.06322e-06 -6.71364e-08)
(7.22414e-07 -3.9828e-06 -5.72974e-08)
(6.87749e-07 -3.88006e-06 -4.8447e-08)
(6.19062e-07 -3.74876e-06 -4.09573e-08)
(5.24973e-07 -3.5793e-06 -3.49774e-08)
(4.14832e-07 -3.35642e-06 -3.0417e-08)
(2.98281e-07 -3.05508e-06 -2.69586e-08)
(1.84565e-07 -2.63205e-06 -2.3809e-08)
(8.48996e-08 -2.00453e-06 -1.95311e-08)
(1.07218e-08 -9.8181e-07 -1.01109e-08)
(-1.20553e-08 -8.82282e-07 -1.21279e-08)
(-9.88154e-08 -1.80567e-06 -2.27122e-08)
(-2.17389e-07 -2.37375e-06 -2.72672e-08)
(-3.542e-07 -2.75603e-06 -3.05634e-08)
(-4.95836e-07 -3.02609e-06 -3.42528e-08)
(-6.31177e-07 -3.22251e-06 -3.92294e-08)
(-7.48717e-07 -3.36779e-06 -4.58433e-08)
(-8.37348e-07 -3.47595e-06 -5.41917e-08)
(-8.86833e-07 -3.55611e-06 -6.41185e-08)
(-8.88744e-07 -3.61453e-06 -7.52295e-08)
(-8.37658e-07 -3.65584e-06 -8.68399e-08)
(-7.32305e-07 -3.68377e-06 -9.80571e-08)
(-5.76652e-07 -3.70135e-06 -1.0776e-07)
(-3.79971e-07 -3.71101e-06 -1.1499e-07)
(-1.56404e-07 -3.71441e-06 -1.18796e-07)
(7.69351e-08 -3.71226e-06 -1.18932e-07)
(3.02476e-07 -3.70466e-06 -1.15382e-07)
(5.02977e-07 -3.6911e-06 -1.08381e-07)
(6.64052e-07 -3.67009e-06 -9.88499e-08)
(7.76096e-07 -3.63937e-06 -8.77478e-08)
(8.34762e-07 -3.59597e-06 -7.61964e-08)
(8.40948e-07 -3.53619e-06 -6.50886e-08)
(7.9975e-07 -3.45541e-06 -5.51207e-08)
(7.19297e-07 -3.34741e-06 -4.67024e-08)
(6.0954e-07 -3.20303e-06 -3.99847e-08)
(4.81317e-07 -3.00829e-06 -3.48702e-08)
(3.4581e-07 -2.74064e-06 -3.10007e-08)
(2.13761e-07 -2.36156e-06 -2.74613e-08)
(9.8198e-08 -1.79746e-06 -2.26002e-08)
(1.23507e-08 -8.78988e-07 -1.17635e-08)
(-1.32434e-08 -7.66214e-07 -1.33189e-08)
(-1.08328e-07 -1.57188e-06 -2.49394e-08)
(-2.38132e-07 -2.0685e-06 -2.99076e-08)
(-3.87854e-07 -2.40154e-06 -3.34552e-08)
(-5.42827e-07 -2.63432e-06 -3.73806e-08)
(-6.90843e-07 -2.80021e-06 -4.265e-08)
(-8.19234e-07 -2.91891e-06 -4.96331e-08)
(-9.15812e-07 -3.00293e-06 -5.84311e-08)
(-9.69394e-07 -3.06074e-06 -6.88709e-08)
(-9.7081e-07 -3.09842e-06 -8.05366e-08)
(-9.14245e-07 -3.12093e-06 -9.27208e-08)
(-7.98357e-07 -3.1325e-06 -1.0449e-07)
(-6.27439e-07 -3.13691e-06 -1.14697e-07)
(-4.11578e-07 -3.13729e-06 -1.22313e-07)
(-1.66142e-07 -3.13595e-06 -1.26357e-07)
(9.00351e-08 -3.13396e-06 -1.2647e-07)
(3.3735e-07 -3.13143e-06 -1.22643e-07)
(5.5686e-07 -3.12748e-06 -1.15221e-07)
(7.32947e-07 -3.11996e-06 -1.05168e-07)
(8.55233e-07 -3.10589e-06 -9.35058e-08)
(9.1906e-07 -3.08155e-06 -8.13796e-08)
(9.25423e-07 -3.04276e-06 -6.97295e-08)
(8.79819e-07 -2.98457e-06 -5.92638e-08)
(7.91103e-07 -2.90082e-06 -5.04119e-08)
(6.70189e-07 -2.78308e-06 -4.33432e-08)
(5.28993e-07 -2.61881e-06 -3.79542e-08)
(3.79873e-07 -2.38826e-06 -3.38615e-08)
(2.34683e-07 -2.05806e-06 -3.00836e-08)
(1.07736e-07 -1.56489e-06 -2.48232e-08)
(1.35213e-08 -7.63417e-07 -1.29647e-08)
(-1.39416e-08 -6.41724e-07 -1.40183e-08)
(-1.13803e-07 -1.32139e-06 -2.62492e-08)
(-2.50058e-07 -1.74178e-06 -3.14473e-08)
(-4.07298e-07 -2.02265e-06 -3.50974e-08)
(-5.70132e-07 -2.21645e-06 -3.90784e-08)
(-7.25647e-07 -2.35108e-06 -4.4395e-08)
(-8.60404e-07 -2.4433e-06 -5.1416e-08)
(-9.61486e-07 -2.50402e-06 -6.02318e-08)
(-1.01713e-06 -2.54089e-06 -7.06641e-08)
(-1.01783e-06 -2.55976e-06 -8.22809e-08)
(-9.57628e-07 -2.56561e-06 -9.43734e-08)
(-8.35276e-07 -2.563e-06 -1.06024e-07)
(-6.5538e-07 -2.55616e-06 -1.16124e-07)
(-4.28523e-07 -2.54871e-06 -1.23647e-07)
(-1.70725e-07 -2.54341e-06 -1.27655e-07)
(9.83108e-08 -2.54164e-06 -1.27749e-07)
(3.57868e-07 -2.5435e-06 -1.23925e-07)
(5.88143e-07 -2.54779e-06 -1.16564e-07)
(7.72907e-07 -2.55191e-06 -1.06595e-07)
(9.01298e-07 -2.55235e-06 -9.50425e-08)
(9.68387e-07 -2.54494e-06 -8.30065e-08)
(9.75086e-07 -2.52517e-06 -7.14107e-08)
(9.27042e-07 -2.48804e-06 -6.09675e-08)
(8.33466e-07 -2.42765e-06 -5.21105e-08)
(7.0586e-07 -2.33637e-06 -4.5019e-08)
(5.56861e-07 -2.20323e-06 -3.95977e-08)
(3.99618e-07 -2.01144e-06 -3.54612e-08)
(2.46716e-07 -1.73306e-06 -3.15983e-08)
(1.13199e-07 -1.3156e-06 -2.61278e-08)
(1.41956e-08 -6.39438e-07 -1.36765e-08)
(-1.41049e-08 -5.13453e-07 -1.418e-08)
(-1.14952e-07 -1.06351e-06 -2.65533e-08)
(-2.52671e-07 -1.40569e-06 -3.17708e-08)
(-4.11949e-07 -1.63334e-06 -3.53669e-08)
(-5.77247e-07 -1.78794e-06 -3.92372e-08)
(-7.35304e-07 -1.89195e-06 -4.43861e-08)
(-8.72252e-07 -1.9592e-06 -5.11773e-08)
(-9.74778e-07 -1.99894e-06 -5.96869e-08)
(-1.03087e-06 -2.01789e-06 -6.97215e-08)
(-1.03095e-06 -2.02142e-06 -8.08437e-08)
(-9.69142e-07 -2.01433e-06 -9.23726e-08)
(-8.44439e-07 -2.00115e-06 -1.03433e-07)
(-6.61661e-07 -1.9862e-06 -1.12992e-07)
(-4.31596e-07 -1.97328e-06 -1.20089e-07)
(-1.70401e-07 -1.96531e-06 -1.23876e-07)
(1.02079e-07 -1.96381e-06 -1.23954e-07)
(3.64905e-07 -1.96887e-06 -1.20319e-07)
(5.98146e-07 -1.97912e-06 -1.13358e-07)
(7.85454e-07 -1.99175e-06 -1.03913e-07)
(9.15793e-07 -2.00312e-06 -9.29391e-08)
(9.84049e-07 -2.00892e-06 -8.14655e-08)
(9.90934e-07 -2.00466e-06 -7.03696e-08)
(9.42017e-07 -1.98553e-06 -6.03325e-08)
(8.46603e-07 -1.94615e-06 -5.17928e-08)
(7.16436e-07 -1.87976e-06 -4.49436e-08)
(5.64562e-07 -1.77707e-06 -3.97055e-08)
(4.04572e-07 -1.62421e-06 -3.56956e-08)
(2.49417e-07 -1.39868e-06 -3.19024e-08)
(1.14321e-07 -1.05896e-06 -2.64324e-08)
(1.43298e-08 -5.11707e-07 -1.38578e-08)
(-1.36617e-08 -3.86427e-07 -1.37318e-08)
(-1.1138e-07 -8.08153e-07 -2.57052e-08)
(-2.45409e-07 -1.07287e-06 -3.06874e-08)
(-4.01277e-07 -1.24801e-06 -3.40394e-08)
(-5.6387e-07 -1.36449e-06 -3.76198e-08)
(-7.19877e-07 -1.4396e-06 -4.24074e-08)
(-8.55285e-07 -1.48435e-06 -4.87568e-08)
(-9.56655e-07 -1.50632e-06 -5.67228e-08)
(-1.01201e-06 -1.5112e-06 -6.61023e-08)
(-1.01192e-06 -1.50368e-06 -7.64629e-08)
(-9.50771e-07 -1.48807e-06 -8.71577e-08)
(-8.27797e-07 -1.46854e-06 -9.7371e-08)
(-6.47944e-07 -1.44915e-06 -1.0617e-07)