/*--------------------------------*- C++ -*----------------------------------*\
| =========                 |                                                 |
| \\      /  F ield         | OpenFOAM: The Open Source CFD Toolbox           |
|  \\    /   O peration     | Version:  v1906                                 |
|   \\  /    A nd           | Web:      www.OpenFOAM.com                      |
|    \\/     M anipulation  |                                                 |
\*---------------------------------------------------------------------------*/
FoamFile
{
    version     2.0;
    format      ascii;
    class       volScalarField;
    location    "0.58/oil";
    object      wallHeatFlux;
}
// * * * * * * * * * * * * * * * * * * * * * * * * * * * * * * * * * * * * * //

dimensions      [1 0 -3 0 0 0 0];


internalField   uniform 0;

boundaryField
{
    maxY
    {
        type            calculated;
        value           uniform 0;
    }
    minX
    {
        type            calculated;
        value           uniform 0;
    }
    maxX
    {
        type            calculated;
        value           uniform 0;
    }
    minY
    {
        type            calculated;
        value           uniform 0;
    }
    minZ
    {
        type            calculated;
        value           uniform 0;
    }
    maxZ
    {
        type            calculated;
        value           uniform 0;
    }
    oil_to_sphere
    {
        type            calculated;
        value           nonuniform List<scalar> 
1536
(
512322
470307
461637
539799
543919
522849
499328
484534
436192
438430
545690
440089
467781
439120
571524
559272
486980
432381
233560
463640
449883
534485
494303
561716
575136
573870
573805
564053
460753
495496
454011
441167
447478
574717
559694
554343
540772
565447
562000
565659
565349
558155
494787
458357
483314
451876
488292
497843
585151
500355
533187
488730
489444
488935
437572
413037
519499
502110
428575
381700
366494
383921
367574
250087
255110
450544
484543
432349
527281
480329
577315
540221
552108
568818
562011
452995
397430
488385
559646
421545
384381
365996
367012
369140
345170
370912
357307
479599
438612
383112
360310
224994
230053
250658
255600
453152
485637
412652
440073
519308
486285
576809
484155
472968
529629
570124
563758
496594
515413
442601
417198
449216
383401
376090
366561
358339
364775
352801
354445
359237
416326
360869
226866
447848
515138
495341
527281
472943
503612
539614
488438
536376
494275
536206
491830
541543
490794
420489
487120
509738
379804
368433
488363
419986
358347
426159
526664
411266
371174
533333
548173
403468
531067
526478
527334
363872
506517
352246
522422
382363
503521
396661
571894
568630
555327
540051
532989
347499
492676
357610
465431
458242
448564
428267
415925
386913
507412
406460
420543
512590
572283
565416
547103
564785
368116
484875
358342
464744
465023
481667
487615
536033
426992
507962
567159
518390
456761
499477
397033
517992
504701
522697
453893
387671
410436
417330
417469
418078
451259
368309
470643
424670
434101
395343
473536
457020
397443
435720
458311
387914
421784
482389
465721
427341
419769
427884
547436
421747
544148
590781
559694
508861
540363
387123
382852
472871
397887
399181
386522
441182
431615
259446
328457
457930
397657
487725
481792
430342
470975
383449
478938
585666
522505
538623
405294
543642
551146
471740
426898
421076
455180
353928
421394
328912
256183
292218
296353
271177
475760
429196
471059
440539
437287
485923
472775
447439
459949
391674
476636
419912
529862
513742
469651
435862
485938
501218
487416
527575
488969
456818
518777
367560
503870
400758
414952
427624
424589
394961
432128
439689
488851
471747
436324
413325
399360
515208
367219
562202
548588
348746
472239
346703
476946
475177
471810
452486
496430
491054
509068
420885
479682
455841
454876
528243
487851
446873
473124
424603
489410
432996
434829
409725
519395
464850
443275
504053
429457
477177
493413
418283
376707
470422
436050
455699
445777
446548
458853
455508
448278
493785
507027
525567
459779
521763
442074
490607
482571
462280
541488
445426
525537
493233
457417
540207
477674
482792
531877
512517
525862
482673
435928
541038
498184
472800
546502
468904
508014
515775
472830
361700
501883
401993
473550
412981
432977
521014
477230
367921
490714
433711
453993
423031
394198
434833
420310
393268
490774
376271
476998
419603
521890
479268
348486
515663
469018
419408
492028
400743
462581
430060
415726
415063
422425
436065
421621
406414
423736
421906
467552
435157
425330
437032
401114
363482
443323
396300
386269
420957
349467
381128
448667
397348
415461
409559
415879
405114
422174
342714
317880
368508
368740
422276
401008
379015
384569
444188
422292
454376
472557
426530
456089
439569
404665
390877
367074
357715
402775
333589
339170
395731
329176
343310
337320
393957
420585
480472
466189
430791
445103
497729
473853
460339
491295
417549
513402
462687
503497
436883
518092
458686
425660
486060
490188
429486
484964
516725
462041
485445
385103
514337
378879
514319
566131
574754
583885
595703
536393
535878
558891
566055
522371
369063
565829
542057
360619
361457
483499
545020
554539
375375
497714
543067
551749
542194
499177
411504
372747
423318
394543
370539
474439
433926
385176
429317
427411
335141
381998
387615
321336
383989
330611
399161
323129
412460
375843
389343
398742
444661
417406
398570
353537
430185
407937
364793
465915
439234
405292
459350
426772
421355
412191
336628
382030
421537
270344
327991
277807
323257
282588
282755
288141
291065
322235
403730
329597
341395
339042
326750
407244
328469
339585
345168
348082
391588
364841
389051
323351
493831
420912
391129
519737
450226
403330
500615
413237
446955
439108
423965
504047
439113
480420
462798
441753
443541
399431
414924
510424
484780
396014
491410
489763
421191
454208
415865
503072
514621
430846
480433
429800
448423
521507
377314
571357
571422
380773
412005
514422
570191
574646
470338
539723
579875
566935
563532
533764
540696
563206
377819
396298
487370
366725
523504
363828
364106
404462
540533
554104
535301
392562
545823
401130
507714
495254
365506
533909
358624
421478
353014
299768
389465
454286
392693
402917
394005
400778
406388
425241
358388
421153
382754
373391
386330
395338
316146
383237
386824
329960
389129
384166
319759
336160
415207
402752
335367
371709
478488
425454
395234
365315
430428
422774
409216
346523
303591
421392
447331
453241
463090
382323
408795
377020
417305
419917
357669
404346
353651
363803
291419
288615
266314
267890
319861
318424
254641
260138
331530
456453
475084
474109
476913
477640
473295
477694
486334
471818
431685
470198
462822
435013
500165
483227
469322
483324
499550
509766
499244
418247
445077
435569
470758
447873
455601
409926
496824
520236
444943
471686
448145
503918
482193
474174
468464
502578
475959
474862
504645
464066
481171
551146
516579
470765
518135
460712
504040
510076
463230
478545
518538
541946
441372
520656
486174
460308
538314
516795
479748
521107
518862
452740
431767
537292
512358
448262
528414
545099
517810
512505
505311
387191
475175
410290
444357
426908
458213
367515
510586
521707
371699
490947
481278
443846
438014
404330
511220
508766
458798
372772
512255
441447
454730
485555
395239
487188
419164
423584
447976
376452
520958
486551
498887
421027
436239
399438
484894
484555
429073
441159
417915
420516
423399
450462
422254
450012
368160
423835
409046
395130
418901
410368
350926
372177
419789
381195
444139
430773
407522
401002
457323
476207
434486
425304
434455
418755
416524
419487
349239
316313
428704
344958
412695
418175
379184
375607
420941
367507
466174
431146
423279
417144
419255
376488
452511
410880
478878
531067
446670
476584
394045
467095
393865
409491
494621
547296
420428
404141
485072
515283
460752
497964
371040
272091
549884
465200
492504
360565
269550
380653
495371
547537
537232
385825
498560
532360
490028
536504
438306
525761
482042
451020
494652
529785
475660
489738
518600
487712
510436
490502
507302
408540
448168
573260
421166
551071
445521
520538
471041
498285
437802
464362
553895
466239
549528
442902
456165
534044
398741
545720
572005
565301
517185
531178
539772
530933
538922
441324
444536
527927
406529
488052
466032
462857
516981
495920
524819
428107
488797
531463
523012
555414
484723
534480
539734
427393
497902
505023
496680
443608
500005
435656
483290
342616
424632
461538
438973
382598
441991
381525
370252
442659
447041
380754
469035
529367
513145
549049
480011
520735
561580
436621
571404
438501
473920
465869
428198
526448
377678
405948
502223
380303
447573
495748
442221
395975
320099
303167
481867
429461
277242
275238
307832
474826
369061
452486
362498
447499
381611
454611
372782
437731
524631
497581
540869
397423
386019
470878
484068
471778
524771
428364
558198
440510
448378
544489
424119
472781
536362
379190
547500
428572
427824
380612
491484
440621
481782
509455
440034
329898
398801
319277
481429
418118
282467
312233
277133
463812
453267
531486
488299
519245
528997
466624
526711
536673
534111
513939
454605
492824
507614
494310
429858
461401
428950
478411
566794
568398
590587
490294
466372
574277
568754
376280
512550
526467
428897
568348
576189
402298
519262
512211
433939
578907
572539
572251
402124
523137
528185
433065
580382
518348
428036
549874
495836
397820
545403
545699
536219
515500
570973
567860
574860
588672
373462
532114
589398
412262
508567
540050
544234
499378
462541
556590
485135
412937
538546
545236
549120
504816
578232
403775
521165
585706
404812
485438
542337
529770
532231
527349
547583
555571
512407
479893
474169
483806
471911
527559
405194
497234
489889
510117
508384
509553
503260
456053
404884
386582
425351
446224
426033
426975
437191
454590
390648
385631
484113
572092
570616
544288
382022
368045
508470
436996
557827
490787
376210
378844
427984
391962
385605
382600
389360
318974
263075
472753
480144
470956
486790
475758
496447
424521
584848
549004
448905
473656
384153
321375
264425
331308
379211
465467
384892
394762
471633
465044
447128
452746
489189
469930
542986
416086
396959
504101
507692
513828
416343
398399
450617
434296
437962
395672
377219
522711
457021
501509
508046
535160
525029
514118
391616
535509
532236
522822
558962
560141
511221
429943
463442
474757
480404
461279
457712
468214
445657
407104
471781
452996
453682
457296
462813
464006
472346
473900
486695
468207
503416
396970
470741
500046
462534
391027
470867
472442
501810
502463
473256
472446
460781
406160
456833
475526
502424
487016
458836
429929
450760
456665
507398
531910
420890
475743
523067
524952
522655
509649
516635
549298
415822
498532
522431
513364
520354
513915
516392
435490
443619
514673
499331
506460
484143
428454
453676
510834
523827
408575
457537
484083
486905
490418
456872
504586
491816
433862
448703
464355
423739
422213
381988
375882
445784
406932
410299
411060
302995
309686
404387
462109
413480
415394
416534
405374
397441
345325
412556
402151
360198
474840
457800
341461
411762
452889
345579
395393
394161
343398
474780
492509
384603
449202
391999
384691
396340
466416
456186
509367
477446
398673
461405
534485
410969
465016
478839
482576
469244
491426
477345
496423
498941
410471
448398
474985
468840
477807
499102
589899
366257
547509
582823
398256
541013
540498
514308
438517
519161
407805
571952
391726
500015
501484
570702
535933
550750
523806
352606
542461
468244
428029
459355
412896
317695
334205
451474
417575
422278
404362
471408
368608
405849
316092
448454
408162
257030
257595
333177
257077
334420
325563
279027
481265
320251
398541
469973
471712
448919
453553
404810
391301
393281
389256
464846
456371
384893
491867
475575
453258
517407
475531
494563
474059
397665
463959
530071
418989
482580
482759
481634
500195
444748
486337
513478
449655
409025
541419
558095
550076
592407
577817
515776
569434
400588
505741
436590
528946
560090
488551
559211
519915
499542
505580
558931
472452
410230
507060
437150
424016
428300
399432
490609
415192
402310
327649
452927
409040
475523
396711
325829
327900
279576
471412
474224
497276
445845
479799
465190
473855
467745
482159
491510
519878
402370
442781
494977
456014
462741
476668
485139
503546
507412
483244
466267
471833
533097
519929
545549
374951
488186
521217
515423
518041
522625
401808
515733
542668
420525
518176
522142
436181
500622
512513
507489
502844
428523
506528
501257
502526
488541
362214
422216
414847
311656
405028
462483
354672
458656
406890
399050
448170
473118
)
;
    }
}


// ************************************************************************* //
