/*--------------------------------*- C++ -*----------------------------------*\
| =========                 |                                                 |
| \\      /  F ield         | OpenFOAM: The Open Source CFD Toolbox           |
|  \\    /   O peration     | Version:  v1906                                 |
|   \\  /    A nd           | Web:      www.OpenFOAM.com                      |
|    \\/     M anipulation  |                                                 |
\*---------------------------------------------------------------------------*/
FoamFile
{
    version     2.0;
    format      ascii;
    class       volVectorField;
    location    "45";
    object      U;
}
// * * * * * * * * * * * * * * * * * * * * * * * * * * * * * * * * * * * * * //

dimensions      [0 1 -1 0 0 0 0];


internalField   nonuniform List<vector> 
78750
(
(-0.409197 -0.233872 -0.160237)
(-0.350741 -0.221383 -0.155912)
(-0.346222 -0.194728 -0.141805)
(-0.277917 -0.164476 -0.11897)
(-0.213433 -0.141011 -0.0987997)
(-0.231409 -0.126609 -0.094124)
(-0.175923 -0.109956 -0.0799037)
(-0.168343 -0.0986686 -0.0749487)
(-0.136247 -0.084967 -0.064213)
(-0.11995 -0.074412 -0.0577853)
(-0.101481 -0.063628 -0.0505869)
(-0.0868495 -0.0540988 -0.045013)
(-0.0743467 -0.0453758 -0.040778)
(-0.0640371 -0.0376252 -0.0385455)
(-0.0556911 -0.0309256 -0.038961)
(-0.0490384 -0.0253699 -0.0427873)
(-0.0438212 -0.0211043 -0.0507851)
(-0.0399169 -0.0183001 -0.0633201)
(-0.0374212 -0.01698 -0.0797736)
(-0.0364614 -0.0168071 -0.0985879)
(-0.0368118 -0.016871 -0.117648)
(-0.037958 -0.0158653 -0.135204)
(-0.0391555 -0.0134711 -0.150177)
(-0.0395114 -0.0106837 -0.163106)
(-0.0381724 -0.00838721 -0.174921)
(-0.0345969 -0.00689073 -0.185483)
(-0.0287641 -0.00584775 -0.193334)
(-0.0211808 -0.00443909 -0.197719)
(-0.0126392 -0.002057 -0.199409)
(-0.00391334 0.00142738 -0.199649)
(0.00417406 0.00550117 -0.199791)
(0.0108 0.00954143 -0.200886)
(0.0150513 0.0134839 -0.202926)
(0.018377 0.0208542 -0.202167)
(0.00983804 0.062405 -0.124618)
(0.0476846 -0.221207 -0.0740301)
(-0.0379782 -0.198232 -0.130283)
(0.00751293 -0.229236 -0.179785)
(-0.0119629 -0.264944 -0.21123)
(-0.0103045 -0.261947 -0.22295)
(-0.00761564 -0.242356 -0.22622)
(-0.00849556 -0.21809 -0.227278)
(-0.004119 -0.195662 -0.226531)
(0.000120193 -0.176126 -0.225806)
(0.00577304 -0.15809 -0.224898)
(0.011868 -0.141025 -0.223994)
(0.0181642 -0.124543 -0.222979)
(0.0243541 -0.108366 -0.221738)
(0.0301649 -0.0922507 -0.220139)
(0.035339 -0.0759561 -0.218046)
(0.0396039 -0.0592198 -0.215302)
(0.0426975 -0.0417102 -0.211651)
(0.0444502 -0.0228981 -0.206549)
(0.0447166 -0.00171072 -0.198662)
(0.0429912 0.023725 -0.184345)
(0.0384004 0.0522159 -0.157663)
(0.0304652 0.0726731 -0.122698)
(0.0212615 0.0777597 -0.0978842)
(0.0125839 0.0750795 -0.0881412)
(0.00455891 0.0714539 -0.086373)
(-0.00298539 0.0682748 -0.0875944)
(-0.00924724 0.0652868 -0.0901084)
(-0.0133049 0.0627317 -0.0938578)
(-0.0148807 0.0612193 -0.0988624)
(-0.0137894 0.0617908 -0.104109)
(-0.0103917 0.0672041 -0.109018)
(-0.00503652 0.0823099 -0.114558)
(0.00141035 0.115484 -0.121361)
(0.00684563 0.17741 -0.124497)
(0.00251402 0.243654 -0.0812867)
(-0.0131402 -0.0348361 -0.0251861)
(-0.013288 -0.05746 -0.0245774)
(-0.0190747 -0.0564125 -0.0208035)
(-0.0214615 -0.0410843 -0.0209622)
(-0.0251376 -0.0355819 -0.0285948)
(-0.0269315 -0.040079 -0.0405438)
(-0.0267561 -0.0487935 -0.0542584)
(-0.0254194 -0.0563386 -0.0680753)
(-0.0232802 -0.0605141 -0.0813877)
(-0.0207003 -0.0611015 -0.0941022)
(-0.0178376 -0.058496 -0.106228)
(-0.0148026 -0.0532044 -0.117666)
(-0.0116789 -0.0456756 -0.128204)
(-0.00851859 -0.0362315 -0.137585)
(-0.00535662 -0.0250475 -0.145549)
(-0.00223828 -0.0122072 -0.151816)
(0.000720766 0.00222435 -0.156028)
(0.0034588 0.018105 -0.157682)
(0.00635546 0.0349433 -0.156163)
(0.00985135 0.0515915 -0.150761)
(0.0141291 0.0654838 -0.141861)
(0.0185938 0.073601 -0.132758)
(0.0222002 0.0763309 -0.127674)
(0.0248165 0.0770421 -0.126489)
(0.0264083 0.0775637 -0.129223)
(0.0273003 0.0797986 -0.137482)
(0.0278317 0.0851647 -0.152652)
(0.0271983 0.089912 -0.171329)
(0.0248126 0.0891623 -0.186705)
(0.0201376 0.0855169 -0.199939)
(0.0141052 0.0787865 -0.205571)
(0.00729121 0.0707511 -0.194282)
(0.000685919 0.0908535 -0.166254)
(0.00082829 0.170477 -0.125191)
(0.00131241 0.274989 -0.0608108)
(0.000696593 -0.0958406 0.0565092)
(-0.000372803 -0.150733 0.0802006)
(-0.00136911 -0.172669 0.0772374)
(0.000325203 -0.183136 0.0691433)
(0.00401362 -0.186073 0.059573)
(0.00861502 -0.18332 0.0494827)
(0.0132103 -0.176018 0.0388551)
(0.0173432 -0.165095 0.0271636)
(0.0208852 -0.151458 0.0138756)
(0.0238347 -0.136073 -0.00122978)
(0.0262475 -0.119853 -0.0179516)
(0.0282195 -0.103456 -0.0357513)
(0.029789 -0.0871789 -0.053885)
(0.0310151 -0.0710375 -0.0715509)
(0.0320348 -0.0549186 -0.0880673)
(0.032973 -0.0387534 -0.102893)
(0.0339332 -0.0226617 -0.115611)
(0.0349838 -0.00698327 -0.125919)
(0.0361055 0.00774553 -0.133677)
(0.0372142 0.0208375 -0.138971)
(0.0381084 0.0317902 -0.142164)
(0.0383931 0.0410167 -0.143708)
(0.0377059 0.0488767 -0.14363)
(0.0362063 0.0566022 -0.140459)
(0.0331386 0.0662267 -0.123589)
(0.0233716 0.0722716 -0.0344426)
(0.0108156 0.0824259 0.0380091)
(-0.0032 0.115947 0.0145399)
(-0.0129727 0.169986 -0.0632864)
(-0.0116809 0.201532 -0.0974949)
(-0.0045327 0.224165 -0.134753)
(0.00311123 0.249606 -0.198258)
(0.00237853 0.234387 -0.19282)
(0.000125367 0.254191 -0.151735)
(-0.00128847 0.316527 -0.0643374)
(-0.00508411 -0.0862334 0.13123)
(-0.00899869 -0.134769 0.156459)
(-0.0119515 -0.158853 0.144978)
(-0.0123258 -0.172742 0.13029)
(-0.0105564 -0.178758 0.117858)
(-0.00744633 -0.178344 0.108239)
(-0.00345443 -0.172424 0.100281)
(0.001159 -0.161539 0.0926213)
(0.00612714 -0.146324 0.083977)
(0.011167 -0.127738 0.0732103)
(0.0160215 -0.106983 0.0594321)
(0.020484 -0.0853466 0.0421328)
(0.0244081 -0.0640255 0.0213131)
(0.0277181 -0.0439232 -0.00243787)
(0.0304116 -0.0255427 -0.0279687)
(0.0325326 -0.0089649 -0.0537137)
(0.0341234 0.00603791 -0.0779251)
(0.0351744 0.0198125 -0.0989326)
(0.0357855 0.0327574 -0.115371)
(0.0359094 0.0454009 -0.126882)
(0.0354461 0.058476 -0.133577)
(0.0345091 0.0729988 -0.135735)
(0.0333449 0.0897203 -0.133185)
(0.0323686 0.108995 -0.124596)
(0.0320008 0.131143 -0.105655)
(0.0314391 0.156171 -0.0601734)
(0.0289586 0.180587 0.0245424)
(0.0225317 0.188675 0.120784)
(0.0155405 0.141023 0.203908)
(0.0127168 0.0493227 0.263158)
(0.009217 0.0175102 0.263747)
(0.00679847 0.0845835 0.15782)
(0.00669284 0.226055 -0.0991858)
(0.00388133 0.288312 -0.166533)
(-0.00121802 0.332285 -0.095811)
(-0.00605698 -0.103684 0.0984571)
(-0.00501918 -0.200805 0.0817964)
(-0.000809509 -0.250629 0.0529649)
(0.00629461 -0.276067 0.0401904)
(0.0142808 -0.287558 0.0371265)
(0.0225587 -0.290469 0.0389581)
(0.0308773 -0.286859 0.0438198)
(0.0388892 -0.277671 0.0509527)
(0.0463636 -0.263369 0.0599892)
(0.0531382 -0.24423 0.0705922)
(0.0590617 -0.220659 0.0822227)
(0.0640184 -0.193423 0.0939943)
(0.0679838 -0.163635 0.10462)
(0.0710391 -0.132574 0.11248)
(0.0733311 -0.101528 0.115818)
(0.0750243 -0.0716684 0.113007)
(0.0762844 -0.043787 0.102675)
(0.0773307 -0.0181899 0.0834676)
(0.0783787 0.00499094 0.0541522)
(0.0793025 0.0252235 0.0135654)
(0.0798902 0.0404641 -0.0339895)
(0.0794205 0.0490599 -0.07485)
(0.078008 0.0534764 -0.0979755)
(0.0764881 0.0579083 -0.10896)
(0.075426 0.0643596 -0.113157)
(0.0753238 0.0738558 -0.111143)
(0.0766856 0.0883646 -0.0971641)
(0.0792686 0.106096 -0.0609504)
(0.0795598 0.110844 -0.0164928)
(0.0764374 0.107033 0.0134203)
(0.0642789 0.117198 0.0453558)
(0.038647 0.189174 0.0988738)
(0.0188753 0.34544 -0.0200325)
(0.00759317 0.434592 -0.129727)
(-0.00130995 0.430225 -0.0969459)
(0.0011757 -0.0936361 0.00384621)
(0.0119066 -0.214998 -0.00775605)
(0.0224414 -0.271307 -0.00326616)
(0.0315825 -0.294766 0.00161456)
(0.0395973 -0.302807 0.00396851)
(0.0471708 -0.302288 0.00420744)
(0.0544652 -0.295617 0.00282319)
(0.0613553 -0.283718 0.000121401)
(0.0676876 -0.267006 -0.00367237)
(0.073262 -0.245813 -0.00836293)
(0.0777982 -0.220913 -0.013656)
(0.0810143 -0.193868 -0.0189019)
(0.0827737 -0.166669 -0.0228745)
(0.0831834 -0.1408 -0.0237904)
(0.0825382 -0.116476 -0.019476)
(0.0811138 -0.0927432 -0.00751744)
(0.0790219 -0.0682111 0.0139737)
(0.0760221 -0.0419576 0.0436152)
(0.0717892 -0.0141637 0.0731769)
(0.0666635 0.0149786 0.091135)
(0.0607696 0.0476349 0.0874858)
(0.0541454 0.0840052 0.0520544)
(0.0475445 0.115546 -0.0097757)
(0.0407124 0.133222 -0.0663762)
(0.0343326 0.138904 -0.0953685)
(0.0289349 0.140966 -0.104266)
(0.0237038 0.142838 -0.100924)
(0.0181808 0.144656 -0.0828105)
(0.0126476 0.146336 -0.044416)
(0.00633161 0.156214 0.0142393)
(-0.00390097 0.198441 0.0892013)
(-0.0159629 0.300117 0.14491)
(-0.0177621 0.440325 0.0899342)
(-0.0139744 0.503676 0.0100246)
(-0.00609699 0.440568 0.00278217)
(0.00240513 -0.179398 0.029034)
(0.00963683 -0.319903 0.0513147)
(0.0143147 -0.364273 0.0560415)
(0.0183065 -0.376631 0.0560471)
(0.0223704 -0.37715 0.0557116)
(0.026748 -0.370431 0.0559868)
(0.0312348 -0.357495 0.0571438)
(0.0356735 -0.338291 0.059202)
(0.0398943 -0.312058 0.0618933)
(0.0436537 -0.277909 0.0643406)
(0.0466418 -0.236267 0.0647361)
(0.0486239 -0.189728 0.0604245)
(0.0495182 -0.14246 0.0487704)
(0.0494244 -0.0990806 0.0292082)
(0.0486397 -0.0635646 0.00559893)
(0.0475444 -0.037709 -0.0150339)
(0.046489 -0.0197253 -0.028311)
(0.0456172 -0.0056208 -0.0346482)
(0.0448603 0.00802198 -0.0352493)
(0.0441505 0.0233136 -0.0301018)
(0.0434292 0.0411156 -0.0211394)
(0.0426617 0.0608763 -0.0146676)
(0.0417431 0.0816764 -0.0161318)
(0.0401718 0.102566 -0.0260738)
(0.0371031 0.121525 -0.0410989)
(0.0320739 0.136912 -0.0556151)
(0.025491 0.148839 -0.0642377)
(0.0180219 0.158444 -0.0644249)
(0.00978044 0.167643 -0.0547806)
(0.000483676 0.180496 -0.0322205)
(-0.00941927 0.206314 0.00750653)
(-0.0171832 0.260468 0.058038)
(-0.0162505 0.343156 0.084072)
(-0.00946721 0.393205 0.0747816)
(-0.00143816 0.359581 0.0587201)
(0.000923754 -0.200717 0.00935119)
(0.00500832 -0.31986 -0.0121165)
(0.00958671 -0.356129 -0.0257556)
(0.0140446 -0.368394 -0.0322697)
(0.0184966 -0.370449 -0.0354357)
(0.0228839 -0.365518 -0.0364196)
(0.0269578 -0.354316 -0.0354498)
(0.030519 -0.33645 -0.032384)
(0.0333498 -0.310743 -0.0268352)
(0.0352072 -0.27631 -0.018392)
(0.0360274 -0.234273 -0.0069081)
(0.0360736 -0.187571 0.00707588)
(0.0356352 -0.139774 0.0211498)
(0.0348754 -0.0948759 0.0308631)
(0.0340074 -0.0562415 0.0328996)
(0.0332858 -0.0250247 0.0280537)
(0.0328151 -0.000330688 0.0198357)
(0.0326268 0.0196348 0.011521)
(0.032679 0.0368274 0.00486303)
(0.0329199 0.0530152 0.000338491)
(0.0333104 0.0696771 -0.00212761)
(0.0337605 0.0877894 -0.00306757)
(0.0341185 0.107705 -0.00364095)
(0.0340231 0.129375 -0.00552273)
(0.0329904 0.152148 -0.0103203)
(0.0305278 0.174216 -0.0185042)
(0.0262453 0.1925 -0.0280232)
(0.0203474 0.205599 -0.0351573)
(0.0133586 0.215545 -0.0371217)
(0.00577116 0.225709 -0.0320753)
(-0.00176107 0.240475 -0.0179193)
(-0.00776852 0.266327 0.00621368)
(-0.00910755 0.30615 0.0329921)
(-0.00596902 0.337598 0.0472157)
(-0.00149772 0.326775 0.047572)
(0.000940203 -0.212406 -0.00146279)
(0.00853403 -0.356381 -0.0111025)
(0.0146323 -0.39684 -0.0143261)
(0.0201152 -0.406079 -0.0155851)
(0.0254707 -0.403568 -0.0160974)
(0.0306678 -0.393059 -0.0161092)
(0.0350914 -0.375065 -0.0156184)
(0.0383192 -0.348748 -0.0146291)
(0.0399685 -0.312632 -0.0135052)
(0.0397677 -0.267189 -0.0134483)
(0.0380914 -0.216829 -0.0155916)
(0.0361381 -0.166619 -0.0192585)
(0.0348151 -0.119434 -0.022253)
(0.0341964 -0.0773741 -0.0230447)
(0.0339707 -0.0431447 -0.0219627)
(0.034027 -0.0178049 -0.0202853)
(0.034326 0.000510155 -0.0189324)
(0.0347507 0.014772 -0.0180718)
(0.0353133 0.0272489 -0.0174907)
(0.0359918 0.0394476 -0.0169234)
(0.0367251 0.0524261 -0.0161395)
(0.0374175 0.0669929 -0.015)
(0.0379703 0.0837586 -0.0135473)
(0.0382216 0.103227 -0.0121169)
(0.0379335 0.125845 -0.0114216)
(0.0368018 0.151819 -0.012457)
(0.0343449 0.18017 -0.0159452)
(0.0299622 0.206749 -0.0207948)
(0.0239855 0.226988 -0.0238327)
(0.0173724 0.241756 -0.0224484)
(0.0107475 0.255075 -0.0150459)
(0.00481948 0.271893 -0.000703367)
(0.000883174 0.295778 0.0180656)
(-0.000166493 0.318106 0.0325987)
(0.000426582 0.311568 0.0382482)
(0.00555315 -0.272296 -0.0089968)
(0.0115834 -0.392685 -0.0235804)
(0.0143833 -0.418371 -0.0305732)
(0.0156469 -0.420871 -0.0338998)
(0.0166722 -0.413703 -0.0356572)
(0.0176426 -0.398785 -0.036061)
(0.0183633 -0.375316 -0.0348463)
(0.0183949 -0.340795 -0.0315368)
(0.0171459 -0.293344 -0.0259868)
(0.0139669 -0.237516 -0.019021)
(0.00903523 -0.183442 -0.0115075)
(0.00449848 -0.135684 -0.0050018)
(0.00200093 -0.0927164 -0.00111966)
(0.00167747 -0.0526075 -0.000462735)
(0.00292511 -0.0168501 -0.00281091)
(0.00494627 0.0109438 -0.00684743)
(0.00744492 0.030167 -0.0108944)
(0.0101382 0.0440007 -0.0141726)
(0.0127614 0.0554636 -0.0167346)
(0.0152227 0.0662701 -0.018717)
(0.017479 0.0773615 -0.0201701)
(0.0195066 0.0894331 -0.0210843)
(0.0213017 0.103144 -0.0214361)
(0.0228158 0.119186 -0.0212339)
(0.0239646 0.138274 -0.0206127)
(0.0246323 0.161169 -0.0199458)
(0.0246423 0.188296 -0.0198167)
(0.0235456 0.217545 -0.0204062)
(0.0209013 0.242093 -0.0204052)
(0.017155 0.258173 -0.017884)
(0.0128128 0.269191 -0.0115296)
(0.00823983 0.280323 -0.000419156)
(0.00419224 0.295971 0.0141406)
(0.00196627 0.312508 0.026247)
(0.00107935 0.304868 0.0315663)
(-0.00221947 -0.285252 -0.0120694)
(-0.00715685 -0.377134 -0.0240404)
(-0.00889244 -0.38717 -0.0268209)
(-0.00983351 -0.383738 -0.028162)
(-0.0102429 -0.372712 -0.0290853)
(-0.0101219 -0.35319 -0.0297725)
(-0.00964349 -0.321673 -0.0303452)
(-0.00883382 -0.273663 -0.0313545)
(-0.00739905 -0.208321 -0.0354023)
(-0.00582788 -0.138165 -0.045398)
(-0.00606295 -0.0875384 -0.0553548)
(-0.00761388 -0.0606877 -0.057635)
(-0.0090208 -0.0442875 -0.0542473)
(-0.00935396 -0.0303466 -0.0486109)
(-0.00804851 -0.016444 -0.0429672)
(-0.00516625 -0.00238235 -0.0384333)
(-0.00135159 0.0114096 -0.0352584)
(0.00276524 0.0246013 -0.0331864)
(0.00689509 0.0372347 -0.0319103)
(0.0109122 0.0496279 -0.0311637)
(0.0147496 0.0621898 -0.0307567)
(0.0183699 0.0753674 -0.0305628)
(0.0217318 0.0896825 -0.0304903)
(0.024788 0.10571 -0.0304745)
(0.0274389 0.124037 -0.0304803)
(0.0295409 0.14517 -0.0305367)
(0.030921 0.169404 -0.0307702)
(0.0312783 0.196418 -0.0313827)
(0.029994 0.223721 -0.0319986)
(0.0267857 0.246956 -0.0312629)
(0.0221626 0.264742 -0.0272764)
(0.0165795 0.280666 -0.0182054)
(0.010351 0.300211 -0.00373795)
(0.00572645 0.32046 0.0102977)
(0.00229488 0.313332 0.0194535)
(-0.00161731 -0.230678 -0.0108666)
(-0.00220635 -0.352956 -0.0129395)
(-0.00250725 -0.383361 -0.0124506)
(-0.0024742 -0.390651 -0.0121915)
(-0.00241001 -0.387811 -0.012137)
(-0.00241123 -0.375357 -0.0122069)
(-0.00251785 -0.351857 -0.0114898)
(-0.0022697 -0.316542 -0.00800395)
(-0.000571186 -0.266838 -0.000670418)
(0.00393447 -0.19832 0.00694342)
(0.0103418 -0.119749 0.00620681)
(0.0154462 -0.0583532 -0.00423301)
(0.0177658 -0.0242244 -0.0158059)
(0.0180775 -0.00706952 -0.0239306)
(0.0175583 0.00361553 -0.0290656)
(0.0169181 0.0127058 -0.032256)
(0.0166345 0.0217169 -0.034103)
(0.0168814 0.0309355 -0.0350144)
(0.0176368 0.0404827 -0.0353023)
(0.0188018 0.050508 -0.0351952)
(0.0202978 0.0612262 -0.034853)
(0.0220724 0.0729429 -0.0343954)
(0.0240653 0.0860965 -0.0339372)
(0.0262183 0.101347 -0.033571)
(0.02841 0.119588 -0.0334164)
(0.0304327 0.141916 -0.0336616)
(0.0319315 0.16933 -0.0345914)
(0.03237 0.201689 -0.0364699)
(0.030976 0.23572 -0.0389096)
(0.0274606 0.265587 -0.0401024)
(0.0225171 0.28902 -0.0377521)
(0.0166177 0.30961 -0.0297167)
(0.00993845 0.332536 -0.0155707)
(0.00479939 0.353192 -0.00109552)
(0.00124887 0.338724 0.0104347)
(0.000599739 -0.250026 -0.0128683)
(0.00640565 -0.362931 -0.0133479)
(0.0112921 -0.382925 -0.0144068)
(0.015547 -0.383649 -0.0168441)
(0.0198027 -0.374195 -0.0214388)
(0.0234878 -0.353929 -0.0293319)
(0.0258993 -0.324135 -0.0401419)
(0.0268895 -0.290966 -0.0506291)
(0.0268564 -0.259164 -0.0560757)
(0.0262776 -0.224516 -0.0512345)
(0.0259822 -0.173574 -0.032802)
(0.0257797 -0.106613 -0.0136742)
(0.023996 -0.0447292 -0.00726365)
(0.0212117 -0.000794111 -0.0106294)
(0.0186626 0.0244605 -0.016205)
(0.0167793 0.038056 -0.0205755)
(0.0153693 0.0466034 -0.0235246)
(0.0142476 0.0535687 -0.0254711)
(0.0133784 0.0602673 -0.0266359)
(0.0127909 0.0671108 -0.0271161)
(0.01245 0.0743863 -0.0270233)
(0.012335 0.0823712 -0.0264894)
(0.0124234 0.0916896 -0.0255927)
(0.0127333 0.103326 -0.0243826)
(0.0132665 0.118477 -0.0230581)
(0.0140213 0.139137 -0.0220553)
(0.0149638 0.167681 -0.0222205)
(0.0159038 0.204428 -0.0244904)
(0.0162645 0.243849 -0.0281317)
(0.0154417 0.277652 -0.0301911)
(0.0133246 0.303728 -0.0281156)
(0.00994395 0.326522 -0.0206433)
(0.00559117 0.350719 -0.00825126)
(0.00207166 0.369773 0.00402879)
(0.000194215 0.347447 0.0133757)
(0.00123039 -0.259469 -0.00391475)
(0.00629011 -0.391846 0.0117647)
(0.0101134 -0.418456 0.0160815)
(0.0131577 -0.419771 0.0158872)
(0.0157172 -0.40744 0.0122046)
(0.0171601 -0.378896 0.00418917)
(0.0168354 -0.333741 -0.00708208)
(0.0152287 -0.276483 -0.0192358)
(0.0129852 -0.213595 -0.0299118)
(0.0105115 -0.148882 -0.0361951)
(0.00848843 -0.0793781 -0.0345826)
(0.00739892 -0.0084788 -0.0286088)
(0.0051241 0.0356484 -0.0270048)
(0.00306035 0.0525103 -0.0278521)
(0.00191526 0.0607014 -0.0289717)
(0.0011835 0.0666104 -0.0299896)
(0.000697483 0.0718294 -0.0307469)
(0.000282891 0.0769477 -0.0310843)
(-0.000165062 0.0823002 -0.0309042)
(-0.000671417 0.0880603 -0.0301661)
(-0.00125122 0.0943186 -0.0288653)
(-0.00189804 0.101162 -0.0270242)
(-0.00260261 0.108921 -0.0246082)
(-0.00335328 0.118014 -0.0216209)
(-0.00405103 0.129082 -0.0181943)
(-0.00456373 0.143589 -0.0146066)
(-0.00463207 0.163755 -0.0115533)
(-0.00389065 0.191169 -0.0102013)
(-0.00220464 0.224007 -0.0109164)
(9.85609e-06 0.2578 -0.0116296)
(0.00205305 0.290451 -0.00911128)
(0.0028759 0.322146 -0.00184321)
(0.00184436 0.351097 0.0083814)
(0.000267385 0.369206 0.0171437)
(-0.000424467 0.34193 0.0211259)
(0.00344533 -0.290646 0.00533685)
(0.0119614 -0.411567 0.0244373)
(0.0169602 -0.428773 0.0260999)
(0.0202455 -0.422722 0.0218046)
(0.0223472 -0.396348 0.00876754)
(0.0212057 -0.349817 -0.0121651)
(0.0171223 -0.29663 -0.032622)
(0.0115882 -0.246895 -0.04717)
(0.00514741 -0.203634 -0.0546076)
(-0.00207223 -0.164243 -0.0544908)
(-0.0090705 -0.11693 -0.0457646)
(-0.0126387 -0.0492544 -0.0318286)
(-0.0120774 0.0181735 -0.0251117)
(-0.0104289 0.0545319 -0.0262065)
(-0.00895142 0.0688879 -0.0279686)
(-0.00757555 0.0776126 -0.0293151)
(-0.00620111 0.084792 -0.0304169)
(-0.00501441 0.0912004 -0.0311768)
(-0.00404417 0.0972665 -0.0314846)
(-0.00327448 0.103289 -0.0312722)
(-0.00270271 0.109451 -0.0305069)
(-0.00234482 0.115843 -0.0291863)
(-0.00220494 0.122519 -0.0273275)
(-0.00228218 0.129836 -0.0248732)
(-0.00256238 0.138196 -0.0217342)
(-0.00296813 0.147779 -0.0180302)
(-0.00331121 0.15918 -0.014048)
(-0.00335323 0.173319 -0.0103595)
(-0.00286101 0.190875 -0.00764491)
(-0.00169559 0.212534 -0.0058186)
(0.000290673 0.241312 -0.00294277)
(0.0024577 0.282147 0.00404925)
(0.00279795 0.32925 0.0148642)
(0.00195076 0.357709 0.0226482)
(0.000786461 0.3355 0.0235923)
(0.00308324 -0.334877 0.0356415)
(0.00712218 -0.451077 0.0663414)
(0.00811946 -0.459241 0.0677013)
(0.00712801 -0.438677 0.0574376)
(0.00290918 -0.378329 0.0278431)
(-0.00453678 -0.300085 -0.00569032)
(-0.0116668 -0.224702 -0.0285155)
(-0.017337 -0.150174 -0.0413737)
(-0.0221912 -0.0717809 -0.0489367)
(-0.0286577 -0.0037303 -0.0527189)
(-0.0363848 0.0315697 -0.0515144)
(-0.0396888 0.044743 -0.0481932)
(-0.0391502 0.0536032 -0.0455003)
(-0.0365561 0.0622003 -0.0436746)
(-0.0326224 0.0705368 -0.042509)
(-0.0283926 0.0782728 -0.0418242)
(-0.0243696 0.085511 -0.0413653)
(-0.0205437 0.0924919 -0.0409448)
(-0.0169356 0.0993824 -0.0404348)
(-0.0135656 0.106303 -0.0397483)
(-0.0104904 0.113308 -0.0388289)
(-0.00773077 0.120528 -0.0376264)
(-0.00528073 0.128122 -0.0360703)
(-0.00316078 0.13611 -0.034084)
(-0.00139931 0.144404 -0.0316419)
(1.6612e-05 0.152947 -0.0287492)
(0.00110875 0.161794 -0.0254535)
(0.00190367 0.171128 -0.0218994)
(0.00238724 0.181296 -0.0183867)
(0.00261031 0.193371 -0.0151409)
(0.00289356 0.211611 -0.0115942)
(0.00360363 0.248198 -0.00509359)
(0.00337167 0.310787 0.00681178)
(0.00254543 0.355107 0.0159047)
(0.000880721 0.339117 0.0175426)
(0.00196129 -0.362651 0.0628434)
(0.00411897 -0.454415 0.088299)
(0.00297382 -0.45114 0.0856945)
(-0.00149408 -0.398142 0.0599531)
(-0.0116945 -0.299163 0.00843932)
(-0.0228361 -0.218803 -0.0284848)
(-0.0323383 -0.16524 -0.0429863)
(-0.0401825 -0.120971 -0.0450664)
(-0.0450963 -0.0715035 -0.0429281)
(-0.0453633 -0.0186072 -0.0418556)
(-0.042421 0.0170224 -0.0424172)
(-0.0390267 0.0326202 -0.0425007)
(-0.0356969 0.0423201 -0.0422761)
(-0.0320785 0.0506141 -0.0420433)
(-0.0282372 0.0584695 -0.041879)
(-0.0243471 0.0660411 -0.0417772)
(-0.0204621 0.0734263 -0.0417006)
(-0.0165932 0.0807586 -0.0416092)
(-0.0127594 0.0881635 -0.0414663)
(-0.00899648 0.0957442 -0.0412345)
(-0.00534861 0.103564 -0.0408696)
(-0.00185603 0.111669 -0.0403217)
(0.00143809 0.120091 -0.039548)
(0.00449569 0.128826 -0.0385138)
(0.00727857 0.137811 -0.0371904)
(0.00973576 0.14696 -0.0355524)
(0.0117978 0.156214 -0.0335757)
(0.0133602 0.165587 -0.0312494)
(0.0142798 0.175217 -0.0286021)
(0.0143802 0.185656 -0.0257046)
(0.0136289 0.199687 -0.0222947)
(0.0119837 0.229865 -0.0165525)
(0.00793281 0.300928 -0.00522326)
(0.00460344 0.361864 0.00503505)
(0.00141624 0.34939 0.00901188)
(0.000557711 -0.405316 0.0937718)
(-0.000208568 -0.480824 0.115011)
(-0.00538496 -0.461353 0.108533)
(-0.0140731 -0.352816 0.0649964)
(-0.0252359 -0.226335 0.00752886)
(-0.0323302 -0.143045 -0.0216367)
(-0.036958 -0.0793245 -0.0351296)
(-0.0417157 -0.0314336 -0.0415454)
(-0.0449516 -0.00372021 -0.0430062)
(-0.0449258 0.0114058 -0.0425878)
(-0.0428528 0.0220451 -0.041997)
(-0.039702 0.0308505 -0.0415162)
(-0.0360349 0.0387362 -0.0411921)
(-0.0322342 0.0460386 -0.0410026)
(-0.0284009 0.0529848 -0.0409027)
(-0.0245309 0.0597532 -0.0408539)
(-0.0206238 0.0664627 -0.0408244)
(-0.0166945 0.0732051 -0.0407881)
(-0.0127545 0.0800865 -0.040726)
(-0.0088163 0.0872331 -0.0406245)
(-0.00490115 0.0947516 -0.0404624)
(-0.0010446 0.102713 -0.0402083)
(0.00270666 0.111161 -0.0398305)
(0.00630275 0.120104 -0.039303)
(0.00969048 0.129518 -0.0386029)
(0.0128075 0.139359 -0.0377036)
(0.0155746 0.14961 -0.0365654)
(0.0178757 0.16034 -0.035126)
(0.0195312 0.171807 -0.0332914)
(0.0203182 0.184794 -0.030895)
(0.0199436 0.20233 -0.0274432)
(0.0175692 0.23821 -0.0212813)
(0.0107079 0.318782 -0.0113485)
(0.00499295 0.383879 -0.00260478)
(0.00121488 0.366064 0.00239782)
(-0.00493481 -0.412233 0.101147)
(-0.00840129 -0.475772 0.111726)
(-0.014604 -0.441915 0.100385)
(-0.0219221 -0.29561 0.0529367)
(-0.0267563 -0.174614 0.00339718)
(-0.0315904 -0.12124 -0.0118761)
(-0.0345458 -0.0768181 -0.0182099)
(-0.035788 -0.0347442 -0.023453)
(-0.0351917 -0.00620152 -0.0273822)
(-0.0336662 0.00789445 -0.0293728)
(-0.0318197 0.0164725 -0.0304111)
(-0.0295961 0.0235965 -0.0311358)
(-0.0270084 0.0304424 -0.031773)
(-0.0242096 0.0371689 -0.0323724)
(-0.0212782 0.0437576 -0.0329327)
(-0.0182396 0.0502234 -0.0334419)
(-0.0151059 0.0566284 -0.033889)
(-0.0118861 0.063051 -0.0342663)
(-0.00861015 0.0695569 -0.0345691)
(-0.00529997 0.0762627 -0.0347991)
(-0.00194802 0.0833583 -0.0349605)
(0.00142699 0.091016 -0.0350506)
(0.00477691 0.0993401 -0.0350494)
(0.00804237 0.108381 -0.0349269)
(0.011158 0.118163 -0.0346607)
(0.0140564 0.128707 -0.0342309)
(0.0166635 0.140077 -0.0336049)
(0.0188811 0.152484 -0.0327142)
(0.0205564 0.16651 -0.0314112)
(0.0214592 0.183801 -0.0293488)
(0.0211239 0.209665 -0.0256093)
(0.0183902 0.261428 -0.0185876)
(0.0107567 0.353716 -0.00984234)
(0.00426877 0.412552 -0.00366186)
(0.000858252 0.382519 0.000773499)
(-0.00770686 -0.397706 0.0943828)
(-0.013563 -0.491815 0.104116)
(-0.0185941 -0.469435 0.101274)
(-0.0183229 -0.350889 0.085921)
(-0.0109005 -0.188862 0.0434246)
(-0.00982136 -0.100595 0.0129165)
(-0.0130832 -0.0518706 -0.00199554)
(-0.0162786 -0.020786 -0.00943215)
(-0.0178609 -0.00248184 -0.0134856)
(-0.0183098 0.00771587 -0.0158948)
(-0.0181615 0.0146043 -0.0176031)
(-0.0175449 0.0207969 -0.0190922)
(-0.0164652 0.0270255 -0.0205102)
(-0.0150573 0.0331521 -0.021835)
(-0.0133959 0.0391547 -0.02305)
(-0.0115267 0.0450643 -0.0241446)
(-0.00948576 0.0509498 -0.0251138)
(-0.00730452 0.0568959 -0.0259562)
(-0.00500981 0.0629864 -0.0266723)
(-0.00262037 0.0692945 -0.0272612)
(-0.000178165 0.0758877 -0.0277242)
(0.0022941 0.0829609 -0.028073)
(0.00479608 0.0908416 -0.0283189)
(0.00728578 0.099739 -0.0284296)
(0.00966211 0.109699 -0.0283713)
(0.0118451 0.120767 -0.0281238)
(0.013763 0.13307 -0.0276664)
(0.0153343 0.146971 -0.0269432)
(0.016455 0.163481 -0.0257864)
(0.0169584 0.185482 -0.0237337)
(0.0164122 0.221375 -0.0195903)
(0.0138867 0.290418 -0.0116893)
(0.00785538 0.389466 -0.00309598)
(0.00256767 0.437676 0.0014408)
(0.00026037 0.392589 0.00449217)
(-0.0077767 -0.369872 0.0738919)
(-0.0160303 -0.512929 0.0783964)
(-0.0211925 -0.523083 0.08385)
(-0.0209922 -0.481174 0.095138)
(-0.0115722 -0.328453 0.0939714)
(0.00242673 -0.160777 0.0645533)
(0.00739415 -0.0646167 0.0356043)
(0.00685136 -0.0189571 0.0182279)
(0.00481334 0.00120603 0.0093029)
(0.00269445 0.0106336 0.00436075)
(0.00095562 0.0163937 0.00101074)
(-0.000288228 0.0214704 -0.00180112)
(-0.000992217 0.0267593 -0.00441653)
(-0.00117737 0.0321788 -0.006855)
(-0.00100146 0.0376401 -0.00910384)
(-0.000565846 0.0431107 -0.0111513)
(8.84551e-05 0.0486093 -0.0129938)
(0.000922722 0.0541917 -0.0146326)
(0.00190362 0.0599357 -0.0160708)
(0.00300881 0.065922 -0.0173124)
(0.00421967 0.0722281 -0.0183618)
(0.00547779 0.0789348 -0.0192174)
(0.00676983 0.0864305 -0.0198932)
(0.00807919 0.0951694 -0.0203859)
(0.00931157 0.105256 -0.0206563)
(0.0103882 0.116779 -0.0206732)
(0.0112304 0.129922 -0.0204194)
(0.0117614 0.145139 -0.0198626)
(0.0119223 0.16368 -0.0188752)
(0.0116529 0.189134 -0.0170483)
(0.0107495 0.231501 -0.0132423)
(0.0087186 0.310418 -0.00541588)
(0.00494315 0.411769 0.00384051)
(0.00158911 0.452463 0.00830214)
(0.000171682 0.395388 0.0102027)
(-0.00498312 -0.347214 0.0518187)
(-0.0167706 -0.515431 0.0437748)
(-0.0268989 -0.55181 0.0460457)
(-0.0341858 -0.552253 0.0574594)
(-0.0369256 -0.497919 0.0816886)
(-0.0227622 -0.33216 0.0944585)
(-0.00297816 -0.166929 0.0793246)
(0.0117065 -0.0624401 0.0575062)
(0.0205235 -0.0111209 0.0407673)
(0.023848 0.00937812 0.0303618)
(0.023777 0.0177075 0.0237839)
(0.0220443 0.0228509 0.018867)
(0.0197398 0.0278531 0.0146498)
(0.01767 0.0331386 0.0108272)
(0.0160934 0.0385117 0.00731861)
(0.0149079 0.0439627 0.00409188)
(0.0140079 0.0495398 0.00112972)
(0.0133533 0.0552583 -0.00157012)
(0.0128847 0.0611156 -0.00400173)
(0.0125471 0.0671128 -0.00614915)
(0.0123234 0.0733211 -0.00800661)
(0.0121856 0.0800264 -0.00960184)
(0.0121214 0.0876206 -0.0109509)
(0.012096 0.0963974 -0.0120543)
(0.0120687 0.106601 -0.0128825)
(0.0119747 0.11847 -0.0133919)
(0.0117243 0.132284 -0.0135439)
(0.0112293 0.14852 -0.0133054)
(0.01043 0.168358 -0.0126003)
(0.00932333 0.195235 -0.0111738)
(0.00801782 0.23913 -0.00813006)
(0.00656043 0.319695 -0.00149296)
(0.00438354 0.421526 0.00759953)
(0.00247403 0.459613 0.0125501)
(0.000954119 0.397652 0.0140784)
(-0.00628298 -0.30693 0.0370357)
(-0.0195061 -0.452045 0.0156509)
(-0.0325845 -0.495856 0.00529159)
(-0.0436538 -0.516231 0.00620508)
(-0.0520568 -0.525009 0.0179827)
(-0.0533766 -0.498003 0.0455085)
(-0.0375259 -0.390809 0.0714728)
(-0.0139413 -0.263728 0.0815213)
(0.0110158 -0.149634 0.0808378)
(0.0328619 -0.0615125 0.0735528)
(0.0484149 -0.00468245 0.0630528)
(0.0562192 0.0240992 0.0523771)
(0.0576871 0.0355705 0.0433746)
(0.0551532 0.0408486 0.0359169)
(0.0503123 0.0458218 0.029516)
(0.0451286 0.0515496 0.0239263)
(0.040734 0.0573514 0.0190011)
(0.0370599 0.0631084 0.0146142)
(0.0338937 0.0689496 0.010681)
(0.031138 0.0749538 0.0071675)
(0.0287324 0.0812176 0.00406021)
(0.0266388 0.0879265 0.00133913)
(0.0248035 0.0953428 -0.00103261)
(0.0231717 0.103785 -0.00308288)
(0.0217103 0.113624 -0.00481693)
(0.0203785 0.125269 -0.00620967)
(0.0190891 0.139148 -0.00720969)
(0.0177027 0.155743 -0.00775283)
(0.0160488 0.175884 -0.0077637)
(0.0140698 0.202016 -0.00706705)
(0.011917 0.242326 -0.00504353)
(0.00973107 0.31743 0.000106234)
(0.00682819 0.423 0.0086792)
(0.00475353 0.465876 0.0141144)
(0.00217624 0.407117 0.0158348)
(-0.00642388 -0.255755 0.0248249)
(-0.0115197 -0.413443 0.00177384)
(-0.0157502 -0.465561 -0.0141753)
(-0.0198436 -0.491448 -0.0242862)
(-0.0246435 -0.510818 -0.0307689)
(-0.0291259 -0.529015 -0.0314049)
(-0.0316351 -0.537235 -0.0196181)
(-0.0252191 -0.502144 0.00524479)
(-0.00883663 -0.424937 0.0318957)
(0.013244 -0.325908 0.0550617)
(0.0384412 -0.215438 0.0728885)
(0.0628668 -0.105886 0.0829849)
(0.0825307 -0.0123131 0.0835626)
(0.0938204 0.0496051 0.0752604)
(0.0958568 0.0758171 0.0629671)
(0.091294 0.0823129 0.051368)
(0.0827066 0.0842161 0.0417002)
(0.0732646 0.0868356 0.0338149)
(0.0650213 0.0905073 0.0272997)
(0.0579604 0.0949168 0.0217438)
(0.0518546 0.0999135 0.0169155)
(0.0465792 0.105497 0.012706)
(0.04202 0.111794 0.00904571)
(0.0380858 0.11905 0.00586863)
(0.034703 0.127649 0.00311316)
(0.0318082 0.138144 0.00074274)
(0.0292908 0.151267 -0.00123375)
(0.0269741 0.16792 -0.00274376)
(0.0246247 0.18923 -0.00364992)
(0.0220314 0.217257 -0.00373256)
(0.0191069 0.258227 -0.0024955)
(0.0156984 0.330333 0.00155074)
(0.0107179 0.436026 0.00927646)
(0.00720503 0.482832 0.0146303)
(0.00320687 0.426838 0.0163005)
(-0.000420301 -0.257527 0.00946634)
(0.00660539 -0.441528 -0.0154403)
(0.0115951 -0.496643 -0.0281579)
(0.0156436 -0.511413 -0.0353416)
(0.0186283 -0.511436 -0.0417886)
(0.0197439 -0.504834 -0.0496503)
(0.0185869 -0.500241 -0.0587042)
(0.0162436 -0.503207 -0.0650099)
(0.0147898 -0.50514 -0.0636764)