/*--------------------------------*- C++ -*----------------------------------*\
| =========                 |                                                 |
| \\      /  F ield         | OpenFOAM: The Open Source CFD Toolbox           |
|  \\    /   O peration     | Version:  v1906                                 |
|   \\  /    A nd           | Web:      www.OpenFOAM.com                      |
|    \\/     M anipulation  |                                                 |
\*---------------------------------------------------------------------------*/
FoamFile
{
    version     2.0;
    format      ascii;
    class       volVectorField;
    location    "11.4/oil";
    object      U;
}
// * * * * * * * * * * * * * * * * * * * * * * * * * * * * * * * * * * * * * //

dimensions      [0 1 -1 0 0 0 0];


internalField   nonuniform List<vector> 
27760
(
(-3.2834e-05 -3.35055e-05 -3.28341e-05)
(-6.48647e-05 -2.51527e-05 -2.36424e-05)
(-4.8333e-06 -6.54096e-06 -6.42711e-06)
(-7.99166e-06 -1.0908e-06 -1.11523e-06)
(-2.06478e-06 -3.75288e-07 -3.97084e-07)
(-1.28177e-06 -1.86161e-07 -2.0027e-07)
(-5.79135e-07 -7.54935e-08 -8.60798e-08)
(-2.79788e-07 -3.34939e-08 -4.29867e-08)
(-1.18306e-07 -1.34301e-08 -2.2775e-08)
(-3.62901e-08 -3.87464e-09 -1.33656e-08)
(3.92531e-09 1.13469e-09 -8.54339e-09)
(1.89824e-08 3.95332e-09 -5.87412e-09)
(1.81794e-08 5.64927e-09 -4.27657e-09)
(7.07559e-09 6.68018e-09 -3.30662e-09)
(-1.03617e-08 7.24786e-09 -2.76994e-09)
(-3.09444e-08 7.43935e-09 -2.57924e-09)
(-5.19523e-08 7.32295e-09 -2.67053e-09)
(-7.10555e-08 6.94789e-09 -2.9868e-09)
(-8.64083e-08 6.35958e-09 -3.4638e-09)
(-9.67037e-08 5.62319e-09 -4.02071e-09)
(-1.01204e-07 4.79561e-09 -4.57536e-09)
(-9.97564e-08 3.92092e-09 -5.05133e-09)
(-9.27371e-08 3.03413e-09 -5.37571e-09)
(-8.09825e-08 2.16348e-09 -5.47033e-09)
(-6.57051e-08 1.33263e-09 -5.2614e-09)
(-4.84424e-08 5.66282e-10 -4.69764e-09)
(-3.10438e-08 -7.46217e-11 -3.76582e-09)
(-1.56263e-08 -4.42854e-10 -2.5186e-09)
(-4.36561e-09 -2.67525e-10 -1.23819e-09)
(3.0983e-10 4.69225e-10 -1.74883e-10)
(-2.38473e-05 -6.66186e-05 -2.38473e-05)
(-7.91802e-06 -8.50248e-06 -1.06834e-05)
(-1.08745e-05 -1.02477e-05 -3.73087e-06)
(-5.42224e-06 -2.76229e-06 -1.05801e-06)
(-2.70145e-06 -1.55723e-06 -5.14789e-07)
(-1.56593e-06 -7.22373e-07 -2.42747e-07)
(-8.1411e-07 -3.77027e-07 -1.12489e-07)
(-4.18143e-07 -2.05447e-07 -5.39521e-08)
(-1.87269e-07 -1.19829e-07 -2.46672e-08)
(-5.91718e-08 -7.4032e-08 -9.70529e-09)
(6.93515e-09 -4.80162e-08 -1.34423e-09)
(3.20702e-08 -3.22628e-08 3.687e-09)
(2.92981e-08 -2.23077e-08 6.89428e-09)
(7.46639e-09 -1.60211e-08 8.91806e-09)
(-2.64889e-08 -1.23658e-08 1.00363e-08)
(-6.66107e-08 -1.07886e-08 1.03926e-08)
(-1.07643e-07 -1.09163e-08 1.00825e-08)
(-1.45055e-07 -1.24328e-08 9.21694e-09)
(-1.75195e-07 -1.50126e-08 7.94236e-09)
(-1.95472e-07 -1.83072e-08 6.4133e-09)
(-2.04451e-07 -2.1969e-08 4.79938e-09)
(-2.01843e-07 -2.5678e-08 3.26491e-09)
(-1.884e-07 -2.91402e-08 1.95708e-09)
(-1.65775e-07 -3.20777e-08 9.97991e-10)
(-1.36355e-07 -3.41855e-08 4.79257e-10)
(-1.03106e-07 -3.50655e-08 4.45783e-10)
(-6.94356e-08 -3.40979e-08 8.67043e-10)
(-3.89525e-08 -3.03042e-08 1.56988e-09)
(-1.5236e-08 -2.21921e-08 2.0863e-09)
(-1.3623e-09 -8.87086e-09 1.56433e-09)
(-6.61721e-06 -6.04234e-06 -6.61724e-06)
(-1.05862e-05 -1.12087e-05 -3.84968e-06)
(-5.89463e-06 -5.87163e-06 -1.71605e-06)
(-3.99925e-06 -2.92969e-06 -8.24092e-07)
(-2.30907e-06 -1.69798e-06 -4.00219e-07)
(-1.39314e-06 -9.49027e-07 -1.9489e-07)
(-7.76402e-07 -5.75135e-07 -9.23162e-08)
(-4.11162e-07 -3.6901e-07 -4.2278e-08)
(-1.84735e-07 -2.54216e-07 -1.58627e-08)
(-5.24056e-08 -1.86839e-07 -1.38282e-09)
(1.73527e-08 -1.45395e-07 7.31015e-09)
(4.26205e-08 -1.18711e-07 1.2918e-08)
(3.58259e-08 -1.01082e-07 1.66919e-08)
(6.30309e-09 -8.95676e-08 1.91609e-08)
(-3.79947e-08 -8.26174e-08 2.05414e-08)
(-8.98696e-08 -7.93155e-08 2.09497e-08)
(-1.42782e-07 -7.90169e-08 2.04848e-08)
(-1.90991e-07 -8.11394e-08 1.92769e-08)
(-2.29848e-07 -8.50599e-08 1.75065e-08)
(-2.56058e-07 -9.01366e-08 1.53774e-08)
(-2.67801e-07 -9.571e-08 1.31088e-08)
(-2.64739e-07 -1.01148e-07 1.0907e-08)
(-2.4787e-07 -1.05845e-07 8.95056e-09)
(-2.19331e-07 -1.09196e-07 7.37828e-09)
(-1.82143e-07 -1.105e-07 6.27847e-09)
(-1.39976e-07 -1.08822e-07 5.67503e-09)
(-9.69147e-08 -1.02772e-07 5.49801e-09)
(-5.70562e-08 -9.02499e-08 5.49647e-09)
(-2.45542e-08 -6.79405e-08 5.11419e-09)
(-2.77512e-09 -3.11644e-08 3.03508e-09)
(-1.2194e-06 -8.57281e-06 -1.21944e-06)
(-3.00881e-06 -5.82998e-06 -1.1309e-06)
(-2.9076e-06 -4.25258e-06 -8.39415e-07)
(-2.32548e-06 -2.57943e-06 -4.67245e-07)
(-1.54258e-06 -1.65923e-06 -2.49758e-07)
(-1.00091e-06 -1.06666e-06 -1.29508e-07)
(-5.89622e-07 -7.29406e-07 -6.27398e-08)
(-3.14345e-07 -5.26106e-07 -2.67884e-08)
(-1.30933e-07 -4.02844e-07 -6.21699e-09)
(-1.84769e-08 -3.25054e-07 6.12247e-09)
(4.08085e-08 -2.74181e-07 1.41726e-08)
(5.88156e-08 -2.39786e-07 1.9756e-08)
(4.51109e-08 -2.16201e-07 2.37126e-08)
(7.99078e-09 -2.00333e-07 2.63828e-08)
(-4.46774e-08 -1.90459e-07 2.7885e-08)
(-1.05282e-07 -1.85482e-07 2.82935e-08)
(-1.66663e-07 -1.84561e-07 2.76955e-08)
(-2.224e-07 -1.86894e-07 2.6226e-08)
(-2.67255e-07 -1.91589e-07 2.40924e-08)
(-2.97519e-07 -1.97708e-07 2.15296e-08)
(-3.11171e-07 -2.04275e-07 1.87939e-08)
(-3.07895e-07 -2.10343e-07 1.61196e-08)
(-2.88889e-07 -2.14985e-07 1.37064e-08)
(-2.56613e-07 -2.17243e-07 1.17026e-08)
(-2.14465e-07 -2.15983e-07 1.01939e-08)
(-1.66485e-07 -2.09684e-07 9.19208e-09)
(-1.17072e-07 -1.96107e-07 8.60858e-09)
(-7.05242e-08 -1.7181e-07 8.14948e-09)
(-3.1444e-08 -1.30987e-07 7.20463e-09)
(-3.77278e-09 -6.27572e-08 4.10286e-09)
(-4.29795e-07 -2.44667e-06 -4.29838e-07)
(-1.63344e-06 -3.11997e-06 -5.43338e-07)
(-1.6021e-06 -2.72908e-06 -4.10099e-07)
(-1.37272e-06 -1.98987e-06 -2.5244e-07)
(-9.86971e-07 -1.46654e-06 -1.43862e-07)
(-6.65871e-07 -1.08038e-06 -7.71209e-08)
(-3.97081e-07 -8.28678e-07 -3.65763e-08)
(-1.99412e-07 -6.61188e-07 -1.26316e-08)
(-6.01683e-08 -5.50159e-07 2.4076e-09)
(2.7516e-08 -4.74647e-07 1.23892e-08)
(7.18396e-08 -4.2207e-07 1.95418e-08)
(7.96177e-08 -3.84704e-07 2.48969e-08)
(5.7639e-08 -3.58079e-07 2.88918e-08)
(1.28909e-08 -3.3961e-07 3.16683e-08)
(-4.72072e-08 -3.27771e-07 3.32331e-08)
(-1.14996e-07 -3.21481e-07 3.36126e-08)
(-1.83039e-07 -3.19831e-07 3.28756e-08)
(-2.44526e-07 -3.21898e-07 3.11558e-08)
(-2.93852e-07 -3.26594e-07 2.86893e-08)
(-3.27066e-07 -3.32747e-07 2.57372e-08)
(-3.42059e-07 -3.39117e-07 2.25932e-08)
(-3.3859e-07 -3.44491e-07 1.95191e-08)
(-3.18038e-07 -3.47654e-07 1.67345e-08)
(-2.83114e-07 -3.47328e-07 1.43955e-08)
(-2.37477e-07 -3.4197e-07 1.25883e-08)
(-1.85383e-07 -3.29473e-07 1.13172e-08)
(-1.31411e-07 -3.06688e-07 1.04833e-08)
(-7.9995e-08 -2.68605e-07 9.76581e-09)
(-3.61424e-08 -2.06288e-07 8.51326e-09)
(-4.4019e-09 -1.0091e-07 4.80509e-09)
(-2.0684e-07 -1.58177e-06 -2.06888e-07)
(-7.17714e-07 -2.04119e-06 -2.51587e-07)
(-8.05793e-07 -1.9567e-06 -1.99184e-07)
(-7.51151e-07 -1.62449e-06 -1.31751e-07)
(-5.74959e-07 -1.3344e-06 -7.81357e-08)
(-3.93537e-07 -1.09357e-06 -4.19472e-08)
(-2.23693e-07 -9.17969e-07 -1.78054e-08)
(-8.7297e-08 -7.90466e-07 -1.97655e-09)
(1.33607e-08 -6.99044e-07 9.1036e-09)
(7.70551e-08 -6.32629e-07 1.73182e-08)
(1.05783e-07 -5.83753e-07 2.37847e-08)
(1.02641e-07 -5.47436e-07 2.89796e-08)
(7.2172e-08 -5.20639e-07 3.30286e-08)
(2.01571e-08 -5.01487e-07 3.59103e-08)
(-4.65072e-08 -4.88815e-07 3.75274e-08)
(-1.2028e-07 -4.81672e-07 3.78668e-08)
(-1.9365e-07 -4.79179e-07 3.69792e-08)
(-2.59588e-07 -4.80393e-07 3.49936e-08)
(-3.12266e-07 -4.84125e-07 3.21788e-08)
(-3.47596e-07 -4.89072e-07 2.88249e-08)
(-3.63461e-07 -4.93832e-07 2.527e-08)
(-3.59721e-07 -4.97002e-07 2.18041e-08)
(-3.37945e-07 -4.97162e-07 1.86685e-08)
(-3.01065e-07 -4.92782e-07 1.603e-08)
(-2.52927e-07 -4.8195e-07 1.39764e-08)
(-1.97941e-07 -4.61985e-07 1.25068e-08)
(-1.40802e-07 -4.2877e-07 1.15142e-08)
(-8.60586e-08 -3.75512e-07 1.06595e-08)
(-3.90341e-08 -2.89648e-07 9.25785e-09)
(-4.75518e-09 -1.43289e-07 5.22701e-09)
(-8.26962e-08 -8.83314e-07 -8.27477e-08)
(-3.35937e-07 -1.37272e-06 -1.12354e-07)
(-4.07501e-07 -1.47675e-06 -9.34956e-08)
(-3.96894e-07 -1.37946e-06 -6.48414e-08)
(-3.08084e-07 -1.24808e-06 -3.87673e-08)
(-1.99434e-07 -1.11596e-06 -1.9354e-08)
(-8.85837e-08 -1.00598e-06 -4.93055e-09)
(6.30925e-09 -9.18026e-07 5.74711e-09)
(7.80951e-08 -8.49768e-07 1.41873e-08)
(1.22181e-07 -7.96917e-07 2.11907e-08)
(1.37325e-07 -7.55957e-07 2.71993e-08)
(1.24378e-07 -7.24244e-07 3.23229e-08)
(8.63729e-08 -7.00036e-07 3.64545e-08)
(2.81913e-08 -6.82175e-07 3.94457e-08)
(-4.37268e-08 -6.69878e-07 4.11075e-08)
(-1.22017e-07 -6.62358e-07 4.14023e-08)
(-1.99245e-07 -6.58839e-07 4.03646e-08)
(-2.68289e-07 -6.58456e-07 3.81098e-08)
(-3.23201e-07 -6.60042e-07 3.4942e-08)
(-3.59839e-07 -6.6229e-07 3.11822e-08)
(-3.76112e-07 -6.63757e-07 2.72148e-08)
(-3.72017e-07 -6.62984e-07 2.33607e-08)
(-3.49308e-07 -6.58461e-07 1.98881e-08)
(-3.11096e-07 -6.48487e-07 1.69717e-08)
(-2.61382e-07 -6.30841e-07 1.47022e-08)
(-2.04667e-07 -6.02282e-07 1.30734e-08)
(-1.45711e-07 -5.57677e-07 1.19716e-08)
(-8.91257e-08 -4.88298e-07 1.10462e-08)
(-4.04191e-08 -3.77605e-07 9.5882e-09)
(-4.89957e-09 -1.88024e-07 5.43159e-09)
(-3.56451e-08 -6.14964e-07 -3.56986e-08)
(-1.50942e-07 -1.06825e-06 -5.04706e-08)
(-1.92784e-07 -1.24206e-06 -4.28024e-08)
(-1.88405e-07 -1.25972e-06 -2.98962e-08)
(-1.3658e-07 -1.22207e-06 -1.67668e-08)
(-6.59492e-08 -1.16252e-06 -5.89185e-09)
(1.00339e-08 -1.1027e-06 3.21223e-09)
(7.75891e-08 -1.04904e-06 1.08938e-08)
(1.28745e-07 -1.00383e-06 1.77311e-08)
(1.57872e-07 -9.66623e-07 2.39872e-08)
(1.62247e-07 -9.36382e-07 2.9729e-08)
(1.41497e-07 -9.1204e-07 3.48393e-08)
(9.77313e-08 -8.92806e-07 3.90516e-08)
(3.52017e-08 -8.78041e-07 4.21337e-08)
(-4.00234e-08 -8.67243e-07 4.38208e-08)
(-1.20821e-07 -8.59763e-07 4.40708e-08)
(-1.99997e-07 -8.54955e-07 4.29053e-08)
(-2.70476e-07 -8.52126e-07 4.04142e-08)
(-3.26286e-07 -8.50245e-07 3.69368e-08)
(-3.63304e-07 -8.4815e-07 3.2814e-08)
(-3.79499e-07 -8.44513e-07 2.84767e-08)
(-3.75009e-07 -8.37957e-07 2.42779e-08)
(-3.51744e-07 -8.27004e-07 2.05118e-08)
(-3.12946e-07 -8.09878e-07 1.73594e-08)
(-2.62711e-07 -7.84133e-07 1.49131e-08)
(-2.05566e-07 -7.45986e-07 1.31605e-08)
(-1.46254e-07 -6.89253e-07 1.19848e-08)
(-8.93728e-08 -6.03194e-07 1.10297e-08)
(-4.045e-08 -4.67123e-07 9.57903e-09)
(-4.86896e-09 -2.33524e-07 5.45109e-09)
(-1.42248e-08 -4.9272e-07 -1.42792e-08)
(-6.28556e-08 -9.2615e-07 -2.08176e-08)
(-7.93435e-08 -1.1351e-06 -1.75136e-08)
(-6.96734e-08 -1.21659e-06 -1.14752e-08)
(-3.19544e-08 -1.23791e-06 -4.57439e-09)
(1.94979e-08 -1.22847e-06 1.90563e-09)
(7.52511e-08 -1.20729e-06 8.0853e-09)
(1.25207e-07 -1.18293e-06 1.40096e-08)
(1.6212e-07 -1.15969e-06 1.98455e-08)
(1.80462e-07 -1.13903e-06 2.55951e-08)
(1.77053e-07 -1.12132e-06 3.11232e-08)
(1.50971e-07 -1.10641e-06 3.61822e-08)
(1.03824e-07 -1.09402e-06 4.04004e-08)
(3.94357e-08 -1.08382e-06 4.34995e-08)
(-3.64694e-08 -1.07544e-06 4.51595e-08)
(-1.17123e-07 -1.06832e-06 4.53665e-08)
(-1.95765e-07 -1.06195e-06 4.41326e-08)
(-2.65549e-07 -1.05587e-06 4.14951e-08)
(-3.20605e-07 -1.04929e-06 3.78204e-08)
(-3.56904e-07 -1.04131e-06 3.34558e-08)
(-3.72486e-07 -1.03085e-06 2.88727e-08)
(-3.67617e-07 -1.01679e-06 2.44448e-08)
(-3.44311e-07 -9.978e-07 2.04842e-08)
(-3.05875e-07 -9.72135e-07 1.71802e-08)
(-2.56399e-07 -9.37188e-07 1.4624e-08)
(-2.00335e-07 -8.88679e-07 1.28008e-08)
(-1.42311e-07 -8.19393e-07 1.15902e-08)
(-8.67974e-08 -7.16545e-07 1.06409e-08)
(-3.91683e-08 -5.55297e-07 9.25387e-09)
(-4.67496e-09 -2.78297e-07 5.29696e-09)
(-4.88554e-09 -4.47981e-07 -4.94032e-09)
(-2.01772e-08 -8.75787e-07 -7.0849e-09)
(-1.99277e-08 -1.10493e-06 -5.3433e-09)
(-4.33695e-09 -1.22328e-06 -2.21474e-09)
(2.76723e-08 -1.28229e-06 1.74326e-09)
(6.85817e-08 -1.30778e-06 5.97854e-09)
(1.11821e-07 -1.31628e-06 1.05341e-08)
(1.49982e-07 -1.31659e-06 1.53765e-08)
(1.76948e-07 -1.31358e-06 2.05107e-08)
(1.87762e-07 -1.30946e-06 2.58218e-08)
(1.79311e-07 -1.30516e-06 3.1073e-08)
(1.50518e-07 -1.30087e-06 3.59527e-08)
(1.02746e-07 -1.29652e-06 4.00278e-08)
(3.94772e-08 -1.29184e-06 4.30156e-08)
(-3.39394e-08 -1.28649e-06 4.45732e-08)
(-1.11243e-07 -1.27996e-06 4.47393e-08)
(-1.8637e-07 -1.27185e-06 4.35187e-08)
(-2.52907e-07 -1.26193e-06 4.08759e-08)
(-3.05232e-07 -1.24972e-06 3.7187e-08)
(-3.39506e-07 -1.23468e-06 3.27796e-08)
(-3.53878e-07 -1.2161e-06 2.81455e-08)
(-3.48704e-07 -1.19322e-06 2.36711e-08)
(-3.26017e-07 -1.16497e-06 1.96785e-08)
(-2.89083e-07 -1.12977e-06 1.63577e-08)
(-2.41856e-07 -1.08489e-06 1.3796e-08)
(-1.88597e-07 -1.02563e-06 1.19764e-08)
(-1.33682e-07 -9.43775e-07 1.07837e-08)
(-8.13173e-08 -8.2457e-07 9.88362e-09)
(-3.65529e-08 -6.39185e-07 8.61444e-09)
(-4.31735e-09 -3.20853e-07 4.96956e-09)
(-7.90592e-10 -4.37999e-07 -8.46931e-10)
(-3.54427e-10 -8.70711e-07 -8.55617e-10)
(8.91323e-09 -1.11459e-06 2.86086e-10)
(2.76267e-08 -1.25643e-06 2.10757e-09)
(5.59614e-08 -1.34088e-06 4.60153e-09)
(8.96217e-08 -1.39156e-06 7.59893e-09)
(1.23932e-07 -1.42321e-06 1.11385e-08)
(1.53416e-07 -1.44421e-06 1.5183e-08)
(1.73103e-07 -1.45934e-06 1.96721e-08)
(1.78777e-07 -1.47091e-06 2.44496e-08)
(1.67662e-07 -1.47988e-06 2.92393e-08)
(1.38752e-07 -1.48644e-06 3.37114e-08)
(9.32785e-08 -1.49046e-06 3.74224e-08)
(3.43929e-08 -1.4916e-06 4.01194e-08)
(-3.30431e-08 -1.48948e-06 4.14709e-08)
(-1.03481e-07 -1.48365e-06 4.15973e-08)
(-1.71781e-07 -1.47382e-06 4.04987e-08)
(-2.32211e-07 -1.45994e-06 3.80429e-08)
(-2.7959e-07 -1.44179e-06 3.45853e-08)
(-3.10389e-07 -1.41922e-06 3.04087e-08)
(-3.22897e-07 -1.39195e-06 2.60054e-08)
(-3.17512e-07 -1.35964e-06 2.17459e-08)
(-2.96197e-07 -1.32162e-06 1.79469e-08)
(-2.62039e-07 -1.27651e-06 1.47927e-08)
(-2.18708e-07 -1.22157e-06 1.23681e-08)
(-1.70113e-07 -1.15171e-06 1.06559e-08)
(-1.20235e-07 -1.05784e-06 9.54841e-09)
(-7.28821e-08 -9.23368e-07 8.74722e-09)
(-3.25931e-08 -7.15782e-07 7.65765e-09)
(-3.79375e-09 -3.59683e-07 4.46737e-09)
(7.95342e-10 -4.43297e-07 7.38682e-10)
(7.4204e-09 -8.86077e-07 1.58744e-09)
(1.9725e-08 -1.1418e-06 2.43328e-09)
(3.8042e-08 -1.29963e-06 3.60711e-09)
(6.19976e-08 -1.40185e-06 5.29528e-09)
(8.89381e-08 -1.471e-06 7.50936e-09)
(1.1552e-07 -1.52067e-06 1.02916e-08)
(1.37726e-07 -1.55872e-06 1.36148e-08)
(1.51654e-07 -1.58954e-06 1.74023e-08)
(1.53899e-07 -1.61519e-06 2.14957e-08)
(1.42157e-07 -1.63638e-06 2.56231e-08)
(1.15586e-07 -1.65308e-06 2.94723e-08)
(7.52906e-08 -1.66496e-06 3.26291e-08)
(2.4014e-08 -1.67157e-06 3.48927e-08)
(-3.4034e-08 -1.67249e-06 3.59701e-08)
(-9.42048e-08 -1.66741e-06 3.60562e-08)
(-1.5243e-07 -1.65611e-06 3.51464e-08)
(-2.03877e-07 -1.63857e-06 3.30251e-08)
(-2.44018e-07 -1.61482e-06 3.0011e-08)
(-2.6978e-07 -1.585e-06 2.6324e-08)
(-2.79686e-07 -1.54929e-06 2.242e-08)
(-2.7415e-07 -1.50783e-06 1.86359e-08)
(-2.5496e-07 -1.46036e-06 1.52647e-08)
(-2.2486e-07 -1.40575e-06 1.24728e-08)
(-1.87082e-07 -1.34131e-06 1.03355e-08)
(-1.45019e-07 -1.26168e-06 8.83943e-09)
(-1.02094e-07 -1.15696e-06 7.89297e-09)
(-6.1576e-08 -1.00901e-06 7.24584e-09)
(-2.73292e-08 -7.82086e-07 6.39519e-09)
(-3.10907e-09 -3.93275e-07 3.79599e-09)
(1.1394e-09 -4.53162e-07 1.07973e-09)
(8.43756e-09 -9.06669e-07 2.04166e-09)
(1.93649e-08 -1.17164e-06 2.65e-09)
(3.40257e-08 -1.34051e-06 3.42582e-09)
(5.19351e-08 -1.45516e-06 4.57775e-09)
(7.14478e-08 -1.53772e-06 6.17505e-09)
(9.02772e-08 -1.60105e-06 8.25763e-09)
(1.05604e-07 -1.65254e-06 1.08048e-08)
(1.14561e-07 -1.69611e-06 1.37442e-08)
(1.14585e-07 -1.73346e-06 1.69364e-08)
(1.03899e-07 -1.76493e-06 2.01487e-08)
(8.18612e-08 -1.79015e-06 2.31229e-08)
(4.93862e-08 -1.80854e-06 2.55133e-08)
(8.67438e-09 -1.81962e-06 2.71839e-08)
(-3.69188e-08 -1.82302e-06 2.7923e-08)
(-8.3802e-08 -1.81865e-06 2.79637e-08)
(-1.29007e-07 -1.80635e-06 2.73044e-08)
(-1.68777e-07 -1.78599e-06 2.56815e-08)
(-1.99488e-07 -1.75767e-06 2.33373e-08)
(-2.18704e-07 -1.72176e-06 2.04247e-08)
(-2.25274e-07 -1.67883e-06 1.73222e-08)
(-2.19614e-07 -1.62945e-06 1.43057e-08)
(-2.0323e-07 -1.57377e-06 1.16219e-08)
(-1.78384e-07 -1.51094e-06 9.40455e-09)
(-1.47697e-07 -1.43836e-06 7.71904e-09)
(-1.13885e-07 -1.35045e-06 6.55608e-09)
(-7.96747e-08 -1.23674e-06 5.8485e-09)
(-4.76614e-08 -1.07779e-06 5.4085e-09)
(-2.08833e-08 -8.35277e-07 4.85349e-09)
(-2.27906e-09 -4.20217e-07 2.97265e-09)
(8.27461e-10 -4.61657e-07 7.65353e-10)
(5.49014e-09 -9.23134e-07 1.40594e-09)
(1.19102e-08 -1.19419e-06 1.75907e-09)
(2.02897e-08 -1.37006e-06 2.2221e-09)
(3.04083e-08 -1.49287e-06 2.94458e-09)
(4.14345e-08 -1.58458e-06 3.98755e-09)
(5.20337e-08 -1.65761e-06 5.37561e-09)
(6.0473e-08 -1.71896e-06 7.09926e-09)
(6.49097e-08 -1.77212e-06 9.10975e-09)
(6.36331e-08 -1.81839e-06 1.13093e-08)
(5.54289e-08 -1.85773e-06 1.35328e-08)
(3.98112e-08 -1.8895e-06 1.55963e-08)
(1.73591e-08 -1.91286e-06 1.72529e-08)
(-1.0453e-08 -1.92732e-06 1.84044e-08)
(-4.13295e-08 -1.93259e-06 1.8899e-08)
(-7.2793e-08 -1.92884e-06 1.88917e-08)
(-1.02809e-07 -1.91594e-06 1.83854e-08)
(-1.28771e-07 -1.89359e-06 1.71907e-08)
(-1.48198e-07 -1.86192e-06 1.54993e-08)
(-1.59501e-07 -1.82142e-06 1.34216e-08)
(-1.61995e-07 -1.77298e-06 1.12373e-08)
(-1.56114e-07 -1.71753e-06 9.13558e-09)
(-1.43018e-07 -1.65555e-06 7.28713e-09)
(-1.24362e-07 -1.58645e-06 5.78206e-09)
(-1.02003e-07 -1.50773e-06 4.65988e-09)
(-7.78479e-08 -1.41369e-06 3.91305e-09)
(-5.37878e-08 -1.29341e-06 3.50271e-09)
(-3.1635e-08 -1.12656e-06 3.31233e-09)
(-1.34827e-08 -8.72955e-07 3.09357e-09)
(-1.33263e-09 -4.39302e-07 2.02654e-09)
(1.60458e-10 -4.65284e-07 9.3763e-11)
(1.93269e-10 -9.29536e-07 1.54982e-10)
(5.4675e-13 -1.20282e-06 2.14191e-10)
(1.90705e-10 -1.38191e-06 3.83542e-10)
(1.09993e-09 -1.50906e-06 7.03544e-10)
(2.66263e-09 -1.60607e-06 1.18878e-09)
(4.478e-09 -1.68504e-06 1.84683e-09)
(5.85934e-09 -1.75261e-06 2.66889e-09)
(5.98015e-09 -1.81197e-06 3.62828e-09)
(3.99911e-09 -1.86408e-06 4.68016e-09)
(-7.45281e-10 -1.90864e-06 5.74745e-09)
(-8.60618e-09 -1.94475e-06 6.7439e-09)
(-1.94291e-08 -1.97145e-06 7.55425e-09)
(-3.25936e-08 -1.98821e-06 8.11627e-09)
(-4.70254e-08 -1.9948e-06 8.34778e-09)
(-6.14138e-08 -1.99153e-06 8.28532e-09)
(-7.45824e-08 -1.97829e-06 7.9461e-09)
(-8.5155e-08 -1.95472e-06 7.2554e-09)
(-9.19582e-08 -1.92098e-06 6.34824e-09)
(-9.43864e-08 -1.87764e-06 5.28565e-09)
(-9.23209e-08 -1.82581e-06 4.21197e-09)
(-8.62071e-08 -1.76663e-06 3.21637e-09)
(-7.67895e-08 -1.70084e-06 2.37341e-09)
(-6.50204e-08 -1.62801e-06 1.71685e-09)
(-5.1891e-08 -1.54568e-06 1.26215e-09)
(-3.83888e-08 -1.4481e-06 1.00713e-09)
(-2.54897e-08 -1.32412e-06 9.41109e-10)
(-1.41503e-08 -1.15292e-06 1.03182e-09)
(-5.42611e-09 -8.93307e-07 1.18203e-09)
(-3.0554e-10 -4.49615e-07 9.94909e-10)
(-6.86356e-10 -4.62059e-07 -7.5785e-10)
(-6.38785e-09 -9.22332e-07 -1.41248e-09)
(-1.44274e-08 -1.19344e-06 -1.67012e-09)
(-2.35658e-08 -1.372e-06 -1.78458e-09)
(-3.27235e-08 -1.49989e-06 -1.84155e-09)
(-4.11933e-08 -1.59861e-06 -1.88941e-09)
(-4.84431e-08 -1.67993e-06 -1.94439e-09)
(-5.41485e-08 -1.7502e-06 -2.01094e-09)
(-5.81468e-08 -1.81239e-06 -2.07883e-09)
(-6.04163e-08 -1.8673e-06 -2.12875e-09)
(-6.10802e-08 -1.91446e-06 -2.13659e-09)
(-6.03867e-08 -1.95288e-06 -2.09237e-09)
(-5.86942e-08 -1.98148e-06 -1.98965e-09)
(-5.63213e-08 -1.99967e-06 -1.88036e-09)
(-5.34701e-08 -2.00715e-06 -1.81851e-09)
(-5.00033e-08 -2.00419e-06 -1.92644e-09)
(-4.55659e-08 -1.99075e-06 -2.17344e-09)
(-4.002e-08 -1.96652e-06 -2.48234e-09)
(-3.35647e-08 -1.93182e-06 -2.73158e-09)
(-2.66545e-08 -1.88732e-06 -2.87556e-09)
(-1.97818e-08 -1.83427e-06 -2.89653e-09)
(-1.34056e-08 -1.77389e-06 -2.81207e-09)
(-7.84057e-09 -1.70699e-06 -2.65249e-09)
(-3.27285e-09 -1.63319e-06 -2.44891e-09)
(2.16559e-10 -1.55004e-06 -2.22207e-09)
(2.60287e-09 -1.45179e-06 -1.97411e-09)
(3.87719e-09 -1.32725e-06 -1.68521e-09)
(3.97282e-09 -1.15554e-06 -1.3082e-09)
(2.90914e-09 -8.95313e-07 -7.845e-10)
(7.51418e-10 -4.50648e-07 -7.08428e-11)
(-1.60458e-09 -4.51011e-07 -1.68135e-09)
(-1.34906e-08 -8.99742e-07 -3.10697e-09)
(-2.98764e-08 -1.16399e-06 -3.69238e-09)
(-4.8769e-08 -1.33829e-06 -4.08294e-09)
(-6.82605e-08 -1.46354e-06 -4.50416e-09)
(-8.68745e-08 -1.56061e-06 -5.07654e-09)
(-1.03182e-07 -1.64088e-06 -5.84295e-09)
(-1.15901e-07 -1.71048e-06 -6.81143e-09)
(-1.23917e-07 -1.77223e-06 -7.94733e-09)
(-1.26385e-07 -1.82691e-06 -9.18193e-09)
(-1.22898e-07 -1.87407e-06 -1.0395e-08)
(-1.13572e-07 -1.91273e-06 -1.14707e-08)
(-9.92023e-08 -1.94179e-06 -1.22651e-08)
(-8.0991e-08 -1.96052e-06 -1.27852e-08)
(-6.04142e-08 -1.96844e-06 -1.30008e-08)
(-3.86108e-08 -1.96567e-06 -1.31482e-08)
(-1.62088e-08 -1.95219e-06 -1.31835e-08)
(5.59748e-09 -1.92793e-06 -1.29122e-08)
(2.52506e-08 -1.89344e-06 -1.2294e-08)
(4.13124e-08 -1.84957e-06 -1.13366e-08)
(5.27629e-08 -1.79756e-06 -1.0163e-08)
(5.91994e-08 -1.73861e-06 -8.90346e-09)
(6.07725e-08 -1.67342e-06 -7.68484e-09)
(5.80643e-08 -1.60153e-06 -6.59239e-09)
(5.19039e-08 -1.52046e-06 -5.6707e-09)
(4.32196e-08 -1.42447e-06 -4.91358e-09)
(3.29466e-08 -1.30256e-06 -4.27035e-09)
(2.18947e-08 -1.13419e-06 -3.6108e-09)
(1.11411e-08 -8.78819e-07 -2.72171e-09)
(1.79274e-09 -4.42321e-07 -1.12458e-09)
(-2.51005e-09 -4.31928e-07 -2.59061e-09)
(-2.0506e-08 -8.61392e-07 -4.77415e-09)
(-4.50902e-08 -1.11409e-06 -5.67161e-09)
(-7.34756e-08 -1.28061e-06 -6.31141e-09)
(-1.02923e-07 -1.40008e-06 -7.05439e-09)
(-1.31217e-07 -1.49244e-06 -8.09101e-09)
(-1.56101e-07 -1.56855e-06 -9.49521e-09)
(-1.75423e-07 -1.63426e-06 -1.12766e-08)
(-1.87206e-07 -1.69236e-06 -1.33812e-08)
(-1.89857e-07 -1.74371e-06 -1.56957e-08)
(-1.82458e-07 -1.78804e-06 -1.80228e-08)
(-1.64963e-07 -1.82449e-06 -2.01604e-08)
(-1.38509e-07 -1.8521e-06 -2.18426e-08)
(-1.05051e-07 -1.87006e-06 -2.30104e-08)
(-6.72526e-08 -1.87778e-06 -2.3536e-08)
(-2.75742e-08 -1.87511e-06 -2.36959e-08)
(1.21925e-08 -1.86208e-06 -2.34508e-08)
(4.94891e-08 -1.83892e-06 -2.25506e-08)
(8.15116e-08 -1.80637e-06 -2.10621e-08)
(1.06003e-07 -1.76534e-06 -1.90535e-08)
(1.21544e-07 -1.71696e-06 -1.67728e-08)
(1.27845e-07 -1.66224e-06 -1.44424e-08)
(1.25524e-07 -1.60164e-06 -1.22659e-08)
(1.15881e-07 -1.53451e-06 -1.0374e-08)
(1.00591e-07 -1.4583e-06 -8.82924e-09)
(8.14617e-08 -1.36739e-06 -7.62005e-09)
(6.03012e-08 -1.25116e-06 -6.66326e-09)
(3.87497e-08 -1.08985e-06 -5.75075e-09)
(1.88727e-08 -8.44544e-07 -4.53071e-09)
(2.76582e-09 -4.24993e-07 -2.11346e-09)
(-3.34141e-09 -4.05216e-07 -3.42677e-09)
(-2.69591e-08 -8.08097e-07 -6.30658e-09)
(-5.90631e-08 -1.04488e-06 -7.48479e-09)
(-9.61076e-08 -1.20044e-06 -8.33897e-09)
(-1.34568e-07 -1.31139e-06 -9.3517e-09)
(-1.71572e-07 -1.39642e-06 -1.07812e-08)
(-2.04131e-07 -1.46572e-06 -1.27243e-08)
(-2.2934e-07 -1.52485e-06 -1.52034e-08)
(-2.44491e-07 -1.57654e-06 -1.81563e-08)
(-2.4734e-07 -1.6218e-06 -2.14392e-08)
(-2.36514e-07 -1.66062e-06 -2.48066e-08)
(-2.11791e-07 -1.69247e-06 -2.79785e-08)
(-1.74498e-07 -1.71662e-06 -3.05863e-08)
(-1.27189e-07 -1.73234e-06 -3.24713e-08)
(-7.35108e-08 -1.73906e-06 -3.33879e-08)
(-1.72328e-08 -1.73645e-06 -3.35465e-08)
(3.84697e-08 -1.7246e-06 -3.29161e-08)
(8.97066e-08 -1.70395e-06 -3.12959e-08)
(1.32649e-07 -1.67525e-06 -2.88823e-08)
(1.64424e-07 -1.63932e-06 -2.58391e-08)
(1.83369e-07 -1.59706e-06 -2.25255e-08)
(1.89355e-07 -1.5491e-06 -1.9234e-08)
(1.83431e-07 -1.4956e-06 -1.62228e-08)
(1.67534e-07 -1.43568e-06 -1.36459e-08)
(1.44068e-07 -1.36673e-06 -1.15753e-08)
(1.15604e-07 -1.28337e-06 -9.98748e-09)
(8.47218e-08 -1.17549e-06 -8.76961e-09)
(5.37902e-08 -1.02455e-06 -7.6469e-09)
(2.57651e-08 -7.94061e-07 -6.13958e-09)
(3.63012e-09 -3.9945e-07 -2.99704e-09)
(-4.05562e-09 -3.71732e-07 -4.14325e-09)
(-3.24908e-08 -7.41552e-07 -7.61664e-09)
(-7.101e-08 -9.58635e-07 -9.02582e-09)
(-1.15403e-07 -1.10057e-06 -1.00449e-08)
(-1.61461e-07 -1.20084e-06 -1.12541e-08)
(-2.05748e-07 -1.27652e-06 -1.29639e-08)
(-2.44668e-07 -1.33701e-06 -1.52928e-08)
(-2.74699e-07 -1.3875e-06 -1.82714e-08)
(-2.92552e-07 -1.43068e-06 -2.18316e-08)
(-2.95484e-07 -1.46772e-06 -2.58126e-08)
(-2.81755e-07 -1.49894e-06 -2.99332e-08)
(-2.50983e-07 -1.52417e-06 -3.38631e-08)
(-2.04611e-07 -1.54306e-06 -3.71688e-08)
(-1.45649e-07 -1.55517e-06 -3.96021e-08)
(-7.85206e-08 -1.56013e-06 -4.08361e-08)
(-8.14042e-09 -1.55762e-06 -4.09811e-08)
(6.09908e-08 -1.54775e-06 -4.00137e-08)
(1.23841e-07 -1.53098e-06 -3.78231e-08)
(1.75779e-07 -1.50787e-06 -3.4701e-08)
(2.13473e-07 -1.47898e-06 -3.08942e-08)
(2.35141e-07 -1.44481e-06 -2.68319e-08)
(2.40802e-07 -1.40558e-06 -2.28524e-08)
(2.31866e-07 -1.3611e-06 -1.92484e-08)
(2.10763e-07 -1.31023e-06 -1.61891e-08)
(1.80482e-07 -1.25038e-06 -1.3749e-08)
(1.44222e-07 -1.17644e-06 -1.18948e-08)
(1.05205e-07 -1.07907e-06 -1.04935e-08)
(6.64076e-08 -9.41253e-07 -9.21601e-09)
(3.15436e-08 -7.29597e-07 -7.48273e-09)
(4.35157e-09 -3.66812e-07 -3.7417e-09)
(-4.6206e-09 -3.32675e-07 -4.71028e-09)
(-3.68575e-08 -6.64138e-07 -8.65379e-09)
(-8.04114e-08 -8.58495e-07 -1.02381e-08)
(-1.30534e-07 -9.84793e-07 -1.13662e-08)
(-1.82466e-07 -1.07285e-06 -1.26935e-08)
(-2.32323e-07 -1.13791e-06 -1.45699e-08)
(-2.76035e-07 -1.18844e-06 -1.71294e-08)
(-3.09626e-07 -1.22919e-06 -2.04043e-08)
(-3.29387e-07 -1.26278e-06 -2.43217e-08)
(-3.3222e-07 -1.29054e-06 -2.87132e-08)
(-3.16138e-07 -1.31309e-06 -3.32827e-08)
(-2.80663e-07 -1.3307e-06 -3.76746e-08)
(-2.27303e-07 -1.34342e-06 -4.14212e-08)
(-1.59387e-07 -1.35122e-06 -4.42062e-08)
(-8.19002e-08 -1.35403e-06 -4.5656e-08)
(-6.36328e-10 -1.35168e-06 -4.57814e-08)
(7.87823e-08 -1.34426e-06 -4.45667e-08)
(1.50448e-07 -1.33214e-06 -4.1995e-08)
(2.09168e-07 -1.31554e-06 -3.84124e-08)
(2.51313e-07 -1.29468e-06 -3.41345e-08)
(2.75036e-07 -1.26957e-06 -2.96254e-08)
(2.80462e-07 -1.24003e-06 -2.52448e-08)
(2.69251e-07 -1.20548e-06 -2.12969e-08)
(2.44193e-07 -1.16463e-06 -1.79597e-08)
(2.08698e-07 -1.1149e-06 -1.53061e-08)
(1.66435e-07 -1.05157e-06 -1.33001e-08)
(1.21118e-07 -9.66185e-07 -1.17958e-08)
(7.6211e-08 -8.43545e-07 -1.0423e-08)
(3.60298e-08 -6.5389e-07 -8.52713e-09)
(4.90775e-09 -3.2845e-07 -4.32567e-09)
(-5.02147e-09 -2.89454e-07 -5.11064e-09)
(-3.99231e-08 -5.78638e-07 -9.38633e-09)
(-8.69698e-08 -7.4811e-07 -1.10848e-08)
(-1.41035e-07 -8.57444e-07 -1.2268e-08)
(-1.9697e-07 -9.32435e-07 -1.36397e-08)
(-2.50568e-07 -9.86337e-07 -1.55722e-08)
(-2.9742e-07 -1.02657e-06 -1.82042e-08)
(-3.33244e-07 -1.05742e-06 -2.15688e-08)
(-3.54068e-07 -1.08138e-06 -2.55889e-08)
(-3.56591e-07 -1.09986e-06 -3.00929e-08)
(-3.38714e-07 -1.11379e-06 -3.47867e-08)
(-2.9993e-07 -1.12378e-06 -3.93067e-08)
(-2.41797e-07 -1.13034e-06 -4.31904e-08)
(-1.67855e-07 -1.13382e-06 -4.60874e-08)
(-8.34332e-08 -1.13448e-06 -4.76189e-08)
(5.10006e-09 -1.13233e-06 -4.7723e-08)
(9.13496e-08 -1.12748e-06 -4.63892e-08)
(1.68846e-07 -1.12009e-06 -4.3672e-08)
(2.32057e-07 -1.11006e-06 -3.99316e-08)
(2.7717e-07 -1.0972e-06 -3.55144e-08)
(3.02306e-07 -1.08107e-06 -3.08798e-08)
(3.07643e-07 -1.06112e-06 -2.63954e-08)
(2.94964e-07 -1.03647e-06 -2.23582e-08)
(2.67263e-07 -1.00569e-06 -1.89472e-08)
(2.28223e-07 -9.66312e-07 -1.62382e-08)
(1.81828e-07 -9.14055e-07 -1.41933e-08)
(1.3215e-07 -8.41492e-07 -1.26598e-08)
(8.3005e-08 -7.35374e-07 -1.12478e-08)
(3.91337e-08 -5.69949e-07 -9.25544e-09)
(5.28814e-09 -2.85878e-07 -4.73962e-09)
(-5.25051e-09 -2.43566e-07 -5.33736e-09)
(-4.16196e-08 -4.88023e-07 -9.80115e-09)
(-9.05614e-08 -6.31342e-07 -1.15563e-08)
(-1.46758e-07 -7.2307e-07 -1.2747e-08)
(-2.04838e-07 -7.84777e-07 -1.41008e-08)
(-2.60394e-07 -8.27625e-07 -1.59999e-08)
(-3.08813e-07 -8.57961e-07 -1.85805e-08)
(-3.45634e-07 -8.79554e-07 -2.18711e-08)
(-3.66759e-07 -8.94702e-07 -2.57955e-08)
(-3.68837e-07 -9.04891e-07 -3.01817e-08)
(-3.49751e-07 -9.11218e-07 -3.47456e-08)
(-3.09032e-07 -9.14585e-07 -3.91376e-08)
(-2.48289e-07 -9.15829e-07 -4.29238e-08)
(-1.71166e-07 -9.15606e-07 -4.57471e-08)
(-8.31411e-08 -9.14449e-07 -4.72519e-08)
(9.14914e-09 -9.12563e-07 -4.73372e-08)
(9.8879e-08 -9.1004e-07 -4.59964e-08)
(1.79321e-07 -9.06844e-07 -4.33216e-08)
(2.44817e-07 -9.02597e-07 -3.96575e-08)
(2.91475e-07 -8.9676e-07 -3.53572e-08)
(3.17393e-07 -8.88577e-07 -3.08499e-08)
(3.22733e-07 -8.77192e-07 -2.64882e-08)
(3.09309e-07 -8.61528e-07 -2.25585e-08)
(2.8018e-07 -8.40097e-07 -1.92344e-08)
(2.39165e-07 -8.10602e-07 -1.65915e-08)
(1.90434e-07 -7.69258e-07 -1.45951e-08)
(1.38281e-07 -7.09703e-07 -1.30941e-08)
(8.67495e-08 -6.20756e-07 -1.16927e-08)
(4.08278e-08 -4.80862e-07 -9.66504e-09)
(5.49033e-09 -2.40648e-07 -4.98183e-09)
(-5.30103e-09 -1.96559e-07 -5.38324e-09)
(-4.19111e-08 -3.9534e-07 -9.88502e-09)
(-9.1147e-08 -5.12119e-07 -1.1635e-08)
(-1.4771e-07 -5.86199e-07 -1.27892e-08)
(-2.06184e-07 -6.3489e-07 -1.40756e-08)
(-2.6207e-07 -6.67274e-07 -1.58728e-08)
(-3.10662e-07 -6.88626e-07 -1.83126e-08)
(-3.47432e-07 -7.02163e-07 -2.14182e-08)
(-3.68273e-07 -7.09951e-07 -2.51107e-08)
(-3.69876e-07 -7.13441e-07 -2.92215e-08)
(-3.50199e-07 -7.13807e-07 -3.34868e-08)
(-3.08857e-07 -7.12109e-07 -3.75797e-08)
(-2.47495e-07 -7.09366e-07 -4.1107e-08)
(-1.69773e-07 -7.0644e-07 -4.37319e-08)
(-8.11484e-08 -7.04021e-07 -4.51381e-08)
(1.17256e-08 -7.02437e-07 -4.52077e-08)
(1.01925e-07 -7.01767e-07 -4.39362e-08)
(1.82718e-07 -7.0183e-07 -4.14347e-08)
(2.48486e-07 -7.02062e-07 -3.80114e-08)
(2.95348e-07 -7.0171e-07 -3.39991e-08)
(3.21396e-07 -6.99822e-07 -2.9788e-08)
(3.26733e-07 -6.95377e-07 -2.57053e-08)
(3.13118e-07 -6.87213e-07 -2.20153e-08)
(2.83582e-07 -6.73882e-07 -1.88868e-08)
(2.41964e-07 -6.53302e-07 -1.63969e-08)
(1.9251e-07 -6.22239e-07 -1.45164e-08)
(1.39626e-07 -5.75398e-07 -1.30982e-08)
(8.74686e-08 -5.03663e-07 -1.17513e-08)
(4.11037e-08 -3.8971e-07 -9.7505e-09)
(5.51024e-09 -1.94318e-07 -5.04986e-09)
(-5.15624e-09 -1.50039e-07 -5.23117e-09)
(-4.07147e-08 -3.03706e-07 -9.60275e-09)
(-8.86421e-08 -3.94367e-07 -1.12757e-08)
(-1.43882e-07 -4.51271e-07 -1.23433e-08)
(-2.01142e-07 -4.87603e-07 -1.3516e-08)
(-2.55922e-07 -5.10446e-07 -1.51596e-08)
(-3.03508e-07 -5.24032e-07 -1.74001e-08)
(-3.39391e-07 -5.31011e-07 -2.02531e-08)
(-3.59543e-07 -5.33173e-07 -2.36386e-08)
(-3.60773e-07 -5.31836e-07 -2.73948e-08)
(-3.41166e-07 -5.28141e-07 -3.12787e-08)