/*--------------------------------*- C++ -*----------------------------------*\
| =========                 |                                                 |
| \\      /  F ield         | OpenFOAM: The Open Source CFD Toolbox           |
|  \\    /   O peration     | Version:  v1912                                 |
|   \\  /    A nd           | Website:  www.openfoam.com                      |
|    \\/     M anipulation  |                                                 |
\*---------------------------------------------------------------------------*/
FoamFile
{
    version     2.0;
    format      ascii;
    class       volScalarField;
    location    "278/oil";
    object      heatTransferCoeff(T);
}
// * * * * * * * * * * * * * * * * * * * * * * * * * * * * * * * * * * * * * //

dimensions      [1 0 -3 -1 0 0 0];


internalField   uniform 0;

boundaryField
{
    maxY
    {
        type            calculated;
        value           uniform 0;
    }
    minX
    {
        type            calculated;
        value           uniform 0;
    }
    maxX
    {
        type            calculated;
        value           uniform 0;
    }
    minY
    {
        type            calculated;
        value           uniform 0;
    }
    minZ
    {
        type            calculated;
        value           uniform 0;
    }
    maxZ
    {
        type            calculated;
        value           uniform 0;
    }
    oil_to_sphere
    {
        type            calculated;
        value           nonuniform List<scalar> 
1536
(
-33.1578
-28.6129
-28.5312
-20.1987
-19.9459
-28.3724
-24.7157
-26.1992
-25.653
-20.8967
-17.577
-21.5101
-25.5652
-21.7118
-16.4612
-24.2021
-28.3915
-28.7512
-23.9545
-25.3318
-27.2738
-25.7165
-26.0509
-24.1541
-24.6047
-24.375
-24.5709
-23.5935
-28.1328
-25.889
-29.4954
-28.6379
-28.8045
-24.2328
-24.5072
-23.6198
-24.0285
-22.6842
-23.5406
-24.5361
-23.3495
-24.0217
-25.4991
-26.4509
-27.575
-24.4801
-27.2591
-26.0552
-16.7849
-24.3626
-26.8502
-25.7232
-25.9609
-24.133
-27.9824
-31.1122
-25.9887
-25.344
-27.2124
-26.7653
-25.3958
-25.5126
-25.3146
-24.0164
-24.4737
-25.1908
-25.3172
-26.9629
-26.908
-27.9448
-23.994
-20.027
-21.4662
-24.3887
-24.3561
-31.4066
-28.8557
-22.7765
-24.2137
-28.6056
-27.3336
-26.682
-20.1925
-20.0648
-28.1086
-32.2947
-19.0773
-24.9322
-26.7811
-26.7529
-25.6865
-23.7688
-23.7035
-23.9048
-24.3576
-26.4058
-27.2751
-27.5768
-29.1781
-26.6475
-27.3712
-23.9252
-33.25
-26.9002
-21.2728
-24.2762
-24.6368
-20.53
-20.5048
-33.3852
-28.8051
-26.1939
-25.4822
-26.0788
-19.5533
-20.0348
-18.6747
-30.275
-32.7523
-29.0746
-25.8553
-26.0758
-23.4892
-27.2131
-29.4321
-26.495
-25.8062
-23.1843
-27.4921
-27.1687
-25.2155
-26.9881
-27.9178
-24.6681
-24.9657
-28.1629
-26.0996
-28.6475
-23.2744
-28.4361
-25.6879
-27.1239
-27.1672
-25.5594
-25.0278
-25.4603
-26.4436
-30.2986
-25.2355
-33.4388
-27.7459
-28.6582
-25.9828
-26.2421
-24.3293
-26.5969
-28.1076
-27.2916
-34.2361
-29.4355
-28.791
-30.5506
-21.974
-22.7042
-23.8314
-23.7393
-27.872
-29.981
-29.1338
-31.2522
-23.602
-23.8895
-22.837
-27.3115
-25.9417
-26.3239
-31.9013
-22.567
-21.659
-32.2794
-23.6028
-22.7552
-22.5969
-23.0178
-26.9713
-32.313
-29.4752
-23.3837
-21.9591
-28.6797
-22.2646
-27.8919
-27.87
-29.9004
-21.4635
-15.5331
-29.7413
-30.3547
-24.7252
-24.303
-25.756
-24.7515
-28.7689
-29.6939
-27.6558
-26.7019
-23.9713
-30.0955
-29.2368
-26.4193
-23.1686
-24.4664
-24.283
-24.913
-27.4035
-31.2999
-22.183
-21.6305
-21.76
-14.9422
-28.4102
-27.322
-26.6412
-25.7329
-25.9404
-30.1399
-27.8714
-24.5053
-28.4443
-20.9639
-23.6478
-15.7649
-25.5174
-28.2228
-29.764
-29.32
-28.4062
-27.4438
-29.0414
-21.435
-22.0826
-22.9394
-30.4444
-22.9686
-15.7532
-18.8198
-27.3378
-25.6393
-32.0564
-34.2556
-26.1656
-20.0842
-15.0444
-26.7515
-29.2979
-23.9125
-24.0524
-19.3164
-23.7429
-30.1195
-32.5154
-25.3977
-24.0605
-30.8447
-29.5523
-24.4154
-21.2117
-25.091
-31.4454
-30.35
-27.4556
-27.8925
-29.5666
-22.6204
-24.2274
-29.8169
-27.8854
-28.6915
-25.5175
-28.4696
-31.1811
-27.6455
-27.2671
-30.6238
-23.9912
-23.9152
-24.3545
-23.5024
-23.8035
-29.9708
-31.5647
-21.838
-24.8464
-24.6081
-24.8091
-23.3773
-25.9741
-25.4964
-22.8549
-19.3973
-23.6794
-21.5573
-23.2871
-32.3347
-30.7373
-30.6659
-33.8778
-22.3002
-22.632
-25.9147
-33.4427
-32.6677
-23.6812
-25.5718
-23.4353
-27.7978
-24.1553
-27.2263
-27.6064
-28.934
-27.9966
-24.5634
-28.1866
-23.6181
-29.6015
-30.1939
-28.5693
-28.212
-22.933
-31.7111
-31.5711
-27.808
-21.3463
-23.9468
-24.7817
-27.6293
-27.1763
-27.8159
-22.7898
-29.5287
-29.8111
-28.9423
-30.6358
-26.9877
-26.4467
-25.3807
-22.0893
-26.5114
-27.7428
-22.0374
-21.6969
-22.5093
-32.9917
-29.4641
-30.6583
-27.1076
-26.3818
-29.9445
-21.8102
-32.013
-28.9082
-26.4445
-26.3702
-21.5327
-28.9267
-29.354
-23.1278
-26.4489
-25.2582
-24.0886
-27.8269
-29.452
-25.4979
-24.4219
-22.3676
-31.303
-29.6257
-21.6721
-29.9965
-29.3912
-28.4228
-31.2789
-26.3818
-28.0603
-20.8631
-21.4717
-27.6002
-33.6195
-28.6327
-32.0833
-27.0906
-24.6805
-29.1549
-22.5327
-23.4888
-27.2579
-29.369
-27.8979
-27.1406
-22.7367
-22.6695
-29.8474
-29.7361
-29.6414
-26.3133
-23.8072
-27.3022
-28.2123
-29.2862
-26.569
-24.9946
-23.0454
-26.1596
-22.3319
-20.5478
-23.8792
-23.0744
-26.2151
-20.9036
-24.7218
-31.8072
-24.6204
-24.5649
-29.3328
-29.2609
-27.7113
-25.2804
-21.96
-28.5833
-30.6881
-27.5001
-26.6466
-28.7166
-25.6126
-26.0613
-27.0333
-20.1537
-27.5585
-29.8029
-30.6278
-29.1347
-28.1315
-27.8873
-26.6041
-25.1107
-22.5342
-25.8658
-23.003
-21.5417
-23.4047
-20.4865
-32.4754
-31.8573
-30.2045
-33.3478
-22.6015
-32.5136
-22.7373
-23.6215
-28.3612
-22.3317
-22.6053
-24.7744
-24.5787
-32.0178
-30.7376
-27.0433
-27.3821
-31.2242
-29.8834
-26.5484
-28.1881
-23.219
-29.371
-21.321
-30.5811
-20.1085
-28.0625
-28.5942
-29.1511
-24.5332
-22.4192
-25.1772
-29.287
-25.391
-21.0086
-29.3855
-29.7089
-30.4108
-33.7458
-26.6985
-31.0144
-22.2578
-22.8364
-17.0074
-18.775
-26.4819
-24.7239
-24.1586
-23.4211
-32.822
-22.9464
-21.7697
-21.1225
-24.901
-21.0792
-34.1912
-23.2526
-23.5815
-25.9226
-17.6759
-19.2097
-23.9097
-23.7916
-25.4785
-24.3932
-29.6749
-29.1141
-27.911
-26.4991
-20.5979
-24.1587
-29.0143
-22.5115
-23.1316
-28.5591
-31.3279
-23.232
-17.0596
-22.0763
-17.5761
-25.7714
-24.5209
-23.5893
-21.3434
-17.5696
-27.8804
-28.49
-27.1797
-25.7425
-31.4922
-28.0122
-27.6109
-26.4032
-22.8994
-24.283
-29.6655
-27.9474
-24.8894
-18.6548
-26.6607
-28.9449
-31.7456
-26.8164
-24.0863
-31.713
-26.0952
-31.067
-23.1571
-24.445
-22.5618
-24.6045
-26.6993
-31.2918
-22.8758
-23.4572
-22.8662
-24.973
-34.2656
-21.4984
-24.2392
-21.7096
-26.0125
-26.6806
-29.74
-31.458
-20.8505
-21.3503
-31.4232
-32.0384
-19.6876
-31.2245
-30.0022
-28.6261
-29.9157
-27.6582
-26.22
-26.4213
-31.2842
-26.5458
-27.7037
-26.1602
-29.3088
-26.8681
-25.8161
-25.5134
-22.044
-28.5798
-25.8045
-29.2459
-28.1205
-28.2374
-27.9314
-26.5933
-21.4886
-29.8302
-29.8174
-27.802
-25.7667
-26.9627
-33.233
-21.062
-23.071
-22.1846
-26.81
-23.5482
-33.2659
-24.6584
-25.1313
-26.0596
-17.1591
-17.8202
-24.0522
-23.9548
-26.3425
-22.5515
-23.3862
-26.9828
-23.7569
-31.4809
-22.3135
-32.9667
-24.8349
-26.6991
-15.9272
-17.6647
-16.9213
-23.6177
-28.6232
-24.2543
-23.6114
-17.6029
-26.1773
-28.9436
-26.2558
-35.5622
-23.2003
-29.656
-27.8641
-28.7419
-30.1062
-29.9701
-28.7619
-25.951
-25.0172
-25.8578
-28.7688
-25.2987
-27.2326
-26.8139
-27.1639
-29.1703
-27.9616
-28.5769
-22.0208
-23.0225
-15.4206
-19.3455
-20.4143
-12.7526
-23.9537
-24.4079
-25.3027
-25.8091
-20.5134
-22.1288
-24.8779
-30.3819
-29.9439
-24.7948
-21.1189
-25.5677
-29.0709
-27.8645
-25.9979
-20.8329
-23.1963
-27.8598
-27.0281
-25.9171
-24.1097
-28.2785
-28.3835
-31.2962
-28.4197
-26.6271
-24.4013
-23.3097
-21.9366
-24.0193
-25.5655
-33.5198
-26.4809
-32.3646
-23.4853
-33.9227
-23.9346
-25.4486
-22.3413
-22.8142
-24.4323
-21.923
-25.2142
-20.8714
-24.1126
-29.6395
-24.7169
-21.6413
-31.6189
-28.1712
-27.3182
-25.6769
-31.2593
-36.1053
-19.471
-28.0137
-27.1606
-27.6984
-21.921
-25.7271
-23.4186
-27.1497
-28.5486
-29.8707
-22.8902
-27.8496
-26.3779
-28.3173
-28.0521
-27.5622
-24.8679
-25.4004
-24.2038
-21.0803
-20.5891
-22.5559
-30.8827
-24.1379
-21.7767
-24.2616
-29.728
-25.1443
-30.8675
-29.131
-27.4869
-26.6188
-27.413
-31.8262
-22.5607
-27.9229
-29.9993
-30.4169
-26.5599
-23.3552
-25.0773
-27.4406
-30.5528
-22.2667
-25.451
-26.4402
-29.6039
-27.3884
-27.4008
-31.0308
-22.3378
-23.5604
-22.9792
-31.8673
-29.8301
-26.4212
-29.5698
-23.595
-24.1326
-29.5525
-27.4011
-31.3014
-22.7528
-28.8229
-29.39
-26.7393
-27.1784
-28.5738
-22.8871
-20.3157
-26.091
-27.4083
-32.1095
-25.5358
-23.8638
-25.8363
-27.4361
-28.7634
-26.5905
-23.4716
-25.563
-29.3359
-22.4666
-23.4176
-25.5512
-24.0478
-27.0085
-26.5949
-30.3213
-27.6965
-29.0921
-24.2564
-25.8975
-26.9967
-25.7133
-25.0144
-24.4002
-24.3213
-22.4494
-28.2194
-26.8845
-26.864
-27.5205
-21.3413
-24.6285
-31.7113
-31.7965
-23.4559
-29.6639
-27.418
-28.1545
-24.2852
-30.4941
-30.1501
-22.6442
-25.1267
-24.5654
-24.3847
-21.2556
-22.1376
-24.5617
-30.0798
-33.4037
-23.8437
-28.5452
-28.1995
-27.3087
-25.3048
-27.0297
-30.307
-26.9905
-22.7893
-24.6624
-24.2702
-24.5224
-27.7123
-28.225
-28.2504
-28.4629
-28.471
-23.5152
-28.6823
-24.7846
-28.0196
-17.5847
-27.543
-30.7366
-24.9975
-19.4716
-26.0993
-25.4265
-32.296
-23.0621
-28.691
-25.833
-20.2515
-31.5507
-21.637
-25.4272
-26.1355
-21.3233
-29.6787
-27.042
-25.3249
-26.5259
-27.0131
-25.3832
-32.539
-21.7752
-24.4864
-16.4712
-25.0153
-24.9988
-26.2849
-29.639
-36.3226
-20.9967
-24.5542
-34.8013
-21.6821
-28.3657
-23.3739
-28.1468
-19.173
-23.1049
-34.6471
-19.9559
-33.7506
-20.6908
-32.0838
-20.3695
-23.0032
-17.0245
-21.8375
-34.0011
-18.1426
-25.8401
-19.9515
-31.1337
-34.0582
-18.3952
-25.2131
-23.8667
-22.794
-22.6288
-24.5614
-26.1874
-26.1787
-28.0121
-25.8186
-31.188
-35.1625
-18.3102
-26.3462
-27.4473
-26.1757
-26.7127
-25.6046
-25.0703
-25.5798
-28.972
-25.718
-29.04
-24.4399
-26.8924
-30.7592
-24.9542
-27.8396
-29.7092
-24.4035
-26.8933
-25.8239
-27.9656
-25.4321
-26.5226
-25.086
-29.4761
-24.6942
-27.2608
-20.6608
-31.4384
-18.5913
-27.4192
-29.3372
-31.5132
-23.1519
-26.6454
-25.8186
-26.6154
-26.3842
-25.7213
-28.9106
-22.6148
-15.3709
-25.3541
-19.5359
-29.9342
-23.2486
-26.0829
-28.4452
-15.9098
-30.7602
-22.5607
-17.4184
-23.093
-28.373
-28.0735
-26.3056
-18.1889
-26.2731
-26.9248
-23.8012
-23.2625
-30.0602
-29.445
-24.1997
-26.3428
-30.0836
-18.3188
-28.9887
-23.1743
-27.8773
-18.7481
-33.4287
-32.8255
-29.3481
-26.2286
-25.1102
-28.3063
-24.9018
-18.1232
-22.2794
-28.5216
-23.3771
-27.7229
-19.4237
-29.8336
-27.964
-13.6736
-26.3081
-27.105
-16.2191
-30.8441
-20.5353
-29.9849
-31.4839
-28.8573
-17.4575
-26.4803
-25.2091
-26.3461
-26.5989
-27.6787
-18.3677
-24.403
-23.4622
-23.4937
-29.7159
-26.0538
-27.2953
-28.0835
-27.8813
-25.146
-26.5975
-25.3671
-27.2262
-30.1162
-24.1573
-24.9573
-23.9083
-26.5879
-29.2974
-24.112
-24.8139
-24.4572
-26.1083
-23.4521
-23.7566
-24.7914
-25.1029
-26.5254
-24.7439
-31.2942
-28.9725
-19.7625
-19.9712
-30.7507
-12.7515
-28.6112
-26.9001
-23.4703
-25.1325
-30.9966
-15.933
-29.8326
-27.2622
-17.8096
-24.5396
-23.8354
-26.1842
-15.4984
-30.585
-27.4669
-16.0079
-30.2379
-30.3989
-18.8976
-31.5477
-29.4305
-19.0124
-23.9148
-23.4859
-16.0431
-26.1814
-26.6566
-22.4421
-23.1682
-22.9943
-14.081
-23.0448
-15.8405
-13.5666
-29.5545
-23.8369
-33.9946
-24.2343
-18.3083
-30.6261
-25.5352
-16.8432
-24.1636
-23.9734
-16.7456
-19.9409
-30.6395
-11.4252
-22.3219
-21.8188
-12.8005
-29.8613
-29.0546
-26.1527
-24.726
-23.9246
-22.3321
-14.8513
-26.284
-24.7788
-24.9839
-26.1683
-17.3549
-28.5255
-24.157
-25.6781
-23.7607
-25.5297
-26.5006
-22.1057
-17.7362
-24.6232
-26.8329
-24.0622
-24.7298
-25.8415
-23.1481
-24.9283
-17.1916
-24.2218
-27.3025
-23.8246
-25.1641
-23.2713
-17.8885
-30.857
-30.7341
-30.211
-31.6625
-18.8445
-16.2586
-24.3389
-28.82
-26.6352
-28.3181
-28.9697
-22.3318
-21.425
-16.5355
-18.4809
-23.096
-25.7343
-25.4694
-25.2817
-21.5021
-29.5778
-27.2355
-19.0973
-22.8745
-22.163
-28.8798
-23.217
-14.8382
-25.9931
-25.9587
-29.801
-17.0123
-23.9575
-26.6857
-24.4073
-25.1156
-28.1777
-25.6424
-22.4168
-32.0337
-13.3794
-20.9896
-25.3594
-23.1975
-24.6133
-31.5485
-27.4035
-26.0722
-20.9573
-30.8168
-24.3485
-26.4988
-28.9529
-29.814
-29.4681
-29.7834
-31.2572
-32.1765
-31.0584
-31.0724
-26.2752
-29.176
-24.1396
-25.1181
-21.4154
-20.2493
-14.1505
-31.72
-31.441
-30.2059
-24.9081
-26.5275
-26.2531
-23.323
-26.7755
-29.0991
-22.5813
-25.3446
-27.9733
-23.9066
-24.2381
-24.016
-24.8529
-23.0957
-24.7157
-24.3688
-18.7629
-26.6437
-22.6721
-25.3047
-16.7234
-31.7785
-25.501
-23.5937
-22.9539
-19.2306
-25.9782
-23.714
-16.0811
-20.873
-25.3892
-20.1423
-21.1243
-32.3466
-32.8213
-24.4201
-24.4528
-28.5297
-31.4614
-15.9661
-23.4088
-23.1068
-24.6325
-24.6085
-24.9585
-25.5867
-21.384
-17.9765
-30.6644
-24.5164
-20.5397
-21.3004
-24.3926
-26.0783
-19.3251
-25.1826
-23.3489
-24.1351
-31.5345
-20.6771
-18.1706
-24.6358
-23.8317
-23.1115
-18.0896
-29.8995
-24.3645
-24.1473
-24.3704
-16.1313
-24.4619
-24.5971
-18.3402
-24.3449
-20.8421
-27.2152
-30.4285
-23.341
-29.1293
-27.0015
-23.4605
-23.5963
-24.7358
-18.118
-27.0304
-27.6243
-23.9782
-17.0252
-22.0664
-25.1918
-25.4854
-23.3903
-17.6847
-23.5647
-29.8101
-27.0655
-23.6888
-32.2267
-20.6608
-29.0123
-16.2806
-20.4561
-29.3867
-16.1762
-29.5513
-23.6687
-26.059
-24.1553
-32.7274
-21.6355
-26.1449
-31.5185
-30.8348
-19.6637
-30.4713
-31.5602
-12.9955
-25.3193
-23.7742
-16.5245
-27.6946
-23.6799
-24.1683
-24.1857
-25.6461
-25.0009
-23.9782
-23.6322
-16.2462
-27.6157
-26.087
-25.8079
-26.4642
-24.9011
-23.4304
-22.1207
-28.5619
-15.0335
-22.9926
-23.0084
-15.4671
-29.3507
-31.9346
-25.6022
-30.214
-30.8494
-23.1868
-23.7078
-27.4031
-30.1706
-23.1155
-27.9392
-21.2795
-16.6129
-28.6414
-22.5447
-29.7962
-32.2511
-31.4005
-17.0155
-29.105
-26.2828
-22.4395
-23.9351
-24.6369
-23.7351
-17.1809
-30.2542
-17.4529
-30.1016
-24.8383
-21.2861
-20.6359
-25.0425
-28.0785
-31.1701
-25.8827
-33.463
-28.7294
-29.571
-16.0977
-29.1407
-28.287
-29.8486
-23.262
-22.5282
-15.0354
-25.4067
-33.127
-30.2999
-17.8514
-21.5737
-17.5105
-23.2513
-25.5907
-21.1573
-35.6387
-24.1996
-21.5838
-18.0908
-27.0184
-22.6365
-15.533
-25.1898
-23.6635
-23.7766
-23.9364
-24.0016
-18.1779
-21.2212
-16.5796
-23.7594
-28.7484
-27.2547
-30.5097
-29.8514
-23.0036
-22.1069
-16.258
-23.426
-28.2392
-30.8903
-28.7046
-28.8962
-20.5585
-15.3847
-21.7111
-14.7222
-28.5025
-28.8621
-22.1346
-29.4453
-28.4656
-30.4743
-26.8709
-26.0753
-25.9418
-23.0021
-16.006
-21.9141
-17.0188
-21.1037
-23.9413
-23.3803
-18.7605
-16.9629
-27.8609
-33.1504
-32.2972
-31.412
-25.8323
-27.6818
-27.5214
-25.4602
-23.9329
-25.4295
-22.3965
-24.8274
-24.8663
-16.9947
-28.4998
-24.522
-21.6067
-18.6179
-23.6487
-25.7237
-25.6736
-23.4076
-18.6637
-31.1469
-26.9192
-23.7563
-32.1153
-22.5414
-16.6324
-27.4007
-24.876
-24.8984
-24.889
-23.4994
-14.9415
-25.0399
-24.7729
-17.5232
-30.9878
-24.3514
-11.5196
-23.9199
-25.5276
-25.8288
-23.466
-17.1695
-22.8657
-23.0972
-20.2179
-25.0811
-16.2681
-25.3062
-25.048
-19.8171
-32.0971
-24.7415
-18.3405
-33.1061
-25.4416
-25.4462
-18.5366
-25.0394
-17.4346
)
;
    }
}


// ************************************************************************* //
