/*--------------------------------*- C++ -*----------------------------------*\
| =========                 |                                                 |
| \\      /  F ield         | OpenFOAM: The Open Source CFD Toolbox           |
|  \\    /   O peration     | Version:  v1912                                 |
|   \\  /    A nd           | Website:  www.openfoam.com                      |
|    \\/     M anipulation  |                                                 |
\*---------------------------------------------------------------------------*/
FoamFile
{
    version     2.0;
    format      ascii;
    class       volVectorField;
    location    "278/oil";
    object      U;
}
// * * * * * * * * * * * * * * * * * * * * * * * * * * * * * * * * * * * * * //

dimensions      [0 1 -1 0 0 0 0];


internalField   nonuniform List<vector> 
35580
(
(-1.18006e-09 2.36547e-09 -1.20179e-09)
(1.22541e-09 2.14304e-09 -2.9011e-09)
(1.11653e-08 2.1115e-09 -4.66972e-09)
(2.6824e-08 2.63765e-09 -6.45973e-09)
(4.58587e-08 3.47851e-09 -7.90101e-09)
(6.56046e-08 4.46882e-09 -8.87111e-09)
(8.35976e-08 5.51419e-09 -9.36071e-09)
(9.76984e-08 6.57018e-09 -9.42495e-09)
(1.06158e-07 7.60948e-09 -9.14733e-09)
(1.07815e-07 8.60538e-09 -8.60496e-09)
(1.02032e-07 9.50462e-09 -7.87094e-09)
(8.88569e-08 1.02656e-08 -7.13815e-09)
(6.90905e-08 1.08619e-08 -6.45741e-09)
(4.39717e-08 1.13151e-08 -5.97203e-09)
(1.54346e-08 1.15646e-08 -5.7181e-09)
(-1.435e-08 1.15947e-08 -5.72318e-09)
(-4.29747e-08 1.1334e-08 -5.97169e-09)
(-6.8149e-08 1.08732e-08 -6.44264e-09)
(-8.80414e-08 1.02394e-08 -7.09379e-09)
(-1.01343e-07 9.493e-09 -7.83671e-09)
(-1.07338e-07 8.60868e-09 -8.56308e-09)
(-1.05848e-07 7.60073e-09 -9.12982e-09)
(-9.74917e-08 6.56077e-09 -9.4067e-09)
(-8.34872e-08 5.50753e-09 -9.35145e-09)
(-6.55652e-08 4.46178e-09 -8.86386e-09)
(-4.58765e-08 3.47438e-09 -7.89428e-09)
(-2.68771e-08 2.63371e-09 -6.44934e-09)
(-1.12272e-08 2.10085e-09 -4.64944e-09)
(-1.27218e-09 2.11923e-09 -2.87682e-09)
(1.16077e-09 2.31354e-09 -1.18893e-09)
(6.14512e-10 -2.22937e-09 6.01558e-10)
(1.22557e-08 -1.35785e-08 5.21772e-10)
(3.56859e-08 -2.26267e-08 -2.97682e-10)
(6.8324e-08 -2.75338e-08 -1.36919e-09)
(1.06297e-07 -2.90885e-08 -2.1596e-09)
(1.45047e-07 -2.81296e-08 -2.43188e-09)
(1.80005e-07 -2.53495e-08 -2.13095e-09)
(2.07051e-07 -2.12667e-08 -1.29778e-09)
(2.22775e-07 -1.63209e-08 -3.14211e-11)
(2.24776e-07 -1.0924e-08 1.52244e-09)
(2.11736e-07 -5.50864e-09 3.34084e-09)
(1.83682e-07 -5.42216e-10 5.04616e-09)
(1.42354e-07 3.55558e-09 6.54469e-09)
(9.04694e-08 6.54873e-09 7.62065e-09)
(3.1732e-08 8.13706e-09 8.18867e-09)
(-2.9544e-08 8.17132e-09 8.20722e-09)
(-8.84796e-08 6.51883e-09 7.64729e-09)
(-1.40461e-07 3.46708e-09 6.60457e-09)
(-1.81809e-07 -7.1988e-10 5.14419e-09)
(-2.09956e-07 -5.63039e-09 3.44044e-09)
(-2.23358e-07 -1.10382e-08 1.65248e-09)
(-2.21665e-07 -1.64263e-08 5.92184e-11)
(-2.06193e-07 -2.13377e-08 -1.21224e-09)
(-1.79425e-07 -2.53935e-08 -2.06332e-09)
(-1.44708e-07 -2.81735e-08 -2.37523e-09)
(-1.06154e-07 -2.91493e-08 -2.10871e-09)
(-6.8322e-08 -2.76289e-08 -1.32787e-09)
(-3.57364e-08 -2.27593e-08 -2.62394e-10)
(-1.2286e-08 -1.3718e-08 5.40703e-10)
(-6.18588e-10 -2.35362e-09 5.90121e-10)
(2.39428e-09 -2.18867e-08 2.39352e-09)
(2.40379e-08 -5.79045e-08 4.23877e-09)
(5.88289e-08 -8.45675e-08 4.62826e-09)
(1.03563e-07 -1.01519e-07 4.57056e-09)
(1.53535e-07 -1.10539e-07 4.66165e-09)
(2.03524e-07 -1.13343e-07 5.17616e-09)
(2.48041e-07 -1.11406e-07 6.21203e-09)
(2.8199e-07 -1.05932e-07 7.76033e-09)
(3.01086e-07 -9.79635e-08 9.72433e-09)
(3.02282e-07 -8.84692e-08 1.1931e-08)
(2.83822e-07 -7.84202e-08 1.4366e-08)
(2.45654e-07 -6.88629e-08 1.66215e-08)
(1.90058e-07 -6.08447e-08 1.85288e-08)
(1.2065e-07 -5.50368e-08 1.99081e-08)
(4.22874e-08 -5.19645e-08 2.06405e-08)
(-3.9468e-08 -5.19763e-08 2.06892e-08)
(-1.18149e-07 -5.5187e-08 1.99458e-08)
(-1.8768e-07 -6.11712e-08 1.85853e-08)
(-2.43233e-07 -6.93095e-08 1.66782e-08)
(-2.81604e-07 -7.88022e-08 1.44633e-08)
(-3.00531e-07 -8.88144e-08 1.20531e-08)
(-2.99703e-07 -9.82204e-08 9.80477e-09)
(-2.80931e-07 -1.06108e-07 7.83719e-09)
(-2.47313e-07 -1.11528e-07 6.28232e-09)
(-2.03095e-07 -1.13451e-07 5.23948e-09)
(-1.53349e-07 -1.10675e-07 4.7239e-09)
(-1.03539e-07 -1.01714e-07 4.62339e-09)
(-5.88738e-08 -8.48244e-08 4.66434e-09)
(-2.40857e-08 -5.81499e-08 4.24351e-09)
(-2.41459e-09 -2.20414e-08 2.36923e-09)
(3.8254e-09 -5.4223e-08 3.81784e-09)
(3.39145e-08 -1.26342e-07 7.07481e-09)
(7.82094e-08 -1.77105e-07 8.29193e-09)
(1.32466e-07 -2.10801e-07 8.91359e-09)
(1.91252e-07 -2.31007e-07 9.63825e-09)
(2.48969e-07 -2.40506e-07 1.07353e-08)
(2.99694e-07 -2.41641e-07 1.23117e-08)
(3.3786e-07 -2.36367e-07 1.43687e-08)
(3.58702e-07 -2.26435e-07 1.68174e-08)
(3.5876e-07 -2.13477e-07 1.94795e-08)
(3.35972e-07 -1.99143e-07 2.22934e-08)
(2.90294e-07 -1.85009e-07 2.49048e-08)
(2.24373e-07 -1.72861e-07 2.71306e-08)
(1.42271e-07 -1.63931e-07 2.87019e-08)
(4.9821e-08 -1.59226e-07 2.95245e-08)
(-4.66327e-08 -1.59295e-07 2.95864e-08)
(-1.39498e-07 -1.64127e-07 2.87194e-08)
(-2.21665e-07 -1.73188e-07 2.71432e-08)
(-2.87548e-07 -1.85364e-07 2.49321e-08)
(-3.33453e-07 -1.99444e-07 2.23591e-08)
(-3.56686e-07 -2.13749e-07 1.95388e-08)
(-3.57023e-07 -2.26631e-07 1.68513e-08)
(-3.36561e-07 -2.36503e-07 1.44062e-08)
(-2.98764e-07 -2.41734e-07 1.23504e-08)
(-2.48378e-07 -2.40603e-07 1.07787e-08)
(-1.90963e-07 -2.31159e-07 9.68925e-09)
(-1.32394e-07 -2.11042e-07 8.95232e-09)
(-7.82368e-08 -1.77406e-07 8.30256e-09)
(-3.39762e-08 -1.26599e-07 7.05141e-09)
(-3.86024e-09 -5.44219e-08 3.77881e-09)
(4.83903e-09 -9.65317e-08 4.82987e-09)
(4.13701e-08 -2.13777e-07 9.03546e-09)
(9.31486e-08 -2.93545e-07 1.0776e-08)
(1.54858e-07 -3.47228e-07 1.18223e-08)
(2.20359e-07 -3.81172e-07 1.29404e-08)
(2.83773e-07 -3.99536e-07 1.44375e-08)
(3.38917e-07 -4.05622e-07 1.64047e-08)
(3.79984e-07 -4.02156e-07 1.88567e-08)
(4.01935e-07 -3.91599e-07 2.1702e-08)
(4.01062e-07 -3.76266e-07 2.47656e-08)
(3.75107e-07 -3.58477e-07 2.79038e-08)
(3.23922e-07 -3.4035e-07 3.08441e-08)
(2.50225e-07 -3.24365e-07 3.33757e-08)
(1.58553e-07 -3.1236e-07 3.51249e-08)
(5.54976e-08 -3.06056e-07 3.60396e-08)
(-5.20234e-08 -3.06156e-07 3.61147e-08)
(-1.55555e-07 -3.12517e-07 3.5148e-08)
(-2.47175e-07 -3.24478e-07 3.33804e-08)
(-3.20881e-07 -3.4044e-07 3.09002e-08)
(-3.72352e-07 -3.58532e-07 2.797e-08)
(-3.98774e-07 -3.76318e-07 2.48146e-08)
(-4.00091e-07 -3.91639e-07 2.1739e-08)
(-3.78553e-07 -4.02201e-07 1.88978e-08)
(-3.37873e-07 -4.05673e-07 1.64457e-08)
(-2.83075e-07 -3.99624e-07 1.4474e-08)
(-2.19976e-07 -3.81322e-07 1.29765e-08)
(-1.54729e-07 -3.47473e-07 1.1835e-08)
(-9.31617e-08 -2.93823e-07 1.0749e-08)
(-4.14532e-08 -2.1393e-07 8.96318e-09)
(-4.89464e-09 -9.6764e-08 4.76818e-09)
(5.48688e-09 -1.4593e-07 5.50302e-09)
(4.64766e-08 -3.14886e-07 1.02954e-08)
(1.03675e-07 -4.2732e-07 1.23309e-08)
(1.70835e-07 -5.03325e-07 1.36248e-08)
(2.41221e-07 -5.52798e-07 1.49859e-08)
(3.08756e-07 -5.81663e-07 1.67514e-08)
(3.67104e-07 -5.94288e-07 1.90163e-08)
(4.10314e-07 -5.94186e-07 2.18069e-08)
(4.33173e-07 -5.84499e-07 2.50218e-08)
(4.31775e-07 -5.68176e-07 2.84912e-08)
(4.03787e-07 -5.48175e-07 3.1993e-08)
(3.48853e-07 -5.27196e-07 3.53243e-08)
(2.69447e-07 -5.0815e-07 3.81884e-08)
(1.70685e-07 -4.93507e-07 4.01591e-08)
(5.97046e-08 -4.85789e-07 4.11739e-08)
(-5.60359e-08 -4.85876e-07 4.12446e-08)
(-1.67545e-07 -4.93641e-07 4.01675e-08)
(-2.66161e-07 -5.08057e-07 3.81888e-08)
(-3.45592e-07 -5.2714e-07 3.54134e-08)
(-4.00866e-07 -5.48105e-07 3.20783e-08)
(-4.29357e-07 -5.68111e-07 2.85585e-08)
(-4.31233e-07 -5.84455e-07 2.508e-08)
(-4.08808e-07 -5.94184e-07 2.18635e-08)
(-3.66002e-07 -5.94323e-07 1.90777e-08)
(-3.08002e-07 -5.81749e-07 1.67982e-08)
(-2.40774e-07 -5.52933e-07 1.50231e-08)
(-1.70652e-07 -5.03522e-07 1.36227e-08)
(-1.03673e-07 -4.27507e-07 1.2271e-08)
(-4.65929e-08 -3.14891e-07 1.01787e-08)
(-5.5688e-09 -1.46187e-07 5.42031e-09)
(5.85716e-09 -1.99834e-07 5.87996e-09)
(4.94951e-08 -4.2495e-07 1.09901e-08)
(1.10007e-07 -5.72539e-07 1.32017e-08)
(1.80515e-07 -6.72456e-07 1.46329e-08)
(2.53913e-07 -7.38792e-07 1.61461e-08)
(3.24e-07 -7.79518e-07 1.81162e-08)
(3.8439e-07 -8.00195e-07 2.06315e-08)
(4.29071e-07 -8.05135e-07 2.37336e-08)
(4.5272e-07 -7.9811e-07 2.73079e-08)
(4.51278e-07 -7.82614e-07 3.11851e-08)
(4.22321e-07 -7.6213e-07 3.50901e-08)
(3.65271e-07 -7.39924e-07 3.88216e-08)
(2.82271e-07 -7.19153e-07 4.2057e-08)
(1.78809e-07 -7.02607e-07 4.42695e-08)
(6.25026e-08 -6.93765e-07 4.53627e-08)
(-5.86973e-08 -6.93804e-07 4.54355e-08)
(-1.75592e-07 -7.0279e-07 4.42565e-08)
(-2.78882e-07 -7.18976e-07 4.20736e-08)
(-3.61901e-07 -7.39862e-07 3.89488e-08)
(-4.19318e-07 -7.62067e-07 3.52097e-08)
(-4.48803e-07 -7.8255e-07 3.12826e-08)
(-4.50745e-07 -7.98077e-07 2.7392e-08)
(-4.27539e-07 -8.05154e-07 2.38082e-08)
(-3.83268e-07 -8.00251e-07 2.0707e-08)
(-3.23223e-07 -7.79607e-07 1.81682e-08)
(-2.5343e-07 -7.38898e-07 1.6186e-08)
(-1.80292e-07 -6.72562e-07 1.46143e-08)
(-1.09982e-07 -5.7253e-07 1.31032e-08)
(-4.96222e-08 -4.2472e-07 1.08442e-08)
(-5.94721e-09 -2.00157e-07 5.79203e-09)
(5.96941e-09 -2.55925e-07 6.0166e-09)
(5.05431e-08 -5.39545e-07 1.12383e-08)
(1.12225e-07 -7.23598e-07 1.35238e-08)
(1.83848e-07 -8.48346e-07 1.50293e-08)
(2.58186e-07 -9.32507e-07 1.66321e-08)
(3.29051e-07 -9.86316e-07 1.87465e-08)
(3.90122e-07 -1.01659e-06 2.14786e-08)
(4.35445e-07 -1.02845e-06 2.48633e-08)
(4.59672e-07 -1.02621e-06 2.87807e-08)
(4.58629e-07 -1.0138e-06 3.30647e-08)
(4.29776e-07 -9.95121e-07 3.74053e-08)
(3.72316e-07 -9.73819e-07 4.15191e-08)
(2.87916e-07 -9.53078e-07 4.51474e-08)
(1.82275e-07 -9.35523e-07 4.76235e-08)
(6.36553e-08 -9.26132e-07 4.88279e-08)
(-5.99142e-08 -9.26333e-07 4.8948e-08)
(-1.79155e-07 -9.36023e-07 4.76306e-08)
(-2.84588e-07 -9.53036e-07 4.52066e-08)
(-3.68944e-07 -9.73869e-07 4.16525e-08)
(-4.26777e-07 -9.95163e-07 3.75177e-08)
(-4.56142e-07 -1.01381e-06 3.31599e-08)
(-4.57684e-07 -1.02624e-06 2.88642e-08)
(-4.33897e-07 -1.02854e-06 2.49359e-08)
(-3.88973e-07 -1.01673e-06 2.15553e-08)
(-3.28235e-07 -9.86465e-07 1.88008e-08)
(-2.5766e-07 -9.32634e-07 1.66539e-08)
(-1.83582e-07 -8.48377e-07 1.49737e-08)
(-1.12174e-07 -7.23366e-07 1.33966e-08)
(-5.06638e-08 -5.39065e-07 1.1091e-08)
(-6.06723e-09 -2.56405e-07 5.93939e-09)
(5.87291e-09 -3.12135e-07 5.91932e-09)
(4.97075e-08 -6.54378e-07 1.10486e-08)
(1.10294e-07 -8.75091e-07 1.33206e-08)
(1.80567e-07 -1.02493e-06 1.48788e-08)
(2.53471e-07 -1.12736e-06 1.65403e-08)
(3.23019e-07 -1.19518e-06 1.87147e-08)
(3.83087e-07 -1.23651e-06 2.15806e-08)
(4.27916e-07 -1.25721e-06 2.51681e-08)
(4.52262e-07 -1.26202e-06 2.93501e-08)
(4.51898e-07 -1.2552e-06 3.39693e-08)
(4.24165e-07 -1.24086e-06 3.86894e-08)
(3.68145e-07 -1.22271e-06 4.31342e-08)
(2.84978e-07 -1.20399e-06 4.70545e-08)
(1.80273e-07 -1.18703e-06 4.98207e-08)
(6.29749e-08 -1.17819e-06 5.12248e-08)
(-5.93346e-08 -1.17841e-06 5.13412e-08)
(-1.77244e-07 -1.18743e-06 4.97707e-08)
(-2.81731e-07 -1.20389e-06 4.70998e-08)
(-3.64799e-07 -1.22282e-06 4.32545e-08)
(-4.21233e-07 -1.24101e-06 3.87922e-08)
(-4.49449e-07 -1.25532e-06 3.40678e-08)
(-4.50315e-07 -1.26215e-06 2.94376e-08)
(-4.26402e-07 -1.25741e-06 2.52406e-08)
(-3.81941e-07 -1.23678e-06 2.16515e-08)
(-3.22186e-07 -1.19543e-06 1.87459e-08)
(-2.52931e-07 -1.12747e-06 1.64924e-08)
(-1.80267e-07 -1.0247e-06 1.47612e-08)
(-1.10196e-07 -8.74434e-07 1.31756e-08)
(-4.97794e-08 -6.53585e-07 1.09068e-08)
(-5.9522e-09 -3.12702e-07 5.84042e-09)
(5.56394e-09 -3.66327e-07 5.5594e-09)
(4.69485e-08 -7.651e-07 1.03795e-08)
(1.04109e-07 -1.02142e-06 1.25232e-08)
(1.7038e-07 -1.19592e-06 1.4081e-08)
(2.39193e-07 -1.31654e-06 1.57945e-08)
(3.04967e-07 -1.39873e-06 1.79809e-08)
(3.61991e-07 -1.45219e-06 2.08615e-08)
(4.0486e-07 -1.48336e-06 2.45165e-08)
(4.28604e-07 -1.49732e-06 2.87996e-08)
(4.2906e-07 -1.49845e-06 3.35791e-08)
(4.03466e-07 -1.4909e-06 3.85143e-08)
(3.5077e-07 -1.47818e-06 4.31877e-08)
(2.7177e-07 -1.46325e-06 4.71806e-08)
(1.71767e-07 -1.44854e-06 5.01352e-08)
(6.00304e-08 -1.4414e-06 5.17634e-08)
(-5.67045e-08 -1.44161e-06 5.18824e-08)
(-1.68983e-07 -1.44861e-06 5.0081e-08)
(-2.68572e-07 -1.46243e-06 4.72036e-08)
(-3.47432e-07 -1.47776e-06 4.33083e-08)
(-4.00621e-07 -1.49097e-06 3.86088e-08)
(-4.26646e-07 -1.49864e-06 3.36813e-08)
(-4.26712e-07 -1.49755e-06 2.88859e-08)
(-4.03408e-07 -1.4837e-06 2.4583e-08)
(-3.60866e-07 -1.45262e-06 2.09384e-08)
(-3.04117e-07 -1.39905e-06 1.80049e-08)
(-2.38605e-07 -1.31641e-06 1.57483e-08)
(-1.69989e-07 -1.19519e-06 1.40548e-08)
(-1.0388e-07 -1.02027e-06 1.25346e-08)
(-4.69166e-08 -7.6409e-07 1.03916e-08)
(-5.60198e-09 -3.67e-07 5.55284e-09)
(5.03747e-09 -4.16253e-07 4.96049e-09)
(4.22109e-08 -8.66989e-07 9.30196e-09)
(9.35704e-08 -1.15637e-06 1.12115e-08)
(1.53055e-07 -1.35435e-06 1.26449e-08)
(2.14892e-07 -1.49257e-06 1.43401e-08)
(2.74165e-07 -1.58883e-06 1.64819e-08)
(3.25844e-07 -1.6548e-06 1.92504e-08)
(3.65006e-07 -1.69751e-06 2.27671e-08)
(3.87153e-07 -1.72208e-06 2.68829e-08)
(3.88325e-07 -1.73288e-06 3.15554e-08)
(3.65658e-07 -1.73384e-06 3.64478e-08)
(3.18208e-07 -1.72792e-06 4.11117e-08)
(2.46809e-07 -1.71844e-06 4.49674e-08)
(1.56191e-07 -1.70833e-06 4.79429e-08)
(5.46533e-08 -1.70362e-06 4.96369e-08)
(-5.16663e-08 -1.70388e-06 4.97882e-08)
(-1.53654e-07 -1.70829e-06 4.79569e-08)
(-2.43766e-07 -1.71748e-06 4.48969e-08)
(-3.15244e-07 -1.72769e-06 4.11223e-08)
(-3.63171e-07 -1.73404e-06 3.64552e-08)
(-3.86049e-07 -1.73319e-06 3.16459e-08)
(-3.8537e-07 -1.72236e-06 2.69759e-08)
(-3.6368e-07 -1.69795e-06 2.28247e-08)
(-3.24827e-07 -1.65542e-06 1.93404e-08)
(-2.73435e-07 -1.58908e-06 1.65088e-08)
(-2.14375e-07 -1.49174e-06 1.42901e-08)
(-1.52622e-07 -1.35266e-06 1.25873e-08)
(-9.32002e-08 -1.15449e-06 1.11066e-08)
(-4.20536e-08 -8.65571e-07 9.18404e-09)
(-4.99241e-09 -4.16835e-07 4.9351e-09)
(4.26683e-09 -4.59703e-07 4.12821e-09)
(3.54311e-08 -9.55213e-07 7.76812e-09)
(7.84944e-08 -1.273e-06 9.40644e-09)
(1.28589e-07 -1.492e-06 1.06958e-08)
(1.80685e-07 -1.64673e-06 1.22547e-08)
(2.30644e-07 -1.75647e-06 1.427e-08)
(2.74475e-07 -1.83459e-06 1.6801e-08)
(3.07987e-07 -1.88898e-06 1.993e-08)
(3.27358e-07 -1.92466e-06 2.35328e-08)
(3.28946e-07 -1.94551e-06 2.7682e-08)
(3.1004e-07 -1.95491e-06 3.20141e-08)
(2.6987e-07 -1.95642e-06 3.61503e-08)
(2.09413e-07 -1.95407e-06 3.97543e-08)
(1.32908e-07 -1.95033e-06 4.2645e-08)
(4.65762e-08 -1.94862e-06 4.42624e-08)
(-4.40145e-08 -1.94875e-06 4.44222e-08)
(-1.30796e-07 -1.95008e-06 4.28445e-08)
(-2.06943e-07 -1.95393e-06 4.00099e-08)
(-2.67545e-07 -1.9584e-06 3.6632e-08)
(-3.0789e-07 -1.95652e-06 3.23124e-08)
(-3.26831e-07 -1.9462e-06 2.78802e-08)
(-3.25735e-07 -1.92487e-06 2.35786e-08)
(-3.06869e-07 -1.88937e-06 1.97351e-08)
(-2.73591e-07 -1.83517e-06 1.65139e-08)
(-2.2994e-07 -1.75631e-06 1.39265e-08)
(-1.8002e-07 -1.64516e-06 1.19562e-08)
(-1.28014e-07 -1.48976e-06 1.05067e-08)
(-7.81577e-08 -1.27099e-06 9.30534e-09)
(-3.53184e-08 -9.53546e-07 7.73369e-09)
(-4.21128e-09 -4.60095e-07 4.18745e-09)
(3.33859e-09 -4.94345e-07 3.01007e-09)
(2.70832e-08 -1.02525e-06 5.62855e-09)
(5.95449e-08 -1.36544e-06 6.88603e-09)
(9.75628e-08 -1.60129e-06 7.88356e-09)
(1.37233e-07 -1.77e-06 9.02396e-09)
(1.75359e-07 -1.892e-06 1.05883e-08)
(2.08857e-07 -1.98113e-06 1.26731e-08)
(2.34598e-07 -2.04607e-06 1.53596e-08)
(2.49971e-07 -2.09186e-06 1.84478e-08)
(2.5177e-07 -2.12158e-06 2.1836e-08)
(2.37317e-07 -2.13906e-06 2.51429e-08)
(2.0637e-07 -2.14931e-06 2.84554e-08)
(1.60494e-07 -2.15525e-06 3.16566e-08)
(1.02355e-07 -2.1571e-06 3.40601e-08)
(3.61228e-08 -2.15772e-06 3.52953e-08)
(-3.33868e-08 -2.15711e-06 3.51941e-08)
(-1.00216e-07 -2.1554e-06 3.3854e-08)
(-1.58613e-07 -2.15403e-06 3.14582e-08)
(-2.04954e-07 -2.1516e-06 2.85751e-08)
(-2.35522e-07 -2.14094e-06 2.51413e-08)
(-2.49675e-07 -2.1221e-06 2.1667e-08)
(-2.48499e-07 -2.09165e-06 1.83008e-08)
(-2.33735e-07 -2.04611e-06 1.52654e-08)
(-2.08077e-07 -1.98128e-06 1.26883e-08)
(-1.74753e-07 -1.89143e-06 1.06275e-08)
(-1.36805e-07 -1.7687e-06 9.08493e-09)
(-9.73198e-08 -1.60029e-06 7.97797e-09)
(-5.94124e-08 -1.36526e-06 7.07178e-09)
(-2.68189e-08 -1.0249e-06 5.87344e-09)
(-3.20733e-09 -4.95216e-07 3.1579e-09)
(2.11645e-09 -5.19076e-07 1.95568e-09)
(1.71222e-08 -1.07475e-06 3.62131e-09)
(3.75992e-08 -1.43081e-06 4.32828e-09)
(6.16486e-08 -1.67766e-06 4.84655e-09)
(8.65354e-08 -1.85566e-06 5.516e-09)
(1.10422e-07 -1.98665e-06 6.54101e-09)
(1.31444e-07 -2.08423e-06 7.94085e-09)
(1.47539e-07 -2.15732e-06 9.76396e-09)
(1.57418e-07 -2.21102e-06 1.1911e-08)
(1.58986e-07 -2.24788e-06 1.41871e-08)
(1.50047e-07 -2.27312e-06 1.64397e-08)
(1.30726e-07 -2.29138e-06 1.88e-08)
(1.01996e-07 -2.30397e-06 2.09897e-08)
(6.52699e-08 -2.31014e-06 2.26206e-08)
(2.33475e-08 -2.31239e-06 2.33652e-08)
(-2.05634e-08 -2.31018e-06 2.29822e-08)
(-6.30597e-08 -2.30537e-06 2.19394e-08)
(-9.99103e-08 -2.29935e-06 2.01592e-08)
(-1.29074e-07 -2.28999e-06 1.79254e-08)
(-1.48653e-07 -2.27158e-06 1.54948e-08)
(-1.57812e-07 -2.24535e-06 1.32093e-08)
(-1.57016e-07 -2.2076e-06 1.12141e-08)
(-1.47547e-07 -2.15514e-06 9.466e-09)
(-1.3121e-07 -2.08393e-06 8.01413e-09)
(-1.10008e-07 -1.9873e-06 6.8319e-09)
(-8.59494e-08 -1.85647e-06 5.87736e-09)
(-6.10534e-08 -1.67845e-06 5.17451e-09)
(-3.72297e-08 -1.43154e-06 4.57752e-09)
(-1.67973e-08 -1.07487e-06 3.77772e-09)
(-2.02578e-09 -5.19749e-07 1.98652e-09)
(7.8126e-10 -5.32006e-07 6.18106e-10)
(6.00086e-09 -1.10021e-06 1.23168e-09)
(1.3107e-08 -1.46509e-06 1.54776e-09)
(2.16505e-08 -1.71823e-06 1.75615e-09)
(3.04374e-08 -1.90137e-06 2.03041e-09)
(3.89223e-08 -2.03668e-06 2.45901e-09)
(4.66095e-08 -2.13761e-06 2.96715e-09)
(5.25708e-08 -2.21333e-06 3.48094e-09)
(5.61526e-08 -2.27058e-06 4.14462e-09)
(5.66883e-08 -2.31284e-06 5.05457e-09)
(5.34911e-08 -2.3441e-06 6.00208e-09)
(4.67831e-08 -2.36711e-06 6.87838e-09)
(3.65376e-08 -2.38259e-06 7.55353e-09)
(2.34996e-08 -2.39138e-06 8.26635e-09)
(8.84064e-09 -2.39561e-06 8.60829e-09)
(-6.66467e-09 -2.39339e-06 8.33468e-09)
(-2.22252e-08 -2.38737e-06 7.99238e-09)
(-3.52029e-08 -2.37905e-06 7.34348e-09)
(-4.52836e-08 -2.36621e-06 6.42182e-09)
(-5.21594e-08 -2.34329e-06 5.51703e-09)
(-5.5374e-08 -2.31153e-06 4.68638e-09)
(-5.52205e-08 -2.26835e-06 3.95705e-09)
(-5.20468e-08 -2.21162e-06 3.2807e-09)
(-4.64103e-08 -2.13722e-06 2.73821e-09)
(-3.89383e-08 -2.03735e-06 2.34209e-09)
(-3.03486e-08 -1.90247e-06 2.01562e-09)
(-2.14853e-08 -1.71941e-06 1.76753e-09)
(-1.30483e-08 -1.46624e-06 1.56106e-09)
(-5.844e-09 -1.10097e-06 1.32471e-09)
(-6.69679e-10 -5.32555e-07 7.09937e-10)
(-5.60335e-10 -5.32543e-07 -6.61201e-10)
(-5.20374e-09 -1.10116e-06 -1.19842e-09)
(-1.16982e-08 -1.4666e-06 -1.40692e-09)
(-1.90879e-08 -1.71997e-06 -1.58285e-09)
(-2.68276e-08 -1.90331e-06 -1.80834e-09)
(-3.42803e-08 -2.03893e-06 -2.12833e-09)
(-4.0859e-08 -2.14024e-06 -2.54529e-09)
(-4.60473e-08 -2.21626e-06 -3.06294e-09)
(-4.90758e-08 -2.27351e-06 -3.71526e-09)
(-4.92332e-08 -2.3154e-06 -4.43867e-09)
(-4.61589e-08 -2.34654e-06 -5.34204e-09)
(-4.00941e-08 -2.36951e-06 -6.34012e-09)
(-3.15639e-08 -2.3847e-06 -7.17151e-09)
(-2.05762e-08 -2.39377e-06 -7.49694e-09)
(-7.31305e-09 -2.39791e-06 -7.52627e-09)
(6.91019e-09 -2.39544e-06 -7.42299e-09)
(1.99398e-08 -2.39024e-06 -6.92756e-09)
(3.19967e-08 -2.38216e-06 -6.32307e-09)
(4.12168e-08 -2.36869e-06 -5.79494e-09)
(4.68535e-08 -2.34562e-06 -4.96121e-09)
(4.97995e-08 -2.3139e-06 -4.08283e-09)
(4.97557e-08 -2.27057e-06 -3.2598e-09)
(4.69562e-08 -2.21367e-06 -2.74299e-09)
(4.18209e-08 -2.13892e-06 -2.41832e-09)
(3.49664e-08 -2.03866e-06 -2.08671e-09)
(2.7342e-08 -1.90349e-06 -1.82506e-09)
(1.94449e-08 -1.72019e-06 -1.60489e-09)
(1.18849e-08 -1.4669e-06 -1.39166e-09)
(5.41975e-09 -1.10148e-06 -1.07614e-09)
(7.00612e-10 -5.32846e-07 -5.41594e-10)
(-1.94754e-09 -5.20473e-07 -1.92839e-09)
(-1.62495e-08 -1.07652e-06 -3.65242e-09)
(-3.60154e-08 -1.43395e-06 -4.43854e-09)
(-5.89828e-08 -1.68147e-06 -5.02797e-09)
(-8.30024e-08 -1.86016e-06 -5.71679e-09)
(-1.06181e-07 -1.99205e-06 -6.64208e-09)
(-1.26499e-07 -2.09027e-06 -7.86369e-09)
(-1.4205e-07 -2.16335e-06 -9.45725e-09)
(-1.51142e-07 -2.21719e-06 -1.14383e-08)
(-1.52165e-07 -2.2544e-06 -1.35153e-08)
(-1.43421e-07 -2.28017e-06 -1.58123e-08)
(-1.24841e-07 -2.29873e-06 -1.82404e-08)
(-9.76419e-08 -2.3114e-06 -2.03355e-08)
(-6.27308e-08 -2.31889e-06 -2.16724e-08)
(-2.19359e-08 -2.32179e-06 -2.21894e-08)
(2.09642e-08 -2.31865e-06 -2.18905e-08)
(6.1457e-08 -2.3148e-06 -2.09088e-08)
(9.75886e-08 -2.30938e-06 -1.93202e-08)
(1.25426e-07 -2.29815e-06 -1.75315e-08)
(1.43493e-07 -2.2789e-06 -1.52186e-08)
(1.52615e-07 -2.25228e-06 -1.30192e-08)
(1.5182e-07 -2.21415e-06 -1.0892e-08)
(1.42361e-07 -2.16072e-06 -9.06025e-09)
(1.26644e-07 -2.08837e-06 -7.53369e-09)
(1.06332e-07 -1.99122e-06 -6.28713e-09)
(8.33895e-08 -1.86009e-06 -5.35733e-09)
(5.94168e-08 -1.68171e-06 -4.65142e-09)
(3.6363e-08 -1.43452e-06 -4.10202e-09)
(1.6585e-08 -1.07724e-06 -3.37476e-09)
(2.09226e-09 -5.20682e-07 -1.82569e-09)
(-3.18484e-09 -4.96538e-07 -3.06976e-09)
(-2.63751e-08 -1.02783e-06 -5.73397e-09)
(-5.83241e-08 -1.36939e-06 -6.94817e-09)
(-9.55222e-08 -1.6053e-06 -7.84532e-09)
(-1.34291e-07 -1.77454e-06 -8.92324e-09)
(-1.71602e-07 -1.89816e-06 -1.04043e-08)
(-2.04387e-07 -1.98896e-06 -1.23784e-08)
(-2.29607e-07 -2.05487e-06 -1.4936e-08)
(-2.44302e-07 -2.10166e-06 -1.80494e-08)
(-2.45794e-07 -2.13219e-06 -2.1334e-08)
(-2.31709e-07 -2.15029e-06 -2.47109e-08)
(-2.01455e-07 -2.16083e-06 -2.7961e-08)
(-1.56914e-07 -2.16736e-06 -3.09592e-08)
(-1.00444e-07 -2.17081e-06 -3.32142e-08)
(-3.51706e-08 -2.17222e-06 -3.43593e-08)
(3.34309e-08 -2.16975e-06 -3.40859e-08)
(9.88381e-08 -2.16834e-06 -3.27867e-08)
(1.56899e-07 -2.16748e-06 -3.05585e-08)
(2.01889e-07 -2.16132e-06 -2.78172e-08)
(2.31605e-07 -2.14932e-06 -2.44689e-08)
(2.4616e-07 -2.13061e-06 -2.11559e-08)
(2.45133e-07 -2.10074e-06 -1.79008e-08)
(2.30286e-07 -2.05501e-06 -1.49991e-08)
(2.0498e-07 -1.98961e-06 -1.24439e-08)
(1.72034e-07 -1.89946e-06 -1.03934e-08)
(1.3455e-07 -1.77613e-06 -8.84446e-09)
(9.56146e-08 -1.60657e-06 -7.59196e-09)
(5.85074e-08 -1.37058e-06 -6.62524e-09)
(2.66969e-08 -1.02902e-06 -5.42207e-09)
(3.34005e-09 -4.96464e-07 -2.92225e-09)
(-4.24262e-09 -4.61997e-07 -4.05304e-09)
(-3.50559e-08 -9.57724e-07 -7.56233e-09)
(-7.73801e-08 -1.27652e-06 -9.19294e-09)
(-1.26733e-07 -1.49622e-06 -1.04257e-08)
(-1.78198e-07 -1.65254e-06 -1.18648e-08)
(-2.27681e-07 -1.76466e-06 -1.38147e-08)
(-2.71023e-07 -1.84449e-06 -1.63761e-08)
(-3.04098e-07 -1.89975e-06 -1.9546e-08)
(-3.23052e-07 -1.93646e-06 -2.33018e-08)
(-3.24536e-07 -1.95851e-06 -2.73932e-08)
(-3.05876e-07 -1.96892e-06 -3.17167e-08)
(-2.66066e-07 -1.97109e-06 -3.57618e-08)
(-2.06646e-07 -1.96961e-06 -3.92905e-08)
(-1.31513e-07 -1.96776e-06 -4.21279e-08)
(-4.56084e-08 -1.96725e-06 -4.38299e-08)
(4.42058e-08 -1.96573e-06 -4.3695e-08)
(1.30053e-07 -1.96709e-06 -4.21011e-08)
(2.06479e-07 -1.97134e-06 -3.92537e-08)
(2.66172e-07 -1.97205e-06 -3.57273e-08)
(3.05612e-07 -1.96857e-06 -3.17656e-08)
(3.24426e-07 -1.95795e-06 -2.74744e-08)
(3.2348e-07 -1.93664e-06 -2.32556e-08)
(3.04644e-07 -1.90039e-06 -1.96468e-08)
(2.71572e-07 -1.8451e-06 -1.65823e-08)
(2.28176e-07 -1.76564e-06 -1.41149e-08)
(1.78667e-07 -1.65446e-06 -1.21853e-08)
(1.27122e-07 -1.49918e-06 -1.05967e-08)
(7.7601e-08 -1.28019e-06 -9.28829e-09)
(3.51088e-08 -9.60801e-07 -7.62867e-09)
(4.24293e-09 -4.62116e-07 -4.05773e-09)
(-5.00146e-09 -4.18879e-07 -4.92013e-09)
(-4.18466e-08 -8.70466e-07 -9.19022e-09)
(-9.26134e-08 -1.1607e-06 -1.11153e-08)
(-1.5177e-07 -1.35991e-06 -1.256e-08)
(-2.13288e-07 -1.50008e-06 -1.42138e-08)
(-2.72249e-07 -1.5985e-06 -1.64113e-08)
(-3.23609e-07 -1.66595e-06 -1.92275e-08)
(-3.62498e-07 -1.70967e-06 -2.27038e-08)
(-3.8439e-07 -1.73535e-06 -2.6855e-08)
(-3.85479e-07 -1.74732e-06 -3.14717e-08)
(-3.62948e-07 -1.74927e-06 -3.63534e-08)
(-3.15729e-07 -1.74426e-06 -4.0962e-08)
(-2.45062e-07 -1.73564e-06 -4.48124e-08)
(-1.55395e-07 -1.72749e-06 -4.77969e-08)
(-5.35575e-08 -1.72364e-06 -4.97384e-08)
(5.23242e-08 -1.72253e-06 -4.97125e-08)
(1.53809e-07 -1.72699e-06 -4.80832e-08)
(2.44186e-07 -1.73688e-06 -4.5069e-08)
(3.15163e-07 -1.74498e-06 -4.09898e-08)
(3.6254e-07 -1.74966e-06 -3.64031e-08)
(3.85331e-07 -1.74761e-06 -3.1513e-08)
(3.84632e-07 -1.73584e-06 -2.68116e-08)
(3.6285e-07 -1.71035e-06 -2.26874e-08)
(3.24031e-07 -1.66669e-06 -1.91759e-08)
(2.72677e-07 -1.59948e-06 -1.63754e-08)
(2.13728e-07 -1.50184e-06 -1.42735e-08)
(1.52277e-07 -1.36304e-06 -1.26235e-08)
(9.30907e-08 -1.16483e-06 -1.11399e-08)
(4.2144e-08 -8.73785e-07 -9.19522e-09)
(5.06877e-09 -4.18923e-07 -4.90564e-09)
(-5.56898e-09 -3.69e-07 -5.57065e-09)
(-4.67953e-08 -7.69255e-07 -1.04002e-08)
(-1.03685e-07 -1.02672e-06 -1.25369e-08)
(-1.69772e-07 -1.20279e-06 -1.40543e-08)
(-2.38397e-07 -1.32522e-06 -1.57311e-08)
(-3.04036e-07 -1.40901e-06 -1.79732e-08)
(-3.60952e-07 -1.46369e-06 -2.09101e-08)
(-4.03721e-07 -1.49591e-06 -2.45588e-08)
(-4.27336e-07 -1.51092e-06 -2.88706e-08)
(-4.27703e-07 -1.51312e-06 -3.36416e-08)
(-4.02055e-07 -1.50656e-06 -3.86086e-08)
(-3.49421e-07 -1.49502e-06 -4.33356e-08)
(-2.71088e-07 -1.48144e-06 -4.73848e-08)
(-1.71707e-07 -1.46857e-06 -5.03302e-08)
(-5.91371e-08 -1.46131e-06 -5.20705e-08)
(5.75829e-08 -1.46033e-06 -5.19118e-08)
(1.69911e-07 -1.46736e-06 -5.03475e-08)
(2.69796e-07 -1.48118e-06 -4.7405e-08)
(3.48539e-07 -1.49495e-06 -4.32544e-08)
(4.01462e-07 -1.50675e-06 -3.8594e-08)
(4.27401e-07 -1.5134e-06 -3.36478e-08)
(4.27349e-07 -1.5114e-06 -2.88621e-08)
(4.03915e-07 -1.49653e-06 -2.45602e-08)
(3.61302e-07 -1.46442e-06 -2.08902e-08)
(3.04495e-07 -1.40987e-06 -1.79601e-08)
(2.38903e-07 -1.32635e-06 -1.57655e-08)
(1.70219e-07 -1.20464e-06 -1.41264e-08)
(1.03955e-07 -1.0294e-06 -1.2607e-08)
(4.691e-08 -7.71714e-07 -1.04399e-08)
(5.5479e-09 -3.69069e-07 -5.57409e-09)
(-5.90458e-09 -3.14806e-07 -5.91411e-09)
(-4.97559e-08 -6.58637e-07 -1.09833e-08)
(-1.10386e-07 -8.80861e-07 -1.32067e-08)
(-1.80658e-07 -1.03231e-06 -1.47867e-08)
(-2.53547e-07 -1.13622e-06 -1.65167e-08)
(-3.23123e-07 -1.20525e-06 -1.87738e-08)
(-3.83231e-07 -1.24763e-06 -2.16954e-08)
(-4.28077e-07 -1.26929e-06 -2.53018e-08)
(-4.52382e-07 -1.27507e-06 -2.95274e-08)
(-4.51924e-07 -1.2692e-06 -3.41693e-08)
(-4.24004e-07 -1.25575e-06 -3.89358e-08)
(-3.67869e-07 -1.23862e-06 -4.34565e-08)
(-2.85134e-07 -1.22099e-06 -4.74059e-08)
(-1.80584e-07 -1.20552e-06 -5.01988e-08)
(-6.21866e-08 -1.19645e-06 -5.17372e-08)
(6.04717e-08 -1.19594e-06 -5.16262e-08)
(1.78742e-07 -1.20482e-06 -5.02554e-08)
(2.83658e-07 -1.22092e-06 -4.74412e-08)
(3.66838e-07 -1.23874e-06 -4.3454e-08)
(4.23296e-07 -1.25601e-06 -3.89739e-08)
(4.51517e-07 -1.26954e-06 -3.42075e-08)
(4.52254e-07 -1.27554e-06 -2.9555e-08)
(4.28147e-07 -1.26988e-06 -2.53313e-08)
(3.83451e-07 -1.24834e-06 -2.17167e-08)
(3.23443e-07 -1.20609e-06 -1.88e-08)
(2.53917e-07 -1.13723e-06 -1.6572e-08)
(1.80949e-07 -1.03362e-06 -1.49329e-08)
(1.10492e-07 -8.82669e-07 -1.34513e-08)
(4.97646e-08 -6.6058e-07 -1.1204e-08)
(5.84461e-09 -3.14819e-07 -5.97628e-09)
(-6.01031e-09 -2.58468e-07 -6.04273e-09)
(-5.07311e-08 -5.43607e-07 -1.12209e-08)
(-1.12623e-07 -7.29351e-07 -1.34639e-08)
(-1.8443e-07 -8.55509e-07 -1.50267e-08)
(-2.58953e-07 -9.40786e-07 -1.67114e-08)
(-3.30031e-07 -9.95553e-07 -1.88779e-08)
(-3.91279e-07 -1.0267e-06 -2.1653e-08)
(-4.36716e-07 -1.03939e-06 -2.50623e-08)
(-4.60974e-07 -1.03796e-06 -2.90319e-08)
(-4.59834e-07 -1.02636e-06 -3.33557e-08)
(-4.3068e-07 -1.00844e-06 -3.77571e-08)
(-3.7293e-07 -9.87858e-07 -4.19652e-08)
(-2.88665e-07 -9.6775e-07 -4.56089e-08)
(-1.82949e-07 -9.51393e-07 -4.81687e-08)
(-6.31373e-08 -9.42001e-07 -4.95174e-08)
(6.12167e-08 -9.41732e-07 -4.94697e-08)
(1.80916e-07 -9.50967e-07 -4.82283e-08)
(2.87127e-07 -9.67814e-07 -4.55956e-08)
(3.71936e-07 -9.87965e-07 -4.19367e-08)
(4.29959e-07 -1.0086e-06 -3.77957e-08)
(4.59351e-07 -1.02661e-06 -3.34045e-08)
(4.60746e-07 -1.03833e-06 -2.90736e-08)
(4.36689e-07 -1.03988e-06 -2.51038e-08)
(3.91394e-07 -1.02729e-06 -2.16869e-08)
(3.30231e-07 -9.96233e-07 -1.89119e-08)
(2.59206e-07 -9.41572e-07 -1.6756e-08)
(1.84652e-07 -8.56425e-07 -1.51209e-08)
(1.12749e-07 -7.30499e-07 -1.36445e-08)
(5.07663e-08 -5.44995e-07 -1.13905e-08)
(5.9857e-09 -2.5843e-07 -6.08294e-09)
(-5.92053e-09 -2.01956e-07 -5.89224e-09)
(-4.98095e-08 -4.28575e-07 -1.09701e-08)
(-1.10624e-07 -5.77731e-07 -1.31918e-08)
(-1.81481e-07 -6.78788e-07 -1.46982e-08)
(-2.5523e-07 -7.46001e-07 -1.62806e-08)
(-3.25668e-07 -7.87486e-07 -1.82873e-08)
(-3.86347e-07 -8.08853e-07 -2.08505e-08)
(-4.31227e-07 -8.14441e-07 -2.39865e-08)
(-4.54974e-07 -8.08038e-07 -2.76191e-08)
(-4.53435e-07 -7.93159e-07 -3.15515e-08)
(-4.24087e-07 -7.73249e-07 -3.55526e-08)
(-3.66594e-07 -7.51536e-07 -3.9387e-08)
(-2.83514e-07 -7.31226e-07 -4.26429e-08)
(-1.79794e-07 -7.15556e-07 -4.49293e-08)
(-6.21384e-08 -7.06836e-07 -4.61306e-08)
(6.02227e-08 -7.06485e-07 -4.60981e-08)
(1.77663e-07 -7.15002e-07 -4.49284e-08)
(2.81932e-07 -7.3114e-07 -4.25788e-08)
(3.65566e-07 -7.51514e-07 -3.93107e-08)
(4.23307e-07 -7.73298e-07 -3.55573e-08)
(4.52865e-07 -7.93321e-07 -3.15943e-08)
(4.54657e-07 -8.08322e-07 -2.76592e-08)
(4.31127e-07 -8.14821e-07 -2.40266e-08)
(3.86389e-07 -8.09301e-07 -2.0883e-08)
(3.25798e-07 -7.88e-07 -1.83186e-08)
(2.55423e-07 -7.46585e-07 -1.63116e-08)
(1.81685e-07 -6.79448e-07 -1.4741e-08)
(1.10787e-07 -5.78488e-07 -1.32759e-08)
(4.98337e-08 -4.29483e-07 -1.10902e-08)
(5.8887e-09 -2.02036e-07 -5.93219e-09)
(-5.57411e-09 -1.47612e-07 -5.48851e-09)
(-4.68878e-08 -3.17953e-07 -1.02687e-08)
(-1.04471e-07 -4.317e-07 -1.23555e-08)
(-1.72079e-07 -5.08566e-07 -1.37138e-08)
(-2.42895e-07 -5.58669e-07 -1.51304e-08)
(-3.10859e-07 -5.8808e-07 -1.69255e-08)
(-3.69576e-07 -6.01201e-07 -1.9237e-08)
(-4.13038e-07 -6.0156e-07 -2.20568e-08)
(-4.36035e-07 -5.92299e-07 -2.53201e-08)
(-4.34551e-07 -5.76401e-07 -2.88386e-08)
(-4.06143e-07 -5.56745e-07 -3.24529e-08)
(-3.50719e-07 -5.36108e-07 -3.58756e-08)
(-2.71136e-07 -5.17453e-07 -3.87699e-08)
(-1.71918e-07 -5.03312e-07 -4.08188e-08)
(-5.9464e-08 -4.95642e-07 -4.19329e-08)
(5.75936e-08 -4.95308e-07 -4.18984e-08)