/*--------------------------------*- C++ -*----------------------------------*\
| =========                 |                                                 |
| \\      /  F ield         | OpenFOAM: The Open Source CFD Toolbox           |
|  \\    /   O peration     | Version:  v1906                                 |
|   \\  /    A nd           | Web:      www.OpenFOAM.com                      |
|    \\/     M anipulation  |                                                 |
\*---------------------------------------------------------------------------*/
FoamFile
{
    version     2.0;
    format      ascii;
    class       volScalarField;
    location    "0.67/oil";
    object      heatTransferCoeff(T);
}
// * * * * * * * * * * * * * * * * * * * * * * * * * * * * * * * * * * * * * //

dimensions      [1 0 -3 -1 0 0 0];


internalField   uniform 0;

boundaryField
{
    maxY
    {
        type            calculated;
        value           uniform 0;
    }
    minX
    {
        type            calculated;
        value           uniform 0;
    }
    maxX
    {
        type            calculated;
        value           uniform 0;
    }
    minY
    {
        type            calculated;
        value           uniform 0;
    }
    minZ
    {
        type            calculated;
        value           uniform 0;
    }
    maxZ
    {
        type            calculated;
        value           uniform 0;
    }
    oil_to_sphere
    {
        type            calculated;
        value           nonuniform List<scalar> 
1536
(
-2907
-2665.47
-2609.3
-3068.47
-3024.41
-2946.51
-2821.09
-2625.25
-2346.06
-2362.07
-3034.4
-2375.88
-2535.83
-2369.72
-3246.12
-3117.24
-2648.55
-2323.64
-1179.05
-2512.45
-2450.31
-3012.32
-2791.19
-3134.41
-3226.99
-3222.47
-3222.34
-3147.25
-2611.86
-2816.77
-2572.69
-2432.37
-2445.28
-3229.99
-3125.64
-3093.49
-2992.97
-3192.51
-3150.41
-3190.66
-3170.47
-3112.25
-2807.56
-2489.52
-2742.62
-2454.8
-2746.1
-2802.45
-3310.43
-2824.21
-3000.8
-2750.15
-2759.52
-2759.73
-2415.92
-2245.39
-2926
-2833.1
-2307.07
-1977.77
-1904.93
-1991.87
-1908.56
-1356.98
-1384.34
-2449.8
-2752.77
-2330.63
-2993.63
-2723.77
-3244.5
-3033.85
-3141.83
-3188.38
-3138.29
-2487.84
-2155.17
-2639.83
-3118.85
-2263.95
-1997.29
-1902.53
-1892.75
-1903.67
-1788.64
-1913.09
-1830.45
-2601.31
-2360.2
-1984.9
-1869.48
-1133.28
-1158.97
-1360.08
-1386.22
-2463.58
-2763.26
-2207.79
-2369.03
-2946.71
-2763.34
-3239.96
-2737.79
-2681.03
-2978.24
-3196.68
-3150.8
-2684.2
-2870.13
-2430.54
-2262.51
-2466.72
-1990.28
-1962.88
-1889.7
-1835.18
-1878.31
-1825.91
-1816.98
-1872.76
-2236.44
-1872.03
-1144.07
-2432.49
-2924.84
-2814.64
-2998.43
-2679.11
-2836.82
-3038.05
-2755.31
-3019.87
-2787.03
-3014.95
-2769.18
-3057.86
-2775.86
-2283.19
-2747.25
-2876.98
-1966.39
-1915.45
-2655.36
-2255.96
-1858
-2286.53
-2989.22
-2325.63
-2066.18
-3064.35
-3124.73
-2273.98
-2991.61
-2967.38
-2977.62
-2017.97
-2787.06
-1912.9
-2965.08
-2146.44
-2889.81
-2263.22
-3223.18
-3201.05
-3099.83
-2995.16
-3009.08
-1930.47
-2708.95
-1936.26
-2625.77
-2573.04
-2533.67
-2396.64
-2269.42
-2095.13
-2879.21
-2295.18
-2396.29
-2927.73
-3222.01
-3178.21
-3040.69
-3182.71
-2012.85
-2691.14
-1929.29
-2636.09
-2617.61
-2725.88
-2754.35
-3039.23
-2404.66
-2878.51
-3129.76
-2837.84
-2568.15
-2822.78
-2189.96
-2878.76
-2822.25
-2936.62
-2453.63
-2062.46
-2190.88
-2248.86
-2259.63
-2248.44
-2459
-1972.21
-2529.7
-2266.32
-2317.72
-2091.84
-2561.18
-2459.9
-2095.38
-2359.47
-2485.4
-2050.27
-2305.48
-2653.46
-2598.88
-2329.87
-2284.48
-2410.84
-3096.97
-2381.87
-3079.08
-3328.85
-3098.96
-2776.31
-3045.02
-2137.64
-2040.25
-2568.07
-2120.65
-2146.74
-2076.64
-2371.62
-2314.72
-1241.28
-1615.21
-2493.52
-2112.53
-2708.13
-2696.89
-2306.44
-2543.32
-2019.75
-2680
-3317.34
-2946.87
-3048.8
-2284.23
-3010.76
-3078.32
-2528.06
-2277.47
-2265.61
-2496.83
-1877.51
-2247.43
-1620.48
-1213.56
-1465.96
-1494.26
-1316.28
-2614.29
-2364.04
-2628.95
-2439.04
-2409.91
-2707.4
-2650.01
-2406.61
-2470.42
-2060.59
-2664.7
-2362.86
-3000.17
-2908.67
-2647.53
-2453.48
-2753.31
-2837.49
-2752.82
-2933.98
-2726.25
-2593.46
-2955.4
-2041.06
-2833.59
-2138.61
-2219.86
-2293.87
-2284.5
-2115.93
-2337
-2367.61
-2645.97
-2540.26
-2334.61
-2239.9
-2144.67
-2958.93
-2043.32
-3163.03
-3049.51
-1912.19
-2624.25
-1867.2
-2684.88
-2677.15
-2655.75
-2528.05
-2810.12
-2769.2
-2888.77
-2341.57
-2689.02
-2560.16
-2578.37
-3005.6
-2670.1
-2461.84
-2634.16
-2340.47
-2720.63
-2314.63
-2458.37
-2297.88
-2952.08
-2606.14
-2483.57
-2845.75
-2388.93
-2665.48
-2743.95
-2228.62
-1981.61
-2586.63
-2410.61
-2531.74
-2462.94
-2464.51
-2555.69
-2564.27
-2525.93
-2796.59
-2877.83
-2983.09
-2581.89
-2957.71
-2506.19
-2772.74
-2732.7
-2622.64
-3059.72
-2520.58
-2981.37
-2783.03
-2578.67
-3050.95
-2707
-2746.22
-3001.4
-2893.42
-2961.7
-2721.64
-2456.19
-3062.65
-2816.45
-2670.16
-3091.27
-2658.91
-2879.74
-2876.83
-2685.52
-2003.62
-2792.8
-2205.86
-2637.77
-2245.5
-2357.2
-2904.67
-2715.47
-2041.22
-2728.58
-2384.91
-2528.47
-2313.5
-2135.65
-2358.13
-2312.07
-2123.86
-2729.1
-2063.19
-2664.68
-2279.49
-2907.05
-2719.33
-1933.62
-2933.1
-2555.39
-2266.66
-2736.44
-2198.87
-2580.76
-2345.39
-2255.81
-2234.89
-2272.93
-2355.49
-2266.47
-2171.31
-2267.73
-2257.38
-2503.09
-2323.71
-2290.14
-2334.25
-2142.5
-1896.53
-2362.99
-2091.15
-2036.01
-2231.34
-1814.3
-1964.08
-2432.54
-2125.67
-2217.98
-2201.12
-2221.6
-2161.61
-2244.26
-1775.96
-1619.52
-1889.66
-1935.71
-2246.57
-2117.39
-2000.56
-2035.55
-2390.83
-2267.44
-2452.72
-2554.2
-2288.88
-2449.25
-2386.7
-2176.22
-2137.04
-1970.74
-1904.85
-2199.97
-1816.23
-1848.09
-2153.24
-1742.29
-1861
-1830.75
-2129.98
-2305.78
-2645.31
-2598.89
-2395.09
-2498.58
-2814
-2660.61
-2578.71
-2738.49
-2223.09
-2917.66
-2628.12
-2850.04
-2437.83
-2933.56
-2562.11
-2376.33
-2693.88
-2752.21
-2296.05
-2717.39
-2937.45
-2622.23
-2736.06
-2206.93
-2949.4
-2137.96
-2932.41
-3178.07
-3241.22
-3299.69
-3382.09
-3021.47
-3039.77
-3131.99
-3190.72
-2995.06
-2049.01
-3177.75
-3015.46
-1982.79
-1954.13
-2691.53
-3007.64
-3079.46
-2030.75
-2711.23
-2950.78
-3078.97
-3005.67
-2745.07
-2199.31
-1955.17
-2246.99
-2076.92
-1942.39
-2527.76
-2315.27
-2061.45
-2293.4
-2266.33
-1738.27
-1971.42
-2015.27
-1623.68
-1992.79
-1684.23
-2084.38
-1653
-2161.29
-1954.36
-2034.73
-2128.46
-2406.07
-2227.31
-2137.79
-1857.2
-2295.95
-2164.85
-1920.55
-2496.43
-2350.74
-2176.72
-2508.46
-2278.38
-2235.71
-2194.48
-1742.99
-1972.33
-2243.51
-1297.2
-1614.76
-1337.78
-1585.34
-1422.84
-1421.36
-1451.65
-1459.71
-1598.15
-2201.52
-1747.16
-1860.41
-1845.33
-1734.13
-2226.58
-1748.15
-1842.79
-1869.95
-1840.55
-2114.59
-1939
-2113.24
-1703.05
-2757.94
-2242.46
-2064.37
-2951.87
-2550.12
-2262.67
-2783.11
-2275.31
-2498.57
-2438.75
-2332.89
-2842.54
-2454.11
-2696.87
-2593.73
-2478.32
-2477.43
-2144.62
-2223.34
-2897.96
-2762.54
-2220.26
-2774.45
-2704.71
-2311.08
-2523.61
-2255.55
-2846.94
-2910.57
-2401.17
-2692.78
-2402.96
-2519.16
-2963.82
-2122.15
-3222.24
-3213.36
-2125.85
-2349.64
-2961.08
-3239.45
-3238.48
-2642.84
-3046.63
-3278.39
-3196.02
-3159.96
-3006.43
-3003.83
-3165.51
-2074.18
-2178.74
-2714.2
-1986.14
-3003.3
-2014.33
-1966.16
-2222.46
-2936.75
-3067.59
-2956.58
-2126.11
-3013.26
-2181.71
-2764.77
-2728.46
-1981.77
-3014.03
-1981.58
-2229.2
-1836.01
-1521.93
-2017.07
-2460.04
-2090.34
-2144.33
-2122.58
-2137.26
-2185.68
-2265.63
-1868.31
-2237.07
-2008.63
-1959.93
-2000.89
-2051.03
-1616.58
-1991.92
-2011.95
-1673.15
-2035.66
-1998.15
-1609.52
-1727.66
-2181.21
-2100.46
-1717.39
-1926.87
-2567.52
-2270.61
-2126.53
-1966.25
-2295.69
-2245.04
-2172.42
-1797.57
-1538.35
-2241.38
-2399.37
-2431.3
-2514.63
-2036.96
-2181.07
-2023.71
-2251.26
-2234.47
-1883.75
-2140.6
-1861.6
-1908.49
-1472.55
-1453.76
-1281.94
-1280.55
-1565.98
-1577.85
-1213.69
-1237.02
-1635.63
-2555.24
-2666.6
-2672.19
-2690.56
-2683.59
-2666.95
-2690.4
-2700.46
-2637.8
-2309.5
-2625.14
-2591.91
-2429.15
-2825.25
-2709.63
-2635.34
-2750.92
-2829.16
-2892.22
-2771.89
-2301.26
-2483.74
-2394.15
-2640.75
-2499.75
-2582.9
-2305.73
-2807.52
-2956.33
-2482.39
-2658.63
-2506.1
-2838.2
-2707.17
-2671.38
-2647.43
-2849.57
-2685.64
-2682.68
-2857.55
-2602.64
-2724.74
-3123.85
-2920.55
-2674.16
-2925.16
-2614.19
-2853.03
-2889.74
-2617.73
-2723.15
-2951.84
-3067.26
-2491.87
-2948.05
-2746.4
-2596.31
-3041.85
-2915.71
-2726.72
-2963.45
-2925.51
-2546.69
-2433.91
-3049.05
-2904.79
-2537.12
-3007.08
-3087.01
-2926.43
-2891.44
-2815.81
-2123.08
-2657.97
-2222.88
-2416.08
-2307.24
-2587.19
-2029.29
-2889.22
-2910.76
-2038.21
-2732.82
-2692.51
-2412.25
-2378.48
-2190.78
-2849.73
-2832.62
-2599.82
-2067.96
-2869.12
-2395.01
-2477.44
-2701.62
-2166.39
-2715.12
-2278.35
-2297.21
-2528.25
-2085.97
-2899.06
-2711.85
-2803.52
-2290.06
-2366.58
-2191.76
-2693.24
-2709.01
-2312.22
-2385.89
-2237.1
-2249.77
-2263.8
-2431.27
-2275.47
-2430.63
-1935.77
-2257.36
-2173.37
-2089.65
-2219.69
-2177.73
-1821.66
-1911.13
-2229.74
-2019.45
-2394.09
-2301.01
-2189.81
-2158.81
-2517.29
-2546.9
-2319.11
-2271.62
-2331.08
-2242.3
-2209.22
-2229.42
-1812.97
-1613.75
-2282.33
-1799.87
-2190.59
-2217.34
-2005.79
-1979
-2262.95
-1967.76
-2505.56
-2304.33
-2258.89
-2238.85
-2263.1
-1998.19
-2452.36
-2193.29
-2720.41
-3009.22
-2425.72
-2590.07
-2080.6
-2573.07
-2076.69
-2178.82
-2712.84
-3110.09
-2379.66
-2269.22
-2743.44
-2866.65
-2602.09
-2720.04
-1921.25
-1325.98
-3130.46
-2640.4
-2671.56
-1852.89
-1303.81
-1969.7
-2735
-3105.49
-3022.77
-2001.64
-2828.2
-3023.44
-2793.34
-2984.01
-2477.02
-2962.83
-2612.81
-2559.89
-2801.53
-2978.19
-2681.08
-2773.86
-2916.5
-2747.08
-2837.68
-2761.72
-2741.28
-2211.16
-2480.2
-3259.65
-2390.79
-3088.57
-2534.09
-2895.12
-2652.75
-2690.55
-2371.39
-2559.3
-3141.27
-2659.02
-3085.85
-2522.15
-2518.78
-2890.73
-2163.93
-3039.92
-3229.43
-3180.66
-2933.76
-3022.25
-3040.38
-2992.81
-3030.68
-2493.55
-2432.06
-2856.38
-2203.92
-2653.8
-2517.5
-2502.72
-2934.05
-2739.43
-2976.59
-2294.25
-2668.09
-2993.07
-2958.26
-3152.52
-2755.06
-3030.81
-3041.45
-2340.13
-2746.6
-2782.64
-2743.82
-2435.11
-2753.49
-2328.58
-2611.41
-1774.17
-2262.66
-2495.46
-2372.74
-2042.72
-2386.05
-2035.13
-1967.43
-2386.5
-2403.27
-2031.56
-2548.07
-3006.63
-2863.47
-3115.24
-2723.1
-2953.93
-3151.35
-2490.88
-3240.16
-2504.37
-2673.55
-2648.79
-2414.83
-2830.52
-2038.71
-2212.1
-2721.64
-2059.22
-2430.4
-2701.54
-2360.9
-2091.93
-1637.94
-1535.66
-2613.99
-2280.31
-1349.92
-1346.89
-1512.13
-2574.77
-1963.22
-2445.52
-1934.19
-2406.9
-2034.97
-2454.39
-1988.37
-2348.37
-2979.58
-2761.51
-3059.84
-2105.87
-2032.37
-2606.27
-2659.79
-2681.16
-2976.54
-2440.85
-3128.7
-2522.45
-2544.08
-3099.13
-2401.7
-2661.27
-2883.77
-2051.36
-3042.21
-2419.87
-2333.21
-2078.73
-2655.32
-2394.44
-2720.63
-2786.75
-2349.63
-1690.13
-2109.87
-1627.48
-2616.56
-2209.8
-1374.41
-1537.41
-1337.82
-2516.2
-2564.96
-3021.47
-2668.76
-2938.61
-2981.03
-2643.23
-2983.74
-3041.36
-3023.97
-2830.07
-2516.64
-2713.05
-2797.66
-2719.19
-2289.75
-2487.27
-2287.67
-2587.15
-3215.85
-3211.11
-3338.8
-2774.85
-2661
-3253.51
-3129.05
-2078.69
-2794.11
-2997.91
-2435.04
-3234.31
-3246.29
-2289.98
-2930.9
-2919.54
-2459.94
-3265.9
-3254.06
-3228.05
-2286
-2956.27
-3007.86
-2448.08
-3284.5
-2956.37
-2411.87
-3042.11
-2770.56
-2165.95
-2956.01
-3014.64
-2965.44
-2808.34
-3247.67
-3203.29
-3253.39
-3333.42
-2117.41
-2999.12
-3327.18
-2312.61
-2852.55
-3071.96
-3029.49
-2856.92
-2632.23
-3078.6
-2714.51
-2251.01
-2917.2
-3000.68
-3034.08
-2741.21
-3275.37
-2293.94
-2940.13
-3300.94
-2275.94
-2720.72
-3084.14
-3017.54
-2930.45
-2911.92
-3015.3
-3050.11
-2762.89
-2706.07
-2655.52
-2727.15
-2636.65
-2977.25
-2293.51
-2812.75
-2739.31
-2856.95
-2858.93
-2860.17
-2816.58
-2459.76
-2195.21
-2089.54
-2281.83
-2392.9
-2317.19
-2305.6
-2364.33
-2509.33
-2090.12
-2033.06
-2704.66
-3222.71
-3243.66
-3070.76
-2170.21
-2060.24
-2891.64
-2458.94
-3086.46
-2638.62
-2034.74
-2040.61
-2302.17
-2030.64
-1993.04
-1995.67
-2031.14
-1610.91
-1254.22
-2654.3
-2710.56
-2637.2
-2750.95
-2633.08
-2804.39
-2408.73
-3325.07
-3059.27
-2403.31
-2593.5
-1998.42
-1621.98
-1271.25
-1658.39
-1955.77
-2566.36
-2027.6
-2088.71
-2623.78
-2573.13
-2457.01
-2498.41
-2735
-2620.77
-3054.06
-2321.6
-2253.34
-2857.82
-2842.36
-2915.49
-2258.31
-2152.55
-2429.68
-2356.87
-2368.89
-2109.75
-1944.02
-2972.28
-2492.05
-2834.85
-2867.63
-3053.22
-2991.22
-2917.62
-2156.61
-3037.46
-2926.36
-2881.05
-3083.32
-3067.32
-2756.78
-2353.67
-2499.61
-2572.23
-2706.03
-2594.72
-2585.63
-2614.91
-2477.63
-2237.15
-2661.19
-2553.46
-2552.38
-2567.85
-2619.3
-2595.41
-2666.09
-2661.98
-2749.94
-2620.06
-2854.57
-2226.46
-2641.86
-2835.78
-2555.03
-2065.31
-2627.73
-2619.51
-2845.2
-2845.58
-2647.69
-2615.22
-2534.97
-2168.4
-2512.83
-2680.27
-2823.92
-2734.93
-2576.5
-2423.8
-2542.72
-2571.57
-2882.98
-3007.72
-2395.82
-2690.72
-2953.49
-2964.31
-2943.61
-2871.03
-2909.58
-3114.98
-2361.16
-2828.3
-2946.48
-2893.93
-2939.61
-2902.41
-2916.88
-2471.86
-2494.59
-2901.57
-2838.18
-2842.14
-2642.15
-2333.69
-2472
-2861.23
-2861.27
-2240.42
-2496.39
-2705.76
-2738.64
-2679.34
-2483.08
-2822.87
-2680.45
-2366.56
-2433.1
-2506.62
-2274.14
-2262.11
-2014.93
-1976.53
-2391.75
-2156.32
-2177.85
-2180.25
-1535.21
-1578.73
-2136.79
-2482.17
-2208.92
-2204.65
-2213.65
-2145.8
-2098
-1779.85
-2228.96
-2165.25
-1890.52
-2565.79
-2497.77
-1816.77
-2199.35
-2461.9
-1842.45
-2096.91
-2156.85
-1820.29
-2585.57
-2707.53
-2052.84
-2419.28
-2128.53
-2079.1
-2113.75
-2534.73
-2457.59
-2885.48
-2646.24
-2104.61
-2556.21
-3043.74
-2306.65
-2595.83
-2687.66
-2724.27
-2623.84
-2777.57
-2649.2
-2813.31
-2825.54
-2307.12
-2530.85
-2626.64
-2638.41
-2689.68
-2828.24
-3324.27
-2048.35
-3073.21
-3299.77
-2263.86
-3057.06
-3070.71
-2932.12
-2494.64
-2946.2
-2307.27
-3227.53
-2165.64
-2773
-2777.58
-3149.43
-3038.88
-3006.11
-2832.47
-1899.57
-3026.99
-2595.15
-2327.69
-2521.52
-2188.74
-1623.22
-1720.52
-2414.2
-2217.81
-2248.64
-2139.17
-2533.69
-1975.1
-2147.77
-1615.37
-2403.13
-2162.92
-1229.53
-1226.19
-1661.15
-1232.84
-1676.22
-1583.54
-1362.99
-2605.89
-1694.15
-2176.21
-2544.35
-2553.46
-2440.45
-2472.1
-2156.44
-2120.51
-2123.08
-2072.97
-2522.29
-2472.4
-2030.23
-2697.12
-2590.6
-2438.36
-2935.01
-2643.8
-2801.82
-2614.93
-2109.07
-2585.89
-3001.78
-2371
-2714.43
-2721.54
-2713
-2834.49
-2458.43
-2717.47
-2918.71
-2538.04
-2323.8
-3074.34
-3165.74
-3112.15
-3347.18
-3248.7
-2887.38
-3209.88
-2277.32
-2877.17
-2479.03
-2991.18
-3068.59
-2641.45
-3089.38
-2840.09
-2771.85
-2819.14
-3081.28
-2633.04
-2236.39
-2885.9
-2459.78
-2256.61
-2283.92
-2108.53
-2636.49
-2224.78
-2126.21
-1682.67
-2427.66
-2168.34
-2564.41
-2086.75
-1620.98
-1601.35
-1363.96
-2547.24
-2638.23
-2812.91
-2481.02
-2717.18
-2617.37
-2680.16
-2585.96
-2717.32
-2772.38
-2954.67
-2263.02
-2500.78
-2802.43
-2502.03
-2573.29
-2685.59
-2733.24
-2855.76
-2872.3
-2717.06
-2632.19
-2662.66
-3046.42
-2935.38
-3085.46
-2126.08
-2749.6
-2945.53
-2905.43
-2920.58
-2950.75
-2274.09
-2906.13
-3064.53
-2383.62
-2924.91
-2851
-2363.99
-2799.67
-2880.26
-2835.79
-2744.98
-2340.01
-2833.73
-2735.26
-2812.77
-2659.82
-1893.66
-2283.35
-2199.68
-1588.26
-2143.86
-2489.84
-1908.61
-2462.9
-2156.52
-2110.25
-2403.08
-2545.86
)
;
    }
}


// ************************************************************************* //
