/*--------------------------------*- C++ -*----------------------------------*\
| =========                 |                                                 |
| \\      /  F ield         | OpenFOAM: The Open Source CFD Toolbox           |
|  \\    /   O peration     | Version:  v1912                                 |
|   \\  /    A nd           | Website:  www.openfoam.com                      |
|    \\/     M anipulation  |                                                 |
\*---------------------------------------------------------------------------*/
FoamFile
{
    version     2.0;
    format      ascii;
    class       surfaceScalarField;
    location    "430/oil";
    object      phi;
}
// * * * * * * * * * * * * * * * * * * * * * * * * * * * * * * * * * * * * * //

dimensions      [1 0 -1 0 0 0 0];
oriented        oriented;


internalField   nonuniform List<scalar> 
104676
(
-1.24677e-11
2.85563e-11
-1.58158e-11
2.85027e-10
-2.33942e-10
-6.35275e-11
8.9375e-10
-4.39364e-10
-1.69367e-10
1.71968e-09
-5.36216e-10
-2.89719e-10
2.64144e-09
-5.48312e-10
-3.73463e-10
3.53775e-09
-4.98592e-10
-3.97715e-10
4.29908e-09
-4.05123e-10
-3.56209e-10
4.83391e-09
-2.81329e-10
-2.53488e-10
5.07093e-09
-1.37602e-10
-9.94088e-11
4.97124e-09
1.3096e-11
8.65958e-11
4.51601e-09
1.68842e-10
2.86395e-10
3.73674e-09
2.95917e-10
4.83353e-10
2.67417e-09
4.11392e-10
6.5117e-10
1.40462e-09
4.95034e-10
7.74507e-10
2.5278e-11
5.39228e-10
8.40112e-10
-1.35833e-09
5.41603e-10
8.42005e-10
-2.63122e-09
4.95435e-10
7.77464e-10
-3.69788e-09
4.10969e-10
6.55696e-10
-4.48452e-09
2.97595e-10
4.89045e-10
-4.94519e-09
1.65141e-10
2.95538e-10
-5.05691e-09
1.41698e-11
9.75516e-11
-4.82495e-09
-1.40526e-10
-9.14256e-11
-4.29427e-09
-2.83701e-10
-2.46976e-10
-3.53602e-09
-4.0733e-10
-3.50916e-10
-2.64223e-09
-5.00379e-10
-3.93409e-10
-1.72223e-09
-5.51044e-10
-3.68945e-10
-8.96834e-10
-5.40333e-10
-2.85066e-10
-2.87774e-10
-4.44073e-10
-1.64985e-10
1.05578e-11
-2.38164e-10
-6.01647e-11
2.42204e-11
-1.36597e-11
2.91569e-10
-5.54536e-10
2.91552e-10
1.12619e-09
-1.66775e-09
5.99203e-10
2.45256e-09
-2.50798e-09
7.42253e-10
4.1232e-09
-3.0201e-09
8.13238e-10
5.93723e-09
-3.26576e-09
9.03409e-10
7.67829e-09
-3.30525e-09
1.0656e-09
9.14193e-09
-3.19026e-09
1.3215e-09
1.01512e-08
-2.96154e-09
1.67093e-09
1.05683e-08
-2.6533e-09
2.09866e-09
1.03048e-08
-2.29634e-09
2.57294e-09
9.31964e-09
-1.92077e-09
3.07475e-09
7.66726e-09
-1.59188e-09
3.54018e-09
5.47115e-09
-1.30263e-09
3.91013e-09
2.87049e-09
-1.09338e-09
4.18907e-09
5.10304e-11
-9.83962e-10
4.34265e-09
-2.77926e-09
-9.84663e-10
4.35656e-09
-5.38669e-09
-1.09855e-09
4.20143e-09
-7.5844e-09
-1.31151e-09
3.9202e-09
-9.22258e-09
-1.6014e-09
3.53718e-09
-1.021e-08
-1.9366e-09
3.08916e-09
-1.04885e-08
-2.30704e-09
2.5997e-09
-1.00848e-08
-2.66141e-09
2.11719e-09
-9.09191e-09
-2.9666e-09
1.69005e-09
-7.64601e-09
-3.19432e-09
1.3411e-09
-5.91952e-09
-3.31032e-09
1.08345e-09
-4.11846e-09
-3.27248e-09
9.2038e-10
-2.45595e-09
-3.03125e-09
8.28405e-10
-1.13044e-09
-2.5226e-09
7.53026e-10
-2.93004e-10
-1.67964e-09
6.04035e-10
-5.60732e-10
2.91953e-10
6.14092e-10
-1.78858e-09
6.19958e-10
1.95242e-09
-4.33279e-09
1.32672e-09
3.82992e-09
-6.15208e-09
1.7666e-09
6.06203e-09
-7.33967e-09
2.08746e-09
8.41765e-09
-8.02241e-09
2.40104e-09
1.06423e-08
-8.30548e-09
2.77555e-09
1.24875e-08
-8.27945e-09
3.24407e-09
1.37327e-08
-8.01907e-09
3.81227e-09
1.42062e-08
-7.59231e-09
4.46558e-09
1.37978e-08
-7.05631e-09
5.16833e-09
1.24538e-08
-6.47307e-09
5.89631e-09
1.02311e-08
-5.92168e-09
6.55255e-09
7.29053e-09
-5.43818e-09
7.07613e-09
3.82181e-09
-5.08523e-09
7.46056e-09
6.55646e-11
-4.9033e-09
7.67558e-09
-3.70847e-09
-4.91202e-09
7.7014e-09
-7.18757e-09
-5.09739e-09
7.47795e-09
-1.01279e-08
-5.45237e-09
7.08125e-09
-1.2337e-08
-5.93234e-09
6.54003e-09
-1.36977e-08
-6.48854e-09
5.91262e-09
-1.41278e-08
-7.07045e-09
5.19357e-09
-1.36703e-08
-7.60243e-09
4.48347e-09
-1.24418e-08
-8.02696e-09
3.8319e-09
-1.06143e-08
-8.28538e-09
3.26358e-09
-8.40585e-09
-8.31284e-09
2.79407e-09
-6.06125e-09
-8.03457e-09
2.4175e-09
-3.83631e-09
-7.35672e-09
2.10054e-09
-1.96003e-09
-6.17274e-09
1.77385e-09
-6.17741e-10
-4.34886e-09
1.32694e-09
-1.79724e-09
6.18775e-10
8.8094e-10
-3.56118e-09
8.91659e-10
2.64318e-09
-8.01891e-09
1.92388e-09
4.96764e-09
-1.10788e-08
2.60223e-09
7.62739e-09
-1.31245e-08
3.12512e-09
1.03682e-08
-1.43895e-08
3.62625e-09
1.29162e-08
-1.50344e-08
4.18095e-09
1.50024e-08
-1.51933e-08
4.82769e-09
1.63857e-08
-1.49767e-08
5.57425e-09
1.6871e-08
-1.44853e-08
6.40777e-09
1.63314e-08
-1.38114e-08
7.29474e-09
1.47038e-08
-1.30483e-08
8.20283e-09
1.20649e-08
-1.22871e-08
9.00434e-09
8.58996e-09
-1.16242e-08
9.6609e-09
4.49973e-09
-1.11134e-08
1.01184e-08
7.40361e-11
-1.08532e-08
1.03755e-08
-4.37525e-09
-1.08716e-08
1.04089e-08
-8.47917e-09
-1.11265e-08
1.0133e-08
-1.19558e-08
-1.16239e-08
9.64813e-09
-1.45823e-08
-1.22903e-08
8.9845e-09
-1.62233e-08
-1.30545e-08
8.20701e-09
-1.67827e-08
-1.38179e-08
7.30682e-09
-1.63152e-08
-1.449e-08
6.42013e-09
-1.49513e-08
-1.49807e-08
5.58985e-09
-1.28829e-08
-1.51968e-08
4.84301e-09
-1.03521e-08
-1.50406e-08
4.19703e-09
-7.62588e-09
-1.44016e-08
3.64087e-09
-4.97306e-09
-1.31445e-08
3.13494e-09
-2.65071e-09
-1.10981e-08
2.60305e-09
-8.87461e-10
-8.02544e-09
1.91332e-09
-3.57308e-09
8.88379e-10
1.08224e-09
-5.73567e-09
1.09225e-09
3.17172e-09
-1.24689e-08
2.36047e-09
5.84637e-09
-1.69703e-08
3.21692e-09
8.83619e-09
-2.00035e-08
3.88916e-09
1.18657e-08
-2.195e-08
4.53103e-09
1.46477e-08
-2.30435e-08
5.22707e-09
1.6902e-08
-2.34653e-08
6.01778e-09
1.83748e-08
-2.33636e-08
6.91417e-09
1.88617e-08
-2.28717e-08
7.89945e-09
1.82234e-08
-2.21147e-08
8.9416e-09
1.63922e-08
-2.12211e-08
1.0004e-08
1.34476e-08
-2.03029e-08
1.09604e-08
9.56669e-09
-1.94786e-08
1.17353e-08
5.0083e-09
-1.88092e-08
1.22542e-08
7.96484e-11
-1.84707e-08
1.25462e-08
-4.87666e-09
-1.84958e-08
1.25805e-08
-9.44462e-09
-1.88256e-08
1.22671e-08
-1.332e-08
-1.94549e-08
1.17064e-08
-1.62623e-08
-2.02968e-08
1.09488e-08
-1.81087e-08
-2.12204e-08
1.00124e-08
-1.87673e-08
-2.21151e-08
8.95586e-09
-1.82999e-08
-2.28721e-08
7.91464e-09
-1.68457e-08
-2.3365e-08
6.93007e-09
-1.46084e-08
-2.34677e-08
6.03357e-09
-1.18431e-08
-2.3048e-08
5.24209e-09
-8.82903e-09
-2.19593e-08
4.54368e-09
-5.84981e-09
-2.00198e-08
3.89606e-09
-3.17717e-09
-1.69844e-08
3.21363e-09
-1.0879e-09
-1.24598e-08
2.34505e-09
-5.75032e-09
1.08934e-09
1.21749e-09
-8.18248e-09
1.22932e-09
3.53932e-09
-1.74426e-08
2.65196e-09
6.46851e-09
-2.35305e-08
3.63095e-09
9.69777e-09
-2.76427e-08
4.4099e-09
1.29354e-08
-3.0342e-08
5.1543e-09
1.58854e-08
-3.19523e-08
5.95889e-09
1.82614e-08
-3.27077e-08
6.86642e-09
1.98022e-08
-3.27948e-08
7.89036e-09
2.02962e-08
-3.23777e-08
9.01201e-09
1.95988e-08
-3.16107e-08
1.01935e-08
1.7639e-08
-3.06508e-08
1.13895e-08
1.4471e-08
-2.96523e-08
1.25173e-08
1.02901e-08
-2.87123e-08
1.34146e-08
5.38388e-09
-2.78957e-08
1.39926e-08
7.96235e-11
-2.74692e-08
1.43028e-08
-5.25469e-09
-2.74965e-08
1.4335e-08
-1.01605e-08
-2.79333e-08
1.40136e-08
-1.43274e-08
-2.86661e-08
1.33781e-08
-1.74991e-08
-2.96381e-08
1.25131e-08
-1.94774e-08
-3.06466e-08
1.14044e-08
-2.01976e-08
-3.16071e-08
1.02122e-08
-1.97245e-08
-3.23759e-08
9.03071e-09
-1.82026e-08
-3.27954e-08
7.90848e-09
-1.58439e-08
-3.27097e-08
6.88337e-09
-1.29089e-08
-3.19562e-08
5.97317e-09
-9.68546e-09
-3.03487e-08
5.16596e-09
-6.46786e-09
-2.76522e-08
4.41485e-09
-3.54501e-09
-2.35316e-08
3.6244e-09
-1.22377e-09
-1.74169e-08
2.63588e-09
-8.20184e-09
1.22775e-09
1.28556e-09
-1.07816e-08
1.31358e-09
3.75031e-09
-2.27485e-08
2.84108e-09
6.83997e-09
-3.05046e-08
3.88448e-09
1.02177e-08
-3.57427e-08
4.72236e-09
1.35831e-08
-3.92436e-08
5.5362e-09
1.6637e-08
-4.14278e-08
6.42164e-09
1.90919e-08
-4.25861e-08
7.42343e-09
2.0682e-08
-4.29425e-08
8.55769e-09
2.11921e-08
-4.26904e-08
9.80259e-09
2.04696e-08
-4.20048e-08
1.11166e-08
1.84419e-08
-4.10703e-08
1.24472e-08
1.51274e-08
-4.00667e-08
1.37289e-08
1.07616e-08
-3.91016e-08
1.47552e-08
5.6298e-09
-3.81514e-08
1.53875e-08
8.66977e-11
-3.76447e-08
1.57186e-08
-5.48169e-09
-3.76863e-08
1.57582e-08
-1.06302e-08
-3.82222e-08
1.54374e-08
-1.49801e-08
-3.90459e-08
1.47298e-08
-1.82982e-08
-4.00527e-08
1.37327e-08
-2.03457e-08
-4.10695e-08
1.24705e-08
-2.10908e-08
-4.20046e-08
1.11426e-08
-2.06026e-08
-4.26907e-08
9.82661e-09
-1.90316e-08
-4.29453e-08
8.57902e-09
-1.65941e-08
-4.25908e-08
7.4436e-09
-1.35543e-08
-4.14331e-08
6.43701e-09
-1.02024e-08
-3.92482e-08
5.54769e-09
-6.83728e-09
-3.57422e-08
4.7249e-09
-3.75976e-09
-3.04788e-08
3.86965e-09
-1.30117e-09
-2.26861e-08
2.81061e-09
-1.08131e-08
1.31004e-09
1.31105e-09
-1.34341e-08
1.34141e-09
3.81743e-09
-2.81682e-08
2.91337e-09
6.96007e-09
-3.76347e-08
3.98749e-09
1.03884e-08
-4.40215e-08
4.85044e-09
1.37922e-08
-4.83456e-08
5.69822e-09
1.68767e-08
-5.11503e-08
6.63788e-09
1.93593e-08
-5.27802e-08
7.7115e-09
2.09756e-08
-5.34935e-08
8.93466e-09
2.15059e-08
-5.35068e-08
1.02861e-08
2.07949e-08
-5.30143e-08
1.17205e-08
1.8757e-08
-5.22114e-08
1.3179e-08
1.53919e-08
-5.13022e-08
1.46007e-08
1.09437e-08
-5.04252e-08
1.57717e-08
5.71678e-09
-4.93651e-08
1.64405e-08
8.62061e-11
-4.88233e-08
1.68092e-08
-5.57758e-09
-4.88742e-08
1.68517e-08
-1.08415e-08
-4.94378e-08
1.64796e-08
-1.52547e-08
-5.03659e-08
1.57331e-08
-1.86148e-08
-5.12913e-08
1.45988e-08
-2.06711e-08
-5.22148e-08
1.32015e-08
-2.14055e-08
-5.3017e-08
1.17468e-08
-2.08966e-08
-5.35105e-08
1.03109e-08
-1.92987e-08
-5.35006e-08
8.95745e-09
-1.68326e-08
-5.279e-08
7.73315e-09
-1.37617e-08
-5.11596e-08
6.65558e-09
-1.03719e-08
-4.8348e-08
5.71005e-09
-6.96104e-09
-4.39977e-08
4.84458e-09
-3.83272e-09
-3.75638e-08
3.95672e-09
-1.32526e-09
-2.80665e-08
2.87302e-09
-1.34787e-08
1.34034e-09
1.2883e-09
-1.60394e-08
1.3171e-09
3.73497e-09
-3.34891e-08
2.87421e-09
6.8134e-09
-4.46715e-08
3.95839e-09
1.01824e-08
-5.2213e-08
4.82255e-09
1.35291e-08
-5.73548e-08
5.66248e-09
1.65582e-08
-6.07911e-08
6.6117e-09
1.90028e-08
-6.29463e-08
7.72158e-09
2.06086e-08
-6.40989e-08
8.99962e-09
2.11562e-08
-6.44768e-08
1.04225e-08
2.04869e-08
-6.42888e-08
1.19439e-08
1.85197e-08
-6.37341e-08
1.349e-08
1.52396e-08
-6.30099e-08
1.49878e-08
1.08174e-08
-6.22812e-08
1.62782e-08
5.64341e-09
-6.11883e-08
1.69972e-08
8.16244e-11
-6.06929e-08
1.74313e-08
-5.52037e-09
-6.07379e-08
1.74657e-08
-1.07457e-08
-6.12156e-08
1.70032e-08
-1.51271e-08
-6.21908e-08
1.62063e-08
-1.83844e-08
-6.29994e-08
1.49655e-08
-2.0366e-08
-6.37409e-08
1.35077e-08
-2.10566e-08
-6.42967e-08
1.19704e-08
-2.05299e-08
-6.44853e-08
1.04482e-08
-1.89426e-08
-6.41111e-08
9.02318e-09
-1.65138e-08
-6.29625e-08
7.74367e-09
-1.34997e-08
-6.08005e-08
6.62679e-09
-1.01765e-08
-5.73267e-08
5.65543e-09
-6.83131e-09
-5.21209e-08
4.77804e-09
-3.76121e-09
-4.45263e-08
3.89232e-09
-1.29707e-09
-3.33586e-08
2.82791e-09
-1.60935e-08
1.3178e-09
1.22219e-09
-1.84966e-08
1.235e-09
3.53157e-09
-3.8497e-08
2.69851e-09
6.40766e-09
-5.13018e-08
3.75414e-09
9.57767e-09
-5.9997e-08
4.61396e-09
1.27528e-08
-6.596e-08
5.42999e-09
1.5629e-08
-7.00042e-08
6.33691e-09
1.79558e-08
-7.27027e-08
7.42977e-09
1.94988e-08
-7.43532e-08
8.7113e-09
2.00521e-08
-7.51809e-08
1.01508e-08
1.94538e-08
-7.53919e-08
1.17015e-08
1.76265e-08
-7.51845e-08
1.32776e-08
1.45554e-08
-7.47362e-08
1.47973e-08
1.02993e-08
-7.41753e-08
1.61502e-08
5.36981e-09
-7.31899e-08
1.6931e-08
7.56264e-11
-7.27896e-08
1.7391e-08
-5.24948e-09
-7.28321e-08
1.74194e-08
-1.02128e-08
-7.31634e-08
1.69111e-08
-1.44456e-08
-7.39937e-08
1.60357e-08
-1.75003e-08
-7.47111e-08
1.47663e-08
-1.93371e-08
-7.51964e-08
1.32924e-08
-1.9956e-08
-7.54047e-08
1.1727e-08
-1.94239e-08
-7.51934e-08
1.01759e-08
-1.78972e-08
-7.43719e-08
8.73413e-09
-1.55833e-08
-7.27251e-08
7.4488e-09
-1.27302e-08
-6.99893e-08
6.3357e-09
-9.5903e-09
-6.58434e-08
5.37685e-09
-6.42923e-09
-5.98024e-08
4.5204e-09
-3.53467e-09
-5.109e-08
3.66917e-09
-1.21785e-09
-3.83358e-08
2.6604e-09
-1.85526e-08
1.24124e-09
1.10285e-09
-2.06956e-08
1.09606e-09
3.19393e-09
-4.29517e-08
2.36367e-09
5.77114e-09
-5.71887e-08
3.30972e-09
8.58706e-09
-6.69637e-08
4.15074e-09
1.14427e-08
-7.37544e-08
4.93886e-09
1.40464e-08
-7.83853e-08
5.77741e-09
1.61641e-08
-8.16172e-08
6.79677e-09
1.75853e-08
-8.37933e-08
8.01894e-09
1.81197e-08
-8.51156e-08
9.40022e-09
1.76197e-08
-8.57759e-08
1.08841e-08
1.60286e-08
-8.59497e-08
1.23564e-08
1.33052e-08
-8.57652e-08
1.37525e-08
9.38432e-09
-8.533e-08
1.50756e-08
4.88352e-09
-8.46834e-08
1.59943e-08
6.83486e-11
-8.44488e-08
1.64743e-08
-4.7657e-09
-8.44914e-08
1.64934e-08
-9.24274e-09
-8.46619e-08
1.59756e-08
-1.30919e-08
-8.52399e-08
1.50955e-08
-1.58535e-08
-8.58732e-08
1.39237e-08
-1.74998e-08
-8.59979e-08
1.24478e-08
-1.80259e-08
-8.57953e-08
1.09167e-08
-1.75144e-08
-8.51247e-08
9.41978e-09
-1.61068e-08
-8.38143e-08
8.0349e-09
-1.3997e-08
-8.16406e-08
6.80565e-09
-1.14179e-08
-7.83167e-08
5.74829e-09
-8.5867e-09
-7.35155e-08
4.84093e-09
-5.73452e-09
-6.66886e-08
4.03401e-09
-3.13719e-09
-5.69423e-08
3.255e-09
-1.07052e-09
-4.27571e-08
2.35463e-09
-2.07268e-08
1.10373e-09
9.29157e-10
-2.25292e-08
9.04513e-10
2.71062e-09
-4.66329e-08
1.89972e-09
4.88807e-09
-6.19799e-08
2.6137e-09
7.24953e-09
-7.2656e-08
3.33089e-09
9.60168e-09
-8.01954e-08
4.08879e-09
1.17862e-08
-8.54395e-08
4.86969e-09
1.35918e-08
-8.91916e-08
5.76865e-09
1.48331e-08
-9.18923e-08
6.85776e-09
1.53375e-08
-9.37133e-08
8.09335e-09
1.49703e-08
-9.47896e-08
9.38099e-09
1.36417e-08
-9.52637e-08
1.06426e-08
1.12686e-08
-9.53715e-08
1.19794e-08
7.95889e-09
-9.5261e-08
1.32407e-08
4.1541e-09
-9.4969e-08
1.40903e-08
5.67646e-11
-9.48736e-08
1.45221e-08
-4.06986e-09
-9.48488e-08
1.44841e-08
-7.88116e-09
-9.4818e-08
1.39675e-08
-1.11432e-08
-9.51259e-08
1.31481e-08
-1.3473e-08
-9.56408e-08
1.20975e-08
-1.48313e-08
-9.53585e-08
1.07189e-08
-1.52327e-08
-9.47738e-08
9.37995e-09
-1.47615e-08
-9.36761e-08
8.08012e-09
-1.3536e-08
-9.18946e-08
6.85472e-09
-1.1719e-08
-8.92144e-08
5.7569e-09
-9.53514e-09
-8.53268e-08
4.82624e-09
-7.16571e-09
-7.99371e-08
4.05221e-09
-4.81112e-09
-7.24411e-08
3.39791e-09
-2.64934e-09
-6.18671e-08
2.76304e-09
-9.13877e-10
-4.6495e-08
2.00243e-09
-2.25753e-08
9.34545e-10
7.12756e-10
-2.39238e-08
6.81757e-10
2.0531e-09
-4.94258e-08
1.45252e-09
3.73389e-09
-6.56222e-08
1.96159e-09
5.53403e-09
-7.68569e-08
2.40076e-09
7.2789e-09
-8.48852e-08
2.94495e-09
8.90294e-09
-9.06674e-08
3.60385e-09
1.02726e-08
-9.49082e-08
4.34695e-09
1.12632e-08
-9.8074e-08
5.19111e-09
1.17468e-08
-1.00334e-07
6.13712e-09
1.14882e-08
-1.01693e-07
7.1621e-09
1.03501e-08
-1.02427e-07
8.30143e-09
8.44269e-09
-1.02936e-07
9.47172e-09
6.04472e-09
-1.03321e-07
1.04583e-08
3.19241e-09
-1.03253e-07
1.11361e-08
4.94237e-11
-1.03192e-07
1.14613e-08
-3.14591e-09
-1.03039e-07
1.13854e-08
-6.0567e-09
-1.02874e-07
1.09672e-08
-8.50696e-09
-1.02939e-07
1.02629e-08
-1.03563e-08
-1.03058e-07
9.26696e-09
-1.13818e-08
-1.02379e-07
8.04586e-09
-1.16313e-08
-1.01516e-07
6.9919e-09
-1.12332e-08
-1.00091e-07
6.01676e-09
-1.02957e-08
-9.7953e-08
5.12092e-09
-8.93309e-09
-9.49436e-08
4.36662e-09
-7.27303e-09
-9.07032e-08
3.71635e-09
-5.46937e-09
-8.48657e-08
3.12495e-09
-3.67182e-09
-7.68404e-08
2.60177e-09
-2.02134e-09
-6.56165e-08
2.09888e-09
-6.9823e-10
-4.93348e-08
1.51673e-09
-2.39801e-08
7.06579e-10
4.81393e-10
-2.48196e-08
4.14506e-10
1.29827e-09
-5.11141e-08
8.71405e-10
2.34687e-09
-6.79313e-08
1.26046e-09
3.48497e-09
-7.95687e-08
1.57373e-09
4.60156e-09
-8.7936e-08
1.93422e-09
5.64655e-09
-9.40616e-08
2.34916e-09
6.52402e-09
-9.85757e-08
2.79001e-09
7.11969e-09
-1.01902e-07
3.23206e-09
7.44072e-09
-1.04369e-07
3.7135e-09
7.25289e-09
-1.05927e-07
4.42207e-09
6.50628e-09
-1.06974e-07
5.29366e-09
5.3512e-09
-1.07876e-07
6.09507e-09
3.84032e-09
-1.08532e-07
6.72169e-09
2.03518e-09
-1.08605e-07
7.15687e-09
5.97175e-11
-1.08615e-07
7.39833e-09
-1.94571e-09
-1.08411e-07
7.37716e-09
-3.78411e-09
-1.08168e-07
7.13181e-09
-5.30129e-09
-1.08106e-07
6.68423e-09
-6.48646e-09
-1.07947e-07
6.07379e-09
-7.2153e-09
-1.06918e-07
5.26835e-09
-7.48678e-09
-1.05663e-07
4.41798e-09
-7.27455e-09
-1.03929e-07
3.6256e-09
-6.63191e-09
-1.01613e-07
3.01755e-09
-5.68254e-09
-9.84942e-08
2.60126e-09
-4.58679e-09
-9.40704e-08
2.27143e-09
-3.4358e-09
-8.79665e-08
1.94983e-09
-2.30016e-09
-7.96068e-08
1.63074e-09
-1.26247e-09
-6.79688e-08
1.31466e-09
-4.36499e-10
-5.11087e-08
9.47915e-10
-2.48578e-08
4.41259e-10
1.75754e-10
-2.51361e-08
1.40695e-10
4.50847e-10
-5.16904e-08
3.01255e-10
8.19633e-10
-6.87499e-08
4.49825e-10
1.22467e-09
-8.05356e-08
5.61831e-10
1.63372e-09
-8.9019e-08
6.73954e-10
2.04819e-09
-9.52434e-08
7.67399e-10
2.43365e-09
-9.981e-08
8.4887e-10
2.66371e-09
-1.03113e-07
9.81119e-10
2.69596e-09
-1.05589e-07
1.18821e-09
2.55058e-09
-1.07265e-07
1.48353e-09
2.31949e-09
-1.08536e-07
1.79296e-09
1.98065e-09
-1.09592e-07
2.05471e-09
1.34315e-09
-1.10127e-07
2.23214e-09
6.66887e-10
-1.10287e-07
2.35801e-09
3.45298e-11
-1.10467e-07
2.48438e-09
-6.69244e-10
-1.10298e-07
2.59162e-09
-1.32767e-09
-1.10096e-07
2.58647e-09
-1.84808e-09
-1.10002e-07
2.41661e-09
-2.25797e-09
-1.09728e-07
2.19143e-09
-2.51145e-09
-1.0858e-07
1.91535e-09
-2.61448e-09
-1.07183e-07
1.62368e-09
-2.5501e-09
-1.05335e-07
1.34198e-09
-2.32642e-09
-1.02949e-07
1.11207e-09
-1.99076e-09
-9.97671e-08
9.37283e-10
-1.60065e-09
-9.52525e-08
7.92041e-10
-1.19262e-09
-8.90361e-08
6.61546e-10
-7.91789e-10
-8.05547e-08
5.47151e-10
-4.29612e-10
-6.87713e-08
4.4028e-10
-1.47685e-10
-5.1705e-08
3.14313e-10
-2.51569e-08
1.5137e-10
-1.24215e-10
-2.48752e-08
-1.36635e-10
-3.86102e-10
-5.11528e-08
-2.75728e-10
-7.0827e-10
-6.80518e-08
-3.75986e-10
-1.06082e-09
-7.97148e-08
-4.6833e-10
-1.42441e-09
-8.81012e-08
-5.54217e-10
-1.7898e-09
-9.42625e-08
-6.15497e-10
-2.13084e-09
-9.88073e-08
-6.61598e-10
-2.34746e-09
-1.02144e-07
-7.52125e-10
-2.35219e-09
-1.04622e-07
-9.62121e-10
-2.19433e-09
-1.06147e-07
-1.27636e-09
-1.98954e-09
-1.07165e-07
-1.57523e-09
-1.81201e-09
-1.07994e-07
-1.77553e-09
-1.53087e-09
-1.08503e-07
-1.90552e-09
-9.44893e-10
-1.08831e-07
-2.04132e-09
-9.08597e-11
-1.09073e-07
-2.24793e-09
6.1083e-10
-1.08672e-07
-2.32786e-09
1.21497e-09
-1.08466e-07
-2.23406e-09
1.75801e-09
-1.08458e-07
-2.0866e-09
2.05733e-09
-1.08131e-07
-1.89685e-09
2.24953e-09
-1.07098e-07
-1.67388e-09
2.34503e-09
-1.05854e-07
-1.42502e-09
2.29318e-09
-1.04113e-07
-1.16983e-09
2.11365e-09
-1.018e-07
-9.69772e-10
1.81228e-09
-9.86403e-08
-8.25446e-10
1.46295e-09
-9.41884e-08
-7.14762e-10
1.10056e-09
-8.80638e-08
-6.09881e-10
7.38646e-10
-7.96875e-08
-5.05339e-10
4.10617e-10
-6.80428e-08
-4.00441e-10
1.47956e-10
-5.11642e-08
-2.78134e-10
-2.48795e-08
-1.29499e-10
-4.21064e-10
-2.40291e-08
-4.25102e-10
-1.22354e-09
-4.94408e-08
-9.09596e-10
-2.22529e-09
-6.57869e-08
-1.26317e-09
-3.32235e-09
-7.70491e-08
-1.5687e-09
-4.42461e-09
-8.51114e-08
-1.88755e-09
-5.4463e-09
-9.09968e-08
-2.24387e-09
-6.2951e-09
-9.53154e-08
-2.64298e-09
-6.89606e-09
-9.84501e-08
-3.09277e-09
-7.17395e-09
-1.00746e-07
-3.59778e-09
-6.95952e-09
-1.0211e-07
-4.25166e-09
-6.24474e-09
-1.0281e-07
-5.06977e-09
-5.21512e-09
-1.03217e-07
-5.80665e-09
-3.81444e-09
-1.0353e-07
-6.37304e-09
-2.05297e-09
-1.03775e-07
-6.81778e-09
-3.74461e-11
-1.03982e-07
-7.10629e-09
1.90955e-09
-1.0354e-07
-7.07953e-09
3.74027e-09
-1.03462e-07
-6.83504e-09
5.34221e-09
-1.03666e-07
-6.39365e-09
6.30354e-09
-1.03308e-07
-5.78452e-09
6.92842e-09
-1.02633e-07
-5.09043e-09
7.20528e-09
-1.01838e-07
-4.29228e-09
6.99838e-09
-1.00447e-07
-3.45923e-09
6.39986e-09
-9.82904e-08
-2.91072e-09
5.48428e-09
-9.51792e-08
-2.5456e-09
4.43272e-09
-9.09194e-08
-2.2175e-09
3.34378e-09
-8.50854e-08
-1.88939e-09
2.25097e-09
-7.70384e-08
-1.55628e-09
1.25828e-09
-6.58196e-08
-1.23049e-09
4.57077e-10
-4.95071e-08
-8.55823e-10
-2.40143e-08
-4.08048e-10
-6.88822e-10
-2.26497e-08
-6.90579e-10
-1.986e-09
-4.66601e-08
-1.48352e-09
-3.60615e-09
-6.21071e-08
-2.05974e-09
-5.37201e-09
-7.27259e-08
-2.55729e-09
-7.13758e-09
-8.02692e-08
-3.07658e-09
-8.74989e-09
-8.57065e-08
-3.67789e-09
-1.00643e-08
-8.96301e-08
-4.3708e-09
-1.09948e-08
-9.23464e-08
-5.17307e-09
-1.14598e-08
-9.42037e-08
-6.07757e-09
-1.12305e-08
-9.53178e-08
-7.02108e-09
-1.01427e-08
-9.5792e-08
-8.10609e-09
-8.33707e-09
-9.57935e-08
-9.22884e-09
-5.9745e-09
-9.57141e-08
-1.01788e-08
-3.15851e-09
-9.57201e-08
-1.08708e-08
-4.13907e-11
-9.58558e-08
-1.12438e-08
3.06006e-09
-9.54823e-08
-1.11592e-08
5.94884e-09
-9.55474e-08
-1.08032e-08
8.45036e-09
-9.60371e-08
-1.01308e-08
1.01517e-08
-9.58532e-08
-9.15555e-09
1.11802e-08
-9.55806e-08
-8.08068e-09
1.14917e-08
-9.51507e-08
-6.9991e-09
1.10979e-08
-9.41391e-08
-5.91437e-09
1.01245e-08
-9.23388e-08
-4.97816e-09
8.74418e-09
-8.95997e-08
-4.19925e-09
7.10962e-09
-8.57523e-08
-3.53252e-09
5.37769e-09
-8.04151e-08
-2.93844e-09
3.64692e-09
-7.28894e-08
-2.41819e-09
2.04795e-09
-6.22984e-08
-1.9222e-09
7.31574e-10
-4.68391e-08
-1.35162e-09
-2.26306e-08
-6.52153e-10
-9.19392e-10
-2.08171e-08
-9.13123e-10
-2.62653e-09
-4.29876e-08
-1.96539e-09
-4.76278e-09
-5.72284e-08
-2.74246e-09
-7.09462e-09
-6.70078e-08
-3.38629e-09
-9.43682e-09
-7.3884e-08
-4.04305e-09
-1.16064e-08
-7.87274e-08
-4.80942e-09
-1.34122e-08
-8.20932e-08
-5.73094e-09
-1.46319e-08
-8.43108e-08
-6.81581e-09
-1.51292e-08
-8.56788e-08
-8.02738e-09
-1.47741e-08
-8.6391e-08
-9.28195e-09
-1.34435e-08
-8.65937e-08
-1.05289e-08
-1.10638e-08
-8.6369e-08
-1.18043e-08
-7.85854e-09
-8.59091e-08
-1.30104e-08
-4.11762e-09
-8.55678e-08
-1.38933e-08
-3.36533e-11
-8.55785e-08
-1.43613e-08
4.04085e-09
-8.53135e-08
-1.42433e-08
7.81908e-09
-8.55248e-08
-1.38008e-08
1.10746e-08
-8.62726e-08
-1.302e-08
1.34127e-08
-8.64514e-08
-1.17399e-08
1.47588e-08
-8.65492e-08
-1.03774e-08
1.51499e-08
-8.63725e-08
-9.16935e-09
1.46767e-08
-8.56987e-08
-7.96715e-09
1.34563e-08
-8.43458e-08
-6.77267e-09
1.16714e-08
-8.21213e-08
-5.6934e-09
9.50778e-09
-7.88022e-08
-4.78656e-09
7.18072e-09
-7.40894e-08
-3.99861e-09
4.87576e-09
-6.73599e-08
-3.22453e-09
2.72648e-09
-5.76545e-08
-2.4947e-09
9.63297e-10
-4.33151e-08
-1.76088e-09
-2.08045e-08
-8.62767e-10
-1.09845e-09
-1.86312e-08
-1.0875e-09
-3.12894e-09
-3.86283e-08
-2.32879e-09
-5.69745e-09
-5.14047e-08
-3.25524e-09
-8.53164e-09
-6.01404e-08
-4.03323e-09
-1.13597e-08
-6.62304e-08
-4.82555e-09
-1.39394e-08
-7.04267e-08
-5.721e-09
-1.60501e-08
-7.32097e-08
-6.77277e-09
-1.74614e-08
-7.49073e-08
-7.99217e-09
-1.79883e-08
-7.57831e-08
-9.36872e-09
-1.74908e-08
-7.60449e-08
-1.08436e-08
-1.58993e-08
-7.58754e-08
-1.23097e-08
-1.31672e-08
-7.54373e-08
-1.3664e-08
-9.33708e-09
-7.48273e-08
-1.4912e-08
-4.84719e-09
-7.41492e-08
-1.59086e-08
-2.45916e-11
-7.3923e-08
-1.64781e-08
4.78106e-09
-7.37337e-08
-1.63854e-08
9.25764e-09
-7.41051e-08
-1.58962e-08
1.30837e-08
-7.50418e-08
-1.50569e-08
1.58517e-08
-7.54914e-08
-1.37279e-08
1.74824e-08
-7.58907e-08
-1.22892e-08
1.79974e-08
-7.60626e-08
-1.08248e-08
1.74793e-08
-7.58127e-08
-9.36786e-09
1.60736e-08
-7.49451e-08
-7.99512e-09
1.3975e-08
-7.32505e-08
-6.7722e-09
1.139e-08
-7.04803e-08
-5.73688e-09
8.54334e-09
-6.63474e-08
-4.89527e-09
5.71367e-09
-6.03844e-08
-4.14586e-09
3.16039e-09
-5.17409e-08
-3.36026e-09
1.10672e-09
-3.8879e-08
-2.3824e-09
-1.86126e-08
-1.08518e-09
-1.21944e-09
-1.61747e-08
-1.23704e-09
-3.52768e-09
-3.3652e-08
-2.66812e-09
-6.41814e-09
-4.48407e-08
-3.67347e-09
-9.5765e-09
-5.24665e-08
-4.51553e-09
-1.27202e-08
-5.77228e-08
-5.3639e-09
-1.5582e-08
-6.12451e-08
-6.31969e-09
-1.79037e-08
-6.3456e-08
-7.43201e-09
-1.94419e-08
-6.46543e-08
-8.71473e-09
-1.99886e-08
-6.50784e-08
-1.01579e-08
-1.93893e-08
-6.49344e-08
-1.17096e-08
-1.75622e-08
-6.44204e-08
-1.3282e-08
-1.45106e-08
-6.37327e-08
-1.47562e-08
-1.03051e-08
-6.30064e-08
-1.60265e-08
-5.312e-09
-6.21973e-08
-1.69451e-08
-1.62965e-11
-6.17234e-08
-1.74954e-08
5.29066e-09
-6.16029e-08
-1.74379e-08
1.02684e-08
-6.21134e-08
-1.69695e-08
1.44532e-08
-6.30718e-08
-1.61547e-08
1.75257e-08
-6.37534e-08
-1.48105e-08
1.93715e-08
-6.44391e-08
-1.32974e-08
1.99858e-08
-6.49557e-08
-1.17211e-08
1.94487e-08
-6.51058e-08
-1.01698e-08
1.79178e-08
-6.46882e-08
-8.72608e-09
1.56032e-08
-6.34963e-08
-7.43955e-09
1.27436e-08
-6.12915e-08
-6.32921e-09
9.58092e-09
-5.77854e-08
-5.39933e-09
6.39014e-09
-5.25842e-08
-4.60941e-09
3.49345e-09
-4.50328e-08
-3.81145e-09
1.21158e-09
-3.38386e-08
-2.75858e-09
-1.61598e-08
-1.24128e-09
-1.27482e-09
-1.357e-08
-1.32993e-09
-3.75579e-09
-2.83032e-08
-2.86785e-09
-6.84302e-09
-3.78489e-08
-3.90463e-09
-1.01976e-08
-4.43316e-08
-4.78041e-09
-1.35333e-08
-4.87297e-08
-5.65737e-09
-1.65614e-08
-5.15861e-08
-6.63087e-09
-1.90068e-08
-5.32595e-08
-7.75116e-09
-2.06123e-08
-5.40136e-08
-9.03513e-09
-2.11574e-08
-5.40663e-08
-1.0467e-08
-2.04821e-08
-5.36141e-08
-1.19955e-08
-1.85071e-08
-5.28469e-08
-1.35483e-08
-1.52367e-08
-5.1965e-08
-1.50381e-08
-1.08355e-08
-5.10854e-08
-1.63223e-08
-5.57782e-09
-5.0264e-08
-1.7191e-08
-8.55166e-12
-4.96866e-08
-1.76062e-08
5.57805e-09
-4.96371e-08
-1.75524e-08
1.08135e-08
-5.02118e-08
-1.71371e-08
1.51976e-08
-5.11235e-08
-1.63322e-08
1.84718e-08
-5.19809e-08
-1.50466e-08
2.04593e-08
-5.28622e-08
-1.35643e-08
2.11473e-08
-5.36317e-08
-1.2012e-08
2.06132e-08
-5.409e-08
-1.04817e-08
1.90167e-08
-5.4043e-08
-9.0487e-09
1.65758e-08
-5.32942e-08
-7.76126e-09
1.35504e-08
-5.16263e-08
-6.63979e-09
1.02117e-08
-4.87765e-08
-5.67019e-09
6.83743e-09
-4.43952e-08
-4.8147e-09
3.7415e-09
-3.79652e-08
-3.97161e-09
1.28563e-09
-2.84711e-08
-2.91158e-09
-1.35505e-08
-1.32362e-09
-1.31508e-09
-1.09024e-08
-1.35261e-09
-3.84304e-09
-2.28777e-08
-2.89756e-09
-6.99047e-09
-3.07326e-08
-3.96888e-09
-1.042e-08
-3.60454e-08
-4.8566e-09
-1.38309e-08
-3.95938e-08
-5.72498e-09
-1.69238e-08
-4.18177e-08
-6.67548e-09
-1.94127e-08
-4.3011e-08
-7.75972e-09
-2.10327e-08
-4.34009e-08
-8.99268e-09
-2.15608e-08
-4.3182e-08
-1.03561e-08
-2.08411e-08
-4.25294e-08
-1.18044e-08
-1.87868e-08
-4.16258e-08
-1.32754e-08
-1.54241e-08
-4.06365e-08
-1.46911e-08
-1.10021e-08
-3.96541e-08
-1.58532e-08
-5.73922e-09
-3.88807e-08
-1.66463e-08
-4.52729e-11
-3.83786e-08
-1.7002e-08
5.62183e-09
-3.8325e-08
-1.69793e-08
1.08635e-08
-3.88175e-08
-1.66359e-08
1.53543e-08
-3.97045e-08
-1.59097e-08
1.87511e-08
-4.0653e-08
-1.47247e-08
2.08153e-08
-4.16328e-08
-1.32937e-08
2.15473e-08
-4.25418e-08
-1.1822e-08
2.10287e-08
-4.31995e-08
-1.03718e-08
1.94167e-08
-4.34247e-08
-9.0063e-09
1.6933e-08
-4.30386e-08
-7.77193e-09
1.38427e-08
-4.18491e-08
-6.68692e-09
1.04319e-08
-3.963e-08
-5.73576e-09
6.9968e-09
-3.60876e-08
-4.8725e-09
3.83441e-09
-3.07939e-08
-4.00896e-09
1.30244e-09
-2.29815e-08
-2.95765e-09
-1.08921e-08
-1.35596e-09
-1.3035e-09
-8.27648e-09
-1.32241e-09
-3.77893e-09
-1.7573e-08
-2.82921e-09
-6.87881e-09
-2.37451e-08
-3.88758e-09
-1.02699e-08
-2.79081e-08
-4.74617e-09
-1.36498e-08
-3.06399e-08
-5.574e-09
-1.67185e-08
-3.22785e-08
-6.47054e-09
-1.91836e-08
-3.30609e-08
-7.48497e-09
-2.07806e-08
-3.31735e-08
-8.63041e-09
-2.12906e-08
-3.27798e-08
-9.89215e-09
-2.05563e-08
-3.20373e-08
-1.12263e-08
-1.85043e-08
-3.11001e-08
-1.25776e-08
-1.51975e-08
-3.00998e-08
-1.38435e-08
-1.08467e-08
-2.91526e-08
-1.48522e-08
-5.686e-09
-2.84474e-08
-1.55941e-08
-5.1224e-11
-2.80555e-08
-1.59579e-08
5.54956e-09
-2.79966e-08
-1.59292e-08
1.07165e-08
-2.83986e-08
-1.55859e-08
1.51251e-08
-2.91963e-08
-1.49168e-08
1.84685e-08
-3.01185e-08
-1.38778e-08
2.05285e-08
-3.11031e-08
-1.25897e-08
2.12715e-08
-3.20441e-08
-1.12407e-08
2.07735e-08
-3.27932e-08
-9.90833e-09
1.91841e-08
-3.31899e-08
-8.64546e-09
1.67238e-08
-3.30812e-08
-7.49701e-09
1.36587e-08
-3.23026e-08
-6.4814e-09
1.02807e-08
-3.06674e-08
-5.58459e-09
6.88685e-09
-2.79369e-08
-4.7568e-09
3.77897e-09
-2.37814e-08
-3.90455e-09
1.28874e-09
-1.76275e-08
-2.86375e-09
-8.27858e-09
-1.32482e-09
-1.23075e-09
-5.80771e-09
-1.23804e-09
-3.57053e-09
-1.2581e-08
-2.65229e-09
-6.51881e-09
-1.71518e-08
-3.64507e-09
-9.76614e-09
-2.02203e-08
-4.4405e-09
-1.30214e-08
-2.21862e-08
-5.1984e-09
-1.59894e-08
-2.32978e-08
-6.01275e-09
-1.83783e-08
-2.37383e-08
-6.93354e-09
-1.99284e-08
-2.36539e-08
-7.96957e-09
-2.04231e-08
-2.31784e-08
-9.10668e-09
-1.97115e-08
-2.2438e-08
-1.03109e-08
-1.77227e-08
-2.15532e-08
-1.15355e-08
-1.45588e-08
-2.06324e-08
-1.26312e-08
-1.0382e-08
-1.98095e-08
-1.35199e-08
-5.4363e-09
-1.92024e-08
-1.41907e-08
-4.45379e-11
-1.88904e-08
-1.4557e-08
5.31765e-09
-1.88426e-08
-1.45162e-08
1.02723e-08
-1.91712e-08
-1.4182e-08
1.44926e-08
-1.9836e-08
-1.35807e-08
1.7688e-08
-2.06476e-08
-1.26663e-08
1.96825e-08
-2.15586e-08
-1.15389e-08
2.04031e-08
-2.24419e-08
-1.03227e-08
1.99184e-08
-2.31862e-08
-9.12238e-09
1.83772e-08
-2.36647e-08
-7.98394e-09
1.59932e-08
-2.37517e-08
-6.94552e-09
1.30287e-08
-2.33146e-08
-6.02351e-09
9.77258e-09
-2.22041e-08
-5.20718e-09
6.52444e-09
-2.02397e-08
-4.44905e-09
3.57455e-09
-1.71768e-08
-3.65478e-09
1.22797e-09
-1.26136e-08
-2.66735e-09
-5.81136e-09
-1.23926e-09
-1.09689e-09
-3.61234e-09
-1.09851e-09
-3.20546e-09
-8.11146e-09
-2.36097e-09
-5.90558e-09
-1.12174e-08
-3.23423e-09
-8.91493e-09
-1.32883e-08
-3.92265e-09
-1.19622e-08
-1.45618e-08
-4.57711e-09
-1.47631e-08
-1.52146e-08
-5.2822e-09
-1.70315e-08
-1.53845e-08
-6.08537e-09
-1.85137e-08
-1.5179e-08
-6.99276e-09
-1.90019e-08
-1.46976e-08
-7.99262e-09
-1.83509e-08
-1.40339e-08
-9.05507e-09
-1.65039e-08
-1.32745e-08
-1.01256e-08
-1.35602e-08
-1.25172e-08
-1.10588e-08
-9.66319e-09
-1.18552e-08
-1.18512e-08
-5.05166e-09
-1.1368e-08
-1.2446e-08
-3.77705e-11
-1.11182e-08
-1.27862e-08
4.95183e-09
-1.10901e-08
-1.27422e-08
9.56389e-09
-1.13499e-08
-1.24334e-08
1.3487e-08
-1.18635e-08
-1.18956e-08
1.64609e-08
-1.25231e-08
-1.10983e-08
1.83218e-08
-1.32784e-08
-1.01411e-08
1.89816e-08
-1.40362e-08
-9.06542e-09
1.85032e-08
-1.47016e-08
-8.00618e-09
1.70288e-08
-1.51849e-08
-7.00543e-09
1.47647e-08
-1.53924e-08
-6.09523e-09
1.19663e-08
-1.52241e-08
-5.29212e-09
8.91927e-09
-1.45727e-08
-4.5844e-09
5.91121e-09
-1.33027e-08
-3.92895e-09
3.21325e-09
-1.12404e-08
-3.2384e-09
1.09944e-09
-8.13602e-09
-2.36379e-09
-3.61484e-09
-1.09708e-09
-8.96665e-10
-1.82027e-09
-8.95434e-10
-2.67896e-09
-4.40252e-09
-1.92668e-09