/*--------------------------------*- C++ -*----------------------------------*\
| =========                 |                                                 |
| \\      /  F ield         | OpenFOAM: The Open Source CFD Toolbox           |
|  \\    /   O peration     | Version:  v1906                                 |
|   \\  /    A nd           | Web:      www.OpenFOAM.com                      |
|    \\/     M anipulation  |                                                 |
\*---------------------------------------------------------------------------*/
FoamFile
{
    version     2.0;
    format      ascii;
    class       surfaceScalarField;
    location    "73";
    object      phi;
}
// * * * * * * * * * * * * * * * * * * * * * * * * * * * * * * * * * * * * * //

dimensions      [1 0 -1 0 0 0 0];
oriented        oriented;


internalField   nonuniform List<scalar> 
228225
(
-1.58131e-09
5.72041e-10
7.3564e-10
-4.52977e-09
5.06039e-09
-2.10821e-09
-9.90799e-09
8.10394e-09
-2.7286e-09
-1.78186e-08
1.07995e-08
-2.88886e-09
-2.7963e-08
1.31705e-08
-3.02468e-09
-3.98818e-08
1.51655e-08
-3.24483e-09
-5.31095e-08
1.67841e-08
-3.55775e-09
-6.71621e-08
1.80137e-08
-3.96218e-09
-8.16081e-08
1.88829e-08
-4.43495e-09
-9.60375e-08
1.93975e-08
-4.96815e-09
-1.10096e-07
1.95975e-08
-5.54034e-09
-1.23442e-07
1.94969e-08
-6.14733e-09
-1.35806e-07
1.91343e-08
-6.77183e-09
-1.46924e-07
1.85252e-08
-7.40872e-09
-1.56588e-07
1.77126e-08
-8.04533e-09
-1.6462e-07
1.67124e-08
-8.68153e-09
-1.70879e-07
1.55599e-08
-9.30168e-09
-1.75243e-07
1.42703e-08
-9.90457e-09
-1.77641e-07
1.28758e-08
-1.04786e-08
-1.78011e-07
1.13837e-08
-1.10151e-08
-1.76327e-07
9.82535e-09
-1.15068e-08
-1.72592e-07
8.21357e-09
-1.19509e-08
-1.6683e-07
6.57544e-09
-1.23353e-08
-1.59098e-07
4.92239e-09
-1.26575e-08
-1.49467e-07
3.27984e-09
-1.29084e-08
-1.38042e-07
1.66123e-09
-1.30873e-08
-1.24958e-07
1.05044e-10
-1.31885e-08
-1.1034e-07
-1.40498e-09
-1.3214e-08
-9.43787e-08
-2.79963e-09
-1.31606e-08
-7.72891e-08
-4.05677e-09
-1.30285e-08
-5.93734e-08
-5.12402e-09
-1.2799e-08
-4.1025e-08
-5.93269e-09
-1.241e-08
-2.3047e-08
-6.34664e-09
-1.16353e-08
-7.16754e-09
-6.15246e-09
-9.72314e-09
-4.1246e-09
-3.04439e-09
-4.3496e-09
1.80389e-08
-1.31181e-08
-1.70684e-08
3.24812e-08
-1.47001e-08
-3.27735e-08
3.92942e-08
-1.54866e-08
-5.00346e-08
4.43631e-08
-1.63021e-08
-6.78061e-08
4.79608e-08
-1.70192e-08
-8.53636e-08
5.03581e-08
-1.7635e-08
-1.02152e-07
5.17646e-08
-1.81923e-08
-1.1779e-07
5.23577e-08
-1.87059e-08
-1.3199e-07
5.22727e-08
-1.91894e-08
-1.44574e-07
5.16235e-08
-1.96418e-08
-1.55408e-07
5.04998e-08
-2.00706e-08
-1.6442e-07
4.89821e-08
-2.04714e-08
-1.71569e-07
4.71313e-08
-2.08493e-08
-1.76854e-07
4.50085e-08
-2.11988e-08
-1.80281e-07
4.26645e-08
-2.15235e-08
-1.81898e-07
4.01464e-08
-2.18175e-08
-1.81749e-07
3.74942e-08
-2.20838e-08
-1.7991e-07
3.47485e-08
-2.23168e-08
-1.76456e-07
3.19402e-08
-2.25189e-08
-1.71488e-07
2.91027e-08
-2.26859e-08
-1.65109e-07
2.62638e-08
-2.28191e-08
-1.57434e-07
2.34522e-08
-2.29134e-08
-1.48581e-07
2.06917e-08
-2.29697e-08
-1.3868e-07
1.80046e-08
-2.29829e-08
-1.27856e-07
1.54103e-08
-2.29542e-08
-1.16246e-07
1.29267e-08
-2.28759e-08
-1.03967e-07
1.05697e-08
-2.27437e-08
-9.11798e-08
8.35349e-09
-2.25462e-08
-7.80003e-08
6.29158e-09
-2.2271e-08
-6.45586e-08
4.39738e-09
-2.18944e-08
-5.09784e-08
2.68635e-09
-2.13912e-08
-3.73797e-08
1.18449e-09
-2.07163e-08
-2.39214e-08
-6.69837e-11
-1.97369e-08
-1.10958e-08
-8.96619e-10
-1.80828e-08
-8.47889e-10
-1.43722e-08
-2.32382e-09
2.98492e-08
-9.48791e-09
-8.37056e-09
4.98506e-08
-1.13208e-08
-1.56262e-08
5.86624e-08
-1.21135e-08
-2.34171e-08
6.48853e-08
-1.27314e-08
-3.1297e-08
6.90817e-08
-1.32409e-08
-3.89503e-08
7.17076e-08
-1.3696e-08
-4.616e-08
7.30901e-08
-1.41155e-08
-5.27697e-08
7.34887e-08
-1.45219e-08
-5.86764e-08
7.30961e-08
-1.49169e-08
-6.38086e-08
7.20665e-08
-1.53106e-08
-6.81302e-08
7.05189e-08
-1.56972e-08
-7.162e-08
6.85522e-08
-1.60817e-08
-7.42793e-08
6.62457e-08
-1.64559e-08
-7.61132e-08
6.36682e-08
-1.68226e-08
-7.71554e-08
6.08773e-08
-1.7173e-08
-7.74231e-08
5.79244e-08
-1.75092e-08
-7.69608e-08
5.48534e-08
-1.78231e-08
-7.58002e-08
5.17049e-08
-1.81163e-08
-7.39947e-08
4.85174e-08
-1.83823e-08
-7.16033e-08
4.53329e-08
-1.86214e-08
-6.86925e-08
4.21788e-08
-1.88275e-08
-6.5317e-08
3.90802e-08
-1.90016e-08
-6.15466e-08
3.60575e-08
-1.91379e-08
-5.74347e-08
3.313e-08
-1.92372e-08
-5.30411e-08
3.03107e-08
-1.92939e-08
-4.84142e-08
2.76069e-08
-1.93072e-08
-4.35988e-08
2.50246e-08
-1.92699e-08
-3.86347e-08
2.25658e-08
-1.91769e-08
-3.35546e-08
2.02252e-08
-1.9015e-08
-2.83757e-08
1.79903e-08
-1.877e-08
-2.31121e-08
1.58373e-08
-1.84152e-08
-1.77524e-08
1.37322e-08
-1.79073e-08
-1.22914e-08
1.16189e-08
-1.71473e-08
-6.68527e-09
9.41576e-09
-1.59185e-08
5.50949e-09
-1.30424e-08
-1.84848e-09
3.4535e-08
-2.83801e-09
-3.76779e-09
5.62288e-08
-4.45896e-09
-5.63843e-09
6.58881e-08
-5.35447e-09
-7.5686e-09
7.27724e-08
-5.95813e-09
-9.56892e-09
7.75162e-08
-6.43379e-09
-1.15855e-08
8.05957e-08
-6.87066e-09
-1.35548e-08
8.23681e-08
-7.3093e-09
-1.54207e-08
8.31067e-08
-7.75278e-09
-1.71348e-08
8.3024e-08
-8.2135e-09
-1.86647e-08
8.22826e-08
-8.68651e-09
-1.99811e-08
8.10139e-08
-9.1779e-09
-2.10727e-08
7.93208e-08
-9.67822e-09
-2.19269e-08
7.72902e-08
-1.01899e-08
-2.25477e-08
7.49907e-08
-1.07019e-08
-2.29388e-08
7.24838e-08
-1.12151e-08
-2.31149e-08
6.98183e-08
-1.17188e-08
-2.3088e-08
6.70397e-08
-1.2213e-08
-2.28783e-08
6.41835e-08
-1.26883e-08
-2.25104e-08
6.12921e-08
-1.31426e-08
-2.20125e-08
5.84e-08
-1.35661e-08
-2.14063e-08
5.55331e-08
-1.39589e-08
-2.07244e-08
5.27102e-08
-1.43135e-08
-1.99833e-08
4.9947e-08
-1.46301e-08
-1.92063e-08
4.72552e-08
-1.49014e-08
-1.84088e-08
4.46389e-08
-1.51275e-08
-1.75929e-08
4.20941e-08
-1.53025e-08
-1.67533e-08
3.96112e-08
-1.54252e-08
-1.5873e-08
3.71724e-08
-1.54877e-08
-1.49073e-08
3.47447e-08
-1.5485e-08
-1.37916e-08
3.22791e-08
-1.54043e-08
-1.24248e-08
2.97017e-08
-1.52312e-08
-1.06586e-08
2.6912e-08
-1.49468e-08
-8.25124e-09
2.3756e-08
-1.45444e-08
-4.95191e-09
2.00542e-08
-1.39355e-08
1.26396e-08
-1.20841e-08
-2.7531e-09
3.57954e-08
1.49122e-09
-3.32635e-09
5.65373e-08
2.66327e-10
-2.82567e-09
6.5933e-08
-5.45397e-10
-1.77177e-09
7.27941e-08
-1.07674e-09
-4.52316e-10
7.76784e-08
-1.48121e-09
9.91431e-10
8.1025e-08
-1.8734e-09
2.47393e-09
8.31637e-08
-2.27755e-09
3.93567e-09
8.43511e-08
-2.70644e-09
5.33368e-09
8.47805e-08
-3.1556e-09
6.64297e-09
8.46072e-08
-3.63258e-09
7.83686e-09
8.39486e-08
-4.12965e-09
8.9019e-09
8.29042e-08
-4.64826e-09
9.82055e-09
8.15493e-08
-5.17796e-09
1.05822e-08
7.99492e-08
-5.71971e-09
1.11711e-08
7.81556e-08
-6.26244e-09
1.15811e-08
7.62151e-08
-6.80581e-09
1.17956e-08
7.41642e-08
-7.33922e-09
1.18039e-08
7.2037e-08
-7.86187e-09
1.15979e-08
6.98612e-08
-8.36386e-09
1.1182e-08
6.76628e-08
-8.84413e-09
1.05474e-08
6.54593e-08
-9.29418e-09
9.70579e-09
6.32659e-08
-9.71342e-09
8.65649e-09
6.1091e-08
-1.00946e-08
7.41068e-09
5.89376e-08
-1.04373e-08
5.98398e-09
5.68004e-08
-1.07354e-08
4.40195e-09
5.46653e-08
-1.09887e-08
2.69715e-09
5.25065e-08
-1.11918e-08
9.31971e-10
5.02837e-08
-1.13441e-08
-8.22171e-10
4.79369e-08
-1.14396e-08
-2.44841e-09
4.53808e-08
-1.14742e-08
-3.8058e-09
4.24945e-08
-1.14361e-08
-4.68003e-09
3.9114e-08
-1.13286e-08
-4.73489e-09
3.50038e-08
-1.11918e-08
-3.53355e-09
2.98635e-08
-1.10103e-08
1.90281e-08
-9.92286e-09
-2.38348e-09
3.49211e-08
3.25834e-09
-2.44603e-09
5.42801e-08
2.31804e-09
-1.28898e-09
6.31622e-08
1.61475e-09
5.54109e-10
6.97758e-08
1.17451e-09
2.75992e-09
7.46377e-08
8.35676e-10
5.14523e-09
7.81349e-08
5.05223e-10
7.58619e-09
8.05709e-08
1.50508e-10
9.99171e-09
8.21693e-08
-2.24278e-10
1.22863e-08
8.31078e-08
-6.20341e-10
1.44128e-08
8.35186e-08
-1.03926e-09
1.63326e-08
8.35103e-08
-1.48176e-09
1.8016e-08
8.31633e-08
-1.94179e-09
1.94396e-08
8.25464e-08
-2.41991e-09
2.05831e-08
8.17112e-08
-2.90631e-09
2.14354e-08
8.07038e-08
-3.40022e-09
2.19839e-08
7.9559e-08
-3.89213e-09
2.22201e-08
7.83086e-08
-4.38115e-09
2.21392e-08
7.69759e-08
-4.85854e-09
2.17407e-08
7.55824e-08
-5.32323e-09
2.10296e-08
7.41427e-08
-5.76737e-09
2.00098e-08
7.26689e-08
-6.19008e-09
1.86926e-08
7.11669e-08
-6.58448e-09
1.70951e-08
6.96382e-08
-6.95003e-09
1.52388e-08
6.80758e-08
-7.28097e-09
1.31512e-08
6.64646e-08
-7.5772e-09
1.08711e-08
6.47781e-08
-7.83409e-09
8.45415e-09
6.2976e-08
-8.05186e-09
5.96516e-09
6.09995e-08
-8.22688e-09
3.49635e-09
5.87651e-08
-8.35923e-09
1.16196e-09
5.61583e-08
-8.44333e-09
-8.86715e-10
5.3019e-08
-8.47525e-09
-2.44549e-09
4.91334e-08
-8.46181e-09
-3.18374e-09
4.42039e-08
-8.46114e-09
-2.68677e-09
3.78503e-08
-8.48385e-09
2.41842e-08
-7.84266e-09
-1.50156e-09
3.32384e-08
3.18422e-09
-1.21922e-09
5.15687e-08
2.42805e-09
3.70002e-11
6.0054e-08
1.85357e-09
1.84005e-09
6.64725e-08
1.49874e-09
3.94119e-09
7.13051e-08
1.23336e-09
6.18706e-09
7.49161e-08
9.71693e-10
8.47863e-09
7.75818e-08
6.96791e-10
1.07346e-08
7.95115e-08
4.02429e-10
1.28893e-08
8.08622e-08
9.02813e-11
1.48896e-08
8.17568e-08
-2.37688e-10
1.66916e-08
8.22868e-08
-5.78779e-10
1.82674e-08
8.25249e-08
-9.36924e-10
1.95907e-08
8.25267e-08
-1.30406e-09
2.06425e-08
8.23395e-08
-1.6799e-09
2.1408e-08
8.19972e-08
-2.0583e-09
2.18763e-08
8.15298e-08
-2.43851e-09
2.20397e-08
8.09584e-08
-2.81354e-09
2.18948e-08
8.03019e-08
-3.18276e-09
2.14463e-08
7.95722e-08
-3.53975e-09
2.06943e-08
7.87788e-08
-3.884e-09
1.96484e-08
7.7925e-08
-4.2098e-09
1.83225e-08
7.70104e-08
-4.51689e-09
1.67322e-08
7.6027e-08
-4.80036e-09
1.49086e-08
7.49608e-08
-5.06034e-09
1.28783e-08
7.3787e-08
-5.29274e-09
1.06875e-08
7.24694e-08
-5.49809e-09
8.37894e-09
7.09552e-08
-5.67317e-09
6.02731e-09
6.91715e-08
-5.81904e-09
3.70872e-09
6.70165e-08
-5.93298e-09
1.5294e-09
6.43522e-08
-6.01443e-09
-3.83806e-10
6.09898e-08
-6.05809e-09
-1.8509e-09
5.66769e-08
-6.075e-09
-2.59929e-09
5.10672e-08
-6.11589e-09
-2.25782e-09
4.37083e-08
-6.19837e-09
2.77145e-08
-5.78854e-09
-7.28634e-10
3.15339e-08
2.4333e-09
-4.61851e-10
4.94495e-08
1.85277e-09
3.91138e-10
5.77787e-08
1.42103e-09
1.57248e-09
6.41305e-08
1.16071e-09
2.93116e-09
6.89838e-08
9.64028e-10
4.3797e-09
7.26919e-08
7.75089e-10
5.85997e-09
7.55244e-08
5.75713e-10
7.32611e-09
7.76798e-08
3.67413e-10
8.73076e-09
7.93106e-08
1.45743e-10
1.00433e-08
8.05291e-08
-8.34671e-11
1.12262e-08
8.14232e-08
-3.21292e-10
1.22617e-08
8.20574e-08
-5.67139e-10
1.31251e-08
8.24835e-08
-8.21154e-10
1.38053e-08
8.27393e-08
-1.07795e-09
1.42834e-08
8.28556e-08
-1.33764e-09
1.45539e-08
8.28538e-08
-1.59518e-09
1.46105e-08
8.27518e-08
-1.85067e-09
1.44525e-08
8.25607e-08
-2.09923e-09
1.40758e-08
8.22889e-08
-2.34103e-09
1.34867e-08
8.19388e-08
-2.57163e-09
1.26941e-08
8.15095e-08
-2.79137e-09
1.17064e-08
8.09937e-08
-2.99636e-09
1.05418e-08
8.03787e-08
-3.18719e-09
9.22239e-09
7.96433e-08
-3.36054e-09
7.76741e-09
7.87566e-08
-3.51727e-09
6.21682e-09
7.76748e-08
-3.6546e-09
4.60907e-09
7.63367e-08
-3.77373e-09
2.99432e-09
7.46589e-08
-3.87251e-09
1.43487e-09
7.25272e-08
-3.95223e-09
9.6836e-12
6.97886e-08
-4.00974e-09
-1.19242e-09
6.62344e-08
-4.04432e-09
-2.04083e-09
6.15879e-08
-4.06146e-09
-2.3429e-09
5.54697e-08
-4.10132e-09
-1.84621e-09
4.73837e-08
-4.16994e-09
2.97497e-08
-3.88301e-09
-4.78634e-10
3.01219e-08
1.8897e-09
-4.83984e-10
4.79335e-08
1.52268e-09
-1.82456e-10
5.62228e-08
1.25391e-09
2.89353e-10
6.25669e-08
1.09223e-09
8.58405e-10
6.74449e-08
9.69287e-10
1.48888e-09
7.1214e-08
8.47419e-10
2.15385e-09
7.41388e-08
7.20695e-10
2.82903e-09
7.64189e-08
5.86419e-10
3.49014e-09
7.82014e-08
4.47288e-10
4.11835e-09
7.9599e-08
3.00987e-10
4.70009e-09
8.06938e-08
1.49797e-10
5.21187e-09
8.15495e-08
-5.83748e-12
5.64475e-09
8.22122e-08
-1.61902e-10
5.98708e-09
8.27178e-08
-3.19563e-10
6.22833e-09
8.30917e-08
-4.77421e-10
6.36463e-09
8.33538e-08
-6.35215e-10
6.38521e-09
8.35179e-08
-7.88956e-10
6.29476e-09
8.35928e-08
-9.39198e-10
6.08331e-09
8.35814e-08
-1.08271e-09
5.76046e-09
8.34839e-08
-1.22037e-09
5.32377e-09
8.32943e-08
-1.34918e-09
4.78621e-09
8.30027e-08
-1.47026e-09
4.15278e-09
8.25917e-08
-1.58094e-09
3.44361e-09
8.20368e-08
-1.68259e-09
2.66825e-09
8.13025e-08
-1.77291e-09
1.85805e-09
8.0341e-08
-1.85347e-09
1.03022e-09
7.90858e-08
-1.92234e-09
2.23363e-10
7.74483e-08
-1.98139e-09
-5.29255e-10
7.53077e-08
-2.02894e-09
-1.17727e-09
7.25034e-08
-2.06621e-09
-1.6695e-09
6.88173e-08
-2.09046e-09
-1.93339e-09
6.39606e-08
-2.10866e-09
-1.85883e-09
5.75392e-08
-2.1446e-09
-1.30579e-09
4.90327e-08
-2.2005e-09
3.04763e-08
-2.0334e-09
-6.44866e-10
2.89941e-08
1.77353e-09
-1.0457e-09
4.66828e-08
1.6496e-09
-1.27321e-09
5.49139e-08
1.53817e-09
-1.40068e-09
6.12185e-08
1.47526e-09
-1.45171e-09
6.60764e-08
1.41971e-09
-1.44095e-09
6.98437e-08
1.35953e-09
-1.37787e-09
7.27852e-08
1.2908e-09
-1.27493e-09
7.50979e-08
1.2169e-09
-1.1386e-09
7.69296e-08
1.1371e-09
-9.84001e-10
7.83898e-08
1.05428e-09
-8.19455e-10
7.95609e-08
9.67328e-10
-6.51157e-10
8.05035e-08
8.79147e-10
-4.90834e-10
8.12638e-08
7.88736e-10
-3.476e-10
8.18741e-08
6.99416e-10
-2.2519e-10
8.23595e-08
6.10599e-10
-1.33196e-10
8.27363e-08
5.25169e-10
-7.38472e-11
8.30168e-08
4.40979e-10
-4.83533e-11
8.32068e-08
3.60783e-10
-5.77436e-11
8.33088e-08
2.8346e-10
-1.06786e-10
8.33197e-08
2.11373e-10
-1.86791e-10
8.32329e-08
1.42929e-10
-3.00168e-10
8.30354e-08
8.02683e-11
-4.39885e-10
8.2709e-08
2.28334e-11
-6.00702e-10
8.22265e-08
-2.83858e-11
-7.77013e-10
8.15516e-08
-7.53366e-11
-9.50461e-10
8.06339e-08
-1.16284e-10
-1.12112e-09
7.94064e-08
-1.52951e-10
-1.26417e-09
7.77785e-08
-1.85019e-10
-1.37219e-09
7.56291e-08
-2.14797e-10
-1.42229e-09
7.27962e-08
-2.41059e-10
-1.40063e-09
6.90619e-08
-2.66223e-10
-1.28586e-09
6.41367e-08
-2.9331e-10
-1.03205e-09
5.76284e-08
-3.41441e-10
-6.07582e-10
4.90156e-08
-4.0801e-10
3.02598e-08
-3.90781e-10
-9.3404e-10
2.80234e-08
1.90225e-09
-1.65237e-09
4.54098e-08
1.99409e-09
-2.24597e-09
5.34958e-08
2.01221e-09
-2.74607e-09
5.96896e-08
2.02712e-09
-3.15749e-09
6.44622e-08
2.02736e-09
-3.4931e-09
6.81655e-08
2.01265e-09
-3.75499e-09
7.1059e-08
1.98805e-09
-3.95216e-09
7.33384e-08
1.95471e-09
-4.08353e-09
7.51477e-08
1.91671e-09
-4.16599e-09
7.65959e-08
1.87383e-09
-4.19572e-09
7.77627e-08
1.82919e-09
-4.18311e-09
7.87088e-08
1.78208e-09
-4.13349e-09
7.94777e-08
1.73523e-09
-4.04951e-09
8.01029e-08
1.68768e-09
-3.93853e-09
8.06069e-08
1.6419e-09
-3.80581e-09
8.10069e-08
1.59651e-09
-3.65455e-09
8.13115e-08
1.55455e-09
-3.48904e-09
8.15269e-08
1.51442e-09
-3.31215e-09
8.16537e-08
1.47816e-09
-3.12581e-09
8.16892e-08
1.44411e-09
-2.93152e-09
8.16248e-08
1.41407e-09
-2.73234e-09
8.14482e-08
1.38616e-09
-2.52189e-09
8.11395e-08
1.36197e-09
-2.30918e-09
8.06723e-08
1.33936e-09
-2.08732e-09
8.00094e-08
1.31966e-09
-1.85493e-09
7.91018e-08
1.3005e-09
-1.61462e-09
7.78826e-08
1.28285e-09
-1.36362e-09
7.6264e-08
1.26388e-09
-1.10535e-09
7.41269e-08
1.24396e-09
-8.44478e-10
7.13143e-08
1.21967e-09
-5.86977e-10
6.76139e-08
1.19046e-09
-3.43504e-10
6.2745e-08
1.1491e-09
-1.2564e-10
5.63274e-08
1.08315e-09
4.63223e-11
4.78557e-08
9.88096e-10
2.94474e-08
8.59011e-10
-1.08899e-09
2.7181e-08
1.93104e-09
-1.95942e-09
4.41198e-08
2.16012e-09
-2.71204e-09
5.19958e-08
2.25454e-09
-3.36826e-09
5.80271e-08
2.31671e-09
-3.92552e-09
6.26727e-08
2.34837e-09
-4.39636e-09
6.6273e-08
2.36157e-09
-4.78048e-09
6.90831e-08
2.36085e-09
-5.08425e-09
7.1292e-08
2.3517e-09
-5.31572e-09
7.30422e-08
2.33543e-09
-5.47233e-09
7.44385e-08
2.31569e-09
-5.56281e-09
7.55607e-08
2.29251e-09
-5.59061e-09
7.64665e-08
2.26871e-09
-5.55633e-09
7.72002e-08
2.24374e-09
-5.46572e-09
7.77928e-08
2.22001e-09
-5.3241e-09
7.8268e-08
2.1966e-09
-5.13244e-09
7.86408e-08
2.17566e-09
-4.89917e-09
7.89221e-08
2.156e-09
-4.62848e-09
7.91163e-08
2.13949e-09
-4.32372e-09
7.92249e-08
2.12464e-09
-3.99289e-09
7.92435e-08
2.11305e-09
-3.63519e-09
7.91651e-08
2.10298e-09
-3.25851e-09
7.89756e-08
2.09575e-09
-2.86555e-09
7.8657e-08
2.08933e-09
-2.45875e-09
7.81818e-08
2.08477e-09
-2.04652e-09
7.75153e-08
2.07978e-09
-1.62734e-09
7.66086e-08
2.0751e-09
-1.21094e-09
7.53984e-08
2.06804e-09
-8.04871e-10
7.37987e-08
2.05878e-09
-4.17585e-10
7.16969e-08
2.04391e-09
-6.64981e-11
6.89406e-08
2.02259e-09
2.27889e-10
6.53287e-08
1.98991e-09
4.41682e-10
6.05907e-08
1.9414e-09
5.39811e-10
5.43661e-08
1.86257e-09
4.74781e-10
4.61712e-08
1.74791e-09
2.84045e-08
1.51972e-09
-9.81956e-10
2.65164e-08
1.6466e-09
-1.79486e-09
4.3029e-08
1.90348e-09
-2.52081e-09
5.07043e-08
2.01808e-09
-3.16372e-09
5.65798e-08
2.08899e-09
-3.7181e-09
6.11002e-08
2.12809e-09
-4.19019e-09
6.45979e-08
2.14708e-09
-4.58204e-09
6.73203e-08
2.15386e-09
-4.89256e-09
6.94535e-08
2.15104e-09
-5.12986e-09
7.11351e-08
2.14278e-09
-5.29042e-09
7.24697e-08
2.12992e-09
-5.37911e-09
7.35338e-08
2.11543e-09
-5.39705e-09
7.43862e-08
2.09928e-09
-5.35012e-09
7.50687e-08
2.08387e-09
-5.23781e-09
7.5614e-08
2.06868e-09
-5.07212e-09
7.60439e-08
2.05576e-09
-4.84933e-09
7.63752e-08
2.04429e-09
-4.58062e-09
7.66172e-08
2.03599e-09
-4.27026e-09
7.67761e-08
2.02973e-09
-3.9246e-09
7.68518e-08
2.02693e-09
-3.5469e-09
7.68419e-08
2.02615e-09
-3.15041e-09
7.67377e-08
2.0285e-09
-2.73205e-09
7.65274e-08
2.03224e-09
-2.30599e-09
7.61913e-08
2.03819e-09
-1.87198e-09
7.57049e-08
2.04431e-09
-1.43999e-09
7.50323e-08
2.05115e-09
-1.01648e-09
7.4128e-08
2.05634e-09
-6.08142e-10
7.29294e-08
2.06004e-09
-2.22766e-10
7.13553e-08
2.05938e-09
1.23537e-10
6.92955e-08
2.0538e-09
4.19276e-10
6.66058e-08
2.0394e-09
6.41685e-10
6.30918e-08
2.01409e-09
7.66073e-10
5.84959e-08
1.97085e-09
7.59654e-10
5.24725e-08
1.89999e-09
5.79966e-10
4.45604e-08
1.79125e-09
2.74336e-08
1.5508e-09
-6.53548e-10
2.61509e-08
1.01926e-09
-1.25877e-09
4.24269e-08
1.20748e-09
-1.83639e-09
4.99896e-08
1.29231e-09
-2.37107e-09
5.57732e-08
1.34202e-09
-2.85454e-09
6.02168e-08
1.3655e-09
-3.2762e-09
6.36462e-08
1.37454e-09
-3.6364e-09
6.6307e-08
1.37318e-09
-3.93187e-09
6.83817e-08
1.36548e-09
-4.15563e-09
7.00081e-08
1.35265e-09
-4.3126e-09
7.12884e-08
1.33757e-09
-4.39947e-09
7.23006e-08
1.32064e-09
-4.42007e-09
7.31016e-08
1.30417e-09
-4.37489e-09
7.37354e-08
1.28808e-09
-4.26746e-09
7.4233e-08
1.27433e-09
-4.10523e-09
7.46186e-08
1.26253e-09
-3.89157e-09
7.49075e-08
1.25431e-09
-3.63393e-09
7.5111e-08
1.24898e-09
-3.34148e-09
7.5234e-08
1.24783e-09
-3.0183e-09
7.52786e-08
1.24984e-09
-2.67175e-09
7.52407e-08
1.25598e-09
-2.3125e-09
7.51136e-08
1.26486e-09
-1.94751e-09
7.48839e-08
1.27714e-09
-1.58136e-09
7.45342e-08
1.29113e-09
-1.22165e-09
7.40382e-08
1.30718e-09
-8.75596e-10
7.33627e-08
1.32332e-09
-5.49319e-10
7.24609e-08
1.33963e-09
-2.45965e-10
7.12734e-08
1.35386e-09
2.39595e-11
6.97188e-08
1.3657e-09
2.55691e-10
6.76917e-08
1.37242e-09
4.37767e-10
6.50495e-08
1.37305e-09
5.61916e-10
6.16048e-08
1.36383e-09
6.0992e-10
5.71054e-08
1.34178e-09
5.67264e-10
5.12174e-08
1.29828e-09
4.09195e-10
4.34912e-08
1.22781e-09
2.67833e-08
1.0585e-09
-2.26876e-10
2.61742e-08
2.02317e-10
-5.61713e-10
4.25003e-08
2.6156e-10
-9.40667e-10
5.0081e-08
2.89326e-10
-1.33705e-09
5.58707e-08
2.98545e-10
-1.72393e-09
6.0309e-08
2.94647e-10
-2.08656e-09
6.3725e-08
2.82622e-10
-2.40832e-09
6.63643e-08
2.65824e-10
-2.68556e-09
6.8412e-08
2.44995e-10
-2.90377e-09
7.00061e-08
2.2227e-10
-3.06637e-09
7.12512e-08
1.98103e-10
-3.16221e-09
7.2225e-08
1.74455e-10
-3.20218e-09
7.29872e-08
1.51553e-10
-3.17897e-09
7.35811e-08
1.31178e-10
-3.09793e-09
7.40405e-08
1.13336e-10
-2.96917e-09
7.43885e-08
9.95669e-11
-2.79355e-09
7.46429e-08
8.96172e-11
-2.58278e-09
7.4814e-08
8.47255e-11
-2.34096e-09
7.49088e-08
8.42936e-11
-2.07875e-09
7.49278e-08
8.92175e-11
-1.80575e-09
7.48691e-08
9.85414e-11
-1.52912e-09
7.47243e-08
1.12798e-10
-1.25661e-09
7.44816e-08
1.30668e-10
-9.96874e-10
7.41217e-08
1.52351e-10
-7.54338e-10
7.362e-08
1.76262e-10
-5.37375e-10
7.29413e-08
2.02358e-10
-3.44171e-10
7.20404e-08
2.28861e-10
-1.82313e-10
7.08559e-08
2.55558e-10
-5.13916e-11
6.93081e-08
2.80533e-10
4.57644e-11
6.72899e-08
3.03436e-10
1.12917e-10
6.46609e-08
3.22275e-10
1.47892e-10
6.12327e-08
3.36476e-10
1.56154e-10
5.67559e-08
3.43579e-10
1.32066e-10
5.08963e-08
3.41575e-10
8.89628e-11
4.32088e-08
3.28344e-10
2.65863e-08
2.85053e-10
1.64829e-10
2.66006e-08
-5.9194e-10
7.94614e-11
4.32548e-08
-6.68317e-10
-1.18917e-10
5.09816e-08
-7.02091e-10
-3.87533e-10
5.68727e-08
-7.34389e-10
-6.8805e-10
6.13783e-08
-7.67761e-10
-9.97295e-10
6.48344e-08
-8.01217e-10
-1.29077e-09
6.74941e-08
-8.35443e-10
-1.55442e-09
6.95459e-08
-8.69769e-10
-1.77769e-09
7.11329e-08
-9.0439e-10
-1.94896e-09
7.23617e-08
-9.38029e-10
-2.06949e-09
7.33138e-08
-9.70459e-10
-2.13049e-09
7.40498e-08
-1.0002e-09
-2.13864e-09
7.46161e-08
-1.02698e-09
-2.09508e-09
7.50464e-08
-1.04939e-09
-2.0055e-09
7.53667e-08
-1.06729e-09
-1.87927e-09
7.55943e-08
-1.07949e-09
-1.71838e-09
7.57417e-08
-1.08617e-09
-1.5392e-09
7.58148e-08
-1.08647e-09
-1.34605e-09
7.58162e-08
-1.08091e-09
-1.1493e-09
7.57424e-08
-1.06905e-09
-9.60841e-10
7.55863e-08
-1.05181e-09
-7.84627e-10
7.53346e-08
-1.02906e-09
-6.28942e-10
7.49689e-08
-1.00205e-09
-4.99691e-10
7.44623e-08
-9.70945e-10
-4.02437e-10
7.37801e-08
-9.37195e-10
-3.34607e-10
7.28746e-08
-9.01101e-10
-2.99953e-10
7.16842e-08
-8.64133e-10
-2.9029e-10
7.01261e-08
-8.26468e-10
-3.04409e-10
6.80922e-08
-7.89319e-10
-3.28771e-10
6.54383e-08
-7.52429e-10
-3.51881e-10
6.19733e-08
-7.16353e-10
-3.59759e-10
5.74427e-08
-6.79764e-10
-3.28176e-10
5.15073e-08
-6.41298e-10
-2.39684e-10
4.37133e-08
-5.95784e-10
2.68557e-08
-5.07608e-10
4.24631e-10
2.73517e-08
-1.17349e-09
5.04416e-10
4.45259e-08
-1.35559e-09
4.38804e-10
5.24878e-08
-1.4371e-09
2.64836e-10
5.85483e-08
-1.50257e-09
2.80413e-11
6.31722e-08
-1.55882e-09
-2.33818e-10
6.67091e-08
-1.60999e-09
-5.04532e-10
6.94195e-08
-1.65784e-09
-7.53603e-10
7.15005e-08
-1.7038e-09
-9.72787e-10
7.30995e-08
-1.7478e-09
-1.1497e-09
7.43287e-08
-1.78999e-09
-1.27864e-09
7.52719e-08
-1.82939e-09
-1.35676e-09
7.59937e-08
-1.86567e-09
-1.38431e-09
7.65417e-08
-1.89762e-09
-1.36638e-09
7.69526e-08
-1.92483e-09
-1.30695e-09
7.72528e-08
-1.94615e-09
-1.2121e-09
7.74618e-08
-1.96141e-09
-1.09397e-09
7.75917e-08
-1.96971e-09
-9.56016e-10
7.76504e-08
-1.97121e-09
-8.15359e-10
7.76394e-08
-1.96541e-09
-6.76924e-10
7.75564e-08
-1.95284e-09
-5.5132e-10
7.73932e-08
-1.9334e-09
-4.43323e-10
7.71368e-08
-1.908e-09
-3.66163e-10
7.67669e-08
-1.87688e-09
-3.19906e-10
7.62568e-08
-1.8412e-09
-3.06355e-10
7.55691e-08
-1.8014e-09
-3.27871e-10
7.46552e-08
-1.7587e-09
-3.80597e-10
7.34501e-08
-1.71346e-09
-4.58165e-10
7.18692e-08
-1.66661e-09
-5.46731e-10
6.97993e-08
-1.61798e-09
-6.34203e-10
6.70924e-08
-1.56762e-09
-6.94948e-10
6.35501e-08
-1.51404e-09
-7.09831e-10
5.8911e-08
-1.45505e-09
-6.41107e-10
5.28237e-08
-1.38485e-09
-4.56171e-10
4.48219e-08
-1.29464e-09
2.75048e-08
-1.10418e-09
5.04765e-10
2.82938e-08
-1.44667e-09
6.56321e-10
4.60522e-08
-1.67788e-09
6.47371e-10
5.42801e-08
-1.78269e-09
5.25285e-10
6.05344e-08
-1.86415e-09
3.31403e-10
6.52968e-08
-1.93201e-09
1.02988e-10
6.89302e-08
-1.99185e-09
-1.36522e-10
7.17052e-08
-2.04706e-09
-3.62559e-10
7.38265e-08
-2.09889e-09
-5.63936e-10
7.54478e-08
-2.14827e-09
-7.24656e-10
7.66858e-08
-2.19486e-09
-8.42935e-10
7.76287e-08
-2.2385e-09
-9.14597e-10
7.83432e-08
-2.27822e-09
-9.40479e-10
7.88804e-08
-2.3135e-09
-9.21245e-10
7.92781e-08
-2.34327e-09
-8.66882e-10
7.95649e-08
-2.36705e-09
-7.81969e-10
7.97605e-08
-2.38395e-09
-6.75591e-10
7.98791e-08
-2.39376e-09
-5.55519e-10
7.99278e-08
-2.39593e-09
-4.37347e-10
7.99096e-08
-2.39064e-09
-3.22576e-10
7.98212e-08
-2.37773e-09
-2.27417e-10
7.96548e-08
-2.35779e-09
-1.54093e-10
7.9396e-08
-2.33104e-09
-1.12786e-10
7.90246e-08
-2.29841e-09
-1.08719e-10
7.85116e-08
-2.2604e-09
-1.39969e-10
7.78187e-08
-2.21808e-09
-2.06381e-10
7.68944e-08
-2.172e-09
-3.05844e-10
7.56718e-08
-2.12311e-09
-4.2715e-10
7.40619e-08
-2.0716e-09
-5.57523e-10
7.1948e-08
-2.01774e-09
-6.80049e-10
6.91754e-08
-1.96063e-09
-7.69986e-10
6.55392e-08
-1.89895e-09
-7.96708e-10
6.0768e-08
-1.82906e-09
-7.28372e-10
5.4498e-08
-1.7442e-09
-5.18939e-10
4.62469e-08
-1.63333e-09
2.83817e-08
-1.39626e-09
4.40193e-10
2.92619e-08
-1.40751e-09
5.68141e-10
4.75531e-08
-1.62874e-09
5.51926e-10
5.60243e-08
-1.73036e-09
4.40827e-10
6.24571e-08
-1.81044e-09
2.69018e-10
6.73474e-08
-1.87728e-09
6.37618e-11
7.10708e-08
-1.93675e-09
-1.44979e-10
7.39065e-08
-1.99171e-09
-3.4225e-10
7.60665e-08
-2.04376e-09
-5.09951e-10
7.771e-08
-2.0933e-09
-6.42168e-10
7.8958e-08
-2.1404e-09
-7.29862e-10
7.99022e-08
-2.18443e-09
-7.74844e-10
8.06124e-08
-2.22482e-09
-7.75225e-10
8.11414e-08
-2.2606e-09
-7.3434e-10
8.15293e-08
-2.2911e-09
-6.59952e-10
8.18055e-08
-2.31541e-09
-5.58892e-10
8.19916e-08
-2.33305e-09
-4.37465e-10
8.21017e-08
-2.34338e-09
-3.06943e-10
8.21442e-08
-2.34624e-09
-1.7882e-10
8.21215e-08
-2.3414e-09
-5.79093e-11
8.20309e-08
-2.32911e-09
4.16983e-11
8.18637e-08
-2.30954e-09
1.16921e-10
8.16056e-08
-2.28333e-09
1.56915e-10
8.12348e-08
-2.251e-09
1.61999e-10
8.07214e-08
-2.21344e-09
1.25331e-10
8.00252e-08
-2.17136e-09
5.24343e-11
7.90932e-08
-2.1257e-09
-5.35508e-11
7.78552e-08
-2.07705e-09
-1.84943e-10
7.62195e-08
-2.02602e-09
-3.2874e-10
7.40645e-08
-1.97255e-09
-4.68247e-10
7.12309e-08
-1.91621e-09
-5.79905e-10
6.75065e-08
-1.8554e-09
-6.36924e-10
6.26116e-08
-1.78705e-09
-6.03529e-10
5.61703e-08
-1.70453e-09
-4.45191e-10
4.76863e-08
-1.59865e-09
2.931e-08
-1.37311e-09
2.70988e-10
3.01175e-08
-1.12724e-09
3.13473e-10
4.88036e-08
-1.291e-09
2.48464e-10
5.7456e-08
-1.3687e-09
1.1829e-10
6.40217e-08
-1.43325e-09
-5.29055e-11
6.90072e-08
-1.48933e-09
-2.37617e-10
7.27966e-08
-1.54078e-09
-4.17411e-10
7.56761e-08
-1.58973e-09
-5.76535e-10
7.7863e-08
-1.63698e-09
-7.05814e-10
7.95206e-08
-1.68279e-09
-7.93488e-10
8.07736e-08
-1.72675e-09
-8.3912e-10
8.17162e-08
-1.76833e-09
-8.40961e-10
8.24204e-08
-1.80664e-09
-7.99888e-10
8.2941e-08
-1.84088e-09
-7.197e-10
8.33195e-08
-1.87012e-09
-6.06941e-10
8.35865e-08
-1.89368e-09
-4.69439e-10
8.37643e-08
-1.91081e-09
-3.14694e-10
8.38679e-08
-1.92111e-09
-1.51135e-10
8.39059e-08
-1.92419e-09
9.56475e-12
8.3881e-08
-1.92004e-09
1.57028e-10
8.37903e-08
-1.90868e-09
2.87061e-10
8.3625e-08
-1.89049e-09
3.89554e-10
8.337e-08
-1.8659e-09
4.54971e-10
8.30029e-08
-1.83563e-09
4.85082e-10
8.24927e-08
-1.80038e-09
4.73e-10
8.17979e-08
-1.7611e-09
4.22065e-10
8.08635e-08
-1.71857e-09
3.33307e-10
7.96174e-08
-1.67366e-09
2.14749e-10
7.79651e-08
-1.62692e-09
7.59083e-11
7.5782e-08
-1.57876e-09
-6.92898e-11
7.29045e-08
-1.52887e-09
-2.01046e-10
6.91152e-08
-1.47646e-09
-2.98697e-10
6.41278e-08
-1.41929e-09
-3.3382e-10
5.7558e-08
-1.35292e-09
-2.73678e-10
4.88992e-08
-1.27211e-09
3.01409e-08
-1.105e-09
6.35211e-11
3.07631e-08
-7.10464e-10
-9.47164e-12
4.96677e-08
-7.8929e-10
-1.4439e-10
5.84204e-08
-8.30824e-10
-3.09774e-10
6.5059e-08
-8.7167e-10
-4.87535e-10
7.00954e-08
-9.1098e-10
-6.58625e-10
7.39183e-08
-9.49918e-10
-8.11422e-10
7.68177e-08
-9.89079e-10
-9.3384e-10
7.90141e-08
-1.02851e-09
-1.01955e-09
8.06735e-08
-1.06787e-09
-1.06108e-09
8.19225e-08
-1.10649e-09
-1.05846e-09
8.28574e-08
-1.14353e-09
-1.01315e-09
8.35516e-08
-1.17808e-09
-9.22251e-10
8.40614e-08
-1.20918e-09
-7.9791e-10
8.4429e-08
-1.23597e-09
-6.39002e-10
8.46864e-08
-1.25764e-09
-4.56497e-10
8.48562e-08
-1.27355e-09
-2.61371e-10
8.49539e-08
-1.28321e-09
-5.56095e-11
8.49884e-08
-1.28631e-09
1.45066e-10
8.49627e-08
-1.28276e-09
3.33967e-10
8.48737e-08
-1.27265e-09
5.02637e-10
8.47124e-08
-1.25628e-09
6.44885e-10
8.44633e-08
-1.23414e-09
7.50875e-10
8.41032e-08
-1.2069e-09
8.19873e-10
8.36006e-08
-1.17532e-09
8.43819e-10
8.29127e-08
-1.14031e-09
8.27148e-10
8.19835e-08
-1.10278e-09
7.67735e-10
8.07394e-08
-1.06365e-09
6.73189e-10
7.9084e-08
-1.02376e-09
5.49506e-10
7.68906e-08
-9.83757e-10
4.04969e-10
7.3993e-08
-9.43983e-10
2.53117e-10
7.01711e-08
-9.04374e-10
1.09793e-10
6.51345e-08
-8.6423e-10
-3.73528e-12
5.84947e-08
-8.21992e-10
-6.72519e-11
4.97395e-08
-7.7806e-10
3.07711e-08
-6.96529e-10
-1.34524e-10
3.11606e-08
-2.62517e-10
-3.24357e-10
5.01062e-08
-2.49839e-10
-5.28473e-10
5.88781e-08
-2.52108e-10
-7.32074e-10
6.5529e-08
-2.66962e-10
-9.19391e-10
7.05708e-08
-2.87762e-10
-1.08154e-09
7.43934e-08
-3.12677e-10
-1.21115e-09
7.72876e-08
-3.40758e-10
-1.30103e-09
7.94749e-08
-3.71183e-10
-1.34689e-09
8.11223e-08
-4.03033e-10
-1.3452e-09
8.23573e-08
-4.35295e-10
-1.29889e-09
8.32771e-08
-4.66911e-10
-1.20675e-09
8.39562e-08
-4.96848e-10
-1.07083e-09
8.44513e-08
-5.24077e-10
-9.03022e-10
8.48058e-08
-5.47594e-10
-7.00282e-10
8.5052e-08
-5.66548e-10
-4.75353e-10
8.5213e-08
-5.80579e-10
-2.38649e-10
8.53047e-08
-5.89221e-10
6.1998e-12
8.53364e-08
-5.92091e-10
2.47432e-10
8.53107e-08
-5.89104e-10
4.75795e-10
8.52249e-08
-5.80368e-10
6.85189e-10
8.50696e-08
-5.66121e-10
8.6668e-10
8.4829e-08
-5.46953e-10
1.01342e-09
8.44796e-08
-5.23471e-10
1.12119e-09
8.39893e-08
-4.96218e-10
1.18372e-09
8.33147e-08
-4.66127e-10
1.20479e-09
8.23989e-08
-4.34307e-10
1.17888e-09
8.11673e-08
-4.01811e-10
1.10841e-09
7.9523e-08
-3.69682e-10
9.99262e-10
7.73382e-08
-3.38921e-10
8.58107e-10
7.44459e-08
-3.10437e-10
6.88529e-10
7.06247e-08
-2.85045e-10
5.02798e-10
6.55838e-08
-2.63601e-10
3.1328e-10
5.89336e-08
-2.47639e-10
1.32318e-10
5.01619e-08
-2.43454e-10
3.11584e-08
-2.53965e-10
-2.85327e-10
3.13107e-08
1.34667e-10
-5.60214e-10
5.01526e-08
2.28776e-10
-8.20624e-10
5.88771e-08
2.61859e-10
-1.05332e-09
6.54896e-08
2.70602e-10
-1.24735e-09
7.04993e-08
2.66823e-10
-1.40312e-09
7.42931e-08
2.55023e-10
-1.5136e-09
7.7161e-08
2.37449e-10
-1.57735e-09
7.93232e-08
2.15734e-10
-1.59385e-09
8.09467e-08
1.91249e-10
-1.55956e-09
8.2159e-08
1.65348e-10
-1.4806e-09
8.30573e-08
1.39221e-10
-1.35556e-09
8.37165e-08
1.14037e-10
-1.18609e-09
8.41938e-08
9.07702e-11
-9.86367e-10
8.45326e-08
7.02517e-11
-7.5223e-10
8.47659e-08
5.32662e-11
-4.97321e-10
8.49171e-08
4.07142e-11
-2.28374e-10
8.50025e-08
3.28958e-11
4.69112e-11
8.50312e-08
3.01958e-11
3.17053e-10
8.50064e-08
3.27383e-11
5.76954e-10
8.4925e-08
4.04439e-11
8.16654e-10
8.47776e-08
5.27694e-11
1.02847e-09
8.4548e-08
6.9631e-11
1.2047e-09
8.42126e-08
9.02189e-11
1.34153e-09