/*--------------------------------*- C++ -*----------------------------------*\
| =========                 |                                                 |
| \\      /  F ield         | OpenFOAM: The Open Source CFD Toolbox           |
|  \\    /   O peration     | Version:  v1906                                 |
|   \\  /    A nd           | Web:      www.OpenFOAM.com                      |
|    \\/     M anipulation  |                                                 |
\*---------------------------------------------------------------------------*/
FoamFile
{
    version     2.0;
    format      ascii;
    class       volVectorField;
    location    "46/oil";
    object      U;
}
// * * * * * * * * * * * * * * * * * * * * * * * * * * * * * * * * * * * * * //

dimensions      [0 1 -1 0 0 0 0];


internalField   nonuniform List<vector> 
27760
(
(-2.61645e-05 -2.66814e-05 -2.61645e-05)
(-5.16575e-05 -2.00181e-05 -1.88414e-05)
(-3.79818e-06 -5.19747e-06 -5.14165e-06)
(-6.22347e-06 -8.55636e-07 -9.21915e-07)
(-1.40393e-06 -2.81426e-07 -3.5761e-07)
(-6.76512e-07 -1.25261e-07 -2.0561e-07)
(-2.3385e-08 -3.15458e-08 -1.17153e-07)
(2.87688e-07 7.52906e-09 -8.30708e-08)
(4.59557e-07 2.90056e-08 -6.54606e-08)
(5.32446e-07 4.18559e-08 -5.52674e-08)
(5.33614e-07 5.08523e-08 -4.77761e-08)
(4.76732e-07 5.73178e-08 -4.19763e-08)
(3.72744e-07 6.20752e-08 -3.74209e-08)
(2.33221e-07 6.53122e-08 -3.41747e-08)
(7.10274e-08 6.70195e-08 -3.24194e-08)
(-9.98199e-08 6.7183e-08 -3.22581e-08)
(-2.65061e-07 6.58496e-08 -3.3644e-08)
(-4.11362e-07 6.31487e-08 -3.6355e-08)
(-5.27543e-07 5.92922e-08 -4.00024e-08)
(-6.05434e-07 5.455e-08 -4.4066e-08)
(-6.40599e-07 4.90494e-08 -4.80343e-08)
(-6.32769e-07 4.29913e-08 -5.12995e-08)
(-5.85095e-07 3.68153e-08 -5.30034e-08)
(-5.04098e-07 3.05406e-08 -5.27745e-08)
(-3.99558e-07 2.43148e-08 -5.01123e-08)
(-2.83613e-07 1.83951e-08 -4.46667e-08)
(-1.70366e-07 1.33152e-08 -3.64604e-08)
(-7.52149e-08 1.0077e-08 -2.61786e-08)
(-1.23643e-08 1.0095e-08 -1.5844e-08)
(5.98135e-09 1.16791e-08 -5.88911e-09)
(-1.89858e-05 -5.30789e-05 -1.89858e-05)
(-6.24645e-06 -6.85991e-06 -8.50223e-06)
(-8.47055e-06 -8.28988e-06 -2.97104e-06)
(-3.95588e-06 -2.35513e-06 -8.49007e-07)
(-1.58952e-06 -1.40269e-06 -4.20472e-07)
(-4.82495e-07 -7.32211e-07 -2.05176e-07)
(2.97919e-07 -4.4226e-07 -9.98502e-08)
(7.52763e-07 -2.83986e-07 -4.86893e-08)
(1.01677e-06 -1.8984e-07 -1.84863e-08)
(1.12723e-06 -1.25215e-07 1.85804e-09)
(1.11048e-06 -7.61056e-08 1.76579e-08)
(9.83978e-07 -3.73976e-08 3.06232e-08)
(7.6583e-07 -7.52568e-09 4.09287e-08)
(4.77217e-07 1.33358e-08 4.82389e-08)
(1.43288e-07 2.45889e-08 5.21623e-08)
(-2.07993e-07 2.59116e-08 5.2475e-08)
(-5.47957e-07 1.75926e-08 4.92558e-08)
(-8.49744e-07 6.47672e-10 4.29257e-08)
(-1.09077e-06 -2.32424e-08 3.4211e-08)
(-1.25476e-06 -5.19105e-08 2.40619e-08)
(-1.33289e-06 -8.30394e-08 1.36151e-08)
(-1.3241e-06 -1.14224e-07 3.98519e-09)
(-1.23499e-06 -1.42884e-07 -3.87042e-09)
(-1.07905e-06 -1.66808e-07 -9.13481e-09)
(-8.75433e-07 -1.8344e-07 -1.11941e-08)
(-6.47641e-07 -1.89655e-07 -9.81227e-09)
(-4.21958e-07 -1.81224e-07 -5.36955e-09)
(-2.2502e-07 -1.52711e-07 7.57829e-10)
(-8.03151e-08 -9.8316e-08 5.4689e-09)
(-4.89239e-09 -2.43212e-08 5.03073e-09)
(-5.25567e-06 -4.94649e-06 -5.25561e-06)
(-8.30121e-06 -9.25095e-06 -3.04146e-06)
(-4.38124e-06 -5.1392e-06 -1.34071e-06)
(-2.63597e-06 -2.88304e-06 -6.30844e-07)
(-1.02825e-06 -1.94696e-06 -2.93006e-07)
(-3.79874e-08 -1.36294e-06 -1.26912e-07)
(6.84283e-07 -1.05307e-06 -3.98442e-08)
(1.15025e-06 -8.58512e-07 8.19064e-09)
(1.42776e-06 -7.24056e-07 3.97022e-08)
(1.53665e-06 -6.19877e-07 6.3204e-08)
(1.49406e-06 -5.33938e-07 8.26189e-08)
(1.31516e-06 -4.6231e-07 9.89927e-08)
(1.01974e-06 -4.05311e-07 1.12184e-07)
(6.3376e-07 -3.64804e-07 1.21594e-07)
(1.89249e-07 -3.42695e-07 1.26642e-07)
(-2.77612e-07 -3.3995e-07 1.27004e-07)
(-7.29485e-07 -3.56057e-07 1.22758e-07)
(-1.13132e-06 -3.88877e-07 1.14418e-07)
(-1.45364e-06 -4.34787e-07 1.02882e-07)
(-1.67523e-06 -4.89084e-07 8.93254e-08)
(-1.78462e-06 -5.46407e-07 7.50502e-08)
(-1.78068e-06 -6.01203e-07 6.13476e-08)
(-1.67204e-06 -6.47947e-07 4.9337e-08)
(-1.476e-06 -6.81004e-07 3.99072e-08)
(-1.21675e-06 -6.9423e-07 3.35958e-08)
(-9.23429e-07 -6.8041e-07 3.04679e-08)
(-6.27714e-07 -6.30459e-07 2.98947e-08)
(-3.60276e-07 -5.33145e-07 3.00925e-08)
(-1.49173e-07 -3.75069e-07 2.75297e-08)
(-1.53357e-08 -1.49101e-07 1.55119e-08)
(-9.51272e-07 -7.12836e-06 -9.51195e-07)
(-2.2165e-06 -5.33327e-06 -8.62373e-07)
(-1.90049e-06 -4.34131e-06 -6.23205e-07)
(-1.15099e-06 -3.18128e-06 -3.23314e-07)
(-2.19328e-07 -2.54917e-06 -1.46493e-07)
(5.13505e-07 -2.122e-06 -4.51554e-08)
(1.10481e-06 -1.85465e-06 1.62068e-08)
(1.52123e-06 -1.66092e-06 5.56726e-08)
(1.77345e-06 -1.5072e-06 8.51066e-08)
(1.86025e-06 -1.3747e-06 1.09395e-07)
(1.78659e-06 -1.25722e-06 1.30655e-07)
(1.56272e-06 -1.15493e-06 1.49117e-07)
(1.20758e-06 -1.07137e-06 1.64201e-07)
(7.49265e-07 -1.01108e-06 1.75031e-07)
(2.23945e-07 -9.77909e-07 1.80838e-07)
(-3.26753e-07 -9.73788e-07 1.81205e-07)
(-8.59577e-07 -9.98063e-07 1.762e-07)
(-1.33382e-06 -1.04731e-06 1.66399e-07)
(-1.7153e-06 -1.11561e-06 1.52832e-07)
(-1.97951e-06 -1.19523e-06 1.36827e-07)
(-2.11335e-06 -1.27734e-06 1.19833e-07)
(-2.11569e-06 -1.3527e-06 1.03253e-07)
(-1.99656e-06 -1.41196e-06 8.82894e-08)
(-1.7756e-06 -1.44562e-06 7.58489e-08)
(-1.47989e-06 -1.44342e-06 6.64183e-08)
(-1.14145e-06 -1.39361e-06 5.99721e-08)
(-7.94585e-07 -1.28171e-06 5.5778e-08)
(-4.71999e-07 -1.08926e-06 5.18122e-08)
(-2.05977e-07 -7.90451e-07 4.42226e-08)
(-2.35203e-08 -3.46777e-07 2.37426e-08)
(-3.16691e-07 -2.47412e-06 -3.16595e-07)
(-1.08084e-06 -3.63895e-06 -3.83855e-07)
(-7.81095e-07 -3.74406e-06 -2.68076e-07)
(-2.7245e-07 -3.43027e-06 -1.36604e-07)
(3.79265e-07 -3.18293e-06 -4.43606e-08)
(9.67371e-07 -2.96291e-06 1.64643e-08)
(1.46936e-06 -2.78584e-06 5.89889e-08)
(1.83985e-06 -2.62643e-06 9.09517e-08)
(2.06285e-06 -2.47569e-06 1.18074e-07)
(2.1246e-06 -2.32941e-06 1.42608e-07)
(2.0214e-06 -2.18979e-06 1.65227e-07)
(1.75936e-06 -2.06284e-06 1.85431e-07)
(1.35614e-06 -1.95648e-06 2.0218e-07)
(8.40908e-07 -1.87866e-06 2.14295e-07)
(2.52708e-07 -1.83559e-06 2.2079e-07)
(-3.62823e-07 -1.83039e-06 2.21137e-07)
(-9.57961e-07 -1.86236e-06 2.1539e-07)
(-1.48771e-06 -1.92681e-06 2.04195e-07)
(-1.91436e-06 -2.01546e-06 1.88733e-07)
(-2.21108e-06 -2.11739e-06 1.70494e-07)
(-2.36374e-06 -2.22011e-06 1.51099e-07)
(-2.37143e-06 -2.31056e-06 1.32082e-07)
(-2.24523e-06 -2.37543e-06 1.14723e-07)
(-2.00645e-06 -2.40124e-06 9.99508e-08)
(-1.68397e-06 -2.37358e-06 8.82382e-08)
(-1.31149e-06 -2.27596e-06 7.95077e-08)
(-9.24932e-07 -2.08789e-06 7.29706e-08)
(-5.58602e-07 -1.7818e-06 6.64281e-08)
(-2.48957e-07 -1.31427e-06 5.57227e-08)
(-2.93245e-08 -6.01222e-07 2.95969e-08)
(-1.35615e-07 -2.04517e-06 -1.35501e-07)
(-3.23777e-07 -3.31614e-06 -1.44643e-07)
(-8.87427e-08 -3.83688e-06 -9.15466e-08)
(3.11653e-07 -3.96234e-06 -3.04837e-08)
(8.24725e-07 -3.97894e-06 1.94253e-08)
(1.32567e-06 -3.92561e-06 5.7419e-08)
(1.76769e-06 -3.83889e-06 8.85291e-08)
(2.10194e-06 -3.72426e-06 1.15848e-07)
(2.29939e-06 -3.58908e-06 1.4181e-07)
(2.33868e-06 -3.44052e-06 1.6707e-07)
(2.2103e-06 -3.28844e-06 1.91326e-07)
(1.91706e-06 -3.1445e-06 2.13497e-07)
(1.47539e-06 -3.0211e-06 2.32112e-07)
(9.15042e-07 -2.92962e-06 2.45664e-07)
(2.77245e-07 -2.87874e-06 2.52925e-07)
(-3.89205e-07 -2.87285e-06 2.53244e-07)
(-1.03299e-06 -2.91125e-06 2.46659e-07)
(-1.60567e-06 -2.98811e-06 2.33903e-07)
(-2.06678e-06 -3.09289e-06 2.16345e-07)
(-2.38777e-06 -3.21167e-06 1.95693e-07)
(-2.55403e-06 -3.32857e-06 1.73791e-07)
(-2.56496e-06 -3.42679e-06 1.52333e-07)
(-2.43273e-06 -3.48935e-06 1.32695e-07)
(-2.17998e-06 -3.49899e-06 1.15861e-07)
(-1.83686e-06 -3.43722e-06 1.02307e-07)
(-1.43823e-06 -3.28265e-06 9.19211e-08)
(-1.02122e-06 -3.00812e-06 8.38658e-08)
(-6.21579e-07 -2.5749e-06 7.57935e-08)
(-2.79373e-07 -1.91757e-06 6.32521e-08)
(-3.32156e-08 -8.9652e-07 3.35384e-08)
(-3.45057e-08 -1.77579e-06 -3.43732e-08)
(-1.36134e-09 -3.37099e-06 -2.94754e-08)
(2.67409e-07 -4.22722e-06 -2.11185e-09)
(6.54243e-07 -4.66398e-06 2.89042e-08)
(1.11773e-06 -4.89244e-06 5.78455e-08)
(1.57813e-06 -4.98368e-06 8.36655e-08)
(1.98719e-06 -4.98633e-06 1.08485e-07)
(2.2983e-06 -4.924e-06 1.33434e-07)
(2.47766e-06 -4.8154e-06 1.59306e-07)
(2.50026e-06 -4.67632e-06 1.85845e-07)
(2.35308e-06 -4.52289e-06 2.12102e-07)
(2.03663e-06 -4.37173e-06 2.36534e-07)
(1.56629e-06 -4.23909e-06 2.57264e-07)
(9.72205e-07 -4.13949e-06 2.72434e-07)
(2.97264e-07 -4.08383e-06 2.80551e-07)
(-4.07198e-07 -4.07763e-06 2.8084e-07)
(-1.08704e-06 -4.1203e-06 2.73324e-07)
(-1.69106e-06 -4.20502e-06 2.58831e-07)
(-2.17668e-06 -4.31942e-06 2.38944e-07)
(-2.5142e-06 -4.44699e-06 2.15656e-07)
(-2.68884e-06 -4.56893e-06 1.91059e-07)
(-2.70065e-06 -4.66534e-06 1.67043e-07)
(-2.56287e-06 -4.71606e-06 1.45126e-07)
(-2.29925e-06 -4.70046e-06 1.26337e-07)
(-1.94098e-06 -4.59613e-06 1.11167e-07)
(-1.52372e-06 -4.37672e-06 9.94724e-08)
(-1.0854e-06 -4.00765e-06 9.03683e-08)
(-6.62905e-07 -3.43746e-06 8.13841e-08)
(-2.98874e-07 -2.57525e-06 6.78036e-08)
(-3.5608e-08 -1.21933e-06 3.59798e-08)
(4.23433e-09 -1.86405e-06 4.38235e-09)
(1.55629e-07 -3.74616e-06 2.19859e-08)
(4.59003e-07 -4.85219e-06 4.09091e-08)
(8.52576e-07 -5.51109e-06 5.9876e-08)
(1.2977e-06 -5.90553e-06 7.91951e-08)
(1.73778e-06 -6.119e-06 9.91819e-08)
(2.12756e-06 -6.20626e-06 1.21046e-07)
(2.42358e-06 -6.20079e-06 1.45239e-07)
(2.59076e-06 -6.1283e-06 1.71795e-07)
(2.60242e-06 -6.01043e-06 1.99994e-07)
(2.4435e-06 -5.86779e-06 2.2847e-07)
(2.11279e-06 -5.72058e-06 2.55295e-07)
(1.62474e-06 -5.5881e-06 2.78228e-07)
(1.00959e-06 -5.48723e-06 2.95085e-07)
(3.11373e-07 -5.43053e-06 3.0409e-07)
(-4.16807e-07 -5.42439e-06 3.04346e-07)
(-1.11885e-06 -5.46831e-06 2.95865e-07)
(-1.74164e-06 -5.55487e-06 2.79578e-07)
(-2.24111e-06 -5.67033e-06 2.5731e-07)
(-2.58701e-06 -5.79637e-06 2.31334e-07)
(-2.76481e-06 -5.91206e-06 2.04012e-07)
(-2.77536e-06 -5.99516e-06 1.77462e-07)
(-2.63297e-06 -6.02305e-06 1.53352e-07)
(-2.36225e-06 -5.9722e-06 1.3275e-07)
(-1.99515e-06 -5.81678e-06 1.16158e-07)
(-1.56767e-06 -5.52533e-06 1.03393e-07)
(-1.11806e-06 -5.05531e-06 9.35397e-08)
(-6.83698e-07 -4.34136e-06 8.40261e-08)
(-3.08517e-07 -3.2649e-06 6.99591e-08)
(-3.67559e-08 -1.55817e-06 3.71733e-08)
(2.14912e-08 -2.07464e-06 2.16531e-08)
(2.2699e-07 -4.26243e-06 4.58586e-08)
(5.51728e-07 -5.59429e-06 6.13609e-08)
(9.50602e-07 -6.43796e-06 7.50849e-08)
(1.38546e-06 -6.97485e-06 8.99071e-08)
(1.8114e-06 -7.29832e-06 1.07133e-07)
(2.18665e-06 -7.46845e-06 1.27713e-07)
(2.47088e-06 -7.52499e-06 1.51884e-07)
(2.62942e-06 -7.49823e-06 1.79353e-07)
(2.63507e-06 -7.41345e-06 2.09142e-07)
(2.47163e-06 -7.29421e-06 2.39631e-07)
(2.13663e-06 -7.16302e-06 2.68606e-07)
(1.6436e-06 -7.04094e-06 2.93522e-07)
(1.02244e-06 -6.94625e-06 3.11887e-07)
(3.17558e-07 -6.89255e-06 3.21661e-07)
(-4.17219e-07 -6.88674e-06 3.21887e-07)
(-1.12496e-06 -6.92842e-06 3.12568e-07)
(-1.75169e-06 -7.00989e-06 2.9468e-07)
(-2.25285e-06 -7.11678e-06 2.70276e-07)
(-2.59822e-06 -7.22972e-06 2.41916e-07)
(-2.77382e-06 -7.32656e-06 2.12221e-07)
(-2.78146e-06 -7.38379e-06 1.83499e-07)
(-2.63635e-06 -7.37711e-06 1.57521e-07)
(-2.36371e-06 -7.28083e-06 1.35421e-07)
(-1.99564e-06 -7.06598e-06 1.17692e-07)
(-1.56791e-06 -6.69619e-06 1.04135e-07)
(-1.11837e-06 -6.12074e-06 9.37869e-08)
(-6.84018e-07 -5.25958e-06 8.40348e-08)
(-3.08679e-07 -3.9653e-06 6.99448e-08)
(-3.67674e-08 -1.9024e-06 3.72267e-08)
(2.811e-08 -2.34363e-06 2.82841e-08)
(2.53589e-07 -4.84444e-06 5.51528e-08)
(5.8253e-07 -6.38817e-06 6.90895e-08)
(9.757e-07 -7.39502e-06 8.04615e-08)
(1.39558e-06 -8.05945e-06 9.31413e-08)
(1.80388e-06 -8.48518e-06 1.08998e-07)
(2.1623e-06 -8.73765e-06 1.28942e-07)
(2.43348e-06 -8.8611e-06 1.53146e-07)
(2.58411e-06 -8.88889e-06 1.81226e-07)
(2.5874e-06 -8.84849e-06 2.12077e-07)
(2.42661e-06 -8.76479e-06 2.43924e-07)
(2.09828e-06 -8.66116e-06 2.74372e-07)
(1.61491e-06 -8.55934e-06 3.00635e-07)
(1.00545e-06 -8.4781e-06 3.20013e-07)
(3.13647e-07 -8.43132e-06 3.30295e-07)
(-4.07213e-07 -8.42605e-06 3.30488e-07)
(-1.10103e-06 -8.462e-06 3.2059e-07)
(-1.71433e-06 -8.53149e-06 3.01594e-07)
(-2.20307e-06 -8.62007e-06 2.75726e-07)
(-2.5379e-06 -8.70837e-06 2.45732e-07)
(-2.70581e-06 -8.774e-06 2.14411e-07)
(-2.70954e-06 -8.79308e-06 1.84243e-07)
(-2.56483e-06 -8.74061e-06 1.57074e-07)
(-2.297e-06 -8.5895e-06 1.34062e-07)
(-1.93754e-06 -8.30806e-06 1.15674e-07)
(-1.52125e-06 -7.85529e-06 1.0169e-07)
(-1.08461e-06 -7.17232e-06 9.11526e-08)
(-6.63142e-07 -6.16435e-06 8.14719e-08)
(-2.99182e-07 -4.65504e-06 6.77861e-08)
(-3.56458e-08 -2.24149e-06 3.61439e-08)
(2.95099e-08 -2.62737e-06 2.96888e-08)
(2.53087e-07 -5.43548e-06 5.65032e-08)
(5.69229e-07 -7.17856e-06 6.92239e-08)
(9.42059e-07 -8.33376e-06 7.9223e-08)
(1.336e-06 -9.11511e-06 9.06232e-08)
(1.71757e-06 -9.63738e-06 1.05484e-07)
(2.05211e-06 -9.97178e-06 1.24702e-07)
(2.30554e-06 -1.0166e-05 1.48463e-07)
(2.44672e-06 -1.02555e-05 1.76342e-07)
(2.45e-06 -1.02686e-05 2.07216e-07)
(2.29875e-06 -1.02303e-05 2.39254e-07)
(1.98884e-06 -1.01639e-05 2.69985e-07)
(1.53146e-06 -1.00906e-05 2.96541e-07)
(9.53832e-07 -1.00289e-05 3.1613e-07)
(2.97776e-07 -9.99219e-06 3.26462e-07)
(-3.85679e-07 -9.98756e-06 3.26623e-07)
(-1.043e-06 -1.00148e-05 3.1661e-07)
(-1.62297e-06 -1.00664e-05 2.97325e-07)
(-2.08349e-06 -1.01286e-05 2.71053e-07)
(-2.39692e-06 -1.01825e-05 2.40614e-07)
(-2.55155e-06 -1.02064e-05 2.08928e-07)
(-2.55088e-06 -1.0177e-05 1.78492e-07)
(-2.41078e-06 -1.00695e-05 1.51161e-07)
(-2.15589e-06 -9.85623e-06 1.28087e-07)
(-1.81622e-06 -9.50331e-06 1.09728e-07)
(-1.42452e-06 -8.96562e-06 9.58468e-08)
(-1.01483e-06 -8.17647e-06 8.54926e-08)
(-6.20144e-07 -7.02668e-06 7.62148e-08)
(-2.79708e-07 -5.31199e-06 6.34076e-08)
(-3.33483e-08 -2.56464e-06 3.38827e-08)
(2.78162e-08 -2.90025e-06 2.80046e-08)
(2.33797e-07 -5.99517e-06 5.27971e-08)
(5.21172e-07 -7.92058e-06 6.41215e-08)
(8.57942e-07 -9.20942e-06 7.29395e-08)
(1.21207e-06 -1.00972e-05 8.31758e-08)
(1.55468e-06 -1.07099e-05 9.68806e-08)
(1.8554e-06 -1.11242e-05 1.14886e-07)
(2.08411e-06 -1.13908e-05 1.37385e-07)
(2.21264e-06 -1.15461e-05 1.63965e-07)
(2.21736e-06 -1.16186e-05 1.93552e-07)
(2.0824e-06 -1.16325e-05 2.24366e-07)
(1.80314e-06 -1.16098e-05 2.53983e-07)
(1.38912e-06 -1.15708e-05 2.79587e-07)
(8.64909e-07 -1.15326e-05 2.98466e-07)
(2.68883e-07 -1.15081e-05 3.08355e-07)
(-3.51978e-07 -1.15042e-05 3.08479e-07)
(-9.48629e-07 -1.15206e-05 2.98821e-07)
(-1.47396e-06 -1.15504e-05 2.80156e-07)
(-1.88929e-06 -1.15803e-05 2.54753e-07)
(-2.16967e-06 -1.15928e-05 2.25325e-07)
(-2.3052e-06 -1.15676e-05 1.94738e-07)
(-2.30003e-06 -1.14829e-05 1.65423e-07)
(-2.16952e-06 -1.13146e-05 1.39175e-07)
(-1.93662e-06 -1.1035e-05 1.17083e-07)
(-1.62891e-06 -1.0609e-05 9.95623e-08)
(-1.27592e-06 -9.98783e-06 8.63897e-08)
(-9.08007e-07 -9.09769e-06 7.66781e-08)
(-5.54455e-07 -7.8162e-06 6.81921e-08)
(-2.50003e-07 -5.91312e-06 5.67435e-08)
(-2.98326e-08 -2.86057e-06 3.0399e-08)
(2.405e-08 -3.1435e-06 2.42341e-08)
(1.99964e-07 -6.49044e-06 4.54337e-08)
(4.4385e-07 -8.5747e-06 5.49567e-08)
(7.28984e-07 -9.97976e-06 6.24498e-08)
(1.0285e-06 -1.09616e-05 7.13236e-08)
(1.31871e-06 -1.16564e-05 8.34079e-08)
(1.57435e-06 -1.21457e-05 9.94561e-08)
(1.77014e-06 -1.24827e-05 1.19646e-07)
(1.88188e-06 -1.27042e-05 1.43607e-07)
(1.88886e-06 -1.2838e-05 1.70375e-07)
(1.7766e-06 -1.29069e-05 1.98332e-07)
(1.54017e-06 -1.29309e-05 2.2528e-07)
(1.18708e-06 -1.29285e-05 2.48564e-07)
(7.38159e-07 -1.29154e-05 2.65712e-07)
(2.26711e-07 -1.2904e-05 2.74635e-07)
(-3.06165e-07 -1.29007e-05 2.74708e-07)
(-8.17668e-07 -1.29056e-05 2.65927e-07)
(-1.26661e-06 -1.29116e-05 2.48905e-07)
(-1.61944e-06 -1.29066e-05 2.25732e-07)
(-1.85508e-06 -1.28744e-05 1.98905e-07)
(-1.96581e-06 -1.27969e-05 1.71077e-07)
(-1.95626e-06 -1.26539e-05 1.44468e-07)
(-1.84058e-06 -1.2423e-05 1.20725e-07)
(-1.6391e-06 -1.20772e-05 1.00791e-07)
(-1.37576e-06 -1.15806e-05 8.50432e-08)
(-1.07568e-06 -1.08814e-05 7.32665e-08)
(-7.6441e-07 -9.89997e-06 6.46858e-08)
(-4.66295e-07 -8.50227e-06 5.73775e-08)
(-2.10164e-07 -6.43517e-06 4.77796e-08)
(-2.51082e-08 -3.11789e-06 2.57062e-08)
(1.86957e-08 -3.34238e-06 1.88849e-08)
(1.54216e-07 -6.89353e-06 3.52269e-08)
(3.41531e-07 -9.10612e-06 4.25217e-08)
(5.6064e-07 -1.06058e-05 4.83996e-08)
(7.91288e-07 -1.1666e-05 5.55692e-08)
(1.01585e-06 -1.24314e-05 6.55034e-08)
(1.21517e-06 -1.29876e-05 7.87977e-08)
(1.3697e-06 -1.33896e-05 9.56501e-08)
(1.46033e-06 -1.36741e-05 1.158e-07)
(1.47007e-06 -1.38676e-05 1.38469e-07)
(1.38659e-06 -1.39907e-05 1.62297e-07)
(1.20472e-06 -1.40614e-05 1.85415e-07)
(9.2932e-07 -1.40958e-05 2.05492e-07)
(5.76285e-07 -1.41082e-05 2.20385e-07)
(1.72238e-07 -1.41097e-05 2.28155e-07)
(-2.492e-07 -1.4107e-05 2.28173e-07)
(-6.52785e-07 -1.41e-05 2.20441e-07)
(-1.00485e-06 -1.4082e-05 2.05581e-07)
(-1.27867e-06 -1.40415e-05 1.85532e-07)
(-1.45826e-06 -1.39644e-05 1.62472e-07)
(-1.5386e-06 -1.38345e-05 1.38744e-07)
(-1.5247e-06 -1.36342e-05 1.16188e-07)
(-1.42884e-06 -1.33431e-05 9.61803e-08)
(-1.26782e-06 -1.29351e-05 7.94923e-08)
(-1.06068e-06 -1.23744e-05 6.63877e-08)
(-8.2704e-07 -1.16071e-05 5.66613e-08)
(-5.86405e-07 -1.05486e-05 4.96976e-08)
(-3.57103e-07 -9.05544e-06 4.39672e-08)
(-1.60812e-07 -6.85586e-06 3.66649e-08)
(-1.92312e-08 -3.3256e-06 1.98542e-08)
(1.21023e-08 -3.48475e-06 1.22838e-08)
(9.88015e-08 -7.18076e-06 2.27257e-08)
(2.18476e-07 -9.48464e-06 2.73749e-08)
(3.59064e-07 -1.10531e-05 3.13285e-08)
(5.08223e-07 -1.21725e-05 3.63946e-08)
(6.5516e-07 -1.29937e-05 4.35834e-08)
(7.8775e-07 -1.36054e-05 5.33604e-08)
(8.93186e-07 -1.40634e-05 6.59003e-08)
(9.58381e-07 -1.44039e-05 8.10432e-08)
(9.71004e-07 -1.4652e-05 9.82924e-08)
(9.21347e-07 -1.48261e-05 1.16663e-07)
(8.04188e-07 -1.49415e-05 1.3478e-07)
(6.21343e-07 -1.50118e-05 1.5079e-07)
(3.82735e-07 -1.50493e-05 1.62904e-07)
(1.06667e-07 -1.50638e-05 1.69323e-07)
(-1.82177e-07 -1.50616e-05 1.69275e-07)
(-4.57316e-07 -1.50424e-05 1.62782e-07)
(-6.94108e-07 -1.50002e-05 1.50611e-07)
(-8.74219e-07 -1.49249e-05 1.34581e-07)
(-9.87777e-07 -1.48044e-05 1.16469e-07)
(-1.03302e-06 -1.46251e-05 9.81391e-08)
(-1.01518e-06 -1.4372e-05 8.09754e-08)
(-9.43911e-07 -1.40268e-05 6.59517e-08)
(-8.31564e-07 -1.35649e-05 5.35558e-08)
(-6.91268e-07 -1.29506e-05 4.39362e-08)
(-5.36006e-07 -1.21289e-05 3.69081e-08)
(-3.78281e-07 -1.10116e-05 3.2001e-08)
(-2.29531e-07 -9.44882e-06 2.81981e-08)
(-1.03121e-07 -7.15481e-06 2.36238e-08)
(-1.23255e-08 -3.47363e-06 1.29708e-08)
(4.58039e-09 -3.56108e-06 4.75307e-09)
(3.60407e-08 -7.33333e-06 8.50684e-09)
(7.95297e-08 -9.68592e-06 1.01839e-08)
(1.31858e-07 -1.12934e-05 1.19275e-08)
(1.89511e-07 -1.24494e-05 1.45455e-08)
(2.49143e-07 -1.33084e-05 1.85095e-08)
(3.06434e-07 -1.39607e-05 2.40828e-08)
(3.56044e-07 -1.44622e-05 3.14295e-08)
(3.91667e-07 -1.48486e-05 4.05748e-08)
(4.06498e-07 -1.51432e-05 5.13698e-08)
(3.94124e-07 -1.53626e-05 6.33123e-08)
(3.49611e-07 -1.55192e-05 7.55841e-08)
(2.7135e-07 -1.56239e-05 8.68818e-08)
(1.62463e-07 -1.56863e-05 9.58325e-08)
(3.17437e-08 -1.57139e-05 1.00776e-07)
(-1.0648e-07 -1.57119e-05 1.0068e-07)
(-2.35867e-07 -1.56802e-05 9.55818e-08)
(-3.42209e-07 -1.56138e-05 8.64824e-08)
(-4.16813e-07 -1.5505e-05 7.50973e-08)
(-4.56755e-07 -1.53442e-05 6.27999e-08)
(-4.63713e-07 -1.5121e-05 5.08917e-08)
(-4.428e-07 -1.48226e-05 4.01676e-08)
(-4.00523e-07 -1.44329e-05 3.11191e-08)
(-3.43787e-07 -1.39289e-05 2.38974e-08)
(-2.79e-07 -1.32753e-05 1.84665e-08)
(-2.1172e-07 -1.24166e-05 1.46544e-08)
(-1.46615e-07 -1.12629e-05 1.21966e-08)
(-8.75771e-08 -9.6602e-06 1.06085e-08)
(-3.889e-08 -7.31517e-06 9.07171e-09)
(-4.60911e-09 -3.5536e-06 5.27205e-09)
(-3.55736e-09 -3.56455e-06 -3.39811e-09)
(-3.14345e-08 -7.33778e-06 -6.85088e-09)
(-6.95918e-08 -9.69248e-06 -8.39104e-09)
(-1.11832e-07 -1.1306e-05 -9.07206e-09)
(-1.52365e-07 -1.24732e-05 -9.21825e-09)
(-1.86712e-07 -1.3349e-05 -8.95775e-09)
(-2.1103e-07 -1.40235e-05 -8.23965e-09)
(-2.22688e-07 -1.45524e-05 -6.94349e-09)
(-2.2053e-07 -1.49703e-05 -4.9052e-09)
(-2.05231e-07 -1.52995e-05 -1.96652e-09)
(-1.79284e-07 -1.55545e-05 1.92382e-09)
(-1.46776e-07 -1.57456e-05 6.66081e-09)
(-1.12336e-07 -1.58805e-05 1.16718e-08)
(-7.98706e-08 -1.59656e-05 1.6161e-08)
(-5.09775e-08 -1.60055e-05 1.88953e-08)
(-2.33774e-08 -1.60037e-05 1.87467e-08)
(7.1379e-09 -1.596e-05 1.57841e-08)
(4.27163e-08 -1.58713e-05 1.10856e-08)
(8.15692e-08 -1.57328e-05 5.95741e-09)
(1.19467e-07 -1.55384e-05 1.15852e-09)
(1.51578e-07 -1.52802e-05 -2.71662e-09)
(1.73545e-07 -1.49483e-05 -5.60138e-09)
(1.82737e-07 -1.45282e-05 -7.53529e-09)
(1.78321e-07 -1.39979e-05 -8.70477e-09)
(1.61286e-07 -1.33229e-05 -9.28811e-09)
(1.34054e-07 -1.24479e-05 -9.39911e-09)
(1.00153e-07 -1.1283e-05 -9.0885e-09)
(6.35931e-08 -9.67351e-06 -8.23195e-09)
(2.95696e-08 -7.32475e-06 -6.50073e-09)
(3.65391e-09 -3.5594e-06 -2.97784e-09)
(-1.19431e-08 -3.49143e-06 -1.17883e-08)
(-1.00621e-07 -7.1869e-06 -2.26459e-08)
(-2.22288e-07 -9.49488e-06 -2.74961e-08)
(-3.61241e-07 -1.10798e-05 -3.07114e-08)
(-5.024e-07 -1.22307e-05 -3.37968e-08)
(-6.33402e-07 -1.30997e-05 -3.75116e-08)
(-7.42235e-07 -1.37749e-05 -4.21016e-08)
(-8.18202e-07 -1.43108e-05 -4.75046e-08)
(-8.5245e-07 -1.4741e-05 -5.34586e-08)
(-8.39112e-07 -1.50869e-05 -5.95038e-08)
(-7.7607e-07 -1.53616e-05 -6.50672e-08)
(-6.65825e-07 -1.55734e-05 -6.95481e-08)
(-5.15455e-07 -1.57281e-05 -7.26042e-08)
(-3.35488e-07 -1.58288e-05 -7.41515e-08)
(-1.38448e-07 -1.58777e-05 -7.45995e-08)
(6.44424e-08 -1.5876e-05 -7.47649e-08)
(2.63337e-07 -1.58236e-05 -7.45894e-08)
(4.46806e-07 -1.57193e-05 -7.32885e-08)
(6.02101e-07 -1.55615e-05 -7.03925e-08)
(7.18268e-07 -1.53467e-05 -6.60024e-08)
(7.87982e-07 -1.50695e-05 -6.04222e-08)
(8.08418e-07 -1.47217e-05 -5.43294e-08)
(7.81462e-07 -1.429e-05 -4.82721e-08)
(7.12792e-07 -1.37535e-05 -4.2749e-08)
(6.11069e-07 -1.30784e-05 -3.8033e-08)
(4.8678e-07 -1.22106e-05 -3.41668e-08)
(3.51646e-07 -1.10619e-05 -3.09131e-08)
(2.17648e-07 -9.48045e-06 -2.74914e-08)
(9.9392e-08 -7.17724e-06 -2.24261e-08)
(1.21131e-08 -3.48775e-06 -1.14293e-08)
(-2.01598e-08 -3.34165e-06 -2.00264e-08)
(-1.68178e-07 -6.88088e-06 -3.81409e-08)
(-3.71221e-07 -9.09337e-06 -4.62397e-08)
(-6.04447e-07 -1.06147e-05 -5.19689e-08)
(-8.43787e-07 -1.17213e-05 -5.79919e-08)
(-1.06944e-06 -1.25585e-05 -6.5732e-08)
(-1.26149e-06 -1.3211e-05 -7.56874e-08)
(-1.40141e-06 -1.37309e-05 -8.79521e-08)
(-1.47287e-06 -1.41505e-05 -1.02233e-07)
(-1.46334e-06 -1.44902e-05 -1.17812e-07)
(-1.3659e-06 -1.47625e-05 -1.33692e-07)
(-1.18095e-06 -1.49752e-05 -1.48495e-07)
(-9.17203e-07 -1.51324e-05 -1.6087e-07)
(-5.9123e-07 -1.52363e-05 -1.69631e-07)
(-2.26125e-07 -1.52874e-05 -1.74015e-07)
(1.52669e-07 -1.52857e-05 -1.74183e-07)
(5.1976e-07 -1.5231e-05 -1.70097e-07)
(8.49444e-07 -1.51237e-05 -1.61598e-07)
(1.11841e-06 -1.49636e-05 -1.49395e-07)
(1.30965e-06 -1.47484e-05 -1.34688e-07)
(1.41407e-06 -1.44741e-05 -1.18824e-07)
(1.43093e-06 -1.4133e-05 -1.03197e-07)
(1.36691e-06 -1.37126e-05 -8.88378e-08)
(1.23428e-06 -1.31925e-05 -7.64502e-08)
(1.0492e-06 -1.25405e-05 -6.63641e-08)
(8.29962e-07 -1.17046e-05 -5.84877e-08)
(5.9622e-07 -1.06002e-05 -5.2286e-08)
(3.67466e-07 -9.08198e-06 -4.63438e-08)
(1.67367e-07 -6.8734e-06 -3.80019e-08)
(2.03842e-08 -3.33888e-06 -1.96992e-08)
(-2.78203e-08 -3.1188e-06 -2.76956e-08)
(-2.30729e-07 -6.4273e-06 -5.25386e-08)
(-5.08832e-07 -8.49824e-06 -6.36327e-08)
(-8.2901e-07 -9.92289e-06 -7.1688e-08)
(-1.15899e-06 -1.09584e-05 -8.04102e-08)
(-1.47215e-06 -1.174e-05 -9.18109e-08)
(-1.74131e-06 -1.23469e-05 -1.06661e-07)
(-1.94071e-06 -1.28278e-05 -1.25194e-07)
(-2.04705e-06 -1.32134e-05 -1.47086e-07)
(-2.0417e-06 -1.35235e-05 -1.71433e-07)
(-1.91313e-06 -1.37703e-05 -1.96787e-07)
(-1.65956e-06 -1.39617e-05 -2.21119e-07)
(-1.29096e-06 -1.41025e-05 -2.42149e-07)
(-8.29389e-07 -1.41952e-05 -2.57649e-07)
(-3.07676e-07 -1.42407e-05 -2.65766e-07)
(2.35182e-07 -1.42389e-05 -2.6593e-07)
(7.58894e-07 -1.41899e-05 -2.58108e-07)
(1.22428e-06 -1.40939e-05 -2.42856e-07)
(1.59818e-06 -1.39504e-05 -2.22007e-07)
(1.85816e-06 -1.37567e-05 -1.9777e-07)
(1.99383e-06 -1.35083e-05 -1.72447e-07)
(2.00661e-06 -1.31972e-05 -1.48064e-07)
(1.90775e-06 -1.28112e-05 -1.26105e-07)
(1.71559e-06 -1.23304e-05 -1.07466e-07)
(1.45327e-06 -1.17243e-05 -9.24902e-08)
(1.14632e-06 -1.09442e-05 -8.09503e-08)
(8.21663e-07 -9.91082e-06 -7.20561e-08)
(5.05632e-07 -8.48892e-06 -6.37896e-08)
(2.30157e-07 -6.42128e-06 -5.24388e-08)
(2.80675e-08 -3.11662e-06 -2.73885e-08)
(-3.44976e-08 -2.8303e-06 -3.4393e-08)
(-2.85002e-07 -5.8415e-06 -6.51151e-08)
(-6.28029e-07 -7.7299e-06 -7.88006e-08)
(-1.02341e-06 -9.02855e-06 -8.88109e-08)
(-1.4318e-06 -9.96944e-06 -9.97635e-08)
(-1.82062e-06 -1.06749e-05 -1.1418e-07)
(-2.15639e-06 -1.12166e-05 -1.33065e-07)
(-2.40707e-06 -1.16394e-05 -1.56722e-07)
(-2.54331e-06 -1.19719e-05 -1.84771e-07)
(-2.5412e-06 -1.2233e-05 -2.16163e-07)
(-2.38531e-06 -1.24354e-05 -2.4909e-07)
(-2.07217e-06 -1.25881e-05 -2.81026e-07)
(-1.61293e-06 -1.26973e-05 -3.08924e-07)
(-1.03438e-06 -1.27676e-05 -3.2975e-07)
(-3.77679e-07 -1.28014e-05 -3.4082e-07)
(3.06627e-07 -1.27997e-05 -3.40965e-07)
(9.65295e-07 -1.27625e-05 -3.3017e-07)
(1.5476e-06 -1.26892e-05 -3.09581e-07)
(2.01208e-06 -1.25773e-05 -2.81846e-07)
(2.33159e-06 -1.24226e-05 -2.50006e-07)
(2.49455e-06 -1.22188e-05 -2.17127e-07)
(2.50405e-06 -1.1957e-05 -1.85716e-07)
(2.37522e-06 -1.16243e-05 -1.57601e-07)
(2.13172e-06 -1.12019e-05 -1.33867e-07)
(1.80264e-06 -1.06611e-05 -1.14868e-07)
(1.41985e-06 -9.95721e-06 -1.00311e-07)
(1.01659e-06 -9.01828e-06 -8.91969e-08)
(6.2514e-07 -7.72209e-06 -7.89769e-08)
(2.8456e-07 -5.83654e-06 -6.50279e-08)
(3.47567e-08 -2.82853e-06 -3.40914e-08)
(-3.98529e-08 -2.48702e-06 -3.97604e-08)
(-3.28157e-07 -5.1457e-06 -7.51959e-08)
(-7.226e-07 -6.81781e-06 -9.09147e-08)
(-1.17762e-06 -7.96663e-06 -1.02406e-07)
(-1.64838e-06 -8.79425e-06 -1.14992e-07)
(-2.09747e-06 -9.40771e-06 -1.31571e-07)
(-2.48618e-06 -9.87033e-06 -1.53281e-07)
(-2.77727e-06 -1.02221e-05 -1.80477e-07)
(-2.93657e-06 -1.04893e-05 -2.12707e-07)
(-2.936e-06 -1.06898e-05 -2.48776e-07)
(-2.75742e-06 -1.0837e-05 -2.86632e-07)
(-2.3963e-06 -1.09412e-05 -3.2339e-07)
(-1.86505e-06 -1.10108e-05 -3.55565e-07)
(-1.19439e-06 -1.10528e-05 -3.79655e-07)
(-4.31972e-07 -1.10719e-05 -3.92533e-07)
(3.62867e-07 -1.10702e-05 -3.92655e-07)
(1.12718e-06 -1.10481e-05 -3.80013e-07)
(1.80149e-06 -1.10032e-05 -3.5613e-07)
(2.33781e-06 -1.09312e-05 -3.24113e-07)
(2.70513e-06 -1.08252e-05 -2.87453e-07)
(2.89058e-06 -1.06768e-05 -2.49641e-07)
(2.89839e-06 -1.04757e-05 -2.13575e-07)
(2.74636e-06 -1.02085e-05 -1.81298e-07)
(2.46229e-06 -9.85726e-06 -1.54038e-07)
(2.08013e-06 -9.39567e-06 -1.32233e-07)
(1.63691e-06 -8.7837e-06 -1.15536e-07)
(1.17112e-06 -7.95794e-06 -1.02792e-07)
(7.19867e-07 -6.8113e-06 -9.10936e-08)
(3.27755e-07 -5.14162e-06 -7.51132e-08)
(4.01056e-08 -2.48559e-06 -3.94655e-08)
(-4.35655e-08 -2.10271e-06 -4.34877e-08)
(-3.57684e-07 -4.36788e-06 -8.21907e-08)
(-7.87367e-07 -5.79885e-06 -9.9289e-08)
(-1.28378e-06 -6.78061e-06 -1.11705e-07)
(-1.79833e-06 -7.48214e-06 -1.25247e-07)
(-2.29009e-06 -7.99372e-06 -1.43064e-07)
(-2.71634e-06 -8.36951e-06 -1.66354e-07)
(-3.03585e-06 -8.6444e-06 -1.95453e-07)
(-3.21085e-06 -8.84194e-06 -2.29866e-07)
(-3.21053e-06 -8.97912e-06 -2.68261e-07)
(-3.01503e-06 -9.06938e-06 -3.0842e-07)
(-2.61952e-06 -9.12428e-06 -3.47311e-07)
(-2.03776e-06 -9.15419e-06 -3.81298e-07)
(-1.3034e-06 -9.16799e-06 -4.06695e-07)
(-4.68499e-07 -9.17241e-06 -4.20279e-07)
(4.01942e-07 -9.17094e-06 -4.20385e-07)
(1.23862e-06 -9.16367e-06 -4.07014e-07)
(1.97642e-06 -9.14731e-06 -3.81791e-07)
(2.56301e-06 -9.11529e-06 -3.47942e-07)
(2.96445e-06 -9.05882e-06 -3.09149e-07)
(3.16656e-06 -8.96754e-06 -2.69036e-07)
(3.17387e-06 -8.82993e-06 -2.30649e-07)
(3.00591e-06 -8.63251e-06 -1.96212e-07)
(2.69319e-06 -8.35816e-06 -1.67057e-07)
(2.27331e-06 -7.98337e-06 -1.43687e-07)
(1.78723e-06 -7.47318e-06 -1.25763e-07)
(1.27748e-06 -6.77334e-06 -1.12065e-07)
(7.84732e-07 -5.79351e-06 -9.9456e-08)
(3.57294e-07 -4.3646e-06 -8.21107e-08)
(4.38068e-08 -2.1016e-06 -4.32009e-08)
(-4.53286e-08 -1.69372e-06 -4.52647e-08)
(-3.71417e-07 -3.54099e-06 -8.55103e-08)
(-8.18088e-07 -4.71606e-06 -1.03176e-07)
(-1.33575e-06 -5.52059e-06 -1.15872e-07)
(-1.87418e-06 -6.089e-06 -1.29655e-07)
(-2.39013e-06 -6.49437e-06 -1.47781e-07)
(-2.83814e-06 -6.78163e-06 -1.71474e-07)
(-3.17422e-06 -6.9803e-06 -2.01033e-07)
(-3.35827e-06 -7.11104e-06 -2.35873e-07)
(-3.35788e-06 -7.18944e-06 -2.74565e-07)
(-3.15254e-06 -7.22861e-06 -3.14846e-07)
(-2.7377e-06 -7.24056e-06 -3.53672e-07)
(-2.1283e-06 -7.23662e-06 -3.87449e-07)
(-1.35985e-06 -7.22694e-06 -4.12596e-07)
(-4.86723e-07 -7.21934e-06 -4.26041e-07)
(4.2332e-07 -7.21808e-06 -4.2613e-07)
(1.2981e-06 -7.22324e-06 -4.12867e-07)
(2.06978e-06 -7.23074e-06 -3.87872e-07)
(2.68372e-06 -7.23285e-06 -3.54219e-07)
(3.10413e-06 -7.21956e-06 -3.15482e-07)
(3.31574e-06 -7.17956e-06 -2.75251e-07)
(3.32277e-06 -7.10083e-06 -2.36576e-07)
(3.14543e-06 -6.97022e-06 -2.01721e-07)
(2.81588e-06 -6.77211e-06 -1.72118e-07)
(2.37397e-06 -6.48578e-06 -1.48355e-07)
(1.86348e-06 -6.08163e-06 -1.30142e-07)
(1.32966e-06 -5.51471e-06 -1.16217e-07)
(8.15509e-07 -4.71182e-06 -1.03336e-07)
(3.71006e-07 -3.5385e-06 -8.54348e-08)
(4.55495e-08 -1.69294e-06 -4.49935e-08)
(-4.47719e-08 -1.27893e-06 -4.47198e-08)
(-3.67054e-07 -2.70244e-06 -8.44197e-08)
(-8.10814e-07 -3.61744e-06 -1.01635e-07)
(-1.32851e-06 -4.24176e-06 -1.13801e-07)
(-1.87039e-06 -4.67573e-06 -1.27008e-07)
(-2.39212e-06 -4.97577e-06 -1.44511e-07)
(-2.84662e-06 -5.17779e-06 -1.67535e-07)
(-3.18825e-06 -5.306e-06 -1.96307e-07)
(-3.37583e-06 -5.37792e-06 -2.30171e-07)
(-3.37641e-06 -5.40724e-06 -2.67649e-07)
(-3.16959e-06 -5.40599e-06 -3.06485e-07)
(-2.75147e-06 -5.38566e-06 -3.43728e-07)
(-2.1378e-06 -5.35748e-06 -3.75983e-07)
(-1.36474e-06 -5.33157e-06 -3.99895e-07)
(-4.87041e-07 -5.31593e-06 -4.12653e-07)
(4.27539e-07 -5.3149e-06 -4.12729e-07)