/*--------------------------------*- C++ -*----------------------------------*\
| =========                 |                                                 |
| \\      /  F ield         | OpenFOAM: The Open Source CFD Toolbox           |
|  \\    /   O peration     | Version:  v1906                                 |
|   \\  /    A nd           | Web:      www.OpenFOAM.com                      |
|    \\/     M anipulation  |                                                 |
\*---------------------------------------------------------------------------*/
FoamFile
{
    version     2.0;
    format      ascii;
    class       volScalarField;
    location    "48";
    object      T;
}
// * * * * * * * * * * * * * * * * * * * * * * * * * * * * * * * * * * * * * //

dimensions      [0 0 0 1 0 0 0];


internalField   nonuniform List<scalar> 
78750
(
300.049
300.124
300.167
300.19
300.203
300.209
300.211
300.21
300.207
300.202
300.196
300.189
300.182
300.175
300.167
300.16
300.152
300.145
300.139
300.132
300.126
300.12
300.115
300.11
300.107
300.105
300.106
300.113
300.132
300.177
300.278
300.493
300.916
301.621
302.557
300.033
300.096
300.153
300.203
300.243
300.274
300.295
300.308
300.314
300.314
300.31
300.302
300.291
300.279
300.265
300.25
300.236
300.221
300.208
300.195
300.184
300.175
300.167
300.162
300.159
300.16
300.166
300.183
300.22
300.293
300.438
300.715
301.196
301.916
302.833
300.047
300.136
300.22
300.294
300.358
300.411
300.454
300.488
300.514
300.533
300.546
300.553
300.554
300.551
300.542
300.529
300.512
300.492
300.468
300.442
300.416
300.389
300.365
300.343
300.328
300.321
300.326
300.35
300.405
300.512
300.705
301.035
301.552
302.277
303.189
300.052
300.15
300.24
300.32
300.391
300.454
300.509
300.559
300.602
300.64
300.673
300.701
300.724
300.742
300.754
300.761
300.762
300.757
300.746
300.729
300.705
300.677
300.645
300.609
300.573
300.539
300.516
300.514
300.553
300.661
300.875
301.239
301.787
302.533
303.458
300.057
300.165
300.263
300.351
300.428
300.495
300.554
300.606
300.653
300.695
300.732
300.765
300.795
300.82
300.841
300.858
300.871
300.88
300.883
300.881
300.873
300.858
300.835
300.806
300.772
300.736
300.704
300.689
300.714
300.815
301.037
301.425
301.996
302.757
303.693
300.061
300.176
300.28
300.374
300.457
300.529
300.59
300.643
300.691
300.733
300.772
300.806
300.836
300.862
300.885
300.904
300.919
300.931
300.939
300.944
300.944
300.939
300.928
300.911
300.889
300.863
300.839
300.827
300.853
300.953
301.18
301.581
302.165
302.936
303.881
300.066
300.191
300.305
300.408
300.5
300.578
300.643
300.699
300.75
300.795
300.835
300.87
300.901
300.928
300.951
300.969
300.984
300.995
301.003
301.006
301.006
301.001
300.992
300.978
300.961
300.943
300.927
300.927
300.964
301.078
301.319
301.736
302.328
303.102
304.053
300.072
300.208
300.332
300.443
300.54
300.621
300.688
300.745
300.796
300.842
300.882
300.918
300.95
300.977
301.001
301.021
301.037
301.05
301.06
301.065
301.065
301.061
301.053
301.041
301.026
301.011
301.001
301.009
301.057
301.184
301.441
301.873
302.47
303.244
304.198
300.077
300.223
300.355
300.474
300.575
300.659
300.728
300.786
300.838
300.885
300.926
300.962
300.994
301.022
301.046
301.067
301.084
301.097
301.107
301.112
301.113
301.11
301.102
301.092
301.079
301.068
301.064
301.081
301.142
301.286
301.56
302.005
302.605
303.378
304.333
300.081
300.236
300.376
300.501
300.608
300.695
300.766
300.826
300.879
300.926
300.969
301.006
301.039
301.068
301.093
301.115
301.133
301.146
301.156
301.161
301.161
301.158
301.15
301.14
301.129
301.12
301.122
301.147
301.219
301.377
301.666
302.123
302.726
303.497
304.452
300.086
300.249
300.397
300.528
300.639
300.729
300.801
300.862
300.916
300.965
301.008
301.045
301.079
301.109
301.136
301.159
301.177
301.191
301.201
301.206
301.206
301.203
301.195
301.186
301.176
301.17
301.176
301.208
301.292
301.464
301.769
302.236
302.841
303.611
304.565
300.09
300.261
300.416
300.553
300.668
300.76
300.834
300.896
300.952
301.001
301.044
301.083
301.119
301.15
301.178
301.201
301.22
301.235
301.244
301.249
301.25
301.246
301.239
301.23
301.221
301.217
301.228
301.267
301.361
301.546
301.864
302.339
302.946
303.716
304.669
300.094
300.272
300.434
300.576
300.694
300.789
300.865
300.929
300.985
301.035
301.079
301.12
301.157
301.19
301.218
301.242
301.262
301.276
301.286
301.291
301.291
301.288
301.281
301.272
301.265
301.263
301.278
301.324
301.428
301.625
301.954
302.436
303.045
303.815
304.766
300.098
300.284
300.452
300.599
300.72
300.816
300.894
300.959
301.016
301.067
301.114
301.156
301.194
301.228
301.257
301.282
301.302
301.317
301.327
301.332
301.332
301.328
301.322
301.314
301.307
301.308
301.327
301.379
301.491
301.699
302.039
302.526
303.137
303.907
304.857
300.101
300.294
300.468
300.619
300.744
300.842
300.921
300.988
301.046
301.099
301.147
301.19
301.229
301.264
301.295
301.32
301.34
301.355
301.366
301.371
301.371
301.368
301.361
301.354
301.349
301.352
301.374
301.432
301.553
301.77
302.119
302.611
303.223
303.994
304.944
300.105
300.304
300.484
300.64
300.767
300.867
300.948
301.016
301.076
301.13
301.179
301.224
301.264
301.3
301.331
301.357
301.378
301.394
301.404
301.409
301.41
301.407
301.401
301.394
301.39
301.395
301.421
301.484
301.612
301.838
302.196
302.691
303.304
304.077
305.025
300.108
300.314
300.499
300.659
300.789
300.891
300.973
301.043
301.104
301.16
301.21
301.256
301.298
301.335
301.366
301.393
301.414
301.43
301.441
301.446
301.448
301.445
301.439
301.433
301.43
301.438
301.467
301.535
301.67
301.904
302.269
302.767
303.382
304.156
305.103
300.111
300.323
300.514
300.678
300.811
300.914
300.998
301.069
301.132
301.189
301.241
301.288
301.331
301.369
301.401
301.428
301.45
301.466
301.477
301.483
301.485
301.482
301.477
301.472
301.47
301.48
301.512
301.585
301.726
301.967
302.338
302.84
303.455
304.23
305.178
300.114
300.332
300.528
300.696
300.831
300.937
301.022
301.095
301.159
301.217
301.271
301.319
301.363
301.402
301.435
301.463
301.485
301.502
301.513
301.519
301.521
301.519
301.514
301.51
301.51
301.521
301.556
301.634
301.781
302.029
302.406
302.909
303.526
304.303
305.249
300.118
300.341
300.542
300.714
300.851
300.959
301.046
301.12
301.186
301.245
301.3
301.35
301.395
301.434
301.468
301.497
301.519
301.537
301.548
301.555
301.557
301.555
301.551
301.548
301.549
301.562
301.6
301.682
301.834
302.089
302.471
302.976
303.593
304.372
305.318
300.121
300.35
300.555
300.731
300.871
300.98
301.068
301.144
301.211
301.273
301.329
301.379
301.425
301.466
301.501
301.53
301.553
301.571
301.583
301.59
301.592
301.591
301.588
301.585
301.587
301.602
301.643
301.729
301.887
302.147
302.534
303.041
303.659
304.439
305.385
300.124
300.358
300.568
300.748
300.89
301.001
301.091
301.168
301.237
301.3
301.357
301.409
301.456
301.497
301.533
301.563
301.586
301.604
301.617
301.624
301.627
301.627
301.624
301.622
301.625
301.642
301.686
301.776
301.938
302.204
302.596
303.104
303.722
304.504
305.45
300.126
300.366
300.581
300.764
300.909
301.022
301.113
301.192
301.262
301.326
301.384
301.438
301.486
301.528
301.564
301.595
301.619
301.637
301.65
301.658
301.662
301.662
301.66
301.659
301.663
301.682
301.728
301.822
301.989
302.26
302.656
303.165
303.784
304.567
305.513
300.129
300.375
300.594
300.781
300.928
301.042
301.135
301.215
301.287
301.352
301.412
301.466
301.515
301.558
301.596
301.626
301.651
301.67
301.683
301.692
301.696
301.696
301.695
301.695
301.701
301.722
301.771
301.868
302.039
302.315
302.715
303.225
303.844
304.628
305.574
300.132
300.383
300.607
300.797
300.946
301.062
301.156
301.238
301.311
301.378
301.439
301.494
301.544
301.588
301.626
301.658
301.683
301.702
301.716
301.725
301.729
301.731
301.73
301.731
301.739
301.761
301.812
301.913
302.089
302.369
302.772
303.283
303.902
304.688
305.634
300.135
300.391
300.62
300.813
300.964
301.082
301.177
301.26
301.335
301.403
301.466
301.522
301.573
301.618
301.657
301.689
301.714
301.734
301.749
301.758
301.763
301.765
301.765
301.767
301.776
301.8
301.854
301.958
302.138
302.422
302.829
303.341
303.96
304.746
305.692
300.138
300.399
300.632
300.828
300.982
301.101
301.198
301.283
301.359
301.428
301.492
301.55
301.602
301.647
301.686
301.719
301.746
301.766
301.781
301.791
301.796
301.799
301.8
301.803
301.813
301.839
301.895
302.002
302.186
302.475
302.884
303.397
304.016
304.803
305.749
300.14
300.407
300.644
300.844
301
301.121
301.219
301.305
301.382
301.453
301.518
301.577
301.63
301.676
301.716
301.749
301.776
301.797
301.813
301.823
301.829
301.833
301.835
301.839
301.85
301.878
301.937
302.047
302.234
302.527
302.939
303.452
304.07
304.859
305.805
300.143
300.415
300.657
300.86
301.018
301.139
301.239
301.327
301.405
301.477
301.544
301.604
301.658
301.705
301.746
301.779
301.807
301.828
301.844
301.855
301.862
301.866
301.869
301.874
301.887
301.917
301.978
302.091
302.282
302.578
302.993
303.506
304.124
304.914
305.861
300.146
300.423
300.669
300.875
301.035
301.158
301.26
301.348
301.428
301.502
301.569
301.63
301.685
301.733
301.775
301.809
301.837
301.859
301.876
301.887
301.895
301.899
301.903
301.91
301.924
301.955
302.019
302.135
302.33
302.629
303.047
303.56
304.178
304.968
305.915
300.149
300.43
300.681
300.89
301.052
301.177
301.279
301.369
301.451
301.526
301.594
301.657
301.713
301.762
301.804
301.839
301.867
301.89
301.907
301.919
301.927
301.933
301.938
301.945
301.961
301.994
302.06
302.179
302.377
302.68
303.1
303.613
304.23
305.022
305.97
300.151
300.438
300.693
300.905
301.069
301.195
301.299
301.39
301.473
301.55
301.619
301.683
301.74
301.789
301.832
301.868
301.897
301.92
301.938
301.95
301.959
301.966
301.972
301.98
301.998
302.033
302.101
302.223
302.425
302.731
303.153
303.665
304.282
305.075
306.023
300.154
300.446
300.705
300.92
301.086
301.213
301.318
301.411
301.496
301.573
301.644
301.709
301.766
301.817
301.861
301.897
301.927
301.95
301.968
301.982
301.992
301.999
302.006
302.016
302.035
302.072
302.143
302.268
302.472
302.781
303.206
303.718
304.334
305.128
306.077
300.157
300.453
300.717
300.935
301.102
301.231
301.338
301.432
301.518
301.596
301.669
301.734
301.793
301.845
301.889
301.926
301.956
301.98
301.999
302.013
302.024
302.032
302.04
302.051
302.072
302.111
302.184
302.312
302.52
302.832
303.259
303.77
304.386
305.181
306.13
300.159
300.461
300.728
300.949
301.118
301.249
301.357
301.452
301.539
301.62
301.693
301.76
301.82
301.872
301.917
301.954
301.985
302.01
302.03
302.044
302.056
302.065
302.074
302.087
302.109
302.15
302.226
302.357
302.568
302.884
303.312
303.823
304.437
305.233
306.184
300.162
300.468
300.74
300.963
301.134
301.266
301.376
301.473
301.561
301.643
301.717
301.785
301.846
301.899
301.945
301.983
302.014
302.04
302.06
302.075
302.087
302.097
302.108
302.122
302.146
302.19
302.269
302.403
302.617
302.935
303.365
303.875
304.489
305.286
306.237
300.165
300.476
300.751
300.978
301.15
301.283
301.394
301.493
301.583
301.665
301.741
301.81
301.872
301.926
301.972
302.011
302.043
302.069
302.09
302.106
302.119
302.13
302.142
302.157
302.184
302.23
302.311
302.449
302.666
302.988
303.419
303.928
304.541
305.339
306.291
300.167
300.483
300.762
300.992
301.166
301.301
301.413
301.513
301.604
301.688
301.765
301.836
301.898
301.953
302
302.039
302.072
302.099
302.12
302.137
302.151
302.163
302.176
302.193
302.221
302.27
302.354
302.495
302.716
303.041
303.474
303.981
304.593
305.392
306.345
300.17
300.49
300.773
301.006
301.182
301.318
301.432
301.533
301.626
301.711
301.789
301.861
301.924
301.98
302.027
302.067
302.101
302.128
302.15
302.167
302.182
302.195
302.209
302.229
302.259
302.31
302.398
302.542
302.767
303.094
303.529
304.035
304.646
305.446
306.4
300.172
300.497
300.785
301.02
301.198
301.335
301.45
301.553
301.647
301.734
301.813
301.886
301.95
302.006
302.055
302.095
302.129
302.157
302.179
302.198
302.213
302.228
302.243
302.264
302.297
302.351
302.441
302.589
302.818
303.148
303.584
304.089
304.698
305.499
306.454
300.175
300.504
300.796
301.034
301.213
301.352
301.469
301.573
301.668
301.757
301.837
301.91
301.976
302.033
302.082
302.123
302.158
302.186
302.209
302.228
302.245
302.26
302.277
302.3
302.334
302.391
302.486
302.637
302.869
303.203
303.64
304.143
304.751
305.553
306.508
300.177
300.512
300.807
301.048
301.229
301.369
301.488
301.593
301.69
301.779
301.861
301.935
302.002
302.059
302.109
302.151
302.186
302.215
302.239
302.258
302.276
302.292
302.311
302.335
302.373
302.432
302.53
302.685
302.922
303.258
303.696
304.198
304.804
305.607
306.563
300.18
300.519
300.818
301.062
301.245
301.387
301.506
301.613
301.712
301.802
301.885
301.96
302.027
302.086
302.136
302.178
302.214
302.243
302.268
302.289
302.307
302.325
302.345
302.371
302.411
302.474
302.575
302.734
302.974
303.314
303.753
304.253
304.858
305.661
306.617
300.182
300.526
300.83
301.076
301.261
301.404
301.525
301.634
301.733
301.825
301.909
301.985
302.053
302.112
302.163
302.206
302.242
302.272
302.297
302.319
302.338
302.357
302.378
302.407
302.449
302.515
302.62
302.784
303.028
303.371
303.81
304.308
304.911
305.715
306.672
300.185
300.534
300.841
301.09
301.277
301.421
301.544
301.654
301.755
301.848
301.933
302.011
302.079
302.139
302.19
302.234
302.27
302.301
302.326
302.348
302.369
302.389
302.412
302.443
302.488
302.557
302.666
302.833
303.082
303.428
303.867
304.364
304.965
305.769
306.726
300.187
300.541
300.853
301.104
301.293
301.439
301.563
301.674
301.777
301.871
301.958
302.036
302.105
302.165
302.217
302.261
302.298
302.329
302.355
302.378
302.399
302.421
302.446
302.479
302.526
302.599
302.712
302.883
303.136
303.485
303.925
304.419
305.019
305.823
306.779
300.19
300.549
300.864
301.119
301.309
301.456
301.582
301.695
301.799
301.894
301.982
302.061
302.131
302.192
302.244
302.288
302.326
302.357
302.384
302.408
302.43
302.453
302.479
302.514
302.565
302.641
302.758
302.934
303.19
303.542
303.982
304.474
305.072
305.876
306.833
300.193
300.556
300.876
301.133
301.325
301.474
301.601
301.715
301.821
301.918
302.006
302.086
302.157
302.218
302.271
302.316
302.353
302.385
302.413
302.437
302.46
302.485
302.513
302.55
302.603
302.683
302.804
302.984
303.245
303.599
304.04
304.529
305.125
305.929
306.885
300.195
300.564
300.887
301.147
301.341
301.491
301.62
301.736
301.843
301.941
302.03
302.111
302.182
302.244
302.298
302.343
302.381
302.413
302.442
302.467
302.491
302.516
302.546
302.585
302.641
302.725
302.85
303.035
303.299
303.656
304.096
304.583
305.178
305.981
306.937
300.198
300.571
300.899
301.162
301.357
301.509
301.639
301.756
301.864
301.964
302.055
302.136
302.208
302.271
302.324
302.37
302.408
302.441
302.47
302.496
302.521
302.548
302.579
302.621
302.68
302.766
302.895
303.085
303.353
303.713
304.152
304.637
305.229
306.032
306.988
300.201
300.579
300.911
301.176
301.373
301.526
301.658
301.777
301.886
301.987
302.079
302.161
302.234
302.297
302.351
302.397
302.436
302.469
302.498
302.525
302.551
302.579
302.612
302.656
302.718
302.808
302.941
303.134
303.407
303.769
304.208
304.69
305.28
306.083
307.037
300.203
300.586
300.922
301.19
301.389
301.544
301.677
301.797
301.908
302.01
302.103
302.186
302.26
302.323
302.377
302.424
302.463
302.497
302.527
302.554
302.581
302.61
302.646
302.692
302.756
302.85
302.986
303.184
303.46
303.824
304.262
304.742
305.33
306.132
307.086
300.206
300.594
300.934
301.204
301.405
301.561
301.696
301.818
301.93
302.033
302.127
302.211
302.285
302.349
302.404
302.451
302.49
302.524
302.555
302.583
302.611
302.642
302.678
302.727
302.794
302.891
303.032
303.233
303.513
303.879
304.316
304.793
305.38
306.181
307.134
300.209
300.601
300.945
301.218
301.42
301.579
301.715
301.838
301.952
302.057
302.152
302.236
302.311
302.375
302.43
302.477
302.517
302.552
302.583
302.612
302.641
302.673
302.711
302.762
302.832
302.933
303.077
303.283
303.565
303.933
304.369
304.844
305.428
306.229
307.181
300.211
300.609
300.956
301.232
301.436
301.596
301.734
301.859
301.974
302.08
302.176
302.262
302.337
302.401
302.457
302.504
302.544
302.579
302.611
302.64
302.67
302.703
302.744
302.797
302.87
302.974
303.122
303.332
303.618
303.987
304.421
304.893
305.476
306.275
307.227
300.214
300.616
300.968
301.246
301.452
301.614
301.753
301.88
301.996
302.103
302.2
302.287
302.362
302.428
302.483
302.531
302.571
302.606
302.638
302.668
302.699
302.734
302.776
302.832
302.908
303.015
303.167
303.381
303.67
304.04
304.473
304.942
305.523
306.321
307.273
300.216
300.624
300.979
301.26
301.468
301.631
301.772
301.9
302.019
302.127
302.225
302.312
302.388
302.454
302.51
302.557
302.598
302.634
302.666
302.697
302.729
302.764
302.808
302.866
302.945
303.056
303.212
303.429
303.721
304.092
304.523
304.99
305.569
306.366
307.317
300.219
300.631
300.991
301.275
301.484
301.649
301.792
301.922
302.041
302.151
302.25
302.338
302.414
302.48
302.536
302.584
302.625
302.661
302.693
302.725
302.757
302.794
302.84
302.9
302.981
303.096
303.256
303.477
303.772
304.144
304.573
305.036
305.613
306.41
307.359
300.222
300.639
301.002
301.289
301.501
301.667
301.812
301.943
302.064
302.175
302.275
302.364
302.44
302.506
302.562
302.61
302.651
302.688
302.721
302.753
302.786
302.824
302.871
302.933
303.017
303.135
303.298
303.523
303.821
304.194
304.621
305.082
305.657
306.452
307.4
300.224
300.646
301.014
301.304
301.518
301.686
301.832
301.965
302.088
302.2
302.301
302.39
302.467
302.533
302.589
302.637
302.678
302.714
302.748
302.781
302.815
302.854
302.903
302.966
303.053
303.173
303.34
303.568
303.868
304.242
304.667
305.125
305.699
306.493
307.44
300.227
300.654
301.027
301.32
301.535
301.705
301.853
301.988
302.112
302.225
302.327
302.416
302.494
302.56
302.616
302.664
302.705
302.741
302.775
302.808
302.844
302.884
302.934
302.999
303.088
303.211
303.381
303.612
303.915
304.289
304.712
305.168
305.739
306.532
307.478
300.23
300.663
301.039
301.335
301.553
301.725
301.874
302.011
302.137
302.251
302.353
302.443
302.521
302.587
302.643
302.691
302.732
302.769
302.803
302.836
302.872
302.914
302.965
303.032
303.123
303.248
303.421
303.655
303.959
304.334
304.755
305.209
305.778
306.57
307.515
300.233
300.671
301.052
301.351
301.571
301.745
301.896
302.035
302.162
302.277
302.38
302.471
302.548
302.614
302.67
302.718
302.759
302.796
302.83
302.864
302.901
302.944
302.996
303.065
303.158
303.285
303.461
303.697
304.003
304.378
304.797
305.248
305.816
306.606
307.55
300.236
300.68
301.066
301.368
301.59
301.765
301.919
302.059
302.187
302.304
302.408
302.499
302.576
302.642
302.697
302.745
302.786
302.823
302.857
302.892
302.93
302.973
303.027
303.098
303.193
303.323
303.5
303.739
304.047
304.421
304.838
305.287
305.853
306.642
307.585
300.239
300.688
301.079
301.385
301.609
301.786
301.942
302.083
302.213
302.331
302.436
302.527
302.604
302.67
302.725
302.772
302.813
302.85
302.885
302.92
302.958
303.003
303.059
303.131
303.228
303.36
303.54
303.78
304.09
304.464
304.878
305.324
305.889
306.677
307.62
300.242
300.698
301.093
301.402
301.628
301.808
301.965
302.108
302.24
302.359
302.464
302.555
302.633
302.698
302.753
302.8
302.84
302.877
302.912
302.948
302.987
303.033
303.09
303.164
303.264
303.398
303.58
303.822
304.133
304.506
304.918
305.361
305.924
306.712
307.654
300.245
300.707
301.107
301.419
301.648
301.829
301.988
302.134
302.267
302.387
302.493
302.584
302.661
302.726
302.781
302.827
302.868
302.904
302.94
302.976
303.016
303.063
303.121
303.198
303.299
303.436
303.621
303.865
304.176
304.548
304.957
305.398
305.96
306.746
307.688
300.249
300.716
301.122
301.437
301.668
301.851
302.012
302.159
302.294
302.415
302.521
302.613
302.69
302.755
302.809
302.855
302.895
302.932
302.967
303.003
303.044
303.092
303.152
303.23
303.334
303.474
303.661
303.907
304.219
304.59
304.995
305.434
305.994
306.78
307.722
300.252
300.726
301.136
301.454
301.687
301.873
302.036
302.185
302.321
302.444
302.551
302.642
302.719
302.783
302.837
302.883
302.923
302.959
302.994
303.031
303.072
303.121
303.183
303.263
303.369
303.512
303.701
303.949
304.262
304.631
305.033
305.469
306.029
306.814
307.755
300.255
300.735
301.151
301.472
301.707
301.895
302.06
302.211
302.349
302.472
302.58
302.671
302.748
302.812
302.865
302.911
302.95
302.986
303.022
303.059
303.1
303.15
303.213
303.295
303.403
303.548
303.74
303.99
304.303
304.671
305.071
305.504
306.062
306.846
307.786
300.259
300.745
301.166
301.49
301.728
301.917
302.084
302.237
302.377
302.501
302.609
302.701
302.778
302.841
302.894
302.939
302.978
303.014
303.049
303.086
303.128
303.179
303.243
303.326
303.436
303.584
303.778
304.03
304.344
304.71
305.107
305.538
306.094
306.877
307.817
300.262
300.755
301.18
301.508
301.748
301.939
302.109
302.264
302.405
302.531
302.639
302.731
302.807
302.87
302.923
302.967
303.006
303.042
303.077
303.114
303.157
303.208
303.272
303.357
303.469
303.618
303.815
304.068
304.382
304.748
305.141
305.57
306.125
306.907
307.846
300.265
300.764
301.195
301.526
301.768
301.962
302.134
302.291
302.434
302.56
302.669
302.761
302.837
302.899
302.951
302.995
303.034
303.069
303.105
303.142
303.185
303.236
303.302
303.387
303.501
303.652
303.85
304.105
304.42
304.784
305.175
305.601
306.155
306.936
307.874
300.269
300.774
301.21
301.544
301.788
301.985
302.159
302.318
302.462
302.59
302.7
302.791
302.867
302.929
302.98
303.024
303.062
303.097
303.133
303.17
303.213
303.265
303.331
303.418
303.532
303.685
303.885
304.141
304.456
304.818
305.207
305.631
306.184
306.964
307.901
300.272
300.784
301.224
301.562
301.809
302.007
302.184
302.345
302.492
302.62
302.73
302.822
302.897
302.959
303.009
303.052
303.09
303.126
303.161
303.199
303.242
303.295
303.361
303.448
303.564
303.717
303.919
304.176
304.491
304.852
305.238
305.661
306.212
306.991
307.928
300.276
300.793
301.239
301.58
301.829
302.03
302.209
302.373
302.521
302.651
302.761
302.853
302.928
302.989
303.039
303.081
303.119
303.154
303.189
303.227
303.271
303.324
303.391
303.479
303.596
303.75
303.952
304.21
304.525
304.884
305.268
305.689
306.239
307.018
307.955
300.279
300.803
301.253
301.598
301.85
302.053
302.235
302.401
302.551
302.682
302.793
302.884
302.959
303.019
303.068
303.11
303.147
303.182
303.218
303.256
303.3
303.354
303.422
303.511
303.628
303.783
303.986
304.245
304.559
304.917
305.298
305.717
306.267
307.045
307.981
300.282
300.812
301.268
301.616
301.87
302.076
302.261
302.43
302.582
302.714
302.825
302.916
302.99
303.049
303.098
303.14
303.176
303.211
303.246
303.285
303.329
303.384
303.453
303.543
303.661
303.817
304.021
304.279
304.593
304.949
305.328
305.745
306.294
307.071
308.008
300.286
300.822
301.283
301.634
301.891
302.1
302.287
302.459
302.613
302.746
302.858
302.949
303.022
303.08
303.128
303.169
303.205
303.24
303.275
303.314
303.359
303.414
303.484
303.575
303.695
303.852
304.056
304.315
304.627
304.981
305.358
305.773
306.321
307.099
308.036
300.289
300.831
301.297
301.653
301.913
302.124
302.314
302.489
302.645
302.779
302.891
302.981
303.054
303.112
303.159
303.199
303.234
303.269
303.304
303.343
303.389
303.445
303.516
303.608
303.729
303.887
304.092
304.351
304.662
305.014
305.387
305.801
306.348
307.126
308.064
300.292
300.841
301.313
301.672
301.935
302.149
302.342
302.52
302.678
302.813
302.925
303.015
303.086
303.143
303.189
303.229
303.264
303.298
303.333
303.372
303.418
303.475
303.548
303.641
303.764
303.923
304.129
304.388
304.698
305.047
305.418
305.83
306.377
307.154
308.092
300.296
300.851
301.329
301.692
301.958
302.175
302.371
302.551
302.712
302.848
302.96
303.049
303.119
303.175
303.221
303.259
303.293
303.327
303.362
303.401
303.448
303.506
303.58
303.675
303.798
303.959
304.166
304.424
304.733
305.08
305.448
305.858
306.404
307.182
308.121
300.299
300.862
301.345
301.713
301.982
302.202
302.402
302.585
302.747
302.884
302.996
303.084
303.153
303.208
303.252
303.289
303.323
303.356
303.391
303.431
303.478
303.537
303.611
303.708
303.833
303.996
304.203
304.462
304.769
305.113
305.479
305.887
306.433
307.211
308.15
300.303
300.873
301.363
301.735
302.008
302.231
302.433
302.619
302.783
302.921
303.032
303.119
303.187
303.241
303.284
303.32
303.353
303.386
303.421
303.46
303.508
303.567
303.643
303.741
303.868
304.032
304.24
304.499
304.805
305.146
305.509
305.916
306.462
307.239
308.179
300.307
300.885
301.382
301.759
302.035
302.261
302.467
302.655
302.82
302.958
303.069
303.156
303.222
303.274
303.316
303.352
303.384
303.416
303.45
303.49
303.538
303.598
303.675
303.774
303.902
304.068
304.277
304.536
304.841
305.18
305.54
305.945
306.491
307.269
308.209
300.312
300.898
301.402
301.784
302.063
302.292
302.501
302.691
302.858
302.997
303.107
303.192
303.257
303.308
303.349
303.383
303.415
303.446
303.48
303.52
303.568
303.629
303.707
303.807
303.937
304.103
304.314
304.573
304.876
305.213
305.57
305.975
306.52
307.298
308.239
300.317
300.912
301.423
301.81
302.092
302.325
302.537
302.729
302.897
303.036
303.145
303.229
303.293
303.342
303.382
303.415
303.446
303.477
303.511
303.55
303.599
303.66
303.739
303.84
303.972
304.139
304.351
304.61
304.912
305.246
305.602
306.005
306.55
307.328
308.27
300.322
300.926
301.445
301.837
302.123
302.359
302.573
302.768
302.937
303.075
303.184
303.266
303.329
303.377
303.415
303.447
303.477
303.507
303.541
303.581
303.63
303.692
303.771
303.874
304.006
304.175
304.388
304.646
304.948
305.28
305.633
306.035
306.58
307.358
308.301
300.327
300.941
301.468
301.864
302.154
302.393
302.611
302.808
302.978
303.116
303.223
303.304
303.365
303.411
303.448
303.479
303.508
303.538
303.572
303.612
303.661
303.724
303.805
303.908
304.042
304.212
304.425
304.684
304.984
305.314
305.665
306.066
306.611
307.39
308.333
300.332
300.956
301.491
301.893
302.186
302.429
302.65
302.849
303.019
303.157
303.263
303.342
303.401
303.446
303.481
303.511
303.54
303.569
303.603
303.643
303.693
303.756
303.838
303.943
304.078
304.249
304.463
304.721
305.02
305.348
305.697
306.097
306.642
307.422
308.365
300.337
300.972
301.515
301.922
302.22
302.466
302.69
302.891
303.062
303.199
303.304
303.381
303.439
303.481
303.515
303.544
303.572
303.601
303.634
303.674
303.725
303.789
303.872
303.978
304.114
304.287
304.501
304.76
305.057
305.383
305.73
306.129
306.674
307.454
308.398
300.343
300.987
301.539
301.952
302.254
302.504
302.731
302.935
303.107
303.243
303.346
303.421
303.476
303.517
303.549
303.577
303.603
303.632
303.665
303.706
303.757
303.822
303.906
304.014
304.151
304.325
304.54
304.798
305.095
305.418
305.764
306.162
306.707
307.487
308.432
300.348
301.003
301.563
301.982
302.289
302.543
302.774
302.981
303.153
303.289
303.39
303.463
303.515
303.553
303.584
303.61
303.636
303.664
303.697
303.738
303.789
303.856
303.941
304.05
304.189
304.364
304.58
304.838
305.133
305.454
305.798
306.195
306.74
307.521
308.466
300.354
301.02
301.589
302.014
302.325
302.584
302.82
303.029
303.202
303.336
303.435
303.505
303.555
303.591
303.619
303.643
303.668
303.695
303.728
303.769
303.822
303.889
303.975
304.086
304.227
304.403
304.62
304.878
305.171
305.491
305.833
306.229
306.774
307.555
308.5
300.36
301.037
301.615
302.047
302.363
302.627
302.867
303.079
303.253
303.386
303.482
303.549
303.596
303.629
303.655
303.678
303.701
303.727
303.76
303.801
303.854
303.923
304.011
304.123
304.265
304.443
304.66
304.918
305.21
305.528
305.868
306.263
306.809
307.59
308.535
300.366
301.055
301.643
302.081
302.403
302.672
302.917
303.132
303.307
303.438
303.531
303.595
303.638
303.668
303.691
303.712
303.734
303.76
303.792
303.833
303.887
303.956
304.046
304.16
304.304
304.483
304.701
304.958
305.249
305.565
305.903
306.298
306.843
307.624
308.569
300.373
301.073
301.671
302.117
302.444
302.719
302.969
303.187
303.362
303.492
303.582
303.642
303.682
303.708
303.729
303.748
303.768
303.793
303.824
303.866
303.92
303.99
304.081
304.197
304.342
304.523
304.742
304.999
305.289
305.602
305.938
306.333
306.878
307.658
308.603
300.379
301.093
301.701
302.154
302.486
302.767
303.022
303.243
303.419
303.547
303.634
303.691
303.726
303.749
303.767
303.783
303.802
303.826
303.857
303.898
303.953
304.024
304.116
304.233
304.381
304.563
304.783
305.039
305.328
305.639
305.974
306.367
306.912
307.692
308.636
300.386
301.113
301.732
302.191
302.53
302.816
303.077
303.301
303.477
303.603
303.687
303.74
303.771
303.791
303.806
303.82
303.837
303.859
303.89
303.931
303.986
304.058
304.151
304.27
304.419
304.603
304.823
305.08
305.366
305.676
306.009
306.402
306.947
307.726
308.669
300.394
301.134
301.763
302.229
302.574
302.867
303.132
303.36
303.536
303.66
303.741
303.79
303.817
303.834
303.846
303.857
303.872
303.893
303.923
303.964
304.019
304.092
304.186
304.307
304.458
304.642
304.863
305.119
305.405
305.713
306.044
306.436
306.981
307.759
308.701
300.401
301.155
301.795
302.268
302.619
302.918
303.189
303.419
303.595
303.718
303.795
303.84
303.864
303.877
303.886
303.895
303.908
303.928
303.956
303.997
304.052
304.126
304.221
304.343
304.495
304.681
304.903
305.159
305.443
305.749
306.079
306.47
307.014
307.792
308.733
300.409
301.176
301.827
302.308
302.664
302.97
303.246
303.479
303.656
303.776
303.85
303.891
303.911
303.92
303.926
303.933
303.944
303.962
303.99
304.03
304.086
304.16
304.257
304.38
304.533
304.72
304.942
305.197
305.48
305.784
306.113
306.503
307.047
307.824
308.764
300.416
301.198
301.86
302.348
302.711
303.023
303.305
303.54
303.717
303.835
303.906
303.942
303.959
303.964
303.967
303.971
303.981
303.998
304.025
304.064
304.12
304.194
304.292
304.416
304.57
304.758
304.981
305.235
305.517
305.819
306.146
306.536
307.079
307.855
308.794
300.424
301.22
301.894
302.389
302.758
303.077
303.364
303.602
303.778
303.894
303.962
303.995
304.007
304.009
304.009
304.01
304.018
304.033
304.059
304.098
304.154
304.228
304.326
304.452
304.607
304.796
305.019
305.273
305.553
305.854
306.179
306.568
307.111
307.886
308.824
300.432
301.242
301.927
302.43
302.806
303.131
303.423
303.664
303.84
303.955
304.019
304.048
304.056
304.054
304.051
304.05
304.055
304.069
304.094
304.133
304.188
304.263
304.361
304.487
304.644
304.833
305.056
305.31
305.588
305.887
306.212
306.599
307.142
307.916
308.853
300.44
301.265
301.962
302.472
302.855
303.186
303.483
303.726
303.902
304.015
304.076
304.101
304.105
304.1
304.093
304.09
304.093