/*--------------------------------*- C++ -*----------------------------------*\
| =========                 |                                                 |
| \\      /  F ield         | OpenFOAM: The Open Source CFD Toolbox           |
|  \\    /   O peration     | Version:  v1906                                 |
|   \\  /    A nd           | Web:      www.OpenFOAM.com                      |
|    \\/     M anipulation  |                                                 |
\*---------------------------------------------------------------------------*/
FoamFile
{
    version     2.0;
    format      ascii;
    class       surfaceScalarField;
    location    "70/oil";
    object      phi;
}
// * * * * * * * * * * * * * * * * * * * * * * * * * * * * * * * * * * * * * //

dimensions      [1 0 -1 0 0 0 0];
oriented        oriented;


internalField   nonuniform List<scalar> 
80688
(
-2.15587e-06
-2.19249e-06
-2.15587e-06
-9.72612e-07
-6.12076e-07
-5.71182e-07
-2.61386e-07
-3.58369e-07
-3.52857e-07
-1.23491e-07
-6.96934e-08
-6.82015e-08
-4.17728e-08
-4.14242e-08
-4.02944e-08
-1.08201e-09
-2.07142e-08
-1.99766e-08
2.14698e-08
-1.14274e-08
-1.11243e-08
3.40396e-08
-6.28705e-09
-6.28272e-09
4.01633e-08
-3.01089e-09
-3.11272e-09
4.13631e-08
-6.04915e-10
-5.94877e-10
3.84503e-08
1.36063e-09
1.55222e-09
3.20522e-08
2.97143e-09
3.42677e-09
2.28529e-08
4.23447e-09
4.96484e-09
1.16618e-08
5.1201e-09
6.071e-09
-5.89794e-10
5.58928e-09
6.66234e-09
-1.2908e-08
5.62195e-09
6.69623e-09
-2.43137e-08
5.22565e-09
6.18008e-09
-3.39269e-08
4.4386e-09
5.17464e-09
-4.10475e-08
3.32909e-09
3.79153e-09
-4.52088e-08
1.98283e-09
2.1785e-09
-4.62191e-08
4.90861e-10
5.19483e-10
-4.41628e-08
-1.00289e-09
-1.05341e-09
-3.93976e-08
-2.42281e-09
-2.34235e-09
-3.2532e-08
-3.66925e-09
-3.19632e-09
-2.43869e-08
-4.6282e-09
-3.51686e-09
-1.59585e-08
-5.16709e-09
-3.26131e-09
-8.36041e-09
-5.11015e-09
-2.48795e-09
-2.71405e-09
-4.23583e-09
-1.4105e-09
9.40802e-11
-2.32449e-09
-4.83603e-10
1.82653e-10
-8.85547e-11
-5.794e-07
-1.03369e-06
-5.79394e-07
-3.4322e-07
-3.84634e-07
-4.63622e-07
-2.38362e-07
-2.66074e-07
-1.97152e-07
-1.04322e-07
-1.25886e-07
-7.78478e-08
-2.43845e-08
-8.33394e-08
-3.80227e-08
2.51972e-08
-5.67151e-08
-1.35809e-08
5.70893e-08
-4.29363e-08
-3.83137e-10
7.65667e-08
-3.38596e-08
8.09519e-09
8.61603e-08
-2.70852e-08
1.44808e-08
8.70942e-08
-2.14189e-08
1.98802e-08
8.02504e-08
-1.64733e-08
2.46777e-08
6.65783e-08
-1.22255e-08
2.88691e-08
4.73228e-08
-8.79656e-09
3.22866e-08
2.40693e-08
-6.36111e-09
3.47347e-08
-1.32254e-09
-5.06054e-09
3.60417e-08
-2.68467e-08
-4.97073e-09
3.61169e-08
-5.05215e-08
-6.07423e-09
3.49747e-08
-7.05675e-08
-8.25452e-09
3.27391e-08
-8.55653e-08
-1.13072e-08
2.9634e-08
-9.45729e-08
-1.49565e-08
2.59471e-08
-9.72086e-08
-1.88886e-08
2.20151e-08
-9.36375e-08
-2.27552e-08
1.81812e-08
-8.45857e-08
-2.62162e-08
1.47416e-08
-7.12633e-08
-2.89213e-08
1.19297e-08
-5.52784e-08
-3.04993e-08
9.88627e-09
-3.85219e-08
-3.05283e-08
8.60473e-09
-2.30034e-08
-2.85071e-08
7.87842e-09
-1.06107e-08
-2.38575e-08
7.22907e-09
-2.75124e-09
-1.60067e-08
5.82282e-09
-5.32785e-09
2.75929e-09
-3.58842e-07
-3.16018e-07
-3.58835e-07
-2.33213e-07
-3.11214e-07
-1.99049e-07
-1.44416e-07
-2.36e-07
-1.18871e-07
-5.51373e-08
-1.61655e-07
-5.35097e-08
8.6496e-09
-1.28316e-07
-1.88099e-08
5.52204e-08
-1.06207e-07
2.92064e-09
8.79331e-08
-9.21857e-08
1.65368e-08
1.08846e-07
-8.12125e-08
2.64404e-08
1.18878e-07
-7.16739e-08
3.45568e-08
1.18541e-07
-6.28405e-08
4.17579e-08
1.08457e-07
-5.46574e-08
4.8268e-08
8.96188e-08
-4.73791e-08
5.39923e-08
6.355e-08
-4.13931e-08
5.86653e-08
3.22695e-08
-3.70927e-08
6.20122e-08
-1.79927e-09
-3.47872e-08
6.37954e-08
-3.60298e-08
-3.46349e-08
6.38947e-08
-6.78204e-08
-3.661e-08
6.23265e-08
-9.48294e-08
-4.04955e-08
5.92499e-08
-1.15197e-07
-4.58974e-08
5.49575e-08
-1.27684e-07
-5.2291e-08
4.98222e-08
-1.31791e-07
-5.90606e-08
4.42787e-08
-1.27742e-07
-6.55419e-08
3.87374e-08
-1.16475e-07
-7.10588e-08
3.35756e-08
-9.95271e-08
-7.49216e-08
2.90528e-08
-7.89146e-08
-7.64122e-08
2.53005e-08
-5.69566e-08
-7.47448e-08
2.22585e-08
-3.60446e-08
-6.9033e-08
1.96139e-08
-1.83832e-08
-5.82494e-08
1.67305e-08
-5.75977e-09
-4.11979e-08
1.25678e-08
-1.68563e-08
5.76866e-09
-6.53024e-08
-1.85422e-07
-6.52942e-08
-7.97916e-08
-2.24525e-07
-7.21997e-08
-4.88045e-08
-2.17345e-07
-4.96419e-08
1.07186e-09
-1.94007e-07
-1.7524e-08
4.75087e-08
-1.79352e-07
4.59838e-09
8.68583e-08
-1.66463e-07
2.09072e-08
1.16935e-07
-1.55377e-07
3.31145e-08
1.3682e-07
-1.44324e-07
4.32269e-08
1.45836e-07
-1.32961e-07
5.22713e-08
1.43683e-07
-1.21371e-07
6.06832e-08
1.30612e-07
-1.10041e-07
6.84554e-08
1.07537e-07
-9.9658e-08
7.53534e-08
7.61089e-08
-9.09746e-08
8.10098e-08
3.86328e-08
-8.46837e-08
8.5067e-08
-2.08201e-09
-8.12994e-08
8.72271e-08
-4.29614e-08
-8.10924e-08
8.73369e-08
-8.09532e-08
-8.40313e-08
8.5413e-08
-1.13313e-07
-8.97822e-08
8.16465e-08
-1.37854e-07
-9.77363e-08
7.63798e-08
-1.5314e-07
-1.07066e-07
7.00604e-08
-1.58579e-07
-1.16806e-07
6.31845e-08
-1.54443e-07
-1.25916e-07
5.62383e-08
-1.41795e-07
-1.3334e-07
4.96333e-08
-1.22381e-07
-1.3799e-07
4.36537e-08
-9.8447e-08
-1.38767e-07
3.8421e-08
-7.2543e-08
-1.34485e-07
3.3836e-08
-4.72872e-08
-1.23809e-07
2.95204e-08
-2.51283e-08
-1.05141e-07
2.47332e-08
-8.33275e-09
-7.62642e-08
1.82707e-08
-3.35314e-08
8.34241e-09
-2.97711e-08
-1.25889e-07
-2.97617e-08
-2.60545e-08
-2.0195e-07
-2.62915e-08
7.85549e-10
-2.33114e-07
-1.10713e-08
3.96206e-08
-2.40669e-07
7.82672e-09
7.9051e-08
-2.42009e-07
2.32275e-08
1.14558e-07
-2.38104e-07
3.61335e-08
1.42777e-07
-2.30835e-07
4.72388e-08
1.61554e-07
-2.20553e-07
5.74524e-08
1.69369e-07
-2.08009e-07
6.7233e-08
1.654e-07
-1.94085e-07
7.66829e-08
1.49609e-07
-1.79846e-07
8.55959e-08
1.22846e-07
-1.66476e-07
9.35814e-08
8.6837e-08
-1.55141e-07
1.00175e-07
4.41082e-08
-1.46866e-07
1.04911e-07
-2.21414e-09
-1.42409e-07
1.07432e-07
-4.86899e-08
-1.42161e-07
1.07545e-07
-9.18903e-08
-1.46092e-07
1.05262e-07
-1.28737e-07
-1.53744e-07
1.00808e-07
-1.56783e-07
-1.64273e-07
9.4583e-08
-1.74431e-07
-1.76528e-07
8.71098e-08
-1.81029e-07
-1.89173e-07
7.89651e-08
-1.76876e-07
-2.00767e-07
7.06973e-08
-1.63145e-07
-2.09826e-07
6.2756e-08
-1.41725e-07
-2.14872e-07
5.54625e-08
-1.15028e-07
-2.14399e-07
4.89346e-08
-8.57754e-08
-2.06786e-07
4.30493e-08
-5.67679e-08
-1.90196e-07
3.73795e-08
-3.07224e-08
-1.62278e-07
3.10909e-08
-1.04032e-08
-1.1941e-07
2.28268e-08
-5.43484e-08
1.04138e-08
-5.81168e-09
-1.14276e-07
-5.80092e-09
7.07671e-09
-2.16521e-07
1.68225e-09
3.33975e-08
-2.7242e-07
1.29856e-08
6.82778e-08
-3.01285e-07
2.57355e-08
1.04776e-07
-3.15955e-07
3.74468e-08
1.38478e-07
-3.20212e-07
4.84055e-08
1.6571e-07
-3.17015e-07
5.89487e-08
1.83728e-07
-3.08028e-07
6.9457e-08
1.9053e-07
-2.94863e-07
8.00514e-08
1.84939e-07
-2.79092e-07
9.05978e-08
1.66719e-07
-2.62344e-07
1.00717e-07
1.36656e-07
-2.46287e-07
1.09875e-07
9.65433e-08
-2.32509e-07
1.17481e-07
4.91109e-08
-2.22389e-07
1.22956e-07
-2.23103e-09
-2.16931e-07
1.25864e-07
-5.37047e-08
-2.1666e-07
1.25972e-07
-1.01541e-07
-2.21547e-07
1.23291e-07
-1.42352e-07
-2.31008e-07
1.18076e-07
-1.73463e-07
-2.43961e-07
1.10799e-07
-1.9314e-07
-2.58929e-07
1.02078e-07
-2.00689e-07
-2.74204e-07
9.25802e-08
-1.96449e-07
-2.87928e-07
8.29221e-08
-1.81694e-07
-2.98224e-07
7.36432e-08
-1.58439e-07
-3.03204e-07
6.50772e-08
-1.2925e-07
-3.00944e-07
5.73556e-08
-9.70014e-08
-2.89373e-07
5.03383e-08
-6.46892e-08
-2.66066e-07
4.35581e-08
-3.52938e-08
-2.27768e-07
3.60944e-08
-1.20456e-08
-1.69087e-07
2.64282e-08
-7.84514e-08
1.20574e-08
4.83848e-09
-1.23965e-07
4.85052e-09
2.40142e-08
-2.52002e-07
1.63056e-08
5.3076e-08
-3.28588e-07
2.71058e-08
8.8287e-08
-3.74185e-07
3.76891e-08
1.24712e-07
-4.00239e-07
4.78598e-08
1.58343e-07
-4.11908e-07
5.80656e-08
1.85546e-07
-4.12848e-07
6.86298e-08
2.03355e-07
-4.05578e-07
7.97414e-08
2.09518e-07
-3.92371e-07
9.13448e-08
2.02628e-07
-3.75348e-07
1.03147e-07
1.82306e-07
-3.56648e-07
1.14626e-07
1.49299e-07
-3.38384e-07
1.25104e-07
1.05483e-07
-3.22539e-07
1.33846e-07
5.37631e-08
-3.10829e-07
1.4016e-07
-2.16674e-09
-3.04511e-07
1.4351e-07
-5.82039e-08
-3.04231e-07
1.43609e-07
-1.10251e-07
-3.09966e-07
1.40467e-07
-1.54627e-07
-3.21017e-07
1.34385e-07
-1.88444e-07
-3.36068e-07
1.25924e-07
-2.09847e-07
-3.53329e-07
1.15803e-07
-2.18123e-07
-3.70729e-07
1.04802e-07
-2.13667e-07
-3.86039e-07
9.36543e-08
-1.97863e-07
-3.96987e-07
8.29584e-08
-1.7286e-07
-4.01305e-07
7.30975e-08
-1.41373e-07
-3.96653e-07
6.4222e-08
-1.06437e-07
-3.80483e-07
5.61746e-08
-7.12351e-08
-3.49714e-07
4.84459e-08
-3.90021e-08
-3.00039e-07
4.00382e-08
-1.33499e-08
-2.24017e-07
2.9278e-08
-1.05164e-07
1.33629e-08
1.01648e-08
-1.44308e-07
1.01779e-08
3.37863e-08
-3.00148e-07
2.45241e-08
6.57728e-08
-3.96308e-07
3.57338e-08
1.02559e-07
-4.56706e-07
4.57353e-08
1.40041e-07
-4.93181e-07
5.54601e-08
1.74444e-07
-5.11938e-07
6.56269e-08
2.02187e-07
-5.17227e-07
7.66356e-08
2.20216e-07
-5.12227e-07
8.8621e-08
2.26086e-07
-4.99673e-07
1.01431e-07
2.18251e-07
-4.82163e-07
1.1465e-07
1.96202e-07
-4.6224e-07
1.27641e-07
1.60657e-07
-4.42431e-07
1.39591e-07
1.1356e-07
-4.25056e-07
1.49614e-07
5.80066e-08
-4.12141e-07
1.56866e-07
-2.05071e-09
-4.05157e-07
1.60703e-07
-6.21928e-08
-4.04883e-07
1.60794e-07
-1.18003e-07
-4.11296e-07
1.5714e-07
-1.65522e-07
-4.23587e-07
1.50089e-07
-2.01665e-07
-4.40223e-07
1.40298e-07
-2.24475e-07
-4.5915e-07
1.28632e-07
-2.33245e-07
-4.77962e-07
1.16002e-07
-2.2845e-07
-4.94087e-07
1.03253e-07
-2.11582e-07
-5.0491e-07
9.10554e-08
-1.84942e-07
-5.07805e-07
7.98599e-08
-1.51396e-07
-5.0004e-07
6.98414e-08
-1.14132e-07
-4.78581e-07
6.08329e-08
-7.64957e-08
-4.39629e-07
5.22786e-08
-4.19395e-08
-3.77696e-07
4.31011e-08
-1.43721e-08
-2.83074e-07
3.14903e-08
-1.33923e-07
1.43863e-08
1.29434e-08
-1.70208e-07
1.29571e-08
3.94838e-08
-3.55918e-07
2.92295e-08
7.38806e-08
-4.71733e-07
4.10286e-08
1.1239e-07
-5.46288e-07
5.1073e-08
1.5122e-07
-5.92892e-07
6.0881e-08
1.8668e-07
-6.18798e-07
7.14e-08
2.15225e-07
-6.28879e-07
8.31064e-08
2.33717e-07
-6.26842e-07
9.61225e-08
2.39603e-07
-6.15827e-07
1.10268e-07
2.31172e-07
-5.98766e-07
1.25034e-07
2.07845e-07
-5.78569e-07
1.39655e-07
1.7027e-07
-5.58038e-07
1.53182e-07
1.20454e-07
-5.39798e-07
1.64558e-07
6.1658e-08
-5.26141e-07
1.72796e-07
-1.90857e-09
-5.1875e-07
1.77159e-07
-6.55381e-08
-5.1849e-07
1.77237e-07
-1.24517e-07
-5.25349e-07
1.73033e-07
-1.74639e-07
-5.38418e-07
1.64953e-07
-2.12637e-07
-5.55998e-07
1.53772e-07
-2.36486e-07
-5.75776e-07
1.40475e-07
-2.45504e-07
-5.95054e-07
1.2611e-07
-2.40258e-07
-6.11011e-07
1.11679e-07
-2.22371e-07
-6.20744e-07
9.79469e-08
-1.94303e-07
-6.21299e-07
8.54262e-08
-1.59048e-07
-6.09589e-07
7.42931e-08
-1.19923e-07
-5.82084e-07
6.43792e-08
-8.04078e-08
-5.34263e-07
5.51185e-08
-4.41037e-08
-4.59338e-07
4.53385e-08
-1.5121e-08
-3.45154e-07
3.30964e-08
-1.6418e-07
1.51362e-08
1.43936e-08
-1.9901e-07
1.44076e-08
4.26792e-08
-4.16015e-07
3.18117e-08
7.86769e-08
-5.51775e-07
4.40439e-08
1.1847e-07
-6.40372e-07
5.42908e-08
1.5835e-07
-6.97157e-07
6.43852e-08
1.94694e-07
-7.30548e-07
7.54069e-08
2.23995e-07
-7.4609e-07
8.79108e-08
2.43012e-07
-7.47893e-07
1.02033e-07
2.49121e-07
-7.39472e-07
1.17536e-07
2.40488e-07
-7.24005e-07
1.33872e-07
2.16381e-07
-7.04614e-07
1.50152e-07
1.7742e-07
-6.84348e-07
1.65272e-07
1.25645e-07
-6.66056e-07
1.78032e-07
6.44446e-08
-6.5224e-07
1.87299e-07
-1.7603e-09
-6.44727e-07
1.92182e-07
-6.80098e-08
-6.44489e-07
1.92248e-07
-1.29342e-07
-6.51517e-07
1.875e-07
-1.81327e-07
-6.64811e-07
1.78377e-07
-2.20559e-07
-6.82524e-07
1.65758e-07
-2.44993e-07
-7.02146e-07
1.50804e-07
-2.53982e-07
-7.20796e-07
1.34732e-07
-2.48215e-07
-7.35414e-07
1.18635e-07
-2.2946e-07
-7.42892e-07
1.03393e-07
-2.00291e-07
-7.40046e-07
8.95787e-08
-1.63823e-07
-7.23463e-07
7.74059e-08
-1.23459e-07
-6.8916e-07
6.67123e-08
-8.27687e-08
-6.31814e-07
5.68608e-08
-4.5405e-08
-5.43343e-07
4.6641e-08
-1.55749e-08
-4.09021e-07
3.40379e-08
-1.95345e-07
1.55907e-08
1.50089e-08
-2.29041e-07
1.5022e-08
4.40047e-08
-4.77883e-07
3.28725e-08
8.06103e-08
-6.33663e-07
4.52825e-08
1.20856e-07
-7.36277e-07
5.56592e-08
1.61125e-07
-8.03425e-07
6.59992e-08
1.97863e-07
-8.44788e-07
7.75023e-08
2.27572e-07
-8.66565e-07
9.07649e-08
2.47023e-07
-8.73264e-07
1.0592e-07
2.53488e-07
-8.68649e-07
1.22712e-07
2.45012e-07
-8.56055e-07
1.40526e-07
2.20754e-07
-8.38724e-07
1.58368e-07
1.8125e-07
-8.1986e-07
1.75016e-07
1.28521e-07
-8.02429e-07
1.89103e-07
6.604e-08
-7.89101e-07
1.99342e-07
-1.62189e-09
-7.81791e-07
2.04727e-07
-6.93118e-08
-7.81578e-07
2.0478e-07
-1.31879e-07
-7.88441e-07
1.99491e-07
-1.84727e-07
-8.0133e-07
1.89367e-07
-2.24396e-07
-8.18266e-07
1.75411e-07
-2.48845e-07
-8.36596e-07
1.58899e-07
-2.57485e-07
-8.53343e-07
1.41187e-07
-2.51163e-07
-8.65271e-07
1.23535e-07
-2.31781e-07
-8.692e-07
1.06925e-07
-2.02005e-07
-8.61782e-07
9.19607e-08
-1.65016e-07
-8.39344e-07
7.88919e-08
-1.24256e-07
-7.97476e-07
6.75555e-08
-8.32559e-08
-7.30127e-07
5.7313e-08
-4.56687e-08
-6.27825e-07
4.68951e-08
-1.56806e-08
-4.73213e-07
3.42031e-08
-2.26722e-07
1.56965e-08
1.49547e-08
-2.58962e-07
1.49672e-08
4.36251e-08
-5.3914e-07
3.25863e-08
7.97083e-08
-7.14548e-07
4.48016e-08
1.19316e-07
-8.30996e-07
5.51107e-08
1.59001e-07
-9.08686e-07
6.55753e-08
1.95314e-07
-9.58516e-07
7.74154e-08
2.24865e-07
-9.87359e-07
9.12426e-08
2.44478e-07
-1.00011e-06
1.07231e-07
2.51339e-07
-1.00061e-06
1.25097e-07
2.43436e-07
-9.92328e-07
1.44176e-07
2.19797e-07
-9.78492e-07
1.63407e-07
1.80787e-07
-9.62291e-07
1.81441e-07
1.28408e-07
-9.46799e-07
1.96749e-07
6.60893e-08
-9.34679e-07
2.07897e-07
-1.50148e-09
-9.27965e-07
2.13765e-07
-6.91074e-08
-9.2778e-07
2.13808e-07
-1.31462e-07
-9.34117e-07
2.08031e-07
-1.83925e-07
-9.4584e-07
1.96972e-07
-2.23002e-07
-9.60926e-07
1.81738e-07
-2.46716e-07
-9.76677e-07
1.63795e-07
-2.54679e-07
-9.90035e-07
1.44654e-07
-2.47816e-07
-9.9783e-07
1.25696e-07
-2.2815e-07
-9.96826e-07
1.0796e-07
-1.98429e-07
-9.83598e-07
9.20944e-08
-1.61819e-07
-9.54334e-07
7.83802e-08
-1.2168e-07
-9.04243e-07
6.66279e-08
-8.14704e-08
-8.26532e-07
5.61961e-08
-4.46947e-08
-7.10428e-07
4.58272e-08
-1.53549e-08
-5.35962e-07
3.34092e-08
-2.57448e-07
1.53703e-08
1.42744e-08
-2.87524e-07
1.42874e-08
4.15256e-08
-5.97388e-07
3.09969e-08
7.57684e-08
-7.91385e-07
4.25943e-08
1.13417e-07
-9.21162e-07
5.25183e-08
1.51236e-07
-1.00932e-06
6.28163e-08
1.86056e-07
-1.06804e-06
7.47059e-08
2.14676e-07
-1.10476e-06
8.8782e-08
2.34002e-07
-1.12469e-06
1.05254e-07
2.41277e-07
-1.13172e-06
1.23842e-07
2.34388e-07
-1.1293e-06
1.43858e-07
2.12223e-07
-1.12053e-06
1.64199e-07
1.7501e-07
-1.10845e-06
1.8337e-07
1.24564e-07
-1.09607e-06
1.99719e-07
6.42125e-08
-1.086e-06
2.11672e-07
-1.40652e-09
-1.08032e-06
2.17977e-07
-6.70304e-08
-1.08016e-06
2.18006e-07
-1.27399e-07
-1.08551e-06
2.11759e-07
-1.77859e-07
-1.09524e-06
1.99865e-07
-2.15062e-07
-1.10729e-06
1.83564e-07
-2.37221e-07
-1.11898e-06
1.64463e-07
-2.44085e-07
-1.12739e-06
1.44219e-07
-2.36741e-07
-1.12946e-06
1.24291e-07
-2.17283e-07
-1.12205e-06
1.05769e-07
-1.8846e-07
-1.1018e-06
8.93783e-08
-1.53319e-07
-1.06483e-06
7.53561e-08
-1.15096e-07
-1.00598e-06
6.35183e-08
-7.69824e-08
-9.17883e-07
5.32372e-08
-4.22119e-08
-7.88459e-07
4.32599e-08
-1.45248e-08
-5.95169e-07
3.15208e-08
-2.86512e-07
1.45396e-08
1.29407e-08
-3.1341e-07
1.29454e-08
3.75575e-08
-6.49997e-07
2.79921e-08
6.85122e-08
-8.60805e-07
3.84654e-08
1.02633e-07
-1.00291e-06
4.76316e-08
1.37126e-07
-1.10121e-06
5.73944e-08
1.69156e-07
-1.16898e-06
6.89114e-08
1.95827e-07
-1.21425e-06
8.28172e-08
2.14266e-07
-1.24241e-06
9.92849e-08
2.21843e-07
-1.25739e-06
1.18088e-07
2.16421e-07
-1.26241e-06
1.38531e-07
1.96756e-07
-1.26035e-06
1.59487e-07
1.62855e-07
-1.25401e-06
1.79463e-07
1.16235e-07
-1.24613e-06
1.96682e-07
6.00264e-08
-1.23915e-06
2.09363e-07
-1.33633e-09
-1.23505e-06
2.16085e-07
-6.26934e-08
-1.23491e-06
2.16101e-07
-1.18877e-07
-1.23874e-06
2.09414e-07
-1.65466e-07
-1.24542e-06
1.96769e-07
-1.9933e-07
-1.25303e-06
1.79607e-07
-2.18934e-07
-1.25906e-06
1.5968e-07
-2.24255e-07
-1.26081e-06
1.38744e-07
-2.16548e-07
-1.25554e-06
1.18366e-07
-1.97926e-07
-1.24031e-06
9.96346e-08
-1.71024e-07
-1.21192e-06
8.32206e-08
-1.38712e-07
-1.16651e-06
6.93722e-08
-1.03882e-07
-1.0987e-06
5.78858e-08
-6.93659e-08
-1.00051e-06
4.81082e-08
-3.80293e-08
-8.58699e-07
3.89032e-08
-1.30956e-08
-6.48435e-07
2.83325e-08
-3.12717e-07
1.31092e-08
1.09088e-08
-3.35233e-07
1.09139e-08
3.15903e-08
-6.9417e-07
2.34919e-08
5.76762e-08
-9.19212e-07
3.2321e-08
8.65728e-08
-1.07207e-06
4.02638e-08
1.16034e-07
-1.17969e-06
4.90223e-08
1.43737e-07
-1.25634e-06
5.96494e-08
1.67236e-07
-1.31048e-06
7.27288e-08
1.84015e-07
-1.34764e-06
8.84507e-08
1.91683e-07
-1.37171e-06
1.06654e-07
1.88143e-07
-1.38562e-06
1.26757e-07
1.72032e-07
-1.39191e-06
1.47673e-07
1.4313e-07
-1.39298e-06
1.67869e-07
1.02573e-07
-1.39105e-06
1.85474e-07
5.30731e-08
-1.38828e-06
1.98627e-07
-1.29044e-09
-1.38635e-06
2.05666e-07
-5.56392e-08
-1.38623e-06
2.0567e-07
-1.05103e-07
-1.38792e-06
1.98643e-07
-1.45594e-07
-1.39044e-06
1.85506e-07
-1.74413e-07
-1.39212e-06
1.67908e-07
-1.90389e-07
-1.39083e-06
1.47747e-07
-1.9377e-07
-1.38433e-06
1.26899e-07
-1.85947e-07
-1.37021e-06
1.06845e-07
-1.68976e-07
-1.34595e-06
8.86658e-08
-1.45221e-07
-1.30866e-06
7.2985e-08
-1.17254e-07
-1.25442e-06
5.99383e-08
-8.74842e-08
-1.1778e-06
4.93313e-08
-5.82936e-08
-1.07027e-06
4.05718e-08
-3.19294e-08
-9.17668e-07
3.26051e-08
-1.10118e-08
-6.93068e-07
2.37154e-08
-3.34753e-07
1.10242e-08
8.16092e-09
-3.51557e-07
8.16307e-09
2.3605e-08
-7.27071e-07
1.74569e-08
4.31212e-08
-9.62789e-07
2.40615e-08
6.49757e-08
-1.1242e-06
3.02704e-08
8.75846e-08
-1.23976e-06
3.74627e-08
1.09274e-07
-1.32454e-06
4.65158e-08
1.28197e-07
-1.38735e-06
5.79478e-08
1.4235e-07
-1.4338e-06
7.20047e-08
1.49683e-07
-1.46762e-06
8.8576e-08
1.48314e-07
-1.49142e-06
1.07169e-07
1.36867e-07
-1.50729e-06
1.26831e-07
1.14774e-07
-1.51709e-06
1.462e-07
8.27403e-08
-1.52244e-06
1.63421e-07
4.29038e-08
-1.52493e-06
1.76487e-07
-1.26196e-09
-1.52575e-06
1.83572e-07
-4.54045e-08
-1.52565e-06
1.83567e-07
-8.51781e-08
-1.52462e-06
1.76478e-07
-1.17107e-07
-1.52192e-06
1.63413e-07
-1.39087e-07
-1.51636e-06
1.46217e-07
-1.50387e-07
-1.5064e-06
1.26871e-07
-1.51602e-07
-1.49033e-06
1.07215e-07
-1.44071e-07
-1.46639e-06
8.86545e-08
-1.29679e-07
-1.43245e-06
7.21151e-08
-1.10536e-07
-1.38589e-06
5.80897e-08
-8.85794e-08
-1.32306e-06
4.66839e-08
-6.57129e-08
-1.23832e-06
3.76491e-08
-4.35821e-08
-1.12286e-06
3.04617e-08
-2.3826e-08
-9.61666e-07
2.42418e-08
-8.22855e-09
-7.2627e-07
1.76038e-08
-3.51221e-07
8.23961e-09
4.71552e-09
-3.60991e-07
4.71898e-09
1.35943e-08
-7.45886e-07
9.93608e-09
2.49715e-08
-9.87932e-07
1.37661e-08
3.79907e-08
-1.15493e-06
1.77128e-08
5.19357e-08
-1.27643e-06
2.27196e-08
6.58599e-08
-1.3679e-06
2.94329e-08
7.86752e-08
-1.43839e-06
3.82276e-08
8.90418e-08
-1.49351e-06
4.93442e-08
9.54479e-08
-1.53681e-06
6.27793e-08
9.63477e-08
-1.57056e-06
7.82363e-08
9.04278e-08
-1.59637e-06
9.49917e-08
7.69284e-08
-1.61542e-06
1.1183e-07
5.60279e-08
-1.62864e-06
1.27104e-07
2.91021e-08
-1.63692e-06
1.38915e-07
-1.24693e-09
-1.6408e-06
1.45394e-07
-3.15709e-08
-1.64073e-06
1.454e-07
-5.84343e-08
-1.63666e-06
1.38901e-07
-7.92056e-08
-1.62821e-06
1.27056e-07
-9.25517e-08
-1.61479e-06
1.11779e-07
-9.82932e-08
-1.59561e-06
9.49501e-08
-9.71932e-08
-1.56964e-06
7.8211e-08
-9.05716e-08
-1.53579e-06
6.27768e-08
-7.99746e-08
-1.49242e-06
4.9369e-08
-6.69198e-08
-1.43723e-06
3.82796e-08
-5.27419e-08
-1.36675e-06
2.95088e-08
-3.85667e-08
-1.27531e-06
2.2814e-08
-2.53248e-08
-1.15392e-06
1.78181e-08
-1.37628e-08
-9.87099e-07
1.38717e-08
-4.76354e-09
-7.45298e-07
1.00293e-08
-3.60758e-07
4.7736e-09
6.6046e-10
-3.62306e-07
6.54569e-10
1.85e-09
-7.48192e-07
1.11707e-09
3.65598e-09
-9.9139e-07
1.65129e-09
6.28413e-09
-1.16041e-06
2.84999e-09
9.86695e-09
-1.28507e-06
5.06231e-09
1.44053e-08
-1.38103e-06
8.59886e-09
1.9623e-08
-1.45735e-06
1.37385e-08
2.50149e-08
-1.51951e-06
2.06111e-08
2.97573e-08
-1.57085e-06
2.93008e-08
3.27954e-08
-1.61328e-06
3.96791e-08
3.30963e-08
-1.64796e-06
5.12901e-08
2.97413e-08
-1.67543e-06
6.33667e-08
2.24532e-08
-1.69598e-06
7.4628e-08
1.16546e-08
-1.70968e-06
8.35631e-08
-1.23966e-09
-1.7165e-06
8.85982e-08
-1.41035e-08
-1.71644e-06
8.85781e-08
-2.48208e-08
-1.70945e-06
8.35099e-08
-3.19732e-08
-1.6956e-06
7.45485e-08
-3.51455e-08
-1.67491e-06
6.3296e-08
-3.46585e-08
-1.64731e-06
5.12163e-08
-3.13879e-08
-1.61251e-06
3.95965e-08
-2.64147e-08
-1.57e-06
2.92357e-08
-2.07954e-08
-1.51861e-06
2.057e-08
-1.53268e-08
-1.45642e-06
1.37215e-08
-1.05744e-08
-1.3801e-06
8.60431e-09
-6.76049e-09
-1.28421e-06
5.0891e-09
-3.93672e-09
-1.15964e-06
2.89336e-09
-1.98896e-09
-9.90754e-07
1.70693e-09
-6.85129e-10
-7.47777e-07
1.17466e-09
-3.62138e-07
6.94575e-10
-3.85223e-09
-3.54597e-07
-3.85667e-09
-1.11611e-08
-7.32247e-07
-8.6361e-09
-1.99718e-08
-9.70833e-07
-1.1746e-08
-2.89304e-08
-1.13774e-06
-1.37083e-08
-3.69559e-08
-1.26225e-06
-1.47937e-08
-4.31086e-08
-1.35978e-06
-1.51062e-08
-4.67135e-08
-1.43914e-06
-1.46038e-08
-4.73593e-08
-1.50567e-06
-1.31925e-08
-4.50457e-08
-1.56236e-06
-1.08009e-08
-4.00764e-08
-1.6109e-06
-7.34796e-09
-3.31616e-08
-1.65196e-06
-2.90988e-09
-2.51582e-08
-1.68562e-06
2.19326e-09
-1.68887e-08
-1.71155e-06
7.30424e-09
-8.9028e-09
-1.72928e-06
1.16071e-08
-1.23446e-09
-1.73827e-06
1.40996e-08
6.4703e-09
-1.7382e-06
1.40513e-08
1.45644e-08
-1.72906e-06
1.15159e-08
2.29656e-08
-1.7112e-06
7.19917e-09
3.11437e-08
-1.68514e-06
2.04557e-09
3.82745e-08
-1.65138e-06
-3.06391e-09
4.34758e-08
-1.61024e-06
-7.4768e-09
4.60422e-08
-1.56165e-06
-1.09147e-08
4.56287e-08
-1.50491e-06
-1.32874e-08
4.22743e-08
-1.43839e-06
-1.4675e-08
3.63495e-08
-1.35903e-06
-1.51529e-08
2.85217e-08
-1.26156e-06
-1.48192e-08
1.974e-08
-1.13715e-06
-1.37111e-08
1.10782e-08
-9.70364e-07
-1.17285e-08
3.83519e-09
-7.31929e-07
-8.60408e-09
-3.54477e-07
-3.82592e-09
-8.59453e-09
-3.37404e-07
-8.59847e-09
-2.48007e-08
-6.97168e-07
-1.88728e-08
-4.46888e-08
-9.25136e-07
-2.58092e-08
-6.58151e-08
-1.0855e-06
-3.11183e-08
-8.60908e-08
-1.20621e-06
-3.5766e-08
-1.03651e-07
-1.30189e-06
-4.03281e-08
-1.1678e-07
-1.38096e-06
-4.5045e-08
-1.24137e-07
-1.44839e-06
-4.9932e-08
-1.24731e-07
-1.50694e-06
-5.4827e-08
-1.18127e-07
-1.55802e-06
-5.94804e-08
-1.04489e-07
-1.60198e-06
-6.36227e-08
-8.45665e-08
-1.63856e-06
-6.69876e-08
-5.96233e-08
-1.66709e-06
-6.94082e-08
-3.12671e-08
-1.68678e-06
-7.08511e-08
-1.22289e-09
-1.69684e-06
-7.14721e-08
2.88529e-08
-1.69677e-06
-7.15009e-08
5.7294e-08
-1.68657e-06
-7.09289e-08
8.24051e-08
-1.66679e-06
-6.95275e-08
1.02518e-07
-1.63812e-06
-6.71331e-08
1.16378e-07
-1.60146e-06
-6.3779e-08
1.23222e-07
-1.55744e-06
-5.96373e-08
1.22865e-07
-1.50632e-06
-5.49737e-08
1.15766e-07
-1.44775e-06
-5.00618e-08
1.02864e-07
-1.38033e-06
-4.51537e-08
8.55287e-08
-1.30128e-06
-4.04126e-08
6.54599e-08
-1.20567e-06
-3.58259e-08
4.44995e-08
-1.08503e-06
-3.11526e-08
2.47183e-08
-9.24764e-07
-2.58185e-08
8.58415e-09
-6.96937e-07
-1.88587e-08
-3.37318e-07
-8.57465e-09
-1.32573e-08
-3.10885e-07
-1.32623e-08
-3.81952e-08
-6.43328e-07
-2.8902e-08
-6.89938e-08
-8.5477e-07
-3.95675e-08
-1.02095e-07
-1.00419e-06
-4.82042e-08
-1.34513e-07
-1.11731e-06
-5.64831e-08
-1.63433e-07
-1.2076e-06
-6.53717e-08
-1.86174e-07
-1.28283e-06
-7.53876e-08
-2.00371e-07
-1.34751e-06
-8.66767e-08
-2.04074e-07
-1.40418e-06
-9.90594e-08
-1.96035e-07
-1.45392e-06
-1.12143e-07
-1.75837e-07
-1.49696e-06
-1.25212e-07
-1.44111e-07
-1.53292e-06
-1.37363e-07
-1.02519e-07
-1.56103e-06
-1.47649e-07
-5.37526e-08
-1.58045e-06
-1.55102e-07
-1.20403e-09
-1.59036e-06
-1.59029e-07
5.1381e-08
-1.5903e-06
-1.59057e-07
1.00251e-07
-1.58028e-06
-1.55162e-07
1.41978e-07
-1.56076e-06
-1.4775e-07
1.73902e-07
-1.53253e-06
-1.37512e-07
1.94325e-07
-1.4965e-06
-1.2538e-07
2.02606e-07
-1.45341e-06
-1.12315e-07
1.99141e-07
-1.40363e-06
-9.92248e-08
1.85202e-07
-1.34698e-06
-8.68275e-08
1.62688e-07
-1.2823e-06
-7.55204e-08
1.33995e-07
-1.2071e-06
-6.54807e-08
1.01762e-07
-1.11687e-06
-5.65664e-08
6.88186e-08
-1.00383e-06
-4.82604e-08
3.81378e-08
-8.54489e-07
-3.95938e-08
1.32521e-08
-6.43152e-07
-2.88987e-08
-3.10824e-07
-1.3242e-08
-1.75265e-08
-2.75828e-07
-1.75304e-08
-5.04331e-08
-5.72371e-07
-3.80504e-08
-9.11721e-08
-7.61903e-07
-5.21279e-08
-1.35267e-07
-8.96312e-07
-6.37857e-08
-1.78889e-07
-9.98343e-07
-7.53468e-08
-2.18332e-07
-1.07994e-06
-8.82159e-08
-2.50036e-07
-1.148e-06
-1.03128e-07
-2.70646e-07
-1.20659e-06
-1.20316e-07
-2.77333e-07
-1.25786e-06
-1.39626e-07
-2.68033e-07
-1.30281e-06
-1.60411e-07
-2.41823e-07
-1.34159e-06
-1.81582e-07
-1.99196e-07
-1.37382e-06
-2.01731e-07
-1.42206e-07
-1.39891e-06
-2.1911e-07
-7.45408e-08
-1.41615e-06
-2.31957e-07
-1.17498e-09
-1.42493e-06
-2.38799e-07
7.222e-08
-1.42487e-06
-2.38823e-07
1.3998e-07
-1.41599e-06
-2.32051e-07
1.97106e-07
-1.39865e-06
-2.19242e-07
2.39945e-07
-1.37349e-06
-2.01876e-07
2.66365e-07
-1.34118e-06
-1.81745e-07
2.75895e-07
-1.30236e-06
-1.60581e-07
2.69463e-07
-1.2574e-06
-1.39796e-07
2.4908e-07
-1.20612e-06
-1.20476e-07
2.17618e-07
-1.14756e-06
-1.03272e-07
1.78381e-07
-1.07953e-06
-8.8339e-08
1.34948e-07
-9.97989e-07
-7.54464e-08
9.10117e-08
-8.96047e-07
-6.38459e-08
5.03713e-08
-7.61694e-07
-5.2155e-08
1.75235e-08
-5.72249e-07
-3.80557e-08
-2.75787e-07
-1.75133e-08
-2.10527e-08
-2.33719e-07
-2.10564e-08
-6.05198e-08
-4.87333e-07
-4.55711e-08
-1.0952e-07
-6.50517e-07
-6.23856e-08
-1.62817e-07
-7.66525e-07
-7.64898e-08
-2.15925e-07
-8.54487e-07
-9.07481e-08
-2.64384e-07
-9.24597e-07
-1.06882e-07
-3.03773e-07
-9.82793e-07
-1.2582e-07
-3.29917e-07
-1.03255e-06
-1.47891e-07
-3.39183e-07
-1.07577e-06
-1.72832e-07
-3.28838e-07
-1.11333e-06
-1.99824e-07
-2.97539e-07
-1.14538e-06
-2.27511e-07
-2.45626e-07
-1.17176e-06
-2.53973e-07
-1.75616e-07
-1.19204e-06
-2.7688e-07
-9.20287e-08
-1.20584e-06
-2.93899e-07
-1.13207e-09
-1.2128e-06
-3.03022e-07
8.97937e-08
-1.21275e-06
-3.03043e-07
1.73466e-07
-1.2057e-06
-2.93964e-07
2.43626e-07
-1.19182e-06
-2.76984e-07
2.9569e-07
-1.17145e-06
-2.54106e-07
3.27221e-07
-1.14504e-06
-2.27667e-07
3.37795e-07
-1.11294e-06
-1.99987e-07
3.28776e-07
-1.07538e-06
-1.73e-07
3.02867e-07
-1.03216e-06
-1.48053e-07
2.63697e-07
-9.82426e-07
-1.25967e-07
2.15454e-07
-9.24274e-07
-1.07011e-07
1.62533e-07
-8.54213e-07
-9.08548e-08
1.0937e-07
-7.66304e-07
-7.65802e-08
6.04705e-08
-6.50356e-07
-6.24385e-08
2.10516e-08
-4.87248e-07
-4.55815e-08
-2.33694e-07
-2.10412e-08
-2.34827e-08
-1.86753e-07
-2.34832e-08
-6.75189e-08
-3.9257e-07
-5.07272e-08
-1.22414e-07
-5.26238e-07
-6.93838e-08
-1.82472e-07
-6.21357e-07
-8.51099e-08
-2.42694e-07
-6.93079e-07
-1.01185e-07
-2.98022e-07
-7.4969e-07
-1.19578e-07
-3.43364e-07
-7.96121e-07
-1.41331e-07
-3.73853e-07
-8.35266e-07
-1.66795e-07
-3.85189e-07
-8.6878e-07
-1.95651e-07
-3.74128e-07
-8.97437e-07
-2.26951e-07
-3.38999e-07
-9.21465e-07
-2.59041e-07
-2.80182e-07
-9.4087e-07
-2.89705e-07
-2.00442e-07
-9.55522e-07
-3.16259e-07
-1.04988e-07
-9.65329e-07
-3.35969e-07
-1.07662e-09
-9.70227e-07
-3.46487e-07
1.0286e-07
-9.70186e-07
-3.46505e-07
1.98395e-07
-9.65209e-07
-3.36024e-07
2.78256e-07
-9.55336e-07
-3.1635e-07
3.37251e-07
-9.40622e-07
-2.89821e-07
3.72579e-07
-9.21187e-07
-2.59182e-07
3.83861e-07
-8.97124e-07
-2.27101e-07
3.72745e-07
-8.6846e-07
-1.95807e-07
3.42501e-07
-8.34967e-07
-1.66948e-07
2.97366e-07
-7.95818e-07
-1.41473e-07
2.42239e-07
-7.4944e-07
-1.19707e-07
1.82184e-07
-6.92864e-07
-1.01294e-07
1.22266e-07
-6.21195e-07
-8.51913e-08
6.7476e-08
-5.26133e-07
-6.94325e-08
2.34797e-08
-3.92511e-07
-5.07406e-08
-1.86744e-07
-2.34704e-08
-2.44673e-08
-1.37814e-07
-2.44717e-08
-7.05379e-08
-2.93739e-07
-5.27594e-08
-1.28355e-07
-3.9636e-07
-7.20617e-08
-1.92161e-07
-4.69207e-07
-8.83436e-08
-2.56647e-07
-5.23476e-07
-1.05116e-07
-3.16315e-07
-5.65519e-07
-1.24504e-07
-3.65576e-07
-5.99242e-07
-1.47618e-07
-3.99002e-07
-6.2705e-07
-1.7479e-07
-4.11889e-07
-6.50254e-07
-2.0564e-07
-4.00629e-07
-6.69589e-07
-2.39108e-07
-3.63366e-07
-6.85337e-07
-2.73391e-07
-3.00494e-07
-6.97671e-07
-3.06071e-07
-2.15024e-07
-7.06718e-07
-3.34275e-07
-1.1258e-07
-7.12606e-07
-3.55167e-07
-1.0054e-09
-7.15483e-07
-3.66318e-07
1.10593e-07
-7.15452e-07
-3.66333e-07
2.1311e-07
-7.12513e-07
-3.55213e-07
2.98705e-07
-7.06586e-07
-3.34345e-07
3.6173e-07
-6.97497e-07
-3.06151e-07
3.99166e-07
-6.85123e-07
-2.73499e-07
4.10631e-07
-6.69347e-07
-2.39243e-07
3.97972e-07
-6.50017e-07
-2.05784e-07
3.64746e-07
-6.26807e-07
-1.74934e-07
3.15707e-07
-5.99026e-07
-1.47754e-07
2.56224e-07
-5.65328e-07
-1.24629e-07
1.91897e-07
-5.23316e-07
-1.05221e-07
1.28226e-07
-4.69098e-07
-8.84257e-08
7.04918e-08
-3.96287e-07
-7.21121e-08
2.44689e-08
-2.93713e-07
-5.27758e-08
-1.37814e-07
-2.44612e-08
-2.36712e-08
-9.0469e-08
-2.36734e-08
-6.8726e-08
-1.97755e-07
-5.09293e-08
-1.26072e-07
-2.69663e-07
-6.93502e-08
-1.90207e-07
-3.20231e-07
-8.48414e-08
-2.55738e-07
-3.56994e-07
-1.00951e-07
-3.16901e-07
-3.84513e-07
-1.19843e-07
-3.67766e-07
-4.05733e-07
-1.42643e-07
-4.02662e-07
-4.22493e-07
-1.69661e-07
-4.16591e-07
-4.35866e-07
-2.00459e-07
-4.05823e-07
-4.46452e-07
-2.33904e-07
-3.68435e-07
-4.54593e-07
-2.68133e-07
-3.04862e-07
-4.60557e-07
-3.00688e-07
-2.18192e-07
-4.64634e-07
-3.28754e-07
-1.14205e-07
-4.67098e-07
-3.49495e-07
-9.17132e-10
-4.68237e-07
-3.60534e-07
1.12392e-07
-4.68214e-07
-3.60547e-07
2.16443e-07
-4.67032e-07
-3.49533e-07
3.03218e-07
-4.64529e-07
-3.28831e-07
3.66936e-07
-4.60422e-07
-3.00792e-07
4.04484e-07
-4.54429e-07
-2.68242e-07
4.15442e-07
-4.46281e-07
-2.34024e-07
4.017e-07
-4.35687e-07
-2.00588e-07
3.6701e-07
-4.22325e-07
-1.69792e-07
3.16332e-07
-4.05578e-07
-1.42769e-07
2.55344e-07
-3.8438e-07
-1.19959e-07
1.89967e-07
-3.56889e-07
-1.01051e-07
1.25952e-07
-3.20162e-07
-8.49214e-08
6.86897e-08
-2.69624e-07
-6.94008e-08
2.36711e-08
-1.97746e-07
-5.09482e-08
-9.04766e-08
-2.3666e-08
-2.07619e-08
-4.89427e-08
-2.07644e-08
-6.14247e-08
-1.12589e-07
-4.45034e-08
-1.1459e-07
-1.56302e-07
-6.01954e-08
-1.75336e-07