/*--------------------------------*- C++ -*----------------------------------*\
| =========                 |                                                 |
| \\      /  F ield         | OpenFOAM: The Open Source CFD Toolbox           |
|  \\    /   O peration     | Version:  v1906                                 |
|   \\  /    A nd           | Web:      www.OpenFOAM.com                      |
|    \\/     M anipulation  |                                                 |
\*---------------------------------------------------------------------------*/
FoamFile
{
    version     2.0;
    format      ascii;
    class       volVectorField;
    location    "70/oil";
    object      U;
}
// * * * * * * * * * * * * * * * * * * * * * * * * * * * * * * * * * * * * * //

dimensions      [0 1 -1 0 0 0 0];


internalField   nonuniform List<vector> 
27760
(
(-2.46778e-05 -2.51485e-05 -2.46778e-05)
(-4.87096e-05 -1.88647e-05 -1.77791e-05)
(-3.5458e-06 -4.8894e-06 -4.86832e-06)
(-5.77389e-06 -7.93667e-07 -8.96415e-07)
(-1.15783e-06 -2.49163e-07 -3.70202e-07)
(-3.9684e-07 -9.78393e-08 -2.30349e-07)
(2.87081e-07 -6.03518e-09 -1.49217e-07)
(6.32674e-07 3.47225e-08 -1.16825e-07)
(8.26011e-07 5.86127e-08 -9.87489e-08)
(8.99985e-07 7.41093e-08 -8.67642e-08)
(8.78522e-07 8.53873e-08 -7.68944e-08)
(7.75157e-07 9.40194e-08 -6.8468e-08)
(6.03482e-07 1.00522e-07 -6.15698e-08)
(3.79479e-07 1.04965e-07 -5.65904e-08)
(1.22095e-07 1.07286e-07 -5.39187e-08)
(-1.47571e-07 1.07442e-07 -5.37665e-08)
(-4.07839e-07 1.05476e-07 -5.60891e-08)
(-6.38261e-07 1.01543e-07 -6.05605e-08)
(-8.21474e-07 9.59019e-08 -6.65947e-08)
(-9.4467e-07 8.88662e-08 -7.33946e-08)
(-1.00065e-06 8.08005e-08 -8.00356e-08)
(-9.88272e-07 7.18765e-08 -8.53265e-08)
(-9.12379e-07 6.24394e-08 -8.83538e-08)
(-7.83527e-07 5.27284e-08 -8.81688e-08)
(-6.17308e-07 4.29917e-08 -8.39019e-08)
(-4.33536e-07 3.36613e-08 -7.49937e-08)
(-2.55285e-07 2.56257e-08 -6.15294e-08)
(-1.07569e-07 2.04928e-08 -4.4691e-08)
(-1.28168e-08 2.03247e-08 -2.77199e-08)
(1.10788e-08 2.17102e-08 -1.10271e-08)
(-1.79012e-05 -5.00523e-05 -1.79012e-05)
(-5.84808e-06 -6.5122e-06 -8.01686e-06)
(-7.85742e-06 -7.89513e-06 -2.80502e-06)
(-3.47606e-06 -2.31779e-06 -8.08855e-07)
(-1.09912e-06 -1.42427e-06 -4.08718e-07)
(9.35461e-08 -7.8482e-07 -2.07791e-07)
(9.62797e-07 -4.96661e-07 -1.08752e-07)
(1.49339e-06 -3.25884e-07 -5.83325e-08)
(1.80001e-06 -2.12038e-07 -2.63104e-08)
(1.90867e-06 -1.24361e-07 -2.60295e-09)
(1.84079e-06 -5.18696e-08 1.74321e-08)
(1.61427e-06 8.56015e-09 3.45804e-08)
(1.25222e-06 5.64861e-08 4.85201e-08)
(7.85242e-07 9.02402e-08 5.85023e-08)
(2.50993e-07 1.08181e-07 6.3832e-08)
(-3.08054e-07 1.09439e-07 6.4126e-08)
(-8.48021e-07 9.42878e-08 5.94592e-08)
(-1.32749e-06 6.42554e-08 5.04002e-08)
(-1.71124e-06 2.20081e-08 3.79615e-08)
(-1.97332e-06 -2.89279e-08 2.34976e-08)
(-2.09932e-06 -8.44922e-08 8.53418e-09)
(-2.08692e-06 -1.40448e-07 -5.08853e-09)
(-1.94586e-06 -1.92498e-07 -1.59734e-08)
(-1.69748e-06 -2.36338e-07 -2.28636e-08)
(-1.37263e-06 -2.67336e-07 -2.47863e-08)
(-1.00969e-06 -2.80077e-07 -2.13854e-08)
(-6.5169e-07 -2.67702e-07 -1.33164e-08)
(-3.4206e-07 -2.22075e-07 -2.80438e-09)
(-1.1813e-07 -1.35943e-07 5.30202e-09)
(-5.83557e-09 -2.45788e-08 5.9138e-09)
(-4.94755e-06 -4.73628e-06 -4.94748e-06)
(-7.73769e-06 -8.93158e-06 -2.85292e-06)
(-3.90648e-06 -5.15813e-06 -1.24807e-06)
(-2.08589e-06 -3.09483e-06 -5.79624e-07)
(-3.74009e-07 -2.24064e-06 -2.62115e-07)
(7.55035e-07 -1.68922e-06 -1.05339e-07)
(1.60854e-06 -1.37323e-06 -2.14492e-08)
(2.17716e-06 -1.14832e-06 2.72531e-08)
(2.50866e-06 -9.68513e-07 6.16559e-08)
(2.61063e-06 -8.11144e-07 8.93478e-08)
(2.49451e-06 -6.70163e-07 1.13525e-07)
(2.17644e-06 -5.47207e-07 1.34535e-07)
(1.6833e-06 -4.47207e-07 1.51712e-07)
(1.05362e-06 -3.75811e-07 1.64021e-07)
(3.36105e-07 -3.37618e-07 1.70587e-07)
(-4.13713e-07 -3.35002e-07 1.70927e-07)
(-1.13821e-06 -3.67479e-07 1.65115e-07)
(-1.78293e-06 -4.31557e-07 1.53816e-07)
(-2.3016e-06 -5.21022e-07 1.38205e-07)
(-2.66019e-06 -6.27527e-07 1.19864e-07)
(-2.83969e-06 -7.41409e-07 1.00549e-07)
(-2.83721e-06 -8.52131e-07 8.21064e-08)
(-2.66561e-06 -9.49125e-07 6.612e-08)
(-2.35222e-06 -1.02157e-06 5.38796e-08)
(-1.93608e-06 -1.058e-06 4.61649e-08)
(-1.4649e-06 -1.04576e-06 4.30245e-08)
(-9.90792e-07 -9.70105e-07 4.34095e-08)
(-5.64214e-07 -8.14454e-07 4.44985e-08)
(-2.3041e-07 -5.61784e-07 4.08348e-08)
(-2.26837e-08 -2.11842e-07 2.27793e-08)
(-8.82958e-07 -6.91551e-06 -8.82873e-07)
(-1.95669e-06 -5.50438e-06 -7.8605e-07)
(-1.47929e-06 -4.76947e-06 -5.55673e-07)
(-5.52065e-07 -3.80364e-06 -2.70888e-07)
(5.6481e-07 -3.27309e-06 -1.03167e-07)
(1.48818e-06 -2.8833e-06 -5.50662e-09)
(2.24783e-06 -2.60178e-06 5.5584e-08)
(2.7891e-06 -2.35705e-06 9.73258e-08)
(3.10376e-06 -2.12741e-06 1.30707e-07)
(3.17801e-06 -1.90499e-06 1.59922e-07)
(3.0111e-06 -1.69375e-06 1.86454e-07)
(2.61494e-06 -1.50328e-06 2.0994e-07)
(2.01722e-06 -1.34541e-06 2.29288e-07)
(1.26114e-06 -1.23156e-06 2.43198e-07)
(4.029e-07 -1.17042e-06 2.50612e-07)
(-4.92685e-07 -1.16648e-06 2.50955e-07)
(-1.35805e-06 -1.21913e-06 2.44295e-07)
(-2.12926e-06 -1.32245e-06 2.31355e-07)
(-2.752e-06 -1.46577e-06 2.13441e-07)
(-3.18651e-06 -1.6347e-06 1.92283e-07)
(-3.41063e-06 -1.81241e-06 1.69787e-07)
(-3.42107e-06 -1.98078e-06 1.47857e-07)
(-3.23269e-06 -2.12121e-06 1.2814e-07)
(-2.87659e-06 -2.21487e-06 1.11905e-07)
(-2.39672e-06 -2.2422e-06 9.98112e-08)
(-1.84592e-06 -2.18225e-06 9.17433e-08)
(-1.2813e-06 -2.01135e-06 8.64844e-08)
(-7.57482e-07 -1.70215e-06 8.08333e-08)
(-3.27665e-07 -1.22005e-06 6.88054e-08)
(-3.64406e-08 -5.20399e-07 3.65567e-08)
(-2.79398e-07 -2.69571e-06 -2.79294e-07)
(-8.4677e-07 -4.26451e-06 -3.25058e-07)
(-3.43297e-07 -4.68546e-06 -2.08613e-07)
(3.99844e-07 -4.59639e-06 -8.07013e-08)
(1.29321e-06 -4.47544e-06 9.03133e-09)
(2.1152e-06 -4.3006e-06 6.97129e-08)
(2.81776e-06 -4.10161e-06 1.14218e-07)
(3.33324e-06 -3.86884e-06 1.49977e-07)
(3.62633e-06 -3.60846e-06 1.82193e-07)
(3.67016e-06 -3.33127e-06 2.12579e-07)
(3.45524e-06 -3.05419e-06 2.41237e-07)
(2.98995e-06 -2.79722e-06 2.67101e-07)
(2.30222e-06 -2.58085e-06 2.88608e-07)
(1.43866e-06 -2.42349e-06 3.04144e-07)
(4.61465e-07 -2.33879e-06 3.12419e-07)
(-5.56937e-07 -2.3338e-06 3.12742e-07)
(-1.54072e-06 -2.40786e-06 3.05165e-07)
(-2.41808e-06 -2.55243e-06 2.90493e-07)
(-3.12812e-06 -2.75187e-06 2.70204e-07)
(-3.62644e-06 -2.985e-06 2.46203e-07)
(-3.88851e-06 -3.22703e-06 2.20597e-07)
(-3.91087e-06 -3.45133e-06 1.95433e-07)
(-3.70995e-06 -3.63054e-06 1.72442e-07)
(-3.31967e-06 -3.73715e-06 1.52909e-07)
(-2.78748e-06 -3.74304e-06 1.37458e-07)
(-2.16982e-06 -3.61829e-06 1.25887e-07)
(-1.52759e-06 -3.32903e-06 1.16879e-07)
(-9.19386e-07 -2.8337e-06 1.06913e-07)
(-4.06889e-07 -2.07136e-06 8.94147e-08)
(-4.68928e-08 -9.28932e-07 4.70335e-08)
(-1.0448e-07 -2.50051e-06 -1.04355e-07)
(-9.8302e-08 -4.39894e-06 -9.14493e-08)
(3.83904e-07 -5.35586e-06 -3.20534e-08)
(1.06747e-06 -5.77363e-06 3.06375e-08)
(1.87045e-06 -5.95653e-06 8.16488e-08)
(2.64588e-06 -5.96396e-06 1.21952e-07)
(3.32004e-06 -5.8505e-06 1.56904e-07)
(3.81992e-06 -5.64061e-06 1.89561e-07)
(4.096e-06 -5.36083e-06 2.22018e-07)
(4.11292e-06 -5.03804e-06 2.5444e-07)
(3.85503e-06 -4.70176e-06 2.8595e-07)
(3.32789e-06 -4.3827e-06 3.14856e-07)
(2.55962e-06 -4.11061e-06 3.39109e-07)
(1.59979e-06 -3.91132e-06 3.56701e-07)
(5.16049e-07 -3.80391e-06 3.66067e-07)
(-6.12239e-07 -3.79823e-06 3.66361e-07)
(-1.70167e-06 -3.89362e-06 3.57621e-07)
(-2.67322e-06 -4.07885e-06 3.40772e-07)
(-3.46006e-06 -4.33308e-06 3.17517e-07)
(-4.01371e-06 -4.62805e-06 2.90053e-07)
(-4.30789e-06 -4.93082e-06 2.60781e-07)
(-4.33911e-06 -5.20583e-06 2.31968e-07)
(-4.1255e-06 -5.41684e-06 2.05493e-07)
(-3.70361e-06 -5.52754e-06 1.82737e-07)
(-3.12394e-06 -5.50089e-06 1.64342e-07)
(-2.4462e-06 -5.29743e-06 1.50061e-07)
(-1.73494e-06 -4.87156e-06 1.38481e-07)
(-1.05303e-06 -4.16375e-06 1.2576e-07)
(-4.70362e-07 -3.07862e-06 1.04668e-07)
(-5.48199e-08 -1.4166e-06 5.49892e-08)
(-5.1941e-09 -2.49294e-06 -5.04642e-09)
(2.38149e-07 -4.9642e-06 2.45609e-08)
(7.90176e-07 -6.40309e-06 6.1126e-08)
(1.50298e-06 -7.22059e-06 9.649e-08)
(2.30044e-06 -7.66705e-06 1.28745e-07)
(3.07485e-06 -7.84175e-06 1.58757e-07)
(3.74821e-06 -7.81697e-06 1.89191e-07)
(4.24708e-06 -7.63968e-06 2.21254e-07)
(4.5153e-06 -7.35245e-06 2.55452e-07)
(4.51234e-06 -6.99567e-06 2.91014e-07)
(4.21833e-06 -6.61043e-06 3.26333e-07)
(3.63679e-06 -6.23774e-06 3.59153e-07)
(2.79609e-06 -5.91627e-06 3.86899e-07)
(1.74878e-06 -5.67937e-06 4.07092e-07)
(5.67681e-07 -5.55156e-06 4.17827e-07)
(-6.61084e-07 -5.54554e-06 4.18089e-07)
(-1.84683e-06 -5.66074e-06 4.07904e-07)
(-2.9036e-06 -5.88322e-06 3.88338e-07)
(-3.75892e-06 -6.18708e-06 3.61386e-07)
(-4.36072e-06 -6.53709e-06 3.29658e-07)
(-4.68122e-06 -6.8922e-06 2.95922e-07)
(-4.71746e-06 -7.20833e-06 2.62765e-07)
(-4.48952e-06 -7.44063e-06 2.32322e-07)
(-4.03668e-06 -7.54418e-06 2.06083e-07)
(-3.41258e-06 -7.47297e-06 1.84755e-07)
(-2.6802e-06 -7.17744e-06 1.68056e-07)
(-1.90773e-06 -6.59862e-06 1.54474e-07)
(-1.16233e-06 -5.65566e-06 1.39843e-07)
(-5.21058e-07 -4.21174e-06 1.1624e-07)
(-6.09328e-08 -1.96711e-06 6.1135e-08)
(3.49497e-08 -2.85716e-06 3.51197e-08)
(4.1683e-07 -5.90197e-06 7.99588e-08)
(1.03833e-06 -7.76345e-06 1.09929e-07)
(1.79902e-06 -8.91036e-06 1.34912e-07)
(2.62092e-06 -9.58694e-06 1.5916e-07)
(3.41486e-06 -9.91536e-06 1.85056e-07)
(4.10247e-06 -9.98091e-06 2.14466e-07)
(4.61045e-06 -9.84572e-06 2.47965e-07)
(4.87883e-06 -9.56432e-06 2.85263e-07)
(4.8634e-06 -9.18803e-06 3.25042e-07)
(4.54106e-06 -8.76778e-06 3.6514e-07)
(3.91348e-06 -8.35367e-06 4.02719e-07)
(3.00938e-06 -7.99266e-06 4.3466e-07)
(1.88408e-06 -7.72511e-06 4.57974e-07)
(6.15455e-07 -7.58061e-06 4.70352e-07)
(-7.03841e-07 -7.57458e-06 4.70579e-07)
(-1.9761e-06 -7.70654e-06 4.58669e-07)
(-3.1087e-06 -7.96009e-06 4.35875e-07)
(-4.02377e-06 -8.3045e-06 4.0456e-07)
(-4.66606e-06 -8.6981e-06 3.67797e-07)
(-5.00683e-06 -9.09241e-06 3.28811e-07)
(-5.04411e-06 -9.43543e-06 2.90614e-07)
(-4.80028e-06 -9.67439e-06 2.55654e-07)
(-4.3175e-06 -9.75616e-06 2.25565e-07)
(-3.65275e-06 -9.62621e-06 2.01136e-07)
(-2.87218e-06 -9.22433e-06 1.82043e-07)
(-2.0474e-06 -8.47672e-06 1.66688e-07)
(-1.24936e-06 -7.27838e-06 1.50574e-07)
(-5.60834e-07 -5.44558e-06 1.25125e-07)
(-6.56727e-08 -2.56749e-06 6.591e-08)
(5.47247e-08 -3.37007e-06 5.49182e-08)
(5.13201e-07 -7.04012e-06 1.09028e-07)
(1.18984e-06 -9.32235e-06 1.37069e-07)
(1.99562e-06 -1.07778e-05 1.58124e-07)
(2.84903e-06 -1.16735e-05 1.79362e-07)
(3.66872e-06 -1.21538e-05 2.04344e-07)
(4.37643e-06 -1.2317e-05 2.34767e-07)
(4.89876e-06 -1.22374e-05 2.71001e-07)
(5.1731e-06 -1.19788e-05 3.12357e-07)
(5.15219e-06 -1.16014e-05 3.57119e-07)
(4.81008e-06 -1.1164e-05 4.02668e-07)
(4.14665e-06 -1.07247e-05 4.45621e-07)
(3.1907e-06 -1.03373e-05 4.82287e-07)
(2e-06 -1.00483e-05 5.09096e-07)
(6.57094e-07 -9.89205e-06 5.23289e-07)
(-7.3933e-07 -9.88624e-06 5.23482e-07)
(-2.08496e-06 -1.00306e-05 5.09688e-07)
(-3.28099e-06 -1.03064e-05 4.83309e-07)
(-4.2448e-06 -1.06788e-05 4.47119e-07)
(-4.91845e-06 -1.11003e-05 4.04761e-07)
(-5.2727e-06 -1.15158e-05 3.59994e-07)
(-5.30709e-06 -1.18668e-05 3.16275e-07)
(-5.04667e-06 -1.20934e-05 2.76364e-07)
(-4.53673e-06 -1.21352e-05 2.42113e-07)
(-3.83737e-06 -1.19297e-05 2.1439e-07)
(-3.01757e-06 -1.14058e-05 1.92864e-07)
(-2.15176e-06 -1.0474e-05 1.75813e-07)
(-1.31369e-06 -9.0027e-06 1.58446e-07)
(-5.90073e-07 -6.75686e-06 1.31663e-07)
(-6.92032e-08 -3.20616e-06 6.94774e-08)
(6.42562e-08 -3.96923e-06 6.44739e-08)
(5.64814e-07 -8.303e-06 1.2389e-07)
(1.27716e-06 -1.10124e-05 1.51698e-07)
(2.11442e-06 -1.27706e-05 1.71622e-07)
(2.99231e-06 -1.38841e-05 1.92272e-07)
(3.83296e-06 -1.45213e-05 2.17996e-07)
(4.55846e-06 -1.47942e-05 2.5055e-07)
(5.09504e-06 -1.47873e-05 2.90213e-07)
(5.37821e-06 -1.45725e-05 3.36149e-07)
(5.3581e-06 -1.42164e-05 3.86317e-07)
(5.00584e-06 -1.37841e-05 4.37682e-07)
(4.31928e-06 -1.33392e-05 4.86338e-07)
(3.32686e-06 -1.29414e-05 5.27971e-07)
(2.08807e-06 -1.26424e-05 5.58432e-07)
(6.89378e-07 -1.24802e-05 5.74535e-07)
(-7.65191e-07 -1.24749e-05 5.74695e-07)
(-2.16582e-06 -1.2626e-05 5.58916e-07)
(-3.40832e-06 -1.29131e-05 5.28788e-07)
(-4.40603e-06 -1.32975e-05 4.87525e-07)
(-5.09918e-06 -1.37272e-05 4.39328e-07)
(-5.45888e-06 -1.41418e-05 3.88492e-07)
(-5.48666e-06 -1.44772e-05 3.39011e-07)
(-5.21042e-06 -1.46683e-05 2.93984e-07)
(-4.67854e-06 -1.46489e-05 2.55476e-07)
(-3.95372e-06 -1.43485e-05 2.24409e-07)
(-3.10719e-06 -1.3686e-05 2.00439e-07)
(-2.21502e-06 -1.25553e-05 1.81778e-07)
(-1.35228e-06 -1.07968e-05 1.63392e-07)
(-6.07666e-07 -8.12089e-06 1.35737e-07)
(-7.14456e-08 -3.87119e-06 7.17594e-08)
(6.84395e-08 -4.61001e-06 6.86725e-08)
(5.86514e-07 -9.62945e-06 1.30417e-07)
(1.31295e-06 -1.27716e-05 1.5818e-07)
(2.16178e-06 -1.48328e-05 1.77938e-07)
(3.04821e-06 -1.61679e-05 1.99012e-07)
(3.89694e-06 -1.69713e-05 2.26161e-07)
(4.63107e-06 -1.73698e-05 2.61228e-07)
(5.17703e-06 -1.74568e-05 3.04517e-07)
(5.46918e-06 -1.73104e-05 3.55051e-07)
(5.45536e-06 -1.70018e-05 4.10584e-07)
(5.10386e-06 -1.65999e-05 4.67693e-07)
(4.4101e-06 -1.61724e-05 5.21958e-07)
(3.40137e-06 -1.5783e-05 5.6851e-07)
(2.13781e-06 -1.5487e-05 6.02588e-07)
(7.08553e-07 -1.53257e-05 6.20553e-07)
(-7.78373e-07 -1.53208e-05 6.20685e-07)
(-2.20886e-06 -1.54721e-05 6.02984e-07)
(-3.47475e-06 -1.57576e-05 5.69171e-07)
(-4.48672e-06 -1.61356e-05 5.22887e-07)
(-5.18433e-06 -1.65504e-05 4.68912e-07)
(-5.53986e-06 -1.69381e-05 4.12182e-07)
(-5.55728e-06 -1.72307e-05 3.57122e-07)
(-5.26758e-06 -1.73598e-05 3.0715e-07)
(-4.72185e-06 -1.72545e-05 2.64543e-07)
(-3.98464e-06 -1.68385e-05 2.30307e-07)
(-3.12805e-06 -1.60207e-05 2.04078e-07)
(-2.22831e-06 -1.46787e-05 1.8396e-07)
(-1.3601e-06 -1.26234e-05 1.64815e-07)
(-6.11507e-07 -9.50913e-06 1.36881e-07)
(-7.21492e-08 -4.54896e-06 7.25062e-08)
(6.8941e-08 -5.2622e-06 6.92015e-08)
(5.83445e-07 -1.09684e-05 1.3073e-07)
(1.30009e-06 -1.45409e-05 1.5803e-07)
(2.13578e-06 -1.69038e-05 1.77766e-07)
(3.00811e-06 -1.84649e-05 1.99458e-07)
(3.84525e-06 -1.9446e-05 2.2811e-07)
(4.57287e-06 -1.99881e-05 2.6559e-07)
(5.11895e-06 -2.01929e-05 3.12241e-07)
(5.41758e-06 -2.01426e-05 3.67023e-07)
(5.41507e-06 -1.9911e-05 4.27535e-07)
(5.077e-06 -1.95685e-05 4.90046e-07)
(4.3958e-06 -1.91844e-05 5.4966e-07)
(3.39638e-06 -1.88246e-05 6.00936e-07)
(2.13799e-06 -1.85466e-05 6.38548e-07)
(7.10682e-07 -1.83937e-05 6.58344e-07)
(-7.75281e-07 -1.83894e-05 6.58445e-07)
(-2.20325e-06 -1.85335e-05 6.38834e-07)
(-3.4629e-06 -1.88024e-05 6.01406e-07)
(-4.46393e-06 -1.91525e-05 5.50336e-07)
(-5.14682e-06 -1.95261e-05 4.90928e-07)
(-5.48637e-06 -1.98571e-05 4.28688e-07)
(-5.4897e-06 -2.00767e-05 3.68489e-07)
(-5.19074e-06 -2.01144e-05 3.14065e-07)
(-4.64241e-06 -1.98972e-05 2.67834e-07)
(-3.90999e-06 -1.9344e-05 2.30827e-07)
(-3.06477e-06 -1.83552e-05 2.02671e-07)
(-2.18099e-06 -1.67924e-05 1.8143e-07)
(-1.33068e-06 -1.44372e-05 1.61938e-07)
(-5.98666e-07 -1.0887e-05 1.34425e-07)
(-7.09436e-08 -5.22278e-06 7.13436e-08)
(6.63233e-08 -5.89865e-06 6.6589e-08)
(5.56282e-07 -1.2269e-05 1.25344e-07)
(1.23642e-06 -1.62573e-05 1.51377e-07)
(2.02973e-06 -1.89152e-05 1.70802e-07)
(2.85956e-06 -2.07043e-05 1.92894e-07)
(3.65959e-06 -2.18735e-05 2.22618e-07)
(4.36016e-06 -2.25775e-05 2.619e-07)
(4.8927e-06 -2.2925e-05 3.11127e-07)
(5.19274e-06 -2.30006e-05 3.69263e-07)
(5.20606e-06 -2.28783e-05 4.33839e-07)
(4.89582e-06 -2.26275e-05 5.00935e-07)
(4.25082e-06 -2.23163e-05 5.6532e-07)
(3.29224e-06 -2.20101e-05 6.20917e-07)
(2.07629e-06 -2.17668e-05 6.61845e-07)
(6.91485e-07 -2.16311e-05 6.83409e-07)
(-7.51974e-07 -2.16274e-05 6.83466e-07)
(-2.13696e-06 -2.17555e-05 6.62027e-07)
(-3.35322e-06 -2.19909e-05 6.21219e-07)
(-4.31206e-06 -2.22889e-05 5.65748e-07)
(-4.95707e-06 -2.25915e-05 5.01522e-07)
(-5.26697e-06 -2.28334e-05 4.34604e-07)
(-5.25262e-06 -2.29466e-05 3.70218e-07)
(-4.9505e-06 -2.28619e-05 3.12342e-07)
(-4.41435e-06 -2.2506e-05 2.63389e-07)
(-3.70831e-06 -2.17951e-05 2.24408e-07)
(-2.90066e-06 -2.06221e-05 1.94959e-07)
(-2.06127e-06 -1.88338e-05 1.73095e-07)
(-1.25688e-06 -1.61837e-05 1.53768e-07)
(-5.65884e-07 -1.22129e-05 1.27555e-07)
(-6.74269e-08 -5.8725e-06 6.78762e-08)
(6.05397e-08 -6.49204e-06 6.08319e-08)
(5.03735e-07 -1.34774e-05 1.14152e-07)
(1.11781e-06 -1.78518e-05 1.3792e-07)
(1.8355e-06 -2.0789e-05 1.56402e-07)
(2.58941e-06 -2.28025e-05 1.78279e-07)
(3.32149e-06 -2.41667e-05 2.08265e-07)
(3.96944e-06 -2.50491e-05 2.48227e-07)
(4.47058e-06 -2.55639e-05 2.98708e-07)
(4.76418e-06 -2.57965e-05 3.58836e-07)
(4.79692e-06 -2.58179e-05 4.26222e-07)
(4.53045e-06 -2.56941e-05 4.96874e-07)
(3.94935e-06 -2.54889e-05 5.65307e-07)
(3.06915e-06 -2.52642e-05 6.24921e-07)
(1.94035e-06 -2.50759e-05 6.69228e-07)
(6.46778e-07 -2.49678e-05 6.92737e-07)
(-7.04237e-07 -2.49645e-05 6.92759e-07)
(-1.99756e-06 -2.5066e-05 6.69306e-07)
(-3.12588e-06 -2.52478e-05 6.25057e-07)
(-4.00527e-06 -2.54656e-05 5.65504e-07)
(-4.58522e-06 -2.56638e-05 4.97175e-07)
(-4.85e-06 -2.57807e-05 4.26697e-07)
(-4.81481e-06 -2.57523e-05 3.5946e-07)
(-4.51799e-06 -2.55134e-05 2.99503e-07)
(-4.01251e-06 -2.49929e-05 2.49187e-07)
(-3.35896e-06 -2.41063e-05 2.09396e-07)
(-2.62e-06 -2.27406e-05 1.79584e-07)
(-1.85813e-06 -2.07292e-05 1.57858e-07)
(-1.13192e-06 -1.7799e-05 1.39436e-07)
(-5.10002e-07 -1.3438e-05 1.15535e-07)
(-6.11639e-08 -6.47431e-06 6.16563e-08)
(5.14429e-08 -7.0131e-06 5.17393e-08)
(4.24258e-07 -1.4535e-05 9.67454e-08)
(9.40328e-07 -1.92486e-05 1.1703e-07)
(1.54579e-06 -2.24381e-05 1.33702e-07)
(2.18632e-06 -2.4664e-05 1.54356e-07)
(2.81496e-06 -2.62239e-05 1.83225e-07)
(3.3799e-06 -2.72965e-05 2.22186e-07)
(3.82734e-06 -2.79995e-05 2.71893e-07)
(4.10309e-06 -2.84174e-05 3.31671e-07)
(4.15704e-06 -2.86167e-05 3.99452e-07)
(3.95035e-06 -2.86567e-05 4.71408e-07)
(3.46334e-06 -2.85935e-05 5.42099e-07)
(2.70448e-06 -2.84819e-05 6.04577e-07)
(1.71551e-06 -2.83721e-05 6.51706e-07)
(5.71496e-07 -2.83042e-05 6.77007e-07)
(-6.27002e-07 -2.83014e-05 6.76986e-07)
(-1.77042e-06 -2.83636e-05 6.51668e-07)
(-2.75825e-06 -2.84678e-05 6.04545e-07)
(-3.51539e-06 -2.85736e-05 5.42115e-07)
(-4.00016e-06 -2.86312e-05 4.71485e-07)
(-4.20413e-06 -2.85858e-05 3.99614e-07)
(-4.14692e-06 -2.83813e-05 3.31947e-07)
(-3.86722e-06 -2.7959e-05 2.72306e-07)
(-3.41505e-06 -2.72523e-05 2.22742e-07)
(-2.84457e-06 -2.61774e-05 1.83919e-07)
(-2.20969e-06 -2.46173e-05 1.55165e-07)
(-1.56242e-06 -2.23937e-05 1.34598e-07)
(-9.50288e-07 -1.92103e-05 1.17986e-07)
(-4.28428e-07 -1.45071e-05 9.76475e-08)
(-5.17775e-08 -7.00086e-06 5.23135e-08)
(3.89129e-08 -7.43114e-06 3.92121e-08)
(3.16988e-07 -1.53802e-05 7.2916e-08)
(7.01963e-07 -2.0367e-05 8.84001e-08)
(1.15695e-06 -2.37683e-05 1.02144e-07)
(1.64432e-06 -2.61837e-05 1.20244e-07)
(2.13094e-06 -2.79302e-05 1.46195e-07)
(2.57879e-06 -2.91953e-05 1.81707e-07)
(2.94612e-06 -3.00993e-05 2.2758e-07)
(3.18834e-06 -3.07238e-05 2.83543e-07)
(3.2617e-06 -3.11295e-05 3.48055e-07)
(3.12908e-06 -3.13664e-05 4.17773e-07)
(2.76746e-06 -3.14798e-05 4.87548e-07)
(2.17693e-06 -3.15133e-05 5.50355e-07)
(1.3874e-06 -3.1507e-05 5.98667e-07)
(4.6062e-07 -3.14931e-05 6.25058e-07)
(-5.1495e-07 -3.14907e-05 6.25019e-07)
(-1.44081e-06 -3.14996e-05 5.98585e-07)
(-2.22866e-06 -3.15011e-05 5.50217e-07)
(-2.81681e-06 -3.14628e-05 4.87397e-07)
(-3.17551e-06 -3.13449e-05 4.17661e-07)
(-3.30461e-06 -3.11039e-05 3.48031e-07)
(-3.22724e-06 -3.06945e-05 2.83605e-07)
(-2.98052e-06 -3.00667e-05 2.27728e-07)
(-2.60826e-06 -2.91604e-05 1.8196e-07)
(-2.15502e-06 -2.78941e-05 1.46558e-07)
(-1.66271e-06 -2.61481e-05 1.20711e-07)
(-1.16958e-06 -2.37352e-05 1.02701e-07)
(-7.09203e-07 -2.0339e-05 8.90045e-08)
(-3.19822e-07 -1.53601e-05 7.3529e-08)
(-3.90652e-08 -7.42261e-06 3.96407e-08)
(2.29829e-08 -7.71518e-06 2.32756e-08)
(1.82757e-07 -1.59509e-05 4.27289e-08)
(4.04631e-07 -2.11257e-05 5.20051e-08)
(6.71795e-07 -2.4683e-05 6.15642e-08)
(9.66359e-07 -2.72514e-05 7.54209e-08)
(1.27166e-06 -2.91618e-05 9.60381e-08)
(1.56621e-06 -3.06076e-05 1.24867e-07)
(1.82359e-06 -3.17103e-05 1.62779e-07)
(2.01258e-06 -3.25477e-05 2.09868e-07)
(2.09913e-06 -3.31732e-05 2.65163e-07)
(2.0509e-06 -3.36265e-05 3.2615e-07)
(1.84347e-06 -3.39397e-05 3.88579e-07)
(1.46899e-06 -3.41418e-05 4.4599e-07)
(9.43166e-07 -3.42582e-05 4.91054e-07)
(3.09454e-07 -3.43091e-05 5.16114e-07)
(-3.63245e-07 -3.43071e-05 5.16031e-07)
(-9.95857e-07 -3.42518e-05 4.9089e-07)
(-1.51957e-06 -3.41312e-05 4.45736e-07)
(-1.89107e-06 -3.39251e-05 3.88311e-07)
(-2.09491e-06 -3.36083e-05 3.25879e-07)
(-2.13901e-06 -3.31518e-05 2.64945e-07)
(-2.04797e-06 -3.25235e-05 2.09696e-07)
(-1.85415e-06 -3.16839e-05 1.627e-07)
(-1.59168e-06 -3.05798e-05 1.2489e-07)
(-1.29188e-06 -2.91336e-05 9.61476e-08)
(-9.8131e-07 -2.72241e-05 7.56258e-08)
(-6.81668e-07 -2.46581e-05 6.18589e-08)
(-4.09997e-07 -2.1105e-05 5.23658e-08)
(-1.84676e-07 -1.59364e-05 4.31502e-08)
(-2.3014e-08 -7.70921e-06 2.36242e-08)
(4.00455e-09 -7.83625e-06 4.31074e-09)
(2.48127e-08 -1.61895e-05 6.88279e-09)
(5.56194e-08 -2.14484e-05 8.66293e-09)
(1.02165e-07 -2.50911e-05 1.27504e-08)
(1.68484e-07 -2.77608e-05 2.0581e-08)
(2.56453e-07 -2.97958e-05 3.32902e-08)
(3.63401e-07 -3.1392e-05 5.17735e-08)
(4.81041e-07 -3.26693e-05 7.68809e-08)
(5.94867e-07 -3.37019e-05 1.09026e-07)
(6.84337e-07 -3.45356e-05 1.4794e-07)
(7.25817e-07 -3.51991e-05 1.92145e-07)
(6.96629e-07 -3.57106e-05 2.387e-07)
(5.82083e-07 -3.60832e-05 2.82598e-07)
(3.82464e-07 -3.63258e-05 3.17881e-07)
(1.17717e-07 -3.64444e-05 3.37863e-07)
(-1.71291e-07 -3.64427e-05 3.37773e-07)
(-4.34728e-07 -3.63204e-05 3.17678e-07)
(-6.31913e-07 -3.60741e-05 2.82268e-07)
(-7.43075e-07 -3.56982e-05 2.38305e-07)
(-7.68264e-07 -3.51836e-05 1.9171e-07)
(-7.22205e-07 -3.45175e-05 1.47571e-07)
(-6.27837e-07 -3.36818e-05 1.08699e-07)
(-5.08911e-07 -3.26477e-05 7.66465e-08)
(-3.86073e-07 -3.13696e-05 5.16252e-08)
(-2.73968e-07 -2.97735e-05 3.32111e-08)
(-1.81036e-07 -2.77396e-05 2.06011e-08)
(-1.10155e-07 -2.50721e-05 1.28637e-08)
(-5.97404e-08 -2.14329e-05 8.89313e-09)
(-2.61391e-08 -1.61789e-05 7.18695e-09)
(-3.96833e-09 -7.83201e-06 4.60643e-09)
(-1.72676e-08 -7.77068e-06 -1.6988e-08)
(-1.50596e-07 -1.60494e-05 -3.33021e-08)
(-3.31264e-07 -2.12732e-05 -4.0056e-08)
(-5.29597e-07 -2.49169e-05 -4.25806e-08)
(-7.18099e-07 -2.76218e-05 -4.24023e-08)
(-8.75469e-07 -2.9725e-05 -4.00607e-08)
(-9.83781e-07 -3.14206e-05 -3.52733e-08)
(-1.03105e-06 -3.28253e-05 -2.75284e-08)
(-1.0124e-06 -3.40079e-05 -1.6258e-08)
(-9.31319e-07 -3.50069e-05 -1.0155e-09)
(-7.99278e-07 -3.58412e-05 1.78405e-08)
(-6.33924e-07 -3.65169e-05 3.93311e-08)
(-4.54616e-07 -3.70322e-05 6.08218e-08)
(-2.77093e-07 -3.73812e-05 7.90104e-08)
(-1.08708e-07 -3.75572e-05 8.97102e-08)
(5.52693e-08 -3.75556e-05 8.96101e-08)
(2.25117e-07 -3.73762e-05 7.8753e-08)
(4.05247e-07 -3.70239e-05 6.0412e-08)
(5.88205e-07 -3.65059e-05 3.8848e-08)
(7.57982e-07 -3.58277e-05 1.73215e-08)
(8.94903e-07 -3.49915e-05 -1.5264e-09)
(9.81124e-07 -3.39909e-05 -1.67142e-08)
(1.00505e-06 -3.28074e-05 -2.79334e-08)
(9.63029e-07 -3.14025e-05 -3.55764e-08)
(8.59802e-07 -2.97071e-05 -4.0273e-08)
(7.0718e-07 -2.76052e-05 -4.25442e-08)
(5.22873e-07 -2.49023e-05 -4.2603e-08)
(3.27993e-07 -2.12616e-05 -3.99541e-08)
(1.49702e-07 -1.60416e-05 -3.30843e-08)
(1.73736e-08 -7.76763e-06 -1.67163e-08)
(-3.98153e-08 -7.50307e-06 -3.95349e-08)
(-3.34511e-07 -1.55007e-05 -7.57438e-08)
(-7.35947e-07 -2.05608e-05 -9.15836e-08)
(-1.19053e-06 -2.41119e-05 -1.01468e-07)
(-1.64708e-06 -2.67752e-05 -1.10042e-07)
(-2.06456e-06 -2.88768e-05 -1.19625e-07)
(-2.40383e-06 -3.0604e-05 -1.30773e-07)
(-2.63133e-06 -3.20678e-05 -1.43397e-07)
(-2.72101e-06 -3.33309e-05 -1.56845e-07)
(-2.65729e-06 -3.44259e-05 -1.70044e-07)
(-2.43674e-06 -3.53634e-05 -1.8191e-07)
(-2.06948e-06 -3.61401e-05 -1.91248e-07)
(-1.57791e-06 -3.6744e-05 -1.97696e-07)
(-9.9408e-07 -3.71597e-05 -2.01137e-07)
(-3.55171e-07 -3.73716e-05 -2.02363e-07)
(3.02146e-07 -3.737e-05 -2.02479e-07)
(9.42517e-07 -3.7155e-05 -2.01429e-07)
(1.5291e-06 -3.67366e-05 -1.98131e-07)
(2.02446e-06 -3.61301e-05 -1.91787e-07)
(2.39627e-06 -3.53512e-05 -1.82478e-07)
(2.62186e-06 -3.44123e-05 -1.70622e-07)
(2.6909e-06 -3.33163e-05 -1.57379e-07)
(2.6066e-06 -3.20526e-05 -1.43882e-07)
(2.38437e-06 -3.0589e-05 -1.3117e-07)
(2.05012e-06 -2.88623e-05 -1.19926e-07)
(1.63725e-06 -2.67619e-05 -1.10251e-07)
(1.18469e-06 -2.41005e-05 -1.01563e-07)
(7.33267e-07 -2.05519e-05 -9.15561e-08)
(3.33884e-07 -1.54948e-05 -7.55742e-08)
(3.9952e-08 -7.50089e-06 -3.92853e-08)
(-6.2172e-08 -7.02968e-06 -6.1921e-08)
(-5.15504e-07 -1.45373e-05 -1.17868e-07)
(-1.13355e-06 -1.9303e-05 -1.42779e-07)
(-1.8401e-06 -2.26646e-05 -1.60126e-07)
(-2.56133e-06 -2.52043e-05 -1.7772e-07)
(-3.2371e-06 -2.72276e-05 -1.99704e-07)
(-3.80747e-06 -2.89096e-05 -2.27532e-07)
(-4.21736e-06 -3.03532e-05 -2.61474e-07)
(-4.41922e-06 -3.16154e-05 -3.00762e-07)
(-4.37745e-06 -3.27226e-05 -3.4373e-07)
(-4.0729e-06 -3.36805e-05 -3.87833e-07)
(-3.50727e-06 -3.44811e-05 -4.29673e-07)
(-2.70526e-06 -3.51077e-05 -4.65584e-07)
(-1.7147e-06 -3.55407e-05 -4.91858e-07)
(-6.03001e-07 -3.57621e-05 -5.05672e-07)
(5.50785e-07 -3.57607e-05 -5.05772e-07)
(1.66392e-06 -3.55365e-05 -4.92145e-07)
(2.65718e-06 -3.5101e-05 -4.66032e-07)
(3.46298e-06 -3.44721e-05 -4.30204e-07)
(4.03323e-06 -3.36698e-05 -3.88405e-07)
(4.3429e-06 -3.27107e-05 -3.4434e-07)
(4.39001e-06 -3.16028e-05 -3.01343e-07)
(4.19357e-06 -3.03403e-05 -2.61983e-07)
(3.78894e-06 -2.8897e-05 -2.27996e-07)
(3.22351e-06 -2.72157e-05 -2.00074e-07)
(2.55224e-06 -2.51937e-05 -1.77973e-07)
(1.83485e-06 -2.26556e-05 -1.60277e-07)
(1.13124e-06 -1.92961e-05 -1.42798e-07)
(5.15062e-07 -1.45329e-05 -1.17721e-07)
(6.23401e-08 -7.02812e-06 -6.16732e-08)
(-8.27821e-08 -6.36049e-06 -8.25443e-08)
(-6.80884e-07 -1.31804e-05 -1.56661e-07)
(-1.49631e-06 -1.75279e-05 -1.89912e-07)
(-2.43323e-06 -2.0607e-05 -2.14212e-07)
(-3.39784e-06 -2.29429e-05 -2.40271e-07)
(-4.31259e-06 -2.4812e-05 -2.73881e-07)
(-5.09794e-06 -2.63729e-05 -3.17234e-07)
(-5.67848e-06 -2.77182e-05 -3.70967e-07)
(-5.98615e-06 -2.88985e-05 -4.34147e-07)
(-5.96634e-06 -2.99358e-05 -5.04448e-07)
(-5.5853e-06 -3.08336e-05 -5.7798e-07)
(-4.83673e-06 -3.15833e-05 -6.49199e-07)
(-3.74759e-06 -3.21686e-05 -7.11575e-07)
(-2.38076e-06 -3.25723e-05 -7.58219e-07)
(-8.31831e-07 -3.27783e-05 -7.83225e-07)
(7.80868e-07 -3.2777e-05 -7.83302e-07)
(2.33118e-06 -3.25686e-05 -7.58445e-07)
(3.7007e-06 -3.21627e-05 -7.11941e-07)
(4.7935e-06 -3.15752e-05 -6.49676e-07)
(5.5466e-06 -3.08241e-05 -5.78513e-07)
(5.93265e-06 -2.99252e-05 -5.05005e-07)
(5.95775e-06 -2.88875e-05 -4.3471e-07)
(5.65547e-06 -2.77073e-05 -3.71479e-07)
(5.08012e-06 -2.63623e-05 -3.17706e-07)
(4.29962e-06 -2.48022e-05 -2.7428e-07)
(3.38926e-06 -2.29344e-05 -2.40585e-07)
(2.42836e-06 -2.06001e-05 -2.1441e-07)
(1.49421e-06 -1.75228e-05 -1.89967e-07)
(6.8053e-07 -1.31772e-05 -1.56536e-07)
(8.29559e-08 -6.35941e-06 -8.23058e-08)
(-9.99237e-08 -5.51998e-06 -9.97094e-08)
(-8.17193e-07 -1.14804e-05 -1.88915e-07)
(-1.79564e-06 -1.53018e-05 -2.29108e-07)
(-2.9247e-06 -1.80164e-05 -2.59181e-07)
(-4.09443e-06 -2.00776e-05 -2.92296e-07)
(-5.21245e-06 -2.17255e-05 -3.35642e-07)
(-6.182e-06 -2.30987e-05 -3.91957e-07)
(-6.90938e-06 -2.42784e-05 -4.6206e-07)
(-7.30832e-06 -2.53087e-05 -5.44884e-07)
(-7.30805e-06 -2.6209e-05 -6.37398e-07)
(-6.86215e-06 -2.69826e-05 -7.34473e-07)
(-5.95812e-06 -2.76231e-05 -8.28886e-07)
(-4.62578e-06 -2.81191e-05 -9.11897e-07)
(-2.94126e-06 -2.84583e-05 -9.74185e-07)
(-1.02403e-06 -2.86304e-05 -1.00767e-06)
(9.74983e-07 -2.86292e-05 -1.00774e-06)
(2.89347e-06 -2.84549e-05 -9.74409e-07)
(4.58046e-06 -2.81137e-05 -9.12228e-07)
(5.9163e-06 -2.7616e-05 -8.29312e-07)
(6.82467e-06 -2.69744e-05 -7.34976e-07)
(7.27542e-06 -2.62e-05 -6.37928e-07)
(7.28087e-06 -2.52994e-05 -5.4542e-07)
(6.88715e-06 -2.42693e-05 -4.62584e-07)
(6.16481e-06 -2.30899e-05 -3.92435e-07)
(5.20002e-06 -2.17175e-05 -3.36056e-07)
(4.08624e-06 -2.00708e-05 -2.9263e-07)
(2.92007e-06 -1.8011e-05 -2.59375e-07)
(1.79374e-06 -1.52979e-05 -2.29173e-07)
(8.16926e-07 -1.14781e-05 -1.88813e-07)
(1.00105e-07 -5.51929e-06 -9.94797e-08)
(-1.1182e-07 -4.54778e-06 -1.11631e-07)
(-9.11218e-07 -9.51725e-06 -2.11261e-07)
(-2.0041e-06 -1.27288e-05 -2.5613e-07)
(-3.2719e-06 -1.50143e-05 -2.90084e-07)
(-4.59393e-06 -1.67443e-05 -3.28098e-07)
(-5.86611e-06 -1.81182e-05 -3.78333e-07)
(-6.97751e-06 -1.92532e-05 -4.43966e-07)
(-7.81923e-06 -2.02183e-05 -5.25882e-07)
(-8.29023e-06 -2.10514e-05 -6.22699e-07)
(-8.30671e-06 -2.177e-05 -7.30749e-07)
(-7.81297e-06 -2.23787e-05 -8.4399e-07)
(-6.79256e-06 -2.2875e-05 -9.53962e-07)
(-5.27828e-06 -2.32535e-05 -1.05044e-06)
(-3.35688e-06 -2.35091e-05 -1.12273e-06)
(-1.16603e-06 -2.36374e-05 -1.16159e-06)
(1.11943e-06 -2.36365e-05 -1.16165e-06)
(3.31143e-06 -2.35062e-05 -1.12291e-06)
(5.23514e-06 -2.3249e-05 -1.05072e-06)
(6.7527e-06 -2.2869e-05 -9.54333e-07)
(7.77714e-06 -2.23717e-05 -8.4443e-07)
(8.27548e-06 -2.17625e-05 -7.31228e-07)
(8.26391e-06 -2.10437e-05 -6.23201e-07)
(7.7979e-06 -2.02107e-05 -5.26375e-07)
(6.96106e-06 -1.92462e-05 -4.44419e-07)
(5.85425e-06 -1.81119e-05 -3.7873e-07)
(4.58614e-06 -1.6739e-05 -3.28442e-07)
(3.26752e-06 -1.50102e-05 -2.90305e-07)
(2.00231e-06 -1.2726e-05 -2.56214e-07)
(9.10972e-07 -9.51573e-06 -2.11175e-07)
(1.11994e-07 -4.54742e-06 -1.11417e-07)
(-1.16559e-07 -3.49868e-06 -1.16393e-07)
(-9.49741e-07 -7.39919e-06 -2.19996e-07)
(-2.09592e-06 -9.9486e-06 -2.66295e-07)
(-3.43666e-06 -1.17623e-05 -3.01348e-07)
(-4.8469e-06 -1.31235e-05 -3.4123e-07)
(-6.21426e-06 -1.41896e-05 -3.94693e-07)
(-7.41714e-06 -1.50556e-05 -4.65202e-07)
(-8.33516e-06 -1.57783e-05 -5.53559e-07)
(-8.85672e-06 -1.63902e-05 -6.58083e-07)
(-8.88905e-06 -1.69068e-05 -7.74598e-07)
(-8.37057e-06 -1.73345e-05 -8.96401e-07)
(-7.28296e-06 -1.76748e-05 -1.01431e-06)
(-5.66166e-06 -1.79284e-05 -1.11742e-06)
(-3.60063e-06 -1.80959e-05 -1.19443e-06)
(-1.24873e-06 -1.81788e-05 -1.23574e-06)
(1.20527e-06 -1.8178e-05 -1.23578e-06)
(3.55821e-06 -1.80936e-05 -1.19458e-06)
(5.62134e-06 -1.79248e-05 -1.11767e-06)