/*--------------------------------*- C++ -*----------------------------------*\
| =========                 |                                                 |
| \\      /  F ield         | OpenFOAM: The Open Source CFD Toolbox           |
|  \\    /   O peration     | Version:  v1906                                 |
|   \\  /    A nd           | Web:      www.OpenFOAM.com                      |
|    \\/     M anipulation  |                                                 |
\*---------------------------------------------------------------------------*/
FoamFile
{
    version     2.0;
    format      ascii;
    class       surfaceScalarField;
    location    "4";
    object      phi;
}
// * * * * * * * * * * * * * * * * * * * * * * * * * * * * * * * * * * * * * //

dimensions      [1 0 -1 0 0 0 0];
oriented        oriented;


internalField   nonuniform List<scalar> 
228225
(
1.92175e-08
-1.49918e-08
-4.64138e-09
3.66951e-08
-1.09435e-08
-6.53502e-09
4.8593e-08
-5.1882e-09
-6.71075e-09
5.28936e-08
1.90988e-09
-6.21217e-09
4.90058e-08
9.4737e-09
-5.58365e-09
3.67451e-08
1.74002e-08
-5.14017e-09
1.67975e-08
2.52264e-08
-5.28102e-09
-9.64534e-09
3.26246e-08
-6.18007e-09
-4.11448e-08
3.94586e-08
-7.95938e-09
-7.60544e-08
4.55459e-08
-1.06359e-08
-1.12649e-07
5.0689e-08
-1.40933e-08
-1.49347e-07
5.46796e-08
-1.79829e-08
-1.84898e-07
5.74158e-08
-2.1865e-08
-2.18454e-07
5.89675e-08
-2.54122e-08
-2.49465e-07
5.95261e-08
-2.85139e-08
-2.77515e-07
5.92959e-08
-3.12468e-08
-3.02192e-07
5.837e-08
-3.36937e-08
-3.23026e-07
5.67739e-08
-3.5938e-08
-3.39481e-07
5.45013e-08
-3.80478e-08
-3.50958e-07
5.15546e-08
-4.00781e-08
-3.56882e-07
4.79764e-08
-4.20515e-08
-3.56794e-07
4.38797e-08
-4.39671e-08
-3.50463e-07
3.94631e-08
-4.57935e-08
-3.37947e-07
3.49792e-08
-4.74971e-08
-3.19528e-07
3.06665e-08
-4.90853e-08
-2.95825e-07
2.67709e-08
-5.04731e-08
-2.67643e-07
2.34176e-08
-5.15998e-08
-2.35796e-07
2.05416e-08
-5.23884e-08
-2.01003e-07
1.79906e-08
-5.2784e-08
-1.63941e-07
1.56274e-08
-5.26895e-08
-1.25282e-07
1.33059e-08
-5.19612e-08
-8.5923e-08
1.0925e-08
-5.02872e-08
-4.75976e-08
8.55302e-09
-4.68774e-08
-1.4543e-08
6.447e-09
-3.95012e-08
4.25137e-09
-1.87947e-08
-3.41012e-08
3.14396e-08
-1.23305e-08
-1.03698e-07
6.10882e-08
-2.43159e-09
-1.87884e-07
7.67685e-08
2.22575e-09
-2.78479e-07
8.82825e-08
4.22359e-09
-3.6898e-07
9.58276e-08
4.14614e-09
-4.53568e-07
9.97325e-08
2.25809e-09
-5.28097e-07
1.00874e-07
-1.11899e-09
-5.89709e-07
1.00053e-07
-5.81465e-09
-6.36944e-07
9.79971e-08
-1.13057e-08
-6.69333e-07
9.52229e-08
-1.72873e-08
-6.87369e-07
9.20887e-08
-2.3364e-08
-6.92509e-07
8.87903e-08
-2.8971e-08
-6.87063e-07
8.54483e-08
-3.34782e-08
-6.73822e-07
8.2272e-08
-3.6544e-08
-6.55507e-07
7.94419e-08
-3.82328e-08
-6.34276e-07
7.69433e-08
-3.88778e-08
-6.11591e-07
7.46085e-08
-3.89212e-08
-5.88215e-07
7.21721e-08
-3.87772e-08
-5.64281e-07
6.93479e-08
-3.87799e-08
-5.39456e-07
6.58736e-08
-3.91424e-08
-5.13109e-07
6.1574e-08
-3.99459e-08
-4.84529e-07
5.64314e-08
-4.11309e-08
-4.5325e-07
5.07353e-08
-4.25521e-08
-4.19285e-07
4.50284e-08
-4.40136e-08
-3.82979e-07
3.9711e-08
-4.53501e-08
-3.44699e-07
3.49056e-08
-4.64145e-08
-3.04894e-07
3.07402e-08
-4.71285e-08
-2.63977e-07
2.71451e-08
-4.75197e-08
-2.22373e-07
2.4019e-08
-4.76319e-08
-1.80545e-07
2.12369e-08
-4.74386e-08
-1.39038e-07
1.86964e-08
-4.68976e-08
-9.8481e-08
1.62997e-08
-4.59292e-08
-5.98705e-08
1.40908e-08
-4.41518e-08
-2.53744e-08
1.25605e-08
-4.0607e-08
1.21322e-08
-3.32561e-08
-1.08341e-07
1.08004e-07
3.17762e-08
-2.75772e-07
1.78988e-07
4.95322e-08
-4.67034e-07
2.11031e-07
5.69995e-08
-6.63969e-07
2.25696e-07
5.95215e-08
-8.49212e-07
2.24167e-07
5.6905e-08
-1.01043e-06
2.10864e-07
5.00837e-08
-1.14013e-06
1.90509e-07
4.00711e-08
-1.2346e-06
1.66324e-07
2.8193e-08
-1.29307e-06
1.40725e-07
1.57432e-08
-1.31727e-06
1.15688e-07
3.73497e-09
-1.31092e-06
9.28351e-08
-7.09504e-09
-1.27902e-06
7.30888e-08
-1.62037e-08
-1.22689e-06
5.66603e-08
-2.33357e-08
-1.16001e-06
4.39816e-08
-2.85924e-08
-1.08388e-06
3.54877e-08
-3.21778e-08
-1.00306e-06
3.04818e-08
-3.43514e-08
-9.20855e-07
2.79082e-08
-3.55105e-08
-8.39516e-07
2.68981e-08
-3.60634e-08
-7.60549e-07
2.67164e-08
-3.63349e-08
-6.84843e-07
2.67826e-08
-3.66157e-08
-6.12776e-07
2.66282e-08
-3.71212e-08
-5.44421e-07
2.59936e-08
-3.79175e-08
-4.79877e-07
2.49805e-08
-3.87887e-08
-4.19442e-07
2.39876e-08
-3.93933e-08
-3.63408e-07
2.32906e-08
-3.96149e-08
-3.11786e-07
2.289e-08
-3.96037e-08
-2.6439e-07
2.27731e-08
-3.94308e-08
-2.20932e-07
2.28383e-08
-3.91504e-08
-1.81126e-07
2.29828e-08
-3.87701e-08
-1.44683e-07
2.30852e-08
-3.82909e-08
-1.11327e-07
2.3019e-08
-3.76786e-08
-8.07294e-08
2.259e-08
-3.68867e-08
-5.24073e-08
2.1572e-08
-3.58035e-08
-2.56057e-08
1.98494e-08
-3.40927e-08
1.63481e-08
-2.98204e-08
-1.73758e-07
1.60955e-07
1.20806e-07
-3.99858e-07
2.43888e-07
1.61199e-07
-6.37779e-07
2.7614e-07
1.72814e-07
-8.73198e-07
2.84458e-07
1.76656e-07
-1.09179e-06
2.70231e-07
1.72525e-07
-1.28028e-06
2.3974e-07
1.59616e-07
-1.42512e-06
1.99641e-07
1.35708e-07
-1.51763e-06
1.552e-07
1.03634e-07
-1.55656e-06
1.10409e-07
6.9252e-08
-1.54763e-06
6.82799e-08
3.84694e-08
-1.5014e-06
3.14261e-08
1.51846e-08
-1.42914e-06
1.12145e-09
-2.93857e-10
-1.33945e-06
-2.24518e-08
-1.05733e-08
-1.23986e-06
-3.87455e-08
-1.68622e-08
-1.13612e-06
-4.80532e-08
-2.02004e-08
-1.03199e-06
-5.16789e-08
-2.19771e-08
-9.29926e-07
-5.11882e-08
-2.29631e-08
-8.31553e-07
-4.78239e-08
-2.36509e-08
-7.37967e-07
-4.26061e-08
-2.42619e-08
-6.50009e-07
-3.63551e-08
-2.4823e-08
-5.68304e-07
-2.97134e-08
-2.53617e-08
-4.933e-07
-2.31189e-08
-2.58913e-08
-4.25173e-07
-1.6793e-08
-2.63536e-08
-3.63768e-07
-1.07699e-08
-2.66468e-08
-3.08744e-07
-5.01384e-09
-2.67205e-08
-2.5969e-07
4.39417e-10
-2.6603e-08
-2.16217e-07
5.65332e-09
-2.63526e-08
-1.7788e-07
1.0532e-08
-2.60304e-08
-1.4414e-07
1.49247e-08
-2.56827e-08
-1.14444e-07
1.87456e-08
-2.53554e-08
-8.82079e-08
2.18347e-08
-2.50519e-08
-6.47094e-08
2.39272e-08
-2.48376e-08
-4.27559e-08
2.46576e-08
-2.50363e-08
-2.1194e-08
2.41489e-08
-2.58624e-08
2.09794e-08
-2.58255e-08
-1.04453e-07
1.37031e-07
1.28377e-07
-2.30005e-07
1.96526e-07
1.72913e-07
-3.56375e-07
2.14707e-07
1.87803e-07
-4.80297e-07
2.14547e-07
1.93835e-07
-5.99765e-07
1.97463e-07
1.92235e-07
-7.10796e-07
1.67042e-07
1.83729e-07
-8.06643e-07
1.27871e-07
1.67616e-07
-8.79112e-07
8.48001e-08
1.42869e-07
-9.21227e-07
4.22088e-08
1.10315e-07
-9.31755e-07
3.47239e-09
7.53359e-08
-9.15735e-07
-2.91735e-08
4.45808e-08
-8.81688e-07
-5.46487e-08
2.17216e-08
-8.37484e-07
-7.29754e-08
6.31988e-09
-7.88188e-07
-8.42483e-08
-3.79174e-09
-7.35959e-07
-8.94685e-08
-1.08158e-08
-6.82081e-07
-8.96488e-08
-1.59075e-08
-6.27798e-07
-8.60361e-08
-1.94352e-08
-5.74243e-07
-7.98059e-08
-2.15717e-08
-5.22392e-07
-7.19451e-08
-2.25134e-08
-4.7295e-07
-6.3275e-08
-2.25188e-08
-4.26413e-07
-5.43846e-08
-2.18688e-08
-3.83029e-07
-4.56731e-08
-2.08285e-08
-3.42839e-07
-3.73806e-08
-1.9603e-08
-3.05651e-07
-2.96205e-08
-1.83373e-08
-2.71126e-07
-2.2415e-08
-1.71237e-08
-2.38925e-07
-1.5741e-08
-1.60215e-08
-2.0865e-07
-9.55494e-09
-1.50649e-08
-1.80004e-07
-3.83663e-09
-1.42786e-08
-1.52838e-07
1.4434e-09
-1.36844e-08
-1.2684e-07
6.05456e-09
-1.33061e-08
-1.01806e-07
9.94847e-09
-1.31483e-08
-7.75483e-08
1.29284e-08
-1.32582e-08
-5.36557e-08
1.46963e-08
-1.39336e-08
-2.85575e-08
1.44619e-08
-1.54098e-08
9.48702e-09
-1.70651e-08
1.80855e-08
5.33044e-08
6.56402e-08
6.15965e-08
7.34759e-08
7.954e-08
1.13727e-07
7.80747e-08
8.45028e-08
1.66977e-07
7.49709e-08
8.63257e-08
2.1604e-07
6.49081e-08
8.34921e-08
2.5731e-07
4.95962e-08
7.6175e-08
2.89317e-07
3.1284e-08
6.45802e-08
3.11813e-07
1.21257e-08
5.01793e-08
3.24862e-07
-5.76925e-09
3.49287e-08
3.28331e-07
-2.09172e-08
2.09212e-08
3.2263e-07
-3.25547e-08
9.081e-09
3.08617e-07
-4.02156e-08
-4.18368e-10
2.87442e-07
-4.40179e-08
-7.78459e-09
2.60854e-07
-4.44481e-08
-1.32099e-08
2.30445e-07
-4.21758e-08
-1.68859e-08
1.97851e-07
-3.79944e-08
-1.90591e-08
1.64482e-07
-3.2661e-08
-2.00058e-08
1.31493e-07
-2.6826e-08
-1.99914e-08
9.98364e-08
-2.10169e-08
-1.92712e-08
7.02567e-08
-1.5616e-08
-1.80794e-08
4.33516e-08
-1.08582e-08
-1.66223e-08
1.95795e-08
-6.83975e-09
-1.50606e-08
-7.43612e-10
-3.54426e-09
-1.35138e-08
-1.7426e-08
-8.75002e-10
-1.20622e-08
-3.0366e-08
1.28486e-09
-1.07598e-08
-3.96589e-08
3.19134e-09
-9.64002e-09
-4.5563e-08
5.0731e-09
-8.72299e-09
-4.83161e-08
6.93911e-09
-8.02275e-09
-4.81164e-08
8.79628e-09
-7.55284e-09
-4.53371e-08
1.05974e-08
-7.32229e-09
-4.02656e-08
1.2203e-08
-7.32616e-09
-3.31399e-08
1.34031e-08
-7.59918e-09
-2.39851e-08
1.39466e-08
-8.40564e-09
-1.29242e-08
1.33729e-08
-9.97229e-09
8.48444e-09
-1.19213e-08
4.19927e-08
-3.07371e-09
1.43849e-08
1.00815e-07
-3.16205e-10
1.49695e-08
1.65049e-07
-2.47701e-10
1.409e-08
2.29237e-07
-2.11578e-09
1.28973e-08
2.88602e-07
-5.5554e-09
1.10987e-08
3.39397e-07
-9.83291e-09
8.63465e-09
3.78916e-07
-1.39474e-08
5.71208e-09
4.05437e-07
-1.69824e-08
2.58666e-09
4.18439e-07
-1.82418e-08
-5.28804e-10
4.1845e-07
-1.74086e-08
-3.52033e-09
4.06601e-07
-1.44692e-08
-6.23608e-09
3.84538e-07
-9.65397e-09
-8.49919e-09
3.54122e-07
-3.44055e-09
-1.01594e-08
3.17398e-07
3.47087e-09
-1.11954e-08
2.76678e-07
1.02413e-08
-1.16987e-08
2.34339e-07
1.6148e-08
-1.18028e-08
1.92205e-07
2.10961e-08
-1.16223e-08
1.51548e-07
2.50652e-08
-1.12355e-08
1.13226e-07
2.80068e-08
-1.07008e-08
7.77669e-08
2.99083e-08
-1.00651e-08
4.54806e-08
3.0792e-08
-9.36354e-09
1.65631e-08
3.07045e-08
-8.62743e-09
-8.82075e-09
2.97212e-08
-7.88179e-09
-3.04711e-08
2.79294e-08
-7.15228e-09
-4.8151e-08
2.54255e-08
-6.46173e-09
-6.14123e-08
2.22899e-08
-5.83698e-09
-6.99888e-08
1.89495e-08
-5.29979e-09
-7.39493e-08
1.57764e-08
-4.87729e-09
-7.35711e-08
1.30106e-08
-4.59014e-09
-6.92356e-08
1.07231e-08
-4.46289e-09
-6.14161e-08
8.88597e-09
-4.50243e-09
-5.06512e-08
7.39254e-09
-4.75509e-09
-3.73509e-08
6.11205e-09
-5.46386e-09
-2.10306e-08
3.90407e-09
-6.85066e-09
-4.01716e-09
-8.53056e-09
1.01814e-08
-1.98566e-08
6.59959e-09
1.85951e-08
-1.37079e-08
4.97988e-09
2.6846e-08
-1.18794e-08
3.38073e-09
3.38403e-08
-1.1579e-08
2.46941e-09
3.86146e-08
-1.2232e-08
1.9008e-09
4.07059e-08
-1.32943e-08
1.37048e-09
4.02241e-08
-1.41025e-08
6.37106e-10
3.76288e-08
-1.40282e-08
-3.58656e-10
3.36435e-08
-1.26191e-08
-1.63654e-09
2.89982e-08
-9.6752e-09
-3.08876e-09
2.43598e-08
-5.27174e-09
-4.5586e-09
2.0307e-08
3.28683e-10
-5.93003e-09
1.74162e-08
6.5947e-09
-7.14462e-09
1.60082e-08
1.30399e-08
-8.16132e-09
1.61099e-08
1.90721e-08
-8.93273e-09
1.75156e-08
2.41636e-08
-9.4196e-09
1.99234e-08
2.8358e-08
-9.67086e-09
2.29655e-08
3.17451e-08
-9.72069e-09
2.62084e-08
3.43506e-08
-9.58809e-09
2.91892e-08
3.62184e-08
-9.28965e-09
3.14712e-08
3.73492e-08
-8.84076e-09
3.26796e-08
3.77556e-08
-8.25846e-09
3.25516e-08
3.74129e-08
-7.56404e-09
3.0948e-08
3.63217e-08
-6.78829e-09
2.79058e-08
3.44445e-08
-5.97757e-09
2.36024e-08
3.17511e-08
-5.15694e-09
1.83736e-08
2.85406e-08
-4.36165e-09
1.26149e-08
2.51533e-08
-3.62138e-09
6.79873e-09
2.18092e-08
-2.9785e-09
1.36776e-09
1.86275e-08
-2.47551e-09
-3.2061e-09
1.56056e-08
-2.14477e-09
-6.43565e-09
1.26632e-08
-2.04166e-09
-7.52392e-09
9.61919e-09
-2.41884e-09
-5.72909e-09
5.67131e-09
-3.5614e-09
-4.64902e-09
-5.0979e-09
-6.38156e-09
-2.03002e-08
6.82591e-09
-1.36725e-08
-1.32774e-08
6.85873e-09
-2.14369e-08
-1.0546e-08
6.43297e-09
-3.03916e-08
-8.60411e-09
5.97804e-09
-4.09224e-08
-7.06364e-09
5.364e-09
-5.30619e-08
-5.67806e-09
4.52117e-09
-6.63716e-08
-4.24865e-09
3.4581e-09
-7.99949e-08
-2.64918e-09
2.24314e-09
-9.28088e-08
-7.99564e-10
9.93778e-10
-1.03593e-07
1.31573e-09
-2.05328e-10
-1.1127e-07
3.67627e-09
-1.27077e-09
-1.14903e-07
6.20411e-09
-2.24401e-09
-1.14057e-07
8.86633e-09
-3.11724e-09
-1.08699e-07
1.15768e-08
-3.89359e-09
-9.93394e-08
1.42632e-08
-4.55172e-09
-8.69487e-08
1.68428e-08
-5.07084e-09
-7.24274e-08
1.92658e-08
-5.42824e-09
-5.65369e-08
2.14776e-08
-5.62285e-09
-3.99849e-08
2.34484e-08
-5.65067e-09
-2.3385e-08
2.51402e-08
-5.52003e-09
-7.34343e-09
2.65356e-08
-5.22961e-09
7.59851e-09
2.76057e-08
-4.7915e-09
2.08752e-08
2.83426e-08
-4.20652e-09
3.19647e-08
2.87274e-08
-3.49508e-09
4.03099e-08
2.87674e-08
-2.66816e-09
4.53664e-08
2.84562e-08
-1.76084e-09
4.68905e-08
2.78214e-08
-8.05249e-10
4.50441e-08
2.68732e-08
1.25121e-10
4.02355e-08
2.56298e-08
9.87946e-10
3.31331e-08
2.40409e-08
1.68975e-09
2.45288e-08
2.20232e-08
2.18671e-09
1.54563e-08
1.93591e-08
2.37581e-09
7.2923e-09
1.57414e-08
2.04308e-09
1.48333e-09
1.05341e-08
9.46147e-10
-2.52938e-09
-6.36643e-10
-1.25964e-08
-1.58718e-08
8.16792e-09
-2.56147e-08
-9.57268e-09
9.31255e-09
-3.86236e-08
-7.12337e-09
9.588e-09
-5.14806e-08
-5.28535e-09
9.53794e-09
-6.38816e-08
-3.81466e-09
9.15249e-09
-7.54743e-08
-2.55357e-09
8.46733e-09
-8.58362e-08
-1.36819e-09
7.48178e-09
-9.45592e-08
-2.01469e-10
6.27427e-09
-1.01302e-07
9.99347e-10
4.94515e-09
-1.05855e-07
2.23135e-09
3.63694e-09
-1.08156e-07
3.54684e-09
2.42981e-09
-1.08239e-07
4.90787e-09
1.37976e-09
-1.06175e-07
6.31913e-09
4.84061e-10
-1.02104e-07
7.75125e-09
-2.4572e-10
-9.62104e-08
9.19962e-09
-8.29493e-10
-8.87424e-08
1.06343e-08
-1.26012e-09
-7.99698e-08
1.20476e-08
-1.55395e-09
-7.02046e-08
1.34112e-08
-1.69824e-09
-5.9766e-08
1.4717e-08
-1.70857e-09
-4.89894e-08
1.59347e-08
-1.56981e-09
-3.8212e-08
1.70549e-08
-1.29728e-09
-2.77774e-08
1.80458e-08
-8.73889e-10
-1.80159e-08
1.88989e-08
-3.18156e-10
-9.2543e-09
1.95831e-08
3.81644e-10
-1.77053e-09
2.00947e-08
1.19179e-09
4.18375e-09
2.03997e-08
2.10055e-09
8.47506e-09
2.04936e-08
3.03715e-09
1.10627e-08
2.0334e-08
3.95075e-09
1.20586e-08
1.98926e-08
4.74201e-09
1.16623e-08
1.90758e-08
5.36143e-09
1.01705e-08
1.77764e-08
5.73823e-09
7.9168e-09
1.57713e-08
5.842e-09
5.34088e-09
1.27769e-08
5.54071e-09
2.80467e-09
8.35083e-09
4.71977e-09
-2.90903e-09
3.1838e-09
-9.31422e-09
-1.47858e-08
8.22649e-09
-1.99858e-08
-8.88759e-09
9.98828e-09
-3.1076e-08
-6.70801e-09
1.06744e-08
-4.20308e-08
-5.2034e-09
1.08733e-08
-5.2438e-08
-4.08743e-09
1.06794e-08
-6.19261e-08
-3.21861e-09
1.01534e-08
-7.01373e-08
-2.49839e-09
9.34107e-09
-7.67636e-08
-1.86792e-09
8.2932e-09
-8.15946e-08
-1.29234e-09
7.1218e-09
-8.4549e-08
-7.44314e-10
5.93167e-09
-8.56225e-08
-2.05983e-10
4.82391e-09
-8.48942e-08
3.43291e-10
3.83856e-09
-8.24952e-08
9.17463e-10
3.00137e-09
-7.85788e-08
1.53189e-09
2.30322e-09
-7.33315e-08
2.20153e-09
1.75126e-09
-6.69462e-08
2.91836e-09
1.32991e-09
-5.96345e-08
3.69031e-09
1.04811e-09
-5.16474e-08
4.52851e-09
8.92949e-10
-4.32234e-08
5.41585e-09
8.7713e-10
-3.46214e-08
6.3446e-09
9.89354e-10
-2.61067e-08
7.29369e-09
1.24554e-09
-1.79414e-08
8.24687e-09
1.63477e-09
-1.03876e-08
9.1717e-09
2.17366e-09
-3.69869e-09
1.00477e-08
2.84581e-09
1.90704e-09
1.0834e-08
3.65607e-09
6.24041e-09
1.15043e-08
4.56053e-09
9.20553e-09
1.20081e-08
5.5221e-09
1.07857e-08
1.23073e-08
6.44556e-09
1.1092e-08
1.23274e-08
7.25809e-09
1.0312e-08
1.19921e-08
7.8651e-09
8.68925e-09
1.11684e-08
8.23023e-09
6.49178e-09
9.6812e-09
8.28819e-09
4.04325e-09
7.26718e-09
7.95823e-09
1.80909e-09
3.49243e-09
7.0931e-09
-6.40318e-09
5.30288e-09
-8.06254e-09
-1.30275e-08
6.30425e-09
-1.77348e-08
-7.55452e-09
8.33891e-09
-2.80776e-08
-5.61306e-09
9.24945e-09
-3.8436e-08
-4.42283e-09
9.57752e-09
-4.82171e-08
-3.76377e-09
9.4566e-09
-5.69481e-08
-3.48812e-09
9.00083e-09
-6.42203e-08
-3.48436e-09
8.25885e-09
-6.97131e-08
-3.66984e-09
7.29444e-09
-7.32147e-08
-3.98329e-09
6.19157e-09
-7.46505e-08
-4.36631e-09
5.05825e-09
-7.40651e-08
-4.76984e-09
3.97817e-09
-7.15889e-08
-5.14111e-09
3.00854e-09
-6.74011e-08
-5.4416e-09
2.17126e-09
-6.17198e-08
-5.62991e-09
1.47944e-09
-5.4768e-08
-5.67851e-09
9.28855e-10
-4.68152e-08
-5.55909e-09
5.24688e-10
-3.81283e-08
-5.25685e-09
2.60975e-10
-2.8985e-08
-4.76074e-09
1.44665e-10
-1.96598e-08
-4.07372e-09
1.65648e-10
-1.04443e-08
-3.20213e-09
3.30869e-10
-1.62593e-09
-2.16539e-09
6.41352e-10
6.50597e-09
-9.88544e-10
1.10335e-09
1.36747e-08
2.92547e-10
1.70986e-09
1.96261e-08
1.63344e-09
2.46367e-09
2.41326e-08
2.98123e-09
3.34499e-09
2.70236e-08
4.28583e-09
4.32992e-09
2.82139e-08
5.46102e-09
5.35445e-09
2.77407e-08
6.43632e-09
6.34466e-09
2.57473e-08
7.11998e-09
7.201e-09
2.24836e-08
7.40272e-09
7.85222e-09
1.82603e-08
7.15751e-09
8.23576e-09
1.3439e-08
6.20115e-09
8.30017e-09
8.48977e-09
4.30686e-09
7.91057e-09
3.92798e-09
1.14689e-09
6.90583e-09
-7.3108e-09
4.83635e-09
-6.75e-09
-9.64517e-09
3.3688e-09
-1.74815e-08
-2.38055e-09
5.55574e-09
-2.98657e-08
1.08281e-10
6.66413e-09
-4.2628e-08
1.29689e-09
7.04091e-09
-5.47921e-08
1.51259e-09
6.8885e-09
-6.5613e-08
9.68777e-10
6.36576e-09
-7.45035e-08
-1.44002e-10
5.54731e-09
-8.09926e-08
-1.66957e-09
4.48991e-09
-8.47918e-08
-3.46349e-09
3.27987e-09
-8.5771e-08
-5.40072e-09
2.01404e-09
-8.39669e-08
-7.36394e-09
7.89752e-10
-7.95381e-08
-9.23661e-09
-3.33724e-10
-7.27476e-08
-1.09162e-08
-1.31581e-09
-6.39162e-08
-1.2324e-08
-2.13685e-09
-5.34078e-08
-1.34063e-08
-2.78163e-09
-4.15938e-08
-1.41209e-08
-3.25067e-09
-2.88804e-08
-1.44361e-08
-3.53518e-09
-1.56741e-08
-1.4327e-08
-3.64022e-09
-2.40498e-09
-1.3784e-08
-3.55874e-09
1.0497e-08
-1.28085e-08
-3.2959e-09
2.2594e-08
-1.14162e-08
-2.84587e-09
3.34557e-08
-9.63438e-09
-2.21561e-09
4.26559e-08
-7.50262e-09
-1.40526e-09
4.98039e-08
-5.08315e-09
-4.30445e-10
5.45662e-08
-2.46683e-09
6.85497e-10
5.6735e-08
2.19131e-10
1.89821e-09
5.62163e-08
2.83159e-09
3.14637e-09
5.31184e-08
5.20066e-09
4.33457e-09
4.76877e-08
7.18027e-09
5.37087e-09
4.03345e-08
8.58606e-09
6.16993e-09
3.15927e-08
9.22471e-09
6.67475e-09
2.21265e-08
8.85488e-09
6.81081e-09
1.28179e-08
7.20482e-09
6.4122e-09
4.82598e-09
3.87308e-09
5.266e-09
-5.53409e-09
3.049e-09
-8.29152e-09
-1.83596e-09
4.80892e-10
-2.22083e-08
8.97596e-09
2.56262e-09
-3.84152e-08
1.25792e-08
3.73569e-09
-5.50952e-08
1.39298e-08
4.04572e-09
-7.08205e-08
1.35088e-08
3.72895e-09
-8.45185e-08
1.16771e-08
2.99156e-09
-9.53531e-08
8.77909e-09
1.91055e-09
-1.02679e-07
5.10455e-09
5.52544e-10
-1.06133e-07
9.91071e-10
-1.001e-09
-1.05594e-07
-3.30275e-09
-2.63781e-09
-1.01194e-07
-7.49897e-09
-4.26339e-09
-9.35036e-08
-1.11396e-08
-5.78737e-09
-8.33019e-08
-1.39757e-08
-7.14281e-09
-7.12605e-08
-1.60937e-08
-8.27134e-09
-5.78261e-08
-1.76851e-08
-9.15585e-09
-4.33437e-08
-1.88169e-08
-9.78691e-09
-2.81443e-08
-1.94621e-08
-1.01731e-08
-1.25342e-08
-1.96275e-08
-1.03096e-08
3.19348e-09
-1.93098e-08
-1.02017e-08
1.87376e-08
-1.85118e-08
-9.8408e-09
3.37917e-08
-1.72445e-08
-9.22646e-09
4.80376e-08
-1.55339e-08
-8.34463e-09
6.09559e-08
-1.32207e-08
-7.2001e-09
7.1772e-08
-1.00893e-08
-5.8107e-09
7.95747e-08
-6.03229e-09
-4.23691e-09
8.35616e-08
-1.20669e-09
-2.56109e-09
8.33692e-08
3.91058e-09
-8.8667e-10
7.91569e-08
8.72475e-09
6.88377e-10
7.13235e-08
1.29521e-08
2.06077e-09
6.04892e-08
1.62716e-08
3.14925e-09
4.74818e-08
1.83415e-08
3.89207e-09
3.33241e-08
1.87969e-08
4.21331e-09
1.93708e-08
1.72407e-08
3.9189e-09
7.30855e-09
1.3156e-08
2.78017e-09
1.04324e-09
7.30288e-10
-9.53475e-09
8.60833e-09
-9.10004e-10
-2.50685e-08
2.36377e-08
8.73979e-10
-4.27579e-08
2.84155e-08
1.85068e-09
-6.04667e-08
2.97018e-08
1.93882e-09
-7.64544e-08
2.81435e-08
1.3514e-09
-8.93038e-08
2.4262e-08
2.65748e-10
-9.77865e-08
1.85166e-08
-1.25638e-09
-1.01326e-07
1.18205e-08
-3.17586e-09
-1.00178e-07
5.21551e-09
-5.37238e-09
-9.51695e-08
-6.38484e-10
-7.67203e-09
-8.73675e-08
-5.38833e-09
-9.91232e-09
-7.78196e-08
-8.73323e-09
-1.19547e-08
-6.72874e-08
-1.08225e-08
-1.36856e-08
-5.61279e-08
-1.21926e-08
-1.50612e-08
-4.448e-08
-1.32358e-08
-1.60956e-08
-3.24857e-08
-1.39882e-08
-1.68229e-08
-2.025e-08
-1.44367e-08
-1.7262e-08
-7.86185e-09
-1.45812e-08
-1.74338e-08
4.60018e-09
-1.44343e-08
-1.73394e-08
1.70647e-08
-1.40017e-08
-1.69715e-08
2.94394e-08
-1.33186e-08
-1.63026e-08
4.16305e-08
-1.24187e-08
-1.53068e-08
5.35358e-08
-1.11868e-08
-1.39371e-08
6.47887e-08
-9.15861e-09
-1.21847e-08
7.45959e-08
-5.74766e-09
-1.00919e-08
8.18405e-08
-6.77401e-10
-7.77329e-09
8.53649e-08
5.78186e-09
-5.3961e-09
8.42614e-08
1.29738e-08
-3.1455e-09
7.8184e-08
2.02106e-08
-1.18082e-09
6.76373e-08
2.64401e-08
3.777e-10
5.38664e-08
3.06283e-08
1.48428e-09
3.82553e-08
3.23178e-08
2.08989e-09
2.2476e-08
3.09909e-08
2.03125e-09
8.5368e-09
2.59814e-08
1.10974e-09
1.02024e-08
-6.19382e-10
-8.2375e-09
1.78519e-08
-1.00533e-09
-2.12923e-08
3.64097e-08
2.80978e-10
-3.59005e-08
4.21512e-08
8.74183e-10
-5.02015e-08
4.33117e-08
6.90932e-10
-6.25573e-08
4.06593e-08
-1.59835e-10
-7.14253e-08
3.47044e-08
-1.57443e-09
-7.57595e-08
2.64341e-08
-3.58411e-09
-7.55967e-08
1.77659e-08
-6.10694e-09
-7.18122e-08
1.03269e-08
-8.89678e-09
-6.56964e-08
4.88931e-09
-1.16435e-08
-5.85483e-08
1.56398e-09
-1.40997e-08
-5.11076e-08
-6.75952e-11
-1.61062e-08
-4.35235e-08
-7.79265e-10
-1.763e-08
-3.55859e-08
-1.38075e-09
-1.87457e-08
-2.73106e-08
-1.96153e-09
-1.95519e-08
-1.87724e-08
-2.42917e-09
-2.00967e-08
-1.00631e-08
-2.72759e-09
-2.04196e-08
-1.28548e-09
-2.81884e-09
-2.05377e-08
7.42994e-09
-2.6925e-09
-2.0459e-08
1.59745e-08
-2.36943e-09
-2.01765e-08
2.42291e-08
-1.89762e-09
-1.96742e-08
3.2069e-08
-1.34545e-09
-1.89146e-08
3.95479e-08
-8.17385e-10
-1.78481e-08
4.69357e-08
-1.81462e-10
-1.63645e-08
5.41596e-08
1.41027e-09
-1.43816e-08
6.06367e-08
4.76548e-09
-1.19203e-08
6.52305e-08
1.03265e-08
-9.13703e-09
6.65162e-08
1.79781e-08
-6.29204e-09
6.35021e-08
2.69365e-08
-3.71094e-09
5.60757e-08
3.55217e-08
-1.65532e-09
4.52113e-08
4.17045e-08
-2.1074e-10
3.24041e-08
4.44657e-08
6.58159e-10
1.92143e-08
4.33111e-08
8.69481e-10
7.40832e-09
3.74692e-08
3.20225e-10
1.85199e-08
-9.10587e-10
-5.98628e-09
2.49908e-08
-1.15303e-09
-1.59919e-08
4.67036e-08
-2.88514e-10
-2.73731e-08
5.35177e-08
1.58135e-11
-3.87278e-08
5.49885e-08
-3.23e-10
-4.87468e-08
5.19523e-08
-1.27484e-09
-5.60928e-08
4.4894e-08
-2.84369e-09
-6.03568e-08
3.57328e-08
-5.03437e-09
-6.17832e-08
2.68713e-08
-7.67918e-09
-6.07955e-08
1.9794e-08
-1.04531e-08
-5.78822e-08
1.49948e-08
-1.302e-08
-5.34843e-08
1.23297e-08
-1.51644e-08
-4.78826e-08
1.11496e-08
-1.68179e-08
-4.12277e-08
1.05921e-08
-1.80264e-08
-3.36075e-08
9.9135e-09
-1.8915e-08
-2.5268e-08
9.24964e-09
-1.95505e-08
-1.64164e-08
8.69984e-09
-1.99791e-08
-7.26035e-09
8.34423e-09
-2.02291e-08
2.00951e-09
8.22599e-09
-2.03141e-08
1.11917e-08
8.36272e-09
-2.02387e-08
2.00887e-08
8.73366e-09
-1.99991e-08
2.84816e-08
9.29233e-09
-1.95828e-08
3.61436e-08
9.95596e-09
-1.89632e-08
4.28041e-08
1.06198e-08
-1.80972e-08
4.83959e-08
1.11447e-08
-1.69184e-08
5.28049e-08
1.22965e-08
-1.52955e-08
5.57871e-08
1.49585e-08
-1.3175e-08
5.69444e-08
1.97899e-08
-1.06198e-08
5.58291e-08
2.69384e-08
-7.8462e-09
5.20549e-08
3.59069e-08
-5.19436e-09
4.53659e-08
4.5201e-08
-2.9916e-09
3.60919e-08
5.23888e-08
-1.40917e-09
2.55058e-08
5.54931e-08
-4.43616e-10
1.48727e-08
5.40326e-08
-8.67449e-11
5.53005e-09
4.71751e-08
-3.63279e-10
2.52395e-08
-1.18944e-09
-5.35825e-09
3.15688e-08
-1.21944e-09
-1.43148e-08
5.62189e-08
-5.57995e-10
-2.46398e-08
6.42098e-08
-3.67921e-10
-3.52445e-08
6.63406e-08
-7.45859e-10
-4.50645e-08
6.34613e-08
-1.69006e-09
-5.30727e-08
5.61288e-08
-3.22721e-09
-5.88715e-08
4.68691e-08
-5.33578e-09
-6.22295e-08
3.80581e-08
-7.83111e-09
-6.30285e-08
3.09974e-08
-1.04026e-08
-6.13715e-08
2.60702e-08
-1.2734e-08
-5.74741e-08
2.30885e-08
-1.46549e-08
-5.16455e-08
2.14624e-08
-1.61398e-08
-4.42703e-08
2.04514e-08
-1.72384e-08
-3.57649e-08
1.9459e-08
-1.8048e-08
-2.64531e-08
1.85575e-08
-1.8621e-08
-1.6589e-08
1.78417e-08
-1.90039e-08
-6.40614e-09
1.73875e-08
-1.92263e-08
3.88537e-09
1.72339e-08
-1.93004e-08
1.40796e-08
1.74002e-08
-1.92312e-08
2.39623e-08
1.78661e-08
-1.90143e-08
3.33008e-08
1.85917e-08
-1.86381e-08
4.18296e-08
1.94997e-08
-1.80739e-08
4.92326e-08
2.04943e-08
-1.72767e-08
5.50737e-08
2.14984e-08
-1.61962e-08
5.89916e-08
2.31148e-08
-1.4734e-08
6.06935e-08
2.60927e-08
-1.28367e-08
5.99791e-08
3.10291e-08
-1.05253e-08
5.67693e-08
3.81162e-08
-7.96806e-09
5.11864e-08
4.69711e-08
-5.48115e-09
4.34672e-08
5.62947e-08
-3.375e-09
3.39916e-08
6.37006e-08
-1.83538e-09
2.37502e-08
6.66201e-08
-8.85576e-10
1.37806e-08
6.44969e-08
-4.95172e-10
5.13657e-09
5.64838e-08
-6.65097e-10
3.16713e-08
-1.29402e-09
-5.06264e-09
3.7556e-08
-9.24305e-10
-1.35798e-08
6.50458e-08
-3.09665e-10
-2.34846e-08
7.42589e-08
-1.44988e-10
-3.38517e-08
7.71961e-08
-4.89188e-10
-4.37851e-08
7.47527e-08
-1.35663e-09
-5.24394e-08
6.75552e-08
-2.77186e-09
-5.92272e-08
5.83672e-08
-4.71107e-09
-6.36328e-08
4.94719e-08
-7.00819e-09
-6.53244e-08
4.20625e-08
-9.37385e-09
-6.42453e-08
3.65172e-08
-1.15249e-08
-6.0553e-08
3.27072e-08
-1.33119e-08
-5.45757e-08
3.02002e-08
-1.47148e-08
-4.67824e-08
2.84285e-08
-1.57698e-08
-3.77163e-08
2.69354e-08
-1.65438e-08
-2.77418e-08
2.567e-08
-1.70856e-08
-1.7165e-08
2.47087e-08
-1.7444e-08
-6.23835e-09
2.41109e-08
-1.76504e-08
4.80444e-09
2.39093e-08
-1.77185e-08
1.57372e-08
2.41196e-08
-1.76524e-08
2.63272e-08
2.47257e-08
-1.74484e-08
3.63169e-08
2.56947e-08
-1.7093e-08
4.54061e-08
2.6967e-08
-1.65556e-08
5.32234e-08
2.84653e-08
-1.5788e-08
5.92252e-08
3.02384e-08
-1.47429e-08
6.29496e-08
3.27452e-08
-1.33536e-08
6.40682e-08
3.65566e-08
-1.15827e-08
6.24352e-08
4.21089e-08
-9.44798e-09
5.81154e-08
4.95328e-08
-7.09688e-09
5.14477e-08
5.84517e-08
-4.81125e-09
4.29442e-08
6.76766e-08
-2.87909e-09
3.31909e-08
7.49197e-08
-1.46622e-09
2.30193e-08
7.73894e-08
-5.97122e-10
1.33023e-08
7.4458e-08
-2.43866e-10
4.94993e-09
6.5233e-08
-3.96146e-10
3.76065e-08
-9.86253e-10
-5.19238e-09
4.29545e-08
-2.04443e-10
-1.35484e-08
7.29339e-08
4.66054e-10
-2.32436e-08
8.32799e-08
6.73888e-10
-3.3468e-08
8.70265e-08
3.95113e-10
-4.34616e-08
8.51159e-08
-3.697e-10
-5.24874e-08
7.82181e-08
-1.63801e-09
-5.98428e-08
6.91171e-08
-3.39327e-09
-6.48808e-08
6.00025e-08
-5.4943e-09
-6.71409e-08
5.20099e-08
-7.68603e-09
-6.64848e-08
4.55637e-08
-9.7034e-09
-6.30128e-08
4.06454e-08
-1.14093e-08
-5.70325e-08
3.69956e-08
-1.27767e-08
-4.90223e-08
3.42405e-08
-1.38213e-08
-3.95561e-08
3.20532e-08
-1.45834e-08
-2.90649e-08
3.02892e-08
-1.51115e-08
-1.78952e-08
2.89946e-08
-1.54558e-08
-6.33605e-09
2.82047e-08
-1.56521e-08
5.34833e-09
2.79398e-08
-1.57165e-08
1.69126e-08
2.82104e-08
-1.56534e-08
2.80913e-08
2.90058e-08
-1.54585e-08
3.85955e-08
3.03059e-08
-1.51161e-08
4.80787e-08
3.20749e-08
-1.45904e-08
5.61074e-08
3.42669e-08
-1.38319e-08
6.21141e-08
3.70257e-08
-1.27926e-08
6.56132e-08
4.0679e-08
-1.14331e-08
6.63049e-08
4.56017e-08
-9.73723e-09
6.40901e-08
5.20548e-08
-7.73098e-09
5.91149e-08
6.0058e-08
-5.55048e-09
5.18387e-08
6.91882e-08
-3.45929e-09
4.29123e-08
7.8313e-08
-1.71108e-09
3.30383e-08
8.52407e-08
-4.45812e-10
2.29412e-08
8.71694e-08
3.17488e-10
1.33682e-08
8.34284e-08
6.01828e-10
5.11859e-09
7.30773e-08
4.05119e-10
4.29763e-08
-2.50089e-10
-5.31521e-09
4.75993e-08
6.70242e-10
-1.34908e-08
7.96254e-08
1.48425e-09
-2.29135e-08
9.0946e-08
1.75705e-09
-3.28745e-08
9.54288e-08
1.55894e-09
-4.27097e-08
9.40603e-08
8.906e-10
-5.17751e-08
8.75343e-08
-2.52046e-10
-5.93458e-08
7.85388e-08
-1.84844e-09
-6.47221e-08
6.91624e-08
-3.78544e-09
-6.73919e-08
6.0516e-08
-5.83591e-09
-6.71406e-08
5.30649e-08
-7.75233e-09
-6.40141e-08
4.69164e-08
-9.39629e-09
-5.82665e-08
4.1979e-08
-1.0733e-08
-5.03146e-08
3.80601e-08
-1.17703e-08
-4.07027e-08
3.49692e-08
-1.25282e-08
-2.99271e-08
3.25694e-08
-1.30556e-08
-1.83897e-08
3.08516e-08
-1.33944e-08
-6.41981e-09
2.98201e-08
-1.35847e-08
5.69039e-09
2.94762e-08
-1.36466e-08
1.76629e-08
2.98232e-08
-1.35855e-08
2.92066e-08
3.08577e-08
-1.33961e-08
3.9992e-08
3.25786e-08
-1.30583e-08
4.96178e-08
3.49815e-08
-1.25321e-08
5.75843e-08
3.80756e-08
-1.17762e-08
6.33538e-08
4.19978e-08
-1.07417e-08
6.65042e-08
4.6939e-08
-9.40938e-09
6.67855e-08
5.3092e-08
-7.77138e-09
6.41533e-08
6.05489e-08
-5.86215e-09
5.88284e-08
6.92035e-08
-3.81939e-09
5.13121e-08
7.85909e-08
-1.88964e-09
4.23244e-08
8.76029e-08
-2.98643e-10
3.25739e-08
9.41492e-08
8.40262e-10
2.27042e-08
9.55312e-08
1.50803e-09
1.33699e-08
9.10547e-08
1.70947e-09
5.26534e-09
7.97349e-08
1.44469e-09
4.75999e-08
6.43338e-10
-5.32391e-09
5.15089e-08
1.41496e-09
-1.32599e-08
8.52079e-08
2.35204e-09
-2.23481e-08
9.73497e-08
2.6849e-09
-3.19481e-08
1.02477e-07
2.55084e-09
-4.14533e-08
1.0161e-07
1.95687e-09
-5.02881e-08
9.54623e-08
9.06074e-10
-5.77619e-08
8.65912e-08
-5.77957e-10
-6.31826e-08
7.69756e-08
-2.39268e-09
-6.60322e-08
6.76998e-08
-4.33348e-09
-6.6072e-08
5.927e-08
-6.1653e-09
-6.33047e-08
5.18984e-08
-7.75017e-09
-5.7915e-08
4.56401e-08
-9.05e-09
-5.0253e-08
4.04679e-08
-1.00705e-08
-4.07859e-08
3.63306e-08
-1.08284e-08
-3.00307e-08
3.31727e-08
-1.13584e-08
-1.84366e-08
3.09543e-08
-1.16969e-08
-6.37127e-09
2.96382e-08
-1.18835e-08
5.8466e-09
2.92017e-08
-1.19436e-08
1.79142e-08
2.96397e-08
-1.18839e-08
2.95126e-08
3.09575e-08
-1.16977e-08
4.02727e-08
3.31775e-08
-1.13597e-08
4.97492e-08
3.63372e-08
-1.08304e-08
5.74205e-08
4.04765e-08
-1.00737e-08
6.28223e-08
4.5651e-08
-9.05506e-09
6.56085e-08
5.19121e-08
-7.75806e-09
6.55901e-08
5.92872e-08
-6.17715e-09
6.27676e-08
6.77213e-08
-4.35024e-09
5.73828e-08
7.70031e-08
-2.4149e-09
4.99526e-08
8.66266e-08
-6.05463e-10
4.1173e-08
9.5509e-08
8.74145e-10
3.17283e-08
1.01671e-07
1.92228e-09
2.21969e-08
1.02548e-07
2.51569e-09
1.31706e-08
9.74281e-08
2.65214e-09
5.2884e-09
8.52914e-08
2.32522e-09
5.14924e-08
1.39636e-09
-5.23959e-09
5.48771e-08
1.86948e-09
-1.29509e-08
9.00389e-08
2.88332e-09
-2.17605e-08
1.02902e-07
3.25613e-09
-3.10465e-08
1.08598e-07
3.16503e-09
-4.023e-08
1.08174e-07
2.61948e-09
-4.87552e-08
1.0236e-07
1.62829e-09
-5.59875e-08
9.36025e-08
2.20154e-10
-6.12774e-08
8.37682e-08
-1.50269e-09
-6.41281e-08
7.39089e-08
-3.35734e-09
-6.43036e-08
6.45629e-08
-5.11857e-09
-6.17845e-08
5.60288e-08
-6.64992e-09
-5.67177e-08
4.84857e-08
-7.9109e-09
-4.93954e-08
4.20525e-08
-8.90693e-09
-4.02209e-08
3.681e-08
-9.65414e-09
-2.96674e-08
3.27949e-08
-1.01758e-08
-1.8204e-08
3.0003e-08
-1.05108e-08
-6.23631e-09
2.83607e-08
-1.06932e-08
5.89933e-09
2.78182e-08
-1.07512e-08
1.78709e-08
2.83617e-08
-1.06931e-08
2.93347e-08
3.00048e-08
-1.05106e-08