/*--------------------------------*- C++ -*----------------------------------*\
| =========                 |                                                 |
| \\      /  F ield         | OpenFOAM: The Open Source CFD Toolbox           |
|  \\    /   O peration     | Version:  v1906                                 |
|   \\  /    A nd           | Web:      www.OpenFOAM.com                      |
|    \\/     M anipulation  |                                                 |
\*---------------------------------------------------------------------------*/
FoamFile
{
    version     2.0;
    format      ascii;
    class       volVectorField;
    location    "4";
    object      U;
}
// * * * * * * * * * * * * * * * * * * * * * * * * * * * * * * * * * * * * * //

dimensions      [0 1 -1 0 0 0 0];


internalField   nonuniform List<vector> 
78750
(
(1.47458e-05 -9.39749e-05 0.000441137)
(5.10748e-05 -8.30259e-05 0.000985111)
(7.24664e-05 -2.9329e-05 0.00135418)
(8.73537e-05 4.52228e-05 0.00167521)
(8.84034e-05 0.000126988 0.00193083)
(7.50073e-05 0.000207882 0.00211267)
(4.76414e-05 0.000281923 0.00221631)
(8.39403e-06 0.000345437 0.0022443)
(-4.05846e-05 0.000396696 0.00220406)
(-9.67214e-05 0.000435589 0.00210712)
(-0.000157106 0.000462801 0.00196704)
(-0.000218905 0.000479408 0.00179763)
(-0.000279728 0.000486481 0.00161139)
(-0.000337824 0.000485009 0.00141854)
(-0.000391532 0.000475932 0.00122641)
(-0.000441122 0.000461176 0.00103724)
(-0.000485355 0.000441635 0.000853766)
(-0.000523543 0.000418139 0.000677362)
(-0.000554893 0.000391487 0.000508714)
(-0.000578448 0.000362527 0.000348318)
(-0.0005932 0.00033224 0.000196638)
(-0.000598204 0.000301884 5.46862e-05)
(-0.000592836 0.000272973 -7.58346e-05)
(-0.000577141 0.000246917 -0.000193148)
(-0.000551104 0.000224065 -0.000298478)
(-0.000515658 0.000205246 -0.000387946)
(-0.00047186 0.000190116 -0.00045988)
(-0.000421697 0.000177708 -0.000512394)
(-0.000365672 0.000166269 -0.000545411)
(-0.000305475 0.000154325 -0.000556978)
(-0.000241815 0.000140312 -0.000545502)
(-0.000175062 0.000123211 -0.000509116)
(-0.0001075 0.00010279 -0.000445808)
(-5.26517e-05 7.97736e-05 -0.000353725)
(-1.39944e-05 4.07222e-05 -0.000183054)
(-5.05706e-05 -0.000159226 0.000691262)
(-0.00012196 -0.000105847 0.0012739)
(-0.000232458 -4.70999e-05 0.00161415)
(-0.000385087 2.78368e-05 0.00186197)
(-0.000542261 0.000116227 0.00200269)
(-0.000690174 0.000210446 0.00204274)
(-0.000824425 0.000309035 0.00198959)
(-0.000938604 0.000409011 0.00185456)
(-0.00102978 0.000509021 0.00165182)
(-0.00109633 0.000604761 0.0014001)
(-0.0011384 0.000690786 0.00112437)
(-0.00115727 0.00076128 0.00085672)
(-0.00115591 0.000813221 0.000629241)
(-0.00113881 0.000847708 0.000459188)
(-0.00111115 0.000868471 0.000343529)
(-0.00107715 0.000878168 0.00026676)
(-0.00104009 0.000877786 0.000208412)
(-0.00100149 0.000866755 0.000151384)
(-0.000962106 0.000843935 8.48812e-05)
(-0.000921616 0.000808413 4.59033e-06)
(-0.000879182 0.000760059 -8.83604e-05)
(-0.000833563 0.000699989 -0.000188994)
(-0.000783743 0.000630968 -0.000290081)
(-0.000729332 0.000557259 -0.000384094)
(-0.000670622 0.000483868 -0.000464743)
(-0.000608256 0.000415395 -0.00052716)
(-0.000542973 0.000355066 -0.000569045)
(-0.000475339 0.000302598 -0.000593834)
(-0.000406295 0.000256476 -0.000604346)
(-0.000336516 0.000215149 -0.000600284)
(-0.000266617 0.000177072 -0.000579432)
(-0.000196324 0.000141132 -0.000535206)
(-0.00012685 0.00010874 -0.000448345)
(-7.36599e-05 8.73959e-05 -0.000297163)
(-3.52163e-05 8.42909e-05 -4.06276e-05)
(-0.000153996 0.000846525 0.00125107)
(-0.000339869 0.00145694 0.00205506)
(-0.000595617 0.00174826 0.0024491)
(-0.000938529 0.00193021 0.00268808)
(-0.00127226 0.00201145 0.00276407)
(-0.00156372 0.00200582 0.00269235)
(-0.00180959 0.0019335 0.00249243)
(-0.0019976 0.00181468 0.0021974)
(-0.00212473 0.00166746 0.00184176)
(-0.00219284 0.00150858 0.00146307)
(-0.00220583 0.0013523 0.00109542)
(-0.00217176 0.0012089 0.000767257)
(-0.0020991 0.00108332 0.000495653)
(-0.00199732 0.000978175 0.000285202)
(-0.00187597 0.000893546 0.000129458)
(-0.00174335 0.000827001 1.66704e-05)
(-0.00160586 0.000774265 -6.51133e-05)
(-0.00146841 0.000730169 -0.000126914)
(-0.00133409 0.000689441 -0.000179303)
(-0.0012048 0.000647057 -0.000231579)
(-0.00108148 0.000599181 -0.000289049)
(-0.000964003 0.000544322 -0.000350139)
(-0.000852623 0.000486155 -0.000404803)
(-0.000748714 0.000432296 -0.000440172)
(-0.000651956 0.000386488 -0.00045449)
(-0.000561944 0.000347087 -0.000455375)
(-0.000479385 0.000313908 -0.000447231)
(-0.000403626 0.000285699 -0.00043318)
(-0.000334267 0.000261669 -0.00041477)
(-0.000270845 0.000240552 -0.000392011)
(-0.000212638 0.000221591 -0.000363973)
(-0.000158447 0.000203707 -0.000327792)
(-0.000107065 0.000186702 -0.000278101)
(-6.6624e-05 0.000170642 -0.000206118)
(-3.53015e-05 0.000153226 -3.62972e-05)
(-0.000246119 0.00161776 0.00155407)
(-0.000506895 0.00256858 0.00243514)
(-0.000833354 0.00298686 0.00281821)
(-0.00125914 0.00313217 0.00301143)
(-0.00165252 0.00301469 0.00302551)
(-0.00199911 0.00272064 0.00289209)
(-0.00227919 0.00233688 0.00264733)
(-0.00247765 0.00191622 0.00232249)
(-0.00258561 0.00149314 0.00194694)
(-0.00260844 0.00109332 0.00154715)
(-0.00255977 0.000737677 0.00114927)
(-0.00245822 0.000436957 0.000779163)
(-0.00231796 0.000192754 0.000476175)
(-0.00215355 1.38085e-05 0.000297449)
(-0.00198288 -9.07955e-05 0.000225715)
(-0.00180948 -0.000135916 0.000191521)
(-0.00163673 -0.00014135 0.00015793)
(-0.00146865 -0.000121105 0.000118585)
(-0.00130779 -8.5935e-05 7.63547e-05)
(-0.00115602 -4.35289e-05 3.50051e-05)
(-0.00101425 -3.73561e-07 -3.67359e-06)
(-0.000883222 3.93505e-05 -3.81782e-05)
(-0.000763429 7.44478e-05 -6.53581e-05)
(-0.000655261 0.000106507 -8.12465e-05)
(-0.000558421 0.000137952 -8.43311e-05)
(-0.000471992 0.000169976 -7.71564e-05)
(-0.000395069 0.000202071 -6.39817e-05)
(-0.00032701 0.000233125 -4.85408e-05)
(-0.000267058 0.000261646 -3.35378e-05)
(-0.000214381 0.000286171 -2.07467e-05)
(-0.000167992 0.000304593 -1.15201e-05)
(-0.00012622 0.000313613 -1.12505e-05)
(-8.63829e-05 0.000308356 -3.39187e-05)
(-5.4545e-05 0.000289087 -7.29148e-05)
(-2.94712e-05 0.000238841 -4.72959e-05)
(-0.000151803 0.00192812 0.00130302)
(-0.000294656 0.00285542 0.0019737)
(-0.000470999 0.00316606 0.00222077)
(-0.00069345 0.00320889 0.0023047)
(-0.000905402 0.00301012 0.0022524)
(-0.00110238 0.00262237 0.00208924)
(-0.00127755 0.00210721 0.00184245)
(-0.00141926 0.00153058 0.00154419)
(-0.00151484 0.000949421 0.0012241)
(-0.00155763 0.000406603 0.000908342)
(-0.00155155 -6.0333e-05 0.000624198)
(-0.00150773 -0.000435433 0.000386864)
(-0.00143919 -0.000718092 0.00020028)
(-0.0013591 -0.000904747 6.67374e-05)
(-0.00127252 -0.0010103 -2.75784e-05)
(-0.00118362 -0.001047 -9.22125e-05)
(-0.001093 -0.00103016 -0.000132402)
(-0.00100251 -0.000974068 -0.000148347)
(-0.000914297 -0.000891283 -0.000140528)
(-0.000829502 -0.000792729 -0.000112167)
(-0.000749225 -0.000686396 -6.8245e-05)
(-0.000674103 -0.000578057 -1.44261e-05)
(-0.000604422 -0.000471661 4.387e-05)
(-0.000540005 -0.000369652 0.000102119)
(-0.00048036 -0.000273389 0.000156825)
(-0.00042485 -0.000183569 0.000205638)
(-0.000372834 -0.000100484 0.000246977)
(-0.000323788 -2.44235e-05 0.000279734)
(-0.000277313 4.41377e-05 0.000302686)
(-0.000233085 0.000104186 0.000314642)
(-0.000190546 0.000154152 0.00031413)
(-0.000148833 0.000191388 0.000296224)
(-0.000106644 0.00021253 0.000248604)
(-7.17498e-05 0.000212833 0.000173111)
(-3.68849e-05 0.000167686 9.81501e-05)
(1.74404e-05 0.00107937 0.000804746)
(7.5144e-05 0.0015177 0.00118594)
(0.000141228 0.00162534 0.00130075)
(0.000233395 0.00158062 0.00131937)
(0.000321586 0.0013994 0.00125199)
(0.000398534 0.00111158 0.00110879)
(0.000459768 0.000757207 0.000910724)
(0.000505621 0.000376679 0.000681723)
(0.000535259 9.29478e-06 0.000446707)
(0.000548562 -0.000312578 0.000227284)
(0.000546448 -0.000574486 3.45084e-05)
(0.000529843 -0.000767394 -0.000122332)
(0.000500063 -0.000891977 -0.000239294)
(0.000459618 -0.000954422 -0.000315796)
(0.000411546 -0.000963003 -0.000352874)
(0.00035828 -0.000929019 -0.000355117)
(0.00030267 -0.000864698 -0.000328411)
(0.000246835 -0.00078165 -0.000279584)
(0.000192509 -0.000689131 -0.000215415)
(0.000141121 -0.000594403 -0.000142315)
(9.37478e-05 -0.000502566 -6.59469e-05)
(5.12711e-05 -0.000416684 9.16037e-06)
(1.43274e-05 -0.000338072 7.97311e-05)
(-1.66392e-05 -0.000266795 0.000143557)
(-4.13699e-05 -0.000202077 0.00019936)
(-5.98808e-05 -0.000142849 0.000246374)
(-7.24924e-05 -8.7953e-05 0.000284261)
(-7.96287e-05 -3.67153e-05 0.00031255)
(-8.1664e-05 1.09746e-05 0.000330625)
(-7.90907e-05 5.43185e-05 0.000337608)
(-7.2401e-05 9.18727e-05 0.000332502)
(-6.17406e-05 0.0001212 0.000310918)
(-4.69167e-05 0.000139516 0.000261682)
(-3.30001e-05 0.000139862 0.000185171)
(-1.61244e-05 9.20187e-05 0.000101713)
(5.2699e-05 9.39781e-05 0.000386198)
(0.000129379 0.00010582 0.000479476)
(0.000214488 9.94562e-05 0.000469593)
(0.000327703 7.27992e-05 0.000439484)
(0.000434981 2.76914e-05 0.000396344)
(0.0005287 -2.83236e-05 0.000340432)
(0.000604663 -8.48308e-05 0.000276765)
(0.000660104 -0.000132849 0.000211331)
(0.000693052 -0.000166368 0.000148866)
(0.000703623 -0.000182772 9.23602e-05)
(0.000693165 -0.000180592 4.48693e-05)
(0.000664039 -0.00015923 7.87195e-06)
(0.000619409 -0.000120529 -1.62539e-05)
(0.000562571 -6.88737e-05 -2.68159e-05)
(0.0004971 -1.05692e-05 -2.52244e-05)
(0.000426985 4.81442e-05 -1.45009e-05)
(0.000355803 0.000102633 2.13727e-06)
(0.000286261 0.000149851 2.24976e-05)
(0.000220059 0.000187229 4.4979e-05)
(0.0001583 0.000213438 6.85497e-05)
(0.000101631 0.000228294 9.24135e-05)
(5.04469e-05 0.000232715 0.00011599)
(5.02923e-06 0.000228407 0.000138654)
(-3.43597e-05 0.000217738 0.000159956)
(-6.73425e-05 0.000203367 0.000179251)
(-9.32879e-05 0.000188167 0.000196006)
(-0.00011156 0.000174644 0.000209456)
(-0.000121978 0.000164561 0.000218878)
(-0.000124842 0.000158479 0.00022326)
(-0.000120777 0.000155716 0.000221747)
(-0.000110389 0.000154451 0.000212959)
(-9.41898e-05 0.000152334 0.000192871)
(-7.24974e-05 0.000146391 0.000151167)
(-5.24786e-05 0.000126822 8.90392e-05)
(-2.69792e-05 4.57425e-05 3.2826e-05)
(9.75712e-06 -0.00015735 0.000353195)
(2.79625e-05 -0.000114662 0.000350525)
(3.7335e-05 -0.000109425 0.000301559)
(5.0878e-05 -0.000124841 0.000263797)
(6.13577e-05 -0.000156721 0.000243384)
(6.72562e-05 -0.000196648 0.000229742)
(6.84355e-05 -0.000232324 0.000213275)
(6.56044e-05 -0.000251982 0.000188892)
(5.97915e-05 -0.000246103 0.00015557)
(5.22561e-05 -0.000210476 0.000114995)
(4.42431e-05 -0.000146039 7.03529e-05)
(3.67177e-05 -5.84465e-05 2.443e-05)
(3.07808e-05 4.34042e-05 -2.02274e-05)
(2.73489e-05 0.000148276 -6.11672e-05)
(2.6668e-05 0.000243755 -9.49108e-05)
(2.78023e-05 0.00031944 -0.000118712)
(3.10151e-05 0.000377731 -0.000134361)
(3.5736e-05 0.000421187 -0.00014343)
(4.11569e-05 0.000451286 -0.000146265)
(4.65385e-05 0.000469093 -0.000143427)
(5.10908e-05 0.000475322 -0.000134989)
(5.41261e-05 0.000470111 -0.000121488)
(5.50747e-05 0.000453466 -0.000103293)
(5.36585e-05 0.000425005 -8.16718e-05)
(4.99778e-05 0.000384237 -5.78541e-05)
(4.3507e-05 0.000329962 -3.31274e-05)
(3.53197e-05 0.000269133 -9.67669e-06)
(2.59886e-05 0.000208345 1.07793e-05)
(1.61519e-05 0.000152537 2.71693e-05)
(6.59012e-06 0.000104007 3.80632e-05)
(-2.00038e-06 6.39794e-05 4.22132e-05)
(-8.78155e-06 3.24403e-05 3.54885e-05)
(-1.21575e-05 9.55983e-06 8.66211e-06)
(-1.24785e-05 -1.65713e-05 -3.79739e-05)
(-8.03301e-06 -9.56575e-05 -7.21667e-05)
(-1.0233e-05 -0.000236206 0.000259955)
(-1.68255e-05 -0.000159495 0.000303309)
(-2.79584e-05 -0.000128832 0.000297138)
(-4.24671e-05 -0.000106579 0.000280101)
(-5.8995e-05 -8.93525e-05 0.000256353)
(-7.80013e-05 -7.33702e-05 0.000224367)
(-9.95365e-05 -5.61953e-05 0.000184188)
(-0.000122418 -3.55861e-05 0.000138834)
(-0.000144996 -1.08703e-05 9.27423e-05)
(-0.000165124 1.83049e-05 4.99432e-05)
(-0.000180935 5.11572e-05 1.16344e-05)
(-0.000190599 8.6912e-05 -2.23059e-05)
(-0.000192989 0.000124246 -5.31922e-05)
(-0.000187638 0.000162398 -8.15116e-05)
(-0.000175055 0.000199978 -0.000107342)
(-0.000156544 0.000236129 -0.000129652)
(-0.000133724 0.000269608 -0.00014791)
(-0.000108015 0.000299967 -0.000161335)
(-8.0661e-05 0.00032633 -0.000169974)
(-5.27088e-05 0.00034863 -0.000173362)
(-2.52266e-05 0.000366163 -0.000171637)
(8.77501e-07 0.000379073 -0.000164329)
(2.46614e-05 0.000386776 -0.000151679)
(4.52266e-05 0.000389633 -0.000133509)
(6.16581e-05 0.000387241 -0.000110611)
(7.29851e-05 0.000380226 -8.3589e-05)
(7.85078e-05 0.000368431 -5.43705e-05)
(7.81194e-05 0.000352858 -2.49569e-05)
(7.23786e-05 0.000333445 1.57212e-06)
(6.21245e-05 0.000310531 2.26991e-05)
(4.86112e-05 0.000282805 3.51273e-05)
(3.30453e-05 0.000248482 3.4192e-05)
(1.78045e-05 0.000203349 1.14601e-05)
(7.34702e-06 0.000141152 -3.17599e-05)
(1.15778e-06 -1.1208e-05 -7.52615e-05)
(-1.76304e-05 -0.000203404 0.000189548)
(-3.37185e-05 -0.000128798 0.000262753)
(-5.19182e-05 -9.98515e-05 0.000283549)
(-7.48679e-05 -7.85718e-05 0.000286109)
(-9.66681e-05 -6.12021e-05 0.000274109)
(-0.000116899 -4.60139e-05 0.000248705)
(-0.000135329 -3.10399e-05 0.000211105)
(-0.000151393 -1.5771e-05 0.000164001)
(-0.000164429 8.15045e-07 0.000112558)
(-0.000173937 1.85344e-05 6.20418e-05)
(-0.000179679 3.78492e-05 1.66282e-05)
(-0.000181648 5.82282e-05 -2.23071e-05)
(-0.000179932 7.97165e-05 -5.44656e-05)
(-0.000174715 0.00010144 -8.06993e-05)
(-0.000166276 0.000123353 -0.000101665)
(-0.00015499 0.000144521 -0.000118147)
(-0.00014129 0.000165015 -0.000130331)
(-0.000125671 0.00018403 -0.000138567)
(-0.00010865 0.00020176 -0.000142644)
(-9.07869e-05 0.000217404 -0.000142603)
(-7.26436e-05 0.000231267 -0.000137929)
(-5.47824e-05 0.000242558 -0.000128454)
(-3.7778e-05 0.000251677 -0.000113578)
(-2.21875e-05 0.000257853 -9.33821e-05)
(-8.50989e-06 0.000261665 -6.78894e-05)
(2.78127e-06 0.000262304 -3.83979e-05)
(1.13615e-05 0.000260465 -6.66083e-06)
(1.70863e-05 0.00025532 2.40895e-05)
(2.00168e-05 0.000247324 5.0794e-05)
(2.04393e-05 0.000235 7.01294e-05)
(1.87154e-05 0.000217805 7.99891e-05)
(1.52951e-05 0.000192646 7.74385e-05)
(1.07363e-05 0.00015676 5.87242e-05)
(6.85469e-06 0.00010359 2.44645e-05)
(3.20787e-06 -3.18104e-05 -2.61608e-05)
(-1.31137e-05 -0.000163439 0.00013458)
(-2.56038e-05 -9.1826e-05 0.000221227)
(-4.11185e-05 -6.44838e-05 0.000256301)
(-6.07779e-05 -4.46418e-05 0.00027057)
(-7.92847e-05 -2.91688e-05 0.000267037)
(-9.6085e-05 -1.62128e-05 0.000248792)
(-0.000110912 -4.73148e-06 0.000217868)
(-0.000123384 6.06949e-06 0.000177137)
(-0.000133008 1.63977e-05 0.000131143)
(-0.000139551 2.66338e-05 8.48766e-05)
(-0.000142898 3.6732e-05 4.23006e-05)
(-0.000143153 4.69906e-05 5.48742e-06)
(-0.000140462 5.73316e-05 -2.51798e-05)
(-0.000135109 6.79858e-05 -5.00624e-05)
(-0.00012735 7.87759e-05 -6.97453e-05)
(-0.000117544 8.99422e-05 -8.48196e-05)
(-0.000105987 0.00010122 -9.56403e-05)
(-9.31108e-05 0.000112776 -0.000102409)
(-7.92852e-05 0.000124237 -0.000105099)
(-6.49592e-05 0.000135738 -0.000103568)
(-5.05351e-05 0.000146764 -9.74721e-05)
(-3.64989e-05 0.000157405 -8.64044e-05)
(-2.32491e-05 0.000167079 -6.98803e-05)
(-1.12633e-05 0.000175867 -4.75983e-05)
(-9.10139e-07 0.000183114 -1.9665e-05)
(7.43244e-06 0.000188877 1.29186e-05)
(1.35424e-05 0.000192388 4.79593e-05)
(1.73113e-05 0.000193561 8.20757e-05)
(1.88379e-05 0.000191326 0.000111376)
(1.83906e-05 0.00018509 0.000132431)
(1.62833e-05 0.000173006 0.000142684)
(1.28201e-05 0.000153194 0.00013971)
(8.38681e-06 0.000122108 0.00011982)
(4.59787e-06 7.5012e-05 8.27096e-05)
(2.47574e-06 -4.60285e-05 1.51374e-05)
(-1.11032e-05 -0.00016258 6.66009e-05)
(-2.22113e-05 -0.000104024 0.000151415)
(-3.69058e-05 -8.30232e-05 0.000193167)
(-5.53576e-05 -6.9172e-05 0.000213476)
(-7.28221e-05 -5.96488e-05 0.00021406)
(-8.84662e-05 -5.31138e-05 0.000199202)
(-0.000101903 -4.8408e-05 0.000171629)
(-0.000112635 -4.5017e-05 0.000134166)
(-0.000120206 -4.23712e-05 9.084e-05)
(-0.000124346 -4.02467e-05 4.6171e-05)
(-0.000125035 -3.82013e-05 4.10754e-06)
(-0.000122412 -3.60746e-05 -3.31808e-05)
(-0.000116765 -3.34842e-05 -6.46449e-05)
(-0.000108408 -3.03299e-05 -9.02784e-05)
(-9.77477e-05 -2.62505e-05 -0.000110345)
(-8.51787e-05 -2.12348e-05 -0.000125209)
(-7.11678e-05 -1.50089e-05 -0.000135129)
(-5.61407e-05 -7.72841e-06 -0.000140241)
(-4.06055e-05 7.35891e-07 -0.000140521)
(-2.49795e-05 1.01045e-05 -0.000135863)
(-9.80578e-06 2.03663e-05 -0.000126044)
(4.4915e-06 3.10999e-05 -0.000110762)
(1.73725e-05 4.21625e-05 -8.97177e-05)
(2.84469e-05 5.30137e-05 -6.27334e-05)
(3.72427e-05 6.33951e-05 -3.01272e-05)
(4.34749e-05 7.26674e-05 6.9587e-06)
(4.68715e-05 8.04637e-05 4.60562e-05)
(4.74413e-05 8.60234e-05 8.36809e-05)
(4.53146e-05 8.87468e-05 0.000115716)
(4.0858e-05 8.75222e-05 0.000138693)
(3.44791e-05 8.12233e-05 0.000149852)
(2.65536e-05 6.78192e-05 0.000146281)
(1.7678e-05 4.49526e-05 0.00012319)
(1.02646e-05 8.53524e-06 8.01687e-05)
(5.2073e-06 -8.75747e-05 4.28116e-06)
(-8.93128e-06 -0.000134349 5.21213e-07)
(-2.08334e-05 -6.83449e-05 7.94334e-05)
(-3.79581e-05 -4.54118e-05 0.000127029)
(-6.02598e-05 -3.27349e-05 0.000151222)
(-8.18797e-05 -2.75781e-05 0.000152244)
(-0.000101358 -2.79931e-05 0.000136127)
(-0.000117977 -3.26536e-05 0.000106325)
(-0.000130915 -4.02248e-05 6.59735e-05)
(-0.000139599 -4.99074e-05 1.85953e-05)
(-0.000143613 -6.0617e-05 -3.11809e-05)
(-0.000142896 -7.16959e-05 -7.94421e-05)
(-0.000137604 -8.21047e-05 -0.000123233)
(-0.000128112 -9.13506e-05 -0.000161103)
(-0.000114917 -9.86278e-05 -0.00019228)
(-9.86028e-05 -0.000103705 -0.000216723)
(-7.97864e-05 -0.000105971 -0.000234369)
(-5.91342e-05 -0.000105375 -0.000245428)
(-3.73039e-05 -0.000101515 -0.000249899)
(-1.50047e-05 -9.45904e-05 -0.000247875)
(7.03467e-06 -8.44664e-05 -0.000239174)
(2.81063e-05 -7.15691e-05 -0.000223716)
(4.74592e-05 -5.60333e-05 -0.000201246)
(6.43934e-05 -3.84969e-05 -0.000171771)
(7.81878e-05 -1.93612e-05 -0.00013544)
(8.82498e-05 4.99967e-07 -9.31015e-05)
(9.40808e-05 2.03256e-05 -4.64042e-05)
(9.54559e-05 3.8906e-05 1.66332e-06)
(9.23641e-05 5.51694e-05 4.71619e-05)
(8.51439e-05 6.77917e-05 8.58627e-05)
(7.43201e-05 7.5398e-05 0.000114115)
(6.06342e-05 7.62757e-05 0.000128932)
(4.47736e-05 6.83679e-05 0.000126696)
(2.80149e-05 4.90288e-05 0.000101351)
(1.50247e-05 1.44921e-05 5.30514e-05)
(6.18703e-06 -8.01082e-05 -2.36276e-05)
(-1.03597e-05 -7.64852e-05 -5.66638e-05)
(-2.66382e-05 1.76943e-05 1.1951e-05)
(-4.86764e-05 4.97075e-05 6.09803e-05)
(-7.77687e-05 6.34558e-05 8.43565e-05)
(-0.000105897 6.30092e-05 8.11107e-05)
(-0.000130902 5.11641e-05 5.81829e-05)
(-0.000151611 3.08307e-05 1.96956e-05)
(-0.000166937 4.18933e-06 -3.1401e-05)
(-0.000176021 -2.62798e-05 -9.12245e-05)
(-0.000178425 -5.88153e-05 -0.000155151)
(-0.000174143 -9.14822e-05 -0.00021861)
(-0.00016383 -0.000122817 -0.000277746)
(-0.000148631 -0.00015107 -0.000329592)
(-0.000129819 -0.000175278 -0.000372346)
(-0.00010833 -0.000194438 -0.000405411)
(-8.48562e-05 -0.000208186 -0.00042898)
(-5.99208e-05 -0.000215838 -0.000443444)
(-3.40721e-05 -0.00021723 -0.000449083)
(-7.76508e-06 -0.000211941 -0.000445954)
(1.84839e-05 -0.000200139 -0.000433839)
(4.42116e-05 -0.000181757 -0.000412249)
(6.88996e-05 -0.000157291 -0.000380539)
(9.18518e-05 -0.000127039 -0.000338303)
(0.000111972 -9.20446e-05 -0.000286076)
(0.00012781 -5.34845e-05 -0.000225851)
(0.000137859 -1.3419e-05 -0.00016111)
(0.00014111 2.61626e-05 -9.62063e-05)
(0.000137358 6.2889e-05 -3.5886e-05)
(0.00012713 9.46226e-05 1.53584e-05)
(0.000111321 0.000118543 5.37782e-05)
(9.09858e-05 0.000132041 7.66148e-05)
(6.73443e-05 0.00013178 7.99502e-05)
(4.2371e-05 0.000114349 5.72564e-05)
(2.32719e-05 7.50978e-05 9.66663e-06)
(9.02697e-06 -3.80841e-05 -5.80723e-05)
(-1.163e-05 3.9477e-05 -6.17566e-05)
(-3.06335e-05 0.000185145 -5.3487e-06)
(-5.46401e-05 0.000233106 3.61692e-05)
(-8.60732e-05 0.000249472 5.12905e-05)
(-0.000115521 0.00024044 3.81183e-05)
(-0.000140187 0.00021129 2.36275e-06)
(-0.000158227 0.00016685 -5.29334e-05)
(-0.000168175 0.000111344 -0.000125397)
(-0.000169984 4.97531e-05 -0.000209728)
(-0.000164721 -1.40359e-05 -0.000298517)
(-0.000153461 -7.56709e-05 -0.000384108)
(-0.000138588 -0.000126238 -0.000459666)
(-0.000121669 -0.00016187 -0.000521733)
(-0.00010342 -0.000185445 -0.000570191)
(-8.41859e-05 -0.000202197 -0.000606508)
(-6.4347e-05 -0.000213977 -0.000631883)
(-4.41134e-05 -0.000220885 -0.000647208)
(-2.35107e-05 -0.000223261 -0.000653394)
(-2.74253e-06 -0.000221459 -0.000650661)
(1.80842e-05 -0.000215365 -0.00063851)
(3.8959e-05 -0.000205265 -0.000615905)
(5.95825e-05 -0.00019124 -0.00058203)
(7.98332e-05 -0.000169448 -0.000535128)
(9.93627e-05 -0.000134046 -0.000473871)
(0.000117275 -8.14752e-05 -0.000398375)
(0.000132048 -1.3204e-05 -0.000311434)
(0.00014152 6.20143e-05 -0.000219854)
(0.000143539 0.000133128 -0.000132967)
(0.000137637 0.00019593 -5.84491e-05)
(0.000123585 0.000246211 -1.44713e-06)
(0.000102679 0.000279029 3.54726e-05)
(7.69437e-05 0.000289541 4.97081e-05)
(4.89665e-05 0.000272268 3.62196e-05)
(2.74421e-05 0.000220682 -3.02085e-06)
(1.03502e-05 6.3855e-05 -5.82577e-05)
(-9.89548e-06 0.0001532 -3.61673e-05)
(-2.62617e-05 0.000343583 4.66e-06)
(-4.61502e-05 0.000402527 3.08875e-05)
(-7.19586e-05 0.000415029 3.2401e-05)
(-9.53419e-05 0.000389346 6.20504e-06)
(-0.000113892 0.000331821 -4.54438e-05)
(-0.000124988 0.000247851 -0.000121175)
(-0.000128081 0.000153648 -0.00021513)
(-0.000124264 6.76167e-05 -0.000316338)
(-0.000115571 6.79683e-07 -0.00041351)
(-0.000104171 -4.371e-05 -0.000498606)
(-9.18596e-05 -6.77914e-05 -0.000567285)
(-7.93096e-05 -7.87115e-05 -0.000619298)
(-6.61954e-05 -8.55404e-05 -0.000657514)
(-5.25731e-05 -9.18835e-05 -0.000684757)
(-3.85593e-05 -9.67635e-05 -0.000702651)
(-2.41216e-05 -9.97974e-05 -0.000713025)
(-9.47397e-06 -0.000100632 -0.00071685)
(5.18489e-06 -9.92e-05 -0.000714542)
(1.96334e-05 -9.57462e-05 -0.00070574)
(3.36312e-05 -9.07888e-05 -0.000689524)
(4.7178e-05 -8.49642e-05 -0.00066417)
(6.00855e-05 -7.94449e-05 -0.000628233)
(7.2482e-05 -6.964e-05 -0.000578523)
(8.47635e-05 -4.60378e-05 -0.000511916)
(9.64818e-05 -1.05544e-06 -0.000428189)
(0.000106141 6.7992e-05 -0.000331248)
(0.00011158 0.000157577 -0.000229035)
(0.000110572 0.000256557 -0.000133126)
(0.00010187 0.000345532 -5.52231e-05)
(8.5747e-05 0.000406274 -1.89211e-06)
(6.49288e-05 0.000433429 2.5714e-05)
(4.1674e-05 0.000420937 2.58731e-05)
(2.36632e-05 0.000360452 1.6996e-06)
(8.81321e-06 0.000164481 -3.7265e-05)
(-7.04375e-06 0.000241854 -2.22441e-05)
(-1.95197e-05 0.000467925 4.53243e-06)
(-3.4885e-05 0.000537794 1.84711e-05)
(-5.50411e-05 0.000551267 1.03867e-05)
(-7.40867e-05 0.000517675 -2.33478e-05)
(-8.92124e-05 0.000442118 -8.2687e-05)
(-9.85549e-05 0.000341295 -0.000163973)
(-0.000103027 0.000241842 -0.000257133)
(-0.000103261 0.0001617 -0.000350581)
(-9.98713e-05 0.000107213 -0.000435447)
(-9.36894e-05 7.7461e-05 -0.000506524)
(-8.52474e-05 6.53223e-05 -0.000562091)
(-7.4978e-05 6.05975e-05 -0.000603432)
(-6.2716e-05 5.42066e-05 -0.000634128)
(-4.9376e-05 4.77272e-05 -0.000655361)
(-3.4971e-05 4.22607e-05 -0.000669131)
(-1.98545e-05 3.86979e-05 -0.000676913)
(-4.38773e-06 3.75362e-05 -0.000679513)
(1.11033e-05 3.89448e-05 -0.000677177)
(2.62836e-05 4.27016e-05 -0.000669703)
(4.07722e-05 4.82532e-05 -0.000656344)
(5.41956e-05 5.46716e-05 -0.000635711)
(6.65079e-05 6.07593e-05 -0.000605936)
(7.67603e-05 6.4916e-05 -0.000565948)
(8.51876e-05 7.66232e-05 -0.000512021)
(9.14171e-05 0.000106405 -0.000442628)
(9.49877e-05 0.000161501 -0.000359195)
(9.51412e-05 0.000242845 -0.000266633)
(9.13367e-05 0.000344015 -0.000173613)
(8.29654e-05 0.000446873 -9.18142e-05)
(6.90485e-05 0.000524299 -3.16775e-05)
(5.13032e-05 0.000558856 2.9149e-06)
(3.24793e-05 0.000545513 1.21122e-05)
(1.81223e-05 0.000475009 -3.96417e-07)
(6.43967e-06 0.000246021 -2.53539e-05)
(-6.33939e-06 0.000316418 -1.41212e-05)
(-1.74633e-05 0.000575584 6.23651e-06)
(-3.12446e-05 0.00065799 1.49429e-05)
(-4.96895e-05 0.000677385 3.51669e-06)
(-6.79354e-05 0.000643155 -3.17092e-05)
(-8.31314e-05 0.000561056 -9.06302e-05)
(-9.45066e-05 0.000457251 -0.000167643)
(-0.000102081 0.00035879 -0.000252513)
(-0.000105615 0.00028092 -0.000335749)
(-0.000104895 0.000228304 -0.000410827)
(-0.000100198 0.000198615 -0.000474199)
(-9.19176e-05 0.000184458 -0.000524651)
(-8.07653e-05 0.000176751 -0.000562865)
(-6.71564e-05 0.000167966 -0.000591346)
(-5.21975e-05 0.000159589 -0.000610968)
(-3.61114e-05 0.000152759 -0.000623582)
(-1.92862e-05 0.000148372 -0.000630673)
(-2.10626e-06 0.000146893 -0.000632999)
(1.50844e-05 0.000148546 -0.000630803)
(3.19355e-05 0.00015309 -0.000623872)
(4.80607e-05 0.000160043 -0.00061148)
(6.30616e-05 0.000168489 -0.000592186)
(7.67161e-05 0.000177267 -0.000564206)
(8.78998e-05 0.000184833 -0.00052677)
(9.62022e-05 0.000198812 -0.000477366)
(0.000100944 0.000228428 -0.000415207)
(0.000101764 0.00028118 -0.000341331)
(9.84188e-05 0.000359447 -0.000259086)
(9.11451e-05 0.000458572 -0.000174808)
(8.01919e-05 0.000563302 -9.79147e-05)
(6.55479e-05 0.000646422 -3.87498e-05)
(4.7908e-05 0.000681204 -3.10683e-06)
(3.00975e-05 0.000661905 9.0369e-06)
(1.68046e-05 0.000579187 1.38554e-06)
(6.0346e-06 0.00031805 -1.73294e-05)
(-6.09747e-06 0.000387759 -3.01803e-06)
(-1.65585e-05 0.000679959 1.74296e-05)
(-2.96671e-05 0.000776258 2.53869e-05)
(-4.7459e-05 0.000804469 1.44386e-05)
(-6.55587e-05 0.000774353 -1.86423e-05)
(-8.12708e-05 0.000692587 -7.33515e-05)
(-9.4145e-05 0.000589466 -0.000143705)
(-0.000103561 0.000491022 -0.00022054)
(-0.000108782 0.000411085 -0.000295829)
(-0.000109337 0.000353569 -0.000364712)
(-0.000105294 0.000316591 -0.000424106)
(-9.70412e-05 0.000294372 -0.000472458)
(-8.53715e-05 0.000279454 -0.000509687)
(-7.09851e-05 0.000266029 -0.000537265)
(-5.49346e-05 0.000254238 -0.00055624)
(-3.76819e-05 0.000245057 -0.000568344)
(-1.96333e-05 0.000239285 -0.000575077)
(-1.19832e-06 0.00023733 -0.00057726)
(1.72424e-05 0.000239398 -0.000575119)
(3.53074e-05 0.000245277 -0.000568445)
(5.25842e-05 0.000254556 -0.000556437)
(6.86671e-05 0.000266427 -0.00053762)
(8.30942e-05 0.000279908 -0.000510297)
(9.48029e-05 0.000294819 -0.000473481)
(0.000103099 0.000317002 -0.000425716)
(0.000107199 0.000353972 -0.000367052)
(0.000106723 0.000411564 -0.000298962)
(0.000101621 0.000491697 -0.000224415)
(9.23735e-05 0.000590467 -0.000148154)
(7.9723e-05 0.000694098 -7.80993e-05)
(6.43e-05 0.000776486 -2.34125e-05)
(4.6522e-05 0.000806954 9.82646e-06)
(2.90688e-05 0.000778814 2.12041e-05)
(1.62282e-05 0.000682341 1.39753e-05)
(5.93867e-06 0.000388516 -5.26414e-06)
(-6.44118e-06 0.000451412 1.29602e-05)
(-1.66416e-05 0.000773589 3.87108e-05)
(-2.94445e-05 0.000883198 4.88446e-05)
(-4.68866e-05 0.000920639 4.05575e-05)
(-6.48375e-05 0.000896167 1.12145e-05)
(-8.0886e-05 0.000817104 -3.82927e-05)
(-9.46213e-05 0.000714905 -0.000102224)
(-0.000105114 0.000614563 -0.000172443)
(-0.000111371 0.000528916 -0.000242203)
(-0.000112777 0.000462503 -0.000307023)
(-0.000109285 0.000414335 -0.000364207)
(-0.000101226 0.000380518 -0.000411844)
(-8.93561e-05 0.000355831 -0.000448995)
(-7.45061e-05 0.000335874 -0.000476307)
(-5.76149e-05 0.000319376 -0.000495135)
(-3.94149e-05 0.000307071 -0.000506991)
(-2.0334e-05 0.000299484 -0.000513512)
(-8.25503e-07 0.000296932 -0.000515613)
(1.86878e-05 0.000299566 -0.000513545)
(3.77803e-05 0.000307232 -0.000507066)
(5.59992e-05 0.000319613 -0.00049527)
(7.29159e-05 0.00033618 -0.000476534)
(8.77955e-05 0.000356198 -0.000449364)
(9.97017e-05 0.000380926 -0.000412438)
(0.000107804 0.000414772 -0.000365128)
(0.000111347 0.000462983 -0.000308366)
(0.000110007 0.000529478 -0.000244028)
(0.000103839 0.000615256 -0.000174769)
(9.34633e-05 0.000715799 -0.000104988)
(7.98747e-05 0.000818316 -4.13452e-05)
(6.40159e-05 0.000897778 8.06173e-06)
(4.62771e-05 0.000922485 3.74622e-05)
(2.90549e-05 0.000885103 4.60342e-05)
(1.64313e-05 0.000775402 3.64272e-05)
(6.33826e-06 0.000451793 1.15181e-05)
(-6.77847e-06 0.000508242 2.98708e-05)
(-1.66916e-05 0.000856152 6.32156e-05)
(-2.91424e-05 0.000977785 7.66735e-05)
(-4.61006e-05 0.00102407 7.15977e-05)
(-6.36052e-05 0.00100585 4.59895e-05)
(-7.9561e-05 0.000930756 1.05563e-06)
(-9.35407e-05 0.000829556 -5.77726e-05)
(-0.000104526 0.000726191 -0.000122962)
(-0.000111428 0.000633207 -0.000188385)
(-0.000113534 0.000555553 -0.000250035)
(-0.000110694 0.000493797 -0.00030519)
(-0.000103146 0.000446039 -0.000351818)
(-9.15082e-05 0.000409153 -0.000388694)
(-7.66581e-05 0.00038022 -0.000415831)
(-5.93495e-05 0.000357288 -0.000434793)
(-4.05721e-05 0.000340655 -0.000446675)
(-2.08261e-05 0.000330586 -0.000453106)
(-6.09758e-07 0.000327218 -0.000455153)
(1.96093e-05 0.000330632 -0.000453127)
(3.93626e-05 0.000340745 -0.00044672)
(5.81536e-05 0.000357422 -0.000434871)
(7.54823e-05 0.000380397 -0.000415957)
(9.0356e-05 0.000409374 -0.000388893)
(0.000102024 0.000446304 -0.000352132)
(0.000109609 0.000494109 -0.000305676)
(0.000112493 0.000555921 -0.000250757)
(0.000110443 0.00063365 -0.000189398)
(0.000103615 0.00072674 -0.000124296)
(9.27165e-05 0.000830252 -5.94133e-05)
(7.88461e-05 0.000931669 -8.1464e-07)
(6.3029e-05 0.00100703 4.401e-05)
(4.56766e-05 0.00102543 6.9631e-05)
(2.88756e-05 0.000979202 7.48962e-05)
(1.65537e-05 0.000857547 6.18095e-05)
(6.7109e-06 0.000508353 2.89999e-05)
(-6.94412e-06 0.000555053 4.29948e-05)
(-1.64644e-05 0.000923046 8.29793e-05)
(-2.85181e-05 0.00105446 9.93746e-05)
(-4.48694e-05 0.00110835 9.68916e-05)
(-6.17159e-05 0.00109599 7.40048e-05)
(-7.72033e-05 0.00102523 3.21701e-05)
(-9.09143e-05 0.000925393 -2.32465e-05)
(-0.000101861 0.000819203 -8.49497e-05)
(-0.000108953 0.000718947 -0.000147102)
(-0.000111463 0.000630074 -0.000205955)
(-0.00010919 0.000554414 -0.000258957)
(-0.000102272 0.000491826 -0.000304189)
(-9.11914e-05 0.000441133 -0.000340425)
(-7.67213e-05 0.000400995 -0.000367465)
(-5.95884e-05 0.000370291 -0.000386361)