/*--------------------------------*- C++ -*----------------------------------*\
| =========                 |                                                 |
| \\      /  F ield         | OpenFOAM: The Open Source CFD Toolbox           |
|  \\    /   O peration     | Version:  v1912                                 |
|   \\  /    A nd           | Website:  www.openfoam.com                      |
|    \\/     M anipulation  |                                                 |
\*---------------------------------------------------------------------------*/
FoamFile
{
    version     2.0;
    format      ascii;
    class       volScalarField;
    location    "290/oil";
    object      heatTransferCoeff(T);
}
// * * * * * * * * * * * * * * * * * * * * * * * * * * * * * * * * * * * * * //

dimensions      [1 0 -3 -1 0 0 0];


internalField   uniform 0;

boundaryField
{
    maxY
    {
        type            calculated;
        value           uniform 0;
    }
    minX
    {
        type            calculated;
        value           uniform 0;
    }
    maxX
    {
        type            calculated;
        value           uniform 0;
    }
    minY
    {
        type            calculated;
        value           uniform 0;
    }
    minZ
    {
        type            calculated;
        value           uniform 0;
    }
    maxZ
    {
        type            calculated;
        value           uniform 0;
    }
    oil_to_sphere
    {
        type            calculated;
        value           nonuniform List<scalar> 
1536
(
-76.5485
-84.2427
-70.9099
-68.8836
-43.1987
-48.3964
-46.8884
-4.62252
1.67272
-92.4491
-41.6007
-94.5115
-97.726
-94.3447
-68.0061
-42.4485
-6.10068
0.919318
105.163
-97.2929
-92.4364
-49.7705
-47.4102
-43.8408
-52.1028
-51.9633
-51.9885
-44.2626
-84.3332
-82.1423
-71.0756
-30.143
-19.4032
-52.6235
-43.0878
-42.0255
-35.4158
-60.1307
-49.9547
-58.976
-49.8777
-42.1294
-80.8866
-94.5562
-83.8858
-93.2963
-49.3492
-49.68
-65.381
-52.8382
-50.2252
-50.5428
-46.0382
-48.4113
-25.0387
-16.5791
-47.6676
-47.2224
0.205231
44.7835
35.1118
45.991
36.8396
-97.3049
-98.3822
-93.9844
-84.6169
-93.8226
-76.1051
-83.2475
-53.2272
-48.5286
-70.8721
-50.4918
-43.2235
-20.3968
-14.9699
-11.514
-42.7167
0.957515
46.3024
36.8026
56.9184
57.8983
30.2953
35.7738
55.3659
-5.47959
1.10926
44.9146
35.982
105.3
105.04
-98.1114
-98.5566
-94.853
-86.7546
-90.5792
-94.3379
-75.3178
-85.3839
-52.5736
-75.5086
-71.5435
-49.4431
-50.4093
-43.9881
-12.4273
-41.278
-21.2111
-14.2486
-19.2247
45.1462
35.1272
56.1436
54.8682
56.4953
30.8537
35.8237
29.3266
0.437938
35.8135
105.2
-93.9574
-75.2498
-83.0311
-76.207
-82.2336
-50.1293
-50.6313
-51.8633
-50.1
-50.6669
-49.2608
-51.4087
-51.3083
-48.4375
-16.7839
-46.5401
-46.121
44.5468
35.2631
-5.82186
0.230003
36.6559
2.02676
-66.0366
-65.668
-46.0931
-54.3433
-70.677
-65.2437
-49.2786
-51.7318
-49.9974
-34.9906
-26.3842
-27.4471
-66.1894
-63.0294
-65.9033
-73.9111
-57.5727
-51.6554
-42.1177
-35.8364
-48.3907
-37.7027
-27.0794
-28.5123
-78.9514
-61.5173
-82.4178
-59.6132
-28.9844
-13.8858
-66.8618
-67.6157
-70.6983
-64.0938
-57.1373
-51.1015
-36.0986
-49.8545
-31.2082
-28.9674
-27.0434
-86.7258
-64.4492
-71.2148
-77.9197
-66.7812
-75.695
-69.784
-32.7666
-33.0441
-37.848
-38.9723
-30.8407
-34.5019
-37.6277
-42.8435
1.29039
5.00243
8.65571
-1.38853
-6.06931
-4.00962
-11.4851
-8.28676
4.09307
11.5947
15.5642
-89.9008
-101.618
-98.2535
-90.5793
-91.1202
-92.2696
-90.4664
-88.5324
-94.7543
-85.2056
-89.1321
-89.2444
-67.6779
-67.0856
-83.2621
-74.3435
-54.8761
-36.3604
-31.5786
-48.284
-32.9862
3.9746
0.0592697
7.63164
-1.67062
-5.23038
6.34694
12.3383
66.3021
73.6997
-96.3599
-90.2554
-92.3607
-89.0322
-93.7045
-101.955
-94.0365
-88.9147
-63.4643
-53.243
-63.6464
-65.2479
-34.2404
-43.1897
3.0014
10.8205
-6.4566
-14.9698
-10.4453
14.5625
74.2292
67.0835
88.2501
88.4719
66.0192
-92.1401
-88.2816
-87.5466
-85.3982
-88.9576
-89.6368
-86.7697
-92.8989
-104.291
-96.2645
-88.4134
-75.4059
-65.7184
-66.4085
-73.4042
-83.8582
-75.0832
-66.8789
-66.6587
-35.6001
-36.693
-42.9608
-44.7778
-37.4934
-42.8732
7.42225
11.5341
5.4019
-3.67775
-0.0688752
-5.84435
-4.16528
-4.6304
7.77833
13.2909
-1.02256
5.85274
-54.3194
-45.8045
-48.1996
-35.6889
-31.257
-29.1463
-24.1682
-80.8796
-73.8215
-84.4069
-79.4451
-73.8726
-79.7682
-82.4513
-85.0488
-90.135
-81.6327
-83.8568
-82.1076
-100.314
-92.1033
-89.3803
-84.3277
-90.6661
-95.8541
-88.8193
-77.1184
-79.9378
-82.7635
-74.2546
-83.1993
-85.4738
-90.1049
-89.591
-94.468
-92.5767
-91.001
-86.7253
-86.6352
-85.5848
-86.8109
-80.6053
-80.7371
-75.2772
-80.4187
-72.6387
-75.1376
-85.4029
-65.856
-78.9505
-67.3477
-70.3128
-63.878
-54.8859
-78.2803
-66.2984
-65.2957
-73.1418
-55.1905
-61.6735
-65.8045
-53.8297
-58.6356
-49.3182
-68.1406
-77.8617
-66.5
-67.5425
-70.2068
-57.0711
-62.3418
-61.0516
-36.0209
-40.1732
-34.3972
-27.254
-22.1688
-27.819
-16.604
-12.8421
-37.048
-40.8526
-35.9893
-29.0742
-23.6647
-31.3801
-16.5968
-12.7282
-9.9564
-31.013
-12.2502
-28.8111
-24.1777
-29.5094
-16.5919
-36.533
-41.6101
-35.2291
-40.6164
-15.173
-10.3937
-28.8336
-24.0156
-30.5452
-15.2231
-11.444
-3.70434
0.705636
-3.1599
1.01181
7.87742
7.59791
13.0403
2.41718
10.5762
-6.57501
14.2241
11.9905
16.9842
22.352
14.4573
17.6427
26.2215
30.6434
39.3395
0.116146
3.72966
8.4106
-2.03965
11.4082
7.45373
26.2041
31.3531
34.0228
39.2188
16.5096
21.52
14.1755
17.3841
19.1123
-3.28197
1.07544
-3.53794
-4.35475
7.5494
13.372
0.725487
6.32678
-116.46
-107.273
-99.5024
-114.273
-101.238
-103.477
-107.76
-95.3459
-98.2394
-101.608
-100.764
-89.2466
-95.5354
-86.8978
-85.9439
-83.3579
-83.0498
-86.6771
-84.6638
-90.5923
-95.4007
-79.785
-90.8849
-81.5055
-86.3686
-82.2253
-91.6471
-83.7847
-91.6133
-88.2343
-93.5924
-89.0768
-80.1156
-84.8128
-75.3766
-82.3396
-64.4037
-69.9142
-68.6434
-50.615
-58.4741
-57.0602
-67.8112
-50.5573
-65.534
-49.3687
-58.0261
-51.8772
-43.506
-48.3379
-36.6805
-32.9561
-24.3829
-29.6685
-27.3102
-21.408
-13.8128
-29.5955
-13.7162
-42.1451
-35.246
-26.4614
11.5911
17.2194
21.5277
13.1822
16.9186
3.65141
11.3304
-5.97909
15.1074
26.7692
29.9275
38.5184
50.5183
59.1763
49.6587
58.7654
42.86
35.179
43.1691
52.0816
49.8572
4.96963
0.679556
8.71174
-1.32734
15.8213
21.3318
13.3259
18.3966
4.58663
12.0273
-3.30323
-10.2594
14.7998
26.6019
18.4382
30.6671
39.2245
21.7496
66.8394
73.8222
66.0498
73.6907
87.6967
87.7351
87.9344
88.049
74.1783
-111.193
-97.9085
-103.639
-101.791
-98.3364
-111.389
-103.362
-101.328
-97.702
-90.0949
-100.568
-102.064
-105.678
-90.6706
-90.6396
-95.7304
-96.5455
-79.82
-88.4143
-79.7827
-92.2555
-87.1951
-86.665
-83.7461
-88.5268
-83.1822
-87.7498
-92.8492
-84.0285
-78.796
-76.3814
-87.8743
-92.5477
-79.7544
-89.7432
-80.9628
-75.4475
-93.985
-86.9688
-85.9421
-88.4479
-82.0089
-81.8626
-85.9706
-91.455
-82.2675
-75.9029
-68.0161
-64.805
-58.8325
-51.7433
-59.5843
-72.4236
-69.5149
-68.3633
-61.6407
-60.9269
-56.6799
-56.9813
-57.9036
-50.3081
-50.7993
-36.1409
-47.8004
-31.325
-37.4921
-29.5989
-24.6262
-53.4375
-43.1913
-16.2931
-31.9105
-13.5516
-32.2401
-20.9327
-13.5568
-27.3952
-28.4158
-27.2495
-27.6289
-25.1261
-49.2891
-33.8725
26.6507
29.5634
33.4053
38.2965
0.243189
4.79027
8.25004
-1.57264
11.4695
7.48558
20.843
14.2588
13.5857
17.5407
19.7058
42.4912
42.4138
34.6588
51.5181
50.1893
59.2851
49.7039
49.5702
59.5759
35.8581
43.743
43.0367
34.6432
51.9406
4.32744
11.6506
-4.98956
-9.14104
14.6252
26.2699
18.0951
31.3131
34.1285
21.332
6.45652
12.749
1.14799
4.16078
8.46375
-1.58021
-4.89386
21.7139
16.9085
13.6303
18.1933
19.1705
88.1199
87.701
66.0499
66.7455
73.4239
74.1921
57.814
67.0238
74.2156
-73.812
-82.6465
-80.7919
-73.1332
-81.1564
-73.4211
-73.0161
-91.6563
-88.4961
-95.7938
-88.7792
-80.1783
-85.7504
-82.7849
-90.1672
-83.7754
-86.8624
-80.1239
-80.6079
-91.9765
-86.7928
-84.3992
-85.2331
-82.0251
-81.7399
-84.673
-76.2757
-75.0643
-80.4625
-84.1766
-79.6889
-87.8131
-82.6542
-95.4489
-80.4095
-76.444
-78.5755
-80.3704
-75.4684
-73.6578
-85.6684
-66.944
-58.0852
-58.3398
-63.4199
-50.9864
-77.0768
-66.1464
-65.8358
-71.2407
-61.8754
-62.119
-57.1801
-73.1507
-64.5347
-66.0264
-70.9158
-55.778
-56.988
-64.7789
-63.1004
-50.8504
-69.4888
-76.5319
-68.2122
-69.8581
-62.516
-62.271
-58.2618
-58.0853
-50.2772
-28.5484
-23.6342
-29.7483
-16.4946
-14.7957
-10.7718
-39.6611
-33.0073
-40.7375
-36.1379
-23.5784
-28.8366
-28.6869
-15.0215
-11.3359
-12.4539
-36.5032
-36.0669
-41.497
-35.2635
-41.6621
-14.5298
-16.6343
-27.9634
-22.906
-28.8941
-14.4273
-11.0819
-43.0045
-34.7277
-35.5035
-38.1611
-42.5594
-16.4326
-12.0762
-24.2607
-29.857
-29.7765
1.17236
-3.66754
7.74785
8.37696
13.833
-3.28823
0.822869
-3.90142
16.6006
21.6886
13.8683
18.2885
24.8728
16.219
29.791
38.7085
20.5094
4.34479
1.18251
8.79827
-1.79378
-9.67263
-19.7019
0.397287
8.94769
13.4831
11.0314
3.82267
26.374
18.8898
30.8727
32.7085
22.3456
15.9743
20.9673
14.6656
16.4313
19.0953
-3.53586
-9.38519
3.82585
11.5473
15.1909
-1.75916
-5.80793
4.12808
0.324387
7.79939
-71.8245
-67.3066
-14.8923
-7.85247
-94.0837
-87.1231
-91.8651
-93.4357
-91.7739
-65.4129
-76.0648
-72.3336
-75.9689
-41.6214
-50.411
-7.88196
58.0195
63.4576
-71.2603
-70.7667
-5.17995
57.5468
63.9171
44.681
-93.5127
-66.954
-47.332
45.8521
-76.3541
-70.0093
-73.9845
-40.9464
-51.8372
-49.8702
-4.51579
-71.6661
-76.2855
-49.5994
-51.4548
-74.5055
-49.05
-50.8059
-38.3594
-43.2537
-11.5434
-19.7851
-25.9379
-67.4962
-72.46
-48.0208
-57.0238
-40.5724
-46.6903
-11.5785
-19.6494
-21.4292
-66.2442
-75.1784
-48.654
-60.8398
-23.6885
-12.6448
-22.1195
-36.4723
-57.8831
-55.899
-74.7496
-77.2487
-51.4557
-50.2687
-47.4061
-50.5255
-20.9973
-12.7251
-20.9927
-5.9208
-101.952
-97.306
-75.1202
-90.5168
-74.5131
-94.7161
-92.3657
-51.0101
-68.0382
-67.6859
-70.9575
-67.2687
-48.5526
-22.8583
-19.5635
-19.4905
-20.5994
-20.0472
-17.8379
25.0836
-7.78089
29.1239
24.128
-98.3057
-92.9229
-99.9218
-94.1031
-98.2417
-95.1828
-98.2182
-97.0447
-100.635
-95.9089
-74.9977
-91.015
-74.7923
-82.6192
-75.378
-48.3788
-58.8663
-65.998
-78.5104
-52.5983
-72.8213
-48.1991
-12.5774
-21.1055
-23.855
-14.308
-19.0501
-19.0856
-6.08563
24.4043
31.8095
36.2083
34.2115
-7.55657
25.319
62.8592
62.6326
63.428
-101.927
-97.9567
-95.6103
-104.64
-96.5703
-100.19
-95.7533
-102.409
-99.3051
-75.8266
-90.5549
-72.1553
-93.1242
-92.1048
-86.9241
-91.6722
-84.9468
-73.6944
-77.7078
-47.7148
-64.2904
-78.5229
-67.3512
-76.4119
-51.4347
-11.8963
-21.812
-40.0263
-49.5739
-17.7546
-25.8055
-13.8517
-20.5573
-47.0928
-8.16613
24.8976
37.2483
31.5982
36.5345
-7.01098
25.384
62.4257
63.321
63.0835
-97.5531
-81.6097
-76.5683
-93.8618
-73.8382
-51.1146
-70.9278
-68.2472
-68.057
-67.281
-18.6042
-26.1478
-18.2113
-18.1365
-18.8235
25.3303
-9.45218
23.5548
-9.42739
-74.1845
-65.4294
-56.8295
-64.6175
-75.5147
-66.9235
-29.7732
-36.0639
-29.4226
-69.3041
-75.1782
-68.6222
-59.9472
-75.0417
-55.3458
-63.7204
-62.1609
-54.5035
-68.4011
-61.5548
-74.0516
-58.2045
-61.644
-61.8488
-57.7515
-42.3377
-40.4845
-30.3884
-29.9193
-22.8308
-14.376
-28.4024
-20.6427
-25.1783
-75.0041
-63.9924
-58.7916
-64.2176
-71.731
-54.6713
-56.5161
-57.1833
-46.4223
-63.1771
-35.9364
-45.4942
-42.7169
-31.4206
-31.9027
-24.1801
-14.4189
-27.2658
-19.6663
-25.4444
-64.92
-71.6438
-54.7059
-55.2148
-58.277
-44.991
-62.7349
-41.1919
-29.4983
-19.5721
-29.9905
-24.8334
-28.2216
-86.2459
-86.8001
-85.31
-87.9126
-57.2824
-72.8615
-69.1293
-36.6288
-36.8604
-43.0386
-42.0744
-41.4628
-4.39069
-12.3746
-10.0781
5.54925
8.47018
-13.5575
-6.17221
-5.89705
-88.0465
-89.982
-93.0226
-85.3357
-60.4216
-68.4177
-56.412
-76.2954
-66.5579
-41.096
-40.8075
-31.5962
-5.58231
-16.1052
-10.1055
5.00164
42.6103
41.2282
51.5543
50.3249
59.4625
65.671
-88.1245
-86.9487
-86.9159
-84.0248
-91.3358
-64.5555
-72.8085
-69.3369
-35.1734
8.09695
-11.6274
50.3242
59.5316
66.3079
76.0087
39.3241
-87.9595
-88.8878
-93.0446
-87.4797
-91.1773
-90.9014
-88.4786
-86.4899
-91.3114
-55.3017
-62.4584
-82.1651
-67.2111
-42.1306
-42.0618
-5.42509
-12.2781
-4.76186
0.585273
-9.95588
6.18915
38.5985
-41.1371
-10.2342
-79.5586
-76.1735
-64.7839
-65.0982
-41.3453
-34.708
-39.1393
-27.379
-19.2015
-28.9781
-20.3178
-20.6793
-16.9019
-101.358
-97.7721
-70.619
-71.9623
-80.1667
-86.2665
-84.4845
-86.2645
-72.6912
-79.7985
-77.0619
-84.0943
-72.7612
-79.2622
-89.2376
-85.2572
-85.9516
-85.253
-71.9939
-76.6288
-79.2905
-83.1922
-87.7052
-91.9198
-88.594
-90.8245
-81.6265
-72.3941
-78.4322
-91.6527
-88.3037
-92.2162
-88.415
-73.0054
-86.6756
-90.161
-83.9838
-76.3824
-79.3815
-77.0479
-64.5373
-60.2675
-78.9977
-65.0318
-57.6029
-57.3204
-48.2151
-49.4021
-48.954
-59.6085
-75.2996
-68.2969
-50.9719
-50.023
-57.7312
-51.2256
-59.6601
-72.3714
-62.9748
-50.1354
-44.076
-42.6364
-26.2501
-28.9302
-14.1954
-42.9647
-26.4812
-30.4499
-15.5607
-37.5376
-43.05
-27.1684
-15.2825
-42.2314
-23.0849
-27.3472
-5.09104
-4.91798
8.29194
7.30158
19.4302
18.6134
6.86292
17.7927
20.8429
30.5785
34.7066
35.0657
28.794
-3.71784
5.28823
18.3643
22.1707
29.8413
29.325
35.1077
0.533459
-5.30322
18.8828
-103.009
-94.7075
-98.9436
-90.0119
-93.9803
-102.916
-87.2116
-111.701
-94.5013
-96.7186
-95.4563
-103.231
-96.1193
-102.337
-112.21
-103.515
-94.409
-100.293
-81.4224
-87.6789
-96.8304
-90.4268
-75.0019
-85.5131
-79.7396
-88.8011
-84.9226
-87.8013
-84.9942
-92.0382
-80.1373
-71.3173
-75.5721
-81.2344
-91.386
-86.6044
-85.8728
-81.7685
-55.7218
-61.5849
-50.3511
-65.2315
-71.4756
-56.4406
-61.5969
-63.6523
-65.2992
-66.3537
-72.7349
-57.2345
-35.8826
-30.0124
-23.8163
-31.8844
-41.843
-18.8326
-21.162
-28.311
-36.7386
-29.5745
-22.368
-13.8211
29.0021
32.8336
33.9732
8.51381
18.4258
22.1302
30.1942
-3.81583
-7.06966
29.8748
33.9056
8.26285
29.5853
65.8862
65.607
75.0079
57.8008
75.6023
64.5751
55.5067
-104.977
-94.2492
-107.743
-99.7588
-98.8702
-92.6797
-94.3708
-87.2265
-101.586
-107.885
-102.179
-94.9039
-93.0003
-90.9027
-96.251
-96.6629
-96.534
-81.4083
-92.2844
-79.1036
-90.4839
-92.2139
-86.9695
-70.183
-89.5168
-83.1522
-86.9494
-85.3929
-81.2691
-85.7607
-85.4395
-75.1525
-79.0313
-71.9534
-62.1447
-74.6833
-65.202
-56.9239
-53.7605
-45.6186
-58.0096
-73.5331
-62.8647
-63.4908
-39.1053
-20.5536
-23.0319
-34.7062
-33.6975
-25.5016
-31.9671
-30.8006
-29.102
-22.4117
-40.5132
-41.1422
18.28
21.7979
29.7463
-5.48536
4.68922
29.6531
34.3185
7.7249
29.1785
-4.03574
30.4159
75.5169
64.7072
55.4385
-102.817
-87.4105
-74.2297
-84.8901
-73.3288
-74.202
-78.597
-91.3604
-87.4735
-86.2025
-75.0492
-79.8859
-82.9031
-81.6837
-88.6757
-85.4473
-87.1902
-85.2079
-81.5081
-72.163
-84.8967
-78.275
-76.7776
-66.0888
-50.9364
-61.1112
-78.7908
-64.2944
-57.3349
-49.4044
-49.3778
-59.042
-73.784
-49.6993
-58.4205
-73.3385
-51.0417
-25.8363
-16.3786
-38.3627
-42.6593
-38.9255
-25.5644
-30.913
-41.1655
-23.4661
-42.0277
-23.5157
19.9064
-5.07024
30.1562
34.0973
28.0909
-4.2707
-11.6721
6.89575
30.1025
28.1811
8.77653
-4.59512
)
;
    }
}


// ************************************************************************* //
