/*--------------------------------*- C++ -*----------------------------------*\
| =========                 |                                                 |
| \\      /  F ield         | OpenFOAM: The Open Source CFD Toolbox           |
|  \\    /   O peration     | Version:  v1906                                 |
|   \\  /    A nd           | Web:      www.OpenFOAM.com                      |
|    \\/     M anipulation  |                                                 |
\*---------------------------------------------------------------------------*/
FoamFile
{
    version     2.0;
    format      ascii;
    class       volScalarField;
    location    "55";
    object      nut;
}
// * * * * * * * * * * * * * * * * * * * * * * * * * * * * * * * * * * * * * //

dimensions      [0 2 -1 0 0 0 0];


internalField   nonuniform List<scalar> 
78750
(
0.00047264
0.000927258
0.000554193
1.0401e-05
1.63563e-05
5.68217e-05
2.87997e-05
4.19797e-05
3.51509e-05
4.12348e-05
4.09437e-05
5.40965e-05
9.10713e-05
9.08733e-05
9.02639e-05
6.60737e-05
4.52139e-05
3.89781e-05
3.88959e-05
3.93865e-05
3.92933e-05
3.93578e-05
3.97449e-05
4.02145e-05
4.07016e-05
4.12713e-05
4.19178e-05
4.26376e-05
4.34759e-05
4.44648e-05
4.54582e-05
4.5182e-05
3.85496e-05
2.39547e-05
1.56194e-06
1.56441e-05
8.59878e-05
5.65511e-05
3.93918e-05
3.90031e-05
4.43397e-05
6.36425e-05
7.47581e-05
8.41074e-05
7.39865e-05
4.80184e-05
2.45662e-05
1.68608e-05
2.91889e-05
4.04318e-05
2.73686e-05
4.93724e-05
8.54139e-05
7.75358e-05
7.43379e-05
7.45439e-05
7.38095e-05
7.41803e-05
7.58102e-05
7.84571e-05
8.17631e-05
8.51237e-05
8.78748e-05
8.96907e-05
8.86224e-05
7.80606e-05
5.20114e-05
2.35924e-05
1.09573e-05
2.27026e-06
1.44539e-06
5.12749e-05
5.777e-05
6.32827e-05
0.000106475
0.000189124
0.000149267
9.73721e-05
8.02099e-05
6.57125e-05
5.1264e-05
4.33846e-05
4.58315e-05
7.07218e-05
0.000129199
8.53898e-05
3.42992e-05
2.16986e-05
2.43378e-05
4.54262e-05
9.54452e-05
0.000120375
0.000113083
0.000100336
9.19161e-05
8.90167e-05
8.93055e-05
8.68673e-05
7.97112e-05
7.48617e-05
7.23005e-05
5.67123e-05
2.69816e-05
1.05614e-05
1.97156e-06
1.84482e-06
5.65661e-05
4.24703e-05
4.59022e-05
7.43923e-05
0.000123332
0.000196689
0.000196763
0.000196839
0.000128011
8.59244e-05
6.64322e-05
5.70247e-05
5.25799e-05
5.09303e-05
4.94242e-05
4.84398e-05
5.13987e-05
6.07464e-05
8.16548e-05
0.000135644
0.000202075
0.000203587
0.00020521
0.000206855
0.000157933
0.000129023
0.000121172
0.000109531
8.07627e-05
5.66218e-05
4.1348e-05
2.82311e-05
1.1475e-05
1.86296e-06
1.06463e-06
5.62218e-05
8.00969e-05
0.00010846
0.00013993
0.000179105
0.000182013
0.000184269
0.00018601
0.000187325
0.000188312
0.000163393
0.000133796
0.000116898
0.000109328
0.000108283
0.000111687
0.000116524
0.000119248
0.000122497
0.00012647
0.000126945
0.000121779
0.000111806
0.000100667
9.49393e-05
9.37808e-05
8.74786e-05
6.80814e-05
3.97167e-05
2.1979e-05
1.48225e-05
1.10429e-05
1.55394e-05
4.0494e-06
6.54933e-07
3.35312e-05
4.57724e-05
5.04166e-05
5.42482e-05
5.83388e-05
6.28013e-05
6.79302e-05
7.42379e-05
8.22226e-05
9.26525e-05
0.000106621
0.000126519
0.000157795
0.000192411
0.00019303
0.000193486
0.000193779
0.00017882
0.000124496
9.56821e-05
8.54162e-05
8.49589e-05
8.54449e-05
7.96491e-05
7.21314e-05
6.24475e-05
4.69234e-05
4.45554e-05
7.57908e-05
8.6402e-05
2.76461e-05
2.90872e-05
1.2272e-05
1.82931e-06
1.05339e-06
2.40003e-05
3.76768e-05
4.18102e-05
4.49771e-05
4.85098e-05
5.23006e-05
5.63836e-05
6.08997e-05
6.59796e-05
7.17482e-05
7.83672e-05
8.59644e-05
9.44575e-05
0.000103067
0.000109234
0.000109305
0.000102079
9.07383e-05
8.04569e-05
7.33289e-05
6.79168e-05
6.02996e-05
4.75943e-05
4.06989e-05
4.93044e-05
8.09305e-05
0.000136204
0.000105799
6.58598e-05
5.31612e-05
2.84505e-05
1.42383e-05
1.35276e-05
3.5569e-06
1.31149e-06
1.38737e-05
2.50341e-05
3.64419e-05
4.79232e-05
5.9015e-05
6.92599e-05
7.79293e-05
8.43892e-05
8.85796e-05
9.09363e-05
9.20034e-05
9.21585e-05
9.15367e-05
9.01146e-05
8.78426e-05
8.46511e-05
8.03564e-05
7.47869e-05
6.79725e-05
5.99787e-05
5.05934e-05
4.22037e-05
4.0498e-05
5.02972e-05
6.47008e-05
5.08976e-05
3.09893e-05
2.77497e-05
4.62454e-05
9.38612e-05
2.70373e-05
1.00266e-05
8.83462e-06
5.07703e-06
1.58458e-06
1.18135e-05
2.91994e-05
5.46818e-05
8.12314e-05
0.000100681
0.000108834
0.000106138
9.90969e-05
9.39198e-05
9.25922e-05
9.49971e-05
0.000100673
0.000109196
0.000119921
0.000131516
0.000141734
0.000147867
0.000147842
0.000141281
0.000129699
0.000115413
0.000100515
8.77884e-05
8.01416e-05
7.7578e-05
7.57395e-05
6.72314e-05
5.25209e-05
4.11644e-05
3.67971e-05
4.49934e-05
3.66346e-05
1.07274e-05
2.60272e-06
4.04045e-06
1.85323e-05
5.4899e-05
0.000112495
0.00014138
0.000127905
9.50188e-05
7.0613e-05
6.02746e-05
5.95283e-05
6.5042e-05
7.52637e-05
8.93004e-05
0.000106153
0.000124474
0.000142682
0.000159147
0.000172301
0.00018072
0.000183243
0.000179227
0.000168841
0.000153277
0.000134407
0.00011425
9.48523e-05
7.79675e-05
6.53685e-05
5.88111e-05
5.83539e-05
6.2745e-05
6.93071e-05
5.09859e-05
2.05283e-05
2.22661e-06
5.78074e-06
3.0731e-05
0.000106545
0.000130094
0.000109091
7.23542e-05
4.66169e-05
3.73013e-05
3.98255e-05
5.28709e-05
7.56785e-05
0.000102432
0.00012565
0.00014308
0.000155322
0.000162723
0.000165527
0.000164788
0.000162208
0.000158957
0.00015478
0.000148098
0.000137047
0.000121111
0.000102352
8.44245e-05
6.9967e-05
5.97866e-05
5.34944e-05
5.0803e-05
5.46558e-05
6.72099e-05
5.6143e-05
2.42102e-05
2.23437e-06
5.96205e-06
3.07052e-05
9.5638e-05
0.000122946
9.85697e-05
5.89424e-05
3.67378e-05
2.9733e-05
3.36121e-05
5.01821e-05
8.12473e-05
0.000113499
0.000130905
0.000136434
0.000137763
0.000138858
0.000140682
0.00014222
0.000141715
0.000139074
0.000136388
0.000135129
0.000134489
0.000132284
0.000126343
0.000115686
0.00010183
8.75924e-05
7.37614e-05
5.98826e-05
4.82475e-05
4.20497e-05
3.77517e-05
2.9305e-05
2.4772e-06
5.67216e-06
2.84093e-05
9.03978e-05
0.000119974
0.000103394
7.05123e-05
4.43132e-05
3.08376e-05
2.72037e-05
3.2385e-05
4.89307e-05
8.05614e-05
0.000122723
0.000158094
0.000174016
0.000169967
0.00015317
0.000136022
0.000129041
0.000135548
0.000149302
0.000154632
0.000144156
0.000127405
0.000114394
0.000108005
0.000106531
0.000106091
0.00010104
8.62664e-05
6.43699e-05
4.43245e-05
3.20173e-05
3.02505e-05
2.78651e-06
5.57139e-06
2.5905e-05
8.39581e-05
0.000116871
0.000103586
7.45816e-05
4.80701e-05
3.13323e-05
2.39323e-05
2.44007e-05
3.39176e-05
5.52781e-05
8.82802e-05
0.000130101
0.000176023
0.00021138
0.00021271
0.000213294
0.000212987
0.000187628
0.000166552
0.000161543
0.000162791
0.000156045
0.000137741
0.000116639
0.000100169
9.0007e-05
8.41922e-05
7.79371e-05
6.4634e-05
4.43582e-05
2.9755e-05
2.99186e-05
3.24561e-06
5.74839e-06
2.63085e-05
8.99473e-05
0.000130501
0.000103427
6.50839e-05
4.24817e-05
3.12128e-05
2.53484e-05
2.48772e-05
3.30568e-05
5.80821e-05
0.000112999
0.000189787
0.000194267
0.000194749
0.000195492
0.000196347
0.000197141
0.000197712
0.000197948
0.000197789
0.000197241
0.000164956
0.000135196
0.000112255
9.43828e-05
8.03759e-05
6.96297e-05
6.08364e-05
5.0952e-05
3.75077e-05
2.76974e-05
3.27481e-05
3.86084e-06
6.79285e-06
3.80957e-05
0.000118854
0.00010846
6.66754e-05
3.67881e-05
2.37354e-05
2.07868e-05
2.50847e-05
3.7798e-05
6.89135e-05
0.00013029
0.000180619
0.000198142
0.000202352
0.00020089
0.000199411
0.000198019
0.000196755
0.000195605
0.000194506
0.000193379
0.000182668
0.000162031
0.000136894
0.000112539
9.13793e-05
7.3555e-05
5.84711e-05
4.56138e-05
3.48946e-05
2.70446e-05
2.52208e-05
3.99439e-05
4.46967e-06
6.88716e-06
4.54968e-05
0.000110055
9.19158e-05
5.82986e-05
3.52805e-05
2.39684e-05
2.06224e-05
2.41603e-05
3.75491e-05
6.66592e-05
0.00010912
0.00014556
0.000169501
0.000185696
0.000194718
0.000195202
0.00019531
0.000195066
0.000194503
0.000193639
0.000187956
0.000174717
0.00015562
0.000132969
0.000109792
8.80328e-05
6.81047e-05
5.00116e-05
3.46543e-05
2.41549e-05
2.03413e-05
2.50393e-05
5.03948e-05
4.75134e-06
6.62679e-06
4.29547e-05
0.000109976
0.000114244
9.25778e-05
6.55798e-05
4.55418e-05
3.49734e-05
3.17746e-05
3.34241e-05
3.9621e-05
5.21322e-05
7.07524e-05
9.17289e-05
0.000111443
0.000128577
0.000142783
0.000154145
0.000162989
0.000169458
0.00017352
0.000174846
0.000172141
0.000163329
0.000147653
0.000126787
0.000103479
7.98782e-05
5.72259e-05
3.70681e-05
2.25104e-05
1.62713e-05
1.98109e-05
4.82951e-05
4.74245e-06
6.14389e-06
3.68492e-05
0.000108875
0.000129053
0.000112495
8.3248e-05
5.9608e-05
4.43324e-05
3.53095e-05
3.13185e-05
3.16037e-05
3.73639e-05
5.35708e-05
8.52729e-05
0.000114991
0.000127787
0.000138018
0.000150241
0.000161848
0.000171018
0.000176887
0.000178434
0.000174447
0.00016436
0.00014899
0.000129971
0.000108834
8.64113e-05
6.31464e-05
4.05874e-05
2.31438e-05
1.4995e-05
1.72359e-05
4.512e-05
4.94584e-06
5.21998e-06
2.61961e-05
7.94348e-05
0.000129129
0.000146978
0.000148364
0.000141071
0.000121924
8.5595e-05
5.52185e-05
3.8488e-05
2.91042e-05
2.47596e-05
2.7026e-05
4.11782e-05
7.41805e-05
0.000108767
0.000128072
0.000142952
0.000157218
0.000169061
0.000176798
0.000178429
0.000172325
0.000158466
0.00013857
0.000115149
9.01807e-05
6.46069e-05
3.99411e-05
2.12646e-05
1.30626e-05
1.52098e-05
4.31658e-05
5.18346e-06
5.84003e-06
2.86197e-05
9.26609e-05
0.000127293
0.000109547
7.93787e-05
6.13404e-05
6.02166e-05
7.75221e-05
0.000108898
0.000113249
7.07423e-05
3.935e-05
2.75102e-05
2.79666e-05
4.35743e-05
9.52056e-05
0.000187023
0.000186378
0.000185865
0.000185189
0.000184169
0.000182701
0.000177276
0.000160016
0.000140979
0.000119985
9.62131e-05
6.883e-05
3.99725e-05
1.92486e-05
1.14648e-05
1.45942e-05
4.63184e-05
5.29216e-06
5.99044e-06
2.89789e-05
8.93211e-05
0.000135187
0.000140659
0.000125094
9.99402e-05
7.58184e-05
6.11729e-05
5.89236e-05
6.70625e-05
7.24569e-05
5.1923e-05
3.14445e-05
2.64019e-05
3.69928e-05
8.07914e-05
0.000194853
0.00019459
0.000194355
0.000193853
0.000192871
0.000191261
0.000188907
0.000185761
0.000173275
0.000137548
0.000106695
7.7799e-05
4.72662e-05
2.14054e-05
1.0665e-05
1.27172e-05
4.23096e-05
5.19341e-06
6.57738e-06
3.25468e-05
0.000106274
0.000134812
0.000105111
7.06269e-05
5.47822e-05
5.29024e-05
5.82014e-05
6.55142e-05
7.22002e-05
7.23386e-05
5.47768e-05
3.38208e-05
2.72066e-05
3.92332e-05
9.25709e-05
0.000192793
0.000194176
0.000195468
0.000196398
0.000196756
0.000196378
0.000195156
0.000193046
0.000190047
0.000165729
0.000126063
9.32983e-05
6.29751e-05
3.26236e-05
1.39289e-05
1.20318e-05
3.37459e-05
5.13984e-06
6.8602e-06
3.60513e-05
0.000119997
0.000128073
8.50081e-05
5.61346e-05
4.90714e-05
5.49983e-05
6.51431e-05
6.772e-05
6.00413e-05
4.90911e-05
3.97772e-05
3.47227e-05
3.97466e-05
6.83655e-05
0.000135064
0.000193607
0.000195626
0.000197611
0.000199278
0.000200404
0.000200794
0.000200317
0.000198973
0.000175537
0.000146222
0.000118995
9.38689e-05
6.88716e-05
4.12775e-05
1.80888e-05
1.24053e-05
2.91423e-05
5.34296e-06
7.10367e-06
3.8911e-05
0.00012482
0.000110692
6.1818e-05
4.06428e-05
3.81141e-05
4.73958e-05
6.52718e-05
7.74262e-05
6.61454e-05
4.35441e-05
2.91769e-05
2.74756e-05
4.69163e-05
0.000121822
0.000186224
0.000188949
0.000191947
0.000194969
0.000197784
0.000200172
0.000193071
0.000181039
0.00016519
0.000146604
0.00012663
0.00010626
8.56918e-05
6.45112e-05
4.11946e-05
1.98772e-05
1.37608e-05
3.15551e-05
5.76338e-06
7.24557e-06
4.34518e-05
0.000121222
8.53798e-05
4.7289e-05
3.49889e-05
3.76191e-05
4.86386e-05
5.91696e-05
6.14873e-05
5.47051e-05
4.42209e-05
3.7321e-05
4.11121e-05
6.68214e-05
0.000123301
0.000165207
0.000175737
0.00017469
0.000171894
0.000167968
0.000162323
0.000155005
0.000146092
0.000135434
0.000123039
0.000109086
9.35041e-05
7.57033e-05
5.5145e-05
3.33956e-05
1.7677e-05
1.5601e-05
4.18266e-05
6.36037e-06
6.88576e-06
3.8752e-05
0.000117182
9.88455e-05
5.48676e-05
3.57835e-05
3.50947e-05
4.68151e-05
6.05207e-05
5.85632e-05
4.32692e-05
3.00049e-05
2.73773e-05
4.7427e-05
0.000134733
0.000175031
0.000178088
0.000181371
0.000184653
0.000187827
0.000190856
0.000179359
0.00015853
0.000138717
0.000120794
0.000104621
8.96924e-05
7.49143e-05
5.90414e-05
4.18807e-05
2.62487e-05
1.72251e-05
2.04776e-05
5.88301e-05
6.92339e-06
7.1135e-06
4.02626e-05
0.000113768
0.0001004
5.89158e-05
3.42179e-05
2.72314e-05
3.22754e-05
4.92187e-05
7.19758e-05
7.7073e-05
5.56996e-05
3.56807e-05
3.40905e-05
6.53991e-05
0.00015511
0.000169208
0.000173082
0.00017695
0.000180628
0.000184054
0.000180207
0.000157111
0.00013351
0.000111891
9.28421e-05
7.65389e-05
6.19598e-05
4.75106e-05
3.29906e-05
2.16138e-05
1.74638e-05
2.6223e-05
6.47025e-05
7.32304e-06
6.90134e-06
3.91178e-05
0.00011409
0.00011004
7.29891e-05
4.31177e-05
3.09906e-05
3.103e-05
3.9534e-05
5.07803e-05
5.56457e-05
5.01079e-05
3.99424e-05
3.7973e-05
6.64338e-05
0.000151081
0.000153964
0.000158474
0.000163568
0.000168642
0.000173404
0.000157392
0.000135419
0.000115583
9.69384e-05
7.95247e-05
6.43287e-05
5.14906e-05
3.99019e-05
2.89023e-05
2.07271e-05
1.97063e-05
3.34127e-05
5.59963e-05
7.53976e-06
6.99874e-06
3.96389e-05
0.000112555
0.000115076
8.30363e-05
4.87778e-05
3.12135e-05
2.76099e-05
3.54254e-05
5.46142e-05
7.60281e-05
7.91819e-05
6.16007e-05
4.38038e-05
3.97682e-05
6.29399e-05
0.000141423
0.000148957
0.000152138
0.000156293
0.000154536
0.000129067
0.000109065
9.46984e-05
8.19876e-05
6.88703e-05
5.5845e-05
4.43974e-05
3.47858e-05
2.64263e-05
2.05751e-05
2.15718e-05
3.84074e-05
4.74968e-05
7.56759e-06
6.91379e-06
4.12048e-05
0.000117958
0.000121341
9.59965e-05
6.38927e-05
3.95585e-05
2.8051e-05
2.70211e-05
3.47023e-05
4.91339e-05
6.33831e-05
6.6976e-05
5.98527e-05
5.803e-05
8.43328e-05
0.000147526
0.000146182
0.000147599
0.000150692
0.000154538
0.000117902
9.04556e-05
7.5626e-05
6.67753e-05
5.87079e-05
4.93393e-05
3.97314e-05
3.16255e-05
2.53579e-05
2.16342e-05
2.45415e-05
4.38393e-05
4.13731e-05
7.5754e-06
6.70682e-06
3.76809e-05
0.000112197
0.00012822
0.000111609
8.27161e-05
5.42141e-05
3.58254e-05
2.91448e-05
3.25852e-05
4.50463e-05
6.13797e-05
7.06664e-05
6.73421e-05
5.89259e-05
5.80854e-05
7.91806e-05
0.00013692
0.000152582
0.000152915
0.000154616
0.000122982
8.90957e-05
6.93781e-05
5.88175e-05
5.16664e-05
4.42833e-05
3.6061e-05
2.87702e-05
2.37354e-05
2.17063e-05
2.63083e-05
4.71618e-05
3.7335e-05
7.59148e-06
6.78449e-06
3.97782e-05
0.000122104
0.000127287
0.000101828
7.8688e-05
6.11127e-05
4.32173e-05
3.01141e-05
2.62624e-05
3.18733e-05
4.65521e-05
6.34903e-05
7.0145e-05
6.92083e-05
8.04666e-05
0.0001299
0.000153785
0.00015251
0.000153536
0.000155857
0.000121139
8.34254e-05
6.31466e-05
5.31155e-05
4.7277e-05
4.17802e-05
3.48946e-05
2.7931e-05
2.32379e-05
2.22939e-05
2.87234e-05
5.15132e-05
3.35562e-05
7.55238e-06
6.74663e-06
3.77389e-05
0.000119047
0.000126914
9.77897e-05
7.64113e-05
6.70614e-05
5.80083e-05
4.28664e-05
3.22071e-05
3.14951e-05
4.04118e-05
5.53202e-05
6.66573e-05
6.746e-05
6.46096e-05
7.30058e-05
0.000109744
0.000148948
0.000148997
0.0001405
0.000109842
8.09805e-05
6.14363e-05
4.98602e-05
4.29518e-05
3.80801e-05
3.31743e-05
2.75874e-05
2.31874e-05
2.25741e-05
2.9942e-05
5.38487e-05
3.11942e-05
7.47922e-06
7.13978e-06
4.26226e-05
0.000129266
0.000109519
7.1717e-05
5.56315e-05
5.30599e-05
5.33965e-05
4.69762e-05
3.64017e-05
3.23701e-05
3.91297e-05
5.68336e-05
7.68684e-05
8.43214e-05
7.91048e-05
7.63372e-05
9.32688e-05
0.000129107
0.00012383
9.67672e-05
7.07176e-05
5.60645e-05
4.99959e-05
4.65611e-05
4.22618e-05
3.72301e-05
3.26891e-05
2.84992e-05
2.4813e-05
2.42717e-05
3.2077e-05
5.66527e-05
3.06957e-05
7.47544e-06
7.40012e-06
4.67826e-05
0.000131291
8.59052e-05
5.61643e-05
5.08201e-05
5.53474e-05
5.85255e-05
5.34074e-05
4.35649e-05
3.83487e-05
4.28025e-05
5.75501e-05
7.59522e-05
8.5924e-05
8.33498e-05
7.53577e-05
7.054e-05
7.32597e-05
7.86359e-05
6.74954e-05
4.04314e-05
2.7565e-05
2.78644e-05
3.37113e-05
3.78153e-05
3.60271e-05
3.16028e-05
2.82003e-05
2.62474e-05
2.68299e-05
3.53814e-05
6.01121e-05
3.13366e-05
7.53128e-06
7.66708e-06
5.66603e-05
0.000111929
5.44581e-05
3.8655e-05
4.20596e-05
5.15714e-05
5.5806e-05
5.21219e-05
4.6824e-05
4.66849e-05
5.65373e-05
7.74552e-05
9.94546e-05
0.00010879
0.000103813
9.18611e-05
7.9233e-05
6.82982e-05
5.63424e-05
3.81984e-05
1.68692e-05
7.48094e-06
1.17737e-05
1.91466e-05
2.9412e-05
3.56497e-05
3.29026e-05
2.85433e-05
2.71999e-05
2.98355e-05
4.0457e-05
6.42194e-05
3.10539e-05
7.52158e-06
7.55485e-06
6.13286e-05
8.03557e-05
3.88181e-05
3.29088e-05
4.37748e-05
5.81375e-05
6.08665e-05
5.60776e-05
5.30025e-05
5.64263e-05
6.85596e-05
8.74062e-05
0.000104459
0.000112681
0.000111732
0.000104718
9.45225e-05
8.20593e-05
6.68659e-05
4.7558e-05
2.5024e-05
7.11442e-06
3.4342e-06
8.22486e-06
1.69269e-05
2.76782e-05
3.34903e-05
3.07428e-05
2.87839e-05
3.26608e-05
4.59957e-05
6.76886e-05
2.98166e-05
7.36994e-06
7.20638e-06
5.51307e-05
7.66828e-05
3.77171e-05
2.98803e-05
3.66218e-05
4.84974e-05
5.50206e-05
5.69444e-05
6.07879e-05
7.03968e-05
8.5969e-05
0.00010384
0.00011853
0.000126806
0.000128735
0.00012589
0.000119465
0.000109544
9.48845e-05
7.42765e-05
4.93985e-05
2.55385e-05
9.72615e-06
5.18257e-06
8.13165e-06
1.51259e-05
2.52226e-05
3.21863e-05
3.25283e-05
3.63313e-05
5.08677e-05
7.12599e-05
2.94361e-05
7.18809e-06
6.88461e-06
4.45283e-05
9.12397e-05
4.72824e-05
2.8416e-05
2.66457e-05
3.48278e-05
4.78082e-05
5.88692e-05
6.79818e-05
7.97091e-05
9.58869e-05
0.000114017
0.000129724
0.000140222
0.000145258
0.000145786
0.00014258
0.00013555
0.000123696
0.000105782
8.18267e-05
5.46356e-05
3.00498e-05
1.37851e-05
7.19329e-06
7.64157e-06
1.29035e-05
2.24565e-05
3.25546e-05
4.03855e-05
5.54618e-05
7.54608e-05
3.02866e-05
7.10021e-06
6.5504e-06
3.60648e-05
9.50743e-05
7.7654e-05
3.86368e-05
2.3434e-05
2.23676e-05
3.03229e-05
4.52861e-05
6.3102e-05
8.17548e-05
0.00010254
0.000125107
0.000146159
0.00016206
0.000171245
0.000174287
0.000172405
0.000166243
0.000155474
0.000139283
0.0001173
9.03782e-05
6.12458e-05
3.49938e-05
1.70075e-05
8.51746e-06
7.27669e-06
1.1565e-05
2.15084e-05
3.67114e-05
5.57519e-05
7.5939e-05
3.07707e-05
7.09552e-06
6.56218e-06
3.60318e-05
0.000100588
0.000101521
6.54437e-05
3.26552e-05
2.07219e-05
2.05552e-05
2.97214e-05
4.89499e-05
7.58363e-05
0.000105683
0.000135948
0.000164841
0.000189274
0.000205755
0.000212856
0.000211818
0.000204663
0.000192555
0.000175618
0.000153642
0.000126792
9.60789e-05
6.41267e-05
3.60505e-05
1.72493e-05
8.41124e-06
7.01154e-06
1.18004e-05
2.42346e-05
4.72997e-05
7.028e-05
2.9123e-05
7.0659e-06
6.51745e-06
3.5969e-05
0.000106047
0.000117351
9.73376e-05
5.76904e-05
2.9353e-05
1.95033e-05
2.03509e-05
3.07948e-05
5.3038e-05
8.71004e-05
0.000129261
0.000175156
0.000216062
0.000226699
0.000226227
0.00022495
0.000222847
0.000219907
0.000216141
0.000193051
0.00016225
0.000129118
9.44215e-05
6.016e-05
3.19387e-05
1.46724e-05
7.46138e-06
7.51202e-06
1.47795e-05
3.42608e-05
6.21585e-05
2.64578e-05
6.95689e-06
6.63777e-06
3.67171e-05
0.000110883
0.000115556
9.10626e-05
6.698e-05
4.36619e-05
2.61772e-05
1.97932e-05
2.32412e-05
3.8349e-05
6.96649e-05
0.000118699
0.000179175
0.000225955
0.000227437
0.000228177
0.000228126
0.000227255
0.000225551
0.000223007
0.000219632
0.000195103
0.00015769
0.000120055
8.33508e-05
4.98094e-05
2.4925e-05
1.14878e-05
7.09176e-06
1.00383e-05
2.41131e-05
5.51404e-05
2.4705e-05
6.82015e-06
6.6201e-06
3.45952e-05
0.00010646
0.000113771
8.52164e-05
6.07551e-05
4.72144e-05
3.45326e-05
2.40108e-05
2.1462e-05
2.90529e-05
5.18458e-05
9.87146e-05
0.000170201
0.000224464
0.000226816
0.000228527
0.000229513
0.000229725
0.000229134
0.000227726
0.000225494
0.000219832
0.000180941
0.000140528
0.000102857
6.78198e-05
3.8296e-05
1.87601e-05
9.61949e-06
8.62922e-06
1.77211e-05
4.8971e-05
2.45499e-05
6.72096e-06
6.77596e-06
3.51342e-05
0.000111254
0.000110472
7.34948e-05
5.10748e-05
4.26683e-05
3.76503e-05
3.00011e-05
2.48411e-05
2.82161e-05
4.58868e-05
8.98196e-05
0.000168309
0.000223443
0.000226133
0.000228369
0.000230014
0.000230987
0.000231239
0.000230742
0.000229485
0.000227477
0.000198437
0.000156962
0.000118159
8.28677e-05
5.17651e-05
2.81075e-05
1.44339e-05
9.83654e-06
1.4938e-05
4.27625e-05
2.59303e-05
6.6659e-06
6.9192e-06
3.5028e-05
0.000113852
9.96075e-05
5.8549e-05
4.23326e-05
3.90512e-05
3.7771e-05
3.34186e-05
2.88513e-05
3.05452e-05
4.55988e-05
8.78247e-05
0.000170364
0.000223359
0.000225964
0.000228318
0.000230246
0.000231642
0.000232435
0.000232583
0.000232061
0.000230865
0.000210281
0.000168839
0.000129224
9.38835e-05
6.26082e-05
3.71912e-05
2.03919e-05
1.28503e-05
1.51521e-05
3.8835e-05
2.84755e-05
6.62536e-06
7.15391e-06
3.65716e-05
0.000116329
7.71106e-05
4.09832e-05
3.25506e-05
3.50435e-05
3.86552e-05
3.77282e-05
3.49816e-05
3.74969e-05
5.35937e-05
9.76571e-05
0.000178029
0.000224683
0.000226863
0.000228952
0.000230784
0.000232241
0.000233243
0.000233733
0.000233672
0.000233039
0.000211759
0.000172688
0.000134711
0.000100466
6.99122e-05
4.43609e-05
2.62201e-05
1.68589e-05
1.75499e-05
3.8741e-05
3.15327e-05
6.43952e-06
7.26504e-06
3.77996e-05
0.000111776
5.6708e-05
3.03854e-05
2.73116e-05
3.34344e-05
3.97648e-05
4.11017e-05
4.11143e-05
4.68048e-05
6.62977e-05
0.000110076
0.000176749
0.000226794
0.000228415
0.000230056
0.000231571
0.000232857
0.000233832
0.000234431
0.000234606
0.000231827
0.000201176
0.000166818
0.00013383
0.000102774
7.41436e-05
4.95927e-05
3.14391e-05
2.13606e-05
2.14176e-05
4.15912e-05
3.45511e-05
6.17265e-06
7.25114e-06
3.8843e-05
0.000103762
4.69913e-05
2.49994e-05
2.36041e-05
3.20959e-05
4.23005e-05
4.71851e-05
5.0055e-05
5.81487e-05
7.80798e-05
0.000114558
0.000163363
0.000207361
0.000230028
0.000231158
0.000232257
0.000233245
0.000234048
0.000234596
0.000228627
0.000207883
0.000182593
0.000156022
0.000128983
0.000101943
7.6011e-05
5.3223e-05
3.5929e-05
2.60003e-05
2.61471e-05
4.59719e-05
3.70721e-05
5.96223e-06
7.0869e-06
3.65188e-05
0.000101615
5.27415e-05
2.47906e-05
1.9905e-05
2.62843e-05
3.85314e-05
4.91373e-05
5.71879e-05
6.81026e-05
8.72085e-05
0.000117002
0.000154376
0.000190134
0.000215329
0.000228267
0.000232594
0.000231493
0.000226008
0.000216301
0.000202652
0.000185664
0.000166239
0.00014509
0.000122599
9.92326e-05
7.61678e-05
5.54748e-05
3.95228e-05
3.03691e-05
3.1186e-05
5.09292e-05
3.878e-05
5.821e-06
6.92868e-06
3.3283e-05
9.96893e-05
7.32008e-05
3.01909e-05
1.78101e-05
1.93317e-05
2.9947e-05
4.55968e-05
6.05515e-05
7.54514e-05
9.53405e-05
0.000123326
0.000157664
0.000191704
0.000217419
0.000230814
0.000232751
0.000227993
0.000217832
0.000204386
0.000188826
0.000171988
0.000154301
0.00013579
0.000116283
9.58514e-05
7.53597e-05
5.66837e-05
4.21833e-05
3.41143e-05
3.59649e-05
5.58085e-05
3.97633e-05
5.74596e-06
6.93873e-06
3.13645e-05
9.81289e-05
8.58614e-05
3.86758e-05
1.93777e-05
1.58191e-05
2.16194e-05
3.64198e-05
5.83603e-05
8.29784e-05
0.00011007
0.000142566
0.000180547
0.000218062
0.000233603
0.000233502
0.000233339
0.000233117
0.000224616
0.0002049
0.000184861
0.000165414
0.000146727
0.00012861
0.000110571
9.22423e-05
7.39639e-05
5.71714e-05
4.40931e-05
3.71876e-05
4.022e-05
6.03617e-05
4.02648e-05
5.72228e-06
7.21868e-06
3.20551e-05
0.000104221
7.42241e-05
3.56877e-05
2.15783e-05
1.67564e-05
1.93444e-05
3.12202e-05
5.48308e-05
8.94899e-05
0.000131959
0.000181422
0.000232522
0.000235871
0.000235651
0.000235252
0.000234703
0.00023404
0.00023331
0.000213912
0.000186982
0.000163184
0.000141978
0.000122745
0.000104958
8.80213e-05
7.1741e-05
5.69065e-05
4.53745e-05
3.97129e-05
4.39849e-05
6.45829e-05
4.028e-05
5.71909e-06
7.79703e-06
3.64023e-05
0.00011067
4.76884e-05
2.33791e-05
1.90654e-05
1.89818e-05
2.22868e-05
3.45882e-05
6.16954e-05
0.000106451
0.000165784
0.00022556
0.000238567
0.000238596
0.000238292
0.000237698
0.000236858
0.000235828
0.000234678
0.000216287
0.000186929
0.00016046
0.000137427
0.000117084
9.90755e-05
8.29963e-05
6.84606e-05
5.56794e-05
4.5938e-05
4.1693e-05
4.7247e-05
6.82953e-05
3.9718e-05
5.69988e-06
8.25876e-06
4.64551e-05
8.30659e-05
2.7067e-05
1.57402e-05
1.77532e-05
2.38799e-05
3.18472e-05
4.83471e-05
7.96405e-05
0.00012253
0.000166395
0.000201553
0.000223604
0.000234571
0.000239557
0.000240453
0.000239431
0.000234466
0.000220743
0.000199867
0.000176281
0.00015311
0.000131276
0.000111175
9.32503e-05
7.77197e-05
6.44841e-05
5.35428e-05
4.56575e-05
4.29554e-05
4.97635e-05
7.09831e-05
3.85636e-05
5.63233e-06
8.19218e-06
5.59567e-05
5.22981e-05
1.94552e-05
1.37798e-05
1.98933e-05
3.21912e-05
4.47445e-05
6.27335e-05
8.84729e-05
0.000116856
0.000142779
0.000163777
0.000179225
0.000189948
0.000197273
0.000201848
0.000203143
0.000200102
0.00019204
0.000179298
0.000163119
0.000144886
0.000125746
0.0001068
8.9175e-05
7.37744e-05
6.10585e-05
5.12042e-05
4.47173e-05
4.33446e-05
5.11754e-05
7.21523e-05
3.70947e-05
5.50739e-06
7.73072e-06
5.08004e-05
6.5167e-05
2.66985e-05
1.53456e-05
1.70191e-05
2.84998e-05
4.41071e-05
6.22055e-05
8.37642e-05
0.000106978
0.000128507
0.000146193
0.000159522
0.000168867
0.000175229
0.000179387
0.000181323
0.000180392
0.000175917
0.000167617
0.000155736
0.00014091
0.000124003
0.000106113
8.85669e-05
7.27139e-05
5.95832e-05
4.97554e-05
4.37664e-05
4.30966e-05
5.14624e-05
7.18799e-05
3.58577e-05
5.35953e-06
7.37349e-06
3.99458e-05
9.8531e-05
6.49818e-05
2.44858e-05
1.35173e-05
1.48146e-05
2.50707e-05
4.48002e-05
7.06012e-05
9.72507e-05
0.000121737
0.000141867
0.000156333
0.000165496
0.000170707
0.000173437
0.000174462
0.000173681
0.000170508
0.000164356
0.000154919
0.000142325
0.000127066
0.000109974
9.22585e-05
7.54397e-05
6.10312e-05
5.01516e-05
4.36069e-05
4.27844e-05
5.10444e-05
7.08075e-05
3.53285e-05
5.24488e-06
7.24158e-06
3.74019e-05
9.70679e-05
0.000107693
6.84e-05
2.53997e-05
1.29069e-05
1.22556e-05
2.0163e-05
4.03367e-05
7.31744e-05
0.000108632
0.000137698
0.00015808
0.000170058
0.000175311
0.000176383
0.000175405
0.000173322
0.000169979
0.000164666
0.000156727
0.000145881
0.000132228
0.000116226
9.87452e-05
8.11602e-05
6.52318e-05
5.26554e-05
4.47498e-05
4.30369e-05
5.06448e-05
6.98268e-05
3.57058e-05
5.21197e-06
7.22248e-06
3.92685e-05
0.000108037
0.000123572
0.000118916
7.68988e-05
2.85262e-05
1.33976e-05
1.10602e-05
1.72015e-05
3.62341e-05
7.24205e-05
0.000115278
0.000148629
0.000168494
0.000177475
0.000179098
0.000176828
0.000173082
0.00016873
0.000163473
0.000156595
0.000147467
0.000135767
0.000121529
0.000105191
8.77488e-05
7.08731e-05
5.6663e-05
4.70916e-05
4.40751e-05
5.07119e-05
6.94177e-05
3.68551e-05
5.27379e-06
7.24056e-06
4.0038e-05
0.000115395
0.000130606
0.000122896
0.000115638
8.00796e-05
3.19429e-05
1.44371e-05
1.08248e-05
1.61695e-05
3.5003e-05
7.3436e-05
0.00012062
0.000155444
0.000173229
0.000178852
0.000177309
0.000172496
0.000166711
0.000160652
0.000153986
0.000146012
0.000136098
0.000123883
0.000109362
9.30399e-05
7.62086e-05
6.1029e-05
5.00463e-05
4.57592e-05
5.14575e-05
6.985e-05
3.83939e-05
5.42049e-06
7.28003e-06
3.90137e-05
0.00011371
0.000131156
0.000114954
9.59836e-05
8.92168e-05
7.19944e-05
3.3188e-05
1.50695e-05
1.12093e-05
1.73288e-05
3.86871e-05
8.24812e-05
0.000134476
0.000168728
0.000182135
0.000182616
0.000176636
0.000168411
0.00016004
0.00015195
0.000143673
0.000134471
0.000123672
0.000110861
9.6059e-05
8.00496e-05
6.47303e-05
5.29285e-05
4.77296e-05
5.27952e-05
7.11415e-05
3.9816e-05
5.62525e-06
7.43139e-06
3.9722e-05
0.000115628
0.000136092
0.000119275
9.00956e-05
7.05527e-05
6.64355e-05
5.81019e-05
2.9325e-05
1.44455e-05
1.27902e-05
2.27422e-05
5.2533e-05
0.000108664
0.000165316
0.000192865
0.000196004
0.000187611
0.000175395
0.000163091
0.000151924
0.000141737
0.000131813
0.000121343
0.000109661
9.63522e-05
8.16591e-05
6.70221e-05
5.52276e-05
4.9775e-05
5.47807e-05
7.34425e-05
4.07387e-05
5.85905e-06
7.63401e-06
4.15309e-05
0.000120913
0.00013689
0.000116878
8.74316e-05
6.48082e-05
5.42985e-05
5.2188e-05
4.09837e-05
2.17367e-05
1.4118e-05
1.84388e-05
3.95332e-05
9.13673e-05
0.00016579
0.000211095
0.000215213
0.000201366
0.000183649
0.000166784
0.000152007
0.000139216
0.000127776
0.000116919
0.000105845
9.38681e-05
8.07928e-05
6.75572e-05
5.666e-05
5.17679e-05
5.74127e-05
7.66819e-05
4.09327e-05
6.0865e-06
7.78553e-06
4.3479e-05
0.000124846
0.000130664
0.000102533
7.3678e-05
5.69582e-05
4.89687e-05
4.44899e-05
3.79828e-05
2.52979e-05
1.71522e-05
1.987e-05
3.97786e-05
9.28017e-05
0.000173259
0.00021821
0.0002219
0.00020407
0.00018314
0.000164165
0.000147728
0.000133534
0.000121125
0.00010997
9.94346e-05
8.88172e-05
7.76641e-05
6.64651e-05
5.73029e-05
5.37905e-05
6.07328e-05
8.05749e-05
4.03734e-05
6.27308e-06
7.74993e-06
4.4263e-05
0.000126065
0.00012125
8.63564e-05
5.90208e-05
4.66211e-05
4.21847e-05
3.88408e-05
3.25435e-05
2.43251e-05
2.0004e-05
2.5692e-05
5.14624e-05
0.00010974
0.000175591
0.000204728
0.000201862
0.000187002
0.000169669
0.000152922
0.000137621
0.000123903
0.000111691
0.000100839
9.10788e-05
8.19307e-05
7.29043e-05
6.41648e-05
5.73524e-05
5.58749e-05
6.45536e-05
8.43696e-05
3.90911e-05
6.38488e-06
7.59733e-06
4.4022e-05
0.000125387
0.000112381
7.43928e-05
4.97032e-05
3.93327e-05
3.55226e-05
3.26323e-05
2.80956e-05
2.38441e-05
2.445e-05
3.66215e-05
7.10025e-05
0.00012481
0.000166604
0.000180924
0.000177386
0.000166427
0.000153022
0.000139201
0.000125821
0.00011326
0.000101735
9.14402e-05
8.2471e-05
7.46572e-05
6.76211e-05
6.1349e-05
5.70888e-05
5.79346e-05
6.83607e-05
8.70346e-05
3.72787e-05
6.40553e-06
7.44368e-06
4.26451e-05
0.000122885
0.000106868
6.7865e-05
4.4723e-05
3.52204e-05
3.12792e-05
2.84459e-05
2.56967e-05
2.49792e-05
3.03873e-05
4.90012e-05
8.74293e-05
0.000133113
0.000162238
0.000169849
0.00016476
0.000154362
0.000142114
0.00012943
0.000116945
0.000104998
9.38534e-05
8.38432e-05
7.53026e-05
6.83454e-05
6.2784e-05
5.85618e-05
5.66386e-05
5.972e-05
7.15253e-05
8.78813e-05
3.51624e-05
6.33942e-06
7.41023e-06
4.12764e-05
0.000120124
0.000104823
6.49745e-05
4.21468e-05
3.33258e-05
2.98143e-05
2.71004e-05
2.48815e-05
2.57129e-05
3.37218e-05
5.55749e-05
9.55885e-05
0.000140066
0.000166531
0.000171162
0.000163552
0.000151425
0.000138145
0.000124912
0.000112188
0.000100171
8.90019e-05
7.89492e-05
7.04235e-05
6.37532e-05
5.89876e-05
5.61559e-05
5.60564e-05
6.09822e-05
7.36215e-05
8.7045e-05
3.30784e-05
6.21989e-06
7.4623e-06
4.08798e-05
0.000117981
0.00010233