/*--------------------------------*- C++ -*----------------------------------*\
| =========                 |                                                 |
| \\      /  F ield         | OpenFOAM: The Open Source CFD Toolbox           |
|  \\    /   O peration     | Version:  v1906                                 |
|   \\  /    A nd           | Web:      www.OpenFOAM.com                      |
|    \\/     M anipulation  |                                                 |
\*---------------------------------------------------------------------------*/
FoamFile
{
    version     2.0;
    format      ascii;
    class       surfaceScalarField;
    location    "32.4/oil";
    object      phi;
}
// * * * * * * * * * * * * * * * * * * * * * * * * * * * * * * * * * * * * * //

dimensions      [1 0 -1 0 0 0 0];
oriented        oriented;


internalField   nonuniform List<scalar> 
80688
(
-2.407e-06
-2.4485e-06
-2.407e-06
-1.08768e-06
-6.82109e-07
-6.37205e-07
-2.97439e-07
-3.97477e-07
-3.92768e-07
-1.48907e-07
-7.44639e-08
-7.40682e-08
-6.37824e-08
-4.2847e-08
-4.22773e-08
-2.42365e-08
-2.0174e-08
-1.93719e-08
-4.09609e-09
-1.05199e-08
-9.62052e-09
6.45413e-09
-5.76167e-09
-4.78856e-09
1.1783e-08
-3.2134e-09
-2.11552e-09
1.3842e-08
-1.67464e-09
-3.84388e-10
1.35949e-08
-6.32936e-10
8.80034e-10
1.15971e-08
1.21369e-10
1.8765e-09
8.26649e-09
6.82655e-10
2.64791e-09
4.01118e-09
1.06338e-09
3.19193e-09
-7.46933e-10
1.27019e-09
3.48792e-09
-5.57762e-09
1.30575e-09
3.52495e-09
-1.00673e-08
1.17848e-09
3.31123e-09
-1.38514e-08
9.06423e-10
2.87763e-09
-1.66456e-08
5.17242e-10
2.27701e-09
-1.82659e-08
4.48938e-11
1.57538e-09
-1.86482e-08
-4.63228e-10
8.4554e-10
-1.78362e-08
-9.78867e-10
1.66807e-10
-1.59672e-08
-1.4637e-09
-4.05285e-10
-1.32771e-08
-1.88484e-09
-8.05235e-10
-1.00775e-08
-2.20785e-09
-9.91743e-10
-6.74083e-09
-2.38686e-09
-9.49797e-10
-3.68561e-09
-2.3554e-09
-6.99828e-10
-1.34401e-09
-2.02012e-09
-3.21475e-10
-8.35691e-11
-1.26411e-09
3.67269e-12
-1.74256e-10
9.06866e-11
-6.48767e-07
-1.15097e-06
-6.48767e-07
-3.90531e-07
-4.18652e-07
-5.21693e-07
-2.82301e-07
-2.80599e-07
-2.25108e-07
-1.43854e-07
-1.20626e-07
-9.22845e-08
-6.67787e-08
-7.1698e-08
-4.82248e-08
-2.30916e-08
-4.21521e-08
-2.1709e-08
2.80628e-09
-2.81444e-08
-8.2733e-09
1.79443e-08
-2.03212e-08
-5.78563e-10
2.60631e-08
-1.56557e-08
4.32358e-09
2.90538e-08
-1.25371e-08
7.87176e-09
2.7999e-08
-1.02583e-08
1.06801e-08
2.36641e-08
-8.51387e-09
1.29702e-08
1.67607e-08
-7.19092e-09
1.4777e-08
8.03911e-09
-6.27115e-09
1.60561e-08
-1.68121e-09
-5.76087e-09
1.67514e-08
-1.15457e-08
-5.66303e-09
1.68333e-08
-2.07268e-08
-5.95819e-09
1.63178e-08
-2.84943e-08
-6.59786e-09
1.52718e-08
-3.42798e-08
-7.50684e-09
1.38095e-08
-3.77193e-08
-8.58956e-09
1.2074e-08
-3.86712e-08
-9.74101e-09
1.02297e-08
-3.72225e-08
-1.08549e-08
8.42736e-09
-3.3665e-08
-1.18257e-08
6.80451e-09
-2.84646e-08
-1.25491e-08
5.46384e-09
-2.22287e-08
-1.29101e-08
4.46631e-09
-1.56636e-08
-1.27653e-08
3.81342e-09
-9.52204e-09
-1.19238e-08
3.42688e-09
-4.52507e-09
-1.01335e-08
3.11644e-09
-1.24371e-09
-7.07999e-09
2.53451e-09
-2.66945e-09
1.25149e-09
-4.04781e-07
-3.41407e-07
-4.0478e-07
-2.73518e-07
-3.1865e-07
-2.31265e-07
-1.87185e-07
-2.22162e-07
-1.4477e-07
-1.0276e-07
-1.31219e-07
-7.38326e-08
-4.76225e-08
-8.99606e-08
-3.68751e-08
-1.07464e-08
-6.44097e-08
-1.46184e-08
1.3358e-08
-5.0418e-08
-1.83086e-09
2.84799e-08
-4.17533e-08
6.31022e-09
3.67782e-08
-3.60138e-08
1.20598e-08
3.94982e-08
-3.18143e-08
1.65571e-08
3.7474e-08
-2.85281e-08
2.02939e-08
3.14285e-08
-2.58911e-08
2.34228e-08
2.21535e-08
-2.38342e-08
2.59184e-08
1.05636e-08
-2.23762e-08
2.76949e-08
-2.30118e-09
-2.15562e-08
2.86601e-08
-1.53418e-08
-2.13904e-08
2.8768e-08
-2.74867e-08
-2.185e-08
2.80367e-08
-3.77863e-08
-2.28535e-08
2.65553e-08
-4.55038e-08
-2.42679e-08
2.44786e-08
-5.01656e-08
-2.59271e-08
2.19995e-08
-5.15985e-08
-2.76437e-08
1.93356e-08
-4.99142e-08
-2.92258e-08
1.66866e-08
-4.54909e-08
-3.04813e-08
1.42323e-08
-3.89212e-08
-3.12143e-08
1.20955e-08
-3.09637e-08
-3.12085e-08
1.0341e-08
-2.24803e-08
-3.02017e-08
8.95297e-09
-1.4358e-08
-2.78576e-08
7.81147e-09
-7.42464e-09
-2.37265e-08
6.6596e-09
-2.37791e-09
-1.71856e-08
5.05891e-09
-7.43304e-09
2.38567e-09
-7.89172e-08
-1.83573e-07
-7.89164e-08
-1.07411e-07
-1.96176e-07
-9.39798e-08
-8.91427e-08
-1.6683e-07
-7.36008e-08
-5.21145e-08
-1.27004e-07
-4.12431e-08
-1.94663e-08
-1.03041e-07
-1.95682e-08
6.74496e-09
-8.61468e-08
-4.47423e-09
2.59918e-08
-7.53511e-08
5.68633e-09
3.89193e-08
-6.7751e-08
1.30701e-08
4.60543e-08
-6.20479e-08
1.88991e-08
4.78307e-08
-5.74241e-08
2.38334e-08
4.46881e-08
-5.35195e-08
2.81339e-08
3.71909e-08
-5.0224e-08
3.18302e-08
2.61089e-08
-4.75717e-08
3.48194e-08
1.2428e-08
-4.56567e-08
3.69614e-08
-2.68705e-09
-4.45664e-08
3.81252e-08
-1.79808e-08
-4.43414e-08
3.82447e-08
-3.22204e-08
-4.49481e-08
3.73377e-08
-4.43133e-08
-4.6272e-08
3.55113e-08
-5.34085e-08
-4.81236e-08
3.29508e-08
-5.89686e-08
-5.0258e-08
2.9891e-08
-6.07973e-08
-5.24013e-08
2.65863e-08
-5.90317e-08
-5.42702e-08
2.32788e-08
-5.41011e-08
-5.55821e-08
2.01703e-08
-4.66749e-08
-5.60401e-08
1.73996e-08
-3.75909e-08
-5.53247e-08
1.50321e-08
-2.77837e-08
-5.3048e-08
1.30391e-08
-1.8207e-08
-4.87103e-08
1.1276e-08
-9.75642e-09
-4.16225e-08
9.44539e-09
-3.28006e-09
-3.0708e-08
7.04604e-09
-1.40023e-08
3.2892e-09
-4.0942e-08
-1.01691e-07
-4.09407e-08
-5.19442e-08
-1.38792e-07
-4.63818e-08
-4.15079e-08
-1.41636e-07
-3.56299e-08
-1.9923e-08
-1.29367e-07
-1.92217e-08
2.1316e-09
-1.18992e-07
-6.10327e-09
2.1757e-08
-1.09979e-07
4.20718e-09
3.72686e-08
-1.03041e-07
1.21786e-08
4.80793e-08
-9.72873e-08
1.87255e-08
5.389e-08
-9.22917e-08
2.44332e-08
5.46224e-08
-8.77627e-08
2.96061e-08
5.04197e-08
-8.36255e-08
3.43087e-08
4.1703e-08
-7.99544e-08
3.84471e-08
2.91966e-08
-7.69082e-08
4.18429e-08
1.39162e-08
-7.46667e-08
4.42904e-08
-2.89163e-09
-7.33781e-08
4.56196e-08
-1.98643e-08
-7.31102e-08
4.57415e-08
-3.56538e-08
-7.38291e-08
4.46705e-08
-4.90641e-08
-7.5392e-08
4.25303e-08
-5.91682e-08
-7.75564e-08
3.95369e-08
-6.53866e-08
-8.0004e-08
3.59644e-08
-6.75146e-08
-8.2382e-08
3.21086e-08
-6.5708e-08
-8.43195e-08
2.82428e-08
-6.04383e-08
-8.54398e-08
2.45879e-08
-5.24197e-08
-8.53586e-08
2.12999e-08
-4.2536e-08
-8.36523e-08
1.84439e-08
-3.17631e-08
-7.98041e-08
1.59832e-08
-2.10926e-08
-7.31375e-08
1.37567e-08
-1.14848e-08
-6.26661e-08
1.14359e-08
-3.9315e-09
-4.67319e-08
8.47057e-09
-2.18766e-08
3.94278e-09
-1.55809e-08
-7.05306e-08
-1.55792e-08
-1.88766e-08
-1.17262e-07
-1.82345e-08
-1.19445e-08
-1.35529e-07
-1.30397e-08
2.28574e-09
-1.39128e-07
-4.46883e-09
1.83904e-08
-1.38708e-07
3.61153e-09
3.377e-08
-1.36197e-07
1.08382e-08
4.65408e-08
-1.33052e-07
1.72399e-08
5.5598e-08
-1.29474e-07
2.31295e-08
6.02155e-08
-1.25631e-07
2.87215e-08
6.00014e-08
-1.21632e-07
3.40833e-08
5.48961e-08
-1.17651e-07
3.91306e-08
4.52023e-08
-1.13927e-07
4.36665e-08
3.15968e-08
-1.10737e-07
4.74341e-08
1.51104e-08
-1.08345e-07
5.01649e-08
-2.95687e-09
-1.06955e-07
5.16442e-08
-2.11651e-08
-1.06663e-07
5.17612e-08
-3.80836e-08
-1.07438e-07
5.05279e-08
-5.24391e-08
-1.09117e-07
4.80805e-08
-6.32529e-08
-1.11412e-07
4.46694e-08
-6.99211e-08
-1.13947e-07
4.06115e-08
-7.22413e-08
-1.16305e-07
3.62433e-08
-7.03905e-08
-1.18037e-07
3.18668e-08
-6.48722e-08
-1.18696e-07
2.77375e-08
-5.64328e-08
-1.17813e-07
2.40145e-08
-4.59849e-08
-1.14866e-07
2.07661e-08
-3.45264e-08
-1.09212e-07
1.79493e-08
-2.30793e-08
-9.9976e-08
1.53914e-08
-1.26545e-08
-8.58322e-08
1.27412e-08
-4.36028e-09
-6.44315e-08
9.40543e-09
-3.06107e-08
4.37379e-09
-4.90429e-09
-6.07241e-08
-4.90216e-09
-3.44354e-09
-1.14168e-07
-4.5548e-09
3.8534e-09
-1.41886e-07
-9.39746e-10
1.56786e-08
-1.55314e-07
4.36043e-09
2.91038e-08
-1.62019e-07
9.88523e-09
4.21707e-08
-1.64647e-07
1.53824e-08
5.32141e-08
-1.64921e-07
2.08254e-08
6.10313e-08
-1.63596e-07
2.63046e-08
6.47448e-08
-1.61197e-07
3.18531e-08
6.38044e-08
-1.58094e-07
3.74023e-08
5.8029e-08
-1.54644e-07
4.27683e-08
4.76418e-08
-1.51212e-07
4.76721e-08
3.32838e-08
-1.48162e-07
5.1783e-08
1.5983e-08
-1.45824e-07
5.47798e-08
-2.92233e-09
-1.4445e-07
5.63999e-08
-2.19418e-08
-1.44152e-07
5.6508e-08
-3.95887e-08
-1.44905e-07
5.51134e-08
-5.45376e-08
-1.46536e-07
5.23683e-08
-6.57788e-08
-1.48731e-07
4.85601e-08
-7.26959e-08
-1.51074e-07
4.40436e-08
-7.50996e-08
-1.531e-07
3.91983e-08
-7.31899e-08
-1.54315e-07
3.43679e-08
-6.74983e-08
-1.54211e-07
2.98238e-08
-5.87922e-08
-1.52257e-07
2.57378e-08
-4.8001e-08
-1.47838e-07
2.21809e-08
-3.61328e-08
-1.40183e-07
1.91025e-08
-2.4224e-08
-1.28205e-07
1.632e-08
-1.33194e-08
-1.10205e-07
1.34679e-08
-4.59853e-09
-8.30763e-08
9.92388e-09
-3.98231e-08
4.61388e-09
-2.42842e-11
-6.06778e-08
-2.20114e-11
4.38075e-09
-1.20877e-07
2.30408e-09
1.24876e-08
-1.55488e-07
5.49532e-09
2.3477e-08
-1.75686e-07
9.38244e-09
3.5581e-08
-1.87737e-07
1.36144e-08
4.72962e-08
-1.94523e-07
1.81614e-08
5.72024e-08
-1.9787e-07
2.30428e-08
6.41465e-08
-1.9882e-07
2.82806e-08
6.72069e-08
-1.98084e-07
3.38267e-08
6.57762e-08
-1.962e-07
3.9537e-08
5.95999e-08
-1.93634e-07
4.51664e-08
4.88466e-08
-1.90839e-07
5.03805e-08
3.41223e-08
-1.88227e-07
5.47891e-08
1.64502e-08
-1.86166e-07
5.80135e-08
-2.82243e-09
-1.84926e-07
5.97487e-08
-2.21832e-08
-1.84638e-07
5.98466e-08
-4.01206e-08
-1.85279e-07
5.83116e-08
-5.52835e-08
-1.86678e-07
5.53041e-08
-6.66525e-08
-1.88506e-07
5.11445e-08
-7.36143e-08
-1.90347e-07
4.62346e-08
-7.59992e-08
-1.91708e-07
4.09934e-08
-7.40325e-08
-1.92074e-07
3.57926e-08
-6.82608e-08
-1.90902e-07
3.0919e-08
-5.94654e-08
-1.8761e-07
2.65578e-08
-4.85774e-08
-1.81508e-07
2.27819e-08
-3.65991e-08
-1.71697e-07
1.95358e-08
-2.45605e-08
-1.56871e-07
1.66277e-08
-1.35148e-08
-1.34934e-07
1.36837e-08
-4.66728e-09
-1.01993e-07
1.00695e-08
-4.91741e-08
4.6838e-09
2.14526e-09
-6.49705e-08
2.14742e-09
8.06293e-09
-1.32358e-07
5.56321e-09
1.66995e-08
-1.72781e-07
8.6568e-09
2.72873e-08
-1.98175e-07
1.19014e-08
3.85842e-08
-2.1449e-07
1.54564e-08
4.93716e-08
-2.24769e-07
1.94585e-08
5.84388e-08
-2.30917e-07
2.39796e-08
6.47176e-08
-2.34128e-07
2.90289e-08
6.73194e-08
-2.35225e-07
3.45388e-08
6.56143e-08
-2.34824e-07
4.03291e-08
5.93271e-08
-2.33461e-07
4.61142e-08
4.85753e-08
-2.31609e-07
5.1521e-08
3.39346e-08
-2.29698e-07
5.61119e-08
1.64026e-08
-2.28108e-07
5.94747e-08
-2.68673e-09
-2.27118e-07
6.12813e-08
-2.18402e-08
-2.26851e-07
6.13667e-08
-3.95607e-08
-2.27292e-07
5.9733e-08
-5.45101e-08
-2.28276e-07
5.6548e-08
-6.56779e-08
-2.29497e-07
5.21588e-08
-7.24733e-08
-2.30539e-07
4.69875e-08
-7.47477e-08
-2.30914e-07
4.14804e-08
-7.27453e-08
-2.3012e-07
3.60441e-08
-6.70195e-08
-2.27606e-07
3.09785e-08
-5.83534e-08
-2.22749e-07
2.64734e-08
-4.76554e-08
-2.14799e-07
2.25926e-08
-3.59014e-08
-2.02731e-07
1.92798e-08
-2.40916e-08
-1.85031e-07
1.63499e-08
-1.32542e-08
-1.59194e-07
1.34226e-08
-4.57464e-09
-1.20538e-07
9.86518e-09
-5.83402e-08
4.59146e-09
3.00913e-09
-7.09906e-08
3.01094e-09
9.46947e-09
-1.4567e-07
6.85177e-09
1.81343e-08
-1.91283e-07
9.83667e-09
2.82161e-08
-2.20966e-07
1.2709e-08
3.87212e-08
-2.40838e-07
1.58426e-08
4.86337e-08
-2.54139e-07
1.94575e-08
5.69187e-08
-2.62869e-07
2.36675e-08
6.25964e-08
-2.68297e-07
2.84911e-08
6.48472e-08
-2.71322e-07
3.38463e-08
6.30622e-08
-2.72593e-07
3.95534e-08
5.69429e-08
-2.7265e-07
4.53079e-08
4.65894e-08
-2.71968e-07
5.07133e-08
3.25371e-08
-2.70965e-07
5.53199e-08
1.57344e-08
-2.70006e-07
5.87007e-08
-2.53866e-09
-2.69345e-07
6.05007e-08
-2.08553e-08
-2.69107e-07
6.0573e-08
-3.77851e-08
-2.6928e-07
5.89186e-08
-5.20367e-08
-2.69712e-07
5.56875e-08
-6.26436e-08
-2.70123e-07
5.12325e-08
-6.9052e-08
-2.70127e-07
4.59971e-08
-7.11337e-08
-2.6928e-07
4.04477e-08
-6.91443e-08
-2.67092e-07
3.49818e-08
-6.36342e-08
-2.63026e-07
2.99097e-08
-5.5352e-08
-2.56452e-07
2.54205e-08
-4.51681e-08
-2.46562e-07
2.15795e-08
-3.40035e-08
-2.32229e-07
1.83334e-08
-2.28071e-08
-2.11714e-07
1.54869e-08
-1.25405e-08
-1.82141e-07
1.26807e-08
-4.32472e-09
-1.3807e-07
9.31639e-09
-6.7006e-08
4.341e-09
3.17416e-09
-7.73398e-08
3.1751e-09
9.48418e-09
-1.58952e-07
6.97238e-09
1.76472e-08
-2.09191e-07
9.74533e-09
2.68927e-08
-2.42505e-07
1.22931e-08
3.63926e-08
-2.65393e-07
1.50554e-08
4.52861e-08
-2.81327e-07
1.82943e-08
5.26782e-08
-2.92399e-07
2.21384e-08
5.77191e-08
-2.99946e-07
2.66082e-08
5.96607e-08
-3.04893e-07
3.16293e-08
5.7939e-08
-3.07893e-07
3.70221e-08
5.22701e-08
-3.09465e-07
4.24849e-08
4.27323e-08
-3.10065e-07
4.76347e-08
2.98078e-08
-3.10066e-07
5.20251e-08
1.43718e-08
-3.0981e-07
5.524e-08
-2.39609e-09
-3.09516e-07
5.69382e-08
-1.91897e-08
-3.0931e-07
5.69963e-08
-3.47005e-08
-3.09179e-07
5.54094e-08
-4.77293e-08
-3.08993e-07
5.23098e-08
-5.73948e-08
-3.08498e-07
4.80404e-08
-6.31913e-08
-3.07346e-07
4.30148e-08
-6.50047e-08
-3.05152e-07
3.76848e-08
-6.30995e-08
-3.01448e-07
3.24511e-08
-5.79958e-08
-2.95744e-07
2.76144e-08
-5.03874e-08
-2.87409e-07
2.33491e-08
-4.10722e-08
-2.75596e-07
1.97191e-08
-3.08942e-08
-2.59082e-07
1.6675e-08
-2.07022e-08
-2.35947e-07
1.40411e-08
-1.13726e-08
-2.02949e-07
1.14782e-08
-3.91953e-09
-1.53953e-07
8.42924e-09
-7.486e-08
3.93452e-09
2.92117e-09
-8.31823e-08
2.92127e-09
8.55988e-09
-1.70917e-07
6.32632e-09
1.57371e-08
-2.25114e-07
8.74531e-09
2.3753e-08
-2.61447e-07
1.09263e-08
3.19277e-08
-2.86861e-07
1.32934e-08
3.95397e-08
-3.05033e-07
1.60938e-08
4.585e-08
-3.18159e-07
1.94491e-08
5.01457e-08
-3.27635e-07
2.33927e-08
5.17686e-08
-3.3437e-07
2.78543e-08
5.02361e-08
-3.39028e-07
3.26672e-08
4.52916e-08
-3.42081e-07
3.756e-08
3.69775e-08
-3.4393e-07
4.21793e-08
2.57309e-08
-3.44929e-07
4.61096e-08
1.23006e-08
-3.45357e-07
4.89774e-08
-2.27012e-09
-3.45426e-07
5.04809e-08
-1.68512e-08
-3.45253e-07
5.05243e-08
-3.03067e-08
-3.44832e-07
4.91088e-08
-4.15938e-08
-3.44029e-07
4.63227e-08
-4.99306e-08
-3.42628e-07
4.24667e-08
-5.48754e-08
-3.40329e-07
3.79285e-08
-5.63647e-08
-3.36784e-07
3.31219e-08
-5.46246e-08
-3.31602e-07
2.84143e-08
-5.0126e-08
-3.24316e-07
2.40736e-08
-4.34871e-08
-3.14305e-07
2.02569e-08
-3.5402e-08
-3.00709e-07
1.70278e-08
-2.6593e-08
-2.82225e-07
1.43347e-08
-1.78004e-08
-2.56766e-07
1.20262e-08
-9.77043e-09
-2.20792e-07
9.81259e-09
-3.36148e-09
-1.6757e-07
7.2084e-09
-8.1596e-08
3.37454e-09
2.39682e-09
-8.79755e-08
2.39638e-09
6.96467e-09
-1.8064e-07
5.15467e-09
1.2727e-08
-2.37964e-07
7.08839e-09
1.91276e-08
-2.76666e-07
8.81902e-09
2.56224e-08
-3.04065e-07
1.07091e-08
3.16648e-08
-3.24043e-07
1.29678e-08
3.66777e-08
-3.38865e-07
1.56929e-08
4.00881e-08
-3.49967e-07
1.89224e-08
4.13762e-08
-3.58254e-07
2.25961e-08
4.01363e-08
-3.64362e-07
2.65739e-08
3.61502e-08
-3.68724e-07
3.0629e-08
2.94538e-08
-3.71682e-07
3.44484e-08
2.039e-08
-3.73549e-07
3.76842e-08
9.56477e-09
-3.74567e-07
4.0035e-08
-2.16761e-09
-3.74948e-07
4.12545e-08
-1.38974e-08
-3.74804e-07
4.12805e-08
-2.47135e-08
-3.74128e-07
4.0112e-08
-3.37491e-08
-3.72802e-07
3.78087e-08
-4.03835e-08
-3.70608e-07
3.46143e-08
-4.42738e-08
-3.67284e-07
3.08449e-08
-4.53696e-08
-3.62543e-07
2.68546e-08
-4.38724e-08
-3.56044e-07
2.29448e-08
-4.01746e-08
-3.47356e-07
1.93424e-08
-3.47864e-08
-3.35888e-07
1.6195e-08
-2.82631e-08
-3.20777e-07
1.35446e-08
-2.11969e-08
-3.00643e-07
1.13512e-08
-1.4166e-08
-2.73294e-07
9.49652e-09
-7.75893e-09
-2.34941e-07
7.74194e-09
-2.6662e-09
-1.78357e-07
5.69447e-09
-8.69393e-08
2.67709e-09
1.68438e-09
-9.13406e-08
1.68076e-09
4.8692e-09
-1.8742e-07
3.59519e-09
8.87537e-09
-2.46896e-07
4.92576e-09
1.3314e-08
-2.87235e-07
6.12983e-09
1.78273e-08
-3.16042e-07
7.46315e-09
2.2036e-08
-3.37328e-07
9.07633e-09
2.55411e-08
-3.53425e-07
1.10551e-08
2.79387e-08
-3.65781e-07
1.34159e-08
2.88605e-08
-3.75297e-07
1.61204e-08
2.80046e-08
-3.82565e-07
1.90592e-08
2.52005e-08
-3.8798e-07
2.20598e-08
2.04597e-08
-3.91846e-07
2.49044e-08
1.40069e-08
-3.94424e-07
2.73275e-08
6.2858e-09
-3.95935e-07
2.90887e-08
-2.08899e-09
-3.96569e-07
2.9996e-08
-1.04488e-08
-3.96448e-07
3.00038e-08
-1.81212e-08
-3.95568e-07
2.91121e-08
-2.44917e-08
-3.93797e-07
2.73658e-08
-2.91123e-08
-3.90952e-07
2.49651e-08
-3.1748e-08
-3.86793e-07
2.21447e-08
-3.23823e-08
-3.81076e-07
1.91673e-08
-3.11849e-08
-3.73515e-07
1.62732e-08
-2.84502e-08
-3.63716e-07
1.36254e-08
-2.45483e-08
-3.51112e-07
1.13214e-08
-1.98854e-08
-3.34842e-07
9.40203e-09
-1.48702e-08
-3.13493e-07
7.83489e-09
-9.90554e-09
-2.84782e-07
6.52354e-09
-5.41059e-09
-2.44748e-07
5.31274e-09
-1.8505e-09
-1.8584e-07
3.92242e-09
-9.06489e-08
1.85902e-09
8.41825e-10
-9.30202e-08
8.37735e-10
2.41914e-09
-1.90764e-07
1.76695e-09
4.41379e-09
-2.51305e-07
2.41425e-09
6.63462e-09
-2.92478e-07
3.02262e-09
8.91555e-09
-3.22054e-07
3.73123e-09
1.1072e-08
-3.44108e-07
4.62363e-09
1.29001e-08
-3.60997e-07
5.74447e-09
1.41825e-08
-3.74165e-07
7.10184e-09
1.47171e-08
-3.84512e-07
8.68032e-09
1.43142e-08
-3.92591e-07
1.04291e-08
1.2852e-08
-3.98766e-07
1.22486e-08
1.03225e-08
-4.03312e-07
1.39951e-08
6.82168e-09
-4.06423e-07
1.54995e-08
2.58522e-09
-4.08315e-07
1.66172e-08
-2.03153e-09
-4.0915e-07
1.71976e-08
-6.6223e-09
-4.09043e-07
1.71864e-08
-1.07837e-08
-4.07993e-07
1.65868e-08
-1.41566e-08
-4.05877e-07
1.54532e-08
-1.65097e-08
-4.02536e-07
1.39369e-08
-1.77379e-08
-3.9776e-07
1.2195e-08
-1.78615e-08
-3.91355e-07
1.04028e-08
-1.70117e-08
-3.83049e-07
8.68438e-09
-1.53712e-08
-3.72498e-07
7.14053e-09
-1.31383e-08
-3.59173e-07
5.82847e-09
-1.05534e-08
-3.4218e-07
4.75302e-09
-7.82318e-09
-3.20124e-07
3.90055e-09
-5.17171e-09
-2.90654e-07
3.2205e-09
-2.79832e-09
-2.49745e-07
2.62313e-09
-9.46178e-10
-1.89649e-07
1.95725e-09
-9.25477e-08
9.52658e-10
-7.83375e-11
-9.28581e-08
-8.37419e-11
-2.36357e-10
-1.90383e-07
-2.2347e-10
-4.26729e-10
-2.50799e-07
-3.15879e-10
-5.91603e-10
-2.91968e-07
-3.45892e-10
-7.00531e-10
-3.21639e-07
-3.05652e-10
-7.34472e-10
-3.43885e-07
-1.89337e-10
-6.92254e-10
-3.61048e-07
8.65733e-12
-5.92486e-10
-3.74564e-07
2.99572e-10
-4.72513e-10
-3.85314e-07
6.82527e-10
-3.84816e-10
-3.9383e-07
1.15089e-09
-3.86299e-10
-4.00453e-07
1.68858e-09
-5.41672e-10
-4.05429e-07
2.27277e-09
-8.8103e-10
-4.08923e-07
2.83976e-09
-1.38695e-09
-4.1111e-07
3.30035e-09
-1.98771e-09
-4.12104e-07
3.55477e-09
-2.55306e-09
-4.12006e-07
3.52761e-09
-2.95715e-09
-4.10814e-07
3.22511e-09
-3.12805e-09
-4.08429e-07
2.72211e-09
-3.06488e-09
-4.04733e-07
2.13339e-09
-2.7949e-09
-3.99568e-07
1.53865e-09
-2.39943e-09
-3.92754e-07
1.00285e-09
-1.93181e-09
-3.84073e-07
5.56319e-10
-1.45174e-09
-3.73184e-07
2.06217e-10
-1.01986e-09
-3.5956e-07
-4.50156e-11
-6.45788e-10
-3.42353e-07
-2.0133e-10
-3.57007e-10
-3.20135e-07
-2.7776e-10
-1.47015e-10
-2.90581e-07
-2.83119e-10
-2.71296e-11
-2.49638e-07
-2.26725e-10
1.40264e-11
-1.89567e-07
-1.22949e-10
-9.25245e-08
-9.21046e-12
-1.02894e-09
-9.07947e-08
-1.03444e-09
-2.98359e-09
-1.86152e-07
-2.27559e-09
-5.40707e-09
-2.45251e-07
-3.12409e-09
-8.0206e-09
-2.85547e-07
-3.80727e-09
-1.05732e-08
-3.14634e-07
-4.45219e-09
-1.28525e-08
-3.36474e-07
-5.13128e-09
-1.46464e-08
-3.53366e-07
-5.88874e-09
-1.57737e-08
-3.66712e-07
-6.72522e-09
-1.60932e-08
-3.77377e-07
-7.61771e-09
-1.55242e-08
-3.85888e-07
-8.51069e-09
-1.40626e-08
-3.9258e-07
-9.33519e-09
-1.17915e-08
-3.97673e-07
-1.00273e-08
-8.87523e-09
-4.01312e-07
-1.05278e-08
-5.52144e-09
-4.03636e-07
-1.08279e-08
-1.95087e-09
-4.04711e-07
-1.09638e-08
1.66105e-09
-4.04619e-07
-1.09984e-08
5.13138e-09
-4.03351e-07
-1.09332e-08
8.24412e-09
-4.00841e-07
-1.07004e-08
1.07698e-08
-3.97017e-07
-1.02412e-08
1.25354e-08
-3.91763e-07
-9.57084e-09
1.34442e-08
-3.84916e-07
-8.74664e-09
1.34899e-08
-3.76281e-07
-7.83738e-09
1.27436e-08
-3.65522e-07
-6.91551e-09
1.13368e-08
-3.52112e-07
-6.04162e-09
9.44237e-09
-3.35215e-07
-5.24349e-09
7.25027e-09
-3.1342e-07
-4.52289e-09
4.95921e-09
-2.84452e-07
-3.83727e-09
2.78992e-09
-2.44353e-07
-3.11557e-09
9.89616e-10
-1.85533e-07
-2.23436e-09
-9.05491e-08
-9.85778e-10
-1.96198e-09
-8.68627e-08
-1.97007e-09
-5.6768e-09
-1.78149e-07
-4.28867e-09
-1.02926e-08
-2.34753e-07
-5.88217e-09
-1.52955e-08
-2.73345e-07
-7.19927e-09
-2.02487e-08
-3.01169e-07
-8.51186e-09
-2.47253e-08
-3.22021e-07
-9.97626e-09
-2.83252e-08
-3.38101e-07
-1.16644e-08
-3.06692e-08
-3.50759e-07
-1.36087e-08
-3.14452e-08
-3.60833e-07
-1.5768e-08
-3.0443e-08
-3.68842e-07
-1.80481e-08
-2.75764e-08
-3.75137e-07
-2.03093e-08
-2.29501e-08
-3.79935e-07
-2.23639e-08
-1.6829e-08
-3.83395e-07
-2.40379e-08
-9.6446e-09
-3.85619e-07
-2.52006e-08
-1.91411e-09
-3.86666e-07
-2.57756e-08
5.86235e-09
-3.86574e-07
-2.5822e-08
1.31772e-08
-3.85336e-07
-2.53303e-08
1.95097e-08
-3.82932e-07
-2.42413e-08
2.44141e-08
-3.79308e-07
-2.2614e-08
2.76007e-08
-3.74362e-07
-2.05881e-08
2.89623e-08
-3.6794e-07
-1.8338e-08
2.85613e-08
-3.59834e-07
-1.60461e-08
2.6597e-08
-3.49697e-07
-1.38609e-08
2.33782e-08
-3.37011e-07
-1.18817e-08
1.92604e-08
-3.20943e-07
-1.0154e-08
1.46443e-08
-3.00157e-07
-8.64685e-09
9.92907e-09
-2.72448e-07
-7.28931e-09
5.52779e-09
-2.34027e-07
-5.92474e-09
1.94113e-09
-1.77661e-07
-4.28483e-09
-8.66703e-08
-1.93766e-09
-2.8345e-09
-8.11859e-08
-2.84227e-09
-8.18723e-09
-1.66633e-07
-6.16305e-09
-1.48472e-08
-2.1965e-07
-8.44359e-09
-2.20788e-08
-2.55762e-07
-1.03507e-08
-2.92618e-08
-2.8171e-07
-1.22763e-08
-3.57889e-08
-3.01037e-07
-1.4457e-08
-4.10764e-08
-3.15801e-07
-1.70128e-08
-4.45685e-08
-3.27284e-07
-1.99828e-08
-4.57971e-08
-3.36275e-07
-2.33298e-08
-4.44085e-08
-3.43309e-07
-2.69219e-08
-4.02595e-08
-3.48739e-07
-3.0547e-08
-3.34446e-08
-3.52813e-07
-3.39368e-08
-2.43358e-08
-3.55706e-07
-3.67972e-08
-1.35478e-08
-3.57547e-07
-3.88609e-08
-1.87329e-09
-3.58405e-07
-3.99355e-08
9.84977e-09
-3.58308e-07
-3.99883e-08
2.07789e-08
-3.57263e-07
-3.90021e-08
3.01042e-08
-3.55246e-07
-3.70111e-08
3.72021e-08
-3.52194e-07
-3.42119e-08
4.16838e-08
-3.47989e-07
-3.08546e-08
4.34358e-08
-3.42455e-07
-2.72367e-08
4.25874e-08
-3.35349e-07
-2.36366e-08
3.94723e-08
-3.26314e-07
-2.02678e-08
3.45573e-08
-3.1483e-07
-1.72661e-08
2.83786e-08
-3.00092e-07
-1.46721e-08
2.15074e-08
-2.80836e-07
-1.24495e-08
1.45386e-08
-2.55002e-07
-1.04765e-08
8.07498e-09
-2.19046e-07
-8.51706e-09
2.82292e-09
-1.66228e-07
-6.18143e-09
-8.10281e-08
-2.81928e-09
-3.60666e-09
-7.3965e-08
-3.61426e-09
-1.04057e-08
-1.5201e-07
-7.82363e-09
-1.88591e-08
-2.00489e-07
-1.07069e-08
-2.80511e-08
-2.33452e-07
-1.3118e-08
-3.71892e-08
-2.57014e-07
-1.55579e-08
-4.5515e-08
-2.74375e-07
-1.83372e-08
-5.22746e-08
-2.87423e-07
-2.16186e-08
-5.67705e-08
-2.97333e-07
-2.54556e-08
-5.8385e-08
-3.04868e-07
-2.9792e-08
-5.66641e-08
-3.10555e-07
-3.44744e-08
-5.13954e-08
-3.1476e-07
-3.92475e-08
-4.26695e-08
-3.17771e-07
-4.37677e-08
-3.0937e-08
-3.19809e-07
-4.763e-08
-1.69731e-08
-3.2105e-07
-5.04608e-08
-1.82505e-09
-3.216e-07
-5.19525e-08
1.33703e-08
-3.21505e-07
-5.19983e-08
2.74703e-08
-3.2077e-07
-5.05928e-08
3.94271e-08
-3.19365e-07
-4.7838e-08
4.84378e-08
-3.17173e-07
-4.40316e-08
5.40392e-08
-3.14044e-07
-3.95462e-08
5.61224e-08
-3.0975e-07
-3.47879e-08
5.48812e-08
-3.04006e-07
-3.01022e-08
5.07615e-08
-2.96446e-07
-2.57485e-08
4.43602e-08
-2.86544e-07
-2.18842e-08
3.63707e-08
-2.73535e-07
-1.85678e-08
2.75325e-08
-2.5625e-07
-1.57479e-08
1.85869e-08
-2.32796e-07
-1.32609e-08
1.03072e-08
-1.99971e-07
-1.07958e-08
3.60046e-09
-1.51668e-07
-7.85327e-09
-7.38314e-08
-3.59632e-09
-4.24071e-09
-6.5476e-08
-4.24832e-09
-1.22266e-08
-1.34841e-07
-9.18311e-09
-2.2156e-08
-1.7801e-07
-1.255e-08
-3.29494e-08
-2.07297e-07
-1.53622e-08
-4.36869e-08
-2.28067e-07
-1.82089e-08
-5.34749e-08
-2.43144e-07
-2.14422e-08
-6.14306e-08
-2.5421e-07
-2.52568e-08
-6.67271e-08
-2.62319e-07
-2.97178e-08
-6.86362e-08
-2.68192e-07
-3.47667e-08
-6.66219e-08
-2.7233e-07
-4.02401e-08
-6.04206e-08
-2.75126e-07
-4.5835e-08
-5.01317e-08
-2.76909e-07
-5.11515e-08
-3.62641e-08
-2.77954e-07
-5.57231e-08
-1.97308e-08
-2.78488e-07
-5.90948e-08
-1.76875e-09
-2.78673e-07
-6.08894e-08
1.62402e-08
-2.78583e-07
-6.0931e-08
3.29105e-08
-2.78228e-07
-5.92125e-08
4.69896e-08
-2.77534e-07
-5.59098e-08
5.75593e-08
-2.76348e-07
-5.13949e-08
6.40868e-08
-2.74457e-07
-4.61142e-08
6.6456e-08
-2.71583e-07
-4.05363e-08
6.4912e-08
-2.67399e-07
-3.50634e-08
5.9983e-08
-2.61515e-07
-3.00016e-08
5.23758e-08
-2.53419e-07
-2.55181e-08
4.29141e-08
-2.42401e-07
-2.16724e-08
3.24616e-08
-2.27396e-07
-1.84013e-08
2.19024e-08
-2.06727e-07
-1.55094e-08
1.21403e-08
-1.77566e-07
-1.26433e-08
4.23697e-09
-1.34548e-07
-9.21638e-09
-6.53622e-08
-4.23223e-09
-4.71342e-09
-5.60421e-08
-4.72046e-09
-1.35802e-08
-1.15783e-07
-1.01919e-08
-2.45979e-08
-1.53078e-07
-1.39142e-08
-3.65796e-08
-1.78312e-07
-1.70027e-08
-4.85027e-08
-1.96035e-07
-2.01092e-08
-5.93667e-08
-2.08652e-07
-2.36285e-08
-6.81962e-08
-2.17612e-07
-2.77689e-08
-7.40622e-08
-2.23856e-07
-3.25966e-08
-7.6163e-08
-2.28031e-07
-3.8061e-08
-7.39002e-08
-2.30622e-07
-4.39702e-08
-6.69884e-08
-2.32036e-07
-5.00019e-08
-5.55356e-08
-2.32621e-07
-5.57404e-08
-4.01041e-08
-2.32709e-07
-6.06764e-08
-2.17014e-08
-2.32568e-07
-6.43224e-08
-1.7037e-09
-2.32406e-07
-6.62646e-08
1.83378e-08
-2.32324e-07
-6.63009e-08
3.68702e-08
-2.32328e-07
-6.44327e-08
5.25057e-08
-2.32322e-07
-6.08476e-08
6.42304e-08
-2.32115e-07
-5.59575e-08
7.14545e-08
-2.31429e-07
-5.02525e-08
7.40584e-08
-2.29949e-07
-4.42385e-08
7.23144e-08
-2.27321e-07
-3.83333e-08
6.67988e-08
-2.23139e-07
-3.28608e-08
5.83104e-08
-2.16916e-07
-2.80147e-08
4.77584e-08
-2.08001e-07
-2.38479e-08
3.61115e-08
-1.95455e-07
-2.02948e-08
2.4356e-08
-1.77828e-07
-1.71437e-08
1.34955e-08
-1.52702e-07
-1.40031e-08
4.70983e-09
-1.15538e-07
-1.02247e-08
-5.59475e-08
-4.70488e-09
-5.00327e-09
-4.60291e-08
-5.00977e-09
-1.44049e-08
-9.55772e-08
-1.08039e-08
-2.60937e-08
-1.26666e-07
-1.47229e-08
-3.88136e-08
-1.4764e-07
-1.79528e-08
-5.14833e-08
-1.62185e-07
-2.11805e-08
-6.30322e-08
-1.72287e-07
-2.48164e-08
-7.24062e-08
-1.7916e-07
-2.90775e-08
-7.86165e-08
-1.83611e-07
-3.40351e-08
-8.08116e-08
-1.86215e-07
-3.96206e-08
-7.83647e-08
-1.87432e-07
-4.56374e-08
-7.09858e-08
-1.87648e-07
-5.1767e-08
-5.87893e-08
-1.87238e-07
-5.75801e-08
-4.23913e-08
-1.86538e-07
-6.25682e-08
-2.28546e-08
-1.85855e-07
-6.62498e-08
-1.62861e-09
-1.85416e-07
-6.8216e-08
1.96388e-08
-1.85344e-07
-6.82471e-08
3.92968e-08
-1.85644e-07
-6.63413e-08
5.58907e-08
-1.86203e-07
-6.27135e-08
6.83357e-08
-1.86791e-07
-5.77686e-08
7.60161e-08
-1.87122e-07
-5.19872e-08
7.87894e-08
-1.86847e-07
-4.58751e-08
7.69356e-08
-1.85603e-07
-3.98649e-08
7.10641e-08
-1.82993e-07
-3.42746e-08
6.20148e-08
-1.78564e-07
-2.93028e-08
5.07688e-08
-1.71735e-07
-2.50196e-08
3.83653e-08
-1.61697e-07
-2.13537e-08
2.58593e-08
-1.47233e-07
-1.80894e-08
1.43233e-08
-1.26356e-07
-1.48099e-08
4.99886e-09
-9.53791e-08
-1.08341e-08
-4.59545e-08
-4.99413e-09
-5.09055e-09
-3.58427e-08
-5.09587e-09
-1.46579e-08
-7.50295e-08
-1.09803e-08
-2.65776e-08
-9.98106e-08
-1.49362e-08
-3.95822e-08
-1.16468e-07
-1.81664e-08
-5.2561e-08
-1.27835e-07
-2.13711e-08
-6.44046e-08
-1.35478e-07
-2.49652e-08
-7.4017e-08
-1.40385e-07
-2.91625e-08
-8.03738e-08
-1.43225e-07
-3.40287e-08
-8.25963e-08
-1.44501e-07
-3.9491e-08
-8.00525e-08
-1.44619e-07
-4.53566e-08
-7.24581e-08
-1.43939e-07
-5.13033e-08
-5.99581e-08
-1.42817e-07
-5.69209e-08
-4.31806e-08
-1.41587e-07
-6.17288e-08
-2.32174e-08
-1.40551e-07
-6.52673e-08
-1.54229e-09
-1.39942e-07
-6.71492e-08
2.01711e-08
-1.39882e-07
-6.71755e-08
4.02473e-08
-1.40376e-07
-6.53449e-08
5.72044e-08
-1.41307e-07
-6.1853e-08
6.99426e-08
-1.42447e-07
-5.70823e-08
7.78167e-08
-1.43502e-07
-5.14939e-08
8.06685e-08
-1.44134e-07
-4.55642e-08
7.8766e-08
-1.43994e-07
-3.97063e-08
7.27344e-08
-1.42719e-07
-3.4242e-08
6.34303e-08
-1.39895e-07
-2.93652e-08
5.18743e-08
-1.35029e-07
-2.515e-08
3.91474e-08
-1.27441e-07
-2.15297e-08
2.63493e-08
-1.16145e-07
-1.82897e-08
1.45777e-08
-9.95699e-08
-1.50148e-08
5.08432e-09
-7.48784e-08
-1.10074e-08
-3.57895e-08
-5.08071e-09
-4.95278e-09
-2.59317e-08
-4.95818e-09
-1.42925e-08
-5.50202e-08
-1.06697e-08
-2.59857e-08
-7.36359e-08
-1.44816e-08
-3.88205e-08
-8.60723e-08
-1.75614e-08
-5.16896e-08
-9.4369e-08
-2.05969e-08
-6.34699e-08
-9.97006e-08
-2.39969e-08
-7.30494e-08
-1.02837e-07
-2.79686e-08
-7.93817e-08
-1.04326e-07
-3.25674e-08
-8.15973e-08
-1.04567e-07
-3.77183e-08
-7.90715e-08
-1.03912e-07
-4.32324e-08
-7.15363e-08
-1.02672e-07
-4.88029e-08
-5.91542e-08
-1.01158e-07
-5.40414e-08
-4.25616e-08
-9.96748e-08
-5.8505e-08
-2.2841e-08
-9.84915e-08
-6.17803e-08
-1.44148e-09
-9.78193e-08
-6.3522e-08
1.99934e-08
-9.77727e-08
-6.35444e-08
3.9818e-08
-9.83543e-08
-6.1846e-08
5.65779e-08
-9.94573e-08
-5.86096e-08
6.91785e-08
-1.00871e-07
-5.41767e-08
7.69709e-08
-1.0233e-07
-4.89645e-08
7.97833e-08
-1.03534e-07
-4.34129e-08
7.78702e-08
-1.04173e-07
-3.79075e-08
7.18372e-08
-1.0393e-07
-3.27567e-08
6.25521e-08
-1.0246e-07
-2.815e-08
5.10412e-08
-9.93548e-08
-2.41637e-08
3.84091e-08
-9.40683e-08
-2.07405e-08
2.57693e-08
-8.58311e-08
-1.76741e-08
1.42131e-08
-7.346e-08
-1.45537e-08
4.94619e-09
-5.49166e-08
-1.06949e-08
-2.58989e-08
-4.94443e-09
-4.56081e-09
-1.68058e-08
-4.56512e-09
-1.32437e-08
-3.65316e-08
-9.80575e-09
-2.42482e-08
-4.93723e-08
-1.32591e-08
-3.64634e-08
-5.78437e-08
-1.60135e-08
-4.88179e-08
-6.3293e-08
-1.87214e-08
-6.01957e-08
-6.655e-08
-2.17728e-08
-6.94834e-08
-6.81861e-08
-2.53635e-08
-7.5655e-08
-6.86127e-08
-2.95412e-08
-7.78504e-08
-6.8144e-08
-3.42281e-08
-7.5475e-08
-6.70472e-08
-3.92406e-08
-6.82833e-08
-6.55711e-08
-4.42922e-08
-5.64489e-08
-6.39659e-08
-4.90262e-08
-4.05919e-08
-6.24788e-08
-5.30531e-08
-2.17548e-08
-6.13284e-08
-5.60002e-08
-1.32124e-09
-6.06897e-08
-5.75632e-08
1.91443e-08
-6.0656e-08
-5.75823e-08
3.80754e-08
-6.12294e-08
-5.60561e-08
5.40834e-08
-6.23202e-08
-5.31451e-08
6.61174e-08
-6.37574e-08
-4.91476e-08
7.35442e-08
-6.53232e-08
-4.44339e-08
7.61821e-08
-6.67743e-08
-3.93975e-08
7.42608e-08
-6.78583e-08
-3.43937e-08
6.8368e-08
-6.83288e-08
-2.9708e-08
5.93482e-08
-6.7915e-08
-2.55248e-08
4.82193e-08
-6.6304e-08
-2.1922e-08
3.60844e-08
-6.30824e-08
-1.8851e-08
2.40475e-08
-5.76781e-08
-1.61161e-08
1.31703e-08
-4.92571e-08
-1.33257e-08
4.55343e-09
-3.64695e-08
-9.83033e-09
-1.67913e-08
-4.55414e-09
-3.87221e-09