/*--------------------------------*- C++ -*----------------------------------*\
| =========                 |                                                 |
| \\      /  F ield         | OpenFOAM: The Open Source CFD Toolbox           |
|  \\    /   O peration     | Version:  v1906                                 |
|   \\  /    A nd           | Web:      www.OpenFOAM.com                      |
|    \\/     M anipulation  |                                                 |
\*---------------------------------------------------------------------------*/
FoamFile
{
    version     2.0;
    format      ascii;
    class       surfaceScalarField;
    location    "9.6/oil";
    object      phi;
}
// * * * * * * * * * * * * * * * * * * * * * * * * * * * * * * * * * * * * * //

dimensions      [1 0 -1 0 0 0 0];
oriented        oriented;


internalField   nonuniform List<scalar> 
80688
(
-2.93823e-06
-2.9889e-06
-2.93823e-06
-1.32902e-06
-8.31546e-07
-7.77665e-07
-3.66411e-07
-4.83473e-07
-4.79136e-07
-1.8828e-07
-8.86263e-08
-8.95044e-08
-8.78474e-08
-5.00028e-08
-5.04297e-08
-4.29311e-08
-2.25115e-08
-2.24048e-08
-2.11876e-08
-1.10652e-08
-1.06782e-08
-1.02989e-08
-5.70482e-09
-5.18386e-09
-4.67938e-09
-3.10836e-09
-2.5111e-09
-1.78264e-09
-1.77589e-09
-1.12083e-09
-3.929e-10
-1.04905e-09
-3.40677e-10
1.02454e-10
-6.27062e-10
1.31722e-10
4.06548e-11
-3.69474e-10
4.31283e-10
-3.70248e-10
-2.11065e-10
6.21976e-10
-9.81894e-10
-1.19698e-10
7.31351e-10
-1.67717e-09
-7.8565e-11
7.73851e-10
-2.35996e-09
-7.67853e-11
7.5958e-10
-2.95205e-09
-1.06505e-10
6.98606e-10
-3.39471e-09
-1.60367e-10
6.03035e-10
-3.64943e-09
-2.30985e-10
4.85708e-10
-3.69908e-09
-3.10596e-10
3.60249e-10
-3.54584e-09
-3.92525e-10
2.39293e-10
-3.20932e-09
-4.70773e-10
1.34249e-10
-2.72425e-09
-5.40038e-10
5.49776e-11
-2.1371e-09
-5.9472e-10
7.57947e-12
-1.50596e-09
-6.27646e-10
-3.49182e-12
-8.99928e-10
-6.26739e-10
2.07162e-11
-3.96852e-10
-5.7128e-10
6.82111e-11
-7.79338e-11
-4.2578e-10
1.0687e-10
-1.6421e-10
8.62815e-11
-7.93114e-07
-1.40267e-06
-7.93113e-07
-4.81075e-07
-5.04042e-07
-6.39543e-07
-3.54065e-07
-3.32487e-07
-2.77995e-07
-1.91362e-07
-1.35232e-07
-1.16098e-07
-1.04086e-07
-7.45908e-08
-6.26885e-08
-5.72826e-08
-3.83417e-08
-3.09728e-08
-3.11413e-08
-2.16119e-08
-1.55946e-08
-1.64193e-08
-1.28276e-08
-7.59924e-09
-8.04992e-09
-8.17446e-09
-3.30326e-09
-3.39914e-09
-5.56765e-09
-8.59004e-10
-1.04125e-09
-4.03656e-09
6.29631e-10
-1.70502e-10
-3.09135e-09
1.59356e-09
-2.90708e-10
-2.48834e-09
2.23908e-09
-1.06033e-09
-2.10344e-09
2.66201e-09
-2.21564e-09
-1.87177e-09
2.90739e-09
-3.53803e-09
-1.75648e-09
3.00031e-09
-4.84212e-09
-1.7334e-09
2.96071e-09
-5.97555e-09
-1.78322e-09
2.81015e-09
-6.82342e-09
-1.88739e-09
2.57489e-09
-7.31063e-09
-2.02739e-09
2.28363e-09
-7.40346e-09
-2.18517e-09
1.96741e-09
-7.10669e-09
-2.34368e-09
1.65439e-09
-6.45928e-09
-2.48741e-09
1.36924e-09
-5.52847e-09
-2.60138e-09
1.13054e-09
-4.40479e-09
-2.66845e-09
9.50051e-10
-3.19722e-09
-2.66499e-09
8.29777e-10
-2.02817e-09
-2.55415e-09
7.58376e-10
-1.02586e-09
-2.27663e-09
7.03055e-10
-3.12031e-10
-1.73405e-09
5.94448e-10
-7.9643e-10
3.20195e-10
-4.96695e-07
-4.09284e-07
-4.96694e-07
-3.41476e-07
-3.71659e-07
-2.87603e-07
-2.4318e-07
-2.47075e-07
-1.83708e-07
-1.48491e-07
-1.31633e-07
-9.82883e-08
-9.00049e-08
-7.87265e-08
-5.43502e-08
-5.33126e-08
-4.64171e-08
-2.86168e-08
-3.07835e-08
-2.93064e-08
-1.48345e-08
-1.69727e-08
-1.95127e-08
-7.12561e-09
-8.6001e-09
-1.38712e-08
-2.67582e-09
-3.72789e-09
-1.04782e-08
3.83579e-11
-1.20181e-09
-8.36048e-09
1.79786e-09
-3.03843e-10
-6.98937e-09
3.00006e-09
-5.46197e-10
-6.08226e-09
3.83628e-09
-1.56129e-09
-5.48586e-09
4.39753e-09
-3.0442e-09
-5.11533e-09
4.72648e-09
-4.73039e-09
-4.91911e-09
4.84882e-09
-6.39001e-09
-4.86142e-09
4.78765e-09
-7.83086e-09
-4.91283e-09
4.57047e-09
-8.90778e-09
-5.04367e-09
4.23321e-09
-9.5254e-09
-5.22512e-09
3.81536e-09
-9.6424e-09
-5.42793e-09
3.35976e-09
-9.26586e-09
-5.6247e-09
2.90449e-09
-8.44706e-09
-5.78953e-09
2.48331e-09
-7.27181e-09
-5.89608e-09
2.11946e-09
-5.85331e-09
-5.91306e-09
1.82612e-09
-4.32419e-09
-5.79667e-09
1.60257e-09
-2.82742e-09
-5.48037e-09
1.42946e-09
-1.50713e-09
-4.8568e-09
1.25988e-09
-5.02556e-10
-3.74285e-09
1.00424e-09
-1.80932e-09
5.10339e-10
-9.96698e-08
-2.09946e-07
-9.96685e-08
-1.41165e-07
-2.08094e-07
-1.2207e-07
-1.27628e-07
-1.60826e-07
-9.97846e-08
-9.23883e-08
-1.04636e-07
-6.22367e-08
-6.27753e-08
-7.06939e-08
-3.76457e-08
-4.02928e-08
-4.75818e-08
-2.13178e-08
-2.4585e-08
-3.3615e-08
-1.13992e-08
-1.39642e-08
-2.48444e-08
-5.28914e-09
-7.06406e-09
-1.9341e-08
-1.43035e-09
-2.88074e-09
-1.57859e-08
1.12439e-09
-7.17519e-10
-1.34295e-08
2.90577e-09
-7.15242e-11
-1.18284e-08
4.19307e-09
-5.49863e-10
-1.07286e-08
5.12469e-09
-1.81783e-09
-9.98315e-09
5.76526e-09
-3.57082e-09
-9.50554e-09
6.14321e-09
-5.52942e-09
-9.23887e-09
6.27837e-09
-7.44259e-09
-9.14142e-09
6.19318e-09
-9.09677e-09
-9.17705e-09
5.9184e-09
-1.03288e-08
-9.30814e-09
5.49655e-09
-1.10333e-08
-9.49656e-09
4.97586e-09
-1.11651e-08
-9.70376e-09
4.40767e-09
-1.07358e-08
-9.89317e-09
3.83924e-09
-9.80547e-09
-1.00298e-08
3.30986e-09
-8.47258e-09
-1.00757e-08
2.84675e-09
-6.86338e-09
-9.98615e-09
2.46389e-09
-5.12202e-09
-9.69643e-09
2.1584e-09
-3.4013e-09
-9.10712e-09
1.90605e-09
-1.85355e-09
-8.05593e-09
1.65139e-09
-6.37125e-10
-6.25137e-09
1.2921e-09
-3.09296e-09
6.4652e-10
-5.40604e-08
-1.01827e-07
-5.40593e-08
-7.53408e-08
-1.21316e-07
-6.54971e-08
-7.26177e-08
-1.07978e-07
-5.55715e-08
-5.7418e-08
-8.17905e-08
-3.80453e-08
-4.17754e-08
-6.19209e-08
-2.44156e-08
-2.81782e-08
-4.67394e-08
-1.44396e-08
-1.76445e-08
-3.64318e-08
-7.71689e-09
-9.94221e-09
-2.93714e-08
-3.17526e-09
-4.6693e-09
-2.45812e-08
-3.27143e-11
-1.40895e-09
-2.12794e-08
2.23315e-09
1.96567e-10
-1.89684e-08
3.93342e-09
4.61725e-10
-1.73276e-08
5.23401e-09
-3.18893e-10
-1.61607e-08
6.21273e-09
-1.85674e-09
-1.53458e-08
6.90049e-09
-3.86229e-09
-1.48067e-08
7.30677e-09
-6.05519e-09
-1.44889e-08
7.44296e-09
-8.17537e-09
-1.43495e-08
7.32827e-09
-9.99713e-09
-1.43501e-08
6.99486e-09
-1.13476e-08
-1.44488e-08
6.49112e-09
-1.21155e-08
-1.46018e-08
5.87313e-09
-1.22559e-08
-1.47647e-08
5.20146e-09
-1.17853e-08
-1.48945e-08
4.5307e-09
-1.07724e-08
-1.4948e-08
3.90529e-09
-9.32503e-09
-1.48797e-08
3.35666e-09
-7.57863e-09
-1.46319e-08
2.89938e-09
-5.68485e-09
-1.41195e-08
2.52925e-09
-3.80205e-09
-1.32087e-08
2.21874e-09
-2.09038e-09
-1.16739e-08
1.9063e-09
-7.25619e-10
-9.09653e-09
1.48041e-09
-4.55623e-09
7.37657e-10
-2.35509e-08
-5.47256e-08
-2.355e-08
-3.62379e-08
-7.64928e-08
-3.21365e-08
-3.86896e-08
-7.61232e-08
-2.94029e-08
-3.3315e-08
-6.53494e-08
-2.18157e-08
-2.56743e-08
-5.48566e-08
-1.47049e-08
-1.78553e-08
-4.56791e-08
-8.87933e-09
-1.10993e-08
-3.86974e-08
-4.49034e-09
-5.78048e-09
-3.34858e-08
-1.20437e-09
-1.98665e-09
-2.96812e-08
1.30615e-09
3.46612e-10
-2.68975e-08
3.28487e-09
1.3478e-09
-2.48514e-08
4.88186e-09
1.18899e-09
-2.33403e-08
6.17154e-09
8.20207e-11
-2.22302e-08
7.17645e-09
-1.72805e-09
-2.1431e-08
7.8953e-09
-3.97057e-09
-2.08822e-08
8.318e-09
-6.37098e-09
-2.05355e-08
8.44701e-09
-8.66727e-09
-2.03512e-08
8.29794e-09
-1.06264e-08
-2.02931e-08
7.90207e-09
-1.20702e-08
-2.0319e-08
7.31402e-09
-1.28851e-08
-2.03846e-08
6.59767e-09
-1.30285e-08
-2.04442e-08
5.82286e-09
-1.25226e-08
-2.04516e-08
5.05117e-09
-1.14444e-08
-2.03612e-08
4.33506e-09
-9.91029e-09
-2.01216e-08
3.70775e-09
-8.063e-09
-1.96643e-08
3.18506e-09
-6.05938e-09
-1.88849e-08
2.76179e-09
-4.06279e-09
-1.76133e-08
2.4081e-09
-2.23932e-09
-1.55555e-08
2.05813e-09
-7.78529e-10
-1.21501e-08
1.59274e-09
-6.12802e-09
7.93266e-10
-1.07822e-08
-3.31617e-08
-1.07816e-08
-1.8132e-08
-5.31391e-08
-1.6004e-08
-2.06626e-08
-5.81618e-08
-1.54307e-08
-1.8727e-08
-5.52283e-08
-1.20567e-08
-1.47915e-08
-5.0482e-08
-8.31006e-09
-1.01529e-08
-4.54427e-08
-4.87501e-09
-5.77286e-09
-4.10992e-08
-1.97819e-09
-2.13193e-09
-3.75618e-08
4.3507e-10
5.13778e-10
-3.47982e-08
2.47137e-09
2.06397e-09
-3.26665e-08
4.21887e-09
2.5202e-09
-3.10334e-08
5.72576e-09
1.96593e-09
-2.97863e-08
7.00027e-09
5.56194e-10
-2.88419e-08
8.02143e-09
-1.49876e-09
-2.81381e-08
8.76206e-09
-3.94413e-09
-2.76302e-08
9.19336e-09
-6.51424e-09
-2.72755e-08
9.31013e-09
-8.94955e-09
-2.70401e-08
9.12431e-09
-1.10134e-08
-2.68946e-08
8.66537e-09
-1.25254e-08
-2.6801e-08
7.99414e-09
-1.33709e-08
-2.67197e-08
7.1806e-09
-1.35111e-08
-2.66084e-08
6.30445e-09
-1.29748e-08
-2.64245e-08
5.43661e-09
-1.18473e-08
-2.61232e-08
4.63448e-09
-1.02519e-08
-2.56518e-08
3.93485e-09
-8.33758e-09
-2.49333e-08
3.35468e-09
-6.26498e-09
-2.3845e-08
2.8876e-09
-4.20042e-09
-2.21797e-08
2.5018e-09
-2.31418e-09
-1.95705e-08
2.12883e-09
-8.03174e-10
-1.53056e-08
1.64459e-09
-7.7512e-09
8.20007e-10
-4.91292e-09
-2.33362e-08
-4.91263e-09
-8.81073e-09
-4.14356e-08
-7.80569e-09
-1.0512e-08
-4.86375e-08
-7.82293e-09
-9.73767e-09
-4.97251e-08
-6.27762e-09
-7.52973e-09
-4.84475e-08
-4.24244e-09
-4.63466e-09
-4.61966e-08
-2.14121e-09
-1.71906e-09
-4.38627e-08
-1.52089e-10
7.85332e-10
-4.17566e-08
1.69039e-09
2.58768e-09
-3.99956e-08
3.39506e-09
3.5256e-09
-3.85746e-08
4.97014e-09
3.5379e-09
-3.74491e-08
6.40337e-09
2.6574e-09
-3.65667e-08
7.66091e-09
1.00326e-09
-3.58773e-08
8.68958e-09
-1.23765e-09
-3.53383e-08
9.44111e-09
-3.82516e-09
-3.49143e-08
9.87161e-09
-6.50522e-09
-3.45691e-08
9.97366e-09
-9.02538e-09
-3.4275e-08
9.75503e-09
-1.11488e-08
-3.40115e-08
9.24031e-09
-1.26958e-08
-3.37491e-08
8.49499e-09
-1.35517e-08
-3.34596e-08
7.59581e-09
-1.36826e-08
-3.31091e-08
6.63164e-09
-1.31237e-08
-3.26637e-08
5.68031e-09
-1.19665e-08
-3.20848e-08
4.80431e-09
-1.03405e-08
-3.13219e-08
4.04412e-09
-8.39843e-09
-3.0293e-08
3.4177e-09
-6.30268e-09
-2.88587e-08
2.91794e-09
-4.21958e-09
-2.67741e-08
2.51134e-09
-2.32016e-09
-2.35979e-08
2.12797e-09
-8.02793e-10
-1.84651e-08
1.64209e-09
-9.37476e-09
8.20767e-10
-2.17177e-09
-1.89926e-08
-2.17185e-09
-4.06201e-09
-3.59174e-08
-3.62798e-09
-4.90094e-09
-4.40905e-08
-3.70808e-09
-4.37146e-09
-4.73239e-08
-2.93067e-09
-2.9075e-09
-4.81682e-08
-1.74325e-09
-9.33125e-10
-4.78024e-08
-3.6851e-10
1.10702e-09
-4.69832e-08
1.08034e-09
2.86576e-09
-4.60689e-08
2.55354e-09
4.07769e-09
-4.52336e-08
4.02604e-09
4.56757e-09
-4.45321e-08
5.46768e-09
4.25321e-09
-4.39672e-08
6.83248e-09
3.1407e-09
-4.35142e-08
8.06003e-09
1.3301e-09
-4.31415e-08
9.0748e-09
-1.00911e-09
-4.28162e-08
9.81712e-09
-3.64945e-09
-4.25089e-08
1.0235e-08
-6.35347e-09
-4.2186e-08
1.03209e-08
-8.8822e-09
-4.1826e-08
1.00797e-08
-1.10037e-08
-4.14185e-08
9.52859e-09
-1.2541e-08
-4.09475e-08
8.73573e-09
-1.3382e-08
-4.03971e-08
7.77843e-09
-1.34969e-08
-3.97467e-08
6.75258e-09
-1.29259e-08
-3.89785e-08
5.74384e-09
-1.17647e-08
-3.80652e-08
4.81922e-09
-1.01472e-08
-3.69607e-08
4.02132e-09
-8.22563e-09
-3.55818e-08
3.36725e-09
-6.16065e-09
-3.37736e-08
2.84985e-09
-4.11514e-09
-3.12563e-08
2.43666e-09
-2.25624e-09
-2.75138e-08
2.05697e-09
-7.77431e-10
-2.15301e-08
1.58617e-09
-1.09476e-08
7.95457e-10
-8.64917e-10
-1.72622e-08
-8.65443e-10
-1.60978e-09
-3.36771e-08
-1.49546e-09
-1.81686e-09
-4.23778e-08
-1.50566e-09
-1.26081e-09
-4.68326e-08
-1.04733e-09
-1.2721e-10
-4.90199e-08
-2.81924e-10
1.33788e-09
-4.99576e-08
6.90101e-10
2.83762e-09
-5.02909e-08
1.80798e-09
4.10116e-09
-5.03635e-08
3.03115e-09
4.90489e-09
-5.03608e-08
4.3235e-09
5.08599e-09
-5.03548e-08
5.64157e-09
4.55798e-09
-5.03615e-08
6.92233e-09
3.3198e-09
-5.03666e-08
8.09058e-09
1.46013e-09
-5.03422e-08
9.06045e-09
-8.65756e-10
-5.02584e-08
9.76806e-09
-3.44554e-09
-5.00847e-08
1.01555e-08
-6.06461e-09
-4.97919e-08
1.02251e-08
-8.50572e-09
-4.93643e-08
9.97939e-09
-1.05466e-08
-4.87991e-08
9.42137e-09
-1.20179e-08
-4.80936e-08
8.61737e-09
-1.28121e-08
-4.72473e-08
7.64448e-09
-1.29029e-08
-4.62595e-08
6.60354e-09
-1.23335e-08
-4.51278e-08
5.57999e-09
-1.12021e-08
-4.38412e-08
4.64456e-09
-9.63968e-09
-4.23638e-08
3.84068e-09
-7.7953e-09
-4.06124e-08
3.18617e-09
-5.82286e-09
-3.84203e-08
2.67429e-09
-3.87843e-09
-3.54719e-08
2.27123e-09
-2.11883e-09
-3.11837e-08
1.91034e-09
-7.26288e-10
-2.43971e-08
1.47448e-09
-1.24172e-08
7.43322e-10
-2.48612e-10
-1.67638e-08
-2.49778e-10
-3.84922e-10
-3.31056e-08
-4.35132e-10
-2.18151e-10
-4.21722e-08
-3.72305e-10
3.82153e-10
-4.7378e-08
-5.48675e-11
1.32965e-09
-5.04514e-08
4.84085e-10
2.47198e-09
-5.23136e-08
1.21372e-09
3.60397e-09
-5.35293e-08
2.10636e-09
4.52189e-09
-5.44141e-08
3.13268e-09
5.04156e-09
-5.5139e-08
4.25852e-09
5.02239e-09
-5.57714e-08
5.43584e-09
4.38726e-09
-5.63224e-08
6.59606e-09
3.13382e-09
-5.67745e-08
7.66139e-09
1.34291e-09
-5.70939e-08
8.54259e-09
-8.44033e-10
-5.72502e-08
9.17877e-09
-3.23492e-09
-5.72101e-08
9.5163e-09
-5.64527e-09
-5.69512e-08
9.56963e-09
-7.88719e-09
-5.64612e-08
9.33881e-09
-9.75522e-09
-5.57431e-08
8.81211e-09
-1.10948e-08
-5.48043e-08
8.05023e-09
-1.18048e-08
-5.36578e-08
7.1205e-09
-1.18612e-08
-5.23247e-08
6.12164e-09
-1.13098e-08
-5.08193e-08
5.14005e-09
-1.02454e-08
-4.91513e-08
4.24568e-09
-8.79192e-09
-4.72969e-08
3.47973e-09
-7.08863e-09
-4.51755e-08
2.85983e-09
-5.27844e-09
-4.26104e-08
2.37993e-09
-3.50232e-09
-3.92578e-08
2.00977e-09
-1.90409e-09
-3.44694e-08
1.68747e-09
-6.48393e-10
-2.69582e-08
1.30542e-09
-1.37292e-08
6.63552e-10
1.70336e-11
-1.6796e-08
1.51544e-11
1.53663e-10
-3.32789e-08
3.66392e-11
4.75348e-10
-4.2628e-08
1.34135e-10
1.04669e-09
-4.83221e-08
3.72782e-10
1.82201e-09
-5.1998e-08
7.71243e-10
2.70078e-09
-5.45224e-08
1.33005e-09
3.54151e-09
-5.64095e-08
2.03951e-09
4.193e-09
-5.7948e-08
2.88236e-09
4.50828e-09
-5.92827e-08
3.82843e-09
4.37487e-09
-6.04701e-08
4.83209e-09
3.72896e-09
-6.15055e-08
5.82902e-09
2.56692e-09
-6.23579e-08
6.74542e-09
9.64617e-10
-6.29882e-08
7.49657e-09
-9.57687e-10
-6.33588e-08
8.03089e-09
-3.03258e-09
-6.34393e-08
8.30409e-09
-5.1107e-09
-6.32145e-08
8.34144e-09
-7.03892e-09
-6.26761e-08
8.14318e-09
-8.63959e-09
-6.18237e-08
7.6812e-09
-9.77549e-09
-6.0674e-08
7.00561e-09
-1.03566e-08
-5.92525e-08
6.17581e-09
-1.03682e-08
-5.75961e-08
5.28295e-09
-9.85033e-09
-5.57436e-08
4.40648e-09
-8.8905e-09
-5.3721e-08
3.60983e-09
-7.60109e-09
-5.15168e-08
2.93042e-09
-6.10477e-09
-4.90569e-08
2.38511e-09
-4.52542e-09
-4.61571e-08
1.96739e-09
-2.98716e-09
-4.24477e-08
1.65164e-09
-1.61342e-09
-3.72292e-08
1.38604e-09
-5.43485e-10
-2.91068e-08
1.07864e-09
-1.48288e-08
5.56125e-10
9.47872e-11
-1.69828e-08
9.20831e-11
2.88907e-10
-3.36454e-08
1.72475e-10
5.92236e-10
-4.31934e-08
2.62045e-10
1.0383e-09
-4.92011e-08
4.32877e-10
1.59905e-09
-5.32767e-08
7.17982e-10
2.21297e-09
-5.62651e-08
1.12878e-09
2.78489e-09
-5.86445e-08
1.66308e-09
3.20569e-09
-6.06803e-08
2.31151e-09
3.36861e-09
-6.2495e-08
3.04943e-09
3.1864e-09
-6.41268e-08
3.83889e-09
2.60983e-09
-6.55544e-08
4.62554e-09
1.63907e-09
-6.67317e-08
5.34458e-09
3.35244e-10
-6.76101e-08
5.92579e-09
-1.20516e-09
-6.81495e-08
6.33118e-09
-2.84777e-09
-6.83255e-08
6.52887e-09
-4.48054e-09
-6.81317e-08
6.54995e-09
-5.98891e-09
-6.75616e-08
6.39389e-09
-7.22687e-09
-6.66121e-08
6.02638e-09
-8.08668e-09
-6.52988e-08
5.48471e-09
-8.49816e-09
-6.36552e-08
4.81416e-09
-8.45039e-09
-6.17357e-08
4.09189e-09
-7.98024e-09
-5.95966e-08
3.38284e-09
-7.16182e-09
-5.72796e-08
2.7402e-09
-6.08887e-09
-5.4787e-08
2.19732e-09
-4.86062e-09
-5.20513e-08
1.76615e-09
-3.57941e-09
-4.88802e-08
1.44187e-09
-2.34329e-09
-4.48892e-08
1.20534e-09
-1.25082e-09
-3.93374e-08
1.01577e-09
-4.1424e-10
-3.07447e-08
8.01341e-10
-1.56671e-08
4.24064e-10
6.65052e-11
-1.71118e-08
6.24414e-11
1.76478e-10
-3.38618e-08
1.06408e-10
3.34904e-10
-4.35022e-08
1.50429e-10
5.64668e-10
-4.96793e-08
2.48484e-10
8.5846e-10
-5.39959e-08
4.25392e-10
1.18322e-09
-5.72811e-08
6.91228e-10
1.48299e-09
-5.99925e-08
1.04827e-09
1.68915e-09
-6.2375e-08
1.4886e-09
1.73262e-09
-6.45343e-08
1.9958e-09
1.55361e-09
-6.64898e-08
2.54202e-09
1.11723e-09
-6.82058e-08
3.08775e-09
4.22059e-10
-6.96258e-08
3.58925e-09
-4.93016e-10
-7.06908e-08
3.99574e-09
-1.55926e-09
-7.136e-08
4.27674e-09
-2.68436e-09
-7.16096e-08
4.40919e-09
-3.7886e-09
-7.14415e-08
4.41409e-09
-4.7904e-09
-7.08513e-08
4.2915e-09
-5.58957e-09
-6.98299e-08
4.01697e-09
-6.1118e-09
-6.83984e-08
3.62175e-09
-6.31186e-09
-6.65943e-08
3.13926e-09
-6.18823e-09
-6.44847e-08
2.62531e-09
-5.7738e-09
-6.21398e-08
2.12881e-09
-5.1251e-09
-5.96141e-08
1.68585e-09
-4.31069e-09
-5.69188e-08
1.31736e-09
-3.40331e-09
-5.39911e-08
1.03244e-09
-2.47424e-09
-5.06363e-08
8.27083e-10
-1.5929e-09
-4.64574e-08
6.86896e-10
-8.31027e-10
-4.0687e-08
5.87716e-10
-2.64491e-10
-3.17931e-08
4.81878e-10
-1.62031e-08
2.71506e-10
-2.3403e-11
-1.706e-08
-2.83077e-11
-8.81983e-11
-3.37161e-08
-8.08882e-11
-1.62951e-10
-4.33185e-08
-1.08969e-10
-2.18324e-10
-4.95296e-08
-9.42773e-11
-2.41027e-10
-5.39441e-08
-2.90121e-11
-2.34719e-10
-5.73765e-08
8.90607e-11
-2.1867e-10
-6.02668e-08
2.58298e-10
-2.22584e-10
-6.28438e-08
4.72681e-10
-2.78794e-10
-6.52018e-08
7.23716e-10
-4.20012e-10
-6.7347e-08
9.98435e-10
-6.68361e-10
-6.92347e-08
1.27724e-09
-1.02709e-09
-7.08022e-08
1.53519e-09
-1.48309e-09
-7.19807e-08
1.7459e-09
-2.00398e-09
-7.27316e-08
1.89245e-09
-2.54245e-09
-7.30298e-08
1.95866e-09
-3.05074e-09
-7.28805e-08
1.94724e-09
-3.48193e-09
-7.22806e-08
1.86048e-09
-3.78248e-09
-7.12217e-08
1.69233e-09
-3.92028e-09
-6.97277e-08
1.46717e-09
-3.88056e-09
-6.7841e-08
1.20692e-09
-3.67203e-09
-6.56371e-08
9.43895e-10
-3.32205e-09
-6.31896e-08
6.998e-10
-2.86645e-09
-6.05622e-08
4.92512e-10
-2.34247e-09
-5.77741e-08
3.31306e-10
-1.79297e-09
-5.47576e-08
2.17046e-10
-1.25477e-09
-5.1323e-08
1.48496e-10
-7.68145e-10
-4.70643e-08
1.20312e-10
-3.7006e-10
-4.12076e-08
1.2252e-10
-1.01061e-10
-3.21966e-08
1.34516e-10
-1.64098e-08
1.05626e-10
-1.46746e-10
-1.67607e-08
-1.52566e-10
-4.37244e-10
-3.30897e-08
-3.35873e-10
-8.00912e-10
-4.25014e-08
-4.53457e-10
-1.18545e-09
-4.86164e-08
-5.2871e-10
-1.55528e-09
-5.2998e-08
-5.76345e-10
-1.8846e-09
-5.64408e-08
-6.06293e-10
-2.15745e-09
-5.93689e-08
-6.25094e-10
-2.36576e-09
-6.19996e-08
-6.35834e-10
-2.50814e-09
-6.44189e-08
-6.40521e-10
-2.58846e-09
-6.66275e-08
-6.39201e-10
-2.61517e-09
-6.85784e-08
-6.29537e-10
-2.60161e-09
-7.02066e-08
-6.09213e-10
-2.56114e-09
-7.14415e-08
-5.7964e-10
-2.49978e-09
-7.22395e-08
-5.53418e-10
-2.41767e-09
-7.25691e-08
-5.42763e-10
-2.29793e-09
-7.24322e-08
-5.68016e-10
-2.12631e-09
-7.18276e-08
-6.24576e-10
-1.9e-09
-7.07528e-08
-6.95124e-10
-1.63133e-09
-6.92407e-08
-7.5565e-10
-1.33728e-09
-6.73418e-08
-7.93235e-10
-1.04144e-09
-6.51307e-08
-8.02221e-10
-7.59391e-10
-6.26871e-08
-7.84544e-10
-5.04625e-10
-6.00707e-08
-7.46313e-10
-2.88571e-10
-5.72974e-08
-6.92681e-10
-1.13744e-10
-5.43052e-08
-6.27213e-10
1.35407e-11
-5.08985e-08
-5.51791e-10
9.02723e-11
-4.66774e-08
-4.63634e-10
1.08709e-10
-4.08696e-08
-3.56452e-10
6.83827e-11
-3.19333e-08
-2.22934e-10
-1.62757e-08
-6.56784e-11
-2.84709e-10
-1.61849e-08
-2.91072e-10
-8.25993e-10
-3.19277e-08
-6.20753e-10
-1.49995e-09
-4.09926e-08
-8.34774e-10
-2.23154e-09
-4.68833e-08
-1.0015e-09
-2.95785e-09
-5.11118e-08
-1.15981e-09
-3.62604e-09
-5.44395e-08
-1.33309e-09
-4.18623e-09
-5.72731e-08
-1.53559e-09
-4.59515e-09
-5.98197e-08
-1.77097e-09
-4.81792e-09
-6.21614e-08
-2.03471e-09
-4.83228e-09
-6.43009e-08
-2.31221e-09
-4.6345e-09
-6.61956e-08
-2.58055e-09
-4.24109e-09
-6.77832e-08
-2.81679e-09
-3.69163e-09
-6.89963e-08
-2.99467e-09
-3.03028e-09
-6.97884e-08
-3.11251e-09
-2.30554e-09
-7.01217e-08
-3.17216e-09
-1.53789e-09
-6.99924e-08
-3.20743e-09
-7.52201e-10
-6.93998e-08
-3.21353e-09
3.98784e-12
-6.83517e-08
-3.1573e-09
6.75915e-10
-6.68892e-08
-3.02349e-09
1.21501e-09
-6.5067e-08
-2.81385e-09
1.59214e-09
-6.29564e-08
-2.55147e-09
1.79882e-09
-6.0632e-08
-2.26174e-09
1.84513e-09
-5.8146e-08
-1.97097e-09
1.7534e-09
-5.55071e-08
-1.69856e-09
1.55263e-09
-5.26506e-08
-1.45387e-09
1.2722e-09
-4.93816e-08
-1.23653e-09
9.39303e-10
-4.53104e-08
-1.03411e-09
5.81767e-10
-3.96876e-08
-8.24413e-10
2.35345e-10
-3.1014e-08
-5.72964e-10
-1.58066e-08
-2.33753e-10
-4.22573e-10
-1.53327e-08
-4.29697e-10
-1.21352e-09
-3.02312e-08
-9.05485e-10
-2.19484e-09
-3.87962e-08
-1.2151e-09
-3.2634e-09
-4.43474e-08
-1.46728e-09
-4.33378e-09
-4.83151e-08
-1.72631e-09
-5.32322e-09
-5.14204e-08
-2.02971e-09
-6.15333e-09
-5.40471e-08
-2.39595e-09
-6.7485e-09
-5.63919e-08
-2.83262e-09
-7.04436e-09
-5.85356e-08
-3.32993e-09
-6.99562e-09
-6.04857e-08
-3.86389e-09
-6.5843e-09
-6.22114e-08
-4.39552e-09
-5.83067e-09
-6.36591e-08
-4.87768e-09
-4.79283e-09
-6.47728e-08
-5.2613e-09
-3.55089e-09
-6.55035e-08
-5.52681e-09
-2.19999e-09
-6.5814e-08
-5.65853e-09
-8.03108e-10
-6.56893e-08
-5.69995e-09
5.7195e-10
-6.51305e-08
-5.64435e-09
1.82732e-09
-6.41592e-08
-5.44789e-09
2.87147e-09
-6.28186e-08
-5.11468e-09
3.63231e-09
-6.11631e-08
-4.66475e-09
4.07682e-09
-5.92557e-08
-4.14514e-09
4.20697e-09
-5.7158e-08
-3.60413e-09
4.05445e-09
-5.49086e-08
-3.0849e-09
3.67117e-09
-5.25078e-08
-2.61601e-09
3.11604e-09
-4.98843e-08
-2.21112e-09
2.45163e-09
-4.68521e-08
-1.865e-09
1.73564e-09
-4.30347e-08
-1.55975e-09
1.02433e-09
-3.77187e-08
-1.25761e-09
3.91728e-10
-2.94839e-08
-8.97417e-10
-1.50244e-08
-3.90505e-10
-5.4995e-10
-1.42256e-08
-5.57065e-10
-1.57021e-09
-2.80439e-08
-1.16708e-09
-2.83324e-09
-3.59707e-08
-1.56244e-09
-4.20838e-09
-4.10825e-08
-1.88979e-09
-5.58744e-09
-4.47022e-08
-2.23385e-09
-6.86383e-09
-4.74989e-08
-2.6451e-09
-7.93303e-09
-4.98285e-08
-3.14939e-09
-8.69278e-09
-5.18775e-08
-3.75461e-09
-9.05439e-09
-5.37237e-08
-4.45032e-09
-8.94939e-09
-5.53857e-08
-5.20502e-09
-8.3504e-09
-5.68441e-08
-5.96631e-09
-7.27544e-09
-5.80613e-08
-6.67274e-09
-5.79903e-09
-5.89943e-08
-7.25488e-09
-4.02806e-09
-5.96033e-08
-7.67112e-09
-2.098e-09
-5.98572e-08
-7.88688e-09
-1.20888e-10
-5.97364e-08
-7.93008e-09
1.78705e-09
-5.92451e-08
-7.79334e-09
3.48352e-09
-5.84087e-08
-7.44698e-09
4.85021e-09
-5.72661e-08
-6.91917e-09
5.79854e-09
-5.58642e-08
-6.24722e-09
6.2942e-09
-5.42514e-08
-5.49995e-09
6.34936e-09
-5.2471e-08
-4.74223e-09
6.01683e-09
-5.05468e-08
-4.02926e-09
5.37302e-09
-4.84676e-08
-3.39639e-09
4.50434e-09
-4.61585e-08
-2.8571e-09
3.4985e-09
-4.3441e-08
-2.40534e-09
2.44174e-09
-3.99631e-08
-2.01481e-09
1.41759e-09
-3.50603e-08
-1.63424e-09
5.29794e-10
-2.74149e-08
-1.18126e-09
-1.39662e-08
-5.28322e-10
-6.59032e-10
-1.29007e-08
-6.65923e-10
-1.87518e-09
-2.54368e-08
-1.39095e-09
-3.37606e-09
-3.26121e-08
-1.85768e-09
-5.00906e-09
-3.72061e-08
-2.2434e-09
-6.6445e-09
-4.04166e-08
-2.65017e-09
-8.15703e-09
-4.28466e-08
-3.13973e-09
-9.41949e-09
-4.48221e-08
-3.74391e-09
-1.03107e-08
-4.65142e-08
-4.4722e-09
-1.07208e-08
-4.80029e-08
-5.31062e-09
-1.05672e-08
-4.93151e-08
-6.22419e-09
-9.81209e-09
-5.04449e-08
-7.15436e-09
-8.47173e-09
-5.13729e-08
-8.02884e-09
-6.63005e-09
-5.20736e-08
-8.76235e-09
-4.415e-09
-5.25221e-08
-9.29626e-09
-1.997e-09
-5.26973e-08
-9.57793e-09
4.67176e-10
-5.25827e-08
-9.61781e-09
2.81651e-09
-5.21831e-08
-9.41134e-09
4.87571e-09
-5.15233e-08
-8.9446e-09
6.5022e-09
-5.06297e-08
-8.26292e-09
7.59832e-09
-4.95372e-08
-7.42316e-09
8.13143e-09
-4.82746e-08
-6.50985e-09
8.12333e-09
-4.68659e-08
-5.59696e-09
7.6428e-09
-4.53203e-08
-4.74592e-09
6.78431e-09
-4.36142e-08
-3.99491e-09
5.65604e-09
-4.16702e-08
-3.36006e-09
4.36896e-09
-3.93208e-08
-2.83305e-09
3.0291e-09
-3.62419e-08
-2.38136e-09
1.74358e-09
-3.18326e-08
-1.94212e-09
6.44676e-10
-2.49006e-08
-1.4154e-09
-1.2679e-08
-6.42576e-10
-7.44336e-10
-1.14055e-08
-7.50789e-10
-2.11331e-09
-2.25032e-08
-1.56461e-09
-3.79939e-09
-2.8842e-08
-2.08403e-09
-5.62959e-09
-3.28654e-08
-2.51044e-09
-7.45944e-09
-3.5628e-08
-2.95878e-09
-9.14748e-09
-3.76623e-08
-3.49627e-09
-1.05514e-08
-3.92592e-08
-4.15888e-09
-1.15346e-08
-4.05738e-08
-4.95725e-09
-1.1974e-08
-4.16861e-08
-5.87735e-09
-1.17772e-08
-4.26282e-08
-6.88364e-09
-1.08993e-08
-4.34102e-08
-7.91258e-09
-9.3566e-09
-4.40297e-08
-8.88584e-09
-7.23732e-09
-4.44808e-08
-9.71207e-09
-4.68599e-09
-4.4754e-08
-1.03194e-08
-1.89613e-09
-4.48423e-08
-1.06448e-08
9.3811e-10
-4.47367e-08
-1.06803e-08
3.61935e-09
-4.44423e-08
-1.0422e-08
5.94641e-09
-4.39754e-08
-9.87495e-09
7.76428e-09
-4.33506e-08
-9.09699e-09
8.96949e-09
-4.25853e-08
-8.15709e-09
9.53008e-09
-4.16893e-08
-7.14598e-09
9.4753e-09
-4.06677e-08
-6.14339e-09
8.88402e-09
-3.95141e-08
-5.21493e-09
7.86412e-09
-3.81957e-08
-4.3986e-09
6.53971e-09
-3.66359e-08
-3.70993e-09
5.03703e-09
-3.46793e-08
-3.13883e-09
3.48057e-09
-3.2037e-08
-2.64844e-09
1.99464e-09
-2.81764e-08
-2.17026e-09
7.32488e-10
-2.20468e-08
-1.59165e-09
-1.12168e-08
-7.29677e-10
-8.03948e-10
-9.79191e-09
-8.09678e-10
-2.27854e-09
-1.93444e-08
-1.68423e-09
-4.09011e-09
-2.47923e-08
-2.23816e-09
-6.05299e-09
-2.82161e-08
-2.68645e-09
-8.01105e-09
-3.05178e-08
-3.15211e-09
-9.81112e-09
-3.21547e-08
-3.70754e-09
-1.13019e-08
-3.33787e-08
-4.38979e-09
-1.23363e-08
-3.433e-08
-5.2093e-09
-1.27852e-08
-3.50834e-08
-6.15384e-09
-1.25503e-08
-3.56778e-08
-7.18532e-09
-1.15846e-08
-3.61353e-08
-8.2406e-09
-9.9043e-09
-3.64674e-08
-9.24258e-09
-7.60098e-09
-3.66863e-08
-1.00978e-08
-4.82825e-09
-3.67972e-08
-1.07295e-08
-1.79463e-09
-3.68061e-08
-1.10698e-08
1.28065e-09
-3.67118e-08
-1.11001e-08
4.17589e-09
-3.65189e-08
-1.08187e-08
6.67567e-09
-3.62359e-08
-1.02392e-08
8.61648e-09
-3.58655e-08
-9.42588e-09
9.89188e-09
-3.54062e-08
-8.45452e-09
1.04716e-08
-3.48519e-08
-7.41706e-09
1.03883e-08
-3.41928e-08
-6.39164e-09
9.72511e-09
-3.34083e-08
-5.44261e-09
8.59927e-09
-3.24604e-08
-4.60951e-09
7.14317e-09
-3.1274e-08
-3.90577e-09
5.49454e-09
-2.97097e-08
-3.32092e-09
3.78993e-09
-2.75159e-08
-2.81646e-09
2.1662e-09
-2.42332e-08
-2.31948e-09
7.92483e-10
-1.89634e-08
-1.70961e-09
-9.63511e-09
-7.89221e-10
-8.37024e-10
-8.113e-09
-8.41878e-10
-2.36819e-09
-1.6065e-08
-1.74816e-09
-4.24631e-09
-2.0598e-08
-2.3161e-09
-6.27746e-09
-2.34162e-08
-2.76876e-09
-8.29966e-09
-2.52632e-08
-3.23239e-09
-1.01533e-08
-2.65208e-08
-3.78022e-09
-1.16801e-08
-2.74022e-08
-4.44964e-09
-1.27297e-08
-2.80288e-08
-5.25158e-09
-1.31706e-08
-2.84704e-08
-6.17202e-09
-1.29043e-08
-2.87699e-08
-7.17425e-09
-1.18848e-08
-2.89553e-08
-8.19947e-09
-1.01282e-08
-2.90516e-08
-9.17235e-09
-7.7297e-09
-2.90806e-08
-1.00042e-08
-4.84613e-09
-2.9061e-08
-1.06198e-08
-1.69129e-09
-2.90077e-08
-1.09533e-08
1.50232e-09
-2.89268e-08
-1.09786e-08
4.49991e-09
-2.88223e-08
-1.06941e-08
7.0823e-09
-2.86954e-08
-1.01229e-08
9.08109e-09
-2.85366e-08
-9.32766e-09
1.03916e-08
-2.83343e-08
-8.38236e-09
1.09821e-08
-2.8068e-08
-7.37436e-09
1.08857e-08
-2.77167e-08
-6.37972e-09
1.0187e-08
-2.72518e-08
-5.45774e-09
9.0047e-09
-2.6632e-08
-4.64606e-09
7.4768e-09
-2.57868e-08
-3.95927e-09
5.74728e-09
-2.45941e-08
-3.38607e-09
3.9598e-09
-2.28402e-08
-2.88823e-09
2.25986e-09
-2.01426e-08
-2.39068e-09
8.2485e-10
-1.57582e-08
-1.77018e-09
-7.9886e-09
-8.21651e-10
-8.43148e-10
-6.42293e-09
-8.46916e-10
-2.38285e-09
-1.27691e-08
-1.7562e-09
-4.27045e-09
-1.63905e-08
-2.31998e-09
-6.31069e-09
-1.86148e-08
-2.76109e-09
-8.33896e-09
-2.00292e-08
-3.20572e-09
-1.01932e-08
-2.09404e-08
-3.72624e-09
-1.17134e-08
-2.15234e-08
-4.35855e-09
-1.27493e-08
-2.18802e-08
-5.11269e-09
-1.31705e-08
-2.20744e-08
-5.97491e-09
-1.28817e-08
-2.21474e-08
-6.91127e-09
-1.18398e-08
-2.21313e-08
-7.86593e-09
-1.00648e-08
-2.20564e-08
-8.77012e-09
-7.64982e-09
-2.19519e-08
-9.54367e-09
-4.75212e-09
-2.18431e-08
-1.01156e-08
-1.58404e-09
-2.17508e-08
-1.0425e-08
1.61974e-09
-2.16847e-08
-1.04459e-08
4.62271e-09
-2.16481e-08
-1.01773e-08
7.20711e-09
-2.16373e-08
-9.64258e-09
9.2074e-09
-2.16366e-08
-8.90033e-09
1.05192e-08
-2.16254e-08
-8.02065e-09
1.11103e-08
-2.15769e-08
-7.08225e-09
1.1011e-08
-2.14631e-08
-6.15432e-09
1.03046e-08
-2.12527e-08
-5.29276e-09
9.10789e-09
-2.09032e-08
-4.53199e-09
7.55985e-09
-2.03529e-08
-3.88588e-09
5.80674e-09
-1.94973e-08
-3.34372e-09
3.99648e-09
-1.81615e-08
-2.86841e-09
2.27764e-09
-1.6037e-08
-2.38673e-09
8.29832e-10
-1.25353e-08
-1.77509e-09
-6.33132e-09
-8.27448e-10
-8.21094e-10
-4.77787e-09
-8.23954e-10
-2.32133e-09
-9.56363e-09
-1.70526e-09
-4.16289e-09
-1.23035e-08
-2.24541e-09
-6.15738e-09
-1.39605e-08
-2.65982e-09
-8.14111e-09
-1.49745e-08
-3.0709e-09
-9.95227e-09
-1.55806e-08
-3.54865e-09
-1.14324e-08
-1.59161e-08
-4.12713e-09
-1.24325e-08
-1.60654e-08
-4.81473e-09
-1.28281e-08
-1.60804e-08
-5.59835e-09
-1.2529e-08
-1.6e-08
-6.44652e-09
-1.14962e-08
-1.58552e-08
-7.3088e-09
-9.75247e-09
-1.56773e-08
-8.12284e-09
-7.38939e-09
-1.54973e-08
-8.81772e-09
-4.55994e-09
-1.53417e-08
-9.33078e-09
-1.46917e-09
-1.52328e-08
-9.60872e-09
1.6543e-09
-1.5182e-08
-9.62616e-09
4.57999e-09
-1.51916e-08
-9.38209e-09
7.09852e-09
-1.52555e-08
-8.90028e-09
9.04889e-09
-1.53549e-08
-8.23199e-09
1.03298e-08
-1.54667e-08
-7.43965e-09
1.09082e-08
-1.55623e-08
-6.59295e-09
1.08113e-08
-1.56125e-08
-5.75358e-09
1.01165e-08
-1.55858e-08
-4.97215e-09
8.93807e-09
-1.54446e-08
-4.28022e-09
7.41188e-09
-1.51359e-08
-3.69082e-09
5.6845e-09
-1.45753e-08
-3.19462e-09
3.90445e-09
-1.36248e-08
-2.75666e-09
2.22017e-09
-1.20468e-08
-2.30592e-09
8.07165e-10
-9.39978e-09
-1.72253e-09
-4.71778e-09
-8.06366e-10
-7.67461e-10
-3.24115e-09
-7.69252e-10
-2.17627e-09
-6.56747e-09
-1.58733e-09
-3.91755e-09
-8.48197e-09
-2.08022e-09
-5.81439e-09
-9.61332e-09
-2.45036e-09
-7.70755e-09
-1.02681e-08
-2.81323e-09
-9.43749e-09
-1.0616e-08
-3.23464e-09
-1.08483e-08
-1.07591e-08
-3.74612e-09
-1.17977e-08
-1.07613e-08
-4.35483e-09
-1.21661e-08
-1.0664e-08
-5.04799e-09
-1.18711e-08
-1.04984e-08
-5.79652e-09
-1.08787e-08
-1.02921e-08
-6.55545e-09
-9.2138e-09
-1.00726e-08
-7.26966e-09
-6.96413e-09
-9.86791e-09
-7.87905e-09
-4.27532e-09
-9.70226e-09
-8.32825e-09
-1.34061e-09
-9.59615e-09
-8.57135e-09
1.62355e-09
-9.56007e-09
-8.58606e-09
4.39933e-09
-9.59582e-09
-8.37161e-09
6.7895e-09
-9.69616e-09
-7.9495e-09
8.64189e-09
-9.84376e-09
-7.36356e-09
9.85984e-09
-1.00165e-08
-6.66812e-09
1.04093e-08
-1.01885e-08
-5.92326e-09
1.03131e-08
-1.03328e-08
-5.1835e-09
9.64362e-09
-1.04229e-08
-4.49343e-09
8.5086e-09
-1.04275e-08
-3.88209e-09
7.0397e-09
-1.03051e-08
-3.36188e-09
5.3812e-09