/*--------------------------------*- C++ -*----------------------------------*\
| =========                 |                                                 |
| \\      /  F ield         | OpenFOAM: The Open Source CFD Toolbox           |
|  \\    /   O peration     | Version:  v1906                                 |
|   \\  /    A nd           | Web:      www.OpenFOAM.com                      |
|    \\/     M anipulation  |                                                 |
\*---------------------------------------------------------------------------*/
FoamFile
{
    version     2.0;
    format      ascii;
    class       volScalarField;
    location    "37/sphere";
    object      T;
}
// * * * * * * * * * * * * * * * * * * * * * * * * * * * * * * * * * * * * * //

dimensions      [0 0 0 1 0 0 0];


internalField   nonuniform List<scalar> 
304
(
479.16
479.189
479.187
479.203
479.161
479.158
479.159
479.189
479.159
479.311
479.311
479.203
479.187
479.309
479.309
479.233
479.201
479.233
479.16
479.187
479.204
479.159
479.19
479.311
479.31
479.234
479.204
479.31
479.31
479.26
479.156
479.232
479.26
479.194
479.16
479.205
479.234
479.165
479.164
479.234
479.26
479.194
479.16
479.194
479.146
479.148
479.161
479.161
479.163
479.196
479.161
479.161
479.197
479.163
479.148
479.162
479.165
479.162
479.197
479.189
479.189
479.204
479.205
479.235
479.235
479.261
479.16
479.204
479.189
479.235
479.204
479.261
479.235
479.161
479.165
479.197
479.162
479.158
479.158
479.194
479.158
479.203
479.153
479.185
479.232
479.26
479.199
479.231
479.188
479.186
479.156
479.26
479.234
479.233
479.2
479.195
479.16
479.159
479.144
479.157
479.159
479.193
479.158
479.194
479.16
479.158
479.144
479.162
479.159
479.16
479.195
479.189
479.203
479.235
479.188
479.204
479.234
479.261
479.159
479.235
479.204
479.204
479.189
479.261
479.234
479.162
479.16
479.195
479.161
479.204
479.189
479.235
479.189
479.235
479.204
479.261
479.158
479.234
479.19
479.234
479.189
479.261
479.204
479.233
479.155
479.2
479.204
479.26
479.186
479.232
479.188
479.201
479.156
479.26
479.203
479.233
479.187
479.161
479.157
479.194
479.158
479.232
479.158
479.188
479.233
479.26
479.187
479.203
479.201
479.188
479.157
479.26
479.232
479.203
479.187
479.193
479.156
479.157
479.158
479.161
479.196
479.165
479.204
479.234
479.261
479.158
479.188
479.204
479.234
479.187
479.261
479.233
479.188
479.156
479.234
479.201
479.195
479.159
479.16
479.236
479.205
479.261
479.162
479.206
479.191
479.236
479.189
479.261
479.204
479.203
479.16
479.234
479.189
479.26
479.187
479.233
479.19
479.235
479.157
479.202
479.204
479.233
479.187
479.233
479.188
479.201
479.156
479.193
479.158
479.161
479.26
479.187
479.204
479.202
479.233
479.158
479.188
479.233
479.204
479.188
479.233
479.203
479.189
479.16
479.158
479.158
479.162
479.151
479.159
479.163
479.195
479.159
479.195
479.161
479.159
479.146
479.168
479.163
479.199
479.163
479.235
479.236
479.261
479.162
479.189
479.19
479.204
479.203
479.261
479.234
479.188
479.158
479.204
479.188
479.197
479.162
479.16
479.197
479.161
479.16
479.26
479.201
479.232
479.188
479.203
479.155
479.187
479.233
479.233
479.201
479.203
479.187
479.187
479.156
479.159
479.159
479.157
479.147
479.194
479.159
479.157
479.161
479.159
479.157
)
;

boundaryField
{
    sphere_to_oil
    {
        type            compressible::turbulentTemperatureCoupledBaffleMixed;
        refValue        nonuniform List<scalar> 
360
(
341.071
341.071
317.947
362.876
371.561
320.289
372.697
372.697
372.697
345.295
345.295
321.646
324.346
315.238
342.824
363.734
359.286
359.286
359.286
317.236
357.544
335.297
335.358
366.227
314.796
366.82
319.04
366.498
366.498
366.498
373.548
365.086
317.975
317.678
321.416
321.587
360.165
360.165
360.165
359.438
368.584
320.627
321.409
341.175
341.175
318.912
324.021
312.407
339.042
367.234
320.371
320.323
323.936
324.306
317.002
335.36
360.246
317.282
321.461
324.615
314.387
367.813
367.813
367.813
312.421
366.368
338.959
326.354
371.496
371.496
371.496
371.988
370.383
314.695
357.794
342.147
315.806
333.968
368.477
360.287
336.436
324.774
335.717
314.26
317.932
320.104
321.807
324.186
315.514
317.391
317.975
323.96
321.45
318.221
323.781
321.429
321.801
321.772
318.535
313.707
313.784
316.095
320.27
321.482
323.969
315.944
315.283
324.35
318.472
321.892
321.876
321.768
318.562
317.116
312.746
312.694
329.35
326.165
330.743
340.847
340.847
362.876
362.876
366.227
366.227
363.947
363.947
363.947
365.788
365.788
365.788
330
326.273
329.349
316.793
371.561
371.561
341.896
341.896
373.548
373.548
340.038
340.038
372.735
372.735
372.735
316.733
316.273
364.194
364.194
364.194
364.259
364.259
364.259
363.734
357.544
342.824
363.734
362.307
315.966
362.307
362.307
335.419
336.16
325.098
334.985
334.985
370.153
370.153
370.153
314.311
357.544
335.297
369.096
369.096
314.289
369.096
336.109
325.004
312.495
318.986
319.253
324.405
314.694
324.033
319.236
312.497
313.626
366.82
366.82
365.086
365.086
341.21
341.21
363.013
363.013
363.013
339.262
339.262
313.61
321.083
320.488
324.146
321.273
320.124
324.124
318.364
324.384
321.839
318.368
359.438
324.4
322.047
317.268
369.43
369.43
369.43
336.252
336.252
314.129
321.563
321.531
324.529
368.584
320.506
324.402
321.623
359.438
368.584
336.272
317.207
336.272
314.591
312.722
323.955
314.77
319.171
319.067
319.303
314.594
313.288
367.829
361.592
367.829
367.829
361.592
361.592
367.234
366.368
339.042
364.564
313.674
367.234
364.564
364.564
323.589
317.606
321.457
323.915
318.168
371.988
321.214
321.769
321.901
318.532
360.246
357.794
321.881
321.683
318.494
359.637
362.661
335.36
368.988
314.549
360.246
368.988
368.988
324.949
320.506
368.477
321.546
321.414
321.391
368.677
320.304
368.381
336.452
359.637
336.452
368.677
359.637
368.677
312.385
326.105
328.606
328.965
339.822
363.066
339.822
363.066
363.066
313.584
366.368
364.195
338.959
364.195
313.618
364.195
330.035
329.615
315.623
370.075
340.684
370.075
370.075
340.684
315.891
320.08
321.275
323.996
370.383
371.988
340.5
316.492
370.383
340.5
315.982
357.794
363.655
342.147
363.655
315.175
363.655
324.441
360.287
318.623
321.952
362.511
359.876
362.661
342.322
362.661
362.511
342.322
362.511
324.4
335.574
368.477
335.46
314.308
360.287
335.46
317.44
368.381
359.876
368.381
336.385
359.876
336.385
)
;
        refGradient     uniform 0;
        valueFraction   nonuniform List<scalar> 
360
(
0.00013312
0.00012771
8.17616e-05
0.000292087
0.000299561
0.000171772
0.000301423
0.000258731
0.000402726
0.000128225
0.000125017
0.000167714
0.000255604
7.30823e-05
0.000130733
0.000254134
0.000291231
0.000272113
0.000381835
6.68743e-05
0.000250708
0.00012325
0.000113593
0.000301441
8.75194e-05
0.000309846
0.000174655
0.000305845
0.000400257
0.000267745
0.000305895
0.00030853
8.28465e-05
8.19209e-05
0.000171915
0.000169181
0.000286275
0.000388101
0.000266503
0.000400711
0.000395817
8.45179e-05
0.000167643
0.000122352
0.000122206
0.000172575
0.00025819
6.88838e-05
0.000123255
0.00026136
0.000170243
0.000171349
0.000255414
0.000252932
7.14588e-05
0.000130725
0.000266583
6.84556e-05
0.000169587
0.000252892
6.70058e-05
0.000297717
0.000262812
0.000411329
6.90807e-05
0.000268715
0.000125344
0.000121233
0.000304595
0.000397356
0.00026729
0.000383177
0.000388541
7.42065e-05
0.000259065
0.000131424
6.84163e-05
0.000122681
0.000387718
0.000402771
0.000120326
0.000118056
0.000115956
6.89144e-05
8.31038e-05
0.000168483
0.000169427
0.000256579
7.74508e-05
6.53958e-05
8.22459e-05
0.000256161
0.000169106
8.40149e-05
0.000255738
0.000171037
0.000170025
0.000170287
8.30393e-05
6.65606e-05
6.74943e-05
6.6596e-05
0.000171206
0.000168272
0.000255968
7.536e-05
6.5458e-05
0.000255782
8.12569e-05
0.000168537
0.000168569
0.000172007
8.41095e-05
6.73508e-05
6.56846e-05
6.69536e-05
0.000116543
0.000116683
0.000121216
0.000131441
0.000123536
0.000255256
0.000402111
0.00026893
0.000405809
0.000260123
0.000399921
0.000297765
0.000260334
0.000391216
0.00029325
0.000119612
0.000113116
0.00011586
6.39586e-05
0.000265257
0.000399377
0.000123566
0.00012413
0.000403606
0.000268349
0.000129532
0.000136521
0.000398638
0.000273848
0.000315554
7.03903e-05
6.55057e-05
0.000276488
0.000383142
0.000303698
0.000284679
0.000396407
0.000303666
0.000313526
0.000288797
0.000135091
0.000402663
0.000260097
7.25154e-05
0.000391362
0.000292868
0.000111765
0.000117749
0.000116488
0.000122889
0.000128458
0.000400648
0.000263804
0.000309651
7.4245e-05
0.000385408
0.000132154
0.000405265
0.000259437
7.25213e-05
0.000307615
0.000112757
0.000113803
6.6491e-05
0.000174282
0.000174212
0.000257602
8.59021e-05
0.000257991
0.000169754
6.58083e-05
6.3902e-05
0.00040314
0.000256151
0.000398408
0.000265622
0.000126701
0.000118489
0.000400266
0.000250162
0.000289163
0.000117122
0.000135898
6.83692e-05
0.000171218
0.000171063
0.000255582
0.000167347
0.000168209
0.000254576
8.72561e-05
0.000255449
0.000173203
8.48541e-05
0.000287523
0.000255166
0.000172166
6.86127e-05
0.000391519
0.000253815
0.000296965
0.00012372
0.000114973
6.64115e-05
0.000169887
0.000172744
0.000256126
0.000291201
8.14433e-05
0.000253696
0.000165689
0.000252018
0.000266797
0.000121108
6.80245e-05
0.000134388
6.88655e-05
6.48238e-05
0.000258986
8.64287e-05
0.000174112
0.000172099
0.000170047
8.53423e-05
6.51896e-05
0.0002648
0.000248123
0.000416544
0.000310055
0.000388613
0.000279218
0.000299272
0.000306412
0.000136199
0.000262863
7.08212e-05
0.000400012
0.000388953
0.000295522
0.000257755
8.21298e-05
0.000167715
0.000254791
8.28654e-05
0.000303601
0.000168441
0.000169645
0.000168082
8.23635e-05
0.000301337
0.000282379
0.000171486
0.000167052
8.39494e-05
0.000282935
0.000311436
0.00012351
0.000279568
6.63966e-05
0.0003983
0.000386152
0.00029178
0.000252901
8.30792e-05
0.000292239
0.000168275
0.000168535
0.000169494
0.00029383
8.38577e-05
0.000300208
0.000126321
0.000258837
0.000127375
0.000263762
0.000401954
0.000394603
6.63654e-05
0.00013299
0.000131419
0.00012854
0.000117059
0.000391637
0.000127851
0.000260364
0.000306592
6.53982e-05
0.00039546
0.000394983
0.000129302
0.000280842
6.85347e-05
0.000301084
0.000114634
0.000112616
6.84781e-05
0.000387333
0.000115758
0.000254017
0.000299167
0.000124104
6.7654e-05
0.000168341
0.000168283
0.000253935
0.000290563
0.000252023
0.000121849
6.55889e-05
0.000256245
0.000135332
7.57505e-05
0.000371337
0.000398741
0.000117846
0.000253292
7.02248e-05
0.000318553
0.000255881
0.000306578
8.38674e-05
0.000169064
0.000295579
0.000286558
0.000269589
0.000120499
0.000394905
0.000394055
0.000143041
0.000263404
0.000115891
0.000117669
0.000265176
0.000131267
7.09728e-05
0.000268192
0.000126399
6.55426e-05
0.000390334
0.000395021
0.00025991
0.000126135
0.000255305
0.000130294
)
;
        value           nonuniform List<scalar> 
360
(
479.162
479.163
479.167
479.146
479.148
479.182
479.147
479.154
479.142
479.161
479.161
479.18
479.183
479.169
479.163
479.152
479.138
479.144
479.133
479.168
479.148
479.161
479.148
479.144
479.164
479.144
479.181
479.145
479.137
479.15
479.146
479.143
479.165
479.165
479.179
479.181
479.14
479.135
479.145
479.132
479.136
479.164
479.181
479.162
479.164
479.18
479.184
479.167
479.161
479.149
479.183
479.182
479.184
479.184
479.165
479.157
479.145
479.167
479.181
479.185
479.167
479.145
479.149
479.138
479.168
479.149
479.162
479.148
479.149
479.145
479.154
479.144
479.143
479.172
479.153
479.166
479.167
479.149
479.137
479.132
479.149
479.148
479.15
479.168
479.169
479.181
479.181
479.183
479.165
479.167
479.166
479.184
479.183
479.164
479.184
479.181
479.18
479.18
479.162
479.17
479.17
479.171
479.182
479.183
479.184
479.169
479.167
479.183
479.16
479.179
479.182
479.179
479.162
479.166
479.17
479.17
479.15
479.15
479.15
479.163
479.164
479.151
479.136
479.151
479.137
479.151
479.137
479.145
479.151
479.139
479.146
479.15
479.15
479.15
479.172
479.153
479.142
479.165
479.165
479.143
479.154
479.163
479.163
479.142
479.153
479.144
479.171
479.168
479.146
479.134
479.138
479.146
479.133
479.14
479.14
479.141
479.161
479.132
479.149
479.168
479.133
479.141
479.148
479.148
479.147
479.159
479.159
479.135
479.149
479.144
479.166
479.133
479.158
479.135
479.149
479.166
479.143
479.148
479.146
479.168
479.181
479.18
479.184
479.165
479.184
479.181
479.169
479.169
479.137
479.15
479.136
479.149
479.161
479.163
479.136
479.151
479.144
479.163
479.161
479.169
479.182
479.182
479.184
479.183
479.182
479.185
479.16
479.184
479.179
479.162
479.141
479.184
479.18
479.166
479.138
479.15
479.145
479.159
479.162
479.167
479.181
479.18
479.184
479.145
479.164
479.184
479.181
479.146
479.148
479.159
479.165
479.158
479.166
479.168
479.183
479.164
479.18
479.18
479.181
479.162
479.17
479.149
479.151
479.138
479.144
479.139
479.149
479.143
479.141
479.16
479.149
479.168
479.136
479.136
479.146
479.185
479.169
479.184
479.185
479.167
479.147
479.183
479.18
479.184
479.164
479.141
479.143
479.18
479.181
479.162
479.142
479.139
479.16
479.147
479.167
479.133
479.138
479.146
479.184
479.165
479.146
479.182
479.182
479.182
479.148
479.167
479.147
479.16
479.147
479.16
479.149
479.133
479.138
479.167
479.15
479.151
479.151
479.162
479.138
479.161
479.149
479.147
479.168
479.136
479.136
479.161
479.146
479.167
479.143
479.149
479.149
479.172
479.145
479.167
479.155
479.15
479.166
479.172
479.183
479.184
479.185
479.146
479.155
479.165
479.171
479.152
479.161
479.168
479.136
479.135
479.164
479.151
479.168
479.138
479.184
479.138
479.161
479.18
479.141
479.141
479.147
479.162
479.133
479.133
479.158
479.147
479.149
479.15
479.149
479.16
479.167
479.146
479.159
479.167
479.138
479.134
479.15
479.161
479.147
479.159
)
;
        Tnbr            T;
        thicknessLayers 0();
        kappaLayers     0();
        kappaMethod     solidThermo;
        kappa           none;
        alphaAni        none;
    }
}


// ************************************************************************* //
