/*--------------------------------*- C++ -*----------------------------------*\
| =========                 |                                                 |
| \\      /  F ield         | OpenFOAM: The Open Source CFD Toolbox           |
|  \\    /   O peration     | Version:  v1912                                 |
|   \\  /    A nd           | Website:  www.openfoam.com                      |
|    \\/     M anipulation  |                                                 |
\*---------------------------------------------------------------------------*/
FoamFile
{
    version     2.0;
    format      ascii;
    class       surfaceScalarField;
    location    "384/oil";
    object      phi;
}
// * * * * * * * * * * * * * * * * * * * * * * * * * * * * * * * * * * * * * //

dimensions      [1 0 -1 0 0 0 0];
oriented        oriented;


internalField   nonuniform List<scalar> 
104676
(
-1.23379e-11
2.83297e-11
-1.56506e-11
2.83573e-10
-2.32811e-10
-6.30997e-11
8.89029e-10
-4.37116e-10
-1.68338e-10
1.71048e-09
-5.33434e-10
-2.88014e-10
2.62722e-09
-5.45457e-10
-3.71282e-10
3.51862e-09
-4.96006e-10
-3.95386e-10
4.27577e-09
-4.03049e-10
-3.54097e-10
4.80764e-09
-2.79935e-10
-2.5193e-10
5.04333e-09
-1.36997e-10
-9.8687e-11
4.94417e-09
1.28744e-11
8.62877e-11
4.49141e-09
1.67763e-10
2.84998e-10
3.7164e-09
2.94141e-10
4.80874e-10
2.65965e-09
4.08982e-10
6.47771e-10
1.39705e-09
4.92167e-10
7.70433e-10
2.52562e-11
5.36121e-10
8.35679e-10
-1.35079e-09
5.38488e-10
8.37564e-10
-2.61674e-09
4.92577e-10
7.73379e-10
-3.67759e-09
4.08576e-10
6.52282e-10
-4.45996e-09
2.95824e-10
4.86547e-10
-4.91816e-09
1.64096e-10
2.94102e-10
-5.0293e-09
1.39554e-11
9.71959e-11
-4.79867e-09
-1.39894e-10
-9.07368e-11
-4.27093e-09
-2.82284e-10
-2.45445e-10
-3.51687e-09
-4.05237e-10
-3.48824e-10
-2.62799e-09
-4.97779e-10
-3.91097e-10
-1.71303e-09
-5.48175e-10
-3.66782e-10
-8.92113e-10
-5.37532e-10
-2.83381e-10
-2.86326e-10
-4.41808e-10
-1.63976e-10
1.04477e-11
-2.37022e-10
-5.97483e-11
2.39773e-11
-1.35273e-11
2.90043e-10
-5.51751e-10
2.90039e-10
1.12019e-09
-1.659e-09
5.96046e-10
2.43937e-09
-2.49463e-09
7.38328e-10
4.10092e-09
-3.00391e-09
8.08932e-10
5.90503e-09
-3.24818e-09
8.98616e-10
7.63653e-09
-3.28743e-09
1.05993e-09
9.09211e-09
-3.17306e-09
1.31443e-09
1.00958e-08
-2.9456e-09
1.66195e-09
1.05106e-08
-2.63905e-09
2.08733e-09
1.02485e-08
-2.28406e-09
2.55901e-09
9.26873e-09
-1.91056e-09
3.05807e-09
7.6254e-09
-1.58348e-09
3.52096e-09
5.44135e-09
-1.29583e-09
3.88887e-09
2.85497e-09
-1.08774e-09
4.1663e-09
5.09784e-11
-9.78916e-10
4.31904e-09
-2.7638e-09
-9.79604e-10
4.33288e-09
-5.35696e-09
-1.09286e-09
4.1786e-09
-7.54265e-09
-1.30463e-09
3.89891e-09
-9.1719e-09
-1.59292e-09
3.518e-09
-1.0154e-08
-1.92628e-09
3.07244e-09
-1.0431e-08
-2.29467e-09
2.58566e-09
-1.00296e-08
-2.64709e-09
2.10579e-09
-9.04224e-09
-2.95061e-09
1.68099e-09
-7.60434e-09
-3.17708e-09
1.33395e-09
-5.88736e-09
-3.29246e-09
1.07771e-09
-4.09618e-09
-3.25487e-09
9.15521e-10
-2.44275e-09
-3.015e-09
8.2404e-10
-1.12443e-09
-2.50918e-09
7.4906e-10
-2.91477e-10
-1.67084e-09
6.00864e-10
-5.57933e-10
2.90436e-10
6.108e-10
-1.77919e-09
6.16642e-10
1.94188e-09
-4.30964e-09
1.31956e-09
3.80916e-09
-6.11893e-09
1.75703e-09
6.02906e-09
-7.29992e-09
2.07612e-09
8.37177e-09
-7.97884e-09
2.38796e-09
1.05842e-08
-8.26029e-09
2.7604e-09
1.24192e-08
-8.23437e-09
3.22635e-09
1.36576e-08
-7.97541e-09
3.79143e-09
1.41284e-08
-7.55101e-09
4.44116e-09
1.37223e-08
-7.01798e-09
5.14005e-09
1.23857e-08
-6.43797e-09
5.86404e-09
1.01751e-08
-5.88964e-09
6.51669e-09
7.25074e-09
-5.40884e-09
7.03741e-09
3.8011e-09
-5.05783e-09
7.41974e-09
6.55052e-11
-4.8769e-09
7.63359e-09
-3.6878e-09
-4.88557e-09
7.65928e-09
-7.14781e-09
-5.06989e-09
7.43706e-09
-1.00721e-08
-5.4229e-09
7.04254e-09
-1.22691e-08
-5.90021e-09
6.50428e-09
-1.36223e-08
-6.45332e-09
5.88031e-09
-1.40502e-08
-7.03201e-09
5.16521e-09
-1.35952e-08
-7.56104e-09
4.459e-09
-1.23736e-08
-7.98324e-09
3.81101e-09
-1.05562e-08
-8.24026e-09
3.2458e-09
-8.35995e-09
-8.2676e-09
2.77887e-09
-6.02824e-09
-7.99094e-09
2.40437e-09
-3.8155e-09
-7.3169e-09
2.08916e-09
-1.94945e-09
-6.1395e-09
1.76427e-09
-6.14431e-10
-4.32565e-09
1.3198e-09
-1.78783e-09
6.15464e-10
8.76172e-10
-3.5422e-09
8.86838e-10
2.62882e-09
-7.9757e-09
1.91342e-09
4.94056e-09
-1.10187e-08
2.58802e-09
7.58574e-09
-1.30531e-08
3.108e-09
1.03115e-08
-1.43109e-08
3.60635e-09
1.28455e-08
-1.49523e-08
4.15798e-09
1.49201e-08
-1.51102e-08
4.80115e-09
1.62959e-08
-1.48947e-08
5.5436e-09
1.67784e-08
-1.44061e-08
6.37255e-09
1.62418e-08
-1.3736e-08
7.25465e-09
1.46231e-08
-1.29771e-08
8.15778e-09
1.19988e-08
-1.22202e-08
8.9549e-09
8.54301e-09
-1.1561e-08
9.60788e-09
4.47531e-09
-1.1053e-08
1.00628e-08
7.39812e-11
-1.07942e-08
1.03186e-08
-4.35084e-09
-1.08125e-08
1.03518e-08
-8.43221e-09
-1.1066e-08
1.00775e-08
-1.18897e-08
-1.15606e-08
9.59522e-09
-1.45019e-08
-1.22233e-08
8.93523e-09
-1.61339e-08
-1.29832e-08
8.162e-09
-1.66903e-08
-1.37424e-08
7.26674e-09
-1.62255e-08
-1.44108e-08
6.38491e-09
-1.48691e-08
-1.48988e-08
5.55919e-09
-1.28122e-08
-1.51137e-08
4.81646e-09
-1.02954e-08
-1.49584e-08
4.17404e-09
-7.58418e-09
-1.4323e-08
3.62095e-09
-4.94593e-09
-1.3073e-08
3.11782e-09
-2.6363e-09
-1.1038e-08
2.58886e-09
-8.82659e-10
-7.98222e-09
1.90293e-09
-3.55406e-09
8.83574e-10
1.07635e-09
-5.70485e-09
1.08631e-09
3.15441e-09
-1.24013e-08
2.34757e-09
5.8144e-09
-1.68779e-08
3.19927e-09
8.78781e-09
-1.98943e-08
3.86778e-09
1.18007e-08
-2.18299e-08
4.50608e-09
1.45673e-08
-2.29172e-08
5.19826e-09
1.68092e-08
-2.33366e-08
5.98461e-09
1.82739e-08
-2.32354e-08
6.87606e-09
1.87581e-08
-2.27463e-08
7.85593e-09
1.81233e-08
-2.19935e-08
8.89238e-09
1.63022e-08
-2.1105e-08
9.94895e-09
1.33739e-08
-2.0192e-08
1.09002e-08
9.51437e-09
-1.93723e-08
1.16708e-08
4.98111e-09
-1.87066e-08
1.21869e-08
7.9599e-11
-1.837e-08
1.24773e-08
-4.84944e-09
-1.8395e-08
1.25115e-08
-9.39229e-09
-1.87229e-08
1.21998e-08
-1.32464e-08
-1.93487e-08
1.16422e-08
-1.61725e-08
-2.01858e-08
1.08887e-08
-1.80089e-08
-2.11043e-08
9.95738e-09
-1.86639e-08
-2.1994e-08
8.90665e-09
-1.81991e-08
-2.27467e-08
7.87113e-09
-1.6753e-08
-2.32369e-08
6.89197e-09
-1.45281e-08
-2.3339e-08
6.00039e-09
-1.1778e-08
-2.29217e-08
5.21327e-09
-8.78063e-09
-2.18392e-08
4.51873e-09
-5.8178e-09
-1.99105e-08
3.87469e-09
-3.15983e-09
-1.6892e-08
3.19605e-09
-1.08198e-09
-1.23923e-08
2.33226e-09
-5.71945e-09
1.08342e-09
1.21085e-09
-8.13831e-09
1.22261e-09
3.51996e-09
-1.73479e-08
2.63743e-09
6.43307e-09
-2.3402e-08
3.61099e-09
9.64458e-09
-2.74914e-08
4.3856e-09
1.28644e-08
-3.01756e-08
5.12587e-09
1.57982e-08
-3.17769e-08
5.92599e-09
1.8161e-08
-3.2528e-08
6.82851e-09
1.96934e-08
-3.26146e-08
7.84683e-09
2.01847e-08
-3.21999e-08
8.96233e-09
1.94911e-08
-3.14373e-08
1.01374e-08
1.75421e-08
-3.04828e-08
1.13269e-08
1.43917e-08
-2.949e-08
1.24485e-08
1.02338e-08
-2.85553e-08
1.33409e-08
5.35464e-09
-2.77433e-08
1.39158e-08
7.95973e-11
-2.73192e-08
1.42243e-08
-5.22537e-09
-2.73463e-08
1.42563e-08
-1.01043e-08
-2.77807e-08
1.39367e-08
-1.42482e-08
-2.85093e-08
1.33046e-08
-1.74026e-08
-2.94758e-08
1.24444e-08
-1.937e-08
-3.04786e-08
1.13417e-08
-2.00862e-08
-3.14337e-08
1.0156e-08
-1.96158e-08
-3.21981e-08
8.98103e-09
-1.81024e-08
-3.26153e-08
7.86495e-09
-1.57567e-08
-3.25301e-08
6.84547e-09
-1.28379e-08
-3.17808e-08
5.94028e-09
-9.63228e-09
-3.01823e-08
5.13754e-09
-6.4324e-09
-2.75009e-08
4.39059e-09
-3.52562e-09
-2.34033e-08
3.60452e-09
-1.21709e-09
-1.73223e-08
2.62146e-09
-8.1576e-09
1.22106e-09
1.27853e-09
-1.07232e-08
1.3064e-09
3.72977e-09
-2.26246e-08
2.82549e-09
6.80246e-09
-3.03378e-08
3.8631e-09
1.01616e-08
-3.55468e-08
4.69632e-09
1.35085e-08
-3.90281e-08
5.50563e-09
1.65456e-08
-4.12001e-08
6.38617e-09
1.8987e-08
-4.23519e-08
7.38245e-09
2.05684e-08
-4.27064e-08
8.51047e-09
2.10757e-08
-4.24558e-08
9.74856e-09
2.03572e-08
-4.17742e-08
1.10554e-08
1.83407e-08
-4.08451e-08
1.23788e-08
1.50445e-08
-3.98472e-08
1.36534e-08
1.07027e-08
-3.88877e-08
1.46742e-08
5.59924e-09
-3.79428e-08
1.53031e-08
8.66477e-11
-3.7439e-08
1.56324e-08
-5.45113e-09
-3.74803e-08
1.56718e-08
-1.05713e-08
-3.80132e-08
1.53528e-08
-1.48974e-08
-3.88323e-08
1.4649e-08
-1.81972e-08
-3.98333e-08
1.36574e-08
-2.02335e-08
-4.08443e-08
1.2402e-08
-2.09746e-08
-4.17741e-08
1.10814e-08
-2.04891e-08
-4.24562e-08
9.77257e-09
-1.89268e-08
-4.27093e-08
8.5318e-09
-1.65028e-08
-4.23567e-08
7.4026e-09
-1.34797e-08
-4.12055e-08
6.40156e-09
-1.01464e-08
-3.90329e-08
5.51715e-09
-6.79977e-09
-3.55464e-08
4.69891e-09
-3.73918e-09
-3.03123e-08
3.84841e-09
-1.29407e-09
-2.25626e-08
2.79522e-09
-1.07546e-08
1.30289e-09
1.30387e-09
-1.33612e-08
1.33408e-09
3.7965e-09
-2.80146e-08
2.89738e-09
6.92188e-09
-3.74287e-08
3.96554e-09
1.03314e-08
-4.378e-08
4.82368e-09
1.37164e-08
-4.80799e-08
5.66675e-09
1.6784e-08
-5.0869e-08
6.60123e-09
1.9253e-08
-5.24898e-08
7.66894e-09
2.08604e-08
-5.31992e-08
8.8854e-09
2.13878e-08
-5.32127e-08
1.02295e-08
2.06808e-08
-5.27232e-08
1.1656e-08
1.86541e-08
-5.19251e-08
1.31066e-08
1.53076e-08
-5.10212e-08
1.45206e-08
1.08839e-08
-5.01492e-08
1.56852e-08
5.68578e-09
-4.90952e-08
1.63505e-08
8.61673e-11
-4.85565e-08
1.67171e-08
-5.54651e-09
-4.86071e-08
1.67595e-08
-1.07816e-08
-4.91675e-08
1.63894e-08
-1.51705e-08
-5.00903e-08
1.5647e-08
-1.85122e-08
-5.10104e-08
1.45188e-08
-2.05572e-08
-5.19285e-08
1.31291e-08
-2.12876e-08
-5.2726e-08
1.16824e-08
-2.07815e-08
-5.32165e-08
1.02542e-08
-1.91925e-08
-5.32065e-08
8.90818e-09
-1.674e-08
-5.24998e-08
7.69059e-09
-1.3686e-08
-5.08784e-08
6.61893e-09
-1.03149e-08
-4.80825e-08
5.67862e-09
-6.92284e-09
-4.37564e-08
4.81794e-09
-3.81172e-09
-3.73584e-08
3.93499e-09
-1.31802e-09
-2.79136e-08
2.85728e-09
-1.34056e-08
1.33302e-09
1.28125e-09
-1.59523e-08
1.3099e-09
3.7145e-09
-3.33063e-08
2.85844e-09
6.77602e-09
-4.44269e-08
3.9366e-09
1.01265e-08
-5.19264e-08
4.79595e-09
1.34549e-08
-5.70395e-08
5.63123e-09
1.64673e-08
-6.04566e-08
6.57522e-09
1.88985e-08
-6.25999e-08
7.679e-09
2.04955e-08
-6.37463e-08
8.95006e-09
2.10401e-08
-6.41225e-08
1.03652e-08
2.03745e-08
-6.39358e-08
1.18783e-08
1.84182e-08
-6.33847e-08
1.3416e-08
1.51562e-08
-6.26649e-08
1.49057e-08
1.07583e-08
-6.19405e-08
1.61891e-08
5.61286e-09
-6.08539e-08
1.69043e-08
8.16189e-11
-6.03613e-08
1.73361e-08
-5.48965e-09
-6.04061e-08
1.73702e-08
-1.06864e-08
-6.08811e-08
1.69103e-08
-1.50437e-08
-6.18506e-08
1.61177e-08
-1.82832e-08
-6.26545e-08
1.48836e-08
-2.02539e-08
-6.33915e-08
1.34337e-08
-2.09408e-08
-6.39439e-08
1.19048e-08
-2.0417e-08
-6.41311e-08
1.03909e-08
-1.88385e-08
-6.37587e-08
8.97362e-09
-1.6423e-08
-6.26163e-08
7.7011e-09
-1.34255e-08
-6.04662e-08
6.59033e-09
-1.01206e-08
-5.70118e-08
5.62432e-09
-6.79383e-09
-5.1835e-08
4.75177e-09
-3.7406e-09
-4.42826e-08
3.87096e-09
-1.28998e-09
-3.31766e-08
2.81242e-09
-1.60062e-08
1.3106e-09
1.21551e-09
-1.83961e-08
1.22825e-09
3.51223e-09
-3.82867e-08
2.6837e-09
6.37254e-09
-5.10207e-08
3.73348e-09
9.52515e-09
-5.96675e-08
4.58853e-09
1.26829e-08
-6.55973e-08
5.40005e-09
1.55433e-08
-6.9619e-08
6.30198e-09
1.78573e-08
-7.23028e-08
7.38885e-09
1.93919e-08
-7.39443e-08
8.66339e-09
1.99422e-08
-7.47678e-08
1.00951e-08
1.93472e-08
-7.49782e-08
1.16373e-08
1.753e-08
-7.47724e-08
1.32049e-08
1.44759e-08
-7.43271e-08
1.47164e-08
1.02432e-08
-7.37698e-08
1.60619e-08
5.3408e-09
-7.27901e-08
1.68386e-08
7.5664e-11
-7.23923e-08
1.72961e-08
-5.22028e-09
-7.24345e-08
1.73244e-08
-1.01565e-08
-7.27638e-08
1.68189e-08
-1.43661e-08
-7.35892e-08
1.59482e-08
-1.7404e-08
-7.43023e-08
1.46857e-08
-1.92308e-08
-7.47845e-08
1.32198e-08
-1.98464e-08
-7.49912e-08
1.16628e-08
-1.93171e-08
-7.47806e-08
1.01202e-08
-1.77989e-08
-7.39632e-08
8.68624e-09
-1.54977e-08
-7.23253e-08
7.40791e-09
-1.26603e-08
-6.96046e-08
6.30089e-09
-9.53767e-09
-6.54816e-08
5.3473e-09
-6.39398e-09
-5.94743e-08
4.49557e-09
-3.51532e-09
-5.08103e-08
3.64905e-09
-1.2112e-09
-3.81266e-08
2.64584e-09
-1.84518e-08
1.23447e-09
1.09682e-09
-2.0583e-08
1.09008e-09
3.17645e-09
-4.2717e-08
2.35071e-09
5.73954e-09
-5.68753e-08
3.29153e-09
8.54001e-09
-6.65959e-08
4.12789e-09
1.138e-08
-7.33489e-08
4.91165e-09
1.39694e-08
-7.79541e-08
5.74561e-09
1.60756e-08
-8.11683e-08
6.75939e-09
1.7489e-08
-8.33326e-08
7.97492e-09
1.80206e-08
-8.46481e-08
9.3487e-09
1.75233e-08
-8.53054e-08
1.08245e-08
1.5941e-08
-8.54789e-08
1.22889e-08
1.32325e-08
-8.52961e-08
1.36774e-08
9.33327e-09
-8.48639e-08
1.49934e-08
4.85721e-09
-8.42212e-08
1.59071e-08
6.84393e-11
-8.39881e-08
1.63846e-08
-4.73919e-09
-8.40305e-08
1.64036e-08
-9.19181e-09
-8.41998e-08
1.58887e-08
-1.302e-08
-8.47744e-08
1.50133e-08
-1.57665e-08
-8.54037e-08
1.38479e-08
-1.74038e-08
-8.55271e-08
1.23799e-08
-1.7927e-08
-8.5325e-08
1.08571e-08
-1.74183e-08
-8.46576e-08
9.3683e-09
-1.60184e-08
-8.3354e-08
7.99093e-09
-1.39202e-08
-8.11919e-08
6.76837e-09
-1.13552e-08
-7.78863e-08
5.71677e-09
-8.53963e-09
-7.31116e-08
4.81437e-09
-5.70311e-09
-6.63227e-08
4.01188e-09
-3.12003e-09
-5.66306e-08
3.23717e-09
-1.06468e-09
-4.25237e-08
2.34176e-09
-2.06142e-08
1.09772e-09
9.24092e-10
-2.24067e-08
8.99582e-10
2.69582e-09
-4.63781e-08
1.88932e-09
4.86134e-09
-6.16401e-08
2.59935e-09
7.20987e-09
-7.2257e-08
3.31258e-09
9.54915e-09
-7.97545e-08
4.06631e-09
1.17217e-08
-8.49696e-08
4.84293e-09
1.35175e-08
-8.87011e-08
5.73699e-09
1.4752e-08
-9.13873e-08
6.82019e-09
1.52537e-08
-9.31989e-08
8.0491e-09
1.48885e-08
-9.427e-08
9.32977e-09
1.35672e-08
-9.47422e-08
1.05846e-08
1.12072e-08
-9.48502e-08
1.19142e-08
7.91567e-09
-9.4741e-08
1.31686e-08
4.13181e-09
-9.4451e-08
1.40137e-08
5.69275e-11
-9.43564e-08
1.44432e-08
-4.04718e-09
-9.43318e-08
1.44055e-08
-7.83777e-09
-9.4301e-08
1.38917e-08
-1.1082e-08
-9.46068e-08
1.30767e-08
-1.33992e-08
-9.51183e-08
1.20317e-08
-1.475e-08
-9.48369e-08
1.06606e-08
-1.51492e-08
-9.42546e-08
9.32887e-09
-1.46806e-08
-9.31623e-08
8.03607e-09
-1.34618e-08
-9.13901e-08
6.8173e-09
-1.16548e-08
-8.87243e-08
5.72544e-09
-9.48293e-09
-8.4858e-08
4.79984e-09
-7.1265e-09
-7.94981e-08
4.03003e-09
-4.78482e-09
-7.20437e-08
3.37932e-09
-2.63487e-09
-6.15284e-08
2.74793e-09
-9.08899e-10
-4.62412e-08
1.9915e-09
-2.24526e-08
9.29459e-10
7.08881e-10
-2.37936e-08
6.78052e-10
2.04191e-09
-4.91557e-08
1.4446e-09
3.71352e-09
-6.52626e-08
1.95086e-09
5.50383e-09
-7.64349e-08
2.38761e-09
7.23917e-09
-8.44186e-08
2.92881e-09
8.85437e-09
-9.01689e-08
3.5841e-09
1.02166e-08
-9.43865e-08
4.32317e-09
1.12018e-08
-9.75353e-08
5.16277e-09
1.16828e-08
-9.97836e-08
6.10368e-09
1.14256e-08
-1.01136e-07
7.12314e-09
1.02937e-08
-1.01867e-07
8.25631e-09
8.39675e-09
-1.02374e-07
9.42027e-09
6.012e-09
-1.02758e-07
1.04016e-08
3.17539e-09
-1.0269e-07
1.10757e-08
4.9614e-11
-1.0263e-07
1.13992e-08
-3.12833e-09
-1.02478e-07
1.13239e-08
-6.02335e-09
-1.02314e-07
1.0908e-08
-8.46036e-09
-1.02377e-07
1.02075e-08
-1.02997e-08
-1.02496e-07
9.21684e-09
-1.13196e-08
-1.01819e-07
8.00229e-09
-1.15677e-08
-1.00961e-07
6.95398e-09
-1.11718e-08
-9.95423e-08
5.98408e-09
-1.02394e-08
-9.74155e-08
5.09307e-09
-8.88426e-09
-9.44223e-08
4.34284e-09
-7.2333e-09
-9.02051e-08
3.69609e-09
-5.43951e-09
-8.43998e-08
3.1079e-09
-3.65179e-09
-7.6419e-08
2.58757e-09
-2.01034e-09
-6.52573e-08
2.08744e-09
-6.94439e-10
-4.90655e-08
1.50848e-09
-2.38498e-08
7.02744e-10
4.78785e-10
-2.46846e-08
4.1227e-10
1.29123e-09
-5.08348e-08
8.66678e-10
2.33413e-09
-6.75591e-08
1.2536e-09
3.46606e-09
-7.9132e-08
1.56515e-09
4.57658e-09
-8.74528e-08
1.92367e-09
5.6159e-09
-9.35445e-08
2.33636e-09
6.48863e-09
-9.80341e-08
2.77483e-09
7.08108e-09
-1.01342e-07
3.21453e-09
7.40035e-09
-1.03796e-07
3.69341e-09
7.21353e-09
-1.05347e-07
4.39818e-09
6.47097e-09
-1.06389e-07
5.26506e-09
5.32222e-09
-1.07287e-07
6.06215e-09
3.81965e-09
-1.07941e-07
6.6854e-09
2.02445e-09
-1.08013e-07
7.11827e-09
5.97945e-11
-1.08024e-07
7.3585e-09
-1.93475e-09
-1.07821e-07
7.33752e-09
-3.76324e-09
-1.07579e-07
7.09352e-09
-5.27229e-09
-1.07517e-07
6.64835e-09
-6.45111e-09
-1.07358e-07
6.04117e-09
-7.17602e-09
-1.06334e-07
5.24002e-09
-7.44603e-09
-1.05085e-07
4.3942e-09
-7.23493e-09
-1.03359e-07
3.60607e-09
-6.59579e-09
-1.01056e-07
3.00127e-09
-5.6516e-09
-9.79537e-08
2.5872e-09
-4.56183e-09
-9.3554e-08
2.25913e-09
-3.41712e-09
-8.74838e-08
1.93927e-09
-2.28767e-09
-7.91703e-08
1.62191e-09
-1.25563e-09
-6.75969e-08
1.30754e-09
-4.34145e-10
-5.08298e-08
9.42788e-10
-2.47228e-08
4.38877e-10
1.74816e-10
-2.49994e-08
1.39961e-10
4.48455e-10
-5.14081e-08
2.99666e-10
8.15296e-10
-6.83734e-08
4.47436e-10
1.21819e-09
-8.00937e-08
5.58842e-10
1.62508e-09
-8.85301e-08
6.7037e-10
2.03732e-09
-9.47201e-08
7.6333e-10
2.42069e-09
-9.92619e-08
8.44392e-10
2.64951e-09
-1.02547e-07
9.75962e-10
2.68158e-09
-1.0501e-07
1.18197e-09
2.53699e-09
-1.06678e-07
1.47574e-09
2.30716e-09
-1.07943e-07
1.78354e-09
1.97015e-09
-1.08994e-07
2.04392e-09
1.33613e-09
-1.09527e-07
2.22045e-09
6.6356e-10
-1.09686e-07
2.34567e-09
3.46494e-11
-1.09866e-07
2.47138e-09
-6.6533e-10
-1.09699e-07
2.57806e-09
-1.32027e-09
-1.09497e-07
2.57296e-09
-1.83798e-09
-1.09403e-07
2.404e-09
-2.24578e-09
-1.0913e-07
2.18e-09
-2.49797e-09
-1.07988e-07
1.90536e-09
-2.60048e-09
-1.06597e-07
1.6152e-09
-2.53645e-09
-1.04758e-07
1.33496e-09
-2.31395e-09
-1.02385e-07
1.10625e-09
-1.98009e-09
-9.92199e-08
9.32368e-10
-1.59208e-09
-9.47299e-08
7.87884e-10
-1.18625e-09
-8.85477e-08
6.58072e-10
-7.87578e-10
-8.01133e-08
5.44278e-10
-4.27342e-10
-6.83951e-08
4.37968e-10
-1.46912e-10
-5.14229e-08
3.12663e-10
-2.50203e-08
1.50572e-10
-1.23516e-10
-2.474e-08
-1.3585e-10
-3.83907e-10
-5.08736e-08
-2.74148e-10
-7.04214e-10
-6.76793e-08
-3.73829e-10
-1.05473e-09
-7.92776e-08
-4.65639e-10
-1.41625e-09
-8.76175e-08
-5.51025e-10
-1.77962e-09
-9.37448e-08
-6.11941e-10
-2.1188e-09
-9.82649e-08
-6.5777e-10
-2.33426e-09
-1.01584e-07
-7.47786e-10
-2.33897e-09
-1.04049e-07
-9.56609e-10
-2.18195e-09
-1.05566e-07
-1.26909e-09
-1.97827e-09
-1.0658e-07
-1.56625e-09
-1.80175e-09
-1.07405e-07
-1.76538e-09
-1.52221e-09
-1.07912e-07
-1.8946e-09
-9.39499e-10
-1.08239e-07
-2.02964e-09
-9.01575e-11
-1.0848e-07
-2.23515e-09
6.07675e-10
-1.08082e-07
-2.31467e-09
1.20846e-09
-1.07876e-07
-2.22139e-09
1.74841e-09
-1.07868e-07
-2.07474e-09
2.04593e-09
-1.07542e-07
-1.88603e-09
2.23695e-09
-1.06514e-07
-1.66431e-09
2.33185e-09
-1.05276e-07
-1.41685e-09
2.28027e-09
-1.03544e-07
-1.16312e-09
2.10176e-09
-1.01242e-07
-9.64195e-10
1.80209e-09
-9.80995e-08
-8.20698e-10
1.45473e-09
-9.36718e-08
-7.10649e-10
1.09436e-09
-8.75809e-08
-6.06371e-10
7.34478e-10
-7.9251e-08
-5.02431e-10
4.08292e-10
-6.76708e-08
-3.9814e-10
1.47116e-10
-5.08852e-08
-2.76541e-10
-2.47444e-08
-1.28763e-10
-4.18745e-10
-2.38986e-08
-4.22742e-10
-1.21676e-09
-4.9171e-08
-9.04543e-10
-2.21292e-09
-6.5427e-08
-1.25614e-09
-3.30385e-09
-7.66267e-08
-1.55995e-09
-4.40001e-09
-8.46444e-08
-1.87702e-09
-5.41609e-09
-9.04974e-08
-2.23136e-09
-6.26028e-09
-9.47925e-08
-2.62828e-09
-6.858e-09
-9.79105e-08
-3.07561e-09
-7.13439e-09
-1.00195e-07
-3.57787e-09
-6.92113e-09
-1.01551e-07
-4.22816e-09
-6.21024e-09
-1.02249e-07
-5.04176e-09
-5.18628e-09
-1.02654e-07
-5.77455e-09
-3.79333e-09
-1.02967e-07
-6.33781e-09
-2.04158e-09
-1.03211e-07
-6.78014e-09
-3.70964e-11
-1.03418e-07
-7.06712e-09
1.89926e-09
-1.02978e-07
-7.04057e-09
3.71994e-09
-1.029e-07
-6.79743e-09
5.31304e-09
-1.03103e-07
-6.35844e-09
6.26896e-09
-1.02745e-07
-5.7526e-09
6.89026e-09
-1.02073e-07
-5.06228e-09
7.16551e-09
-1.01282e-07
-4.26849e-09
6.95971e-09
-9.9898e-08
-3.44002e-09
6.36449e-09
-9.77522e-08
-2.89454e-09
5.45397e-09
-9.46576e-08
-2.53144e-09
4.40823e-09
-9.0421e-08
-2.20515e-09
3.32531e-09
-8.46191e-08
-1.87886e-09
2.23853e-09
-7.66166e-08
-1.54761e-09
1.25133e-09
-6.54599e-08
-1.22364e-09
4.54555e-10
-4.92374e-08
-8.5107e-10
-2.38841e-08
-4.05793e-10
-6.8504e-10
-2.25267e-08
-6.86773e-10
-1.97505e-09
-4.64057e-08
-1.47533e-09
-3.58622e-09
-6.17675e-08
-2.04834e-09
-5.3423e-09
-7.23275e-08
-2.54312e-09
-7.09813e-09
-7.9829e-08
-3.05952e-09
-8.70161e-09
-8.52364e-08
-3.65752e-09
-1.00089e-08
-8.91386e-08
-4.34663e-09
-1.09344e-08
-9.18405e-08
-5.14453e-09
-1.13969e-08
-9.36882e-08
-6.04411e-09
-1.11688e-08
-9.4797e-08
-6.98248e-09
-1.0087e-08
-9.52695e-08
-8.06157e-09
-8.29125e-09
-9.5272e-08
-9.17819e-09
-5.94164e-09
-9.51937e-08
-1.01229e-08
-3.14109e-09
-9.52003e-08
-1.08112e-08
-4.10264e-11
-9.53355e-08
-1.11823e-08
3.04348e-09
-9.4964e-08
-1.10982e-08
5.91645e-09
-9.50285e-08
-1.07441e-08
8.40422e-09
-9.55152e-08
-1.00753e-08
1.00961e-08
-9.53316e-08
-9.10536e-09
1.11189e-08
-9.50597e-08
-8.0363e-09
1.14285e-08
-9.46314e-08
-6.96058e-09
1.10368e-08
-9.36245e-08
-5.88177e-09
1.00687e-08
-9.18334e-08
-4.95068e-09
8.69605e-09
-8.91089e-08
-4.17604e-09
7.07049e-09
-8.52824e-08
-3.51298e-09
5.3481e-09
-7.99746e-08
-2.92217e-09
3.62687e-09
-7.24905e-08
-2.4048e-09
2.0367e-09
-6.19582e-08
-1.91157e-09
7.2756e-10
-4.65841e-08
-1.34416e-09
-2.25079e-08
-6.48569e-10
-9.14352e-10
-2.07043e-08
-9.08106e-10
-2.61208e-09
-4.27534e-08
-1.95457e-09
-4.73654e-09
-5.69157e-08
-2.72732e-09
-7.05552e-09
-6.6641e-08
-3.36758e-09
-9.38482e-09
-7.3479e-08
-4.0207e-09
-1.15425e-08
-7.82958e-08
-4.78285e-09
-1.33385e-08
-8.16433e-08
-5.69933e-09
-1.45516e-08
-8.38491e-08
-6.77828e-09
-1.50463e-08
-8.52102e-08
-7.98326e-09
-1.46931e-08
-8.59192e-08
-9.23103e-09
-1.33699e-08
-8.61215e-08
-1.04712e-08
-1.10032e-08
-8.58989e-08
-1.17397e-08
-7.81546e-09
-8.54422e-08
-1.29393e-08
-4.09497e-09
-8.51033e-08
-1.38175e-08
-3.33078e-11
-8.51142e-08
-1.4283e-08
4.01893e-09
-8.48506e-08
-1.41656e-08
7.77648e-09
-8.50606e-08
-1.37255e-08
1.10141e-08
-8.58039e-08
-1.29489e-08
1.33393e-08
-8.59812e-08
-1.16757e-08
1.46779e-08
-8.60777e-08
-1.03205e-08
1.50668e-08
-8.59012e-08
-9.11905e-09
1.45961e-08
-8.52304e-08
-7.92338e-09
1.33824e-08
-8.38844e-08
-6.7354e-09
1.16072e-08
-8.16717e-08
-5.66202e-09
9.45555e-09
-7.83706e-08
-4.76015e-09
7.14128e-09
-7.36838e-08
-3.97653e-09
4.84899e-09
-6.69915e-08
-3.20673e-09
2.71152e-09
-5.73398e-08
-2.48094e-09
9.58025e-10
-4.30794e-08
-1.75119e-09
-2.06919e-08
-8.58039e-10
-1.09244e-09
-1.85303e-08
-1.08154e-09
-3.11176e-09
-3.84181e-08
-2.31598e-09
-5.66612e-09
-5.1124e-08
-3.2373e-09
-8.48472e-09
-5.98114e-08
-4.01098e-09
-1.12972e-08
-6.58676e-08
-4.79892e-09
-1.38628e-08
-7.00408e-08
-5.68945e-09
-1.5962e-08
-7.28087e-08
-6.73546e-09
-1.73656e-08
-7.44972e-08
-7.94822e-09
-1.78898e-08
-7.53688e-08
-9.31728e-09
-1.73951e-08
-7.56297e-08
-1.07842e-08
-1.58124e-08
-7.54618e-08
-1.22424e-08
-1.30952e-08
-7.50268e-08
-1.35894e-08
-9.28599e-09
-7.44207e-08
-1.48307e-08
-4.82057e-09
-7.37468e-08
-1.5822e-08
-2.42779e-11
-7.35221e-08
-1.63884e-08
4.75512e-09
-7.33339e-08
-1.62962e-08
9.20719e-09
-7.37031e-08
-1.58096e-08
1.30123e-08
-7.46342e-08
-1.49748e-08
1.57649e-08
-7.50809e-08
-1.36529e-08
1.73867e-08
-7.54774e-08
-1.2222e-08
1.78987e-08
-7.56478e-08
-1.07655e-08
1.73834e-08
-7.53986e-08
-9.31648e-09
1.59854e-08
-7.45353e-08
-7.9512e-09
1.38983e-08
-7.28496e-08
-6.73494e-09
1.13275e-08
-7.00945e-08
-5.70529e-09
8.49647e-09
-6.59844e-08
-4.86829e-09
5.68235e-09
-6.00544e-08
-4.12302e-09
3.14308e-09
-5.14588e-08
-3.34177e-09
1.10068e-09
-3.86677e-08
-2.36933e-09
-1.85119e-08
-1.07925e-09
-1.21276e-09
-1.60873e-08
-1.23026e-09
-3.50834e-09
-3.34691e-08
-2.65346e-09
-6.38291e-09
-4.45962e-08
-3.65325e-09
-9.52392e-09
-5.21798e-08
-4.49064e-09
-1.26503e-08
-5.74069e-08
-5.33433e-09
-1.54965e-08
-6.09098e-08
-6.28487e-09
-1.78054e-08
-6.31087e-08
-7.3911e-09
-1.93353e-08
-6.43006e-08
-8.66683e-09
-1.98791e-08
-6.47228e-08
-1.01022e-08
-1.92832e-08
-6.45801e-08
-1.16455e-08
-1.74663e-08
-6.40693e-08
-1.32094e-08
-1.44314e-08
-6.3386e-08
-1.46757e-08
-1.02487e-08
-6.26642e-08
-1.59392e-08
-5.28288e-09
-6.18598e-08
-1.68529e-08
-1.60364e-11
-6.13887e-08
-1.74002e-08
5.26194e-09
-6.12689e-08
-1.73429e-08
1.02125e-08
-6.17765e-08
-1.68771e-08
1.43742e-08
-6.27293e-08
-1.60666e-08
1.74298e-08
-6.34069e-08
-1.47297e-08
1.92655e-08
-6.40883e-08
-1.32248e-08
1.98763e-08
-6.46016e-08
-1.1657e-08
1.93421e-08
-6.47504e-08
-1.01141e-08
1.78196e-08
-6.43346e-08
-8.67818e-09
1.55176e-08
-6.3149e-08
-7.39866e-09
1.26737e-08
-6.09563e-08
-6.29439e-09
9.5284e-09
-5.74695e-08
-5.36961e-09
6.35514e-09
-5.22971e-08
-4.58405e-09
3.47433e-09
-4.47874e-08
-3.79052e-09
1.20496e-09
-3.36548e-08
-2.74347e-09
-1.60725e-08
-1.2345e-09
-1.26784e-09
-1.34968e-08
-1.32266e-09
-3.73521e-09
-2.81496e-08
-2.85212e-09
-6.80551e-09
-3.76427e-08
-3.88316e-09
-1.01416e-08
-4.40895e-08
-4.75409e-09
-1.34591e-08
-4.84632e-08
-5.62621e-09
-1.64706e-08
-5.13039e-08
-6.59436e-09
-1.89026e-08
-5.29682e-08
-7.70852e-09
-2.04994e-08
-5.37183e-08
-8.9855e-09
-2.10416e-08
-5.3771e-08
-1.04096e-08
-2.03701e-08
-5.33217e-08
-1.19299e-08
-1.8406e-08
-5.25591e-08
-1.34743e-08
-1.51535e-08
-5.16824e-08
-1.49561e-08
-1.07763e-08
-5.0808e-08
-1.62334e-08
-5.5473e-09
-4.99914e-08
-1.70975e-08
-8.36873e-12
-4.94173e-08
-1.75104e-08
5.54774e-09
-4.93681e-08
-1.74569e-08
1.07546e-08
-4.99396e-08
-1.70437e-08
1.51146e-08
-5.08461e-08
-1.62432e-08
1.83707e-08
-5.16985e-08
-1.49645e-08
2.03473e-08
-5.25746e-08
-1.34903e-08
2.10315e-08
-5.33395e-08
-1.19463e-08
2.05002e-08
-5.37948e-08
-1.04243e-08
1.89125e-08
-5.37478e-08
-8.99906e-09
1.6485e-08
-5.30029e-08
-7.71863e-09
1.34762e-08
-5.13442e-08
-6.60328e-09
1.01557e-08
-4.85101e-08
-5.63901e-09
6.80001e-09
-4.41531e-08
-4.78824e-09
3.72104e-09
-3.77587e-08
-3.94982e-09
1.27862e-09
-2.83168e-08
-2.89565e-09
-1.34775e-08
-1.31641e-09
-1.30789e-09
-1.08437e-08
-1.34522e-09
-3.82201e-09
-2.27538e-08
-2.88169e-09
-6.9522e-09
-3.05655e-08
-3.94709e-09
-1.03629e-08
-3.58489e-08
-4.82988e-09
-1.37551e-08
-3.93776e-08
-5.69348e-09
-1.68311e-08
-4.15892e-08
-6.63875e-09
-1.93063e-08
-4.27759e-08
-7.71706e-09
-2.09175e-08
-4.31638e-08
-8.94331e-09
-2.14428e-08
-4.29464e-08
-1.02993e-08
-2.07271e-08
-4.22976e-08
-1.17398e-08
-1.86842e-08
-4.13992e-08
-1.32028e-08
-1.53399e-08
-4.04157e-08
-1.46109e-08
-1.09421e-08
-3.94389e-08
-1.57668e-08
-5.70787e-09
-3.867e-08
-1.65557e-08
-4.49358e-11
-3.81707e-08
-1.69095e-08
5.59125e-09
-3.81174e-08
-1.68869e-08
1.08042e-08
-3.86073e-08
-1.65453e-08
1.52704e-08
-3.94893e-08
-1.5823e-08
1.86485e-08
-4.04323e-08
-1.46443e-08
2.07014e-08
-4.14064e-08
-1.32211e-08
2.14294e-08
-4.23101e-08
-1.17573e-08
2.09135e-08
-4.2964e-08
-1.0315e-08
1.93103e-08
-4.31877e-08
-8.95692e-09
1.68403e-08
-4.28036e-08
-7.72927e-09
1.37669e-08
-4.16206e-08
-6.65018e-09
1.03749e-08
-3.94138e-08
-5.70424e-09
6.95855e-09
-3.5891e-08
-4.84575e-09
3.81347e-09
-3.06266e-08
-3.98699e-09
1.29534e-09
-2.28572e-08
-2.94148e-09
-1.08336e-08
-1.34858e-09
-1.29639e-09
-8.23209e-09
-1.3152e-09
-3.75829e-09
-1.74781e-08
-2.81374e-09
-6.84121e-09
-2.36163e-08
-3.86627e-09
-1.02137e-08
-2.77563e-08
-4.7201e-09
-1.35751e-08
-3.04729e-08
-5.54336e-09
-1.6627e-08
-3.21024e-08
-6.43497e-09
-1.90786e-08
-3.28804e-08
-7.44385e-09
-2.06669e-08
-3.29925e-08
-8.58305e-09
-2.11741e-08
-3.26012e-08
-9.83794e-09
-2.04439e-08
-3.18629e-08
-1.11649e-08
-1.84032e-08
-3.09311e-08
-1.25089e-08
-1.51146e-08
-2.99364e-08
-1.3768e-08
-1.07876e-08
-2.89946e-08
-1.47713e-08
-5.65499e-09
-2.82934e-08
-1.55092e-08
-5.09e-11
-2.79038e-08
-1.5871e-08
5.51934e-09
-2.78453e-08
-1.58424e-08
1.0658e-08
-2.8245e-08
-1.5501e-08
1.50425e-08
-2.90382e-08
-1.48355e-08
1.83675e-08
-2.99552e-08
-1.38021e-08
2.04162e-08
-3.09341e-08
-1.2521e-08
2.11551e-08
-3.18697e-08
-1.11793e-08
2.06598e-08
-3.26146e-08
-9.8541e-09
1.90792e-08
-3.3009e-08
-8.59809e-09
1.66323e-08
-3.29008e-08
-7.45589e-09
1.3584e-08
-3.21265e-08
-6.44583e-09
1.02246e-08
-3.05004e-08
-5.55394e-09
6.84925e-09
-2.7785e-08
-4.73072e-09
3.75836e-09
-2.36525e-08
-3.88318e-09
1.28173e-09
-1.75324e-08
-2.84812e-09
-8.23421e-09
-1.31762e-09
-1.22405e-09
-5.77673e-09
-1.23131e-09
-3.55107e-09
-1.25133e-08
-2.63782e-09
-6.48324e-09
-1.7059e-08
-3.62512e-09
-9.71282e-09
-2.01106e-08
-4.41616e-09
-1.29503e-08
-2.20655e-08
-5.16988e-09
-1.5902e-08
-2.3171e-08
-5.97974e-09
-1.82779e-08
-2.3609e-08
-6.8955e-09
-1.98195e-08
-2.35251e-08
-7.92588e-09
-2.03115e-08
-2.30523e-08
-9.05682e-09
-1.96038e-08
-2.23161e-08
-1.02546e-08
-1.76259e-08
-2.14363e-08
-1.14726e-08
-1.44794e-08
-2.05206e-08
-1.25623e-08
-1.03255e-08
-1.97023e-08
-1.34463e-08
-5.40668e-09
-1.90987e-08
-1.41135e-08
-4.42851e-11
-1.87885e-08
-1.44777e-08
5.28868e-09
-1.8741e-08
-1.44372e-08
1.02162e-08
-1.90678e-08
-1.41048e-08
1.44135e-08
-1.97288e-08
-1.35067e-08
1.75913e-08
-2.05359e-08
-1.25972e-08
1.95748e-08
-2.14417e-08
-1.14759e-08
2.02915e-08
-2.23201e-08
-1.02663e-08
1.98095e-08
-2.30601e-08
-9.0725e-09
1.82768e-08
-2.3536e-08
-7.94024e-09
1.59058e-08
-2.36224e-08
-6.90747e-09
1.29575e-08
-2.31878e-08
-5.9905e-09
9.71927e-09
-2.20835e-08
-5.17866e-09
6.48889e-09
-2.013e-08
-4.4247e-09
3.5551e-09
-1.70839e-08
-3.63482e-09
1.2213e-09
-1.25458e-08
-2.65282e-09
-5.78037e-09
-1.23254e-09
-1.09094e-09
-3.59323e-09
-1.09256e-09
-3.18804e-09
-8.06806e-09
-2.34813e-09
-5.87344e-09
-1.1157e-08
-3.21658e-09
-8.86637e-09
-1.32164e-08
-3.90121e-09
-1.18969e-08
-1.44829e-08
-4.55206e-09
-1.46826e-08
-1.51321e-08
-5.25327e-09
-1.69386e-08
-1.5301e-08
-6.05206e-09
-1.84126e-08
-1.50966e-08
-6.95449e-09
-1.88981e-08
-1.46179e-08
-7.94893e-09
-1.82507e-08
-1.39579e-08
-9.00562e-09
-1.64139e-08
-1.32027e-08
-1.00704e-08
-1.34863e-08
-1.24497e-08
-1.09986e-08
-9.61059e-09
-1.17914e-08
-1.17867e-08
-5.02418e-09
-1.13068e-08
-1.23783e-08
-3.75787e-11
-1.10585e-08
-1.27166e-08
4.92486e-09
-1.10305e-08
-1.26729e-08
9.51176e-09
-1.12889e-08
-1.23658e-08
1.34134e-08
-1.17996e-08
-1.18308e-08
1.6371e-08
-1.24556e-08
-1.10378e-08
1.82217e-08
-1.32066e-08
-1.00859e-08
1.88779e-08
-1.39602e-08
-9.01596e-09
1.84021e-08
-1.46219e-08
-7.96247e-09
1.69358e-08
-1.51025e-08
-6.96716e-09
1.46842e-08
-1.53089e-08
-6.06191e-09
1.19011e-08
-1.51415e-08
-5.26319e-09
8.87073e-09
-1.44937e-08
-4.55935e-09
5.87909e-09
-1.32308e-08
-3.90751e-09
3.19582e-09
-1.11799e-08
-3.22077e-09
1.0935e-09
-8.09251e-09
-2.35096e-09
-3.59572e-09
-1.09115e-09
-8.91829e-10
-1.81079e-09
-8.90612e-10
-2.66447e-09
-4.37918e-09
-1.91625e-09
-5.00194e-09
-6.21459e-09
-2.60497e-09