/*--------------------------------*- C++ -*----------------------------------*\
| =========                 |                                                 |
| \\      /  F ield         | OpenFOAM: The Open Source CFD Toolbox           |
|  \\    /   O peration     | Version:  v1912                                 |
|   \\  /    A nd           | Website:  www.openfoam.com                      |
|    \\/     M anipulation  |                                                 |
\*---------------------------------------------------------------------------*/
FoamFile
{
    version     2.0;
    format      ascii;
    class       volScalarField;
    location    "476/oil";
    object      heatTransferCoeff(T);
}
// * * * * * * * * * * * * * * * * * * * * * * * * * * * * * * * * * * * * * //

dimensions      [1 0 -3 -1 0 0 0];


internalField   uniform 0;

boundaryField
{
    maxY
    {
        type            calculated;
        value           uniform 0;
    }
    minX
    {
        type            calculated;
        value           uniform 0;
    }
    maxX
    {
        type            calculated;
        value           uniform 0;
    }
    minY
    {
        type            calculated;
        value           uniform 0;
    }
    minZ
    {
        type            calculated;
        value           uniform 0;
    }
    maxZ
    {
        type            calculated;
        value           uniform 0;
    }
    oil_to_sphere
    {
        type            calculated;
        value           nonuniform List<scalar> 
1536
(
-11.7571
-6.52804
-6.39478
3.1001
3.31491
-6.28852
-2.05745
-3.81979
-3.19339
2.26056
6.10827
1.53855
-3.10257
1.35036
7.3167
-1.49667
-6.29705
-6.64703
-1.22004
-2.82693
-5.03412
-3.2812
-3.64294
-1.44024
-1.94741
-1.69285
-1.93559
-0.801991
-5.97132
-3.44164
-7.53825
-6.56788
-6.74423
-1.55885
-1.86357
-0.85228
-1.34017
0.195246
-0.763789
-1.91123
-0.553885
-1.31065
-3.01394
-4.07684
-5.35823
-1.84595
-4.89952
-3.54127
6.90314
-1.65963
-4.54481
-3.26412
-3.44167
-1.44083
-5.80247
-9.37443
-3.58816
-2.83766
-4.94575
-4.46908
-2.87923
-3.04837
-2.77319
-1.30067
-1.8065
-2.65102
-2.81442
-4.66078
-4.62494
-5.78491
-1.27509
3.35086
1.65351
-1.70537
-1.68508
-9.72162
-6.81326
0.165726
-1.50821
-6.46119
-5.10436
-4.3252
3.04721
3.18129
-5.94561
-10.7393
4.41021
-2.37217
-4.47187
-4.44839
-3.17626
-1.02752
-0.937825
-1.1761
-1.67481
-4.03429
-4.97677
-5.33896
-7.19627
-4.32817
-5.13828
-1.20142
-11.8335
-4.58528
1.88222
-1.58192
-2.01495
2.73413
2.78903
-11.9599
-6.76154
-3.78662
-3.00967
-3.6498
3.79647
3.30259
4.83035
-8.41385
-11.2652
-7.04638
-3.4189
-3.65023
-0.704248
-4.9163
-7.48356
-4.04922
-3.38957
-0.360351
-5.23813
-4.93593
-2.67114
-4.72399
-5.73598
-2.07446
-2.39477
-6.05286
-3.6802
-6.50038
-0.456329
-6.3503
-3.24478
-4.87397
-4.92821
-3.08667
-2.48696
-2.9699
-4.14141
-8.14591
-2.37034
-12.054
-5.57948
-6.28608
-3.58822
-3.874
-1.71844
-4.03254
-6.02749
-4.77372
-12.8975
-7.12406
-6.74855
-8.38433
0.936467
0.10901
-1.0974
-1.01473
-5.74548
-7.93736
-7.20693
-9.36682
-0.772564
-1.09626
0.121228
-4.98378
-3.36199
-3.85573
-10.2886
0.735687
1.9898
-10.7457
-0.914182
0.0272503
0.232978
-0.261393
-4.39644
-10.7471
-7.1593
-0.52903
1.13993
-6.55956
0.805976
-5.65925
-5.67592
-7.9989
1.59897
8.46176
-7.79692
-8.52178
-1.90725
-1.65575
-3.28235
-2.12354
-6.63546
-7.73379
-5.44337
-4.33769
-1.11835
-8.14131
-7.22939
-3.74872
-0.359082
-1.80477
-1.59287
-2.1681
-5.07145
-9.53333
1.21285
1.43651
1.27361
9.17997
-6.26529
-5.01705
-4.28683
-3.23065
-3.45114
-8.14297
-5.61952
-1.68755
-6.29144
2.22631
-0.867438
8.23436
-3.0736
-5.91276
-7.82277
-7.27447
-6.29971
-5.2066
-7.03404
1.64899
0.895584
0.320723
-8.6477
-0.0845592
8.34888
4.63241
-5.06463
-2.80348
-10.3555
-12.6758
-3.73665
3.20178
9.03137
-4.45131
-7.04011
-1.19013
-1.34982
4.02223
-0.997338
-8.13114
-10.9375
-2.75541
-1.3321
-9.1196
-7.17812
-1.76228
1.80447
-2.36788
-9.70162
-8.45968
-5.21844
-5.69074
-7.60487
0.242586
-1.55942
-7.87657
-5.68188
-6.37763
-3.00879
-6.29606
-9.38795
-5.38288
-4.95673
-8.83164
-1.2174
-1.15782
-1.60041
-0.770964
-1.0701
-8.0698
-9.87249
1.68896
-2.24394
-1.96461
-2.15702
-0.516223
-3.44974
-2.94873
0.0308616
3.95926
-0.937391
1.48081
-0.491897
-10.7571
-8.95526
-8.85303
-12.1562
0.564279
0.186073
-3.21182
-12.0793
-10.8481
-0.864994
-3.0427
-0.59455
-5.58228
-1.4317
-4.92456
-5.35861
-6.81975
-5.83955
-1.85096
-6.01562
-0.884739
-7.63262
-8.3055
-6.47834
-6.04841
-0.125225
-10.0056
-9.74872
-5.42428
1.71625
-1.16003
-2.07393
-5.37802
-4.86486
-5.64959
0.0447931
-7.54664
-7.5943
-6.88021
-8.82191
-4.70525
-4.04553
-2.82291
0.91111
-4.06269
-5.4728
0.952957
1.32352
0.398576
-11.4951
-7.4266
-8.81786
-4.82507
-3.95031
-7.9278
1.19681
-10.3651
-6.82289
-4.06773
-3.95181
1.53901
-6.74376
-7.31005
-0.313605
-4.08232
-2.71026
-1.34513
-5.5916
-7.45972
-3.00877
-1.71991
0.535664
-9.54619
-7.67175
1.3744
-7.97464
-7.23263
-6.26482
-9.53545
-4.00169
-5.86501
2.39973
1.54701
-5.33352
-11.9641
-6.49345
-10.2951
-4.74079
-2.03029
-7.16683
0.442511
-0.556526
-4.86429
-7.36468
-5.6688
-4.88462
0.229897
0.177142
-7.89607
-7.51496
-7.68501
-3.86964
-1.0067
-5.02189
-6.06043
-7.31054
-4.17462
-2.37036
-0.120002
-3.72067
0.698268
2.72027
-1.14633
-0.178021
-3.80809
2.21249
-2.09663
-9.98202
-1.97704
-1.91304
-7.30057
-7.24492
-5.49891
-2.72907
1.00277
-6.44186
-8.89041
-5.2345
-4.22623
-6.65495
-3.05572
-3.61449
-4.73129
3.10327
-5.11711
-7.60868
-8.76259
-7.10425
-5.92453
-5.71823
-4.2276
-2.48761
0.433905
-3.38039
-0.138881
1.52277
-0.615267
2.74075
-10.9158
-10.1987
-8.34491
-11.6211
0.668117
-10.9904
0.0820291
-0.943902
-6.26836
1.06053
0.245833
-2.15975
-1.99989
-10.3775
-8.90621
-4.7501
-5.11327
-9.45244
-7.92691
-4.17432
-6.01734
-0.444324
-7.37947
1.71556
-8.70169
3.14924
-5.75813
-6.40791
-7.09617
-1.82029
0.469114
-2.63162
-7.26194
-2.87653
2.09335
-7.32347
-7.74753
-8.30903
-12.4071
-4.0666
-9.30241
0.610569
-0.0452954
6.68218
4.60877
-4.16152
-2.15101
-1.46965
-0.61857
-11.3619
0.294
1.16964
1.89315
-2.1102
2.33199
-12.8236
-0.376458
-0.76549
-3.40564
5.9797
4.11324
-1.18545
-1.04802
-3.02296
-1.70481
-7.71314
-7.07797
-5.74357
-4.12051
2.58645
-1.44202
-6.87185
0.444337
-0.336122
-6.45584
-9.61225
-0.409876
6.75539
0.903904
6.13175
-3.3033
-1.83687
-0.782658
1.76451
5.98426
-5.59263
-6.33347
-4.90347
-3.1978
-9.73918
-5.7633
-5.40423
-3.95714
-0.0872353
-1.63149
-7.68833
-5.74815
-2.30418
4.80325
-4.31652
-6.61188
-10.0396
-4.49223
-1.08548
-10.0983
-3.36815
-9.37437
-0.396625
-1.86395
0.282869
-1.97605
-4.41487
-9.63375
0.770034
-0.753543
-0.0605279
-2.09456
-12.9974
1.80087
-1.55706
1.24321
-3.39774
-4.38864
-7.73013
-9.76126
2.67763
1.68357
-9.67281
-10.2826
3.60032
-9.31123
-7.9977
-6.47605
-7.8028
-5.39056
-3.71459
-4.01097
-9.49413
-4.14176
-5.49761
-3.7028
-7.33273
-4.50958
-3.31162
-2.95054
0.902548
-6.46734
-3.13515
-7.2403
-5.89142
-5.99731
-5.72634
-4.17934
1.55575
-7.83841
-7.79275
-5.55908
-3.25496
-4.62249
-11.7911
2.45336
-0.307227
0.699957
-4.24145
-0.41594
-11.8511
-1.98492
-2.51586
-3.51079
6.58084
5.70184
-1.34596
-1.24204
-4.00636
0.279892
-0.66606
-4.37815
-0.746515
-9.8092
1.02129
-11.5351
-1.81689
-4.10402
8.4066
5.90484
6.75295
-0.784623
-6.48825
-1.52559
-0.800171
6.05752
-3.80707
-6.72367
-3.90858
-14.2142
-0.400806
-7.69987
-5.36852
-6.68545
-8.14112
-7.91155
-6.61469
-3.4119
-2.36151
-3.36077
-6.68106
-2.73037
-4.97319
-4.41277
-4.86519
-7.12659
-5.7534
-6.43767
1.02642
-0.166154
8.60617
3.95271
2.85208
11.6568
-1.16194
-1.71689
-2.74428
-3.29153
2.72839
0.808006
-2.28804
-8.48828
-7.87386
-2.1886
1.96371
-3.08084
-6.96309
-5.45538
-3.56936
2.34443
-0.398244
-5.63523
-4.60664
-3.47344
-1.3293
-6.12105
-6.19484
-9.5346
-6.27799
-4.26281
-1.7124
-0.584962
0.985185
-0.975687
-2.78
-12.1364
-4.16859
-10.7255
-0.322363
-12.5438
-1.17963
-2.92668
0.630174
0.125583
-1.76312
1.13453
-2.6351
2.25108
-1.41361
-7.59004
-2.08461
1.43382
-9.87563
-5.9576
-5.06994
-3.11967
-9.27579
-14.9667
3.86636
-5.81863
-4.71522
-5.47986
1.16673
-3.21232
-0.563582
-4.79872
-6.26201
-7.96851
-0.0309674
-5.60001
-3.91059
-6.19524
-5.86968
-5.37119
-2.1967
-2.81326
-1.46801
2.04178
2.60651
0.352842
-9.10171
-1.4324
1.20763
-1.58054
-7.73646
-2.57885
-9.04547
-7.04148
-5.20667
-4.24959
-5.09529
-10.164
0.340974
-5.73807
-7.99765
-8.56649
-4.14395
-0.525841
-2.4384
-5.10807
-8.71562
0.712019
-2.87399
-3.9789
-7.60924
-5.14769
-5.01295
-9.23752
0.612121
-0.743092
-0.0772984
-10.1846
-7.90126
-4.05094
-7.56118
-0.805698
-1.39931
-7.54269
-4.9609
-9.57876
0.100104
-6.7386
-7.35783
-4.40946
-4.83865
-6.437
0.0251842
2.89366
-3.66009
-4.99742
-10.315
-3.00599
-1.06355
-3.35918
-5.16772
-6.65103
-4.26234
-0.634551
-3.05057
-7.32578
0.676902
-0.669501
-3.06403
-1.34101
-4.6917
-4.2272
-8.45499
-5.44172
-7.08435
-1.54832
-3.39438
-4.68265
-3.2301
-2.43592
-1.6992
-1.63716
0.503395
-6.05253
-4.54943
-4.56359
-5.2278
1.68466
-1.99855
-9.98393
-10.1159
-0.648717
-7.67339
-5.14361
-6.02716
-1.54935
-8.62464
-8.28017
0.203839
-2.57477
-1.91697
-1.69593
1.88769
0.782916
-1.91904
-8.14473
-11.7629
-1.08415
-6.38951
-6.03114
-5.04255
-2.73898
-4.72028
-8.41327
-4.48614
0.0477412
-2.0364
-1.57852
-1.78136
-5.48203
-5.96419
-6.07682
-6.34046
-6.28777
-0.667779
-6.6132
-2.16031
-5.7578
5.98935
-5.24565
-8.96112
-2.4152
3.87365
-3.52384
-2.80057
-10.7343
-0.163278
-6.61992
-3.31056
2.97575
-9.77666
1.45337
-2.88347
-3.73832
1.74834
-7.67557
-4.78298
-2.72942
-3.99362
-4.7456
-2.88427
-11.0365
1.33235
-1.8184
7.36894
-2.12396
-2.45493
-3.91016
-7.62985
-15.2877
2.21272
-1.86315
-13.5881
1.41873
-6.22158
-0.524251
-6.01463
4.32543
-0.174992
-13.4124
3.31448
-12.2032
2.46122
-10.4557
2.92789
-0.0996545
6.83878
1.34066
-12.6801
5.43082
-3.19954
3.34389
-9.21719
-12.751
5.15484
-2.41701
-1.2087
0.0307848
0.194524
-1.95953
-3.79505
-3.7687
-5.88282
-3.36928
-9.39488
-14.0169
5.27374
-3.6967
-5.25348
-3.79172
-4.40263
-3.10031
-2.41396
-3.0815
-6.9226
-3.20044
-7.03156
-1.7442
-4.53066
-8.95934
-2.38145
-5.68894
-7.77021
-1.72625
-4.53039
-3.32469
-5.81628
-2.90769
-4.10356
-2.51365
-7.51182
-2.06853
-5.02138
2.52889
-9.60924
4.90455
-4.9348
-7.28024
-9.86747
-0.286132
-4.30647
-3.38834
-4.31163
-3.88632
-3.18691
-6.83846
0.3194
8.6252
-2.35199
3.81197
-7.92247
-0.37876
-3.64948
-6.06303
7.96207
-8.58796
0.557249
6.2929
0.00925258
-6.26228
-5.93719
-3.85411
5.32789
-3.75731
-4.51159
-1.03415
-0.417107
-8.08339
-7.36739
-1.4479
-3.99516
-8.11403
5.20932
-6.7953
-0.304837
-5.6975
4.72333
-11.6974
-11.3376
-7.3659
-3.74756
-2.40806
-6.07157
-2.20028
5.40342
0.697604
-6.42657
-0.540055
-5.2996
3.90911
-7.78804
-5.6574
10.4793
-3.7866
-4.79066
7.61748
-8.7505
2.65596
-8.00831
-9.68217
-6.72583
6.10454
-4.06834
-2.6224
-3.84822
-4.17642
-5.35467
5.12243
-1.63038
-0.673441
-0.696548
-7.63682
-3.56686
-4.82696
-5.95193
-5.68712
-2.55028
-4.24517
-2.79994
-4.98154
-8.22944
-1.44124
-2.32948
-1.17319
-4.10652
-7.22648
-1.37566
-2.20393
-1.79717
-3.63891
-0.638896
-1.01116
-2.15979
-2.51338
-4.15688
-1.99253
-9.57948
-6.8337
3.48808
3.38053
-8.77588
11.6228
-6.54829
-4.475
-0.613786
-2.52284
-8.95843
7.9834
-7.92759
-4.83808
5.71917
-1.85431
-1.00488
-3.58442
8.4709
-8.781
-4.96476
7.8059
-8.39905
-8.45679
4.47909
-9.91729
-7.34454
4.35199
-1.13339
-0.654205
7.87313
-3.76343
-4.29437
0.657024
-0.308441
0.145164
10.1667
-0.202627
8.3734
10.7917
-7.5579
-1.17245
-12.6988
-1.40945
5.18073
-8.87669
-2.77711
6.89103
-1.42353
-1.18509
7.00378
3.36476
-8.45086
13.1468
0.659931
1.60188
11.6754
-7.90537
-7.00986
-3.72686
-2.10536
-1.09225
0.615696
9.19917
-3.8797
-2.19338
-2.40168
-3.7421
6.2723
-6.28074
-1.45986
-3.18407
-1.02915
-3.02276
-4.12792
0.920871
5.84938
-1.9392
-4.27156
-1.36329
-2.08609
-3.32543
-0.288762
-2.29785
6.50746
-1.43956
-4.77357
-1.10238
-2.56056
-0.428397
5.69751
-8.91793
-8.72651
-8.35637
-9.89276
4.53062
7.54537
-1.52085
-6.50558
-4.27308
-6.17008
-6.90862
0.643366
1.64703
7.41971
5.18621
-0.26802
-3.25059
-2.95185
-2.73886
1.63591
-7.63363
-4.88747
4.25189
-0.0856595
0.845403
-6.81045
-0.38881
9.25512
-3.16554
-3.52348
-7.87982
6.67555
-1.07205
-4.13844
-1.73312
-2.54252
-5.99186
-3.13133
0.510338
-10.4143
10.8844
2.47661
-2.61786
-0.331812
-1.97575
-9.8362
-5.04917
-3.55156
2.23675
-9.00956
-1.62235
-4.11294
-6.89817
-7.87802
-7.49778
-7.84524
-9.4761
-10.549
-9.29359
-9.31067
-3.57704
-7.1236
-1.42787
-2.51985
1.79355
3.01131
10.0211
-10.0367
-9.72745
-8.3346
-2.3101
-4.15596
-3.83843
-0.487971
-4.41052
-7.0538
0.356917
-2.78953
-5.76539
-1.10146
-1.53514
-1.29888
-2.24414
-0.260204
-2.09513
-1.69396
4.69434
-4.09512
0.284618
-2.75401
6.99588
-9.97965
-2.96542
-0.811404
-0.0793355
4.15056
-3.48704
-0.941831
7.79841
2.40809
-2.85388
3.19969
1.98985
-10.7725
-11.2946
-1.73553
-1.78193
-6.38759
-9.76645
7.91807
-0.380298
-0.251602
-2.00593
-1.96874
-2.37067
-3.08142
1.74654
5.53257
-8.72962
-1.8545
2.70375
1.83754
-1.73951
-3.6369
4.06626
-2.42605
-0.450616
-1.42636
-9.85322
2.56212
5.36847
-1.95298
-1.06912
-0.236234
5.41014
-7.90407
-1.65671
-1.4653
-1.69835
7.73198
-1.714
-1.9567
5.18232
-1.59132
2.43288
-4.91674
-8.61704
-0.461317
-7.12757
-4.71253
-0.645651
-0.822605
-2.11392
5.40139
-4.58693
-5.24816
-1.24172
6.69099
0.964432
-2.6208
-2.96211
-0.546655
5.91035
-0.737367
-7.89665
-4.70648
-0.833243
-10.6277
2.52226
-6.81105
7.53891
2.79112
-7.20887
7.73501
-7.56403
-0.736908
-3.61486
-1.44165
-11.1292
1.4235
-3.7352
-9.87985
-8.95899
3.58161
-8.63657
-9.86247
11.3628
-2.39839
-1.03304
7.25218
-5.17132
-0.92707
-1.47952
-1.4964
-3.15514
-2.41487
-1.25142
-0.833101
7.55424
-5.17398
-3.59294
-3.33169
-4.0926
-2.31006
-0.625823
0.898175
-6.23532
8.98672
-0.127448
0.177705
8.56969
-7.32002
-10.3355
-2.80856
-8.3195
-8.97001
-0.436858
-0.500593
-5.12601
-8.2678
-0.251807
-5.71653
1.86569
7.2463
-6.38679
0.296392
-7.88314
-10.5798
-9.70804
6.67829
-6.93195
-3.72283
0.547635
-1.20022
-1.98552
-0.972633
6.48412
-8.16874
6.15303
-7.9926
-2.23743
1.86543
2.81156
-2.27711
-5.91935
-9.31867
-3.43532
-12.1235
-6.51539
-7.62034
7.9804
-7.0738
-6.14129
-7.89953
-0.40167
0.422788
9.0621
-2.89261
-11.7259
-8.35116
5.64276
1.5225
6.28572
-0.396232
-3.09907
1.98516
-14.4526
-1.49884
1.48735
5.39644
-4.63863
0.321067
8.32758
-2.50592
-0.864786
-1.0329
-1.19563
-1.26915
5.3028
1.87352
7.18668
-0.903816
-6.45181
-4.95532
-8.62529
-7.87885
-0.138049
0.87341
7.61602
-0.705175
-5.91345
-9.14233
-6.4945
-6.83324
2.66674
8.68402
1.33659
9.40945
-6.34719
-6.72777
0.866909
-7.49158
-6.22179
-8.66636
-4.3359
-3.62888
-3.48569
-0.137739
7.78919
1.14143
6.74213
2.20666
-1.2021
-0.541369
4.66397
6.7483
-5.64469
-11.7809
-10.6221
-9.71021
-3.35819
-5.48589
-5.29078
-2.87148
-1.17006
-2.88393
0.562162
-2.20983
-2.25562
6.68957
-6.18176
-1.83331
1.49543
4.84649
-0.772382
-3.24519
-3.1895
-0.559648
4.79751
-9.38653
-4.58334
-0.986441
-10.5112
0.375753
7.11473
-4.92938
-2.22645
-2.28902
-2.29337
-0.698218
9.03919
-2.21045
-2.15075
6.07497
-9.02393
-1.65172
13.1229
-1.18061
-3.03123
-3.37185
-0.669139
6.50879
0.0598553
-0.201085
3.00881
-2.52569
7.55705
-2.75542
-2.45832
3.44015
-10.3443
-2.12228
5.19099
-11.3941
-2.91895
-2.91316
4.92954
-2.46049
6.19373
)
;
    }
}


// ************************************************************************* //
