/*--------------------------------*- C++ -*----------------------------------*\
| =========                 |                                                 |
| \\      /  F ield         | OpenFOAM: The Open Source CFD Toolbox           |
|  \\    /   O peration     | Version:  v1906                                 |
|   \\  /    A nd           | Web:      www.OpenFOAM.com                      |
|    \\/     M anipulation  |                                                 |
\*---------------------------------------------------------------------------*/
FoamFile
{
    version     2.0;
    format      ascii;
    class       volScalarField;
    location    "0.52/oil";
    object      nut;
}
// * * * * * * * * * * * * * * * * * * * * * * * * * * * * * * * * * * * * * //

dimensions      [0 2 -1 0 0 0 0];


internalField   nonuniform List<scalar> 
168664
(
2.29835e-06
2.49589e-07
2.53661e-07
7.17511e-08
6.17894e-08
3.0959e-08
2.10721e-08
1.64982e-08
1.08082e-08
1.15744e-08
9.98336e-09
1.18072e-08
1.08052e-08
1.09389e-08
9.76065e-09
9.62193e-09
8.74841e-09
7.98232e-09
7.16352e-09
6.41399e-09
5.92573e-09
5.93937e-09
5.77512e-09
5.31539e-09
4.5233e-09
3.58615e-09
2.5996e-09
1.92789e-09
1.28176e-09
2.99323e-10
2.48781e-07
2.90537e-07
6.58168e-08
5.61192e-08
2.47493e-08
1.89417e-08
1.24826e-08
1.06577e-08
8.21209e-09
8.60958e-09
8.44564e-09
9.48461e-09
9.09904e-09
9.30954e-09
8.63444e-09
8.60072e-09
7.90638e-09
7.36534e-09
6.65557e-09
6.15682e-09
5.8379e-09
5.80088e-09
5.59071e-09
5.16684e-09
4.69761e-09
4.07375e-09
3.45816e-09
2.75496e-09
2.78881e-09
1.58716e-09
2.51662e-07
6.58064e-08
5.97455e-08
3.8587e-08
2.90036e-08
2.10488e-08
1.55923e-08
1.24057e-08
1.01045e-08
9.43411e-09
9.07477e-09
9.30612e-09
8.78717e-09
8.99789e-09
8.39961e-09
8.30284e-09
7.66942e-09
7.19092e-09
6.51944e-09
6.09405e-09
5.94913e-09
5.96757e-09
5.88144e-09
5.57053e-09
5.1514e-09
4.65177e-09
4.19013e-09
3.87962e-09
4.57433e-09
3.62954e-09
7.43161e-08
5.7707e-08
4.02042e-08
3.00854e-08
2.14287e-08
1.65066e-08
1.35826e-08
1.12761e-08
1.02419e-08
9.39954e-09
9.13478e-09
8.90105e-09
8.71631e-09
8.90662e-09
8.3655e-09
8.11972e-09
7.499e-09
7.03355e-09
6.45415e-09
6.10113e-09
5.93495e-09
5.97893e-09
6.06407e-09
5.87368e-09
5.42432e-09
4.89834e-09
4.55267e-09
4.7938e-09
5.70579e-09
5.07625e-09
6.31845e-08
2.75892e-08
3.03757e-08
2.16375e-08
2.0042e-08
1.66028e-08
1.4494e-08
1.27699e-08
1.14626e-08
1.06281e-08
9.91559e-09
9.40754e-09
9.10919e-09
9.15781e-09
8.52279e-09
8.10286e-09
7.47918e-09
7.05375e-09
6.70147e-09
6.64207e-09
6.47389e-09
6.50807e-09
6.5525e-09
6.45643e-09
6.10337e-09
5.69019e-09
5.49922e-09
5.97568e-09
7.0154e-09
6.81458e-09
3.87083e-08
2.55392e-08
2.62152e-08
1.94975e-08
1.86128e-08
1.45596e-08
1.37465e-08
1.16751e-08
1.11556e-08
1.02755e-08
9.92073e-09
9.22572e-09
8.86803e-09
8.97043e-09
8.42208e-09
7.78356e-09
7.16887e-09
6.67834e-09
6.60835e-09
6.7747e-09
6.60954e-09
6.51796e-09
6.46047e-09
6.41499e-09
6.17085e-09
6.05607e-09
6.07421e-09
6.75411e-09
7.81955e-09
7.93763e-09
2.82589e-08
1.9333e-08
1.99647e-08
1.61611e-08
1.60051e-08
1.37474e-08
1.30524e-08
1.17393e-08
1.10719e-08
1.04903e-08
1.00933e-08
9.52519e-09
9.23417e-09
9.55729e-09
8.91192e-09
7.97494e-09
7.16138e-09
6.59019e-09
6.52632e-09
6.71787e-09
6.5555e-09
6.52309e-09
6.54342e-09
6.62895e-09
6.63082e-09
6.80766e-09
7.10344e-09
7.90454e-09
8.98954e-09
9.49692e-09
2.74369e-08
2.02564e-08
2.02732e-08
1.65618e-08
1.62248e-08
1.33816e-08
1.28429e-08
1.09939e-08
1.0484e-08
9.65358e-09
9.57016e-09
9.25192e-09
9.48815e-09
1.00272e-08
9.48119e-09
8.27313e-09
7.43127e-09
6.66946e-09
6.44604e-09
6.31179e-09
6.08027e-09
6.06897e-09
6.20063e-09
6.49098e-09
6.81765e-09
7.3381e-09
7.87502e-09
8.74072e-09
9.77027e-09
1.0517e-08
2.17174e-08
1.72204e-08
1.68782e-08
1.47614e-08
1.42579e-08
1.24146e-08
1.17247e-08
1.03294e-08
9.69911e-09
9.05874e-09
9.16161e-09
9.48863e-09
1.00711e-08
1.06311e-08
1.00395e-08
8.8309e-09
7.78425e-09
6.82954e-09
6.36214e-09
6.04058e-09
5.7772e-09
5.94883e-09
6.27045e-09
6.83142e-09
7.45736e-09
8.18307e-09
8.9328e-09
9.78768e-09
1.06821e-08
1.16627e-08
2.30453e-08
1.83662e-08
1.7964e-08
1.5789e-08
1.49649e-08
1.27068e-08
1.17502e-08
9.95841e-09
9.16182e-09
8.32764e-09
8.66947e-09
9.24119e-09
9.88688e-09
1.00028e-08
9.61151e-09
8.75047e-09
7.65775e-09
6.65636e-09
6.1102e-09
5.66535e-09
5.43333e-09
5.73624e-09
6.22828e-09
6.93105e-09
7.62878e-09
8.53294e-09
9.47579e-09
1.02931e-08
1.11108e-08
1.22298e-08
2.03683e-08
1.67627e-08
1.61656e-08
1.46775e-08
1.37808e-08
1.21728e-08
1.1235e-08
9.68847e-09
8.85084e-09
8.26193e-09
8.68767e-09
9.25183e-09
9.27514e-09
8.66164e-09
8.09564e-09
7.58862e-09
6.78918e-09
6.15428e-09
5.76627e-09
5.54467e-09
5.53741e-09
6.09812e-09
6.77075e-09
7.61353e-09
8.35408e-09
9.36347e-09
1.03642e-08
1.10376e-08
1.17642e-08
1.29991e-08
2.15859e-08
1.77005e-08
1.69702e-08
1.5473e-08
1.46688e-08
1.32151e-08
1.23003e-08
1.04777e-08
9.26289e-09
8.17848e-09
8.08952e-09
8.07246e-09
7.36903e-09
6.25334e-09
5.68552e-09
5.3029e-09
4.78007e-09
4.83314e-09
4.96179e-09
5.1201e-09
5.52779e-09
6.41182e-09
7.29283e-09
8.3656e-09
9.19951e-09
1.01794e-08
1.10101e-08
1.15108e-08
1.21626e-08
1.34852e-08
1.98633e-08
1.68082e-08
1.62442e-08
1.53444e-08
1.46682e-08
1.35764e-08
1.27248e-08
1.10038e-08
9.63946e-09
7.96505e-09
7.1588e-09
6.42025e-09
5.24706e-09
4.45265e-09
3.86217e-09
3.52616e-09
3.16141e-09
3.23054e-09
3.8397e-09
4.43855e-09
5.35219e-09
6.90439e-09
8.04944e-09
9.16889e-09
1.00138e-08
1.09415e-08
1.16343e-08
1.2131e-08
1.2852e-08
1.44708e-08
1.96229e-08
1.66041e-08
1.61525e-08
1.5433e-08
1.47822e-08
1.36666e-08
1.28326e-08
1.14001e-08
1.02179e-08
7.88253e-09
5.96155e-09
4.05126e-09
2.65955e-09
1.85668e-09
1.5526e-09
1.40253e-09
1.02026e-09
1.4395e-09
2.24019e-09
3.66337e-09
5.17394e-09
7.25501e-09
8.61908e-09
9.76372e-09
1.04806e-08
1.13679e-08
1.20704e-08
1.26515e-08
1.34535e-08
1.53958e-08
1.85106e-08
1.58008e-08
1.53133e-08
1.47035e-08
1.41086e-08
1.31748e-08
1.23787e-08
1.11928e-08
1.0205e-08
8.00668e-09
5.86641e-09
3.91005e-09
2.56151e-09
1.53103e-09
1.04803e-09
6.81686e-10
9.31475e-10
1.78817e-09
2.56335e-09
4.02443e-09
5.55556e-09
7.68258e-09
9.19868e-09
1.0442e-08
1.11722e-08
1.20242e-08
1.27351e-08
1.3342e-08
1.41061e-08
1.62924e-08
1.84323e-08
1.5678e-08
1.51219e-08
1.45033e-08
1.39431e-08
1.30411e-08
1.22273e-08
1.08943e-08
9.64596e-09
7.58558e-09
5.75961e-09
4.0183e-09
2.78456e-09
1.55615e-09
1.20027e-09
8.3915e-10
1.17715e-09
2.27763e-09
3.02881e-09
4.46928e-09
5.8572e-09
7.91621e-09
9.24516e-09
1.04836e-08
1.1182e-08
1.20739e-08
1.2778e-08
1.34181e-08
1.40631e-08
1.61524e-08
1.70476e-08
1.47074e-08
1.41212e-08
1.35817e-08
1.30397e-08
1.22086e-08
1.14752e-08
1.03409e-08
8.98494e-09
6.84927e-09
4.74396e-09
3.06844e-09
2.03854e-09
1.30127e-09
1.56349e-09
1.39459e-09
1.49263e-09
2.80564e-09
3.8318e-09
5.22945e-09
6.50215e-09
8.30535e-09
9.44244e-09
1.04963e-08
1.12195e-08
1.21626e-08
1.29171e-08
1.34946e-08
1.40356e-08
1.60127e-08
1.62809e-08
1.41904e-08
1.35817e-08
1.30146e-08
1.24255e-08
1.14963e-08
1.06962e-08
9.51614e-09
8.35309e-09
6.5016e-09
4.99907e-09
4.00816e-09
3.07674e-09
2.79244e-09
3.03217e-09
2.7869e-09
2.77254e-09
3.94869e-09
5.22997e-09
6.40926e-09
6.86376e-09
8.27885e-09
9.14509e-09
1.02916e-08
1.11037e-08
1.20757e-08
1.28653e-08
1.35839e-08
1.42558e-08
1.62797e-08
1.52655e-08
1.35403e-08
1.28787e-08
1.22461e-08
1.15562e-08
1.06165e-08
9.76399e-09
8.62501e-09
7.61924e-09
6.5527e-09
5.89335e-09
5.43454e-09
4.78816e-09
4.43444e-09
4.59532e-09
4.26237e-09
4.27836e-09
5.15846e-09
6.06179e-09
6.65138e-09
6.77059e-09
7.46184e-09
8.15445e-09
9.30297e-09
1.01057e-08
1.09286e-08
1.17285e-08
1.27578e-08
1.37666e-08
1.58804e-08
1.44839e-08
1.28127e-08
1.2055e-08
1.12311e-08
1.04115e-08
9.43201e-09
8.69328e-09
7.76269e-09
7.02736e-09
6.32224e-09
6.19275e-09
6.14067e-09
6.05545e-09
6.20717e-09
6.56082e-09
6.38304e-09
6.43787e-09
6.75934e-09
6.67346e-09
6.56951e-09
6.29141e-09
6.71621e-09
7.21902e-09
8.22083e-09
8.94722e-09
9.78856e-09
1.06162e-08
1.17173e-08
1.27587e-08
1.46905e-08
1.32772e-08
1.18283e-08
1.11686e-08
1.02808e-08
9.42973e-09
8.61669e-09
7.97456e-09
7.2105e-09
6.5784e-09
6.1357e-09
6.14886e-09
6.19558e-09
6.39443e-09
7.03348e-09
7.91603e-09
8.25476e-09
8.29912e-09
7.80942e-09
7.16459e-09
6.60168e-09
6.07991e-09
6.28562e-09
6.7188e-09
7.61388e-09
8.2583e-09
9.09774e-09
9.86833e-09
1.08554e-08
1.17628e-08
1.31493e-08
1.24243e-08
1.12736e-08
1.06985e-08
9.77658e-09
8.95706e-09
8.25843e-09
7.73008e-09
7.13176e-09
6.65777e-09
6.35117e-09
6.14913e-09
5.85797e-09
6.08167e-09
6.94463e-09
8.00883e-09
8.80693e-09
8.81612e-09
7.75018e-09
6.87094e-09
6.52216e-09
6.19831e-09
6.41328e-09
6.67738e-09
7.32767e-09
7.75374e-09
8.44646e-09
9.06111e-09
1.00075e-08
1.093e-08
1.20071e-08
1.11812e-08
1.03473e-08
9.61972e-09
8.73726e-09
8.15851e-09
7.6358e-09
7.28485e-09
6.93384e-09
6.68942e-09
6.58648e-09
6.28427e-09
5.72825e-09
5.71711e-09
6.51795e-09
7.49541e-09
8.27549e-09
8.21502e-09
7.23416e-09
6.64613e-09
6.67174e-09
6.54372e-09
6.59454e-09
6.6067e-09
6.94458e-09
7.11703e-09
7.61234e-09
8.09074e-09
9.00794e-09
9.93818e-09
1.06593e-08
1.00741e-08
9.42438e-09
8.52155e-09
7.79304e-09
7.44606e-09
7.16489e-09
7.06164e-09
6.97152e-09
6.8939e-09
6.79965e-09
6.36061e-09
5.78786e-09
5.5661e-09
6.04113e-09
6.78203e-09
7.36039e-09
7.38563e-09
6.85197e-09
6.56447e-09
6.78722e-09
6.80622e-09
6.87638e-09
6.76203e-09
6.87134e-09
6.81911e-09
7.02855e-09
7.27119e-09
8.13204e-09
9.0825e-09
9.58198e-09
8.34516e-09
8.09586e-09
7.20558e-09
6.70265e-09
6.54295e-09
6.44112e-09
6.5583e-09
6.70155e-09
6.84357e-09
6.75627e-09
6.22276e-09
5.76686e-09
5.79151e-09
6.04849e-09
6.46258e-09
6.70757e-09
6.97056e-09
6.81961e-09
6.52824e-09
6.5088e-09
6.62959e-09
6.79239e-09
6.66548e-09
6.67568e-09
6.45398e-09
6.39191e-09
6.32005e-09
7.09615e-09
8.05648e-09
8.21381e-09
7.0295e-09
7.02943e-09
6.10487e-09
5.78257e-09
5.91923e-09
6.09655e-09
6.30677e-09
6.58447e-09
6.83269e-09
6.86261e-09
6.35977e-09
5.9889e-09
6.169e-09
6.37651e-09
6.45411e-09
6.40361e-09
6.79762e-09
6.90447e-09
6.52693e-09
6.28031e-09
6.29184e-09
6.53717e-09
6.51884e-09
6.52077e-09
6.22587e-09
5.85967e-09
5.59042e-09
6.21717e-09
7.2103e-09
7.10798e-09
5.33505e-09
5.71773e-09
4.71332e-09
4.57325e-09
4.99516e-09
5.31432e-09
5.64998e-09
6.03798e-09
6.35896e-09
6.56918e-09
6.25417e-09
6.13932e-09
6.4258e-09
6.54397e-09
6.38013e-09
6.12438e-09
6.51439e-09
6.65005e-09
6.44929e-09
6.11255e-09
5.88238e-09
5.876e-09
5.79739e-09
5.76555e-09
5.47545e-09
5.10826e-09
4.72285e-09
5.10697e-09
6.00039e-09
5.50833e-09
3.83846e-09
4.62189e-09
3.70967e-09
4.04356e-09
4.47659e-09
4.91251e-09
5.37317e-09
5.83898e-09
6.22953e-09
6.48748e-09
6.33767e-09
6.40742e-09
6.68562e-09
6.69236e-09
6.50148e-09
6.18959e-09
6.35285e-09
6.50569e-09
6.48355e-09
6.28898e-09
5.85598e-09
5.65272e-09
5.43798e-09
5.38504e-09
5.18444e-09
4.886e-09
4.3997e-09
4.09979e-09
4.82419e-09
4.0112e-09
1.88724e-09
3.04755e-09
2.86879e-09
3.47967e-09
3.96367e-09
4.58331e-09
5.13862e-09
5.74488e-09
6.28596e-09
6.71631e-09
6.82063e-09
6.8975e-09
7.0513e-09
7.07661e-09
7.10925e-09
6.82131e-09
6.83649e-09
6.90466e-09
6.85426e-09
6.51827e-09
5.90138e-09
5.55696e-09
5.24011e-09
5.095e-09
4.75072e-09
4.22152e-09
3.59163e-09
2.80555e-09
2.93473e-09
1.84063e-09
8.53002e-10
1.79191e-09
2.57597e-09
3.23188e-09
4.00531e-09
4.73669e-09
5.42546e-09
6.15875e-09
6.88141e-09
7.34871e-09
7.56074e-09
7.68263e-09
7.69238e-09
7.87242e-09
7.7997e-09
7.43201e-09
7.4986e-09
7.65951e-09
7.60333e-09
6.98676e-09
6.14553e-09
5.69798e-09
5.22891e-09
4.97102e-09
4.32982e-09
3.52358e-09
2.51054e-09
1.72403e-09
1.14566e-09
3.55118e-10
2.4833e-07
2.97294e-07
6.7426e-08
5.77314e-08
2.48897e-08
1.93032e-08
1.2384e-08
1.09877e-08
7.76767e-09
8.53014e-09
7.53174e-09
9.03459e-09
8.37267e-09
9.2289e-09
8.57045e-09
8.69157e-09
8.0284e-09
7.23953e-09
6.86986e-09
6.092e-09
5.77222e-09
5.35688e-09
5.35259e-09
4.96104e-09
4.668e-09
3.94e-09
3.30236e-09
2.51351e-09
2.08375e-09
1.26043e-09
2.95069e-07
6.01172e-08
4.76678e-08
2.25024e-08
1.14661e-08
8.69734e-09
5.96589e-09
4.4631e-09
3.77808e-09
3.67237e-09
3.81602e-09
3.34239e-09
2.64771e-09
2.73313e-09
2.8778e-09
2.95347e-09
2.80908e-09
2.75469e-09
2.48679e-09
2.27356e-09
2.23862e-09
2.67831e-09
3.10392e-09
3.42299e-09
3.36207e-09
3.02888e-09
2.6522e-09
2.30162e-09
3.26746e-09
2.82147e-09
6.56701e-08
4.84476e-08
2.50327e-08
2.21672e-08
1.20226e-08
1.05824e-08
7.36284e-09
5.66143e-09
4.60049e-09
4.64296e-09
4.99917e-09
5.01553e-09
3.706e-09
2.8757e-09
2.58745e-09
2.45671e-09
2.05286e-09
1.67021e-09
1.5938e-09
2.03554e-09
2.38394e-09
3.33714e-09
4.01123e-09
4.12608e-09
4.13024e-09
3.94875e-09
3.28639e-09
3.04117e-09
3.6957e-09
4.6226e-09
5.7799e-08
2.06953e-08
2.05996e-08
1.28679e-08
7.28801e-09
6.87643e-09
4.22225e-09
4.37465e-09
3.9337e-09
4.29538e-09
4.52666e-09
4.8264e-09
3.52444e-09
2.66706e-09
2.27184e-09
2.20939e-09
2.27201e-09
1.72062e-09
1.9197e-09
2.7389e-09
3.42903e-09
3.9442e-09
3.7634e-09
3.67727e-09
4.03553e-09
4.08876e-09
3.58066e-09
3.52083e-09
3.47227e-09
5.7624e-09
2.72868e-08
1.01152e-08
1.0066e-08
7.76334e-09
4.98366e-09
5.30404e-09
3.52529e-09
3.68562e-09
3.0983e-09
3.11682e-09
2.92729e-09
3.26077e-09
2.20528e-09
2.19666e-09
2.12165e-09
2.17765e-09
2.32689e-09
1.72695e-09
2.09912e-09
3.0245e-09
3.4336e-09
2.88891e-09
2.09918e-09
2.13424e-09
2.68609e-09
3.14019e-09
3.37133e-09
3.6542e-09
3.2742e-09
7.11646e-09
2.5162e-08
6.45604e-09
8.84255e-09
6.96766e-09
4.84493e-09
4.66842e-09
2.68022e-09
2.8354e-09
1.87e-09
2.11423e-09
2.155e-09
2.534e-09
2.02065e-09
2.19474e-09
2.25403e-09
2.35337e-09
2.48711e-09
2.11253e-09
2.56386e-09
2.86352e-09
2.6069e-09
1.70891e-09
1.07452e-09
1.22592e-09
1.62216e-09
2.32229e-09
3.02498e-09
3.53295e-09
3.04908e-09
7.91805e-09
1.93342e-08
4.13087e-09
5.69776e-09
4.14724e-09
3.37774e-09
3.30023e-09
2.28634e-09
2.43582e-09
1.73505e-09
1.97553e-09
2.01779e-09
2.47598e-09
2.05175e-09
2.3469e-09
2.58024e-09
2.5132e-09
2.60779e-09
2.55235e-09
3.00103e-09
2.52477e-09
1.97597e-09
1.3797e-09
1.13254e-09
1.09619e-09
1.4004e-09
2.27875e-09
3.03041e-09
3.45317e-09
3.0556e-09
9.05493e-09
2.0202e-08
2.26474e-09
4.73768e-09
4.58841e-09
3.86778e-09
3.72604e-09
2.78905e-09
2.78969e-09
2.04636e-09
2.13444e-09
2.07691e-09
2.26368e-09
1.7014e-09
2.05457e-09
2.49647e-09
2.28314e-09
2.25863e-09
2.52978e-09
2.81908e-09
2.21394e-09
1.59938e-09
1.30821e-09
1.13289e-09
1.15966e-09
1.58385e-09
2.44917e-09
3.01385e-09
3.3206e-09
2.99458e-09
9.7991e-09
1.72857e-08
2.4289e-09
3.28978e-09
3.13442e-09
3.05349e-09
2.99645e-09
2.52307e-09
2.58451e-09
2.2401e-09
2.32447e-09
2.16617e-09
1.7252e-09
8.99672e-10
2.42588e-09
3.15872e-09
2.68907e-09
1.94378e-09
1.88415e-09
2.36627e-09
2.07911e-09
1.6884e-09
1.50768e-09
1.38694e-09
1.55573e-09
1.97956e-09
2.58786e-09
2.86708e-09
2.97221e-09
2.81151e-09
1.07446e-08
1.82673e-08
1.71282e-09
2.56588e-09
2.83012e-09
2.98086e-09
3.1617e-09
2.81982e-09
2.87261e-09
2.6792e-09
2.58873e-09
2.29363e-09
1.42762e-09
1.68689e-09
3.52479e-09
4.21567e-09
3.59588e-09
2.46956e-09
1.13379e-09
1.61426e-09
1.94293e-09
1.69541e-09
1.69997e-09
1.6377e-09
1.8635e-09
2.05067e-09
2.35813e-09
2.38099e-09
2.31085e-09
2.41011e-09
1.12797e-08
1.68133e-08
2.02488e-09
1.91681e-09
1.83307e-09
1.88203e-09
2.27666e-09
2.39014e-09
2.74466e-09
2.84588e-09
2.72682e-09
2.45531e-09
2.10114e-09
3.21111e-09
4.69237e-09
5.26651e-09
4.97507e-09
4.16397e-09
2.07273e-09
1.43237e-09
1.88988e-09
2.04069e-09
2.21491e-09
2.2024e-09
2.32456e-09
2.34187e-09
2.36161e-09
2.15511e-09
1.96987e-09
2.14944e-09
1.18293e-08
1.77082e-08
1.97636e-09
1.53145e-09
1.51003e-09
1.54405e-09
2.04251e-09
2.34916e-09
2.83113e-09
3.27949e-09
3.27531e-09
2.76943e-09
2.90705e-09
3.75452e-09
4.22632e-09
4.45474e-09
4.41781e-09
3.80926e-09
2.64791e-09
1.7414e-09
1.91948e-09
2.37253e-09
2.61888e-09
2.52856e-09
2.48757e-09
2.40289e-09
2.33605e-09
2.00752e-09
1.91875e-09
1.96718e-09
1.21516e-08
1.66182e-08
2.07051e-09
1.43342e-09
1.29156e-09
1.21046e-09
1.44617e-09
1.68037e-09
2.24679e-09
2.93411e-09
2.99156e-09
2.52742e-09
3.74726e-09
4.11549e-09
4.08687e-09
3.99219e-09
3.7842e-09
3.48625e-09
2.85916e-09
2.43821e-09
1.68442e-09
2.36877e-09
2.62514e-09
2.38643e-09
2.12523e-09
1.95764e-09
1.92787e-09
1.73913e-09
1.86042e-09
2.03303e-09
1.29262e-08
1.65442e-08
1.85176e-09
1.48693e-09
1.46651e-09
1.48155e-09
1.43152e-09
1.54293e-09
2.02971e-09
2.74852e-09
2.87758e-09
3.10984e-09
3.57613e-09
3.37258e-09
3.1991e-09
2.81954e-09
2.54956e-09
1.98882e-09
1.95255e-09
1.8891e-09
1.71443e-09
1.92549e-09
2.39253e-09
2.10564e-09
1.73997e-09
1.55943e-09
1.61479e-09
1.54979e-09
1.72918e-09
2.06628e-09
1.35778e-08
1.5755e-08
2.03431e-09
1.60027e-09
1.53873e-09
1.54132e-09
1.58265e-09
1.70581e-09
2.12562e-09
2.66405e-09
3.17502e-09
3.34599e-09
3.02399e-09
2.56987e-09
2.20052e-09
2.42865e-09
2.15791e-09
1.71827e-09
1.88144e-09
1.97834e-09
2.38736e-09
2.67935e-09
2.69001e-09
2.12166e-09
1.58214e-09
1.42476e-09
1.47404e-09
1.44788e-09
1.60477e-09
2.09405e-09
1.41693e-08
1.57177e-08
2.22451e-09
1.76831e-09
1.64542e-09
1.72488e-09
1.84964e-09
2.01684e-09
2.32919e-09
2.88258e-09
3.18367e-09
2.83741e-09
2.06067e-09
1.76947e-09
1.75967e-09
2.29036e-09
2.3289e-09
1.94051e-09
2.11949e-09
2.35218e-09
2.87159e-09
2.93162e-09
2.74705e-09
1.9872e-09
1.32634e-09
1.11388e-09
1.25695e-09
1.28625e-09
1.38748e-09
1.7831e-09
1.40378e-08
1.48449e-08
2.27631e-09
1.97724e-09
1.8249e-09
1.93682e-09
2.03734e-09
2.16497e-09
2.49254e-09
2.94683e-09
2.74783e-09
2.48301e-09
2.32969e-09
2.20089e-09
2.24222e-09
2.75783e-09
2.74002e-09
2.45818e-09
2.56422e-09
2.61026e-09
2.46917e-09
2.39585e-09
2.88419e-09
2.14729e-09
1.40073e-09
1.18544e-09
1.42189e-09
1.57365e-09
1.56667e-09
1.78306e-09
1.39996e-08
1.43251e-08
2.24928e-09
2.18149e-09
1.97235e-09
2.13902e-09
2.21194e-09
2.42224e-09
2.60796e-09
2.93686e-09
2.59571e-09
2.23185e-09
2.37105e-09
2.65242e-09
2.9286e-09
3.38071e-09
3.40266e-09
3.48645e-09
3.26574e-09
2.57596e-09
1.59372e-09
2.63898e-09
3.37543e-09
2.61899e-09
2.13627e-09
1.82691e-09
1.86401e-09
2.0414e-09
2.03776e-09
2.16199e-09
1.40634e-08
1.34845e-08
2.47564e-09
2.53704e-09
2.47764e-09
2.76413e-09
2.78991e-09
2.87883e-09
2.84675e-09
3.04176e-09
2.79651e-09
2.68265e-09
1.98837e-09
2.36879e-09
3.09034e-09
3.80722e-09
3.77947e-09
3.67337e-09
3.06655e-09
1.84187e-09
1.59172e-09
2.85066e-09
3.53698e-09
2.98499e-09
2.65504e-09
2.31713e-09
2.33844e-09
2.5017e-09
2.56987e-09
2.60242e-09
1.37392e-08
1.28811e-08
2.57578e-09
2.48538e-09
2.65903e-09
2.9218e-09
2.60317e-09
2.4782e-09
2.24295e-09
2.4734e-09
2.22282e-09
2.35961e-09
1.29088e-09
1.44655e-09
2.98711e-09
4.10381e-09
4.29373e-09
4.07028e-09
2.56496e-09
1.11075e-09
1.82971e-09
2.34644e-09
2.89816e-09
2.50427e-09
2.44265e-09
2.26828e-09
2.5396e-09
2.60739e-09
2.50546e-09
2.60263e-09
1.29365e-08
1.21034e-08
2.85785e-09
2.61205e-09
2.98234e-09
3.16671e-09
2.43954e-09
2.11321e-09
1.80787e-09
2.04143e-09
1.91988e-09
2.26195e-09
1.56564e-09
7.7658e-10
1.39519e-09
2.82579e-09
3.51813e-09
3.28588e-09
1.29045e-09
1.20538e-09
2.274e-09
2.198e-09
2.42315e-09
2.07527e-09
2.24977e-09
2.37823e-09
2.98877e-09
2.96271e-09
2.78413e-09
2.6542e-09
1.17267e-08
1.13466e-08
2.97261e-09
3.06965e-09
3.38805e-09
3.16774e-09
2.24374e-09
1.86444e-09
1.40607e-09
1.62649e-09
1.63362e-09
2.17685e-09
2.17808e-09
1.78942e-09
1.2188e-09
1.83079e-09
2.29783e-09
1.91471e-09
1.20975e-09
1.70538e-09
2.17616e-09
1.76539e-09
1.88455e-09
1.54899e-09
1.8433e-09
2.07814e-09
2.94144e-09
3.19179e-09
3.16535e-09
2.69572e-09
1.08213e-08
1.03857e-08
2.99932e-09
3.55916e-09
3.46562e-09
2.8853e-09
1.94872e-09
1.61352e-09
1.10551e-09
1.42797e-09
1.51381e-09
2.16965e-09
2.50107e-09
2.39427e-09
2.37375e-09
2.47507e-09
2.43617e-09
1.52256e-09
1.91548e-09
2.43029e-09
2.3783e-09
1.587e-09
1.56359e-09
1.2278e-09
1.54508e-09
1.68944e-09
2.70569e-09
3.25659e-09
3.42763e-09
2.85872e-09
9.88837e-09
9.58165e-09
2.99301e-09
3.59784e-09
2.95998e-09
2.35865e-09
1.58823e-09
1.40049e-09
8.81082e-10
1.26594e-09
1.50346e-09
2.27694e-09
2.38226e-09
2.34236e-09
2.91168e-09
2.95918e-09
2.47188e-09
1.69107e-09
2.47912e-09
2.91513e-09
2.99809e-09
1.99658e-09
1.44077e-09
9.88156e-10
1.29852e-09
1.36126e-09
2.33827e-09
3.12508e-09
3.54851e-09
2.91668e-09
9.09045e-09
8.25985e-09
3.06785e-09
3.53229e-09
2.56796e-09
1.98527e-09
1.40648e-09
1.63099e-09
1.31827e-09
1.5652e-09
1.77099e-09
2.4817e-09
2.21767e-09
2.15333e-09
2.99996e-09
3.01685e-09
2.37579e-09
2.04205e-09
2.59147e-09
3.03895e-09
3.64089e-09
2.95609e-09
2.0741e-09
1.29744e-09
1.60592e-09
1.72721e-09
2.63224e-09
3.25651e-09
3.86263e-09
3.16134e-09
8.10454e-09
7.25896e-09
3.03879e-09
3.316e-09
2.32781e-09
1.96676e-09
1.72488e-09
2.13532e-09
2.06624e-09
2.44151e-09
2.43161e-09
2.62692e-09
1.88351e-09
2.01297e-09
2.83085e-09
2.86395e-09
2.34603e-09
2.14672e-09
2.40645e-09
2.82918e-09
3.71361e-09
3.61796e-09
3.28981e-09
2.49409e-09
2.68472e-09
2.89874e-09
3.53461e-09
3.48162e-09
3.97424e-09
3.43498e-09
7.25811e-09
6.05282e-09
3.23077e-09
3.28515e-09
2.53439e-09
2.76749e-09
2.77611e-09
3.14469e-09
3.17127e-09
3.76183e-09
3.76526e-09
3.42449e-09
1.80462e-09
1.79586e-09
2.62948e-09
3.11806e-09
2.74334e-09
2.65382e-09
3.0132e-09
3.27594e-09
3.99457e-09
4.00459e-09
4.40479e-09
4.2555e-09
4.5636e-09
4.57115e-09
4.61417e-09
3.73072e-09
3.86867e-09
3.74868e-09
6.02617e-09
5.04586e-09
3.61784e-09
3.208e-09
2.9802e-09
3.26496e-09
3.07582e-09
3.27564e-09
3.21871e-09
3.82093e-09
3.98115e-09
3.75606e-09
1.98944e-09
1.6203e-09
2.44757e-09
2.95713e-09
2.5276e-09
2.38833e-09
2.91383e-09
3.01752e-09
3.25436e-09
2.99484e-09
3.61145e-09
3.9444e-09
4.68953e-09
4.53795e-09
4.28685e-09
3.23774e-09
3.10064e-09
3.79914e-09
4.87155e-09
3.4228e-09
3.63538e-09
2.78916e-09
3.02623e-09
3.04787e-09
2.88754e-09
3.12931e-09
3.1779e-09
3.71851e-09
3.96116e-09
3.98221e-09
3.08278e-09
2.94976e-09
2.70283e-09
2.50437e-09
1.95514e-09
2.04727e-09
2.46152e-09
2.4327e-09
2.56193e-09
2.26489e-09
2.79745e-09
2.88925e-09
3.50736e-09
3.36689e-09
3.13908e-09
2.57052e-09
2.27524e-09
3.22924e-09
2.98307e-09
2.05053e-09
2.80139e-09
3.13931e-09
3.67005e-09
4.17935e-09
4.72344e-09
5.36464e-09
6.15154e-09
6.90616e-09
7.68559e-09
7.69668e-09
7.63118e-09
7.19269e-09
7.21958e-09
7.09223e-09
6.82134e-09
6.91293e-09
6.82218e-09
6.9894e-09
6.5749e-09
6.05149e-09
5.59717e-09
5.17523e-09
4.97125e-09
4.54517e-09
3.91867e-09
3.13069e-09
2.31244e-09
1.91464e-09
1.31246e-09
2.54218e-07
6.75047e-08
5.963e-08
3.76795e-08
2.66011e-08
2.06035e-08
1.37866e-08
1.17644e-08
7.52228e-09
7.63839e-09
6.4978e-09
7.05536e-09
6.95081e-09
6.18756e-09
6.21744e-09
6.21316e-09
5.7732e-09
6.28018e-09
5.38098e-09
5.93174e-09
4.51626e-09
5.13765e-09
4.77329e-09
5.57795e-09
5.13308e-09
4.74863e-09
3.88651e-09
2.99539e-09
2.26036e-09
1.85499e-09
6.55854e-08
4.87061e-08
2.57579e-08
2.27355e-08
1.08508e-08
9.17063e-09
6.32919e-09
5.27391e-09
4.87502e-09
4.35185e-09
3.44351e-09
2.56175e-09
2.06877e-09
2.31234e-09
2.68202e-09
2.28796e-09
2.4138e-09
2.47886e-09
2.45601e-09
1.88292e-09
1.21959e-09
1.5931e-09
2.35842e-09
2.75574e-09
2.56539e-09
2.12999e-09
1.97913e-09
2.03287e-09
2.46618e-09
2.64213e-09
5.85092e-08
2.62881e-08
2.29159e-08
2.12886e-08
1.33441e-08
1.10849e-08
7.38048e-09
6.10236e-09
5.69858e-09
5.88746e-09
5.20011e-09
4.39775e-09
3.39427e-09
3.09547e-09
3.00799e-09
2.79708e-09
3.10332e-09
2.78469e-09
2.74243e-09
2.42932e-09
2.20862e-09
2.66848e-09
3.86373e-09
4.32005e-09
3.35105e-09
2.43896e-09
2.60701e-09
3.41173e-09
3.13062e-09
4.02207e-09
3.96677e-08
2.13349e-08
2.00932e-08
1.54487e-08
9.75875e-09
8.48489e-09
5.37121e-09
4.70725e-09
4.02862e-09
4.9561e-09
5.46441e-09
5.62273e-09
4.77047e-09
4.04374e-09
3.40247e-09
3.16124e-09
3.06895e-09
2.54556e-09
2.72357e-09
2.45282e-09
2.02095e-09
3.55875e-09
5.20484e-09
5.26272e-09
4.26382e-09
3.02309e-09
3.00523e-09
3.61241e-09
3.36947e-09
5.10036e-09
2.94782e-08
1.07075e-08
1.1756e-08
9.21292e-09
6.92926e-09
6.73255e-09
4.89039e-09
4.42867e-09
3.71333e-09
4.61317e-09
5.85864e-09
6.06455e-09
4.48976e-09
3.66532e-09
3.08526e-09
2.86869e-09
2.56184e-09
2.25973e-09
2.58789e-09
2.69933e-09
3.70664e-09
4.82779e-09
5.20439e-09
5.05338e-09
4.64546e-09
3.63811e-09
3.54654e-09
3.17027e-09
3.47879e-09
6.35882e-09
2.60165e-08
8.63086e-09
1.03637e-08
7.98896e-09
6.21073e-09
5.21798e-09
3.58593e-09
2.93881e-09
2.286e-09
2.99231e-09
4.02045e-09
3.99191e-09
2.61432e-09
2.21444e-09
1.8168e-09
1.92226e-09
1.95647e-09
2.04753e-09
2.01241e-09
2.71722e-09
3.25916e-09
3.10784e-09
2.58394e-09
2.84067e-09
3.41961e-09
3.5771e-09
3.72437e-09
2.63199e-09
3.42957e-09
7.14211e-09
2.01764e-08
5.16798e-09
6.21674e-09
4.56832e-09
3.92213e-09
3.489e-09
2.44144e-09
2.2526e-09
1.96361e-09
2.34917e-09
2.95945e-09
3.08213e-09
2.02766e-09
1.9535e-09
1.83847e-09
1.90048e-09
1.85899e-09
1.81506e-09
2.21055e-09
2.61535e-09
2.11873e-09
1.4853e-09
9.26926e-10
1.41796e-09
2.66637e-09
3.46265e-09
3.4519e-09
2.22101e-09
3.41452e-09
8.19634e-09
2.03428e-08
3.72218e-09
4.99451e-09
4.91284e-09
4.51527e-09
4.0146e-09
2.96587e-09
2.70803e-09
2.16411e-09
2.1446e-09
2.44684e-09
2.68786e-09
1.87896e-09
2.1106e-09
1.60132e-09
1.30734e-09
1.10287e-09
1.61462e-09
2.34134e-09
2.23275e-09
1.28967e-09
9.66531e-10
7.24216e-10
1.26691e-09
2.45371e-09
3.09272e-09
2.9588e-09
2.07708e-09
3.27294e-09
8.93469e-09
1.69682e-08
3.08155e-09
2.89804e-09
2.47975e-09
2.77224e-09
3.02017e-09
2.53824e-09
2.4357e-09
2.10379e-09
2.0797e-09
2.17455e-09
2.10749e-09
1.89885e-09
2.51307e-09
1.71542e-09
9.92433e-10
1.03601e-09
1.01712e-09
1.81863e-09
1.86947e-09
1.30419e-09
1.17386e-09
1.13557e-09
1.63198e-09
2.34824e-09
2.63767e-09
2.61693e-09
2.05253e-09
3.02358e-09
9.94709e-09
1.74223e-08
2.75424e-09
2.5144e-09
2.03384e-09
2.21589e-09
2.80986e-09
2.79493e-09
2.7039e-09
2.29242e-09
2.11752e-09
1.93751e-09
1.98702e-09
2.25055e-09
2.74719e-09
2.74757e-09
1.97735e-09
2.08899e-09
1.65102e-09
1.22465e-09
1.28599e-09
1.1782e-09
1.18906e-09
1.40533e-09
1.84326e-09
2.00186e-09
2.03344e-09
1.96025e-09
1.54062e-09
2.56676e-09
1.06797e-08
1.57532e-08
2.46096e-09
1.82845e-09
1.50412e-09
1.25495e-09
1.45175e-09
1.99371e-09
2.50246e-09
2.38851e-09
2.2219e-09
2.55987e-09
3.33714e-09
3.81076e-09
4.48249e-09
4.81324e-09
4.31805e-09
4.03624e-09
3.15469e-09
2.50379e-09
1.91841e-09
1.67126e-09
1.66745e-09
1.84812e-09
1.95306e-09
1.73244e-09
1.65315e-09
1.5432e-09
1.22812e-09
2.17057e-09
1.13321e-08
1.66605e-08
2.24489e-09
1.40139e-09
1.29606e-09
9.93545e-10
1.0003e-09
1.74241e-09
2.45376e-09
2.41003e-09
2.79687e-09
3.69694e-09
3.84452e-09
4.57506e-09
5.22791e-09
5.59055e-09
5.57292e-09
4.82506e-09
3.64446e-09
3.03955e-09
2.70435e-09
2.15752e-09
1.78172e-09
1.69602e-09
1.63141e-09
1.46261e-09
1.47637e-09
1.42465e-09
1.16611e-09
1.71636e-09
1.16691e-08
1.57508e-08
1.82835e-09
9.71593e-10
9.64471e-10
7.58381e-10
5.5873e-10
1.21448e-09
2.21668e-09
1.95168e-09
2.96719e-09
4.09381e-09
4.55501e-09
5.70837e-09
6.26078e-09
6.36728e-09
6.16747e-09
5.69877e-09
4.61929e-09
3.75626e-09
3.12231e-09
2.54748e-09
1.52599e-09
1.38129e-09
1.28897e-09
1.11739e-09
1.12956e-09
1.14958e-09
9.25969e-10
1.69423e-09
1.23987e-08
1.58685e-08
1.73003e-09
8.75981e-10
8.5686e-10
9.11993e-10
8.85925e-10
1.34412e-09
2.26385e-09
2.20337e-09
2.73355e-09
3.54678e-09
4.80667e-09
5.46569e-09
6.14052e-09
6.13147e-09
5.93983e-09
5.40433e-09
4.59406e-09
4.20026e-09
2.69393e-09
2.35034e-09
1.61892e-09
1.0702e-09
8.79737e-10
9.13224e-10
8.70197e-10
7.48608e-10
4.69906e-10
1.69811e-09
1.29183e-08
1.49784e-08
2.03312e-09
1.00274e-09
9.3058e-10
9.47859e-10
1.0738e-09
1.28325e-09
1.60241e-09
2.17662e-09
3.19812e-09
3.84451e-09
4.48315e-09
4.15397e-09
4.82643e-09
5.48685e-09
5.56485e-09
4.83078e-09
4.25106e-09
4.35426e-09
3.65842e-09
3.22517e-09
2.22295e-09
1.39218e-09
9.1282e-10
9.41064e-10
7.96876e-10
6.0789e-10
4.73289e-10
1.73199e-09
1.34066e-08
1.48813e-08
2.24949e-09
9.19361e-10
8.91235e-10
1.02648e-09
1.3054e-09
1.39278e-09
1.67772e-09
2.47028e-09
3.47185e-09
3.75193e-09
4.07907e-09
3.60403e-09
4.39508e-09
5.30752e-09
5.45348e-09
4.78476e-09
4.23695e-09
4.60929e-09
3.96793e-09
3.32321e-09
2.38722e-09
1.34459e-09
8.567e-10
8.90919e-10
7.42211e-10
6.86065e-10
4.89476e-10
1.51953e-09
1.33079e-08
1.41372e-08
2.36919e-09
1.00714e-09
1.17125e-09
1.17218e-09
1.47848e-09
1.43053e-09
1.63837e-09
2.11961e-09
2.86092e-09
3.15823e-09
4.29771e-09
4.3454e-09
5.11387e-09
5.68223e-09
5.82593e-09
5.56982e-09
4.68331e-09
4.5003e-09
2.97077e-09
2.98211e-09
2.23956e-09
1.33912e-09
9.70817e-10
8.74466e-10
7.13437e-10
1.10142e-09
9.83475e-10
1.52864e-09
1.3337e-08
1.3767e-08
2.37198e-09
1.3853e-09
1.51617e-09
1.27817e-09
1.46273e-09
1.62104e-09
1.78084e-09
1.89716e-09
2.92208e-09
3.52125e-09
3.8912e-09
4.4367e-09
5.26964e-09
5.91645e-09
6.11632e-09
5.66361e-09
4.59849e-09
3.82018e-09
2.86583e-09
3.05421e-09
1.98175e-09
1.76591e-09
1.44842e-09
1.00868e-09
9.83606e-10
1.73615e-09
1.68436e-09
2.03464e-09
1.32068e-08
1.27847e-08
2.53628e-09
1.68624e-09
1.74927e-09
1.80232e-09
2.13159e-09
2.23095e-09
2.26353e-09
2.1932e-09
2.65591e-09
3.10911e-09
3.25589e-09
3.41133e-09
4.40652e-09
5.45625e-09
5.84212e-09
4.94561e-09
3.90239e-09
3.22594e-09
2.91841e-09
2.79516e-09
2.44332e-09
2.10897e-09
1.75289e-09
1.44433e-09
1.37439e-09
1.92394e-09
1.82415e-09
2.57246e-09
1.27016e-08
1.20291e-08
2.67312e-09
1.68696e-09
1.63341e-09
2.1865e-09
2.55112e-09
2.21493e-09
2.00448e-09
1.7962e-09
1.90552e-09
1.97985e-09
2.49689e-09
2.51141e-09
3.33815e-09
4.37176e-09
5.22769e-09
4.60193e-09
3.58226e-09
2.80171e-09
2.27184e-09
2.2662e-09
2.21538e-09
2.13277e-09
2.02534e-09
2.12603e-09
1.85769e-09
1.72531e-09
1.49996e-09
2.75477e-09
1.18141e-08
1.12203e-08
3.05367e-09
2.00193e-09
1.85271e-09
2.81354e-09
3.10161e-09
2.2273e-09
1.6721e-09
1.41637e-09
1.44584e-09
1.37115e-09
1.60507e-09
1.62057e-09
2.36474e-09
2.3411e-09
3.14534e-09
2.94022e-09
2.68239e-09
2.00763e-09
1.73498e-09
1.99e-09
1.85562e-09
1.91141e-09
2.28359e-09
2.956e-09
2.70774e-09
1.9076e-09
1.40437e-09
2.73261e-09
1.05906e-08
1.04213e-08
3.08116e-09
1.98768e-09
2.59529e-09
3.42993e-09
3.06828e-09
2.03248e-09
1.49678e-09
1.25283e-09
1.25267e-09
1.62291e-09
2.12206e-09
1.39575e-09
1.69912e-09
2.30034e-09
2.38906e-09
2.27866e-09
2.36415e-09
2.07856e-09