/*--------------------------------*- C++ -*----------------------------------*\
| =========                 |                                                 |
| \\      /  F ield         | OpenFOAM: The Open Source CFD Toolbox           |
|  \\    /   O peration     | Version:  v1906                                 |
|   \\  /    A nd           | Web:      www.OpenFOAM.com                      |
|    \\/     M anipulation  |                                                 |
\*---------------------------------------------------------------------------*/
FoamFile
{
    version     2.0;
    format      ascii;
    class       volScalarField;
    location    "0.52/oil";
    object      wallHeatFlux;
}
// * * * * * * * * * * * * * * * * * * * * * * * * * * * * * * * * * * * * * //

dimensions      [1 0 -3 0 0 0 0];


internalField   uniform 0;

boundaryField
{
    maxY
    {
        type            calculated;
        value           uniform 0;
    }
    minX
    {
        type            calculated;
        value           uniform 0;
    }
    maxX
    {
        type            calculated;
        value           uniform 0;
    }
    minY
    {
        type            calculated;
        value           uniform 0;
    }
    minZ
    {
        type            calculated;
        value           uniform 0;
    }
    maxZ
    {
        type            calculated;
        value           uniform 0;
    }
    oil_to_sphere
    {
        type            calculated;
        value           nonuniform List<scalar> 
1536
(
526093
489073
478078
549373
558645
533500
510392
503258
457105
466391
560261
467698
496977
470726
580519
573035
504251
453428
253579
492815
480573
545325
505235
575133
588051
586359
586289
577431
477868
510033
470810
460019
467876
587034
573254
567902
556007
577585
575050
578212
578273
572340
508667
489294
497873
482874
502750
511344
595719
513030
545944
502755
501356
500295
456907
434166
530185
513511
449230
415144
397086
415959
398413
260374
265366
481271
499004
464212
539591
495442
589804
550752
560987
581643
575326
469351
418851
509235
573363
442706
416641
396257
398924
400288
376525
407293
392481
498540
459784
415656
391520
244205
249868
261243
266015
483676
499809
446749
473628
531979
501018
589466
499925
488822
539870
582775
576788
517927
529300
459064
438683
468817
417176
405583
399764
393767
398682
383909
392341
390395
437484
392144
246517
479046
527718
508820
539021
488034
517144
552310
502037
549215
507413
548979
505914
551389
502068
441609
498930
520808
412135
399127
505868
441002
389762
447651
538325
424009
388677
541860
558367
416863
544184
539086
537794
380629
522511
375346
535685
396598
515101
407591
585446
581659
568923
554961
543091
364298
508938
381548
480843
473388
464903
445274
437737
405846
521190
419551
431611
524370
586608
579137
562025
575200
386714
498657
381131
479624
479179
495617
504895
548646
446424
522256
583463
540454
470491
510067
414656
532819
518289
534264
474956
412982
435151
439582
439419
441092
468793
391521
492973
447310
456864
428048
502151
486507
430464
463219
486646
415097
455237
514481
490291
459513
451540
442964
561165
440801
558823
602815
575129
531571
551155
404920
408199
491621
422433
421674
410110
464020
454501
294641
363906
484880
424989
515416
505731
463097
500125
415112
503304
596427
531481
550988
419448
558907
564431
494484
449405
444333
471348
380336
444526
364440
292031
319566
323781
306775
507377
460043
496726
469083
467038
511584
495841
480138
489220
422897
501624
439998
542699
527867
487965
459072
501280
513722
501130
542478
503617
468944
525697
383545
515639
425802
439757
451362
446922
418711
454049
461252
509507
493341
458842
433997
424543
525431
385559
573195
562530
366036
485647
370240
500595
491847
493259
475176
509832
509984
525164
448280
504090
479768
471432
540444
519879
476899
499511
453848
516263
466228
456109
430598
531305
489907
463508
524220
457218
505442
520930
451452
408587
502400
466121
483770
475223
475732
485495
478262
466051
508887
518535
537133
483466
535149
460182
507102
496188
476339
552705
465212
538439
509378
474763
551550
491351
494646
543048
524905
537502
498632
456035
554176
513405
487595
556778
482067
520537
529936
483853
377519
516012
419932
488529
434782
453299
535109
487949
384209
505243
451895
468963
443166
415063
456032
441040
412497
504915
394233
490875
441935
536136
489898
363640
523149
490202
441155
506306
419238
477659
450745
436131
437969
445283
458087
443666
430524
447401
446161
490802
457449
448604
459787
425846
393544
468198
423310
413994
445408
381069
418292
469239
422048
440321
431931
440844
428849
446632
374696
353364
406158
397507
448802
427360
406442
409931
466531
444840
475670
493916
449259
478292
459918
429386
405577
386602
378976
418468
347525
353145
412021
349718
358737
351822
412886
452678
511362
492744
457215
466614
515468
497488
485307
516939
450605
524699
482002
519415
464595
535801
486342
454039
514324
512445
462937
508704
528423
479582
503288
394825
524727
393278
527302
579769
588859
593593
605151
549391
547643
571823
578616
531948
387061
577155
556213
377742
384201
496850
560665
567509
394226
520400
563682
565104
557202
515229
436150
401098
449860
422227
398802
499049
456210
409600
451939
451265
366296
420039
418139
356314
414153
364876
430847
357141
442276
407406
418098
423301
465218
441786
421913
381836
455791
433515
392384
489191
461135
428637
476523
449616
445705
436059
368079
418552
445708
306706
363340
314107
358341
308647
309066
314800
318341
356445
420148
350079
355546
353346
347011
422897
347937
354279
360798
370682
410717
387338
405568
344824
518382
454187
422802
531563
469161
421516
528789
443417
471341
465578
454425
524801
465816
507405
488394
461639
464668
430962
446661
522026
501286
418727
508607
521221
453774
480958
448923
519563
531646
459145
506969
457141
467414
535169
391514
585108
584721
397218
421644
523878
580513
587907
484757
549369
589260
579260
576396
546841
555336
574383
395071
416824
500292
388797
533720
382516
384855
424969
561692
570362
549862
411774
561367
423756
530749
510997
388143
544100
375971
445577
383556
334662
427219
473896
418063
427689
415512
426588
429228
451459
388336
446578
410580
401062
422758
431078
350290
414230
417153
364871
418405
415187
355583
367971
444475
433770
370228
404712
501415
447854
418202
388414
453371
447280
433849
377917
338913
445475
470982
475355
482508
408353
433442
399858
439474
446930
384985
430558
381168
391409
317752
315215
301754
303683
354913
352283
291816
296025
367219
475122
497469
493597
492505
502027
489105
493772
514149
496323
464686
495638
485719
460594
518684
509512
494118
498685
515658
522475
528547
449277
468805
466340
493905
473478
472790
427749
513116
532546
474092
490937
475433
525311
509948
494496
483522
517478
493688
489233
517438
489519
494007
561025
528018
483986
528836
477292
517426
524146
478265
491234
530248
552808
458273
533397
501232
476141
549289
529230
492595
532740
529997
468959
450258
549335
526470
462425
539139
555143
529485
523388
518701
405120
488979
433406
466667
449657
471961
384453
519583
535914
389566
505035
494935
465792
458040
423461
525417
523098
471175
388989
525176
463924
476610
499875
413354
500958
440786
444051
461335
392670
535602
501155
510808
442717
456737
417564
499474
498215
450697
463055
441413
444683
447343
472335
444194
471512
396770
450116
434277
421540
443723
434727
382393
409958
444298
407577
465639
454834
430513
424304
472498
500059
456594
448106
458350
442670
441226
443454
381234
351954
452726
374280
439658
443545
405271
401893
443749
391043
488492
453722
446455
439536
441259
401975
472747
436021
493741
543568
467910
496612
425969
495809
426118
443493
527165
555425
434881
421917
500256
529341
474344
515104
402165
307749
558847
476030
511043
392512
306148
413533
525803
560047
548256
417690
512210
542418
499278
551129
454740
536051
500724
461589
509871
540029
490521
503714
528836
502159
524951
503010
528949
428619
462927
581803
431946
562353
457326
534662
484615
519482
458242
479724
563578
475792
560152
454294
471139
556417
420321
559405
585005
579951
529650
542782
552367
543433
550035
457086
461637
550124
428921
505631
495505
492542
529288
526109
536742
461781
522408
544330
537505
566773
498107
546536
550413
448123
514182
520515
512398
462851
516238
461102
505315
374677
450909
491229
466593
405557
469810
404851
393512
473243
475067
403545
498294
541857
539769
560990
496563
533264
572886
448559
580626
446913
488735
476109
444878
550599
400491
425982
524063
402477
466978
512613
467463
420506
352781
338850
503448
455864
313518
310491
346345
503784
392156
480160
383962
475445
404596
482123
394799
468585
537656
526188
553163
429492
418444
498181
516415
487941
536377
438303
569992
451000
463357
551820
439577
488249
560747
401412
562237
445962
448283
399726
514175
460250
494270
526161
465161
363868
423736
354318
501679
446402
319404
350663
314533
492995
470790
543281
521145
531879
541696
482258
540266
549274
546804
529441
472286
509020
523398
511006
455624
483973
455002
499852
578728
580760
600448
504867
475518
584440
586225
396828
535933
538289
439012
577811
589533
414682
528914
524421
447350
588982
583044
585095
414811
532649
539804
447957
589449
525477
442336
566153
506941
418816
567440
559895
550463
538762
581632
580624
584492
599649
385906
541285
599896
426438
518690
552116
558008
505694
474771
572966
496916
434050
560258
561606
563405
529447
589261
415640
530428
596860
418056
495374
554488
535818
546646
541250
563517
571207
537212
500176
497243
503375
496765
538342
418122
511996
503821
522670
519598
522306
516282
478158
423712
408605
449226
468482
446434
449185
459414
483641
422207
417573
509847
585920
580948
554171
394579
384162
516144
453135
574188
514208
397166
402353
451784
428607
423026
412533
419785
353954
299330
494792
500022
494173
504424
504815
511833
435434
593759
562274
471419
490185
414331
356577
299583
364095
415782
494606
418032
427418
502030
494170
477736
483198
515157
497974
554499
432487
409940
516714
520854
521474
437196
419505
472792
455554
459981
421414
413989
530629
474339
518192
526043
545764
535876
521722
412060
542132
548434
537245
574391
576679
536694
446087
493508
504365
495039
477729
476306
497024
471872
437347
487107
472956
471827
480740
478223
486469
491967
494136
504486
491333
514116
415274
492300
515527
489585
423852
498974
500964
516033
514526
495773
501534
491433
437913
491693
492061
524928
511643
482720
450294
469354
474275
520033
542440
433445
488800
535418
537018
533898
520948
527386
557886
429012
511094
532795
523963
532101
524341
527189
447884
458835
525004
507379
519196
505683
450875
474999
523783
545397
429193
478092
498672
498887
510824
479440
517812
513832
455527
469727
486829
446617
445466
409085
403865
468210
431575
434932
434778
338643
343144
430299
484792
438466
439825
440868
431366
423273
378220
434792
425199
387781
504361
484821
362142
438890
480558
365676
423219
408738
365058
503081
519364
407251
476446
409298
402662
420303
494412
485766
526293
503776
430778
495315
544169
433852
489610
501501
501295
493315
509223
505643
510196
510242
428647
464482
504522
489979
498767
513607
601974
381517
557520
594061
409623
549605
552540
526141
451739
532344
419001
584934
411229
514403
515078
586184
542201
568344
548749
376422
554632
483617
450000
475438
436809
353466
367981
474290
441759
446458
429955
494207
391818
430021
350773
470731
433569
292050
293007
365755
293859
367161
364479
316675
510343
340955
414136
498847
500706
475599
480794
432644
409114
412188
413110
492970
484526
412006
519012
503684
480519
533227
502971
507897
503141
429967
493808
540439
437514
504223
503118
502032
513921
472813
511791
523939
465512
421226
553724
571677
564290
603184
590758
526352
583215
412357
518046
450207
536419
577166
512912
575495
542025
512931
516819
574431
485532
431720
514738
452563
447556
452039
424800
514197
440172
426677
359865
475580
434433
497552
422130
358103
366280
317498
501239
506587
511915
474027
494750
482202
490759
497147
502797
511170
530341
421226
459821
509904
486611
492355
497522
504933
517600
518673
506319
484222
490825
543332
530058
555927
388784
502022
532913
526540
528890
533460
415046
526391
553144
433080
528298
543945
459392
514488
524434
521055
524044
449764
519828
523104
515678
510523
391228
443946
438667
346418
430812
485043
377737
480675
432311
425462
470501
495627
)
;
    }
}


// ************************************************************************* //
