/*--------------------------------*- C++ -*----------------------------------*\
| =========                 |                                                 |
| \\      /  F ield         | OpenFOAM: The Open Source CFD Toolbox           |
|  \\    /   O peration     | Version:  v1906                                 |
|   \\  /    A nd           | Web:      www.OpenFOAM.com                      |
|    \\/     M anipulation  |                                                 |
\*---------------------------------------------------------------------------*/
FoamFile
{
    version     2.0;
    format      ascii;
    class       volScalarField;
    location    "0.98/oil";
    object      wallHeatFlux;
}
// * * * * * * * * * * * * * * * * * * * * * * * * * * * * * * * * * * * * * //

dimensions      [1 0 -3 0 0 0 0];


internalField   uniform 0;

boundaryField
{
    maxY
    {
        type            calculated;
        value           uniform 0;
    }
    minX
    {
        type            calculated;
        value           uniform 0;
    }
    maxX
    {
        type            calculated;
        value           uniform 0;
    }
    minY
    {
        type            calculated;
        value           uniform 0;
    }
    minZ
    {
        type            calculated;
        value           uniform 0;
    }
    maxZ
    {
        type            calculated;
        value           uniform 0;
    }
    oil_to_sphere
    {
        type            calculated;
        value           nonuniform List<scalar> 
1536
(
376465
353968
337547
392478
353591
362985
352126
287671
255334
321730
355419
324579
346244
319623
412838
365877
293262
251723
173251
342358
330672
371720
348686
369573
387910
388566
389435
371038
346560
373639
335641
295599
281971
392181
369840
364936
345871
393069
378832
392150
382064
366151
366956
336334
360432
331428
340713
346279
418625
352189
368186
341094
344749
344783
293932
256191
360320
353529
252634
224225
209838
224853
209294
211894
216216
330697
361910
313925
385425
357506
393564
364955
402745
382019
370916
284429
244825
288212
366034
245276
226238
208753
209768
208837
200176
219083
207001
287452
258274
223588
205689
165967
169508
212572
216393
332790
364779
295782
320303
378772
364598
392278
352797
348470
360158
383232
373654
294222
336291
278121
256427
292627
226998
218288
211461
207882
212226
202696
206601
214223
243394
205711
168970
328624
376146
369727
387050
350712
351122
372499
344442
369414
346778
367124
344287
379160
349372
257242
342891
358491
220939
210162
294733
245424
204039
247402
376089
296270
253009
402382
397770
287855
367018
365535
369532
242746
315022
221901
373242
268153
378513
295791
394923
388706
365807
347068
373530
234750
305357
222482
340613
326490
330871
301721
264639
234120
364251
292063
310462
377544
394667
385943
355035
390706
230220
311772
214913
346605
333695
355651
359868
387698
313117
372145
356397
328849
318746
349735
257075
341614
340594
356888
277918
229986
244397
253180
261455
249320
277980
218258
283386
249799
254409
278442
350703
335258
278032
321726
337885
275962
306903
359014
346716
310907
304642
308407
389213
312918
392396
405426
360511
317509
374914
253224
228602
292352
234257
239651
235638
269172
261658
137257
193763
341997
285503
365111
361060
309620
347392
268470
358185
413344
362480
379656
289455
347657
364575
280442
249070
252463
287690
205172
245318
192461
128657
191251
196737
145267
352508
316708
351798
325733
324027
363753
354001
322566
335648
273604
355598
307487
380940
372697
346618
323681
357611
364746
354052
347181
328357
332201
375498
245299
345515
240964
251280
260475
257635
237449
268624
264952
298218
288038
261549
259143
247993
390927
251939
384861
355529
221224
304082
207410
354130
349317
355161
332162
366772
363556
381504
311262
360864
337035
340146
395904
362996
331105
353055
311734
365179
310148
327986
298909
389245
344019
322619
376210
318138
358237
368458
298073
263186
348688
323431
338692
329162
328545
338354
338953
331745
371071
374275
388794
341643
376816
329468
356477
354434
336030
380332
331260
380849
355625
336804
379085
343315
353494
371557
363933
364500
352491
321511
389396
362497
345574
385987
339172
363557
343780
342938
238242
333761
255020
318471
259572
270635
347962
347591
244614
326549
276740
305434
271276
241837
267827
274375
234506
327736
238895
324699
263022
347367
346157
232065
371456
293999
255969
327295
255920
316325
272950
256647
254134
256445
269460
253462
245265
255797
254471
278644
255335
254800
256645
241815
208840
270997
231611
229390
246065
201820
223058
278614
240146
246893
245721
250030
241607
251174
197290
180629
214301
216509
257839
235019
226301
228622
267664
252810
275898
288058
259240
277675
276826
252397
318580
282152
267720
325846
273157
278311
316597
242849
276952
275024
307491
309214
358715
347390
321694
332321
370254
354800
340180
367512
296708
382888
351963
379489
326868
386819
344002
313684
362034
368157
307556
363241
386159
347898
351108
292108
381607
271784
373176
381982
398206
407334
431711
370854
380832
376188
390605
392021
250130
384181
352296
231284
217966
312345
345896
366757
226226
311140
331260
363274
348170
310090
247459
216572
255364
228428
215962
279101
252998
227604
251113
249058
192844
226149
232329
181740
228296
189606
241488
182028
250757
224737
231082
238717
273421
247374
239320
208225
264460
242794
216536
277876
260421
241860
285898
250137
248621
243870
193238
225090
248779
139559
192324
148282
187664
186634
184097
191226
191204
189544
324204
244409
279687
276800
244088
329327
247200
276458
278045
253824
304854
270197
309793
235132
369886
299181
275568
387072
338430
295215
376651
303257
334298
325667
313009
373954
329212
364038
342324
325035
322825
287701
299572
379584
370232
290368
356484
366532
307191
336193
299844
379766
382745
320869
361891
316324
329106
375650
265404
396842
389177
262969
305947
389356
410287
400154
334760
379005
405217
391519
381158
368595
349868
383471
239437
261691
315876
222246
392095
243522
218842
264838
329762
355710
347196
238192
347039
251405
316146
311692
225785
373082
236347
243016
204550
165951
232714
277801
232091
236203
236795
241181
251126
260567
207004
251014
224007
216067
232584
238779
180236
233697
231356
187244
232777
231870
181390
189285
253158
241212
190042
222621
287734
250097
238581
224089
251322
250419
240004
199583
167858
247806
269927
273802
287992
230061
243294
227092
256636
256763
211428
239222
209932
211998
193553
189167
140401
139510
185389
186916
129811
134355
195523
332639
355829
350788
349725
354485
347215
350102
363438
352427
309949
350139
342962
323651
372057
363776
347791
366087
366662
379296
375251
307108
330817
319097
351666
331396
342088
299694
360529
389488
327840
351179
336599
374068
366501
351806
346538
376208
356172
348814
371508
345396
351444
391951
367490
342040
362060
342711
363557
369965
339964
348885
375727
383980
323140
373677
351467
336745
378268
365184
350397
376536
361905
329664
317770
390104
376048
324064
381188
386923
368618
358252
337189
244793
325336
254919
277781
262108
326324
239408
358015
349312
235894
328218
329107
275999
268702
243008
342520
339206
331279
247943
346751
272026
286933
324414
249540
326521
262168
260504
317943
248393
345143
327955
342270
265087
267681
254224
321425
331268
259738
275333
252792
253764
253467
276412
255979
274119
217515
259906
243791
235651
245215
239009
202551
215937
245661
222155
268942
255591
244526
241925
294535
284245
254519
249353
264642
252450
245475
246604
202905
181527
253443
198557
250471
246822
227846
219382
250386
219242
280403
254711
247964
247706
257943
220413
279604
244742
354706
384746
273036
296135
277551
342395
276644
292378
366438
396350
307635
292199
354282
335443
331011
310550
214244
143430
401809
336685
294727
204936
139047
221349
370219
394671
370290
225739
365654
385904
360581
348523
315156
364681
286731
327927
362063
359440
334653
357593
352516
341311
330404
342130
299704
241636
290649
415681
306380
367998
321537
337327
331839
292917
259600
294998
397279
344968
370385
321699
290074
320178
242165
357922
397639
388969
376017
390780
373058
367861
370930
316923
272483
316453
245407
294731
343570
340561
384119
369206
389063
309931
359026
367250
378500
400487
358394
385742
375026
277821
324105
325229
325112
288009
322371
271910
296447
200071
260650
339743
324432
286207
325881
284195
273014
326104
327649
283417
347847
385032
387907
401498
360631
385825
377175
318303
409214
326784
335403
339734
306220
310328
224419
250167
303167
234270
267146
300621
274157
233328
181463
170211
299498
259568
145652
145867
167893
351939
273346
335078
273070
328408
283509
336219
279799
318884
382514
372991
390828
282062
269890
347321
359099
356532
387147
317153
373174
326881
333994
396303
309723
331911
317114
227558
353765
308448
266474
236610
293406
265143
342697
319757
272224
188842
236369
181123
300584
249340
149932
171798
145076
343264
338788
397479
360178
381493
365976
342869
382533
388869
385681
329536
306359
316787
328104
317801
264423
280998
264013
294403
408827
400543
409329
348999
345443
411587
352954
251330
318295
381507
314025
411960
400030
298837
363737
372942
312689
400421
413329
399094
297022
370128
381214
310130
406760
377230
304328
350857
327655
245796
331069
347771
350069
320372
414501
397779
400302
415634
271088
370035
406099
285658
341813
387633
356330
368369
340800
354966
322749
255967
325819
341943
356006
312172
410077
294698
363640
401304
282228
324579
389194
379723
332438
336086
348467
350371
305899
358856
354204
360670
351695
373622
297957
364932
331215
345608
349047
347086
338128
273120
243623
236745
259859
263146
265546
263469
271897
335606
280373
270803
357907
397725
411642
382610
283546
260572
363749
312782
356926
292065
227893
231399
264372
236476
232474
233968
236469
182115
137500
354390
359322
350762
362678
354041
351223
309761
426000
360672
263451
299702
230480
180616
140186
204663
222741
342963
268455
279018
351307
345642
331354
334872
364995
352816
378156
288331
296011
370110
341615
365806
260420
241123
272019
274627
267700
240564
221871
375116
282022
365550
369115
390102
383461
364700
258474
377616
329674
331805
357896
352811
303743
270141
340972
351571
349286
335874
338727
349138
331660
297850
346084
333984
334482
342970
340009
342215
354043
353413
363896
347625
369299
287572
350011
373383
341495
275168
351918
352045
373961
369340
349294
352070
339297
291273
335566
348868
375312
368308
340752
315914
331546
337078
366776
380715
315500
345113
371235
372627
361882
354100
356071
392674
307193
366827
362259
355732
370091
361072
366876
321064
316871
356308
358796
343468
301083
269969
284743
345001
325628
264488
288188
329643
335878
305793
284306
339708
303604
271230
279536
283012
258541
255000
226656
221455
264492
235965
239975
243984
167701
174281
235566
273287
248599
243426
244591
238624
234432
197955
257360
246754
211041
351080
342643
255815
298480
336609
260936
282148
321039
253541
354550
372621
287137
329175
310643
300917
293710
346336
334930
374697
353458
280784
343351
397937
305589
342579
359036
359768
349183
366930
356636
368026
365399
299100
329443
352713
349950
356191
371856
404859
253695
374351
412965
290566
380324
385475
374655
321016
370145
295404
396535
262128
322663
327088
366376
377684
337666
315121
215371
357967
301969
264200
289826
245050
182372
194732
264136
243253
249163
236378
280106
219182
239713
180743
264193
240848
134571
134948
208803
132579
206841
181531
148982
357337
236736
321322
348589
349524
333453
338390
290982
308523
305443
287568
344502
337526
272370
370926
355075
331576
380581
356143
365431
350000
281987
345140
386780
313947
361408
361444
358928
371865
327344
359812
381692
328961
298418
385834
404026
390098
410606
393146
346713
395614
295923
365207
317072
367778
348890
293694
355757
325929
330149
332678
357327
309657
255673
364958
312638
248388
253958
230560
291560
252501
236143
186825
267152
241377
285659
229616
202013
183851
149670
348197
352670
369035
330803
352822
340020
351187
347738
360615
367232
385758
295331
326626
367567
334439
342598
356781
361006
375454
372214
360907
343786
347645
391434
361676
391533
278795
351173
369605
357719
358838
371526
295945
356284
385016
309854
360750
324019
269915
339315
350403
337845
311506
273967
340740
311411
338697
300505
208685
261520
246765
175899
238039
275087
216420
272343
240105
238023
264213
282146
)
;
    }
}


// ************************************************************************* //
