/*--------------------------------*- C++ -*----------------------------------*\
| =========                 |                                                 |
| \\      /  F ield         | OpenFOAM: The Open Source CFD Toolbox           |
|  \\    /   O peration     | Version:  v1906                                 |
|   \\  /    A nd           | Web:      www.OpenFOAM.com                      |
|    \\/     M anipulation  |                                                 |
\*---------------------------------------------------------------------------*/
FoamFile
{
    version     2.0;
    format      ascii;
    class       volScalarField;
    location    "31.2/sphere";
    object      T;
}
// * * * * * * * * * * * * * * * * * * * * * * * * * * * * * * * * * * * * * //

dimensions      [0 0 0 1 0 0 0];


internalField   nonuniform List<scalar> 
304
(
482.079
482.109
482.107
482.123
482.08
482.078
482.078
482.109
482.077
482.233
482.233
482.123
482.106
482.232
482.232
482.154
482.122
482.154
482.08
482.107
482.124
482.078
482.109
482.233
482.233
482.155
482.124
482.232
482.232
482.181
482.076
482.154
482.182
482.115
482.079
482.125
482.154
482.084
482.083
482.155
482.181
482.114
482.081
482.115
482.066
482.067
482.08
482.08
482.082
482.116
482.08
482.08
482.117
482.082
482.066
482.081
482.084
482.081
482.117
482.109
482.109
482.124
482.124
482.156
482.155
482.182
482.078
482.124
482.109
482.156
482.124
482.182
482.155
482.08
482.084
482.117
482.081
482.078
482.078
482.114
482.078
482.122
482.073
482.106
482.153
482.181
482.119
482.153
482.108
482.107
482.076
482.181
482.154
482.154
482.121
482.115
482.079
482.079
482.064
482.077
482.079
482.114
482.078
482.114
482.08
482.078
482.064
482.081
482.078
482.079
482.115
482.109
482.123
482.156
482.108
482.124
482.155
482.182
482.079
482.156
482.124
482.124
482.108
482.182
482.155
482.082
482.079
482.115
482.08
482.124
482.108
482.155
482.108
482.155
482.124
482.182
482.077
482.155
482.109
482.155
482.109
482.182
482.124
482.153
482.074
482.121
482.123
482.181
482.106
482.153
482.108
482.122
482.075
482.181
482.123
482.154
482.107
482.081
482.077
482.114
482.078
482.154
482.078
482.108
482.154
482.181
482.107
482.124
482.122
482.108
482.077
482.181
482.154
482.124
482.108
482.114
482.076
482.077
482.078
482.08
482.116
482.084
482.124
482.155
482.182
482.077
482.107
482.124
482.155
482.107
482.182
482.154
482.108
482.075
482.154
482.121
482.115
482.079
482.079
482.156
482.124
482.182
482.081
482.126
482.11
482.156
482.108
482.182
482.124
482.123
482.079
482.155
482.109
482.182
482.107
482.154
482.11
482.156
482.077
482.123
482.123
482.154
482.107
482.154
482.107
482.122
482.075
482.114
482.078
482.081
482.181
482.108
482.124
482.122
482.154
482.078
482.108
482.154
482.124
482.109
482.155
482.124
482.109
482.08
482.078
482.078
482.082
482.07
482.078
482.083
482.115
482.078
482.115
482.08
482.078
482.065
482.086
482.082
482.118
482.082
482.155
482.156
482.182
482.081
482.109
482.11
482.124
482.123
482.182
482.155
482.107
482.077
482.124
482.108
482.116
482.08
482.079
482.117
482.082
482.079
482.182
482.122
482.154
482.108
482.123
482.075
482.107
482.154
482.154
482.122
482.123
482.107
482.107
482.075
482.078
482.079
482.077
482.067
482.114
482.079
482.077
482.082
482.079
482.077
)
;

boundaryField
{
    sphere_to_oil
    {
        type            compressible::turbulentTemperatureCoupledBaffleMixed;
        refValue        nonuniform List<scalar> 
360
(
340.689
340.689
315.802
362.376
370.826
318.301
371.981
371.981
371.981
343.062
343.062
319.163
321.434
313.541
340.334
364.728
359.759
359.759
359.759
315.116
357.716
335.705
334.399
366.133
313.613
366.91
317.386
366.503
366.503
366.503
372.871
364.725
315.836
315.58
318.95
319.119
360.464
360.464
360.464
359.775
369.017
317.375
318.992
340.688
340.688
317.272
321.392
311.399
338.495
367.33
318.432
318.334
321.067
321.399
314.866
335.88
360.79
315.127
319.013
321.353
312.384
367.784
367.784
367.784
311.405
366.384
338.356
325.707
370.976
370.976
370.976
371.176
369.591
313.111
358.273
339.637
313.934
332.852
368.856
360.681
335.527
323.475
334.693
312.252
315.795
318.157
319.339
321.287
313.681
315.256
315.824
321.173
319.01
316.029
321.016
318.959
319.312
319.23
316.335
312.399
312.481
313.936
318.288
319.04
321.187
313.811
313.635
321.445
316.309
319.368
319.39
319.259
316.363
314.979
311.758
311.705
327.962
325.416
329.264
340.586
340.586
362.376
362.376
366.133
366.133
363.605
363.605
363.605
365.76
365.76
365.76
328.588
325.458
327.962
314.533
370.826
370.826
339.966
339.966
372.871
372.871
337.856
337.856
372.091
372.091
372.091
314.509
314.333
365.175
365.175
365.175
365.431
365.431
365.431
364.728
357.716
340.334
364.728
363.001
313.983
363.001
363.001
334.474
335.177
323.942
335.291
335.291
370.646
370.646
370.646
312.175
357.716
335.705
369.616
369.616
312.206
369.616
335.232
323.813
311.494
317.325
317.57
321.717
313.515
321.394
317.558
311.479
312.358
366.91
366.91
364.725
364.725
340.702
340.702
362.554
362.554
362.554
338.854
338.854
312.321
318.648
318.489
321.352
318.847
318.175
321.346
316.203
321.459
319.288
316.199
359.775
321.495
319.497
315.129
369.767
369.767
369.767
336.676
336.676
312.023
319.139
319.128
321.288
369.017
317.224
321.174
319.162
359.775
369.017
336.759
315.037
336.759
312.507
311.743
321.327
313.59
317.5
317.408
317.625
313.43
312.008
367.867
360.963
367.867
367.867
360.963
360.963
367.33
366.384
338.495
364.153
312.393
367.33
364.153
364.153
320.825
315.54
319.065
321.135
315.991
371.176
318.757
319.26
319.421
316.326
360.79
358.273
319.334
319.209
316.306
360.001
363.43
335.88
369.395
312.515
360.79
369.395
369.395
321.654
317.234
368.856
319.111
318.963
318.976
368.998
317.114
368.661
337.076
360.001
337.076
368.998
360.001
368.998
311.383
325.279
327.114
327.517
339.348
362.618
339.348
362.618
362.618
312.273
366.384
363.802
338.356
363.802
312.344
363.802
328.554
328.175
313.557
369.25
338.495
369.25
369.25
338.495
313.782
318.131
318.86
321.237
369.591
371.176
338.453
314.262
369.591
338.453
313.852
358.273
364.505
339.637
364.505
313.357
364.505
321.515
360.681
316.426
319.385
363.272
360.218
363.43
340.077
363.43
363.272
340.077
363.272
323.195
334.595
368.856
336.064
312.234
360.681
336.064
315.288
368.661
360.218
368.661
337.055
360.218
337.055
)
;
        refGradient     uniform 0;
        valueFraction   nonuniform List<scalar> 
360
(
0.000132273
0.000126897
8.1241e-05
0.000290228
0.000297655
0.000170679
0.000299505
0.000257085
0.000400164
0.000127408
0.000124221
0.000166646
0.000253977
7.26169e-05
0.000129901
0.000252516
0.000289377
0.00027038
0.000379404
6.64483e-05
0.000249112
0.000122465
0.00011287
0.000299522
8.69621e-05
0.000307874
0.000173543
0.000303898
0.00039771
0.00026604
0.000303948
0.000306566
8.2319e-05
8.13994e-05
0.000170821
0.000168104
0.000284452
0.000385631
0.000264806
0.00039816
0.000393297
8.39797e-05
0.000166575
0.000121573
0.000121428
0.000171476
0.000256547
6.84451e-05
0.00012247
0.000259696
0.000169159
0.000170258
0.000253788
0.000251321
7.10036e-05
0.000129892
0.000264885
6.80196e-05
0.000168507
0.000251282
6.6579e-05
0.000295822
0.000261139
0.000408712
6.86408e-05
0.000267005
0.000124546
0.000120461
0.000302657
0.000394827
0.000265588
0.000380739
0.000386069
7.37339e-05
0.000257416
0.000130587
6.79806e-05
0.0001219
0.00038525
0.000400207
0.00011956
0.000117305
0.000115218
6.84755e-05
8.25747e-05
0.000167411
0.000168348
0.000254946
7.69576e-05
6.49792e-05
8.17222e-05
0.00025453
0.000168029
8.348e-05
0.00025411
0.000169948
0.000168942
0.000169202
8.25105e-05
6.61368e-05
6.70645e-05
6.61719e-05
0.000170116
0.0001672
0.000254338
7.48802e-05
6.50411e-05
0.000254154
8.07393e-05
0.000167463
0.000167495
0.000170912
8.35738e-05
6.69218e-05
6.52662e-05
6.65272e-05
0.000115801
0.00011594
0.000120444
0.000130604
0.000122749
0.000253631
0.000399552
0.000267218
0.000403226
0.000258468
0.000397376
0.00029587
0.000258676
0.000388726
0.000291383
0.000118851
0.000112396
0.000115122
6.35513e-05
0.000263569
0.000396836
0.000122779
0.00012334
0.000401038
0.000266641
0.000128708
0.000135652
0.000396101
0.000272105
0.000313546
6.99422e-05
6.50886e-05
0.000274727
0.000380702
0.000301764
0.000282867
0.000393883
0.000301733
0.00031153
0.000286958
0.000134231
0.000400099
0.000258441
7.20536e-05
0.000388871
0.000291004
0.000111053
0.000116999
0.000115746
0.000122106
0.00012764
0.000398097
0.000262124
0.000307679
7.37721e-05
0.000382955
0.000131312
0.000402685
0.000257785
7.20593e-05
0.000305656
0.000112039
0.000113079
6.60676e-05
0.000173172
0.000173103
0.000255962
8.5355e-05
0.000256348
0.000168673
6.53892e-05
6.34951e-05
0.000400575
0.000254521
0.000395873
0.000263932
0.000125894
0.000117735
0.000397719
0.000248569
0.000287323
0.000116376
0.000135033
6.79338e-05
0.000170128
0.000169974
0.000253955
0.000166282
0.000167138
0.000252955
8.67004e-05
0.000253822
0.0001721
8.43137e-05
0.000285693
0.000253542
0.00017107
6.81757e-05
0.000389027
0.000252199
0.000295075
0.000122932
0.00011424
6.59885e-05
0.000168805
0.000171643
0.000254496
0.000289347
8.09246e-05
0.000252081
0.000164634
0.000250413
0.000265098
0.000120337
6.75912e-05
0.000133532
6.84268e-05
6.44109e-05
0.000257337
8.58783e-05
0.000173003
0.000171003
0.000168965
8.47988e-05
6.47745e-05
0.000263114
0.000246544
0.000413893
0.000308081
0.00038614
0.000277441
0.000297367
0.000304462
0.000135332
0.00026119
7.03702e-05
0.000397467
0.000386478
0.000293641
0.000256114
8.16069e-05
0.000166647
0.000253169
8.23378e-05
0.000301669
0.000167369
0.000168565
0.000167012
8.1839e-05
0.000299418
0.000280581
0.000170394
0.000165989
8.34148e-05
0.000281133
0.000309453
0.000122724
0.000277788
6.59737e-05
0.000395765
0.000383693
0.000289923
0.000251291
8.25501e-05
0.000290378
0.000167204
0.000167461
0.000168415
0.00029196
8.33236e-05
0.000298297
0.000125517
0.000257188
0.000126564
0.000262082
0.000399395
0.000392091
6.59428e-05
0.000132143
0.000130583
0.000127722
0.000116313
0.000389145
0.000127037
0.000258707
0.000304641
6.49818e-05
0.000392944
0.000392469
0.000128479
0.000279055
6.80983e-05
0.000299168
0.000113905
0.000111899
6.80421e-05
0.000384868
0.000115022
0.000252401
0.000297263
0.000123314
6.72233e-05
0.000167269
0.000167211
0.000252319
0.000288714
0.000250419
0.000121073
6.51713e-05
0.000254614
0.000134471
7.52682e-05
0.000368973
0.000396203
0.000117096
0.00025168
6.97776e-05
0.000316525
0.000254252
0.000304626
8.33333e-05
0.000167988
0.000293697
0.000284734
0.000267873
0.000119731
0.000392391
0.000391547
0.000142131
0.000261727
0.000115153
0.000116919
0.000263487
0.000130431
7.05207e-05
0.000266484
0.000125594
6.51251e-05
0.000387849
0.000392506
0.000258255
0.000125331
0.000253679
0.000129465
)
;
        value           nonuniform List<scalar> 
360
(
482.082
482.083
482.086
482.065
482.066
482.101
482.066
482.072
482.06
482.08
482.081
482.1
482.102
482.088
482.082
482.071
482.058
482.064
482.053
482.088
482.068
482.081
482.067
482.063
482.084
482.063
482.1
482.064
482.056
482.069
482.064
482.062
482.084
482.084
482.099
482.101
482.06
482.054
482.065
482.052
482.056
482.084
482.101
482.081
482.083
482.099
482.103
482.087
482.081
482.069
482.102
482.101
482.103
482.103
482.085
482.078
482.064
482.087
482.1
482.104
482.087
482.064
482.068
482.056
482.088
482.069
482.082
482.067
482.068
482.063
482.073
482.062
482.061
482.091
482.072
482.085
482.087
482.069
482.057
482.052
482.069
482.068
482.07
482.088
482.088
482.1
482.101
482.102
482.084
482.087
482.085
482.103
482.102
482.083
482.103
482.1
482.1
482.099
482.082
482.089
482.089
482.09
482.101
482.102
482.103
482.088
482.087
482.102
482.08
482.099
482.101
482.099
482.082
482.086
482.09
482.089
482.069
482.069
482.068
482.082
482.083
482.07
482.055
482.07
482.056
482.07
482.055
482.064
482.07
482.057
482.065
482.069
482.069
482.069
482.091
482.072
482.06
482.084
482.084
482.061
482.072
482.082
482.082
482.06
482.071
482.063
482.089
482.087
482.066
482.054
482.058
482.065
482.053
482.059
482.059
482.06
482.08
482.052
482.069
482.087
482.053
482.061
482.068
482.068
482.066
482.079
482.079
482.055
482.069
482.064
482.086
482.053
482.079
482.055
482.069
482.086
482.063
482.068
482.066
482.087
482.1
482.099
482.103
482.085
482.103
482.101
482.088
482.088
482.055
482.069
482.055
482.068
482.081
482.083
482.054
482.07
482.063
482.083
482.081
482.089
482.101
482.101
482.103
482.102
482.102
482.103
482.08
482.103
482.099
482.082
482.061
482.103
482.099
482.086
482.058
482.07
482.065
482.079
482.082
482.087
482.101
482.1
482.103
482.065
482.084
482.103
482.101
482.066
482.068
482.079
482.085
482.078
482.086
482.087
482.103
482.083
482.099
482.099
482.1
482.081
482.089
482.068
482.07
482.057
482.063
482.058
482.068
482.062
482.06
482.079
482.068
482.087
482.054
482.054
482.064
482.103
482.088
482.103
482.103
482.085
482.066
482.102
482.1
482.103
482.084
482.061
482.062
482.099
482.101
482.082
482.061
482.059
482.08
482.067
482.087
482.053
482.058
482.066
482.104
482.085
482.065
482.101
482.102
482.102
482.067
482.087
482.067
482.08
482.067
482.08
482.069
482.053
482.058
482.087
482.069
482.07
482.07
482.082
482.056
482.08
482.068
482.065
482.088
482.055
482.054
482.08
482.065
482.087
482.062
482.068
482.068
482.091
482.063
482.086
482.074
482.068
482.085
482.091
482.102
482.103
482.104
482.064
482.073
482.083
482.09
482.071
482.08
482.087
482.056
482.055
482.083
482.07
482.088
482.058
482.102
482.058
482.081
482.1
482.061
482.061
482.066
482.081
482.053
482.053
482.077
482.066
482.069
482.07
482.069
482.08
482.087
482.065
482.079
482.087
482.058
482.054
482.07
482.081
482.067
482.079
)
;
        Tnbr            T;
        thicknessLayers 0();
        kappaLayers     0();
        kappaMethod     solidThermo;
        kappa           none;
        alphaAni        none;
    }
}


// ************************************************************************* //
