/*--------------------------------*- C++ -*----------------------------------*\
| =========                 |                                                 |
| \\      /  F ield         | OpenFOAM: The Open Source CFD Toolbox           |
|  \\    /   O peration     | Version:  v1912                                 |
|   \\  /    A nd           | Website:  www.openfoam.com                      |
|    \\/     M anipulation  |                                                 |
\*---------------------------------------------------------------------------*/
FoamFile
{
    version     2.0;
    format      ascii;
    class       volScalarField;
    location    "350/oil";
    object      heatTransferCoeff(T);
}
// * * * * * * * * * * * * * * * * * * * * * * * * * * * * * * * * * * * * * //

dimensions      [1 0 -3 -1 0 0 0];


internalField   uniform 0;

boundaryField
{
    maxY
    {
        type            calculated;
        value           uniform 0;
    }
    minX
    {
        type            calculated;
        value           uniform 0;
    }
    maxX
    {
        type            calculated;
        value           uniform 0;
    }
    minY
    {
        type            calculated;
        value           uniform 0;
    }
    minZ
    {
        type            calculated;
        value           uniform 0;
    }
    maxZ
    {
        type            calculated;
        value           uniform 0;
    }
    oil_to_sphere
    {
        type            calculated;
        value           nonuniform List<scalar> 
1536
(
-19.915
-14.9452
-14.8316
-5.77693
-5.54756
-14.7053
-10.6919
-12.3484
-11.7524
-6.56278
-2.91516
-7.2436
-11.6627
-7.437
-1.74167
-10.1489
-14.7178
-15.0716
-9.88326
-11.4031
-13.5099
-11.831
-12.1824
-10.0957
-10.5814
-10.3363
-10.5612
-9.48682
-14.4176
-11.9961
-15.9071
-14.9794
-15.1521
-10.1991
-10.4924
-9.528
-9.98584
-8.5228
-9.44301
-10.5329
-9.24023
-9.96497
-11.5827
-12.6035
-13.8253
-10.4711
-13.4209
-12.1211
-2.12112
-10.311
-13.0455
-11.823
-12.0235
-10.088
-14.2557
-17.6602
-12.1248
-11.4144
-13.4318
-12.9662
-11.4599
-11.6091
-11.3633
-9.95679
-10.4442
-11.2404
-11.3898
-13.1602
-13.1171
-14.2305
-9.93238
-5.55625
-7.1557
-10.3493
-10.3242
-17.9873
-15.2144
-8.57627
-10.1605
-14.901
-13.5761
-12.8454
-5.80731
-5.67561
-14.3924
-18.9559
-4.53836
-10.9692
-12.974
-12.9487
-11.7546
-9.69329
-9.61284
-9.83712
-10.3184
-12.56
-13.4748
-13.8141
-15.5744
-12.8341
-13.6115
-9.86054
-19.9975
-13.0896
-6.94035
-10.2299
-10.6354
-6.12979
-6.08621
-20.1273
-15.1631
-12.3259
-11.5736
-12.1973
-5.09978
-5.58909
-4.12479
-16.7463
-19.4559
-15.4421
-11.9692
-12.1964
-9.38654
-13.4138
-15.8491
-12.6032
-11.9323
-9.05742
-13.7194
-13.409
-11.2623
-13.209
-14.1899
-10.6843
-10.996
-14.4795
-12.224
-14.9413
-9.15118
-14.7678
-11.7976
-13.3536
-13.4037
-11.6507
-11.0768
-11.5406
-12.6407
-16.5894
-11.0837
-20.206
-14.0274
-14.8126
-12.1226
-12.3984
-10.3347
-12.6317
-14.4427
-13.3554
-21.0321
-15.6277
-15.1496
-16.833
-7.79318
-8.58382
-9.76042
-9.67412
-14.1783
-16.3392
-15.5641
-17.7088
-9.47184
-9.78184
-8.62686
-13.4931
-11.9668
-12.4182
-18.5269
-8.14347
-7.0209
-18.954
-9.55984
-8.65388
-8.46619
-8.93268
-12.9997
-18.9677
-15.6647
-9.23784
-7.66153
-14.9902
-7.98475
-14.1325
-14.1345
-16.3466
-7.18844
-0.678982
-16.1609
-16.8435
-10.6025
-10.2859
-11.8468
-10.7465
-15.0712
-16.1038
-13.9089
-12.8607
-9.82666
-16.5092
-15.6173
-12.3883
-9.05066
-10.4404
-10.2393
-10.8356
-13.5824
-17.8301
-7.70169
-7.35269
-7.50291
-0.0090747
-14.7053
-13.5177
-12.8061
-11.806
-12.0216
-16.5271
-14.1001
-10.3826
-14.7345
-6.60958
-9.54804
-0.908087
-11.6266
-14.4156
-16.1856
-15.6769
-14.725
-13.6815
-15.4218
-7.14663
-7.85992
-8.54234
-16.9557
-8.80444
-0.832731
-4.30266
-13.5532
-11.5058
-18.6275
-20.9023
-12.2842
-5.67035
-0.140025
-12.95
-15.5233
-9.84876
-10.0009
-4.86972
-9.6647
-16.512
-19.1628
-11.3839
-9.99302
-17.4004
-15.7057
-10.3947
-6.96522
-11.0271
-17.9897
-16.8033
-13.6933
-14.1522
-15.9754
-8.46921
-10.1974
-16.2391
-14.1441
-14.882
-11.5865
-14.747
-17.6948
-13.8675
-13.4594
-17.138
-9.8956
-9.82974
-10.2712
-9.43291
-9.73286
-16.4173
-18.141
-7.2754
-10.8571
-10.5934
-10.7891
-9.2275
-12.0335
-11.5413
-8.68965
-4.93956
-9.60342
-7.29736
-9.17805
-18.9822
-17.2577
-17.1672
-20.4365
-8.14798
-8.50858
-11.8635
-20.2231
-19.1654
-9.55925
-11.6282
-9.29807
-14.049
-10.0908
-13.424
-13.8376
-15.2482
-14.2841
-10.506
-14.4655
-9.54743
-16.0059
-16.6483
-14.8978
-14.4954
-8.81608
-18.2792
-18.0668
-13.955
-7.07118
-9.84316
-10.7272
-13.8583
-13.3679
-14.0976
-8.65621
-15.9249
-16.0621
-15.2888
-17.1365
-13.1972
-12.5826
-11.4193
-7.85286
-12.6178
-13.9603
-7.80715
-7.44794
-8.33026
-19.6895
-15.826
-17.1425
-13.3171
-12.4988
-16.3194
-7.56958
-18.6169
-15.2403
-12.5954
-12.4954
-7.25194
-15.1984
-15.7119
-9.00697
-12.6062
-11.3028
-10.0118
-14.0658
-15.8419
-11.579
-10.3709
-8.19138
-17.8392
-16.0394
-7.40697
-16.3682
-15.6781
-14.7098
-17.8234
-12.5307
-14.3241
-6.4638
-7.22372
-13.8196
-20.2192
-14.9313
-18.6003
-13.2584
-10.6616
-15.5473
-8.31198
-9.29494
-13.3986
-15.7514
-14.1407
-13.3666
-8.52135
-8.52843
-16.2628
-15.9844
-16.0536
-12.4228
-9.69502
-13.5131
-14.503
-15.6863
-12.7091
-10.9919
-8.85564
-12.272
-8.07706
-6.14517
-9.80891
-8.90264
-12.3472
-6.59516
-10.7184
-18.3012
-10.6058
-10.545
-15.6979
-15.6361
-13.9644
-11.3229
-7.74681
-14.8806
-17.1988
-13.7202
-12.7706
-15.0633
-11.6518
-12.1688
-13.2307
-5.75784
-13.6698
-16.0679
-17.0967
-15.5009
-14.3881
-14.1673
-12.7553
-11.1087
-8.31789
-11.9493
-8.85119
-7.26544
-9.29926
-6.10913
-19.1341
-18.4545
-16.6767
-19.9032
-8.19846
-19.1948
-8.61316
-9.58535
-14.6885
-7.85268
-8.46142
-10.7776
-10.604
-18.6264
-17.2275
-13.2462
-13.6001
-17.7511
-16.2956
-12.701
-14.4671
-9.12263
-15.7613
-7.06194
-17.0412
-5.71213
-14.2588
-14.8637
-15.5021
-10.4755
-8.25226
-11.2233
-15.6565
-11.4564
-6.70899
-15.7322
-16.118
-16.7331
-20.5416
-12.6915
-17.5783
-8.10311
-8.72973
-2.34274
-4.30023
-12.6678
-10.7529
-10.1156
-9.30757
-19.5424
-8.56155
-7.57093
-6.8763
-10.7951
-6.58803
-20.9692
-9.09343
-9.45965
-11.9866
-3.03248
-4.77273
-9.84477
-9.71468
-11.5804
-10.3506
-16.0838
-15.4768
-14.192
-12.6489
-6.24709
-10.0985
-15.3111
-8.30276
-9.02232
-14.88
-17.8896
-9.10628
-2.31728
-7.85234
-2.90028
-11.8656
-10.481
-9.47326
-7.04018
-2.98913
-14.0869
-14.7779
-13.3931
-11.7893
-18.0308
-14.2428
-13.8675
-12.5112
-8.77977
-10.2632
-16.0648
-14.2087
-10.9108
-4.13399
-12.8319
-15.1236
-18.3134
-13.0001
-9.85012
-18.3373
-12.0291
-17.6429
-9.06953
-10.4689
-8.42191
-10.5991
-12.9075
-17.8891
-8.23988
-9.40488
-8.75056
-10.8129
-21.1052
-7.07669
-10.2004
-7.50249
-12.0159
-12.8841
-16.1191
-18.0315
-6.28688
-7.09291
-17.9634
-18.5755
-5.27242
-17.6638
-16.3846
-14.9181
-16.231
-13.8771
-12.2912
-12.5515
-17.7998
-12.6799
-13.9607
-12.2611
-15.7087
-13.0305
-11.8878
-11.5489
-7.84091
-14.895
-11.7741
-15.6275
-14.3634
-14.4735
-14.1891
-12.7213
-7.22477
-16.2205
-16.1873
-14.0362
-11.8339
-13.1365
-19.9647
-6.50634
-8.98134
-8.0199
-12.8423
-9.23046
-20.0144
-10.6251
-11.1341
-12.1039
-2.46331
-3.25951
-9.99845
-9.89701
-12.5186
-8.41981
-9.32365
-12.9928
-9.51471
-18.0698
-7.86999
-19.7047
-10.5883
-12.7149
-0.863288
-3.07456
-2.26611
-9.48531
-14.9245
-10.1867
-9.49253
-2.95647
-12.3322
-15.1924
-12.425
-22.3528
-9.08856
-16.0683
-13.9419
-15.0918
-16.5131
-16.3191
-15.0557
-12.0013
-10.995
-11.9341
-15.0994
-11.3307
-13.4564
-12.9499
-13.3634
-15.5283
-14.2174
-14.8755
-7.75535
-8.8755
-0.54667
-4.92385
-6.01268
2.35898
-9.84696
-10.3637
-11.3409
-11.8727
-6.12701
-7.93175
-10.8965
-16.8332
-16.2858
-10.8032
-6.83129
-11.6502
-15.3892
-13.9958
-12.1167
-6.48656
-9.08546
-14.1054
-13.1516
-12.0265
-10.0101
-14.5658
-14.6515
-17.8295
-14.7168
-12.7858
-10.3584
-9.2443
-7.74879
-9.75662
-11.4631
-20.2879
-12.6718
-18.974
-9.14857
-20.6937
-9.85063
-11.5094
-8.12284
-8.61548
-10.4016
-7.65113
-11.2395
-6.559
-10.0633
-15.994
-10.7091
-7.35843
-18.1636
-14.4237
-13.549
-11.7159
-17.6551
-23.0257
-5.02515
-14.2776
-13.2693
-13.9477
-7.63043
-11.7924
-9.27257
-13.3168
-14.756
-16.3165
-8.74141
-14.0797
-12.4728
-14.6265
-14.3238
-13.8285
-10.8361
-11.4208
-10.1318
-6.76823
-6.23136
-8.37634
-17.4038
-10.0846
-7.55011
-10.2235
-16.1184
-11.178
-17.3632
-15.4606
-13.6979
-12.7745
-13.6008
-18.4212
-8.3855
-14.1931
-16.3835
-16.8949
-12.6866
-9.22503
-11.0655
-13.6192
-17.0391
-8.04375
-11.4777
-12.5388
-15.9924
-13.6239
-13.5451
-17.5444
-8.13267
-9.43775
-8.80401
-18.4496
-16.2594
-12.5762
-15.9496
-9.48967
-10.0621
-15.9315
-13.5131
-17.8588
-8.60786
-15.1556
-15.7552
-12.9194
-13.3525
-14.8739
-8.70542
-5.94937
-12.2083
-13.5384
-18.6226
-11.5917
-9.75179
-11.925
-13.6545
-15.0787
-12.7716
-9.33671
-11.6297
-15.7147
-8.14165
-9.33778
-11.6336
-9.99373
-13.1968
-12.7515
-16.7895
-13.9234
-15.4723
-10.2016
-11.9701
-13.1867
-11.7981
-11.04
-10.3498
-10.2813
-8.24254
-14.5009
-13.0614
-13.0624
-13.7238
-7.0888
-10.6222
-18.2659
-18.38
-9.33948
-16.055
-13.6326
-14.4604
-10.2132
-16.9603
-16.6159
-8.50224
-11.1688
-10.5476
-10.3419
-6.93042
-7.95063
-10.5475
-16.5053
-20.0123
-9.75691
-14.8336
-14.48
-13.5284
-11.3384
-13.2225
-16.7582
-13.0626
-8.6542
-10.6585
-10.2255
-10.4472
-13.9543
-14.4483
-14.5277
-14.7719
-14.7424
-9.37388
-15.0244
-10.7818
-14.2422
-2.99176
-13.7434
-17.2611
-11.0208
-5.02086
-12.1271
-11.4229
-18.9533
-8.88882
-15.0319
-11.8936
-5.87404
-18.0763
-7.34473
-11.4745
-12.2737
-7.04249
-16.0619
-13.2661
-11.3401
-12.5806
-13.2319
-11.4582
-19.233
-7.47232
-10.4565
-1.71313
-10.8472
-11.0459
-12.437
-16.0185
-23.3073
-6.63053
-10.51
-21.6751
-7.38336
-14.6613
-9.23117
-14.4497
-4.62732
-8.91237
-21.5076
-5.55165
-20.4171
-6.36004
-18.6999
-5.94866
-8.82696
-2.25226
-7.49088
-20.8079
-3.5502
-11.8275
-5.53176
-17.571
-20.8736
-3.81733
-11.104
-9.84279
-8.66648
-8.50214
-10.5724
-12.3286
-12.309
-14.3168
-11.9244
-17.7017
-22.0783
-3.71131
-12.3282
-13.7118
-12.3221
-12.905
-11.6763
-11.0478
-11.6553
-15.3264
-11.7816
-15.4197
-10.3928
-13.0528
-17.2686
-10.9834
-14.131
-16.1322
-10.3678
-13.0529
-11.8989
-14.2578
-11.4913
-12.6474
-11.1155
-15.8833
-10.6905
-13.497
-6.30673
-17.9299
-4.04705
-13.5037
-15.687
-18.1183
-8.99913
-12.8198
-11.9362
-12.8116
-12.4601
-11.7744
-15.2509
-8.41951
-0.515943
-11.1175
-5.08356
-16.3121
-9.09334
-12.1987
-14.5933
-1.13192
-17.039
-8.25157
-2.74042
-8.79373
-14.6893
-14.3738
-12.4102
-3.63157
-12.3379
-13.0533
-9.70974
-9.12238
-16.4598
-15.782
-10.1178
-12.5117
-16.4877
-3.75451
-15.2539
-9.01924
-14.1506
-4.21903
-19.9813
-19.5287
-15.7442
-12.3149
-11.0593
-14.5457
-10.8512
-3.55979
-8.05751
-14.8476
-9.24219
-13.8454
-4.98062
-16.1906
-14.1588
1.27887
-12.3694
-13.2948
-1.46316
-17.1716
-6.18019
-16.3846
-17.9923
-15.1608
-2.87195
-12.6095
-11.2297
-12.422
-12.7216
-13.8627
-3.82695
-10.3082
-9.35719
-9.3835
-16.0521
-12.1364
-13.3898
-14.3867
-14.1457
-11.161
-12.7637
-11.3999
-13.4592
-16.5716
-10.0975
-10.9524
-9.83666
-12.6741
-15.6385
-10.0396
-10.82
-10.4322
-12.2018
-9.33193
-9.6785
-10.7841
-11.1217
-12.6815
-10.6624
-17.8565
-15.2715
-5.37046
-5.5166
-17.1517
2.33837
-14.9571
-13.0213
-9.32333
-11.1389
-17.3585
-1.12758
-16.2766
-13.384
-3.24475
-10.499
-9.70466
-12.197
-0.660088
-17.0918
-13.5405
-1.26606
-16.723
-16.8201
-4.42722
-18.1623
-15.7624
-4.54968
-9.81447
-9.3543
-1.23784
-12.3068
-12.8166
-8.14461
-9.01913
-8.67198
0.930102
-8.90659
-0.850833
1.51314
-15.9417
-9.80895
-20.817
-10.1072
-3.7682
-17.1667
-11.4497
-2.15083
-10.0889
-9.86883
-2.04385
-5.51481
-16.9081
3.78745
-8.09701
-7.32198
2.35229
-16.2738
-15.4119
-12.2732
-10.7254
-9.79272
-8.12827
0.0374526
-12.4179
-10.8001
-11.0072
-12.2886
-2.72896
-14.7588
-10.1089
-11.7562
-9.69118
-11.5998
-12.6541
-7.85306
-3.13616
-10.5834
-12.8697
-10.013
-10.715
-11.906
-8.99932
-10.9217
-2.52114
-10.1211
-13.3595
-9.76092
-11.1743
-9.13271
-3.28822
-17.2802
-17.1149
-16.6863
-18.1908
-4.37508
-1.52291
-10.216
-15.0102
-12.7953
-14.6112
-15.3168
-8.11104
-7.14401
-1.70621
-3.83058
-8.96658
-11.8188
-11.5329
-11.3295
-7.18028
-15.9975
-13.4045
-4.64403
-8.76929
-7.9216
-15.2218
-9.08751
0.0770953
-11.8648
-12.0733
-16.235
-2.3487
-9.79276
-12.7311
-10.3735
-11.1446
-14.4474
-11.71
-8.2258
-18.6552
1.64188
-6.46436
-11.2841
-9.04478
-10.6022
-18.1123
-13.5686
-12.1339
-6.60059
-17.3217
-10.2825
-12.6441
-15.304
-16.2389
-15.8716
-16.2069
-17.7784
-18.7931
-17.5896
-17.6055
-12.2271
-15.5286
-10.0825
-11.1315
-7.04962
-5.8512
0.81345
-18.3019
-18.004
-16.6709
-10.9216
-12.6817
-12.3805
-9.18931
-12.9338
-15.4561
-8.38351
-11.3848
-14.2292
-9.79155
-10.1865
-9.95549
-10.8597
-8.96166
-10.7152
-10.3346
-4.24263
-12.6883
-8.46285
-11.3476
-2.04027
-18.2888
-11.5534
-9.49273
-8.79562
-4.75757
-12.0582
-9.61935
-1.29858
-6.46237
-11.4417
-5.69379
-6.81713
-18.9963
-19.5005
-10.3799
-10.4211
-14.8266
-18.036
-1.18065
-9.15531
-8.96056
-10.6283
-10.5961
-10.9783
-11.6578
-7.06674
-3.42389
-17.0902
-10.4902
-6.15228
-6.97859
-10.3719
-12.1891
-4.84576
-11.098
-9.17605
-10.0799
-18.1175
-6.29234
-3.59947
-10.5967
-9.74301
-8.95281
-3.5428
-16.2876
-10.3099
-10.1086
-10.3379
-1.35885
-10.3825
-10.5843
-3.77936
-10.2619
-6.43526
-13.4148
-16.9306
-9.17963
-15.5132
-13.207
-9.33934
-9.50065
-10.7345
-3.55903
-13.1402
-13.776
-9.90572
-2.34406
-7.81112
-11.2221
-11.5454
-9.25127
-3.07878
-9.43584
-16.2489
-13.2276
-9.5425
-18.8609
-6.31083
-15.2727
-1.53528
-6.06634
-15.6616
-1.37406
-15.9443
-9.47516
-12.1681
-10.097
-19.3622
-7.36263
-12.2754
-18.128
-17.2972
-5.2749
-16.959
-18.1331
2.08441
-11.133
-9.69876
-1.80576
-13.7552
-9.59721
-10.1254
-10.1425
-11.7261
-11.0219
-9.91171
-9.52084
-1.51267
-13.7268
-12.1652
-11.8971
-12.6184
-10.9189
-9.31561
-7.87282
-14.7445
-0.163515
-8.84015
-8.65719
-0.586999
-15.7168
-18.5686
-11.4947
-16.6646
-17.3096
-9.10577
-9.3437
-13.616
-16.6161
-8.96398
-14.186
-6.95313
-1.84306
-14.8686
-8.40705
-16.2353
-18.8406
-17.9766
-2.34823
-15.3829
-12.3202
-8.21134
-9.86359
-10.6173
-9.64646
-2.53152
-16.5866
-2.84015
-16.4194
-10.85
-6.95585
-6.12217
-10.9524
-14.3647
-17.6477
-11.9897
-20.2582
-14.9818
-15.9867
-1.19219
-15.4843
-14.5815
-16.2654
-9.11262
-8.32247
-0.117599
-11.4723
-19.884
-16.717
-3.30798
-7.27779
-2.77994
-9.10517
-11.6703
-6.83262
-22.5295
-10.1493
-7.3034
-3.55173
-13.1676
-8.42673
-0.762045
-11.1502
-9.55237
-9.6996
-9.86124
-9.93162
-3.64292
-6.92609
-1.86733
-9.61311
-14.9497
-13.4538
-16.9667
-16.2536
-8.85089
-7.88289
-1.47892
-9.36305
-14.4223
-17.4319
-14.9594
-15.2421
-6.18235
-0.484781
-7.44525
0.21686
-14.7912
-15.1639
-7.89744
-15.8591
-14.6995
-16.9786
-12.924
-12.183
-12.0435
-8.85016
-1.27565
-7.64346
-2.30996
-6.675
-9.86713
-9.2442
-4.26052
-2.28483
-14.1117
-19.927
-18.8843
-17.9823
-11.9228
-13.9451
-13.7631
-11.4796
-9.84406
-11.4756
-8.18598
-10.8288
-10.872
-2.33332
-14.6877
-10.4793
-7.30712
-4.09316
-9.48954
-11.8114
-11.7579
-9.26594
-4.14091
-17.6809
-13.0956
-9.66308
-18.7463
-8.35661
-1.93197
-13.4934
-10.8576
-10.9049
-10.904
-9.3867
-0.0960039
-10.9101
-10.7714
-2.91529
-17.3957
-10.3018
3.73667
-9.84566
-11.6042
-11.9299
-9.35596
-2.51187
-8.67582
-8.92563
-5.8408
-11.121
-1.5193
-11.3491
-11.0667
-5.42094
-18.636
-10.7418
-3.77411
-19.6706
-11.502
-11.5001
-4.01073
-11.0648
-2.80799
)
;
    }
}


// ************************************************************************* //
