/*--------------------------------*- C++ -*----------------------------------*\
| =========                 |                                                 |
| \\      /  F ield         | OpenFOAM: The Open Source CFD Toolbox           |
|  \\    /   O peration     | Version:  v1906                                 |
|   \\  /    A nd           | Web:      www.OpenFOAM.com                      |
|    \\/     M anipulation  |                                                 |
\*---------------------------------------------------------------------------*/
FoamFile
{
    version     2.0;
    format      ascii;
    class       volScalarField;
    location    "20";
    object      alphat;
}
// * * * * * * * * * * * * * * * * * * * * * * * * * * * * * * * * * * * * * //

dimensions      [1 -1 -1 0 0 0 0];


internalField   nonuniform List<scalar> 
78750
(
0.000863308
0.00185199
0.000769781
1.79007e-05
1.88453e-05
4.91182e-05
2.72865e-05
3.46057e-05
3.54455e-05
3.6646e-05
3.90137e-05
4.36342e-05
5.04351e-05
5.65888e-05
5.93246e-05
5.97765e-05
6.01081e-05
6.13555e-05
6.38646e-05
6.78035e-05
7.32853e-05
8.04583e-05
8.96124e-05
0.000100945
0.000114542
0.000130302
0.000148046
0.0001673
0.000187277
0.000201861
0.000204431
0.000204617
0.000200412
4.63447e-05
1.40354e-06
2.17984e-05
1.4096e-05
2.78897e-06
3.26919e-05
0.00010866
8.40492e-05
8.90803e-05
8.15505e-05
6.97669e-05
5.82022e-05
5.20476e-05
5.14227e-05
5.89994e-05
8.55203e-05
0.000146556
0.000203794
0.000203408
0.000196956
0.000206889
0.000231883
0.000268019
0.000309469
0.000346242
0.00036989
0.000376198
0.00036239
0.000330136
0.000286787
0.000240558
0.000197756
0.000155066
0.000101693
6.57206e-05
4.7961e-05
2.60981e-06
7.08413e-06
3.58616e-05
0.00015228
0.000142349
7.82138e-05
6.16581e-05
5.36837e-05
4.59475e-05
3.58894e-05
3.07247e-05
3.76258e-05
8.45657e-05
0.00025246
0.000332938
0.000300284
0.000224713
0.000212112
0.000226558
0.000246681
0.000265658
0.000282448
0.000296548
0.000308699
0.00032082
0.0003344
0.000348716
0.000359687
0.000360263
0.000342663
0.000301711
0.000236407
0.00015545
9.0187e-05
5.49001e-05
3.7305e-06
8.53433e-06
1.43756e-05
1.62575e-05
2.20839e-05
2.80359e-05
3.06929e-05
3.25708e-05
3.26875e-05
3.10399e-05
3.07214e-05
4.15748e-05
9.65897e-05
0.000202696
0.00022592
0.000238397
0.000259125
0.000287203
0.000315624
0.00033909
0.000353015
0.000355493
0.000357743
0.00035983
0.000361811
0.00036371
0.000365502
0.000367102
0.000354998
0.000318442
0.000268211
0.000203074
0.000130093
7.46387e-05
4.93639e-05
4.36022e-06
1.34303e-05
0.000110859
5.46534e-05
3.47905e-05
2.83821e-05
2.70245e-05
3.03676e-05
5.17195e-05
8.61936e-05
0.000147095
0.000219924
0.000167424
0.000166464
0.000182786
0.000197928
0.000209652
0.000220622
0.000230612
0.000239497
0.000247437
0.000253615
0.000257377
0.000259488
0.000260101
0.000257843
0.000251458
0.000240386
0.000224418
0.000203599
0.000176772
0.000141322
9.91859e-05
6.44302e-05
5.07418e-05
4.81395e-06
1.25538e-05
2.42853e-05
1.25803e-05
2.83746e-05
4.89242e-05
4.95933e-05
5.01397e-05
5.71438e-05
7.41844e-05
9.38308e-05
0.000107249
0.000120485
0.000135563
0.000150452
0.000163432
0.000173848
0.000182098
0.0001889
0.000194186
0.000198253
0.000201571
0.000204458
0.000206245
0.000206063
0.00020334
0.000197208
0.00018649
0.000170367
0.000148709
0.000122184
9.29407e-05
6.57775e-05
4.83889e-05
4.93491e-05
4.86014e-06
1.02126e-05
9.56475e-05
0.000116431
7.60191e-05
5.59395e-05
6.31952e-05
7.85614e-05
8.30212e-05
8.57677e-05
9.20203e-05
9.8787e-05
0.000104918
0.000111745
0.000119843
0.000128841
0.000137916
0.000146508
0.000154397
0.000161289
0.000166615
0.000170143
0.000172091
0.000172971
0.000172614
0.00016959
0.000163002
0.000153264
0.000140626
0.000123906
0.00010126
7.40925e-05
5.1e-05
4.28095e-05
6.12774e-05
5.6806e-06
6.98357e-06
3.01182e-05
8.42741e-05
0.000121899
9.57293e-05
7.48275e-05
7.04142e-05
7.33682e-05
7.56015e-05
7.4802e-05
7.19338e-05
6.80115e-05
6.32556e-05
5.79426e-05
5.28536e-05
4.91918e-05
4.82186e-05
5.09354e-05
5.79912e-05
7.0235e-05
8.88736e-05
0.000113451
0.000132418
0.000136115
0.000135656
0.000135395
0.00013021
0.000117979
0.000101726
8.53127e-05
6.98765e-05
5.19283e-05
3.80568e-05
4.5525e-05
5.30666e-06
6.19841e-06
4.48885e-05
8.38234e-05
0.000112075
0.000135868
0.000157457
0.000156731
0.000137612
0.000122839
0.000115672
0.000111197
0.000105855
9.80101e-05
8.699e-05
7.28133e-05
5.63315e-05
3.96082e-05
2.51514e-05
1.46963e-05
8.83785e-06
6.16276e-06
9.44335e-06
2.03713e-05
4.78394e-05
0.000100331
0.000114328
0.000111795
0.000112481
0.000104876
7.99644e-05
4.98722e-05
3.37438e-05
3.64442e-05
7.45523e-05
7.26894e-06
4.20127e-06
1.84204e-05
4.84377e-05
8.57252e-05
9.91039e-05
0.000101582
0.000104869
0.000110059
0.000115129
0.000119187
0.000122921
0.000126889
0.000130535
0.000132492
0.000131314
0.000125801
0.000114304
9.43273e-05
6.71949e-05
4.05471e-05
1.42362e-05
1.54314e-06
3.41158e-06
2.21342e-06
4.12391e-06
2.27074e-05
7.01968e-05
0.000104278
0.00011853
0.000115767
8.77414e-05
4.71191e-05
3.31681e-05
5.53274e-05
7.43108e-06
6.60525e-06
2.24257e-05
5.78057e-05
9.62183e-05
0.000111536
0.000113014
0.000108027
0.000100344
9.41569e-05
9.22274e-05
9.49501e-05
0.000101189
0.00010943
0.000117731
0.000121019
0.00011162
9.25335e-05
7.4414e-05
6.22642e-05
5.67991e-05
5.12594e-05
2.74002e-05
1.09485e-05
3.90325e-06
1.13617e-06
8.23948e-06
4.14666e-05
0.000145078
0.000184438
0.000137601
8.39497e-05
5.0199e-05
4.14125e-05
7.92667e-05
8.28256e-06
8.82921e-06
4.34991e-05
9.06111e-05
9.46436e-05
9.77319e-05
0.000103009
0.000109165
0.000115931
0.000121753
0.000122772
0.000117173
0.0001088
0.000101289
9.36781e-05
8.16898e-05
6.40799e-05
4.69219e-05
3.59903e-05
3.06771e-05
2.46749e-05
1.73694e-05
1.34367e-05
1.60291e-05
3.36163e-05
8.48858e-05
0.000119428
0.000126382
0.000141247
0.000157673
0.000139472
7.50185e-05
4.09791e-05
4.28665e-05
9.99899e-05
9.35235e-06
8.31102e-06
5.81458e-05
8.78306e-05
0.000100992
0.000110295
0.000113471
0.000111765
0.000108396
0.000105024
0.000102532
0.00010139
0.000100259
9.60942e-05
8.80572e-05
7.87443e-05
6.95794e-05
6.02115e-05
5.17518e-05
4.65763e-05
4.24491e-05
3.57797e-05
3.0976e-05
3.24423e-05
4.31531e-05
6.21264e-05
7.62438e-05
8.18704e-05
7.50068e-05
5.42262e-05
3.76242e-05
3.21713e-05
3.94727e-05
7.14821e-05
6.43458e-05
9.5926e-06
5.72435e-06
2.41838e-05
6.60239e-05
9.46119e-05
0.000101306
0.000102045
0.000102521
0.000103617
0.000104543
0.000105567
0.000110065
0.000121459
0.000131924
0.000123144
0.000106727
0.000102045
9.65305e-05
6.31852e-05
3.80385e-05
2.87377e-05
2.30447e-05
1.55507e-05
9.26184e-06
6.02227e-06
8.21128e-06
1.66677e-05
2.53029e-05
3.68499e-05
5.53413e-05
8.33582e-05
0.000106559
0.000106643
0.000106949
5.69526e-05
5.66455e-06
6.49185e-06
3.05589e-05
9.70832e-05
0.000150336
0.000160189
0.0001608
0.000163509
0.000169128
0.000175267
0.000179059
0.000178242
0.000171803
0.000158939
0.000137562
0.000110538
8.89848e-05
8.19173e-05
9.71726e-05
0.000131298
0.000138405
0.000107334
8.29818e-05
7.43014e-05
5.11835e-05
4.65844e-06
1.9009e-06
5.69692e-06
3.66562e-06
3.024e-06
2.71885e-06
7.00577e-06
3.03613e-05
7.84707e-05
7.3593e-05
5.83064e-06
8.46024e-06
5.61411e-05
0.000168361
0.000166732
0.000150155
0.00014311
0.000148861
0.000163163
0.000179817
0.000195155
0.000208987
0.000222788
0.000238767
0.000260814
0.000294293
0.000332368
0.000317398
0.000222375
0.000139904
8.59186e-05
4.9302e-05
3.07153e-05
3.24758e-05
6.54371e-05
0.000139943
0.00017104
8.50791e-05
2.66342e-05
6.71553e-06
6.45555e-06
1.30978e-06
1.33967e-06
2.2995e-05
7.89357e-05
6.71254e-06
9.17378e-06
6.29641e-05
0.000160734
0.00016156
0.000135995
0.000120992
0.00012204
0.000134914
0.0001537
0.00017286
0.000188734
0.000199705
0.000205542
0.000207149
0.000206733
0.00020755
0.00021244
0.000221774
0.000233844
0.000247466
0.000253049
0.000201032
0.000111991
7.41786e-05
6.26223e-05
5.20406e-05
3.88276e-05
2.98947e-05
2.77319e-05
3.13181e-05
2.55131e-06
8.99374e-07
7.86399e-06
7.24662e-05
7.58189e-06
9.02482e-06
5.29228e-05
0.000153527
0.000154828
0.000130273
0.000115078
0.000115118
0.000127892
0.000148879
0.000172624
0.000194715
0.000213279
0.000228365
0.000240523
0.000249921
0.000255977
0.000257146
0.000250879
0.000234709
0.000208915
0.000179706
0.000160586
0.00016378
0.000188056
0.000212842
0.000218663
0.000199344
0.000172058
0.000169652
0.000220812
0.00011715
8.96488e-06
1.33414e-06
1.0581e-05
8.89851e-06
8.78036e-06
4.9201e-05
0.000140999
0.000151878
0.000126736
0.000104314
9.84925e-05
0.000109646
0.00013596
0.00017355
0.000214752
0.000251559
0.00027995
0.000299862
0.000313293
0.000322951
0.000331519
0.000336602
0.000334712
0.000332185
0.00032874
0.000324136
0.000318278
0.000305601
0.00023846
0.000162304
9.83995e-05
6.20163e-05
4.4351e-05
2.48883e-05
4.72596e-06
6.88505e-07
5.65357e-06
4.20905e-05
9.92636e-06
8.45403e-06
4.03439e-05
0.00011746
0.000131577
0.00011229
9.04447e-05
7.92781e-05
8.14743e-05
9.70336e-05
0.000126127
0.00016659
0.000211025
0.000249985
0.000278014
0.000294391
0.000300658
0.000299108
0.000292292
0.000282627
0.00027214
0.000262595
0.000256193
0.000255389
0.000260098
0.000266857
0.000277032
0.000274428
0.000260013
8.27491e-05
1.54955e-05
2.54361e-06
1.50785e-06
1.17152e-05
5.95825e-05
9.1894e-06
8.40033e-06
3.77355e-05
0.000109276
0.000134944
0.00012047
9.46193e-05
7.43458e-05
6.68823e-05
7.21567e-05
9.0514e-05
0.00012326
0.000168116
0.000216256
0.000258129
0.0002898
0.000311784
0.000325893
0.00033386
0.000336859
0.00033532
0.000329324
0.000318953
0.000304215
0.000284478
0.000257241
0.00021798
0.000166676
0.000113361
6.26258e-05
2.10612e-05
4.52488e-06
2.86607e-06
1.55141e-05
3.13829e-05
7.76207e-06
9.10099e-06
4.29778e-05
0.000124869
0.000145367
0.000131761
0.000108015
8.44459e-05
6.81014e-05
6.18326e-05
6.68346e-05
8.60351e-05
0.000124691
0.000184418
0.000252403
0.000308931
0.000345994
0.000355336
0.000355313
0.000354281
0.000352314
0.00033772
0.000315599
0.000289841
0.000262239
0.000234982
0.000209908
0.000187684
0.000163181
0.000121705
6.02681e-05
1.78978e-05
5.29997e-06
9.07213e-06
6.14881e-05
6.70531e-06
8.79318e-06
3.92567e-05
0.000117143
0.00015358
0.000149155
0.000130245
0.000104276
7.8845e-05
6.06184e-05
5.20065e-05
5.36165e-05
6.74752e-05
9.82989e-05
0.000151086
0.000221064
0.000288821
0.000337351
0.000354512
0.000354762
0.000353795
0.000345617
0.00032604
0.000306653
0.000288682
0.000270627
0.000248752
0.000219211
0.000182352
0.00014112
9.53549e-05
4.79815e-05
1.71048e-05
9.47548e-06
2.39525e-05
5.33636e-06
8.93353e-06
4.2638e-05
0.000147863
0.000203316
0.000198496
0.000177669
0.000151093
0.000119382
8.69442e-05
6.31861e-05
5.14284e-05
5.131e-05
6.4005e-05
9.38784e-05
0.000147525
0.000225261
0.00030616
0.000342183
0.000344512
0.000345724
0.000345732
0.000344469
0.000341898
0.000329043
0.000293263
0.000263821
0.000239389
0.000212611
0.000176883
0.000128664
7.32733e-05
3.03659e-05
1.25231e-05
1.47701e-05
4.5833e-06
8.67794e-06
3.82696e-05
0.000124391
0.000187575
0.000184886
0.000160985
0.000135233
0.000116202
0.000101034
8.25091e-05
6.35583e-05
5.31836e-05
5.49823e-05
7.16083e-05
0.000107999
0.000169119
0.000250949
0.000329086
0.00033544
0.000336965
0.00033748
0.00033692
0.000335233
0.000332375
0.000328327
0.000323128
0.00029483
0.000260675
0.000226489
0.000179169
0.000115861
5.67476e-05
2.44089e-05
1.71223e-05
3.41753e-06
9.09902e-06
3.9926e-05
0.000127771
0.000177668
0.000174014
0.000152771
0.000126537
0.000105112
9.34052e-05
8.903e-05
8.24715e-05
6.8642e-05
5.88864e-05
6.22781e-05
8.37712e-05
0.000129709
0.000202313
0.000285082
0.000323193
0.000324937
0.000325837
0.0003258
0.000324769
0.000322706
0.000319586
0.000315407
0.000310216
0.000298174
0.000239715
0.000177177
0.000113236
5.78422e-05
2.8456e-05
2.17895e-05
3.14717e-06
9.36355e-06
4.09596e-05
0.000128844
0.000178659
0.000173837
0.00015064
0.000120528
9.34597e-05
7.66909e-05
7.1468e-05
7.40155e-05
7.59342e-05
7.20043e-05
7.06259e-05
8.33145e-05
0.000120134
0.000188924
0.000275081
0.000319977
0.00032082
0.000321081
0.000320641
0.000319421
0.000317364
0.000314427
0.000310575
0.000305794
0.000300117
0.000283776
0.000200635
0.000116719
5.57167e-05
2.66175e-05
2.18856e-05
3.16221e-06
9.8486e-06
4.76406e-05
0.000152955
0.00020353
0.000197072
0.000172911
0.000141521
0.000109737
8.54531e-05
7.335e-05
7.1763e-05
7.40029e-05
7.27524e-05
7.01926e-05
7.59522e-05
9.91826e-05
0.000148203
0.000222244
0.000294827
0.000316227
0.000316338
0.000315811
0.000314617
0.000312755
0.000310241
0.000307096
0.000303347
0.00029903
0.000276249
0.000205742
0.000128235
6.51164e-05
3.22946e-05
2.58752e-05
3.03168e-06
1.04422e-05
5.35554e-05
0.000154731
0.000182668
0.000173034
0.000151627
0.000125624
0.000100431
8.10523e-05
7.10024e-05
7.08923e-05
7.68027e-05
7.98809e-05
7.70568e-05
7.74387e-05
9.1277e-05
0.000125459
0.000180138
0.000240805
0.000286468
0.000309538
0.00030978
0.000308656
0.000306828
0.000304373
0.0003014
0.000287276
0.000259257
0.000221015
0.00017512
0.000122635
7.11314e-05
3.89756e-05
3.17547e-05
3.07404e-06
1.04192e-05
5.58134e-05
0.000155499
0.000184088
0.000182286
0.000169584
0.000149872
0.000125085
9.89353e-05
7.81011e-05
6.77072e-05
6.80301e-05
7.47202e-05
7.89192e-05
7.71171e-05
7.839e-05
9.2579e-05
0.000124788
0.000172905
0.00022369
0.000260936
0.000279287
0.000283791
0.000280831
0.000273171
0.000260351
0.000241418
0.000216264
0.000185354
0.000148952
0.000106755
6.34478e-05
3.67428e-05
3.32276e-05
3.49086e-06
9.7303e-06
4.98353e-05
0.000157483
0.000199141
0.0001973
0.000181547
0.000160798
0.000139601
0.000118486
9.67224e-05
7.75718e-05
6.66551e-05
6.60906e-05
7.38189e-05
8.25818e-05
8.49619e-05
8.67835e-05
0.000100287
0.000133807
0.00018792
0.000246839
0.000284877
0.000286409
0.000285417
0.000283667
0.000273214
0.000245747
0.000205077
0.000155442
0.000104616
6.26526e-05
3.63348e-05
2.7238e-05
3.98545e-05
4.1546e-06
9.51272e-06
4.74967e-05
0.000148499
0.000199132
0.000200644
0.000186935
0.000167967
0.000149444
0.000133996
0.000119848
0.000102503
8.30204e-05
6.92915e-05
6.60009e-05
7.29088e-05
8.51484e-05
9.3886e-05
9.93494e-05
0.000114017
0.00015074
0.000215163
0.000280534
0.000279574
0.00027798
0.000275573
0.000272295
0.000268225
0.000202214
0.000124185
6.76781e-05
3.60869e-05
2.2611e-05
2.37816e-05
6.12043e-05
4.21801e-06
9.80667e-06
4.97821e-05
0.000157571
0.000206787
0.000205898
0.000188722
0.000165305
0.00014274
0.000125877
0.000116105
0.000110526
0.000102134
8.7199e-05
7.30806e-05
6.75186e-05
7.18219e-05
8.25868e-05
9.39124e-05
0.000106896
0.000133642
0.000186628
0.000254888
0.000273957
0.000273053
0.000271272
0.000268404
0.000241927
0.000173923
0.000106364
5.72208e-05
3.02705e-05
1.95665e-05
2.32667e-05
5.72561e-05
3.60474e-06
9.79391e-06
4.90284e-05
0.000155093
0.000205709
0.000204246
0.000184888
0.000159199
0.000136021
0.00012003
0.000111456
0.000108276
0.000107045
0.000102531
9.19058e-05
8.09643e-05
7.72155e-05
8.23177e-05
9.19163e-05
9.93066e-05
0.000105802
0.000121505
0.000153483
0.000193816
0.000222331
0.000230957
0.000223545
0.000203147
0.000170037
0.000124933
7.75113e-05
4.32151e-05
2.66089e-05
2.67527e-05
5.48465e-05
2.98957e-06
9.91445e-06
4.94627e-05
0.000155369
0.000200932
0.000193513
0.000168942
0.000140718
0.000118342
0.000105579
0.000101792
0.000104185
0.000108286
0.000108605
0.00010157
8.97323e-05
8.06971e-05
7.99978e-05
8.82217e-05
0.000100646
0.000110189
0.000117479
0.00013165
0.000157793
0.000186107
0.000200202
0.000198038
0.000185822
0.000166614
0.000139896
0.000105261
6.9197e-05
4.42606e-05
3.86593e-05
6.86274e-05
2.85051e-06
1.04847e-05
5.61993e-05
0.000177609
0.000214433
0.000197156
0.000163852
0.000131812
0.000110533
0.00010082
0.000100146
0.000105884
0.000114975
0.000122388
0.000122182
0.000112748
0.000100149
9.25855e-05
9.37336e-05
0.000101777
0.000110262
0.000113229
0.000113118
0.000118374
0.000134147
0.000155707
0.000170096
0.000170701
0.000160819
0.000144126
0.000120528
8.90388e-05
5.76416e-05
4.3915e-05
6.45499e-05
3.13235e-06
1.07771e-05
6.12272e-05
0.00018353
0.000200622
0.000174312
0.000136781
0.00010631
8.99742e-05
8.6707e-05
9.36191e-05
0.000106626
0.000119731
0.000127247
0.000126755
0.000119967
0.000111744
0.000107504
0.00011053
0.000120036
0.000130021
0.000132282
0.000125241
0.000116445
0.000114607
0.000123003
0.000136938
0.000145421
0.000142007
0.00012827
0.000105607
7.41618e-05
4.44676e-05
3.49358e-05
5.87626e-05
3.81271e-06
1.06562e-05
6.23228e-05
0.000177861
0.000188569
0.000160501
0.000124649
9.77889e-05
8.42325e-05
8.26896e-05
9.18078e-05
0.000109382
0.000129342
0.000142834
0.000144649
0.000136968
0.000126744
0.000120551
0.000121652
0.000129438
0.000139247
0.000143702
0.000137969
0.000124639
0.000111329
0.0001043
0.000105124
0.000110005
0.000110985
0.000100887
7.58079e-05
4.15667e-05
2.41199e-05
2.60728e-05
6.42909e-05
4.76666e-06
1.05972e-05
6.48579e-05
0.000189268
0.000191958
0.000157493
0.000120134
9.5001e-05
8.25997e-05
8.0041e-05
8.59069e-05
9.93978e-05
0.000118188
0.000137641
0.000152625
0.000160213
0.000161011
0.000158852
0.000158629
0.000162969
0.000170218
0.00017458
0.000169387
0.000152824
0.000130379
0.000110242
9.72661e-05
9.09387e-05
8.4729e-05
6.81386e-05
3.92363e-05
1.79249e-05
1.37072e-05
2.48877e-05
8.15584e-05
5.51376e-06
1.00857e-05
5.64094e-05
0.000173428
0.000187993
0.000156885
0.00011997
9.48806e-05
8.20438e-05
7.8276e-05
8.26933e-05
9.53198e-05
0.000114287
0.000134986
0.000152715
0.000165477
0.000173906
0.000180007
0.000186273
0.000194673
0.000205272
0.000214788
0.000216594
0.000204285
0.000177842
0.000145391
0.000116583
9.53111e-05
7.77207e-05
5.46887e-05
2.69607e-05
1.1541e-05
9.53206e-06
2.23821e-05
6.61208e-05
5.65161e-06
1.03114e-05
5.80558e-05
0.000176481
0.000183839
0.000146086
0.00010931
8.82974e-05
7.81953e-05
7.34116e-05
7.39123e-05
8.30409e-05
0.000103777
0.000135349
0.000170742
0.00020082
0.000221222
0.000233154
0.00024033
0.000246343
0.000252907
0.000258656
0.000258862
0.000247271
0.00022052
0.000182019
0.000140549
0.000103766
7.29727e-05
4.47931e-05
2.05518e-05
8.92214e-06
8.24786e-06
2.13077e-05
4.5555e-05
5.37871e-06
1.00404e-05
5.2789e-05
0.00017084
0.000180523
0.000135276
9.77422e-05
8.22828e-05
7.95163e-05
7.95755e-05
7.89539e-05
8.16529e-05
9.33144e-05
0.000117246
0.000152532
0.00019262
0.000228551
0.000254744
0.000270711
0.000278993
0.000282493
0.0002825
0.000277856
0.000265716
0.00024366
0.000211693
0.000172792
0.000131759
9.24943e-05
5.6287e-05
2.59751e-05
9.64951e-06
6.95003e-06
1.74712e-05
3.86929e-05
5.05436e-06
1.03218e-05
5.36417e-05
0.000171151
0.000171385
0.000114236
7.81533e-05
6.79141e-05
7.09796e-05
7.73424e-05
8.10459e-05
8.42153e-05
9.37095e-05
0.000115237
0.000150879
0.000196742
0.000242985
0.00027955
0.00030188
0.000311158
0.000311177
0.000305397
0.000295471
0.000281188
0.000261366
0.000235084
0.000202526
0.000165136
0.00012489
8.34739e-05
4.43661e-05
1.75858e-05
8.56788e-06
1.4889e-05
4.31374e-05
4.88124e-06
1.05733e-05
5.58749e-05
0.000173393
0.000148886
8.8179e-05
6.09201e-05
5.76737e-05
6.67478e-05
7.92653e-05
8.78674e-05
9.2944e-05
0.000101891
0.00012203
0.000156684
0.000202386
0.0002486
0.000284158
0.000304102
0.000309952
0.000305951
0.000295955
0.000282289
0.000265824
0.000246498
0.000223907
0.000197917
0.000168829
0.000136859
0.000101314
6.24576e-05
2.88632e-05
1.31014e-05
1.60863e-05
5.47876e-05
4.891e-06
1.05405e-05
5.49284e-05
0.000165493
0.000133938
7.57667e-05
5.31626e-05
5.26051e-05
6.3073e-05
7.60422e-05
8.55571e-05
9.22711e-05
0.000101767
0.000120098
0.000150732
0.000191734
0.000234568
0.000268564
0.000287684
0.000292444
0.000286933
0.000275405
0.000260719
0.000244245
0.000226346
0.000206867
0.000185578
0.000162322
0.000136591
0.000106733
7.11807e-05
3.64746e-05
1.76676e-05
1.95444e-05
6.55271e-05
5.00187e-06
1.06104e-05
5.56504e-05
0.000160259
0.00012288
6.77618e-05
4.642e-05
4.58061e-05
5.69686e-05
7.24266e-05
8.53323e-05
9.54879e-05
0.000107849
0.000127539
0.000157052
0.000194098
0.000231193
0.000259476
0.000274087
0.000275814
0.000268588
0.000256407
0.000241899
0.000226297
0.000209924
0.000192622
0.000174069
0.000153846
0.000131069
0.000103879
7.08398e-05
3.82996e-05
2.06082e-05
2.35506e-05
6.9821e-05
5.10773e-06
1.04019e-05
5.13803e-05
0.000145784
0.000127787
7.58632e-05
4.71448e-05
3.99713e-05
4.58131e-05
5.9138e-05
7.34496e-05
8.5677e-05
9.89786e-05
0.000118339
0.000146573
0.00018203
0.000218025
0.00024593
0.000260517
0.000262349
0.000255502
0.000244141
0.000230874
0.000216764
0.0002019
0.00018594
0.000168442
0.000148858
0.000126191
9.88872e-05
6.68082e-05
3.73457e-05
2.24667e-05
2.74481e-05
6.87417e-05
5.18835e-06
1.02905e-05
4.96062e-05
0.000140136
0.000139226
9.41108e-05
5.45682e-05
3.75731e-05
3.58158e-05
4.44323e-05
5.99555e-05
7.7957e-05
9.66157e-05
0.00011852
0.000146821
0.000181066
0.000215671
0.000242402
0.000255797
0.000256254
0.000248079
0.000235815
0.000222295
0.000208594
0.000194659
0.000179896
0.000163513
0.000144552
0.000121765
9.39348e-05
6.25157e-05
3.60143e-05
2.39294e-05
3.10796e-05
6.46537e-05
5.25257e-06
1.01636e-05
4.67533e-05
0.000133371
0.00014746
0.000118571
7.39191e-05
4.36852e-05
3.20768e-05
3.25244e-05
4.16723e-05
5.73767e-05
7.77105e-05
0.000102721
0.00013391
0.000170915
0.000208717
0.000238793
0.000254585
0.000255781
0.000246896
0.000233127
0.000217895
0.000202662
0.000187618
0.000172312
0.000155956
0.000137453
0.000115432
8.87886e-05
5.94895e-05
3.57746e-05
2.57528e-05
3.46312e-05
6.03648e-05
5.32417e-06
1.00832e-05
4.63344e-05
0.000133393
0.000155659
0.000137571
0.000100058
6.02424e-05
3.70188e-05
2.89006e-05
3.10609e-05
4.17421e-05
6.03529e-05
8.65317e-05
0.000120242
0.000160349
0.000201791
0.000235595
0.00025407
0.000256155
0.00024661
0.000231343
0.000214397
0.000197602
0.000181326
0.000165196
0.00014846
0.000130078
0.000108783
8.37021e-05
5.69771e-05
3.59964e-05
2.78078e-05
3.82722e-05
5.67736e-05
5.4315e-06
1.01621e-05
4.65286e-05
0.000134922
0.000161765
0.000150332
0.000123116
8.5025e-05
5.11294e-05
3.27254e-05
2.67927e-05
2.99184e-05
4.15266e-05
6.25733e-05
9.42868e-05
0.000136171
0.000183129
0.000224574
0.000249853
0.000255691
0.000246653
0.000229723
0.000210166
0.000190719
0.000172314
0.000154845
0.000137645
0.000119754
0.00010002
7.7703e-05
5.46015e-05
3.67281e-05
3.04762e-05
4.27461e-05
5.34122e-05
5.56234e-06
1.00641e-05
4.63492e-05
0.000135393
0.000167289
0.000159435
0.000137367
0.000106889
7.2387e-05
4.49415e-05
3.0358e-05
2.61824e-05
3.06077e-05
4.44178e-05
7.00571e-05
0.000109548
0.000159896
0.0002096
0.000243909
0.000255948
0.000249358
0.000231894
0.00020998
0.0001874
0.000165915
0.000146023
0.000127467
0.000109541
9.12041e-05
7.16733e-05
5.22111e-05
3.74919e-05
3.33655e-05
4.76688e-05
5.03307e-05
5.71907e-06
1.0188e-05
4.69069e-05
0.000137671
0.000172409
0.000165797
0.000144422
0.00011686
8.80605e-05
6.04832e-05
3.96675e-05
2.85778e-05
2.61431e-05
3.22015e-05
4.89814e-05
8.03e-05
0.000127976
0.000183978
0.000229815
0.000251672
0.000250293
0.000234088
0.00021086
0.000185525
0.000160715
0.000137677
0.000116905
9.83429e-05
8.13587e-05
6.50553e-05
4.97172e-05
3.84938e-05
3.6894e-05
5.36648e-05
4.70394e-05
5.88092e-06
1.01653e-05
4.74464e-05
0.000141066
0.00017884
0.000171332
0.000147927
0.000120664
9.63036e-05
7.42431e-05
5.29633e-05
3.67171e-05
2.83463e-05
2.79118e-05
3.68275e-05
5.89369e-05
9.91912e-05
0.000156031
0.00021224
0.000246057
0.000252067
0.000238564
0.000215017
0.000187585
0.000159697
0.000133298
0.000109662
8.95494e-05
7.29614e-05
5.90717e-05
4.73199e-05
3.9444e-05
4.04848e-05
5.94663e-05
4.39271e-05
6.0446e-06
1.03591e-05
4.8793e-05
0.000147522
0.000185319
0.000172651
0.000143157
0.000114017
9.3044e-05
7.77505e-05
6.24399e-05
4.63576e-05
3.43766e-05
2.90543e-05
3.15872e-05
4.53539e-05
7.65169e-05
0.000129392
0.000192106
0.00023719
0.000251123
0.000241061
0.000218066
0.000189434
0.000159237
0.000130018
0.000103735
8.19671e-05
6.54356e-05
5.34995e-05
4.49418e-05
4.03283e-05
4.41808e-05
6.50973e-05
4.08553e-05
6.20573e-06
1.05602e-05
5.10382e-05
0.000154682
0.000187512
0.000164183
0.00012747
0.000100481
8.61539e-05
7.79009e-05
6.86175e-05
5.5309e-05
4.21806e-05
3.40303e-05
3.24406e-05
3.98125e-05
6.20531e-05
0.000107413
0.000173827
0.000232085
0.000255233
0.000247888
0.000224575
0.00019438
0.000161901
0.000129961
0.000100953
7.70966e-05
5.97769e-05
4.87228e-05
4.24851e-05
4.07837e-05
4.74091e-05
6.94929e-05
3.77701e-05
6.32955e-06
1.09622e-05
5.51403e-05
0.000166407
0.000183973
0.000143864
0.00010322
8.24499e-05
7.58067e-05
7.44237e-05
7.08929e-05
6.15206e-05
4.93161e-05
4.01485e-05
3.68736e-05
4.12821e-05
5.80624e-05
9.4674e-05
0.000152724
0.000211365
0.000241634
0.00024073
0.000221397
0.000193333
0.000161556
0.000129177
9.90107e-05
7.38713e-05
5.57701e-05
4.49248e-05
4.00733e-05
4.06338e-05
4.97768e-05
7.23902e-05
3.49044e-05
6.41243e-06
1.12829e-05
6.16271e-05
0.000178103
0.000165649
0.000110658
7.75496e-05
6.7746e-05
6.99074e-05
7.46482e-05
7.4285e-05
6.65778e-05
5.54564e-05
4.61789e-05
4.17542e-05
4.41983e-05
5.81769e-05
9.18327e-05
0.000148307
0.000206006
0.000235038
0.000234047
0.000216047
0.000189847
0.000159605
0.000127982
9.77471e-05
7.19916e-05
5.31908e-05
4.2086e-05
3.78848e-05
4.01495e-05
5.15678e-05
7.39474e-05
3.22141e-05
6.40738e-06
1.142e-05
6.88903e-05
0.000180268
0.000134035
8.05105e-05
6.00632e-05
5.98933e-05
6.9353e-05
7.82143e-05
7.87706e-05
7.15731e-05
6.19934e-05
5.42082e-05
4.99481e-05
5.05116e-05
5.95843e-05
8.33836e-05
0.000124979
0.00017195
0.000201974
0.000208297
0.000198135
0.00017864
0.000153671
0.000125701
9.74063e-05
7.20636e-05
5.26873e-05
4.07526e-05
3.61833e-05
3.90682e-05
5.20382e-05
7.40623e-05
3.01763e-05
6.34439e-06
1.12297e-05
7.36552e-05
0.000166336
0.000105734
6.33793e-05
5.18554e-05
5.79887e-05
7.2699e-05
8.32395e-05
8.27864e-05
7.52891e-05
6.64758e-05
5.93967e-05
5.51681e-05
5.48496e-05
6.15877e-05
8.05192e-05
0.000114202
0.000153243
0.000179941
0.000187798
0.00018167
0.000167059
0.000146946
0.000123138
9.77238e-05
7.36472e-05
5.41042e-05
4.12293e-05
3.5737e-05
3.84174e-05
5.227e-05
7.40565e-05
2.88306e-05
6.24343e-06
1.09049e-05
7.23684e-05
0.000157657
0.000102619
6.27262e-05
5.01654e-05
5.42642e-05
6.81921e-05
8.13199e-05
8.52211e-05
8.15093e-05
7.49455e-05
6.80498e-05
6.1923e-05
5.81794e-05
5.99713e-05
7.14216e-05
9.5115e-05
0.000126399
0.000152216
0.000163964
0.000163065
0.00015384
0.000139028
0.000120059
9.83945e-05
7.63951e-05
5.7174e-05
4.34385e-05
3.67356e-05
3.85942e-05
5.26467e-05
7.49321e-05
2.84206e-05
6.15514e-06
1.05917e-05
6.77601e-05
0.000157885
0.000121167
7.50477e-05
5.17544e-05
4.69508e-05
5.47113e-05
6.9126e-05
8.05474e-05
8.35622e-05
8.04935e-05
7.48677e-05
6.83344e-05
6.25052e-05
6.06416e-05
6.68056e-05
8.38318e-05
0.00010953
0.000133664
0.000146767
0.000148382
0.000142271
0.000131152
0.000116207
9.82806e-05
7.89535e-05
6.08515e-05
4.68881e-05
3.93362e-05
4.04896e-05
5.45525e-05
7.71122e-05
2.86896e-05
6.09818e-06
1.03438e-05
6.21245e-05
0.000156134
0.000143611
9.95356e-05
6.16707e-05
4.46661e-05
4.31455e-05
5.29025e-05
6.92459e-05
8.3195e-05
8.81376e-05
8.47812e-05
7.67561e-05
6.75738e-05
6.10813e-05
6.12745e-05
7.102e-05
9.02653e-05
0.000112414
0.000127596
0.000132357
0.000129353
0.000121569
0.00011036
9.62236e-05
8.0049e-05
6.38583e-05
5.05166e-05
4.28381e-05
4.38191e-05
5.79914e-05
8.01482e-05
2.93716e-05
6.07768e-06
1.01887e-05
5.95593e-05
0.000155927
0.000155087
0.000124047
8.33196e-05
5.32226e-05
4.02232e-05
4.03011e-05
5.07305e-05
6.80487e-05
8.41333e-05
9.10467e-05
8.72429e-05
7.65954e-05
6.5463e-05
5.97713e-05
6.30066e-05
7.61492e-05
9.52557e-05
0.000111065
0.000117685
0.000116481
0.000110801
0.000102472
9.18927e-05
7.92862e-05
6.58477e-05
5.40627e-05
4.70851e-05
4.85403e-05
6.29448e-05
8.34477e-05
3.0047e-05
6.0817e-06
1.00872e-05
5.86585e-05
0.000159346
0.000163384
0.000139917
0.000108289
7.39896e-05
4.88368e-05
3.80686e-05
3.9247e-05
5.06562e-05
6.93087e-05
8.64756e-05
9.25236e-05
8.56301e-05
7.21252e-05
6.07697e-05
5.7232e-05
6.35076e-05
7.7933e-05
9.33015e-05
0.000101951
0.000102827
9.90647e-05
9.30957e-05
8.55661e-05
7.63997e-05
6.6159e-05
5.67777e-05
5.13618e-05
5.38336e-05
6.82486e-05
8.59259e-05
3.04203e-05
6.09445e-06
1.00605e-05
5.81187e-05
0.000161729
0.000167848
0.000145066
0.000119274
9.41017e-05
6.67589e-05
4.53909e-05
3.63071e-05
3.85545e-05
5.12963e-05
7.18251e-05
8.99331e-05
9.37609e-05
8.26399e-05
6.68401e-05
5.64192e-05
5.562e-05
6.44e-05
7.80463e-05
8.81249e-05
9.0646e-05
8.80258e-05
8.35557e-05
7.84484e-05
7.23974e-05
6.5297e-05
5.85308e-05
5.50435e-05
5.87362e-05
7.28107e-05
8.69524e-05
3.02407e-05
6.1061e-06
1.00404e-05
5.7066e-05
0.000161396
0.000170267
0.000146686
0.000120354
0.00010083
8.34852e-05
6.15722e-05
4.31348e-05
3.58655e-05
3.98526e-05
5.47053e-05
7.66804e-05
9.32113e-05
9.22491e-05
7.69851e-05
6.07128e-05
5.25446e-05
5.46064e-05
6.45818e-05
7.53169e-05
7.99622e-05
7.85973e-05
7.48512e-05
7.10675e-05
6.74365e-05
6.33653e-05
5.93589e-05
5.78665e-05
6.26111e-05
7.60561e-05
8.70281e-05
2.97302e-05
6.11411e-06
1.00695e-05
5.64043e-05
0.000161541
0.00017178
0.000146659
0.000117293
9.70609e-05
8.54772e-05
7.37062e-05
5.56334e-05
4.07513e-05
3.65597e-05
4.38883e-05
6.25139e-05
8.60164e-05
9.81893e-05
8.97418e-05
7.0578e-05
5.53019e-05
5.01166e-05
5.47203e-05
6.43531e-05
7.10602e-05
7.13732e-05
6.80675e-05
6.45297e-05
6.19733e-05
6.0093e-05
5.87555e-05
5.94698e-05
6.53199e-05
7.81304e-05
8.64372e-05
2.90686e-05
6.13094e-06
1.01003e-05
5.60483e-05
0.000162496
0.000172838
0.000146179
0.000114875
9.33704e-05
8.24033e-05
7.57935e-05
6.52123e-05
4.96922e-05
3.94652e-05
3.99771e-05
5.24843e-05
7.55143e-05
9.73437e-05
0.000100259
8.35418e-05
6.30767e-05
5.07559e-05
4.90428e-05
5.53855e-05
6.31598e-05
6.58243e-05
6.34468e-05
5.97153e-05
5.70699e-05
5.59606e-05
5.62479e-05
5.87537e-05
6.56907e-05
7.81926e-05
8.46505e-05
2.82036e-05
6.14336e-06
1.0136e-05
5.5611e-05
0.000162616
0.000171073
0.000140941
0.000107871
8.71596e-05
7.78798e-05
7.38004e-05
6.80994e-05
5.68417e-05
4.51812e-05
4.12207e-05
4.86026e-05
6.83877e-05
9.43306e-05
0.000107759
9.72706e-05
7.45374e-05
5.59069e-05
4.77401e-05
4.92928e-05
5.60868e-05
6.08821e-05
6.02462e-05
5.66732e-05
5.34953e-05
5.21891e-05
5.30108e-05
5.6504e-05
6.42824e-05
7.69419e-05
8.24996e-05
2.73163e-05
6.14929e-06
1.0148e-05