/*--------------------------------*- C++ -*----------------------------------*\
| =========                 |                                                 |
| \\      /  F ield         | OpenFOAM: The Open Source CFD Toolbox           |
|  \\    /   O peration     | Version:  v1906                                 |
|   \\  /    A nd           | Web:      www.OpenFOAM.com                      |
|    \\/     M anipulation  |                                                 |
\*---------------------------------------------------------------------------*/
FoamFile
{
    version     2.0;
    format      ascii;
    class       surfaceScalarField;
    location    "20";
    object      phi;
}
// * * * * * * * * * * * * * * * * * * * * * * * * * * * * * * * * * * * * * //

dimensions      [1 0 -1 0 0 0 0];
oriented        oriented;


internalField   nonuniform List<scalar> 
228225
(
-8.71347e-09
1.43086e-08
-5.33101e-09
-3.22529e-08
3.50483e-08
-1.15108e-08
-6.5331e-08
4.71993e-08
-1.41209e-08
-1.06222e-07
5.63986e-08
-1.55097e-08
-1.52647e-07
6.2812e-08
-1.63839e-08
-2.02072e-07
6.64876e-08
-1.7065e-08
-2.52454e-07
6.81682e-08
-1.77837e-08
-3.02409e-07
6.85489e-08
-1.85982e-08
-3.51098e-07
6.82641e-08
-1.95718e-08
-3.97934e-07
6.75821e-08
-2.07477e-08
-4.42326e-07
6.64899e-08
-2.21001e-08
-4.83449e-07
6.4597e-08
-2.34727e-08
-5.20354e-07
6.16654e-08
-2.4761e-08
-5.52221e-07
5.79598e-08
-2.6092e-08
-5.78318e-07
5.3655e-08
-2.75585e-08
-5.98108e-07
4.88966e-08
-2.91067e-08
-6.11171e-07
4.38102e-08
-3.07489e-08
-6.17274e-07
3.85345e-08
-3.24312e-08
-6.16348e-07
3.31917e-08
-3.4118e-08
-6.08456e-07
2.78924e-08
-3.57846e-08
-5.93783e-07
2.27303e-08
-3.74045e-08
-5.72622e-07
1.77858e-08
-3.89463e-08
-5.4536e-07
1.31148e-08
-4.03778e-08
-5.12468e-07
8.76421e-09
-4.16569e-08
-4.7447e-07
4.75325e-09
-4.2752e-08
-4.3195e-07
1.10873e-09
-4.36268e-08
-3.85507e-07
-2.19415e-09
-4.42495e-08
-3.35799e-07
-5.13246e-09
-4.45771e-08
-2.83529e-07
-7.69695e-09
-4.45707e-08
-2.29513e-07
-9.85546e-09
-4.41636e-08
-1.74682e-07
-1.15678e-08
-4.32629e-08
-1.20324e-07
-1.27162e-08
-4.16418e-08
-6.85018e-08
-1.30797e-08
-3.87416e-08
-2.3223e-08
-1.22969e-08
-3.29842e-08
-7.74798e-09
-1.54746e-08
-2.84812e-08
6.48147e-08
-2.20247e-08
-8.3633e-08
1.12385e-07
-2.21852e-08
-1.4844e-07
1.34451e-07
-2.24458e-08
-2.17599e-07
1.49115e-07
-2.35583e-08
-2.86773e-07
1.5697e-07
-2.49814e-08
-3.52591e-07
1.58936e-07
-2.66323e-08
-4.12434e-07
1.56663e-07
-2.86514e-08
-4.64431e-07
1.51678e-07
-3.11326e-08
-5.07391e-07
1.45184e-07
-3.39603e-08
-5.40777e-07
1.37824e-07
-3.68538e-08
-5.64587e-07
1.29788e-07
-3.94907e-08
-5.79254e-07
1.20929e-07
-4.16636e-08
-5.85644e-07
1.11272e-07
-4.3218e-08
-5.84681e-07
1.01281e-07
-4.42836e-08
-5.77231e-07
9.11749e-08
-4.49687e-08
-5.64163e-07
8.12067e-08
-4.53818e-08
-5.46322e-07
7.15437e-08
-4.55722e-08
-5.24535e-07
6.23318e-08
-4.55846e-08
-4.99586e-07
5.37033e-08
-4.546e-08
-4.72167e-07
4.57175e-08
-4.5244e-08
-4.42863e-07
3.83972e-08
-4.49722e-08
-4.12141e-07
3.17383e-08
-4.46742e-08
-3.80382e-07
2.57227e-08
-4.43663e-08
-3.47873e-07
2.03163e-08
-4.40612e-08
-3.14846e-07
1.54824e-08
-4.37549e-08
-2.81474e-07
1.1177e-08
-4.34418e-08
-2.47926e-07
7.35888e-09
-4.31023e-08
-2.14334e-07
3.99227e-09
-4.27165e-08
-1.8083e-07
1.04513e-09
-4.22437e-08
-1.47569e-07
-1.47941e-09
-4.1639e-08
-1.14732e-07
-3.56328e-09
-4.08407e-08
-8.25161e-08
-5.15051e-09
-3.97821e-08
-5.13136e-08
-6.09749e-09
-3.81857e-08
-2.24597e-08
-5.92469e-09
-3.52238e-08
-1.91618e-09
-2.82929e-08
-4.15032e-08
9.38724e-08
1.24443e-08
-1.04611e-07
1.59462e-07
1.60328e-08
-1.72913e-07
1.85519e-07
1.72341e-08
-2.40079e-07
1.99313e-07
1.69696e-08
-3.02739e-07
2.04171e-07
1.54567e-08
-3.58832e-07
2.02325e-07
1.27039e-08
-4.07174e-07
1.96173e-07
8.83186e-09
-4.46418e-07
1.87135e-07
3.78795e-09
-4.7558e-07
1.7649e-07
-2.14437e-09
-4.94004e-07
1.64861e-07
-8.61241e-09
-5.01901e-07
1.52736e-07
-1.50501e-08
-5.00298e-07
1.40306e-07
-2.09796e-08
-4.90826e-07
1.27791e-07
-2.59916e-08
-4.74982e-07
1.15289e-07
-2.98513e-08
-4.54342e-07
1.0305e-07
-3.2516e-08
-4.30263e-07
9.14202e-08
-3.42921e-08
-4.03842e-07
8.06073e-08
-3.54856e-08
-3.75968e-07
7.07242e-08
-3.62643e-08
-3.47361e-07
6.18288e-08
-3.67334e-08
-3.18612e-07
5.39301e-08
-3.69631e-08
-2.90182e-07
4.69852e-08
-3.70145e-08
-2.62439e-07
4.09227e-08
-3.69306e-08
-2.35635e-07
3.5665e-08
-3.67455e-08
-2.09951e-07
3.11155e-08
-3.6485e-08
-1.85483e-07
2.71843e-08
-3.61675e-08
-1.62282e-07
2.37791e-08
-3.58032e-08
-1.40344e-07
2.08179e-08
-3.5398e-08
-1.19629e-07
1.82236e-08
-3.49473e-08
-1.00068e-07
1.59286e-08
-3.44425e-08
-8.15716e-08
1.38816e-08
-3.38586e-08
-6.40212e-08
1.20501e-08
-3.31637e-08
-4.7306e-08
1.04185e-08
-3.22836e-08
-3.13342e-08
8.99838e-09
-3.10672e-08
-1.59663e-08
7.81383e-09
-2.9106e-08
6.62296e-09
-2.45072e-08
-4.89721e-08
9.15992e-08
5.12447e-08
-9.52779e-08
1.48968e-07
5.6801e-08
-1.3973e-07
1.71743e-07
5.82268e-08
-1.8313e-07
1.83878e-07
5.88357e-08
-2.25136e-07
1.88336e-07
5.78421e-08
-2.65102e-07
1.8709e-07
5.52011e-08
-3.01323e-07
1.82237e-07
5.01577e-08
-3.32024e-07
1.74762e-07
4.30749e-08
-3.55286e-07
1.65606e-07
3.4144e-08
-3.7005e-07
1.55166e-07
2.44596e-08
-3.76054e-07
1.43909e-07
1.4831e-08
-3.73969e-07
1.32095e-07
6.12542e-09
-3.64848e-07
1.20048e-07
-1.37894e-09
-3.50112e-07
1.0803e-07
-7.4761e-09
-3.31301e-07
9.64501e-08
-1.22114e-08
-3.09827e-07
8.57055e-08
-1.57579e-08
-2.86736e-07
7.60591e-08
-1.85438e-08
-2.6286e-07
6.75912e-08
-2.07445e-08
-2.3884e-07
6.02979e-08
-2.24877e-08
-2.15214e-07
5.41536e-08
-2.38508e-08
-1.92407e-07
4.9076e-08
-2.48964e-08
-1.7076e-07
4.49526e-08
-2.56764e-08
-1.50519e-07
4.16519e-08
-2.623e-08
-1.31852e-07
3.90427e-08
-2.65939e-08
-1.14852e-07
3.69812e-08
-2.67953e-08
-9.95475e-08
3.5337e-08
-2.6863e-08
-8.58845e-08
3.39702e-08
-2.68161e-08
-7.37433e-08
3.27598e-08
-2.66774e-08
-6.29228e-08
3.15753e-08
-2.64647e-08
-5.31565e-08
3.03028e-08
-2.61898e-08
-4.40641e-08
2.88071e-08
-2.58496e-08
-3.51262e-08
2.69596e-08
-2.54776e-08
-2.54936e-08
2.45773e-08
-2.5212e-08
-1.42443e-08
2.1645e-08
-2.50818e-08
1.58665e-08
-2.3487e-08
-3.04962e-08
6.6104e-08
5.59903e-08
-4.23624e-08
1.00033e-07
6.08027e-08
-4.81375e-08
1.15601e-07
6.19165e-08
-5.30804e-08
1.26428e-07
6.23916e-08
-5.93643e-08
1.32867e-07
6.17516e-08
-6.77694e-08
1.35555e-07
5.99422e-08
-7.75784e-08
1.35223e-07
5.68228e-08
-8.76283e-08
1.32452e-07
5.23599e-08
-9.63038e-08
1.27788e-07
4.64941e-08
-1.0234e-07
1.21676e-07
3.95265e-08
-1.04954e-07
1.14524e-07
3.19989e-08
-1.04173e-07
1.06688e-07
2.46263e-08
-1.00553e-07
9.84984e-08
1.79314e-08
-9.49719e-08
9.0297e-08
1.21504e-08
-8.82255e-08
8.24092e-08
7.29555e-09
-8.09224e-08
7.51292e-08
3.27245e-09
-7.34744e-08
6.86746e-08
-6.44762e-11
-6.62081e-08
6.31358e-08
-2.81e-09
-5.93478e-08
5.85257e-08
-5.08715e-09
-5.30427e-08
5.47996e-08
-6.95299e-09
-4.73911e-08
5.18885e-08
-8.4625e-09
-4.24641e-08
4.96841e-08
-9.65897e-09
-3.82993e-08
4.80731e-08
-1.05862e-08
-3.48998e-08
4.69242e-08
-1.12802e-08
-3.22489e-08
4.61109e-08
-1.17807e-08
-3.02833e-08
4.54938e-08
-1.21228e-08
-2.89069e-08
4.49405e-08
-1.23464e-08
-2.79634e-08
4.43051e-08
-1.24897e-08
-2.72504e-08
4.345e-08
-1.25878e-08
-2.64811e-08
4.22165e-08
-1.26817e-08
-2.5308e-08
4.04321e-08
-1.27989e-08
-2.32401e-08
3.78916e-08
-1.29992e-08
-1.94543e-08
3.43472e-08
-1.35557e-08
-1.26202e-08
2.94846e-08
-1.46736e-08
1.87467e-08
-1.55009e-08
-9.70047e-09
4.07996e-08
3.5004e-08
-7.2723e-09
5.97889e-08
3.78167e-08
8.10294e-10
6.92944e-08
3.82223e-08
1.2299e-08
7.66353e-08
3.83058e-08
2.55873e-08
8.1824e-08
3.77531e-08
3.95616e-08
8.51181e-08
3.64634e-08
5.34027e-08
8.68886e-08
3.44936e-08
6.65418e-08
8.73796e-08
3.1932e-08
7.85582e-08
8.68599e-08
2.89124e-08
8.91126e-08
8.55259e-08
2.55946e-08
9.79121e-08
8.35716e-08
2.21526e-08
1.04713e-07
8.11549e-08
1.87326e-08
1.09312e-07
7.84447e-08
1.54538e-08
1.11602e-07
7.56047e-08
1.24023e-08
1.11573e-07
7.28003e-08
9.63915e-09
1.09336e-07
7.01719e-08
7.19256e-09
1.05141e-07
6.78122e-08
5.05966e-09
9.92732e-08
6.57694e-08
3.23317e-09
9.20623e-08
6.40472e-08
1.68989e-09
8.38361e-08
6.26283e-08
3.97595e-10
7.49025e-08
6.14667e-08
-6.44258e-10
6.55374e-08
6.05168e-08
-1.46932e-09
5.60082e-08
5.97135e-08
-2.11033e-09
4.65256e-08
5.89988e-08
-2.59242e-09
3.72869e-08
5.82961e-08
-2.94435e-09
2.84413e-08
5.75361e-08
-3.19875e-09
2.01427e-08
5.66269e-08
-3.38864e-09
1.25216e-08
5.54784e-08
-3.55062e-09
5.7361e-09
5.39647e-08
-3.72922e-09
-3.48783e-11
5.19526e-08
-3.96653e-09
-4.57206e-09
4.92637e-08
-4.29459e-09
-7.60454e-09
4.57045e-08
-4.77903e-09
-8.59287e-09
4.10229e-08
-5.68809e-09
-6.72811e-09
3.48453e-08
-7.2257e-09
2.10452e-08
-9.02643e-09
1.16579e-09
2.40141e-08
1.56179e-08
7.70134e-09
3.75682e-08
1.56888e-08
1.75858e-08
4.43786e-08
1.50275e-08
2.96361e-08
4.99562e-08
1.46309e-08
4.28324e-08
5.44594e-08
1.41678e-08
5.63758e-08
5.80892e-08
1.34856e-08
6.96002e-08
6.10475e-08
1.26163e-08
8.19566e-08
6.34468e-08
1.15758e-08
9.30363e-08
6.53916e-08
1.039e-08
1.02555e-07
6.69397e-08
9.06753e-09
1.10324e-07
6.81518e-08
7.65116e-09
1.16217e-07
6.90736e-08
6.18772e-09
1.20146e-07
6.97699e-08
4.74703e-09
1.22067e-07
7.02915e-08
3.38787e-09
1.22013e-07
7.07002e-08
2.158e-09
1.2009e-07
7.10229e-08
1.0715e-09
1.16477e-07
7.12877e-08
1.36266e-10
1.11394e-07
7.14949e-08
-6.40916e-10
1.05061e-07
7.16477e-08
-1.26929e-09
9.77279e-08
7.17239e-08
-1.76093e-09
8.9605e-08
7.17118e-08
-2.12264e-09
8.09103e-08
7.15817e-08
-2.36944e-09
7.18218e-08
7.13186e-08
-2.51719e-09
6.25176e-08
7.08858e-08
-2.58338e-09
5.31427e-08
7.02604e-08
-2.58772e-09
4.38401e-08
6.93894e-08
-2.55161e-09
3.47366e-08
6.8228e-08
-2.49858e-09
2.5982e-08
6.6689e-08
-2.45476e-09
1.77183e-08
6.46792e-08
-2.45139e-09
1.01463e-08
6.20429e-08
-2.51885e-09
3.49889e-09
5.85925e-08
-2.67983e-09
-1.86739e-09
5.40613e-08
-2.99059e-09
-5.25743e-09
4.8116e-08
-3.70257e-09
-5.53064e-09
4.01419e-08
-5.02662e-09
2.20918e-08
-6.57505e-09
-9.61706e-10
1.67846e-08
8.1922e-09
-2.96839e-09
3.24928e-08
7.08062e-09
-4.32149e-09
3.97587e-08
5.97418e-09
-5.04968e-09
4.54103e-08
5.27313e-09
-5.1961e-09
4.9916e-08
4.69101e-09
-4.7346e-09
5.35678e-08
4.05912e-09
-3.58803e-09
5.65698e-08
3.33038e-09
-1.73193e-09
5.90809e-08
2.51065e-09
8.29689e-10
6.12132e-08
1.61718e-09
4.00718e-09
6.30621e-08
6.98867e-10
7.66059e-09
6.46955e-08
-1.96611e-10
1.158e-08
6.6174e-08
-1.01877e-09
1.55898e-08
6.75333e-08
-1.77437e-09
1.95366e-08
6.88029e-08
-2.45796e-09
2.33145e-08
6.99945e-08
-3.07265e-09
2.68244e-08
7.11199e-08
-3.60575e-09
2.99844e-08
7.21769e-08
-4.04881e-09
3.27006e-08
7.3167e-08
-4.38972e-09
3.49015e-08
7.40746e-08
-4.62659e-09
3.64896e-08
7.48901e-08
-4.75476e-09
3.73933e-08
7.55882e-08
-4.78051e-09
3.75349e-08
7.61515e-08
-4.71081e-09
3.687e-08
7.65453e-08
-4.5603e-09
3.53565e-08
7.67398e-08
-4.343e-09
3.30108e-08
7.6684e-08
-4.07746e-09
2.98553e-08
7.63291e-08
-3.78298e-09
2.59687e-08
7.55963e-08
-3.48224e-09
2.14586e-08
7.43962e-08
-3.19817e-09
1.65049e-08
7.25921e-08
-2.95692e-09
1.13147e-08
7.00124e-08
-2.78106e-09
6.2001e-09
6.64038e-08
-2.69538e-09
1.58316e-09
6.14403e-08
-2.76304e-09
-1.76193e-09
5.46435e-08
-3.18318e-09
-2.86995e-09
4.53781e-08
-4.12596e-09
2.44046e-08
-5.18481e-09
-3.58555e-09
1.52803e-08
5.0884e-09
-8.13784e-09
3.22207e-08
4.8257e-09
-1.27426e-08
3.99415e-08
4.42067e-09
-1.72845e-08
4.58572e-08
4.09695e-09
-2.15391e-08
5.04341e-08
3.73635e-09
-2.52763e-08
5.40242e-08
3.28038e-09
-2.83106e-08
5.68735e-08
2.72971e-09
-3.04917e-08
5.9173e-08
2.0895e-09
-3.17214e-08
6.10626e-08
1.38059e-09
-3.19478e-08
6.2652e-08
6.35666e-10
-3.11892e-08
6.40284e-08
-9.17003e-11
-2.95173e-08
6.52586e-08
-7.55211e-10
-2.70398e-08
6.63963e-08
-1.34067e-09
-2.38765e-08
6.74808e-08
-1.84219e-09
-2.01716e-08
6.85413e-08
-2.25041e-09
-1.60807e-08
6.95918e-08
-2.56455e-09
-1.17653e-08
7.06405e-08
-2.77721e-09
-7.38996e-09
7.16822e-08
-2.89113e-09
-3.12135e-09
7.27092e-08
-2.90406e-09
8.93738e-10
7.37008e-08
-2.82466e-09
4.50183e-09
7.46353e-08
-2.65581e-09
7.58499e-09
7.54791e-08
-2.41088e-09
1.00323e-08
7.61968e-08
-2.09819e-09
1.17699e-08
7.67392e-08
-1.73714e-09
1.27435e-08
7.70514e-08
-1.34122e-09
1.29479e-08
7.70599e-08
-9.35351e-10
1.24028e-08
7.6678e-08
-5.36622e-10
1.11862e-08
7.57891e-08
-1.74458e-10
9.39169e-09
7.42457e-08
1.3867e-10
7.18259e-09
7.18483e-08
3.74927e-10
4.73973e-09
6.8331e-08
5.14782e-10
2.33464e-09
6.33353e-08
5.10033e-10
3.66655e-10
5.63698e-08
2.41722e-10
-6.33408e-10
4.67821e-08
-4.03676e-10
2.50216e-08
-1.25049e-09
-4.82727e-09
1.47939e-08
5.31362e-09
-1.02767e-08
3.1763e-08
5.90697e-09
-1.58174e-08
3.94253e-08
6.05623e-09
-2.12306e-08
4.5216e-08
6.0546e-09
-2.63138e-08
4.96248e-08
5.89282e-09
-3.08962e-08
5.30048e-08
5.60184e-09
-3.48355e-08
5.56163e-08
5.19552e-09
-3.80107e-08
5.76514e-08
4.69692e-09
-4.03234e-08
5.92597e-08
4.11626e-09
-4.17129e-08
6.05506e-08
3.49046e-09
-4.21614e-08
6.16177e-08
2.85858e-09
-4.17009e-08
6.253e-08
2.26998e-09
-4.04031e-08
6.33513e-08
1.74686e-09
-3.83577e-08
6.41244e-08
1.30958e-09
-3.5662e-08
6.4889e-08
9.57571e-10
-3.24373e-08
6.5664e-08
7.02629e-10
-2.88047e-08
6.64674e-08
5.41658e-10
-2.49045e-08
6.72984e-08
4.83175e-10
-2.08728e-08
6.81563e-08
5.19731e-10
-1.68475e-08
6.90221e-08
6.55142e-10
-1.29674e-08
6.98776e-08
8.76222e-10
-9.35417e-09
7.06853e-08
1.18184e-09
-6.11737e-09
7.14074e-08
1.55326e-09
-3.34771e-09
7.1986e-08
1.98185e-09
-1.09652e-09
7.23627e-08
2.43785e-09
6.09846e-10
7.24537e-08
2.90167e-09
1.77876e-09
7.21698e-08
3.33681e-09
2.45202e-09
7.13881e-08
3.72771e-09
2.68833e-09
6.99651e-08
4.04484e-09
2.55789e-09
6.77013e-08
4.27718e-09
2.14706e-09
6.43472e-08
4.39567e-09
1.54817e-09
5.95573e-08
4.37601e-09
9.09404e-10
5.28797e-08
4.12856e-09
4.2802e-10
4.36779e-08
3.58459e-09
2.28405e-08
2.60977e-09
-5.54832e-09
1.45425e-08
5.79873e-09
-1.13157e-08
3.05774e-08
6.95526e-09
-1.71155e-08
3.77864e-08
7.43664e-09
-2.27226e-08
4.31974e-08
7.62685e-09
-2.79469e-08
4.7254e-08
7.59577e-09
-3.26389e-08
5.02951e-08
7.4001e-09
-3.66652e-08
5.25664e-08
7.07683e-09
-3.9914e-08
5.42607e-08
6.63971e-09
-4.22825e-08
5.55178e-08
6.11108e-09
-4.37021e-08
5.64552e-08
5.51264e-09
-4.4137e-08
5.71598e-08
4.89401e-09
-4.36152e-08
5.77133e-08
4.29525e-09
-4.21989e-08
5.81761e-08
3.75832e-09
-3.99795e-08
5.86067e-08
3.29818e-09
-3.70648e-08
5.90422e-08
2.93291e-09
-3.35803e-08
5.95185e-08
2.661e-09
-2.96571e-08
6.00494e-08
2.49411e-09
-2.5436e-08
6.06495e-08
2.4274e-09
-2.10589e-08
6.13107e-08
2.46868e-09
-1.66721e-08
6.20272e-08
2.60866e-09
-1.24154e-08
6.27695e-08
2.85091e-09
-8.42308e-09
6.35112e-08
3.18134e-09
-4.81201e-09
6.41997e-08
3.59827e-09
-1.68945e-09
6.47861e-08
4.07603e-09
8.83609e-10
6.51943e-08
4.59548e-09
2.87418e-09
6.53523e-08
5.11214e-09
4.28998e-09
6.5156e-08
5.5957e-09
5.17371e-09
6.44999e-08
6.00689e-09
5.56923e-09
6.32334e-08
6.33552e-09
5.52645e-09
6.11855e-08
6.55812e-09
5.09472e-09
5.81152e-08
6.66406e-09
4.31395e-09
5.37241e-08
6.61348e-09
3.25194e-09
4.75986e-08
6.34484e-09
1.96368e-09
3.92007e-08
5.76347e-09
2.02522e-08
4.5525e-09
-4.96773e-09
1.42219e-08
5.28989e-09
-1.05077e-08
2.94143e-08
6.70025e-09
-1.62441e-08
3.61921e-08
7.33228e-09
-2.18572e-08
4.12001e-08
7.60992e-09
-2.70999e-08
4.48682e-08
7.62861e-09
-3.17898e-08
4.75111e-08
7.47303e-09
-3.57686e-08
4.93728e-08
7.17358e-09
-3.88987e-08
5.06379e-08
6.753e-09
-4.10585e-08
5.14544e-08
6.22246e-09
-4.21585e-08
5.19404e-08
5.61628e-09
-4.21713e-08
5.21965e-08
4.97509e-09
-4.11181e-08
5.23069e-08
4.35248e-09
-3.90705e-08
5.23469e-08
3.78241e-09
-3.61366e-08
5.23772e-08
3.29519e-09
-3.24458e-08
5.24519e-08
2.90083e-09
-2.81518e-08
5.26085e-08
2.61364e-09
-2.34108e-08
5.28769e-08
2.43347e-09
-1.83968e-08
5.32687e-08
2.36811e-09
-1.32896e-08
5.37883e-08
2.41271e-09
-8.25392e-09
5.44209e-08
2.57242e-09
-3.47015e-09
5.51455e-08
2.83853e-09
9.10919e-10
5.59204e-08
3.21081e-09
4.73921e-09
5.66995e-08
3.67234e-09
7.89793e-09
5.74162e-08
4.21134e-09
1.02975e-08
5.8001e-08
4.79323e-09
1.19024e-08
5.83625e-08
5.38514e-09
1.27183e-08
5.84055e-08
5.93548e-09
1.27994e-08
5.80075e-08
6.41092e-09
1.22187e-08
5.70342e-08
6.77918e-09
1.10633e-08
5.53073e-08
7.03268e-09
9.4175e-09
5.26155e-08
7.14797e-09
7.36957e-09
4.86717e-08
7.09968e-09
5.04718e-09
4.31165e-08
6.8043e-09
2.63227e-09
3.54487e-08
6.16509e-09
1.81089e-08
4.77695e-09
-4.26459e-09
1.49163e-08
3.57002e-09
-9.7775e-09
2.99552e-08
4.97059e-09
-1.58082e-08
3.6591e-08
5.63439e-09
-2.18898e-08
4.13785e-08
5.90111e-09
-2.76522e-08
4.4739e-08
5.89241e-09
-3.28307e-08
4.6993e-08
5.69583e-09
-3.71954e-08
4.83902e-08
5.3484e-09
-4.05492e-08
4.9129e-08
4.86193e-09
-4.2724e-08
4.93722e-08
4.25702e-09
-4.361e-08
4.92593e-08
3.56656e-09
-4.31676e-08
4.89084e-08
2.84543e-09
-4.14286e-08
4.8426e-08
2.1433e-09
-3.84915e-08
4.79032e-08
1.50652e-09
-3.44962e-08
4.74216e-08
9.60222e-10
-2.96172e-08
4.70468e-08
5.25046e-10
-2.40472e-08
4.68333e-08
2.0639e-10
-1.80005e-08
4.68165e-08
1.30155e-11
-1.16933e-08
4.70197e-08
-5.64459e-11
-5.35873e-09
4.74459e-08
4.54879e-12
7.88376e-10
4.80856e-08
1.90275e-10
6.52197e-09
4.89085e-08
5.02152e-10
1.16391e-08
4.98727e-08
9.32185e-10
1.59468e-08
5.09156e-08
1.47407e-09
1.92928e-08
5.19655e-08
2.10537e-09
2.15626e-08
5.29311e-08
2.79957e-09
2.2702e-08
5.37134e-08
3.50889e-09
2.27316e-08
5.41932e-08
4.1854e-09
2.17213e-08
5.42409e-08
4.77597e-09
1.98037e-08
5.3701e-08
5.24938e-09
1.71322e-08
5.23951e-08
5.58444e-09
1.38767e-08
5.00998e-08
5.77068e-09
1.02352e-08
4.65404e-08
5.77331e-09
6.47628e-09
4.13617e-08
5.51324e-09
2.95272e-09
3.41026e-08
4.87106e-09
1.7556e-08
3.50461e-09
-3.48621e-09
1.71335e-08
1.26885e-09
-9.12736e-09
3.31307e-08
2.46611e-09
-1.56899e-08
4.00902e-08
3.06247e-09
-2.25094e-08
4.49511e-08
3.24756e-09
-2.90841e-08
4.81714e-08
3.14182e-09
-3.50316e-08
5.01034e-08
2.83867e-09
-4.00409e-08
5.1032e-08
2.36564e-09
-4.38395e-08
5.11876e-08
1.74038e-09
-4.62172e-08
5.07678e-08
9.83028e-10
-4.704e-08
4.99409e-08
1.41661e-10
-4.62629e-08
4.88607e-08
-7.30368e-10
-4.39302e-08
4.76603e-08
-1.56756e-09
-4.01615e-08
4.64618e-08
-2.32559e-09
-3.51389e-08
4.53675e-08
-2.96934e-09
-2.90773e-08
4.44679e-08
-3.48297e-09
-2.22211e-08
4.3831e-08
-3.85352e-09
-1.48352e-08
4.35099e-08
-4.07913e-09
-7.19384e-09
4.3532e-08
-4.15391e-09
4.227e-10
4.39089e-08
-4.07976e-09
7.73735e-09
4.46255e-08
-3.85395e-09
1.44776e-08
4.56505e-08
-3.4814e-09
2.03862e-08
4.69269e-08
-2.96372e-09
2.52329e-08
4.83826e-08
-2.31372e-09
2.88244e-08
4.99221e-08
-1.54781e-09
3.10196e-08
5.14374e-08
-7.02312e-10
3.17578e-08
5.27994e-08
1.77377e-10
3.10562e-08
5.38677e-08
1.02577e-09
2.90276e-08
5.44793e-08
1.78962e-09
2.58551e-08
5.44556e-08
2.42025e-09
2.17647e-08
5.35868e-08
2.89691e-09
1.70331e-08
5.16287e-08
3.20368e-09
1.19771e-08
4.82794e-08
3.31691e-09
7.01946e-09
4.31669e-08
3.15205e-09
2.71736e-09
3.58077e-08
2.59666e-09
1.88301e-08
1.44337e-09
-2.88454e-09
2.08472e-08
-8.28219e-10
-8.51775e-09
3.87124e-08
4.8841e-11
-1.53186e-08
4.63988e-08
4.93793e-10
-2.2535e-08
5.16209e-08
5.45486e-10
-2.95693e-08
5.48943e-08
3.1224e-10
-3.59723e-08
5.66316e-08
-1.25514e-10
-4.13599e-08
5.71644e-08
-7.44412e-10
-4.54169e-08
5.67768e-08
-1.533e-09
-4.78923e-08
5.57051e-08
-2.46138e-09
-4.86372e-08
5.41643e-08
-3.47803e-09
-4.76066e-08
5.2342e-08
-4.5125e-09
-4.48587e-08
5.04118e-08
-5.49933e-09
-4.05371e-08
4.85229e-08
-6.38289e-09
-3.48499e-08
4.68102e-08
-7.13075e-09
-2.80411e-08
4.53826e-08
-7.72173e-09
-2.03935e-08
4.43309e-08
-8.14905e-09
-1.21938e-08
4.37176e-08
-8.40608e-09
-3.75399e-09
4.3584e-08
-8.4932e-09
4.62317e-09
4.39404e-08
-8.40708e-09
1.26213e-08
4.47755e-08
-8.15016e-09
1.99489e-08
4.60469e-08
-7.72143e-09
2.63097e-08
4.76906e-08
-7.12676e-09
3.14518e-08
4.96139e-08
-6.37248e-09
3.51476e-08
5.17046e-08
-5.47962e-09
3.72429e-08
5.38244e-08
-4.48115e-09
3.76572e-08
5.58189e-08
-3.43326e-09
3.64169e-08
5.75094e-08
-2.40245e-09
3.36554e-08
5.87016e-08
-1.45942e-09
2.95923e-08
5.91733e-08
-6.56506e-10
2.45256e-08
5.86798e-08
-2.38312e-11
1.87987e-08
5.69301e-08
4.23558e-10
1.28264e-08
5.35836e-08
6.68595e-10
7.13795e-09
4.82162e-08
6.38496e-10
2.41388e-09
4.02976e-08
2.33466e-10
2.18388e-08
-5.94283e-10
-2.46926e-09
2.5501e-08
-2.18459e-09
-7.85274e-09
4.57095e-08
-1.61423e-09
-1.44763e-08
5.43567e-08
-1.33444e-09
-2.1566e-08
6.01265e-08
-1.4143e-09
-2.8522e-08
6.36139e-08
-1.76548e-09
-3.48604e-08
6.52925e-08
-2.32066e-09
-4.01847e-08
6.55541e-08
-3.06568e-09
-4.41513e-08
6.47291e-08
-3.98771e-09
-4.64967e-08
6.31072e-08
-5.05546e-09
-4.70698e-08
6.09442e-08
-6.20631e-09
-4.58366e-08
5.8473e-08
-7.36519e-09
-4.28666e-08
5.58992e-08
-8.45614e-09
-3.83272e-08
5.3408e-08
-9.42512e-09
-3.24354e-08
5.11557e-08
-1.02367e-08
-2.54543e-08
4.92765e-08
-1.08762e-08
-1.76599e-08
4.78726e-08
-1.13353e-08
-9.35022e-09
4.70217e-08
-1.16132e-08
-8.27827e-10
4.67677e-08
-1.1707e-08
7.60117e-09
4.71283e-08
-1.16179e-08
1.56362e-08
4.80868e-08
-1.1344e-08
2.29683e-08
4.95999e-08
-1.08872e-08
2.93169e-08
5.15903e-08
-1.02479e-08
3.44112e-08
5.39551e-08
-9.43378e-09
3.80151e-08
5.65588e-08
-8.45902e-09
3.99557e-08
5.92425e-08
-7.35903e-09
4.01444e-08
6.18179e-08
-6.18838e-09
3.86039e-08
6.40752e-08
-5.02383e-09
3.54705e-08
6.57767e-08
-3.94177e-09
3.09862e-08
6.66613e-08
-3.00584e-09
2.54815e-08
6.64341e-08
-2.2483e-09
1.93344e-08
6.47589e-08
-1.68196e-09
1.29993e-08
6.12381e-08
-1.31975e-09
7.04866e-09
5.5392e-08
-1.22251e-09
2.19764e-09
4.66181e-08
-1.47238e-09
2.60505e-08
-2.01315e-09
-2.36291e-09
3.05868e-08
-2.72345e-09
-7.53e-09
5.32436e-08
-2.36555e-09
-1.38839e-08
6.29183e-08
-2.20866e-09
-2.06918e-08
6.93112e-08
-2.37663e-09
-2.73681e-08
7.30894e-08
-2.79846e-09
-3.34448e-08
7.47914e-08
-3.42349e-09
-3.85128e-08
7.48635e-08
-4.24031e-09
-4.22341e-08
7.36894e-08
-5.23903e-09
-4.43479e-08
7.16041e-08
-6.38329e-09
-4.47075e-08
6.89116e-08
-7.60681e-09
-4.3292e-08
6.58825e-08
-8.82586e-09
-4.0191e-08
6.27621e-08
-9.96359e-09
-3.55821e-08
5.97625e-08
-1.09642e-08
-2.96947e-08
5.70668e-08
-1.17977e-08
-2.27898e-08
5.48217e-08
-1.24504e-08
-1.51407e-08
5.31426e-08
-1.29189e-08
-7.0265e-09
5.21096e-08
-1.32015e-08
1.26313e-09
5.17748e-08
-1.32986e-08
9.4479e-09
5.21541e-08
-1.3209e-08
1.72329e-08
5.32332e-08
-1.29333e-08
2.4344e-08
5.49617e-08
-1.24702e-08
3.04923e-08
5.72607e-08
-1.18209e-08
3.54222e-08
6.00152e-08
-1.09883e-08
3.88876e-08
6.30779e-08
-9.98583e-09
4.07086e-08
6.62642e-08
-8.84322e-09
4.07846e-08
6.93595e-08
-7.61656e-09
3.91275e-08
7.21152e-08
-6.38356e-09
3.58781e-08
7.42567e-08
-5.22895e-09
3.12817e-08
7.54762e-08
-4.22024e-09
2.56765e-08
7.54343e-08
-3.39422e-09
1.94519e-08
7.37439e-08
-2.76105e-09
1.3066e-08
6.99546e-08
-2.33096e-09
7.08546e-09
6.35245e-08
-2.15134e-09
2.21156e-09
5.37823e-08
-2.28965e-09
3.08914e-08
-2.62987e-09
-2.4867e-09
3.57042e-08
-2.63083e-09
-7.63702e-09
6.07376e-08
-2.34482e-09
-1.38967e-08
7.14171e-08
-2.23874e-09
-2.05756e-08
7.84296e-08
-2.43777e-09
-2.71184e-08
8.25136e-08
-2.88342e-09
-3.30575e-08
8.42621e-08
-3.53158e-09
-3.79924e-08
8.41743e-08
-4.37534e-09
-4.15767e-08
8.26771e-08
-5.40409e-09
-4.35433e-08
8.01532e-08
-6.58147e-09
-4.37455e-08
7.69483e-08
-7.83565e-09
-4.21635e-08
7.338e-08
-9.08002e-09
-3.89032e-08
6.97374e-08
-1.02342e-08
-3.41683e-08
6.62711e-08
-1.1244e-08
-2.82042e-08
6.31834e-08
-1.20803e-08
-2.12822e-08
6.06319e-08
-1.2733e-08
-1.36695e-08
5.87318e-08
-1.31995e-08
-5.64493e-09
5.75642e-08
-1.3481e-08
2.53172e-09
5.71748e-08
-1.35772e-08
1.05949e-08
5.75819e-08
-1.34893e-08
1.82749e-08
5.87684e-08
-1.32156e-08
2.53021e-08
6.06904e-08
-1.27556e-08
3.14013e-08
6.32681e-08
-1.21077e-08
3.63043e-08
6.63873e-08
-1.12741e-08
3.97555e-08
6.98912e-08
-1.02647e-08
4.15507e-08
7.35765e-08
-9.10866e-09
4.15807e-08
7.71909e-08
-7.86053e-09
3.98555e-08
8.04415e-08
-6.60133e-09
3.65244e-08
8.30073e-08
-5.4185e-09
3.18441e-08
8.45396e-08
-4.38451e-09
2.61606e-08
8.46529e-08
-3.53601e-09
1.987e-08
8.29175e-08
-2.88341e-09
1.34268e-08
7.8832e-08
-2.43285e-09
7.37648e-09
7.18011e-08
-2.22617e-09
2.39232e-09
6.10843e-08
-2.32e-09
3.58776e-08
-2.59275e-09
-2.76559e-09
4.05105e-08
-2.04184e-09
-8.00965e-09
6.76962e-08
-1.71384e-09
-1.42821e-08
7.92869e-08
-1.59702e-09
-2.09457e-08
8.68699e-08
-1.77771e-09
-2.74696e-08
9.12409e-08
-2.20244e-09
-3.34145e-08
9.30387e-08
-2.83202e-09
-3.83744e-08
9.27974e-08
-3.66212e-09
-4.19925e-08
9.09802e-08
-4.68676e-09
-4.39698e-08
8.80022e-08
-5.87114e-09
-4.41235e-08
8.42484e-08
-7.14591e-09
-4.24158e-08
8.00939e-08
-8.42244e-09
-3.89716e-08
7.59042e-08
-9.6115e-09
-3.40314e-08
7.19749e-08
-1.06426e-08
-2.78846e-08
6.85184e-08
-1.14828e-08
-2.08146e-08
6.56909e-08
-1.21282e-08
-1.31025e-08
6.36021e-08
-1.25834e-08
-5.00682e-09
6.23244e-08
-1.28545e-08
3.21681e-09
6.18968e-08
-1.29469e-08
1.13272e-08
6.23333e-08
-1.28622e-08
1.90743e-08
6.36206e-08
-1.25986e-08
2.6195e-08
6.57204e-08
-1.21501e-08
3.24106e-08
6.85614e-08
-1.15102e-08
3.74378e-08
7.20351e-08
-1.06736e-08
4.09844e-08
7.59868e-08
-9.64336e-09
4.28092e-08
8.02049e-08
-8.45226e-09
4.27779e-08
8.43936e-08
-7.17239e-09
4.09319e-08
8.81833e-08
-5.89497e-09
3.74546e-08
9.11932e-08
-4.70911e-09
3.26422e-08
9.30363e-08
-3.68363e-09
2.68516e-08
9.32968e-08
-2.85282e-09
2.04796e-08
9.15097e-08
-2.22219e-09
1.39692e-08
8.71401e-08
-1.79523e-09
7.8308e-09
7.95473e-08
-1.60962e-09
2.69715e-09
6.79352e-08
-1.71721e-09
4.06081e-08
-2.03316e-09
-3.0426e-09
4.46783e-08
-1.12228e-09
-8.3247e-09
7.36571e-08
-6.80705e-10
-1.45376e-08
8.60118e-08
-5.13223e-10
-2.11082e-08
9.40797e-08
-6.39111e-10
-2.75614e-08
9.87026e-08
-1.00821e-09
-3.34905e-08
1.00549e-07
-1.58103e-09
-3.85112e-08
1.00177e-07
-2.35818e-09
-4.22637e-08
9.80721e-08
-3.34063e-09
-4.44132e-08
9.46578e-08
-4.50561e-09
-4.47077e-08
9.03481e-08
-5.80521e-09
-4.30456e-08
8.55881e-08
-7.15566e-09
-3.9537e-08
8.08157e-08
-8.42095e-09
-3.44538e-08
7.63746e-08
-9.48295e-09
-2.81312e-08
7.25107e-08
-1.03145e-08
-2.08922e-08
6.93824e-08
-1.09315e-08
-1.3016e-08
6.70852e-08
-1.1357e-08
-4.77225e-09
6.56853e-08
-1.16068e-08
3.59882e-09
6.52169e-08
-1.1691e-08
1.18528e-08
6.56923e-08
-1.1612e-08
1.97419e-08
6.70994e-08
-1.13674e-08
2.70038e-08
6.94045e-08
-1.09473e-08
3.33588e-08
7.25417e-08
-1.03354e-08
3.84861e-08
7.64164e-08
-9.50813e-09
4.205e-08
8.0871e-08
-8.44861e-09
4.37794e-08
8.56606e-08
-7.18294e-09
4.35578e-08
9.04424e-08
-5.83027e-09
4.14959e-08
9.47775e-08
-4.52937e-09
3.78373e-08
9.82153e-08
-3.36524e-09
3.29194e-08
1.00339e-07
-2.38416e-09
2.70989e-08
1.00724e-07
-1.60801e-09
2.07574e-08
9.88866e-08
-1.03545e-09
1.42973e-08
9.4266e-08
-6.65233e-10
8.18655e-09
8.61934e-08
-5.35682e-10
2.98961e-09
7.38267e-08
-6.9563e-10
4.47246e-08
-1.12652e-09
-3.26435e-09
4.80529e-08
-1.10158e-10
-8.49497e-09
7.84176e-08
4.69707e-10
-1.45558e-08
9.13661e-08
7.05777e-10
-2.09361e-08
9.98142e-08
6.4589e-10
-2.72117e-08
1.04637e-07
3.42606e-10
-3.30224e-08
1.06521e-07
-1.62997e-10
-3.80181e-08
1.06048e-07
-8.74017e-10
-4.18514e-08
1.03703e-07
-1.79736e-09
-4.41771e-08
9.99178e-08
-2.93464e-09
-4.47056e-08
9.51389e-08
-4.26057e-09
-4.3288e-08
8.98346e-08
-5.66597e-09
-3.99541e-08
8.44496e-08
-6.96808e-09
-3.49269e-08
7.93843e-08
-8.03542e-09
-2.85469e-08
7.49755e-08
-8.84658e-09
-2.11741e-08
7.14419e-08
-9.43015e-09
-1.31294e-08
6.88645e-08
-9.8247e-09
-4.6915e-09
6.73003e-08
-1.00547e-08
3.88113e-09
6.67773e-08
-1.01312e-08
1.23233e-08
6.73053e-08
-1.00573e-08
2.03797e-08
6.88748e-08
-9.82999e-09
2.77649e-08
7.14581e-08
-9.43827e-09
3.41627e-08
7.49987e-08
-8.85759e-09
3.92145e-08
7.94162e-08
-8.04952e-09
4.25789e-08
8.4492e-08
-6.98571e-09
4.40372e-08
8.98893e-08
-5.68741e-09
4.35568e-08
9.52077e-08
-4.28465e-09
4.12915e-08
1.00002e-07
-2.95962e-09
3.75269e-08
1.03803e-07
-1.8229e-09
3.26056e-08
1.06161e-07
-9.00629e-10
2.68763e-08
1.06644e-07
-1.903e-10
2.06807e-08
1.04766e-07
3.15121e-10
1.43811e-08
9.99468e-08
6.19431e-10
8.39527e-09
9.14974e-08
6.82419e-10
3.22548e-09
7.85435e-08
4.5235e-10
4.80693e-08
-1.19306e-10
-3.40669e-09
5.07058e-08
7.53348e-10
-8.57455e-09
8.21039e-08
1.48252e-09
-1.44919e-08
9.54988e-08
1.78355e-09
-2.06939e-08
1.04236e-07
1.78195e-09
-2.6803e-08
1.09208e-07
1.5359e-09
-3.24883e-08
1.1112e-07
1.08671e-09
-3.74365e-08
1.10565e-07
4.32409e-10
-4.13221e-08
1.0803e-07
-4.42702e-10
-4.38132e-08
1.03972e-07
-1.56318e-09
-4.45827e-08
9.88002e-08
-2.89179e-09
-4.34238e-08
9.296e-08
-4.28473e-09
-4.03098e-08
8.69005e-08
-5.56382e-09
-3.54049e-08
8.10947e-08
-6.6172e-09
-2.90089e-08
7.59922e-08
-7.41114e-09
-2.15268e-08
7.19369e-08
-7.97685e-09
-1.3316e-08
6.90049e-08
-8.35229e-09
-4.67637e-09
6.72321e-08
-8.56929e-09
4.09884e-09
6.66409e-08
-8.64067e-09
1.27405e-08
6.72354e-08
-8.5708e-09
2.09593e-08
6.90119e-08
-8.35539e-09
2.84477e-08
7.19483e-08
-7.98166e-09
3.48573e-08
7.60091e-08
-7.41784e-09
3.97818e-08
8.11184e-08
-6.62621e-09
4.29183e-08
8.69322e-08
-5.57567e-09
4.41049e-08
9.30009e-08
-4.29976e-09
4.33711e-08
9.88514e-08
-2.90969e-09
4.09221e-08
1.04034e-07
-1.58314e-09
3.70873e-08
1.08103e-07
-4.64121e-10
3.21921e-08
1.10646e-07
4.09818e-10
2.6565e-08
1.11209e-07
1.0636e-09
2.05151e-08
1.09302e-07
1.51287e-09
1.43678e-08
1.04334e-07
1.75977e-09
8.50343e-09
9.55979e-08
1.76371e-09
3.38084e-09
8.22024e-08
1.46714e-09
5.07037e-08
7.4348e-10
-3.46804e-09
5.27993e-08
1.37568e-09
-8.58004e-09
8.50037e-08
2.21026e-09
-1.43921e-08
9.87501e-08
2.56125e-09
-2.04769e-08
1.07715e-07
2.606e-09
-2.64784e-08
1.12804e-07
2.40511e-09
-3.20957e-08
1.14738e-07
2.00021e-09
-3.70293e-08
1.14111e-07
1.38684e-09
-4.09638e-08
1.11423e-07
5.40465e-10
-4.3555e-08
1.07129e-07
-5.65056e-10
-4.44514e-08
1.01575e-07
-1.87728e-09
-4.3431e-08
9.51774e-08
-3.23776e-09
-4.04576e-08
8.84065e-08
-4.48039e-09
-3.56554e-08
8.18009e-08
-5.50699e-09
-2.93015e-08
7.59187e-08
-6.28208e-09
-2.17631e-08
7.12334e-08
-6.83351e-09
-1.34384e-08
6.78767e-08
-7.19558e-09
-4.66231e-09
6.58565e-08
-7.4021e-09
4.26427e-09
6.51847e-08
-7.46978e-09
1.30424e-08
6.58591e-08
-7.40301e-09
2.13715e-08
6.78822e-08
-7.19745e-09
2.89131e-08
7.12423e-08
-6.83644e-09
3.5276e-08
7.5932e-08
-6.2863e-09
4.00888e-08
8.18195e-08
-5.51289e-09
4.30771e-08
8.84312e-08
-4.48855e-09
4.41184e-08
9.52091e-08
-3.2486e-09