/*--------------------------------*- C++ -*----------------------------------*\
| =========                 |                                                 |
| \\      /  F ield         | OpenFOAM: The Open Source CFD Toolbox           |
|  \\    /   O peration     | Version:  v1906                                 |
|   \\  /    A nd           | Web:      www.OpenFOAM.com                      |
|    \\/     M anipulation  |                                                 |
\*---------------------------------------------------------------------------*/
FoamFile
{
    version     2.0;
    format      ascii;
    class       surfaceScalarField;
    location    "20";
    object      phi;
}
// * * * * * * * * * * * * * * * * * * * * * * * * * * * * * * * * * * * * * //

dimensions      [1 0 -1 0 0 0 0];
oriented        oriented;


internalField   nonuniform List<scalar> 
228225
(
-0.000317746
-2.8257e-05
-3.8284e-06
-0.000277388
-4.03438e-05
-4.31274e-07
-0.000224435
-5.40103e-05
7.2602e-07
-0.000162582
-6.37201e-05
1.62773e-06
-0.000102173
-6.26498e-05
2.01186e-06
-4.50847e-05
-5.96826e-05
2.22815e-06
7.11626e-06
-5.49563e-05
2.23659e-06
5.33614e-05
-4.91127e-05
2.14302e-06
9.22108e-05
-4.16846e-05
1.96293e-06
0.000121696
-3.20133e-05
1.72453e-06
0.000141215
-2.13557e-05
1.50876e-06
0.000151835
-1.14827e-05
1.39633e-06
0.000155471
-3.58176e-06
1.41681e-06
0.000153578
2.49736e-06
1.54836e-06
0.000147753
6.57493e-06
1.75856e-06
0.000139684
8.63295e-06
2.024e-06
0.000130212
9.62562e-06
2.29024e-06
0.000119951
9.93456e-06
2.47766e-06
0.000109354
9.79583e-06
2.57997e-06
9.87291e-05
9.39965e-06
2.59257e-06
8.83001e-05
8.86977e-06
2.51655e-06
7.82517e-05
8.2734e-06
2.36927e-06
6.87608e-05
7.63002e-06
2.15902e-06
6.00034e-05
6.93212e-06
1.90732e-06
5.21516e-05
6.16726e-06
1.64136e-06
4.52991e-05
5.31892e-06
1.4556e-06
3.94647e-05
4.37486e-06
1.40231e-06
3.45942e-05
3.34095e-06
1.52288e-06
3.05487e-05
2.24706e-06
1.86099e-06
2.71273e-05
1.1776e-06
2.39171e-06
2.41533e-05
2.8779e-07
2.93952e-06
2.15063e-05
-5.03921e-07
3.53922e-06
1.88002e-05
-1.01097e-06
4.21814e-06
1.34756e-05
5.08999e-07
5.49715e-06
1.2117e-05
1.85237e-06
-3.32498e-06
-2.42366e-05
-1.22761e-06
1.17526e-05
-5.74717e-05
2.45926e-06
3.02241e-05
-7.56885e-05
4.38601e-06
4.43604e-05
-8.11495e-05
5.02399e-06
5.94911e-05
-8.06723e-05
4.83923e-06
7.45011e-05
-7.72427e-05
4.38768e-06
8.91056e-05
-7.22329e-05
3.92927e-06
0.000102096
-6.53079e-05
3.52414e-06
0.00011056
-5.4193e-05
3.08108e-06
0.000111634
-3.80882e-05
2.51827e-06
0.00010605
-2.13975e-05
1.95018e-06
9.88724e-05
-9.79707e-06
1.57153e-06
9.33269e-05
-2.76095e-06
1.41085e-06
8.97283e-05
2.27078e-06
1.41286e-06
8.76552e-05
5.48259e-06
1.43754e-06
8.64151e-05
7.19969e-06
1.35633e-06
8.58491e-05
8.02649e-06
1.12815e-06
8.57927e-05
8.38699e-06
7.38126e-07
8.61219e-05
8.50418e-06
1.57125e-07
8.65192e-05
8.49314e-06
-3.00642e-07
8.68704e-05
8.41818e-06
-7.4397e-07
8.705e-05
8.31678e-06
-1.10701e-06
8.69318e-05
8.20777e-06
-1.36852e-06
8.63905e-05
8.10068e-06
-1.53514e-06
8.52742e-05
8.01237e-06
-1.61726e-06
8.33771e-05
7.97119e-06
-1.62026e-06
8.04525e-05
8.00639e-06
-1.54292e-06
7.62301e-05
8.14305e-06
-1.3788e-06
7.04383e-05
8.40064e-06
-1.1137e-06
6.28538e-05
8.79545e-06
-7.2098e-07
5.33165e-05
9.35105e-06
-1.48357e-07
4.14494e-05
1.00829e-05
7.44658e-07
2.67462e-05
1.10431e-05
2.29013e-06
9.273e-06
1.36865e-05
4.29982e-06
1.86082e-05
3.20487e-06
3.57163e-06
-2.65983e-05
-3.17209e-07
1.26074e-05
-6.62091e-05
2.12192e-06
1.64595e-05
-7.89328e-05
2.49121e-06
1.80516e-05
-8.09447e-05
1.86664e-06
1.7858e-05
-7.72293e-05
9.6602e-07
1.63757e-05
-7.16042e-05
2.15327e-07
1.38996e-05
-6.55589e-05
-6.56948e-08
1.00351e-05
-5.74937e-05
-1.01308e-07
3.8607e-06
-4.44681e-05
-1.79581e-07
-4.92116e-06
-2.656e-05
-5.60393e-07
-1.46177e-05
-9.85442e-06
-8.26251e-07
-2.20994e-05
-9.98965e-07
-6.24077e-07
-2.51161e-05
1.02259e-06
-2.12641e-07
-2.46919e-05
2.13867e-06
1.50052e-07
-2.22665e-05
3.07457e-06
3.14249e-07
-1.8813e-05
3.7009e-06
2.99224e-07
-1.47119e-05
4.11463e-06
5.87299e-08
-1.03356e-05
4.50591e-06
-2.75634e-07
-5.9231e-06
4.92903e-06
-6.71609e-07
-1.62294e-06
5.37306e-06
-1.07763e-06
2.45646e-06
5.8225e-06
-1.44022e-06
6.25263e-06
6.26935e-06
-1.75393e-06
9.72694e-06
6.7112e-06
-2.02087e-06
1.28432e-05
7.15344e-06
-2.24104e-06
1.55655e-05
7.61058e-06
-2.41422e-06
1.78602e-05
8.10504e-06
-2.53802e-06
1.96901e-05
8.66326e-06
-2.60686e-06
2.10022e-05
9.31661e-06
-2.61101e-06
2.17079e-05
1.01043e-05
-2.53409e-06
2.1663e-05
1.10719e-05
-2.34788e-06
2.06317e-05
1.22911e-05
-2.00426e-06
1.81466e-05
1.39347e-05
-1.41419e-06
1.32454e-05
1.64301e-05
-4.25298e-07
5.71206e-06
2.02758e-05
1.19217e-06
2.26882e-05
1.98229e-06
2.81186e-05
-5.51171e-05
4.40627e-07
3.88399e-05
-7.87324e-05
2.01178e-06
4.00441e-05
-8.21698e-05
2.20258e-06
3.29704e-05
-7.50413e-05
1.60315e-06
1.94111e-05
-6.3722e-05
7.34495e-07
6.9087e-07
-5.22981e-05
1.18459e-07
-2.20519e-05
-4.15756e-05
-1.36226e-07
-4.48913e-05
-3.21874e-05
6.18531e-08
-6.15885e-05
-2.4381e-05
1.73306e-07
-6.89538e-05
-1.665e-05
-3.00601e-08
-6.83614e-05
-9.41376e-06
-3.45687e-07
-6.37983e-05
-5.35369e-06
-4.59347e-07
-5.89071e-05
-3.75397e-06
-4.61593e-07
-5.4042e-05
-2.61239e-06
-4.51882e-07
-4.91675e-05
-1.66605e-06
-4.5327e-07
-4.43897e-05
-8.56535e-07
-4.99536e-07
-3.98169e-05
-8.02968e-08
-6.11655e-07
-3.54253e-05
7.10977e-07
-7.89387e-07
-3.11036e-05
1.46489e-06
-1.01652e-06
-2.68275e-05
2.23112e-06
-1.27042e-06
-2.26145e-05
3.01633e-06
-1.5311e-06
-1.84948e-05
3.81832e-06
-1.78727e-06
-1.45039e-05
4.63778e-06
-2.03499e-06
-1.06756e-05
5.47884e-06
-2.27286e-06
-7.04206e-06
6.35267e-06
-2.49834e-06
-3.63555e-06
7.27734e-06
-2.70599e-06
-4.90155e-07
8.27608e-06
-2.88979e-06
2.35126e-06
9.37936e-06
-3.04096e-06
4.81944e-06
1.0634e-05
-3.13995e-06
6.79266e-06
1.21082e-05
-3.1546e-06
8.05385e-06
1.39192e-05
-3.03349e-06
8.20821e-06
1.6326e-05
-2.67784e-06
6.65014e-06
1.98035e-05
-1.8959e-06
3.22875e-06
2.42448e-05
-4.92645e-07
2.50027e-05
1.10497e-06
1.01246e-05
-6.73923e-05
2.27861e-06
3.99607e-06
-7.59599e-05
3.62587e-06
-1.24827e-05
-6.8861e-05
3.76311e-06
-3.2234e-05
-5.72495e-05
2.88025e-06
-5.25421e-05
-4.50983e-05
1.93658e-06
-7.29305e-05
-3.3901e-05
1.46078e-06
-9.07771e-05
-2.41462e-05
1.33449e-06
-0.00010313
-1.73255e-05
1.31446e-06
-0.000110487
-1.50223e-05
1.34608e-06
-0.000112425
-1.47185e-05
1.2663e-06
-0.000108422
-1.36164e-05
9.40229e-07
-0.000101648
-1.20352e-05
4.98419e-07
-9.45475e-05
-1.04324e-05
2.31011e-08
-8.75475e-05
-9.00523e-06
-3.07563e-07
-8.06892e-05
-7.70948e-06
-6.12628e-07
-7.40559e-05
-6.47918e-06
-8.7478e-07
-6.76649e-05
-5.28182e-06
-1.10214e-06
-6.1493e-05
-4.1066e-06
-1.30449e-06
-5.55745e-05
-2.94341e-06
-1.49027e-06
-4.99026e-05
-1.77984e-06
-1.66577e-06
-4.44895e-05
-5.88573e-07
-1.83435e-06
-3.91973e-05
4.80252e-07
-1.99827e-06
-3.40429e-05
1.58258e-06
-2.15892e-06
-2.90563e-05
2.73566e-06
-2.31682e-06
-2.42556e-05
3.93778e-06
-2.47119e-06
-1.96637e-05
5.20996e-06
-2.62008e-06
-1.53171e-05
6.58593e-06
-2.76004e-06
-1.12717e-05
8.11138e-06
-2.88547e-06
-7.60624e-06
9.84756e-06
-2.98699e-06
-4.43281e-06
1.18836e-05
-3.04949e-06
-1.92591e-06
1.43748e-05
-3.04301e-06
-3.34982e-07
1.76036e-05
-2.90213e-06
1.54451e-07
2.1871e-05
-2.49012e-06
-8.8844e-09
2.61765e-05
-1.57798e-06
2.52461e-05
-3.67051e-08
-2.09175e-05
-5.08651e-05
4.37512e-06
-4.64316e-05
-5.62237e-05
6.20152e-06
-6.76856e-05
-5.17429e-05
5.59925e-06
-8.11618e-05
-4.6499e-05
4.354e-06
-8.84798e-05
-4.07254e-05
3.76164e-06
-9.14126e-05
-3.47099e-05
3.52706e-06
-9.02696e-05
-2.9512e-05
3.48385e-06
-8.61817e-05
-2.52519e-05
3.46987e-06
-8.2361e-05
-2.21e-05
3.41838e-06
-8.02381e-05
-1.98568e-05
3.29472e-06
-7.85993e-05
-1.80222e-05
3.02097e-06
-7.6572e-05
-1.64207e-05
2.57502e-06
-7.38642e-05
-1.49788e-05
2.01471e-06
-7.05069e-05
-1.36185e-05
1.39823e-06
-6.65948e-05
-1.22755e-05
7.67476e-07
-6.21983e-05
-1.09111e-05
1.24318e-07
-5.7547e-05
-9.51165e-06
-3.53369e-07
-5.27259e-05
-8.08297e-06
-7.95036e-07
-4.78142e-05
-6.63734e-06
-1.18441e-06
-4.28712e-05
-5.18693e-06
-1.51761e-06
-3.79139e-05
-3.74124e-06
-1.80006e-06
-3.30999e-05
-2.30118e-06
-2.04013e-06
-2.84429e-05
-8.48188e-07
-2.24478e-06
-2.39089e-05
5.91523e-07
-2.41839e-06
-1.95233e-05
2.07806e-06
-2.5633e-06
-1.53211e-05
3.6421e-06
-2.67961e-06
-1.13443e-05
5.32275e-06
-2.76577e-06
-7.64371e-06
7.17189e-06
-2.81889e-06
-4.29016e-06
9.26636e-06
-2.83462e-06
-1.40813e-06
1.17411e-05
-2.80565e-06
7.52415e-07
1.48588e-05
-2.7165e-06
1.73939e-06
1.90638e-05
-2.53204e-06
1.23969e-06
2.44622e-05
-2.1835e-06
3.97882e-07
2.85531e-05
-1.54436e-06
2.60819e-05
-2.69843e-07
-2.5871e-05
-3.12306e-05
5.97724e-06
-4.3449e-05
-4.59639e-05
7.74101e-06
-5.47806e-05
-4.75886e-05
7.61102e-06
-6.17128e-05
-4.62708e-05
7.09464e-06
-6.47962e-05
-4.33237e-05
6.24226e-06
-6.50198e-05
-3.94842e-05
5.51334e-06
-6.37801e-05
-3.56686e-05
5.15674e-06
-6.17957e-05
-3.21909e-05
4.9958e-06
-5.96582e-05
-2.91865e-05
4.90548e-06
-5.77195e-05
-2.66938e-05
4.84306e-06
-5.59581e-05
-2.46089e-05
4.77489e-06
-5.42486e-05
-2.28099e-05
4.63198e-06
-5.24161e-05
-2.12063e-05
4.34953e-06
-5.02909e-05
-1.97106e-05
3.92455e-06
-4.77657e-05
-1.82209e-05
3.38196e-06
-4.48246e-05
-1.66351e-05
2.75041e-06
-4.15404e-05
-1.48806e-05
2.05892e-06
-3.8045e-05
-1.29332e-05
1.33584e-06
-3.44664e-05
-1.08267e-05
5.97769e-07
-3.09128e-05
-8.64257e-06
-1.07173e-07
-2.75211e-05
-6.4743e-06
-6.66449e-07
-2.42333e-05
-4.41555e-06
-1.18343e-06
-2.09713e-05
-2.4975e-06
-1.62846e-06
-1.77882e-05
-6.14392e-07
-2.00086e-06
-1.46021e-05
1.16501e-06
-2.30519e-06
-1.14733e-05
3.01955e-06
-2.54601e-06
-8.46707e-06
4.99499e-06
-2.72374e-06
-5.67546e-06
7.16779e-06
-2.83363e-06
-3.22084e-06
9.64051e-06
-2.86617e-06
-1.23195e-06
1.25504e-05
-2.80758e-06
2.21336e-07
1.61011e-05
-2.63848e-06
1.18597e-06
2.06203e-05
-2.33167e-06
1.5379e-06
2.63505e-05
-1.88399e-06
1.06767e-06
3.07551e-05
-1.38099e-06
2.76238e-05
-2.82703e-07
-1.97283e-05
-1.70811e-05
6.41232e-06
-3.77596e-05
-3.51465e-05
7.98917e-06
-5.14066e-05
-4.14167e-05
7.73856e-06
-6.10081e-05
-4.40112e-05
7.44362e-06
-6.66857e-05
-4.48035e-05
7.17416e-06
-6.87307e-05
-4.41849e-05
6.81426e-06
-6.79284e-05
-4.27231e-05
6.40341e-06
-6.51131e-05
-4.09654e-05
6.06597e-06
-6.09802e-05
-3.91477e-05
5.83091e-06
-5.60363e-05
-3.73995e-05
5.67047e-06
-5.06005e-05
-3.57782e-05
5.56653e-06
-4.48551e-05
-3.42972e-05
5.51249e-06
-3.88848e-05
-3.29362e-05
5.47784e-06
-3.2689e-05
-3.16445e-05
5.41456e-06
-2.62007e-05
-3.03254e-05
5.25989e-06
-1.93756e-05
-2.88257e-05
4.98435e-06
-1.2295e-05
-2.69453e-05
4.5866e-06
-5.21528e-06
-2.44862e-05
4.07097e-06
1.45368e-06
-2.13246e-05
3.43981e-06
7.22685e-06
-1.74654e-05
2.70021e-06
1.15252e-05
-1.29279e-05
1.87786e-06
1.36527e-05
-7.72826e-06
1.00603e-06
1.34772e-05
-2.49375e-06
8.1892e-08
1.19655e-05
1.46829e-06
-6.16799e-07
1.05166e-05
3.86397e-06
-1.2927e-06
9.73075e-06
5.62144e-06
-1.87066e-06
9.51129e-06
7.47578e-06
-2.3325e-06
9.67225e-06
9.59179e-06
-2.67719e-06
1.00768e-05
1.20231e-05
-2.90771e-06
1.04838e-05
1.49978e-05
-3.01275e-06
1.03398e-05
1.89919e-05
-2.95001e-06
8.73667e-06
2.46215e-05
-2.64319e-06
5.62769e-06
3.12415e-05
-2.03176e-06
2.5201e-06
3.49952e-05
-1.26338e-06
3.05246e-05
-2.34655e-07
-8.36709e-06
-1.3816e-05
5.3602e-06
-1.74651e-05
-3.12456e-05
6.08865e-06
-2.44862e-05
-3.82608e-05
5.50017e-06
-3.01762e-05
-4.13639e-05
5.13877e-06
-3.48004e-05
-4.29265e-05
5.02142e-06
-3.81432e-05
-4.36162e-05
5.05486e-06
-4.01273e-05
-4.36592e-05
5.14323e-06
-4.09149e-05
-4.32309e-05
5.21323e-06
-4.06779e-05
-4.25311e-05
5.23864e-06
-3.95356e-05
-4.17673e-05
5.23576e-06
-3.75477e-05
-4.10729e-05
5.22141e-06
-3.47247e-05
-4.05234e-05
5.20766e-06
-3.10301e-05
-4.01602e-05
5.20748e-06
-2.6386e-05
-3.99867e-05
5.23146e-06
-2.0667e-05
-3.99594e-05
5.28117e-06
-1.36911e-05
-3.99616e-05
5.32748e-06
-5.25773e-06
-3.97688e-05
5.31263e-06
4.72589e-06
-3.90543e-05
5.19539e-06
1.60961e-05
-3.74455e-05
4.96086e-06
2.83704e-05
-3.46193e-05
4.59574e-06
4.05797e-05
-3.00936e-05
4.09794e-06
5.07828e-05
-2.27572e-05
3.48423e-06
5.70721e-05
-1.28952e-05
2.77127e-06
5.83199e-05
-2.58103e-06
1.96113e-06
5.28951e-05
7.93717e-06
1.05831e-06
4.4293e-05
1.41176e-05
5.64348e-08
3.57131e-05
1.67761e-05
-7.60395e-07
2.85226e-05
1.82095e-05
-1.53198e-06
2.29489e-05
1.95817e-05
-2.15139e-06
1.87749e-05
2.15351e-05
-2.59481e-06
1.55996e-05
2.46662e-05
-2.83108e-06
1.26348e-05
2.98783e-05
-2.76836e-06
8.52048e-06
3.70723e-05
-2.29406e-06
3.95917e-06
4.05746e-05
-1.44193e-06
3.4805e-05
-3.39266e-07
8.00891e-06
-2.34332e-05
2.21394e-06
1.72856e-05
-4.10224e-05
1.79397e-06
2.61376e-05
-4.67838e-05
1.22835e-06
3.37775e-05
-4.82504e-05
9.26039e-07
3.98926e-05
-4.80528e-05
7.87789e-07
4.44232e-05
-4.69979e-05
7.45264e-07
4.74643e-05
-4.54341e-05
7.7476e-07
4.91861e-05
-4.36025e-05
8.65365e-07
4.97555e-05
-4.16748e-05
9.98437e-07
4.93051e-05
-3.97953e-05
1.14828e-06
4.79911e-05
-3.81158e-05
1.29524e-06
4.60077e-05
-3.6767e-05
1.43173e-06
4.35557e-05
-3.58226e-05
1.56271e-06
4.08371e-05
-3.53045e-05
1.69593e-06
3.80933e-05
-3.52159e-05
1.83354e-06
3.56873e-05
-3.55616e-05
1.97215e-06
3.41618e-05
-3.62939e-05
2.11027e-06
3.41959e-05
-3.72238e-05
2.2394e-06
3.65464e-05
-3.81039e-05
2.34468e-06
4.187e-05
-3.86193e-05
2.40217e-06
5.0531e-05
-3.81458e-05
2.37943e-06
6.17077e-05
-3.47938e-05
2.29659e-06
7.25238e-05
-2.63773e-05
2.16931e-06
7.91633e-05
-1.33133e-05
1.89494e-06
7.81955e-05
4.74336e-06
1.55201e-06
6.94341e-05
2.01393e-05
1.1087e-06
5.84966e-05
2.64436e-05
5.15634e-07
4.82534e-05
2.82992e-05
-1.62996e-07
3.9087e-05
2.94555e-05
-8.56039e-07
3.09179e-05
3.1072e-05
-1.50585e-06
2.3712e-05
3.3707e-05
-2.03133e-06
1.76568e-05
3.79869e-05
-2.28148e-06
1.22759e-05
4.42468e-05
-1.9576e-06
6.10483e-06
4.77021e-05
-1.03077e-06
4.10392e-05
-4.28117e-08
1.10688e-05
-3.53287e-05
1.31752e-06
1.88311e-05
-4.95314e-05
1.17752e-06
2.35417e-05
-5.20844e-05
7.32441e-07
2.70993e-05
-5.22711e-05
3.56437e-07
3.04777e-05
-5.1823e-05
7.62274e-08
3.40685e-05
-5.09785e-05
-1.08163e-07
3.80059e-05
-4.97255e-05
-3.0146e-07
4.22356e-05
-4.80921e-05
-5.22142e-07
4.66442e-05
-4.61973e-05
-7.58037e-07
5.1142e-05
-4.42163e-05
-9.913e-07
5.56288e-05
-4.22995e-05
-1.19484e-06
5.9933e-05
-4.05033e-05
-1.35372e-06
6.37752e-05
-3.87864e-05
-1.46582e-06
6.6792e-05
-3.70765e-05
-1.53937e-06
6.86064e-05
-3.53456e-05
-1.58229e-06
6.89073e-05
-3.36464e-05
-1.598e-06
6.75453e-05
-3.20867e-05
-1.60895e-06
6.47124e-05
-3.07973e-05
-1.66634e-06
6.09768e-05
-2.98942e-05
-1.79387e-06
5.66811e-05
-2.89621e-05
-1.9371e-06
5.13272e-05
-2.65669e-05
-2.01304e-06
4.37485e-05
-2.09858e-05
-1.91762e-06
3.30495e-05
-1.15019e-05
-1.55955e-06
2.212e-05
-7.83484e-07
-1.14903e-06
1.51839e-05
1.16978e-05
-8.17192e-07
1.25399e-05
2.26609e-05
-6.57101e-07
1.09329e-05
2.83831e-05
-7.88398e-07
9.33511e-06
3.075e-05
-1.17421e-06
7.79281e-06
3.24169e-05
-1.68062e-06
6.51466e-06
3.43705e-05
-2.25119e-06
5.3314e-06
3.74787e-05
-2.84098e-06
3.44971e-06
4.28076e-05
-3.30014e-06
1.63763e-06
4.88943e-05
-3.21031e-06
8.68273e-07
5.04899e-05
-2.23513e-06
4.27808e-05
-8.43743e-07
-2.78154e-06
-3.38943e-05
1.79751e-06
-1.13375e-05
-4.22978e-05
1.73781e-06
-2.0987e-05
-4.35298e-05
1.34765e-06
-3.00429e-05
-4.42256e-05
1.10035e-06
-3.80262e-05
-4.49061e-05
9.60448e-07
-4.47298e-05
-4.54896e-05
8.81971e-07
-4.9955e-05
-4.59257e-05
8.3272e-07
-5.34692e-05
-4.62686e-05
7.88774e-07
-5.50556e-05
-4.66104e-05
7.3844e-07
-5.46189e-05
-4.69672e-05
6.85853e-07
-5.22739e-05
-4.71996e-05
6.24094e-07
-4.83974e-05
-4.70342e-05
5.44687e-07
-4.35781e-05
-4.61965e-05
4.38694e-07
-3.8494e-05
-4.45457e-05
2.95797e-07
-3.37881e-05
-4.21286e-05
1.07635e-07
-2.99179e-05
-3.91524e-05
-2.15266e-07
-2.73607e-05
-3.58072e-05
-6.34093e-07
-2.67034e-05
-3.21553e-05
-1.13542e-06
-2.84415e-05
-2.83256e-05
-1.66649e-06
-3.26001e-05
-2.41775e-05
-2.10747e-06
-3.91263e-05
-1.83378e-05
-2.32203e-06
-4.79842e-05
-9.42028e-06
-2.23553e-06
-5.82324e-05
1.68276e-06
-1.90858e-06
-6.58569e-05
8.91887e-06
-1.46446e-06
-6.6354e-05
1.32356e-05
-1.17082e-06
-5.95505e-05
1.66948e-05
-1.15874e-06
-4.9976e-05
1.98732e-05
-1.34843e-06
-4.0593e-05
2.2766e-05
-1.68252e-06
-3.23632e-05
2.59801e-05
-2.1037e-06
-2.59225e-05
3.01498e-05
-2.58009e-06
-2.13948e-05
3.55805e-05
-3.08135e-06
-1.77866e-05
4.2093e-05
-3.48425e-06
-1.3171e-05
4.72414e-05
-3.53578e-06
-6.89454e-06
4.68808e-05
-3.07718e-06
3.74108e-05
-1.71048e-06
-1.19751e-05
-2.42596e-05
2.23999e-06
-2.09545e-05
-3.49955e-05
1.58013e-06
-2.72125e-05
-3.81764e-05
9.14042e-07
-3.24774e-05
-3.94952e-05
6.07923e-07
-3.77752e-05
-4.00643e-05
5.59106e-07
-4.36518e-05
-4.01802e-05
6.75372e-07
-5.03326e-05
-4.00626e-05
8.89356e-07
-5.78461e-05
-3.99116e-05
1.15367e-06
-6.61145e-05
-3.98454e-05
1.43222e-06
-7.49908e-05
-3.98538e-05
1.69855e-06
-8.42167e-05
-3.98357e-05
1.93471e-06
-9.33106e-05
-3.97448e-05
2.13255e-06
-0.000101501
-3.96783e-05
2.28726e-06
-0.000107827
-3.97839e-05
2.38784e-06
-0.000111411
-4.0124e-05
2.43393e-06
-0.000111964
-4.03435e-05
2.45686e-06
-0.000110046
-3.96642e-05
2.48974e-06
-0.00010685
-3.74117e-05
2.51824e-06
-0.000104042
-3.32595e-05
2.49244e-06
-0.000102165
-2.8241e-05
2.40203e-06
-9.9658e-05
-2.30645e-05
2.24171e-06
-9.42693e-05
-1.69376e-05
2.05136e-06
-8.47439e-05
-9.77054e-06
1.91644e-06
-7.53403e-05
-2.31154e-06
1.8252e-06
-6.76859e-05
3.78581e-06
1.66251e-06
-6.10356e-05
8.54374e-06
1.29224e-06
-5.53151e-05
1.32255e-05
6.80646e-07
-5.08596e-05
1.81252e-05
-1.05657e-07
-4.75193e-05
2.31816e-05
-8.61003e-07
-4.44238e-05
2.83051e-05
-1.58302e-06
-4.03888e-05
3.33499e-05
-2.18437e-06
-3.3674e-05
3.75565e-05
-2.62838e-06
-2.34605e-05
3.9396e-05
-2.8314e-06
-1.16568e-05
3.73218e-05
-2.5943e-06
2.70455e-05
-1.38899e-06
5.05077e-07
-2.53972e-05
6.39937e-07
6.83022e-06
-4.03016e-05
-7.09604e-07
1.46201e-05
-4.40535e-05
-1.47715e-06
2.20985e-05
-4.47081e-05
-1.78375e-06
2.85388e-05
-4.41687e-05
-1.82138e-06
3.3615e-05
-4.29687e-05
-1.72547e-06
3.71667e-05
-4.14179e-05
-1.55673e-06
3.90668e-05
-3.97235e-05
-1.33634e-06
3.91733e-05
-3.79903e-05
-1.06908e-06
3.73746e-05
-3.62587e-05
-7.53397e-07
3.36914e-05
-3.45908e-05
-3.86728e-07
2.82893e-05
-3.31593e-05
7.61946e-08
2.14037e-05
-3.21773e-05
6.70616e-07
1.32606e-05
-3.1727e-05
1.34969e-06
3.89964e-06
-3.17209e-05
2.16389e-06
-6.7314e-06
-3.1652e-05
3.06821e-06
-1.86558e-05
-3.06366e-05
3.92575e-06
-3.14309e-05
-2.837e-05
4.62564e-06
-4.3582e-05
-2.54361e-05
5.05091e-06
-5.36861e-05
-2.28283e-05
5.28195e-06
-6.05326e-05
-2.1223e-05
5.50832e-06
-6.24515e-05
-2.03227e-05
5.67797e-06
-5.86327e-05
-1.90974e-05
5.72887e-06
-5.05833e-05
-1.58662e-05
5.63626e-06
-4.33506e-05
-8.71529e-06
5.3955e-06
-3.84551e-05
-1.32987e-06
5.14972e-06
-3.43713e-05
4.64378e-06
4.73857e-06
-3.10382e-05
1.10891e-05
4.02275e-06
-2.78725e-05
1.73535e-05
3.02082e-06
-2.40822e-05
2.30134e-05
1.82063e-06
-2.02943e-05
2.9329e-05
4.84174e-07
-1.57769e-05
3.39686e-05
-6.69878e-07
-9.6115e-06
3.50703e-05
-1.49039e-06
-3.6271e-06
3.3433e-05
-1.65605e-06
2.4414e-05
-5.51771e-07
5.29337e-06
-3.09715e-05
6.05224e-07
8.91414e-06
-4.32092e-05
-2.2486e-07
1.11925e-05
-4.47797e-05
-1.15275e-06
1.31053e-05
-4.44088e-05
-1.90533e-06
1.48808e-05
-4.32889e-05
-2.41745e-06
1.65854e-05
-4.17618e-05
-2.73541e-06
1.83269e-05
-4.01447e-05
-2.90469e-06
2.02555e-05
-3.86574e-05
-2.95509e-06
2.25172e-05
-3.73711e-05
-2.91105e-06
2.52274e-05
-3.62661e-05
-2.7948e-06
2.84113e-05
-3.52882e-05
-2.62647e-06
3.18708e-05
-3.43636e-05
-2.42499e-06
3.51202e-05
-3.33989e-05
-2.20915e-06
3.74915e-05
-3.22773e-05
-1.9988e-06
3.8262e-05
-3.08412e-05
-1.81269e-06
3.70489e-05
-2.89278e-05
-1.65142e-06
3.42516e-05
-2.64912e-05
-1.45817e-06
3.07643e-05
-2.38201e-05
-1.11801e-06
2.75109e-05
-2.15596e-05
-5.74881e-07
2.43921e-05
-1.96545e-05
1.43981e-07
2.00878e-05
-1.77e-05
1.16927e-06
1.29982e-05
-1.52413e-05
2.54505e-06
1.76961e-06
-1.16538e-05
4.31877e-06
-1.13416e-05
-8.44499e-06
6.1014e-06
-2.2378e-05
-4.4344e-06
6.9643e-06
-2.97462e-05
-5.61605e-07
6.8127e-06
-3.30728e-05
1.63081e-06
6.76536e-06
-2.97834e-05
1.82145e-06
6.68276e-06
-1.77572e-05
-1.32422e-07
6.41799e-06
-6.00969e-07
1.13218e-06
5.82619e-06
1.43329e-05
1.09429e-05
4.78369e-06
1.46943e-05
3.15514e-05
3.16743e-06
1.1195e-05
3.7699e-05
1.51729e-06
6.82001e-06
3.80426e-05
1.21283e-07
3.07689e-05
7.18353e-07
-3.65163e-07
-3.08393e-05
6.89202e-07
-3.04982e-06
-4.01907e-05
-4.37368e-08
-5.78593e-06
-4.12259e-05
-6.9815e-07
-8.15498e-06
-4.06972e-05
-1.30059e-06
-1.03116e-05
-3.9308e-05
-1.83371e-06
-1.24511e-05
-3.73874e-05
-2.29818e-06
-1.46773e-05
-3.53808e-05
-2.66019e-06
-1.69942e-05
-3.36339e-05
-2.88732e-06
-1.93705e-05
-3.22544e-05
-2.97253e-06
-2.17783e-05
-3.12048e-05
-2.92876e-06
-2.4188e-05
-3.04118e-05
-2.777e-06
-2.65386e-05
-2.98105e-05
-2.53977e-06
-2.87049e-05
-2.93479e-05
-2.23926e-06
-3.04714e-05
-2.89741e-05
-1.89712e-06
-3.14996e-05
-2.8634e-05
-1.53455e-06
-3.13232e-05
-2.82776e-05
-1.17173e-06
-2.94423e-05
-2.78796e-05
-8.27022e-07
-2.56634e-05
-2.73965e-05
-5.21993e-07
-2.05747e-05
-2.666e-05
-2.78192e-07
-1.49542e-05
-2.54123e-05
-1.09553e-07
-9.57502e-06
-2.32399e-05
-3.04183e-08
-5.58637e-06
-1.93494e-05
-5.17446e-09
-4.19623e-06
-1.33933e-05
2.3656e-07
-5.46134e-06
-8.28037e-06
9.46859e-07
-6.33649e-06
-5.59366e-06
1.83496e-06
-6.20672e-06
-3.67565e-06
2.73718e-06
-6.8864e-06
-1.67316e-06
3.69717e-06
-8.57654e-06
-1.34854e-06
4.69014e-06
-1.00903e-05
-4.09144e-06
5.40142e-06
-9.39876e-06
-5.10811e-06
5.72815e-06
2.38344e-06
-5.6915e-06
5.66728e-06
1.11878e-05
1.91358e-05
4.70362e-06
7.47351e-06
3.88203e-05
3.25198e-06
3.29771e-06
4.07644e-05
1.86345e-06
3.27385e-05
1.62178e-06
-3.05133e-07
-3.14414e-05
1.08536e-06
-1.16166e-06
-4.05062e-05
1.26978e-06
-1.42948e-06
-4.16321e-05
7.54608e-07
-9.45321e-07
-4.11404e-05
3.73429e-08
2.5504e-08
-3.96785e-05
-5.12117e-07
1.32032e-06
-3.74849e-05
-1.09104e-06
2.70697e-06
-3.50367e-05
-1.61077e-06
4.00274e-06
-3.27943e-05
-2.01328e-06
5.08681e-06
-3.09509e-05
-2.27388e-06
5.86637e-06
-2.94915e-05
-2.39446e-06
6.25418e-06
-2.83328e-05
-2.38827e-06
6.16585e-06
-2.73944e-05
-2.27242e-06
5.52857e-06
-2.66153e-05
-2.06645e-06
4.29755e-06
-2.59511e-05
-1.79172e-06
2.47615e-06
-2.53727e-05
-1.46964e-06
1.24981e-07
-2.48659e-05
-1.11963e-06
-2.65366e-06
-2.44298e-05
-7.58065e-07
-5.69945e-06
-2.40682e-05
-3.9644e-07
-8.67935e-06
-2.37621e-05
-5.66588e-08
-1.11835e-05
-2.34333e-05
3.68588e-07
-1.24286e-05
-2.29288e-05
7.70875e-07
-1.10356e-05
-2.20524e-05
1.15283e-06
-5.45277e-06
-2.061e-05
1.49871e-06
2.88869e-06
-1.85152e-05
1.80378e-06
1.13793e-05
-1.6279e-05
2.13936e-06
1.90255e-05
-1.39779e-05
2.57714e-06
2.49574e-05
-1.10482e-05
3.188e-06
2.6676e-05
-7.425e-06
3.90602e-06
2.18464e-05
-4.14356e-06
4.50334e-06
1.39076e-05
-2.2102e-06
4.87122e-06
9.62927e-06
-6.20102e-06
4.87818e-06
2.06514e-05
3.12404e-06
5.20669e-06
2.04236e-05
3.50233e-05
4.67422e-06
1.0241e-05
4.82224e-05
3.37177e-06
4.07996e-05
2.43646e-06
-8.08716e-07
-3.21384e-05
1.47178e-06
6.83953e-08
-4.2777e-05
1.3038e-06
2.02471e-06
-4.41545e-05
4.41802e-07
4.6929e-06
-4.3666e-05
-2.75514e-07
7.84971e-06
-4.20466e-05
-8.99606e-07
1.12911e-05
-3.94556e-05
-1.52281e-06
1.47754e-05
-3.63745e-05
-2.11974e-06
1.81831e-05
-3.34638e-05
-2.6394e-06
2.15234e-05
-3.10996e-05
-3.04175e-06
2.48298e-05
-2.93048e-05
-3.31226e-06
2.80965e-05
-2.79486e-05
-3.45285e-06
3.12765e-05
-2.68963e-05
-3.47191e-06
3.43056e-05
-2.60536e-05
-3.38195e-06
3.71224e-05
-2.53612e-05
-3.19948e-06
3.96762e-05
-2.47793e-05
-2.94475e-06
4.19198e-05
-2.42743e-05
-2.64065e-06
4.37929e-05
-2.381e-05
-2.31042e-06
4.52067e-05
-2.33415e-05
-1.97439e-06
4.60518e-05
-2.28154e-05
-1.64806e-06
4.62425e-05
-2.21681e-05
-1.34224e-06
4.57764e-05
-2.13225e-05
-1.0636e-06
4.47956e-05
-2.02184e-05
-8.12606e-07
4.37135e-05
-1.89329e-05
-5.71969e-07
4.31969e-05
-1.76475e-05
-3.18251e-07
4.33855e-05
-1.634e-05
-5.86919e-08
4.40568e-05
-1.4819e-05
2.97493e-07
4.53219e-05
-1.28197e-05
7.16859e-07
4.70458e-05
-1.00987e-05
1.26453e-06
4.83125e-05
-6.93325e-06
1.94675e-06
4.81083e-05
-4.04951e-06
2.55476e-06
4.04597e-05
-7.73771e-07
2.9315e-06
3.14891e-05
8.54796e-06
3.46176e-06
2.36884e-05
3.75398e-05
4.21052e-06
1.09846e-05
5.59229e-05
4.03792e-06
4.89867e-05
2.67442e-06
-1.19171e-06
-3.30562e-05
1.76051e-06
-9.30441e-07
-4.60204e-05
2.48183e-06
1.49663e-07
-4.80191e-05
2.28076e-06
1.83463e-06
-4.77108e-05
1.86056e-06
4.02577e-06
-4.60869e-05
1.35985e-06
6.51618e-06
-4.31656e-05
7.67785e-07
8.96151e-06
-3.92643e-05
6.96084e-08
1.0922e-05
-3.51805e-05
-5.21211e-07
1.23937e-05
-3.16524e-05
-1.11061e-06
1.35364e-05
-2.8962e-05
-1.6148e-06
1.45476e-05
-2.70308e-05
-2.01621e-06
1.55627e-05
-2.56554e-05
-2.31418e-06
1.66349e-05
-2.46525e-05
-2.51088e-06
1.77569e-05
-2.38986e-05
-2.60724e-06
1.88888e-05
-2.33184e-05
-2.60424e-06
1.99836e-05
-2.28655e-05
-2.50613e-06
2.10077e-05
-2.25067e-05
-2.32281e-06
2.19581e-05
-2.22119e-05
-2.06962e-06
2.2871e-05
-2.1949e-05
-1.76509e-06
2.38274e-05
-2.16813e-05
-1.42937e-06
2.49623e-05
-2.13681e-05
-1.08362e-06
2.64474e-05
-2.09708e-05
-7.48427e-07
2.83617e-05
-2.04633e-05
-4.4089e-07
3.06135e-05
-1.98532e-05
-1.69602e-07
3.31453e-05
-1.91543e-05
6.94228e-08
3.59606e-05
-1.82694e-05
2.88216e-07
3.89339e-05
-1.69035e-05
5.09534e-07
4.18497e-05
-1.46967e-05
7.99209e-07
4.43105e-05
-1.15771e-05
1.25338e-06
4.44417e-05
-6.56e-06
1.76168e-06
3.70216e-05
4.60725e-06
2.20249e-06
1.59346e-05
2.69066e-05
2.46048e-06
-4.13634e-07
4.99656e-05
2.3569e-06
-3.67817e-06
5.55984e-05
2.00325e-06
4.40555e-05
8.80964e-07
-1.95948e-06
-3.35044e-05
2.06088e-06
-1.16523e-06
-4.94527e-05
2.30554e-06
1.2208e-06
-5.23548e-05
1.68453e-06
4.39302e-06
-5.22687e-05
1.14828e-06
8.05512e-06
-5.06897e-05
7.02845e-07
1.20372e-05
-4.76705e-05
2.73336e-07
1.59679e-05
-4.3295e-05
-1.4538e-07
1.93444e-05
-3.82008e-05
-5.68301e-07
2.18876e-05
-3.33475e-05
-1.01177e-06
2.36079e-05
-2.93851e-05
-1.41779e-06
2.47023e-05
-2.6463e-05
-1.75362e-06
2.53811e-05
-2.43979e-05
-2.01021e-06
2.57758e-05
-2.29222e-05
-2.1891e-06
2.59361e-05
-2.18253e-05
-2.29245e-06
2.5856e-05
-2.09757e-05
-2.31956e-06
2.54986e-05
-2.02976e-05
-2.26786e-06
2.48133e-05
-1.97459e-05
-2.13529e-06
2.37524e-05
-1.92909e-05
-1.92362e-06
2.22865e-05
-1.89101e-05
-1.64045e-06
2.04183e-05
-1.85845e-05
-1.29944e-06
1.81947e-05
-1.82984e-05
-9.18722e-07
1.57098e-05
-1.80423e-05
-5.13673e-07
1.31091e-05
-1.78168e-05
-1.06178e-07
1.05445e-05
-1.76234e-05
2.91978e-07
8.17812e-06
-1.74386e-05
6.29444e-07
6.16438e-06
-1.71802e-05
9.19474e-07
4.73961e-06
-1.66802e-05
1.19551e-06
4.23415e-06
-1.57264e-05
1.49847e-06
4.65736e-06
-1.40066e-05
1.88417e-06
5.16578e-06
-9.58825e-06
2.34926e-06
3.71384e-06
3.22538e-06
2.71394e-06
-1.62575e-06
2.85794e-05
2.81176e-06
-9.75236e-06
5.44257e-05
2.22518e-06
-7.82774e-06
5.13915e-05
1.39868e-06
3.55161e-05
3.70292e-07
9.80278e-07
-3.63696e-05
1.80677e-06
1.61154e-06
-5.26747e-05
2.49715e-06
2.35687e-06
-5.54828e-05
2.30227e-06
3.49556e-06
-5.54225e-05
1.93962e-06
5.15469e-06
-5.40201e-05
1.58879e-06
7.47948e-06
-5.13278e-05
1.23195e-06
1.04852e-05
-4.72347e-05
8.19886e-07
1.38231e-05
-4.19589e-05
3.1949e-07
1.68538e-05
-3.62313e-05
-2.09776e-07
1.91287e-05
-3.09507e-05
-7.30842e-07
2.06154e-05
-2.67427e-05
-1.20102e-06
2.15529e-05
-2.37404e-05
-1.57684e-06
2.22013e-05
-2.16956e-05
-1.85354e-06
2.27046e-05
-2.02672e-05
-2.04024e-06
2.30974e-05
-1.92027e-05
-2.14614e-06
2.33516e-05
-1.83573e-05
-2.17708e-06
2.34098e-05
-1.76531e-05
-2.13619e-06
2.32048e-05
-1.7048e-05
-2.02579e-06
2.26736e-05
-1.65197e-05
-1.84926e-06
2.17656e-05
-1.60551e-05
-1.61276e-06
2.04424e-05
-1.56403e-05
-1.32603e-06
1.86689e-05
-1.52566e-05
-1.00156e-06
1.63955e-05
-1.48769e-05
-6.52144e-07
1.35422e-05
-1.44603e-05
-2.89298e-07
9.99867e-06
-1.39515e-05
8.61349e-08
5.64384e-06
-1.32788e-05
4.95631e-07
4.42575e-07
-1.23491e-05
9.314e-07
-5.58743e-06
-1.10376e-05
1.44155e-06
-1.23515e-05
-9.1262e-06
2.09185e-06
-1.85147e-05
-5.8632e-06
2.9147e-06
-1.98999e-05
1.82067e-06
3.7035e-06
-1.43253e-05
1.96502e-05
4.09277e-06
-8.52141e-06
4.43679e-05
3.7305e-06
-3.98796e-06
4.40035e-05
2.67483e-06
3.03894e-05
1.41781e-06
-1.98786e-06
-3.65015e-05
1.9886e-06
-3.41368e-06
-5.34827e-05
2.10295e-06
-3.96871e-06
-5.66283e-05
1.60076e-06
-3.84304e-06
-5.68727e-05
1.23214e-06
-3.03785e-06
-5.59246e-05
9.9e-07
-1.38215e-06
-5.39662e-05
8.31901e-07
1.35239e-06
-5.08806e-05
7.06844e-07
5.09643e-06
-4.64751e-05
5.33579e-07
9.23494e-06
-4.08202e-05
2.22592e-07
1.28302e-05
-3.45312e-05
-1.9264e-07
1.52519e-05
-2.86037e-05
-6.78037e-07
1.64687e-05
-2.388e-05
-1.14884e-06
1.68565e-05
-2.06008e-05
-1.52874e-06
1.68401e-05
-1.84822e-05
-1.80169e-06
1.66812e-05
-1.70917e-05
-1.97761e-06
1.64723e-05
-1.61006e-05
-2.0678e-06
1.62006e-05
-1.53184e-05
-2.07927e-06
1.57942e-05
-1.46405e-05
-2.01554e-06
1.51515e-05
-1.40115e-05
-1.87956e-06
1.4161e-05
-1.34033e-05
-1.67601e-06
1.27078e-05
-1.2792e-05
-1.41158e-06
1.06833e-05
-1.21538e-05
-1.09671e-06
8.00393e-06
-1.14709e-05
-7.46394e-07
4.63202e-06
-1.07292e-05
-3.79036e-07
6.08325e-07
-9.91654e-06
-2.83587e-08
-4.0272e-06
-9.02283e-06
3.69974e-07
-9.08589e-06
-8.02873e-06
7.45004e-07
-1.434e-05
-6.87824e-06
1.13551e-06
-1.95425e-05
-5.41881e-06
1.61394e-06
-2.40964e-05
-3.27176e-06
2.30051e-06
-2.51226e-05
5.27858e-07
3.26149e-06
-1.78025e-05
9.92884e-06
4.2591e-06
-3.81771e-06
2.73693e-05
4.74995e-06
9.64292e-07
3.56944e-05
4.15837e-06
2.8813e-05
2.54241e-06
-1.04395e-06
-3.71174e-05
1.59225e-06
-2.05928e-06
-5.39634e-05
1.62937e-06
-2.75383e-06
-5.70196e-05
1.29566e-06
-3.00839e-06
-5.73807e-05
9.8938e-07
-2.74297e-06
-5.67543e-05
7.83693e-07
-1.83067e-06
-5.53671e-05
6.82066e-07
-6.10251e-08
-5.31893e-05
6.80725e-07
2.77177e-06
-5.00046e-05
7.59239e-07
6.58782e-06
-4.55033e-05
8.45257e-07
1.07619e-05
-3.95894e-05
8.07711e-07
1.43249e-05
-3.27925e-05
5.39759e-07
1.6591e-05
-2.62516e-05
3.90378e-08
1.74308e-05
-2.10387e-05
-4.44871e-07
1.73115e-05
-1.74884e-05
-9.03886e-07
1.67269e-05
-1.52744e-05
-1.25637e-06
1.59913e-05
-1.38829e-05
-1.50261e-06
1.52332e-05
-1.2921e-05
-1.6569e-06
1.44584e-05
-1.21506e-05