/*--------------------------------*- C++ -*----------------------------------*\
| =========                 |                                                 |
| \\      /  F ield         | OpenFOAM: The Open Source CFD Toolbox           |
|  \\    /   O peration     | Version:  v1906                                 |
|   \\  /    A nd           | Web:      www.OpenFOAM.com                      |
|    \\/     M anipulation  |                                                 |
\*---------------------------------------------------------------------------*/
FoamFile
{
    version     2.0;
    format      ascii;
    class       volVectorField;
    location    "20";
    object      U;
}
// * * * * * * * * * * * * * * * * * * * * * * * * * * * * * * * * * * * * * //

dimensions      [0 1 -1 0 0 0 0];


internalField   nonuniform List<vector> 
78750
(
(-7.7709e-06 -8.02378e-05 4.53878e-05)
(-3.00647e-05 -6.20607e-05 0.000103848)
(-7.64765e-05 -2.25786e-05 0.000153036)
(-0.00014032 2.532e-05 0.000207425)
(-0.000214505 7.33765e-05 0.000265226)
(-0.0002955 0.000118558 0.000324302)
(-0.0003794 0.000158702 0.000381574)
(-0.000463623 0.00019387 0.00043381)
(-0.000546193 0.0002245 0.00047756)
(-0.000626195 0.000251625 0.000509719)
(-0.000702601 0.000275166 0.000527667)
(-0.000774407 0.000294178 0.000529289)
(-0.000839849 0.000306948 0.000513718)
(-0.00089756 0.000312271 0.00048105)
(-0.000946411 0.000309713 0.000432738)
(-0.000984462 0.000299789 0.000371697)
(-0.00101223 0.000282661 0.000297244)
(-0.0010283 0.000259594 0.00021349)
(-0.00103256 0.000231763 0.0001234)
(-0.00102516 0.00020046 2.95228e-05)
(-0.0010062 0.000167 -6.52858e-05)
(-0.000976173 0.000132592 -0.000158467)
(-0.000935533 9.83252e-05 -0.000247423)
(-0.000885139 6.49662e-05 -0.000329526)
(-0.000825745 3.3223e-05 -0.000402619)
(-0.000758299 3.55274e-06 -0.000464696)
(-0.000683774 -2.36157e-05 -0.00051379)
(-0.000603237 -4.79686e-05 -0.000548065)
(-0.000517852 -6.90051e-05 -0.000565633)
(-0.000428883 -8.61234e-05 -0.000564701)
(-0.000337399 -9.82653e-05 -0.000543316)
(-0.000244136 -0.000103948 -0.000499627)
(-0.000151994 -0.000100789 -0.000431654)
(-7.81141e-05 -8.57814e-05 -0.000338053)
(-2.54296e-05 -4.72625e-05 -0.000170886)
(-3.50391e-05 0.000485974 -0.000317566)
(-0.000100444 0.000904017 -0.000379302)
(-0.000186344 0.00111901 -0.000377244)
(-0.000302695 0.00127174 -0.000385238)
(-0.000422051 0.00136311 -0.000401278)
(-0.000536063 0.00139653 -0.000418969)
(-0.00064148 0.00139095 -0.000441145)
(-0.000735132 0.00136181 -0.000472986)
(-0.000814643 0.00132249 -0.000517795)
(-0.000878781 0.00127736 -0.000575804)
(-0.000927221 0.00122588 -0.00064061)
(-0.000959674 0.00116052 -0.00069839)
(-0.000975623 0.00107866 -0.000733862)
(-0.000979643 0.000988045 -0.000751379)
(-0.000972262 0.000892802 -0.0007557)
(-0.000954847 0.000795459 -0.000751621)
(-0.000928674 0.00069852 -0.000742162)
(-0.000895217 0.000603791 -0.000729511)
(-0.000855882 0.000512755 -0.000715634)
(-0.000811889 0.000426497 -0.000702015)
(-0.000764333 0.000345687 -0.000689863)
(-0.000714048 0.000270816 -0.000679731)
(-0.000661822 0.000201934 -0.000671826)
(-0.000608079 0.000139265 -0.000665937)
(-0.000553312 8.2494e-05 -0.000661462)
(-0.00049783 3.15785e-05 -0.000657426)
(-0.00044193 -1.39641e-05 -0.000652773)
(-0.00038584 -5.41359e-05 -0.000645865)
(-0.000329828 -8.93916e-05 -0.000634904)
(-0.000274132 -0.00011948 -0.000617091)
(-0.000218773 -0.000144461 -0.000589376)
(-0.000163105 -0.000163081 -0.000545348)
(-0.000107517 -0.000173049 -0.000469699)
(-6.41767e-05 -0.000166922 -0.000341655)
(-3.19815e-05 -9.60171e-05 -8.47663e-05)
(-5.68075e-05 0.000926718 0.000285191)
(-0.000130847 0.00158631 0.000463949)
(-0.00022418 0.00187044 0.000554764)
(-0.000343273 0.00204794 0.000607141)
(-0.00045586 0.00213468 0.000616031)
(-0.000555625 0.00214745 0.000588556)
(-0.000643284 0.00210389 0.000523453)
(-0.000716647 0.00202277 0.000425895)
(-0.000773923 0.00191791 0.000296096)
(-0.000813733 0.00179978 0.000141242)
(-0.000835561 0.00167341 -3.17041e-05)
(-0.000840391 0.00154277 -0.000207246)
(-0.000830488 0.00141034 -0.000368581)
(-0.000809057 0.00127825 -0.000496786)
(-0.000777389 0.00114762 -0.00058013)
(-0.000739528 0.00102179 -0.000625432)
(-0.000697007 0.000902059 -0.000646401)
(-0.00065126 0.000789997 -0.000651331)
(-0.000603862 0.000687136 -0.000646144)
(-0.000555762 0.000593737 -0.000634188)
(-0.00050787 0.000509697 -0.000618316)
(-0.000460849 0.000434496 -0.000600213)
(-0.000415227 0.000367747 -0.000581099)
(-0.00037136 0.000308497 -0.000561753)
(-0.000329496 0.000256238 -0.000542539)
(-0.000289704 0.000210033 -0.000523563)
(-0.000252051 0.000169447 -0.000504592)
(-0.000216471 0.000133686 -0.000485131)
(-0.000182916 0.000102573 -0.000464236)
(-0.000151245 7.56902e-05 -0.000440473)
(-0.000121216 5.33543e-05 -0.000411445)
(-9.21337e-05 3.58144e-05 -0.000372875)
(-6.34744e-05 2.41558e-05 -0.000316975)
(-3.96805e-05 2.00391e-05 -0.000234678)
(-2.26903e-05 3.30111e-05 -5.48892e-05)
(-6.68912e-05 0.00119198 0.000669203)
(-0.000127752 0.00199092 0.00100143)
(-0.000190635 0.00228669 0.00112063)
(-0.000268997 0.00241604 0.00119466)
(-0.000342667 0.00243557 0.00123988)
(-0.000411366 0.00237916 0.00124668)
(-0.000475196 0.00228332 0.00121494)
(-0.000531342 0.00216117 0.00113954)
(-0.000576951 0.00202732 0.00102522)
(-0.000609017 0.00188479 0.000874384)
(-0.000626353 0.00173932 0.000696531)
(-0.000629378 0.00159118 0.000500048)
(-0.000619993 0.00144305 0.00029974)
(-0.000599212 0.00129525 0.000113624)
(-0.000570493 0.0011522 -3.93102e-05)
(-0.000535498 0.00101833 -0.000148171)
(-0.000498312 0.00089687 -0.00022421)
(-0.000458991 0.000788503 -0.000277406)
(-0.000418641 0.000693009 -0.00031388)
(-0.000378662 0.000610386 -0.000338157)
(-0.000339734 0.000539768 -0.000352904)
(-0.000302514 0.000480061 -0.000360577)
(-0.000267453 0.000429894 -0.000362596)
(-0.000234937 0.000388058 -0.000360325)
(-0.000205135 0.000353047 -0.000354584)
(-0.000178199 0.000323735 -0.000346219)
(-0.000154053 0.00029872 -0.000335709)
(-0.000132589 0.000277065 -0.000323601)
(-0.000113528 0.000257433 -0.000310407)
(-9.65566e-05 0.000239078 -0.000296287)
(-8.10174e-05 0.000220978 -0.000281254)
(-6.58188e-05 0.000202553 -0.000267066)
(-4.92668e-05 0.000182845 -0.000257349)
(-3.38229e-05 0.0001615 -0.000245344)
(-2.06408e-05 0.000125112 -0.000148612)
(-4.22437e-05 0.00085687 0.00063285)
(-6.24222e-05 0.00134236 0.000916072)
(-7.42975e-05 0.00155698 0.00100099)
(-8.43041e-05 0.00170004 0.00106067)
(-9.38383e-05 0.00178109 0.00110777)
(-0.000105889 0.00181029 0.00113347)
(-0.000121523 0.00179764 0.00113952)
(-0.000138512 0.00175198 0.00112269)
(-0.000154733 0.00167999 0.00108354)
(-0.000167271 0.00158783 0.00102014)
(-0.000174586 0.00148053 0.00093588)
(-0.000176147 0.00136362 0.00083477)
(-0.000172124 0.00124171 0.000724517)
(-0.000164097 0.00112022 0.000611735)
(-0.000153451 0.00100368 0.00050492)
(-0.000141305 0.000896431 0.000410553)
(-0.000128729 0.00080129 0.000331931)
(-0.000116353 0.000719593 0.000268736)
(-0.000104544 0.000651383 0.000219251)
(-9.34616e-05 0.000596016 0.000181568)
(-8.34594e-05 0.000552514 0.00015381)
(-7.45994e-05 0.000519447 0.000134414)
(-6.70064e-05 0.00049525 0.00012174)
(-6.06966e-05 0.000478191 0.000114548)
(-5.56677e-05 0.000466564 0.000111394)
(-5.18529e-05 0.000458584 0.000111157)
(-4.91124e-05 0.000452524 0.000112376)
(-4.72901e-05 0.000446611 0.000113771)
(-4.59936e-05 0.000439273 0.000114086)
(-4.49112e-05 0.00042873 0.000112017)
(-4.35168e-05 0.000412967 0.00010582)
(-4.10272e-05 0.000389678 9.11268e-05)
(-3.5482e-05 0.000355817 5.6828e-05)
(-2.74554e-05 0.000309196 6.53674e-06)
(-1.67065e-05 0.000208278 -1.03265e-05)
(-1.52946e-05 0.000589097 0.000498146)
(-1.3845e-05 0.000872435 0.000684977)
(-6.63485e-06 0.00100873 0.000732356)
(9.68963e-06 0.00110792 0.000766263)
(3.09209e-05 0.00117189 0.000792603)
(5.41536e-05 0.00120444 0.000807293)
(7.76386e-05 0.00121169 0.000810088)
(0.000100317 0.00119771 0.000802439)
(0.000121455 0.00116769 0.000785134)
(0.000140394 0.00112527 0.00075924)
(0.00015666 0.00107442 0.000725866)
(0.000169771 0.00101763 0.000686642)
(0.000179403 0.000957754 0.000643432)
(0.000185217 0.00089706 0.000598399)
(0.000187181 0.000838355 0.000553937)
(0.000185295 0.000783865 0.000512108)
(0.000179791 0.000735539 0.000474615)
(0.000171291 0.000694033 0.000442721)
(0.000160269 0.000659687 0.000416683)
(0.000147242 0.000632173 0.000395955)
(0.000132809 0.000610939 0.000380194)
(0.000117419 0.000595005 0.000368657)
(0.000101554 0.000583415 0.000360799)
(8.55961e-05 0.00057497 0.000355635)
(6.98951e-05 0.000568557 0.000352429)
(5.47295e-05 0.000562846 0.000350035)
(4.03504e-05 0.000556615 0.00034751)
(2.70018e-05 0.000548387 0.000343431)
(1.491e-05 0.000536665 0.000336231)
(4.33668e-06 0.000519669 0.000324165)
(-4.41634e-06 0.000495568 0.000305517)
(-1.09697e-05 0.000462074 0.000275419)
(-1.40343e-05 0.000416641 0.000223128)
(-1.32244e-05 0.000355509 0.000150108)
(-8.16558e-06 0.000220179 8.04263e-05)
(-6.94277e-07 0.000312125 0.000366846)
(8.4198e-06 0.000457303 0.000446339)
(1.95538e-05 0.000534183 0.00044499)
(3.84032e-05 0.000598299 0.000443768)
(6.01231e-05 0.00064947 0.000445381)
(8.28334e-05 0.000689753 0.000444637)
(0.000105365 0.000721384 0.000440614)
(0.000126868 0.00074581 0.000433769)
(0.000146527 0.000763903 0.000424059)
(0.000163816 0.000776432 0.000411294)
(0.000178306 0.000783735 0.000395354)
(0.00018975 0.000786736 0.000376626)
(0.000197989 0.000786287 0.000355688)
(0.000202935 0.000783756 0.000333938)
(0.000204508 0.000780026 0.000312654)
(0.000202844 0.000776021 0.000293261)
(0.000198146 0.000771895 0.000276467)
(0.000190806 0.000768036 0.000262497)
(0.000181194 0.000764155 0.000251492)
(0.000169701 0.000760212 0.000243577)
(0.000156709 0.000755719 0.000238314)
(0.0001426 0.000750637 0.000235437)
(0.000127676 0.000744465 0.000234248)
(0.000112262 0.000737107 0.000234461)
(9.66057e-05 0.000727969 0.00023528)
(8.09532e-05 0.000716835 0.000236288)
(6.55312e-05 0.000702872 0.000236507)
(5.05481e-05 0.000685542 0.000235257)
(3.62871e-05 0.000663535 0.000231163)
(2.29639e-05 0.000635661 0.0002233)
(1.09273e-05 0.000599763 0.000209979)
(5.18689e-07 0.00055382 0.00018718)
(-6.70532e-06 0.000494798 0.00014463)
(-9.28772e-06 0.000416938 8.41466e-05)
(-6.90807e-06 0.000239856 3.44169e-05)
(-3.56396e-06 0.000218053 0.000288825)
(-2.70851e-06 0.000377527 0.00030204)
(-6.01776e-06 0.000453256 0.000272709)
(-8.08294e-06 0.000513815 0.000246272)
(-8.87301e-06 0.000563313 0.000227195)
(-8.5823e-06 0.00060413 0.00020934)
(-7.2449e-06 0.000638608 0.00019007)
(-4.77889e-06 0.000667839 0.000168562)
(-1.10046e-06 0.000693277 0.00014571)
(3.68739e-06 0.000715431 0.0001227)
(9.44401e-06 0.000735312 0.000101349)
(1.58495e-05 0.00075306 8.21503e-05)
(2.26159e-05 0.000769311 6.52179e-05)
(2.93383e-05 0.000783823 4.98231e-05)
(3.58682e-05 0.000797085 3.58585e-05)
(4.19942e-05 0.00080876 2.32783e-05)
(4.76155e-05 0.000819297 1.26596e-05)
(5.25674e-05 0.000828312 4.1707e-06)
(5.67053e-05 0.000836155 -1.72282e-06)
(5.9904e-05 0.000842334 -5.00592e-06)
(6.20326e-05 0.000847092 -5.46365e-06)
(6.29376e-05 0.000849795 -3.53395e-06)
(6.25295e-05 0.000850617 7.19618e-07)
(6.07049e-05 0.000848812 6.57279e-06)
(5.74859e-05 0.000844459 1.38134e-05)
(5.28618e-05 0.000836585 2.15197e-05)
(4.69476e-05 0.000825019 2.92849e-05)
(3.98677e-05 0.000808342 3.59634e-05)
(3.189e-05 0.000785783 4.09618e-05)
(2.3293e-05 0.000755042 4.29446e-05)
(1.44966e-05 0.000714092 4.07517e-05)
(6.06478e-06 0.000658996 3.03626e-05)
(-7.12326e-07 0.000585289 5.23452e-06)
(-3.97647e-06 0.000486012 -3.26239e-05)
(-4.28518e-06 0.000263401 -5.21939e-05)
(-6.08633e-06 0.000176149 0.000172395)
(-9.95469e-06 0.000360482 0.000193175)
(-1.68759e-05 0.000445129 0.000185267)
(-2.50103e-05 0.0005109 0.000173945)
(-3.26334e-05 0.000562084 0.000161596)
(-3.93795e-05 0.00060284 0.000146793)
(-4.50942e-05 0.000635377 0.000128666)
(-4.94764e-05 0.00066217 0.000107549)
(-5.23909e-05 0.000684281 8.39652e-05)
(-5.36265e-05 0.000703342 5.96253e-05)
(-5.31925e-05 0.00071985 3.61858e-05)
(-5.11045e-05 0.000735003 1.52425e-05)
(-4.75776e-05 0.000748921 -2.88224e-06)
(-4.27755e-05 0.000762494 -1.79553e-05)
(-3.69817e-05 0.000775507 -3.02613e-05)
(-3.03825e-05 0.000788572 -3.95526e-05)
(-2.33046e-05 0.000801211 -4.60659e-05)
(-1.59627e-05 0.000813854 -4.95248e-05)
(-8.66612e-06 0.000825817 -5.02629e-05)
(-1.66978e-06 0.000837403 -4.81647e-05)
(4.75069e-06 0.000847783 -4.37033e-05)
(1.03786e-05 0.000857207 -3.68427e-05)
(1.50436e-05 0.000864715 -2.82456e-05)
(1.85781e-05 0.00087042 -1.80615e-05)
(2.08557e-05 0.000873105 -7.14964e-06)
(2.18364e-05 0.000872656 4.15336e-06)
(2.15292e-05 0.000867487 1.4836e-05)
(2.00128e-05 0.000857019 2.44437e-05)
(1.74402e-05 0.000838959 3.18484e-05)
(1.40158e-05 0.000811786 3.65165e-05)
(1.00102e-05 0.000771849 3.69983e-05)
(5.76088e-06 0.000715799 3.11638e-05)
(1.9219e-06 0.000637405 1.43889e-05)
(-1.96731e-07 0.000529794 -1.16243e-05)
(-1.27598e-06 0.000284769 -3.18773e-05)
(-7.22422e-06 0.000170225 0.000121099)
(-1.32158e-05 0.000362527 0.000162801)
(-2.10502e-05 0.00044991 0.000175306)
(-3.08164e-05 0.000516351 0.000178588)
(-3.9897e-05 0.000567414 0.000175281)
(-4.80618e-05 0.000606806 0.000166563)
(-5.52067e-05 0.000637813 0.00015348)
(-6.11832e-05 0.000662232 0.000136519)
(-6.58002e-05 0.000682131 0.000116627)
(-6.89314e-05 0.000698338 9.4947e-05)
(-7.04846e-05 0.000712313 7.34413e-05)
(-7.04576e-05 0.000724368 5.34894e-05)
(-6.89271e-05 0.000735603 3.62112e-05)
(-6.60681e-05 0.000746026 2.17195e-05)
(-6.20484e-05 0.00075651 1.02851e-05)
(-5.70487e-05 0.000766747 1.73881e-06)
(-5.12583e-05 0.0007774 -3.67405e-06)
(-4.49052e-05 0.000787917 -6.17256e-06)
(-3.82142e-05 0.0007988 -5.56756e-06)
(-3.14246e-05 0.00080928 -2.19516e-06)
(-2.47608e-05 0.000819709 4.01747e-06)
(-1.84397e-05 0.000829095 1.25834e-05)
(-1.26654e-05 0.000837608 2.34461e-05)
(-7.60913e-06 0.000844022 3.58355e-05)
(-3.4023e-06 0.000848323 4.93028e-05)
(-1.053e-07 0.000848966 6.26597e-05)
(2.27777e-06 0.000845602 7.51929e-05)
(3.7897e-06 0.000836199 8.576e-05)
(4.51001e-06 0.000819759 9.38792e-05)
(4.55888e-06 0.000793339 9.85319e-05)
(4.05565e-06 0.000754654 9.89922e-05)
(3.11095e-06 0.000699043 9.32549e-05)
(1.88547e-06 0.000621747 7.8528e-05)
(1.01204e-06 0.000514884 5.44673e-05)
(5.37449e-07 0.000272954 1.85327e-05)
(-7.92819e-06 0.000164491 9.00787e-05)
(-1.47468e-05 0.000349807 0.000146906)
(-2.29634e-05 0.000433264 0.000171554)
(-3.31527e-05 0.00049628 0.000184016)
(-4.25192e-05 0.000543783 0.000186636)
(-5.08954e-05 0.000579965 0.000182266)
(-5.81989e-05 0.000607361 0.000172407)
(-6.43193e-05 0.000628459 0.000158045)
(-6.90361e-05 0.000644531 0.000139858)
(-7.22396e-05 0.000657195 0.000119162)
(-7.37976e-05 0.000667083 9.76143e-05)
(-7.37287e-05 0.00067542 7.70919e-05)
(-7.2064e-05 0.000682525 5.8765e-05)
(-6.89667e-05 0.000689357 4.33662e-05)
(-6.4596e-05 0.000695934 3.10172e-05)
(-5.91953e-05 0.00070299 2.18822e-05)
(-5.29386e-05 0.000710263 1.59212e-05)
(-4.60799e-05 0.000718281 1.32701e-05)
(-3.88267e-05 0.00072653 1.38198e-05)
(-3.14472e-05 0.000735356 1.76388e-05)
(-2.41499e-05 0.000744003 2.45194e-05)
(-1.71908e-05 0.000752621 3.44422e-05)
(-1.07789e-05 0.000760194 4.70532e-05)
(-5.12723e-06 0.000766652 6.19818e-05)
(-3.57284e-07 0.000770695 7.81897e-05)
(3.44643e-06 0.000772005 9.44995e-05)
(6.27603e-06 0.000768945 0.00010932)
(8.17323e-06 0.000760799 0.000121604)
(9.21224e-06 0.000745364 0.000130441)
(9.48267e-06 0.00072113 0.000135379)
(9.05651e-06 0.000684807 0.000135404)
(7.9436e-06 0.000633334 0.000129021)
(6.12823e-06 0.000561378 0.000113252)
(4.30382e-06 0.000462923 8.7034e-05)
(2.76186e-06 0.000240392 3.75344e-05)
(-7.01005e-06 0.000159459 6.02062e-05)
(-1.34465e-05 0.000332923 0.000120903)
(-2.15713e-05 0.000410695 0.000150678)
(-3.16832e-05 0.000468606 0.000167232)
(-4.11005e-05 0.00051176 0.000172659)
(-4.94853e-05 0.000543547 0.000170261)
(-5.67866e-05 0.000566919 0.000161923)
(-6.27643e-05 0.000583698 0.000148465)
(-6.72309e-05 0.000595729 0.000130671)
(-6.99685e-05 0.000604027 0.000109716)
(-7.09161e-05 0.000609897 8.74805e-05)
(-7.00252e-05 0.000613946 6.58344e-05)
(-6.74092e-05 0.000617202 4.63186e-05)
(-6.31824e-05 0.000620001 2.97442e-05)
(-5.75862e-05 0.000623152 1.6556e-05)
(-5.08234e-05 0.000626732 6.83832e-06)
(-4.32037e-05 0.000631321 6.72152e-07)
(-3.49664e-05 0.000636716 -1.98031e-06)
(-2.64401e-05 0.000643251 -1.06546e-06)
(-1.78719e-05 0.000650452 3.38417e-06)
(-9.59625e-06 0.000658407 1.14073e-05)
(-1.8622e-06 0.000666366 2.28997e-05)
(5.04451e-06 0.00067417 3.76803e-05)
(1.09256e-05 0.000680805 5.51711e-05)
(1.55821e-05 0.000685872 7.44055e-05)
(1.89333e-05 0.000688084 9.38358e-05)
(2.09394e-05 0.000686755 0.00011174)
(2.16625e-05 0.000680241 0.000126513)
(2.1205e-05 0.000667376 0.00013719)
(1.97121e-05 0.000645851 0.000143124)
(1.73246e-05 0.000613568 0.000143571)
(1.40603e-05 0.000566924 0.000136813)
(1.00336e-05 0.000502014 0.000119761)
(6.44187e-06 0.000412782 9.09111e-05)
(3.71824e-06 0.000211729 3.51891e-05)
(-5.82279e-06 0.000158525 2.10998e-05)
(-1.21383e-05 0.00032451 7.45622e-05)
(-2.05647e-05 0.000398185 0.00010401)
(-3.1313e-05 0.00045218 0.000120597)
(-4.15814e-05 0.000490989 0.000125465)
(-5.08575e-05 0.00051826 0.000122221)
(-5.89191e-05 0.000536489 0.000112598)
(-6.54394e-05 0.000547981 9.73745e-05)
(-7.01e-05 0.000554201 7.72185e-05)
(-7.2681e-05 0.000556774 5.35674e-05)
(-7.3052e-05 0.000556646 2.84232e-05)
(-7.12123e-05 0.000555086 3.9668e-06)
(-6.72548e-05 0.000552753 -1.81677e-05)
(-6.13968e-05 0.000550668 -3.68906e-05)
(-5.38957e-05 0.000549225 -5.17423e-05)
(-4.50747e-05 0.000549181 -6.25322e-05)
(-3.52642e-05 0.000550622 -6.92637e-05)
(-2.48468e-05 0.000554005 -7.18906e-05)
(-1.41766e-05 0.000559097 -7.04404e-05)
(-3.65341e-06 0.000566042 -6.48435e-05)
(6.37511e-06 0.000574282 -5.51001e-05)
(1.55222e-05 0.000583643 -4.11961e-05)
(2.34743e-05 0.000593256 -2.33611e-05)
(2.9915e-05 0.000602647 -2.13761e-06)
(3.46402e-05 0.000610663 2.13254e-05)
(3.74884e-05 0.000616545 4.53341e-05)
(3.84572e-05 0.000618854 6.77989e-05)
(3.75984e-05 0.000616495 8.67994e-05)
(3.50977e-05 0.00060763 0.000100993)
(3.11823e-05 0.000590583 0.000109729)
(2.61303e-05 0.000562731 0.000112315)
(2.01036e-05 0.000521263 0.000107156)
(1.34493e-05 0.000462047 9.10234e-05)
(7.99597e-06 0.000380065 6.29277e-05)
(3.9949e-06 0.000194085 1.19289e-05)
(-4.47116e-06 0.000174404 -1.95308e-05)
(-1.09184e-05 0.00034463 1.95846e-05)
(-1.98627e-05 0.000419257 4.48288e-05)
(-3.16734e-05 0.000472214 5.82464e-05)
(-4.32905e-05 0.000508465 5.99781e-05)
(-5.39433e-05 0.000531529 5.32624e-05)
(-6.32309e-05 0.000544482 3.97122e-05)
(-7.06711e-05 0.000549458 1.99616e-05)
(-7.58855e-05 0.000548631 -5.15397e-06)
(-7.85815e-05 0.000543494 -3.40225e-05)
(-7.86203e-05 0.000535742 -6.42536e-05)
(-7.59896e-05 0.000526488 -9.34904e-05)
(-7.08336e-05 0.000517111 -0.000119791)
(-6.34024e-05 0.000508412 -0.000141994)
(-5.40384e-05 0.000501463 -0.000159486)
(-4.31342e-05 0.00049673 -0.000172097)
(-3.1114e-05 0.000494913 -0.000179796)
(-1.84341e-05 0.000496077 -0.00018262)
(-5.56418e-06 0.000500519 -0.000180541)
(7.0342e-06 0.000507889 -0.000173537)
(1.88926e-05 0.000518061 -0.000161529)
(2.95676e-05 0.000530276 -0.000144524)
(3.86425e-05 0.000544005 -0.000122692)
(4.5758e-05 0.000558117 -9.66579e-05)
(5.06298e-05 0.000571725 -6.76503e-05)
(5.30888e-05 0.000583372 -3.76275e-05)
(5.31034e-05 0.000591837 -8.97855e-06)
(5.07786e-05 0.000595315 1.59531e-05)
(4.63596e-05 0.000592169 3.55078e-05)
(4.01723e-05 0.000580084 4.88809e-05)
(3.26346e-05 0.000556687 5.55482e-05)
(2.41076e-05 0.000518652 5.41553e-05)
(1.52122e-05 0.000462176 4.17593e-05)
(8.33606e-06 0.000381951 1.82498e-05)
(3.42923e-06 0.000198131 -1.95764e-05)
(-3.34553e-06 0.00020891 -5.04934e-05)
(-9.9512e-06 0.000396002 -2.81461e-05)
(-1.90181e-05 0.000476838 -9.98149e-06)
(-3.13474e-05 0.000532479 -1.9418e-06)
(-4.37095e-05 0.000568154 -4.85519e-06)
(-5.51796e-05 0.000588221 -1.59973e-05)
(-6.5183e-05 0.000595974 -3.42477e-05)
(-7.31662e-05 0.000594425 -5.92336e-05)
(-7.86779e-05 0.000585823 -9.00638e-05)
(-8.13962e-05 0.000572437 -0.000124737)
(-8.11529e-05 0.000556008 -0.000160543)
(-7.79574e-05 0.000538394 -0.000194758)
(-7.19794e-05 0.000520951 -0.000225264)
(-6.35205e-05 0.000505164 -0.000250781)
(-5.2965e-05 0.000491984 -0.000270739)
(-4.07585e-05 0.000482464 -0.000285015)
(-2.73885e-05 0.000477095 -0.000293642)
(-1.33485e-05 0.000476423 -0.0002967)
(8.38329e-07 0.00048041 -0.000294194)
(1.46546e-05 0.000489069 -0.000286077)
(2.75885e-05 0.000501828 -0.000272237)
(3.91441e-05 0.000518166 -0.000252605)
(4.88563e-05 0.000537004 -0.000227277)
(5.63173e-05 0.000557335 -0.000196824)
(6.12003e-05 0.000577634 -0.00016253)
(6.33075e-05 0.000596471 -0.00012655)
(6.25962e-05 0.000611927 -9.16292e-05)
(5.92056e-05 0.000622165 -6.05034e-05)
(5.34155e-05 0.00062483 -3.5183e-05)
(4.5649e-05 0.000617548 -1.66201e-05)
(3.64069e-05 0.000597234 -5.13704e-06)
(2.62276e-05 0.000560462 -1.70128e-06)
(1.59311e-05 0.00050272 -8.68849e-06)
(8.28552e-06 0.000418556 -2.53223e-05)
(2.73064e-06 0.000223171 -4.70951e-05)
(-2.56131e-06 0.000257581 -6.41715e-05)
(-9.13026e-06 0.0004695 -5.54835e-05)
(-1.77851e-05 0.000560371 -4.46497e-05)
(-2.98241e-05 0.000621423 -4.22338e-05)
(-4.2024e-05 0.000658885 -4.96641e-05)
(-5.33932e-05 0.000677627 -6.49879e-05)
(-6.32926e-05 0.000681766 -8.75434e-05)
(-7.11505e-05 0.000674636 -0.000117117)
(-7.64791e-05 0.000659272 -0.000152701)
(-7.89436e-05 0.000638207 -0.000191994)
(-7.8384e-05 0.000613896 -0.000231965)
(-7.4825e-05 0.000588358 -0.000269606)
(-6.84725e-05 0.000563575 -0.000302736)
(-5.9654e-05 0.000541076 -0.000330117)
(-4.87806e-05 0.00052234 -0.00035134)
(-3.63072e-05 0.00050835 -0.000366395)
(-2.27191e-05 0.000500009 -0.000375449)
(-8.52232e-06 0.000497693 -0.000378608)
(5.77694e-06 0.000501675 -0.000375928)
(1.96666e-05 0.000511684 -0.000367322)
(3.26371e-05 0.000527346 -0.000352651)
(4.41887e-05 0.000547755 -0.000331715)
(5.38571e-05 0.000571911 -0.0003045)
(6.12073e-05 0.000598319 -0.000271392)
(6.58926e-05 0.000625409 -0.000233626)
(6.76841e-05 0.000651166 -0.000193397)
(6.65339e-05 0.000673508 -0.000153748)
(6.25774e-05 0.000689932 -0.000117758)
(5.61238e-05 0.000697829 -8.77753e-05)
(4.76288e-05 0.000694101 -6.48332e-05)
(3.76443e-05 0.000675332 -4.91317e-05)
(2.67801e-05 0.000637334 -4.12158e-05)
(1.59698e-05 0.000575139 -4.28125e-05)
(8.16196e-06 0.000482424 -5.25487e-05)
(2.21976e-06 0.000265574 -6.09515e-05)
(-2.3205e-06 0.00031305 -6.31402e-05)
(-8.87127e-06 0.000552461 -6.17778e-05)
(-1.70547e-05 0.000654763 -5.58223e-05)
(-2.86091e-05 0.000722663 -5.72483e-05)
(-4.03284e-05 0.000763148 -6.7627e-05)
(-5.12545e-05 0.000781932 -8.56242e-05)
(-6.07116e-05 0.000783653 -0.000110886)
(-6.81508e-05 0.000772363 -0.000143325)
(-7.30766e-05 0.000751499 -0.000181796)
(-7.51706e-05 0.000724243 -0.000223768)
(-7.42724e-05 0.000693347 -0.000265909)
(-7.04474e-05 0.000661385 -0.00030511)
(-6.39191e-05 0.000630513 -0.000339189)
(-5.50446e-05 0.000602694 -0.000367089)
(-4.4238e-05 0.000579447 -0.000388528)
(-3.19548e-05 0.000562072 -0.000403664)
(-1.86578e-05 0.000551404 -0.000412708)
(-4.82644e-06 0.000548046 -0.000415854)
(9.06476e-06 0.000552124 -0.000413131)
(2.25356e-05 0.00056353 -0.000404484)
(3.51059e-05 0.000581676 -0.000389693)
(4.63059e-05 0.000605738 -0.000368522)
(5.56691e-05 0.000634416 -0.000340791)
(6.27737e-05 0.00066618 -0.000306762)
(6.72449e-05 0.000699049 -0.000267486)
(6.88495e-05 0.000730832 -0.000225151)
(6.75028e-05 0.000758918 -0.000182898)
(6.33555e-05 0.000780505 -0.000144101)
(5.67075e-05 0.000792364 -0.000111336)
(4.8041e-05 0.000791002 -8.57661e-05)
(3.78942e-05 0.000772323 -6.74724e-05)
(2.69206e-05 0.000731633 -5.67373e-05)
(1.60513e-05 0.000663171 -5.47723e-05)
(8.33875e-06 0.000559893 -6.00474e-05)
(2.13351e-06 0.000317424 -6.12171e-05)
(-2.52049e-06 0.000370818 -5.23402e-05)
(-9.14695e-06 0.000637599 -5.16458e-05)
(-1.71721e-05 0.00075147 -4.7246e-05)
(-2.85198e-05 0.000826439 -5.01066e-05)
(-4.00259e-05 0.000870396 -6.16688e-05)
(-5.0716e-05 0.00088966 -8.0841e-05)
(-5.99496e-05 0.000889562 -0.000107459)
(-6.71602e-05 0.000874628 -0.000141438)
(-7.18582e-05 0.000848907 -0.00018156)
(-7.36997e-05 0.000816009 -0.000225065)
(-7.25303e-05 0.000779234 -0.000268442)
(-6.84252e-05 0.000741489 -0.000308458)
(-6.16481e-05 0.000705355 -0.000342972)
(-5.25966e-05 0.000672951 -0.000371002)
(-4.17068e-05 0.000646037 -0.000392412)
(-2.94428e-05 0.000625895 -0.000407433)
(-1.6258e-05 0.000613481 -0.00041639)
(-2.60758e-06 0.00060936 -0.000419464)
(1.10775e-05 0.00061376 -0.000416752)
(2.435e-05 0.00062647 -0.000408137)
(3.67595e-05 0.000646949 -0.000393416)
(4.78516e-05 0.000674256 -0.000372242)
(5.71584e-05 0.000707117 -0.00034437)
(6.42375e-05 0.000743772 -0.000309926)
(6.86821e-05 0.000782085 -0.000269887)
(7.02249e-05 0.000819455 -0.000226406)
(6.87798e-05 0.000852936 -0.000182742)
(6.44955e-05 0.000879192 -0.000142435)
(5.77103e-05 0.00089457 -0.000108274)
(4.89037e-05 0.000894985 -8.14848e-05)
(3.86424e-05 0.000875876 -6.21369e-05)
(2.75528e-05 0.000831877 -5.0347e-05)
(1.65912e-05 0.000756635 -4.71268e-05)
(8.83614e-06 0.000642235 -5.1061e-05)
(2.40297e-06 0.000373298 -5.14871e-05)
(-3.02329e-06 0.000427185 -3.44842e-05)
(-9.74169e-06 0.0007198 -2.9175e-05)
(-1.78014e-05 0.000844583 -2.35726e-05)
(-2.91393e-05 0.000926335 -2.57351e-05)
(-4.06165e-05 0.000973658 -3.675e-05)
(-5.12803e-05 0.000993478 -5.5603e-05)
(-6.0545e-05 0.000991619 -8.22544e-05)
(-6.78181e-05 0.000973091 -0.000116752)
(-7.25641e-05 0.000942412 -0.000157913)
(-7.43916e-05 0.0009037 -0.000203)
(-7.30915e-05 0.000860742 -0.000248234)
(-6.87419e-05 0.000817074 -0.00028996)
(-6.16085e-05 0.000775729 -0.000325559)
(-5.21965e-05 0.000739112 -0.000353932)
(-4.1017e-05 0.000708988 -0.000375158)
(-2.8547e-05 0.000686658 -0.000389777)
(-1.523e-05 0.000672973 -0.000398343)
(-1.49829e-06 0.000668392 -0.000401257)
(1.22464e-05 0.000673091 -0.000398638)
(2.56039e-05 0.000686903 -0.00039036)
(3.81443e-05 0.000709387 -0.000376007)
(4.94252e-05 0.000739704 -0.000355011)
(5.8969e-05 0.000776572 -0.000326801)
(6.62647e-05 0.000818241 -0.000291265)
(7.07981e-05 0.000862302 -0.000249499)
(7.22973e-05 0.0009057 -0.000204167)
(7.06802e-05 0.000944852 -0.000158985)
(6.61611e-05 0.000975935 -0.000117761)
(5.91285e-05 0.000994801 -8.32267e-05)
(5.01162e-05 0.00099691 -5.6537e-05)
(3.97121e-05 0.000977227 -3.76226e-05)
(2.84965e-05 0.000929911 -2.6478e-05)
(1.74087e-05 0.000848019 -2.40635e-05)
(9.52947e-06 0.00072293 -2.92904e-05)
(2.93576e-06 0.000428608 -3.42481e-05)
(-3.56822e-06 0.000477914 -1.31558e-05)
(-1.02484e-05 0.000792935 1.69855e-09)
(-1.82725e-05 0.000927216 8.54236e-06)
(-2.9491e-05 0.00101495 8.58493e-06)
(-4.0804e-05 0.00106533 -5.59309e-07)
(-5.13694e-05 0.00108572 -1.77708e-05)
(-6.06824e-05 0.00108223 -4.32068e-05)
(-6.80349e-05 0.00106019 -7.70639e-05)
(-7.3151e-05 0.00102436 -0.000118664)
(-7.53542e-05 0.000979169 -0.000165618)
(-7.41517e-05 0.000929222 -0.00021372)
(-6.97861e-05 0.000879204 -0.000257898)
(-6.25127e-05 0.000832706 -0.000294592)
(-5.27003e-05 0.000792086 -0.000322921)
(-4.12625e-05 0.00075905 -0.000343368)
(-2.85119e-05 0.000734726 -0.000357073)
(-1.49525e-05 0.000719875 -0.000364958)
(-9.80977e-07 0.000714909 -0.000367592)
(1.29994e-05 0.000719964 -0.000365141)
(2.6578e-05 0.000734905 -0.000357441)
(3.93556e-05 0.000759326 -0.000343925)
(5.08412e-05 0.000792473 -0.000323653)
(6.07219e-05 0.000833225 -0.000295476)
(6.80723e-05 0.000879894 -0.000258905)
(7.2537e-05 0.000930146 -0.000214792)
(7.38527e-05 0.000980408 -0.000166692)
(7.1803e-05 0.00102596 -0.000119709)
(6.68277e-05 0.0010621 -7.8104e-05)
(5.96369e-05 0.00108438 -4.42651e-05)
(5.05063e-05 0.00108805 -1.88412e-05)
(4.01229e-05 0.00106777 -1.60865e-06)
(2.9003e-05 0.00101741 7.62395e-06)
(1.79687e-05 0.000929601 7.78389e-06)
(1.00875e-05 0.000795146 -4.35536e-07)
(3.499e-06 0.000478667 -1.32325e-05)
(-4.05246e-06 0.000520072 6.87532e-06)
(-1.05535e-05 0.000852862 2.88361e-05)
(-1.84464e-05 0.000994739 4.09498e-05)
(-2.93727e-05 0.00108731 4.36486e-05)
(-4.03358e-05 0.00114025 3.67631e-05)
(-5.06686e-05 0.00116112 2.14966e-05)
(-5.97295e-05 0.00115633 -2.31609e-06)
(-6.7283e-05 0.00113132 -3.51916e-05)
(-7.27322e-05 0.00109082 -7.69664e-05)
(-7.50297e-05 0.00103973 -0.000125006)
(-7.42526e-05 0.000983397 -0.000174194)
(-7.03495e-05 0.000926849 -0.000218885)
(-6.33507e-05 0.000874138 -0.000255519)
(-5.35358e-05 0.000828417 -0.000283345)
(-4.18299e-05 0.000791544 -0.000303043)
(-2.88546e-05 0.000764531 -0.000315946)
(-1.49795e-05 0.000748096 -0.000323282)
(-6.77517e-07 0.000742594 -0.000325688)
(1.3629e-05 0.000748163 -0.000323365)
(2.75167e-05 0.000764668 -0.000316114)
(4.05125e-05 0.000791759 -0.000303299)
(5.22445e-05 0.000828722 -0.000283694)
(6.20915e-05 0.000874555 -0.000255981)
(6.91356e-05 0.000927396 -0.000219489)
(7.30994e-05 0.000984099 -0.000174964)
(7.39493e-05 0.00104062 -0.000125924)
(7.17387e-05 0.00109191 -7.79711e-05)
(6.64082e-05 0.00113263 -3.62289e-05)
(5.89674e-05 0.00115781 -3.36803e-06)
(5.00382e-05 0.00116273 2.04428e-05)
(3.98421e-05 0.00114194 3.57378e-05)
(2.90171e-05 0.00108903 4.27029e-05)
(1.82265e-05 0.000996429 4.01739e-05)
(1.04392e-05 0.000854462 2.8323e-05)
(4.00084e-06 0.000520387 6.6575e-06)
(-4.41333e-06 0.000553325 2.26572e-05)
(-1.06949e-05 0.000899317 5.24233e-05)
(-1.84818e-05 0.00104687 6.77615e-05)
(-2.91162e-05 0.00114309 7.281e-05)
(-3.97881e-05 0.00119793 6.78341e-05)
(-4.98261e-05 0.00121915 5.41135e-05)
(-5.87423e-05 0.00121338 3.15809e-05)
(-6.64339e-05 0.00118598 -5.91413e-07)
(-7.18323e-05 0.00114193 -4.21476e-05)
(-7.45761e-05 0.00108624 -8.96547e-05)
(-7.42808e-05 0.00102403 -0.000137685)
(-7.0762e-05 0.000960231 -0.000181169)
(-6.40319e-05 0.000899759 -0.000217048)
(-5.4437e-05 0.000846969 -0.000244314)
(-4.25417e-05 0.00080488 -0.000263802)
(-2.93128e-05 0.000774298 -0.000276426)
(-1.51311e-05 0.000755781 -0.000283505)
(-4.82631e-07 0.000749592 -0.000285804)