/*--------------------------------*- C++ -*----------------------------------*\
| =========                 |                                                 |
| \\      /  F ield         | OpenFOAM: The Open Source CFD Toolbox           |
|  \\    /   O peration     | Version:  v1912                                 |
|   \\  /    A nd           | Website:  www.openfoam.com                      |
|    \\/     M anipulation  |                                                 |
\*---------------------------------------------------------------------------*/
FoamFile
{
    version     2.0;
    format      ascii;
    class       volScalarField;
    location    "278/oil";
    object      wallHeatFlux;
}
// * * * * * * * * * * * * * * * * * * * * * * * * * * * * * * * * * * * * * //

dimensions      [1 0 -3 0 0 0 0];


internalField   uniform 0;

boundaryField
{
    maxY
    {
        type            calculated;
        value           uniform 0;
    }
    minX
    {
        type            calculated;
        value           uniform 0;
    }
    maxX
    {
        type            calculated;
        value           uniform 0;
    }
    minY
    {
        type            calculated;
        value           uniform 0;
    }
    minZ
    {
        type            calculated;
        value           uniform 0;
    }
    maxZ
    {
        type            calculated;
        value           uniform 0;
    }
    oil_to_sphere
    {
        type            calculated;
        value           nonuniform List<scalar> 
1536
(
729.817
792.859
683.653
667.004
459.925
502.453
490.121
148.619
97.9398
856.65
446.896
873.262
899.773
872.543
659.791
453.919
160.783
104.043
-741.379
896.275
856.955
513.631
494.349
465.145
531.813
530.777
531.05
468.578
793.725
775.496
685.23
356.513
268.791
536.243
459.012
450.432
397.113
596.708
514.441
587.336
513.923
451.219
764.235
874.311
788.788
864.001
509.445
512.104
638.395
538.017
516.608
519.243
483.226
502.561
314.362
245.954
496.548
492.893
109.771
-250.865
-172.345
-260.813
-186.573
895.887
904.635
869.485
794.789
868.312
725.488
783.578
541.066
502.829
683.195
518.849
460.039
276.41
232.797
204.162
456.076
103.766
-263.421
-186.225
-349.938
-357.97
-133.008
-177.342
-337.025
155.713
102.552
-252.078
-179.489
-742.582
-740.431
902.42
906.05
876.654
812.32
842.26
872.653
719.047
801.059
535.685
721.518
689.026
510.286
518.218
466.299
211.567
444.283
283.059
226.755
266.951
-253.692
-172.05
-343.575
-332.908
-346.262
-137.624
-177.646
-125.225
108.014
-178.152
-741.693
869.351
718.631
781.743
726.355
775.344
515.703
519.849
529.921
515.549
520.27
508.597
526.384
526.316
502.912
247.488
487.311
483.881
-249.129
-173.838
158.325
109.549
-184.955
95.0328
644.456
642.092
484.679
550.723
682.344
638.777
508.755
528.83
515.574
394.699
324.187
333.909
646.072
621
644.756
712.712
575.951
528.15
451.191
400.519
502.365
417.122
329.832
342.268
749.151
607.693
777.858
592.139
345.784
223.717
651.657
658.365
685.694
630.099
572.348
523.597
402.653
514.111
363.767
345.563
331.292
813.016
631.408
686.353
741.118
651.007
723.963
675.229
375.488
377.773
417.173
426.371
360.509
389.674
415.329
457.187
101.174
71.4038
41.7016
122.783
160.761
144.244
204.739
179.268
78.1394
17.6296
-14.4542
836.832
931.868
904.48
842.192
845.934
855.397
840.488
826.081
876.565
798.767
830.691
831.724
658.255
653.314
784.57
711.842
553.505
404.797
365.66
501.45
377.992
79.8484
111.207
50.0605
125.094
153.993
59.9799
11.5079
-424.354
-484.895
888.501
838.77
856.516
829.756
867.58
934.605
870.659
828.735
622.857
540.022
625.006
638.774
387.589
459.945
86.8424
23.8484
164.054
233.067
196.695
-6.24823
-489.309
-430.979
-604.062
-605.813
-423.016
855.269
823.925
817.852
800.39
829.442
834.326
811.376
861.093
953.843
888.739
824.712
721.73
642.37
647.521
704.168
790.025
717.685
650.848
649.153
398.525
407.604
458.969
473.604
415.115
457.404
51.63
18.3167
67.7535
141.097
112.226
158.807
145.16
148.711
48.1536
3.72763
120.765
64.9856
550.466
482.26
500.634
399.351
364.383
347.059
307.297
764.3
707.046
792.664
752.383
707.514
755.35
776.837
798.205
839.169
770.611
788.722
773.728
922.094
855.519
833.065
791.71
842.611
885.254
829.691
734.096
756.09
779.854
710.586
783.107
801.654
839.175
834.014
874.035
858.78
845.953
811.264
810.554
801.767
811.833
761.821
763.251
718.942
759.978
696.986
717.389
801.184
643.376
750.967
655.387
678.947
628.225
553.892
745.24
646.986
638.539
702.073
556.403
609.755
643.779
545.309
584.741
509.312
661.122
741.809
648.488
656.872
677.99
571.732
615.248
604.637
402.1
436.279
389.977
331.469
290.702
335.937
245.824
215.356
410.411
441.632
402.867
346.425
302.718
365.152
245.712
214.609
191.936
362.758
210.366
344.246
307.261
349.67
245.563
406.221
447.843
396.88
439.674
233.692
195.54
344.376
305.753
358.165
234.447
204.047
141.398
105.816
137.087
103.296
47.8463
50.1699
6.08103
91.6347
25.8557
164.97
-3.62357
14.5795
-25.0685
-69.0603
-5.19518
-30.8755
-100.9
-135.167
-206.3
111.158
81.9244
43.7628
128.116
19.2232
51.1256
-100.61
-141.577
-162.633
-205.409
-21.3728
-62.2114
-2.93343
-28.7836
-42.9052
137.728
102.669
140.103
146.485
50.3366
3.06081
106.204
61.0509
1052.11
977.788
914.232
1034.22
927.583
945.783
981.337
880.672
903.406
930.815
923.91
831.871
883.006
812.633
804.799
784.296
781.876
811.059
795.427
841.984
881.537
754.81
846.368
768.757
808.89
775.059
851.829
788.154
850.437
823.224
866.668
830.068
757.514
796.68
719.963
782.687
632.413
676.899
666.006
519.518
583.13
571.74
658.232
519.209
640.399
509.723
579.659
530.495
463.426
501.724
407.362
378.17
308.877
351.223
331.96
284.377
223.26
350.723
221.706
451.433
395.825
324.882
17.8619
-27.3922
-62.3004
5.20948
-24.8479
81.5414
19.7579
160.541
-10.6627
-105.418
-129.254
-199.583
-297.718
-368.325
-290.931
-365.072
-235.274
-172.722
-237.805
-310.547
-292.577
71.6225
106.369
41.1695
122.358
-15.3169
-60.6628
4.27658
-37.1268
74.1122
14.1154
138.596
194.776
-8.18113
-103.992
-37.5478
-135.647
-205.489
-64.3817
-428.973
-485.885
-421.433
-484.794
-599.668
-600.12
-601.578
-602.409
-489.577
1009.12
901.457
947.161
932.165
905.238
1010.65
946.177
928.544
899.084
837.615
922.376
935.372
964.367
842.502
842.349
884.369
890.657
755.096
826.176
755.921
856.075
815.216
810.607
786.897
825.891
782.978
820.05
861.497
790.036
747.536
727.451
819.937
857.859
754.513
836.933
765.562
720.31
870.334
813.259
804.904
825.163
772.887
772.095
805.65
850.21
775.714
724.063
660.931
635.29
586.1
528.789
593.547
700.054
674.491
662.916
608.69
602.781
567.942
571.064
578.743
517.386
521.176
402.932
497.339
364.789
414.987
350.514
310.876
543.337
460.592
243.629
370.094
220.362
371.069
280.577
221.092
332.57
341.372
331.485
334.373
314.516
509.71
385.548
-104.571
-126.051
-157.795
-197.672
109.687
73.1162
44.9109
124.466
18.8817
51.0627
-56.5384
-2.24361
2.10049
-30.253
-47.6575
-231.944
-231.349
-167.962
-305.683
-295.208
-369.189
-291.196
-289.996
-371.426
-178.412
-242.511
-236.902
-168.579
-309.194
76.1028
17.134
152.497
186.485
-6.84556
-101.231
-34.7886
-141.229
-163.136
-61.0032
58.9543
7.99421
102.437
78.4813
43.2842
124.626
151.244
-63.702
-24.3366
1.6067
-35.2208
-43.2976
-602.937
-599.771
-422.112
-427.809
-482.695
-489.705
-355.043
-429.934
-489.485
706.355
778.376
764.056
701.449
766.582
703.674
700.446
850.723
825.335
884.787
827.633
758.113
803.864
779.629
839.575
788.049
813.239
758.508
761.483
853.861
812.063
792.212
798.852
773.169
771.001
795.541
727.276
717.328
760.373
791.278
754.762
820.626
778.745
882.914
760.393
728.313
745.692
759.527
720.037
705.29
803.385
651.477
580.126
582.254
623.877
522.916
735.297
645.833
642.96
686.476
611.251
613.258
572.689
703.022
632.569
644.576
683.893
561.26
571.235
635.228
621.377
521.908
672.289
730.951
662.61
675.837
616.733
614.457
581.461
580.133
517.075
341.991
302.753
351.694
244.792
230.709
198.589
432.081
378.296
440.852
403.092
302.41
344.464
343.056
232.661
203.035
211.864
406
402.578
447.199
396.968
447.548
228.492
245.81
337.396
296.786
344.681
227.998
201.033
459.528
392.618
397.721
419.708
454.837
244.292
208.998
307.72
352.734
351.948
102.013
141.356
48.8891
43.8156
-0.454807
137.928
105.033
142.695
-21.9716
-63.5047
-0.175326
-36.3575
-89.9249
-19.671
-128.749
-201.24
-54.3994
76.8644
102.078
40.3779
126.169
190.141
271.348
107.893
39.0466
2.51204
22.2515
80.8078
-102.045
-41.3754
-137.375
-151.998
-69.2322
-17.0282
-57.7529
-7.12282
-21.0608
-42.6666
140.309
188.189
80.4522
18.0693
-11.3219
125.608
158.45
78.4211
109.222
48.7731
691.33
654.459
231.807
174.86
870.921
813.67
852.536
865.45
851.914
638.51
726.913
695.529
725.297
447.079
519.005
175.088
-358.886
-400.933
686.363
683.072
153.041
-355.179
-405.592
-250.177
866.389
651.771
493.749
-259.737
728.191
676.222
709.266
441.447
530.61
514.547
147.825
690.353
727.891
511.629
526.749
713.317
507.14
521.534
420.451
460.496
204.444
271.27
321.972
655.777
697.556
498.531
572.37
438.523
488.531
204.706
270.015
284.941
645.475
719.675
503.753
603.738
303.589
213.213
290.584
405.743
578.387
562.293
714.557
734.841
526.54
516.943
494.31
519.819
281.295
213.822
281.262
159.122
934.352
896.538
717.609
842.018
712.592
875.814
856.834
523.027
660.561
657.673
684.208
654.024
503.699
296.667
269.405
268.919
277.778
273.551
255.422
-91.1307
174.099
-123.443
-83.554
904.573
860.304
917.919
869.979
904.069
879.29
904.206
893.98
923.233
884.95
716.481
845.959
715.03
779.445
719.533
501.467
587.727
643.426
747.214
535.994
699.884
500.602
212.59
282.247
304.393
226.53
265.802
265.419
160.618
-85.6607
-146.366
-180.678
-163.384
172.47
-93.4752
-396.176
-393.14
-402.131
934.036
901.754
882.177
956.239
890.106
919.637
883.42
938.125
913.12
723.275
842.211
693.491
862.869
854.627
811.987
851.112
798.65
705.713
740.581
496.154
632.036
745.915
654.26
729.619
526.583
206.95
288.065
434.097
512.007
254.773
320.522
222.769
277.511
491.86
177.565
-89.6505
-189.379
-144.515
-183.192
167.905
-93.9227
-393.078
-401.246
-398.533
898.355
771.169
729.334
868.956
706.929
523.71
683.925
662.157
660.523
654.198
261.674
323.758
258.333
257.895
263.209
-93.1929
187.847
-78.9125
187.314
710.275
639.504
569.477
633.335
722.448
650.979
351.108
403.091
347.859
671.505
719.905
665.112
594.88
720.152
556.986
626.358
613.919
550.816
663.25
607.929
711.881
580.292
609.233
611.418
577.347
453.69
439.171
356.017
353.109
296.198
227.023
340.871
278.222
314.256
716.929
627.669
585.373
629.096
693.626
551.679
567.357
573.538
485.019
622.177
401.27
479.6
457.212
364.372
369.401
307.145
227.302
331.552
270.261
316.421
634.776
692.134
551.801
556.805
582.544
473.307
618.574
444.297
349.951
269.35
354.024
312.415
339.51
807.458
811.63
799.713
820.658
572.878
702.244
669.155
407.275
409.057
458.871
450.961
445.913
146.549
211.367
193.841
66.6774
42.9581
221.152
161.303
159.143
821.156
837.185
862.252
799.793
598.716
663.405
565.728
730.696
649.688
443.505
441.517
365.817
155.957
241.951
193.896
71.1623
-232.908
-221.686
-306.208
-296.092
-370.574
-419.745
822.299
813.111
812.479
789.219
848.145
632.788
700.22
670.56
395.124
45.84
205.928
-296.325
-371.193
-423.658
-504.228
-206.283
820.512
828.412
862.436
817.586
846.951
845.123
825.28
809.226
849.074
556.706
615.769
779.42
653.655
451.301
451.531
155.658
210.849
149.589
107.597
191.799
62.0054
-200.418
444.088
194.479
754.003
726.391
635.047
637.888
445.648
391.821
427.517
332.396
266.39
345.635
275.827
277.734
248.944
929.687
900.541
680.726
691.846
759.895
807.766
792.907
807.628
697.756
756.609
733.429
790.088
698.956
750.83
831.837
798.851
804.955
798.974
691.546
730.069
750.97
782.783
818.376
852.971
826.571
843.995
769.916
694.891
743.93
850.823
823.313
855.313
825.479
700.325
810.764
839.59
789.761
728.707
753.094
733.293
633.138
597.118
752.568
635.794
576.336
573.972
500.393
510.088
506.435
591.758
721.906
662.503
522.882
515.105
577.239
524.908
592.246
697.755
619.618
515.967
467.952
455.53
323.227
345.377
225.809
458.148
324.826
358.148
236.95
414.567
458.912
330.689
234.615
452.1
297.118
332.417
152.338
150.887
44.2878
52.4954
-45.4334
-38.5146
55.998
-32.4587
-57.0104
-136.321
-168.017
-171.407
-121.56
140.958
68.7336
-37.0536
-67.7548
-129.905
-126.152
-172.384
108.127
154.52
-40.8089
943.192
875.084
909.859
836.499
869.219
942.482
813.695
1013.15
873.455
891.69
881.326
944.741
886.438
936.843
1017.5
947.013
872.403
921.054
768.963
818.12
893.372
841.837
716.033
802.928
754.666
827.826
796.593
819.698
797.122
853.904
757.819
686.097
721.544
768.127
848.592
810.332
804.293
771.064
560.904
609.322
517.011
637.261
690.602
566.066
609.042
625.751
639.478
647.358
699.802
573.181
401.782
353.802
304.13
369.318
449.605
263.635
281.679
340.934
407.996
350.439
292.311
223.798
-123.52
-152.734
-162.614
42.4117
-37.591
-67.3928
-132.854
141.646
169.048
-130.757
-161.572
44.557
-127.907
-420.608
-418.353
-495.783
-355.042
-500.992
-410.921
-336.832
959.086
871.878
981.02
916.641
909.451
858.674
872.378
813.935
930.863
982.24
935.991
876.463
861.249
844.246
887.815
891.154
889.894
768.898
855.845
749.368
841.027
855.43
813.597
676.671
836.47
782.46
813.092
800.356
766.965
802.505
800.661
717.328
749.742
694.876
613.575
714.558
638.005
570.145
545.023
478.322
579.554
707.601
619.319
624.787
427.195
277.591
297.139
391.37
383.053
317.879
370.009
360.337
346.517
292.825
438.712
444.2
-36.4991
-64.7575
-129.324
155.102
73.7382
-128.892
-165.414
48.9383
-124.589
143.456
-135.185
-499.841
-412.134
-336.244
941.657
817.03
710.356
796.718
703.556
710.075
746.667
848.378
817.334
806.927
716.426
756.668
781.548
770.393
826.239
800.965
815.125
798.862
768.979
692.847
796.964
743.98
731.518
645.548
522.538
604.04
751.423
630.183
574.053
510.07
509.847
587.26
709.831
512.46
582.175
706.084
523.34
319.486
243.639
421.398
455.749
425.091
317.443
361.797
443.471
300.174
450.456
300.525
-49.1327
152.561
-132.986
-163.109
-115.76
145.381
207.05
55.6334
-132.074
-116.711
40.4107
148.028
)
;
    }
}


// ************************************************************************* //
