/*--------------------------------*- C++ -*----------------------------------*\
| =========                 |                                                 |
| \\      /  F ield         | OpenFOAM: The Open Source CFD Toolbox           |
|  \\    /   O peration     | Version:  v1906                                 |
|   \\  /    A nd           | Web:      www.OpenFOAM.com                      |
|    \\/     M anipulation  |                                                 |
\*---------------------------------------------------------------------------*/
FoamFile
{
    version     2.0;
    format      ascii;
    class       volVectorField;
    location    "35/oil";
    object      U;
}
// * * * * * * * * * * * * * * * * * * * * * * * * * * * * * * * * * * * * * //

dimensions      [0 1 -1 0 0 0 0];


internalField   nonuniform List<vector> 
27760
(
(-2.7213e-05 -2.77581e-05 -2.7213e-05)
(-5.3737e-05 -2.08284e-05 -1.95936e-05)
(-3.97267e-06 -5.4113e-06 -5.33882e-06)
(-6.52907e-06 -8.95728e-07 -9.45467e-07)
(-1.5547e-06 -3.00101e-07 -3.55399e-07)
(-8.38496e-07 -1.39792e-07 -1.95389e-07)
(-1.95731e-07 -4.44621e-08 -1.02405e-07)
(9.94925e-08 -5.95051e-09 -6.69047e-08)
(2.61492e-07 1.42573e-08 -4.92023e-08)
(3.34576e-07 2.56218e-08 -3.97136e-08)
(3.4802e-07 3.30824e-08 -3.33871e-08)
(3.15941e-07 3.8322e-08 -2.87706e-08)
(2.48251e-07 4.19741e-08 -2.53483e-08)
(1.54065e-07 4.44327e-08 -2.29544e-08)
(4.30704e-08 4.57381e-08 -2.16526e-08)
(-7.45792e-08 4.59037e-08 -2.14867e-08)
(-1.88695e-07 4.49775e-08 -2.2408e-08)
(-2.8983e-07 4.30636e-08 -2.42518e-08)
(-3.70107e-07 4.03259e-08 -2.67392e-08)
(-4.23816e-07 3.69448e-08 -2.95176e-08)
(-4.47952e-07 3.30056e-08 -3.22402e-08)
(-4.42354e-07 2.87478e-08 -3.44657e-08)
(-4.09223e-07 2.44172e-08 -3.56313e-08)
(-3.53085e-07 2.0052e-08 -3.54647e-08)
(-2.80638e-07 1.57399e-08 -3.36585e-08)
(-2.00187e-07 1.16545e-08 -2.9969e-08)
(-1.21356e-07 8.15668e-09 -2.44002e-08)
(-5.46899e-08 5.93593e-09 -1.74068e-08)
(-1.00482e-08 6.01166e-09 -1.03742e-08)
(3.79757e-09 7.36994e-09 -3.69279e-09)
(-1.97512e-05 -5.52077e-05 -1.97512e-05)
(-6.52229e-06 -7.10484e-06 -8.84575e-06)
(-8.88565e-06 -8.57465e-06 -3.09005e-06)
(-4.25721e-06 -2.39096e-06 -8.80229e-07)
(-1.8742e-06 -1.39734e-06 -4.32721e-07)
(-8.02401e-07 -7.02535e-07 -2.08114e-07)
(-6.19783e-08 -4.07348e-07 -9.90209e-08)
(3.56506e-07 -2.52054e-07 -4.74927e-08)
(5.99967e-07 -1.65203e-07 -1.84706e-08)
(7.12083e-07 -1.09935e-07 -3.56877e-10)
(7.22421e-07 -7.08326e-08 1.27531e-08)
(6.48652e-07 -4.14898e-08 2.29316e-08)
(5.06474e-07 -1.96043e-08 3.0849e-08)
(3.12421e-07 -4.50809e-09 3.63986e-08)
(8.49575e-08 3.7337e-09 3.93893e-08)
(-1.55791e-07 5.09055e-09 3.97094e-08)
(-3.89439e-07 -1.37007e-10 3.74416e-08)
(-5.97015e-07 -1.11966e-08 3.29056e-08)
(-7.62687e-07 -2.69048e-08 2.66386e-08)
(-8.75136e-07 -4.57847e-08 1.93455e-08)
(-9.2825e-07 -6.62811e-08 1.18507e-08)
(-9.21426e-07 -8.67398e-08 4.89098e-09)
(-8.59341e-07 -1.05497e-07 -8.19217e-10)
(-7.51297e-07 -1.21096e-07 -4.70891e-09)
(-6.10417e-07 -1.31879e-07 -6.36305e-09)
(-4.52766e-07 -1.35754e-07 -5.61578e-09)
(-2.96266e-07 -1.29817e-07 -2.72021e-09)
(-1.59131e-07 -1.10204e-07 1.37988e-09)
(-5.76253e-08 -7.24929e-08 4.52567e-09)
(-3.79619e-09 -1.99113e-08 3.95225e-09)
(-5.47224e-06 -5.09744e-06 -5.47221e-06)
(-8.68561e-06 -9.49936e-06 -3.17294e-06)
(-4.68075e-06 -5.16699e-06 -1.40447e-06)
(-2.95859e-06 -2.78575e-06 -6.65829e-07)
(-1.38993e-06 -1.79491e-06 -3.14378e-07)
(-4.63021e-07 -1.18392e-06 -1.42422e-07)
(1.96996e-07 -8.68447e-07 -5.37849e-08)
(6.12836e-07 -6.80778e-07 -6.61399e-09)
(8.63777e-07 -5.6085e-07 2.24965e-08)
(9.76424e-07 -4.75498e-07 4.27062e-08)
(9.71561e-07 -4.09933e-07 5.84784e-08)
(8.64439e-07 -3.57936e-07 7.12911e-08)
(6.71578e-07 -3.17669e-07 8.14252e-08)
(4.12648e-07 -2.8934e-07 8.86007e-08)
(1.10912e-07 -2.73614e-07 9.24698e-08)
(-2.07797e-07 -2.70789e-07 9.28384e-08)
(-5.17067e-07 -2.80335e-07 8.97881e-08)
(-7.92242e-07 -3.00725e-07 8.37131e-08)
(-1.01273e-06 -3.29504e-07 7.52886e-08)
(-1.1638e-06 -3.63548e-07 6.5386e-08)
(-1.23763e-06 -3.99345e-07 5.49642e-08)
(-1.23357e-06 -4.33357e-07 4.49465e-08)
(-1.1577e-06 -4.62029e-07 3.61468e-08)
(-1.02198e-06 -4.81768e-07 2.91975e-08)
(-8.43005e-07 -4.88597e-07 2.44784e-08)
(-6.40645e-07 -4.77713e-07 2.20415e-08)
(-4.3647e-07 -4.42861e-07 2.14594e-08)
(-2.51385e-07 -3.76003e-07 2.14952e-08)
(-1.04707e-07 -2.67e-07 1.96739e-08)
(-1.09549e-08 -1.0861e-07 1.11546e-08)
(-9.9736e-07 -7.3004e-06 -9.97323e-07)
(-2.37692e-06 -5.28e-06 -9.12084e-07)
(-2.14196e-06 -4.14274e-06 -6.65991e-07)
(-1.47646e-06 -2.86783e-06 -3.55346e-07)
(-6.30408e-07 -2.17175e-06 -1.72666e-07)
(1.17239e-08 -1.71252e-06 -6.91974e-08)
(5.21961e-07 -1.43817e-06 -8.25788e-09)
(8.77185e-07 -1.25451e-06 2.89942e-08)
(1.09818e-06 -1.12258e-06 5.50163e-08)
(1.1906e-06 -1.0189e-06 7.51856e-08)
(1.16296e-06 -9.33168e-07 9.20823e-08)
(1.02536e-06 -8.61772e-07 1.06378e-07)
(7.92815e-07 -8.04821e-07 1.17905e-07)
(4.85955e-07 -7.64005e-07 1.26146e-07)
(1.30646e-07 -7.41069e-07 1.3059e-07)
(-2.43685e-07 -7.36826e-07 1.30962e-07)
(-6.06657e-07 -7.50592e-07 1.27334e-07)
(-9.29798e-07 -7.80002e-07 1.20147e-07)
(-1.18933e-06 -8.2115e-07 1.10181e-07)
(-1.36836e-06 -8.69031e-07 9.84269e-08)
(-1.45799e-06 -9.18014e-07 8.59589e-08)
(-1.45763e-06 -9.62279e-07 7.38033e-08)
(-1.37436e-06 -9.95965e-07 6.28352e-08)
(-1.22175e-06 -1.01309e-06 5.37076e-08)
(-1.01833e-06 -1.00706e-06 4.67718e-08)
(-7.85899e-07 -9.70108e-07 4.20194e-08)
(-5.47738e-07 -8.92261e-07 3.89502e-08)
(-3.26014e-07 -7.60335e-07 3.61591e-08)
(-1.42778e-07 -5.55162e-07 3.09496e-08)
(-1.64707e-08 -2.46721e-07 1.67235e-08)
(-3.39621e-07 -2.36987e-06 -3.39574e-07)
(-1.21255e-06 -3.3323e-06 -4.18745e-07)
(-1.01162e-06 -3.27512e-06 -3.02138e-07)
(-6.14155e-07 -2.8396e-06 -1.6765e-07)
(-7.52953e-08 -2.51719e-06 -7.37969e-08)
(4.02582e-07 -2.2581e-06 -1.32917e-08)
(8.09189e-07 -2.07134e-06 2.72829e-08)
(1.10961e-06 -1.92433e-06 5.59359e-08)
(1.29761e-06 -1.80191e-06 7.87618e-08)
(1.36636e-06 -1.69404e-06 9.84011e-08)
(1.3158e-06 -1.59742e-06 1.15953e-07)
(1.15169e-06 -1.51274e-06 1.31366e-07)
(8.87252e-07 -1.44307e-06 1.4404e-07)
(5.43306e-07 -1.39222e-06 1.53192e-07)
(1.47306e-07 -1.36336e-06 1.58125e-07)
(-2.68838e-07 -1.35801e-06 1.58476e-07)
(-6.71898e-07 -1.37542e-06 1.54301e-07)
(-1.03063e-06 -1.41247e-06 1.46088e-07)
(-1.31899e-06 -1.4638e-06 1.34734e-07)
(-1.51859e-06 -1.52253e-06 1.2135e-07)
(-1.61994e-06 -1.58084e-06 1.07141e-07)
(-1.62266e-06 -1.63066e-06 9.32329e-08)
(-1.53458e-06 -1.66377e-06 8.05586e-08)
(-1.37036e-06 -1.6718e-06 6.97892e-08)
(-1.14974e-06 -1.64559e-06 6.12672e-08)
(-8.95525e-07 -1.57426e-06 5.49479e-08)
(-6.31971e-07 -1.44378e-06 5.02928e-08)
(-3.82163e-07 -1.23454e-06 4.57807e-08)
(-1.7077e-07 -9.14886e-07 3.8518e-08)
(-2.02764e-08 -4.22449e-07 2.05859e-08)
(-1.52829e-07 -1.81863e-06 -1.52772e-07)
(-4.37752e-07 -2.77921e-06 -1.73005e-07)
(-3.18173e-07 -3.08453e-06 -1.22351e-07)
(-4.78258e-08 -3.05957e-06 -6.17212e-08)
(3.33319e-07 -2.98115e-06 -1.25088e-08)
(7.08858e-07 -2.87686e-06 2.364e-08)
(1.04389e-06 -2.77496e-06 5.16637e-08)
(1.30046e-06 -2.67298e-06 7.47339e-08)
(1.45934e-06 -2.57096e-06 9.55349e-08)
(1.50635e-06 -2.46903e-06 1.15063e-07)
(1.43574e-06 -2.37005e-06 1.33442e-07)
(1.24994e-06 -2.27891e-06 1.50072e-07)
(9.60582e-07 -2.20167e-06 1.63972e-07)
(5.883e-07 -2.14428e-06 1.74093e-07)
(1.61618e-07 -2.11143e-06 1.79544e-07)
(-2.85765e-07 -2.10536e-06 1.79865e-07)
(-7.18505e-07 -2.12536e-06 1.75097e-07)
(-1.10328e-06 -2.16765e-06 1.65786e-07)
(-1.41238e-06 -2.22563e-06 1.52964e-07)
(-1.62643e-06 -2.29069e-06 1.37899e-07)
(-1.73571e-06 -2.35313e-06 1.21955e-07)
(-1.74014e-06 -2.40274e-06 1.0637e-07)
(-1.64826e-06 -2.42923e-06 9.2143e-08)
(-1.4756e-06 -2.42202e-06 7.99809e-08)
(-1.24262e-06 -2.36944e-06 7.02245e-08)
(-9.72784e-07 -2.25748e-06 6.28053e-08)
(-6.90938e-07 -2.0676e-06 5.71516e-08)
(-4.20933e-07 -1.77249e-06 5.16512e-08)
(-1.896e-07 -1.32511e-06 4.32327e-08)
(-2.2699e-08 -6.24261e-07 2.30639e-08)
(-4.87681e-08 -1.42069e-06 -4.87016e-08)
(-1.11762e-07 -2.59448e-06 -5.54007e-08)
(3.20894e-08 -3.17215e-06 -3.20489e-08)
(2.76788e-07 -3.42018e-06 -3.02365e-09)
(5.95407e-07 -3.5282e-06 2.39452e-08)
(9.19029e-07 -3.55263e-06 4.68935e-08)
(1.21184e-06 -3.53159e-06 6.7715e-08)
(1.43872e-06 -3.4794e-06 8.7533e-08)
(1.57604e-06 -3.40624e-06 1.07334e-07)
(1.60633e-06 -3.31955e-06 1.27197e-07)
(1.52067e-06 -3.22714e-06 1.46622e-07)
(1.31924e-06 -3.13739e-06 1.64604e-07)
(1.01241e-06 -3.05887e-06 1.7983e-07)
(6.20601e-07 -2.99946e-06 1.90989e-07)
(1.72966e-07 -2.96512e-06 1.96984e-07)
(-2.95525e-07 -2.95874e-06 1.97274e-07)
(-7.48078e-07 -2.9797e-06 1.91881e-07)
(-1.14988e-06 -3.02378e-06 1.81406e-07)
(-1.47209e-06 -3.08342e-06 1.67037e-07)
(-1.69479e-06 -3.14873e-06 1.50227e-07)
(-1.80826e-06 -3.20845e-06 1.32514e-07)
(-1.81289e-06 -3.25081e-06 1.15265e-07)
(-1.71792e-06 -3.26379e-06 9.95717e-08)
(-1.53953e-06 -3.23491e-06 8.61621e-08)
(-1.29868e-06 -3.15018e-06 7.53833e-08)
(-1.01913e-06 -2.99242e-06 6.7142e-08)
(-7.26035e-07 -2.73815e-06 6.0837e-08)
(-4.43725e-07 -2.35136e-06 5.47885e-08)
(-2.00425e-07 -1.76747e-06 4.57803e-08)
(-2.40261e-08 -8.42406e-07 2.44428e-08)
(-9.34792e-09 -1.38612e-06 -9.27364e-09)
(4.50186e-08 -2.72541e-06 -3.32264e-09)
(2.17445e-07 -3.48111e-06 1.09629e-08)
(4.60893e-07 -3.90576e-06 2.71484e-08)
(7.5226e-07 -4.14939e-06 4.37395e-08)
(1.04726e-06 -4.27621e-06 6.01169e-08)
(1.31361e-06 -4.32768e-06 7.72038e-08)
(1.5199e-06 -4.32631e-06 9.54049e-08)
(1.6417e-06 -4.28796e-06 1.14934e-07)
(1.66033e-06 -4.22473e-06 1.35412e-07)
(1.56521e-06 -4.14767e-06 1.55968e-07)
(1.35506e-06 -4.06757e-06 1.75295e-07)
(1.03924e-06 -3.9948e-06 1.91807e-07)
(6.37765e-07 -3.93852e-06 2.0397e-07)
(1.80056e-07 -3.90556e-06 2.10487e-07)
(-2.98293e-07 -3.89925e-06 2.10743e-07)
(-7.59799e-07 -3.91906e-06 2.04749e-07)
(-1.16886e-06 -3.96059e-06 1.93157e-07)
(-1.49605e-06 -4.01578e-06 1.77315e-07)
(-1.72133e-06 -4.07397e-06 1.58851e-07)
(-1.83528e-06 -4.12305e-06 1.39479e-07)
(-1.83886e-06 -4.15017e-06 1.20706e-07)
(-1.7419e-06 -4.14213e-06 1.03713e-07)
(-1.56098e-06 -4.08492e-06 8.92453e-08)
(-1.31729e-06 -3.96254e-06 7.7648e-08)
(-1.03456e-06 -3.75459e-06 6.87986e-08)
(-7.37821e-07 -3.43234e-06 6.20796e-08)
(-4.51405e-07 -2.95044e-06 5.57656e-08)
(-2.04014e-07 -2.22548e-06 4.65662e-08)
(-2.44358e-08 -1.06844e-06 2.48985e-08)
(8.18621e-09 -1.47335e-06 8.26699e-09)
(1.15803e-07 -2.99209e-06 2.07174e-08)
(3.06382e-07 -3.89745e-06 3.12897e-08)
(5.50776e-07 -4.45715e-06 4.18179e-08)
(8.26776e-07 -4.80919e-06 5.34171e-08)
(1.10246e-06 -5.02252e-06 6.64539e-08)
(1.34944e-06 -5.14093e-06 8.15611e-08)
(1.53982e-06 -5.19141e-06 9.89109e-08)
(1.64997e-06 -5.19312e-06 1.18384e-07)
(1.66122e-06 -5.16077e-06 1.39371e-07)
(1.56231e-06 -5.1074e-06 1.60796e-07)
(1.35103e-06 -5.04511e-06 1.81154e-07)
(1.03589e-06 -4.98514e-06 1.98656e-07)
(6.36275e-07 -4.93719e-06 2.11587e-07)
(1.81284e-07 -4.9085e-06 2.18478e-07)
(-2.93719e-07 -4.90253e-06 2.18701e-07)
(-7.51495e-07 -4.91888e-06 2.12261e-07)
(-1.15655e-06 -4.95323e-06 1.99801e-07)
(-1.47961e-06 -4.99751e-06 1.82811e-07)
(-1.70099e-06 -5.04091e-06 1.63073e-07)
(-1.81174e-06 -5.07107e-06 1.42455e-07)
(-1.81341e-06 -5.0748e-06 1.22564e-07)
(-1.71625e-06 -5.0383e-06 1.04633e-07)
(-1.53694e-06 -4.94647e-06 8.94348e-08)
(-1.29649e-06 -4.78153e-06 7.73005e-08)
(-1.01807e-06 -4.52001e-06 6.80938e-08)
(-7.2607e-07 -4.12785e-06 6.11743e-08)
(-4.44223e-07 -3.54994e-06 5.48176e-08)
(-2.00716e-07 -2.68363e-06 4.57635e-08)
(-2.40116e-08 -1.29456e-06 2.45144e-08)
(1.50055e-08 -1.61911e-06 1.50914e-08)
(1.43216e-07 -3.32307e-06 3.02941e-08)
(3.37981e-07 -4.3622e-06 3.92125e-08)
(5.76152e-07 -5.03293e-06 4.71756e-08)
(8.36059e-07 -5.47568e-06 5.62999e-08)
(1.09252e-06 -5.76444e-06 6.75141e-08)
(1.32064e-06 -5.94533e-06 8.13902e-08)
(1.49567e-06 -6.04808e-06 9.80313e-08)
(1.5956e-06 -6.09374e-06 1.17219e-07)
(1.60257e-06 -6.09839e-06 1.38244e-07)
(1.50526e-06 -6.07578e-06 1.59927e-07)
(1.30093e-06 -6.03828e-06 1.80668e-07)
(9.97275e-07 -5.99719e-06 1.98549e-07)
(6.12655e-07 -5.96214e-06 2.11769e-07)
(1.75101e-07 -5.94022e-06 2.18775e-07)
(-2.81249e-07 -5.93482e-06 2.18965e-07)
(-7.20709e-07 -5.94563e-06 2.12336e-07)
(-1.10896e-06 -5.9686e-06 1.9949e-07)
(-1.41768e-06 -5.99605e-06 1.81996e-07)
(-1.62809e-06 -6.0177e-06 1.61699e-07)
(-1.73198e-06 -6.02156e-06 1.40545e-07)
(-1.73138e-06 -5.99474e-06 1.20216e-07)
(-1.63662e-06 -5.92339e-06 1.01965e-07)
(-1.46408e-06 -5.79186e-06 8.65611e-08)
(-1.23392e-06 -5.5808e-06 7.431e-08)
(-9.68278e-07 -5.2639e-06 6.50612e-08)
(-6.90195e-07 -4.80186e-06 5.8192e-08)
(-4.22053e-07 -4.12994e-06 5.20277e-08)
(-1.90576e-07 -3.12657e-06 4.34252e-08)
(-2.27751e-08 -1.51317e-06 2.33127e-08)
(1.68024e-08 -1.78176e-06 1.68884e-08)
(1.46006e-07 -3.667e-06 3.23895e-08)
(3.31643e-07 -4.82787e-06 4.01777e-08)
(5.53338e-07 -5.59408e-06 4.66974e-08)
(7.90741e-07 -6.11521e-06 5.43383e-08)
(1.02308e-06 -6.47096e-06 6.42395e-08)
(1.22876e-06 -6.71024e-06 7.6946e-08)
(1.38613e-06 -6.86462e-06 9.25656e-08)
(1.47537e-06 -6.95621e-06 1.10838e-07)
(1.48e-06 -7.00156e-06 1.31049e-07)
(1.38925e-06 -7.01424e-06 1.52009e-07)
(1.20017e-06 -7.00622e-06 1.72116e-07)
(9.1956e-07 -6.98819e-06 1.89459e-07)
(5.64277e-07 -6.96915e-06 2.02263e-07)
(1.60368e-07 -6.95565e-06 2.08982e-07)
(-2.60517e-07 -6.95091e-06 2.09137e-07)
(-6.65566e-07 -6.95469e-06 2.02724e-07)
(-1.02294e-06 -6.96339e-06 1.9021e-07)
(-1.30629e-06 -6.96994e-06 1.73138e-07)
(-1.49834e-06 -6.96497e-06 1.53315e-07)
(-1.59179e-06 -6.93742e-06 1.32698e-07)
(-1.58894e-06 -6.87513e-06 1.12924e-07)
(-1.49985e-06 -6.76477e-06 9.52124e-08)
(-1.33997e-06 -6.59053e-06 8.03073e-08)
(-1.12801e-06 -6.33195e-06 6.84989e-08)
(-8.84272e-07 -5.96013e-06 5.96322e-08)
(-6.29764e-07 -5.43087e-06 5.31049e-08)
(-3.84807e-07 -4.67027e-06 4.73782e-08)
(-1.73625e-07 -3.53891e-06 3.95562e-08)
(-2.07268e-08 -1.71673e-06 2.12943e-08)
(1.58505e-08 -1.93884e-06 1.59392e-08)
(1.33243e-07 -3.99048e-06 3.0103e-08)
(2.98021e-07 -5.25909e-06 3.67542e-08)
(4.9249e-07 -6.10717e-06 4.21603e-08)
(6.98681e-07 -6.69574e-06 4.85864e-08)
(8.99553e-07 -7.11047e-06 5.71869e-08)
(1.07697e-06 -7.40299e-06 6.84498e-08)
(1.21267e-06 -7.60641e-06 8.2482e-08)
(1.28949e-06 -7.74328e-06 9.90289e-08)
(1.29297e-06 -7.82998e-06 1.17428e-07)
(1.21336e-06 -7.87937e-06 1.36564e-07)
(1.04775e-06 -7.90251e-06 1.54934e-07)
(8.01889e-07 -7.90912e-06 1.70749e-07)
(4.90536e-07 -7.9072e-06 1.82395e-07)
(1.3673e-07 -7.90268e-06 1.88431e-07)
(-2.31625e-07 -7.89867e-06 1.88547e-07)
(-5.85917e-07 -7.89496e-06 1.82728e-07)
(-8.98095e-07 -7.8882e-06 1.71277e-07)
(-1.1448e-06 -7.87216e-06 1.55641e-07)
(-1.31091e-06 -7.83847e-06 1.37447e-07)
(-1.39032e-06 -7.77735e-06 1.18522e-07)
(-1.38547e-06 -7.67786e-06 1.00387e-07)
(-1.30562e-06 -7.52745e-06 8.4176e-08)
(-1.1646e-06 -7.31044e-06 7.05667e-08)
(-9.78986e-07 -7.00566e-06 5.98144e-08)
(-7.66477e-07 -6.58209e-06 5.17826e-08)
(-5.45252e-07 -5.99112e-06 4.59324e-08)
(-3.32823e-07 -5.15069e-06 4.09139e-08)
(-1.50019e-07 -3.90531e-06 3.4189e-08)
(-1.78795e-08 -1.89769e-06 1.84713e-08)
(1.32526e-08 -2.07545e-06 1.33344e-08)
(1.09683e-07 -4.2686e-06 2.49888e-08)
(2.43586e-07 -5.62723e-06 3.02903e-08)
(4.00743e-07 -6.54281e-06 3.4583e-08)
(5.66646e-07 -7.18735e-06 3.97589e-08)
(7.28041e-07 -7.65202e-06 4.68169e-08)
(8.70639e-07 -7.99086e-06 5.61743e-08)
(9.79943e-07 -8.23816e-06 6.79178e-08)
(1.04205e-06 -8.41654e-06 8.1822e-08)
(1.04506e-06 -8.54184e-06 9.73159e-08)
(9.80708e-07 -8.626e-06 1.1344e-07)
(8.46283e-07 -8.67875e-06 1.28918e-07)
(6.46288e-07 -8.7086e-06 1.42184e-07)
(3.92715e-07 -8.72274e-06 1.51899e-07)
(1.04547e-07 -8.72662e-06 1.56859e-07)
(-1.95239e-07 -8.72328e-06 1.56922e-07)
(-4.83314e-07 -8.71258e-06 1.52085e-07)
(-7.36587e-07 -8.69128e-06 1.42472e-07)
(-9.3583e-07 -8.65368e-06 1.29292e-07)
(-1.06881e-06 -8.59249e-06 1.1391e-07)
(-1.13079e-06 -8.49924e-06 9.7899e-08)
(-1.12424e-06 -8.36431e-06 8.25574e-08)
(-1.0571e-06 -8.17616e-06 6.88685e-08)
(-9.40957e-07 -7.91962e-06 5.73895e-08)
(-7.89472e-07 -7.57308e-06 4.83491e-08)
(-6.17015e-07 -7.10381e-06 4.16281e-08)
(-4.38227e-07 -6.45971e-06 3.67871e-08)
(-2.67095e-07 -5.55182e-06 3.27287e-08)
(-1.20213e-07 -4.21107e-06 2.74065e-08)
(-1.42886e-08 -2.04883e-06 1.49019e-08)
(9.55277e-09 -2.18122e-06 9.63375e-09)
(7.82617e-08 -4.48253e-06 1.79407e-08)
(1.73161e-07 -5.90939e-06 2.16618e-08)
(2.8439e-07 -6.87607e-06 2.4718e-08)
(4.01795e-07 -7.56365e-06 2.84969e-08)
(5.16305e-07 -8.06761e-06 3.37421e-08)
(6.17924e-07 -8.44394e-06 4.07481e-08)
(6.96366e-07 -8.72771e-06 4.96038e-08)
(7.41577e-07 -8.94136e-06 6.01573e-08)
(7.44669e-07 -9.09992e-06 7.19825e-08)
(6.99313e-07 -9.2142e-06 8.4341e-08)
(6.0302e-07 -9.29273e-06 9.62498e-08)
(4.58658e-07 -9.34279e-06 1.06475e-07)
(2.74733e-07 -9.37077e-06 1.13995e-07)
(6.52067e-08 -9.38179e-06 1.17821e-07)
(-1.5275e-07 -9.37902e-06 1.17827e-07)
(-3.61664e-07 -9.36234e-06 1.14014e-07)
(-5.44297e-07 -9.32845e-06 1.06498e-07)
(-6.86571e-07 -9.27208e-06 9.62749e-08)
(-7.79889e-07 -9.18682e-06 8.43952e-08)
(-8.21246e-07 -9.06547e-06 7.21092e-08)
(-8.13028e-07 -8.89968e-06 6.03863e-08)
(-7.61509e-07 -8.67903e-06 4.99737e-08)
(-6.75449e-07 -8.389e-06 4.12935e-08)
(-5.6487e-07 -8.00794e-06 3.44964e-08)
(-4.40173e-07 -7.50189e-06 2.94837e-08)
(-3.11766e-07 -6.81607e-06 2.5944e-08)
(-1.89497e-07 -5.8563e-06 2.30804e-08)
(-8.50392e-08 -4.44309e-06 1.94105e-08)
(-1.00465e-08 -2.16366e-06 1.06747e-08)
(5.11184e-09 -2.24859e-06 5.18347e-09)
(4.1251e-08 -4.61794e-06 9.5389e-09)
(9.10086e-08 -6.08768e-06 1.14672e-08)
(1.49586e-07 -7.08707e-06 1.31505e-08)
(2.11936e-07 -7.80316e-06 1.53537e-08)
(2.73496e-07 -8.33424e-06 1.84971e-08)
(3.29011e-07 -8.73756e-06 2.27723e-08)
(3.72855e-07 -9.04842e-06 2.82415e-08)
(3.99264e-07 -9.28898e-06 3.48178e-08)
(4.02818e-07 -9.47354e-06 4.2273e-08)
(3.7932e-07 -9.6118e-06 5.01611e-08)
(3.2657e-07 -9.71112e-06 5.789e-08)
(2.45555e-07 -9.77768e-06 6.4649e-08)
(1.40728e-07 -9.81714e-06 6.97302e-08)
(2.015e-08 -9.83409e-06 7.23525e-08)
(-1.05481e-07 -9.83172e-06 7.22921e-08)
(-2.24983e-07 -9.80995e-06 6.95677e-08)
(-3.27672e-07 -9.76552e-06 6.43935e-08)
(-4.05451e-07 -9.69375e-06 5.75794e-08)
(-4.53927e-07 -9.58901e-06 4.98282e-08)
(-4.72172e-07 -9.44522e-06 4.19622e-08)
(-4.62435e-07 -9.25526e-06 3.45817e-08)
(-4.28916e-07 -9.00972e-06 2.81225e-08)
(-3.77093e-07 -8.6947e-06 2.28034e-08)
(-3.12814e-07 -8.28864e-06 1.87005e-08)
(-2.41922e-07 -7.75696e-06 1.57421e-08)
(-1.70106e-07 -7.04313e-06 1.37328e-08)
(-1.02636e-07 -6.04972e-06 1.22423e-08)
(-4.5668e-08 -4.59044e-06 1.04445e-08)
(-5.2861e-09 -2.23679e-06 5.92573e-09)
(2.15458e-10 -2.27248e-06 2.7712e-10)
(7.03321e-10 -4.66498e-06 3.04623e-10)
(1.33977e-09 -6.14961e-06 3.05218e-10)
(2.87193e-09 -7.16162e-06 5.12035e-10)
(5.82017e-09 -7.89035e-06 1.0255e-09)
(1.03712e-08 -8.43514e-06 1.90709e-09)
(1.63257e-08 -8.85356e-06 3.20768e-09)
(2.29822e-08 -9.18083e-06 4.97526e-09)
(2.91387e-08 -9.43874e-06 7.24354e-09)
(3.3184e-08 -9.64097e-06 1.002e-08)
(3.3296e-08 -9.7964e-06 1.32046e-08)
(2.76778e-08 -9.91134e-06 1.66055e-08)
(1.51698e-08 -9.99092e-06 1.98461e-08)
(-4.22421e-09 -1.00399e-05 2.25177e-08)
(-2.88165e-08 -1.00619e-05 2.40084e-08)
(-5.4903e-08 -1.00597e-05 2.38962e-08)
(-7.80291e-08 -1.00334e-05 2.22166e-08)
(-9.45737e-08 -9.98014e-06 1.93612e-08)
(-1.02942e-07 -9.8961e-06 1.60022e-08)
(-1.03328e-07 -9.77672e-06 1.25456e-08)
(-9.7008e-08 -9.61701e-06 9.37287e-09)
(-8.59838e-08 -9.41075e-06 6.65807e-09)
(-7.22112e-08 -9.14929e-06 4.48937e-09)
(-5.7439e-08 -8.81934e-06 2.85507e-09)
(-4.30185e-08 -8.39949e-06 1.71099e-09)
(-2.99067e-08 -7.855e-06 1.00205e-09)
(-1.8705e-08 -7.12872e-06 6.78223e-10)
(-9.83048e-09 -6.12184e-06 6.70855e-10)
(-3.59966e-09 -4.64534e-06 8.62846e-10)
(-1.94245e-10 -2.26434e-06 8.40797e-10)
(-4.88936e-09 -2.25005e-06 -4.84052e-09)
(-4.13752e-08 -4.61816e-06 -9.30938e-09)
(-9.15444e-08 -6.0882e-06 -1.13088e-08)
(-1.48916e-07 -7.0917e-06 -1.26295e-08)
(-2.0725e-07 -7.81638e-06 -1.38893e-08)
(-2.61525e-07 -8.36059e-06 -1.54091e-08)
(-3.06843e-07 -8.7812e-06 -1.72768e-08)
(-3.38885e-07 -9.11305e-06 -1.9477e-08)
(-3.54106e-07 -9.37748e-06 -2.18896e-08)
(-3.5017e-07 -9.58778e-06 -2.43108e-08)
(-3.26345e-07 -9.75232e-06 -2.6474e-08)
(-2.83803e-07 -9.87673e-06 -2.8105e-08)
(-2.25591e-07 -9.96518e-06 -2.90684e-08)
(-1.56121e-07 -1.00211e-05 -2.94031e-08)
(-8.03172e-08 -1.0047e-05 -2.93897e-08)
(-2.10593e-09 -1.0045e-05 -2.95503e-08)
(7.54465e-08 -1.0015e-05 -2.98256e-08)
(1.483e-07 -9.95506e-06 -2.97343e-08)
(2.11356e-07 -9.8627e-06 -2.89222e-08)
(2.59882e-07 -9.73458e-06 -2.73782e-08)
(2.9059e-07 -9.5666e-06 -2.52185e-08)
(3.02019e-07 -9.35328e-06 -2.2748e-08)
(2.9471e-07 -9.08642e-06 -2.02325e-08)
(2.70806e-07 -8.75296e-06 -1.79001e-08)
(2.33647e-07 -8.33183e-06 -1.58834e-08)
(1.87305e-07 -7.78849e-06 -1.41956e-08)
(1.36313e-07 -7.0663e-06 -1.27449e-08)
(8.51757e-08 -6.06719e-06 -1.12086e-08)
(3.94826e-08 -4.60364e-06 -8.97059e-09)
(5.03277e-09 -2.24423e-06 -4.38346e-09)
(-9.94997e-09 -2.18069e-06 -9.90797e-09)
(-8.29645e-08 -4.47641e-06 -1.88244e-08)
(-1.83237e-07 -5.90213e-06 -2.27935e-08)
(-2.98623e-07 -6.87597e-06 -2.56177e-08)
(-4.17328e-07 -7.57968e-06 -2.86301e-08)
(-5.29602e-07 -8.1086e-06 -3.2533e-08)
(-6.2563e-07 -8.51785e-06 -3.75931e-08)
(-6.96228e-07 -8.84126e-06 -4.38279e-08)
(-7.33212e-07 -9.09977e-06 -5.10565e-08)
(-7.30315e-07 -9.30646e-06 -5.88922e-08)
(-6.84052e-07 -9.46957e-06 -6.67476e-08)
(-5.94678e-07 -9.59436e-06 -7.39276e-08)
(-4.66782e-07 -9.68456e-06 -7.97339e-08)
(-3.0878e-07 -9.74265e-06 -8.36963e-08)
(-1.32175e-07 -9.77017e-06 -8.55762e-08)
(5.1057e-08 -9.76821e-06 -8.57515e-08)
(2.29614e-07 -9.73671e-06 -8.41719e-08)
(3.91346e-07 -9.67471e-06 -8.04832e-08)
(5.24535e-07 -9.58096e-06 -7.48625e-08)
(6.20353e-07 -9.45289e-06 -6.77925e-08)
(6.7392e-07 -9.28698e-06 -5.99435e-08)
(6.84639e-07 -9.07802e-06 -5.20663e-08)
(6.55723e-07 -8.81791e-06 -4.4739e-08)
(5.93217e-07 -8.49367e-06 -3.83798e-08)
(5.0508e-07 -8.08452e-06 -3.31803e-08)
(4.0025e-07 -7.55684e-06 -2.91116e-08)
(2.88207e-07 -6.8556e-06 -2.59077e-08)
(1.7827e-07 -5.88562e-06 -2.28472e-08)
(8.17138e-08 -4.4652e-06 -1.86168e-08)
(1.01638e-08 -2.1763e-06 -9.5163e-09)
(-1.47153e-08 -2.0661e-06 -1.46899e-08)
(-1.22062e-07 -4.2433e-06 -2.77986e-08)
(-2.69355e-07 -5.5962e-06 -3.36177e-08)
(-4.39154e-07 -6.52004e-06 -3.78481e-08)
(-6.14441e-07 -7.18651e-06 -4.24923e-08)
(-7.81138e-07 -7.68582e-06 -4.86334e-08)
(-9.24852e-07 -8.07034e-06 -5.66772e-08)
(-1.03188e-06 -8.37234e-06 -6.6726e-08)
(-1.08977e-06 -8.61202e-06 -7.85769e-08)
(-1.08848e-06 -8.80229e-06 -9.16937e-08)
(-1.0219e-06 -8.9516e-06 -1.05251e-07)
(-8.89218e-07 -9.06555e-06 -1.18125e-07)
(-6.96068e-07 -9.14791e-06 -1.29061e-07)
(-4.54385e-07 -9.20111e-06 -1.36995e-07)
(-1.81677e-07 -9.22642e-06 -1.41039e-07)
(1.02063e-07 -9.22441e-06 -1.41214e-07)
(3.76824e-07 -9.19509e-06 -1.37484e-07)
(6.22403e-07 -9.13813e-06 -1.2983e-07)
(8.21063e-07 -9.05243e-06 -1.19087e-07)
(9.6046e-07 -8.93556e-06 -1.06328e-07)
(1.03455e-06 -8.78394e-06 -9.28007e-08)
(1.04379e-06 -8.59194e-06 -7.96469e-08)
(9.94014e-07 -8.35126e-06 -6.77181e-08)
(8.94977e-07 -8.04899e-06 -5.75487e-08)
(7.58917e-07 -7.66498e-06 -4.93682e-08)
(5.99288e-07 -7.16715e-06 -4.30752e-08)
(4.30174e-07 -6.50308e-06 -3.82367e-08)
(2.65291e-07 -5.58269e-06 -3.37672e-08)
(1.21218e-07 -4.23425e-06 -2.76669e-08)
(1.49743e-08 -2.0626e-06 -1.43338e-08)
(-1.8978e-08 -1.91005e-06 -1.89606e-08)
(-1.56844e-07 -3.92662e-06 -3.57998e-08)
(-3.45814e-07 -5.18085e-06 -4.32473e-08)
(-5.63797e-07 -6.03635e-06 -4.87008e-08)
(-7.8916e-07 -6.65111e-06 -5.47347e-08)
(-1.00398e-06 -7.10819e-06 -6.27495e-08)
(-1.18983e-06 -7.45613e-06 -7.32926e-08)
(-1.32901e-06 -7.7251e-06 -8.65343e-08)
(-1.40528e-06 -7.93431e-06 -1.02248e-07)
(-1.40542e-06 -8.09664e-06 -1.19797e-07)
(-1.32095e-06 -8.22085e-06 -1.38122e-07)
(-1.15004e-06 -8.31323e-06 -1.55775e-07)
(-8.99202e-07 -8.37841e-06 -1.71042e-07)
(-5.83412e-07 -8.41967e-06 -1.82347e-07)
(-2.25393e-07 -8.43892e-06 -1.88267e-07)
(1.47631e-07 -8.43689e-06 -1.88431e-07)
(5.07701e-07 -8.41369e-06 -1.82813e-07)
(8.27433e-07 -8.36877e-06 -1.71769e-07)
(1.08381e-06 -8.30039e-06 -1.56694e-07)
(1.26144e-06 -8.20536e-06 -1.39154e-07)
(1.35345e-06 -8.07921e-06 -1.2087e-07)
(1.36126e-06 -7.91557e-06 -1.03297e-07)
(1.29302e-06 -7.70575e-06 -8.75197e-08)
(1.1617e-06 -7.4369e-06 -7.41753e-08)
(9.83297e-07 -7.08976e-06 -6.35059e-08)
(7.75257e-07 -6.63424e-06 -5.53438e-08)
(5.55733e-07 -6.02181e-06 -4.91248e-08)
(3.42303e-07 -5.16942e-06 -4.3437e-08)
(1.56225e-07 -3.91904e-06 -3.57023e-08)
(1.92532e-08 -1.90714e-06 -1.86254e-08)
(-2.25277e-08 -1.7183e-06 -2.25241e-08)
(-1.85709e-07 -3.53812e-06 -4.24812e-08)
(-4.09155e-07 -4.67168e-06 -5.12682e-08)
(-6.66956e-07 -5.44349e-06 -5.76786e-08)
(-9.33646e-07 -5.99469e-06 -6.4761e-08)
(-1.18809e-06 -6.39963e-06 -7.41763e-08)
(-1.40847e-06 -6.70207e-06 -8.65841e-08)
(-1.57381e-06 -6.92958e-06 -1.0218e-07)
(-1.66482e-06 -7.1003e-06 -1.20702e-07)
(-1.66563e-06 -7.22677e-06 -1.41442e-07)
(-1.56597e-06 -7.31823e-06 -1.6318e-07)
(-1.36337e-06 -7.38202e-06 -1.84247e-07)
(-1.06507e-06 -7.42399e-06 -2.02598e-07)
(-6.88572e-07 -7.44878e-06 -2.16295e-07)
(-2.60784e-07 -7.4595e-06 -2.23555e-07)
(1.85268e-07 -7.45754e-06 -2.23699e-07)
(6.15054e-07 -7.44302e-06 -2.16712e-07)
(9.95403e-07 -7.41475e-06 -2.03254e-07)
(1.2991e-06 -7.36975e-06 -1.85076e-07)
(1.50832e-06 -7.30358e-06 -1.64118e-07)
(1.61538e-06 -7.21042e-06 -1.42433e-07)
(1.62238e-06 -7.08293e-06 -1.21683e-07)
(1.53926e-06 -6.91187e-06 -1.03106e-07)
(1.3816e-06 -6.6847e-06 -8.74329e-08)
(1.16844e-06 -6.38322e-06 -7.49136e-08)
(9.20547e-07 -5.97989e-06 -6.53573e-08)
(6.59445e-07 -5.43087e-06 -5.81026e-08)
(4.05949e-07 -4.66185e-06 -5.14645e-08)
(1.85199e-07 -3.53166e-06 -4.23914e-08)
(2.28058e-08 -1.71582e-06 -2.21969e-08)
(-2.52196e-08 -1.4982e-06 -2.52237e-08)
(-2.07408e-07 -3.09274e-06 -4.75467e-08)
(-4.56649e-07 -4.08847e-06 -5.73193e-08)
(-7.44261e-07 -4.7649e-06 -6.43886e-08)
(-1.04194e-06 -5.2439e-06 -7.21448e-08)
(-1.32608e-06 -5.59005e-06 -8.24239e-08)
(-1.57219e-06 -5.84171e-06 -9.59406e-08)
(-1.75676e-06 -6.02351e-06 -1.12905e-07)
(-1.85817e-06 -6.15215e-06 -1.33015e-07)
(-1.85869e-06 -6.23971e-06 -1.55501e-07)
(-1.74696e-06 -6.29587e-06 -1.79051e-07)
(-1.52021e-06 -6.32887e-06 -2.01864e-07)
(-1.18645e-06 -6.34587e-06 -2.2176e-07)
(-7.65118e-07 -6.35298e-06 -2.36631e-07)
(-2.86166e-07 -6.35454e-06 -2.44559e-07)
(2.13302e-07 -6.35271e-06 -2.4468e-07)
(6.94165e-07 -6.34763e-06 -2.36983e-07)
(1.1192e-06 -6.33729e-06 -2.22318e-07)
(1.45814e-06 -6.3175e-06 -2.02581e-07)
(1.69126e-06 -6.28236e-06 -1.79872e-07)
(1.81013e-06 -6.2247e-06 -1.56374e-07)
(1.81716e-06 -6.13634e-06 -1.33896e-07)
(1.72341e-06 -6.00756e-06 -1.13748e-07)
(1.54631e-06 -5.82619e-06 -9.67217e-08)
(1.30719e-06 -5.57555e-06 -8.31131e-08)
(1.02939e-06 -5.23097e-06 -7.27132e-08)
(7.37083e-07 -4.75401e-06 -6.47935e-08)
(4.53593e-07 -4.08008e-06 -5.75052e-08)
(2.06924e-07 -3.08727e-06 -4.7455e-08)
(2.5485e-08 -1.49611e-06 -2.49039e-08)
(-2.69236e-08 -1.25827e-06 -2.69353e-08)
(-2.20921e-07 -2.60782e-06 -5.07584e-08)
(-4.86242e-07 -3.454e-06 -6.11332e-08)
(-7.92702e-07 -4.02736e-06 -6.85437e-08)
(-1.11024e-06 -4.42907e-06 -7.65899e-08)
(-1.41354e-06 -4.7132e-06 -8.72135e-08)
(-1.67623e-06 -4.91244e-06 -1.0114e-07)
(-1.87295e-06 -5.04826e-06 -1.18561e-07)
(-1.98054e-06 -5.13567e-06 -1.39155e-07)
(-1.98022e-06 -5.18618e-06 -1.62099e-07)
(-1.86007e-06 -5.20948e-06 -1.86035e-07)
(-1.61741e-06 -5.21437e-06 -2.09151e-07)
(-1.26101e-06 -5.20898e-06 -2.29277e-07)
(-8.11638e-07 -5.20034e-06 -2.44286e-07)
(-3.01057e-07 -5.19382e-06 -2.52297e-07)
(2.31321e-07 -5.19218e-06 -2.52399e-07)
(7.43692e-07 -5.19552e-06 -2.44589e-07)
(1.19654e-06 -5.20127e-06 -2.29752e-07)
(1.55784e-06 -5.20422e-06 -2.09763e-07)
(1.80654e-06 -5.19747e-06 -1.86746e-07)
(1.9335e-06 -5.17289e-06 -1.62861e-07)
(1.94106e-06 -5.12174e-06 -1.39931e-07)
(1.84082e-06 -5.03427e-06 -1.19318e-07)
(1.65126e-06 -4.89893e-06 -1.01847e-07)
(1.39532e-06 -4.70068e-06 -8.78443e-08)
(1.09811e-06 -4.418e-06 -7.71142e-08)
(7.85748e-07 -4.01815e-06 -6.89117e-08)
(4.83271e-07 -3.44699e-06 -6.12983e-08)
(2.2043e-07 -2.6033e-06 -5.06634e-08)
(2.71704e-08 -1.25657e-06 -2.66248e-08)
(-2.75139e-08 -1.00806e-06 -2.75311e-08)
(-2.25399e-07 -2.10258e-06 -5.1872e-08)
(-4.96359e-07 -2.79336e-06 -6.23953e-08)
(-8.10173e-07 -3.25999e-06 -6.97994e-08)
(-1.13623e-06 -3.58247e-06 -7.77615e-08)
(-1.44825e-06 -3.80435e-06 -8.82464e-08)
(-1.71869e-06 -3.95265e-06 -1.0198e-07)
(-1.92104e-06 -4.04552e-06 -1.19126e-07)
(-2.03129e-06 -4.09615e-06 -1.39322e-07)
(-2.03021e-06 -4.11506e-06 -1.61712e-07)
(-1.90585e-06 -4.11154e-06 -1.8496e-07)
(-1.65592e-06 -4.09437e-06 -2.07304e-07)
(-1.28978e-06 -4.07194e-06 -2.26677e-07)
(-8.28888e-07 -4.05168e-06 -2.4107e-07)
(-3.05709e-07 -4.03932e-06 -2.48754e-07)
(2.39606e-07 -4.03792e-06 -2.4884e-07)
(7.64448e-07 -4.04757e-06 -2.41324e-07)
(1.22858e-06 -4.06538e-06 -2.27077e-07)
(1.5993e-06 -4.08572e-06 -2.07824e-07)
(1.85487e-06 -4.1013e-06 -1.85568e-07)
(1.98564e-06 -4.10377e-06 -1.62373e-07)
(1.99356e-06 -4.08434e-06 -1.40004e-07)
(1.89028e-06 -4.03371e-06 -1.19798e-07)
(1.69476e-06 -3.94132e-06 -1.02614e-07)
(1.43077e-06 -3.79393e-06 -8.88166e-08)
(1.12456e-06 -3.57333e-06 -7.82424e-08)
(8.03455e-07 -3.25247e-06 -7.014e-08)
(4.93447e-07 -2.78772e-06 -6.25451e-08)
(2.24877e-07 -2.09905e-06 -5.17778e-08)
(2.77352e-08 -1.00679e-06 -2.72373e-08)
(-2.68178e-08 -7.58198e-07 -2.68376e-08)
(-2.19835e-07 -1.59803e-06 -5.05395e-08)
(-4.85427e-07 -2.1334e-06 -6.06562e-08)
(-7.94915e-07 -2.4935e-06 -6.76267e-08)
(-1.11835e-06 -2.73779e-06 -7.50905e-08)
(-1.42913e-06 -2.89975e-06 -8.49803e-08)
(-1.69917e-06 -3.00091e-06 -9.80109e-08)
(-1.90141e-06 -3.05614e-06 -1.14303e-07)
(-2.01162e-06 -3.0766e-06 -1.33464e-07)
(-2.01064e-06 -3.07145e-06 -1.54632e-07)
(-1.88686e-06 -3.04906e-06 -1.76511e-07)
(-1.63848e-06 -3.01756e-06 -1.97434e-07)
(-1.27522e-06 -2.98485e-06 -2.15499e-07)
(-8.1859e-07 -2.958e-06 -2.28866e-07)