/*--------------------------------*- C++ -*----------------------------------*\
| =========                 |                                                 |
| \\      /  F ield         | OpenFOAM: The Open Source CFD Toolbox           |
|  \\    /   O peration     | Version:  v1906                                 |
|   \\  /    A nd           | Web:      www.OpenFOAM.com                      |
|    \\/     M anipulation  |                                                 |
\*---------------------------------------------------------------------------*/
FoamFile
{
    version     2.0;
    format      ascii;
    class       volScalarField;
    location    "0.09/oil";
    object      heatTransferCoeff(T);
}
// * * * * * * * * * * * * * * * * * * * * * * * * * * * * * * * * * * * * * //

dimensions      [1 0 -3 -1 0 0 0];


internalField   uniform 0;

boundaryField
{
    maxY
    {
        type            calculated;
        value           uniform 0;
    }
    minX
    {
        type            calculated;
        value           uniform 0;
    }
    maxX
    {
        type            calculated;
        value           uniform 0;
    }
    minY
    {
        type            calculated;
        value           uniform 0;
    }
    minZ
    {
        type            calculated;
        value           uniform 0;
    }
    maxZ
    {
        type            calculated;
        value           uniform 0;
    }
    oil_to_sphere
    {
        type            calculated;
        value           nonuniform List<scalar> 
1536
(
-1807.82
-1964.51
-1324.21
-2232.32
-3307.14
-2836.12
-2387.51
-2318.39
-1701.09
-1011.5
-3267.83
-972.28
-1016.89
-917.169
-2908.57
-3342.03
-2081.36
-1754.63
-1143.12
-1133.96
-979.386
-2978.59
-2424.95
-3327.03
-3438.16
-3279.57
-3319.62
-3275.42
-1994.05
-1953.8
-1207.31
-1553.71
-1769.6
-3276.62
-3278.16
-3252.84
-3107.17
-2937.01
-3219.88
-3083.29
-3138.57
-3279.91
-1715.46
-1008.4
-1679.75
-1015.27
-2415.04
-2430.56
-2965.79
-2405.12
-2746.31
-2320.29
-2453.2
-2474.59
-1271.73
-1765.41
-2835.26
-2475.62
-1777.97
-1092.43
-1006.51
-1083.42
-1003.53
-1154.18
-1133.67
-1057.05
-1674.15
-928.067
-2158.44
-1550.12
-3267.09
-2881.04
-2406.44
-3293.15
-3336.04
-1878.73
-1988.7
-2274.07
-3359.18
-1721.67
-1055.61
-1113.07
-1095.31
-1069.89
-1036.73
-920.267
-1228.43
-2265.6
-1562.13
-1082.76
-987.486
-1205.77
-1160.9
-1086.89
-1099.68
-1047.72
-1650.3
-1008.54
-1014.7
-2114
-1556.67
-3336.23
-1618.64
-1364.42
-2830.21
-3296.39
-3341.63
-2341.11
-2786.59
-1823.25
-1892.47
-1430.77
-1201.06
-1098.13
-1203.11
-1222.37
-1266.91
-1058.19
-979.281
-1019.67
-1559.12
-973.275
-1158.58
-922.981
-1975.84
-1665.2
-2124.73
-1643.43
-2460.31
-3157.31
-2428.54
-2855.52
-2310.13
-2918.03
-2241.23
-2946.94
-2263.77
-1799.59
-2282.5
-2447.14
-1117.73
-975.992
-2237.47
-1757.82
-979.949
-1661.78
-2261.98
-1657.16
-1273.26
-2003.43
-2341.36
-1892.05
-2901.21
-2837.51
-2797.54
-1529.51
-2462.15
-1731.77
-2158.11
-1736
-1692.36
-1595.94
-3082.14
-3250.73
-3152.16
-3129.71
-2950.62
-1348.45
-2425.57
-1648.84
-2043.03
-2172.46
-1713.12
-1916.37
-2385.48
-1711.04
-1956.86
-1968.63
-1744.2
-2017.31
-3081.74
-3193.25
-3161.57
-3302.77
-2039.33
-2175.91
-2043.52
-1663.96
-2222.99
-1800.51
-1968.41
-2057.14
-1664.95
-1698.82
-3342.42
-3278.91
-1690.83
-2064.77
-1869
-2846.58
-2674.1
-2615.94
-1713.51
-1615.59
-1323.27
-1358.31
-1626.43
-1553.39
-1839.74
-1690.18
-1996.32
-1574.05
-1605.57
-961.682
-974.743
-930.224
-989.584
-1148.85
-943.369
-978.39
-1309.21
-1090.43
-1498.51
-1148.01
-1300.44
-1598.22
-2290.72
-1440.8
-2246.67
-2870.03
-3545.41
-3292.4
-3005
-1822.26
-1553
-1718.96
-1396.25
-1561.46
-1588.9
-1709.83
-1490.25
-1278.41
-1059.54
-1045.12
-992.399
-1434.76
-1357.67
-933.571
-914.823
-1081.02
-1335.8
-2486.87
-3210.05
-2536.56
-1815.53
-3102.61
-3154.57
-2111.39
-1526.92
-1556
-1898.65
-1806.91
-1581.36
-1083.59
-1173.91
-1208.56
-1183.34
-1060.84
-1001.51
-1349.04
-1423.72
-1382.95
-1340
-1510.66
-1287.05
-1059.04
-923.21
-934.12
-1264.5
-1643.86
-2122.45
-1532.06
-1590.8
-1663.62
-1509.09
-1963.55
-1968.53
-3030.82
-2607.5
-1421.78
-1931.99
-1453.03
-2450.6
-1323.51
-1179.03
-1594.22
-1680.99
-1364.08
-1742.26
-2008.95
-2413.28
-1761.95
-1603.49
-1350.05
-1178.67
-1872.38
-1352.63
-3184.16
-3182.91
-1648.84
-2093.49
-1624.49
-1341.37
-1739.11
-1450.62
-1619.44
-1987.72
-1622.72
-1372.81
-1692.85
-1682.18
-1454.48
-1664.81
-1871.9
-951.345
-1610.47
-1469.73
-1398.34
-1502.59
-989.516
-1470.02
-1402.7
-1935.01
-1482.82
-1453.97
-1417.58
-1523.03
-1359.5
-1245.46
-966.811
-1075.76
-1041.62
-1313.5
-1384.4
-1321.5
-1298.17
-1363.69
-1339.97
-1528.04
-1687.73
-1932.24
-2122.68
-1304.29
-1825.22
-1551.5
-1570.71
-1721.44
-1425.48
-2912.62
-1455.16
-1888.71
-1561.94
-1648.77
-2914.25
-1583.6
-1797.13
-2763.12
-2433.75
-2664.28
-1735.72
-1653.46
-2039.71
-1502.95
-1743.06
-2761.85
-1540.75
-2073.36
-2688.45
-1454.31
-1470.09
-2186.71
-1694.53
-1958.94
-1670.49
-1921.25
-2799.09
-1392.94
-1608.95
-2128.22
-1869.08
-1874.14
-1624.76
-1628.99
-1615.54
-2177.32
-1853.38
-2146.3
-1484.62
-1812.92
-1696.56
-2756.16
-1654.06
-1426.25
-1830.16
-1976.73
-1557.65
-2145.03
-1619.11
-1702.83
-1737.62
-1846.88
-1501.6
-1608.98
-1734.57
-1585.87
-1425.76
-1620.8
-1260.15
-2066.34
-1517.79
-1625.94
-1559.87
-1115.91
-1605.15
-1431.18
-1428.34
-1374.14
-1400.07
-1018.24
-977.969
-1527.96
-1441.41
-1414.81
-1369.37
-1319.82
-1410.99
-1294.44
-1131.37
-1077.35
-990.28
-1389.57
-1203.38
-1533.04
-1256.64
-1282.1
-1717.35
-1589.56
-2142.04
-2203.41
-1779.72
-1620.98
-1290.58
-1097.29
-1058.16
-1110.36
-1264.2
-1134.09
-1161.1
-1065.12
-1132.77
-1201.63
-1036.91
-1227.69
-1201.89
-1458.7
-1053.77
-1376.1
-1509.08
-1572.99
-1490.46
-1584.86
-1715.33
-1456.93
-936.117
-2118.93
-1413.37
-1712.99
-1470.91
-1459.66
-1413.59
-1097.82
-1381.94
-1388.67
-1009.16
-1336.38
-1948.06
-1490.3
-1767.68
-1457.37
-1658.18
-1605.36
-1890.4
-3377.74
-3193.54
-3209.81
-2787.29
-2911.2
-2414.41
-3141.64
-3079.25
-2047.14
-1378.73
-3356.66
-3075.96
-1696.82
-1561.38
-2074.32
-3084.65
-2169.24
-1798.85
-2935.16
-2801.11
-3199.58
-3087
-2538.42
-1286.78
-1370.93
-1185.53
-1503.01
-1425.06
-2220.99
-1446.21
-1453.58
-1553.99
-1514.69
-1059.73
-935.537
-1058.44
-1090.08
-1171.86
-1097.82
-1009.92
-1082.85
-1172
-1058.07
-1115.2
-1474.42
-1543.3
-1502.32
-1402.5
-1500.39
-1254.98
-1507.54
-1184.85
-2001.9
-1612.68
-1417
-1948.19
-1546.38
-1479.74
-1326.28
-1023.23
-1031.2
-1330.08
-1191.56
-1093.72
-1287.2
-1151.76
-1173.17
-1151.22
-1140.87
-1205.22
-1243.2
-1057.48
-1070.71
-1118.92
-1134.71
-1040.55
-1120.92
-1038.86
-1185.13
-1026.57
-1068.49
-1178.41
-979.112
-1127.55
-1179.4
-1461.42
-973.797
-955.679
-2070.42
-1640.1
-1891.45
-1184.15
-1638.59
-1474.98
-1496.01
-1334.18
-1329.61
-1509.33
-1445.22
-1500.66
-1732.01
-1681.89
-1090.78
-929.351
-2053.1
-1430.08
-1498.7
-1729.77
-1110.07
-1167.19
-1491.17
-1041.83
-1710.79
-1582.75
-1377.82
-1369.55
-1093.06
-1654.99
-2049.5
-1503.06
-3074.8
-3259.19
-1899.55
-1976.34
-1823.88
-2145.79
-3130.13
-2303.94
-2988.66
-3076.51
-3048.2
-3154.95
-2881.86
-3121.98
-3278.44
-1774.57
-1841.87
-2128.13
-1723.91
-1896.61
-1669.9
-1428.61
-1636.4
-2867.45
-3191.43
-2257.47
-1753.22
-3157.52
-1951.41
-2920.97
-2470.88
-1637.56
-2879.84
-1759.75
-1587.03
-1131.19
-995.068
-992.111
-1525.26
-1644.08
-1556.15
-1505.54
-1110.9
-1347.93
-1202.96
-1711.91
-1512.42
-1506.17
-1308.37
-968.936
-938.612
-990.925
-1068.4
-1052.32
-1099.65
-1119.5
-1025.27
-1108.28
-1119.46
-1164.19
-1038.76
-1005.48
-1164.95
-2094.74
-1509.26
-1363
-1559.12
-1553.16
-1420.6
-1379.11
-1047.57
-1136.03
-1334.11
-1740.57
-1821.1
-1722.91
-1369.73
-1397.93
-1173.18
-1881.56
-1226.83
-1379.94
-1525.99
-1084.55
-1159.79
-1175.68
-1149.88
-1047.8
-1180.08
-1112.44
-1225.18
-1032.11
-1129.04
-1078.34
-1622.81
-1475.96
-1536.48
-1750.27
-1347.22
-1697.8
-1719.06
-1355.17
-1246.4
-960.538
-1328.03
-1488.66
-1636.03
-1493.81
-1357.48
-1471.38
-1550.89
-1898.09
-1921.67
-1237.56
-1476.35
-1514.99
-1213.76
-1399.13
-1257.42
-1552.01
-1610.69
-1736.06
-1961.82
-1369.48
-1441.57
-1428.78
-1334.63
-1375.67
-1654.02
-1723.53
-1768.65
-1484.31
-1935.87
-2028.46
-1236.02
-1822.01
-2858.77
-2643.78
-1348.72
-2458.79
-1608.64
-1990.15
-1669.91
-1688.75
-1300.44
-1989.43
-2838.79
-1675.18
-2027.54
-1629.84
-1649.83
-2774.48
-2439.42
-1599.55
-2001.5
-2542.55
-1867.59
-1714.66
-2201.96
-1695.14
-1512.95
-1963.12
-2697.34
-2475.87
-2489.28
-2132.63
-1545.57
-1629.41
-1668.77
-1824.4
-1541.93
-1590.44
-1661.82
-2049.84
-2865.35
-1519.61
-2129.23
-1816.7
-1944.99
-1891.31
-1846.83
-2700.45
-2760.95
-1524.26
-1527.36
-2532.43
-1842.28
-1911.19
-1958.04
-1665.89
-1928.62
-1735.61
-1845.51
-1732.44
-1520.08
-2775.98
-2473.95
-2447.83
-1696.06
-1920.15
-1656.53
-2223.14
-1759.55
-1594.61
-1937.31
-1666.57
-1483.41
-1281.31
-1788.5
-1411.48
-1823.05
-1431.55
-1174.62
-1515.89
-1347.53
-1398.8
-1379.98
-1122.69
-967.536
-1458.33
-1613.82
-1703.65
-1470.73
-1310.36
-1442.36
-2005.15
-2198.24
-1479.16
-1462.15
-1312.62
-1605.43
-1324.18
-1443.31
-1063.5
-1012.76
-1371.65
-1523.75
-1146.66
-1539.04
-1431.85
-1272.13
-1613.62
-1525.35
-2008.29
-1455.41
-1490.74
-1572.9
-1497.2
-1486.28
-1478.38
-1436.91
-1277.24
-1695.25
-2073.78
-1904.76
-919.694
-1410.62
-975.763
-1032.89
-1131.89
-2880.52
-1655.37
-1431.8
-1643.01
-2937.38
-1970.77
-1888.85
-1165.39
-1161.12
-2388.89
-1913.55
-2402.62
-1102.57
-1188.92
-1055.51
-1030.57
-1453.71
-2981.02
-1181.4
-1789.3
-2234.05
-2117.87
-3113.37
-1351.07
-2855.84
-2261.99
-2120.11
-1615.54
-2812.19
-1956.81
-1604.06
-2538.41
-2071.93
-2919.75
-2271.75
-2365.4
-1996.02
-1627.81
-2656.55
-1903.33
-3354.2
-1395.01
-2950.04
-2175.08
-2266.77
-2137.47
-1784.32
-2677.3
-1946.4
-3218.08
-1459.73
-1605.01
-2807.14
-1828.88
-3146.15
-3034.99
-3099.14
-2109
-2166.73
-3175.56
-2773.29
-3109.88
-1478.18
-1871.09
-2638.72
-1920.47
-2298.31
-964.253
-925.615
-1928.37
-1013.52
-1961.14
-1005.04
-999.668
-2936.06
-1577.43
-1845.38
-1462.96
-1783.76
-3078.8
-1455.79
-1874.13
-1888.47
-1874.93
-1453.49
-1893.5
-1067
-2080.47
-1041.29
-1201.68
-1021.24
-1004.34
-1133.12
-975.411
-1096.15
-1228.49
-879.873
-1137.39
-1094.45
-1023.45
-1902.11
-1222.01
-1675.02
-1904.33
-1905.46
-3319.39
-1170.51
-2977.28
-1888.26
-1918.45
-1962.41
-1506.17
-2796.33
-1835.62
-1537.46
-2765.68
-1439.93
-2177.16
-2141.93
-1157.61
-1322.67
-1073.55
-1164.93
-1941.45
-1353.4
-1173.27
-1188.54
-1163.5
-1120.94
-1181.79
-1091.1
-1141.74
-1114.77
-1091.85
-1132.69
-1147.49
-976.319
-1829.31
-1166.85
-1865.65
-945.317
-927.552
-1458.62
-1225.47
-1767.73
-1992.75
-1930.35
-3276.86
-1328.63
-1428.23
-2937.83
-1456.77
-1989
-2989.2
-1805
-3157.92
-1322.02
-1453.63
-1320.96
-2871.78
-2116.21
-2068.4
-1864.31
-1211.06
-986.748
-1227.74
-1041.58
-1947.89
-1278.49
-1194.11
-1187.47
-1248.29
-1073.98
-1982.8
-1835.99
-1042.54
-1939.18
-3014.58
-1291.49
-1626.44
-1761.43
-1935.49
-1873.54
-1526.84
-1897.96
-1959.62
-1985.99
-1150.19
-1964.93
-1170.43
-2147.49
-2409.96
-2871.92
-2881.79
-1860.8
-1810.5
-2875.42
-3603.26
-1390.54
-3321.92
-1955.51
-1839.51
-2064.08
-3163.59
-1712.18
-2958.88
-1853.3
-1464.58
-3311.96
-2090.03
-3072.65
-1659.26
-3002.18
-1889.04
-1526.54
-3171.49
-1870.17
-1686
-3065.32
-2119.81
-1804.92
-2963.64
-3320.38
-2173.66
-3167.18
-2321.73
-3125.2
-2707.36
-2508.39
-1870.01
-3307.87
-3303.92
-1659.63
-3132.94
-2215.63
-3260.95
-1725.43
-1307.02
-3250.87
-2091.93
-1792.61
-2928.76
-3282.35
-2270.89
-3034.19
-2457.17
-1719.93
-3072.41
-3358.64
-1756.63
-3086.49
-2280.32
-2184.98
-3264.51
-2581.6
-2785.06
-2584.58
-3487.2
-1401.55
-1379.02
-1507.38
-1328.79
-2896.42
-1672.15
-1703.25
-2438.74
-2659.04
-2669.14
-2630.47
-2401.19
-1951.26
-1827.4
-1703.85
-1607.54
-1786.89
-1764.06
-1503.16
-1805.01
-1304.03
-1092.14
-1026.73
-1440.11
-3177.57
-2078.3
-3165.48
-1630.38
-1823.75
-1972.46
-1417.75
-3264.58
-2500.19
-1492.27
-1568.55
-1522.06
-913.975
-963.454
-1163.91
-992.896
-1104.66
-1043.47
-1335.7
-1361.74
-1362.84
-1503.82
-1270.35
-2141.05
-1556.47
-2820.48
-3097.05
-1865.26
-1994.32
-1195.38
-1085.07
-999.782
-1152.85
-1035.45
-1440.77
-995.216
-981.885
-1236.8
-1320.71
-1118.98
-1109.48
-1470.74
-1205.79
-3494.77
-1825.24
-1545.92
-1960.74
-2591.58
-2047.55
-1604.81
-1709.54
-1910.31
-1239.51
-1773.46
-1577.73
-1024.96
-1813.99
-1796.65
-1892.95
-1668.76
-1959.25
-2088.58
-1982.18
-1531.85
-2338.24
-3170.76
-2687.5
-2767.34
-2780.78
-3237.18
-1950.3
-927.354
-1072.22
-1785.25
-1594.67
-1801.01
-1185.24
-1308.91
-1508.29
-1718.59
-1694.37
-1618.68
-1361.71
-1571.48
-1452.9
-1443.26
-1440.4
-1616.76
-1354.05
-2237.95
-1596.8
-1592.23
-1572.49
-1793.49
-957.687
-1463.17
-1288.22
-1744.06
-1977.5
-1551.9
-1248.32
-1185.64
-1076.95
-1046.5
-1668.13
-1490.78
-1356.82
-1272.68
-1452.98
-1779.56
-1612.83
-1918.15
-3080.68
-1373.71
-1760.87
-2616.62
-2620.95
-2531.52
-2416.47
-2541.31
-3139.94
-1517.13
-1927.96
-2590.33
-2629.97
-2522.04
-2439.43
-2823.32
-1678.13
-2022.47
-2576.56
-2011.03
-2693.54
-2778.65
-2258.41
-1832.01
-2704
-3208.72
-1782.01
-2018.62
-2445.11
-2261.44
-2924.48
-1874.69
-2574
-2877.58
-2087.5
-1719.33
-1958.15
-1342.69
-1455.54
-1270
-1385.62
-1748.6
-1322
-1346.51
-1340.15
-1119.79
-1024.68
-1346.41
-2204.91
-1496.11
-1392.93
-1373.71
-1275.26
-1178.11
-1018.54
-1346.43
-1586.38
-1329.03
-902.725
-1147.22
-1013.42
-992.624
-1021.43
-1017.31
-1025.45
-1034.35
-1003.96
-932.426
-1119.82
-1144.82
-1049.7
-1198.57
-1173.62
-1213.58
-985.053
-943.651
-1790.74
-1578.36
-1106.83
-1069.23
-2254.45
-1903.05
-1477.84
-1318.51
-1397.27
-1349.45
-1517.56
-1281.04
-1834.5
-2133.16
-1462.91
-1862.29
-1222.49
-1421.99
-1398.22
-1800.31
-3496.37
-1585.69
-3706.22
-2587.15
-1826.4
-3261.77
-2143.39
-1897.15
-1334.35
-2212.72
-1759.95
-3022.64
-1709.24
-2454.11
-2291.99
-3026.88
-2271.76
-2822.98
-3245.36
-1854.45
-2950.04
-2171.42
-1937.7
-1821.73
-1482.2
-1056.82
-1022.58
-1889
-1357.37
-1356.14
-1363.15
-2243.59
-1460.41
-1386.56
-1094.39
-1874.62
-1294.8
-1015.85
-1076.32
-1027.78
-1088.88
-1093.2
-1190.37
-1236.63
-873.748
-991.025
-1069.23
-882.079
-953.659
-1150.82
-1141.84
-998.81
-1125.76
-1155.97
-1224.41
-995.912
-959.017
-1104.06
-1102.26
-972.292
-1114.3
-1814.81
-1319.62
-1906.45
-1417.65
-945.027
-1323.52
-2549.48
-1390.11
-1557.22
-1377.32
-1366.07
-1937.63
-1343.01
-1550.38
-2085.78
-1817.85
-1827.76
-2181.23
-2107.24
-2083.27
-3054.72
-3514.41
-3309.81
-2944.06
-1776.78
-1867.2
-1420.26
-2231.54
-2726.29
-3060.21
-3746.3
-3324.42
-2354.61
-2200.79
-2986.28
-2201.44
-1761.7
-1786.43
-1518.81
-1366.43
-1337.52
-1414.97
-2458.84
-1561.46
-1559.39
-1019.8
-1795.6
-1294.97
-2174.37
-1298.17
-1084.95
-1246.26
-1227.64
-944.361
-1025.74
-1870.76
-1432.68
-1716.53
-1601.54
-1936.06
-1308.03
-1450.69
-1432.11
-2118.79
-1568.04
-1566.16
-1781.24
-1219.12
-1404.12
-1495.85
-1503.13
-1775.59
-2335.67
-1343.09
-1812.66
-1637.28
-1697.34
-2545.05
-3013.23
-1323.3
-2270.71
-2749.82
-2486.22
-2570.06
-2769.33
-1675.02
-2553.89
-3005.8
-1783.77
-2571.27
-3241.78
-1925.15
-2631.78
-2555.63
-2677.29
-2967.06
-2419.57
-2557.7
-2940.28
-2514.93
-2868.41
-1323.71
-1678.95
-1464.09
-1055.53
-1266.91
-2088.8
-1763.66
-1848.67
-1243.01
-1122.68
-1819.61
-2262.44
)
;
    }
}


// ************************************************************************* //
