/*--------------------------------*- C++ -*----------------------------------*\
| =========                 |                                                 |
| \\      /  F ield         | OpenFOAM: The Open Source CFD Toolbox           |
|  \\    /   O peration     | Version:  v1906                                 |
|   \\  /    A nd           | Web:      www.OpenFOAM.com                      |
|    \\/     M anipulation  |                                                 |
\*---------------------------------------------------------------------------*/
FoamFile
{
    version     2.0;
    format      ascii;
    class       volScalarField;
    location    "0.17/sphere";
    object      T;
}
// * * * * * * * * * * * * * * * * * * * * * * * * * * * * * * * * * * * * * //

dimensions      [0 0 0 1 0 0 0];


internalField   nonuniform List<scalar> 
7664
(
494.113
494.651
494.231
495.3
493.947
494.361
495.991
496.886
497.71
496.428
494.217
497.404
498.118
496.977
496.427
497.307
495.934
495.953
496.868
495.602
494.559
497.68
498.433
497.276
495.166
498.095
498.831
497.776
494.179
494.286
497.276
498.07
496.836
496.118
495.593
496.376
497.264
495.745
493.861
496.916
497.747
496.477
495.748
496.815
495.228
494.13
494.108
494.154
494.052
494.095
494.184
495.315
494.341
497.221
496.406
497.66
496.969
496.424
497.757
497.035
494.694
494.22
495.395
494.384
497.024
497.195
496.369
495.378
494.381
494.566
494.082
494.095
494.071
494.071
494.058
493.937
494.06
494.049
493.948
494.124
494.091
494.003
494.04
495.204
494.462
495.558
495.873
496.867
494.472
495.581
496.881
495.951
495.332
493.889
495.648
493.88
496.365
494.609
494.245
495.249
496.332
497.209
496.925
497.657
494.527
494.887
494.752
495.88
495.734
495.53
496.003
493.954
495.736
496.426
493.987
493.886
493.869
496.349
495.549
495.236
494.039
494.52
496.909
497.643
496.251
497.126
494.327
494.555
494.085
497.646
496.955
497.139
496.302
496.41
493.972
495.626
495.081
494.348
495.756
496.754
495.377
496.763
495.813
495.391
495.202
496.312
496.337
495.88
495.546
494.408
496.849
495.974
496.546
497.408
495.958
496.841
497.39
498.138
495.447
497.417
496.626
496.867
496.009
498.146
497.447
496.051
495.607
496.921
494.522
494.01
496.328
494.227
496.904
494.557
497.172
495.184
497.616
494.198
496.988
494.362
497.28
494.706
497.778
495.447
494.189
493.996
496.89
496.237
495.167
497.604
494.462
497.097
494.351
496.331
494.099
497.769
495.436
497.216
494.62
494.177
495.745
494.285
496.73
495.353
497.3
495.775
497.274
498.043
495.751
496.654
496.504
495.789
495.241
498.058
497.361
496.679
495.805
496.828
494.391
495.4
496.093
496.115
496.313
496.339
495.536
494.403
496.838
495.883
496.842
497.39
498.138
495.973
496.543
497.428
496.008
498.148
497.447
495.983
495.456
497.437
496.621
496.915
494.52
496.061
494.011
497.173
495.182
497.621
496.333
494.221
496.907
494.71
497.783
495.45
496.451
494.198
497.044
494.378
494.192
493.997
497.608
494.456
497.093
494.205
496.891
496.237
495.439
497.222
494.609
497.039
494.365
496.373
494.105
496.738
495.337
495.745
498.05
495.756
496.656
496.425
497.331
495.775
497.372
496.684
495.804
497.35
496.541
495.785
495.244
494.387
495.405
495.961
496.095
495.23
495.581
495.9
496.897
494.502
496.905
495.956
494.51
495.346
495.677
493.876
496.355
493.901
497.254
496.929
497.748
494.142
494.665
494.261
495.323
496.486
493.987
493.995
496.341
495.542
493.869
497.738
496.257
497.177
494.243
495.309
494.008
494.527
493.976
495.675
493.981
495.059
496.795
495.386
494.345
495.852
495.395
494.364
493.97
493.882
493.592
493.917
493.839
493.816
493.766
493.844
493.793
493.829
493.727
493.874
493.779
493.814
493.646
493.947
493.862
493.732
494.035
494.034
493.912
493.806
493.697
493.87
493.776
494.352
494.199
494.53
495.599
494.791
495.241
495.059
494.262
494.751
494.66
495.787
495.446
495.262
495.876
494.558
494.951
494.806
495.948
495.791
495.566
496.078
494.37
494.228
494.566
495.661
494.817
495.281
495.112
494.292
494.814
494.701
495.863
495.516
495.327
495.963
494.81
494.26
494.66
495.828
495.509
495.957
495.284
494.86
494.439
494.71
495.881
495.691
496.01
495.464
494.15
494.25
494.477
495.595
494.721
495.05
495.172
493.851
493.66
493.998
493.899
493.77
493.938
493.865
493.688
493.745
494.268
494.107
494.411
495.496
494.725
495.186
494.964
494.374
494.498
494.088
494.573
495.642
494.112
495.347
494.443
495.766
495.134
493.899
494.781
494.096
494.102
494.658
494.567
494.421
494.731
494.266
494.726
495.193
495.039
494.788
496.414
495.586
495.555
495.597
495.991
495.909
495.982
496.828
495.859
496.546
496.359
496.351
496.216
496.957
495.099
495.248
495.534
495.342
494.641
494.002
494.161
494.893
495.052
494.294
495.592
495.322
494.091
494.548
495.108
495.737
494.408
493.82
493.732
494.533
494.392
494.679
495.166
495.171
495.407
496.405
494.827
495.645
495.858
495.722
496.772
496.323
496.514
495.801
496.926
496.164
496.296
497.097
496.736
497.354
496.662
497.229
496.514
497.22
495.252
495.98
495.489
495.324
495.832
495.739
495.65
494.731
494.409
495.904
495.411
494.572
494.005
493.897
495.882
496.155
494.925
494.888
496.036
495.999
494.684
494.122
494.088
493.969
494.682
495.14
494.173
494.738
494.972
495.703
496.022
495.971
495.863
495.086
495.198
495.492
495.263
495.483
495.969
495.827
495.323
494.034
494.27
494.408
496.189
495.003
495.39
494.662
495.045
495.42
494.46
494.016
494.691
493.774
494.549
494.027
495.108
496.336
495.285
495.047
495.794
495.586
494.74
494.577
494.654
494.888
494.604
493.61
493.84
493.914
493.678
493.752
494.664
494.956
494.673
494.709
494.547
494.867
494.358
495.305
494.858
494.933
495.145
495.034
495.197
495.471
495.232
495.451
495.951
495.312
495.784
495.26
495.169
495.441
496.441
494.891
495.701
495.945
494.384
495.321
495.181
494.877
494.94
494.599
494.905
494.746
495.253
495.485
495.96
495.317
495.816
495.107
495.238
495.522
495.221
496.491
495.725
495.301
495.528
494.942
496.007
494.723
495.05
494.778
494.77
494.035
494.313
494.439
493.801
494.077
494.748
494.63
494.078
494.026
494.286
494.398
494.562
494.942
494.909
496.077
494.379
495.315
495.259
494.075
493.812
494.721
494.067
494.604
494.78
494.462
495.701
494.616
495.96
495.796
495.479
494.142
494.605
494.491
495.675
495.362
495.155
495.785
493.907
494.798
494.697
494.129
494.122
494.989
496.15
495.343
494.625
495.021
494.43
495.387
494.113
494.376
494.524
494.14
493.93
494.819
494.126
494.701
494.027
493.805
494.729
494.058
494.589
493.989
494.215
494.377
494.019
494.7
493.783
494.046
494.557
493.969
494.195
494.338
494.49
494.844
496.01
494.803
495.242
494.29
495.194
494.924
495.004
496.223
495.935
494.721
496.049
496.107
495.434
494.046
494.186
494.627
494.342
494.92
495.071
494.722
495.728
494.363
495.612
494.545
495.902
495.364
494.74
494.221
495.434
494.604
495.865
495.748
495.237
494.817
494.423
494.671
495.806
495.638
495.937
495.419
494.123
494.243
494.439
495.529
494.683
495.012
495.128
494.038
494.262
494.439
494.092
494.799
493.884
494.11
494.655
494.547
494.872
496.08
494.918
495.273
494.334
495.311
494.038
494.287
494.444
494.541
494.53
494.807
494.715
494.222
495.187
495.014
494.785
495.102
495.027
496.323
495.307
495.547
494.756
495.81
494.896
495.032
495.301
495.06
495.778
495.259
495.136
495.613
494.581
494.454
494.756
495.129
495.071
496.36
495.367
495.576
494.79
495.851
495.066
495.781
495.282
495.133
495.632
494.916
495.058
495.341
494.588
494.639
494.89
494.607
495.921
495.921
496.16
496.145
496.002
495.959
496.184
496.242
496.076
496.017
495.893
495.045
495.19
495.463
494.69
494.516
494.793
495.255
495.457
495.151
496.434
494.885
495.95
495.646
495.214
495.431
495.927
495.77
495.287
494.822
494.28
495.268
495.09
494.902
496.777
495.812
496.531
496.332
496.309
496.168
496.936
496.774
495.816
496.323
496.516
496.172
496.303
496.928
497.057
496.629
496.621
497.336
496.443
497.198
497.194
496.556
495.658
495.67
495.684
496.074
495.994
496.093
497.097
496.657
496.735
497.353
496.51
497.219
497.229
496.832
495.865
496.397
496.577
496.241
496.371
496.978
495.322
495.568
495.289
496.523
494.987
496.012
495.772
494.755
494.591
494.924
495.257
495.494
495.981
495.83
495.323
494.899
494.422
495.373
495.207
494.962
493.581
493.748
493.841
493.891
493.698
495.632
494.118
495.335
494.563
495.142
494.439
495.749
495.736
494.402
495.649
494.723
495.403
494.559
495.901
495.921
494.902
494.963
496.173
494.706
496.022
496.076
495.65
494.805
494.21
494.356
495.114
495.269
494.544
495.845
494.273
495.486
494.796
495.294
494.688
495.945
495.952
494.556
495.81
494.98
495.573
494.797
496.111
496.151
495.266
495.331
496.421
495.069
496.249
496.312
493.832
493.762
493.989
493.866
494.094
494.155
493.991
493.61
493.825
493.848
493.648
493.693
495.269
493.95
494.543
494.074
494.822
494.221
494.964
495.875
494.886
496.158
494.913
496.006
494.67
496.031
495.659
494.31
494.646
495.554
494.476
495.312
495.83
495.805
495.472
494.222
494.792
495.247
495.933
494.646
495.581
494.132
494.702
494.254
495.013
494.48
495.171
496.113
495.254
496.41
495.295
496.237
495.033
496.277
495.893
494.459
494.922
495.727
494.749
495.482
496.055
494.083
494.119
493.96
493.942
493.819
495.09
495.02
495.285
496.306
494.741
495.541
495.78
494.884
495.016
495.286
494.68
494.173
495.141
494.975
494.741
495.041
495.229
495.753
495.594
495.104
496.251
495.389
495.413
495.394
495.825
495.808
495.714
496.612
496.363
495.622
496.133
496.142
496.771
495.971
496.601
495.605
496.34
496.11
496.118
495.965
496.751
496.892
496.436
497.181
496.421
497.041
496.242
497.026
496.66
496.374
495.656
496.153
496.176
496.787
496.013
496.388
495.489
495.46
495.474
495.898
495.914
495.799
496.935
496.457
497.201
496.546
497.057
496.316
497.076
496.668
495.661
496.415
496.198
496.195
496.041
496.821
494.611
494.465
494.791
494.912
495.069
495.349
494.75
494.286
495.246
495.073
494.805
495.076
495.275
495.807
495.645
495.144
495.708
495.673
495.939
495.927
495.789
495.959
496.017
495.851
495.788
495.662
495.92
496.146
496.167
496.008
495.928
496.244
496.189
496.084
496.017
495.906
495.966
495.214
495.931
495.424
495.288
495.772
494.818
495.271
494.297
494.906
495.087
495.053
495.195
495.465
494.668
494.515
494.8
495.239
496.427
495.458
495.136
495.955
495.635
494.893
497.06
496.624
497.337
496.636
497.195
496.445
497.2
496.422
495.584
495.603
495.563
495.911
495.982
496.003
496.786
496.333
495.825
496.535
496.178
496.936
496.323
496.834
496.395
496.577
495.865
496.978
496.244
496.374
496.822
496.352
495.85
496.545
496.21
496.952
496.344
496.556
495.69
495.662
495.663
495.994
496.103
496.069
494.901
495.371
494.406
494.964
495.202
495.103
495.256
495.547
495.321
496.528
495.575
495.29
496.035
495.751
494.992
494.758
494.607
494.919
493.764
493.9
493.832
493.71
493.579
495.931
494.978
496.17
494.903
496.081
494.74
496.016
495.333
494.16
494.635
494.006
495.061
494.29
494.901
495.64
494.559
494.139
495.329
494.456
495.745
495.166
495.961
495.812
494.984
494.562
496.112
495.569
494.816
496.163
495.335
496.425
495.278
496.315
495.087
496.263
495.662
494.366
494.819
494.217
495.273
494.562
495.105
495.864
494.813
494.281
495.514
494.706
495.968
495.313
494.162
494.102
494.013
493.845
493.789
493.857
493.82
493.675
493.708
493.578
495.667
494.659
495.551
494.305
495.834
494.499
495.311
495.586
494.545
495.313
494.092
495.728
494.41
495.099
495.258
494.078
493.939
494.543
494.228
494.949
494.828
496.13
496.415
495.299
495.265
496.282
496.252
495.046
495.901
494.918
495.724
494.447
496.057
494.745
495.466
495.831
494.803
495.504
494.234
495.959
494.665
495.265
495.599
494.261
494.13
494.706
494.49
495.167
495.025
493.935
493.828
493.831
493.746
495.04
495.755
495.229
495.101
495.602
494.531
494.392
494.672
495.104
496.311
495.009
495.293
495.516
495.804
494.728
494.865
495.016
495.284
496.602
496.343
496.121
495.611
496.757
496.129
495.964
496.891
497.183
496.43
496.441
497.031
497.044
496.237
496.234
495.395
495.38
495.395
495.806
495.689
495.813
496.608
496.135
496.371
495.625
496.776
495.967
496.142
496.955
497.207
496.551
496.478
497.083
497.077
496.325
496.684
496.419
496.197
495.662
496.826
496.212
496.046
496.679
496.157
496.387
495.653
496.803
496.024
496.183
496.404
495.486
495.495
495.461
495.934
495.803
495.905
494.744
495.243
494.252
494.804
495.059
495.08
495.813
495.289
495.146
495.66
495.164
496.429
495.177
495.431
495.659
495.882
494.836
494.594
494.46
494.783
494.913
495.067
495.363
495.929
495.946
495.781
495.716
495.787
495.665
495.74
494.974
494.674
494.688
495.241
495.462
495.959
495.803
495.318
495.282
495.469
496.473
495.192
495.984
494.91
495.705
494.731
494.566
494.882
495.353
494.387
494.886
494.959
495.173
495.111
495.241
495.528
496.507
495.216
495.732
495.304
495.534
496.02
494.956
494.417
495.358
495.19
494.895
494.959
494.597
494.918
494.74
494.722
495.046
494.78
494.776
494.557
494.917
496.084
494.97
495.268
494.389
495.323
494.054
493.83
494.703
494.601
494.041
494.042
494.33
494.454
493.84
494.072
494.732
494.626
494.052
494.302
494.138
494.454
495.55
494.75
495.213
495
494.853
495.769
494.507
496.04
494.669
495.864
495.521
494.179
494.64
494.542
495.735
495.383
495.198
495.834
494.133
494.391
494.535
494.165
493.928
494.847
494.736
494.151
494.379
494.533
494.118
493.942
494.837
494.726
494.152
494.144
493.969
494.2
494.335
494.487
496.008
494.823
494.81
495.215
495.214
494.273
493.793
494.029
494.727
494.044
494.595
493.968
494.221
494.371
494.592
494.137
494.474
495.691
495.373
495.813
495.169
494.05
494.185
494.368
495.472
494.64
494.944
495.076
494.766
495.658
494.364
495.973
494.568
495.785
495.389
494.116
494.832
493.871
494.673
494.137
496.131
494.912
495.316
494.574
494.947
495.339
494.342
494.045
494.277
494.446
493.88
494.829
494.687
494.113
494.13
494.288
494.458
494.039
494.531
494.801
494.523
494.887
495.021
495.297
495.054
495.782
495.259
495.612
495.132
494.57
494.416
494.736
495.212
494.208
494.72
495.027
494.782
496.415
495.14
495.66
495.177
495.361
495.87
494.798
495.083
495.798
495.282
495.648
495.14
494.931
495.054
495.346
494.265
495.232
495.063
494.735
494.794
494.482
494.786
494.598
495.166
495.16
496.263
494.943
496.134
496.015
496.14
497.703
497.417
498.128
497.681
498.425
498.105
498.827
496.96
498.129
497.468
498.431
497.753
498.832
498.218
496.735
496.491
495.657
496.881
496.059
496.212
497.139
498.116
496.804
497.621
498.092
498.818
497.597
498.356
497.454
497.628
496.864
498.825
498.212
498.367
497.695
496.636
496.329
496.876
497.376
496.214
496.746
497.275
496.849
496.89
495.912
496.87
496.44
497.285
496.42
497.161
497.192
496.89
497.687
496.768
497.575
497.278
498.424
498.108
498.83
496.901
497.735
497.417
498.206
497.753
498.836
498.224
497.743
496.977
498.21
497.525
496.783
496.645
497.537
497.148
496.915
496.504
497.414
498.822
497.596
498.362
497.402
498.198
496.804
497.666
498.22
498.379
497.704
498.205
497.519
497.684
496.92
496.938
497.186
497.679
497.657
497.072
497.048
497.559
497.12
497.667
496.862
497.151
497.253
497.545
496.726
497.447
497.959
497.678
497.962
497.563
497.847
497.564
495.452
496.164
496.39
496.701
495.562
496.013
496.243
496.423
496.833
496.681
495.618
497.097
496.155
495.99
496.774
497.142
497.522
496.627
497.409
496.498
496.891
496.564
497.322
496.805
496.256
497.222
496.669
496.145
496.919
497.644
497.654
497.141
497.545
497.028
497.035
496.357
495.787
495.651
494.808
495.789
495.652
494.895
496.689
496.158
496.015
495.456
496.375
496.229
495.558
495.198
495.181
494.996
496.059
496.278
496.179
496.147
496.702
496.577
497.102
497.456
496.455
496.818
497.345
496.436
495.638
496.841
496.7
496.165
496.013
497.096
496.863
497.055
497.601
497.555
496.98
496.939
497.487
496.61
496.306
496.878
497.332
496.216
496.691
497.251
496.502
496.87
496.748
495.652
497.153
496.202
496.069
496.949
497.684
497.648
497.156
497.57
497.069
497.037
496.696
496.946
497.414
496.38
497.332
496.289
496.781
495.277
495.257
495.059
496.141
496.373
496.267
496.241
496.663
497.406
496.911
496.37
497.302
496.774
496.252
496.72
497.474
497.084
496.55
497.367
496.834
496.425
496.447
496.701
496.821
495.587
497.112
496.013
496.135
495.243
495.23
495.007
496.103
496.358
496.229
496.23
496.203
495.55
496.476
496.727
495.672
496.055
496.314
496.221
496.759
496.082
495.573
496.488
495.684
496.348
494.745
495.693
496.275
495.669
495.585
494.811
495.555
495.043
494.957
496.237
494.783
496.144
495.981
496.071
496.367
495.575
496.796
496.647
496.123
495.952
497.044
496.555
497.445
496.794
496.654
497.079
496.42
497.317
496.536
496.255
496.84
497.293
496.153
496.632
497.21
497.038
497.593
496.962
496.818
497.539
496.904
497.464
495.735
496.336
495.633
494.809
495.75
494.858
495.647
494.702
495.676
495.652
496.233
494.793
495.544
495.512
496.511
496.24
497.281
496.805
496.617
496.127
497.183
497.023
496.776
497.52
497.556
496.882
496.925
497.424
496.314
495.48
496.6
496.706
495.904
496.02
496.998
496.585
496.469
497.385
496.98
496.733
496.316
497.249
497.041
497.547
496.927
496.822
497.56
496.938
497.457
496.293
497.324
496.681
496.583
496.853
496.19
497.233
496.633
496.485
497.395
497.017
496.751
496.358
497.285
496.375
495.525
496.638
496.747
495.954
496.066
497.04
495.719
494.761
495.736
496.3
494.845
495.593
495.607
495.395
496.083
496.609
496.331
495.921
495.517
496.173
495.409
496.09
496.637
496.337
495.945
495.519
496.196
495.556
496.72
496.459
496.177
496.312
496.025
495.659
496.984
496.059
496.987
496.994
496.569
496.571
497.392
497.263
497.021
497.269
497.786
496.872
497.403
497.656
497.252
497.259
497.005
497.773
496.863
497.642
497.391
497.52
498.025
497.775
498.023
497.654
497.898
497.652
497.304
497.3
497.032
497.796
496.91
497.417
497.685
497.05
497.043
496.141
497.058
496.636
496.646
497.443
497.552
498.037
497.787
498.036
497.669
497.924
497.671
497.303
497.321
497.06
497.81
496.926
497.69
497.432
495.602
496.795
496.515
496.269
496.37
496.13
495.706
496.334
495.541
496.63
496.772
495.914
496.058
497.033
496.516
496.816
496.223
497.276
496.129
497.199
496.605
496.605
497.037
496.511
497.405
496.363
497.283
496.742
496.776
497.511
497.554
496.979
497.438
496.861
496.906
496.911
496.672
496.341
497.386
496.253
497.309
496.757
496.781
497.158
496.647
497.54
496.512
497.415
496.916
496.953
497.642
497.702
497.191
497.568
497.038
497.1
496.478
496.209
496.776
497.263
496.091
496.594
497.159
496.271
496.567
495.45
496.699
495.852
496.973
495.986
496.734
497.498
496.967
497.517
496.848
497.397
496.867
496.538
496.966
497.349
496.426
497.221
496.283
496.68
496.424
496.665
495.556
496.79
495.98
497.076
496.115
496.916
497.631
497.181
497.673
497.026
497.533
497.067
496.72
497.074
497.496
496.571
497.357
496.423
496.864
495.376
496.591
496.056
496.31
495.906
496.151
495.488
497.126
497.166
496.882
497.679
496.738
497.55
497.266
497.112
497.138
497.659
496.859
497.535
496.713
497.247
497.387
497.927
497.913
497.651
497.795
497.527
497.513
496.901
496.932
495.987
496.941
496.491
497.328
496.498
497.42
497.936
497.947
497.668
497.818
497.54
497.552
497.167
497.209
497.72
496.934
497.578
496.784
497.31
495.446
496.679
496.161
496.384
496.004
496.223
495.561
495.518
496.453
496.169
496.704
495.64
496.303
496.007
497.252
497.004
497.771
497.261
497.389
496.863
497.643
497.524
497.776
498.023
498.024
497.652
497.653
497.902
496.989
496.989
496.058
497.016
496.569
497.394
496.591
497.274
497.793
497.032
497.302
497.404
497.672
496.895
497.552
497.789
498.037
498.038
497.672
497.669
497.927
497.311
497.059
497.812
497.332
497.433
496.934
497.701
497.319
497.295
497.801
497.04
497.414
497.687
496.912
497.057
497.044
497.066
496.123
496.654
497.446
496.634
495.589
496.51
496.261
496.791
495.699
496.372
496.112
496.605
496.511
497.407
497.038
496.742
496.366
497.284
496.778
497.559
496.984
497.509
496.911
497.441
496.857
496.336
496.771
495.539
496.638
496.066
497.037
495.922
496.524
497.279
496.829
496.226
497.209
496.603
496.143
496.963
497.703
497.195
497.661
497.101
497.578
497.055
496.772
496.509
496.888
495.681
496.213
497.167
496.083
496.96
496.699
497.425
496.387
497.342
496.789
496.292
496.732
496.97
497.52
497.495
496.871
496.842
497.395
496.538
497.347
496.423
496.95
496.679
497.216
496.274
496.467
497.261
496.208
496.786
496.585
497.157
496.089
496.26
496.678
496.582
495.448
496.968
495.962
495.856
496.735
497.5
496.574
497.095
496.868
497.377
496.431
496.932
496.672
497.42
496.377
496.781
497.319
496.253
496.716
496.454
496.823
495.581
497.115
496.139
496.013
495.414
496.06
496.315
496.606
495.504
495.91
496.171
497.388
497.92
497.654
497.935
497.518
497.796
497.532
496.845
496.879
496.887
495.911
497.286
496.429
496.431
497.123
497.697
497.172
496.901
497.547
497.277
496.738
497.195
497.731
496.944
497.239
497.32
497.607
496.812
497.227
497.186
497.721
496.919
497.608
497.303
496.789
496.966
496.928
496.972
496.004
497.361
496.527
496.512
496.242
495.571
496.494
496.76
496.342
495.692
496.083
496.78
496.248
496.102
495.584
496.501
496.36
495.694
494.733
496.273
495.663
495.676
495.556
495.581
494.785
497.51
496.614
496.871
496.722
497.114
497.372
496.465
496.596
496.855
497.337
496.266
497.258
496.181
496.683
497.673
497.133
497.048
496.894
497.611
497.533
496.979
495.11
496.327
495.008
496.225
494.846
496.05
496.14
496.395
495.794
495.686
494.851
495.802
495.699
494.908
494.69
495.65
496.229
495.665
495.517
494.772
495.534
497.647
497.122
497.022
496.855
497.593
497.496
496.961
496.354
496.595
496.743
495.492
497.032
495.911
496.056
497.457
496.526
496.811
496.647
497.029
497.309
496.362
495.081
496.315
494.974
496.199
494.774
496.008
496.121
496.135
495.41
496.634
496.357
496.18
495.96
495.542
497.315
497.173
497.313
497.556
497.703
497.551
497.927
497.609
497.935
497.831
498.084
497.98
498.188
498.29
497.774
497.312
497.766
497.685
497.673
498.044
498.129
498.02
498.037
497.938
498.287
498.465
498.369
498.387
498.062
497.906
497.566
497.947
497.793
498.163
498.272
498.327
498.325
498.22
498.429
498.64
498.538
498.533
498.011
497.988
497.901
498.264
498.449
498.37
498.344
498.55
498.739
498.755
498.726
498.659
498.632
498.647
497.93
497.583
498.076
497.812
497.954
498.169
498.284
497.35
497.785
497.778
497.716
497.709
498.076
498.141
498.069
498.014
497.951
498.303
498.471
498.414
498.364
497.566
498.063
497.905
497.944
497.791
498.159
498.271
498.313
498.308
498.191
498.401
498.632
498.521
498.514
498.001
498.045
497.937
498.295
498.456
498.356
498.4
498.534
498.705
498.763
498.697
498.65
498.596
498.641
497.365
497.237
497.595
497.383
497.746
497.624
497.962
498.072
498.028
497.968
498.317
498.476
498.419
498.378
497.4
497.816
497.743
497.852
497.78
498.105
498.175
498.322
498.325
498.215
498.424
498.639
498.529
498.536
497.641
498.105
497.998
497.989
497.881
498.208
498.323
498.554
498.712
498.771
498.732
498.657
498.615
498.668
498.098
498.149
498.029
498.348
498.534
498.417
498.465
498.003
498.035
497.917
498.273
498.46
498.354
498.383
497.118
497.239
497.23
497.508
497.498
497.625
497.874
497.873
497.499
497.996
497.749
497.876
498.112
498.228
497.989
498.006
497.9
498.262
498.445
498.344
498.364
498.502
498.691
498.688
498.735
498.585
498.615
498.61
497.482
497.846
497.979
497.734
497.863
498.104
498.211
498.239
498.227
498.115
498.346
498.584
498.466
498.458
497.807
497.369
497.84
497.72
497.75
498.08
498.165
497.878
497.524
498.002
497.771
497.895
498.128
498.232
497.172
497.276
497.294
497.539
497.563
497.661
497.907
498.521
498.698
498.729
498.744
498.606
498.621
498.647
498.086
498.13
497.999
498.322
498.53
498.408
498.45
498.245
498.258
498.132
498.364
498.595
498.471
498.491
497.56
497.961
498.043
497.826
497.907
498.155
498.287
498.308
498.315
498.197
498.409
498.633
498.516
498.527
498.048
498.002
497.939
498.297
498.46
498.402
498.359
498.541
498.766
498.7
498.727
498.645
498.662
498.602
497.314
497.345
497.188
497.71
497.555
497.59
497.935
497.978
498.091
497.617
497.975
497.852
498.193
498.312
497.779
497.355
497.812
497.711
497.744
498.079
498.145
498.134
498.075
498.005
498.331
498.525
498.455
498.397
498.107
497.998
497.646
498.001
497.886
498.219
498.325
498.567
498.773
498.74
498.733
498.673
498.667
498.635
498.153
498.115
498.042
498.364
498.541
498.47
498.434
497.636
497.986
497.876
498.098
497.991
498.209
498.315
497.386
497.276
497.638
497.396
497.759
497.652
497.99
498.14
498.106
498.032
498.355
498.529
498.46
498.428
497.453
497.883
497.804
497.89
497.815
498.145
498.218
498.504
498.69
498.743
498.717
498.614
498.587
498.634
497.847
497.984
497.481
497.732
497.869
498.105
498.216
498.233
498.248
498.114
498.347
498.592
498.463
498.48
497.764
497.797
497.313
497.674
497.704
498.045
498.13
498.111
498.058
497.969
498.295
498.514
498.381
498.431
497.225
497.123
497.254
497.497
497.626
497.526
497.876
497.934
498.023
497.528
497.88
497.794
498.128
498.267
498.137
498.112
498.025
498.349
498.539
498.46
498.432
498.269
498.271
498.161
498.394
498.607
498.504
498.498
497.969
498.052
497.588
497.853
497.933
498.183
498.297
498.103
498.118
498.015
498.341
498.523
498.426
498.441
497.878
497.428
497.785
497.886
497.797
498.13
498.215
497.949
497.583
497.846
498.045
497.936
498.178
498.283
497.233
497.335
497.606
497.332
497.609
497.699
497.954
492.736
490.301
487.938
492.951
490.653
488.473
492.869
490.517
488.296
492.846
490.39
487.947
492.35
489.678
486.995
492.392
489.77
487.182
492.431
489.833
487.315
492.928
490.551
488.178
493.145
490.887
488.671
495.059
493.748
492.442
492.371
489.704
487.017
495.006
493.675
492.348
494.774
493.337
491.913
494.554
492.977
491.45
492.76
490.272
487.765
492.157
489.299
486.444
492.813
490.409
488.021
493.05
490.773
488.542
495.324
494.387
493.61
494.764
493.321
491.892
494.557
492.97
491.415
492.313
489.659
487.029
492.375
489.75
487.215
492.134
489.285
486.432
492.151
489.306
486.451
492.164
489.324
486.477
492.137
489.314
486.485
492.136
489.287
486.434
493.045
490.771
488.592
493.081
490.803
488.597
492.958
490.623
488.421
492.785
490.413
488.16
492.86
490.534
488.297
492.144
489.325
486.499
492.113
489.284
486.452
492.186
489.391
486.594
492.2
489.433
486.675
492.208
489.452
486.71
492.196
489.405
486.615
492.287
489.547
486.806
492.214
489.428
486.64
492.125
489.3
486.47
493.28
491.044
488.836
494.508
492.912
491.358
493.286
491.065
488.878
494.541
492.951
491.397
492.386
489.77
487.243
492.395
489.775
487.238
492.859
490.425
487.943
492.427
489.832
487.311
492.438
489.823
487.232
492.483
489.895
487.388
492.394
489.773
487.241
492.376
489.749
487.213
492.81
490.45
488.226
492.904
490.592
488.383
492.421
489.804
487.224
492.474
489.884
487.365
493.133
490.868
488.646
494.508
493.016
491.555
494.313
492.687
491.116
494.534
493.042
491.569
494.333
492.71
491.136
495.562
494.646
493.888
495.588
494.696
493.966
494.507
492.894
491.317
493.202
490.957
488.755
494.556
492.978
491.45
493.085
490.748
488.411
493.315
491.102
488.926
492.128
489.312
486.482
492.425
489.774
487.131
492.868
490.407
487.944
492.17
489.313
486.461
492.117
489.299
486.469
492.731
490.31
487.95
492.929
490.625
488.434
492.763
490.287
487.824
492.157
489.298
486.443
493.052
490.78
488.562
494.474
492.967
491.488
494.281
492.632
491.028
494.8
493.447
492.112
494.772
493.407
492.053
494.281
492.654
491.11
494.416
492.88
491.408
494.797
493.47
492.202
492.935
490.57
488.216
493.142
490.895
488.695
494.533
493.053
491.595
494.323
492.703
491.139
495.304
494.347
493.552
495.321
494.38
493.603
495.562
494.642
493.873
495.589
494.698
493.966
494.479
492.862
491.286
493.19
490.945
488.746
494.535
492.964
491.461
494.528
492.962
491.459
493.077
490.741
488.414
493.3
491.083
488.904
492.131
489.317
486.488
492.815
490.412
488.087
492.926
490.587
488.364
492.425
489.78
487.154
492.172
489.317
486.465
492.114
489.297
486.466
492.75
490.267
487.791
492.417
489.769
487.138
492.729
490.3
487.943
492.947
490.634
488.417
492.825
490.453
488.203
494.442
492.934
491.463
494.24
492.587
490.981
494.803
493.476
492.186
494.791
493.468
492.205
494.797
493.48
492.212
494.289
492.678
491.148
494.435
492.924
491.49
494.272
492.664
491.141
493.145
490.896
488.706
494.331
492.718
491.16
495.305
494.35
493.549
494.535
492.942
491.389
493.048
490.702
488.367
493.309
491.087
488.891
493.083
490.75
488.418
493.323
491.108
488.93
492.399
489.777
487.238
492.35
489.701
487.066
492.395
489.778
487.256
492.421
489.801
487.198
492.467
489.876
487.367
492.451
489.838
487.237
492.475
489.884
487.38
492.272
489.614
486.986
492.339
489.716
487.194
492.83
490.496
488.272
492.464
489.872
487.366
492.457
489.862
487.339
494.534
493.054
491.594
494.323
492.701
491.129
492.881
490.486
488.097
493.114
490.844
488.624
494.32
492.702
491.14
493.135
490.88
488.673
492.401
489.801
487.269
492.569
490.068
487.762
492.2
489.588
487.227
492.08
489.45
486.995
492.359
489.744
487.183
492.539
490.022
487.69
492.245
489.553
486.923
492.248
489.558
486.931
492.203
489.506
486.881
492.387
489.819
487.459
492.312
489.675
487.102
492.43
489.875
487.53
492.355
489.753
487.247
492.481
489.927
487.582
492.118
489.506
487.093
492.294
489.716
487.379
492.213
489.494
486.788
492.127
489.41
486.711
492.192
489.398
486.602
492.213
489.454
486.703
492.24
489.546
486.917
492.346
489.793
487.481
492.326
489.698
487.138
492.43
489.892
487.57
493.138
490.854
488.61
492.777
490.324
487.955
493.112
490.821
488.595
492.81
490.365
488.025
492.704
490.232
487.847
492.936
490.604
488.359
492.347
489.754
487.279
492.498
489.955
487.6
492.328
489.743
487.368
492.113
489.487
487.035
492.248
489.537
486.834
492.144
489.424
486.718
492.154
489.421
486.705
492.115
489.388
486.681
492.362
489.772
487.353
492.239
489.614
487.107
492.38
489.8
487.414
493.023
490.706
488.453
492.689
490.208
487.824
493.078
490.829
488.651
493.254
491.066
488.906
492.752
490.317
487.92
492.909
490.588
488.382
492.74
490.336
488.021
492.395
489.728
487.005
492.413
489.794
487.207
492.507
489.965
487.552
492.441
489.871
487.398
492.645
490.152
487.786
492.599
490.068
487.544
492.593
490.053
487.53
492.528
489.936
487.356
493.345
491.21
489.103
493.446
491.393
489.423
493.562
491.561
489.619
493.334
491.228
489.191
493.179
491.004
488.907
493.126
490.886
488.724
492.91
490.557
488.266
493.057
490.781
488.626
493.372
491.238
489.093
493.618
491.606
489.595