/*--------------------------------*- C++ -*----------------------------------*\
| =========                 |                                                 |
| \\      /  F ield         | OpenFOAM: The Open Source CFD Toolbox           |
|  \\    /   O peration     | Version:  v1912                                 |
|   \\  /    A nd           | Website:  www.openfoam.com                      |
|    \\/     M anipulation  |                                                 |
\*---------------------------------------------------------------------------*/
FoamFile
{
    version     2.0;
    format      ascii;
    class       surfaceScalarField;
    location    "6.5/oil";
    object      phi;
}
// * * * * * * * * * * * * * * * * * * * * * * * * * * * * * * * * * * * * * //

dimensions      [1 0 -1 0 0 0 0];
oriented        oriented;


internalField   nonuniform List<scalar> 
104676
(
-1.83505e-06
-1.83756e-06
-1.856e-06
-1.02573e-06
-4.01658e-07
-4.07662e-07
-3.75661e-07
-3.22665e-07
-3.27407e-07
-1.98477e-07
-8.79558e-08
-8.92289e-08
-8.17615e-08
-5.80038e-08
-5.87115e-08
-4.33728e-08
-1.90821e-08
-1.93066e-08
-2.01089e-08
-1.15806e-08
-1.16832e-08
-1.1134e-08
-4.47902e-09
-4.49592e-09
-5.82999e-09
-2.66296e-09
-2.64104e-09
-3.46723e-09
-1.20438e-09
-1.15838e-09
-2.06529e-09
-7.32659e-10
-6.69279e-10
-1.3643e-09
-3.86881e-10
-3.14114e-10
-9.48352e-10
-2.5078e-10
-1.65167e-10
-7.2361e-10
-1.60486e-10
-6.42552e-11
-5.92676e-10
-1.16223e-10
-1.47111e-11
-5.208e-10
-8.72445e-11
1.53687e-11
-4.8069e-10
-6.9739e-11
2.96288e-11
-4.5668e-10
-5.8219e-11
3.42088e-11
-4.38631e-10
-5.0193e-11
3.21437e-11
-4.18616e-10
-4.49032e-11
2.48886e-11
-3.91213e-10
-4.21105e-11
1.47073e-11
-3.52161e-10
-4.17697e-11
2.71779e-12
-3.00962e-10
-4.23544e-11
-8.84494e-12
-2.39238e-10
-4.33411e-11
-1.83827e-11
-1.71407e-10
-4.35892e-11
-2.4241e-11
-1.0461e-10
-4.18242e-11
-2.49726e-11
-4.71285e-11
-3.66232e-11
-2.08588e-11
-8.55525e-12
-2.6227e-11
-1.23462e-11
6.45939e-12
-1.04959e-11
-4.51885e-12
6.02063e-12
4.38711e-13
-4.00964e-07
-1.02762e-06
-4.08975e-07
-3.00669e-07
-3.01103e-07
-2.00851e-07
-1.79096e-07
-2.62917e-07
-1.81321e-07
-1.1001e-07
-8.46799e-08
-7.23624e-08
-5.99284e-08
-5.90473e-08
-4.90378e-08
-3.65198e-08
-2.19656e-08
-2.05251e-08
-2.07278e-08
-1.46652e-08
-1.27074e-08
-1.30672e-08
-6.3777e-09
-5.76194e-09
-7.99314e-09
-4.31126e-09
-3.42574e-09
-5.32788e-09
-2.22737e-09
-1.64227e-09
-3.56133e-09
-1.58458e-09
-9.14619e-10
-2.56852e-09
-9.76229e-10
-4.03468e-10
-1.92434e-09
-7.45928e-10
-1.49028e-10
-1.54999e-09
-5.52364e-10
1.75251e-11
-1.31017e-09
-4.64504e-10
1.08459e-10
-1.16981e-09
-3.92856e-10
1.65257e-10
-1.08063e-09
-3.53212e-10
1.9429e-10
-1.02305e-09
-3.2196e-10
2.06156e-10
-9.75676e-10
-3.03065e-10
2.05501e-10
-9.26653e-10
-2.88919e-10
1.94993e-10
-8.63239e-10
-2.82067e-10
1.76542e-10
-7.79643e-10
-2.77915e-10
1.52549e-10
-6.73943e-10
-2.75196e-10
1.27141e-10
-5.49003e-10
-2.70842e-10
1.02561e-10
-4.12153e-10
-2.6168e-10
8.12408e-11
-2.76097e-10
-2.43502e-10
6.56211e-11
-1.55185e-10
-2.13013e-10
5.5478e-11
-6.47479e-11
-1.66323e-10
4.96588e-11
-1.28629e-11
-1.02794e-10
4.04125e-11
-2.92811e-11
2.24388e-11
-3.2281e-07
-3.76739e-07
-3.28067e-07
-2.62992e-07
-1.79578e-07
-1.81343e-07
-1.79891e-07
-1.80379e-07
-1.65638e-07
-1.17303e-07
-7.41042e-08
-7.31641e-08
-6.97197e-08
-5.7407e-08
-4.92235e-08
-4.38152e-08
-2.54586e-08
-2.24114e-08
-2.63451e-08
-1.83998e-08
-1.37355e-08
-1.69154e-08
-9.18843e-09
-6.61895e-09
-1.07466e-08
-6.59785e-09
-3.88216e-09
-7.26129e-09
-3.7945e-09
-1.91823e-09
-4.97997e-09
-2.83351e-09
-1.0324e-09
-3.62944e-09
-1.89584e-09
-4.30915e-10
-2.75198e-09
-1.51032e-09
-1.13068e-10
-2.21946e-09
-1.17598e-09
9.11033e-11
-1.87389e-09
-1.01842e-09
2.08348e-10
-1.66094e-09
-8.88911e-10
2.83104e-10
-1.52087e-09
-8.17066e-10
3.23778e-10
-1.42592e-09
-7.60896e-10
3.43993e-10
-1.34935e-09
-7.28125e-10
3.48482e-10
-1.27493e-09
-7.04579e-10
3.41242e-10
-1.18576e-09
-6.92036e-10
3.20799e-10
-1.07385e-09
-6.82705e-10
2.92885e-10
-9.35854e-10
-6.73942e-10
2.60747e-10
-7.74156e-10
-6.59244e-10
2.26704e-10
-5.96923e-10
-6.32634e-10
1.93721e-10
-4.17991e-10
-5.8691e-10
1.64477e-10
-2.53905e-10
-5.15988e-10
1.38888e-10
-1.22467e-10
-4.14251e-10
1.1649e-10
-3.43923e-11
-2.78713e-10
8.78453e-11
-1.08629e-10
4.4955e-11
-8.81278e-08
-1.99215e-07
-8.9396e-08
-8.45318e-08
-1.10862e-07
-7.23126e-08
-7.3396e-08
-1.18355e-07
-7.316e-08
-5.363e-08
-5.49165e-08
-3.89536e-08
-3.77091e-08
-4.5218e-08
-2.81099e-08
-2.62316e-08
-2.2381e-08
-1.45552e-08
-1.79506e-08
-1.72385e-08
-9.44229e-09
-1.2608e-08
-9.55309e-09
-4.97792e-09
-8.86044e-09
-7.31278e-09
-3.03264e-09
-6.45775e-09
-4.62909e-09
-1.56809e-09
-4.78911e-09
-3.66466e-09
-8.37494e-10
-3.70369e-09
-2.65686e-09
-3.24401e-10
-2.95905e-09
-2.21946e-09
-3.5499e-11
-2.47332e-09
-1.81605e-09
1.54338e-10
-2.14259e-09
-1.61896e-09
2.69812e-10
-1.92448e-09
-1.45362e-09
3.46599e-10
-1.77306e-09
-1.36066e-09
3.9217e-10
-1.66384e-09
-1.28887e-09
4.18754e-10
-1.57325e-09
-1.24872e-09
4.29995e-10
-1.48545e-09
-1.22141e-09
4.29045e-10
-1.38305e-09
-1.20703e-09
4.12585e-10
-1.25736e-09
-1.19585e-09
3.87461e-10
-1.10401e-09
-1.18258e-09
3.55287e-10
-9.24337e-10
-1.15707e-09
3.18149e-10
-7.25989e-10
-1.1102e-09
2.79222e-10
-5.22516e-10
-1.03169e-09
2.41302e-10
-3.30303e-10
-9.1293e-10
2.04729e-10
-1.69015e-10
-7.45483e-10
1.69944e-10
-5.22606e-11
-5.21453e-10
1.25985e-10
-2.24648e-10
6.37589e-11
-5.80262e-08
-8.24478e-08
-5.87415e-08
-5.87714e-08
-6.11111e-08
-4.90055e-08
-5.66002e-08
-7.13057e-08
-4.92205e-08
-4.38024e-08
-3.95901e-08
-2.81242e-08
-3.31158e-08
-3.5168e-08
-2.07366e-08
-2.39759e-08
-2.00705e-08
-1.14505e-08
-1.72417e-08
-1.63939e-08
-7.57872e-09
-1.24425e-08
-1.01633e-08
-4.18894e-09
-9.04576e-09
-8.13145e-09
-2.57804e-09
-6.72606e-09
-5.58162e-09
-1.36717e-09
-5.10756e-09
-4.55895e-09
-7.24211e-10
-4.00088e-09
-3.48681e-09
-2.76725e-10
-3.23469e-09
-2.97184e-09
-1.38061e-11
-2.7155e-09
-2.49395e-09
1.58703e-10
-2.3547e-09
-2.24731e-09
2.67553e-10
-2.10624e-09
-2.04452e-09
3.42442e-10
-1.92873e-09
-1.93136e-09
3.93194e-10
-1.79734e-09
-1.84675e-09
4.26491e-10
-1.6899e-09
-1.80384e-09
4.47689e-10
-1.58929e-09
-1.77668e-09
4.54653e-10
-1.47816e-09
-1.76519e-09
4.47036e-10
-1.34648e-09
-1.75675e-09
4.29224e-10
-1.18831e-09
-1.74263e-09
4.01873e-10
-1.00319e-09
-1.70881e-09
3.66616e-10
-7.97244e-10
-1.64284e-09
3.2669e-10
-5.82848e-10
-1.53135e-09
2.85271e-10
-3.76056e-10
-1.36305e-09
2.43324e-10
-1.97153e-10
-1.12632e-09
2.01929e-10
-6.28556e-11
-8.05018e-10
1.49268e-10
-3.63063e-10
7.5559e-11
-1.90212e-08
-4.41383e-08
-1.92883e-08
-2.15896e-08
-3.80544e-08
-2.04883e-08
-2.45781e-08
-4.5899e-08
-2.24181e-08
-2.08917e-08
-2.8677e-08
-1.45996e-08
-1.79384e-08
-2.6631e-08
-1.14903e-08
-1.41385e-08
-1.68833e-08
-6.98709e-09
-1.12368e-08
-1.44254e-08
-4.87024e-09
-8.73914e-09
-9.77987e-09
-2.88109e-09
-6.88139e-09
-8.15432e-09
-1.83488e-09
-5.45227e-09
-5.9972e-09
-1.01353e-09
-4.40529e-09
-5.06079e-09
-5.45142e-10
-3.62367e-09
-4.05397e-09
-2.14455e-10
-3.05368e-09
-3.53277e-09
-9.06741e-12
-2.63656e-09
-3.03511e-09
1.24035e-10
-2.32987e-09
-2.76814e-09
2.14143e-10
-2.10325e-09
-2.55269e-09
2.81549e-10
-1.93139e-09
-2.44036e-09
3.37131e-10
-1.79814e-09
-2.35648e-09
3.76488e-10
-1.6874e-09
-2.32204e-09
4.07451e-10
-1.58372e-09
-2.30458e-09
4.24227e-10
-1.473e-09
-2.30574e-09
4.29824e-10
-1.34489e-09
-2.30845e-09
4.23588e-10
-1.19238e-09
-2.30059e-09
4.05458e-10
-1.01344e-09
-2.26452e-09
3.7677e-10
-8.12282e-10
-2.1845e-09
3.40497e-10
-5.99854e-10
-2.04419e-09
3.00404e-10
-3.91454e-10
-1.82928e-09
2.5784e-10
-2.07779e-10
-1.52454e-09
2.14546e-10
-6.69778e-11
-1.10479e-09
1.58973e-10
-5.11211e-10
8.11705e-11
-1.15146e-08
-2.10016e-08
-1.16221e-08
-1.42827e-08
-2.26139e-08
-1.26723e-08
-1.75139e-08
-2.88871e-08
-1.37807e-08
-1.5749e-08
-2.09018e-08
-9.54001e-09
-1.42702e-08
-2.04324e-08
-7.67752e-09
-1.17001e-08
-1.45201e-08
-4.93326e-09
-9.67891e-09
-1.29293e-08
-3.51731e-09
-7.75392e-09
-9.53364e-09
-2.17123e-09
-6.29693e-09
-8.19963e-09
-1.41168e-09
-5.10708e-09
-6.37378e-09
-8.13269e-10
-4.22075e-09
-5.48805e-09
-4.59066e-10
-3.52939e-09
-4.532e-09
-2.13346e-10
-3.00603e-09
-3.99633e-09
-5.97972e-11
-2.6035e-09
-3.47479e-09
3.71611e-11
-2.29752e-09
-3.1863e-09
1.12174e-10
-2.06072e-09
-2.96355e-09
1.74065e-10
-1.87975e-09
-2.85402e-09
2.32691e-10
-1.73363e-09
-2.78012e-09
2.77516e-10
-1.6139e-09
-2.75998e-09
3.18207e-10
-1.50522e-09
-2.76196e-09
3.48699e-10
-1.39585e-09
-2.78495e-09
3.69841e-10
-1.27459e-09
-2.80776e-09
3.78053e-10
-1.13321e-09
-2.81441e-09
3.72443e-10
-9.67637e-10
-2.78391e-09
3.53817e-10
-7.80086e-10
-2.69695e-09
3.24907e-10
-5.7963e-10
-2.53461e-09
2.89973e-10
-3.80343e-10
-2.27943e-09
2.5086e-10
-2.02599e-10
-1.91241e-09
2.10128e-10
-6.52765e-11
-1.39883e-09
1.56717e-10
-6.57288e-10
8.08004e-11
-4.41094e-09
-1.21645e-08
-4.42616e-09
-6.01308e-09
-1.52434e-08
-5.76842e-09
-8.33491e-09
-1.98377e-08
-6.72757e-09
-8.11059e-09
-1.59765e-08
-5.14964e-09
-8.10707e-09
-1.60641e-08
-4.37176e-09
-7.14775e-09
-1.24505e-08
-3.02892e-09
-6.40615e-09
-1.14156e-08
-2.25532e-09
-5.47724e-09
-8.98531e-09
-1.47724e-09
-4.75145e-09
-7.92194e-09
-1.00347e-09
-4.07164e-09
-6.43156e-09
-6.22044e-10
-3.54057e-09
-5.62998e-09
-3.89141e-10
-3.08114e-09
-4.75971e-09
-2.31708e-10
-2.69898e-09
-4.24007e-09
-1.38431e-10
-2.376e-09
-3.72369e-09
-7.40805e-11
-2.11645e-09
-3.42984e-09
-1.60072e-11
-1.90267e-09
-3.21235e-09
3.50259e-11
-1.73151e-09
-3.11422e-09
8.90394e-11
-1.58498e-09
-3.06841e-09
1.41757e-10
-1.46496e-09
-3.07376e-09
1.9376e-10
-1.35853e-09
-3.10822e-09
2.39828e-10
-1.2562e-09
-3.16515e-09
2.77872e-10
-1.14713e-09
-3.2193e-09
3.02467e-10
-1.02235e-09
-3.25087e-09
3.1168e-10
-8.76398e-10
-3.23548e-09
3.05615e-10
-7.09722e-10
-3.15059e-09
2.86959e-10
-5.29434e-10
-2.97495e-09
2.60047e-10
-3.48221e-10
-2.68811e-09
2.27464e-10
-1.85398e-10
-2.2676e-09
1.92371e-10
-5.92601e-11
-1.67011e-09
1.45139e-10
-7.92536e-10
7.59877e-11
-2.59738e-09
-6.97199e-09
-2.59509e-09
-3.97156e-09
-1.03841e-08
-3.48515e-09
-5.80094e-09
-1.39481e-08
-4.06025e-09
-5.95292e-09
-1.25433e-08
-3.28125e-09
-6.1863e-09
-1.29851e-08
-2.84568e-09
-5.66738e-09
-1.08986e-08
-2.0708e-09
-5.25548e-09
-1.02438e-08
-1.58366e-09
-4.63601e-09
-8.51393e-09
-1.09085e-09
-4.13958e-09
-7.64099e-09
-7.77372e-10
-3.63587e-09
-6.40612e-09
-5.29142e-10
-3.22678e-09
-5.65887e-09
-3.80198e-10
-2.84626e-09
-4.85019e-09
-2.90039e-10
-2.51411e-09
-4.32761e-09
-2.44603e-10
-2.2176e-09
-3.81965e-09
-2.00552e-10
-1.96689e-09
-3.52041e-09
-1.60139e-10
-1.7505e-09
-3.30791e-09
-1.20836e-10
-1.57272e-09
-3.21979e-09
-7.22172e-11
-1.41967e-09
-3.20871e-09
-1.27493e-11
-1.29274e-09
-3.25148e-09
5.08031e-11
-1.18499e-09
-3.32938e-09
1.13396e-10
-1.08828e-09
-3.43021e-09
1.68355e-10
-9.91047e-10
-3.52568e-09
2.0915e-10
-8.83664e-10
-3.59181e-09
2.33557e-10
-7.5924e-10
-3.60079e-09
2.40883e-10
-6.16527e-10
-3.52708e-09
2.33774e-10
-4.60731e-10
-3.34728e-09
2.16539e-10
-3.02787e-10
-3.03849e-09
1.92441e-10
-1.60392e-10
-2.57515e-09
1.65149e-10
-5.03896e-11
-1.90691e-09
1.26801e-10
-9.10644e-10
6.77186e-11
-1.14402e-09
-4.68469e-09
-1.14329e-09
-1.90892e-09
-7.85859e-09
-1.76057e-09
-3.05816e-09
-1.06349e-08
-2.16402e-09
-3.36715e-09
-1.03413e-08
-1.89296e-09
-3.76693e-09
-1.08692e-08
-1.71605e-09
-3.67703e-09
-9.65485e-09
-1.33367e-09
-3.63758e-09
-9.21551e-09
-1.06775e-09
-3.39642e-09
-7.9654e-09
-7.89688e-10
-3.19824e-09
-7.23208e-09
-6.07088e-10
-2.93768e-09
-6.19961e-09
-4.67078e-10
-2.70485e-09
-5.5008e-09
-3.90901e-10
-2.44762e-09
-4.74989e-09
-3.57524e-10
-2.20356e-09
-4.22644e-09
-3.45234e-10
-1.96654e-09
-3.73694e-09
-3.19727e-10
-1.74836e-09
-3.44069e-09
-2.97906e-10
-1.5456e-09
-3.24279e-09
-2.67873e-10
-1.37206e-09
-3.17235e-09
-2.20972e-10
-1.22501e-09
-3.1961e-09
-1.59657e-10
-1.09968e-09
-3.29003e-09
-8.67796e-11
-9.95233e-10
-3.42165e-09
-1.21784e-11
-9.06337e-10
-3.5757e-09
5.65943e-11
-8.21713e-10
-3.7215e-09
1.11191e-10
-7.31885e-10
-3.8308e-09
1.49162e-10
-6.2902e-10
-3.87262e-09
1.68967e-10
-5.11077e-10
-3.81827e-09
1.73252e-10
-3.81377e-10
-3.64308e-09
1.66099e-10
-2.49113e-10
-3.32201e-09
1.51254e-10
-1.30401e-10
-2.82653e-09
1.32672e-10
-4.00183e-11
-2.10157e-09
1.04275e-10
-1.00825e-09
5.75913e-11
-6.80707e-10
-3.32143e-09
-6.82559e-10
-1.28496e-09
-6.16019e-09
-1.09414e-09
-2.14139e-09
-8.42557e-09
-1.35286e-09
-2.48721e-09
-8.75687e-09
-1.23861e-09
-2.86626e-09
-9.33877e-09
-1.15142e-09
-2.89916e-09
-8.68105e-09
-9.40897e-10
-2.95006e-09
-8.3817e-09
-7.82908e-10
-2.83558e-09
-7.46057e-09
-6.19317e-10
-2.73491e-09
-6.81966e-09
-5.13094e-10
-2.56449e-09
-5.92862e-09
-4.41409e-10
-2.39341e-09
-5.25431e-09
-4.17571e-10
-2.18322e-09
-4.53814e-09
-4.21939e-10
-1.98154e-09
-4.00706e-09
-4.21059e-10
-1.77196e-09
-3.53679e-09
-4.09742e-10
-1.56787e-09
-3.2441e-09
-4.00682e-10
-1.37115e-09
-3.06146e-09
-3.78051e-10
-1.19727e-09
-3.01281e-09
-3.3342e-10
-1.05023e-09
-3.07109e-09
-2.72055e-10
-9.26336e-10
-3.21999e-09
-1.93942e-10
-8.24607e-10
-3.40715e-09
-1.16224e-10
-7.40791e-10
-3.61876e-09
-4.07577e-11
-6.65319e-10
-3.81907e-09
2.21069e-11
-5.88873e-10
-3.97628e-09
6.90351e-11
-5.03695e-10
-4.05572e-09
9.79244e-11
-4.0759e-10
-4.02583e-09
1.11453e-10
-3.02034e-10
-3.86155e-09
1.12907e-10
-1.94187e-10
-3.53607e-09
1.06207e-10
-9.88503e-11
-3.0182e-09
9.63375e-11
-2.85043e-11
-2.25077e-09
7.88511e-11
-1.08295e-09
4.61953e-11
-3.48578e-10
-2.61992e-09
-3.52923e-10
-7.07113e-10
-5.16237e-09
-6.39291e-10
-1.25231e-09
-7.0506e-09
-8.29773e-10
-1.55343e-09
-7.64621e-09
-8.09544e-10
-1.90136e-09
-8.21307e-09
-7.77761e-10
-2.03053e-09
-7.87988e-09
-6.72002e-10
-2.16507e-09
-7.6587e-09
-5.88469e-10
-2.17045e-09
-6.95458e-09
-5.00602e-10
-2.16884e-09
-6.3745e-09
-4.46766e-10
-2.09277e-09
-5.58056e-09
-4.24128e-10
-1.99476e-09
-4.92008e-09
-4.32244e-10
-1.85449e-09
-4.23681e-09
-4.41606e-10
-1.70795e-09
-3.70921e-09
-4.4439e-10
-1.53926e-09
-3.25552e-09
-4.49966e-10
-1.36531e-09
-2.96872e-09
-4.49322e-10
-1.19158e-09
-2.80117e-09
-4.34023e-10
-1.03289e-09
-2.77757e-09
-3.93926e-10
-8.94974e-10
-2.87213e-09
-3.36871e-10
-7.7793e-10
-3.07296e-09
-2.64066e-10
-6.80471e-10
-3.31378e-09
-1.9083e-10
-6.0043e-10
-3.58348e-09
-1.15319e-10
-5.30395e-10
-3.83913e-09
-4.99765e-11
-4.62473e-10
-4.04456e-09
3.58886e-13
-3.89436e-10
-4.16227e-09
3.35096e-11
-3.10397e-10
-4.15806e-09
5.31884e-11
-2.26442e-10
-4.00827e-09
6.27683e-11
-1.43842e-10
-3.68513e-09
6.6462e-11
-7.1678e-11
-3.15678e-09
6.64113e-11
-1.97494e-11
-2.36103e-09
5.83332e-11
-1.13906e-09
3.63587e-11
-2.1828e-10
-2.17891e-09
-2.22735e-10
-5.02309e-10
-4.46023e-09
-4.18112e-10
-9.09212e-10
-6.08928e-09
-5.54411e-10
-1.18071e-09
-6.79727e-09
-5.77443e-10
-1.48171e-09
-7.33522e-09
-5.76859e-10
-1.6322e-09
-7.20718e-09
-5.22204e-10
-1.77183e-09
-7.04367e-09
-4.75399e-10
-1.80689e-09
-6.49109e-09
-4.28428e-10
-1.8222e-09
-5.95659e-09
-4.02604e-10
-1.7754e-09
-5.22791e-09
-3.99449e-10
-1.71175e-09
-4.58118e-09
-4.02547e-10
-1.611e-09
-3.93061e-09
-4.06946e-10
-1.4895e-09
-3.41359e-09
-4.1712e-10
-1.34684e-09
-2.97092e-09
-4.2725e-10
-1.1988e-09
-2.688e-09
-4.28764e-10
-1.049e-09
-2.53306e-09
-4.17918e-10
-9.08411e-10
-2.53444e-09
-3.83722e-10
-7.81417e-10
-2.66077e-09
-3.38352e-10
-6.73882e-10
-2.89729e-09
-2.83213e-10
-5.80089e-10
-3.18275e-09
-2.24821e-10
-5.00212e-10
-3.50282e-09
-1.60535e-10
-4.30749e-10
-3.80632e-09
-1.02274e-10
-3.67068e-10
-4.05435e-09
-5.38905e-11
-3.03223e-10
-4.20939e-09
-1.67249e-11
-2.36346e-10
-4.23399e-09
9.05843e-12
-1.67806e-10
-4.10035e-09
2.35385e-11
-1.02455e-10
-3.78237e-09
3.1892e-11
-4.7825e-11
-3.24884e-09
3.74315e-11
-1.13964e-11
-2.43515e-09
3.7687e-11
-1.17707e-09
2.66126e-11
-1.30396e-10
-1.91074e-09
-1.37774e-10
-3.24962e-10
-3.98574e-09
-2.79923e-10
-6.04198e-10
-5.43341e-09
-3.7664e-10
-8.18843e-10
-6.17447e-09
-4.0816e-10
-1.05796e-09
-6.67663e-09
-4.19471e-10
-1.20488e-09
-6.66053e-09
-3.99726e-10
-1.3432e-09
-6.52391e-09
-3.81446e-10
-1.41007e-09
-6.0586e-09
-3.65619e-10
-1.44956e-09
-5.55902e-09
-3.58084e-10
-1.43486e-09
-4.89229e-09
-3.50321e-10
-1.40283e-09
-4.2728e-09
-3.4041e-10
-1.33541e-09
-3.65726e-09
-3.40765e-10
-1.25071e-09
-3.15269e-09
-3.456e-10
-1.14648e-09
-2.72687e-09
-3.48284e-10
-1.03381e-09
-2.45614e-09
-3.44528e-10
-9.14909e-10
-2.31916e-09
-3.32799e-10
-8.02045e-10
-2.34174e-09
-3.05561e-10
-6.94671e-10
-2.49373e-09
-2.7441e-10
-5.99613e-10
-2.75663e-09
-2.35719e-10
-5.14605e-10
-3.07126e-09
-1.96501e-10
-4.39937e-10
-3.41942e-09
-1.58071e-10
-3.70444e-10
-3.75273e-09
-1.23083e-10
-3.03375e-10
-4.03281e-09
-8.86057e-11
-2.37094e-10
-4.21887e-09
-5.67997e-11
-1.74029e-10
-4.26655e-09
-3.05081e-11
-1.15424e-10
-4.1467e-09
-1.22572e-11
-6.41468e-11
-3.83442e-09
7.73102e-13
-2.52935e-11
-3.29954e-09
1.18461e-11
-3.46664e-12
-2.47638e-09
1.94095e-11
-1.1985e-09
1.79607e-11
-9.35249e-11
-1.72035e-09
-9.68638e-11
-2.54571e-10
-3.6211e-09
-2.03592e-10
-4.74438e-10
-4.93244e-09
-2.81097e-10
-6.5756e-10
-5.67487e-09
-3.16473e-10
-8.50057e-10
-6.1484e-09
-3.35737e-10
-9.75225e-10
-6.19987e-09
-3.35493e-10
-1.08411e-09
-6.08517e-09
-3.29857e-10
-1.14045e-09
-5.68599e-09
-3.16268e-10
-1.18106e-09
-5.21921e-09
-2.99204e-10
-1.17986e-09
-4.615e-09
-2.78477e-10
-1.158e-09
-4.0348e-09
-2.5987e-10
-1.10848e-09
-3.45824e-09
-2.48533e-10
-1.0527e-09
-2.96969e-09
-2.38786e-10
-9.81836e-10
-2.57e-09
-2.27731e-10
-9.02557e-10
-2.32071e-09
-2.14704e-10
-8.16756e-10
-2.20303e-09
-2.01935e-10
-7.32073e-10
-2.24019e-09
-1.86229e-10
-6.45147e-10
-2.40686e-09
-1.73797e-10
-5.60095e-10
-2.68333e-09
-1.58347e-10
-4.76356e-10
-3.0123e-09
-1.42698e-10
-3.97231e-10
-3.37333e-09
-1.25214e-10
-3.21998e-10
-3.71969e-09
-1.08276e-10
-2.50967e-10
-4.01346e-09
-9.03869e-11
-1.84192e-10
-4.21209e-09
-7.35571e-11
-1.23891e-10
-4.26929e-09
-5.75585e-11
-7.20744e-11
-4.15574e-09
-4.27761e-11
-3.15782e-11
-3.84721e-09
-2.77064e-11
-5.724e-12
-3.3134e-09
-1.1993e-11
3.6216e-12
-2.48799e-09
2.2644e-12
-1.20494e-09
1.00595e-11
-7.05779e-11
-1.57835e-09
-7.1419e-11
-1.95662e-10
-3.33952e-09
-1.5649e-10
-3.6374e-10
-4.54116e-09
-2.23204e-10
-5.14193e-10
-5.26425e-09
-2.6017e-10
-6.68971e-10
-5.7124e-09
-2.81221e-10
-7.79652e-10
-5.80809e-09
-2.81105e-10
-8.75555e-10
-5.72182e-09
-2.6745e-10
-9.23848e-10
-5.3925e-09
-2.45196e-10
-9.48079e-10
-4.97298e-09
-2.22e-10
-9.39736e-10
-4.42567e-09
-1.97675e-10
-9.24532e-10
-3.88188e-09
-1.68127e-10
-8.99408e-10
-3.34777e-09
-1.35592e-10
-8.71231e-10
-2.89542e-09
-1.02446e-10
-8.31838e-10
-2.53327e-09
-7.61297e-11
-7.8465e-10
-2.30694e-09
-6.09667e-11
-7.33785e-10
-2.19891e-09
-5.49791e-11
-6.77471e-10
-2.24141e-09
-5.50941e-11
-6.10443e-10
-2.41149e-09
-6.2402e-11
-5.37429e-10
-2.68412e-09
-7.22213e-11
-4.5561e-10
-3.01009e-09
-8.40314e-11
-3.69446e-10
-3.36801e-09
-9.1482e-11
-2.8369e-10
-3.71083e-09
-9.46163e-11
-2.03949e-10
-3.99997e-09
-9.32333e-11
-1.34513e-10
-4.19229e-09
-8.92339e-11
-7.62759e-11
-4.24635e-09
-8.11729e-11
-3.07827e-11
-4.13253e-09
-6.87035e-11
-8.4874e-13
-3.82553e-09
-5.16136e-11
1.26176e-11
-3.29513e-09
-3.17368e-11
1.04488e-11
-2.47468e-09
-1.11417e-11
-1.19786e-09
3.37486e-12
-6.02555e-11
-1.4587e-09
-5.93998e-11
-1.72968e-10
-3.09179e-09
-1.35023e-10
-3.17145e-10
-4.20054e-09
-1.9645e-10
-4.50201e-10
-4.89626e-09
-2.34931e-10
-5.78997e-10
-5.32447e-09
-2.59128e-10
-6.70152e-10
-5.45204e-09
-2.64885e-10
-7.4062e-10
-5.39659e-09
-2.54759e-10
-7.73281e-10
-5.13062e-09
-2.2922e-10
-7.8803e-10
-4.76701e-09
-1.9123e-10
-7.75673e-10
-4.29003e-09
-1.47997e-10
-7.56745e-10
-3.79888e-09
-1.01924e-10
-7.36989e-10
-3.31529e-09
-5.22401e-11
-7.21499e-10
-2.90791e-09
-3.00093e-12
-7.05103e-10
-2.58556e-09
3.58983e-11
-6.87518e-10
-2.38447e-09
5.9949e-11
-6.64413e-10
-2.28837e-09
6.63571e-11
-6.28868e-10
-2.3326e-09
5.56428e-11
-5.75404e-10
-2.49698e-09
3.20225e-11
-5.10639e-10
-2.74874e-09
-1.46329e-13
-4.28595e-10
-3.05638e-09
-3.57473e-11
-3.3657e-10
-3.39738e-09
-6.26583e-11
-2.43141e-10
-3.72257e-09
-8.16902e-11
-1.56552e-10
-3.98866e-09
-9.7895e-11
-8.46855e-11
-4.1552e-09
-1.08955e-10
-2.78057e-11
-4.19399e-09
-1.09241e-10
1.24052e-11
-4.07423e-09
-9.85045e-11
3.20354e-11
-3.76696e-09
-7.82049e-11
3.29542e-11
-3.24286e-09
-5.31875e-11
1.84922e-11
-2.43473e-09
-2.54871e-11
-1.1754e-09
-3.97145e-12
-5.61419e-11
-1.34763e-09
-5.4929e-11
-1.59902e-10
-2.86082e-09
-1.27213e-10
-2.87836e-10
-3.88545e-09
-1.87146e-10
-4.08134e-10
-4.54786e-09
-2.28103e-10
-5.18865e-10
-4.95782e-09
-2.55918e-10
-5.95922e-10
-5.10821e-09
-2.66778e-10
-6.48926e-10
-5.08353e-09
-2.60057e-10
-6.70311e-10
-4.87403e-09
-2.35202e-10
-6.77114e-10
-4.5669e-09
-1.93307e-10
-6.63265e-10
-4.1678e-09
-1.36082e-10
-6.41694e-10
-3.74733e-09
-7.31171e-11
-6.21375e-10
-3.32574e-09
-9.87264e-12
-6.12594e-10
-2.96727e-09
5.05814e-11
-6.09938e-10
-2.68738e-09
9.91643e-11
-6.09557e-10
-2.51462e-09
1.29766e-10
-6.01256e-10
-2.43263e-09
1.35954e-10
-5.77084e-10
-2.47436e-09
1.17589e-10
-5.30714e-10
-2.62549e-09
8.21392e-11
-4.6641e-10
-2.84621e-09
3.31688e-11
-3.80942e-10
-3.12182e-09
-2.0036e-11
-2.84752e-10
-3.42598e-09
-6.75883e-11
-1.86346e-10
-3.71363e-09
-1.07345e-10
-9.6886e-11
-3.94475e-09
-1.33367e-10
-2.27654e-11
-4.08396e-09
-1.45364e-10
3.09024e-11
-4.10461e-09
-1.43052e-10
6.26396e-11
-3.97812e-09
-1.27848e-10
7.03543e-11
-3.67125e-09
-1.03427e-10
5.65485e-11
-3.1556e-09
-7.34564e-11
2.69913e-11
-2.36573e-09
-3.94428e-11
-1.13707e-09
-1.13395e-11
-5.67659e-11
-1.23619e-09
-5.46732e-11
-1.61185e-10
-2.62855e-09
-1.2785e-10
-2.85687e-10
-3.57057e-09
-1.90378e-10
-4.04006e-10
-4.19512e-09
-2.34417e-10
-5.09198e-10
-4.58707e-09
-2.65561e-10
-5.83746e-10
-4.75277e-09
-2.80888e-10
-6.31856e-10
-4.7556e-09
-2.79821e-10
-6.45826e-10
-4.60042e-09
-2.59639e-10
-6.4036e-10
-4.35316e-09
-2.19205e-10
-6.19349e-10
-4.02956e-09
-1.59245e-10
-5.95188e-10
-3.68553e-09
-8.59708e-11
-5.69586e-10
-3.33802e-09
-1.33183e-11
-5.54122e-10
-3.03335e-09
5.06192e-11
-5.48876e-10
-2.79462e-09
1.01993e-10
-5.48337e-10
-2.65016e-09
1.35006e-10
-5.39487e-10
-2.58246e-09
1.40977e-10
-5.13224e-10
-2.61879e-09
1.18162e-10
-4.63107e-10
-2.75117e-09
7.55652e-11
-3.91227e-10
-2.93668e-09
1.85861e-11
-2.99551e-10
-3.16957e-09
-4.39242e-11
-1.97613e-10
-3.4217e-09
-1.06215e-10
-9.46979e-11
-3.65828e-09
-1.58265e-10
-3.84902e-12
-3.84698e-09
-1.88622e-10
6.66753e-11
-3.95515e-09
-1.99329e-10
1.10283e-10
-3.9547e-09
-1.93513e-10
1.26273e-10
-3.82121e-09
-1.72897e-10
1.16015e-10
-3.52353e-09
-1.37457e-10
8.26614e-11
-3.02566e-09
-9.65848e-11
3.59954e-11
-2.26366e-09
-5.54066e-11
-1.08104e-09
-2.00315e-11
-6.03505e-11
-1.11754e-09
-5.83023e-11
-1.69004e-10
-2.38493e-09
-1.34964e-10
-2.97998e-10
-3.23991e-09
-2.01673e-10
-4.24424e-10
-3.81706e-09
-2.51639e-10
-5.34388e-10
-4.18693e-09
-2.90173e-10
-6.12204e-10
-4.36203e-09
-3.12929e-10
-6.59237e-10
-4.38989e-09
-3.18672e-10
-6.71428e-10
-4.28347e-09
-3.0476e-10
-6.59694e-10
-4.09378e-09
-2.71114e-10
-6.30365e-10
-3.84009e-09
-2.18802e-10
-5.97347e-10
-3.56754e-09
-1.50999e-10
-5.64281e-10
-3.29454e-09
-7.65436e-11
-5.34305e-10
-3.05228e-09
-1.10498e-11
-5.12413e-10
-2.85317e-09
3.66548e-11
-4.95881e-10
-2.73205e-09
6.53529e-11
-4.71628e-10
-2.67567e-09
6.89643e-11
-4.30678e-10
-2.70521e-09
4.54706e-11
-3.68752e-10
-2.81549e-09
2.39269e-12
-2.85042e-10
-2.96165e-09
-5.87392e-11
-1.83498e-10
-3.14539e-09
-1.25721e-10
-7.49083e-11
-3.34455e-09
-1.85743e-10
2.93574e-11
-3.53102e-09
-2.31522e-10
1.16384e-10
-3.67709e-09
-2.56915e-10
1.76811e-10
-3.753e-09
-2.62578e-10
2.03624e-10
-3.73095e-09
-2.5057e-10
1.95934e-10
-3.58729e-09
-2.26236e-10
1.59993e-10
-3.29738e-09
-1.90209e-10
1.06219e-10
-2.82709e-09
-1.44795e-10
4.39466e-11
-2.11218e-09
-8.92027e-11
-1.00472e-09
-3.23785e-11
-6.52302e-11
-9.87289e-10
-6.50168e-11
-1.8582e-10
-2.11361e-09
-1.50735e-10
-3.26429e-10
-2.87778e-09
-2.21521e-10
-4.64596e-10
-3.4025e-09
-2.76394e-10
-5.84792e-10
-3.74573e-09
-3.21007e-10
-6.7273e-10
-3.92237e-09
-3.51723e-10
-7.26014e-10
-3.96984e-09
-3.66766e-10
-7.42042e-10
-3.90419e-09
-3.63246e-10
-7.2906e-10
-3.76579e-09
-3.40967e-10
-6.93628e-10
-3.57443e-09
-3.01095e-10
-6.47554e-10
-3.36631e-09
-2.47308e-10
-5.9727e-10
-3.15914e-09
-1.85687e-10
-5.4658e-10
-2.97638e-09
-1.26593e-10
-4.97871e-10
-2.8198e-09
-8.20783e-11
-4.54239e-10
-2.7173e-09
-5.83794e-11
-4.02311e-10
-2.67089e-09
-5.67098e-11
-3.3464e-10
-2.6942e-09
-7.86783e-11
-2.51704e-10
-2.77788e-09
-1.20547e-10
-1.50704e-10
-2.88576e-09
-1.76892e-10
-3.80945e-11
-3.02324e-09
-2.34757e-10
7.47668e-11
-3.17373e-09
-2.8368e-10
1.76192e-10
-3.31426e-09
-3.18187e-10
2.5385e-10
-3.42104e-09
-3.33711e-10
2.98949e-10
-3.46795e-09
-3.30149e-10
3.06074e-10
-3.42943e-09
-3.08636e-10
2.75202e-10
-3.28189e-09
-2.74529e-10
2.12522e-10
-3.00311e-09
-2.31588e-10
1.33083e-10
-2.56628e-09
-1.81369e-10
5.25384e-11
-1.91439e-09
-1.17255e-10
-9.07823e-10
-4.4354e-11
-6.99364e-11
-8.44812e-10
-7.25401e-11
-2.02886e-10
-1.81401e-09
-1.66643e-10
-3.57227e-10
-2.48219e-09
-2.41241e-10
-5.10317e-10
-2.94794e-09
-3.01468e-10
-6.45416e-10
-3.2574e-09
-3.53231e-10
-7.48179e-10
-3.42684e-09
-3.92768e-10
-8.1345e-10
-3.48585e-09
-4.18723e-10
-8.38029e-10
-3.45115e-09
-4.28462e-10
-8.27213e-10
-3.35525e-09
-4.21355e-10
-7.86936e-10
-3.21675e-09
-3.97955e-10
-7.27497e-10
-3.06395e-09
-3.61805e-10
-6.55525e-10
-2.91223e-09
-3.18884e-10
-5.78742e-10
-2.77712e-09
-2.76045e-10
-4.97175e-10
-2.6612e-09
-2.40164e-10
-4.18315e-10
-2.57822e-09
-2.17943e-10
-3.31429e-10
-2.542e-09
-2.15781e-10
-2.3187e-10
-2.55927e-09
-2.34491e-10
-1.22023e-10
-2.61705e-09
-2.70668e-10
5.26019e-14
-2.69266e-09
-3.1518e-10
1.24547e-10
-2.78948e-09
-3.58263e-10
2.40406e-10
-2.89757e-09
-3.92016e-10
3.36272e-10
-2.99829e-09
-4.11836e-10
4.00818e-10
-3.07192e-09
-4.13661e-10
4.26539e-10
-3.09603e-09
-3.9765e-10
4.10161e-10
-3.04797e-09
-3.65086e-10
3.54454e-10
-2.90582e-09
-3.20358e-10
2.66737e-10
-2.64849e-09
-2.66902e-10
1.62802e-10
-2.2538e-09
-2.08552e-10
6.19146e-11
-1.67532e-09
-1.38181e-10
-7.91207e-10
-5.4702e-11
-7.5955e-11
-6.91115e-10
-7.77419e-11
-2.18701e-10
-1.49494e-09
-1.76331e-10
-3.85383e-10
-2.05894e-09
-2.56574e-10
-5.54089e-10
-2.45733e-09
-3.21901e-10
-7.05958e-10
-2.72587e-09
-3.79667e-10
-8.25876e-10
-2.87958e-09
-4.27336e-10
-9.05838e-10
-2.94173e-09
-4.64153e-10
-9.41213e-10
-2.9282e-09
-4.87578e-10
-9.34649e-10
-2.86514e-09
-4.96681e-10
-8.91089e-10
-2.76879e-09
-4.91516e-10
-8.1851e-10
-2.66162e-09
-4.74902e-10
-7.24597e-10
-2.5545e-09
-4.51644e-10
-6.21462e-10
-2.45595e-09
-4.24305e-10
-5.08635e-10
-2.37512e-09
-3.98907e-10
-3.89594e-10
-2.31584e-09
-3.81415e-10
-2.64972e-10
-2.28597e-09
-3.80651e-10
-1.33854e-10
-2.2932e-09
-3.97183e-10
6.64525e-12
-2.33155e-09
-4.26006e-10
1.51295e-10
-2.38267e-09
-4.54634e-10
2.86906e-10
-2.44643e-09
-4.78658e-10
4.03719e-10
-2.51974e-09
-4.94644e-10
4.91625e-10
-2.58846e-09
-4.9774e-10
5.40796e-10
-2.6365e-09
-4.84589e-10
5.45591e-10
-2.64507e-09
-4.55748e-10
5.04852e-10
-2.59467e-09
-4.1256e-10
4.23871e-10
-2.46586e-09
-3.5898e-10
3.12636e-10
-2.23986e-09
-2.97396e-10
1.87581e-10
-1.89685e-09
-2.31889e-10
6.91824e-11
-1.40098e-09
-1.55935e-10
-6.58318e-10
-6.37059e-11
-7.9668e-11
-5.30687e-10
-8.07601e-11
-2.27974e-10
-1.16501e-09
-1.81619e-10
-4.03632e-10
-1.61857e-09
-2.64714e-10
-5.85051e-10
-1.94334e-09
-3.3257e-10
-7.51909e-10
-2.16466e-09
-3.94351e-10
-8.88163e-10
-2.29493e-09
-4.48396e-10
-9.82944e-10
-2.35234e-09
-4.94614e-10
-1.0298e-09
-2.35082e-09
-5.30521e-10
-1.02888e-09
-2.31084e-09
-5.55219e-10
-9.83294e-10
-2.24643e-09
-5.67945e-10
-9.00208e-10
-2.17425e-09
-5.70457e-10
-7.89042e-10
-2.10109e-09
-5.64573e-10
-6.59885e-10
-2.03385e-09
-5.51252e-10
-5.16287e-10
-1.98026e-09
-5.38456e-10
-3.60566e-10
-1.94264e-09
-5.28918e-10
-1.99788e-10
-1.91838e-09
-5.28372e-10
-3.59894e-11
-1.91798e-09
-5.39024e-10
1.29367e-10
-1.94018e-09
-5.56723e-10
2.89349e-10
-1.9717e-09
-5.70954e-10
4.32539e-10
-2.01137e-09
-5.78251e-10
5.4802e-10
-2.05845e-09
-5.76774e-10
6.26384e-10
-2.10337e-09
-5.63449e-10
6.59416e-10
-2.13353e-09
-5.36005e-10
6.43535e-10
-2.13381e-09
-4.95382e-10
5.79987e-10
-2.08797e-09
-4.43157e-10
4.76597e-10
-1.97948e-09
-3.82988e-10
3.45332e-10
-1.79234e-09
-3.16259e-10
2.04591e-10
-1.51028e-09
-2.4583e-10
7.47645e-11
-1.10611e-09
-1.65049e-10
-5.14491e-10
-6.90625e-11
-7.90116e-11
-3.72167e-10
-7.95083e-11
-2.27292e-10
-8.38577e-10
-1.78154e-10
-4.05636e-10
-1.1806e-09
-2.59626e-10
-5.93759e-10
-1.42851e-09
-3.26715e-10
-7.70792e-10
-1.59817e-09
-3.89454e-10
-9.19646e-10
-1.69927e-09
-4.46805e-10
-1.02694e-09
-1.74547e-09
-4.99569e-10
-1.08438e-09
-1.74834e-09
-5.45039e-10
-1.08956e-09
-1.72343e-09
-5.82223e-10
-1.04404e-09
-1.68193e-09
-6.10027e-10
-9.53654e-10
-1.63516e-09
-6.29481e-10
-8.29775e-10
-1.58712e-09
-6.37848e-10
-6.80424e-10
-1.54512e-09
-6.3808e-10
-5.12091e-10
-1.51189e-09
-6.36703e-10
-3.29678e-10
-1.48946e-09
-6.35596e-10
-1.4226e-10
-1.47126e-09
-6.34534e-10
4.57538e-11
-1.46736e-09
-6.38635e-10
2.29009e-10
-1.47778e-09
-6.4566e-10
3.98573e-10
-1.49448e-09
-6.4678e-10
5.45203e-10
-1.51846e-09
-6.39541e-10
6.56372e-10
-1.54705e-09
-6.22563e-10
7.23621e-10
-1.57534e-09
-5.95281e-10
7.40805e-10
-1.59437e-09
-5.56345e-10
7.06399e-10
-1.59238e-09
-5.07023e-10
6.23916e-10
-1.55662e-09
-4.48861e-10
5.03369e-10
-1.47353e-09
-3.85411e-10
3.5893e-10
-1.33052e-09
-3.17377e-10
2.10046e-10
-1.11474e-09
-2.46661e-10
7.6543e-11
-8.07294e-10
-1.65312e-10
-3.67697e-10
-7.02513e-11
-7.27351e-11
-2.2647e-10
-7.29628e-11
-2.12075e-10
-5.35756e-10
-1.6348e-10
-3.84368e-10
-7.70626e-10
-2.37678e-10
-5.70814e-10
-9.4283e-10
-2.9923e-10
-7.50778e-10
-1.05964e-09
-3.58563e-10
-9.06375e-10
-1.12846e-09
-4.15217e-10
-1.02211e-09
-1.15933e-09
-4.70408e-10
-1.08783e-09
-1.16118e-09
-5.21441e-10
-1.09917e-09
-1.14495e-09
-5.67152e-10
-1.05624e-09
-1.1189e-09
-6.05956e-10
-9.64377e-10
-1.08986e-09
-6.37162e-10
-8.34125e-10
-1.0613e-09
-6.56067e-10
-6.73848e-10
-1.03737e-09
-6.68029e-10
-4.9152e-10
-1.01863e-09
-6.75589e-10
-2.94568e-10
-1.00586e-09
-6.80552e-10
-9.29738e-11
-9.93866e-10
-6.78988e-10
1.06739e-10
-9.89386e-10
-6.77683e-10
2.9712e-10
-9.92511e-10
-6.75647e-10
4.69112e-10