/*--------------------------------*- C++ -*----------------------------------*\
| =========                 |                                                 |
| \\      /  F ield         | OpenFOAM: The Open Source CFD Toolbox           |
|  \\    /   O peration     | Version:  v1906                                 |
|   \\  /    A nd           | Web:      www.OpenFOAM.com                      |
|    \\/     M anipulation  |                                                 |
\*---------------------------------------------------------------------------*/
FoamFile
{
    version     2.0;
    format      ascii;
    class       volVectorField;
    location    "12.6/oil";
    object      U;
}
// * * * * * * * * * * * * * * * * * * * * * * * * * * * * * * * * * * * * * //

dimensions      [0 1 -1 0 0 0 0];


internalField   nonuniform List<vector> 
27760
(
(-3.23478e-05 -3.30088e-05 -3.23479e-05)
(-6.39028e-05 -2.47791e-05 -2.3292e-05)
(-4.76059e-06 -6.44358e-06 -6.33235e-06)
(-7.86928e-06 -1.07431e-06 -1.09963e-06)
(-2.02754e-06 -3.69274e-07 -3.92337e-07)
(-1.25317e-06 -1.8279e-07 -1.98572e-07)
(-5.58303e-07 -7.36021e-08 -8.61474e-08)
(-2.61315e-07 -3.20608e-08 -4.37039e-08)
(-1.00976e-07 -1.21314e-08 -2.37535e-08)
(-1.99031e-08 -2.55503e-09 -1.44086e-08)
(1.88765e-08 2.50966e-09 -9.57863e-09)
(3.17688e-08 5.42523e-09 -6.83585e-09)
(2.80678e-08 7.20702e-09 -5.16586e-09)
(1.34277e-08 8.30821e-09 -4.13458e-09)
(-7.96804e-09 8.89774e-09 -3.57185e-09)
(-3.26553e-08 9.0854e-09 -3.38385e-09)
(-5.75869e-08 8.93225e-09 -3.51028e-09)
(-8.0139e-08 8.4892e-09 -3.89012e-09)
(-9.82056e-08 7.80973e-09 -4.44859e-09)
(-1.10306e-07 6.94937e-09 -5.1005e-09)
(-1.15617e-07 5.98569e-09 -5.7431e-09)
(-1.13977e-07 4.96602e-09 -6.28757e-09)
(-1.05858e-07 3.92785e-09 -6.65066e-09)
(-9.22554e-08 2.91097e-09 -6.72497e-09)
(-7.4596e-08 1.93692e-09 -6.43759e-09)
(-5.4707e-08 1.03034e-09 -5.74176e-09)
(-3.47667e-08 2.67202e-10 -4.61968e-09)
(-1.72365e-08 -1.80196e-10 -3.13501e-09)
(-4.60064e-09 -9.37943e-12 -1.61366e-09)
(4.53548e-10 7.52029e-10 -3.18257e-10)
(-2.34933e-05 -6.56315e-05 -2.34933e-05)
(-7.79922e-06 -8.37933e-06 -1.05246e-05)
(-1.0708e-05 -1.00994e-05 -3.67546e-06)
(-5.33178e-06 -2.72585e-06 -1.04247e-06)
(-2.64577e-06 -1.53886e-06 -5.07407e-07)
(-1.52141e-06 -7.16286e-07 -2.39426e-07)
(-7.75623e-07 -3.75713e-07 -1.11038e-07)
(-3.81562e-07 -2.06161e-07 -5.32217e-08)
(-1.51792e-07 -1.21184e-07 -2.41553e-08)
(-2.52757e-08 -7.53705e-08 -9.15798e-09)
(3.79679e-08 -4.90591e-08 -6.29679e-10)
(5.86546e-08 -3.28745e-08 4.61144e-09)
(4.98611e-08 -2.25115e-08 8.01461e-09)
(2.06794e-08 -1.59088e-08 1.01846e-08)
(-2.14841e-08 -1.21003e-08 1.13878e-08)
(-7.00814e-08 -1.05436e-08 1.17417e-08)
(-1.19233e-07 -1.08761e-08 1.13425e-08)
(-1.63796e-07 -1.27663e-08 1.0311e-08)
(-1.99617e-07 -1.58529e-08 8.8107e-09)
(-2.23734e-07 -1.97532e-08 7.02823e-09)
(-2.34526e-07 -2.40604e-08 5.153e-09)
(-2.3171e-07 -2.84065e-08 3.37657e-09)
(-2.16212e-07 -3.24507e-08 1.87054e-09)
(-1.90016e-07 -3.58579e-08 7.80395e-10)
(-1.55954e-07 -3.82764e-08 2.08654e-10)
(-1.17543e-07 -3.92477e-08 2.0208e-10)
(-7.87905e-08 -3.80558e-08 7.21569e-10)
(-4.39049e-08 -3.36011e-08 1.56319e-09)
(-1.69827e-08 -2.42674e-08 2.18898e-09)
(-1.46321e-09 -9.33147e-09 1.66531e-09)
(-6.51859e-06 -5.95711e-06 -6.51862e-06)
(-1.04255e-05 -1.10519e-05 -3.79183e-06)
(-5.79851e-06 -5.79776e-06 -1.68983e-06)
(-3.92472e-06 -2.90188e-06 -8.1112e-07)
(-2.25238e-06 -1.68977e-06 -3.93516e-07)
(-1.34278e-06 -9.52439e-07 -1.91139e-07)
(-7.28736e-07 -5.83997e-07 -8.99057e-08)
(-3.63971e-07 -3.80386e-07 -4.03415e-08)
(-1.38101e-07 -2.66439e-07 -1.39777e-08)
(-7.53028e-09 -1.99003e-07 6.74367e-10)
(5.85443e-08 -1.5704e-07 9.64619e-09)
(7.79332e-08 -1.29645e-07 1.55609e-08)
(6.31401e-08 -1.11326e-07 1.96136e-08)
(2.38705e-08 -9.92809e-08 2.22912e-08)
(-3.13087e-08 -9.20541e-08 2.37835e-08)
(-9.44292e-08 -8.87937e-08 2.41878e-08)
(-1.58121e-07 -8.88629e-08 2.36023e-08)
(-2.15846e-07 -9.16474e-08 2.21692e-08)
(-2.62294e-07 -9.6458e-08 2.00922e-08)
(-2.93693e-07 -1.02556e-07 1.76077e-08)
(-3.07987e-07 -1.09183e-07 1.49668e-08)
(-3.04843e-07 -1.15599e-07 1.24087e-08)
(-2.85484e-07 -1.2109e-07 1.01401e-08)
(-2.5247e-07 -1.24939e-07 8.32213e-09)
(-2.0939e-07 -1.26319e-07 7.05497e-09)
(-1.60592e-07 -1.24145e-07 6.36275e-09)
(-1.1088e-07 -1.1683e-07 6.16058e-09)
(-6.5041e-08 -1.02029e-07 6.15667e-09)
(-2.78462e-08 -7.61402e-08 5.71489e-09)
(-3.11164e-09 -3.43625e-08 3.3714e-09)
(-1.20077e-06 -8.45445e-06 -1.2008e-06)
(-2.95925e-06 -5.76317e-06 -1.11306e-06)
(-2.85308e-06 -4.21639e-06 -8.25688e-07)
(-2.27178e-06 -2.57287e-06 -4.58935e-07)
(-1.49205e-06 -1.66929e-06 -2.44555e-07)
(-9.50126e-07 -1.08708e-06 -1.25907e-07)
(-5.37643e-07 -7.55346e-07 -5.98612e-08)
(-2.60939e-07 -5.54777e-07 -2.40897e-08)
(-7.72053e-08 -4.32479e-07 -3.39459e-09)
(3.36327e-08 -3.5459e-07 9.22883e-09)
(8.88057e-08 -3.03021e-07 1.76466e-08)
(1.00027e-07 -2.67669e-07 2.36098e-08)
(7.70117e-08 -2.43136e-07 2.79038e-08)
(2.85204e-08 -2.26531e-07 3.0825e-08)
(-3.6854e-08 -2.16278e-07 3.24596e-08)
(-1.10598e-07 -2.11364e-07 3.28641e-08)
(-1.84584e-07 -2.10961e-07 3.21242e-08)
(-2.51469e-07 -2.14215e-07 3.03891e-08)
(-3.05243e-07 -2.20129e-07 2.78935e-08)
(-3.41657e-07 -2.27618e-07 2.49077e-08)
(-3.58416e-07 -2.35542e-07 2.17259e-08)
(-3.55215e-07 -2.42779e-07 1.86184e-08)
(-3.33509e-07 -2.48227e-07 1.58152e-08)
(-2.96233e-07 -2.50743e-07 1.34868e-08)
(-2.47421e-07 -2.48988e-07 1.17304e-08)
(-1.91846e-07 -2.41196e-07 1.05564e-08)
(-1.34685e-07 -2.2482e-07 9.85919e-09)
(-8.09634e-08 -1.96015e-07 9.29873e-09)
(-3.59914e-08 -1.48416e-07 8.17822e-09)
(-4.2922e-09 -7.03268e-08 4.62176e-09)
(-4.22723e-07 -2.42539e-06 -4.22763e-07)
(-1.60324e-06 -3.10605e-06 -5.33942e-07)
(-1.56496e-06 -2.73235e-06 -4.02407e-07)
(-1.33022e-06 -2.01174e-06 -2.46915e-07)
(-9.40903e-07 -1.50112e-06 -1.39768e-07)
(-6.15567e-07 -1.12364e-06 -7.37747e-08)
(-3.4292e-07 -8.77073e-07 -3.35058e-08)
(-1.42316e-07 -7.12295e-07 -9.50434e-09)
(-1.96978e-09 -6.02261e-07 5.79793e-09)
(8.4331e-08 -5.26617e-07 1.61653e-08)
(1.2435e-07 -4.73218e-07 2.37608e-08)
(1.24786e-07 -4.34711e-07 2.95573e-08)
(9.26375e-08 -4.0694e-07 3.39388e-08)
(3.54244e-08 -3.87574e-07 3.70018e-08)
(-3.86252e-08 -3.75273e-07 3.87177e-08)
(-1.20855e-07 -3.69061e-07 3.90937e-08)
(-2.02762e-07 -3.68045e-07 3.81974e-08)
(-2.76521e-07 -3.71231e-07 3.61788e-08)
(-3.35685e-07 -3.77385e-07 3.33055e-08)
(-3.75716e-07 -3.85137e-07 2.98777e-08)
(-3.94214e-07 -3.93019e-07 2.62315e-08)
(-3.90951e-07 -3.9958e-07 2.26674e-08)
(-3.67589e-07 -4.03358e-07 1.94369e-08)
(-3.27344e-07 -4.0282e-07 1.67188e-08)
(-2.74542e-07 -3.96139e-07 1.461e-08)
(-2.14202e-07 -3.80868e-07 1.31128e-08)
(-1.51703e-07 -3.53421e-07 1.21099e-08)
(-9.22345e-08 -3.0819e-07 1.12312e-08)
(-4.15941e-08 -2.35296e-07 9.73302e-09)
(-5.0456e-09 -1.14086e-07 5.44808e-09)
(-2.02994e-07 -1.58026e-06 -2.03039e-07)
(-7.005e-07 -2.05764e-06 -2.46366e-07)
(-7.79225e-07 -1.99038e-06 -1.9443e-07)
(-7.15984e-07 -1.67387e-06 -1.27789e-07)
(-5.32564e-07 -1.39527e-06 -7.47527e-08)
(-3.44384e-07 -1.16255e-06 -3.88206e-08)
(-1.68877e-07 -9.92057e-07 -1.46704e-08)
(-2.84216e-08 -8.674e-07 1.37992e-09)
(7.39874e-08 -7.77118e-07 1.28301e-08)
(1.36573e-07 -7.1064e-07 2.15098e-08)
(1.60971e-07 -6.6093e-07 2.84839e-08)
(1.50205e-07 -6.234e-07 3.41759e-08)
(1.09069e-07 -5.95356e-07 3.86577e-08)
(4.3922e-08 -5.75216e-07 4.18598e-08)
(-3.74729e-08 -5.62034e-07 4.3646e-08)
(-1.2651e-07 -5.54978e-07 4.39828e-08)
(-2.14543e-07 -5.53187e-07 4.29196e-08)
(-2.93465e-07 -5.55628e-07 4.0604e-08)
(-3.56557e-07 -5.60934e-07 3.73406e-08)
(-3.99118e-07 -5.67555e-07 3.34636e-08)
(-4.18732e-07 -5.7381e-07 2.93579e-08)
(-4.15281e-07 -5.77997e-07 2.53551e-08)
(-3.90633e-07 -5.78389e-07 2.17298e-08)
(-3.48242e-07 -5.73133e-07 1.8672e-08)
(-2.92637e-07 -5.59956e-07 1.62801e-08)
(-2.28999e-07 -5.3574e-07 1.45503e-08)
(-1.62833e-07 -4.95793e-07 1.33564e-08)
(-9.94596e-08 -4.32483e-07 1.23076e-08)
(-4.50581e-08 -3.31826e-07 1.06225e-08)
(-5.47379e-09 -1.62895e-07 5.94487e-09)
(-8.06522e-08 -8.9969e-07 -8.07002e-08)
(-3.24086e-07 -1.41443e-06 -1.09128e-07)
(-3.86228e-07 -1.53774e-06 -9.02236e-08)
(-3.66067e-07 -1.45597e-06 -6.17683e-08)
(-2.68479e-07 -1.3361e-06 -3.58454e-08)
(-1.51798e-07 -1.21221e-06 -1.64162e-08)
(-3.42721e-08 -1.10765e-06 -1.81213e-09)
(6.53826e-08 -1.02288e-06 9.19695e-09)
(1.39382e-07 -9.56071e-07 1.80852e-08)
(1.82621e-07 -9.03392e-07 2.56163e-08)
(1.93532e-07 -8.61755e-07 3.21873e-08)
(1.72914e-07 -8.28913e-07 3.78571e-08)
(1.24068e-07 -8.03494e-07 4.24637e-08)
(5.24781e-08 -7.84653e-07 4.58068e-08)
(-3.45164e-08 -7.71846e-07 4.76549e-08)
(-1.28447e-07 -7.64417e-07 4.7948e-08)
(-2.20706e-07 -7.61604e-07 4.672e-08)
(-3.03056e-07 -7.62442e-07 4.41065e-08)
(-3.68637e-07 -7.6556e-07 4.04521e-08)
(-4.12681e-07 -7.69371e-07 3.6127e-08)
(-4.32802e-07 -7.72112e-07 3.15667e-08)
(-4.29027e-07 -7.71982e-07 2.71367e-08)
(-4.03422e-07 -7.67111e-07 2.31403e-08)
(-3.59629e-07 -7.5542e-07 1.97753e-08)
(-3.02329e-07 -7.34252e-07 1.71429e-08)
(-2.36792e-07 -6.99832e-07 1.5233e-08)
(-1.68584e-07 -6.46295e-07 1.39123e-08)
(-1.03094e-07 -5.6381e-07 1.27771e-08)
(-4.672e-08 -4.33868e-07 1.10189e-08)
(-5.65298e-09 -2.14525e-07 6.18438e-09)
(-3.42957e-08 -6.42994e-07 -3.43456e-08)
(-1.41821e-07 -1.13013e-06 -4.81605e-08)
(-1.7468e-07 -1.32711e-06 -4.02798e-08)
(-1.60683e-07 -1.36195e-06 -2.73346e-08)
(-9.95897e-08 -1.33686e-06 -1.41568e-08)
(-2.04428e-08 -1.28631e-06 -3.12896e-09)
(6.26561e-08 -1.23259e-06 6.25295e-09)
(1.35323e-07 -1.18271e-06 1.43313e-08)
(1.88976e-07 -1.13948e-06 2.16664e-08)
(2.17489e-07 -1.10289e-06 2.8493e-08)
(2.1783e-07 -1.07232e-06 3.48369e-08)
(1.8958e-07 -1.04713e-06 4.05304e-08)
(1.35116e-07 -1.02688e-06 4.525e-08)
(5.92963e-08 -1.01126e-06 4.87087e-08)
(-3.09071e-08 -1.00001e-06 5.05957e-08)
(-1.2726e-07 -9.92623e-07 5.08451e-08)
(-2.21389e-07 -9.88455e-07 4.94781e-08)
(-3.05102e-07 -9.86712e-07 4.66063e-08)
(-3.7151e-07 -9.86145e-07 4.26137e-08)
(-4.15872e-07 -9.85298e-07 3.78942e-08)
(-4.35875e-07 -9.82502e-07 3.29334e-08)
(-4.31696e-07 -9.76005e-07 2.81317e-08)
(-4.05562e-07 -9.63938e-07 2.38199e-08)
(-3.61242e-07 -9.44095e-07 2.02014e-08)
(-3.03501e-07 -9.13531e-07 1.73787e-08)
(-2.37614e-07 -8.67826e-07 1.53349e-08)
(-1.6911e-07 -7.99902e-07 1.39333e-08)
(-1.03354e-07 -6.97628e-07 1.27643e-08)
(-4.67637e-08 -5.37774e-07 1.10117e-08)
(-5.62367e-09 -2.67078e-07 6.20549e-09)
(-1.32222e-08 -5.3011e-07 -1.32729e-08)
(-5.52871e-08 -1.00553e-06 -1.90051e-08)
(-6.34705e-08 -1.24195e-06 -1.54365e-08)
(-4.46193e-08 -1.34299e-06 -9.26245e-09)
(2.19284e-09 -1.37843e-06 -2.22341e-09)
(6.20757e-08 -1.37914e-06 4.47798e-09)
(1.24929e-07 -1.365e-06 1.09791e-08)
(1.80032e-07 -1.34524e-06 1.73299e-08)
(2.19547e-07 -1.3247e-06 2.36851e-08)
(2.37467e-07 -1.30529e-06 3.00226e-08)
(2.30314e-07 -1.2878e-06 3.61689e-08)
(1.97115e-07 -1.27249e-06 4.18267e-08)
(1.39737e-07 -1.25944e-06 4.6566e-08)
(6.25889e-08 -1.24862e-06 5.00528e-08)
(-2.77234e-08 -1.23992e-06 5.19185e-08)
(-1.23352e-07 -1.23289e-06 5.2126e-08)
(-2.16395e-07 -1.22703e-06 5.06872e-08)
(-2.98918e-07 -1.22177e-06 4.76606e-08)
(-3.64166e-07 -1.21613e-06 4.34597e-08)
(-4.07513e-07 -1.2089e-06 3.84871e-08)
(-4.26734e-07 -1.19865e-06 3.32709e-08)
(-4.22144e-07 -1.18389e-06 2.82333e-08)
(-3.96067e-07 -1.16286e-06 2.37226e-08)
(-3.52322e-07 -1.13335e-06 1.99505e-08)
(-2.95638e-07 -1.09221e-06 1.70175e-08)
(-2.31181e-07 -1.03441e-06 1.4904e-08)
(-1.64324e-07 -9.5169e-07 1.34696e-08)
(-1.00269e-07 -8.29565e-07 1.23113e-08)
(-4.5253e-08 -6.40081e-07 1.0633e-08)
(-5.40169e-09 -3.18777e-07 6.02381e-09)
(-4.0799e-09 -4.93169e-07 -4.13097e-09)
(-1.37318e-08 -9.70447e-07 -5.58827e-09)
(-6.01989e-09 -1.23135e-06 -3.58271e-09)
(1.79756e-08 -1.37185e-06 -2.89112e-10)
(5.84503e-08 -1.44677e-06 3.84029e-09)
(1.0727e-07 -1.48375e-06 8.31616e-09)
(1.57217e-07 -1.50039e-06 1.32012e-08)
(2.00282e-07 -1.50627e-06 1.84679e-08)
(2.29788e-07 -1.5068e-06 2.41126e-08)
(2.40328e-07 -1.50472e-06 2.99984e-08)
(2.28504e-07 -1.50133e-06 3.58529e-08)
(1.93188e-07 -1.49723e-06 4.13168e-08)
(1.35982e-07 -1.49269e-06 4.59001e-08)
(6.09127e-08 -1.48772e-06 4.92658e-08)
(-2.5845e-08 -1.48222e-06 5.10232e-08)
(-1.17021e-07 -1.47577e-06 5.11909e-08)
(-2.05497e-07 -1.46799e-06 4.9773e-08)
(-2.83844e-07 -1.45856e-06 4.67529e-08)
(-3.4561e-07 -1.44678e-06 4.25535e-08)
(-3.86402e-07 -1.43185e-06 3.75561e-08)
(-4.04126e-07 -1.41272e-06 3.23083e-08)
(-3.99191e-07 -1.38824e-06 2.72441e-08)
(-3.73923e-07 -1.35694e-06 2.27209e-08)
(-3.32067e-07 -1.31672e-06 1.895e-08)
(-2.78167e-07 -1.26425e-06 1.60268e-08)
(-2.17142e-07 -1.19401e-06 1.39296e-08)
(-1.54056e-07 -1.09655e-06 1.25247e-08)
(-9.3786e-08 -9.55157e-07 1.14288e-08)
(-4.21833e-08 -7.37324e-07 9.88984e-09)
(-4.9894e-09 -3.67878e-07 5.6423e-09)
(-1.3045e-10 -4.89795e-07 -1.82908e-10)
(5.08117e-09 -9.78608e-07 3.88589e-10)
(2.08085e-08 -1.25817e-06 1.76673e-09)
(4.68759e-08 -1.42469e-06 3.74899e-09)
(8.26935e-08 -1.52685e-06 6.4141e-09)
(1.23388e-07 -1.59038e-06 9.64252e-09)
(1.63696e-07 -1.63131e-06 1.34911e-08)
(1.97592e-07 -1.65887e-06 1.79282e-08)
(2.19603e-07 -1.67846e-06 2.28864e-08)
(2.25105e-07 -1.69289e-06 2.81901e-08)
(2.11065e-07 -1.70352e-06 3.35305e-08)
(1.76428e-07 -1.71091e-06 3.85348e-08)
(1.22642e-07 -1.71524e-06 4.27071e-08)
(5.33405e-08 -1.71646e-06 4.57464e-08)
(-2.58754e-08 -1.71437e-06 4.7277e-08)
(-1.08564e-07 -1.70861e-06 4.74059e-08)
(-1.88661e-07 -1.69893e-06 4.61321e-08)
(-2.59534e-07 -1.68515e-06 4.33366e-08)
(-3.15265e-07 -1.6669e-06 3.94169e-08)
(-3.51827e-07 -1.64376e-06 3.47044e-08)
(-3.67294e-07 -1.61514e-06 2.97431e-08)
(-3.62112e-07 -1.58031e-06 2.49469e-08)
(-3.38509e-07 -1.5382e-06 2.0665e-08)
(-2.99997e-07 -1.48692e-06 1.71014e-08)
(-2.50769e-07 -1.42305e-06 1.43487e-08)
(-1.95314e-07 -1.34063e-06 1.23853e-08)
(-1.38219e-07 -1.22917e-06 1.10865e-08)
(-8.38874e-08 -1.06986e-06 1.01108e-08)
(-3.75616e-08 -8.26007e-07 8.78315e-09)
(-4.38658e-09 -4.1263e-07 5.06159e-09)
(1.32212e-09 -5.00559e-07 1.26875e-09)
(1.18186e-08 -1.00504e-06 2.5837e-09)
(2.94199e-08 -1.29983e-06 3.62927e-09)
(5.38062e-08 -1.48459e-06 4.94294e-09)
(8.3975e-08 -1.60614e-06 6.78166e-09)
(1.1678e-07 -1.68941e-06 9.19664e-09)
(1.48382e-07 -1.74942e-06 1.22448e-08)
(1.74296e-07 -1.79497e-06 1.59035e-08)
(1.90197e-07 -1.8311e-06 2.00897e-08)
(1.92338e-07 -1.86038e-06 2.46284e-08)
(1.78194e-07 -1.88392e-06 2.92202e-08)
(1.46885e-07 -1.90205e-06 3.35158e-08)
(9.96954e-08 -1.91471e-06 3.70568e-08)
(3.97782e-08 -1.92172e-06 3.9604e-08)
(-2.80387e-08 -1.92283e-06 4.08276e-08)
(-9.83661e-08 -1.91783e-06 4.09164e-08)
(-1.66382e-07 -1.9065e-06 3.98648e-08)
(-2.26508e-07 -1.88873e-06 3.74634e-08)
(-2.73597e-07 -1.86439e-06 3.40658e-08)
(-3.04158e-07 -1.83336e-06 2.99303e-08)
(-3.16531e-07 -1.79555e-06 2.55571e-08)
(-3.11168e-07 -1.75073e-06 2.13201e-08)
(-2.9008e-07 -1.69823e-06 1.75404e-08)
(-2.56363e-07 -1.63639e-06 1.44017e-08)
(-2.13689e-07 -1.56185e-06 1.19864e-08)
(-1.6593e-07 -1.46825e-06 1.02779e-08)
(-1.17015e-07 -1.34423e-06 9.17035e-09)
(-7.07053e-08 -1.16915e-06 8.37768e-09)
(-3.145e-08 -9.0268e-07 7.3296e-09)
(-3.60068e-09 -4.51304e-07 4.2897e-09)
(1.5306e-09 -5.147e-07 1.47368e-09)
(1.17264e-08 -1.03433e-06 2.78284e-09)
(2.6641e-08 -1.34107e-06 3.5426e-09)
(4.5888e-08 -1.53869e-06 4.42663e-09)
(6.85101e-08 -1.67401e-06 5.69595e-09)
(9.24828e-08 -1.77173e-06 7.4489e-09)
(1.15139e-07 -1.84629e-06 9.73653e-09)
(1.33303e-07 -1.90605e-06 1.25408e-08)
(1.4378e-07 -1.95565e-06 1.57839e-08)
(1.43744e-07 -1.99726e-06 1.93132e-08)
(1.31252e-07 -2.03163e-06 2.28742e-08)
(1.05629e-07 -2.05873e-06 2.6181e-08)
(6.79358e-08 -2.07826e-06 2.88537e-08)
(2.06846e-08 -2.08997e-06 3.073e-08)
(-3.22954e-08 -2.09368e-06 3.15723e-08)
(-8.68547e-08 -2.08938e-06 3.16156e-08)
(-1.39468e-07 -2.07694e-06 3.08571e-08)
(-1.85818e-07 -2.0561e-06 2.90323e-08)
(-2.21806e-07 -2.02682e-06 2.6407e-08)
(-2.44676e-07 -1.98922e-06 2.31612e-08)
(-2.53132e-07 -1.94359e-06 1.97065e-08)
(-2.47615e-07 -1.89016e-06 1.63473e-08)
(-2.29801e-07 -1.82867e-06 1.33529e-08)
(-2.02219e-07 -1.75776e-06 1.08707e-08)
(-1.67827e-07 -1.6741e-06 8.97237e-09)
(-1.29705e-07 -1.5711e-06 7.64668e-09)
(-9.0961e-08 -1.4367e-06 6.8161e-09)
(-5.45657e-08 -1.24881e-06 6.2656e-09)
(-2.39997e-08 -9.6413e-07 5.5616e-09)
(-2.65099e-09 -4.82296e-07 3.34752e-09)
(1.07673e-09 -5.26195e-07 1.01709e-09)
(7.59441e-09 -1.05691e-06 1.87896e-09)
(1.65758e-08 -1.37165e-06 2.32912e-09)
(2.79086e-08 -1.57758e-06 2.86219e-09)
(4.10686e-08 -1.72202e-06 3.66136e-09)
(5.49799e-08 -1.82965e-06 4.80601e-09)
(6.80612e-08 -1.91455e-06 6.3272e-09)
(7.8348e-08 -1.98473e-06 8.21741e-09)
(8.37865e-08 -2.04442e-06 1.04244e-08)
(8.24931e-08 -2.09539e-06 1.28415e-08)
(7.3146e-08 -2.13802e-06 1.52892e-08)
(5.5237e-08 -2.17196e-06 1.75651e-08)
(2.94367e-08 -2.19667e-06 1.94004e-08)
(-2.57938e-09 -2.21189e-06 2.06818e-08)
(-3.82082e-08 -2.21753e-06 2.12403e-08)
(-7.46114e-08 -2.21385e-06 2.12348e-08)
(-1.09398e-07 -2.20073e-06 2.06671e-08)
(-1.396e-07 -2.17777e-06 1.93459e-08)
(-1.62429e-07 -2.14491e-06 1.74771e-08)
(-1.76091e-07 -2.10239e-06 1.51871e-08)
(-1.79805e-07 -2.05085e-06 1.27771e-08)
(-1.74023e-07 -1.99085e-06 1.04542e-08)
(-1.60015e-07 -1.92252e-06 8.40421e-09)
(-1.39609e-07 -1.84472e-06 6.72696e-09)
(-1.14877e-07 -1.75424e-06 5.46623e-09)
(-8.79625e-08 -1.6443e-06 4.61345e-09)
(-6.10021e-08 -1.50234e-06 4.12368e-09)
(-3.6047e-08 -1.30525e-06 3.86267e-09)
(-1.54744e-08 -1.00764e-06 3.54879e-09)
(-1.57059e-09 -5.04243e-07 2.26823e-09)
(2.62394e-10 -5.31472e-07 1.97667e-10)
(1.0594e-09 -1.06668e-06 3.48768e-10)
(1.92595e-09 -1.38471e-06 4.46899e-10)
(3.33949e-09 -1.59458e-06 6.44528e-10)
(5.51101e-09 -1.74389e-06 9.95987e-10)
(8.27549e-09 -1.85725e-06 1.52312e-09)
(1.11318e-08 -1.94845e-06 2.23661e-09)
(1.33e-08 -2.02518e-06 3.12844e-09)
(1.38676e-08 -2.09133e-06 4.17025e-09)
(1.19202e-08 -2.14841e-06 5.31393e-09)
(6.74799e-09 -2.19645e-06 6.4764e-09)
(-2.01917e-09 -2.2349e-06 7.56429e-09)
(-1.41947e-08 -2.26306e-06 8.45279e-09)
(-2.90819e-08 -2.28066e-06 9.07367e-09)
(-4.54801e-08 -2.28763e-06 9.33428e-09)
(-6.19205e-08 -2.28442e-06 9.27266e-09)
(-7.70687e-08 -2.27093e-06 8.90531e-09)
(-8.93915e-08 -2.24667e-06 8.15791e-09)
(-9.75899e-08 -2.21161e-06 7.17382e-09)
(-1.00979e-07 -2.16607e-06 6.02019e-09)
(-9.94079e-08 -2.1109e-06 4.85015e-09)
(-9.33342e-08 -2.04691e-06 3.76052e-09)
(-8.35488e-08 -1.97445e-06 2.83193e-09)
(-7.10778e-08 -1.89256e-06 2.10206e-09)
(-5.69995e-08 -1.79807e-06 1.5886e-09)
(-4.23966e-08 -1.68414e-06 1.28913e-09)
(-2.83443e-08 -1.53793e-06 1.19035e-09)
(-1.58943e-08 -1.33579e-06 1.25311e-09)
(-6.21373e-09 -1.03118e-06 1.36628e-09)
(-3.99928e-10 -5.1612e-07 1.09381e-09)
(-7.33702e-10 -5.28507e-07 -8.03804e-10)
(-6.78002e-09 -1.06001e-06 -1.50194e-09)
(-1.52916e-08 -1.37602e-06 -1.77983e-09)
(-2.4974e-08 -1.58546e-06 -1.90906e-09)
(-3.46911e-08 -1.7356e-06 -1.98129e-09)
(-4.36867e-08 -1.85074e-06 -2.0482e-09)
(-5.13762e-08 -1.94435e-06 -2.12705e-09)
(-5.7385e-08 -2.02385e-06 -2.22197e-09)
(-6.15077e-08 -2.09291e-06 -2.32099e-09)
(-6.36912e-08 -2.15285e-06 -2.40177e-09)
(-6.40461e-08 -2.20358e-06 -2.43697e-09)
(-6.28326e-08 -2.24441e-06 -2.41349e-09)
(-6.04445e-08 -2.27453e-06 -2.32325e-09)
(-5.72549e-08 -2.2936e-06 -2.21738e-09)
(-5.35245e-08 -2.30148e-06 -2.1551e-09)
(-4.91628e-08 -2.29858e-06 -2.26308e-09)
(-4.38538e-08 -2.28485e-06 -2.51084e-09)
(-3.75081e-08 -2.25988e-06 -2.8158e-09)
(-3.0386e-08 -2.22378e-06 -3.0522e-09)
(-2.29961e-08 -2.177e-06 -3.17494e-09)
(-1.58637e-08 -2.12051e-06 -3.16887e-09)
(-9.45841e-09 -2.05522e-06 -3.05481e-09)
(-4.08039e-09 -1.98154e-06 -2.86619e-09)
(1.16199e-10 -1.89859e-06 -2.63647e-09)
(3.09324e-09 -1.8032e-06 -2.38764e-09)
(4.87504e-09 -1.68852e-06 -2.12174e-09)
(5.50632e-09 -1.54167e-06 -1.81764e-09)
(4.97299e-09 -1.33893e-06 -1.42495e-09)
(3.36015e-09 -1.03358e-06 -8.78976e-10)
(8.04737e-10 -5.17356e-07 -1.189e-10)
(-1.79913e-09 -5.16327e-07 -1.87513e-09)
(-1.51221e-08 -1.0351e-06 -3.47576e-09)
(-3.34891e-08 -1.34351e-06 -4.14021e-09)
(-5.46702e-08 -1.54819e-06 -4.58846e-09)
(-7.65233e-08 -1.69531e-06 -5.07211e-09)
(-9.73759e-08 -1.80851e-06 -5.72552e-09)
(-1.15597e-07 -1.90083e-06 -6.59625e-09)
(-1.2971e-07 -1.97947e-06 -7.69284e-09)
(-1.38429e-07 -2.04795e-06 -8.97651e-09)
(-1.40774e-07 -2.10755e-06 -1.03705e-08)
(-1.36262e-07 -2.15822e-06 -1.1742e-08)
(-1.25015e-07 -2.19927e-06 -1.29608e-08)
(-1.0792e-07 -2.22987e-06 -1.38687e-08)
(-8.63632e-08 -2.2495e-06 -1.44641e-08)
(-6.20616e-08 -2.25785e-06 -1.47138e-08)
(-3.64123e-08 -2.25513e-06 -1.4862e-08)
(-1.02884e-08 -2.24133e-06 -1.48645e-08)
(1.48567e-08 -2.21628e-06 -1.45185e-08)
(3.72204e-08 -2.18037e-06 -1.3787e-08)
(5.51821e-08 -2.13421e-06 -1.26866e-08)
(6.76268e-08 -2.0788e-06 -1.13549e-08)
(7.41485e-08 -2.01502e-06 -9.93691e-09)
(7.49749e-08 -1.94319e-06 -8.57157e-09)
(7.08239e-08 -1.86232e-06 -7.35214e-09)
(6.26975e-08 -1.76923e-06 -6.32699e-09)
(5.17166e-08 -1.6571e-06 -5.48896e-09)
(3.90196e-08 -1.51326e-06 -4.78249e-09)
(2.5615e-08 -1.3144e-06 -4.06368e-09)
(1.28205e-08 -1.01467e-06 -3.09321e-09)
(1.99279e-09 -5.07856e-07 -1.31868e-09)
(-2.84478e-09 -4.94764e-07 -2.92499e-09)
(-2.33157e-08 -9.91683e-07 -5.40875e-09)
(-5.13151e-08 -1.28694e-06 -6.44127e-09)
(-8.36475e-08 -1.48273e-06 -7.17982e-09)
(-1.17173e-07 -1.62322e-06 -8.03047e-09)
(-1.49341e-07 -1.73105e-06 -9.20774e-09)
(-1.7755e-07 -1.81866e-06 -1.07949e-08)
(-1.99319e-07 -1.89295e-06 -1.28027e-08)
(-2.12377e-07 -1.9574e-06 -1.51712e-08)
(-2.14896e-07 -2.01336e-06 -1.77749e-08)
(-2.05814e-07 -2.06095e-06 -2.03957e-08)
(-1.85075e-07 -2.09963e-06 -2.28077e-08)
(-1.53962e-07 -2.12869e-06 -2.47173e-08)
(-1.14724e-07 -2.1475e-06 -2.60455e-08)
(-7.04416e-08 -2.15562e-06 -2.6649e-08)
(-2.40485e-08 -2.153e-06 -2.681e-08)
(2.22035e-08 -2.13965e-06 -2.6489e-08)
(6.52834e-08 -2.11573e-06 -2.54301e-08)
(1.01965e-07 -2.08183e-06 -2.37154e-08)
(1.29694e-07 -2.03867e-06 -2.14333e-08)
(1.46907e-07 -1.98712e-06 -1.88589e-08)
(1.53324e-07 -1.92787e-06 -1.624e-08)
(1.49704e-07 -1.86099e-06 -1.38e-08)
(1.37584e-07 -1.78534e-06 -1.16821e-08)
(1.18936e-07 -1.69765e-06 -9.95457e-09)
(9.5894e-08 -1.59126e-06 -8.60402e-09)
(7.06103e-08 -1.45395e-06 -7.53805e-09)
(4.50635e-08 -1.26327e-06 -6.52439e-09)
(2.17236e-08 -9.75251e-07 -5.16676e-09)
(3.106e-09 -4.88014e-07 -2.44706e-09)
(-3.80402e-09 -4.64315e-07 -3.88974e-09)
(-3.08427e-08 -9.30754e-07 -7.18434e-09)
(-6.76682e-08 -1.20768e-06 -8.54891e-09)
(-1.10171e-07 -1.39083e-06 -9.5394e-09)
(-1.54275e-07 -1.52154e-06 -1.07011e-08)
(-1.96646e-07 -1.62102e-06 -1.23261e-08)
(-2.33824e-07 -1.70098e-06 -1.45241e-08)
(-2.62453e-07 -1.76795e-06 -1.73204e-08)
(-2.79417e-07 -1.82534e-06 -2.06467e-08)
(-2.82142e-07 -1.87466e-06 -2.43428e-08)
(-2.69053e-07 -1.91629e-06 -2.81374e-08)
(-2.39896e-07 -1.94999e-06 -3.17165e-08)
(-1.96182e-07 -1.97531e-06 -3.4671e-08)
(-1.40852e-07 -1.9917e-06 -3.6809e-08)
(-7.81319e-08 -1.99875e-06 -3.7854e-08)
(-1.24666e-08 -1.99618e-06 -3.8014e-08)
(5.22844e-08 -1.98408e-06 -3.72579e-08)
(1.11552e-07 -1.96283e-06 -3.53871e-08)
(1.60929e-07 -1.93304e-06 -3.26284e-08)
(1.97147e-07 -1.89533e-06 -2.91793e-08)
(2.18363e-07 -1.85035e-06 -2.54391e-08)
(2.24475e-07 -1.7984e-06 -2.17347e-08)
(2.16734e-07 -1.73926e-06 -1.83506e-08)
(1.97407e-07 -1.67154e-06 -1.54562e-08)
(1.69306e-07 -1.59196e-06 -1.31303e-08)
(1.35451e-07 -1.49413e-06 -1.13458e-08)
(9.88962e-08 -1.36644e-06 -9.97679e-09)
(6.24709e-08 -1.18783e-06 -8.71492e-09)
(2.96861e-08 -9.17069e-07 -7.0182e-09)
(4.09858e-09 -4.58706e-07 -3.4584e-09)
(-4.62959e-09 -4.25974e-07 -4.718e-09)
(-3.73043e-08 -8.54295e-07 -8.70558e-09)
(-8.16724e-08 -1.10838e-06 -1.03453e-08)
(-1.32827e-07 -1.27573e-06 -1.1533e-08)
(-1.85881e-07 -1.39412e-06 -1.29259e-08)
(-2.36828e-07 -1.48294e-06 -1.48764e-08)
(-2.81486e-07 -1.55298e-06 -1.75191e-08)
(-3.1578e-07 -1.61034e-06 -2.08897e-08)
(-3.35912e-07 -1.65835e-06 -2.49129e-08)
(-3.38732e-07 -1.69868e-06 -2.94093e-08)
(-3.22241e-07 -1.73202e-06 -3.40666e-08)
(-2.86012e-07 -1.75854e-06 -3.85127e-08)
(-2.31697e-07 -1.77814e-06 -4.22639e-08)
(-1.62776e-07 -1.79062e-06 -4.50268e-08)
(-8.43852e-08 -1.79574e-06 -4.64322e-08)
(-2.29676e-09 -1.79326e-06 -4.65789e-08)
(7.81061e-08 -1.78329e-06 -4.54431e-08)
(1.50933e-07 -1.76621e-06 -4.29256e-08)
(2.10837e-07 -1.74244e-06 -3.93602e-08)
(2.54012e-07 -1.71234e-06 -3.50386e-08)
(2.78463e-07 -1.67611e-06 -3.04406e-08)
(2.84256e-07 -1.63366e-06 -2.59461e-08)
(2.73055e-07 -1.58439e-06 -2.18793e-08)
(2.47697e-07 -1.52669e-06 -1.84276e-08)
(2.11677e-07 -1.45732e-06 -1.56726e-08)
(1.6875e-07 -1.37022e-06 -1.3576e-08)
(1.22721e-07 -1.2547e-06 -1.19886e-08)
(7.71356e-08 -1.0914e-06 -1.05394e-08)
(3.63916e-08 -8.42632e-07 -8.57212e-09)
(4.93167e-09 -4.21187e-07 -4.31428e-09)
(-5.28469e-09 -3.81122e-07 -5.37569e-09)
(-4.24209e-08 -7.65055e-07 -9.91433e-09)
(-9.27308e-08 -9.92681e-07 -1.17648e-08)
(-1.50666e-07 -1.1418e-06 -1.30863e-08)
(-2.10683e-07 -1.24604e-06 -1.46231e-08)
(-2.68238e-07 -1.32269e-06 -1.67734e-08)
(-3.18589e-07 -1.38146e-06 -1.969e-08)
(-3.57116e-07 -1.42794e-06 -2.34108e-08)
(-3.79526e-07 -1.46535e-06 -2.78547e-08)
(-3.82248e-07 -1.49548e-06 -3.28333e-08)
(-3.62998e-07 -1.51935e-06 -3.80158e-08)
(-3.2124e-07 -1.53755e-06 -4.29997e-08)
(-2.58714e-07 -1.55045e-06 -4.72605e-08)
(-1.79288e-07 -1.55823e-06 -5.04283e-08)
(-8.87632e-08 -1.561e-06 -5.20798e-08)
(6.06667e-09 -1.55867e-06 -5.22068e-08)
(9.85352e-08 -1.55134e-06 -5.07938e-08)
(1.81734e-07 -1.53928e-06 -4.78423e-08)
(2.49651e-07 -1.52256e-06 -4.37479e-08)
(2.98114e-07 -1.50115e-06 -3.88795e-08)
(3.2504e-07 -1.47478e-06 -3.37589e-08)
(3.3061e-07 -1.44291e-06 -2.87916e-08)
(3.1678e-07 -1.40459e-06 -2.4317e-08)
(2.86808e-07 -1.35805e-06 -2.05336e-08)
(2.44688e-07 -1.30009e-06 -1.75216e-08)
(1.94731e-07 -1.22516e-06 -1.52397e-08)
(1.41324e-07 -1.12357e-06 -1.35232e-08)
(8.85876e-08 -9.78059e-07 -1.19536e-08)
(4.16256e-08 -7.55049e-07 -9.78776e-09)
(5.57827e-09 -3.77007e-07 -4.98837e-09)
(-5.75122e-09 -3.31382e-07 -5.84202e-09)
(-4.6028e-08 -6.66261e-07 -1.0772e-08)
(-1.00484e-07 -8.64814e-07 -1.27622e-08)
(-1.63119e-07 -9.9407e-07 -1.41555e-08)
(-2.27929e-07 -1.08308e-06 -1.57528e-08)
(-2.89983e-07 -1.14687e-06 -1.79788e-08)
(-3.44128e-07 -1.19393e-06 -2.09925e-08)
(-3.85373e-07 -1.22931e-06 -2.48326e-08)
(-4.09105e-07 -1.25601e-06 -2.9413e-08)
(-4.11504e-07 -1.27593e-06 -3.45407e-08)
(-3.90152e-07 -1.29035e-06 -3.98848e-08)
(-3.44478e-07 -1.30024e-06 -4.50325e-08)
(-2.76296e-07 -1.30642e-06 -4.94617e-08)
(-1.89734e-07 -1.30949e-06 -5.27652e-08)
(-9.10111e-08 -1.3099e-06 -5.45124e-08)
(1.24073e-08 -1.30776e-06 -5.46182e-08)
(1.12972e-07 -1.3032e-06 -5.30719e-08)
(2.03116e-07 -1.29625e-06 -4.99512e-08)
(2.76413e-07 -1.28665e-06 -4.56679e-08)
(3.2846e-07 -1.27392e-06 -4.06249e-08)
(3.57117e-07 -1.25734e-06 -3.53412e-08)
(3.62622e-07 -1.236e-06 -3.02338e-08)
(3.47076e-07 -1.20863e-06 -2.56361e-08)
(3.13987e-07 -1.17336e-06 -2.17491e-08)
(2.67679e-07 -1.12717e-06 -1.86571e-08)
(2.12843e-07 -1.06503e-06 -1.63167e-08)
(1.54294e-07 -9.78423e-07 -1.45547e-08)
(9.65684e-08 -8.52342e-07 -1.2929e-08)
(4.52687e-08 -6.57769e-07 -1.0641e-08)
(6.0244e-09 -3.27896e-07 -5.46794e-09)
(-6.01826e-09 -2.78498e-07 -6.10698e-09)
(-4.80326e-08 -5.61387e-07 -1.12597e-08)
(-1.04757e-07 -7.29302e-07 -1.33209e-08)
(-1.69969e-07 -8.37859e-07 -1.47297e-08)
(-2.37399e-07 -9.11305e-07 -1.63151e-08)
(-3.01873e-07 -9.62259e-07 -1.85144e-08)
(-3.57988e-07 -9.97989e-07 -2.14838e-08)
(-4.00528e-07 -1.02291e-06 -2.52572e-08)
(-4.24713e-07 -1.0398e-06 -2.97492e-08)
(-4.26652e-07 -1.05056e-06 -3.47646e-08)
(-4.03895e-07 -1.05665e-06 -3.99823e-08)
(-3.55914e-07 -1.05932e-06 -4.50032e-08)
(-2.84595e-07 -1.05971e-06 -4.9335e-08)
(-1.942e-07 -1.05875e-06 -5.25642e-08)
(-9.11409e-08 -1.05718e-06 -5.42846e-08)
(1.6799e-08 -1.0553e-06 -5.43716e-08)
(1.21579e-07 -1.05322e-06 -5.28184e-08)
(2.15322e-07 -1.05078e-06 -4.97407e-08)
(2.91436e-07 -1.04741e-06 -4.55334e-08)
(3.45405e-07 -1.04231e-06 -4.06061e-08)
(3.75046e-07 -1.03439e-06 -3.54464e-08)
(3.80578e-07 -1.02246e-06 -3.0456e-08)
(3.64142e-07 -1.00509e-06 -2.59588e-08)
(3.29336e-07 -9.80355e-07 -2.21512e-08)
(2.80659e-07 -9.4548e-07 -1.91182e-08)
(2.23031e-07 -8.96033e-07 -1.68196e-08)
(1.61539e-07 -8.24728e-07 -1.50838e-08)
(1.00989e-07 -7.18922e-07 -1.34609e-08)
(4.72688e-08 -5.54381e-07 -1.11232e-08)
(6.26459e-09 -2.75651e-07 -5.74819e-09)
(-6.07574e-09 -2.24286e-07 -6.15993e-09)
(-4.83764e-08 -4.54028e-07 -1.13573e-08)
(-1.05472e-07 -5.90787e-07 -1.34147e-08)
(-1.7117e-07 -6.78522e-07 -1.4785e-08)
(-2.39149e-07 -7.36625e-07 -1.62991e-08)
(-3.04127e-07 -7.75341e-07 -1.83904e-08)
(-3.60577e-07 -8.00699e-07 -2.12111e-08)
(-4.0319e-07 -8.16458e-07 -2.47889e-08)
(-4.27157e-07 -8.2511e-07 -2.90346e-08)
(-4.28618e-07 -8.28468e-07 -3.37561e-08)
(-4.05199e-07 -8.28043e-07 -3.86529e-08)
(-3.56466e-07 -8.25214e-07 -4.33506e-08)
(-2.84357e-07 -8.21301e-07 -4.74006e-08)
(-1.93161e-07 -8.17429e-07 -5.04127e-08)
(-8.92842e-08 -8.14488e-07 -5.20251e-08)
(1.94643e-08 -8.1291e-07 -5.20962e-08)
(1.24932e-07 -8.12775e-07 -5.06218e-08)
(2.1923e-07 -8.13798e-07 -4.77358e-08)
(2.95789e-07 -8.15218e-07 -4.37922e-08)
(3.50092e-07 -8.16019e-07 -3.91769e-08)
(3.79939e-07 -8.14946e-07 -3.43355e-08)
(3.85475e-07 -8.10657e-07 -2.96428e-08)
(3.68787e-07 -8.01652e-07 -2.53995e-08)
(3.33456e-07 -7.86118e-07 -2.17982e-08)
(2.84018e-07 -7.61545e-07 -1.8926e-08)
(2.25499e-07 -7.24156e-07 -1.67496e-08)
(1.63123e-07 -6.67896e-07 -1.51008e-08)
(1.01832e-07 -5.82487e-07 -1.35342e-08)
(4.75946e-08 -4.48516e-07 -1.12223e-08)
(6.29123e-09 -2.22101e-07 -5.82323e-09)
(-5.90195e-09 -1.70655e-07 -5.97883e-09)
(-4.69486e-08 -3.47895e-07 -1.10198e-08)
(-1.02501e-07 -4.53963e-07 -1.29853e-08)
(-1.66665e-07 -5.21372e-07 -1.42548e-08)
(-2.33275e-07 -5.64827e-07 -1.56393e-08)
(-2.97044e-07 -5.92295e-07 -1.75585e-08)
(-3.52428e-07 -6.08605e-07 -2.01587e-08)
(-3.94125e-07 -6.16849e-07 -2.34586e-08)
(-4.17402e-07 -6.1917e-07 -2.73674e-08)
(-4.18518e-07 -6.17198e-07 -3.16996e-08)
(-3.95237e-07 -6.12365e-07 -3.61767e-08)
(-3.4724e-07 -6.0603e-07 -4.04556e-08)