/*--------------------------------*- C++ -*----------------------------------*\
| =========                 |                                                 |
| \\      /  F ield         | OpenFOAM: The Open Source CFD Toolbox           |
|  \\    /   O peration     | Version:  v1906                                 |
|   \\  /    A nd           | Web:      www.OpenFOAM.com                      |
|    \\/     M anipulation  |                                                 |
\*---------------------------------------------------------------------------*/
FoamFile
{
    version     2.0;
    format      ascii;
    class       volScalarField;
    location    "66";
    object      k;
}
// * * * * * * * * * * * * * * * * * * * * * * * * * * * * * * * * * * * * * //

dimensions      [0 2 -2 0 0 0 0];


internalField   nonuniform List<scalar> 
78750
(
2.06316
0.677339
0.322556
0.106031
0.0224719
0.0028093
0.000845119
0.00111332
0.00120247
0.000949846
0.00120251
0.00102804
0.00108595
0.00106882
0.00107289
0.0010607
0.00106624
0.00106127
0.00106231
0.00106176
0.00106176
0.00106156
0.00106093
0.0010596
0.00105734
0.0010539
0.00104896
0.00104199
0.00103207
0.00101762
0.000996092
0.000963506
0.000909221
0.000773109
0.000240043
0.0636548
0.0212785
0.00191984
0.00279565
0.000678455
0.00213016
0.00113132
0.0016301
0.00131194
0.0014285
0.00134774
0.00135835
0.00134472
0.00134359
0.00134302
0.00134814
0.00135534
0.00136652
0.00138071
0.00139813
0.00141841
0.00144078
0.00146412
0.00148701
0.00150802
0.00152625
0.00154172
0.0015551
0.00156708
0.00157745
0.00158427
0.00158139
0.00154073
0.00132933
0.00131791
0.00220098
0.000251066
0.00138085
0.00140941
0.00134637
0.00121075
0.00138705
0.00131396
0.00133998
0.00130622
0.00129031
0.00126503
0.00124238
0.00122
0.0011998
0.00118117
0.00116453
0.00114987
0.00113741
0.00112737
0.00112014
0.00111627
0.00111646
0.00112154
0.00113231
0.00114946
0.00117335
0.00120387
0.00124028
0.0012811
0.00132459
0.00136851
0.00139508
0.00138859
0.00226861
0.00068747
0.000878589
0.000658466
0.000718865
0.0010086
0.00124
0.00130189
0.00136699
0.00140582
0.00143419
0.00144684
0.00144954
0.00144495
0.00143584
0.00142424
0.00141148
0.00139776
0.00138355
0.00136926
0.00135527
0.00134194
0.00132964
0.00131879
0.0013099
0.00130354
0.00130034
0.00130094
0.00130587
0.00131544
0.00132943
0.00134702
0.00136551
0.00137115
0.00145914
0.00309231
0.000210557
0.000729567
0.000921848
0.000954823
0.000953027
0.00101843
0.00108486
0.00113923
0.00118821
0.00122873
0.00126205
0.00128992
0.00131406
0.00133563
0.00135508
0.00137198
0.00138618
0.00139736
0.00140531
0.00141021
0.00141252
0.00141285
0.00141195
0.00141065
0.00140986
0.00141064
0.00141407
0.00142127
0.00143309
0.00144979
0.00147096
0.00149325
0.00152306
0.00183503
0.00406616
0.000499989
0.000421603
0.000547867
0.000768033
0.000983388
0.001143
0.00124801
0.00131205
0.00134364
0.00134984
0.00133827
0.00131726
0.00129504
0.00127889
0.00127403
0.00128264
0.00130373
0.00133387
0.00136839
0.00140281
0.00143354
0.00145818
0.00147637
0.00148896
0.00149781
0.00150437
0.00150966
0.00151498
0.00152185
0.00153163
0.00154393
0.00155049
0.00154587
0.00195062
0.00472775
0.000148869
0.000681577
0.00111533
0.00149081
0.00173719
0.00187128
0.00194864
0.0019943
0.00200806
0.00198381
0.00192221
0.0018282
0.00170898
0.0015749
0.00143989
0.00132043
0.00123248
0.00118835
0.00119005
0.00122773
0.00128786
0.00135912
0.00143033
0.0014923
0.00154115
0.00157753
0.00160434
0.00162486
0.00164234
0.00166027
0.00168247
0.00171118
0.0017555
0.00230085
0.00551982
0.000403477
0.0010113
0.00151045
0.00186071
0.0021126
0.00230271
0.00244978
0.00256188
0.00264375
0.00269802
0.00272261
0.00271033
0.00265227
0.002542
0.00237814
0.00216486
0.0019107
0.00163031
0.00134827
0.00111176
0.000986159
0.000993634
0.00108735
0.00122188
0.00137084
0.0015022
0.00160085
0.0016699
0.00171648
0.00174632
0.00176317
0.00177344
0.00185608
0.00255271
0.0062195
0.000768451
0.00196286
0.0025156
0.00273734
0.00281343
0.00282072
0.00279514
0.00275914
0.00272904
0.00271469
0.00271919
0.00273842
0.00275979
0.00276443
0.00273241
0.00265046
0.00251795
0.00233936
0.00210841
0.00180491
0.00143136
0.00106109
0.000864897
0.000912509
0.00107742
0.00130068
0.00152227
0.00169221
0.00181852
0.00191478
0.00198387
0.00202649
0.00220406
0.00315
0.00694546
0.00165961
0.00245894
0.00269489
0.00276116
0.00277445
0.00275037
0.0026867
0.00259873
0.00252149
0.00247963
0.00247286
0.00248919
0.00251654
0.0025445
0.00256261
0.00256012
0.0025283
0.00246424
0.00237198
0.0022521
0.0020905
0.00185329
0.00150236
0.00107749
0.00082615
0.000907825
0.00113641
0.00138988
0.00159066
0.00175438
0.00190041
0.00201883
0.00222926
0.00331613
0.00737418
0.00209403
0.00264788
0.00279238
0.00285715
0.00288865
0.00288281
0.00283427
0.00275815
0.00268858
0.00264634
0.00262533
0.00261153
0.00259507
0.00256962
0.00253105
0.00247746
0.00240967
0.00233054
0.00224476
0.00215441
0.00205373
0.00192519
0.00173012
0.00140803
0.000959769
0.000634416
0.000796727
0.00123539
0.00164823
0.00191518
0.0020971
0.00224138
0.00250001
0.00376782
0.00805017
0.00192628
0.00261982
0.0028521
0.0029492
0.00299261
0.00299302
0.00295385
0.00288656
0.00281205
0.00275414
0.0027238
0.00271448
0.0027133
0.0027094
0.00269438
0.00266053
0.00259986
0.00250645
0.0023837
0.00224803
0.00211856
0.00200159
0.00188685
0.00175024
0.0015482
0.0012346
0.00088279
0.000824129
0.00119124
0.00164026
0.00202188
0.00236676
0.00287116
0.0042839
0.00835618
0.00194148
0.00270595
0.00293962
0.00302931
0.00306055
0.00304299
0.00298562
0.00290691
0.00282737
0.00276385
0.00272601
0.00271302
0.00271619
0.00272553
0.00273307
0.00273236
0.00271717
0.00267995
0.00261078
0.00250098
0.0023529
0.00218482
0.00201794
0.00185878
0.00169429
0.00148974
0.00119727
0.000866886
0.000887386
0.0013693
0.00195495
0.00260139
0.0035976
0.00508433
0.0085341
0.00230976
0.00299809
0.00315374
0.00318632
0.0031611
0.00309107
0.00299681
0.00290052
0.00282431
0.00277978
0.00276195
0.0027596
0.0027646
0.00277185
0.00277796
0.00278014
0.00277534
0.0027597
0.00272806
0.00267402
0.00259073
0.00247469
0.00232895
0.00216238
0.0019827
0.00178686
0.00155161
0.00124562
0.000950524
0.00107358
0.00155492
0.00219439
0.00335862
0.00503789
0.00857696
0.00268048
0.00330337
0.00339697
0.00336942
0.00327647
0.00317533
0.003086
0.00299621
0.00291417
0.00286162
0.0028446
0.00284918
0.00286096
0.00287183
0.00287814
0.00287779
0.00286911
0.00285025
0.00281871
0.00277132
0.00270444
0.0026148
0.00250183
0.00236692
0.0022114
0.00203338
0.0018226
0.0015547
0.00119948
0.000983776
0.0013766
0.00202603
0.00313285
0.00491745
0.00912489
0.00314089
0.00352226
0.00348779
0.00333547
0.00311603
0.00299678
0.00297412
0.00297075
0.00295689
0.002938
0.00292938
0.00293528
0.00294946
0.00296489
0.00297734
0.00298388
0.00298188
0.0029688
0.00294208
0.00289929
0.00283788
0.00275557
0.00265104
0.00252596
0.00238229
0.0022193
0.00203066
0.00179765
0.00147836
0.00113646
0.00129855
0.00189751
0.00370613
0.00588383
0.0104944
0.00355523
0.00377139
0.00364641
0.00339373
0.00308499
0.0029301
0.00290705
0.00293178
0.00296501
0.00299295
0.00301314
0.00302966
0.00304571
0.00306067
0.00307292
0.00308063
0.00308173
0.00307356
0.00305268
0.00301532
0.0029574
0.00287479
0.00276409
0.00262533
0.00246256
0.00226867
0.00202026
0.00169805
0.00134468
0.00135728
0.00213548
0.00277056
0.00403814
0.00636676
0.0110588
0.00339924
0.00371637
0.00366034
0.00349814
0.0032844
0.00310041
0.00297115
0.00290304
0.00289204
0.00292204
0.00297115
0.00302176
0.00306578
0.00310098
0.00312788
0.00314752
0.00316015
0.00316496
0.00315996
0.00314202
0.00310654
0.00304701
0.00295449
0.00281789
0.00262547
0.00236184
0.00201507
0.00163906
0.00154419
0.0023621
0.00435806
0.00621485
0.00693805
0.00795366
0.0100288
0.00267239
0.0037267
0.00401409
0.00409152
0.00404984
0.00387822
0.00360533
0.00329472
0.00301795
0.00283621
0.00277718
0.00281832
0.002905
0.00299242
0.00306247
0.00311303
0.00314753
0.00316992
0.00318238
0.0031859
0.00317977
0.00316132
0.00312539
0.00306305
0.00296265
0.00280482
0.0025732
0.00230909
0.00216972
0.00244197
0.00346863
0.00524558
0.00725008
0.00819753
0.00779381
0.0023695
0.00395503
0.00454709
0.00478674
0.00488589
0.00488588
0.00475847
0.00446386
0.00401243
0.00347643
0.00298058
0.00266776
0.00259965
0.00269686
0.00283826
0.00296322
0.00306047
0.00313275
0.00318505
0.00322019
0.0032404
0.00324823
0.0032468
0.00323688
0.00321729
0.00318876
0.00317854
0.00317894
0.00309344
0.00287057
0.00271616
0.0028743
0.00277596
0.00391857
0.00505212
0.00259831
0.00385789
0.00441203
0.00465914
0.00479464
0.00488539
0.00494549
0.00494775
0.00480884
0.0044384
0.00382834
0.00312339
0.00260532
0.00244482
0.00252609
0.00267028
0.00280268
0.0029136
0.00300569
0.00307924
0.00313321
0.00316736
0.00318344
0.00318468
0.00318582
0.00321214
0.00318966
0.00295398
0.00260582
0.00246347
0.00261326
0.00245329
0.000306883
0.00222232
0.00939049
0.00322738
0.00438783
0.00477445
0.00486998
0.0048589
0.00479437
0.00470783
0.00466382
0.00466862
0.00460284
0.00432432
0.00372779
0.00297899
0.00251722
0.00245899
0.00255652
0.00267155
0.00278126
0.00287867
0.00295222
0.00299366
0.00300005
0.00297713
0.00293512
0.00282359
0.00256363
0.00263828
0.00319175
0.00351629
0.0034178
0.00312299
0.00275371
0.00313446
0.0061472
0.016739
0.00414757
0.00520242
0.00534997
0.00528314
0.00515272
0.00501734
0.00484234
0.00464856
0.00453731
0.00446716
0.00432002
0.00397061
0.00330401
0.00262716
0.00238431
0.00244263
0.00255125
0.00266465
0.00276672
0.00283399
0.00285273
0.00282574
0.0027604
0.00276054
0.00323893
0.00442976
0.00574585
0.00633593
0.00625165
0.0058518
0.00539686
0.00539225
0.00651144
0.00908118
0.0145575
0.00548269
0.00554766
0.00524642
0.00493541
0.00466871
0.00468452
0.00475132
0.0047126
0.00462141
0.00452514
0.00439728
0.00417653
0.00375175
0.00308347
0.00255673
0.00240427
0.0024519
0.00255162
0.00266154
0.0027646
0.00284158
0.00288278
0.00291549
0.00305256
0.00351583
0.00443366
0.00552073
0.00635574
0.00697201
0.00751919
0.00785595
0.00796507
0.00827589
0.00887853
0.00897698
0.00658157
0.00561989
0.00499642
0.00442286
0.00403163
0.00423666
0.00448841
0.00460009
0.00461714
0.00456757
0.0044632
0.00429733
0.00403352
0.0036092
0.00307509
0.0026914
0.00253297
0.00250898
0.00254801
0.00261756
0.00270216
0.00279444
0.0029003
0.0030402
0.00320286
0.00333836
0.00339511
0.00339019
0.00353484
0.0040932
0.00527571
0.00682517
0.00801071
0.00866374
0.00702635
0.00619464
0.00524394
0.0047398
0.00422519
0.00384044
0.0039133
0.00413495
0.00431748
0.00443119
0.00447492
0.00444491
0.00433344
0.00412482
0.00379309
0.00334989
0.00294494
0.00268964
0.00256432
0.00251836
0.00251853
0.00254744
0.00260875
0.00270174
0.00273161
0.00255622
0.00220745
0.00206869
0.00217938
0.00233002
0.00249286
0.00292485
0.0039579
0.00479151
0.00476354
0.00650939
0.00520915
0.00512149
0.00501606
0.0047344
0.0041985
0.00360043
0.00344347
0.00360516
0.00381527
0.00396985
0.00404465
0.00403076
0.00390787
0.00363618
0.00320796
0.0027758
0.00249118
0.00233855
0.00226149
0.00222851
0.00222933
0.00219953
0.00202643
0.0020306
0.00247904
0.00288853
0.00312341
0.00328683
0.00340734
0.00345428
0.00337661
0.0031469
0.0026846
0.00316274
0.00938066
0.00473309
0.00531512
0.00544871
0.00532289
0.00495186
0.00420955
0.00348234
0.00323661
0.00328877
0.00344311
0.00357705
0.00362934
0.00356583
0.00334373
0.00293868
0.00247602
0.00215551
0.0019764
0.00186288
0.00179914
0.0019546
0.00270408
0.00395795
0.00487974
0.00511115
0.00507204
0.00494142
0.00476167
0.00454297
0.00428811
0.00400821
0.00382278
0.00428156
0.00627081
0.0128499
0.00447542
0.0051005
0.00537946
0.00548094
0.00545395
0.00522826
0.00464247
0.00392884
0.00341169
0.00317846
0.0031682
0.003247
0.00328606
0.00319199
0.00289863
0.00243623
0.00199959
0.00171345
0.0015635
0.00163098
0.00221462
0.00361098
0.00550652
0.00689378
0.00737535
0.00741377
0.00721958
0.00683901
0.00628537
0.00561888
0.00508545
0.00513653
0.00607949
0.00799426
0.0120891
0.00402741
0.00490487
0.00533338
0.00557141
0.00574078
0.00585227
0.00584296
0.00550735
0.00479332
0.00398053
0.00333113
0.00298833
0.0029279
0.00298371
0.00296577
0.00274333
0.00232667
0.00189277
0.00158
0.00142484
0.0015554
0.00225099
0.00358723
0.00507676
0.00627815
0.00722074
0.0079245
0.00832526
0.00835561
0.00800205
0.00741299
0.0070099
0.00715344
0.00780323
0.00878866
0.00358724
0.00489486
0.0053578
0.00549347
0.00551754
0.0055094
0.00553692
0.0056468
0.00570532
0.00545028
0.00477993
0.00388716
0.00309892
0.0026643
0.00258557
0.00263824
0.00259932
0.00240434
0.00211874
0.0018318
0.00160656
0.00152917
0.00173184
0.0022448
0.00295197
0.0038062
0.00480216
0.00589019
0.00697888
0.00791825
0.0084753
0.00852132
0.00826232
0.00794028
0.00717766
0.00427282
0.00537715
0.0056372
0.0056594
0.00557994
0.00540583
0.00513057
0.00484707
0.00480958
0.00508867
0.00535467
0.00525044
0.00465689
0.00375673
0.00293
0.00248597
0.00240623
0.00243803
0.00241731
0.00232131
0.00217397
0.00200414
0.00184606
0.00174033
0.00171824
0.00181078
0.00206072
0.00250659
0.00318351
0.00413303
0.00536302
0.00664945
0.00744071
0.00761025
0.00727357
0.00605177
0.00608467
0.0058713
0.00570816
0.00555702
0.00538823
0.00517775
0.00487259
0.00447262
0.00428102
0.00452565
0.00489528
0.00509148
0.00497274
0.00438575
0.0034804
0.00276936
0.00247803
0.00243542
0.00245537
0.00246036
0.00243191
0.00236824
0.00227269
0.00215174
0.00201659
0.00188984
0.00179874
0.00175856
0.00180238
0.00209805
0.00300495
0.00459094
0.00591085
0.00763111
0.00691187
0.00595171
0.00561316
0.00542893
0.00525164
0.00503681
0.00480106
0.00460489
0.00444664
0.00428911
0.00427642
0.00446461
0.00468934
0.00483912
0.00483354
0.00444431
0.00368542
0.00305477
0.00275484
0.00266873
0.00266602
0.00268217
0.00269257
0.00268585
0.00265498
0.00259937
0.00251989
0.00238029
0.00212239
0.00177072
0.00151203
0.00168015
0.00211333
0.00346349
0.00876414
0.00601276
0.00537238
0.00535439
0.0053348
0.00522598
0.00497436
0.00456165
0.00407322
0.00371386
0.00360798
0.00370733
0.00391762
0.00412167
0.00424685
0.00425095
0.00403542
0.00357444
0.00316776
0.00296572
0.00289388
0.00288011
0.00288999
0.00290745
0.00292361
0.00293389
0.00293005
0.00284538
0.00262669
0.0024488
0.00243656
0.0024675
0.0021986
0.00136366
0.00282205
0.0111639
0.00533699
0.00559891
0.00578982
0.00584078
0.00578756
0.00558544
0.00513769
0.00436502
0.00344644
0.00281644
0.00271857
0.00298638
0.00327521
0.00339796
0.00333563
0.00321517
0.00314959
0.00310415
0.00306307
0.00302707
0.00299569
0.00296804
0.00294518
0.00292901
0.00290766
0.00281552
0.0027111
0.00291822
0.00340674
0.00380032
0.00378173
0.00302222
0.00277783
0.00545395
0.0138132
0.0054037
0.00562866
0.00572209
0.00576496
0.0057813
0.00573031
0.00550196
0.00491405
0.00389766
0.00279194
0.00214716
0.00217829
0.00251813
0.00281966
0.00300371
0.00309596
0.0031283
0.00311848
0.00307686
0.00301096
0.00292437
0.00281905
0.00269847
0.00257791
0.00258142
0.00306827
0.00398519
0.00468098
0.00496036
0.00494828
0.00471082
0.00451253
0.00550587
0.00839818
0.0148359
0.00530262
0.00532483
0.00542971
0.0054957
0.00554628
0.00558748
0.00560248
0.00551222
0.00512883
0.00429454
0.00320793
0.00235236
0.00207326
0.00220805
0.00248145
0.00272224
0.00288227
0.00296086
0.00296757
0.00291308
0.00279925
0.00261842
0.00237313
0.00218564
0.00252258
0.00395884
0.00595588
0.00686674
0.00672432
0.00625384
0.00586431
0.00607432
0.00719537
0.00921559
0.0127096
0.00502027
0.00550363
0.00572211
0.00579791
0.00580598
0.0057683
0.00571302
0.00568385
0.00568851
0.00559598
0.00512476
0.0040863
0.00273413
0.0017056
0.0014826
0.00181589
0.00221257
0.00251538
0.00271159
0.00279928
0.00277296
0.00262772
0.00237179
0.00210198
0.00221417
0.00340046
0.00572967
0.00775385
0.00843907
0.00823015
0.00773288
0.00757617
0.00798248
0.00882743
0.00994115
0.00520694
0.00572213
0.00591776
0.00600223
0.00603581
0.00601715
0.00592135
0.00572714
0.0054804
0.00529153
0.00516793
0.00491884
0.0042326
0.00297957
0.00167953
0.00118694
0.0014677
0.00189154
0.00223845
0.00249713
0.00265952
0.0027077
0.00262317
0.00241593
0.00221442
0.00242167
0.00354705
0.00540864
0.00718419
0.00842749
0.00889923
0.00882355
0.00875422
0.0087757
0.00882892
0.00558427
0.00568361
0.00576645
0.00581886
0.00585239
0.00586763
0.00585752
0.00579732
0.00563387
0.00534584
0.00500088
0.00465801
0.00425631
0.00360245
0.00254502
0.00149101
0.00120551
0.00150788
0.00187789
0.00218672
0.00243979
0.00263617
0.00275638
0.00277052
0.00266757
0.00251714
0.0025446
0.00303488
0.00404693
0.00547665
0.00709418
0.00823478
0.00853807
0.00859849
0.00928398
0.00569035
0.00583607
0.00593359
0.00596875
0.00596255
0.00591534
0.0058311
0.00573546
0.00564026
0.00549104
0.00523191
0.00486096
0.00438748
0.00377457
0.00296447
0.00199559
0.00135218
0.00140135
0.00172337
0.00203346
0.00229701
0.00253241
0.00274574
0.00292095
0.00302551
0.00302944
0.00293973
0.00283503
0.00286098
0.00320721
0.00412598
0.00580044
0.0070877
0.00801802
0.0105866
0.0059521
0.00603624
0.00606518
0.00606561
0.00603894
0.0059739
0.00586302
0.00573006
0.00561364
0.00549851
0.00533105
0.00506866
0.00468045
0.00412526
0.00337018
0.00244423
0.00162259
0.00143153
0.00168513
0.00199964
0.00227673
0.00252645
0.00276871
0.00300877
0.0032315
0.00340214
0.00347914
0.00343915
0.00329837
0.00311946
0.00305195
0.00380072
0.00583128
0.00785692
0.012173
0.0062692
0.00604082
0.00598403
0.00595724
0.00591824
0.00584522
0.00573405
0.00562058
0.00553992
0.00546941
0.00536375
0.00519184
0.0049264
0.00452221
0.00390555
0.00304912
0.00207641
0.00152569
0.00163816
0.00195973
0.00226869
0.0025481
0.00282119
0.00310637
0.00340667
0.00369929
0.00393134
0.00404396
0.0040038
0.00380073
0.00340241
0.00341089
0.00571079
0.00844649
0.0135348
0.00641144
0.00611946
0.00604981
0.0060093
0.00594802
0.0058387
0.00568072
0.0055346
0.00545714
0.00541807
0.0053587
0.00524723
0.00506583
0.00478652
0.00435279
0.00368338
0.00275435
0.00181825
0.00155919
0.00182125
0.00217273
0.00250166
0.00282122
0.0031598
0.00353514
0.00393706
0.00430422
0.00454814
0.00460994
0.00445859
0.00402473
0.00396736
0.00637098
0.00930832
0.0142999
0.00642771
0.00614069
0.00606211
0.00601097
0.00593629
0.00580796
0.00562384
0.0054502
0.00536567
0.00534874
0.00532864
0.00526465
0.00514093
0.00494096
0.0046291
0.00413433
0.00338487
0.0023774
0.00164059
0.00167602
0.00203202
0.00241286
0.00278938
0.00319728
0.00366887
0.00420164
0.00471337
0.00507225
0.0052006
0.00507108
0.00465385
0.00476935
0.0071487
0.00994865
0.0144586
0.00636836
0.00615838
0.00607764
0.00601164
0.00591671
0.00576278
0.00554741
0.00533442
0.00522433
0.00522121
0.00524138
0.00522477
0.00515162
0.00501302
0.00478981
0.00443778
0.00387752
0.00304924
0.00203535
0.00160395
0.00181709
0.00221575
0.00264368
0.00312015
0.0036961
0.00437765
0.00506475
0.00557256
0.00578696
0.0056882
0.00529682
0.00548417
0.0076968
0.010244
0.0143367
0.00651475
0.00628989
0.00616388
0.00605762
0.00592229
0.00572753
0.00547787
0.00522491
0.00506907
0.00505336
0.0050974
0.00511815
0.00508405
0.00498665
0.00481458
0.00453927
0.00410246
0.00343991
0.00249242
0.00170806
0.00168718
0.00206236
0.00252783
0.00306385
0.00374322
0.00458112
0.0054478
0.00610826
0.00641432
0.00635559
0.00597873
0.00609528
0.00805555
0.0103972
0.0143301
0.00670632
0.00635999
0.00617263
0.0060174
0.00582734
0.0055781
0.00530571
0.00505333
0.00488541
0.00485777
0.00491135
0.00495377
0.0049438
0.00487162
0.00472892
0.00449406
0.00412338
0.00356079
0.00277398
0.00186843
0.0015748
0.00186555
0.00235286
0.00294683
0.0037319
0.00474098
0.00580515
0.00664024
0.00706349
0.00706539
0.00670225
0.00667397
0.00834146
0.0105631
0.0145941
0.00697043
0.00649779
0.00624316
0.00602683
0.0057584
0.00542636
0.00511024
0.00484459
0.00466127
0.00461504
0.00466816
0.00472108
0.00472171
0.00465756
0.00452088
0.00429212
0.00393306
0.00339914
0.00267797
0.0018211
0.00145712
0.00170651
0.00220865
0.00286379
0.00378082
0.00498916
0.00625254
0.00724681
0.00777893
0.00784124
0.00748818
0.00732623
0.00869989
0.0108608
0.0151818
0.00730417
0.00661564
0.00626961
0.00598173
0.00562567
0.00522132
0.00489406
0.00463739
0.00444125
0.00436187
0.00440033
0.00445603
0.00446014
0.00439456
0.00425055
0.00400714
0.00362413
0.00306742
0.00234342
0.00155888
0.00130821
0.00162521
0.00216538
0.00289017
0.00396508
0.00538701
0.00683258
0.00794396
0.00854667
0.00864409
0.00828807
0.008068
0.00921408
0.0113312
0.015992
0.00764488
0.00667712
0.00623896
0.00587746
0.00542198
0.00493782
0.00460858
0.00438014
0.00418755
0.00406906
0.00407092
0.00411519
0.00411456
0.00404064
0.00388132
0.00361224
0.00318899
0.00258429
0.00181089
0.00106523
0.0010336
0.0015241
0.00216524
0.00304573
0.00438886
0.00606127
0.00764461
0.00878693
0.00937889
0.00945325
0.00909699
0.00895271
0.00995141
0.0119601
0.0167861
0.0079323
0.00669574
0.0061975
0.00578517
0.00524962
0.00468206
0.00432758
0.00412025
0.00394855
0.00381483
0.00377974
0.0038077
0.00380102
0.00371877
0.00354603
0.00325787
0.002813
0.00218395
0.00137905
0.000639845
0.000736833
0.00141099
0.00218608
0.0033071
0.00500123
0.00690774
0.00855155
0.00965837
0.0101881
0.0102137
0.00992218
0.0099464
0.0108024
0.0125641
0.0170771
0.00786753
0.00658567
0.00611979
0.0057183
0.00516396
0.00451771
0.00407746
0.00384403
0.00367089
0.00351798
0.00343622
0.00344189
0.00343853
0.003361
0.00318742
0.00289266
0.0024448
0.00182309
0.00104507
0.000376559
0.000534646
0.00137825
0.00232153
0.00374083
0.00581739
0.00783999
0.00940352
0.0104528
0.0109655
0.0110063
0.0108381
0.0109519
0.011579
0.0129277
0.016439
0.0076804
0.00655615
0.00617162
0.00582545
0.00531525
0.00460762
0.00400323
0.00368058
0.0034826
0.00330539
0.0031642
0.00312167
0.00312681
0.00307976
0.00294003
0.00268467
0.00228458
0.00172426
0.00101851
0.000346326
0.000306068
0.00114122
0.00228277
0.00394106
0.00641164
0.00860541
0.00993908
0.0108492
0.0114458
0.0116674
0.0116653
0.0117591
0.0120931
0.0128908
0.0149328
0.00737612
0.00648778
0.00621247
0.00595488
0.00554457
0.00486866
0.00408653
0.00357764
0.00331563
0.00312573
0.00294701
0.00283136
0.00282086
0.00282251
0.00275358
0.00258252
0.00228258
0.00183678
0.00124315
0.000573436
0.000195555
0.000630131
0.00177401
0.00346705
0.00612105
0.00893128
0.0104
0.0110022
0.011444
0.0117959
0.0119672
0.0120467
0.0121443
0.0124234
0.0132121
0.00713811
0.00646982
0.00629801
0.00613671
0.00585664
0.0053291
0.00450799
0.00373855
0.00329646
0.00305198
0.00285019
0.00265938
0.00255767
0.00256259
0.00256809
0.00250371
0.00234067
0.00205321
0.00162633
0.00107024
0.000502697
0.00031361
0.000896155
0.00221687
0.00440706
0.00754758
0.0102181
0.0113267
0.0115452
0.0116329
0.0117294
0.011754
0.0117087
0.0116749
0.0118683
0.00681289
0.0063578
0.00629115
0.00623215
0.00609222
0.00577306
0.00513864
0.00423483
0.00348508
0.00306646
0.002829
0.00262741
0.00243957
0.00235019
0.00236224
0.00237574
0.00233187
0.00220459
0.00196903
0.00160724
0.001129
0.000652812
0.000510952
0.00102259
0.00226644
0.00446167
0.0075169
0.0102354
0.0115979
0.0118229
0.0117138
0.0115502
0.0113437
0.0111277
0.0112344
0.00655811
0.00630865
0.00632674
0.00634588
0.00631405
0.00616858
0.00580557
0.00508271
0.00412208
0.00335695
0.00292671
0.00268182
0.00247934
0.00229899
0.00221989
0.00223427
0.00225744
0.00223869
0.00215472
0.00198482
0.00170851
0.00133008
0.000947362
0.000813939
0.00116005
0.00205786
0.00377719
0.0063772
0.00915024
0.0109807
0.0115226
0.0114982
0.0112884
0.0110437
0.011427
0.00636545
0.00624015
0.00630384
0.00636712
0.00640208
0.00636808
0.00620317
0.00579791
0.00501027
0.00401443
0.00324274
0.00280728
0.00255585
0.00235534
0.00219418
0.0021364
0.00216177
0.00219744
0.00220024
0.00215238
0.00203841
0.00184073
0.00156269
0.00129288
0.00123208
0.00146406
0.00198818
0.00308853
0.00505163
0.00763645
0.00972143
0.0105949
0.0108462
0.0109181
0.0123314
0.00633742
0.00622058
0.00628316
0.00635133
0.00640454
0.00641391
0.00634034
0.00612947
0.00567187
0.0048369
0.00385943
0.00314303
0.00273365
0.00247655
0.00226484
0.00211252
0.00207172
0.00210836
0.0021534
0.00217169
0.00215049
0.00207918
0.00194627
0.00177019
0.00167821
0.00180589
0.0020262
0.00231006
0.00291413
0.00428387
0.00654438
0.008513
0.00958986
0.0104222
0.0137862
0.0064451
0.0062405
0.00627496
0.00633367
0.00638301
0.00639306
0.00632978
0.00616231
0.00584973
0.00529059
0.00442454
0.00355585
0.00297477
0.00263154
0.00238579
0.00217286
0.0020357
0.00201352
0.00205382
0.00209576
0.00211451
0.00210144
0.002049
0.00196179
0.00195097
0.00222035
0.00261535
0.00291452
0.00310126
0.00341839
0.0045256
0.00659589
0.00838721
0.0101809
0.015353
0.00653255
0.00622128
0.00623542
0.00629233
0.00634746
0.00636538
0.00630836
0.00614992
0.00587107
0.00543206
0.00475608
0.00391788
0.00322513
0.00278463
0.00249313
0.00225164
0.00204799
0.00194469
0.0019443
0.00198069
0.00200966
0.00201683
0.00199693
0.00195902
0.00204057
0.00251784
0.00318027
0.00371783
0.00400884
0.00408241
0.00442245
0.00605758
0.00813599
0.0105372
0.0162449
0.00657355
0.00617555
0.00617247
0.00622936
0.00629398
0.00632518
0.00627841
0.00612645
0.00585879
0.00546073
0.00489714
0.00416751
0.003457
0.0029447
0.00259669
0.00231963
0.00207002
0.0018879
0.00182369
0.00183298
0.00185389
0.00186041
0.00184692
0.00184026
0.00204114
0.00280097
0.00377371
0.00453973
0.00498907
0.0051417
0.00537095
0.00672014
0.0086539
0.0110212
0.0159362
0.00646115
0.00604047
0.0060359
0.00609919
0.00618225
0.00624441
0.00623513
0.00612175
0.00589311
0.00553971
0.00504102
0.00439297
0.00369572
0.00312909
0.00272654
0.0024124
0.0021265
0.00187712
0.00173405
0.00169884
0.00170199
0.00170024
0.00168447
0.0016982
0.00198901
0.00297625
0.00425076
0.00521877
0.0058205
0.00615869
0.00658082
0.00775224
0.00926895
0.0111838
0.0148972
0.00637694
0.00595152
0.0059328
0.00598683
0.0060709
0.00614914
0.00617009
0.00609834
0.00592227
0.00563392
0.00521446
0.00464838
0.00398319
0.00336529
0.00289388
0.00253105
0.00221068
0.00191057
0.00168398
0.00158354
0.00155829
0.00154511
0.0015231
0.00153563
0.00183574
0.00292883
0.00452862
0.00573962
0.00649944
0.00701384
0.00760596
0.0085796
0.00966499
0.0110832
0.0138855
0.00628249
0.00584375
0.00581219
0.00586023
0.0059476
0.0060423
0.00609288
0.00606237
0.00593911
0.00571744
0.00538247
0.00491286
0.00431717
0.00368741
0.00315125
0.00272915
0.00236977
0.00203074
0.00173122
0.00154819
0.00148019
0.00145387
0.00142515
0.00140991
0.00159677
0.00253168
0.00433602
0.00591125
0.00692704
0.00761561
0.00827821
0.0090597
0.00984091
0.0109009
0.0132894
0.00625406
0.00577206
0.00572139
0.00575998
0.00584492
0.00594631
0.00601429
0.00601222
0.0059289
0.005761
0.00549816
0.00511967
0.00461301
0.00402023
0.00344845
0.00297038
0.00256834
0.00219562
0.00183984
0.00156473
0.00142627
0.00137516
0.00134461
0.00131598
0.00138534
0.001995
0.00368367
0.00561105
0.00700591
0.00792565
0.008637
0.00929078
0.00990024
0.0107729
0.0131649
0.00618464
0.00566172
0.00560164
0.00563881
0.00572865
0.00584263
0.00593095
0.00595624
0.00590737
0.00578325
0.00557883
0.00527878
0.00486383
0.00433999
0.00377408
0.0032583
0.00281604
0.00241492
0.00202418
0.00167513
0.00145097
0.00135459
0.00131346
0.00127941
0.00127762
0.00158656
0.00287703
0.00491594
0.0066892
0.00791679
0.00875191
0.00937866
0.00992461
0.0107537
0.0134588
0.00613677
0.00557482
0.00550321
0.00553353
0.00562
0.00573902
0.00584332
0.00589236
0.00587194
0.00578133
0.00561951
0.00537732
0.00503855
0.00459369
0.00407117
0.00354364
0.00306679
0.00263356
0.00221232
0.00180576
0.0014874
0.00131661
0.00124559
0.00120765
0.0011933
0.00138564
0.00236295
0.00426942
0.00624045
0.007734
0.00873571
0.00941152
0.00997363
0.0108678
0.0140247
0.00608258
0.0054898
0.00540881
0.00543253
0.00551407
0.00563521
0.00575331
0.00582505
0.00583117
0.00576929
0.00564046
0.00543981
0.00515598
0.00477736
0.00431121
0.00380217
0.00330998
0.0028497
0.00239995
0.00195223
0.00155948
0.00130955
0.00119063
0.00112687
0.0011006
0.00131372
0.00228116
0.00407728
0.00609372
0.00768584
0.00876592
0.00948255
0.0100869
0.0110804
0.0145055
0.00607629
0.00543651
0.00534053
0.0053544
0.0054271
0.00554389
0.00566842
0.00575766
0.00578743
0.00575239
0.00565373
0.00548883
0.00524968
0.0049258
0.00451498
0.00404052
0.00354913
0.00306969
0.00259141
0.00210294
0.00163779
0.00129389
0.00111007
0.00101003
0.000977143
0.00130096
0.00254358
0.00437526
0.00635053
0.00790994
0.00894187
0.00963316
0.0102444
0.0112633
0.0144833
0.00605717
0.00537564
0.00527067
0.00527909
0.00534581
0.00545813
0.00558654
0.0056903
0.00574118
0.00573073
0.00565934
0.00552555
0.00532383
0.00504616
0.00468787
0.00425909
0.00378943
0.00330787
0.00281298
0.00229533
0.00177622
0.00134598
0.00108448
0.000930774
0.000867049
0.00126316
0.00288239
0.00498175
0.0067599
0.00826087
0.00920889
0.00983087
0.0103907
0.0113017
0.0138814
0.00599697
0.00532141
0.00522016
0.00522341
0.00527454
0.00536571
0.00548422
0.00559836
0.00567331
0.00569314
0.00565464
0.00555636
0.00539447
0.00516299
0.0048572
0.00448075
0.00405109
0.00358993
0.00310115
0.0025725
0.00201448
0.00150655
0.00116081
0.00095178
0.000819948
0.0010827
0.00273529
0.00547916
0.00713354
0.00845003
0.00934917
0.00993404
0.0104304
0.0111678
0.0130758
0.00587826
0.00530769
0.00523379
0.00523656
0.00526432
0.00531102
0.00538597
0.00548424
0.00557337
0.00562384
0.0056222
0.00556385
0.0054456
0.0052635
0.0050141
0.00469856
0.0043265
0.00390995
0.00345548
0.00294821
0.00238616
0.00182714
0.00139443
0.00112934
0.000931613
0.000917999
0.00194877
0.00496088
0.00738934
0.00846896
0.00927468
0.0098405
0.0102977
0.0109081
0.0124667
0.00578939
0.00538673
0.00534309
0.00534439
0.00535086
0.00535029
0.0053558
0.00539651
0.00546829
0.00553577
0.00556841
0.00555171
0.0054798
0.00534908
0.00515695
0.00490376
0.00459547
0.00424142
0.00384212
0.0033885
0.00286258
0.00229199
0.00179198
0.00146904
0.00124944
0.00105379
0.00128326
0.00322011
0.00665351
0.00837233
0.00914659
0.00966804
0.0101038
0.010668
0.012224
0.00586943
0.00557027
0.00552174
0.00551265
0.00551467
0.00550147
0.00545727
0.0054172
0.00542139
0.00546272
0.00550405
0.00551531
0.00548205
0.00539813
0.00526063
0.00506913
0.00482697
0.00453998
0.0042104
0.00382633
0.00336953
0.00283509
0.00230172