/*--------------------------------*- C++ -*----------------------------------*\
| =========                 |                                                 |
| \\      /  F ield         | OpenFOAM: The Open Source CFD Toolbox           |
|  \\    /   O peration     | Version:  v1906                                 |
|   \\  /    A nd           | Web:      www.OpenFOAM.com                      |
|    \\/     M anipulation  |                                                 |
\*---------------------------------------------------------------------------*/
FoamFile
{
    version     2.0;
    format      ascii;
    class       volScalarField;
    location    "66";
    object      T;
}
// * * * * * * * * * * * * * * * * * * * * * * * * * * * * * * * * * * * * * //

dimensions      [0 0 0 1 0 0 0];


internalField   nonuniform List<scalar> 
78750
(
317.176
317.841
318.076
318.003
317.32
316.934
316.85
316.654
316.698
316.59
316.677
316.627
316.681
316.65
316.646
316.6
316.55
316.479
316.39
316.281
316.149
315.996
315.823
315.634
315.438
315.244
315.067
314.926
314.846
314.871
315.086
315.676
317.281
325.245
441.022
315.111
325.142
329.821
332.344
330.665
328.585
327.518
326.257
325.375
324.499
323.734
323.034
322.378
321.772
321.196
320.651
320.131
319.631
319.149
318.683
318.233
317.804
317.401
317.035
316.716
316.457
316.273
316.18
316.204
316.394
316.866
318.007
321.782
342.703
459.266
309.252
318.005
320.616
323.438
325.384
326.142
326.564
326.851
326.954
326.982
326.95
326.873
326.761
326.622
326.462
326.286
326.098
325.904
325.707
325.511
325.32
325.137
324.965
324.808
324.67
324.555
324.473
324.44
324.489
324.691
325.226
326.758
332.786
362.489
475.7
305.811
314.424
321.434
325.495
327.141
327.519
327.475
327.315
327.129
326.926
326.717
326.511
326.315
326.137
325.98
325.85
325.745
325.666
325.61
325.576
325.562
325.566
325.589
325.634
325.702
325.799
325.936
326.132
326.422
326.889
327.759
329.914
338.001
373.233
485.151
313.376
325.037
327.725
327.755
327.468
327.84
328.286
328.702
329.039
329.248
329.323
329.278
329.136
328.923
328.665
328.387
328.108
327.844
327.605
327.399
327.229
327.095
326.998
326.939
326.922
326.951
327.042
327.222
327.548
328.16
329.476
333.104
345.971
387.877
493.79
306.402
315.196
319.418
321.408
322.862
324.159
325.303
326.316
327.24
328.071
328.776
329.324
329.699
329.901
329.953
329.891
329.759
329.595
329.425
329.265
329.124
329.006
328.912
328.843
328.803
328.798
328.841
328.954
329.181
329.622
330.596
333.502
345.769
390.457
496.637
309.044
318.151
321.394
322.896
324.079
325.132
326.099
327.093
328.152
329.183
330.087
330.806
331.303
331.554
331.554
331.318
330.895
330.363
329.828
329.373
329.031
328.805
328.698
328.697
328.783
328.941
329.173
329.51
330.034
330.934
332.727
337.239
352.147
397.542
499.345
305.016
311.358
315.403
318.63
321.353
323.702
325.768
327.596
329.224
330.694
332.029
333.215
334.216
334.991
335.512
335.771
335.766
335.479
334.873
333.928
332.743
331.611
330.74
330.113
329.718
329.581
329.663
329.92
330.374
331.198
333.003
338.122
355.236
401.756
500.893
305.092
314.789
321.737
326.283
329.482
331.976
334.026
335.738
337.147
338.259
339.076
339.603
339.855
339.85
339.612
339.184
338.64
338.038
337.377
336.596
335.607
334.31
332.773
331.584
330.807
330.319
330.214
330.521
331.221
332.494
335.181
342.573
365.026
413.081
503.762
309.787
323.339
329.667
332.892
335.22
337.36
339.449
341.387
342.998
344.196
345.004
345.482
345.659
345.531
345.091
344.351
343.376
342.291
341.222
340.202
339.171
338.021
336.668
335.131
333.521
332.324
331.599
331.344
331.58
332.367
334.308
340.386
362.49
413.239
503.749
312.58
322.733
326.221
328.379
330.444
332.649
334.975
337.221
339.159
340.667
341.786
342.636
343.311
343.83
344.14
344.151
343.808
343.152
342.311
341.411
340.492
339.51
338.365
336.963
335.388
333.844
332.692
332.319
333.043
334.827
338.199
345.923
368.551
418.048
504.406
311.859
323.515
328.567
331.505
333.817
335.768
337.333
338.539
339.493
340.275
340.929
341.493
342.003
342.486
342.954
343.389
343.723
343.826
343.567
342.942
342.106
341.214
340.302
339.297
338.087
336.629
335.131
334.005
333.76
335.183
339.689
350.941
377.864
425.242
504.477
311.488
324.062
329.348
332.47
335.134
337.551
339.546
341.06
342.135
342.805
343.133
343.249
343.277
343.291
343.321
343.378
343.458
343.545
343.595
343.525
343.235
342.691
341.949
341.076
340.066
338.839
337.352
335.933
335.391
336.906
343.012
359.618
394.883
437.073
502.61
312.969
326.038
331.087
334.117
336.815
339.092
340.714
341.911
342.97
343.925
344.638
345.043
345.203
345.213
345.14
345.024
344.886
344.737
344.578
344.396
344.168
343.856
343.423
342.85
342.126
341.219
340.041
338.516
336.951
336.298
338.581
351.187
388.729
435.031
502.6
315.029
328.794
334.228
337.805
341.113
343.275
344.056
344.076
343.967
344.079
344.414
344.805
345.141
345.392
345.561
345.656
345.685
345.658
345.577
345.443
345.253
345.002
344.681
344.284
343.797
343.199
342.446
341.474
340.346
339.829
340.86
349.133
382.385
429.853
500.775
317.158
330.772
336.351
340.432
344.406
346.737
347.551
347.551
347.17
346.684
346.299
346.084
345.997
345.98
345.995
346.02
346.039
346.042
346.017
345.957
345.849
345.684
345.452
345.147
344.765
344.293
343.71
342.977
342.074
341.542
340.879
347.933
386.583
429.483
491.122
318.925
331.559
336.988
341.175
344.798
346.496
347.165
347.516
347.714
347.774
347.714
347.584
347.435
347.296
347.174
347.068
346.971
346.878
346.783
346.68
346.562
346.419
346.242
346.03
345.79
345.53
345.287
345.329
347.099
353.384
359.549
365.379
396.307
436.595
494.848
319.077
330.861
335.595
339.355
342.98
345.474
346.952
347.79
348.213
348.377
348.4
348.358
348.288
348.207
348.12
348.027
347.928
347.82
347.7
347.565
347.413
347.238
347.034
346.801
346.572
346.493
347.119
350.401
361.173
384.249
414.377
436.374
450.073
472.52
523.489
314.501
323.996
327.687
330.255
333.073
336.544
340.186
343.493
346.178
348.085
349.187
349.615
349.621
349.443
349.222
349.016
348.837
348.682
348.543
348.41
348.278
348.135
347.971
347.776
347.553
347.375
347.606
349.381
355.136
368.908
394.111
429.992
469.897
499.085
530.595
310.589
321.002
326.693
329.868
331.981
333.77
335.727
338.053
340.64
343.324
345.915
348.116
349.617
350.354
350.555
350.492
350.323
350.116
349.897
349.679
349.472
349.279
349.097
348.922
348.758
348.715
348.709
347.992
346.853
347.473
354.107
365.699
375.933
415.755
498.381
309.952
323.096
331.011
335.594
338.855
341.534
343.586
344.868
345.514
345.916
346.488
347.457
348.706
349.819
350.5
350.797
350.879
350.856
350.777
350.667
350.545
350.426
350.324
350.251
350.182
349.33
346.92
344.03
344.671
348.166
351.42
343.763
322.086
351.111
474.252
310.858
324.715
331.889
336.005
339.284
342.587
345.935
348.788
350.524
351.157
351.134
350.91
350.923
351.226
351.486
351.575
351.57
351.524
351.47
351.456
351.551
351.841
352.353
352.93
353.322
356.954
365.248
366.533
357.284
344.67
333.591
326.566
337.128
375.127
462.815
312.11
326.895
334.208
338.612
342.437
345.8
348.325
350.374
351.903
352.66
352.843
352.692
352.396
352.261
352.277
352.252
352.197
352.144
352.167
352.439
353.267
355.095
359.497
371.635
393.018
413.078
415.898
403.319
387.771
373.46
364.441
368.797
391.507
429.597
499.373
315.201
331.873
339.198
344.444
350.072
353.621
354.639
354.789
354.894
354.932
354.819
354.544
354.073
353.504
353.125
352.93
352.79
352.662
352.553
352.556
352.978
354.619
359.267
369.762
387.364
406.964
419.46
423.607
425.036
425.777
426.291
431.357
447.324
477.722
535.518
320.241
336.21
343.047
348.815
355.3
357.909
357.732
357.107
356.582
356.196
355.904
355.63
355.296
354.835
354.314
353.921
353.672
353.495
353.34
353.188
353.065
353.093
353.609
355.14
358.178
362.756
368.54
376.236
387.656
404.109
427.017
452.344
473.559
497.5
536.417
322.213
336.105
342.196
347.568
353.455
357.069
358.321
358.542
358.361
358.003
357.56
357.076
356.551
355.966
355.346
354.829
354.5
354.32
354.228
354.18
354.147
354.04
353.386
352.054
350.933
352.094
356.033
360.674
366.786
377.219
396.49
423.454
445.058
465.722
520.119
319.543
333.181
337.985
341.252
345.309
350.579
354.777
356.977
357.911
358.205
358.171
357.936
357.532
356.95
356.245
355.654
355.374
355.387
355.643
356.131
356.646
356.79
357.848
361.277
362.373
360.204
358.099
357.525
358.898
362.74
370.233
381.851
396.204
421.246
489.43
317.043
331.059
336.743
340.044
343.049
347.073
351.862
355.295
357.234
358.141
358.418
358.331
357.997
357.439
356.719
356.155
356.125
356.663
357.971
361.23
368.679
378.307
380.955
373.485
364.873
358.197
352.608
347.683
343.983
343.04
346.694
356.531
375.104
403.456
465.378
316.364
330.323
336.643
340.523
343.487
346.021
348.951
352.324
355.159
357.08
358.141
358.54
358.481
358.084
357.409
356.654
356.329
357.066
359.874
366.847
379.521
394.082
400.444
394.501
384.889
375.724
366.724
357.794
349.725
345.078
348.219
362.043
384.491
416.54
482.685
316.297
329.522
335.503
339.226
342.212
344.824
347.204
349.762
352.591
355.04
356.839
357.986
358.523
358.553
358.191
357.536
356.793
356.431
357.203
360.402
368.05
380.801
394.191
401.967
404.204
403.299
399.97
394.748
388.663
383.705
383.622
392.907
412.283
445.422
514.675
312.84
325.754
333.277
337.929
341.612
345.186
348.692
351.625
353.75
355.297
356.472
357.429
358.213
358.706
358.782
358.455
357.86
357.193
356.723
356.873
358.395
362.412
369.457
378.167
386.833
395.062
402.698
409.578
415.83
421.831
428.091
435.987
448.937
474.601
532.166
311.813
327.491
336.554
341.93
346.02
349.829
353.642
357.243
359.778
360.66
360.37
359.715
359.158
358.873
358.802
358.74
358.498
358.067
357.571
357.147
356.965
357.294
358.509
360.926
364.64
369.682
376.078
383.886
393.468
405.779
422.101
441.773
460.078
481.968
527.994
316.621
333.629
340.832
345.1
348.866
352.689
356.464
359.94
362.981
364.938
365.178
364.32
363.161
361.909
360.657
359.699
359.124
358.713
358.323
357.952
357.628
357.386
357.287
357.43
357.94
358.967
360.662
363.135
366.63
372.172
382.444
400.768
428.076
457.39
507.356
321.134
335.737
341.176
344.697
348.159
351.88
355.708
359.114
361.783
363.779
364.887
364.983
364.498
363.78
362.824
361.54
360.324
359.515
359.004
358.647
358.373
358.145
357.949
357.791
357.698
357.708
357.815
357.971
358.407
359.702
363.273
370.087
385.11
419.036
492.872
319.645
333.47
339.188
342.967
346.509
350.16
354.013
357.786
360.821
362.725
363.645
363.846
363.6
363.112
362.426
361.494
360.49
359.752
359.318
359.054
358.864
358.709
358.574
358.454
358.344
358.189
357.97
358.25
359.58
360.928
361.552
359.697
365
399.498
483.466
316.783
331.616
337.822
341.582
344.801
347.992
351.504
355.468
359.27
361.837
362.768
362.591
361.999
361.299
360.608
360.092
359.801
359.627
359.506
359.423
359.381
359.387
359.446
359.547
359.629
359.786
360.738
362.226
362.959
362.47
360.407
357.575
370.281
405.259
474.793
316.601
331.689
338.036
341.916
345.28
348.553
351.888
355.437
359.058
361.864
362.884
362.344
361.436
360.858
360.558
360.361
360.209
360.101
360.049
360.068
360.191
360.485
361.09
362.344
364.94
368.359
368.952
366.515
364.3
363.711
365.6
372.676
392.472
425.111
486.436
317.084
332.305
338.67
342.604
346.035
349.272
352.244
354.931
357.565
360.304
362.626
363.715
363.519
362.752
362.006
361.468
361.102
360.86
360.725
360.703
360.849
361.339
362.68
366.077
372.773
380.619
382.661
378.486
374.958
374.896
381.188
395.959
417.194
447.95
509.4
316.114
330.689
337.051
340.849
344.023
347.156
350.398
353.524
356.159
358.352
360.58
363
364.871
365.282
364.349
363.186
362.41
361.931
361.609
361.403
361.355
361.636
362.718
365.788
372.772
383.848
393.991
397.809
397.866
398.374
403.145
415.601
434.478
463.895
524.439
315.006
329.296
336.033
340.068
343.35
346.526
349.911
353.604
357.156
359.832
361.49
362.712
364.157
365.753
366.327
365.333
363.962
363.084
362.59
362.279
362.082
362.035
362.337
363.542
366.92
374.245
385.57
397.669
408.241
417.382
425.223
434.068
447.704
472.214
528.083
315.764
330.848
337.776
341.961
345.465
348.89
352.385
355.858
359.134
361.984
364.075
365.303
365.95
366.481
367.05
366.81
365.495
364.239
363.517
363.125
362.885
362.734
362.686
362.871
363.665
365.901
370.819
379.186
390.835
405.696
423.192
438.94
451.911
472.251
524.75
315.917
331.114
337.953
342.083
345.609
349.219
353.135
357.041
360.311
362.79
364.698
366.168
367.213
367.849
368.14
367.965
366.859
365.401
364.416
363.902
363.625
363.463
363.372
363.348
363.442
363.824
364.886
367.321
372.112
380.734
395.705
418.997
440.731
465.391
517.376
316.043
331.238
338.141
342.373
346.056
349.899
354.159
358.518
362.154
364.59
366.069
367.041
367.787
368.398
368.815
368.827
368.001
366.496
365.276
364.606
364.269
364.098
364.024
364.022
364.077
364.191
364.414
364.909
366.046
368.667
375.245
393.831
425.811
457.116
508.559
316.738
332.293
339.151
343.39
347.174
351.165
355.536
359.913
363.597
366.135
367.619
368.428
368.894
369.209
369.44
369.5
369.015
367.615
366.136
365.244
364.813
364.621
364.569
364.627
364.784
365.018
365.301
365.639
366.134
367.141
370.203
383.836
419.175
452.786
502.782
317.781
333.664
340.374
344.539
348.346
352.422
356.864
361.214
364.794
367.254
368.718
369.517
369.935
370.147
370.241
370.232
369.976
368.959
367.296
366.039
365.398
365.128
365.068
365.17
365.43
365.832
366.328
366.886
367.58
368.774
372.201
386.249
421.04
454.011
502.426
318.221
333.926
340.543
344.7
348.542
352.639
357.045
361.404
365.136
367.804
369.431
370.329
370.794
371.008
371.063
370.986
370.734
370.051
368.472
366.846
365.934
365.569
365.513
365.689
366.104
366.743
367.514
368.348
369.362
371.128
376.107
392.992
426.518
458.288
505.905
318.08
334.073
340.894
345.159
349.078
353.179
357.374
361.399
364.985
367.77
369.615
370.705
371.306
371.613
371.731
371.699
371.505
371.044
369.879
368.051
366.703
366.096
365.964
366.174
366.733
367.625
368.701
369.834
371.155
373.404
379.54
398.526
431.071
462.004
509.386
318.307
334.597
341.568
345.976
350.144
354.557
358.808
362.514
365.673
368.195
369.954
371.047
371.681
372.028
372.187
372.197
372.049
371.677
370.869
369.186
367.522
366.669
366.466
366.732
367.478
368.671
370.067
371.472
373.033
375.555
382.095
401.492
433.116
463.549
510.911
318.469
334.765
341.846
346.464
351.064
356.072
360.624
364.193
366.982
369.147
370.661
371.602
372.147
372.445
372.58
372.584
372.445
372.108
371.445
370.069
368.332
367.273
366.995
367.319
368.265
369.771
371.484
373.144
374.896
377.544
383.969
402.473
432.96
463.178
510.819
318.64
335.061
342.278
347.148
352.266
357.885
362.592
365.898
368.297
370.141
371.439
372.23
372.665
372.882
372.954
372.906
372.721
372.337
371.645
370.385
368.732
367.71
367.542
368.109
369.45
371.372
373.387
375.241
377.123
379.835
386.055
403.364
432.361
462.5
510.809
318.912
335.416
342.77
347.966
353.76
360.072
364.865
367.785
369.682
371.126
372.183
372.822
373.146
373.273
373.266
373.143
372.875
372.396
371.599
370.315
368.834
368.125
368.321
369.366
371.279
373.617
375.808
377.726
379.704
382.628
389.226
406.331
433.589
463.393
512.567
319.322
335.864
343.294
348.795
355.257
362.183
367.044
369.643
371.101
372.15
372.951
373.436
373.648
373.68
373.585
373.365
372.98
372.349
371.369
369.979
368.779
368.691
369.651
371.658
374.451
377.186
379.376
381.224
383.345
386.936
395.082
413.162
438.024
466.621
516.722
319.969
336.595
344.073
349.817
356.765
364.11
369.065
371.444
372.541
373.184
373.661
373.95
374.041
373.987
373.818
373.526
373.058
372.326
371.232
369.827
368.986
369.722
371.827
375.169
378.842
381.803
383.993
385.924
388.531
393.546
404.15
422.935
444.856
471.809
523.233
320.556
337.158
344.477
350.094
356.869
364.359
369.874
372.621
373.785
374.277
374.502
374.574
374.511
374.342
374.079
373.7
373.146
372.329
371.183
369.91
369.62
371.508
375.318
380.452
384.928
387.81
390.356
393.192
397.106
403.855
415.931
433.524
452.831
478.871
531.462
320.573
337.133
344.283
349.478
355.422
362.523
368.851
372.551
374.235
374.921
375.136
375.12
374.971
374.737
374.428
374.022
373.466
372.686
371.628
370.506
370.41
373.019
378.608
386.089
392.204
394.79
397.312
401.694
408.233
417.252
429.496
444.664
461.89
487.441
539.147
320.672
337.439
344.508
349.306
354.331
360.442
367.057
371.919
374.445
375.527
375.859
375.793
375.545
375.235
374.89
374.487
373.981
373.313
372.425
371.417
371.052
373.171
379.361
389.205
399.346
404.352
405.814
409.401
416.975
428.102
440.993
454.716
470.451
494.923
543.787
320.897
337.728
344.726
349.267
353.575
358.433
364.294
369.938
373.673
375.577
376.37
376.507
376.262
375.876
375.482
375.086
374.645
374.109
373.422
372.568
371.825
372.37
376.425
385.644
399.041
411.505
417.55
419.742
423.969
432.784
445.046
458.541
473.907
497.637
544.801
320.993
337.811
344.817
349.297
353.28
357.282
361.872
367.22
371.963
374.99
376.525
377.117
377.094
376.71
376.234
375.797
375.387
374.952
374.44
373.799
373.035
372.495
373.46
378.261
388.836
404.465
420.397
431.157
436.323
440.782
448.476
459.473
473.813
496.917
543.708
320.867
337.686
344.707
349.142
352.962
356.496
360.071
364.251
369.036
373.186
375.86
377.241
377.752
377.656
377.202
376.68
376.227
375.826
375.424
374.967
374.403
373.728
373.223
373.986
378.143
387.885
403.722
422.912
440.226
451.107
457.507
465.134
476.499
496.922
541.815
320.555
337.582
344.855
349.457
353.399
356.916
360.053
363.109
366.685
370.781
374.34
376.66
377.873
378.304
378.154
377.669
377.14
376.697
376.323
375.967
375.579
375.109
374.536
374.043
374.426
377.34
384.899
398.881
419.184
441.933
459.049
469.265
479.297
496.426
538.812
320.483
337.894
345.423
350.209
354.37
358.138
361.382
364.083
366.584
369.503
372.842
375.701
377.552
378.52
378.824
378.602
378.097
377.585
377.17
376.832
376.522
376.196
375.812
375.354
374.952
375.125
376.949
382.199
393.395
412.947
438.647
459.322
473.704
491.334
534.136
320.919
338.753
346.492
351.446
355.817
359.851
363.366
366.177
368.382
370.386
372.718
375.258
377.302
378.577
379.207
379.301
378.959
378.435
377.962
377.597
377.305
377.043
376.781
376.517
376.326
376.328
376.716
378.165
382.213
392.234
413.395
441.313
462.969
485.129
530.212
321.896
339.994
347.736
352.754
357.272
361.505
365.226
368.2
370.448
372.216
373.877
375.73
377.508
378.795
379.541
379.823
379.666
379.197
378.681
378.27
377.961
377.715
377.506
377.372
377.496
377.992
378.618
379.502
381.461
386.987
402.546
430.883
456.125
481.759
529.005
322.897
341.055
348.735
353.799
358.464
362.867
366.7
369.734
372.02
373.778
375.258
376.688
378.091
379.217
379.939
380.282
380.251
379.869
379.343
378.89
378.56
378.32
378.166
378.209
378.815
380.175
381.694
383.278
385.738
391.413
405.86
432.069
455.796
481.605
530.416
323.606
341.785
349.415
354.546
359.41
364.034
367.963
370.959
373.162
374.845
376.247
377.521
378.712
379.704
380.379
380.741
380.79
380.504
379.989
379.487
379.115
378.866
378.753
378.967
380.059
382.409
385.152
387.993
392.041
399.708
414.972
438.064
458.494
482.806
532.284
323.802
341.931
349.564
354.798
359.911
364.839
368.957
371.98
374.11
375.68
376.957
378.105
379.175
380.1
380.77
381.164
381.289
381.112
380.658
380.126
379.702
379.427
379.335
379.656
381.084
384.385
388.705
393.079
398.791
408.242
423.844
443.562
461.191
484.009
533.347
323.85
341.951
349.639
355.003
360.373
365.607
369.92
372.984
375.053
376.508
377.64
378.631
379.564
380.414
381.086
381.525
381.731
381.678
381.336
380.814
380.332
380.004
379.868
380.11
381.396
384.93
390.704
396.914
404.117
414.512
429.526
446.519
462.283
483.991
533.12
323.801
341.88
349.599
355.049
360.617
366.116
370.653
373.838
375.932
377.341
378.374
379.228
380.013
380.754
381.39
381.852
382.119
382.172
381.968
381.521
381.013
380.627
380.435
380.559
381.475
384.404
390.527
398.41
407.067
417.935
431.972
447.09
461.73
482.748
532.032
323.78
341.861
349.594
355.098
360.8
366.489
371.202
374.515
376.679
378.105
379.106
379.879
380.546
381.166
381.73
382.181
382.48
382.607
382.522
382.186
381.697
381.268
381.026
381.063
381.68
383.773
388.997
397.519
407.523
419.017
432.426
446.44
460.484
481.21
530.904
323.549
341.58
349.293
354.801
360.584
366.45
371.379
374.883
377.184
378.695
379.734
380.501
381.116
381.652
382.133
382.541
382.839
383.003
383.003
382.78
382.349
381.901
381.63
381.665
382.265
384.04
388.242
396.255
406.93
419.177
432.554
446.106
459.913
480.663
530.716
323.223
341.188
348.924
354.477
360.367
366.414
371.538
375.201
377.615
379.2
380.284
381.069
381.677
382.176
382.603
382.96
383.231
383.396
383.431
383.281
382.914
382.471
382.202
382.318
383.182
385.395
389.485
396.941
407.669
420.28
433.708
447.05
460.822
481.876
532.227
322.845
340.701
348.46
354.079
360.116
366.379
371.709
375.518
378.021
379.657
380.771
381.571
382.178
382.663
383.063
383.389
383.637
383.796
383.849
383.751
383.447
383.021
382.758
383.013
384.382
387.7
392.792
400.244
410.981
423.348
436.263
449.163
462.977
484.657
535.265
322.543
340.212
347.945
353.621
359.814
366.33
371.916
375.898
378.487
380.157
381.28
382.079
382.677
383.147
383.526
383.829
384.057
384.205
384.262
384.195
383.948
383.554
383.294
383.666
385.55
390.259
397.462
405.53
416.243
428.362
440.464
452.577
466.276
488.522
538.678
322.14
339.46
347.028
352.6
358.749
365.431
371.425
375.837
378.722
380.549
381.74
382.558
383.153
383.609
383.969
384.253
384.469
384.613
384.68
384.648
384.467
384.125
383.832
384.12
386.012
391.34
400.961
411.293
421.49
433.432
445.251
456.859
470.238
492.324
541.001
321.492
338.49
345.87
351.193
356.971
363.435
369.714
374.776
378.293
380.554
381.993
382.938
383.591
384.064
384.419
384.691
384.894
385.032
385.107
385.104
384.99
384.728
384.414
384.455
385.731
390.121
400.136
414.322
425.959
436.745
448.193
459.842
473.051
494.53
541.637
320.699
337.737
345.161
350.323
355.643
361.453
367.398
372.786
376.998
379.912
381.804
383.027
383.839
384.399
384.8
385.092
385.303
385.45
385.537
385.564
385.511
385.344
385.074
384.914
385.427
387.958
395.351
410.211
427.427
438.936
449.405
460.501
473.516
494.496
540.731
320.342
338.025
345.914
351.333
356.639
361.792
366.681
371.405
375.66
379.007
381.353
382.908
383.936
384.632
385.114
385.455
385.695
385.86
385.967
386.02
386.015
385.934
385.762
385.58
385.659
386.692
390.56
401.054
420.221
438.615
449.961
460.303
472.553
492.754
538.56
320.888
339.606
348.27
354.449
360.453
365.357
369.03
372.29
375.568
378.614
381.049
382.79
383.98
384.794
385.361
385.762
386.045
386.243
386.377
386.46
386.497
386.482
386.408
386.313
386.312
386.663
388.189
393.329
406.762
429.058
446.828
458.674
470.346
489.411
535.414
322.578
342.192
351.694
359.008
366.166
370.992
373.677
375.538
377.421
379.496
381.471
383.066
384.235
385.066
385.658
386.086
386.395
386.618
386.777
386.888
386.959
386.995
387.001
387.018
387.129
387.397
388.043
390.062
396.55
413.163
436.392
453.092
466.345
485.296
532.554
325.125
345.08
355.397
364.066
372.145
376.484
378.319
379.291
380.192
381.314
382.595
383.797
384.771
385.509
386.058
386.466
386.771
387
387.173
387.304
387.404
387.479
387.547
387.665
387.949
388.421
389.044
390.115
393.058
402.505
423.848
445.745
462.32
483.064
531.875
327.369
347.208
358.043
367.832
376.351
380.196
381.564
382.168
382.637
383.217
383.963
384.768
385.497
386.092
386.558
386.919
387.198
387.416
387.589
387.729
387.848
387.955
388.076
388.291
388.775
389.59
390.598
391.834
394.081
400.521
418.092
442.45
461.416
484.047
533.765
327.601
347.218
357.5
367.09
376.51
381.31
383.147
383.9
384.32
384.696
385.15
385.679
386.209
386.678
387.067
387.381
387.633
387.837
388.006
388.151
388.283
388.415
388.58
388.884
389.564
390.785
392.404
394.369
397.362
404.044
420.221
444.516
463.642
486.678
536.329
325.567
344.926
353.857
361.936
372.595
380.092
383.442
384.811
385.442
385.822
386.152
386.51
386.889
387.251
387.57
387.84
388.066
388.257
388.422
388.57
388.712
388.864
389.061
389.421
390.232
391.801
394.101
397.075
401.403
409.499
425.749
448.526
466.498
488.799
537.686
323.518
342.79
351.277
358.31
368.469
378.099
383.158
385.292
386.23
386.714
387.029
387.3
387.571
387.838
388.087
388.31
388.506
388.679
388.837
388.986
389.136
389.302
389.52
389.899
390.727
392.436
395.228
399.146
404.801
414.247
430.609
451.43
468.085
489.367
537.525
323.542
343.137
352.096
359.172
368.048
377.541
383.34
385.908
387.021
387.567
387.883
388.108
388.304
388.49
388.669
388.837
388.994
389.141
389.283
389.426
389.579
389.758
389.997
390.386
391.166
392.788
395.68
400.112
406.671
416.981
433.127
452.255
468.017
488.607
536.455
324.405
343.666
352.411
359.294
367.446
376.277
382.89
386.231
387.685
388.343
388.682
388.887
389.038
389.169
389.293
389.413
389.532
389.65
389.772
389.904
390.056
390.25
390.523
390.954
391.71
393.171
395.86
400.281
407.133
417.746
433.422
451.321
466.692
487.11
535.06
323.384
341.912
350.153
356.271
363.187
371.242
379.258
384.766
387.54
388.754
389.295
389.564
389.72
389.83
389.922
390.01
390.1
390.194
390.298
390.42
390.575
390.794
391.133
391.676
392.514
393.898
396.33
400.445
407.098
417.545
432.634
449.706
465.032
485.701
533.991
321.742
341.155
349.995
356.018
361.828
367.765
374.51
381.285
386.031
388.455
389.528
390.017
390.264
390.408
390.506
390.587
390.663
390.743
390.836
390.954
391.121
391.39
391.859
392.635
393.706
395.191
397.531
401.41
407.784
417.889
432.319
448.649
463.965
485.065
533.798
323.024
344.56
354.442
361.356
367.728
372.286
375.668
379.871
384.582
387.896
389.564
390.325
390.694
390.895
391.02
391.112
391.194
391.277
391.369
391.492
391.687
392.051
392.771
393.975
395.444
397.194
399.66
403.556
409.907
419.872
433.71
449.161
464.258
485.742
534.86
326.487
348.516
358.522
366.24
374.095
379.172
381.331
382.67
385.039
387.878
389.743
390.661
391.104
391.342
391.49
391.599
391.692
391.781
391.88
392.019
392.266
392.792
393.929
395.83
397.899
400.061
402.885
407.111
413.752
423.772
437.001
451.415
466.141
487.962
537.174
327.884
348.659
358.217
366.13
374.91
381.364
384.43
385.672
386.58
388.222
389.941
390.985
391.511
391.787
391.952
392.065
392.158
392.247
392.351
392.509
392.824
393.555
395.22
398.084
401.054
403.713
407.075
411.887
418.986
428.998
441.433
454.742
469.034
491.063
539.93
326.328
346.064
355.198
362.738
371.521
379.295
383.973
386.249
387.405
388.362
389.708
390.962
391.727
392.127
392.347
392.483
392.58
392.666
392.768
392.933
393.278
394.121
396.16
400.04
404.532
407.883
411.631
416.975
424.454
434.229
445.77
458.147
472.105
494.266
542.413
324.344
343.654
352.492
359.375
367.455
375.921
382.19
385.667
387.407
388.391
389.256
390.389
391.485
392.202
392.59
392.805
392.938
393.036
393.132
393.273
393.563
394.295
396.211
400.463
406.875
412.297
416.424
421.945
429.657
439.199
449.868
461.35
474.85
496.785
543.872
323.18
342.515
351.444
357.978
365.193
373.332
380.525
385.187
387.614
388.798
389.463
390.049
390.883
391.837
392.552
392.966
393.2
393.346
393.454
393.569
393.764
394.237
395.541
398.915
405.669
414.237
420.563
425.966
433.192
442.414
452.679
463.649
476.659
497.972
544.025
323.152
343.379
352.865
359.566
366.283
373.248
379.873
384.963
388.036
389.598
390.344
390.732
391.027
391.496
392.208
392.872
393.303
393.558
393.723
393.85
393.989
394.248
394.926
396.854
401.718
410.791
421.342
429.079
435.979
444.349
454.121
464.796
477.418
498.027
543.314
325.33
347.042
357.074
364.114
370.695
376.496
381.394
385.437
388.366
390.161
391.13
391.624
391.879
392.035
392.249
392.687
393.227
393.642
393.911
394.096
394.245
394.414
394.733
395.584
398.035
404.152
415.23
427.683
436.906
445.18
454.317
464.618
476.869
496.778
541.729
329.463
352.081
362.1
369.089
375.349
380.448
384.21
387.009
389.153
390.696
391.693
392.281
392.61
392.792
392.899
393.018
393.282
393.677
394.036
394.3
394.501
394.677
394.886
395.276
396.306
399.271
406.656
419.825
433.879
444.392
453.784
463.794
475.686
495.077
539.997
332.597
355.354
364.91
371.281
376.688
381.171
384.759
387.54
389.654
391.208
392.269
392.93
393.311
393.517
393.625
393.688
393.773
393.968
394.256
394.538
394.773
394.974
395.169
395.411
395.865
397.082
400.676
409.779
425.341
440.229
451.772
462.313
474.071
493.058
538.154
333.661
356.621
366.008
372.033
376.882
380.683
383.751
386.393
388.714
390.677
392.198
393.246
393.883
394.226
394.388
394.456
394.502
394.597
394.769
394.983
395.197
395.404
395.616
395.855
396.179
396.78
398.361
403.101
414.933
432.315
447.488
459.831
472.046
490.986
536.552
334.164
357.189
366.751
373.19
378.495
382.217
384.595
386.296
387.839
389.442
391.071
392.559
393.745
394.567
395.059
395.312
395.433
395.512
395.6
395.713
395.85
396.007
396.188
396.408
396.701
397.163
398.105
400.645
408.096
423.814
441.725
456.66
469.986
489.254
535.442
332.257
354.38
364.08
371.232
377.829
382.636
385.485
387.02
387.882
388.541
389.307
390.328
391.58
392.919
394.159
395.144
395.798
396.164
396.362
396.498
396.631
396.788
396.983
397.225
397.535
397.955
398.627
400.128
404.728
417.177
435.919
453.357
468.058
488.04
535.124
327.543
348.063
358.043
365.98
374.299
381.083
385.469
388.007
389.368
389.977
390.128
390.085
390.081
390.318
390.975
392.131
393.625
395.052
396.065
396.654
396.995
397.245
397.496
397.813
398.256
398.905
399.895
401.546
405.216
415.102
433.039
451.836
467.514
488.187
535.999
324.24
343.641
353.589
361.803
371.134
379.408
385.023
388.426
390.541
391.939
392.823
393.228
393.236
393.012
392.704
392.433
392.448
393.171
394.536
395.873
396.802
397.395
397.827
398.239
398.744
399.435
400.456
402.297
406.234
415.46
432.518
451.568
467.537
488.523
536.904
322.382
341.988
351.881
359.515
367.985
376.414
382.884
387.003
389.49
391.115
392.359
393.423
394.269
394.789
394.978
394.926
394.719
394.472
394.56
395.321
396.388
397.327
398.093
398.828
399.744
401.064
402.772
405.072
409.523
419.204
435.77
453.8
469.378
490.639
539.142
323.554
345.676
355.893
362.233
367.795
373.892
380.119
385.176
388.611
390.749
392.092
393.037
393.823
394.522
395.061
395.372
395.479
395.45
395.403
395.616
396.239
397.042
397.83
398.639
399.695
401.433
404.199
408.006
413.799
424.21
440.27
456.826
471.737
493.018
541.132
329.659
355.624
366.453
371.948
374.768
376.596
379.233
382.896
386.625
389.645
391.787
393.268
394.359
395.225
395.906
396.363
396.608
396.752
396.934
397.253
397.735
398.341
399.053