/*--------------------------------*- C++ -*----------------------------------*\
| =========                 |                                                 |
| \\      /  F ield         | OpenFOAM: The Open Source CFD Toolbox           |
|  \\    /   O peration     | Version:  v1912                                 |
|   \\  /    A nd           | Website:  www.openfoam.com                      |
|    \\/     M anipulation  |                                                 |
\*---------------------------------------------------------------------------*/
FoamFile
{
    version     2.0;
    format      ascii;
    class       volScalarField;
    location    "206/oil";
    object      wallHeatFlux;
}
// * * * * * * * * * * * * * * * * * * * * * * * * * * * * * * * * * * * * * //

dimensions      [1 0 -3 0 0 0 0];


internalField   uniform 0;

boundaryField
{
    maxY
    {
        type            calculated;
        value           uniform 0;
    }
    minX
    {
        type            calculated;
        value           uniform 0;
    }
    maxX
    {
        type            calculated;
        value           uniform 0;
    }
    minY
    {
        type            calculated;
        value           uniform 0;
    }
    minZ
    {
        type            calculated;
        value           uniform 0;
    }
    maxZ
    {
        type            calculated;
        value           uniform 0;
    }
    oil_to_sphere
    {
        type            calculated;
        value           nonuniform List<scalar> 
1536
(
4037.46
3777.93
3776.47
3293.19
3272.58
3761.18
3554.31
3634.54
3603.18
3330.08
3142.86
3363.79
3597.3
3378.85
3073
3522.54
3763.38
3789.1
3507.75
3584.57
3697.66
3605.62
3626.58
3519.91
3546.55
3532.65
3542.42
3487.35
3750.86
3618.53
3828.74
3778.45
3789.21
3522.13
3538.69
3487.22
3509.12
3431.44
3482.48
3539.16
3470.76
3510.51
3594.56
3651.52
3716.68
3536.01
3706.41
3635.48
3088.12
3533.46
3673.63
3607.97
3629.38
3516.7
3741.94
3923.01
3621.62
3585.53
3695.61
3667.03
3589.97
3593.83
3586.36
3510.51
3538.26
3577.63
3583.4
3681.17
3675.81
3737.69
3509.24
3287.71
3366.51
3533.68
3530.46
3939.13
3791.31
3442.93
3523.34
3782.28
3700.98
3666.17
3287.97
3279.63
3749.31
3990.18
3230.78
3561.34
3669.15
3666.82
3609.61
3495.44
3492.88
3503.83
3531.48
3648.19
3702.53
3718.52
3808.73
3660.71
3703.86
3504.86
4045.11
3677.87
3355.96
3526.77
3545.91
3313.33
3314.01
4055.2
3787.88
3636.39
3592.39
3630.22
3252.6
3284.97
3204.3
3874.99
4016.36
3805.34
3615.3
3629.71
3479.59
3698.09
3823.65
3660.42
3610.29
3461.61
3713.98
3689.84
3579.72
3679.83
3737.61
3545.76
3564.55
3748.8
3630.87
3785.4
3467.36
3765.74
3604.25
3688.12
3690.24
3597.74
3566.43
3592.31
3645.19
3900.32
3607.19
4055.65
3724.43
3804.41
3620.74
3636.57
3523.67
3677.12
3742.5
3721.51
4107.14
3853.38
3786.84
3918.92
3384.71
3427.45
3499.17
3492.01
3729.94
3869.43
3801.21
3944.72
3491.01
3508
3448.43
3707.43
3632.95
3650.39
3967.57
3457.73
3422.89
3987.37
3479.63
3428.48
3421.37
3444.57
3703.95
3992.31
3856.51
3477.93
3399.03
3785.42
3417.88
3739.94
3735.28
3852.28
3361.71
3026.28
3844.75
3878.23
3567.95
3524.8
3611.44
3554.35
3792.7
3842.74
3721.94
3668.15
3518.54
3870.12
3814.91
3673.45
3459.35
3537.31
3526.92
3575.05
3714.19
3938.39
3438.67
3373.66
3379.9
2995.63
3768.74
3706.3
3663.1
3612.15
3625.49
3876.69
3740.14
3552.72
3771.81
3337.47
3490.25
3042.72
3592.46
3769.16
3846.07
3823.78
3765.36
3709.27
3801.37
3361.44
3397.74
3480.08
3881.51
3451.55
3050.25
3210.04
3704.82
3632.77
3985.47
4128.11
3636.2
3284.25
2998.98
3666.36
3839.46
3503.83
3511.91
3235.27
3493.99
3874.57
4007.34
3600.34
3514.62
3903.44
3866.6
3533.09
3340.46
3585.64
3946.61
3882.56
3710.05
3737.48
3834.06
3425.67
3521.25
3849.67
3737.14
3801.98
3597.76
3775.21
3932.31
3725.3
3702.96
3893.59
3513.47
3506.85
3537.06
3476.17
3497.19
3857.16
3950.73
3425.43
3558.87
3545.67
3560.3
3478.02
3630.69
3599.47
3443.78
3242.31
3489.27
3366.2
3466.39
3994.75
3900.6
3898.18
4113.47
3403.61
3422.83
3641.1
4054.17
4037.54
3495.43
3603.19
3480.37
3732.05
3520.78
3699.43
3721.39
3802.57
3741.05
3548.16
3755.37
3484.31
3837.04
3871.56
3775.38
3756.53
3442.86
3961.9
3961.69
3746.4
3353.55
3511.44
3562.92
3723.25
3696.73
3729.27
3435.1
3833.06
3871.73
3798.91
3896.15
3681.28
3653.43
3592.25
3400.01
3661.79
3732.66
3395.59
3374.42
3421.6
4033.71
3833.12
3899.88
3689.63
3651.41
3864.72
3381.22
3978.17
3798.46
3651.31
3649.55
3367.24
3807.67
3825.97
3456.89
3650.77
3582.97
3517.75
3735.64
3828.57
3594.78
3537.49
3411.4
3937.77
3837.51
3374.85
3868.75
3837.89
3770.7
3935.05
3647.24
3748.61
3336.35
3358.7
3722.5
4090.19
3783.74
3994.46
3693.91
3551.23
3807.68
3428.75
3491.54
3709.09
3823.81
3740.07
3689.74
3442.15
3427.74
3852.65
3866.87
3838.78
3647.64
3502.88
3702.93
3755.58
3815.72
3661.36
3570.89
3460.24
3636.63
3419.29
3314.92
3502.4
3459.89
3637.87
3327.21
3552.06
3978.31
3546.52
3543.35
3823.56
3817.27
3725.78
3584.79
3388.01
3780.48
3898.49
3715.47
3668.87
3783.23
3608.27
3630.43
3686.06
3286.68
3733.81
3869.34
3899.8
3809.69
3754.49
3734.45
3662.36
3578.85
3428.25
3620.01
3452.29
3367.26
3474.08
3307.33
4003.04
3968.24
3869.95
4077.11
3457.41
4002.74
3430.23
3480.01
3761.12
3448.67
3423.66
3554.84
3538.34
3977.88
3904.66
3686.03
3707.55
3933.53
3855.6
3658.28
3755.47
3460
3822.92
3349.7
3897.7
3283.56
3757.59
3784.87
3812.78
3546.1
3413.77
3577.15
3819.78
3589.44
3333.33
3829.63
3843.87
3904
4073.21
3689.68
3914.15
3400.99
3434.83
3103.66
3201.37
3649.3
3547.94
3518.17
3476.27
4019.02
3478.99
3372.92
3334.26
3578
3363.39
4106.43
3470.58
3488.49
3626.52
3147.25
3226.57
3503.78
3497.18
3590.72
3534.41
3841.57
3808.74
3735.97
3655.25
3311.58
3520.47
3810.47
3425.71
3455.65
3775.7
3936.19
3464.8
3117.5
3397.5
3144.61
3612.09
3542.91
3488.29
3357.06
3131.62
3743.63
3775.23
3694.09
3616.28
3950.59
3749.61
3718.34
3654.07
3440.89
3523.75
3842.14
3741.08
3560.42
3199.08
3663.65
3821.11
3964.35
3672.83
3538.53
3954.67
3655.57
3916.21
3454.58
3529.29
3420.13
3544.2
3661.47
3928.97
3507
3470.75
3438.07
3590.08
4103.48
3383.35
3523.2
3369.81
3640.7
3660.76
3849.98
3943.64
3357
3351.5
3945.6
3988.7
3256.87
3945.06
3867.73
3784.15
3870.53
3726.59
3646.2
3652.43
3939.21
3660.55
3724.74
3638.16
3817.35
3679.21
3618.11
3601.87
3392.49
3777.87
3630.7
3815.37
3755.5
3764.49
3740.42
3664.64
3361.92
3854.76
3856.53
3734.52
3615.28
3684.27
4046.04
3370.66
3448.89
3397.24
3692.28
3511.9
4046.1
3551.58
3579.65
3638.59
3118.27
3146.39
3512.2
3505.98
3640.91
3418.36
3467.19
3707.21
3516.51
3943.24
3442.77
4026.73
3591.85
3686.74
3081.16
3139.48
3096.44
3492.4
3782.71
3528.06
3490.18
3142.58
3632.24
3811.82
3635.81
4199.87
3460.74
3839.82
3759.42
3784.59
3871.76
3869.91
3793.34
3630.3
3575.03
3620.42
3789
3587.45
3696.43
3678.93
3694.87
3813.28
3742.83
3779.87
3399.13
3453.04
3021.07
3233.98
3305.53
2867.17
3512.34
3535.65
3586.93
3618.7
3310.38
3397.58
3560
3885.03
3869
3555.57
3339.42
3599.45
3811.55
3752.4
3624.55
3327.28
3460.31
3737.06
3695.39
3620.16
3522.22
3760.65
3770.46
3937.7
3769.14
3662.94
3535
3462.25
3383.07
3537.38
3623.6
4061.16
3648.59
4001.84
3510.04
4088.72
3508.02
3594.06
3415.16
3445.37
3535.56
3393.15
3582.46
3325.49
3515.81
3846.24
3552.3
3375.02
3958.6
3757.78
3701.43
3612.75
3953.17
4220.5
3245.87
3745.34
3706.53
3725.37
3395.44
3612.77
3480.38
3698.11
3789.87
3850.3
3444.08
3738.38
3654.05
3760.45
3746.97
3713.69
3565.92
3596.01
3525.13
3339.95
3311.86
3424.91
3910.59
3518.1
3377.06
3524.7
3847.67
3576.51
3912.89
3814.24
3715.73
3662.79
3713.67
3966.39
3424.69
3738.2
3867.27
3883.93
3662.48
3473.88
3577.8
3716.76
3892.3
3410.56
3598.7
3657.87
3839.31
3705.68
3718.5
3921.88
3413.14
3487.14
3453.73
3970.93
3849.66
3649.18
3838.11
3487.27
3520.01
3836.98
3722.81
3934.92
3434.05
3792.46
3827.55
3667.95
3699.19
3779.46
3448.19
3294.03
3631.19
3720.89
3996.76
3600.75
3506.78
3617.29
3711.24
3790.59
3657.47
3482.58
3601.21
3821.98
3437.81
3471.61
3598.34
3511.95
3685.53
3660.99
3878.61
3728.19
3804.87
3526.55
3623.69
3684.53
3609.27
3568.56
3535.94
3529.09
3421.14
3757.32
3678.43
3674.19
3719.09
3350.23
3545.98
3963.7
3965.82
3479.08
3843.15
3710.49
3749.61
3530.79
3890.85
3867.05
3426.11
3574.18
3543.1
3533.84
3353.81
3396.87
3542.37
3867.46
4074.02
3502.11
3778.98
3756.05
3702.22
3587.65
3686.41
3879.86
3699.54
3435.27
3548.01
3526.16
3547.63
3727.3
3765.33
3760.01
3770.58
3776.07
3486.45
3781.47
3556.35
3751.2
3134.32
3721.04
3900.02
3567.67
3246.57
3643.55
3601.01
3990.77
3459.21
3782.22
3620.79
3291.04
3956.39
3375.97
3594.34
3631.54
3352.72
3845.21
3683.18
3591.46
3669.63
3681.84
3587.66
4002.82
3386.97
3539.23
3078.75
3594.06
3564.65
3640.08
3842.92
4227.14
3341.27
3545.8
4136.16
3379.96
3765.61
3476.85
3749.46
3238.31
3464.72
4127.21
3274.04
4090.45
3315.39
3981.48
3304.93
3455.51
3118.99
3397.02
4089.44
3172.96
3630.86
3275.79
3939.05
4092.29
3188.57
3600.01
3495.43
3434.6
3423.03
3539.04
3634.74
3635.59
3739.88
3613.82
3932.77
4155.73
3185.44
3666.67
3705.99
3633.24
3664.48
3603.44
3578.77
3601.23
3799.93
3612.37
3801.35
3538.25
3681.17
3903.57
3563.89
3729.7
3842.1
3534.23
3681.33
3618.23
3738.27
3593.1
3660.18
3573.02
3827.98
3550.19
3696.75
3316.36
3953.05
3197.76
3727.63
3825.88
3943.32
3462.75
3662.14
3612.24
3657.24
3656.99
3614.01
3797.52
3431.07
3015.15
3626.56
3251.25
3863.62
3469.79
3630.83
3790.5
3042.42
3933.95
3442.3
3133.97
3477.93
3763.39
3744.75
3647.78
3171.56
3650.75
3687.6
3499.75
3468.78
3869.51
3835.04
3526.15
3641.88
3870.54
3181.49
3812.81
3464.6
3734.62
3206.65
4083.1
4021.49
3820.58
3644.82
3585.28
3768.87
3570.75
3167.81
3411.29
3772.41
3476.03
3743.76
3242.24
3859.4
3751.01
2910.2
3653.66
3692.01
3061
3933.38
3307.81
3864.28
3954.03
3798.72
3124.55
3656.64
3582.71
3654.37
3665.77
3732.63
3181.81
3541.95
3478
3480.87
3853.96
3633.18
3717.76
3745.02
3736.1
3579.07
3659.93
3592.07
3694.79
3866.07
3520.31
3568.58
3504.58
3669.81
3824.26
3518.82
3557.2
3536.53
3635.54
3479.3
3494.9
3557.4
3575.6
3656.27
3563.89
3933.75
3807.25
3259.02
3281.75
3917.24
2864.24
3776.03
3686.83
3484.08
3579.28
3939.42
3047.61
3847.88
3711.85
3146.22
3544.32
3507.3
3651.39
3021.77
3891.84
3732.39
3044.47
3870.6
3890.17
3209.3
3944.48
3834.72
3216.27
3508.8
3483.15
3055.24
3636.44
3664.86
3432.54
3463.41
3474.09
2946.13
3453.44
3065.39
2919.47
3836.07
3493.88
4086.93
3534.48
3177.58
3890.24
3619.26
3095.93
3522.71
3513.44
3090.39
3275.89
3926.93
2788.35
3414.67
3415.44
2875.9
3854.03
3805.32
3635.1
3551.99
3513.66
3412.6
2983.52
3642.41
3552.76
3566.73
3636.18
3122.68
3784.86
3518.73
3607.71
3494.07
3598.49
3654.89
3403.29
3145.76
3550.02
3693.25
3512.31
3554.12
3620.83
3461.98
3566.8
3117.2
3530.15
3723.14
3497.72
3580.95
3469.16
3156.32
3921.65
3918.69
3870
3963.75
3205.47
3061.08
3541.21
3810.97
3663.36
3762.66
3800.77
3414.82
3359.81
3092.56
3204.03
3455.81
3610.78
3595.15
3584.2
3370.49
3833.37
3703.81
3220.9
3437.26
3405.81
3795.16
3464.26
2986.1
3656.68
3622.39
3847.01
3103.86
3520.23
3681.89
3534.22
3575.12
3755.95
3606.6
3416.76
3977.26
2898.81
3361.65
3605.74
3465.92
3545.56
3951.17
3716.01
3637.22
3337.29
3908.17
3534.37
3655.81
3799.07
3849.11
3827.92
3847.16
3936.57
3987.85
3921.48
3922.22
3665.71
3814.35
3518.74
3577.37
3370.29
3293.63
2944.78
3960.73
3943.83
3871.02
3562.76
3656.64
3641.12
3472.13
3673.3
3808.44
3429.09
3589.54
3743.59
3510.15
3524.85
3510.59
3559.8
3456.4
3551.25
3531.61
3206.51
3679.08
3436.87
3586.42
3086.39
3974.17
3598.8
3486.6
3449.74
3232.75
3628.26
3494.12
3054.87
3338.48
3591.01
3292.78
3342.33
3995.26
4024.34
3535.95
3537.1
3776.81
3943.76
3047.29
3493.8
3458.78
3545.99
3545.4
3565.46
3602.31
3361.71
3156.2
3907.98
3540.8
3312.35
3356.5
3531.49
3631.16
3240.11
3594.66
3479.05
3518.16
3947.72
3321.53
3172.1
3550.8
3501.52
3460.75
3163.3
3859.91
3534.01
3516.83
3531.49
3057.04
3543.99
3544.64
3182.49
3536.36
3335.88
3698.41
3881.61
3477.01
3807
3682.81
3480.03
3486.1
3552.77
3166.85
3697.36
3733.08
3509.56
3107.06
3400.91
3580.25
3596.74
3477.5
3142.95
3488.27
3847
3692.92
3499.16
3989.01
3315.83
3815.08
3063.84
3306.86
3839.14
3064.06
3835.06
3503.95
3630.05
3519.95
4023.64
3373.31
3633.2
3943.11
3914.97
3251.72
3886.43
3950.83
2879.85
3617.53
3495.78
3077.27
3749.9
3490.19
3518.86
3520.11
3605.24
3568.24
3508.76
3490.66
3059.88
3737.78
3636.05
3615.23
3652.24
3561.69
3477.08
3403.75
3794.08
2993.71
3451.7
3478.87
3025.13
3824.72
3968.73
3626.76
3873.44
3916.28
3455.75
3529.09
3709.72
3871.19
3460.13
3742.47
3355.69
3090.14
3793.68
3418.64
3845.99
3996.56
3939.35
3104.59
3819.24
3655
3423.25
3506.45
3548.33
3494.83
3113.7
3891.77
3127.75
3883.11
3558.14
3356.62
3335.6
3585.7
3746.95
3936.28
3618.1
4053.64
3796.51
3833.45
3072.18
3813.09
3760.29
3852.6
3469.99
3426.46
3000.11
3590.51
4035.33
3883.82
3146.29
3372.08
3147.22
3468.77
3601.44
3346.95
4192.01
3521.99
3370.74
3162.34
3691.35
3434.49
3015.36
3589.3
3492.78
3496.14
3506.98
3510.82
3167.84
3347.47
3080.23
3504.05
3804.58
3701.23
3893.2
3854.73
3452.5
3399.65
3066.74
3469.96
3771.58
3908.44
3794.45
3795.83
3312.2
3022.02
3377.7
2981.2
3776.05
3799.3
3403.31
3824.97
3780.63
3884.47
3693.72
3631.39
3622.93
3452.28
3042.85
3392.38
3110.28
3356.89
3507.2
3476.41
3203.67
3102.33
3736.5
4034.4
4000.08
3940.88
3616.78
3722.42
3714.1
3600.3
3508.55
3594.66
3417.93
3558.76
3560.9
3102.36
3789.04
3543.38
3374.84
3197.03
3498.06
3609.6
3606.59
3479.05
3199.94
3927.24
3680.88
3496.87
3981.72
3424.62
3082.34
3725.3
3564.74
3563.03
3561.27
3481.62
2984.07
3590.69
3555.35
3131.99
3932.76
3532.43
2800.64
3505.75
3597.47
3615.16
3478.95
3114
3447.8
3461.43
3288.65
3571.29
3063.43
3586.53
3571.8
3263.35
3992.52
3552.94
3183.26
4059.17
3593.64
3594.8
3191.53
3570.32
3128.3
)
;
    }
}


// ************************************************************************* //
