/*--------------------------------*- C++ -*----------------------------------*\
| =========                 |                                                 |
| \\      /  F ield         | OpenFOAM: The Open Source CFD Toolbox           |
|  \\    /   O peration     | Version:  v1906                                 |
|   \\  /    A nd           | Web:      www.OpenFOAM.com                      |
|    \\/     M anipulation  |                                                 |
\*---------------------------------------------------------------------------*/
FoamFile
{
    version     2.0;
    format      ascii;
    class       volScalarField;
    location    "28";
    object      omega;
}
// * * * * * * * * * * * * * * * * * * * * * * * * * * * * * * * * * * * * * //

dimensions      [0 0 -1 0 0 0 0];


internalField   nonuniform List<scalar> 
78750
(
274.491
8.30172
10.4835
11.9858
13.6477
15.3973
16.7619
18.1909
19.0829
20.0921
20.6221
21.37
21.7221
22.3636
22.6078
23.1968
23.3218
23.9246
23.9408
24.6343
24.5424
25.3471
25.1388
26.0476
25.6825
26.6398
26.0525
27.0186
26.2554
27.6028
27.23
29.8495
29.8238
32.1066
402.315
405.875
13.6009
15.2653
15.8788
17.7198
16.4059
17.6919
15.6125
17.1241
15.9118
16.3563
14.9594
15.1931
15.0429
14.7564
14.5193
14.2538
14.2619
14.1655
14.2794
14.2622
14.444
14.5126
14.7394
14.9026
15.1824
15.4527
15.885
16.3305
17.0147
17.7267
18.718
19.8584
19.0125
645.116
463.64
21.4426
22.1516
20.7693
19.4454
17.0251
15.0052
13.7099
12.6559
12.1229
11.1941
9.80176
10.5344
12.6791
13.011
12.2049
11.9718
12.2679
12.659
13.1006
13.4822
13.9022
14.2342
14.6348
14.9655
15.3596
15.7466
16.1244
16.6595
17.076
17.7687
18.1144
18.6981
18.8605
632.938
517.08
25.6826
20.0446
17.7817
15.6809
13.9137
12.804
12.6264
12.9892
13.0183
12.8192
13.8234
15.3978
15.02
13.1434
12.0679
12.0346
12.3064
12.6105
12.978
13.4042
13.8464
14.2735
14.7045
15.1068
15.5218
15.8916
16.2594
16.6141
16.7988
17.2951
17.4172
18.1139
16.889
628.576
492.36
19.7351
12.5723
13.0983
13.2399
13.8667
13.7221
13.3217
12.7117
12.2383
11.884
11.8515
11.9677
11.5278
10.7633
10.3292
10.2174
10.2986
10.4814
10.6559
10.8433
11.0888
11.4074
11.8011
12.2524
12.7682
13.3034
13.8751
14.4389
14.7657
15.3711
14.6918
12.8406
9.23877
640.912
475.443
23.7191
15.9766
15.2982
16.1354
16.3213
16.3327
16.1797
15.9165
15.5872
15.1223
14.4524
13.8323
13.3276
12.6993
11.9015
11.1928
10.788
10.7193
10.8128
10.9358
11.0651
11.2134
11.3936
11.6189
11.9217
12.3498
12.9676
13.7794
14.6547
15.4932
15.303
16.5435
20.1353
660.604
459.776
16.4239
12.7441
16.4112
16.4182
15.6263
14.2986
12.5412
10.6474
9.34491
9.25108
9.59295
9.7075
9.88615
10.0777
10.1521
10.1864
10.2751
10.435
10.6383
10.8595
11.0817
11.2897
11.4639
11.579
11.6284
11.6678
11.8257
12.3204
13.4147
15.3669
18.3774
22.5351
26.5741
666.849
450.122
19.0276
18.1823
16.9307
16.1601
16.2953
16.7434
17.1033
17.2243
17.0492
16.5074
15.3623
13.3309
10.8433
9.03133
8.71708
9.30514
9.95403
10.4462
10.8105
11.1056
11.3882
11.6981
12.0471
12.4005
12.6612
12.7073
12.543
12.4156
13.0256
15.5064
19.8584
23.7996
26.9406
655.751
413.713
12.4552
12.5786
13.4715
14.489
15.3188
15.9854
16.4368
16.7021
16.8682
17.0275
17.1918
17.0156
15.8748
13.754
11.4874
9.8682
9.09714
9.05877
9.49417
10.0551
10.5483
10.9567
11.3492
11.8088
12.3673
12.9352
13.3366
13.5381
13.9695
15.6226
18.8314
21.6745
23.8678
638.659
419.432
15.8816
17.1767
17.7585
17.9961
18.03
17.9118
17.6742
17.2903
16.7426
16.1251
15.5443
14.9758
14.1727
12.7305
10.9565
9.73116
9.30051
9.24434
9.40004
9.72462
10.1237
10.5333
10.9456
11.3948
11.9314
12.5684
13.2148
13.7096
14.0787
14.8675
16.6117
18.3868
19.9312
626.147
424.949
16.5569
16.984
17.2794
17.5437
17.7414
17.822
17.7624
17.5675
17.2304
16.7252
16.0814
15.3825
14.5832
13.4202
11.6705
9.72571
8.49108
8.58088
9.14067
9.58045
9.88382
10.1398
10.429
10.8149
11.3569
12.1022
13.0432
14.0712
14.9863
15.6669
16.3885
17.2678
18.261
621.385
422.271
15.9302
16.6276
17.0774
17.4417
17.7154
17.862
17.8343
17.6059
17.1858
16.6081
15.9285
15.2458
14.6388
14.0301
13.1788
11.8262
10.1104
8.58648
7.80436
7.88695
8.26291
8.55243
8.66627
8.67234
8.75087
9.12809
10.0333
11.5211
13.4019
15.2791
16.4134
16.8872
17.4127
618.295
423.914
16.0802
16.4848
16.7703
17.0892
17.4343
17.7401
17.9252
17.9364
17.7548
17.3794
16.8154
16.0888
15.2943
14.5715
13.9678
13.3862
12.6513
11.6237
10.3771
9.2501
8.53449
8.21806
8.04898
7.81733
7.39179
6.74891
6.14385
6.18
7.58181
10.5108
13.7999
15.6287
16.6782
618.341
421.898
15.3573
15.5882
15.7282
15.9616
16.3499
16.8591
17.3583
17.711
17.8468
17.7566
17.4602
16.9849
16.3618
15.6398
14.8895
14.1698
13.4746
12.7205
11.7945
10.6829
9.57924
8.70616
8.12894
7.72697
7.32377
6.74423
5.85276
4.67353
4.15988
4.92983
9.56453
13.1269
15.4809
619.043
423.15
15.2568
15.136
14.9607
14.8699
14.9783
15.3982
16.1183
16.9478
17.6411
18.0584
18.1765
18.0124
17.5853
16.9369
16.1534
15.342
14.57
13.8154
12.9705
11.9039
10.6643
9.51787
8.62735
7.97593
7.43981
6.85874
6.07838
5.00421
3.79181
4.34618
9.34023
13.8914
16.3391
620.954
422.853
15.8844
16.25
16.1557
15.8465
15.3801
14.8894
14.6857
15.0736
15.936
16.8388
17.4778
17.7865
17.8023
17.5547
17.0518
16.335
15.5102
14.6692
13.8038
12.7875
11.4796
10.0439
8.8734
8.14758
7.70854
7.34044
6.89922
6.28851
5.56353
5.47416
8.74211
14.5906
16.6559
619.425
423.668
18.0598
19.4116
19.7263
19.6071
19.1331
18.2352
16.9331
15.7066
15.2652
15.708
16.5133
17.1932
17.5682
17.6417
17.447
17.0036
16.3567
15.5972
14.8048
13.9754
12.9964
11.721
10.2577
8.96628
8.0426
7.40401
6.85454
6.22955
5.45482
4.54958
5.6094
11.8616
15.0488
617.738
422.505
19.2447
21.0968
21.6731
21.8242
21.7127
21.2803
20.3263
18.731
16.9295
15.7156
15.5169
16.0193
16.644
17.0607
17.1934
17.0588
16.6833
16.1154
15.4316
14.6898
13.8794
12.9154
11.7088
10.3958
9.31848
8.61385
8.13781
7.69145
7.17883
6.43163
5.62901
9.34972
13.8282
618.843
423.515
19.359
20.9804
21.5524
21.8056
21.9256
21.957
21.9139
21.6079
20.5987
18.907
17.1906
16.165
16.0084
16.325
16.6475
16.7583
16.6242
16.2743
15.7623
15.141
14.4299
13.5956
12.5488
11.2482
9.86959
8.67017
7.73967
7.02514
6.52062
6.58927
8.82094
12.3711
15.3933
620.205
427.942
19.6672
20.7821
21.0972
21.1108
20.912
20.5603
20.4724
21.1314
21.7868
21.5949
20.508
18.8651
17.3153
16.4543
16.3135
16.4518
16.5135
16.3834
16.0691
15.6068
15.0224
14.3113
13.4303
12.3056
10.9457
9.51342
8.15643
6.89668
5.71744
5.28573
8.41843
13.8256
16.1414
618.636
444.792
22.609
22.7368
22.6235
22.3721
21.8785
21.0723
20.3084
20.5099
21.4276
21.9761
21.946
21.3909
20.2111
18.5553
17.1568
16.5286
16.4115
16.3682
16.2234
15.9547
15.5676
15.0606
14.419
13.6148
12.6225
11.4617
10.2534
9.15496
8.25574
7.57646
7.84705
12.0945
15.0206
616.376
455.6
22.7648
22.2606
21.9853
21.7405
21.4552
21.1673
21.0211
21.1327
21.4648
21.7706
21.9033
21.8272
21.4795
20.6542
19.1786
17.6746
16.8757
16.5806
16.399
16.181
15.8888
15.5037
15.0052
14.3659
13.5507
12.5173
11.2754
9.90808
8.51072
7.16297
6.53215
9.08027
13.2225
616.306
445.055
20.8597
21.0173
21.0399
20.9382
20.7399
20.565
20.4966
20.4984
20.5974
20.806
21.0107
21.095
20.9983
20.649
19.887
18.6521
17.5549
16.9847
16.6822
16.434
16.1602
15.8228
15.3929
14.8411
14.1265
13.1858
11.9689
10.4744
8.6845
6.46038
6.83562
10.0476
13.9292
618.102
435.295
21.5976
22.2658
22.2808
21.9583
21.2327
20.1254
19.13
18.6269
18.5651
18.7819
19.1029
19.3594
19.4375
19.2709
18.844
18.254
17.7135
17.3305
17.0331
16.7477
16.4333
16.0641
15.6186
15.0713
14.3867
13.5147
12.4016
11.0884
9.55648
8.09456
10.0282
13.511
15.8429
618.24
441.872
22.815
23.2085
23.1852
22.9552
22.4599
21.5877
20.4409
19.3643
18.5595
18.0708
17.8742
17.8839
17.9906
18.1081
18.1728
18.1354
17.99
17.7703
17.509
17.216
16.8866
16.5097
16.071
15.5525
14.9338
14.1908
13.294
12.2209
10.9536
9.49454
9.7417
14.0849
16.0448
616.156
448.076
22.3971
22.4125
22.416
22.4336
22.4915
22.5527
22.4665
22.1059
21.4875
20.7128
19.8986
19.1413
18.4901
17.9695
17.6423
17.5919
17.7069
17.7797
17.7291
17.5632
17.3064
16.9767
16.5816
16.1194
15.5816
14.9549
14.2217
13.3618
12.3502
11.042
9.54765
12.5377
15.0218
615.331
447.465
22.7516
23.0287
23.1245
23.072
22.8592
22.5219
22.1712
21.9307
21.8074
21.6989
21.4945
21.1228
20.5256
19.6014
18.2359
16.8443
16.3001
16.5081
16.8718
17.0983
17.1471
17.0465
16.8239
16.494
16.0609
15.5221
14.8704
14.0956
13.1558
11.7714
10.2354
12.0212
14.74
616.744
440.749
22.2372
23.2543
23.8348
24.201
24.3239
24.1214
23.5176
22.5317
21.3327
20.1651
19.2085
18.4922
17.9216
17.333
16.4827
15.3755
14.9868
15.4424
15.9769
16.3082
16.4658
16.4901
16.3932
16.1774
15.8399
15.3731
14.775
14.0446
13.094
11.7473
11.4365
13.3381
15.5828
617.736
433.948
21.932
23.3576
24.1324
24.7474
25.2867
25.7072
25.8952
25.676
24.8713
23.437
21.5266
19.3835
17.2253
15.2764
14.0536
13.8646
14.1785
14.6731
15.1833
15.5773
15.8129
15.8972
15.8446
15.6645
15.3607
14.9328
14.3823
13.699
12.8167
11.8485
12.3628
14.7252
16.3377
616.84
441.508
23.156
24.0854
24.5512
24.9154
25.2807
25.6786
26.0927
26.4631
26.6852
26.616
26.0975
25.085
23.7153
22.1322
20.3254
18.2641
16.1459
14.4259
13.5513
13.5199
13.9388
14.4101
14.733
14.8643
14.812
14.5909
14.219
13.7122
13.0568
12.2329
12.0218
14.5025
16.0783
615.742
449.15
23.6924
24.2959
24.7568
25.2101
25.651
26.0227
26.2514
26.3173
26.269
26.1581
25.9884
25.7009
25.2059
24.4767
23.5794
22.549
21.3012
19.6392
17.464
15.035
13.0095
12.2236
12.4795
12.9944
13.3843
13.5671
13.5461
13.3443
12.9739
12.371
11.8984
14.0382
15.8365
616.515
445.163
23.1946
24.1048
24.7453
25.381
26.0854
26.8297
27.4947
27.9453
28.1066
27.9825
27.6291
27.1026
26.4163
25.54
24.4648
23.2834
22.1489
21.1424
20.1622
18.9079
16.9729
14.3374
11.9957
11.1791
11.4875
11.9872
12.3415
12.4911
12.4347
12.0879
11.7309
13.8469
15.9395
617.983
449.759
23.7603
24.2876
24.6867
25.1513
25.7791
26.5675
27.4001
28.1356
28.6761
28.9752
29.0315
28.8733
28.5314
28.0087
27.2476
26.131
24.6127
22.909
21.3609
20.1141
19.006
17.6345
15.4173
12.3861
10.29
10.0967
10.6307
11.1462
11.4801
11.59
12.1903
14.3366
16.3215
618.737
458.976
24.1726
24.0613
24.2447
24.6983
25.4115
26.2812
27.1393
27.85
28.345
28.6222
28.712
28.6469
28.45
28.1348
27.6991
27.1059
26.2543
25.0089
23.4056
21.7462
20.2807
18.9752
17.5267
15.4173
12.2099
9.49627
9.18159
9.89023
10.6248
11.2709
12.5511
14.888
16.7054
618.992
446.451
22.1796
22.6677
23.0205
23.3542
23.7449
24.3152
25.1794
26.2947
27.4169
28.2939
28.8328
29.0643
29.0541
28.8598
28.5209
28.0571
27.4608
26.6828
25.6263
24.2244
22.5907
20.9467
19.3441
17.5863
15.1882
11.4556
7.93235
7.47829
8.71374
10.2602
12.3025
15.0815
16.8676
618.993
445.302
23.4523
24.1318
24.3591
24.361
24.1867
23.927
23.853
24.3854
25.6042
27.0326
28.1864
28.9135
29.2682
29.3468
29.2251
28.9476
28.5254
27.956
27.2142
26.2284
24.9334
23.3712
21.7006
19.9893
18.0966
15.578
11.7671
8.56162
8.30367
9.52547
11.6871
14.9088
16.9504
619.899
449.522
24.2388
24.9673
25.3966
25.706
25.8658
25.7807
25.4119
25.0341
25.2618
26.2451
27.4357
28.3656
28.9252
29.1829
29.229
29.1105
28.8309
28.392
27.7968
27.0479
26.1018
24.8781
23.3859
21.7192
19.8845
17.7503
14.8281
10.1835
7.0637
8.73241
11.7387
15.2169
17.364
621.21
450.003
24.0976
24.7306
25.15
25.5675
26.0241
26.4227
26.5511
26.2957
25.9358
26.1089
26.9294
27.9056
28.6555
29.0927
29.273
29.268
29.1114
28.8001
28.3308
27.7034
26.92
25.9638
24.7776
23.3192
21.5827
19.5209
16.9145
13.0052
7.80296
7.6149
11.8691
15.6974
17.7941
621.619
455.708
24.3261
24.3436
24.4118
24.6194
25.0933
25.8738
26.6866
27.1823
27.2687
27.172
27.3602
27.9513
28.6294
29.1344
29.406
29.4803
29.402
29.1853
28.8204
28.3038
27.6334
26.8076
25.8221
24.625
23.1324
21.2615
18.9242
15.8287
11.4825
9.3559
12.1625
15.8116
17.8397
621.053
457.52
23.9145
23.6196
23.4442
23.3432
23.4236
23.9364
24.9378
26.0329
26.868
27.3712
27.6781
28.0706
28.6351
29.1744
29.5327
29.689
29.6773
29.5293
29.2499
28.8282
28.2619
27.5485
26.6852
25.6342
24.3247
22.6828
20.5908
17.7681
13.4263
9.61271
12.8396
16.2665
18.0106
620.135
455.955
24.1161
24.1315
24.1169
24.0202
23.8044
23.5834
23.7313
24.4071
25.3038
26.1133
26.7602
27.3434
28.0275
28.764
29.348
29.6902
29.8168
29.7772
29.6003
29.2879
28.8348
28.2418
27.5047
26.596
25.4735
24.0933
22.3582
20.1111
16.9025
12.0916
11.883
15.8074
17.6511
618.813
459.649
24.5529
24.4794
24.5154
24.5592
24.5326
24.372
24.175
24.2817
24.8496
25.6257
26.3508
26.9869
27.6517
28.425
29.1413
29.6288
29.8739
29.931
29.8439
29.6246
29.2723
28.7917
28.1843
27.4351
26.5199
25.4172
24.0893
22.447
20.3047
17.0993
13.2786
15.0903
16.9842
618.592
457.782
23.9273
23.8862
23.8637
23.7562
23.5228
23.1633
22.7654
22.6567
23.2525
24.4243
25.6371
26.6449
27.5078
28.3524
29.1234
29.6651
29.9522
30.0485
30.0042
29.8292
29.5254
29.0983
28.5567
27.9072
27.1365
26.2215
25.1441
23.8634
22.2299
19.7241
15.5762
15.3498
17.2328
621.091
456.005
24.6094
24.9724
25.0942
24.9745
24.5284
23.6556
22.3978
21.303
21.401
22.9126
24.7902
26.3423
27.5565
28.5628
29.3516
29.8469
30.0904
30.1719
30.1246
29.9492
29.6464
29.2202
28.6785
28.0344
27.2905
26.4225
25.3955
24.1473
22.447
19.8491
16.4947
16.4982
18.2448
623.361
457.63
24.9655
25.3323
25.559
25.6398
25.4493
24.7724
23.4006
21.6752
21.1168
22.7319
25.1076
27.0065
28.352
29.2852
29.8735
30.1947
30.3438
30.3702
30.2811
30.0729
29.7436
29.294
28.7285
28.0575
27.2795
26.3583
25.2247
23.7083
21.419
18.5478
17.1447
17.7129
18.8652
621.96
456.814
24.3917
24.6254
24.8356
25.0195
25.087
24.8436
24.0016
22.4823
21.3675
22.5116
25.1617
27.3748
28.7731
29.6155
30.1214
30.4116
30.5507
30.5702
30.48
30.2782
29.9624
29.5324
28.9908
28.3351
27.5444
26.5836
25.3902
23.7758
21.3657
18.3526
17.6669
18.3244
18.9435
619.356
453.333
24.1455
24.4694
24.676
24.8703
25.0649
25.1753
24.952
23.9957
22.1206
20.6657
21.9224
24.8356
27.182
28.6214
29.4934
30.0358
30.3628
30.5283
30.5585
30.4642
30.2493
29.9139
29.4559
28.8699
28.147
27.2722
26.2126
24.8666
22.9522
20.2034
18.4022
18.5705
18.9293
619.499
454.936
24.6228
24.8986
25.0453
25.1568
25.2747
25.4261
25.5479
25.3657
24.313
21.6337
17.9776
18.2705
22.2547
25.5419
27.5136
28.6607
29.3716
29.8248
30.098
30.2191
30.1992
30.0438
29.7535
29.3269
28.7612
28.0513
27.1857
26.1271
24.7316
22.6195
19.9717
19.1022
19.3918
622.748
460.041
24.9152
24.9128
24.9674
25.0454
25.1178
25.1294
25.0779
24.9728
24.6489
23.6197
20.9821
17.375
19.3625
23.3408
26.0057
27.4479
28.2999
28.9002
29.336
29.6153
29.7467
29.7396
29.6016
29.3311
28.9207
28.3644
27.6515
26.7493
25.5164
23.5202
20.7482
19.7079
20.2206
626.33
462.946
24.7777
24.5266
24.492
24.5874
24.7782
24.8791
24.6791
24.1743
23.4515
22.5346
21.4708
20.7369
21.9281
24.4823
26.2281
27.2432
27.9154
28.4275
28.8238
29.0977
29.2482
29.2785
29.1893
28.975
28.6257
28.1265
27.4491
26.5162
25.1239
22.9876
20.7748
20.243
20.7701
626.885
461.609
24.2249
23.8999
23.7961
23.8445
24.1008
24.4054
24.4221
24.0248
23.258
22.1917
20.9733
20.2861
21.41
23.8278
25.5838
26.6377
27.3237
27.8196
28.1949
28.4639
28.6243
28.6729
28.6047
28.4115
28.079
27.5799
26.8577
25.7904
24.2169
22.2607
20.8032
20.5354
20.7706
624.548
460.639
23.9819
23.5965
23.3763
23.224
23.2496
23.489
23.655
23.5078
23.0096
22.2139
21.2009
20.2056
20.2198
22.1988
24.3406
25.6592
26.4727
27.0321
27.4436
27.7421
27.9333
28.0124
27.9719
27.801
27.4817
26.9777
26.2139
25.0639
23.4933
21.9261
21.0254
20.7882
20.7246
622.409
457.057
23.7139
23.5115
23.3299
23.0857
22.8248
22.7346
22.8169
22.8302
22.6376
22.2412
21.7012
21.0736
20.5008
20.7444
22.5073
24.2747
25.3952
26.1136
26.6197
26.989
27.2411
27.375
27.3834
27.2558
26.9739
26.5025
25.7693
24.6608
23.1868
21.8374
21.1271
20.836
20.5928
621.447
453.839
23.7969
23.7639
23.6493
23.4394
23.1081
22.7682
22.6604
22.7547
22.8246
22.7301
22.4307
21.9281
21.2513
20.5417
20.5208
21.9833
23.6854
24.8323
25.5764
26.0987
26.4708
26.7094
26.8127
26.7732
26.5769
26.1975
25.5794
24.6266
23.3299
22.1083
21.4421
21.1252
20.8469
622.359
455.809
24.0745
23.9282
23.7772
23.5917
23.3501
23.0699
22.8515
22.7848
22.8148
22.8324
22.7722
22.6083
22.3214
21.8672
21.2107
20.8219
21.7955
23.3483
24.484
25.229
25.7475
26.1084
26.3233
26.3869
26.2882
26.0079
25.5087
24.7128
23.5788
22.4007
21.6752
21.323
21.0495
623.442
458.059
24.0605
23.7884
23.5863
23.3545
23.0869
22.8951
22.8646
22.9414
23.029
23.0586
23.008
22.882
22.6901
22.4295
22.0654
21.5355
21.0707
21.6947
23.0555
24.1626
24.9116
25.4288
25.7795
25.975
26.007
25.8588
25.5026
24.8765
23.9257
22.8468
22.1081
21.7481
21.5061
625.18
458.904
24.1365
23.8918
23.7018
23.4326
23.0436
22.6764
22.5243
22.5705
22.7127
22.8587
22.9554
22.9846
22.9449
22.8358
22.6482
22.3517
21.9184
21.639
22.3054
23.4164
24.3143
24.9383
25.3663
25.6364
25.7501
25.693
25.439
24.9374
24.1281
23.1422
22.4094
22.0479
21.8234
626.449
458.308
24.1023
23.9557
23.837
23.6175
23.232
22.8044
22.6128
22.6487
22.7325
22.7856
22.8003
22.7818
22.7315
22.6455
22.5136
22.3176
22.0454
21.8069
22.127
23.0819
24.0343
24.7274
25.2005
25.5085
25.6669
25.6657
25.4776
25.0559
24.345
23.4509
22.7614
22.4185
22.2224
627.817
457.556
24.0006
23.9586
23.9259
23.7695
23.3611
22.6881
22.1131
21.9951
22.1803
22.3925
22.5166
22.5481
22.5114
22.4248
22.2937
22.1188
21.9442
21.9651
22.4805
23.3958
24.258
24.8862
25.3173
25.5995
25.7468
25.749
25.5778
25.1835
24.514
23.6732
23.0199
22.6816
22.4726
628.453
454.847
23.879
24.1037
24.2567
24.2974
24.111
23.5421
22.6292
21.861
21.5877
21.6472
21.7696
21.8306
21.8128
21.7266
21.5797
21.3928
21.3219
21.7855
22.8267
23.8845
24.6778
25.2171
25.5787
25.8094
25.9225
25.9103
25.7465
25.3803
24.7514
23.9402
23.2911
22.9488
22.7506
629.305
454.185
23.9583
24.2437
24.46
24.6084
24.5949
24.2616
23.4899
22.4783
21.7297
21.4502
21.4305
21.4402
21.3885
21.2646
21.0707
20.8196
20.6782
21.226
22.6512
23.9359
24.8252
25.4248
25.823
26.0632
26.1614
26.1154
25.9047
25.4925
24.8618
24.1283
23.5595
23.2175
22.9332
628.532
454.563
23.9258
24.2154
24.4945
24.776
24.9655
24.8852
24.3657
23.3889
22.2868
21.5364
21.2354
21.1518
21.0814
20.9479
20.7348
20.433
20.0985
20.2008
21.6078
23.3196
24.4061
25.111
25.6142
25.9701
26.1787
26.2218
26.0694
25.685
25.073
24.3782
23.8237
23.4254
22.9967
627.707
454.304
23.8823
24.1401
24.4208
24.7787
25.1494
25.3395
25.1665
24.528
23.4816
22.3833
21.6282
21.2578
21.0706
20.9009
20.6797
20.3743
19.9528
19.5296
19.9629
21.9291
23.6181
24.6188
25.2383
25.6501
25.9077
26.0074
25.9134
25.5846
25.03
24.403
23.8924
23.4891
23.0094
627.269
456.917
24.0352
24.078
24.2806
24.6724
25.1563
25.4808
25.4949
25.1592
24.4652
23.5007
22.5413
21.848
21.4278
21.1404
20.8712
20.5585
20.1467
19.5867
19.1141
19.9557
22.0671
23.6763
24.6991
25.3503
25.7556
25.9598
25.9604
25.7364
25.2983
24.7599
24.2551
23.7739
23.1076
626.465
458.359
23.9072
23.8027
23.9956
24.5206
25.1741
25.6133
25.7381
25.5742
25.1432
24.4644
23.6275
22.8098
22.158
21.6791
21.288
20.9093
20.4748
19.9015
19.1476
18.8025
20.31
22.2028
23.6497
24.654
25.281
25.5915
25.6406
25.4697
25.1308
24.7165
24.3018
23.8649
23.213
626.864
458.771
23.6206
23.3805
23.5679
24.245
25.0708
25.6215
25.8516
25.8263
25.5831
25.1375
24.5162
23.7847
23.0491
22.3961
21.8371
21.3201
20.7727
20.0906
19.1571
18.2571
19.1111
21.2676
22.7328
23.9156
24.8996
25.552
25.7867
25.6554
25.2874
24.8325
24.3735
23.8719
23.1024
626.047
456.243
22.9171
22.651
22.8253
23.54
24.499
25.2607
25.7274
25.9373
25.9241
25.7051
25.2962
24.7238
24.0359
23.3068
22.6012
21.9281
21.2362
20.4125
19.3035
18.0457
18.3347
21.1907
22.8436
23.5379
24.1106
24.7456
25.2857
25.5024
25.3871
25.0709
24.6628
24.1755
23.4239
626.706
453.068
22.5231
22.325
22.3535
22.7044
23.4501
24.3415
25.102
25.6253
25.9123
25.983
25.8521
25.5321
25.0372
24.3967
23.6604
22.8785
22.0481
21.086
19.8278
18.1751
17.0148
18.9505
22.4406
24.2676
24.8296
24.9161
24.9339
24.9832
24.9599
24.8052
24.5298
24.1049
23.2744
624.45
449.72
22.4259
22.4091
22.3414
22.253
22.3871
23.0019
23.9351
24.8153
25.4649
25.8723
26.0666
26.0723
25.9032
25.5655
25.0679
24.4259
23.6694
22.7927
21.7276
20.3235
18.4953
17.1369
18.2777
21.1751
23.7659
25.1083
25.4006
25.2321
24.9464
24.6438
24.314
23.8586
22.9068
621.79
448.853
22.9149
23.164
23.2078
23.0427
22.658
22.3913
22.7834
23.7007
24.6211
25.3193
25.7909
26.0751
26.2006
26.1836
26.0313
25.7481
25.3388
24.8006
24.1243
23.255
22.0916
20.5739
19.0584
18.5569
19.7156
21.9352
23.9059
24.785
24.9113
24.7287
24.4157
23.9742
23.0767
622.138
449.396
23.2077
23.6647
23.9614
24.1071
23.9628
23.4098
22.92
23.2266
24.0522
24.8531
25.4626
25.8933
26.1813
26.3534
26.4271
26.4132
26.3159
26.1354
25.8581
25.446
24.8426
23.9767
22.7943
21.3667
20.0908
19.7052
20.7377
22.5227
23.6784
24.1134
24.151
23.9401
23.3268
625.408
450.87
23.205
23.5584
23.9052
24.2691
24.5193
24.4229
23.8969
23.6188
24.0495
24.7216
25.3017
25.7374
26.0518
26.2719
26.42
26.5168
26.5845
26.6508
26.7232
26.7393
26.6016
26.244
25.6232
24.693
23.4163
21.8865
20.6116
20.6448
21.9052
22.9341
23.4528
23.6359
23.5101
629.371
452.504
23.0891
23.179
23.4077
23.8147
24.2937
24.5859
24.5041
24.2232
24.3703
24.8641
25.349
25.7249
26.0028
26.2097
26.3729
26.524
26.7043
26.9562
27.2757
27.5789
27.7383
27.6683
27.352
26.78
25.9018
24.6198
22.9046
21.3126
21.1936
22.1418
22.9227
23.3907
23.644
631.783
454.294
22.971
22.7755
22.8576
23.2656
23.8788
24.3749
24.5966
24.5958
24.7302
25.096
25.4473
25.698
25.86
25.9605
26.0327
26.1392
26.4307
27.0906
27.9435
28.6088
28.9703
29.0581
28.9097
28.5403
27.9369
27.0388
25.7341
24.0289
22.6204
22.3837
22.7675
23.1673
23.5706
634.105
455.937
22.6807
22.2235
22.2294
22.7337
23.4872
24.1295
24.5594
24.8447
25.1496
25.5236
25.824
26.0107
26.1032
26.1242
26.093
26.0412
26.081
26.5258
27.5505
28.5986
29.2899
29.6452
29.7435
29.6245
29.3001
28.7495
27.8881
26.546
24.7653
23.485
23.2386
23.4655
24.0012
638.311
454.689
21.8546
21.2744
21.3236
21.9885
22.8747
23.6835
24.3609
24.9274
25.4037
25.7822
26.036
26.1763
26.2253
26.2008
26.1154
25.9916
25.923
26.2101
27.1642
28.3212
29.1648
29.671
29.9193
29.9529
29.7796
29.3649
28.5998
27.3132
25.6205
24.3956
24.1163
24.2941
24.8327
640.069
449.46
20.7637
20.3684
20.4157
20.8973
21.7095
22.7092
23.7382
24.6493
25.3441
25.8022
26.0633
26.1743
26.1687
26.0665
25.8744
25.5945
25.2856
25.2735
26.1712
27.6242
28.6537
29.2756
29.6295
29.755
29.6313
29.1937
28.3638
27.1719
25.9509
25.229
25.034
25.0487
25.1564
635.333
444.501
20.6674
20.6303
20.5096
20.3416
20.4271
21.0516
22.1586
23.4093
24.4963
25.2924
25.7987
26.0653
26.1424
26.0645
25.8451
25.4739
24.9396
24.4084
24.643
26.3026
27.9118
28.6946
29.0714
29.2225
29.1466
28.7671
28.0413
27.1076
26.2905
25.8034
25.5289
25.2518
24.6329
628.009
442.264
21.4878
21.9076
21.997
21.7608
21.139
20.4598
20.4347
21.3978
22.8287
24.1182
25.0547
25.6469
25.9548
26.0309
25.9059
25.5826
25.0269
24.2099
23.4205
23.8614
26.0748
27.9236
28.6073
28.7238
28.5823
28.2801
27.8188
27.2478
26.7127
26.2815
25.878
25.3142
24.0731
623.463
443.658
22.1
22.7763
23.2728
23.6173
23.5118
22.6033
21.0267
20.0377
20.7567
22.3705
23.8631
24.9381
25.6146
25.9685
26.0582
25.9122
25.524
24.8374
23.7925
22.7176
22.9843
25.2906
27.5555
28.4303
28.4335
28.0925
27.6589
27.2405
26.8563
26.4752
26.0269
25.3348
23.8344
622.153
448.382
22.2387
22.5314
23.0612
23.8665
24.5072
24.5348
23.5432
21.5739
20.5019
21.3587
22.9124
24.2617
25.2209
25.8331
26.1643
26.255
26.1139
25.7132
24.9753
23.8194
22.5209
22.3175
24.2011
26.7008
27.9681
28.1158
27.832
27.4319
27.0342
26.6339
26.1665
25.4691
24.0159
623.181
453.268
22.24
21.8752
22.1159
22.9969
23.8663
24.2651
24.0691
23.1186
22.035
22.1389
23.1581
24.3188
25.2759
25.9543
26.3805
26.5973
26.625
26.4561
26.0465
25.3085
24.1551
22.7618
22.0758
23.2525
25.604
27.1657
27.5601
27.4478
27.1295
26.7153
26.2213
25.5459
24.2613
625.062
452.54
21.564
21.097
21.5025
22.393
23.015
23.292
23.3542
23.3569
23.4818
23.8705
24.4896
25.2201
25.9275
26.5076
26.919
27.165
27.2591
27.2032
26.9788
26.5412
25.8115
24.6984
23.2821
22.2155
22.6566
24.597
26.2142
26.8289
26.9125
26.7192
26.3496
25.7925
24.7417
627.727
444.335
19.9358
19.9323
20.6708
21.4501
21.9964
22.416
22.7722
23.1419
23.5924
24.1583
24.8385
25.5818
26.2982
26.9047
27.3607
27.6645
27.8291
27.8632
27.7641
27.5133
27.0723
26.3757
25.3363
23.9466
22.6294
22.4864
23.9334
25.3182
25.9773
26.1726
26.0799
25.7552
25.0136
630.316
436.98
19.0914
19.199
19.3567
19.7237
20.409
21.2502
22.0163
22.6435
23.1941
23.759
24.4162
25.1833
25.9963
26.7492
27.3605
27.8052
28.0954
28.2498
28.2791
28.181
27.9395
27.5229
26.875
25.908
24.5575
23.1207
22.7357
23.7929
24.8267
25.3859
25.6037
25.5804
25.2437
633.27
435.738
19.561
19.5469
19.2914
18.9794
18.8577
19.2608
20.0799
20.9298
21.6768
22.3631
23.0705
23.8751
24.8035
25.7922
26.6953
27.4035
27.9034
28.2276
28.4082
28.4605
28.3844
28.1669
27.779
27.1627
26.2131
24.838
23.4109
23.1955
23.9357
24.6167
25.0252
25.2267
25.2325
635.134
441.056
20.4917
20.3857
20.291
20.2183
19.859
19.51
19.8402
20.5737
21.2772
21.8692
22.41
22.9832
23.6846
24.5891
25.633
26.6012
27.345
27.859
28.1911
28.3791
28.4386
28.3676
28.1489
27.7421
27.0596
25.9508
24.4248
23.4758
23.8182
24.4821
24.9548
25.2458
25.3644
635.165
448.673
20.8823
20.1697
19.9802
20.6189
21.0497
20.9626
21.0828
21.5421
22.017
22.4141
22.7608
23.1054
23.5147
24.0873
24.9063
25.8844
26.7762
27.4372
27.8796
28.1557
28.2969
28.31
28.1831
27.8804
27.3194
26.3458
24.89
23.7191
23.8394
24.4174
24.8475
25.1095
25.1248
632.749
450.423
20.3601
19.0633
18.5612
19.9838
21.4455
22.1482
22.5252
22.8106
23.049
23.2508
23.4282
23.6019
23.8062
24.1036
24.5928
25.3386
26.2232
27.004
27.5653
27.9302
28.1421
28.2201
28.1599
27.9321
27.4643
26.6213
25.3365
24.1918
24.1497
24.565
24.8882
25.079
25.0066
631.684
444.86
19.7021
18.7657
18.0259
18.682
20.4804
21.7461
22.5139
23.0203
23.3777
23.6343
23.819
23.9572
24.0768
24.2177
24.4498
24.879
25.5663
26.3842
27.0971
27.6044
27.9273
28.0979
28.1249
27.9919
27.647
26.9864
25.9212
24.8012
24.511
24.7356
24.9325
25.0228
24.8648
631.459
442.991
20.6227
20.0413
18.9398
17.1253
17.7264
19.7527
21.3028
22.317
23.01
23.4967
23.8339
24.0609
24.2107
24.3163
24.4208
24.5967
24.9593
25.5911
26.3724
27.0591
27.5509
27.8644
28.0237
28.0299
27.859
27.4429
26.6756
25.644
25.0139
24.9761
25.0638
25.1114
25.0064
633.115
447.883
21.6366
20.954
19.9784
17.8769
16.1791
17.8198
20.009
21.5331
22.5311
23.2258
23.725
24.0779
24.3166
24.4697
24.5655
24.6392
24.7576
25.0453
25.6131
26.3529
27.015
27.4894
27.7867
27.9274
27.9056
27.6789
27.1575
26.309
25.5323
25.2624
25.2348
25.2247
25.081
632.937
452.991
21.6764
20.5702
19.378
18.043
17.378
18.6383
20.4688
21.805
22.7221
23.3912
23.8969
24.2777
24.5586
24.7537
24.874
24.9368
24.9682
25.0268
25.2343
25.7047
26.3591
26.976
27.4372
27.7312
27.8603
27.7989
27.4826
26.87
26.1844
25.7966
25.6212
25.4624
25.083
631.381
453.218
21.2951
19.8825
18.2155
17.0633
18.2211
19.895
21.2309
22.2277
22.9995
23.6181
24.1196
24.5229
24.8399
25.0793
25.2473
25.3493
25.3922
25.3924
25.398
25.5153
25.849
26.3534
26.864
27.2712
27.5358
27.6228
27.4737
27.0605
26.5381
26.1574
25.903
25.6299
25.0435
629.99
451.135
21.0054
19.659
18.0313
16.7051
17.6468
19.5542
20.9676
21.9928
22.7951
23.4515
23.9983
24.4556
24.8367
25.1507
25.403
25.5952
25.7264
25.7955
25.8073
25.7884
25.8147
25.9915
26.3436
26.7694
27.146
27.3816
27.3932
27.1337
26.7161
26.3481
26.0561
25.7291
25.0659
630.23
451.898
20.8803
19.312
17.5265
16.2171
16.6743
18.6231
20.2768
21.4477
22.3251
23.0253
23.6035
24.0897
24.5037
24.8611
25.1728
25.4432
25.6687
25.841
25.9517
25.9966
26.0096
26.0865
26.3125
26.6592
27.0294
27.3283
27.4575
27.3315
26.9972
26.6243
26.2793
25.8959
25.2396
632.883
451.071
20.2387
18.4558
16.3952
15.3395
16.1222
17.9868
19.6933
20.9446
21.865
22.5774
23.1467
23.6113
23.9996
24.3365
24.6476
24.9607
25.2982
25.6602
26.0172
26.3162
26.5465
26.7556
26.9839
27.2369
27.5002
27.7371
27.8649
27.787
27.5122
27.1521
26.7686
26.3267
25.6507
634.62
448.086
19.8903
18.5377
16.8194
15.0732
14.9471
16.4128
18.349
19.923
21.059
21.8899
22.5131
22.9892
23.3658
23.695
24.046
24.53
25.2451
26.0388
26.6051
26.9237
27.1274
27.3273
27.5466
27.7467
27.9044
28.0112
28.0342
27.9225
27.6783
27.3515
26.9663
26.4603
25.5537
631.03
446.635
20.3237
19.5646
18.4595
16.2866
14.1861
14.0232
15.8296
17.9819
19.6583
20.8395
21.6832
22.2981
22.7542
23.113
23.4636
23.9977
24.9862
26.2937
27.2189
27.5937
27.7077
27.7636
27.8633
28.0015
28.1072
28.1267
28.0411
27.8502
27.5714
27.2214
26.7827
26.113
24.6919
624.133
446.097
20.6778
20.2698
19.6553
18.2223
15.6627
13.4468
13.4264
15.4315
17.6866
19.4361
20.6934
21.6075
22.2737
22.7453
23.0805
23.4015
23.9872
25.1258
26.5206
27.4983
27.9333
28.0541
28.0515
28.0402
28.05
28.035
27.9411
27.7488
27.4654
27.0944
26.5989
25.7793
23.9263
619.612
445.916
20.9
20.7263
20.4413
19.6709
17.7419
15.0557
13.1719
13.4865
15.5154
17.6843
19.3949
20.6782
21.6605
22.4051
22.9336
23.2803
23.5535
23.9901
24.8319
25.9757
27.023
27.6954
27.9958
28.0602
28.0142
27.9248
27.799
27.6184
27.3663
27.0257
26.553
25.7597
23.9418
619.763
446.428
21.1373
21.0549
20.9259
20.4738
19.187
16.7946
14.529
13.4328
14.197
16.1221
18.0731
19.6596
20.9058
21.9028
22.6807
23.2411
23.6013
23.8259
24.0631
24.511
25.2624
26.1816
26.9787
27.4529
27.6218
27.5924
27.4447
27.2235
26.945
26.6012
26.1563
25.4656
23.9746
621.939
448.007
21.2823
21.0807
20.9349
20.5794
19.6413
17.7649
15.7239
14.4921
14.3699
15.4911
17.1988
18.8375
20.2361
21.4305
22.4414
23.2453
23.8203
24.175
24.3539
24.4471
24.6059
25.0007
25.6743
26.413
26.925
27.1381
27.1237
26.9562
26.6894
26.3527
25.9455
25.3846
24.2808
625.105
449.166
21.2675
20.9152
20.6753
20.2762
19.4626
18.0696
16.4912
15.4999
15.1959
15.6801
16.9256
18.4148
19.8217
21.1073
22.263
23.2326
23.9651
24.4566
24.7335
24.831
24.8044
24.7752
24.9475
25.4579
26.1176
26.5942
26.7986
26.7864
26.6197
26.3454
25.9869
25.4878
24.4918
626.038
448.729
21.0309
20.6237
20.3309
19.8829
19.1455
18.1569
17.1581
16.4869
16.1515
16.2186
16.8994
18.0834
19.4136
20.7577
22.0811
23.2727
24.1957
24.8128
25.1692
25.314
25.2758
25.0979
24.9229
25.0263
25.5534
26.196
26.6163
26.7801
26.7433
26.552
26.2318
25.7302
24.6801
626.401
446.184
20.4934
20.152
19.9189
19.5434
18.9762
18.351
17.8023
17.3878
17.0832
16.938
17.1529
17.894
18.9995
20.254
21.6001
22.9469
24.0978
24.9147
25.4143
25.6636
25.702