/*--------------------------------*- C++ -*----------------------------------*\
| =========                 |                                                 |
| \\      /  F ield         | OpenFOAM: The Open Source CFD Toolbox           |
|  \\    /   O peration     | Version:  v1906                                 |
|   \\  /    A nd           | Web:      www.OpenFOAM.com                      |
|    \\/     M anipulation  |                                                 |
\*---------------------------------------------------------------------------*/
FoamFile
{
    version     2.0;
    format      ascii;
    class       volScalarField;
    location    "54.8/sphere";
    object      T;
}
// * * * * * * * * * * * * * * * * * * * * * * * * * * * * * * * * * * * * * //

dimensions      [0 0 0 1 0 0 0];


internalField   nonuniform List<scalar> 
304
(
470.441
470.469
470.466
470.482
470.441
470.435
470.439
470.468
470.439
470.585
470.585
470.482
470.465
470.582
470.582
470.51
470.475
470.507
470.435
470.467
470.483
470.439
470.47
470.585
470.585
470.512
470.483
470.582
470.582
470.536
470.433
470.506
470.534
470.469
470.44
470.484
470.511
470.445
470.444
470.51
470.536
470.471
470.435
470.469
470.422
470.428
470.441
470.441
470.443
470.475
470.441
470.441
470.475
470.443
470.428
470.442
470.445
470.442
470.476
470.469
470.469
470.484
470.483
470.513
470.512
470.537
470.44
470.484
470.469
470.512
470.483
470.537
470.512
470.442
470.445
470.476
470.443
470.437
470.437
470.471
470.434
470.482
470.431
470.463
470.508
470.535
470.474
470.506
470.467
470.464
470.434
470.536
470.51
470.508
470.476
470.473
470.439
470.435
470.42
470.433
470.433
470.468
470.434
470.468
470.434
470.433
470.42
470.442
470.439
470.44
470.474
470.468
470.481
470.512
470.467
470.484
470.511
470.538
470.44
470.512
470.482
470.484
470.468
470.538
470.511
470.442
470.44
470.474
470.441
470.482
470.469
470.512
470.469
470.512
470.484
470.537
470.439
470.512
470.47
470.512
470.469
470.537
470.484
470.509
470.432
470.475
470.482
470.536
470.464
470.507
470.467
470.476
470.434
470.536
470.483
470.508
470.464
470.435
470.434
470.468
470.434
470.506
470.434
470.464
470.507
470.534
470.463
470.481
470.475
470.464
470.433
470.534
470.507
470.481
470.464
470.468
470.433
470.433
470.438
470.441
470.475
470.445
470.483
470.512
470.538
470.438
470.467
470.482
470.512
470.467
470.537
470.511
470.468
470.436
470.511
470.479
470.474
470.44
470.44
470.513
470.484
470.537
470.443
470.485
470.471
470.513
470.469
470.537
470.484
470.482
470.441
470.512
470.469
470.536
470.465
470.507
470.469
470.511
470.435
470.477
470.483
470.508
470.465
470.509
470.467
470.476
470.434
470.468
470.434
470.435
470.534
470.464
470.481
470.476
470.507
470.434
470.465
470.507
470.481
470.465
470.508
470.477
470.465
470.437
470.435
470.434
470.436
470.431
470.439
470.443
470.474
470.439
470.473
470.441
470.439
470.427
470.447
470.443
470.477
470.444
470.512
470.513
470.538
470.443
470.469
470.47
470.484
470.482
470.537
470.512
470.468
470.439
470.484
470.469
470.476
470.442
470.441
470.474
470.438
470.44
470.536
470.476
470.508
470.467
470.483
470.433
470.464
470.509
470.508
470.477
470.482
470.466
470.464
470.434
470.438
470.435
470.437
470.423
470.469
470.435
470.434
470.436
470.435
470.434
)
;

boundaryField
{
    sphere_to_oil
    {
        type            compressible::turbulentTemperatureCoupledBaffleMixed;
        refValue        nonuniform List<scalar> 
360
(
337.517
337.517
321.974
360.627
369.026
324.051
370.112
370.112
370.112
346.643
346.643
326.983
330.769
319.356
345.225
358.012
354.448
354.448
354.448
321.462
353.165
330.3
333.118
363.234
316.812
363.543
321.973
363.422
363.422
363.422
370.815
362.48
321.96
321.608
326.758
326.891
355.421
355.421
355.421
354.69
361.136
327.921
327.122
337.894
337.894
321.811
329.079
314.183
336.428
363.911
324.005
324.079
330.24
330.695
321.273
330.137
355.171
321.584
327.22
332.505
319.882
364.69
364.69
364.69
314.219
363.195
336.341
325.551
368.634
368.634
368.634
369.551
368.063
318.538
353.073
344.515
320.372
332.14
361.129
355.539
333.969
325.311
333.547
319.76
321.924
323.727
327.075
330.571
319.952
321.679
322.06
329.86
326.775
322.282
329.599
326.827
327.178
327.192
323.318
316.672
316.768
320.988
324.022
326.792
329.839
320.842
319.297
330.737
323.139
327.218
327.196
327.066
323.303
321.413
314.45
314.406
330.242
325.639
331.547
337.266
337.266
360.627
360.627
363.234
363.234
361.317
361.317
361.317
362.646
362.646
362.646
330.8
325.859
330.21
321.962
369.026
369.026
342.873
342.873
370.815
370.815
341.753
341.753
370.026
370.026
370.026
321.692
320.959
358.494
358.494
358.494
358.335
358.335
358.335
358.012
353.165
345.225
358.012
357.466
320.816
357.466
357.466
333.147
333.869
325.42
330.312
330.312
362.601
362.601
362.601
319.981
353.165
330.3
361.604
361.604
319.823
361.604
333.782
325.3
314.257
321.951
322.259
329.595
316.704
329.117
322.222
314.296
316.682
363.543
363.543
362.48
362.48
338.179
338.179
360.677
360.677
360.677
336.258
336.258
316.524
326.391
324.266
330.032
326.544
323.789
329.939
323.064
330.813
327.25
323.009
354.69
330.736
327.442
321.568
362.02
362.02
362.02
331.037
331.037
319.843
327.314
327.196
332.389
361.136
327.83
332.257
327.425
354.69
361.136
330.864
321.559
330.864
320.218
314.396
329.009
316.768
322.136
322.015
322.276
316.577
316.344
364.625
359.538
364.625
364.625
359.538
359.538
363.911
363.195
336.428
362.054
316.61
363.911
362.054
362.054
329.38
321.575
326.607
329.783
322.269
369.551
326.613
327.041
327.124
323.261
355.171
353.073
327.258
327.033
323.228
354.671
357.531
330.137
361.543
320.017
355.171
361.543
361.543
332.888
327.815
361.129
327.279
327.195
327.049
361.512
327.58
361.229
330.748
354.671
330.748
361.512
354.671
361.512
314.147
325.696
329.699
329.924
336.864
360.737
336.864
360.737
360.737
316.543
363.195
361.818
336.341
361.818
316.519
361.818
330.943
330.544
320.368
367.609
342.442
367.609
367.609
342.442
320.85
323.751
326.504
329.772
368.063
369.551
341.992
321.622
368.063
341.992
320.901
353.073
358.28
344.515
358.28
319.627
358.28
330.862
355.539
323.352
327.421
357.353
355.137
357.531
344.181
357.531
357.353
344.181
357.353
324.961
333.379
361.129
330.279
319.852
355.539
330.279
321.784
361.229
355.137
361.229
330.697
355.137
330.697
)
;
        refGradient     uniform 0;
        valueFraction   nonuniform List<scalar> 
360
(
0.000135648
0.000130136
8.33143e-05
0.000297632
0.000305248
0.000175034
0.000307145
0.000263644
0.00041037
0.00013066
0.000127391
0.000170899
0.000260457
7.44704e-05
0.000133216
0.00025896
0.000296762
0.000277282
0.000389088
6.81448e-05
0.00025547
0.000125591
0.000115752
0.000307164
8.91815e-05
0.000315729
0.000177972
0.000311651
0.000407855
0.000272828
0.000311702
0.000314387
8.44197e-05
8.34766e-05
0.00017518
0.000172394
0.000291712
0.000395474
0.000271566
0.000408323
0.000403337
8.61238e-05
0.000170827
0.000124676
0.000124527
0.000175852
0.000263092
7.01921e-05
0.000125596
0.000266322
0.000173476
0.000174603
0.000260263
0.000257734
7.28165e-05
0.000133208
0.000271647
6.97562e-05
0.000172808
0.000257694
6.8279e-05
0.000303369
0.000267802
0.000419138
7.03928e-05
0.000273817
0.000127724
0.000123535
0.000310377
0.000404899
0.000272364
0.000390451
0.000395917
7.56159e-05
0.000263985
0.00013392
6.97157e-05
0.000125012
0.000395084
0.000410422
0.000122612
0.000120299
0.000118159
7.02239e-05
8.46819e-05
0.000171683
0.000172644
0.000261451
7.89218e-05
6.66382e-05
8.38077e-05
0.000261024
0.000172317
8.56102e-05
0.000260593
0.000174285
0.000173253
0.000173521
8.46167e-05
6.78248e-05
6.87762e-05
6.78607e-05
0.000174457
0.000171467
0.000260827
7.67911e-05
6.67013e-05
0.000260638
8.28004e-05
0.000171738
0.00017177
0.000175274
8.57072e-05
6.86305e-05
6.69321e-05
6.82252e-05
0.000118756
0.000118898
0.000123517
0.000133937
0.000125882
0.000260103
0.000409744
0.000274036
0.000413512
0.000265062
0.000407513
0.000303417
0.000265277
0.000398643
0.000298818
0.000121884
0.000115264
0.00011806
6.51733e-05
0.000270293
0.000406958
0.000125912
0.000126487
0.000411267
0.000273444
0.000131992
0.000139113
0.000406205
0.000279047
0.000321544
7.17271e-05
6.67499e-05
0.000281738
0.000390419
0.000309466
0.000290085
0.000403937
0.000309433
0.000319481
0.000294282
0.000137656
0.000410311
0.000265036
7.38927e-05
0.000398795
0.00029843
0.000113888
0.000119987
0.000118701
0.000125223
0.000130899
0.000408259
0.000268816
0.000315533
7.56557e-05
0.000392729
0.000134665
0.000412964
0.000264366
7.38992e-05
0.000313458
0.000114899
0.000115965
6.77538e-05
0.000177591
0.000177521
0.000262493
8.75335e-05
0.000262889
0.000172977
6.70582e-05
6.51157e-05
0.000410793
0.000261015
0.000405971
0.000270666
0.000129107
0.00012074
0.000407864
0.000254911
0.000294653
0.000119346
0.000138479
6.96676e-05
0.000174469
0.000174311
0.000260435
0.000170525
0.000171403
0.000259409
8.89136e-05
0.000260299
0.000176493
8.6466e-05
0.000292984
0.000260011
0.000175436
6.99163e-05
0.000398957
0.000258637
0.000302607
0.00012607
0.000117157
6.76734e-05
0.000173114
0.000176025
0.00026099
0.000296733
8.29907e-05
0.000258513
0.000168836
0.000256805
0.000271865
0.000123409
6.93169e-05
0.000136942
7.01739e-05
6.60549e-05
0.000263903
8.80701e-05
0.000177418
0.000175367
0.000173277
8.6963e-05
6.64277e-05
0.000269828
0.000252834
0.000424451
0.000315941
0.00039599
0.000284519
0.000304954
0.00031223
0.000138786
0.000267854
7.21662e-05
0.000407606
0.000396336
0.000301132
0.000262648
8.36895e-05
0.0001709
0.000259628
8.4439e-05
0.000309364
0.00017164
0.000172867
0.000171274
8.39281e-05
0.00030706
0.000287742
0.000174743
0.000170225
8.55441e-05
0.000288308
0.000317351
0.000125857
0.000284879
6.76582e-05
0.000405866
0.000393488
0.000297324
0.000257703
8.46576e-05
0.000297791
0.000171472
0.000171736
0.000172714
0.000299412
8.54509e-05
0.000305911
0.000128721
0.000263753
0.000129795
0.000268772
0.00040959
0.0004021
6.76259e-05
0.000135515
0.000133915
0.000130981
0.000119282
0.000399072
0.000130279
0.000265307
0.000312413
6.66402e-05
0.000402967
0.000402481
0.000131758
0.000286174
6.98363e-05
0.000306799
0.000116811
0.000114754
6.97786e-05
0.000394685
0.000117957
0.00025884
0.000304846
0.000126461
6.89389e-05
0.000171537
0.000171478
0.000258756
0.000296079
0.000256808
0.000124163
6.68345e-05
0.000261109
0.000137902
7.7189e-05
0.00037839
0.000406315
0.000120084
0.000258102
7.15586e-05
0.000324603
0.000260739
0.0003124
8.54605e-05
0.000172275
0.000301193
0.000292
0.000274708
0.000122787
0.000402405
0.00040154
0.000145758
0.000268405
0.000118093
0.000119904
0.000270213
0.000133761
7.23213e-05
0.000273286
0.0001288
6.67878e-05
0.000397749
0.000402524
0.000264848
0.000128531
0.000260155
0.00013277
)
;
        value           nonuniform List<scalar> 
360
(
470.442
470.443
470.448
470.428
470.429
470.463
470.429
470.435
470.423
470.44
470.441
470.46
470.465
470.449
470.443
470.431
470.416
470.421
470.407
470.444
470.424
470.437
470.423
470.425
470.444
470.424
470.461
470.426
470.418
470.43
470.427
470.425
470.446
470.446
470.459
470.462
470.418
470.409
470.422
470.407
470.41
470.441
470.459
470.441
470.443
470.46
470.466
470.447
470.441
470.43
470.464
470.463
470.466
470.466
470.441
470.433
470.421
470.444
470.458
470.465
470.443
470.426
470.429
470.418
470.448
470.43
470.442
470.428
470.43
470.425
470.435
470.425
470.424
470.451
470.432
470.446
470.447
470.425
470.411
470.407
470.425
470.424
470.426
470.444
470.45
470.462
470.462
470.465
470.445
470.444
470.447
470.467
470.464
470.445
470.467
470.463
470.461
470.459
470.441
470.45
470.45
470.451
470.463
470.464
470.466
470.45
470.447
470.465
470.438
470.458
470.462
470.458
470.441
470.442
470.45
470.449
470.431
470.43
470.43
470.442
470.443
470.432
470.417
470.431
470.418
470.431
470.418
470.427
470.431
470.419
470.427
470.43
470.431
470.431
470.452
470.434
470.423
470.445
470.445
470.423
470.434
470.444
470.444
470.423
470.434
470.426
470.451
470.447
470.425
470.409
470.415
470.424
470.408
470.417
470.417
470.419
470.441
470.408
470.429
470.448
470.409
470.419
470.424
470.423
470.422
470.435
470.435
470.408
470.424
470.419
470.442
470.408
470.434
470.409
470.424
470.441
470.418
470.423
470.422
470.447
470.461
470.46
470.466
470.445
470.466
470.462
470.449
470.449
470.417
470.43
470.417
470.43
470.441
470.443
470.417
470.432
470.426
470.443
470.442
470.449
470.463
470.463
470.467
470.464
470.463
470.467
470.438
470.465
470.458
470.44
470.419
470.466
470.459
470.442
470.411
470.425
470.42
470.435
470.437
470.443
470.458
470.458
470.464
470.42
470.441
470.464
470.459
470.423
470.423
470.435
470.442
470.433
470.442
470.447
470.465
470.444
470.46
470.46
470.461
470.442
470.45
470.429
470.432
470.419
470.424
470.42
470.431
470.423
470.422
470.44
470.43
470.448
470.416
470.417
470.428
470.467
470.45
470.465
470.467
470.448
470.429
470.464
470.459
470.464
470.442
470.419
470.421
470.459
470.462
470.44
470.42
470.417
470.435
470.422
470.443
470.408
470.412
470.421
470.465
470.441
470.421
470.459
470.46
470.46
470.423
470.444
470.423
470.436
470.423
470.436
470.424
470.408
470.412
470.447
470.431
470.432
470.432
470.442
470.419
470.441
470.43
470.428
470.449
470.417
470.416
470.441
470.427
470.448
470.425
470.43
470.43
470.452
470.426
470.448
470.436
470.431
470.447
470.453
470.464
470.465
470.467
470.428
470.436
470.446
470.452
470.433
470.442
470.449
470.412
470.411
470.444
470.43
470.448
470.416
470.465
470.416
470.44
470.459
470.419
470.419
470.426
470.442
470.409
470.409
470.438
470.426
470.425
470.426
470.424
470.435
470.443
470.422
470.436
470.444
470.412
470.409
470.425
470.436
470.423
470.435
)
;
        Tnbr            T;
        thicknessLayers 0();
        kappaLayers     0();
        kappaMethod     solidThermo;
        kappa           none;
        alphaAni        none;
    }
}


// ************************************************************************* //
