/*--------------------------------*- C++ -*----------------------------------*\
| =========                 |                                                 |
| \\      /  F ield         | OpenFOAM: The Open Source CFD Toolbox           |
|  \\    /   O peration     | Version:  v1906                                 |
|   \\  /    A nd           | Web:      www.OpenFOAM.com                      |
|    \\/     M anipulation  |                                                 |
\*---------------------------------------------------------------------------*/
FoamFile
{
    version     2.0;
    format      ascii;
    class       volScalarField;
    location    "0.83/oil";
    object      wallHeatFlux;
}
// * * * * * * * * * * * * * * * * * * * * * * * * * * * * * * * * * * * * * //

dimensions      [1 0 -3 0 0 0 0];


internalField   uniform 0;

boundaryField
{
    maxY
    {
        type            calculated;
        value           uniform 0;
    }
    minX
    {
        type            calculated;
        value           uniform 0;
    }
    maxX
    {
        type            calculated;
        value           uniform 0;
    }
    minY
    {
        type            calculated;
        value           uniform 0;
    }
    minZ
    {
        type            calculated;
        value           uniform 0;
    }
    maxZ
    {
        type            calculated;
        value           uniform 0;
    }
    oil_to_sphere
    {
        type            calculated;
        value           nonuniform List<scalar> 
1536
(
479410
442838
429562
502782
477974
476192
458240
396068
352491
385993
480868
388851
416641
388644
529575
491677
401714
348512
178295
412602
404603
486875
453162
495409
514022
514129
514329
497446
433669
468108
425083
388355
380929
516507
494837
489502
469018
514422
502028
514009
505971
491650
465330
409317
455279
404389
444791
453280
539419
459013
484505
445871
448205
448163
386323
347832
472725
460363
348021
300301
286324
301768
286393
224206
228540
403581
457103
382338
494203
452279
518661
484871
515651
507226
496676
386377
332695
398283
491854
339493
303543
285595
283899
284253
269860
290676
276330
394425
355757
300739
281064
169634
174081
224733
228488
405018
459659
361829
390103
486154
459669
517679
450738
443123
476910
508687
499604
405600
453831
378077
348880
388646
303860
296423
284869
277183
284130
274209
274749
286294
336350
281271
172484
401090
482350
467440
495672
444034
459390
490598
448450
486970
452569
485597
449181
495295
452460
351245
446185
466632
297256
287711
403402
339239
278903
342508
487342
378980
331941
509390
512592
368841
482146
478930
481586
321534
431039
297330
484208
345799
482136
372758
518737
512950
490713
469935
486791
309300
418917
299500
433744
418533
419413
389881
355297
321296
470361
373023
394402
484244
518135
509124
478852
512391
313737
420071
293498
437495
426793
450435
456672
499161
396514
474848
487344
441488
416895
457590
346256
458309
452809
472553
376737
312353
332785
344426
350217
341505
377622
298963
384850
342288
349016
338574
419452
401836
337109
388855
409239
325696
380764
441896
431578
384054
375689
394164
505965
393931
505486
535945
489142
429534
491017
338318
310150
395243
320836
327506
318242
363819
354379
175755
236523
411779
338476
450984
448965
376158
414200
324048
446604
539933
474139
495293
371221
471420
487783
382316
342515
344882
387439
281305
337487
236341
167794
217829
225335
187723
434090
391709
437190
404786
399650
450885
441480
392878
399054
328661
444071
388703
491234
478593
437356
406446
456894
467173
452148
465733
436634
426912
484034
325801
456016
326574
339922
351201
349669
323725
361690
361107
405117
389999
356298
347460
332546
493486
329620
507421
479801
298693
409951
284059
447387
442989
444361
419122
465513
460577
481746
387194
447260
425288
427626
500431
443411
406967
436830
387221
452647
376353
408821
379213
490836
432728
409783
473814
395738
444328
457159
361999
318790
430498
400588
420724
408463
407988
423661
426909
419416
466449
477895
494675
428587
485906
415494
456507
451651
431074
496844
417485
489972
456766
425624
495232
443453
453335
486655
471231
478724
448710
405729
502659
463906
440124
502788
436852
471574
458900
441569
318283
444416
345649
422466
349721
366378
464118
447128
325372
434219
374092
404801
362856
329670
364774
365247
323581
435856
323888
429291
354738
464277
446168
308445
479706
397658
349749
436023
345724
416472
366647
349138
344106
349066
363488
346477
331783
346383
345130
379667
350512
349220
352054
327616
283262
362700
314952
309119
336649
273695
298051
375617
324782
336888
336005
339446
328735
341295
267936
242221
285649
292571
345373
319300
304794
310063
365164
346189
374923
391184
350869
375646
370675
337621
350104
316496
303557
360102
299615
305126
350922
275118
305171
300203
346032
381378
439764
431939
398500
414891
467795
442986
427689
455848
359972
484358
437950
475027
405274
489034
426702
393963
448036
458714
374343
453054
488886
436390
450910
364583
489221
347726
480924
507240
522171
534108
553808
487041
495129
498898
513319
497412
329080
508386
475099
310805
298120
420933
469589
487051
310942
419683
450449
487111
471347
424632
336220
294049
343251
311641
292653
380605
347836
312548
344897
341059
261742
301050
307829
242664
303211
253088
319633
246755
332148
299703
309976
323858
370488
337727
326655
281120
354283
328329
292272
378129
355796
330766
386729
343030
338909
332451
262650
300433
339461
182148
235796
190688
230738
212399
210945
217666
216945
234326
359812
276648
306996
303978
275391
364976
277795
302098
306153
291774
342912
307275
343754
267987
459050
362705
332292
489716
423318
371135
463676
376029
415789
404934
386743
471994
408239
451054
430505
409207
409623
351863
363791
481376
461509
366746
457766
451504
382374
418246
371038
474727
484081
398672
449138
398341
416715
484996
343144
519514
514307
341438
386686
494352
532446
524802
429649
492241
530543
514323
504223
484471
472668
506781
324003
345277
425288
303806
497837
322096
300777
350983
448503
482465
464096
325941
470890
338729
427536
424859
306132
487139
314717
334352
277002
225518
309225
377158
315887
323731
323949
327127
337712
348779
279790
339428
303116
294833
306924
314890
242537
306791
307029
250524
311189
306116
241046
257276
335640
320273
257095
295596
390381
342895
324730
302036
345270
340913
328077
271133
227359
338658
366699
371618
388731
310688
331647
309471
345873
344374
285935
324153
283811
288794
221563
216904
181146
179622
226188
230950
171126
172790
239236
422630
444665
444354
445541
446612
441238
444353
449385
438927
375828
437115
430507
402844
469628
451778
438004
458293
467805
480350
462694
380851
412375
396174
439772
415450
429224
380568
463260
491875
411949
441859
417798
471466
453345
444710
439602
474244
447743
444531
473634
432366
449064
508841
475937
440123
473511
433248
467564
475385
432332
449020
485133
499264
410961
483465
451355
428433
494437
474729
449758
486785
473706
418311
401511
501548
479634
416869
494239
502752
477119
468524
448717
332252
428683
344274
375563
356532
422548
320938
466910
466260
319609
436152
433700
373755
367010
334737
456895
452986
426946
329713
460359
370601
386578
431375
339105
434515
354369
354954
412586
331801
462129
435335
451744
356949
365474
343959
428550
436628
354085
369249
342116
344063
345161
373797
348863
373104
292896
347384
329722
317804
335380
327924
274904
289112
336348
303391
366341
348720
334084
330663
394566
386836
349751
342442
357578
342185
334629
336708
274356
242639
345393
269845
336095
335386
306098
299319
343251
299176
380673
348528
340056
340359
348942
301464
377932
333524
450329
495472
372695
399159
335409
426418
334551
355995
451220
509705
391367
372125
451569
453426
424724
419911
289570
191128
514389
431978
404709
277289
185474
297945
456240
510635
487314
303355
466472
495606
459408
471322
406323
478801
394546
419203
461857
477141
435606
456490
466820
445331
447531
446107
413253
335603
390131
532885
390184
492504
415967
456966
430612
404794
360155
399476
512718
436863
493442
414648
392581
437316
331075
480848
521079
511869
483108
499578
490528
483726
487866
409289
374091
432097
336631
403337
411859
410316
486389
456194
492759
376790
442479
482218
486610
518257
455553
499157
490666
368251
433243
436690
434735
383345
433265
361522
400552
268727
349237
408990
389322
326211
390705
325141
312273
392114
390074
323768
419928
495331
478733
514580
452524
489939
503306
410211
527307
411151
434918
434111
396187
425248
309723
342036
415168
317200
369949
410824
365206
317493
245066
228545
403380
349636
193740
194588
220224
422250
312278
400065
307904
390941
324024
400400
316018
383285
491113
460628
503617
341106
327421
433431
443282
446225
492873
400015
499092
418375
421645
509448
394632
431755
433875
312919
479924
397740
360924
322520
403048
365820
442500
430987
363316
253953
321134
243384
404144
337651
198128
224678
191285
413963
424789
501343
442966
486003
481185
436271
491416
501026
497304
443373
401836
426479
440092
428156
353104
379809
353622
397445
528566
521804
539246
452085
437745
531696
484997
330866
431085
491703
398489
532211
526079
376966
473313
480571
403654
527328
535208
524033
375570
478976
493699
400357
532337
484254
393274
477653
437036
334334
450289
471082
467391
433897
534611
519527
525896
543020
345079
481548
536447
372228
453690
502175
479157
470657
435248
483159
430317
348180
443553
466626
476142
422578
534367
375706
474352
531073
367516
433032
504008
491761
453654
453587
469651
473285
419357
450963
441906
454193
438969
483066
376739
465069
439131
458005
460238
459696
450509
374712
335479
321236
349995
360722
360176
355689
366256
417798
342234
327377
449726
522603
533434
495122
356401
332582
471218
401936
484642
399645
312181
313162
355301
311873
306013
307730
311817
241773
176214
442145
451804
439023
458341
438212
456561
394076
545975
483759
361477
402824
305680
241607
179117
247446
297018
425990
327343
338195
437346
428337
407762
414900
455624
436724
492253
373848
370835
470777
454431
474882
349595
330568
371296
366437
365574
323058
295683
485756
383070
467862
473225
502599
493355
474357
341520
491180
451921
447823
481026
476100
417318
365182
408598
422225
446095
428047
428631
436967
412160
369946
439583
422441
422089
428769
433630
430888
444640
442876
458586
436016
471369
365855
438812
471962
423706
334205
438162
436250
473054
470636
439184
435538
421441
353714
417290
443783
471102
456508
427795
401844
420750
425920
472789
489678
395849
442871
480940
482703
475109
463880
468703
507441
388516
466965
475580
467430
479222
470774
474771
407300
407060
468198
463427
456188
408940
363252
385129
458424
442800
352324
388832
435783
441883
416262
385563
452519
414386
367143
377118
384411
349075
345804
306241
299185
361873
323938
328496
331310
227265
235826
322443
375724
337153
332641
334302
325307
318592
267570
344401
332920
286289
418939
413957
289514
354779
406847
293774
335953
354579
289189
426939
450571
327036
392390
348046
335608
335884
417392
400467
477327
439365
338283
426701
504421
380831
430360
447845
453396
436546
462892
441501
466744
466408
380505
418470
437059
439108
447708
470312
534955
329752
489811
537624
370359
493425
500975
482711
411406
480734
376055
520756
344353
436074
436870
492692
490950
460580
430888
291754
479214
406982
359348
391225
332435
244056
260463
362616
333554
339962
323149
384616
300327
325952
242621
362064
328183
172642
172314
247584
175235
249814
228585
198292
425759
268627
356896
417486
418930
402593
409270
347697
345655
342553
328924
414637
406458
320854
447562
427368
394094
485618
440790
464541
433956
341555
431381
493635
392907
452529
453368
451694
470944
409029
451939
483733
419576
380270
501228
520885
507926
540626
521514
458856
518534
374163
472244
407366
481611
472849
401848
484867
440615
438866
445936
481533
414631
346351
471059
402445
340022
345749
316649
399056
341160
321844
252210
366180
329044
390955
314139
240502
231504
198553
416884
440769
465795
412200
450232
432042
444462
430359
452677
462019
489334
373468
413632
465346
414541
428348
447664
454883
474798
474118
451763
436279
440963
503877
473910
501672
349363
447817
479474
469249
471173
479596
373539
468798
497967
392471
472742
440971
365765
449608
463100
451839
424579
366671
453823
423609
450579
410713
284286
352668
334484
237057
324775
378624
293362
372554
327144
322111
362022
386900
)
;
    }
}


// ************************************************************************* //
