/*--------------------------------*- C++ -*----------------------------------*\
| =========                 |                                                 |
| \\      /  F ield         | OpenFOAM: The Open Source CFD Toolbox           |
|  \\    /   O peration     | Version:  v1906                                 |
|   \\  /    A nd           | Web:      www.OpenFOAM.com                      |
|    \\/     M anipulation  |                                                 |
\*---------------------------------------------------------------------------*/
FoamFile
{
    version     2.0;
    format      ascii;
    class       volScalarField;
    location    "75";
    object      omega;
}
// * * * * * * * * * * * * * * * * * * * * * * * * * * * * * * * * * * * * * //

dimensions      [0 0 -1 0 0 0 0];


internalField   nonuniform List<scalar> 
78750
(
352.504
13.5518
13.5768
13.6024
13.6278
13.6526
13.6764
13.699
13.7202
13.7397
13.7574
13.7734
13.7874
13.7997
13.8099
13.8182
13.8246
13.8291
13.8316
13.8322
13.8308
13.8273
13.8216
13.8137
13.8033
13.7904
13.7748
13.7565
13.7355
13.7123
13.6882
13.6659
13.6507
13.6495
356.457
517.262
4.15514
4.24337
4.32204
4.39167
4.45277
4.50576
4.5511
4.58933
4.621
4.64667
4.66684
4.68198
4.69258
4.69921
4.70232
4.70224
4.69928
4.6937
4.68572
4.67552
4.66313
4.64852
4.63157
4.61203
4.58959
4.56395
4.53441
4.49973
4.45855
4.40893
4.34904
4.28151
4.21555
523.374
517.274
4.21808
4.35166
4.46652
4.56153
4.63831
4.69961
4.74794
4.78528
4.81315
4.83279
4.84523
4.85136
4.85204
4.84799
4.83987
4.82827
4.81382
4.79712
4.77878
4.75936
4.73939
4.71916
4.69862
4.67752
4.6553
4.63109
4.60367
4.57141
4.53199
4.4824
4.42061
4.35113
4.28076
523.732
517.289
4.27822
4.44851
4.5887
4.69725
4.7787
4.83943
4.88436
4.91668
4.93851
4.95134
4.95631
4.95432
4.94617
4.93256
4.91424
4.89196
4.86661
4.83914
4.81061
4.78215
4.75485
4.72951
4.70646
4.68535
4.66527
4.64469
4.62171
4.59398
4.55863
4.5125
4.4547
4.39113
4.32484
524.085
517.307
4.33174
4.52947
4.68587
4.80054
4.88198
4.93997
4.98111
5.00927
5.02649
5.03417
5.0333
5.02457
5.00855
4.98586
4.95725
4.92367
4.88631
4.84659
4.8062
4.7671
4.73135
4.70055
4.67536
4.65547
4.63961
4.62562
4.61068
4.59145
4.56422
4.52565
4.47556
4.41902
4.35641
524.435
517.323
4.37836
4.59834
4.7679
4.88792
4.97035
5.02763
5.06775
5.09436
5.10925
5.11378
5.1087
5.09439
5.07127
5.03995
5.00135
4.95674
4.90775
4.85632
4.80478
4.75589
4.71244
4.67627
4.64787
4.62688
4.61211
4.60145
4.59186
4.57953
4.56014
4.52984
4.48824
4.43853
4.37926
524.758
517.34
4.41907
4.65696
4.8368
4.96103
5.0445
5.10159
5.14065
5.16553
5.17823
5.17979
5.17062
5.1509
5.12098
5.08159
5.03389
4.97949
4.92043
4.85916
4.79867
4.74257
4.69417
4.65481
4.62454
4.60283
4.58861
4.58005
4.57433
4.56758
4.5551
4.53245
4.49844
4.45451
4.39822
525.071
517.354
4.45417
4.70802
4.89797
5.02733
5.113
5.17099
5.21014
5.23458
5.24622
5.24583
5.2336
5.20963
5.17434
5.12858
5.07378
5.01182
4.94502
4.87618
4.80879
4.74706
4.69433
4.6513
4.61771
4.5931
4.57673
4.5673
4.56255
4.55895
4.55166
4.53554
4.50812
4.46939
4.41645
525.352
517.367
4.48641
4.75442
4.95313
5.08688
5.17442
5.23306
5.27214
5.29586
5.30604
5.30333
5.28781
5.25957
5.21907
5.16738
5.10616
5.03757
4.96426
4.88944
4.81722
4.75251
4.69809
4.65376
4.61878
4.59252
4.57437
4.56353
4.55844
4.55623
4.55233
4.54112
4.51902
4.48481
4.43541
525.618
517.38
4.51748
4.79908
5.00642
5.14472
5.2344
5.29396
5.33326
5.35657
5.36568
5.3611
5.34282
5.3109
5.26591
5.20905
5.14219
5.06775
4.98864
4.90842
4.8317
4.76406
4.70789
4.66235
4.62626
4.59871
4.57906
4.56671
4.56067
4.55875
4.55686
4.54928
4.5315
4.5013
4.45542
525.86
517.393
4.54664
4.84044
5.05529
5.19741
5.2888
5.34902
5.3883
5.41098
5.41876
5.41206
5.39081
5.35508
5.30555
5.24361
5.17134
5.09142
5.00707
4.92222
4.8421
4.77292
4.71645
4.67117
4.63542
4.60797
4.588
4.57502
4.56837
4.56644
4.5657
4.56059
4.54607
4.51915
4.47631
526.09
517.407
4.57704
4.88295
5.10498
5.25059
5.3435
5.4043
5.44356
5.46565
5.4722
5.46352
5.43947
5.40016
5.34633
5.27955
5.20208
5.11682
5.02726
4.93767
4.85382
4.78262
4.72552
4.6805
4.64541
4.6186
4.59904
4.58615
4.57943
4.57764
4.57773
4.57443
4.56243
4.53818
4.49776
526.306
517.421
4.60514
4.9217
5.14995
5.29854
5.39274
5.45404
5.49324
5.51472
5.52002
5.50934
5.48253
5.43971
5.38176
5.31037
5.22798
5.13772
5.04333
4.94944
4.86238
4.7898
4.73273
4.68858
4.65484
4.62947
4.61118
4.59924
4.59316
4.59191
4.59279
4.5908
4.58063
4.55833
4.51952
526.513
517.436
4.63508
4.9624
5.19658
5.34776
5.443
5.50466
5.54375
5.56459
5.56865
5.55603
5.52655
5.48039
5.4185
5.3427
5.25559
5.16044
5.06123
4.96288
4.87218
4.79755
4.73998
4.69646
4.66399
4.64025
4.6236
4.61313
4.60825
4.60799
4.60981
4.60897
4.6002
4.57931
4.54141
526.71
517.45
4.66245
4.99911
5.23842
5.39189
5.48813
5.55022
5.58928
5.60961
5.61255
5.59816
5.56622
5.51697
5.45146
5.37162
5.28015
5.18049
5.07682
4.97431
4.88026
4.80383
4.74598
4.70331
4.67245
4.65069
4.63615
4.6277
4.6246
4.62577
4.62872
4.62887
4.62108
4.60104
4.56331
526.901
517.465
4.69152
5.0377
5.28199
5.43748
5.53453
5.59694
5.63593
5.65572
5.65756
5.64144
5.60717
5.55502
5.48613
5.40249
5.30692
5.20292
5.09483
4.98803
4.89018
4.81118
4.75239
4.71011
4.68059
4.66078
4.64847
4.64232
4.64137
4.64436
4.6487
4.64987
4.64284
4.62325
4.58515
527.084
517.48
4.71817
5.07262
5.32125
5.47859
5.57651
5.63935
5.67841
5.69781
5.69872
5.68109
5.64473
5.59
5.51808
5.43105
5.33176
5.2238
5.11159
5.0008
4.89934
4.81782
4.75811
4.71624
4.68816
4.67047
4.66068
4.65715
4.65871
4.66385
4.6698
4.67197
4.66546
4.64591
4.60687
527.262
517.496
4.74619
5.10913
5.36206
5.52111
5.61978
5.68301
5.72209
5.74108
5.74108
5.722
5.6837
5.62657
5.55189
5.46175
5.35902
5.24727
5.13104
5.0161
4.91062
4.82575
4.76435
4.72233
4.69534
4.67963
4.67239
4.67169
4.67602
4.68361
4.6914
4.69466
4.68858
4.66881
4.62844
527.435
517.511
4.77213
5.14254
5.39929
5.55998
5.65951
5.72323
5.76246
5.78117
5.7804
5.76005
5.72003
5.66081
5.58371
5.49085
5.38508
5.26997
5.15006
5.03123
4.92187
4.83355
4.7703
4.72796
4.70197
4.68828
4.68374
4.68608
4.69348
4.70377
4.71355
4.7179
4.7121
4.69186
4.64977
527.603
517.527
4.79912
5.17719
5.43781
5.60013
5.70048
5.76468
5.80401
5.82239
5.82083
5.79925
5.75763
5.69651
5.61726
5.52198
5.41346
5.29523
5.17177
5.04897
4.93533
4.84276
4.77688
4.73359
4.70817
4.69626
4.6944
4.69992
4.71062
4.72389
4.73591
4.74149
4.73595
4.71503
4.67089
527.767
517.543
4.82435
5.20927
5.47347
5.63748
5.73881
5.8036
5.84309
5.86118
5.85889
5.8362
5.79317
5.73042
5.64934
5.55203
5.44119
5.32028
5.19367
5.06718
4.94937
4.85242
4.78358
4.73903
4.71393
4.70371
4.70453
4.71336
4.72753
4.74394
4.75831
4.76511
4.75974
4.73801
4.6916
527.926
517.559
4.8503
5.24218
5.5101
5.67594
5.77841
5.84378
5.88327
5.9009
5.89778
5.874
5.82966
5.76547
5.68282
5.58377
5.47093
5.34762
5.21805
5.08791
4.96568
4.86369
4.79116
4.74466
4.71939
4.71054
4.71396
4.72616
4.74398
4.76377
4.7807
4.7889
4.78374
4.76105
4.71204
528.082
517.575
4.87466
5.27283
5.54432
5.71231
5.81644
5.8825
5.9217
5.93871
5.93474
5.90995
5.86451
5.79914
5.71526
5.61485
5.50044
5.37517
5.24307
5.10959
4.98312
4.87598
4.79937
4.75048
4.72464
4.71693
4.72285
4.73846
4.76003
4.78331
4.80287
4.81243
4.80739
4.78365
4.73191
528.234
517.591
4.89939
5.3038
5.57888
5.74927
5.85466
5.92143
5.96075
5.97693
5.97208
5.94635
5.89994
5.8336
5.74873
5.64726
5.53158
5.40468
5.27032
5.1337
5.00296
4.89033
4.80893
4.75692
4.72989
4.72289
4.7311
4.75009
4.77551
4.80242
4.82475
4.83576
4.83087
4.80599
4.75132
528.383
517.607
4.92274
5.33276
5.61111
5.78373
5.89035
5.95793
5.99759
6.01345
6.00779
5.98126
5.93409
5.86704
5.78149
5.67931
5.56278
5.43469
5.29855
5.15921
5.02452
4.90651
4.8199
4.76421
4.73544
4.72871
4.73896
4.76126
4.79056
4.82119
4.84636
4.85893
4.85456
4.82801
4.77012
528.528
517.624
4.94625
5.36189
5.64363
5.81815
5.92587
5.99422
6.0343
6.05006
6.04355
6.01629
5.96849
5.90093
5.81494
5.71233
5.59527
5.46634
5.32877
5.18706
5.04868
4.92535
4.83295
4.77286
4.7416
4.73454
4.74644
4.77184
4.80498
4.83936
4.86747
4.88181
4.87805
4.8498
4.78839
528.668
517.64
4.96845
5.38918
5.67434
5.85036
5.95912
6.02834
6.06898
6.08486
6.07783
6.05007
6.00186
5.93401
5.84785
5.74514
5.62793
5.49859
5.36008
5.2165
5.0749
4.94662
4.84819
4.78319
4.74879
4.74078
4.75386
4.78211
4.81902
4.85722
4.88848
4.90508
4.90171
4.87181
4.80633
528.805
517.656
4.99049
5.41607
5.70447
5.88199
5.99183
6.06195
6.10324
6.11941
6.1122
6.08381
6.03521
5.96721
5.8811
5.77856
5.6615
5.53211
5.39305
5.24803
5.1036
4.97067
4.86596
4.79553
4.75733
4.74765
4.76135
4.79208
4.83259
4.87463
4.90922
4.9283
4.92534
4.89376
4.82392
528.938
517.672
5.01146
5.44144
5.73281
5.91173
6.02262
6.09366
6.13565
6.15222
6.14504
6.1162
6.06748
5.99961
5.91385
5.81178
5.69522
5.56616
5.42701
5.28105
5.13433
4.99719
4.88626
4.81011
4.76755
4.75555
4.76925
4.80203
4.84592
4.89176
4.92975
4.95139
4.94884
4.91551
4.8411
529.066
517.688
5.03218
5.46634
5.76054
5.94077
6.05268
6.12466
6.16739
6.18442
6.17734
6.1482
6.09947
6.03188
5.94663
5.84526
5.72945
5.60106
5.4622
5.31575
5.16723
5.02632
4.9093
4.82721
4.77977
4.76476
4.77777
4.81208
4.85903
4.90853
4.94991
4.97416
4.97206
4.93695
4.85782
529.19
517.704
5.05203
5.48996
5.78672
5.96815
6.08106
6.15398
6.19751
6.2151
6.20828
6.17902
6.13049
6.06337
5.97886
5.87841
5.76365
5.63625
5.49808
5.35164
5.20186
5.05775
4.93502
4.84699
4.7943
4.77565
4.78727
4.82247
4.87205
4.92498
4.9697
4.9965
4.99486
4.95795
4.87404
529.311
517.72
5.0716
5.51312
5.81221
5.99472
6.10856
6.1824
6.22675
6.24496
6.2385
6.20927
6.16102
6.09447
6.01081
5.91147
5.79796
5.67183
5.53471
5.3887
5.23821
5.09148
4.96349
4.86961
4.81139
4.78851
4.798
4.83344
4.88516
4.94132
4.98952
5.0185
5.01721
4.97848
4.88974
529.427
517.735
5.09051
5.53535
5.83641
6.01982
6.13453
6.2093
6.25449
6.2734
6.26746
6.23857
6.1906
6.12471
6.04205
5.944
5.83198
5.70739
5.57166
5.42653
5.27587
5.12716
4.99456
4.89511
4.83124
4.80366
4.81033
4.84528
4.8986
4.95767
5.0092
5.04015
5.03908
4.99849
4.90492
529.54
517.751
5.10911
5.55739
5.85983
6.04396
6.15949
6.23516
6.28118
6.30078
6.29539
6.26694
6.21932
6.15421
6.07271
5.97612
5.86577
5.74294
5.60887
5.465
5.3147
5.16466
5.02817
4.92352
4.85403
4.82135
4.82453
4.85825
4.91254
4.97409
5.02869
5.06139
5.06045
5.01797
4.91957
529.649
517.766
5.12678
5.57811
5.88186
6.06671
6.18305
6.25961
6.30648
6.3268
6.322
6.29406
6.24693
6.18274
6.10253
6.00754
5.89903
5.77816
5.64602
5.50377
5.3543
5.20362
5.06407
4.95475
4.8798
4.84179
4.8409
4.87264
4.92721
4.99072
5.04801
5.08223
5.0813
5.03689
4.9337
529.756
517.781
5.14396
5.59816
5.90304
6.08849
6.20556
6.28295
6.33063
6.35167
6.34749
6.3201
6.27355
6.21037
6.13156
6.03829
5.93175
5.81301
5.68301
5.54267
5.39449
5.2438
5.10203
4.98863
4.90853
4.86509
4.85963
4.88869
4.94281
5.00767
5.0672
5.10268
5.10163
5.05527
4.9473
529.86
517.796
5.16036
5.61713
5.92301
6.10899
6.22675
6.30497
6.35345
6.37519
6.37162
6.34485
6.29901
6.23695
6.15964
6.06819
5.96374
5.84727
5.71959
5.58141
5.43491
5.2848
5.14166
5.02486
4.94006
4.89127
4.88089
4.90661
4.95952
5.02508
5.08634
5.12275
5.12144
5.07309
4.9604
529.961
517.81
5.17625
5.63539
5.94205
6.12846
6.24687
6.32588
6.37516
6.39761
6.39468
6.36854
6.3234
6.26253
6.18683
6.09731
5.99503
5.88093
5.75571
5.61991
5.4754
5.32637
5.18261
5.06312
4.97417
4.92023
4.90473
4.92654
4.97754
5.04309
5.10551
5.14252
5.14077
5.09037
4.973
530.061
517.824
5.19149
5.65266
5.95995
6.14671
6.26573
6.34551
6.39556
6.41872
6.41645
6.39099
6.34666
6.28702
6.21295
6.12547
6.02546
5.91383
5.79119
5.65794
5.51568
5.36817
5.22447
5.10302
5.01055
4.9518
4.93112
4.94858
4.99697
5.06181
5.1248
5.16201
5.15963
5.10714
4.98513
530.158
517.838
5.20609
5.66907
5.97686
6.16391
6.28349
6.36401
6.41481
6.43867
6.43705
6.4123
6.36885
6.31052
6.23811
6.15262
6.05501
5.94594
5.82598
5.69541
5.55563
5.41
5.26693
5.14425
5.0489
4.98578
4.95997
4.97275
5.01793
5.08137
5.1443
5.18131
5.17809
5.12343
4.99685
530.254
517.852
5.22004
5.68458
5.9927
6.17997
6.30006
6.38129
6.43281
6.45735
6.45638
6.43236
6.38987
6.3329
6.26224
6.17883
6.08355
5.97714
5.85995
5.73218
5.59506
5.45163
5.30971
5.18648
5.08893
5.02193
4.99116
4.99901
5.04044
5.10181
5.16409
5.20048
5.19619
5.13929
5.00817
530.348
517.866
5.23337
5.69923
6.00757
6.19498
6.31555
6.39745
6.44966
6.47485
6.47453
6.45127
6.40977
6.35421
6.28534
6.20404
6.11116
6.00736
5.89305
5.76817
5.63387
5.49289
5.35259
5.22949
5.13037
5.06002
5.02454
5.02734
5.06455
5.12323
5.18424
5.21959
5.21401
5.15478
5.01918
530.44
517.879
5.24603
5.71299
6.02142
6.2089
6.3299
6.41243
6.4653
6.49113
6.49144
6.46894
6.42849
6.37438
6.30732
6.22817
6.13771
6.03656
5.92504
5.80319
5.67185
5.53358
5.39532
5.27298
5.17296
5.09981
5.05994
5.05765
5.09027
5.14569
5.20484
5.23873
5.23161
5.16996
5.02991
530.531
517.891
5.25806
5.72592
6.03431
6.22181
6.34319
6.42631
6.47981
6.50624
6.50717
6.48544
6.44607
6.39344
6.32822
6.25124
6.16322
6.06474
5.95607
5.83718
5.70891
5.57355
5.43769
5.31673
5.21644
5.14107
5.09718
5.08986
5.11758
5.1692
5.22593
5.25795
5.24906
5.1849
5.04045
530.62
517.904
5.26946
5.73801
6.04623
6.23368
6.3554
6.43906
6.49316
6.52015
6.52168
6.50071
6.46246
6.41133
6.34796
6.27315
6.18758
6.09178
5.98599
5.87012
5.74495
5.61265
5.47953
5.36049
5.26053
5.18353
5.13608
5.12387
5.1465
5.19386
5.24764
5.27737
5.26647
5.19969
5.05084
530.708
517.916
5.28026
5.74929
6.05724
6.24457
6.36658
6.45075
6.5054
6.53294
6.53504
6.51484
6.47773
6.4281
6.36659
6.29394
6.2108
6.11767
6.01475
5.9019
5.77988
5.65079
5.52068
5.40405
5.30499
5.22695
5.17641
5.15952
5.17693
5.21966
5.26999
5.29705
5.2839
5.21439
5.06117
530.795
517.927
5.29046
5.75978
6.06731
6.25446
6.3767
6.46135
6.51651
6.54455
6.54721
6.52777
6.49183
6.44372
6.38405
6.31354
6.23282
6.14233
6.04225
5.93243
5.81359
5.68778
5.56098
5.44722
5.34957
5.27107
5.21795
5.19671
5.20889
5.24666
5.29311
5.31712
5.30145
5.2291
5.07148
530.881
517.939
5.3001
5.7695
6.0765
6.26339
6.38584
6.47091
6.52657
6.55508
6.55826
6.53958
6.50483
6.45823
6.4004
6.33201
6.25366
6.16578
6.06851
5.96168
5.84602
5.72355
5.60021
5.48972
5.39399
5.3156
5.26047
5.23524
5.24227
5.27487
5.31702
5.33762
5.31922
5.24387
5.08182
530.967
517.95
5.30916
5.77843
6.08478
6.27135
6.39394
6.47942
6.53552
6.56447
6.56816
6.55024
6.51669
6.47162
6.4156
6.3493
6.27328
6.18796
6.09344
5.98958
5.8771
5.75805
5.63838
5.53145
5.43804
5.36026
5.30368
5.27493
5.27702
5.30442
5.34187
5.35869
5.3373
5.2588
5.09225
531.052
517.96
5.31769
5.78662
6.09218
6.27837
6.40108
6.48693
6.54345
6.57282
6.577
6.55984
6.52753
6.48397
6.42974
6.36548
6.29175
6.20891
6.1171
6.01616
5.90684
5.79127
5.67548
5.5723
5.48154
5.40484
5.34734
5.31557
5.31301
5.33522
5.36765
5.38038
5.35574
5.27393
5.1028
531.137
517.971
5.32563
5.79401
6.09866
6.2844
6.4072
6.49339
6.55032
6.58009
6.58475
6.56836
6.5373
6.49526
6.4428
6.38054
6.30903
6.22863
6.13947
6.04139
5.93522
5.82319
5.71149
5.61221
5.52433
5.4491
5.3912
5.35692
5.35009
5.36719
5.39444
5.40279
5.37467
5.28936
5.11352
531.222
517.981
5.33305
5.80067
6.10428
6.28952
6.41237
6.49888
6.55619
6.58635
6.59151
6.5759
6.54614
6.50561
6.45489
6.39459
6.32524
6.24721
6.16061
6.06534
5.9623
5.85387
5.74646
5.65116
5.56633
5.49287
5.43502
5.39875
5.38804
5.40018
5.42215
5.42591
5.39411
5.30511
5.12443
531.307
517.991
5.33988
5.8065
6.10897
6.29365
6.41652
6.50333
6.56102
6.59157
6.59722
6.58244
6.554
6.51501
6.46601
6.40762
6.34038
6.26463
6.18053
6.08801
5.98806
5.88327
5.78032
5.68907
5.60745
5.53605
5.47865
5.44086
5.42668
5.43408
5.45078
5.4498
5.41412
5.32126
5.13557
531.393
518
5.34617
5.81161
6.11281
6.29687
6.41973
6.50684
6.56489
6.59583
6.602
6.58807
6.56102
6.52357
6.47628
6.41977
6.35456
6.28103
6.19934
6.10949
6.01259
5.91144
5.81305
5.72589
5.64759
5.57846
5.52184
5.48299
5.46578
5.46875
5.48021
5.47441
5.43471
5.3378
5.14695
531.48
518.01
5.35188
5.81591
6.11572
6.29911
6.42194
6.50932
6.56774
6.59907
6.60579
6.59277
6.56716
6.53129
6.4857
6.43103
6.36782
6.29643
6.21707
6.12981
6.0359
5.93839
5.84463
5.76159
5.68671
5.62005
5.56455
5.52501
5.50518
5.50403
5.51039
5.49973
5.4559
5.35479
5.15861
531.567
518.019
5.35707
5.81949
6.1178
6.30047
6.42322
6.51086
6.56964
6.60139
6.60869
6.59663
6.57254
6.53827
6.49439
6.44153
6.38025
6.31094
6.23384
6.1491
6.05811
5.9642
5.87509
5.79618
5.72476
5.6607
5.60656
5.56669
5.54468
5.53978
5.54119
5.52569
5.47765
5.37222
5.17055
531.656
518.027
5.36169
5.8223
6.11897
6.30085
6.4235
6.51139
6.57053
6.60271
6.61065
6.59962
6.57712
6.54449
6.50233
6.45127
6.39189
6.32461
6.24971
6.16742
6.07931
5.98898
5.90453
5.82972
5.76179
5.70042
5.64785
5.60799
5.58413
5.57583
5.57251
5.55223
5.49996
5.39007
5.18277
531.745
518.036
5.36583
5.82443
6.11935
6.30036
6.42287
6.51097
6.57047
6.60312
6.61175
6.60185
6.581
6.55005
6.5096
6.46032
6.40281
6.33751
6.26475
6.18486
6.09957
6.01281
5.933
5.86226
5.7978
5.73917
5.68832
5.64873
5.6234
5.61206
5.60425
5.5793
5.52278
5.40837
5.19528
531.835
518.044
5.36943
5.82581
6.11884
6.29892
6.42124
6.50954
6.56939
6.60254
6.61196
6.6033
6.58416
6.55489
6.51616
6.46867
6.41302
6.34968
6.27904
6.20151
6.11904
6.03585
5.96064
5.89392
5.83289
5.77701
5.72796
5.68887
5.66238
5.6483
5.63627
5.6068
5.54606
5.42704
5.20805
531.926
518.052
5.37257
5.82654
6.11756
6.29662
6.41871
6.50717
6.56736
6.60103
6.61136
6.60423
6.58668
6.55907
6.52206
6.47635
6.42256
6.36117
6.29262
6.21744
6.13779
6.05823
5.98754
5.92476
5.8671
5.81395
5.76678
5.72833
5.70095
5.68448
5.66846
5.63464
5.56976
5.4461
5.22111
532.017
518.06
5.3752
5.82655
6.11542
6.2934
6.4152
6.50379
6.5643
6.59848
6.60975
6.60421
6.58833
6.56244
6.52721
6.48333
6.43141
6.37199
6.30555
6.23275
6.15597
6.08015
6.01387
5.9549
5.90052
5.85007
5.8048
5.76713
5.7391
5.72054
5.70076
5.66276
5.59381
5.46549
5.23441
532.109
518.067
5.37737
5.82592
6.11253
6.28935
6.41082
6.4995
6.56031
6.59502
6.60726
6.60339
6.58924
6.56512
6.53169
6.48965
6.43963
6.38218
6.31787
6.24751
6.17371
6.10181
6.03975
5.98444
5.93321
5.88537
5.84199
5.80518
5.77668
5.75632
5.73307
5.69106
5.61812
5.48515
5.24791
532.201
518.075
5.37902
5.82459
6.10882
6.28441
6.4055
6.49424
6.55533
6.59058
6.60384
6.60173
6.58936
6.56706
6.53548
6.49531
6.4472
6.39175
6.32961
6.26174
6.19103
6.12327
6.06526
6.01344
5.96524
5.91993
5.87842
5.84253
5.81373
5.79179
5.76532
5.71951
5.64267
5.50505
5.26158
532.293
518.082
5.38023
5.82264
6.10438
6.27867
6.39934
6.48812
6.54946
6.58525
6.59958
6.59929
6.58876
6.56832
6.5386
6.50032
6.45414
6.40071
6.34076
6.27543
6.20792
6.14443
6.09034
6.04188
5.99658
5.9537
5.91403
5.87912
5.85016
5.82689
5.79743
5.74802
5.66737
5.52509
5.27535
532.386
518.088
5.38095
5.82002
6.09917
6.2721
6.39231
6.48108
6.54267
6.57902
6.59447
6.59608
6.58745
6.5689
6.54109
6.50472
6.46048
6.40908
6.35135
6.2886
6.22436
6.16521
6.11495
6.06975
6.02724
5.98671
5.94882
5.91489
5.88586
5.86145
5.82924
5.77643
5.69211
5.54522
5.2892
532.478
518.095
5.38122
5.8168
6.09326
6.26478
6.38448
6.47323
6.53505
6.57197
6.58858
6.59216
6.58547
6.56885
6.54296
6.50852
6.46626
6.4169
6.36141
6.30128
6.24036
6.18559
6.13907
6.09703
6.05723
6.01898
5.98285
5.94997
5.921
5.89562
5.86082
5.80478
5.71687
5.5654
5.3031
532.571
518.101
5.38103
5.81295
6.08663
6.25667
6.37583
6.46453
6.52658
6.56411
6.58195
6.58755
6.58285
6.56819
6.54425
6.51177
6.47149
6.42421
6.37099
6.31353
6.25599
6.20558
6.16271
6.12374
6.08653
6.05046
6.016
5.98408
5.95517
5.92906
5.89196
5.8329
5.74156
5.58557
5.31702
532.662
518.107
5.38043
5.80855
6.07936
6.24787
6.36645
6.45508
6.51736
6.55553
6.57466
6.58235
6.57965
6.56697
6.545
6.5145
6.47624
6.43107
6.38017
6.32544
6.27139
6.22526
6.18594
6.14991
6.1152
6.08122
6.04839
6.01749
5.98889
5.96198
5.92271
5.86082
5.76618
5.60578
5.33106
532.754
518.113
5.37941
5.80359
6.07143
6.23835
6.3563
6.44483
6.50736
6.54625
6.56677
6.57658
6.57591
6.56521
6.54523
6.51674
6.48053
6.43753
6.38903
6.33715
6.28674
6.24476
6.20883
6.17562
6.14329
6.11131
6.08008
6.05026
6.0222
5.9944
5.95301
5.88844
5.79064
5.62593
5.34518
532.844
518.118
5.37804
5.79814
6.06293
6.22818
6.34546
6.43385
6.49664
6.53635
6.55847
6.57035
6.57166
6.56295
6.54497
6.51852
6.48442
6.44366
6.39765
6.34878
6.30224
6.26422
6.23151
6.20096
6.17089
6.14082
6.11114
6.08243
6.055
6.02634
5.98292
5.91579
5.81495
5.64602
5.35931
532.935
518.124
5.37633
5.79222
6.05384
6.21736
6.33389
6.42209
6.48512
6.52576
6.5498
6.56358
6.56685
6.56015
6.54422
6.51985
6.48791
6.44947
6.40608
6.36038
6.31792
6.28369
6.25402
6.22598
6.19802
6.16976
6.14155
6.11392
6.08715
6.05768
6.01233
5.94277
5.83898
5.66592
5.37333
533.024
518.129
5.37435
5.78588
6.04424
6.20594
6.32166
6.40959
6.47277
6.51428
6.54022
6.55602
6.56138
6.55678
6.54297
6.52075
6.49104
6.45498
6.41432
6.37194
6.33373
6.30315
6.27639
6.25073
6.22478
6.19821
6.17139
6.14481
6.11872
6.08848
6.0413
5.96942
5.86279
5.68568
5.38725
533.112
518.134
5.37207
5.77909
6.03409
6.1939
6.30875
6.39635
6.45969
6.50211
6.53005
6.54791
6.55538
6.55293
6.54128
6.52126
6.49382
6.46021
6.42235
6.38342
6.34953
6.32251
6.29857
6.27519
6.25114
6.22616
6.20065
6.17505
6.14961
6.11862
6.0697
5.99562
5.88624
5.70515
5.401
533.199
518.139
5.36954
5.7719
6.02343
6.18128
6.29518
6.38239
6.44581
6.48912
6.51907
6.53906
6.54872
6.54851
6.53911
6.52135
6.49625
6.46518
6.43022
6.39484
6.36531
6.34176
6.32057
6.2994
6.27716
6.25371
6.22942
6.20475
6.17993
6.14823
6.09764
6.02145
5.90943
5.72444
5.41462
533.286
518.144
5.36669
5.76424
6.01221
6.16805
6.28097
6.36773
6.43121
6.47543
6.50743
6.52957
6.54147
6.54354
6.53645
6.52104
6.49837
6.46993
6.43798
6.40629
6.38103
6.36086
6.34231
6.32327
6.3028
6.28079
6.25767
6.23385
6.20961
6.17719
6.125
6.04678
5.93219
5.74339
5.428
533.37
518.148
5.36355
5.75613
6.00045
6.15422
6.26611
6.35239
6.4159
6.46103
6.49511
6.51942
6.5336
6.53801
6.5333
6.52033
6.5002
6.4745
6.44573
6.41792
6.39681
6.37986
6.36385
6.34687
6.32809
6.30748
6.28548
6.26248
6.23879
6.20566
6.15192
6.07177
5.95467
5.76213
5.44123
533.454
518.153
5.36008
5.7475
5.9881
6.13977
6.2506
6.33638
6.39994
6.44603
6.4822
6.50868
6.52514
6.53192
6.52966
6.5192
6.50172
6.47893
6.45353
6.42984
6.41266
6.39877
6.38517
6.37013
6.35296
6.3337
6.31275
6.29052
6.26735
6.23351
6.17827
6.09624
5.97671
5.78051
5.4542
533.536
518.157
5.35624
5.73837
5.97517
6.12469
6.23442
6.3197
6.38338
6.4305
6.46879
6.49744
6.51617
6.52533
6.52555
6.51769
6.50297
6.48323
6.46139
6.44203
6.42863
6.41764
6.40631
6.39311
6.37749
6.35951
6.3396
6.31814
6.29547
6.26093
6.20424
6.12041
5.99851
5.79871
5.46705
533.616
518.161
5.35207
5.72877
5.96166
6.10893
6.21751
6.3023
6.36621
6.41456
6.45498
6.48578
6.50676
6.51831
6.52103
6.51581
6.50392
6.48735
6.46923
6.45434
6.44459
6.43637
6.42721
6.41576
6.40159
6.38483
6.36588
6.3451
6.32295
6.28773
6.22964
6.14407
6.01987
5.81654
5.47965
533.695
518.165
5.34767
5.71879
5.9476
6.09248
6.1998
6.28406
6.34837
6.39841
6.44081
6.47374
6.49701
6.51097
6.51622
6.51367
6.50468
6.49138
6.4771
6.46672
6.46049
6.45496
6.44789
6.43812
6.42533
6.40973
6.39173
6.37174
6.34998
6.31411
6.2547
6.16746
6.04103
5.83424
5.49218
533.772
518.169
5.34312
5.70846
5.93299
6.07529
6.18117
6.26479
6.3295
6.38142
6.42597
6.46122
6.48692
6.50338
6.51122
6.51139
6.50536
6.4954
6.4851
6.47915
6.47634
6.47339
6.46831
6.46015
6.44869
6.43421
6.4172
6.39817
6.37652
6.33991
6.2792
6.19036
6.06175
5.85158
5.50446
533.847
518.173
5.33857
5.69792
5.91789
6.05737
6.16159
6.24441
6.30955
6.36355
6.41048
6.44828
6.47658
6.49566
6.50616
6.50912
6.50613
6.49965
6.49347
6.49179
6.49221
6.49172
6.48856
6.48194
6.47177
6.45842
6.44241
6.42439
6.40278
6.36539
6.30342
6.21303
6.08231
5.86883
5.51669
533.921
518.177
5.33408
5.68717
5.90229
6.03864
6.1409
6.22269
6.28823
6.34448
6.39405
6.43468
6.46583
6.48772
6.50104
6.50692
6.50711
6.50426
6.50239
6.50473
6.50818
6.51
6.50865
6.50349
6.49453
6.48224
6.46721
6.45016
6.42851
6.39031
6.32709
6.2352
6.10242
5.8857
5.52864
533.993
518.182
5.32972
5.67632
5.88627
6.01916
6.11911
6.19959
6.26544
6.32407
6.37654
6.4203
6.45458
6.47951
6.49582
6.50477
6.50828
6.50924
6.51185
6.51799
6.5243
6.5283
6.52866
6.52488
6.5171
6.50583
6.49176
6.47566
6.45396
6.41495
6.35052
6.25717
6.1224
5.90248
5.54052
534.064
518.186
5.32552
5.66537
5.86983
5.9989
6.09613
6.17495
6.24096
6.30205
6.35767
6.40487
6.44259
6.47083
6.49036
6.50257
6.50958
6.51452
6.5217
6.53146
6.54048
6.54655
6.54853
6.54607
6.53938
6.52907
6.51588
6.50066
6.47886
6.43902
6.3734
6.27863
6.14191
5.91886
5.55208
534.132
518.191
5.32153
5.65442
5.85308
5.97796
6.07203
6.14877
6.21474
6.27832
6.33729
6.38824
6.42969
6.46151
6.4845
6.50018
6.51089
6.51999
6.53175
6.54501
6.55666
6.56475
6.56831
6.56712
6.5615
6.55212
6.53978
6.52541
6.50348
6.46283
6.39605
6.29992
6.16128
5.93514
5.56354
534.201
518.197
5.3178
5.64352
5.83608
5.95637
6.04679
6.12102
6.18674
6.25279
6.31526
6.37017
6.41564
6.45135
6.47808
6.49751
6.51216
6.52565
6.54192
6.55857
6.57275
6.58278
6.58787
6.58791
6.58331
6.5748
6.56325
6.54965
6.52755
6.48606
6.41814
6.32067
6.18016
5.95098
5.57464
534.266
518.203
5.3144
5.63279
5.81895
5.93423
6.02046
6.0917
6.15693
6.22537
6.29143
6.35051
6.40026
6.44013
6.47091
6.49438
6.51329
6.53145
6.55212
6.57204
6.58869
6.60064
6.60726
6.60853
6.60495
6.5973
6.58652
6.57367
6.55136
6.50906
6.44004
6.34126
6.19891
5.96672
5.58562
534.332
518.209
5.31142
5.62231
5.80177
5.9116
5.99307
6.06082
6.12535
6.19604
6.26573
6.32915
6.38342
6.42772
6.46283
6.49065
6.51413
6.53729
6.56221
6.58529
6.60436
6.6182
6.62632
6.62881
6.62622
6.6194
6.60934
6.59716
6.5746
6.53145
6.46133
6.36127
6.21711
5.98195
5.59617
534.395
518.216
5.30889
5.61217
5.78466
5.88857
5.96461
6.02833
6.09206
6.16461
6.23793
6.30587
6.36489
6.41389
6.45359
6.48605
6.51441
6.5428
6.5719
6.59814
6.61963
6.63539
6.64505
6.64879
6.64723
6.64126
6.63193
6.62042
6.59761
6.55363
6.48245
6.38114
6.23519
5.99708
5.6066
534.46
518.223
5.30685
5.60243
5.76773
5.86525
5.93513
5.99407
6.05661
6.13078
6.20782
6.28051
6.34454
6.39849
6.44305
6.4804
6.51391
6.54766
6.58092
6.61031
6.63427
6.652
6.66325
6.6683
6.66778
6.66266
6.654
6.64311
6.61999
6.57515
6.50291
6.40036
6.25264
6.01163
5.61654
534.521
518.23
5.30535
5.59325
5.75116
5.84181
5.90479
5.95819
6.01901
6.09458
6.17534
6.25292
6.32218
6.3813
6.43096
6.47347
6.5124
6.55157
6.58898
6.62159
6.64812
6.66793
6.68089
6.68733
6.68795
6.68375
6.67591
6.66558
6.64217
6.59651
6.52323
6.41947
6.27001
6.0261
5.62635
534.585
518.238
5.30447
5.58471
5.73507
5.81841
5.87368
5.92073
5.97927
6.05598
6.14046
6.22306
6.29773
6.36225
6.41724
6.46517
6.50979
6.5543
6.59584
6.63172
6.6609
6.6829
6.69769
6.70562
6.70747
6.70429
6.69745
6.68743
6.66362
6.61712
6.54282
6.43786
6.28667
6.03991
5.63561
534.645
518.246
5.30425
5.5769
5.71953
5.7951
5.8419
5.88179
5.93746
6.01505
6.1032
6.19089
6.2711
6.34119
6.40174
6.45535
6.50593
6.55568
6.60133
6.64054
6.6725
6.69687
6.71365
6.72328
6.72656
6.72461
6.71892
6.70918
6.68495
6.6376
6.5623
6.45616
6.30326
6.05365
5.64477
534.709
518.255
5.30489
5.57002
5.70469
5.77198
5.80953
5.84136
5.89354
5.97187
6.06371
6.15654
6.24236
6.31814
6.38439
6.44387
6.5006
6.55545
6.60519
6.64778
6.68263
6.70949
6.72843
6.7399
6.74473
6.74412
6.73961
6.73014
6.70546
6.65726
6.58097
6.47366
6.31907
6.06666
5.6533
534.768
518.265
5.30654
5.56416
5.69062
5.74906
5.77642
5.79942
5.8476
5.92645
6.02195
6.11997
6.21148
6.29303
6.36509
6.43059
6.49355
6.55345
6.60729
6.65338
6.69127
6.72081
6.74212
6.75566
6.76228
6.76321
6.76004
6.75089
6.72582
6.67679
6.59953
6.49108
6.33481
6.0796
5.66173
534.831
518.275
5.30927
5.5594
5.67745
5.72647
5.74267
5.75585
5.79936
5.87861
5.97786
6.08119
6.17849
6.26587
6.34382
6.41542
6.48455
6.54941
6.60738
6.65702
6.69807
6.73044
6.75427
6.77004
6.7786
6.78118
6.7794
6.77064
6.74519
6.69538
6.61719
6.50762
6.3497
6.09175
5.66947
534.89
518.287
5.31304
5.55571
5.66522
5.70432
5.70835
5.71053
5.74863
5.82804
5.93118
6.04003
6.14326
6.23659
6.32054
6.39835
6.47349
6.54325
6.60538
6.6587
6.70309
6.73849
6.76509
6.78333
6.79407
6.79852
6.79832
6.79005
6.76431
6.71378
6.6347
6.52404
6.36448
6.10379
5.67706
534.955
518.299
5.31757
5.55293
5.65397
5.68289
5.67385
5.66376
5.69535
5.77435
5.88142
5.99606
6.1055
6.20498
6.29507
6.37921
6.46015
6.53468
6.60096
6.65804
6.70588
6.74447
6.77398
6.79487
6.80794
6.81439
6.81586
6.80818
6.78224
6.73108
6.6512
6.5395
6.37835
6.11497
5.6839
535.013
518.311
5.32253
5.55086
5.64375
5.66245
5.63967
5.61592
5.63943
5.71714
5.82799
5.94864
6.06461
6.17053
6.26701
6.35769
6.44428
6.52359
6.5941
6.65507
6.70656
6.74857
6.78126
6.80506
6.82073
6.82942
6.83275
6.8258
6.79978
6.74807
6.66744
6.55475
6.39205
6.12601
5.69057
535.078
518.323
5.32754
5.54923
5.63448
5.64327
5.60651
5.56797
5.58175
5.65689
5.77078
5.89734
6.02002
6.13264
6.23575
6.33312
6.42534
6.50945
6.58429
6.6493
6.70458
6.75018
6.78622
6.8131
6.83153
6.84261
6.84793
6.84186
6.8159
6.76379
6.68254
6.56896
6.40478
6.13615
5.69646
535.137
518.334
5.33237
5.54784
5.62599
5.62533
5.57463
5.52038
5.52273
5.59358
5.70958
5.84183
5.97133
6.09089
6.20086
6.30512
6.40307
6.49217
6.57157
6.64085
6.7002
6.74965
6.78933
6.81957
6.84103
6.85475
6.86226
6.85723
6.83146
6.77906
6.69727
6.58285
6.41724
6.14606
5.70212
535.203
518.345
5.33696
5.54649
5.61804
5.60847
5.54427
5.47409
5.46365
5.52844
5.64523
5.78242
5.91856
6.0451
6.16206
6.27328
6.37707
6.47132
6.55545
6.62919
6.69279
6.74628
6.78977
6.82354
6.84821
6.86473
6.87458
6.87077
6.84538
6.79288
6.71071
6.59559
6.42865
6.15502
5.70697
535.262
518.356
5.34138
5.54504
5.61023
5.59212
5.51479
5.42875
5.40483
5.46226
5.57854
5.71986
5.86222
5.99561
6.11958
6.23776
6.34749
6.44708
6.53619
6.61468
6.68281
6.74065
6.78824
6.82583
6.85395
6.8735
6.88588
6.88344
6.85857
6.80607
6.72362
6.60786
6.43965
6.16362
5.7115
535.331
518.367
5.34569
5.54334
5.60232
5.57595
5.48585
5.38421
5.34652
5.3957
5.51041
5.65499
5.803
5.94291
6.0737
6.19861
6.31424
6.41922
6.51343
6.59681
6.66964
6.73196
6.7838
6.82536
6.85711
6.87991
6.89491
6.89404
6.86992
6.81765
6.7351
6.61886
6.44952
6.17121
5.71517
535.39
518.379
5.34983
5.54124
5.59404
5.55955
5.4569
5.33986
5.2883
5.32875
5.4412
5.58837
5.74152
5.8876
6.02501
6.15638
6.27784
6.38829
6.48777