/*--------------------------------*- C++ -*----------------------------------*\
| =========                 |                                                 |
| \\      /  F ield         | OpenFOAM: The Open Source CFD Toolbox           |
|  \\    /   O peration     | Version:  v1906                                 |
|   \\  /    A nd           | Web:      www.OpenFOAM.com                      |
|    \\/     M anipulation  |                                                 |
\*---------------------------------------------------------------------------*/
FoamFile
{
    version     2.0;
    format      ascii;
    class       surfaceScalarField;
    location    "77.6/oil";
    object      phi;
}
// * * * * * * * * * * * * * * * * * * * * * * * * * * * * * * * * * * * * * //

dimensions      [1 0 -1 0 0 0 0];
oriented        oriented;


internalField   nonuniform List<scalar> 
80688
(
-2.11867e-06
-2.1544e-06
-2.11866e-06
-9.55715e-07
-6.01486e-07
-5.61467e-07
-2.56345e-07
-3.5234e-07
-3.47031e-07
-1.20176e-07
-6.87421e-08
-6.74271e-08
-3.90932e-08
-4.09675e-08
-4.01151e-08
1.66586e-09
-2.05463e-08
-2.02126e-08
2.44836e-08
-1.12942e-08
-1.15234e-08
3.73008e-08
-6.08608e-09
-6.73107e-09
4.35288e-08
-2.68691e-09
-3.54101e-09
4.46352e-08
-1.35743e-10
-9.7058e-10
4.14004e-08
1.97745e-09
1.25734e-09
3.44747e-08
3.72032e-09
3.20547e-09
2.45729e-08
5.09228e-09
4.8095e-09
1.25542e-08
6.05481e-09
5.96391e-09
-5.89328e-10
6.56334e-09
6.58025e-09
-1.37978e-08
6.59523e-09
6.61326e-09
-2.6026e-08
6.15791e-09
6.07027e-09
-3.63322e-08
5.29193e-09
5.01437e-09
-4.39649e-08
4.07048e-09
3.5622e-09
-4.84208e-08
2.58651e-09
1.86942e-09
-4.94925e-08
9.4594e-10
1.25758e-10
-4.72537e-08
-7.18291e-10
-1.52047e-09
-4.21039e-08
-2.28943e-09
-2.86039e-09
-3.46962e-08
-3.67244e-09
-3.73518e-09
-2.59226e-08
-4.73649e-09
-4.03709e-09
-1.68667e-08
-5.33493e-09
-3.721e-09
-8.7371e-09
-5.2776e-09
-2.85197e-09
-2.74314e-09
-4.33127e-09
-1.66266e-09
1.78022e-10
-2.28045e-09
-6.40675e-10
3.51265e-10
-1.73226e-10
-5.69233e-07
-1.01594e-06
-5.69226e-07
-3.36537e-07
-3.78949e-07
-4.55233e-07
-2.32431e-07
-2.63173e-07
-1.93272e-07
-9.92944e-08
-1.25857e-07
-7.60212e-08
-1.91585e-08
-8.42037e-08
-3.68995e-08
3.11018e-08
-5.793e-08
-1.28765e-08
6.37368e-08
-4.40675e-08
1.38385e-10
8.37627e-08
-3.46692e-08
8.55727e-09
9.35461e-08
-2.74307e-08
1.49604e-08
9.42244e-08
-2.12337e-08
2.04197e-08
8.66579e-08
-1.57521e-08
2.5296e-08
7.18236e-08
-1.10125e-08
2.95673e-08
5.104e-08
-7.17762e-09
3.30535e-08
2.59976e-08
-4.45413e-09
3.55513e-08
-1.31729e-09
-3.00505e-09
3.68833e-08
-2.87612e-08
-2.91722e-09
3.69564e-08
-5.42148e-08
-4.17337e-09
3.57849e-08
-7.57709e-08
-6.64667e-09
3.34948e-08
-9.19031e-08
-1.01119e-08
3.03146e-08
-1.01592e-07
-1.42632e-08
2.65386e-08
-1.04413e-07
-1.87478e-08
2.25146e-08
-1.00546e-07
-2.3176e-08
1.85911e-08
-9.07628e-08
-2.71571e-08
1.50842e-08
-7.63744e-08
-3.02931e-08
1.22323e-08
-5.91284e-08
-3.21637e-08
1.01812e-08
-4.10814e-08
-3.23009e-08
8.91898e-09
-2.44165e-08
-3.01624e-08
8.22004e-09
-1.1174e-08
-2.51452e-08
7.57141e-09
-2.85151e-09
-1.66931e-08
6.09028e-09
-5.35896e-09
2.85874e-09
-3.52184e-07
-3.1158e-07
-3.52176e-07
-2.27625e-07
-3.08963e-07
-1.94545e-07
-1.38719e-07
-2.36712e-07
-1.15366e-07
-4.89736e-08
-1.64696e-07
-5.09072e-08
1.58676e-08
-1.32388e-07
-1.66564e-08
6.36789e-08
-1.10557e-07
4.81587e-09
9.75104e-08
-9.62264e-08
1.83276e-08
1.19174e-07
-8.45414e-08
2.82083e-08
1.29421e-07
-7.40302e-08
3.63527e-08
1.2867e-07
-6.40925e-08
4.36096e-08
1.17524e-07
-5.47896e-08
5.01843e-08
9.702e-08
-4.64798e-08
5.5971e-08
6.87862e-08
-3.96386e-08
6.06948e-08
3.49843e-08
-3.4729e-08
6.40768e-08
-1.78909e-09
-3.2108e-08
6.58764e-08
-3.87201e-08
-3.1959e-08
6.59728e-08
-7.30196e-08
-3.4256e-08
6.43822e-08
-1.02172e-07
-3.87584e-08
6.12641e-08
-1.24171e-07
-4.50255e-08
5.69128e-08
-1.37673e-07
-5.24652e-08
5.17042e-08
-1.42123e-07
-6.03774e-08
4.60792e-08
-1.3775e-07
-6.80021e-08
4.04534e-08
-1.25561e-07
-7.4559e-08
3.52131e-08
-1.0722e-07
-7.92548e-08
3.06205e-08
-8.49181e-08
-8.12709e-08
2.68054e-08
-6.11833e-08
-7.97306e-08
2.36949e-08
-3.86203e-08
-7.36737e-08
2.09483e-08
-1.96224e-08
-6.20289e-08
1.78858e-08
-6.11076e-09
-4.36136e-08
1.34088e-08
-1.75885e-08
6.11885e-09
-6.34162e-08
-1.84757e-07
-6.3407e-08
-7.60145e-08
-2.27168e-07
-6.91967e-08
-4.33209e-08
-2.23042e-07
-4.6364e-08
8.31204e-09
-2.01965e-07
-1.43639e-08
5.66311e-08
-1.88409e-07
7.70125e-09
9.77967e-08
-1.75697e-07
2.39747e-08
1.29365e-07
-1.63991e-07
3.61967e-08
1.50189e-07
-1.51723e-07
4.6357e-08
1.59428e-07
-1.38738e-07
5.54685e-08
1.56692e-07
-1.25311e-07
6.3955e-08
1.4222e-07
-1.12115e-07
7.17974e-08
1.16992e-07
-1.00007e-07
7.87546e-08
8.27874e-08
-8.9889e-08
8.44547e-08
4.20929e-08
-8.25738e-08
8.85393e-08
-2.0681e-09
-7.8658e-08
9.0711e-08
-4.63892e-08
-7.84551e-08
9.08173e-08
-8.75862e-08
-8.19339e-08
8.88749e-08
-1.22699e-07
-8.87186e-08
8.50734e-08
-1.4936e-07
-9.81189e-08
7.97544e-08
-1.66001e-07
-1.0919e-07
7.33647e-08
-1.7196e-07
-1.20821e-07
6.64026e-08
-1.67511e-07
-1.31808e-07
5.9357e-08
-1.53794e-07
-1.40919e-07
5.26432e-08
-1.32701e-07
-1.46892e-07
4.65448e-08
-1.06683e-07
-1.48466e-07
4.11768e-08
-7.8528e-08
-1.44307e-07
3.64217e-08
-5.11044e-08
-1.32965e-07
3.18673e-08
-2.70899e-08
-1.12763e-07
2.67199e-08
-8.94735e-09
-8.14611e-08
1.9705e-08
-3.54919e-08
8.95602e-09
-2.81895e-08
-1.28388e-07
-2.81793e-08
-2.2345e-08
-2.09617e-07
-2.33954e-08
6.90531e-09
-2.44791e-07
-7.50122e-09
4.83316e-08
-2.55095e-07
1.17042e-08
9.03748e-08
-2.57774e-07
2.73224e-08
1.28259e-07
-2.53971e-07
4.03898e-08
1.58354e-07
-2.45731e-07
5.16444e-08
1.78269e-07
-2.33641e-07
6.20025e-08
1.86314e-07
-2.18703e-07
7.19213e-08
1.81573e-07
-2.02069e-07
8.14979e-08
1.64009e-07
-1.85068e-07
9.05184e-08
1.34555e-07
-1.6914e-07
9.85874e-08
9.50988e-08
-1.55673e-07
1.0524e-07
4.83855e-08
-1.45871e-07
1.10011e-07
-2.1979e-09
-1.40621e-07
1.12547e-07
-5.29304e-08
-1.40378e-07
1.12656e-07
-1.00102e-07
-1.45112e-07
1.1035e-07
-1.40374e-07
-1.543e-07
1.05853e-07
-1.7108e-07
-1.66974e-07
9.95607e-08
-1.9046e-07
-1.81803e-07
9.19935e-08
-1.97776e-07
-1.97233e-07
8.37278e-08
-1.93324e-07
-2.11574e-07
7.53139e-08
-1.78364e-07
-2.23082e-07
6.72029e-08
-1.54948e-07
-2.30023e-07
5.97155e-08
-1.25723e-07
-2.30652e-07
5.29605e-08
-9.36853e-08
-2.23137e-07
4.67927e-08
-6.19275e-08
-2.05467e-07
4.07447e-08
-3.3449e-08
-1.7516e-07
3.39183e-08
-1.12887e-08
-1.28488e-07
2.48665e-08
-5.80786e-08
1.1298e-08
-4.32626e-09
-1.19747e-07
-4.31481e-09
1.11319e-08
-2.2987e-07
4.79483e-09
4.05989e-08
-2.91367e-07
1.71093e-08
7.88664e-08
-3.23851e-07
3.04885e-08
1.18716e-07
-3.40269e-07
4.26455e-08
1.55405e-07
-3.44613e-07
5.39522e-08
1.84953e-07
-3.40076e-07
6.47971e-08
2.04349e-07
-3.28617e-07
7.55806e-08
2.11398e-07
-3.1218e-07
8.64272e-08
2.04827e-07
-2.92696e-07
9.71988e-08
1.84405e-07
-2.72154e-07
1.07508e-07
1.51024e-07
-2.52573e-07
1.16814e-07
1.06674e-07
-2.3585e-07
1.24527e-07
5.43532e-08
-2.23618e-07
1.30068e-07
-2.21365e-09
-2.1706e-07
1.33006e-07
-5.89079e-08
-2.16793e-07
1.33109e-07
-1.1162e-07
-2.2279e-07
1.3039e-07
-1.56648e-07
-2.34373e-07
1.25101e-07
-1.91048e-07
-2.50282e-07
1.17709e-07
-2.12892e-07
-2.68789e-07
1.0883e-07
-2.21379e-07
-2.87878e-07
9.91321e-08
-2.16841e-07
-3.05345e-07
8.92336e-08
-2.00648e-07
-3.18956e-07
7.9681e-08
-1.75008e-07
-3.26471e-07
7.08075e-08
-1.42754e-07
-3.25642e-07
6.27369e-08
-1.07085e-07
-3.14111e-07
5.53044e-08
-7.13422e-08
-2.89205e-07
4.79953e-08
-3.8856e-08
-2.47456e-07
3.981e-08
-1.32207e-08
-1.83235e-07
2.91118e-08
-8.45302e-08
1.32309e-08
6.48382e-09
-1.32727e-07
6.49648e-09
2.87792e-08
-2.72099e-07
1.99338e-08
6.17489e-08
-3.56369e-07
3.20323e-08
1.01194e-07
-4.06799e-07
4.35031e-08
1.4178e-07
-4.35193e-07
5.43377e-08
1.79097e-07
-4.4702e-07
6.50901e-08
2.09138e-07
-4.4626e-07
7.61438e-08
2.28621e-07
-4.35813e-07
8.77126e-08
2.35074e-07
-4.18376e-07
9.97436e-08
2.26972e-07
-3.96529e-07
1.11935e-07
2.03948e-07
-3.72881e-07
1.23751e-07
1.66877e-07
-3.50005e-07
1.34502e-07
1.17876e-07
-3.30294e-07
1.43445e-07
6.01742e-08
-3.15805e-07
1.49889e-07
-2.14893e-09
-3.08037e-07
1.533e-07
-6.45752e-08
-3.07761e-07
1.53395e-07
-1.22592e-07
-3.14954e-07
1.50182e-07
-1.72134e-07
-3.28792e-07
1.43961e-07
-2.09989e-07
-3.47718e-07
1.35291e-07
-2.34065e-07
-3.69603e-07
1.24889e-07
-2.4352e-07
-3.91966e-07
1.13543e-07
-2.38739e-07
-4.12122e-07
1.01996e-07
-2.21222e-07
-4.27332e-07
9.08585e-08
-1.93343e-07
-4.34871e-07
8.05207e-08
-1.58136e-07
-4.31978e-07
7.11286e-08
-1.19017e-07
-4.15728e-07
6.24986e-08
-7.95853e-08
-3.82702e-07
5.40652e-08
-4.35039e-08
-3.2827e-07
4.47327e-08
-1.48474e-08
-2.44566e-07
3.26746e-08
-1.14236e-07
1.48587e-08
1.21027e-08
-1.56946e-07
1.21164e-08
3.95027e-08
-3.28352e-07
2.88523e-08
7.62588e-08
-4.34791e-07
4.16659e-08
1.18228e-07
-5.01581e-07
5.28125e-08
1.60797e-07
-5.41199e-07
6.34368e-08
1.99701e-07
-5.6031e-07
7.43863e-08
2.30908e-07
-5.63598e-07
8.61304e-08
2.50986e-07
-5.54721e-07
9.88304e-08
2.57221e-07
-5.36942e-07
1.12332e-07
2.47924e-07
-5.13429e-07
1.26197e-07
2.22595e-07
-4.87316e-07
1.39763e-07
1.82106e-07
-4.6171e-07
1.52194e-07
1.28688e-07
-4.39459e-07
1.62584e-07
6.58331e-08
-4.23029e-07
1.70079e-07
-2.03261e-09
-4.14208e-07
1.74036e-07
-6.99791e-08
-4.13936e-07
1.74121e-07
-1.33079e-07
-4.22193e-07
1.70339e-07
-1.86902e-07
-4.38004e-07
1.63035e-07
-2.27966e-07
-4.59522e-07
1.52869e-07
-2.5403e-07
-4.84254e-07
1.40716e-07
-2.64236e-07
-5.09265e-07
1.27504e-07
-2.59053e-07
-5.31407e-07
1.14102e-07
-2.40113e-07
-5.47476e-07
1.01205e-07
-2.09991e-07
-5.54277e-07
8.92839e-08
-1.71933e-07
-5.48551e-07
7.85155e-08
-1.29583e-07
-5.26784e-07
6.87062e-08
-8.67853e-08
-4.84733e-07
5.92333e-08
-4.75097e-08
-4.16443e-07
4.88973e-08
-1.62358e-08
-3.11531e-07
3.56909e-08
-1.4672e-07
1.62483e-08
1.52605e-08
-1.87482e-07
1.5275e-08
4.63454e-08
-3.93844e-07
3.44073e-08
8.64869e-08
-5.23078e-07
4.81456e-08
1.31247e-07
-6.05958e-07
5.96167e-08
1.76221e-07
-6.56772e-07
7.05987e-08
2.17127e-07
-6.83412e-07
8.21965e-08
2.4988e-07
-6.91318e-07
9.49665e-08
2.70887e-07
-6.84785e-07
1.09057e-07
2.77261e-07
-6.67591e-07
1.24276e-07
2.6711e-07
-6.43353e-07
1.40075e-07
2.39853e-07
-6.157e-07
1.55641e-07
1.96312e-07
-5.88144e-07
1.69976e-07
1.38837e-07
-5.63968e-07
1.81984e-07
7.11733e-08
-5.46017e-07
1.90651e-07
-1.88966e-09
-5.36374e-07
1.95229e-07
-7.50117e-08
-5.36115e-07
1.95301e-07
-1.42848e-07
-5.45228e-07
1.90871e-07
-2.00612e-07
-5.62593e-07
1.82352e-07
-2.44555e-07
-5.86111e-07
1.70532e-07
-2.72314e-07
-6.12917e-07
1.56422e-07
-2.8303e-07
-6.39655e-07
1.41106e-07
-2.7728e-07
-6.62797e-07
1.25639e-07
-2.56865e-07
-6.78722e-07
1.1083e-07
-2.24583e-07
-6.83789e-07
9.72305e-08
-1.83885e-07
-6.74276e-07
8.50267e-08
-1.3863e-07
-6.46064e-07
7.40247e-08
-9.28879e-08
-5.94058e-07
6.35827e-08
-5.08789e-08
-5.10825e-07
5.23728e-08
-1.73987e-08
-3.83211e-07
3.82003e-08
-1.81531e-07
1.74123e-08
1.71507e-08
-2.21798e-07
1.71658e-08
5.08328e-08
-4.65477e-07
3.7951e-08
9.36503e-08
-6.18382e-07
5.24864e-08
1.40875e-07
-7.17658e-07
6.44757e-08
1.88074e-07
-7.80044e-07
7.60726e-08
2.30933e-07
-8.14818e-07
8.85467e-08
2.65308e-07
-8.28241e-07
1.02548e-07
2.87407e-07
-8.25122e-07
1.18238e-07
2.94193e-07
-8.09727e-07
1.35349e-07
2.83595e-07
-7.8603e-07
1.53275e-07
2.54852e-07
-7.58e-07
1.71042e-07
2.08776e-07
-7.29528e-07
1.87461e-07
1.47809e-07
-7.0426e-07
2.01259e-07
7.59267e-08
-6.85376e-07
2.11243e-07
-1.73936e-09
-6.75197e-07
2.1649e-07
-7.94465e-08
-6.74958e-07
2.1655e-07
-1.51451e-07
-6.8465e-07
2.11427e-07
-2.12611e-07
-7.03009e-07
2.01577e-07
-2.5894e-07
-7.27695e-07
1.87913e-07
-2.87992e-07
-7.5552e-07
1.71655e-07
-2.98931e-07
-7.8281e-07
1.54094e-07
-2.92476e-07
-8.05659e-07
1.36407e-07
-2.70634e-07
-8.20118e-07
1.19555e-07
-2.36394e-07
-8.22201e-07
1.04171e-07
-1.93418e-07
-8.07751e-07
9.04987e-08
-1.45751e-07
-7.7208e-07
7.83506e-08
-9.76561e-08
-7.09148e-07
6.69944e-08
-5.35048e-08
-6.10008e-07
5.50311e-08
-1.83098e-08
-4.58538e-07
4.0132e-08
-2.18165e-07
1.83242e-08
1.82415e-08
-2.58296e-07
1.82559e-08
5.35355e-08
-5.40808e-07
4.00367e-08
9.80928e-08
-7.18076e-07
5.51371e-08
1.47017e-07
-8.34187e-07
6.7605e-08
1.95865e-07
-9.08722e-07
7.98301e-08
2.4029e-07
-9.52489e-07
9.32465e-08
2.76046e-07
-9.72559e-07
1.08562e-07
2.99248e-07
-9.74258e-07
1.25934e-07
3.06661e-07
-9.62196e-07
1.45057e-07
2.96015e-07
-9.4061e-07
1.65226e-07
2.66396e-07
-9.13696e-07
1.85316e-07
2.1854e-07
-8.85638e-07
2.03966e-07
1.5493e-07
-8.60328e-07
2.19678e-07
7.97375e-08
-8.41243e-07
2.31058e-07
-1.59713e-09
-8.30892e-07
2.3703e-07
-8.29563e-08
-8.30675e-07
2.37076e-07
-1.58226e-07
-8.40569e-07
2.31189e-07
-2.2194e-07
-8.59209e-07
2.19914e-07
-2.69945e-07
-8.84016e-07
2.04326e-07
-2.99741e-07
-9.11534e-07
1.8581e-07
-3.10539e-07
-9.3786e-07
1.65848e-07
-3.03263e-07
-9.58776e-07
1.45842e-07
-2.80129e-07
-9.70153e-07
1.26902e-07
-2.44314e-07
-9.6774e-07
1.09723e-07
-1.99652e-07
-9.47014e-07
9.46016e-08
-1.50331e-07
-9.02753e-07
8.13519e-08
-1.00676e-07
-8.28027e-07
6.9224e-08
-5.51627e-08
-7.12237e-07
5.6716e-08
-1.88997e-08
-5.3614e-07
4.13385e-08
-2.5598e-07
1.89147e-08
1.86625e-08
-2.95635e-07
1.86766e-08
5.45212e-08
-6.1743e-07
4.07636e-08
9.96747e-08
-8.19283e-07
5.60539e-08
1.49203e-07
-9.5254e-07
6.88251e-08
1.98745e-07
-1.03988e-06
8.1612e-08
2.43956e-07
-1.09361e-06
9.59122e-08
2.80596e-07
-1.12167e-06
1.1247e-07
3.04722e-07
-1.12987e-06
1.31486e-07
3.12894e-07
-1.12298e-06
1.52609e-07
3.02691e-07
-1.10545e-06
1.75044e-07
2.73008e-07
-1.08155e-06
1.97539e-07
2.24391e-07
-1.05555e-06
2.18531e-07
1.59363e-07
-1.03158e-06
2.36279e-07
8.2169e-08
-1.01321e-06
2.49163e-07
-1.47043e-09
-1.00318e-06
2.55932e-07
-8.51222e-08
-1.00299e-06
2.5597e-07
-1.62343e-07
-1.01263e-06
2.49282e-07
-2.27445e-07
-1.03058e-06
2.36478e-07
-2.76116e-07
-1.05414e-06
2.18797e-07
-3.05862e-07
-1.07968e-06
1.97892e-07
-3.16117e-07
-1.10309e-06
1.75486e-07
-3.07939e-07
-1.12013e-06
1.53176e-07
-2.83765e-07
-1.12651e-06
1.32187e-07
-2.46965e-07
-1.11783e-06
1.13295e-07
-2.01473e-07
-1.08936e-06
9.6853e-08
-1.51497e-07
-1.03537e-06
8.2642e-08
-1.01389e-07
-9.48023e-07
6.98883e-08
-5.55664e-08
-8.15118e-07
5.70579e-08
-1.90542e-08
-6.1422e-07
4.15679e-08
-2.94103e-07
1.90691e-08
1.84113e-08
-3.32472e-07
1.84265e-08
5.36445e-08
-6.92743e-07
4.00802e-08
9.79537e-08
-9.18695e-07
5.51027e-08
1.46648e-07
-1.06909e-06
6.78528e-08
1.95504e-07
-1.16967e-06
8.0934e-08
2.40384e-07
-1.23438e-06
9.58926e-08
2.77136e-07
-1.2719e-06
1.13477e-07
3.01789e-07
-1.28846e-06
1.33933e-07
3.10838e-07
-1.28892e-06
1.56897e-07
3.01641e-07
-1.27776e-06
1.81502e-07
2.72864e-07
-1.25916e-06
2.06389e-07
2.24883e-07
-1.23732e-06
2.29746e-07
1.60069e-07
-1.21636e-06
2.49597e-07
8.26915e-08
-1.19991e-06
2.64072e-07
-1.36652e-09
-1.19082e-06
2.71699e-07
-8.54273e-08
-1.19065e-06
2.71723e-07
-1.62817e-07
-1.19939e-06
2.64145e-07
-2.27635e-07
-1.21549e-06
2.49721e-07
-2.75594e-07
-1.23609e-06
2.29911e-07
-3.04359e-07
-1.25754e-06
2.06624e-07
-3.13526e-07
-1.27576e-06
1.81837e-07
-3.04412e-07
-1.28657e-06
1.57325e-07
-2.79635e-07
-1.28572e-06
1.34428e-07
-2.42693e-07
-1.26883e-06
1.14057e-07
-1.97508e-07
-1.23107e-06
9.65263e-08
-1.48268e-07
-1.16623e-06
8.16221e-08
-9.91305e-08
-1.06572e-06
6.85594e-08
-5.431e-08
-9.15694e-07
5.57559e-08
-1.86566e-08
-6.90466e-07
4.05926e-08
-3.31431e-07
1.86714e-08
1.74e-08
-3.67279e-07
1.74061e-08
5.05807e-08
-7.63664e-07
3.77401e-08
9.23408e-08
-1.01236e-06
5.19035e-08
1.38362e-07
-1.17932e-06
6.42158e-08
1.84834e-07
-1.29335e-06
7.72073e-08
2.27899e-07
-1.36986e-06
9.24128e-08
2.6364e-07
-1.4183e-06
1.10657e-07
2.88203e-07
-1.44517e-06
1.32151e-07
2.98092e-07
-1.45539e-06
1.5658e-07
2.90512e-07
-1.4532e-06
1.8302e-07
2.63883e-07
-1.44254e-06
2.10011e-07
2.18296e-07
-1.42737e-06
2.35638e-07
1.55835e-07
-1.41156e-06
2.57655e-07
8.0684e-08
-1.39859e-06
2.7383e-07
-1.28449e-09
-1.39125e-06
2.82397e-07
-8.3246e-08
-1.3911e-06
2.8241e-07
-1.58367e-07
-1.39814e-06
2.73872e-07
-2.20792e-07
-1.41079e-06
2.57727e-07
-2.66337e-07
-1.42632e-06
2.35766e-07
-2.92905e-07
-1.44116e-06
2.10189e-07
-3.00383e-07
-1.4515e-06
1.83215e-07
-2.90371e-07
-1.45342e-06
1.56844e-07
-2.65634e-07
-1.44295e-06
1.32492e-07
-2.29677e-07
-1.41584e-06
1.11054e-07
-1.86351e-07
-1.36727e-06
9.28713e-08
-1.39564e-07
-1.29072e-06
7.76986e-08
-9.31637e-08
-1.17681e-06
6.46892e-08
-5.1038e-08
-1.01016e-06
5.2337e-08
-1.75509e-08
-7.62027e-07
3.80746e-08
-3.66547e-07
1.75648e-08
1.55118e-08
-3.98309e-07
1.55188e-08
4.49962e-08
-8.26662e-07
3.35131e-08
8.22075e-08
-1.09573e-06
4.61612e-08
1.23415e-07
-1.278e-06
5.74679e-08
1.65368e-07
-1.40512e-06
6.98221e-08
2.0472e-07
-1.49391e-06
8.46946e-08
2.3797e-07
-1.55443e-06
1.02887e-07
2.61551e-07
-1.5934e-06
1.24646e-07
2.72102e-07
-1.61566e-06
1.49719e-07
2.66735e-07
-1.6251e-06
1.77273e-07
2.43623e-07
-1.62524e-06
2.05808e-07
2.02542e-07
-1.61953e-06
2.33242e-07
1.45173e-07
-1.61125e-06
2.57069e-07
7.53541e-08
-1.60358e-06
2.7481e-07
-1.22447e-09
-1.59896e-06
2.84289e-07
-7.7788e-08
-1.59883e-06
2.84292e-07
-1.4757e-07
-1.60318e-06
2.74823e-07
-2.04873e-07
-1.61058e-06
2.57096e-07
-2.45871e-07
-1.61859e-06
2.33272e-07
-2.6885e-07
-1.62406e-06
2.05876e-07
-2.74061e-07
-1.6237e-06
1.77415e-07
-2.63367e-07
-1.61403e-06
1.49914e-07
-2.3961e-07
-1.59157e-06
1.24865e-07
-2.06118e-07
-1.55249e-06
1.03149e-07
-1.66523e-07
-1.49185e-06
8.49898e-08
-1.24279e-07
-1.4031e-06
7.01375e-08
-8.27993e-08
-1.27607e-06
5.77803e-08
-4.53266e-08
-1.09408e-06
4.64472e-08
-1.56128e-08
-8.25476e-07
3.37353e-08
-3.97786e-07
1.5626e-08
1.26551e-08
-4.23623e-07
1.26591e-08
3.66694e-08
-8.77878e-07
2.72024e-08
6.70294e-08
-1.16364e-06
3.75511e-08
1.00962e-07
-1.35911e-06
4.71766e-08
1.35948e-07
-1.49828e-06
5.81699e-08
1.69342e-07
-1.59915e-06
7.18513e-08
1.98262e-07
-1.67234e-06
8.8983e-08
2.19631e-07
-1.72466e-06
1.09897e-07
2.30361e-07
-1.76078e-06
1.34393e-07
2.27675e-07
-1.78413e-06
1.61706e-07
2.09611e-07
-1.79759e-06
1.90411e-07
1.75472e-07
-1.80389e-06
2.18498e-07
1.26452e-07
-1.80555e-06
2.43317e-07
6.58365e-08
-1.805e-06
2.62041e-07
-1.18018e-09
-1.80411e-06
2.72159e-07
-6.81743e-08
-1.80399e-06
2.72155e-07
-1.28729e-07
-1.80466e-06
2.62037e-07
-1.77646e-07
-1.80498e-06
2.43315e-07
-2.1168e-07
-1.80308e-06
2.18525e-07
-2.29607e-07
-1.7966e-06
1.90465e-07
-2.32154e-07
-1.78292e-06
1.61765e-07
-2.21242e-07
-1.75943e-06
1.34486e-07
-1.99646e-07
-1.72319e-06
1.10023e-07
-1.7053e-07
-1.67074e-06
8.91411e-08
-1.36887e-07
-1.59753e-06
7.20352e-08
-1.01665e-07
-1.49669e-06
5.83711e-08
-6.74693e-08
-1.35764e-06
4.73796e-08
-3.68802e-08
-1.1624e-06
3.77392e-08
-1.27219e-08
-8.76987e-07
2.7352e-08
-4.23241e-07
1.2734e-08
8.78071e-09
-4.41191e-07
8.78669e-09
2.53898e-08
-9.13203e-07
1.87156e-08
4.659e-08
-1.2108e-06
2.59576e-08
7.06345e-08
-1.4163e-06
3.31436e-08
9.60238e-08
-1.56557e-06
4.19069e-08
1.20947e-07
-1.67742e-06
5.33412e-08
1.43376e-07
-1.76284e-06
6.8071e-08
1.60945e-07
-1.82868e-06
8.6445e-08
1.71098e-07
-1.87933e-06
1.08398e-07
1.71336e-07
-1.91773e-06
1.33368e-07
1.59657e-07
-1.94604e-06
1.60134e-07
1.3506e-07
-1.96603e-06
1.86743e-07
9.81027e-08
-1.97923e-06
2.10631e-07
5.12546e-08
-1.98708e-06
2.28925e-07
-1.14883e-09
-1.9906e-06
2.38896e-07
-5.35299e-08
-1.99052e-06
2.38911e-07
-1.00324e-07
-1.98679e-06
2.28926e-07
-1.37158e-07
-1.97874e-06
2.106e-07
-1.61613e-07
-1.96534e-06
1.86712e-07
-1.73129e-07
-1.9452e-06
1.60117e-07
-1.72707e-07
-1.91671e-06
1.33368e-07
-1.62359e-07
-1.8782e-06
1.08422e-07
-1.44579e-07
-1.82746e-06
8.64964e-08
-1.21932e-07
-1.76154e-06
6.81486e-08
-9.67741e-08
-1.67613e-06
5.34412e-08
-7.11763e-08
-1.56431e-06
4.20228e-08
-4.69255e-08
-1.41516e-06
3.32665e-08
-2.55526e-08
-1.20985e-06
2.60753e-08
-8.82978e-09
-9.12524e-07
1.88144e-08
-4.40912e-07
8.84097e-09
3.93128e-09
-4.49048e-07
3.92606e-09
1.13292e-08
-9.28746e-07
8.14484e-09
2.10803e-08
-1.232e-06
1.1453e-08
3.27422e-08
-1.44339e-06
1.54314e-08
4.58598e-08
-1.59972e-06
2.1028e-08
5.97763e-08
-1.72029e-06
2.89608e-08
7.34303e-08
-1.81626e-06
3.97689e-08
8.54291e-08
-1.89437e-06
5.36904e-08
9.39802e-08
-1.95866e-06
7.07773e-08
9.70911e-08
-2.01151e-06
9.06629e-08
9.30018e-08
-2.05436e-06
1.12404e-07
8.04397e-08
-2.08797e-06
1.345e-07
5.93836e-08
-2.11286e-06
1.54695e-07
3.11882e-08
-2.1293e-06
1.7042e-07
-1.12597e-09
-2.13743e-06
1.79148e-07
-3.34132e-08
-2.13737e-06
1.79134e-07
-6.15358e-08
-2.12905e-06
1.70381e-07
-8.2469e-08
-2.11245e-06
1.54638e-07
-9.48638e-08
-2.0874e-06
1.34463e-07
-9.87893e-08
-2.05364e-06
1.12367e-07
-9.54645e-08
-2.01065e-06
9.06142e-08
-8.6706e-08
-1.95771e-06
7.0747e-08
-7.45062e-08
-1.89335e-06
5.36839e-08
-6.06216e-08
-1.81521e-06
3.97849e-08
-4.6518e-08
-1.71923e-06
2.89963e-08
-3.31867e-08
-1.59873e-06
2.10816e-08
-2.13457e-08
-1.4425e-06
1.54968e-08
-1.14672e-08
-1.23126e-06
1.15245e-08
-3.95606e-09
-9.28246e-07
8.21066e-09
-4.48835e-07
3.96665e-09
-1.75367e-09
-4.45537e-07
-1.75706e-09
-5.07163e-09
-9.21267e-07
-4.16104e-09
-8.6954e-09
-1.22294e-06
-5.44415e-09
-1.15971e-08
-1.43509e-06
-5.40354e-09
-1.30164e-08
-1.59445e-06
-3.85255e-09
-1.24119e-08
-1.72032e-06
-5.76434e-10
-9.64548e-09
-1.82372e-06
4.69122e-09
-4.97396e-09
-1.9112e-06
1.21669e-08
8.09893e-10
-1.98635e-06
2.19026e-08
6.60031e-09
-2.0511e-06
3.38001e-08
1.09712e-08
-2.1061e-06
4.73714e-08
1.26626e-08
-2.15128e-06
6.1617e-08
1.09286e-08
-2.1861e-06
7.49658e-08
5.91414e-09
-2.20987e-06
8.55849e-08
-1.10663e-09
-2.22194e-06
9.15253e-08
-8.09374e-09
-2.22186e-06
9.14768e-08
-1.30062e-08
-2.20964e-06
8.55034e-08
-1.4628e-08
-2.18571e-06
7.48854e-08
-1.27865e-08
-2.15074e-06
6.14956e-08
-8.22255e-09
-2.10545e-06
4.72472e-08
-2.22703e-09
-2.05035e-06
3.37101e-08
3.78604e-09
-1.98555e-06
2.18285e-08
8.66042e-09
-1.91033e-06
1.21106e-08
1.16545e-08
-1.82286e-06
4.65714e-09
1.24635e-08
-1.71945e-06
-5.89199e-10
1.12184e-08
-1.59363e-06
-3.84813e-09
8.47742e-09
-1.43438e-06
-5.3815e-09
4.99507e-09
-1.22237e-06
-5.40841e-09
1.73538e-09
-9.20867e-07
-4.1192e-09
-4.45374e-07
-1.72502e-09
-8.01197e-09
-4.2951e-07
-8.01471e-09
-2.30774e-08
-8.88516e-07
-1.76847e-08
-4.13236e-08
-1.18066e-06
-2.40302e-08
-6.02703e-08
-1.38773e-06
-2.84062e-08
-7.78196e-08
-1.54536e-06
-3.15332e-08
-9.21974e-08
-1.67214e-06
-3.3805e-08
-1.01891e-07
-1.77871e-06
-3.53111e-08
-1.05931e-07
-1.8712e-06
-3.596e-08
-1.03824e-07
-1.95289e-06
-3.55664e-08
-9.57274e-08
-2.0252e-06
-3.3992e-08
-8.23903e-08
-2.08816e-06
-3.12719e-08
-6.49766e-08
-2.14104e-06
-2.76588e-08
-4.4842e-08
-2.18253e-06
-2.37052e-08
-2.32412e-08
-2.21127e-06
-2.02081e-08
-1.08142e-09
-2.22599e-06
-1.81092e-08
2.11055e-08
-2.22591e-06
-1.81335e-08
4.27765e-08
-2.21104e-06
-2.02715e-08
6.30642e-08
-2.1822e-06
-2.38004e-08
8.06439e-08
-2.14055e-06
-2.77736e-08
9.41756e-08
-2.08759e-06
-3.13919e-08
1.02481e-07
-2.02455e-06
-3.41091e-08
1.04792e-07
-1.95219e-06
-3.56719e-08
1.00984e-07
-1.87047e-06
-3.6049e-08
9.14865e-08
-1.77798e-06
-3.53805e-08
7.73087e-08
-1.67142e-06
-3.38533e-08
5.99477e-08
-1.54471e-06
-3.15612e-08
4.11501e-08
-1.38716e-06
-2.8414e-08
2.2996e-08
-1.18019e-06
-2.40201e-08
7.99995e-09
-8.88211e-07
-1.766e-08
-4.29385e-07
-7.9894e-09
-1.44412e-08
-4.00624e-07
-1.44454e-08
-4.15498e-08
-8.29882e-07
-3.15261e-08
-7.48476e-08
-1.10432e-06
-4.30434e-08
-1.10323e-07
-1.3002e-06
-5.20565e-08
-1.44639e-07
-1.45079e-06
-6.02576e-08
-1.7471e-07
-1.57348e-06
-6.85849e-08
-1.97684e-07
-1.67823e-06
-7.75034e-08
-2.11177e-07
-1.77062e-06
-8.70944e-08
-2.1336e-07
-1.85357e-06
-9.71325e-08
-2.03269e-07
-1.92803e-06
-1.07263e-07
-1.80851e-07
-1.99368e-06
-1.16899e-07
-1.47119e-07
-2.04937e-06
-1.25401e-07
-1.03994e-07
-2.09339e-06
-1.32256e-07
-5.42358e-08
-2.12404e-06
-1.36989e-07
-1.05007e-09
-2.13977e-06
-1.39403e-07
5.21691e-08
-2.1397e-06
-1.39427e-07
1.0202e-07
-2.12386e-06
-1.37028e-07
1.45255e-07
-2.09311e-06
-1.32329e-07
1.79158e-07
-2.04893e-06
-1.25521e-07
2.01769e-07
-1.99317e-06
-1.1703e-07
2.12069e-07
-1.92746e-06
-1.07395e-07
2.10086e-07
-1.85295e-06
-9.72562e-08
1.96824e-07
-1.77001e-06
-8.72034e-08
1.74043e-07
-1.6776e-06
-7.75963e-08
1.44175e-07
-1.5729e-06
-6.86567e-08
1.10021e-07
-1.45025e-06
-6.03076e-08
7.4686e-08
-1.29974e-06
-5.20852e-08
4.14965e-08
-1.10395e-06
-4.30495e-08
1.44344e-08
-8.29637e-07
-3.15113e-08
-4.00528e-07
-1.44231e-08
-2.05909e-08
-3.59439e-07
-2.05937e-08
-5.91838e-08
-7.46571e-07
-4.47175e-08
-1.06825e-07
-9.95481e-07
-6.11953e-08
-1.58188e-07
-1.17418e-06
-7.46616e-08
-2.0873e-07
-1.31249e-06
-8.77608e-08
-2.54093e-07
-1.42605e-06
-1.02067e-07
-2.90149e-07
-1.52381e-06
-1.18371e-07
-3.13072e-07
-1.61081e-06
-1.36885e-07
-3.19731e-07
-1.6895e-06
-1.57412e-07
-3.07953e-07
-1.76058e-06
-1.79224e-07
-2.7691e-07
-1.82356e-06
-2.01165e-07
-2.27388e-07
-1.87707e-06
-2.21816e-07
-1.61867e-07
-1.91947e-06
-2.39448e-07
-8.45636e-08
-1.94897e-06
-2.52371e-07
-1.00933e-09
-1.96411e-06
-2.59213e-07
8.25683e-08
-1.96405e-06
-2.59233e-07
1.59951e-07
-1.94879e-06
-2.52458e-07
2.25581e-07
-1.91917e-06
-2.39563e-07
2.75291e-07
-1.87671e-06
-2.21929e-07
3.06506e-07
-1.8231e-06
-2.0129e-07
3.18475e-07
-1.76007e-06
-1.79352e-07
3.12036e-07
-1.68897e-06
-1.57539e-07
2.89301e-07
-1.61027e-06
-1.37003e-07
2.53459e-07
-1.52329e-06
-1.18474e-07
2.08272e-07
-1.42556e-06
-1.02152e-07
1.57897e-07
-1.31205e-06
-8.78272e-08
1.06678e-07
-1.17384e-06
-7.46906e-08
5.91224e-08
-9.95198e-07
-6.11985e-08
2.0586e-08
-7.46389e-07
-4.47112e-08
-3.59367e-07
-2.05745e-08
-2.59263e-08
-3.07584e-07
-2.59289e-08
-7.44578e-08
-6.41925e-07
-5.6115e-08
-1.34628e-07
-8.58505e-07
-7.68067e-08
-1.99978e-07
-1.0147e-06
-9.41228e-08
-2.64986e-07
-1.13593e-06
-1.11549e-07
-3.24168e-07
-1.23571e-06
-1.31164e-07
-3.72105e-07
-1.3218e-06
-1.54072e-07
-4.03705e-07
-1.39856e-06
-1.80645e-07
-4.1458e-07
-1.46809e-06
-2.10537e-07
-4.01471e-07
-1.53094e-06
-2.42749e-07
-3.62836e-07
-1.58653e-06
-2.75666e-07
-2.99177e-07
-1.63371e-06
-3.07021e-07
-2.13626e-07
-1.67093e-06
-3.34087e-07
-1.11693e-07
-1.69675e-06
-3.54152e-07
-9.55245e-10
-1.70995e-06
-3.64901e-07
1.09806e-07
-1.70989e-06
-3.64917e-07
2.11805e-07
-1.69659e-06
-3.54201e-07
2.97483e-07
-1.67069e-06
-3.34163e-07
3.61247e-07
-1.63336e-06
-3.07119e-07
4.00082e-07
-1.58615e-06
-2.75782e-07
4.13381e-07
-1.5305e-06
-2.42867e-07
4.02715e-07
-1.46765e-06
-2.10659e-07
3.71313e-07
-1.3981e-06
-1.80763e-07
3.23561e-07
-1.32136e-06
-1.54177e-07
2.6457e-07
-1.23531e-06
-1.31255e-07
1.99727e-07
-1.13558e-06
-1.11622e-07
1.34491e-07
-1.01441e-06
-9.41887e-08
7.4411e-08
-8.58276e-07
-7.68412e-08
2.59236e-08
-6.41789e-07
-5.61134e-08
-3.07532e-07
-2.59113e-08
-2.98788e-08
-2.47828e-07
-2.98771e-08
-8.58444e-08
-5.21433e-07
-6.45261e-08
-1.55588e-07
-7.00458e-07
-8.83037e-08
-2.31908e-07
-8.29943e-07
-1.0844e-07
-3.08482e-07
-9.30243e-07
-1.29112e-07
-3.78892e-07
-1.01247e-06
-1.52823e-07
-4.36656e-07
-1.08314e-06
-1.80891e-07
-4.75566e-07
-1.14589e-06
-2.13758e-07
-4.90119e-07
-1.20254e-06
-2.51002e-07
-4.76152e-07
-1.25351e-06
-2.914e-07
-4.31507e-07
-1.29835e-06
-3.32823e-07
-3.56638e-07
-1.33616e-06
-3.72415e-07
-2.55048e-07
-1.3658e-06
-4.06719e-07
-1.33375e-07
-1.38623e-06
-4.32192e-07
-8.91225e-10
-1.39664e-06
-4.45791e-07
1.31611e-07
-1.39659e-06
-4.45801e-07
2.53343e-07
-1.38609e-06
-4.32226e-07
3.55022e-07
-1.36559e-06
-4.06778e-07
4.30034e-07
-1.33588e-06
-3.72489e-07
4.74837e-07
-1.29803e-06
-3.32919e-07
4.88981e-07
-1.25315e-06
-2.91501e-07
4.74604e-07
-1.20216e-06
-2.51109e-07
4.35908e-07
-1.14554e-06
-2.13864e-07
3.78313e-07
-1.08278e-06
-1.80989e-07
3.08077e-07
-1.01216e-06
-1.52912e-07
2.31647e-07
-9.29965e-07
-1.29187e-07
1.55451e-07
-8.29721e-07
-1.08493e-07
8.58047e-08
-7.00299e-07
-8.83309e-08
2.98733e-08
-5.2133e-07
-6.4527e-08
-2.47797e-07
-2.98618e-08
-3.18716e-08
-1.84082e-07
-3.1875e-08
-9.18402e-08
-3.92763e-07
-6.87015e-08
-1.6714e-07
-5.31221e-07
-9.39367e-08
-2.50366e-07
-6.31284e-07
-1.15434e-07
-3.34664e-07
-7.08132e-07
-1.37812e-07
-4.12896e-07
-7.70368e-07
-1.63874e-07
-4.77752e-07
-8.2319e-07
-1.95097e-07
-5.22075e-07
-8.69646e-07
-2.31927e-07
-5.39603e-07
-9.11146e-07
-2.73861e-07
-5.25473e-07
-9.48167e-07
-3.19474e-07
-4.77096e-07
-9.80411e-07
-3.66319e-07
-3.94854e-07
-1.00732e-06
-4.11089e-07
-2.82622e-07
-1.02821e-06
-4.49821e-07
-1.47804e-07
-1.04248e-06
-4.78568e-07
-8.15055e-10
-1.0497e-06
-4.93933e-07
1.46191e-07
-1.04966e-06
-4.93938e-07
2.81059e-07
-1.04237e-06
-4.78589e-07
3.93385e-07
-1.02806e-06
-4.49849e-07
4.75738e-07
-1.00712e-06
-4.11113e-07
5.24238e-07
-9.80164e-07
-3.6637e-07
5.3853e-07
-9.47884e-07
-3.19555e-07
5.21192e-07
-9.1087e-07
-2.73952e-07
4.77026e-07
-8.69354e-07
-2.32022e-07
4.12366e-07
-8.22927e-07
-1.95188e-07
3.3429e-07
-7.70127e-07
-1.63959e-07
2.50128e-07
-7.07922e-07
-1.37882e-07
1.67024e-07
-6.31129e-07
-1.15488e-07
9.17946e-08
-5.31104e-07
-9.39656e-08
3.1872e-08
-3.92702e-07
-6.87051e-08
-1.84064e-07
-3.18614e-08
-3.13531e-08
-1.21375e-07
-3.13533e-08
-9.10175e-08
-2.65665e-07
-6.74332e-08
-1.67062e-07
-3.63213e-07
-9.19628e-08
-2.52318e-07
-4.33144e-07
-1.12883e-07
-3.39725e-07
-4.85753e-07
-1.34973e-07
-4.21667e-07
-5.27262e-07
-1.61164e-07
-4.90234e-07
-5.61616e-07
-1.93007e-07
-5.37777e-07
-5.91157e-07
-2.30946e-07
-5.57455e-07
-6.17071e-07
-2.74396e-07
-5.44061e-07
-6.39769e-07
-3.21792e-07
-4.94767e-07
-6.59195e-07
-3.7051e-07
-4.09945e-07
-6.75101e-07
-4.17039e-07
-2.93612e-07
-6.87239e-07
-4.57306e-07
-1.53557e-07
-6.95383e-07
-4.87153e-07
-7.2804e-10
-6.99456e-07
-5.0307e-07
1.52113e-07
-6.99431e-07
-5.03072e-07
2.9221e-07
-6.95307e-07
-4.87162e-07
4.08611e-07
-6.87118e-07
-4.57347e-07
4.93538e-07
-6.74947e-07
-4.171e-07
5.42943e-07
-6.59005e-07
-3.70564e-07
5.56484e-07
-6.39571e-07
-3.21855e-07
5.36946e-07
-6.16861e-07
-2.74471e-07
4.89577e-07
-5.90959e-07
-2.31025e-07
4.21164e-07
-5.61428e-07
-1.93087e-07
3.39372e-07
-5.27096e-07
-1.6124e-07
2.52103e-07
-4.85614e-07
-1.35038e-07
1.66952e-07
-4.33043e-07
-1.12936e-07
9.09832e-08
-3.63143e-07
-9.19922e-08
3.13512e-08
-2.65631e-07
-6.74394e-08
-1.2137e-07
-3.13426e-08
-2.78039e-08
-6.57671e-08
-2.78042e-08
-8.22845e-08
-1.51605e-07
-5.95792e-08
-1.53665e-07
-2.11094e-07
-8.07385e-08
-2.35481e-07
-2.52694e-07
-9.86341e-08