/*--------------------------------*- C++ -*----------------------------------*\
| =========                 |                                                 |
| \\      /  F ield         | OpenFOAM: The Open Source CFD Toolbox           |
|  \\    /   O peration     | Version:  v1912                                 |
|   \\  /    A nd           | Website:  www.openfoam.com                      |
|    \\/     M anipulation  |                                                 |
\*---------------------------------------------------------------------------*/
FoamFile
{
    version     2.0;
    format      ascii;
    class       volScalarField;
    location    "65/oil";
    object      wallHeatFlux;
}
// * * * * * * * * * * * * * * * * * * * * * * * * * * * * * * * * * * * * * //

dimensions      [1 0 -3 0 0 0 0];


internalField   uniform 0;

boundaryField
{
    maxY
    {
        type            calculated;
        value           uniform 0;
    }
    minX
    {
        type            calculated;
        value           uniform 0;
    }
    maxX
    {
        type            calculated;
        value           uniform 0;
    }
    minY
    {
        type            calculated;
        value           uniform 0;
    }
    minZ
    {
        type            calculated;
        value           uniform 0;
    }
    maxZ
    {
        type            calculated;
        value           uniform 0;
    }
    oil_to_sphere
    {
        type            calculated;
        value           nonuniform List<scalar> 
360
(
11035.5
11097.6
7485.85
19485.4
20793.9
8697.34
21348.3
19267.5
20737
10854
10912.1
8679.21
9621.41
6742.59
10627.5
18434.2
21048
19504.9
20400.2
6717.14
16968.6
10853.9
9559.27
20169.3
7502.05
20916
8661.51
20592.8
20435.9
19328.1
21982.8
21456.4
7511.24
7423.39
8593.64
8624.78
20199
20050
19512.7
19805.5
20327.4
7469.16
8542.94
11320.4
11346.8
8641.8
9501.94
6659.75
10689.8
19123
8725.61
8674.68
9539.3
9571.78
6666.73
10890.8
19563.5
6716.02
8549.45
9306.97
6718.03
20558.6
19526.1
20375.6
6665.71
17643.9
10703
9252.06
21387.9
20324.6
19588
20047.5
19971.8
6673.56
15133.3
10567.1
6754.07
9167.73
20088.1
20659.2
9387.25
9213.28
9245.89
6718.98
7451.99
8641.21
8645.83
9611.09
6709.78
6777.33
7473.57
9592.22
8651.33
7458.02
9562.78
8617.81
8621.86
8658.3
7430.99
6806.15
6805.36
6704.1
8705.78
8703.16
9617.43
6703.49
6770.76
9641.29
7462.55
8665.75
8666.37
8655.08
7448.82
6687.75
6828.58
6814.59
9487.05
9416.17
9417.2
11241.5
11260.3
18818.6
20043.7
18131.9
20211.7
18828.9
20215.5
20479.3
19052.3
19905.3
19571.9
9413.32
9343.98
9380.57
6804.54
18748.5
20410.4
11010
11036.2
20609.9
19046.7
10758.4
10598.4
20889.9
19166
22084.8
6800.19
6789.1
20153.2
20643.3
22026.3
20931.4
20934.6
21833.5
22005.9
19063.6
10546.7
20803.1
19728
6736.42
20564.4
21093.4
9195
9061.59
9416.5
10751.2
10876.4
20880.3
19215
21725.5
6654.82
19469.3
10921
20626.1
19704.1
6660.26
21264.3
9332.88
9306.39
6782.1
8652.53
8676.92
9595.79
7472.37
9536.72
8613.51
6695.23
6796.66
20449.9
19179
20573.4
19792
11259.9
11268
20089.6
18380.6
19759
10812.3
10877.6
6790.46
8623.25
8742.61
9620.2
8667.99
8647.78
9649.27
7458.7
9566.24
8606.76
7395.76
19003.3
9633.08
8620.49
6730.63
20013.4
18955.6
20013.6
11144.1
11144.5
6654.68
8587.46
8590.64
9323.18
20537.9
7403.65
9230.18
8569.81
19327.1
19501.7
11083.4
6701.59
10997.6
6697.91
6823.61
9531.36
7475.27
8627.87
8555.35
8620.18
7411.24
6743.75
19531.1
18325.3
20560.3
21555.9
19293.3
18244.1
20840.8
21071
10819.9
19750.5
6796.36
20802.3
20525.7
20629.1
9538.05
7490.84
8678.76
9568.22
7518.73
20640.5
8611.66
8597.14
8669.33
7440.84
20878.4
19196.5
8604.47
8600.58
7429.55
19270.5
21778.7
10854.3
19673.5
6721.38
20485.4
20150.7
20670
9281.8
7430.73
20348.3
8539.84
8582.69
8549.48
20188.2
7457.1
19864.7
11029.9
18355.3
11084.3
19372.6
19709.8
20110.4
6700.65
9132.95
8995.95
9082.92
11193.7
20176.2
11163.3
19542.5
20122.7
6775.83
20373.9
20660
10682.2
19799.7
6800
21772.5
9283.49
9226.26
6639.22
19553.1
11019.6
17387.3
19628.3
11009.2
6704.74
8638.22
8635.14
9618.59
20254.2
18798.9
10835.4
6792.03
18916.2
11004.8
6733.68
19029.3
20601
10705.3
19886
6621.77
21476.6
9658.31
21145
7440.01
8663.91
21198.1
19838.6
19465.5
10832.4
20659.3
20461.5
10918
19582.3
9117.76
9356.52
19259.8
10957.3
6680.35
19224.2
10982.8
6755.44
19845.6
19951.4
18879.9
11041.1
19505
11066.9
)
;
    }
}


// ************************************************************************* //
