/*--------------------------------*- C++ -*----------------------------------*\
| =========                 |                                                 |
| \\      /  F ield         | OpenFOAM: The Open Source CFD Toolbox           |
|  \\    /   O peration     | Version:  v1906                                 |
|   \\  /    A nd           | Web:      www.OpenFOAM.com                      |
|    \\/     M anipulation  |                                                 |
\*---------------------------------------------------------------------------*/
FoamFile
{
    version     2.0;
    format      ascii;
    class       volVectorField;
    location    "71";
    object      U;
}
// * * * * * * * * * * * * * * * * * * * * * * * * * * * * * * * * * * * * * //

dimensions      [0 1 -1 0 0 0 0];


internalField   nonuniform List<vector> 
78750
(
(-0.618065 -0.340379 -0.136246)
(-0.538122 -0.307729 -0.131109)
(-0.516039 -0.257765 -0.120844)
(-0.430621 -0.204852 -0.11452)
(-0.337031 -0.144367 -0.115302)
(-0.297406 -0.120136 -0.115311)
(-0.277324 -0.0994442 -0.114765)
(-0.238108 -0.0869905 -0.113366)
(-0.215337 -0.0735458 -0.110717)
(-0.182336 -0.064638 -0.10722)
(-0.161285 -0.0551664 -0.103262)
(-0.136213 -0.0487792 -0.0991743)
(-0.117976 -0.0421297 -0.0952612)
(-0.0991478 -0.037165 -0.0917016)
(-0.083644 -0.0326296 -0.0885587)
(-0.0693641 -0.0286864 -0.0859233)
(-0.0566672 -0.0253033 -0.0836359)
(-0.0452861 -0.0222759 -0.0817023)
(-0.0349925 -0.0195897 -0.0800283)
(-0.0256671 -0.0171715 -0.0785689)
(-0.0171842 -0.0149617 -0.0772788)
(-0.00944558 -0.0129021 -0.0761259)
(-0.00238032 -0.0109359 -0.0750908)
(0.0039864 -0.00900449 -0.074163)
(0.00966908 -0.00704194 -0.0733309)
(0.0147105 -0.00499354 -0.0725936)
(0.0190675 -0.00280844 -0.0719567)
(0.0226776 -0.000438479 -0.0714246)
(0.0254644 0.00216721 -0.0710115)
(0.0273365 0.00505255 -0.0707491)
(0.0281567 0.00822831 -0.0707084)
(0.0277292 0.011652 -0.0710071)
(0.0258449 0.0154642 -0.0717826)
(0.0246114 0.0236317 -0.0742797)
(0.0123782 0.0799169 -0.0471969)
(0.0793042 -0.568987 0.059172)
(-0.10743 -0.482038 0.0644307)
(-0.0398962 -0.505224 0.0760567)
(-0.0654032 -0.499858 0.0862459)
(-0.0772106 -0.367242 0.0604217)
(-0.0742836 -0.280606 0.0300073)
(-0.0753053 -0.207376 2.08074e-05)
(-0.0745115 -0.162363 -0.0245789)
(-0.0744231 -0.129589 -0.0440183)
(-0.0750264 -0.106291 -0.0591498)
(-0.0747255 -0.0897024 -0.0702325)
(-0.0740296 -0.0768191 -0.0787084)
(-0.0722738 -0.0668249 -0.0852831)
(-0.0697699 -0.0587996 -0.0904161)
(-0.0664942 -0.0520728 -0.0944435)
(-0.0625924 -0.0462867 -0.0976078)
(-0.0581741 -0.0411765 -0.100074)
(-0.0533315 -0.0365656 -0.101957)
(-0.0481435 -0.0323132 -0.103337)
(-0.0426689 -0.0282981 -0.104272)
(-0.0369558 -0.0244146 -0.104806)
(-0.0310508 -0.0205665 -0.104971)
(-0.0250062 -0.0166629 -0.10479)
(-0.0188838 -0.0126151 -0.104277)
(-0.0127627 -0.00833052 -0.103439)
(-0.00674285 -0.00371238 -0.102271)
(-0.000937026 0.00135124 -0.100753)
(0.00454366 0.00698746 -0.0988496)
(0.00954985 0.013345 -0.0965232)
(0.0138488 0.0205953 -0.093729)
(0.0171134 0.029026 -0.0903795)
(0.0190466 0.0394794 -0.0861642)
(0.019312 0.0556969 -0.079946)
(0.0167915 0.100528 -0.0681008)
(0.00477329 0.223861 -0.0331754)
(-0.0459505 0.130093 -0.0997267)
(-0.0236617 -0.117838 -0.0690444)
(-0.0658684 -0.178614 -0.0447561)
(-0.0600511 -0.213343 -0.0256069)
(-0.0629522 -0.234444 -0.00218268)
(-0.0572939 -0.204571 0.014386)
(-0.0458629 -0.15022 0.0220371)
(-0.0356797 -0.101349 0.0212143)
(-0.026239 -0.0567841 0.0161933)
(-0.0198445 -0.0262801 0.0080036)
(-0.0170146 -0.0101198 -0.000920218)
(-0.0169489 -0.00282788 -0.00877411)
(-0.0184749 0.000753234 -0.0151674)
(-0.0206229 0.0029357 -0.0205436)
(-0.0225712 0.0043861 -0.0255453)
(-0.0238885 0.00543776 -0.0306313)
(-0.0244681 0.00628671 -0.0360235)
(-0.024339 0.00697259 -0.0417919)
(-0.0235706 0.00746534 -0.0479079)
(-0.0222411 0.00774672 -0.0542635)
(-0.0204272 0.00785956 -0.0606847)
(-0.0182007 0.00793109 -0.0669599)
(-0.0156281 0.00816659 -0.0728811)
(-0.0127704 0.00881858 -0.0782803)
(-0.00968128 0.0101518 -0.0830439)
(-0.00640696 0.012426 -0.0871008)
(-0.00299962 0.0159054 -0.0903993)
(0.000471189 0.0208875 -0.0928901)
(0.00390221 0.0277735 -0.0945112)
(0.00715194 0.0371967 -0.0951756)
(0.0100275 0.0504232 -0.094708)
(0.0122851 0.0707761 -0.0926184)
(0.0133063 0.108522 -0.0871539)
(0.0117229 0.190448 -0.0724903)
(0.00242876 0.305627 -0.0334014)
(0.00991152 -0.145233 0.00697469)
(0.0246374 -0.294918 0.0396122)
(0.0302848 -0.373488 0.0459599)
(0.0270543 -0.394984 0.0397637)
(0.0248568 -0.390001 0.0300464)
(0.0210219 -0.370155 0.0200527)
(0.0177021 -0.335265 0.0143213)
(0.0169397 -0.282067 0.0149004)
(0.017744 -0.216935 0.0204618)
(0.0197163 -0.148452 0.027853)
(0.0217406 -0.084798 0.0325567)
(0.0223887 -0.0348172 0.0305642)
(0.0210359 -0.00461028 0.0218196)
(0.0186192 0.00924734 0.010425)
(0.0161291 0.014174 -0.000114091)
(0.0139985 0.0150861 -0.00863014)
(0.0122771 0.0147026 -0.0151826)
(0.0109073 0.0143545 -0.0201744)
(0.00986825 0.01458 -0.0240504)
(0.00916098 0.0155144 -0.0271919)
(0.00877367 0.0171235 -0.0299196)
(0.0086789 0.0193294 -0.0325014)
(0.00884074 0.0220561 -0.0351544)
(0.00921952 0.0252436 -0.0380473)
(0.00976989 0.0288596 -0.0413035)
(0.0104435 0.0329421 -0.0449956)
(0.0111899 0.0376143 -0.0491303)
(0.0119464 0.0431188 -0.0536213)
(0.012618 0.049864 -0.0582811)
(0.0130734 0.05853 -0.0628226)
(0.0131582 0.0705231 -0.0668852)
(0.0126647 0.0900868 -0.0700796)
(0.0108561 0.133716 -0.070942)
(0.00777396 0.244145 -0.0616261)
(0.000635128 0.357293 -0.0266496)
(0.00323053 -0.157562 0.00723992)
(0.00873431 -0.234191 -0.00108606)
(0.0102908 -0.248528 -0.00542541)
(0.0107562 -0.248227 -0.00621642)
(0.0102019 -0.238144 -0.0060423)
(0.0090164 -0.215254 -0.0063474)
(0.00690078 -0.178983 -0.010838)
(0.00422049 -0.140512 -0.0203609)
(0.00248032 -0.107934 -0.0286218)
(0.0025207 -0.0790383 -0.0300845)
(0.00461391 -0.0476668 -0.0241851)
(0.00853779 -0.0113304 -0.0141975)
(0.0130581 0.0225238 -0.00660886)
(0.0159142 0.0405152 -0.00543544)
(0.0172386 0.0477192 -0.00728189)
(0.0179377 0.0517917 -0.00995688)
(0.0181201 0.0544213 -0.0130558)
(0.0178824 0.055681 -0.0162511)
(0.0174106 0.0558757 -0.019281)
(0.0168006 0.0553687 -0.0219901)
(0.0161373 0.0545529 -0.0243338)
(0.0155082 0.0538126 -0.0263566)
(0.0149825 0.0535139 -0.0281532)
(0.0146063 0.0540292 -0.0298206)
(0.0143922 0.0557207 -0.0314534)
(0.0143134 0.0588896 -0.0331762)
(0.0143111 0.0638104 -0.035145)
(0.0143101 0.0708918 -0.0375358)
(0.0142282 0.0807911 -0.0405876)
(0.0139982 0.0947578 -0.044579)
(0.0135609 0.115504 -0.0497963)
(0.0128007 0.1496 -0.0562152)
(0.0110122 0.212907 -0.0613086)
(0.00763218 0.322821 -0.0553853)
(0.000744816 0.404472 -0.0249259)
(0.00216293 -0.251592 0.0258506)
(0.00294085 -0.371751 0.0367473)
(0.000380809 -0.402691 0.0395879)
(-0.0028871 -0.402352 0.039687)
(-0.00625914 -0.38592 0.0386409)
(-0.00934253 -0.352535 0.0361089)
(-0.0108198 -0.304471 0.0311156)
(-0.00999604 -0.24766 0.0219708)
(-0.00781212 -0.19101 0.00844399)
(-0.00528545 -0.143231 -0.00460237)
(-0.00276332 -0.104927 -0.0123882)
(-7.05071e-05 -0.0704672 -0.0140844)
(0.00294192 -0.0354546 -0.0111472)
(0.00578983 -0.00184875 -0.007108)
(0.00803323 0.023144 -0.00560587)
(0.00958049 0.0372768 -0.00673075)
(0.0107765 0.0455292 -0.00881798)
(0.0119084 0.0518474 -0.0111293)
(0.013005 0.057471 -0.0135203)
(0.0139477 0.0622918 -0.0158933)
(0.0146576 0.0661536 -0.0181194)
(0.0151339 0.0692024 -0.0201142)
(0.0154089 0.0717389 -0.0218529)
(0.0155319 0.0741323 -0.0233697)
(0.0155599 0.0767804 -0.0247382)
(0.0155378 0.0801189 -0.0260431)
(0.0154796 0.0846638 -0.0273813)
(0.0153458 0.0908655 -0.0289211)
(0.0150558 0.0990718 -0.0309042)
(0.0144995 0.109964 -0.0335742)
(0.0135478 0.125533 -0.0372393)
(0.0119078 0.153556 -0.0426563)
(0.00919057 0.224158 -0.0498371)
(0.00623457 0.362555 -0.047587)
(0.000294405 0.438021 -0.021052)
(-0.00968163 -0.190249 0.0155488)
(-0.0206783 -0.229098 0.00158496)
(-0.0262674 -0.23342 -0.00470971)
(-0.0299492 -0.226577 -0.00830286)
(-0.0305356 -0.212278 -0.0104135)
(-0.0273996 -0.197493 -0.0102039)
(-0.0217052 -0.182196 -0.00797578)
(-0.0141184 -0.161416 -0.0048626)
(-0.00538905 -0.132852 -0.00245256)
(0.00328315 -0.0986768 -0.00229607)
(0.0107784 -0.0634141 -0.004318)
(0.0164904 -0.0306749 -0.00677224)
(0.0206477 -0.00160926 -0.00768005)
(0.0239759 0.023663 -0.00646653)
(0.0266173 0.0435478 -0.00471375)
(0.0281955 0.0560277 -0.00418513)
(0.0287432 0.0626801 -0.00501267)
(0.0285878 0.0669553 -0.00653427)
(0.0279593 0.0709963 -0.00831922)
(0.0270454 0.0752833 -0.0101662)
(0.0260784 0.0795 -0.0119503)
(0.0251764 0.0834362 -0.0136046)
(0.0243332 0.0870717 -0.0151111)
(0.02351 0.0905394 -0.0164714)
(0.0226767 0.0942607 -0.017684)
(0.0218017 0.0989495 -0.0187474)
(0.0208706 0.105433 -0.0196964)
(0.0199081 0.114579 -0.020691)
(0.018963 0.127613 -0.0221177)
(0.0180598 0.146711 -0.0247154)
(0.0170803 0.176265 -0.0296698)
(0.0154954 0.225118 -0.0380159)
(0.0110692 0.310463 -0.0467514)
(0.00620269 0.432884 -0.0443916)
(8.94975e-05 0.478333 -0.0213606)
(-0.00485473 -0.142614 0.00833113)
(-0.00421999 -0.315435 0.00692216)
(0.00108392 -0.38965 0.00949095)
(0.00770738 -0.423436 0.0122375)
(0.0147093 -0.438359 0.0148715)
(0.0215211 -0.438995 0.0169312)
(0.0279224 -0.423978 0.0183059)
(0.0336991 -0.390665 0.0192467)
(0.0388928 -0.341269 0.020349)
(0.0441093 -0.282176 0.0224197)
(0.0497266 -0.218974 0.0252673)
(0.0553783 -0.156048 0.0270803)
(0.060158 -0.0979603 0.0256467)
(0.063076 -0.0491219 0.0203772)
(0.0636804 -0.0114612 0.013361)
(0.0620094 0.017171 0.00761354)
(0.0584067 0.0406539 0.00447233)
(0.0537051 0.0601622 0.00321513)
(0.048872 0.0744041 0.00234151)
(0.0444881 0.0836769 0.00110173)
(0.0406405 0.0898642 -0.00042554)
(0.0373263 0.0946594 -0.00198421)
(0.0345263 0.0990607 -0.00343486)
(0.0321509 0.103601 -0.00476984)
(0.0300583 0.108585 -0.00606554)
(0.028106 0.114204 -0.00743146)
(0.0261604 0.120561 -0.0089856)
(0.0241304 0.127816 -0.0108079)
(0.0220295 0.136671 -0.0129259)
(0.0199186 0.149382 -0.0155128)
(0.0176914 0.172654 -0.0195464)
(0.0151226 0.2266 -0.0279477)
(0.0102938 0.343769 -0.0402867)
(0.00510733 0.484724 -0.0408137)
(-0.000174842 0.50825 -0.0213738)
(0.00200009 -0.145778 -0.0114932)
(0.0164802 -0.284027 -0.0135272)
(0.0276453 -0.336641 -0.0134623)
(0.0351016 -0.349596 -0.0153249)
(0.0403298 -0.345616 -0.0189565)
(0.0441227 -0.32913 -0.0248698)
(0.0456752 -0.302594 -0.0331489)
(0.0450866 -0.271606 -0.0422412)
(0.0433537 -0.239497 -0.0499676)
(0.0414844 -0.206558 -0.0533578)
(0.0404861 -0.171031 -0.0492385)
(0.0411271 -0.129434 -0.03706)
(0.0434204 -0.0790218 -0.0198206)
(0.0464392 -0.0210451 -0.00334449)
(0.0485301 0.0365852 0.00630731)
(0.0484424 0.0831958 0.00858372)
(0.0461311 0.111376 0.00821144)
(0.0431139 0.123635 0.00800474)
(0.0401199 0.128495 0.00825784)
(0.036951 0.130006 0.00889267)
(0.0337226 0.129441 0.00960773)
(0.0306241 0.127957 0.0100546)
(0.0277428 0.126858 0.0101206)
(0.0251581 0.127165 0.00991046)
(0.0228831 0.129515 0.00957109)
(0.020865 0.134436 0.00912595)
(0.0190362 0.142578 0.00834848)
(0.0172834 0.154542 0.00666205)
(0.0153891 0.170602 0.00328457)
(0.0131439 0.19192 -0.0023688)
(0.0105107 0.22615 -0.0107535)
(0.00788637 0.297621 -0.0227996)
(0.0042062 0.430291 -0.0359224)
(0.00126677 0.541166 -0.036447)
(-0.000809936 0.531628 -0.0216046)
(0.00632674 -0.24873 0.000686109)
(0.021245 -0.430724 0.0156748)
(0.0316459 -0.487477 0.0213075)
(0.0385816 -0.497913 0.0226064)
(0.0433266 -0.488804 0.0208219)
(0.046235 -0.464164 0.0159282)
(0.0462004 -0.424565 0.00783311)
(0.0430113 -0.371971 -0.00389429)
(0.0375 -0.310243 -0.0213996)
(0.0309219 -0.249744 -0.0430528)
(0.0251589 -0.201142 -0.0595082)
(0.0214175 -0.16337 -0.0646155)
(0.0196239 -0.126936 -0.0578693)
(0.0198441 -0.0818772 -0.0403167)
(0.0215667 -0.0268339 -0.0191115)
(0.0231675 0.02706 -0.00436215)
(0.0236471 0.0702121 0.00189664)
(0.0234774 0.0994365 0.00370137)
(0.0230582 0.115283 0.00433416)
(0.0224538 0.12391 0.00494377)
(0.0214829 0.129245 0.00592922)
(0.0200371 0.132443 0.00734674)
(0.018238 0.134191 0.00900401)
(0.0162248 0.135333 0.0107331)
(0.0141793 0.136809 0.0124131)
(0.0122753 0.139573 0.0140067)
(0.0105672 0.144651 0.015516)
(0.00902866 0.15361 0.0167918)
(0.00764195 0.16864 0.0170764)
(0.00619821 0.191197 0.0145996)
(0.00422886 0.223945 0.00716434)
(0.00224107 0.290722 -0.00635144)
(0.0014724 0.439585 -0.023203)
(0.00125482 0.557467 -0.0271519)
(0.000174625 0.535255 -0.0166376)
(0.00657209 -0.335883 0.0121275)
(0.00862191 -0.445306 0.0172937)
(0.00732856 -0.4492 0.0138357)
(0.0052422 -0.432324 0.00838658)
(0.00234668 -0.39414 -0.00174932)
(-0.000782563 -0.332411 -0.0182872)
(-0.00439314 -0.262009 -0.0372093)
(-0.00776568 -0.198146 -0.0534542)
(-0.00966478 -0.145347 -0.0667299)
(-0.00982706 -0.106628 -0.0772621)
(-0.00895875 -0.0822116 -0.0827252)
(-0.00786459 -0.0638257 -0.0833678)
(-0.00694258 -0.0434326 -0.0789886)
(-0.00649161 -0.0135881 -0.0662308)
(-0.00662117 0.0300398 -0.0449967)
(-0.00692697 0.0759362 -0.0259449)
(-0.00662478 0.107147 -0.0159463)
(-0.00555999 0.122996 -0.0118378)
(-0.00431736 0.13212 -0.00965872)
(-0.00304399 0.138721 -0.00783577)
(-0.00189887 0.143506 -0.00587415)
(-0.00104899 0.146473 -0.00375243)
(-0.000501037 0.148033 -0.00152719)
(-0.000257262 0.148832 0.000709955)
(-0.000295715 0.149658 0.00287051)
(-0.000543129 0.151388 0.00488792)
(-0.000902065 0.155029 0.00689764)
(-0.00126642 0.162238 0.00919653)
(-0.00143167 0.17633 0.01189)
(-0.00116404 0.20308 0.014198)
(-0.000517091 0.249204 0.0128779)
(8.2652e-05 0.323038 0.00307515)
(0.00103907 0.460063 -0.0118928)
(0.0022099 0.572015 -0.0170877)
(0.000735852 0.545933 -0.0101888)
(-0.00379906 -0.341888 0.0300932)
(-0.0150921 -0.447967 0.0317598)
(-0.0222408 -0.46193 0.0296801)
(-0.0279924 -0.452121 0.026076)
(-0.0323025 -0.420958 0.0192802)
(-0.0320103 -0.371177 0.00806812)
(-0.0280248 -0.317611 -0.00559815)
(-0.0232616 -0.267931 -0.0194671)
(-0.0189083 -0.223133 -0.0322294)
(-0.0154798 -0.182894 -0.0427296)
(-0.0133542 -0.147174 -0.0495341)
(-0.0125365 -0.113404 -0.0517202)
(-0.0128603 -0.0765302 -0.0489151)
(-0.0139361 -0.0321257 -0.0409627)
(-0.014308 0.0179606 -0.0297818)
(-0.0129741 0.0615846 -0.0205624)
(-0.0104853 0.0891829 -0.0157713)
(-0.00764887 0.105134 -0.0135361)
(-0.00475457 0.115713 -0.0121638)
(-0.00189703 0.12362 -0.0109647)
(0.000771491 0.129665 -0.00974652)
(0.00316831 0.134183 -0.00847066)
(0.00525069 0.137553 -0.00715668)
(0.00698823 0.140229 -0.00584134)
(0.00836674 0.14272 -0.00455719)
(0.00939272 0.145592 -0.00330727)
(0.0101102 0.149491 -0.00202049)
(0.0106051 0.155292 -0.000593999)
(0.0110067 0.164529 0.00111219)
(0.0115942 0.180887 0.00348372)
(0.0123071 0.215952 0.00706945)
(0.0125326 0.29123 0.00480843)
(0.00910033 0.449063 -0.00576799)
(0.0066874 0.588835 -0.0100855)
(0.00233016 0.56453 -0.00526725)
(-0.00949378 -0.242678 0.0138969)
(-0.0167414 -0.358701 0.00935546)
(-0.0192094 -0.38898 0.0106367)
(-0.0194323 -0.397225 0.0129096)
(-0.0177132 -0.392046 0.0161858)
(-0.012836 -0.367695 0.0195477)
(-0.00490373 -0.317423 0.0197246)
(0.00395368 -0.247032 0.0148222)
(0.0115436 -0.17565 0.00614644)
(0.0159757 -0.115957 -0.00484012)
(0.0163361 -0.0699171 -0.0159837)
(0.0131546 -0.0332199 -0.0233082)
(0.00821026 -0.000808344 -0.0244373)
(0.00353069 0.0276397 -0.0213084)
(0.00051364 0.0513 -0.0173766)
(-0.000533434 0.0705165 -0.0143357)
(3.00998e-06 0.0854083 -0.0124002)
(0.0014712 0.0967067 -0.0112023)
(0.00344977 0.10557 -0.0103675)
(0.00574499 0.112794 -0.00965838)
(0.00820316 0.11878 -0.00896364)
(0.0107141 0.123783 -0.00824195)
(0.0132029 0.128035 -0.00748677)
(0.0156153 0.131824 -0.00671559)
(0.0179135 0.135511 -0.0059673)
(0.0200804 0.139549 -0.00528352)
(0.0221086 0.144532 -0.00470654)
(0.0239795 0.151313 -0.00426763)
(0.025689 0.161556 -0.00395197)
(0.0273235 0.180939 -0.00356566)
(0.0273729 0.233177 -0.00339449)
(0.0228166 0.332369 -0.00513861)
(0.0126134 0.507746 -0.00933512)
(0.00680845 0.634526 -0.00939135)
(0.00257569 0.600925 -0.00623193)
(-0.00282137 -0.22926 0.00663033)
(0.00283555 -0.416402 0.00905006)
(0.00793929 -0.480494 0.0128187)
(0.013431 -0.504301 0.0153357)
(0.0179112 -0.511986 0.0172627)
(0.0212319 -0.506628 0.0189079)
(0.0232718 -0.481223 0.0211974)
(0.0247707 -0.423204 0.0253664)
(0.0274201 -0.336557 0.0321544)
(0.0318734 -0.235405 0.0390864)
(0.0357769 -0.135348 0.0385275)
(0.0355848 -0.0566486 0.0264133)
(0.0310937 -0.00485068 0.0115406)
(0.0254237 0.0306991 0.00250905)
(0.0207456 0.0562558 -0.00103339)
(0.0176171 0.0736461 -0.00217813)
(0.015884 0.084734 -0.0026553)
(0.0152033 0.0917144 -0.00299155)
(0.0152526 0.096922 -0.00321894)
(0.0159161 0.101489 -0.00327776)
(0.0170945 0.105539 -0.00316)
(0.0186542 0.10907 -0.00287915)
(0.0204878 0.112151 -0.00246472)
(0.0224937 0.114949 -0.00196522)
(0.0246168 0.117755 -0.00141361)
(0.026819 0.120937 -0.000842729)
(0.0290294 0.124993 -0.000319924)
(0.031101 0.130762 7.82064e-05)
(0.0329884 0.140309 0.000505001)
(0.033711 0.165598 0.000597778)
(0.032591 0.25158 -0.00618482)
(0.02298 0.395785 -0.0187811)
(0.00927218 0.587174 -0.0227526)
(0.00356858 0.676493 -0.021089)
(0.00174101 0.6366 -0.018275)
(0.00416265 -0.247011 -0.0101921)
(0.0179987 -0.41634 0.000427886)
(0.0278356 -0.464719 0.00583363)
(0.0345475 -0.470972 0.00615204)
(0.0400239 -0.458291 0.00298347)
(0.0440369 -0.42454 -0.00562946)
(0.0440163 -0.368614 -0.0222876)
(0.0391474 -0.309295 -0.042499)
(0.0323372 -0.261129 -0.050852)
(0.0278771 -0.208888 -0.0380204)
(0.0279586 -0.129741 -0.00875392)
(0.0307175 -0.0279093 0.0160141)
(0.0304762 0.0529033 0.0199066)
(0.0263977 0.0881733 0.0130857)
(0.0222886 0.0986828 0.00723384)
(0.0191909 0.102158 0.00348584)
(0.0167977 0.103568 0.000958056)
(0.0150523 0.104184 -0.000750437)
(0.0139735 0.10456 -0.00185772)
(0.0134727 0.104948 -0.00252685)
(0.0135062 0.105432 -0.00285449)
(0.0140048 0.106053 -0.00289319)
(0.0148743 0.106866 -0.00267574)
(0.0160133 0.107979 -0.00222714)
(0.0173285 0.1096 -0.00157234)
(0.0187225 0.112105 -0.000769625)
(0.0201092 0.116083 0.000133634)
(0.0214564 0.122766 0.00128603)
(0.0225459 0.136775 0.00321589)
(0.0218632 0.180143 0.0049517)
(0.0210328 0.3115 -0.00393905)
(0.0123059 0.512993 -0.0311606)
(0.000725303 0.669008 -0.0404632)
(-0.00182296 0.717163 -0.0397078)
(-0.00143221 0.654597 -0.0340158)
(0.00628408 -0.361844 0.0151473)
(0.0144402 -0.545061 0.047619)
(0.0197626 -0.584133 0.058421)
(0.0230667 -0.585503 0.0615806)
(0.0254558 -0.567955 0.0607388)
(0.0263114 -0.522715 0.0542828)
(0.0243738 -0.43937 0.0381157)
(0.0196695 -0.330699 0.00351579)
(0.011627 -0.246025 -0.0356651)
(0.00385648 -0.196685 -0.0523351)
(-0.00230339 -0.150221 -0.0431588)
(-0.00559149 -0.077017 -0.0148257)
(-0.00645385 0.0108181 0.00772868)
(-0.00662796 0.0759567 0.0119967)
(-0.00622039 0.101557 0.00805408)
(-0.00575596 0.109617 0.00462427)
(-0.00539914 0.112655 0.00181531)
(-0.0051544 0.112882 -0.000628526)
(-0.00487963 0.111492 -0.00257924)
(-0.00449556 0.109431 -0.00402661)
(-0.00398109 0.107318 -0.0050071)
(-0.0033458 0.105526 -0.00556184)
(-0.00262221 0.104276 -0.00572207)
(-0.00186236 0.103738 -0.005507)
(-0.00113355 0.104113 -0.00492781)
(-0.000497328 0.105724 -0.00399982)
(3.28585e-05 0.109174 -0.00276273)
(0.000419791 0.115787 -0.00103507)
(0.000487418 0.131269 0.00198135)
(-0.000638835 0.1797 0.00627884)
(-5.97392e-05 0.321182 0.00364891)
(0.00198176 0.572259 -0.0259657)
(-0.00421066 0.713132 -0.0463193)
(-0.00502522 0.741111 -0.0477847)
(-0.00336662 0.641796 -0.0375038)
(-0.000123859 -0.383444 0.0311532)
(-0.00405152 -0.52061 0.0531804)
(-0.00629624 -0.539051 0.0565585)
(-0.00866609 -0.530719 0.0553482)
(-0.0117623 -0.49339 0.04861)
(-0.0156837 -0.407964 0.0317882)
(-0.020022 -0.298466 0.010044)
(-0.0226634 -0.197516 -0.011904)
(-0.0254582 -0.121842 -0.0313957)
(-0.0300234 -0.0700094 -0.0366248)
(-0.0366456 -0.0203146 -0.0280222)
(-0.043297 0.0332093 -0.0121914)
(-0.045589 0.0737012 -0.0027311)
(-0.0438821 0.0907079 -0.00150019)
(-0.0412924 0.0985642 -0.00186625)
(-0.03822 0.103415 -0.00274112)
(-0.0349602 0.106243 -0.00400538)
(-0.0320295 0.107197 -0.00541594)
(-0.0294367 0.106834 -0.00680079)
(-0.0271816 0.105769 -0.00805719)
(-0.025249 0.104533 -0.00911902)
(-0.0236175 0.103536 -0.00993682)
(-0.0222705 0.103088 -0.0104684)
(-0.0212039 0.103431 -0.0106756)
(-0.0204266 0.104793 -0.0105237)
(-0.0199496 0.10745 -0.00998388)
(-0.019769 0.111883 -0.00903783)
(-0.0198943 0.119838 -0.00738604)
(-0.0203737 0.137295 -0.00418905)
(-0.0208679 0.181611 0.00152998)
(-0.0183771 0.301947 0.0079853)
(-0.00630663 0.556548 -0.00260081)
(-0.00344176 0.732763 -0.030069)
(-0.00360517 0.75052 -0.033287)
(-0.00196821 0.623335 -0.022959)
(-0.00975181 -0.327883 0.0430549)
(-0.0154181 -0.519046 0.07435)
(-0.0172301 -0.55999 0.0832353)
(-0.0173669 -0.560637 0.0851047)
(-0.0173488 -0.52766 0.0816234)
(-0.016842 -0.444848 0.0683248)
(-0.0146676 -0.340625 0.0504237)
(-0.0107066 -0.243128 0.0368195)
(-0.00743306 -0.15427 0.0251379)
(-0.00707186 -0.08107 0.0144671)
(-0.00955607 -0.0239996 0.00776703)
(-0.0124157 0.0207236 0.00592547)
(-0.0141361 0.0519146 0.00581328)
(-0.0152357 0.0698055 0.00476085)
(-0.0160088 0.0800132 0.00321443)
(-0.0164507 0.0859647 0.0015863)
(-0.0166956 0.0894724 -2.76265e-05)
(-0.0167388 0.091878 -0.00168974)
(-0.0166282 0.0936857 -0.00343737)
(-0.0164799 0.0949705 -0.00520431)
(-0.0163601 0.095978 -0.00692705)
(-0.0163022 0.0970017 -0.0085412)
(-0.0163279 0.098332 -0.00998234)
(-0.0164571 0.100225 -0.0111891)
(-0.0167148 0.102892 -0.0121071)
(-0.0171326 0.106538 -0.0126891)
(-0.0177755 0.111854 -0.0128837)
(-0.0186318 0.120203 -0.0124343)
(-0.0196165 0.134152 -0.0109572)
(-0.0202224 0.162879 -0.00736782)
(-0.0187724 0.239475 0.000904302)
(-0.00748974 0.445729 0.0113149)
(0.00116376 0.705543 -0.00151708)
(0.00128783 0.735678 -0.00465512)
(0.00113479 0.619571 4.7326e-05)
(8.73655e-05 -0.290486 0.0233292)
(0.0129981 -0.524233 0.0540872)
(0.0200375 -0.591839 0.0673648)
(0.0256671 -0.599684 0.0720436)
(0.0294183 -0.572136 0.0706819)
(0.0295009 -0.503057 0.0601418)
(0.0253576 -0.406867 0.0427317)
(0.0230402 -0.3051 0.029407)
(0.0245076 -0.201547 0.0261849)
(0.0281688 -0.0962222 0.0276451)
(0.0310071 -0.00810564 0.0267578)
(0.0309458 0.0470154 0.0230804)
(0.0281389 0.075371 0.0193685)
(0.0240346 0.0903505 0.0163948)
(0.019783 0.0987899 0.0137463)
(0.0160674 0.102856 0.0111856)
(0.0128601 0.104591 0.00867996)
(0.00993387 0.105346 0.0061473)
(0.00735621 0.105687 0.00353929)
(0.00515495 0.105893 0.000865852)
(0.00327358 0.106169 -0.0018359)
(0.00166617 0.106732 -0.00450907)
(0.000290717 0.107798 -0.00708156)
(-0.000901124 0.109567 -0.00946949)
(-0.00195586 0.112214 -0.0115857)
(-0.00293356 0.116073 -0.0134122)
(-0.00389914 0.121838 -0.0149769)
(-0.00489084 0.130417 -0.016218)
(-0.00585483 0.143384 -0.0169013)
(-0.00662003 0.166169 -0.0163652)
(-0.00661706 0.219573 -0.0118379)
(-0.00264075 0.374965 0.00435353)
(0.00362358 0.662384 0.0175676)
(0.00496764 0.719129 0.0182434)
(0.00291558 0.629858 0.0184614)
(0.0119909 -0.446739 0.0432979)
(0.0306242 -0.662798 0.074738)
(0.0381512 -0.704222 0.0818625)
(0.0378286 -0.686582 0.0810315)
(0.0328891 -0.608809 0.0679364)
(0.0213637 -0.481664 0.0356363)
(0.00545372 -0.367324 0.000850044)
(-0.00622043 -0.289933 -0.0197447)
(-0.0113621 -0.229769 -0.0232077)
(-0.0123296 -0.15954 -0.0134278)
(-0.0104874 -0.0696982 0.0016672)
(-0.00830401 0.0168271 0.0119369)
(-0.00631436 0.0761315 0.0152292)
(-0.00412448 0.102991 0.0148783)
(-0.00226386 0.113101 0.013723)
(-0.000657667 0.11793 0.0123455)
(0.000661646 0.119894 0.010716)
(0.00168372 0.120095 0.00885219)
(0.00250568 0.11938 0.00673292)
(0.00319084 0.118315 0.00434114)
(0.00377559 0.117297 0.00168748)
(0.00428397 0.116629 -0.00118145)
(0.0047347 0.116565 -0.00417965)
(0.00514348 0.117345 -0.00719733)
(0.00551373 0.119194 -0.0101126)
(0.00582681 0.122293 -0.0127877)
(0.00609373 0.127051 -0.0152318)
(0.00631798 0.134343 -0.017524)
(0.00648636 0.145637 -0.0196076)
(0.00660657 0.165375 -0.0212208)
(0.0066795 0.211911 -0.020655)
(0.00537842 0.352713 -0.00818815)
(0.00455261 0.633356 0.0194569)
(0.00510302 0.713786 0.0261108)
(0.00303988 0.642375 0.0252749)
(0.00365112 -0.56884 0.0826116)
(-0.00525186 -0.689711 0.0896314)
(-0.0160016 -0.672771 0.0852664)
(-0.0308658 -0.593303 0.0755882)
(-0.0431503 -0.430507 0.0449497)
(-0.0475112 -0.271622 -0.00424476)
(-0.0511959 -0.182889 -0.0349088)
(-0.0544996 -0.140838 -0.0388929)
(-0.0587081 -0.103334 -0.0326801)
(-0.0627868 -0.0561431 -0.0206487)
(-0.0639884 -0.00153375 -0.00724755)
(-0.0608006 0.0403962 0.000739276)
(-0.0547752 0.0618529 0.00396589)
(-0.0477044 0.0751973 0.00564315)
(-0.0400625 0.0845994 0.00657068)
(-0.0327588 0.091165 0.00694799)
(-0.0262257 0.0956645 0.00684712)
(-0.0204467 0.0987684 0.00627798)
(-0.0153689 0.101002 0.00523075)
(-0.0109497 0.102776 0.00370677)
(-0.00712847 0.104425 0.00172642)
(-0.00378483 0.106241 -0.000688514)
(-0.000830288 0.108454 -0.00347779)
(0.00175675 0.111255 -0.0064923)
(0.00401475 0.114855 -0.0095757)
(0.00600306 0.119596 -0.0126495)
(0.00776909 0.126006 -0.0156598)
(0.00930797 0.134946 -0.0185866)
(0.0106059 0.148376 -0.0214323)
(0.0116051 0.172759 -0.0241248)
(0.0117363 0.233365 -0.0253815)
(0.00826205 0.390917 -0.0163009)
(0.00363059 0.646259 0.0129251)
(0.00276523 0.719747 0.0220692)
(0.00193808 0.653399 0.0218316)
(-0.017165 -0.460506 0.0775775)
(-0.0397693 -0.589553 0.0669449)
(-0.0571606 -0.590744 0.065512)
(-0.0677963 -0.551784 0.0703231)
(-0.0651368 -0.483656 0.0769669)
(-0.0504934 -0.392156 0.0759992)
(-0.0367145 -0.286661 0.0633256)
(-0.0278425 -0.197972 0.0469621)
(-0.0251378 -0.13012 0.0333099)
(-0.0249443 -0.080286 0.0253104)
(-0.023884 -0.0447732 0.0215649)
(-0.021353 -0.0185166 0.0202011)
(-0.0180902 0.0016616 0.0195655)
(-0.0146026 0.0179337 0.019)
(-0.0110822 0.0312919 0.0183828)
(-0.0076123 0.042369 0.017655)
(-0.00428263 0.0516559 0.0167372)
(-0.00115072 0.0595563 0.0155392)
(0.0017417 0.0664031 0.0139798)
(0.00436605 0.072473 0.0120094)
(0.00670798 0.0780153 0.00962281)
(0.00876863 0.0832865 0.00685455)
(0.010548 0.0885609 0.003756)
(0.0120581 0.0941134 0.00039687)
(0.0133264 0.10024 -0.00313544)
(0.0143781 0.107317 -0.00674842)
(0.0152182 0.115925 -0.0103706)
(0.0158301 0.127105 -0.0139563)
(0.0161876 0.143432 -0.0175205)
(0.0161954 0.173698 -0.0211349)
(0.0152603 0.251788 -0.0241474)
(0.010914 0.435677 -0.0199398)
(0.00490123 0.670309 0.00364973)
(0.00291627 0.729259 0.0122644)
(0.00188131 0.660162 0.0134877)
(-0.00921947 -0.346127 0.0378429)
(-0.0178923 -0.549675 0.0223287)
(-0.0253116 -0.619278 0.0229473)
(-0.0281189 -0.657631 0.0337118)
(-0.0298603 -0.667237 0.0530553)
(-0.0270676 -0.614028 0.0806516)
(-0.0147934 -0.47807 0.102091)
(0.00193139 -0.32498 0.104844)
(0.0171391 -0.199772 0.0932765)
(0.0277872 -0.114734 0.0772823)
(0.0337573 -0.0626188 0.0636584)
(0.0359326 -0.0313342 0.054208)
(0.0356123 -0.0111266 0.0480702)
(0.0342593 0.00383255 0.0438786)
(0.0326788 0.0162021 0.0406108)
(0.0312388 0.0269368 0.0378144)
(0.0300848 0.0364607 0.0352275)
(0.0292164 0.045111 0.0326633)
(0.0285805 0.0531861 0.0299617)
(0.0281104 0.060933 0.0269801)
(0.027732 0.0685419 0.0236078)
(0.0273682 0.07614 0.0197962)
(0.0269473 0.0838015 0.0155862)
(0.0264227 0.0916203 0.0111072)
(0.0257799 0.0998098 0.00652016)
(0.0250267 0.108783 0.00195494)
(0.0241667 0.119245 -0.00251225)
(0.0231603 0.132499 -0.00685513)
(0.0219581 0.151682 -0.0111209)
(0.0204732 0.187067 -0.0154493)
(0.0182349 0.277149 -0.0196619)
(0.0139226 0.479594 -0.0202911)
(0.00779404 0.698375 -0.00517703)
(0.00494797 0.74847 0.00194115)
(0.00268354 0.672383 0.00495011)
(-0.000145605 -0.367257 0.0316837)
(-0.00286429 -0.548491 0.00769044)
(-0.010341 -0.591665 -0.0102466)
(-0.0199486 -0.603849 -0.0204663)
(-0.031196 -0.612422 -0.0224665)
(-0.0405134 -0.623057 -0.0106592)
(-0.0433084 -0.610883 0.0198667)
(-0.0328087 -0.533849 0.0589249)
(-0.0127452 -0.413589 0.0876241)
(0.0103735 -0.285671 0.101165)
(0.0319253 -0.172227 0.101793)
(0.0484588 -0.0857269 0.0940323)
(0.0583106 -0.0298259 0.0830217)
(0.0617801 0.00119265 0.0728179)
(0.0608856 0.0178321 0.0649392)
(0.058035 0.0284268 0.0590895)
(0.0547 0.0368216 0.0544491)
(0.051552 0.0442638 0.0504343)
(0.0487747 0.0513033 0.0466806)
(0.0463491 0.0583927 0.0429181)
(0.0442215 0.0659354 0.0388943)
(0.0423171 0.0742331 0.0343651)
(0.0405263 0.0833642 0.0291875)
(0.0387256 0.093143 0.0234691)
(0.0368328 0.103376 0.0175464)
(0.0348342 0.114211 0.0117568)
(0.032757 0.126327 0.00627961)
(0.0306256 0.141204 0.00113205)
(0.028416 0.162413 -0.0038058)
(0.0260059 0.201202 -0.00876012)
(0.0225815 0.298701 -0.0140993)
(0.0178679 0.51373 -0.0184266)
(0.0112732 0.731117 -0.0109998)
(0.00733205 0.780263 -0.0056739)
(0.00370594 0.698209 -0.00136892)
(-0.0029655 -0.345277 0.0135911)
(-0.0082853 -0.496832 -0.0166585)
(-0.0111277 -0.529366 -0.0294632)
(-0.0132647 -0.539546 -0.0364226)
(-0.0157181 -0.545007 -0.0416682)
(-0.0193584 -0.552256 -0.0457886)
(-0.0240641 -0.565594 -0.0458761)
(-0.0278836 -0.576629 -0.0343765)
(-0.0253544 -0.555813 -0.00673736)
(-0.0129605 -0.487925 0.0292224)
(0.00648556 -0.388594 0.0622889)
(0.0296849 -0.274125 0.0871614)
(0.0523623 -0.160843 0.100896)
(0.0703596 -0.0658732 0.102885)
(0.0805413 -0.00239978 0.0959344)
(0.0827713 0.0300212 0.0858602)
(0.0799098 0.0444961 0.076898)
(0.0749042 0.0524244 0.06979)
(0.0694874 0.0586066 0.0639363)
(0.0644851 0.0645822 0.0587427)
(0.0600575 0.071134 0.0537165)
(0.0561505 0.0789839 0.0483434)
(0.0526826 0.0887742 0.0420664)
(0.0495435 0.100533 0.034646)
(0.0466 0.113406 0.0266369)
(0.0437629 0.126659 0.0189529)
(0.0410037 0.140651 0.0120933)
(0.0383026 0.157134 0.00606089)
(0.0355367 0.180599 0.000622642)
(0.0324317 0.225064 -0.00438094)
(0.0276256 0.336068 -0.010147)
(0.0209736 0.559913 -0.016964)
(0.0130865 0.775413 -0.0145165)
(0.0079774 0.824125 -0.0108504)
(0.00369355 0.734874 -0.00612691)
(-0.0034724 -0.337664 0.00184678)
(-0.00291245 -0.536636 -0.0205248)
(-0.000723585 -0.59346 -0.0282575)
(0.00233875 -0.610605 -0.0319849)
(0.00564601 -0.611348 -0.0354209)
(0.00855445 -0.60019 -0.0404914)