/*--------------------------------*- C++ -*----------------------------------*\
| =========                 |                                                 |
| \\      /  F ield         | OpenFOAM: The Open Source CFD Toolbox           |
|  \\    /   O peration     | Version:  v1906                                 |
|   \\  /    A nd           | Web:      www.OpenFOAM.com                      |
|    \\/     M anipulation  |                                                 |
\*---------------------------------------------------------------------------*/
FoamFile
{
    version     2.0;
    format      ascii;
    class       volScalarField;
    location    "49/sphere";
    object      T;
}
// * * * * * * * * * * * * * * * * * * * * * * * * * * * * * * * * * * * * * //

dimensions      [0 0 0 1 0 0 0];


internalField   nonuniform List<scalar> 
304
(
473.252
473.28
473.277
473.294
473.252
473.248
473.25
473.28
473.25
473.398
473.398
473.293
473.277
473.395
473.395
473.322
473.288
473.32
473.248
473.278
473.295
473.25
473.281
473.398
473.397
473.323
473.295
473.396
473.396
473.348
473.245
473.32
473.347
473.282
473.251
473.296
473.323
473.256
473.255
473.323
473.348
473.283
473.248
473.282
473.235
473.239
473.252
473.252
473.254
473.287
473.252
473.252
473.287
473.254
473.239
473.253
473.256
473.254
473.288
473.28
473.28
473.295
473.295
473.325
473.324
473.349
473.251
473.295
473.281
473.324
473.294
473.35
473.324
473.253
473.256
473.288
473.254
473.249
473.249
473.283
473.246
473.293
473.243
473.275
473.321
473.348
473.287
473.319
473.279
473.276
473.246
473.348
473.322
473.32
473.289
473.285
473.251
473.247
473.233
473.246
473.246
473.281
473.246
473.281
473.248
473.246
473.233
473.253
473.25
473.251
473.286
473.28
473.293
473.324
473.279
473.295
473.323
473.35
473.251
473.324
473.294
473.295
473.279
473.35
473.323
473.253
473.251
473.286
473.252
473.294
473.28
473.324
473.28
473.324
473.295
473.349
473.25
473.324
473.281
473.324
473.28
473.349
473.295
473.321
473.244
473.288
473.294
473.348
473.276
473.32
473.279
473.289
473.246
473.348
473.294
473.321
473.276
473.249
473.246
473.282
473.247
473.32
473.247
473.276
473.32
473.347
473.276
473.293
473.288
473.277
473.246
473.347
473.32
473.293
473.276
473.281
473.246
473.246
473.25
473.252
473.286
473.256
473.295
473.324
473.35
473.249
473.279
473.294
473.324
473.278
473.349
473.323
473.279
473.247
473.323
473.291
473.285
473.251
473.252
473.325
473.296
473.35
473.254
473.297
473.282
473.325
473.28
473.349
473.296
473.294
473.252
473.324
473.281
473.349
473.277
473.32
473.281
473.324
473.247
473.29
473.294
473.321
473.277
473.322
473.278
473.289
473.246
473.281
473.247
473.249
473.347
473.276
473.293
473.289
473.32
473.247
473.277
473.321
473.294
473.277
473.321
473.29
473.278
473.249
473.247
473.247
473.25
473.242
473.25
473.255
473.285
473.251
473.285
473.252
473.25
473.238
473.259
473.255
473.289
473.255
473.324
473.325
473.35
473.254
473.281
473.282
473.296
473.294
473.349
473.324
473.279
473.25
473.295
473.28
473.287
473.253
473.252
473.287
473.25
473.251
473.348
473.289
473.32
473.279
473.294
473.245
473.276
473.322
473.321
473.289
473.294
473.278
473.276
473.246
473.25
473.248
473.249
473.235
473.282
473.247
473.247
473.249
473.248
473.247
)
;

boundaryField
{
    sphere_to_oil
    {
        type            compressible::turbulentTemperatureCoupledBaffleMixed;
        refValue        nonuniform List<scalar> 
360
(
338.979
338.979
321.098
361.689
370.269
323.153
371.372
371.372
371.372
346.821
346.821
325.614
329.106
318.206
345.078
359.974
356.299
356.299
356.299
320.476
354.922
332.014
334.252
364.427
316.368
364.793
321.305
364.62
364.62
364.62
372.124
363.641
321.101
320.758
325.382
325.532
357.285
357.285
357.285
356.54
364.128
326.378
325.597
339.292
339.292
321.152
327.87
313.781
337.602
365.177
323.138
323.185
328.617
329.047
320.279
331.898
357.099
320.583
325.687
330.332
318.557
365.915
365.915
365.915
313.812
364.425
337.524
326.025
369.942
369.942
369.942
370.783
369.242
317.455
354.792
344.38
319.107
333.17
364.094
357.386
335.164
325.759
334.671
318.447
321.062
322.872
325.731
328.923
318.727
320.672
321.164
328.368
325.418
321.413
328.136
325.458
325.794
325.819
322.081
315.939
316.023
319.754
323.128
325.444
328.358
319.592
318.17
329.087
321.939
325.876
325.834
325.73
322.087
320.405
314.07
314.024
330.337
326.044
331.704
338.703
338.703
361.689
361.689
364.427
364.427
362.478
362.478
362.478
363.876
363.876
363.876
330.937
326.243
330.316
320.656
370.269
370.269
343.136
343.136
372.124
372.124
341.808
341.808
371.311
371.311
371.311
320.455
319.671
360.453
360.453
360.453
360.323
360.323
360.323
359.974
354.922
345.078
359.974
359.168
319.493
359.168
359.168
334.294
335.008
325.895
331.947
331.947
365.623
365.623
365.623
318.663
354.922
332.014
364.594
364.594
318.53
364.594
334.903
325.795
313.858
321.272
321.571
328.351
316.261
327.901
321.54
313.888
315.891
364.793
364.793
363.641
363.641
339.5
339.5
361.759
361.759
361.759
337.525
337.525
315.805
325.047
323.36
328.548
325.206
322.918
328.481
321.849
329.155
325.884
321.826
356.54
329.112
326.083
320.559
365.031
365.031
365.031
332.835
332.835
318.503
325.773
325.683
330.219
364.128
326.286
330.082
325.874
356.54
364.128
332.715
320.541
332.715
318.883
314.026
327.802
316.33
321.461
321.342
321.6
316.14
315.564
365.863
360.557
365.863
365.863
360.557
360.557
365.177
364.425
337.602
363.191
315.874
365.177
363.191
363.191
327.929
320.694
325.302
328.303
321.379
370.783
325.236
325.719
325.805
322.059
357.099
354.792
325.907
325.654
322.006
356.599
359.328
331.898
364.541
318.725
357.099
364.541
364.541
330.709
326.28
364.094
325.752
325.646
325.54
364.444
325.997
364.158
332.644
356.599
332.644
364.444
356.599
364.444
313.749
326.08
329.75
330.011
338.133
361.813
338.133
361.813
361.813
315.816
364.425
362.899
337.524
362.899
315.797
362.899
331.066
330.644
319.155
368.851
342.479
368.851
368.851
342.479
319.571
322.879
325.183
328.322
369.242
370.783
342.085
320.322
369.242
342.085
319.645
354.792
360.156
344.38
360.156
318.388
360.156
329.208
357.386
322.142
326.037
359.163
356.989
359.328
344.151
359.328
359.163
344.151
359.163
325.337
334.504
364.094
332.007
318.548
357.386
332.007
320.761
364.158
356.989
364.158
332.574
356.989
332.574
)
;
        refGradient     uniform 0;
        valueFraction   nonuniform List<scalar> 
360
(
0.000134834
0.000129355
8.28141e-05
0.000295846
0.000303416
0.000173983
0.000305302
0.000262061
0.000407908
0.000129875
0.000126626
0.000169873
0.000258894
7.40232e-05
0.000132416
0.000257405
0.00029498
0.000275617
0.000386751
6.77355e-05
0.000253936
0.000124837
0.000115056
0.00030532
8.86461e-05
0.000313834
0.000176903
0.000309781
0.000405408
0.000271191
0.000309831
0.0003125
8.39129e-05
8.29755e-05
0.000174129
0.000171359
0.00028996
0.000393099
0.000269935
0.000405871
0.000400914
8.56064e-05
0.000169801
0.000123928
0.000123779
0.000174797
0.000261513
6.97707e-05
0.000124842
0.000264724
0.000172435
0.000173555
0.000258701
0.000256187
7.23791e-05
0.000132408
0.000270015
6.93373e-05
0.000171771
0.000256147
6.78688e-05
0.000301548
0.000266194
0.000416622
6.99701e-05
0.000272174
0.000126957
0.000122793
0.000308515
0.000402468
0.00027073
0.000388108
0.000393541
7.51619e-05
0.0002624
0.000133116
6.92971e-05
0.000124261
0.000392711
0.000407957
0.000121876
0.000119577
0.000117449
6.9802e-05
8.41736e-05
0.000170652
0.000171608
0.000259881
7.84479e-05
6.6238e-05
8.33046e-05
0.000259458
0.000171282
8.50963e-05
0.000259029
0.000173238
0.000172213
0.000172479
8.41085e-05
6.74176e-05
6.83633e-05
6.74533e-05
0.00017341
0.000170438
0.000259262
7.63301e-05
6.63008e-05
0.000259074
8.23032e-05
0.000170707
0.000170739
0.000174222
8.51925e-05
6.82182e-05
6.65303e-05
6.78156e-05
0.000118043
0.000118185
0.000122776
0.000133133
0.000125126
0.000258541
0.000407285
0.000272391
0.00041103
0.000263471
0.000405067
0.000301596
0.000263684
0.00039625
0.000297024
0.000121152
0.000114572
0.000117351
6.4782e-05
0.000268671
0.000404515
0.000125156
0.000125728
0.000408799
0.000271803
0.0001312
0.000138278
0.000403767
0.000277372
0.000319614
7.12965e-05
6.63491e-05
0.000280047
0.000388075
0.000307608
0.000288344
0.000401511
0.000307576
0.000317563
0.000292515
0.00013683
0.000407847
0.000263445
7.3449e-05
0.000396401
0.000296639
0.000113204
0.000119266
0.000117988
0.000124471
0.000130112
0.000405807
0.000267202
0.000313638
7.52012e-05
0.000390371
0.000133856
0.000410483
0.000262778
7.34553e-05
0.000311576
0.000114209
0.000115269
6.73471e-05
0.000176525
0.000176455
0.000260917
8.7008e-05
0.000261311
0.000171939
6.66555e-05
6.47247e-05
0.000408328
0.000259448
0.000403535
0.000269041
0.000128332
0.000120015
0.000405417
0.000253381
0.000292884
0.00011863
0.000137648
6.92494e-05
0.000173422
0.000173265
0.000258871
0.000169501
0.000170374
0.000257852
8.83797e-05
0.000258736
0.000175433
8.59467e-05
0.000291225
0.00025845
0.000174382
6.94964e-05
0.000396561
0.000257084
0.000300789
0.000125313
0.000116454
6.72668e-05
0.000172074
0.000174968
0.000259423
0.000294951
8.24921e-05
0.000256961
0.000167822
0.000255263
0.000270232
0.000122668
6.89005e-05
0.000136119
6.97524e-05
6.56583e-05
0.000262319
8.75414e-05
0.000176353
0.000174314
0.000172236
8.6441e-05
6.60289e-05
0.000268208
0.000251317
0.000421904
0.000314045
0.000393613
0.000282811
0.000303123
0.000310356
0.000137952
0.000266246
7.1733e-05
0.00040516
0.000393958
0.000299324
0.000261072
8.3187e-05
0.000169874
0.00025807
8.3932e-05
0.000307507
0.000170609
0.000171829
0.000170246
8.34241e-05
0.000305216
0.000286014
0.000173694
0.000169203
8.50304e-05
0.000286577
0.000315445
0.000125101
0.000283168
6.72518e-05
0.000403429
0.000391124
0.000295538
0.000256156
8.41491e-05
0.000296002
0.000170442
0.000170705
0.000171676
0.000297614
8.49376e-05
0.000304074
0.000127948
0.000262169
0.000129015
0.000267158
0.00040713
0.000399684
6.72198e-05
0.000134702
0.000133111
0.000130194
0.000118566
0.000396677
0.000129497
0.000263715
0.000310538
6.62402e-05
0.000400549
0.000400065
0.000130967
0.000284456
6.9417e-05
0.000304958
0.00011611
0.000114065
6.93596e-05
0.000392317
0.000117249
0.000257286
0.000303016
0.000125702
6.8525e-05
0.000170507
0.000170449
0.000257203
0.000294302
0.000255266
0.000123417
6.64332e-05
0.000259542
0.000137074
7.67256e-05
0.000376118
0.000403875
0.000119363
0.000256553
7.11289e-05
0.000322654
0.000259174
0.000310524
8.49472e-05
0.000171241
0.000299384
0.000290247
0.000273059
0.00012205
0.000399989
0.000399129
0.000144883
0.000266794
0.000117383
0.000119184
0.00026859
0.000132958
7.18868e-05
0.000271645
0.000128027
6.63867e-05
0.00039536
0.000400107
0.000263257
0.000127759
0.000258592
0.000131972
)
;
        value           nonuniform List<scalar> 
360
(
473.253
473.254
473.259
473.239
473.24
473.274
473.24
473.246
473.234
473.252
473.252
473.272
473.276
473.26
473.255
473.243
473.228
473.233
473.221
473.257
473.237
473.249
473.236
473.236
473.255
473.235
473.272
473.237
473.229
473.241
473.238
473.236
473.257
473.257
473.271
473.273
473.23
473.223
473.234
473.22
473.224
473.254
473.271
473.252
473.255
473.271
473.276
473.258
473.252
473.241
473.275
473.273
473.277
473.277
473.254
473.246
473.233
473.256
473.27
473.276
473.256
473.237
473.241
473.229
473.259
473.241
473.253
473.239
473.241
473.237
473.246
473.236
473.235
473.263
473.243
473.257
473.258
473.238
473.225
473.221
473.238
473.237
473.238
473.256
473.261
473.273
473.273
473.276
473.256
473.256
473.258
473.277
473.275
473.256
473.277
473.274
473.272
473.27
473.252
473.261
473.261
473.262
473.274
473.275
473.277
473.261
473.258
473.275
473.25
473.269
473.273
473.27
473.252
473.255
473.261
473.261
473.242
473.241
473.241
473.254
473.255
473.243
473.228
473.242
473.229
473.242
473.229
473.238
473.242
473.23
473.238
473.241
473.242
473.242
473.263
473.245
473.234
473.256
473.257
473.235
473.246
473.255
473.255
473.234
473.245
473.237
473.262
473.258
473.237
473.222
473.228
473.236
473.221
473.229
473.229
473.231
473.253
473.221
473.24
473.259
473.222
473.231
473.237
473.236
473.235
473.248
473.248
473.222
473.237
473.232
473.254
473.221
473.247
473.222
473.237
473.254
473.232
473.236
473.235
473.259
473.272
473.271
473.276
473.257
473.276
473.273
473.26
473.26
473.228
473.241
473.228
473.241
473.252
473.254
473.228
473.243
473.237
473.254
473.253
473.261
473.274
473.273
473.277
473.275
473.274
473.277
473.25
473.276
473.269
473.252
473.231
473.276
473.27
473.255
473.225
473.238
473.234
473.248
473.25
473.256
473.271
473.27
473.275
473.233
473.253
473.276
473.271
473.235
473.236
473.248
473.255
473.246
473.255
473.259
473.276
473.255
473.271
473.271
473.272
473.253
473.261
473.24
473.243
473.23
473.235
473.231
473.241
473.234
473.233
473.252
473.241
473.259
473.227
473.228
473.239
473.277
473.261
473.276
473.278
473.259
473.24
473.275
473.271
473.275
473.254
473.231
473.233
473.27
473.273
473.252
473.232
473.229
473.248
473.235
473.256
473.221
473.226
473.234
473.276
473.254
473.234
473.272
473.272
473.272
473.237
473.256
473.236
473.249
473.236
473.248
473.238
473.222
473.226
473.258
473.242
473.243
473.243
473.253
473.23
473.253
473.241
473.239
473.26
473.228
473.227
473.252
473.238
473.259
473.236
473.241
473.241
473.263
473.237
473.259
473.247
473.242
473.258
473.264
473.274
473.276
473.278
473.239
473.247
473.257
473.263
473.244
473.253
473.26
473.225
473.224
473.255
473.242
473.26
473.228
473.276
473.228
473.252
473.271
473.231
473.231
473.238
473.253
473.222
473.222
473.249
473.238
473.238
473.238
473.238
473.248
473.256
473.235
473.248
473.256
473.226
473.222
473.239
473.249
473.236
473.247
)
;
        Tnbr            T;
        thicknessLayers 0();
        kappaLayers     0();
        kappaMethod     solidThermo;
        kappa           none;
        alphaAni        none;
    }
}


// ************************************************************************* //
