/*--------------------------------*- C++ -*----------------------------------*\
| =========                 |                                                 |
| \\      /  F ield         | OpenFOAM: The Open Source CFD Toolbox           |
|  \\    /   O peration     | Version:  v1906                                 |
|   \\  /    A nd           | Web:      www.OpenFOAM.com                      |
|    \\/     M anipulation  |                                                 |
\*---------------------------------------------------------------------------*/
FoamFile
{
    version     2.0;
    format      ascii;
    class       volScalarField;
    location    "950";
    object      k;
}
// * * * * * * * * * * * * * * * * * * * * * * * * * * * * * * * * * * * * * //

dimensions      [0 2 -2 0 0 0 0];


internalField   nonuniform List<scalar> 
78750
(
4.32874e-05
0.000166508
0.000239412
0.00028889
0.000330515
0.00036755
0.000400347
0.000428767
0.000453186
0.000474086
0.000491865
0.00050705
0.000520062
0.000531374
0.000542638
0.000551904
0.000558196
0.000562135
0.000564392
0.000563816
0.000562696
0.000559953
0.000555449
0.000549095
0.000541209
0.000531386
0.000520993
0.000509681
0.000497257
0.000483046
0.000466594
0.000446559
0.00041921
0.000354661
0.000126495
2.20237e-05
0.000111306
0.000193386
0.000284125
0.000377841
0.000461877
0.000532201
0.000589889
0.000636881
0.000674922
0.000705459
0.000729467
0.000747468
0.000758634
0.000762075
0.000761106
0.000755742
0.000746573
0.000733966
0.000718215
0.000699697
0.000679383
0.000659357
0.000640519
0.000621897
0.000602181
0.000582273
0.000563124
0.000542865
0.000520944
0.000496922
0.00046867
0.000427629
0.000360041
0.000240419
2.52434e-05
0.000178797
0.000319392
0.00044167
0.000538117
0.000608191
0.000658948
0.000696567
0.000724761
0.000745783
0.00076102
0.000771357
0.000777575
0.000780468
0.000780359
0.000777185
0.000770283
0.000759268
0.000744481
0.000726328
0.000704928
0.000680799
0.000655089
0.000628376
0.000600157
0.000570564
0.000544733
0.000523847
0.000506212
0.000491524
0.000477341
0.000456309
0.000417062
0.00036041
0.000286052
2.94851e-05
0.000223037
0.000379778
0.00049984
0.000586719
0.000649768
0.000698104
0.00073723
0.00076985
0.000797296
0.00082007
0.000838283
0.000851967
0.000861063
0.000865579
0.000865632
0.000862051
0.000853687
0.000840877
0.000823451
0.000801286
0.000774318
0.000742722
0.000706892
0.000667324
0.000623474
0.000577333
0.000536013
0.000502818
0.000475083
0.000452188
0.000429619
0.000398182
0.000356816
0.000301124
4.11252e-05
0.000250881
0.000427766
0.00056078
0.000654836
0.000721555
0.000771111
0.000809084
0.000838415
0.000860926
0.000877968
0.000890479
0.000899066
0.000904066
0.000905627
0.00090441
0.000899453
0.000891336
0.000879867
0.000864837
0.000846064
0.00082318
0.000795801
0.00076373
0.000726904
0.000686067
0.000641089
0.000593264
0.000543637
0.000495728
0.000455058
0.000424436
0.000391982
0.000357042
0.000318513
6.03265e-05
0.000313794
0.000517571
0.000658656
0.000749068
0.000809356
0.00085293
0.000885943
0.000911484
0.000931383
0.000946724
0.000958126
0.00096597
0.000970376
0.000971214
0.000969028
0.000962434
0.000952135
0.000937985
0.000919769
0.000897357
0.00087082
0.000840199
0.000805293
0.000766342
0.000722696
0.000675676
0.000629516
0.000582721
0.000532251
0.000480131
0.000431253
0.000393469
0.000364765
0.000351322
7.47683e-05
0.000347898
0.00056918
0.000716984
0.000808375
0.000868102
0.000910814
0.000942891
0.000967309
0.000985923
0.000999893
0.00100995
0.00101642
0.00101947
0.00101916
0.00101566
0.00100841
0.000997472
0.000982393
0.00096285
0.000938722
0.000909925
0.000876434
0.000838405
0.00079666
0.000752064
0.000703619
0.000653611
0.000604967
0.000554356
0.000499495
0.000445118
0.0004027
0.000377171
0.00037564
0.000101818
0.000409673
0.000652507
0.000799049
0.000882725
0.000935377
0.000972582
0.00100061
0.00102228
0.00103956
0.00105391
0.0010655
0.00107434
0.00108027
0.00108252
0.00108107
0.0010747
0.00106324
0.00104597
0.0010227
0.000994055
0.000960349
0.000921609
0.000878232
0.000831453
0.000781784
0.000727973
0.000673193
0.000621248
0.000568874
0.000513546
0.000458208
0.00041493
0.000392236
0.000397146
0.000137603
0.000471424
0.00071924
0.000857007
0.000932512
0.000979325
0.00101133
0.00103446
0.00105242
0.00106822
0.00108524
0.00110246
0.00111779
0.00112998
0.00113738
0.00113936
0.00113629
0.00112621
0.00110888
0.00108395
0.00105162
0.00101239
0.000966767
0.000915604
0.000861377
0.000804612
0.00074447
0.000684707
0.000628686
0.000573504
0.000518291
0.000465928
0.000426372
0.000406193
0.000407668
0.000179866
0.000534642
0.000781225
0.000910466
0.000979624
0.00102155
0.00104752
0.00106288
0.00107285
0.00108213
0.00109324
0.0011117
0.00113407
0.00115418
0.00116853
0.00117577
0.00117549
0.00116699
0.00114993
0.00112503
0.00109273
0.00105383
0.00100883
0.00095793
0.000901142
0.000837974
0.000770152
0.000703041
0.000640036
0.000578846
0.000520751
0.000470306
0.000434777
0.000415636
0.000408888
0.000213562
0.00057464
0.000814896
0.000940471
0.00100935
0.00105176
0.00107635
0.00108598
0.00108578
0.00108625
0.00109278
0.0011105
0.0011328
0.00115486
0.00117192
0.0011827
0.001187
0.00118521
0.00117478
0.00115442
0.00112468
0.00108796
0.00104486
0.000995661
0.000940532
0.000878464
0.000807906
0.000732789
0.000661153
0.000591087
0.000526663
0.00047522
0.000442051
0.000422164
0.000404369
0.000230113
0.000595629
0.000836931
0.000965299
0.00103754
0.00108308
0.00110965
0.00111856
0.00111188
0.0010948
0.00108246
0.00108265
0.00109896
0.00112615
0.0011528
0.00117269
0.00118398
0.00118613
0.00117986
0.00116487
0.00114285
0.00111285
0.00107498
0.00103055
0.000979896
0.000922096
0.000854839
0.000778695
0.000695955
0.000612799
0.00053708
0.000480528
0.000447225
0.000424243
0.000394108
0.000240467
0.000606658
0.00085021
0.000982763
0.00105903
0.00110859
0.00113937
0.00115223
0.00114883
0.00113033
0.00110173
0.00107811
0.00107697
0.00108884
0.0011136
0.00113799
0.00115689
0.001168
0.00117046
0.00116378
0.00114772
0.00112424
0.00109443
0.00105738
0.00101311
0.000961161
0.000899068
0.00082585
0.000740798
0.000644958
0.000556195
0.000489878
0.000452191
0.000424422
0.000385488
0.000255821
0.000618093
0.000864132
0.000999164
0.00107808
0.00113054
0.00116465
0.001181
0.00118176
0.00116806
0.00114219
0.00110834
0.00107762
0.00107045
0.00107765
0.00109685
0.00111681
0.00113252
0.00114182
0.00114328
0.0011364
0.00112089
0.0010974
0.00106657
0.0010288
0.000982406
0.000924697
0.0008542
0.000769073
0.000668084
0.000573337
0.000500476
0.000457517
0.000424183
0.000376537
0.000260972
0.000618904
0.000865108
0.00100617
0.00109008
0.00114712
0.00118634
0.00120966
0.00121641
0.00120967
0.00119019
0.00115977
0.00112128
0.0010823
0.00106052
0.00105753
0.00106532
0.00108086
0.00109449
0.00110287
0.00110451
0.00109836
0.00108374
0.00106094
0.00102962
0.000987854
0.000933653
0.00086629
0.0007831
0.000682401
0.000585221
0.000509467
0.000462925
0.000424588
0.00037166
0.000259553
0.000614138
0.000862982
0.00100677
0.00109634
0.00115876
0.00120361
0.00123324
0.00124828
0.00124995
0.00123974
0.00121821
0.00118637
0.00114538
0.00109895
0.00105835
0.00103717
0.00103099
0.0010328
0.00104017
0.00104796
0.00104942
0.00104357
0.00102908
0.00100565
0.000971711
0.000926145
0.000867076
0.000790153
0.000694635
0.000597409
0.000517749
0.000467081
0.000425317
0.000371772
0.000242022
0.000589995
0.000845413
0.00100085
0.00109688
0.00116602
0.00121673
0.00125264
0.00127515
0.00128373
0.00128207
0.00126988
0.0012481
0.00121739
0.00117788
0.00113014
0.00107854
0.00103253
0.0010023
0.000990182
0.000982711
0.000980061
0.000977713
0.000969784
0.000954585
0.000930415
0.000896198
0.000850184
0.000786689
0.000702233
0.000613729
0.000532696
0.000476794
0.000431484
0.000380147
0.000218968
0.000565825
0.000825651
0.000990613
0.00109546
0.00116908
0.00122464
0.00126605
0.00129473
0.00131141
0.001316
0.00131111
0.00129698
0.00127464
0.00124506
0.00120865
0.0011651
0.00111462
0.00105916
0.00100413
0.000959532
0.000930881
0.000911441
0.000895177
0.000879034
0.00086002
0.000835319
0.000802355
0.000756957
0.000695355
0.000618251
0.000543828
0.000487456
0.000440495
0.000389565
0.000199998
0.000546442
0.000812167
0.00098727
0.00109706
0.00117473
0.00123382
0.00127906
0.00131221
0.0013339
0.00134419
0.00134477
0.00133615
0.0013191
0.00129466
0.00126396
0.00122805
0.00118746
0.00114223
0.00109145
0.00103412
0.000972755
0.000913443
0.000862698
0.000821703
0.00078963
0.000760027
0.000729217
0.000698141
0.000662348
0.000613854
0.000551863
0.000498503
0.000450052
0.000397881
0.000189579
0.000536398
0.000808445
0.000990389
0.001107
0.00118792
0.00124924
0.00129669
0.0013322
0.00135653
0.00136998
0.00137329
0.00136795
0.00135424
0.00133339
0.00130631
0.00127375
0.00123648
0.00119522
0.00115115
0.00110356
0.00105086
0.000992077
0.00092872
0.000865228
0.000809439
0.000763901
0.000722316
0.000682113
0.000642979
0.000601256
0.000553264
0.00050683
0.000461025
0.000418417
0.000187614
0.000533592
0.000809255
0.0010002
0.00112216
0.00120634
0.00126997
0.00131916
0.00135602
0.00138142
0.00139566
0.00139937
0.00139464
0.00138124
0.00136123
0.00133599
0.00130652
0.00127307
0.00123533
0.00119321
0.00114663
0.00109497
0.00103833
0.000977101
0.000912047
0.000848845
0.000791999
0.000739753
0.000690326
0.000645061
0.000602314
0.000558933
0.000517486
0.00047747
0.000454873
0.000196834
0.000541064
0.000824624
0.00101848
0.00114283
0.00122849
0.00129283
0.00134235
0.00137932
0.00140463
0.00141854
0.00142133
0.00141565
0.00140084
0.00137979
0.00135452
0.00132683
0.00129652
0.00126233
0.00122311
0.00117798
0.00112609
0.00106748
0.00100175
0.000934
0.000873335
0.000818076
0.000764106
0.000710778
0.000658613
0.000609682
0.000566683
0.00052986
0.000498091
0.000493504
0.000222385
0.000574925
0.000858497
0.00104673
0.00116773
0.00125189
0.0013153
0.001364
0.00140015
0.00142452
0.00143723
0.00143833
0.00143079
0.00141414
0.00139242
0.00136833
0.00134607
0.00132377
0.00129932
0.00126766
0.00122462
0.00116914
0.00110363
0.00103018
0.000956024
0.000890599
0.000831774
0.000776445
0.000723301
0.000671048
0.000620836
0.000577589
0.000544441
0.000518582
0.000514373
0.000252281
0.00060508
0.000887157
0.00107155
0.00118927
0.00127227
0.00133515
0.00138308
0.00141838
0.00144176
0.00145324
0.00145282
0.00144263
0.00142432
0.00140267
0.00137955
0.00135549
0.00133528
0.00131675
0.00129748
0.00126976
0.00122429
0.001159
0.00107401
0.000981999
0.000902891
0.000834882
0.000775436
0.000722393
0.000671852
0.000626669
0.000587502
0.000558304
0.000534028
0.000515907
0.000277836
0.000630509
0.000907446
0.00108767
0.00120362
0.00128641
0.00134982
0.0013984
0.00143406
0.00145749
0.00146861
0.00146747
0.00145504
0.00143438
0.00140874
0.00138125
0.00135517
0.00133468
0.00131706
0.00129939
0.00127487
0.00123811
0.00118352
0.00110994
0.00102223
0.000931568
0.000844732
0.000775228
0.00071751
0.000669615
0.000629157
0.000595501
0.000569985
0.000544617
0.000507419
0.000295793
0.000644602
0.000916963
0.001094
0.00120919
0.001293
0.00135814
0.00140861
0.00144587
0.00147077
0.00148327
0.00148299
0.00147069
0.00144692
0.00141576
0.00138151
0.00134881
0.00131823
0.00129616
0.00128135
0.0012654
0.00123934
0.0011984
0.00114004
0.00106503
0.000978879
0.000884108
0.000790842
0.000719094
0.000668885
0.000632262
0.00060309
0.000579406
0.000550121
0.000491533
0.000308988
0.000653188
0.000921508
0.00109717
0.00121278
0.00129805
0.00136504
0.00141774
0.00145734
0.00148434
0.00149919
0.00150179
0.00149212
0.00147008
0.00143691
0.00139691
0.00135479
0.00131588
0.00128281
0.00126234
0.00124645
0.0012277
0.00119872
0.00115514
0.00109631
0.00102256
0.000932999
0.00083303
0.000739378
0.000671906
0.00063501
0.000609331
0.000586585
0.00055327
0.00047923
0.000310682
0.000653672
0.00092158
0.00109732
0.00121287
0.0012986
0.00136776
0.00142288
0.0014653
0.00149557
0.00151393
0.00152037
0.0015149
0.00149717
0.00146675
0.0014239
0.00137209
0.0013191
0.00127368
0.0012391
0.00121702
0.00120293
0.00118367
0.00115357
0.00110945
0.00105009
0.000971627
0.000875121
0.000773814
0.000691283
0.000642986
0.00061582
0.000592065
0.000554256
0.000469086
0.000306205
0.000646917
0.000915593
0.00109298
0.00121032
0.00129779
0.00136796
0.00142584
0.00147175
0.00150632
0.00152967
0.00154149
0.00154228
0.00153128
0.00150795
0.00147179
0.00142256
0.00136166
0.00129539
0.00123872
0.00119754
0.00116824
0.00115055
0.00113092
0.00110195
0.00105859
0.000995054
0.00090803
0.000806649
0.000714881
0.000656114
0.000623593
0.000597368
0.00055603
0.000466246
0.000294635
0.000635204
0.000906811
0.00108769
0.00120725
0.00129599
0.00136775
0.0014276
0.00147648
0.00151516
0.00154367
0.00156155
0.00156853
0.0015647
0.00154965
0.00152245
0.00148234
0.00142889
0.00136245
0.00128655
0.00121171
0.00115495
0.00111626
0.0010932
0.00107529
0.00104952
0.00100387
0.0009339
0.000840339
0.00074411
0.000674175
0.000633267
0.000603308
0.000558914
0.000467889
0.000287903
0.000633906
0.000906065
0.00108728
0.00120725
0.00129756
0.001371
0.00143223
0.00148338
0.00152532
0.00155822
0.0015816
0.00159466
0.00159768
0.00158995
0.0015702
0.00153715
0.00149028
0.00143018
0.00135784
0.00127567
0.00118944
0.00111539
0.00106777
0.00104226
0.00102402
0.000995688
0.000942341
0.000863685
0.000772092
0.000696179
0.00064691
0.000611562
0.000564407
0.00047919
0.000287458
0.000634562
0.000909708
0.00109196
0.00121231
0.00130242
0.00137587
0.00143727
0.00148845
0.00153058
0.00156464
0.00159154
0.00161281
0.00162761
0.00163302
0.00162531
0.00160162
0.00156091
0.0015048
0.00143455
0.00135153
0.00125776
0.00116063
0.00107717
0.00102609
0.000999596
0.000977851
0.000941035
0.000879691
0.000797587
0.000719034
0.00066254
0.000622524
0.000574216
0.000493424
0.000296966
0.000650841
0.000927743
0.00110556
0.00122274
0.00131086
0.00138276
0.00144266
0.00149264
0.00153402
0.00156747
0.00159496
0.0016188
0.00163909
0.00165474
0.00166317
0.00165868
0.00163485
0.00159097
0.00152711
0.00144404
0.00134394
0.00123321
0.00112402
0.00103929
0.000990027
0.000958984
0.000928991
0.000881304
0.000814582
0.000741414
0.000681273
0.000635621
0.000582671
0.000501239
0.000321714
0.000676074
0.000948822
0.00112091
0.00123549
0.00132201
0.00139265
0.00145096
0.00149808
0.00153574
0.00156724
0.00159397
0.00161737
0.00163818
0.00165544
0.00166629
0.00166791
0.00166111
0.00163766
0.00159505
0.0015295
0.00144153
0.00133192
0.00120976
0.00109718
0.00101355
0.000961743
0.000924607
0.000881534
0.000825273
0.00075917
0.000699014
0.000650455
0.000595883
0.000518329
0.00035895
0.000707057
0.000968407
0.00113184
0.00124075
0.00132509
0.00139481
0.00145219
0.00149824
0.00153425
0.00156077
0.00158094
0.001599
0.00161828
0.00163876
0.00165659
0.00166613
0.00166308
0.00164562
0.00161363
0.0015661
0.00149512
0.00140016
0.00128764
0.00117385
0.00107383
0.000993121
0.000934228
0.000886723
0.000834935
0.000774868
0.000715957
0.000665808
0.000607988
0.000522347
0.000400982
0.000727474
0.000974845
0.00113312
0.00124142
0.00132591
0.00139475
0.00144988
0.00149167
0.00152122
0.00154073
0.00155373
0.00156456
0.00157761
0.00159472
0.00161386
0.00163033
0.00163848
0.00163384
0.00161268
0.00157294
0.00151392
0.00143464
0.00133565
0.00122776
0.00112219
0.00102927
0.000957133
0.000901359
0.000848524
0.000789194
0.000730801
0.000679355
0.000616695
0.000517628
0.000407397
0.000729367
0.000975608
0.00112961
0.00123344
0.00131465
0.00138183
0.00143612
0.00147733
0.00150543
0.00152187
0.00152936
0.00153208
0.00153456
0.00154093
0.00155264
0.00156798
0.0015814
0.00158713
0.00158011
0.00155646
0.00151354
0.00145034
0.00136881
0.00127157
0.00116655
0.00106533
0.000980178
0.000914447
0.000858017
0.000800065
0.000743489
0.000691135
0.000621099
0.000501539
0.000402612
0.000715756
0.000957178
0.00110972
0.00121507
0.00129949
0.00137014
0.00142735
0.00147037
0.00149903
0.00151495
0.00151839
0.00151264
0.00150179
0.00149303
0.00148752
0.00148896
0.00149813
0.00150838
0.00151153
0.00150236
0.00147722
0.00143396
0.00137198
0.00129282
0.00120098
0.00110359
0.00101244
0.000936383
0.000871407
0.000810614
0.000754261
0.000699443
0.000620756
0.000482078
0.00037657
0.000688979
0.000933162
0.00109027
0.00119902
0.00128584
0.00135854
0.00141789
0.0014637
0.00149547
0.00151188
0.00151452
0.00150593
0.00148824
0.00146342
0.00144125
0.00142603
0.00142206
0.0014238
0.00142759
0.00142571
0.00141268
0.00138482
0.00134018
0.00127924
0.00120247
0.00111603
0.00102964
0.000953475
0.00088556
0.000822712
0.000765575
0.000707504
0.000620934
0.000469903
0.000353211
0.000667666
0.000910913
0.00106965
0.00118054
0.00126988
0.00134629
0.00141088
0.00146249
0.00149901
0.00151983
0.00152414
0.0015135
0.00149104
0.00146164
0.00143004
0.00139992
0.00137176
0.00135627
0.00135128
0.00134856
0.00134268
0.00132803
0.00130063
0.00125827
0.00119824
0.0011223
0.00103992
0.000964317
0.000896152
0.000832979
0.000775167
0.000714747
0.000622845
0.000471383
0.000343738
0.000653622
0.000898037
0.00106011
0.00117336
0.00126457
0.00134302
0.00141029
0.00146601
0.00151072
0.00154095
0.00155487
0.00155246
0.00153323
0.00149846
0.00145244
0.00140269
0.00135871
0.00132351
0.00129447
0.00127898
0.00126891
0.00126028
0.0012483
0.00122725
0.00118858
0.00112755
0.00105554
0.000981035
0.000911562
0.000846545
0.000786977
0.000724735
0.000631474
0.000484304
0.000336104
0.0006383
0.000880659
0.00104534
0.00116155
0.00125536
0.00133633
0.00140644
0.00146561
0.0015137
0.00154954
0.00157242
0.00158106
0.00157398
0.00154947
0.00150752
0.00145088
0.00138629
0.00132416
0.00127302
0.00123084
0.0012015
0.00118571
0.00117757
0.00117099
0.00115402
0.00111712
0.00105588
0.00099085
0.000923045
0.000857539
0.000797496
0.000733927
0.000638106
0.000485988
0.000313517
0.000612315
0.00085681
0.00102689
0.00114741
0.00124452
0.00132824
0.00140122
0.00146407
0.00151696
0.00155879
0.00158872
0.00160519
0.00160699
0.00159274
0.00156105
0.00151158
0.00144635
0.00137136
0.00129502
0.00122698
0.00117373
0.00113497
0.00111548
0.00110873
0.00110172
0.00108228
0.0010454
0.000990732
0.000930961
0.000868426
0.000808263
0.000742487
0.000642682
0.000487292
0.000299205
0.000600271
0.00084482
0.0010161
0.00113749
0.00123623
0.00132181
0.00139709
0.00146294
0.00151939
0.00156569
0.00160142
0.00162581
0.00163717
0.0016338
0.00161375
0.00157564
0.0015194
0.0014472
0.00136314
0.00127442
0.00119179
0.00112658
0.00108678
0.00107019
0.0010635
0.00105192
0.00102674
0.000987664
0.000936171
0.000878377
0.000820036
0.000754719
0.000657119
0.000511654
0.000294718
0.000591593
0.000836742
0.00101037
0.00113332
0.00123301
0.00132025
0.00139687
0.00146438
0.001523
0.00157265
0.00161284
0.00164297
0.00166229
0.00166848
0.00165956
0.00163229
0.00158571
0.00152058
0.00143864
0.00134372
0.0012439
0.00115223
0.00108589
0.00104985
0.00103701
0.00103138
0.00101651
0.000986073
0.00094174
0.000888003
0.000831967
0.000768056
0.000671838
0.000527372
0.000289514
0.000587299
0.000832863
0.00100717
0.00113061
0.00123059
0.0013193
0.00139771
0.00146658
0.00152725
0.00158054
0.00162642
0.00166507
0.00169507
0.00171374
0.00171767
0.00170508
0.00167146
0.00161686
0.0015411
0.00144536
0.0013345
0.00122006
0.00112144
0.00105436
0.00101831
0.00100199
0.000994835
0.000977335
0.000942191
0.000894003
0.00084108
0.000778548
0.000681214
0.000534241
0.00028917
0.000586823
0.000832506
0.00100652
0.00112969
0.00122971
0.00131863
0.00139779
0.00146688
0.00152743
0.00158131
0.00162925
0.00167229
0.00170929
0.00173736
0.00175355
0.00175338
0.00173548
0.00169586
0.00163448
0.00155131
0.00144794
0.00133252
0.00121981
0.00111791
0.00104051
0.00100342
0.000985819
0.000970857
0.00094516
0.000903037
0.000852842
0.000792333
0.00069824
0.000565721
0.000295796
0.000594771
0.000840357
0.00101198
0.00113315
0.00123248
0.00132047
0.00139827
0.00146689
0.00152766
0.00158171
0.00163053
0.00167533
0.0017172
0.00175514
0.00178184
0.00179359
0.00178738
0.00176001
0.00171014
0.0016387
0.00154795
0.00144469
0.00133792
0.0012287
0.00112501
0.0010422
0.0009956
0.000972699
0.000947973
0.000911102
0.000864803
0.000807522
0.000718995
0.000593489
0.000312215
0.000610371
0.000852011
0.00101853
0.00113617
0.0012336
0.00132072
0.0013985
0.00146612
0.00152526
0.001578
0.00162647
0.00167275
0.00171749
0.00175937
0.0017963
0.00181893
0.00182153
0.0018044
0.00176129
0.00169567
0.00161104
0.00151388
0.00141152
0.00130465
0.00120043
0.00111026
0.00104446
0.00100011
0.000965351
0.000925082
0.000878826
0.000821483
0.000731255
0.000592985
0.000331358
0.000626265
0.000861984
0.00102198
0.00113669
0.00123364
0.00131947
0.0013943
0.00145839
0.00151397
0.00156369
0.00161061
0.00165813
0.0017081
0.00175828
0.0018022
0.00183548
0.00185219
0.00184324
0.00180765
0.00174739
0.0016659
0.00156785
0.00145852
0.0013416
0.00122965
0.0011381
0.00107348
0.00102633
0.000985162
0.000940928
0.000892523
0.000831926
0.000733447
0.000573718
0.000349389
0.000637774
0.000866239
0.00102234
0.0011346
0.00122796
0.00131003
0.00138232
0.00144463
0.00149796
0.00154463
0.00158817
0.0016333
0.00168376
0.00173898
0.00179275
0.00183605
0.00186182
0.00186666
0.00184661
0.00180081
0.00173351
0.00164639
0.00153978
0.00141524
0.00128598
0.00117562
0.00110019
0.00104939
0.00100543
0.000957876
0.000906328
0.000842336
0.00073867
0.000570664
0.000356175
0.000640528
0.00086659
0.00101791
0.00112558
0.00121626
0.00129658
0.00136681
0.00142631
0.00147537
0.00151649
0.00155382
0.00159334
0.00164077
0.00169767
0.00175873
0.00181406
0.00185285
0.00186894
0.0018615
0.00183259
0.00178244
0.00171141
0.00161774
0.00150114
0.00136937
0.00124276
0.00114494
0.00107821
0.00102696
0.000976415
0.000923143
0.000856226
0.000746306
0.000570222
0.000355295
0.000640013
0.000861418
0.0010081
0.00111367
0.00120304
0.0012817
0.00134988
0.00140702
0.00145282
0.00148865
0.00151819
0.00154769
0.00158479
0.00163508
0.00169704
0.00176107
0.00181326
0.00184493
0.00185259
0.00183714
0.00180063
0.00174287
0.00166183
0.00155711
0.00143404
0.00130799
0.00119985
0.00111762
0.00105384
0.000996077
0.000938354
0.000866201
0.000747233
0.000557023
0.000340863
0.000626956
0.000848982
0.000995382
0.00110008
0.00118839
0.00126617
0.00133357
0.00138982
0.00143449
0.00146778
0.00149244
0.00151363
0.0015389
0.00157654
0.00163069
0.00169549
0.00175652
0.00180174
0.00182464
0.00182426
0.0018011
0.00175477
0.00168353
0.00158749
0.00147238
0.00135265
0.00124514
0.00115687
0.00108426
0.00101894
0.000955423
0.000877423
0.000749274
0.000543452
0.000329569
0.000618892
0.000840243
0.000985596
0.00108954
0.00117717
0.00125442
0.00132118
0.00137652
0.00141992
0.00145152
0.0014733
0.00148976
0.0015075
0.00153475
0.0015786
0.00163792
0.00170103
0.00175487
0.00179077
0.00180513
0.00179653
0.0017627
0.00170154
0.0016128
0.00150197
0.0013845
0.00127773
0.00118765
0.0011107
0.00104014
0.000971909
0.000888423
0.0007523
0.000543881
0.000325682
0.00061389
0.000833441
0.000978476
0.00108284
0.00117076
0.00124792
0.001314
0.00136797
0.00140928
0.00143804
0.00145579
0.00146707
0.00147838
0.00149813
0.00153454
0.00158913
0.00165301
0.00171351
0.00176088
0.00178981
0.00179693
0.00177956
0.00173322
0.00165688
0.00155345
0.0014356
0.00132214
0.00122481
0.00114117
0.00106475
0.000991655
0.000904975
0.000767954
0.000569042
0.000321065
0.000607156
0.000825315
0.000969849
0.00107469
0.00116363
0.00124181
0.00130858
0.00136257
0.00140322
0.00142997
0.00144368
0.00144889
0.00145125
0.00146025
0.0014859
0.00153298
0.00159578
0.0016621
0.00172026
0.00176353
0.00178755
0.00178683
0.00176055
0.00170243
0.00161337
0.00150152
0.00138204
0.00127196
0.00117704
0.00109263
0.00101474
0.000925521
0.000789368
0.000598788
0.000317677
0.000601978
0.000818716
0.000962863
0.00106825
0.00115829
0.00123789
0.00130611
0.00136126
0.00140242
0.00142907
0.0014412
0.00144095
0.00143471
0.00143202
0.00144394
0.00147985
0.00153684
0.0016046
0.00167014
0.00172489
0.00176252
0.00177793
0.00176579
0.0017267
0.0016562
0.00155742
0.00144027
0.00132191
0.00121488
0.00112109
0.00103753
0.000943727
0.000803217
0.000604473
0.000316019
0.000597298
0.000812261
0.000956043
0.00106225
0.00115382
0.00123515
0.00130512
0.0013623
0.00140456
0.00143116
0.00144187
0.00143945
0.00142757
0.00141199
0.00140875
0.00142911
0.00147692
0.00154313
0.00161402
0.00167819
0.00172638
0.00175339
0.00175555
0.00172701
0.00167286
0.00158889
0.00148076
0.00136295
0.00125059
0.00115101
0.0010618
0.000961245
0.00081208
0.00059901
0.000311636
0.000590922
0.000804617
0.000948351
0.00105553
0.00114878
0.00123203
0.00130392
0.00136319
0.00140741
0.00143553
0.00144678
0.00144293
0.00142723
0.00140561
0.00138515
0.00138474
0.00141425
0.0014724
0.00154589
0.00161894
0.00167769
0.00171574
0.00172959
0.00171664
0.00167267
0.00160227
0.00150513
0.00139318
0.00128098
0.00117828
0.00108402
0.00097621
0.000816025
0.000587949
0.000308061
0.000585459
0.000797764
0.00094133
0.00104955
0.00114481
0.00123066
0.00130558
0.00136733
0.00141411
0.00144455
0.00145765
0.00145434
0.00143686
0.0014095
0.00138097
0.00136262
0.00137092
0.00141304
0.00148096
0.00155743
0.00162422
0.00167232
0.00169743
0.00169707
0.00166934
0.00161088
0.001525
0.00142026
0.00131023
0.00120574
0.00110703
0.000992841
0.00082309
0.000587576
0.000306153
0.000580354
0.000790954
0.000934411
0.00104381
0.00114113
0.00122937
0.00130703
0.00137182
0.00142168
0.00145499
0.00147054
0.00146866
0.00145094
0.00142019
0.00138266
0.00135068
0.00134004
0.00136363
0.0014216
0.00149759
0.00156992
0.00162652
0.0016617
0.00167294
0.00165726
0.00161142
0.00153832
0.00144268
0.00133677
0.00123215
0.0011303
0.00101008
0.000832916
0.000592144
0.000305422
0.000576388
0.000784845
0.000927754
0.00103814
0.00113732
0.00122799
0.00130846
0.00137647
0.00142954
0.0014659
0.00148408
0.00148419
0.00146732
0.00143543
0.00139291
0.00134941
0.00132028
0.00132679
0.00137366
0.00144749
0.00152333
0.00158609
0.00162903
0.00164981
0.0016448
0.00161083
0.00154721
0.00145949
0.00135859
0.00125526
0.00115099
0.00102579
0.00084118
0.000594428
0.00030293
0.000570343
0.000777066
0.00091973
0.00103116
0.00113223
0.0012254
0.00130886
0.00138062
0.00143758
0.00147785
0.00149986
0.00150325
0.00148865
0.00145689
0.0014105
0.00135652
0.00131016
0.00129257
0.00132351
0.00139415
0.00147484
0.00154546
0.0015972
0.00162704
0.00163077
0.00160528
0.00154977
0.00147041
0.00137528
0.00127447
0.00117
0.00104228
0.000851511
0.000593328
0.000298788
0.000563755
0.000768922
0.000911117
0.00102335
0.00112614
0.00122186
0.00130832
0.0013836
0.00144439
0.00148882
0.0015152
0.00152309
0.00151284
0.00148438
0.00143838
0.00137795
0.0013143
0.00127393
0.00127892
0.00133822
0.00142173
0.0015012
0.00156336
0.00160307
0.00161528
0.00159773
0.00154986
0.00147702
0.00138661
0.00128807
0.00118289
0.00105202
0.000853176
0.00058388
0.000292503
0.000555695
0.000759543
0.000901189
0.00101393
0.00111813
0.00121615
0.0013059
0.00138448
0.00144966
0.00149879
0.00153032
0.0015438
0.00153967
0.00151747
0.00147669
0.00141693
0.00134324
0.0012754
0.00124797
0.001282
0.00135783
0.00144405
0.00151882
0.00157138
0.0015944
0.00158633
0.00154616
0.00147809
0.00139346
0.00129878
0.00119593
0.00106544
0.000862624
0.000582527
0.000285088
0.000547108
0.000749826
0.000891069
0.00100436
0.00111
0.00121023
0.00130282
0.00138467
0.0014541
0.00150767
0.00154405
0.00156328
0.00156573
0.00155143
0.00151977
0.0014686
0.00139819
0.00131829
0.00125637
0.0012498
0.00129727
0.0013765
0.00145913
0.00152544
0.00156315
0.00156726
0.0015369
0.00147717
0.00139723
0.00130595
0.00120554
0.00107599
0.000870964
0.000583705
0.000279541
0.000539692
0.00074051
0.000880918
0.000994459
0.0011013
0.00120366
0.00129915
0.00138461
0.00145733
0.00151476
0.00155544
0.00157947
0.00158748
0.00157998
0.00155698
0.00151662
0.00145781
0.00138371
0.00130972
0.00126708
0.00127457
0.00132224
0.0013959
0.00146888
0.00152146
0.00154173
0.00152629
0.00147702
0.00140455
0.00131797
0.00122045
0.00109255
0.000887368
0.000604325
0.000275787
0.00053269
0.000731502
0.000871015
0.000984634
0.00109242
0.00119657
0.0012947
0.00138348
0.00145973
0.00152081
0.00156514
0.00159285
0.00160465
0.00160127
0.00158306
0.00154956
0.00150096
0.00143956
0.00137415
0.00132347
0.00129969
0.00131815
0.00136487
0.0014269
0.00148199
0.00151375
0.00151203
0.00147655
0.0014133
0.00133196
0.00123764
0.00111293
0.00091228
0.000640572
0.000272737
0.000525571
0.000722511
0.00086113
0.000974619
0.00108306
0.00118868
0.00128908
0.0013808
0.00146056
0.00152593
0.00157449
0.00160621
0.00162139
0.00162049
0.00160365
0.0015708
0.00152382
0.00146732
0.00141079
0.00136744
0.00134062
0.00133671
0.00136439
0.00140873
0.00145428
0.00148751
0.00149473
0.0014719
0.00141781
0.0013433
0.00125375
0.00113282
0.000935152
0.00065829
0.000268853
0.000518081
0.000713579
0.000851235
0.00096431
0.0010731
0.00117995
0.00128252
0.00137721
0.00146028
0.00152934
0.00158256
0.0016191
0.0016388
0.00164121
0.0016253
0.00159042
0.00153867
0.0014766
0.00141768
0.00137938
0.00136321
0.0013658
0.00138429
0.00141747
0.00145472
0.00148328
0.00149013
0.00146977
0.00142121
0.00135212
0.00126686
0.00114832
0.000949872
0.000660094
0.000260888
0.000508181
0.000703258
0.000840154
0.000952459
0.00106104
0.0011685
0.00127262
0.00136986
0.00145666
0.0015297
0.00158858
0.00163147
0.0016581
0.00166713
0.00165571
0.00162177
0.00156543
0.00149256
0.00141931
0.00137162
0.001356
0.00136559
0.00139276
0.0014305
0.00146695
0.0014899
0.00149403
0.00147242
0.00142621
0.0013599
0.0012764
0.00115758
0.000954
0.00064838
0.000249921
0.000497948
0.000693124
0.000829285
0.000940621
0.00104868
0.00115626
0.0012612
0.00136007
0.00144951
0.00152648
0.0015902
0.00164141
0.00167803
0.00169823
0.00169822
0.00167406
0.00162273
0.00154579
0.00145531
0.00137953
0.00134589
0.00134999
0.00138405
0.00142801
0.00146445
0.00149049
0.00149589
0.00147629
0.00143142
0.00136691
0.00128513
0.0011674
0.000961629
0.000646843
0.00023878
0.000488132
0.000683596
0.000819069
0.000929352
0.0010367
0.00114397
0.00124897
0.00134844
0.00143931
0.00151883
0.00158693
0.00164379
0.00169047
0.00172405
0.00173979
0.00173444
0.00170238
0.0016406
0.00155446
0.00146003
0.00137853
0.00135048
0.00136452
0.0014046
0.00145244
0.00148501
0.00149404
0.00147737
0.00143547
0.00137387
0.00129437
0.00117825