/*--------------------------------*- C++ -*----------------------------------*\
| =========                 |                                                 |
| \\      /  F ield         | OpenFOAM: The Open Source CFD Toolbox           |
|  \\    /   O peration     | Version:  v1906                                 |
|   \\  /    A nd           | Web:      www.OpenFOAM.com                      |
|    \\/     M anipulation  |                                                 |
\*---------------------------------------------------------------------------*/
FoamFile
{
    version     2.0;
    format      ascii;
    class       volScalarField;
    location    "950";
    object      T;
}
// * * * * * * * * * * * * * * * * * * * * * * * * * * * * * * * * * * * * * //

dimensions      [0 0 0 1 0 0 0];


internalField   nonuniform List<scalar> 
78750
(
288.571
289.185
289.516
289.674
289.79
289.901
290.005
290.098
290.177
290.249
290.314
290.374
290.43
290.481
290.528
290.569
290.607
290.641
290.67
290.697
290.72
290.739
290.754
290.766
290.774
290.777
290.781
290.784
290.787
290.789
290.79
290.806
290.986
292.931
300.755
288.37
288.731
289.002
289.276
289.536
289.766
289.959
290.127
290.277
290.411
290.533
290.645
290.745
290.835
290.916
290.988
291.055
291.115
291.168
291.212
291.25
291.281
291.303
291.316
291.32
291.314
291.291
291.257
291.207
291.139
291.074
291.102
291.608
294.179
301.385
288.4
288.855
289.249
289.584
289.85
290.05
290.21
290.347
290.468
290.577
290.676
290.767
290.851
290.928
290.998
291.062
291.119
291.171
291.219
291.262
291.301
291.335
291.365
291.389
291.407
291.418
291.418
291.408
291.383
291.361
291.397
291.764
293.119
296.046
302.108
288.428
288.921
289.322
289.638
289.882
290.073
290.229
290.362
290.48
290.588
290.686
290.776
290.859
290.935
291.005
291.069
291.127
291.18
291.228
291.271
291.309
291.344
291.375
291.402
291.425
291.446
291.463
291.479
291.501
291.565
291.789
292.505
294.266
297.357
303.007
288.426
288.931
289.349
289.675
289.917
290.103
290.256
290.387
290.503
290.607
290.702
290.791
290.873
290.95
291.022
291.089
291.15
291.206
291.255
291.299
291.337
291.37
291.397
291.421
291.443
291.463
291.485
291.515
291.566
291.685
292.021
292.93
294.889
298.053
303.471
288.474
289.065
289.542
289.893
290.137
290.319
290.467
290.595
290.708
290.809
290.901
290.984
291.061
291.132
291.198
291.261
291.318
291.368
291.411
291.448
291.478
291.502
291.52
291.533
291.541
291.549
291.561
291.586
291.642
291.789
292.186
293.212
295.311
298.553
303.805
288.494
289.125
289.642
290.024
290.291
290.49
290.655
290.798
290.925
291.039
291.142
291.234
291.317
291.39
291.453
291.506
291.552
291.592
291.626
291.654
291.676
291.691
291.7
291.701
291.699
291.696
291.696
291.713
291.77
291.933
292.392
293.53
295.734
298.998
304.067
288.524
289.217
289.776
290.169
290.437
290.64
290.812
290.965
291.104
291.232
291.348
291.452
291.54
291.612
291.67
291.718
291.757
291.788
291.814
291.834
291.848
291.856
291.858
291.857
291.855
291.85
291.849
291.861
291.921
292.098
292.599
293.816
296.096
299.364
304.271
288.563
289.327
289.925
290.32
290.582
290.783
290.956
291.112
291.257
291.388
291.503
291.599
291.679
291.745
291.798
291.84
291.875
291.903
291.926
291.943
291.956
291.964
291.969
291.971
291.971
291.973
291.982
292.009
292.084
292.289
292.843
294.137
296.468
299.715
304.459
288.605
289.43
290.052
290.445
290.704
290.909
291.092
291.263
291.42
291.556
291.667
291.753
291.817
291.867
291.905
291.936
291.962
291.984
292.002
292.017
292.029
292.038
292.046
292.053
292.061
292.074
292.097
292.144
292.243
292.481
293.082
294.428
296.773
299.978
304.59
288.632
289.482
290.097
290.48
290.74
290.953
291.145
291.323
291.49
291.641
291.768
291.863
291.931
291.978
292.012
292.038
292.058
292.075
292.089
292.101
292.111
292.119
292.128
292.14
292.155
292.179
292.218
292.287
292.418
292.703
293.363
294.76
297.099
300.241
304.72
288.64
289.491
290.103
290.484
290.744
290.959
291.152
291.33
291.497
291.649
291.785
291.895
291.979
292.039
292.081
292.111
292.134
292.153
292.169
292.183
292.195
292.207
292.221
292.238
292.262
292.297
292.353
292.446
292.614
292.96
293.704
295.173
297.485
300.533
304.866
288.641
289.492
290.104
290.487
290.75
290.969
291.167
291.349
291.518
291.671
291.808
291.928
292.026
292.097
292.144
292.179
292.205
292.226
292.245
292.263
292.28
292.298
292.318
292.343
292.376
292.423
292.495
292.611
292.814
293.214
294.03
295.556
297.834
300.79
304.992
288.644
289.497
290.107
290.488
290.751
290.97
291.168
291.351
291.519
291.672
291.809
291.93
292.036
292.125
292.197
292.244
292.276
292.301
292.323
292.345
292.367
292.39
292.417
292.449
292.492
292.55
292.638
292.779
293.022
293.486
294.379
295.952
298.173
301.026
305.108
288.647
289.497
290.102
290.481
290.744
290.96
291.156
291.337
291.505
291.658
291.796
291.919
292.028
292.124
292.207
292.276
292.332
292.372
292.4
292.427
292.453
292.482
292.514
292.552
292.6
292.668
292.769
292.928
293.202
293.721
294.692
296.315
298.488
301.238
305.202
288.641
289.471
290.059
290.431
290.691
290.903
291.093
291.269
291.431
291.583
291.724
291.853
291.972
292.08
292.179
292.268
292.343
292.406
292.461
292.503
292.538
292.572
292.61
292.654
292.709
292.784
292.889
293.052
293.333
293.864
294.851
296.497
298.648
301.346
305.249
288.62
289.413
289.983
290.354
290.613
290.823
291.01
291.181
291.339
291.487
291.627
291.757
291.879
291.994
292.101
292.203
292.299
292.388
292.467
292.536
292.596
292.65
292.699
292.75
292.812
292.895
293.009
293.177
293.459
293.975
294.928
296.539
298.665
301.352
305.251
288.595
289.351
289.909
290.284
290.546
290.755
290.94
291.109
291.266
291.412
291.548
291.676
291.795
291.906
292.011
292.111
292.209
292.307
292.405
292.5
292.591
292.673
292.747
292.818
292.895
292.99
293.118
293.307
293.621
294.171
295.146
296.747
298.812
301.43
305.291
288.568
289.289
289.839
290.221
290.488
290.7
290.885
291.054
291.211
291.359
291.497
291.628
291.75
291.865
291.97
292.067
292.156
292.238
292.321
292.409
292.505
292.611
292.717
292.819
292.922
293.033
293.173
293.385
293.743
294.367
295.428
297.069
299.063
301.572
305.349
288.553
289.257
289.809
290.204
290.48
290.693
290.877
291.046
291.203
291.351
291.492
291.624
291.748
291.863
291.97
292.067
292.156
292.236
292.31
292.381
292.453
292.529
292.622
292.734
292.863
293.002
293.158
293.376
293.738
294.369
295.456
297.126
299.105
301.578
305.346
288.542
289.242
289.801
290.203
290.482
290.698
290.884
291.054
291.214
291.366
291.51
291.647
291.777
291.9
292.013
292.116
292.208
292.288
292.356
292.415
292.47
292.527
292.593
292.678
292.79
292.933
293.102
293.325
293.678
294.298
295.382
297.066
299.061
301.545
305.32
288.54
289.244
289.815
290.233
290.526
290.75
290.943
291.119
291.285
291.442
291.593
291.737
291.875
292.005
292.126
292.237
292.336
292.42
292.489
292.543
292.584
292.619
292.656
292.709
292.791
292.903
293.055
293.277
293.631
294.246
295.329
297.034
299.046
301.542
305.324
288.555
289.292
289.888
290.312
290.607
290.833
291.028
291.207
291.376
291.537
291.691
291.84
291.983
292.119
292.248
292.368
292.477
292.57
292.646
292.702
292.742
292.769
292.792
292.82
292.868
292.948
293.079
293.298
293.66
294.289
295.387
297.1
299.093
301.572
305.364
288.578
289.352
289.965
290.389
290.679
290.903
291.096
291.275
291.444
291.606
291.763
291.915
292.062
292.203
292.339
292.466
292.583
292.686
292.77
292.835
292.88
292.911
292.935
292.958
292.994
293.059
293.179
293.399
293.788
294.476
295.643
297.383
299.311
301.707
305.442
288.597
289.397
290.022
290.45
290.74
290.965
291.16
291.34
291.512
291.676
291.835
291.989
292.138
292.282
292.421
292.554
292.677
292.786
292.877
292.948
293
293.037
293.066
293.094
293.132
293.195
293.312
293.534
293.94
294.663
295.873
297.621
299.489
301.815
305.505
288.613
289.434
290.065
290.492
290.784
291.012
291.21
291.394
291.567
291.733
291.893
292.048
292.198
292.344
292.486
292.624
292.754
292.873
292.974
293.054
293.113
293.157
293.194
293.23
293.276
293.347
293.47
293.699
294.122
294.874
296.111
297.853
299.66
301.916
305.56
288.623
289.454
290.086
290.51
290.801
291.028
291.226
291.409
291.581
291.746
291.905
292.059
292.209
292.355
292.499
292.64
292.778
292.91
293.029
293.128
293.205
293.264
293.312
293.359
293.416
293.497
293.629
293.867
294.303
295.077
296.336
298.064
299.811
301.999
305.599
288.633
289.475
290.109
290.533
290.822
291.048
291.246
291.428
291.599
291.762
291.92
292.072
292.22
292.364
292.505
292.643
292.78
292.914
293.045
293.168
293.272
293.353
293.419
293.482
293.553
293.649
293.799
294.06
294.524
295.33
296.608
298.301
299.983
302.108
305.644
288.634
289.476
290.111
290.536
290.827
291.055
291.254
291.437
291.608
291.771
291.928
292.078
292.224
292.367
292.506
292.642
292.777
292.911
293.042
293.17
293.293
293.406
293.503
293.587
293.675
293.784
293.948
294.223
294.705
295.532
296.817
298.473
300.105
302.185
305.67
288.632
289.471
290.107
290.534
290.826
291.055
291.254
291.437
291.608
291.771
291.928
292.078
292.223
292.363
292.499
292.629
292.756
292.882
293.009
293.14
293.275
293.407
293.535
293.657
293.774
293.905
294.084
294.371
294.861
295.693
296.976
298.601
300.198
302.244
305.69
288.628
289.466
290.106
290.536
290.831
291.062
291.263
291.448
291.621
291.786
291.944
292.095
292.239
292.378
292.51
292.636
292.758
292.876
292.994
293.114
293.241
293.379
293.528
293.682
293.835
293.999
294.204
294.511
295.014
295.849
297.119
298.704
300.267
302.287
305.7
288.628
289.471
290.123
290.564
290.866
291.101
291.306
291.495
291.672
291.841
292.004
292.161
292.31
292.45
292.58
292.699
292.81
292.915
293.018
293.126
293.241
293.37
293.517
293.684
293.866
294.062
294.298
294.627
295.14
295.972
297.23
298.786
300.327
302.329
305.715
288.635
289.499
290.172
290.625
290.932
291.172
291.382
291.575
291.759
291.935
292.106
292.271
292.429
292.575
292.707
292.823
292.924
293.014
293.099
293.186
293.281
293.391
293.525
293.689
293.885
294.114
294.396
294.775
295.332
296.19
297.437
298.937
300.437
302.416
305.748
288.65
289.548
290.246
290.711
291.024
291.27
291.487
291.688
291.88
292.066
292.247
292.422
292.587
292.74
292.875
292.99
293.085
293.165
293.236
293.306
293.381
293.469
293.579
293.721
293.904
294.136
294.437
294.848
295.438
296.315
297.553
299.02
300.494
302.453
305.761
288.677
289.621
290.343
290.815
291.134
291.387
291.613
291.824
292.026
292.222
292.413
292.599
292.775
292.933
293.07
293.182
293.272
293.345
293.409
293.47
293.534
293.609
293.703
293.824
293.982
294.196
294.496
294.921
295.533
296.431
297.675
299.115
300.57
302.523
305.797
288.711
289.698
290.432
290.898
291.216
291.473
291.704
291.92
292.128
292.331
292.53
292.722
292.907
293.08
293.229
293.35
293.444
293.52
293.585
293.646
293.709
293.78
293.868
293.98
294.131
294.347
294.66
295.11
295.753
296.671
297.899
299.284
300.703
302.639
305.849
288.734
289.738
290.464
290.921
291.234
291.49
291.721
291.938
292.144
292.345
292.54
292.73
292.914
293.092
293.259
293.412
293.546
293.65
293.731
293.804
293.875
293.95
294.037
294.144
294.286
294.489
294.794
295.247
295.909
296.845
298.067
299.411
300.801
302.726
305.891
288.737
289.741
290.465
290.922
291.235
291.491
291.722
291.937
292.142
292.336
292.523
292.707
292.891
293.071
293.246
293.41
293.56
293.694
293.816
293.919
294.01
294.103
294.204
294.323
294.473
294.679
294.98
295.431
296.099
297.046
298.257
299.552
300.914
302.836
305.938
288.735
289.73
290.442
290.893
291.205
291.457
291.681
291.884
292.074
292.254
292.433
292.613
292.796
292.98
293.165
293.347
293.522
293.683
293.827
293.958
294.081
294.196
294.317
294.456
294.628
294.86
295.188
295.662
296.346
297.288
298.463
299.698
301.023
302.929
305.969
288.714
289.68
290.389
290.846
291.16
291.412
291.635
291.84
292.03
292.21
292.379
292.542
292.706
292.877
293.056
293.241
293.429
293.614
293.789
293.949
294.095
294.236
294.377
294.532
294.717
294.958
295.298
295.791
296.493
297.439
298.592
299.787
301.081
302.962
305.973
288.71
289.676
290.387
290.845
291.159
291.411
291.634
291.839
292.029
292.209
292.378
292.538
292.694
292.848
293.007
293.175
293.352
293.538
293.725
293.906
294.078
294.243
294.411
294.588
294.787
295.031
295.363
295.842
296.537
297.487
298.641
299.821
301.102
302.98
305.978
288.711
289.675
290.385
290.844
291.159
291.412
291.634
291.838
292.027
292.204
292.372
292.533
292.69
292.843
292.996
293.152
293.315
293.488
293.67
293.857
294.046
294.236
294.432
294.645
294.885
295.173
295.542
296.048
296.756
297.703
298.827
299.961
301.213
303.076
306.016
288.701
289.651
290.359
290.825
291.145
291.399
291.62
291.822
292.009
292.185
292.353
292.514
292.669
292.82
292.969
293.119
293.273
293.436
293.61
293.794
293.988
294.19
294.406
294.64
294.905
295.227
295.636
296.175
296.901
297.839
298.928
300.025
301.248
303.091
306.014
288.688
289.63
290.342
290.813
291.136
291.391
291.613
291.815
292.003
292.181
292.349
292.509
292.663
292.812
292.958
293.103
293.248
293.396
293.552
293.724
293.913
294.12
294.347
294.595
294.872
295.203
295.624
296.176
296.905
297.844
298.932
300.028
301.249
303.081
306.003
288.687
289.629
290.342
290.816
291.141
291.397
291.621
291.824
292.014
292.192
292.361
292.523
292.678
292.827
292.971
293.113
293.254
293.396
293.544
293.702
293.873
294.069
294.297
294.556
294.851
295.204
295.645
296.212
296.958
297.908
298.997
300.083
301.289
303.109
306.015
288.688
289.635
290.359
290.843
291.174
291.434
291.66
291.866
292.057
292.238
292.409
292.573
292.73
292.88
293.023
293.161
293.295
293.428
293.564
293.709
293.868
294.049
294.26
294.509
294.812
295.192
295.656
296.252
297.019
297.975
299.051
300.117
301.304
303.109
306.011
288.691
289.649
290.384
290.874
291.21
291.475
291.704
291.913
292.108
292.291
292.466
292.634
292.794
292.948
293.095
293.233
293.365
293.493
293.62
293.752
293.896
294.059
294.247
294.468
294.748
295.118
295.602
296.211
296.988
297.95
299.033
300.106
301.293
303.085
305.994
288.696
289.667
290.415
290.912
291.251
291.519
291.752
291.964
292.163
292.351
292.531
292.705
292.872
293.032
293.183
293.323
293.454
293.577
293.699
293.824
293.96
294.113
294.288
294.493
294.754
295.108
295.574
296.187
296.977
297.949
299.036
300.111
301.298
303.091
305.999
288.712
289.715
290.481
290.984
291.327
291.598
291.836
292.053
292.257
292.451
292.638
292.819
292.995
293.162
293.318
293.458
293.584
293.7
293.811
293.926
294.053
294.199
294.373
294.587
294.861
295.211
295.669
296.273
297.064
298.049
299.142
300.201
301.384
303.193
306.054
288.735
289.771
290.552
291.06
291.406
291.683
291.927
292.15
292.36
292.561
292.757
292.95
293.138
293.317
293.481
293.624
293.748
293.856
293.957
294.059
294.171
294.303
294.466
294.679
294.967
295.355
295.858
296.502
297.311
298.282
299.326
300.34
301.5
303.291
306.096
288.755
289.82
290.609
291.115
291.462
291.742
291.99
292.218
292.435
292.644
292.85
293.053
293.253
293.445
293.62
293.772
293.899
294.008
294.105
294.2
294.301
294.415
294.557
294.747
295.018
295.402
295.92
296.585
297.406
298.367
299.389
300.385
301.534
303.317
306.102
288.778
289.869
290.664
291.167
291.514
291.796
292.047
292.28
292.501
292.712
292.92
293.126
293.332
293.533
293.72
293.881
294.018
294.134
294.237
294.335
294.436
294.549
294.686
294.863
295.107
295.452
295.936
296.597
297.419
298.38
299.401
300.393
301.54
303.331
306.11
288.791
289.895
290.689
291.189
291.535
291.818
292.07
292.303
292.521
292.73
292.933
293.135
293.34
293.547
293.75
293.937
294.094
294.225
294.339
294.445
294.554
294.675
294.823
295.016
295.274
295.625
296.1
296.733
297.549
298.513
299.521
300.485
301.623
303.426
306.156
288.792
289.897
290.691
291.191
291.537
291.82
292.072
292.304
292.523
292.731
292.934
293.135
293.338
293.544
293.751
293.949
294.126
294.277
294.406
294.523
294.638
294.765
294.92
295.126
295.408
295.795
296.312
296.972
297.783
298.715
299.675
300.602
301.714
303.489
306.172
288.791
289.897
290.695
291.197
291.545
291.829
292.083
292.316
292.534
292.74
292.94
293.137
293.338
293.542
293.749
293.953
294.142
294.309
294.453
294.58
294.7
294.827
294.978
295.175
295.447
295.83
296.345
297.009
297.817
298.73
299.67
300.587
301.693
303.464
306.159
288.794
289.91
290.713
291.218
291.569
291.856
292.111
292.345
292.563
292.768
292.965
293.159
293.355
293.557
293.765
293.974
294.173
294.351
294.507
294.644
294.77
294.895
295.038
295.217
295.464
295.817
296.303
296.945
297.744
298.66
299.613
300.539
301.637
303.395
306.12
288.8
289.924
290.728
291.233
291.584
291.872
292.128
292.362
292.58
292.785
292.982
293.175
293.371
293.573
293.784
293.999
294.208
294.401
294.571
294.721
294.856
294.989
295.131
295.298
295.517
295.829
296.297
296.927
297.722
298.647
299.61
300.539
301.636
303.392
306.12
288.802
289.93
290.736
291.242
291.595
291.884
292.141
292.376
292.594
292.799
292.994
293.186
293.379
293.581
293.794
294.016
294.238
294.446
294.634
294.802
294.955
295.104
295.26
295.435
295.651
295.938
296.343
296.936
297.728
298.654
299.615
300.541
301.639
303.407
306.134
288.808
289.946
290.755
291.261
291.615
291.906
292.164
292.4
292.618
292.821
293.015
293.203
293.391
293.587
293.796
294.019
294.25
294.478
294.687
294.875
295.048
295.218
295.396
295.596
295.838
296.148
296.567
297.139
297.893
298.794
299.72
300.612
301.703
303.478
306.166
288.812
289.956
290.768
291.275
291.629
291.921
292.18
292.416
292.633
292.836
293.027
293.212
293.396
293.587
293.79
294.01
294.247
294.486
294.715
294.924
295.117
295.306
295.505
295.731
296.002
296.344
296.79
297.375
298.116
298.969
299.841
300.702
301.776
303.534
306.187
288.815
289.964
290.778
291.286
291.643
291.937
292.198
292.436
292.653
292.855
293.045
293.227
293.406
293.591
293.788
294.003
294.237
294.483
294.726
294.955
295.167
295.374
295.591
295.835
296.128
296.492
296.956
297.548
298.273
299.089
299.92
300.756
301.815
303.557
306.192
288.819
289.976
290.794
291.304
291.663
291.959
292.222
292.461
292.679
292.881
293.07
293.249
293.425
293.604
293.795
294.005
294.237
294.486
294.739
294.982
295.211
295.433
295.664
295.923
296.231
296.614
297.094
297.692
298.406
299.194
299.994
300.81
301.856
303.584
306.2
288.825
289.99
290.811
291.322
291.682
291.981
292.246
292.487
292.707
292.91
293.098
293.277
293.451
293.627
293.812
294.016
294.246
294.502
294.77
295.03
295.275
295.51
295.75
296.017
296.335
296.728
297.22
297.824
298.529
299.292
300.064
300.861
301.898
303.618
306.214
288.83
290.003
290.826
291.338
291.701
292.003
292.271
292.514
292.735
292.939
293.128
293.305
293.476
293.647
293.827
294.024
294.25
294.509
294.792
295.079
295.353
295.612
295.868
296.143
296.464
296.857
297.346
297.943
298.631
299.367
300.114
300.898
301.931
303.647
306.226
288.834
290.012
290.837
291.351
291.716
292.021
292.292
292.538
292.761
292.966
293.155
293.331
293.5
293.668
293.84
294.026
294.24
294.493
294.786
295.099
295.412
295.712
296.005
296.307
296.645
297.045
297.531
298.113
298.775
299.48
300.2
300.969
301.993
303.698
306.246
288.836
290.018
290.845
291.361
291.727
292.035
292.31
292.559
292.785
292.991
293.181
293.357
293.525
293.689
293.855
294.03
294.226
294.459
294.74
295.065
295.408
295.744
296.08
296.426
296.8
297.225
297.72
298.293
298.931
299.606
300.301
301.051
302.056
303.732
306.252
288.836
290.02
290.851
291.369
291.738
292.049
292.327
292.579
292.808
293.016
293.207
293.383
293.549
293.71
293.871
294.038
294.221
294.428
294.673
294.973
295.318
295.689
296.061
296.432
296.831
297.276
297.782
298.353
298.978
299.638
300.322
301.065
302.062
303.73
306.25
288.836
290.023
290.856
291.376
291.749
292.063
292.346
292.602
292.834
293.044
293.236
293.413
293.579
293.738
293.896
294.059
294.231
294.422
294.64
294.893
295.191
295.535
295.916
296.325
296.757
297.224
297.739
298.31
298.93
299.586
300.267
301.009
302.001
303.661
306.21
288.837
290.027
290.861
291.382
291.756
292.075
292.36
292.62
292.856
293.069
293.262
293.44
293.606
293.766
293.924
294.085
294.257
294.443
294.65
294.882
295.147
295.456
295.809
296.2
296.628
297.099
297.624
298.206
298.842
299.514
300.209
300.955
301.947
303.611
306.188
288.838
290.03
290.864
291.386
291.763
292.084
292.374
292.638
292.877
293.092
293.287
293.466
293.632
293.79
293.947
294.109
294.282
294.475
294.687
294.918
295.17
295.46
295.8
296.179
296.602
297.073
297.603
298.193
298.836
299.512
300.207
300.954
301.945
303.611
306.19
288.84
290.032
290.866
291.389
291.768
292.093
292.387
292.655
292.898
293.117
293.314
293.493
293.659
293.816
293.972
294.131
294.303
294.497
294.72
294.974
295.25
295.544
295.855
296.205
296.608
297.076
297.606
298.197
298.841
299.517
300.213
300.957
301.951
303.627
306.203
288.841
290.032
290.866
291.389
291.768
292.096
292.393
292.665
292.912
293.133
293.332
293.512
293.678
293.834
293.987
294.142
294.308
294.497
294.722
294.99
295.294
295.624
295.971
296.338
296.738
297.187
297.709
298.304
298.955
299.628
300.309
301.041
302.031
303.7
306.234
288.837
290.024
290.86
291.386
291.767
292.098
292.4
292.676
292.926
293.149
293.35
293.531
293.697
293.852
294.001
294.15
294.306
294.478
294.681
294.936
295.25
295.611
295.982
296.376
296.802
297.276
297.808
298.398
299.033
299.69
300.361
301.087
302.063
303.711
306.233
288.832
290.017
290.856
291.383
291.768
292.102
292.408
292.688
292.941
293.167
293.37
293.553
293.72
293.875
294.023
294.167
294.314
294.469
294.644
294.849
295.107
295.442
295.858
296.309
296.776
297.268
297.804
298.392
299.021
299.673
300.343
301.067
302.039
303.678
306.208
288.828
290.013
290.855
291.386
291.773
292.111
292.421
292.705
292.961
293.19
293.396
293.581
293.75
293.907
294.055
294.2
294.344
294.494
294.654
294.83
295.036
295.301
295.652
296.084
296.572
297.098
297.658
298.258
298.901
299.568
300.251
300.981
301.951
303.592
306.165
288.828
290.016
290.861
291.394
291.785
292.128
292.443
292.73
292.989
293.221
293.428
293.616
293.788
293.947
294.097
294.243
294.389
294.54
294.696
294.857
295.037
295.266
295.567
295.956
296.426
296.957
297.537
298.162
298.826
299.509
300.202
300.938
301.911
303.556
306.149
288.828
290.026
290.875
291.41
291.805
292.154
292.473
292.764
293.025
293.259
293.47
293.66
293.835
293.998
294.152
294.3
294.446
294.594
294.741
294.893
295.064
295.278
295.554
295.909
296.353
296.882
297.476
298.122
298.803
299.498
300.196
300.935
301.91
303.556
306.15
288.835
290.051
290.901
291.437
291.838
292.193
292.518
292.812
293.076
293.313
293.527
293.722
293.903
294.073
294.234
294.39
294.542
294.693
294.838
294.982
295.141
295.337
295.587
295.919
296.355
296.882
297.481
298.131
298.816
299.517
300.214
300.949
301.928
303.59
306.171
288.851
290.094
290.943
291.478
291.883
292.245
292.574
292.872
293.139
293.38
293.598
293.801
293.991
294.174
294.354
294.531
294.705
294.871
295.023
295.169
295.327
295.517
295.76
296.08
296.496
297.02
297.637
298.314
299.007
299.681
300.352
301.083
302.073
303.729
306.237
288.875
290.144
290.989
291.521
291.931
292.299
292.633
292.934
293.204
293.447
293.67
293.88
294.083
294.286
294.496
294.714
294.933
295.131
295.303
295.465
295.636
295.841
296.103
296.445
296.881
297.41
298.008
298.635
299.264
299.89
300.535
301.259
302.262
303.918
306.331
288.901
290.191
291.028
291.557
291.972
292.345
292.683
292.986
293.257
293.501
293.726
293.942
294.157
294.382
294.632
294.911
295.19
295.44
295.652
295.837
296.023
296.241
296.519
296.874
297.31
297.817
298.369
298.944
299.527
300.119
300.741
301.455
302.454
304.087
306.408
288.919
290.222
291.054
291.582
292.001
292.377
292.718
293.022
293.292
293.534
293.757
293.972
294.191
294.428
294.705
295.039
295.407
295.746
296.025
296.249
296.454
296.682
296.962
297.311
297.732
298.213
298.734
299.274
299.824
300.389
300.992
301.695
302.688
304.286
306.491
288.925
290.231
291.062
291.592
292.013
292.394
292.738
293.043
293.311
293.548
293.764
293.97
294.181
294.413
294.693
295.048
295.467
295.891
296.266
296.565
296.818
297.073
297.362
297.704
298.104
298.554
299.037
299.538
300.054
300.592
301.174
301.863
302.843
304.394
306.52
288.925
290.227
291.058
291.59
292.016
292.4
292.747
293.053
293.32
293.553
293.763
293.954
294.145
294.349
294.588
294.896
295.295
295.767
296.237
296.617
296.935
297.235
297.545
297.886
298.265
298.681
299.13
299.604
300.104
300.633
301.209
301.889
302.85
304.387
306.51
288.916
290.211
291.047
291.584
292.013
292.403
292.755
293.064
293.33
293.56
293.762
293.946
294.118
294.292
294.483
294.712
295.01
295.415
295.921
296.425
296.847
297.206
297.538
297.88
298.25
298.655
299.093
299.561
300.059
300.591
301.17
301.846
302.792
304.307
306.464
288.904
290.189
291.032
291.576
292.011
292.407
292.766
293.079
293.346
293.574
293.772
293.948
294.111
294.268
294.425
294.598
294.804
295.077
295.466
295.956
296.465
296.935
297.355
297.741
298.123
298.523
298.952
299.416
299.916
300.455
301.038
301.709
302.637
304.156
306.394
288.892
290.166
291.016
291.568
292.01
292.416
292.782
293.101
293.37
293.598
293.793
293.964
294.12
294.266
294.408
294.552
294.707
294.892
295.144
295.501
295.966
296.489
297.005
297.482
297.925
298.358
298.804
299.279
299.789
300.337
300.929
301.601
302.517
304.034
306.337
288.88
290.145
291.003
291.563
292.014
292.431
292.809
293.134
293.407
293.635
293.828
293.997
294.148
294.287
294.419
294.548
294.68
294.824
294.998
295.228
295.553
295.997
296.529
297.086
297.624
298.135
298.636
299.146
299.68
300.243
300.844
301.518
302.428
303.948
306.299
288.87
290.127
290.991
291.56
292.023
292.454
292.844
293.178
293.454
293.683
293.875
294.041
294.189
294.325
294.451
294.572
294.692
294.817
294.957
295.123
295.337
295.635
296.051
296.577
297.161
297.75
298.325
298.893
299.464
300.052
300.669
301.35
302.26
303.792
306.231
288.861
290.113
290.982
291.56
292.036
292.484
292.889
293.231
293.511
293.741
293.932
294.096
294.242
294.374
294.497
294.614
294.727
294.843
294.969
295.112
295.277
295.482
295.762
296.153
296.663
297.253
297.87
298.491
299.116
299.753
300.411
301.119
302.041
303.596
306.147
288.856
290.104
290.976
291.562
292.053
292.521
292.942
293.294
293.579
293.809
293.999
294.162
294.305
294.436
294.556
294.669
294.779
294.89
295.01
295.142
295.29
295.463
295.675
295.957
296.349
296.863
297.469
298.125
298.813
299.523
300.245
300.986
301.921
303.498
306.111
288.853
290.098
290.97
291.565
292.071
292.561
292.999
293.362
293.652
293.883
294.072
294.233
294.375
294.504
294.623
294.734
294.841
294.95
295.067
295.196
295.338
295.496
295.683
295.923
296.245
296.692
297.27
297.951
298.694
299.463
300.218
300.966
301.902
303.49
306.112
288.849
290.091
290.964
291.566
292.089
292.6
293.057
293.431
293.725
293.956
294.145
294.305
294.446
294.574
294.693
294.803
294.909
295.016
295.13
295.254
295.392
295.546
295.723
295.938
296.227
296.623
297.169
297.853
298.625
299.421
300.19
300.944
301.885
303.48
306.11
288.847
290.085
290.957
291.566
292.104
292.638
293.115
293.5
293.799
294.03
294.217
294.376
294.516
294.644
294.763
294.874
294.981
295.088
295.201
295.323
295.454
295.599
295.766
295.966
296.227
296.584
297.08
297.74
298.526
299.356
300.158
300.927
301.873
303.471
306.105
288.848
290.092
290.963
291.574
292.125
292.679
293.175
293.573
293.877
294.11
294.295
294.451
294.589
294.716
294.835
294.949
295.06
295.173
295.293
295.42
295.554
295.694
295.847
296.026
296.255
296.585
297.057
297.699
298.492
299.347
300.158
300.927
301.872
303.474
306.107
288.851
290.097
290.966
291.581
292.143
292.717
293.231
293.643
293.954
294.189
294.373
294.526
294.661
294.786
294.905
295.02
295.136
295.259
295.394
295.54
295.694
295.852
296.015
296.19
296.395
296.667
297.08
297.708
298.501
299.358
300.167
300.934
301.885
303.502
306.125
288.854
290.101
290.971
291.587
292.157
292.747
293.279
293.706
294.027
294.266
294.45
294.6
294.731
294.851
294.967
295.08
295.197
295.326
295.473
295.641
295.827
296.026
296.235
296.457
296.706
297.011
297.426
298.003
298.762
299.585
300.36
301.112
302.072
303.684
306.209
288.855
290.102
290.974
291.592
292.167
292.767
293.314
293.758
294.094
294.342
294.53
294.68
294.808
294.922
295.029
295.135
295.244
295.368
295.515
295.689
295.893
296.122
296.377
296.66
296.981
297.36
297.828
298.415
299.111
299.845
300.553
301.273
302.219
303.808
306.261
288.854
290.102
290.976
291.597
292.174
292.78
293.339
293.798
294.149
294.41
294.607
294.763
294.892
295.003
295.104
295.199
295.297
295.407
295.538
295.698
295.892
296.123
296.391
296.699
297.055
297.471
297.966
298.549
299.209
299.898
300.58
301.29
302.228
303.81
306.259
288.856
290.116
290.994
291.618
292.201
292.812
293.376
293.845
294.209
294.484
294.692
294.857
294.992
295.108
295.208
295.299
295.385
295.477
295.583
295.715
295.886
296.092
296.341
296.642
296.999
297.423
297.923
298.504
299.154
299.832
300.51
301.219
302.152
303.726
306.205
288.865
290.143
291.029
291.66
292.251
292.87
293.44
293.917
294.292
294.577
294.796
294.971
295.117
295.242
295.35
295.444
295.529
295.611
295.698
295.797
295.923
296.097
296.33
296.613
296.959
297.378
297.88
298.466
299.117
299.795
300.475
301.186
302.123
303.712
306.204
288.882
290.189
291.083
291.723
292.329
292.955
293.527
294.005
294.384
294.675
294.903
295.089
295.248
295.389
295.512
295.619
295.715
295.804
295.889
295.98
296.085
296.217
296.39
296.632
296.966
297.384
297.888
298.475
299.125
299.801
300.476
301.186
302.128
303.726
306.221
288.908
290.251
291.153
291.804
292.426
293.061
293.629
294.098
294.472
294.763
294.993
295.188
295.364
295.525
295.669
295.799
295.916
296.024
296.126
296.23
296.344
296.481
296.655
296.884
297.18
297.572
298.065
298.64
299.257
299.886
300.528
301.234
302.199
303.826
306.278
288.934
290.31
291.22
291.88
292.517
293.154
293.713
294.169
294.531
294.815
295.046
295.25
295.439
295.617
295.787
295.947
296.097
296.235
296.365
296.495
296.633
296.793
296.989
297.238
297.554
297.949
298.421
298.953
299.52
300.105
300.714
301.4
302.356
303.96
306.336
288.954
290.355
291.271
291.938
292.583
293.221
293.772
294.214
294.56
294.833
295.058
295.26
295.452
295.641
295.833
296.027
296.216
296.394
296.562
296.727
296.896
297.082
297.298
297.559
297.878
298.263
298.709
299.203
299.729
300.279
300.865
301.539
302.487
304.067
306.377
288.968
290.384
291.301
291.962
292.595
293.229
293.781
294.224
294.565
294.827
295.041
295.235
295.421
295.61
295.813
296.029
296.251
296.471
296.683
296.889