/*--------------------------------*- C++ -*----------------------------------*\
| =========                 |                                                 |
| \\      /  F ield         | OpenFOAM: The Open Source CFD Toolbox           |
|  \\    /   O peration     | Version:  v1906                                 |
|   \\  /    A nd           | Web:      www.OpenFOAM.com                      |
|    \\/     M anipulation  |                                                 |
\*---------------------------------------------------------------------------*/
FoamFile
{
    version     2.0;
    format      ascii;
    class       surfaceScalarField;
    location    "77.2/oil";
    object      phi;
}
// * * * * * * * * * * * * * * * * * * * * * * * * * * * * * * * * * * * * * //

dimensions      [1 0 -1 0 0 0 0];
oriented        oriented;


internalField   nonuniform List<scalar> 
80688
(
-2.12061e-06
-2.15639e-06
-2.12061e-06
-9.56594e-07
-6.02043e-07
-5.61974e-07
-2.56601e-07
-3.52659e-07
-3.47335e-07
-1.20336e-07
-6.87968e-08
-6.74678e-08
-3.92144e-08
-4.09963e-08
-4.0125e-08
1.54432e-09
-2.05587e-08
-2.01999e-08
2.43544e-08
-1.13062e-08
-1.15038e-08
3.71617e-08
-6.09993e-09
-6.7073e-09
4.33853e-08
-2.70621e-09
-3.51725e-09
4.44954e-08
-1.61783e-10
-9.48341e-10
4.12744e-08
1.94475e-09
1.27634e-09
3.43712e-08
3.68152e-09
3.22174e-09
2.44995e-08
5.04846e-09
4.82322e-09
1.25163e-08
6.00746e-09
5.97577e-09
-5.89018e-10
6.51419e-09
6.59114e-09
-1.37593e-08
6.54613e-09
6.62421e-09
-2.59523e-08
6.1107e-09
6.08228e-09
-3.6229e-08
5.24837e-09
5.02837e-09
-4.384e-08
4.03208e-09
3.57892e-09
-4.82837e-08
2.5545e-09
1.88922e-09
-4.93534e-08
9.20805e-10
1.48884e-10
-4.71233e-08
-7.35349e-10
-1.49467e-09
-4.19909e-08
-2.29958e-09
-2.83282e-09
-3.46074e-08
-3.67625e-09
-3.70723e-09
-2.58614e-08
-4.73547e-09
-4.01053e-09
-1.68325e-08
-5.33123e-09
-3.69765e-09
-8.72513e-09
-5.27399e-09
-2.83333e-09
-2.74483e-09
-4.33093e-09
-1.64934e-09
1.73103e-10
-2.28602e-09
-6.31886e-10
3.41374e-10
-1.68253e-10
-5.69761e-07
-1.01687e-06
-5.69754e-07
-3.36877e-07
-3.79261e-07
-4.55666e-07
-2.32722e-07
-2.63345e-07
-1.93468e-07
-9.95275e-08
-1.25882e-07
-7.61091e-08
-1.93907e-08
-8.41831e-08
-3.69498e-08
3.08448e-08
-5.78907e-08
-1.29035e-08
6.34487e-08
-4.40324e-08
1.22388e-10
8.34511e-08
-3.46492e-08
8.54693e-09
9.32262e-08
-2.74331e-08
1.49519e-08
9.39153e-08
-2.1262e-08
2.04111e-08
8.63801e-08
-1.58064e-08
2.52863e-08
7.15962e-08
-1.10907e-08
2.95562e-08
5.0879e-08
-7.27547e-09
3.30411e-08
2.59145e-08
-4.56591e-09
3.5538e-08
-1.31684e-09
-3.12398e-09
3.68695e-08
-2.86774e-08
-3.03604e-09
3.69428e-08
-5.40538e-08
-4.2848e-09
3.57719e-08
-7.55445e-08
-6.74388e-09
3.3483e-08
-9.16277e-08
-1.01891e-08
3.03044e-08
-1.01288e-07
-1.43159e-08
2.65304e-08
-1.04101e-07
-1.87736e-08
2.25082e-08
-1.00249e-07
-2.31744e-08
1.85865e-08
-9.04986e-08
-2.713e-08
1.50802e-08
-7.61579e-08
-3.02449e-08
1.2228e-08
-5.89677e-08
-3.21012e-08
1.01755e-08
-4.0977e-08
-3.22328e-08
8.91092e-09
-2.43612e-08
-3.00994e-08
8.20968e-09
-1.11538e-08
-2.50986e-08
7.56028e-09
-2.849e-09
-1.66726e-08
6.0818e-09
-5.3639e-09
2.85629e-09
-3.52527e-07
-3.11828e-07
-3.52519e-07
-2.27902e-07
-3.09116e-07
-1.9477e-07
-1.3899e-07
-2.36721e-07
-1.15536e-07
-4.92545e-08
-1.64589e-07
-5.10281e-08
1.55458e-08
-1.32232e-07
-1.67515e-08
6.33054e-08
-1.10387e-07
4.73669e-09
9.70883e-08
-9.60723e-08
1.8257e-08
1.18719e-07
-8.44229e-08
2.81428e-08
1.28957e-07
-7.39605e-08
3.629e-08
1.28224e-07
-6.40779e-08
4.35485e-08
1.17124e-07
-5.48309e-08
5.01244e-08
9.66943e-08
-4.65724e-08
5.59119e-08
6.8556e-08
-3.97736e-08
6.06364e-08
3.48654e-08
-3.48942e-08
6.40189e-08
-1.78864e-09
-3.22888e-08
6.58189e-08
-3.86006e-08
-3.21396e-08
6.59155e-08
-7.27895e-08
-3.44207e-08
6.43248e-08
-1.01847e-07
-3.88925e-08
6.12065e-08
-1.23775e-07
-4.51166e-08
5.68549e-08
-1.37233e-07
-5.25041e-08
5.16461e-08
-1.41668e-07
-6.03593e-08
4.60209e-08
-1.37311e-07
-6.79267e-08
4.0395e-08
-1.25164e-07
-7.44314e-08
3.51545e-08
-1.06885e-07
-7.9085e-08
3.05617e-08
-8.46592e-08
-8.1074e-08
2.67467e-08
-6.10031e-08
-7.9526e-08
2.36371e-08
-3.85124e-08
-7.34838e-08
2.08937e-08
-1.95719e-08
-6.18775e-08
1.78384e-08
-6.09721e-09
-4.35221e-08
1.33749e-08
-1.75664e-08
6.10536e-09
-6.35084e-08
-1.8482e-07
-6.34992e-08
-7.61936e-08
-2.2709e-07
-6.93403e-08
-4.35743e-08
-2.22822e-07
-4.65178e-08
7.98362e-09
-2.01639e-07
-1.45086e-08
5.62197e-08
-1.88031e-07
7.56324e-09
9.73047e-08
-1.75314e-07
2.3842e-08
1.28806e-07
-1.63641e-07
3.60675e-08
1.49588e-07
-1.51436e-07
4.62303e-08
1.58817e-07
-1.38533e-07
5.53439e-08
1.56108e-07
-1.252e-07
6.38324e-08
1.41698e-07
-1.12098e-07
7.16768e-08
1.16568e-07
-1.00078e-07
7.8636e-08
8.24883e-08
-9.00325e-08
8.43382e-08
4.19385e-08
-8.27689e-08
8.84245e-08
-2.06766e-09
-7.88798e-08
9.05972e-08
-4.62342e-08
-7.86767e-08
9.07037e-08
-8.72872e-08
-8.21283e-08
8.87606e-08
-1.22277e-07
-8.88609e-08
8.49579e-08
-1.48843e-07
-9.8188e-08
7.96374e-08
-1.65422e-07
-1.09171e-07
7.32462e-08
-1.71358e-07
-1.20706e-07
6.62829e-08
-1.66924e-07
-1.31598e-07
5.92367e-08
-1.53256e-07
-1.40622e-07
5.25229e-08
-1.3224e-07
-1.46527e-07
4.64257e-08
-1.06317e-07
-1.48058e-07
4.10604e-08
-7.82639e-08
-1.43889e-07
3.63105e-08
-5.09376e-08
-1.32575e-07
3.17654e-08
-2.70054e-08
-1.12443e-07
2.66336e-08
-8.92154e-09
-8.12493e-08
1.96433e-08
-3.54182e-08
8.93027e-09
-2.82649e-08
-1.28301e-07
-2.82546e-08
-2.25184e-08
-2.09305e-07
-2.35314e-08
6.6216e-09
-2.44295e-07
-7.66743e-09
4.79301e-08
-2.54473e-07
1.15254e-08
8.98538e-08
-2.57091e-07
2.71364e-08
1.27629e-07
-2.53288e-07
4.01999e-08
1.57638e-07
-2.45102e-07
5.14519e-08
1.775e-07
-2.33107e-07
6.18087e-08
1.85535e-07
-2.18295e-07
7.1727e-08
1.8083e-07
-2.018e-07
8.1304e-08
1.63348e-07
-1.84942e-07
9.03259e-08
1.34018e-07
-1.69145e-07
9.83968e-08
9.47207e-08
-1.55787e-07
1.05052e-07
4.81904e-08
-1.46063e-07
1.09824e-07
-2.19744e-09
-1.40853e-07
1.12361e-07
-5.27347e-08
-1.4061e-07
1.1247e-07
-9.97239e-08
-1.45303e-07
1.10164e-07
-1.39839e-07
-1.54412e-07
1.05666e-07
-1.70422e-07
-1.66976e-07
9.93717e-08
-1.89722e-07
-1.81674e-07
9.18031e-08
-1.97005e-07
-1.9696e-07
8.35368e-08
-1.92568e-07
-2.11159e-07
7.51235e-08
-1.77664e-07
-2.2254e-07
6.70147e-08
-1.54342e-07
-2.29381e-07
5.95313e-08
-1.25234e-07
-2.29949e-07
5.27827e-08
-9.33253e-08
-2.22423e-07
4.66252e-08
-6.16941e-08
-2.048e-07
4.0593e-08
-3.33269e-08
-1.74601e-07
3.37908e-08
-1.12497e-08
-1.28102e-07
2.47751e-08
-5.7927e-08
1.12591e-08
-4.39621e-09
-1.1952e-07
-4.38478e-09
1.09414e-08
-2.29291e-07
4.64798e-09
4.02604e-08
-2.90529e-07
1.69151e-08
7.83682e-08
-3.22846e-07
3.02655e-08
1.18059e-07
-3.39186e-07
4.24037e-08
1.54608e-07
-3.43534e-07
5.36973e-08
1.84046e-07
-3.39073e-07
6.45327e-08
2.03377e-07
-3.27747e-07
7.53089e-08
2.10416e-07
-3.11483e-07
8.61503e-08
2.03892e-07
-2.92194e-07
9.69184e-08
1.83574e-07
-2.7185e-07
1.07226e-07
1.50349e-07
-2.52452e-07
1.16532e-07
1.062e-07
-2.35882e-07
1.24245e-07
5.41084e-08
-2.23759e-07
1.29787e-07
-2.21313e-09
-2.17258e-07
1.32726e-07
-5.86623e-08
-2.16991e-07
1.3283e-07
-1.11146e-07
-2.2293e-07
1.3011e-07
-1.55975e-07
-2.34403e-07
1.24821e-07
-1.90219e-07
-2.50159e-07
1.17428e-07
-2.11961e-07
-2.68482e-07
1.0855e-07
-2.20403e-07
-2.87372e-07
9.88544e-08
-2.15879e-07
-3.04643e-07
8.89602e-08
-1.99755e-07
-3.18078e-07
7.9414e-08
-1.74228e-07
-3.25457e-07
7.05495e-08
-1.4212e-07
-3.24548e-07
6.24909e-08
-1.06612e-07
-3.13005e-07
5.50749e-08
-7.1032e-08
-2.88169e-07
4.7789e-08
-3.86911e-08
-2.46579e-07
3.96371e-08
-1.3167e-08
-1.82613e-07
2.89876e-08
-8.42712e-08
1.31773e-08
6.40542e-09
-1.32343e-07
6.41806e-09
2.85509e-08
-2.71196e-07
1.97597e-08
6.13321e-08
-3.55106e-07
3.17954e-08
1.00572e-07
-4.0531e-07
4.3224e-08
1.40957e-07
-4.33599e-07
5.40286e-08
1.78095e-07
-4.4543e-07
6.4758e-08
2.07999e-07
-4.4477e-07
7.57931e-08
2.27402e-07
-4.34496e-07
8.73461e-08
2.33842e-07
-4.17287e-07
9.93639e-08
2.25799e-07
-3.95696e-07
1.11545e-07
2.02906e-07
-3.7231e-07
1.23353e-07
1.66033e-07
-3.49676e-07
1.34098e-07
1.17282e-07
-3.30169e-07
1.43038e-07
5.98675e-08
-3.15825e-07
1.4948e-07
-2.14834e-09
-3.08134e-07
1.52892e-07
-6.42676e-08
-3.07857e-07
1.52986e-07
-1.21997e-07
-3.14974e-07
1.49774e-07
-1.7129e-07
-3.28666e-07
1.43556e-07
-2.08951e-07
-3.47388e-07
1.34889e-07
-2.32896e-07
-3.69029e-07
1.24493e-07
-2.42294e-07
-3.9113e-07
1.13155e-07
-2.37528e-07
-4.11028e-07
1.01619e-07
-2.20094e-07
-4.26009e-07
9.0496e-08
-1.92354e-07
-4.33372e-07
8.01749e-08
-1.57327e-07
-4.30377e-07
7.08029e-08
-1.18412e-07
-4.14118e-07
6.21977e-08
-7.9185e-08
-3.81192e-07
5.37965e-08
-4.32893e-08
-3.26983e-07
4.4508e-08
-1.47767e-08
-2.43639e-07
3.25127e-08
-1.13836e-07
1.47881e-08
1.20083e-08
-1.56373e-07
1.2022e-08
3.92225e-08
-3.2705e-07
2.864e-08
7.57428e-08
-4.33e-07
4.1374e-08
1.17455e-07
-4.99486e-07
5.24646e-08
1.59772e-07
-5.38963e-07
6.30465e-08
1.98453e-07
-5.58072e-07
7.3961e-08
2.29489e-07
-5.6148e-07
8.5674e-08
2.49467e-07
-5.52819e-07
9.83456e-08
2.55685e-07
-5.35326e-07
1.11821e-07
2.46461e-07
-5.12137e-07
1.25664e-07
2.21296e-07
-4.86355e-07
1.39211e-07
1.81051e-07
-4.61059e-07
1.51626e-07
1.27945e-07
-4.39068e-07
1.62006e-07
6.54498e-08
-4.22825e-07
1.69495e-07
-2.03196e-09
-4.141e-07
1.73449e-07
-6.95949e-08
-4.13829e-07
1.73534e-07
-1.32336e-07
-4.21988e-07
1.69755e-07
-1.85848e-07
-4.37612e-07
1.62458e-07
-2.26669e-07
-4.5887e-07
1.52303e-07
-2.52572e-07
-4.83291e-07
1.40165e-07
-2.62705e-07
-5.0797e-07
1.26973e-07
-2.5754e-07
-5.29787e-07
1.13594e-07
-2.38702e-07
-5.4557e-07
1.00724e-07
-2.08752e-07
-5.52153e-07
8.88315e-08
-1.70919e-07
-5.46306e-07
7.80948e-08
-1.28821e-07
-5.24537e-07
6.83215e-08
-8.62793e-08
-4.82626e-07
5.8892e-08
-4.7237e-08
-4.14638e-07
4.86126e-08
-1.61453e-08
-3.10215e-07
3.54852e-08
-1.46139e-07
1.61579e-08
1.51449e-08
-1.86678e-07
1.51594e-08
4.60011e-08
-3.92053e-07
3.41473e-08
8.58522e-08
-5.20638e-07
4.77872e-08
1.30296e-07
-6.03117e-07
5.91869e-08
1.74959e-07
-6.53737e-07
7.01117e-08
2.15588e-07
-6.80361e-07
8.16589e-08
2.4813e-07
-6.88402e-07
9.43809e-08
2.69011e-07
-6.82125e-07
1.08424e-07
2.75362e-07
-6.65274e-07
1.23598e-07
2.653e-07
-6.4143e-07
1.39356e-07
2.38243e-07
-6.14183e-07
1.54884e-07
1.95004e-07
-5.87008e-07
1.69189e-07
1.37915e-07
-5.63152e-07
1.81173e-07
7.0697e-08
-5.45432e-07
1.89825e-07
-1.88898e-09
-5.3591e-07
1.94396e-07
-7.45343e-08
-5.35652e-07
1.94468e-07
-1.41925e-07
-5.44643e-07
1.90046e-07
-1.99304e-07
-5.61776e-07
1.81543e-07
-2.42947e-07
-5.84974e-07
1.69747e-07
-2.70507e-07
-6.11399e-07
1.55667e-07
-2.81136e-07
-6.3773e-07
1.40389e-07
-2.7541e-07
-6.60478e-07
1.24964e-07
-2.55121e-07
-6.76059e-07
1.10201e-07
-2.23053e-07
-6.8087e-07
9.66482e-08
-1.8263e-07
-6.71221e-07
8.44927e-08
-1.37686e-07
-6.43023e-07
7.35418e-08
-9.22596e-08
-5.9121e-07
6.31572e-08
-5.0539e-08
-5.08377e-07
5.20189e-08
-1.72852e-08
-3.81413e-07
3.79442e-08
-1.80723e-07
1.72989e-08
1.701e-08
-2.20713e-07
1.7025e-08
5.04146e-08
-4.63094e-07
3.76358e-08
9.288e-08
-6.15156e-07
5.2052e-08
1.3972e-07
-7.13909e-07
6.3952e-08
1.86541e-07
-7.76031e-07
7.54737e-08
2.29064e-07
-8.10761e-07
8.7877e-08
2.63178e-07
-8.24323e-07
1.01807e-07
2.85119e-07
-8.21491e-07
1.17424e-07
2.91873e-07
-8.06491e-07
1.34463e-07
2.81379e-07
-7.83254e-07
1.52318e-07
2.52877e-07
-7.55701e-07
1.7002e-07
2.07168e-07
-7.27682e-07
1.86384e-07
1.46675e-07
-7.02797e-07
2.00138e-07
7.53399e-08
-6.8419e-07
2.10092e-07
-1.73874e-09
-6.74156e-07
2.15325e-07
-7.88587e-08
-6.73917e-07
2.15385e-07
-1.50316e-07
-6.83463e-07
2.10277e-07
-2.11004e-07
-7.01545e-07
2.00457e-07
-2.56967e-07
-7.25849e-07
1.86838e-07
-2.85779e-07
-7.53221e-07
1.70635e-07
-2.96615e-07
-7.80033e-07
1.53139e-07
-2.90193e-07
-8.02423e-07
1.35523e-07
-2.6851e-07
-8.16486e-07
1.18744e-07
-2.3453e-07
-8.18283e-07
1.03433e-07
-1.91891e-07
-8.03692e-07
8.98318e-08
-1.44602e-07
-7.68066e-07
7.77546e-08
-9.68901e-08
-7.05396e-07
6.64737e-08
-5.30892e-08
-6.06778e-07
5.45997e-08
-1.81702e-08
-4.56152e-07
3.98193e-08
-2.17078e-07
1.81847e-08
1.80729e-08
-2.56873e-07
1.80872e-08
5.30364e-08
-5.37718e-07
3.96612e-08
9.7175e-08
-7.13914e-07
5.46197e-08
1.45642e-07
-8.29354e-07
6.6978e-08
1.94038e-07
-9.03534e-07
7.91064e-08
2.38058e-07
-9.47207e-07
9.24264e-08
2.73497e-07
-9.67403e-07
1.07641e-07
2.96505e-07
-9.69403e-07
1.24905e-07
3.03871e-07
-9.57773e-07
1.43916e-07
2.93342e-07
-9.36699e-07
1.63974e-07
2.64007e-07
-9.10325e-07
1.83959e-07
2.16591e-07
-8.82783e-07
2.02517e-07
1.53551e-07
-8.57911e-07
2.18155e-07
7.90238e-08
-8.39147e-07
2.29484e-07
-1.59667e-09
-8.28965e-07
2.35429e-07
-8.22419e-08
-8.28747e-07
2.35476e-07
-1.56847e-07
-8.38474e-07
2.29616e-07
-2.19992e-07
-8.56793e-07
2.18393e-07
-2.67559e-07
-8.81161e-07
2.02879e-07
-2.97071e-07
-9.08164e-07
1.84455e-07
-3.07752e-07
-9.3395e-07
1.64598e-07
-3.00524e-07
-9.54354e-07
1.44703e-07
-2.77586e-07
-9.653e-07
1.25875e-07
-2.42087e-07
-9.62585e-07
1.08804e-07
-1.97829e-07
-9.41734e-07
9.37838e-08
-1.4896e-07
-8.97565e-07
8.06303e-08
-9.97615e-08
-8.23194e-07
6.85992e-08
-5.46654e-08
-7.08075e-07
5.62005e-08
-1.87319e-08
-5.3305e-07
4.09647e-08
-2.54557e-07
1.87469e-08
1.84652e-08
-2.93817e-07
1.84793e-08
5.39393e-08
-6.13519e-07
4.03265e-08
9.86061e-08
-8.14032e-07
5.54514e-08
1.47602e-07
-9.46441e-07
6.80912e-08
1.96615e-07
-1.0333e-06
8.0756e-08
2.41349e-07
-1.08687e-06
9.49289e-08
2.77611e-07
-1.11501e-06
1.11347e-07
3.01498e-07
-1.1235e-06
1.30211e-07
3.09604e-07
-1.11705e-06
1.51171e-07
2.99528e-07
-1.10006e-06
1.7344e-07
2.70172e-07
-1.07674e-06
1.95775e-07
2.2207e-07
-1.0513e-06
2.16624e-07
1.57717e-07
-1.02781e-06
2.34255e-07
8.13156e-08
-1.0098e-06
2.47056e-07
-1.47026e-09
-9.9996e-07
2.53782e-07
-8.42686e-08
-9.99768e-07
2.53819e-07
-1.60698e-07
-1.00922e-06
2.47175e-07
-2.25125e-07
-1.02682e-06
2.34455e-07
-2.73282e-07
-1.0499e-06
2.16891e-07
-3.02702e-07
-1.07487e-06
1.9613e-07
-3.12831e-07
-1.09771e-06
1.73885e-07
-3.0472e-07
-1.1142e-06
1.5174e-07
-2.80785e-07
-1.12015e-06
1.30913e-07
-2.44363e-07
-1.11118e-06
1.12175e-07
-1.99347e-07
-1.08262e-06
9.58714e-08
-1.49899e-07
-1.0288e-06
8.17876e-08
-1.00323e-07
-9.41926e-07
6.91559e-08
-5.49857e-08
-8.09869e-07
5.64569e-08
-1.88574e-08
-6.1031e-07
4.1132e-08
-2.92286e-07
1.88723e-08
1.81868e-08
-3.30206e-07
1.82019e-08
5.29849e-08
-6.87902e-07
3.95854e-08
9.6744e-08
-9.12211e-07
5.44202e-08
1.44835e-07
-1.06155e-06
6.70165e-08
1.93088e-07
-1.1615e-06
7.99481e-08
2.37419e-07
-1.22595e-06
9.47439e-08
2.7373e-07
-1.26347e-06
1.12144e-07
2.98096e-07
-1.28026e-06
1.32393e-07
3.07052e-07
-1.28114e-06
1.5513e-07
2.97987e-07
-1.2705e-06
1.79501e-07
2.69573e-07
-1.25249e-06
2.04156e-07
2.2218e-07
-1.23121e-06
2.27302e-07
1.58148e-07
-1.21076e-06
2.46978e-07
8.1693e-08
-1.19467e-06
2.61326e-07
-1.3668e-09
-1.18579e-06
2.68887e-07
-8.44295e-08
-1.18562e-06
2.68912e-07
-1.60896e-07
-1.19415e-06
2.614e-07
-2.24935e-07
-1.20988e-06
2.47103e-07
-2.72307e-07
-1.22999e-06
2.27469e-07
-3.00708e-07
-1.25087e-06
2.04393e-07
-3.09745e-07
-1.26851e-06
1.79838e-07
-3.00723e-07
-1.27879e-06
1.5556e-07
-2.76233e-07
-1.27753e-06
1.32889e-07
-2.39732e-07
-1.26041e-06
1.12726e-07
-1.95095e-07
-1.22264e-06
9.53789e-08
-1.46457e-07
-1.15808e-06
8.06375e-08
-9.79226e-08
-1.05818e-06
6.77242e-08
-5.36514e-08
-9.09214e-07
5.50744e-08
-1.84324e-08
-6.85628e-07
4.00986e-08
-3.29166e-07
1.84472e-08
1.71533e-08
-3.64519e-07
1.71594e-08
4.98582e-08
-7.57806e-07
3.71989e-08
9.10169e-08
-1.00453e-06
5.11563e-08
1.36376e-07
-1.1702e-06
6.32941e-08
1.82182e-07
-1.28342e-06
7.61083e-08
2.24633e-07
-1.35951e-06
9.11133e-08
2.59873e-07
-1.40783e-06
1.09123e-07
2.84101e-07
-1.43484e-06
1.30349e-07
2.93867e-07
-1.44538e-06
1.54478e-07
2.86413e-07
-1.44365e-06
1.80602e-07
2.60174e-07
-1.43352e-06
2.07276e-07
2.15238e-07
-1.41889e-06
2.32608e-07
1.53653e-07
-1.40355e-06
2.54376e-07
7.95476e-08
-1.39094e-06
2.70371e-07
-1.28539e-09
-1.3838e-06
2.78843e-07
-8.21115e-08
-1.38365e-06
2.78857e-07
-1.56188e-07
-1.39049e-06
2.70414e-07
-2.17736e-07
-1.40279e-06
2.54449e-07
-2.62632e-07
-1.41783e-06
2.32737e-07
-2.88809e-07
-1.43214e-06
2.07456e-07
-2.96162e-07
-1.44195e-06
1.80798e-07
-2.86273e-07
-1.44342e-06
1.54744e-07
-2.61872e-07
-1.43262e-06
1.30691e-07
-2.26416e-07
-1.40538e-06
1.09522e-07
-1.83701e-07
-1.35693e-06
9.15725e-08
-1.3758e-07
-1.2808e-06
7.66001e-08
-9.18414e-08
-1.16769e-06
6.3768e-08
-5.03163e-08
-1.00233e-06
5.15903e-08
-1.73044e-08
-7.56173e-07
3.75339e-08
-3.63789e-07
1.73184e-08
1.5252e-08
-3.95029e-07
1.52589e-08
4.42375e-08
-8.19737e-07
3.29455e-08
8.08174e-08
-1.08648e-06
4.53762e-08
1.21326e-07
-1.2672e-06
5.64924e-08
1.62571e-07
-1.39331e-06
6.86449e-08
2.01264e-07
-1.48148e-06
8.32811e-08
2.33965e-07
-1.54172e-06
1.01191e-07
2.57165e-07
-1.58065e-06
1.22619e-07
2.6756e-07
-1.60309e-06
1.47316e-07
2.62303e-07
-1.61286e-06
1.74466e-07
2.39592e-07
-1.6134e-06
2.0259e-07
1.99202e-07
-1.60813e-06
2.29635e-07
1.42781e-07
-1.60026e-06
2.5313e-07
7.41052e-08
-1.59289e-06
2.70627e-07
-1.22613e-09
-1.58844e-06
2.79977e-07
-7.65424e-08
-1.58831e-06
2.7998e-07
-1.45182e-07
-1.59249e-06
2.7064e-07
-2.01537e-07
-1.59959e-06
2.53157e-07
-2.41845e-07
-1.60719e-06
2.29666e-07
-2.64423e-07
-1.61222e-06
2.02658e-07
-2.69524e-07
-1.61146e-06
1.74609e-07
-2.58986e-07
-1.60147e-06
1.47512e-07
-2.35609e-07
-1.57883e-06
1.22837e-07
-2.02666e-07
-1.53978e-06
1.01453e-07
-1.63729e-07
-1.47944e-06
8.35766e-08
-1.22192e-07
-1.39129e-06
6.89604e-08
-8.14105e-08
-1.26528e-06
5.68051e-08
-4.45684e-08
-1.08483e-06
4.56624e-08
-1.53531e-08
-8.18557e-07
3.31679e-08
-3.94508e-07
1.53663e-08
1.23956e-08
-4.19824e-07
1.23995e-08
3.59133e-08
-8.69893e-07
2.66379e-08
6.56442e-08
-1.15298e-06
3.67687e-08
9.88763e-08
-1.34663e-06
4.61963e-08
1.33145e-07
-1.48455e-06
5.69712e-08
1.65862e-07
-1.58459e-06
7.03887e-08
1.94207e-07
-1.65726e-06
8.71973e-08
2.15164e-07
-1.70934e-06
1.07724e-07
2.25705e-07
-1.74541e-06
1.31776e-07
2.23102e-07
-1.76886e-06
1.58603e-07
2.05427e-07
-1.78253e-06
1.86806e-07
1.71987e-07
-1.7891e-06
2.14412e-07
1.23946e-07
-1.79103e-06
2.38814e-07
6.45237e-08
-1.7907e-06
2.57229e-07
-1.18273e-09
-1.78992e-06
2.67182e-07
-6.68667e-08
-1.78981e-06
2.67178e-07
-1.26228e-07
-1.79035e-06
2.57224e-07
-1.74166e-07
-1.79046e-06
2.38812e-07
-2.07502e-07
-1.7883e-06
2.1444e-07
-2.2504e-07
-1.78155e-06
1.8686e-07
-2.27503e-07
-1.76766e-06
1.58662e-07
-2.1678e-07
-1.74406e-06
1.31869e-07
-1.95596e-07
-1.70787e-06
1.0785e-07
-1.67054e-07
-1.65568e-06
8.73552e-08
-1.34086e-07
-1.58298e-06
7.05723e-08
-9.95803e-08
-1.48297e-06
5.71721e-08
-6.60852e-08
-1.34517e-06
4.63992e-08
-3.61247e-08
-1.15175e-06
3.69567e-08
-1.24625e-08
-8.69006e-07
2.67876e-08
-4.19445e-07
1.24746e-08
8.53941e-09
-4.36909e-07
8.54526e-09
2.46881e-08
-9.04234e-07
1.81928e-08
4.53026e-08
-1.19883e-06
2.52306e-08
6.869e-08
-1.40224e-06
3.22239e-08
9.33984e-08
-1.55002e-06
4.07653e-08
1.17669e-07
-1.66078e-06
5.19227e-08
1.3953e-07
-1.74543e-06
6.63065e-08
1.56678e-07
-1.81074e-06
8.42594e-08
1.66616e-07
-1.86107e-06
1.05721e-07
1.66901e-07
-1.89929e-06
1.30144e-07
1.55571e-07
-1.92754e-06
1.56338e-07
1.31635e-07
-1.94756e-06
1.82391e-07
9.5628e-08
-1.96082e-06
2.05793e-07
4.9954e-08
-1.96874e-06
2.23722e-07
-1.15234e-09
-1.97231e-06
2.33496e-07
-5.22362e-08
-1.97223e-06
2.33511e-07
-9.78556e-08
-1.96846e-06
2.23722e-07
-1.3374e-07
-1.96034e-06
2.05761e-07
-1.57534e-07
-1.94686e-06
1.8236e-07
-1.68701e-07
-1.9267e-06
1.5632e-07
-1.68231e-07
-1.89827e-06
1.30143e-07
-1.58096e-07
-1.85994e-06
1.05743e-07
-1.40738e-07
-1.80954e-06
8.431e-08
-1.18658e-07
-1.74414e-06
6.63834e-08
-9.41513e-08
-1.65951e-06
5.20221e-08
-6.92335e-08
-1.54877e-06
4.08806e-08
-4.5639e-08
-1.40111e-06
3.23462e-08
-2.48512e-08
-1.19789e-06
2.5348e-08
-8.58846e-09
-9.03561e-07
1.82915e-08
-4.36633e-07
8.59962e-09
3.72922e-09
-4.44362e-07
3.72397e-09
1.07423e-08
-9.18956e-07
7.70907e-09
2.00006e-08
-1.21893e-06
1.08444e-08
3.1103e-08
-1.42799e-06
1.46512e-08
4.36316e-08
-1.58259e-06
2.00407e-08
5.69712e-08
-1.70183e-06
2.77065e-08
7.01094e-08
-1.79674e-06
3.81725e-08
8.17082e-08
-1.87401e-06
5.16706e-08
9.00337e-08
-1.93765e-06
6.82554e-08
9.31496e-08
-1.98998e-06
8.75753e-08
8.93381e-08
-2.03244e-06
1.08717e-07
7.73461e-08
-2.06579e-06
1.30222e-07
5.71347e-08
-2.0905e-06
1.49894e-07
3.00013e-08
-2.10683e-06
1.65222e-07
-1.13043e-09
-2.11491e-06
1.73736e-07
-3.22351e-08
-2.11485e-06
1.73722e-07
-5.92955e-08
-2.10658e-06
1.65183e-07
-7.93836e-08
-2.09009e-06
1.49836e-07
-9.12079e-08
-2.06522e-06
1.30185e-07
-9.48547e-08
-2.03173e-06
1.08678e-07
-9.15245e-08
-1.98913e-06
8.75256e-08
-8.29905e-08
-1.9367e-06
6.8224e-08
-7.11898e-08
-1.873e-06
5.16629e-08
-5.78201e-08
-1.7957e-06
3.81873e-08
-4.42921e-08
-1.70078e-06
2.7741e-08
-3.15491e-08
-1.58161e-06
2.00934e-08
-2.02668e-08
-1.42711e-06
1.47158e-08
-1.08804e-08
-1.21819e-06
1.09155e-08
-3.75403e-09
-9.18461e-07
7.77464e-09
-4.44152e-07
3.76459e-09
-1.89394e-09
-4.40571e-07
-1.89737e-09
-5.47956e-09
-9.10909e-07
-4.46177e-09
-9.45052e-09
-1.20909e-06
-5.8677e-09
-1.27555e-08
-1.41873e-06
-5.95901e-09
-1.46113e-08
-1.57616e-06
-4.57844e-09
-1.44492e-08
-1.70046e-06
-1.53154e-09
-1.20951e-08
-1.80253e-06
3.43402e-09
-7.76226e-09
-1.88887e-06
1.05276e-08
-2.19303e-09
-1.96302e-06
1.98027e-08
3.55704e-09
-2.0269e-06
3.11734e-08
8.10561e-09
-2.08117e-06
4.41777e-08
1.02158e-08
-2.12576e-06
5.78584e-08
9.13474e-09
-2.16012e-06
7.07006e-08
4.96165e-09
-2.18359e-06
8.09329e-08
-1.11202e-09
-2.1955e-06
8.66629e-08
-7.15194e-09
-2.19542e-06
8.66145e-08
-1.12229e-08
-2.18336e-06
8.08512e-08
-1.21911e-08
-2.15974e-06
7.06193e-08
-9.92974e-09
-2.12522e-06
5.77362e-08
-5.1873e-09
-2.08053e-06
4.40525e-08
7.6898e-10
-2.02616e-06
3.1082e-08
6.56834e-09
-1.96222e-06
1.97272e-08
1.11053e-08
-1.88801e-06
1.04698e-08
1.36881e-08
-1.80168e-06
3.39852e-09
1.40558e-08
-1.6996e-06
-1.54563e-09
1.23753e-08
-1.57535e-06
-4.5752e-09
9.23181e-09
-1.41803e-06
-5.93794e-09
5.40262e-09
-1.20853e-06
-5.83267e-09
1.87568e-09
-9.10514e-07
-4.42029e-09
-4.40411e-07
-1.86536e-09
-8.06901e-09
-4.2443e-07
-8.07181e-09
-2.32454e-08
-8.77928e-07
-1.78045e-08
-4.16439e-08
-1.16649e-06
-2.42049e-08
-6.07814e-08
-1.37094e-06
-2.86547e-08
-7.85557e-08
-1.52649e-06
-3.18928e-08
-9.31823e-08
-1.65151e-06
-3.43263e-08
-1.03132e-07
-1.75653e-06
-3.60549e-08
-1.07406e-07
-1.8476e-06
-3.69943e-08
-1.05477e-07
-1.92799e-06
-3.69599e-08
-9.74632e-08
-1.99911e-06
-3.58056e-08
-8.40746e-08
-2.06101e-06
-3.35454e-08
-6.64501e-08
-2.11298e-06
-3.03976e-08
-4.59424e-08
-2.15376e-06
-2.68668e-08
-2.38334e-08
-2.182e-06
-2.3696e-08
-1.08773e-09
-2.19647e-06
-2.1776e-08
2.16852e-08
-2.1964e-06
-2.18005e-08
4.38651e-08
-2.18178e-06
-2.37598e-08
6.45264e-08
-2.15344e-06
-2.69629e-08
8.23178e-08
-2.1125e-06
-3.05135e-08
9.59021e-08
-2.06044e-06
-3.36668e-08
1.04127e-07
-1.99847e-06
-3.59242e-08
1.06261e-07
-1.92729e-06
-3.7067e-08
1.02219e-07
-1.84688e-06
-3.70849e-08
9.24677e-08
-1.7558e-06
-3.6126e-08
7.80422e-08
-1.6508e-06
-3.43761e-08
6.04571e-08
-1.52584e-06
-3.19222e-08
4.14696e-08
-1.37038e-06
-2.86636e-08
2.31639e-08
-1.16603e-06
-2.41955e-08
8.05706e-09
-8.77627e-07
-1.77802e-08
-4.24307e-07
-8.04653e-09
-1.43983e-08
-3.95629e-07
-1.44025e-08
-4.14301e-08
-8.19467e-07
-3.14296e-08
-7.46455e-08
-1.09035e-06
-4.29198e-08
-1.10054e-07
-1.2836e-06
-5.19327e-08
-1.44333e-07
-1.43205e-06
-6.01641e-08
-1.7441e-07
-1.55287e-06
-6.85571e-08
-1.97434e-07
-1.65592e-06
-7.75819e-08
-2.11017e-07
-1.7467e-06
-8.7325e-08
-2.13316e-07
-1.82812e-06
-9.75635e-08
-2.03343e-07
-1.90114e-06
-1.07939e-07
-1.8102e-07
-1.96548e-06
-1.17854e-07
-1.47332e-07
-2.02002e-06
-1.26647e-07
-1.0419e-07
-2.06313e-06
-1.33773e-07
-5.43553e-08
-2.09312e-06
-1.38718e-07
-1.05728e-09
-2.10852e-06
-1.4125e-07
5.22743e-08
-2.10845e-06
-1.41274e-07
1.02202e-07
-2.09295e-06
-1.38758e-07
1.45455e-07
-2.06284e-06
-1.33847e-07
1.79315e-07
-2.01959e-06
-1.26768e-07
2.01834e-07
-1.96498e-06
-1.17986e-07
2.12017e-07
-1.90058e-06
-1.08073e-07
2.0992e-07
-1.82751e-06
-9.7689e-08
1.96568e-07
-1.74609e-06
-8.74358e-08
1.73739e-07
-1.6553e-06
-7.76767e-08
1.43867e-07
-1.55229e-06
-6.86306e-08
1.0975e-07
-1.43151e-06
-6.02157e-08
7.44832e-08
-1.28315e-06
-5.19626e-08
4.13765e-08
-1.08999e-06
-4.29268e-08
1.43916e-08
-8.19227e-07
-3.14154e-08
-3.95535e-07
-1.43802e-08
-2.04387e-08
-3.54749e-07
-2.04416e-08
-5.87504e-08
-7.36769e-07
-4.43858e-08
-1.06053e-07
-9.82303e-07
-6.07459e-08
-1.57064e-07
-1.15846e-06
-7.41282e-08
-2.07277e-07
-1.29467e-06
-8.71634e-08
-2.52369e-07
-1.40636e-06
-1.01419e-07
-2.88236e-07
-1.50237e-06
-1.17685e-07
-3.11075e-07
-1.58768e-06
-1.36176e-07
-3.17765e-07
-1.66474e-06
-1.56699e-07
-3.06132e-07
-1.73425e-06
-1.78528e-07
-2.75336e-07
-1.79577e-06
-2.00509e-07
-2.26144e-07
-1.848e-06
-2.21216e-07
-1.61011e-07
-1.88935e-06
-2.38911e-07
-8.41321e-08
-1.91811e-06
-2.5189e-07
-1.01743e-09
-1.93287e-06
-2.58765e-07
8.21209e-08
-1.93281e-06
-2.58785e-07
1.59081e-07
-1.91793e-06
-2.51977e-07
2.24323e-07
-1.88906e-06
-2.39026e-07
2.73705e-07
-1.84764e-06
-2.2133e-07
3.04674e-07
-1.79531e-06
-2.00636e-07
3.165e-07
-1.73374e-06
-1.78658e-07
3.10032e-07
-1.66421e-06
-1.56828e-07
2.87383e-07
-1.58715e-06
-1.36296e-07
2.5173e-07
-1.50185e-06
-1.1779e-07
2.06817e-07
-1.40587e-06
-1.01506e-07
1.56771e-07
-1.29423e-06
-8.72314e-08
1.05905e-07
-1.15812e-06
-7.41589e-08
5.8689e-08
-9.82025e-07
-6.07503e-08
2.0434e-08
-7.36591e-07
-4.43801e-08
-3.54679e-07
-2.04225e-08
-2.56666e-08
-3.03413e-07
-2.56692e-08
-7.37156e-08
-6.33168e-07
-5.55524e-08
-1.33292e-07
-8.46689e-07
-7.60376e-08
-1.98005e-07
-1.00056e-06
-9.3185e-08
-2.62387e-07
-1.11984e-06
-1.10449e-07
-3.21009e-07
-1.21785e-06
-1.29889e-07
-3.68506e-07
-1.30227e-06
-1.52602e-07
-3.99834e-07
-1.37739e-06
-1.7896e-07
-4.1064e-07
-1.44531e-06
-2.08621e-07
-3.97692e-07
-1.5066e-06
-2.40596e-07
-3.59453e-07
-1.56073e-06
-2.73282e-07
-2.96414e-07
-1.60661e-06
-3.04428e-07
-2.11672e-07
-1.64277e-06
-3.3132e-07
-1.10685e-07
-1.66784e-06
-3.51261e-07
-9.64236e-10
-1.68064e-06
-3.61945e-07
1.0878e-07
-1.68059e-06
-3.61961e-07
2.09834e-07
-1.66768e-06
-3.51311e-07
2.94704e-07
-1.64253e-06
-3.31397e-07
3.57851e-07
-1.60626e-06
-3.04527e-07
3.96291e-07
-1.56035e-06
-2.734e-07
4.09432e-07
-1.50617e-06
-2.40717e-07
3.98836e-07
-1.44487e-06
-2.08746e-07
3.67708e-07
-1.37694e-06
-1.7908e-07
3.20398e-07
-1.30183e-06
-1.5271e-07
2.61968e-07
-1.21746e-06
-1.29981e-07
1.97753e-07
-1.1195e-06
-1.10523e-07
1.33155e-07
-1.00027e-06
-9.32522e-08
7.36687e-08
-8.46466e-07
-7.60732e-08
2.5664e-08
-6.33035e-07
-5.55515e-08
-3.03363e-07
-2.56518e-08
-2.95263e-08
-2.44362e-07
-2.95248e-08
-8.48346e-08
-5.14095e-07
-6.37647e-08
-1.5376e-07
-6.90505e-07
-8.72591e-08
-2.29185e-07
-8.17984e-07
-1.07152e-07
-3.04859e-07
-9.16592e-07
-1.27571e-07
-3.74441e-07
-9.9728e-07
-1.50991e-07
-4.31525e-07
-1.06647e-06
-1.78716e-07
-4.69977e-07
-1.12776e-06
-2.11183e-07
-4.8436e-07
-1.18295e-06
-2.47977e-07
-4.7056e-07
-1.23251e-06
-2.8789e-07
-4.26443e-07
-1.27603e-06
-3.28818e-07
-3.52457e-07
-1.31266e-06
-3.67941e-07
-2.52065e-07
-1.34132e-06
-4.01839e-07
-1.31825e-07
-1.36106e-06
-4.27013e-07
-9.00974e-10
-1.37112e-06
-4.40451e-07
1.30042e-07
-1.37107e-06
-4.40462e-07
2.50342e-07
-1.36093e-06
-4.27047e-07
3.50825e-07
-1.34111e-06
-4.019e-07
4.24955e-07
-1.31237e-06
-3.68017e-07
4.69232e-07
-1.27571e-06
-3.28916e-07
4.83212e-07
-1.23215e-06
-2.87993e-07
4.69008e-07
-1.18258e-06
-2.48086e-07
4.30771e-07
-1.12741e-06
-2.11292e-07
3.73858e-07
-1.06611e-06
-1.78816e-07
3.04452e-07
-9.96974e-07
-1.51082e-07
2.28922e-07
-9.16319e-07
-1.27647e-07
1.53623e-07
-8.17767e-07
-1.07206e-07
8.47948e-08
-6.9035e-07
-8.72875e-08
2.9521e-08
-5.13995e-07
-6.37664e-08
-2.44333e-07
-2.95096e-08
-3.14554e-08
-1.81448e-07
-3.14589e-08
-9.06423e-08
-3.87103e-07
-6.78043e-08
-1.64958e-07
-5.23485e-07
-9.27039e-08
-2.47089e-07
-6.21949e-07
-1.13905e-07
-3.30268e-07
-6.97448e-07
-1.35963e-07
-4.07451e-07
-7.58454e-07
-1.61644e-07
-4.71424e-07
-8.10091e-07
-1.92404e-07
-5.15129e-07
-8.5537e-07
-2.28683e-07
-5.32392e-07
-8.957e-07
-2.69985e-07
-5.18423e-07
-9.31575e-07
-3.14907e-07
-4.70672e-07
-9.62739e-07
-3.61038e-07
-3.89524e-07
-9.88682e-07
-4.05121e-07
-2.78803e-07
-1.00879e-06
-4.43256e-07
-1.45814e-07
-1.0225e-06
-4.71558e-07
-8.25351e-10
-1.02942e-06
-4.86684e-07
1.4418e-07
-1.02939e-06
-4.8669e-07
2.77221e-07
-1.02239e-06
-4.7158e-07
3.88037e-07
-1.00864e-06
-4.43287e-07
4.69299e-07
-9.88487e-07
-4.05148e-07
5.17175e-07
-9.62496e-07
-3.61092e-07
5.31309e-07
-9.31296e-07
-3.14991e-07
5.14238e-07
-8.95427e-07
-2.7008e-07
4.70693e-07
-8.55083e-07
-2.28781e-07
4.06917e-07
-8.09832e-07
-1.92497e-07
3.29892e-07
-7.58218e-07
-1.61732e-07
2.4685e-07
-6.97242e-07
-1.36035e-07
1.64841e-07
-6.21799e-07
-1.1396e-07
9.05969e-08
-5.23372e-07
-9.2734e-08
3.14559e-08
-3.87045e-07
-6.78087e-08
-1.81431e-07
-3.14455e-08
-3.09161e-08
-1.19615e-07
-3.09164e-08
-8.97482e-08
-2.61778e-07
-6.64931e-08
-1.64726e-07
-3.57835e-07
-9.06721e-08
-2.48772e-07
-4.26624e-07
-1.11278e-07
-3.34923e-07
-4.78279e-07
-1.33019e-07
-4.15668e-07
-5.18927e-07
-1.58782e-07
-4.83212e-07
-5.52454e-07
-1.90094e-07
-5.30019e-07
-5.81174e-07
-2.2739e-07
-5.49356e-07
-6.06268e-07
-2.70094e-07
-5.36103e-07
-6.28163e-07
-3.16665e-07
-4.87487e-07
-6.46829e-07
-3.64525e-07
-4.03884e-07
-6.62059e-07
-4.10226e-07
-2.89259e-07
-6.73645e-07
-4.49769e-07
-1.51284e-07
-6.81395e-07
-4.79075e-07
-7.38492e-10
-6.85265e-07
-4.94702e-07
1.4982e-07
-6.8524e-07
-4.94705e-07
2.87837e-07
-6.81321e-07
-4.79086e-07
4.02533e-07
-6.73525e-07
-4.49813e-07
4.86243e-07
-6.61907e-07
-4.1029e-07
5.34973e-07
-6.46642e-07
-3.64583e-07
5.48376e-07
-6.27967e-07
-3.16731e-07
5.29182e-07
-6.06061e-07
-2.70171e-07
4.8255e-07
-5.80979e-07
-2.27472e-07
4.15162e-07
-5.52268e-07
-1.90177e-07
3.34569e-07
-5.18763e-07
-1.58861e-07
2.48556e-07
-4.78143e-07
-1.33086e-07
1.64615e-07
-4.26525e-07
-1.11332e-07
8.97139e-08
-3.57768e-07
-9.07028e-08
3.09144e-08
-2.61746e-07
-6.65001e-08
-1.19611e-07
-3.0906e-08
-2.74008e-08
-6.48129e-08
-2.74013e-08
-8.10885e-08
-1.49376e-07
-5.87149e-08
-1.5142e-07
-2.07946e-07
-7.95577e-08
-2.32019e-07
-2.48857e-07
-9.71686e-08
-3.15963e-07