/*--------------------------------*- C++ -*----------------------------------*\
| =========                 |                                                 |
| \\      /  F ield         | OpenFOAM: The Open Source CFD Toolbox           |
|  \\    /   O peration     | Version:  v1906                                 |
|   \\  /    A nd           | Web:      www.OpenFOAM.com                      |
|    \\/     M anipulation  |                                                 |
\*---------------------------------------------------------------------------*/
FoamFile
{
    version     2.0;
    format      ascii;
    class       volVectorField;
    location    "93.2/oil";
    object      U;
}
// * * * * * * * * * * * * * * * * * * * * * * * * * * * * * * * * * * * * * //

dimensions      [0 1 -1 0 0 0 0];


internalField   nonuniform List<vector> 
27760
(
(-2.50321e-05 -2.53804e-05 -2.50321e-05)
(-4.49753e-05 -1.62093e-05 -1.5391e-05)
(-4.67768e-06 -4.31368e-06 -4.33002e-06)
(-5.44622e-06 -8.25473e-07 -9.47665e-07)
(-1.20372e-06 -2.65437e-07 -4.10329e-07)
(-3.25517e-07 -9.17339e-08 -2.52383e-07)
(3.76452e-07 4.34231e-09 -1.69552e-07)
(7.42725e-07 4.77516e-08 -1.35573e-07)
(9.47403e-07 7.29098e-08 -1.16265e-07)
(1.02446e-06 8.91051e-08 -1.0283e-07)
(9.96586e-07 1.00635e-07 -9.17255e-08)
(8.77672e-07 1.09565e-07 -8.17087e-08)
(6.82731e-07 1.16205e-07 -7.34882e-08)
(4.29305e-07 1.20675e-07 -6.75492e-08)
(1.3866e-07 1.23031e-07 -6.43915e-08)
(-1.65531e-07 1.23177e-07 -6.42471e-08)
(-4.58868e-07 1.21155e-07 -6.70704e-08)
(-7.18318e-07 1.17177e-07 -7.25154e-08)
(-9.24191e-07 1.1139e-07 -7.98767e-08)
(-1.06192e-06 1.04067e-07 -8.82486e-08)
(-1.12324e-06 9.56249e-08 -9.62885e-08)
(-1.1063e-06 8.64196e-08 -1.02658e-07)
(-1.01685e-06 7.61946e-08 -1.0654e-07)
(-8.67536e-07 6.5553e-08 -1.06485e-07)
(-6.76529e-07 5.47718e-08 -1.01468e-07)
(-4.67287e-07 4.43619e-08 -9.08775e-08)
(-2.66919e-07 3.53654e-08 -7.49096e-08)
(-1.04385e-07 2.95976e-08 -5.50488e-08)
(-4.5653e-09 2.9075e-08 -3.50442e-08)
(1.48003e-08 2.89792e-08 -1.47771e-08)
(-1.54745e-05 -4.60071e-05 -1.54745e-05)
(-6.98811e-06 -7.55359e-06 -7.05e-06)
(-7.0975e-06 -7.47249e-06 -2.59698e-06)
(-3.22258e-06 -2.4148e-06 -8.45694e-07)
(-9.14728e-07 -1.42855e-06 -4.27319e-07)
(3.08478e-07 -7.87554e-07 -2.23576e-07)
(1.20163e-06 -4.88946e-07 -1.24527e-07)
(1.76076e-06 -3.07286e-07 -7.39637e-08)
(2.08465e-06 -1.80482e-07 -4.19334e-08)
(2.19443e-06 -7.89002e-08 -1.79251e-08)
(2.10878e-06 7.10447e-09 2.51218e-09)
(1.84559e-06 7.99546e-08 2.0196e-08)
(1.43017e-06 1.37984e-07 3.46447e-08)
(8.96939e-07 1.78883e-07 4.50437e-08)
(2.88325e-07 2.00411e-07 5.05258e-08)
(-3.47834e-07 2.01587e-07 5.07994e-08)
(-9.61754e-07 1.82683e-07 4.5941e-08)
(-1.50661e-06 1.45319e-07 3.6421e-08)
(-1.94237e-06 9.27404e-08 2.34243e-08)
(-2.23911e-06 2.91e-08 8.3815e-09)
(-2.37983e-06 -4.05521e-08 -7.01272e-09)
(-2.36174e-06 -1.10824e-07 -2.09753e-08)
(-2.19607e-06 -1.76607e-07 -3.16773e-08)
(-1.90752e-06 -2.32063e-07 -3.78165e-08)
(-1.53256e-06 -2.71324e-07 -3.83385e-08)
(-1.11657e-06 -2.87812e-07 -3.28966e-08)
(-7.10158e-07 -2.73767e-07 -2.23458e-08)
(-3.63869e-07 -2.20888e-07 -9.27197e-09)
(-1.19363e-07 -1.23932e-07 9.06312e-10)
(-3.70483e-09 -7.43682e-09 3.73939e-09)
(-4.367e-06 -5.66738e-06 -4.36699e-06)
(-7.2307e-06 -8.18259e-06 -2.61796e-06)
(-3.59235e-06 -4.99076e-06 -1.20658e-06)
(-1.83354e-06 -3.09965e-06 -5.76353e-07)
(-1.08491e-07 -2.28136e-06 -2.63175e-07)
(1.06865e-06 -1.74842e-06 -1.09147e-07)
(1.9704e-06 -1.42261e-06 -2.72258e-08)
(2.58058e-06 -1.17297e-06 1.99521e-08)
(2.93471e-06 -9.58803e-07 5.3005e-08)
(3.03479e-06 -7.6236e-07 7.96194e-08)
(2.88961e-06 -5.81936e-07 1.02913e-07)
(2.51584e-06 -4.22782e-07 1.23228e-07)
(1.94365e-06 -2.9291e-07 1.39858e-07)
(1.21676e-06 -2.00284e-07 1.51746e-07)
(3.90716e-07 -1.51219e-07 1.58141e-07)
(-4.71219e-07 -1.48773e-07 1.58453e-07)
(-1.30371e-06 -1.92473e-07 1.52755e-07)
(-2.04455e-06 -2.78178e-07 1.41818e-07)
(-2.64055e-06 -3.98012e-07 1.26688e-07)
(-3.05237e-06 -5.4141e-07 1.08962e-07)
(-3.25744e-06 -6.95793e-07 9.04309e-08)
(-3.25184e-06 -8.47418e-07 7.29285e-08)
(-3.05017e-06 -9.81875e-07 5.81411e-08)
(-2.68429e-06 -1.08475e-06 4.73704e-08)
(-2.20032e-06 -1.1411e-06 4.13811e-08)
(-1.65487e-06 -1.13535e-06 4.01207e-08)
(-1.10965e-06 -1.05084e-06 4.22922e-08)
(-6.24051e-07 -8.71048e-07 4.47158e-08)
(-2.49448e-07 -5.83099e-07 4.13781e-08)
(-2.2896e-08 -2.022e-07 2.29354e-08)
(-8.99679e-07 -6.54166e-06 -8.99675e-07)
(-1.95622e-06 -5.37766e-06 -7.9531e-07)
(-1.27355e-06 -4.81254e-06 -5.41486e-07)
(-2.83551e-07 -3.95689e-06 -2.63475e-07)
(9.08605e-07 -3.47244e-06 -9.61544e-08)
(1.91224e-06 -3.09194e-06 -4.1963e-10)
(2.74375e-06 -2.78485e-06 5.85221e-08)
(3.33961e-06 -2.49016e-06 9.8107e-08)
(3.68137e-06 -2.1939e-06 1.29365e-07)
(3.7494e-06 -1.89627e-06 1.56583e-07)
(3.54053e-06 -1.60891e-06 1.81272e-07)
(3.06795e-06 -1.34839e-06 2.03132e-07)
(2.36376e-06 -1.13251e-06 2.21138e-07)
(1.47805e-06 -9.77417e-07 2.34066e-07)
(4.75719e-07 -8.94911e-07 2.40964e-07)
(-5.6868e-07 -8.9123e-07 2.41276e-07)
(-1.57754e-06 -9.65765e-07 2.35066e-07)
(-2.47718e-06 -1.11091e-06 2.2304e-07)
(-3.20454e-06 -1.31295e-06 2.06396e-07)
(-3.71289e-06 -1.55288e-06 1.86775e-07)
(-3.97543e-06 -1.80808e-06 1.66007e-07)
(-3.9873e-06 -2.05382e-06 1.45923e-07)
(-3.76518e-06 -2.26437e-06 1.28128e-07)
(-3.34538e-06 -2.41387e-06 1.13844e-07)
(-2.78016e-06 -2.47629e-06 1.03645e-07)
(-2.13283e-06 -2.42546e-06 9.72614e-08)
(-1.47195e-06 -2.23442e-06 9.31988e-08)
(-8.6303e-07 -1.87574e-06 8.7864e-08)
(-3.68113e-07 -1.3201e-06 7.46194e-08)
(-3.92668e-08 -5.40575e-07 3.93119e-08)
(-2.91468e-07 -2.81305e-06 -2.91466e-07)
(-7.55476e-07 -4.40037e-06 -3.15279e-07)
(-1.21588e-07 -4.96549e-06 -1.91018e-07)
(7.26055e-07 -4.9835e-06 -6.46e-08)
(1.73651e-06 -4.91488e-06 2.45206e-08)
(2.67221e-06 -4.74157e-06 8.32265e-08)
(3.47266e-06 -4.49715e-06 1.25378e-07)
(4.05854e-06 -4.18234e-06 1.58631e-07)
(4.38431e-06 -3.81431e-06 1.88268e-07)
(4.41691e-06 -3.4159e-06 2.16086e-07)
(4.14473e-06 -3.01598e-06 2.42265e-07)
(3.57833e-06 -2.64572e-06 2.65861e-07)
(2.75149e-06 -2.33533e-06 2.85451e-07)
(1.71965e-06 -2.11093e-06 2.99581e-07)
(5.55977e-07 -1.9915e-06 3.07099e-07)
(-6.54897e-07 -1.98684e-06 3.07386e-07)
(-1.82454e-06 -2.09629e-06 3.00497e-07)
(-2.86896e-06 -2.30862e-06 2.87159e-07)
(-3.71628e-06 -2.60293e-06 2.68709e-07)
(-4.31322e-06 -2.95042e-06 2.46891e-07)
(-4.62932e-06 -3.31679e-06 2.23651e-07)
(-4.65882e-06 -3.66456e-06 2.00906e-07)
(-4.41995e-06 -3.95488e-06 1.80284e-07)
(-3.95258e-06 -4.14903e-06 1.62979e-07)
(-3.31383e-06 -4.20869e-06 1.49496e-07)
(-2.57251e-06 -4.09575e-06 1.39445e-07)
(-1.80327e-06 -3.77109e-06 1.31202e-07)
(-1.07827e-06 -3.19204e-06 1.20765e-07)
(-4.71709e-07 -2.30228e-06 1.00696e-07)
(-5.2507e-08 -1.00421e-06 5.25611e-08)
(-9.76135e-08 -2.63198e-06 -9.76068e-08)
(6.4601e-09 -4.75593e-06 -7.35489e-08)
(6.37126e-07 -5.92444e-06 -8.60619e-09)
(1.47498e-06 -6.48271e-06 5.47332e-08)
(2.44054e-06 -6.73195e-06 1.05266e-07)
(3.36908e-06 -6.73401e-06 1.43894e-07)
(4.17197e-06 -6.55091e-06 1.7665e-07)
(4.76197e-06 -6.21981e-06 2.06815e-07)
(5.07814e-06 -5.78242e-06 2.36591e-07)
(5.07817e-06 -5.28237e-06 2.66228e-07)
(4.74446e-06 -4.76627e-06 2.94955e-07)
(4.08572e-06 -4.2811e-06 3.21237e-07)
(3.13768e-06 -3.87088e-06 3.43226e-07)
(1.96121e-06 -3.57294e-06 3.59133e-07)
(6.37819e-07 -3.41432e-06 3.67585e-07)
(-7.37761e-07 -3.40902e-06 3.67841e-07)
(-2.06623e-06 -3.55636e-06 3.59939e-07)
(-3.25322e-06 -3.84104e-06 3.447e-07)
(-4.21806e-06 -4.23428e-06 3.23633e-07)
(-4.90102e-06 -4.69644e-06 2.98714e-07)
(-5.26819e-06 -5.18043e-06 2.7213e-07)
(-5.31294e-06 -5.63473e-06 2.45981e-07)
(-5.05527e-06 -6.0063e-06 2.22021e-07)
(-4.5387e-06 -6.24256e-06 2.01531e-07)
(-3.82518e-06 -6.29179e-06 1.85033e-07)
(-2.98933e-06 -6.10265e-06 1.72076e-07)
(-2.11261e-06 -5.62139e-06 1.60892e-07)
(-1.27499e-06 -4.78512e-06 1.47013e-07)
(-5.63492e-07 -3.50022e-06 1.22021e-07)
(-6.358e-08 -1.57562e-06 6.36478e-08)
(6.29252e-09 -2.75684e-06 6.31022e-09)
(3.72772e-07 -5.61282e-06 4.94916e-08)
(1.10517e-06 -7.34784e-06 9.23757e-08)
(2.02239e-06 -8.35607e-06 1.29538e-07)
(3.03253e-06 -8.89029e-06 1.61743e-07)
(4.00614e-06 -9.05493e-06 1.90565e-07)
(4.84548e-06 -8.93361e-06 2.19238e-07)
(5.45929e-06 -8.58988e-06 2.49195e-07)
(5.77764e-06 -8.08652e-06 2.81032e-07)
(5.75167e-06 -7.48644e-06 3.14035e-07)
(5.35941e-06 -6.85391e-06 3.46688e-07)
(4.60852e-06 -6.25228e-06 3.76899e-07)
(3.53713e-06 -5.74005e-06 4.02326e-07)
(2.21216e-06 -5.36666e-06 4.20753e-07)
(7.24054e-07 -5.1679e-06 4.30519e-07)
(-8.21525e-07 -5.16226e-06 4.30739e-07)
(-2.31368e-06 -5.3492e-06 4.2144e-07)
(-3.64694e-06 -5.70896e-06 4.03562e-07)
(-4.73128e-06 -6.20443e-06 3.78856e-07)
(-5.50034e-06 -6.78435e-06 3.49664e-07)
(-5.91665e-06 -7.38795e-06 3.18519e-07)
(-5.97317e-06 -7.94902e-06 2.8783e-07)
(-5.69216e-06 -8.39974e-06 2.59631e-07)
(-5.12132e-06 -8.67291e-06 2.35342e-07)
(-4.32828e-06 -8.70254e-06 2.15575e-07)
(-3.39429e-06 -8.42259e-06 1.99838e-07)
(-2.40854e-06 -7.76204e-06 1.86207e-07)
(-1.45978e-06 -6.63291e-06 1.69688e-07)
(-6.47825e-07 -4.89464e-06 1.40719e-07)
(-7.34172e-08 -2.24352e-06 7.35047e-08)
(5.18831e-08 -3.28247e-06 5.19156e-08)
(5.88568e-07 -6.91032e-06 1.13652e-07)
(1.43617e-06 -9.18705e-06 1.51108e-07)
(2.45942e-06 -1.0596e-05 1.78844e-07)
(3.55341e-06 -1.13928e-05 2.03726e-07)
(4.60187e-06 -1.17109e-05 2.29218e-07)
(5.501e-06 -1.16522e-05 2.57742e-07)
(6.15521e-06 -1.13007e-05 2.90086e-07)
(6.48731e-06 -1.07372e-05 3.25984e-07)
(6.44269e-06 -1.00421e-05 3.6411e-07)
(5.99549e-06 -9.29688e-06 4.02318e-07)
(5.15249e-06 -8.58097e-06 4.37886e-07)
(3.95465e-06 -7.96784e-06 4.67922e-07)
(2.47549e-06 -7.51952e-06 4.89714e-07)
(8.1536e-07 -7.28087e-06 5.01232e-07)
(-9.081e-07 -7.2752e-06 5.01411e-07)
(-2.57128e-06 -7.50206e-06 4.90268e-07)
(-4.0566e-06 -7.93711e-06 4.68912e-07)
(-5.26383e-06 -8.53437e-06 4.39428e-07)
(-6.11961e-06 -9.23055e-06 4.04615e-07)
(-6.58312e-06 -9.95081e-06 3.67461e-07)
(-6.64738e-06 -1.06138e-05 3.30856e-07)
(-6.33764e-06 -1.11365e-05 2.9722e-07)
(-5.7066e-06 -1.14368e-05 2.68192e-07)
(-4.82867e-06 -1.14339e-05 2.44528e-07)
(-3.79261e-06 -1.10456e-05 2.25701e-07)
(-2.69611e-06 -1.01811e-05 2.0963e-07)
(-1.63716e-06 -8.72265e-06 1.90722e-07)
(-7.27815e-07 -6.47413e-06 1.58185e-07)
(-8.2662e-08 -3.0016e-06 8.27735e-08)
(7.72584e-08 -4.00489e-06 7.73117e-08)
(7.30697e-07 -8.50315e-06 1.52895e-07)
(1.69023e-06 -1.13534e-05 1.90284e-07)
(2.82656e-06 -1.31638e-05 2.1533e-07)
(4.02211e-06 -1.42256e-05 2.38291e-07)
(5.16213e-06 -1.47024e-05 2.6418e-07)
(6.13649e-06 -1.47158e-05 2.95295e-07)
(6.84395e-06 -1.43681e-05 3.32195e-07)
(7.20023e-06 -1.37564e-05 3.74112e-07)
(7.14454e-06 -1.29774e-05 4.19177e-07)
(6.64696e-06 -1.21287e-05 4.64646e-07)
(5.7132e-06 -1.13058e-05 5.0713e-07)
(4.38709e-06 -1.05968e-05 5.4308e-07)
(2.74924e-06 -1.00767e-05 5.69158e-07)
(9.10782e-07 -9.79972e-06 5.82886e-07)
(-9.97557e-07 -9.79423e-06 5.83026e-07)
(-2.83816e-06 -1.00598e-05 5.69593e-07)
(-4.48023e-06 -1.05674e-05 5.43855e-07)
(-5.8127e-06 -1.12619e-05 5.08305e-07)
(-6.75491e-06 -1.20676e-05 4.6636e-07)
(-7.26273e-06 -1.28952e-05 4.21631e-07)
(-7.33004e-06 -1.36484e-05 3.77573e-07)
(-6.98606e-06 -1.42292e-05 3.37065e-07)
(-6.28962e-06 -1.45405e-05 3.02101e-07)
(-5.32273e-06 -1.44866e-05 2.73622e-07)
(-4.18234e-06 -1.3968e-05 2.51122e-07)
(-2.97507e-06 -1.28719e-05 2.32305e-07)
(-1.80802e-06 -1.10463e-05 2.10944e-07)
(-8.04611e-07 -8.23136e-06 1.75013e-07)
(-9.16172e-08 -3.84614e-06 9.17564e-08)
(9.31922e-08 -4.86892e-06 9.32714e-08)
(8.36059e-07 -1.03343e-05 1.79698e-07)
(1.89766e-06 -1.38026e-05 2.19216e-07)
(3.14344e-06 -1.60342e-05 2.44738e-07)
(4.44426e-06 -1.7377e-05 2.68734e-07)
(5.68189e-06 -1.80291e-05 2.9743e-07)
(6.73935e-06 -1.81335e-05 3.33273e-07)
(7.50847e-06 -1.78099e-05 3.76673e-07)
(7.89745e-06 -1.71707e-05 4.26583e-07)
(7.83876e-06 -1.63274e-05 4.8058e-07)
(7.29732e-06 -1.53924e-05 5.35257e-07)
(6.27707e-06 -1.44761e-05 5.86451e-07)
(4.82439e-06 -1.36815e-05 6.29785e-07)
(3.02714e-06 -1.30962e-05 6.61188e-07)
(1.00791e-06 -1.27842e-05 6.77685e-07)
(-1.08828e-06 -1.2779e-05 6.77785e-07)
(-3.10887e-06 -1.30804e-05 6.61498e-07)
(-4.90877e-06 -1.36542e-05 6.30326e-07)
(-6.36527e-06 -1.44358e-05 5.87287e-07)
(-7.39046e-06 -1.53372e-05 5.36505e-07)
(-7.93766e-06 -1.62548e-05 4.82328e-07)
(-8.00246e-06 -1.70778e-05 4.29001e-07)
(-7.61913e-06 -1.76939e-05 3.79994e-07)
(-6.8538e-06 -1.7992e-05 3.37735e-07)
(-5.79657e-06 -1.78611e-05 3.03357e-07)
(-4.55317e-06 -1.71846e-05 2.76389e-07)
(-3.23884e-06 -1.58256e-05 2.54365e-07)
(-1.96891e-06 -1.35939e-05 2.30398e-07)
(-8.77015e-07 -1.01583e-05 1.91146e-07)
(-1.00238e-07 -4.77366e-06 1.0041e-07)
(1.04577e-07 -5.83828e-06 1.04675e-07)
(9.17959e-07 -1.23593e-05 1.9974e-07)
(2.06733e-06 -1.64937e-05 2.41989e-07)
(3.41082e-06 -1.91763e-05 2.69405e-07)
(4.8101e-06 -2.08263e-05 2.96151e-07)
(6.14215e-06 -2.16806e-05 3.2934e-07)
(7.28327e-06 -2.19058e-05 3.71638e-07)
(8.11799e-06 -2.16381e-05 4.23429e-07)
(8.54655e-06 -2.10038e-05 4.83326e-07)
(8.49363e-06 -2.0127e-05 5.48397e-07)
(7.91786e-06 -1.91332e-05 6.14453e-07)
(6.82024e-06 -1.81464e-05 6.76389e-07)
(5.24881e-06 -1.72835e-05 7.28885e-07)
(3.29824e-06 -1.66445e-05 7.66912e-07)
(1.10292e-06 -1.6303e-05 7.86834e-07)
(-1.17707e-06 -1.62982e-05 7.86902e-07)
(-3.37308e-06 -1.66298e-05 7.67123e-07)
(-5.32494e-06 -1.72585e-05 7.29251e-07)
(-6.89822e-06 -1.81101e-05 6.76948e-07)
(-7.99817e-06 -1.90843e-05 6.1525e-07)
(-8.57646e-06 -2.0064e-05 5.49557e-07)
(-8.63164e-06 -2.09249e-05 4.84967e-07)
(-8.20452e-06 -2.1542e-05 4.2564e-07)
(-7.36941e-06 -2.17918e-05 3.74542e-07)
(-6.22504e-06 -2.15496e-05 3.33083e-07)
(-4.88543e-06 -2.06814e-05 3.00817e-07)
(-3.4736e-06 -1.9025e-05 2.75034e-07)
(-2.11184e-06 -1.63483e-05 2.4825e-07)
(-9.41681e-07 -1.22415e-05 2.05905e-07)
(-1.08166e-07 -5.77833e-06 1.08377e-07)
(1.12813e-07 -6.88868e-06 1.12949e-07)
(9.78537e-07 -1.45385e-05 2.14578e-07)
(2.19533e-06 -1.93823e-05 2.59447e-07)
(3.61612e-06 -2.25487e-05 2.89384e-07)
(5.0966e-06 -2.45384e-05 3.1986e-07)
(6.50999e-06 -2.56314e-05 3.58817e-07)
(7.72726e-06 -2.60185e-05 4.09104e-07)
(8.62637e-06 -2.5852e-05 4.71101e-07)
(9.09933e-06 -2.52694e-05 5.4313e-07)
(9.06235e-06 -2.4405e-05 6.21699e-07)
(8.46641e-06 -2.33941e-05 7.01752e-07)
(7.30777e-06 -2.23724e-05 7.77051e-07)
(5.63436e-06 -2.14687e-05 8.41024e-07)
(3.54661e-06 -2.07944e-05 8.87469e-07)
(1.19035e-06 -2.04327e-05 9.11787e-07)
(-1.25874e-06 -2.04283e-05 9.11821e-07)
(-3.61514e-06 -2.07811e-05 8.87558e-07)
(-5.7032e-06 -2.14461e-05 8.41187e-07)
(-7.37694e-06 -2.23401e-05 7.77346e-07)
(-8.53584e-06 -2.3351e-05 7.0221e-07)
(-9.1319e-06 -2.43502e-05 6.22427e-07)
(-9.16858e-06 -2.52023e-05 5.44186e-07)
(-8.69452e-06 -2.57724e-05 4.72539e-07)
(-7.79276e-06 -2.59265e-05 4.1099e-07)
(-6.57071e-06 -2.55285e-05 3.612e-07)
(-5.14966e-06 -2.4428e-05 3.22757e-07)
(-3.65847e-06 -2.24369e-05 2.92744e-07)
(-2.224e-06 -1.92785e-05 2.63072e-07)
(-9.92869e-07 -1.4457e-05 2.18044e-07)
(-1.14726e-07 -6.84913e-06 1.14977e-07)
(1.17952e-07 -7.99477e-06 1.18101e-07)
(1.01371e-06 -1.68235e-05 2.23696e-07)
(2.26891e-06 -2.24091e-05 2.70486e-07)
(3.73559e-06 -2.60896e-05 3.03092e-07)
(5.26787e-06 -2.84549e-05 3.37903e-07)
(6.73808e-06 -2.98307e-05 3.83449e-07)
(8.01431e-06 -3.04324e-05 4.42868e-07)
(8.96977e-06 -3.04268e-05 5.1658e-07)
(9.48909e-06 -2.99597e-05 6.02665e-07)
(9.47964e-06 -2.91717e-05 6.97073e-07)
(8.88335e-06 -2.82045e-05 7.9385e-07)
(7.68941e-06 -2.72005e-05 8.85484e-07)
(5.94325e-06 -2.62974e-05 9.63701e-07)
(3.74886e-06 -2.56163e-05 1.02074e-06)
(1.26224e-06 -2.52489e-05 1.05069e-06)
(-1.32564e-06 -2.52449e-05 1.05068e-06)
(-3.81198e-06 -2.56043e-05 1.02074e-06)
(-6.00581e-06 -2.62771e-05 9.63708e-07)
(-7.75107e-06 -2.71715e-05 8.85546e-07)
(-8.94376e-06 -2.81664e-05 7.94037e-07)
(-9.53854e-06 -2.91242e-05 6.97444e-07)
(-9.54607e-06 -2.99027e-05 6.03237e-07)
(-9.0241e-06 -3.03605e-05 5.17455e-07)
(-8.06482e-06 -3.03576e-05 4.44055e-07)
(-6.78328e-06 -2.97489e-05 3.84973e-07)
(-5.30593e-06 -2.83694e-05 3.39725e-07)
(-3.76482e-06 -2.60053e-05 3.05158e-07)
(-2.2879e-06 -2.2333e-05 2.72667e-07)
(-1.02266e-06 -1.67654e-05 2.25727e-07)
(-1.1899e-07 -7.96759e-06 1.19293e-07)
(1.19139e-07 -9.12473e-06 1.19334e-07)
(1.01546e-06 -1.915e-05 2.25496e-07)
(2.26915e-06 -2.54921e-05 2.73037e-07)
(3.73715e-06 -2.97088e-05 3.07926e-07)
(5.27748e-06 -3.24846e-05 3.47116e-07)
(6.76606e-06 -3.41921e-05 3.9954e-07)
(8.07204e-06 -3.50713e-05 4.68538e-07)
(9.06687e-06 -3.5301e-05 5.54778e-07)
(9.62998e-06 -3.5032e-05 6.5631e-07)
(9.66014e-06 -3.44056e-05 7.68632e-07)
(9.08962e-06 -3.35642e-05 8.84837e-07)
(7.89798e-06 -3.2652e-05 9.95917e-07)
(6.12452e-06 -3.181e-05 1.09161e-06)
(3.87333e-06 -3.11646e-05 1.16207e-06)
(1.30788e-06 -3.08133e-05 1.19934e-06)
(-1.36697e-06 -3.08096e-05 1.19931e-06)
(-3.9318e-06 -3.11536e-05 1.16199e-06)
(-6.18177e-06 -3.17916e-05 1.09149e-06)
(-7.95345e-06 -3.26261e-05 9.95792e-07)
(-9.14294e-06 -3.35306e-05 8.84784e-07)
(-9.71086e-06 -3.43644e-05 7.68781e-07)
(-9.67751e-06 -3.49833e-05 6.56625e-07)
(-9.11083e-06 -3.52456e-05 5.55309e-07)
(-8.11164e-06 -3.50099e-05 4.69268e-07)
(-6.80032e-06 -3.41265e-05 4.00467e-07)
(-5.30542e-06 -3.24175e-05 3.48241e-07)
(-3.75785e-06 -2.96442e-05 3.09221e-07)
(-2.2821e-06 -2.5435e-05 2.74405e-07)
(-1.02124e-06 -1.91073e-05 2.26739e-07)
(-1.19728e-07 -9.10528e-06 1.20073e-07)
(1.15194e-07 -1.02362e-05 1.15406e-07)
(9.73724e-07 -2.14319e-05 2.17588e-07)
(2.17342e-06 -2.85196e-05 2.64057e-07)
(3.58303e-06 -3.32809e-05 3.00292e-07)
(5.07151e-06 -3.64957e-05 3.43129e-07)
(6.52371e-06 -3.85842e-05 4.0164e-07)
(7.81534e-06 -3.98095e-05 4.7955e-07)
(8.82064e-06 -4.03596e-05 5.77774e-07)
(9.4174e-06 -4.03859e-05 6.94422e-07)
(9.49794e-06 -4.00256e-05 8.24844e-07)
(8.98442e-06 -3.94145e-05 9.61328e-07)
(7.84484e-06 -3.86906e-05 1.09345e-06)
(6.10891e-06 -3.79907e-05 1.20875e-06)
(3.87608e-06 -3.74396e-05 1.2947e-06)
(1.31219e-06 -3.7135e-05 1.34059e-06)
(-1.36771e-06 -3.71317e-05 1.34053e-06)
(-3.93072e-06 -3.74295e-05 1.29454e-06)
(-6.1619e-06 -3.7974e-05 1.20853e-06)
(-7.89537e-06 -3.86673e-05 1.09324e-06)
(-9.03192e-06 -3.93847e-05 9.61148e-07)
(-9.54208e-06 -3.99895e-05 8.24758e-07)
(-9.45785e-06 -4.03441e-05 6.94466e-07)
(-8.85701e-06 -4.03128e-05 5.77995e-07)
(-7.84712e-06 -3.97587e-05 4.79952e-07)
(-6.55035e-06 -3.85309e-05 4.02211e-07)
(-5.09251e-06 -3.64423e-05 3.43829e-07)
(-3.598e-06 -3.32302e-05 3.0108e-07)
(-2.18244e-06 -2.84756e-05 2.64909e-07)
(-9.77529e-07 -2.13995e-05 2.18385e-07)
(-1.15514e-07 -1.02217e-05 1.15905e-07)
(1.04775e-07 -1.12751e-05 1.05004e-07)
(8.77858e-07 -2.35588e-05 1.97478e-07)
(1.95834e-06 -3.13479e-05 2.40444e-07)
(3.23471e-06 -3.66407e-05 2.76331e-07)
(4.59478e-06 -4.03097e-05 3.21136e-07)
(5.93865e-06 -4.28206e-05 3.83687e-07)
(7.15528e-06 -4.44576e-05 4.67897e-07)
(8.12772e-06 -4.54152e-05 5.7509e-07)
(8.73717e-06 -4.58408e-05 7.03807e-07)
(8.87367e-06 -4.58619e-05 8.49568e-07)
(8.45127e-06 -4.56e-05 1.00422e-06)
(7.42582e-06 -4.51777e-05 1.15604e-06)
(5.81361e-06 -4.47176e-05 1.29034e-06)
(3.70349e-06 -4.43331e-05 1.39184e-06)
(1.25667e-06 -4.41139e-05 1.44668e-06)
(-1.30912e-06 -4.41108e-05 1.44663e-06)
(-3.75485e-06 -4.43239e-05 1.3917e-06)
(-5.86296e-06 -4.47026e-05 1.29011e-06)
(-7.47234e-06 -4.51567e-05 1.15575e-06)
(-8.49443e-06 -4.55735e-05 1.00396e-06)
(-8.91298e-06 -4.58304e-05 8.49416e-07)
(-8.7723e-06 -4.58049e-05 7.03756e-07)
(-8.15843e-06 -4.53753e-05 5.7514e-07)
(-7.18138e-06 -4.44149e-05 4.6808e-07)
(-5.95989e-06 -4.27765e-05 3.83999e-07)
(-4.61101e-06 -4.02662e-05 3.21565e-07)
(-3.24589e-06 -3.66001e-05 2.76849e-07)
(-1.96481e-06 -3.13133e-05 2.40991e-07)
(-8.80436e-07 -2.35335e-05 1.98018e-07)
(-1.04931e-07 -1.1264e-05 1.05363e-07)
(8.66308e-08 -1.21758e-05 8.68619e-08)
(7.18786e-07 -2.53978e-05 1.62819e-07)
(1.60422e-06 -3.38026e-05 1.99161e-07)
(2.65959e-06 -3.95844e-05 2.32262e-07)
(3.79981e-06 -4.37001e-05 2.76114e-07)
(4.94731e-06 -4.66563e-05 3.3877e-07)
(6.01145e-06 -4.87549e-05 4.24251e-07)
(6.89166e-06 -5.0194e-05 5.34284e-07)
(7.47996e-06 -5.11132e-05 6.67947e-07)
(7.67006e-06 -5.16241e-05 8.21114e-07)
(7.37208e-06 -5.18269e-05 9.85761e-07)
(6.53117e-06 -5.18196e-05 1.14967e-06)
(5.14843e-06 -5.16995e-05 1.29662e-06)
(3.2959e-06 -5.15567e-05 1.40896e-06)
(1.1204e-06 -5.1463e-05 1.47028e-06)
(-1.17026e-06 -5.14604e-05 1.4702e-06)
(-3.34463e-06 -5.15486e-05 1.4088e-06)
(-5.1949e-06 -5.16861e-05 1.29635e-06)
(-6.57447e-06 -5.1801e-05 1.14939e-06)
(-7.41167e-06 -5.18036e-05 9.85463e-07)
(-7.70548e-06 -5.15965e-05 8.20877e-07)
(-7.51105e-06 -5.10819e-05 6.6775e-07)
(-6.91824e-06 -5.01598e-05 5.34199e-07)
(-6.03345e-06 -4.87188e-05 4.2429e-07)
(-4.96474e-06 -4.66194e-05 3.38897e-07)
(-3.81273e-06 -4.36642e-05 2.76339e-07)
(-2.66816e-06 -3.95512e-05 2.32563e-07)
(-1.60894e-06 -3.37745e-05 1.99497e-07)
(-7.20525e-07 -2.53775e-05 1.63191e-07)
(-8.66815e-08 -1.21669e-05 8.71489e-08)
(5.99734e-08 -1.28635e-05 6.0242e-08)
(4.91234e-07 -2.67986e-05 1.12204e-07)
(1.09989e-06 -3.56857e-05 1.38364e-07)
(1.83914e-06 -4.18783e-05 1.65524e-07)
(2.65888e-06 -4.64015e-05 2.04413e-07)
(3.51094e-06 -4.97955e-05 2.61656e-07)
(4.33271e-06 -5.23751e-05 3.40917e-07)
(5.04809e-06 -5.43378e-05 4.44291e-07)
(5.56866e-06 -5.58125e-05 5.71529e-07)
(5.80012e-06 -5.68907e-05 7.19329e-07)
(5.65583e-06 -5.76451e-05 8.80329e-07)
(5.07436e-06 -5.81404e-05 1.04264e-06)
(4.04092e-06 -5.84394e-05 1.1898e-06)
(2.60496e-06 -5.85988e-05 1.30341e-06)
(8.8643e-07 -5.86643e-05 1.36587e-06)
(-9.33967e-07 -5.86623e-05 1.36581e-06)
(-2.65123e-06 -5.85921e-05 1.30326e-06)
(-4.08476e-06 -5.84276e-05 1.18951e-06)
(-5.11493e-06 -5.81242e-05 1.04229e-06)
(-5.69261e-06 -5.76246e-05 8.79931e-07)
(-5.83259e-06 -5.68664e-05 7.1902e-07)
(-5.59667e-06 -5.57851e-05 5.71263e-07)
(-5.07158e-06 -5.43081e-05 4.44137e-07)
(-4.35172e-06 -5.23441e-05 3.40855e-07)
(-3.5256e-06 -4.97641e-05 2.61653e-07)
(-2.66943e-06 -4.63713e-05 2.04506e-07)
(-1.84592e-06 -4.18507e-05 1.65686e-07)
(-1.10347e-06 -3.56625e-05 1.38622e-07)
(-4.92459e-07 -2.6782e-05 1.12481e-07)
(-5.99818e-08 -1.28563e-05 6.0476e-08)
(2.4842e-08 -1.32612e-05 2.50798e-08)
(1.96362e-07 -2.76066e-05 4.5547e-08)
(4.48147e-07 -3.67922e-05 5.77817e-08)
(7.77169e-07 -4.32765e-05 7.53576e-08)
(1.1757e-06 -4.8129e-05 1.04454e-07)
(1.63072e-06 -5.19117e-05 1.4937e-07)
(2.11535e-06 -5.49469e-05 2.13249e-07)
(2.5865e-06 -5.74276e-05 2.98109e-07)
(2.98451e-06 -5.94683e-05 4.0432e-07)
(3.23716e-06 -6.11371e-05 5.29759e-07)
(3.26955e-06 -6.24754e-05 6.68308e-07)
(3.01976e-06 -6.35107e-05 8.09942e-07)
(2.45857e-06 -6.42646e-05 9.39774e-07)
(1.60727e-06 -6.47546e-05 1.04093e-06)
(5.4618e-07 -6.49948e-05 1.09692e-06)
(-5.91526e-07 -6.49928e-05 1.09684e-06)
(-1.65121e-06 -6.47482e-05 1.04071e-06)
(-2.50007e-06 -6.42538e-05 9.39406e-07)
(-3.05796e-06 -6.34962e-05 8.09527e-07)
(-3.30373e-06 -6.24569e-05 6.67877e-07)
(-3.26705e-06 -6.11155e-05 5.29337e-07)
(-3.01003e-06 -5.9444e-05 4.03972e-07)
(-2.60762e-06 -5.74016e-05 2.97811e-07)
(-2.13216e-06 -5.49199e-05 2.13067e-07)
(-1.64341e-06 -5.18846e-05 1.4928e-07)
(-1.18461e-06 -4.81031e-05 1.04406e-07)
(-7.82752e-07 -4.32529e-05 7.5414e-08)
(-4.50948e-07 -3.67726e-05 5.79256e-08)
(-1.97192e-07 -2.75926e-05 4.57479e-08)
(-2.47844e-08 -1.32551e-05 2.52946e-08)
(-1.78966e-08 -1.32962e-05 -1.76416e-08)
(-1.56768e-07 -2.76773e-05 -3.52198e-08)
(-3.30271e-07 -3.69305e-05 -4.03181e-08)
(-4.92855e-07 -4.35465e-05 -3.60124e-08)
(-6.04525e-07 -4.86089e-05 -2.17651e-08)
(-6.38299e-07 -5.26853e-05 3.74201e-09)
(-5.79039e-07 -5.60977e-05 4.25432e-08)
(-4.2877e-07 -5.90307e-05 9.63955e-08)
(-2.08968e-07 -6.15825e-05 1.66262e-07)
(3.98705e-08 -6.37977e-05 2.51413e-07)
(2.64332e-07 -6.5685e-05 3.4812e-07)
(4.08969e-07 -6.72331e-05 4.49359e-07)
(4.32287e-07 -6.84218e-05 5.43849e-07)
(3.22292e-07 -6.92297e-05 6.18484e-07)
(1.06565e-07 -6.9638e-05 6.60156e-07)
(-1.49376e-07 -6.96359e-05 6.60029e-07)
(-3.63763e-07 -6.92235e-05 6.18205e-07)
(-4.71302e-07 -6.84119e-05 5.43446e-07)
(-4.44704e-07 -6.72194e-05 4.48868e-07)
(-2.96232e-07 -6.56678e-05 3.4764e-07)
(-6.76297e-08 -6.3778e-05 2.50944e-07)
(1.85465e-07 -6.15606e-05 1.65862e-07)
(4.09509e-07 -5.90073e-05 9.6055e-08)
(5.63835e-07 -5.60738e-05 4.23024e-08)
(6.26966e-07 -5.26615e-05 3.60071e-09)
(5.96742e-07 -4.85862e-05 -2.18279e-08)
(4.88151e-07 -4.35262e-05 -3.59894e-08)
(3.28024e-07 -3.69137e-05 -4.02265e-08)
(1.56153e-07 -2.76652e-05 -3.50512e-08)
(1.79679e-08 -1.32909e-05 -1.74528e-08)
(-6.59189e-08 -1.29115e-05 -6.57012e-08)
(-5.494e-07 -2.68979e-05 -1.26038e-07)
(-1.19458e-06 -3.59501e-05 -1.51107e-07)
(-1.90538e-06 -4.25022e-05 -1.63087e-07)
(-2.59141e-06 -4.76154e-05 -1.68105e-07)
(-3.18282e-06 -5.18452e-05 -1.68485e-07)
(-3.61809e-06 -5.55035e-05 -1.63756e-07)
(-3.85198e-06 -5.8763e-05 -1.52506e-07)
(-3.85979e-06 -6.1706e-05 -1.33088e-07)
(-3.64102e-06 -6.43535e-05 -1.04605e-07)
(-3.21886e-06 -6.66846e-05 -6.76759e-08)
(-2.63583e-06 -6.86538e-05 -2.51076e-08)
(-1.94332e-06 -7.0203e-05 1.75155e-08)
(-1.19007e-06 -7.12752e-05 5.28819e-08)
(-4.12002e-07 -7.18238e-05 7.32585e-08)
(3.72171e-07 -7.18218e-05 7.3141e-08)
(1.1515e-06 -7.12695e-05 5.25789e-08)
(1.90696e-06 -7.01937e-05 1.70515e-08)
(2.60253e-06 -6.86408e-05 -2.56011e-08)
(3.18921e-06 -6.66686e-05 -6.81606e-08)
(3.61528e-06 -6.43352e-05 -1.05111e-07)
(3.83799e-06 -6.1686e-05 -1.33528e-07)
(3.83416e-06 -5.87418e-05 -1.52828e-07)
(3.60413e-06 -5.5482e-05 -1.64043e-07)
(3.17245e-06 -5.18241e-05 -1.68667e-07)
(2.58437e-06 -4.75957e-05 -1.68169e-07)
(1.90122e-06 -4.24844e-05 -1.63092e-07)
(1.19264e-06 -3.59354e-05 -1.51039e-07)
(5.48933e-07 -2.68874e-05 -1.25867e-07)
(6.60177e-08 -1.29068e-05 -6.55053e-08)
(-1.1586e-07 -1.2076e-05 -1.15647e-07)
(-9.53614e-07 -2.52084e-05 -2.20397e-07)
(-2.0838e-06 -3.37687e-05 -2.66625e-07)
(-3.36213e-06 -4.00368e-05 -2.96849e-07)
(-4.64931e-06 -4.50106e-05 -3.24306e-07)
(-5.83246e-06 -4.9215e-05 -3.55291e-07)
(-6.80126e-06 -5.29429e-05 -3.9105e-07)
(-7.45935e-06 -5.63522e-05 -4.30854e-07)
(-7.7303e-06 -5.9509e-05 -4.72389e-07)
(-7.56594e-06 -6.24142e-05 -5.12771e-07)
(-6.95304e-06 -6.50247e-05 -5.49004e-07)
(-5.91538e-06 -6.72672e-05 -5.78432e-07)
(-4.51157e-06 -6.90551e-05 -5.99801e-07)
(-2.82925e-06 -7.03049e-05 -6.13004e-07)
(-9.74624e-07 -7.09481e-05 -6.19038e-07)
(9.38291e-07 -7.09462e-05 -6.19127e-07)
(2.79402e-06 -7.02994e-05 -6.13208e-07)
(4.47844e-06 -6.90461e-05 -6.00129e-07)
(5.88487e-06 -6.72547e-05 -5.78845e-07)
(6.92572e-06 -6.50095e-05 -5.49412e-07)
(7.54203e-06 -6.23969e-05 -5.13154e-07)
(7.70996e-06 -5.94902e-05 -4.72751e-07)
(7.44271e-06 -5.63329e-05 -4.31129e-07)
(6.78819e-06 -5.29235e-05 -3.91288e-07)
(5.82275e-06 -4.91962e-05 -3.55463e-07)
(4.64275e-06 -4.49932e-05 -3.24416e-07)
(3.35827e-06 -4.00214e-05 -2.9688e-07)
(2.08198e-06 -3.3756e-05 -2.6657e-07)
(9.53166e-07 -2.51993e-05 -2.20233e-07)
(1.15947e-07 -1.2072e-05 -1.15458e-07)
(-1.63044e-07 -1.07948e-05 -1.62857e-07)
(-1.33246e-06 -2.26209e-05 -3.09543e-07)
(-2.91897e-06 -3.03984e-05 -3.7622e-07)
(-4.73775e-06 -3.61539e-05 -4.24851e-07)
(-6.6058e-06 -4.07825e-05 -4.75719e-07)
(-8.36988e-06 -4.47591e-05 -5.39217e-07)
(-9.87191e-06 -4.83499e-05 -6.18387e-07)
(-1.09633e-05 -5.16955e-05 -7.13201e-07)
(-1.15137e-05 -5.48482e-05 -8.20921e-07)
(-1.1425e-05 -5.77957e-05 -9.36448e-07)
(-1.06431e-05 -6.04791e-05 -1.05271e-06)
(-9.16967e-06 -6.28092e-05 -1.1612e-06)
(-7.06845e-06 -6.46825e-05 -1.25304e-06)
(-4.4649e-06 -6.59991e-05 -1.31971e-06)
(-1.53648e-06 -6.66789e-05 -1.35472e-06)
(1.50453e-06 -6.66769e-05 -1.35479e-06)
(4.43372e-06 -6.59933e-05 -1.31991e-06)
(7.03878e-06 -6.46733e-05 -1.25329e-06)
(9.14209e-06 -6.2797e-05 -1.16149e-06)
(1.06181e-05 -6.04647e-05 -1.05303e-06)
(1.14029e-05 -5.77795e-05 -9.36734e-07)
(1.14948e-05 -5.4831e-05 -8.21182e-07)
(1.09476e-05 -5.1678e-05 -7.13446e-07)
(9.85941e-06 -4.83324e-05 -6.18581e-07)
(8.36058e-06 -4.47424e-05 -5.39359e-07)
(6.59944e-06 -4.07672e-05 -4.75811e-07)
(4.73395e-06 -3.61406e-05 -4.24821e-07)
(2.91729e-06 -3.03876e-05 -3.76137e-07)
(1.33206e-06 -2.26132e-05 -3.09384e-07)
(1.63135e-07 -1.07913e-05 -1.62667e-07)
(-2.01768e-07 -9.11851e-06 -2.01606e-07)
(-1.6426e-06 -1.92377e-05 -3.82637e-07)
(-3.60868e-06 -2.59685e-05 -4.66261e-07)
(-5.88776e-06 -3.09946e-05 -5.3091e-07)
(-8.26336e-06 -3.50737e-05 -6.03181e-07)
(-1.05469e-05 -3.86157e-05 -6.97156e-07)
(-1.25366e-05 -4.1854e-05 -8.17848e-07)
(-1.40345e-05 -4.49104e-05 -9.66025e-07)
(-1.48588e-05 -4.78265e-05 -1.13834e-06)
(-1.48616e-05 -5.05829e-05 -1.32755e-06)
(-1.39489e-05 -5.31155e-05 -1.5227e-06)
(-1.20992e-05 -5.53305e-05 -1.70929e-06)
(-9.3784e-06 -5.71208e-05 -1.87073e-06)
(-5.94578e-06 -5.83837e-05 -1.99026e-06)
(-2.04537e-06 -5.9037e-05 -2.05403e-06)
(2.01822e-06 -5.90351e-05 -2.05405e-06)
(5.91906e-06 -5.83782e-05 -1.99033e-06)
(9.35267e-06 -5.71122e-05 -1.87082e-06)
(1.20748e-05 -5.5319e-05 -1.70938e-06)
(1.39264e-05 -5.31021e-05 -1.5228e-06)
(1.48413e-05 -5.05681e-05 -1.32764e-06)
(1.4841e-05 -4.78109e-05 -1.13845e-06)
(1.40196e-05 -4.48947e-05 -9.66126e-07)
(1.25246e-05 -4.18387e-05 -8.1792e-07)
(1.05379e-05 -3.86014e-05 -6.97199e-07)
(8.25713e-06 -3.50607e-05 -6.03239e-07)
(5.88401e-06 -3.09833e-05 -5.30879e-07)
(3.60693e-06 -2.59593e-05 -4.66165e-07)
(1.64214e-06 -1.92313e-05 -3.82466e-07)
(2.0184e-07 -9.11572e-06 -2.01419e-07)
(-2.25421e-07 -7.15042e-06 -2.25277e-07)
(-1.83627e-06 -1.52618e-05 -4.26964e-07)
(-4.05532e-06 -2.07373e-05 -5.20554e-07)
(-6.66099e-06 -2.48523e-05 -5.95339e-07)
(-9.417e-06 -2.82034e-05 -6.82907e-07)
(-1.21068e-05 -3.11249e-05 -8.00424e-07)
(-1.44915e-05 -3.38129e-05 -9.54779e-07)
(-1.63306e-05 -3.63706e-05 -1.14743e-06)
(-1.73979e-05 -3.88322e-05 -1.3746e-06)
(-1.75021e-05 -4.11776e-05 -1.62721e-06)
(-1.65132e-05 -4.3347e-05 -1.89075e-06)
(-1.43882e-05 -4.52542e-05 -2.14541e-06)
(-1.11929e-05 -4.68016e-05 -2.36783e-06)
(-7.11295e-06 -4.78957e-05 -2.53372e-06)
(-2.44682e-06 -4.84625e-05 -2.62266e-06)
(2.42483e-06 -4.84608e-05 -2.62261e-06)
(7.09106e-06 -4.78907e-05 -2.53362e-06)
(1.11713e-05 -4.6794e-05 -2.36772e-06)