/*--------------------------------*- C++ -*----------------------------------*\
| =========                 |                                                 |
| \\      /  F ield         | OpenFOAM: The Open Source CFD Toolbox           |
|  \\    /   O peration     | Version:  v1906                                 |
|   \\  /    A nd           | Web:      www.OpenFOAM.com                      |
|    \\/     M anipulation  |                                                 |
\*---------------------------------------------------------------------------*/
FoamFile
{
    version     2.0;
    format      ascii;
    class       volScalarField;
    location    "36/sphere";
    object      T;
}
// * * * * * * * * * * * * * * * * * * * * * * * * * * * * * * * * * * * * * //

dimensions      [0 0 0 1 0 0 0];


internalField   nonuniform List<scalar> 
304
(
479.66
479.689
479.687
479.703
479.661
479.658
479.658
479.689
479.658
479.811
479.811
479.703
479.686
479.809
479.81
479.733
479.701
479.733
479.66
479.687
479.703
479.658
479.69
479.811
479.81
479.734
479.704
479.81
479.81
479.76
479.656
479.732
479.76
479.694
479.66
479.705
479.734
479.665
479.664
479.734
479.76
479.694
479.66
479.694
479.646
479.647
479.66
479.661
479.663
479.696
479.661
479.661
479.696
479.663
479.647
479.661
479.665
479.662
479.697
479.689
479.689
479.704
479.704
479.735
479.735
479.761
479.659
479.704
479.689
479.735
479.704
479.761
479.735
479.661
479.664
479.697
479.662
479.658
479.658
479.693
479.658
479.702
479.653
479.685
479.732
479.76
479.699
479.731
479.688
479.686
479.656
479.76
479.734
479.733
479.7
479.695
479.659
479.659
479.644
479.657
479.658
479.693
479.658
479.693
479.66
479.657
479.644
479.662
479.659
479.659
479.695
479.689
479.703
479.735
479.687
479.704
479.734
479.761
479.659
479.735
479.703
479.704
479.688
479.761
479.734
479.662
479.66
479.695
479.66
479.704
479.689
479.735
479.689
479.735
479.704
479.761
479.658
479.734
479.689
479.734
479.689
479.761
479.704
479.732
479.654
479.7
479.703
479.76
479.686
479.732
479.688
479.701
479.655
479.76
479.703
479.733
479.686
479.661
479.657
479.694
479.658
479.732
479.658
479.687
479.733
479.76
479.687
479.703
479.701
479.687
479.657
479.76
479.732
479.703
479.687
479.693
479.656
479.657
479.658
479.66
479.696
479.665
479.703
479.734
479.761
479.658
479.687
479.704
479.734
479.687
479.761
479.733
479.688
479.656
479.733
479.701
479.695
479.659
479.66
479.735
479.704
479.761
479.662
479.706
479.69
479.736
479.689
479.761
479.704
479.703
479.66
479.734
479.689
479.76
479.687
479.733
479.69
479.735
479.657
479.702
479.703
479.733
479.687
479.733
479.688
479.701
479.656
479.693
479.658
479.661
479.76
479.687
479.703
479.702
479.733
479.658
479.688
479.733
479.704
479.688
479.734
479.703
479.689
479.66
479.658
479.658
479.661
479.65
479.658
479.663
479.695
479.659
479.694
479.661
479.658
479.646
479.667
479.663
479.698
479.663
479.734
479.735
479.761
479.662
479.689
479.69
479.704
479.703
479.761
479.734
479.688
479.657
479.704
479.688
479.696
479.661
479.66
479.697
479.661
479.66
479.76
479.701
479.732
479.688
479.703
479.655
479.686
479.733
479.733
479.701
479.703
479.687
479.686
479.655
479.658
479.659
479.657
479.647
479.694
479.659
479.657
479.661
479.659
479.657
)
;

boundaryField
{
    sphere_to_oil
    {
        type            compressible::turbulentTemperatureCoupledBaffleMixed;
        refValue        nonuniform List<scalar> 
360
(
341.103
341.103
317.603
362.86
371.524
319.977
372.663
372.663
372.663
344.998
344.998
321.244
323.871
314.959
342.474
363.969
359.433
359.433
359.433
316.894
357.646
335.459
335.291
366.28
314.615
366.901
318.784
366.565
366.565
366.565
373.522
365.094
317.633
317.342
321.016
321.188
360.289
360.289
360.289
359.568
368.768
320.071
321.012
341.186
341.186
318.659
323.606
312.252
339.031
367.316
320.068
320.012
323.468
323.833
316.657
335.541
360.406
316.934
321.059
324.074
314.029
367.877
367.877
367.877
312.264
366.438
338.943
326.297
371.492
371.492
371.492
371.939
370.335
314.436
357.948
341.795
315.496
333.872
368.653
360.422
336.381
324.583
335.64
313.9
317.59
319.8
321.408
323.713
315.211
317.046
317.63
323.509
321.052
317.871
323.334
321.026
321.398
321.36
318.178
313.49
313.568
315.737
319.96
321.084
323.519
315.589
315.012
323.876
318.122
321.484
321.474
321.363
318.205
316.77
312.594
312.542
329.164
326.089
330.547
340.894
340.894
362.86
362.86
366.28
366.28
363.959
363.959
363.959
365.853
365.853
365.853
329.813
326.187
329.164
316.417
371.524
371.524
341.639
341.639
373.522
373.522
339.735
339.735
372.712
372.712
372.712
316.364
315.952
364.427
364.427
364.427
364.52
364.52
364.52
363.969
357.646
342.474
363.969
362.489
315.636
362.489
362.489
335.354
336.093
324.931
335.127
335.127
370.346
370.346
370.346
313.929
357.646
335.459
369.292
369.292
313.917
369.292
336.056
324.832
312.341
318.729
318.993
323.981
314.513
323.616
318.976
312.34
313.414
366.901
366.901
365.094
365.094
341.213
341.213
363.004
363.004
363.004
339.278
339.278
313.397
320.686
320.176
323.695
320.878
319.819
323.676
318.013
323.907
321.427
318.017
359.568
323.928
321.635
316.923
369.602
369.602
369.602
336.418
336.418
313.751
321.165
321.137
323.991
368.768
319.945
323.866
321.219
359.568
368.768
336.449
316.856
336.449
314.219
312.572
323.54
314.59
318.913
318.81
319.044
314.416
313.074
367.902
361.557
367.902
367.902
361.557
361.557
367.316
366.438
339.031
364.564
313.462
367.316
364.564
364.564
323.143
317.274
321.069
323.466
317.819
371.939
320.813
321.364
321.502
318.174
360.406
357.948
321.469
321.283
318.14
359.774
362.857
335.541
369.169
314.186
360.406
369.169
369.169
324.403
319.946
368.653
321.146
321.012
320.995
368.84
319.758
368.54
336.658
359.774
336.658
368.84
359.774
368.84
312.23
326.017
328.403
328.77
339.829
363.058
339.829
363.058
363.058
313.367
366.438
364.195
338.943
364.195
313.408
364.195
329.836
329.421
315.279
370.026
340.38
370.026
370.026
340.38
315.538
319.775
320.882
323.551
370.335
371.939
340.219
316.12
370.335
340.219
315.627
357.948
363.866
341.795
363.866
314.874
363.866
323.964
360.422
318.267
321.537
362.707
360.005
362.857
342.014
362.857
362.707
342.014
362.707
324.224
335.503
368.653
335.649
313.937
360.422
335.649
317.092
368.54
360.005
368.54
336.596
360.005
336.596
)
;
        refGradient     uniform 0;
        valueFraction   nonuniform List<scalar> 
360
(
0.000132975
0.000127571
8.16725e-05
0.000291769
0.000299235
0.000171585
0.000301095
0.00025845
0.000402287
0.000128085
0.000124881
0.000167532
0.000255326
7.30027e-05
0.000130591
0.000253857
0.000290914
0.000271816
0.000381419
6.68014e-05
0.000250435
0.000123115
0.000113469
0.000301113
8.74241e-05
0.000309509
0.000174465
0.000305512
0.000399821
0.000267453
0.000305562
0.000308194
8.27562e-05
8.18317e-05
0.000171728
0.000168997
0.000285963
0.000387679
0.000266213
0.000400275
0.000395386
8.44258e-05
0.00016746
0.000122219
0.000122073
0.000172387
0.000257909
6.88087e-05
0.000123121
0.000261075
0.000170058
0.000171162
0.000255135
0.000252656
7.13809e-05
0.000130582
0.000266292
6.8381e-05
0.000169402
0.000252616
6.69328e-05
0.000297392
0.000262526
0.000410881
6.90055e-05
0.000268423
0.000125207
0.000121101
0.000304263
0.000396923
0.000266999
0.00038276
0.000388118
7.41256e-05
0.000258783
0.000131281
6.83417e-05
0.000122547
0.000387296
0.000402333
0.000120195
0.000117928
0.00011583
6.88393e-05
8.30133e-05
0.0001683
0.000169242
0.0002563
7.73664e-05
6.53245e-05
8.21563e-05
0.000255882
0.000168922
8.39233e-05
0.00025546
0.000170851
0.000169839
0.000170101
8.29488e-05
6.64881e-05
6.74208e-05
6.65234e-05
0.000171019
0.000168088
0.000255689
7.52779e-05
6.53866e-05
0.000255503
8.11683e-05
0.000168353
0.000168385
0.00017182
8.40178e-05
6.72774e-05
6.5613e-05
6.68806e-05
0.000116416
0.000116555
0.000121084
0.000131297
0.000123401
0.000254978
0.000401673
0.000268637
0.000405367
0.00025984
0.000399486
0.00029744
0.00026005
0.00039079
0.000292931
0.000119482
0.000112993
0.000115734
6.38889e-05
0.000264968
0.000398942
0.000123431
0.000123995
0.000403166
0.000268057
0.000129391
0.000136372
0.000398204
0.00027355
0.00031521
7.03137e-05
6.54343e-05
0.000276187
0.000382724
0.000303367
0.000284369
0.000395975
0.000303335
0.000313185
0.000288482
0.000134944
0.000402224
0.000259814
7.24364e-05
0.000390936
0.000292549
0.000111643
0.000117621
0.000116361
0.000122755
0.000128318
0.000400211
0.000263517
0.000309313
7.41641e-05
0.000384988
0.00013201
0.000404823
0.000259154
7.24422e-05
0.000307279
0.000112634
0.000113679
6.64185e-05
0.000174092
0.000174023
0.000257321
8.58085e-05
0.00025771
0.000169569
6.57366e-05
6.38324e-05
0.000402701
0.000255872
0.000397974
0.000265333
0.000126563
0.00011836
0.00039983
0.000249889
0.000288848
0.000116994
0.00013575
6.82947e-05
0.000171031
0.000170877
0.000255304
0.000167165
0.000168026
0.000254299
8.7161e-05
0.00025517
0.000173015
8.47616e-05
0.00028721
0.000254888
0.000171978
6.8538e-05
0.000391093
0.000253539
0.000296642
0.000123585
0.000114847
6.63391e-05
0.000169701
0.000172555
0.000255847
0.000290884
8.13545e-05
0.00025342
0.000165508
0.000251743
0.000266506
0.000120976
6.79503e-05
0.000134242
6.87904e-05
6.47531e-05
0.000258704
8.63345e-05
0.000173922
0.000171911
0.000169862
8.52493e-05
6.51186e-05
0.000264511
0.000247853
0.000416091
0.000309717
0.000388189
0.000278914
0.000298946
0.000306079
0.000136051
0.000262577
7.07441e-05
0.000399577
0.00038853
0.0002952
0.000257474
8.20403e-05
0.000167532
0.000254514
8.27751e-05
0.00030327
0.000168258
0.00016946
0.000167899
8.22738e-05
0.000301009
0.000282071
0.000171299
0.00016687
8.38579e-05
0.000282627
0.000311097
0.000123376
0.000279263
6.63242e-05
0.000397866
0.000385731
0.000291463
0.000252625
8.29886e-05
0.000291921
0.000168092
0.000168351
0.000169309
0.00029351
8.37663e-05
0.000299881
0.000126184
0.000258555
0.000127236
0.000263474
0.000401516
0.000394173
6.62931e-05
0.000132845
0.000131276
0.0001284
0.000116931
0.000391211
0.000127712
0.000260081
0.000306259
6.5327e-05
0.00039503
0.000394553
0.000129162
0.000280536
6.84601e-05
0.000300756
0.00011451
0.000112493
6.84035e-05
0.000386911
0.000115632
0.000253741
0.000298841
0.000123969
6.75803e-05
0.000168157
0.0001681
0.000253659
0.000290247
0.000251749
0.000121716
6.55174e-05
0.000255965
0.000135185
7.5668e-05
0.000370932
0.000398307
0.000117718
0.000253016
7.01483e-05
0.000318206
0.000255603
0.000306244
8.3776e-05
0.00016888
0.000295257
0.000286246
0.000269295
0.000120367
0.000394475
0.000393626
0.000142885
0.000263117
0.000115765
0.000117541
0.000264887
0.000131124
7.08954e-05
0.000267899
0.000126261
6.54712e-05
0.000389908
0.00039459
0.000259627
0.000125997
0.000255027
0.000130152
)
;
        value           nonuniform List<scalar> 
360
(
479.662
479.663
479.667
479.646
479.648
479.681
479.647
479.653
479.641
479.661
479.661
479.68
479.683
479.669
479.663
479.651
479.638
479.644
479.633
479.667
479.648
479.66
479.647
479.644
479.664
479.643
479.681
479.645
479.637
479.649
479.646
479.643
479.665
479.664
479.679
479.681
479.64
479.634
479.645
479.632
479.636
479.664
479.681
479.661
479.663
479.679
479.683
479.667
479.661
479.649
479.682
479.681
479.684
479.684
479.664
479.657
479.644
479.667
479.68
479.684
479.667
479.645
479.649
479.637
479.668
479.649
479.662
479.647
479.649
479.644
479.654
479.643
479.642
479.672
479.652
479.666
479.667
479.649
479.637
479.632
479.649
479.648
479.65
479.667
479.668
479.681
479.681
479.683
479.664
479.666
479.666
479.684
479.682
479.664
479.684
479.681
479.68
479.679
479.662
479.669
479.669
479.67
479.682
479.682
479.684
479.669
479.667
479.683
479.66
479.679
479.682
479.679
479.662
479.666
479.67
479.669
479.65
479.649
479.649
479.662
479.664
479.651
479.636
479.65
479.637
479.65
479.637
479.645
479.651
479.638
479.646
479.649
479.65
479.65
479.671
479.653
479.642
479.664
479.665
479.642
479.653
479.663
479.663
479.642
479.652
479.644
479.67
479.667
479.646
479.634
479.638
479.645
479.632
479.639
479.64
479.641
479.661
479.632
479.649
479.668
479.633
479.641
479.648
479.647
479.646
479.659
479.659
479.635
479.649
479.644
479.665
479.633
479.658
479.635
479.649
479.665
479.643
479.648
479.646
479.667
479.681
479.68
479.684
479.665
479.684
479.681
479.669
479.669
479.636
479.65
479.636
479.649
479.661
479.663
479.635
479.651
479.644
479.663
479.661
479.669
479.681
479.681
479.684
479.683
479.682
479.684
479.66
479.684
479.679
479.662
479.641
479.683
479.679
479.666
479.638
479.65
479.645
479.659
479.661
479.667
479.681
479.68
479.683
479.645
479.664
479.684
479.681
479.646
479.647
479.659
479.665
479.658
479.666
479.667
479.683
479.664
479.68
479.68
479.68
479.662
479.669
479.649
479.651
479.638
479.643
479.639
479.649
479.642
479.641
479.66
479.649
479.667
479.635
479.635
479.646
479.684
479.668
479.684
479.684
479.666
479.647
479.682
479.68
479.683
479.664
479.641
479.643
479.68
479.681
479.662
479.642
479.639
479.66
479.647
479.667
479.633
479.638
479.646
479.684
479.665
479.646
479.681
479.682
479.682
479.648
479.667
479.647
479.66
479.647
479.66
479.649
479.633
479.638
479.667
479.65
479.651
479.651
479.662
479.637
479.661
479.649
479.646
479.668
479.636
479.635
479.66
479.646
479.667
479.643
479.649
479.649
479.671
479.645
479.666
479.655
479.649
479.665
479.672
479.682
479.683
479.684
479.646
479.654
479.664
479.671
479.652
479.661
479.667
479.636
479.635
479.663
479.65
479.668
479.638
479.683
479.638
479.661
479.68
479.641
479.641
479.647
479.662
479.633
479.633
479.658
479.646
479.649
479.65
479.649
479.66
479.667
479.645
479.659
479.667
479.638
479.634
479.65
479.661
479.647
479.658
)
;
        Tnbr            T;
        thicknessLayers 0();
        kappaLayers     0();
        kappaMethod     solidThermo;
        kappa           none;
        alphaAni        none;
    }
}


// ************************************************************************* //
