/*--------------------------------*- C++ -*----------------------------------*\
| =========                 |                                                 |
| \\      /  F ield         | OpenFOAM: The Open Source CFD Toolbox           |
|  \\    /   O peration     | Version:  v1906                                 |
|   \\  /    A nd           | Web:      www.OpenFOAM.com                      |
|    \\/     M anipulation  |                                                 |
\*---------------------------------------------------------------------------*/
FoamFile
{
    version     2.0;
    format      ascii;
    class       surfaceScalarField;
    location    "34";
    object      phi;
}
// * * * * * * * * * * * * * * * * * * * * * * * * * * * * * * * * * * * * * //

dimensions      [1 0 -1 0 0 0 0];
oriented        oriented;


internalField   nonuniform List<scalar> 
228225
(
0.000478852
5.29655e-05
0.00068354
0.000334997
-5.42334e-05
5.59119e-05
0.000282934
5.91002e-07
1.65674e-05
0.000288091
-2.62904e-05
2.13559e-06
0.000255547
1.01807e-05
2.63344e-06
0.000248256
-6.88943e-06
-3.5962e-06
0.000218342
1.13868e-05
-1.83933e-06
0.00016959
5.62826e-06
-3.38146e-06
0.000105438
1.6646e-05
-4.67328e-06
6.51016e-05
2.03856e-05
-5.2697e-06
4.29632e-05
2.31439e-05
-6.12697e-06
3.86076e-05
2.07885e-05
-5.9102e-06
3.98099e-05
1.98864e-05
-5.02396e-06
3.83429e-05
1.87542e-05
-4.70894e-06
3.27419e-05
1.8701e-05
-4.80071e-06
2.50386e-05
1.88591e-05
-5.133e-06
1.73267e-05
1.91632e-05
-5.27425e-06
9.29849e-06
1.94384e-05
-3.79756e-06
-7.97075e-06
1.35168e-05
5.52478e-06
-3.54122e-06
-7.25369e-06
1.32293e-05
-3.73901e-07
-1.04495e-05
6.68782e-06
3.76684e-06
-9.02887e-06
6.2781e-06
7.39545e-06
-8.41499e-06
5.95896e-06
1.07427e-05
-8.01901e-06
5.63439e-06
1.39517e-05
-7.70081e-06
5.32179e-06
1.70154e-05
-7.37541e-06
5.03225e-06
1.98521e-05
-6.99102e-06
4.77253e-06
2.23345e-05
-6.50424e-06
4.5504e-06
2.42791e-05
-5.87309e-06
4.37203e-06
2.54277e-05
-5.05314e-06
4.25181e-06
2.54428e-05
-3.99465e-06
4.20646e-06
2.38291e-05
-2.62606e-06
4.2527e-06
1.95583e-05
-9.18316e-07
4.81577e-06
1.1629e-05
1.74964e-06
5.25084e-06
7.11702e-06
4.52454e-06
-7.55558e-05
7.96555e-05
7.1627e-05
-0.000153496
3.34381e-05
1.32027e-06
-0.000158677
1.22742e-05
9.78376e-06
-0.000170568
-6.92658e-06
-8.01434e-06
-0.000166181
2.73437e-06
4.56742e-06
-0.000154802
-8.52847e-06
-6.17306e-06
-0.000141949
4.78958e-06
-3.91537e-06
-0.000134302
3.36314e-06
-5.0746e-06
-0.000124792
1.26974e-05
-5.26018e-06
-0.00011276
1.55487e-05
-5.14189e-06
-9.94716e-05
1.97238e-05
-4.26752e-06
-8.59172e-05
1.95654e-05
-3.32773e-06
-7.69734e-05
1.97245e-05
-3.02811e-06
-6.88009e-05
1.7876e-05
-2.51816e-06
-5.98359e-05
1.56678e-05
-2.19415e-06
-4.8881e-05
1.28693e-05
-1.8041e-06
-3.52299e-05
9.27941e-06
-1.29197e-06
-1.8671e-05
4.69096e-06
-5.84796e-07
-4.98111e-06
-2.59458e-07
4.41026e-07
-8.81378e-06
-3.41782e-06
4.39305e-07
-1.45741e-05
-4.76931e-06
4.06539e-07
-1.81374e-05
-5.38103e-06
3.10641e-07
-2.05232e-05
-5.75182e-06
1.18772e-07
-2.2031e-05
-6.00354e-06
-1.3302e-07
-2.27821e-05
-6.15002e-06
-4.39661e-07
-2.29354e-05
-6.16069e-06
-7.15293e-07
-2.25473e-05
-5.99628e-06
-1.04167e-06
-2.16283e-05
-5.6255e-06
-1.45123e-06
-2.01827e-05
-5.02751e-06
-1.93089e-06
-1.82003e-05
-4.19782e-06
-2.4558e-06
-1.56824e-05
-3.15921e-06
-2.99487e-06
-1.25868e-05
-1.93419e-06
-3.48859e-06
-9.02698e-06
-4.11445e-07
-3.79222e-06
-4.83586e-06
1.39881e-06
-3.54264e-06
4.55901e-06
-1.82216e-06
-2.09026e-05
6.10632e-05
4.41693e-05
-7.93267e-06
1.78471e-05
5.34831e-06
-2.10129e-06
1.8019e-06
6.17576e-06
-1.02108e-05
-5.53279e-06
6.98036e-06
-8.10815e-06
-5.93235e-06
6.48567e-06
-1.56227e-05
-7.15747e-06
6.29339e-06
-9.52791e-06
-4.65704e-06
4.82491e-06
-6.19913e-06
-1.04582e-06
3.68913e-06
2.42367e-06
5.26687e-06
2.00168e-06
1.10508e-05
9.20693e-06
9.88727e-07
1.95134e-05
1.27589e-05
4.86272e-07
2.6501e-05
1.35941e-05
5.65508e-07
3.35419e-05
1.32407e-05
6.57941e-07
3.93551e-05
1.20941e-05
7.6825e-07
4.41946e-05
1.04388e-05
8.65553e-07
4.79012e-05
8.42158e-06
9.64715e-07
4.98645e-05
6.27814e-06
1.06114e-06
4.89564e-05
4.34079e-06
1.14527e-06
4.49134e-05
2.43498e-06
1.20389e-06
3.92087e-05
9.51415e-07
1.2421e-06
3.34636e-05
-3.37894e-07
1.28732e-06
2.80194e-05
-1.25161e-06
1.35485e-06
2.28878e-05
-1.94006e-06
1.43033e-06
1.81121e-05
-2.53477e-06
1.49217e-06
1.37148e-05
-3.01444e-06
1.52055e-06
9.72878e-06
-3.343e-06
1.50121e-06
6.18873e-06
-3.47161e-06
1.42395e-06
3.12032e-06
-3.35633e-06
1.28586e-06
5.40519e-07
-2.96753e-06
1.08637e-06
-1.53389e-06
-2.30276e-06
8.25576e-07
-3.06342e-06
-1.40777e-06
4.97616e-07
-3.94428e-06
-3.9079e-07
1.00381e-07
-4.10384e-06
8.48829e-07
-3.69865e-07
-3.13978e-06
2.00141e-06
-8.48142e-07
3.71487e-06
-1.17952e-06
2.87475e-05
2.70213e-05
1.56075e-06
2.82423e-05
1.93881e-05
-2.99802e-06
1.11756e-05
1.95149e-05
-1.81168e-06
-1.42727e-05
1.99446e-05
-5.3401e-07
-3.9076e-05
1.86008e-05
1.68364e-08
-6.23138e-05
1.60682e-05
-2.94521e-07
-8.01683e-05
1.34687e-05
-6.38297e-07
-9.22895e-05
1.1668e-05
-9.31399e-07
-9.65474e-05
1.05116e-05
-1.20118e-06
-9.56301e-05
9.59341e-06
-1.43733e-06
-8.98354e-05
8.53826e-06
-1.67442e-06
-8.17469e-05
7.32087e-06
-1.93036e-06
-7.26133e-05
6.16197e-06
-2.18265e-06
-6.32828e-05
5.06537e-06
-2.43125e-06
-5.42603e-05
3.97742e-06
-2.68515e-06
-4.59451e-05
2.92912e-06
-2.93182e-06
-3.85653e-05
1.9562e-06
-3.14269e-06
-3.21588e-05
1.16045e-06
-3.28177e-06
-2.69413e-05
5.02481e-07
-3.30713e-06
-2.2755e-05
-3.48489e-08
-3.18625e-06
-1.96287e-05
-4.82042e-07
-2.92608e-06
-1.73019e-05
-9.23082e-07
-2.56512e-06
-1.56372e-05
-1.33254e-06
-2.15216e-06
-1.45549e-05
-1.73367e-06
-1.73389e-06
-1.39361e-05
-2.10003e-06
-1.3489e-06
-1.36368e-05
-2.39329e-06
-1.02607e-06
-1.34861e-05
-2.566e-06
-7.90127e-07
-1.3301e-05
-2.56835e-06
-6.59232e-07
-1.2908e-05
-2.35902e-06
-6.37138e-07
-1.21658e-05
-1.91556e-06
-7.14854e-07
-1.09884e-05
-1.24617e-06
-8.80574e-07
-9.36785e-06
-4.00171e-07
-1.12396e-06
-7.07216e-06
4.65304e-07
-1.44603e-06
-3.99191e-06
1.22665e-06
-1.8433e-06
2.15156e-06
-1.7637e-06
-5.19735e-06
3.1073e-05
6.00908e-07
-1.29927e-05
2.37313e-05
2.99903e-06
-1.76634e-05
1.9815e-05
4.17329e-06
-1.99544e-05
1.79834e-05
4.16535e-06
-2.14977e-05
1.62439e-05
3.84147e-06
-2.30752e-05
1.41523e-05
3.41681e-06
-2.47155e-05
1.2005e-05
2.99594e-06
-2.58697e-05
1.00469e-05
2.64264e-06
-2.62488e-05
8.38471e-06
2.3596e-06
-2.5963e-05
7.0216e-06
2.13608e-06
-2.53726e-05
5.87186e-06
1.92804e-06
-2.47944e-05
4.915e-06
1.68346e-06
-2.4209e-05
4.05355e-06
1.38593e-06
-2.35641e-05
3.27495e-06
1.01848e-06
-2.28544e-05
2.5614e-06
5.91562e-07
-2.20455e-05
1.91392e-06
1.06017e-07
-2.11262e-05
1.32781e-06
-3.75887e-07
-2.00095e-05
8.06453e-07
-8.31646e-07
-1.86398e-05
3.45223e-07
-1.26337e-06
-1.71157e-05
-5.05233e-08
-1.53891e-06
-1.56072e-05
-4.3669e-07
-1.5601e-06
-1.43829e-05
-8.05798e-07
-1.3204e-06
-1.35013e-05
-1.27214e-06
-8.89163e-07
-1.29974e-05
-1.73723e-06
-4.09609e-07
-1.27512e-05
-2.2048e-06
-3.64884e-09
-1.265e-05
-2.6367e-06
3.3584e-07
-1.25329e-05
-2.9846e-06
5.61062e-07
-1.22723e-05
-3.19766e-06
7.00383e-07
-1.17408e-05
-3.23086e-06
7.46721e-07
-1.08516e-05
-3.05412e-06
7.26423e-07
-9.54736e-06
-2.66074e-06
6.45734e-07
-7.8125e-06
-2.08035e-06
5.09203e-07
-5.77263e-06
-1.39854e-06
3.36089e-07
-3.28517e-06
-8.53406e-07
1.10103e-07
-1.39785e-07
-1.08731e-07
-1.69006e-05
3.99137e-05
7.2226e-06
-2.61259e-05
2.64253e-05
5.74333e-06
-2.78311e-05
1.75273e-05
3.6201e-06
-2.6025e-05
1.42406e-05
1.73319e-06
-2.25002e-05
1.2237e-05
3.71598e-07
-1.84746e-05
1.03918e-05
-3.20956e-07
-1.4499e-05
8.64964e-06
-6.49124e-07
-1.04192e-05
7.10539e-06
-1.16414e-06
-6.16765e-06
5.97347e-06
-1.87289e-06
-2.23813e-06
5.45337e-06
-2.40646e-06
7.89249e-07
5.44656e-06
-2.66287e-06
2.78279e-06
5.63732e-06
-2.79084e-06
3.86413e-06
5.7808e-06
-2.89245e-06
4.2708e-06
5.7869e-06
-3.00376e-06
4.2369e-06
5.64714e-06
-3.13056e-06
3.9544e-06
5.39005e-06
-3.25934e-06
3.55717e-06
5.05406e-06
-3.37571e-06
3.15468e-06
4.66753e-06
-3.48157e-06
2.79039e-06
4.24423e-06
-3.53071e-06
2.406e-06
3.767e-06
-3.39919e-06
1.83382e-06
3.23998e-06
-3.0374e-06
1.0691e-06
2.60924e-06
-2.54737e-06
9.4901e-08
1.91658e-06
-2.07364e-06
-9.7733e-07
1.20869e-06
-1.69259e-06
-1.97144e-06
4.37496e-07
-1.42308e-06
-2.85271e-06
-2.34961e-07
-1.24755e-06
-3.49439e-06
-8.87199e-07
-1.12964e-06
-3.85046e-06
-1.42833e-06
-1.03212e-06
-3.93588e-06
-1.77892e-06
-9.31137e-07
-3.7589e-06
-1.92328e-06
-8.23172e-07
-3.33675e-06
-1.83945e-06
-7.19727e-07
-2.70673e-06
-1.52316e-06
-6.39878e-07
-1.93677e-06
-1.00931e-06
-6.07653e-07
-1.09961e-06
-4.93689e-07
-6.63208e-07
-2.02335e-08
-7.46054e-07
5.73574e-06
3.11976e-05
2.28277e-06
1.051e-05
2.21735e-05
-9.89709e-07
1.4059e-05
1.67284e-05
-2.97773e-06
1.74385e-05
1.47441e-05
-3.98442e-06
2.05858e-05
1.36711e-05
-4.61448e-06
2.35003e-05
1.28044e-05
-5.30622e-06
2.6782e-05
1.20066e-05
-6.57231e-06
3.1024e-05
1.1274e-05
-8.29237e-06
3.57404e-05
1.07617e-05
-9.31382e-06
3.9365e-05
1.06887e-05
-8.61524e-06
4.07994e-05
1.10091e-05
-6.75158e-06
4.02144e-05
1.14264e-05
-4.99693e-06
3.81756e-05
1.1686e-05
-3.70421e-06
3.52586e-05
1.16981e-05
-2.86941e-06
3.20421e-05
1.14772e-05
-2.51811e-06
2.88909e-05
1.1062e-05
-2.44604e-06
2.5927e-05
1.04936e-05
-2.41282e-06
2.31978e-05
9.80889e-06
-2.35452e-06
2.0737e-05
9.04141e-06
-2.27915e-06
1.85469e-05
8.22097e-06
-2.20398e-06
1.66203e-05
7.3735e-06
-2.1419e-06
1.48851e-05
6.52182e-06
-2.10455e-06
1.33063e-05
5.68723e-06
-2.10715e-06
1.18851e-05
4.88989e-06
-2.15759e-06
1.05514e-05
4.1479e-06
-2.24822e-06
9.36896e-06
3.46938e-06
-2.3585e-06
8.23693e-06
2.90949e-06
-2.45418e-06
7.11643e-06
2.45822e-06
-2.49751e-06
5.99391e-06
2.14334e-06
-2.45936e-06
4.87223e-06
1.95659e-06
-2.32978e-06
3.77681e-06
1.90409e-06
-2.12683e-06
2.76492e-06
1.9823e-06
-1.91432e-06
1.92431e-06
2.1486e-06
-1.72863e-06
1.19894e-06
2.30409e-06
-1.51402e-06
2.63584e-06
-1.09449e-06
1.94989e-05
1.38428e-05
-1.17262e-06
2.84542e-05
1.52502e-05
-8.97743e-07
3.10169e-05
1.58973e-05
-5.97941e-07
3.11357e-05
1.62879e-05
-5.88153e-07
2.99575e-05
1.65588e-05
-7.32225e-07
2.77256e-05
1.67595e-05
-8.68428e-07
2.45203e-05
1.68476e-05
-9.20702e-07
2.04464e-05
1.67946e-05
-9.11471e-07
1.58843e-05
1.66147e-05
-9.23826e-07
1.15444e-05
1.6366e-05
-1.04728e-06
7.93918e-06
1.60641e-05
-1.1913e-06
5.20096e-06
1.56717e-05
-1.2694e-06
3.25433e-06
1.51425e-05
-1.29299e-06
1.96226e-06
1.44725e-05
-1.28829e-06
1.20205e-06
1.36969e-05
-1.29024e-06
8.77092e-07
1.28538e-05
-1.3239e-06
9.02621e-07
1.19864e-05
-1.40271e-06
1.19383e-06
1.11354e-05
-1.52926e-06
1.66408e-06
1.0332e-05
-1.69772e-06
2.22792e-06
9.59546e-06
-1.89643e-06
2.80438e-06
8.93451e-06
-2.11059e-06
3.31827e-06
8.35263e-06
-2.32516e-06
3.70191e-06
7.85192e-06
-2.5276e-06
3.8969e-06
7.43513e-06
-2.70951e-06
3.85603e-06
7.10596e-06
-2.86778e-06
3.53694e-06
6.86878e-06
-3.00391e-06
2.95331e-06
6.72791e-06
-3.12302e-06
2.11744e-06
6.68564e-06
-3.23531e-06
1.09351e-06
6.73856e-06
-3.35918e-06
-1.44096e-08
6.87093e-06
-3.53034e-06
-9.98787e-07
7.04963e-06
-3.82351e-06
-1.53923e-06
7.21521e-06
-4.29852e-06
-1.40506e-06
7.25775e-06
-4.80894e-06
-5.44973e-07
7.02646e-06
-5.13584e-06
6.36647e-06
-3.88683e-06
1.19397e-05
6.10141e-06
-2.34861e-06
2.09073e-05
1.0356e-05
-2.14802e-06
2.7968e-05
1.27581e-05
-2.03112e-06
3.33566e-05
1.45987e-05
-1.90478e-06
3.71585e-05
1.61449e-05
-1.75294e-06
3.94619e-05
1.74388e-05
-1.56642e-06
4.0322e-05
1.8485e-05
-1.34214e-06
3.98316e-05
1.92632e-05
-1.08963e-06
3.81974e-05
1.97405e-05
-8.34897e-07
3.5753e-05
1.99031e-05
-6.07646e-07
3.28572e-05
1.97588e-05
-4.36156e-07
2.9813e-05
1.93338e-05
-3.44511e-07
2.68365e-05
1.86709e-05
-3.4711e-07
2.41134e-05
1.78007e-05
-4.58807e-07
2.18099e-05
1.67774e-05
-6.90578e-07
1.99606e-05
1.57644e-05
-1.03909e-06
1.85106e-05
1.48815e-05
-1.48278e-06
1.74305e-05
1.41181e-05
-1.98455e-06
1.67202e-05
1.34427e-05
-2.50243e-06
1.63702e-05
1.28435e-05
-2.99816e-06
1.63448e-05
1.23178e-05
-3.44235e-06
1.65894e-05
1.1865e-05
-3.8193e-06
1.70388e-05
1.14887e-05
-4.12476e-06
1.76204e-05
1.11973e-05
-4.35883e-06
1.82497e-05
1.10032e-05
-4.51925e-06
1.88214e-05
1.09223e-05
-4.59668e-06
1.9199e-05
1.09721e-05
-4.57342e-06
1.92047e-05
1.11731e-05
-4.42632e-06
1.86326e-05
1.15315e-05
-4.13652e-06
1.73028e-05
1.201e-05
-3.70816e-06
1.51302e-05
1.25274e-05
-3.1874e-06
1.21431e-05
1.29865e-05
-2.64826e-06
8.42737e-06
1.32756e-05
-2.15328e-06
4.03584e-06
1.32386e-05
-1.68188e-06
1.19767e-05
-1.50863e-06
3.86393e-06
3.73305e-06
-4.41019e-07
6.75538e-06
6.64553e-06
1.63425e-06
9.89243e-06
8.35035e-06
1.87328e-06
1.31409e-05
9.87369e-06
1.87216e-06
1.59214e-05
1.16363e-05
1.9077e-06
1.7748e-05
1.35829e-05
1.98127e-06
1.84433e-05
1.54382e-05
2.0791e-06
1.80596e-05
1.7005e-05
2.18176e-06
1.67368e-05
1.82182e-05
2.25174e-06
1.4692e-05
1.90256e-05
2.2561e-06
1.21845e-05
1.94127e-05
2.16906e-06
9.47279e-06
1.94094e-05
1.97473e-06
6.79301e-06
1.90772e-05
1.66779e-06
4.24618e-06
1.84754e-05
1.24679e-06
1.95086e-06
1.77019e-05
7.0997e-07
1.08709e-07
1.69567e-05
8.706e-08
-1.316e-06
1.63537e-05
-5.0894e-07
-2.31261e-06
1.5861e-05
-1.11862e-06
-2.87088e-06
1.54361e-05
-1.72726e-06
-2.99629e-06
1.50699e-05
-2.33125e-06
-2.70523e-06
1.47692e-05
-2.92335e-06
-2.02643e-06
1.45429e-05
-3.49787e-06
-9.95177e-07
1.44018e-05
-4.05352e-06
3.52771e-07
1.43577e-05
-4.59063e-06
1.9749e-06
1.44213e-05
-5.09969e-06
3.80234e-06
1.46022e-05
-5.54825e-06
5.70962e-06
1.49084e-05
-5.86839e-06
7.47476e-06
1.53477e-05
-5.94689e-06
8.74901e-06
1.59103e-05
-5.64069e-06
9.16827e-06
1.65458e-05
-4.92443e-06
8.617e-06
1.71705e-05
-4.04593e-06
7.20981e-06
1.76959e-05
-3.23959e-06
5.09937e-06
1.80028e-05
-2.52711e-06
2.42424e-06
1.78893e-05
-1.84318e-06
1.60219e-05
-1.4353e-06
-9.99737e-07
5.34834e-06
4.76225e-08
-6.58872e-06
1.26521e-05
2.91449e-07
-1.35046e-05
1.6004e-05
-5.27178e-08
-2.00836e-05
1.71562e-05
-3.15306e-07
-2.5634e-05
1.7611e-05
-5.23098e-07
-2.96578e-05
1.76833e-05
-6.25122e-07
-3.19148e-05
1.7509e-05
-6.33729e-07
-3.26812e-05
1.74618e-05
-6.03688e-07
-3.25145e-05
1.77291e-05
-5.80374e-07
-3.1863e-05
1.81234e-05
-5.98449e-07
-3.09555e-05
1.84065e-05
-6.76383e-07
-2.99005e-05
1.84773e-05
-8.19082e-07
-2.87702e-05
1.83531e-05
-1.02218e-06
-2.76425e-05
1.80827e-05
-1.27314e-06
-2.65652e-05
1.77202e-05
-1.55017e-06
-2.54792e-05
1.73229e-05
-1.82581e-06
-2.42921e-05
1.69362e-05
-2.07479e-06
-2.299e-05
1.65888e-05
-2.28019e-06
-2.16224e-05
1.62975e-05
-2.43719e-06
-2.02498e-05
1.60734e-05
-2.55272e-06
-1.8919e-05
1.59252e-05
-2.63999e-06
-1.7659e-05
1.58588e-05
-2.71227e-06
-1.6481e-05
1.58778e-05
-2.77845e-06
-1.53808e-05
1.59826e-05
-2.84173e-06
-1.43432e-05
1.61702e-05
-2.89852e-06
-1.33446e-05
1.64333e-05
-2.93955e-06
-1.23515e-05
1.67603e-05
-2.95369e-06
-1.13149e-05
1.71337e-05
-2.93083e-06
-1.01768e-05
1.75283e-05
-2.86413e-06
-8.89727e-06
1.79119e-05
-2.75403e-06
-7.47284e-06
1.8247e-05
-2.60853e-06
-5.92228e-06
1.84772e-05
-2.43627e-06
-4.24832e-06
1.84715e-05
-2.23941e-06
-2.39083e-06
1.79266e-05
-1.97784e-06
1.51794e-05
-1.58485e-06
5.90477e-06
-3.57941e-06
2.95769e-06
6.01462e-06
7.42667e-06
5.07339e-06
1.40913e-06
1.58192e-05
4.90554e-06
-6.96961e-06
2.15556e-05
4.16091e-06
-1.76413e-05
2.53183e-05
3.28082e-06
-2.88628e-05
2.72089e-05
2.23058e-06
-3.90642e-05
2.73379e-05
1.03563e-06
-4.74537e-05
2.65782e-05
-1.64715e-07
-5.40969e-05
2.56537e-05
-9.80718e-07
-5.89988e-05
2.47278e-05
-1.63564e-06
-6.22816e-05
2.37667e-05
-2.1466e-06
-6.41167e-05
2.27715e-05
-2.57477e-06
-6.47295e-05
2.17878e-05
-2.94419e-06
-6.43743e-05
2.08558e-05
-3.24442e-06
-6.32964e-05
1.99961e-05
-3.45464e-06
-6.17122e-05
1.92222e-05
-3.56434e-06
-5.97922e-05
1.85402e-05
-3.58361e-06
-5.766e-05
1.79508e-05
-3.53251e-06
-5.54025e-05
1.74533e-05
-3.43131e-06
-5.30761e-05
1.70511e-05
-3.30298e-06
-5.07083e-05
1.67459e-05
-3.16935e-06
-4.83027e-05
1.65311e-05
-3.04275e-06
-4.58457e-05
1.63966e-05
-2.92665e-06
-4.33129e-05
1.633e-05
-2.82022e-06
-4.06709e-05
1.63174e-05
-2.72172e-06
-3.78796e-05
1.63429e-05
-2.62933e-06
-3.48943e-05
1.63882e-05
-2.54149e-06
-3.16673e-05
1.64318e-05
-2.45697e-06
-2.81525e-05
1.64462e-05
-2.37463e-06
-2.4292e-05
1.63992e-05
-2.29239e-06
-2.00308e-05
1.62591e-05
-2.20586e-06
-1.53483e-05
1.59857e-05
-2.10756e-06
-1.02897e-05
1.5507e-05
-1.98374e-06
-5.00914e-06
1.45988e-05
-1.79532e-06
1.1804e-05
-1.37367e-06
7.506e-06
-1.28665e-05
1.83151e-06
1.9942e-05
-8.81432e-06
3.74698e-06
3.33983e-05
-1.96098e-06
4.17531e-06
4.33746e-05
6.98892e-06
4.36295e-06
4.87317e-05
1.54024e-05
4.35501e-06
4.95805e-05
2.22275e-05
4.07634e-06
4.64979e-05
2.69308e-05
3.56512e-06
4.05664e-05
2.97483e-05
2.9618e-06
3.30916e-05
3.11397e-05
2.32812e-06
2.516e-05
3.1445e-05
1.67646e-06
1.73934e-05
3.10492e-05
1.02598e-06
1.00983e-05
3.02449e-05
3.98002e-07
3.43893e-06
2.92038e-05
-1.82771e-07
-2.55249e-06
2.80428e-05
-6.50157e-07
-7.80268e-06
2.6845e-05
-1.09474e-06
-1.22859e-05
2.56716e-05
-1.50483e-06
-1.6008e-05
2.45621e-05
-1.8743e-06
-1.90185e-05
2.35382e-05
-2.17624e-06
-2.14122e-05
2.26071e-05
-2.37247e-06
-2.33015e-05
2.17681e-05
-2.44185e-06
-2.47781e-05
2.10152e-05
-2.39992e-06
-2.58925e-05
2.03345e-05
-2.28134e-06
-2.66584e-05
1.97097e-05
-2.11832e-06
-2.70625e-05
1.91238e-05
-1.934e-06
-2.70759e-05
1.85592e-05
-1.7417e-06
-2.666e-05
1.79977e-05
-1.55015e-06
-2.57698e-05
1.74191e-05
-1.36575e-06
-2.4359e-05
1.68032e-05
-1.19232e-06
-2.23948e-05
1.61346e-05
-1.03127e-06
-1.98694e-05
1.54033e-05
-8.81535e-07
-1.68057e-05
1.46018e-05
-7.40646e-07
-1.3256e-05
1.37055e-05
-6.04776e-07
-9.23286e-06
1.26546e-05
-4.64347e-07
-4.70374e-06
1.11833e-05
-3.07056e-07
8.15956e-06
-2.83272e-07
5.23414e-06
-1.87217e-05
7.9731e-07
1.12589e-05
-1.72758e-05
2.70632e-06
1.92503e-05
-1.26419e-05
2.97911e-06
2.9092e-05
-5.75925e-06
3.12669e-06
3.94185e-05
1.85525e-06
3.3374e-06
4.87423e-05
9.45699e-06
3.50721e-06
5.64697e-05
1.57319e-05
3.55773e-06
6.23179e-05
2.06194e-05
3.4675e-06
6.63954e-05
2.41462e-05
3.2462e-06
6.8892e-05
2.64878e-05
2.92379e-06
6.99812e-05
2.79775e-05
2.54886e-06
6.98639e-05
2.88627e-05
2.1505e-06
6.87849e-05
2.92741e-05
1.73622e-06
6.7011e-05
2.92983e-05
1.3092e-06
6.4804e-05
2.90067e-05
8.84399e-07
6.23844e-05
2.84658e-05
4.97842e-07
5.99256e-05
2.77388e-05
1.73338e-07
5.75509e-05
2.68851e-05
-7.47406e-08
5.52801e-05
2.59592e-05
-1.89216e-07
5.31576e-05
2.50172e-05
-2.48491e-07
5.11593e-05
2.41285e-05
-2.56353e-07
4.92045e-05
2.33527e-05
-2.25806e-07
4.72342e-05
2.26692e-05
-1.71153e-07
4.52197e-05
2.20428e-05
-1.02406e-07
4.31129e-05
2.1474e-05
-1.61179e-08
4.08311e-05
2.09639e-05
1.06117e-07
3.83148e-05
2.05081e-05
2.28999e-07
3.55145e-05
2.00907e-05
3.40769e-07
3.23631e-05
1.97118e-05
4.46337e-07
2.87598e-05
1.93912e-05
5.49494e-07
2.45749e-05
1.91389e-05
6.57005e-07
1.96581e-05
1.89114e-05
7.82748e-07
1.3879e-05
1.85678e-05
9.41528e-07
7.20057e-06
1.78038e-05
1.11316e-06
1.54172e-05
8.97432e-07
-8.55086e-07
-1.81961e-05
4.42758e-07
-3.73758e-06
-1.61143e-05
1.80851e-06
-5.90396e-06
-1.25854e-05
2.20144e-06
-5.99824e-06
-8.10097e-06
2.51132e-06
-3.92628e-06
-3.03222e-06
2.80494e-06
5.99786e-07
1.77453e-06
3.03538e-06
6.94957e-06
6.01403e-06
3.17849e-06
1.4391e-05
9.73556e-06
3.23124e-06
2.22742e-05
1.28652e-05
3.19974e-06
3.00548e-05
1.54525e-05
3.08914e-06
3.74727e-05
1.7519e-05
2.91289e-06
4.4435e-05
1.91203e-05
2.68829e-06
5.09022e-05
2.03197e-05
2.42608e-06
5.6857e-05
2.11719e-05
2.13222e-06
6.22684e-05
2.17247e-05
1.8397e-06
6.70804e-05
2.20204e-05
1.59894e-06
7.12275e-05
2.21183e-05
1.42648e-06
7.46342e-05
2.20952e-05
1.31876e-06
7.72167e-05
2.20218e-05
1.27205e-06
7.88949e-05
2.19639e-05
1.27585e-06
7.96133e-05
2.19842e-05
1.31396e-06
7.93479e-05
2.21235e-05
1.37247e-06
7.80864e-05
2.23536e-05
1.44822e-06
7.58092e-05
2.26466e-05
1.53939e-06
7.25028e-05
2.30018e-05
1.63933e-06
6.81654e-05
2.34112e-05
1.74312e-06
6.28091e-05
2.38545e-05
1.84908e-06
5.64633e-05
2.4293e-05
1.95815e-06
4.91845e-05
2.4693e-05
2.07039e-06
4.10732e-05
2.50272e-05
2.18471e-06
3.23025e-05
2.52322e-05
2.30204e-06
2.3145e-05
2.51921e-05
2.41405e-06
1.40359e-05
2.46803e-05
2.49484e-06
5.63053e-06
2.31848e-05
2.48844e-06
1.84951e-05
1.88222e-06
-1.36147e-05
-5.2957e-06
1.085e-06
-2.90827e-05
-1.88624e-06
1.55061e-06
-4.37879e-05
5.77665e-07
1.71497e-06
-5.68264e-05
2.88937e-06
2.08891e-06
-6.75576e-05
5.12903e-06
2.49408e-06
-7.59755e-05
7.18914e-06
2.83332e-06
-8.22177e-05
8.94541e-06
3.08125e-06
-8.63703e-05
1.0374e-05
3.24939e-06
-8.8729e-05
1.15759e-05
3.35715e-06
-8.95872e-05
1.2592e-05
3.40713e-06
-8.92124e-05
1.3417e-05
3.39968e-06
-8.78463e-05
1.40739e-05
3.34045e-06
-8.57051e-05
1.45915e-05
3.2369e-06
-8.29949e-05
1.49998e-05
3.10103e-06
-7.99095e-05
1.53241e-05
2.95159e-06
-7.66391e-05
1.55817e-05
2.81105e-06
-7.33736e-05
1.58026e-05
2.69836e-06
-7.02785e-05
1.6025e-05
2.62571e-06
-6.74775e-05
1.62719e-05
2.60014e-06
-6.50422e-05
1.65569e-05
2.62196e-06
-6.29764e-05
1.68746e-05
2.68656e-06
-6.12013e-05
1.71992e-05
2.78373e-06
-5.9618e-05
1.74993e-05
2.89992e-06
-5.81142e-05
1.77441e-05
3.02126e-06
-5.65379e-05
1.79013e-05
3.1387e-06
-5.47125e-05
1.79397e-05
3.25106e-06
-5.24479e-05
1.78202e-05
3.35986e-06
-4.95462e-05
1.74996e-05
3.46311e-06
-4.57916e-05
1.69418e-05
3.55456e-06
-4.09546e-05
1.6118e-05
3.6265e-06
-3.48347e-05
1.49981e-05
3.67831e-06
-2.73337e-05
1.35631e-05
3.7169e-06
-1.86111e-05
1.18251e-05
3.75057e-06
-9.22673e-06
9.70459e-06
3.72515e-06
6.02595e-06
2.92772e-06
-1.11399e-05
2.88304e-06
3.08651e-06
-2.44113e-05
8.97755e-06
2.62506e-06
-3.75635e-05
1.19296e-05
2.03283e-06
-5.01285e-05
1.37497e-05
1.93895e-06
-6.17968e-05
1.48822e-05
2.13833e-06
-7.23661e-05
1.55152e-05
2.45012e-06
-8.17977e-05
1.57742e-05
2.79699e-06
-9.01171e-05
1.57449e-05
3.1362e-06
-9.72933e-05
1.54995e-05
3.44156e-06
-0.000103305
1.5096e-05
3.70366e-06
-0.000108187
1.45829e-05
3.92214e-06
-0.000111984
1.39946e-05
4.09478e-06
-0.000114744
1.33626e-05
4.22001e-06
-0.000116518
1.2717e-05
4.29953e-06
-0.00011736
1.20804e-05
4.34065e-06
-0.000117331
1.14659e-05
4.35553e-06
-0.000116491
1.08864e-05
4.3577e-06
-0.000114877
1.03497e-05
4.35852e-06
-0.000112508
9.84621e-06
4.36848e-06
-0.000109373
9.36148e-06
4.39153e-06
-0.000105466
8.89746e-06
4.4232e-06
-0.000100799
8.4491e-06
4.45696e-06
-9.53929e-05
8.0043e-06
4.4818e-06
-8.92745e-05
7.55701e-06
4.48256e-06
-8.24871e-05
7.10174e-06
4.44919e-06
-7.51055e-05
6.63053e-06
4.3921e-06
-6.72489e-05
6.1434e-06
4.31881e-06
-5.90828e-05
5.65032e-06
4.22258e-06
-5.07695e-05
5.11417e-06
4.10204e-06
-4.23516e-05
4.38166e-06
3.96077e-06
-3.37779e-05
3.318e-06
3.80564e-06
-2.50595e-05
1.94378e-06
3.65981e-06
-1.62657e-05
3.00525e-07
3.55985e-06
-7.53051e-06
-1.5847e-06
3.47894e-06
-3.10941e-06
2.61588e-06
-9.96879e-06
7.32846e-06
5.32928e-06
-1.78932e-05
1.13368e-05
5.3936e-06
-2.33858e-05
1.26895e-05
4.57935e-06
-2.72477e-05
1.34022e-05
4.05216e-06
-3.00889e-05
1.37594e-05
3.79598e-06
-3.22919e-05
1.38577e-05
3.68273e-06
-3.4063e-05
1.37239e-05
3.63027e-06
-3.54999e-05
1.33676e-05
3.60826e-06
-3.66411e-05
1.28167e-05
3.60303e-06
-3.74931e-05
1.2105e-05
3.60636e-06
-3.80363e-05
1.12636e-05
3.61065e-06
-3.82403e-05
1.03197e-05
3.61207e-06
-3.80644e-05
9.29513e-06
3.61133e-06
-3.74554e-05
8.20517e-06
3.61093e-06
-3.63517e-05
7.05794e-06
3.6175e-06
-3.469e-05
5.85446e-06
3.64005e-06
-3.2397e-05
4.59569e-06
3.68461e-06
-2.93958e-05
3.28118e-06
3.7546e-06
-2.56099e-05
1.89786e-06
3.85236e-06
-2.09597e-05
4.29291e-07
3.97648e-06
-1.55256e-05
-9.57119e-07
4.12019e-06
-9.48279e-06
-2.15863e-06
4.27184e-06
-2.86911e-06
-3.31565e-06
4.41812e-06
4.18266e-06
-4.33028e-06
4.55324e-06
1.14445e-05
-5.12544e-06
4.68988e-06
1.85926e-05
-5.6159e-06
4.83678e-06
2.52455e-05
-5.72081e-06
4.98029e-06
3.09514e-05
-5.33167e-06
5.10545e-06
3.49682e-05
-4.17258e-06
5.19339e-06
3.60995e-05
-1.95946e-06
5.24244e-06
3.36599e-05
6.36532e-07
5.27035e-06
2.79756e-05
2.67631e-06
5.26345e-06
2.00065e-05
3.60893e-06
5.19588e-06
1.01459e-05
3.86222e-06
5.07974e-06
3.50103e-06
3.95686e-06
-2.67459e-06
8.32255e-06
1.75253e-06
-4.37982e-06
1.17882e-05
1.26894e-06
-4.88913e-06
1.27809e-05
4.3564e-07
-4.57433e-06
1.31449e-05
-2.24202e-08
-3.75634e-06
1.31506e-05
-1.4686e-07
-2.50341e-06
1.28774e-05
-1.73304e-07
-8.76042e-07
1.23967e-05
-1.55896e-07
1.03211e-06
1.1769e-05
-1.15078e-07
3.12014e-06
1.10329e-05
-5.71999e-08
5.26575e-06
1.02329e-05
2.53012e-08
7.37119e-06
9.39269e-06
1.12887e-07
9.31067e-06
8.53223e-06
2.38056e-07
1.10285e-05
7.65903e-06
3.43518e-07
1.24697e-05
6.77344e-06
4.41003e-07
1.35789e-05
5.87096e-06
5.40401e-07
1.42936e-05
4.94282e-06
6.55808e-07
1.45428e-05
3.97854e-06
8.01811e-07
1.42459e-05
2.97289e-06
9.90313e-07
1.32982e-05
1.92503e-06
1.22957e-06
1.15622e-05
8.46017e-07
1.52185e-06
8.99579e-06
-1.82573e-07
1.86201e-06
6.03966e-06
-1.53782e-06
2.24076e-06
2.65418e-06
-2.84686e-06
2.64151e-06
-1.11207e-06
-4.11393e-06
3.0835e-06
-4.93557e-06
-5.58081e-06
3.61582e-06
-7.85172e-06
-7.79379e-06
4.2473e-06
-8.58692e-06
-1.08677e-05
4.89102e-06
-5.99317e-06
-1.43668e-05
5.37367e-06
-3.50896e-08
-1.65928e-05
5.45116e-06
5.69453e-06
-1.3445e-05
5.08247e-06
8.94616e-06
-7.82244e-06
4.90789e-06
1.01383e-05
-3.54956e-06
5.01748e-06
8.97907e-06
-3.00495e-07
5.25283e-06
4.8161e-06
3.00903e-06
5.38126e-06
5.05473e-06
3.88341e-06
-2.97389e-06
7.683e-06
3.81866e-06
-3.975e-06
1.0186e-05
2.89812e-06
-2.61939e-06
9.65337e-06
2.10345e-06
1.56632e-06
7.61137e-06
1.71736e-06
8.29585e-06
5.22313e-06
1.61366e-06
1.69179e-05
3.04299e-06
1.68101e-06
2.67744e-05
1.21905e-06
1.84667e-06
3.72802e-05
-2.2064e-07
2.06782e-06
4.82905e-05
-1.65156e-06
2.32316e-06
5.94006e-05
-2.75933e-06
2.59568e-06
7.02792e-05
-3.59009e-06
2.87845e-06
8.06488e-05
-4.16999e-06
3.16721e-06
9.02773e-05
-4.5354e-06
3.4588e-06
9.89614e-05
-4.71173e-06
3.75071e-06
0.000106512
-4.71938e-06
4.04465e-06
0.000112741
-4.57656e-06
4.34794e-06
0.000117453
-4.30271e-06
4.67423e-06
0.000120438
-3.91016e-06
5.04229e-06
0.000121497
-3.43126e-06
5.47264e-06
0.000120521
-2.96904e-06
5.98845e-06
0.000117474
-2.53309e-06
6.61616e-06
0.000111922
-2.14446e-06
7.3869e-06
0.000103819
-1.84108e-06
8.3515e-06
9.3017e-05
-1.65013e-06
9.62664e-06
7.91265e-05
-1.86537e-06
1.13847e-05
6.1747e-05
-3.04173e-06
1.34289e-05
4.1802e-05
-5.56756e-06
1.49861e-05
2.11481e-05
-9.05137e-06
1.53801e-05
2.78457e-06
-1.17623e-05
1.29168e-05
-6.10611e-06
-1.25763e-05
8.02999e-06
-1.08099e-05
-8.45479e-06
5.59245e-06
-9.16124e-06
-1.04363e-05
5.7438e-06
1.49604e-06
-1.62635e-05
5.62013e-06
4.88725e-06
-5.48003e-06
5.34344e-06
4.89411e-06
5.33741e-06
-5.85493e-06
1.95603e-06
1.14589e-05
-2.4185e-06
-4.57608e-06
1.12412e-05
7.73809e-06
-1.08903e-05
1.03548e-05
2.25077e-05
-1.64824e-05
9.35763e-06
4.0088e-05
-2.07099e-05
8.44592e-06
5.9063e-05
-2.35009e-05
7.70727e-06
7.85406e-05
-2.52079e-05
7.12049e-06
9.79569e-05
-2.60982e-05
6.65381e-06
0.000116612
-2.63776e-05
6.28729e-06
0.000134283
-2.61964e-05
6.001e-06
0.000150843
-2.56834e-05
5.78035e-06
0.00016624
-2.49206e-05
5.61207e-06
0.000180451
-2.39648e-05
5.48881e-06
0.000193466
-2.28509e-05
5.40528e-06
0.000205281
-2.15985e-05
5.35743e-06
0.000215897
-2.02243e-05
5.34229e-06
0.000225322
-1.87557e-05
5.35742e-06
0.000233587
-1.72279e-05
5.40704e-06
0.000240713
-1.56751e-05
5.49247e-06
0.000246647
-1.41258e-05
5.62409e-06
0.000251323
-1.26048e-05
5.81192e-06
0.000254692
-1.1136e-05
6.04509e-06
0.000256652
-9.73757e-06
6.39608e-06
0.000257051
-8.36413e-06
6.70514e-06
0.000255473
-7.03701e-06
7.30285e-06
0.000250679
-5.59597e-06
7.65135e-06
0.000241328
-4.05649e-06
8.4527e-06
0.000226106
-2.52308e-06
9.24107e-06
0.000204633
2.27166e-07
9.48555e-06
0.00017866
2.64127e-06
1.28993e-05
0.000147374
9.37123e-06
1.16583e-05
0.000103484
1.60714e-05
1.97425e-05
5.33596e-05
1.71898e-05
2.22225e-05
1.73738e-05
1.86744e-05
1.19957e-05
1.53937e-05
7.33057e-06
7.28973e-06
-9.77934e-06
4.43791e-06
2.50347e-05
-2.52271e-05
2.91613e-06
4.67128e-05
-3.39553e-05
1.43162e-06
6.86043e-05
-3.86171e-05
3.16381e-07
8.9084e-05
-4.07293e-05
-3.69038e-07
0.000107653
-4.11362e-05
-8.34974e-07
0.000124157
-4.03638e-05
-1.24807e-06
0.000138563
-3.87915e-05
-1.61754e-06
0.000150948
-3.67256e-05
-1.94693e-06
0.000161477
-3.44086e-05
-2.23447e-06
0.000170339
-3.1995e-05
-2.47645e-06
0.000177698
-2.95484e-05
-2.6689e-06
0.000183655
-2.70644e-05
-2.80947e-06
0.000188231
-2.44988e-05
-2.89763e-06
0.00019137
-2.17927e-05
-2.93481e-06
0.000192973
-1.89126e-05
-2.9239e-06
0.000192983
-1.59219e-05
-2.86702e-06
0.000191466
-1.29739e-05
-2.76249e-06
0.000188593
-1.02123e-05
-2.60421e-06
0.000184552
-7.69033e-06
-2.38479e-06
0.000179456
-5.36824e-06
-2.09652e-06
0.000173294
-3.15529e-06
-1.73341e-06
0.000165917
-9.35455e-07
-1.2968e-06
0.000157701
8.04714e-07
-7.77769e-07
0.000148782
2.28531e-06
-1.744e-07
0.00013885
3.84379e-06
7.63034e-07
0.000127197
6.00673e-06
1.96614e-06
0.000113218
8.5161e-06
3.34994e-06
9.72145e-05
1.16353e-05
5.2474e-06
7.83902e-05
1.49615e-05
7.38692e-06
5.9984e-05
1.88733e-05
9.54626e-06
3.50483e-05
2.79306e-05
1.48952e-05
6.02106e-06
3.04901e-05
1.60416e-05
-1.63732e-06
1.49912e-05
1.10113e-05
7.41475e-06
6.93305e-06
1.49201e-05
-2.47097e-05
-1.32231e-07
3.42288e-05
-4.36815e-05
-1.00658e-06
5.17301e-05
-5.03257e-05
-1.24983e-06
6.63984e-05
-5.20223e-05
-1.35781e-06
7.8318e-05
-5.12683e-05
-1.46526e-06
8.76286e-05
-4.89122e-05
-1.62002e-06
9.4529e-05
-4.55225e-05
-1.83529e-06
9.93311e-05
-4.15984e-05
-2.10048e-06
0.000102444
-3.75665e-05
-2.38975e-06
0.000104312
-3.37366e-05
-2.67263e-06
0.000105317
-3.02263e-05
-2.92416e-06
0.000105706
-2.6984e-05
-3.12928e-06
0.000105598
-2.38831e-05
-3.28169e-06
0.000105029
-2.07997e-05
-3.382e-06
0.000104023
-1.76553e-05
-3.43796e-06
0.000102667
-1.44496e-05
-3.46421e-06
0.000101125
-1.1285e-05
-3.47459e-06
9.95854e-05
-8.33229e-06
-3.46973e-06
9.82125e-05
-5.73207e-06
-3.4349e-06
9.71281e-05
-3.53451e-06
-3.34948e-06
9.64635e-05
-1.7373e-06
-3.19621e-06
9.64306e-05
-3.46724e-07
-2.96106e-06
9.66429e-05
1.35104e-06
-2.64054e-06
9.71535e-05
2.42031e-06
-2.23024e-06
9.94888e-05
1.50443e-06
-1.65946e-06
0.000104103
-7.36649e-08
-7.93501e-07
0.000107441
2.19475e-06