/*--------------------------------*- C++ -*----------------------------------*\
| =========                 |                                                 |
| \\      /  F ield         | OpenFOAM: The Open Source CFD Toolbox           |
|  \\    /   O peration     | Version:  v1912                                 |
|   \\  /    A nd           | Website:  www.openfoam.com                      |
|    \\/     M anipulation  |                                                 |
\*---------------------------------------------------------------------------*/
FoamFile
{
    version     2.0;
    format      ascii;
    class       surfaceScalarField;
    location    "130/oil";
    object      phi;
}
// * * * * * * * * * * * * * * * * * * * * * * * * * * * * * * * * * * * * * //

dimensions      [1 0 -1 0 0 0 0];
oriented        oriented;


internalField   nonuniform List<scalar> 
80688
(
-1.59141e-06
-1.95531e-06
-1.59668e-06
-8.96436e-07
-5.41228e-07
-1.53745e-07
6.99786e-07
-8.84186e-07
-7.12037e-07
1.4493e-07
2.08805e-07
3.46052e-07
3.30784e-07
-1.58545e-07
-2.73103e-08
2.59613e-07
-2.53994e-08
9.657e-08
3.09597e-07
-8.07098e-08
3.07257e-08
3.03391e-07
-4.63542e-08
5.25608e-08
3.14902e-07
-4.91427e-08
3.76314e-08
3.0016e-07
-3.01087e-08
4.48508e-08
2.85234e-07
-2.46078e-08
3.95333e-08
2.53062e-07
-1.1552e-08
4.37244e-08
2.17053e-07
-5.64739e-09
4.16565e-08
1.7272e-07
6.08594e-10
4.37238e-08
1.23355e-07
5.56705e-09
4.37978e-08
7.57389e-08
4.38056e-09
4.3236e-08
2.3133e-08
7.14607e-09
4.54597e-08
-1.74747e-08
-1.89607e-09
4.25038e-08
-6.24756e-08
-1.4961e-09
4.64969e-08
-8.81467e-08
-1.59837e-08
4.16547e-08
-1.17697e-07
-1.75449e-08
4.70955e-08
-1.24227e-07
-3.56001e-08
4.21297e-08
-1.34437e-07
-3.84972e-08
4.87076e-08
-1.23214e-07
-5.63287e-08
4.51049e-08
-1.16596e-07
-5.8972e-08
5.2354e-08
-9.48723e-08
-7.26203e-08
5.08969e-08
-7.90719e-08
-7.34325e-08
5.76321e-08
-5.43251e-08
-8.35103e-08
5.87634e-08
-2.93497e-08
-8.9002e-08
6.40266e-08
-8.23889e-08
5.30392e-08
-2.16831e-07
-1.5149e-06
-2.23582e-07
3.98669e-07
-1.94509e-08
-1.13728e-06
-1.63671e-07
-4.21771e-07
9.9926e-08
2.06074e-07
-1.4554e-07
-1.54004e-08
2.14751e-07
-2.2394e-07
5.6718e-08
3.04273e-07
-1.7053e-07
5.56085e-08
3.42423e-07
-1.72971e-07
5.41105e-08
3.68627e-07
-1.37943e-07
6.53847e-08
3.8237e-07
-1.25726e-07
6.28409e-08
3.71501e-07
-9.39818e-08
7.47422e-08
3.52453e-07
-8.00878e-08
7.45279e-08
3.11778e-07
-5.51788e-08
8.43014e-08
2.63489e-07
-4.26756e-08
8.53176e-08
2.03491e-07
-2.96414e-08
9.0248e-08
1.37104e-07
-1.99126e-08
9.18663e-08
7.29217e-08
-2.20332e-08
9.05961e-08
4.01244e-09
-1.60378e-08
9.20931e-08
-4.92793e-08
-3.33154e-08
8.47111e-08
-1.05452e-07
-3.15198e-08
8.61966e-08
-1.35588e-07
-6.04278e-08
7.45795e-08
-1.67754e-07
-6.21435e-08
7.67646e-08
-1.70589e-07
-9.67465e-08
6.39817e-08
-1.76291e-07
-1.00296e-07
6.75006e-08
-1.56351e-07
-1.33039e-07
5.67702e-08
-1.42356e-07
-1.34271e-07
6.13035e-08
-1.12374e-07
-1.56131e-07
5.35289e-08
-9.13068e-08
-1.52033e-07
5.75333e-08
-6.21969e-08
-1.68933e-07
5.63124e-08
-3.35545e-08
-1.84773e-07
6.71284e-08
-1.79423e-07
6.34799e-08
-7.79285e-07
5.03688e-08
-7.85985e-07
-1.40699e-07
-7.29117e-07
7.108e-08
6.562e-08
-4.08971e-07
-2.1912e-07
1.46696e-07
-3.22458e-07
9.58414e-08
2.59169e-07
-3.29899e-07
-6.51511e-09
2.90374e-07
-2.73806e-07
7.20711e-08
3.46849e-07
-2.74797e-07
4.53518e-08
3.61078e-07
-2.24282e-07
7.21097e-08
3.79571e-07
-2.10446e-07
6.62259e-08
3.65946e-07
-1.63524e-07
8.31679e-08
3.4786e-07
-1.4557e-07
8.35676e-08
3.05091e-07
-1.08746e-07
9.63363e-08
2.55367e-07
-9.15309e-08
9.85796e-08
1.92812e-07
-7.24126e-08
1.05326e-07
1.23703e-07
-5.84022e-08
1.07599e-07
5.69571e-08
-6.1712e-08
1.06424e-07
-1.4483e-08
-5.24742e-08
1.07876e-07
-6.84673e-08
-7.81055e-08
9.87744e-08
-1.25077e-07
-7.431e-08
9.93997e-08
-1.5344e-07
-1.16898e-07
8.48324e-08
-1.8365e-07
-1.17613e-07
8.56799e-08
-1.823e-07
-1.67876e-07
6.97791e-08
-1.84288e-07
-1.70255e-07
7.19476e-08
-1.59585e-07
-2.15892e-07
5.81496e-08
-1.42232e-07
-2.12496e-07
6.08722e-08
-1.09052e-07
-2.38521e-07
4.92098e-08
-8.64992e-08
-2.24583e-07
4.99975e-08
-5.70288e-08
-2.44037e-07
4.56338e-08
-3.06285e-08
-2.69756e-07
5.85826e-08
-2.71833e-07
6.17813e-08
3.21915e-07
-5.86603e-07
3.15056e-07
1.50445e-07
-5.33071e-07
-2.45771e-08
1.63144e-07
-5.19751e-07
9.80812e-08
2.44965e-07
-4.42572e-07
3.82934e-08
3.01428e-07
-4.61631e-07
7.52686e-08
3.66935e-07
-4.2304e-07
8.37276e-08
4.16532e-07
-4.17416e-07
9.30212e-08
4.44128e-07
-3.6386e-07
1.11982e-07
4.60136e-07
-3.43597e-07
1.17142e-07
4.43782e-07
-2.85824e-07
1.38654e-07
4.15616e-07
-2.61951e-07
1.44547e-07
3.58073e-07
-2.14267e-07
1.63063e-07
2.89432e-07
-1.91491e-07
1.68601e-07
2.04724e-07
-1.66203e-07
1.78498e-07
1.11774e-07
-1.47492e-07
1.8204e-07
2.20027e-08
-1.52099e-07
1.80158e-07
-7.19277e-08
-1.39366e-07
1.80822e-07
-1.43353e-07
-1.73822e-07
1.67142e-07
-2.1514e-07
-1.67848e-07
1.65325e-07
-2.5131e-07
-2.2429e-07
1.43562e-07
-2.86443e-07
-2.23498e-07
1.41019e-07
-2.82765e-07
-2.88681e-07
1.17127e-07
-2.80139e-07
-2.88655e-07
1.15774e-07
-2.45312e-07
-3.4532e-07
9.46007e-08
-2.16653e-07
-3.3488e-07
9.37247e-08
-1.68724e-07
-3.61708e-07
7.52588e-08
-1.30942e-07
-3.33997e-07
7.16312e-08
-8.49889e-08
-3.51883e-07
6.18939e-08
-4.34679e-08
-3.84527e-07
7.32507e-08
-3.89922e-07
7.46208e-08
-1.98986e-08
-5.39968e-07
-2.6736e-08
9.58982e-08
-7.05953e-07
5.70858e-08
1.72948e-07
-5.91985e-07
-4.81682e-09
2.49411e-07
-5.86769e-07
6.77342e-08
3.28122e-07
-5.93494e-07
5.3152e-08
3.79058e-07
-5.66723e-07
9.27462e-08
4.34544e-07
-5.60791e-07
8.78893e-08
4.55303e-07
-4.98006e-07
1.13387e-07
4.73149e-07
-4.74659e-07
1.13217e-07
4.53653e-07
-4.02476e-07
1.36148e-07
4.2586e-07
-3.73532e-07
1.39375e-07
3.66124e-07
-3.12996e-07
1.58465e-07
2.96529e-07
-2.84796e-07
1.62901e-07
2.09598e-07
-2.52544e-07
1.73273e-07
1.14375e-07
-2.2926e-07
1.7699e-07
2.23036e-08
-2.35331e-07
1.75303e-07
-7.47504e-08
-2.19464e-07
1.77152e-07
-1.47992e-07
-2.63702e-07
1.63122e-07
-2.22769e-07
-2.56315e-07
1.63244e-07
-2.59755e-07
-3.28165e-07
1.40861e-07
-2.97003e-07
-3.27011e-07
1.40761e-07
-2.93002e-07
-4.08991e-07
1.16309e-07
-2.91304e-07
-4.07795e-07
1.17442e-07
-2.55318e-07
-4.76946e-07
9.564e-08
-2.26443e-07
-4.60165e-07
9.64099e-08
-1.7655e-07
-4.88e-07
7.63982e-08
-1.37029e-07
-4.45924e-07
7.24072e-08
-8.80112e-08
-4.61597e-07
6.06957e-08
-4.40385e-08
-5.01804e-07
7.33035e-08
-5.1076e-07
7.67999e-08
1.33506e-07
-7.99895e-07
1.2642e-07
1.83034e-07
-8.34735e-07
7.92538e-08
2.74236e-07
-7.72847e-07
8.96605e-08
3.48427e-07
-7.49388e-07
8.84285e-08
4.32025e-07
-7.84711e-07
1.07619e-07
4.96067e-07
-7.62317e-07
1.31552e-07
5.58396e-07
-7.63755e-07
1.40636e-07
5.85507e-07
-6.95732e-07
1.70614e-07
6.03257e-07
-6.70852e-07
1.78443e-07
5.76635e-07
-5.87852e-07
2.11998e-07
5.36037e-07
-5.54468e-07
2.21534e-07
4.55026e-07
-4.8295e-07
2.50965e-07
3.59745e-07
-4.49504e-07
2.59988e-07
2.42013e-07
-4.10728e-07
2.75917e-07
1.13849e-07
-3.82684e-07
2.81588e-07
-1.01546e-08
-3.89693e-07
2.78366e-07
-1.38737e-07
-3.70207e-07
2.79327e-07
-2.36391e-07
-4.22981e-07
2.56932e-07
-3.33277e-07
-4.13176e-07
2.53748e-07
-3.8184e-07
-4.98343e-07
2.18741e-07
-4.27728e-07
-4.95301e-07
2.14178e-07
-4.22005e-07
-5.9107e-07
1.76355e-07
-4.16272e-07
-5.8669e-07
1.73162e-07
-3.68351e-07
-6.64707e-07
1.3984e-07
-3.26336e-07
-6.39063e-07
1.36883e-07
-2.58385e-07
-6.63853e-07
1.07902e-07
-2.00291e-07
-6.04586e-07
1.00568e-07
-1.30227e-07
-6.15401e-07
8.37392e-08
-6.48332e-08
-6.64205e-07
9.70074e-08
-6.73646e-07
9.8053e-08
7.82723e-08
-9.49466e-07
7.1299e-08
1.76715e-07
-1.00925e-06
7.60678e-08
2.65681e-07
-9.14846e-07
5.3032e-08
3.44681e-07
-9.10325e-07
8.19364e-08
4.27791e-07
-9.54382e-07
8.6561e-08
4.86691e-07
-9.41046e-07
1.19829e-07
5.48909e-07
-9.46354e-07
1.20382e-07
5.72644e-07
-8.71321e-07
1.51854e-07
5.92539e-07
-8.43854e-07
1.53108e-07
5.66068e-07
-7.47669e-07
1.86288e-07
5.29948e-07
-7.09097e-07
1.90748e-07
4.52013e-07
-6.24851e-07
2.19837e-07
3.62338e-07
-5.85794e-07
2.25965e-07
2.49265e-07
-5.39623e-07
2.41969e-07
1.25949e-07
-5.06808e-07
2.47439e-07
6.60801e-09
-5.14825e-07
2.44474e-07
-1.19361e-07
-4.91906e-07
2.47668e-07
-2.13465e-07
-5.54076e-07
2.25198e-07
-3.10323e-07
-5.42681e-07
2.26362e-07
-3.57167e-07
-6.42635e-07
1.91137e-07
-4.05268e-07
-6.39198e-07
1.91997e-07
-3.99877e-07
-7.50556e-07
1.54096e-07
-3.97948e-07
-7.44905e-07
1.56286e-07
-3.52168e-07
-8.33293e-07
1.22806e-07
-3.14789e-07
-8.00306e-07
1.23864e-07
-2.49929e-07
-8.22488e-07
9.37746e-08
-1.95828e-07
-7.46766e-07
8.80785e-08
-1.27918e-07
-7.54261e-07
7.09511e-08
-6.40535e-08
-8.18275e-07
9.02051e-08
-8.37017e-07
9.93174e-08
1.26726e-07
-1.19564e-06
1.19444e-07
2.38807e-07
-1.2283e-06
1.06975e-07
3.56141e-07
-1.12567e-06
9.34879e-08
4.50436e-07
-1.11808e-06
1.13457e-07
5.54084e-07
-1.18807e-06
1.30036e-07
6.28569e-07
-1.18572e-06
1.70191e-07
7.05898e-07
-1.20436e-06
1.80674e-07
7.37054e-07
-1.13005e-06
2.27577e-07
7.60478e-07
-1.10618e-06
2.38901e-07
7.25571e-07
-1.00453e-06
2.9177e-07
6.75281e-07
-9.65141e-07
3.06335e-07
5.70467e-07
-8.73709e-07
3.53672e-07
4.48547e-07
-8.31654e-07
3.6778e-07
2.9558e-07
-7.80439e-07
3.93783e-07
1.29644e-07
-7.43477e-07
4.02604e-07
-3.08474e-08
-7.51388e-07
3.97054e-07
-1.97839e-07
-7.23635e-07
3.9872e-07
-3.22823e-07
-7.90876e-07
3.61784e-07
-4.47697e-07
-7.74674e-07
3.56867e-07
-5.08031e-07
-8.82584e-07
3.00283e-07
-5.66148e-07
-8.74241e-07
2.9316e-07
-5.57126e-07
-9.92763e-07
2.33185e-07
-5.49303e-07
-9.80492e-07
2.27764e-07
-4.87985e-07
-1.07028e-06
1.75674e-07
-4.34557e-07
-1.02419e-06
1.70457e-07
-3.48219e-07
-1.03525e-06
1.26427e-07
-2.7265e-07
-9.38215e-07
1.1588e-07
-1.80294e-07
-9.38705e-07
9.20882e-08
-9.07496e-08
-1.02312e-06
1.15305e-07
-1.05403e-06
1.26268e-07
1.1751e-07
-1.42362e-06
1.10474e-07
2.3539e-07
-1.43936e-06
9.3175e-08
3.44339e-07
-1.3002e-06
6.55846e-08
4.33903e-07
-1.29962e-06
9.19816e-08
5.29605e-07
-1.38728e-06
1.03515e-07
5.96964e-07
-1.39998e-06
1.46902e-07
6.70809e-07
-1.4284e-06
1.50195e-07
6.98831e-07
-1.35452e-06
1.96445e-07
7.24863e-07
-1.33127e-06
1.99054e-07
6.92385e-07
-1.22224e-06
2.50191e-07
6.50328e-07
-1.17948e-06
2.56395e-07
5.53263e-07
-1.07894e-06
3.02294e-07
4.43155e-07
-1.03226e-06
3.10713e-07
3.01341e-07
-9.74806e-07
3.36182e-07
1.47181e-07
-9.33337e-07
3.4402e-07
-2.17521e-09
-9.40879e-07
3.38848e-07
-1.60869e-07
-9.09197e-07
3.44256e-07
-2.77299e-07
-9.82178e-07
3.07733e-07
-3.99555e-07
-9.63183e-07
3.10765e-07
-4.56084e-07
-1.08051e-06
2.54455e-07
-5.16837e-07
-1.07018e-06
2.56692e-07
-5.09135e-07
-1.19746e-06
1.96992e-07
-5.08083e-07
-1.18164e-06
2.001e-07
-4.52613e-07
-1.27355e-06
1.47796e-07
-4.0889e-07
-1.21623e-06
1.48314e-07
-3.3086e-07
-1.21542e-06
1.0214e-07
-2.64165e-07
-1.09831e-06
9.3399e-08
-1.77436e-07
-1.09436e-06
6.89246e-08
-9.10439e-08
-1.21183e-06
1.02313e-07
-1.27345e-06
1.28373e-07
1.54657e-07
-1.72556e-06
1.47279e-07
3.01845e-07
-1.70996e-06
1.23411e-07
4.40273e-07
-1.53208e-06
9.34509e-08
5.51762e-07
-1.53798e-06
1.26871e-07
6.71484e-07
-1.65609e-06
1.49089e-07
7.57837e-07
-1.69662e-06
2.10288e-07
8.51917e-07
-1.74822e-06
2.25743e-07
8.9102e-07
-1.69026e-06
2.96634e-07
9.24847e-07
-1.67889e-06
3.13797e-07
8.84957e-07
-1.57701e-06
3.94657e-07
8.28517e-07
-1.53959e-06
4.16552e-07
7.00274e-07
-1.44095e-06
4.90256e-07
5.51947e-07
-1.3952e-06
5.11274e-07
3.61525e-07
-1.33684e-06
5.52454e-07
1.55299e-07
-1.29241e-06
5.653e-07
-4.41859e-08
-1.29787e-06
5.5648e-07
-2.53396e-07
-1.25959e-06
5.59608e-07
-4.07044e-07
-1.32996e-06
5.01429e-07
-5.62618e-07
-1.30216e-06
4.94552e-07
-6.34022e-07
-1.41574e-06
4.06636e-07
-7.05191e-07
-1.39508e-06
3.96067e-07
-6.91426e-07
-1.51552e-06
3.04302e-07
-6.82268e-07
-1.48619e-06
2.95388e-07
-6.08473e-07
-1.56386e-06
2.16516e-07
-5.47243e-07
-1.48451e-06
2.07049e-07
-4.4651e-07
-1.45681e-06
1.40652e-07
-3.56833e-07
-1.31134e-06
1.23354e-07
-2.4217e-07
-1.29748e-06
8.84541e-08
-1.24277e-07
-1.45761e-06
1.27888e-07
-1.55884e-06
1.61107e-07
1.58033e-07
-2.03464e-06
1.51056e-07
3.05148e-07
-1.96654e-06
1.09469e-07
4.32916e-07
-1.72758e-06
6.77354e-08
5.29984e-07
-1.74021e-06
1.0516e-07
6.32965e-07
-1.88592e-06
1.26845e-07
7.05068e-07
-1.95897e-06
1.9024e-07
7.90901e-07
-2.03165e-06
1.97597e-07
8.25214e-07
-1.9902e-06
2.65632e-07
8.61725e-07
-1.98567e-06
2.70268e-07
8.26178e-07
-1.88818e-06
3.46717e-07
7.8167e-07
-1.85e-06
3.54918e-07
6.66099e-07
-1.7499e-06
4.2452e-07
5.36503e-07
-1.70041e-06
4.34806e-07
3.64728e-07
-1.63878e-06
4.73714e-07
1.78414e-07
-1.5898e-06
4.83706e-07
-2.2718e-09
-1.59238e-06
4.75195e-07
-1.96693e-07
-1.55011e-06
4.84941e-07
-3.36264e-07
-1.61893e-06
4.28546e-07
-4.86573e-07
-1.58754e-06
4.35683e-07
-5.5256e-07
-1.69994e-06
3.50183e-07
-6.27175e-07
-1.67555e-06
3.55094e-07
-6.16863e-07
-1.79155e-06
2.65709e-07
-6.18678e-07
-1.75423e-06
2.69854e-07
-5.57114e-07
-1.81747e-06
1.92044e-07
-5.14076e-07
-1.71802e-06
1.90469e-07
-4.30908e-07
-1.66031e-06
1.20336e-07
-3.56955e-07
-1.48769e-06
1.024e-07
-2.49953e-07
-1.4679e-06
6.342e-08
-1.31492e-07
-1.6903e-06
1.14234e-07
-1.85916e-06
1.68838e-07
1.99501e-07
-2.42622e-06
1.92075e-07
3.83633e-07
-2.29374e-06
1.43069e-07
5.37701e-07
-1.98177e-06
1.00115e-07
6.50348e-07
-2.00778e-06
1.54922e-07
7.69413e-07
-2.19708e-06
1.921e-07
8.57083e-07
-2.32586e-06
2.7922e-07
9.64289e-07
-2.43907e-06
3.00212e-07
1.01416e-06
-2.43724e-06
3.97166e-07
1.06435e-06
-2.45505e-06
4.19186e-07
1.02644e-06
-2.38206e-06
5.318e-07
9.71473e-07
-2.35538e-06
5.60339e-07
8.26178e-07
-2.26954e-06
6.64941e-07
6.58089e-07
-2.22432e-06
6.91992e-07
4.35501e-07
-2.16736e-06
7.51167e-07
1.94265e-07
-2.11598e-06
7.67415e-07
-3.93739e-08
-2.11373e-06
7.54983e-07
-2.87806e-07
-2.06362e-06
7.61934e-07
-4.66512e-07
-2.11927e-06
6.79042e-07
-6.51061e-07
-2.076e-06
6.73017e-07
-7.30669e-07
-2.16915e-06
5.48819e-07
-8.13696e-07
-2.12979e-06
5.37262e-07
-7.94437e-07
-2.22057e-06
4.09769e-07
-7.86605e-07
-2.16184e-06
3.99778e-07
-7.07995e-07
-2.18771e-06
2.91634e-07
-6.53417e-07
-2.05125e-06
2.78653e-07
-5.56776e-07
-1.94006e-06
1.83108e-07
-4.67716e-07
-1.72692e-06
1.50171e-07
-3.33338e-07
-1.69396e-06
9.16805e-08
-1.74518e-07
-1.99385e-06
1.44724e-07
-2.24321e-06
2.09523e-07
2.22494e-07
-2.86434e-06
2.15622e-07
4.17482e-07
-2.64075e-06
1.52024e-07
5.56703e-07
-2.22959e-06
1.08608e-07
6.3757e-07
-2.26778e-06
1.79136e-07
7.2094e-07
-2.50442e-06
2.23964e-07
7.81059e-07
-2.69808e-06
3.12108e-07
8.73605e-07
-2.85221e-06
3.20593e-07
9.18015e-07
-2.88852e-06
4.0687e-07
9.72337e-07
-2.91898e-06
4.0961e-07
9.42181e-07
-2.86252e-06
5.1061e-07
9.03438e-07
-2.83476e-06
5.18131e-07
7.76506e-07
-2.75526e-06
6.12645e-07
6.34119e-07
-2.70398e-06
6.22048e-07
4.37911e-07
-2.6463e-06
6.75153e-07
2.24331e-07
-2.58837e-06
6.85973e-07
1.74105e-08
-2.58039e-06
6.73585e-07
-2.10416e-07
-2.52717e-06
6.91382e-07
-3.69848e-07
-2.5734e-06
6.13562e-07
-5.46526e-07
-2.52969e-06
6.30366e-07
-6.19403e-07
-2.61054e-06
5.1427e-07
-7.06044e-07
-2.57034e-06
5.27189e-07
-6.92159e-07
-2.64458e-06
4.10119e-07
-6.99058e-07
-2.57579e-06
4.20845e-07
-6.4175e-07
-2.56735e-06
3.2233e-07
-6.20189e-07
-2.39442e-06
3.21613e-07
-5.61773e-07
-2.22222e-06
2.23739e-07
-5.04838e-07
-1.9646e-06
1.80743e-07
-3.80405e-07
-1.92164e-06
1.03254e-07
-2.04035e-07
-2.32517e-06
1.5495e-07
-2.6836e-06
2.36361e-07
2.81656e-07
-3.42012e-06
2.74126e-07
5.2649e-07
-3.10313e-06
2.17548e-07
6.75596e-07
-2.57618e-06
1.97478e-07
7.40872e-07
-2.64266e-06
3.09605e-07
8.11508e-07
-2.9553e-06
3.80246e-07
8.73089e-07
-3.24939e-06
4.89728e-07
9.85624e-07
-3.46802e-06
5.03274e-07
1.05235e-06
-3.56361e-06
6.08365e-07
1.1295e-06
-3.61802e-06
6.21894e-07
1.10754e-06
-3.59325e-06
7.52692e-07
1.06813e-06
-3.57382e-06
7.78462e-07
9.22062e-07
-3.51412e-06
9.04933e-07
7.50461e-07
-3.46382e-06
9.31447e-07
5.12649e-07
-3.4123e-06
1.00382e-06
2.52795e-07
-3.34975e-06
1.02123e-06
-9.00219e-10
-3.33324e-06
1.00654e-06
-2.74077e-07
-3.27557e-06
1.02158e-06
-4.67269e-07
-3.30109e-06
9.20882e-07
-6.71965e-07
-3.25026e-06
9.25262e-07
-7.54201e-07
-3.30486e-06
7.76554e-07
-8.44198e-07
-3.25674e-06
7.76404e-07
-8.17258e-07
-3.30076e-06
6.29247e-07
-8.12028e-07
-3.21455e-06
6.33538e-07
-7.42136e-07
-3.15318e-06
5.15935e-07
-7.25781e-07
-2.92371e-06
5.12932e-07
-6.84682e-07
-2.656e-06
3.92685e-07
-6.44916e-07
-2.32667e-06
3.22301e-07
-5.06749e-07
-2.25758e-06
1.97776e-07
-2.71467e-07
-2.78317e-06
2.2272e-07
-3.25279e-06
2.97719e-07
3.50855e-07
-4.11522e-06
3.44245e-07
6.36085e-07
-3.6995e-06
3.11137e-07
7.53953e-07
-3.03379e-06
3.3974e-07
7.50572e-07
-3.14775e-06
5.08468e-07
7.55585e-07
-3.56658e-06
6.06269e-07
7.79069e-07
-3.98502e-06
7.1214e-07
8.79578e-07
-4.26747e-06
6.9895e-07
9.48987e-07
-4.40663e-06
7.73609e-07
1.03595e-06
-4.46017e-06
7.55184e-07
1.02645e-06
-4.4429e-06
8.59152e-07
1.00517e-06
-4.4088e-06
8.56263e-07
8.80182e-07
-4.35095e-06
9.61816e-07
7.35462e-07
-4.28524e-06
9.66136e-07
5.25154e-07
-4.2288e-06
1.0268e-06
2.92e-07
-4.15518e-06
1.03858e-06
6.4511e-08
-4.13012e-06
1.02437e-06
-1.8988e-07
-4.07347e-06
1.05229e-06
-3.6655e-07
-4.08939e-06
9.64976e-07
-5.65381e-07
-4.04913e-06
9.97706e-07
-6.44683e-07
-4.09815e-06
8.72596e-07
-7.39138e-07
-4.06859e-06
9.06299e-07
-7.16855e-07
-4.11084e-06
7.87797e-07
-7.21864e-07
-4.0359e-06
8.26357e-07
-6.72659e-07
-3.94187e-06
7.3949e-07
-7.00807e-07
-3.65939e-06
7.63827e-07
-7.28645e-07
-3.27418e-06
6.46015e-07
-7.58045e-07
-2.84116e-06
5.43896e-07
-6.44504e-07
-2.72559e-06
3.54465e-07
-3.54778e-07
-3.39607e-06
3.2317e-07
-3.98018e-06
3.72617e-07
4.40921e-07
-4.99022e-06
4.34086e-07
7.83949e-07
-4.50249e-06
4.59966e-07
8.61808e-07
-3.69455e-06
5.829e-07
7.85384e-07
-3.92153e-06
8.50201e-07
7.4705e-07
-4.5253e-06
9.97049e-07
7.73604e-07
-5.12701e-06
1.11544e-06
9.09679e-07
-5.48729e-06
1.08374e-06
1.01729e-06
-5.6636e-06
1.14936e-06
1.13701e-06
-5.70287e-06
1.12299e-06
1.14432e-06
-5.68605e-06
1.23584e-06
1.1306e-06
-5.6353e-06
1.24021e-06
9.99334e-07
-5.58199e-06
1.36231e-06
8.388e-07
-5.50355e-06
1.37885e-06
6.02641e-07
-5.44295e-06
1.45031e-06
3.37678e-07
-5.35931e-06
1.46909e-06
7.72753e-08
-5.32336e-06
1.45365e-06
-2.11392e-07
-5.26781e-06
1.48301e-06
-4.161e-07
-5.27007e-06
1.38538e-06
-6.40001e-07
-5.24088e-06
1.41565e-06
-7.30558e-07
-5.28486e-06
1.27726e-06
-8.29495e-07
-5.28156e-06
1.31191e-06
-7.91732e-07
-5.33513e-06
1.18653e-06
-7.73495e-07
-5.29136e-06
1.23722e-06
-6.97659e-07
-5.17705e-06
1.15934e-06
-7.27759e-07
-4.83375e-06
1.20447e-06
-8.00882e-07
-4.27464e-06
1.07359e-06
-9.03473e-07
-3.65558e-06
9.17006e-07
-8.25179e-07
-3.42386e-06
6.19976e-07
-4.63019e-07
-4.24282e-06
4.84593e-07
-4.91259e-06
4.69384e-07
5.49387e-07
-6.08487e-06
5.45261e-07
9.40687e-07
-5.5501e-06
6.56304e-07
9.54274e-07
-4.61776e-06
9.0963e-07
8.0264e-07
-5.07873e-06
1.30884e-06
7.38105e-07
-5.99189e-06
1.53113e-06
7.88894e-07
-6.83903e-06
1.66123e-06
9.62129e-07
-7.25616e-06
1.59563e-06
1.09382e-06
-7.41299e-06
1.6177e-06
1.21907e-06
-7.38767e-06
1.55956e-06
1.22157e-06
-7.33113e-06
1.64258e-06
1.20101e-06
-7.24298e-06
1.62824e-06
1.0661e-06
-7.17894e-06
1.73187e-06
9.0268e-07
-7.07917e-06
1.73903e-06
6.61166e-07
-7.0044e-06
1.80296e-06
3.86294e-07
-6.90731e-06
1.82287e-06
1.12852e-07
-6.85795e-06
1.80803e-06
-1.9324e-07
-6.80746e-06
1.84574e-06
-4.20956e-07
-6.80438e-06
1.76203e-06
-6.75567e-07
-6.79808e-06
1.8118e-06
-7.99484e-07
-6.8604e-06
1.69945e-06
-9.30054e-07
-6.91002e-06
1.75902e-06
-9.07735e-07
-7.02291e-06
1.66546e-06
-8.81266e-07
-7.06468e-06
1.74685e-06
-7.74794e-07
-6.99287e-06
1.70935e-06
-7.78212e-07
-6.61607e-06
1.78574e-06
-8.68251e-07
-5.82587e-06
1.64126e-06
-1.03798e-06
-4.88755e-06
1.4017e-06
-1.01791e-06
-4.40841e-06
9.64483e-07
-5.92807e-07
-5.35755e-06
6.89632e-07
-6.08929e-06
5.83895e-07
5.59046e-07
-7.19961e-06
5.55691e-07
9.42515e-07
-6.62998e-06
6.96417e-07
9.03784e-07
-5.65738e-06
1.07835e-06
7.64014e-07
-6.57707e-06
1.63811e-06
8.05578e-07
-8.00855e-06
1.9751e-06
9.99325e-07
-9.1908e-06
2.15803e-06
1.27816e-06
-9.61766e-06
2.08267e-06
1.44748e-06
-9.6877e-06
2.10539e-06
1.566e-06
-9.56466e-06
2.05846e-06
1.53506e-06
-9.46856e-06
2.16837e-06
1.47486e-06
-9.36806e-06
2.18529e-06
1.29843e-06
-9.32456e-06
2.32205e-06
1.08676e-06
-9.23022e-06
2.36272e-06
7.87805e-07
-9.15478e-06
2.44934e-06
4.46289e-07
-9.05229e-06
2.4865e-06
1.00662e-07
-8.98202e-06
2.4697e-06
-2.8134e-07
-8.92586e-06
2.50041e-06
-5.89485e-07
-8.89615e-06
2.39992e-06
-9.2728e-07
-8.88822e-06
2.42794e-06
-1.12926e-06
-8.94568e-06
2.28727e-06
-1.33037e-06
-9.02901e-06
2.32009e-06
-1.34132e-06
-9.20686e-06
2.1949e-06
-1.29547e-06
-9.36885e-06
2.25833e-06
-1.0877e-06
-9.40946e-06
2.20881e-06
-9.34822e-07
-9.05776e-06
2.28882e-06
-8.89189e-07
-7.96264e-06
2.09115e-06
-1.02319e-06
-6.48723e-06
1.73368e-06
-1.04678e-06
-5.51625e-06
1.13142e-06
-6.20932e-07
-6.51025e-06
7.26857e-07
-7.30481e-06
5.94591e-07
4.21066e-07
-8.03583e-06
4.15166e-07
8.40053e-07
-7.43943e-06
3.90474e-07
1.0041e-06
-6.64968e-06
8.28269e-07
1.18817e-06
-8.31986e-06
1.55872e-06
1.60767e-06
-1.04965e-05
2.06845e-06
2.10205e-06
-1.20556e-05
2.37046e-06
2.50569e-06
-1.23636e-05
2.34227e-06
2.63841e-06
-1.22438e-05
2.42337e-06
2.62952e-06
-1.20073e-05
2.45155e-06
2.43779e-06
-1.19097e-05
2.63284e-06
2.21458e-06
-1.18696e-05
2.7248e-06
1.88697e-06
-1.19195e-05
2.92261e-06
1.51497e-06
-1.18844e-05
3.02616e-06
1.03518e-06
-1.18359e-05
3.16088e-06
4.88623e-07
-1.17355e-05
3.22977e-06
-7.66701e-08
-1.16255e-05
3.20883e-06
-6.75203e-07
-1.15442e-05
3.21684e-06
-1.19728e-06
-1.14466e-05
3.07257e-06
-1.74733e-06
-1.13825e-05
3.04435e-06
-2.16016e-06
-1.13726e-05
2.8398e-06
-2.56221e-06
-1.14192e-05
2.79228e-06
-2.72254e-06
-1.16245e-05
2.57802e-06
-2.72085e-06
-1.19146e-05
2.54405e-06
-2.38108e-06
-1.21569e-05
2.40772e-06
-1.89625e-06
-1.19609e-05
2.41832e-06
-1.41089e-06
-1.05534e-05
2.10543e-06
-1.15878e-06
-8.31462e-06
1.57529e-06
-9.49968e-07
-6.53687e-06
8.11816e-07
-4.83832e-07
-7.33949e-06
3.63114e-07
-8.21487e-06
4.26238e-07
-1.66327e-07
-7.66248e-06
-2.06999e-07
4.58317e-07
-7.30727e-06
-7.56776e-07
1.40839e-06
-7.11755e-06
-4.82177e-07
2.41145e-06
-9.59001e-06
2.67123e-07
3.50743e-06
-1.25243e-05
9.31877e-07
4.39175e-06
-1.43798e-05
1.43992e-06
4.8674e-06
-1.44234e-05
1.58421e-06
4.8258e-06
-1.40545e-05
1.85232e-06
4.52772e-06
-1.37616e-05
2.0524e-06
4.01965e-06
-1.37931e-05
2.39156e-06
3.50121e-06
-1.39707e-05
2.61954e-06
2.90954e-06
-1.42629e-05
2.93512e-06
2.25926e-06
-1.43845e-05
3.1505e-06
1.45452e-06
-1.44105e-05
3.37946e-06
5.17833e-07
-1.43097e-05
3.51092e-06
-4.75807e-07
-1.41192e-05
3.48736e-06
-1.47903e-06
-1.39845e-05
3.44357e-06
-2.37443e-06
-1.37585e-05
3.20727e-06
-3.28173e-06
-1.35407e-05
3.06553e-06
-4.05134e-06
-1.33319e-05
2.72891e-06
-4.81011e-06
-1.31873e-05
2.52693e-06
-5.27049e-06
-1.32899e-05
2.12576e-06
-5.42829e-06
-1.36439e-05
1.88714e-06
-4.98325e-06
-1.4124e-05
1.52205e-06
-4.05277e-06
-1.42148e-05
1.32346e-06
-2.80001e-06
-1.26072e-05
8.01104e-07
-1.62689e-06
-9.61636e-06
1.2866e-07
-5.60809e-07
-6.97985e-06
-6.23077e-07
1.27202e-07
-7.14492e-06
-8.82544e-07
-7.84239e-06
-2.45245e-07
-7.67401e-07
-6.00288e-06
-8.92136e-07
7.77432e-07
-6.78209e-06
-2.06995e-06
3.61189e-06
-7.6713e-06
-2.28065e-06
6.20151e-06
-1.03205e-05
-1.85906e-06
8.23716e-06
-1.33496e-05
-1.21022e-06
9.43227e-06
-1.51656e-05
-4.09251e-07
9.78946e-06
-1.49028e-05
1.22294e-07
9.33329e-06
-1.42737e-05
6.75557e-07
8.45416e-06
-1.39901e-05
1.10774e-06
7.3249e-06
-1.4277e-05
1.61326e-06
6.20245e-06
-1.48332e-05
1.98506e-06
5.04648e-06
-1.55177e-05
2.41084e-06
3.79236e-06
-1.58783e-05
2.74803e-06
2.27284e-06
-1.59876e-05
3.09671e-06
4.38945e-07
-1.58021e-05
3.3265e-06
-1.54603e-06
-1.54529e-05
3.31876e-06
-3.43266e-06
-1.52996e-05
3.20194e-06
-5.06384e-06
-1.49802e-05
2.85308e-06
-6.62818e-06
-1.45539e-05
2.57769e-06
-8.02456e-06
-1.40448e-05
2.10943e-06
-9.38591e-06
-1.35615e-05
1.73564e-06
-1.03772e-05
-1.34387e-05
1.1403e-06
-1.08769e-05
-1.37817e-05
6.37636e-07
-1.04559e-05
-1.45005e-05
-4.43644e-08
-9.09655e-06
-1.49128e-05
-6.61253e-07
-6.78875e-06
-1.34055e-05
-1.50941e-06
-3.91392e-06
-1.03308e-05
-2.16027e-06
-8.74064e-07
-7.46696e-06
-2.55268e-06
7.55575e-07
-6.47165e-06
-2.30285e-06
-6.09518e-06
-9.91562e-07
-6.21525e-07
-4.51125e-06
-8.70028e-07
2.44784e-06
-7.57324e-06
-2.27812e-06
7.70091e-06
-9.72058e-06
-3.20366e-06
1.22395e-05
-1.14293e-05
-3.42958e-06
1.51672e-05
-1.31467e-05
-3.13041e-06
1.62981e-05
-1.39603e-05
-2.3359e-06
1.61159e-05
-1.31697e-05
-1.55063e-06
1.49271e-05
-1.21903e-05
-8.94436e-07
1.32195e-05
-1.18263e-05
-4.56038e-07
1.12599e-05
-1.22982e-05
-1.89444e-08
9.34419e-06
-1.32135e-05
2.96282e-07
7.46856e-06
-1.4309e-05
6.6724e-07
5.49455e-06
-1.49065e-05
1.00252e-06
3.14628e-06
-1.50426e-05
1.40362e-06
1.81681e-07
-1.45547e-05
1.71747e-06
-3.10019e-06
-1.39499e-05
1.77918e-06
-6.0782e-06
-1.39578e-05
1.63644e-06
-8.54e-06
-1.37936e-05
1.2755e-06
-1.08348e-05
-1.32499e-05
9.91043e-07
-1.29449e-05
-1.25045e-05
5.69996e-07
-1.50078e-05
-1.17317e-05
2.33465e-07
-1.66832e-05
-1.14576e-05
-3.05527e-07
-1.77607e-05
-1.18779e-05
-8.26101e-07
-1.7715e-05
-1.29265e-05
-1.61935e-06
-1.6263e-05
-1.38551e-05
-2.50943e-06
-1.29602e-05
-1.32736e-05
-3.43447e-06
-8.05647e-06
-1.1455e-05
-3.77932e-06
-2.54244e-06
-9.42941e-06
-3.55145e-06
6.19729e-07
-7.0409e-06
-2.59282e-06
-4.46548e-06
-1.0099e-06
1.79812e-06
-7.76542e-06
1.45622e-06
7.01341e-06
-1.41313e-05
1.34306e-06
1.40595e-05
-1.71523e-05
3.86038e-07
2.00375e-05
-1.70691e-05
-3.37876e-07
2.36149e-05
-1.61278e-05
-5.95897e-07
2.45498e-05
-1.44423e-05
-4.52527e-07
2.37019e-05
-1.21959e-05
-1.2565e-07
2.17228e-05
-1.02752e-05
6.43165e-08
1.91249e-05
-9.29379e-06
6.56456e-08
1.61813e-05
-9.44501e-06
9.06552e-08
1.32051e-05
-1.03291e-05
9.2085e-08
1.02649e-05
-1.16075e-05
2.38971e-07
7.26747e-06
-1.23725e-05
4.63769e-07
3.86601e-06
-1.25228e-05
8.82075e-07
-5.1026e-07
-1.14676e-05
1.28953e-06
-5.35192e-06
-1.06483e-05
1.54042e-06
-9.59615e-06
-1.11183e-05
1.40512e-06
-1.29568e-05
-1.15339e-05
1.10128e-06
-1.60368e-05
-1.10759e-05
9.0627e-07
-1.88865e-05
-1.03585e-05
7.04081e-07
-2.15965e-05
-9.67719e-06
6.55722e-07
-2.38747e-05
-9.69915e-06
5.20037e-07
-2.5481e-05
-1.06834e-05
4.11959e-07
-2.5908e-05
-1.25576e-05
5.83306e-08
-2.45672e-05
-1.47555e-05
-4.40055e-07
-2.06252e-05
-1.63765e-05
-8.38761e-07
-1.43045e-05
-1.70259e-05
-7.4951e-07
-6.99118e-06
-1.66033e-05
-1.38982e-07
-1.70611e-06
-1.31342e-05
8.08525e-07
-7.34375e-06
1.17232e-06
5.53385e-06
-1.85112e-05
5.2125e-06
1.23945e-05
-2.8601e-05
7.61003e-06
1.9226e-05
-3.15742e-05
7.59163e-06
2.45978e-05
-2.9485e-05
7.04522e-06
2.75402e-05
-2.54982e-05
6.42886e-06
2.79606e-05
-2.0604e-05
5.74208e-06
2.66349e-05
-1.58615e-05
4.9919e-06
2.42576e-05
-1.1971e-05
4.07352e-06
2.126e-05
-9.32609e-06
3.03023e-06
1.78152e-05
-8.12355e-06
2.12368e-06
1.4162e-05
-8.08123e-06
1.40564e-06
1.04142e-05
-8.90666e-06
1.04724e-06
6.71916e-06
-9.643e-06
9.65992e-07
2.84959e-06
-9.91617e-06
1.26329e-06
-1.78423e-06
-8.47548e-06
1.64209e-06
-6.56404e-06
-8.07323e-06
2.20514e-06
-1.08641e-05
-8.9799e-06
2.16207e-06
-1.43816e-05
-1.00952e-05
2.07921e-06
-1.76804e-05
-9.90786e-06
2.13119e-06
-2.07859e-05
-9.63455e-06
2.38185e-06
-2.36398e-05
-9.79041e-06
2.96751e-06
-2.60747e-05
-1.09445e-05
3.68072e-06
-2.79144e-05
-1.33806e-05
4.53737e-06
-2.87612e-05
-1.69237e-05
5.2135e-06
-2.79795e-05
-2.12496e-05
5.71314e-06
-2.47718e-05
-2.56717e-05
6.08841e-06
-1.91591e-05
-2.90988e-05
6.46113e-06
-1.21079e-05
-3.04792e-05
6.82576e-06
-5.24247e-06
-2.6796e-05
6.79727e-06
-1.72638e-05
4.67807e-06
8.15404e-06
-3.46549e-05
7.99096e-06
1.5134e-05
-4.71977e-05
1.16186e-05
2.01015e-05
-4.91196e-05
1.25797e-05
2.329e-05
-4.54008e-05
1.27291e-05
2.4545e-05
-3.93039e-05
1.25523e-05
2.43173e-05
-3.23948e-05
1.20197e-05
2.31468e-05
-2.57875e-05
1.10975e-05
2.14321e-05
-2.01325e-05
9.87701e-06
1.92833e-05
-1.56985e-05
8.5219e-06
1.65317e-05
-1.27174e-05
7.34595e-06
1.30992e-05
-1.11286e-05
6.48031e-06
8.94746e-06
-1.08388e-05
6.08429e-06
4.54209e-06
-1.1289e-05
6.0518e-06
1.3231e-07
-1.19399e-05
6.43394e-06
-3.63028e-06
-1.1643e-05
6.93058e-06
-6.01136e-06
-1.3403e-05
7.71138e-06
-9.02894e-06
-1.35248e-05
7.56295e-06
-1.23487e-05
-1.40608e-05
7.28586e-06
-1.54919e-05
-1.3915e-05
7.15074e-06
-1.82917e-05
-1.41319e-05
7.29771e-06
-2.05071e-05
-1.54805e-05
7.90602e-06
-2.22445e-05
-1.79939e-05
8.7875e-06
-2.35843e-05
-2.19596e-05
9.91953e-06
-2.44441e-05
-2.69808e-05
1.09179e-05
-2.44552e-05
-3.29181e-05
1.16808e-05
-2.30626e-05
-3.90951e-05
1.20323e-05
-1.97873e-05
-4.44324e-05
1.20599e-05
-1.47568e-05
-4.73056e-05
1.17975e-05
-7.85332e-06
-4.45062e-05
1.08083e-05
-3.25111e-05
7.39517e-06
7.60582e-06
-4.99274e-05
7.66821e-06
1.18208e-05
-6.14282e-05
1.00176e-05
1.30367e-05
-6.14501e-05
1.11167e-05
1.27574e-05
-5.67814e-05
1.16618e-05
1.15579e-05
-5.01081e-05
1.20053e-05
1.04298e-05
-4.32164e-05
1.19512e-05
9.82394e-06
-3.66412e-05
1.14609e-05
9.82843e-06
-3.08047e-05
1.06689e-05
1.00593e-05
-2.57357e-05
9.80717e-06
9.8195e-06
-2.16423e-05
9.16556e-06
8.47632e-06
-1.87104e-05
8.92562e-06
5.58347e-06
-1.70613e-05
9.11598e-06
1.53208e-06
-1.6831e-05
9.59393e-06
-2.79026e-06
-1.78204e-05
1.02034e-05
-4.45483e-06
-2.07058e-05
1.07279e-05
-2.49899e-06
-2.66167e-05
1.12585e-05
-2.79504e-06
-2.412e-05
1.08919e-05
-5.33275e-06
-2.18734e-05
1.0351e-05
-7.60794e-06
-2.13692e-05
9.73007e-06
-9.16761e-06
-2.18555e-05
9.284e-06
-9.73306e-06
-2.41696e-05
9.25536e-06
-9.83432e-06
-2.74773e-05
9.58555e-06
-1.00019e-05
-3.20585e-05
1.02675e-05
-1.06235e-05
-3.729e-05
1.0932e-05
-1.16767e-05
-4.329e-05
1.14264e-05
-1.27744e-05
-4.94826e-05
1.14867e-05
-1.30007e-05
-5.53672e-05
1.11629e-05
-1.1792e-05
-5.91371e-05
1.06246e-05
-7.60283e-06
-5.82467e-05
9.55305e-06
-4.74287e-05
7.31594e-06
4.16972e-06
-5.85607e-05
4.46466e-06
3.72475e-06
-6.54613e-05
4.47955e-06
4.93317e-07
-6.33459e-05
5.12875e-06
-3.09824e-06
-5.88276e-05
5.6392e-06
-5.98805e-06
-5.32243e-05
6.00747e-06
-7.12208e-06
-4.80262e-05
5.9451e-06
-6.18883e-06
-4.3111e-05
5.53767e-06
-3.3292e-06
-3.86797e-05
5.01641e-06
7.09105e-07
-3.45364e-05
4.76334e-06
4.63585e-06
-3.07733e-05
5.20506e-06
7.03702e-06
-2.7719e-05