/*--------------------------------*- C++ -*----------------------------------*\
| =========                 |                                                 |
| \\      /  F ield         | OpenFOAM: The Open Source CFD Toolbox           |
|  \\    /   O peration     | Version:  v1912                                 |
|   \\  /    A nd           | Website:  www.openfoam.com                      |
|    \\/     M anipulation  |                                                 |
\*---------------------------------------------------------------------------*/
FoamFile
{
    version     2.0;
    format      ascii;
    class       volVectorField;
    location    "130/oil";
    object      U;
}
// * * * * * * * * * * * * * * * * * * * * * * * * * * * * * * * * * * * * * //

dimensions      [0 1 -1 0 0 0 0];


internalField   nonuniform List<vector> 
27760
(
(7.76007e-06 5.02792e-06 7.79493e-06)
(-7.45705e-05 -4.84822e-05 -4.17899e-05)
(3.53002e-05 -2.29502e-05 -2.15198e-05)
(-4.62435e-06 7.5524e-06 8.24057e-06)
(1.02519e-05 -1.71091e-06 -1.04557e-06)
(4.08542e-06 1.96644e-06 2.4583e-06)
(6.93746e-06 3.18199e-07 6.35802e-07)
(6.27396e-06 1.21673e-06 1.305e-06)
(6.70284e-06 1.04023e-06 9.04262e-07)
(6.70509e-06 1.46061e-06 1.10277e-06)
(6.13747e-06 1.55664e-06 9.92173e-07)
(6.01462e-06 1.82078e-06 1.0872e-06)
(4.79945e-06 1.93804e-06 1.0538e-06)
(4.46616e-06 2.06859e-06 1.10217e-06)
(2.89217e-06 2.12802e-06 1.09534e-06)
(2.40209e-06 2.10127e-06 1.09857e-06)
(7.89098e-07 2.09165e-06 1.11051e-06)
(2.5196e-07 1.92045e-06 1.0763e-06)
(-1.06019e-06 1.84139e-06 1.10201e-06)
(-1.53242e-06 1.55257e-06 1.03388e-06)
(-2.30937e-06 1.42186e-06 1.07204e-06)
(-2.63057e-06 1.0844e-06 9.96177e-07)
(-2.75481e-06 9.30574e-07 1.04496e-06)
(-2.90194e-06 5.9855e-07 9.80623e-07)
(-2.43222e-06 4.52055e-07 1.03713e-06)
(-2.47626e-06 1.78588e-07 9.97977e-07)
(-1.63057e-06 7.04153e-08 1.04745e-06)
(-1.69822e-06 -1.12478e-07 1.02772e-06)
(-6.53679e-07 -1.87117e-07 1.01335e-06)
(-5.8113e-07 -2.66966e-07 7.56875e-07)
(-4.27262e-05 -8.7462e-05 -4.26872e-05)
(3.26274e-05 2.44323e-05 -2.29892e-05)
(-1.439e-05 -1.40721e-05 3.64957e-06)
(6.60338e-06 9.17807e-07 2.8774e-06)
(2.54607e-06 -4.97925e-06 2.04039e-06)
(6.44523e-06 -3.1717e-06 2.21661e-06)
(6.64679e-06 -3.79844e-06 1.50806e-06)
(7.89265e-06 -3.27368e-06 1.78967e-06)
(7.90266e-06 -3.20057e-06 1.55918e-06)
(8.36798e-06 -2.82178e-06 1.7748e-06)
(7.52924e-06 -2.68126e-06 1.72027e-06)
(7.4868e-06 -2.39114e-06 1.87543e-06)
(5.83705e-06 -2.25136e-06 1.87442e-06)
(5.40918e-06 -2.09732e-06 1.95534e-06)
(3.26309e-06 -1.96533e-06 1.96765e-06)
(2.61892e-06 -1.98624e-06 1.96501e-06)
(4.50102e-07 -1.86257e-06 1.96775e-06)
(-2.29689e-07 -2.05894e-06 1.88526e-06)
(-1.94177e-06 -1.95778e-06 1.88021e-06)
(-2.48082e-06 -2.30518e-06 1.73923e-06)
(-3.39092e-06 -2.23772e-06 1.73689e-06)
(-3.6808e-06 -2.66627e-06 1.56987e-06)
(-3.68847e-06 -2.63173e-06 1.57641e-06)
(-3.75021e-06 -3.05504e-06 1.42404e-06)
(-3.00257e-06 -3.01731e-06 1.44106e-06)
(-3.00188e-06 -3.32133e-06 1.32556e-06)
(-1.85492e-06 -3.24489e-06 1.33803e-06)
(-1.99346e-06 -3.48909e-06 1.27235e-06)
(-6.96847e-07 -3.64786e-06 1.24768e-06)
(-7.1623e-07 -3.28456e-06 9.34725e-07)
(-2.2665e-05 2.18759e-05 -2.26252e-05)
(-9.82427e-06 -2.44463e-05 3.12546e-06)
(3.1351e-06 -4.59035e-06 -4.67192e-06)
(2.65883e-08 -6.67544e-06 3.72518e-06)
(6.04684e-06 -4.6341e-06 2.0473e-07)
(5.0876e-06 -3.93134e-06 2.23762e-06)
(7.29626e-06 -3.51313e-06 1.21897e-06)
(7.48731e-06 -2.48287e-06 1.83375e-06)
(7.9598e-06 -2.05301e-06 1.56575e-06)
(8.20449e-06 -1.05338e-06 1.85599e-06)
(7.4497e-06 -6.00677e-07 1.80026e-06)
(7.37365e-06 1.83851e-07 1.98326e-06)
(5.66321e-06 5.79182e-07 1.98712e-06)
(5.23811e-06 9.84374e-07 2.08425e-06)
(2.97676e-06 1.2637e-06 2.09883e-06)
(2.33535e-06 1.19482e-06 2.09874e-06)
(4.98644e-08 1.32022e-06 2.10629e-06)
(-6.10271e-07 7.81491e-07 2.01275e-06)
(-2.3841e-06 7.50671e-07 2.01077e-06)
(-2.87244e-06 -1.4268e-07 1.84984e-06)
(-3.76564e-06 -2.91453e-07 1.84741e-06)
(-3.98057e-06 -1.35163e-06 1.66178e-06)
(-3.89289e-06 -1.54669e-06 1.66719e-06)
(-3.88318e-06 -2.53301e-06 1.49605e-06)
(-3.01148e-06 -2.63143e-06 1.50756e-06)
(-2.98425e-06 -3.27022e-06 1.36809e-06)
(-1.73367e-06 -3.17751e-06 1.36475e-06)
(-1.90711e-06 -3.66061e-06 1.27784e-06)
(-5.64397e-07 -4.18086e-06 1.25789e-06)
(-7.2281e-07 -4.31814e-06 9.55611e-07)
(7.72371e-06 -1.90933e-05 7.76529e-06)
(5.61586e-06 -7.57947e-06 2.70407e-06)
(1.20831e-06 -1.25458e-05 3.77554e-06)
(5.4828e-06 -7.43376e-06 2.55926e-06)
(5.16088e-06 -9.46474e-06 2.18902e-06)
(7.57157e-06 -7.95393e-06 2.2322e-06)
(8.19396e-06 -8.3342e-06 1.97489e-06)
(9.50012e-06 -7.26968e-06 2.22993e-06)
(9.53028e-06 -7.09572e-06 2.15463e-06)
(1.00494e-05 -6.12202e-06 2.43125e-06)
(8.94325e-06 -5.81201e-06 2.44746e-06)
(8.76229e-06 -5.04109e-06 2.67961e-06)
(6.5429e-06 -4.70596e-06 2.72012e-06)
(5.80983e-06 -4.3014e-06 2.85151e-06)
(2.91374e-06 -3.9819e-06 2.87766e-06)
(1.89217e-06 -4.05375e-06 2.87493e-06)
(-1.0034e-06 -3.7792e-06 2.86915e-06)
(-1.99894e-06 -4.32907e-06 2.73287e-06)
(-4.2024e-06 -4.12701e-06 2.70076e-06)
(-4.88754e-06 -5.03844e-06 2.46925e-06)
(-5.94056e-06 -4.90777e-06 2.42862e-06)
(-6.18146e-06 -5.97553e-06 2.16337e-06)
(-5.99261e-06 -5.86848e-06 2.13153e-06)
(-5.86367e-06 -6.81268e-06 1.88829e-06)
(-4.70069e-06 -6.55706e-06 1.86653e-06)
(-4.46244e-06 -7.01522e-06 1.66724e-06)
(-2.81019e-06 -6.50407e-06 1.63175e-06)
(-2.72123e-06 -6.84261e-06 1.50373e-06)
(-9.48356e-07 -7.41584e-06 1.46526e-06)
(-8.84499e-07 -7.36371e-06 1.11614e-06)
(-1.22624e-06 -6.4542e-06 -1.18544e-06)
(4.84076e-07 -1.47424e-05 1.97634e-06)
(3.50282e-06 -9.75089e-06 2.66716e-07)
(3.9373e-06 -1.11851e-05 2.14659e-06)
(6.69115e-06 -1.01659e-05 1.26949e-06)
(7.29759e-06 -9.89327e-06 2.08176e-06)
(8.9199e-06 -9.32665e-06 1.74397e-06)
(9.57885e-06 -8.04553e-06 2.17206e-06)
(9.91019e-06 -7.35929e-06 2.0722e-06)
(1.02351e-05 -5.83166e-06 2.38765e-06)
(9.17499e-06 -5.11348e-06 2.38449e-06)
(8.97112e-06 -3.82669e-06 2.62714e-06)
(6.67691e-06 -3.18109e-06 2.65562e-06)
(5.98107e-06 -2.49564e-06 2.79278e-06)
(2.94857e-06 -2.01461e-06 2.81967e-06)
(1.97193e-06 -2.14087e-06 2.81972e-06)
(-1.07483e-06 -1.87774e-06 2.82846e-06)
(-2.04216e-06 -2.81079e-06 2.69191e-06)
(-4.3647e-06 -2.77052e-06 2.68532e-06)
(-5.04329e-06 -4.28904e-06 2.4522e-06)
(-6.15427e-06 -4.40323e-06 2.44199e-06)
(-6.40986e-06 -6.143e-06 2.17529e-06)
(-6.21054e-06 -6.26705e-06 2.1728e-06)
(-6.11411e-06 -7.76552e-06 1.9271e-06)
(-4.88558e-06 -7.59144e-06 1.9271e-06)
(-4.68869e-06 -8.29723e-06 1.72019e-06)
(-2.92412e-06 -7.6371e-06 1.69138e-06)
(-2.86254e-06 -8.07367e-06 1.55132e-06)
(-9.3965e-07 -8.89938e-06 1.51614e-06)
(-9.1596e-07 -9.18652e-06 1.1541e-06)
(2.61795e-06 -1.64632e-05 2.65881e-06)
(2.98962e-06 -1.56554e-05 2.48661e-06)
(4.94451e-06 -1.55397e-05 2.56595e-06)
(6.64319e-06 -1.40954e-05 2.43068e-06)
(8.3398e-06 -1.52957e-05 2.34781e-06)
(9.99727e-06 -1.45246e-05 2.5858e-06)
(1.12756e-05 -1.4811e-05 2.53832e-06)
(1.2468e-05 -1.34686e-05 2.90446e-06)
(1.26108e-05 -1.3164e-05 2.93785e-06)
(1.30655e-05 -1.16497e-05 3.34991e-06)
(1.16133e-05 -1.11474e-05 3.43729e-06)
(1.12238e-05 -9.87751e-06 3.80263e-06)
(8.2285e-06 -9.33118e-06 3.89469e-06)
(7.12499e-06 -8.65277e-06 4.10922e-06)
(3.18812e-06 -8.14282e-06 4.16065e-06)
(1.71571e-06 -8.27351e-06 4.1539e-06)
(-2.21082e-06 -7.85243e-06 4.14059e-06)
(-3.62395e-06 -8.79203e-06 3.91398e-06)
(-6.57396e-06 -8.50079e-06 3.8507e-06)
(-7.53312e-06 -1.00229e-05 3.47508e-06)
(-8.89685e-06 -9.83746e-06 3.39584e-06)
(-9.22753e-06 -1.15655e-05 2.97743e-06)
(-8.91995e-06 -1.13672e-05 2.912e-06)
(-8.72028e-06 -1.27907e-05 2.53654e-06)
(-7.12145e-06 -1.22279e-05 2.48765e-06)
(-6.7017e-06 -1.26868e-05 2.18512e-06)
(-4.41663e-06 -1.15364e-05 2.12035e-06)
(-4.06022e-06 -1.17546e-05 1.9249e-06)
(-1.55124e-06 -1.2638e-05 1.86966e-06)
(-1.18833e-06 -1.2727e-05 1.42082e-06)
(9.31801e-07 -1.76533e-05 9.69634e-07)
(2.41264e-06 -1.9782e-05 1.84527e-06)
(5.1431e-06 -1.73641e-05 1.57508e-06)
(6.16787e-06 -1.76845e-05 2.15553e-06)
(8.59079e-06 -1.80447e-05 1.99048e-06)
(9.60831e-06 -1.77845e-05 2.46728e-06)
(1.12394e-05 -1.75669e-05 2.38521e-06)
(1.21144e-05 -1.59508e-05 2.81676e-06)
(1.24096e-05 -1.51786e-05 2.81174e-06)
(1.28126e-05 -1.31048e-05 3.24e-06)
(1.14161e-05 -1.21604e-05 3.28718e-06)
(1.11618e-05 -1.03442e-05 3.65754e-06)
(8.16335e-06 -9.44623e-06 3.72181e-06)
(7.30275e-06 -8.45237e-06 3.94013e-06)
(3.31766e-06 -7.75981e-06 3.98851e-06)
(2.10791e-06 -7.93116e-06 3.987e-06)
(-1.89018e-06 -7.52855e-06 3.99625e-06)
(-3.10894e-06 -8.86273e-06 3.77114e-06)
(-6.12165e-06 -8.75559e-06 3.75535e-06)
(-6.99371e-06 -1.09032e-05 3.37808e-06)
(-8.39691e-06 -1.09857e-05 3.35466e-06)
(-8.75579e-06 -1.33847e-05 2.93367e-06)
(-8.46107e-06 -1.34242e-05 2.92045e-06)
(-8.38472e-06 -1.53672e-05 2.541e-06)
(-6.77845e-06 -1.48594e-05 2.5312e-06)
(-6.54183e-06 -1.54864e-05 2.21887e-06)
(-4.22457e-06 -1.41238e-05 2.17191e-06)
(-4.05496e-06 -1.43841e-05 1.96623e-06)
(-1.46295e-06 -1.55923e-05 1.9299e-06)
(-1.24116e-06 -1.59129e-05 1.47508e-06)
(1.91003e-06 -2.29698e-05 1.94534e-06)
(3.45924e-06 -2.347e-05 2.45541e-06)
(6.80346e-06 -2.18113e-05 2.51389e-06)
(8.31424e-06 -2.1375e-05 2.73728e-06)
(1.10075e-05 -2.28762e-05 2.80214e-06)
(1.25409e-05 -2.26302e-05 3.23571e-06)
(1.43987e-05 -2.3083e-05 3.30912e-06)
(1.56263e-05 -2.15527e-05 3.87772e-06)
(1.59435e-05 -2.11773e-05 4.01201e-06)
(1.64257e-05 -1.91955e-05 4.66488e-06)
(1.46331e-05 -1.85214e-05 4.84971e-06)
(1.41355e-05 -1.67798e-05 5.44945e-06)
(1.02587e-05 -1.60314e-05 5.62529e-06)
(8.88482e-06 -1.50739e-05 5.98798e-06)
(3.71233e-06 -1.43717e-05 6.08149e-06)
(1.87926e-06 -1.45396e-05 6.06977e-06)
(-3.2809e-06 -1.39537e-05 6.04179e-06)
(-5.04972e-06 -1.52489e-05 5.65469e-06)
(-8.87381e-06 -1.48452e-05 5.53533e-06)
(-1.00805e-05 -1.69249e-05 4.91223e-06)
(-1.17796e-05 -1.66632e-05 4.76657e-06)
(-1.22134e-05 -1.89716e-05 4.09244e-06)
(-1.17444e-05 -1.86573e-05 3.9712e-06)
(-1.15367e-05 -2.04443e-05 3.38196e-06)
(-9.44771e-06 -1.9515e-05 3.29122e-06)
(-8.96481e-06 -1.98019e-05 2.8288e-06)
(-6.01375e-06 -1.79124e-05 2.72609e-06)
(-5.53184e-06 -1.79522e-05 2.43862e-06)
(-2.2315e-06 -1.94667e-05 2.38407e-06)
(-1.60696e-06 -1.9939e-05 1.82736e-06)
(1.61685e-06 -2.79631e-05 1.64552e-06)
(3.3787e-06 -2.88191e-05 2.26916e-06)
(6.71424e-06 -2.61147e-05 2.25574e-06)
(7.92154e-06 -2.61753e-05 2.63822e-06)
(1.06784e-05 -2.76635e-05 2.68243e-06)
(1.18364e-05 -2.77551e-05 3.18765e-06)
(1.37492e-05 -2.80794e-05 3.21796e-06)
(1.47799e-05 -2.63817e-05 3.80523e-06)
(1.51616e-05 -2.57068e-05 3.87583e-06)
(1.56853e-05 -2.3295e-05 4.52994e-06)
(1.39633e-05 -2.22539e-05 4.64626e-06)
(1.37383e-05 -2.00476e-05 5.24456e-06)
(9.92439e-06 -1.89747e-05 5.37022e-06)
(8.99051e-06 -1.77222e-05 5.7333e-06)
(3.84996e-06 -1.6838e-05 5.8181e-06)
(2.49798e-06 -1.7011e-05 5.81306e-06)
(-2.65824e-06 -1.64241e-05 5.81869e-06)
(-4.08202e-06 -1.80277e-05 5.43623e-06)
(-7.91374e-06 -1.77686e-05 5.3952e-06)
(-8.97008e-06 -2.03419e-05 4.76982e-06)
(-1.0691e-05 -2.02843e-05 4.71217e-06)
(-1.11806e-05 -2.30876e-05 4.03382e-06)
(-1.07465e-05 -2.29154e-05 3.99023e-06)
(-1.07602e-05 -2.50086e-05 3.39312e-06)
(-8.7296e-06 -2.40014e-05 3.35722e-06)
(-8.57459e-06 -2.42219e-05 2.87558e-06)
(-5.67378e-06 -2.19903e-05 2.79402e-06)
(-5.50104e-06 -2.19927e-05 2.48946e-06)
(-2.14666e-06 -2.4091e-05 2.46717e-06)
(-1.70207e-06 -2.49457e-05 1.91546e-06)
(2.16247e-06 -3.29097e-05 2.18208e-06)
(4.40609e-06 -3.27489e-05 2.84742e-06)
(8.54494e-06 -2.951e-05 2.91391e-06)
(1.01617e-05 -2.94662e-05 3.31368e-06)
(1.34941e-05 -3.17316e-05 3.48354e-06)
(1.50509e-05 -3.22351e-05 4.14054e-06)
(1.74303e-05 -3.31545e-05 4.31644e-06)
(1.88043e-05 -3.17587e-05 5.17234e-06)
(1.93689e-05 -3.14815e-05 5.42611e-06)
(1.99934e-05 -2.93013e-05 6.43582e-06)
(1.78983e-05 -2.85577e-05 6.76047e-06)
(1.73952e-05 -2.65209e-05 7.71939e-06)
(1.25579e-05 -2.56318e-05 8.02538e-06)
(1.09986e-05 -2.44583e-05 8.62295e-06)
(4.41113e-06 -2.35812e-05 8.78295e-06)
(2.29281e-06 -2.37269e-05 8.76534e-06)
(-4.28997e-06 -2.2947e-05 8.71184e-06)
(-6.37846e-06 -2.44275e-05 8.07453e-06)
(-1.11859e-05 -2.38423e-05 7.86388e-06)
(-1.26286e-05 -2.62252e-05 6.86388e-06)
(-1.46638e-05 -2.57993e-05 6.61247e-06)
(-1.52147e-05 -2.83698e-05 5.56164e-06)
(-1.45285e-05 -2.78229e-05 5.35377e-06)
(-1.43826e-05 -2.95987e-05 4.45898e-06)
(-1.1788e-05 -2.81232e-05 4.30441e-06)
(-1.1398e-05 -2.78279e-05 3.61423e-06)
(-7.80722e-06 -2.50352e-05 3.45063e-06)
(-7.30781e-06 -2.48407e-05 3.03095e-06)
(-3.11408e-06 -2.77462e-05 2.99177e-06)
(-2.14801e-06 -2.95133e-05 2.33636e-06)
(2.20377e-06 -4.0684e-05 2.21031e-06)
(4.51225e-06 -4.01641e-05 2.87132e-06)
(8.57532e-06 -3.58068e-05 2.89636e-06)
(9.82063e-06 -3.60709e-05 3.35107e-06)
(1.29034e-05 -3.88326e-05 3.50473e-06)
(1.39985e-05 -4.00127e-05 4.18919e-06)
(1.62326e-05 -4.12657e-05 4.30197e-06)
(1.73942e-05 -4.0131e-05 5.14829e-06)
(1.7976e-05 -3.98815e-05 5.31054e-06)
(1.86858e-05 -3.76517e-05 6.30164e-06)
(1.67043e-05 -3.67543e-05 6.52511e-06)
(1.65861e-05 -3.45275e-05 7.46634e-06)
(1.19126e-05 -3.34311e-05 7.69284e-06)
(1.09862e-05 -3.2084e-05 8.27919e-06)
(4.55721e-06 -3.1053e-05 8.42277e-06)
(3.14264e-06 -3.11439e-05 8.40755e-06)
(-3.32043e-06 -3.03029e-05 8.41063e-06)
(-4.91229e-06 -3.18609e-05 7.78178e-06)
(-9.64946e-06 -3.12939e-05 7.69092e-06)
(-1.08998e-05 -3.38152e-05 6.69699e-06)
(-1.29353e-05 -3.34029e-05 6.57202e-06)
(-1.35943e-05 -3.60352e-05 5.52623e-06)
(-1.29857e-05 -3.53717e-05 5.42503e-06)
(-1.31947e-05 -3.69654e-05 4.52808e-06)
(-1.0799e-05 -3.50866e-05 4.44999e-06)
(-1.09581e-05 -3.42387e-05 3.72522e-06)
(-7.59191e-06 -3.08439e-05 3.58724e-06)
(-7.51851e-06 -3.04694e-05 3.12454e-06)
(-3.24243e-06 -3.44087e-05 3.13105e-06)
(-2.32444e-06 -3.69703e-05 2.49006e-06)
(2.70009e-06 -4.62029e-05 2.68596e-06)
(5.78113e-06 -4.38278e-05 3.44401e-06)
(1.06692e-05 -3.79908e-05 3.51732e-06)
(1.21841e-05 -3.82971e-05 4.10257e-06)
(1.56964e-05 -4.17784e-05 4.37242e-06)
(1.70087e-05 -4.37662e-05 5.2864e-06)
(1.97335e-05 -4.56537e-05 5.54676e-06)
(2.12715e-05 -4.50845e-05 6.73817e-06)
(2.21889e-05 -4.51891e-05 7.12737e-06)
(2.31021e-05 -4.33253e-05 8.58105e-06)
(2.08605e-05 -4.26446e-05 9.0897e-06)
(2.05176e-05 -4.06539e-05 1.05169e-05)
(1.48298e-05 -3.96768e-05 1.10038e-05)
(1.32566e-05 -3.84225e-05 1.192e-05)
(5.30785e-06 -3.73754e-05 1.21759e-05)
(3.07984e-06 -3.73911e-05 1.21524e-05)
(-4.8986e-06 -3.64113e-05 1.20642e-05)
(-7.20055e-06 -3.77539e-05 1.10905e-05)
(-1.29525e-05 -3.69393e-05 1.07556e-05)
(-1.45851e-05 -3.91583e-05 9.26362e-06)
(-1.68918e-05 -3.84771e-05 8.87197e-06)
(-1.75634e-05 -4.07304e-05 7.35068e-06)
(-1.66318e-05 -3.97521e-05 7.04063e-06)
(-1.66844e-05 -4.07975e-05 5.78242e-06)
(-1.37798e-05 -3.83933e-05 5.57626e-06)
(-1.38977e-05 -3.67312e-05 4.60316e-06)
(-1.00473e-05 -3.27333e-05 4.35602e-06)
(-9.7746e-06 -3.22383e-05 3.73781e-06)
(-4.55603e-06 -3.7784e-05 3.70683e-06)
(-2.84348e-06 -4.24224e-05 2.96388e-06)
(2.9584e-06 -5.74085e-05 2.91975e-06)
(6.50569e-06 -5.41227e-05 3.70372e-06)
(1.13872e-05 -4.66358e-05 3.78882e-06)
(1.22765e-05 -4.74181e-05 4.44266e-06)
(1.50583e-05 -5.20027e-05 4.72788e-06)
(1.55763e-05 -5.54743e-05 5.61623e-06)
(1.79248e-05 -5.83921e-05 5.78761e-06)
(1.92056e-05 -5.88308e-05 6.91026e-06)
(2.01558e-05 -5.94493e-05 7.17933e-06)
(2.1201e-05 -5.81385e-05 8.56829e-06)
(1.91703e-05 -5.76375e-05 8.95182e-06)
(1.92998e-05 -5.5914e-05 1.0321e-05)
(1.393e-05 -5.49256e-05 1.07064e-05)
(1.31339e-05 -5.37191e-05 1.15801e-05)
(5.53022e-06 -5.25607e-05 1.18157e-05)
(4.15042e-06 -5.24521e-05 1.17827e-05)
(-3.54684e-06 -5.1303e-05 1.17882e-05)
(-5.23053e-06 -5.23719e-05 1.08302e-05)
(-1.08139e-05 -5.13741e-05 1.06626e-05)
(-1.224e-05 -5.31828e-05 9.20635e-06)
(-1.45067e-05 -5.22264e-05 8.97396e-06)
(-1.5334e-05 -5.39076e-05 7.50572e-06)
(-1.45108e-05 -5.24153e-05 7.32831e-06)
(-1.50528e-05 -5.25257e-05 6.13269e-06)
(-1.25944e-05 -4.91312e-05 6.01295e-06)
(-1.36569e-05 -4.60837e-05 5.06105e-06)
(-1.05074e-05 -4.09982e-05 4.79141e-06)
(-1.08916e-05 -4.01062e-05 4.09181e-06)
(-5.45351e-06 -4.73676e-05 4.04257e-06)
(-3.20412e-06 -5.3379e-05 3.27107e-06)
(3.51908e-06 -6.47659e-05 3.4406e-06)
(8.46804e-06 -5.85122e-05 4.41442e-06)
(1.40838e-05 -4.8453e-05 4.65985e-06)
(1.46442e-05 -4.93237e-05 5.55167e-06)
(1.71141e-05 -5.48608e-05 5.964e-06)
(1.737e-05 -5.96988e-05 7.04687e-06)
(2.00757e-05 -6.33962e-05 7.30601e-06)
(2.18156e-05 -6.45656e-05 8.74691e-06)
(2.3299e-05 -6.52962e-05 9.24109e-06)
(2.47478e-05 -6.42606e-05 1.11278e-05)
(2.26988e-05 -6.36256e-05 1.18475e-05)
(2.27895e-05 -6.20131e-05 1.37693e-05)
(1.66627e-05 -6.08494e-05 1.44785e-05)
(1.53671e-05 -5.96251e-05 1.57401e-05)
(6.48447e-06 -5.83231e-05 1.61244e-05)
(4.42498e-06 -5.8085e-05 1.61027e-05)
(-4.57021e-06 -5.69502e-05 1.59696e-05)
(-6.9015e-06 -5.78146e-05 1.46422e-05)
(-1.3329e-05 -5.69058e-05 1.41673e-05)
(-1.50503e-05 -5.84936e-05 1.2166e-05)
(-1.74805e-05 -5.76853e-05 1.16253e-05)
(-1.82237e-05 -5.9108e-05 9.65286e-06)
(-1.69926e-05 -5.76202e-05 9.27445e-06)
(-1.73615e-05 -5.70942e-05 7.74999e-06)
(-1.45982e-05 -5.30743e-05 7.56344e-06)
(-1.6136e-05 -4.87311e-05 6.41283e-06)
(-1.32922e-05 -4.28029e-05 6.01932e-06)
(-1.40715e-05 -4.18401e-05 5.05169e-06)
(-7.67388e-06 -5.18008e-05 4.82256e-06)
(-3.86054e-06 -6.10848e-05 3.84454e-06)
(4.14597e-06 -8.14472e-05 4.02545e-06)
(1.07965e-05 -7.41683e-05 5.29912e-06)
(1.64313e-05 -6.17358e-05 5.82546e-06)
(1.56429e-05 -6.36919e-05 6.96311e-06)
(1.65241e-05 -7.14998e-05 7.43455e-06)
(1.55744e-05 -7.91949e-05 8.40694e-06)
(1.7853e-05 -8.48209e-05 8.47078e-06)
(1.95102e-05 -8.77e-05 9.73e-06)
(2.11879e-05 -8.92752e-05 1.00926e-05)
(2.28609e-05 -8.9215e-05 1.18472e-05)
(2.11193e-05 -8.89977e-05 1.24764e-05)
(2.16788e-05 -8.80284e-05 1.42736e-05)
(1.5983e-05 -8.70231e-05 1.49132e-05)
(1.54065e-05 -8.60297e-05 1.60782e-05)
(6.97568e-06 -8.46509e-05 1.64601e-05)
(5.61204e-06 -8.41884e-05 1.64292e-05)
(-3.03e-06 -8.28622e-05 1.63871e-05)
(-4.83752e-06 -8.31133e-05 1.51564e-05)
(-1.10982e-05 -8.18678e-05 1.4816e-05)
(-1.27155e-05 -8.26483e-05 1.29482e-05)
(-1.51467e-05 -8.14238e-05 1.25392e-05)
(-1.60612e-05 -8.19192e-05 1.06993e-05)
(-1.48757e-05 -7.97414e-05 1.04645e-05)
(-1.56197e-05 -7.76821e-05 9.11707e-06)
(-1.33783e-05 -7.19122e-05 9.12993e-06)
(-1.62865e-05 -6.48484e-05 8.09459e-06)
(-1.50213e-05 -5.67186e-05 7.62968e-06)
(-1.71687e-05 -5.47411e-05 6.37275e-06)
(-1.04552e-05 -6.72141e-05 5.82547e-06)
(-4.63533e-06 -7.79783e-05 4.5099e-06)
(4.85765e-06 -9.39376e-05 4.67716e-06)
(1.39312e-05 -8.3469e-05 6.51358e-06)
(1.96032e-05 -6.74798e-05 7.64501e-06)
(1.70707e-05 -7.04008e-05 9.30334e-06)
(1.65896e-05 -8.04773e-05 9.96408e-06)
(1.51361e-05 -9.06686e-05 1.10107e-05)
(1.80673e-05 -9.71159e-05 1.09891e-05)
(2.05677e-05 -0.000100217 1.24832e-05)
(2.30559e-05 -0.000100952 1.30701e-05)
(2.52941e-05 -0.00010032 1.53411e-05)
(2.37266e-05 -9.91135e-05 1.63592e-05)
(2.44141e-05 -9.76501e-05 1.87376e-05)
(1.83346e-05 -9.58765e-05 1.97518e-05)
(1.74647e-05 -9.44815e-05 2.13134e-05)
(8.22054e-06 -9.27243e-05 2.18814e-05)
(6.32744e-06 -9.21122e-05 2.18542e-05)
(-3.21337e-06 -9.10121e-05 2.17175e-05)
(-5.55385e-06 -9.14142e-05 2.01114e-05)
(-1.25161e-05 -9.09153e-05 1.94834e-05)
(-1.44568e-05 -9.21881e-05 1.70575e-05)
(-1.70953e-05 -9.21213e-05 1.632e-05)
(-1.79356e-05 -9.33875e-05 1.39616e-05)
(-1.62164e-05 -9.23492e-05 1.3522e-05)
(-1.6457e-05 -9.0355e-05 1.19183e-05)
(-1.3622e-05 -8.4059e-05 1.20342e-05)
(-1.7175e-05 -7.4655e-05 1.09445e-05)
(-1.72229e-05 -6.43003e-05 1.02855e-05)
(-2.11699e-05 -6.13358e-05 8.45529e-06)
(-1.41671e-05 -7.74862e-05 7.23591e-06)
(-5.54438e-06 -9.16602e-05 5.27733e-06)
(5.80758e-06 -0.000119528 5.57878e-06)
(1.76133e-05 -0.000109187 8.20163e-06)
(2.26032e-05 -9.0705e-05 1.02307e-05)
(1.80266e-05 -9.74881e-05 1.2671e-05)
(1.63611e-05 -0.000113207 1.36973e-05)
(1.49884e-05 -0.000128712 1.46847e-05)
(1.88513e-05 -0.000137671 1.44522e-05)
(2.20263e-05 -0.000142105 1.58909e-05)
(2.48486e-05 -0.000143072 1.66339e-05)
(2.70076e-05 -0.000142993 1.89943e-05)
(2.52963e-05 -0.000142057 2.02288e-05)
(2.58527e-05 -0.000141248 2.26331e-05)
(1.97347e-05 -0.000139687 2.3788e-05)
(1.87931e-05 -0.000138497 2.53095e-05)
(9.38346e-06 -0.000136685 2.59415e-05)
(7.2455e-06 -0.000135762 2.59256e-05)
(-2.6173e-06 -0.000134481 2.58392e-05)
(-5.36522e-06 -0.000134174 2.43504e-05)
(-1.29097e-05 -0.000133409 2.36982e-05)
(-1.5573e-05 -0.000134007 2.13123e-05)
(-1.8918e-05 -0.00013391 2.04198e-05)
(-2.04011e-05 -0.000134923 1.79684e-05)
(-1.8699e-05 -0.000134064 1.73474e-05)
(-1.85697e-05 -0.000131174 1.57339e-05)
(-1.47942e-05 -0.000122786 1.60167e-05)
(-1.8159e-05 -0.000108312 1.50158e-05)
(-1.91106e-05 -9.22146e-05 1.39567e-05)
(-2.50311e-05 -8.52744e-05 1.13125e-05)
(-1.85234e-05 -0.000104065 9.12189e-06)
(-6.72862e-06 -0.000118473 6.28237e-06)
(5.63696e-06 -0.000139701 5.3516e-06)
(1.82025e-05 -0.000127204 7.92446e-06)
(2.2081e-05 -0.000105874 1.09247e-05)
(1.64126e-05 -0.000118758 1.45633e-05)
(1.63104e-05 -0.000142005 1.66243e-05)
(1.79193e-05 -0.000162658 1.82653e-05)
(2.48974e-05 -0.000171483 1.82798e-05)
(2.94633e-05 -0.000173741 2.05831e-05)
(3.25093e-05 -0.000171672 2.21937e-05)
(3.41456e-05 -0.00016934 2.56467e-05)
(3.15395e-05 -0.000166504 2.77771e-05)
(3.1292e-05 -0.00016458 3.11568e-05)
(2.4211e-05 -0.00016188 3.29993e-05)
(2.21732e-05 -0.000159875 3.51288e-05)
(1.14048e-05 -0.000157541 3.60497e-05)
(7.79196e-06 -0.000156352 3.60461e-05)
(-3.69198e-06 -0.000155477 3.58563e-05)
(-8.03991e-06 -0.000155651 3.38795e-05)
(-1.74417e-05 -0.000156153 3.27134e-05)
(-2.17669e-05 -0.000158211 2.94249e-05)
(-2.68162e-05 -0.000160446 2.76973e-05)
(-2.95676e-05 -0.000164252 2.40906e-05)
(-2.80575e-05 -0.00016692 2.25037e-05)
(-2.6872e-05 -0.000166756 1.98381e-05)
(-1.98537e-05 -0.000159086 1.97325e-05)
(-1.97694e-05 -0.000139843 1.81138e-05)
(-1.83913e-05 -0.000115909 1.60281e-05)
(-2.51284e-05 -0.0001024 1.21451e-05)
(-1.96489e-05 -0.000124142 8.96452e-06)
(-6.81224e-06 -0.000140975 6.17075e-06)
(3.57049e-06 -0.000168312 3.20917e-06)
(1.44078e-05 -0.000156517 2.69225e-06)
(2.14786e-05 -0.000136364 6.18393e-06)
(2.13186e-05 -0.0001628 1.18418e-05)
(2.94888e-05 -0.000200726 1.63442e-05)
(3.8986e-05 -0.000230608 1.98566e-05)
(5.08738e-05 -0.000240082 2.122e-05)
(5.58997e-05 -0.000240891 2.53253e-05)
(5.6895e-05 -0.000237809 2.87727e-05)
(5.51826e-05 -0.000236133 3.37335e-05)
(4.90237e-05 -0.000234775 3.72958e-05)
(4.5398e-05 -0.000234917 4.16689e-05)
(3.52086e-05 -0.000233656 4.44652e-05)
(2.94541e-05 -0.00023248 4.71495e-05)
(1.46771e-05 -0.000230462 4.84408e-05)
(6.32964e-06 -0.000228645 4.84353e-05)
(-9.80365e-06 -0.000227092 4.80753e-05)
(-1.87417e-05 -0.000225599 4.56909e-05)
(-3.26844e-05 -0.000224685 4.37286e-05)
(-4.15277e-05 -0.000225001 3.9478e-05)
(-5.10654e-05 -0.000226226 3.62986e-05)
(-5.79087e-05 -0.00022992 3.10022e-05)
(-5.86752e-05 -0.000234064 2.73058e-05)
(-5.71026e-05 -0.000235882 2.24691e-05)
(-4.48136e-05 -0.000228464 2.0592e-05)
(-3.58515e-05 -0.000200893 1.71314e-05)
(-2.45562e-05 -0.000161773 1.25399e-05)
(-2.47777e-05 -0.000133779 6.73895e-06)
(-1.58521e-05 -0.000154428 3.18682e-06)
(-4.78833e-06 -0.000171496 3.83972e-06)
(-5.25376e-06 -0.000173865 -5.93238e-06)
(-1.70404e-06 -0.000160178 -1.48923e-05)
(2.12492e-05 -0.000146607 -1.26132e-05)
(3.88157e-05 -0.000191441 -5.3516e-06)
(6.41818e-05 -0.000246392 3.39481e-06)
(8.53856e-05 -0.000283 1.13263e-05)
(0.000102204 -0.00028658 1.60542e-05)
(0.00010539 -0.000280577 2.34098e-05)
(0.00010079 -0.000273486 2.96223e-05)
(9.23301e-05 -0.000270929 3.69906e-05)
(7.941e-05 -0.000270507 4.24684e-05)
(6.99538e-05 -0.000272437 4.85099e-05)
(5.43111e-05 -0.000272139 5.26481e-05)
(4.21327e-05 -0.000271204 5.64612e-05)
(1.9902e-05 -0.000268908 5.83758e-05)
(2.35115e-06 -0.000266028 5.83749e-05)
(-2.2882e-05 -0.000264128 5.76423e-05)
(-3.99846e-05 -0.000261497 5.42419e-05)
(-6.17131e-05 -0.000259733 5.10068e-05)
(-7.80127e-05 -0.000259059 4.49822e-05)
(-9.53439e-05 -0.000259898 3.97208e-05)
(-0.000109593 -0.000265036 3.17127e-05)
(-0.000115777 -0.000273365 2.48617e-05)
(-0.000115571 -0.000281969 1.63323e-05)
(-9.74215e-05 -0.000281119 1.05241e-05)
(-7.52775e-05 -0.000248684 2.49171e-06)
(-4.44068e-05 -0.000192279 -6.39302e-06)
(-2.49199e-05 -0.000144412 -1.35818e-05)
(9.52269e-07 -0.000158037 -1.56549e-05)
(4.33924e-06 -0.000178355 -5.85209e-06)
(-1.70445e-05 -0.000153899 -1.83753e-05)
(-1.53412e-05 -0.000152556 -3.72993e-05)
(4.8441e-05 -0.000158102 -3.87688e-05)
(0.000105667 -0.000218846 -3.15399e-05)
(0.000159055 -0.000289266 -1.90941e-05)
(0.000192415 -0.000332022 -5.23011e-06)
(0.000210344 -0.000330485 4.96688e-06)
(0.000207397 -0.000320926 1.51454e-05)
(0.000191211 -0.000315738 2.38906e-05)
(0.000169581 -0.000319838 3.29385e-05)
(0.00014326 -0.000328045 3.99528e-05)
(0.000121467 -0.000338758 4.69468e-05)
(9.4e-05 -0.000344391 5.22098e-05)
(6.79096e-05 -0.000346523 5.69636e-05)
(2.90425e-05 -0.000344564 5.9755e-05)
(-1.01607e-05 -0.000339297 5.99352e-05)
(-5.60722e-05 -0.000335392 5.86578e-05)
(-9.02099e-05 -0.000328252 5.43176e-05)
(-0.000126319 -0.000320573 4.98403e-05)
(-0.000156285 -0.000312155 4.25843e-05)
(-0.000186717 -0.000304938 3.552e-05)
(-0.000213592 -0.000303981 2.5542e-05)
(-0.000229804 -0.000310542 1.58892e-05)
(-0.000234164 -0.000322246 4.30086e-06)
(-0.000212442 -0.000326793 -7.14679e-06)
(-0.000175578 -0.000290442 -2.17637e-05)
(-0.000114301 -0.000219068 -3.46285e-05)
(-5.26357e-05 -0.000154369 -4.15461e-05)
(1.53599e-05 -0.000147707 -3.95343e-05)
(1.65037e-05 -0.000157025 -1.90497e-05)
(-2.07692e-05 -0.000101327 -2.29514e-05)
(-5.34285e-06 -0.000135964 -4.62051e-05)
(0.000109781 -0.000168234 -5.31722e-05)
(0.000218803 -0.000220375 -5.00687e-05)
(0.000303638 -0.000279059 -3.91262e-05)
(0.00034364 -0.000313706 -2.32496e-05)
(0.000352253 -0.0003039 -9.70458e-06)
(0.000335598 -0.000286416 1.26478e-07)
(0.000301823 -0.000279276 7.52081e-06)
(0.000262476 -0.000287216 1.46798e-05)
(0.000218354 -0.000302563 2.00564e-05)
(0.000180579 -0.000320894 2.55733e-05)
(0.000138283 -0.000330498 3.0023e-05)
(9.63426e-05 -0.000332908 3.46458e-05)
(3.78754e-05 -0.000326852 3.79798e-05)
(-3.00044e-05 -0.000317199 3.89529e-05)
(-0.000102575 -0.00031463 3.76753e-05)
(-0.000156664 -0.000308287 3.35435e-05)
(-0.000208308 -0.000297939 2.96538e-05)
(-0.000253919 -0.00028482 2.35893e-05)
(-0.000299184 -0.000271607 1.79145e-05)
(-0.000341164 -0.000267542 9.76067e-06)
(-0.000371473 -0.000275834 1.53355e-06)
(-0.000386382 -0.000295014 -9.76036e-06)
(-0.000370142 -0.000308206 -2.44181e-05)
(-0.000323781 -0.000280322 -4.22356e-05)
(-0.000229504 -0.000220644 -5.40888e-05)
(-0.000114194 -0.000163293 -5.71039e-05)
(5.67202e-06 -0.000127608 -4.94506e-05)
(2.03305e-05 -0.000102184 -2.40673e-05)
(3.41514e-06 -9.27581e-05 6.13643e-07)
(7.33242e-05 -0.000188743 -8.89124e-06)
(0.000226176 -0.000248148 -1.53948e-05)
(0.000373758 -0.000269005 -1.70954e-05)
(0.000481627 -0.000283706 -1.3019e-05)
(0.000526234 -0.000283871 -5.54125e-06)
(0.000521993 -0.000260158 2.06835e-06)
(0.000489782 -0.000236087 5.01122e-06)
(0.000437765 -0.000227952 5.51579e-06)
(0.000378737 -0.000240418 6.23067e-06)
(0.000312185 -0.000264422 6.62905e-06)
(0.000251715 -0.000293124 8.0737e-06)
(0.000186469 -0.000309258 9.87216e-06)
(0.00012398 -0.000312794 1.33065e-05)
(4.0822e-05 -0.000298078 1.71115e-05)
(-6.24784e-05 -0.000281864 2.01813e-05)
(-0.000166272 -0.00028473 1.91977e-05)
(-0.000243069 -0.000283917 1.63627e-05)
(-0.000310578 -0.000270833 1.45808e-05)
(-0.000373744 -0.000251859 1.23443e-05)
(-0.000433085 -0.000231821 1.14374e-05)
(-0.000488621 -0.000223903 9.57887e-06)
(-0.000531066 -0.000233307 8.03685e-06)
(-0.00055645 -0.00025864 3.53446e-06)
(-0.000549903 -0.000284853 -5.57066e-06)
(-0.000498506 -0.000287816 -1.62815e-05)
(-0.000382046 -0.000269777 -2.22779e-05)
(-0.000228293 -0.000240606 -2.15216e-05)
(-7.02848e-05 -0.000174314 -1.47001e-05)
(-2.6017e-06 -8.9888e-05 -2.22842e-06)
(4.65595e-05 -0.000238685 4.38464e-05)
(0.000188975 -0.000414126 6.42138e-05)
(0.000340565 -0.000483482 6.57087e-05)
(0.000479744 -0.000459025 6.37759e-05)
(0.000570522 -0.000403932 6.12093e-05)
(0.000604921 -0.000331481 5.61559e-05)
(0.000588981 -0.00025884 4.89095e-05)
(0.000548104 -0.000200464 3.78288e-05)
(0.00048769 -0.000166248 2.51877e-05)
(0.000420073 -0.000159802 1.41693e-05)
(0.000340593 -0.000173151 5.23877e-06)
(0.000264303 -0.000198696 -4.46619e-07)
(0.00018021 -0.000214968 -3.79798e-06)
(0.00010707 -0.000217713 -3.6166e-06)
(1.41057e-05 -0.000187204 -1.21702e-06)
(-9.00139e-05 -0.00016847 5.1627e-06)
(-0.000190627 -0.000185757 5.44935e-06)
(-0.000272758 -0.000204644 6.28009e-06)
(-0.000341865 -0.000198445 8.83894e-06)
(-0.000412681 -0.000187138 1.3314e-05)
(-0.000475295 -0.000178484 2.10184e-05)
(-0.000533732 -0.000187771 3.0131e-05)
(-0.000579938 -0.000220802 4.0904e-05)
(-0.000611573 -0.000275902 4.94572e-05)
(-0.000616674 -0.000343938 5.42277e-05)
(-0.000577421 -0.000410495 5.57964e-05)
(-0.000480335 -0.000456459 5.58412e-05)
(-0.000337078 -0.000467645 5.60918e-05)
(-0.000180226 -0.000386016 5.44089e-05)
(-4.29822e-05 -0.000223537 3.77461e-05)
(8.17093e-05 -0.000552568 7.99427e-05)
(0.000265319 -0.000807797 0.000118318)
(0.000381473 -0.000865579 0.000129305)
(0.000476081 -0.000801066 0.000131982)
(0.000518483 -0.000686281 0.000130996)
(0.000529182 -0.000550227 0.000124484)
(0.000509219 -0.000420792 0.000111962)
(0.000479014 -0.000313439 9.50354e-05)
(0.000436174 -0.000235138 7.6589e-05)
(0.000387277 -0.000190628 6.0163e-05)
(0.000318553 -0.000175876 4.69519e-05)
(0.000241073 -0.000185957 3.7917e-05)
(0.000140726 -0.000201528 3.19729e-05)
(5.38836e-05 -0.00021071 2.94943e-05)
(-4.89931e-05 -0.000179892 3.03364e-05)
(-0.000105063 -0.000181507 3.75809e-05)
(-0.00015268 -0.000202828 3.8644e-05)
(-0.000232073 -0.000231189 4.12451e-05)
(-0.000295953 -0.000229011 4.5603e-05)
(-0.000365176 -0.00022817 5.26544e-05)
(-0.000416316 -0.000243082 6.37671e-05)
(-0.000459039 -0.000282639 7.74763e-05)
(-0.000491121 -0.000353201 9.36359e-05)
(-0.000515588 -0.000449001 0.000108142)