/*--------------------------------*- C++ -*----------------------------------*\
| =========                 |                                                 |
| \\      /  F ield         | OpenFOAM: The Open Source CFD Toolbox           |
|  \\    /   O peration     | Version:  v1912                                 |
|   \\  /    A nd           | Website:  www.openfoam.com                      |
|    \\/     M anipulation  |                                                 |
\*---------------------------------------------------------------------------*/
FoamFile
{
    version     2.0;
    format      ascii;
    class       volScalarField;
    location    "130/oil";
    object      wallHeatFlux;
}
// * * * * * * * * * * * * * * * * * * * * * * * * * * * * * * * * * * * * * //

dimensions      [1 0 -3 0 0 0 0];


internalField   uniform 0;

boundaryField
{
    maxY
    {
        type            calculated;
        value           uniform 0;
    }
    minX
    {
        type            calculated;
        value           uniform 0;
    }
    maxX
    {
        type            calculated;
        value           uniform 0;
    }
    minY
    {
        type            calculated;
        value           uniform 0;
    }
    minZ
    {
        type            calculated;
        value           uniform 0;
    }
    maxZ
    {
        type            calculated;
        value           uniform 0;
    }
    oil_to_sphere
    {
        type            calculated;
        value           nonuniform List<scalar> 
360
(
8372.52
8419.63
5704.97
14821.1
15817.1
6636.62
16239.5
14656.9
15774.2
8257.38
8301.58
6610.68
7336.46
5141.79
8087.44
14030
16013.2
14839.4
15520
5122.35
12911.8
8273.01
7282.01
15348.2
5726.88
15911.6
6614.81
15676.3
15556.5
14713.8
16719.2
16315
5724.04
5664.13
6545.71
6576.12
15365.1
15251.5
14843.3
15073.9
15460.3
5686.26
6503.79
8603.85
8623.99
6595.9
7215.85
5082.89
8090.18
14536.5
6657.25
6605.01
7273.41
7286.69
5083.91
8308.07
14884.9
5114.67
6521.09
7170.69
5117.29
15640.9
14855.6
15501.3
5082.87
13409.8
8069.3
7060.5
16267.2
15458.2
14898.4
15251.9
15200.7
5089.13
11519.9
8040.46
5149.69
6984.43
15279
15723
7151.63
7023.88
7045.48
5116
5685.14
6557.6
6591.48
7300.42
5117.65
5153.21
5695.9
7315.92
6590.31
5685.95
7260.14
6567.28
6568.88
6579.97
5660.61
5196.09
5196
5111.69
6642.38
6629.43
7334.66
5111.74
5162.88
7350.83
5684.43
6606.55
6601.35
6599.03
5674.52
5099.53
5221.29
5207.65
7233.92
7189.07
7180.33
8527.54
8541.85
14314.2
15245.4
13798
15380.1
14321.8
15375.9
15576.9
14502.1
15150.8
14897.4
7178.42
7130.47
7157.68
5187.22
14261.4
15524.9
8383.4
8403.38
15674.7
14486.3
8194.46
8072.58
15898.7
14587.2
16808.4
5186.81
5175.04
15336.7
15709.2
16761.9
15926.4
15928.2
16612.6
16748
14505.7
8025.93
15832.2
15018.3
5137.82
15654.4
16057.5
7004.11
6901.07
7176.26
8193.97
8289.36
15872.7
14607.4
16515.6
5070.29
14814
8324.14
15682.5
14982
5074.76
16168.1
7110.71
7093.71
5177.75
6607.95
6616.15
7316.34
5710.99
7270.41
6557.12
5111.97
5189.58
15556.5
14590.3
15643.3
15049.7
8557.29
8563.47
15305.9
14004.4
15054.4
8161.57
8210.83
5171.07
6568.52
6670.9
7336.41
6610.4
6585.16
7346.31
5681.62
7293.68
6561.56
5638.75
14463.7
7334.64
6564.26
5132.17
15214.1
14410.6
15214.7
8496.06
8496.36
5070.36
6537.11
6546.74
7129.7
15620.8
5637.75
7110.79
6524.21
14710.3
14832.8
8443.64
5104.52
8378.25
5102.73
5212.27
7257.57
5710.85
6528.96
6477.61
6446.5
5640.15
5148.7
14862.4
13940.2
15645.1
16403
14676.1
13878.4
15842
16014.1
8188.63
15032.1
5175.75
15812.4
15621.5
15700.6
7274.27
5709.88
6612.01
7283.97
5732.61
15703.4
6563.29
6554.54
6604.38
5669.13
15885.2
14612.7
6550.98
6553.57
5661.16
14663
16578.9
8280.2
14956.9
5121.52
15585.8
15319.3
15714.5
7061.36
5658.38
15477.3
6515.47
6533.36
6508.67
15351.8
5678.01
15105.1
8400.77
13966.8
8442.19
14731.7
14996.9
15292.3
5109.41
6971.68
6859.64
6929.84
8426.15
15372.5
8403.26
14890.2
15332.1
5160.15
15483.9
15735
8053.6
15080.3
5156.99
16582.7
7079.62
7037.66
5062.22
14879.1
8391.77
13231.5
14936.7
8383.9
5113.31
6578.84
6584.88
7325.06
15416
14302.5
8255.96
5178.7
14397.8
8385.01
5135.85
14485.1
15680.7
8145.58
15137.1
5050.45
16347.5
7355.18
16093.1
5671.86
6598.64
16139.6
15093.6
14818.2
8247.38
15726.5
15578.4
8312.52
14909.5
6950.46
7128.9
14649.5
8347.48
5089.88
14631.4
8366.97
5146.31
15090.2
15179
14356.4
8401.84
14840
8421.47
)
;
    }
}


// ************************************************************************* //
