/*--------------------------------*- C++ -*----------------------------------*\
| =========                 |                                                 |
| \\      /  F ield         | OpenFOAM: The Open Source CFD Toolbox           |
|  \\    /   O peration     | Version:  v1906                                 |
|   \\  /    A nd           | Web:      www.OpenFOAM.com                      |
|    \\/     M anipulation  |                                                 |
\*---------------------------------------------------------------------------*/
FoamFile
{
    version     2.0;
    format      ascii;
    class       surfaceScalarField;
    location    "47.4/oil";
    object      phi;
}
// * * * * * * * * * * * * * * * * * * * * * * * * * * * * * * * * * * * * * //

dimensions      [1 0 -1 0 0 0 0];
oriented        oriented;


internalField   nonuniform List<scalar> 
80688
(
-2.27685e-06
-2.31602e-06
-2.27685e-06
-1.02808e-06
-6.45878e-07
-6.02893e-07
-2.79026e-07
-3.77155e-07
-3.71899e-07
-1.36365e-07
-7.18918e-08
-7.07694e-08
-5.34371e-08
-4.20105e-08
-4.09178e-08
-1.37102e-08
-2.04127e-08
-1.93143e-08
7.29874e-09
-1.10152e-08
-9.99382e-09
1.86401e-08
-6.17039e-09
-5.17104e-09
2.42709e-08
-3.3634e-09
-2.26743e-09
2.59309e-08
-1.49175e-09
-1.68366e-10
2.45178e-08
-9.9411e-11
1.51255e-09
2.05917e-08
1.00397e-09
2.92203e-09
1.46888e-08
1.84636e-09
4.05656e-09
7.38975e-09
2.43118e-09
4.86782e-09
-6.59613e-10
2.74465e-09
5.30468e-09
-8.77912e-09
2.77897e-09
5.34052e-09
-1.63042e-08
2.54204e-09
4.98307e-09
-2.2643e-08
2.06085e-09
4.27793e-09
-2.73306e-08
1.38104e-09
3.30652e-09
-3.00601e-08
5.54867e-10
2.17459e-09
-3.07171e-08
-3.44022e-10
1.00104e-09
-2.93769e-08
-1.24456e-09
-9.56773e-11
-2.62638e-08
-2.09696e-09
-1.01616e-09
-2.1778e-08
-2.8407e-09
-1.64517e-09
-1.64465e-08
-3.41121e-09
-1.92028e-09
-1.09038e-08
-3.72843e-09
-1.81431e-09
-5.86089e-09
-3.67998e-09
-1.36293e-09
-2.04429e-09
-3.11434e-09
-7.02277e-10
-5.48624e-11
-1.85762e-09
-1.31839e-10
-1.16472e-10
6.15917e-11
-6.12904e-07
-1.09021e-06
-6.12902e-07
-3.66418e-07
-4.00584e-07
-4.9178e-07
-2.60523e-07
-2.72196e-07
-2.10855e-07
-1.25158e-07
-1.22222e-07
-8.5034e-08
-4.74934e-08
-7.65379e-08
-4.31373e-08
-1.6292e-09
-4.86134e-08
-1.76636e-08
2.66679e-08
-3.49673e-08
-4.34507e-09
4.35714e-08
-2.68472e-08
3.77335e-09
5.2274e-08
-2.15061e-08
9.44002e-09
5.43566e-08
-1.7511e-08
1.39365e-08
5.07842e-08
-1.42863e-08
1.77592e-08
4.23973e-08
-1.16352e-08
2.1026e-08
3.01226e-08
-9.5406e-09
2.36617e-08
1.50704e-08
-8.06086e-09
2.55442e-08
-1.48394e-09
-7.25735e-09
2.65563e-08
-1.81777e-08
-7.16328e-09
2.66359e-08
-3.36732e-08
-7.76033e-09
2.57979e-08
-4.67796e-08
-8.97244e-09
2.41397e-08
-5.65594e-08
-1.06726e-08
2.18334e-08
-6.24066e-08
-1.26946e-08
1.90967e-08
-6.4083e-08
-1.48524e-08
1.61847e-08
-6.17187e-08
-1.69502e-08
1.33413e-08
-5.58012e-08
-1.87958e-08
1.07814e-08
-4.71164e-08
-2.01965e-08
8.67097e-09
-3.66953e-08
-2.09421e-08
7.10982e-09
-2.57419e-08
-2.07806e-08
6.09866e-09
-1.55368e-08
-1.93904e-08
5.50533e-09
-7.29668e-09
-1.63682e-08
5.01367e-09
-1.96076e-09
-1.12501e-08
4.05649e-09
-4.04591e-09
1.96865e-09
-3.81217e-07
-3.27778e-07
-3.81215e-07
-2.53506e-07
-3.1313e-07
-2.15166e-07
-1.66842e-07
-2.26694e-07
-1.32166e-07
-8.10656e-08
-1.43757e-07
-6.42415e-08
-2.26881e-08
-1.06406e-07
-2.85093e-08
1.80427e-08
-8.27943e-08
-6.54991e-09
4.56575e-08
-6.92491e-08
6.6669e-09
6.3169e-08
-6.00838e-08
1.5725e-08
7.21766e-08
-5.32254e-08
2.27116e-08
7.35858e-08
-4.7547e-08
2.86267e-08
6.81139e-08
-4.26382e-08
3.38238e-08
5.65801e-08
-3.84275e-08
3.83261e-08
4.00783e-08
-3.50185e-08
4.19797e-08
1.99954e-08
-3.25729e-08
4.45949e-08
-2.02673e-09
-3.12343e-08
4.5999e-08
-2.4219e-08
-3.10752e-08
4.61042e-08
-4.48384e-08
-3.20684e-08
4.49274e-08
-6.2328e-08
-3.40801e-08
4.25972e-08
-7.54679e-08
-3.68774e-08
3.93447e-08
-8.34648e-08
-4.01597e-08
3.5462e-08
-8.60181e-08
-4.35819e-08
3.12828e-08
-8.33034e-08
-4.67826e-08
2.71177e-08
-7.59486e-08
-4.9399e-08
2.32484e-08
-6.49532e-08
-5.10609e-08
1.98689e-08
-5.16065e-08
-5.13699e-08
1.70811e-08
-3.73799e-08
-4.98622e-08
1.4855e-08
-2.37875e-08
-4.59721e-08
1.29894e-08
-1.22345e-08
-3.89813e-08
1.10601e-08
-3.88571e-09
-2.79538e-08
8.3549e-09
-1.18255e-08
3.89388e-09
-7.23042e-08
-1.83172e-07
-7.23012e-08
-9.45081e-08
-2.07196e-07
-8.37296e-08
-7.09765e-08
-1.87608e-07
-6.26177e-08
-2.8828e-08
-1.55266e-07
-3.06401e-08
9.36527e-09
-1.35719e-07
-8.88044e-09
4.09228e-08
-1.21105e-07
6.75347e-09
6.46234e-08
-1.10874e-07
1.79245e-08
8.04409e-08
-1.02602e-07
2.67009e-08
8.83745e-08
-9.53563e-08
3.41973e-08
8.85231e-08
-8.86494e-08
4.09538e-08
8.12184e-08
-8.24233e-08
4.70898e-08
6.71506e-08
-7.68517e-08
5.2492e-08
4.74479e-08
-7.22285e-08
5.69126e-08
2.36543e-08
-6.88676e-08
6.00883e-08
-2.35759e-09
-6.70154e-08
6.1793e-08
-2.85427e-08
-6.67997e-08
6.19096e-08
-5.28782e-08
-6.81883e-08
6.04553e-08
-7.35588e-08
-7.09852e-08
5.75857e-08
-8.91661e-08
-7.48464e-08
5.35763e-08
-9.87925e-08
-7.93151e-08
4.87819e-08
-1.02093e-07
-8.38721e-08
4.35906e-08
-9.92811e-08
-8.79709e-08
3.83765e-08
-9.10703e-08
-9.10633e-08
3.34535e-08
-7.85905e-08
-9.25796e-08
2.9039e-08
-6.32698e-08
-9.1924e-08
2.52334e-08
-4.671e-08
-8.84065e-08
2.19844e-08
-3.05485e-08
-8.11832e-08
1.90496e-08
-1.63188e-08
-6.9148e-08
1.5937e-08
-5.45884e-09
-5.06433e-08
1.18295e-08
-2.27526e-08
5.46822e-09
-3.58016e-08
-1.11573e-07
-3.57976e-08
-4.05192e-08
-1.65012e-07
-3.7467e-08
-2.33555e-08
-1.79799e-07
-2.49729e-08
5.1842e-09
-1.76143e-07
-7.66238e-09
3.4245e-08
-1.71167e-07
6.38734e-09
6.03032e-08
-1.65032e-07
1.78685e-08
8.10016e-08
-1.5892e-07
2.73472e-08
9.5104e-08
-1.52423e-07
3.57181e-08
1.01791e-07
-1.45538e-07
4.34947e-08
1.00648e-07
-1.38379e-07
5.08728e-08
9.17118e-08
-1.31261e-07
5.77731e-08
7.55549e-08
-1.24636e-07
6.39411e-08
5.33017e-08
-1.19014e-07
6.9039e-08
2.65944e-08
-1.14874e-07
7.27136e-08
-2.52417e-09
-1.12583e-07
7.46857e-08
-3.18038e-08
-1.12326e-07
7.48056e-08
-5.90068e-08
-1.14071e-07
7.30861e-08
-8.21389e-08
-1.17563e-07
6.97101e-08
-9.96395e-08
-1.22346e-07
6.50001e-08
-1.1052e-07
-1.27807e-07
5.93722e-08
-1.14412e-07
-1.33258e-07
5.32782e-08
-1.11559e-07
-1.37965e-07
4.71412e-08
-1.02744e-07
-1.41183e-07
4.13053e-08
-8.91793e-08
-1.4216e-07
3.60154e-08
-7.23776e-08
-1.40097e-07
3.13713e-08
-5.4023e-08
-1.34068e-07
2.73065e-08
-3.58327e-08
-1.22924e-07
2.35501e-08
-1.94695e-08
-1.05067e-07
1.95557e-08
-6.63976e-09
-7.78914e-08
1.44183e-08
-3.60433e-08
6.65094e-09
-1.13932e-08
-8.87919e-08
-1.13881e-08
-8.06403e-09
-1.58427e-07
-9.91438e-09
6.63829e-09
-1.92195e-07
-2.3058e-09
2.90552e-08
-2.06462e-07
7.90184e-09
5.32371e-08
-2.12839e-07
1.74902e-08
7.58982e-08
-2.14065e-07
2.63723e-08
9.4461e-08
-2.12187e-07
3.47039e-08
1.07164e-07
-2.07942e-07
4.28168e-08
1.12749e-07
-2.01996e-07
5.08722e-08
1.10479e-07
-1.94941e-07
5.88314e-08
1.00187e-07
-1.87425e-07
6.64573e-08
8.23372e-08
-1.80159e-07
7.33726e-08
5.80405e-08
-1.73855e-07
7.91372e-08
2.90154e-08
-1.69157e-07
8.33085e-08
-2.56499e-09
-1.66545e-07
8.5543e-08
-3.42839e-08
-1.66265e-07
8.56584e-08
-6.37332e-08
-1.68288e-07
8.36659e-08
-8.87633e-08
-1.72305e-07
7.97714e-08
-1.07706e-07
-1.77755e-07
7.43523e-08
-1.19518e-07
-1.83891e-07
6.78954e-08
-1.23827e-07
-1.89868e-07
6.0919e-08
-1.20909e-07
-1.94777e-07
5.38938e-08
-1.11605e-07
-1.9771e-07
4.72229e-08
-9.71897e-08
-1.97734e-07
4.11578e-08
-7.92396e-08
-1.93852e-07
3.58051e-08
-5.94932e-08
-1.84902e-07
3.1088e-08
-3.97408e-08
-1.6939e-07
2.67141e-08
-2.17554e-08
-1.45146e-07
2.20933e-08
-7.47264e-09
-1.08412e-07
1.62377e-08
-5.10017e-08
7.48574e-09
-9.77397e-10
-8.68433e-08
-9.71252e-10
7.41236e-09
-1.70522e-07
3.70576e-09
2.31236e-08
-2.17979e-07
1.0073e-08
4.39318e-08
-2.44698e-07
1.74281e-08
6.61909e-08
-2.59944e-07
2.48457e-08
8.71881e-08
-2.67428e-07
3.23652e-08
1.04518e-07
-2.69619e-07
4.01025e-08
1.16295e-07
-2.67902e-07
4.81827e-08
1.21088e-07
-2.63381e-07
5.65918e-08
1.17979e-07
-2.56981e-07
6.51499e-08
1.06667e-07
-2.49618e-07
7.35052e-08
8.75422e-08
-2.42208e-07
8.11734e-08
6.1708e-08
-2.35629e-07
8.76082e-08
3.09269e-08
-2.30662e-07
9.22858e-08
-2.51687e-09
-2.27891e-07
9.47894e-08
-3.60739e-08
-2.27605e-07
9.48965e-08
-6.71982e-08
-2.2978e-07
9.26165e-08
-9.3618e-08
-2.34071e-07
8.81862e-08
-1.13586e-07
-2.39834e-07
8.20466e-08
-1.2602e-07
-2.46208e-07
7.47521e-08
-1.30563e-07
-2.52221e-07
6.68954e-08
-1.2753e-07
-2.56832e-07
5.90214e-08
-1.17818e-07
-2.58985e-07
5.15639e-08
-1.02753e-07
-2.57599e-07
4.48003e-08
-8.39583e-08
-2.5149e-07
3.88439e-08
-6.32147e-08
-2.39252e-07
3.3606e-08
-4.2363e-08
-2.19016e-07
2.87738e-08
-2.3264e-08
-1.8797e-07
2.37257e-08
-8.01027e-09
-1.41074e-07
1.74083e-08
-6.7037e-08
8.02503e-09
3.83981e-09
-9.45296e-08
3.8465e-09
1.54129e-08
-1.92735e-07
1.06393e-08
3.23542e-08
-2.5171e-07
1.6789e-08
5.28533e-08
-2.88174e-07
2.29765e-08
7.43215e-08
-3.10778e-07
2.93655e-08
9.44482e-08
-3.23777e-07
3.62226e-08
1.11032e-07
-3.2992e-07
4.37174e-08
1.22212e-07
-3.30996e-07
5.19142e-08
1.26478e-07
-3.28364e-07
6.07167e-08
1.22833e-07
-3.23193e-07
6.9857e-08
1.10881e-07
-3.16572e-07
7.89057e-08
9.09549e-08
-3.09578e-07
8.72961e-08
6.41369e-08
-3.03198e-07
9.43866e-08
3.22304e-08
-2.98311e-07
9.95549e-08
-2.41191e-09
-2.95561e-07
1.02313e-07
-3.71433e-08
-2.95285e-07
1.02411e-07
-6.93181e-08
-2.97459e-07
9.98532e-08
-9.65775e-08
-3.01712e-07
9.49e-08
-1.17123e-07
-3.07342e-07
8.8054e-08
-1.2986e-07
-3.13431e-07
7.99595e-08
-1.34459e-07
-3.18907e-07
7.12846e-08
-1.31283e-07
-3.22639e-07
6.26311e-08
-1.21271e-07
-3.23465e-07
5.4467e-08
-1.05792e-07
-3.20177e-07
4.70985e-08
-8.65015e-08
-3.11427e-07
4.06463e-08
-6.51985e-08
-2.95568e-07
3.50137e-08
-4.37445e-08
-2.70337e-07
2.98677e-08
-2.40479e-08
-2.32228e-07
2.45608e-08
-8.28596e-09
-1.74835e-07
1.79989e-08
-8.36249e-08
8.30187e-09
6.00671e-09
-1.0655e-07
6.01354e-09
1.92108e-08
-2.19892e-07
1.39535e-08
3.69012e-08
-2.89505e-07
2.01051e-08
5.72838e-08
-3.34348e-07
2.57919e-08
7.82562e-08
-3.63433e-07
3.1683e-08
9.77595e-08
-3.815e-07
3.8219e-08
1.13778e-07
-3.91564e-07
4.5625e-08
1.2451e-07
-3.95682e-07
5.39539e-08
1.28454e-07
-3.95401e-07
6.30932e-08
1.24556e-07
-3.92021e-07
7.27262e-08
1.12383e-07
-3.86758e-07
8.23595e-08
9.21951e-08
-3.80747e-07
9.13574e-08
6.5053e-08
-3.75045e-07
9.89893e-08
3.27649e-08
-3.70584e-07
1.04561e-07
-2.27797e-09
-3.68054e-07
1.07536e-07
-3.73871e-08
-3.67797e-07
1.07622e-07
-6.98691e-08
-3.69799e-07
1.04822e-07
-9.73303e-08
-3.73677e-07
9.94261e-08
-1.17949e-07
-3.7872e-07
9.19964e-08
-1.3065e-07
-3.83962e-07
8.32325e-08
-1.35136e-07
-3.88286e-07
7.3866e-08
-1.31817e-07
-3.90533e-07
6.45742e-08
-1.21665e-07
-3.89476e-07
5.58594e-08
-1.06084e-07
-3.83804e-07
4.80453e-08
-8.67212e-08
-3.72031e-07
4.12415e-08
-6.53661e-08
-3.52273e-07
3.53492e-08
-4.38637e-08
-3.21881e-07
3.0041e-08
-2.41158e-08
-2.76619e-07
2.4643e-08
-8.3086e-09
-2.0868e-07
1.80376e-08
-1.00258e-07
8.32494e-09
6.82772e-09
-1.20212e-07
6.83433e-09
2.05456e-08
-2.48778e-07
1.51673e-08
3.82662e-08
-3.28443e-07
2.12168e-08
5.81831e-08
-3.80853e-07
2.65882e-08
7.8432e-08
-4.15848e-07
3.21652e-08
9.71588e-08
-4.38696e-07
3.84701e-08
1.12523e-07
-4.52704e-07
4.57757e-08
1.2279e-07
-4.60095e-07
5.4147e-08
1.26513e-07
-4.62572e-07
6.34479e-08
1.22634e-07
-4.61503e-07
7.33608e-08
1.10659e-07
-4.58133e-07
8.33502e-08
9.08168e-08
-4.53629e-07
9.27236e-08
6.41223e-08
-4.49057e-07
1.00706e-07
3.23482e-08
-4.4536e-07
1.0655e-07
-2.13702e-09
-4.43219e-07
1.0965e-07
-3.66691e-08
-4.4299e-07
1.09724e-07
-6.858e-08
-4.44662e-07
1.06774e-07
-9.54903e-08
-4.47851e-07
1.01085e-07
-1.15608e-07
-4.51856e-07
9.32532e-08
-1.27902e-07
-4.55716e-07
8.40489e-08
-1.32116e-07
-4.58338e-07
7.42648e-08
-1.28698e-07
-4.58538e-07
6.45876e-08
-1.18648e-07
-4.55081e-07
5.55548e-08
-1.03347e-07
-4.46605e-07
4.74997e-08
-8.44158e-08
-4.31502e-07
4.05398e-08
-6.35882e-08
-4.0768e-07
3.45793e-08
-4.26575e-08
-3.72076e-07
2.92647e-08
-2.34473e-08
-3.19769e-07
2.39398e-08
-8.07655e-09
-2.41565e-07
1.7515e-08
-1.16428e-07
8.09257e-09
6.87059e-09
-1.33959e-07
6.8761e-09
2.0221e-08
-2.77145e-07
1.50172e-08
3.71874e-08
-3.66183e-07
2.07738e-08
5.60241e-08
-4.25485e-07
2.57945e-08
7.50636e-08
-4.6591e-07
3.10227e-08
9.26333e-08
-4.93293e-07
3.70272e-08
1.07043e-07
-5.11209e-07
4.40949e-08
1.16702e-07
-5.22044e-07
5.229e-08
1.20224e-07
-5.27579e-07
6.14842e-08
1.16576e-07
-5.29205e-07
7.13509e-08
1.05251e-07
-5.2815e-07
8.1341e-08
8.64316e-08
-5.25565e-07
9.07553e-08
6.10556e-08
-5.22469e-07
9.87883e-08
3.08187e-08
-5.1979e-07
1.04667e-07
-2.00627e-09
-5.18167e-07
1.07773e-07
-3.48607e-08
-5.17969e-07
1.07834e-07
-6.51852e-08
-5.19179e-07
1.04841e-07
-9.06831e-08
-5.21438e-07
9.90847e-08
-1.0966e-07
-5.2406e-07
9.11817e-08
-1.21153e-07
-5.26121e-07
8.18971e-08
-1.24937e-07
-5.26591e-07
7.20375e-08
-1.21507e-07
-5.24296e-07
6.23275e-08
-1.11849e-07
-5.1805e-07
5.33114e-08
-9.72929e-08
-5.06471e-07
4.53094e-08
-7.93789e-08
-4.87857e-07
3.84413e-08
-5.97457e-08
-4.59927e-07
3.26145e-08
-4.005e-08
-4.1927e-07
2.74977e-08
-2.2003e-08
-3.60264e-07
2.24484e-08
-7.58029e-09
-2.72401e-07
1.64134e-08
-1.31603e-07
7.59532e-09
6.38497e-09
-1.46733e-07
6.38947e-09
1.86224e-08
-3.03232e-07
1.38491e-08
3.40649e-08
-4.00692e-07
1.90663e-08
5.11116e-08
-4.66139e-07
2.36078e-08
6.831e-08
-5.11491e-07
2.83826e-08
8.41743e-08
-5.43087e-07
3.39295e-08
9.7218e-08
-5.64774e-07
4.05217e-08
1.06022e-07
-5.79092e-07
4.82442e-08
1.0929e-07
-5.87818e-07
5.69703e-08
1.06073e-07
-5.92371e-07
6.63828e-08
9.58708e-08
-5.93907e-07
7.59597e-08
7.87808e-08
-5.9349e-07
8.50151e-08
5.56741e-08
-5.92111e-07
9.27488e-08
2.80762e-08
-5.90599e-07
9.84061e-08
-1.89562e-09
-5.89584e-07
1.01388e-07
-3.18821e-08
-5.89418e-07
1.01436e-07
-5.95166e-08
-5.90095e-07
9.85512e-08
-8.26917e-08
-5.91247e-07
9.29845e-08
-9.98361e-08
-5.92245e-07
8.53293e-08
-1.10083e-07
-5.92234e-07
7.63607e-08
-1.13312e-07
-5.90233e-07
6.68708e-08
-1.09984e-07
-5.85189e-07
5.75661e-08
-1.01048e-07
-5.75947e-07
4.89602e-08
-8.77485e-08
-5.61128e-07
4.13579e-08
-7.14895e-08
-5.38998e-07
3.48816e-08
-5.37367e-08
-5.0711e-07
2.94298e-08
-3.59912e-08
-4.61715e-07
2.46998e-08
-1.97674e-08
-3.96601e-07
2.01127e-08
-6.8064e-09
-3.00065e-07
1.47028e-08
-1.45229e-07
6.81973e-09
5.50095e-09
-1.57739e-07
5.505e-09
1.59777e-08
-3.25587e-07
1.1879e-08
2.91464e-08
-4.30177e-07
1.6317e-08
4.36716e-08
-5.0086e-07
2.01958e-08
5.8319e-08
-5.50467e-07
2.43289e-08
7.18741e-08
-5.8584e-07
2.91973e-08
8.30857e-08
-6.11022e-07
3.50362e-08
9.07248e-08
-6.28672e-07
4.19409e-08
9.36773e-08
-6.4057e-07
4.97993e-08
9.10713e-08
-6.4809e-07
5.83253e-08
8.24272e-08
-6.52311e-07
6.70479e-08
6.78059e-08
-6.54177e-07
7.53082e-08
4.79215e-08
-6.54594e-07
8.23673e-08
2.40932e-08
-6.54304e-07
8.7534e-08
-1.81205e-09
-6.53928e-07
9.02501e-08
-2.77195e-08
-6.53791e-07
9.02806e-08
-5.15546e-08
-6.53885e-07
8.76246e-08
-7.14362e-08
-6.53881e-07
8.25154e-08
-8.60271e-08
-6.53158e-07
7.5504e-08
-9.46226e-08
-6.50941e-07
6.73028e-08
-9.71432e-08
-6.46369e-07
5.86571e-08
-9.40472e-08
-6.38489e-07
5.02035e-08
-8.61916e-08
-6.26214e-07
4.24114e-08
-7.46806e-08
-6.08224e-07
3.55844e-08
-6.0716e-08
-5.82771e-07
2.98087e-08
-4.557e-08
-5.47253e-07
2.49966e-08
-3.04857e-08
-4.97688e-07
2.0889e-08
-1.67244e-08
-4.27335e-07
1.69732e-08
-5.76137e-09
-3.23438e-07
1.24099e-08
-1.56763e-07
5.7728e-09
4.29086e-09
-1.6632e-07
4.28969e-09
1.24268e-08
-3.42941e-07
9.21727e-09
2.26506e-08
-4.5304e-07
1.26393e-08
3.39352e-08
-5.27824e-07
1.56793e-08
4.53692e-08
-5.80882e-07
1.89803e-08
5.60148e-08
-6.19416e-07
2.29309e-08
6.49035e-08
-6.47664e-07
2.77534e-08
7.10621e-08
-6.68338e-07
3.35074e-08
7.35954e-08
-6.83221e-07
4.01177e-08
7.17623e-08
-6.93595e-07
4.73379e-08
6.51252e-08
-7.00438e-07
5.47642e-08
5.36762e-08
-7.04592e-07
6.18639e-08
3.79261e-08
-7.06829e-07
6.79846e-08
1.89441e-08
-7.07809e-07
7.24866e-08
-1.75518e-09
-7.08084e-07
7.48552e-08
-2.24442e-08
-7.07971e-07
7.48683e-08
-4.13898e-08
-7.07466e-07
7.25262e-08
-5.70832e-08
-7.06239e-07
6.8051e-08
-6.84517e-08
-7.03758e-07
6.19681e-08
-7.49701e-08
-6.99326e-07
5.49034e-08
-7.66375e-08
-6.92201e-07
4.74994e-08
-7.38935e-08
-6.81562e-07
4.03292e-08
-6.74653e-08
-6.66421e-07
3.37789e-08
-5.82513e-08
-6.45515e-07
2.80779e-08
-4.72248e-08
-6.17109e-07
2.33112e-08
-3.53586e-08
-5.78517e-07
1.9398e-08
-2.36041e-08
-5.25547e-07
1.61038e-08
-1.29374e-08
-4.51045e-07
1.30437e-08
-4.45189e-09
-3.41471e-07
9.54747e-09
-1.65676e-07
4.46104e-09
2.81017e-09
-1.71938e-07
2.80859e-09
8.11499e-09
-3.54231e-07
5.98541e-09
1.48107e-08
-4.67938e-07
8.20215e-09
2.22385e-08
-5.45479e-07
1.02274e-08
2.98346e-08
-6.0099e-07
1.25119e-08
3.70044e-08
-6.4192e-07
1.5334e-08
4.31112e-08
-6.72622e-07
1.88504e-08
4.74882e-08
-6.95825e-07
2.31102e-08
4.95014e-08
-7.13311e-07
2.8077e-08
4.85704e-08
-7.26265e-07
3.36006e-08
4.43094e-08
-7.35558e-07
3.93813e-08
3.6653e-08
-7.41919e-07
4.49834e-08
2.58846e-08
-7.45933e-07
4.98726e-08
1.2725e-08
-7.48187e-07
5.35374e-08
-1.72238e-09
-7.49125e-07
5.54882e-08
-1.61481e-08
-7.49028e-07
5.54827e-08
-2.92479e-08
-7.47891e-07
5.3525e-08
-3.99139e-08
-7.4543e-07
4.98575e-08
-4.74324e-08
-7.41205e-07
4.4965e-08
-5.15019e-08
-7.34636e-07
3.93791e-08
-5.22051e-08
-7.25139e-07
3.3641e-08
-4.99423e-08
-7.11978e-07
2.81531e-08
-4.52758e-08
-6.94304e-07
2.32167e-08
-3.8827e-08
-6.70964e-07
1.89994e-08
-3.12968e-08
-6.40162e-07
1.55224e-08
-2.33103e-08
-5.99235e-07
1.27316e-08
-1.5508e-08
-5.43813e-07
1.0464e-08
-8.47521e-09
-4.66515e-07
8.43628e-09
-2.91324e-09
-3.53219e-07
6.1856e-09
-1.7151e-07
2.92037e-09
1.12179e-09
-1.74178e-07
1.11818e-09
3.232e-09
-3.58654e-07
2.31329e-09
5.9103e-09
-4.73777e-07
3.16017e-09
8.97255e-09
-5.52569e-07
4.02759e-09
1.22255e-08
-6.09378e-07
5.13521e-09
1.54507e-08
-6.51771e-07
6.62545e-09
1.8382e-08
-6.84141e-07
8.58825e-09
2.07022e-08
-7.09227e-07
1.10813e-08
2.2059e-08
-7.28761e-07
1.40934e-08
2.20985e-08
-7.43851e-07
1.75469e-08
2.05317e-08
-7.55269e-07
2.12775e-08
1.71743e-08
-7.63608e-07
2.50465e-08
1.20809e-08
-7.69315e-07
2.84756e-08
5.58333e-09
-7.7282e-07
3.11315e-08
-1.70534e-09
-7.74423e-07
3.2586e-08
-8.96231e-09
-7.74336e-07
3.2565e-08
-1.53706e-08
-7.72558e-07
3.10758e-08
-2.03171e-08
-7.68875e-07
2.83914e-08
-2.34938e-08
-7.62985e-07
2.49576e-08
-2.48346e-08
-7.54485e-07
2.11897e-08
-2.4545e-08
-7.42893e-07
1.7464e-08
-2.28988e-08
-7.27661e-07
1.40364e-08
-2.02548e-08
-7.08005e-07
1.10572e-08
-1.70004e-08
-6.82819e-07
8.60091e-09
-1.34244e-08
-6.50412e-07
6.67429e-09
-9.83032e-09
-6.08045e-07
5.21601e-09
-6.43499e-09
-5.51341e-07
4.13266e-09
-3.47669e-09
-4.72751e-07
3.27834e-09
-1.18639e-09
-3.57937e-07
2.42738e-09
-1.73888e-07
1.19182e-09
-7.05981e-10
-1.72763e-07
-7.09407e-10
-2.0612e-09
-3.55648e-07
-1.65079e-09
-3.69069e-09
-4.69872e-07
-2.27516e-09
-5.34205e-09
-5.48251e-07
-2.66649e-09
-6.77742e-09
-6.05084e-07
-2.85815e-09
-7.84137e-09
-6.47853e-07
-2.85326e-09
-8.39726e-09
-6.8093e-07
-2.65525e-09
-8.38591e-09
-7.07011e-07
-2.22719e-09
-7.82782e-09
-7.27784e-07
-1.53523e-09
-6.83291e-09
-7.44303e-07
-5.43529e-10
-5.58293e-09
-7.57256e-07
7.37179e-10
-4.30329e-09
-7.67108e-07
2.22003e-09
-3.19257e-09
-7.74166e-07
3.74069e-09
-2.3462e-09
-7.7871e-07
5.04317e-09
-1.69719e-09
-7.80871e-07
5.79973e-09
-1.01085e-09
-7.80797e-07
5.77542e-09
-6.25845e-11
-7.78467e-07
4.96051e-09
1.22556e-09
-7.73763e-07
3.59905e-09
2.7285e-09
-7.66538e-07
2.04944e-09
4.24172e-09
-7.56553e-07
5.55042e-10
5.52839e-09
-7.43461e-07
-7.18852e-10
6.3983e-09
-7.2684e-07
-1.69069e-09
6.73495e-09
-7.0599e-07
-2.35256e-09
6.51024e-09
-6.79849e-07
-2.74537e-09
5.7796e-09
-6.46774e-07
-2.90752e-09
4.65379e-09
-6.04041e-07
-2.87801e-09
3.28456e-09
-5.47316e-07
-2.65521e-09
1.88044e-09
-4.69109e-07
-2.2378e-09
6.64856e-10
-3.55126e-07
-1.59527e-09
-1.72563e-07
-6.60561e-10
-2.59013e-09
-1.67575e-07
-2.59829e-09
-7.50883e-09
-3.44998e-07
-5.73139e-09
-1.35804e-08
-4.5592e-07
-7.88065e-09
-2.0074e-08
-5.32186e-07
-9.57162e-09
-2.63722e-08
-5.8766e-07
-1.11266e-08
-3.1887e-08
-6.29622e-07
-1.27169e-08
-3.61032e-08
-6.6231e-07
-1.44037e-08
-3.85631e-08
-6.88337e-07
-1.62139e-08
-3.89427e-08
-7.09325e-07
-1.80797e-08
-3.70891e-08
-7.26268e-07
-1.98882e-08
-3.30147e-08
-7.3982e-07
-2.151e-08
-2.69831e-08
-7.50355e-07
-2.27845e-08
-1.93895e-08
-7.58114e-07
-2.36457e-08
-1.07812e-08
-7.63223e-07
-2.40957e-08
-1.69034e-09
-7.65723e-07
-2.42394e-08
7.44352e-09
-7.6565e-07
-2.42816e-08
1.61712e-08
-7.62984e-07
-2.42111e-08
2.39582e-08
-7.57725e-07
-2.38242e-08
3.02435e-08
-7.49829e-07
-2.29945e-08
3.45991e-08
-7.39169e-07
-2.17399e-08
3.67729e-08
-7.25508e-07
-2.01269e-08
3.67213e-08
-7.08485e-07
-1.83028e-08
3.45893e-08
-6.87448e-07
-1.64096e-08
3.07068e-08
-6.614e-07
-1.4566e-08
2.54981e-08
-6.28722e-07
-1.28435e-08
1.94958e-08
-5.86823e-07
-1.1216e-08
1.32538e-08
-5.3145e-07
-9.62422e-09
7.36812e-09
-4.55327e-07
-7.89629e-09
2.56924e-09
-3.44613e-07
-5.71399e-09
-1.67428e-07
-2.56544e-09
-4.44354e-09
-1.5868e-07
-4.45107e-09
-1.28489e-08
-3.26867e-07
-9.72607e-09
-2.32779e-08
-4.32133e-07
-1.33584e-08
-3.45307e-08
-5.04597e-07
-1.63365e-08
-4.56024e-08
-5.57348e-07
-1.92399e-08
-5.55227e-08
-5.97288e-07
-2.24134e-08
-6.33859e-08
-6.28425e-07
-2.60224e-08
-6.83555e-08
-6.53255e-07
-3.0113e-08
-6.97669e-08
-6.73285e-07
-3.46284e-08
-6.71508e-08
-6.89509e-07
-3.93749e-08
-6.03802e-08
-7.02526e-07
-4.40654e-08
-4.9683e-08
-7.12699e-07
-4.83532e-08
-3.56725e-08
-7.20226e-07
-5.18984e-08
-1.92922e-08
-7.25213e-07
-5.43897e-08
-1.67919e-09
-7.27674e-07
-5.56623e-08
1.59809e-08
-7.27592e-07
-5.57174e-08
3.24977e-08
-7.24974e-07
-5.45263e-08
4.67071e-08
-7.19839e-07
-5.20956e-08
5.76629e-08
-7.12176e-07
-4.86083e-08
6.4737e-08
-7.01898e-07
-4.43449e-08
6.7681e-08
-6.888e-07
-3.96514e-08
6.66117e-08
-6.72524e-07
-3.48926e-08
6.19734e-08
-6.52456e-07
-3.03537e-08
5.44414e-08
-6.27637e-07
-2.62315e-08
4.4827e-08
-5.96521e-07
-2.25863e-08
3.40261e-08
-5.56646e-07
-1.93757e-08
2.30033e-08
-5.03996e-07
-1.64311e-08
1.27505e-08
-4.31665e-07
-1.34093e-08
4.43168e-09
-3.26561e-07
-9.73311e-09
-1.58569e-07
-4.42783e-09
-6.17355e-09
-1.46326e-07
-6.18084e-09
-1.78246e-08
-3.0176e-07
-1.34555e-08
-3.22886e-08
-3.99205e-07
-1.84635e-08
-4.79652e-08
-4.66301e-07
-2.26189e-08
-6.34722e-08
-5.15091e-07
-2.67504e-08
-7.75012e-08
-5.51886e-07
-3.1373e-08
-8.87659e-08
-5.80407e-07
-3.67533e-08
-9.61009e-08
-6.02944e-07
-4.2976e-08
-9.8492e-08
-6.20946e-07
-4.99476e-08
-9.522e-08
-6.35359e-07
-5.74223e-08
-8.59774e-08
-6.46766e-07
-6.50019e-08
-7.09635e-08
-6.55566e-07
-7.21467e-08
-5.09587e-08
-6.61997e-07
-7.82347e-08
-2.72781e-08
-6.66219e-07
-8.26746e-08
-1.65859e-09
-6.68288e-07
-8.50055e-08
2.4006e-08
-6.68207e-07
-8.50502e-08
4.78147e-08
-6.65981e-07
-8.28022e-08
6.80367e-08
-6.61627e-07
-7.84341e-08
8.33175e-08
-6.55061e-07
-7.23962e-08
9.28691e-08
-6.4617e-07
-6.52801e-08
9.64741e-08
-6.34695e-07
-5.77104e-08
9.44206e-08
-6.20241e-07
-5.02285e-08
8.74272e-08
-6.02226e-07
-4.32371e-08
7.64803e-08
-5.79704e-07
-3.69865e-08
6.27506e-08
-5.51219e-07
-3.15719e-08
4.75105e-08
-5.14495e-07
-2.69113e-08
3.20509e-08
-4.65799e-07
-2.27374e-08
1.77361e-08
-3.98816e-07
-1.8535e-08
6.16768e-09
-3.01516e-07
-1.34768e-08
-1.46238e-07
-6.16339e-09
-7.68187e-09
-1.30954e-07
-7.68948e-09
-2.21596e-08
-2.70586e-07
-1.66967e-08
-4.01483e-08
-3.58334e-07
-2.28828e-08
-5.96705e-08
-4.1873e-07
-2.80488e-08
-7.90455e-08
-4.62474e-07
-3.32412e-08
-9.66489e-08
-4.95197e-07
-3.90859e-08
-1.10885e-07
-5.20239e-07
-4.59322e-08
-1.20268e-07
-5.39661e-07
-5.38989e-08
-1.23501e-07
-5.54825e-07
-6.2888e-08
-1.19638e-07
-5.66602e-07
-7.26196e-08
-1.0822e-07
-5.75616e-07
-8.25676e-08
-8.94416e-08
-5.82319e-07
-9.20263e-08
-6.42181e-08
-5.87042e-07
-1.00178e-07
-3.42037e-08
-5.9004e-07
-1.06193e-07
-1.62751e-09
-5.91468e-07
-1.09396e-07
3.09951e-08
-5.91392e-07
-1.09437e-07
6.11445e-08
-5.89823e-07
-1.06307e-07
8.65683e-08
-5.86692e-07
-1.00359e-07
1.05616e-07
-5.81845e-07
-9.22639e-08
1.17343e-07
-5.75058e-07
-8.28375e-08
1.21537e-07
-5.65987e-07
-7.29026e-08
1.18639e-07
-5.54176e-07
-6.31678e-08
1.09594e-07
-5.39017e-07
-5.4163e-08
9.56723e-08
-5.19609e-07
-4.61723e-08
7.83638e-08
-4.94616e-07
-3.92945e-08
5.92415e-08
-4.6196e-07
-3.34132e-08
3.99268e-08
-4.18306e-07
-2.81788e-08
2.20867e-08
-3.58012e-07
-2.2964e-08
7.67942e-09
-2.70384e-07
-1.67246e-08
-1.30884e-07
-7.67448e-09
-8.89354e-09
-1.1316e-07
-8.9005e-09
-2.56332e-08
-2.34557e-07
-1.92894e-08
-4.64301e-08
-3.11123e-07
-2.64134e-08
-6.90363e-08
-3.63771e-07
-3.23536e-08
-9.15175e-08
-4.01666e-07
-3.83274e-08
-1.11983e-07
-4.29655e-07
-4.50756e-08
-1.28593e-07
-4.50635e-07
-5.29936e-08
-1.39594e-07
-4.66449e-07
-6.22118e-08
-1.43469e-07
-4.78305e-07
-7.26449e-08
-1.39084e-07
-4.87047e-07
-8.39394e-08
-1.2589e-07
-4.93317e-07
-9.54936e-08
-1.04078e-07
-4.97613e-07
-1.06518e-07
-7.46953e-08
-5.00389e-07
-1.16035e-07
-3.96559e-08
-5.01999e-07
-1.23081e-07
-1.5846e-09
-5.02704e-07
-1.26835e-07
3.65292e-08
-5.02633e-07
-1.26872e-07
7.16965e-08
-5.01793e-07
-1.23197e-07
1.01276e-07
-5.00059e-07
-1.16213e-07
1.23356e-07
-4.97188e-07
-1.06736e-07
1.36847e-07
-4.92807e-07
-9.57434e-08
1.41553e-07
-4.86489e-07
-8.42037e-08
1.38013e-07
-4.77726e-07
-7.29105e-08
1.27335e-07
-4.65872e-07
-6.24667e-08
1.11039e-07
-4.50086e-07
-5.3228e-08
9.08549e-08
-4.29149e-07
-4.52827e-08
6.86228e-08
-4.01226e-07
-3.8501e-08
4.622e-08
-3.63421e-07
-3.24823e-08
2.55601e-08
-3.10859e-07
-2.6493e-08
8.89193e-09
-2.34396e-07
-1.93201e-08
-1.13105e-07
-8.88685e-09
-9.73552e-09
-9.36828e-08
-9.74214e-09
-2.80373e-08
-1.95178e-07
-2.10776e-08
-5.0798e-08
-2.5955e-07
-2.88127e-08
-7.55769e-08
-3.03746e-07
-3.52451e-08
-1.00274e-07
-3.35263e-07
-4.17059e-08
-1.22804e-07
-3.58129e-07
-4.89953e-08
-1.4111e-07
-3.74787e-07
-5.75423e-08
-1.53252e-07
-3.86814e-07
-6.74935e-08
-1.5755e-07
-3.95285e-07
-7.87224e-08
-1.52753e-07
-4.00997e-07
-9.08469e-08
-1.38261e-07
-4.0457e-07
-1.03239e-07
-1.14265e-07
-4.06575e-07
-1.15034e-07
-8.19513e-08
-4.07508e-07
-1.25196e-07
-4.34126e-08
-4.07823e-07
-1.32715e-07
-1.52794e-09
-4.07855e-07
-1.36733e-07
4.03977e-08
-4.07793e-07
-1.36766e-07
7.90561e-08
-4.0764e-07
-1.32811e-07
1.11565e-07
-4.07221e-07
-1.25347e-07
1.35798e-07
-4.06192e-07
-1.15229e-07
1.50586e-07
-4.04129e-07
-1.03466e-07
1.55695e-07
-4.0051e-07
-9.1088e-08
1.51722e-07
-3.94785e-07
-7.89683e-08
1.39896e-07
-3.86314e-07
-6.77321e-08
1.2189e-07
-3.74315e-07
-5.77642e-08
9.96385e-08
-3.57705e-07
-4.91937e-08
7.51844e-08
-3.34898e-07
-4.18739e-08
5.05949e-08
-3.03452e-07
-3.53796e-08
2.79694e-08
-2.59335e-07
-2.88987e-08
9.7339e-09
-1.95052e-07
-2.11082e-08
-9.36422e-08
-9.729e-09
-1.01404e-08
-7.33969e-08
-1.01455e-08
-2.92073e-08
-1.54186e-07
-2.19242e-08
-5.29804e-08
-2.05858e-07
-2.99193e-08
-7.89479e-08
-2.41252e-07
-3.65271e-08
-1.04905e-07
-2.66162e-07
-4.31443e-08
-1.2864e-07
-2.83791e-07
-5.06036e-08
-1.47955e-07
-2.96132e-07
-5.93393e-08
-1.60782e-07
-3.04497e-07
-6.94902e-08
-1.65327e-07
-3.09825e-07
-8.09146e-08
-1.60281e-07
-3.12823e-07
-9.32204e-08
-1.45024e-07
-3.14085e-07
-1.05743e-07
-1.19804e-07
-3.14178e-07
-1.17617e-07
-8.58602e-08
-3.1363e-07
-1.27821e-07
-4.54053e-08
-3.12928e-07
-1.35349e-07
-1.45691e-09
-3.1245e-07
-1.39354e-07
4.25294e-08
-3.12398e-07
-1.39382e-07
8.3097e-08
-3.12776e-07
-1.35432e-07
1.17217e-07
-3.13388e-07
-1.27953e-07
1.42673e-07
-3.1386e-07
-1.17788e-07
1.58204e-07
-3.13716e-07
-1.05943e-07
1.63548e-07
-3.12417e-07
-9.34363e-08
1.59306e-07
-3.09406e-07
-8.11366e-08
1.4679e-07
-3.0409e-07
-6.97082e-08
1.2776e-07
-2.95741e-07
-5.95441e-08
1.0429e-07
-2.83446e-07
-5.07893e-08
7.85622e-08
-2.65867e-07
-4.3303e-08
5.27813e-08
-2.41021e-07
-3.66504e-08
2.91418e-08
-2.05696e-07
-2.99987e-08
1.0137e-08
-1.54094e-07
-2.19536e-08
-7.33718e-08
-1.01334e-08
-1.00396e-08
-5.33112e-08
-1.0046e-08
-2.89853e-08
-1.13565e-07
-2.16764e-08
-5.27352e-08
-1.52588e-07
-2.95193e-08
-7.88528e-08
-1.79184e-07
-3.59502e-08
-1.05102e-07
-1.97542e-07
-4.23707e-08
-1.29202e-07
-2.10072e-07
-4.96193e-08
-1.48875e-07
-2.18334e-07
-5.8126e-08
-1.61959e-07
-2.23404e-07
-6.80092e-08
-1.66636e-07
-2.26032e-07
-7.91155e-08
-1.61573e-07
-2.2684e-07
-9.10464e-08
-1.46164e-07
-2.26348e-07
-1.03146e-07
-1.20693e-07
-2.2508e-07
-1.14568e-07
-8.64441e-08
-2.23542e-07
-1.24337e-07
-4.56575e-08
-2.22193e-07
-1.31522e-07
-1.36831e-09
-2.21397e-07
-1.35343e-07
4.29564e-08
-2.21356e-07
-1.35367e-07
8.38471e-08
-2.22072e-07
-1.31594e-07
1.18264e-07
-2.23355e-07
-1.2445e-07
1.4395e-07
-2.24835e-07
-1.14711e-07
1.5961e-07
-2.26059e-07
-1.03317e-07
1.64951e-07
-2.26521e-07
-9.12382e-08
1.60567e-07
-2.25708e-07
-7.9315e-08
1.47765e-07
-2.2308e-07
-6.8207e-08
1.28372e-07
-2.18034e-07
-5.83136e-08
1.04521e-07
-2.09805e-07
-4.97909e-08
7.84885e-08
-1.97317e-07
-4.25175e-08
5.25486e-08
-1.79015e-07
-3.60662e-08
2.8919e-08
-1.52472e-07
-2.95946e-08
1.0037e-08
-1.13506e-07
-2.17053e-08
-5.32993e-08
-1.00355e-08
-9.35771e-09
-3.45905e-08
-9.36306e-09
-2.71945e-08
-7.55634e-08
-2.01643e-08
-4.98444e-08
-1.02577e-07
-2.73614e-08
-7.50495e-08
-1.20778e-07
-3.32014e-08
-1.00619e-07
-1.32937e-07
-3.90355e-08
-1.24252e-07
-1.40762e-07
-4.56763e-08
-1.43634e-07
-1.45416e-07
-5.35363e-08
-1.56608e-07
-1.47711e-07
-6.27183e-08
-1.61344e-07
-1.4824e-07
-7.30569e-08
-1.56547e-07
-1.47482e-07
-8.41543e-08
-1.41646e-07
-1.45868e-07
-9.53818e-08
-1.16952e-07
-1.43831e-07
-1.05943e-07
-8.37343e-08
-1.41801e-07
-1.14958e-07
-4.41883e-08
-1.40169e-07
-1.2157e-07
-1.25806e-09
-1.39252e-07
-1.25075e-07
4.17042e-08
-1.39222e-07
-1.25096e-07
8.13447e-08
-1.40081e-07
-1.21631e-07
1.14713e-07
-1.41662e-07
-1.15062e-07
1.39606e-07
-1.43649e-07
-1.06079e-07
1.54738e-07
-1.45654e-07
-9.55363e-08
1.59791e-07
-1.4725e-07
-8.43235e-08
1.55318e-07
-1.48e-07
-7.3234e-08
1.42611e-07
-1.47479e-07
-6.28951e-08
1.23481e-07
-1.45199e-07
-5.37059e-08
1.0008e-07
-1.40572e-07
-4.58322e-08
7.47138e-08
-1.3278e-07
-3.91703e-08
4.96705e-08
-1.20662e-07
-3.33089e-08
2.71347e-08
-1.02504e-07
-2.74324e-08
9.35392e-09
-7.55323e-08
-2.01933e-08
-3.45901e-08
-9.35527e-09
-8.00033e-09
-1.85846e-08
-8.00559e-09
-2.36761e-08
-4.27093e-08
-1.71783e-08