/*--------------------------------*- C++ -*----------------------------------*\
| =========                 |                                                 |
| \\      /  F ield         | OpenFOAM: The Open Source CFD Toolbox           |
|  \\    /   O peration     | Version:  v1906                                 |
|   \\  /    A nd           | Web:      www.OpenFOAM.com                      |
|    \\/     M anipulation  |                                                 |
\*---------------------------------------------------------------------------*/
FoamFile
{
    version     2.0;
    format      ascii;
    class       surfaceScalarField;
    location    "13/oil";
    object      phi;
}
// * * * * * * * * * * * * * * * * * * * * * * * * * * * * * * * * * * * * * //

dimensions      [1 0 -1 0 0 0 0];
oriented        oriented;


internalField   nonuniform List<scalar> 
80688
(
-2.81339e-06
-2.8619e-06
-2.81339e-06
-1.27241e-06
-7.96333e-07
-7.44644e-07
-3.5051e-07
-4.63102e-07
-4.58798e-07
-1.79609e-07
-8.51041e-08
-8.57973e-08
-8.30768e-08
-4.81235e-08
-4.84082e-08
-3.97135e-08
-2.17827e-08
-2.15805e-08
-1.85921e-08
-1.07892e-08
-1.03322e-08
-7.95319e-09
-5.61194e-09
-5.02691e-09
-2.47568e-09
-3.07416e-09
-2.40332e-09
2.61414e-10
-1.74319e-09
-9.93869e-10
1.41558e-09
-9.93038e-10
-1.61107e-10
1.58149e-09
-5.3755e-10
3.71661e-10
1.09963e-09
-2.48561e-10
7.30444e-10
2.00519e-10
-6.73051e-11
9.66426e-10
-9.35786e-10
3.70584e-11
1.09926e-09
-2.15327e-09
7.71952e-11
1.1403e-09
-3.31569e-09
6.30535e-11
1.09938e-09
-4.30862e-09
3.67478e-12
9.89265e-10
-5.04522e-09
-9.06375e-11
8.27247e-10
-5.47036e-09
-2.07652e-10
6.32798e-10
-5.56025e-09
-3.38541e-10
4.28446e-10
-5.32265e-09
-4.72218e-10
2.34623e-10
-4.79414e-09
-5.99246e-10
7.07403e-11
-4.03366e-09
-7.09945e-10
-5.05245e-11
-3.12065e-09
-7.95707e-10
-1.1729e-10
-2.15295e-09
-8.45254e-10
-1.22438e-10
-1.24325e-09
-8.39792e-10
-6.98905e-11
-5.13229e-10
-7.49444e-10
1.94309e-11
-7.80812e-11
-5.28217e-10
9.30828e-11
-1.64662e-10
8.659e-11
-7.59295e-07
-1.34331e-06
-7.59294e-07
-4.60186e-07
-4.83375e-07
-6.12066e-07
-3.38036e-07
-3.19417e-07
-2.65835e-07
-1.81589e-07
-1.30756e-07
-1.10796e-07
-9.73069e-08
-7.27906e-08
-5.96148e-08
-5.18055e-08
-3.81091e-08
-2.91749e-08
-2.61964e-08
-2.2062e-08
-1.43363e-08
-1.16993e-08
-1.35835e-08
-6.52553e-09
-3.51716e-09
-9.03347e-09
-2.22275e-09
8.36414e-10
-6.42695e-09
3.30217e-10
2.71493e-09
-4.84426e-09
1.97273e-09
2.9023e-09
-3.82782e-09
3.10292e-09
1.91138e-09
-3.15499e-09
3.89737e-09
1.29539e-10
-2.71661e-09
4.43115e-09
-2.11106e-09
-2.45726e-09
4.73493e-09
-4.51281e-09
-2.34612e-09
4.82508e-09
-6.81004e-09
-2.36005e-09
4.72033e-09
-8.778e-09
-2.47671e-09
4.44836e-09
-1.02452e-08
-2.67115e-09
4.04772e-09
-1.11e-08
-2.91593e-09
3.56308e-09
-1.12974e-08
-3.18354e-09
3.04239e-09
-1.08536e-08
-3.44664e-09
2.53062e-09
-9.84038e-09
-3.67964e-09
2.06722e-09
-8.37548e-09
-3.85687e-09
1.68203e-09
-6.61424e-09
-3.94986e-09
1.39292e-09
-4.74026e-09
-3.92078e-09
1.20157e-09
-2.95423e-09
-3.71394e-09
1.08813e-09
-1.45751e-09
-3.24622e-09
1.00007e-09
-4.26693e-10
-2.39227e-09
8.33242e-10
-1.02653e-09
4.35187e-10
-4.75307e-07
-3.92701e-07
-4.75306e-07
-3.26167e-07
-3.57697e-07
-2.74817e-07
-2.31312e-07
-2.39113e-07
-1.75159e-07
-1.39776e-07
-1.29044e-07
-9.32473e-08
-8.28542e-08
-7.86622e-08
-5.10504e-08
-4.68485e-08
-4.78609e-08
-2.62539e-08
-2.45502e-08
-3.1505e-08
-1.28553e-08
-1.08327e-08
-2.20757e-08
-5.22536e-09
-2.62429e-09
-1.65651e-08
-6.76731e-10
1.88571e-09
-1.31703e-08
2.23333e-09
3.78498e-09
-1.09794e-08
4.23587e-09
3.77754e-09
-9.50448e-09
5.68412e-09
2.37976e-09
-8.49383e-09
6.73663e-09
2.24117e-11
-7.817e-09
7.45776e-09
-2.89952e-09
-7.40531e-09
7.86999e-09
-6.01796e-09
-7.21613e-09
7.98846e-09
-8.99745e-09
-7.21545e-09
7.83491e-09
-1.15507e-08
-7.36864e-09
7.44522e-09
-1.34589e-08
-7.6348e-09
6.87183e-09
-1.45801e-08
-7.97011e-09
6.17543e-09
-1.48581e-08
-8.3281e-09
5.42252e-09
-1.43146e-08
-8.66324e-09
4.67309e-09
-1.30432e-08
-8.93126e-09
3.98025e-09
-1.1194e-08
-9.08651e-09
3.38048e-09
-8.96123e-09
-9.07625e-09
2.89364e-09
-6.56841e-09
-8.83064e-09
2.51705e-09
-4.25074e-09
-8.25029e-09
2.21869e-09
-2.2366e-09
-7.18563e-09
1.92528e-09
-7.33436e-10
-5.39888e-09
1.50347e-09
-2.50159e-09
7.41633e-10
-9.50879e-08
-2.02526e-07
-9.50869e-08
-1.34121e-07
-2.02552e-07
-1.16113e-07
-1.20249e-07
-1.58482e-07
-9.45016e-08
-8.54729e-08
-1.05476e-07
-5.83442e-08
-5.60528e-08
-7.34837e-08
-3.45985e-08
-3.35328e-08
-5.16439e-08
-1.8737e-08
-1.76761e-08
-3.83947e-08
-8.96694e-09
-6.9614e-09
-2.99954e-08
-2.79496e-09
-1.57463e-10
-2.4632e-08
1.26294e-09
3.64568e-09
-2.10712e-08
4.09779e-09
5.0959e-09
-1.86236e-08
6.19405e-09
4.69245e-09
-1.68925e-08
7.79151e-09
2.86777e-09
-1.56613e-08
8.99218e-09
3.34048e-11
-1.48131e-08
9.83051e-09
-3.4005e-09
-1.42828e-08
1.03114e-08
-7.03326e-09
-1.40256e-08
1.04423e-08
-1.0491e-08
-1.40019e-08
1.02442e-08
-1.34503e-08
-1.41678e-08
9.75846e-09
-1.56625e-08
-1.44699e-08
9.04728e-09
-1.69692e-08
-1.48479e-08
8.18457e-09
-1.73084e-08
-1.52383e-08
7.24937e-09
-1.67089e-08
-1.5578e-08
6.31522e-09
-1.52782e-08
-1.58049e-08
5.44303e-09
-1.31872e-08
-1.58523e-08
4.67481e-09
-1.0651e-08
-1.56437e-08
4.03128e-09
-7.91203e-09
-1.5076e-08
3.50636e-09
-5.22191e-09
-1.40012e-08
3.06079e-09
-2.82425e-09
-1.21921e-08
2.60881e-09
-9.61451e-10
-9.25991e-09
1.99824e-09
-4.43433e-09
9.71296e-10
-5.13403e-08
-9.98461e-08
-5.13394e-08
-7.09064e-08
-1.21192e-07
-6.17933e-08
-6.72663e-08
-1.10166e-07
-5.19563e-08
-5.15628e-08
-8.62672e-08
-3.49128e-08
-3.54195e-08
-6.80176e-08
-2.16093e-08
-2.13267e-08
-5.39602e-08
-1.17766e-08
-1.03664e-08
-4.43425e-08
-5.01252e-09
-2.41537e-09
-3.76607e-08
-2.85718e-10
2.83047e-09
-3.30228e-08
3.14498e-09
5.71491e-09
-2.97193e-08
5.76367e-09
6.55933e-09
-2.731e-08
7.84201e-09
5.68354e-09
-2.55242e-08
9.50748e-09
3.43e-09
-2.42083e-08
1.08006e-08
1.73903e-10
-2.32756e-08
1.17186e-08
-3.67801e-09
-2.2676e-08
1.22451e-08
-7.71144e-09
-2.23693e-08
1.23771e-08
-1.15311e-08
-2.23149e-08
1.21327e-08
-1.47907e-08
-2.24646e-08
1.15564e-08
-1.72244e-08
-2.27559e-08
1.07197e-08
-1.86638e-08
-2.31166e-08
9.70814e-09
-1.90461e-08
-2.34702e-08
8.6142e-09
-1.84066e-08
-2.37391e-08
7.52161e-09
-1.68653e-08
-2.38443e-08
6.49818e-09
-1.46064e-08
-2.37028e-08
5.59161e-09
-1.18581e-08
-2.3215e-08
4.82308e-09
-8.87384e-09
-2.22447e-08
4.18442e-09
-5.91413e-09
-2.05924e-08
3.63151e-09
-3.2368e-09
-1.79391e-08
3.06966e-09
-1.11653e-09
-1.37131e-08
2.33294e-09
-6.6799e-09
1.12905e-09
-2.20863e-08
-5.56741e-08
-2.20856e-08
-3.33491e-08
-8.01706e-08
-2.97589e-08
-3.45821e-08
-8.21631e-08
-2.67699e-08
-2.82102e-08
-7.34324e-08
-1.92067e-08
-1.96645e-08
-6.44542e-08
-1.21091e-08
-1.10541e-08
-5.63576e-08
-6.21291e-09
-3.67587e-09
-5.00773e-08
-1.64341e-09
2.01159e-09
-4.52723e-08
1.92417e-09
5.8409e-09
-4.16485e-08
4.79645e-09
7.81603e-09
-3.88838e-08
7.18939e-09
8.03721e-09
-3.67502e-08
9.21899e-09
6.68772e-09
-3.50964e-08
1.09217e-08
4.03263e-09
-3.38344e-08
1.22812e-08
4.1077e-10
-3.29132e-08
1.32595e-08
-3.7818e-09
-3.23014e-08
1.3818e-08
-8.12774e-09
-3.19666e-08
1.39433e-08
-1.22214e-08
-3.18716e-08
1.36502e-08
-1.57017e-08
-3.19682e-08
1.29839e-08
-1.82929e-08
-3.21899e-08
1.20252e-08
-1.98221e-08
-3.24593e-08
1.08719e-08
-2.02286e-08
-3.26928e-08
9.62909e-09
-1.95552e-08
-3.28024e-08
8.3899e-09
-1.79325e-08
-3.27001e-08
7.23315e-09
-1.5555e-08
-3.22886e-08
6.2082e-09
-1.26599e-08
-3.14478e-08
5.33763e-09
-9.50682e-09
-3.00094e-08
4.61163e-09
-6.36353e-09
-2.77185e-08
3.9828e-09
-3.49827e-09
-2.41546e-08
3.35027e-09
-1.21114e-09
-1.8537e-08
2.5368e-09
-9.11743e-09
1.2264e-09
-9.83948e-09
-3.59957e-08
-9.83891e-09
-1.59557e-08
-5.97863e-08
-1.42681e-08
-1.72252e-08
-6.75642e-08
-1.33294e-08
-1.41109e-08
-6.67652e-08
-9.78143e-09
-9.08503e-09
-6.35962e-08
-5.8839e-09
-3.4989e-09
-5.96908e-08
-2.25298e-09
1.61856e-09
-5.61094e-08
9.14687e-10
5.70683e-09
-5.30379e-08
3.67735e-09
8.43707e-09
-5.05092e-08
6.13042e-09
9.65375e-09
-4.84407e-08
8.34021e-09
9.33405e-09
-4.67542e-08
1.03237e-08
7.57548e-09
-4.53889e-08
1.20511e-08
4.58947e-09
-4.43088e-08
1.34604e-08
6.83174e-10
-4.34925e-08
1.44856e-08
-3.75823e-09
-4.29263e-08
1.50664e-08
-8.32132e-09
-4.25838e-08
1.51802e-08
-1.25982e-08
-4.24331e-08
1.48385e-08
-1.62202e-08
-4.24322e-08
1.40861e-08
-1.89072e-08
-4.25166e-08
1.30137e-08
-2.04845e-08
-4.26102e-08
1.17281e-08
-2.08963e-08
-4.26287e-08
1.03478e-08
-2.01931e-08
-4.24839e-08
8.97833e-09
-1.8515e-08
-4.20824e-08
7.7043e-09
-1.60641e-08
-4.1319e-08
6.57942e-09
-1.30834e-08
-4.00558e-08
5.62735e-09
-9.83589e-09
-3.80933e-08
4.83639e-09
-6.59235e-09
-3.51185e-08
4.15646e-09
-3.62766e-09
-3.06026e-08
3.48328e-09
-1.25573e-09
-2.35416e-08
2.63262e-09
-1.16463e-08
1.27316e-09
-4.21899e-09
-2.75581e-08
-4.21867e-09
-7.02961e-09
-5.0558e-08
-6.41776e-09
-7.50721e-09
-6.10437e-08
-6.04283e-09
-5.51066e-09
-6.45207e-08
-4.241e-09
-2.14794e-09
-6.49842e-08
-1.97467e-09
1.75852e-09
-6.39867e-08
3.89468e-10
5.46451e-09
-6.25167e-08
2.7013e-09
8.45926e-09
-6.0967e-08
4.93438e-09
1.03805e-08
-5.95208e-08
7.0904e-09
1.1014e-08
-5.82326e-08
9.15847e-09
1.02752e-08
-5.71123e-08
1.1097e-08
8.21173e-09
-5.616e-08
1.28345e-08
4.99932e-09
-5.53714e-08
1.42751e-08
9.22569e-10
-5.47447e-08
1.53289e-08
-3.64758e-09
-5.42746e-08
1.59185e-08
-8.30868e-09
-5.39413e-08
1.60187e-08
-1.26595e-08
-5.37188e-08
1.56365e-08
-1.63308e-08
-5.35738e-08
1.48129e-08
-1.90436e-08
-5.34494e-08
1.36457e-08
-2.06244e-08
-5.32812e-08
1.22518e-08
-2.10237e-08
-5.29909e-08
1.07614e-08
-2.02995e-08
-5.24966e-08
9.28845e-09
-1.85976e-08
-5.17073e-08
7.92306e-09
-1.61253e-08
-5.05145e-08
6.72326e-09
-1.31277e-08
-4.8767e-08
5.71369e-09
-9.86666e-09
-4.62358e-08
4.88149e-09
-6.61065e-09
-4.25488e-08
4.17436e-09
-3.63488e-09
-3.70648e-08
3.48645e-09
-1.25611e-09
-2.85522e-08
2.63191e-09
-1.41772e-08
1.27477e-09
-1.61211e-09
-2.43338e-08
-1.61212e-09
-2.53397e-09
-4.71793e-08
-2.45678e-09
-2.22862e-09
-5.91939e-08
-2.15514e-09
-5.1467e-10
-6.51378e-08
-1.09688e-09
2.08725e-09
-6.79385e-08
3.52313e-10
5.06766e-09
-6.89844e-08
2.01736e-09
7.90016e-09
-6.91591e-08
3.80993e-09
1.0159e-08
-6.89143e-08
5.68855e-09
1.15099e-08
-6.84954e-08
7.62377e-09
1.17268e-08
-6.80174e-08
9.56788e-09
1.07062e-08
-6.75382e-08
1.14465e-08
8.46703e-09
-6.70828e-08
1.3162e-08
5.16429e-09
-6.66639e-08
1.45953e-08
1.06225e-09
-6.62876e-08
1.5645e-08
-3.4841e-09
-6.59534e-08
1.62251e-08
-8.09374e-09
-6.56418e-08
1.63102e-08
-1.23835e-08
-6.53333e-08
1.59042e-08
-1.59934e-08
-6.5005e-08
1.50411e-08
-1.86501e-08
-6.46155e-08
1.38227e-08
-2.01855e-08
-6.41125e-08
1.23668e-08
-2.05556e-08
-6.34317e-08
1.08111e-08
-1.98239e-08
-6.25075e-08
9.27918e-09
-1.81386e-08
-6.12583e-08
7.86577e-09
-1.57088e-08
-5.9575e-08
6.6307e-09
-1.27743e-08
-5.72982e-08
5.59661e-09
-9.59039e-09
-5.41704e-08
4.75071e-09
-6.41738e-09
-4.97648e-08
4.04297e-09
-3.52246e-09
-4.33267e-08
3.36702e-09
-1.21392e-09
-3.34004e-08
2.53962e-09
-1.66239e-08
1.23276e-09
-3.95644e-10
-2.3542e-08
-3.96116e-10
-2.86949e-10
-4.67967e-08
-4.91298e-10
5.41168e-10
-5.98713e-08
-1.50746e-10
2.19103e-09
-6.73687e-08
5.81071e-10
4.38695e-09
-7.17425e-08
1.60816e-09
6.79861e-09
-7.42656e-08
2.86948e-09
9.04987e-09
-7.57363e-08
4.32596e-09
1.07935e-08
-7.66028e-08
5.94489e-09
1.17418e-08
-7.71293e-08
7.68556e-09
1.16845e-08
-7.74496e-08
9.48958e-09
1.05131e-08
-7.76335e-08
1.12667e-08
8.23941e-09
-7.77147e-08
1.29057e-08
5.00308e-09
-7.7707e-08
1.42795e-08
1.04779e-09
-7.76165e-08
1.52842e-08
-3.2951e-09
-7.74382e-08
1.58277e-08
-7.67781e-09
-7.71564e-08
1.58973e-08
-1.17495e-08
-7.67566e-08
1.5495e-08
-1.51682e-08
-7.62244e-08
1.4638e-08
-1.76749e-08
-7.55337e-08
1.3425e-08
-1.91103e-08
-7.46501e-08
1.19731e-08
-1.94353e-08
-7.35315e-08
1.04247e-08
-1.87152e-08
-7.21278e-08
8.90023e-09
-1.7098e-08
-7.03732e-08
7.49765e-09
-1.47836e-08
-6.81664e-08
6.27697e-09
-1.20023e-08
-6.53411e-08
5.26161e-09
-8.99491e-09
-6.16175e-08
4.43976e-09
-6.00796e-09
-5.65114e-08
3.75969e-09
-3.28997e-09
-4.91668e-08
3.12214e-09
-1.12982e-09
-3.79167e-08
2.35614e-09
-1.89015e-08
1.1478e-09
1.43772e-10
-2.38284e-08
1.42613e-10
7.38875e-10
-4.78049e-08
4.13127e-10
1.80473e-09
-6.17201e-08
7.8298e-10
3.36631e-09
-7.02773e-08
1.34703e-09
5.25468e-09
-7.57566e-08
2.12572e-09
7.24051e-09
-7.93731e-08
3.12168e-09
9.04526e-09
-8.18663e-08
4.32529e-09
1.03973e-08
-8.36681e-08
5.71325e-09
1.10541e-08
-8.50336e-08
7.24751e-09
1.08321e-08
-8.60938e-08
8.86619e-09
9.63482e-09
-8.6912e-08
1.04758e-08
7.4712e-09
-8.75178e-08
1.19667e-08
4.46747e-09
-8.79151e-08
1.32118e-08
8.44128e-10
-8.81079e-08
1.41148e-08
-3.10119e-09
-8.80846e-08
1.45918e-08
-7.0671e-09
-8.78363e-08
1.46458e-08
-1.07486e-08
-8.73511e-08
1.4276e-08
-1.38334e-08
-8.66217e-08
1.34822e-08
-1.6088e-08
-8.56332e-08
1.2354e-08
-1.73648e-08
-8.43666e-08
1.09933e-08
-1.76272e-08
-8.28051e-08
9.53597e-09
-1.6942e-08
-8.09148e-08
8.10182e-09
-1.54481e-08
-7.86528e-08
6.78583e-09
-1.33306e-08
-7.59278e-08
5.64384e-09
-1.08001e-08
-7.25704e-08
4.69892e-09
-8.07696e-09
-6.82815e-08
3.94079e-09
-5.38062e-09
-6.25317e-08
3.3239e-09
-2.93671e-09
-5.43673e-08
2.75662e-09
-1.00417e-09
-4.19321e-08
2.08292e-09
-2.09261e-08
1.02042e-09
3.32841e-10
-2.44921e-08
3.30893e-10
1.06572e-09
-4.92601e-08
7.22321e-10
2.12586e-09
-6.38527e-08
1.07248e-09
3.49198e-09
-7.31612e-08
1.51784e-09
5.04937e-09
-7.94339e-08
2.11991e-09
6.63154e-09
-8.38606e-08
2.90538e-09
8.03519e-09
-8.71485e-08
3.87849e-09
9.05246e-09
-8.97128e-08
5.02744e-09
9.48574e-09
-9.17849e-08
6.31806e-09
9.18775e-09
-9.34882e-08
7.6925e-09
8.07862e-09
-9.48687e-08
9.06576e-09
6.16281e-09
-9.59391e-08
1.03371e-08
3.55652e-09
-9.66986e-08
1.13898e-08
4.44629e-10
-9.71397e-08
1.21437e-08
-2.91665e-09
-9.72543e-08
1.2531e-08
-6.2826e-09
-9.70399e-08
1.25695e-08
-9.40409e-09
-9.64888e-08
1.22592e-08
-1.20155e-08
-9.55886e-08
1.15783e-08
-1.39122e-08
-9.43355e-08
1.05991e-08
-1.49645e-08
-9.27247e-08
9.41038e-09
-1.51488e-08
-9.07552e-08
8.1344e-09
-1.45207e-08
-8.84218e-08
6.87894e-09
-1.32048e-08
-8.56971e-08
5.72837e-09
-1.13646e-08
-8.25007e-08
4.73275e-09
-9.18226e-09
-7.86672e-08
3.9145e-09
-6.84516e-09
-7.38817e-08
3.26312e-09
-4.54386e-09
-6.75737e-08
2.7407e-09
-2.46925e-09
-5.87132e-08
2.27126e-09
-8.38069e-10
-4.52857e-08
1.72242e-09
-2.26161e-08
8.51957e-10
3.30171e-10
-2.51497e-08
3.27435e-10
9.71545e-10
-5.05859e-08
6.84451e-10
1.83057e-09
-6.56759e-08
9.64211e-10
2.87772e-09
-7.55003e-08
1.2919e-09
4.03089e-09
-8.23197e-08
1.73272e-09
5.17929e-09
-8.73263e-08
2.31728e-09
6.18031e-09
-9.12023e-08
3.05285e-09
6.88058e-09
-9.43477e-08
3.93465e-09
7.13547e-09
-9.69742e-08
4.93436e-09
6.83031e-09
-9.91874e-08
6.00434e-09
5.90372e-09
-1.01017e-07
7.07448e-09
4.36339e-09
-1.02457e-07
8.05811e-09
2.30109e-09
-1.03498e-07
8.86127e-09
-1.37506e-10
-1.04128e-07
9.42675e-09
-2.75029e-09
-1.04348e-07
9.70629e-09
-5.35472e-09
-1.04164e-07
9.72853e-09
-7.76554e-09
-1.0357e-07
9.4923e-09
-9.76849e-09
-1.02551e-07
8.9657e-09
-1.12055e-08
-1.01099e-07
8.20079e-09
-1.19761e-08
-9.9217e-08
7.26305e-09
-1.20612e-08
-9.69234e-08
6.2534e-09
-1.15093e-08
-9.42314e-08
5.25765e-09
-1.04224e-08
-9.11295e-08
4.34552e-09
-8.93342e-09
-8.75517e-08
3.56203e-09
-7.18606e-09
-8.33375e-08
2.92286e-09
-5.3322e-09
-7.81562e-08
2.42067e-09
-3.51927e-09
-7.14142e-08
2.02763e-09
-1.89677e-09
-6.20199e-08
1.68426e-09
-6.36674e-10
-4.78336e-08
1.2878e-09
-2.39006e-08
6.47899e-10
2.16656e-10
-2.55787e-08
2.12316e-10
6.12792e-10
-5.14147e-08
4.32686e-10
1.12778e-09
-6.67889e-08
5.97977e-10
1.74374e-09
-7.69132e-08
7.96948e-10
2.41947e-09
-8.40697e-08
1.07424e-09
3.08944e-09
-8.9448e-08
1.45183e-09
3.66693e-09
-9.37189e-08
1.93913e-09
4.05464e-09
-9.72653e-08
2.52989e-09
4.15948e-09
-1.00285e-07
3.20558e-09
3.90368e-09
-1.02863e-07
3.9313e-09
3.24446e-09
-1.05014e-07
4.65694e-09
2.18532e-09
-1.06724e-07
5.32625e-09
7.83992e-10
-1.07969e-07
5.87322e-09
-8.58103e-10
-1.08741e-07
6.2549e-09
-2.60545e-09
-1.09038e-07
6.43807e-09
-4.3332e-09
-1.0888e-07
6.44369e-09
-5.91401e-09
-1.08261e-07
6.27136e-09
-7.20519e-09
-1.07157e-07
5.89694e-09
-8.09919e-09
-1.05567e-07
5.36117e-09
-8.53096e-09
-1.03494e-07
4.7091e-09
-8.49345e-09
-1.00972e-07
4.0109e-09
-8.02751e-09
-9.80277e-08
3.33036e-09
-7.20753e-09
-9.46635e-08
2.71402e-09
-6.127e-09
-9.08221e-08
2.18983e-09
-4.88806e-09
-8.63471e-08
1.77073e-09
-3.59299e-09
-8.09024e-08
1.45113e-09
-2.34279e-09
-7.38745e-08
1.21013e-09
-1.24287e-09
-6.41329e-08
1.01303e-09
-4.06074e-10
-4.94625e-08
7.92072e-10
-2.47213e-08
4.14614e-10
3.78726e-11
-2.56492e-08
3.26952e-11
9.01067e-11
-5.15184e-08
5.15031e-11
1.62236e-10
-6.69335e-08
7.25742e-11
2.65829e-10
-7.71449e-08
1.28087e-10
4.00517e-10
-8.44383e-08
2.33965e-10
5.49592e-10
-8.99945e-08
3.97414e-10
6.81451e-10
-9.44703e-08
6.19543e-10
7.54766e-10
-9.82334e-08
8.94814e-10
7.28005e-10
-1.01472e-07
1.21441e-09
5.60094e-10
-1.04258e-07
1.56346e-09
2.24743e-10
-1.06597e-07
1.91811e-09
-2.78861e-10
-1.08467e-07
2.24717e-09
-9.31362e-10
-1.09834e-07
2.51758e-09
-1.68753e-09
-1.10693e-07
2.70833e-09
-2.48175e-09
-1.11041e-07
2.79695e-09
-3.24667e-09
-1.10901e-07
2.78561e-09
-3.91571e-09
-1.10268e-07
2.67636e-09
-4.4171e-09
-1.0912e-07
2.46411e-09
-4.70587e-09
-1.07456e-07
2.17816e-09
-4.75967e-09
-1.05286e-07
1.84543e-09
-4.58523e-09
-1.02651e-07
1.50498e-09
-4.2145e-09
-9.95816e-08
1.18321e-09
-3.69078e-09
-9.60903e-08
9.0304e-10
-3.06e-09
-9.21302e-08
6.77299e-10
-2.37855e-09
-8.75359e-08
5.07349e-10
-1.69465e-09
-8.19784e-08
3.92125e-10
-1.06259e-09
-7.48306e-08
3.24007e-10
-5.31294e-10
-6.49525e-08
2.88338e-10
-1.56382e-10
-5.00936e-08
2.56224e-10
-2.50403e-08
1.62583e-10
-1.7559e-10
-2.52919e-08
-1.81774e-10
-5.20161e-10
-5.07736e-08
-4.00197e-10
-9.51773e-10
-6.59596e-08
-5.42364e-10
-1.40978e-09
-7.60484e-08
-6.38409e-10
-1.85218e-09
-8.32889e-08
-7.06964e-10
-2.24636e-09
-8.88401e-08
-7.60194e-10
-2.56954e-09
-9.33416e-08
-8.0556e-10
-2.80743e-09
-9.715e-08
-8.45483e-10
-2.95364e-09
-1.00445e-07
-8.81211e-10
-3.009e-09
-1.03292e-07
-9.11187e-10
-2.98145e-09
-1.05694e-07
-9.30462e-10
-2.88803e-09
-1.07628e-07
-9.33131e-10
-2.74791e-09
-1.09056e-07
-9.18907e-10
-2.5741e-09
-1.09966e-07
-9.00981e-10
-2.37434e-09
-1.10347e-07
-8.93469e-10
-2.13734e-09
-1.10218e-07
-9.19272e-10
-1.85455e-09
-1.09577e-07
-9.73808e-10
-1.53085e-09
-1.08406e-07
-1.03695e-09
-1.18639e-09
-1.06718e-07
-1.08265e-09
-8.42902e-10
-1.04531e-07
-1.09859e-09
-5.28162e-10
-1.01885e-07
-1.08105e-09
-2.5599e-10
-9.88192e-08
-1.03454e-09
-3.6746e-11
-9.53415e-08
-9.67986e-10
1.21493e-10
-9.14008e-08
-8.87628e-10
2.24006e-10
-8.68412e-08
-7.9723e-10
2.69841e-10
-8.13254e-08
-6.98852e-10
2.64018e-10
-7.42363e-08
-5.88451e-10
2.05028e-10
-6.4436e-08
-4.57459e-10
1.01798e-10
-4.96955e-08
-2.94889e-10
-2.48411e-08
-9.73748e-11
-4.0225e-10
-2.44806e-08
-4.08979e-10
-1.16693e-09
-4.91303e-08
-8.78628e-10
-2.11947e-09
-6.38174e-08
-1.18961e-09
-3.15422e-09
-7.35756e-08
-1.43804e-09
-4.1802e-09
-8.05845e-08
-1.67842e-09
-5.1193e-09
-8.59578e-08
-1.94318e-09
-5.89544e-09
-9.03136e-08
-2.25184e-09
-6.44151e-09
-9.39955e-08
-2.60842e-09
-6.70256e-09
-9.71781e-08
-3.00564e-09
-6.64268e-09
-9.99296e-08
-3.42214e-09
-6.25361e-09
-1.02257e-07
-3.82571e-09
-5.55835e-09
-1.04139e-07
-4.18354e-09
-4.61489e-09
-1.05541e-07
-4.45839e-09
-3.49433e-09
-1.06444e-07
-4.64219e-09
-2.27832e-09
-1.06829e-07
-4.73413e-09
-1.01951e-09
-1.06707e-07
-4.76997e-09
2.24794e-10
-1.06076e-07
-4.74575e-09
1.3745e-09
-1.0493e-07
-4.6258e-09
2.34685e-09
-1.03293e-07
-4.39656e-09
3.07508e-09
-1.01192e-07
-4.06696e-09
3.5236e-09
-9.86624e-08
-3.67108e-09
3.68865e-09
-9.574e-08
-3.24431e-09
3.59401e-09
-9.24249e-08
-2.82195e-09
3.28203e-09
-8.86589e-08
-2.42984e-09
2.8056e-09
-8.4285e-08
-2.07972e-09
2.21939e-09
-7.89687e-08
-1.77046e-09
1.5766e-09
-7.21094e-08
-1.48412e-09
9.3322e-10
-6.26031e-08
-1.18951e-09
3.56616e-10
-4.8282e-08
-8.36843e-10
-2.41312e-08
-3.53254e-10
-6.243e-10
-2.32243e-08
-6.32051e-10
-1.7993e-09
-4.66081e-08
-1.34716e-09
-3.25976e-09
-6.05339e-08
-1.82303e-09
-4.84936e-09
-6.97714e-08
-2.2146e-09
-6.43676e-09
-7.6383e-08
-2.6141e-09
-7.89385e-09
-8.14256e-08
-3.07513e-09
-9.09915e-09
-8.54847e-08
-3.62358e-09
-9.93601e-09
-8.88884e-08
-4.27019e-09
-1.03057e-08
-9.18075e-08
-5.00087e-09
-1.01394e-08
-9.4314e-08
-5.78193e-09
-9.40847e-09
-9.64285e-08
-6.55979e-09
-8.14297e-09
-9.81372e-08
-7.26779e-09
-6.42876e-09
-9.94174e-08
-7.83752e-09
-4.39245e-09
-1.00246e-07
-8.23408e-09
-2.18751e-09
-1.00604e-07
-8.4307e-09
6.36714e-11
-1.00485e-07
-8.47355e-09
2.23368e-09
-9.98899e-08
-8.35572e-09
4.16635e-09
-9.88323e-08
-8.03075e-09
5.72345e-09
-9.73374e-08
-7.51317e-09
6.80392e-09
-9.54333e-08
-6.83926e-09
7.36632e-09
-9.31491e-08
-6.0756e-09
7.42205e-09
-9.05066e-08
-5.28909e-09
7.0266e-09
-8.74917e-08
-4.53781e-09
6.26671e-09
-8.40392e-08
-3.8598e-09
5.24103e-09
-7.99866e-08
-3.27275e-09
4.05637e-09
-7.50161e-08
-2.76792e-09
2.81483e-09
-6.85479e-08
-2.3199e-09
1.61865e-09
-5.95321e-08
-1.87486e-09
5.96953e-10
-4.59161e-08
-1.34421e-09
-2.29403e-08
-5.93931e-10
-8.28484e-10
-2.15595e-08
-8.36251e-10
-2.37871e-09
-4.3282e-08
-1.77586e-09
-4.30367e-09
-5.62089e-08
-2.40007e-09
-6.39877e-09
-6.47566e-08
-2.91968e-09
-8.49277e-09
-7.08318e-08
-3.45718e-09
-1.04172e-08
-7.54154e-08
-4.08577e-09
-1.20081e-08
-7.9051e-08
-4.84275e-09
-1.3107e-08
-8.205e-08
-5.73952e-09
-1.35781e-08
-8.45745e-08
-6.76188e-09
-1.33177e-08
-8.67087e-08
-7.86565e-09
-1.22846e-08
-8.84834e-08
-8.97822e-09
-1.05064e-08
-8.99026e-08
-1.00128e-08
-8.09531e-09
-9.09567e-08
-1.08717e-08
-5.22053e-09
-9.16332e-08
-1.14878e-08
-2.0987e-09
-9.19186e-08
-1.18068e-08
1.0708e-09
-9.18021e-08
-1.18521e-08
4.08442e-09
-9.12882e-08
-1.16153e-08
6.71763e-09
-9.03937e-08
-1.10718e-08
8.79017e-09
-8.91396e-08
-1.02703e-08
1.01755e-08
-8.75463e-08
-9.27234e-09
1.08291e-08
-8.56275e-08
-8.17528e-09
1.07771e-08
-8.33847e-08
-7.06987e-09
1.01068e-08
-8.07901e-08
-6.03124e-09
8.94239e-09
-7.77677e-08
-5.10714e-09
7.42557e-09
-7.41551e-08
-4.31464e-09
5.70328e-09
-6.96498e-08
-3.64404e-09
3.92382e-09
-6.37111e-08
-3.05736e-09
2.23408e-09
-5.53615e-08
-2.4808e-09
8.11511e-10
-4.26988e-08
-1.79468e-09
-2.13206e-08
-8.08236e-10
-1.00419e-09
-1.95435e-08
-1.0118e-09
-2.87666e-09
-3.92645e-08
-2.14501e-09
-5.1968e-09
-5.09941e-08
-2.89465e-09
-7.72175e-09
-5.87143e-08
-3.5173e-09
-1.0243e-08
-6.41489e-08
-4.16165e-09
-1.25597e-08
-6.81804e-08
-4.91827e-09
-1.44704e-08
-7.13064e-08
-5.83396e-09
-1.57855e-08
-7.3812e-08
-6.92293e-09
-1.63357e-08
-7.58585e-08
-8.16572e-09
-1.59956e-08
-7.75356e-08
-9.51318e-09
-1.47082e-08
-7.88874e-08
-1.08834e-08
-1.25002e-08
-7.99376e-08
-1.2173e-08
-9.50033e-09
-8.06965e-08
-1.32601e-08
-5.91242e-09
-8.11685e-08
-1.40526e-08
-2.00913e-09
-8.13524e-08
-1.44695e-08
1.94107e-09
-8.12411e-08
-1.45112e-08
5.6654e-09
-8.08394e-08
-1.41731e-08
8.88677e-09
-8.01637e-08
-1.34513e-08
1.13853e-08
-7.92192e-08
-1.24189e-08
1.30185e-08
-7.8013e-08
-1.11664e-08
1.3743e-08
-7.6537e-08
-9.81502e-09
1.35992e-08
-7.47713e-08
-8.46962e-09
1.2699e-08
-7.26749e-08
-7.21494e-09
1.11952e-08
-7.01606e-08
-6.10327e-09
9.26476e-09
-6.70686e-08
-5.156e-09
7.09253e-09
-6.31175e-08
-4.36004e-09
4.8596e-09
-5.78103e-08
-3.66783e-09
2.75176e-09
-5.02659e-08
-2.98778e-09
9.9284e-10
-3.87661e-08
-2.17377e-09
-1.93388e-08
-9.88949e-10
-1.14308e-09
-1.72501e-08
-1.15035e-09
-3.26997e-09
-3.47024e-08
-2.43528e-09
-5.9024e-09
-4.50813e-08
-3.28032e-09
-8.76266e-09
-5.18751e-08
-3.97891e-09
-1.16161e-08
-5.65957e-08
-4.69968e-09
-1.42339e-08
-6.00207e-08
-5.54194e-09
-1.6388e-08
-6.2593e-08
-6.55924e-09
-1.78626e-08
-6.45695e-08
-7.76793e-09
-1.84661e-08
-6.61066e-08
-9.1484e-09
-1.80567e-08
-6.72947e-08
-1.06503e-08
-1.65667e-08
-6.81944e-08
-1.2183e-08
-1.40241e-08
-6.88474e-08
-1.36327e-08
-1.05672e-08
-6.92862e-08
-1.48672e-08
-6.42806e-09
-6.95331e-08
-1.57746e-08
-1.91783e-09
-6.96038e-08
-1.62588e-08
2.63782e-09
-6.95006e-08
-1.62962e-08
6.90999e-09
-6.92289e-08
-1.58826e-08
1.0579e-08
-6.87936e-08
-1.50391e-08
1.34027e-08
-6.81866e-08
-1.38563e-08
1.52265e-08
-6.73943e-08
-1.24426e-08
1.60065e-08
-6.63873e-08
-1.09297e-08
1.57941e-08
-6.51261e-08
-9.43279e-09
1.47176e-08
-6.35538e-08
-8.04453e-09
1.29523e-08
-6.15777e-08
-6.8177e-09
1.07021e-08
-5.90452e-08
-5.77319e-09
8.17776e-09
-5.56979e-08
-4.89521e-09
5.59143e-09
-5.10947e-08
-4.12928e-09
3.15749e-09
-4.4457e-08
-3.37494e-09
1.13409e-09
-3.42764e-08
-2.46633e-09
-1.70752e-08
-1.12951e-09
-1.24146e-09
-1.47606e-08
-1.24804e-09
-3.54718e-09
-2.97576e-08
-2.63899e-09
-6.39629e-09
-3.86829e-08
-3.54924e-09
-9.48932e-09
-4.44885e-08
-4.29358e-09
-1.25712e-08
-4.84602e-08
-5.05367e-09
-1.5392e-08
-5.12624e-08
-5.93745e-09
-1.77068e-08
-5.32774e-08
-7.00064e-09
-1.92809e-08
-5.4736e-08
-8.25943e-09
-1.99101e-08
-5.57804e-08
-9.69687e-09
-1.9442e-08
-5.65051e-08
-1.12576e-08
-1.78054e-08
-5.6981e-08
-1.28501e-08
-1.50291e-08
-5.7263e-08
-1.43607e-08
-1.12593e-08
-5.74041e-08
-1.56518e-08
-6.74511e-09
-5.74429e-08
-1.66044e-08
-1.82386e-09
-5.74102e-08
-1.71149e-08
3.14017e-09
-5.73174e-08
-1.71471e-08
7.78035e-09
-5.71693e-08
-1.66998e-08
1.17518e-08
-5.69621e-08
-1.58029e-08
1.47959e-08
-5.66739e-08
-1.45567e-08
1.67499e-08
-5.62691e-08
-1.30792e-08
1.75708e-08
-5.57017e-08
-1.15065e-08
1.73155e-08
-5.49176e-08
-9.95311e-09
1.612e-08
-5.38467e-08
-8.51168e-09
1.41767e-08
-5.23955e-08
-7.23894e-09
1.17049e-08
-5.04203e-08
-6.15302e-09
8.93584e-09
-4.76912e-08
-5.23763e-09
6.10245e-09
-4.38259e-08
-4.43539e-09
3.44011e-09
-3.81563e-08
-3.63835e-09
1.23268e-09
-2.94009e-08
-2.66808e-09
-1.46148e-08
-1.2277e-09
-1.29664e-09
-1.21615e-08
-1.30239e-09
-3.7004e-09
-2.46034e-08
-2.75049e-09
-6.66892e-09
-3.20238e-08
-3.69061e-09
-9.88925e-09
-3.68173e-08
-4.45085e-09
-1.30958e-08
-4.0035e-08
-5.21863e-09
-1.60264e-08
-4.22279e-08
-6.10388e-09
-1.84226e-08
-4.37179e-08
-7.16336e-09
-2.0041e-08
-4.47033e-08
-8.41423e-09
-2.06713e-08
-4.53139e-08
-9.83624e-09
-2.01584e-08
-4.56429e-08
-1.13751e-08
-1.84318e-08
-4.57636e-08
-1.2944e-08
-1.55208e-08
-4.57438e-08
-1.44302e-08
-1.15797e-08
-4.56443e-08
-1.57009e-08
-6.86526e-09
-4.55179e-08
-1.66394e-08
-1.72577e-09
-4.5405e-08
-1.71447e-08
3.45374e-09
-4.5325e-08
-1.71719e-08
8.28588e-09
-4.52821e-08
-1.67194e-08
1.24168e-08
-4.52643e-08
-1.58288e-08
1.55772e-08
-4.52365e-08
-1.45978e-08
1.76038e-08
-4.51539e-08
-1.31418e-08
1.84501e-08
-4.4956e-08
-1.15919e-08
1.81736e-08
-4.45792e-08
-1.00619e-08
1.69147e-08
-4.3949e-08
-8.63876e-09
1.48705e-08
-4.29735e-08
-7.3777e-09
1.22718e-08
-4.15221e-08
-6.29956e-09
9.36231e-09
-3.9395e-08
-5.38675e-09
6.38748e-09
-3.62692e-08
-4.58186e-09
3.59682e-09
-3.15928e-08
-3.77279e-09
1.28697e-09
-2.43152e-08
-2.77585e-09
-1.20457e-08
-1.28212e-09
-1.30639e-09
-9.54411e-09
-1.31101e-09
-3.72624e-09
-1.94176e-08
-2.76595e-09
-6.71674e-09
-2.53305e-08
-3.70276e-09
-9.96381e-09
-2.91204e-08
-4.44982e-09
-1.31974e-08
-3.16062e-08
-5.19524e-09
-1.615e-08
-3.32271e-08
-6.04828e-09
-1.85581e-08
-3.42459e-08
-7.06392e-09
-2.01753e-08
-3.48281e-08
-8.25797e-09
-2.07901e-08
-3.5089e-08
-9.61011e-09
-2.02502e-08
-3.51135e-08
-1.10693e-08
-1.84882e-08
-3.49742e-08
-1.25513e-08
-1.554e-08
-3.47404e-08
-1.39516e-08
-1.15584e-08
-3.44776e-08
-1.51482e-08
-6.80277e-09
-3.42428e-08
-1.60308e-08
-1.62142e-09
-3.40815e-08
-1.65049e-08
3.59694e-09
-3.40157e-08
-1.65276e-08
8.4617e-09
-3.40491e-08
-1.60978e-08
1.26186e-08
-3.41653e-08
-1.52559e-08
1.58001e-08
-3.43246e-08
-1.40933e-08
1.78411e-08
-3.44748e-08
-1.27201e-08
1.8693e-08
-3.45519e-08
-1.1256e-08
1.84096e-08
-3.44894e-08
-9.80637e-09
1.71315e-08
-3.42156e-08
-8.45523e-09
1.50549e-08
-3.36428e-08
-7.25407e-09
1.24151e-08
-3.2659e-08
-6.2234e-09
9.46132e-09
-3.10946e-08
-5.34659e-09
6.44673e-09
-2.86871e-08
-4.56754e-09
3.62528e-09
-2.49951e-08
-3.77628e-09
1.29533e-09
-1.91974e-08
-2.78776e-09
-9.45897e-09
-1.29139e-09
-1.26735e-09
-7.00563e-09
-1.27112e-09
-3.61911e-09
-1.43884e-08
-2.67743e-09
-6.53402e-09
-1.88412e-08
-3.57441e-09
-9.71139e-09
-2.16641e-08
-4.27891e-09
-1.28834e-08
-2.34604e-08
-4.97379e-09
-1.57821e-08
-2.4563e-08
-5.76528e-09
-1.81445e-08
-2.51776e-08
-6.7059e-09
-1.97236e-08
-2.544e-08
-7.809e-09
-2.03148e-08
-2.5443e-08
-9.05474e-09
-1.97711e-08
-2.52624e-08
-1.03949e-08
-1.80306e-08
-2.49628e-08
-1.17519e-08
-1.5133e-08
-2.46086e-08
-1.30295e-08
-1.123e-08
-2.42624e-08
-1.41181e-08
-6.57518e-09
-2.39782e-08
-1.49194e-08
-1.50695e-09
-2.37994e-08
-1.53503e-08
3.59528e-09
-2.37486e-08
-1.53694e-08
8.35015e-09
-2.38283e-08
-1.49756e-08
1.24147e-08
-2.40214e-08
-1.42085e-08
1.55268e-08
-2.42878e-08
-1.31489e-08
1.75243e-08
-2.4577e-08
-1.18953e-08
1.8357e-08
-2.4829e-08
-1.05556e-08
1.80744e-08
-2.49816e-08
-9.22527e-09
1.68095e-08
-2.49687e-08
-7.98199e-09
1.47573e-08
-2.47165e-08
-6.87408e-09
1.21501e-08
-2.41304e-08
-5.92134e-09
9.23925e-09
-2.30743e-08
-5.1094e-09
6.27902e-09
-2.13418e-08
-4.38498e-09
3.52161e-09
-1.85968e-08
-3.64085e-09
1.25555e-09
-1.42342e-08
-2.69717e-09
-6.95012e-09
-1.25329e-09
-1.17348e-09
-4.65603e-09
-1.17611e-09
-3.3658e-09
-9.7251e-09
-2.47095e-09
-6.10845e-09
-1.28142e-08
-3.28431e-09
-9.12302e-09
-1.47375e-08
-3.91209e-09
-1.21504e-08
-1.59062e-08
-4.52677e-09
-1.49264e-08
-1.65584e-08
-5.22863e-09
-1.71906e-08
-1.68466e-08
-6.06672e-09
-1.87048e-08
-1.68734e-08
-7.05249e-09
-1.92699e-08
-1.67117e-08
-8.16619e-09
-1.87492e-08
-1.64206e-08
-9.36243e-09
-1.70875e-08
-1.60536e-08
-1.05709e-08
-1.43271e-08
-1.56641e-08
-1.1705e-08
-1.0614e-08
-1.53049e-08
-1.26706e-08
-6.19035e-09
-1.50219e-08
-1.338e-08
-1.37633e-09
-1.48525e-08
-1.37609e-08
3.46838e-09
-1.48163e-08
-1.3777e-08
7.98264e-09
-1.49149e-08
-1.34276e-08
1.18419e-08
-1.51325e-08
-1.27482e-08
1.47973e-08
-1.54348e-08
-1.18083e-08
1.6693e-08
-1.5778e-08
-1.06946e-08
1.74773e-08
-1.61117e-08
-9.50161e-09
1.71935e-08
-1.63828e-08
-8.31495e-09
1.59681e-08
-1.65388e-08
-7.20451e-09
1.39873e-08
-1.65201e-08
-6.21565e-09
1.14787e-08
-1.6254e-08
-5.36774e-09
8.69045e-09
-1.56375e-08
-4.64851e-09
5.87398e-09
-1.45173e-08
-4.0081e-09
3.27548e-09
-1.26529e-08