/*--------------------------------*- C++ -*----------------------------------*\
| =========                 |                                                 |
| \\      /  F ield         | OpenFOAM: The Open Source CFD Toolbox           |
|  \\    /   O peration     | Version:  v1912                                 |
|   \\  /    A nd           | Website:  www.openfoam.com                      |
|    \\/     M anipulation  |                                                 |
\*---------------------------------------------------------------------------*/
FoamFile
{
    version     2.0;
    format      ascii;
    class       volScalarField;
    location    "54/oil";
    object      wallHeatFlux;
}
// * * * * * * * * * * * * * * * * * * * * * * * * * * * * * * * * * * * * * //

dimensions      [1 0 -3 0 0 0 0];


internalField   uniform 0;

boundaryField
{
    maxY
    {
        type            calculated;
        value           uniform 0;
    }
    minX
    {
        type            calculated;
        value           uniform 0;
    }
    maxX
    {
        type            calculated;
        value           uniform 0;
    }
    minY
    {
        type            calculated;
        value           uniform 0;
    }
    minZ
    {
        type            calculated;
        value           uniform 0;
    }
    maxZ
    {
        type            calculated;
        value           uniform 0;
    }
    oil_to_sphere
    {
        type            calculated;
        value           nonuniform List<scalar> 
1536
(
22188.8
23116
21834.2
21533.3
18669
19079.3
18795.5
14643.7
14104.2
24336.2
18569.3
24579.4
24834.1
24475.6
21347
18440.6
14818.3
14231.1
5036.87
24817.3
24277.9
19264.7
18962.2
18561.8
19566.9
19543.2
19521.3
18631.8
23226
23018.9
21717.5
17586.6
16187.3
19621.8
18502.8
18380.5
17652.4
20351.8
19301.1
20337.3
19287.2
18396.7
22925.3
24595.9
23216.8
24387.4
19086.7
19080.2
21112.8
19411.5
19244.9
19211.1
18844.2
19054.1
16760.8
15874
19046.2
18966.9
14295.3
10469.2
11299.2
10331.3
11115.9
24802.7
24926.7
24497.3
23334.9
24397.8
22328
23142.7
19662.8
19184.6
21738.7
19363.3
18520.1
16026.5
15649.9
15285.9
18464.2
14264.9
10321.2
11138.2
9361.81
9269.79
11718
11266.1
9500.43
14712.6
14151
10420.4
11188.8
5024.37
5039.91
24915
24953.8
24595.4
23545
24004.5
24414.9
22212.2
23398.2
19610.9
22054
21708.1
19310.9
19359.9
18635.7
15349
18327.9
16123.1
15632.1
16112.5
10449.5
11311.4
9446.01
9560.95
9393.18
11650
11273.2
11826.9
14208.1
11213.6
5057.2
24478.2
22233.7
23188.1
22350
23063.1
19249.9
19329.9
19406.6
19220.8
19195.8
19116.2
19347.9
19432.3
19008.6
15922
18807.8
18739.3
10490.5
11292.2
14782.5
14284.9
11126.1
14077.1
21057.2
20935.5
18861
19602.4
21587.3
20955
19061
19311.6
19194.3
17702.4
16688.3
17021.5
21043.7
20679.6
21071.3
22695.7
20151.2
19453.7
18429.2
17694.1
19132.3
18049.4
16758.7
17098.8
22831.5
20491.5
23199.8
20157.9
17588.7
15736
21020
21326.9
22171.8
20737.5
20160.7
19427.5
17686
19326.8
17623.7
16883.7
17310.1
23673
20802.8
21636.1
22703.9
21138.2
22325.5
21584
17342.3
18021.1
17760.3
17895.7
17273.3
17645.2
17961.1
18532.7
14188.6
13841.3
13560.9
14471.6
14867.4
14752.2
15290.7
15395.5
13983.6
13333.3
12907.1
23783.6
25201.1
24780.2
24028.9
23863.5
24032
23987.4
23665.5
24470.5
23264.1
23790.9
23900.7
21077.1
21168.4
23178.5
22088
19998.2
17843.7
17857.5
19081.4
17509.6
13983.6
14332
13711.5
14561.8
14810.3
13742.9
13265.3
8715.44
8009.73
24508.3
24069.4
24400.1
23893
24432.1
25377.2
24538.3
23843.8
20969.1
19543.6
20859
21039.1
17520.3
18526.6
14110.5
13417.3
15031.8
15822.5
15328.6
13017.3
7947.59
8613.25
6569.71
6573.14
8677.99
24117.4
23702.3
23563.1
23237.7
23755.3
24099.2
23594.2
24312.6
25548.8
24758.2
23786.8
22353.9
21052.3
21240.9
21937.3
23324.8
22159.8
21141.4
21090.6
17749.2
17862.6
18399.5
18544.7
17978.2
18463.3
13651.9
13366.1
13896.4
14610.6
14345.4
14820.8
14955.8
14870.2
13633.6
13194.5
14473.3
13923.8
19634.8
18921.9
19098
17651.4
17409.3
16901.3
16554.4
22885.1
22145.3
23210.8
22663.2
22037.2
22936.2
23065.2
23491.2
24170.1
23074.5
23195.1
22931.4
25059.8
24158.3
23801.7
23263.1
24226.3
24680.4
23749.7
22490.7
22661.4
23226.4
21982
23098.3
23466.3
23999.3
24036.7
24463.5
24254.7
23979.7
23468.2
23443.5
23327.3
23672.5
22938.3
23020
22122.3
22877.8
21897.9
22208.2
23378.8
20931.6
22714.7
21249.3
21461.5
20695.8
19918.2
22600.6
21047.6
21154.5
21831.4
19996.3
20439.1
21068
19727.1
20287.8
19277.7
21357.4
22717.3
21155.5
21389.6
21570.2
20162
20546.7
20433.7
17750.3
18116
17686.5
16762
16345.6
16840.3
16045.6
15610.4
17848.2
18120.2
17802.7
16923.9
16485.2
17177.3
15957.1
15618.8
15200.3
17871.6
15604
16845.2
16515.6
16966.1
15936.1
17823.9
18263.7
17833.4
18255.5
15757.9
15273.4
16917.1
16541.3
17086.4
15838.1
15484.9
14573.3
14275.4
14530.5
14253.1
13611.2
13626.5
13201
14152.7
13425.1
15042.8
13067.8
13303.2
12831.1
12364.9
13032.1
12777.3
12050.3
11714.8
10969.7
14402.1
13972.8
13653.2
14495.3
13332.1
13680.3
12051.7
11640.7
11451
10982.9
12860.1
12454.3
13090.6
12797
12677.3
14578.7
14266
14792.9
14791.7
13674.2
13195.4
14279.3
13835.8
27263.7
26329.6
25453.2
27013.1
25290.2
25561.2
26229.4
24682.8
24922.4
25308
25204.1
23710.9
24564.1
23485.3
23345.6
23259.3
23108.4
23634.7
23458
24171.1
24588.7
22642
24027.5
22969.5
23589.5
22991.4
24210.8
23259.6
24283.9
23758.4
24400.9
23836.5
22746.6
23320.9
22164.5
23336.3
20746
21676.7
21151.2
19331.9
20225
20268.7
21395.2
19271
21001.1
19229.8
20214.3
19384.9
18724.3
19119.7
17758.8
17584.9
16575.3
16962
16694.5
16477.5
15788.8
17748.1
15618.4
18417.5
17628.2
16693.3
13360.3
12815.8
12458.2
13175.4
12862
14046
13356.8
15032
12978
12005.3
11820.9
11071.4
9974.45
9215.33
10076.5
9242.69
10659.4
11323.8
10629.6
9836.97
10004.4
13860.2
14290.1
13588.1
14448.1
13180.9
12545.6
13154.2
12739.6
13902.7
13258.3
14632.3
15162.1
12969
12015
12713.3
11714.8
10988.5
12380.6
8628.13
7992.17
8846.75
8092.06
6656.9
6632.11
6620.47
6588.56
7853.09
26652.3
25078.9
25605.4
25386.7
25098.1
26726.1
25715.3
25283.6
24875.3
23931.4
25183.8
25357.3
25944.9
24063.3
24257.8
24626.8
24660
22655.1
23712.2
22590.5
24255.8
23478.2
23411.8
23182.6
23736.7
23094.3
23678.1
24285.2
23265.4
22511.7
22218.1
23762.5
24261.4
22691.2
23974.8
22792.5
22087.6
24351.8
23431.8
23334.9
23636.6
23042.9
22940.6
23524
24201.2
23075.9
22215.4
21178.6
21218.3
20311
19459.2
20238.7
22522.2
21282.7
21397.8
20621.4
20454.9
19846.5
20244.5
20227.9
19338.8
19251.3
17703
19034.4
17425.7
18422.1
16933.3
16633.5
19321.2
18587.3
15879.5
17714.5
15563
17396.3
16369.6
15665.6
16732.8
17252.5
17416.7
16732.1
16827.3
19184.7
17634.9
12033.4
11895.1
11905.3
11188
14388.9
13899.5
13667.3
14549.1
13432.1
13788.7
12598.8
13408.6
13150.9
12839.9
12620.6
10790.8
10719.4
11362.3
9932.58
9997.66
9196.13
10046.2
10056.3
9192.67
11260.8
10571.1
10639.5
11366.1
9856.4
13929
13294.7
14794.9
15181.8
12994.1
12037.2
12739.1
11637.9
11784
12425.6
13746
13223.4
14216.7
13932.2
13604
14477.5
14753.5
12462.1
12855.2
13119
12752.1
12650.6
6644.79
6642
8754.75
8671.56
8029.97
7851.92
9471.18
8680.31
7895.12
22147.3
23234.1
23131.8
21909
23037.3
22125.7
22039.3
24332.8
23807.7
24639.6
23848.7
22714.4
23424
23055.8
24009
23258.3
23588.8
22647.7
22790.4
24216.1
23460.2
23103.9
23341.9
23000.7
22983.5
23362.9
22208.4
22134.2
22818.2
23280.3
22723.1
23543.3
23027.5
24577.8
22933.7
22299.7
22655.3
22921
22212.2
22013.5
23431.9
21120.8
20299.4
20313.2
20799.9
19432
22475.7
20995.9
20970.4
21633.6
20570.4
20598.5
20151.5
22057.6
20876.1
21179.9
21677.3
19982.3
20167.2
20864
20747
19447.2
21571.1
22595.7
21369.9
21604.4
20636
20609.9
20292.8
20248.9
19381
16878.3
16522.9
17036.7
16018.3
15791.4
15402.3
17951.5
17496.3
18088.4
17881.9
16510.8
16941.5
16902.7
15759.1
15446.6
15513.8
17840.4
17816.1
18221.3
17747.7
18351.8
15560.5
15857.3
16835.9
16411.1
16895
15663.7
15431.3
18358.1
17711.9
17702
18040.4
18484.1
15700.6
15420.4
16507.7
16935.8
16989.8
14318.1
14647.1
13682.2
13568.6
13163.2
14603.7
14270.1
14685.5
12883.6
12444.5
13087.3
12731.6
12205.7
12985.8
11818
11041.3
12541.8
13968.9
14218.4
13563.6
14642.7
15477.8
16420.4
14435.4
13640.3
13135.2
13501.1
14251.1
12037.4
12691.6
11687.5
11576.7
12327.2
12989.2
12513.6
13020
12966.7
12662.4
14771.4
15643.9
14033.2
13345.1
12936.7
14507.2
14826.3
13928.7
14314.9
13663.5
21752.7
21296.9
15657
14958.7
24373.9
23783.3
24213.2
24309.4
24149.4
21026.1
22418.4
21736.5
22172.3
18361.5
19192
15106.3
9250.36
8938.51
21827.4
21650.1
14683.4
9289.1
8819.95
10456.1
24268.1
21142.4
19005.4
10329.6
22180.2
21638
22093.7
18373.3
19287.2
19286.5
14620.5
21877.3
22164.9
19405.2
19328
21972.5
19194.8
19327
18009.9
18432.1
15280.8
16081.6
16486.3
21316.6
21922.9
19144.4
20204.9
18250.4
18814.2
15295.2
16063.6
16130.4
21190.1
22310.9
19286.6
20559.3
16360.1
15426.2
16353.3
17770.8
20192.5
20043.1
22205.3
22451
19273.6
19131.8
18975.7
19421
16053.1
15533.9
16181.3
14837.4
25269.8
24765.8
22025.5
23943.4
21954.6
24466.9
24216.9
19185
21356.7
21244.6
21687.7
21247.1
19092.1
16476.8
16182
16201.6
16323.5
16150.4
15990.9
12175.8
14982.4
11842.6
12265.3
24881.7
24445.1
25465.9
24574.9
25251.1
24799
24882.2
24784.3
25200.8
24620.6
22159.7
24063.4
22192.9
23027.1
22152.4
19255.4
20386.6
21110.2
22649.4
19425.9
21918.1
19254.1
15600.1
16241.6
16609.5
15800.3
16359.8
16003.1
14877.5
12229
11586.1
11469
12084.4
14924.2
12155.3
8990.09
9396.88
8817.17
25271.3
25139.5
24788.9
25909.5
24721.1
25132.9
24763.6
25608
24925.7
22188.2
23972.3
21877
24348
24118.9
23696.8
24118.2
23323.4
21933.4
22445.7
19171.7
20887.8
22453.9
21267.4
22240.2
19280.1
15430.8
16285.6
18327.6
19010.9
15905.3
16779
15621.9
16099.4
18874.7
15049.6
12205.7
11157.1
11610.1
11231.3
14898.7
12148.5
9005.04
8833.78
8897.23
24847.4
22873.9
22204.1
24394.4
21919.4
19284.1
21752.8
21400.8
21446.9
21355.6
16091.9
16799
16110.6
16038.5
16047.8
12158.7
15502.9
12326.2
15153.6
22104
21013.2
20160
20725.2
22240.6
21253
17115.8
18055
17551.7
21347.4
22301.4
21453.8
20435.6
22475.6
19682.2
20708.5
20681
20050.3
21446.1
20564.9
22290.2
20045.1
20468.4
20550.7
20297.6
18265.7
18252.2
17317
16968.2
16424.5
15785.5
16969.6
16349.5
17037.3
22212.5
20878.6
20349.8
21087.2
22095.2
19797.6
20087.4
20123.3
18730.7
20733.8
17722
18691.1
18416
17314.5
17085.2
16493.3
15765.3
16736.3
16277.4
17075
21154.8
22095.7
19832.7
19969.3
20286.1
18648
20620.3
18186.2
17044.1
16182.7
17423.3
17206
18072
23526.3
23604
23444.1
23736
20160.5
22259.9
21445.6
17854.8
17934
18563.9
18509.7
18253.9
14723.1
15484.3
15281.7
13813.9
13514.4
15655.9
14854.1
14851.8
23780.8
23924.8
24458.6
23453.5
20468
21435.9
19846.7
22687.5
21165
18147.1
18038.5
17298.9
14887.4
15999.6
15306.3
13911.7
10754.1
10997.6
9952.59
9993.31
9178.12
8733.69
23740.9
23599.3
23655.3
23338.9
24183.7
20877.3
21826.2
21594.5
17610.3
13581.5
15314.2
10029.8
9188.68
8793.23
7775.07
11043.3
23850.1
23666.7
24356.4
23772
24171.6
24004.9
23763.7
23622.4
24011.8
19776.2
20373.3
23539.7
21209.6
18363.6
18355.2
14898.9
15587.8
14913.5
14399.1
15243.9
13768.7
11045
18202.2
15251
22635.7
22284.3
20700.8
20917.4
18192.3
17867
17928.5
16664.7
16133.4
17254.2
16630.7
16797
16039.5
25189.2
24849.6
21618.2
21652.5
22929.1
23577.8
23317.6
23250.2
21811.6
22854.6
22429.1
23219.1
22052.3
22795.3
23879.4
23433.8
23536.5
23453
21885
22325.1
22696.5
23108.4
23837.4
24232.5
24002.1
24218.4
22945.2
21957.5
22592.1
24225.1
23778
24150.6
23852.4
22018
23647.1
23874.9
23230.6
22379.8
22738.7
22309.1
20666.9
20440.9
22730.9
20893.8
20225
20327.1
19131.6
19329.3
19208.8
20324
22319.5
21362.8
19459.3
19380.3
20308.7
19490.7
20401
22082.8
20625.1
19302.7
18425.8
18455.9
17193.7
17470.8
15525
18451.1
17166.7
17598.5
15744.2
17996
18494.1
17402.2
15610.9
18388.5
16699.9
17176.1
14798.1
14783.9
13574.8
13651.6
12622.1
12697.3
13702.7
12796
12507.4
11664.3
11387.5
11355.6
11830.9
14833.4
13818.6
12738.6
12350.7
11705.3
11787.1
11313.3
14350.6
14806.3
12695.7
25431.9
24339.7
25160.5
24100.4
24246.4
25464.1
23727.5
26670.8
24479.3
24627.6
24606.5
25593
24666
25414.4
26538.2
25708.2
24554.5
25142.1
22772.7
23831.5
24707.9
24053.2
22201.2
23282.8
22683.1
23798.2
23360.3
23723.8
23429.1
24274.8
22783.6
21838.9
22194
23111
24160.2
23570.1
23477.5
22980.7
19992.6
20246.5
19198.1
21202
22073.7
20091.2
20424.2
20757.8
20989.1
21039
21898.8
20123.7
18037.8
16973
16642.5
17703
18221.5
16365.5
16802.5
17275.2
17810.3
16978.5
16369.8
15719.2
11799
11559.1
11413.1
13565
12743.1
12384.6
11700.6
14760.6
15096.1
11753
11479.1
13530.6
11719.7
8810.89
8834.35
7964.12
9477.54
7815.38
8820.65
9620.78
25642.9
24564.2
26226.8
24956.5
24900.5
24025.6
24299.1
23711.9
25337.6
26087.4
25470.4
24565.8
24087.1
24005.6
24686.2
24595.2
24657.6
22770.4
24363.4
22652.4
24168.2
24201.9
23668
21638.9
24023.9
23060.8
23662.5
23447.7
22922.4
23509.8
23454.1
22386.9
22705.8
22226
20553.2
22116.8
20869.2
20208.5
19796.8
18641.5
20280.1
22331.5
20638.8
20699.5
17887.3
16522.5
17070.4
17671
18178.5
16649.2
17145.9
17532.9
16890.7
16320.8
18085.7
18184.7
12767.9
12410
11740.1
15011.6
13934.9
11794.8
11644.5
13581.2
11764.4
14716.1
11700.2
7907.31
8803.24
9639.94
25368.7
23667.9
22040.6
23279.4
22112.6
21982.7
22809.8
24215.2
23695.2
23548
22276.2
22578.1
23144.9
22984.3
23877
23539.6
23645
23430.4
22959.7
22047.5
23385.8
22641.3
22410.5
21034.2
19405.8
20568.1
22836.7
20795.7
20128.4
19188.3
19168.7
20313.1
22362.7
19264.6
20344.7
22317.5
19420.8
17021.3
15981.8
17995.5
18435.1
17993.5
17103.1
17674.5
18262.1
16692.3
18362.8
16750.3
12604
14789.1
11697.6
11440.8
11899.5
14757.4
15580.3
13697.5
11672
11895.6
13483.7
14828.9
)
;
    }
}


// ************************************************************************* //
