/*--------------------------------*- C++ -*----------------------------------*\
| =========                 |                                                 |
| \\      /  F ield         | OpenFOAM: The Open Source CFD Toolbox           |
|  \\    /   O peration     | Version:  v1912                                 |
|   \\  /    A nd           | Website:  www.openfoam.com                      |
|    \\/     M anipulation  |                                                 |
\*---------------------------------------------------------------------------*/
FoamFile
{
    version     2.0;
    format      ascii;
    class       volVectorField;
    location    "18/oil";
    object      U;
}
// * * * * * * * * * * * * * * * * * * * * * * * * * * * * * * * * * * * * * //

dimensions      [0 1 -1 0 0 0 0];


internalField   nonuniform List<vector> 
35580
(
(-2.98898e-05 -2.98987e-05 -2.98652e-05)
(-3.28006e-05 -6.19957e-06 -6.17018e-06)
(-6.81255e-06 -4.36959e-06 -4.36258e-06)
(-6.01383e-06 -1.18739e-06 -1.18629e-06)
(-1.55673e-06 -7.51935e-07 -7.50587e-07)
(-1.25253e-06 -2.54909e-07 -2.55108e-07)
(-3.75907e-07 -1.45805e-07 -1.46481e-07)
(-2.97991e-07 -5.82637e-08 -5.95646e-08)
(-9.63716e-08 -3.1256e-08 -3.28033e-08)
(-7.73019e-08 -1.39351e-08 -1.57161e-08)
(-2.41522e-08 -6.81698e-09 -8.6939e-09)
(-2.05426e-08 -2.94749e-09 -4.87427e-09)
(-6.58086e-09 -8.8411e-10 -2.8488e-09)
(-8.16932e-09 1.1331e-10 -1.85821e-09)
(-6.41747e-09 7.47408e-10 -1.23493e-09)
(-9.82385e-09 1.00652e-09 -9.85747e-10)
(-1.17547e-08 1.164e-09 -8.21677e-10)
(-1.49854e-08 1.17025e-09 -8.08845e-10)
(-1.70004e-08 1.1391e-09 -8.28008e-10)
(-1.87383e-08 1.04855e-09 -9.05699e-10)
(-1.92553e-08 9.3737e-10 -9.82289e-10)
(-1.8931e-08 7.98694e-10 -1.05818e-09)
(-1.75118e-08 6.56653e-10 -1.10485e-09)
(-1.53303e-08 5.1088e-10 -1.11653e-09)
(-1.24455e-08 3.66156e-10 -1.07727e-09)
(-9.2488e-09 2.28103e-10 -9.67514e-10)
(-5.95692e-09 1.05762e-10 -7.93886e-10)
(-3.06718e-09 2.55416e-11 -5.37788e-10)
(-8.8256e-10 4.66908e-11 -3.01337e-10)
(9.91745e-11 1.50931e-10 -6.36616e-11)
(-6.18047e-06 -3.28465e-05 -6.17889e-06)
(-8.02057e-06 -8.03874e-06 -2.70045e-06)
(-3.23367e-06 -6.78043e-06 -2.28058e-06)
(-3.01655e-06 -1.90771e-06 -8.62436e-07)
(-1.10279e-06 -1.2614e-06 -5.67912e-07)
(-9.64534e-07 -4.15548e-07 -2.33936e-07)
(-3.69659e-07 -2.59908e-07 -1.37961e-07)
(-3.11249e-07 -1.01079e-07 -6.28844e-08)
(-1.24063e-07 -6.41487e-08 -3.48436e-08)
(-1.00574e-07 -3.00237e-08 -1.72846e-08)
(-3.95002e-08 -1.99087e-08 -8.92678e-09)
(-3.24585e-08 -1.10402e-08 -4.44741e-09)
(-1.48061e-08 -7.58839e-09 -1.77772e-09)
(-1.65197e-08 -4.8028e-09 -4.69639e-10)
(-1.52607e-08 -3.54161e-09 4.0311e-10)
(-2.09165e-08 -2.70722e-09 7.465e-10)
(-2.50654e-08 -2.50392e-09 9.53636e-10)
(-3.07765e-08 -2.59959e-09 9.32583e-10)
(-3.46801e-08 -2.99372e-09 8.44872e-10)
(-3.77601e-08 -3.53631e-09 6.62285e-10)
(-3.87019e-08 -4.20756e-09 4.66711e-10)
(-3.79308e-08 -4.89744e-09 2.67881e-10)
(-3.51761e-08 -5.55379e-09 1.04832e-10)
(-3.09493e-08 -6.11669e-09 -1.44364e-11)
(-2.54539e-08 -6.53531e-09 -6.96347e-11)
(-1.93478e-08 -6.72952e-09 -4.23712e-11)
(-1.3089e-08 -6.58885e-09 4.93138e-11)
(-7.45221e-09 -5.92151e-09 2.15138e-10)
(-2.96154e-09 -4.419e-09 3.04871e-10)
(-2.15838e-10 -1.88414e-09 2.72602e-10)
(-4.37383e-06 -6.84469e-06 -4.36587e-06)
(-6.77792e-06 -3.258e-06 -2.28197e-06)
(-3.2263e-06 -3.25109e-06 -1.9733e-06)
(-3.06054e-06 -1.29745e-06 -8.14763e-07)
(-1.33278e-06 -9.96938e-07 -5.22989e-07)
(-1.09721e-06 -4.33291e-07 -2.26886e-07)
(-4.94129e-07 -3.13401e-07 -1.30754e-07)
(-3.83379e-07 -1.57019e-07 -6.10596e-08)
(-1.77639e-07 -1.13827e-07 -3.29372e-08)
(-1.32382e-07 -6.69546e-08 -1.60703e-08)
(-6.13884e-08 -5.02504e-08 -7.63156e-09)
(-4.63087e-08 -3.42847e-08 -3.16479e-09)
(-2.50551e-08 -2.71861e-08 -4.06486e-10)
(-2.47764e-08 -2.11749e-08 9.4327e-10)
(-2.32306e-08 -1.82411e-08 1.85935e-09)
(-2.93957e-08 -1.61673e-08 2.21852e-09)
(-3.45522e-08 -1.54584e-08 2.41126e-09)
(-4.13449e-08 -1.536e-08 2.35365e-09)
(-4.61685e-08 -1.59043e-08 2.20981e-09)
(-4.98544e-08 -1.67541e-08 1.96266e-09)
(-5.09378e-08 -1.78293e-08 1.68706e-09)
(-4.98157e-08 -1.8904e-08 1.41168e-09)
(-4.62613e-08 -1.98771e-08 1.16905e-09)
(-4.0845e-08 -2.06095e-08 9.74874e-10)
(-3.38682e-08 -2.09707e-08 8.46713e-10)
(-2.61058e-08 -2.07761e-08 8.02544e-10)
(-1.81182e-08 -1.97683e-08 8.1078e-10)
(-1.07649e-08 -1.75251e-08 8.77351e-10)
(-4.6739e-09 -1.33846e-08 8.19122e-10)
(-4.72844e-10 -6.35836e-09 5.40347e-10)
(-1.19017e-06 -6.04369e-06 -1.18681e-06)
(-1.90062e-06 -3.05822e-06 -8.62145e-07)
(-1.2667e-06 -3.11028e-06 -8.14306e-07)
(-1.30044e-06 -1.35791e-06 -3.92397e-07)
(-6.79432e-07 -1.07127e-06 -2.68397e-07)
(-6.1192e-07 -5.08775e-07 -1.29562e-07)
(-3.10101e-07 -3.79568e-07 -7.85016e-08)
(-2.58903e-07 -2.0779e-07 -3.94821e-08)
(-1.29557e-07 -1.5741e-07 -2.17964e-08)
(-1.01562e-07 -1.01417e-07 -1.08081e-08)
(-4.98895e-08 -8.06279e-08 -4.64749e-09)
(-3.97261e-08 -6.00589e-08 -1.29589e-09)
(-2.38612e-08 -5.0647e-08 9.92175e-10)
(-2.55644e-08 -4.23938e-08 2.1279e-09)
(-2.62684e-08 -3.83054e-08 2.94251e-09)
(-3.38592e-08 -3.53315e-08 3.25804e-09)
(-4.04731e-08 -3.4277e-08 3.40881e-09)
(-4.83242e-08 -3.40705e-08 3.31422e-09)
(-5.39906e-08 -3.47616e-08 3.12544e-09)
(-5.81514e-08 -3.58846e-08 2.83155e-09)
(-5.93662e-08 -3.72614e-08 2.50732e-09)
(-5.80189e-08 -3.86023e-08 2.18474e-09)
(-5.39481e-08 -3.9727e-08 1.89395e-09)
(-4.77612e-08 -4.04205e-08 1.65179e-09)
(-3.98289e-08 -4.04612e-08 1.47496e-09)
(-3.09871e-08 -3.95543e-08 1.3796e-09)
(-2.18348e-08 -3.72737e-08 1.33006e-09)
(-1.32686e-08 -3.29366e-08 1.33485e-09)
(-5.97788e-09 -2.54047e-08 1.18494e-09)
(-6.70464e-10 -1.24887e-08 7.47461e-10)
(-7.53143e-07 -1.59059e-06 -7.49529e-07)
(-1.25111e-06 -1.16278e-06 -5.67163e-07)
(-9.63235e-07 -1.40897e-06 -5.22441e-07)
(-1.00948e-06 -7.66539e-07 -2.68318e-07)
(-5.9801e-07 -6.9169e-07 -1.83283e-07)
(-5.31621e-07 -3.96278e-07 -9.29232e-08)
(-2.98034e-07 -3.31184e-07 -5.61503e-08)
(-2.41978e-07 -2.13326e-07 -2.89557e-08)
(-1.3097e-07 -1.76843e-07 -1.55566e-08)
(-9.94124e-08 -1.29031e-07 -7.40508e-09)
(-5.22761e-08 -1.09599e-07 -2.48431e-09)
(-4.05886e-08 -8.867e-08 1.8026e-10)
(-2.61414e-08 -7.82252e-08 2.11678e-09)
(-2.77535e-08 -6.86677e-08 3.07254e-09)
(-2.94728e-08 -6.36566e-08 3.78214e-09)
(-3.7679e-08 -5.99505e-08 4.04502e-09)
(-4.52226e-08 -5.85195e-08 4.14337e-09)
(-5.37149e-08 -5.81502e-08 4.00131e-09)
(-5.99542e-08 -5.88725e-08 3.76074e-09)
(-6.43784e-08 -6.01088e-08 3.41e-09)
(-6.5619e-08 -6.15837e-08 3.03816e-09)
(-6.40495e-08 -6.29714e-08 2.66373e-09)
(-5.95572e-08 -6.40062e-08 2.32708e-09)
(-5.27818e-08 -6.44048e-08 2.04324e-09)
(-4.41378e-08 -6.38563e-08 1.82884e-09)
(-3.44967e-08 -6.19522e-08 1.69837e-09)
(-2.4484e-08 -5.80928e-08 1.61773e-09)
(-1.50232e-08 -5.12955e-08 1.58946e-09)
(-6.85559e-09 -3.98037e-08 1.38982e-09)
(-7.85871e-10 -1.99322e-08 8.70147e-10)
(-2.55302e-07 -1.29512e-06 -2.53494e-07)
(-4.02903e-07 -1.0456e-06 -2.32711e-07)
(-3.97633e-07 -1.20092e-06 -2.26138e-07)
(-4.44292e-07 -7.29851e-07 -1.29396e-07)
(-2.98742e-07 -6.58448e-07 -9.29246e-08)
(-2.84956e-07 -4.17131e-07 -5.13385e-08)
(-1.71394e-07 -3.53953e-07 -3.21994e-08)
(-1.46548e-07 -2.47737e-07 -1.75211e-08)
(-8.11491e-08 -2.10456e-07 -9.27359e-09)
(-6.35317e-08 -1.63637e-07 -4.10747e-09)
(-3.30234e-08 -1.42856e-07 -5.51931e-10)
(-2.72644e-08 -1.20927e-07 1.46127e-09)
(-1.92387e-08 -1.09311e-07 3.06831e-09)
(-2.3738e-08 -9.87034e-08 3.88658e-09)
(-2.8384e-08 -9.29161e-08 4.50534e-09)
(-3.82916e-08 -8.86358e-08 4.72668e-09)
(-4.74414e-08 -8.68896e-08 4.77473e-09)
(-5.69222e-08 -8.63335e-08 4.58618e-09)
(-6.3929e-08 -8.69812e-08 4.28899e-09)
(-6.86835e-08 -8.81162e-08 3.87051e-09)
(-7.00005e-08 -8.94479e-08 3.43861e-09)
(-6.82815e-08 -9.06104e-08 3.0008e-09)
(-6.34715e-08 -9.12754e-08 2.61105e-09)
(-5.62575e-08 -9.11103e-08 2.28462e-09)
(-4.70939e-08 -8.97216e-08 2.03693e-09)
(-3.68817e-08 -8.65961e-08 1.88069e-09)
(-2.6262e-08 -8.09443e-08 1.78183e-09)
(-1.61813e-08 -7.14488e-08 1.73835e-09)
(-7.41783e-09 -5.56342e-08 1.51553e-09)
(-8.57125e-10 -2.8131e-08 9.52765e-10)
(-1.45709e-07 -4.28294e-07 -1.44527e-07)
(-2.46861e-07 -4.7173e-07 -1.36585e-07)
(-2.77356e-07 -6.24906e-07 -1.30014e-07)
(-3.14332e-07 -4.58793e-07 -7.84138e-08)
(-2.32203e-07 -4.58178e-07 -5.6281e-08)
(-2.19345e-07 -3.38655e-07 -3.23431e-08)
(-1.40679e-07 -3.11696e-07 -2.00434e-08)
(-1.17514e-07 -2.4567e-07 -1.08791e-08)
(-6.71846e-08 -2.22008e-07 -5.16584e-09)
(-5.07715e-08 -1.87194e-07 -1.59295e-09)
(-2.63977e-08 -1.70699e-07 1.10312e-09)
(-2.15728e-08 -1.5193e-07 2.67855e-09)
(-1.63451e-08 -1.4134e-07 4.02222e-09)
(-2.1791e-08 -1.31187e-07 4.71058e-09)
(-2.80553e-08 -1.25382e-07 5.22478e-09)
(-3.88762e-08 -1.21006e-07 5.39585e-09)
(-4.91001e-08 -1.19152e-07 5.38422e-09)
(-5.92155e-08 -1.18412e-07 5.13782e-09)
(-6.67096e-08 -1.18813e-07 4.7661e-09)
(-7.16065e-08 -1.19568e-07 4.27127e-09)
(-7.28984e-08 -1.2044e-07 3.76533e-09)
(-7.0993e-08 -1.2103e-07 3.25576e-09)
(-6.59004e-08 -1.20983e-07 2.80703e-09)
(-5.83456e-08 -1.19936e-07 2.43159e-09)
(-4.88161e-08 -1.17426e-07 2.15026e-09)
(-3.82324e-08 -1.12848e-07 1.96864e-09)
(-2.72383e-08 -1.05203e-07 1.85545e-09)
(-1.67966e-08 -9.28145e-08 1.80108e-09)
(-7.7004e-09 -7.24195e-08 1.56825e-09)
(-8.85078e-10 -3.6846e-08 9.91108e-10)
(-5.80952e-08 -3.60531e-07 -5.75362e-08)
(-8.83622e-08 -4.33595e-07 -6.1626e-08)
(-1.21599e-07 -5.4016e-07 -6.05375e-08)
(-1.43215e-07 -4.37038e-07 -3.9625e-08)
(-1.14799e-07 -4.34063e-07 -2.93895e-08)
(-1.13035e-07 -3.47658e-07 -1.79776e-08)
(-7.3675e-08 -3.23984e-07 -1.12011e-08)
(-6.24622e-08 -2.71222e-07 -6.04112e-09)
(-3.30429e-08 -2.49941e-07 -2.30425e-09)
(-2.41823e-08 -2.19963e-07 1.53739e-10)
(-9.75204e-09 -2.04683e-07 2.24647e-09)
(-9.07032e-09 -1.87606e-07 3.5748e-09)
(-8.57963e-09 -1.77449e-07 4.76413e-09)
(-1.63794e-08 -1.67558e-07 5.40394e-09)
(-2.50356e-08 -1.61697e-07 5.87143e-09)
(-3.72374e-08 -1.57243e-07 6.0268e-09)
(-4.87284e-08 -1.55181e-07 5.95982e-09)
(-5.96055e-08 -1.54087e-07 5.65403e-09)
(-6.76265e-08 -1.53915e-07 5.19659e-09)
(-7.26631e-08 -1.539e-07 4.62269e-09)
(-7.39449e-08 -1.53879e-07 4.03512e-09)
(-7.19007e-08 -1.53462e-07 3.45051e-09)
(-6.66276e-08 -1.52293e-07 2.94106e-09)
(-5.88861e-08 -1.50006e-07 2.51717e-09)
(-4.91983e-08 -1.46083e-07 2.20301e-09)
(-3.8491e-08 -1.39831e-07 1.99651e-09)
(-2.73992e-08 -1.30036e-07 1.87225e-09)
(-1.68859e-08 -1.14641e-07 1.81278e-09)
(-7.7302e-09 -8.95523e-08 1.5822e-09)
(-8.84554e-10 -4.57334e-08 1.00488e-09)
(-3.12426e-08 -1.68381e-07 -3.08367e-08)
(-5.22312e-08 -2.64963e-07 -3.3743e-08)
(-7.9848e-08 -3.58054e-07 -3.27197e-08)
(-9.48269e-08 -3.34537e-07 -2.22563e-08)
(-8.06111e-08 -3.52238e-07 -1.63583e-08)
(-7.79656e-08 -3.13484e-07 -1.01391e-08)
(-5.1708e-08 -3.06759e-07 -5.93015e-09)
(-4.1824e-08 -2.76666e-07 -2.76864e-09)
(-2.03889e-08 -2.64991e-07 -1.7029e-10)
(-1.30084e-08 -2.45023e-07 1.60938e-09)
(-2.75868e-09 -2.34596e-07 3.27373e-09)
(-3.14013e-09 -2.21838e-07 4.40802e-09)
(-4.74817e-09 -2.13886e-07 5.44052e-09)
(-1.33606e-08 -2.05575e-07 6.04123e-09)
(-2.31122e-08 -2.0046e-07 6.46352e-09)
(-3.57675e-08 -1.96325e-07 6.57862e-09)
(-4.77349e-08 -1.94055e-07 6.42892e-09)
(-5.88425e-08 -1.92547e-07 6.0534e-09)
(-6.69867e-08 -1.91539e-07 5.52587e-09)
(-7.19032e-08 -1.90414e-07 4.8772e-09)
(-7.3054e-08 -1.89067e-07 4.21421e-09)
(-7.08582e-08 -1.87203e-07 3.56152e-09)
(-6.5496e-08 -1.84498e-07 3.00121e-09)
(-5.77443e-08 -1.80609e-07 2.53507e-09)
(-4.81414e-08 -1.7498e-07 2.1929e-09)
(-3.75988e-08 -1.66836e-07 1.96252e-09)
(-2.67189e-08 -1.5475e-07 1.8278e-09)
(-1.64433e-08 -1.36286e-07 1.76253e-09)
(-7.51047e-09 -1.06516e-07 1.53978e-09)
(-8.52391e-10 -5.45233e-08 9.79944e-10)
(-1.40812e-08 -1.57448e-07 -1.39143e-08)
(-1.92801e-08 -2.57279e-07 -1.64969e-08)
(-3.52472e-08 -3.32968e-07 -1.62723e-08)
(-4.21282e-08 -3.29645e-07 -1.17147e-08)
(-3.68402e-08 -3.46023e-07 -8.67632e-09)
(-3.55666e-08 -3.23194e-07 -5.5005e-09)
(-2.12066e-08 -3.19683e-07 -2.95071e-09)
(-1.5441e-08 -2.99205e-07 -9.5948e-10)
(-2.59371e-09 -2.91103e-07 9.18905e-10)
(1.34404e-09 -2.76624e-07 2.32395e-09)
(6.70691e-09 -2.69006e-07 3.73971e-09)
(4.30394e-09 -2.59325e-07 4.79261e-09)
(3.04635e-10 -2.53066e-07 5.72843e-09)
(-9.32576e-09 -2.46176e-07 6.33785e-09)
(-2.00043e-08 -2.41767e-07 6.75474e-09)
(-3.28894e-08 -2.37845e-07 6.85786e-09)
(-4.49822e-08 -2.3507e-07 6.65142e-09)
(-5.59702e-08 -2.32789e-07 6.22433e-09)
(-6.40031e-08 -2.30605e-07 5.66488e-09)
(-6.86979e-08 -2.28021e-07 4.95387e-09)
(-6.96835e-08 -2.24911e-07 4.24085e-09)
(-6.74146e-08 -2.21157e-07 3.54315e-09)
(-6.21324e-08 -2.16522e-07 2.95331e-09)
(-5.46156e-08 -2.10703e-07 2.46543e-09)
(-4.54016e-08 -2.03129e-07 2.11151e-09)
(-3.53668e-08 -1.92955e-07 1.87135e-09)
(-2.50692e-08 -1.78544e-07 1.73865e-09)
(-1.53952e-08 -1.57069e-07 1.67426e-09)
(-7.01744e-09 -1.22785e-07 1.47129e-09)
(-7.93434e-10 -6.29446e-08 9.34591e-10)
(-7.19908e-09 -1.10737e-07 -7.11108e-09)
(-1.06434e-08 -2.08555e-07 -8.50682e-09)
(-2.14852e-08 -2.77754e-07 -8.3174e-09)
(-2.56733e-08 -2.96175e-07 -6.09645e-09)
(-2.30002e-08 -3.19031e-07 -4.34151e-09)
(-2.12388e-08 -3.14599e-07 -2.60369e-09)
(-1.15204e-08 -3.1921e-07 -9.73688e-10)
(-6.63894e-09 -3.10901e-07 3.31203e-10)
(2.48252e-09 -3.09399e-07 1.69897e-09)
(5.50463e-09 -3.02357e-07 2.80556e-09)
(8.77966e-09 -2.99337e-07 3.99077e-09)
(6.08366e-09 -2.93928e-07 4.91611e-09)
(1.49116e-09 -2.90432e-07 5.72597e-09)
(-7.74194e-09 -2.85882e-07 6.30781e-09)
(-1.80543e-08 -2.8268e-07 6.68709e-09)
(-3.01083e-08 -2.79256e-07 6.76766e-09)
(-4.14053e-08 -2.76051e-07 6.529e-09)
(-5.14537e-08 -2.7279e-07 6.04604e-09)
(-5.88177e-08 -2.69237e-07 5.48157e-09)
(-6.29836e-08 -2.64918e-07 4.75044e-09)
(-6.36608e-08 -2.59773e-07 4.04146e-09)
(-6.13573e-08 -2.53854e-07 3.34675e-09)
(-5.63411e-08 -2.4706e-07 2.77118e-09)
(-4.93603e-08 -2.39132e-07 2.2961e-09)
(-4.09135e-08 -2.29483e-07 1.94755e-09)
(-3.17944e-08 -2.17204e-07 1.70011e-09)
(-2.24764e-08 -2.00477e-07 1.55317e-09)
(-1.37646e-08 -1.76121e-07 1.47449e-09)
(-6.2466e-09 -1.37646e-07 1.29373e-09)
(-6.94509e-10 -7.06296e-08 8.31933e-10)
(-3.54895e-09 -1.1142e-07 -3.53123e-09)
(-3.51557e-09 -2.09653e-07 -4.44162e-09)
(-8.97987e-09 -2.73023e-07 -4.36943e-09)
(-1.03335e-08 -2.98133e-07 -3.29766e-09)
(-9.04765e-09 -3.21071e-07 -2.26706e-09)
(-7.70499e-09 -3.24171e-07 -1.24873e-09)
(-1.99042e-09 -3.31547e-07 -1.61023e-10)
(1.08644e-09 -3.29544e-07 7.50659e-10)
(6.61667e-09 -3.31597e-07 1.77801e-09)
(8.15543e-09 -3.29293e-07 2.66408e-09)
(9.51156e-09 -3.29333e-07 3.63505e-09)
(6.47857e-09 -3.27175e-07 4.4322e-09)
(1.63969e-09 -3.26116e-07 5.16857e-09)
(-6.67184e-09 -3.23742e-07 5.72075e-09)
(-1.59245e-08 -3.21611e-07 6.06672e-09)
(-2.64418e-08 -3.18505e-07 6.13447e-09)
(-3.62564e-08 -3.14737e-07 5.92187e-09)
(-4.47576e-08 -3.10342e-07 5.46959e-09)
(-5.09805e-08 -3.05357e-07 4.96892e-09)
(-5.43872e-08 -2.99081e-07 4.26909e-09)
(-5.47429e-08 -2.91757e-07 3.60626e-09)
(-5.25355e-08 -2.83545e-07 2.95298e-09)
(-4.80134e-08 -2.74501e-07 2.41033e-09)
(-4.18632e-08 -2.64412e-07 1.95987e-09)
(-3.45308e-08 -2.52707e-07 1.63675e-09)
(-2.67075e-08 -2.38417e-07 1.413e-09)
(-1.87936e-08 -2.19544e-07 1.29337e-09)
(-1.14702e-08 -1.92619e-07 1.23988e-09)
(-5.19577e-09 -1.50495e-07 1.10053e-09)
(-5.77718e-10 -7.72827e-08 7.17002e-10)
(-1.71486e-09 -9.94046e-08 -1.76107e-09)
(-1.91779e-09 -1.95555e-07 -2.24956e-09)
(-5.77171e-09 -2.56196e-07 -2.18321e-09)
(-6.93774e-09 -2.87536e-07 -1.65266e-09)
(-6.7231e-09 -3.12893e-07 -1.0678e-09)
(-5.99658e-09 -3.23595e-07 -4.90052e-10)
(-2.6113e-09 -3.35186e-07 2.14936e-10)
(-5.99797e-10 -3.39703e-07 8.44748e-10)
(2.99098e-09 -3.46087e-07 1.60276e-09)
(4.03327e-09 -3.48685e-07 2.25782e-09)
(4.70657e-09 -3.52216e-07 2.95882e-09)
(2.23311e-09 -3.53777e-07 3.57662e-09)
(-1.54943e-09 -3.55546e-07 4.19602e-09)
(-7.78495e-09 -3.55346e-07 4.6278e-09)
(-1.48237e-08 -3.54347e-07 4.88183e-09)
(-2.27131e-08 -3.51593e-07 4.88095e-09)
(-3.0119e-08 -3.47434e-07 4.69349e-09)
(-3.64015e-08 -3.42046e-07 4.30355e-09)
(-4.08631e-08 -3.35592e-07 3.86749e-09)
(-4.31055e-08 -3.27422e-07 3.29808e-09)
(-4.29979e-08 -3.18222e-07 2.77926e-09)
(-4.09685e-08 -3.08052e-07 2.26738e-09)
(-3.71944e-08 -2.97018e-07 1.85019e-09)
(-3.22496e-08 -2.84988e-07 1.49313e-09)
(-2.64761e-08 -2.71474e-07 1.23991e-09)
(-2.03968e-08 -2.55476e-07 1.06424e-09)
(-1.42904e-08 -2.34882e-07 9.7671e-10)
(-8.67247e-09 -2.05926e-07 9.4071e-10)
(-3.88995e-09 -1.60882e-07 8.411e-10)
(-4.24129e-10 -8.26633e-08 5.51333e-10)
(-9.68791e-10 -1.00666e-07 -1.00178e-09)
(-1.04336e-09 -1.96416e-07 -1.339e-09)
(-3.7124e-09 -2.54758e-07 -1.34784e-09)
(-4.87097e-09 -2.87876e-07 -1.11504e-09)
(-5.72445e-09 -3.13237e-07 -7.84208e-10)
(-6.1465e-09 -3.27338e-07 -4.39133e-10)
(-5.06239e-09 -3.40717e-07 2.01978e-11)
(-4.61419e-09 -3.48798e-07 4.3616e-10)
(-2.99737e-09 -3.57591e-07 9.59843e-10)
(-2.64179e-09 -3.63269e-07 1.38613e-09)
(-2.36479e-09 -3.69304e-07 1.87023e-09)
(-3.91805e-09 -3.73608e-07 2.32027e-09)
(-6.14951e-09 -3.77394e-07 2.74131e-09)
(-9.87683e-09 -3.78782e-07 3.03845e-09)
(-1.40198e-08 -3.78546e-07 3.19728e-09)
(-1.85716e-08 -3.7582e-07 3.14386e-09)
(-2.28288e-08 -3.71251e-07 3.01351e-09)
(-2.62727e-08 -3.6499e-07 2.72666e-09)
(-2.85442e-08 -3.57195e-07 2.40628e-09)
(-2.95316e-08 -3.47457e-07 1.99605e-09)
(-2.90058e-08 -3.36728e-07 1.65116e-09)
(-2.72609e-08 -3.25049e-07 1.34134e-09)
(-2.44299e-08 -3.12646e-07 1.10287e-09)
(-2.09319e-08 -2.99409e-07 9.06701e-10)
(-1.69649e-08 -2.84747e-07 7.78175e-10)
(-1.29001e-08 -2.67547e-07 6.78293e-10)
(-8.912e-09 -2.45666e-07 6.35493e-10)
(-5.33099e-09 -2.15219e-07 6.18722e-10)
(-2.34807e-09 -1.68103e-07 5.61206e-10)
(-2.4703e-10 -8.63993e-08 3.69926e-10)
(-5.785e-10 -9.62713e-08 -6.12056e-10)
(-1.71255e-09 -1.89828e-07 -8.49359e-10)
(-4.83254e-09 -2.46433e-07 -8.70099e-10)
(-7.20248e-09 -2.80866e-07 -7.7367e-10)
(-9.54199e-09 -3.06639e-07 -6.06172e-10)
(-1.14324e-08 -3.23301e-07 -4.50601e-10)
(-1.22264e-08 -3.38115e-07 -2.34775e-10)
(-1.30204e-08 -3.487e-07 -9.18586e-11)
(-1.27997e-08 -3.59334e-07 1.33975e-10)
(-1.29606e-08 -3.67621e-07 3.29049e-10)
(-1.26111e-08 -3.75763e-07 5.52237e-10)
(-1.2784e-08 -3.82066e-07 7.15872e-10)
(-1.2867e-08 -3.87185e-07 8.51123e-10)
(-1.34405e-08 -3.89778e-07 9.72764e-10)
(-1.3925e-08 -3.90411e-07 1.04687e-09)
(-1.45782e-08 -3.88073e-07 1.00404e-09)
(-1.51801e-08 -3.83533e-07 9.77474e-10)
(-1.53522e-08 -3.76968e-07 8.84324e-10)
(-1.508e-08 -3.68597e-07 7.71626e-10)
(-1.44416e-08 -3.58043e-07 6.21151e-10)
(-1.33083e-08 -3.46321e-07 5.08432e-10)
(-1.19173e-08 -3.33658e-07 3.90937e-10)
(-1.02323e-08 -3.20454e-07 3.11007e-10)
(-8.43546e-09 -3.06601e-07 2.4345e-10)
(-6.55433e-09 -2.91399e-07 2.17043e-10)
(-4.75125e-09 -2.7363e-07 1.94914e-10)
(-3.08943e-09 -2.51124e-07 1.99978e-10)
(-1.71836e-09 -2.1994e-07 2.08742e-10)
(-6.69309e-10 -1.71771e-07 2.15861e-10)
(-3.74579e-11 -8.82949e-08 1.63995e-10)
(-5.30138e-10 -9.49342e-08 -5.50146e-10)
(-2.56047e-09 -1.86225e-07 -8.24207e-10)
(-6.35862e-09 -2.40698e-07 -8.96545e-10)
(-1.00301e-08 -2.74727e-07 -8.71671e-10)
(-1.39369e-08 -2.99733e-07 -8.15405e-10)
(-1.74911e-08 -3.17051e-07 -7.96304e-10)
(-2.02629e-08 -3.32034e-07 -7.55128e-10)
(-2.26267e-08 -3.43608e-07 -7.73796e-10)
(-2.37625e-08 -3.54739e-07 -7.94826e-10)
(-2.42827e-08 -3.63845e-07 -8.80894e-10)
(-2.35444e-08 -3.72487e-07 -9.75628e-10)
(-2.22771e-08 -3.79428e-07 -1.10583e-09)
(-2.01174e-08 -3.8493e-07 -1.20403e-09)
(-1.75595e-08 -3.88028e-07 -1.23936e-09)
(-1.43424e-08 -3.88969e-07 -1.24872e-09)
(-1.0853e-08 -3.86871e-07 -1.25453e-09)
(-7.46772e-09 -3.8266e-07 -1.16272e-09)
(-4.14113e-09 -3.76292e-07 -1.0637e-09)
(-1.27037e-09 -3.67941e-07 -9.6207e-10)
(9.34201e-10 -3.57485e-07 -8.351e-10)
(2.69783e-09 -3.45895e-07 -6.75972e-10)
(3.84847e-09 -3.33321e-07 -5.36546e-10)
(4.48865e-09 -3.20211e-07 -4.30978e-10)
(4.59e-09 -3.06408e-07 -3.78325e-10)
(4.28799e-09 -2.91232e-07 -3.10095e-10)
(3.70286e-09 -2.73485e-07 -2.64124e-10)
(2.92163e-09 -2.5099e-07 -2.11874e-10)
(1.99296e-09 -2.19834e-07 -1.75729e-10)
(1.0432e-09 -1.71709e-07 -1.04843e-10)
(1.6805e-10 -8.82755e-08 -2.73217e-11)
(-5.50901e-10 -9.0418e-08 -5.42257e-10)
(-3.79922e-09 -1.77806e-07 -8.73782e-10)
(-8.79697e-09 -2.29667e-07 -1.00317e-09)
(-1.41204e-08 -2.62655e-07 -1.03752e-09)
(-1.97839e-08 -2.86636e-07 -1.07133e-09)
(-2.51165e-08 -3.0394e-07 -1.15926e-09)
(-2.96677e-08 -3.18639e-07 -1.27253e-09)
(-3.3342e-08 -3.30419e-07 -1.47488e-09)
(-3.55011e-08 -3.41331e-07 -1.73163e-09)
(-3.63282e-08 -3.50251e-07 -2.03432e-09)
(-3.5132e-08 -3.58364e-07 -2.37581e-09)
(-3.2304e-08 -3.65e-07 -2.76489e-09)
(-2.77275e-08 -3.70318e-07 -3.08546e-09)
(-2.18367e-08 -3.73468e-07 -3.30646e-09)
(-1.4743e-08 -3.74429e-07 -3.39609e-09)
(-7.20755e-09 -3.72492e-07 -3.37123e-09)
(1.09672e-11 -3.68747e-07 -3.21154e-09)
(6.69481e-09 -3.63094e-07 -2.93861e-09)
(1.20686e-08 -3.55433e-07 -2.64216e-09)
(1.58468e-08 -3.45923e-07 -2.26816e-09)
(1.82613e-08 -3.35439e-07 -1.90229e-09)
(1.90491e-08 -3.23976e-07 -1.55619e-09)
(1.85031e-08 -3.117e-07 -1.25497e-09)
(1.69653e-08 -2.98548e-07 -1.02523e-09)
(1.46577e-08 -2.84047e-07 -8.31363e-10)
(1.18715e-08 -2.67022e-07 -6.99137e-10)
(8.78504e-09 -2.45295e-07 -5.92257e-10)
(5.63233e-09 -2.15005e-07 -5.36604e-10)
(2.74506e-09 -1.68005e-07 -4.21157e-10)
(3.83376e-10 -8.63299e-08 -2.33206e-10)
(-6.5977e-10 -8.58734e-08 -6.38478e-10)
(-4.97378e-09 -1.6842e-07 -1.03403e-09)
(-1.11373e-08 -2.1701e-07 -1.20254e-09)
(-1.79675e-08 -2.48004e-07 -1.26179e-09)
(-2.52119e-08 -2.70164e-07 -1.35499e-09)
(-3.21228e-08 -2.86286e-07 -1.52379e-09)
(-3.82331e-08 -2.99665e-07 -1.75699e-09)
(-4.31675e-08 -3.10442e-07 -2.10459e-09)
(-4.62477e-08 -3.20136e-07 -2.54792e-09)
(-4.72696e-08 -3.28025e-07 -3.04051e-09)
(-4.55591e-08 -3.34768e-07 -3.56127e-09)
(-4.12433e-08 -3.40081e-07 -4.08244e-09)
(-3.4408e-08 -3.44309e-07 -4.56317e-09)
(-2.55999e-08 -3.46822e-07 -4.92696e-09)
(-1.51688e-08 -3.47637e-07 -5.1032e-09)
(-4.0403e-09 -3.46058e-07 -5.07059e-09)
(6.663e-09 -3.43021e-07 -4.85319e-09)
(1.63663e-08 -3.38545e-07 -4.48528e-09)
(2.40352e-08 -3.32211e-07 -4.04286e-09)
(2.93045e-08 -3.24423e-07 -3.4901e-09)
(3.22782e-08 -3.1577e-07 -2.95255e-09)
(3.28278e-08 -3.06163e-07 -2.44133e-09)
(3.13358e-08 -2.95536e-07 -1.98745e-09)
(2.83082e-08 -2.83828e-07 -1.60851e-09)
(2.41177e-08 -2.70637e-07 -1.30794e-09)
(1.92268e-08 -2.54888e-07 -1.10329e-09)
(1.39966e-08 -2.34443e-07 -9.36216e-10)
(8.87556e-09 -2.0565e-07 -8.47614e-10)
(4.26745e-09 -1.60758e-07 -6.76861e-10)
(5.6824e-10 -8.25065e-08 -3.94532e-10)
(-7.55132e-10 -7.93186e-08 -7.14555e-10)
(-6.07034e-09 -1.55706e-07 -1.17003e-09)
(-1.33487e-08 -2.00448e-07 -1.38173e-09)
(-2.15437e-08 -2.28996e-07 -1.47275e-09)
(-3.01977e-08 -2.49079e-07 -1.61528e-09)
(-3.84969e-08 -2.63566e-07 -1.84442e-09)
(-4.58858e-08 -2.75151e-07 -2.17043e-09)
(-5.17579e-08 -2.84272e-07 -2.61193e-09)
(-5.54254e-08 -2.92142e-07 -3.15403e-09)
(-5.64786e-08 -2.98483e-07 -3.76763e-09)
(-5.42884e-08 -3.03668e-07 -4.43233e-09)
(-4.87642e-08 -3.074e-07 -5.07972e-09)
(-3.99505e-08 -3.10104e-07 -5.65266e-09)
(-2.85833e-08 -3.11659e-07 -6.11162e-09)
(-1.53374e-08 -3.12143e-07 -6.36475e-09)
(-1.31905e-09 -3.10896e-07 -6.3417e-09)
(1.21362e-08 -3.08659e-07 -6.07905e-09)
(2.42996e-08 -3.05525e-07 -5.61923e-09)
(3.38881e-08 -3.00946e-07 -5.06417e-09)
(4.03378e-08 -2.95245e-07 -4.43456e-09)
(4.37212e-08 -2.88623e-07 -3.76206e-09)
(4.41458e-08 -2.81069e-07 -3.11765e-09)
(4.19773e-08 -2.72514e-07 -2.56908e-09)
(3.77897e-08 -2.62812e-07 -2.12415e-09)
(3.2103e-08 -2.51516e-07 -1.77375e-09)
(2.55395e-08 -2.37659e-07 -1.52615e-09)
(1.85452e-08 -2.1922e-07 -1.32423e-09)
(1.16732e-08 -1.92655e-07 -1.20405e-09)
(5.52544e-09 -1.5068e-07 -9.88333e-10)
(7.03437e-10 -7.71734e-08 -5.76147e-10)
(-8.44275e-10 -7.21608e-08 -8.21064e-10)
(-6.92601e-09 -1.41578e-07 -1.34956e-09)
(-1.51218e-08 -1.81938e-07 -1.58664e-09)
(-2.4404e-08 -2.07508e-07 -1.69372e-09)
(-3.41433e-08 -2.25105e-07 -1.85934e-09)
(-4.34634e-08 -2.37517e-07 -2.11459e-09)
(-5.17379e-08 -2.46984e-07 -2.47093e-09)
(-5.82396e-08 -2.54093e-07 -2.94812e-09)
(-6.22482e-08 -2.59823e-07 -3.54454e-09)
(-6.32145e-08 -2.64153e-07 -4.2334e-09)
(-6.05539e-08 -2.67468e-07 -4.98003e-09)
(-5.40955e-08 -2.69587e-07 -5.69927e-09)
(-4.38617e-08 -2.70738e-07 -6.30791e-09)
(-3.05882e-08 -2.71057e-07 -6.79018e-09)
(-1.52689e-08 -2.70945e-07 -7.09359e-09)
(8.25885e-10 -2.69951e-07 -7.0986e-09)
(1.63024e-08 -2.68599e-07 -6.82841e-09)
(3.02203e-08 -2.66933e-07 -6.34078e-09)
(4.12066e-08 -2.64265e-07 -5.70475e-09)
(4.86432e-08 -2.60672e-07 -4.98198e-09)
(5.24586e-08 -2.56223e-07 -4.22081e-09)
(5.28237e-08 -2.50924e-07 -3.51064e-09)
(5.01769e-08 -2.44664e-07 -2.89529e-09)
(4.51548e-08 -2.37193e-07 -2.39494e-09)
(3.83453e-08 -2.28002e-07 -2.0065e-09)
(3.04695e-08 -2.16197e-07 -1.75064e-09)
(2.21039e-08 -2.00014e-07 -1.56636e-09)
(1.39134e-08 -1.76125e-07 -1.44486e-09)
(6.5719e-09 -1.37843e-07 -1.20442e-09)
(8.23103e-10 -7.0467e-08 -7.08058e-10)
(-9.01472e-10 -6.38594e-08 -8.94338e-10)
(-7.56075e-09 -1.25441e-07 -1.47489e-09)
(-1.64359e-08 -1.61062e-07 -1.72647e-09)
(-2.64677e-08 -1.83445e-07 -1.82633e-09)
(-3.6944e-08 -1.98494e-07 -1.98375e-09)
(-4.69432e-08 -2.08768e-07 -2.23377e-09)
(-5.57727e-08 -2.16133e-07 -2.60318e-09)
(-6.26125e-08 -2.21244e-07 -3.09714e-09)
(-6.67296e-08 -2.24893e-07 -3.70768e-09)
(-6.75003e-08 -2.27226e-07 -4.40654e-09)
(-6.441e-08 -2.28645e-07 -5.15382e-09)
(-5.7262e-08 -2.29222e-07 -5.88104e-09)
(-4.61012e-08 -2.29129e-07 -6.50277e-09)
(-3.16458e-08 -2.28439e-07 -6.9622e-09)
(-1.50369e-08 -2.27698e-07 -7.23493e-09)
(2.33806e-09 -2.26883e-07 -7.21895e-09)
(1.91127e-08 -2.26308e-07 -6.96824e-09)
(3.41398e-08 -2.25846e-07 -6.5096e-09)
(4.60197e-08 -2.24818e-07 -5.88305e-09)
(5.4091e-08 -2.23175e-07 -5.16895e-09)
(5.8249e-08 -2.20921e-07 -4.41779e-09)
(5.8685e-08 -2.17896e-07 -3.71096e-09)
(5.5817e-08 -2.13895e-07 -3.08441e-09)
(5.02972e-08 -2.0861e-07 -2.57542e-09)
(4.2771e-08 -2.01532e-07 -2.18272e-09)
(3.40183e-08 -1.91788e-07 -1.92461e-09)
(2.46679e-08 -1.77839e-07 -1.75357e-09)
(1.54951e-08 -1.56822e-07 -1.64615e-09)
(7.27922e-09 -1.22854e-07 -1.38862e-09)
(8.91738e-10 -6.27701e-08 -8.21053e-10)
(-9.40208e-10 -5.5185e-08 -9.41131e-10)
(-7.94007e-09 -1.08413e-07 -1.53931e-09)
(-1.7222e-08 -1.39122e-07 -1.79596e-09)
(-2.76798e-08 -1.58226e-07 -1.89716e-09)
(-3.85481e-08 -1.70726e-07 -2.05663e-09)
(-4.88682e-08 -1.78888e-07 -2.30111e-09)
(-5.79181e-08 -1.84265e-07 -2.66171e-09)
(-6.48308e-08 -1.87516e-07 -3.13742e-09)
(-6.88765e-08 -1.89316e-07 -3.72194e-09)
(-6.94028e-08 -1.89904e-07 -4.38406e-09)
(-6.59485e-08 -1.89692e-07 -5.08229e-09)
(-5.83326e-08 -1.88874e-07 -5.75582e-09)
(-4.67047e-08 -1.87692e-07 -6.3492e-09)
(-3.17269e-08 -1.8631e-07 -6.77046e-09)
(-1.45337e-08 -1.85192e-07 -7.00941e-09)
(3.40306e-09 -1.84582e-07 -6.99855e-09)
(2.07643e-08 -1.84634e-07 -6.78074e-09)
(3.62395e-08 -1.85089e-07 -6.3545e-09)
(4.85494e-08 -1.85386e-07 -5.76614e-09)
(5.70255e-08 -1.8536e-07 -5.09864e-09)
(6.1459e-08 -1.84924e-07 -4.39379e-09)
(6.20166e-08 -1.83813e-07 -3.72461e-09)
(5.9092e-08 -1.81767e-07 -3.12696e-09)
(5.33364e-08 -1.78437e-07 -2.64015e-09)
(4.54128e-08 -1.73328e-07 -2.26259e-09)
(3.61506e-08 -1.65635e-07 -2.01113e-09)
(2.62238e-08 -1.53992e-07 -1.84867e-09)
(1.64756e-08 -1.35959e-07 -1.75632e-09)
(7.72141e-09 -1.06547e-07 -1.49867e-09)
(9.34149e-10 -5.4397e-08 -8.88165e-10)
(-9.53043e-10 -4.61161e-08 -9.55815e-10)
(-8.07494e-09 -9.07367e-08 -1.56398e-09)
(-1.74706e-08 -1.16476e-07 -1.82059e-09)
(-2.80489e-08 -1.32314e-07 -1.91371e-09)
(-3.90024e-08 -1.42362e-07 -2.0636e-09)
(-4.93578e-08 -1.48575e-07 -2.28809e-09)
(-5.83731e-08 -1.52227e-07 -2.62137e-09)
(-6.51652e-08 -1.53939e-07 -3.05736e-09)
(-6.90265e-08 -1.54291e-07 -3.59229e-09)
(-6.9313e-08 -1.53571e-07 -4.19056e-09)
(-6.5614e-08 -1.52182e-07 -4.81614e-09)
(-5.77629e-08 -1.50366e-07 -5.42134e-09)
(-4.60137e-08 -1.48422e-07 -5.95559e-09)
(-3.10582e-08 -1.46631e-07 -6.32983e-09)
(-1.38927e-08 -1.45389e-07 -6.53628e-09)
(4.04159e-09 -1.44925e-07 -6.53309e-09)
(2.13656e-08 -1.45343e-07 -6.34854e-09)
(3.68121e-08 -1.46413e-07 -5.96393e-09)
(4.92133e-08 -1.47662e-07 -5.43879e-09)
(5.78414e-08 -1.48835e-07 -4.84502e-09)
(6.24233e-08 -1.49753e-07 -4.21613e-09)
(6.31165e-08 -1.50112e-07 -3.61229e-09)
(6.02646e-08 -1.49611e-07 -3.06703e-09)
(5.44966e-08 -1.47889e-07 -2.62195e-09)
(4.64679e-08 -1.44482e-07 -2.27475e-09)
(3.70247e-08 -1.38671e-07 -2.04304e-09)
(2.68679e-08 -1.29285e-07 -1.88463e-09)
(1.68906e-08 -1.14266e-07 -1.79643e-09)
(7.91627e-09 -8.95176e-08 -1.5394e-09)
(9.59042e-10 -4.5648e-08 -9.16537e-10)
(-9.50305e-10 -3.7089e-08 -9.41294e-10)
(-7.98317e-09 -7.31729e-08 -1.5438e-09)
(-1.72254e-08 -9.39968e-08 -1.80364e-09)
(-2.76482e-08 -1.06664e-07 -1.88959e-09)
(-3.8415e-08 -1.14437e-07 -2.02886e-09)
(-4.85613e-08 -1.18926e-07 -2.22951e-09)
(-5.73408e-08 -1.2116e-07 -2.53019e-09)
(-6.38757e-08 -1.21695e-07 -2.9194e-09)
(-6.74875e-08 -1.21025e-07 -3.3946e-09)
(-6.75615e-08 -1.19451e-07 -3.92079e-09)
(-6.37233e-08 -1.17351e-07 -4.46901e-09)
(-5.58649e-08 -1.14962e-07 -4.9984e-09)
(-4.43247e-08 -1.12667e-07 -5.45896e-09)
(-2.97595e-08 -1.10759e-07 -5.7781e-09)
(-1.30593e-08 -1.0955e-07 -5.94967e-09)
(4.41572e-09 -1.09173e-07 -5.9482e-09)
(2.12424e-08 -1.09746e-07 -5.7839e-09)
(3.62651e-08 -1.11123e-07 -5.45232e-09)
(4.84035e-08 -1.12907e-07 -4.99885e-09)
(5.69641e-08 -1.14822e-07 -4.48318e-09)
(6.15947e-08 -1.16585e-07 -3.93724e-09)
(6.2402e-08 -1.17909e-07 -3.40708e-09)
(5.96936e-08 -1.18489e-07 -2.92489e-09)
(5.40624e-08 -1.17976e-07 -2.52883e-09)
(4.61435e-08 -1.15954e-07 -2.21787e-09)
(3.67835e-08 -1.11798e-07 -2.01035e-09)
(2.66941e-08 -1.04541e-07 -1.86291e-09)
(1.67803e-08 -9.24886e-08 -1.77447e-09)
(7.86223e-09 -7.23862e-08 -1.5206e-09)
(9.52247e-10 -3.68347e-08 -9.08908e-10)
(-9.15736e-10 -2.82297e-08 -8.95755e-10)
(-7.65635e-09 -5.60255e-08 -1.47655e-09)
(-1.65095e-08 -7.20981e-08 -1.72671e-09)
(-2.65239e-08 -8.17474e-08 -1.79882e-09)
(-3.68713e-08 -8.74383e-08 -1.92344e-09)
(-4.66159e-08 -9.04473e-08 -2.09735e-09)
(-5.50151e-08 -9.15788e-08 -2.36519e-09)