/*--------------------------------*- C++ -*----------------------------------*\
| =========                 |                                                 |
| \\      /  F ield         | OpenFOAM: The Open Source CFD Toolbox           |
|  \\    /   O peration     | Version:  v1912                                 |
|   \\  /    A nd           | Website:  www.openfoam.com                      |
|    \\/     M anipulation  |                                                 |
\*---------------------------------------------------------------------------*/
FoamFile
{
    version     2.0;
    format      ascii;
    class       volScalarField;
    location    "18/oil";
    object      wallHeatFlux;
}
// * * * * * * * * * * * * * * * * * * * * * * * * * * * * * * * * * * * * * //

dimensions      [1 0 -3 0 0 0 0];


internalField   uniform 0;

boundaryField
{
    maxY
    {
        type            calculated;
        value           uniform 0;
    }
    minX
    {
        type            calculated;
        value           uniform 0;
    }
    maxX
    {
        type            calculated;
        value           uniform 0;
    }
    minY
    {
        type            calculated;
        value           uniform 0;
    }
    minZ
    {
        type            calculated;
        value           uniform 0;
    }
    maxZ
    {
        type            calculated;
        value           uniform 0;
    }
    oil_to_sphere
    {
        type            calculated;
        value           nonuniform List<scalar> 
1536
(
26435
26380.7
26416.4
26239.5
26159.1
26344.9
26324
26299
26277
26211.3
26203.9
26199.9
26274.7
26248.1
26107.7
26297.1
26362.2
26420.7
26290.4
26280
26324.5
26264.9
26289.9
26298
26316.2
26301.8
26289.1
26285.1
26449.8
26588.2
26375.5
26284.9
26306.2
26523.1
26297.3
26395.4
26288.1
26307.6
26277.4
26521.4
26366.5
26377.9
26271.1
26285.7
26265.8
26249.8
26185.4
26222.1
26261.6
26178.2
26267.7
26249.6
26145.3
26274.9
26247.6
26281.5
26292.2
26325.5
26297.5
26352.8
26309
26265.2
26307.4
26436.4
26375.5
26395.7
26167.3
26168.9
26068.2
26329
26309.9
26319.5
26284.6
26294.6
26387.6
26326.5
26264
26364.2
26513.8
26411.9
26218.8
26270.4
26296
26498.7
26369.5
26434.4
26274.2
26274.6
26310.3
26336.2
26299.5
26295.9
26263.7
26309.7
26281.8
26306.5
26328.1
26285.3
26279.9
26269.6
26204.6
26176.8
26418.9
26402.4
26414.5
26288.5
26278.9
26337.9
26303.1
26354.2
26279.4
26155.1
26177.9
26456.2
26443.2
26420.6
26297.1
26265.1
26305.8
26290.5
26113.1
26306.5
26340.5
26444.5
26376.6
26299.7
26299.1
26353.4
26437.7
26322.3
26343.4
26177.9
26162.8
26176.3
26402
26379.2
26451.4
26252.2
26265.7
26313.3
26304
26338.8
26265.8
26279.9
26276.9
26304.2
26283.3
26314.8
26398.2
26380.1
26164.9
26295.8
26177
26475.1
26364.5
26366.6
26298.6
26333.7
26272.7
26145.7
26262.8
26384.9
26470
26327.2
26273.8
26297.9
26284.9
26127.2
26186.8
26258.3
26288.1
26508.1
26367.4
26309.2
26266.2
26321
26193.7
26186.1
26254.4
26202
26433
26455.6
26398.3
26303
26287.7
26306.3
26314.9
26265.6
26349.8
26367.7
26377.4
26400.4
26264.9
26247.6
26314.8
26369
26295.1
26291.9
26436.3
26369.5
26428.4
26175.3
26193.7
26295.5
26368.4
26252.5
26278.2
26339.1
26310.4
26177.8
26490.4
26478.3
26438.4
26198
26309.9
26248.1
26256.7
26359
26269.7
26308.7
26314.1
26273.1
26281.3
26258.2
26305.7
26276.9
26304.5
26245.7
26444.3
26502.9
26731.3
26591.9
26598.3
26461.7
26480
26312.1
26359.1
26459.5
26685.5
26336.2
26264.7
26740.8
26397.4
26505.7
26406.7
26277
26506
26424.2
26618.9
26359.4
26212.5
26403.3
26539.3
26526.2
26331.5
26295.8
26405.9
26519.3
26596.4
26680.1
26538.2
26743.8
26495.6
26359.4
26812.2
26124.2
26151.6
26523
26410
26466.9
26264.1
26239
26184.4
26296.3
26305.7
26469.6
26407.7
26561.8
26370.3
26309
26373.3
26547.5
26619
26333.8
26322.4
26346.9
26325
26150.1
26074.6
26110.6
26335.4
26326.5
26358.4
26418.2
26133.9
26069.4
26099.5
26104.9
26331.1
26457.1
26312.8
26406.1
26170.4
26497
26451.9
26616.5
26635.7
26772.4
26427.4
26167.3
26125.9
26852.2
26607.3
26458.6
26151.7
26146.5
26643.6
26417.6
26599.1
26529.2
26469.6
26755.1
26327.4
26310.2
26343.7
26318.2
26415.4
26320.5
26440.6
26338.4
26093.4
26421.8
26368.4
26406.3
26216
26161.1
26430.2
26418.4
26472.6
26244.6
26312.9
26277.3
26307.1
26475.3
26434.1
26346.7
26302.8
26358.3
26405.2
26111.7
26495.6
26419.2
26604.9
26218.7
26292.3
26318.7
26292.1
26472.9
26438.5
26442.9
26079.2
26426.4
26514
26633.3
26253
26238.5
26215.1
26412.6
26409.1
26323.2
26296.6
26337.7
26362.6
26143.5
26157.5
26466.3
26551.1
26433.6
26410.6
26451.3
26434.2
26261
26287.5
26215.7
26389.4
26236.5
26410.9
26568.7
26535.5
26421
26477.9
26362.4
26389.2
26339.8
26372.8
26092.1
26210.3
26210.4
26562.1
26625.9
26391.5
26282.3
26324.2
26162.3
26380.6
26635.2
26559.4
26799.7
26294.2
26343.2
26203.2
26179.5
26333.2
26298.2
26397.2
26434.3
26674.4
26266.5
26269.1
26156
26124.2
26265.4
26531.3
26519
26410.8
26264
26299.8
26476.3
26379
26832.1
26277.4
26118.1
26304.9
26466
26520.9
26465
26337.2
26378.2
26381.7
26419.6
26096.2
26188.7
26263.4
26438.4
26386.6
26626.8
26310.5
26312.3
26444.7
26521.7
26392.2
26507.4
26382.5
26415.5
26079.9
26329.1
26292.2
26361.6
26197.2
26256.5
26424.8
26478
26701.3
26294.8
26295.1
26296.9
26332.3
26305.8
26407.6
26350.1
26245.9
26157.8
26238.5
26189
26229.6
26478.7
26489.3
26422.3
26503.2
26433.3
26884.9
26140.7
26145
26603.7
26448.4
26557.1
26561.8
26445.8
26789.9
26298.3
26317.9
26341.4
26267.1
26302
26391.5
26253.1
26300.3
26382
26388.5
26467.9
26348.5
26318.6
26335.8
26348.8
26150.8
26428.7
26527.6
26404.3
26306
26221.3
26294.7
26320.6
26440.5
26437.5
26373.8
26398.3
26365.6
26397.6
26081.6
26247.4
26180.1
26469.1
26615.3
26502.3
26295.3
26274.4
26343.8
26287.7
26322.3
26508.1
26601.9
26545.3
26333.3
26178.3
26298.4
26260.4
26310.6
26323.8
26393
26151.1
26399.8
26375.4
26333.7
26269
26187.3
26430.6
26429.4
26717.3
26338.4
26284.5
26432.3
26441.4
26309.2
26351.6
26347.9
26335.6
26140
26365.8
26305.1
26241.4
26258.5
26423.3
26442.6
26195.7
26225.1
26189.2
26208.4
26486
26512
26509
26485.3
26480.3
26326.6
26318.2
26332.4
26366.8
26126.5
26508
26473.9
26533.8
26283.7
26195
26301.3
26261.8
26512.6
26437.1
26311.4
26394.4
26324.2
26349.1
26069.7
26294.9
26255.4
26292.2
26293.8
26216.8
26449.5
26571.2
26525.5
26322.1
26237.8
26283.6
26185.9
26246.3
26220.4
26538.3
26463.1
26459.7
26218.6
26314
26257.5
26307.8
26269
26307.8
26307.7
26412.8
26440
26272
26279.5
26297
26321.4
26175.7
26270.5
26181.2
26491.4
26501.3
26424.8
26335.3
26286.4
26323.6
26217.1
26458.5
26543.4
26579.6
26312.8
26256.5
26436.6
26483.8
26308.2
26300
26408.6
26296.3
26134.4
26247.2
26161.4
26449.4
26397.5
26776.1
26335.5
26291.8
26448.7
26654.7
26393.2
26401.5
26297.5
26378.6
26075.4
26275.5
26310.6
26291.1
26291.1
26337.6
26338.3
26336.5
26366.3
26223.2
26121.4
26122.6
26129.4
26331.9
26404.9
26347.6
26480.4
26109
26439.2
26410.6
26308.1
26358
26373.1
26304.5
26129.2
26259.8
26178.9
26450.7
26699.2
26423.3
26286.8
26294.3
26369.4
26366.4
26320.7
26374.9
26379.4
26383.4
26315.6
26359.2
26334.7
26146.3
26316.9
26330.1
26351.4
26371.1
26317.4
26259.4
26261.3
26303.9
26321.2
26154.6
26303.3
26560.8
26489.1
26639.8
26281.6
26303
26248.9
26421.1
26283.9
26447.2
26426
26357.1
26390.8
26388.1
26304.1
26106
26264.6
26182.2
26486
26439.6
26434
26299.1
26291
26399.7
26399.4
26375
26298.5
26271.3
26376.5
26127.1
26258.9
26331.7
26353
26322
26181.9
26567.8
26692.1
26489.5
26322.7
26301.6
26412
26436.7
26341.3
26291
26349.1
26362.1
26113.8
26336.2
26283.5
26346.2
26257.3
26212.2
26243.6
26202.7
26409.6
26498.6
26488.4
26584.9
26404.7
26798.6
26585.4
26571.2
26452.1
26168.9
26167.7
26565
26613
26436.1
26482.5
26351.8
26663.1
26183.7
26299.5
26434.9
26313.5
26324.1
26223.5
26571.1
26400.8
26536.3
26491.2
26494
26325.7
26459.2
26428.3
26364.1
26119.6
26496.2
26470.8
26328.3
26374
26405.6
26400.3
26104.6
26270.7
26245.4
26245.8
26275.1
26196.2
26492.2
26678.3
26413.5
26317.5
26281.2
26280.3
26151.9
26470
26666.4
26501.9
26306.3
26299.7
26208.5
26118.6
26236.1
26198.5
26322.4
26339.1
26375.9
26301
26233
26094
26240.6
26171.1
26511.8
26488.6
26433.5
26261.5
26442.4
26355.4
26086.3
26180.2
26294.9
26611.7
26442.1
26432.5
26326.6
26295.9
26329.3
26164
26581.4
26490.3
26437.8
26294.8
26268.7
26754.1
26701.9
26462.8
26536.6
26620.8
26393.8
26132.7
26148.9
26631.4
26557.9
26455.7
26275.1
26115.4
26256.6
26205.6
26350.2
26338.6
26283.1
26401.8
26136
26107.8
26085.6
26300.4
26270.1
26606.3
26432.5
26596
26332.4
26239.8
26647.6
26444.2
26555.8
26272.6
26267
26162.5
26656.3
26436.7
26587.5
26130.9
26100.3
26705.2
26424.2
26493.1
26813.5
26454.6
26575
26424.4
26509.2
26386.7
26194.7
26500.6
26419.1
26467.8
26288.3
26268.9
26213.7
26088.3
26362.8
26320.5
26312.2
26387.3
26173
26092.1
26268
26268.7
26155.6
26375.2
26245
26553.3
26403.8
26568.8
26337.9
26329.9
26297.8
26433.6
26422.6
26343.8
26389.1
26324.3
26332.5
26103.9
26178.3
26304.3
26648.1
26446.8
26499.4
26288.1
26275.2
26280.3
26205
26560.9
26393
26455.5
26315.3
26275.8
26120.4
26440.4
26403.2
26522.5
26446
26423.9
26486.7
26267
26255.6
26248.7
26225
26221.8
26216.2
26308.4
26309.9
26311.8
26327.3
26299.7
26233.6
26064.5
26467.5
26452.3
26335.7
26283.8
26416.4
26381.8
26100.6
26529.8
26458.1
26333.9
26279.8
26362.3
26394.4
26088
26177.5
26252.7
26659
26446.6
26396.4
26290.7
26284.2
26137.2
26335.7
26654.3
26684.9
26511.3
26266.7
26339.9
26515.7
26559
26415.4
26516.7
26612.3
26385.1
26176.2
26204.3
26447.9
26493.8
26381.5
26166.7
26283.3
26321.6
26310.1
26341.7
26271.3
26575.3
26419.6
26535.9
26509.5
26387.7
26989.2
26168.6
26174.4
26339.4
26464.2
26600.5
26551.1
26483.7
26428.9
26279.4
26139.4
26296.5
26504.1
26362.2
26275.2
26427
26523
26490.8
26816.2
26450
26538.8
26242.3
26152.6
26399.8
26506.9
26616.3
26315.7
26290.7
26328.4
26132.9
26619.2
26628.7
26527.3
26310.2
26236.5
26461.1
26618.4
26401.9
26411.6
26413.7
26350.5
26069.3
26537.9
26362.2
26348.5
26449.2
26357.8
26386.7
26023.4
26273.9
26293.4
26388.7
26490.6
26396.2
26417.3
26397.7
26425.4
26458.4
26123.6
26311.7
26278.5
26199.9
26051.2
26273.3
26304.8
26296
26356
26308.5
26362.8
26241.7
26262.2
26181
26414.6
26514.4
26411.6
26287
26290.9
26462
26476.9
26383.2
26247.6
26427.7
26394.8
26077.8
26186.2
26185.1
26494.9
26518.3
26395.2
26288.5
26352.7
26378.1
26101.9
26584.5
26494.6
26567.6
26158.3
26139.1
26646.3
26379
26584.2
26544.3
26581
26471
26513.2
26425.5
26497.7
26024.8
26465.2
26519.8
26480.7
26262.6
26227.7
26171.3
26103
26375.3
26341.1
26353.6
26442.5
26171.7
26069.2
26270.3
26263.3
26173.2
26371
26260.8
26566.5
26414.1
26527.9
26148.2
26170.8
26416.5
26650.3
26519.6
26759.9
26435
26585.7
26494.2
26429.5
26672.1
26234
26223.7
26237.7
26179.3
26573
26441
26574.2
26489.6
26487.3
26554.8
26041.2
26269.6
26093.7
26079.2
26332.7
26445.9
26337.3
26295
26156.1
26368.1
26275
26388.9
26520.6
26565.1
26336.2
26262.6
26402.6
26547.2
26805.3
26340.3
26216.7
26431
26679.3
26375.1
26330.5
26256.9
26523
26572.6
26457.9
26448.6
26461.2
26401
26040.2
26257.2
26372.6
26354
26422.6
26322.6
26325.8
26407.4
26407.6
26364.3
26172.2
26260.5
26163
26485.2
26386.3
26443.2
26123.7
26389.8
26407.1
26439.6
26291.2
26256.1
26192.1
26093.8
26251.9
26149.5
26342.1
26316
26324.6
26363.8
26234.6
26177.5
26291.1
26420
26480.8
26584.3
26285.4
26291.7
26163
26297.5
26414.1
26486.4
26594.1
26295.4
26309.4
26207.8
26213.9
26417.7
26466.7
26297.4
26249.8
26349.9
26412.6
26113.8
26454.6
26499.5
26401.8
26267.3
26347.1
26308.5
26115.7
26164.3
26140.1
26710.1
26399.9
26599.3
26558.9
26584.9
26475.3
26376.9
26261.9
26393.3
26579.5
26554.1
26551.3
26622.6
26540.8
26317.6
26296.3
26310
26346.9
26251.3
26300.2
26291
26272.4
26334.5
26162.1
26279.4
26528.7
26454.9
26513.1
26254.3
26310.6
26281
26364.2
26232.6
26540.2
26449.8
26329.3
26338
26302.6
26380
26091.5
26587.8
26700.4
26647.8
26313
26150.1
26311.4
26270.3
26409.8
26506
26364.9
26331.4
26332.8
26295.1
26136.2
26365.1
26345.6
26316.7
26414.5
26581.2
26408.6
26316
26228.6
26313
26310.3
26339.6
26419.6
26401.7
26135.9
26369.3
26397.7
26313.7
26372.4
26374
26319.9
26217.8
26201
26187.4
26219.1
26487.3
26475.6
26448.9
26278.6
26387.2
26273.4
26164.9
26276.9
26521.3
26475.4
26474.1
26235.7
26309.8
26492.2
26478.5
26382.2
26292.6
26331.9
26345.5
26095.4
26575.8
26418.7
26485.3
26308.8
26214.3
26296.1
26278.1
26323.7
26334.8
26326.3
26340.9
26442.6
26202.6
26085.4
26270.4
26209.9
26368.9
26535.3
26434.2
26335.6
26364.8
26379.9
26050.9
26266
26361.9
26544.9
26437
26458.7
26304.8
26252.7
26274.7
26280.5
26366.5
26089.4
26402.6
26466.8
26332.1
26659.1
26480.1
26488.6
26224.3
26298.5
26315.9
26295.3
26529.2
26420.7
26307.5
26477.8
26402.4
26461.6
26158.9
26265.9
26267.7
26309
26460.5
26534.3
26458.2
26300.2
26197.2
26310.7
26265.8
26416.8
26471.7
26319.7
26306.9
26403.4
26439.4
26111.5
26266.4
26095
26334.6
26290.8
26293.3
26279.4
26397.2
26246.1
26110.9
26161.4
26327.4
26489.5
26510.5
26665.4
26306.8
26339
26338.8
26323.7
26319.1
26389.8
26442
26290.7
26301.1
26297.7
26321.2
26152.8
26439
26427.3
26425.1
26199.6
26292.2
26284.6
26270.4
26292.6
26349.8
26342.4
26118
26441.6
26413.2
26380.2
26243.2
26304
26371.6
26356.3
26315.4
26289.7
26322.4
26293.4
26248.6
26402.3
26360.4
26309.9
26372.6
26310.8
26415
26120.2
26143
26290.2
26614.8
26529.1
26487.1
26297.5
26276.2
26465.2
26393.1
26346.9
26275.7
26312.7
26333.6
26158.7
26754.7
26468.3
26416.5
26171.2
26292.2
26312.9
26296.6
26355.2
26302.7
26240.5
26166.3
26291.3
26403.8
26476.5
26733.3
26327
26291.4
26443.7
26407.3
26343.7
26257
26327.9
26361.1
26121.7
26418
26470.1
26536.3
26184.4
26290.7
26303.9
26292.3
26309.3
26372.6
26390
26106.1
26497.5
26428.2
26390.7
)
;
    }
}


// ************************************************************************* //
