/*--------------------------------*- C++ -*----------------------------------*\
| =========                 |                                                 |
| \\      /  F ield         | OpenFOAM: The Open Source CFD Toolbox           |
|  \\    /   O peration     | Version:  v1906                                 |
|   \\  /    A nd           | Web:      www.OpenFOAM.com                      |
|    \\/     M anipulation  |                                                 |
\*---------------------------------------------------------------------------*/
FoamFile
{
    version     2.0;
    format      ascii;
    class       surfaceScalarField;
    location    "35";
    object      phi;
}
// * * * * * * * * * * * * * * * * * * * * * * * * * * * * * * * * * * * * * //

dimensions      [1 0 -1 0 0 0 0];
oriented        oriented;


internalField   nonuniform List<scalar> 
228225
(
-0.000278202
-1.92575e-05
-4.02615e-06
-0.000258444
-1.70543e-05
-2.50499e-06
-0.000236873
-1.8784e-05
-2.57743e-06
-0.000214556
-2.03805e-05
-1.70108e-06
-0.000193944
-1.9658e-05
-7.11465e-07
-0.000176207
-1.74727e-05
1.79267e-08
-0.000160699
-1.57263e-05
5.63109e-07
-0.000146678
-1.45746e-05
9.52117e-07
-0.000133904
-1.37401e-05
1.39017e-06
-0.000122158
-1.30235e-05
1.73551e-06
-0.000111349
-1.24059e-05
2.06577e-06
-0.000101338
-1.18948e-05
2.35843e-06
-9.20169e-05
-1.14847e-05
2.62971e-06
-8.33016e-05
-1.11468e-05
2.88254e-06
-7.51272e-05
-1.0866e-05
3.12071e-06
-6.74502e-05
-1.06196e-05
3.34611e-06
-6.02447e-05
-1.03903e-05
3.56103e-06
-5.34971e-05
-1.01645e-05
3.7668e-06
-4.72005e-05
-9.93582e-06
3.96504e-06
-4.13459e-05
-9.70432e-06
4.155e-06
-3.59146e-05
-9.4761e-06
4.33353e-06
-3.08709e-05
-9.26467e-06
4.49666e-06
-2.61608e-05
-9.08479e-06
4.64025e-06
-2.17114e-05
-8.95595e-06
4.76411e-06
-1.74346e-05
-8.89936e-06
4.87397e-06
-1.32372e-05
-8.92913e-06
4.97874e-06
-9.03649e-06
-9.04541e-06
5.09012e-06
-4.77742e-06
-9.23455e-06
5.22259e-06
-4.3978e-07
-9.47746e-06
5.39302e-06
3.96294e-06
-9.75813e-06
5.6202e-06
8.35728e-06
-1.00346e-05
5.92431e-06
1.24361e-05
-1.00887e-05
6.32515e-06
1.51538e-05
-9.19135e-06
6.83804e-06
1.25292e-05
-4.23173e-06
7.29878e-06
8.38329e-06
4.62321e-06
-6.57913e-06
-9.14641e-06
-3.9004e-06
-1.2982e-05
-5.09867e-06
-5.6447e-06
-1.90183e-05
-6.99029e-06
-5.95095e-06
-2.64299e-05
-8.19722e-06
-5.09407e-06
-3.3551e-05
-8.95634e-06
-4.06116e-06
-3.86731e-05
-1.00079e-05
-3.02076e-06
-4.14508e-05
-1.15333e-05
-2.18111e-06
-4.19602e-05
-1.32501e-05
-1.56903e-06
-4.05566e-05
-1.47415e-05
-1.11076e-06
-3.76287e-05
-1.58789e-05
-7.28794e-07
-3.35338e-05
-1.67106e-05
-3.89067e-07
-2.85901e-05
-1.73007e-05
-7.58677e-08
-2.31315e-05
-1.76966e-05
2.74268e-07
-1.74184e-05
-1.79294e-05
6.43563e-07
-1.16784e-05
-1.80195e-05
1.03066e-06
-6.10195e-06
-1.798e-05
1.43132e-06
-8.40271e-07
-1.78187e-05
1.82999e-06
3.99251e-06
-1.7543e-05
2.211e-06
8.30823e-06
-1.71645e-05
2.56804e-06
1.20359e-05
-1.66971e-05
2.8997e-06
1.51268e-05
-1.61509e-05
3.19178e-06
1.75722e-05
-1.55342e-05
3.40669e-06
1.94123e-05
-1.48662e-05
3.50709e-06
2.0708e-05
-1.41792e-05
3.48839e-06
2.15113e-05
-1.35123e-05
3.37363e-06
2.18597e-05
-1.29041e-05
3.19728e-06
2.17784e-05
-1.2389e-05
3.00129e-06
2.12766e-05
-1.19936e-05
2.83867e-06
2.03346e-05
-1.17362e-05
2.77454e-06
1.88967e-05
-1.16316e-05
2.87615e-06
1.69023e-05
-1.16781e-05
3.191e-06
1.44894e-05
-1.18529e-05
3.72235e-06
1.19797e-05
-1.16209e-05
4.48305e-06
7.77015e-06
-5.71174e-06
5.30331e-06
1.28133e-05
3.38679e-06
-8.81478e-06
-3.9781e-07
-2.28632e-07
-1.17566e-05
-2.6933e-06
9.75657e-08
-1.59752e-05
-4.06385e-06
7.62825e-07
-2.04953e-05
-5.88565e-06
1.6472e-06
-2.28034e-05
-9.52963e-06
2.40946e-06
-2.17673e-05
-1.42263e-05
2.89663e-06
-1.79139e-05
-1.86197e-05
3.12189e-06
-1.22959e-05
-2.19809e-05
3.13118e-06
-5.56216e-06
-2.43717e-05
3.01065e-06
1.89054e-06
-2.5978e-05
2.83181e-06
9.71777e-06
-2.69529e-05
2.65326e-06
1.76087e-05
-2.74258e-05
2.51044e-06
2.52926e-05
-2.7494e-05
2.41652e-06
3.25459e-05
-2.72368e-05
2.37593e-06
3.91859e-05
-2.67159e-05
2.39281e-06
4.50686e-05
-2.59798e-05
2.46623e-06
5.01013e-05
-2.50665e-05
2.57648e-06
5.42521e-05
-2.40044e-05
2.68426e-06
5.75358e-05
-2.28199e-05
2.75484e-06
5.9993e-05
-2.1544e-05
2.77391e-06
6.16609e-05
-2.02077e-05
2.75893e-06
6.25669e-05
-1.8841e-05
2.73753e-06
6.27302e-05
-1.74736e-05
2.72954e-06
6.21593e-05
-1.61348e-05
2.74579e-06
6.08489e-05
-1.48519e-05
2.79287e-06
5.87778e-05
-1.36518e-05
2.881e-06
5.59088e-05
-1.25663e-05
3.02931e-06
5.21903e-05
-1.16282e-05
3.26407e-06
4.75557e-05
-1.08676e-05
3.61293e-06
4.18901e-05
-1.0281e-05
4.10283e-06
3.50222e-05
-9.87172e-06
4.79171e-06
2.64881e-05
-9.46935e-06
5.83369e-06
1.61072e-05
-8.82139e-06
7.22972e-06
6.28952e-06
-4.07625e-06
8.04824e-06
1.51971e-05
4.09323e-06
2.99555e-07
-2.04363e-06
1.277e-06
2.56531e-06
-6.7713e-06
1.77147e-06
8.24831e-06
-1.16962e-05
1.9777e-06
1.72262e-05
-1.67454e-05
2.0012e-06
2.76039e-05
-2.13343e-05
1.65095e-06
3.76619e-05
-2.49852e-05
1.02734e-06
4.66181e-05
-2.75256e-05
3.57708e-07
5.43802e-05
-2.90686e-05
-2.12286e-07
6.09572e-05
-2.98376e-05
-6.1808e-07
6.64632e-05
-3.00424e-05
-9.35079e-07
7.1022e-05
-2.98417e-05
-1.16138e-06
7.47517e-05
-2.93405e-05
-1.3106e-06
7.77559e-05
-2.86018e-05
-1.39804e-06
8.0109e-05
-2.7661e-05
-1.43563e-06
8.1861e-05
-2.65427e-05
-1.43374e-06
8.30467e-05
-2.52683e-05
-1.40318e-06
8.3695e-05
-2.38561e-05
-1.35671e-06
8.38435e-05
-2.23275e-05
-1.31028e-06
8.35476e-05
-2.07168e-05
-1.2741e-06
8.28734e-05
-1.90657e-05
-1.24825e-06
8.18924e-05
-1.74159e-05
-1.22819e-06
8.06741e-05
-1.58042e-05
-1.20635e-06
7.92714e-05
-1.426e-05
-1.1686e-06
7.77077e-05
-1.28024e-05
-1.09738e-06
7.59686e-05
-1.14403e-05
-9.75612e-07
7.39907e-05
-1.01692e-05
-7.87822e-07
7.1641e-05
-8.96677e-06
-5.20656e-07
6.8731e-05
-7.81331e-06
-1.75318e-07
6.48546e-05
-6.72137e-06
4.44062e-07
5.96914e-05
-5.73087e-06
1.27929e-06
5.27063e-05
-4.84808e-06
2.47551e-06
4.26654e-05
-3.49223e-06
4.22554e-06
2.85091e-05
-1.24254e-06
6.27012e-06
9.91643e-06
6.13438e-06
7.92891e-06
2.0492e-05
4.74776e-06
3.00489e-06
-6.30221e-06
1.27027e-06
1.02389e-05
-1.54336e-05
1.56514e-06
1.84492e-05
-2.15893e-05
1.92292e-06
2.58348e-05
-2.56711e-05
1.83883e-06
3.13464e-05
-2.7953e-05
1.42212e-06
3.46975e-05
-2.8981e-05
9.40032e-07
3.61032e-05
-2.91981e-05
5.11592e-07
3.60523e-05
-2.89825e-05
1.40905e-07
3.50351e-05
-2.85944e-05
-1.23377e-07
3.34782e-05
-2.81471e-05
-3.0653e-07
3.17341e-05
-2.76578e-05
-4.70621e-07
3.00297e-05
-2.71013e-05
-6.16643e-07
2.85009e-05
-2.64399e-05
-7.52247e-07
2.72253e-05
-2.56418e-05
-8.86633e-07
2.62383e-05
-2.469e-05
-1.02053e-06
2.55436e-05
-2.35808e-05
-1.14978e-06
2.51223e-05
-2.23146e-05
-1.27366e-06
2.49464e-05
-2.09008e-05
-1.39579e-06
2.49907e-05
-1.93718e-05
-1.51985e-06
2.52403e-05
-1.77828e-05
-1.64333e-06
2.56928e-05
-1.61937e-05
-1.76064e-06
2.63505e-05
-1.4649e-05
-1.86978e-06
2.72049e-05
-1.31725e-05
-1.96622e-06
2.82247e-05
-1.17715e-05
-2.03978e-06
2.93533e-05
-1.04426e-05
-2.07795e-06
3.0516e-05
-9.17586e-06
-2.0677e-06
3.16302e-05
-7.94747e-06
-1.99318e-06
3.25829e-05
-6.7237e-06
-1.82815e-06
3.31656e-05
-5.46831e-06
-1.52378e-06
3.29719e-05
-4.14888e-06
-9.6203e-07
3.11006e-05
-2.65654e-06
1.10698e-07
2.60908e-05
-4.82828e-07
2.20911e-06
1.75925e-05
2.40441e-06
4.72381e-06
5.55958e-06
1.14767e-05
6.54725e-06
2.22409e-05
3.96978e-06
7.25113e-06
-1.40635e-05
6.49117e-07
1.33613e-05
-2.25854e-05
1.3368e-06
1.58563e-05
-2.52275e-05
1.46759e-06
1.54646e-05
-2.58762e-05
8.58734e-07
1.33195e-05
-2.57238e-05
9.98868e-08
1.04018e-05
-2.54581e-05
-4.82637e-07
7.43321e-06
-2.52698e-05
-8.88864e-07
4.86763e-06
-2.52431e-05
-1.13899e-06
2.9434e-06
-2.53449e-05
-1.30245e-06
1.71734e-06
-2.54587e-05
-1.42977e-06
1.13205e-06
-2.54779e-05
-1.54065e-06
1.08298e-06
-2.53375e-05
-1.63796e-06
1.46025e-06
-2.5004e-05
-1.71997e-06
2.16818e-06
-2.44641e-05
-1.78531e-06
3.12889e-06
-2.37172e-05
-1.83437e-06
4.27674e-06
-2.27683e-05
-1.86868e-06
5.55785e-06
-2.16264e-05
-1.89059e-06
6.9357e-06
-2.03134e-05
-1.90265e-06
8.3909e-06
-1.88738e-05
-1.9075e-06
9.91898e-06
-1.73722e-05
-1.90804e-06
1.15237e-05
-1.5873e-05
-1.90593e-06
1.32069e-05
-1.44185e-05
-1.90016e-06
1.49621e-05
-1.30268e-05
-1.88824e-06
1.67683e-05
-1.16966e-05
-1.8646e-06
1.85852e-05
-1.04137e-05
-1.82082e-06
2.03508e-05
-9.15755e-06
-1.7464e-06
2.19877e-05
-7.90204e-06
-1.62699e-06
2.33982e-05
-6.61135e-06
-1.44084e-06
2.44294e-05
-5.22827e-06
-1.14565e-06
2.47865e-05
-3.66847e-06
-6.52191e-07
2.3969e-05
-1.82565e-06
1.95398e-07
2.13518e-05
6.22959e-07
1.62919e-06
1.51431e-05
5.00383e-06
3.47776e-06
5.54041e-06
1.55502e-05
5.1602e-06
2.45751e-05
3.20888e-06
2.60738e-06
-1.66723e-05
1.64773e-07
1.55368e-06
-2.19459e-05
4.96493e-07
-1.16054e-06
-2.29436e-05
4.34101e-07
-4.22616e-06
-2.32832e-05
4.66689e-07
-6.68923e-06
-2.36411e-05
4.26272e-07
-8.13771e-06
-2.41172e-05
2.30533e-07
-8.566e-06
-2.46079e-05
-3.5353e-08
-8.2445e-06
-2.50368e-05
-2.60015e-07
-7.44641e-06
-2.53132e-05
-5.03474e-07
-6.42145e-06
-2.53665e-05
-7.49023e-07
-5.33262e-06
-2.51831e-05
-9.91315e-07
-4.25051e-06
-2.47883e-05
-1.22949e-06
-3.17538e-06
-2.42137e-05
-1.46482e-06
-2.0681e-06
-2.34821e-05
-1.69762e-06
-8.75876e-07
-2.26067e-05
-1.92582e-06
4.51074e-07
-2.15942e-05
-2.1432e-06
1.9492e-06
-2.045e-05
-2.33935e-06
3.63114e-06
-1.91853e-05
-2.50119e-06
5.47954e-06
-1.78251e-05
-2.61817e-06
7.44567e-06
-1.64073e-05
-2.68397e-06
9.46508e-06
-1.49762e-05
-2.70042e-06
1.14739e-05
-1.35711e-05
-2.66848e-06
1.34158e-05
-1.22181e-05
-2.58607e-06
1.52352e-05
-1.09201e-05
-2.44905e-06
1.68755e-05
-9.66615e-06
-2.25401e-06
1.82747e-05
-8.43505e-06
-1.99745e-06
1.93631e-05
-7.19734e-06
-1.67666e-06
2.00638e-05
-5.91426e-06
-1.28987e-06
2.0297e-05
-4.52981e-06
-8.3434e-07
1.99617e-05
-2.9475e-06
-3.03516e-07
1.87581e-05
-9.41446e-07
3.71894e-07
1.61708e-05
1.89164e-06
1.29068e-06
1.05333e-05
7.85882e-06
2.55646e-06
2.83608e-06
1.92375e-05
3.64178e-06
2.51606e-05
2.21824e-06
-1.10311e-06
-1.58338e-05
1.85415e-07
-1.92276e-06
-2.18246e-05
6.9827e-07
-2.05939e-06
-2.37559e-05
1.01538e-06
-1.4426e-06
-2.47954e-05
1.01378e-06
-3.85797e-07
-2.54387e-05
8.98614e-07
6.99051e-07
-2.57328e-05
7.15879e-07
1.56794e-06
-2.57299e-05
4.5793e-07
2.08791e-06
-2.55061e-05
1.69347e-07
2.22875e-06
-2.5121e-05
-1.01373e-07
2.0778e-06
-2.46096e-05
-3.65626e-07
1.75659e-06
-2.39928e-05
-6.22056e-07
1.36794e-06
-2.32827e-05
-8.63691e-07
9.92304e-07
-2.24869e-05
-1.09178e-06
6.97783e-07
-2.16129e-05
-1.30923e-06
5.51052e-07
-2.06713e-05
-1.51768e-06
6.2107e-07
-1.96714e-05
-1.71757e-06
9.72062e-07
-1.86153e-05
-1.90808e-06
1.64736e-06
-1.74973e-05
-2.08658e-06
2.65201e-06
-1.63092e-05
-2.24965e-06
3.9446e-06
-1.505e-05
-2.39122e-06
5.4417e-06
-1.3734e-05
-2.49918e-06
7.03858e-06
-1.23895e-05
-2.56116e-06
8.63929e-06
-1.10475e-05
-2.57801e-06
1.01695e-05
-9.72906e-06
-2.55076e-06
1.15743e-05
-8.44708e-06
-2.47354e-06
1.28138e-05
-7.20119e-06
-2.34008e-06
1.38522e-05
-5.97327e-06
-2.14355e-06
1.46514e-05
-4.72981e-06
-1.87788e-06
1.51627e-05
-3.41252e-06
-1.53658e-06
1.53034e-05
-1.90685e-06
-1.10761e-06
1.4869e-05
8.01932e-08
-5.44119e-07
1.30145e-05
3.44877e-06
2.70864e-07
8.41074e-06
1.08101e-05
1.47046e-06
2.4303e-06
2.24896e-05
2.4676e-06
2.61713e-05
1.44603e-06
5.38596e-07
-1.72825e-05
8.57984e-07
4.64764e-07
-2.39455e-05
2.16613e-06
-3.19635e-08
-2.58172e-05
2.53185e-06
-6.80178e-07
-2.66958e-05
2.52314e-06
-1.46549e-06
-2.71258e-05
2.44982e-06
-2.32614e-06
-2.72056e-05
2.31716e-06
-3.17023e-06
-2.69893e-05
2.09924e-06
-3.91632e-06
-2.6539e-05
1.79159e-06
-4.51332e-06
-2.59168e-05
1.42383e-06
-4.92157e-06
-2.51738e-05
1.02077e-06
-5.10656e-06
-2.4343e-05
5.98927e-07
-5.06045e-06
-2.34328e-05
1.8147e-07
-4.80424e-06
-2.24332e-05
-2.19115e-07
-4.37175e-06
-2.13387e-05
-6.03079e-07
-3.8032e-06
-2.01612e-05
-9.62489e-07
-3.12918e-06
-1.89288e-05
-1.28848e-06
-2.35898e-06
-1.76714e-05
-1.57473e-06
-1.47899e-06
-1.64077e-05
-1.81957e-06
-4.60894e-07
-1.5142e-05
-2.0253e-06
7.20858e-07
-1.38682e-05
-2.1949e-06
2.0674e-06
-1.25773e-05
-2.32928e-06
3.54188e-06
-1.12632e-05
-2.42669e-06
5.07284e-06
-9.92721e-06
-2.4833e-06
6.57375e-06
-8.57799e-06
-2.49579e-06
7.95721e-06
-7.22739e-06
-2.46224e-06
9.14942e-06
-5.8837e-06
-2.38533e-06
1.00943e-05
-4.5443e-06
-2.26554e-06
1.075e-05
-3.19197e-06
-2.09995e-06
1.1076e-05
-1.77539e-06
-1.88273e-06
1.09721e-05
-1.40155e-07
-1.59636e-06
1.0345e-05
1.9382e-06
-1.18361e-06
8.68497e-06
5.61484e-06
-4.97699e-07
5.19384e-06
1.36477e-05
5.98035e-07
1.24477e-06
2.48467e-05
1.53087e-06
2.65865e-05
9.36275e-07
-2.45436e-06
-1.65117e-05
1.65564e-06
-4.37918e-06
-2.48145e-05
2.83944e-06
-4.62944e-06
-2.8573e-05
3.13977e-06
-3.55488e-06
-3.08112e-05
3.24841e-06
-1.54225e-06
-3.20881e-05
3.2191e-06
1.00538e-06
-3.25682e-05
3.13644e-06
3.66076e-06
-3.2333e-05
3.05145e-06
6.01084e-06
-3.14658e-05
2.9689e-06
7.73101e-06
-3.00966e-05
2.86524e-06
8.65137e-06
-2.84028e-05
2.71039e-06
8.79565e-06
-2.65717e-05
2.46659e-06
8.35047e-06
-2.47541e-05
2.11816e-06
7.56065e-06
-2.30353e-05
1.70762e-06
6.69621e-06
-2.14307e-05
1.23647e-06
5.96847e-06
-1.99069e-05
7.21685e-07
5.4837e-06
-1.84174e-05
1.95312e-07
5.26667e-06
-1.69302e-05
-3.23236e-07
5.27768e-06
-1.5437e-05
-7.97752e-07
5.46619e-06
-1.39445e-05
-1.21609e-06
5.79178e-06
-1.24657e-05
-1.56944e-06
6.23678e-06
-1.10183e-05
-1.85393e-06
6.80261e-06
-9.61349e-06
-2.07175e-06
7.48896e-06
-8.24739e-06
-2.22757e-06
8.27353e-06
-6.904e-06
-2.3258e-06
9.10367e-06
-5.56326e-06
-2.36949e-06
9.90333e-06
-4.20854e-06
-2.36095e-06
1.05887e-05
-2.82637e-06
-2.30306e-06
1.10769e-05
-1.39704e-06
-2.19822e-06
1.12952e-05
1.20783e-07
-2.0455e-06
1.11414e-05
1.89796e-06
-1.83168e-06
1.03254e-05
4.29575e-06
-1.50862e-06
8.38011e-06
8.50273e-06
-9.45143e-07
4.76338e-06
1.71802e-05
2.24965e-08
1.22777e-06
2.76068e-05
7.32352e-07
2.75111e-05
4.37221e-07
-3.44488e-06
-1.52331e-05
2.12502e-06
-2.76472e-06
-2.88089e-05
3.43395e-06
1.12206e-06
-3.59167e-05
3.73077e-06
6.61276e-06
-3.95479e-05
3.6307e-06
1.26758e-05
-4.11071e-05
3.41598e-06
1.86471e-05
-4.12182e-05
3.1973e-06
2.40182e-05
-4.01431e-05
3.00988e-06
2.83793e-05
-3.80737e-05
2.86605e-06
3.14476e-05
-3.52782e-05
2.77348e-06
3.30671e-05
-3.20694e-05
2.73244e-06
3.31822e-05
-2.87314e-05
2.72916e-06
3.18488e-05
-2.54978e-05
2.7282e-06
2.92787e-05
-2.25533e-05
2.67619e-06
2.58561e-05
-2.00245e-05
2.52427e-06
2.20791e-05
-1.79564e-05
2.25087e-06
1.84431e-05
-1.62946e-05
1.86135e-06
1.53308e-05
-1.49061e-05
1.37359e-06
1.29488e-05
-1.36338e-05
8.16524e-07
1.13181e-05
-1.23349e-05
2.23029e-07
1.03034e-05
-1.09106e-05
-3.66666e-07
9.70182e-06
-9.35247e-06
-9.14131e-07
9.32464e-06
-7.72315e-06
-1.38267e-06
9.03545e-06
-6.08666e-06
-1.75642e-06
8.78288e-06
-4.51204e-06
-2.03518e-06
8.57794e-06
-3.03535e-06
-2.22641e-06
8.42474e-06
-1.62624e-06
-2.33872e-06
8.26186e-06
-2.00123e-07
-2.37925e-06
8.0855e-06
1.20904e-06
-2.35314e-06
7.78559e-06
2.75149e-06
-2.26292e-06
7.28869e-06
4.55513e-06
-2.10116e-06
6.44346e-06
7.02108e-06
-1.82496e-06
4.94835e-06
1.1354e-05
-1.2828e-06
2.56994e-06
1.99135e-05
-2.2853e-07
4.58513e-07
2.9275e-05
6.01791e-07
2.7793e-05
3.93712e-07
3.93382e-07
-1.76813e-05
1.96564e-06
6.38843e-06
-3.70185e-05
2.24157e-06
1.44328e-05
-4.55886e-05
1.79299e-06
2.24258e-05
-4.87214e-05
1.41117e-06
2.96146e-05
-4.91743e-05
1.13451e-06
3.56503e-05
-4.79015e-05
9.22219e-07
4.02525e-05
-4.51846e-05
7.41138e-07
4.33672e-05
-4.14269e-05
5.80057e-07
4.52867e-05
-3.72606e-05
4.58848e-07
4.64029e-05
-3.31398e-05
4.18266e-07
4.69215e-05
-2.91999e-05
4.90245e-07
4.67872e-05
-2.5433e-05
6.82899e-07
4.57702e-05
-2.1849e-05
9.77112e-07
4.36306e-05
-1.85358e-05
1.32322e-06
4.0293e-05
-1.56394e-05
1.64799e-06
3.59525e-05
-1.32906e-05
1.8798e-06
3.10474e-05
-1.15262e-05
1.97425e-06
2.61183e-05
-1.02541e-05
1.91417e-06
2.16581e-05
-9.27066e-06
1.68696e-06
1.80291e-05
-8.33911e-06
1.2833e-06
1.54163e-05
-7.2922e-06
7.28602e-07
1.37827e-05
-6.03392e-06
8.31734e-08
1.28207e-05
-4.44794e-06
-5.71244e-07
1.20934e-05
-2.55228e-06
-1.15564e-06
1.13548e-05
-6.2625e-07
-1.61464e-06
1.04835e-05
1.23075e-06
-1.94266e-06
9.58631e-06
2.88882e-06
-2.15507e-06
8.64158e-06
4.45238e-06
-2.26445e-06
7.62911e-06
6.07416e-06
-2.2748e-06
6.50553e-06
7.90416e-06
-2.18224e-06
5.26818e-06
1.02957e-05
-1.96668e-06
4.02357e-06
1.43295e-05
-1.56014e-06
2.67998e-06
2.25055e-05
-8.18422e-07
1.14156e-06
3.14139e-05
-2.75333e-08
2.92247e-05
9.46824e-08
9.07457e-06
-2.72039e-05
4.83979e-07
1.83478e-05
-4.63779e-05
2.67818e-07
2.44056e-05
-5.16003e-05
1.31164e-07
2.79973e-05
-5.21385e-05
-6.44997e-08
2.97744e-05
-5.05892e-05
-3.10398e-07
2.97437e-05
-4.72333e-05
-6.16297e-07
2.77728e-05
-4.22229e-05
-9.84736e-07
2.44396e-05
-3.66779e-05
-1.42235e-06
2.10191e-05
-3.19941e-05
-1.85929e-06
1.85843e-05
-2.85286e-05
-2.1866e-06
1.75539e-05
-2.58152e-05
-2.3492e-06
1.7877e-05
-2.33706e-05
-2.346e-06
1.92169e-05
-2.09059e-05
-2.18655e-06
2.10197e-05
-1.82873e-05
-1.8803e-06
2.26086e-05
-1.55359e-05
-1.44296e-06
2.33667e-05
-1.28209e-05
-9.15597e-07
2.29178e-05
-1.03792e-05
-3.57963e-07
2.12496e-05
-8.4005e-06
1.41717e-07
1.86995e-05
-6.94848e-06
5.1377e-07
1.58181e-05
-5.94511e-06
7.26962e-07
1.31498e-05
-5.20967e-06
7.98173e-07
1.10756e-05
-4.50313e-06
7.39776e-07
9.86126e-06
-3.54724e-06
4.73833e-07
9.62299e-06
-2.15327e-06
-6.11219e-08
1.00953e-05
-3.14223e-07
-7.33917e-07
1.04397e-05
2.26187e-06
-1.35624e-06
1.02663e-05
4.88077e-06
-1.81595e-06
9.88281e-06
6.94903e-06
-2.12014e-06
9.45986e-06
8.78375e-06
-2.30102e-06
8.8833e-06
1.08247e-05
-2.36347e-06
7.89397e-06
1.35466e-05
-2.2778e-06
6.16868e-06
1.80027e-05
-1.93777e-06
3.44181e-06
2.64728e-05
-1.17655e-06
1.11414e-06
3.43116e-05
-3.39494e-07
3.07082e-05
-7.19283e-08
8.70717e-06
-3.60137e-05
4.71062e-07
1.13922e-05
-5.00078e-05
1.37287e-06
9.86212e-06
-5.14807e-05
1.6278e-06
6.93301e-06
-5.05568e-05
1.48404e-06
3.39693e-06
-4.81864e-05
1.25562e-06
-7.34387e-07
-4.39488e-05
9.50028e-07
-5.31795e-06
-3.80663e-05
4.6929e-07
-9.76388e-06
-3.20351e-05
-2.51712e-07
-1.33807e-05
-2.74694e-05
-1.05641e-06
-1.57349e-05
-2.46615e-05
-1.72645e-06
-1.66962e-05
-2.29024e-05
-2.20061e-06
-1.62853e-05
-2.15323e-05
-2.5121e-06
-1.45646e-05
-2.01917e-05
-2.69447e-06
-1.16446e-05
-1.86856e-05
-2.76009e-06
-7.77064e-06
-1.69006e-05
-2.70715e-06
-3.39276e-06
-1.48069e-05
-2.53486e-06
8.65299e-07
-1.24676e-05
-2.25117e-06
4.35015e-06
-1.00335e-05
-1.87218e-06
6.57797e-06
-7.71708e-06
-1.42566e-06
7.39016e-06
-5.72493e-06
-9.59827e-07
6.98377e-06
-4.16307e-06
-5.45794e-07
5.81968e-06
-2.98722e-06
-2.49186e-07
4.51901e-06
-2.06781e-06
-8.18215e-08
3.67911e-06
-1.209e-06
-1.36786e-08
3.52711e-06
1.24823e-08
-9.37228e-08
4.44142e-06
1.92777e-06
-5.47891e-07
5.74347e-06
4.80643e-06
-1.24821e-06
6.15134e-06
8.30818e-06
-1.79777e-06
5.80297e-06
1.12495e-05
-2.13673e-06
5.23987e-06
1.37172e-05
-2.33705e-06
4.54773e-06
1.66306e-05
-2.39653e-06
3.35703e-06
2.13704e-05
-2.17745e-06
1.43701e-06
2.98501e-05
-1.45115e-06
2.10583e-07
3.62765e-05
-6.54059e-07
3.13396e-05
-2.26463e-07
-2.50573e-06
-3.45362e-05
1.19106e-06
-6.45274e-06
-4.81296e-05
2.08462e-06
-9.54664e-06
-5.04736e-05
2.10553e-06
-1.1719e-05
-5.032e-05
1.97726e-06
-1.29711e-05
-4.86809e-05
1.80896e-06
-1.30369e-05
-4.54154e-05
1.62021e-06
-1.18077e-05
-4.06044e-05
1.42062e-06
-1.00144e-05
-3.49071e-05
1.18085e-06
-9.03129e-06
-2.92509e-05
8.3104e-07
-9.32782e-06
-2.47751e-05
3.50567e-07
-1.01664e-05
-2.20005e-05
-1.94251e-07
-1.08273e-05
-2.03234e-05
-7.2537e-07
-1.09467e-05
-1.90825e-05
-1.1955e-06
-1.03335e-05
-1.79454e-05
-1.57679e-06
-8.8639e-06
-1.67469e-05
-1.85844e-06
-6.49844e-06
-1.53741e-05
-2.03787e-06
-3.34525e-06
-1.37386e-05
-2.11368e-06
2.87093e-07
-1.17868e-05
-2.08732e-06
3.89237e-06
-9.52884e-06
-1.96485e-06
6.87549e-06
-7.0758e-06
-1.75673e-06
8.75035e-06
-4.63172e-06
-1.47935e-06
9.32827e-06
-2.4298e-06
-1.15768e-06
8.76051e-06
-6.411e-07
-8.37166e-07
7.44351e-06
7.396e-07
-5.83777e-07
6.07174e-06
1.86929e-06
-4.34476e-07
5.33786e-06
3.09061e-06
-3.90912e-07
5.65335e-06
5.03403e-06
-5.37128e-07
6.52688e-06
8.4421e-06
-1.07618e-06
6.96885e-06
1.23401e-05
-1.64198e-06
6.67707e-06
1.59009e-05
-1.97821e-06
5.86851e-06
1.95584e-05
-2.13072e-06
4.55997e-06
2.48513e-05
-2.05841e-06
2.60362e-06
3.35187e-05
-1.48862e-06
1.07638e-06
3.88895e-05
-7.94677e-07
3.30141e-05
-2.90803e-07
-2.03329e-06
-3.36355e-05
8.50312e-07
-1.74413e-06
-4.96417e-05
9.76061e-07
-5.74743e-07
-5.27183e-05
8.72499e-07
8.16219e-07
-5.26644e-05
7.62625e-07
2.28029e-06
-5.09546e-05
6.36489e-07
3.53996e-06
-4.72811e-05
4.90806e-07
4.45845e-06
-4.1913e-05
3.91659e-07
5.17205e-06
-3.59612e-05
4.9511e-07
5.3002e-06
-2.99284e-05
8.14884e-07
4.29891e-06
-2.45353e-05
1.02124e-06
2.5562e-06
-2.09547e-05
8.82934e-07
7.54359e-07
-1.89365e-05
5.3158e-07
-7.42004e-07
-1.76413e-05
1.14714e-07
-1.73407e-06
-1.66335e-05
-3.08656e-07
-2.0996e-06
-1.57325e-05
-6.78957e-07
-1.73413e-06
-1.48282e-05
-9.78951e-07
-5.48111e-07
-1.38224e-05
-1.20701e-06
1.5003e-06
-1.26103e-05
-1.36637e-06
4.3372e-06
-1.10817e-05
-1.45636e-06
7.69442e-06
-9.14997e-06
-1.47217e-06
1.10972e-05
-6.80668e-06
-1.41341e-06
1.39854e-05
-4.18512e-06
-1.29358e-06
1.59231e-05
-1.55661e-06
-1.14528e-06
1.67151e-05
8.77684e-07
-1.01507e-06
1.63847e-05
3.09591e-06
-9.49313e-07
1.54443e-05
4.97909e-06
-9.74417e-07
1.46589e-05
6.91349e-06
-1.09281e-06
1.48069e-05
9.64678e-06
-1.31838e-06
1.4848e-05
1.40052e-05
-1.69335e-06
1.40716e-05
1.86627e-05
-2.05547e-06
1.22157e-05
2.35439e-05
-2.28438e-06
8.8282e-06
3.02581e-05
-2.29039e-06
4.67884e-06
3.9065e-05
-1.79192e-06
1.99386e-06
4.24716e-05
-1.05199e-06
3.57029e-05
-4.35285e-07
4.56687e-06
-3.85357e-05
4.26158e-07
6.3368e-06
-5.21208e-05
8.16767e-07
6.24284e-06
-5.35849e-05
9.96045e-07
5.32074e-06
-5.27509e-05
1.00702e-06
3.71818e-06
-5.02703e-05
8.99107e-07
1.16443e-06
-4.53913e-05
6.21694e-07
-2.44126e-06
-3.85729e-05
1.75842e-07
-6.22053e-06
-3.21011e-05
-2.19707e-07
-8.74807e-06
-2.72918e-05
-2.2599e-07
-9.67312e-06
-2.36812e-05
7.26357e-08
-9.68524e-06
-2.10761e-05
2.43385e-07
-9.36035e-06
-1.93165e-05
2.12811e-07
-8.88314e-06
-1.8026e-05
7.55976e-08
-8.26522e-06
-1.69722e-05
-1.19216e-07
-7.48282e-06
-1.60358e-05
-3.37383e-07
-6.51361e-06
-1.51463e-05
-5.32777e-07
-5.29913e-06
-1.42502e-05
-6.93538e-07
-3.73311e-06
-1.3295e-05
-8.14277e-07
-1.66727e-06
-1.22137e-05
-8.95553e-07
1.03015e-06
-1.0905e-05
-9.38595e-07
4.35122e-06
-9.22841e-06
-9.38029e-07
8.01503e-06
-7.05323e-06
-8.7935e-07
1.1454e-05
-4.36229e-06
-7.51308e-07
1.40803e-05
-1.31428e-06
-5.66224e-07
1.56614e-05
1.76069e-06
-3.70376e-07
1.60979e-05
4.67786e-06
-2.39262e-07
1.55873e-05
7.61687e-06
-2.70045e-07
1.43975e-05
1.14002e-05
-6.08866e-07
1.25462e-05
1.7251e-05
-1.46487e-06
9.98072e-06
2.32972e-05
-2.27067e-06
6.96828e-06
2.88712e-05
-2.69005e-06
3.50577e-06
3.57923e-05
-2.68119e-06
9.94132e-07
4.30658e-05
-2.18064e-06
2.27105e-07
4.43452e-05
-1.49874e-06
3.68023e-05
-7.90947e-07
-1.50955e-06
-3.77113e-05
8.71797e-07
-4.16664e-06
-5.07806e-05
1.4648e-06
-6.69229e-06
-5.25346e-05
1.60465e-06
-8.85545e-06
-5.20681e-05
1.60539e-06
-1.0464e-05
-5.00986e-05
1.54858e-06
-1.10193e-05
-4.61774e-05
1.41191e-06
-1.0589e-05
-4.01154e-05
1.11576e-06
-1.03507e-05
-3.3077e-05
6.68635e-07
-1.08936e-05
-2.71154e-05
2.50295e-07
-1.14611e-05
-2.32274e-05
-2.6025e-09
-1.15728e-05
-2.09294e-05
-1.14044e-07
-1.13616e-05
-1.94127e-05
-1.48942e-07
-1.0962e-05
-1.82516e-05
-1.75353e-07
-1.04398e-05
-1.72599e-05
-2.15432e-07
-9.82351e-06
-1.6352e-05
-2.68669e-07
-9.12316e-06
-1.54803e-05
-3.28383e-07
-8.33833e-06
-1.46083e-05
-3.86466e-07
-7.45701e-06
-1.37023e-05
-4.3498e-07
-6.44383e-06
-1.27248e-05
-4.67054e-07
-5.2195e-06
-1.16239e-05
-4.77339e-07
-3.65105e-06
-1.03179e-05
-4.61435e-07
-1.60427e-06
-8.68581e-06
-4.12454e-07
9.22029e-07
-6.59284e-06
-3.15148e-07
3.68654e-06
-3.97292e-06
-1.4662e-07
6.18908e-06
-8.89844e-07
9.40366e-08
7.98931e-06
2.45365e-06
3.68421e-07
8.78318e-06
6.18123e-06
5.90611e-07
8.50668e-06
1.10764e-05
5.36813e-07
7.31089e-06
1.85849e-05
-2.91465e-07
4.77914e-06
2.7103e-05
-1.62848e-06
1.51545e-06
3.39634e-05
-2.38166e-06
-1.33414e-06
4.06062e-05
-2.62687e-06
-1.85473e-06
4.55437e-05
-2.45824e-06
-1.13039e-06
4.53587e-05
-2.04935e-06
3.67392e-05
-1.20447e-06
-2.08608e-06
-3.64013e-05
5.3652e-07
-2.90465e-06
-5.07589e-05
5.2388e-07
-3.25088e-06
-5.301e-05
5.77908e-07
-3.51216e-06
-5.26638e-05
6.37696e-07
-3.7046e-06
-5.07774e-05
6.89502e-07
-3.77151e-06
-4.69658e-05
7.43804e-07
-3.43907e-06
-4.12715e-05
8.11372e-07
-2.69449e-06
-3.45687e-05
8.11296e-07
-2.32732e-06
-2.80047e-05
5.92818e-07
-2.71023e-06
-2.30505e-05
2.38283e-07
-3.37454e-06
-2.02226e-05
-4.37038e-08
-3.9518e-06
-1.86384e-05
-2.1461e-07
-4.36361e-06
-1.75476e-05
-3.14679e-07
-4.63418e-06
-1.66445e-05
-3.66111e-07
-4.79719e-06
-1.58216e-05
-3.84809e-07
-4.87543e-06
-1.50319e-05
-3.82833e-07
-4.87888e-06
-1.42456e-05
-3.67528e-07
-4.80529e-06
-1.34387e-05
-3.42118e-07
-4.63894e-06
-1.25865e-05
-3.07382e-07
-4.34383e-06
-1.16579e-05
-2.63272e-07
-3.85014e-06
-1.06047e-05
-2.10265e-07
-3.04481e-06
-9.34827e-06
-1.49994e-07
-1.8008e-06
-7.76736e-06
-8.29739e-08
-8.76818e-08
-5.70825e-06
-8.96527e-11
1.89432e-06
-3.02817e-06
1.24436e-07
3.62417e-06
3.63472e-07
3.20026e-07
4.53071e-06
4.62788e-06
5.97305e-07
4.38668e-06
1.02941e-05
8.51529e-07
3.56455e-06
1.8649e-05
6.01593e-07
1.67169e-06
2.92946e-05
-6.34314e-07
-1.05129e-06
3.77604e-05
-1.65716e-06
-2.93598e-06
4.39245e-05
-2.13203e-06
-2.78018e-06
4.71868e-05
-2.3187e-06
-1.68147e-06
4.61597e-05
-2.28545e-06
3.61723e-05
-1.41489e-06
2.44976e-06
-3.91162e-05
3.33884e-07
2.66017e-06
-5.14964e-05
6.19507e-07
1.72354e-06
-5.27392e-05
7.12462e-07
2.49424e-07
-5.18969e-05
7.2467e-07
-1.71451e-06
-4.94902e-05
6.73283e-07
-4.35449e-06
-4.488e-05
5.18314e-07
-7.54032e-06
-3.84735e-05
2.99013e-07
-1.0234e-05
-3.22064e-05
2.08017e-07
-1.14974e-05
-2.70787e-05
2.43365e-07
-1.16367e-05
-2.31048e-05
1.63503e-07
-1.14016e-05
-2.04232e-05
-2.45801e-08
-1.11334e-05
-1.86955e-05
-1.913e-07
-1.08571e-05
-1.74743e-05
-3.31349e-07
-1.0553e-05
-1.64908e-05
-4.43384e-07
-1.02261e-05
-1.56117e-05
-5.25956e-07
-9.90035e-06
-1.47728e-05
-5.76377e-07
-9.60566e-06
-1.39403e-05
-5.93068e-07
-9.36873e-06
-1.3093e-05
-5.76302e-07
-9.20623e-06
-1.22146e-05
-5.28029e-07
-9.1164e-06
-1.12898e-05
-4.51187e-07
-9.06626e-06
-1.02986e-05
-3.48861e-07
-8.97383e-06
-9.20848e-06
-2.23975e-07
-8.69549e-06
-7.95494e-06
-8.14127e-08
-8.06043e-06
-6.41219e-06
7.96491e-08
-6.96045e-06
-4.36759e-06
2.51979e-07
-5.51646e-06
-1.51001e-06
4.44188e-07
-3.98868e-06
2.4224e-06
6.93349e-07
-2.69454e-06
7.99925e-06
1.007e-06
-1.66795e-06
1.64057e-05
1.18039e-06
-1.30884e-06
2.8322e-05
4.89364e-07
-2.69392e-06
3.96709e-05
-7.76862e-07
-3.59146e-06
4.58271e-05
-1.35824e-06
-3.0866e-06
4.80619e-05
-1.66648e-06
-1.80539e-06
4.65062e-05
-1.81709e-06
3.53704e-05
-1.08554e-06
-2.34519e-06
-3.74001e-05
8.25843e-07
-4.9049e-06
-4.98068e-05
1.02821e-06
-7.04037e-06
-5.14799e-05
1.00714e-06
-8.70385e-06
-5.11093e-05
9.90125e-07
-9.66631e-06
-4.94377e-05
9.91051e-07
-9.37858e-06
-4.60988e-05
9.5574e-07
-7.91733e-06
-4.07337e-05
7.72022e-07
-6.52244e-06
-3.41087e-05
4.61172e-07
-5.85653e-06
-2.79941e-05
2.14436e-07
-5.63514e-06
-2.34112e-05
8.26047e-08
-5.67206e-06
-2.03438e-05
-1.38978e-08
-5.87649e-06
-1.83548e-05
-9.63353e-08
-6.14082e-06
-1.69801e-05
-1.91435e-07
-6.39768e-06
-1.5915e-05
-2.86203e-07
-6.61101e-06
-1.49991e-05
-3.72958e-07
-6.76897e-06
-1.41489e-05
-4.4549e-07
-6.87833e-06
-1.33171e-05
-4.9827e-07
-6.95995e-06
-1.24734e-05
-5.26387e-07
-7.04467e-06
-1.15957e-05
-5.25712e-07
-7.16845e-06
-1.06667e-05
-4.93156e-07
-7.36516e-06
-9.67044e-06
-4.26983e-07
-7.65281e-06
-8.59014e-06
-3.27028e-07
-8.00764e-06
-7.4012e-06
-1.95001e-07
-8.32123e-06
-6.05388e-06
-3.87215e-08
-8.41294e-06
-4.44035e-06
1.76056e-07
-7.98991e-06
-2.34057e-06
4.3145e-07
-6.91622e-06
6.69508e-07
7.26984e-07
-5.05824e-06
5.16788e-06
1.06025e-06
-2.31751e-06
1.2384e-05
1.41739e-06
9.04498e-07
2.37977e-05
1.47316e-06
1.88496e-06
3.83516e-05
4.81311e-07
7.45558e-07
4.75613e-05
-4.59791e-07
1.12445e-07
4.97216e-05
-8.36052e-07
-2.98043e-08
4.792e-05
-1.02761e-06
3.61279e-05
-5.86524e-07
-3.84771e-06
-3.43751e-05
4.69107e-07
-5.29186e-06
-4.9199e-05
4.51295e-07
-5.6115e-06
-5.1905e-05
4.31894e-07
-5.37976e-06
-5.20146e-05
4.05502e-07
-4.57382e-06
-5.09039e-05
4.30492e-07
-2.88157e-06
-4.85059e-05
5.37433e-07
1.96818e-08
-4.44564e-05
7.18435e-07
3.62184e-06
-3.85522e-05
8.29942e-07
6.42431e-06
-3.14649e-05
7.37215e-07
7.4264e-06
-2.48225e-05
5.09887e-07
6.93964e-06
-2.00367e-05
2.7379e-07
5.80633e-06
-1.72155e-05
7.49367e-08
4.56134e-06
-1.55958e-05
-6.80497e-08
3.41249e-06
-1.45252e-05
-1.78483e-07
2.42633e-06
-1.36863e-05
-2.7332e-07
1.61407e-06
-1.29406e-05
-3.52004e-07
9.66947e-07
-1.22209e-05
-4.13788e-07
4.656e-07
-1.14876e-05
-4.56825e-07
8.54158e-08
-1.07161e-05
-4.7864e-07
-2.0136e-07
-9.88883e-06
-4.76193e-07
-4.28462e-07
-8.98728e-06
-4.46305e-07
-6.34275e-07
-7.99291e-06
-3.86094e-07
-8.54688e-07
-6.88572e-06
-2.93417e-07
-1.10688e-06
-5.63473e-06
-1.68083e-07
-1.35263e-06
-4.18016e-06
-1.70446e-08
-1.53401e-06
-2.40233e-06
2.41153e-07
-1.30493e-06
-1.06105e-07
5.49768e-07
-4.64664e-07
3.44286e-06
9.05592e-07
1.53462e-06
9.15967e-06
1.29867e-06
5.11943e-06
1.86979e-05
1.71921e-06
8.62827e-06
3.35371e-05
1.64729e-06
7.96215e-06
4.78531e-05
5.91193e-07
5.3141e-06
5.26354e-05
-1.34081e-07
2.43431e-06
5.13112e-05
-4.77685e-07
3.88921e-05
-3.11905e-07
2.28392e-06
-3.67388e-05
-2.49972e-08
4.85532e-06
-5.16962e-05
1.17965e-08
6.96521e-06
-5.39719e-05
1.29226e-07
8.55305e-06
-5.35786e-05
1.78033e-07
9.44252e-06
-5.17417e-05
1.6419e-07
9.25106e-06
-4.81882e-05
9.01883e-08
8.01692e-06
-4.30572e-05
4.03401e-09
6.8369e-06
-3.73448e-05
5.59955e-08
6.54973e-06
-3.13785e-05
2.40839e-07
6.61318e-06
-2.51711e-05
3.36382e-07
6.23673e-06
-1.9837e-05
2.36521e-07
5.50626e-06
-1.64749e-05
4.36019e-08
4.78663e-06
-1.47036e-05
-1.23205e-07
4.2391e-06
-1.36734e-05
-2.557e-07
3.89676e-06
-1.29348e-05
-3.61437e-07
3.75001e-06
-1.23048e-05
-4.43706e-07