/*--------------------------------*- C++ -*----------------------------------*\
| =========                 |                                                 |
| \\      /  F ield         | OpenFOAM: The Open Source CFD Toolbox           |
|  \\    /   O peration     | Version:  v1912                                 |
|   \\  /    A nd           | Website:  www.openfoam.com                      |
|    \\/     M anipulation  |                                                 |
\*---------------------------------------------------------------------------*/
FoamFile
{
    version     2.0;
    format      ascii;
    class       volScalarField;
    location    "408/sphere";
    object      ddt0((betavSolid*thermo:rho),h);
}
// * * * * * * * * * * * * * * * * * * * * * * * * * * * * * * * * * * * * * //

dimensions      [1 -1 -3 0 0 0 0];


internalField   nonuniform List<scalar> 
6600
(
-60143.3
-60154.5
-60153.4
-60178.7
-60147.1
-60146.7
-60154.1
-60228.3
-60244.1
-60198.6
-60153.1
-60243.6
-60259.2
-60215.8
-60192.2
-60215.2
-60179.1
-60153.1
-60177.7
-60147.1
-60153.2
-60243.2
-60259.1
-60215.9
-60175.5
-60258.7
-60274.1
-60231.5
-60154.2
-60144.9
-60214.7
-60230.2
-60203
-60152.3
-60146.4
-60196.9
-60215.9
-60176.1
-60145.5
-60214.6
-60230.8
-60202.8
-60174.2
-60202.3
-60161
-60152.7
-60152.9
-60152.7
-60151.7
-60152.8
-60143.9
-60178.8
-60155.5
-60215.7
-60199.2
-60231.1
-60216.6
-60199
-60230.8
-60215.8
-60154.6
-60144
-60178.6
-60155.2
-60216
-60215.4
-60198.8
-60178.6
-60155
-60154.9
-60144.2
-60151.5
-60151.5
-60151.1
-60150.4
-60147.4
-60150.5
-60151.4
-60147.8
-60150.4
-60151.2
-60147.5
-60151.8
-60158
-60146.5
-60146.3
-60174.8
-60202.2
-60146.4
-60146.6
-60202.4
-60176.3
-60161.3
-60145.9
-60174.6
-60145.6
-60202
-60153.8
-60153.5
-60177.2
-60198
-60215.4
-60215
-60230.2
-60151.6
-60164
-60160.7
-60186.9
-60179.2
-60173.3
-60190.3
-60147
-60176
-60203
-60147.1
-60145.9
-60145.7
-60201.9
-60174.8
-60177.2
-60143
-60154.4
-60215.1
-60229.9
-60198.1
-60215.1
-60155.5
-60155.2
-60144
-60230.8
-60216.5
-60215.7
-60199.4
-60203
-60147.1
-60176.4
-60157.9
-60146.2
-60174.5
-60202.3
-60146.4
-60202.5
-60176.2
-60146.6
-60161.2
-60151.6
-60152.3
-60174.2
-60145.8
-60145.4
-60201.6
-60153.7
-60192.3
-60214.8
-60153.3
-60176.7
-60214.8
-60229.6
-60144
-60215.5
-60199.1
-60177.6
-60154.9
-60230.1
-60215.9
-60179.1
-60146.8
-60202.9
-60146.8
-60150.5
-60192.2
-60153.3
-60214.2
-60153
-60214.4
-60175.5
-60228.7
-60144.2
-60216.2
-60155.7
-60215.7
-60155.3
-60231.4
-60180.4
-60154.2
-60150.5
-60214.3
-60192.2
-60175.5
-60229.3
-60153.1
-60215
-60155.2
-60199.2
-60144.6
-60231.3
-60180.4
-60216.3
-60155.4
-60154.2
-60174.4
-60144.9
-60201.9
-60145.6
-60214.9
-60153.8
-60214.6
-60229.6
-60153.1
-60176.7
-60198.9
-60154.2
-60144
-60230.3
-60216
-60177.7
-60155.3
-60203
-60147.1
-60146.8
-60151.7
-60152.4
-60151.7
-60152.4
-60145.6
-60145
-60201.6
-60174.1
-60176.8
-60214.4
-60229.5
-60153.9
-60192.1
-60215.1
-60154.9
-60230.2
-60215.8
-60154.1
-60143.9
-60215.6
-60198.9
-60203
-60146.9
-60178.9
-60150.5
-60214.3
-60175.5
-60228.8
-60191.9
-60153
-60214.8
-60155.6
-60231.4
-60180.4
-60198.8
-60144.3
-60216
-60155.4
-60154.2
-60150.4
-60229.2
-60153.1
-60214.3
-60152.9
-60215.1
-60192.2
-60180.5
-60216.6
-60155.6
-60216.2
-60155.6
-60199.2
-60144.5
-60201.7
-60145.8
-60174.2
-60229.4
-60153.1
-60176.7
-60191.9
-60214.8
-60153.8
-60216.2
-60177.6
-60155.1
-60215.2
-60198.9
-60154.3
-60143.9
-60147.2
-60146.7
-60179.2
-60151.6
-60157.6
-60146.1
-60174.2
-60202.2
-60145.8
-60202.4
-60176.2
-60146.6
-60161.2
-60174.6
-60145.4
-60201.6
-60145.9
-60215
-60214.2
-60229.7
-60143.1
-60154.3
-60153.5
-60177.1
-60202.8
-60146.8
-60147.1
-60201.6
-60174.2
-60145.8
-60229.9
-60197.3
-60214.9
-60153.7
-60177
-60143.1
-60154.2
-60147.2
-60175.9
-60146.8
-60157.6
-60202.1
-60146.1
-60146.3
-60176
-60146.6
-60146.6
-60145
-60142.6
-60142.2
-60144.5
-60142.9
-60146.3
-60143.2
-60145.7
-60143.2
-60145.8
-60143.1
-60145.3
-60142.8
-60141.6
-60142.1
-60148
-60147.5
-60143.6
-60151.1
-60150.3
-60147.2
-60146
-60143
-60145.1
-60142.8
-60147.8
-60147.6
-60155.2
-60179.5
-60155.9
-60166
-60166
-60151.7
-60165.4
-60161
-60187.3
-60180.2
-60173.3
-60191.5
-60151.3
-60164
-60160.5
-60186.7
-60179.2
-60173.2
-60190.3
-60147.8
-60147.8
-60155.2
-60179.4
-60155.5
-60166
-60165.8
-60151.9
-60165
-60161
-60187.1
-60179.8
-60173.4
-60191.1
-60164.7
-60151.8
-60160.8
-60187
-60179.6
-60191
-60173.5
-60164.4
-60151.5
-60160.7
-60186.7
-60179.2
-60190.4
-60173.2
-60147.8
-60147.7
-60155.1
-60179.5
-60155.9
-60166.3
-60166.2
-60143.1
-60141.7
-60148
-60147.3
-60143.2
-60147.9
-60147.2
-60143.1
-60142.9
-60146.9
-60146.7
-60153.8
-60177.8
-60154.8
-60165.3
-60165
-60146.7
-60152.8
-60144.5
-60161.1
-60184.9
-60150.3
-60178
-60157.8
-60188.7
-60171.9
-60144.6
-60164.5
-60147.7
-60149.6
-60160
-60143.9
-60146
-60152.1
-60144.2
-60147.7
-60163.7
-60159.7
-60149
-60173.3
-60145.3
-60152.8
-60145
-60162.6
-60151.1
-60163
-60186
-60151.3
-60178.6
-60161.9
-60173.1
-60158.9
-60189.4
-60144.7
-60146.7
-60152.9
-60173.2
-60152.3
-60144.5
-60144.9
-60162
-60162.5
-60150.9
-60183.5
-60177.5
-60149.3
-60160.9
-60170.9
-60188.1
-60156.7
-60146.1
-60143.5
-60143.4
-60144.9
-60151.1
-60155.4
-60161.2
-60160.6
-60191.2
-60148.2
-60172.6
-60171.6
-60143.1
-60183.6
-60161.2
-60177.4
-60149.4
-60188.2
-60156.9
-60170.8
-60193.4
-60174.2
-60201
-60170.7
-60197.5
-60166.7
-60196.9
-60148.1
-60164.4
-60143.9
-60149.5
-60160.2
-60183.5
-60177.4
-60160.9
-60149.6
-60188.2
-60170.9
-60156.8
-60146.6
-60143.9
-60191
-60199
-60168.9
-60168.7
-60195.2
-60195
-60162.9
-60152
-60151.9
-60148.4
-60147
-60162.7
-60142.8
-60148.4
-60158.5
-60141.8
-60150.6
-60148.4
-60145.5
-60143.6
-60145.1
-60151.4
-60147.6
-60144.2
-60163.3
-60159.3
-60148.7
-60143.4
-60145.1
-60151.6
-60190.8
-60159.1
-60172.1
-60155
-60159
-60171.5
-60146.8
-60146.7
-60162.5
-60143.5
-60158.9
-60148.1
-60154.1
-60189.8
-60157.5
-60157.4
-60170.6
-60170.6
-60145.9
-60147.5
-60149.1
-60149
-60144.5
-60141.9
-60147.4
-60147.9
-60143.1
-60142.3
-60146.7
-60146.5
-60146.4
-60144.1
-60145.8
-60152.3
-60144.1
-60163.3
-60147.3
-60148.8
-60159.4
-60143.6
-60145.4
-60151.4
-60147.2
-60143.3
-60163.2
-60148.9
-60158.6
-60154.2
-60158.2
-60157.2
-60190.1
-60146.1
-60171.4
-60170
-60143.8
-60163.6
-60159.7
-60147.5
-60148.9
-60146.7
-60152.8
-60144.6
-60147.5
-60144.3
-60163.6
-60148.9
-60159.7
-60144.4
-60146.6
-60152.8
-60159.2
-60190.8
-60171.9
-60155
-60159.1
-60146.9
-60171.5
-60147.7
-60149
-60148.8
-60144.3
-60143.8
-60145.7
-60152.2
-60143.5
-60147.2
-60163.5
-60159.4
-60148.7
-60143.6
-60145
-60150.9
-60154.1
-60157.9
-60157.1
-60190
-60145.9
-60171.2
-60169.8
-60147.1
-60142.9
-60163.1
-60148.7
-60158.6
-60161.8
-60150.5
-60178.4
-60158.1
-60189.4
-60185.2
-60172.3
-60150.3
-60161.2
-60157.8
-60185
-60178
-60172.2
-60188.8
-60144.2
-60164.5
-60159.9
-60147.7
-60149.6
-60159.1
-60190.7
-60171.7
-60154.9
-60158.7
-60146.8
-60171.6
-60144.7
-60146.8
-60152.9
-60147.9
-60144.8
-60164.2
-60149.3
-60160.1
-60147
-60143.3
-60163.4
-60148.7
-60159.2
-60143.6
-60146
-60152
-60147
-60162.8
-60142.8
-60148.4
-60158.2
-60143.3
-60144.8
-60150.9
-60153.8
-60158.3
-60189.9
-60157.1
-60171
-60146
-60169.8
-60169.8
-60170.4
-60200.8
-60192.3
-60164.1
-60196.3
-60196.7
-60177.7
-60146.8
-60146.9
-60154.8
-60153.8
-60164.7
-60165.2
-60162.4
-60185.1
-60150.9
-60178.8
-60158.1
-60189.6
-60172.3
-60165.2
-60152
-60180.3
-60160.9
-60191.5
-60187.3
-60174
-60164.7
-60151.9
-60161
-60187.1
-60179.6
-60190.7
-60173.5
-60147.8
-60147.6
-60155.3
-60179.7
-60155.8
-60166.5
-60166.1
-60144.7
-60146.7
-60153.1
-60147.9
-60164.2
-60144.4
-60149.3
-60159.9
-60155.2
-60159.2
-60191
-60159.4
-60172.3
-60146.8
-60171.7
-60144.6
-60146.7
-60152.9
-60147.3
-60146.8
-60146.5
-60147.4
-60143.5
-60163.5
-60159.3
-60148.9
-60154
-60158.3
-60189.8
-60157.2
-60170.8
-60145.5
-60169.9
-60143.8
-60145.2
-60151.3
-60147.4
-60163.4
-60143.9
-60149
-60159
-60144.6
-60146.6
-60152.8
-60154.8
-60159.1
-60190.7
-60159
-60172
-60146.6
-60171.3
-60147.9
-60163.8
-60144.1
-60149.1
-60159.9
-60144.5
-60146.5
-60152.6
-60147.7
-60149.1
-60149.1
-60144.5
-60142.3
-60142
-60147.6
-60147
-60142.9
-60143.3
-60148.4
-60150.7
-60145.9
-60145.5
-60142.9
-60143.5
-60145.3
-60151.6
-60143.5
-60145.1
-60151.1
-60153.8
-60157.5
-60157.1
-60189.5
-60145.8
-60170.5
-60169.7
-60146.9
-60143.4
-60162.8
-60158.8
-60148.3
-60146.9
-60142.9
-60162.5
-60158.4
-60148.2
-60183.7
-60150.1
-60177.9
-60161.4
-60171.2
-60157.1
-60188.6
-60183.9
-60150.2
-60160.9
-60177.7
-60157
-60172.1
-60188.2
-60191.5
-60169.6
-60169.2
-60200.2
-60163.4
-60196
-60195.7
-60178.8
-60147.5
-60155.9
-60147.6
-60165.9
-60154.4
-60165.9
-60193.5
-60170.7
-60174.2
-60201
-60166.6
-60196.9
-60197.5
-60186.4
-60151.3
-60164.2
-60179.6
-60159.8
-60173.4
-60190.5
-60155.5
-60160.8
-60160.7
-60191.3
-60148.1
-60172.2
-60172.2
-60144.7
-60146.9
-60153.1
-60147.7
-60144.2
-60164
-60159.9
-60149
-60147.8
-60144.3
-60164
-60159.9
-60149.2
-60141.1
-60141.6
-60146.7
-60146.7
-60142.5
-60183.3
-60149.6
-60177.5
-60160.7
-60170.9
-60156.7
-60187.9
-60183.5
-60149.5
-60177.3
-60160.7
-60171.1
-60156.7
-60188
-60191.1
-60168.6
-60168.9
-60199.1
-60163
-60195
-60195.2
-60179.8
-60156
-60148
-60147.9
-60166.4
-60166.4
-60155.3
-60187.6
-60152.2
-60180.2
-60165.7
-60173.9
-60161.5
-60191.8
-60187.3
-60151.8
-60180
-60165.3
-60173.6
-60160.9
-60191.5
-60195.1
-60176
-60176.1
-60203.6
-60169.4
-60199.3
-60199.2
-60146.4
-60143.3
-60146.5
-60143.1
-60151.8
-60151.9
-60148
-60141.7
-60147
-60146.7
-60143
-60141.2
-60173.6
-60144.7
-60152.4
-60144.7
-60162.1
-60150.7
-60162.7
-60191.3
-60169.1
-60199.1
-60168.8
-60195.3
-60163.3
-60195.2
-60183.7
-60149.7
-60161
-60177.6
-60156.6
-60171.4
-60188.1
-60187.4
-60180
-60151.8
-60165.2
-60173.7
-60191.5
-60161.2
-60179.9
-60148.3
-60156.3
-60148
-60166.3
-60155.5
-60166.5
-60195
-60176
-60203.6
-60176.2
-60199.2
-60169.7
-60199.2
-60187.4
-60151.8
-60165.4
-60180
-60161.1
-60173.6
-60191.6
-60151.9
-60152
-60148.3
-60146.3
-60143.4
-60153.8
-60157
-60157.8
-60189.7
-60145.8
-60169.7
-60170.5
-60143.6
-60145.3
-60151.4
-60147.1
-60142.8
-60162.9
-60158.8
-60148.6
-60146.9
-60143.3
-60162.8
-60158.6
-60148.4
-60173.4
-60152.4
-60145
-60144.9
-60162.6
-60162.5
-60151
-60184
-60178.1
-60150
-60161.8
-60171.6
-60188.9
-60157.3
-60183.6
-60149.8
-60177.5
-60160.7
-60171.4
-60156.9
-60188
-60191.7
-60170.1
-60200.2
-60169.4
-60196.3
-60164
-60195.6
-60185.8
-60178.5
-60151
-60162.3
-60172.6
-60189.4
-60158.8
-60178.6
-60155.9
-60147.1
-60147.6
-60165.4
-60165.9
-60154.3
-60193.5
-60170.8
-60200.9
-60174.3
-60197
-60166.6
-60197.5
-60186.4
-60151.5
-60179.8
-60164.7
-60173.2
-60160.1
-60190.8
-60144.7
-60147
-60153.2
-60144.4
-60146.7
-60152.7
-60147.7
-60144.4
-60164
-60159.8
-60149.1
-60147.9
-60143.8
-60164.2
-60159.9
-60149.3
-60143
-60142.2
-60148
-60147.3
-60144
-60148.4
-60150.7
-60146.1
-60145.5
-60142.9
-60142
-60147.4
-60147.9
-60144
-60142.5
-60150.6
-60148.5
-60145.8
-60145.3
-60142.6
-60142.6
-60146.9
-60162.6
-60143
-60148.2
-60158.4
-60146.7
-60162.6
-60142.2
-60148.2
-60158.4
-60143.4
-60145
-60151
-60143.5
-60145.3
-60151.3
-60153.8
-60189.5
-60156.9
-60157.5
-60169.7
-60170.3
-60145.7
-60191.7
-60169.6
-60200.2
-60170
-60195.8
-60164
-60196.2
-60173.3
-60144.7
-60145.1
-60152.3
-60150.9
-60162.2
-60162.6
-60184
-60161.7
-60150.2
-60178.2
-60157.4
-60188.9
-60171.6
-60186.2
-60164.2
-60179.7
-60151.2
-60190.5
-60159.7
-60173
-60185.8
-60162.2
-60151.1
-60178.4
-60158.6
-60189.4
-60172.7
-60178.6
-60147.5
-60147.2
-60155.6
-60154.1
-60165.8
-60165.5
-60148
-60164.1
-60144.8
-60149.3
-60159.9
-60144.5
-60146.6
-60152.8
-60155.2
-60191.1
-60160.9
-60160.4
-60172.2
-60171.6
-60148.1
-60144.4
-60146.7
-60152.9
-60141.8
-60146.8
-60146.7
-60143
-60141.4
-60191.2
-60169
-60199.1
-60168.7
-60195.3
-60163.4
-60195.1
-60173.2
-60144.4
-60152.4
-60144.9
-60162.3
-60150.7
-60162.6
-60183.7
-60160.4
-60149.8
-60177.5
-60156.8
-60187.9
-60171.5
-60187.4
-60180.1
-60165.6
-60152
-60191.6
-60173.8
-60161.4
-60195.1
-60176.2
-60203.5
-60176.1
-60199.2
-60169.9
-60199.2
-60179.8
-60148
-60155.8
-60147.8
-60166.5
-60155.5
-60166.2
-60187.4
-60165.4
-60151.8
-60180
-60161.2
-60191.5
-60173.6
-60152
-60151.9
-60148.4
-60146.2
-60143.5
-60146.7
-60146.5
-60142.6
-60141.2
-60141.3
-60183.3
-60160.7
-60177.5
-60149.6
-60188
-60156.6
-60171
-60183.6
-60160.4
-60177.4
-60149.9
-60187.8
-60156.7
-60172
-60173
-60144.1
-60145
-60152.3
-60150.6
-60162.2
-60162.9
-60195.2
-60203.6
-60176.2
-60176.2
-60199.3
-60199.3
-60169.8
-60187.5
-60165.6
-60180.1
-60152
-60191.7
-60161.2
-60173.5
-60187.5
-60165.5
-60180.2
-60152
-60191.7
-60161.4
-60173.7
-60179.8
-60147.9
-60148.1
-60156.2
-60155.4
-60166.4
-60166.4
-60146.4
-60143.6
-60146.4
-60143.4
-60146.8
-60162.8
-60143.6
-60148.3
-60158.9
-60143.1
-60144.9
-60150.9
-60153.8
-60189.6
-60157.1
-60157.6
-60169.8
-60170.5
-60145.6
-60143.7
-60145.1
-60151.5
-60184
-60177.5
-60160.6
-60150
-60188
-60171.8
-60157.1
-60191.6
-60200.1
-60169.4
-60169.9
-60195.6
-60196.1
-60163.7
-60173.7
-60145.3
-60152.3
-60145
-60163
-60151.3
-60162.3
-60183.8
-60161.5
-60178
-60149.8
-60188.7
-60157.1
-60171.1
-60193.3
-60200.9
-60174.2
-60170.5
-60197.5
-60196.7
-60166.2
-60186.4
-60179.7
-60164.5
-60151.3
-60190.7
-60173.4
-60159.9
-60185.8
-60162.1
-60178.5
-60151.4
-60189.4
-60158.8
-60172.7
-60178.8
-60147.6
-60155.6
-60147.4
-60166
-60154.5
-60165.5
-60147.9
-60164.1
-60144.4
-60149.2
-60159.8
-60147.9
-60164.1
-60144.2
-60149.2
-60159.9
-60155.5
-60191.5
-60161.2
-60160.5
-60172.7
-60171.7
-60148.2
-60144.9
-60146.9
-60153.1
-60144.4
-60146.5
-60152.8
-60147.3
-60147.9
-60143.3
-60142.5
-60145.4
-60142.4
-60142.8
-60146.2
-60146.4
-60146.8
-60147.4
-60143.7
-60163.4
-60159.1
-60148.9
-60153.8
-60157.5
-60189.6
-60157.5
-60170.4
-60145.7
-60170.4
-60143.8
-60145.9
-60151.9
-60163.5
-60142.7
-60147.4
-60148.9
-60159.2
-60144.5
-60146.6
-60152.7
-60190.6
-60158.8
-60171.2
-60154.8
-60159.2
-60172
-60146.8
-60144.3
-60163.7
-60159.7
-60147.5
-60148.9
-60146
-60152.5
-60144.3
-60147.5
-60148.9
-60149
-60144.4
-60153.8
-60157.7
-60189.7
-60157.7
-60170.6
-60145.7
-60170.2
-60146.8
-60143.2
-60162.7
-60158.8
-60148.2
-60143.4
-60145.6
-60151.7
-60143.5
-60146.9
-60162.9
-60158.8
-60148.4
-60146.7
-60146.4
-60153.3
-60177.4
-60154.6
-60164.7
-60164.6
-60162.2
-60178.7
-60150.8
-60189.6
-60158.1
-60185.1
-60172.2
-60150.2
-60161.4
-60157.6
-60184.7
-60177.8
-60171.8
-60188.6
-60144.2
-60146.4
-60152.9
-60147.6
-60144.4
-60164.1
-60159.9
-60149.4
-60146.5
-60152.8
-60144.5
-60144.3
-60164.1
-60159.9
-60147.9
-60149.4
-60143.4
-60145.1
-60151.6
-60153.6
-60189.5
-60157.5
-60157.4
-60170.4
-60170.2
-60145.7
-60143.5
-60146.8
-60162.8
-60148.3
-60158.8
-60143.7
-60145.5
-60151.8
-60161.3
-60150.6
-60157.8
-60184.7
-60177.8
-60188.7
-60171.8
-60146.6
-60146.8
-60153.4
-60177.5
-60154.9
-60164.7
-60164.9
-60162.1
-60178.5
-60150.4
-60189.4
-60157.8
-60184.8
-60172.1
-60148.1
-60164.4
-60144.5
-60160.2
-60149.5
-60190.6
-60158.7
-60171.6
-60155.1
-60158.9
-60171.6
-60146.9
-60144.8
-60147
-60153
-60144.7
-60163.8
-60159.8
-60147.6
-60149.1
-60146.4
-60152.8
-60144.5
-60146.4
-60146
-60146.7
-60144
-60145.2
-60151.3
-60147.2
-60163.1
-60142.9
-60158.6
-60148.8
-60144
-60146.1
-60152.1
-60163.2
-60143.4
-60147.2
-60159
-60148.7
-60190.6
-60158.9
-60171.8
-60154.9
-60159
-60171.3
-60146.8
-60147.7
-60163.4
-60144.1
-60159.4
-60149
-60144.5
-60146.5
-60152.5
-60144.1
-60163.5
-60159.5
-60147.6
-60148.9
-60146.5
-60152.8
-60144.5
-60175.3
-60174.2
-60201.9
-60168.7
-60198.5
-60194.4
-60197.8
-60244
-60243.4
-60258.8
-60243.3
-60258.4
-60258.1
-60273.2
-60228.6
-60259.6
-60244.8
-60258.9
-60243.9
-60274
-60259.5
-60258.5
-60228.2
-60243.5
-60258.8
-60273.3
-60243.8
-60258.5
-60244.4
-60244
-60229.1
-60274.1
-60259.5
-60259.3
-60244.7
-60197.9
-60204.5
-60172.3
-60204.8
-60186.4
-60215.4
-60186.6
-60258.3
-60258
-60273.1
-60228.1
-60243.8
-60243.3
-60258.3
-60244.2
-60274
-60259.5
-60244.5
-60229
-60259.5
-60244.4
-60273.3
-60243.6
-60258.3
-60244
-60258.7
-60228.4
-60243.5
-60259.7
-60259.3
-60244.9
-60259.5
-60244.6
-60244
-60229.1
-60162.2
-60185.8
-60185.8
-60199.2
-60164.9
-60181.8
-60181.6
-60198.7
-60185.6
-60181.4
-60162.1
-60185.9
-60181.5
-60165.1
-60198.3
-60185.3
-60181.2
-60161.8
-60185.3
-60181
-60164.8
-60174.4
-60175.5
-60169.3
-60194.6
-60202
-60197.8
-60198.6
-60174.3
-60175.3
-60169
-60194.3
-60201.8
-60197.7
-60198.3
-60175.2
-60174.3
-60169
-60194.2
-60201.8
-60198.3
-60197.6
-60185.1
-60161.4
-60185.1
-60197.9
-60164.5
-60180.9
-60180.2
-60185.3
-60198.6
-60181.3
-60161.8
-60185.3
-60164.6
-60181.2
-60161.3
-60185.1
-60197.8
-60184.8
-60180.9
-60164.3
-60180.1
-60170.5
-60170
-60200.9
-60164.5
-60196.8
-60192.6
-60196.5
-60186
-60198.8
-60181.5
-60162
-60185.9
-60165.2
-60181.5
-60161.1
-60185.1
-60184.7
-60197.7
-60164.2
-60180.7
-60179.9
-60186
-60162.3
-60185.9
-60198.9
-60165.2
-60181.7
-60181.5
-60161.4
-60185.2
-60197.9
-60185.3
-60180.8
-60164.6
-60180.5
-60162
-60185.4
-60198.5
-60185.5
-60181.4
-60164.8
-60181.2
-60160.9
-60197.4
-60184.7
-60184.5
-60180.4
-60179.9
-60163.9
-60198.1
-60172.7
-60204.6
-60205
-60186.5
-60187
-60215.6
-60162.1
-60198.9
-60185.8
-60185.7
-60181.7
-60181.6
-60165
-60197.8
-60172.4
-60204.5
-60204.5
-60186.2
-60186.4
-60215.4
-60198
-60204.5
-60172.3
-60204.5
-60186.4
-60215.4
-60186.5
-60161.2
-60197.7
-60184.8
-60184.8
-60180.3
-60180.4
-60164.2
-60162.1
-60199
-60185.8
-60185.8
-60181.7
-60181.5
-60164.9
-60160.8
-60184.6
-60184.5
-60197.4
-60163.8
-60179.9
-60180.1
-60197.8
-60204.2
-60172.2
-60204.9
-60186.1
-60215.4
-60186.7
-60162.3
-60186.1
-60185.7
-60198.9
-60165.2
-60181.9
-60181.4
-60197.7
-60204.5
-60172
-60204.6
-60186.3
-60215.2
-60186.6
-60197.9
-60204.5
-60204.9
-60172.6
-60215.5
-60186.3
-60186.9
-60161
-60184.7
-60184.8
-60197.5
-60164.1
-60180.1
-60180.3
-60198
-60204.6
-60204.8
-60172.1
-60215.4
-60186.6
-60186.5
-60185.2
-60161.4
-60185.1
-60197.9
-60180.6
-60164.6
-60180.6
-60198.5
-60185.4
-60181.1
-60161.8
-60185.2
-60181.2
-60164.6
-60161
-60197.6
-60184.7
-60184.6
-60180.4
-60180.2
-60163.9
-60170.6
-60200.7
-60169.8
-60196.8
-60164.3
-60192.4
-60196
-60198.7
-60185.7
-60181.6
-60162.4
-60185.8
-60181.5
-60165.2
-60160.8
-60184.5
-60197.4
-60184.5
-60180.3
-60163.8
-60180.1
-60170.4
-60200.6
-60169.3
-60196.6
-60163.8
-60192
-60195.9
-60185.1
-60161.3
-60197.8
-60185
-60180.4
-60180.5
-60164.5
-60115.3
-60073.3
-60038
-60116.3
-60074
-60038.5
-60116.3
-60074.1
-60038.5
-60117.6
-60075.5
-60039.4
-60117
-60075
-60038.9
-60116.6
-60074.7
-60039.2
-60117.5
-60075.5
-60039.7
-60116.7
-60074.8
-60039.1
-60117
-60074.9
-60039.1
-60117.8
-60075.8
-60039.8
-60117.3
-60075.2
-60039
-60116.5
-60074.5
-60038.5
-60116.8
-60074.9
-60039.1
-60118
-60075.9
-60039.9
-60117.3
-60075.1
-60038.7
-60117.7
-60075.7
-60039.8
-60114.2
-60072.3
-60036.9
-60114.7
-60072.7
-60037.3
-60116.9
-60074.8
-60038.9
-60116.7
-60074.8
-60039
-60116.7
-60074.6
-60039
-60115.7
-60073.7
-60037.9
-60116.1
-60074
-60038.2
-60116.5
-60074.5
-60038.5
-60116.6
-60074.5
-60038.7
-60116.5
-60074.4
-60038.5
-60116.2
-60074.2
-60038.2
-60116.7
-60074.6
-60038.6
-60116.4
-60074.2
-60038.7
-60117
-60074.8
-60039
-60116.6
-60074.4
-60038.9
-60116.7
-60074.5
-60038.9
-60116.8
-60074.5
-60038.9
-60116.1
-60074
-60038
-60116.1
-60074
-60038
-60116.6
-60074.6
-60038.6
-60116
-60074
-60038
-60116.4
-60074.3
-60038.3
-60116.7
-60074.7
-60038.8
-60116
-60074
-60038.1
-60116.7
-60074.6
-60038.6
-60116.3
-60074.2
-60038.2
-60117.1
-60074.9
-60039.1
-60116.8
-60074.7
-60038.9
-60116.5
-60074.4
-60038.8
-60117.4
-60075.2
-60039.4
-60115.9
-60073.8
-60038.2
-60116.1
-60074
-60038.3
-60118
-60076.1
-60039.9
-60117.6
-60075.6
-60039.7
-60117.2
-60075.3
-60039.6
-60117.6
-60075.5
-60039.7
-60116.2
-60074.1
-60038.4
-60116.5
-60074.3
-60038.5
-60116.7
-60074.5
-60038.9
-60116.3
-60074.1
-60038.7
-60117.1
-60075.2
-60039.5
-60117.5
-60075.4
-60039.6
-60116.4
-60074.3
-60038.7
-60116.5
-60074.5
-60038.9
-60117.1
-60075
-60039.2
-60116.7
-60074.8
-60039
-60117.2
-60075.1
-60039.3
-60116.5
-60074.4
-60038.4
-60116.8
-60074.8
-60038.9
-60116.5
-60074.3
-60038.5
-60115.8
-60073.6
-60037.8
-60117
-60074.9
-60039.3
-60116.7
-60074.9
-60039.2
-60116.8
-60074.8
-60039.3
-60115.5
-60073.3
-60037.3
-60118.8
-60076.6
-60040.5
-60118.4
-60076.3
-60040.3
-60117.6
-60075.6
-60039.8
-60115.4
-60073.2
-60037.3
-60116.9
-60074.8
-60039.4
-60117.5
-60075.2
-60039.7
-60118.3
-60076.2
-60040.2
-60117.7
-60075.7
-60039.8
-60114.8
-60072.8
-60037.3
-60115.6
-60073.6
-60038
-60116.1
-60074
-60038.3
-60117.6
-60075.6
-60039.5
-60116.9
-60074.9
-60038.8
-60117
-60074.7
-60039.1
-60116
-60074
-60038.6
-60118.6
-60076.4
-60040.2
-60117.4
-60075.5
-60039.7
-60117.3
-60075.2
-60039.6
-60116.4
-60074.5
-60038.9
-60117
-60075
-60039.3
-60116.5
-60074.5
-60038.6
-60116.9
-60074.8
-60038.9
-60116.5
-60074.5
-60038.5
-60116.8
-60074.8
-60038.9
-60116.2
-60074
-60038.3
-60115
-60072.9
-60037.3
-60117
-60074.8
-60039.1
-60116.8
-60074.5
-60039
-60117
-60075.1
-60039.4
-60117.1
-60075.1
-60039.5
-60115.4
-60073.3
-60037.4
-60116.2
-60074.2
-60038.8
-60117.2
-60075
-60039.3
-60118.3
-60076.1
-60040.1
-60117.6
-60075.6
-60039.8
-60115.2
-60073.1
-60037.1
-60118.8
-60076.7
-60040.6
-60118.7
-60076.5
-60040.4
-60116.6
-60074.5
-60039.1
-60117.3
-60075.1
-60039.5
-60117.7
-60075.5
-60039.8
-60115.9
-60074
-60038.2
-60116.4
-60074.2
-60038.5
-60117.6
-60075.6
-60039.5
-60118.2
-60076.1
-60039.9
-60118.3
-60076.3
-60040.2
-60116.8
-60074.6
-60039.1
-60116
-60074
-60038.6
-60116.7
-60074.5
-60039
-60117.5
-60075.5
-60039.7
-60117
-60075
-60039.3
-60116.7
-60074.6
-60038.7
-60116.4
-60074.4
-60038.8
-60114.9
-60073.2
-60037.8
-60116
-60074
-60038.3
-60116.4
-60074.4
-60038.7
-60117.3
-60075.2
-60039.3
-60115.8
-60073.7
-60038
-60115.8
-60073.9
-60038.2
-60116.6
-60074.4
-60038.6
-60116.6
-60074.7
-60039.1
-60116.9
-60074.8
-60039.2
-60117.4
-60075.4
-60039.7
-60117.7
-60075.6
-60039.7
-60115.7
-60073.8
-60038.3
-60116.4
-60074.2
-60038.5
-60116.1
-60073.8
-60038.3
-60117.8
-60075.7
-60039.8
-60117
-60075
-60039.4
-60116.4
-60074.5
-60038.7
-60116.5
-60074.4
-60038.7
-60116.3
-60074.4
-60038.8
-60116.8
-60074.7
-60038.9
-60117.3
-60075.1
-60039.3
-60117.1
-60075
-60039.2
-60115.3
-60073.4
-60037.7
-60115.7
-60073.7
-60038.5
-60116.4
-60074.2
-60038.3
-60113.4
-60071.7
-60036.4
-60114.4
-60072.5
-60037
-60116.1
-60074
-60038.6
-60116.2
-60074.2
-60038.5
-60115.8
-60073.9
-60038.2
-60116.3
-60074.3
-60038.5
-60116.7
-60074.6
-60038.8
-60114.9
-60073
-60037.4
-60116.2
-60074.2
-60038.5
-60113.1
-60071.4
-60036.2
-60115.2
-60073.3
-60037.7
-60114.6
-60072.8
-60037.3
-60115.7
-60073.7
-60038.2
-60115.6
-60073.8
-60037.8
-60115.7
-60073.8
-60037.8
-60116.4
-60074.4
-60038.5
-60115.9
-60073.8
-60037.8
-60115.6
-60073.8
-60038.1
-60115.9
-60073.7
-60038.2
-60114.3
-60072.5
-60037.1
-60115.7
-60073.5
-60038
-60117.7
-60075.4
-60039.5
-60117.7
-60075.5
-60039.6
-60118
-60075.7
-60039.8
-60117.3
-60075.2
-60039.4
-60117.8
-60075.6
-60039.8
-60117.6
-60075.3
-60039.5
-60114.5
-60072.7
-60037.4
-60117
-60074.9
-60039
-60115.8
-60073.9
-60038
-60113.1
-60071.5
-60036.2
-60115.3
-60073.5
-60037.7
-60115
-60073.2
-60037.3
-60115.5
-60073.7
-60037.7
-60115.1
-60073.2
-60037.3
-60116.2
-60074.1
-60038.5
-60114.1
-60072.3
-60037
-60115.7
-60073.7
-60038.2
-60117.6
-60075.3
-60039.4
-60117.7
-60075.4
-60039.4
-60117.5
-60075.3
-60039.7
-60118.5
-60076.3
-60040.3
-60117.2
-60075
-60039.4
-60117.3
-60075.1
-60039.5
-60116.6
-60074.5
-60039.1
-60117.3
-60075.4
-60039.4
-60118.4
-60076.3
-60040.2
-60116.7
-60074.6
-60039.2
-60116.5
-60074.5
-60039.1
-60117.9
-60075.6
-60039.8
-60117.2
-60075.3
-60039.5
-60117.4
-60075.4
-60039.6
-60118.1
-60076
-60040.2
-60116.5
-60074.2
-60038.7
-60116.3
-60074
-60038.6
-60116.1
-60073.9
-60038.4
-60117
-60074.7
-60039
-60117.8
-60075.5
-60039.6
-60116.2
-60074.2
-60038.8
-60116.2
-60074.2
-60038.8
-60117
-60074.9
-60039.3
-60117.1
-60075.2
-60039.3
-60117.4
-60075.3
-60039.5
-60117.7
-60075.6
-60039.8
-60117.4
-60075.2
-60039.4
-60117
-60075
-60039.4
-60116.2
-60074.2
-60038.8
-60117.4
-60075.3
-60039.5
-60117.9
-60075.9
-60039.9
-60118.1
-60076.2
-60040.2
-60119.5
-60077.3
-60041.1
-60117.3
-60075
-60039.4
-60117.3
-60075.2
-60039.5
-60116.8
-60074.7
-60039.1
-60118
-60075.6
-60039.9
-60118.3
-60075.8
-60040
-60116
-60073.9
-60038.5
-60116.3
-60074.3
-60038.8
-60117.1
-60074.8
-60039.1
-60116.5
-60074.5
-60038.9
-60117.8
-60075.8
-60039.7
-60116.5
-60074.5
-60038.6
-60117.6
-60075.5
-60039.3
-60116.3
-60074.5
-60038.7
-60116.8
-60074.6
-60039.1
-60115.9
-60073.7
-60038.3
-60116
-60073.8
-60038.3
-60115.6
-60073.5
-60038
-60116.6
-60074.4
-60038.8
-60116.6
-60074.5
-60038.9
-60118.1
-60076
-60040.1
-60118
-60075.8
-60040
-60117.2
-60075
-60039.2
-60115.2
-60073.3
-60037.9
-60116.9
-60074.9
-60038.9
-60118.3
-60076.2
-60040.1
-60117.9
-60075.9
-60039.9
-60117.3
-60075.2
-60039.5
-60116.4
-60074.4
-60038.6
-60115.2
-60073.3
-60037.9
-60115.7
-60073.6
-60038.1
-60117.8
-60075.8
-60040.1
-60117.1
-60075.2
-60038.5
-60118.1
-60075.9
-60039.6
-60116.6
-60074.7
-60039
-60116.7
-60074.6
-60039.3
-60117.4
-60075.4
-60039.5
-60117.3
-60075.3
-60039.4
-60116.8
-60074.8
-60038.7
-60116.8
-60074.6
-60038.7
-60114.9
-60072.9
-60037.5
-60114.3
-60072.4
-60037
-60115.9
-60073.7
-60037.9
-60117.1
-60075
-60039.1
-60114.1
-60072.3
-60037
-60115.7
-60073.6
-60038.1
-60116.4
-60074.4
-60038.5
-60116.3
-60074.5
-60038.5
-60117.3
-60075.2
-60039.4
-60116
-60073.8
-60038.3
-60116
-60073.8
-60038.4
-60115.9
-60073.8
-60038.2
-60116.7
-60074.5
-60038.9
-60116.7
-60074.5
-60039
-60117.3
-60075.3
-60039.4
-60117.5
-60075.3
-60039.5
-60116.5
-60074.4
-60039
-60116.7
-60074.7
-60039.1
-60117
-60074.8
-60039.3
-60117.3
-60075.3
-60039.6
-60115.9
-60073.7
-60038.2
-60115.6
-60073.5
-60038
-60115.5
-60073.4
-60037.8
-60116.6
-60074.4
-60038.7
-60116.3
-60074.1
-60038.8
-60118.4
-60076.2
-60040.3
-60117.9
-60075.6
-60039.8
-60117.9
-60075.7
-60039.9
-60116.2
-60074.2
-60038.4
-60116.8
-60074.6
-60038.7
-60115.5
-60073.4
-60037.9
-60115.2
-60073.2
-60037.8
-60116.8
-60074.7
-60038.8
-60116.8
-60074.7
-60038.9
-60117.7
-60075.4
-60039.6
-60117.3
-60075.1
-60039.4
-60117.5
-60075.3
-60039.5
-60118.7
-60076.4
-60040.7
-60118.7
-60076.4
-60040.6
-60118.6
-60076.4
-60040.5
-60119.2
-60077
-60040.9
-60118.4
-60076.3
-60040.4
-60118.8
-60076.6
-60040.6
-60118.4
-60076.2
-60040.2
-60117.2
-60074.9
-60039.5
-60117.2
-60075
-60039.5
-60114.1
-60072.2
-60036.9
-60114.8
-60072.8
-60037.5
-60115.5
-60073.6
-60037.6
-60115.3
-60073.5
-60037.5
-60116.2
-60074.3
-60038.6
-60113.5
-60071.9
-60036.6
-60115.4
-60073.4
-60037.9
-60118
-60075.8
-60039.9
-60117.8
-60075.6
-60039.8
-60117.9
-60075.7
-60039.9
-60117.3
-60075.1
-60039.5
-60117.9
-60075.7
-60039.8
-60117.4
-60075.2
-60039.6
-60116.7
-60074.6
-60038.9
-60116.7
-60074.5
-60038.9
-60116.2
-60074.1
-60038.5
-60117.4
-60075.1
-60039.3
-60116.6
-60074.4
-60038.8
-60117
-60075
-60039.1
-60116.1
-60074
-60038.5
-60116.1
-60073.9
-60038.5
-60116
-60073.9
-60038.4
-60116.8
-60074.7
-60039.1
-60116.7
-60074.8
-60038.9
-60115.5
-60073.4
-60038.1
-60115.6
-60073.6
-60038.2
-60116.6
-60074.4
-60038.8
-60117.2
-60075.2
-60039.3
-60118.2
-60075.8
-60040
-60118.3
-60076
-60040.2
-60117.2
-60075.1
-60039.4
-60117.6
-60075.3
-60039.6
-60116.8
-60074.7
-60039.1
-60117.3
-60075.4
-60039.5
-60116.6
-60074.5
-60039
-60117
-60074.8
-60039.4
-60117.1
-60074.9
-60039.4
-60116.9
-60074.7
-60039.3
-60116.9
-60074.7
-60039.1
-60117.7
-60075.4
-60039.7
-60118.1
-60075.8
-60040
-60118.7
-60076.5
-60040.5
-60118.6
-60076.3
-60040.6
-60118.5
-60076.2
-60040.6
-60118.7
-60076.4
-60040.5
-60118.7
-60076.5
-60040.5
-60118.5
-60076.3
-60040.3
-60116.9
-60074.6
-60039.1
-60116.5
-60074.3
-60038.7
-60116.2
-60074
-60038.6
-60116.1
-60074
-60038.4
-60117
-60074.7
-60039.1
-60115.4
-60073.3
-60038
-60116.7
-60074.7
-60038.8
-60116
-60073.8
-60038.4
-60116.1
-60074
-60038.4
-60116.1
-60074
-60038.4
-60117.1
-60074.8
-60039.2
-60116.7
-60074.7
-60038.8
-60115.3
-60073.3
-60037.8
-60116.4
-60074.4
-60038.9
-60117.3
-60075.4
-60039.5
-60117.3
-60075.3
-60039.5
-60118
-60075.9
-60040.2
-60118.3
-60076.1
-60040.2
-60117.7
-60075.4
-60039.8
-60117.3
-60075.2
-60039.6
-60117.3
-60075.2
-60039.4
-60118.4
-60076
-60040.2
-60117.7
-60075.8
-60039.9
-60116.8
-60074.7
-60039.2
-60116.8
-60074.8
-60039.4
-60116.6
-60074.6
-60038.7
-60115.4
-60073.3
-60037.9
-60116.1
-60073.9
-60038.4
-60116.2
-60074.1
-60038.5
-60116.1
-60073.9
-60038.4
-60115.8
-60073.7
-60038.1
-60117
-60074.7
-60039.1
-60118.2
-60075.9
-60039.9
-60116.7
-60074.7
-60038.7
-60115.5
-60073.4
-60037.8
-60115
-60072.9
-60037.6
-60115.6
-60073.5
-60038
-60115.4
-60073.4
-60038
-60115.5
-60073.4
-60037.9
-60117
-60074.8
-60039
-60116.6
-60074.5
-60039
-60118.2
-60075.9
-60040
-60118
-60075.8
-60039.8
-60117.1
-60075
-60039.3
-60117.1
-60075
-60039.5
-60117.5
-60075.2
-60039.6
-60116.9
-60074.8
-60039.2
-60118.3
-60076
-60040.1
-60117.5
-60075.5
-60039.6
-60116.5
-60074.5
-60039
-60117
-60074.9
-60039.5
-60116.4
-60074.4
-60039
-60117.7
-60075.5
-60039.8
-60118.5
-60076.2
-60040.3
-60117.3
-60075.2
-60039.5
-60117.3
-60075
-60039.5
-60116.7
-60074.6
-60039.1
-60117.8
-60075.5
-60039.8
-60118.2
-60075.9
-60040.1
-60118.4
-60076.2
-60040.3
-60117.8
-60075.6
-60039.8
-60118.5
-60076.2
-60040.3
-60118.5
-60076.3
-60040.3
-60117.9
-60075.7
-60039.8
-60118.1
-60075.9
-60040
-60117.5
-60075.3
-60039.5
-60117
-60075
-60039.1
-60117.2
-60075.1
-60039.3
-60115.3
-60073.3
-60037.9
-60117.6
-60075.5
-60039.7
-60117.1
-60074.9
-60039.1
-60116.3
-60074.1
-60038.6
-60116.3
-60074.2
-60038.6
-60116.1
-60074
-60038.4
-60117.2
-60074.9
-60039.1
-60117.3
-60075.3
-60039.3
-60116.4
-60074.3
-60038.8
-60115.9
-60073.9
-60038.6
-60117.1
-60075
-60039.4
-60117.5
-60075.3
-60039.7
-60116.6
-60074.5
-60039
-60118
-60075.7
-60040
-60117.7
-60075.5
-60039.8
-60118
-60075.8
-60040.1
-60117.7
-60075.7
-60039.7
-60116.4
-60074.3
-60038.9