/*--------------------------------*- C++ -*----------------------------------*\
| =========                 |                                                 |
| \\      /  F ield         | OpenFOAM: The Open Source CFD Toolbox           |
|  \\    /   O peration     | Version:  v1912                                 |
|   \\  /    A nd           | Website:  www.openfoam.com                      |
|    \\/     M anipulation  |                                                 |
\*---------------------------------------------------------------------------*/
FoamFile
{
    version     2.0;
    format      ascii;
    class       surfaceScalarField;
    location    "470/oil";
    object      phi;
}
// * * * * * * * * * * * * * * * * * * * * * * * * * * * * * * * * * * * * * //

dimensions      [1 0 -1 0 0 0 0];
oriented        oriented;


internalField   nonuniform List<scalar> 
104676
(
-1.25512e-11
2.86591e-11
-1.59094e-11
2.85743e-10
-2.34525e-10
-6.37518e-11
8.96133e-10
-4.40507e-10
-1.6989e-10
1.72434e-09
-5.37628e-10
-2.90585e-10
2.64866e-09
-5.49761e-10
-3.74572e-10
3.54746e-09
-4.99905e-10
-3.98899e-10
4.31093e-09
-4.06177e-10
-3.57284e-10
4.84725e-09
-2.82038e-10
-2.54281e-10
5.08495e-09
-1.3791e-10
-9.97768e-11
4.98499e-09
1.32064e-11
8.67493e-11
4.5285e-09
1.69389e-10
2.87103e-10
3.74707e-09
2.96819e-10
4.84611e-10
2.68155e-09
4.12616e-10
6.52897e-10
1.40847e-09
4.9649e-10
7.76578e-10
2.52883e-11
5.40806e-10
8.42365e-10
-1.36216e-09
5.43186e-10
8.44262e-10
-2.63859e-09
4.96888e-10
7.79539e-10
-3.7082e-09
4.12186e-10
6.5743e-10
-4.49701e-09
2.98495e-10
4.90315e-10
-4.95894e-09
1.65673e-10
2.96268e-10
-5.07095e-09
1.42794e-11
9.77306e-11
-4.83832e-09
-1.40847e-10
-9.17775e-11
-4.30614e-09
-2.8442e-10
-2.47756e-10
-3.54576e-09
-4.08394e-10
-3.51981e-10
-2.64947e-09
-5.01699e-10
-3.94587e-10
-1.72692e-09
-5.52503e-10
-3.70046e-10
-8.99234e-10
-5.41756e-10
-2.85923e-10
-2.8851e-10
-4.45224e-10
-1.65499e-10
1.06142e-11
-2.38745e-10
-6.03766e-11
2.43447e-11
-1.37267e-11
2.92331e-10
-5.55967e-10
2.92317e-10
1.12923e-09
-1.67221e-09
6.00805e-10
2.45924e-09
-2.51477e-09
7.4425e-10
4.13452e-09
-3.02834e-09
8.15429e-10
5.9536e-09
-3.27469e-09
9.05847e-10
7.69952e-09
-3.31431e-09
1.06849e-09
9.16725e-09
-3.19901e-09
1.3251e-09
1.01794e-08
-2.96966e-09
1.6755e-09
1.05976e-08
-2.66055e-09
2.10442e-09
1.03334e-08
-2.30259e-09
2.58002e-09
9.34552e-09
-1.92596e-09
3.08323e-09
7.68853e-09
-1.59615e-09
3.54996e-09
5.4863e-09
-1.30609e-09
3.92093e-09
2.87838e-09
-1.09626e-09
4.20066e-09
5.1057e-11
-9.86535e-10
4.35466e-09
-2.78713e-09
-9.8724e-10
4.36861e-09
-5.40182e-09
-1.10145e-09
4.21304e-09
-7.60563e-09
-1.31501e-09
3.93102e-09
-9.24835e-09
-1.60571e-09
3.54693e-09
-1.02385e-08
-1.94185e-09
3.09767e-09
-1.05177e-08
-2.31333e-09
2.60684e-09
-1.01128e-08
-2.66869e-09
2.12299e-09
-9.11717e-09
-2.97474e-09
1.69465e-09
-7.66721e-09
-3.20308e-09
1.34473e-09
-5.93588e-09
-3.3194e-09
1.08637e-09
-4.12979e-09
-3.28143e-09
9.22851e-10
-2.46266e-09
-3.03951e-09
8.30625e-10
-1.1335e-09
-2.52943e-09
7.55043e-10
-2.9378e-10
-1.68411e-09
6.05648e-10
-5.62154e-10
2.92724e-10
6.1576e-10
-1.79337e-09
6.21645e-10
1.95776e-09
-4.34457e-09
1.33036e-09
3.84047e-09
-6.16895e-09
1.77147e-09
6.07878e-09
-7.35988e-09
2.09323e-09
8.44098e-09
-8.04458e-09
2.40769e-09
1.06719e-08
-8.32847e-09
2.78325e-09
1.25222e-08
-8.30239e-09
3.25309e-09
1.37709e-08
-8.04128e-09
3.82288e-09
1.42457e-08
-7.61332e-09
4.47801e-09
1.38362e-08
-7.07582e-09
5.18271e-09
1.24885e-08
-6.49093e-09
5.91272e-09
1.02596e-08
-5.93798e-09
6.57078e-09
7.31076e-09
-5.45313e-09
7.09582e-09
3.83234e-09
-5.09917e-09
7.48132e-09
6.55968e-11
-4.91674e-09
7.69693e-09
-3.71898e-09
-4.92549e-09
7.72283e-09
-7.20779e-09
-5.11138e-09
7.49875e-09
-1.01564e-08
-5.46737e-09
7.10095e-09
-1.23716e-08
-5.94869e-09
6.55821e-09
-1.3736e-08
-6.50646e-09
5.92905e-09
-1.41673e-08
-7.09001e-09
5.208e-09
-1.37084e-08
-7.62348e-09
4.49592e-09
-1.24765e-08
-8.0492e-09
3.84253e-09
-1.06439e-08
-8.30834e-09
3.27262e-09
-8.4292e-09
-8.33584e-09
2.8018e-09
-6.07804e-09
-8.05677e-09
2.42418e-09
-3.8469e-09
-7.37697e-09
2.10633e-09
-1.96541e-09
-6.18964e-09
1.77873e-09
-6.19423e-10
-4.36067e-09
1.33057e-09
-1.80203e-09
6.20459e-10
8.83362e-10
-3.57084e-09
8.94113e-10
2.65048e-09
-8.0409e-09
1.92921e-09
4.9814e-09
-1.11093e-08
2.60946e-09
7.64856e-09
-1.31609e-08
3.13383e-09
1.03971e-08
-1.44294e-08
3.63637e-09
1.29522e-08
-1.50762e-08
4.19264e-09
1.50442e-08
-1.52355e-08
4.84119e-09
1.64314e-08
-1.50184e-08
5.58983e-09
1.6918e-08
-1.45256e-08
6.42569e-09
1.63769e-08
-1.38498e-08
7.31512e-09
1.47448e-08
-1.30845e-08
8.22575e-09
1.20985e-08
-1.23212e-08
9.02949e-09
8.61383e-09
-1.16564e-08
9.68787e-09
4.51214e-09
-1.11441e-08
1.01466e-08
7.40673e-11
-1.08832e-08
1.04045e-08
-4.38766e-09
-1.09017e-08
1.04379e-08
-8.50304e-09
-1.11573e-08
1.01613e-08
-1.19893e-08
-1.16561e-08
9.67504e-09
-1.46232e-08
-1.23244e-08
9.00956e-09
-1.62688e-08
-1.30908e-08
8.22991e-09
-1.68297e-08
-1.38563e-08
7.3272e-09
-1.63609e-08
-1.45304e-08
6.43804e-09
-1.49931e-08
-1.50224e-08
5.60544e-09
-1.29188e-08
-1.52391e-08
4.85652e-09
-1.03809e-08
-1.50825e-08
4.20873e-09
-7.6471e-09
-1.44416e-08
3.651e-09
-4.98685e-09
-1.31809e-08
3.14365e-09
-2.65804e-09
-1.11287e-08
2.61026e-09
-8.89903e-10
-8.04742e-09
1.91861e-09
-3.58276e-09
8.90822e-10
1.08523e-09
-5.75135e-09
1.09527e-09
3.18052e-09
-1.25032e-08
2.36704e-09
5.86262e-09
-1.70173e-08
3.22589e-09
8.86079e-09
-2.00591e-08
3.90004e-09
1.18988e-08
-2.20112e-08
4.54372e-09
1.46886e-08
-2.31077e-08
5.24173e-09
1.69492e-08
-2.35308e-08
6.03466e-09
1.84261e-08
-2.34288e-08
6.93355e-09
1.89144e-08
-2.29355e-08
7.92158e-09
1.82742e-08
-2.21763e-08
8.96664e-09
1.64379e-08
-2.12802e-08
1.0032e-08
1.34851e-08
-2.03594e-08
1.09911e-08
9.59329e-09
-1.95327e-08
1.17681e-08
5.02213e-09
-1.88614e-08
1.22884e-08
7.96795e-11
-1.85219e-08
1.25812e-08
-4.89049e-09
-1.85472e-08
1.26157e-08
-9.47122e-09
-1.88779e-08
1.23014e-08
-1.33574e-08
-1.9509e-08
1.17391e-08
-1.63079e-08
-2.03533e-08
1.09794e-08
-1.81595e-08
-2.12795e-08
1.00404e-08
-1.88199e-08
-2.21768e-08
8.9809e-09
-1.83511e-08
-2.29359e-08
7.93677e-09
-1.68928e-08
-2.34302e-08
6.94946e-09
-1.46492e-08
-2.35331e-08
6.05045e-09
-1.18761e-08
-2.31123e-08
5.25675e-09
-8.85366e-09
-2.20204e-08
4.55637e-09
-5.86609e-09
-2.00753e-08
3.90693e-09
-3.18599e-09
-1.70314e-08
3.22258e-09
-1.09091e-09
-1.24941e-08
2.35156e-09
-5.76602e-09
1.09235e-09
1.22087e-09
-8.20494e-09
1.23273e-09
3.54916e-09
-1.74909e-08
2.65935e-09
6.48652e-09
-2.35958e-08
3.64111e-09
9.72481e-09
-2.77196e-08
4.42226e-09
1.29715e-08
-3.04267e-08
5.16877e-09
1.59298e-08
-3.20415e-08
5.97562e-09
1.83124e-08
-3.27991e-08
6.8857e-09
1.98575e-08
-3.28864e-08
7.9125e-09
2.03529e-08
-3.24681e-08
9.03728e-09
1.96535e-08
-3.16989e-08
1.02221e-08
1.76882e-08
-3.07363e-08
1.14214e-08
1.45114e-08
-2.97349e-08
1.25523e-08
1.03187e-08
-2.87922e-08
1.34521e-08
5.39875e-09
-2.79732e-08
1.40317e-08
7.9644e-11
-2.75456e-08
1.43427e-08
-5.26959e-09
-2.75729e-08
1.4375e-08
-1.01892e-08
-2.8011e-08
1.40527e-08
-1.43676e-08
-2.87459e-08
1.34154e-08
-1.75483e-08
-2.97206e-08
1.2548e-08
-1.9532e-08
-3.0732e-08
1.14363e-08
-2.02542e-08
-3.16953e-08
1.02407e-08
-1.97798e-08
-3.24663e-08
9.05598e-09
-1.82536e-08
-3.2887e-08
7.93062e-09
-1.58882e-08
-3.28011e-08
6.90265e-09
-1.2945e-08
-3.20454e-08
5.9899e-09
-9.71252e-09
-3.04333e-08
5.18042e-09
-6.4859e-09
-2.77291e-08
4.42719e-09
-3.55487e-09
-2.35969e-08
3.63451e-09
-1.22716e-09
-1.7465e-08
2.64321e-09
-8.22434e-09
1.23116e-09
1.28913e-09
-1.08113e-08
1.31723e-09
3.76076e-09
-2.28115e-08
2.84901e-09
6.85904e-09
-3.05894e-08
3.89536e-09
1.02462e-08
-3.58424e-08
4.73561e-09
1.3621e-08
-3.93532e-08
5.55175e-09
1.66834e-08
-4.15437e-08
6.43968e-09
1.91453e-08
-4.27052e-08
7.44428e-09
2.07398e-08
-4.30626e-08
8.5817e-09
2.12513e-08
-4.28097e-08
9.83007e-09
2.05268e-08
-4.21221e-08
1.11477e-08
1.84934e-08
-4.11849e-08
1.2482e-08
1.51696e-08
-4.01783e-08
1.37672e-08
1.07915e-08
-3.92105e-08
1.47964e-08
5.64534e-09
-3.82575e-08
1.54304e-08
8.67322e-11
-3.77494e-08
1.57624e-08
-5.49723e-09
-3.77911e-08
1.58022e-08
-1.06601e-08
-3.83285e-08
1.54804e-08
-1.50222e-08
-3.91546e-08
1.47708e-08
-1.83495e-08
-4.01643e-08
1.3771e-08
-2.04027e-08
-4.11841e-08
1.25053e-08
-2.11499e-08
-4.21219e-08
1.11738e-08
-2.06603e-08
-4.281e-08
9.8541e-09
-1.90849e-08
-4.30654e-08
8.60304e-09
-1.66406e-08
-4.27098e-08
7.46445e-09
-1.35922e-08
-4.15489e-08
6.45505e-09
-1.02309e-08
-3.93578e-08
5.56323e-09
-6.85636e-09
-3.58418e-08
4.73812e-09
-3.77024e-09
-3.05635e-08
3.88046e-09
-1.30479e-09
-2.27489e-08
2.81844e-09
-1.08428e-08
1.31368e-09
1.31469e-09
-1.34711e-08
1.34514e-09
3.82806e-09
-2.82464e-08
2.92151e-09
6.97948e-09
-3.77395e-08
3.99866e-09
1.04174e-08
-4.41444e-08
4.86405e-09
1.38307e-08
-4.84807e-08
5.71422e-09
1.69239e-08
-5.12934e-08
6.65653e-09
1.94134e-08
-5.29279e-08
7.73315e-09
2.10342e-08
-5.36431e-08
8.95972e-09
2.1566e-08
-5.36564e-08
1.03149e-08
2.08529e-08
-5.31623e-08
1.17533e-08
1.88093e-08
-5.23571e-08
1.32158e-08
1.54347e-08
-5.14452e-08
1.46414e-08
1.09741e-08
-5.05655e-08
1.58157e-08
5.73255e-09
-4.95024e-08
1.64864e-08
8.62347e-11
-4.8959e-08
1.6856e-08
-5.59337e-09
-4.90101e-08
1.68986e-08
-1.0872e-08
-4.95753e-08
1.65255e-08
-1.52975e-08
-5.05061e-08
1.57769e-08
-1.8667e-08
-5.14342e-08
1.46395e-08
-2.0729e-08
-5.23604e-08
1.32383e-08
-2.14654e-08
-5.31651e-08
1.17796e-08
-2.09551e-08
-5.36601e-08
1.03397e-08
-1.93527e-08
-5.36503e-08
8.98251e-09
-1.68797e-08
-5.29377e-08
7.7548e-09
-1.38002e-08
-5.13026e-08
6.67422e-09
-1.04009e-08
-4.84831e-08
5.72604e-09
-6.98047e-09
-4.41204e-08
4.85814e-09
-3.8434e-09
-3.76684e-08
3.96777e-09
-1.32894e-09
-2.81444e-08
2.88102e-09
-1.35158e-08
1.34407e-09
1.29188e-09
-1.60838e-08
1.32076e-09
3.74538e-09
-3.35821e-08
2.88224e-09
6.8324e-09
-4.4796e-08
3.96948e-09
1.02108e-08
-5.23588e-08
4.83608e-09
1.35669e-08
-5.75152e-08
5.67838e-09
1.66045e-08
-6.09612e-08
6.63026e-09
1.90558e-08
-6.31225e-08
7.74323e-09
2.06662e-08
-6.42782e-08
9.02483e-09
2.12152e-08
-6.46571e-08
1.04516e-08
2.0544e-08
-6.44683e-08
1.19772e-08
1.85712e-08
-6.39119e-08
1.35276e-08
1.52819e-08
-6.31854e-08
1.50296e-08
1.08474e-08
-6.24545e-08
1.63235e-08
5.65895e-09
-6.13585e-08
1.70445e-08
8.16369e-11
-6.08615e-08
1.74798e-08
-5.53599e-09
-6.09067e-08
1.75142e-08
-1.07759e-08
-6.13858e-08
1.70505e-08
-1.51695e-08
-6.23638e-08
1.62514e-08
-1.84359e-08
-6.31749e-08
1.50071e-08
-2.0423e-08
-6.39186e-08
1.35453e-08
-2.11155e-08
-6.44762e-08
1.20037e-08
-2.05874e-08
-6.46655e-08
1.04773e-08
-1.89956e-08
-6.42904e-08
9.04839e-09
-1.656e-08
-6.31386e-08
7.76533e-09
-1.35375e-08
-6.09705e-08
6.64533e-09
-1.0205e-08
-5.74869e-08
5.67126e-09
-6.85038e-09
-5.22664e-08
4.7914e-09
-3.77168e-09
-4.46502e-08
3.90319e-09
-1.30067e-09
-3.34512e-08
2.83579e-09
-1.61379e-08
1.32146e-09
1.22559e-09
-1.85478e-08
1.23843e-09
3.5414e-09
-3.8604e-08
2.70604e-09
6.42552e-09
-5.14448e-08
3.76465e-09
9.60438e-09
-6.01646e-08
4.62689e-09
1.27884e-08
-6.61444e-08
5.44523e-09
1.56726e-08
-7.02001e-08
6.35468e-09
1.80058e-08
-7.29062e-08
7.45059e-09
1.95531e-08
-7.45612e-08
8.73567e-09
2.0108e-08
-7.5391e-08
1.01792e-08
1.95079e-08
-7.56024e-08
1.17341e-08
1.76755e-08
-7.53941e-08
1.33146e-08
1.45958e-08
-7.49442e-08
1.48385e-08
1.03278e-08
-7.43815e-08
1.61951e-08
5.38457e-09
-7.33933e-08
1.6978e-08
7.562e-11
-7.29918e-08
1.74392e-08
-5.26432e-09
-7.30344e-08
1.74677e-08
-1.02415e-08
-7.33667e-08
1.6958e-08
-1.4486e-08
-7.41994e-08
1.60802e-08
-1.75492e-08
-7.4919e-08
1.48073e-08
-1.93911e-08
-7.5406e-08
1.33293e-08
-2.00118e-08
-7.56151e-08
1.17596e-08
-1.94781e-08
-7.54035e-08
1.02043e-08
-1.79472e-08
-7.45798e-08
8.7585e-09
-1.56269e-08
-7.29286e-08
7.4696e-09
-1.27657e-08
-7.01851e-08
6.35341e-09
-9.61707e-09
-6.60274e-08
5.39188e-09
-6.44716e-09
-5.99693e-08
4.53303e-09
-3.54451e-09
-5.12323e-08
3.67941e-09
-1.22124e-09
-3.84422e-08
2.66781e-09
-1.86039e-08
1.24469e-09
1.10591e-09
-2.07528e-08
1.09911e-09
3.20281e-09
-4.30711e-08
2.37026e-09
5.78721e-09
-5.73482e-08
3.31898e-09
8.61097e-09
-6.71507e-08
4.16237e-09
1.14746e-08
-7.39607e-08
4.9527e-09
1.40855e-08
-7.86047e-08
5.79359e-09
1.62091e-08
-8.18456e-08
6.81578e-09
1.76343e-08
-8.40276e-08
8.04134e-09
1.81701e-08
-8.53533e-08
9.42643e-09
1.76687e-08
-8.60153e-08
1.09144e-08
1.60731e-08
-8.61892e-08
1.23908e-08
1.33421e-08
-8.60039e-08
1.37907e-08
9.41026e-09
-8.55672e-08
1.51174e-08
4.8969e-09
-8.49185e-08
1.60386e-08
6.83211e-11
-8.46831e-08
1.65199e-08
-4.77916e-09
-8.47259e-08
1.6539e-08
-9.26864e-09
-8.48969e-08
1.60198e-08
-1.31285e-08
-8.54768e-08
1.51373e-08
-1.58977e-08
-8.61121e-08
1.39623e-08
-1.75486e-08
-8.62374e-08
1.24823e-08
-1.80762e-08
-8.60345e-08
1.0947e-08
-1.75633e-08
-8.53624e-08
9.44598e-09
-1.61518e-08
-8.40485e-08
8.05727e-09
-1.4036e-08
-8.18689e-08
6.82462e-09
-1.14497e-08
-7.85357e-08
5.76433e-09
-8.61064e-09
-7.37209e-08
4.85444e-09
-5.75049e-09
-6.68747e-08
4.04526e-09
-3.14591e-09
-5.71009e-08
3.26407e-09
-1.07349e-09
-4.28758e-08
2.36118e-09
-2.07841e-08
1.10679e-09
9.31733e-10
-2.25916e-08
9.07021e-10
2.71815e-09
-4.67626e-08
1.90501e-09
4.90166e-09
-6.21527e-08
2.621e-09
7.26969e-09
-7.2859e-08
3.34021e-09
9.62838e-09
-8.04197e-08
4.10023e-09
1.18189e-08
-8.56785e-08
4.88331e-09
1.36296e-08
-8.94411e-08
5.78476e-09
1.48743e-08
-9.21492e-08
6.87687e-09
1.53801e-08
-9.3975e-08
8.11586e-09
1.50118e-08
-9.50539e-08
9.40703e-09
1.36795e-08
-9.55289e-08
1.06721e-08
1.12998e-08
-9.56367e-08
1.20126e-08
7.98083e-09
-9.55256e-08
1.32773e-08
4.16543e-09
-9.52325e-08
1.41292e-08
5.67086e-11
-9.51367e-08
1.45622e-08
-4.08136e-09
-9.51118e-08
1.4524e-08
-7.90322e-09
-9.5081e-08
1.40061e-08
-1.11743e-08
-9.539e-08
1.31844e-08
-1.35105e-08
-9.59066e-08
1.21309e-08
-1.48726e-08
-9.56239e-08
1.07485e-08
-1.52751e-08
-9.50379e-08
9.40592e-09
-1.48026e-08
-9.39374e-08
8.10253e-09
-1.35737e-08
-9.21512e-08
6.87376e-09
-1.17517e-08
-8.94637e-08
5.7729e-09
-9.56169e-09
-8.55653e-08
4.83967e-09
-7.18565e-09
-8.01604e-08
4.0635e-09
-4.8245e-09
-7.26432e-08
3.40737e-09
-2.65669e-09
-6.20395e-08
2.77072e-09
-9.16408e-10
-4.66241e-08
2.00798e-09
-2.26377e-08
9.37132e-10
7.14728e-10
-2.39899e-08
6.83642e-10
2.05879e-09
-4.95632e-08
1.45656e-09
3.74424e-09
-6.58052e-08
1.96706e-09
5.54938e-09
-7.70715e-08
2.40746e-09
7.29908e-09
-8.51225e-08
2.95317e-09
8.92762e-09
-9.0921e-08
3.61389e-09
1.03011e-08
-9.51736e-08
4.35905e-09
1.12943e-08
-9.8348e-08
5.20553e-09
1.17793e-08
-1.00614e-07
6.15413e-09
1.152e-08
-1.01976e-07
7.18191e-09
1.03787e-08
-1.02712e-07
8.32437e-09
8.46596e-09
-1.03222e-07
9.49787e-09
6.06132e-09
-1.03608e-07
1.04872e-08
3.20107e-09
-1.03539e-07
1.11668e-08
4.93571e-11
-1.03478e-07
1.14928e-08
-3.15481e-09
-1.03324e-07
1.14167e-08
-6.07363e-09
-1.03159e-07
1.09974e-08
-8.53065e-09
-1.03224e-07
1.02912e-08
-1.03851e-08
-1.03345e-07
9.29246e-09
-1.14135e-08
-1.02664e-07
8.06801e-09
-1.16636e-08
-1.01799e-07
7.01118e-09
-1.12644e-08
-1.0037e-07
6.03338e-09
-1.03243e-08
-9.82264e-08
5.13508e-09
-8.95791e-09
-9.52088e-08
4.37871e-09
-7.29324e-09
-9.09566e-08
3.72665e-09
-5.48456e-09
-8.51027e-08
3.13362e-09
-3.682e-09
-7.70548e-08
2.60898e-09
-2.02694e-09
-6.57992e-08
2.1047e-09
-7.00159e-10
-4.94718e-08
1.52093e-09
-2.40463e-08
7.0853e-10
4.82718e-10
-2.48883e-08
4.15645e-10
1.30184e-09
-5.12561e-08
8.73812e-10
2.35334e-09
-6.81206e-08
1.26395e-09
3.49458e-09
-7.97909e-08
1.5781e-09
4.61424e-09
-8.81818e-08
1.93959e-09
5.6621e-09
-9.43245e-08
2.35568e-09
6.54199e-09
-9.88513e-08
2.79773e-09
7.13929e-09
-1.02186e-07
3.24098e-09
7.46119e-09
-1.0466e-07
3.72372e-09
7.27284e-09
-1.06222e-07
4.43423e-09
6.52415e-09
-1.07271e-07
5.3082e-09
5.36585e-09
-1.08175e-07
6.1118e-09
3.85077e-09
-1.08833e-07
6.74012e-09
2.04063e-09
-1.08906e-07
7.17647e-09
5.96984e-11
-1.08916e-07
7.41857e-09
-1.95125e-09
-1.08711e-07
7.39732e-09
-3.7947e-09
-1.08467e-07
7.15128e-09
-5.31602e-09
-1.08405e-07
6.70247e-09
-6.50444e-09
-1.08246e-07
6.09038e-09
-7.23527e-09
-1.07215e-07
5.28275e-09
-7.5075e-09
-1.05957e-07
4.43007e-09
-7.29468e-09
-1.04218e-07
3.63553e-09
-6.65027e-09
-1.01897e-07
3.02582e-09
-5.69827e-09
-9.87692e-08
2.60841e-09
-4.59948e-09
-9.43331e-08
2.27768e-09
-3.44529e-09
-8.82121e-08
1.9552e-09
-2.30651e-09
-7.98288e-08
1.63524e-09
-1.26595e-09
-6.81581e-08
1.31828e-09
-4.37699e-10
-5.12506e-08
9.50522e-10
-2.49265e-08
4.42471e-10
1.76228e-10
-2.52056e-08
1.4107e-10
4.52057e-10
-5.1834e-08
3.02067e-10
8.2183e-10
-6.89414e-08
4.51046e-10
1.22795e-09
-8.07604e-08
5.63359e-10
1.6381e-09
-8.92677e-08
6.75784e-10
2.05369e-09
-9.55096e-08
7.69474e-10
2.44019e-09
-1.00089e-07
8.51151e-10
2.67088e-09
-1.03401e-07
9.83745e-10
2.70321e-09
-1.05883e-07
1.19139e-09
2.55741e-09
-1.07564e-07
1.4875e-09
2.32569e-09
-1.08837e-07
1.79776e-09
1.98591e-09
-1.09896e-07
2.0602e-09
1.34666e-09
-1.10432e-07
2.23809e-09
6.68546e-10
-1.10592e-07
2.36428e-09
3.44678e-11
-1.10773e-07
2.49098e-09
-6.71211e-10
-1.10604e-07
2.5985e-09
-1.33141e-09
-1.104e-07
2.59334e-09
-1.85319e-09
-1.10306e-07
2.42302e-09
-2.26416e-09
-1.10033e-07
2.19724e-09
-2.5183e-09
-1.08882e-07
1.92043e-09
-2.62159e-09
-1.07481e-07
1.62799e-09
-2.55704e-09
-1.05629e-07
1.34554e-09
-2.33274e-09
-1.03236e-07
1.11503e-09
-1.99617e-09
-1.00046e-07
9.39779e-10
-1.60499e-09
-9.55184e-08
7.94153e-10
-1.19585e-09
-8.92845e-08
6.63312e-10
-7.9393e-10
-8.07793e-08
5.48612e-10
-4.30769e-10
-6.89627e-08
4.41456e-10
-1.48081e-10
-5.18484e-08
3.15154e-10
-2.52264e-08
1.51776e-10
-1.24576e-10
-2.4944e-08
-1.3703e-10
-3.87227e-10
-5.12948e-08
-2.76526e-10
-7.10341e-10
-6.82413e-08
-3.77075e-10
-1.06392e-09
-7.99371e-08
-4.69691e-10
-1.42857e-09
-8.83472e-08
-5.55833e-10
-1.79501e-09
-9.45258e-08
-6.17298e-10
-2.13701e-09
-9.90832e-08
-6.63541e-10
-2.35425e-09
-1.02429e-07
-7.5433e-10
-2.359e-09
-1.04913e-07
-9.64926e-10
-2.2007e-09
-1.06442e-07
-1.28006e-09
-1.99533e-09
-1.07463e-07
-1.57979e-09
-1.81729e-09
-1.08293e-07
-1.78067e-09
-1.53533e-09
-1.08803e-07
-1.91105e-09
-9.47685e-10
-1.09132e-07
-2.04724e-09
-9.12415e-11
-1.09375e-07
-2.25443e-09
6.12439e-10
-1.08973e-07
-2.33457e-09
1.21831e-09
-1.08766e-07
-2.24051e-09
1.76293e-09
-1.08758e-07
-2.09264e-09
2.06315e-09
-1.0843e-07
-1.90236e-09
2.25594e-09
-1.07396e-07
-1.67876e-09
2.35174e-09
-1.06148e-07
-1.42918e-09
2.29975e-09
-1.04403e-07
-1.17326e-09
2.11971e-09
-1.02083e-07
-9.72614e-10
1.81748e-09
-9.89155e-08
-8.27867e-10
1.46715e-09
-9.44512e-08
-7.16857e-10
1.10372e-09
-8.83094e-08
-6.11668e-10
7.40769e-10
-7.99095e-08
-5.06819e-10
4.11798e-10
-6.82321e-08
-4.01612e-10
1.4838e-10
-5.13061e-08
-2.78946e-10
-2.49481e-08
-1.29873e-10
-4.2225e-10
-2.40954e-08
-4.26298e-10
-1.227e-09
-4.9578e-08
-9.12161e-10
-2.23159e-09
-6.597e-08
-1.26674e-09
-3.33176e-09
-7.72639e-08
-1.57314e-09
-4.43714e-09
-8.5349e-08
-1.8929e-09
-5.4617e-09
-9.12509e-08
-2.25023e-09
-6.31286e-09
-9.55814e-08
-2.65046e-09
-6.91549e-09
-9.87246e-08
-3.10149e-09
-7.19416e-09
-1.01027e-07
-3.60792e-09
-6.97913e-09
-1.02393e-07
-4.26362e-09
-6.26234e-09
-1.03096e-07
-5.08401e-09
-5.22984e-09
-1.03503e-07
-5.82295e-09
-3.82522e-09
-1.03817e-07
-6.39093e-09
-2.05882e-09
-1.04062e-07
-6.8369e-09
-3.76603e-11
-1.0427e-07
-7.12619e-09
1.91478e-09
-1.03826e-07
-7.09935e-09
3.75062e-09
-1.03748e-07
-6.85417e-09
5.35708e-09
-1.03953e-07
-6.41158e-09
6.32116e-09
-1.03594e-07
-5.80077e-09
6.94784e-09
-1.02917e-07
-5.10475e-09
7.22551e-09
-1.02121e-07
-4.30438e-09
7.01805e-09
-1.00727e-07
-3.469e-09
6.41786e-09
-9.85642e-08
-2.91896e-09
5.4997e-09
-9.54445e-08
-2.55281e-09
4.44519e-09
-9.11729e-08
-2.22378e-09
3.35318e-09
-8.53227e-08
-1.89475e-09
2.2573e-09
-7.72529e-08
-1.5607e-09
1.26182e-09
-6.60026e-08
-1.23398e-09
4.58359e-10
-4.96444e-08
-8.58241e-10
-2.40806e-08
-4.09195e-10
-6.90751e-10
-2.27122e-08
-6.92511e-10
-1.99158e-09
-4.67895e-08
-1.48768e-09
-3.6163e-09
-6.22798e-08
-2.06553e-09
-5.38713e-09
-7.29286e-08
-2.56449e-09
-7.15765e-09
-8.04932e-08
-3.08525e-09
-8.77448e-09
-8.59457e-08
-3.68825e-09
-1.00925e-08
-8.98801e-08
-4.38309e-09
-1.10256e-08
-9.26038e-08
-5.18759e-09
-1.14919e-08
-9.44659e-08
-6.09459e-09
-1.12619e-08
-9.55827e-08
-7.04071e-09
-1.01711e-08
-9.60577e-08
-8.12873e-09
-8.36043e-09
-9.60588e-08
-9.25459e-09
-5.99126e-09
-9.59788e-08
-1.02071e-08
-3.16741e-09
-9.59845e-08
-1.09011e-08
-4.16075e-11
-9.61204e-08
-1.12751e-08
3.06848e-09
-9.57459e-08
-1.11903e-08
5.96533e-09
-9.58112e-08
-1.08332e-08
8.47386e-09
-9.63026e-08
-1.0159e-08
1.018e-08
-9.61185e-08
-9.1811e-09
1.12115e-08
-9.58456e-08
-8.10327e-09
1.15239e-08
-9.54149e-08
-7.01869e-09
1.1129e-08
-9.44009e-08
-5.93096e-09
1.01528e-08
-9.25959e-08
-4.99214e-09
8.76868e-09
-8.98494e-08
-4.21106e-09
7.12953e-09
-8.59913e-08
-3.54247e-09
5.39275e-09
-8.06392e-08
-2.94672e-09
3.65713e-09
-7.30923e-08
-2.425e-09
2.05368e-09
-6.24715e-08
-1.92761e-09
7.33617e-10
-4.69689e-08
-1.35541e-09
-2.2693e-08
-6.53976e-10
-9.2196e-10
-2.08746e-08
-9.15671e-10
-2.63388e-09
-4.31067e-08
-1.97089e-09
-4.77613e-09
-5.73875e-08
-2.75015e-09
-7.11452e-09
-6.71944e-08
-3.3958e-09
-9.46328e-09
-7.409e-08
-4.05442e-09
-1.16389e-08
-7.8947e-08
-4.82293e-09
-1.34498e-08
-8.23221e-08
-5.74702e-09
-1.46728e-08
-8.45457e-08
-6.8349e-09
-1.51715e-08
-8.59172e-08
-8.04982e-09
-1.48153e-08
-8.6631e-08
-9.30786e-09
-1.3481e-08
-8.68338e-08
-1.05582e-08
-1.10947e-08
-8.66081e-08
-1.18371e-08
-7.88051e-09
-8.61466e-08
-1.30465e-08
-4.12917e-09
-8.58041e-08
-1.39319e-08
-3.38464e-11
-8.58146e-08
-1.44012e-08
4.05199e-09
-8.55489e-08
-1.42829e-08
7.84076e-09
-8.57609e-08
-1.38391e-08
1.11053e-08
-8.6511e-08
-1.30561e-08
1.34501e-08
-8.66906e-08
-1.17726e-08
1.47999e-08
-8.67891e-08
-1.04063e-08
1.51922e-08
-8.66122e-08
-9.19494e-09
1.47177e-08
-8.59369e-08
-7.98943e-09
1.3494e-08
-8.45806e-08
-6.79163e-09
1.1704e-08
-8.23501e-08
-5.70936e-09
9.53436e-09
-7.90217e-08
-4.79999e-09
7.20079e-09
-7.42957e-08
-4.00984e-09
4.88938e-09
-6.75473e-08
-3.23359e-09
2.73408e-09
-5.78145e-08
-2.5017e-09
9.65979e-10
-4.3435e-08
-1.76581e-09
-2.08619e-08
-8.65173e-10
-1.10152e-09
-1.86825e-08
-1.09053e-09
-3.13768e-09
-3.87353e-08
-2.3353e-09
-5.71339e-09
-5.15474e-08
-3.26436e-09
-8.55552e-09
-6.03078e-08
-4.04455e-09
-1.13915e-08
-6.64149e-08
-4.83909e-09
-1.39784e-08
-7.0623e-08
-5.73705e-09
-1.6095e-08
-7.34137e-08
-6.79174e-09
-1.75102e-08
-7.51158e-08
-8.01453e-09
-1.80385e-08
-7.59939e-08
-9.39488e-09
-1.75396e-08
-7.62561e-08
-1.08738e-08
-1.59437e-08
-7.60857e-08
-1.2344e-08
-1.32039e-08
-7.56461e-08
-1.37019e-08
-9.36312e-09
-7.50341e-08
-1.49534e-08
-4.86075e-09
-7.43539e-08
-1.59527e-08
-2.47571e-11
-7.4127e-08
-1.65238e-08
4.79426e-09
-7.39371e-08
-1.64308e-08
9.28331e-09
-7.43097e-08
-1.59403e-08
1.31201e-08
-7.52491e-08
-1.50987e-08
1.58958e-08
-7.57002e-08
-1.3766e-08
1.75311e-08
-7.6101e-08
-1.23234e-08
1.80476e-08
-7.62737e-08
-1.08549e-08
1.7528e-08
-7.60234e-08
-9.39401e-09
1.61185e-08
-7.51536e-08
-8.01747e-09
1.4014e-08
-7.34544e-08
-6.79116e-09
1.14218e-08
-7.06766e-08
-5.75296e-09
8.56719e-09
-6.65321e-08
-4.90899e-09
5.72962e-09
-6.05522e-08
-4.15748e-09
3.1692e-09
-5.18845e-08
-3.36966e-09
1.1098e-09
-3.89865e-08
-2.38905e-09
-1.86638e-08
-1.0882e-09
-1.22283e-09
-1.62192e-08
-1.24048e-09
-3.53753e-09
-3.3745e-08
-2.67556e-09
-6.43606e-09
-4.49651e-08
-3.68375e-09
-9.60326e-09
-5.26124e-08
-4.52818e-09
-1.27557e-08
-5.78835e-08
-5.37893e-09
-1.56256e-08
-6.14157e-08
-6.3374e-09
-1.79537e-08
-6.36328e-08
-7.45281e-09
-1.94961e-08
-6.48342e-08
-8.73909e-09
-2.00444e-08
-6.52593e-08
-1.01862e-08
-1.94433e-08
-6.51147e-08
-1.17423e-08
-1.76111e-08
-6.45989e-08
-1.33189e-08
-1.4551e-08
-6.3909e-08
-1.47971e-08
-1.03338e-08
-6.31805e-08
-1.60709e-08
-5.32684e-09
-6.23689e-08
-1.6992e-08
-1.64308e-11
-6.18936e-08
-1.75439e-08
5.30528e-09
-6.17728e-08
-1.74861e-08
1.02969e-08
-6.22847e-08
-1.70165e-08
1.44933e-08
-6.32459e-08
-1.61995e-08
1.75745e-08
-6.39297e-08
-1.48516e-08
1.94255e-08
-6.46175e-08
-1.33344e-08
2.00415e-08
-6.51359e-08
-1.17538e-08
1.95029e-08
-6.52867e-08
-1.01982e-08
1.79678e-08
-6.4868e-08
-8.75045e-09
1.56467e-08
-6.3673e-08
-7.46035e-09
1.27792e-08
-6.14621e-08
-6.34693e-09
9.60764e-09
-5.79461e-08
-5.41445e-09
6.40795e-09
-5.27302e-08
-4.62231e-09
3.50317e-09
-4.51576e-08
-3.8221e-09
1.21494e-09
-3.3932e-08
-2.76627e-09
-1.62042e-08
-1.24472e-09
-1.27836e-09
-1.36073e-08
-1.33362e-09
-3.76625e-09
-2.83813e-08
-2.87584e-09
-6.8621e-09
-3.79538e-08
-3.91554e-09
-1.0226e-08
-4.44547e-08
-4.79379e-09
-1.35711e-08
-4.88652e-08
-5.67322e-09
-1.66077e-08
-5.17297e-08
-6.64943e-09
-1.90599e-08
-5.34077e-08
-7.77284e-09
-2.06698e-08
-5.41638e-08
-9.06038e-09
-2.12164e-08
-5.42165e-08
-1.04962e-08
-2.05391e-08
-5.37629e-08
-1.20289e-08
-1.85586e-08
-5.29933e-08
-1.3586e-08
-1.52791e-08
-5.21087e-08
-1.50799e-08
-1.08657e-08
-5.12264e-08
-1.63676e-08
-5.59339e-09
-5.04027e-08
-1.72386e-08
-8.65188e-12
-4.98235e-08
-1.76549e-08
5.59347e-09
-4.97739e-08
-1.7601e-08
1.08435e-08
-5.03502e-08
-1.71845e-08
1.52398e-08
-5.12646e-08
-1.63775e-08
1.85232e-08
-5.21246e-08
-1.50884e-08
2.05163e-08
-5.30086e-08
-1.3602e-08
2.12062e-08
-5.37804e-08
-1.20454e-08
2.06706e-08
-5.42401e-08
-1.05109e-08
1.90697e-08
-5.41932e-08
-9.07395e-09
1.6622e-08
-5.34424e-08
-7.78295e-09
1.35882e-08
-5.17699e-08
-6.65837e-09
1.02401e-08
-4.8912e-08
-5.68606e-09
6.85647e-09
-4.45184e-08
-4.82816e-09
3.7519e-09
-3.80703e-08
-3.9827e-09
1.2892e-09
-2.85496e-08
-2.91969e-09
-1.35877e-08
-1.32729e-09
-1.31873e-09
-1.09322e-08
-1.35636e-09
-3.85373e-09
-2.29407e-08
-2.90563e-09
-7.00994e-09
-3.08176e-08
-3.97997e-09
-1.0449e-08
-3.61454e-08
-4.87018e-09
-1.38694e-08
-3.97038e-08
-5.741e-09
-1.6971e-08
-4.1934e-08
-6.69415e-09
-1.94668e-08
-4.31305e-08
-7.78142e-09
-2.10914e-08
-4.35215e-08
-9.0178e-09
-2.16209e-08
-4.33018e-08
-1.0385e-08
-2.08991e-08
-4.26473e-08
-1.18373e-08
-1.88391e-08
-4.1741e-08
-1.33123e-08
-1.5467e-08
-4.07488e-08
-1.47319e-08
-1.10327e-08
-3.97635e-08
-1.58972e-08
-5.75521e-09
-3.89879e-08
-1.66924e-08
-4.54581e-11
-3.84843e-08
-1.70491e-08
5.63739e-09
-3.84305e-08
-1.70263e-08
1.08936e-08
-3.89245e-08
-1.6682e-08
1.53969e-08
-3.9814e-08
-1.59538e-08
1.88032e-08
-4.07653e-08
-1.47655e-08
2.08733e-08
-4.17479e-08
-1.33306e-08
2.16074e-08
-4.26596e-08
-1.18549e-08
2.10873e-08
-4.33194e-08
-1.04007e-08
1.94708e-08
-4.35452e-08
-9.03142e-09
1.69802e-08
-4.31582e-08
-7.79364e-09
1.38812e-08
-4.19653e-08
-6.70561e-09
1.0461e-08
-3.97399e-08
-5.75179e-09
7.01626e-09
-3.61876e-08
-4.88611e-09
3.84506e-09
-3.0879e-08
-4.02014e-09
1.30605e-09
-2.30448e-08
-2.96587e-09
-1.09219e-08
-1.35972e-09
-1.30711e-09
-8.29906e-09
-1.32607e-09
-3.78943e-09
-1.76213e-08
-2.83707e-09
-6.89795e-09
-2.38106e-08
-3.89842e-09
-1.02985e-08
-2.79854e-08
-4.75942e-09
-1.36878e-08
-3.07249e-08
-5.58958e-09
-1.67651e-08
-3.23681e-08
-6.48863e-09
-1.92371e-08
-3.31526e-08
-7.50589e-09
-2.08385e-08
-3.32656e-08
-8.6545e-09
-2.13499e-08
-3.28707e-08
-9.91972e-09
-2.06135e-08
-3.2126e-08
-1.12576e-08
-1.85558e-08
-3.11861e-08
-1.26125e-08
-1.52398e-08
-3.01829e-08
-1.38819e-08
-1.08769e-08
-2.9233e-08
-1.48934e-08
-5.70183e-09
-2.85257e-08
-1.56373e-08
-5.14105e-11
-2.81327e-08
-1.60021e-08
5.56493e-09
-2.80736e-08
-1.59733e-08
1.07462e-08
-2.84767e-08
-1.56291e-08
1.51671e-08
-2.92768e-08
-1.49581e-08
1.85198e-08
-3.02016e-08
-1.39163e-08
2.05857e-08
-3.1189e-08
-1.26247e-08
2.13307e-08
-3.21327e-08
-1.1272e-08
2.08313e-08
-3.2884e-08
-9.93592e-09
1.92375e-08
-3.32819e-08
-8.66956e-09
1.67703e-08
-3.3173e-08
-7.51794e-09
1.36967e-08
-3.23922e-08
-6.4995e-09
1.03093e-08
-3.07524e-08
-5.60018e-09
6.90598e-09
-2.80141e-08
-4.77007e-09
3.78945e-09
-2.3847e-08
-3.91542e-09
1.29231e-09
-1.76759e-08
-2.8717e-09
-8.30115e-09
-1.32849e-09
-1.23415e-09
-5.82347e-09
-1.24146e-09
-3.58043e-09
-1.26154e-08
-2.65965e-09
-6.53691e-09
-1.7199e-08
-3.65521e-09
-9.79328e-09
-2.02761e-08
-4.45288e-09
-1.30577e-08
-2.22476e-08
-5.21291e-09
-1.60338e-08
-2.33624e-08
-6.02953e-09
-1.84295e-08
-2.38041e-08
-6.95289e-09
-1.99839e-08
-2.37194e-08
-7.99179e-09
-2.048e-08
-2.32425e-08
-9.13205e-09
-1.97663e-08
-2.25e-08
-1.03396e-08
-1.7772e-08
-2.16127e-08
-1.15676e-08
-1.45993e-08
-2.06892e-08
-1.26662e-08
-1.04109e-08
-1.98639e-08
-1.35574e-08
-5.45141e-09
-1.92552e-08
-1.423e-08
-4.46928e-11
-1.89422e-08
-1.45973e-08
5.33238e-09
-1.88943e-08
-1.45564e-08
1.03008e-08
-1.92239e-08
-1.42213e-08
1.45329e-08
-1.98905e-08
-1.36184e-08
1.77372e-08
-2.07044e-08
-1.27014e-08
1.97372e-08
-2.1618e-08
-1.15709e-08
2.04598e-08
-2.25039e-08
-1.03514e-08
1.99739e-08
-2.32503e-08
-9.14777e-09
1.84283e-08
-2.37302e-08
-8.00617e-09
1.60377e-08
-2.38175e-08
-6.96487e-09
1.30649e-08
-2.33791e-08
-6.0403e-09
9.7997e-09
-2.22655e-08
-5.2217e-09
6.54253e-09
-2.02955e-08
-4.46144e-09
3.58444e-09
-1.7224e-08
-3.66494e-09
1.23136e-09
-1.26481e-08
-2.67474e-09
-5.82711e-09
-1.24268e-09
-1.09991e-09
-3.62206e-09
-1.10153e-09
-3.21432e-09
-8.13354e-09
-2.3675e-09
-5.92193e-09
-1.12482e-08
-3.2432e-09
-8.93965e-09
-1.33248e-08
-3.93355e-09
-1.19953e-08
-1.4602e-08
-4.58985e-09
-1.48041e-08
-1.52566e-08
-5.29691e-09
-1.70789e-08
-1.5427e-08
-6.10232e-09
-1.85651e-08
-1.52209e-08
-7.01222e-09
-1.90547e-08
-1.47381e-08
-8.01484e-09
-1.84019e-08
-1.40725e-08
-9.08022e-09
-1.65498e-08
-1.3311e-08
-1.01537e-08
-1.35978e-08
-1.25516e-08
-1.10895e-08
-9.69002e-09
-1.18877e-08
-1.1884e-08
-5.06569e-09
-1.13991e-08
-1.24804e-08
-3.78966e-11
-1.11486e-08
-1.28216e-08
4.96555e-09
-1.11204e-08
-1.27775e-08
9.59041e-09
-1.13809e-08
-1.24679e-08
1.35244e-08
-1.18959e-08
-1.19285e-08
1.65066e-08
-1.25575e-08
-1.1129e-08
1.83727e-08
-1.33149e-08
-1.01693e-08
1.90343e-08
-1.40749e-08
-9.09059e-09
1.85546e-08
-1.47422e-08
-8.02842e-09
1.70761e-08
-1.52268e-08
-7.02491e-09
1.48057e-08
-1.54349e-08
-6.11218e-09
1.19995e-08
-1.52661e-08
-5.30684e-09
8.94397e-09
-1.46128e-08
-4.59715e-09
5.92755e-09
-1.33392e-08
-3.93986e-09
3.22211e-09
-1.12712e-08
-3.24738e-09
1.10247e-09
-8.15815e-09
-2.37032e-09
-3.62456e-09
-1.1001e-09
-8.9912e-10
-1.82508e-09
-8.97885e-10
-2.68633e-09
-4.41439e-09
-1.93197e-09
-5.04307e-09