/*--------------------------------*- C++ -*----------------------------------*\
| =========                 |                                                 |
| \\      /  F ield         | OpenFOAM: The Open Source CFD Toolbox           |
|  \\    /   O peration     | Version:  v1906                                 |
|   \\  /    A nd           | Web:      www.OpenFOAM.com                      |
|    \\/     M anipulation  |                                                 |
\*---------------------------------------------------------------------------*/
FoamFile
{
    version     2.0;
    format      ascii;
    class       volScalarField;
    location    "0.05/oil";
    object      alphat;
}
// * * * * * * * * * * * * * * * * * * * * * * * * * * * * * * * * * * * * * //

dimensions      [1 -1 -1 0 0 0 0];


internalField   nonuniform List<scalar> 
168664
(
0.00346061
0.000321316
0.000381765
0.000102616
9.01518e-05
4.84918e-05
2.9874e-05
2.50397e-05
1.67339e-05
1.62671e-05
1.51558e-05
1.57988e-05
1.53435e-05
1.42152e-05
1.30205e-05
1.22198e-05
1.12264e-05
1.00163e-05
8.94618e-06
7.94349e-06
7.32783e-06
7.23374e-06
7.03816e-06
6.45126e-06
5.41474e-06
4.2613e-06
2.89722e-06
2.16687e-06
1.32927e-06
4.22401e-07
0.00031967
0.000373622
9.19148e-05
7.98852e-05
3.30148e-05
2.9763e-05
1.73543e-05
1.61659e-05
1.16949e-05
1.1646e-05
1.15042e-05
1.20544e-05
1.20065e-05
1.15548e-05
1.08887e-05
1.04308e-05
9.72502e-06
8.80284e-06
7.89935e-06
7.1522e-06
6.78502e-06
6.69611e-06
6.38708e-06
5.88408e-06
5.23351e-06
4.55714e-06
3.74267e-06
3.00424e-06
3.06974e-06
1.65175e-06
0.000379006
9.16774e-05
8.43441e-05
5.73953e-05
3.68642e-05
3.10869e-05
1.95951e-05
1.72648e-05
1.30767e-05
1.23762e-05
1.19684e-05
1.18846e-05
1.16751e-05
1.14221e-05
1.08891e-05
1.04201e-05
9.77338e-06
8.94302e-06
8.05615e-06
7.36827e-06
7.15822e-06
7.16312e-06
7.02744e-06
6.6668e-06
6.07068e-06
5.46302e-06
4.85685e-06
4.50847e-06
5.46261e-06
4.21242e-06
0.000104761
8.17139e-05
5.91553e-05
4.64796e-05
2.95323e-05
2.61089e-05
1.84016e-05
1.67224e-05
1.37162e-05
1.26792e-05
1.18367e-05
1.13226e-05
1.12436e-05
1.10066e-05
1.0391e-05
9.74639e-06
8.98695e-06
8.17615e-06
7.35994e-06
6.80837e-06
6.58491e-06
6.67081e-06
6.76226e-06
6.53608e-06
5.89388e-06
5.23309e-06
4.75878e-06
5.13262e-06
6.36854e-06
5.339e-06
9.06972e-05
3.52942e-05
3.78803e-05
2.95879e-05
2.37416e-05
2.25818e-05
1.78844e-05
1.68319e-05
1.45908e-05
1.36242e-05
1.25926e-05
1.18007e-05
1.16422e-05
1.13544e-05
1.06486e-05
9.84703e-06
9.07241e-06
8.33911e-06
7.83462e-06
7.67582e-06
7.44638e-06
7.47962e-06
7.49202e-06
7.33197e-06
6.84231e-06
6.2887e-06
5.99804e-06
6.63147e-06
8.03043e-06
7.52896e-06
5.65564e-05
3.70624e-05
3.65447e-05
2.91465e-05
2.4245e-05
2.132e-05
1.76303e-05
1.61655e-05
1.43117e-05
1.34295e-05
1.24935e-05
1.15758e-05
1.11214e-05
1.09387e-05
1.01616e-05
9.11978e-06
8.23381e-06
7.48322e-06
7.33088e-06
7.53828e-06
7.30459e-06
7.16925e-06
7.05492e-06
6.94577e-06
6.62164e-06
6.43101e-06
6.41632e-06
7.28523e-06
8.72665e-06
8.54759e-06
3.70538e-05
2.45323e-05
2.43359e-05
2.12839e-05
1.93529e-05
1.8063e-05
1.6032e-05
1.5022e-05
1.37222e-05
1.3084e-05
1.24522e-05
1.16586e-05
1.13805e-05
1.15144e-05
1.06659e-05
9.25814e-06
8.09978e-06
7.23455e-06
7.13082e-06
7.33199e-06
7.07078e-06
6.93927e-06
6.91276e-06
6.95099e-06
6.92664e-06
7.10949e-06
7.44698e-06
8.49543e-06
9.95489e-06
1.02035e-05
3.62691e-05
2.64279e-05
2.52339e-05
2.17956e-05
1.94404e-05
1.74063e-05
1.53421e-05
1.39812e-05
1.26843e-05
1.20265e-05
1.1671e-05
1.13606e-05
1.16386e-05
1.20988e-05
1.12258e-05
9.52054e-06
8.14957e-06
7.08964e-06
6.72154e-06
6.56345e-06
6.23041e-06
6.14259e-06
6.28565e-06
6.59091e-06
7.00403e-06
7.62168e-06
8.28606e-06
9.40196e-06
1.07871e-05
1.13245e-05
2.81443e-05
2.17984e-05
2.07751e-05
1.88207e-05
1.72082e-05
1.55944e-05
1.39063e-05
1.25724e-05
1.13648e-05
1.07454e-05
1.07815e-05
1.12717e-05
1.2201e-05
1.27957e-05
1.20366e-05
1.04065e-05
8.79089e-06
7.29498e-06
6.47213e-06
5.8767e-06
5.49683e-06
5.55631e-06
5.95467e-06
6.59813e-06
7.3979e-06
8.30618e-06
9.2439e-06
1.03616e-05
1.15625e-05
1.23044e-05
2.7736e-05
2.19256e-05
2.07786e-05
1.87998e-05
1.6866e-05
1.48953e-05
1.29927e-05
1.14253e-05
1.0079e-05
9.52548e-06
9.96437e-06
1.10662e-05
1.21796e-05
1.23084e-05
1.17721e-05
1.06506e-05
9.00213e-06
7.31922e-06
6.1149e-06
5.18993e-06
4.79837e-06
5.03158e-06
5.70854e-06
6.55998e-06
7.48861e-06
8.6441e-06
9.85565e-06
1.09223e-05
1.20233e-05
1.29266e-05
2.53714e-05
2.04543e-05
1.93438e-05
1.77102e-05
1.59592e-05
1.42029e-05
1.24463e-05
1.07695e-05
9.3807e-06
9.0187e-06
9.71859e-06
1.09337e-05
1.15183e-05
1.07301e-05
1.02195e-05
9.63774e-06
8.36533e-06
7.07831e-06
5.86506e-06
4.79964e-06
4.60096e-06
5.08258e-06
6.00891e-06
7.0221e-06
8.01221e-06
9.31909e-06
1.06294e-05
1.15139e-05
1.25104e-05
1.34564e-05
2.4867e-05
2.02734e-05
1.90278e-05
1.74946e-05
1.60021e-05
1.45735e-05
1.2948e-05
1.10229e-05
9.31324e-06
8.71549e-06
9.19232e-06
1.00485e-05
9.62855e-06
8.2963e-06
7.79604e-06
7.42444e-06
6.51704e-06
5.98592e-06
5.44525e-06
4.48388e-06
4.50608e-06
5.33321e-06
6.58139e-06
7.8903e-06
9.05346e-06
1.03105e-05
1.14254e-05
1.20755e-05
1.2979e-05
1.40177e-05
2.35275e-05
1.97047e-05
1.87375e-05
1.76925e-05
1.64459e-05
1.51885e-05
1.36525e-05
1.16185e-05
9.66831e-06
8.2624e-06
8.05818e-06
8.07122e-06
7.3008e-06
6.5473e-06
6.37983e-06
6.21117e-06
5.42394e-06
4.79297e-06
4.6812e-06
4.02635e-06
4.16696e-06
5.69684e-06
7.2471e-06
8.58227e-06
9.7699e-06
1.09614e-05
1.1918e-05
1.25682e-05
1.35826e-05
1.49487e-05
2.19055e-05
1.85591e-05
1.77926e-05
1.70665e-05
1.59672e-05
1.47814e-05
1.33665e-05
1.18084e-05
1.02608e-05
8.16605e-06
6.60702e-06
5.47001e-06
5.03389e-06
4.8798e-06
4.91751e-06
5.03794e-06
4.26338e-06
3.42747e-06
3.03409e-06
3.09593e-06
4.09555e-06
6.08068e-06
7.96364e-06
9.28777e-06
1.03906e-05
1.15075e-05
1.25034e-05
1.3246e-05
1.43631e-05
1.61525e-05
2.09819e-05
1.78541e-05
1.70572e-05
1.63164e-05
1.52987e-05
1.41721e-05
1.28227e-05
1.14398e-05
1.00598e-05
7.75558e-06
5.29544e-06
3.55597e-06
3.303e-06
3.97643e-06
4.7199e-06
4.56008e-06
3.61174e-06
2.82032e-06
2.53084e-06
3.04294e-06
4.52054e-06
6.58022e-06
8.53446e-06
9.98246e-06
1.10932e-05
1.21697e-05
1.31878e-05
1.39617e-05
1.50362e-05
1.71281e-05
2.02498e-05
1.72848e-05
1.64297e-05
1.5728e-05
1.48203e-05
1.37938e-05
1.24796e-05
1.09271e-05
9.16084e-06
7.00055e-06
4.8503e-06
3.27173e-06
2.67569e-06
3.69537e-06
5.07721e-06
4.63235e-06
3.32376e-06
2.73801e-06
3.02165e-06
3.87635e-06
5.25336e-06
7.00347e-06
8.71385e-06
1.00762e-05
1.11964e-05
1.22841e-05
1.33151e-05
1.41123e-05
1.50329e-05
1.69832e-05
1.88076e-05
1.6279e-05
1.53834e-05
1.47091e-05
1.38303e-05
1.2788e-05
1.16e-05
1.02074e-05
8.29729e-06
5.97069e-06
3.95984e-06
3.16563e-06
3.38114e-06
4.36446e-06
5.52164e-06
5.21141e-06
4.1845e-06
3.87308e-06
4.62877e-06
5.59314e-06
6.35305e-06
7.60023e-06
8.91015e-06
1.0054e-05
1.11998e-05
1.23815e-05
1.34764e-05
1.41876e-05
1.49741e-05
1.67892e-05
1.75377e-05
1.54606e-05
1.45516e-05
1.38835e-05
1.29836e-05
1.18704e-05
1.06701e-05
9.28679e-06
7.63993e-06
5.52217e-06
4.1773e-06
4.2095e-06
4.10637e-06
4.71267e-06
5.61017e-06
5.35158e-06
4.96535e-06
5.12125e-06
6.06083e-06
6.5519e-06
6.55222e-06
7.61272e-06
8.76013e-06
9.97147e-06
1.12324e-05
1.24108e-05
1.35597e-05
1.44254e-05
1.53825e-05
1.72736e-05
1.65875e-05
1.48852e-05
1.39161e-05
1.31152e-05
1.21067e-05
1.09108e-05
9.6773e-06
8.24166e-06
6.83577e-06
5.61301e-06
5.12564e-06
5.56342e-06
5.65498e-06
5.90761e-06
6.44476e-06
6.00572e-06
6.04111e-06
6.58081e-06
6.92202e-06
6.64108e-06
6.36022e-06
6.71237e-06
7.59355e-06
8.8727e-06
1.00657e-05
1.10685e-05
1.22265e-05
1.35207e-05
1.49136e-05
1.69915e-05
1.55429e-05
1.39707e-05
1.28916e-05
1.1868e-05
1.07183e-05
9.51219e-06
8.45721e-06
7.33317e-06
6.28634e-06
5.5154e-06
5.49248e-06
6.05089e-06
6.78854e-06
7.49056e-06
8.23167e-06
7.98399e-06
8.03382e-06
8.15766e-06
7.46409e-06
6.50351e-06
5.95362e-06
5.98334e-06
6.67031e-06
7.73438e-06
8.81072e-06
9.78131e-06
1.0958e-05
1.23321e-05
1.3764e-05
1.5599e-05
1.43907e-05
1.29839e-05
1.20469e-05
1.08934e-05
9.72026e-06
8.69343e-06
7.80509e-06
6.8454e-06
5.99079e-06
5.49038e-06
5.61451e-06
5.97585e-06
6.76809e-06
7.98139e-06
9.42681e-06
9.92691e-06
1.0006e-05
9.17862e-06
7.89298e-06
6.69027e-06
5.83085e-06
5.71011e-06
6.28642e-06
7.25855e-06
8.19803e-06
9.17011e-06
1.02634e-05
1.14952e-05
1.276e-05
1.39592e-05
1.33603e-05
1.23734e-05
1.15678e-05
1.03806e-05
9.27521e-06
8.4246e-06
7.71901e-06
7.01386e-06
6.41028e-06
6.10232e-06
5.89411e-06
5.62324e-06
6.14499e-06
7.41353e-06
9.15176e-06
1.03507e-05
1.03494e-05
8.89192e-06
7.49256e-06
6.72642e-06
6.25639e-06
6.2025e-06
6.55668e-06
7.17219e-06
7.79463e-06
8.54108e-06
9.40528e-06
1.05727e-05
1.18642e-05
1.26488e-05
1.22129e-05
1.15247e-05
1.05094e-05
9.37388e-06
8.58983e-06
7.96051e-06
7.49316e-06
7.09785e-06
6.8081e-06
6.7255e-06
6.38408e-06
5.69619e-06
5.73999e-06
6.79003e-06
8.249e-06
9.44395e-06
9.33734e-06
8.17013e-06
7.25576e-06
7.16726e-06
6.96486e-06
6.80236e-06
6.82267e-06
7.05844e-06
7.3509e-06
7.83135e-06
8.51512e-06
9.63105e-06
1.09399e-05
1.13625e-05
1.09132e-05
1.04711e-05
9.23471e-06
8.3027e-06
7.84124e-06
7.52717e-06
7.40417e-06
7.34952e-06
7.29333e-06
7.21387e-06
6.7078e-06
6.01097e-06
5.82453e-06
6.4533e-06
7.46828e-06
8.35305e-06
8.33163e-06
7.73896e-06
7.22475e-06
7.42334e-06
7.45127e-06
7.36659e-06
7.22299e-06
7.17998e-06
7.16101e-06
7.27486e-06
7.62924e-06
8.67003e-06
1.00011e-05
1.01515e-05
9.10717e-06
9.10761e-06
7.86944e-06
7.25533e-06
7.02508e-06
6.93902e-06
7.08394e-06
7.3263e-06
7.54206e-06
7.46061e-06
6.78696e-06
6.22422e-06
6.33523e-06
6.73099e-06
7.20131e-06
7.62363e-06
7.86248e-06
7.79469e-06
7.23267e-06
7.15323e-06
7.35781e-06
7.51959e-06
7.38693e-06
7.27121e-06
7.05133e-06
6.8186e-06
6.77168e-06
7.68222e-06
9.03163e-06
8.8282e-06
7.66555e-06
7.92387e-06
6.65493e-06
6.26125e-06
6.43873e-06
6.68594e-06
6.96521e-06
7.3575e-06
7.7268e-06
7.80455e-06
7.1984e-06
6.7646e-06
7.08419e-06
7.443e-06
7.46018e-06
7.45154e-06
7.83663e-06
8.08346e-06
7.44564e-06
7.01263e-06
7.03452e-06
7.3367e-06
7.35974e-06
7.2787e-06
6.92469e-06
6.33085e-06
6.01409e-06
6.77155e-06
8.14917e-06
7.70322e-06
5.72859e-06
6.47275e-06
5.05689e-06
4.89257e-06
5.42333e-06
5.84007e-06
6.27473e-06
6.78092e-06
7.23166e-06
7.49504e-06
7.12848e-06
7.05462e-06
7.47595e-06
7.73151e-06
7.35476e-06
7.07762e-06
7.46243e-06
7.79068e-06
7.40321e-06
6.89102e-06
6.5078e-06
6.50119e-06
6.46804e-06
6.41335e-06
6.06958e-06
5.51085e-06
5.09479e-06
5.57188e-06
6.8359e-06
5.91182e-06
4.31181e-06
5.3981e-06
4.1237e-06
4.55109e-06
5.09558e-06
5.62598e-06
6.2298e-06
6.82475e-06
7.35209e-06
7.67976e-06
7.53539e-06
7.72253e-06
8.13509e-06
8.21812e-06
7.79872e-06
7.43446e-06
7.61729e-06
7.8862e-06
7.81633e-06
7.49e-06
6.87253e-06
6.53116e-06
6.26534e-06
6.19521e-06
5.96675e-06
5.58303e-06
5.00544e-06
4.64029e-06
5.65235e-06
4.55543e-06
1.85504e-06
3.42677e-06
3.05562e-06
3.78749e-06
4.39192e-06
5.15051e-06
5.87624e-06
6.63238e-06
7.35062e-06
7.92246e-06
8.08538e-06
8.21586e-06
8.4241e-06
8.51365e-06
8.44399e-06
8.11338e-06
8.10571e-06
8.25395e-06
8.1837e-06
7.74671e-06
6.96244e-06
6.42467e-06
6.01232e-06
5.78598e-06
5.38461e-06
4.74873e-06
4.00726e-06
3.08174e-06
3.35285e-06
2.03438e-06
9.99283e-07
2.02291e-06
2.98665e-06
3.72061e-06
4.7197e-06
5.63965e-06
6.54389e-06
7.51611e-06
8.48887e-06
9.16643e-06
9.5138e-06
9.56664e-06
9.61313e-06
9.76749e-06
9.71163e-06
9.25334e-06
9.33456e-06
9.70445e-06
9.66671e-06
8.90714e-06
7.83171e-06
7.0719e-06
6.46884e-06
5.99514e-06
5.2036e-06
4.11366e-06
2.76194e-06
1.78434e-06
1.07668e-06
3.62133e-07
0.00031945
0.000383
9.41143e-05
8.22705e-05
3.31914e-05
3.04868e-05
1.73811e-05
1.65115e-05
1.13851e-05
1.10456e-05
1.0237e-05
1.06854e-05
1.09119e-05
1.08639e-05
1.04658e-05
1.01284e-05
9.35283e-06
8.4299e-06
7.76045e-06
7.07547e-06
6.42034e-06
6.266e-06
6.04619e-06
5.78572e-06
5.32269e-06
4.57254e-06
3.70323e-06
2.87728e-06
2.27029e-06
1.28654e-06
0.000379791
7.10275e-05
6.48017e-05
3.03409e-05
1.42834e-05
1.39896e-05
7.70521e-06
7.15197e-06
4.9491e-06
5.02295e-06
4.71646e-06
3.82803e-06
2.70928e-06
2.89871e-06
3.13377e-06
3.08455e-06
3.01615e-06
2.98282e-06
2.65839e-06
2.2811e-06
2.44481e-06
2.94211e-06
3.44557e-06
3.7664e-06
3.74869e-06
3.36711e-06
2.96161e-06
2.5347e-06
3.76009e-06
3.12296e-06
9.15176e-05
6.63625e-05
3.40825e-05
3.37159e-05
1.46137e-05
1.62282e-05
9.05842e-06
8.10178e-06
5.69071e-06
5.88728e-06
6.1244e-06
5.98758e-06
4.40425e-06
3.3819e-06
3.07753e-06
2.79131e-06
2.41303e-06
2.054e-06
1.8429e-06
2.13589e-06
2.66554e-06
3.87424e-06
4.81455e-06
4.89552e-06
4.99454e-06
4.76916e-06
3.95759e-06
3.56472e-06
4.45759e-06
5.53365e-06
8.1963e-05
2.85146e-05
3.18034e-05
2.05897e-05
1.07629e-05
1.16258e-05
6.10456e-06
6.59111e-06
5.21384e-06
5.49957e-06
5.47431e-06
5.71722e-06
4.19043e-06
3.24932e-06
2.85082e-06
2.77232e-06
2.83675e-06
2.2632e-06
2.25191e-06
2.94852e-06
3.9221e-06
4.53829e-06
4.32403e-06
4.14619e-06
4.71922e-06
4.80051e-06
4.1113e-06
3.97912e-06
3.9177e-06
6.46263e-06
3.48495e-05
1.35935e-05
1.20616e-05
1.13672e-05
5.62388e-06
7.71378e-06
4.42684e-06
4.95477e-06
3.97835e-06
3.95912e-06
3.69815e-06
3.90349e-06
2.90656e-06
3.08461e-06
3.09898e-06
3.17645e-06
3.15153e-06
2.48299e-06
2.52853e-06
3.51875e-06
4.10807e-06
3.43111e-06
2.41382e-06
2.40714e-06
3.18425e-06
3.73143e-06
4.01109e-06
4.37913e-06
3.89095e-06
8.18658e-06
3.64513e-05
1.20646e-05
1.42047e-05
1.20003e-05
7.3154e-06
7.49028e-06
4.28209e-06
4.14971e-06
2.97508e-06
2.98141e-06
3.00542e-06
3.07769e-06
2.71276e-06
3.06758e-06
3.2208e-06
3.35883e-06
3.30196e-06
2.81147e-06
3.0089e-06
3.33626e-06
3.06733e-06
2.01513e-06
1.22698e-06
1.32666e-06
1.77727e-06
2.54494e-06
3.41806e-06
4.11629e-06
3.47818e-06
8.87983e-06
2.45125e-05
6.10001e-06
6.89579e-06
6.06922e-06
4.18456e-06
4.78417e-06
3.32743e-06
3.38638e-06
2.72498e-06
2.79513e-06
2.96846e-06
3.22059e-06
2.87162e-06
3.33444e-06
3.68863e-06
3.64292e-06
3.47028e-06
3.35169e-06
3.6723e-06
3.21538e-06
2.49623e-06
1.85845e-06
1.43829e-06
1.26869e-06
1.47916e-06
2.53509e-06
3.47601e-06
4.09163e-06
3.55117e-06
1.00599e-05
2.63444e-05
5.01297e-06
6.84917e-06
6.88551e-06
5.13773e-06
5.06494e-06
3.86831e-06
3.65308e-06
3.03833e-06
2.97387e-06
3.0024e-06
2.96976e-06
2.27687e-06
2.97994e-06
3.62372e-06
3.28494e-06
2.98544e-06
3.18811e-06
3.53543e-06
2.95356e-06
2.2001e-06
1.80412e-06
1.49681e-06
1.30569e-06
1.67646e-06
2.7334e-06
3.43064e-06
3.8829e-06
3.4325e-06
1.0844e-05
2.19158e-05
3.4321e-06
4.12365e-06
4.37769e-06
3.95176e-06
4.12998e-06
3.60209e-06
3.56343e-06
3.28198e-06
3.22731e-06
3.0663e-06
2.40838e-06
1.62694e-06
3.67497e-06
4.62977e-06
3.98963e-06
2.90771e-06
2.50236e-06
3.03381e-06
2.71046e-06
2.17619e-06
1.83434e-06
1.61917e-06
1.67667e-06
2.14459e-06
2.91935e-06
3.22022e-06
3.41874e-06
3.16312e-06
1.16694e-05
2.18515e-05
2.747e-06
3.42831e-06
3.65667e-06
3.60761e-06
3.86134e-06
3.55102e-06
3.58302e-06
3.48709e-06
3.31925e-06
2.93094e-06
2.09968e-06
2.98109e-06
5.33923e-06
6.19868e-06
5.39556e-06
3.98194e-06
2.19039e-06
2.2933e-06
2.40151e-06
2.13882e-06
1.93723e-06
1.92286e-06
2.07525e-06
2.31891e-06
2.66713e-06
2.64003e-06
2.59551e-06
2.67049e-06
1.22656e-05
2.05555e-05
2.34238e-06
2.38858e-06
2.34929e-06
2.36948e-06
2.8357e-06
3.11286e-06
3.52208e-06
3.72838e-06
3.49961e-06
3.21283e-06
3.17175e-06
4.9187e-06
6.7053e-06
7.40799e-06
7.11597e-06
5.98508e-06
3.54616e-06
2.31668e-06
2.26469e-06
2.39289e-06
2.4386e-06
2.49728e-06
2.56239e-06
2.59254e-06
2.61356e-06
2.31017e-06
2.12574e-06
2.30411e-06
1.26059e-05
2.02886e-05
2.18772e-06
1.71668e-06
1.55154e-06
1.57192e-06
2.0809e-06
2.65704e-06
3.31402e-06
3.99822e-06
4.04721e-06
3.73598e-06
4.30959e-06
5.60309e-06
6.15432e-06
6.50155e-06
6.46317e-06
5.67062e-06
4.20702e-06
2.81062e-06
2.41463e-06
2.82185e-06
2.97694e-06
2.9829e-06
2.8462e-06
2.77315e-06
2.69238e-06
2.25309e-06
2.17043e-06
2.1209e-06
1.29773e-05
1.94328e-05
2.13676e-06
1.58036e-06
1.45158e-06
1.33246e-06
1.44524e-06
1.94958e-06
2.63625e-06
3.56168e-06
3.71152e-06
3.62825e-06
5.35948e-06
5.92643e-06
5.88448e-06
5.80734e-06
5.60142e-06
5.10396e-06
4.33124e-06
3.65923e-06
2.37152e-06
2.78282e-06
2.91812e-06
2.67729e-06
2.31812e-06
2.12861e-06
2.12431e-06
1.87225e-06
2.06519e-06
2.15178e-06
1.37059e-05
1.84708e-05
2.0586e-06
1.80884e-06
1.79329e-06
1.76147e-06
1.67009e-06
1.89356e-06
2.39525e-06
3.35413e-06
3.60155e-06
4.32018e-06
5.11428e-06
4.86124e-06
4.73168e-06
4.34062e-06
3.99366e-06
3.35052e-06
3.05023e-06
3.06642e-06
2.45776e-06
2.37557e-06
2.80361e-06
2.44866e-06
1.95773e-06
1.7764e-06
1.85855e-06
1.73875e-06
1.96736e-06
2.24768e-06
1.4549e-05
1.77928e-05
2.12945e-06
1.82073e-06
1.8098e-06
1.80801e-06
1.88474e-06
2.10563e-06
2.54246e-06
3.42295e-06
4.19454e-06
4.58336e-06
4.24853e-06
3.67582e-06
3.41176e-06
3.80657e-06
3.44973e-06
2.82359e-06
2.76008e-06
3.02208e-06
3.26113e-06
3.51804e-06
3.34856e-06
2.48252e-06
1.7695e-06
1.53415e-06
1.61193e-06
1.52575e-06
1.72489e-06
2.20917e-06
1.51323e-05
1.73327e-05
2.46991e-06
2.05916e-06
1.95821e-06
2.02295e-06
2.24504e-06
2.45954e-06
2.85805e-06
3.69794e-06
4.22644e-06
3.91771e-06
3.11666e-06
2.67201e-06
2.79801e-06
3.53915e-06
3.56982e-06
2.84489e-06
2.98593e-06
3.40774e-06
3.91584e-06
3.9573e-06
3.49874e-06
2.43256e-06
1.55073e-06
1.26738e-06
1.43502e-06
1.44545e-06
1.54421e-06
1.87063e-06
1.50025e-05
1.64811e-05
2.48204e-06
2.23143e-06
2.08059e-06
2.19562e-06
2.3829e-06
2.47464e-06
2.90426e-06
3.50941e-06
3.40281e-06
3.35261e-06
3.49372e-06
3.27506e-06
3.50482e-06
4.21643e-06
4.21426e-06
3.71444e-06
3.73306e-06
3.88396e-06
3.56492e-06
3.08369e-06
3.44861e-06
2.39845e-06
1.40481e-06
1.16956e-06
1.51368e-06
1.71585e-06
1.68147e-06
1.80532e-06
1.49275e-05
1.56608e-05
2.52147e-06
2.52256e-06
2.28722e-06
2.41707e-06
2.61058e-06
2.76279e-06
3.11881e-06
3.36325e-06
3.14008e-06
2.92716e-06
3.46889e-06
3.94283e-06
4.25853e-06
4.87121e-06
4.93857e-06
4.86749e-06
4.64835e-06
3.75954e-06
2.41785e-06
3.28147e-06
3.94183e-06
3.09633e-06
2.36005e-06
2.03737e-06
2.02948e-06
2.32857e-06
2.29292e-06
2.36658e-06
1.51196e-05
1.48405e-05
2.76883e-06
2.87978e-06
2.82414e-06
3.10426e-06
3.25447e-06
3.25008e-06
3.38512e-06
3.44503e-06
3.3327e-06
3.21728e-06
2.83409e-06
3.70122e-06
4.58112e-06
5.54529e-06
5.52779e-06
5.27123e-06
4.63154e-06
2.92571e-06
1.96014e-06
3.38389e-06
4.02987e-06
3.53066e-06
2.88093e-06
2.54922e-06
2.46917e-06
2.81226e-06
2.86e-06
2.87749e-06
1.4853e-05
1.40753e-05
2.95982e-06
2.81911e-06
3.10184e-06
3.32356e-06
3.07563e-06
2.76973e-06
2.70232e-06
2.73698e-06
2.66661e-06
2.62109e-06
1.7782e-06
2.60461e-06
4.33433e-06
5.77356e-06
6.05531e-06
5.66656e-06
4.01719e-06
1.93434e-06
2.03139e-06
2.8343e-06
3.2511e-06
3.04307e-06
2.68914e-06
2.61464e-06
2.81577e-06
3.06146e-06
2.82892e-06
2.95604e-06
1.39954e-05
1.34167e-05
3.31329e-06
2.95391e-06
3.49694e-06
3.58955e-06
2.79149e-06
2.20078e-06
2.10468e-06
2.16524e-06
2.29477e-06
2.43045e-06
1.71373e-06
1.13264e-06
2.43e-06
4.16237e-06
5.14358e-06
4.73216e-06
2.47111e-06
1.62921e-06
2.54359e-06
2.66994e-06
2.64522e-06
2.46287e-06
2.3576e-06
2.71237e-06
3.34394e-06
3.48467e-06
3.13738e-06
3.00066e-06
1.27118e-05
1.25321e-05
3.50801e-06
3.59542e-06
4.11237e-06
3.66496e-06
2.63075e-06
1.93761e-06
1.68078e-06
1.76202e-06
2.08236e-06
2.45444e-06
2.54492e-06
1.95584e-06
1.6036e-06
2.5452e-06
3.22856e-06
2.7843e-06
1.59205e-06
2.04873e-06
2.5155e-06
2.28385e-06
2.10898e-06
1.89997e-06
1.90531e-06
2.40875e-06
3.32929e-06
3.8346e-06
3.6877e-06
3.12599e-06
1.171e-05
1.16413e-05
3.49417e-06
4.16798e-06
4.13051e-06
3.20135e-06
2.17093e-06
1.53178e-06
1.28148e-06
1.55104e-06
1.95538e-06
2.49569e-06
3.01782e-06
2.95528e-06
2.93855e-06
3.28484e-06
3.02384e-06
1.97192e-06
2.07303e-06
2.82269e-06
2.72413e-06
2.07307e-06
1.76548e-06
1.52905e-06
1.52116e-06
1.89394e-06
2.95767e-06
3.86064e-06
3.9763e-06
3.31508e-06
1.08602e-05
1.07222e-05
3.50415e-06
4.25773e-06
3.49777e-06
2.54571e-06
1.75315e-06
1.24466e-06
9.72349e-07
1.3348e-06
1.92357e-06
2.62388e-06
2.87522e-06
3.03052e-06
3.66053e-06
3.88966e-06
2.94414e-06
1.88879e-06
2.77593e-06
3.37186e-06
3.3389e-06
2.4411e-06
1.55052e-06
1.23354e-06
1.28763e-06
1.56908e-06
2.54001e-06
3.72081e-06
4.16847e-06
3.43059e-06
9.99075e-06
9.35054e-06
3.59231e-06
4.13831e-06
2.92659e-06
2.0113e-06
1.48887e-06
1.54574e-06
1.49382e-06
1.5947e-06
2.22806e-06
2.91044e-06
2.77391e-06
2.9818e-06
3.8711e-06
3.98584e-06
2.83908e-06
2.33245e-06
3.05131e-06
3.58041e-06
4.13392e-06
3.57843e-06
2.20501e-06
1.48829e-06
1.62275e-06
2.03226e-06
2.90119e-06
3.85856e-06
4.54508e-06
3.72314e-06
9.07325e-06
8.21178e-06
3.53585e-06
3.83507e-06
2.60794e-06
1.99661e-06
1.89947e-06
2.19352e-06
2.39307e-06
2.57672e-06
2.84819e-06
2.87883e-06
2.30333e-06
2.78128e-06
3.54416e-06
3.56109e-06
2.65967e-06
2.35485e-06
2.76981e-06
3.29496e-06
4.1262e-06
4.31108e-06
3.61086e-06
2.87011e-06
2.84578e-06
3.4399e-06
4.07167e-06
4.14445e-06
4.66447e-06
4.0511e-06
8.18518e-06
6.8825e-06
3.75856e-06
3.76942e-06
2.88863e-06
3.06795e-06
3.27292e-06
3.52127e-06
3.82276e-06
4.29451e-06
4.54087e-06
3.8076e-06
2.13468e-06
2.45179e-06
3.18062e-06
3.78863e-06
3.18712e-06
3.01498e-06
3.55759e-06
3.95196e-06
4.60436e-06
4.87455e-06
5.06594e-06
5.16135e-06
5.2804e-06
5.62112e-06
5.50763e-06
4.49928e-06
4.50069e-06
4.42989e-06
6.83796e-06
5.89038e-06
4.22288e-06
3.63331e-06
3.43924e-06
3.67454e-06
3.59467e-06
3.62648e-06
3.76685e-06
4.25355e-06
4.64818e-06
4.05367e-06
2.04525e-06
1.65551e-06
2.65307e-06
3.25404e-06
2.69341e-06
2.38672e-06
3.11855e-06
3.41615e-06
3.49011e-06
3.44176e-06
3.90795e-06
4.67462e-06
5.39539e-06
5.49904e-06
5.01164e-06
3.81105e-06
3.47668e-06
4.47645e-06
5.68127e-06
3.87768e-06
4.31127e-06
3.09457e-06
3.51781e-06
3.35736e-06
3.30537e-06
3.40749e-06
3.6665e-06
4.10177e-06
4.65672e-06
4.42121e-06
3.4982e-06
3.19422e-06
2.95709e-06
2.54944e-06
1.92275e-06
1.81411e-06
2.35229e-06
2.57586e-06
2.59369e-06
2.57405e-06
2.99949e-06
3.39071e-06
3.91329e-06
4.00601e-06
3.56277e-06
3.0496e-06
2.54783e-06
3.82883e-06
3.38568e-06
2.21888e-06
3.15534e-06
3.55007e-06
4.20249e-06
4.76513e-06
5.44463e-06
6.19384e-06
7.11202e-06
8.08607e-06
8.86715e-06
9.04333e-06
8.60776e-06
8.20921e-06
7.84656e-06
7.71696e-06
7.37462e-06
7.45361e-06
7.71257e-06
7.75609e-06
7.61169e-06
6.88889e-06
6.4658e-06
5.95009e-06
5.68737e-06
5.21739e-06
4.41611e-06
3.46209e-06
2.48191e-06
1.97617e-06
1.27675e-06
0.000382775
9.44061e-05
8.41839e-05
5.65659e-05
3.42176e-05
3.09099e-05
1.83889e-05
1.6562e-05
1.10485e-05
1.02747e-05
9.29425e-06
9.56557e-06
9.54819e-06
8.39951e-06
8.0691e-06
7.8313e-06
7.37818e-06
7.29525e-06
6.93147e-06
6.7411e-06
5.92859e-06
5.80811e-06
6.06227e-06
6.35306e-06
6.2308e-06
5.43612e-06
4.49081e-06
3.36417e-06
2.44699e-06
2.00908e-06
9.1757e-05
6.59833e-05
3.47471e-05
3.38697e-05
1.27474e-05
1.40697e-05
7.64132e-06
7.43771e-06
6.03008e-06
5.73482e-06
4.40676e-06
2.92343e-06
2.32164e-06
2.77846e-06
3.11414e-06
2.69414e-06
2.35353e-06
2.6522e-06
2.43669e-06
1.87988e-06
1.11241e-06
1.62998e-06
2.7288e-06
3.20274e-06
3.01062e-06
2.54154e-06
2.17959e-06
2.18581e-06
2.69827e-06
2.78206e-06
8.26309e-05
3.55933e-05
2.43986e-05
2.97886e-05
1.36379e-05
1.48085e-05
7.92514e-06
7.65438e-06
6.62082e-06
7.26663e-06
6.52304e-06
5.05859e-06
4.17455e-06
3.46248e-06
3.52177e-06
3.39807e-06
3.58713e-06
3.49842e-06
3.22874e-06
3.01942e-06
2.91602e-06
3.2059e-06
4.76698e-06
5.28374e-06
4.08495e-06
2.93381e-06
3.18047e-06
4.13495e-06
3.67105e-06
4.68374e-06
5.85711e-05
3.25352e-05
2.85414e-05
2.3806e-05
1.24114e-05
1.24256e-05
6.85587e-06
6.29059e-06
5.06201e-06
6.04453e-06
6.69903e-06
6.34722e-06
5.60024e-06
4.2627e-06
3.69151e-06
3.43974e-06
3.29759e-06
2.98901e-06
3.04358e-06
2.79671e-06
2.12417e-06
4.06492e-06
6.22855e-06
6.31632e-06
5.04292e-06
3.47237e-06
3.32553e-06
4.15686e-06
3.78207e-06
5.56188e-06
3.66803e-05
1.30592e-05
1.18586e-05
1.15577e-05
6.57688e-06
7.97568e-06
5.22167e-06
5.02521e-06
4.19699e-06
5.31005e-06
7.16984e-06
7.03782e-06
5.29113e-06
3.88384e-06
3.36059e-06
3.09104e-06
2.82798e-06
2.788e-06
2.90808e-06
3.06869e-06
4.35866e-06
5.86806e-06
6.27502e-06
6.19457e-06
5.68518e-06
4.39832e-06
4.19195e-06
3.73877e-06
4.143e-06
7.18114e-06
3.6231e-05
1.39713e-05
1.42356e-05
1.21015e-05
7.69893e-06
7.1817e-06
4.51272e-06
3.68218e-06
2.82233e-06
3.58249e-06
4.82186e-06
4.27621e-06
2.76296e-06
2.20584e-06
2.15556e-06
2.26819e-06
2.50272e-06
2.70725e-06
2.11352e-06
2.97905e-06
3.70195e-06
3.48656e-06
2.73223e-06
3.20668e-06
3.94419e-06
4.14328e-06
4.36507e-06
2.89682e-06
3.97776e-06
7.83617e-06
2.46492e-05
6.63605e-06
6.79581e-06
6.14111e-06
4.42925e-06
4.57013e-06
3.09742e-06
2.8598e-06
2.56597e-06
2.99938e-06
3.69511e-06
3.45954e-06
2.30346e-06
2.14267e-06
2.53311e-06
2.51126e-06
2.33067e-06
2.23538e-06
2.32834e-06
2.96678e-06
2.37968e-06
1.61046e-06
9.64393e-07
1.50392e-06
3.05477e-06
4.08524e-06
4.11417e-06
2.48605e-06
4.03737e-06
8.93317e-06
2.53673e-05
5.86205e-06
6.35406e-06
6.74511e-06
5.36036e-06
4.96691e-06
3.62945e-06
3.33625e-06
2.88197e-06
2.88247e-06
3.24168e-06
3.03243e-06
2.09913e-06
2.33638e-06
2.38416e-06
1.9e-06
1.43823e-06
1.88689e-06
2.7749e-06
2.78088e-06
1.78509e-06
1.31945e-06
1.05099e-06
1.28598e-06
2.75417e-06
3.54949e-06
3.45694e-06
2.2624e-06
3.80786e-06
9.69185e-06
2.09006e-05
3.88108e-06
3.49243e-06
3.69099e-06
3.69852e-06
4.15799e-06
3.58178e-06
3.39717e-06
3.0735e-06
2.93692e-06
3.06597e-06
2.343e-06
2.22244e-06
2.90647e-06
2.40989e-06
1.40601e-06
1.09378e-06
1.17927e-06
2.18208e-06
2.50046e-06
1.86171e-06
1.55366e-06
1.4052e-06
1.73416e-06
2.6256e-06
2.97584e-06
3.02179e-06
2.24469e-06
3.46709e-06
1.06177e-05
2.01628e-05
3.60186e-06
3.17379e-06
2.80988e-06
2.65754e-06
3.33335e-06
3.4234e-06
3.31685e-06
3.06772e-06
2.75752e-06
2.73414e-06
2.3579e-06
3.19628e-06
3.87501e-06
4.07077e-06
3.11343e-06
2.63109e-06
2.39282e-06
1.68307e-06
1.96503e-06
1.68416e-06
1.59273e-06
1.72472e-06
2.10377e-06
2.31625e-06
2.25242e-06
2.18546e-06
1.58999e-06
2.92878e-06
1.14528e-05
1.8826e-05
3.06317e-06
2.47883e-06
2.42656e-06
1.8841e-06
2.12129e-06
2.86415e-06
3.4039e-06
3.4758e-06
3.06609e-06
3.64483e-06
4.4757e-06
5.54102e-06
6.28607e-06
6.87721e-06
6.34614e-06
5.54377e-06
4.50583e-06
3.37574e-06
2.66931e-06
2.14211e-06
2.07837e-06
2.2043e-06
2.24755e-06
1.94248e-06
1.73171e-06
1.60991e-06
1.24127e-06
2.43479e-06
1.19152e-05
1.86325e-05
2.61484e-06
1.84124e-06
1.85821e-06
1.3697e-06
1.29593e-06
2.2932e-06
3.13673e-06
3.38493e-06
3.71245e-06
4.99023e-06
5.30019e-06
6.54339e-06
7.24742e-06
7.7998e-06
7.81687e-06
6.6733e-06
5.23969e-06
4.10016e-06
3.63996e-06
2.78208e-06
2.32146e-06
2.0893e-06
1.99167e-06
1.76109e-06
1.69583e-06
1.67193e-06
1.35887e-06
1.88666e-06
1.22837e-05
1.81119e-05
2.11589e-06
1.38088e-06
1.42204e-06
1.23659e-06
1.13412e-06
1.88504e-06
2.94387e-06
2.86088e-06
4.00797e-06
5.54483e-06
6.34273e-06
8.01163e-06
8.56081e-06
8.74812e-06
8.57268e-06
7.77428e-06
6.60963e-06
5.23563e-06
4.22409e-06
3.26824e-06
1.84832e-06
1.60757e-06
1.5508e-06
1.37168e-06
1.36327e-06
1.40168e-06
1.08994e-06
1.83046e-06
1.29478e-05
1.7454e-05
2.08129e-06
1.34035e-06
1.34434e-06
1.3902e-06
1.46673e-06
2.0164e-06
2.97892e-06
3.05627e-06
3.71378e-06
5.05665e-06
6.59959e-06
7.56902e-06
8.19019e-06
8.15526e-06
7.99442e-06
7.08236e-06
6.41138e-06
5.64642e-06
3.99354e-06
3.21887e-06
2.17824e-06
1.4935e-06
1.37103e-06
1.36541e-06
1.32585e-06
1.08628e-06
6.14692e-07
1.91457e-06
1.36091e-05
1.66648e-05
2.39137e-06
1.38783e-06
1.38636e-06
1.42942e-06
1.65345e-06
1.95166e-06
2.26712e-06
3.10769e-06
4.40258e-06
5.5638e-06
6.02197e-06
5.89379e-06
6.46402e-06
7.4683e-06
7.52703e-06
6.49689e-06
5.97489e-06
5.87951e-06
5.25693e-06
4.39294e-06
2.986e-06
1.90502e-06
1.3531e-06
1.30591e-06
1.1514e-06
8.24396e-07
4.9801e-07
1.91197e-06
1.40664e-05
1.61363e-05
2.68357e-06
1.24178e-06
1.29463e-06
1.47513e-06
1.83478e-06
2.02255e-06
2.35511e-06
3.43724e-06
4.76061e-06
5.44715e-06
5.47612e-06
5.11636e-06
5.79266e-06
7.05211e-06
7.22967e-06
6.27907e-06
5.83203e-06
6.09311e-06
5.6267e-06
4.58724e-06
3.22162e-06
1.95241e-06
1.41167e-06
1.40616e-06
1.24058e-06
1.05253e-06
7.19237e-07
1.71748e-06
1.3983e-05
1.54647e-05
2.76033e-06
1.22991e-06
1.51122e-06
1.57746e-06
1.91975e-06
1.99547e-06
2.11253e-06
2.88281e-06
3.82476e-06
4.65817e-06
5.9391e-06
6.23068e-06
7.02836e-06
7.91757e-06
8.04796e-06
7.66097e-06
6.59977e-06
6.15844e-06
4.38607e-06
3.97638e-06
2.80733e-06
1.57145e-06
1.32987e-06
1.23039e-06
1.07947e-06
1.40402e-06
1.21006e-06
1.64295e-06
1.40029e-05
1.48435e-05
2.76956e-06
1.7082e-06
1.86854e-06
1.54185e-06
1.77759e-06
2.06307e-06
2.19246e-06
2.53925e-06
3.78295e-06
4.795e-06
5.36252e-06
6.28236e-06
7.24964e-06
8.13911e-06
8.42535e-06
7.79511e-06
6.45161e-06
5.34593e-06
4.08053e-06
3.96948e-06
2.44778e-06
2.02315e-06
1.81731e-06
1.19921e-06
1.05401e-06
2.08557e-06
2.05502e-06
2.31641e-06
1.39377e-05
1.38531e-05
2.90986e-06
1.94328e-06
1.92961e-06
2.00571e-06
2.45931e-06
2.73517e-06
2.73875e-06
2.93418e-06
3.39649e-06
4.20025e-06
4.4498e-06
5.00935e-06
6.40642e-06
7.92408e-06
8.3941e-06
7.1812e-06
5.73754e-06
4.69053e-06
4.08978e-06
3.56106e-06
3.16401e-06
2.50748e-06
2.07205e-06
1.50613e-06
1.38439e-06
2.16363e-06
2.05891e-06
2.88983e-06
1.34365e-05
1.2862e-05
3.10544e-06
1.92331e-06
1.74355e-06
2.53976e-06
3.00974e-06
2.68594e-06
2.43058e-06
2.39579e-06
2.41823e-06
2.7659e-06
3.25301e-06
3.66173e-06
4.83859e-06
6.5133e-06
7.64412e-06
6.69121e-06
5.24721e-06
3.92251e-06
3.15708e-06
2.86321e-06
2.86236e-06
2.53864e-06
2.38138e-06
2.43851e-06
2.13799e-06
1.97172e-06
1.66689e-06
3.16299e-06
1.24649e-05
1.21693e-05
3.54677e-06
2.26856e-06
1.93737e-06
3.32043e-06
3.65138e-06
2.57989e-06
1.91514e-06
1.85887e-06
1.86954e-06
2.00632e-06
1.759e-06
2.12719e-06
3.13585e-06
3.85565e-06
4.9442e-06
4.61671e-06
3.88813e-06
2.46022e-06
2.37157e-06
2.42537e-06
2.35732e-06
2.17223e-06
2.58878e-06
3.43228e-06
3.13031e-06
2.05933e-06
1.3878e-06
3.06112e-06
1.11512e-05
1.12175e-05
3.5832e-06
2.19565e-06
3.01737e-06
4.17567e-06
3.64355e-06
2.35535e-06
1.77671e-06
1.65923e-06
1.68511e-06
2.15435e-06
2.49544e-06
1.60072e-06
1.98033e-06
3.08081e-06
3.24824e-06
2.78068e-06
2.85053e-06
2.05168e-06
2.11192e-06