/*--------------------------------*- C++ -*----------------------------------*\
| =========                 |                                                 |
| \\      /  F ield         | OpenFOAM: The Open Source CFD Toolbox           |
|  \\    /   O peration     | Version:  v1906                                 |
|   \\  /    A nd           | Web:      www.OpenFOAM.com                      |
|    \\/     M anipulation  |                                                 |
\*---------------------------------------------------------------------------*/
FoamFile
{
    version     2.0;
    format      ascii;
    class       surfaceScalarField;
    location    "34";
    object      phi;
}
// * * * * * * * * * * * * * * * * * * * * * * * * * * * * * * * * * * * * * //

dimensions      [1 0 -1 0 0 0 0];
oriented        oriented;


internalField   nonuniform List<scalar> 
228225
(
-5.98069e-09
8.51538e-09
-2.7649e-09
-2.1694e-08
2.41359e-08
-8.41997e-09
-4.45218e-08
3.30809e-08
-1.02542e-08
-7.34701e-08
4.01318e-08
-1.11833e-08
-1.0726e-07
4.55646e-08
-1.17765e-08
-1.44403e-07
4.93791e-08
-1.2233e-08
-1.8355e-07
5.1774e-08
-1.2628e-08
-2.23331e-07
5.27984e-08
-1.30168e-08
-2.62582e-07
5.26748e-08
-1.34253e-08
-3.00241e-07
5.15593e-08
-1.38999e-08
-3.35488e-07
4.97118e-08
-1.44624e-08
-3.67606e-07
4.72645e-08
-1.51479e-08
-3.9603e-07
4.43843e-08
-1.59621e-08
-4.20228e-07
4.11173e-08
-1.69156e-08
-4.39828e-07
3.75906e-08
-1.79942e-08
-4.54504e-07
3.38795e-08
-1.92034e-08
-4.64133e-07
3.00842e-08
-2.0455e-08
-4.68582e-07
2.6232e-08
-2.17847e-08
-4.67828e-07
2.24029e-08
-2.3155e-08
-4.61931e-07
1.86272e-08
-2.45252e-08
-4.51018e-07
1.49495e-08
-2.58607e-08
-4.35281e-07
1.13924e-08
-2.71312e-08
-4.1496e-07
7.98549e-09
-2.83046e-08
-3.90356e-07
4.74599e-09
-2.93519e-08
-3.61807e-07
1.69601e-09
-3.02445e-08
-3.29702e-07
-1.14711e-09
-3.09561e-08
-2.94479e-07
-3.7643e-09
-3.14612e-08
-2.56617e-07
-6.12437e-09
-3.17337e-08
-2.1668e-07
-8.19427e-09
-3.17467e-08
-1.7529e-07
-9.92487e-09
-3.14633e-08
-1.33219e-07
-1.12515e-08
-3.08192e-08
-9.14935e-08
-1.20662e-08
-2.96611e-08
-5.17537e-08
-1.21683e-08
-2.75706e-08
-1.72005e-08
-1.12261e-08
-2.33243e-08
-6.98204e-09
-1.02211e-08
-1.7509e-08
4.62191e-08
-2.01941e-08
-5.62396e-08
8.42501e-08
-2.13842e-08
-1.02066e-07
1.01011e-07
-2.21032e-08
-1.50887e-07
1.1223e-07
-2.32761e-08
-1.99738e-07
1.1884e-07
-2.44254e-08
-2.46502e-07
1.21607e-07
-2.54651e-08
-2.89464e-07
1.21188e-07
-2.64521e-08
-3.27374e-07
1.18117e-07
-2.74064e-08
-3.59493e-07
1.13138e-07
-2.83474e-08
-3.85673e-07
1.06992e-07
-2.92508e-08
-4.06049e-07
1.00189e-07
-3.01025e-08
-4.20881e-07
9.29759e-08
-3.08785e-08
-4.30422e-07
8.55106e-08
-3.1588e-08
-4.35029e-07
7.79653e-08
-3.22378e-08
-4.35071e-07
7.04648e-08
-3.28345e-08
-4.3093e-07
6.31078e-08
-3.33689e-08
-4.22966e-07
5.59667e-08
-3.38463e-08
-4.11578e-07
4.91053e-08
-3.42619e-08
-3.97134e-07
4.258e-08
-3.46208e-08
-3.80002e-07
3.64158e-08
-3.49209e-08
-3.60522e-07
3.06315e-08
-3.5163e-08
-3.39019e-07
2.52362e-08
-3.5345e-08
-3.158e-07
2.02336e-08
-3.54667e-08
-2.91154e-07
1.56238e-08
-3.55255e-08
-2.65342e-07
1.14035e-08
-3.55185e-08
-2.38618e-07
7.56856e-09
-3.54403e-08
-2.11215e-07
4.11538e-09
-3.52823e-08
-1.83351e-07
1.04228e-09
-3.50316e-08
-1.55239e-07
-1.6404e-09
-3.46654e-08
-1.27093e-07
-3.91977e-09
-3.41508e-08
-9.91342e-08
-5.7647e-09
-3.34474e-08
-7.15946e-08
-7.10834e-09
-3.24963e-08
-4.48508e-08
-7.83363e-09
-3.10783e-08
-1.99434e-08
-7.59048e-09
-2.85444e-08
-4.18586e-09
-2.27384e-08
-1.73735e-08
6.73105e-08
-3.71655e-09
-4.19568e-08
1.13446e-07
-4.61475e-09
-6.85786e-08
1.32778e-07
-5.14503e-09
-9.55819e-08
1.45119e-07
-5.88643e-09
-1.21705e-07
1.51769e-07
-6.80773e-09
-1.45974e-07
1.53839e-07
-7.96036e-09
-1.67574e-07
1.52127e-07
-9.33913e-09
-1.85964e-07
1.47516e-07
-1.10115e-08
-2.00831e-07
1.4099e-07
-1.29834e-08
-2.12054e-07
1.33383e-07
-1.51679e-08
-2.19748e-07
1.25176e-07
-1.72935e-08
-2.24193e-07
1.16609e-07
-1.9187e-08
-2.25761e-07
1.07867e-07
-2.07902e-08
-2.24842e-07
9.92139e-08
-2.21666e-08
-2.21806e-07
9.07639e-08
-2.33349e-08
-2.16952e-07
8.25979e-08
-2.43448e-08
-2.10546e-07
7.47701e-08
-2.52082e-08
-2.02813e-07
6.73139e-08
-2.5943e-08
-1.93958e-07
6.02758e-08
-2.65515e-08
-1.84162e-07
5.36722e-08
-2.70518e-08
-1.73595e-07
4.75137e-08
-2.74489e-08
-1.62392e-07
4.17862e-08
-2.77544e-08
-1.50672e-07
3.64857e-08
-2.79724e-08
-1.38551e-07
3.16147e-08
-2.81103e-08
-1.26138e-07
2.71613e-08
-2.81707e-08
-1.13522e-07
2.31073e-08
-2.81566e-08
-1.00776e-07
1.94374e-08
-2.80671e-08
-8.79678e-08
1.61327e-08
-2.78974e-08
-7.51542e-08
1.31805e-08
-2.76373e-08
-6.23742e-08
1.05693e-08
-2.72673e-08
-4.96782e-08
8.29542e-09
-2.67576e-08
-3.71019e-08
6.36309e-09
-2.60456e-08
-2.47303e-08
4.78373e-09
-2.49911e-08
-1.26424e-08
3.57161e-09
-2.32479e-08
2.36335e-09
-1.91926e-08
-1.60639e-08
6.79056e-08
1.54687e-08
-2.70531e-08
1.09178e-07
1.52581e-08
-3.57245e-08
1.26982e-07
1.44648e-08
-4.32277e-08
1.38874e-07
1.37508e-08
-5.03209e-08
1.45982e-07
1.28779e-08
-5.74229e-08
1.49131e-07
1.18114e-08
-6.48039e-08
1.49061e-07
1.04463e-08
-7.24254e-08
1.46553e-07
8.58454e-09
-7.97928e-08
1.42292e-07
6.06761e-09
-8.62055e-08
1.36715e-07
3.07928e-09
-9.10694e-08
1.3018e-07
-1.41237e-10
-9.41357e-08
1.22941e-07
-3.26402e-09
-9.54282e-08
1.15269e-07
-6.11238e-09
-9.51178e-08
1.0744e-07
-8.53572e-09
-9.34787e-08
9.97075e-08
-1.05822e-08
-9.07829e-08
9.22522e-08
-1.23498e-08
-8.73112e-08
8.51929e-08
-1.38959e-08
-8.32861e-08
7.85479e-08
-1.52572e-08
-7.88751e-08
7.23258e-08
-1.64621e-08
-7.42212e-08
6.65317e-08
-1.75127e-08
-6.94458e-08
6.11626e-08
-1.84267e-08
-6.46413e-08
5.6193e-08
-1.92094e-08
-5.98903e-08
5.16093e-08
-1.98734e-08
-5.52653e-08
4.74059e-08
-2.04188e-08
-5.07967e-08
4.35487e-08
-2.08552e-08
-4.65103e-08
4.00075e-08
-2.11862e-08
-4.23999e-08
3.67451e-08
-2.14183e-08
-3.84366e-08
3.37224e-08
-2.15537e-08
-3.45482e-08
3.08869e-08
-2.15944e-08
-3.06278e-08
2.81842e-08
-2.15355e-08
-2.65054e-08
2.55394e-08
-2.13667e-08
-2.19259e-08
2.28753e-08
-2.10913e-08
-1.6434e-08
2.00618e-08
-2.07711e-08
-9.50139e-09
1.69983e-08
-2.03586e-08
1.13e-08
-1.84381e-08
-1.25517e-08
5.84656e-08
2.19914e-08
-1.42725e-08
8.9e-08
2.18999e-08
-1.15016e-08
1.03099e-07
2.11113e-08
-6.69231e-09
1.1339e-07
2.06746e-08
-1.19527e-09
1.2036e-07
2.01269e-08
4.15258e-09
1.24589e-07
1.91939e-08
8.77781e-09
1.26579e-07
1.78557e-08
1.24972e-08
1.26719e-07
1.61159e-08
1.53925e-08
1.25335e-07
1.40609e-08
1.76273e-08
1.22714e-07
1.17674e-08
1.93701e-08
1.19097e-07
9.34024e-09
2.07596e-08
1.1471e-07
6.84051e-09
2.19116e-08
1.09763e-07
4.35492e-09
2.29233e-08
1.04473e-07
1.95526e-09
2.38624e-08
9.90487e-08
-2.79453e-10
2.46956e-08
9.36905e-08
-2.2722e-09
2.53644e-08
8.85568e-08
-4.03294e-09
2.57942e-08
8.37204e-08
-5.60146e-09
2.59102e-08
7.92061e-08
-6.99705e-09
2.56478e-08
7.50288e-08
-8.23509e-09
2.49511e-08
7.11844e-08
-9.32396e-09
2.37696e-08
6.76508e-08
-1.02777e-08
2.20765e-08
6.44044e-08
-1.11009e-08
1.98732e-08
6.14144e-08
-1.18049e-08
1.71785e-08
5.86381e-08
-1.23958e-08
1.40416e-08
5.60298e-08
-1.28845e-08
1.0526e-08
5.35374e-08
-1.32774e-08
6.74522e-09
5.10896e-08
-1.35866e-08
2.85156e-09
4.86016e-08
-1.38202e-08
-9.43167e-10
4.59657e-08
-1.39875e-08
-4.35693e-09
4.30457e-08
-1.40929e-08
-6.95912e-09
3.96623e-08
-1.41853e-08
-8.00739e-09
3.55647e-08
-1.44541e-08
-6.4352e-09
3.04475e-08
-1.50221e-08
1.96348e-08
-1.47693e-08
-6.21023e-09
4.69734e-08
1.77002e-08
-4.59219e-09
7.00018e-08
1.73837e-08
8.93011e-10
8.10057e-08
1.66073e-08
8.67032e-09
8.94235e-08
1.61873e-08
1.78069e-08
9.55654e-08
1.56602e-08
2.76594e-08
9.98291e-08
1.49054e-08
3.76954e-08
1.026e-07
1.39414e-08
4.74747e-08
1.04113e-07
1.28274e-08
5.66288e-08
1.04596e-07
1.15834e-08
6.48711e-08
1.04226e-07
1.02456e-08
7.19673e-08
1.03172e-07
8.83087e-09
7.77361e-08
1.01565e-07
7.37295e-09
8.20717e-08
9.95423e-08
5.88834e-09
8.49265e-08
9.72082e-08
4.40549e-09
8.63663e-08
9.46708e-08
2.94045e-09
8.65064e-08
9.20279e-08
1.5217e-09
8.55236e-08
8.93733e-08
1.65052e-10
8.35483e-08
8.67755e-08
-1.07765e-09
8.06832e-08
8.42874e-08
-2.21741e-09
7.70149e-08
8.19419e-08
-3.24579e-09
7.2618e-08
7.97489e-08
-4.16673e-09
6.75532e-08
7.76985e-08
-4.98399e-09
6.1893e-08
7.57683e-08
-5.70269e-09
5.57002e-08
7.39313e-08
-6.3248e-09
4.90515e-08
7.21456e-08
-6.85886e-09
4.20312e-08
7.03624e-08
-7.31261e-09
3.47516e-08
6.85132e-08
-7.69601e-09
2.735e-08
6.65124e-08
-8.02085e-09
2.00059e-08
6.42441e-08
-8.29918e-09
1.29495e-08
6.15671e-08
-8.5448e-09
6.46906e-09
5.82852e-08
-8.75934e-09
9.7896e-10
5.41455e-08
-8.99378e-09
-2.78729e-09
4.88e-08
-9.46914e-09
-3.8233e-09
4.18331e-08
-1.03484e-08
2.66202e-08
-1.08091e-08
-3.09804e-09
3.8721e-08
1.13491e-08
-1.99561e-09
5.8675e-08
1.02259e-08
1.8615e-09
6.80524e-08
9.09518e-09
7.49517e-09
7.53079e-08
8.48251e-09
1.42199e-08
8.08247e-08
8.01749e-09
2.15829e-08
8.49666e-08
7.49735e-09
2.92439e-08
8.80288e-08
6.91112e-09
3.68793e-08
9.02162e-08
6.26261e-09
4.42152e-08
9.16917e-08
5.5673e-09
5.10196e-08
9.25944e-08
4.82864e-09
5.70999e-08
9.30311e-08
4.05894e-09
6.23138e-08
9.3093e-08
3.2608e-09
6.65466e-08
9.28572e-08
2.4504e-09
6.97268e-08
9.23932e-08
1.63594e-09
7.18052e-08
9.17605e-08
8.31431e-10
7.27837e-08
9.10105e-08
4.02838e-11
7.2685e-08
9.01826e-08
-7.12335e-10
7.15776e-08
8.93128e-08
-1.42888e-09
6.95381e-08
8.84275e-08
-2.10091e-09
6.66629e-08
8.75397e-08
-2.7219e-09
6.30393e-08
8.66557e-08
-3.28339e-09
5.87547e-08
8.5768e-08
-3.78447e-09
5.38814e-08
8.48625e-08
-4.22267e-09
4.85086e-08
8.39092e-08
-4.60218e-09
4.27058e-08
8.28703e-08
-4.92476e-09
3.65801e-08
8.16876e-08
-5.19746e-09
3.02286e-08
8.02891e-08
-5.42526e-09
2.37863e-08
7.85726e-08
-5.61842e-09
1.7409e-08
7.64086e-08
-5.78593e-09
1.12948e-08
7.36194e-08
-5.93893e-09
5.69489e-09
6.99713e-08
-6.0861e-09
9.65892e-10
6.51509e-08
-6.27579e-09
-2.29519e-09
5.87326e-08
-6.67191e-09
-3.22671e-09
5.01602e-08
-7.39487e-09
3.11919e-08
-7.79891e-09
-3.40044e-10
3.29117e-08
6.14959e-09
2.51698e-10
5.2878e-08
5.20439e-09
1.76967e-09
6.21652e-08
4.37e-09
3.92407e-09
6.92752e-08
3.87815e-09
6.47857e-09
7.47576e-08
3.5126e-09
9.30953e-09
7.89872e-08
3.1481e-09
1.23403e-08
8.22495e-08
2.74986e-09
1.54725e-08
8.47574e-08
2.32511e-09
1.86169e-08
8.6674e-08
1.87403e-09
2.16801e-08
8.81243e-08
1.405e-09
2.45865e-08
8.92064e-08
9.20629e-10
2.72489e-08
8.99986e-08
4.30961e-10
2.9602e-08
9.05631e-08
-5.84358e-11
3.15714e-08
9.09511e-08
-5.2868e-10
3.31136e-08
9.12026e-08
-9.83904e-10
3.41877e-08
9.13506e-08
-1.41348e-09
3.47625e-08
9.14208e-08
-1.81323e-09
3.482e-08
9.14332e-08
-2.17873e-09
3.43612e-08
9.13941e-08
-2.50771e-09
3.33886e-08
9.13073e-08
-2.79563e-09
3.19234e-08
9.11666e-08
-3.04493e-09
2.99851e-08
9.09598e-08
-3.25396e-09
2.76127e-08
9.06625e-08
-3.42726e-09
2.48448e-08
9.02427e-08
-3.56559e-09
2.17391e-08
8.9652e-08
-3.67536e-09
1.83557e-08
8.88297e-08
-3.75936e-09
1.47797e-08
8.76896e-08
-3.82561e-09
1.11093e-08
8.61229e-08
-3.87897e-09
7.46828e-09
8.39782e-08
-3.92896e-09
4.0044e-09
8.10621e-08
-3.97993e-09
9.10583e-10
7.71066e-08
-4.04001e-09
-1.56722e-09
7.17653e-08
-4.13677e-09
-3.01513e-09
6.45564e-08
-4.37701e-09
-2.88034e-09
5.485e-08
-4.82505e-09
3.33289e-08
-5.01706e-09
-8.46424e-10
3.00417e-08
3.71747e-09
-1.27476e-09
5.0077e-08
3.22789e-09
-1.3033e-09
5.93908e-08
2.80386e-09
-1.10248e-09
6.65342e-08
2.53942e-09
-7.13114e-10
7.20439e-08
2.32369e-09
-1.38855e-10
7.6318e-08
2.09495e-09
6.1576e-10
7.96504e-08
1.84563e-09
1.53266e-09
8.22639e-08
1.57639e-09
2.58547e-09
8.43255e-08
1.29548e-09
3.74185e-09
8.59631e-08
1.00455e-09
4.96333e-09
8.7274e-08
7.12263e-10
6.20638e-09
8.83337e-08
4.20991e-10
7.43022e-09
8.92001e-08
1.3892e-10
8.59134e-09
8.9918e-08
-1.26849e-10
9.63961e-09
9.05213e-08
-3.67847e-10
1.05433e-08
9.10351e-08
-5.87446e-10
1.1266e-08
9.14765e-08
-7.77782e-10
1.17826e-08
9.18555e-08
-9.39802e-10
1.20703e-08
9.21757e-08
-1.06857e-09
1.21117e-08
9.24328e-08
-1.16733e-09
1.18969e-08
9.2616e-08
-1.23399e-09
1.14228e-08
9.27075e-08
-1.27421e-09
1.06939e-08
9.26808e-08
-1.28796e-09
9.72033e-09
9.24976e-08
-1.28208e-09
8.52407e-09
9.21058e-08
-1.25832e-09
7.14175e-09
9.14369e-08
-1.22556e-09
5.61935e-09
9.04011e-08
-1.18694e-09
4.01424e-09
8.888e-08
-1.15242e-09
2.39932e-09
8.67178e-08
-1.1261e-09
8.71641e-10
8.37091e-08
-1.11733e-09
-4.72905e-10
7.95787e-08
-1.12931e-09
-1.48633e-09
7.39649e-08
-1.18489e-09
-1.9614e-09
6.63754e-08
-1.3451e-09
-1.61764e-09
5.61556e-08
-1.64794e-09
3.35543e-08
-1.84402e-09
-1.63725e-09
2.83883e-08
3.28831e-09
-3.22168e-09
4.83399e-08
3.32438e-09
-4.66664e-09
5.75762e-08
3.25866e-09
-5.96732e-09
6.463e-08
3.20571e-09
-7.09699e-09
7.00499e-08
3.1224e-09
-8.02133e-09
7.42387e-08
3.00434e-09
-8.71829e-09
7.74952e-08
2.85264e-09
-9.17793e-09
8.00446e-08
2.67844e-09
-9.39431e-09
8.20569e-08
2.48595e-09
-9.37892e-09
8.36606e-08
2.28544e-09
-9.13847e-09
8.49547e-08
2.08044e-09
-8.70061e-09
8.60136e-08
1.88103e-09
-8.08461e-09
8.6896e-08
1.69004e-09
-7.32927e-09
8.76446e-08
1.5167e-09
-6.46391e-09
8.82934e-08
1.36231e-09
-5.52764e-09
8.88649e-08
1.23428e-09
-4.55816e-09
8.93744e-08
1.13274e-09
-3.59326e-09
8.98287e-08
1.06302e-09
-2.67033e-09
9.02299e-08
1.02186e-09
-1.82028e-09
9.05707e-08
1.01248e-09
-1.07276e-09
9.08389e-08
1.02928e-09
-4.49489e-10
9.10119e-08
1.07298e-09
3.43579e-11
9.10607e-08
1.13575e-09
3.73829e-10
9.09433e-08
1.21516e-09
5.71187e-10
9.06072e-08
1.30185e-09
6.32965e-10
8.99813e-08
1.39348e-09
5.78619e-10
8.89757e-08
1.47923e-09
4.32889e-10
8.74713e-08
1.55557e-09
2.25879e-10
8.53143e-08
1.61085e-09
-8.82212e-12
8.23014e-08
1.64136e-09
-2.29844e-10
7.81653e-08
1.63529e-09
-3.98308e-10
7.25515e-08
1.58031e-09
-4.35958e-10
6.49854e-08
1.42953e-09
-2.74151e-10
5.48317e-08
1.16288e-09
3.24684e-08
8.10412e-10
-2.47086e-09
2.73345e-08
3.52331e-09
-4.77755e-09
4.66711e-08
3.97733e-09
-6.9645e-09
5.55999e-08
4.1631e-09
-8.98798e-09
6.23987e-08
4.25409e-09
-1.07969e-08
6.75941e-08
4.26493e-09
-1.23539e-08
7.15802e-08
4.21504e-09
-1.36293e-08
7.46495e-08
4.12224e-09
-1.46056e-08
7.70256e-08
3.99449e-09
-1.52687e-08
7.88749e-08
3.84518e-09
-1.56162e-08
8.03273e-08
3.68016e-09
-1.56523e-08
8.14795e-08
3.51144e-09
-1.53916e-08
8.24091e-08
3.34353e-09
-1.48542e-08
8.31724e-08
3.18721e-09
-1.40711e-08
8.3816e-08
3.04538e-09
-1.30756e-08
8.43711e-08
2.92714e-09
-1.19084e-08
8.48637e-08
2.83322e-09
-1.06118e-08
8.5307e-08
2.77049e-09
-9.23154e-09
8.5711e-08
2.73699e-09
-7.81256e-09
8.60739e-08
2.73692e-09
-6.39831e-09
8.63914e-08
2.76541e-09
-5.03015e-09
8.6647e-08
2.82383e-09
-3.74343e-09
8.68197e-08
2.905e-09
-2.56543e-09
8.68746e-08
3.00824e-09
-1.51756e-09
8.67722e-08
3.1239e-09
-6.17315e-10
8.6456e-08
3.24912e-09
1.32973e-10
8.58592e-08
3.37255e-09
7.27961e-10
8.48902e-08
3.49007e-09
1.1728e-09
8.34372e-08
3.58916e-09
1.47361e-09
8.13494e-08
3.66462e-09
1.63618e-09
7.84368e-08
3.70309e-09
1.65686e-09
7.44438e-08
3.69808e-09
1.54218e-09
6.90395e-08
3.62879e-09
1.28549e-09
6.17779e-08
3.4627e-09
8.88143e-10
5.20676e-08
3.16358e-09
3.0748e-08
2.60656e-09
-2.6299e-09
2.65393e-08
3.42569e-09
-5.17365e-09
4.51096e-08
4.10427e-09
-7.64731e-09
5.36594e-08
4.41385e-09
-9.96048e-09
6.01388e-08
4.57363e-09
-1.2045e-08
6.50574e-08
4.62085e-09
-1.38508e-08
6.87902e-08
4.5963e-09
-1.53434e-08
7.16248e-08
4.51656e-09
-1.64896e-08
7.37756e-08
4.39792e-09
-1.72754e-08
7.54096e-08
4.24914e-09
-1.76832e-08
7.66526e-08
4.08421e-09
-1.77184e-08
7.76051e-08
3.91025e-09
-1.73919e-08
7.83425e-08
3.73972e-09
-1.67255e-08
7.8927e-08
3.57802e-09
-1.57483e-08
7.94034e-08
3.43589e-09
-1.45021e-08
7.98089e-08
3.31654e-09
-1.30362e-08
8.01676e-08
3.22837e-09
-1.13966e-08
8.04981e-08
3.1718e-09
-9.64614e-09
8.08073e-08
3.15231e-09
-7.83833e-09
8.10981e-08
3.16715e-09
-6.02629e-09
8.13615e-08
3.21864e-09
-4.26491e-09
8.15846e-08
3.30079e-09
-2.60016e-09
8.17418e-08
3.41291e-09
-1.07351e-09
8.18028e-08
3.54608e-09
2.77712e-10
8.17226e-08
3.69707e-09
1.43104e-09
8.14489e-08
3.85466e-09
2.36665e-09
8.091e-08
4.01374e-09
3.07455e-09
8.00211e-08
4.16149e-09
3.54984e-09
7.86688e-08
4.29146e-09
3.79706e-09
7.67144e-08
4.38954e-09
3.81299e-09
7.39726e-08
4.44818e-09
3.59521e-09
7.02089e-08
4.45151e-09
3.14204e-09
6.51082e-08
4.38475e-09
2.45076e-09
5.82625e-08
4.20773e-09
1.51631e-09
4.91186e-08
3.88196e-09
2.90717e-08
3.19385e-09
-2.27488e-09
2.62103e-08
2.60563e-09
-4.69329e-09
4.42372e-08
3.28916e-09
-7.15549e-09
5.25088e-08
3.61219e-09
-9.52247e-09
5.8742e-08
3.76396e-09
-1.16915e-08
6.34282e-08
3.79815e-09
-1.35907e-08
6.69349e-08
3.75391e-09
-1.51608e-08
6.95421e-08
3.65377e-09
-1.6359e-08
7.14648e-08
3.50877e-09
-1.71521e-08
7.28674e-08
3.33364e-09
-1.75147e-08
7.38806e-08
3.13797e-09
-1.74529e-08
7.46049e-08
2.93576e-09
-1.69672e-08
7.51231e-08
2.7354e-09
-1.60883e-08
7.54979e-08
2.54937e-09
-1.48519e-08
7.57824e-08
2.38399e-09
-1.33042e-08
7.6014e-08
2.24937e-09
-1.15084e-08
7.62236e-08
2.14895e-09
-9.53203e-09
7.64292e-08
2.08976e-09
-7.43819e-09
7.66435e-08
2.07177e-09
-5.30645e-09
7.68665e-08
2.09842e-09
-3.20246e-09
7.70933e-08
2.16591e-09
-1.19835e-09
7.7306e-08
2.274e-09
6.46309e-10
7.74821e-08
2.41527e-09
2.27951e-09
7.75845e-08
2.58611e-09
3.65448e-09
7.75706e-08
2.77601e-09
4.7439e-09
7.73811e-08
2.97866e-09
5.52524e-09
7.69472e-08
3.18131e-09
5.99187e-09
7.61784e-08
3.37584e-09
6.14677e-09
7.49669e-08
3.54827e-09
6.00035e-09
7.31716e-08
3.68955e-09
5.56889e-09
7.06174e-08
3.78522e-09
4.87918e-09
6.70748e-08
3.82518e-09
3.95068e-09
6.22468e-08
3.78867e-09
2.82749e-09
5.57435e-08
3.64248e-09
1.56557e-09
4.70455e-08
3.33736e-09
2.79616e-08
2.67392e-09
-1.57293e-09
2.65858e-08
1.19599e-09
-3.67257e-09
4.46208e-08
1.71761e-09
-5.99584e-09
5.28622e-08
1.96964e-09
-8.33945e-09
5.9024e-08
2.06218e-09
-1.05573e-08
6.36026e-08
2.04235e-09
-1.25383e-08
6.69662e-08
1.94993e-09
-1.41996e-08
6.94023e-08
1.80062e-09
-1.54709e-08
7.11282e-08
1.6085e-09
-1.6306e-08
7.23176e-08
1.38347e-09
-1.667e-08
7.31048e-08
1.14012e-09
-1.65538e-08
7.36003e-08
8.89209e-10
-1.59693e-08
7.38911e-08
6.45097e-10
-1.49369e-08
7.40499e-08
4.17636e-10
-1.35068e-08
7.41321e-08
2.19511e-10
-1.17341e-08
7.41849e-08
5.64094e-11
-9.68777e-09
7.42413e-08
-6.33443e-11
-7.45155e-09
7.4327e-08
-1.35224e-10
-5.10701e-09
7.44539e-08
-1.54284e-10
-2.74662e-09
7.46271e-08
-1.21507e-10
-4.56009e-10
7.48379e-08
-3.60054e-11
1.6834e-09
7.5071e-08
9.67733e-11
3.59469e-09
7.5297e-08
2.73237e-10
5.21426e-09
7.54794e-08
4.84236e-10
6.49638e-09
7.55669e-08
7.22678e-10
7.40306e-09
7.54992e-08
9.75956e-10
7.91607e-09
7.51985e-08
1.23435e-09
8.03864e-09
7.45733e-08
1.4834e-09
7.78455e-09
7.35075e-08
1.71262e-09
7.18754e-09
7.18608e-08
1.90734e-09
6.29502e-09
6.9452e-08
2.05839e-09
5.16221e-09
6.60558e-08
2.15287e-09
3.85735e-09
6.1374e-08
2.17702e-09
2.4767e-09
5.50253e-08
2.09714e-09
1.1557e-09
4.64956e-08
1.87246e-09
2.77401e-08
1.37644e-09
-8.41033e-10
2.77986e-08
-3.70227e-10
-2.59327e-09
4.64627e-08
-9.2361e-11
-4.7355e-09
5.49548e-08
5.0676e-11
-7.02526e-09
6.12529e-08
5.92136e-11
-9.26641e-09
6.58726e-08
-2.73446e-11
-1.13224e-08
6.92031e-08
-1.82107e-10
-1.30749e-08
7.15436e-08
-3.88046e-10
-1.44368e-08
7.31281e-08
-6.37289e-10
-1.53417e-08
7.4139e-08
-9.17515e-10
-1.5744e-08
7.47253e-08
-1.21753e-09
-1.56267e-08
7.50049e-08
-1.52263e-09
-1.4991e-08
7.50776e-08
-1.82084e-09
-1.38682e-08
7.50231e-08
-2.09759e-09
-1.23031e-08
7.49092e-08
-2.34208e-09
-1.03637e-08
7.47879e-08
-2.54105e-09
-8.13551e-09
7.47014e-08
-2.68803e-09
-5.70962e-09
7.4677e-08
-2.77555e-09
-3.18769e-09
7.4733e-08
-2.80138e-09
-6.72239e-10
7.48728e-08
-2.76287e-09
1.74023e-09
7.50906e-08
-2.66289e-09
3.94909e-09
7.53655e-08
-2.5039e-09
5.87223e-09
7.56677e-08
-2.29376e-09
7.43974e-09
7.59523e-08
-2.03953e-09
8.59442e-09
7.61648e-08
-1.75317e-09
9.30429e-09
7.62345e-08
-1.44533e-09
9.55425e-09
7.60789e-08
-1.13058e-09
9.35464e-09
7.55949e-08
-8.21237e-10
8.73443e-09
7.4661e-08
-5.32249e-10
7.74381e-09
7.31245e-08
-2.74393e-10
6.45754e-09
7.07988e-08
-5.96064e-11
4.96706e-09
6.74447e-08
1.01164e-10
3.38937e-09
6.27567e-08
1.95762e-10
1.87548e-09
5.6338e-08
2.01325e-10
6.22469e-10
4.76632e-08
8.54942e-11
2.8526e-08
-1.63685e-10
-2.93174e-10
2.97634e-08
-1.67055e-09
-1.74789e-09
4.95335e-08
-1.61752e-09
-3.71155e-09
5.84985e-08
-1.58068e-09
-5.90494e-09
6.50991e-08
-1.6518e-09
-8.11574e-09
6.98878e-08
-1.80394e-09
-1.01797e-08
7.32799e-08
-2.01412e-09
-1.19606e-08
7.55996e-08
-2.27374e-09
-1.33574e-08
7.70975e-08
-2.57364e-09
-1.42879e-08
7.79753e-08
-2.90479e-09
-1.47016e-08
7.83936e-08
-3.25345e-09
-1.45779e-08
7.84861e-08
-3.60647e-09
-1.39128e-08
7.83622e-08
-3.94784e-09
-1.2742e-08
7.81152e-08
-4.2645e-09
-1.11122e-08
7.78215e-08
-4.5425e-09
-9.09614e-09
7.75437e-08
-4.7712e-09
-6.7839e-09
7.73285e-08
-4.93987e-09
-4.27496e-09
7.7211e-08
-5.04247e-09
-1.67726e-09
7.72101e-08
-5.07361e-09
8.95089e-10
7.7333e-08
-5.03282e-09
3.33461e-09
7.75708e-08
-4.92043e-09
5.54069e-09
7.79029e-08
-4.74176e-09
7.41776e-09
7.82923e-08
-4.50283e-09
8.89411e-09
7.86907e-08
-4.2143e-09
9.91181e-09
7.90332e-08
-3.88699e-09
1.04412e-08
7.92429e-08
-3.53561e-09
1.04674e-08
7.92249e-08
-3.17388e-09
1.00128e-08
7.8868e-08
-2.81758e-09
9.11644e-09
7.80365e-08
-2.47983e-09
7.84925e-09
7.65673e-08
-2.17423e-09
6.29968e-09
7.42566e-08
-1.9098e-09
4.59037e-09
7.08503e-08
-1.69511e-09
2.86246e-09
6.60207e-08
-1.53748e-09
1.30915e-09
5.93478e-08
-1.45527e-09
1.69081e-10
5.02742e-08
-1.47075e-09
3.01989e-08
-1.50431e-09
-4.04581e-11
3.2234e-08
-2.42981e-09
-1.31462e-09
5.33385e-08
-2.53064e-09
-3.13448e-09
6.28859e-08
-2.56845e-09
-5.21936e-09
6.9879e-08
-2.69441e-09
-7.35162e-09
7.49076e-08
-2.88867e-09
-9.35596e-09
7.84221e-08
-3.13613e-09
-1.10984e-08
8.077e-08
-3.42956e-09
-1.24636e-08
8.2226e-08
-3.76301e-09
-1.33697e-08
8.30077e-08
-4.12679e-09
-1.3761e-08
8.32939e-08
-4.50916e-09
-1.36106e-08
8.32304e-08
-4.89527e-09
-1.29187e-08
8.29411e-08
-5.27035e-09
-1.17124e-08
8.25285e-08
-5.61774e-09
-1.00508e-08
8.20805e-08
-5.92294e-09
-8.00024e-09
8.16669e-08
-6.17256e-09
-5.65792e-09
8.13434e-08
-6.35738e-09
-3.12554e-09
8.11484e-08
-6.46972e-09
-5.17247e-10
8.1106e-08
-6.50607e-09
2.05827e-09
8.1223e-08
-6.46434e-09
4.48538e-09
8.14916e-08
-6.34647e-09
6.65539e-09
8.18866e-08
-6.15582e-09
8.47931e-09
8.2369e-08
-5.89992e-09
9.87498e-09
8.28815e-08
-5.58803e-09
1.07895e-08
8.33534e-08
-5.23369e-09
1.11892e-08
8.36958e-08
-4.85186e-09
1.10672e-08
8.38049e-08
-4.45944e-09
1.04522e-08
8.35559e-08
-4.07142e-09
9.38808e-09
8.28016e-08
-3.70256e-09
7.95888e-09
8.13621e-08
-3.36456e-09
6.26263e-09
7.90184e-08
-3.06691e-09
4.43486e-09
7.54944e-08
-2.81549e-09
2.63136e-09
7.04405e-08
-2.61664e-09
1.058e-09
6.34044e-08
-2.48247e-09
-3.06149e-11
5.37932e-08
-2.42943e-09
3.24817e-08
-2.3146e-09
-4.31854e-11
3.49036e-08
-2.62972e-09
-1.27231e-09
5.73566e-08
-2.78537e-09
-3.03116e-09
6.74987e-08
-2.85369e-09
-5.05004e-09
7.48978e-08
-3.00049e-09
-7.11616e-09
8.01834e-08
-3.21075e-09
-9.05857e-09
8.38365e-08
-3.47152e-09
-1.07417e-08
8.62315e-08
-3.77776e-09
-1.20553e-08
8.7663e-08
-4.12348e-09
-1.29137e-08
8.83682e-08
-4.50066e-09
-1.32633e-08
8.85398e-08
-4.89743e-09
-1.30697e-08
8.83389e-08
-5.30108e-09
-1.23373e-08
8.79002e-08
-5.69407e-09
-1.10868e-08
8.73392e-08
-6.05751e-09
-9.38666e-09
8.67525e-08
-6.37395e-09
-7.30798e-09
8.62196e-08
-6.6315e-09
-4.94509e-09
8.58017e-08
-6.82097e-09
-2.40303e-09
8.55431e-08
-6.93674e-09
2.09424e-10
8.54692e-08
-6.97496e-09
2.77817e-09
8.55895e-08
-6.93481e-09
5.1911e-09
8.5894e-08
-6.817e-09
7.34855e-09
8.63567e-08
-6.62524e-09
9.14937e-09
8.69324e-08
-6.36496e-09
1.05166e-08
8.75595e-08
-6.04514e-09
1.13897e-08
8.81576e-08
-5.67765e-09
1.1738e-08
8.86295e-08
-5.28027e-09
1.15559e-08
8.88589e-08
-4.87256e-09
1.08727e-08
8.87106e-08
-4.47226e-09
9.74486e-09
8.80228e-08
-4.09197e-09
8.24785e-09
8.66019e-08
-3.74332e-09
6.49136e-09
8.42101e-08
-3.43431e-09
4.60467e-09
8.05518e-08
-3.17076e-09
2.75016e-09
7.52517e-08
-2.9572e-09
1.13295e-09
6.78276e-08
-2.80463e-09
6.34032e-13
5.76484e-08
-2.72594e-09
3.50443e-08
-2.56001e-09
-2.14926e-10
3.74918e-08
-2.37334e-09
-1.51541e-09
6.11519e-08
-2.49473e-09
-3.2913e-09
7.18262e-08
-2.55172e-09
-5.29212e-09
7.95885e-08
-2.68997e-09
-7.31822e-09
8.5101e-08
-2.89289e-09
-9.20706e-09
8.88739e-08
-3.14759e-09
-1.08316e-08
9.13033e-08
-3.44836e-09
-1.20815e-08
9.27044e-08
-3.78992e-09
-1.28793e-08
9.33297e-08
-4.16432e-09
-1.31652e-08
9.33877e-08
-4.56185e-09
-1.29101e-08
9.30514e-08
-4.96897e-09
-1.21116e-08
9.24685e-08
-5.36587e-09
-1.08074e-08
9.17642e-08
-5.73e-09
-9.05562e-09
9.10459e-08
-6.0442e-09
-6.93714e-09
9.04002e-08
-6.29763e-09
-4.54862e-09
8.98952e-08
-6.48353e-09
-1.98748e-09
8.95789e-08
-6.59689e-09
6.37364e-10
8.94804e-08
-6.63511e-09
3.21368e-09
8.9609e-08
-6.59697e-09
5.63722e-09
8.9955e-08
-6.48359e-09
7.80317e-09
9.0489e-08
-6.29752e-09
9.61573e-09
9.11626e-08
-6.04359e-09
1.09967e-08
9.19074e-08
-5.72839e-09
1.18801e-08
9.2636e-08
-5.36265e-09
1.22336e-08
9.32408e-08
-4.96367e-09
1.20496e-08
9.3596e-08
-4.5544e-09
1.13625e-08
9.35537e-08
-4.15499e-09
1.02236e-08
9.29403e-08
-3.77899e-09
8.71482e-09
9.15468e-08
-3.43589e-09
6.93742e-09
8.91203e-08
-3.13351e-09
5.0214e-09
8.53453e-08
-2.87703e-09
3.12014e-09
7.98248e-08
-2.67178e-09
1.42878e-09
7.2048e-08
-2.52938e-09
1.90849e-10
6.13519e-08
-2.46496e-09
3.75702e-08
-2.33531e-09
-4.94245e-10
3.98014e-08
-1.81472e-09
-1.93639e-09
6.44313e-08
-1.83802e-09
-3.78732e-09
7.55303e-08
-1.85392e-09
-5.81088e-09
8.35757e-08
-1.96231e-09
-7.82423e-09
8.92562e-08
-2.14192e-09
-9.67836e-09
9.31041e-08
-2.37676e-09
-1.12504e-08
9.5535e-08
-2.66011e-09
-1.24393e-08
9.68801e-08
-2.9859e-09
-1.31699e-08
9.74064e-08
-3.34691e-09
-1.33837e-08
9.7336e-08
-3.73435e-09
-1.30518e-08
9.68537e-08
-4.13371e-09
-1.218e-08
9.61182e-08
-4.52226e-09
-1.08047e-08
9.52658e-08
-4.87623e-09
-8.99228e-09
9.44121e-08
-5.17912e-09
-6.82233e-09
9.36522e-08
-5.42209e-09
-4.38783e-09
9.30598e-08
-5.59968e-09
-1.78848e-09
9.26876e-08
-5.70805e-09
8.71207e-10
9.25666e-08
-5.74479e-09
3.48057e-09
9.27077e-08
-5.70911e-09
5.93715e-09
9.30999e-08
-5.60174e-09
8.14001e-09
9.37118e-08
-5.42503e-09
9.99498e-09
9.44904e-08
-5.18272e-09
1.14199e-08
9.53619e-08
-4.88014e-09
1.23502e-08
9.6231e-08
-4.52602e-09
1.27476e-08
9.69815e-08
-4.13694e-09
1.26027e-08
9.74769e-08
-3.73689e-09
1.19463e-08
9.75584e-08
-3.34879e-09
1.08325e-08
9.70406e-08
-2.98724e-09
9.33831e-09
9.57016e-08
-2.66084e-09
7.56311e-09
9.32737e-08
-2.3767e-09
5.62328e-09
8.94254e-08
-2.1408e-09
3.66634e-09
8.3741e-08
-1.95953e-09
1.87415e-09
7.56877e-08
-1.84795e-09
4.75999e-10
6.45764e-08
-1.82626e-09
3.98423e-08
-1.79576e-09
-8.06455e-10
4.17323e-08
-1.12608e-09
-2.41355e-09
6.70621e-08
-1.0213e-09
-4.36375e-09
7.84614e-08
-9.81229e-10
-6.43551e-09
8.66959e-08
-1.04928e-09
-8.45525e-09
9.24726e-08
-1.19728e-09
-1.02853e-08
9.634e-08
-1.40514e-09
-1.18137e-08
9.87284e-08
-1.66428e-09
-1.29497e-08
9.99822e-08
-1.96806e-09
-1.36127e-08
1.00381e-07
-2.30977e-09
-1.37557e-08
1.00159e-07
-2.68045e-09
-1.33491e-08
9.95106e-08
-3.06405e-09
-1.23995e-08
9.86066e-08
-3.43652e-09
-1.09532e-08
9.75925e-08
-3.77418e-09
-9.07252e-09
9.65932e-08
-4.06154e-09
-6.83911e-09
9.57115e-08
-4.29115e-09
-4.34952e-09
9.50266e-08
-4.45862e-09
-1.6961e-09
9.4596e-08
-4.56076e-09
1.01248e-09
9.44531e-08
-4.5955e-09
3.67359e-09
9.46097e-08
-4.56216e-09
6.18086e-09
9.50538e-08
-4.46138e-09
8.43627e-09
9.5752e-08
-4.29519e-09
1.03454e-08
9.66466e-08
-4.06672e-09
1.18306e-08
9.76582e-08
-3.78026e-09
1.28223e-08
9.86837e-08
-3.44319e-09
1.32766e-08
9.95982e-08
-3.07104e-09
1.31844e-08
1.00255e-07
-2.68758e-09
1.25734e-08
1.00486e-07
-2.31697e-09
1.14984e-08
1.00094e-07
-1.97529e-09
1.00254e-08
9.88445e-08
-1.67144e-09
8.25226e-09
9.6459e-08
-1.412e-09
6.28867e-09
9.25925e-08
-1.2035e-09
4.2693e-09
8.68145e-08
-1.05427e-09
2.36577e-09
7.85764e-08
-9.83675e-10
7.88189e-10
6.71709e-08
-1.01904e-09
4.17488e-08
-1.11762e-09
-1.07393e-09
4.32756e-08
-4.68758e-10
-2.83896e-09
6.90654e-08
-2.3978e-10
-4.886e-09
8.06535e-08
-1.43849e-10
-7.00931e-09
8.89911e-08
-1.71366e-10
-9.04702e-09
9.47963e-08
-2.8732e-10
-1.08684e-08
9.86291e-08
-4.67511e-10
-1.237e-08
1.00931e-07
-7.01258e-10
-1.3461e-08
1.02056e-07
-9.8144e-10
-1.4074e-08
1.02295e-07
-1.30141e-09
-1.41567e-08
1.01893e-07
-1.65187e-09
-1.36837e-08
1.01054e-07
-2.01572e-09
-1.2668e-08
9.99603e-08
-2.36865e-09
-1.11558e-08
9.87661e-08
-2.68752e-09
-9.20979e-09
9.76058e-08
-2.95789e-09
-6.91388e-09
9.65898e-08
-3.1733e-09
-4.36174e-09
9.58041e-08
-3.32997e-09
-1.65103e-09
9.53102e-08
-3.42508e-09
1.11533e-09
9.51446e-08
-3.45743e-09
3.8319e-09
9.53194e-08
-3.42646e-09
6.39681e-09
9.58223e-08
-3.33271e-09
8.70873e-09
9.66169e-08
-3.17736e-09
1.0677e-08
9.76415e-08
-2.96318e-09
1.22195e-08
9.88101e-08
-2.69389e-09
1.32655e-08
1.00012e-07
-2.3759e-09
1.37764e-08
1.01113e-07
-2.02366e-09
1.37328e-08
1.01958e-07
-1.66035e-09
1.31617e-08
1.02367e-07
-1.31034e-09
1.21137e-08
1.02132e-07
-9.90697e-10
1.06587e-08
1.01011e-07
-7.10698e-10
8.88402e-09
9.8712e-08
-4.76883e-10
6.89038e-09
9.48809e-08
-2.96294e-10
4.80757e-09
8.90763e-08
-1.79412e-10
2.79672e-09
8.07383e-08
-1.49841e-10
1.06099e-09
6.91488e-08
-2.4194e-10
4.32755e-08
-4.65898e-10
-1.25635e-09
4.44856e-08
4.56223e-11
-3.12869e-09
7.05693e-08
3.69239e-10
-5.25324e-09
8.22671e-08
5.11231e-10
-7.42439e-09
9.06441e-08
5.17322e-10
-9.48433e-09
9.64264e-08
4.2852e-10
-1.13069e-08
1.00181e-07
2.72559e-10
-1.27963e-08
1.02358e-07
6.18485e-11
-1.38644e-08
1.03321e-07
-1.96776e-10
-1.44442e-08
1.0337e-07
-4.95949e-10
-1.44845e-08
1.02759e-07
-8.25879e-10
-1.39658e-08
1.01705e-07
-1.16931e-09
-1.2902e-08
1.00398e-07
-1.50194e-09
-1.13377e-08
9.90039e-08
-1.80176e-09
-9.34249e-09
9.76656e-08
-2.05589e-09
-6.99627e-09
9.65022e-08
-2.25854e-09
-4.39079e-09
9.56054e-08
-2.4066e-09
-1.62458e-09
9.50422e-08
-2.4975e-09
1.19456e-09
9.48517e-08
-2.5285e-09
3.96653e-09
9.5048e-08
-2.49875e-09
6.58105e-09
9.56169e-08
-2.40907e-09
8.94048e-09
9.65193e-08
-2.26218e-09
1.09543e-08
9.76883e-08
-2.06063e-09
1.25409e-08
9.9032e-08
-1.80742e-09
1.36288e-08
1.00431e-07
-1.50828e-09
1.41766e-08
1.01743e-07
-1.17668e-09
1.41672e-08