/*--------------------------------*- C++ -*----------------------------------*\
| =========                 |                                                 |
| \\      /  F ield         | OpenFOAM: The Open Source CFD Toolbox           |
|  \\    /   O peration     | Version:  v1912                                 |
|   \\  /    A nd           | Website:  www.openfoam.com                      |
|    \\/     M anipulation  |                                                 |
\*---------------------------------------------------------------------------*/
FoamFile
{
    version     2.0;
    format      ascii;
    class       volVectorField;
    location    "478/oil";
    object      U;
}
// * * * * * * * * * * * * * * * * * * * * * * * * * * * * * * * * * * * * * //

dimensions      [0 1 -1 0 0 0 0];


internalField   nonuniform List<vector> 
35580
(
(-1.23923e-09 2.46681e-09 -1.26375e-09)
(1.26109e-09 2.24294e-09 -3.03479e-09)
(1.16342e-08 2.21243e-09 -4.88109e-09)
(2.79728e-08 2.76248e-09 -6.75046e-09)
(4.78386e-08 3.64062e-09 -8.25601e-09)
(6.84498e-08 4.67473e-09 -9.26963e-09)
(8.72333e-08 5.76627e-09 -9.78144e-09)
(1.01955e-07 6.86885e-09 -9.84894e-09)
(1.10789e-07 7.95402e-09 -9.55914e-09)
(1.12521e-07 8.99298e-09 -8.99395e-09)
(1.06485e-07 9.93154e-09 -8.22742e-09)
(9.2734e-08 1.07258e-08 -7.46224e-09)
(7.21012e-08 1.13481e-08 -6.75143e-09)
(4.58809e-08 1.1821e-08 -6.24463e-09)
(1.60927e-08 1.20813e-08 -5.97952e-09)
(-1.49973e-08 1.21126e-08 -5.98484e-09)
(-4.48755e-08 1.18405e-08 -6.24436e-09)
(-7.11511e-08 1.13594e-08 -6.73614e-09)
(-9.19121e-08 1.06979e-08 -7.41608e-09)
(-1.05792e-07 9.9187e-09 -8.19184e-09)
(-1.12045e-07 8.99569e-09 -8.95029e-09)
(-1.10484e-07 7.94415e-09 -9.54087e-09)
(-1.01753e-07 6.85828e-09 -9.82993e-09)
(-8.71289e-08 5.75863e-09 -9.77179e-09)
(-6.84161e-08 4.66679e-09 -9.26203e-09)
(-4.78619e-08 3.63588e-09 -8.24894e-09)
(-2.80306e-08 2.75818e-09 -6.73955e-09)
(-1.16998e-08 2.20183e-09 -4.8597e-09)
(-1.31717e-09 2.22042e-09 -3.00821e-09)
(1.21381e-09 2.42094e-09 -1.24434e-09)
(6.35807e-10 -2.30801e-09 6.21034e-10)
(1.27729e-08 -1.41317e-08 5.35476e-10)
(3.72185e-08 -2.35713e-08 -3.20606e-10)
(7.128e-08 -2.86941e-08 -1.43983e-09)
(1.10916e-07 -3.03188e-08 -2.26568e-09)
(1.51367e-07 -2.93195e-08 -2.55063e-09)
(1.87863e-07 -2.64182e-08 -2.23707e-09)
(2.16102e-07 -2.21563e-08 -1.36776e-09)
(2.32521e-07 -1.69929e-08 -4.60553e-11)
(2.34613e-07 -1.13592e-08 1.57582e-09)
(2.21001e-07 -5.70537e-09 3.47416e-09)
(1.91716e-07 -5.20393e-10 5.25434e-09)
(1.48572e-07 3.75756e-09 6.81865e-09)
(9.4407e-08 6.88203e-09 7.9418e-09)
(3.30888e-08 8.53973e-09 8.53469e-09)
(-3.08786e-08 8.57491e-09 8.55394e-09)
(-9.24012e-08 6.84914e-09 7.9693e-09)
(-1.46662e-07 3.66266e-09 6.88064e-09)
(-1.8982e-07 -7.08861e-10 5.356e-09)
(-2.19197e-07 -5.83564e-09 3.57736e-09)
(-2.33178e-07 -1.14815e-08 1.71078e-09)
(-2.31399e-07 -1.7106e-08 4.7821e-11)
(-2.15236e-07 -2.22333e-08 -1.27918e-09)
(-1.8728e-07 -2.64666e-08 -2.16716e-09)
(-1.5103e-07 -2.93674e-08 -2.49215e-09)
(-1.10777e-07 -3.03836e-08 -2.21314e-09)
(-7.1284e-08 -2.87935e-08 -1.39717e-09)
(-3.72745e-08 -2.37078e-08 -2.83941e-10)
(-1.2807e-08 -1.42724e-08 5.55872e-10)
(-6.4238e-10 -2.42633e-09 6.11087e-10)
(2.4954e-09 -2.279e-08 2.49244e-09)
(2.50726e-08 -6.03542e-08 4.41514e-09)
(6.13792e-08 -8.81826e-08 4.82097e-09)
(1.08071e-07 -1.05884e-07 4.76058e-09)
(1.60236e-07 -1.15308e-07 4.85557e-09)
(2.12422e-07 -1.1824e-07 5.39253e-09)
(2.58899e-07 -1.16222e-07 6.47374e-09)
(2.94346e-07 -1.10509e-07 8.08991e-09)
(3.14285e-07 -1.0219e-07 1.01401e-08)
(3.15536e-07 -9.2277e-08 1.24436e-08)
(2.96264e-07 -8.17841e-08 1.49854e-08)
(2.56416e-07 -7.18045e-08 1.73397e-08)
(1.98373e-07 -6.34322e-08 1.93306e-08)
(1.2591e-07 -5.73683e-08 2.07703e-08)
(4.40987e-08 -5.41612e-08 2.15348e-08)
(-4.12526e-08 -5.41744e-08 2.15853e-08)
(-1.23393e-07 -5.7528e-08 2.08092e-08)
(-1.95978e-07 -6.37773e-08 1.93888e-08)
(-2.53968e-07 -7.22757e-08 1.73979e-08)
(-2.94018e-07 -8.21879e-08 1.50856e-08)
(-3.13767e-07 -9.26422e-08 1.25697e-08)
(-3.12891e-07 -1.02463e-07 1.02227e-08)
(-2.9328e-07 -1.10696e-07 8.16881e-09)
(-2.5817e-07 -1.16353e-07 6.54582e-09)
(-2.11997e-07 -1.18355e-07 5.45742e-09)
(-1.60055e-07 -1.1545e-07 4.91946e-09)
(-1.08054e-07 -1.06086e-07 4.81486e-09)
(-6.14305e-08 -8.84481e-08 4.85816e-09)
(-2.51243e-08 -6.06062e-08 4.42023e-09)
(-2.51682e-09 -2.29472e-08 2.46784e-09)
(3.9899e-09 -5.65146e-08 3.97959e-09)
(3.5386e-08 -1.31752e-07 7.37617e-09)
(8.16176e-08 -1.84741e-07 8.64631e-09)
(1.38253e-07 -2.1993e-07 9.29557e-09)
(1.99623e-07 -2.41039e-07 1.00525e-08)
(2.59881e-07 -2.50968e-07 1.1198e-08)
(3.12839e-07 -2.52161e-07 1.28438e-08)
(3.52687e-07 -2.46659e-07 1.49913e-08)
(3.74448e-07 -2.36289e-07 1.75475e-08)
(3.74509e-07 -2.22758e-07 2.03263e-08)
(3.50716e-07 -2.07788e-07 2.32637e-08)
(3.03024e-07 -1.93027e-07 2.59894e-08)
(2.34198e-07 -1.80342e-07 2.83125e-08)
(1.48479e-07 -1.71016e-07 2.99525e-08)
(5.19575e-08 -1.66103e-07 3.08108e-08)
(-4.87419e-08 -1.66176e-07 3.08752e-08)
(-1.45693e-07 -1.71224e-07 2.997e-08)
(-2.31472e-07 -1.80688e-07 2.83247e-08)
(-3.0025e-07 -1.93404e-07 2.60164e-08)
(-3.48167e-07 -2.08108e-07 2.33305e-08)
(-3.72412e-07 -2.23047e-07 2.03865e-08)
(-3.72752e-07 -2.36498e-07 1.75811e-08)
(-3.51377e-07 -2.46804e-07 1.50286e-08)
(-3.11903e-07 -2.5226e-07 1.28825e-08)
(-2.59288e-07 -2.5107e-07 1.12418e-08)
(-1.99338e-07 -2.41197e-07 1.01043e-08)
(-1.38188e-07 -2.20179e-07 9.33483e-09)
(-8.16507e-08 -1.85052e-07 8.65669e-09)
(-3.54517e-08 -1.32016e-07 7.35167e-09)
(-4.02601e-09 -5.67191e-08 3.93942e-09)
(5.04846e-09 -1.00653e-07 5.03637e-09)
(4.31725e-08 -2.22989e-07 9.42359e-09)
(9.722e-08 -3.06263e-07 1.12404e-08)
(1.61639e-07 -3.62328e-07 1.23333e-08)
(2.30022e-07 -3.97787e-07 1.35014e-08)
(2.96227e-07 -4.16979e-07 1.50649e-08)
(3.538e-07 -4.23345e-07 1.71188e-08)
(3.96676e-07 -4.19731e-07 1.96786e-08)
(4.19592e-07 -4.08707e-07 2.26488e-08)
(4.18677e-07 -3.92693e-07 2.58466e-08)
(3.91575e-07 -3.74112e-07 2.91221e-08)
(3.38132e-07 -3.55178e-07 3.21909e-08)
(2.61185e-07 -3.38482e-07 3.4833e-08)
(1.65473e-07 -3.25944e-07 3.66584e-08)
(5.78788e-08 -3.1936e-07 3.76128e-08)
(-5.43753e-08 -3.19467e-07 3.76909e-08)
(-1.62462e-07 -3.26112e-07 3.66818e-08)
(-2.58112e-07 -3.38606e-07 3.48366e-08)
(-3.35057e-07 -3.55278e-07 3.22478e-08)
(-3.88786e-07 -3.74175e-07 2.91892e-08)
(-4.16363e-07 -3.92751e-07 2.58955e-08)
(-4.17728e-07 -4.08751e-07 2.26851e-08)
(-3.9523e-07 -4.19778e-07 1.97193e-08)
(-3.52747e-07 -4.23396e-07 1.71595e-08)
(-2.95526e-07 -4.17067e-07 1.5101e-08)
(-2.29639e-07 -3.97939e-07 1.35373e-08)
(-1.61515e-07 -3.62577e-07 1.23452e-08)
(-9.7238e-08 -3.06547e-07 1.12114e-08)
(-4.326e-08 -2.23144e-07 9.34793e-09)
(-5.10606e-09 -1.00893e-07 4.97247e-09)
(5.7251e-09 -1.52197e-07 5.73929e-09)
(4.85061e-08 -3.28509e-07 1.07394e-08)
(1.08214e-07 -4.45891e-07 1.28644e-08)
(1.78326e-07 -5.25268e-07 1.4216e-08)
(2.51809e-07 -5.7695e-07 1.56379e-08)
(3.22316e-07 -6.07112e-07 1.74816e-08)
(3.83232e-07 -6.20308e-07 1.98464e-08)
(4.28343e-07 -6.20205e-07 2.27596e-08)
(4.52205e-07 -6.10088e-07 2.61154e-08)
(4.50739e-07 -5.93034e-07 2.97365e-08)
(4.21511e-07 -5.72139e-07 3.33911e-08)
(3.64153e-07 -5.50221e-07 3.68676e-08)
(2.81246e-07 -5.30324e-07 3.98562e-08)
(1.78132e-07 -5.15028e-07 4.19126e-08)
(6.22663e-08 -5.06967e-07 4.29713e-08)
(-5.85667e-08 -5.07059e-07 4.30448e-08)
(-1.7498e-07 -5.15172e-07 4.19204e-08)
(-2.77931e-07 -5.30232e-07 3.98553e-08)
(-3.60853e-07 -5.50168e-07 3.69585e-08)
(-4.18554e-07 -5.7207e-07 3.34778e-08)
(-4.48292e-07 -5.92969e-07 2.98042e-08)
(-4.50242e-07 -6.1004e-07 2.61735e-08)
(-4.26821e-07 -6.202e-07 2.28162e-08)
(-3.82119e-07 -6.20338e-07 1.99081e-08)
(-3.21555e-07 -6.07194e-07 1.75284e-08)
(-2.51359e-07 -5.77082e-07 1.56748e-08)
(-1.78144e-07 -5.25464e-07 1.42123e-08)
(-1.08215e-07 -4.46077e-07 1.28009e-08)
(-4.86275e-08 -3.28506e-07 1.06173e-08)
(-5.81003e-09 -1.52461e-07 5.6534e-09)
(6.11186e-09 -2.08446e-07 6.1329e-09)
(5.16587e-08 -4.4338e-07 1.14649e-08)
(1.14827e-07 -5.97471e-07 1.3774e-08)
(1.88435e-07 -7.01823e-07 1.5269e-08)
(2.65061e-07 -7.71119e-07 1.68497e-08)
(3.38232e-07 -8.13668e-07 1.89069e-08)
(4.01278e-07 -8.35273e-07 2.15329e-08)
(4.4792e-07 -8.40433e-07 2.47711e-08)
(4.72603e-07 -8.3309e-07 2.85016e-08)
(4.71088e-07 -8.16893e-07 3.25479e-08)
(4.40848e-07 -7.95484e-07 3.66229e-08)
(3.81279e-07 -7.72277e-07 4.05164e-08)
(2.94622e-07 -7.50572e-07 4.38923e-08)
(1.86605e-07 -7.33284e-07 4.62006e-08)
(6.51829e-08 -7.24047e-07 4.73409e-08)
(-6.13446e-08 -7.24089e-07 4.74165e-08)
(-1.83376e-07 -7.3348e-07 4.61859e-08)
(-2.91203e-07 -7.50391e-07 4.39078e-08)
(-3.77869e-07 -7.72216e-07 4.06468e-08)
(-4.37806e-07 -7.95419e-07 3.67449e-08)
(-4.68582e-07 -8.16823e-07 3.26467e-08)
(-4.70604e-07 -8.33048e-07 2.85864e-08)
(-4.46369e-07 -8.40443e-07 2.48461e-08)
(-4.00142e-07 -8.35319e-07 2.16092e-08)
(-3.37445e-07 -8.13747e-07 1.89588e-08)
(-2.64572e-07 -7.71214e-07 1.68892e-08)
(-1.8821e-07 -7.01918e-07 1.52479e-08)
(-1.14803e-07 -5.97448e-07 1.367e-08)
(-5.17909e-08 -4.4313e-07 1.13122e-08)
(-6.20517e-09 -2.08778e-07 6.04151e-09)
(6.22914e-09 -2.66979e-07 6.27559e-09)
(5.27531e-08 -5.62985e-07 1.17242e-08)
(1.17143e-07 -7.5515e-07 1.41104e-08)
(1.91913e-07 -8.85435e-07 1.56829e-08)
(2.69519e-07 -9.73347e-07 1.7357e-08)
(3.43499e-07 -1.02956e-06 1.95649e-08)
(4.07253e-07 -1.06118e-06 2.2417e-08)
(4.54562e-07 -1.07356e-06 2.59498e-08)
(4.79845e-07 -1.07121e-06 3.0038e-08)
(4.78744e-07 -1.05822e-06 3.45083e-08)
(4.48612e-07 -1.03869e-06 3.90374e-08)
(3.88616e-07 -1.01642e-06 4.33294e-08)
(3.00499e-07 -9.94733e-07 4.71146e-08)
(1.90213e-07 -9.76387e-07 4.96976e-08)
(6.63819e-08 -9.66572e-07 5.09537e-08)
(-6.26123e-08 -9.66783e-07 5.10785e-08)
(-1.87085e-07 -9.76911e-07 4.97037e-08)
(-2.97144e-07 -9.94692e-07 4.71743e-08)
(-3.85202e-07 -1.01647e-06 4.34658e-08)
(-4.45572e-07 -1.03873e-06 3.91514e-08)
(-4.76224e-07 -1.05823e-06 3.46043e-08)
(-4.7783e-07 -1.07123e-06 3.01218e-08)
(-4.52992e-07 -1.07364e-06 2.60224e-08)
(-4.06087e-07 -1.06131e-06 2.24941e-08)
(-3.4267e-07 -1.02969e-06 1.9619e-08)
(-2.68984e-07 -9.73457e-07 1.73776e-08)
(-1.91642e-07 -8.85445e-07 1.56231e-08)
(-1.17091e-07 -7.54889e-07 1.39763e-08)
(-5.28781e-08 -5.62469e-07 1.15699e-08)
(-6.33047e-09 -2.67473e-07 6.19534e-09)
(6.12841e-09 -3.25637e-07 6.17411e-09)
(5.18804e-08 -6.82837e-07 1.15263e-08)
(1.15126e-07 -9.13281e-07 1.38984e-08)
(1.88484e-07 -1.06976e-06 1.55259e-08)
(2.6459e-07 -1.17676e-06 1.7261e-08)
(3.37192e-07 -1.24761e-06 1.95313e-08)
(3.99894e-07 -1.29077e-06 2.25227e-08)
(4.46684e-07 -1.31237e-06 2.62668e-08)
(4.72087e-07 -1.31737e-06 3.06308e-08)
(4.71694e-07 -1.31021e-06 3.54505e-08)
(4.42731e-07 -1.29519e-06 4.0375e-08)
(3.84239e-07 -1.27619e-06 4.50117e-08)
(2.97414e-07 -1.25661e-06 4.91011e-08)
(1.88111e-07 -1.23887e-06 5.19862e-08)
(6.56677e-08 -1.22963e-06 5.34505e-08)
(-6.20026e-08 -1.22986e-06 5.35714e-08)
(-1.85077e-07 -1.23929e-06 5.19326e-08)
(-2.94143e-07 -1.2565e-06 4.91459e-08)
(-3.8085e-07 -1.2763e-06 4.51341e-08)
(-4.39758e-07 -1.29533e-06 4.04785e-08)
(-4.69211e-07 -1.31031e-06 3.55495e-08)
(-4.70113e-07 -1.31748e-06 3.07184e-08)
(-4.45147e-07 -1.31255e-06 2.6339e-08)
(-3.98729e-07 -1.29101e-06 2.25936e-08)
(-3.36343e-07 -1.24783e-06 1.9561e-08)
(-2.64039e-07 -1.17684e-06 1.72087e-08)
(-1.88176e-07 -1.0695e-06 1.54011e-08)
(-1.15023e-07 -9.12569e-07 1.37456e-08)
(-5.19541e-08 -6.8199e-07 1.13776e-08)
(-6.21036e-09 -3.2622e-07 6.09203e-09)
(5.80587e-09 -3.82187e-07 5.79857e-09)
(4.89995e-08 -7.98397e-07 1.08281e-08)
(1.08666e-07 -1.06602e-06 1.30661e-08)
(1.77844e-07 -1.24826e-06 1.4693e-08)
(2.49676e-07 -1.37425e-06 1.64823e-08)
(3.18333e-07 -1.46009e-06 1.87647e-08)
(3.77854e-07 -1.51591e-06 2.17712e-08)
(4.22594e-07 -1.54844e-06 2.55854e-08)
(4.47366e-07 -1.56298e-06 3.00545e-08)
(4.47827e-07 -1.5641e-06 3.50409e-08)
(4.21097e-07 -1.55616e-06 4.01893e-08)
(3.66078e-07 -1.54281e-06 4.5064e-08)
(2.83608e-07 -1.52717e-06 4.92284e-08)
(1.7922e-07 -1.51177e-06 5.23098e-08)
(6.25912e-08 -1.5043e-06 5.40075e-08)
(-5.9251e-08 -1.50452e-06 5.41311e-08)
(-1.76439e-07 -1.51185e-06 5.22516e-08)
(-2.80384e-07 -1.52631e-06 4.92498e-08)
(-3.62693e-07 -1.54236e-06 4.51863e-08)
(-4.18211e-07 -1.5562e-06 4.02838e-08)
(-4.45376e-07 -1.56427e-06 3.51434e-08)
(-4.45445e-07 -1.56317e-06 3.01404e-08)
(-4.21119e-07 -1.54875e-06 2.56511e-08)
(-3.76708e-07 -1.51632e-06 2.18482e-08)
(-3.17465e-07 -1.46038e-06 1.87869e-08)
(-2.49073e-07 -1.37406e-06 1.64316e-08)
(-1.7744e-07 -1.24746e-06 1.46636e-08)
(-1.08427e-07 -1.06479e-06 1.30765e-08)
(-4.89643e-08 -7.97317e-07 1.08399e-08)
(-5.84474e-09 -3.82877e-07 5.7919e-09)
(5.25629e-09 -4.34285e-07 5.17367e-09)
(4.40528e-08 -9.04734e-07 9.70363e-09)
(9.76609e-08 -1.20688e-06 1.16971e-08)
(1.59751e-07 -1.41363e-06 1.31939e-08)
(2.24297e-07 -1.55799e-06 1.49638e-08)
(2.86164e-07 -1.65852e-06 1.71994e-08)
(3.401e-07 -1.72741e-06 2.00887e-08)
(3.80967e-07 -1.77196e-06 2.37582e-08)
(4.0407e-07 -1.79756e-06 2.80524e-08)
(4.05278e-07 -1.80877e-06 3.29267e-08)
(3.81604e-07 -1.80969e-06 3.80299e-08)
(3.32066e-07 -1.80343e-06 4.2894e-08)
(2.57536e-07 -1.79347e-06 4.69147e-08)
(1.62952e-07 -1.78286e-06 5.00174e-08)
(5.69767e-08 -1.77791e-06 5.17837e-08)
(-5.39847e-08 -1.77819e-06 5.1941e-08)
(-1.60423e-07 -1.78281e-06 5.00306e-08)
(-2.54468e-07 -1.79245e-06 4.68386e-08)
(-3.29066e-07 -1.80316e-06 4.29015e-08)
(-3.79088e-07 -1.80986e-06 3.80332e-08)
(-4.02968e-07 -1.80905e-06 3.30166e-08)
(-4.02261e-07 -1.7978e-06 2.8145e-08)
(-3.79622e-07 -1.77236e-06 2.38144e-08)
(-3.39066e-07 -1.72799e-06 2.01793e-08)
(-2.85419e-07 -1.65872e-06 1.72246e-08)
(-2.23766e-07 -1.55707e-06 1.49091e-08)
(-1.59303e-07 -1.41181e-06 1.31316e-08)
(-9.72742e-08 -1.20486e-06 1.15859e-08)
(-4.38867e-08 -9.03221e-07 9.57963e-09)
(-5.20845e-09 -4.34877e-07 5.14727e-09)
(4.45191e-09 -4.79623e-07 4.30533e-09)
(3.69747e-08 -9.96804e-07 8.10313e-09)
(8.19199e-08 -1.3286e-06 9.81343e-09)
(1.34205e-07 -1.5573e-06 1.11596e-08)
(1.88577e-07 -1.7189e-06 1.27869e-08)
(2.40717e-07 -1.8335e-06 1.48903e-08)
(2.86458e-07 -1.91505e-06 1.75313e-08)
(3.21425e-07 -1.9718e-06 2.0796e-08)
(3.41629e-07 -2.00899e-06 2.45544e-08)
(3.43273e-07 -2.03067e-06 2.88824e-08)
(3.23526e-07 -2.04037e-06 3.34004e-08)
(2.81591e-07 -2.04185e-06 3.77135e-08)
(2.18488e-07 -2.03932e-06 4.1471e-08)
(1.38642e-07 -2.03535e-06 4.44852e-08)
(4.8546e-08 -2.03353e-06 4.61713e-08)
(-4.599e-08 -2.03367e-06 4.63378e-08)
(-1.36549e-07 -2.03508e-06 4.46922e-08)
(-2.1601e-07 -2.03916e-06 4.17357e-08)
(-2.79251e-07 -2.04389e-06 3.82128e-08)
(-3.21356e-07 -2.04201e-06 3.37076e-08)
(-3.41125e-07 -2.03132e-06 2.90847e-08)
(-3.39984e-07 -2.00913e-06 2.4598e-08)
(-3.20295e-07 -1.97213e-06 2.05887e-08)
(-2.85562e-07 -1.91559e-06 1.72284e-08)
(-2.4e-07 -1.83327e-06 1.45289e-08)
(-1.87893e-07 -1.71719e-06 1.24729e-08)
(-1.33608e-07 -1.5549e-06 1.09601e-08)
(-8.15682e-08 -1.32645e-06 9.70618e-09)
(-3.68552e-08 -9.95024e-07 8.06625e-09)
(-4.3932e-09 -4.80012e-07 4.36722e-09)
(3.48306e-09 -5.15767e-07 3.13876e-09)
(2.82601e-08 -1.06989e-06 5.87058e-09)
(6.21362e-08 -1.42507e-06 7.18319e-09)
(1.01811e-07 -1.67137e-06 8.22454e-09)
(1.43209e-07 -1.84755e-06 9.41472e-09)
(1.82994e-07 -1.97495e-06 1.1047e-08)
(2.17946e-07 -2.06799e-06 1.32221e-08)
(2.448e-07 -2.13574e-06 1.60248e-08)
(2.60831e-07 -2.18346e-06 1.92463e-08)
(2.62696e-07 -2.21438e-06 2.278e-08)
(2.47602e-07 -2.23252e-06 2.6228e-08)
(2.15298e-07 -2.2431e-06 2.96813e-08)
(1.67419e-07 -2.2492e-06 3.30186e-08)
(1.06749e-07 -2.25106e-06 3.55243e-08)
(3.76371e-08 -2.25166e-06 3.68117e-08)
(-3.48894e-08 -2.25103e-06 3.67057e-08)
(-1.04617e-07 -2.24927e-06 3.53083e-08)
(-1.65547e-07 -2.2479e-06 3.28098e-08)
(-2.13899e-07 -2.24544e-06 2.98033e-08)
(-2.45796e-07 -2.23441e-06 2.62225e-08)
(-2.60566e-07 -2.21485e-06 2.25995e-08)
(-2.59341e-07 -2.18316e-06 1.9089e-08)
(-2.43935e-07 -2.13568e-06 1.59233e-08)
(-2.17159e-07 -2.06805e-06 1.32354e-08)
(-1.82379e-07 -1.97427e-06 1.10857e-08)
(-1.42773e-07 -1.84612e-06 9.4763e-09)
(-1.01562e-07 -1.67024e-06 8.32116e-09)
(-6.19984e-08 -1.42482e-06 7.37546e-09)
(-2.79829e-08 -1.06947e-06 6.12523e-09)
(-3.34547e-09 -5.16653e-07 3.2931e-09)
(2.20751e-09 -5.41567e-07 2.03889e-09)
(1.78622e-08 -1.12154e-06 3.77636e-09)
(3.92264e-08 -1.49328e-06 4.51419e-09)
(6.43177e-08 -1.75105e-06 5.05508e-09)
(9.02813e-08 -1.93694e-06 5.7535e-09)
(1.15199e-07 -2.07371e-06 6.82268e-09)
(1.37126e-07 -2.17557e-06 8.28284e-09)
(1.53912e-07 -2.25182e-06 1.01844e-08)
(1.6421e-07 -2.30778e-06 1.24236e-08)
(1.65836e-07 -2.34614e-06 1.47969e-08)
(1.56501e-07 -2.37237e-06 1.71448e-08)
(1.36337e-07 -2.3913e-06 1.96048e-08)
(1.06359e-07 -2.40432e-06 2.18868e-08)
(6.8042e-08 -2.41068e-06 2.35864e-08)
(2.43075e-08 -2.41298e-06 2.43622e-08)
(-2.14974e-08 -2.41068e-06 2.39622e-08)
(-6.58246e-08 -2.40569e-06 2.28752e-08)
(-1.04263e-07 -2.39947e-06 2.1019e-08)
(-1.34684e-07 -2.38979e-06 1.86896e-08)
(-1.55108e-07 -2.37068e-06 1.61553e-08)
(-1.64664e-07 -2.34341e-06 1.37726e-08)
(-1.63835e-07 -2.30411e-06 1.1693e-08)
(-1.53956e-07 -2.24943e-06 9.87086e-09)
(-1.3691e-07 -2.17516e-06 8.35739e-09)
(-1.14787e-07 -2.0743e-06 7.1247e-09)
(-8.96814e-08 -1.9377e-06 6.12912e-09)
(-6.37022e-08 -1.7518e-06 5.39586e-09)
(-3.88425e-08 -1.49397e-06 4.773e-09)
(-1.75226e-08 -1.12161e-06 3.93878e-09)
(-2.11254e-09 -5.42244e-07 2.07115e-09)
(8.14061e-10 -5.55052e-07 6.43609e-10)
(6.25393e-09 -1.14809e-06 1.28324e-09)
(1.36599e-08 -1.52904e-06 1.61291e-09)
(2.25639e-08 -1.79336e-06 1.83011e-09)
(3.172e-08 -1.98461e-06 2.11585e-09)
(4.05598e-08 -2.12589e-06 2.56249e-09)
(4.85672e-08 -2.23124e-06 3.09193e-09)
(5.47751e-08 -2.31022e-06 3.62709e-09)
(5.85028e-08 -2.36989e-06 4.31837e-09)
(5.90559e-08 -2.41387e-06 5.26624e-09)
(5.57182e-08 -2.44637e-06 6.25282e-09)
(4.87223e-08 -2.47024e-06 7.16468e-09)
(3.80408e-08 -2.48629e-06 7.86669e-09)
(2.44509e-08 -2.49537e-06 8.6088e-09)
(9.17345e-09 -2.49974e-06 8.96512e-09)
(-6.98336e-09 -2.49742e-06 8.67919e-09)
(-2.31967e-08 -2.49117e-06 8.32317e-09)
(-3.67173e-08 -2.48256e-06 7.6472e-09)
(-4.72196e-08 -2.46924e-06 6.6868e-09)
(-5.43839e-08 -2.44543e-06 5.74427e-09)
(-5.77338e-08 -2.41241e-06 4.87947e-09)
(-5.7574e-08 -2.36745e-06 4.12044e-09)
(-5.42656e-08 -2.30833e-06 3.41659e-09)
(-4.83889e-08 -2.23073e-06 2.85199e-09)
(-4.05979e-08 -2.12649e-06 2.43964e-09)
(-3.16412e-08 -1.98567e-06 2.09954e-09)
(-2.23993e-08 -1.79452e-06 1.84096e-09)
(-1.36021e-08 -1.53017e-06 1.62576e-09)
(-6.09079e-09 -1.14882e-06 1.37967e-09)
(-6.97585e-10 -5.55596e-07 7.39543e-10)
(-5.85967e-10 -5.55603e-07 -6.90703e-10)
(-5.44056e-09 -1.14907e-06 -1.25177e-09)
(-1.22316e-08 -1.53058e-06 -1.46977e-09)
(-1.99598e-08 -1.79515e-06 -1.65394e-09)
(-2.80551e-08 -1.9866e-06 -1.89e-09)
(-3.58516e-08 -2.1282e-06 -2.22477e-09)
(-4.27346e-08 -2.23394e-06 -2.66066e-09)
(-4.81633e-08 -2.31324e-06 -3.2016e-09)
(-5.13327e-08 -2.37289e-06 -3.88324e-09)
(-5.14994e-08 -2.41649e-06 -4.63945e-09)
(-4.82868e-08 -2.44885e-06 -5.58387e-09)
(-4.19471e-08 -2.47268e-06 -6.62725e-09)
(-3.30292e-08 -2.4884e-06 -7.49657e-09)
(-2.1542e-08 -2.49778e-06 -7.83709e-09)
(-7.67723e-09 -2.50205e-06 -7.86766e-09)
(7.19206e-09 -2.49947e-06 -7.75941e-09)
(2.08163e-08 -2.49408e-06 -7.24151e-09)
(3.34231e-08 -2.48572e-06 -6.61e-09)
(4.30651e-08 -2.47176e-06 -6.05824e-09)
(4.8961e-08 -2.4478e-06 -5.18741e-09)
(5.20424e-08 -2.41481e-06 -4.26966e-09)
(5.1998e-08 -2.36971e-06 -3.40926e-09)
(4.90732e-08 -2.31042e-06 -2.8684e-09)
(4.37074e-08 -2.23245e-06 -2.52821e-09)
(3.65445e-08 -2.12782e-06 -2.18124e-09)
(2.85762e-08 -1.9867e-06 -1.90765e-09)
(2.03225e-08 -1.7953e-06 -1.67754e-09)
(1.24212e-08 -1.53082e-06 -1.45464e-09)
(5.66416e-09 -1.14934e-06 -1.12477e-09)
(7.32034e-10 -5.55889e-07 -5.65809e-10)
(-2.03358e-09 -5.42999e-07 -2.01227e-09)
(-1.69687e-08 -1.12332e-06 -3.81154e-09)
(-3.76122e-08 -1.49648e-06 -4.63259e-09)
(-6.16004e-08 -1.75493e-06 -5.24859e-09)
(-8.66886e-08 -1.94153e-06 -5.96846e-09)
(-1.10899e-07 -2.07922e-06 -6.93497e-09)
(-1.32122e-07 -2.18174e-06 -8.21049e-09)
(-1.48365e-07 -2.25796e-06 -9.87376e-09)
(-1.5786e-07 -2.31406e-06 -1.19414e-08)
(-1.58927e-07 -2.35276e-06 -1.41093e-08)
(-1.49792e-07 -2.37951e-06 -1.65071e-08)
(-1.30387e-07 -2.39875e-06 -1.9042e-08)
(-1.01983e-07 -2.41184e-06 -2.12291e-08)
(-6.55271e-08 -2.41956e-06 -2.26244e-08)
(-2.29296e-08 -2.42255e-06 -2.31629e-08)
(2.1866e-08 -2.41928e-06 -2.28502e-08)
(6.41496e-08 -2.4153e-06 -2.18249e-08)
(1.0188e-07 -2.40971e-06 -2.01672e-08)
(1.30952e-07 -2.39809e-06 -1.83009e-08)
(1.49821e-07 -2.37811e-06 -1.58877e-08)
(1.5935e-07 -2.35044e-06 -1.35923e-08)
(1.58524e-07 -2.31077e-06 -1.13717e-08)
(1.48651e-07 -2.2551e-06 -9.45898e-09)
(1.32241e-07 -2.17964e-06 -7.8649e-09)
(1.11032e-07 -2.07826e-06 -6.56337e-09)
(8.70751e-08 -1.94137e-06 -5.59269e-09)
(6.20416e-08 -1.7551e-06 -4.85574e-09)
(3.79678e-08 -1.497e-06 -4.28204e-09)
(1.73156e-08 -1.12402e-06 -3.52253e-09)
(2.18385e-09 -5.43187e-07 -1.90513e-09)
(-3.32474e-09 -5.18014e-07 -3.20247e-09)
(-2.75358e-08 -1.07249e-06 -5.9825e-09)
(-6.08953e-08 -1.42907e-06 -7.2504e-09)
(-9.97365e-08 -1.6754e-06 -8.18781e-09)
(-1.40219e-07 -1.85211e-06 -9.31394e-09)
(-1.79179e-07 -1.98118e-06 -1.08605e-08)
(-2.13413e-07 -2.07595e-06 -1.2921e-08)
(-2.39746e-07 -2.14469e-06 -1.55897e-08)
(-2.55086e-07 -2.19344e-06 -1.88382e-08)
(-2.56639e-07 -2.22518e-06 -2.22655e-08)
(-2.41927e-07 -2.24392e-06 -2.57895e-08)
(-2.10335e-07 -2.25478e-06 -2.91813e-08)
(-1.6383e-07 -2.26148e-06 -3.23099e-08)
(-1.04876e-07 -2.265e-06 -3.46624e-08)
(-3.67339e-08 -2.26642e-06 -3.58561e-08)
(3.48817e-08 -2.26386e-06 -3.55693e-08)
(1.03164e-07 -2.26242e-06 -3.4213e-08)
(1.63778e-07 -2.26159e-06 -3.18885e-08)
(2.1075e-07 -2.25526e-06 -2.90294e-08)
(2.41778e-07 -2.24284e-06 -2.5537e-08)
(2.56978e-07 -2.22342e-06 -2.20806e-08)
(2.55911e-07 -2.19236e-06 -1.86837e-08)
(2.40416e-07 -2.14473e-06 -1.56548e-08)
(2.14e-07 -2.07653e-06 -1.29876e-08)
(1.79606e-07 -1.98245e-06 -1.08471e-08)
(1.40471e-07 -1.8537e-06 -9.23043e-09)
(9.98197e-08 -1.67665e-06 -7.92319e-09)
(6.10777e-08 -1.43024e-06 -6.91409e-09)
(2.78671e-08 -1.07368e-06 -5.65796e-09)
(3.48549e-09 -5.17908e-07 -3.04872e-09)
(-4.42859e-09 -4.81964e-07 -4.2277e-09)
(-3.65946e-08 -9.99314e-07 -7.88923e-09)
(-8.07824e-08 -1.33212e-06 -9.59181e-09)
(-1.3231e-07 -1.56152e-06 -1.08797e-08)
(-1.86042e-07 -1.72475e-06 -1.23831e-08)
(-2.37706e-07 -1.84181e-06 -1.44189e-08)
(-2.82957e-07 -1.92512e-06 -1.7092e-08)
(-3.17486e-07 -1.98275e-06 -2.03991e-08)
(-3.3727e-07 -2.02098e-06 -2.4317e-08)
(-3.38812e-07 -2.04388e-06 -2.85853e-08)
(-3.19323e-07 -2.05462e-06 -3.30964e-08)
(-2.77756e-07 -2.05675e-06 -3.73173e-08)
(-2.15723e-07 -2.0551e-06 -4.0999e-08)
(-1.37291e-07 -2.05309e-06 -4.39587e-08)
(-4.762e-08 -2.05252e-06 -4.57328e-08)
(4.6131e-08 -2.05094e-06 -4.55903e-08)
(1.35742e-07 -2.0524e-06 -4.39265e-08)
(2.1552e-07 -2.05689e-06 -4.09564e-08)
(2.77835e-07 -2.05771e-06 -3.72792e-08)
(3.19012e-07 -2.05418e-06 -3.31478e-08)
(3.38658e-07 -2.04321e-06 -2.86714e-08)
(3.37677e-07 -2.02107e-06 -2.42694e-08)
(3.1802e-07 -1.98332e-06 -2.0503e-08)
(2.83499e-07 -1.92567e-06 -1.73046e-08)
(2.38198e-07 -1.84275e-06 -1.47294e-08)
(1.86513e-07 -1.72667e-06 -1.27156e-08)
(1.32702e-07 -1.56453e-06 -1.10577e-08)
(8.10026e-08 -1.33588e-06 -9.69205e-09)
(3.66442e-08 -1.00247e-06 -7.95962e-09)
(4.42716e-09 -4.82061e-07 -4.23295e-09)
(-5.22056e-09 -4.36967e-07 -5.13179e-09)
(-4.36807e-08 -9.08237e-07 -9.58674e-09)
(-9.66791e-08 -1.21122e-06 -1.15967e-08)
(-1.58438e-07 -1.41922e-06 -1.31061e-08)
(-2.22661e-07 -1.56558e-06 -1.48339e-08)
(-2.84216e-07 -1.66834e-06 -1.71282e-08)
(-3.37834e-07 -1.73874e-06 -2.00668e-08)
(-3.7843e-07 -1.78433e-06 -2.3693e-08)
(-4.0128e-07 -1.81106e-06 -2.80228e-08)
(-4.02408e-07 -1.82345e-06 -3.28387e-08)
(-3.78877e-07 -1.82537e-06 -3.79317e-08)
(-3.29578e-07 -1.82002e-06 -4.27404e-08)
(-2.55807e-07 -1.81093e-06 -4.67577e-08)
(-1.62208e-07 -1.80236e-06 -4.98706e-08)
(-5.59097e-08 -1.79831e-06 -5.1894e-08)
(5.46076e-08 -1.79716e-06 -5.18649e-08)
(1.60536e-07 -1.80185e-06 -5.01643e-08)
(2.54873e-07 -1.81222e-06 -4.70205e-08)
(3.28962e-07 -1.82075e-06 -4.27673e-08)
(3.78421e-07 -1.82572e-06 -3.79842e-08)
(4.02218e-07 -1.82368e-06 -3.28835e-08)
(4.01495e-07 -1.81148e-06 -2.79782e-08)
(3.78764e-07 -1.78495e-06 -2.36744e-08)
(3.38247e-07 -1.73943e-06 -2.00096e-08)
(2.8464e-07 -1.66929e-06 -1.70869e-08)
(2.23103e-07 -1.56735e-06 -1.48934e-08)
(1.58952e-07 -1.42243e-06 -1.31715e-08)
(9.71658e-08 -1.21547e-06 -1.16231e-08)
(4.39844e-08 -9.11651e-07 -9.59334e-09)
(5.28848e-09 -4.36986e-07 -5.11715e-09)
(-5.81297e-09 -3.84916e-07 -5.8099e-09)
(-4.88443e-08 -8.02602e-07 -1.08482e-08)
(-1.08232e-07 -1.07137e-06 -1.30793e-08)
(-1.77222e-07 -1.2552e-06 -1.46649e-08)
(-2.48862e-07 -1.38304e-06 -1.64168e-08)
(-3.17384e-07 -1.47053e-06 -1.87576e-08)
(-3.76801e-07 -1.52761e-06 -2.18221e-08)
(-4.21446e-07 -1.56121e-06 -2.56277e-08)
(-4.46093e-07 -1.57681e-06 -3.01245e-08)
(-4.46468e-07 -1.57902e-06 -3.51009e-08)
(-4.19686e-07 -1.57207e-06 -4.02828e-08)
(-3.64735e-07 -1.55993e-06 -4.5215e-08)
(-2.82962e-07 -1.54567e-06 -4.944e-08)
(-1.79225e-07 -1.53218e-06 -5.2512e-08)
(-6.17274e-08 -1.52458e-06 -5.43253e-08)
(6.00998e-08 -1.52357e-06 -5.41572e-08)
(1.77343e-07 -1.53094e-06 -5.25243e-08)
(2.81602e-07 -1.5454e-06 -4.94556e-08)
(3.63795e-07 -1.55984e-06 -4.51282e-08)
(4.19041e-07 -1.57223e-06 -4.02687e-08)
(4.46122e-07 -1.57924e-06 -3.51096e-08)
(4.46074e-07 -1.57723e-06 -3.01165e-08)
(4.21619e-07 -1.56178e-06 -2.56273e-08)
(3.77141e-07 -1.5283e-06 -2.17973e-08)
(3.17844e-07 -1.47137e-06 -1.87394e-08)
(2.49372e-07 -1.38418e-06 -1.64492e-08)
(1.77673e-07 -1.25708e-06 -1.47387e-08)
(1.08501e-07 -1.07411e-06 -1.3153e-08)
(4.89564e-08 -8.05123e-07 -1.08913e-08)
(5.78801e-09 -3.84964e-07 -5.81416e-09)
(-6.16344e-09 -3.28366e-07 -6.16768e-09)
(-5.19329e-08 -6.87155e-07 -1.14557e-08)
(-1.15223e-07 -9.19123e-07 -1.37773e-08)
(-1.88578e-07 -1.07725e-06 -1.54285e-08)
(-2.64667e-07 -1.18575e-06 -1.72362e-08)
(-3.37296e-07 -1.25784e-06 -1.95928e-08)
(-4.00044e-07 -1.30207e-06 -2.2641e-08)
(-4.46857e-07 -1.32467e-06 -2.64022e-08)
(-4.72225e-07 -1.33064e-06 -3.08087e-08)
(-4.7174e-07 -1.32445e-06 -3.56502e-08)
(-4.42588e-07 -1.31033e-06 -4.06228e-08)
(-3.83983e-07 -1.29237e-06 -4.53402e-08)
(-2.97617e-07 -1.2739e-06 -4.94614e-08)
(-1.88485e-07 -1.25771e-06 -5.23744e-08)
(-6.4906e-08 -1.24822e-06 -5.3977e-08)
(6.31182e-08 -1.2477e-06 -5.38584e-08)
(1.86563e-07 -1.257e-06 -5.24273e-08)
(2.96071e-07 -1.27383e-06 -4.94925e-08)
(3.82893e-07 -1.29249e-06 -4.53355e-08)
(4.41827e-07 -1.31056e-06 -4.06642e-08)
(4.71289e-07 -1.32474e-06 -3.56927e-08)
(4.72063e-07 -1.33106e-06 -3.08387e-08)
(4.46904e-07 -1.32521e-06 -2.6431e-08)
(4.00252e-07 -1.30276e-06 -2.26588e-08)
(3.37613e-07 -1.25867e-06 -1.96148e-08)
(2.65036e-07 -1.18677e-06 -1.72898e-08)
(1.88866e-07 -1.07858e-06 -1.55793e-08)
(1.1532e-07 -9.20969e-07 -1.40332e-08)
(5.19335e-08 -6.89142e-07 -1.16879e-08)
(6.0972e-09 -3.28357e-07 -6.23342e-09)
(-6.27405e-09 -2.6958e-07 -6.30135e-09)
(-5.29492e-08 -5.67107e-07 -1.17027e-08)
(-1.17555e-07 -7.60989e-07 -1.40448e-08)
(-1.92509e-07 -8.92705e-07 -1.56783e-08)
(-2.703e-07 -9.81753e-07 -1.74388e-08)
(-3.44496e-07 -1.03894e-06 -1.97009e-08)
(-4.08432e-07 -1.07146e-06 -2.25961e-08)
(-4.55862e-07 -1.0847e-06 -2.61515e-08)
(-4.81183e-07 -1.08317e-06 -3.02908e-08)
(-4.79989e-07 -1.07101e-06 -3.48002e-08)
(-4.49549e-07 -1.05223e-06 -3.93922e-08)
(-3.89261e-07 -1.03069e-06 -4.37839e-08)
(-3.01299e-07 -1.00965e-06 -4.75866e-08)
(-1.90951e-07 -9.92545e-07 -5.02567e-08)
(-6.58948e-08 -9.82733e-07 -5.16613e-08)
(6.38993e-08 -9.8246e-07 -5.16087e-08)
(1.88835e-07 -9.92119e-07 -5.03123e-08)
(2.99693e-07 -1.00973e-06 -4.75667e-08)
(3.88215e-07 -1.0308e-06 -4.37522e-08)
(4.4878e-07 -1.05237e-06 -3.94345e-08)
(4.79461e-07 -1.07122e-06 -3.48545e-08)
(4.8092e-07 -1.0835e-06 -3.03357e-08)
(4.55813e-07 -1.08515e-06 -2.61928e-08)
(4.08534e-07 -1.07203e-06 -2.26268e-08)
(3.4469e-07 -1.03962e-06 -1.97307e-08)
(2.70549e-07 -9.82547e-07 -1.74808e-08)
(1.92726e-07 -8.93634e-07 -1.57746e-08)
(1.17671e-07 -7.62154e-07 -1.4234e-08)
(5.29767e-08 -5.68521e-07 -1.18819e-08)
(6.24396e-09 -2.69519e-07 -6.34434e-09)
(-6.18067e-09 -2.10616e-07 -6.14381e-09)
(-5.19856e-08 -4.47063e-07 -1.14399e-08)
(-1.15464e-07 -6.02746e-07 -1.37598e-08)
(-1.89424e-07 -7.08254e-07 -1.53346e-08)
(-2.66403e-07 -7.78438e-07 -1.69885e-08)
(-3.39929e-07 -8.21763e-07 -1.90839e-08)
(-4.0327e-07 -8.44076e-07 -2.17578e-08)
(-4.5012e-07 -8.49903e-07 -2.50278e-08)
(-4.74909e-07 -8.43197e-07 -2.88154e-08)
(-4.73301e-07 -8.27626e-07 -3.29167e-08)
(-4.42663e-07 -8.06796e-07 -3.70914e-08)
(-3.82645e-07 -7.84084e-07 -4.10938e-08)
(-2.9592e-07 -7.62846e-07 -4.44923e-08)
(-1.87655e-07 -7.46468e-07 -4.68774e-08)
(-6.48496e-08 -7.37361e-07 -4.81283e-08)
(6.28647e-08 -7.37002e-07 -4.80915e-08)
(1.85442e-07 -7.45908e-07 -4.68696e-08)
(2.94273e-07 -7.62772e-07 -4.44191e-08)
(3.81567e-07 -7.84062e-07 -4.1012e-08)
(4.41834e-07 -8.06827e-07 -3.70987e-08)
(4.72686e-07 -8.27758e-07 -3.29651e-08)
(4.74558e-07 -8.43446e-07 -2.88592e-08)
(4.49999e-07 -8.50257e-07 -2.5068e-08)
(4.033e-07 -8.44511e-07 -2.17869e-08)
(3.40053e-07 -8.22278e-07 -1.91104e-08)
(2.66592e-07 -7.79032e-07 -1.70159e-08)
(1.89621e-07 -7.08924e-07 -1.53771e-08)
(1.15618e-07 -6.03511e-07 -1.38485e-08)
(5.20006e-08 -4.47981e-07 -1.15678e-08)
(6.14217e-09 -2.1068e-07 -6.18668e-09)
(-5.81942e-09 -1.53918e-07 -5.72194e-09)
(-4.89339e-08 -3.31629e-07 -1.07068e-08)
(-1.09036e-07 -4.50347e-07 -1.28857e-08)
(-1.79602e-07 -5.30595e-07 -1.43062e-08)
(-2.53516e-07 -5.82913e-07 -1.57871e-08)
(-3.24457e-07 -6.13631e-07 -1.76616e-08)
(-3.85749e-07 -6.27337e-07 -2.00728e-08)
(-4.31119e-07 -6.27711e-07 -2.30126e-08)
(-4.55128e-07 -6.1803e-07 -2.64148e-08)
(-4.5358e-07 -6.01409e-07 -3.00844e-08)
(-4.23926e-07 -5.80858e-07 -3.38562e-08)
(-3.66069e-07 -5.59284e-07 -3.74296e-08)
(-2.82997e-07 -5.39785e-07 -4.04512e-08)
(-1.79432e-07 -5.2501e-07 -4.25888e-08)
(-6.2056e-08 -5.17001e-07 -4.37489e-08)
(6.01228e-08 -5.16659e-07 -4.37098e-08)