/*--------------------------------*- C++ -*----------------------------------*\
| =========                 |                                                 |
| \\      /  F ield         | OpenFOAM: The Open Source CFD Toolbox           |
|  \\    /   O peration     | Version:  v1906                                 |
|   \\  /    A nd           | Web:      www.OpenFOAM.com                      |
|    \\/     M anipulation  |                                                 |
\*---------------------------------------------------------------------------*/
FoamFile
{
    version     2.0;
    format      ascii;
    class       surfaceScalarField;
    location    "7";
    object      phi;
}
// * * * * * * * * * * * * * * * * * * * * * * * * * * * * * * * * * * * * * //

dimensions      [1 0 -1 0 0 0 0];
oriented        oriented;


internalField   nonuniform List<scalar> 
228225
(
1.96256e-09
2.5853e-09
-4.42158e-09
-4.70576e-09
1.45746e-08
-7.90678e-09
-1.85105e-08
2.29429e-08
-9.13645e-09
-3.91542e-08
3.02124e-08
-9.5703e-09
-6.57551e-08
3.64565e-08
-9.85561e-09
-9.68943e-08
4.14715e-08
-1.0333e-08
-1.31251e-07
4.5507e-08
-1.11525e-08
-1.67775e-07
4.88659e-08
-1.23387e-08
-2.05659e-07
5.18439e-08
-1.39608e-08
-2.44134e-07
5.45587e-08
-1.60849e-08
-2.82391e-07
5.69831e-08
-1.87264e-08
-3.19544e-07
5.88752e-08
-2.17196e-08
-3.54797e-07
5.98938e-08
-2.46446e-08
-3.87182e-07
5.97168e-08
-2.73286e-08
-4.15925e-07
5.83495e-08
-2.96071e-08
-4.40447e-07
5.60759e-08
-3.15548e-08
-4.60293e-07
5.31733e-08
-3.33292e-08
-4.75016e-07
4.97771e-08
-3.5053e-08
-4.84167e-07
4.59446e-08
-3.67931e-08
-4.87321e-07
4.17258e-08
-3.85729e-08
-4.84135e-07
3.72041e-08
-4.03906e-08
-4.74423e-07
3.25056e-08
-4.2214e-08
-4.58212e-07
2.77848e-08
-4.3999e-08
-4.35754e-07
2.3221e-08
-4.56787e-08
-4.07536e-07
1.89836e-08
-4.71987e-08
-3.74256e-07
1.51977e-08
-4.84808e-08
-3.36611e-07
1.18194e-08
-4.9462e-08
-2.9531e-07
8.77693e-09
-5.00822e-08
-2.51017e-07
5.99923e-09
-5.02877e-08
-2.0445e-07
3.4396e-09
-5.00058e-08
-1.564e-07
1.07222e-09
-4.91231e-08
-1.08014e-07
-1.01944e-09
-4.73698e-08
-6.11002e-08
-2.82356e-09
-4.40887e-08
-1.9948e-08
-3.78527e-09
-3.73637e-08
-2.42102e-09
-1.75299e-08
-2.92409e-08
5.02295e-08
-1.84025e-08
-8.87907e-08
8.78606e-08
-1.37369e-08
-1.60411e-07
1.05997e-07
-1.1434e-08
-2.37962e-07
1.18523e-07
-1.07603e-08
-3.163e-07
1.25941e-07
-1.11461e-08
-3.9119e-07
1.28834e-07
-1.24716e-08
-4.59372e-07
1.28433e-07
-1.4744e-08
-5.18346e-07
1.25847e-07
-1.80085e-08
-5.66486e-07
1.22079e-07
-2.20946e-08
-6.02786e-07
1.17715e-07
-2.6856e-08
-6.26831e-07
1.13007e-07
-3.19796e-08
-6.38894e-07
1.07939e-07
-3.70014e-08
-6.40111e-07
1.02418e-07
-4.13082e-08
-6.32507e-07
9.63104e-08
-4.4195e-08
-6.18637e-07
8.98263e-08
-4.53488e-08
-6.00737e-07
8.33381e-08
-4.51608e-08
-5.80298e-07
7.70307e-08
-4.42972e-08
-5.58028e-07
7.08182e-08
-4.3313e-08
-5.34082e-07
6.45789e-08
-4.25788e-08
-5.08364e-07
5.8295e-08
-4.22866e-08
-4.8076e-07
5.20777e-08
-4.2477e-08
-4.51198e-07
4.60088e-08
-4.30662e-08
-4.19677e-07
4.01645e-08
-4.39022e-08
-3.86315e-07
3.46513e-08
-4.47907e-08
-3.51394e-07
2.95992e-08
-4.55373e-08
-3.15279e-07
2.50827e-08
-4.59996e-08
-2.78308e-07
2.10596e-08
-4.62116e-08
-2.40766e-07
1.74556e-08
-4.62195e-08
-2.02959e-07
1.4212e-08
-4.60215e-08
-1.652e-07
1.12719e-08
-4.55906e-08
-1.27847e-07
8.60246e-09
-4.48831e-08
-9.12681e-08
6.23109e-09
-4.38305e-08
-5.62014e-08
4.2505e-09
-4.21384e-08
-2.4309e-08
3.20374e-09
-3.88846e-08
4.86828e-09
-3.1597e-08
-7.01138e-08
9.60756e-08
2.42667e-08
-1.78554e-07
1.61054e-07
3.52474e-08
-3.02526e-07
1.9007e-07
3.98984e-08
-4.30596e-07
2.05113e-07
4.148e-08
-5.52965e-07
2.0825e-07
4.00628e-08
-6.62451e-07
2.0241e-07
3.59084e-08
-7.54541e-07
1.91076e-07
2.94476e-08
-8.2634e-07
1.76449e-07
2.11949e-08
-8.76294e-07
1.60191e-07
1.18431e-08
-9.04203e-07
1.4343e-07
2.19345e-09
-9.11224e-07
1.27082e-07
-7.05322e-09
-8.99568e-07
1.11688e-07
-1.54071e-08
-8.72106e-07
9.74997e-08
-2.25424e-08
-8.32135e-07
8.45968e-08
-2.82589e-08
-7.83184e-07
7.34354e-08
-3.25583e-08
-7.28805e-07
6.45609e-08
-3.5602e-08
-6.71865e-07
5.77179e-08
-3.76282e-08
-6.14339e-07
5.22018e-08
-3.89089e-08
-5.57479e-07
4.73967e-08
-3.9677e-08
-5.02124e-07
4.30303e-08
-4.00907e-08
-4.48905e-07
3.90763e-08
-4.02181e-08
-3.98358e-07
3.56228e-08
-4.01615e-08
-3.50944e-07
3.27507e-08
-3.99989e-08
-3.06922e-07
3.03838e-08
-3.97559e-08
-2.66305e-07
2.84201e-08
-3.94369e-08
-2.2893e-07
2.67744e-08
-3.90672e-08
-1.94576e-07
2.53615e-08
-3.86545e-08
-1.63023e-07
2.41024e-08
-3.82021e-08
-1.34042e-07
2.29313e-08
-3.76983e-08
-1.07419e-07
2.17708e-08
-3.71229e-08
-8.29445e-08
2.05665e-08
-3.64392e-08
-6.0389e-08
1.92591e-08
-3.55829e-08
-3.94722e-08
1.77589e-08
-3.44259e-08
-1.97345e-08
1.60554e-08
-3.25889e-08
1.3241e-08
-2.81072e-08
-1.0979e-07
1.12941e-07
9.29237e-08
-2.3745e-07
1.78473e-07
1.10243e-07
-3.6991e-07
2.06569e-07
1.15959e-07
-5.02827e-07
2.19344e-07
1.18685e-07
-6.29876e-07
2.18424e-07
1.16878e-07
-7.4531e-07
2.06998e-07
1.10845e-07
-8.418e-07
1.88954e-07
9.86116e-08
-9.13339e-07
1.66949e-07
8.10374e-08
-9.56269e-07
1.43029e-07
6.00931e-08
-9.70745e-07
1.18738e-07
3.9169e-08
-9.59862e-07
9.54098e-08
2.07889e-08
-9.28646e-07
7.40114e-08
6.46019e-09
-8.82274e-07
5.51342e-08
-4.00554e-09
-8.25435e-07
3.92117e-08
-1.14549e-08
-7.62715e-07
2.67881e-08
-1.60721e-08
-6.97682e-07
1.81986e-08
-1.8669e-08
-6.32537e-07
1.28738e-08
-2.03041e-08
-5.6853e-07
9.93035e-09
-2.17332e-08
-5.06515e-07
8.61681e-09
-2.32377e-08
-4.47195e-07
8.47667e-09
-2.47649e-08
-3.91235e-07
9.23321e-09
-2.61176e-08
-3.39257e-07
1.07639e-08
-2.71189e-08
-2.91733e-07
1.2936e-08
-2.77103e-08
-2.48831e-07
1.54821e-08
-2.79987e-08
-2.10531e-07
1.81898e-08
-2.80718e-08
-1.76694e-07
2.09193e-08
-2.79804e-08
-1.47081e-07
2.35176e-08
-2.77701e-08
-1.21351e-07
2.5859e-08
-2.7484e-08
-9.91037e-08
2.78265e-08
-2.71457e-08
-7.98337e-08
2.92931e-08
-2.67922e-08
-6.29552e-08
3.01178e-08
-2.64276e-08
-4.77231e-08
3.01329e-08
-2.61071e-08
-3.29137e-08
2.90522e-08
-2.61022e-08
-1.73261e-08
2.69784e-08
-2.65116e-08
2.16582e-08
-2.57424e-08
-7.2575e-08
8.81031e-08
9.74129e-08
-1.39233e-07
1.3008e-07
1.15053e-07
-2.00397e-07
1.46893e-07
1.20839e-07
-2.59378e-07
1.54598e-07
1.23727e-07
-3.1744e-07
1.5351e-07
1.22975e-07
-3.74211e-07
1.44778e-07
1.18991e-07
-4.2657e-07
1.30206e-07
1.11107e-07
-4.70317e-07
1.11685e-07
9.90122e-08
-5.01011e-07
9.11483e-08
8.25719e-08
-5.16272e-07
7.02891e-08
6.37094e-08
-5.16712e-07
5.04801e-08
4.53721e-08
-5.05379e-07
3.27053e-08
2.99724e-08
-4.86085e-07
1.76283e-08
1.8212e-08
-4.62176e-07
5.64179e-09
9.65985e-09
-4.35628e-07
-3.19649e-09
3.43636e-09
-4.0716e-07
-8.96841e-09
-1.30023e-09
-3.77175e-07
-1.20325e-08
-5.07972e-09
-3.46291e-07
-1.28357e-08
-8.11836e-09
-3.15366e-07
-1.18373e-08
-1.04703e-08
-2.85271e-07
-9.46143e-09
-1.21565e-08
-2.56698e-07
-6.09119e-09
-1.32484e-08
-2.3002e-07
-2.06552e-09
-1.38479e-08
-2.05381e-07
2.36438e-09
-1.40696e-08
-1.82705e-07
6.83134e-09
-1.40239e-08
-1.61954e-07
1.12374e-08
-1.38003e-08
-1.42981e-07
1.54247e-08
-1.34764e-08
-1.25617e-07
1.92724e-08
-1.31212e-08
-1.09626e-07
2.26589e-08
-1.27891e-08
-9.47445e-08
2.54756e-08
-1.25314e-08
-8.06484e-08
2.7584e-08
-1.23875e-08
-6.69743e-08
2.88271e-08
-1.23823e-08
-5.32647e-08
2.89981e-08
-1.25761e-08
-3.8793e-08
2.78508e-08
-1.32694e-08
-2.19585e-08
2.48215e-08
-1.46793e-08
1.58483e-08
-1.61475e-08
-5.07917e-09
4.19028e-08
5.12798e-08
8.20257e-09
5.86396e-08
5.8159e-08
2.94446e-08
6.53954e-08
6.02542e-08
5.46836e-08
6.84068e-08
6.0953e-08
8.09531e-08
6.76441e-08
5.95973e-08
1.0597e-07
6.36449e-08
5.61147e-08
1.28324e-07
5.7295e-08
5.0557e-08
1.47097e-07
4.94907e-08
4.34237e-08
1.61703e-07
4.11581e-08
3.53822e-08
1.71617e-07
3.3063e-08
2.73121e-08
1.7644e-07
2.58323e-08
1.98253e-08
1.76001e-07
1.98829e-08
1.32619e-08
1.70488e-07
1.54444e-08
7.69646e-09
1.60453e-07
1.25591e-08
3.11772e-09
1.46669e-07
1.11194e-08
-5.32305e-10
1.30098e-07
1.09307e-08
-3.32744e-09
1.11714e-07
1.1737e-08
-5.38723e-09
9.24276e-08
1.32691e-08
-6.81613e-09
7.30244e-08
1.52686e-08
-7.70448e-09
5.41784e-08
1.75209e-08
-8.13419e-09
3.64378e-08
1.98403e-08
-8.19346e-09
2.02507e-08
2.20937e-08
-7.9709e-09
5.98123e-09
2.41883e-08
-7.55389e-09
-6.2333e-09
2.60692e-08
-7.0235e-09
-1.62505e-08
2.77052e-08
-6.45104e-09
-2.40204e-08
2.909e-08
-5.89645e-09
-2.95471e-08
3.02118e-08
-5.41093e-09
-3.29064e-08
3.1054e-08
-5.03733e-09
-3.41791e-08
3.15653e-08
-4.81615e-09
-3.34681e-08
3.16526e-08
-4.7808e-09
-3.08578e-08
3.11677e-08
-4.95084e-09
-2.64127e-08
2.993e-08
-5.37657e-09
-1.99592e-08
2.77224e-08
-6.32582e-09
-1.1313e-08
2.41763e-08
-8.00126e-09
1.4657e-08
-1.01212e-08
1.85092e-08
7.33553e-09
1.60589e-08
4.63968e-08
1.40683e-08
1.66826e-08
7.85408e-08
1.71478e-08
1.61039e-08
1.12336e-07
1.91123e-08
1.54993e-08
1.45324e-07
2.006e-08
1.45963e-08
1.75518e-07
2.01916e-08
1.32581e-08
2.01507e-07
1.9723e-08
1.15846e-08
2.2238e-07
1.89772e-08
9.63845e-09
2.37445e-07
1.86136e-08
7.4807e-09
2.46228e-07
1.91312e-08
5.14995e-09
2.48562e-07
2.07359e-08
2.76099e-09
2.44606e-07
2.33833e-08
4.55606e-10
2.34765e-07
2.68279e-08
-1.54228e-09
2.19872e-07
3.06249e-08
-3.1716e-09
2.01093e-07
3.42978e-08
-4.40161e-09
1.79676e-07
3.76305e-08
-5.28162e-09
1.56715e-07
4.05676e-08
-5.87043e-09
1.33162e-07
4.30349e-08
-6.21229e-09
1.09766e-07
4.5003e-08
-6.33795e-09
8.71258e-08
4.64425e-08
-6.28059e-09
6.56795e-08
4.73588e-08
-6.07385e-09
4.57762e-08
4.77484e-08
-5.75107e-09
2.76659e-08
4.76437e-08
-5.34433e-09
1.15566e-08
4.70643e-08
-4.88732e-09
-2.37704e-09
4.60519e-08
-4.41174e-09
-1.39748e-08
4.46372e-08
-3.95008e-09
-2.30652e-08
4.28363e-08
-3.53348e-09
-2.94868e-08
4.06734e-08
-3.19778e-09
-3.32304e-08
3.82861e-08
-2.97676e-09
-3.43771e-08
3.5702e-08
-2.90433e-09
-3.30774e-08
3.28654e-08
-2.9963e-09
-2.94972e-08
2.96521e-08
-3.30327e-09
-2.36345e-08
2.59342e-08
-4.07333e-09
-1.46473e-08
2.07041e-08
-5.51648e-09
7.32718e-09
-7.31649e-09
3.98499e-09
-4.79651e-09
8.1468e-09
5.89791e-09
5.32929e-09
6.82733e-09
7.92463e-09
9.6474e-09
5.47203e-09
9.73003e-09
1.26993e-08
4.60877e-09
1.09791e-08
1.48865e-08
3.92238e-09
1.14962e-08
1.64331e-08
3.24306e-09
1.12345e-08
1.74125e-08
2.57173e-09
1.02682e-08
1.80731e-08
1.87014e-09
8.92685e-09
1.90083e-08
9.47695e-10
7.62371e-09
2.06999e-08
-2.67445e-10
6.72884e-09
2.32981e-08
-1.6664e-09
6.51786e-09
2.67255e-08
-3.13203e-09
7.1637e-09
3.06925e-08
-4.50932e-09
8.67472e-09
3.47857e-08
-5.67369e-09
1.09608e-08
3.85743e-08
-6.5608e-09
1.38513e-08
4.19352e-08
-7.19657e-09
1.71666e-08
4.487e-08
-7.61746e-09
2.06576e-08
4.73832e-08
-7.83872e-09
2.40622e-08
4.94748e-08
-7.87607e-09
2.70977e-08
5.1149e-08
-7.742e-09
2.95128e-08
5.23969e-08
-7.45457e-09
3.10752e-08
5.32199e-08
-7.03174e-09
3.161e-08
5.36031e-08
-6.49582e-09
3.10002e-08
5.35454e-08
-5.87087e-09
2.92166e-08
5.30219e-08
-5.18625e-09
2.62991e-08
5.20349e-08
-4.4806e-09
2.23988e-08
5.05378e-08
-3.80223e-09
1.77367e-08
4.85219e-08
-3.18446e-09
1.26225e-08
4.60663e-08
-2.66696e-09
7.39978e-09
4.32022e-08
-2.27761e-09
2.46602e-09
3.98405e-08
-2.03985e-09
-1.705e-09
3.58266e-08
-2.00532e-09
-4.25971e-09
3.09205e-08
-2.4322e-09
-4.23997e-09
2.43007e-08
-3.61379e-09
8.28506e-09
-5.19964e-09
-6.1019e-09
-4.79898e-09
6.10572e-09
-1.3433e-08
6.58937e-09
6.06918e-09
-2.09871e-08
1.15163e-08
5.685e-09
-2.87911e-08
1.52035e-08
5.29983e-09
-3.67117e-08
1.80195e-08
4.78875e-09
-4.46067e-08
2.02403e-08
4.08578e-09
-5.24558e-08
2.20741e-08
3.18955e-09
-6.02195e-08
2.36888e-08
2.14604e-09
-6.74924e-08
2.52321e-08
1.0492e-09
-7.35751e-08
2.68014e-08
-1.8604e-11
-7.77465e-08
2.84522e-08
-9.82632e-10
-7.93595e-08
3.01987e-08
-1.86055e-09
-7.80542e-08
3.20369e-08
-2.64808e-09
-7.38635e-08
3.3938e-08
-3.34366e-09
-6.72379e-08
3.58716e-08
-3.92308e-09
-5.87329e-08
3.77989e-08
-4.36938e-09
-4.88844e-08
3.96888e-08
-4.66592e-09
-3.81915e-08
4.15031e-08
-4.81425e-09
-2.7121e-08
4.32159e-08
-4.81018e-09
-1.61039e-08
4.47927e-08
-4.66214e-09
-5.54844e-09
4.62114e-08
-4.36948e-09
4.17617e-09
4.74389e-08
-3.94426e-09
1.27196e-08
4.84531e-08
-3.39247e-09
1.97848e-08
4.92181e-08
-2.73865e-09
2.51019e-08
4.97079e-08
-2.00306e-09
2.84861e-08
4.98787e-08
-1.22796e-09
2.97822e-08
4.96911e-08
-4.50244e-10
2.89541e-08
4.90746e-08
2.75783e-10
2.61561e-08
4.79535e-08
9.11565e-10
2.1755e-08
4.6198e-08
1.40453e-09
1.6234e-08
4.36304e-08
1.73212e-09
1.02802e-08
3.996e-08
1.82075e-09
4.91701e-09
3.47907e-08
1.49164e-09
1.16333e-09
2.75107e-08
5.44126e-10
1.02679e-08
-8.19456e-10
-8.99152e-09
-2.9001e-09
7.09203e-09
-1.88444e-08
8.35697e-09
8.08579e-09
-2.88546e-08
1.31712e-08
8.35544e-09
-3.87409e-08
1.67373e-08
8.35253e-09
-4.82232e-08
1.94248e-08
8.07595e-09
-5.70292e-08
2.14824e-08
7.56558e-09
-6.48887e-08
2.3112e-08
6.82016e-09
-7.15199e-08
2.44414e-08
5.87878e-09
-7.66748e-08
2.55831e-08
4.80427e-09
-8.01917e-08
2.66111e-08
3.70711e-09
-8.19974e-08
2.7592e-08
2.66497e-09
-8.21017e-08
2.85623e-08
1.74118e-09
-8.05679e-08
2.95589e-08
9.45517e-10
-7.75148e-08
3.05908e-08
2.92016e-10
-7.30887e-08
3.1674e-08
-2.27206e-10
-6.74867e-08
3.28008e-08
-6.0419e-10
-6.09194e-08
3.39727e-08
-8.51983e-10
-5.36266e-08
3.51698e-08
-9.58955e-10
-4.58594e-08
3.63846e-08
-9.36263e-10
-3.78822e-08
3.75887e-08
-7.72978e-10
-2.9957e-08
3.87667e-08
-4.81429e-10
-2.23427e-08
3.98802e-08
-5.44081e-11
-1.52864e-08
4.09049e-08
4.9188e-10
-9.01565e-09
4.17919e-08
1.15389e-09
-3.70805e-09
4.25064e-08
1.89668e-09
4.87264e-10
4.29846e-08
2.69671e-09
3.51942e-09
4.31705e-08
3.48951e-09
5.39402e-09
4.29723e-08
4.22648e-09
6.21795e-09
4.22971e-08
4.83371e-09
6.14187e-09
4.0992e-08
5.28154e-09
5.36328e-09
3.88759e-08
5.53159e-09
4.09829e-09
3.56615e-08
5.56528e-09
2.63251e-09
3.09859e-08
5.26973e-09
1.30195e-09
2.42974e-08
4.54275e-09
8.39095e-09
3.18e-09
-8.1269e-09
-2.15973e-09
7.38705e-09
-1.69914e-08
8.241e-09
8.9793e-09
-2.60758e-08
1.26349e-08
9.62165e-09
-3.50065e-08
1.58264e-08
9.84114e-09
-4.34627e-08
1.81519e-08
9.72909e-09
-5.11728e-08
1.98444e-08
9.34857e-09
-5.78718e-08
2.10782e-08
8.73278e-09
-6.33153e-08
2.19798e-08
7.90402e-09
-6.73098e-08
2.26422e-08
6.93681e-09
-6.97619e-08
2.31463e-08
5.9149e-09
-7.06543e-08
2.35521e-08
4.93387e-09
-7.00507e-08
2.39191e-08
4.03889e-09
-6.80459e-08
2.4287e-08
3.26696e-09
-6.47693e-08
2.46962e-08
2.61819e-09
-6.037e-08
2.5171e-08
2.10436e-09
-5.50224e-08
2.57358e-08
1.71666e-09
-4.89112e-08
2.63975e-08
1.46581e-09
-4.22493e-08
2.71642e-08
1.34229e-09
-3.52471e-08
2.80246e-08
1.35703e-09
-2.8127e-08
2.89708e-08
1.49921e-09
-2.11149e-08
2.9974e-08
1.77958e-09
-1.44314e-08
3.10115e-08
2.18547e-09
-8.28971e-09
3.20374e-08
2.72509e-09
-2.88818e-09
3.3014e-08
3.37729e-09
1.6061e-09
3.3877e-08
4.13513e-09
5.06816e-09
3.45717e-08
4.95028e-09
7.44795e-09
3.50116e-08
5.78058e-09
8.75931e-09
3.51169e-08
6.54347e-09
9.1073e-09
3.47653e-08
7.18295e-09
8.63741e-09
3.38277e-08
7.63424e-09
7.51935e-09
3.21126e-08
7.8811e-09
5.91884e-09
2.93836e-08
7.87992e-09
4.03726e-09
2.53075e-08
7.55853e-09
2.13198e-09
1.94171e-08
6.78538e-09
5.35412e-09
5.16894e-09
-6.84137e-09
-1.38361e-09
6.06579e-09
-1.50317e-08
8.50865e-09
7.92162e-09
-2.37636e-08
1.26147e-08
8.75266e-09
-3.24818e-08
1.54646e-08
9.07991e-09
-4.07304e-08
1.73738e-08
9.02729e-09
-4.81495e-08
1.85653e-08
8.69658e-09
-5.44059e-08
1.92181e-08
8.11809e-09
-5.92273e-08
1.9467e-08
7.33299e-09
-6.24089e-08
1.94236e-08
6.39989e-09
-6.38576e-08
1.91869e-08
5.40855e-09
-6.35827e-08
1.88414e-08
4.4349e-09
-6.16711e-08
1.84648e-08
3.54332e-09
-5.82654e-08
1.81221e-08
2.75952e-09
-5.35454e-08
1.78707e-08
2.10529e-09
-4.77115e-08
1.77553e-08
1.58165e-09
-4.09871e-08
1.78123e-08
1.19764e-09
-3.36029e-08
1.80652e-08
9.49157e-10
-2.58097e-08
1.85273e-08
8.43505e-10
-1.78598e-08
1.91991e-08
8.75257e-10
-1.00101e-08
2.00694e-08
1.05143e-09
-2.51676e-09
2.11153e-08
1.36541e-09
4.37245e-09
2.23003e-08
1.82234e-09
1.04199e-08
2.35786e-08
2.41088e-09
1.54172e-08
2.48902e-08
3.12792e-09
1.91807e-08
2.6166e-08
3.94577e-09
2.15998e-08
2.73196e-08
4.83435e-09
2.2624e-08
2.82583e-08
5.72871e-09
2.23073e-08
2.88698e-08
6.56356e-09
2.07819e-08
2.90323e-08
7.2584e-09
1.82519e-08
2.85931e-08
7.76487e-09
1.49451e-08
2.7379e-08
8.03931e-09
1.11292e-08
2.5152e-08
8.0493e-09
7.1253e-09
2.16259e-08
7.68406e-09
3.34983e-09
1.63877e-08
6.80543e-09
3.753e-09
4.95115e-09
-5.91472e-09
1.00884e-09
3.52193e-09
-1.46561e-08
1.18025e-08
5.44741e-09
-2.45943e-08
1.61577e-08
6.39497e-09
-3.47942e-08
1.89285e-08
6.73604e-09
-4.45321e-08
2.04703e-08
6.64205e-09
-5.32504e-08
2.10438e-08
6.2386e-09
-6.04818e-08
2.08706e-08
5.5793e-09
-6.58509e-08
2.01334e-08
4.70287e-09
-6.91028e-08
1.89982e-08
3.67609e-09
-7.01029e-08
1.76111e-08
2.57752e-09
-6.88632e-08
1.61075e-08
1.49373e-09
-6.54916e-08
1.46081e-08
4.83504e-10
-6.01793e-08
1.32179e-08
-4.07745e-10
-5.31741e-08
1.20266e-08
-1.1597e-09
-4.4771e-08
1.11056e-08
-1.75356e-09
-3.52848e-08
1.05121e-08
-2.18714e-09
-2.50524e-08
1.02855e-08
-2.45174e-09
-1.44263e-08
1.04511e-08
-2.55007e-09
-3.76663e-09
1.10157e-08
-2.4761e-09
6.56529e-09
1.19705e-08
-2.23423e-09
1.62142e-08
1.32882e-08
-1.82042e-09
2.48319e-08
1.49253e-08
-1.24243e-09
3.2092e-08
1.68192e-08
-5.02962e-10
3.77142e-08
1.88908e-08
3.78684e-10
4.14654e-08
2.10392e-08
1.37631e-09
4.31967e-08
2.31432e-08
2.44499e-09
4.28687e-08
2.50624e-08
3.52215e-09
4.05713e-08
2.66435e-08
4.525e-09
3.65128e-08
2.77104e-08
5.37955e-09
3.10148e-08
2.8069e-08
6.02234e-09
2.44746e-08
2.75052e-08
6.41419e-09
1.73693e-08
2.5758e-08
6.49972e-09
1.03226e-08
2.25183e-08
6.15292e-09
4.14323e-09
1.73707e-08
5.19745e-09
4.62286e-09
3.27293e-09
-6.01672e-09
6.27544e-09
7.50102e-10
-1.62836e-08
1.95532e-08
2.51556e-09
-2.83419e-08
2.47542e-08
3.46234e-09
-4.0885e-08
2.77511e-08
3.72071e-09
-5.28872e-08
2.89919e-08
3.47985e-09
-6.35702e-08
2.88311e-08
2.89687e-09
-7.23105e-08
2.75829e-08
2.02683e-09
-7.86186e-08
2.55223e-08
9.20632e-10
-8.21797e-08
2.29157e-08
-3.57164e-10
-8.28401e-08
1.99888e-08
-1.71758e-09
-8.0637e-08
1.69751e-08
-3.07059e-09
-7.57627e-08
1.40686e-08
-4.33386e-09
-6.85175e-08
1.14272e-08
-5.45637e-09
-5.92485e-08
9.15726e-09
-6.39857e-09
-4.83429e-08
7.34572e-09
-7.14575e-09
-3.61967e-08
6.05001e-09
-7.6833e-09
-2.32204e-08
5.3178e-09
-8.011e-09
-9.81707e-09
5.17162e-09
-8.12162e-09
3.58978e-09
5.62651e-09
-8.0184e-09
1.65814e-08
6.67464e-09
-7.69608e-09
2.87288e-08
8.30129e-09
-7.15975e-09
3.95957e-08
1.04672e-08
-6.40857e-09
4.87497e-08
1.31205e-08
-5.45583e-09
5.57803e-08
1.61776e-08
-4.3178e-09
6.03274e-08
1.95283e-08
-3.03522e-09
6.21364e-08
2.29977e-08
-1.66391e-09
6.11221e-08
2.63642e-08
-2.88133e-10
5.73975e-08
2.9366e-08
1.00305e-09
5.12469e-08
3.17395e-08
2.12042e-09
4.3121e-08
3.31965e-08
2.99872e-09
3.35997e-08
3.34355e-08
3.59002e-09
2.34024e-08
3.21168e-08
3.8399e-09
1.34625e-08
2.88552e-08
3.60265e-09
4.97319e-09
2.31658e-08
2.69483e-09
8.63073e-09
9.64305e-10
-6.26539e-09
1.36481e-08
-1.10845e-09
-1.75169e-08
3.04414e-08
3.64087e-10
-3.07581e-08
3.68614e-08
1.13572e-09
-4.44753e-08
4.0255e-08
1.21111e-09
-5.74587e-08
4.12118e-08
7.63447e-10
-6.87744e-08
4.02136e-08
-6.55471e-11
-7.76572e-08
3.76883e-08
-1.22246e-09
-8.35406e-08
3.40646e-08
-2.65956e-09
-8.60532e-08
2.97279e-08
-4.30046e-09
-8.50955e-08
2.50861e-08
-6.05387e-09
-8.10316e-08
2.07104e-08
-7.79945e-09
-7.44628e-08
1.6923e-08
-9.42302e-09
-6.59178e-08
1.37178e-08
-1.08359e-08
-5.57761e-08
1.10175e-08
-1.20023e-08
-4.43896e-08
8.87076e-09
-1.29105e-08
-3.2096e-08
7.3193e-09
-1.35639e-08
-1.92037e-08
6.38732e-09
-1.39612e-08
-6.01647e-09
6.09143e-09
-1.4107e-08
7.17326e-09
6.43289e-09
-1.39969e-08
2.00652e-08
7.41315e-09
-1.36313e-08
3.23538e-08
9.01569e-09
-1.30021e-08
4.37006e-08
1.12267e-08
-1.21068e-08
5.37663e-08
1.39933e-08
-1.09375e-08
6.21676e-08
1.72746e-08
-9.49901e-09
6.82821e-08
2.12422e-08
-7.82873e-09
7.13903e-08
2.59146e-08
-6.02445e-09
7.10002e-08
3.09687e-08
-4.21591e-09
6.71233e-08
3.57781e-08
-2.53428e-09
6.01657e-08
3.97699e-08
-1.07245e-09
5.07126e-08
4.25495e-08
9.96374e-11
3.95117e-08
4.36958e-08
9.40109e-10
2.74683e-08
4.27619e-08
1.39948e-09
1.57109e-08
3.92621e-08
1.34847e-09
5.66246e-09
3.25907e-08
6.24109e-10
1.50794e-08
-7.85803e-10
-6.30826e-09
2.16346e-08
-1.67908e-09
-1.705e-08
4.17812e-08
-5.98626e-10
-2.94703e-08
4.93792e-08
-9.52702e-11
-4.21987e-08
5.31957e-08
-2.13373e-10
-5.40595e-08
5.39054e-08
-8.32492e-10
-6.40957e-08
5.21014e-08
-1.85152e-09
-7.14464e-08
4.82869e-08
-3.24793e-09
-7.53443e-08
4.29564e-08
-4.99439e-09
-7.562e-08
3.70209e-08
-7.01731e-09
-7.2692e-08
3.13494e-08
-9.19041e-09
-6.73125e-08
2.66387e-08
-1.13079e-08
-6.02547e-08
2.30292e-08
-1.31645e-08
-5.20474e-08
2.01849e-08
-1.46742e-08
-4.2953e-08
1.77776e-08
-1.5856e-08
-3.32012e-08
1.58655e-08
-1.67441e-08
-2.29956e-08
1.44762e-08
-1.73644e-08
-1.25078e-08
1.36396e-08
-1.77398e-08
-1.89975e-09
1.33637e-08
-1.78788e-08
8.665e-09
1.36532e-08
-1.77874e-08
1.90422e-08
1.44967e-08
-1.74587e-08
2.90643e-08
1.58752e-08
-1.68829e-08
3.85659e-08
1.77597e-08
-1.60328e-08
4.73359e-08
2.01e-08
-1.48781e-08
5.51498e-08
2.28329e-08
-1.33727e-08
6.14709e-08
2.64055e-08
-1.14832e-08
6.54953e-08
3.11982e-08
-9.30972e-09
6.64351e-08
3.70994e-08
-7.06996e-09
6.38058e-08
4.33996e-08
-4.99163e-09
5.773e-08
4.90614e-08
-3.21653e-09
4.89718e-08
5.31105e-08
-1.80305e-09
3.83791e-08
5.50606e-08
-7.72103e-10
2.68688e-08
5.44151e-08
-1.41757e-10
1.55546e-08
5.05778e-08
-3.04325e-12
5.74337e-09
4.28696e-08
-4.67507e-10
2.23286e-08
-1.50554e-09
-5.3409e-09
2.8671e-08
-1.69595e-09
-1.45013e-08
5.18819e-08
-9.40709e-10
-2.50942e-08
6.06184e-08
-6.45402e-10
-3.59562e-08
6.49363e-08
-8.78253e-10
-4.60665e-08
6.55837e-08
-1.56797e-09
-5.45311e-08
6.323e-08
-2.66244e-09
-6.04319e-08
5.83593e-08
-4.17394e-09
-6.31651e-08
5.18219e-08
-6.1325e-09
-6.28295e-08
4.51174e-08
-8.42981e-09
-6.00419e-08
3.93538e-08
-1.07945e-08
-5.53884e-08
3.49123e-08
-1.29276e-08
-4.93373e-08
3.16472e-08
-1.46671e-08
-4.22419e-08
2.90928e-08
-1.60035e-08
-3.4319e-08
2.68653e-08
-1.70131e-08
-2.5761e-08
2.50587e-08
-1.77493e-08
-1.67553e-08
2.37253e-08
-1.82542e-08
-7.47727e-09
2.2913e-08
-1.85518e-08
1.89712e-09
2.26436e-08
-1.86554e-08
1.11936e-08
2.29264e-08
-1.85687e-08
2.02306e-08
2.37487e-08
-1.82884e-08
2.88231e-08
2.50844e-08
-1.78025e-08
3.67889e-08
2.68816e-08
-1.70866e-08
4.39054e-08
2.90822e-08
-1.61001e-08
4.99455e-08
3.15855e-08
-1.47918e-08
5.4615e-08
3.48104e-08
-1.3076e-08
5.75238e-08
3.92468e-08
-1.09547e-08
5.81485e-08
4.50562e-08
-8.58199e-09
5.59288e-08
5.18783e-08
-6.25963e-09
5.06733e-08
5.85916e-08
-4.27498e-09
4.29092e-08
6.36236e-08
-2.74739e-09
3.35304e-08
6.60779e-08
-1.6418e-09
2.34034e-08
6.54848e-08
-9.40204e-10
1.34991e-08
6.11717e-08
-6.90691e-10
4.93782e-09
5.23895e-08
-9.59658e-10
2.89502e-08
-1.68262e-09
-4.77572e-09
3.49919e-08
-1.54482e-09
-1.29435e-08
6.09878e-08
-9.37577e-10
-2.2445e-08
7.08498e-08
-7.31972e-10
-3.22922e-08
7.57779e-08
-9.93949e-10
-4.16344e-08
7.66095e-08
-1.68174e-09
-4.96592e-08
7.40233e-08
-2.77046e-09
-5.55068e-08
6.85227e-08
-4.31552e-09
-5.89006e-08
6.15309e-08
-6.314e-09
-5.9804e-08
5.46146e-08
-8.59427e-09
-5.83046e-08
4.87038e-08
-1.08496e-08
-5.46293e-08
4.40634e-08
-1.28271e-08
-4.91038e-08
4.05403e-08
-1.44166e-08
-4.21459e-08
3.7758e-08
-1.56249e-08
-3.41083e-08
3.53579e-08
-1.65286e-08
-2.52806e-08
3.34097e-08
-1.7181e-08
-1.58996e-08
3.19695e-08
-1.7624e-08
-6.19303e-09
3.10884e-08
-1.78832e-08
3.63007e-09
3.07923e-08
-1.79703e-08
1.33525e-08
3.10942e-08
-1.78897e-08
2.27557e-08
3.19798e-08
-1.76373e-08
3.16228e-08
3.34217e-08
-1.72022e-08
3.9694e-08
3.53675e-08
-1.65593e-08
4.66865e-08
3.7759e-08
-1.5668e-08
5.22259e-08
4.05243e-08
-1.4477e-08
5.59117e-08
4.4031e-08
-1.29082e-08
5.74424e-08
4.86662e-08
-1.09498e-08
5.66128e-08
5.45931e-08
-8.70788e-09
5.3374e-08
6.15516e-08
-6.43307e-09
4.7779e-08
6.86186e-08
-4.43235e-09
4.00695e-08
7.42141e-08
-2.8819e-09
3.10704e-08
7.68652e-08
-1.78933e-09
2.15852e-08
7.60674e-08
-1.09595e-09
1.24336e-08
7.11469e-08
-8.22582e-10
4.56643e-09
6.12633e-08
-1.00891e-09
3.5105e-08
-1.58736e-09
-4.4991e-09
4.05845e-08
-1.09359e-09
-1.21661e-08
6.9156e-08
-5.00858e-10
-2.11163e-08
8.01058e-08
-3.05397e-10
-3.05013e-08
8.57017e-08
-5.40895e-10
-3.95881e-08
8.68718e-08
-1.17443e-09
-4.76688e-08
8.42992e-08
-2.19478e-09
-5.40312e-08
7.85519e-08
-3.66815e-09
-5.82672e-08
7.13436e-08
-5.57604e-09
-6.00805e-08
6.41634e-08
-7.73546e-09
-5.93283e-08
5.78102e-08
-9.85851e-09
-5.61203e-08
5.25733e-08
-1.17176e-08
-5.07457e-08
4.83872e-08
-1.32213e-08
-4.36389e-08
4.50234e-08
-1.43712e-08
-3.52742e-08
4.22178e-08
-1.52268e-08
-2.59939e-08
3.99657e-08
-1.58361e-08
-1.60964e-08
3.83183e-08
-1.62458e-08
-5.84003e-09
3.73151e-08
-1.64842e-08
4.53885e-09
3.6979e-08
-1.65636e-08
1.4799e-08
3.73197e-08
-1.64872e-08
2.47039e-08
3.83268e-08
-1.62521e-08
3.39951e-08
3.99773e-08
-1.58466e-08
4.23739e-08
4.22309e-08
-1.52427e-08
4.94919e-08
4.50358e-08
-1.43946e-08
5.4876e-08
4.83961e-08
-1.32557e-08
5.80956e-08
5.25787e-08
-1.17663e-08
5.88666e-08
5.78161e-08
-9.92292e-09
5.70959e-08
6.41793e-08
-7.81409e-09
5.29298e-08
7.13816e-08
-5.66524e-09
4.66817e-08
7.86308e-08
-3.76347e-09
3.87558e-08
8.44324e-08
-2.29284e-09
2.98514e-08
8.70445e-08
-1.27314e-09
2.06579e-08
8.58954e-08
-6.36813e-10
1.18946e-08
8.03057e-08
-3.93133e-10
4.3876e-09
6.93439e-08
-5.74122e-10
4.06349e-08
-1.14329e-09
-4.58116e-09
4.5481e-08
-3.15099e-10
-1.20301e-08
7.62516e-08
3.51402e-10
-2.06734e-08
8.81647e-08
5.87001e-10
-2.97815e-08
9.43982e-08
4.09613e-10
-3.87081e-08
9.59487e-08
-1.49225e-10
-4.68454e-08
9.35093e-08
-1.07316e-09
-5.35672e-08
8.77091e-08
-2.43412e-09
-5.83474e-08
8.03362e-08
-4.21334e-09
-6.07439e-08
7.27966e-08
-6.23639e-09
-6.05166e-08
6.58187e-08
-8.23672e-09
-5.76838e-08
5.97493e-08
-1.00071e-08
-5.24814e-08
5.46447e-08
-1.14601e-08
-4.53138e-08
5.04408e-08
-1.25862e-08
-3.66864e-08
4.70089e-08
-1.34179e-08
-2.70171e-08
4.43006e-08
-1.40034e-08
-1.66549e-08
4.23447e-08
-1.43903e-08
-5.8912e-09
4.11642e-08
-1.46124e-08
5.00248e-09
4.07703e-08
-1.46853e-08
1.57696e-08
4.11673e-08
-1.4614e-08
2.61388e-08
4.23508e-08
-1.43938e-08
3.58161e-08
4.43094e-08
-1.40091e-08
4.44535e-08
4.702e-08
-1.34267e-08
5.16352e-08
5.04538e-08
-1.25993e-08
5.68508e-08
5.46593e-08
-1.14797e-08
5.96985e-08
5.97661e-08
-1.00356e-08
5.99504e-08
6.58402e-08
-8.27599e-09
5.75914e-08
7.2827e-08
-6.28694e-09
5.28638e-08
8.03815e-08
-4.2738e-09
4.62165e-08
8.77797e-08
-2.50185e-09
3.81822e-08
9.36128e-08
-1.14529e-09
2.93705e-08
9.60778e-08
-2.22177e-10
2.03883e-08
9.45417e-08
3.36443e-10
1.18595e-08
8.83137e-08
5.19596e-10
4.51255e-09
7.63952e-08
2.95282e-10
4.55024e-08
-3.54397e-10
-4.68957e-09
4.95893e-08
5.81486e-10
-1.19557e-08
8.21308e-08
1.38491e-09
-2.03151e-08
9.48439e-08
1.68274e-09
-2.91293e-08
1.01636e-07
1.57543e-09
-3.78286e-08
1.0355e-07
1.09896e-09
-4.58766e-08
1.01293e-07
2.62927e-10
-5.27229e-08
9.55423e-08
-9.85535e-10
-5.77923e-08
8.80432e-08
-2.63821e-09
-6.05726e-08
8.01107e-08
-4.534e-09
-6.07596e-08
7.24332e-08
-6.42717e-09
-5.83077e-08
6.54213e-08
-8.12409e-09
-5.33841e-08
5.92565e-08
-9.53579e-09
-4.63304e-08
5.40329e-08
-1.06451e-08
-3.76253e-08
4.97658e-08
-1.14632e-08
-2.77391e-08
4.64525e-08
-1.20368e-08
-1.70765e-08
4.40902e-08
-1.24095e-08
-5.96586e-09
4.26755e-08
-1.2621e-08
5.29034e-09
4.22044e-08
-1.26899e-08
1.64e-08
4.26773e-08
-1.2622e-08
2.70699e-08
4.40939e-08
-1.24116e-08
3.69612e-08
4.64581e-08
-1.20402e-08
4.56752e-08
4.97734e-08
-1.14684e-08
5.2741e-08
5.40429e-08
-1.06528e-08
5.76762e-08
5.92692e-08
-9.54728e-09
6.01456e-08
6.54378e-08
-8.14103e-09
5.9984e-08
7.24551e-08
-6.4511e-09
5.72357e-08
8.01403e-08
-4.56588e-09
5.22111e-08
8.80836e-08
-2.67776e-09
4.54222e-08
9.55992e-08
-1.03125e-09
3.74531e-08
1.01371e-07
2.1261e-10
2.88369e-08
1.03645e-07
1.04714e-09
2.01138e-08
1.01742e-07
1.52407e-09
1.18353e-08
9.49557e-08
1.63536e-09
4.64167e-09
8.22424e-08
1.34588e-09
4.95896e-08
5.55326e-10
-4.75021e-09
5.29905e-08
1.34761e-09
-1.18333e-08
8.69408e-08
2.27513e-09
-1.99274e-08
1.00306e-07
2.63174e-09
-2.84455e-08
1.0757e-07
2.584e-09
-3.68742e-08
1.09805e-07
2.17309e-09
-4.47233e-08
1.07732e-07
1.41107e-09
-5.14999e-08
1.02072e-07
2.45096e-10
-5.66242e-08
9.4474e-08
-1.30526e-09
-5.95756e-08
8.61565e-08
-3.09502e-09
-6.0025e-08
7.77803e-08
-4.89604e-09
-5.78915e-08
6.98107e-08
-6.52477e-09
-5.32835e-08
6.25406e-08
-7.89304e-09
-4.64727e-08
5.62062e-08
-8.98113e-09
-3.78811e-08
5.09654e-08
-9.79332e-09
-2.79767e-08
4.69143e-08
-1.03656e-08
-1.7213e-08
4.40606e-08
-1.07343e-08
-5.96236e-09
4.23642e-08
-1.09403e-08
5.44859e-09
4.18015e-08
-1.1007e-08
1.67012e-08
4.23652e-08
-1.09408e-08
2.74678e-08
4.40626e-08
-1.07355e-08
3.73757e-08
4.69176e-08
-1.03675e-08
4.59759e-08
5.09701e-08
-9.79627e-09
5.27909e-08
5.62128e-08
-8.98566e-09
5.74111e-08
6.25498e-08
-7.90006e-09
5.95626e-08
6.98233e-08
-6.5354e-09
5.91282e-08
7.77974e-08
-4.91143e-09
5.62078e-08
8.61797e-08
-3.11593e-09
5.11156e-08
9.45051e-08
-1.33182e-09
4.43886e-08
1.02115e-07
2.13487e-10
3.6596e-08
1.07787e-07
1.37643e-09
2.82311e-08
1.09872e-07
2.13684e-09
1.97792e-08
1.07646e-07
2.54797e-09
1.1748e-08
1.00389e-07
2.59849e-09
4.71315e-09
8.70274e-08
2.24798e-09
5.29751e-08
1.3289e-09
-4.71989e-09
5.58709e-08
1.83926e-09
-1.16577e-08
9.10296e-08
2.8484e-09
-1.9554e-08
1.04957e-07
3.24632e-09
-2.78536e-08
1.12628e-07
3.24087e-09
-3.60583e-08
1.15134e-07
2.87427e-09
-4.36909e-08
1.13209e-07
2.15769e-09
-5.03046e-08
1.07637e-07
1.04758e-09
-5.5338e-08
9.99398e-08
-4.31123e-10
-5.82875e-08
9.12431e-08
-2.13849e-09
-5.88318e-08
8.21891e-08
-3.86386e-09
-5.68772e-08
7.32888e-08
-5.43239e-09
-5.25072e-08
6.49272e-08
-6.75603e-09
-4.59515e-08
5.74638e-08
-7.81488e-09
-3.75599e-08
5.11876e-08
-8.61275e-09
-2.77786e-08
4.63063e-08
-9.17333e-09
-1.70846e-08
4.28994e-08
-9.53394e-09
-5.87213e-09
4.08867e-08
-9.73294e-09
5.50413e-09
4.02209e-08
-9.7968e-09
1.67137e-08
4.08873e-08
-9.73305e-09
2.7412e-08
4.29006e-08
-9.53421e-09
3.71935e-08
4.63081e-08
-9.17389e-09
4.55892e-08
5.11904e-08
-8.61384e-09
5.215e-08
5.7468e-08
-7.81692e-09
5.65277e-08
6.49333e-08
-6.75962e-09
5.84902e-08
7.32972e-08
-5.43832e-09
5.79601e-08