/*--------------------------------*- C++ -*----------------------------------*\
| =========                 |                                                 |
| \\      /  F ield         | OpenFOAM: The Open Source CFD Toolbox           |
|  \\    /   O peration     | Version:  v1912                                 |
|   \\  /    A nd           | Website:  www.openfoam.com                      |
|    \\/     M anipulation  |                                                 |
\*---------------------------------------------------------------------------*/
FoamFile
{
    version     2.0;
    format      ascii;
    class       volScalarField;
    location    "15.5/oil";
    object      heatTransferCoeff(T);
}
// * * * * * * * * * * * * * * * * * * * * * * * * * * * * * * * * * * * * * //

dimensions      [1 0 -3 -1 0 0 0];


internalField   uniform 0;

boundaryField
{
    maxY
    {
        type            calculated;
        value           uniform 0;
    }
    minX
    {
        type            calculated;
        value           uniform 0;
    }
    maxX
    {
        type            calculated;
        value           uniform 0;
    }
    minY
    {
        type            calculated;
        value           uniform 0;
    }
    minZ
    {
        type            calculated;
        value           uniform 0;
    }
    maxZ
    {
        type            calculated;
        value           uniform 0;
    }
    oil_to_sphere
    {
        type            calculated;
        value           nonuniform List<scalar> 
1536
(
-155.553
-155.349
-155.575
-154.745
-154.277
-155.148
-155.127
-154.935
-154.821
-154.541
-154.609
-154.458
-154.793
-154.747
-154.069
-154.976
-155.253
-155.594
-154.945
-154.83
-155.045
-154.747
-154.888
-154.984
-155.081
-155.001
-154.921
-154.923
-155.772
-156.375
-155.327
-154.996
-155.101
-156.031
-154.926
-155.42
-154.995
-155.063
-155.001
-156.025
-155.269
-155.333
-154.824
-154.903
-154.809
-154.703
-154.323
-154.577
-154.786
-154.311
-154.796
-154.721
-154.119
-154.852
-154.672
-154.844
-154.879
-155.076
-154.926
-155.209
-154.965
-154.769
-154.987
-155.728
-155.314
-155.519
-154.321
-154.314
-153.821
-155.063
-155.053
-155.038
-154.863
-154.921
-155.474
-155.056
-154.788
-155.256
-155.967
-155.514
-154.677
-154.926
-155.171
-155.907
-155.306
-155.607
-154.792
-154.815
-154.968
-155.131
-154.923
-154.941
-154.744
-155.026
-154.873
-155.007
-155.064
-154.871
-154.813
-154.777
-154.509
-154.4
-155.518
-155.468
-155.463
-154.94
-154.809
-155.134
-154.938
-155.206
-154.881
-154.381
-154.401
-155.7
-155.669
-155.576
-155.094
-154.863
-155.023
-154.937
-154.117
-155.066
-155.134
-155.655
-155.326
-155.033
-154.988
-155.21
-155.699
-155.043
-155.189
-154.38
-154.295
-154.368
-155.459
-155.363
-155.671
-154.854
-154.771
-155.005
-154.949
-155.19
-154.804
-154.889
-154.846
-154.996
-154.823
-155.014
-155.441
-155.38
-154.337
-154.983
-154.396
-155.79
-155.282
-155.246
-154.918
-155.1
-154.843
-154.212
-154.845
-155.377
-155.756
-155.084
-154.921
-154.979
-154.896
-154.191
-154.426
-154.849
-155.027
-155.98
-155.272
-154.997
-154.761
-155.074
-154.444
-154.447
-154.84
-154.565
-155.624
-155.684
-155.448
-154.96
-154.878
-154.955
-155.035
-154.81
-155.171
-155.309
-155.312
-155.521
-154.739
-154.704
-155.002
-155.321
-154.886
-154.923
-155.578
-155.301
-155.603
-154.422
-154.481
-154.891
-155.302
-154.7
-154.847
-155.12
-155.008
-154.484
-155.857
-155.922
-155.699
-154.55
-154.978
-154.714
-154.716
-155.232
-154.775
-154.969
-154.999
-154.799
-154.852
-154.724
-154.972
-154.825
-155.01
-154.61
-155.657
-156.067
-157.404
-156.712
-156.748
-155.703
-155.91
-154.969
-155.226
-155.869
-157.175
-155.206
-154.736
-157.438
-155.418
-156.14
-155.521
-154.802
-156.168
-155.559
-156.81
-155.244
-154.47
-155.444
-156.258
-156.282
-155.219
-154.863
-155.423
-156.162
-156.683
-156.989
-156.134
-157.501
-155.947
-155.218
-157.882
-154.011
-154.154
-156.358
-155.872
-155.845
-154.793
-154.648
-154.318
-155.011
-154.928
-155.736
-155.64
-156.402
-155.486
-154.914
-155.255
-156.436
-156.712
-155.218
-155.141
-155.249
-155.158
-154.33
-153.832
-153.99
-155.197
-155.185
-155.353
-155.618
-154.246
-153.849
-153.948
-153.977
-155.188
-155.889
-155.091
-155.574
-154.449
-156.119
-155.687
-156.922
-156.811
-157.87
-155.532
-154.222
-154.001
-158.118
-156.894
-155.782
-154.158
-154.116
-156.876
-155.561
-156.704
-156.333
-155.781
-157.567
-155.103
-155.074
-155.187
-155.173
-155.731
-155.137
-155.713
-155.27
-153.956
-155.622
-155.3
-155.474
-154.573
-154.406
-155.621
-155.53
-156.012
-154.663
-155.032
-154.92
-155.024
-155.919
-155.648
-155.18
-154.998
-155.276
-155.634
-154.055
-156.001
-155.566
-156.753
-154.541
-154.945
-155.093
-154.947
-155.919
-155.797
-155.744
-153.85
-155.655
-156.063
-157.033
-154.768
-154.68
-154.729
-155.549
-155.55
-155.062
-154.941
-155.168
-155.314
-154.243
-154.279
-155.931
-156.333
-155.689
-155.628
-155.886
-155.679
-154.855
-154.939
-154.73
-155.408
-154.58
-155.489
-156.395
-156.291
-155.568
-155.919
-155.254
-155.486
-155.147
-155.299
-153.98
-154.537
-154.52
-156.359
-156.971
-155.367
-154.908
-155.357
-154.311
-155.383
-156.944
-156.308
-157.693
-155.022
-155.189
-154.536
-154.534
-155.155
-154.914
-155.424
-155.707
-157.092
-154.803
-154.815
-154.174
-154.087
-154.808
-156.215
-156.073
-155.629
-154.84
-155.001
-155.897
-155.281
-158.024
-154.854
-153.995
-154.974
-155.97
-156.105
-155.808
-155.123
-155.421
-155.377
-155.56
-153.967
-154.364
-154.767
-155.657
-155.394
-156.814
-155.02
-155.022
-155.737
-156.128
-155.453
-156.171
-155.405
-155.507
-153.987
-155.171
-154.957
-155.359
-154.404
-154.752
-155.585
-155.854
-157.452
-154.956
-154.95
-154.971
-155.173
-155.056
-155.591
-155.26
-154.708
-154.28
-154.641
-154.404
-154.599
-155.881
-155.899
-155.543
-156.015
-155.608
-158.222
-154.102
-154.117
-156.751
-155.742
-156.485
-156.496
-155.607
-157.692
-154.963
-155.11
-155.206
-154.814
-155.027
-155.44
-154.759
-154.998
-155.397
-155.428
-155.869
-155.171
-155.067
-155.144
-155.268
-154.254
-155.606
-156.286
-155.5
-155.005
-154.538
-154.94
-155.081
-155.677
-155.648
-155.312
-155.548
-155.313
-155.464
-153.888
-154.705
-154.305
-155.788
-156.664
-155.987
-154.952
-154.847
-155.266
-154.963
-155.085
-156.039
-156.582
-156.358
-155.128
-154.343
-154.955
-154.786
-155.018
-155.135
-155.538
-154.241
-155.494
-155.362
-155.088
-154.786
-154.35
-155.592
-155.61
-157.326
-155.159
-154.904
-155.644
-155.658
-154.966
-155.248
-155.211
-155.171
-154.251
-155.339
-154.983
-154.7
-154.858
-155.662
-155.75
-154.446
-154.601
-154.399
-154.491
-155.87
-156.021
-155.997
-155.958
-155.892
-155.075
-155.099
-155.129
-155.335
-154.193
-156.014
-156.05
-156.233
-154.891
-154.439
-154.985
-154.849
-156.05
-155.686
-155.003
-155.488
-155.107
-155.23
-153.798
-154.964
-154.761
-154.941
-154.953
-154.577
-155.685
-156.435
-156.211
-155.091
-154.729
-154.927
-154.595
-154.709
-154.815
-156.295
-155.777
-155.805
-154.542
-155.019
-154.824
-155.013
-154.811
-155.032
-155.046
-155.565
-155.688
-154.792
-154.852
-154.964
-155.118
-154.391
-154.817
-154.338
-156.102
-156.002
-155.589
-155.154
-154.917
-155.1
-154.575
-155.749
-156.288
-156.526
-155.037
-154.837
-155.696
-155.905
-154.987
-154.992
-155.54
-155.069
-154.178
-154.698
-154.25
-155.682
-155.484
-157.581
-155.145
-154.979
-155.761
-156.899
-155.472
-155.531
-154.97
-155.333
-153.829
-154.861
-155.057
-154.996
-154.943
-155.213
-155.218
-155.186
-155.468
-154.649
-154.209
-154.103
-154.185
-155.187
-155.646
-155.285
-155.991
-154.063
-155.685
-155.558
-154.962
-155.298
-155.389
-155.062
-154.202
-154.76
-154.317
-155.738
-157.225
-155.578
-154.912
-154.951
-155.403
-155.333
-155.133
-155.358
-155.361
-155.354
-155.054
-155.283
-155.182
-154.242
-155.191
-155.211
-155.25
-155.337
-155.155
-154.858
-154.774
-155.055
-155.067
-154.222
-155.006
-156.481
-155.912
-156.811
-154.908
-155.003
-154.695
-155.555
-154.891
-155.737
-155.609
-155.241
-155.476
-155.388
-154.993
-154.01
-154.805
-154.358
-156.031
-155.709
-155.614
-154.976
-154.949
-155.501
-155.525
-155.319
-154.962
-154.854
-155.416
-154.165
-154.809
-155.134
-155.237
-155.102
-154.405
-156.497
-157.181
-155.943
-155.096
-155.028
-155.531
-155.704
-155.14
-154.928
-155.222
-155.344
-154.067
-155.192
-154.944
-155.226
-154.775
-154.544
-154.68
-154.516
-155.494
-155.953
-155.908
-156.485
-155.434
-157.707
-156.598
-156.641
-155.657
-154.235
-154.204
-156.435
-156.716
-155.642
-155.932
-155.173
-157.195
-154.327
-154.957
-155.804
-155.004
-155.059
-154.512
-156.368
-155.378
-156.211
-155.921
-155.964
-155.068
-155.875
-155.624
-155.285
-154.217
-155.974
-155.858
-155.091
-155.397
-155.524
-155.479
-154.044
-154.824
-154.676
-154.684
-154.841
-154.393
-155.908
-157.216
-155.522
-155.051
-154.878
-154.873
-154.186
-155.804
-157.085
-156.016
-155.003
-155.003
-154.531
-154.117
-154.7
-154.596
-155.213
-155.16
-155.439
-154.986
-154.649
-153.876
-154.642
-154.334
-156.151
-155.998
-155.644
-154.807
-155.727
-155.311
-153.936
-154.318
-154.929
-156.761
-155.654
-155.636
-155.097
-154.926
-155.099
-154.267
-156.577
-155.978
-155.663
-154.936
-154.821
-157.667
-157.224
-155.701
-156.243
-156.845
-155.365
-154.056
-154.137
-156.859
-156.561
-155.782
-154.908
-154.15
-154.773
-154.677
-155.268
-155.252
-154.92
-155.546
-154.192
-154.051
-153.865
-155.029
-154.754
-156.637
-155.57
-156.721
-155.134
-154.622
-156.888
-155.686
-156.332
-154.833
-154.82
-154.205
-157.008
-155.574
-156.743
-154.059
-153.895
-157.428
-155.635
-156.138
-157.875
-156.005
-156.36
-155.786
-156.091
-155.424
-154.559
-156.227
-155.706
-155.831
-154.957
-154.894
-154.695
-153.883
-155.368
-155.143
-155.084
-155.471
-154.419
-153.895
-154.813
-154.82
-154.181
-155.331
-154.631
-156.387
-155.458
-156.38
-155.157
-155.205
-154.979
-155.647
-155.594
-155.157
-155.472
-155.065
-155.129
-154.028
-154.374
-155.028
-156.952
-155.672
-156.053
-154.976
-154.898
-154.89
-154.462
-156.424
-155.431
-155.725
-155.078
-154.866
-154.093
-155.78
-155.495
-156.232
-155.796
-155.6
-156.055
-154.851
-154.758
-154.888
-154.608
-154.713
-154.573
-155.258
-155.075
-155.021
-155.153
-155.009
-154.678
-153.778
-155.896
-155.787
-155.126
-154.909
-155.614
-155.442
-154.002
-156.171
-155.833
-155.103
-154.901
-155.385
-155.499
-153.92
-154.303
-154.713
-156.974
-155.718
-155.465
-154.922
-154.881
-154.181
-155.143
-156.948
-157.156
-156.043
-154.878
-155.161
-156.122
-156.544
-155.474
-156.146
-156.807
-155.312
-154.287
-154.419
-155.979
-156.135
-155.375
-154.247
-154.884
-155.287
-155.009
-155.249
-154.755
-156.45
-155.45
-156.279
-156.073
-155.307
-159.119
-154.215
-154.264
-155.442
-155.823
-156.762
-156.352
-155.799
-155.825
-154.853
-154.088
-154.922
-156.156
-155.252
-154.762
-155.492
-156.147
-155.971
-157.813
-155.672
-156.493
-154.674
-154.185
-155.428
-156.026
-156.667
-155.044
-154.929
-155.118
-154.12
-156.581
-156.752
-156.194
-155.02
-154.683
-155.825
-156.737
-155.505
-155.596
-155.615
-155.23
-153.778
-156.222
-155.302
-155.181
-155.864
-155.281
-155.37
-153.586
-154.875
-154.971
-155.454
-156.017
-155.443
-155.613
-155.554
-155.747
-155.772
-154.1
-155.074
-154.897
-154.636
-153.671
-154.893
-155.193
-154.981
-155.276
-154.991
-155.325
-154.715
-154.773
-154.339
-155.55
-156.229
-155.521
-154.916
-154.938
-155.843
-155.938
-155.384
-154.723
-155.641
-155.488
-153.825
-154.388
-154.38
-156.002
-156.14
-155.452
-154.948
-155.262
-155.384
-154.024
-156.589
-155.907
-156.67
-154.185
-154.096
-156.941
-155.382
-156.625
-156.301
-156.681
-155.765
-156.167
-155.712
-155.999
-153.648
-155.923
-156.395
-155.915
-154.807
-154.625
-154.451
-153.963
-155.449
-155.227
-155.288
-155.798
-154.424
-153.798
-154.822
-154.783
-154.262
-155.343
-154.702
-156.47
-155.489
-156.233
-154.14
-154.252
-155.562
-157.017
-156.325
-157.559
-155.6
-156.751
-155.998
-155.526
-157.197
-154.706
-154.787
-154.696
-154.542
-156.427
-155.715
-156.564
-156.006
-155.983
-156.741
-153.641
-154.874
-153.948
-153.883
-155.205
-155.746
-155.216
-154.984
-154.317
-155.342
-154.791
-155.379
-156.196
-156.449
-155.188
-154.716
-155.43
-156.395
-157.708
-155.188
-154.529
-155.63
-157.161
-155.316
-155.132
-154.773
-156.165
-156.465
-155.812
-155.826
-155.874
-155.553
-153.68
-154.806
-155.41
-155.278
-155.604
-155.107
-155.07
-155.572
-155.568
-155.301
-154.435
-154.789
-154.438
-156.011
-155.598
-155.711
-154.108
-155.53
-155.529
-155.713
-155.004
-154.767
-154.596
-153.902
-154.814
-154.416
-155.257
-155.083
-155.109
-155.333
-154.707
-154.323
-154.926
-155.579
-155.903
-156.534
-154.916
-154.929
-154.266
-154.945
-155.519
-155.973
-156.652
-154.991
-155.002
-154.54
-154.511
-155.599
-155.916
-154.933
-154.717
-155.297
-155.558
-154.036
-155.801
-155.992
-155.486
-154.82
-155.211
-155.042
-154.099
-154.213
-154.106
-157.394
-155.489
-156.789
-156.388
-156.658
-155.78
-155.408
-154.705
-155.301
-156.441
-156.289
-156.407
-156.938
-156.159
-155.048
-154.98
-155.017
-155.178
-154.751
-155.039
-154.931
-154.894
-155.173
-154.254
-154.868
-156.286
-155.707
-156.112
-154.761
-155.035
-154.869
-155.288
-154.662
-156.23
-155.778
-155.075
-155.195
-155.017
-155.425
-153.948
-156.592
-157.175
-156.736
-155.049
-154.23
-155.037
-154.885
-155.536
-156.14
-155.279
-155.105
-155.145
-155.023
-154.16
-155.389
-155.222
-155.115
-155.587
-156.554
-155.486
-155.04
-154.603
-155.024
-155.074
-155.198
-155.599
-155.542
-154.168
-155.294
-155.47
-154.975
-155.402
-155.404
-155.112
-154.542
-154.484
-154.421
-154.553
-155.89
-155.849
-155.696
-154.898
-155.48
-154.84
-154.26
-154.862
-156.283
-155.822
-155.885
-154.661
-155.03
-155.957
-155.926
-155.396
-154.954
-155.147
-155.201
-153.989
-156.548
-155.616
-155.888
-155.034
-154.534
-154.955
-154.887
-155.11
-155.192
-155.086
-155.226
-155.829
-154.535
-154.07
-154.873
-154.774
-155.301
-156.24
-155.625
-155.187
-155.301
-155.407
-153.769
-154.817
-155.343
-156.427
-155.723
-155.765
-155.009
-154.769
-154.854
-154.887
-155.36
-153.926
-155.54
-155.843
-155.099
-156.944
-155.98
-155.928
-154.598
-155.008
-155.087
-155.004
-156.155
-155.565
-154.982
-155.993
-155.557
-155.814
-154.508
-154.803
-154.823
-155.057
-155.807
-156.309
-155.741
-154.964
-154.425
-155.016
-154.814
-155.57
-155.881
-155.045
-155.04
-155.531
-155.711
-154.07
-154.914
-154.09
-155.146
-154.983
-154.94
-154.913
-155.582
-154.728
-154.127
-154.279
-155.108
-155.92
-156.159
-156.959
-155.067
-155.192
-155.227
-155.146
-155.064
-155.444
-155.722
-154.873
-154.986
-155.002
-155.085
-154.228
-155.669
-155.614
-155.79
-154.42
-154.914
-154.879
-154.824
-154.945
-155.215
-155.184
-154.133
-155.674
-155.575
-155.339
-154.748
-155.021
-155.381
-155.257
-155.049
-154.913
-155.126
-154.956
-154.738
-155.5
-155.285
-154.984
-155.378
-155.033
-155.593
-154.048
-154.141
-154.929
-156.658
-156.155
-155.897
-154.966
-154.876
-155.835
-155.464
-155.167
-154.874
-155.051
-155.196
-154.317
-157.468
-155.825
-155.522
-154.273
-154.927
-155.039
-154.966
-155.266
-155.008
-154.722
-154.257
-154.936
-155.477
-155.886
-157.331
-155.122
-154.955
-155.735
-155.527
-155.171
-154.751
-155.131
-155.285
-154.089
-155.553
-155.843
-156.329
-154.347
-154.93
-154.996
-154.949
-155.034
-155.419
-155.438
-154.028
-156.065
-155.649
-155.418
)
;
    }
}


// ************************************************************************* //
