/*--------------------------------*- C++ -*----------------------------------*\
| =========                 |                                                 |
| \\      /  F ield         | OpenFOAM: The Open Source CFD Toolbox           |
|  \\    /   O peration     | Version:  v1912                                 |
|   \\  /    A nd           | Website:  www.openfoam.com                      |
|    \\/     M anipulation  |                                                 |
\*---------------------------------------------------------------------------*/
FoamFile
{
    version     2.0;
    format      ascii;
    class       surfaceScalarField;
    location    "15.5/oil";
    object      phi;
}
// * * * * * * * * * * * * * * * * * * * * * * * * * * * * * * * * * * * * * //

dimensions      [1 0 -1 0 0 0 0];
oriented        oriented;


internalField   nonuniform List<scalar> 
104676
(
-1.58582e-06
-1.58804e-06
-1.60392e-06
-8.86366e-07
-3.47182e-07
-3.52272e-07
-3.24518e-07
-2.78931e-07
-2.82917e-07
-1.71323e-07
-7.61036e-08
-7.70923e-08
-7.03797e-08
-5.02192e-08
-5.07236e-08
-3.71274e-08
-1.65799e-08
-1.66724e-08
-1.69544e-08
-1.00903e-08
-1.00827e-08
-9.14528e-09
-3.943e-09
-3.86613e-09
-4.53089e-09
-2.36025e-09
-2.25414e-09
-2.48595e-09
-1.08401e-09
-9.60934e-10
-1.30235e-09
-6.59354e-10
-5.2425e-10
-7.54609e-10
-3.44842e-10
-2.02896e-10
-4.80691e-10
-2.12448e-10
-6.14705e-11
-3.93489e-10
-1.22873e-10
3.56712e-11
-3.99828e-10
-7.79796e-11
8.43182e-11
-4.60024e-10
-5.13428e-11
1.11539e-10
-5.39735e-10
-4.0455e-11
1.20166e-10
-6.16981e-10
-3.91721e-11
1.16418e-10
-6.76829e-10
-4.43114e-11
1.04159e-10
-7.09344e-10
-5.357e-11
8.6085e-11
-7.09017e-10
-6.59573e-11
6.56302e-11
-6.73453e-10
-8.02804e-11
4.47163e-11
-6.05826e-10
-9.38741e-11
2.62479e-11
-5.11918e-10
-1.05955e-10
1.20465e-11
-3.99914e-10
-1.1542e-10
3.41624e-12
-2.80824e-10
-1.21021e-10
1.93052e-12
-1.66765e-10
-1.20393e-10
6.33409e-12
-7.35458e-11
-1.09462e-10
1.62432e-11
-1.42326e-11
-8.14947e-11
2.21814e-11
-3.28203e-11
1.85878e-11
-3.46466e-07
-8.88186e-07
-3.53386e-07
-2.59702e-07
-2.60451e-07
-1.73495e-07
-1.54523e-07
-2.27501e-07
-1.56609e-07
-9.46819e-08
-7.34916e-08
-6.24533e-08
-5.12545e-08
-5.13449e-08
-4.23017e-08
-3.08776e-08
-1.92942e-08
-1.76626e-08
-1.70964e-08
-1.29718e-08
-1.08997e-08
-1.03698e-08
-5.78817e-09
-4.88144e-09
-5.91968e-09
-3.97304e-09
-2.83734e-09
-3.60395e-09
-2.13597e-09
-1.26376e-09
-2.12561e-09
-1.54035e-09
-5.97343e-10
-1.37622e-09
-9.7627e-10
-1.17958e-10
-9.79825e-10
-7.42011e-10
1.33165e-10
-8.57808e-10
-5.46904e-10
3.02015e-10
-8.77026e-10
-4.54569e-10
3.95807e-10
-9.88523e-10
-3.88428e-10
4.48582e-10
-1.12972e-09
-3.63338e-10
4.64081e-10
-1.26752e-09
-3.56301e-10
4.54924e-10
-1.37166e-09
-3.68223e-10
4.28051e-10
-1.42584e-09
-3.88586e-10
3.89199e-10
-1.41691e-09
-4.17493e-10
3.42602e-10
-1.34377e-09
-4.47101e-10
2.93682e-10
-1.21201e-09
-4.7451e-10
2.48876e-10
-1.03255e-09
-4.96393e-10
2.10977e-10
-8.20036e-10
-5.09443e-10
1.81514e-10
-5.94538e-10
-5.08684e-10
1.62164e-10
-3.7702e-10
-4.87703e-10
1.49793e-10
-1.91827e-10
-4.34981e-10
1.40325e-10
-5.81759e-11
-3.31947e-10
1.16802e-10
-1.55895e-10
6.48991e-11
-2.78909e-07
-3.25828e-07
-2.83449e-07
-2.271e-07
-1.55655e-07
-1.56604e-07
-1.55141e-07
-1.56443e-07
-1.43018e-07
-1.00882e-07
-6.46428e-08
-6.31071e-08
-5.95765e-08
-5.02272e-08
-4.24234e-08
-3.70029e-08
-2.26155e-08
-1.92524e-08
-2.17323e-08
-1.64999e-08
-1.17425e-08
-1.34431e-08
-8.5115e-09
-5.5659e-09
-8.02301e-09
-6.23292e-09
-3.1602e-09
-4.98838e-09
-3.75932e-09
-1.41129e-09
-3.07147e-09
-2.87106e-09
-5.86205e-10
-2.03797e-09
-2.00259e-09
-7.17955e-12
-1.48177e-09
-1.61587e-09
3.17653e-10
-1.27789e-09
-1.2842e-09
5.33423e-10
-1.2689e-09
-1.12242e-09
6.58862e-10
-1.38361e-09
-1.00357e-09
7.29857e-10
-1.54282e-09
-9.54248e-10
7.50121e-10
-1.70131e-09
-9.3519e-10
7.37379e-10
-1.82093e-09
-9.48609e-10
6.99999e-10
-1.87986e-09
-9.76937e-10
6.47281e-10
-1.86086e-09
-1.01685e-09
5.80358e-10
-1.76273e-09
-1.05683e-09
5.11601e-10
-1.59239e-09
-1.09213e-09
4.47267e-10
-1.3632e-09
-1.11623e-09
3.90652e-10
-1.09361e-09
-1.12278e-09
3.43749e-10
-8.067e-10
-1.103e-09
3.07411e-10
-5.27198e-10
-1.04411e-09
2.76909e-10
-2.82621e-10
-9.26254e-10
2.46695e-10
-9.38717e-11
-7.1543e-10
1.94734e-10
-3.51262e-10
1.01495e-10
-7.60895e-08
-1.72555e-07
-7.71836e-08
-7.28536e-08
-9.65257e-08
-6.23654e-08
-6.3068e-08
-1.03147e-07
-6.30811e-08
-4.57957e-08
-4.83908e-08
-3.35243e-08
-3.18277e-08
-4.00369e-08
-2.41583e-08
-2.16943e-08
-2.03074e-08
-1.24414e-08
-1.43371e-08
-1.58533e-08
-8.00379e-09
-9.55474e-09
-9.18609e-09
-4.10779e-09
-6.20836e-09
-7.20924e-09
-2.37006e-09
-4.10081e-09
-4.83444e-09
-1.03243e-09
-2.7175e-09
-3.93555e-09
-3.18825e-10
-1.93021e-09
-2.99493e-09
2.05058e-10
-1.51901e-09
-2.55274e-09
5.25662e-10
-1.39633e-09
-2.15048e-09
7.43602e-10
-1.4474e-09
-1.94775e-09
8.76401e-10
-1.60702e-09
-1.79585e-09
9.51895e-10
-1.80227e-09
-1.72997e-09
9.70971e-10
-1.98679e-09
-1.70333e-09
9.52669e-10
-2.12261e-09
-1.71846e-09
9.05671e-10
-2.18687e-09
-1.75301e-09
8.40329e-10
-2.16185e-09
-1.79935e-09
7.5748e-10
-2.04756e-09
-1.84491e-09
6.73786e-10
-1.85238e-09
-1.88195e-09
5.94648e-10
-1.59139e-09
-1.90099e-09
5.23773e-10
-1.28519e-09
-1.89241e-09
4.63431e-10
-9.58663e-10
-1.84337e-09
4.13838e-10
-6.36949e-10
-1.73514e-09
3.69307e-10
-3.49873e-10
-1.53691e-09
3.23575e-10
-1.20666e-10
-1.19528e-09
2.50647e-10
-6.00789e-10
1.28861e-10
-5.00703e-08
-7.17977e-08
-5.06869e-08
-5.05763e-08
-5.38046e-08
-4.2215e-08
-4.85253e-08
-6.28149e-08
-4.23832e-08
-3.72591e-08
-3.55012e-08
-2.41558e-08
-2.77957e-08
-3.17255e-08
-1.77748e-08
-1.9661e-08
-1.87e-08
-9.74211e-09
-1.36184e-08
-1.55278e-08
-6.36814e-09
-9.28556e-09
-1.01321e-08
-3.38681e-09
-6.22733e-09
-8.34817e-09
-1.9193e-09
-4.18471e-09
-6.09905e-09
-7.78014e-10
-2.84859e-09
-5.157e-09
-1.14666e-10
-2.05912e-09
-4.16337e-09
3.7898e-10
-1.65778e-09
-3.65431e-09
7.00226e-10
-1.54383e-09
-3.18405e-09
9.19611e-10
-1.61215e-09
-2.93594e-09
1.05652e-09
-1.79035e-09
-2.75064e-09
1.13298e-09
-2.00356e-09
-2.667e-09
1.15024e-09
-2.20184e-09
-2.62968e-09
1.12462e-09
-2.34623e-09
-2.64262e-09
1.06854e-09
-2.41075e-09
-2.67545e-09
9.86952e-10
-2.37869e-09
-2.72022e-09
8.88817e-10
-2.25078e-09
-2.76324e-09
7.90413e-10
-2.03654e-09
-2.79355e-09
6.97352e-10
-1.75215e-09
-2.79912e-09
6.13745e-10
-1.41945e-09
-2.76706e-09
5.41959e-10
-1.06425e-09
-2.68062e-09
4.82041e-10
-7.1263e-10
-2.51457e-09
4.27808e-10
-3.94975e-10
-2.22679e-09
3.72228e-10
-1.37725e-10
-1.73873e-09
2.86197e-10
-8.85256e-10
1.46741e-10
-1.63581e-08
-3.88521e-08
-1.65874e-08
-1.84312e-08
-3.41682e-08
-1.75633e-08
-2.08276e-08
-4.12072e-08
-1.92112e-08
-1.74212e-08
-2.64518e-08
-1.24559e-08
-1.46243e-08
-2.47546e-08
-9.76783e-09
-1.10863e-08
-1.6377e-08
-5.86097e-09
-8.33722e-09
-1.4285e-08
-3.99182e-09
-5.97681e-09
-1.02884e-08
-2.20409e-09
-4.23652e-09
-8.8856e-09
-1.20287e-09
-2.95887e-09
-7.00447e-09
-3.72238e-10
-2.12171e-09
-6.16255e-09
1.68393e-10
-1.63075e-09
-5.24704e-09
5.92709e-10
-1.42853e-09
-4.74734e-09
8.90814e-10
-1.44119e-09
-4.26639e-09
1.095e-09
-1.5999e-09
-4.00291e-09
1.22568e-09
-1.84149e-09
-3.80694e-09
1.29789e-09
-2.09865e-09
-3.72278e-09
1.31294e-09
-2.32638e-09
-3.67835e-09
1.2764e-09
-2.48843e-09
-3.68713e-09
1.20657e-09
-2.55769e-09
-3.71071e-09
1.10454e-09
-2.52266e-09
-3.74623e-09
9.90985e-10
-2.38575e-09
-3.77743e-09
8.77285e-10
-2.1582e-09
-3.79138e-09
7.70283e-10
-1.85762e-09
-3.77433e-09
6.74626e-10
-1.50674e-09
-3.71069e-09
5.92741e-10
-1.13212e-09
-3.57988e-09
5.24648e-10
-7.60484e-10
-3.34959e-09
4.63386e-10
-4.23256e-10
-2.96524e-09
4.01221e-10
-1.48054e-10
-2.32153e-09
3.07594e-10
-1.19162e-09
1.58313e-10
-9.8671e-09
-1.90281e-08
-9.95695e-09
-1.21034e-08
-2.11344e-08
-1.07975e-08
-1.46976e-08
-2.68812e-08
-1.17319e-08
-1.29383e-08
-2.01471e-08
-8.06404e-09
-1.14007e-08
-1.98455e-08
-6.44671e-09
-8.91008e-09
-1.48179e-08
-4.04975e-09
-6.90662e-09
-1.35164e-08
-2.7721e-09
-5.02783e-09
-1.06463e-08
-1.52087e-09
-3.62476e-09
-9.54544e-09
-7.43234e-10
-2.55171e-09
-8.00099e-09
-7.65181e-11
-1.86021e-09
-7.25082e-09
3.96769e-10
-1.46658e-09
-6.42232e-09
7.81649e-10
-1.33458e-09
-5.94417e-09
1.06483e-09
-1.39846e-09
-5.46013e-09
1.25763e-09
-1.60033e-09
-5.18629e-09
1.38525e-09
-1.87541e-09
-4.98641e-09
1.45454e-09
-2.16313e-09
-4.90042e-09
1.46536e-09
-2.40833e-09
-4.84813e-09
1.41498e-09
-2.58062e-09
-4.84097e-09
1.32613e-09
-2.64992e-09
-4.84466e-09
1.20325e-09
-2.60989e-09
-4.85822e-09
1.07195e-09
-2.46435e-09
-4.8644e-09
9.41427e-10
-2.22637e-09
-4.84932e-09
8.1996e-10
-1.91445e-09
-4.79866e-09
7.12416e-10
-1.55218e-09
-4.69423e-09
6.21272e-10
-1.16627e-09
-4.51211e-09
5.46322e-10
-7.83571e-10
-4.21244e-09
4.80153e-10
-4.35967e-10
-3.72752e-09
4.1468e-10
-1.52286e-10
-2.923e-09
3.17797e-10
-1.50784e-09
1.63925e-10
-3.72361e-09
-1.1571e-08
-3.73342e-09
-4.94395e-09
-1.50951e-08
-4.81901e-09
-6.74152e-09
-1.94657e-08
-5.61791e-09
-6.30164e-09
-1.63425e-08
-4.24447e-09
-6.02713e-09
-1.65643e-08
-3.55571e-09
-4.9167e-09
-1.35704e-08
-2.35793e-09
-4.00798e-09
-1.28054e-08
-1.61971e-09
-2.98065e-09
-1.08345e-08
-8.39204e-10
-2.20355e-09
-1.00388e-08
-2.83703e-10
-1.5708e-09
-8.8584e-09
2.24666e-10
-1.19365e-09
-8.25313e-09
6.25151e-10
-1.01857e-09
-7.56538e-09
9.67975e-10
-1.03736e-09
-7.15717e-09
1.23179e-09
-1.20536e-09
-6.70606e-09
1.41393e-09
-1.48375e-09
-6.44519e-09
1.53728e-09
-1.81497e-09
-6.25389e-09
1.5987e-09
-2.1451e-09
-6.16563e-09
1.59534e-09
-2.41355e-09
-6.11397e-09
1.5343e-09
-2.59871e-09
-6.07976e-09
1.42395e-09
-2.67114e-09
-6.05262e-09
1.28039e-09
-2.62897e-09
-6.03097e-09
1.13058e-09
-2.47865e-09
-5.99807e-09
9.83344e-10
-2.23532e-09
-5.94076e-09
8.48117e-10
-1.91894e-09
-5.84481e-09
7.29761e-10
-1.55373e-09
-5.69029e-09
6.30852e-10
-1.16607e-09
-5.45028e-09
5.50515e-10
-7.82651e-10
-5.07712e-09
4.81265e-10
-4.34937e-10
-4.48974e-09
4.14501e-10
-1.51432e-10
-3.52454e-09
3.18029e-10
-1.82386e-09
1.64589e-10
-2.1527e-09
-7.27095e-09
-2.14737e-09
-3.17064e-09
-1.12423e-08
-2.83481e-09
-4.5358e-09
-1.48073e-08
-3.29328e-09
-4.41375e-09
-1.38626e-08
-2.60194e-09
-4.33724e-09
-1.44407e-08
-2.20008e-09
-3.60192e-09
-1.28239e-08
-1.48179e-09
-2.97343e-09
-1.24575e-08
-9.76453e-10
-2.20983e-09
-1.1174e-08
-4.24111e-10
-1.62905e-09
-1.06346e-08
1.49721e-11
-1.14991e-09
-9.7715e-09
4.33947e-10
-8.83503e-10
-9.30897e-09
7.89438e-10
-7.88214e-10
-8.76259e-09
1.10193e-09
-8.72338e-10
-8.42681e-09
1.35376e-09
-1.08777e-09
-8.0244e-09
1.53377e-09
-1.39862e-09
-7.78769e-09
1.65335e-09
-1.75219e-09
-7.6048e-09
1.70448e-09
-2.09941e-09
-7.5009e-09
1.68248e-09
-2.37838e-09
-7.44498e-09
1.60998e-09
-2.56033e-09
-7.37817e-09
1.48036e-09
-2.62737e-09
-7.30852e-09
1.32294e-09
-2.58054e-09
-7.23622e-09
1.15841e-09
-2.42673e-09
-7.14904e-09
9.97166e-10
-2.18287e-09
-7.03574e-09
8.51114e-10
-1.86935e-09
-6.88287e-09
7.24536e-10
-1.51036e-09
-6.66958e-09
6.20302e-10
-1.13131e-09
-6.366e-09
5.36666e-10
-7.57829e-10
-5.91703e-09
4.66433e-10
-4.20156e-10
-5.22807e-09
4.00657e-10
-1.45464e-10
-4.10727e-09
3.08037e-10
-2.12898e-09
1.59664e-10
-8.95526e-10
-5.48268e-09
-8.92747e-10
-1.38579e-09
-9.41133e-09
-1.34073e-09
-2.16454e-09
-1.23856e-08
-1.64296e-09
-2.17994e-09
-1.24661e-08
-1.38109e-09
-2.24958e-09
-1.31771e-08
-1.19392e-09
-1.88901e-09
-1.2378e-08
-8.06466e-10
-1.5871e-09
-1.22775e-08
-4.8189e-10
-1.15478e-09
-1.15039e-08
-1.02399e-10
-8.34703e-10
-1.11929e-08
2.38213e-10
-5.68045e-10
-1.06191e-08
5.80911e-10
-4.55688e-10
-1.0313e-08
8.91628e-10
-4.69079e-10
-9.92201e-09
1.17281e-09
-6.39049e-10
-9.6716e-09
1.41476e-09
-9.10913e-10
-9.34407e-09
1.59153e-09
-1.25362e-09
-9.14683e-09
1.70185e-09
-1.62119e-09
-8.98111e-09
1.74388e-09
-1.97244e-09
-8.85903e-09
1.70939e-09
-2.26032e-09
-8.77901e-09
1.62191e-09
-2.43691e-09
-8.68405e-09
1.48247e-09
-2.49762e-09
-8.5635e-09
1.31569e-09
-2.44792e-09
-8.42832e-09
1.1424e-09
-2.29536e-09
-8.27494e-09
9.73343e-10
-2.05835e-09
-8.09501e-09
8.22253e-10
-1.75691e-09
-7.87682e-09
6.92516e-10
-1.41528e-09
-7.59838e-09
5.87173e-10
-1.05683e-09
-7.22821e-09
5.03752e-10
-7.05298e-10
-6.70387e-09
4.35307e-10
-3.89527e-10
-5.91664e-09
3.72803e-10
-1.34462e-10
-4.64898e-09
2.86643e-10
-2.41268e-09
1.49238e-10
-4.98443e-10
-4.48478e-09
-4.9945e-10
-8.55974e-10
-8.28071e-09
-7.73086e-10
-1.39224e-09
-1.0902e-08
-9.47328e-10
-1.4549e-09
-1.1591e-08
-8.1243e-10
-1.52309e-09
-1.24139e-08
-6.95065e-10
-1.28613e-09
-1.21635e-08
-4.5144e-10
-1.07931e-09
-1.22675e-08
-2.16832e-10
-7.70832e-10
-1.18795e-08
6.71425e-11
-5.44566e-10
-1.17634e-08
3.44261e-10
-3.59301e-10
-1.14343e-08
6.30012e-10
-2.9534e-10
-1.12712e-08
8.94293e-10
-3.36948e-10
-1.10193e-08
1.13885e-09
-5.32375e-10
-1.08468e-08
1.3706e-09
-8.0843e-10
-1.06168e-08
1.54876e-09
-1.13876e-09
-1.04668e-08
1.65034e-09
-1.48472e-09
-1.03185e-08
1.68335e-09
-1.80754e-09
-1.01775e-08
1.6413e-09
-2.07327e-09
-1.00603e-08
1.54703e-09
-2.23262e-09
-9.93833e-09
1.41362e-09
-2.28199e-09
-9.75474e-09
1.24061e-09
-2.22772e-09
-9.54973e-09
1.06714e-09
-2.08029e-09
-9.32303e-09
9.00657e-10
-1.8576e-09
-9.0713e-09
7.53602e-10
-1.57883e-09
-8.78353e-09
6.27936e-10
-1.26709e-09
-8.43716e-09
5.2703e-10
-9.42183e-10
-8.00048e-09
4.47365e-10
-6.24609e-10
-7.40419e-09
3.82741e-10
-3.41991e-10
-6.52551e-09
3.26249e-10
-1.16263e-10
-5.12584e-09
2.51138e-10
-2.66105e-09
1.32106e-10
-2.20613e-10
-4.03866e-09
-2.25506e-10
-3.81641e-10
-7.71806e-09
-4.01624e-10
-6.70892e-10
-1.00896e-08
-5.23123e-10
-7.23082e-10
-1.10705e-08
-4.68301e-10
-7.99403e-10
-1.19438e-08
-3.93715e-10
-6.80408e-10
-1.20433e-08
-2.3919e-10
-5.78095e-10
-1.22956e-08
-7.41819e-11
-3.99501e-10
-1.21931e-08
1.35031e-10
-2.75111e-10
-1.2241e-08
3.53167e-10
-1.74635e-10
-1.21118e-08
5.77017e-10
-1.65318e-10
-1.20707e-08
7.9022e-10
-2.48771e-10
-1.19518e-08
1.01598e-09
-4.47682e-10
-1.18782e-08
1.2303e-09
-7.0373e-10
-1.17439e-08
1.38319e-09
-1.00024e-09
-1.164e-08
1.46967e-09
-1.30575e-09
-1.15023e-08
1.48927e-09
-1.58458e-09
-1.13423e-08
1.44357e-09
-1.80881e-09
-1.11887e-08
1.35263e-09
-1.93934e-09
-1.10388e-08
1.23099e-09
-1.97101e-09
-1.07893e-08
1.06624e-09
-1.91253e-09
-1.05207e-08
9.12469e-10
-1.77498e-09
-1.02264e-08
7.65812e-10
-1.57468e-09
-9.90653e-09
6.34936e-10
-1.3282e-09
-9.55241e-09
5.22408e-10
-1.05877e-09
-9.14073e-09
4.34136e-10
-7.8323e-10
-8.64323e-09
3.67213e-10
-5.19767e-10
-7.98481e-09
3.17162e-10
-2.85382e-10
-7.03361e-09
2.73721e-10
-9.7747e-11
-5.52571e-09
2.12232e-10
-2.87068e-09
1.11885e-10
-1.23243e-10
-3.78654e-09
-1.28879e-10
-2.49918e-10
-7.35386e-09
-2.37518e-10
-4.54501e-10
-9.5651e-09
-3.19914e-10
-5.23799e-10
-1.0688e-08
-3.13191e-10
-6.09912e-10
-1.15833e-08
-2.74388e-10
-5.6185e-10
-1.192e-08
-1.71377e-10
-5.12665e-10
-1.22918e-08
-5.29493e-11
-3.97907e-10
-1.24024e-08
9.45654e-11
-3.09264e-10
-1.25821e-08
2.5253e-10
-2.42553e-10
-1.25998e-08
4.21291e-10
-2.59097e-10
-1.26599e-08
6.05693e-10
-3.41715e-10
-1.2668e-08
7.98841e-10
-4.79937e-10
-1.2704e-08
9.64069e-10
-6.65274e-10
-1.2641e-08
1.08244e-09
-8.86808e-10
-1.25663e-08
1.14784e-09
-1.11682e-09
-1.24289e-08
1.15666e-09
-1.31941e-09
-1.22596e-08
1.11991e-09
-1.47309e-09
-1.20748e-08
1.0398e-09
-1.56631e-09
-1.18704e-08
9.24851e-10
-1.57373e-09
-1.15626e-08
7.80754e-10
-1.50817e-09
-1.12472e-08
6.60987e-10
-1.38549e-09
-1.09006e-08
5.51544e-10
-1.221e-09
-1.05288e-08
4.57736e-10
-1.02607e-09
-1.01295e-08
3.82202e-10
-8.14034e-10
-9.67581e-09
3.23047e-10
-5.99063e-10
-9.13213e-09
2.73932e-10
-3.94828e-10
-8.42482e-09
2.35773e-10
-2.1492e-10
-7.41693e-09
2.0341e-10
-7.29116e-11
-5.82685e-09
1.59132e-10
-3.02865e-09
8.50528e-11
-6.58254e-11
-3.64316e-09
-7.75509e-11
-1.55814e-10
-7.10388e-09
-1.59992e-10
-2.99772e-10
-9.2079e-09
-2.13243e-10
-3.76252e-10
-1.03925e-08
-2.19087e-10
-4.68845e-10
-1.12886e-08
-2.02116e-10
-4.80032e-10
-1.17603e-08
-1.48593e-10
-4.90303e-10
-1.21972e-08
-8.43447e-11
-4.57872e-10
-1.24271e-08
-7.80286e-12
-4.25762e-10
-1.26899e-08
7.56223e-11
-3.97808e-10
-1.28184e-08
1.90561e-10
-4.16991e-10
-1.297e-08
3.29277e-10
-4.61578e-10
-1.30841e-08
4.60721e-10
-5.4142e-10
-1.31917e-08
5.67563e-10
-6.46535e-10
-1.3183e-08
6.47084e-10
-7.68044e-10
-1.31407e-08
6.95898e-10
-8.90135e-10
-1.3014e-08
7.07222e-10
-9.96095e-10
-1.28435e-08
6.89878e-10
-1.06594e-09
-1.26442e-08
6.39265e-10
-1.10401e-09
-1.24036e-08
5.71281e-10
-1.09534e-09
-1.20493e-08
4.77995e-10
-1.04477e-09
-1.1683e-08
3.8518e-10
-9.50732e-10
-1.12951e-08
3.00464e-10
-8.22991e-10
-1.08972e-08
2.40726e-10
-6.74816e-10
-1.04806e-08
2.02907e-10
-5.23771e-10
-1.00048e-08
1.77974e-10
-3.78057e-10
-9.43408e-09
1.56233e-10
-2.44194e-10
-8.69639e-09
1.37708e-10
-1.29829e-10
-7.65308e-09
1.21787e-10
-4.29663e-11
-6.01171e-09
9.79952e-11
-3.12594e-09
5.43243e-11
-6.04928e-11
-3.51619e-09
-6.64828e-11
-1.67613e-10
-6.85713e-09
-1.39632e-10
-3.18402e-10
-8.86599e-09
-1.9112e-10
-4.3417e-10
-1.00647e-08
-2.12032e-10
-5.56818e-10
-1.09458e-08
-2.20172e-10
-6.19569e-10
-1.14856e-08
-2.11915e-10
-6.6861e-10
-1.19505e-08
-1.97712e-10
-6.82835e-10
-1.22437e-08
-1.69109e-10
-6.99202e-10
-1.25444e-08
-1.29128e-10
-6.97545e-10
-1.2746e-08
-7.40244e-11
-6.88493e-10
-1.29617e-08
-1.72988e-11
-6.7025e-10
-1.31357e-08
3.33648e-11
-6.78864e-10
-1.32566e-08
7.35299e-11
-6.81892e-10
-1.32865e-08
1.06552e-10
-6.74088e-10
-1.32841e-08
1.35583e-10
-6.70647e-10
-1.31768e-08
1.5936e-10
-6.63402e-10
-1.3019e-08
1.68303e-10
-6.39183e-10
-1.28213e-08
1.52808e-10
-6.0608e-10
-1.25704e-08
1.3362e-10
-5.58005e-10
-1.22032e-08
1.05862e-10
-5.00505e-10
-1.18206e-08
8.01537e-11
-4.32335e-10
-1.14193e-08
5.60548e-11
-3.56739e-10
-1.1014e-08
4.11485e-11
-2.78318e-10
-1.05915e-08
3.24144e-11
-2.04005e-10
-1.01078e-08
2.86784e-11
-1.371e-10
-9.5279e-09
2.69209e-11
-8.06619e-11
-8.78097e-09
2.81437e-11
-3.75139e-11
-7.72688e-09
3.06522e-11
-1.00845e-11
-6.06891e-09
2.97748e-11
-3.1566e-09
2.05757e-11
-6.74385e-11
-3.37844e-09
-7.03061e-11
-1.90602e-10
-6.58632e-09
-1.47648e-10
-3.56965e-10
-8.49291e-09
-2.06726e-10
-5.14301e-10
-9.6653e-09
-2.42037e-10
-6.80654e-10
-1.05113e-08
-2.68153e-10
-8.12961e-10
-1.10733e-08
-2.79964e-10
-9.32989e-10
-1.15453e-08
-2.85125e-10
-1.00342e-09
-1.18833e-08
-2.89947e-10
-1.03324e-09
-1.2207e-08
-3.07536e-10
-1.01639e-09
-1.24284e-08
-3.34434e-10
-9.81509e-10
-1.26367e-08
-3.59905e-10
-9.33506e-10
-1.28096e-08
-3.74107e-10
-8.65684e-10
-1.29442e-08
-3.8023e-10
-7.52205e-10
-1.3014e-08
-3.86015e-10
-5.9911e-10
-1.30337e-08
-4.03435e-10
-4.58515e-10
-1.29123e-08
-4.05152e-10
-3.27271e-10
-1.27636e-08
-3.86664e-10
-2.00327e-10
-1.25852e-08
-3.63044e-10
-1.03322e-10
-1.23373e-08
-3.30075e-10
-1.94869e-11
-1.19929e-08
-2.94175e-10
4.8745e-11
-1.16367e-08
-2.52181e-10
9.63224e-11
-1.12564e-08
-2.10532e-10
1.23091e-10
-1.08666e-08
-1.74139e-10
1.2989e-10
-1.04528e-08
-1.45509e-10
1.23672e-10
-9.98076e-09
-1.20842e-10
1.08435e-10
-9.41414e-09
-9.85243e-11
8.43471e-11
-8.68055e-09
-7.63397e-11
5.48539e-11
-7.64212e-09
-5.52656e-11
2.3113e-11
-6.00466e-09
-3.25126e-11
-3.12212e-09
-1.13656e-11
-8.53301e-11
-3.20701e-09
-8.61051e-11
-2.45305e-10
-6.24535e-09
-1.80992e-10
-4.5021e-10
-8.03559e-09
-2.52408e-10
-6.60277e-10
-9.15276e-09
-3.02464e-10
-8.7616e-10
-9.94598e-09
-3.49435e-10
-1.06251e-09
-1.04932e-08
-3.93813e-10
-1.22383e-09
-1.09428e-08
-4.41195e-10
-1.335e-09
-1.12796e-08
-4.92594e-10
-1.3996e-09
-1.15906e-08
-5.51788e-10
-1.38934e-09
-1.18113e-08
-6.27357e-10
-1.3123e-09
-1.19914e-08
-7.22358e-10
-1.18599e-09
-1.21268e-08
-8.09196e-10
-1.00902e-09
-1.22447e-08
-8.76502e-10
-7.80356e-10
-1.2314e-08
-9.28603e-10
-5.15159e-10
-1.23373e-08
-9.61652e-10
-2.52813e-10
-1.22218e-08
-9.52798e-10
1.68209e-13
-1.20992e-08
-9.17368e-10
2.30097e-10
-1.19597e-08
-8.55364e-10
3.86657e-10
-1.17246e-08
-7.69236e-10
5.05332e-10
-1.14382e-08
-6.73368e-10
5.81939e-10
-1.11488e-08
-5.64456e-10
6.04178e-10
-1.08236e-08
-4.5501e-10
5.8073e-10
-1.04661e-08
-3.77092e-10
5.19626e-10
-1.00708e-08
-3.20876e-10
4.38777e-10
-9.62848e-09
-2.71431e-10
3.47722e-10
-9.09728e-09
-2.25813e-10
2.47327e-10
-8.39868e-09
-1.81473e-10
1.48206e-10
-7.40211e-09
-1.40892e-10
5.81074e-11
-5.82049e-09
-9.40712e-11
-3.02041e-09
-4.36054e-11
-1.04986e-10
-2.99631e-09
-1.0571e-10
-2.98889e-10
-5.83162e-09
-2.19833e-10
-5.41148e-10
-7.48923e-09
-3.04102e-10
-7.97964e-10
-8.52845e-09
-3.67501e-10
-1.05893e-09
-9.25296e-09
-4.32054e-10
-1.29243e-09
-9.75731e-09
-5.02342e-10
-1.49186e-09
-1.016e-08
-5.8338e-10
-1.63692e-09
-1.04576e-08
-6.76958e-10
-1.72516e-09
-1.07172e-08
-7.85204e-10
-1.72325e-09
-1.09124e-08
-9.00827e-10
-1.61673e-09
-1.1063e-08
-1.03489e-09
-1.41836e-09
-1.11517e-08
-1.17342e-09
-1.14963e-09
-1.12207e-08
-1.29273e-09
-8.20336e-10
-1.12636e-08
-1.37973e-09
-4.49491e-10
-1.1282e-08
-1.42613e-09
-7.34031e-11
-1.1186e-08
-1.41195e-09
2.83469e-10
-1.1094e-08
-1.36211e-09
5.99576e-10
-1.10056e-08
-1.27018e-09
8.25661e-10
-1.08128e-08
-1.1379e-09
9.77727e-10
-1.0597e-08
-9.93287e-10
1.04912e-09
-1.03732e-08
-8.47055e-10
1.04422e-09
-1.01131e-08
-7.05603e-10
9.76115e-10
-9.814e-09
-5.83969e-10
8.63274e-10
-9.4745e-09
-4.83428e-10
7.201e-10
-9.08628e-09
-3.99033e-10
5.61922e-10
-8.61191e-09
-3.27184e-10
3.95752e-10
-7.96721e-09
-2.65296e-10
2.34222e-10
-7.03024e-09
-2.10335e-10
8.87579e-11
-5.52975e-09
-1.45275e-10
-2.86049e-09
-7.11616e-11
-1.24255e-10
-2.74874e-09
-1.23317e-10
-3.50753e-10
-5.35015e-09
-2.54968e-10
-6.29398e-10
-6.85783e-09
-3.52753e-10
-9.28839e-10
-7.80345e-09
-4.25558e-10
-1.23211e-09
-8.44901e-09
-5.00686e-10
-1.51143e-09
-8.8916e-09
-5.86391e-10
-1.75176e-09
-9.22799e-09
-6.9167e-10
-1.92243e-09
-9.46982e-09
-8.17076e-10
-2.01271e-09
-9.66579e-09
-9.61113e-10
-2.00256e-09
-9.80837e-09
-1.11417e-09
-1.87854e-09
-9.91584e-09
-1.2712e-09
-1.62737e-09
-9.97016e-09
-1.43271e-09
-1.27604e-09
-9.98643e-09
-1.58563e-09
-8.56465e-10
-9.98491e-09
-1.69826e-09
-3.92201e-10
-9.98841e-09
-1.75786e-09
7.76309e-11
-9.91443e-09
-1.74136e-09
5.1962e-10
-9.85442e-09
-1.68157e-09
9.061e-10
-9.81664e-09
-1.57548e-09
1.19073e-09
-9.69038e-09
-1.40704e-09
1.36791e-09
-9.5447e-09
-1.22946e-09
1.4411e-09
-9.37876e-09
-1.06759e-09
1.42287e-09
-9.18352e-09
-9.11347e-10
1.32589e-09
-8.95599e-09
-7.61025e-10
1.16977e-09
-8.68881e-09
-6.29572e-10
9.71839e-10
-8.36703e-09
-5.21315e-10
7.52749e-10
-7.96132e-09
-4.31506e-10
5.27445e-10
-7.39628e-09
-3.45624e-10
3.08595e-10
-6.54228e-09
-2.69112e-10
1.14897e-10
-5.14728e-09
-1.88771e-10
-2.65003e-09
-9.55661e-11
-1.40208e-10
-2.46985e-09
-1.38681e-10
-3.9202e-10
-4.81473e-09
-2.83608e-10
-7.0237e-10
-6.15611e-09
-3.91374e-10
-1.041e-09
-6.99151e-09
-4.7331e-10
-1.37989e-09
-7.55092e-09
-5.59202e-10
-1.68982e-09
-7.92544e-09
-6.56232e-10
-1.95135e-09
-8.19253e-09
-7.73929e-10
-2.13613e-09
-8.37203e-09
-9.13017e-10
-2.22624e-09
-8.50104e-09
-1.07463e-09
-2.20193e-09
-8.58096e-09
-1.25173e-09
-2.05467e-09
-8.63019e-09
-1.4329e-09
-1.77426e-09
-8.64636e-09
-1.60421e-09
-1.36461e-09
-8.63327e-09
-1.7628e-09
-8.73923e-10
-8.58729e-09
-1.88831e-09
-3.40572e-10
-8.5622e-09
-1.95956e-09
1.96842e-10
-8.50497e-09
-1.94688e-09
7.02174e-10
-8.478e-09
-1.88175e-09
1.13833e-09
-8.48343e-09
-1.76937e-09
1.46062e-09
-8.41576e-09
-1.59692e-09
1.66161e-09
-8.33439e-09
-1.41131e-09
1.74339e-09
-8.23718e-09
-1.22336e-09
1.71739e-09
-8.11586e-09
-1.04167e-09
1.59945e-09
-7.96384e-09
-8.7422e-10
1.41019e-09
-7.76984e-09
-7.29701e-10
1.16854e-09
-7.5151e-09
-6.10291e-10
8.95835e-10
-7.17079e-09
-5.17817e-10
6.16054e-10
-6.67867e-09
-4.37832e-10
3.55359e-10
-5.92185e-09
-3.59735e-10
1.30616e-10
-4.66597e-09
-2.56569e-10
-2.39817e-09
-1.21241e-10
-1.50958e-10
-2.16619e-09
-1.52703e-10
-4.27617e-10
-4.22464e-09
-3.13437e-10
-7.6292e-10
-5.39612e-09
-4.24684e-10
-1.12538e-09
-6.11994e-09
-5.09107e-10
-1.48569e-09
-6.59316e-09
-5.97452e-10
-1.81501e-09
-6.8981e-09
-6.98007e-10
-2.08891e-09
-7.09888e-09
-8.19745e-10
-2.27982e-09
-7.21771e-09
-9.63415e-10
-2.36676e-09
-7.28432e-09
-1.12979e-09
-2.32987e-09
-7.30539e-09
-1.31245e-09
-2.15877e-09
-7.29928e-09
-1.50201e-09
-1.84941e-09
-7.27229e-09
-1.68343e-09
-1.4078e-09
-7.23275e-09
-1.84213e-09
-8.72335e-10
-7.16503e-09
-1.95773e-09
-2.98438e-10
-7.11024e-09
-2.02586e-09
2.82052e-10
-7.06754e-09
-2.01791e-09
8.30474e-10
-7.06996e-09
-1.95646e-09
1.29524e-09
-7.09891e-09
-1.84929e-09
1.64275e-09
-7.08297e-09
-1.6803e-09
1.86136e-09
-7.06173e-09
-1.49127e-09
1.95112e-09
-7.0307e-09
-1.29624e-09
1.92255e-09
-6.97859e-09
-1.1087e-09
1.79207e-09
-6.89584e-09
-9.37519e-10
1.58145e-09
-6.76948e-09
-7.89735e-10
1.31251e-09
-6.58064e-09
-6.6553e-10
1.00785e-09
-6.29949e-09
-5.6664e-10
6.9022e-10
-5.87598e-09
-4.85056e-10
3.9252e-10
-5.21575e-09
-4.08404e-10
1.42492e-10
-4.11697e-09
-2.98973e-10
-2.11563e-09
-1.4005e-10
-1.55659e-10
-1.84797e-09
-1.62564e-10
-4.4807e-10
-3.59989e-09
-3.32336e-10
-7.98595e-10
-4.60209e-09
-4.43508e-10
-1.17461e-09
-5.21526e-09
-5.28675e-10
-1.54621e-09
-5.60388e-09
-6.17682e-10
-1.88415e-09
-5.84238e-09
-7.17783e-10
-2.162e-09
-5.98322e-09
-8.3781e-10
-2.35242e-09
-6.04868e-09
-9.78607e-10
-2.43295e-09
-6.06374e-09
-1.14005e-09
-2.38436e-09
-6.03808e-09
-1.3159e-09
-2.19653e-09
-5.9888e-09
-1.49831e-09
-1.86668e-09
-5.92613e-09
-1.67601e-09
-1.41048e-09
-5.85785e-09
-1.8311e-09
-8.55318e-10
-5.78191e-09
-1.93827e-09
-2.61353e-10
-5.71444e-09
-1.98977e-09
3.39327e-10
-5.68538e-09
-1.98284e-09
9.05458e-10
-5.70724e-09
-1.92885e-09
1.38357e-09
-5.74998e-09
-1.82704e-09
1.74735e-09
-5.77632e-09
-1.67043e-09
1.97825e-09
-5.80189e-09
-1.49074e-09
2.075e-09
-5.82293e-09
-1.30452e-09
2.04717e-09
-5.82601e-09
-1.12476e-09
1.91094e-09
-5.80001e-09
-9.59593e-10
1.68822e-09
-5.73118e-09
-8.1559e-10
1.40262e-09
-5.60167e-09
-6.9336e-10
1.07961e-09
-5.38369e-09
-5.92793e-10
7.42281e-10
-5.03221e-09
-5.06434e-10
4.22315e-10
-4.46918e-09
-4.26603e-10
1.5166e-10
-3.52904e-09
-3.17269e-10
-1.81336e-09
-1.50605e-10
-1.60457e-10
-1.52264e-09
-1.64864e-10
-4.5709e-10
-2.96898e-09
-3.34277e-10
-8.1132e-10
-3.7997e-09
-4.48164e-10
-1.19138e-09
-4.30199e-09
-5.33205e-10
-1.56522e-09
-4.61036e-09
-6.19683e-10
-1.90355e-09
-4.78861e-09
-7.15447e-10
-2.17857e-09
-4.87896e-09
-8.29247e-10
-2.36344e-09
-4.90235e-09
-9.61459e-10
-2.43569e-09
-4.87992e-09
-1.11157e-09
-2.37777e-09
-4.82216e-09
-1.27384e-09
-2.17892e-09
-4.7458e-09
-1.44184e-09
-1.83981e-09
-4.65976e-09
-1.60548e-09
-1.38516e-09
-4.57064e-09
-1.74187e-09
-8.36148e-10
-4.49403e-09
-1.83689e-09
-2.35629e-10
-4.43475e-09
-1.8802e-09
3.66348e-10
-4.41032e-09
-1.87705e-09
9.26224e-10
-4.43369e-09
-1.83343e-09
1.41094e-09
-4.48966e-09
-1.74503e-09
1.78479e-09
-4.54491e-09
-1.60527e-09
2.02273e-09
-4.6017e-09
-1.43813e-09
2.12463e-09
-4.65751e-09
-1.26731e-09
2.09987e-09
-4.69925e-09
-1.102e-09
1.96358e-09
-4.71482e-09
-9.48901e-10
1.73737e-09
-4.69068e-09
-8.14288e-10
1.44492e-09
-4.61053e-09
-6.98686e-10
1.11301e-09
-4.44983e-09
-6.0195e-10
7.66949e-10
-4.17017e-09
-5.15988e-10
4.36998e-10
-3.70457e-09
-4.34655e-10
1.5495e-10
-2.92068e-09
-3.26316e-10
-1.50172e-09
-1.56688e-10
-1.60771e-10
-1.19901e-09
-1.62861e-10
-4.53052e-10
-2.3476e-09
-3.29097e-10
-8.02599e-10
-3.00804e-09
-4.42106e-10
-1.17777e-09
-3.40269e-09
-5.24126e-10
-1.54557e-09
-3.63668e-09
-6.05871e-10
-1.87717e-09
-3.76197e-09
-6.95036e-10
-2.14402e-09
-3.81224e-09
-7.99867e-10
-2.32017e-09
-3.80572e-09
-9.20477e-10
-2.38406e-09
-3.75965e-09
-1.05638e-09
-2.31893e-09
-3.68511e-09
-1.20218e-09
-2.11629e-09
-3.59615e-09
-1.3523e-09
-1.78154e-09
-3.50033e-09
-1.49418e-09
-1.33502e-09
-3.40814e-09
-1.60902e-09
-7.99506e-10
-3.33516e-09
-1.69438e-09
-2.08888e-10
-3.28863e-09
-1.73674e-09
3.82181e-10
-3.26822e-09
-1.73316e-09
9.31023e-10
-3.29035e-09
-1.69219e-09
1.40455e-09
-3.34902e-09
-1.61417e-09
1.77139e-09
-3.41658e-09
-1.49516e-09
2.00929e-09
-3.49019e-09
-1.34941e-09
2.11388e-09
-3.56444e-09
-1.19766e-09
2.09293e-09
-3.62839e-09
-1.04992e-09
1.96015e-09
-3.67016e-09
-9.11872e-10
1.73626e-09
-3.67754e-09
-7.89256e-10
1.44483e-09
-3.63615e-09
-6.82949e-10
1.11317e-09
-3.52524e-09
-5.92933e-10
7.67056e-10
-3.31306e-09
-5.10991e-10
4.37965e-10
-2.94533e-09
-4.30155e-10
1.55921e-10
-2.31715e-09
-3.2149e-10
-1.18967e-09
-1.56132e-10
-1.55343e-10
-8.87872e-10
-1.55797e-10
-4.36711e-10
-1.75152e-09
-3.14711e-10
-7.73337e-10
-2.24897e-09
-4.22448e-10
-1.13528e-09
-2.54169e-09
-4.99064e-10
-1.48998e-09
-2.70784e-09
-5.74133e-10
-1.80918e-09
-2.78803e-09
-6.54749e-10
-2.06428e-09
-2.80799e-09
-7.49147e-10
-2.23048e-09
-2.78281e-09
-8.56708e-10
-2.2869e-09
-2.72618e-09
-9.7705e-10
-2.21824e-09
-2.64801e-09
-1.10576e-09
-2.01708e-09
-2.55882e-09
-1.23849e-09
-1.69339e-09
-2.46597e-09
-1.35805e-09
-1.26262e-09
-2.38245e-09
-1.45645e-09
-7.48565e-10
-2.31799e-09
-1.53122e-09
-1.83722e-10
-2.28094e-09
-1.57254e-09
3.81887e-10
-2.26585e-09
-1.56798e-09
9.088e-10
-2.28707e-09
-1.5302e-09
1.36338e-09
-2.34096e-09
-1.46264e-09
1.71602e-09
-2.40807e-09
-1.36115e-09
1.94892e-09
-2.48589e-09
-1.2372e-09
2.05331e-09
-2.56466e-09
-1.10416e-09
2.03529e-09
-2.63608e-09
-9.74289e-10
1.90791e-09
-2.69054e-09
-8.52238e-10
1.69065e-09
-2.71724e-09
-7.43044e-10
1.40641e-09
-2.70453e-09
-6.47387e-10
1.08227e-09
-2.63535e-09
-5.6575e-10
7.44891e-10
-2.48541e-09
-4.90266e-10
4.25633e-10
-2.21224e-09
-4.13826e-10
1.53057e-10
-1.73643e-09
-3.08138e-10
-8.85881e-10
-1.50733e-10
-1.43861e-10
-6.00332e-10
-1.43679e-10
-4.05515e-10
-1.1994e-09
-2.90466e-10
-7.2134e-10
-1.54519e-09
-3.87957e-10
-1.06253e-09
-1.74482e-09
-4.55677e-10
-1.39791e-09
-1.85088e-09
-5.21594e-10
-1.70008e-09
-1.89369e-09
-5.92169e-10
-1.94078e-09
-1.89232e-09
-6.74974e-10
-2.09623e-09
-1.85827e-09
-7.6909e-10
-2.14677e-09
-1.80139e-09
-8.74243e-10
-2.07839e-09
-1.72984e-09
-9.86558e-10
-1.88578e-09
-1.65055e-09
-1.10088e-09
-1.57886e-09
-1.57208e-09
-1.2008e-09
-1.17176e-09
-1.50302e-09
-1.28653e-09
-6.87793e-10
-1.45068e-09
-1.35128e-09
-1.58665e-10
-1.42127e-09
-1.38879e-09
3.71388e-10
-1.41188e-09
-1.38403e-09
8.65952e-10
-1.43119e-09
-1.35044e-09
1.29282e-09
-1.47599e-09
-1.29184e-09
1.6258e-09
-1.53537e-09
-1.20568e-09
1.84773e-09
-1.60526e-09
-1.10256e-09
1.94808e-09
-1.67795e-09
-9.87059e-10
1.93161e-09
-1.74557e-09
-8.74044e-10