/*--------------------------------*- C++ -*----------------------------------*\
| =========                 |                                                 |
| \\      /  F ield         | OpenFOAM: The Open Source CFD Toolbox           |
|  \\    /   O peration     | Version:  v1912                                 |
|   \\  /    A nd           | Website:  www.openfoam.com                      |
|    \\/     M anipulation  |                                                 |
\*---------------------------------------------------------------------------*/
FoamFile
{
    version     2.0;
    format      ascii;
    class       volScalarField;
    location    "15.5/oil";
    object      wallHeatFlux;
}
// * * * * * * * * * * * * * * * * * * * * * * * * * * * * * * * * * * * * * //

dimensions      [1 0 -3 0 0 0 0];


internalField   uniform 0;

boundaryField
{
    maxY
    {
        type            calculated;
        value           uniform 0;
    }
    minX
    {
        type            calculated;
        value           uniform 0;
    }
    maxX
    {
        type            calculated;
        value           uniform 0;
    }
    minY
    {
        type            calculated;
        value           uniform 0;
    }
    minZ
    {
        type            calculated;
        value           uniform 0;
    }
    maxZ
    {
        type            calculated;
        value           uniform 0;
    }
    oil_to_sphere
    {
        type            calculated;
        value           nonuniform List<scalar> 
1536
(
27563.1
27526.5
27566.3
27420.7
27337.7
27491.8
27487.8
27454.3
27433.7
27384.7
27396.5
27369.6
27429
27420.6
27300.9
27462
27509.6
27569.3
27456.2
27435.5
27473.4
27420.7
27445.4
27463.1
27480.2
27466.1
27451.9
27452.3
27601.4
27708.9
27522.9
27465.2
27483.9
27648.1
27451.8
27539.4
27465.2
27477.3
27466.3
27647
27512.9
27524.1
27434.6
27448.6
27432
27413.2
27345.7
27390.8
27428
27343.7
27429.5
27416.4
27309.8
27439.7
27407.7
27438
27444.2
27478.6
27452.5
27502.2
27459.4
27424.6
27462.8
27593.4
27520.7
27556.5
27345.7
27344.3
27257.3
27476.9
27474.7
27472.6
27441.3
27451.3
27548.6
27475.2
27427.5
27510.2
27636.4
27555.7
27408.8
27453
27496.5
27626.1
27519.2
27572.5
27429.1
27432.8
27459.8
27488.3
27451.9
27454.9
27420.3
27470
27443.3
27467.2
27476.8
27442.3
27432
27425.4
27378.9
27359.6
27557
27548
27547.7
27455.3
27431.9
27489.2
27454.7
27501.8
27444.6
27356.2
27359.5
27589.5
27583.5
27567.1
27482.8
27441.8
27470.3
27454.4
27309.2
27477.6
27489.2
27581.9
27523.1
27471.9
27464
27502
27588
27473
27498.4
27356.1
27340.9
27354.2
27546.5
27529.3
27584.5
27440.2
27425.4
27466.5
27456.6
27498.7
27431.1
27446.3
27438.6
27465.3
27434
27467.5
27542.8
27531.7
27348.5
27462.9
27359.2
27605.4
27514.8
27508.8
27451.2
27483.1
27437.8
27326.2
27438.7
27531.9
27599.6
27480.1
27452.1
27462.4
27447.1
27322.4
27364
27439.4
27470.9
27639.2
27513.4
27464.8
27423.1
27478.1
27367.2
27367.9
27437.6
27389.1
27575.6
27586.7
27544.4
27458.9
27444
27457.7
27471.5
27432.4
27495.6
27519.6
27520.4
27556.8
27419.5
27412.9
27465.6
27521.6
27445.3
27451.6
27567.5
27518.1
27571.5
27363.6
27374
27446.4
27518.9
27412.8
27438.5
27486.8
27466.6
27374.6
27617
27627.7
27588.4
27386.4
27461.8
27414.9
27415.5
27506.6
27425.8
27459.8
27465.4
27429.9
27439.7
27416.9
27460.8
27434.4
27466.7
27396.6
27581.8
27653.8
27889.5
27767.5
27773.5
27589.9
27625.6
27459.7
27505.5
27618.6
27849.2
27501.7
27419.1
27895.8
27539.6
27666.6
27557.3
27430.6
27671.1
27564.4
27784.8
27508.7
27372.2
27544.2
27687.5
27691.3
27503.6
27441.2
27540.4
27670.6
27762
27816.4
27665.9
27906.4
27632.7
27504.2
27974.2
27290.7
27316
27704.8
27618.5
27615.3
27429.1
27403.2
27344.7
27467.2
27452.9
27595.7
27577.9
27712.5
27550.4
27450.1
27510.5
27718.7
27767.3
27504.7
27490.4
27510
27493.2
27347.3
27259.2
27287.2
27501
27498.2
27528.5
27574.6
27332.5
27262.5
27279.9
27285.1
27499.4
27622.6
27482.3
27567.1
27368.6
27663
27587.2
27804.3
27785
27971.5
27559.4
27328
27288.7
28016.2
27799.5
27604
27316.6
27309.1
27796.7
27564.9
27766
27700.7
27603.7
27918.4
27484
27478.4
27498.9
27495.6
27595.6
27490.1
27591.9
27513.4
27281
27575.6
27518.1
27549.1
27390.5
27361
27575.3
27559.7
27643.9
27405.9
27471.1
27451.7
27470.1
27627.9
27579.4
27496.8
27465.4
27514.6
27577.4
27298.3
27642.2
27565.9
27774.6
27384.3
27455.8
27482.3
27456.4
27627.7
27606
27597.4
27262.2
27581
27653.8
27824.5
27425.1
27409.5
27418.3
27562.1
27563
27476.1
27455.6
27495.5
27521.3
27331.8
27338
27629.4
27700.7
27587.5
27575.8
27621.6
27585.7
27440.3
27454.8
27417.9
27537.6
27391.5
27552.1
27711.8
27693.1
27565
27627.8
27509.7
27551.5
27490.9
27518
27284.8
27383.9
27380.7
27705.6
27813.2
27530.6
27449.5
27529.2
27343.6
27533.2
27809
27697
27940.9
27469.8
27499.4
27383.6
27383.4
27492.8
27450.6
27540.8
27590.4
27834.7
27431.3
27433.3
27319.8
27303.8
27431.3
27679.5
27654.7
27575.6
27437.3
27465.8
27623.7
27515.2
27999.2
27440
27288.1
27461.3
27636.2
27660.8
27607.4
27486.7
27540.1
27531.9
27564.1
27282.5
27353.1
27424.5
27581.7
27535.6
27785.7
27469.5
27469.6
27594.8
27664.8
27544.7
27672.7
27536.7
27554.8
27286
27495.9
27458.2
27529.3
27359.9
27421.4
27568.7
27616.6
27897.9
27457.8
27456.9
27460.3
27496.1
27475.1
27570.5
27512.1
27414.5
27338.8
27402.8
27361
27395.5
27621.3
27624.7
27561.6
27644.5
27573.1
28034.3
27306.6
27309.2
27774
27596.9
27727.1
27729.3
27572.9
27940.6
27459.3
27485
27502.2
27432.8
27470.2
27543.5
27423
27465.3
27535.7
27541.2
27618.5
27495.4
27477.6
27491.1
27512.9
27333.7
27572.9
27692.2
27553.8
27466.3
27383.7
27455.1
27480.1
27585
27579.3
27520
27562.6
27520.5
27547.2
27268.6
27413.2
27342.3
27604.9
27758.9
27639.7
27457.4
27438.8
27512.2
27458.9
27480.5
27649.4
27744.8
27704.9
27488.2
27349.2
27457.9
27428
27469.3
27489.7
27560.8
27331.5
27553.1
27529.1
27481.1
27427.7
27350.8
27570.6
27573.5
27876.3
27494
27448.9
27579.7
27581.4
27459.3
27510
27503.2
27495.9
27333.3
27525.8
27462.9
27412.6
27440.9
27583.1
27598.8
27368.1
27395.6
27359.9
27376.2
27619.4
27646
27641.8
27634.9
27622.5
27478.4
27483.3
27488.3
27524.8
27322.7
27644.7
27650
27683
27446.1
27366
27463
27438.9
27650.4
27586.6
27465.6
27551.9
27484
27505.8
27252.7
27459
27423.2
27455
27456.9
27390.5
27586.3
27718.1
27678.9
27481.8
27417.8
27453.2
27394.4
27414.4
27433.5
27693.8
27603.2
27607.7
27384.5
27468.9
27434.8
27468.3
27432.5
27471.4
27473.9
27565.2
27587.5
27428.8
27440
27459.6
27486.7
27358
27433.4
27348.7
27659.8
27642.8
27570
27493.2
27451.3
27482.9
27390
27597.9
27692.7
27734.4
27472.2
27436.8
27588.5
27624.7
27462.6
27464.4
27561
27477.4
27320.1
27411.9
27332.7
27585.9
27550.7
27920.9
27491.4
27462.1
27600
27800.1
27548.4
27559.4
27459.6
27524
27258
27440.8
27475.5
27464.5
27455.8
27502.9
27503.8
27498.7
27549.2
27404
27326.3
27307.4
27321.8
27499.1
27579.4
27516.5
27640.4
27300.1
27587
27563.7
27458.8
27518.7
27534.6
27476.8
27324.6
27423.2
27345
27596.1
27858.2
27568.2
27450.5
27457.5
27537
27524.8
27489.2
27529.1
27528.9
27528.1
27475.8
27516
27497.9
27331.8
27499.6
27502.9
27510.1
27525.3
27492.9
27440.4
27425.8
27475.3
27477.8
27327.8
27466.4
27726.2
27626.8
27785.2
27449.5
27466.3
27411.5
27563.6
27446.1
27595.1
27573.2
27507.7
27549.8
27534
27463.9
27290.2
27431
27351.9
27647
27590.6
27574.1
27461.6
27456.9
27554.3
27557.8
27521.7
27459.4
27440.1
27539.4
27318
27431.9
27489.5
27507.8
27483.6
27360.3
27730
27850.5
27632.5
27482.9
27470.8
27559
27590.2
27490
27453.4
27505.1
27526.6
27300.7
27500.1
27456.1
27506.1
27426.4
27385.5
27409.7
27380.7
27552.9
27634.1
27626.2
27727.7
27542.4
27943.4
27747.3
27754.1
27581.6
27330.3
27324.6
27718.2
27767.9
27579
27630.3
27496.4
27852.9
27346.9
27458.4
27607.2
27466.6
27475.8
27379.4
27707
27532.5
27679.1
27627.5
27635.9
27476.8
27620.5
27575.6
27515.7
27326.9
27636.8
27617
27480.9
27535.9
27557.7
27549.8
27296.2
27434.1
27408.1
27409.4
27437.2
27357.8
27626.2
27856.2
27557.5
27474.6
27444.1
27442.8
27321.4
27607.5
27832.9
27644.7
27466.2
27466.2
27383
27309.8
27412.7
27394.6
27503
27494.5
27543.2
27463.7
27404
27267
27402.4
27347.9
27668.4
27642.3
27579.2
27432
27594.5
27520.8
27277.7
27345
27453
27776.2
27581.5
27578
27483.2
27452.9
27483.1
27335.9
27744
27638.2
27583
27454.6
27434.3
27935.9
27857.3
27589.1
27684.6
27790.4
27529.9
27298.3
27312.6
27793.2
27740.3
27603.8
27449.4
27315.5
27425.5
27408.6
27513.5
27509.9
27452.1
27562.1
27323
27298.1
27265.4
27470.3
27422.4
27754.1
27566.3
27769.2
27489.2
27399
27798.5
27586.9
27700.7
27436.5
27434.3
27325.1
27819.6
27566.7
27772.5
27298.9
27269.9
27893.8
27577.7
27665.6
27972.7
27641.3
27705.3
27603.7
27658.1
27540.6
27387.5
27681.5
27589.7
27612.7
27458.3
27446.8
27411.7
27268.3
27530.8
27491.6
27481.3
27549.1
27363.2
27270.6
27432.9
27434.2
27321
27524
27400.7
27710
27546.6
27709.2
27493.2
27501.4
27461.7
27579.1
27570.3
27492.6
27549.2
27477
27488.1
27293.5
27354.4
27470.2
27809.3
27584
27651
27461.3
27447.4
27445.7
27370.1
27716.4
27541.4
27593.6
27479.3
27441.9
27305.2
27602.9
27553.3
27682.9
27605.8
27571.9
27651.6
27439.7
27423.1
27446.3
27396.5
27415.3
27390.7
27511.9
27478.7
27469.7
27492.7
27467.8
27409.1
27249.7
27623.4
27605
27487.7
27450.1
27574.4
27544.1
27289.3
27672.1
27613.2
27483.6
27448.5
27533.5
27554.1
27274.7
27342.3
27415
27814
27592.5
27548.1
27452.3
27445
27320.6
27490.9
27809.2
27846.4
27650
27444.4
27494.4
27663.6
27737.8
27549.6
27667.7
27784
27520.6
27339.6
27362.8
27637.8
27665.5
27532
27332.7
27445.3
27515.6
27467.4
27509.1
27422.3
27721.3
27545
27691.1
27654.9
27519.7
28192.5
27326.5
27335.4
27542.8
27611.3
27776.3
27703.9
27606.7
27610.3
27439.8
27304.5
27452.2
27669.4
27509.9
27423.6
27552.5
27667.8
27636.6
27962.3
27584.4
27728.3
27407.7
27321.2
27541
27646.5
27759.3
27473.4
27453
27486.1
27309.5
27744.4
27774.2
27675.3
27469.2
27409.5
27611.1
27771.5
27554.2
27571.1
27573.7
27505.7
27249
27681.3
27517.9
27496.6
27618.5
27514.8
27530.6
27215.1
27443.1
27460.1
27545.6
27644.8
27543.9
27573.3
27563
27597
27602.3
27306.4
27479.1
27447.5
27401.6
27230.7
27447.2
27500.4
27462.7
27514.2
27464.5
27523
27415.6
27425.5
27348.8
27562.9
27682.5
27558.1
27451
27455
27614.9
27630.7
27533.1
27416.9
27579.2
27552.1
27257.9
27357.5
27356
27642.8
27666.6
27545
27456.9
27512.2
27533.8
27293.1
27745.5
27625.6
27759.3
27321.2
27305.4
27808
27533
27752.1
27694.6
27761.3
27600.6
27671.3
27590.7
27642.2
27226.5
27628.2
27711.5
27627.6
27431.8
27399.3
27368.7
27282.6
27544.9
27506.4
27517.1
27606.7
27364.1
27253.4
27434.6
27427.7
27335.2
27525.9
27413
27724.7
27552.1
27683.2
27313.2
27332.9
27564.8
27821.4
27698.7
27917
27571.2
27773.6
27641.2
27558.3
27852.4
27413.7
27428.1
27411.8
27384.8
27717.1
27592
27741.1
27643
27639.5
27772.6
27225.2
27443.6
27280
27268.4
27502.4
27597.5
27504.4
27462.8
27345.2
27525.8
27428.9
27532.8
27676.6
27721
27498.5
27415.5
27541.8
27711.8
27943.9
27498.4
27381.9
27576.6
27846.8
27521.5
27488.9
27425.5
27671.3
27723.4
27608.2
27611.6
27619.4
27562.6
27231.5
27430.9
27537.7
27514.2
27572.1
27483.4
27477.2
27566.8
27565.6
27518.6
27365.3
27428.4
27366.6
27643.8
27570.5
27591.5
27307.9
27558.6
27559.3
27591.2
27466.7
27424.7
27394.5
27271.7
27433.4
27363.2
27511
27480.9
27485.4
27524.5
27414.4
27346
27452.8
27568.3
27625.2
27736.3
27451.2
27453.5
27335.8
27455.9
27557.6
27637.5
27757.1
27464.4
27466.2
27384.3
27379.3
27571.8
27627.1
27453.6
27416
27518.3
27564.5
27295.3
27607.4
27640.5
27551.2
27434.2
27503.3
27473.3
27306.4
27326.4
27307.7
27888.2
27552.3
27781
27710.4
27757.8
27603.6
27537.1
27413.4
27518.8
27719.9
27692.9
27713.9
27807.3
27670.7
27474
27461.8
27468.5
27497.1
27421.5
27472.3
27453.8
27447
27496.5
27333.4
27442.1
27691.9
27590.5
27661.6
27423.6
27472
27442.2
27516.4
27405.5
27682.3
27603.3
27478.4
27500.3
27468.5
27540.8
27279.4
27745.8
27849.3
27772.2
27474.1
27329
27472.2
27445.4
27560.5
27666.4
27514.7
27484.7
27491.5
27469.9
27317
27534.5
27505
27486
27569.2
27739.7
27551.7
27472.5
27395.2
27470
27478.9
27501
27571.6
27561.4
27318.5
27516.9
27548.8
27461
27537.2
27537.5
27486
27385.1
27374.8
27363.8
27387.4
27622.9
27615.6
27588.6
27447.2
27550.2
27437.1
27334.4
27440.8
27691.4
27610.8
27621.4
27405.8
27471
27633.9
27629.1
27534.9
27457.6
27491.6
27501.2
27286.6
27738.5
27574.1
27622.6
27471.1
27382.7
27457.7
27445.8
27485.5
27499.3
27481.2
27505.1
27613
27383.8
27301.9
27443.4
27426.2
27518.1
27684.8
27575.5
27499.1
27518.9
27537.7
27248
27432.9
27525.8
27717.2
27593.2
27601.2
27467.6
27425
27440.3
27445.7
27529.4
27275.8
27560.4
27614.8
27482.9
27808.9
27638.4
27630.1
27394.4
27466.9
27481.4
27466.5
27669.6
27564.6
27461.7
27641.3
27563.4
27609
27378.2
27430.4
27434.1
27475.4
27607.9
27696.1
27596.7
27459
27363.7
27468.5
27432.8
27565.6
27621.1
27473.1
27472.7
27559.4
27591.1
27300.9
27450.8
27305.2
27491.8
27462.2
27455.3
27449.9
27569.3
27417.9
27311.7
27338.1
27484.9
27628.5
27670.5
27811.4
27477.9
27499.9
27505.8
27491.7
27477.3
27544.4
27593
27443.2
27463.7
27466.2
27481.1
27329.3
27584.3
27574.1
27604.5
27363
27450.3
27444.6
27434.8
27456.3
27503.7
27498.3
27312.4
27584.4
27567.5
27525.3
27420.9
27469.3
27532.9
27511
27474.2
27450.3
27488
27458
27419.5
27553.3
27515.8
27462.3
27532.6
27471.1
27570
27296.9
27313.6
27453
27757.6
27669.2
27624
27459.9
27443.8
27612.6
27547.7
27494.8
27443.5
27474.7
27500.2
27344.8
27901.3
27611.2
27557.9
27336.8
27452.6
27472.8
27459.9
27513
27467.3
27416.6
27334.2
27454.4
27550.4
27622.2
27877.2
27487.6
27457.9
27595.1
27558.8
27495.5
27422.1
27489.1
27516.3
27304.7
27563.6
27614.4
27699.9
27350.1
27453.3
27465.2
27456.8
27472.1
27540
27543.3
27293.9
27653.4
27580.6
27539.3
)
;
    }
}


// ************************************************************************* //
