/*--------------------------------*- C++ -*----------------------------------*\
| =========                 |                                                 |
| \\      /  F ield         | OpenFOAM: The Open Source CFD Toolbox           |
|  \\    /   O peration     | Version:  v1912                                 |
|   \\  /    A nd           | Website:  www.openfoam.com                      |
|    \\/     M anipulation  |                                                 |
\*---------------------------------------------------------------------------*/
FoamFile
{
    version     2.0;
    format      ascii;
    class       volScalarField;
    location    "262/oil";
    object      wallHeatFlux;
}
// * * * * * * * * * * * * * * * * * * * * * * * * * * * * * * * * * * * * * //

dimensions      [1 0 -3 0 0 0 0];


internalField   uniform 0;

boundaryField
{
    maxY
    {
        type            calculated;
        value           uniform 0;
    }
    minX
    {
        type            calculated;
        value           uniform 0;
    }
    maxX
    {
        type            calculated;
        value           uniform 0;
    }
    minY
    {
        type            calculated;
        value           uniform 0;
    }
    minZ
    {
        type            calculated;
        value           uniform 0;
    }
    maxZ
    {
        type            calculated;
        value           uniform 0;
    }
    oil_to_sphere
    {
        type            calculated;
        value           nonuniform List<scalar> 
1536
(
934.437
1001.59
885.52
867.826
653.005
697.975
684.929
331.254
279.243
1064.76
639.305
1081.98
1110.4
1082.13
860.111
646.876
344.198
285.555
-589.669
1106.77
1065.62
709.708
689.371
658.469
727.583
726.676
727.059
662.069
1002.71
982.905
887.565
549.028
456.676
732.565
652.034
643.151
587.944
795.078
709.554
785.332
709.203
643.866
969.579
1084.03
995.628
1073.12
704.133
706.884
837.563
734.367
711.739
714.583
677.78
698.087
503.94
433.09
691.845
687.956
291.407
-80.9737
0.496183
-91.5133
-14.617
1105.84
1115.02
1078.72
1002.03
1077.71
928.962
990.131
737.469
697.368
884.852
714.239
652.98
463.953
419.264
388.437
649.095
285.337
-94.3774
-14.1677
-184.669
-193.129
41.6938
-4.00395
-170.695
338.857
284.088
-82.4738
-7.05159
-591.03
-588.767
1112.67
1116.5
1086.39
1020.66
1050.78
1082.47
922.111
1008.66
731.722
925.99
891.475
705.229
713.64
659.614
396.129
636.598
470.962
412.637
454.195
-83.7318
1.45775
-177.907
-166.293
-180.412
36.7464
-4.15186
49.6438
289.809
-5.71111
-590.033
1078.7
921.935
988.088
929.941
981.515
710.588
715.043
725.691
710.545
715.663
703.058
722.245
723.275
698.636
434.385
682.04
678.406
-79.457
-1.49369
341.294
291.141
-12.7181
276.155
844.871
843.358
680.728
748.279
884.863
840.1
703.229
724.489
711.891
587.034
512.443
524.334
847.198
821.83
847.091
923.244
773.408
723.647
643.965
591.482
697.839
611.048
518.336
532.498
954.623
806.326
985.633
789.878
535.857
409.306
853.217
861.216
893.447
831.79
769.541
718.817
593.689
709.849
554.161
535.393
522.455
1022.66
831.026
888.725
946.797
852.592
930.141
877.66
565.153
567.63
609.328
619.082
550.493
580.139
607.402
650.405
282.82
252.457
221.558
305.073
344.578
327.713
390.36
364.598
258.371
196.117
162.984
1045.13
1144.85
1116.03
1050.66
1053.64
1063.76
1047.7
1034.3
1087.32
1005.14
1038.78
1040.09
860.054
854.736
992.399
915.568
749.233
595.974
554.643
696.778
568.819
261.406
293.32
230.275
307.551
337.609
239.697
189.619
-258.843
-322.205
1098.31
1045.9
1065.32
1037.6
1077.26
1147.75
1081.08
1036.43
821.342
734.7
824.483
840.087
578.026
653.183
267.152
202.489
348.222
419.961
382.591
171.669
-326.944
-266.154
-447.403
-449.166
-259.072
1064.9
1031.88
1025.32
1006.96
1037.71
1041.94
1018.31
1070.49
1168.33
1099.99
1032.29
928.02
843.58
848.201
907.403
999.166
921.594
851.053
849.443
589.267
599.116
653.46
668.55
608.456
650.594
231.685
197.186
247.978
323.651
294.35
342.271
328.12
331.406
227.031
181.449
304.598
246.638
747.94
678.108
695.682
590.287
555.381
537.03
496.496
969.901
909.896
999.255
957.034
910.459
960.653
982.685
1005.62
1048.1
976.827
995.827
978.886
1135.62
1065.72
1041.69
997.914
1050.51
1096.16
1039.87
938.539
960.374
986.604
913.555
989.571
1009.19
1048.5
1041.71
1084.46
1068.53
1055
1018.54
1017.84
1008.21
1018.99
966.976
968.981
922.43
964.484
898.552
920.126
1008.84
844.365
959.299
856.768
880.766
829.646
749.942
952.866
848.207
838.856
905.295
752.662
809.535
845.884
740.914
782.889
704.267
861.879
949.243
849.57
858.199
879.665
768.782
815.43
804.114
593.255
629.67
582.228
520.391
478.744
524.842
432.408
400.803
601.886
634.986
595.598
536.277
491.033
555.818
432.203
400.326
376.405
554.39
395.265
533.907
496.415
539.15
431.839
597.504
641.601
589.732
632.912
418.882
380.254
533.988
494.517
548.176
420.268
389.097
324.124
287.486
319.826
284.799
227.591
230.098
184.447
272.219
204.604
349.076
174.2
193.271
153.554
107.071
173.123
146.746
73.4528
39.9692
-34.0982
293.957
263.706
223.738
310.714
197.929
230.704
73.9352
32.8794
11.9732
-33.3048
157.114
114.432
175.387
148.905
134.052
319.877
283.931
322.885
329.061
229.872
180.734
288.797
242.404
1270.79
1193.13
1125.73
1251.88
1138.65
1157.79
1196.39
1090.69
1113.57
1142.45
1135.07
1040.33
1094.23
1019.9
1011.58
990.726
988.271
1018.57
1003.17
1049.8
1092.18
958.977
1057.15
973.609
1016.71
980.896
1061.98
995.32
1058.94
1030.65
1076.32
1037.84
961.849
1004.49
923.805
998.918
833.771
880.336
868.022
714.341
780.678
768.977
858.509
714.282
840.674
704.688
777.356
726.837
658.163
696.787
598.594
569.805
497.903
541.232
520.947
471.843
409.046
540.926
406.138
644.243
586.742
513.286
196.705
150.397
114.287
184.011
153.217
261.592
198.317
345.158
167.096
68.5531
47.0848
-27.0191
-130.145
-203.726
-123.317
-200.529
-64.8028
0.419209
-67.4694
-143.561
-125.107
252.591
288.625
220.83
304.755
164.169
116.053
183.421
140.027
254.143
192.473
321.967
379.949
169.64
70.1416
139.457
39.5999
-33.4662
111.647
-263.947
-323.204
-254.384
-322.155
-443.058
-443.835
-444.996
-445.65
-328.41
1225.4
1112.53
1159.34
1143.61
1117.01
1226.87
1160.13
1140.07
1109.11
1044.9
1133.56
1148.53
1178.48
1050.24
1050.16
1095.37
1101.45
959.272
1035.79
961.73
1065.54
1022.92
1017.58
992.748
1033.95
989.451
1028.32
1071.95
997.134
952.409
930.748
1026.84
1066.59
958.586
1046.99
971.913
923.71
1080.81
1020.65
1011.85
1033.01
978.007
977.747
1013.3
1060.19
982.09
927.881
862.77
836.519
783.897
724.195
793.833
909.043
878.816
863.716
807.375
801.01
763.906
768.211
776.54
712.748
716.34
593.893
692.153
555.574
608.25
540.232
499.972
740.512
654.652
430.598
561.984
404.708
560.3
467.986
406.682
521.459
531.565
520.514
523.187
503.126
705.58
577.331
69.2209
50.5174
16.6754
-24.8731
291.692
254.231
224.7
307.134
197.806
230.972
120.586
178.322
181.014
146.993
129.236
-60.7908
-60.2273
6.21193
-138.013
-127.719
-204.65
-123.429
-121.976
-206.857
-5.83658
-72.4347
-66.8308
4.35124
-141.783
256.013
195.549
336.784
372.571
170.891
73.1193
142.275
33.2579
12.0509
115.14
238.409
185.662
284.295
260.206
223.181
307.511
334.718
113.029
154.593
180.501
142.473
133.78
-446.142
-443.278
-256.077
-262.139
-319.966
-328.562
-186.105
-264.356
-327.639
908.286
984.329
970.412
903.98
972.373
906.145
902.855
1059.13
1032.84
1095.67
1035.28
962.666
1011.45
985.736
1048.74
995.154
1021.69
964.155
965.964
1063.27
1019.79
998.258
1005.06
978.561
976.558
1003.3
931.441
920.89
964.922
998.496
959.965
1028.95
985.048
1094.86
965.669
932.114
950.449
963.941
922.852
907.309
1011.23
851.896
777.835
780.18
824.267
718.594
942.149
847.122
843.511
888.706
810.909
813.068
769.915
907.746
832.993
845.386
886.089
757.878
768.578
836.638
821.794
717.693
873.943
937.8
864.726
878.326
817.113
814.258
779.052
777.843
712.345
531.349
491.539
541.424
431.117
415.943
383.42
625.153
569.397
634.432
594.378
491.39
534.178
532.378
418.145
387.807
396.586
597.309
593.957
641.331
589.502
640.248
413.508
431.956
526.841
485.238
533.959
413.586
385.838
654.332
584.913
588.387
612.061
647.887
430.576
393.911
496.518
542.746
541.709
283.491
324.533
228.653
223.45
177.477
320.359
286.966
324.96
156.715
113.206
178.716
140.626
84.8218
157.814
46.4169
-28.9497
121.87
258.355
283.811
219.855
308.78
375.35
459.576
288.928
218.306
180.773
201.006
261.929
72.3418
135.197
37.7226
22.9509
106.573
161.616
119.03
170.699
156.878
134.456
323.466
373.918
261.013
196.676
166.44
307.679
341.807
259.588
291.547
229.07
893.918
855.057
417.598
358.589
1081.16
1019.94
1061.37
1075.13
1060.76
837.442
933.113
898.449
930.039
639.525
715.58
358.829
-193.952
-233.935
888.206
885.838
335.667
-190.328
-240.26
-80.4862
1076.49
852.508
688.79
-90.5134
932.68
877.612
913.35
633.385
727.593
710.848
330.552
893.441
932.775
706.768
722.604
917.333
702.012
717.264
611.467
653.785
388.802
458.368
512.355
856.118
902.228
692.565
770.912
630.523
683.319
389.042
456.789
473.082
845.116
925.435
698.175
804.302
493.015
397.619
479.086
597.024
775.812
759.057
917.648
938.856
721.982
711.986
689.309
716.153
469.066
398.204
469.057
342.126
1147.09
1107.29
920.919
1050.89
915.505
1085.95
1066.12
718.498
861.695
858.638
886.357
854.382
699.248
485.539
456.221
455.945
464.873
460.917
441.725
84.428
357.491
51.7441
91.983
1115.6
1068.28
1129.96
1078.59
1115.16
1089.29
1115.75
1103.98
1134.95
1094.73
919.496
1054.84
918.354
987.166
922.657
695.676
787.43
842.872
955.064
732.183
903.644
695.516
396.889
470.195
492.968
411.185
453.429
451.959
343.96
90.0042
25.957
-7.36224
12.5458
356.123
81.231
-229.156
-224.014
-237.509
1146.59
1112.77
1091.35
1170.33
1099.88
1131.2
1092.79
1151.39
1125.24
926.689
1050.92
895.573
1072.36
1063.76
1018.06
1059.93
1007.77
907.925
947.931
690.256
834.237
951.397
853.966
935.733
722.421
390.808
476.393
625.902
707.749
441.042
510.278
407.165
464.801
686.892
361.607
85.9034
-16.684
28.1432
-9.60242
351.135
80.9116
-226.599
-236.565
-232.409
1108.9
978.383
933.133
1078.77
909.271
718.943
886.031
863.237
861.374
854.728
448.283
514.311
444.541
444.391
449.438
82.1834
372.134
96.77
370.993
913.446
839.702
766.118
833.864
928.366
850.84
539.596
595.291
535.563
874.031
926.058
866.175
792.815
928.371
752.225
826.914
814.269
746.833
864.099
806.475
919.374
776.812
808.572
811.735
774.83
647.58
633.23
544.572
542.94
484.643
411.627
530.357
465.528
501.852
920.37
827.042
782.706
828.089
901.24
747.046
764.445
771.959
677.59
822.932
592.152
675.097
651.944
553.231
560.252
496.016
411.797
520.455
457.169
504.111
834.002
898.344
746.914
753.426
781.649
665.229
819.129
637.621
540.105
455.966
544.538
501.516
529.107
1014.62
1018.58
1006.29
1028.05
769.21
909.333
870.305
599.087
600.789
652.333
643.942
638.5
328.773
396.321
379.836
247.053
222.381
406.807
344.623
342.505
1027.73
1045.15
1071.98
1006.16
796.804
864.299
761.529
940.05
851.981
636.78
635.274
554.77
338.105
428.654
379.624
251.799
-61.7587
-50.145
-138.964
-128.257
-205.991
-254.748
1029.63
1020.47
1019.35
995.206
1056.49
833.281
904.727
871.323
585.803
225.12
391.626
-128.911
-206.745
-256.784
-343.192
-34.238
1027.16
1036.06
1072.14
1025.47
1055.39
1054.03
1032.93
1016.17
1059.03
752.034
815.185
992.686
854.205
644.081
645.468
339.395
396.23
331.961
290.67
376.027
243.089
-28.2299
637.79
379.497
959.606
930.468
835.983
839.51
639.215
583.07
619.907
521.193
452.97
535.482
463.5
463.783
436.765
1142.44
1111.82
881.746
893.714
967.325
1015.23
999.07
1014.9
899.933
963.419
937.588
996.489
902.211
955.273
1040.31
1004.76
1011.83
1005.17
892.492
934.203
955.288
988.847
1024.81
1061.73
1034.76
1052.14
975.104
896.17
947.783
1059.46
1030.1
1064.13
1034.24
902.662
1017.81
1048.83
997.044
933.944
959.527
937.416
834.234
794.593
962.742
835.188
774.091
771.533
695.002
705.245
701.381
788.931
929.634
863.531
718.692
710.441
774.808
720.757
789.591
903.768
818.978
711.249
662.723
648.7
511.683
535.467
410.759
651.353
512.848
549.416
422.458
606.563
652.282
519.462
419.908
644.883
483.711
521.705
334.983
333.378
223.552
232.363
131.519
139.194
235.935
144.48
119.345
36.4821
6.65954
2.43563
52.3354
322.73
249.094
139.773
108.195
43.896
47.0418
0.330459
291.434
338.034
136.648
1156.78
1084.24
1121.32
1043.08
1078.14
1156.18
1019.05
1229.42
1082.67
1102.08
1091.03
1158.13
1095.99
1148.92
1234.31
1160.46
1081.01
1133.45
974.924
1024.47
1104.93
1051.4
918.272
1011.72
959.216
1035.48
1003.04
1026.96
1003.54
1062.62
962.423
886.878
925.363
975.22
1057.02
1017.59
1011.11
976.303
757.673
809.508
711.301
836.508
896.48
762.117
808.661
826.19
841.161
848.462
904.604
770.476
594.248
543.516
492.777
560.36
643.2
450.536
467.93
531.628
599.525
540.409
480.394
410.391
49.7855
22.6832
11.4106
221.487
139.16
108.655
40.7061
323.233
353.322
42.0179
13.2733
223.889
45.846
-254.213
-251.826
-333.933
-186.364
-339.949
-245.688
-168.163
1173.3
1081.63
1195.73
1128.69
1121.19
1067.13
1081.45
1019.5
1142.86
1197.12
1148.65
1085.33
1069.77
1051.95
1097.9
1101.37
1099.77
974.973
1064.55
953.474
1048.71
1064.46
1021.54
876.641
1048.54
988.526
1020.42
1006.92
971.936
1008.01
1007.11
919.799
955.149
901.597
813.559
918.256
838.658
766.676
741.13
670.365
777.3
914.762
819.414
825.79
619.506
465.035
484.535
581.954
573.128
507.156
560.977
550.677
536.157
481.204
631.684
638.047
140.132
111.281
44.1755
337.05
254.522
44.0174
8.41654
228.476
49.3235
325.192
37.3464
-337.972
-247.187
-167.465
1155.19
1024.89
913.317
1003.74
907.003
912.871
952.694
1056.79
1024.83
1013.8
918.708
962.282
989.066
975.641
1033.03
1007.85
1022.67
1005.37
974.172
893.807
1004.25
949.76
936.195
846.927
718.236
801.953
962.52
829.786
771.527
705.157
704.909
784.419
917.447
707.64
779.038
913.272
718.986
507.08
429.562
613.905
649.004
616.38
505.262
553.112
635.901
486.845
643.188
487.121
127.972
335.877
39.7887
11.6729
58.4929
327.23
394.022
235.376
41.5632
57.1103
219.622
329.996
)
;
    }
}


// ************************************************************************* //
