/*--------------------------------*- C++ -*----------------------------------*\
| =========                 |                                                 |
| \\      /  F ield         | OpenFOAM: The Open Source CFD Toolbox           |
|  \\    /   O peration     | Version:  v1906                                 |
|   \\  /    A nd           | Web:      www.OpenFOAM.com                      |
|    \\/     M anipulation  |                                                 |
\*---------------------------------------------------------------------------*/
FoamFile
{
    version     2.0;
    format      ascii;
    class       volScalarField;
    location    "44";
    object      T;
}
// * * * * * * * * * * * * * * * * * * * * * * * * * * * * * * * * * * * * * //

dimensions      [0 0 0 1 0 0 0];


internalField   nonuniform List<scalar> 
78750
(
130.056
217.246
359.42
360.517
348.212
340.675
334.782
330.568
327.88
326.46
325.832
325.61
325.56
325.552
325.505
325.36
325.079
324.655
324.097
323.395
322.585
321.836
320.907
319.868
320.022
319.718
318.906
320.866
322.471
315.34
302.952
295.452
294.692
304.209
346.159
400.944
409.062
391.522
382.323
376.63
371.384
364.691
354.134
341.831
332.305
326.68
323.192
320.275
317.279
314.065
310.741
307.578
304.811
302.495
300.563
298.941
297.559
296.374
295.559
295.47
296.638
298.513
300.199
301.58
303.012
305.176
308.94
315.636
328.323
361.006
351.367
357.143
353.312
339.623
318.406
305.556
301.528
300.146
299.079
298.187
297.542
297.163
296.971
296.91
296.95
297.072
297.258
297.509
297.836
298.257
298.795
299.476
300.359
301.531
302.971
304.574
306.207
307.791
309.319
310.797
312.217
313.756
316.088
322.369
353.321
327.429
333.89
335.18
330.423
318.608
308.779
304.509
303.308
303.5
304.127
304.78
305.385
305.955
306.524
307.131
307.814
308.597
309.489
310.523
311.751
313.174
314.855
317.031
319.682
322.097
323.843
324.961
325.634
326.125
326.845
328.537
332.593
339.972
348.302
373.786
313.819
318.344
318.8
316.443
313.045
311.092
310.419
310.314
310.451
310.699
310.972
311.233
311.471
311.695
311.912
312.131
312.365
312.627
312.921
313.247
313.591
313.931
314.232
314.444
314.506
314.37
313.991
313.344
312.406
311.622
314.101
323.498
340.698
364.643
393.58
304.764
307.462
308.225
308.16
307.762
307.427
307.29
307.359
307.607
308.01
308.539
309.172
309.862
310.538
311.197
311.872
312.556
313.244
313.923
314.573
315.197
315.844
316.541
317.255
317.96
318.658
319.405
320.322
321.469
322.751
323.915
324.892
327.631
336.33
365.831
298.905
298.431
298.83
299.64
300.69
301.791
302.862
303.875
304.83
305.739
306.626
307.516
308.426
309.362
310.3
311.215
312.127
313.058
314.004
314.952
315.889
316.791
317.643
318.463
319.255
319.971
320.541
320.844
320.696
319.726
317.691
314.968
310.642
300.075
328.998
300.519
302.787
304.952
307.409
309.734
311.278
312.332
313.072
313.575
313.922
314.173
314.358
314.496
314.604
314.7
314.792
314.88
314.956
315.002
315.042
315.11
315.177
315.2
315.15
315.008
314.765
314.403
313.879
313.114
312.043
310.194
307.83
305.945
287.857
309.288
308.036
315.841
321.575
327.696
330.815
328.971
327.779
327.908
328.117
328.409
328.762
329.115
329.408
329.609
329.735
329.838
329.98
330.247
330.747
331.506
332.306
333.059
333.803
334.491
335.075
335.553
336.054
336.704
337.535
338.564
339.904
341.851
344.833
349.404
367.516
312.498
318.391
320.059
320.085
320.174
321.274
322.958
324.868
326.791
328.584
330.155
331.433
332.354
332.849
332.856
332.326
331.16
329.131
326.312
323.451
321.19
319.711
319.437
320.646
322.585
324.381
325.729
326.746
327.523
328.004
327.534
325.756
328.24
334.166
347.693
309.469
321.009
327.523
331.854
335.112
337.673
339.729
341.406
342.79
343.959
344.983
345.918
346.809
347.702
348.638
349.661
350.822
352.126
353.32
353.993
353.988
353.345
352.072
350.436
348.661
346.85
345.016
343.139
341.234
339.252
337.207
334.596
331.806
320.612
337.019
310.781
321.893
326.845
329.73
332.003
334.011
335.84
337.493
338.935
340.185
341.299
342.296
343.175
343.94
344.605
345.189
345.718
346.228
346.753
347.315
347.926
348.618
349.41
350.28
351.161
351.995
352.778
353.478
353.939
353.822
352.455
348.28
339.933
331.11
354.018
318.095
331.86
337.183
340.294
342.705
344.672
346.286
347.59
348.602
349.337
349.81
350.05
350.104
350.017
349.829
349.573
349.27
348.937
348.583
348.21
347.804
347.329
346.732
346.012
345.378
345.141
345.44
346.163
347.132
348.224
349.249
349.414
347.6
347.703
371.004
314.641
326.504
331.45
334.429
336.884
339.133
341.262
343.24
344.998
346.504
347.775
348.845
349.749
350.514
351.165
351.72
352.199
352.618
352.988
353.318
353.601
353.768
353.611
352.924
351.834
350.646
349.596
348.86
348.514
348.502
348.669
348.707
348.733
353.376
374.983
318.001
332.228
337.277
340.2
342.691
345.053
347.233
348.918
349.894
350.226
350.123
349.794
349.387
348.981
348.604
348.257
347.926
347.598
347.281
347.023
346.895
346.931
347.125
347.466
347.916
348.337
348.643
348.865
349.071
349.31
349.64
350.326
353.195
360.383
379.037
317.073
330.983
336.463
339.811
342.851
346.043
349.257
351.918
353.733
354.781
355.263
355.366
355.227
354.937
354.543
354.062
353.471
352.719
351.773
350.691
349.633
348.744
348.079
347.634
347.4
347.364
347.513
347.844
348.398
349.347
351.263
355.518
363.186
372.339
388.778
317.951
331.584
336.606
339.665
342.591
345.801
348.797
350.698
351.54
351.833
351.912
351.892
351.797
351.628
351.393
351.111
350.805
350.492
350.172
349.831
349.442
348.981
348.451
347.92
347.498
347.281
347.327
347.701
348.539
350.211
353.632
360.138
369.034
378.453
393.632
318.354
332.528
338.028
341.671
345.485
349.966
354.341
357.15
358.153
358.094
357.613
356.996
356.331
355.655
355.003
354.402
353.842
353.283
352.678
352.021
351.34
350.664
350.009
349.406
348.905
348.569
348.469
348.693
349.391
350.857
353.708
358.831
365.737
374.004
389.865
315.871
328.77
334.059
337.396
340.593
344.316
348.61
352.352
354.59
355.512
355.645
355.322
354.672
353.791
352.867
352.092
351.527
351.15
350.892
350.657
350.383
350.057
349.69
349.299
348.907
348.546
348.267
348.139
348.254
348.733
349.813
352.157
357.317
365.781
383.324
317.856
331.453
336.76
340.218
343.631
347.516
351.918
356.039
358.608
359.456
359.268
358.495
357.1
354.882
352.381
350.735
349.935
349.549
349.355
349.253
349.187
349.117
349.022
348.895
348.731
348.525
348.268
347.954
347.6
347.276
347.176
348.148
353.245
362.527
380.874
314.467
327.315
332.818
336.186
339.095
342.125
345.892
350.611
354.931
357.473
358.367
358.277
357.553
356.135
353.918
351.605
350.051
349.22
348.807
348.618
348.557
348.577
348.655
348.78
348.951
349.172
349.448
349.768
350.079
350.309
350.628
352.207
357.185
366.147
384.989
316.915
330.879
336.473
339.945
343.042
346.095
349.244
352.715
356.412
359.155
360.368
360.485
359.806
358.095
354.997
351.618
349.624
348.71
348.252
347.999
347.876
347.856
347.927
348.091
348.365
348.781
349.409
350.375
351.833
353.792
356.121
359.245
363.895
371.586
389.418
315.868
329.383
334.957
338.409
341.426
344.355
347.389
350.768
354.568
357.968
359.859
360.441
360.333
359.705
358.16
355.202
351.971
349.797
348.644
348.039
347.699
347.508
347.418
347.41
347.485
347.662
347.998
348.615
349.76
351.779
354.903
359.178
364.332
371.942
389.685
317.225
331.53
337.306
340.881
344.013
347.004
349.912
352.782
355.759
358.783
360.919
361.671
361.482
360.561
358.4
354.496
350.831
348.936
348.011
347.492
347.189
347.052
347.066
347.217
347.491
347.887
348.439
349.25
350.56
352.792
356.346
361.128
366.454
374.229
392.193
317.823
331.913
337.529
341.065
344.215
347.24
350.183
353.027
355.761
358.363
360.458
361.44
361.534
361.074
359.807
356.713
352.126
348.974
347.406
346.54
345.987
345.663
345.594
345.83
346.382
347.228
348.373
349.932
352.199
355.585
360.182
365.315
370.286
377.258
393.444
318.388
332.838
338.557
342.13
345.28
348.275
351.164
353.936
356.585
359.081
361.167
362.216
362.164
361.447
359.948
356.865
352.222
348.644
346.938
345.902
345.041
344.253
343.612
343.298
343.513
344.329
345.705
347.648
350.315
353.932
358.438
363.31
368.325
375.764
393.4
319.28
333.73
339.458
343.135
346.446
349.583
352.491
355.048
357.242
359.214
361.028
362.264
362.419
361.805
360.579
358.211
354.299
350.502
348.283
347.071
346.117
345.124
344.102
343.327
343.297
344.349
346.43
349.319
352.818
356.777
361.078
365.695
371.113
379.968
398.725
319.714
334.171
339.918
343.629
347
350.273
353.43
356.278
358.606
360.384
361.753
362.763
363.067
362.551
361.526
359.861
357.227
354.208
352.197
351.068
350.242
349.485
348.731
348.129
348.049
348.869
350.706
353.451
356.925
360.937
365.315
370.062
375.89
385.279
402.062
321.083
335.57
341.18
344.821
348.1
351.183
354.044
356.605
358.785
360.529
361.845
362.767
363.22
362.999
362.279
361.308
359.947
358.107
356.422
355.621
355.53
355.686
355.859
356.049
356.365
356.942
357.868
359.175
360.905
363.161
366.116
370.033
375.662
385.318
402.024
320.684
335.39
341.272
345.117
348.615
351.952
355.049
357.725
359.87
361.503
362.698
363.514
363.94
363.886
363.327
362.51
361.614
360.591
359.469
358.617
358.449
359.017
360.12
361.533
363.125
364.861
366.741
368.754
370.886
373.187
375.839
379.236
384.192
392.441
404.891
323.015
337.446
342.962
346.605
349.949
353.137
356.085
358.633
360.663
362.16
363.198
363.88
364.267
364.335
364.015
363.366
362.611
361.877
361.164
360.489
359.992
359.883
360.308
361.285
362.758
364.684
367.058
369.893
373.165
376.792
380.647
384.583
388.814
394.314
402.964
322.047
336.816
342.544
346.279
349.681
352.903
355.853
358.408
360.525
362.219
363.509
364.415
364.972
365.198
365.077
364.603
363.893
363.139
362.456
361.858
361.336
360.909
360.631
360.568
360.767
361.247
362.022
363.105
364.465
365.986
367.65
369.883
372.841
377.067
389.611
323.453
338.024
343.585
347.263
350.721
354.108
357.228
359.823
361.799
363.223
364.227
364.922
365.384
365.643
365.686
365.465
364.964
364.281
363.577
362.954
362.429
361.988
361.613
361.301
361.056
360.885
360.793
360.772
360.769
360.592
359.881
358.218
359.022
365.339
382.525
322.928
337.784
343.369
347.027
350.499
353.93
357.072
359.685
361.745
363.335
364.54
365.42
366.02
366.381
366.526
366.447
366.12
365.556
364.855
364.154
363.539
363.034
362.628
362.304
362.053
361.876
361.787
361.815
362.02
362.618
364.222
364.084
365.811
373.328
392.015
322.782
337.641
343.216
346.898
350.559
354.389
357.94
360.763
362.801
364.223
365.221
365.93
366.433
366.774
366.972
367.027
366.911
366.592
366.077
365.45
364.817
364.248
363.767
363.376
363.074
362.871
362.809
362.986
363.677
365.756
370.521
375.4
379.029
385.572
400.469
321.651
336.574
342.221
345.96
349.807
354.02
357.957
361.039
363.241
364.783
365.874
366.649
367.19
367.55
367.76
367.841
367.795
367.609
367.267
366.792
366.251
365.711
365.208
364.751
364.337
363.976
363.702
363.595
363.831
364.882
367.869
373.368
378.964
385.447
398.324
320.267
335.212
341.094
344.971
349.041
353.751
358.225
361.625
363.914
365.407
366.403
367.092
367.582
367.928
368.16
368.293
368.334
368.276
368.108
367.823
367.453
367.052
366.658
366.282
365.91
365.527
365.135
364.764
364.478
364.42
365.018
367.517
372.997
379.986
392.837
318.677
333.712
339.991
344.112
348.448
353.639
358.615
362.351
364.806
366.357
367.353
368.016
368.467
368.77
368.961
369.063
369.089
369.043
368.921
368.719
368.453
368.167
367.907
367.686
367.487
367.269
366.977
366.567
366.032
365.44
365.169
366.621
371.415
378.661
392.427
317.791
333.464
340.205
344.557
349.083
354.506
359.578
363.24
365.555
366.972
367.87
368.47
368.891
369.19
369.397
369.527
369.59
369.592
369.531
369.407
369.227
369.035
368.893
368.847
368.908
369.069
369.267
369.293
368.93
368.411
368.476
370.285
374.361
381.376
396.739
317.927
334.222
341.205
345.767
350.599
356.355
361.579
365.122
367.202
368.388
369.093
369.538
369.836
370.037
370.17
370.248
370.278
370.264
370.206
370.1
369.948
369.775
369.653
369.676
369.932
370.53
371.551
372.719
373.346
373.529
374.181
376.095
379.59
386.195
401.333
318.6
335.034
341.851
346.386
351.272
357.065
362.408
365.964
367.958
369.055
369.695
370.101
370.377
370.569
370.702
370.787
370.831
370.836
370.803
370.729
370.609
370.447
370.287
370.234
370.446
371.134
372.558
374.763
377.079
378.802
380.311
382.359
385.527
391.508
404.231
319.524
335.326
341.776
346.147
350.79
356.318
362.06
366.386
368.87
370.125
370.748
371.076
371.264
371.377
371.447
371.485
371.499
371.489
371.455
371.395
371.3
371.165
370.993
370.832
370.809
371.139
372.134
374.14
377.158
380.494
383.498
386.315
389.574
394.877
405.251
319.134
334.408
340.595
344.577
348.366
352.664
357.879
363.168
367.18
369.613
370.893
371.523
371.833
371.991
372.071
372.109
372.119
372.11
372.083
372.038
371.97
371.875
371.744
371.582
371.436
371.44
371.843
373.01
375.338
378.87
382.948
386.801
390.487
395.535
404.985
318.93
334.603
340.936
344.736
347.875
350.855
354.278
358.672
363.42
367.403
370.081
371.568
372.285
372.606
372.74
372.787
372.79
372.771
372.737
372.692
372.636
372.565
372.475
372.362
372.232
372.135
372.216
372.751
374.152
376.848
380.791
385.082
389.048
394.138
404.006
317.961
334.622
341.592
345.66
348.855
351.532
353.839
356.225
359.384
363.297
367.152
370.11
371.885
372.77
373.167
373.332
373.389
373.393
373.369
373.329
373.28
373.223
373.158
373.083
373.001
372.931
372.949
373.248
374.167
376.148
379.433
383.43
387.277
392.372
403.058
318.25
336.327
344.096
348.675
352.4
355.659
358.233
359.907
360.999
362.391
364.821
367.964
370.722
372.459
373.336
373.733
373.901
373.96
373.965
373.943
373.905
373.859
373.809
373.758
373.708
373.675
373.708
373.948
374.684
376.314
379.108
382.677
386.269
391.277
402.511
318.604
337.373
345.587
350.525
354.775
358.925
362.632
365.131
366.227
366.417
366.526
367.683
369.941
372.049
373.353
374.006
374.304
374.435
374.488
374.5
374.486
374.458
374.426
374.396
374.374
374.374
374.44
374.691
375.396
376.934
379.541
382.868
386.291
391.225
402.581
321.282
340.279
348.279
353.257
357.817
362.474
366.716
369.643
370.995
371.211
370.818
370.424
371.068
372.526
373.735
374.418
374.748
374.905
374.987
375.027
375.039
375.033
375.02
375.011
375.015
375.047
375.153
375.448
376.197
377.789
380.43
383.724
387.088
391.976
403.139
324.682
342.97
350.417
355.483
360.686
366.039
370.325
372.833
373.892
374.088
373.834
373.403
373.294
373.877
374.591
375.054
375.301
375.434
375.513
375.561
375.587
375.599
375.606
375.619
375.648
375.715
375.869
376.238
377.102
378.863
381.675
385.029
388.364
393.183
403.933
327.421
344.822
351.87
357.137
363.002
368.854
372.967
374.988
375.724
375.841
375.66
375.368
375.185
375.305
375.582
375.807
375.95
376.038
376.095
376.133
376.159
376.179
376.2
376.23
376.284
376.385
376.589
377.037
378.031
379.986
383.002
386.43
389.726
394.431
404.664
326.732
343.624
350.495
355.684
361.431
367.32
372.005
374.839
376.223
376.765
376.856
376.72
376.54
376.461
376.497
376.568
376.63
376.676
376.709
376.733
376.754
376.776
376.805
376.849
376.924
377.056
377.307
377.826
378.929
381.039
384.206
387.657
390.883
395.441
405.2
324.811
341.77
348.359
352.832
357.39
362.546
368.016
372.588
375.472
376.934
377.544
377.686
377.597
377.454
377.363
377.33
377.326
377.331
377.339
377.348
377.361
377.38
377.412
377.465
377.555
377.709
377.993
378.559
379.728
381.927
385.18
388.618
391.762
396.169
405.564
323.508
340.737
347.45
351.665
355.499
359.584
364.433
369.657
373.868
376.412
377.684
378.23
378.377
378.317
378.196
378.096
378.034
377.998
377.978
377.969
377.97
377.983
378.012
378.066
378.161
378.326
378.625
379.208
380.394
382.626
385.935
389.373
392.445
396.704
405.8
324.257
342.211
349.38
353.988
358.147
362.079
365.922
369.937
373.725
376.416
377.918
378.648
378.952
379.011
378.941
378.832
378.737
378.67
378.625
378.598
378.585
378.587
378.608
378.656
378.746
378.906
379.197
379.757
380.891
383.063
386.389
389.896
392.943
397.064
405.914
325.933
343.888
351.114
356.084
360.927
365.579
369.638
372.956
375.66
377.623
378.769
379.341
379.59
379.653
379.607
379.511
379.411
379.329
379.27
379.231
379.207
379.201
379.214
379.254
379.336
379.485
379.758
380.278
381.323
383.355
386.602
390.178
393.229
397.244
405.927
326.459
343.613
350.451
355.312
360.254
365.254
369.829
373.598
376.475
378.46
379.595
380.124
380.318
380.342
380.279
380.177
380.071
379.982
379.914
379.867
379.838
379.826
379.836
379.872
379.949
380.092
380.353
380.844
381.816
383.704
386.797
390.341
393.365
397.297
405.896
325.003
341.757
348.31
352.868
357.52
362.393
367.06
371.164
374.651
377.456
379.383
380.43
380.867
380.979
380.942
380.845
380.735
380.639
380.563
380.51
380.477
380.463
380.472
380.51
380.59
380.738
381.004
381.498
382.449
384.253
387.175
390.548
393.471
397.311
405.869
323.595
340.64
347.235
351.684
356.273
361.239
365.906
369.737
372.88
375.656
378.092
379.901
380.944
381.395
381.512
381.477
381.389
381.295
381.216
381.157
381.12
381.105
381.116
381.158
381.248
381.41
381.7
382.227
383.211
384.994
387.753
390.858
393.618
397.348
405.865
323.281
340.447
347.135
351.656
356.526
362.173
367.458
371.295
373.828
375.69
377.382
379.066
380.502
381.43
381.87
382.001
381.989
381.925
381.855
381.797
381.758
381.742
381.754
381.803
381.905
382.09
382.417
383.001
384.053
385.852
388.458
391.274
393.859
397.48
405.898
322.994
339.656
346.2
350.658
355.642
361.94
368.299
373.009
375.833
377.432
378.451
379.313
380.255
381.221
381.956
382.351
382.488
382.496
382.457
382.411
382.375
382.36
382.373
382.425
382.535
382.738
383.098
383.734
384.845
386.65
389.103
391.666
394.092
397.607
405.906
321.695
337.943
344.453
348.812
353.659
360.09
367.089
372.794
376.541
378.703
379.902
380.601
381.083
381.54
382.068
382.556
382.86
382.981
382.999
382.981
382.958
382.949
382.964
383.018
383.134
383.348
383.73
384.407
385.569
387.378
389.713
392.091
394.4
397.823
405.95
320.324
336.977
343.845
348.249
352.923
359.163
366.117
372.03
376.249
378.958
380.604
381.588
382.182
382.558
382.825
383.06
383.283
383.431
383.491
383.499
383.493
383.493
383.514
383.57
383.685
383.897
384.277
384.951
386.101
387.861
390.075
392.319
394.539
397.88
405.902
319.824
337.149
344.541
349.158
353.844
359.994
366.809
372.47
376.469
379.121
380.861
382.014
382.783
383.297
383.646
383.889
384.036
384.078
384.056
384.025
384.007
384.007
384.032
384.092
384.21
384.425
384.807
385.486
386.647
388.407
390.574
392.742
394.904
398.183
406.023
319.916
337.815
345.626
350.525
355.453
361.743
368.531
373.965
377.605
379.91
381.408
382.438
383.179
383.725
384.133
384.445
384.683
384.82
384.783
384.656
384.565
384.531
384.543
384.599
384.715
384.925
385.296
385.948
387.053
388.729
390.809
392.922
395.045
398.265
405.987
320.428
339.264
347.399
352.551
357.795
364.233
370.768
375.82
379.081
381.061
382.304
383.144
383.753
384.222
384.599
384.902
385.149
385.349
385.437
385.34
385.185
385.094
385.074
385.111
385.212
385.406
385.755
386.377
387.454
389.114
391.188
393.28
395.376
398.562
406.176
321.786
341.58
349.851
355.194
360.775
367.293
373.285
377.696
380.483
382.155
383.2
383.905
384.422
384.834
385.179
385.459
385.682
385.864
385.991
385.98
385.833
385.708
385.671
385.712
385.832
386.058
386.447
387.101
388.169
389.756
391.726
393.75
395.821
398.984
406.398
323.511
343.55
351.785
357.335
363.402
370.17
375.676
379.383
381.665
383.042
383.924
384.54
385.005
385.39
385.723
386
386.216
386.385
386.515
386.564
386.469
386.317
386.231
386.228
386.302
386.474
386.802
387.396
388.418
389.981
391.932
393.927
395.959
399.077
406.5
325.099
345.238
353.462
359.275
365.948
373.068
378.226
381.246
382.966
384.001
384.69
385.194
385.594
385.94
386.249
386.514
386.73
386.899
387.033
387.121
387.106
386.993
386.924
386.96
387.097
387.35
387.771
388.458
389.544
391.099
392.958
394.851
396.877
400.085
407.243
326.609
346.997
355.252
361.274
368.348
375.512
380.361
382.911
384.228
385
385.523
385.921
386.248
386.539
386.806
387.041
387.24
387.399
387.525
387.623
387.67
387.629
387.577
387.615
387.765
388.049
388.526
389.285
390.417
391.932
393.671
395.447
397.388
400.483
407.361
327.83
348.248
356.55
362.774
370.167
377.231
381.845
384.185
385.317
385.948
386.367
386.684
386.951
387.193
387.415
387.614
387.786
387.928
388.039
388.128
388.193
388.209
388.189
388.238
388.401
388.695
389.186
389.979
391.16
392.686
394.364
396.059
397.97
401.097
407.826
328.414
348.932
357.544
364.231
372.195
379.042
383.169
385.241
386.235
386.779
387.134
387.402
387.633
387.845
388.036
388.207
388.357
388.483
388.586
388.671
388.748
388.816
388.886
389.039
389.345
389.801
390.438
391.32
392.495
393.922
395.467
397.067
398.964
402.119
408.377
329.675
350.439
359.472
366.844
375.545
381.908
385.046
386.497
387.204
387.609
387.886
388.106
388.3
388.477
388.637
388.779
388.903
389.01
389.098
389.171
389.236
389.305
389.398
389.582
389.945
390.489
391.229
392.206
393.412
394.776
396.211
397.704
399.485
402.426
408.303
331.454
352.091
361.292
369.173
378.411
384.522
386.886
387.784
388.217
388.484
388.682
388.847
388.997
389.136
389.262
389.375
389.475
389.561
389.634
389.693
389.745
389.798
389.869
390.013
390.344
390.906
391.659
392.643
393.862
395.223
396.627
398.076
399.808
402.679
408.437
332.048
352.499
361.602
369.475
378.895
385.631
388.056
388.809
389.131
389.322
389.464
389.583
389.691
389.793
389.887
389.973
390.051
390.12
390.181
390.235
390.284
390.336
390.409
390.546
390.862
391.485
392.317
393.276
394.412
395.709
397.083
398.522
400.269
403.183
408.787
331.724
352.25
361.05
368.314
377.257
385.243
388.696
389.66
389.981
390.135
390.235
390.313
390.382
390.446
390.506
390.561
390.612
390.659
390.704
390.748
390.793
390.846
390.922
391.063
391.372
392.024
393.055
394.19
395.315
396.505
397.783
399.162
400.867
403.69
408.923
331.498
352.007
360.431
366.77
374.324
382.939
388.424
390.19
390.697
390.881
390.97
391.024
391.063
391.096
391.123
391.146
391.168
391.187
391.207
391.229
391.256
391.292
391.349
391.455
391.68
392.176
393.127
394.461
395.826
397.069
398.278
399.557
401.128
403.707
408.673
331.279
351.791
360.215
366.137
372.516
380.242
387.339
390.427
391.331
391.604
391.703
391.745
391.764
391.771
391.769
391.763
391.754
391.744
391.735
391.727
391.724
391.73
391.75
391.8
391.917
392.187
392.778
393.847
395.277
396.724
398.046
399.338
400.837
403.259
408.303
331.501
352.121
360.791
366.858
372.876
379.388
386.164
390.406
391.842
392.258
392.393
392.442
392.457
392.452
392.435
392.41
392.379
392.346
392.312
392.278
392.247
392.22
392.202
392.202
392.237
392.352
392.648
393.305
394.467
395.983
397.52
398.956
400.501
402.948
408.251
332.312
352.778
361.409
367.524
373.409
379.31
385.176
390.05
392.202
392.858
393.053
393.114
393.129
393.12
393.096
393.061
393.02
392.974
392.926
392.877
392.827
392.78
392.739
392.71
392.707
392.76
392.945
393.424
394.41
395.894
397.5
398.984
400.567
403.122
408.587
332
352.192
360.607
366.471
371.916
377.231
382.66
387.989
391.655
393.165
393.633
393.767
393.798
393.79
393.762
393.722
393.674
393.62
393.562
393.503
393.443
393.387
393.337
393.303
393.303
393.372
393.595
394.126
395.129
396.544
398.029
399.42
400.996
403.656
409.029
330.764
350.721
359.205
365.171
370.655
375.564
379.994
384.51
389.131
392.317
393.746
394.23
394.376
394.409
394.399
394.366
394.321
394.267
394.208
394.147
394.087
394.033
393.991
393.976
394.014
394.155
394.488
395.132
396.155
397.429
398.72
399.986
401.531
404.231
409.355
330.03
349.983
358.591
364.781
370.776
376.214
380.477
383.78
386.963
390.394
392.982
394.275
394.755
394.912
394.955
394.952
394.924
394.882
394.832
394.779
394.728
394.686
394.665
394.686
394.785
395.019
395.465
396.189
397.178
398.299
399.431
400.599
402.094
404.737
409.552
329.683
349.828
358.713
365.215
371.689
377.702
382.42
385.617
387.801
389.741
391.94
393.809
394.845
395.263
395.411
395.46
395.464
395.446
395.414
395.377
395.343
395.319
395.323
395.378
395.527
395.826
396.335
397.078
398.002
399.003
400.027
401.123
402.555
405.08
409.645
329.631
349.852
359.29
366.59
373.931
380.259
384.924
388.02
389.954
391.226
392.299
393.549
394.731
395.447
395.761
395.884
395.933
395.946
395.942
395.93
395.92
395.924
395.96
396.052
396.242
396.578
397.103
397.818
398.666
399.576
400.527
401.569
402.937
405.34
409.71
330.17
350.522
360.939
369.754
378.275
384.457
388.393
390.855
392.401
393.381
394.039
394.561
395.14
395.721
396.094
396.272
396.354
396.394
396.414
396.425
396.438
396.468
396.531
396.657
396.882
397.247
397.779
398.465
399.253
400.101
401.001
401.999
403.303
405.572
409.76
332.213
352.484
364.432
375.926
385.404
390.534
393.014
394.306
395.067
395.557
395.884
396.092
396.228
396.4
396.595
396.726
396.8
396.844
396.876
396.903
396.936
396.987
397.074
397.224
397.472
397.851
398.376
399.029
399.768
400.564
401.419
402.373
403.617
405.778
409.825
334.589
354.766
368.358
383.009
391.968
395.137
396.232
396.711
396.97
397.125
397.21
397.228
397.193
397.169
397.202
397.249
397.287
397.318
397.347
397.379
397.423
397.489
397.596
397.768
398.037
398.429
398.95
399.578
400.281
401.039
401.86
402.779
403.977
406.049
409.942
335.388
355.406
369.648
386.176
394.811
397.077
397.65
397.822
397.877
397.887
397.867
397.822
397.773
397.751
397.757
397.776
397.798
397.822
397.849
397.884
397.933
398.007
398.126
398.315
398.605
399.016
399.55
400.178
400.869
401.606
402.398
403.283
404.432
406.414
410.11
334.847
355.007
368.813
385.116
395.108
397.797
398.356
398.424
398.373
398.309
398.265
398.246
398.245
398.255
398.273
398.295
398.32
398.346
398.376
398.414
398.465
398.54
398.656
398.838
399.114
399.509
400.027
400.642
401.321
402.046
402.821
403.682
404.797
406.724
410.293
334.528
354.767
367.36
381.928
393.955
397.957
398.765
398.869
398.839
398.803
398.785
398.782
398.79
398.807
398.829
398.854
398.882
398.913
398.949
398.996
399.059
399.148
399.282
399.481
399.77
400.17
400.683
401.286
401.951
402.661
403.419
404.26
405.356
407.242
410.581
335.593
355.853
366.671
377.83
390.061
396.893
398.838
399.306
399.407
399.413
399.4
399.393
399.396
399.407
399.423
399.444
399.468
399.495
399.527
399.568
399.625
399.709
399.836
400.03
400.318
400.72
401.236
401.844
402.508
403.209
403.948
404.76
405.813
407.628
410.793
337.623
358.511
368.746
377.43
385.914
393.82
397.98
399.381
399.817
399.957
399.999
400.009
400.014
400.024
400.04
400.062
400.089
400.123
400.163
400.213
400.277
400.366
400.493
400.68
400.953
401.333
401.826
402.411
403.056
403.741
404.466
405.266
406.319
408.137
411.104
339.315
360.558
372.642
383.912
390.799
394.4
397.76
399.538
400.183
400.416
400.51
400.552
400.575
400.593
400.613
400.639
400.673
400.716
400.771
400.843
400.935
401.059
401.226
401.455
401.765
402.169
402.667
403.24
403.862
404.52
405.22
405.995
407.018
408.749
411.366
338.078
359.163
372.725
388.227
398.398
400.495
400.611
400.899
401.061
401.121
401.142
401.152
401.158
401.167
401.181
401.203
401.234
401.276
401.331
401.405
401.503
401.636
401.817
402.065
402.396
402.821
403.332
403.904
404.513
405.15
405.82
406.558
407.526
409.154
411.546
332.097
351.903
364.102
378.682
393.885
401.699
403.409
402.958
402.407
402.109
401.955
401.868
401.817
401.79
401.783
401.796
401.827
401.878
401.95
402.048
402.176
402.342
402.556
402.831
403.179
403.602
404.094
404.636
405.213
405.82
406.465
407.185
408.142
409.728
411.822
324.391
342.018
350.602
359.122
372.963
388.142
399.013
403.793
404.32
403.617
403.06
402.746
402.565
402.456
402.396
402.372
402.379
402.416
402.487
402.595
402.746
402.949
403.211
403.542
403.944
404.411
404.928
405.477
406.048
406.64
407.262
407.946
408.832
410.236
411.957
321.541
340.581
348.745
353.608
358.806
368.179
381.294
394.277
402.65
405.215
404.78
403.995
403.504
403.22
403.052
402.959
402.921
402.93
402.981
403.077
403.224
403.429
403.703
404.05
404.471
404.953
405.478
406.026
406.584
407.153
407.74
408.374
409.184
410.458
412.031
325.945
349.763
360.204
365.695
368.637
370.244
373.744
382.11
393.445
402.259
405.817
405.737
404.849
404.231
403.87
403.655
403.535
403.488
403.502
403.577
403.712
403.912
404.185
404.533
404.951
405.426
405.938
406.468
407.006
407.554
408.119
408.733
409.518
410.746
412.177
334.162
359.207
370.182
377.027
381.773
384.276
384.702
384.953
389.825
398.076
404.357
406.682
406.334
405.432
404.818
404.458
404.245
404.13
404.095
404.134
404.244
404.428
404.69
405.031
405.443
405.913
406.417
406.94
407.472
408.013
408.57
409.166
409.907
411.021
412.244
341.793
365.06
375.165
382.12
387.666
391.486
393.598
394.089
394.647
398.916
404.134
407.057
407.478
406.588
405.685
405.136
404.823
404.648
404.576
404.595
404.701
404.892
405.165
405.512
405.924
406.385
406.876
407.383
407.897
408.418
408.948
409.51
410.2
411.219
412.31
348.466
372.208
382.423
389.096
393.474
396.013
397.528
398.56
399.45
401.79
405.321
407.651
408.298
407.739
406.745
405.98
405.523
405.259
405.12
405.084
405.144
405.299
405.544
405.87
406.261
406.7
407.166
407.646
408.132
408.622
409.12
409.648
410.303
411.287
412.366
356.876
382.964
394.32
400.59
402.495
402.603
402.501
402.798
403.812
405.621
407.618
408.778
409.079
408.71
407.897
407.09
406.538
406.192
405.979
405.867
405.851
405.928
406.097
406.353
406.682
407.066
407.489
407.936
408.399
408.875
409.366
409.89
410.539
411.504
412.493
362.327
392.219
404.464
409.145
408.805
407.801
407.233
407.377
408.138
409.02
409.615
409.85
409.734
409.233
408.383
407.492
406.888
406.558
406.392
406.335
406.368
406.483
406.673
406.929
407.24
407.597
407.991
408.413
408.857
409.319
409.8
410.314
410.945
411.85
412.633
358.493
389.481
401.27
406.568
408.624
409.761
410.377
410.657
410.791
410.909
410.996
410.965
410.733
410.215
409.358
408.291
407.379
406.852
406.636
406.603
406.687
406.861
407.111
407.421
407.775
408.159
408.564
408.984
409.414
409.852
410.298
410.766
411.332
412.123
412.726
345.031
366.086
375.951
384.91
393.107
399.762
405.075
409.073
411.351
412.228
412.433
412.412
412.297
412.077
411.683
411.045
410.177
409.238
408.436
407.886
407.586
407.49
407.556
407.746
408.029
408.376
408.763
409.174
409.596
410.021
410.449
410.891
411.416
412.161
412.772
324.801
340.634
348.96
355.284
361.711
368.594
376.351
386.987
398.897
407.288
411.325
412.81
413.186
413.142
412.934
412.593
412.032
411.18
410.179
409.306
408.709
408.376
408.253