/*--------------------------------*- C++ -*----------------------------------*\
| =========                 |                                                 |
| \\      /  F ield         | OpenFOAM: The Open Source CFD Toolbox           |
|  \\    /   O peration     | Version:  v1906                                 |
|   \\  /    A nd           | Web:      www.OpenFOAM.com                      |
|    \\/     M anipulation  |                                                 |
\*---------------------------------------------------------------------------*/
FoamFile
{
    version     2.0;
    format      ascii;
    class       volScalarField;
    location    "18";
    object      alphat;
}
// * * * * * * * * * * * * * * * * * * * * * * * * * * * * * * * * * * * * * //

dimensions      [1 -1 -1 0 0 0 0];


internalField   nonuniform List<scalar> 
78750
(
9.12224e-07
1.225e-05
1.43964e-05
1.38842e-05
1.3732e-05
1.35692e-05
1.34751e-05
1.34248e-05
1.3408e-05
1.34195e-05
1.34678e-05
1.3543e-05
1.36415e-05
1.37518e-05
1.38563e-05
1.39421e-05
1.40023e-05
1.40332e-05
1.4033e-05
1.39994e-05
1.393e-05
1.38211e-05
1.3668e-05
1.34658e-05
1.32079e-05
1.28874e-05
1.24952e-05
1.20197e-05
1.14472e-05
1.07627e-05
9.953e-06
8.97207e-06
6.92671e-06
4.25728e-06
5.56747e-08
1.19992e-07
1.03649e-05
1.95387e-05
2.76663e-05
3.19578e-05
3.68557e-05
4.3694e-05
5.21062e-05
6.00056e-05
5.89278e-05
5.80961e-05
5.1592e-05
4.29405e-05
3.73115e-05
3.4248e-05
3.27015e-05
3.19743e-05
3.1711e-05
3.1739e-05
3.19822e-05
3.23957e-05
3.29338e-05
3.35272e-05
3.40845e-05
3.44254e-05
3.42137e-05
3.29433e-05
3.00561e-05
2.53313e-05
1.94233e-05
1.37862e-05
9.89222e-06
8.53813e-06
8.13379e-06
6.9364e-08
2.14856e-07
1.33134e-05
1.80097e-05
1.74534e-05
1.67814e-05
1.62587e-05
1.59624e-05
1.60637e-05
1.69558e-05
1.86103e-05
2.05688e-05
2.25662e-05
2.44851e-05
2.62735e-05
2.79392e-05
2.94583e-05
3.07599e-05
3.17642e-05
3.24246e-05
3.27298e-05
3.2679e-05
3.22705e-05
3.14885e-05
3.02731e-05
2.85597e-05
2.62897e-05
2.33802e-05
1.97458e-05
1.54787e-05
1.11515e-05
7.77166e-06
6.1773e-06
7.20871e-06
8.71446e-06
8.0618e-08
1.80949e-07
1.39724e-05
3.74346e-05
3.17687e-05
2.80047e-05
2.59964e-05
2.56977e-05
2.58383e-05
2.46486e-05
2.15302e-05
1.7945e-05
1.57938e-05
1.5644e-05
1.73347e-05
2.07408e-05
2.58715e-05
3.25397e-05
3.95337e-05
4.44354e-05
4.56802e-05
4.38887e-05
4.04548e-05
3.64043e-05
3.2327e-05
2.85391e-05
2.51764e-05
2.21683e-05
1.91901e-05
1.58092e-05
1.19499e-05
8.42457e-06
6.44441e-06
7.07017e-06
1.06362e-05
7.88517e-08
1.47655e-07
8.75388e-06
3.69446e-05
3.34267e-05
2.79506e-05
2.28965e-05
1.87082e-05
1.51513e-05
1.20442e-05
9.54418e-06
8.13707e-06
8.09315e-06
9.40178e-06
1.20903e-05
1.62933e-05
2.22529e-05
3.00466e-05
3.84478e-05
4.40737e-05
4.43877e-05
4.05139e-05
3.49474e-05
2.93428e-05
2.44317e-05
2.04813e-05
1.75163e-05
1.53561e-05
1.36094e-05
1.17415e-05
9.41344e-06
7.10989e-06
5.94439e-06
7.51102e-06
7.92664e-06
8.86006e-08
1.05931e-07
6.20259e-06
2.95166e-05
3.13213e-05
2.49138e-05
2.03682e-05
1.71832e-05
1.32523e-05
9.15805e-06
6.61533e-06
5.94108e-06
6.83183e-06
9.07837e-06
1.26663e-05
1.76439e-05
2.39975e-05
3.14588e-05
3.90507e-05
4.47189e-05
4.63653e-05
4.36112e-05
3.77967e-05
3.08387e-05
2.44174e-05
1.949e-05
1.62263e-05
1.43356e-05
1.33347e-05
1.25377e-05
1.10593e-05
8.79249e-06
7.1993e-06
8.46491e-06
1.05514e-05
1.04794e-07
8.05402e-08
5.7988e-06
2.32464e-05
2.97499e-05
2.45111e-05
1.4121e-05
7.165e-06
4.21561e-06
3.49618e-06
4.18453e-06
6.06702e-06
9.17442e-06
1.35251e-05
1.88642e-05
2.45447e-05
2.99055e-05
3.47864e-05
3.93421e-05
4.32432e-05
4.49457e-05
4.21977e-05
3.44455e-05
2.48029e-05
1.70473e-05
1.21678e-05
9.55504e-06
8.50223e-06
8.45573e-06
8.80517e-06
8.76567e-06
8.15525e-06
8.46804e-06
1.45119e-05
6.4178e-06
1.14984e-07
8.7452e-08
4.48648e-06
1.50943e-05
1.24306e-05
6.15001e-06
3.6416e-06
3.40916e-06
4.70582e-06
7.47205e-06
1.16547e-05
1.65495e-05
2.05981e-05
2.29051e-05
2.42253e-05
2.57263e-05
2.80749e-05
3.14806e-05
3.58679e-05
4.06285e-05
4.38891e-05
4.21191e-05
3.31369e-05
2.18819e-05
1.391e-05
9.48497e-06
7.4577e-06
7.07777e-06
7.70894e-06
8.41129e-06
8.58183e-06
8.96887e-06
1.19772e-05
2.66613e-05
5.02027e-06
9.29187e-08
1.00082e-07
3.57135e-06
1.20628e-05
5.84018e-06
3.53891e-06
3.77856e-06
5.68475e-06
8.79152e-06
1.17551e-05
1.3418e-05
1.44859e-05
1.61022e-05
1.88013e-05
2.26102e-05
2.71631e-05
3.18515e-05
3.61083e-05
3.95793e-05
4.19283e-05
4.24219e-05
3.96506e-05
3.24369e-05
2.2643e-05
1.42601e-05
8.8214e-06
5.80068e-06
4.53311e-06
4.71542e-06
6.1215e-06
7.94322e-06
1.00766e-05
1.51821e-05
2.36736e-05
4.33185e-06
7.23073e-08
1.10648e-07
3.26255e-06
1.12897e-05
4.72515e-06
4.04496e-06
5.45654e-06
8.16641e-06
1.1196e-05
1.34839e-05
1.49829e-05
1.62452e-05
1.77786e-05
1.99751e-05
2.30706e-05
2.70363e-05
3.15397e-05
3.60299e-05
3.98795e-05
4.24946e-05
4.33579e-05
4.19819e-05
3.7818e-05
3.05744e-05
2.15414e-05
1.35579e-05
8.1254e-06
4.95412e-06
3.42827e-06
3.27386e-06
4.57391e-06
7.83599e-06
1.46674e-05
2.01946e-05
4.13733e-06
6.47747e-08
1.14038e-07
3.23765e-06
1.29979e-05
5.1097e-06
4.81843e-06
6.58455e-06
9.31196e-06
1.17038e-05
1.28483e-05
1.31226e-05
1.34647e-05
1.46246e-05
1.70928e-05
2.11155e-05
2.64655e-05
3.22286e-05
3.71956e-05
4.05619e-05
4.20553e-05
4.17114e-05
3.97572e-05
3.65371e-05
3.23015e-05
2.69552e-05
2.0419e-05
1.36854e-05
8.35333e-06
4.94349e-06
3.12048e-06
2.59451e-06
3.44365e-06
6.8778e-06
1.44572e-05
3.42589e-06
6.7768e-08
1.02789e-07
3.08873e-06
1.98191e-05
7.28789e-06
6.15365e-06
7.69516e-06
1.02187e-05
1.2314e-05
1.28458e-05
1.21127e-05
1.13411e-05
1.1515e-05
1.31805e-05
1.67019e-05
2.2168e-05
2.88526e-05
3.5126e-05
3.96149e-05
4.1966e-05
4.23848e-05
4.11321e-05
3.84002e-05
3.44144e-05
2.9551e-05
2.41811e-05
1.84772e-05
1.27879e-05
7.99148e-06
4.73146e-06
2.94149e-06
2.40127e-06
3.2809e-06
8.48505e-06
2.9704e-06
7.16322e-08
8.68878e-08
3.00457e-06
1.92266e-05
1.02692e-05
7.49809e-06
8.15603e-06
9.84023e-06
1.11551e-05
1.1103e-05
1.00578e-05
9.24367e-06
9.56188e-06
1.15155e-05
1.55291e-05
2.17865e-05
2.93389e-05
3.58996e-05
3.98714e-05
4.1354e-05
4.10907e-05
3.97257e-05
3.76259e-05
3.48721e-05
3.13486e-05
2.69575e-05
2.18282e-05
1.6344e-05
1.11222e-05
6.91283e-06
4.14916e-06
2.76716e-06
2.66058e-06
5.19768e-06
3.00752e-06
7.37841e-08
6.62891e-08
2.74848e-06
1.29774e-05
1.63229e-05
1.04431e-05
9.31707e-06
9.62219e-06
9.85674e-06
9.19763e-06
7.99394e-06
7.37308e-06
8.05302e-06
1.03905e-05
1.46991e-05
2.10455e-05
2.84831e-05
3.49982e-05
3.92104e-05
4.11465e-05
4.13429e-05
4.0229e-05
3.80553e-05
3.49906e-05
3.12276e-05
2.70145e-05
2.2582e-05
1.80509e-05
1.34721e-05
9.18976e-06
5.83561e-06
3.80332e-06
3.15073e-06
4.60696e-06
4.22832e-06
7.52571e-08
4.91356e-08
2.65285e-06
1.07906e-05
1.90927e-05
1.30183e-05
1.04519e-05
9.39416e-06
8.04702e-06
6.33901e-06
5.36229e-06
5.72608e-06
7.60817e-06
1.12817e-05
1.69721e-05
2.41101e-05
3.09536e-05
3.60037e-05
3.90616e-05
4.05235e-05
4.07499e-05
3.99624e-05
3.82674e-05
3.56778e-05
3.21748e-05
2.78664e-05
2.31284e-05
1.84655e-05
1.41847e-05
1.0334e-05
7.08824e-06
4.85218e-06
3.97947e-06
5.28221e-06
6.22046e-06
7.89067e-08
4.42899e-08
2.91797e-06
1.17711e-05
2.08175e-05
1.44299e-05
9.28758e-06
6.09892e-06
4.37949e-06
4.02343e-06
5.05879e-06
7.63718e-06
1.20824e-05
1.82606e-05
2.47849e-05
3.00848e-05
3.39694e-05
3.69755e-05
3.93913e-05
4.11427e-05
4.19876e-05
4.16712e-05
3.99996e-05
3.68913e-05
3.2487e-05
2.72842e-05
2.20359e-05
1.7348e-05
1.34112e-05
1.01237e-05
7.4102e-06
5.47208e-06
4.74965e-06
6.45492e-06
7.34274e-06
8.18569e-08
4.8466e-08
2.86025e-06
1.1369e-05
1.6189e-05
8.67239e-06
4.96543e-06
3.7658e-06
4.05869e-06
5.77189e-06
9.05142e-06
1.37579e-05
1.87649e-05
2.28149e-05
2.59924e-05
2.90304e-05
3.22682e-05
3.55268e-05
3.83901e-05
4.04698e-05
4.14971e-05
4.1281e-05
3.96536e-05
3.64807e-05
3.18259e-05
2.62316e-05
2.0655e-05
1.58729e-05
1.21043e-05
9.19687e-06
6.9864e-06
5.54529e-06
5.23713e-06
7.837e-06
6.41755e-06
8.45151e-08
5.50802e-08
2.71599e-06
1.23029e-05
9.30707e-06
4.94717e-06
3.84223e-06
4.33121e-06
6.19878e-06
9.37165e-06
1.32566e-05
1.6991e-05
2.04183e-05
2.38987e-05
2.75619e-05
3.11694e-05
3.44146e-05
3.71548e-05
3.93606e-05
4.09638e-05
4.17758e-05
4.14795e-05
3.96689e-05
3.59888e-05
3.05271e-05
2.42199e-05
1.83927e-05
1.38006e-05
1.0466e-05
8.09872e-06
6.45476e-06
5.53173e-06
5.73865e-06
9.87779e-06
5.15297e-06
8.5607e-08
6.03883e-08
2.63402e-06
1.41223e-05
6.57997e-06
4.25857e-06
4.34076e-06
5.80238e-06
8.5075e-06
1.19143e-05
1.53325e-05
1.85042e-05
2.15361e-05
2.4536e-05
2.75137e-05
3.04483e-05
3.33008e-05
3.59827e-05
3.83433e-05
4.01695e-05
4.11782e-05
4.0999e-05
3.91787e-05
3.53146e-05
2.95189e-05
2.28781e-05
1.68597e-05
1.22475e-05
9.05342e-06
6.9892e-06
5.79509e-06
5.35105e-06
6.13694e-06
1.21923e-05
4.25387e-06
8.5174e-08
6.32576e-08
2.71345e-06
1.61638e-05
6.1287e-06
4.59539e-06
5.23797e-06
7.06657e-06
9.66781e-06
1.24123e-05
1.50044e-05
1.7635e-05
2.06057e-05
2.40075e-05
2.76328e-05
3.11311e-05
3.42313e-05
3.68225e-05
3.88732e-05
4.03136e-05
4.09664e-05
4.0518e-05
3.85378e-05
3.46339e-05
2.89002e-05
2.23327e-05
1.63058e-05
1.16167e-05
8.35868e-06
6.31574e-06
5.2711e-06
5.07052e-06
6.25591e-06
1.35419e-05
3.68126e-06
8.47671e-08
6.34584e-08
2.74262e-06
1.80648e-05
7.19004e-06
5.36767e-06
5.95312e-06
7.53097e-06
9.55749e-06
1.16533e-05
1.38044e-05
1.62933e-05
1.93555e-05
2.29516e-05
2.67479e-05
3.03308e-05
3.3447e-05
3.60259e-05
3.80541e-05
3.94688e-05
4.01115e-05
3.97112e-05
3.7902e-05
3.43363e-05
2.90179e-05
2.26988e-05
1.66181e-05
1.16875e-05
8.17414e-06
5.956e-06
4.8482e-06
4.68459e-06
5.9887e-06
1.33234e-05
3.31414e-06
8.42077e-08
5.77782e-08
2.55347e-06
1.57725e-05
9.63765e-06
6.44855e-06
6.37915e-06
7.27977e-06
8.50929e-06
9.92572e-06
1.16917e-05
1.41398e-05
1.75093e-05
2.17084e-05
2.62058e-05
3.02984e-05
3.3579e-05
3.6025e-05
3.77511e-05
3.88159e-05
3.91668e-05
3.86424e-05
3.70046e-05
3.40125e-05
2.95837e-05
2.40393e-05
1.81665e-05
1.28979e-05
8.84863e-06
6.15334e-06
4.69937e-06
4.31414e-06
5.4044e-06
1.21833e-05
3.12325e-06
8.48987e-08
4.91303e-08
2.30257e-06
1.12361e-05
1.39751e-05
8.33931e-06
7.11662e-06
7.13423e-06
7.52455e-06
8.28458e-06
9.73916e-06
1.21632e-05
1.56878e-05
2.01107e-05
2.4772e-05
2.8894e-05
3.21232e-05
3.45391e-05
3.63095e-05
3.74829e-05
3.79718e-05
3.75987e-05
3.61636e-05
3.35372e-05
2.97604e-05
2.50736e-05
1.98616e-05
1.46876e-05
1.02375e-05
6.98127e-06
5.02954e-06
4.26972e-06
4.98281e-06
1.1026e-05
3.12164e-06
8.61011e-08
4.29756e-08
2.18512e-06
9.38728e-06
1.70243e-05
1.00671e-05
7.62225e-06
6.86453e-06
6.81116e-06
7.45782e-06
9.08839e-06
1.18523e-05
1.57352e-05
2.03352e-05
2.48112e-05
2.84411e-05
3.11371e-05
3.32066e-05
3.48922e-05
3.61791e-05
3.68486e-05
3.66114e-05
3.52432e-05
3.27288e-05
2.93238e-05
2.53512e-05
2.09626e-05
1.63087e-05
1.18456e-05
8.20024e-06
5.77417e-06
4.6205e-06
5.00188e-06
1.05198e-05
3.29321e-06
8.77848e-08
4.03425e-08
2.06874e-06
8.25628e-06
1.76727e-05
1.09865e-05
7.68658e-06
6.51555e-06
6.43315e-06
7.30628e-06
9.28923e-06
1.24174e-05
1.65093e-05
2.09409e-05
2.47879e-05
2.75438e-05
2.94564e-05
3.10986e-05
3.28215e-05
3.44844e-05
3.55503e-05
3.54215e-05
3.37955e-05
3.09455e-05
2.76142e-05
2.4333e-05
2.10373e-05
1.7412e-05
1.34578e-05
9.72392e-06
6.90132e-06
5.33186e-06
5.39919e-06
1.05209e-05
3.62869e-06
8.99585e-08
3.83823e-08
1.95373e-06
7.63612e-06
1.70652e-05
1.04484e-05
7.15503e-06
6.19733e-06
6.50513e-06
7.88852e-06
1.04325e-05
1.40993e-05
1.85048e-05
2.26833e-05
2.55801e-05
2.69891e-05
2.76182e-05
2.84437e-05
3.00773e-05
3.22805e-05
3.39238e-05
3.37319e-05
3.13081e-05
2.76493e-05
2.42113e-05
2.1568e-05
1.94078e-05
1.71155e-05
1.42818e-05
1.10976e-05
8.26968e-06
6.44051e-06
6.32264e-06
1.15138e-05
4.04109e-06
9.46901e-08
3.61349e-08
1.83348e-06
7.24952e-06
1.62944e-05
9.66571e-06
6.7846e-06
6.3338e-06
7.18988e-06
9.14934e-06
1.22257e-05
1.6237e-05
2.04746e-05
2.37083e-05
2.50698e-05
2.48138e-05
2.40338e-05
2.40259e-05
2.57467e-05
2.90729e-05
3.19395e-05
3.15623e-05
2.77234e-05
2.31111e-05
1.97903e-05
1.7908e-05
1.6832e-05
1.58205e-05
1.42596e-05
1.19879e-05
9.50209e-06
7.63816e-06
7.49443e-06
1.29929e-05
4.37248e-06
1.04283e-07
3.32871e-08
1.8478e-06
7.81723e-06
1.5811e-05
9.05057e-06
7.00681e-06
7.2354e-06
8.71485e-06
1.12629e-05
1.47807e-05
1.88107e-05
2.2282e-05
2.39582e-05
2.34716e-05
2.15931e-05
1.96604e-05
1.90232e-05
2.08188e-05
2.53718e-05
2.96617e-05
2.83661e-05
2.27486e-05
1.78463e-05
1.51527e-05
1.40777e-05
1.38789e-05
1.39159e-05
1.35753e-05
1.24182e-05
1.05854e-05
8.95698e-06
9.07768e-06
1.55311e-05
4.44846e-06
1.19893e-07
3.20696e-08
2.01705e-06
9.42856e-06
1.59807e-05
9.59166e-06
8.38159e-06
9.19671e-06
1.11663e-05
1.40279e-05
1.73942e-05
2.04175e-05
2.19999e-05
2.15075e-05
1.92834e-05
1.6447e-05
1.42008e-05
1.34627e-05
1.5162e-05
2.03256e-05
2.63836e-05
2.4637e-05
1.80017e-05
1.34982e-05
1.15472e-05
1.11506e-05
1.16202e-05
1.24005e-05
1.28815e-05
1.25075e-05
1.12926e-05
1.01529e-05
1.1039e-05
1.8905e-05
4.25128e-06
1.36294e-07
3.2707e-08
2.53374e-06
1.29183e-05
1.64379e-05
1.16631e-05
1.09313e-05
1.20258e-05
1.40863e-05
1.66113e-05
1.89292e-05
2.01814e-05
1.97636e-05
1.77777e-05
1.49544e-05
1.22594e-05
1.04347e-05
9.98215e-06
1.16211e-05
1.6635e-05
2.30154e-05
1.99494e-05
1.31814e-05
9.6366e-06
8.46139e-06
8.70181e-06
9.86598e-06
1.13669e-05
1.24044e-05
1.25627e-05
1.21514e-05
1.222e-05
1.50143e-05
1.95367e-05
3.72368e-06
1.37679e-07
3.47263e-08
3.07995e-06
1.5093e-05
2.02789e-05
1.56168e-05
1.43754e-05
1.50429e-05
1.65665e-05
1.82931e-05
1.95863e-05
1.98157e-05
1.86139e-05
1.61554e-05
1.31299e-05
1.0398e-05
8.56651e-06
7.97101e-06
9.10895e-06
1.30303e-05
1.8338e-05
1.54301e-05
9.97028e-06
7.15957e-06
6.18234e-06
6.56033e-06
8.28339e-06
1.08452e-05
1.26412e-05
1.27649e-05
1.24328e-05
1.34134e-05
1.77622e-05
1.43189e-05
3.0983e-06
1.1867e-07
3.17623e-08
3.23962e-06
1.41176e-05
2.35709e-05
2.0354e-05
1.81637e-05
1.77884e-05
1.83622e-05
1.92535e-05
1.99655e-05
2.00348e-05
1.90773e-05
1.69934e-05
1.41777e-05
1.1383e-05
9.30355e-06
8.33948e-06
8.81672e-06
1.11724e-05
1.45127e-05
1.43225e-05
1.08308e-05
7.56025e-06
5.43766e-06
4.45185e-06
4.59727e-06
6.04607e-06
8.85777e-06
1.23529e-05
1.48042e-05
1.64937e-05
1.97605e-05
1.33312e-05
3.06649e-06
1.03465e-07
2.42602e-08
3.0104e-06
1.09487e-05
2.14837e-05
2.28137e-05
2.14034e-05
2.01726e-05
1.94671e-05
1.9103e-05
1.87053e-05
1.76922e-05
1.5717e-05
1.31744e-05
1.0835e-05
9.24043e-06
8.67599e-06
9.48346e-06
1.2062e-05
1.51956e-05
1.50816e-05
1.26059e-05
1.09723e-05
1.04727e-05
9.52202e-06
7.14817e-06
4.92442e-06
3.85592e-06
3.99241e-06
5.34934e-06
8.21354e-06
1.30882e-05
1.91422e-05
1.24489e-05
3.02707e-06
1.17064e-07
1.67965e-08
3.22445e-06
1.1364e-05
1.88568e-05
2.05351e-05
1.95087e-05
1.87019e-05
1.72408e-05
1.44752e-05
1.12834e-05
8.7116e-06
7.0377e-06
6.13794e-06
5.91483e-06
6.42773e-06
7.95228e-06
1.08579e-05
1.4169e-05
1.47499e-05
1.2947e-05
1.12199e-05
1.03725e-05
1.03342e-05
1.08621e-05
1.12456e-05
1.00164e-05
7.25564e-06
5.06801e-06
4.20628e-06
4.67232e-06
6.71017e-06
1.11383e-05
1.1852e-05
2.87605e-06
1.4883e-07
1.66192e-08
3.57563e-06
1.18155e-05
1.72334e-05
1.87948e-05
1.21705e-05
7.43915e-06
5.04226e-06
3.91157e-06
3.52198e-06
3.69431e-06
4.42134e-06
5.82225e-06
8.21687e-06
1.19907e-05
1.60318e-05
1.7108e-05
1.53675e-05
1.32692e-05
1.20278e-05
1.19637e-05
1.31585e-05
1.54534e-05
1.78938e-05
1.8531e-05
1.60192e-05
1.16413e-05
7.76326e-06
5.35211e-06
4.38411e-06
4.91583e-06
8.03345e-06
1.05126e-05
2.48175e-06
1.70562e-07
2.36361e-08
2.78983e-06
9.47522e-06
8.0558e-06
4.98704e-06
3.71339e-06
3.46878e-06
3.94442e-06
5.14272e-06
7.32965e-06
1.10923e-05
1.69109e-05
2.31347e-05
2.60356e-05
2.5074e-05
2.23172e-05
1.95703e-05
1.78542e-05
1.75471e-05
1.85677e-05
2.03965e-05
2.21757e-05
2.31033e-05
2.26514e-05
2.0555e-05
1.69674e-05
1.27224e-05
8.94329e-06
6.25024e-06
4.75849e-06
4.62333e-06
7.10509e-06
1.00949e-05
2.25402e-06
1.62635e-07
3.38358e-08
3.07008e-06
8.78515e-06
4.62743e-06
3.84036e-06
4.44081e-06
6.51072e-06
1.07305e-05
1.67726e-05
2.08463e-05
2.10444e-05
1.99091e-05
1.95893e-05
2.08406e-05
2.32693e-05
2.491e-05
2.3242e-05
1.88771e-05
1.49007e-05
1.26385e-05
1.18972e-05
1.2287e-05
1.34482e-05
1.48362e-05
1.55997e-05
1.48758e-05
1.25647e-05
9.62295e-06
7.09906e-06
5.48876e-06
5.15033e-06
7.55819e-06
1.0357e-05
2.25861e-06
1.55634e-07
3.78761e-08
4.17342e-06
8.12871e-06
4.59466e-06
4.64339e-06
6.30254e-06
9.10331e-06
1.17082e-05
1.35108e-05
1.53026e-05
1.77719e-05
2.10309e-05
2.45691e-05
2.73706e-05
2.8402e-05
2.71112e-05
2.37944e-05
1.96208e-05
1.58784e-05
1.32494e-05
1.18532e-05
1.15983e-05
1.23392e-05
1.37228e-05
1.49277e-05
1.49255e-05
1.33843e-05
1.09533e-05
8.57759e-06
6.92808e-06
6.61464e-06
9.41602e-06
1.15612e-05
2.51013e-06
1.44135e-07
3.02451e-08
4.1847e-06
1.51769e-05
6.46295e-06
5.77446e-06
7.05554e-06
9.54244e-06
1.2392e-05
1.43019e-05
1.47294e-05
1.44774e-05
1.46115e-05
1.57806e-05
1.82649e-05
2.19461e-05
2.59062e-05
2.80492e-05
2.58637e-05
1.99166e-05
1.42792e-05
1.07054e-05
8.85081e-06
8.27711e-06
8.7799e-06
1.01056e-05
1.14053e-05
1.15156e-05
1.03963e-05
8.9982e-06
8.13729e-06
8.67864e-06
1.28277e-05
1.21021e-05
2.75446e-06
1.34386e-07
2.25594e-08
4.42784e-06
1.40407e-05
7.86807e-06
6.62647e-06
7.29469e-06
8.88016e-06
1.09256e-05
1.31106e-05
1.52538e-05
1.7201e-05
1.88068e-05
2.01672e-05
2.16563e-05
2.36213e-05
2.60868e-05
2.86233e-05
3.04117e-05
3.01852e-05
2.60375e-05
1.84886e-05
1.2075e-05
8.43551e-06
6.83006e-06
6.65996e-06
7.67897e-06
9.2993e-06
1.02793e-05
9.96228e-06
9.40191e-06
1.02372e-05
1.47874e-05
1.31178e-05
2.95926e-06
1.25806e-07
2.3613e-08
4.46717e-06
1.40803e-05
9.24682e-06
7.86237e-06
8.28695e-06
9.25702e-06
1.01737e-05
1.08806e-05
1.15775e-05
1.25844e-05
1.42416e-05
1.68459e-05
2.04823e-05
2.47579e-05
2.88207e-05
3.18938e-05
3.35769e-05
3.36119e-05
3.16111e-05
2.69597e-05
1.99565e-05
1.32073e-05
8.71485e-06
6.37593e-06
5.63193e-06
6.12636e-06
7.39974e-06
8.862e-06
1.02436e-05
1.25382e-05
1.7697e-05
1.30425e-05
3.02959e-06
1.23992e-07
2.59547e-08
3.56828e-06
1.43624e-05
1.32483e-05
1.01044e-05
9.67199e-06
1.0184e-05
1.09394e-05
1.1672e-05
1.23122e-05
1.29932e-05
1.39918e-05
1.56662e-05
1.83917e-05
2.23433e-05
2.70664e-05
3.13186e-05
3.37317e-05
3.3576e-05
3.10009e-05
2.68395e-05
2.18887e-05
1.65991e-05
1.16756e-05
7.99166e-06
5.85641e-06
5.14539e-06
5.56684e-06
6.7325e-06
8.30932e-06
1.09068e-05
1.66584e-05
1.26146e-05
2.91715e-06
1.28014e-07
2.25328e-08
3.21112e-06
1.38946e-05
1.7078e-05
1.26999e-05
1.11449e-05
1.10163e-05
1.13608e-05
1.17332e-05
1.19868e-05
1.22781e-05
1.30173e-05
1.47062e-05
1.77742e-05
2.2234e-05
2.71285e-05
3.08646e-05
3.26157e-05
3.25854e-05
3.12787e-05
2.9016e-05
2.57781e-05
2.1378e-05
1.60594e-05
1.09247e-05
7.12763e-06
4.99813e-06
4.36611e-06
4.98931e-06
6.85786e-06
1.03606e-05
1.69786e-05
1.40031e-05
3.14736e-06
1.29501e-07
1.89797e-08
2.94522e-06
1.27124e-05
1.57315e-05
1.41312e-05
1.15374e-05
1.03684e-05
9.67142e-06
9.1648e-06
9.06234e-06
9.65624e-06
1.12665e-05
1.42706e-05
1.88462e-05
2.41128e-05
2.80577e-05
2.9632e-05
2.93277e-05
2.79933e-05
2.63283e-05
2.47862e-05
2.3498e-05
2.21842e-05
2.01037e-05
1.6417e-05
1.15206e-05
7.25694e-06
4.71252e-06
3.73907e-06
4.12852e-06
6.39523e-06
1.2723e-05
1.2216e-05
2.94301e-06
1.33606e-07
1.73552e-08
3.12021e-06
1.23348e-05
1.51569e-05
1.5297e-05
1.11511e-05
8.85565e-06
7.85171e-06
7.88472e-06
8.9734e-06
1.12467e-05
1.48864e-05
1.96916e-05
2.45527e-05
2.80959e-05
2.9941e-05
3.04979e-05
3.02611e-05
2.95655e-05
2.85689e-05
2.72808e-05
2.5642e-05
2.36367e-05
2.13514e-05
1.87973e-05
1.57012e-05
1.1878e-05
8.04197e-06
5.26944e-06
3.91097e-06
4.00649e-06
6.61038e-06
1.13019e-05
2.66139e-06
1.43439e-07
1.69135e-08
2.77222e-06
1.08983e-05
1.31844e-05
8.3223e-06
6.44315e-06
6.20429e-06
7.0576e-06
8.98819e-06
1.21447e-05
1.66342e-05
2.20424e-05
2.71191e-05
3.05918e-05
3.21409e-05
3.21495e-05
3.11228e-05
2.94733e-05
2.75097e-05
2.54608e-05
2.34794e-05
2.16383e-05
1.99379e-05
1.8341e-05
1.68079e-05
1.52956e-05
1.36193e-05
1.14638e-05
8.81767e-06
6.41386e-06
5.15908e-06
5.96782e-06
1.26851e-05
3.15447e-06
1.71493e-07
1.54493e-08
2.97096e-06
1.03878e-05
7.90363e-06
6.32302e-06
6.56975e-06
8.03649e-06
1.06689e-05
1.44476e-05
1.89757e-05
2.32733e-05
2.64193e-05
2.83316e-05
2.94846e-05
3.0196e-05
3.03936e-05
2.99286e-05
2.88324e-05
2.73016e-05
2.55848e-05
2.38888e-05
2.23458e-05
2.10139e-05
1.99039e-05
1.90153e-05
1.81408e-05
1.69431e-05
1.50876e-05
1.22522e-05
8.87153e-06
6.31797e-06
5.87902e-06
1.09313e-05
3.98232e-06
2.25926e-07
2.00687e-08
6.27372e-06
1.51406e-05
9.11012e-06
8.22326e-06
9.33575e-06
1.15478e-05
1.41485e-05
1.6364e-05
1.78696e-05
1.89228e-05
1.99297e-05
2.11456e-05
2.26575e-05
2.44135e-05
2.61633e-05
2.75039e-05
2.80434e-05
2.7558e-05
2.60995e-05
2.40154e-05
2.17767e-05
1.97009e-05
1.78766e-05
1.63918e-05
1.52402e-05
1.41018e-05
1.25155e-05
1.0352e-05
8.2458e-06
7.25495e-06
9.26155e-06
2.12704e-05
3.4199e-06
2.28357e-07
3.04979e-08
1.02149e-05
9.75413e-06
8.38922e-06
9.94657e-06
1.27202e-05
1.43864e-05
1.43049e-05
1.37624e-05
1.35374e-05
1.37602e-05
1.44354e-05
1.56567e-05
1.76035e-05
2.04548e-05
2.41783e-05
2.80382e-05
3.006e-05
2.78906e-05
2.23393e-05
1.70562e-05
1.36921e-05
1.20977e-05
1.18987e-05
1.27173e-05
1.39515e-05
1.46624e-05
1.4135e-05
1.2803e-05
1.19423e-05
1.3272e-05
1.94911e-05
9.24799e-06
2.51489e-06
1.48166e-07
3.74873e-08
4.39283e-06
1.82535e-05
9.63605e-06
7.27792e-06
6.93173e-06
7.48928e-06
8.61325e-06
9.87887e-06
1.08837e-05
1.16332e-05
1.245e-05
1.37528e-05
1.5993e-05
1.97221e-05
2.53535e-05
3.0392e-05
3.03279e-05
2.25937e-05
1.60918e-05
1.24125e-05
1.04342e-05
9.46883e-06
9.30078e-06
9.88139e-06
1.11271e-05
1.27392e-05
1.41547e-05
1.50707e-05
1.5934e-05
1.69542e-05
1.30698e-05
5.31293e-06
1.9141e-06
7.77073e-08
1.9734e-08
2.22268e-06
7.898e-06
1.80877e-05
2.00555e-05
1.63567e-05
1.35519e-05
1.19503e-05
1.07026e-05
9.43312e-06
8.15554e-06
7.18172e-06
6.81116e-06
7.09497e-06
7.93828e-06
9.31867e-06
1.13353e-05
1.38122e-05
1.54408e-05
1.44434e-05
1.18938e-05
9.73307e-06
8.33776e-06
7.50666e-06
7.07648e-06
6.99696e-06
7.26284e-06
7.92373e-06
9.15513e-06
1.12501e-05
1.35013e-05
1.06393e-05
4.53987e-06
1.67709e-06
5.64166e-08
7.44161e-09
1.81998e-06
4.52158e-06
9.48485e-06
1.51278e-05
1.66123e-05
1.75752e-05
1.80846e-05
1.81884e-05
1.79445e-05
1.74489e-05
1.68346e-05
1.62377e-05
1.57574e-05
1.2827e-05
1.05902e-05
9.2974e-06
8.65518e-06
8.5525e-06
9.02569e-06
1.02008e-05
1.17854e-05
1.21883e-05
1.06735e-05
8.90877e-06
7.71085e-06
7.04785e-06
6.78903e-06
6.93729e-06
7.76983e-06
1.03031e-05
1.60522e-05
8.87211e-06
2.36037e-06
7.4011e-08
6.23085e-09
1.569e-06
4.18478e-06
6.5396e-06
6.55419e-06
6.07029e-06
5.79664e-06
5.74544e-06
5.87497e-06
6.17463e-06
6.67098e-06
7.41223e-06
8.46317e-06
9.84396e-06
1.14312e-05
1.29278e-05
1.38976e-05
1.39974e-05
1.33629e-05
1.21807e-05
1.06347e-05
9.28373e-06
8.44655e-06
7.9336e-06
7.44173e-06
6.98549e-06
6.88989e-06
7.15895e-06
7.49478e-06
7.87208e-06
8.88385e-06
1.19075e-05
1.3565e-05
3.13042e-06
1.17759e-07
7.08191e-09
3.12904e-06
3.26443e-06
3.03732e-06
3.22243e-06
3.58234e-06
4.0532e-06
4.63993e-06
5.36489e-06
6.27924e-06
7.50022e-06
9.26851e-06
1.2072e-05
1.62078e-05
1.6954e-05
1.60209e-05
1.22914e-05
9.50266e-06
7.25636e-06
5.68284e-06
5.12141e-06
5.57197e-06
6.85165e-06
8.61125e-06
1.0562e-05
1.26208e-05
1.43438e-05
1.47605e-05
1.3735e-05
1.25973e-05
1.29363e-05
1.64017e-05
1.43678e-05
3.06878e-06
1.40657e-07
5.26559e-09
2.2904e-06
3.1471e-06
4.2618e-06
5.71199e-06
7.62381e-06
1.0145e-05
1.32625e-05
1.63425e-05
1.77258e-05
1.56163e-05
1.13585e-05
7.93128e-06
6.02487e-06
5.38266e-06
5.84303e-06
7.16106e-06
8.95826e-06
1.12931e-05
1.46891e-05
1.95553e-05
2.4225e-05
2.64242e-05
2.8889e-05
3.14091e-05
3.12284e-05
2.85926e-05
2.47362e-05
2.07321e-05
1.80535e-05
1.78917e-05
2.09917e-05
1.36124e-05
3.04144e-06
1.3543e-07
8.35282e-09
3.17529e-06
5.25947e-06
7.74006e-06
1.06654e-05
1.36078e-05
1.63952e-05
1.93026e-05
2.11298e-05
1.81838e-05
1.18415e-05
7.37412e-06
5.10479e-06
4.19459e-06
4.47852e-06
6.58943e-06
1.18593e-05
1.90054e-05
2.46244e-05
2.7311e-05
2.94649e-05
2.74274e-05
2.42475e-05
2.28509e-05
2.2858e-05
2.33232e-05
2.34146e-05
2.2768e-05
2.16022e-05
2.06191e-05
2.06892e-05
2.11253e-05
1.11102e-05
2.89267e-06
1.23346e-07
1.50135e-08
5.18113e-06
5e-06
5.76203e-06
7.12573e-06
9.0317e-06
1.19438e-05
1.68934e-05
2.31147e-05
2.31625e-05
1.60169e-05
9.94746e-06
6.44296e-06
4.42885e-06
3.26702e-06
2.73523e-06
2.87348e-06
4.05836e-06
7.2259e-06
1.27381e-05
1.74275e-05
2.05465e-05
2.35059e-05
2.51585e-05
2.42842e-05
2.22893e-05
2.06597e-05
1.9741e-05
1.94149e-05
1.96279e-05
2.03018e-05
1.93102e-05
9.35571e-06
2.71325e-06
1.11526e-07
1.92514e-08
8.06769e-06
1.22466e-05
7.88592e-06
5.93224e-06
5.05464e-06
5.13646e-06
6.3496e-06
9.05556e-06
1.38693e-05
2.121e-05
2.53356e-05
1.90551e-05
1.22158e-05
8.15092e-06
5.70043e-06
4.08698e-06
3.03573e-06
2.49703e-06
2.58948e-06
3.6699e-06
6.42857e-06
1.09927e-05
1.51568e-05
1.79605e-05
2.04158e-05
2.22255e-05
2.25041e-05
2.1742e-05
2.12203e-05
2.1525e-05
2.06778e-05
1.04641e-05
2.96183e-06
1.14796e-07
1.44946e-08
7.61033e-06
1.25852e-05
1.43483e-05
1.18042e-05
1.05349e-05
9.154e-06
7.31541e-06
5.85647e-06
5.57345e-06
6.94494e-06
1.02106e-05
1.54555e-05
2.17994e-05
2.47535e-05
2.09158e-05
1.48648e-05
1.01114e-05
6.89915e-06
4.76701e-06
3.45231e-06
2.90993e-06
3.24863e-06
4.84182e-06
8.17401e-06
1.24609e-05
1.55822e-05
1.77637e-05
1.97876e-05
2.14004e-05
2.21405e-05
2.12822e-05
1.24516e-05
3.38594e-06
1.42013e-07
1.62311e-08
5.8826e-06
1.28454e-05
1.22276e-05
9.21217e-06
7.48024e-06
6.4088e-06
5.93243e-06
6.28013e-06
7.83253e-06
1.11218e-05
1.63381e-05
2.16701e-05
2.41353e-05
2.52306e-05
2.51106e-05
2.43747e-05
2.19455e-05
1.73825e-05
1.22765e-05
8.16118e-06
5.36564e-06
3.75372e-06
3.17326e-06
3.64177e-06
5.48057e-06
8.98009e-06
1.27169e-05
1.47405e-05
1.59002e-05
1.6904e-05
1.7027e-05
1.10545e-05
3.25726e-06
1.65277e-07
1.8712e-08
4.14165e-06
1.28042e-05
1.47451e-05
1.06173e-05
8.0787e-06
6.43415e-06
5.54693e-06
5.53906e-06
6.57791e-06
8.90114e-06
1.26792e-05
1.75295e-05
2.23664e-05
2.54079e-05
2.64233e-05
2.73406e-05
2.7451e-05
2.44224e-05
1.99582e-05
1.47592e-05
9.97219e-06
6.40876e-06
4.20058e-06
3.17661e-06
3.19289e-06
4.32474e-06
6.81683e-06
1.03825e-05
1.32888e-05
1.47458e-05
1.44685e-05
8.46809e-06
2.7663e-06
1.54132e-07
2.09111e-08
3.28105e-06
1.27336e-05
1.46653e-05
1.00759e-05
7.4001e-06
5.88821e-06
5.26618e-06
5.60803e-06
7.11561e-06
1.00599e-05
1.44394e-05
1.9349e-05
2.34355e-05
2.45723e-05
2.54168e-05
2.63468e-05
2.73359e-05
2.69668e-05
2.47173e-05
2.12186e-05
1.65759e-05
1.16973e-05
7.66988e-06
4.96404e-06
3.52654e-06
3.16517e-06
3.7853e-06
5.49397e-06
8.70086e-06
1.32003e-05
1.42184e-05
7.12158e-06
2.39803e-06
1.27722e-07
2.28704e-08
2.60782e-06
1.08739e-05
1.49769e-05
1.03085e-05
7.34576e-06
5.80698e-06
5.27021e-06
5.70709e-06
7.26636e-06
1.01192e-05
1.42683e-05
1.91369e-05
2.30668e-05
2.37231e-05
2.44809e-05
2.53906e-05
2.64575e-05
2.59191e-05
2.43645e-05
2.26723e-05
2.03807e-05
1.71418e-05
1.32513e-05
9.47627e-06
6.50479e-06
4.62883e-06
3.83275e-06
4.01481e-06
5.21038e-06
8.11991e-06
1.32299e-05
7.40477e-06
2.26506e-06
1.04628e-07
2.17233e-08
2.15518e-06
7.99804e-06
1.4898e-05
1.24972e-05
8.22398e-06
6.07271e-06
5.30338e-06
5.54846e-06
6.81415e-06
9.21813e-06
1.29025e-05
1.76884e-05
2.08481e-05
2.14496e-05
2.22172e-05
2.32162e-05
2.44657e-05
2.33076e-05
2.22104e-05
2.16606e-05
2.11223e-05
2.00022e-05
1.79633e-05
1.50979e-05
1.18865e-05
8.96289e-06
6.79714e-06
5.6048e-06
5.41814e-06
6.38323e-06
9.44554e-06
9.49521e-06
2.44171e-06
8.65494e-08
1.51611e-08
1.90143e-06
6.11605e-06
1.34584e-05
1.47705e-05
1.08456e-05
7.65477e-06
6.31122e-06
6.11455e-06
6.76518e-06
8.29086e-06
1.09465e-05
1.50967e-05
1.85462e-05
1.92089e-05
2.00037e-05
2.09921e-05
2.18118e-05
2.008e-05
1.93613e-05
1.95416e-05
2.00795e-05
2.04104e-05
2.00707e-05
1.87978e-05
1.66248e-05
1.39243e-05
1.12446e-05
9.10017e-06
7.85018e-06
7.76537e-06
9.33922e-06
1.0858e-05
2.88345e-06
7.58514e-08
8.77506e-09
1.8962e-06
5.46724e-06
1.03001e-05
1.07735e-05
8.85381e-06
7.29882e-06
6.53179e-06
6.42169e-06
6.90756e-06
8.17078e-06
1.0817e-05
1.5648e-05
1.66412e-05
1.76379e-05
1.86979e-05
1.98298e-05
1.88653e-05
1.77989e-05
1.79308e-05
1.89592e-05
2.04418e-05
2.18686e-05
2.26927e-05
2.2436e-05
2.09429e-05
1.84759e-05
1.55759e-05
1.28439e-05
1.08124e-05
9.9969e-06
1.10389e-05
1.25398e-05
3.39638e-06
7.31733e-08
5.26044e-09
1.90298e-06
4.41039e-06
4.57849e-06
4.22358e-06
4.09914e-06
4.26564e-06
4.78052e-06
5.76479e-06
7.61409e-06
1.12396e-05
1.58772e-05
1.72622e-05
1.86257e-05
1.99558e-05
2.06499e-05
1.94487e-05
1.95766e-05
2.0829e-05
2.28237e-05
2.51284e-05
2.72577e-05
2.87735e-05
2.93302e-05
2.86352e-05
2.6628e-05
2.36272e-05
2.01828e-05
1.68768e-05
1.42687e-05
1.29874e-05
1.38564e-05
1.50644e-05
3.81611e-06
7.66623e-08
5.11813e-09
4.10605e-06
4.47701e-06
5.06164e-06
6.22416e-06
8.13178e-06
1.13068e-05
1.65022e-05
1.92973e-05
2.05698e-05
2.17184e-05
2.27325e-05
2.36326e-05
2.44587e-05
2.52732e-05
2.61447e-05
2.71333e-05
2.82806e-05
2.9608e-05
3.11185e-05
3.27843e-05
3.45443e-05
3.63071e-05
3.79552e-05
3.56905e-05
3.16874e-05
2.74428e-05
2.34407e-05
1.99364e-05
1.72894e-05
1.61247e-05
1.73263e-05
1.74473e-05
4.03949e-06
8.31981e-08
8.47822e-09
4.80276e-06
7.10424e-06
1.01862e-05
1.48863e-05
2.01176e-05
2.10565e-05
2.18574e-05
2.25732e-05
2.32331e-05
2.38686e-05
2.45148e-05
2.52071e-05
2.59772e-05
2.6854e-05
2.78646e-05
2.90317e-05
3.03696e-05
3.18801e-05
3.35412e-05
3.52858e-05
3.7039e-05
3.87199e-05
4.02358e-05
3.76106e-05
3.24143e-05
2.77885e-05
2.40195e-05
2.10191e-05
1.8966e-05
1.84415e-05
2.00932e-05
1.74209e-05
3.90638e-06
8.64422e-08
1.46594e-08
5.5476e-06
5.41075e-06
5.96495e-06
7.99914e-06
1.17787e-05
1.71246e-05
2.09845e-05
2.16383e-05
2.23361e-05
2.30739e-05
2.38619e-05
2.47117e-05
2.56357e-05
2.66499e-05
2.77622e-05
2.73908e-05
2.85718e-05
3.12466e-05
3.384e-05
3.56318e-05
3.74289e-05
3.91316e-05
3.84144e-05
3.43146e-05
2.99339e-05
2.61407e-05
2.30529e-05
2.0721e-05
1.93676e-05
1.94951e-05
2.11941e-05
1.53945e-05
3.5574e-06
8.28355e-08
1.92295e-08