/*--------------------------------*- C++ -*----------------------------------*\
| =========                 |                                                 |
| \\      /  F ield         | OpenFOAM: The Open Source CFD Toolbox           |
|  \\    /   O peration     | Version:  v1906                                 |
|   \\  /    A nd           | Web:      www.OpenFOAM.com                      |
|    \\/     M anipulation  |                                                 |
\*---------------------------------------------------------------------------*/
FoamFile
{
    version     2.0;
    format      ascii;
    class       volScalarField;
    location    "18";
    object      omega;
}
// * * * * * * * * * * * * * * * * * * * * * * * * * * * * * * * * * * * * * //

dimensions      [0 0 -1 0 0 0 0];


internalField   nonuniform List<scalar> 
78750
(
360.057
14.7343
14.9489
14.8999
14.8867
14.8721
14.8639
14.8598
14.8588
14.8604
14.8654
14.8728
14.8825
14.8932
14.9033
14.9116
14.9174
14.9204
14.9204
14.9173
14.9107
14.9004
14.8859
14.8667
14.8422
14.8118
14.7745
14.7295
14.6752
14.6104
14.5341
14.4431
14.318
14.1155
356.906
525.794
5.86295
6.26864
6.34148
6.29944
6.22776
6.15703
6.09627
6.04743
6.00727
5.97649
5.95562
5.94289
5.9372
5.93591
5.93627
5.93654
5.93565
5.9323
5.92586
5.91554
5.90048
5.87958
5.8514
5.81411
5.76686
5.70797
5.63509
5.54486
5.43291
5.29569
5.13745
4.97146
4.74752
523.959
526.115
5.43323
5.67731
5.71183
5.63643
5.54431
5.47859
5.44346
5.4323
5.43392
5.44583
5.46677
5.49606
5.53127
5.56861
5.60421
5.63519
5.66001
5.67821
5.68975
5.69468
5.69291
5.68414
5.66777
5.64307
5.60859
5.56183
5.49853
5.41229
5.29603
5.1501
4.99612
4.85734
4.68509
524.54
526.003
5.25411
5.48543
5.59659
5.63903
5.63433
5.6043
5.56059
5.50868
5.45625
5.41973
5.41893
5.45793
5.5263
5.60604
5.68145
5.74365
5.79028
5.82287
5.84371
5.85427
5.855
5.84581
5.82644
5.79667
5.75634
5.70427
5.63641
5.54538
5.42053
5.25641
5.07366
4.90106
4.70097
524.73
525.893
5.10966
5.32873
5.44098
5.49521
5.49116
5.43682
5.34601
5.23558
5.13089
5.07239
5.09051
5.17669
5.29896
5.42421
5.53147
5.61251
5.66783
5.70205
5.71997
5.72452
5.7168
5.69703
5.6655
5.62368
5.5748
5.52198
5.46359
5.39085
5.28859
5.1475
4.98211
4.82841
4.66088
525.177
525.753
4.94307
5.16301
5.27896
5.34834
5.37149
5.34035
5.24856
5.11394
5.00146
4.98978
5.09315
5.261
5.43579
5.58305
5.69171
5.76401
5.80703
5.82817
5.8331
5.82501
5.80472
5.77132
5.7238
5.6647
5.60261
5.54826
5.50585
5.46661
5.4099
5.31094
5.15619
4.96691
4.75498
525.18
525.667
4.83693
5.05569
5.15071
5.17258
5.10981
4.95802
4.80464
4.7722
4.8976
5.12112
5.35574
5.54341
5.66749
5.73788
5.77179
5.78298
5.77947
5.76483
5.74008
5.70415
5.65314
5.58019
5.48
5.3601
5.24666
5.16977
5.14095
5.14837
5.16396
5.14784
5.07111
4.94617
4.77095
525.575
525.691
4.75183
4.89158
4.88768
4.79726
4.71433
4.76708
4.97514
5.24855
5.48137
5.62958
5.70495
5.7378
5.75376
5.76665
5.78014
5.79167
5.79682
5.79167
5.77317
5.73787
5.67879
5.58411
5.44648
5.28361
5.14346
5.07369
5.07508
5.10595
5.11834
5.08455
4.9975
4.88789
4.72994
525.917
525.736
4.66517
4.73442
4.70107
4.67536
4.7876
5.0108
5.2292
5.3808
5.4736
5.53763
5.59297
5.64502
5.69139
5.72851
5.75522
5.77214
5.78002
5.77858
5.766
5.73846
5.68877
5.60443
5.46955
5.27994
5.06822
4.90953
4.8684
4.92366
4.977
4.97229
4.90735
4.80908
4.65303
526.432
525.773
4.63534
4.69437
4.7178
4.81749
5.01601
5.21713
5.36615
5.46187
5.52194
5.56428
5.60078
5.63744
5.67453
5.70931
5.73925
5.76318
5.78074
5.79167
5.79519
5.78939
5.77026
5.72973
5.65233
5.51495
5.30218
5.04001
4.81333
4.71907
4.75018
4.79875
4.79137
4.72822
4.59383
526.905
525.785
4.64519
4.72234
4.79007
4.92792
5.10573
5.25028
5.34173
5.39152
5.41832
5.44276
5.47946
5.53095
5.58888
5.6426
5.68629
5.71902
5.74181
5.75575
5.76149
5.75914
5.74814
5.72672
5.6903
5.62784
5.51729
5.33128
5.07001
4.80171
4.64059
4.61364
4.63412
4.61741
4.53084
527.325
525.748
4.64623
4.74685
4.8399
4.99154
5.15347
5.26846
5.3238
5.33619
5.32887
5.3266
5.35253
5.41382
5.49617
5.57773
5.64565
5.69773
5.73628
5.76365
5.78115
5.78897
5.78625
5.7712
5.74101
5.69158
5.61591
5.49979
5.31999
5.06664
4.79333
4.61221
4.55053
4.53067
4.47622
527.699
525.694
4.64075
4.76921
4.87808
5.02131
5.15573
5.23695
5.25874
5.23904
5.20569
5.19058
5.22357
5.30843
5.41779
5.51946
5.59839
5.65486
5.69413
5.72088
5.73832
5.74838
5.75181
5.74795
5.73435
5.70634
5.65657
5.57477
5.44709
5.25717
5.00574
4.75592
4.59485
4.51906
4.45846
528.059
525.624
4.59855
4.76077
4.87822
4.99485
5.10022
5.16172
5.16927
5.13262
5.08456
5.07668
5.14305
5.26996
5.41145
5.5316
5.61964
5.67996
5.72022
5.74641
5.76243
5.7705
5.77156
5.76548
5.75106
5.72584
5.68569
5.62406
5.52999
5.38988
5.19254
4.95612
4.75033
4.60767
4.49906
528.297
525.565
4.5397
4.7182
4.83791
4.93654
5.01545
5.04732
5.01986
4.95576
4.92485
4.99186
5.14398
5.31926
5.46652
5.56987
5.63605
5.67698
5.70201
5.71717
5.72612
5.73074
5.73152
5.72777
5.71764
5.69799
5.66439
5.61116
5.5315
5.41664
5.25962
5.06695
4.87865
4.71363
4.56463
528.318
525.55
4.51997
4.69414
4.79611
4.85774
4.87679
4.84263
4.79497
4.81993
4.96824
5.18602
5.39117
5.53886
5.6291
5.68094
5.71059
5.72805
5.73883
5.74561
5.74945
5.75033
5.74747
5.73954
5.72443
5.69913
5.6597
5.60155
5.51968
5.40931
5.26749
5.10231
4.93844
4.77837
4.61208
528.248
525.565
4.5085
4.65358
4.7205
4.73837
4.72509
4.73486
4.83558
5.03469
5.25108
5.41784
5.52294
5.58502
5.62321
5.64891
5.66758
5.68175
5.69258
5.70062
5.70595
5.70819
5.70642
5.69905
5.68362
5.65658
5.6136
5.55033
5.46358
5.35213
5.21837
5.07599
4.93357
4.79013
4.628
528.353
525.589
4.49597
4.61034
4.66164
4.68609
4.73769
4.86795
5.06704
5.2634
5.41091
5.51101
5.57966
5.62769
5.661
5.68371
5.699
5.70935
5.71642
5.72104
5.72326
5.72236
5.71689
5.70458
5.68212
5.64487
5.58788
5.50782
5.4054
5.28582
5.15802
5.03365
4.90523
4.77514
4.62396
528.666
525.609
4.48966
4.59047
4.65263
4.72333
4.84569
5.01933
5.20292
5.3478
5.4496
5.51919
5.56665
5.59917
5.62178
5.63825
5.6511
5.66186
5.67128
5.67941
5.68568
5.68883
5.68684
5.67682
5.65456
5.61415
5.54927
5.45606
5.33805
5.20845
5.08691
4.97687
4.86194
4.74536
4.60869
529.064
525.62
4.49762
4.60288
4.68739
4.80019
4.94879
5.10925
5.25319
5.36286
5.44313
5.5034
5.55006
5.58624
5.61354
5.63385
5.64911
5.66108
5.67104
5.67959
5.6865
5.69061
5.68972
5.68048
5.65797
5.61528
5.54463
5.44058
5.30675
5.16145
5.03471
4.92787
4.82102
4.71508
4.59166
529.479
525.621
4.51127
4.62458
4.72102
4.84563
4.98364
5.11219
5.22062
5.30786
5.37882
5.43924
5.49076
5.53252
5.56419
5.58735
5.60453
5.61826
5.63048
5.64225
5.65359
5.66335
5.66916
5.66728
5.6522
5.61614
5.54967
5.44442
5.30088
5.13829
4.99601
4.88326
4.78102
4.68426
4.57297
529.83
525.602
4.50272
4.62669
4.72735
4.84274
4.95936
5.0582
5.1387
5.2134
5.28879
5.36495
5.43524
5.49231
5.53349
5.56098
5.57895
5.59158
5.60228
5.6133
5.62561
5.63869
5.65045
5.65722
5.65339
5.63087
5.57922
5.48652
5.34623
5.17047
5.00106
4.86607
4.75658
4.66325
4.56087
530.131
525.573
4.47338
4.60984
4.71192
4.81106
4.90549
4.97916
5.03732
5.10208
5.18926
5.28839
5.37994
5.45016
5.49637
5.5233
5.53764
5.54558
5.55206
5.56047
5.57255
5.5883
5.60604
5.62236
5.63183
5.62653
5.59595
5.52679
5.40698
5.23755
5.05087
4.8883
4.75889
4.65892
4.55808
530.321
525.552
4.44589
4.58669
4.68513
4.76964
4.84603
4.90553
4.96131
5.039
5.15137
5.27237
5.3736
5.44263
5.48138
5.49802
5.50114
5.49831
5.49563
5.49739
5.50594
5.5217
5.54344
5.56824
5.59106
5.60433
5.59732
5.55605
5.46556
5.31829
5.13302
4.9504
4.79574
4.67963
4.57028
530.421
525.544
4.42395
4.55927
4.64943
4.72068
4.78438
4.84264
4.91494
5.02021
5.15488
5.28261
5.37692
5.43245
5.45607
5.45751
5.44593
5.42964
5.41577
5.40941
5.41318
5.4276
5.45183
5.48378
5.51936
5.55173
5.57016
5.56052
5.50661
5.39496
5.23002
5.04006
4.86073
4.72176
4.5952
530.396
525.538
4.40245
4.52721
4.60894
4.67358
4.73873
4.81586
4.92238
5.05946
5.20435
5.32131
5.39483
5.42794
5.43046
5.41201
5.38162
5.3484
5.3211
5.30576
5.30465
5.3175
5.34332
5.38084
5.4273
5.47645
5.51795
5.53822
5.52162
5.45288
5.32537
5.14716
4.95165
4.78809
4.63804
530.286
525.531
4.38072
4.49522
4.57237
4.63966
4.72213
4.83247
4.97294
5.1241
5.25565
5.34485
5.3889
5.39601
5.3758
5.33664
5.28723
5.23808
5.20021
5.18049
5.17936
5.19429
5.22378
5.26741
5.32333
5.38622
5.44684
5.49287
5.51005
5.48348
5.3981
5.24586
5.04901
4.86777
4.69624
530.174
525.522
4.36615
4.47685
4.55898
4.64465
4.76311
4.91171
5.07002
5.20909
5.3071
5.35808
5.36844
5.34753
5.30346
5.24349
5.17677
5.11592
5.07407
5.05738
5.06244
5.08376
5.11981
5.17087
5.23509
5.30822
5.38294
5.44911
5.49461
5.50346
5.45398
5.32953
5.14101
4.9524
4.76666
530.133
525.519
4.36897
4.48775
4.59092
4.71228
4.86676
5.02734
5.16543
5.2622
5.31264
5.32231
5.30037
5.25443
5.19068
5.11623
5.04163
4.98074
4.94596
4.94068
4.95696
4.98713
5.03071
5.08855
5.15953
5.2417
5.32949
5.41375
5.48201
5.51446
5.48791
5.38262
5.20437
5.01974
4.83238
530.209
525.522
4.40436
4.54788
4.68051
4.83058
4.98955
5.12588
5.22152
5.2723
5.28351
5.26388
5.22128
5.1614
5.08895
5.01061
4.93631
4.87923
4.85083
4.85355
4.87736
4.91315
4.95989
5.01797
5.09086
5.185
5.29617
5.40458
5.48304
5.51399
5.48364
5.3813
5.21955
5.0478
4.85944
530.472
525.53
4.45825
4.63062
4.77662
4.92191
5.05764
5.15968
5.21969
5.24089
5.23146
5.19962
5.15124
5.08965
5.01691
4.93664
4.85717
4.79317
4.76131
4.76722
4.7984
4.84051
4.88637
4.93151
4.98795
5.08538
5.23377
5.38113
5.46741
5.4761
5.41519
5.29802
5.14974
4.99189
4.8055
531.035
525.521
4.47289
4.66142
4.80429
4.92961
5.04072
5.12345
5.17194
5.1886
5.17953
5.15098
5.10745
5.05134
4.98377
4.90681
4.82709
4.75767
4.71583
4.71289
4.74442
4.79495
4.84811
4.88441
4.89373
4.90258
4.9694
5.12005
5.28479
5.37713
5.3629
5.26378
5.12338
4.96436
4.76706
531.447
525.495
4.43567
4.62158
4.75564
4.86076
4.94704
5.01177
5.05222
5.06807
5.06037
5.03058
4.98168
4.91831
4.84721
4.77761
4.72057
4.68566
4.67578
4.68585
4.71196
4.7587
4.83032
4.91325
4.97353
4.98044
4.93433
4.8918
4.92722
5.03359
5.13158
5.14456
5.0739
4.95109
4.77301
532.063
525.469
4.37715
4.53829
4.65595
4.74859
4.82251
4.87258
4.893
4.88172
4.84141
4.78165
4.71839
4.66517
4.63129
4.62135
4.63488
4.66699
4.70997
4.75806
4.81115
4.87106
4.93805
5.00924
5.07702
5.12491
5.13139
5.08116
4.9939
4.92697
4.92825
4.96279
4.95666
4.89032
4.77485
532.642
525.47
4.37231
4.5163
4.60685
4.659
4.67778
4.66153
4.61932
4.57502
4.55213
4.56118
4.6011
4.66383
4.73947
4.8175
4.8874
4.94451
4.99055
5.02998
5.06862
5.1116
5.15993
5.20982
5.25433
5.28673
5.29918
5.27685
5.20126
5.07553
4.95292
4.88896
4.86366
4.82746
4.76911
533.021
525.495
4.36263
4.47459
4.53602
4.56508
4.5791
4.60489
4.66039
4.74552
4.85036
4.95774
5.04688
5.10562
5.13483
5.13986
5.1259
5.0992
5.06817
5.04246
5.03038
5.03571
5.05773
5.09321
5.13759
5.1851
5.22802
5.25255
5.23618
5.15772
5.02804
4.90457
4.83061
4.7859
4.73941
532.762
525.532
4.39332
4.51016
4.59654
4.67738
4.77221
4.88718
4.99226
5.06153
5.09174
5.09129
5.07141
5.04503
5.02227
5.00691
4.99739
4.99038
4.98365
4.97738
4.97494
4.98146
5.00089
5.03384
5.07786
5.12825
5.17832
5.2179
5.23029
5.19322
5.0958
4.96765
4.86541
4.80295
4.74474
532.284
525.547
4.42785
4.56316
4.66947
4.76857
4.87259
4.96838
5.0392
5.08648
5.11787
5.14088
5.1602
5.17677
5.18899
5.19458
5.19182
5.17999
5.15967
5.13361
5.1079
5.09106
5.09083
5.11033
5.14627
5.19053
5.23324
5.26588
5.27792
5.25365
5.17906
5.06252
4.94808
4.86115
4.76767
531.436
525.521
4.41272
4.54211
4.64265
4.74186
4.83786
4.92491
4.98721
5.02204
5.03681
5.04261
5.05047
5.06744
5.09304
5.12093
5.14394
5.15727
5.1582
5.1448
5.1176
5.08373
5.05746
5.05527
5.0866
5.14676
5.21337
5.26392
5.28681
5.27463
5.22195
5.13294
5.03228
4.93221
4.8004
531.276
525.495
4.3794
4.50562
4.60269
4.69513
4.7794
4.85202
4.90679
4.94396
4.97107
4.9967
5.02687
5.06407
5.10758
5.15412
5.1986
5.2355
5.26
5.26809
5.25585
5.21837
5.15506
5.08224
5.03353
5.04131
5.11236
5.20313
5.2675
5.28398
5.2489
5.17104
5.07184
4.96003
4.80431
531.385
525.499
4.37892
4.5072
4.60813
4.70124
4.77621
4.82889
4.86305
4.88634
4.90896
4.93847
4.97707
5.02189
5.06827
5.11284
5.15442
5.19299
5.22803
5.25754
5.27782
5.28293
5.26392
5.21083
5.12636
5.04312
5.01411
5.06464
5.14711
5.20626
5.21331
5.16669
5.08345
4.9711
4.80407
531.665
525.509
4.38606
4.51639
4.61689
4.70934
4.78662
4.84304
4.88452
4.9199
4.95371
4.98794
5.02336
5.06002
5.09721
5.13341
5.16706
5.1975
5.22475
5.24877
5.26866
5.28168
5.28251
5.26297
5.21348
5.13337
5.04995
5.02017
5.06169
5.1242
5.14964
5.11903
5.04867
4.94914
4.79876
531.674
525.497
4.37279
4.50315
4.59851
4.68313
4.75725
4.81307
4.85058
4.87459
4.89144
4.90723
4.92828
4.95918
5.00005
5.04674
5.09418
5.13929
5.18098
5.21875
5.25183
5.27825
5.29418
5.2932
5.26591
5.20192
5.10156
5.00014
4.96688
5.01694
5.09151
5.11379
5.06897
4.97783
4.82398
531.33
525.486
4.34551
4.46831
4.55818
4.63413
4.6981
4.74545
4.77492
4.79418
4.81793
4.85575
4.91053
4.97725
5.04553
5.10623
5.15605
5.19607
5.22859
5.2558
5.27968
5.30122
5.31959
5.331
5.32823
5.30036
5.23269
5.11784
4.98699
4.90306
4.90698
4.95959
4.97908
4.93443
4.8098
531.888
525.481
4.33779
4.45763
4.54139
4.60492
4.653
4.68853
4.71987
4.76419
4.83229
4.91782
5.00731
5.08737
5.15113
5.19882
5.234
5.26067
5.28233
5.30164
5.32035
5.33901
5.35697
5.3724
5.38198
5.38049
5.3592
5.30584
5.21017
5.07744
4.94782
4.87526
4.85788
4.83927
4.76918
532.291
525.48
4.31353
4.41475
4.48129
4.53548
4.59105
4.659
4.74905
4.85773
4.9678
5.06197
5.13105
5.17556
5.20141
5.21535
5.22324
5.22957
5.23751
5.24891
5.26455
5.28415
5.30631
5.32883
5.34872
5.36257
5.367
5.35812
5.32936
5.26931
5.1688
5.04773
4.94846
4.88606
4.81669
531.716
525.476
4.30066
4.4001
4.4832
4.57698
4.68672
4.8071
4.92262
5.01656
5.08149
5.12032
5.14093
5.15157
5.15905
5.16818
5.18171
5.20086
5.22565
5.25539
5.28914
5.32567
5.36348
5.40092
5.43578
5.46477
5.48383
5.48715
5.46957
5.42701
5.35418
5.24771
5.12538
5.03205
4.95736
530.619
525.493
4.40357
4.55086
4.67237
4.79065
4.89285
4.97296
5.02686
5.05783
5.07332
5.08074
5.08585
5.09266
5.10353
5.11937
5.13981
5.16402
5.19098
5.21988
5.25029
5.28204
5.31541
5.35131
5.39046
5.43213
5.47244
5.50199
5.50713
5.47518
5.40154
5.29633
5.18918
5.11218
5.03188
530.674
525.532
4.50475
4.68847
4.81044
4.88008
4.91372
4.92608
4.92826
4.92782
4.92962
4.93644
4.95013
4.97184
5.00129
5.0364
5.0739
5.11052
5.14414
5.17415
5.20032
5.22204
5.24076
5.26492
5.30696
5.37076
5.44282
5.49661
5.50735
5.46462
5.3771
5.26895
5.16684
5.06062
4.90192
532.714
525.557
4.51844
4.67291
4.76389
4.81205
4.81878
4.8097
4.80508
4.80789
4.81377
4.82141
4.83433
4.85717
4.89123
4.93334
4.97844
5.02249
5.06415
5.10331
5.13702
5.16004
5.17126
5.17627
5.18408
5.20255
5.23108
5.25885
5.26958
5.24998
5.19617
5.11403
5.00885
4.87166
4.68111
533.976
525.495
4.37697
4.53122
4.62862
4.68879
4.72719
4.74932
4.7566
4.74798
4.72267
4.68544
4.65012
4.63302
4.64013
4.6665
4.70551
4.75472
4.81377
4.88076
4.95186
5.021
5.07967
5.12124
5.14495
5.15339
5.14888
5.13075
5.09731
5.04816
4.98541
4.91206
4.82307
4.70428
4.54552
533.332
525.452
4.26574
4.38286
4.47469
4.53966
4.58417
4.6131
4.62838
4.63134
4.62376
4.6086
4.58995
4.572
4.55772
4.54865
4.54549
4.54903
4.5602
4.57958
4.60814
4.64793
4.7004
4.76398
4.83503
4.90888
4.9792
5.0353
5.06334
5.05357
5.00438
4.92374
4.83056
4.72582
4.58741
532.074
525.449
4.21205
4.28113
4.33423
4.37421
4.40376
4.42474
4.43922
4.4493
4.45703
4.46398
4.47119
4.4792
4.48818
4.49801
4.50843
4.51897
4.52934
4.54037
4.5539
4.5718
4.59384
4.6191
4.64511
4.67229
4.71109
4.77693
4.86635
4.95166
5.00093
4.99459
4.9357
4.84513
4.71801
531.184
525.453
4.20463
4.27049
4.33208
4.38793
4.43604
4.47575
4.50782
4.53333
4.55326
4.56816
4.57829
4.58405
4.58661
4.58739
4.58654
4.58171
4.56868
4.54677
4.52742
4.53014
4.56509
4.62797
4.7085
4.79732
4.88708
4.97167
5.04457
5.09617
5.11298
5.08326
5.01142
4.91358
4.78241
530.286
525.446
4.2842
4.42921
4.5481
4.63295
4.68637
4.71466
4.72365
4.7179
4.70051
4.6727
4.63483
4.59026
4.5491
4.52803
4.53997
4.57941
4.62844
4.67486
4.71881
4.76688
4.82526
4.89625
4.97658
5.05996
5.14018
5.20978
5.25925
5.27845
5.25723
5.19141
5.09258
4.97113
4.81151
530.1
525.458
4.41669
4.61392
4.72372
4.7674
4.77462
4.765
4.7465
4.72017
4.68368
4.63346
4.57065
4.50726
4.46319
4.46048
4.51284
4.61174
4.72672
4.83261
4.92105
4.99325
5.05642
5.11836
5.18352
5.25062
5.31419
5.36641
5.39819
5.39936
5.36068
5.27903
5.16304
5.01574
4.8201
530.691
525.482
4.45775
4.65475
4.76827
4.81521
4.82976
4.83489
4.83657
4.83222
4.81766
4.78713
4.73453
4.66033
4.57317
4.48873
4.42877
4.41482
4.46373
4.58317
4.75832
4.95152
5.1296
5.27133
5.36906
5.42963
5.46382
5.47754
5.47104
5.44001
5.37881
5.28524
5.16282
5.00609
4.79541
530.575
525.499
4.37901
4.50655
4.58767
4.63319
4.65589
4.6821
4.72259
4.77225
4.82251
4.86684
4.89808
4.90823
4.88575
4.82475
4.73384
4.62832
4.52733
4.45604
4.44465
4.51928
4.68824
4.9208
5.15658
5.3476
5.47277
5.53125
5.53519
5.49614
5.42095
5.31524
5.18615
5.02681
4.81205
530.014
525.483
4.34344
4.4641
4.5407
4.58373
4.59423
4.57281
4.52668
4.47887
4.47455
4.54424
4.66536
4.78894
4.88517
4.94814
4.97973
4.97634
4.93105
4.84412
4.72956
4.61861
4.55686
4.58286
4.71372
4.92271
5.14483
5.32158
5.42904
5.46456
5.43615
5.35615
5.23908
5.08893
4.88779
530.605
525.49
4.35375
4.47211
4.54201
4.57715
4.58155
4.56776
4.55829
4.57413
4.61978
4.67811
4.72944
4.77023
4.80707
4.84516
4.8846
4.92092
4.94651
4.95203
4.92651
4.86163
4.76415
4.66838
4.62765
4.68498
4.84469
5.05459
5.24075
5.35937
5.40007
5.36795
5.27846
5.14354
4.95402
532.452
525.5
4.35495
4.47076
4.5376
4.57245
4.57859
4.56452
4.55063
4.55968
4.59897
4.65666
4.716
4.76785
4.81114
4.84818
4.88166
4.91246
4.93909
4.95846
4.9646
4.94826
4.8993
4.81563
4.71903
4.66037
4.69186
4.82946
5.0251
5.19902
5.29913
5.31633
5.26162
5.14035
4.94114
533.389
525.508
4.35632
4.4687
4.53425
4.57058
4.57994
4.57134
4.56707
4.58863
4.63611
4.69063
4.73642
4.77052
4.79746
4.8226
4.84952
4.87949
4.91195
4.9446
4.97316
4.99017
4.98619
4.95092
4.87938
4.78544
4.71162
4.71079
4.80462
4.95191
5.07991
5.14113
5.12806
5.03851
4.85019
532.894
525.516
4.35659
4.47045
4.53703
4.57464
4.58749
4.58383
4.58407
4.6062
4.64895
4.69424
4.73025
4.75631
4.77703
4.7974
4.82099
4.84961
4.88368
4.92252
4.96398
5.00274
5.03135
5.04117
5.02257
4.96887
4.88548
4.80116
4.76179
4.79344
4.86515
4.91912
4.92072
4.85902
4.71508
532.084
525.513
4.34909
4.46673
4.53453
4.57095
4.58439
4.58118
4.577
4.58691
4.6141
4.64628
4.6727
4.69221
4.70872
4.72681
4.75013
4.78097
4.82021
4.868
4.92338
4.98185
5.03701
5.08234
5.11099
5.11539
5.0878
5.02617
4.94472
4.87641
4.84454
4.82912
4.79545
4.72692
4.6082
531.146
525.491
4.30861
4.42162
4.49093
4.52935
4.54763
4.55158
4.55004
4.5524
4.56297
4.58159
4.60181
4.62056
4.63853
4.65814
4.68195
4.71205
4.75024
4.79877
4.85895
4.92724
4.99783
5.06474
5.12251
5.16602
5.18887
5.18301
5.14137
5.06742
4.98039
4.89786
4.81489
4.71683
4.58286
530.54
525.469
4.25457
4.34598
4.4055
4.44069
4.45921
4.46679
4.47013
4.47544
4.48655
4.50441
4.52752
4.55322
4.58058
4.61023
4.64215
4.67666
4.7158
4.76301
4.82048
4.88753
4.96057
5.03452
5.10465
5.16633
5.21441
5.24182
5.23963
5.19918
5.11851
5.00972
4.89124
4.76707
4.60882
530.321
525.458
4.19404
4.24945
4.29138
4.32341
4.34919
4.37348
4.40071
4.43332
4.47194
4.51417
4.55638
4.59789
4.63928
4.68018
4.7211
4.76396
4.81051
4.86119
4.91658
4.97674
5.04069
5.10636
5.17082
5.22981
5.27812
5.30955
5.31637
5.2895
5.22097
5.11042
4.97295
4.82892
4.65125
530.073
525.458
4.227
4.31478
4.39326
4.46114
4.51964
4.57149
4.61754
4.65954
4.6989
4.7348
4.76684
4.79557
4.82222
4.84874
4.87734
4.90997
4.94804
4.99233
5.04306
5.09945
5.15955
5.22038
5.27791
5.32879
5.3699
5.39594
5.39943
5.37173
5.30447
5.19411
5.05151
4.89644
4.70286
530.006
525.47
4.33975
4.48692
4.58562
4.64589
4.68433
4.71357
4.7389
4.76176
4.78301
4.8036
4.82465
4.84733
4.87267
4.90165
4.93521
4.97417
5.01909
5.07015
5.12666
5.18645
5.24705
5.30572
5.35919
5.40492
5.44036
5.46006
5.45639
5.42168
5.34943
5.23784
5.09693
4.93818
4.73262
530.276
525.493
4.36084
4.49666
4.58249
4.63422
4.6676
4.69137
4.71166
4.73235
4.75459
4.77828
4.80374
4.83137
4.86161
4.89502
4.93248
4.97538
5.02446
5.07887
5.13756
5.19926
5.2617
5.32145
5.37551
5.42161
5.45529
5.46944
5.45661
5.41101
5.32981
5.21563
5.0794
4.92366
4.71661
530.5
525.51
4.33326
4.43442
4.49044
4.5145
4.52291
4.53547
4.55957
4.59051
4.62208
4.65283
4.68528
4.72077
4.75855
4.79832
4.84119
4.88853
4.93986
4.99476
5.05383
5.11752
5.18479
5.25221
5.31522
5.3693
5.40929
5.42826
5.41811
5.37209
5.28832
5.17291
5.04008
4.88997
4.68929
530.804
525.504
4.29352
4.38257
4.43836
4.47432
4.49409
4.4984
4.49132
4.48156
4.47958
4.49157
4.51607
4.54743
4.58241
4.62107
4.66356
4.71232
4.7693
4.83307
4.90214
4.97421
5.04716
5.11983
5.18973
5.25253
5.30274
5.33355
5.33687
5.30465
5.23271
5.12587
5.00002
4.85742
4.66776
531.446
525.488
4.26365
4.35297
4.41524
4.45825
4.4871
4.50132
4.50181
4.49444
4.48971
4.49774
4.51972
4.54597
4.56517
4.57403
4.57391
4.56891
4.56762
4.58427
4.63092
4.70813
4.80551
4.90934
5.00914
5.09922
5.17189
5.2212
5.24097
5.22456
5.16769
5.07377
4.95824
4.82565
4.65192
531.908
525.481
4.24608
4.32803
4.38501
4.42169
4.44437
4.45674
4.46277
4.46905
4.48321
4.51029
4.54907
4.59206
4.62968
4.65563
4.66982
4.67279
4.66329
4.64062
4.61068
4.59074
4.60567
4.67046
4.77551
4.89481
5.0047
5.09089
5.14369
5.15553
5.1219
5.04538
4.94206
4.8229
4.66999
531.748
525.482
4.23622
4.30727
4.35555
4.39062
4.42024
4.44887
4.48155
4.52238
4.57107
4.6222
4.66838
4.70211
4.71896
4.72087
4.70982
4.68697
4.65537
4.62251
4.59977
4.60275
4.64397
4.7215
4.81925
4.92072
5.01547
5.09543
5.1503
5.16885
5.14273
5.07168
4.97154
4.85631
4.71133
531.656
525.482
4.23789
4.30891
4.36488
4.41708
4.46987
4.52773
4.58882
4.64599
4.69144
4.71904
4.72881
4.72396
4.70592
4.67271
4.62135
4.5636
4.52492
4.52767
4.57436
4.65146
4.74354
4.83966
4.93343
5.02168
5.10142
5.16645
5.20708
5.21326
5.17795
5.10135
4.99807
4.87748
4.72792
531.927
525.479
4.23783
4.3172
4.38967
4.46162
4.53338
4.59965
4.65436
4.69351
4.71656
4.72785
4.73037
4.72507
4.71199
4.68886
4.65252
4.60427
4.55474
4.52581
4.53896
4.59936
4.69576
4.81085
4.92896
5.0392
5.13498
5.21028
5.25653
5.26406
5.22716
5.1487
5.04318
4.9151
4.74967
531.349
525.478
4.24588
4.33937
4.42913
4.51389
4.58792
4.64655
4.68815
4.71376
4.72618
4.72907
4.72454
4.7141
4.69817
4.67578
4.6468
4.61158
4.57346
4.54402
4.54071
4.57524
4.64765
4.7487
4.86613
4.98747
5.09991
5.19229
5.25476
5.27685
5.25003
5.1763
5.07343
4.94622
4.77715
530.653
525.477
4.26135
4.37153
4.47125
4.55342
4.61591
4.66067
4.69032
4.70661
4.71097
4.70534
4.69174
4.67118
4.64463
4.61543
4.58898
4.56827
4.55195
4.54038
4.54372
4.57483
4.63873
4.72843
4.83218
4.94277
5.0555
5.16278
5.25314
5.31274
5.32689
5.28652
5.20044
5.08192
4.91393
529.869
525.475
4.26732
4.38548
4.48863
4.57797
4.6574
4.72468
4.77412
4.80167
4.80753
4.79518
4.76729
4.72387
4.66765
4.61226
4.57928
4.58719
4.64147
4.7208
4.79197
4.84713
4.89836
4.95737
5.02798
5.10791
5.1917
5.27385
5.34783
5.40238
5.42104
5.38836
5.3039
5.17751
5.00207
529.918
525.479
4.29204
4.43363
4.56422
4.68668
4.79766
4.88696
4.94615
4.97479
4.97714
4.95815
4.9192
4.85902
4.77952
4.69418
4.62952
4.61648
4.67629
4.8066
4.95923
5.08754
5.17481
5.23703
5.29572
5.36468
5.44698
5.53385
5.60939
5.65671
5.66031
5.60923
5.50612
5.35471
5.1326
531.221
525.476
4.27847
4.42252
4.57088
4.71618
4.83941
4.92461
4.96872
4.97967
4.96741
4.93736
4.89085
4.82757
4.74783
4.65611
4.56882
4.52048
4.54884
4.66576
4.84939
5.0394
5.19216
5.29559
5.36516
5.42426
5.4886
5.56033
5.62699
5.66752
5.66234
5.60267
5.49335
5.32961
5.08656
532.482
525.472
4.30665
4.48929
4.67138
4.82468
4.92511
4.9695
4.97065
4.94361
4.89855
4.84081
4.77063
4.68265
4.5687
4.42629
4.27311
4.16391
4.18072
4.36254
4.65906
4.97627
5.24205
5.42449
5.52744
5.57415
5.58959
5.59077
5.58433
5.56565
5.52199
5.44195
5.32308
5.16067
4.95391
533.588
525.48
4.36236
4.56693
4.72554
4.81987
4.85815
4.8611
4.84334
4.81221
4.77248
4.72773
4.67892
4.62287
4.5534
4.46406
4.35198
4.22842
4.13438
4.13409
4.26984
4.52503
4.83264
5.12681
5.36276
5.52053
5.60178
5.6207
5.59502
5.53807
5.4567
5.35403
5.23124
5.08657
4.92104
534.489
525.478
4.38517
4.57536
4.7016
4.78129
4.83318
4.86295
4.86943
4.8527
4.81581
4.76325
4.69782
4.61803
4.52079
4.40825
4.29003
4.18312
4.11276
4.09788
4.11945
4.18241
4.38
4.65135
4.95071
5.23278
5.45912
5.60589
5.66485
5.64655
5.56989
5.4524
5.30701
5.13759
4.93909
534.495
525.477
4.31387
4.46922
4.60761
4.72574
4.81722
4.87833
4.9111
4.9209
4.91493
4.90163
4.88727
4.87096
4.84376
4.79265
4.70512
4.57811
4.42356
4.26583
4.14705
4.13219
4.11639
4.13963
4.28621
4.50586
4.76699
5.02983
5.25838
5.41726
5.48415
5.46385
5.37215
5.21086
4.97087
533.683
525.474
4.29211
4.44325
4.58008
4.68869
4.7589
4.79028
4.78958
4.7654
4.72737
4.68784
4.66109
4.65719
4.67441
4.69972
4.71683
4.71074
4.66592
4.57145
4.43531
4.28307
4.15547
4.13536
4.12516
4.10728
4.18288
4.34044
4.54532
4.76736
4.9706
5.10202
5.13364
5.05953
4.87724
533.203
525.485
4.36579
4.5594
4.71235
4.81032
4.85494
4.85851
4.83541
4.79932
4.76199
4.73175
4.71257
4.7047
4.70668
4.71617
4.72916
4.73926
4.73796
4.7124
4.64566
4.52963
4.37653
4.21828
4.10504
4.13781
4.09768
4.10609
4.17562
4.32049
4.48415
4.64279
4.74792
4.76505
4.69004
532.308
525.504
4.41627
4.61258
4.75575
4.83909
4.87313
4.87289
4.85086
4.81569
4.77308
4.72746
4.68402
4.64965
4.6313
4.63239
4.65109
4.68101
4.7136
4.74028
4.75017
4.72442
4.64282
4.50221
4.3257
4.1695
4.12129
4.13803
4.11329
4.12935
4.27666
4.43192
4.53795
4.58049
4.556
530.728
525.514
4.42268
4.60801
4.74149
4.82196
4.8594
4.86684
4.85454
4.82902
4.7942
4.75257
4.70668
4.66036
4.61926
4.59016
4.57898
4.58963
4.62093
4.66798
4.72473
4.78135
4.81923
4.81012
4.72822
4.56846
4.35992
4.17372
4.18146
4.1426
4.13525
4.22177
4.37113
4.47178
4.49853
530.746
525.506
4.38076
4.5357
4.64607
4.71671
4.75367
4.76545
4.75935
4.74093
4.71451
4.68365
4.65165
4.62184
4.59691
4.57849
4.56682
4.56159
4.56411
4.57773
4.60872
4.66277
4.7389
4.82362
4.89112
4.90938
4.84744
4.69006
4.46331
4.24021
4.2013
4.1573
4.22845
4.37733
4.46199
532.438
525.485
4.29423
4.40725
4.48779
4.54241
4.57535
4.59126
4.59485
4.59061
4.58278
4.57521
4.57152
4.57461
4.58604
4.60565
4.63162
4.66056
4.68799
4.71035
4.72735
4.74253
4.76336
4.79794
4.84839
4.90519
4.94813
4.95113
4.88781
4.74471
4.55347
4.40282
4.35556
4.39174
4.43164
532.592
525.474
4.22991
4.31413
4.37703
4.42129
4.45021
4.46836
4.48135
4.4948
4.51304
4.53817
4.57019
4.60782
4.64903
4.69184
4.73408
4.77492
4.81482
4.85453
4.89455
4.93438
4.97248
5.00682
5.03596
5.05849
5.07106
5.06705
5.03666
4.96844
4.85459
4.71069
4.5799
4.48858
4.4309
531.006
525.475
4.20919
4.28345
4.34391
4.39474
4.44025
4.4847
4.53111
4.5807
4.63277
4.6852
4.73549
4.78157
4.82221
4.8574
4.88858
4.91849
4.94988
4.98603
5.03039
5.08431
5.14333
5.19693
5.23378
5.24649
5.23415
5.19862
5.14087
5.06004
4.95596
4.83218
4.69812
4.56829
4.45333
530.115
525.478
4.21405
4.30911
4.40859
4.50861
4.60266
4.68672
4.75947
4.82052
4.86937
4.90586
4.93101
4.947
4.95687
4.96418
4.97284
4.98662
5.0084
5.03974
5.08112
5.13216
5.1901
5.24806
5.29535
5.32116
5.3176
5.28116
5.21283
5.11711
5.00202
4.8753
4.74179
4.60626
4.4691
530.152
525.485
4.27276
4.43028
4.58477
4.71445
4.80963
4.87168
4.90663
4.92146
4.92299
4.91784
4.9111
4.90591
4.90359
4.90441
4.90854
4.91673
4.93042
4.95159
4.98241
5.02398
5.07616
5.13635
5.19749
5.24783
5.27426
5.26623
5.21913
5.136
5.0262
4.90091
4.76847
4.63267
4.48689
530.479
525.496
4.36902
4.57037
4.71664
4.80386
4.84973
4.87196
4.88322
4.89197
4.90259
4.91565
4.92938
4.94127
4.94924
4.95212
4.95
4.94437
4.93843
4.93682
4.94549
4.96966
5.01155
5.06899
5.13484
5.19578
5.23557
5.24015
5.20237
5.12397
5.01466
4.88807
4.75602
4.62432
4.48153
530.906
525.487
4.3563
4.53578
4.67251
4.77623
4.85091
4.90062
4.93145
4.94972
4.96123
4.97089
4.98185
4.99462
5.00705
5.01568
5.0174
5.01053
4.99526
4.97424
4.95354
4.94183
4.94822
4.97813
5.02975
5.09143
5.14247
5.1615
5.13624
5.06776
4.96814
4.85214
4.73143
4.60838
4.4674
531.151
525.489
4.33692
4.50686
4.647
4.75012
4.81399
4.84645
4.85824
4.85979
4.86064
4.86865
4.8887
4.92143
4.96273
5.00515
5.04081
5.06341
5.06854
5.05376
5.01938
4.97029
4.91804
4.87817
4.86666
4.89169
4.94362
4.99413
5.01083
4.97705
4.90139
4.80202
4.6945
4.58125
4.44643
531.226
525.488
4.28709
4.41535
4.52562
4.61655
4.68278
4.72428
4.74507
4.75099
4.74892
4.74726
4.75598
4.78386
4.83385
4.90113
4.97625
5.04928
5.11116
5.15372
5.16991
5.15423
5.10328
5.01915
4.91629
4.82245
4.76857
4.77126
4.81196
4.84633
4.83774
4.78155
4.69445
4.58845
4.45525
531.226
525.485
4.2649
4.37552
4.46913
4.54553
4.60008
4.63268
4.64813
4.6544
4.66124
4.67799
4.71005
4.75632
4.811
4.8683
4.92573
4.98355
5.04243
5.1013
5.15615
5.19974
5.22307
5.21636
5.16852
5.06768
4.92088
4.7721
4.67612
4.65764
4.68449
4.69301
4.65687
4.58267
4.469
531.056
525.493
4.27282
4.37763
4.46352
4.5346
4.58663
4.61989
4.63975
4.65564
4.67885
4.71813
4.77471
4.84148
4.90826
4.96817
5.01926
5.06236
5.09883
5.12985
5.15627
5.17799
5.19361
5.19964
5.19052
5.15759
5.08659
4.96453
4.80795
4.67173
4.60943
4.60103
4.58684
4.5412
4.45802
531.188
525.493
4.25841
4.35467
4.42941
4.49033
4.53694
4.56675
4.58193
4.5891
4.59846
4.62036
4.65989
4.7145
4.77757
4.8433
4.90862
4.97269
5.03519
5.09494
5.14954
5.19541
5.2287
5.24555
5.24215
5.21457
5.15812
5.0661
4.93392
4.77514
4.63848
4.56942
4.53848
4.50238
4.43834
531.432
525.496
4.25895
4.35122
4.41804
4.46699
4.49794
4.51144
4.51629
4.52648
4.55716
4.61466
4.69092
4.76959
4.83792
4.89292
4.93855
4.98012
5.02173
5.06566
5.11233
5.15976
5.20342
5.23724
5.25455
5.24907
5.21453
5.14347
5.0288
4.87476
4.71138
4.59093
4.52278
4.4751
4.41279
531.437
525.502
4.2552
4.34007
4.39779
4.43585
4.45544
4.46028
4.46735
4.4949
4.55113
4.62856
4.7096
4.78051
4.83855
4.88777
4.933
4.97755
5.02326
5.07076
5.11984
5.16943
5.2173
5.25995
5.29209
5.307
5.29734
5.25553
5.1735
5.0452
4.87967
4.71613
4.5913
4.50045
4.40973
530.853
525.501
4.23851
4.31313
4.36207
4.39186
4.40473
4.40794
4.42207
4.46263
4.52829
4.60534
4.6786
4.74005
4.78908
4.82903
4.86416