/*--------------------------------*- C++ -*----------------------------------*\
| =========                 |                                                 |
| \\      /  F ield         | OpenFOAM: The Open Source CFD Toolbox           |
|  \\    /   O peration     | Version:  v1906                                 |
|   \\  /    A nd           | Web:      www.OpenFOAM.com                      |
|    \\/     M anipulation  |                                                 |
\*---------------------------------------------------------------------------*/
FoamFile
{
    version     2.0;
    format      ascii;
    class       volVectorField;
    location    "18";
    object      U;
}
// * * * * * * * * * * * * * * * * * * * * * * * * * * * * * * * * * * * * * //

dimensions      [0 1 -1 0 0 0 0];


internalField   nonuniform List<vector> 
78750
(
(-0.0370656 -0.0135833 0.0104982)
(-0.0329237 -0.0191306 0.0162686)
(-0.0309048 -0.0181356 0.0140105)
(-0.0305067 -0.0167532 0.0146786)
(-0.0293502 -0.0153256 0.0151359)
(-0.0283664 -0.0142935 0.0154768)
(-0.0272585 -0.013611 0.0157197)
(-0.026141 -0.0132541 0.0159168)
(-0.024999 -0.0132009 0.0161089)
(-0.0238333 -0.0134853 0.0163005)
(-0.022624 -0.0141303 0.0164348)
(-0.0212894 -0.0151068 0.0165264)
(-0.0197572 -0.0163599 0.0165562)
(-0.0179552 -0.0177821 0.0165381)
(-0.0158314 -0.0192248 0.0165151)
(-0.0133804 -0.0205612 0.0165191)
(-0.0106349 -0.021708 0.0165656)
(-0.00765035 -0.0226157 0.0166598)
(-0.00449425 -0.0232557 0.0168023)
(-0.0012395 -0.0236107 0.0169928)
(0.00203924 -0.0236693 0.0172308)
(0.00526469 -0.0234227 0.0175172)
(0.00835721 -0.0228619 0.0178543)
(0.0112363 -0.0219767 0.0182453)
(0.0138187 -0.0207534 0.0186951)
(0.0160173 -0.0191766 0.0192105)
(0.0177414 -0.0172264 0.0198009)
(0.0188946 -0.0148784 0.0204788)
(0.0193724 -0.0121025 0.0212583)
(0.0190581 -0.00886115 0.0221486)
(0.0178038 -0.00511026 0.0231204)
(0.0154319 -0.000835384 0.0240038)
(0.0116792 0.00401414 0.0241473)
(0.00661756 0.00867828 0.0214295)
(0.00157238 0.00833712 0.0111821)
(-0.00330972 0.020463 0.00257442)
(-0.00880054 -0.00150474 -0.00680988)
(-0.0147614 -0.0138107 -0.013734)
(-0.019532 -0.0174897 -0.0164325)
(-0.0232839 -0.0177566 -0.0165883)
(-0.0261701 -0.0175839 -0.015611)
(-0.02817 -0.0179712 -0.0141935)
(-0.0293123 -0.0187591 -0.012562)
(-0.029718 -0.0196069 -0.0107655)
(-0.0294683 -0.0204029 -0.00883014)
(-0.0286847 -0.021495 -0.00690836)
(-0.0273748 -0.0230796 -0.00511217)
(-0.02554 -0.0253498 -0.00353776)
(-0.0233455 -0.028357 -0.00230046)
(-0.020866 -0.0317198 -0.00137233)
(-0.018111 -0.0349856 -0.000642627)
(-0.0151285 -0.0378581 -1.90192e-05)
(-0.0119852 -0.0401765 0.000559576)
(-0.00875147 -0.0418588 0.00113409)
(-0.00549368 -0.0428663 0.00173202)
(-0.00227465 -0.0431796 0.00237397)
(0.000846555 -0.0427884 0.00307795)
(0.00381369 -0.0416842 0.00386229)
(0.00657129 -0.039859 0.00474633)
(0.00905363 -0.0373075 0.00575151)
(0.0111929 -0.0340104 0.00689996)
(0.0129286 -0.0299407 0.00822543)
(0.0141949 -0.0250369 0.00978003)
(0.0149099 -0.0191624 0.0116459)
(0.0149512 -0.012055 0.0139388)
(0.0141098 -0.00329876 0.0167663)
(0.0120295 0.00744357 0.0199594)
(0.00845295 0.0191293 0.0221385)
(0.00430511 0.0272167 0.0205157)
(0.000747523 0.021707 0.0111201)
(9.38024e-05 0.0474203 -1.40234e-05)
(-0.00220425 0.062463 -0.00454026)
(-0.00597339 0.0604317 -0.00723376)
(-0.00973217 0.0539357 -0.0076901)
(-0.0130336 0.045544 -0.00659685)
(-0.0157211 0.0361343 -0.00503006)
(-0.0179549 0.026072 -0.00358849)
(-0.0198861 0.0156121 -0.00238385)
(-0.0215048 0.00510461 -0.00135772)
(-0.0226662 -0.00491274 -0.000374503)
(-0.0232339 -0.0143753 0.000561133)
(-0.0231716 -0.0233337 0.00139944)
(-0.0224591 -0.0317183 0.00206212)
(-0.0211395 -0.039367 0.00250499)
(-0.0193049 -0.0461017 0.00273928)
(-0.0170717 -0.0517753 0.00282162)
(-0.0145579 -0.0562931 0.00282753)
(-0.0118734 -0.0596204 0.00282823)
(-0.00911458 -0.0617736 0.00287807)
(-0.00636321 -0.0627978 0.00300965)
(-0.00368611 -0.0627445 0.00323685)
(-0.0011381 -0.0616576 0.00356417)
(0.00122844 -0.0595685 0.00399486)
(0.00336177 -0.0565001 0.00453735)
(0.00521425 -0.0524568 0.00520692)
(0.0067395 -0.0474335 0.00603673)
(0.00789795 -0.0413941 0.00708594)
(0.00865788 -0.0342146 0.00844897)
(0.00899081 -0.0255708 0.0102634)
(0.00886235 -0.0147901 0.0126982)
(0.00819232 -0.000899189 0.0157929)
(0.00678575 0.0160933 0.0188864)
(0.00453386 0.0318594 0.0200715)
(0.00217686 0.0385993 0.0175388)
(0.000386867 0.0268094 0.00908971)
(0.000101905 0.0426941 -0.00139284)
(1.26118e-05 0.0604662 -0.00572078)
(-0.000198036 0.0587221 -0.00807246)
(-0.000275387 0.053678 -0.00917627)
(-0.000487511 0.0468363 -0.00951409)
(-0.000923566 0.0388423 -0.0093319)
(-0.00153862 0.0305687 -0.00870114)
(-0.00227866 0.0225793 -0.00753836)
(-0.00305336 0.0148826 -0.00573208)
(-0.00374801 0.00688365 -0.00329118)
(-0.00423718 -0.00228023 -0.000481897)
(-0.00450946 -0.0131539 0.00213323)
(-0.00439128 -0.0251491 0.00394715)
(-0.00384837 -0.0370536 0.0047294)
(-0.00293665 -0.0478155 0.00465937)
(-0.00173559 -0.0568239 0.00408404)
(-0.000327746 -0.0638298 0.0033278)
(0.0012058 -0.0688374 0.00261327)
(0.00280163 -0.0720133 0.0020543)
(0.00441637 -0.0735626 0.00168873)
(0.00600463 -0.0736411 0.00151725)
(0.00751128 -0.0723455 0.00152885)
(0.00888034 -0.0697318 0.001708)
(0.0100542 -0.0658353 0.00203551)
(0.0109685 -0.0606945 0.00249275)
(0.0115574 -0.0543776 0.00307677)
(0.0117645 -0.046994 0.00383316)
(0.0115531 -0.0386357 0.00488444)
(0.0109158 -0.029215 0.00644429)
(0.0098658 -0.0182387 0.00881382)
(0.0084118 -0.00467356 0.0122095)
(0.00650671 0.0120966 0.0160084)
(0.00414167 0.0285919 0.0179145)
(0.00203137 0.0362353 0.0159121)
(0.000479984 0.0262327 0.00844433)
(0.00049056 0.0386843 -0.00140379)
(0.00142517 0.0616118 -0.00523686)
(0.00182825 0.062728 -0.00712366)
(0.00199857 0.0598502 -0.00782109)
(0.00201543 0.0550898 -0.00766751)
(0.00179773 0.0487088 -0.00666611)
(0.00138852 0.0409739 -0.00482312)
(0.000858691 0.0320376 -0.00220308)
(0.000332279 0.0218704 0.00108473)
(6.77492e-06 0.0101145 0.00477514)
(7.59712e-05 -0.00351435 0.00823611)
(0.000659702 -0.0184042 0.0106277)
(0.00166571 -0.0331456 0.011509)
(0.00286575 -0.0464089 0.0110656)
(0.00411464 -0.057464 0.00981455)
(0.00533868 -0.0661181 0.00826537)
(0.00650324 -0.0724503 0.00677213)
(0.00759758 -0.07666 0.00551604)
(0.00863207 -0.079011 0.00454282)
(0.00962116 -0.0797284 0.00383011)
(0.0105616 -0.0789287 0.00334484)
(0.0114289 -0.0766345 0.00305719)
(0.0121862 -0.072813 0.00292888)
(0.0127838 -0.067408 0.00290175)
(0.0131574 -0.0603974 0.00290464)
(0.0132391 -0.0518759 0.00289452)
(0.0129819 -0.0420831 0.00292345)
(0.0123655 -0.0313005 0.00318198)
(0.0114014 -0.0196166 0.00398926)
(0.0101086 -0.00666063 0.00576823)
(0.00848502 0.00840508 0.00887924)
(0.00645469 0.0255497 0.0128168)
(0.00412921 0.0403509 0.0151998)
(0.002004 0.0452738 0.0138367)
(0.000401596 0.0299863 0.00711953)
(0.000252482 0.0319933 -0.000512884)
(0.00140197 0.0570687 -0.00332846)
(0.00217468 0.0608697 -0.0047994)
(0.00268457 0.059365 -0.00528618)
(0.00304295 0.0554425 -0.00514109)
(0.00310914 0.049413 -0.00435438)
(0.00296663 0.0421039 -0.00272029)
(0.00292744 0.0337875 0.000130549)
(0.00334631 0.0233502 0.00422725)
(0.00441286 0.009573 0.0086432)
(0.00606932 -0.0070727 0.0118749)
(0.00800508 -0.024423 0.0130121)
(0.00986754 -0.0403696 0.0122642)
(0.0114882 -0.0537356 0.0104154)
(0.0128346 -0.0642544 0.00823159)
(0.0139416 -0.0721564 0.00620202)
(0.0148664 -0.0778001 0.00453891)
(0.0156634 -0.0814954 0.00327059)
(0.0163737 -0.0834779 0.00233789)
(0.0170222 -0.0839144 0.00166922)
(0.0176116 -0.0828804 0.00121672)
(0.0181186 -0.080337 0.000948228)
(0.0184918 -0.0761267 0.000813599)
(0.0186486 -0.0700244 0.000709311)
(0.0184819 -0.0619041 0.000473694)
(0.0178971 -0.0519514 -2.65565e-05)
(0.0168664 -0.0406903 -0.000732981)
(0.0154497 -0.028742 -0.00132569)
(0.0137634 -0.016502 -0.00131096)
(0.0118856 -0.00382218 -0.000131932)
(0.00978165 0.010298 0.00271908)
(0.00734885 0.0267894 0.00708022)
(0.0046394 0.0422937 0.0107149)
(0.00226945 0.0480733 0.0107665)
(0.000491223 0.0329101 0.00576723)
(-0.000125266 0.0271435 0.00151588)
(-0.000222154 0.0494189 0.000274095)
(-0.000510542 0.0542791 -0.000861481)
(-0.000925762 0.0544379 -0.00106116)
(-0.00135498 0.053166 -0.000136603)
(-0.00158499 0.0498986 0.00257186)
(-0.00116988 0.0418896 0.00745448)
(0.000204922 0.0272726 0.0129654)
(0.00235093 0.0077921 0.0167292)
(0.00481833 -0.0131103 0.017673)
(0.00709288 -0.0325145 0.0161239)
(0.00883401 -0.0485952 0.0131315)
(0.0100138 -0.0608813 0.00986571)
(0.0107612 -0.0698521 0.00708827)
(0.0112374 -0.0763082 0.00504529)
(0.0115767 -0.0809421 0.00366904)
(0.0118661 -0.0841764 0.00279802)
(0.0121519 -0.0861759 0.00228399)
(0.0124494 -0.0869341 0.00201646)
(0.0127555 -0.0863655 0.00192318)
(0.0130598 -0.0843446 0.00196863)
(0.0133357 -0.0806214 0.00213116)
(0.013526 -0.0747133 0.00233247)
(0.0135363 -0.0660124 0.00233004)
(0.0132475 -0.0542945 0.00169352)
(0.0125561 -0.0402091 9.27621e-05)
(0.0114416 -0.0251048 -0.00225183)
(0.010006 -0.0102089 -0.00454653)
(0.00837961 0.00401168 -0.00586223)
(0.00664312 0.0178881 -0.00544724)
(0.00480193 0.0322328 -0.0028748)
(0.00283949 0.0467936 0.00133179)
(0.00125721 0.0571188 0.00470001)
(0.000150171 0.0580049 0.00543933)
(-0.000263262 0.0355645 0.00254891)
(-0.000352944 0.0298085 0.00370033)
(-0.00192832 0.0541997 0.00542331)
(-0.00370905 0.0599768 0.00629873)
(-0.00534 0.0588201 0.00828627)
(-0.00662181 0.0516967 0.0119544)
(-0.00674249 0.0365655 0.0159068)
(-0.00560679 0.0158128 0.0174066)
(-0.00395006 -0.00558136 0.0156215)
(-0.00242963 -0.0238496 0.011699)
(-0.00135411 -0.0376754 0.00745125)
(-0.0007132 -0.0477395 0.00414741)
(-0.000359553 -0.0554751 0.00210131)
(-0.000141114 -0.0620767 0.00104653)
(4.33334e-05 -0.0681477 0.000585244)
(0.0002368 -0.0737592 0.000405796)
(0.000448273 -0.078688 0.000345894)
(0.000677488 -0.0826606 0.000368057)
(0.000913118 -0.085452 0.000494972)
(0.00115059 -0.0868894 0.00075304)
(0.00139024 -0.0868314 0.00114961)
(0.0016329 -0.085106 0.00168251)
(0.00188019 -0.081337 0.00234599)
(0.00213156 -0.0747395 0.00304449)
(0.00237931 -0.0643836 0.00337182)
(0.00259615 -0.050142 0.00256185)
(0.00266865 -0.0333443 6.17471e-05)
(0.00240853 -0.0163223 -0.00360628)
(0.00175035 -0.000694492 -0.00687651)
(0.000886588 0.0137187 -0.00837387)
(4.0162e-05 0.0278242 -0.00773992)
(-0.000688031 0.0416148 -0.00532637)
(-0.00111599 0.0528662 -0.00222995)
(-0.00118408 0.0578392 -0.00022997)
(-0.000929272 0.0556423 0.000677997)
(-0.000254346 0.0313054 0.0002407)
(-0.00022131 0.0334057 0.00527983)
(-0.00177546 0.0605034 0.0101195)
(-0.00359266 0.0651917 0.0126771)
(-0.00513789 0.059538 0.0150189)
(-0.00613014 0.0444649 0.0165453)
(-0.00614061 0.0239557 0.0150044)
(-0.00595092 0.00457062 0.0108832)
(-0.00605708 -0.0108082 0.00663642)
(-0.00642774 -0.0231862 0.00373218)
(-0.00688385 -0.0344182 0.00219158)
(-0.00725018 -0.0453859 0.00147521)
(-0.00740326 -0.0558297 0.00106563)
(-0.00732435 -0.0650668 0.000687978)
(-0.00707249 -0.0726455 0.000293237)
(-0.00672998 -0.078509 -5.89974e-05)
(-0.00637143 -0.0828426 -0.000296659)
(-0.0060468 -0.0858851 -0.000369232)
(-0.0057793 -0.0878114 -0.000245453)
(-0.00557112 -0.0886898 9.59187e-05)
(-0.00540985 -0.0884729 0.000672704)
(-0.005273 -0.0869839 0.0015097)
(-0.00512488 -0.08385 0.00265603)
(-0.00490203 -0.0783554 0.00415963)
(-0.00449837 -0.0693851 0.00586937)
(-0.00378897 -0.0558559 0.00710774)
(-0.00277246 -0.0377643 0.00671581)
(-0.00170452 -0.0171236 0.0039323)
(-0.000989639 0.0026243 -0.000397529)
(-0.000901169 0.0191731 -0.00403566)
(-0.00124717 0.0326943 -0.00544253)
(-0.00155251 0.0438538 -0.00477232)
(-0.00146956 0.0514754 -0.00325297)
(-0.00116298 0.0540371 -0.0020266)
(-0.000645139 0.0502506 -0.00100908)
(-3.47812e-05 0.0273127 -0.000187132)
(-0.000180661 0.0357809 0.00559207)
(-0.00157077 0.0651467 0.0119364)
(-0.00332473 0.0685381 0.0144842)
(-0.00488804 0.0592429 0.0147907)
(-0.00614886 0.0405133 0.0121438)
(-0.00692349 0.0204706 0.00715925)
(-0.00767341 0.00378168 0.00243521)
(-0.0083803 -0.00977633 -0.000692511)
(-0.00896204 -0.0216518 -0.00239246)
(-0.00939764 -0.0326997 -0.00314472)
(-0.00969548 -0.043147 -0.00331188)
(-0.00986848 -0.0528984 -0.00316515)
(-0.00992205 -0.0617127 -0.00292138)
(-0.0098603 -0.0693157 -0.00271561)
(-0.00970219 -0.0755358 -0.00258179)
(-0.00947774 -0.0803617 -0.00248848)
(-0.00921778 -0.0838875 -0.0023874)
(-0.00894848 -0.0862327 -0.00223649)
(-0.00869022 -0.087494 -0.00200017)
(-0.00845714 -0.0877231 -0.00164084)
(-0.00825342 -0.0869075 -0.00110763)
(-0.00806378 -0.0849311 -0.000319832)
(-0.00784078 -0.0814803 0.000856443)
(-0.00748998 -0.0758567 0.00260152)
(-0.00684403 -0.0668068 0.00497376)
(-0.00570019 -0.0528391 0.0074739)
(-0.00399564 -0.0334153 0.00881862)
(-0.0020154 -0.0103397 0.00772157)
(-0.000340212 0.012291 0.004315)
(0.000544145 0.0304632 0.00052217)
(0.000682336 0.042539 -0.00162609)
(0.000528375 0.0489013 -0.00195031)
(0.000382134 0.0507111 -0.00146995)
(0.000268794 0.0469237 -0.000603031)
(0.000110816 0.0261126 0.000307615)
(3.40003e-05 0.0364222 0.00450552)
(-0.000646358 0.06744 0.0105838)
(-0.0017829 0.0706874 0.0123945)
(-0.00305494 0.0605381 0.0110214)
(-0.00444524 0.0415587 0.00643958)
(-0.00564276 0.0229159 0.00103265)
(-0.00677459 0.00763839 -0.00299452)
(-0.00780065 -0.00519639 -0.00520798)
(-0.00873459 -0.0170257 -0.0059811)
(-0.00958763 -0.0287169 -0.00574276)
(-0.0103141 -0.0404649 -0.00491233)
(-0.0108304 -0.0518851 -0.00393889)
(-0.0110795 -0.0622688 -0.00318652)
(-0.0110712 -0.0709751 -0.00278565)
(-0.0108684 -0.0777461 -0.00264747)
(-0.0105447 -0.0827078 -0.00261727)
(-0.0101562 -0.0861415 -0.00258235)
(-0.00973823 -0.088293 -0.00248577)
(-0.00931121 -0.0893151 -0.00230493)
(-0.00888764 -0.0892823 -0.00203221)
(-0.00847624 -0.0882177 -0.00166272)
(-0.00808217 -0.0861095 -0.00118359)
(-0.00770025 -0.0829062 -0.000556452)
(-0.00730098 -0.0784531 0.000314973)
(-0.00680974 -0.0722997 0.00162352)
(-0.00608059 -0.0634029 0.00362433)
(-0.00489919 -0.0500656 0.00631621)
(-0.0031272 -0.0308927 0.00887087)
(-0.000947617 -0.00676117 0.00976325)
(0.00102015 0.018119 0.00815444)
(0.002086 0.0380483 0.00511743)
(0.00204882 0.0495005 0.00270318)
(0.00153343 0.0529664 0.00177071)
(0.000829886 0.0492462 0.00166477)
(0.000132918 0.0276836 0.00136264)
(0.000172106 0.0342006 0.002678)
(0.000287973 0.0660444 0.00719478)
(-5.57411e-06 0.070993 0.00818445)
(-0.000631651 0.0647905 0.0065133)
(-0.00161535 0.0496748 0.00177342)
(-0.00258885 0.0333535 -0.00353689)
(-0.00345034 0.019182 -0.00744231)
(-0.00417265 0.00696364 -0.00949832)
(-0.00480614 -0.0044554 -0.00993488)
(-0.00539241 -0.0161421 -0.0090766)
(-0.00592246 -0.028682 -0.00734794)
(-0.00633435 -0.0418433 -0.00540399)
(-0.00657428 -0.0545839 -0.00392761)
(-0.00664006 -0.0656571 -0.00321425)
(-0.00656793 -0.0743626 -0.00309853)
(-0.00640395 -0.0807359 -0.00326143)
(-0.00618773 -0.0851947 -0.00347395)
(-0.00594624 -0.0881561 -0.00362398)
(-0.00569552 -0.0898941 -0.00366168)
(-0.0054448 -0.0905519 -0.00355997)
(-0.00519893 -0.0901807 -0.00330001)
(-0.00495955 -0.0887602 -0.00286791)
(-0.00472589 -0.0862046 -0.00225452)
(-0.0044938 -0.0823686 -0.00145243)
(-0.00425205 -0.0770444 -0.00043775)
(-0.00396675 -0.069864 0.000880419)
(-0.00354611 -0.0600262 0.00271547)
(-0.00282371 -0.0460208 0.00528411)
(-0.00162103 -0.0261655 0.00825036)
(-1.822e-05 -0.000850207 0.0102699)
(0.00140894 0.0252563 0.0100216)
(0.00190869 0.045037 0.00802579)
(0.00155552 0.0538012 0.00616682)
(0.000802835 0.0515794 0.00479384)
(0.000123094 0.0291689 0.00262097)
(0.000156863 0.0308334 0.00123062)
(0.000751492 0.0620409 0.00388786)
(0.000998215 0.068529 0.00426596)
(0.000975038 0.0648918 0.00274902)
(0.000681621 0.0530537 -0.0011229)
(0.00011728 0.0380089 -0.00552447)
(-0.000486501 0.0237105 -0.00864818)
(-0.00101459 0.0108876 -0.00996062)
(-0.00146159 -0.00122877 -0.00959232)
(-0.0018524 -0.0137169 -0.00785146)
(-0.00216759 -0.0272466 -0.00529483)
(-0.00235258 -0.0414961 -0.00285654)
(-0.00240686 -0.0551163 -0.0013926)
(-0.00237851 -0.066609 -0.00106975)
(-0.0023022 -0.0752739 -0.00146366)
(-0.00219278 -0.0813085 -0.00209356)
(-0.00206088 -0.0852971 -0.00269868)
(-0.00191583 -0.0877538 -0.00319191)
(-0.00176548 -0.0889981 -0.00355312)
(-0.00161701 -0.0892081 -0.00377725)
(-0.00147723 -0.0884839 -0.0038592)
(-0.00135254 -0.086875 -0.00378854)
(-0.0012484 -0.084378 -0.00354551)
(-0.00116844 -0.0809147 -0.00309759)
(-0.00111452 -0.076298 -0.00239737)
(-0.00108773 -0.0701959 -0.0013786)
(-0.00107594 -0.0620614 6.39157e-05)
(-0.00102596 -0.0509605 0.00211422)
(-0.000805953 -0.0353809 0.00497399)
(-0.000235537 -0.0138089 0.00838588)
(0.00062155 0.0126216 0.0110253)
(0.00123318 0.0374565 0.0114601)
(0.00117841 0.0518684 0.0101087)
(0.000660409 0.0520436 0.00787616)
(0.000151529 0.0297552 0.00386211)
(0.000214593 0.0262013 0.000242057)
(0.00137219 0.0551929 0.00106773)
(0.00242167 0.0640235 0.000944978)
(0.00318516 0.0630668 -0.000191818)
(0.00371447 0.0561197 -0.00248966)
(0.00385659 0.0447827 -0.00535894)
(0.00362696 0.0320077 -0.00756954)
(0.00321343 0.0192801 -0.00842488)
(0.0027577 0.00657984 -0.00769261)
(0.00241831 -0.00696526 -0.00552823)
(0.00236199 -0.0220092 -0.0027399)
(0.00257942 -0.0378544 -0.000624371)
(0.0028843 -0.0526372 4.64388e-05)
(0.00311738 -0.0647679 -0.000490063)
(0.00324299 -0.0737877 -0.00154731)
(0.00329254 -0.0801001 -0.00261372)
(0.00330334 -0.0843612 -0.00348808)
(0.00329926 -0.0871006 -0.00414021)
(0.00329206 -0.0886402 -0.0045878)
(0.00328551 -0.0891478 -0.00485322)
(0.00327794 -0.0886953 -0.00495635)
(0.00326312 -0.0872899 -0.0049136)
(0.00323058 -0.0848873 -0.00473602)
(0.00316599 -0.081397 -0.0044253)
(0.00305163 -0.0766838 -0.00396649)
(0.00286771 -0.070558 -0.00331556)
(0.00259998 -0.0627327 -0.00237794)
(0.00224361 -0.0527061 -0.000973731)
(0.00183101 -0.0394884 0.00120054)
(0.00147577 -0.0215629 0.00442893)
(0.00134496 0.0018993 0.00833256)
(0.00137645 0.027496 0.0112708)
(0.00119758 0.0459408 0.0117281)
(0.000719473 0.0494912 0.00973428)
(0.000220517 0.0296051 0.00469674)
(1.29739e-05 0.0218712 0.000492565)
(0.000773245 0.0470236 0.000578433)
(0.00181327 0.056313 0.000102281)
(0.00270084 0.0568498 -0.000777061)
(0.00340693 0.0527315 -0.0020714)
(0.00383745 0.0445996 -0.00356403)
(0.00388167 0.0342049 -0.00440269)
(0.00382333 0.0225156 -0.00384522)
(0.00400866 0.00891869 -0.00174026)
(0.00466287 -0.00735184 0.00107147)
(0.00568437 -0.0253462 0.00304073)
(0.00670824 -0.042524 0.00322346)
(0.00743937 -0.056652 0.0019359)
(0.0078069 -0.0670176 8.51614e-05)
(0.00790052 -0.0741371 -0.00164797)
(0.00784265 -0.078909 -0.00302243)
(0.00772 -0.082053 -0.00404835)
(0.0075814 -0.0839958 -0.00479926)
(0.00744997 -0.0849563 -0.00534052)
(0.00733284 -0.0850393 -0.00571783)
(0.00722817 -0.0842866 -0.00595896)
(0.00712934 -0.082697 -0.00607671)
(0.00702628 -0.0802265 -0.00607149)
(0.00690447 -0.0767748 -0.00593351)
(0.00674155 -0.0721652 -0.00564371)
(0.00650315 -0.0661345 -0.00517209)
(0.00614447 -0.0583558 -0.00446812)
(0.00562161 -0.0484617 -0.00343141)
(0.00490511 -0.0359544 -0.00185274)
(0.00400914 -0.0199623 0.000627261)
(0.00304703 0.000417347 0.00422043)
(0.00217877 0.0237096 0.00808024)
(0.00143037 0.042484 0.0101295)
(0.000752605 0.0475759 0.00915574)
(0.000214776 0.0298214 0.00451728)
(-0.000145142 0.0204931 0.00131697)
(-0.000212547 0.0424478 0.00169879)
(-2.95742e-05 0.0503451 0.00121964)
(0.00017059 0.0511553 0.00066508)
(0.000332026 0.0484652 0.000270435)
(0.000454608 0.0421421 0.000441996)
(0.000712009 0.0316578 0.00175113)
(0.00144635 0.0165676 0.00392772)
(0.00274544 -0.00231928 0.00561479)
(0.00429926 -0.0222554 0.00551468)
(0.00563889 -0.0399208 0.00351919)
(0.00649044 -0.0533989 0.000637628)
(0.00687875 -0.0627858 -0.00202216)
(0.00697828 -0.0692824 -0.0039897)
(0.00694642 -0.0740133 -0.00530515)
(0.00689138 -0.0776163 -0.00615363)
(0.00686764 -0.0803435 -0.00669486)
(0.00689146 -0.0822575 -0.00703646)
(0.00695819 -0.0833567 -0.00724456)
(0.00705617 -0.0836227 -0.00735704)
(0.00717258 -0.0830265 -0.00739361)
(0.007294 -0.0815189 -0.00736232)
(0.00740527 -0.0790134 -0.00726304)
(0.00748723 -0.0753641 -0.00708874)
(0.00751361 -0.0703495 -0.00682546)
(0.00744699 -0.0636781 -0.00645079)
(0.0072384 -0.0550434 -0.00592679)
(0.00683233 -0.0441806 -0.0051779)
(0.00617939 -0.0308354 -0.00404315)
(0.00525176 -0.0146488 -0.00222809)
(0.00407413 0.00467608 0.000572131)
(0.0027695 0.0258212 0.00402955)
(0.00159482 0.0427635 0.00649347)
(0.000707448 0.0473808 0.00644034)
(0.000143622 0.0301797 0.00323285)
(-0.00016989 0.0219572 0.00217768)
(-0.000825603 0.0439653 0.00366418)
(-0.00147734 0.0512484 0.00392441)
(-0.00197681 0.0515513 0.00411795)
(-0.00228185 0.0474787 0.00473909)
(-0.00213017 0.0373587 0.00587577)
(-0.00120844 0.0210521 0.00670711)
(0.000295572 0.00123742 0.00606034)
(0.00188446 -0.0180294 0.00365021)
(0.00312294 -0.0337338 0.00039342)
(0.00389163 -0.0452893 -0.00251249)
(0.00432172 -0.053815 -0.00453471)
(0.00459359 -0.0605895 -0.00578558)
(0.00483362 -0.066304 -0.0065547)
(0.00509725 -0.0711333 -0.00706323)
(0.00539272 -0.0750397 -0.00743315)
(0.00570548 -0.0779789 -0.00771912)
(0.00601988 -0.0799552 -0.00794231)
(0.00632544 -0.0810001 -0.00811047)
(0.00661532 -0.0811419 -0.0082262)
(0.00688389 -0.0803861 -0.00828896)
(0.00712502 -0.0787025 -0.00829489)
(0.00733024 -0.0760081 -0.00823605)
(0.007486 -0.0721394 -0.00809994)
(0.00756943 -0.0668264 -0.00787023)
(0.00754331 -0.0596991 -0.00752859)
(0.00735582 -0.0503754 -0.00705519)
(0.00694914 -0.0385778 -0.00641179)
(0.00627652 -0.0241739 -0.00549204)
(0.00532186 -0.00714046 -0.0040728)
(0.0041162 0.0122056 -0.00190964)
(0.00274658 0.0320005 0.000810387)
(0.001514 0.0466172 0.00291826)
(0.00058859 0.0496889 0.00331957)
(5.57596e-05 0.0308807 0.00161314)
(-0.000149736 0.0240793 0.00276834)
(-0.00100725 0.0473731 0.00548737)
(-0.00195974 0.0536092 0.00652316)
(-0.00271844 0.0516205 0.00705521)
(-0.00313281 0.0426346 0.00737778)
(-0.00281138 0.0264681 0.00675755)
(-0.00191401 0.00670159 0.00450942)
(-0.000975209 -0.0120599 0.00111553)
(-0.000306504 -0.0272831 -0.002185)
(9.98845e-05 -0.0391029 -0.00462406)
(0.000381198 -0.048643 -0.00621303)
(0.000662521 -0.0566627 -0.00724992)
(0.000999006 -0.0634037 -0.00797219)
(0.0013848 -0.0689122 -0.00849742)
(0.00179367 -0.0732589 -0.00887183)
(0.00220789 -0.0765615 -0.00911835)
(0.00261939 -0.0789318 -0.00925684)
(0.00302538 -0.080442 -0.00930791)
(0.00342442 -0.0811225 -0.00929091)
(0.00381427 -0.0809704 -0.00922111)
(0.0041911 -0.0799523 -0.00910773)
(0.0045489 -0.0779962 -0.00895298)
(0.00487869 -0.0749675 -0.00875173)
(0.00516673 -0.0706286 -0.00849256)
(0.00539017 -0.0646093 -0.00816279)
(0.00551187 -0.0564443 -0.00775908)
(0.00547916 -0.0457286 -0.00729693)
(0.00523147 -0.0323041 -0.00678932)
(0.00471909 -0.0163394 -0.00617004)
(0.00393438 0.00172757 -0.005223)
(0.00293912 0.0210422 -0.00369461)
(0.0018402 0.0393447 -0.00169618)
(0.000932438 0.0513091 -7.75108e-05)
(0.000288987 0.052376 0.000565264)
(-3.20547e-05 0.0313734 0.000201445)
(-8.35007e-05 0.0256483 0.00277143)
(-0.000800868 0.0502491 0.0060815)
(-0.00164655 0.0555486 0.00729982)
(-0.00234794 0.0514056 0.00739232)
(-0.00280163 0.0384268 0.006194)
(-0.00272804 0.0198641 0.00332832)
(-0.00251307 0.00105438 -0.000479514)
(-0.00240447 -0.0148326 -0.00392944)
(-0.00236717 -0.027555 -0.00637436)
(-0.00229979 -0.0379961 -0.0079173)
(-0.0021447 -0.0468386 -0.00886235)
(-0.00189628 -0.0543966 -0.00943806)
(-0.00157731 -0.0608095 -0.00977842)
(-0.00121286 -0.0661702 -0.00996169)
(-0.000821749 -0.0705507 -0.0100364)
(-0.000415275 -0.0740016 -0.0100347)
(-2.09827e-06 -0.0765571 -0.00997852)
(0.000410391 -0.0782392 -0.00988177)
(0.000815966 -0.0790583 -0.00975304)
(0.00120939 -0.0790082 -0.00959605)
(0.00158582 -0.0780576 -0.00940945)
(0.00194023 -0.076134 -0.00918573)
(0.0022671 -0.0730922 -0.00890943)
(0.00255985 -0.068666 -0.00855628)
(0.00280763 -0.062425 -0.00809868)
(0.0029923 -0.0538015 -0.00752674)
(0.00308349 -0.0422629 -0.00688386)
(0.00303631 -0.0275874 -0.00627337)
(0.00279643 -0.0101301 -0.00576893)
(0.00233429 0.00910627 -0.00525621)
(0.00169519 0.0285339 -0.00444916)
(0.000991001 0.0454675 -0.00325912)
(0.000456682 0.0550509 -0.00216672)
(0.000103193 0.0543569 -0.00140781)
(-5.39694e-05 0.0315498 -0.000721443)
(-4.0408e-05 0.0263802 0.00219647)
(-0.000592167 0.051604 0.00522084)
(-0.00128705 0.0561709 0.00605659)
(-0.00196982 0.0508414 0.00537486)
(-0.00264759 0.0362503 0.00280909)
(-0.00310007 0.0179528 -0.000985205)
(-0.00352967 0.000781205 -0.00462641)
(-0.00393195 -0.0137435 -0.00723444)
(-0.00422456 -0.0260264 -0.00879491)
(-0.00435929 -0.0367099 -0.00964754)
(-0.00432868 -0.0460889 -0.0101063)
(-0.00415325 -0.0541834 -0.0103676)
(-0.00386985 -0.0609546 -0.0105237)
(-0.00351745 -0.0664382 -0.0106043)
(-0.00312795 -0.0707448 -0.0106138)
(-0.00272242 -0.0740046 -0.0105546)
(-0.00231392 -0.076324 -0.0104335)
(-0.00191035 -0.0777704 -0.0102621)
(-0.00151684 -0.0783746 -0.0100529)
(-0.00113718 -0.0781352 -0.00981563)
(-0.000774823 -0.077018 -0.00955381)
(-0.00043302 -0.0749435 -0.00926155)
(-0.000113518 -0.0717584 -0.00892076)
(0.00018089 -0.0671882 -0.00849893)
(0.000447586 -0.0607905 -0.00795223)
(0.000686251 -0.0519623 -0.00724647)
(0.000889092 -0.0400763 -0.00640559)
(0.00103506 -0.0247709 -0.00556151)
(0.00107968 -0.00636868 -0.00491652)
(0.000970577 0.0138154 -0.00454343)
(0.000709672 0.0335677 -0.0042237)
(0.000381054 0.0497334 -0.00368478)
(0.000140658 0.0578152 -0.00302584)
(6.71099e-06 0.0558887 -0.00226732)
(-4.21816e-05 0.0317279 -0.00103848)
(7.25862e-05 0.0263688 0.00112323)
(-9.20035e-05 0.0522485 0.00312899)
(-0.00047645 0.0571316 0.00344123)
(-0.00100644 0.0525869 0.00236643)
(-0.00174096 0.0392623 -0.000530025)
(-0.00250141 0.0225126 -0.00412362)
(-0.00326897 0.00646915 -0.00711408)
(-0.00393903 -0.0077325 -0.00900917)
(-0.00443788 -0.0202998 -0.00999016)
(-0.00474457 -0.0315465 -0.0104368)
(-0.0048678 -0.0415195 -0.0106565)
(-0.00483892 -0.0501043 -0.0108039)
(-0.00470053 -0.0572351 -0.0109091)
(-0.00449171 -0.0629844 -0.0109515)
(-0.00424049 -0.0675086 -0.0109126)
(-0.0039644 -0.0709631 -0.0107914)
(-0.00367451 -0.0734607 -0.0106013)
(-0.00337867 -0.0750689 -0.0103621)
(-0.00308301 -0.0758194 -0.0100936)
(-0.00279258 -0.0757145 -0.00981032)
(-0.00251146 -0.0747261 -0.00951721)
(-0.00224262 -0.0727843 -0.00920687)
(-0.00198667 -0.0697513 -0.00885618)
(-0.00173959 -0.0653779 -0.00842258)
(-0.00149294 -0.059248 -0.00784319)
(-0.00123043 -0.0507542 -0.00704925)
(-0.000935398 -0.0391774 -0.0060156)
(-0.000602823 -0.0239535 -0.00484525)
(-0.000265615 -0.00520007 -0.00381745)
(-8.47518e-06 0.0156931 -0.00323266)
(0.000104272 0.036005 -0.00307241)
(8.78742e-05 0.0520617 -0.00296819)
(3.11822e-05 0.0595239 -0.00266083)
(-6.39469e-06 0.0568645 -0.00203935)
(-2.33377e-05 0.0318673 -0.000830665)
(0.000122018 0.024961 1.61344e-05)
(0.00044228 0.0510576 0.000721247)
(0.000520356 0.0574483 0.000640808)
(0.00038465 0.0547158 -0.00037439)
(-5.89037e-06 0.0444225 -0.00268571)
(-0.000689622 0.0298054 -0.0054809)
(-0.00151803 0.0145349 -0.00769106)
(-0.00232587 3.97803e-05 -0.00894151)
(-0.00299982 -0.0134581 -0.00944642)
(-0.00347843 -0.0259132 -0.00963544)
(-0.00375289 -0.0370655 -0.00983302)
(-0.00385595 -0.0465733 -0.0101212)
(-0.00383709 -0.0542901 -0.0104181)
(-0.00374033 -0.0603385 -0.0106247)
(-0.00359675 -0.064977 -0.0106943)
(-0.00342555 -0.0684492 -0.0106279)
(-0.00323878 -0.0709231 -0.0104536)
(-0.003045 -0.0724954 -0.0102098)
(-0.00285089 -0.0732134 -0.0099351)
(-0.00266185 -0.0730899 -0.00965918)
(-0.00248233 -0.072107 -0.00939786)
(-0.00231586 -0.0702099 -0.00914949)
(-0.00216415 -0.0672909 -0.00889196)
(-0.00202463 -0.0631571 -0.00857798)
(-0.00188912 -0.0574798 -0.00812929)
(-0.00173556 -0.0497344 -0.00743656)
(-0.00153048 -0.03918 -0.00638802)
(-0.00123541 -0.0250042 -0.00495986)
(-0.000837555 -0.00684098 -0.00336263)
(-0.000395785 0.0143394 -0.00206459)
(-3.73529e-05 0.0356487 -0.00143652)
(0.000134275 0.0526954 -0.00131624)
(0.000150799 0.0605969 -0.00122476)
(9.65818e-05 0.0577695 -0.000885372)
(1.84251e-05 0.0322181 -0.00023428)
(9.17421e-05 0.0227759 -0.000581463)
(0.000592387 0.0479769 -0.000963126)
(0.00102203 0.0560881 -0.00140599)
(0.00127479 0.0552773 -0.00223663)
(0.00131814 0.048634 -0.00367736)
(0.00103089 0.0372391 -0.00539735)
(0.000473996 0.0237366 -0.00667381)
(-0.000166613 0.00959166 -0.00728235)
(-0.000744492 -0.00457975 -0.00751291)
(-0.0011788 -0.0181841 -0.00782399)
(-0.00146223 -0.0304456 -0.00843298)
(-0.00163534 -0.0407601 -0.00920883)
(-0.00173809 -0.04898 -0.00990017)
(-0.00179464 -0.0553402 -0.0103489)
(-0.00181859 -0.0602009 -0.0105219)
(-0.00181683 -0.0638599 -0.0104588)
(-0.00179395 -0.0665037 -0.0102296)
(-0.00175432 -0.0682315 -0.00991222)
(-0.00170259 -0.0690895 -0.00957736)
(-0.00164338 -0.0690914 -0.00927738)
(-0.00158104 -0.0682225 -0.00904156)
(-0.00152013 -0.066435 -0.00887572)
(-0.00146547 -0.0636377 -0.00876196)
(-0.00142097 -0.0596803 -0.00865462)
(-0.00138723 -0.0543264 -0.00847196)
(-0.00135251 -0.0472029 -0.00808675)
(-0.00128972 -0.0377217 -0.00732902)
(-0.00115447 -0.0250661 -0.00603357)
(-0.000901156 -0.00849422 -0.00419001)
(-0.000528231 0.0117684 -0.00215195)
(-0.000124405 0.0333719 -0.000563446)
(0.000134582 0.0516047 0.000218731)
(0.000193819 0.0606041 0.000453333)
(0.000136867 0.0581711 0.000544549)
(3.62372e-05 0.0325533 0.000416323)
(2.68613e-05 0.0211653 -0.000588424)
(0.000358469 0.0448651 -0.00146393)
(0.00077782 0.0535227 -0.00215043)
(0.00110157 0.0538221 -0.00280066)
(0.00128815 0.0493929 -0.00357639)
(0.00127447 0.0403561 -0.00437102)
(0.00103118 0.0282376 -0.00485322)
(0.000715683 0.0143832 -0.00509637)
(0.000457203 -0.00015915 -0.00553771)
(0.000289157 -0.0141943 -0.006507)
(0.000180134 -0.0265855 -0.00787259)
(9.63721e-05 -0.0367387 -0.00921903)
(2.06578e-05 -0.0446889 -0.0102165)
(-5.07234e-05 -0.0508192 -0.0107523)
(-0.000117115 -0.0555482 -0.010858)
(-0.000175887 -0.0591707 -0.0106272)
(-0.000225205 -0.0618462 -0.0101795)