/*--------------------------------*- C++ -*----------------------------------*\
| =========                 |                                                 |
| \\      /  F ield         | OpenFOAM: The Open Source CFD Toolbox           |
|  \\    /   O peration     | Version:  v1906                                 |
|   \\  /    A nd           | Web:      www.OpenFOAM.com                      |
|    \\/     M anipulation  |                                                 |
\*---------------------------------------------------------------------------*/
FoamFile
{
    version     2.0;
    format      ascii;
    class       volScalarField;
    location    "0.76/oil";
    object      wallHeatFlux;
}
// * * * * * * * * * * * * * * * * * * * * * * * * * * * * * * * * * * * * * //

dimensions      [1 0 -3 0 0 0 0];


internalField   uniform 0;

boundaryField
{
    maxY
    {
        type            calculated;
        value           uniform 0;
    }
    minX
    {
        type            calculated;
        value           uniform 0;
    }
    maxX
    {
        type            calculated;
        value           uniform 0;
    }
    minY
    {
        type            calculated;
        value           uniform 0;
    }
    minZ
    {
        type            calculated;
        value           uniform 0;
    }
    maxZ
    {
        type            calculated;
        value           uniform 0;
    }
    oil_to_sphere
    {
        type            calculated;
        value           nonuniform List<scalar> 
1536
(
486050
448043
436297
511279
492432
486507
467541
417834
372925
394106
494776
396783
424303
395811
539216
506955
422934
368883
188290
420295
411234
497070
462227
510231
527724
527465
527550
512347
439027
473616
431400
399833
396420
529383
509362
504019
484862
525765
515438
525441
519109
506555
471534
416437
461114
411139
454161
463070
549360
468118
495208
455193
457094
457091
397596
362968
482954
469446
367623
316381
303339
318214
303565
229164
234285
410284
462809
389319
501237
458109
531606
497591
523967
521071
511270
402372
347748
419641
507150
359449
319691
302719
301130
302034
285425
306119
291918
415297
375779
317002
297673
180382
184555
230260
234938
412138
465098
368392
396435
493254
465287
530673
457519
449466
489123
522500
513847
426907
467864
393480
364766
402457
319279
313243
301420
292715
300085
290444
289891
300896
355783
297975
182537
407777
489508
473377
502505
450128
469048
501086
456978
498027
461751
496782
458476
505197
460794
367574
455188
476238
313665
304848
424502
358755
295607
362759
496312
386649
340629
514842
520556
376980
493140
489489
491660
331304
448868
309336
492759
354437
486278
378816
530465
525532
505243
485674
496913
318063
436334
312348
439802
426936
425087
397709
368595
336589
478691
380931
400686
489890
530092
521645
494014
523661
326064
436137
308122
442915
434758
456730
462448
506918
402428
481414
505343
458357
425838
467642
357817
470743
464143
483833
395035
329679
350940
361778
365579
359852
395671
315241
404569
361435
368886
346161
427464
409844
345282
395735
416533
336516
386584
447251
437492
390139
382072
401241
514565
399567
513162
548282
503882
446882
501855
349436
326893
414020
338890
344661
333920
381783
372646
190321
252114
418779
348536
456753
454799
383724
423221
332453
452202
550170
485457
505042
379135
487548
502091
402432
362300
362844
404010
297975
357361
252703
183682
231407
237794
202870
439834
397323
442833
410501
405332
456799
447179
400685
408964
337752
449589
394914
499398
485596
443404
411874
462783
474526
459735
479087
447834
433548
492331
335376
466915
343431
357537
368896
366947
340176
377670
379667
425034
408727
374765
363003
347569
498195
337662
519420
495240
310280
425661
298434
452456
449139
448782
424826
471792
466023
487081
392940
452814
430618
433544
506361
448814
413040
442868
393073
458417
384021
414129
385059
497009
438175
415894
479263
401252
449359
462773
369535
326506
435806
405900
426226
414191
414024
429417
432215
424856
472017
484036
501205
434347
493392
420843
463188
457847
437821
506666
422910
497391
463974
431651
505052
450915
459587
496682
480123
489178
455401
411508
510504
470582
446809
512454
443804
479520
471200
448699
328383
457511
358740
433890
363911
381828
476161
454052
335169
446914
387975
415816
376441
344647
381006
377546
340096
447835
335877
439560
369234
476215
453770
317786
488423
413859
365697
448565
358279
426429
380910
364544
360152
366225
380020
364180
348894
364177
363320
399071
370142
367208
371805
344828
300983
380608
333078
326040
355899
289554
314094
393061
341548
355273
353405
357445
346389
359698
283463
257015
301432
309281
362410
337362
321163
326678
383483
364147
393888
410404
368517
394508
386997
352846
358921
326676
314101
369222
306221
311715
360552
285870
312802
308155
355853
386980
445306
437553
403829
420303
473386
448277
433085
461588
367853
490622
443059
480630
410453
494489
431879
399377
453887
464460
381758
458623
494901
441921
457683
370201
495014
355085
488842
520430
533792
545155
562965
498041
504362
512330
525042
502995
337649
520872
490066
322270
312792
436918
486962
503110
326195
437033
471946
501687
487243
442190
353853
311393
361142
330005
309616
400440
367974
329451
364926
360804
277274
316404
323319
257730
318901
268392
335441
262264
348053
314892
326465
341085
388101
356320
343401
297124
371166
346269
307935
398221
375405
348454
404540
362755
357441
350897
277962
316007
358264
198230
251846
205859
246566
225467
224506
230415
230471
250012
369230
287107
313896
311376
285698
374379
288135
310298
314540
302645
352963
318667
353777
278810
464971
370925
340170
496181
428967
377765
469402
381927
421172
410643
392347
477854
413199
455601
435884
415129
415687
358621
370868
487660
466583
372405
464441
456685
388062
424279
377175
480273
489920
403993
454264
403873
422585
493222
351173
530840
527041
350076
392822
498353
540493
535506
438331
503179
541595
525994
517391
495520
487749
519153
336387
356080
440972
318345
503828
331112
315746
362828
469915
498416
480921
341670
488090
352685
445403
441195
319472
497488
324702
353984
292910
240409
324427
395848
333684
342208
340887
344118
353593
365662
296833
357617
320277
312295
322077
330171
257116
321045
322581
265831
327345
321104
255471
273802
351646
336761
272767
310418
409953
362059
341339
316624
365103
359426
346667
286811
242611
357540
385276
390692
406427
326951
349485
325337
362410
360951
301760
341980
298741
304778
234355
230185
196377
195272
242567
246581
185386
188281
255405
428874
449746
449820
451635
451889
447395
450822
455230
444657
383553
442672
436023
408338
475406
456979
443302
463737
474169
486588
468171
386671
418182
402095
445011
420796
434907
386485
470027
497976
417237
447139
422611
477400
457861
450050
445229
479820
453155
450665
479998
437998
455851
518191
484630
446702
483545
438795
475331
482457
438438
455458
492644
508661
417126
491374
458398
434710
504101
483681
456136
494393
483755
425283
407524
508994
486105
423495
501797
512214
485890
478404
461565
345034
438950
359075
391075
372502
430525
331656
477672
478001
331646
448365
444315
389687
383612
351409
468326
464821
434151
339645
471909
386699
401857
443512
352115
446302
368954
370819
420604
342155
474378
446084
462395
371245
381881
356729
441133
447187
372007
385532
359489
361449
363740
391293
366285
390858
309520
364292
347646
334827
354236
346751
290646
304992
355296
321391
384549
367898
351511
347025
409612
405922
369234
361924
375926
360038
353206
355504
289791
256815
364291
286327
352976
353867
322268
316283
361750
314826
400469
367783
359696
358573
364973
318709
395681
351500
456487
502881
390244
417451
343340
432466
342459
362565
456727
518300
397774
378533
458364
467037
432526
438912
306603
205524
522488
439750
426152
294213
200516
314318
461540
518482
498215
319700
473041
503887
466553
485852
412995
489050
416066
426532
468506
489210
444354
463460
478935
454605
461935
456090
435198
352704
404062
542183
397917
505566
422671
471389
439329
426822
378330
415107
522069
444167
506036
421087
408233
459764
346952
495230
532410
523569
490430
506397
501376
494244
498938
415996
391206
454398
353090
424419
419736
417943
492554
461767
499339
383094
448232
493256
494019
526131
461962
506607
501443
381451
448196
452638
448877
397141
448688
377794
419218
283706
366131
416573
396939
337182
398558
335885
323553
399042
399479
335037
427202
502615
484074
521583
457853
496147
516333
416432
537383
418234
443462
441614
402719
447293
325633
356906
435663
331646
388296
432133
382126
335088
260184
243088
421572
367347
208715
209100
235639
429999
323229
408600
318990
400298
335450
409426
327631
391007
498257
466180
511265
348736
335297
439183
448537
451352
499449
407245
512292
423375
427067
517379
401332
440707
455443
328357
494651
403927
376730
336155
423792
383378
451195
450071
380288
268981
338619
258317
422274
355139
212821
240020
206043
421368
430474
507565
448724
492630
491773
442670
498667
508414
505046
459847
413636
441690
455779
443128
370022
398365
370399
415608
536316
531746
551127
460684
444804
540913
503889
340876
449228
499494
405777
540027
536682
383207
484053
487755
410371
538750
543159
534346
382066
489120
501588
407543
543081
492706
401096
493928
451687
349019
471521
488079
482985
452148
542079
529766
537388
553035
352419
493512
548241
381330
466687
510915
493464
477808
441354
499562
443888
363138
464920
484616
493429
440749
544060
382702
485145
543297
376058
445329
512786
501303
471932
471615
487586
491557
439392
456438
447627
459744
444529
493155
383103
471463
450407
469678
471175
470871
462396
394031
352268
336669
367337
380968
375381
371924
382292
423187
348924
335326
455254
533180
541378
506602
362702
340665
480456
409377
500949
420539
327247
328345
371969
327068
320884
322196
327002
256188
191352
447733
457210
444624
463882
443953
465459
401423
554466
498458
381738
419778
320862
256951
194476
262233
312896
431842
335003
345684
442418
433983
413303
420565
461120
441793
503630
382869
376955
478026
466323
484184
365216
346299
389845
382501
382205
339380
311133
494752
401113
474463
479951
509881
500010
484037
352426
502287
470854
465995
499086
494956
438384
380792
416489
429911
452912
434414
434197
441675
417579
375729
446016
428223
427921
433428
439639
436422
449916
448703
463960
441663
478316
372154
444471
477642
429607
341495
443166
441816
478934
477255
444980
441035
426963
360871
422596
449953
476468
461553
433586
407367
426625
431665
480319
499025
401498
449787
489874
491649
485739
474074
479636
517001
394719
473670
486231
477910
487988
480524
484056
413566
414764
478922
472067
467550
426100
377503
400625
470095
461284
364884
404533
446164
452156
432971
401639
464003
431981
382435
393538
402858
366316
363484
322880
316015
381597
342966
347220
349419
242337
250452
341027
395959
354589
351451
353095
343360
336265
283535
360602
348730
302205
427248
420381
299696
364341
413481
304147
345770
363014
299645
434099
457038
338328
402033
357053
346033
347814
425073
409011
483521
445322
346506
431334
510921
386601
436013
453364
459087
442155
468396
446928
472900
473458
386560
424344
442756
444787
453425
476243
547076
337837
503075
547504
377457
504455
509995
489910
417460
489599
383636
532116
354577
450983
452312
510035
502091
481799
451417
305124
493570
421766
375039
408047
350689
258460
275016
382992
352980
358957
341567
404627
316233
344066
257040
382307
346197
187736
187055
262413
189309
265067
244912
212332
434206
278667
366085
425367
426924
409859
416011
357214
355383
353310
340868
422547
414175
332405
454528
434884
404519
491907
446235
470777
439868
349213
436316
501547
398306
457636
459038
457412
477030
414588
457490
490260
425473
387470
510366
528255
517015
552439
534002
471936
529549
380593
479873
413990
493323
493667
421483
500659
457906
453116
460141
498710
429015
361110
480062
409756
359521
364862
335535
420022
358229
339885
267561
386448
347092
410693
332628
255294
247942
212474
424922
445519
472156
417444
456212
438396
450118
436004
458244
467595
495962
379309
419390
471458
420623
433617
453123
460655
480820
481225
457498
441974
446877
510265
484525
511595
355370
456363
488488
479646
481875
489300
379905
479551
507975
398669
483251
459434
381620
460613
474285
464501
442388
379919
465582
441209
462090
428272
301325
368610
352599
251831
342840
398180
307506
392648
345144
339282
382426
406867
)
;
    }
}


// ************************************************************************* //
