/*--------------------------------*- C++ -*----------------------------------*\
| =========                 |                                                 |
| \\      /  F ield         | OpenFOAM: The Open Source CFD Toolbox           |
|  \\    /   O peration     | Version:  v1912                                 |
|   \\  /    A nd           | Website:  www.openfoam.com                      |
|    \\/     M anipulation  |                                                 |
\*---------------------------------------------------------------------------*/
FoamFile
{
    version     2.0;
    format      ascii;
    class       volScalarField;
    location    "246/oil";
    object      heatTransferCoeff(T);
}
// * * * * * * * * * * * * * * * * * * * * * * * * * * * * * * * * * * * * * //

dimensions      [1 0 -3 -1 0 0 0];


internalField   uniform 0;

boundaryField
{
    maxY
    {
        type            calculated;
        value           uniform 0;
    }
    minX
    {
        type            calculated;
        value           uniform 0;
    }
    maxX
    {
        type            calculated;
        value           uniform 0;
    }
    minY
    {
        type            calculated;
        value           uniform 0;
    }
    minZ
    {
        type            calculated;
        value           uniform 0;
    }
    maxZ
    {
        type            calculated;
        value           uniform 0;
    }
    oil_to_sphere
    {
        type            calculated;
        value           nonuniform List<scalar> 
1536
(
-129.751
-137.607
-124.097
-122.049
-97.5693
-102.753
-101.239
-61.1599
-55.3281
-144.585
-96.0007
-146.543
-149.857
-146.632
-121.145
-96.8758
-62.6667
-56.0491
42.6015
-149.445
-144.718
-104.099
-101.754
-98.184
-106.046
-105.961
-106.012
-98.598
-137.769
-135.417
-124.372
-86.1092
-75.4718
-106.652
-97.4455
-96.4406
-90.1746
-113.739
-103.999
-112.638
-103.98
-96.51
-133.741
-146.863
-136.764
-145.588
-103.348
-103.655
-118.547
-106.842
-104.229
-104.561
-100.437
-102.763
-80.8223
-72.8131
-102.058
-101.604
-56.6939
-14.7622
-23.9665
-13.5485
-22.2241
-149.309
-150.366
-146.22
-137.515
-146.124
-129.06
-136.129
-107.196
-102.604
-124.006
-104.542
-97.54
-76.2131
-71.2175
-67.5972
-97.1253
-56.0337
-13.2084
-22.2831
-2.95609
-1.98442
-28.6701
-23.5339
-4.59378
-62.0445
-55.8826
-14.5642
-23.0985
42.7621
42.5113
-150.092
-150.536
-147.123
-139.683
-143.072
-146.686
-128.263
-138.279
-106.527
-128.812
-124.811
-103.511
-104.481
-98.3101
-68.4688
-95.6792
-77.0229
-70.4309
-75.1173
-14.4791
-24.1606
-3.73614
-5.10633
-3.48133
-28.0893
-23.541
-29.5491
-56.5355
-23.2453
42.6477
-146.232
-128.273
-135.886
-129.181
-135.144
-104.075
-104.599
-105.827
-104.084
-104.684
-103.203
-105.461
-105.686
-102.849
-72.9306
-100.916
-100.492
-14.9044
-23.6967
-62.2899
-56.66
-22.4603
-54.9734
-119.443
-119.399
-100.948
-108.469
-124.059
-119.053
-103.218
-105.68
-104.362
-90.262
-81.6141
-83.1769
-119.781
-117.003
-119.847
-129.257
-111.27
-105.573
-96.5382
-90.5746
-102.735
-93.0758
-82.286
-84.0383
-132.114
-115.033
-135.778
-113.128
-84.3986
-70.0431
-120.486
-121.547
-125.65
-118.098
-110.82
-105.017
-90.8235
-104.08
-86.4885
-84.2998
-83.1071
-140.053
-117.842
-124.503
-131.282
-120.428
-129.482
-123.27
-87.549
-87.8668
-92.6551
-93.7819
-86.0019
-89.2806
-92.4408
-97.2936
-55.7543
-52.3764
-48.8692
-58.2689
-62.7472
-60.877
-67.9529
-65.1415
-52.9257
-45.9405
-42.2013
-142.44
-153.906
-150.578
-143.059
-143.302
-144.483
-142.617
-141.197
-147.317
-137.793
-141.676
-141.861
-121.271
-120.648
-136.514
-127.603
-108.468
-91.0941
-86.348
-102.599
-88.0995
-53.4085
-56.953
-49.8647
-58.5609
-61.9692
-50.8281
-45.1788
5.04939
12.277
-148.436
-142.42
-144.697
-141.527
-146.114
-154.247
-146.633
-141.38
-116.701
-106.76
-117.111
-119.053
-89.0429
-97.5961
-53.8914
-46.6475
-63.2002
-71.3359
-67.1467
-43.2076
12.8282
5.92566
26.5789
26.7736
5.26503
-144.727
-140.905
-140.127
-138.014
-141.585
-141.998
-139.309
-145.341
-156.649
-148.795
-140.913
-129.271
-119.399
-119.848
-126.651
-137.416
-128.305
-120.136
-119.967
-90.3072
-91.4735
-97.7428
-99.4365
-92.7165
-97.3082
-49.9919
-46.0984
-51.7903
-60.3213
-57.0776
-62.4543
-60.8684
-61.1984
-49.3514
-44.2436
-58.388
-51.8164
-108.419
-100.64
-102.449
-90.4399
-86.6604
-84.4934
-80.0046
-133.816
-126.918
-137.148
-132.31
-126.985
-132.785
-135.246
-137.95
-142.797
-134.654
-136.818
-134.746
-152.932
-144.892
-142.065
-136.99
-142.966
-148.324
-142.001
-130.241
-132.618
-135.785
-127.318
-136.066
-138.35
-142.876
-141.976
-146.982
-145.172
-143.574
-139.366
-139.285
-138.138
-139.414
-133.459
-133.741
-128.356
-133.111
-125.522
-128.017
-138.313
-119.456
-132.932
-120.862
-123.57
-117.885
-108.548
-132.135
-119.903
-118.787
-126.412
-108.869
-115.48
-119.739
-107.509
-112.388
-103.405
-121.383
-131.732
-120.04
-121.015
-123.436
-110.72
-116.171
-114.851
-90.7893
-95.0222
-89.7348
-82.5526
-77.9105
-83.037
-72.6854
-69.094
-91.7657
-95.5882
-91.2437
-84.3922
-79.2796
-86.6223
-72.6369
-69.0762
-66.3069
-86.6122
-68.4345
-84.1104
-79.968
-84.6589
-72.5646
-91.2673
-96.3617
-90.6245
-95.3584
-71.0234
-66.7577
-84.1139
-79.7154
-85.7085
-71.2498
-67.769
-60.3832
-56.2737
-59.9187
-55.9645
-49.5104
-49.8019
-44.6483
-54.479
-46.8939
-63.2825
-43.4715
-45.6519
-41.3062
-35.9619
-43.4057
-40.4442
-32.08
-28.5152
-20.1129
-57.1077
-53.683
-49.125
-58.9129
-46.1578
-49.8312
-32.1614
-27.682
-25.4306
-20.206
-41.6775
-36.8171
-43.6538
-40.6873
-38.9853
-59.8602
-55.8441
-60.2764
-60.9277
-49.7332
-44.1613
-56.5176
-51.3149
-168.41
-159.534
-151.699
-166.216
-153.034
-155.243
-159.829
-147.683
-150.181
-153.514
-152.646
-141.888
-148.131
-139.512
-138.546
-136.203
-135.917
-139.391
-137.715
-142.881
-147.856
-132.453
-143.966
-134.144
-139.21
-135.046
-144.455
-136.78
-143.959
-140.715
-146.003
-141.542
-132.791
-137.852
-128.537
-138.193
-118.28
-123.712
-122.15
-104.481
-112.072
-110.773
-120.965
-104.499
-118.968
-103.448
-111.73
-105.988
-98.3388
-102.575
-91.383
-88.3065
-80.14
-84.9607
-82.621
-77.077
-70.0428
-84.9765
-69.5494
-96.5708
-90.0508
-81.7206
-46.0396
-40.8605
-36.7908
-44.6449
-41.2014
-53.2565
-46.1847
-62.9268
-42.6933
-31.5128
-29.4616
-20.9477
-9.15568
-0.810915
-9.89637
-1.14409
-16.5853
-23.9956
-16.2796
-7.61904
-9.67814
-52.3809
-56.4635
-48.7666
-58.2449
-42.5673
-37.0017
-44.6209
-39.6581
-52.4405
-45.5197
-60.2391
-66.7619
-42.972
-31.6983
-39.584
-28.5102
-20.183
-36.4432
5.67198
12.3856
4.38238
12.2818
26.1109
26.2377
26.3257
26.3773
13.1377
-163.154
-150.203
-155.432
-153.622
-150.775
-163.311
-155.754
-153.24
-149.676
-142.334
-152.483
-154.351
-157.753
-142.99
-142.923
-148.253
-148.89
-132.489
-141.492
-132.925
-144.787
-139.897
-139.222
-136.382
-141.147
-136.056
-140.526
-145.576
-136.968
-131.787
-129.276
-140.276
-144.829
-132.403
-142.773
-134.105
-128.473
-146.571
-139.603
-138.592
-141.011
-134.657
-134.681
-138.814
-144.237
-135.238
-128.984
-121.561
-118.684
-112.456
-105.625
-113.84
-127.521
-123.541
-121.589
-115.156
-114.406
-110.087
-110.678
-111.656
-104.376
-104.733
-90.8383
-102.039
-86.6567
-92.7102
-84.8119
-80.3767
-107.567
-97.8792
-72.5269
-87.4607
-69.3801
-86.9708
-76.6496
-69.7487
-82.6673
-83.9313
-82.6115
-82.8453
-80.6612
-103.624
-89.1467
-31.5697
-29.8864
-25.9404
-21.2125
-56.7609
-52.5685
-49.1995
-58.5418
-46.1762
-49.8978
-37.5449
-44.2549
-44.3304
-40.4306
-38.4611
-17.1045
-17.1602
-24.7469
-8.30274
-9.40173
-0.703062
-9.8958
-10.0862
-0.477758
-23.2487
-15.7126
-16.3227
-24.4
-7.86047
-52.6314
-45.8643
-61.9601
-66.0791
-43.0996
-32.0486
-39.8972
-27.7284
-25.5264
-36.8375
-50.6511
-44.7004
-55.9412
-53.294
-49.0512
-58.5992
-61.6352
-36.6782
-41.4404
-44.2278
-39.9996
-38.9683
26.4263
26.1499
4.68683
5.38953
12.0273
13.1565
-3.23748
5.62031
12.9727
-126.673
-135.455
-133.989
-126.228
-134.116
-126.468
-126.098
-143.972
-140.965
-148.27
-141.249
-132.909
-138.6
-135.606
-142.884
-136.758
-139.81
-133.158
-133.256
-144.532
-139.555
-136.998
-137.77
-134.747
-134.549
-137.721
-129.424
-128.187
-133.153
-137.132
-132.657
-140.598
-135.559
-148.262
-133.321
-129.451
-131.571
-133.042
-128.325
-126.529
-138.598
-120.248
-111.786
-112.07
-117.163
-105.054
-130.876
-119.794
-119.312
-124.486
-115.619
-115.869
-110.864
-126.864
-118.149
-119.552
-124.2
-109.477
-110.733
-118.635
-116.898
-104.967
-122.812
-130.415
-121.819
-123.349
-116.381
-115.998
-111.906
-111.786
-104.325
-83.7952
-79.3979
-84.9427
-72.4999
-70.72
-67.12
-94.4972
-88.1964
-95.5572
-90.9364
-79.4041
-84.1508
-83.9038
-70.9806
-67.5925
-68.5432
-91.251
-90.894
-96.3805
-90.5514
-96.1211
-70.4187
-72.5665
-83.3165
-78.665
-84.0709
-70.4951
-67.3872
-97.8809
-90.0305
-90.2007
-92.9849
-96.9991
-72.4238
-68.2719
-79.9342
-85.1142
-84.9733
-55.8211
-60.4863
-49.6318
-49.0477
-43.846
-59.944
-56.2483
-60.4308
-41.657
-36.6896
-44.0768
-39.707
-33.3737
-41.6449
-29.2486
-20.7089
-37.5863
-53.0698
-55.8775
-48.6376
-58.7165
-66.2936
-75.8273
-56.3569
-48.4462
-44.2351
-46.501
-53.4278
-31.9686
-39.073
-28.2886
-26.668
-35.8656
-42.1826
-37.3267
-43.0788
-41.5838
-39.0437
-60.3789
-66.2092
-53.2546
-46.0148
-42.6169
-58.5265
-62.3885
-53.1657
-56.7871
-49.7416
-125.095
-120.619
-70.9571
-64.2641
-146.612
-139.439
-144.277
-145.866
-144.19
-118.505
-129.822
-125.636
-129.287
-96.0137
-104.79
-64.3026
-1.90265
2.17433
-124.398
-124.222
-61.6359
-2.29045
3.0651
-14.7914
-146.058
-120.351
-101.695
-13.6455
-129.545
-123.185
-127.389
-95.2919
-106.155
-104.253
-61.093
-125.1
-129.601
-103.707
-105.497
-127.814
-103.148
-104.903
-92.7877
-97.6653
-67.6495
-75.5741
-81.8227
-120.711
-126.252
-102.024
-111.101
-94.9801
-101.061
-67.6752
-75.3634
-77.2809
-119.429
-128.922
-102.685
-114.986
-79.6045
-68.6146
-78.001
-91.216
-111.529
-109.627
-127.779
-130.204
-105.381
-104.243
-101.746
-104.841
-76.798
-68.6842
-76.8237
-62.3886
-154.119
-149.527
-128.161
-143.112
-127.519
-147.104
-144.828
-104.999
-121.408
-121.048
-124.218
-120.514
-102.892
-78.7281
-75.2995
-75.2887
-76.2688
-75.8633
-73.6553
-33.4254
-64.1088
-29.8177
-34.2414
-150.473
-144.961
-152.229
-146.163
-150.491
-147.519
-150.542
-149.092
-152.691
-148.043
-127.97
-143.55
-127.889
-135.915
-128.332
-102.387
-113.057
-119.158
-132.41
-106.579
-126.287
-102.428
-68.5436
-76.9785
-79.5222
-70.1289
-75.0866
-74.8039
-62.634
-34.0414
-26.6834
-23.1873
-25.6816
-63.9882
-32.9764
1.64843
0.833192
2.86234
-154.042
-150.212
-147.624
-156.866
-148.616
-152.261
-147.8
-154.686
-151.645
-128.8
-143.096
-125.256
-145.557
-144.568
-139.206
-144.096
-138.339
-126.613
-131.561
-101.783
-118.454
-131.726
-120.403
-130.081
-105.472
-67.8238
-77.6963
-94.4636
-103.846
-73.5685
-81.551
-69.6545
-76.2914
-101.479
-64.6387
-33.5831
-22.0762
-26.9532
-22.956
-63.3913
-32.9579
1.44369
2.75239
2.12452
-149.686
-134.893
-129.553
-146.275
-126.775
-105.023
-124.177
-121.569
-121.342
-120.579
-74.4045
-82.0659
-73.9522
-73.9723
-74.4859
-33.1615
-65.8299
-34.7741
-65.6115
-127.307
-118.864
-110.421
-118.25
-129.254
-120.079
-84.6322
-91.1379
-84.1073
-122.872
-129.038
-121.89
-113.479
-129.535
-108.727
-117.465
-116.075
-108.217
-121.639
-115.039
-128.46
-111.562
-115.321
-115.787
-111.44
-97.0281
-95.5086
-85.1854
-85.1169
-78.6049
-70.1784
-83.7155
-76.3738
-80.3975
-128.097
-117.385
-112.31
-117.496
-126.506
-108.188
-110.256
-111.249
-100.246
-117.06
-90.6375
-100.225
-97.614
-86.1581
-87.1274
-79.8923
-70.1819
-82.5621
-75.4163
-80.6519
-118.171
-126.016
-108.147
-109.001
-112.389
-98.8242
-116.622
-95.8819
-84.8587
-75.2427
-85.3931
-80.5195
-83.6451
-138.913
-139.337
-137.934
-140.428
-110.719
-127.321
-122.348
-91.5038
-91.6832
-97.5353
-96.5638
-95.9124
-60.8408
-68.5372
-66.8567
-51.7076
-48.9051
-69.7642
-62.691
-62.4675
-140.321
-142.397
-145.557
-137.898
-113.93
-121.663
-109.808
-130.953
-120.462
-95.777
-95.6668
-86.3343
-61.8539
-72.283
-66.8065
-52.2525
-17.0001
-18.3174
-8.1513
-9.38089
-0.560702
4.67894
-140.594
-139.577
-139.42
-136.66
-143.669
-118.189
-126.495
-122.426
-89.9199
-49.191
-68.0983
-9.2621
-0.467475
4.65543
14.7526
-20.101
-140.273
-141.361
-145.567
-140.198
-143.56
-143.442
-140.988
-139.065
-144.091
-108.721
-116.104
-137.205
-120.52
-96.545
-96.8103
-62.1837
-68.5901
-61.2108
-56.7836
-66.2436
-51.3512
-20.7731
-95.9411
-66.696
-132.657
-129.293
-118.502
-118.973
-96.0796
-89.695
-93.8367
-82.6242
-74.9104
-84.3203
-76.2029
-76.0741
-73.2723
-153.609
-150.084
-123.62
-125.019
-133.74
-139.028
-137.113
-138.962
-125.74
-133.231
-130.092
-136.826
-126.116
-132.103
-141.88
-137.706
-138.58
-137.789
-124.798
-129.729
-132.08
-135.946
-139.992
-144.311
-141.26
-143.175
-134.341
-125.236
-131.202
-144.029
-140.603
-144.569
-141.261
-126.067
-139.26
-142.889
-136.983
-129.818
-132.754
-130.059
-118.32
-113.619
-133.508
-118.302
-111.384
-111.089
-102.353
-103.539
-103.091
-112.965
-129.594
-121.594
-105.08
-104.126
-111.443
-105.311
-113.061
-126.57
-116.498
-104.202
-98.7784
-97.099
-81.5724
-84.3546
-70.1135
-97.3876
-81.6441
-86.0155
-71.4507
-92.3415
-97.5121
-82.4651
-71.1452
-96.634
-78.2941
-82.7562
-61.5647
-61.377
-49.0137
-50.0373
-38.7075
-39.6324
-50.4442
-40.1272
-37.3222
-27.8865
-24.8521
-24.3149
-29.7346
-60.1424
-51.9257
-39.606
-36.0614
-28.81
-29.0736
-23.9313
-56.8895
-62.0015
-39.3275
-155.279
-146.823
-151.211
-142.047
-146.127
-155.277
-139.268
-163.598
-146.691
-148.914
-147.636
-155.439
-148.169
-154.276
-164.175
-155.703
-146.419
-152.588
-134.371
-139.941
-149.364
-143.234
-127.757
-138.743
-132.534
-141.269
-137.563
-140.296
-137.619
-144.386
-132.89
-124.165
-128.726
-134.564
-143.735
-139.249
-138.489
-134.481
-109.477
-115.53
-104.124
-118.449
-125.772
-109.924
-115.365
-117.374
-119.159
-119.914
-126.521
-110.931
-91.0724
-85.1589
-79.4933
-87.1819
-96.523
-74.7028
-76.5527
-84.0186
-91.5172
-84.8605
-78.0896
-70.2623
-29.3828
-26.6944
-25.2928
-48.7729
-39.5297
-36.1285
-28.435
-60.1736
-63.7806
-28.4785
-25.6047
-49.0611
-29.0095
4.45767
4.1718
13.646
-3.18727
14.399
3.67414
-5.1557
-157.16
-146.67
-159.726
-152.021
-151.167
-144.866
-146.508
-139.341
-153.603
-159.877
-154.309
-146.92
-145.158
-143.143
-148.431
-148.815
-148.613
-134.39
-144.601
-131.853
-142.754
-144.637
-139.776
-122.945
-143.18
-135.914
-139.571
-138.003
-133.972
-138.04
-138.011
-127.963
-132.152
-126.445
-115.945
-127.897
-118.8
-110.469
-107.598
-99.3926
-111.733
-127.922
-116.592
-117.397
-93.7839
-76.3427
-78.4988
-89.4971
-88.4991
-81.1292
-87.2192
-86.0405
-84.3607
-78.2134
-95.1845
-95.9861
-39.624
-36.4102
-28.8061
-61.7191
-52.5598
-28.7165
-24.9551
-49.5845
-29.4066
-60.3946
-27.9469
14.0817
3.87283
-5.24239
-155.098
-140.129
-127.295
-137.689
-126.666
-127.226
-131.972
-143.712
-140.073
-138.794
-127.818
-132.966
-136.112
-134.411
-140.925
-138.154
-139.84
-137.827
-134.243
-124.947
-137.774
-131.611
-129.989
-119.749
-105.013
-114.479
-133.609
-117.707
-111.068
-103.513
-103.481
-112.474
-128.272
-103.796
-111.86
-127.764
-105.091
-80.9618
-72.2855
-93.1995
-97.1413
-93.349
-80.7969
-86.4264
-95.612
-78.6412
-96.444
-78.6648
-38.3479
-61.7472
-28.2334
-25.4219
-30.4491
-60.6368
-68.5425
-50.3595
-28.5322
-30.2428
-48.5828
-60.9488
)
;
    }
}


// ************************************************************************* //
