/*--------------------------------*- C++ -*----------------------------------*\
| =========                 |                                                 |
| \\      /  F ield         | OpenFOAM: The Open Source CFD Toolbox           |
|  \\    /   O peration     | Version:  v1912                                 |
|   \\  /    A nd           | Website:  www.openfoam.com                      |
|    \\/     M anipulation  |                                                 |
\*---------------------------------------------------------------------------*/
FoamFile
{
    version     2.0;
    format      ascii;
    class       volScalarField;
    location    "23/oil";
    object      heatTransferCoeff(T);
}
// * * * * * * * * * * * * * * * * * * * * * * * * * * * * * * * * * * * * * //

dimensions      [1 0 -3 -1 0 0 0];


internalField   uniform 0;

boundaryField
{
    maxY
    {
        type            calculated;
        value           uniform 0;
    }
    minX
    {
        type            calculated;
        value           uniform 0;
    }
    maxX
    {
        type            calculated;
        value           uniform 0;
    }
    minY
    {
        type            calculated;
        value           uniform 0;
    }
    minZ
    {
        type            calculated;
        value           uniform 0;
    }
    maxZ
    {
        type            calculated;
        value           uniform 0;
    }
    oil_to_sphere
    {
        type            calculated;
        value           nonuniform List<scalar> 
1536
(
-144.818
-144.337
-144.489
-143.124
-142.666
-144.088
-143.797
-143.721
-143.591
-143.056
-142.785
-143.03
-143.623
-143.277
-142.226
-143.616
-144.184
-144.529
-143.565
-143.642
-143.972
-143.529
-143.681
-143.619
-143.738
-143.651
-143.59
-143.522
-144.673
-145.792
-144.294
-143.383
-143.547
-145.365
-143.759
-144.426
-143.434
-143.628
-143.253
-145.337
-144.227
-144.302
-143.479
-143.57
-143.418
-143.357
-143.014
-143.141
-143.392
-142.92
-143.479
-143.318
-142.741
-143.488
-143.389
-143.632
-143.754
-143.936
-143.737
-144.13
-143.864
-143.517
-143.792
-144.533
-144.292
-144.254
-142.73
-142.759
-142.036
-143.988
-143.705
-143.875
-143.638
-143.696
-144.202
-143.963
-143.447
-144.23
-145.325
-144.521
-142.902
-143.276
-143.243
-145.19
-144.212
-144.715
-143.589
-143.56
-143.852
-143.99
-143.762
-143.676
-143.508
-143.743
-143.593
-143.746
-143.996
-143.662
-143.664
-143.579
-143.009
-142.759
-144.637
-144.466
-144.662
-143.576
-143.664
-144.027
-143.805
-144.157
-143.51
-142.414
-142.759
-144.891
-144.741
-144.56
-143.399
-143.319
-143.671
-143.588
-142.223
-143.606
-144.046
-144.763
-144.283
-143.559
-143.627
-144.12
-144.613
-143.918
-143.999
-142.781
-142.695
-142.773
-144.451
-144.259
-144.856
-143.112
-143.488
-143.836
-143.789
-143.919
-143.425
-143.497
-143.561
-143.728
-143.715
-143.878
-144.434
-144.281
-142.681
-143.617
-142.765
-145.046
-144.198
-144.294
-143.767
-144.015
-143.471
-142.57
-143.312
-144.339
-145.007
-143.935
-143.339
-143.623
-143.575
-142.315
-142.843
-143.224
-143.377
-145.201
-144.237
-143.793
-143.523
-143.843
-142.922
-142.79
-143.176
-142.827
-144.649
-144.904
-144.415
-143.741
-143.656
-143.813
-143.812
-143.408
-144.156
-144.199
-144.329
-144.35
-143.549
-143.346
-143.879
-144.18
-143.767
-143.648
-144.798
-144.245
-144.625
-142.668
-142.854
-143.761
-144.192
-143.408
-143.558
-144.045
-143.792
-142.589
-145.153
-144.856
-144.624
-142.795
-143.829
-143.319
-143.448
-144.162
-143.551
-143.832
-143.851
-143.568
-143.589
-143.457
-143.763
-143.58
-143.711
-143.474
-144.776
-144.994
-146.258
-145.274
-145.319
-144.975
-144.921
-143.904
-144.183
-144.649
-145.935
-143.845
-143.543
-146.348
-144.451
-144.896
-144.415
-143.627
-144.873
-144.625
-145.517
-144.147
-143.18
-144.492
-145.218
-144.987
-143.763
-143.816
-144.574
-145.076
-145.393
-146.197
-145.439
-146.301
-145.075
-144.205
-146.684
-142.598
-142.774
-144.81
-143.89
-144.779
-143.423
-143.286
-143.011
-143.556
-143.854
-145.035
-144.23
-145.336
-143.914
-143.939
-144.356
-145.052
-145.691
-143.769
-143.755
-143.935
-143.759
-142.435
-142.112
-142.417
-143.834
-143.743
-143.931
-144.424
-142.323
-141.991
-142.3
-142.335
-143.776
-144.55
-143.655
-144.297
-142.543
-144.808
-144.84
-145.298
-145.777
-146.149
-144.728
-142.911
-142.644
-146.897
-145.196
-144.776
-142.769
-142.762
-145.773
-144.512
-145.397
-144.945
-144.949
-146.347
-143.89
-143.684
-143.999
-143.625
-144.15
-143.713
-144.604
-143.786
-142.196
-144.468
-144.216
-144.497
-143.035
-142.475
-144.606
-144.574
-144.609
-143.352
-143.782
-143.403
-143.696
-144.785
-144.633
-144.077
-143.68
-144.066
-144.181
-142.317
-144.98
-144.516
-145.403
-143.162
-143.607
-143.757
-143.595
-144.779
-144.456
-144.611
-142.185
-144.51
-145.173
-145.372
-143.306
-143.232
-142.769
-144.479
-144.408
-143.925
-143.703
-143.952
-144.086
-142.509
-142.655
-144.661
-145.276
-144.54
-144.295
-144.5
-144.564
-143.254
-143.531
-142.764
-144.334
-143.37
-144.536
-145.445
-145.116
-144.575
-144.827
-144.2
-144.177
-144.023
-144.274
-142.139
-143.029
-143.061
-145.394
-145.349
-144.444
-143.534
-143.4
-142.692
-144.249
-145.562
-145.478
-146.852
-143.514
-143.993
-142.916
-142.534
-143.901
-143.758
-144.433
-144.531
-145.904
-143.437
-143.458
-142.804
-142.462
-143.418
-145.181
-145.223
-144.309
-143.342
-143.619
-144.859
-144.406
-146.758
-143.526
-142.514
-143.756
-144.554
-145.208
-144.87
-144.048
-144.145
-144.293
-144.57
-142.259
-143.017
-143.481
-144.697
-144.337
-145.655
-143.782
-143.807
-144.671
-145.164
-144.326
-144.851
-144.253
-144.597
-141.942
-143.806
-143.595
-143.977
-143.062
-143.382
-144.589
-144.952
-145.72
-143.623
-143.641
-143.634
-143.843
-143.635
-144.281
-143.953
-143.284
-142.637
-143.282
-142.912
-143.212
-144.906
-145.047
-144.625
-145.087
-144.693
-147.247
-142.692
-142.736
-145.396
-144.678
-145.116
-145.183
-144.884
-146.67
-143.68
-143.74
-143.931
-143.468
-143.632
-144.32
-143.33
-143.651
-144.251
-144.298
-144.793
-144.141
-143.82
-143.958
-143.964
-142.599
-144.619
-145.004
-144.431
-143.742
-143.22
-143.67
-143.829
-144.693
-144.714
-144.293
-144.238
-144.148
-144.39
-142.164
-143.34
-142.993
-144.964
-145.741
-145.143
-143.656
-143.513
-143.877
-143.522
-143.869
-145.113
-145.672
-145.164
-143.955
-142.884
-143.701
-143.394
-143.773
-143.795
-144.162
-142.627
-144.356
-144.218
-144.042
-143.538
-143.019
-144.687
-144.637
-146.182
-143.975
-143.574
-144.606
-144.748
-143.873
-144.032
-144.039
-143.911
-142.442
-144.087
-143.769
-143.246
-143.23
-144.421
-144.567
-142.973
-143.154
-142.947
-143.088
-145.074
-145.215
-145.211
-144.883
-144.945
-143.943
-143.747
-143.937
-144.114
-142.304
-145.154
-144.585
-145.184
-143.569
-142.969
-143.675
-143.287
-145.177
-144.608
-143.832
-144.269
-143.854
-144.029
-142.117
-143.633
-143.362
-143.629
-143.622
-143.069
-144.818
-145.44
-145.1
-143.816
-143.117
-143.491
-142.527
-143.285
-142.678
-145.155
-144.855
-144.76
-143.156
-143.827
-143.257
-143.726
-143.483
-143.711
-143.678
-144.445
-144.634
-143.568
-143.566
-143.66
-143.769
-142.738
-143.485
-142.921
-144.763
-145.059
-144.57
-143.912
-143.554
-143.833
-143.075
-144.837
-145.24
-145.402
-143.766
-143.224
-144.57
-144.963
-143.807
-143.639
-144.404
-143.464
-142.463
-143.33
-142.759
-144.815
-144.34
-146.651
-143.937
-143.528
-144.652
-145.933
-144.299
-144.295
-143.669
-144.299
-142.154
-143.501
-143.71
-143.499
-143.584
-143.859
-143.861
-143.877
-143.824
-143.007
-142.182
-142.386
-142.351
-143.791
-144.159
-143.868
-144.748
-142.261
-144.624
-144.415
-143.839
-144.012
-144.098
-143.598
-142.33
-143.416
-142.916
-144.728
-146.063
-144.57
-143.57
-143.618
-144.026
-144.1
-143.724
-144.184
-144.272
-144.339
-143.77
-144.073
-143.863
-142.532
-143.555
-143.728
-143.994
-144.168
-143.629
-143.238
-143.417
-143.59
-143.843
-142.71
-143.67
-145.19
-145.03
-145.85
-143.499
-143.666
-143.37
-144.567
-143.582
-144.686
-144.562
-144.133
-144.227
-144.349
-143.721
-142.31
-143.413
-142.898
-144.78
-144.603
-144.683
-143.652
-143.57
-144.318
-144.294
-144.27
-143.672
-143.43
-144.103
-142.364
-143.32
-143.897
-144.047
-143.798
-142.809
-145.251
-146.018
-144.983
-143.815
-143.6
-144.487
-144.557
-144.056
-143.61
-144.018
-144.002
-142.324
-143.856
-143.459
-143.954
-143.34
-143.038
-143.293
-142.936
-144.503
-145.097
-145.024
-145.576
-144.577
-146.815
-145.388
-145.113
-144.934
-142.936
-142.978
-145.355
-145.613
-144.704
-144.912
-144.183
-145.572
-143
-143.725
-144.388
-143.867
-143.943
-143.314
-145.559
-144.61
-145.289
-145.081
-145.029
-143.963
-144.622
-144.591
-144.177
-142.181
-145.062
-144.846
-143.968
-144.111
-144.406
-144.41
-142.238
-143.501
-143.373
-143.357
-143.539
-143.092
-145.108
-145.772
-144.548
-143.839
-143.573
-143.563
-142.743
-144.933
-145.812
-145.078
-143.744
-143.635
-143.022
-142.331
-143.167
-142.75
-143.639
-143.988
-144.082
-143.687
-143.209
-142.373
-143.348
-142.781
-144.994
-144.874
-144.657
-143.365
-144.608
-143.975
-142.131
-142.964
-143.696
-145.512
-144.759
-144.643
-143.901
-143.715
-143.943
-142.787
-145.338
-144.957
-144.656
-143.675
-143.464
-146.174
-146.122
-145.004
-145.221
-145.502
-144.496
-142.655
-142.77
-145.63
-145.025
-144.728
-143.392
-142.196
-143.344
-142.695
-143.947
-143.81
-143.495
-144.29
-142.457
-142.246
-142.235
-143.592
-143.598
-145.639
-144.744
-145.315
-143.919
-143.345
-145.85
-144.727
-145.359
-143.483
-143.414
-142.86
-145.764
-144.81
-145.173
-142.612
-142.419
-145.803
-144.479
-144.704
-146.742
-144.37
-145.614
-144.242
-145.034
-144.258
-142.738
-144.67
-144.292
-144.822
-143.504
-143.314
-142.794
-142.238
-143.977
-143.682
-143.656
-144.178
-142.639
-142.281
-143.445
-143.442
-142.784
-144.244
-143.41
-145.226
-144.476
-145.47
-143.964
-143.745
-143.642
-144.628
-144.536
-144.072
-144.205
-143.91
-143.928
-142.242
-142.816
-143.648
-145.738
-144.787
-144.964
-143.484
-143.412
-143.516
-143.08
-145.27
-144.358
-144.831
-143.731
-143.481
-142.383
-144.49
-144.396
-144.992
-144.548
-144.537
-144.737
-143.357
-143.346
-142.996
-143.127
-142.884
-143.039
-143.284
-143.657
-143.776
-143.788
-143.597
-143.135
-142.043
-144.722
-144.648
-143.989
-143.53
-144.387
-144.144
-142.23
-145.217
-144.667
-144.004
-143.477
-143.937
-144.24
-142.172
-142.925
-143.383
-145.855
-144.698
-144.336
-143.615
-143.583
-142.497
-143.941
-145.832
-145.95
-145.157
-143.31
-143.972
-145.083
-145.037
-144.635
-145.059
-145.424
-144.446
-142.926
-143.143
-144.266
-144.709
-144.259
-142.841
-143.567
-143.475
-143.772
-143.858
-143.616
-145.451
-144.752
-145.13
-145.103
-144.529
-147.375
-142.974
-142.975
-143.52
-144.811
-145.324
-145.276
-145.184
-144.279
-143.593
-142.721
-143.743
-144.862
-144.212
-143.698
-144.826
-145.189
-144.991
-146.901
-144.875
-144.857
-143.313
-142.764
-144.504
-145.141
-145.751
-143.823
-143.633
-143.896
-142.562
-145.939
-145.814
-145.177
-143.773
-143.2
-144.761
-145.664
-144.398
-144.364
-144.383
-144.062
-142.167
-145.267
-144.128
-144.133
-144.469
-144.084
-144.382
-141.764
-143.479
-143.6
-144.25
-144.893
-144.406
-144.449
-144.238
-144.337
-144.806
-142.448
-143.698
-143.491
-142.702
-142.054
-143.404
-143.377
-143.619
-144.059
-143.802
-144.08
-143.227
-143.454
-142.929
-144.497
-144.886
-144.49
-143.588
-143.608
-144.733
-144.818
-144.309
-143.314
-144.539
-144.289
-142.209
-142.933
-142.921
-144.97
-145.116
-144.395
-143.546
-144.019
-144.202
-142.226
-145.38
-145.133
-144.987
-142.834
-142.682
-145.712
-144.219
-145.285
-145.234
-145.194
-145.012
-144.973
-144.403
-145.012
-141.656
-144.637
-144.681
-144.884
-143.371
-143.146
-142.549
-142.337
-144.053
-143.871
-143.968
-144.482
-142.612
-142.084
-143.467
-143.422
-142.928
-144.162
-143.544
-145.3
-144.589
-145.084
-142.747
-142.912
-144.489
-145.641
-144.799
-146.438
-144.732
-145.123
-144.977
-144.782
-145.719
-143.087
-142.788
-143.172
-142.514
-145.46
-144.61
-145.254
-144.86
-144.863
-144.631
-141.93
-143.351
-142.204
-142.088
-143.772
-144.625
-143.821
-143.586
-142.561
-144.115
-143.603
-144.375
-145.033
-145.307
-143.881
-143.543
-144.512
-145.108
-146.865
-143.943
-143.152
-144.604
-145.852
-144.273
-143.88
-143.345
-145.113
-145.402
-144.736
-144.521
-144.658
-144.277
-141.851
-143.309
-144.066
-144.003
-144.513
-143.825
-143.941
-144.32
-144.347
-144.127
-142.609
-143.372
-142.433
-144.787
-143.959
-144.645
-142.408
-144.131
-144.398
-144.594
-143.468
-143.338
-142.615
-142.293
-143.172
-142.241
-143.842
-143.727
-143.823
-144.058
-143.096
-142.887
-143.614
-144.506
-144.914
-145.452
-143.54
-143.616
-142.756
-143.686
-144.531
-144.876
-145.39
-143.565
-143.771
-142.984
-143.13
-144.43
-144.669
-143.721
-143.332
-143.896
-144.427
-142.382
-144.673
-145.058
-144.407
-143.423
-143.998
-143.686
-142.294
-142.871
-142.67
-145.921
-144.352
-145.238
-145.305
-145.248
-145.051
-144.139
-143.557
-144.603
-145.533
-145.4
-145.152
-145.352
-145.416
-143.856
-143.628
-143.78
-144.076
-143.32
-143.577
-143.621
-143.389
-143.877
-142.794
-143.555
-145.039
-144.88
-145.089
-143.349
-143.752
-143.598
-144.156
-143.185
-145.299
-144.648
-144.006
-143.898
-143.658
-144.174
-142.201
-145.437
-146.206
-146.114
-143.771
-142.636
-143.761
-143.374
-144.446
-144.924
-144.199
-143.959
-143.912
-143.533
-142.545
-144.007
-143.978
-143.705
-144.441
-145.375
-144.509
-143.837
-143.22
-143.813
-143.673
-143.919
-144.502
-144.306
-142.514
-144.248
-144.368
-143.929
-144.077
-144.093
-143.754
-143.154
-142.98
-142.872
-143.143
-145.052
-144.938
-144.789
-143.488
-144.183
-143.51
-142.808
-143.515
-144.909
-144.974
-144.848
-143.206
-143.728
-145.026
-144.839
-144.268
-143.598
-143.897
-144.011
-142.173
-145.311
-144.444
-145.013
-143.719
-143.106
-143.646
-143.477
-143.814
-143.861
-143.902
-143.893
-144.408
-142.899
-141.851
-143.376
-142.587
-144.228
-145.186
-144.685
-143.864
-144.147
-144.194
-141.854
-143.43
-144.021
-145.035
-144.547
-144.799
-143.684
-143.283
-143.486
-143.538
-144.055
-142.19
-144.343
-144.791
-143.984
-145.921
-144.781
-144.988
-143.15
-143.598
-143.72
-143.542
-145.226
-144.573
-143.801
-144.681
-144.291
-144.775
-142.267
-143.454
-143.442
-143.675
-144.769
-145.068
-144.844
-143.701
-143.023
-143.77
-143.413
-144.496
-144.8
-143.881
-143.669
-144.344
-144.588
-142.289
-143.228
-141.973
-143.915
-143.524
-143.627
-143.466
-144.115
-143.235
-142.165
-142.703
-143.871
-145.02
-144.936
-145.987
-143.612
-143.903
-143.842
-143.752
-143.826
-144.262
-144.614
-143.718
-143.659
-143.592
-143.809
-142.663
-144.651
-144.575
-144.254
-143.068
-143.661
-143.595
-143.465
-143.599
-144.049
-143.977
-142.269
-144.701
-144.41
-144.318
-143.181
-143.656
-144.092
-144.069
-143.789
-143.626
-143.759
-143.597
-143.278
-144.387
-144.089
-143.833
-144.11
-143.754
-144.419
-142.47
-142.659
-143.598
-145.729
-145.247
-145.038
-143.644
-143.466
-144.79
-144.281
-144.095
-143.468
-143.742
-143.82
-142.596
-146.501
-144.863
-144.567
-142.881
-143.635
-143.762
-143.632
-144.024
-143.656
-143.179
-142.824
-143.601
-144.442
-144.872
-146.399
-143.835
-143.568
-144.626
-144.405
-144.041
-143.383
-143.839
-144.09
-142.411
-144.522
-144.852
-145.054
-142.959
-143.604
-143.693
-143.594
-143.716
-144.046
-144.281
-142.27
-144.899
-144.51
-144.347
)
;
    }
}


// ************************************************************************* //
