/*--------------------------------*- C++ -*----------------------------------*\
| =========                 |                                                 |
| \\      /  F ield         | OpenFOAM: The Open Source CFD Toolbox           |
|  \\    /   O peration     | Version:  v1912                                 |
|   \\  /    A nd           | Website:  www.openfoam.com                      |
|    \\/     M anipulation  |                                                 |
\*---------------------------------------------------------------------------*/
FoamFile
{
    version     2.0;
    format      ascii;
    class       volScalarField;
    location    "390/oil";
    object      heatTransferCoeff(T);
}
// * * * * * * * * * * * * * * * * * * * * * * * * * * * * * * * * * * * * * //

dimensions      [1 0 -3 -1 0 0 0];


internalField   uniform 0;

boundaryField
{
    maxY
    {
        type            calculated;
        value           uniform 0;
    }
    minX
    {
        type            calculated;
        value           uniform 0;
    }
    maxX
    {
        type            calculated;
        value           uniform 0;
    }
    minY
    {
        type            calculated;
        value           uniform 0;
    }
    minZ
    {
        type            calculated;
        value           uniform 0;
    }
    maxZ
    {
        type            calculated;
        value           uniform 0;
    }
    oil_to_sphere
    {
        type            calculated;
        value           nonuniform List<scalar> 
1536
(
-15.9542
-10.8584
-10.7352
-1.46641
-1.2441
-10.6186
-6.49935
-8.20735
-7.59656
-2.27836
1.46657
-2.97921
-7.50631
-3.17009
2.65707
-5.94773
-10.6292
-10.9811
-5.67672
-7.2389
-9.39452
-7.67961
-8.03607
-5.89293
-6.38909
-6.13937
-6.37297
-5.26978
-10.3166
-7.84246
-11.8437
-10.8953
-11.0698
-6.00374
-6.30257
-5.31538
-5.78783
-4.28959
-5.22869
-6.34657
-5.02244
-5.76276
-7.42209
-8.46339
-9.71419
-6.28308
-9.28339
-7.95513
2.26104
-6.11022
-8.91801
-7.66721
-7.85657
-5.88926
-10.1513
-13.6372
-7.97982
-7.24994
-9.31141
-8.84047
-7.2935
-7.45243
-7.19232
-5.75371
-6.25011
-7.06979
-7.22598
-9.03336
-8.99376
-10.1298
-5.72873
-1.23111
-2.87816
-6.15213
-6.12941
-13.9741
-11.1353
-4.33143
-5.95928
-10.8032
-9.46271
-8.70842
-1.50772
-1.37486
-10.2911
-14.9666
-0.193052
-6.79487
-8.8458
-8.82139
-7.58936
-5.48551
-5.40057
-5.63166
-6.12144
-8.42034
-9.34864
-9.69906
-11.5065
-8.70406
-9.49739
-5.656
-16.0338
-8.96036
-2.65632
-6.03081
-6.44969
-1.82565
-1.77656
-16.162
-11.0838
-8.17964
-7.41533
-8.04705
-0.779895
-1.27144
0.223732
-12.7007
-15.4792
-11.3657
-7.81757
-8.04682
-5.17073
-9.28787
-11.7873
-8.44982
-7.78434
-4.83442
-9.60137
-9.29496
-7.09081
-9.08912
-10.0852
-6.5037
-6.81962
-10.388
-8.07557
-10.8429
-4.92926
-10.6808
-7.64473
-9.23635
-9.28846
-7.49239
-6.90593
-7.37908
-8.5139
-12.4898
-6.85284
-16.2481
-9.9256
-10.6727
-7.97871
-8.25936
-6.15099
-8.4564
-10.3568
-9.1886
-17.0827
-11.4989
-11.0706
-12.7309
-3.55431
-4.36285
-5.55398
-5.46944
-10.0838
-12.2599
-11.5064
-13.6586
-5.24778
-5.56444
-4.37906
-9.36142
-7.78873
-8.2607
-14.527
-3.832
-2.64551
-14.9687
-5.36182
-4.4386
-4.24214
-4.72219
-8.8224
-14.9765
-11.535
-5.00914
-3.38777
-10.8968
-3.71622
-10.0184
-10.0275
-12.2936
-2.92149
3.75981
-12.0999
-12.8031
-6.38041
-6.09542
-7.6883
-6.55953
-10.9753
-12.0399
-9.7985
-8.72236
-5.59823
-12.4463
-11.5447
-8.19334
-4.83032
-6.24728
-6.04092
-6.627
-9.44997
-13.8018
-3.37302
-3.08488
-3.24126
4.45319
-10.6074
-9.39025
-8.66957
-7.64219
-7.86018
-12.4563
-9.98242
-6.16064
-10.635
-2.31907
-5.33305
3.53152
-7.47365
-10.2871
-12.1252
-11.5972
-10.6342
-9.56654
-11.3493
-2.87569
-3.60849
-4.23871
-12.9219
-4.57035
3.6259
0.0361092
-9.4316
-7.28032
-14.6113
-16.9082
-8.13391
-1.3622
4.31367
-8.82347
-11.4044
-5.64446
-5.80028
-0.55191
-5.45614
-12.4428
-15.1693
-7.1943
-5.78761
-13.3799
-11.5653
-6.20312
-2.70687
-6.82255
-13.9657
-12.7522
-9.57837
-10.0438
-11.9113
-4.23903
-6.00314
-12.1788
-10.0353
-10.7528
-7.42156
-10.6437
-13.6616
-9.74783
-9.33096
-13.105
-5.68179
-5.61898
-6.06102
-5.22697
-5.52654
-12.3644
-14.1265
-2.92253
-6.67494
-6.40359
-6.59772
-4.9976
-7.86566
-7.36913
-4.45525
-0.618427
-5.39551
-3.0349
-4.96035
-14.9888
-13.2267
-13.1305
-16.4164
-3.91756
-4.28673
-7.66267
-16.2692
-15.1272
-5.33763
-7.45946
-5.07194
-9.93804
-5.88628
-9.29711
-9.72067
-11.1559
-10.1839
-6.30344
-10.3627
-5.34114
-11.9404
-12.5976
-10.8098
-10.3941
-4.59608
-14.2622
-14.0282
-9.81299
-2.80422
-5.62696
-6.52555
-9.74076
-9.23931
-9.99572
-4.43128
-11.857
-11.9507
-11.2061
-13.0995
-9.07398
-8.4374
-7.24527
-3.59732
-8.46389
-9.83924
-3.55348
-3.18875
-4.0918
-15.711
-11.7478
-13.1007
-9.19382
-8.3481
-12.245
-3.31285
-14.6105
-11.1534
-8.45481
-8.34704
-2.98327
-11.0933
-11.6325
-4.78576
-8.46741
-7.13067
-5.80362
-9.95124
-11.7721
-7.41769
-6.17033
-3.95379
-13.8128
-11.9766
-3.14296
-12.2929
-11.5775
-10.6094
-13.7994
-8.38942
-10.2169
-2.15986
-2.96487
-9.69924
-16.2113
-10.8344
-14.568
-9.1227
-6.47059
-11.4783
-4.06106
-5.05187
-9.25482
-11.6794
-10.0272
-9.24819
-4.27201
-4.30128
-12.2005
-11.8722
-11.9904
-8.26982
-5.47629
-9.39026
-10.4038
-11.6196
-8.56518
-6.80566
-4.6139
-8.11987
-3.81601
-1.84029
-5.60268
-4.66625
-8.20105
-2.31836
-6.53205
-14.2621
-6.41601
-6.35367
-11.6207
-11.5619
-9.85405
-7.15013
-3.49825
-10.7832
-13.1649
-9.60002
-8.62191
-10.9807
-7.47792
-8.01522
-9.10384
-1.45504
-9.51707
-11.9607
-13.0503
-11.424
-10.2787
-10.0649
-8.61468
-6.92269
-4.06828
-7.78864
-4.62078
-2.99811
-5.08262
-1.8118
-15.144
-14.4462
-12.6314
-15.8821
-3.8931
-15.2115
-4.39105
-5.38938
-10.6002
-3.52467
-4.23345
-6.59314
-6.4262
-14.6214
-13.1873
-9.12094
-9.47939
-13.7219
-12.2323
-8.56088
-10.3644
-4.90874
-11.6917
-2.79979
-12.9921
-1.40921
-10.1313
-10.7581
-11.4207
-6.27287
-4.01742
-7.05155
-11.5807
-7.2904
-2.43477
-11.6495
-12.0539
-12.643
-16.5922
-8.50368
-13.5601
-3.872
-4.51285
2.03974
0.0258759
-8.53758
-6.5762
-5.91747
-5.0885
-15.5707
-4.26156
-3.32674
-2.61806
-6.57808
-2.25665
-17.0144
-4.86076
-5.23807
-7.8201
1.34378
-0.457826
-5.64013
-5.50647
-7.42531
-6.15254
-12.0196
-11.3988
-10.0899
-8.50797
-1.9577
-5.89525
-11.2135
-4.05543
-4.80459
-10.7897
-13.8708
-4.8836
2.08839
-3.60055
1.48563
-7.70817
-6.28378
-5.25341
-2.76484
1.3683
-9.96257
-10.6778
-9.271
-7.61766
-14.005
-10.1256
-9.75823
-8.35779
-4.55896
-6.07199
-11.9978
-10.1008
-6.73182
0.205834
-8.69727
-10.9909
-14.2963
-8.8691
-5.59433
-14.3371
-7.82376
-13.6283
-4.85826
-6.29068
-4.19514
-6.4121
-8.78392
-13.881
-3.86492
-5.2041
-4.53096
-6.57962
-17.1688
-2.76596
-6.00354
-3.25581
-7.83135
-8.75917
-12.046
-14.0161
-1.93389
-2.83126
-13.9381
-14.5492
-0.96396
-13.6084
-12.3125
-10.8191
-12.1388
-9.7565
-8.12682
-8.40462
-13.7672
-8.53421
-9.8515
-8.10563
-11.6419
-8.89317
-7.7236
-7.37391
-3.59533
-10.8031
-7.57942
-11.5552
-10.2499
-10.358
-10.0801
-8.57375
-2.96117
-12.1507
-12.1115
-9.92021
-7.66837
-9.00253
-15.9963
-2.15569
-4.76948
-3.78579
-8.66616
-4.95042
-16.051
-6.4298
-6.94945
-7.93149
1.9285
1.09206
-5.79714
-5.69449
-8.38547
-4.1955
-5.11983
-8.80995
-5.25718
-14.0591
-3.55262
-15.7382
-6.32926
-8.53391
3.63821
1.28578
2.11352
-5.26057
-10.8284
-5.98122
-5.27183
1.42067
-8.19284
-11.0805
-8.28986
-18.4015
-4.87008
-12.0052
-9.77914
-11.0102
-12.4482
-12.237
-10.9572
-7.83067
-6.80295
-7.7713
-11.012
-7.15476
-9.33744
-8.8047
-9.23713
-11.449
-10.1078
-10.7786
-3.49117
-4.64653
3.898
-0.613523
-1.70812
6.87415
-5.62984
-6.16515
-7.16675
-7.70607
-1.82701
-3.68798
-6.71658
-12.7815
-12.2015
-6.62032
-2.56064
-7.48933
-11.298
-9.84908
-7.96651
-2.19842
-4.86724
-9.99278
-9.0026
-7.87354
-5.79501
-10.4655
-10.5455
-13.8021
-10.6194
-8.64748
-6.16024
-5.03962
-3.50782
-5.49292
-7.24696
-16.3303
-8.54306
-14.9692
-4.86286
-16.7369
-5.64032
-7.34201
-3.87263
-4.37109
-6.20709
-3.38505
-7.06159
-2.28102
-5.86336
-11.9136
-6.52142
-3.08914
-14.1396
-10.3131
-9.43202
-7.54195
-13.5867
-19.1131
-0.707564
-10.1704
-9.11589
-9.8362
-3.35876
-7.6263
-5.04378
-9.1809
-10.6318
-12.2633
-4.5119
-9.96246
-8.3154
-10.5328
-10.219
-9.72211
-6.64116
-7.24136
-5.92501
-2.49029
-1.93987
-4.13771
-13.3729
-5.88343
-3.29758
-6.02681
-12.0487
-7.00265
-13.3247
-11.3728
-9.57503
-8.63523
-9.47099
-14.4122
-4.14819
-10.0879
-12.3119
-12.8512
-8.53874
-5.001
-6.87657
-9.48668
-12.9978
-3.7922
-7.30012
-8.38255
-11.9221
-9.50832
-9.40238
-13.5112
-3.88646
-5.21593
-4.5666
-14.4368
-12.2012
-8.43675
-11.8767
-5.27304
-5.85579
-11.8585
-9.36059
-13.8386
-4.37955
-11.0689
-11.678
-8.78741
-9.21862
-10.7775
-4.46612
-1.65536
-8.05772
-9.39136
-14.5891
-7.42289
-5.5331
-7.76582
-9.53377
-10.9868
-8.63995
-5.11125
-7.46407
-11.6416
-3.85962
-5.12877
-7.47259
-5.7923
-9.06716
-8.61255
-12.7428
-9.80515
-11.3997
-5.9999
-7.80612
-9.05757
-7.63789
-6.86224
-6.14941
-6.08405
-3.99577
-10.3989
-8.92843
-8.93581
-9.59862
-2.82862
-6.43489
-14.2448
-14.3676
-5.11955
-11.9854
-9.51083
-10.3657
-6.00637
-12.9131
-12.5687
-4.27484
-6.99592
-6.35691
-6.14374
-2.64856
-3.70987
-6.35786
-12.446
-16.0071
-5.54574
-10.7337
-10.3777
-9.40813
-7.16289
-9.0943
-12.7065
-8.89833
-4.42881
-6.47198
-6.02689
-6.23943
-9.84066
-10.3289
-10.4245
-10.6781
-10.6373
-5.1465
-10.9405
-6.59556
-10.1227
1.36942
-9.61739
-13.2313
-6.84229
-0.701816
-7.94977
-7.23627
-14.9628
-4.65198
-10.9476
-7.72606
-1.57675
-14.0467
-3.0726
-7.30309
-8.12936
-2.77387
-11.9901
-9.14713
-7.15913
-8.41118
-9.1114
-7.29508
-15.2535
-3.197
-6.26217
2.69713
-6.61155
-6.87449
-8.29682
-11.9455
-19.4138
-2.33644
-6.31145
-17.7488
-3.10929
-10.5635
-5.00339
-10.3541
-0.279978
-4.66979
-17.5773
-1.24641
-16.4292
-2.07663
-14.6972
-1.63838
-4.58926
2.16233
-3.20251
-16.8618
0.810913
-7.63817
-1.22189
-13.515
-16.93
0.539472
-6.88598
-5.6504
-4.44336
-4.27932
-6.39037
-8.18514
-8.16225
-10.2217
-7.77046
-13.6685
-18.1645
0.651754
-8.13717
-9.60493
-8.18017
-8.77672
-7.51222
-6.85556
-7.49224
-11.246
-7.61498
-11.347
-6.19338
-8.91489
-13.2343
-6.80666
-10.032
-12.0722
-6.17181
-8.91484
-7.73565
-10.1591
-7.32351
-8.49895
-6.93881
-11.8187
-6.50405
-9.38173
-2.01634
-13.89
0.299758
-9.34313
-11.6052
-14.1123
-4.76839
-8.68619
-7.78579
-8.68446
-8.29711
-7.60474
-11.1663
-4.17616
3.92305
-6.86133
-0.764027
-12.2387
-4.86183
-8.0476
-10.4515
3.28414
-12.9358
-3.97426
1.64612
-4.51928
-10.5976
-10.2775
-8.2558
0.719064
-8.1716
-8.90591
-5.49719
-4.8954
-12.3928
-11.6964
-5.90802
-8.37652
-12.422
0.598242
-11.1469
-4.78782
-10.0463
0.123283
-15.9594
-15.5518
-11.6763
-8.15502
-6.85863
-10.4312
-6.65068
0.792671
-3.80628
-10.7589
-5.01673
-9.69602
-0.663896
-12.1109
-10.031
5.74671
-8.20201
-9.16565
2.94641
-13.0829
-1.88954
-12.3177
-13.9576
-11.0653
1.48698
-8.46233
-7.05039
-8.25901
-8.57249
-9.73166
0.518782
-6.09461
-5.14067
-5.16542
-11.9662
-7.97546
-9.23213
-10.2913
-10.0387
-6.98
-8.62752
-7.22412
-9.34289
-12.5212
-5.89436
-6.76546
-5.63
-8.51412
-11.5542
-5.83274
-6.6364
-6.23937
-8.04406
-5.11089
-5.46996
-6.59649
-6.94189
-8.54237
-6.45267
-13.8378
-11.1747
-1.0689
-1.1963
-13.085
6.84704
-10.8743
-8.87164
-5.09428
-6.95531
-13.28
3.29674
-12.2229
-9.23458
1.10807
-6.30147
-5.48037
-8.01513
3.77396
-13.0567
-9.37659
3.1393
-12.6815
-12.7595
-0.102423
-14.1592
-11.6752
-0.227143
-5.59926
-5.12984
3.18646
-8.15855
-8.67865
-3.87079
-4.78951
-4.39065
5.4155
-4.68023
3.6285
6.01894
-11.8711
-5.61539
-16.8756
-5.88388
0.577314
-13.1417
-7.23869
2.23988
-5.88135
-5.65233
2.34967
-1.20304
-12.8019
8.33255
-3.84489
-2.98877
6.87976
-12.2107
-11.3324
-8.12351
-6.53989
-5.56809
-3.88246
4.48646
-8.27216
-6.62104
-6.82874
-8.13884
1.64201
-10.6424
-5.90928
-7.59397
-5.48522
-7.43517
-8.51422
-3.59269
1.22716
-6.38612
-8.69487
-5.81302
-6.52514
-7.7397
-4.76976
-6.73434
1.86312
-5.90566
-9.19062
-5.55665
-6.99183
-4.90619
1.07518
-13.2201
-13.0421
-12.6419
-14.1619
-0.0505836
2.88066
-5.99395
-10.8809
-8.65733
-10.5127
-11.2343
-3.86016
-2.8753
2.72534
0.547893
-4.74285
-7.6585
-7.36632
-7.15825
-2.89936
-11.9366
-9.26909
-0.324291
-4.5528
-3.66459
-11.1378
-4.86371
4.53402
-7.64082
-7.92193
-12.1783
2.03345
-5.5583
-8.55896
-6.17807
-6.96782
-10.3419
-7.54458
-3.98379
-14.6541
6.1302
-2.12281
-7.07617
-4.81405
-6.41357
-14.0941
-9.43204
-7.96674
-2.30937
-13.2859
-6.07748
-8.50183
-11.2227
-12.1794
-11.8058
-12.147
-13.7474
-14.7904
-13.5617
-13.5782
-8.02703
-11.4477
-5.88012
-6.95006
-2.75559
-1.54773
5.28478
-14.289
-13.9856
-12.6234
-6.74022
-8.54205
-8.23291
-4.96423
-8.79536
-11.3765
-4.13942
-7.21133
-10.1197
-5.57196
-5.98571
-5.75217
-6.67637
-4.73652
-6.52964
-6.13904
0.0970642
-8.51589
-4.21535
-7.17496
2.34768
-14.2545
-7.38345
-5.27739
-4.56328
-0.431905
-7.89645
-5.40586
3.11893
-2.15506
-7.27183
-1.37527
-2.54066
-15.0035
-15.5164
-6.18254
-6.22626
-10.7291
-14.0209
3.23771
-4.89446
-4.73178
-6.4416
-6.407
-6.79883
-7.49352
-2.78722
0.925301
-13.0309
-6.29707
-1.85197
-2.69769
-6.18035
-8.03658
-0.518208
-6.88729
-4.93928
-5.87805
-14.105
-1.9928
0.755289
-6.39967
-5.53128
-4.72033
0.804677
-12.2171
-6.10824
-5.91176
-6.14289
3.05567
-6.1734
-6.39509
0.572349
-6.05182
-2.12908
-9.28863
-12.8942
-4.94631
-11.4417
-9.08253
-5.11799
-5.2869
-6.54869
0.792074
-8.98719
-9.63535
-5.69881
2.04333
-3.54995
-7.0457
-7.37773
-5.02461
1.28629
-5.21217
-12.1936
-9.09022
-5.3136
-14.8636
-2.02166
-11.1642
2.87115
-1.76534
-11.5575
3.04932
-11.8754
-5.23217
-8.01508
-5.89429
-15.365
-3.09631
-8.12868
-14.1233
-13.2488
-0.974324
-12.9182
-14.1175
6.59016
-6.89183
-5.491
2.59277
-9.58731
-5.3873
-5.9273
-5.94428
-7.56445
-6.84268
-5.7066
-5.30238
2.89023
-9.57402
-8.00294
-7.73814
-8.4787
-6.73883
-5.09615
-3.61387
-10.6129
4.27991
-4.60955
-4.36724
3.85954
-11.6399
-14.5713
-7.27712
-12.6128
-13.2605
-4.89644
-5.04979
-9.49375
-12.5627
-4.73364
-10.0737
-2.67092
2.57073
-10.7504
-4.18093
-12.18
-14.8298
-13.962
2.03502
-11.2796
-8.14576
-3.95824
-5.65698
-6.42606
-5.43476
1.84644
-12.4995
1.52689
-12.3279
-6.66811
-2.67245
-1.78412
-6.74003
-10.2641
-13.6038
-7.83613
-16.3087
-10.871
-11.9246
3.26205
-11.4007
-10.4835
-12.2035
-4.88288
-4.07604
4.34013
-7.30641
-15.9231
-12.6551
1.03843
-3.00459
1.6223
-4.87641
-7.5085
-2.55091
-18.6082
-5.94896
-3.03483
0.793428
-9.0264
-4.17906
3.65192
-6.95292
-5.33399
-5.49137
-5.65355
-5.72545
0.701043
-2.65321
2.52929
-5.38419
-10.8236
-9.32739
-12.9167
-12.1874
-4.62022
-3.63108
2.93759
-5.15909
-10.2909
-13.4071
-10.8494
-11.1593
-1.88541
3.96764
-3.18102
4.68086
-10.6913
-11.0678
-3.64172
-11.7964
-10.5832
-12.9428
-8.75406
-8.02953
-7.88822
-4.61969
3.12626
-3.37775
2.08571
-2.36226
-5.65972
-5.0184
0.0731071
2.10164
-10.0006
-15.972
-14.8729
-13.966
-7.76423
-9.8378
-9.64944
-7.2999
-5.63229
-7.30389
-3.93814
-6.64378
-6.68823
2.04817
-10.5577
-6.28113
-3.03282
0.247839
-5.2568
-7.65208
-7.59748
-5.03846
0.199491
-13.6538
-8.96251
-5.45002
-14.748
-4.11644
2.4611
-9.33516
-6.66667
-6.72137
-6.72304
-5.16788
4.34011
-6.68592
-6.5856
1.45034
-13.331
-6.10167
8.29483
-5.63823
-7.44157
-7.77454
-5.13795
1.86854
-4.43405
-4.68928
-1.5436
-6.94751
2.88818
-7.17637
-6.88684
-1.11815
-14.6102
-6.55654
0.579264
-15.6522
-7.33444
-7.33067
0.330573
-6.88691
1.5632
)
;
    }
}


// ************************************************************************* //
