/*--------------------------------*- C++ -*----------------------------------*\
| =========                 |                                                 |
| \\      /  F ield         | OpenFOAM: The Open Source CFD Toolbox           |
|  \\    /   O peration     | Version:  v1912                                 |
|   \\  /    A nd           | Website:  www.openfoam.com                      |
|    \\/     M anipulation  |                                                 |
\*---------------------------------------------------------------------------*/
FoamFile
{
    version     2.0;
    format      ascii;
    class       volScalarField;
    location    "390/oil";
    object      wallHeatFlux;
}
// * * * * * * * * * * * * * * * * * * * * * * * * * * * * * * * * * * * * * //

dimensions      [1 0 -3 0 0 0 0];


internalField   uniform 0;

boundaryField
{
    maxY
    {
        type            calculated;
        value           uniform 0;
    }
    minX
    {
        type            calculated;
        value           uniform 0;
    }
    maxX
    {
        type            calculated;
        value           uniform 0;
    }
    minY
    {
        type            calculated;
        value           uniform 0;
    }
    minZ
    {
        type            calculated;
        value           uniform 0;
    }
    maxZ
    {
        type            calculated;
        value           uniform 0;
    }
    oil_to_sphere
    {
        type            calculated;
        value           nonuniform List<scalar> 
1536
(
880.361
599.174
592.378
80.9196
68.6523
585.946
358.643
452.895
419.19
125.725
-80.9302
164.399
414.207
174.931
-146.626
328.204
586.535
605.955
313.253
399.453
518.399
423.775
443.444
325.183
352.562
338.782
351.672
290.797
569.275
432.755
653.545
601.211
610.838
331.298
347.787
293.312
319.383
236.708
288.529
350.214
277.147
318
409.56
467.019
536.039
346.709
512.271
438.978
-124.77
337.171
492.104
423.084
433.538
324.981
560.157
752.51
440.335
400.06
513.816
487.829
402.467
411.237
396.883
317.499
344.891
390.121
398.741
498.469
496.283
558.971
316.125
67.9354
158.822
339.483
338.236
771.099
614.455
239.015
328.842
596.134
522.166
480.543
83.1995
75.8681
567.875
825.864
10.6531
374.949
488.12
486.775
418.791
302.702
298.015
310.765
337.791
464.645
515.87
535.202
634.936
480.298
524.073
312.111
884.746
494.44
146.581
332.789
355.908
100.743
98.0345
891.82
611.612
451.36
409.191
444.049
43.0366
70.161
-12.3461
700.831
854.147
627.168
431.382
444.033
285.332
512.515
650.436
466.272
429.551
266.771
529.817
512.909
391.282
501.546
556.509
358.884
376.316
573.225
445.622
598.322
272.004
589.375
421.848
509.673
512.549
413.44
381.08
407.188
469.808
689.2
378.153
896.581
547.704
588.93
440.276
455.762
339.421
466.635
571.498
507.039
942.628
634.522
610.889
702.511
196.134
240.751
306.478
301.813
556.436
676.51
634.935
753.691
289.581
307.054
241.644
516.574
429.793
455.837
801.614
211.459
145.985
825.987
295.875
244.931
234.09
260.58
486.835
826.414
636.517
276.413
186.944
601.294
205.067
552.823
553.324
678.364
161.215
-207.478
667.684
706.484
352.081
336.353
424.249
361.964
605.63
664.37
540.691
481.312
308.921
686.8
637.048
452.12
266.545
344.735
333.349
365.688
521.463
761.598
186.13
170.231
178.859
-245.74
585.32
518.162
478.393
421.703
433.733
687.356
550.847
339.956
586.859
127.973
294.291
-194.882
412.404
567.651
669.078
639.949
586.808
527.894
626.266
158.685
199.122
233.901
713.044
252.201
-200.089
-1.99258
520.445
401.736
806.254
933
448.839
75.1701
-238.044
486.887
629.305
311.469
320.067
30.4558
301.081
686.612
837.058
396.995
319.373
738.313
638.188
342.299
149.371
376.481
770.634
703.675
528.543
554.228
657.273
233.916
331.262
672.036
553.759
593.35
409.532
587.332
753.861
537.896
514.895
723.147
313.529
310.062
334.455
288.435
304.965
682.281
779.516
161.273
368.335
353.361
364.072
275.776
434.037
406.638
245.847
34.126
297.731
167.471
273.719
827.084
729.852
724.55
905.868
216.179
236.55
422.84
897.746
834.735
294.539
411.624
279.878
548.393
324.815
513.026
536.396
615.591
561.955
347.833
571.825
294.732
658.88
695.144
596.494
573.554
253.618
786.994
774.082
541.49
154.741
310.503
360.089
537.504
509.833
551.571
244.524
654.277
659.449
618.363
722.838
500.709
465.583
399.801
198.506
467.047
542.939
196.087
175.96
225.791
866.933
648.257
722.906
507.326
460.659
675.692
182.81
806.217
615.455
466.547
460.601
164.623
612.144
641.889
264.085
467.24
393.479
320.251
549.117
649.59
409.315
340.486
218.176
762.194
660.879
173.435
678.334
638.861
585.441
761.463
462.94
563.78
119.186
163.608
535.218
894.551
597.857
803.874
503.402
357.058
633.387
224.098
278.771
510.693
644.477
553.312
510.323
235.736
237.35
673.228
655.115
661.635
456.337
302.19
518.163
574.089
641.176
472.635
375.545
254.605
448.068
210.576
101.551
309.166
257.493
452.546
127.932
360.449
786.992
354.046
350.604
641.241
637.995
543.756
394.554
193.04
595.032
726.45
529.74
475.767
605.927
412.642
442.289
502.36
80.2923
525.164
660.001
720.126
630.386
567.19
555.391
475.368
382.004
224.495
429.788
254.982
165.44
280.466
99.9788
835.648
797.145
697.008
876.385
214.829
839.376
242.306
297.395
584.929
194.498
233.609
363.818
354.605
806.814
727.685
503.303
523.083
757.184
674.992
472.399
571.919
270.872
645.157
154.498
716.917
77.7623
559.054
593.64
630.201
346.144
221.687
389.112
639.028
402.292
134.355
642.825
665.14
697.659
915.573
469.25
748.264
213.667
249.029
-112.558
-1.42788
471.112
362.883
326.534
280.791
859.207
235.164
183.578
144.472
362.995
124.528
938.874
268.225
289.045
431.522
-74.1527
25.2638
311.23
303.855
409.737
339.507
663.25
629.001
556.773
469.481
108.031
325.311
618.777
223.788
265.126
595.391
765.401
269.487
-115.244
198.687
-81.9812
425.349
346.749
289.893
152.57
-75.5062
549.743
589.21
511.581
420.351
772.805
558.743
538.467
461.193
251.57
335.06
662.044
557.369
371.47
-11.3584
479.925
606.486
788.88
489.407
308.706
791.136
431.729
752.023
268.089
347.131
231.496
353.831
484.708
765.962
213.274
287.171
250.027
363.076
947.383
152.631
331.284
179.662
432.145
483.338
664.706
773.416
106.716
156.234
769.116
802.831
53.1934
750.923
679.418
597.011
669.832
538.374
448.449
463.778
759.687
470.928
543.616
447.28
642.41
490.737
426.197
406.901
198.396
596.121
418.241
637.626
565.598
571.56
556.225
473.108
163.401
670.485
668.318
547.403
423.148
496.768
882.693
118.957
263.191
208.909
478.217
273.175
885.71
354.806
383.48
437.669
-106.419
-60.2622
319.894
314.23
462.718
231.518
282.524
486.154
290.105
775.801
196.043
868.451
349.262
470.918
-200.769
-70.9525
-116.629
290.286
597.519
330.053
290.907
-78.3958
452.089
611.431
457.443
1015.4
268.74
662.46
539.628
607.559
686.91
675.25
604.634
432.11
375.398
428.833
607.656
394.811
515.252
485.856
509.718
631.771
557.761
594.778
192.652
256.405
-215.105
33.8556
94.2588
-379.34
310.664
340.203
395.473
425.231
100.818
203.508
370.629
705.289
673.288
365.318
141.301
413.27
623.433
543.483
439.602
121.313
268.581
551.41
496.772
434.47
319.777
577.498
581.908
761.606
585.987
477.177
339.93
278.097
193.569
303.111
399.901
901.116
471.417
826.012
268.343
923.551
311.242
405.143
213.699
241.205
342.517
186.794
389.67
125.871
323.55
657.404
359.862
170.464
780.233
569.086
520.468
416.175
749.725
1054.66
39.0449
561.214
503.024
542.769
185.342
420.828
278.324
506.612
586.676
676.699
248.974
549.737
458.853
581.208
563.894
536.474
366.469
399.588
326.95
137.418
107.046
228.325
737.923
324.657
181.967
332.57
664.861
386.419
735.268
627.564
528.36
476.503
522.622
795.275
228.905
556.655
679.379
709.135
471.176
275.962
379.458
523.483
717.226
209.26
402.83
462.557
657.87
524.676
518.833
745.557
214.461
287.823
251.993
796.636
673.277
465.551
655.373
290.976
323.134
654.363
516.531
763.629
241.671
610.791
644.404
484.901
508.695
594.715
246.449
91.346
444.634
518.224
805.033
409.605
305.324
428.526
526.083
606.258
476.76
282.046
411.876
642.393
212.98
283.012
412.346
319.628
500.334
475.249
703.155
541.057
629.04
331.086
430.755
499.81
421.471
378.67
339.336
335.729
220.495
573.82
492.682
493.088
529.664
156.089
355.087
786.036
792.814
282.506
661.368
524.819
571.991
331.442
712.555
693.55
235.893
386.045
350.785
339.02
146.152
204.717
350.836
686.779
883.281
306.023
592.294
572.654
519.149
395.257
501.833
701.153
491.021
244.389
357.133
332.574
344.3
543.017
569.959
575.232
589.228
586.975
283.991
603.705
363.954
558.583
-75.568
530.702
730.105
377.565
38.728
438.683
399.311
825.651
256.704
604.095
426.339
87.0089
775.109
169.551
402.993
448.587
153.069
661.627
504.75
395.052
464.144
502.776
402.555
841.697
176.418
345.557
-148.836
364.838
379.343
457.83
659.165
1071.25
128.93
348.276
979.382
171.577
582.904
276.096
571.353
15.4499
257.688
969.92
68.7797
906.569
114.593
811.005
90.4095
253.244
-119.324
176.722
930.438
-44.7484
421.488
67.4272
745.774
934.205
-29.7695
379.981
311.798
245.193
236.14
352.63
451.666
450.405
564.046
428.786
754.242
1002.32
-35.9657
449.023
530.013
451.391
484.309
414.534
378.301
413.431
620.563
420.202
626.142
341.76
491.937
730.27
375.599
553.582
666.154
340.571
491.936
426.863
560.587
404.119
468.985
382.893
652.164
358.903
517.696
111.266
766.46
-16.5414
515.567
640.388
778.722
263.127
479.312
429.628
479.221
457.847
419.642
616.165
230.447
-216.488
378.623
42.1611
675.349
268.283
444.075
576.735
-181.231
713.816
219.31
-90.8382
249.385
584.786
567.128
455.569
-39.6798
450.922
491.443
303.343
270.136
683.85
645.423
326.015
462.227
685.461
-33.0125
615.101
264.199
554.362
-6.80305
880.647
858.151
644.309
450.006
378.473
575.606
366.996
-43.7416
210.036
593.682
276.83
535.044
36.6356
668.295
553.53
-317.124
452.604
505.77
-162.593
721.937
104.27
679.706
770.199
610.605
-82.0563
466.961
389.05
455.748
473.045
537.009
-28.6278
336.312
283.669
285.036
660.31
440.097
509.443
567.885
553.947
385.167
476.075
398.636
515.555
690.933
325.26
373.326
310.672
469.826
637.571
321.86
366.205
344.297
443.884
282.028
301.84
364.003
383.066
471.381
356.073
763.579
616.629
58.9841
66.0154
722.05
-377.845
600.055
489.549
281.111
383.804
732.805
-181.923
674.471
509.576
-61.146
347.726
302.416
442.286
-208.258
720.478
517.413
-173.235
699.774
704.08
5.65193
781.31
644.252
12.5343
308.977
283.074
-175.838
450.201
478.901
213.6
264.295
242.286
-298.845
258.265
-200.232
-332.147
655.065
309.866
931.198
324.682
-31.8576
725.168
399.443
-123.603
324.543
311.906
-129.661
66.3871
706.428
-459.823
212.17
164.928
-379.651
673.8
625.337
448.269
360.883
307.26
214.243
-247.577
456.467
365.357
376.819
449.111
-90.6098
587.255
326.081
419.048
302.685
410.286
469.829
198.251
-67.7179
352.397
479.795
320.771
360.068
427.087
263.203
371.611
-102.811
325.882
507.147
306.622
385.818
270.731
-59.3309
729.491
719.668
697.586
781.461
2.7913
-158.964
330.759
600.424
477.724
580.107
619.927
213.013
158.666
-150.393
-30.2342
261.719
422.607
406.485
395.004
159.992
658.667
511.477
17.8951
251.23
202.22
614.592
268.391
-250.203
421.637
437.144
672.009
-112.211
306.717
472.294
340.914
384.494
570.674
416.319
219.831
808.618
-338.285
117.142
390.477
265.648
353.913
777.719
520.475
439.619
127.436
733.124
335.364
469.141
619.279
672.07
651.457
670.285
758.59
816.148
748.342
749.255
442.946
631.697
324.477
383.517
152.061
85.4079
-291.633
788.477
771.73
696.568
371.935
471.36
454.302
273.934
485.338
627.765
228.421
397.932
558.416
307.47
330.301
317.413
368.411
261.368
360.315
338.761
-5.35621
469.918
232.61
395.924
-129.55
786.574
407.428
291.214
251.809
23.8334
435.735
298.303
-172.11
118.92
401.267
75.8902
140.198
827.893
856.198
341.16
343.572
592.041
773.688
-178.666
270.085
261.107
355.459
353.549
375.172
413.506
153.805
-51.0604
719.06
347.482
102.196
148.863
341.039
443.467
28.5957
380.048
272.556
324.359
778.33
109.967
-41.6787
353.145
305.226
260.478
-44.4042
674.158
337.063
326.219
338.973
-168.62
340.657
352.889
-31.5833
333.948
117.487
512.56
711.512
272.947
631.365
501.186
282.42
291.741
361.368
-43.7086
495.926
531.693
314.47
-112.756
195.892
388.793
407.115
277.267
-70.9804
287.616
672.852
501.608
293.213
820.182
111.56
616.055
-158.438
97.4155
637.758
-168.27
655.296
288.72
442.282
325.255
847.844
170.86
448.55
779.329
731.074
53.765
712.834
779.016
-363.667
380.303
303.001
-143.076
529.042
297.279
327.078
328.015
417.418
377.59
314.9
292.595
-159.489
528.303
441.611
426.999
467.862
371.857
281.213
199.423
585.642
-236.18
254.366
240.995
-212.983
642.307
804.047
401.56
695.981
731.721
270.192
278.661
523.883
693.233
261.215
555.888
147.389
-141.862
593.213
230.71
672.101
818.315
770.44
-112.298
622.424
449.496
218.425
312.163
354.603
299.901
-101.891
689.73
-84.2576
680.265
367.955
147.471
98.4524
371.929
566.39
750.668
432.41
899.92
599.876
658.006
-180.009
629.106
578.491
673.403
269.448
224.924
-239.502
403.177
878.639
698.318
-57.3031
165.8
-89.523
269.088
414.329
140.764
1026.8
328.273
167.468
-43.7832
498.088
230.608
-201.523
383.675
294.338
303.021
311.971
315.938
-38.685
146.408
-139.572
297.107
597.268
514.703
712.762
672.521
254.956
200.372
-162.106
284.685
567.86
739.809
598.677
615.791
104.043
-218.949
175.538
-258.308
589.965
610.745
200.961
650.931
583.992
714.189
483.058
443.083
435.286
254.924
-172.516
186.391
-115.096
130.355
312.311
276.924
-4.03419
-115.973
551.85
881.338
820.693
770.654
428.441
542.862
532.467
402.82
310.799
403.039
217.314
366.614
369.067
-113.023
582.586
346.603
167.357
-13.6763
290.078
422.251
419.239
278.031
-11.0083
753.42
494.559
300.74
813.807
227.153
-135.81
515.127
367.878
370.896
370.989
285.173
-239.498
368.938
363.402
-80.0327
735.614
336.699
-457.741
311.128
410.638
429.012
283.522
-103.111
244.68
258.762
85.1785
383.373
-159.377
396.003
380.027
61.7016
806.199
361.8
-31.9652
863.7
404.725
404.517
-18.2417
380.03
-86.2612
)
;
    }
}


// ************************************************************************* //
