/*--------------------------------*- C++ -*----------------------------------*\
| =========                 |                                                 |
| \\      /  F ield         | OpenFOAM: The Open Source CFD Toolbox           |
|  \\    /   O peration     | Version:  v1912                                 |
|   \\  /    A nd           | Website:  www.openfoam.com                      |
|    \\/     M anipulation  |                                                 |
\*---------------------------------------------------------------------------*/
FoamFile
{
    version     2.0;
    format      ascii;
    class       volScalarField;
    location    "166/oil";
    object      wallHeatFlux;
}
// * * * * * * * * * * * * * * * * * * * * * * * * * * * * * * * * * * * * * //

dimensions      [1 0 -3 0 0 0 0];


internalField   uniform 0;

boundaryField
{
    maxY
    {
        type            calculated;
        value           uniform 0;
    }
    minX
    {
        type            calculated;
        value           uniform 0;
    }
    maxX
    {
        type            calculated;
        value           uniform 0;
    }
    minY
    {
        type            calculated;
        value           uniform 0;
    }
    minZ
    {
        type            calculated;
        value           uniform 0;
    }
    maxZ
    {
        type            calculated;
        value           uniform 0;
    }
    oil_to_sphere
    {
        type            calculated;
        value           nonuniform List<scalar> 
1536
(
2994.76
3141.6
2899.75
2860.51
2445.72
2536.11
2505.18
1843.88
1752.23
3252.31
2419.72
3285.71
3345.33
3288.89
2843.07
2430.56
1869.48
1763.4
173.235
3338.42
3254.56
2560.04
2517.54
2451.73
2587.08
2586.33
2587.67
2459.52
3149.44
3106.1
2903.29
2276.95
2081.24
2599.84
2438.87
2422.62
2317.16
2714.66
2552.04
2699.79
2552.77
2422.73
3066.84
3294.76
3121.22
3271.52
2534.86
2539.5
2798.4
2595.86
2552.45
2556.97
2495.94
2535.97
2173.42
2037.12
2524.48
2516.11
1775.29
1114.02
1263.3
1092.67
1231.82
3333.54
3352.62
3282.26
3135.95
3279.64
2982.23
3109.3
2607.71
2528.18
2895.9
2561.35
2439.86
2087.72
2008.05
1946.5
2434.76
1764.22
1086.38
1233.76
916.676
899.632
1339.91
1260.35
947.19
1860.22
1762.24
1109.73
1247.55
169.972
173.891
3347.73
3355.77
3297.96
3174.91
3225.99
3290.46
2966.13
3149.09
2595.85
2978.82
2908.1
2545.22
2560.79
2454.87
1959.92
2408.74
2101.82
1995.81
2074
1109.87
1270.4
930.427
956.699
927.882
1328.72
1260.01
1355.12
1772.7
1249.83
173.326
3282.3
2968.41
3106.71
2985.17
3092.72
2549
2558.68
2580.26
2548.58
2557.81
2532
2574.46
2589.27
2535.62
2037.63
2501.09
2492.57
1114.81
1255.94
1861.95
1773.37
1236.48
1745.95
2814.49
2815.62
2499.82
2625.64
2898.65
2812.49
2530.46
2575.12
2563.53
2322.07
2173.7
2206.12
2823.52
2776.06
2834.33
3047.21
2675.29
2575.78
2425.08
2323.56
2537.21
2372.65
2184.58
2216.12
3049.31
2734.91
3117.19
2695.85
2239.52
1991.15
2832.62
2861.74
2971.97
2800.23
2668.25
2566.54
2327.9
2560.04
2259.33
2219.03
2215.55
3194.01
2783.71
2902.92
3035.99
2836.81
3006.98
2888.57
2270.12
2288.77
2355.62
2376.4
2246.88
2305.37
2360.61
2440.17
1763.28
1709.7
1653.12
1800.5
1874.33
1843.8
1955.1
1920.64
1714.59
1604.27
1545.01
3208.29
3419.73
3358.87
3225.23
3221.68
3245.17
3213.53
3191.48
3305.92
3130.04
3201.86
3208.77
2845.55
2839.86
3124.6
2962.28
2623.75
2336.39
2260.75
2533.25
2282.87
1728.2
1783.76
1669.68
1806.53
1861.57
1682.56
1592.49
810.325
687
3314.73
3211.81
3260.78
3201.45
3281.05
3428.68
3292.3
3197.52
2766.01
2585.18
2775.74
2813.47
2297.89
2443.28
1730.04
1615.93
1883.86
2019.6
1947.59
1561.78
676.492
792.285
437.53
437.915
797.533
3257.72
3189.84
3174.58
3133.17
3202.27
3213.08
3161.46
3266.82
3471.74
3330.7
3189.3
3006.27
2819.38
2827.52
2941.8
3148.54
2972.36
2823.89
2820.15
2322.02
2343.02
2447.82
2475.05
2363.8
2438.09
1671.57
1609.15
1698.97
1830.79
1781.25
1865.9
1850.57
1851.36
1657.5
1576.4
1812.92
1706.04
2624.22
2495.91
2529.57
2322.49
2259.49
2222.84
2150.81
3068.28
2947.87
3124.55
3037.64
2947.44
3057.07
3090.72
3144.38
3234.17
3087.64
3121.73
3077.29
3407.47
3261.16
3209.3
3119.09
3228.89
3322.06
3219.66
3006.18
3040.19
3109.77
2948.23
3106.17
3150.62
3232.86
3211.23
3297.93
3264.15
3236.85
3161.74
3159.99
3136.59
3165.45
3061.9
3072.09
2969.6
3052.95
2916.47
2962.1
3147.75
2815.52
3074.42
2843.35
2883.94
2791.73
2628.07
3056.26
2824.41
2808.68
2936.66
2634.73
2747.68
2831.12
2606.51
2695.85
2542.94
2847.7
3053.66
2829.24
2848.1
2883.41
2666.7
2761.48
2737.56
2330.76
2401.26
2314.07
2191.14
2115.65
2198.78
2035.68
1974.44
2346.77
2407.1
2338.1
2221.8
2137.63
2260.53
2032.12
1975.24
1926.61
2285.09
1964.44
2214.91
2148.89
2222.52
2027.24
2338.9
2423.94
2331.77
2408.5
2001.46
1933.81
2217.1
2145.72
2242.89
2007.21
1952.79
1832.99
1768.53
1825.86
1762.97
1663.8
1668.98
1586.89
1740.42
1620.47
1885.27
1566.66
1601.35
1539.79
1450.44
1567.36
1523.28
1385.26
1340.4
1203.4
1789.22
1732.38
1657.62
1810.03
1608.64
1667.08
1387.54
1323.2
1295.38
1204.69
1544.51
1464.98
1571.53
1527.01
1501.13
1822.68
1759.82
1837.91
1843.09
1666.76
1576.31
1778.68
1696.65
3684.58
3527.06
3385.55
3645.04
3399.41
3439.19
3530.88
3306.93
3349.23
3408.67
3392.44
3204.23
3321.66
3162.53
3144.79
3112.26
3103.98
3168.48
3146.13
3226.34
3311.71
3036.19
3255.31
3070.62
3165.7
3086.43
3262.47
3123.16
3246.39
3185.63
3278.79
3199.86
3044.2
3142.63
2972.57
3206.82
2799.97
2900.68
2858.63
2555.69
2686.8
2672.06
2842.69
2555.63
2806.44
2542.4
2683.77
2581.79
2456.8
2532.14
2337.93
2289.22
2151.97
2230.22
2192.29
2108.72
1993.05
2252.91
1977.94
2425.84
2315.77
2175.81
1608.03
1529.47
1464.45
1587.97
1536.55
1719.36
1608.59
1882
1553.87
1375.29
1359.95
1218.9
1021.4
883.856
1032.02
890.101
1146.23
1266.28
1141.31
996.896
1029.13
1709.89
1777.01
1651.41
1799.79
1567.15
1470.09
1589.89
1508.82
1706.24
1598.12
1833.05
1934.79
1558.62
1379.07
1506.74
1340.36
1204.55
1456.74
796.53
684.127
828.385
685.01
446.496
441.724
443.779
441.115
661.252
3589.67
3354.3
3443.23
3410.88
3364.79
3594.45
3455.08
3404.06
3340.79
3207.2
3389.87
3427.3
3492.47
3220.42
3229.37
3318.18
3327.26
3036.74
3208.62
3049.92
3261.63
3168.62
3155.81
3107.97
3195.05
3104.22
3186.49
3280.07
3126.49
3028.08
2980.02
3175.09
3256.56
3036.02
3234.87
3071.45
2965.34
3292.2
3161.49
3144.97
3187.63
3080.61
3079.16
3157.61
3258.53
3094.35
2980.14
2851.51
2814.04
2695.25
2576.13
2721.16
3012.99
2897.81
2851.69
2740.98
2724.12
2641.16
2669.67
2684.16
2558.84
2558.61
2327.84
2521.39
2260.53
2374.43
2226.08
2156.06
2604.54
2445.25
2030.47
2286.09
1973.67
2262.15
2101.27
1986.93
2193.48
2225.11
2208.49
2192.37
2161.77
2551.48
2303.04
1375.12
1369.24
1306.31
1224.03
1778.06
1712.06
1656.93
1806.31
1611.01
1671.79
1477.83
1595.29
1584.21
1521.82
1491.01
1159.55
1159.33
1281.42
1012.75
1023.75
881.938
1034.56
1037.22
877.722
1252.39
1131.39
1139.46
1270.69
1002.39
1708.58
1602.8
1863.74
1934.88
1560.1
1385.44
1511.21
1325.01
1303.91
1463.19
1678.61
1583.68
1767.73
1727.93
1656.76
1807.57
1855.64
1464.89
1544.6
1582.93
1516.17
1498.31
444.347
444.779
818.3
804.893
688.632
660.484
946.155
801.786
669.623
2938.31
3099.89
3084.54
2932.29
3077.6
2940.05
2932.03
3247.57
3190.26
3319.84
3195.11
3045.93
3152.19
3096.65
3231.62
3124.45
3178.18
3053.44
3051.21
3257.46
3163.48
3114.62
3129.75
3081.75
3078.96
3142.14
2986.9
2966.47
3052.22
3129.26
3047.39
3183.73
3095.18
3330.73
3061.56
2989.69
3030.94
3052.34
2966.02
2933.53
3153.67
2825.99
2687.52
2692.75
2781.93
2572.01
3033.25
2823.05
2811.88
2901.64
2751.98
2755.6
2669.95
2959.57
2794.78
2822.3
2898.69
2644.31
2668.57
2807.46
2776.92
2571.83
2875.17
3031.57
2863.36
2890.41
2767.42
2758.69
2687.72
2685.11
2558.98
2210.76
2140.54
2231.04
2028.99
1998.95
1941.31
2388.79
2285.5
2407.62
2337.73
2141.67
2218.73
2213.43
2001.15
1948.79
1964.34
2339.77
2334.11
2424.81
2327.68
2417.5
1990.46
2027.29
2204.47
2127.94
2213.72
1994.67
1946.86
2450.5
2318.89
2318.78
2371.15
2433.97
2023.88
1957.53
2147.13
2229.75
2229.22
1761.73
1837.3
1666
1654.88
1572.31
1825.83
1769.21
1833.05
1546.36
1463.5
1580.27
1509.09
1406.85
1540.26
1350.87
1212.49
1474.91
1722.29
1764.38
1647.83
1809.1
1938.5
2096.56
1772.35
1647.12
1579.31
1615.34
1729.03
1383.58
1496.54
1335.9
1316.08
1446.73
1553.33
1473.41
1560.57
1541.92
1501.07
1836.61
1943.05
1721.54
1606.06
1552.3
1801.82
1864.47
1721.44
1781.61
1667.67
2914.14
2835.97
2002.46
1894.81
3287.96
3165.15
3248.63
3276.06
3248.18
2793.24
3014.37
2921.41
2989.53
2414.63
2569.51
1897.21
899.363
856.753
2904.47
2901.89
1851.62
903.526
831.569
1113.65
3281.78
2827.5
2517.85
1093.75
2992.21
2880.86
2962.23
2402.92
2585.77
2564.67
1843.06
2921.99
2994.42
2552.09
2574.46
2962.06
2536.55
2566.2
2356.95
2442.06
1946.71
2075.78
2182.87
2836.92
2945.8
2515.67
2680.96
2396.31
2503.27
1946.91
2071.48
2107.5
2813.2
2997.02
2529.93
2751.31
2147.66
1961.11
2117.31
2336.98
2678.9
2648.77
2961.02
3002.96
2568.27
2547.48
2517.05
2569.68
2096.18
1964.01
2096.33
1864.94
3421.2
3340.23
2963.58
3229.19
2951.39
3299
3260.22
2561.46
2850.07
2841.52
2899.22
2831.24
2537.83
2135.16
2073.12
2076.51
2088.98
2082.41
2047.82
1412.79
1891.48
1360.97
1425
3355.48
3258.3
3393.27
3279.99
3361.43
3308.15
3360.97
3330.21
3394.91
3312.27
2960.94
3238.54
2963.44
3113.03
2967.74
2524.67
2715.02
2807.16
3061.89
2591.69
2940.83
2527.49
1963.4
2099.01
2141.62
1986.96
2076.21
2062.84
1870.49
1422.2
1298.82
1261.72
1319.37
1889.98
1400.45
864.074
892.03
830.285
3419.2
3355.34
3306.81
3475.81
3321.54
3386.85
3310.09
3438.19
3378.6
2973.48
3228.86
2915.01
3271.24
3250.61
3158.89
3246.39
3160.01
2935.62
3041.37
2514.74
2811.92
3032.42
2828.57
3009.96
2571.93
1947.26
2110.66
2390.87
2543.29
2042.69
2177.53
1978.03
2086.99
2511.35
1902.79
1414.79
1238.17
1304.39
1256.12
1880.66
1399.84
862.986
832.375
848.814
3342.15
3092.73
2987.99
3285.97
2937.45
2562.02
2900.08
2853.07
2850.3
2836.62
2060.34
2194.09
2053.27
2054.44
2057.73
1407.07
1926.54
1433.19
1914.36
2955.27
2806.49
2656.96
2791.08
2999.78
2825.28
2222.37
2331.55
2216.62
2877.64
3000.41
2858.84
2710.69
3029.59
2616.16
2784.28
2765.19
2627.99
2853.38
2737.14
3005.63
2667.96
2744.47
2756.75
2682.6
2432.61
2415.19
2234.81
2231.01
2126.25
1990.54
2217.58
2096.75
2162.36
2969.21
2779.66
2689.43
2782.41
2975.92
2614.67
2658.74
2677.98
2469.92
2781.38
2325.86
2492.56
2448.19
2248.25
2265.65
2146.86
1988.98
2193.23
2080.06
2165.43
2793.21
2961.91
2612.84
2637.02
2701.13
2447.4
2771.39
2411.75
2237.08
2075.87
2252.88
2181.08
2239.97
3156.87
3162.54
3138.27
3180.96
2661.74
2988.58
2864.61
2345.22
2349.31
2446.12
2429.25
2411.59
1840.71
1965.17
1946.69
1697.68
1650.75
1983.69
1869.35
1866.61
3177.64
3211.49
3273.97
3137.68
2717.96
2853.9
2637.63
3059.66
2840.29
2410
2408.59
2250.13
1855.74
2029.6
1943.87
1707.8
1157.48
1180.17
1008.38
1026.52
880.309
811.721
3182.89
3166.99
3162.39
3115.87
3238.55
2795.01
2944.02
2868.66
2312.69
1654.35
1961.5
1021.97
878.183
825.118
641.729
1203.9
3180.2
3189.43
3271.58
3185.41
3237.35
3234.97
3189.91
3160.18
3250.42
2619.93
2747.13
3184.86
2833.3
2423.13
2432.9
1865.4
1966.13
1845.56
1787.85
1924.67
1696.62
1213.66
2415.65
1935.6
3047.45
2986.89
2797.76
2813.86
2416.88
2305.38
2375.53
2190.11
2070.18
2230.79
2106.57
2092.14
2050.06
3413.92
3354.27
2883.11
2905.16
3083.4
3163.17
3123.26
3148.61
2921.54
3070.58
3001.77
3118.87
2938.91
3036.97
3210.24
3130.86
3150.77
3132.88
2902.64
2993.47
3033.42
3101.92
3175.06
3248.28
3206.99
3231.71
3073.3
2912.43
3017.49
3246.01
3182.75
3250.29
3205.72
2931.11
3164.05
3228.14
3124.97
3004.71
3057.64
2998.08
2796.07
2712.28
3093.82
2789.76
2680.68
2678.91
2524.59
2547.04
2538.57
2698.13
3020.71
2853.04
2574.27
2558.41
2682.13
2577.26
2702.41
2966.98
2759.56
2555.59
2462.97
2435.85
2186.51
2236.17
1986.08
2438.38
2185.05
2262.83
2008.42
2359.69
2441.85
2205.76
2001.4
2425.31
2121.15
2204.64
1851.63
1847.92
1653.85
1671.85
1496.45
1512.93
1677.21
1514.16
1471.71
1317.61
1286.87
1274.08
1350.36
1829.74
1699.52
1505.87
1450.52
1335.83
1337.08
1263.56
1788.75
1860.99
1506.12
3446.48
3286.4
3370.56
3204.9
3273.88
3440.44
3153.37
3596.06
3286.58
3327.6
3307.12
3447.71
3313.79
3424.37
3602.83
3453.67
3283.4
3397
3073.58
3173.42
3337.58
3240.28
2956.43
3155.67
3039.71
3195.01
3130.35
3177.56
3132.75
3251.52
3047.13
2893.17
2975.71
3096.4
3239.12
3161.64
3147.06
3076.23
2644.68
2744.99
2544.78
2797.9
2955.53
2647.02
2744.94
2783.34
2819.01
2824.51
2948.63
2669.46
2338.09
2228.82
2149.35
2286.08
2423.75
2075.82
2099.47
2225.27
2342.9
2229.13
2118.01
2002.8
1343.03
1319.48
1290.86
1647.5
1504.33
1452.06
1328.94
1828.93
1893.31
1327.19
1299.54
1653.33
1338.84
824.778
829.866
666.892
945.351
647.061
825.811
972.053
3478.89
3288.34
3527.48
3384.71
3371.15
3249.98
3281.19
3155.59
3412.92
3526.96
3426.8
3291.59
3256.32
3223.8
3321.25
3324.92
3321.51
3074.82
3256.77
3027.98
3224.53
3253.07
3177.45
2868.92
3256.44
3102.35
3168.55
3138.83
3066.86
3135.71
3140.16
2965.55
3043.73
2975.24
2758.58
2965.68
2803.97
2658.9
2612.44
2456.43
2686.31
2999
2768.71
2784.86
2373.57
2102.84
2136.43
2308.87
2303.91
2170.46
2269.33
2263.26
2218.88
2119.08
2399.02
2417.18
1505.58
1456.27
1334.12
1852.36
1712.11
1330.03
1288.38
1661.98
1345.68
1832.34
1316.88
659.893
820.722
974.28
3441.98
3180.64
2951.58
3134.5
2949.2
2945.96
3049.44
3239.71
3176.8
3153.01
2959.27
3048.16
3117.48
3074.8
3188.66
3147.24
3173.61
3135.99
3072.48
2910.64
3139.85
3037.74
3003.17
2825.74
2570.73
2729.53
3103.62
2783.3
2672.86
2543.18
2542.14
2691.29
3005.82
2549.33
2683.68
2995.74
2571.85
2168.97
2025.47
2373.88
2436.38
2365.82
2171.25
2275.38
2407.26
2125.77
2421.4
2126.32
1490.23
1857.21
1322.44
1295.62
1362.74
1835.7
1978.04
1674.66
1330.75
1357.82
1645.17
1842.03
)
;
    }
}


// ************************************************************************* //
