/*--------------------------------*- C++ -*----------------------------------*\
| =========                 |                                                 |
| \\      /  F ield         | OpenFOAM: The Open Source CFD Toolbox           |
|  \\    /   O peration     | Version:  v1906                                 |
|   \\  /    A nd           | Web:      www.OpenFOAM.com                      |
|    \\/     M anipulation  |                                                 |
\*---------------------------------------------------------------------------*/
FoamFile
{
    version     2.0;
    format      ascii;
    class       volScalarField;
    location    "3e-05/oil";
    object      heatTransferCoeff(T);
}
// * * * * * * * * * * * * * * * * * * * * * * * * * * * * * * * * * * * * * //

dimensions      [1 0 -3 -1 0 0 0];


internalField   uniform 0;

boundaryField
{
    maxY
    {
        type            calculated;
        value           uniform 0;
    }
    minX
    {
        type            calculated;
        value           uniform 0;
    }
    maxX
    {
        type            calculated;
        value           uniform 0;
    }
    minY
    {
        type            calculated;
        value           uniform 0;
    }
    minZ
    {
        type            calculated;
        value           uniform 0;
    }
    maxZ
    {
        type            calculated;
        value           uniform 0;
    }
    oil_to_sphere
    {
        type            calculated;
        value           nonuniform List<scalar> 
1536
(
1.03886e+11
7.1084e+10
-4.97612e+10
-1.99042e+11
-8.81376e+10
-1.7155e+11
-4.80729e+11
-1.70043e+11
-3.90977e+11
-7.2374e+10
-9.95316e+10
-6.06908e+10
-2.13054e+11
-5.89639e+11
-5.86159e+10
-2.47406e+11
-2.21474e+11
-4.1017e+11
-2.06944e+11
-2.17721e+11
-2.0667e+11
-2.8937e+11
-2.16173e+11
-2.32052e+11
-2.1288e+11
-2.5584e+11
-2.58341e+11
-4.35481e+11
1.29333e+12
-3.45568e+11
-5.3308e+11
3.31474e+11
4.89277e+10
-1.98864e+11
-1.75599e+11
-1.08263e+11
-1.5016e+11
-4.19292e+11
-2.29154e+11
-1.73336e+11
-1.79028e+11
-2.42562e+11
-1.52024e+11
-2.4556e+11
-3.05833e+11
-1.91629e+11
-1.42524e+11
-1.14481e+11
-3.8755e+10
-1.0072e+12
-1.77499e+11
-3.09611e+11
-1.67466e+11
-1.96362e+11
-5.37218e+12
1.76882e+11
-3.3106e+11
-2.20938e+11
-2.5844e+11
-4.04367e+11
-2.09816e+11
-2.78778e+11
-1.84614e+11
-2.51124e+11
-3.35387e+11
-1.22995e+11
-2.49565e+11
-4.31023e+11
-1.85353e+11
-4.13159e+11
-2.91428e+11
-1.95104e+11
-1.65816e+11
-2.72996e+11
-2.49812e+11
3.5962e+11
-3.37208e+12
-1.04899e+11
-2.38281e+11
-4.7725e+11
-1.22382e+11
-1.52191e+11
-6.97749e+10
-6.04509e+10
-8.68804e+11
2.46746e+11
-1.57052e+11
-1.1194e+11
-2.43124e+11
-9.94567e+10
-1.46086e+11
-1.68875e+11
-1.80328e+11
-2.1694e+11
-3.0212e+11
-2.8579e+11
-5.65934e+11
-5.87223e+11
-4.49783e+11
-1.83537e+11
-7.81198e+11
-1.79944e+11
3.48725e+10
-7.24456e+11
-1.0359e+11
-2.75019e+11
-2.41695e+11
-1.21275e+11
-1.0195e+11
4.86571e+10
-8.16726e+10
-1.8646e+11
-3.36863e+11
-4.13906e+11
-4.89239e+10
-1.48475e+11
-4.86381e+10
-1.83687e+11
2.69106e+10
-3.47865e+11
-2.42825e+11
-1.42733e+11
-1.69759e+11
-2.36527e+11
-2.7038e+11
-2.19791e+11
-1.93045e+11
-3.93825e+11
-1.81765e+11
-1.34259e+11
-2.597e+11
-9.92672e+10
-2.61424e+11
-6.75982e+10
-3.74361e+11
-1.83585e+11
-7.41987e+11
-2.57906e+11
-1.41865e+11
-1.31494e+11
-1.1161e+11
-9.22376e+10
-8.14552e+10
-1.37287e+11
-1.34652e+11
-1.44134e+11
-1.21109e+11
-3.00355e+11
1.64485e+10
-9.68849e+11
-2.34554e+11
-6.88698e+11
-1.59186e+11
-1.25215e+11
-2.05369e+11
2.8882e+10
-6.76465e+10
1.68935e+10
-3.00328e+11
2.02321e+11
1.75101e+11
8.57615e+11
-5.53825e+10
-5.11182e+10
-2.94534e+11
-3.1499e+11
-1.431e+11
2.70216e+10
-1.51858e+11
1.55803e+11
-1.2098e+11
-1.0097e+12
1.87203e+12
-8.07557e+11
-9.18008e+10
-1.7201e+11
1.06344e+11
8.46845e+10
-5.07853e+11
1.24761e+11
-3.74648e+10
-3.55621e+10
-3.15969e+10
-3.18598e+10
-3.89279e+10
1.6653e+11
5.75907e+10
-2.42105e+11
-2.68359e+11
-9.90034e+11
-2.73193e+11
8.13653e+10
1.18369e+12
-4.2771e+11
-1.18467e+11
-5.20817e+10
1.03575e+12
6.32118e+10
-1.25102e+11
-6.23135e+10
-4.71903e+11
-2.21596e+11
-1.53137e+12
5.70388e+12
-3.79207e+11
-3.58233e+11
-1.97214e+12
4.71403e+11
1.3557e+11
4.95978e+11
-6.30869e+10
-2.64398e+11
-2.51381e+11
6.45085e+10
5.7362e+10
5.8353e+10
1.86485e+11
-4.83974e+10
-1.78624e+11
-8.69662e+10
1.81336e+11
1.44819e+11
-1.85365e+11
-2.51617e+12
2.83748e+13
1.27346e+11
8.07923e+10
-1.03745e+12
4.33448e+10
-6.39897e+10
-7.05223e+10
-3.55865e+10
-1.00866e+11
-1.28385e+11
1.50163e+12
4.59195e+11
-6.13062e+11
-3.70184e+11
1.98052e+12
-4.66156e+10
-4.89641e+10
-2.22673e+11
2.49002e+11
-9.05393e+10
-6.36964e+10
-6.5014e+10
-3.26425e+11
-2.23786e+13
1.3681e+11
5.31338e+10
-3.37998e+11
-5.56722e+10
-5.43022e+10
-1.01766e+11
-2.87368e+12
-1.21382e+11
-1.60464e+11
-6.33516e+10
-3.25116e+11
6.98869e+11
4.83693e+10
4.6667e+10
-5.02861e+11
2.69649e+13
-9.40799e+10
-1.59208e+11
-3.99984e+10
-2.22655e+10
1.01487e+11
-6.03461e+11
-2.70182e+11
-8.70985e+11
-4.90532e+12
-5.54703e+10
-2.9466e+11
4.67999e+11
5.76532e+10
8.19939e+10
-5.2399e+11
3.62317e+11
7.11321e+10
-1.43611e+11
-1.03696e+12
2.98209e+11
-4.36679e+11
-1.20859e+11
-2.31092e+11
-5.5409e+10
-1.99973e+11
1.0222e+11
6.21381e+10
8.32248e+10
-4.26199e+11
-3.52196e+11
-1.48096e+11
-1.01336e+11
-2.06591e+10
-3.07401e+10
-6.03082e+10
-2.83816e+09
-4.37004e+09
-3.77604e+09
-6.29841e+09
1.44911e+09
2.29425e+09
1.59187e+11
3.23545e+10
-5.08504e+10
-5.2907e+10
9.41202e+10
1.93513e+11
1.19261e+11
-7.04742e+10
-3.71442e+10
-8.09525e+10
-6.40245e+10
-1.03684e+11
-1.70562e+10
7.64975e+11
3.37245e+11
-5.05601e+10
-1.07667e+11
-5.19962e+11
-7.91113e+10
1.39086e+10
1.59579e+10
1.85435e+11
-7.73552e+10
-2.87489e+10
5.50178e+10
6.66965e+10
-2.90022e+11
-6.21545e+10
-2.41792e+11
-7.12729e+11
1.2287e+11
9.26427e+11
-3.73577e+11
-7.25728e+10
1.5158e+11
2.4909e+11
7.49216e+11
-5.91208e+11
-4.15953e+11
-2.99687e+11
-2.90908e+11
-5.34649e+11
-2.41499e+11
-4.98943e+11
-7.99013e+10
-5.66987e+10
-8.30259e+10
5.14478e+10
5.26058e+10
3.39341e+10
-2.09726e+11
-1.14326e+11
2.17901e+10
-2.71917e+10
2.26157e+10
3.52092e+10
-5.52031e+10
8.47104e+11
-3.16148e+10
1.53364e+11
2.85703e+11
-4.90465e+10
-1.69077e+12
-2.23303e+11
-1.75521e+11
1.28622e+13
7.75335e+11
-3.20935e+11
-4.81663e+11
-7.14263e+10
2.03791e+11
1.85703e+11
-7.45609e+10
5.51819e+11
2.41802e+11
3.01203e+12
-2.29129e+13
-2.46887e+11
-5.36537e+11
-4.99126e+11
-6.10432e+10
3.64547e+11
1.42195e+11
9.68371e+10
-5.20613e+11
-9.395e+11
-9.18104e+11
-4.88396e+12
-3.36175e+11
-4.70174e+11
-2.89667e+11
1.19734e+11
1.19678e+11
-2.37151e+11
-4.973e+11
-6.4433e+10
3.75892e+11
5.36061e+10
1.00833e+12
-1.19333e+11
-7.79142e+11
2.39039e+11
1.06621e+12
-3.15803e+11
-7.04323e+11
-2.97889e+11
-3.30749e+11
-2.83169e+11
-2.03472e+12
-1.82396e+11
-3.81491e+11
-4.12645e+11
-1.86648e+11
-7.62927e+10
-2.976e+11
1.70668e+12
-2.80069e+11
-1.5616e+11
7.75039e+10
-6.58721e+12
-2.25163e+11
-3.99112e+11
-6.04547e+10
9.58518e+10
3.17323e+11
7.53977e+10
3.16014e+11
-3.08773e+11
-4.62948e+11
-1.19169e+11
-1.46417e+11
-8.77202e+10
9.45586e+11
7.68286e+10
2.82406e+11
2.55181e+11
9.84746e+11
-1.57818e+11
-6.76472e+11
-2.25449e+11
-1.33526e+11
-1.95149e+11
-4.79607e+10
-5.49522e+10
-4.08075e+10
-4.53303e+10
4.49014e+10
2.52561e+10
4.35653e+10
3.15195e+10
-7.51353e+10
4.71877e+10
-3.03854e+10
-3.56857e+10
3.33478e+11
-3.04887e+11
-5.83114e+10
-4.60941e+11
-9.28114e+10
4.48066e+11
2.61955e+10
-2.01151e+11
-1.29512e+11
-1.91257e+11
1.64508e+11
-7.57415e+10
-1.92228e+11
-3.31097e+10
7.13916e+10
-3.97862e+10
1.93475e+11
-7.1831e+10
8.75005e+11
2.68694e+11
-3.61014e+11
1.15468e+13
-7.76779e+10
-2.738e+11
1.65511e+12
-3.85327e+11
-6.86429e+10
1.06971e+12
1.44383e+11
3.80314e+09
2.27472e+11
-4.74114e+11
1.7239e+11
-3.07262e+10
-4.18146e+10
-4.25375e+10
-4.13041e+10
-1.14463e+11
-1.75328e+11
-2.04713e+11
-1.80942e+11
7.28515e+11
5.86726e+10
-4.48153e+10
-5.17319e+10
8.12032e+10
2.16632e+11
-9.81576e+11
-5.23053e+11
-2.03755e+11
-1.52537e+12
-6.78128e+10
-2.64725e+10
-1.55937e+11
-1.99255e+11
-1.37786e+11
-2.82443e+11
-7.5465e+11
3.43501e+11
-3.39301e+11
-1.28952e+12
-5.91128e+10
-3.85099e+11
7.38349e+10
-4.66387e+11
-5.64087e+10
4.49897e+10
1.19244e+11
-7.86732e+10
-4.96772e+10
-6.54457e+10
-2.9501e+10
-3.83554e+11
-1.07738e+12
-1.60148e+11
-9.18248e+10
-2.62514e+10
-6.81147e+11
7.0281e+10
-1.20498e+11
-4.53982e+11
8.942e+10
2.67236e+11
-3.03454e+11
-1.73888e+12
-3.89516e+10
-1.31929e+11
1.45217e+11
9.48529e+10
-1.9654e+11
-3.62852e+10
-2.2277e+11
6.68224e+10
2.02217e+11
-2.01608e+11
-2.22385e+11
1.63251e+11
1.24901e+10
2.11539e+11
-3.79678e+10
-3.15115e+10
-3.77858e+10
-2.3629e+11
-8.57972e+10
1.37301e+11
-2.99052e+11
-4.67612e+10
-4.46333e+10
4.29555e+10
5.24104e+11
3.83525e+10
-3.47336e+11
-6.81534e+10
-8.89544e+10
-1.24052e+11
3.23356e+10
6.59704e+11
-7.30391e+10
-4.63832e+10
3.02515e+10
6.48517e+11
-6.08215e+10
4.14065e+11
1.36034e+11
3.02915e+11
4.70778e+11
-1.9961e+11
-2.67953e+11
-8.03262e+11
4.2014e+10
1.54744e+12
-3.64144e+11
-1.22032e+12
3.25292e+12
-2.95375e+11
-3.81665e+11
-2.63765e+11
-5.70989e+10
1.10561e+12
9.14027e+10
1.65116e+11
1.0315e+11
1.96079e+12
-4.13513e+11
5.39129e+12
-6.47948e+10
2.91546e+11
6.58586e+11
-3.59288e+11
-9.76753e+13
1.18952e+13
7.75537e+11
-5.86703e+10
-5.17842e+10
-3.82262e+10
2.46155e+10
-4.28525e+10
3.2835e+10
-1.81725e+11
-1.5449e+11
-1.8654e+11
-6.64244e+10
-2.75196e+10
-2.13642e+11
-1.87701e+11
-9.41327e+10
-6.78001e+10
-4.73341e+10
2.65289e+11
1.09458e+11
-2.90183e+11
4.0928e+12
8.84856e+10
-9.95173e+10
9.56728e+10
1.01498e+11
-1.85633e+10
-1.74943e+10
-1.18485e+11
-7.39524e+11
-9.94722e+10
3.28581e+11
-3.26664e+10
-1.22196e+11
-1.00553e+11
-1.2e+11
4.60848e+11
-3.64088e+10
1.86698e+10
-7.80643e+10
5.83063e+10
1.93275e+11
8.12424e+11
-1.45342e+11
-8.16864e+11
-1.58601e+11
-1.98263e+11
4.44076e+10
6.22425e+10
-3.01304e+11
-1.51247e+11
-3.92506e+11
1.05165e+11
2.37487e+11
1.81593e+11
-1.17371e+11
-4.37892e+10
-3.43641e+10
-1.94084e+10
-8.43162e+10
-5.41793e+10
-8.32931e+10
-6.24837e+10
-5.80607e+10
-1.86932e+11
-8.41967e+10
-2.07626e+10
-8.97797e+10
1.84556e+10
8.5786e+09
-1.22035e+11
-2.45397e+10
-1.24658e+11
2.38218e+11
3.87289e+10
-1.62109e+11
-8.18265e+09
-8.01366e+09
3.68225e+11
8.21568e+10
-1.21362e+11
2.00094e+11
6.74858e+10
4.57517e+10
1.40112e+10
-5.57501e+10
3.90125e+10
-2.63099e+11
-4.64925e+10
-2.78478e+10
6.91275e+10
1.90339e+11
5.42051e+10
-8.33141e+10
4.67233e+09
-1.27048e+11
-2.37245e+11
-8.09015e+10
-3.15315e+11
-1.14229e+11
-3.81763e+11
-3.6956e+11
-1.64771e+11
-2.59528e+11
-5.66005e+10
-2.38907e+11
7.96733e+10
-3.39368e+11
-1.83118e+11
8.35141e+11
2.69665e+11
-3.15224e+11
-3.71816e+11
-5.42951e+11
6.59945e+10
-7.8937e+10
1.03619e+12
1.32254e+11
-1.42207e+11
-2.89284e+11
-1.17596e+11
-6.86707e+11
3.50729e+12
6.36843e+11
2.61901e+11
-6.64668e+10
-6.02728e+11
-5.90884e+11
1.56124e+11
4.75825e+10
-5.68521e+11
-1.44812e+11
-2.487e+11
-2.53515e+11
-6.25169e+10
-5.88912e+10
-5.27128e+10
3.27968e+10
-1.93066e+11
-7.0812e+10
-2.98173e+11
1.39255e+12
-3.1464e+11
6.84737e+11
9.21082e+10
-4.10023e+11
-4.86893e+11
-1.08641e+12
1.21411e+11
-6.69688e+10
-5.95359e+11
3.93919e+11
-1.56186e+11
-5.62778e+11
-3.56641e+10
-1.18851e+11
6.6388e+10
2.58706e+11
-2.30317e+11
-4.79277e+11
-2.55547e+11
8.90712e+10
-1.28267e+12
2.04664e+11
6.87329e+11
-4.36216e+10
-1.97311e+11
-1.04082e+11
2.61644e+11
2.87119e+11
-2.30875e+11
-5.85514e+11
-1.20274e+11
-3.21888e+11
1.58551e+11
-1.29045e+11
2.309e+10
-5.28968e+10
1.36575e+11
6.38274e+10
-2.55844e+11
-2.2999e+11
-3.27258e+11
-2.24511e+11
-2.2795e+10
-7.05712e+10
4.23693e+10
1.95604e+10
-1.708e+11
-1.97326e+10
-4.96344e+10
5.93951e+10
1.23051e+11
-5.72186e+10
-1.03971e+11
-3.05235e+10
5.32287e+10
3.26084e+10
-1.92019e+10
-1.47647e+11
-1.20016e+11
-8.57323e+11
-3.89412e+10
2.03655e+12
3.59989e+10
-9.91695e+10
-1.98766e+11
5.24894e+12
-2.64799e+11
-6.1399e+11
-1.23429e+11
-1.7325e+11
-3.79481e+11
-1.04585e+11
2.38175e+11
1.63916e+11
-3.66415e+11
-2.1972e+11
-3.76526e+10
-1.15672e+11
1.56119e+11
6.14665e+10
-1.37625e+11
4.18466e+11
4.67621e+11
-1.02315e+11
-8.39607e+11
1.84754e+11
6.86023e+10
-3.95735e+10
-1.96998e+11
-3.32249e+11
-2.72603e+10
-3.38939e+10
-2.67224e+10
-7.46551e+10
4.49836e+10
7.17162e+10
-1.62882e+11
1.02539e+11
1.61574e+12
-3.40861e+10
-1.23126e+11
-9.31283e+10
-3.42817e+11
1.21638e+12
-3.23084e+10
-1.04328e+11
-1.50517e+11
-3.7744e+10
-6.71533e+10
-1.18908e+11
4.14522e+10
-3.74561e+11
-3.8843e+11
-2.28291e+11
-1.71599e+11
-2.16934e+11
3.19118e+10
-1.66893e+10
-2.81626e+11
-1.18852e+12
-1.70066e+11
-1.89115e+10
-2.71953e+11
-5.46786e+11
4.34703e+10
-1.40569e+11
2.15938e+12
-2.95947e+12
-6.77727e+10
1.00687e+11
-1.26484e+11
4.96351e+12
-5.6823e+10
-6.6767e+10
-1.50974e+11
-9.25196e+10
2.32425e+11
6.08625e+10
-8.36004e+10
-7.50309e+10
2.80178e+12
-2.4308e+11
-2.78603e+11
-6.32556e+10
9.44841e+10
-1.16423e+11
-1.15201e+11
-1.74493e+11
4.82528e+10
-1.64856e+11
-2.12086e+12
6.20872e+10
-4.01145e+11
-3.52073e+11
-6.02932e+10
-1.29093e+11
-1.50092e+11
-7.41675e+11
5.59156e+09
-7.68153e+10
7.37443e+10
-6.28226e+10
-1.85521e+11
-2.27838e+11
-4.6741e+11
-3.55047e+11
-4.34948e+11
1.24092e+11
-5.97958e+10
2.55455e+11
-7.22351e+10
-4.80025e+11
1.95789e+10
-4.66287e+10
3.90308e+10
-3.11921e+10
-5.88238e+10
-3.94107e+10
-1.47303e+11
-2.18336e+11
-1.38901e+11
-1.68236e+11
-1.846e+11
-2.40573e+11
1.87829e+11
-1.03381e+11
3.58535e+11
-1.49895e+11
-5.78872e+12
-3.89069e+11
-9.00699e+10
4.18311e+10
-1.98604e+11
-8.89153e+11
-3.70213e+11
-3.22256e+11
-2.20991e+11
1.1631e+11
-2.54203e+11
-1.7989e+11
-2.11212e+11
4.87665e+11
-2.18081e+11
3.6956e+11
-1.64455e+11
-1.04598e+12
-1.58047e+11
1.95797e+11
-1.14184e+11
3.43443e+12
-1.69738e+11
-2.3482e+11
-4.11701e+10
2.71965e+11
-6.40487e+10
-4.75824e+11
-3.42037e+11
8.42182e+11
-3.21906e+11
-6.53341e+11
-1.66248e+11
-1.35417e+11
-6.08149e+11
2.23862e+11
5.16312e+12
-1.31456e+11
-5.07671e+10
-3.00932e+12
-4.77223e+10
4.08512e+10
-1.67167e+12
-1.06999e+13
-1.16088e+11
-8.58278e+10
1.59122e+11
3.34434e+11
-5.31313e+10
-1.20077e+12
-1.98412e+11
-1.65299e+11
5.8768e+11
-4.16569e+10
-1.28042e+11
1.41265e+11
-1.33072e+11
-7.9106e+10
6.83013e+10
2.98904e+10
-1.99292e+11
-4.12439e+11
-7.7062e+11
-7.87864e+10
4.98637e+10
-1.90949e+11
-1.33123e+12
-9.28942e+10
5.22016e+10
1.19176e+11
-2.43249e+11
6.15833e+11
1.11649e+12
2.29448e+11
1.28193e+11
-3.74026e+10
-1.17745e+11
1.58071e+12
-8.01774e+10
1.86832e+10
-6.86782e+10
3.25871e+11
1.6305e+12
-2.80964e+10
3.39094e+10
-9.86304e+11
-7.75133e+10
6.26258e+10
-9.99427e+10
4.71699e+11
-1.25356e+11
4.96797e+10
-4.01043e+10
-7.43945e+11
-2.57351e+11
1.80232e+12
3.02631e+11
-1.07957e+12
-3.59877e+10
1.3214e+11
-3.01863e+10
-3.45629e+10
2.13689e+11
-2.053e+11
4.24233e+10
-1.71354e+11
-1.33963e+12
-3.85627e+11
-2.39962e+11
-1.02807e+11
-4.09001e+11
-3.28041e+11
-6.61443e+11
-1.12567e+11
-1.3272e+11
6.14108e+11
7.60253e+10
-1.07334e+11
-5.17199e+10
-2.2497e+10
8.10402e+11
-8.68954e+10
-3.80381e+10
-2.38878e+10
-3.71075e+11
-5.39263e+11
-3.42645e+12
1.17147e+11
7.94576e+10
-3.44682e+10
-4.7877e+10
2.04744e+10
-2.68789e+10
2.74804e+11
1.1929e+11
-1.01118e+12
-2.43873e+11
3.05061e+11
-5.93926e+10
2.81003e+11
2.81597e+11
-3.22035e+10
-2.05478e+11
-1.27073e+11
3.07221e+11
-5.3425e+10
-3.01665e+11
4.37671e+10
-2.94809e+10
1.8907e+11
8.66661e+10
-1.43517e+10
2.70739e+13
6.09251e+10
-1.72862e+10
-5.74807e+10
-5.97796e+10
-2.32276e+10
-1.6285e+11
-1.05314e+11
1.79875e+12
-5.81283e+10
1.86915e+10
-4.04055e+10
-6.76784e+10
-6.15621e+10
-5.10445e+10
1.9042e+11
-5.07192e+10
1.47192e+11
8.64998e+10
-3.72938e+10
3.58739e+11
1.04133e+11
-4.2104e+10
-2.64875e+11
-2.02642e+11
-6.57228e+10
-7.22257e+10
6.02639e+11
-3.45092e+10
-9.12821e+10
-6.34723e+10
-3.4713e+10
8.65837e+10
5.4039e+10
-9.97505e+10
-7.75562e+10
2.71326e+11
-8.39341e+10
-4.33252e+10
-3.76809e+11
-1.94171e+11
-2.84527e+11
-4.96082e+11
-3.94088e+10
-1.36528e+12
-1.50867e+11
-5.89467e+11
-1.68029e+11
-2.423e+11
-1.75897e+11
-6.04382e+11
-5.88595e+10
-2.56993e+11
6.06787e+10
-2.45403e+11
-3.08856e+11
-6.29192e+11
-3.08982e+11
-6.46716e+11
-4.43776e+10
-9.57923e+12
3.89371e+11
-7.90393e+10
-1.71539e+11
-4.20334e+11
-6.98357e+10
3.84157e+11
1.21302e+11
4.50101e+11
2.32609e+10
-3.44731e+10
-4.06732e+10
-1.29282e+12
8.23851e+10
-2.75365e+11
8.13069e+10
1.24787e+11
-6.24061e+10
-1.56578e+11
-7.30537e+10
-3.50595e+11
-2.75399e+11
-4.04357e+11
-3.92476e+11
-1.8992e+11
-2.08225e+11
-3.43077e+12
2.56036e+10
-3.30335e+10
-3.85582e+10
-2.10664e+11
-1.87124e+11
-5.28414e+10
-3.94038e+10
1.49395e+10
-2.57649e+11
1.32575e+11
-3.54902e+10
7.13218e+11
2.48566e+12
-1.26579e+11
-2.81265e+11
1.21228e+12
-3.46992e+11
-6.13454e+10
1.00854e+11
-3.28064e+10
-3.41104e+11
-2.3891e+12
-1.51085e+11
-3.52657e+11
1.79223e+11
2.31246e+12
-6.6369e+11
-7.9346e+10
1.12515e+09
-1.98941e+10
4.95234e+10
3.41223e+11
2.13479e+10
4.87497e+10
4.71144e+10
1.13705e+11
9.81214e+10
4.83199e+10
3.63983e+11
1.82966e+12
2.69181e+11
-2.38833e+11
-2.11375e+11
1.19344e+12
-9.82844e+10
-5.01423e+10
4.05052e+10
1.43106e+11
-5.52263e+11
-2.30716e+10
-8.45059e+10
-1.79041e+11
-3.38979e+10
-5.76962e+10
1.28696e+11
-4.53395e+10
-3.70484e+11
-1.90952e+11
-1.26308e+11
-5.42315e+10
-3.72696e+10
-3.84073e+11
-5.06875e+10
-1.43692e+11
-2.29942e+11
-2.18456e+10
-7.84666e+10
-9.99122e+10
-7.3509e+11
-1.19141e+10
-8.14552e+10
-2.26197e+10
-1.25635e+11
-1.51951e+11
-4.32016e+10
-1.31586e+11
-2.80194e+11
-4.92024e+10
-9.143e+11
-6.16298e+11
-1.74e+11
-9.02208e+10
2.41516e+11
2.68443e+10
6.45133e+13
-2.19179e+12
-1.86685e+12
2.51246e+10
-1.64346e+10
1.22403e+10
-2.78308e+10
-4.05946e+11
-1.21643e+11
-2.24026e+11
-3.11996e+11
-2.12799e+11
-1.60715e+10
4.69006e+10
-4.05705e+10
-2.12327e+11
-1.22486e+11
-1.62811e+11
-4.29892e+11
-4.19315e+10
-4.50113e+13
2.16764e+12
-2.71715e+11
6.51304e+10
-3.14488e+11
-5.63674e+10
-3.20897e+11
-1.38497e+11
-4.84899e+11
-3.62353e+10
1.56834e+11
-1.7999e+11
-2.06833e+11
-6.80083e+11
-3.78915e+10
-1.31158e+11
-1.89845e+11
-3.97845e+10
-2.30246e+11
-1.36547e+11
-1.15234e+11
-1.98513e+11
-2.61455e+11
-4.17089e+11
1.78022e+12
-4.88192e+11
-2.27398e+11
-5.00633e+11
-4.70295e+10
7.86861e+10
-7.80019e+11
-1.87083e+11
-3.74127e+10
-1.52505e+11
-2.26166e+11
-4.13532e+11
-3.9059e+11
-4.04112e+10
-1.75366e+11
1.26568e+10
-3.08534e+12
4.96376e+11
9.41548e+10
-5.55327e+10
-7.94665e+11
-3.24543e+10
-5.15761e+10
9.2326e+09
-2.57229e+10
1.00774e+11
-2.45726e+11
-4.04298e+11
-1.72236e+11
8.56432e+10
-1.31864e+11
-1.85963e+11
9.59994e+10
6.57718e+10
-4.50343e+10
1.58849e+11
7.81037e+10
-1.54697e+10
1.66358e+10
-1.36002e+11
-2.08539e+10
1.16128e+10
-1.10398e+11
-1.48765e+11
-2.95945e+11
-3.35297e+11
-2.40884e+11
-3.55585e+11
-2.2463e+11
-4.09429e+10
-2.87265e+11
-2.31049e+11
-2.79648e+11
-4.60147e+11
-4.55519e+11
-2.14267e+11
-5.69314e+10
1.011e+12
-2.83383e+10
-5.0621e+10
3.82848e+11
-4.02151e+10
1.26566e+11
3.40142e+11
9.11986e+10
-8.43975e+11
5.50518e+10
-5.49217e+10
2.92369e+10
2.11932e+11
9.14952e+10
-1.25589e+11
1.90545e+11
-6.85301e+10
-4.79022e+10
1.29867e+12
-5.24185e+10
2.78507e+11
2.24732e+11
8.07774e+10
-3.39339e+10
4.58683e+10
1.27713e+11
-1.96641e+11
-2.44999e+11
-6.93522e+11
-3.82024e+11
-2.75663e+10
-1.74466e+11
-2.66889e+10
2.47394e+10
-1.22689e+11
-1.39023e+11
2.2109e+11
3.09049e+10
2.20517e+12
2.26246e+10
-1.36384e+11
-1.59016e+12
3.57082e+10
2.93243e+11
-7.67924e+11
2.50372e+11
1.08179e+11
1.46633e+11
-1.22492e+11
-8.28129e+10
-4.29848e+10
-4.3716e+11
8.92317e+11
1.43414e+11
-4.61782e+10
-1.10006e+11
-1.15594e+11
-1.95172e+11
-2.20108e+11
-1.80516e+11
6.8599e+10
-1.85579e+11
-1.38162e+11
-4.1961e+10
-2.37101e+13
-2.16392e+11
-2.83768e+10
8.67429e+10
-2.72223e+11
-2.99714e+11
-3.64767e+11
-1.63207e+11
-3.22882e+10
-6.30637e+10
-3.84575e+10
-3.72322e+11
-1.14654e+12
3.41636e+11
1.17734e+11
7.22375e+10
-9.04167e+10
-6.84893e+10
-3.85458e+10
-5.45056e+10
-2.34863e+11
8.08705e+11
3.00559e+10
3.47433e+11
-6.24006e+10
-6.13078e+10
-6.92555e+10
-4.23479e+10
9.09645e+10
2.46584e+11
-1.03411e+11
2.95038e+11
3.41252e+10
2.19751e+11
3.66379e+10
-1.71449e+11
-4.23504e+11
-1.52108e+11
-3.45918e+10
-2.06486e+11
-2.80024e+10
-2.5455e+11
-1.38955e+11
-1.2651e+11
-1.15011e+10
-1.13032e+10
5.01787e+11
-9.65739e+10
1.78335e+10
9.56052e+10
-3.00968e+11
-2.40012e+11
-2.55326e+13
-2.57579e+11
-3.64806e+11
-1.67634e+11
-2.67589e+11
-2.78091e+11
-3.41691e+11
-4.60346e+10
-1.4988e+12
-2.89945e+12
-2.89856e+11
-4.28876e+10
-1.00996e+11
-2.62797e+11
-2.8672e+11
-2.15591e+11
-2.34552e+10
8.6274e+10
-4.01377e+11
-9.31495e+11
9.54395e+10
-4.43098e+11
-4.09119e+10
1.48155e+10
-2.89193e+11
-2.05252e+11
-3.10224e+11
-5.74788e+11
-4.17118e+10
-1.89511e+12
-1.14507e+11
-2.70262e+10
3.59222e+11
-1.47438e+11
-3.65798e+10
-1.406e+11
-9.40182e+11
-3.49621e+11
-1.2675e+11
-3.72846e+10
-6.26968e+11
-1.30467e+11
-1.18611e+10
-1.56752e+11
-1.17855e+10
-5.20615e+13
-9.25327e+11
-2.59093e+10
3.25496e+10
-1.90263e+11
-3.44273e+10
1.55252e+10
-1.49975e+11
-1.28534e+11
-1.74204e+10
-9.0194e+10
-1.26267e+10
)
;
    }
}


// ************************************************************************* //
