/*--------------------------------*- C++ -*----------------------------------*\
| =========                 |                                                 |
| \\      /  F ield         | OpenFOAM: The Open Source CFD Toolbox           |
|  \\    /   O peration     | Version:  v1906                                 |
|   \\  /    A nd           | Web:      www.OpenFOAM.com                      |
|    \\/     M anipulation  |                                                 |
\*---------------------------------------------------------------------------*/
FoamFile
{
    version     2.0;
    format      ascii;
    class       volScalarField;
    location    "3e-05/oil";
    object      wallHeatFlux;
}
// * * * * * * * * * * * * * * * * * * * * * * * * * * * * * * * * * * * * * //

dimensions      [1 0 -3 0 0 0 0];


internalField   uniform 0;

boundaryField
{
    maxY
    {
        type            calculated;
        value           uniform 0;
    }
    minX
    {
        type            calculated;
        value           uniform 0;
    }
    maxX
    {
        type            calculated;
        value           uniform 0;
    }
    minY
    {
        type            calculated;
        value           uniform 0;
    }
    minZ
    {
        type            calculated;
        value           uniform 0;
    }
    maxZ
    {
        type            calculated;
        value           uniform 0;
    }
    oil_to_sphere
    {
        type            calculated;
        value           nonuniform List<scalar> 
1536
(
3.45307e+10
2.90445e+10
4.71899e+10
1.12481e+11
8.79769e+10
1.20594e+11
1.84289e+11
1.27183e+11
1.71736e+11
8.03452e+10
9.31858e+10
7.67933e+10
1.32184e+11
1.88294e+11
7.31326e+10
1.07612e+11
1.16679e+11
1.6738e+11
9.26951e+10
1.32339e+11
1.35119e+11
1.36414e+11
1.28899e+11
1.03168e+11
1.30847e+11
1.13219e+11
1.39586e+11
1.73756e+11
9.22994e+10
8.40601e+10
9.82313e+10
1.46797e+10
1.14322e+10
1.06061e+11
9.44973e+10
7.28338e+10
9.05448e+10
1.66075e+11
1.38946e+11
1.06053e+11
9.76086e+10
1.36768e+11
9.3903e+10
7.97854e+10
1.24937e+11
1.16523e+11
7.75418e+10
8.04633e+10
6.60107e+10
1.61386e+11
1.14444e+11
1.3846e+11
1.08922e+11
1.11122e+11
8.50491e+10
5.51061e+10
1.49438e+11
1.30005e+11
1.41823e+11
1.17293e+11
1.10303e+11
1.33287e+11
1.22036e+11
1.33025e+11
1.42667e+11
8.82845e+10
1.11526e+11
1.72983e+11
1.12852e+11
1.60786e+11
1.41563e+11
1.12382e+11
1.07268e+11
1.24488e+11
1.35257e+11
7.15895e+10
1.01692e+11
6.7536e+10
1.12356e+11
1.53358e+11
9.92295e+10
1.09926e+11
8.03869e+10
6.98719e+10
8.0293e+10
6.27192e+10
7.49269e+10
6.21393e+10
8.71718e+10
6.5734e+10
7.09621e+10
9.88569e+10
9.11536e+10
1.25974e+11
1.35428e+11
1.05923e+11
1.35725e+11
1.21446e+11
1.26317e+11
1.1139e+11
1.86789e+11
1.18374e+11
2.42182e+10
6.55938e+10
6.56774e+10
1.18104e+11
1.3572e+11
6.02411e+10
5.97057e+10
1.91599e+10
3.587e+10
2.95015e+10
7.0711e+10
9.95185e+10
5.29465e+10
6.64713e+10
4.45408e+10
3.56065e+10
1.46404e+10
3.0787e+10
7.90081e+10
7.05392e+10
9.62015e+10
1.16826e+11
1.00496e+11
1.25042e+11
1.20041e+11
1.59258e+11
1.22948e+11
9.77907e+10
1.3605e+11
6.42022e+10
8.58032e+10
5.96563e+10
9.98823e+10
7.78966e+10
1.41042e+11
5.14087e+10
7.12724e+10
6.50255e+10
6.31089e+10
6.10281e+10
6.09068e+10
7.05476e+10
6.30262e+10
7.08383e+10
8.91313e+10
6.35104e+10
1.78235e+10
3.64525e+10
1.34016e+11
6.89517e+10
1.09266e+11
7.98999e+10
8.36841e+10
1.55689e+10
5.76567e+10
1.40779e+10
6.08592e+10
4.51694e+10
5.1419e+10
6.69999e+10
6.70626e+10
6.13374e+10
1.4954e+11
1.66114e+11
1.13712e+11
2.60169e+10
1.20713e+11
4.46405e+10
1.00328e+11
1.47993e+11
1.18212e+11
1.05986e+11
4.64855e+10
3.81136e+10
3.7099e+10
3.36297e+10
6.1092e+10
4.03008e+10
4.99157e+10
4.8559e+10
4.29068e+10
4.54226e+10
4.49418e+10
3.0738e+10
2.92963e+10
6.13593e+10
7.08244e+10
1.67135e+11
1.48537e+11
4.29534e+10
8.6953e+10
1.39384e+11
8.72111e+10
7.42817e+10
6.78884e+10
3.85059e+10
6.69802e+10
7.95316e+10
1.71222e+11
1.39588e+11
1.1222e+11
2.32262e+11
1.4105e+11
1.75146e+11
2.34755e+11
6.7512e+10
4.90437e+10
6.84081e+10
7.74405e+10
1.44109e+11
1.46864e+11
2.39608e+10
2.26607e+10
2.46767e+10
2.41214e+10
3.85068e+10
9.69684e+10
9.19654e+10
5.49607e+10
5.72507e+10
1.11989e+11
1.74923e+11
2.19198e+11
2.30378e+10
2.90981e+10
2.25612e+10
2.25886e+10
4.05745e+10
5.85937e+10
6.12232e+10
7.55922e+10
7.41431e+10
1.59202e+11
7.21915e+10
1.42213e+11
1.70761e+11
1.29699e+11
5.80974e+10
5.74333e+10
8.55742e+10
3.57052e+10
6.26301e+10
8.48415e+10
7.90739e+10
1.51537e+11
6.88058e+10
4.93207e+10
3.45181e+10
1.63826e+11
5.3935e+10
7.82328e+10
8.11571e+10
8.71404e+10
7.95477e+10
8.80338e+10
7.70685e+10
1.60096e+11
5.25883e+10
3.1321e+10
2.7428e+10
1.84196e+11
5.63424e+10
5.00169e+10
8.57346e+10
4.76077e+10
3.36469e+10
5.3726e+10
9.54125e+10
1.27473e+11
1.33205e+11
1.53725e+11
7.55941e+10
1.48581e+11
4.89402e+10
3.56322e+10
3.85558e+10
1.83506e+11
5.21302e+10
4.4127e+10
1.05569e+11
9.08184e+10
6.7606e+10
1.38309e+11
9.47448e+10
1.17091e+11
7.3197e+10
1.25957e+11
3.95312e+10
3.37582e+10
3.31283e+10
1.72439e+11
1.38414e+11
1.01948e+11
8.73304e+10
9.39119e+09
7.54652e+09
1.7242e+10
3.70924e+09
5.52455e+09
5.05744e+09
6.85951e+09
1.73081e+09
2.08673e+09
4.54754e+10
2.72414e+10
6.40845e+10
6.9144e+10
4.48507e+10
5.3394e+10
4.24808e+10
2.04525e+10
1.70289e+10
2.50114e+10
2.32164e+10
2.43224e+10
1.42277e+10
4.84204e+10
6.2533e+10
4.43248e+10
4.9485e+10
7.78238e+10
6.72489e+10
1.19026e+10
1.08067e+10
2.37682e+10
2.55701e+10
3.73011e+10
2.73787e+10
3.74589e+10
8.19254e+10
7.38569e+10
1.31603e+11
2.00422e+11
4.94123e+10
9.30391e+10
1.43796e+11
7.77735e+10
5.88972e+10
6.43731e+10
1.06955e+11
1.73028e+11
1.66872e+11
1.55785e+11
1.37354e+11
1.92623e+11
1.4097e+11
1.52904e+11
7.89299e+10
7.28739e+10
8.11252e+10
3.20887e+10
2.10655e+10
1.71546e+10
5.82074e+10
4.01389e+10
1.74127e+10
4.13798e+10
1.28672e+10
1.88726e+10
4.17985e+10
2.72414e+10
4.38533e+10
2.89679e+10
5.45568e+10
7.18546e+10
1.75145e+11
1.39218e+11
1.37297e+11
2.05284e+11
7.7394e+10
1.32424e+11
1.95291e+11
8.27786e+10
6.13799e+10
4.79441e+10
8.35586e+10
7.31796e+10
6.3037e+10
1.13836e+11
1.32741e+11
1.3828e+11
1.60544e+11
1.74605e+11
7.32327e+10
5.49936e+10
3.8062e+10
4.69811e+10
1.11804e+11
1.49222e+11
1.46208e+11
1.00188e+11
1.60402e+11
1.2164e+11
1.43081e+11
4.75981e+10
5.15605e+10
1.1402e+11
1.42467e+11
7.6712e+10
6.78136e+10
3.68624e+10
5.08366e+10
1.00744e+11
2.18998e+11
6.02481e+10
1.01904e+11
1.33494e+11
1.66466e+11
1.36653e+11
1.54198e+11
1.51715e+11
2.4586e+11
1.29258e+11
1.73402e+11
1.7863e+11
1.30593e+11
8.82461e+10
1.5061e+11
5.36987e+10
1.51681e+11
1.09573e+11
4.55934e+10
7.13262e+10
1.0189e+11
1.11311e+11
7.58319e+10
4.19737e+10
5.17979e+10
4.05576e+10
6.8075e+10
1.05577e+11
1.5962e+11
8.99652e+10
1.13011e+11
8.846e+10
7.03008e+10
3.81505e+10
5.96694e+10
7.2957e+10
8.29079e+10
1.05157e+11
1.35821e+11
1.20607e+11
9.42485e+10
1.10729e+11
5.07792e+10
6.24643e+10
4.39782e+10
5.44602e+10
2.2419e+10
1.94744e+10
2.54467e+10
2.257e+10
2.83768e+10
2.83734e+10
4.85349e+10
5.13233e+10
4.82775e+10
1.01853e+11
7.11289e+10
1.80968e+11
9.03588e+10
4.15109e+10
1.71363e+10
4.95337e+10
5.34232e+10
5.3788e+10
4.81591e+10
5.8099e+10
5.9832e+10
4.41818e+10
2.79927e+10
4.89659e+10
3.30894e+10
8.34976e+10
9.86712e+10
5.76661e+10
1.48962e+11
2.34314e+11
8.64788e+10
1.49249e+11
8.18199e+10
1.72537e+11
8.30895e+10
9.03793e+10
5.13538e+10
9.01159e+09
3.19801e+10
5.77473e+10
3.57544e+10
4.94486e+10
5.58482e+10
6.75217e+10
6.64252e+10
8.41159e+10
9.37982e+10
1.16998e+11
1.10699e+11
6.49365e+10
2.90162e+10
5.84447e+10
6.78464e+10
4.06151e+10
5.27012e+10
6.5111e+10
6.87936e+10
4.94482e+10
8.96332e+10
7.45784e+10
4.44096e+10
1.01356e+11
1.02257e+11
8.07286e+10
1.63198e+11
1.71963e+11
7.27644e+10
1.41467e+11
2.11705e+11
7.55952e+10
1.66964e+11
3.77341e+10
1.85499e+11
7.35703e+10
3.08819e+10
3.55521e+10
5.80602e+10
6.97713e+10
5.55383e+10
4.96706e+10
1.20882e+11
1.30212e+11
5.06476e+10
7.56038e+10
4.43394e+10
6.72558e+10
3.4112e+10
7.64005e+10
1.29612e+11
3.86285e+10
4.09958e+10
8.2002e+10
1.66186e+11
4.64716e+10
7.80961e+10
3.90195e+10
2.99934e+10
8.71191e+10
4.59736e+10
9.37076e+10
2.735e+10
2.85964e+10
8.83242e+10
5.76723e+10
3.57813e+10
1.56432e+10
2.91226e+10
4.9783e+10
4.77023e+10
5.16991e+10
1.07431e+11
6.69465e+10
3.99156e+10
7.04115e+10
6.16898e+10
6.34043e+10
3.15672e+10
4.45045e+10
2.90244e+10
1.64176e+11
8.1478e+10
8.02489e+10
1.07325e+11
2.87168e+10
5.07665e+10
8.28382e+10
6.44143e+10
2.51492e+10
5.70696e+10
7.20089e+10
5.61431e+10
3.25252e+10
7.05226e+10
1.00227e+11
1.2196e+11
1.34064e+11
1.74876e+11
3.04244e+10
8.48448e+10
1.17753e+11
2.08809e+11
1.78724e+11
1.2461e+11
1.45559e+11
1.29807e+11
7.44549e+10
6.63289e+10
4.26633e+10
4.25498e+10
4.59954e+10
7.08133e+10
1.42728e+11
2.10458e+11
7.43793e+10
5.78038e+10
8.63681e+10
1.43775e+11
1.92059e+11
1.83468e+11
3.62919e+10
6.3812e+10
6.54998e+10
5.64813e+10
2.63918e+10
3.91876e+10
2.61563e+10
5.60874e+10
4.98034e+10
9.74312e+10
7.22154e+10
4.52956e+10
1.14457e+11
1.0081e+11
6.84669e+10
7.84675e+10
6.44222e+10
6.26946e+10
4.49421e+10
7.01113e+10
9.42417e+10
3.56069e+10
5.41734e+10
3.52475e+10
4.09049e+10
3.03972e+10
2.96659e+10
2.75195e+10
5.59097e+10
2.48311e+10
4.66389e+10
3.81754e+10
6.88038e+10
4.58244e+10
7.11441e+10
4.04717e+10
5.61124e+10
1.93495e+10
5.37246e+10
2.78969e+10
6.55268e+10
8.19832e+10
1.05338e+11
1.53189e+11
9.09182e+10
1.34769e+11
2.81911e+10
3.79706e+10
8.64089e+10
8.67265e+10
1.19298e+11
3.98988e+10
3.81756e+10
3.59323e+10
5.28843e+10
4.26004e+10
4.95596e+10
3.11305e+10
4.74011e+10
4.72976e+10
4.44841e+10
2.91588e+10
4.00906e+10
6.52068e+10
3.61058e+10
2.63428e+10
4.96056e+10
1.27465e+10
8.9686e+09
6.60983e+10
2.97041e+10
5.61984e+10
2.8793e+10
1.7457e+10
7.33716e+10
1.07868e+10
1.12769e+10
2.27525e+10
1.70002e+10
4.07365e+10
3.759e+10
1.86853e+10
1.42014e+10
8.24689e+09
3.0266e+10
1.40266e+10
2.95959e+10
5.2818e+10
3.98628e+10
3.11753e+10
3.15077e+10
2.32415e+10
6.5289e+10
7.53722e+09
5.2488e+10
3.31088e+10
9.176e+10
1.29061e+11
9.70093e+10
1.34677e+11
1.53379e+11
1.27437e+11
1.4587e+11
7.06925e+10
1.41711e+11
4.03917e+10
1.65261e+11
1.41443e+11
1.50248e+11
6.3613e+10
1.28827e+11
1.50347e+11
8.37448e+10
3.69953e+10
8.71457e+10
8.31108e+10
5.74714e+10
1.03481e+11
1.31624e+11
9.27402e+10
1.95764e+11
9.63746e+10
4.8436e+10
4.94256e+10
7.76103e+10
1.55651e+11
1.60043e+11
5.35466e+10
2.91013e+10
1.02513e+11
9.76071e+10
1.1292e+11
1.14932e+11
7.58014e+10
6.52683e+10
5.52888e+10
2.47635e+10
1.3601e+11
8.16519e+10
1.56768e+11
7.21766e+10
1.59107e+11
1.03235e+11
4.49776e+10
1.23894e+11
1.42041e+11
6.24381e+10
3.8776e+10
8.01586e+10
1.04408e+11
6.17973e+10
8.16421e+10
1.71261e+11
4.47767e+10
7.47925e+10
2.94646e+10
3.53089e+10
9.2412e+10
1.58123e+11
1.01438e+11
3.44227e+10
1.08297e+11
4.91061e+10
4.24231e+10
4.90628e+10
8.11514e+10
6.93761e+10
7.07745e+10
6.61201e+10
1.17781e+11
1.04265e+11
1.01162e+11
1.40479e+11
4.09221e+10
5.01735e+10
2.06623e+10
7.11027e+10
5.33382e+10
3.52627e+10
1.23396e+11
1.08185e+11
1.42076e+11
1.12376e+11
2.72044e+10
4.61629e+10
1.78151e+10
1.27387e+10
7.38362e+10
1.65879e+10
2.14626e+10
2.02372e+10
1.85401e+10
3.25351e+10
3.06769e+10
2.04619e+10
1.6942e+10
1.42379e+10
2.6453e+10
5.8034e+10
6.61058e+10
4.04289e+10
2.10194e+10
2.75876e+10
1.52193e+10
3.79671e+10
1.16769e+11
3.19341e+11
1.32187e+11
1.6155e+11
1.00292e+11
1.00322e+11
1.32019e+11
9.26369e+10
6.36976e+10
3.91796e+10
6.91238e+10
1.04032e+11
4.60331e+10
7.16763e+10
3.15614e+10
2.40959e+10
7.59163e+10
6.83727e+10
6.44183e+10
7.21486e+10
1.84197e+11
2.95838e+10
2.4863e+10
4.74357e+10
9.42833e+10
1.03839e+11
2.08712e+10
2.23109e+10
2.93364e+10
4.86998e+10
1.87409e+10
2.1557e+10
7.13486e+10
2.21946e+10
4.26858e+10
2.78003e+10
3.75247e+10
3.20858e+10
3.86801e+10
2.157e+10
3.25892e+10
5.22266e+10
7.08464e+10
2.56471e+10
2.82571e+10
3.13685e+10
1.62322e+10
3.79109e+10
9.65135e+10
1.12648e+11
1.05422e+11
1.24272e+11
1.83161e+10
2.97452e+10
3.09144e+10
1.54967e+11
9.44432e+10
3.2297e+10
3.32546e+10
3.19423e+10
3.10417e+10
9.55717e+10
1.81928e+11
1.04599e+11
7.59097e+10
3.77232e+10
9.11285e+10
1.96999e+11
5.1432e+10
7.74719e+10
5.95611e+10
6.11021e+10
6.22398e+10
3.47799e+10
5.7819e+10
5.61905e+10
2.58067e+11
1.24108e+11
1.3029e+11
7.50078e+10
3.80976e+10
5.57358e+10
6.56083e+10
1.15635e+11
3.28073e+10
1.12275e+11
2.15612e+11
3.31369e+10
9.62632e+10
9.45317e+10
4.60926e+10
7.07828e+10
6.95692e+10
1.14555e+11
6.15124e+09
7.43718e+10
4.28323e+10
7.19203e+10
6.55788e+10
1.24061e+11
1.82631e+11
1.45085e+11
1.79479e+11
4.93967e+10
7.45557e+10
5.33324e+10
7.98332e+10
5.65608e+10
1.79805e+10
4.80666e+10
2.31916e+10
3.90961e+10
7.18375e+10
5.03636e+10
8.87834e+10
1.10697e+11
7.5043e+10
1.04517e+11
1.08328e+11
6.53855e+10
6.95238e+10
9.8789e+10
7.28434e+10
1.00336e+11
6.03151e+10
1.31177e+11
3.43233e+10
1.95664e+10
1.01407e+11
1.83267e+11
1.43264e+11
7.85438e+10
5.52578e+10
2.26203e+10
1.05241e+11
1.04339e+11
1.07321e+11
1.07168e+11
1.14613e+11
7.6616e+10
8.52453e+10
1.12968e+11
9.81712e+10
6.14945e+10
8.44941e+10
1.08316e+11
9.71951e+10
9.97636e+10
6.12351e+10
3.72165e+10
7.35975e+10
5.96697e+10
6.94472e+10
1.23332e+11
1.41557e+11
1.57587e+11
1.20385e+11
8.10324e+10
2.96599e+10
3.28534e+10
1.03896e+11
8.71025e+10
6.59393e+10
4.11999e+10
6.20413e+10
2.55688e+10
2.02667e+11
1.92545e+11
8.32547e+10
9.30657e+10
5.51896e+10
6.17013e+10
7.91124e+10
5.80499e+10
9.28452e+10
1.0636e+11
6.38766e+10
7.01274e+10
6.37935e+10
5.53156e+10
5.83188e+10
6.08238e+10
3.4916e+10
2.35204e+10
9.16094e+10
9.13169e+10
6.29251e+10
8.58864e+10
3.34314e+10
1.16594e+11
2.20057e+11
8.99636e+10
3.2629e+10
5.66375e+10
9.01467e+10
8.96619e+10
6.24047e+10
4.37511e+10
3.9815e+10
6.79026e+10
8.40719e+10
6.01777e+10
7.30979e+10
1.99124e+10
8.75119e+10
4.84395e+10
4.31441e+10
5.99202e+10
2.48501e+10
1.03878e+11
8.79366e+10
3.93275e+10
1.01398e+11
5.73641e+10
6.45837e+10
3.5206e+10
6.7765e+10
9.67194e+10
9.09578e+10
8.07675e+10
6.23276e+10
4.48224e+10
5.79735e+10
3.88354e+10
2.18517e+10
2.1967e+10
3.14672e+10
8.04304e+10
2.22492e+10
1.11359e+11
2.12573e+11
1.23701e+11
1.08509e+11
7.62026e+10
1.41098e+11
1.62859e+11
1.87118e+11
7.49878e+10
6.90195e+10
8.30179e+10
3.17727e+10
6.9945e+10
2.83306e+10
2.16139e+10
6.60292e+10
7.22657e+10
2.60761e+10
1.86174e+10
8.6665e+10
9.92325e+10
5.47719e+10
3.71594e+10
3.51559e+10
5.76101e+10
5.31906e+10
1.58845e+10
4.55945e+10
6.07674e+10
4.5792e+10
7.26183e+10
5.58307e+10
5.86128e+10
8.15667e+10
6.71094e+10
4.64221e+10
6.29947e+10
5.495e+10
5.17611e+10
6.7197e+10
6.67017e+10
4.76966e+10
2.6517e+10
4.65719e+10
2.93594e+10
2.17492e+10
2.71483e+10
2.95428e+10
2.20017e+10
2.95496e+10
2.04232e+10
2.2836e+10
3.02232e+10
5.27726e+10
5.60669e+10
6.565e+10
5.44528e+10
1.94355e+10
5.43361e+10
5.37079e+10
5.79372e+10
6.53687e+10
4.52146e+10
7.07619e+10
4.21547e+10
3.71047e+10
6.7215e+10
5.62748e+10
4.44123e+10
7.12368e+10
7.92917e+10
8.57248e+10
7.66464e+10
5.79742e+10
3.55867e+10
5.93735e+10
5.73469e+10
5.3897e+10
6.02878e+10
4.02888e+10
2.76088e+10
5.02538e+10
5.13893e+10
5.77851e+10
5.65243e+10
5.88177e+10
1.56196e+11
1.21881e+11
1.33727e+11
1.57241e+11
6.87426e+10
5.83588e+10
1.23581e+11
1.80506e+11
1.10432e+11
1.26569e+11
1.10802e+11
1.82675e+11
8.15763e+10
1.30015e+11
3.47985e+10
1.3804e+11
1.46557e+11
1.84413e+11
1.54501e+11
1.48829e+11
7.27243e+10
2.06558e+11
5.85459e+10
9.03824e+10
6.17916e+10
6.20191e+10
8.28092e+10
6.64519e+10
5.17298e+10
4.69827e+10
2.11613e+10
5.74535e+10
7.15734e+10
5.1385e+10
3.75264e+10
1.45581e+11
3.94917e+10
3.82425e+10
5.56962e+10
7.09725e+10
7.64225e+10
1.00386e+11
1.35217e+11
1.45345e+11
1.47854e+11
1.15775e+11
1.31961e+11
5.05185e+10
2.19435e+10
5.65957e+10
4.42558e+10
1.34709e+11
1.93031e+10
5.00756e+10
5.54337e+10
1.68193e+10
5.50338e+10
2.49168e+10
6.88306e+10
5.67822e+10
4.61544e+10
1.1319e+11
1.39423e+11
1.76931e+11
1.31685e+11
6.1206e+10
3.88026e+10
6.49074e+10
6.21508e+10
4.33335e+10
1.15378e+11
1.57044e+11
1.97975e+10
1.20054e+11
1.12588e+11
8.76847e+10
9.06893e+08
1.33653e+10
1.51914e+10
2.98709e+10
1.21929e+10
1.96885e+10
2.78952e+10
3.91069e+10
2.53917e+10
3.19093e+10
6.53752e+10
5.052e+10
4.9454e+10
1.0207e+11
9.53739e+10
1.10688e+11
8.12809e+10
7.30932e+10
3.03592e+10
3.57975e+10
9.44471e+10
2.2698e+10
4.13632e+10
5.1934e+10
2.55584e+10
3.26001e+10
3.83319e+10
2.64273e+10
5.05838e+10
4.80546e+10
4.20557e+10
2.98621e+10
2.4178e+10
1.05942e+11
5.25216e+10
9.08383e+10
1.14839e+11
3.58544e+10
3.61641e+10
5.22159e+10
1.59602e+11
2.71737e+10
3.27961e+10
2.62484e+10
9.06618e+10
1.01915e+11
6.6131e+10
1.07318e+11
1.31567e+11
7.22325e+10
1.87121e+11
1.92736e+11
1.24764e+11
9.0295e+10
4.78603e+10
2.46736e+10
2.91009e+11
3.09418e+11
2.21463e+11
1.85678e+10
2.99806e+10
1.2875e+10
2.94695e+10
1.02356e+11
7.36706e+10
1.11816e+11
1.24764e+11
1.09002e+11
3.15085e+10
1.80913e+10
3.10976e+10
1.08747e+11
1.04124e+11
1.10793e+11
1.7315e+11
6.93314e+10
6.42962e+10
1.82436e+11
1.43771e+11
3.42248e+10
1.30618e+11
7.70868e+10
1.50674e+11
1.18326e+11
1.51634e+11
6.57433e+10
4.45977e+10
1.25246e+11
1.22401e+11
1.9814e+11
6.54642e+10
9.97176e+10
1.2242e+11
5.94829e+10
1.09462e+11
1.15673e+11
1.03773e+11
1.43688e+11
1.56713e+11
1.58099e+11
1.8216e+11
1.8131e+11
1.36468e+11
1.8491e+11
7.44177e+10
4.07738e+10
5.11489e+10
1.27284e+11
6.1951e+10
9.33546e+10
1.36247e+11
1.67139e+11
1.60515e+11
6.0791e+10
1.06336e+11
1.45203e+10
1.46913e+11
1.37368e+11
2.7414e+10
4.20764e+10
4.37699e+10
5.11376e+10
4.05722e+10
1.36053e+10
4.62256e+10
2.77106e+10
1.16331e+11
1.37264e+11
8.30522e+10
4.26449e+10
1.12667e+11
8.28258e+10
4.03317e+10
3.44616e+10
7.37078e+10
5.58425e+10
2.61725e+10
3.0246e+10
1.42786e+10
4.64274e+10
3.50536e+10
1.24657e+10
5.17162e+10
8.0072e+10
1.05739e+11
1.31071e+11
1.14888e+11
1.30196e+11
1.13976e+11
6.82258e+10
8.42427e+10
1.09951e+11
1.52629e+11
1.58842e+11
1.75489e+11
1.33922e+11
3.73723e+10
2.77986e+10
4.69903e+10
3.9476e+10
5.45258e+10
5.89968e+10
3.46815e+10
4.86347e+10
4.0944e+10
5.54469e+10
3.39853e+10
6.39712e+10
2.4825e+10
5.18121e+10
4.16101e+10
6.53921e+10
3.73144e+10
6.33332e+10
7.2376e+10
7.29004e+10
5.72167e+10
5.24717e+10
3.81842e+10
3.75345e+10
6.36767e+10
3.00998e+10
3.97758e+10
1.32835e+11
1.37115e+11
2.00632e+11
1.48786e+11
4.68009e+10
4.82757e+10
4.41741e+10
1.94243e+10
7.2578e+10
7.55488e+10
6.40103e+10
2.43972e+10
3.57291e+10
2.04694e+10
6.27192e+10
3.94077e+10
2.2508e+10
4.99158e+10
8.15118e+10
4.59718e+10
4.34844e+10
4.75762e+10
6.59272e+10
6.94285e+10
6.71443e+10
9.9822e+10
6.54234e+10
4.40857e+10
7.49861e+10
8.77467e+10
1.06778e+11
8.47363e+10
1.15669e+11
1.05644e+11
3.32554e+10
1.08037e+11
1.00378e+11
7.02106e+10
5.37616e+10
1.18704e+11
5.79779e+10
3.57342e+10
1.2491e+11
1.32608e+11
1.61365e+11
1.16282e+11
5.8905e+10
7.47277e+10
5.8782e+10
1.31124e+11
7.98923e+10
4.82043e+10
4.04849e+10
3.45874e+10
5.58165e+10
5.79211e+10
6.69958e+10
5.99721e+10
7.99092e+10
5.07947e+10
2.17727e+10
5.34783e+10
6.35843e+10
7.90988e+10
6.25256e+10
6.86605e+10
4.26911e+10
4.6227e+10
7.06669e+10
3.51861e+10
1.85751e+10
3.35631e+10
1.86878e+10
1.18567e+11
1.59456e+11
1.11861e+11
6.31371e+10
1.14737e+11
5.37594e+10
6.33323e+10
6.47572e+10
6.50996e+10
1.83836e+10
1.87262e+10
2.91289e+10
2.75497e+10
1.39892e+10
4.21588e+10
1.21788e+11
9.79032e+10
3.07657e+11
1.46655e+11
1.61964e+11
1.27611e+11
1.48203e+11
1.41892e+11
1.61308e+11
7.33915e+10
5.22544e+10
1.6638e+11
1.5155e+11
6.81863e+10
9.1893e+10
1.31342e+11
1.47935e+11
1.31903e+11
4.78178e+10
3.13712e+10
1.42388e+11
1.68044e+11
4.50266e+10
1.82156e+11
6.6474e+10
2.04434e+10
1.16267e+11
1.26506e+11
1.6138e+11
1.89686e+11
5.54426e+10
6.58718e+10
6.8848e+10
4.58267e+10
4.67161e+10
7.40066e+10
6.51031e+10
1.05171e+11
1.93108e+11
1.55028e+11
1.05464e+11
5.97294e+10
1.15326e+11
6.52869e+10
1.90608e+10
6.84647e+10
1.83826e+10
1.29128e+11
1.73138e+11
4.6688e+10
1.90703e+10
8.55048e+10
4.84845e+10
1.52804e+10
7.75331e+10
6.45356e+10
2.25374e+10
5.86382e+10
1.97714e+10
)
;
    }
}


// ************************************************************************* //
