/*--------------------------------*- C++ -*----------------------------------*\
| =========                 |                                                 |
| \\      /  F ield         | OpenFOAM: The Open Source CFD Toolbox           |
|  \\    /   O peration     | Version:  v1906                                 |
|   \\  /    A nd           | Web:      www.OpenFOAM.com                      |
|    \\/     M anipulation  |                                                 |
\*---------------------------------------------------------------------------*/
FoamFile
{
    version     2.0;
    format      ascii;
    class       volScalarField;
    location    "64";
    object      alphat;
}
// * * * * * * * * * * * * * * * * * * * * * * * * * * * * * * * * * * * * * //

dimensions      [1 -1 -1 0 0 0 0];


internalField   nonuniform List<scalar> 
78750
(
0.000130578
0.000203078
7.79792e-05
0.000141614
0.000127054
0.000203242
0.000125598
0.00014184
0.000163359
0.000145393
0.000184824
0.000154286
0.000196896
0.000168476
0.000184827
0.000169232
0.000163402
0.000193779
0.000177505
0.000217926
0.000199576
0.000242507
0.000218035
0.000245044
0.00021288
0.000199224
0.000250945
0.000209922
0.000175248
0.000225118
0.000100101
7.0295e-05
3.8726e-05
4.60992e-05
1.20556e-05
6.80974e-05
7.6846e-05
2.82966e-05
2.43917e-05
1.28466e-05
1.10881e-05
2.22823e-06
1.16665e-05
1.79138e-06
1.26789e-05
1.3811e-05
1.00986e-05
8.66346e-06
2.26701e-06
9.78833e-06
3.03872e-06
6.37044e-06
5.00335e-06
2.18692e-05
9.82693e-06
2.75052e-05
7.26438e-06
6.75977e-05
2.48696e-05
0.000127614
2.96167e-05
0.000120844
5.80523e-05
9.9557e-05
9.9463e-05
7.55618e-05
5.08886e-05
6.63225e-05
6.96045e-05
9.39314e-06
2.36811e-05
2.51003e-05
1.90171e-05
1.10543e-05
2.06641e-05
3.00923e-06
3.42576e-05
4.6408e-06
2.20744e-05
8.01838e-06
1.97058e-05
1.22277e-05
1.99002e-05
1.22319e-05
2.11452e-05
1.09954e-05
3.34299e-05
6.16789e-06
9.15453e-06
6.2812e-06
1.6247e-05
1.22438e-05
2.23117e-05
1.8234e-05
2.45111e-05
3.16007e-05
2.35515e-05
2.85315e-05
2.26557e-05
2.57284e-05
2.43837e-05
2.45216e-05
2.51099e-05
2.7494e-05
1.06959e-05
4.51151e-05
1.88381e-05
2.46232e-05
1.31568e-05
1.31578e-05
1.78144e-05
8.53784e-06
1.33238e-05
2.09321e-05
2.10227e-05
3.02752e-05
1.71659e-05
2.13447e-05
1.70678e-05
1.27354e-05
1.46257e-05
9.60755e-06
1.62397e-05
1.30081e-05
2.26097e-05
2.08672e-05
2.42306e-05
1.76646e-05
2.1339e-05
1.76323e-05
8.97665e-06
1.61995e-05
9.40757e-06
2.68043e-05
1.25992e-05
1.60126e-05
1.21299e-05
1.25679e-05
1.63926e-05
6.63731e-06
5.06862e-05
4.53427e-05
7.78068e-05
2.43995e-05
2.98734e-05
1.55739e-05
1.0539e-05
1.06201e-05
1.11271e-05
9.25773e-06
5.06456e-05
4.41889e-05
5.63641e-05
5.38971e-05
3.20196e-05
4.40684e-05
3.70568e-05
4.54611e-05
5.83885e-05
4.98419e-05
5.36345e-05
4.20892e-05
3.89037e-05
3.24813e-05
3.77e-05
2.66918e-05
3.86786e-05
2.28924e-05
2.66804e-05
2.16131e-05
1.87081e-05
1.42898e-05
1.02853e-05
6.95125e-06
3.50322e-06
5.04071e-06
8.55423e-07
7.92679e-06
6.21768e-05
1.75458e-05
8.04423e-06
1.37116e-05
2.12491e-05
1.53854e-05
1.62988e-05
1.62594e-05
1.73271e-05
1.60601e-05
1.94114e-05
1.97616e-05
3.12445e-05
3.38563e-05
5.26601e-05
4.96138e-05
0.000110275
8.28504e-05
0.000189478
0.000110661
0.000187823
0.000118399
0.00014728
0.000107806
7.72431e-05
3.85519e-05
3.18019e-05
4.04725e-05
6.37933e-05
0.000102151
3.20955e-05
4.8576e-06
4.98963e-05
7.6305e-06
2.49417e-06
4.33603e-06
5.1003e-06
6.31082e-06
2.85633e-05
9.51148e-07
3.54495e-05
2.80735e-05
4.34408e-05
4.28256e-05
3.20678e-05
2.79686e-05
2.58518e-05
2.25315e-05
2.2427e-05
2.4092e-05
2.47877e-05
2.755e-05
2.86013e-05
3.03736e-05
3.18703e-05
3.3257e-05
3.55012e-05
3.74124e-05
4.0048e-05
4.39113e-05
5.14638e-05
6.14089e-05
5.88334e-05
2.41072e-05
1.60316e-05
6.08969e-05
6.17372e-06
5.67649e-05
0.000251798
0.000151806
0.000143668
0.000168117
7.09219e-05
3.39751e-05
4.42564e-05
0.000101633
9.82337e-05
5.81258e-05
4.02684e-05
3.66554e-05
4.38763e-05
6.93812e-05
7.41066e-05
3.74109e-05
2.77712e-05
2.8099e-05
2.97069e-05
3.29827e-05
3.58192e-05
3.94946e-05
4.31961e-05
4.70934e-05
5.08163e-05
5.45675e-05
5.63186e-05
5.49445e-05
5.4025e-05
4.66962e-05
5.11734e-05
6.07563e-05
5.69557e-05
5.29805e-06
5.46866e-05
0.000117854
0.000323549
0.000979554
0.000365019
0.000154661
0.000125808
0.000182835
0.000268902
0.00022583
0.000165666
0.000121578
8.64206e-05
6.02533e-05
4.66669e-05
4.70412e-05
7.81556e-05
4.4076e-05
2.67351e-05
2.53603e-05
2.69322e-05
2.89643e-05
3.08368e-05
3.23649e-05
3.38841e-05
3.60145e-05
3.85627e-05
4.064e-05
4.11515e-05
3.85419e-05
3.2296e-05
2.54578e-05
2.83163e-05
5.20666e-05
5.50553e-06
4.04273e-05
0.000132014
0.000688072
0.000725246
0.000526479
0.000363574
0.00029425
0.000249039
0.000200777
0.000160438
0.000130652
0.000103009
7.47892e-05
5.56303e-05
4.94059e-05
5.39141e-05
3.64952e-05
2.29486e-05
2.03518e-05
2.02383e-05
2.07821e-05
2.19429e-05
2.35104e-05
2.4531e-05
2.45484e-05
2.50868e-05
2.82698e-05
3.43395e-05
4.13195e-05
4.67008e-05
4.45988e-05
2.61982e-05
1.93579e-05
3.15125e-05
3.93903e-06
2.62505e-05
0.000179195
0.000400303
0.000351601
0.000276964
0.000218721
0.000174526
0.000139918
0.000111464
8.86849e-05
7.08158e-05
5.78389e-05
5.31392e-05
5.7735e-05
3.7375e-05
2.85411e-05
2.96637e-05
3.29189e-05
3.63546e-05
3.98016e-05
4.28259e-05
4.43217e-05
4.30596e-05
3.83826e-05
2.98546e-05
1.97888e-05
1.60093e-05
1.93018e-05
2.69431e-05
3.51272e-05
3.89815e-05
3.76937e-05
4.04015e-05
5.50048e-05
5.2717e-06
1.09166e-05
0.000140271
0.000120281
0.000114259
9.60289e-05
8.00863e-05
6.77874e-05
5.87898e-05
5.32749e-05
5.21524e-05
5.4708e-05
5.37098e-05
4.63793e-05
4.15481e-05
4.10982e-05
4.3491e-05
4.75516e-05
5.27733e-05
5.8575e-05
6.41921e-05
6.73466e-05
6.21198e-05
5.7269e-05
5.76281e-05
5.40742e-05
4.42874e-05
3.87424e-05
3.99902e-05
4.58955e-05
5.24714e-05
5.50946e-05
5.60822e-05
6.41574e-05
7.34519e-05
4.28808e-06
1.01009e-05
5.51476e-05
4.78313e-05
5.0814e-05
5.1578e-05
5.30974e-05
5.59885e-05
6.05555e-05
6.71697e-05
7.58885e-05
8.57715e-05
9.37697e-05
9.55264e-05
9.04493e-05
8.31611e-05
7.83715e-05
7.75546e-05
7.89124e-05
7.88044e-05
7.43872e-05
6.78791e-05
6.48552e-05
6.69943e-05
7.18652e-05
7.57369e-05
7.53839e-05
6.94044e-05
6.06579e-05
5.32209e-05
4.97347e-05
5.24712e-05
6.44797e-05
8.32429e-05
3.80398e-05
3.06145e-06
9.70326e-06
4.69242e-05
7.16644e-05
8.34248e-05
9.20115e-05
0.000101331
0.000112014
0.000124007
0.000136869
0.000149514
0.000159013
0.000159246
0.000150205
0.000144222
0.000147009
0.000149588
0.00013822
0.000117536
0.00010415
0.000103425
0.00011202
0.000121823
0.000124717
0.000120147
0.000111714
0.000102222
9.3167e-05
8.50202e-05
7.75779e-05
7.0786e-05
6.41276e-05
5.63412e-05
4.82183e-05
3.65938e-05
1.33511e-06
1.2905e-05
6.42194e-05
0.000118518
0.000133651
0.000139039
0.000142323
0.000143632
0.000142142
0.000137434
0.000130858
0.000123896
0.000115046
0.000102943
9.23818e-05
9.12337e-05
0.000107146
0.00014959
0.000214496
0.000256838
0.000261104
0.000245849
0.000220985
0.000197988
0.000180891
0.00016489
0.000152347
0.000156142
0.000174497
0.000174612
0.000147095
0.000112016
8.06562e-05
6.55264e-05
5.10827e-05
1.71719e-06
1.26291e-05
5.4701e-05
0.000138371
0.000175722
0.000186151
0.000188959
0.000186832
0.000180152
0.000169637
0.000157812
0.000147054
0.000135372
0.000118403
9.71141e-05
7.86183e-05
6.83723e-05
6.73277e-05
7.47208e-05
8.98005e-05
0.000111839
0.00013868
0.000165572
0.000187541
0.000202193
0.000211437
0.000221566
0.000233029
0.000230462
0.000212668
0.000184829
0.000147773
0.00010463
6.72934e-05
5.14533e-05
3.3461e-06
1.28031e-05
6.81128e-05
0.000174364
0.000211176
0.000211185
0.000198415
0.000177837
0.000152371
0.000126041
0.00010579
9.8226e-05
0.000106573
0.000127927
0.000141343
0.000125163
0.00010147
9.07483e-05
9.44232e-05
0.000109321
0.000133189
0.000167337
0.000206993
0.000227147
0.000210552
0.000160831
0.000111236
9.52484e-05
0.000106098
0.000123624
0.000126851
0.000116732
0.000102988
9.42715e-05
8.93395e-05
4.48113e-06
1.2397e-05
7.35851e-05
0.000200052
0.00022621
0.000221243
0.000205766
0.000183541
0.000156361
0.00012758
0.00010282
8.68075e-05
8.0745e-05
8.2115e-05
8.466e-05
8.20849e-05
7.67415e-05
7.67635e-05
8.77212e-05
0.000111303
0.000142296
0.000166353
0.000170096
0.000151455
0.000117796
8.40664e-05
6.4926e-05
6.35635e-05
7.74712e-05
9.93062e-05
0.00011426
0.000117712
0.000114232
0.000104534
4.85845e-05
3.38355e-06
1.18893e-05
7.46151e-05
0.000210169
0.000243051
0.000231956
0.000204826
0.000172031
0.000140668
0.000115539
9.90552e-05
9.1546e-05
9.18761e-05
9.65049e-05
9.83222e-05
9.1644e-05
8.04079e-05
7.3167e-05
7.42136e-05
8.35264e-05
9.80179e-05
0.000111684
0.000118289
0.000115703
0.000105726
9.11779e-05
7.6591e-05
6.84399e-05
7.08127e-05
8.33867e-05
9.84313e-05
0.000102594
8.95728e-05
8.05475e-05
7.1761e-05
3.50801e-06
1.18072e-05
7.73298e-05
0.000211881
0.000228449
0.000212904
0.000185823
0.000154471
0.000123704
9.72613e-05
7.76512e-05
6.61715e-05
6.33508e-05
6.89817e-05
8.08411e-05
9.26378e-05
9.74124e-05
9.59451e-05
9.44313e-05
9.64315e-05
0.000101248
0.00010634
0.000109482
0.000109185
0.000104688
9.64884e-05
8.64768e-05
7.72997e-05
6.95959e-05
5.95052e-05
4.90257e-05
4.46251e-05
4.68815e-05
5.69688e-05
5.95689e-05
4.63204e-06
1.12203e-05
7.11603e-05
0.000206679
0.00023866
0.000225611
0.000197457
0.000167247
0.000141259
0.000119713
0.000100663
8.38754e-05
7.15315e-05
6.58714e-05
6.74112e-05
7.49234e-05
8.59264e-05
9.7637e-05
0.000108589
0.000119091
0.000129951
0.000141652
0.000153294
0.000159951
0.000153333
0.000128824
8.98047e-05
5.24416e-05
3.30446e-05
2.84605e-05
3.22965e-05
4.18958e-05
5.58243e-05
6.60248e-05
2.70184e-05
3.88167e-06
1.1439e-05
7.12269e-05
0.000207997
0.000235393
0.00021612
0.000182751
0.0001504
0.000125808
0.000108693
9.60535e-05
8.55983e-05
7.72199e-05
7.23661e-05
7.23864e-05
7.72385e-05
8.54167e-05
9.51823e-05
0.000105834
0.000117475
0.000129982
0.000142612
0.000153522
0.000158482
0.000151216
0.000128139
9.28361e-05
5.84835e-05
3.82738e-05
3.22369e-05
3.59939e-05
4.56613e-05
5.49148e-05
5.4867e-05
2.24684e-05
2.86315e-06
1.12138e-05
6.75379e-05
0.000202857
0.00023559
0.000217093
0.000182188
0.000149104
0.00012695
0.000114756
0.000106275
9.53573e-05
8.14673e-05
6.9541e-05
6.42478e-05
6.76589e-05
7.97676e-05
9.7941e-05
0.000116922
0.000132057
0.000142125
0.000147938
0.000149932
0.000147586
0.000140078
0.000127016
0.000108704
8.63697e-05
6.42508e-05
4.93682e-05
4.44184e-05
4.77373e-05
5.73303e-05
6.66812e-05
3.23472e-05
2.67754e-06
1.14029e-05
6.76976e-05
0.000202879
0.000236681
0.000213532
0.000171513
0.000133649
0.000111449
0.000104534
0.000108189
0.000114199
0.000111125
9.53318e-05
7.70666e-05
6.64715e-05
6.65059e-05
7.65723e-05
9.48517e-05
0.000117823
0.000140206
0.00015697
0.000165475
0.000165701
0.000159068
0.000147352
0.000132116
0.000114619
9.61201e-05
7.8592e-05
6.49284e-05
5.74676e-05
5.8059e-05
7.03146e-05
5.45151e-05
2.88989e-06
1.1637e-05
7.09604e-05
0.000204193
0.000225248
0.00019748
0.000154356
0.00011857
9.85735e-05
9.18213e-05
9.38961e-05
0.000100434
0.000105824
0.000103841
9.3435e-05
8.19878e-05
7.76486e-05
8.3459e-05
9.87826e-05
0.000120815
0.000145061
0.000166529
0.000181357
0.000187786
0.000186013
0.000177301
0.000163152
0.000144787
0.000122819
9.72397e-05
6.97691e-05
4.84214e-05
4.08446e-05
4.83975e-05
5.65475e-05
3.25102e-06
1.15487e-05
7.30905e-05
0.000212057
0.000229116
0.000193091
0.00014411
0.000109812
9.52389e-05
9.56225e-05
0.000105404
0.000117187
0.00012171
0.000113513
9.64377e-05
8.00492e-05
7.16593e-05
7.40064e-05
8.74424e-05
0.000110869
0.000140542
0.000169764
0.000191654
0.000202858
0.000203691
0.00019588
0.000181091
0.000160448
0.000134108
0.000100886
6.299e-05
3.57366e-05
2.79135e-05
3.66707e-05
3.77969e-05
3.37519e-06
1.15625e-05
7.19056e-05
0.000203637
0.00021466
0.000177128
0.000129633
9.73613e-05
8.29679e-05
8.1844e-05
9.05799e-05
0.000105801
0.000121074
0.000126893
0.00011779
9.98683e-05
8.49685e-05
7.99213e-05
8.58476e-05
0.000101717
0.000125433
0.000153308
0.000179781
0.00019917
0.000208301
0.000206843
0.000195691
0.000175539
0.000145907
0.000105269
6.00693e-05
3.09066e-05
2.24795e-05
3.08351e-05
2.869e-05
3.33999e-06
1.12357e-05
6.88358e-05
0.000202759
0.000215421
0.000174274
0.000126948
9.75483e-05
8.50776e-05
8.41026e-05
9.13211e-05
0.000103563
0.000115427
0.000119963
0.000113401
9.96887e-05
8.76349e-05
8.38113e-05
9.02718e-05
0.000106156
0.000128752
0.000154025
0.000177037
0.00019324
0.000200204
0.000197778
0.00018671
0.000167323
0.000138928
0.000101068
6.08197e-05
3.3995e-05
2.53952e-05
3.41719e-05
2.44128e-05
3.09432e-06
1.12875e-05
6.30619e-05
0.000191303
0.000208373
0.000165464
0.000118494
9.17478e-05
8.05562e-05
7.85956e-05
8.43688e-05
9.80182e-05
0.000117063
0.000133069
0.00013443
0.000118402
9.72809e-05
8.48071e-05
8.5843e-05
9.94925e-05
0.000121942
0.000147597
0.000170711
0.000186771
0.000193404
0.000190447
0.000179024
0.000160279
0.000134641
0.000102607
6.88425e-05
4.41616e-05
3.5454e-05
4.45783e-05
2.71073e-05
2.93204e-06
1.13031e-05
6.14515e-05
0.000189951
0.000198159
0.000141237
9.65858e-05
7.98833e-05
7.80734e-05
8.08414e-05
8.53323e-05
9.41117e-05
0.000109311
0.000128118
0.000140723
0.000136346
0.000116809
9.73868e-05
9.07011e-05
0.000100639
0.000125238
0.00015662
0.00018357
0.00019911
0.000202731
0.000196737
0.000183369
0.000164049
0.000139528
0.000110758
8.12483e-05
5.87034e-05
5.04073e-05
5.8753e-05
3.18757e-05
2.89547e-06
1.16203e-05
6.10697e-05
0.000184913
0.000182524
0.000117886
7.77217e-05
6.81996e-05
7.50076e-05
8.75898e-05
9.90166e-05
0.000109448
0.00012243
0.000138049
0.000149973
0.000148603
0.00013106
0.000107056
8.99224e-05
8.6814e-05
9.94162e-05
0.000125387
0.000156591
0.00018192
0.00019514
0.000196403
0.000188093
0.000172336
0.000150686
0.000124786
9.80148e-05
7.68066e-05
6.8044e-05
7.29534e-05
3.68108e-05
2.98559e-06
1.16429e-05
6.42673e-05
0.000181526
0.00015745
9.23813e-05
6.09947e-05
5.70486e-05
6.89136e-05
8.81246e-05
0.000105969
0.000120348
0.000134298
0.000147531
0.000153421
0.000145955
0.000128778
0.000111588
0.000101055
9.99589e-05
0.000109461
0.00012829
0.000150555
0.000168428
0.000178048
0.000179899
0.000175401
0.000165268
0.000149836
0.00013014
0.000109152
9.2255e-05
8.50793e-05
8.7017e-05
4.0093e-05
3.18441e-06
1.15263e-05
6.31034e-05
0.000173769
0.000154286
9.35099e-05
6.00279e-05
5.41341e-05
6.61142e-05
8.90823e-05
0.000111717
0.000127082
0.000137404
0.000144849
0.000145316
0.000133656
0.000114468
9.92198e-05
9.41814e-05
9.89267e-05
0.000110318
0.000125063
0.000139808
0.000150933
0.000156234
0.00015606
0.000152092
0.000145616
0.000136836
0.000125555
0.000112868
0.000102269
9.79254e-05
9.75457e-05
4.15948e-05
3.36826e-06
1.11793e-05
5.77739e-05
0.000162848
0.000164263
0.000109714
6.23058e-05
4.52309e-05
4.8333e-05
6.64186e-05
9.42485e-05
0.000121816
0.000142839
0.000157969
0.000166327
0.000161361
0.000140314
0.000115249
0.000100998
0.000101276
0.00011156
0.000124431
0.000134642
0.000140606
0.00014227
0.000140054
0.000135011
0.000128624
0.000121981
0.000115304
0.000108702
0.000103511
0.000101685
9.93972e-05
3.9972e-05
3.56086e-06
1.11895e-05
5.41173e-05
0.000157689
0.000176284
0.000133964
7.70948e-05
4.70743e-05
4.12526e-05
5.20934e-05
7.74972e-05
0.000111763
0.000143379
0.000166017
0.000180361
0.000184408
0.000170869
0.000140798
0.000112396
0.000100806
0.000106566
0.00012127
0.000133359
0.000137441
0.000135229
0.000129847
0.000123158
0.000116085
0.00010929
0.000103415
9.91502e-05
9.7338e-05
9.81476e-05
9.55731e-05
3.57382e-05
3.66311e-06
1.14224e-05
5.39449e-05
0.000160578
0.00017632
0.000123218
7.40717e-05
4.83515e-05
3.9478e-05
4.48367e-05
6.5842e-05
0.000104199
0.000153803
0.000200707
0.000235446
0.000254459
0.000250175
0.000213771
0.000158731
0.000117196
0.000102995
0.000110631
0.000125564
0.000131989
0.000127228
0.000117419
0.000108011
0.000101392
9.7492e-05
9.51795e-05
9.40388e-05
9.47725e-05
9.70458e-05
9.26125e-05
3.10191e-05
3.66378e-06
1.19792e-05
6.08026e-05
0.000176821
0.000163337
9.44533e-05
5.69691e-05
4.62365e-05
4.60832e-05
5.32176e-05
7.27867e-05
0.00010873
0.000157598
0.000209108
0.000253546
0.000284772
0.000295049
0.000272704
0.000216447
0.000151634
0.000109102
9.67654e-05
0.000106784
0.000121357
0.000122266
0.000110504
9.58682e-05
8.52167e-05
8.10323e-05
8.25897e-05
8.73686e-05
9.30424e-05
9.74464e-05
9.03653e-05
2.76376e-05
3.64993e-06
1.20916e-05
6.69795e-05
0.000172832
0.000136824
7.2194e-05
4.37854e-05
4.0307e-05
5.0515e-05
6.77213e-05
9.10173e-05
0.000124055
0.000165578
0.000209797
0.000251089
0.000285007
0.00030568
0.00030328
0.000268036
0.000204695
0.000139709
9.88486e-05
8.69409e-05
9.59154e-05
0.000107787
0.000105143
9.11769e-05
7.65382e-05
6.7772e-05
6.69859e-05
7.34479e-05
8.36346e-05
9.11393e-05
8.19212e-05
2.4147e-05
3.57482e-06
1.18976e-05
6.87199e-05
0.000169614
0.000133477
7.38602e-05
4.39243e-05
3.83501e-05
4.95629e-05
7.28735e-05
0.000100544
0.000130346
0.000163644
0.000199604
0.000235219
0.000266754
0.000290086
0.000299803
0.000288378
0.000249423
0.00018808
0.000127144
8.9116e-05
7.79448e-05
8.5837e-05
9.56489e-05
9.16162e-05
7.76925e-05
6.43653e-05
5.76173e-05
5.92581e-05
6.83188e-05
7.84846e-05
7.13761e-05
2.11503e-05
3.48105e-06
1.16938e-05
6.5161e-05
0.000169768
0.000155784
9.87951e-05
5.32275e-05
3.60266e-05
3.87734e-05
5.76072e-05
8.83947e-05
0.000124378
0.000162082
0.000201028
0.000239662
0.000274155
0.00030002
0.000313881
0.000312834
0.000292443
0.000247841
0.00018337
0.000121148
8.32823e-05
7.20124e-05
7.80485e-05
8.55585e-05
8.21939e-05
7.10172e-05
6.08131e-05
5.73942e-05
6.29452e-05
7.4165e-05
7.08138e-05
2.09062e-05
3.52276e-06
1.17545e-05
6.40878e-05
0.000171394
0.000168385
0.00012043
6.84273e-05
3.97114e-05
3.30391e-05
4.35726e-05
7.03319e-05
0.0001103
0.000157105
0.000205859
0.00025403
0.000297982
0.000331598
0.000348711
0.000345131
0.000333979
0.000300546
0.000243346
0.00017024
0.000107546
7.49069e-05
6.83625e-05
7.52485e-05
8.08498e-05
7.85977e-05
7.23276e-05
6.91432e-05
7.4542e-05
8.79619e-05
8.751e-05
2.51665e-05
3.78614e-06
1.17468e-05
6.41827e-05
0.000171379
0.000170257
0.000127373
8.02013e-05
4.81993e-05
3.43293e-05
3.68763e-05
5.5551e-05
9.04721e-05
0.000139039
0.000197083
0.000261016
0.000322808
0.000361133
0.000356707
0.000350681
0.000343279
0.000334856
0.000294424
0.000218165
0.000134649
8.0899e-05
6.35315e-05
6.79369e-05
7.65269e-05
7.9145e-05
7.86678e-05
8.13744e-05
9.15476e-05
0.000106723
0.000102979
2.89185e-05
3.95016e-06
1.16409e-05
6.38806e-05
0.000173679
0.000177174
0.000137559
9.13943e-05
5.80936e-05
3.94275e-05
3.50539e-05
4.57633e-05
7.28063e-05
0.000116054
0.000173091
0.000240732
0.000311471
0.000362955
0.000359601
0.000354427
0.000347591
0.000339371
0.000323201
0.000252375
0.000158227
8.492e-05
5.5642e-05
5.91176e-05
7.69175e-05
8.30523e-05
8.13678e-05
8.39476e-05
9.52149e-05
0.000109041
9.90967e-05
2.73361e-05
3.80859e-06
1.15716e-05
6.15999e-05
0.000173579
0.000184742
0.000148809
0.000104224
6.95802e-05
4.65694e-05
3.53646e-05
3.77963e-05
5.59686e-05
9.22733e-05
0.000147188
0.000218247
0.000298365
0.000363939
0.000361973
0.000358028
0.000352187
0.000344639
0.000335704
0.000282779
0.000192692
0.000103944
5.4567e-05
4.41805e-05
6.30747e-05
9.09953e-05
9.56959e-05
9.4613e-05
0.000100356
0.000108921
9.37588e-05
2.50792e-05
3.55381e-06
1.16651e-05
6.09824e-05
0.000174796
0.000184673
0.00014291
0.000101432
7.59183e-05
5.73696e-05
4.21251e-05
3.67817e-05
4.61823e-05
7.35527e-05
0.000122211
0.000193802
0.000284432
0.000364615
0.000364195
0.00036175
0.000357306
0.000350961
0.000342918
0.000316938
0.000240326
0.000148168
7.56475e-05
4.21194e-05
3.9414e-05
6.43728e-05
0.000102056
0.000115421
0.000119207
0.000120295
9.65843e-05
2.54597e-05
3.46205e-06
1.18818e-05
6.28989e-05
0.000178747
0.000180197
0.000128858
8.71612e-05
6.84926e-05
6.00287e-05
5.02572e-05
4.19115e-05
4.49835e-05
6.53927e-05
0.000108054
0.000178169
0.000275585
0.000364986
0.00036595
0.00036499
0.000362077
0.000357247
0.000350594
0.000342322
0.000289472
0.000208581
0.000124019
6.41891e-05
3.77332e-05
3.62454e-05
5.97044e-05
0.000101758
0.00012217
0.000122844
9.42707e-05
2.64742e-05
3.5791e-06
1.20462e-05
6.656e-05
0.000184377
0.00017219
0.000114097
7.64162e-05
6.27809e-05
5.9858e-05
5.65294e-05
5.00199e-05
4.95843e-05
6.42168e-05
9.99202e-05
0.000162528
0.00025363
0.000347281
0.000367408
0.000367565
0.000365965
0.000362589
0.00035747
0.000350724
0.000326345
0.000264823
0.000188346
0.000113214
6.11753e-05
3.73525e-05
3.52112e-05
5.55864e-05
9.36933e-05
0.000108698
8.76498e-05
2.62341e-05
3.83152e-06
1.21207e-05
6.97776e-05
0.000187449
0.000158538
9.7655e-05
6.68921e-05
5.88356e-05
6.00293e-05
6.07737e-05
5.7603e-05
5.68025e-05
6.7769e-05
9.76853e-05
0.000152295
0.000233052
0.000321727
0.000368204
0.000369101
0.000368472
0.000366269
0.000362485
0.000357171
0.000347823
0.000305048
0.00024606
0.000175804
0.000107628
6.01954e-05
3.79179e-05
3.58123e-05
5.40668e-05
8.41662e-05
8.10133e-05
2.37136e-05
3.96744e-06
1.21461e-05
7.31711e-05
0.000186222
0.000144588
8.53577e-05
6.03141e-05
5.70963e-05
6.27971e-05
6.65073e-05
6.46916e-05
6.36101e-05
7.18578e-05
9.62475e-05
0.000142076
0.000211519
0.000294728
0.000360363
0.000369412
0.000369393
0.000367975
0.000365129
0.00036087
0.00035528
0.000328687
0.000283696
0.000224457
0.000155566
9.20784e-05
5.09764e-05
3.36738e-05
3.56536e-05
5.90646e-05
7.24619e-05
1.97989e-05
3.77293e-06
1.20292e-05
7.36334e-05
0.000183085
0.000139024
8.06706e-05
5.62099e-05
5.37884e-05
6.25455e-05
7.1265e-05
7.24658e-05
7.08124e-05
7.56967e-05
9.42096e-05
0.000131293
0.000189286
0.00026252
0.000331073
0.000368446
0.00036885
0.000367963
0.000365752
0.000362217
0.000357405
0.000335484
0.000296999
0.00024464
0.000180084
0.00011319
6.27696e-05
3.71075e-05
3.22433e-05
4.98405e-05
6.63458e-05
1.71146e-05
3.34178e-06
1.18987e-05
7.18105e-05
0.000182187
0.000145443
8.51023e-05
5.63671e-05
5.09389e-05
5.87442e-05
7.06818e-05
7.68539e-05
7.67172e-05
7.87223e-05
9.1121e-05
0.000119298
0.000166191
0.00022919
0.000295411
0.000345598
0.000367162
0.000366757
0.000365095
0.000362177
0.000349548
0.000324411
0.000288242
0.00024114
0.000184016
0.000123589
7.43276e-05
4.61846e-05
3.9006e-05
5.49107e-05
6.84954e-05
1.72033e-05
2.96913e-06
1.17528e-05
6.76187e-05
0.000180519
0.000154091
9.13757e-05
5.73158e-05
4.81287e-05
5.35852e-05
6.73435e-05
7.9686e-05
8.35284e-05
8.35139e-05
8.95472e-05
0.000108773
0.000145338
0.000199198
0.000261725
0.000316536
0.000350844
0.000364032
0.000362971
0.00035284
0.0003347
0.000308635
0.000274856
0.000233365
0.000185012
0.000134278
9.08421e-05
6.38912e-05
5.73526e-05
7.41244e-05
8.31812e-05
2.04626e-05
2.78249e-06
1.18063e-05
6.58944e-05
0.000180424
0.000156324
9.33677e-05
5.874e-05
4.78383e-05
5.05957e-05
6.30085e-05
7.8871e-05
8.87144e-05
9.02378e-05
9.16942e-05
0.000102573
0.000128959
0.000173495
0.000231919
0.000290262
0.000332464
0.000352554
0.000354412
0.000343894
0.000324786
0.000298976
0.000267315
0.000230314
0.000189157
0.000147384
0.000111752
8.98439e-05
8.72619e-05
0.000104812
0.000106198
2.62962e-05
2.77246e-06
1.18526e-05
6.49621e-05
0.000179788
0.000147014
8.42748e-05
5.57105e-05
4.8154e-05
5.13892e-05
6.32652e-05
8.08825e-05
9.56071e-05
0.00010018
9.86701e-05
0.000101784
0.000117847
0.000151513
0.000202483
0.00026112
0.000310171
0.000337843
0.000344524
0.000336317
0.000318485
0.000294051
0.000264585
0.000231182
0.000195506
0.000160944
0.000132984
0.000117741
0.000119448
0.00013371
0.000125638
3.25284e-05
2.85759e-06
1.2056e-05
6.71722e-05
0.000180022
0.000133131
7.29412e-05
5.10642e-05
4.85789e-05
5.47529e-05
6.70242e-05
8.44336e-05
0.000101223
0.000109218
0.000107648
0.000105295
0.000112103
0.000134356
0.000174342
0.000227385
0.00027918
0.000314271
0.000327898
0.000324547
0.000310127
0.000288537
0.000261978
0.00023205
0.00020085
0.000171867
0.000149979
0.000139932
0.000143404
0.000152576
0.000137983
3.77408e-05
3.00831e-06
1.21278e-05
7.03577e-05
0.000176284
0.000117297
6.29827e-05
4.64276e-05
4.86714e-05
6.0064e-05
7.56505e-05
9.35474e-05
0.000110185
0.000119175
0.000117731
0.000111631
0.000110742
0.000122481
0.000150477
0.000193559
0.000242404
0.000282055
0.000303105
0.000306382
0.000297124
0.000279737
0.000256948
0.000230738
0.000203474
0.000178698
0.000160925
0.000153947
0.000157793
0.00016376
0.000145994
4.14647e-05
3.1729e-06
1.21562e-05
7.42068e-05
0.000173464
0.00011532
6.28898e-05
4.59603e-05
4.85612e-05
6.23416e-05
8.04756e-05
9.87529e-05
0.000114844
0.000124869
0.000125327
0.000118385
0.000112207
0.000115115
0.000131965
0.000163754
0.000205684
0.000246095
0.000273285
0.00028361
0.00028024
0.000267546
0.000248698
0.000226023
0.000202067
0.000180388
0.000165312
0.000160198
0.000164469
0.00016944
0.000150689
4.34804e-05
3.33442e-06
1.19739e-05
7.3632e-05
0.000174585
0.000131654
7.35057e-05
4.81368e-05
4.54308e-05
5.7434e-05
7.81361e-05
0.000100215
0.000118944
0.000131516
0.000134945
0.000128855
0.00011901
0.000114293
0.000121238
0.000142456
0.000176235
0.000214607
0.000245724
0.000262085
0.000263989
0.000255236
0.000239348
0.000219017
0.000196997
0.000176946
0.000163206
0.000159055
0.000163747
0.000168599
0.00014919
4.26503e-05
3.41146e-06
1.19002e-05
7.1363e-05
0.000180891
0.000165313
0.000103255
5.84754e-05
4.35284e-05
4.71637e-05
6.42724e-05
8.95419e-05
0.00011528
0.000135434
0.00014604
0.000144553
0.000133533
0.00012193
0.000119034
0.000129634
0.000154292
0.000188452
0.000221581
0.000243106
0.000249717
0.000244046
0.000229933
0.000210607
0.000189229
0.000169754
0.000156677
0.000153213
0.000158335
0.000163012
0.000142064
3.9476e-05
3.40445e-06
1.18962e-05
7.01833e-05
0.000189239
0.00018277
0.000128692
7.63268e-05
4.88189e-05
4.26367e-05
5.25656e-05
7.65005e-05
0.000109029
0.000140337
0.000161949
0.00016849
0.000159088
0.000141413
0.000127902
0.000126956
0.000141294
0.000168992
0.000201753
0.000227198
0.000237971
0.000234796
0.000221707
0.000202649
0.000181431
0.000162454
0.000150312
0.000147875
0.000153391
0.00015709
0.000132515
3.55752e-05
3.32006e-06
1.2297e-05
7.59736e-05
0.000205973
0.000173106
0.000117974
8.48464e-05
6.01222e-05
4.68075e-05
4.92819e-05
6.82445e-05
0.000102303
0.000143391
0.000178714
0.00019712
0.000192969
0.000171316
0.000146997
0.00013314
0.000135174
0.000153019
0.000181231
0.000208185
0.00022306
0.000223351
0.000212507
0.000195102
0.000175595
0.000158666
0.000148664
0.000147757
0.000153204
0.000154775
0.000125204
3.28613e-05
3.24198e-06
1.28142e-05
9.07181e-05
0.000206764
0.000123024
7.99422e-05
6.9979e-05
6.56172e-05
5.78154e-05
5.81095e-05
7.54189e-05
0.000111295
0.000157899
0.000200596
0.000225524
0.000224504
0.000200621
0.000168587
0.000143854
0.000134251
0.000141134
0.000161418
0.000186289
0.000204099
0.000208829
0.000202055
0.000188359
0.000172579
0.000159366
0.000152516
0.000153286
0.000158051
0.000156776
0.000121782
3.17691e-05
3.18275e-06
1.30273e-05
0.000118059
0.000154055
7.41603e-05
5.6223e-05
6.16489e-05
7.03528e-05
7.33678e-05
7.91451e-05
9.87579e-05
0.000133933
0.000174936
0.000210067
0.000230733
0.000230906
0.000210627
0.000179426
0.000150632
0.00013331
0.000130634
0.00014161
0.000160947
0.000179327
0.000188906
0.000188302
0.00018081
0.000170955
0.000162984
0.000159966
0.00016232
0.000166078
0.00016202
0.000122205
3.20389e-05
3.15238e-06
1.25188e-05
0.00013707
8.94515e-05
4.86592e-05
4.98406e-05
6.97059e-05
8.84e-05
9.92891e-05
0.000110529
0.000128379
0.000152833
0.000179012
0.000201759
0.000216487
0.000218373
0.000204904
0.000179922
0.000152701
0.000132109
0.00012292
0.000126023
0.000138932
0.0001555
0.000168318
0.000173648
0.000172716
0.00016911
0.000166464
0.000167146
0.000170992
0.0001741
0.000168029
0.000124631
3.30004e-05
3.12448e-06
1.18328e-05
0.000121118
7.79972e-05
4.84579e-05
5.41721e-05
7.58472e-05
9.52423e-05
0.000108915
0.000121332
0.000135971
0.000153638
0.000172937
0.000191277
0.000205183
0.000210244
0.000202767
0.000183239
0.000157836
0.000134798
0.000120101
0.00011617
0.000122443
0.000135468
0.000149503
0.000159599
0.000164648
0.000166747
0.000168789
0.000172614
0.000177742
0.000180472
0.000172976
0.000127398
3.41179e-05
3.11107e-06
1.13695e-05
8.12824e-05
0.000125827
6.71999e-05
4.73553e-05
4.95789e-05
6.50983e-05
8.85869e-05
0.000112487
0.000133487
0.000153126
0.00017276
0.000191781
0.000207848
0.00021709
0.000215093
0.000199868
0.000174852
0.000147912
0.000126632
0.000115128
0.000114197
0.000122139
0.000134996
0.000147775
0.0001574
0.000164101
0.000169818
0.000175952
0.000181845
0.00018403
0.000175366
0.00012914
3.50937e-05
3.12421e-06
1.12358e-05
5.97298e-05
0.000140615
0.000114252
5.78108e-05
3.61867e-05
3.55976e-05
4.99157e-05
7.84223e-05
0.000114641
0.000149275
0.000179177
0.000205179
0.000227061
0.000242046
0.000245422
0.000233428
0.000207257
0.000174335
0.000144194
0.000123267
0.00011372
0.000114838
0.000124018
0.000137116
0.000149975
0.000160656
0.000169587
0.000177534
0.000183733
0.000185134
0.000175538
0.000129821
3.58527e-05
3.19909e-06
1.1308e-05
6.07161e-05
0.000153413
0.00016076
0.000108538
5.04474e-05
3.00366e-05
3.0431e-05
4.67066e-05
8.0337e-05
0.000127233
0.000175969
0.000218333
0.000251937
0.00027486
0.000283218
0.000273269
0.000245642
0.00020741
0.00016887
0.000138333
0.000119588
0.000112811
0.000116268
0.000126969
0.0001409
0.00015457
0.000166497
0.000176353
0.00018317
0.000184329
0.000174477
0.000129717
3.62292e-05
3.31118e-06
1.15703e-05
7.53105e-05
0.000186424
0.000192857
0.000163676
9.36527e-05
4.39021e-05
2.92682e-05
3.39e-05
5.47255e-05
9.23867e-05
0.000141567
0.000191631
0.00023441
0.000265551
0.000281381
0.000278735
0.000257757
0.000223671
0.000185158
0.000150771
0.000125984
0.000112612
0.000110065
0.000116552
0.000129257
0.000144613
0.000159501
0.000171982
0.000180474
0.000182589
0.000173522
0.000129834
3.63916e-05
3.45948e-06
1.15531e-05
8.50461e-05
0.000199971
0.000201446
0.000180046
0.000142045
8.17372e-05
4.41324e-05
3.38269e-05
4.05157e-05
6.17062e-05
9.67465e-05
0.000139921
0.000182307
0.000217334
0.000240872
0.000249683
0.000242162
0.000220108
0.000189245
0.000157203
0.000130584
0.000113097
0.000105667
0.000107639
0.000117385
0.000132266
0.000148917
0.000164121
0.000175228
0.000179511
0.000172192
0.000129638
3.61747e-05
3.59176e-06
1.13499e-05