/*--------------------------------*- C++ -*----------------------------------*\
| =========                 |                                                 |
| \\      /  F ield         | OpenFOAM: The Open Source CFD Toolbox           |
|  \\    /   O peration     | Version:  v1906                                 |
|   \\  /    A nd           | Web:      www.OpenFOAM.com                      |
|    \\/     M anipulation  |                                                 |
\*---------------------------------------------------------------------------*/
FoamFile
{
    version     2.0;
    format      ascii;
    class       volScalarField;
    location    "9";
    object      T;
}
// * * * * * * * * * * * * * * * * * * * * * * * * * * * * * * * * * * * * * //

dimensions      [0 0 0 1 0 0 0];


internalField   nonuniform List<scalar> 
78750
(
389.322
278.044
267.562
288.039
291.58
296.295
300.579
303.519
305.073
305.518
305.15
304.191
302.761
300.927
298.745
296.289
293.579
290.584
287.305
283.779
280.342
277.728
276.107
274.661
272.632
271.055
272.479
274.347
266.254
241.095
221.096
227.621
251.738
276.075
318.115
343.967
282.951
282
280.296
280.378
282.911
287.98
293.072
297.287
300.695
303.421
305.564
307.245
308.555
309.55
310.264
310.71
310.879
310.751
310.292
309.451
308.19
306.527
304.57
302.454
300.287
298.246
296.643
295.732
295.639
296.071
297.55
301.729
309.658
331.536
319.24
329.398
309.844
309.89
310.628
311.851
313.578
315.197
316.392
317.224
317.841
318.323
318.69
318.946
319.083
319.084
318.92
318.548
317.917
316.977
315.699
314.087
312.185
310.081
307.91
305.851
304.112
302.861
302.207
302.241
303.161
305.393
309.255
316.186
337.434
310.792
314.222
310.423
311.233
311.539
311.238
310.375
309.502
309.046
308.999
309.281
309.996
311.147
312.514
313.892
315.104
315.991
316.463
316.499
316.138
315.477
314.642
313.737
312.844
312.064
311.536
311.416
311.802
312.736
314.308
316.664
319.986
324.571
332.006
352.48
308.738
318.333
322.986
325.795
328.537
331.946
335.679
338.802
339.02
335.094
328.886
323.378
320.078
318.374
317.371
316.727
316.355
316.182
316.195
316.467
317.15
318.498
320.641
322.811
323.898
323.297
320.596
318.207
317.723
318.568
320.225
322.748
326.88
334.771
356.075
333.092
344.07
340.712
330.818
324.252
322.559
322.56
322.883
323.001
322.736
322.235
321.703
321.329
321.199
321.29
321.537
321.88
322.283
322.736
323.259
323.893
324.625
325.274
325.543
325.315
324.748
324.149
323.919
324.382
325.742
328.175
331.908
337.39
346.628
369.591
330.414
332.987
324.402
317.629
315.327
315.849
316.707
317.208
317.433
317.422
317.251
317.012
316.793
316.667
316.714
317.019
317.629
318.482
319.526
320.806
322.336
324.095
326.045
328.142
330.363
332.712
335.374
338.628
342.361
346.221
350.377
355.234
361.579
371.31
390.278
324.402
337.374
340.311
339.952
338.461
336.959
335.658
334.481
333.369
332.35
331.444
330.657
329.982
329.412
328.943
328.577
328.319
328.178
328.183
328.362
328.735
329.309
330.066
330.966
331.969
333.054
334.234
335.525
336.925
338.495
340.444
343.082
346.889
353.203
370.843
318.226
326.461
328.571
329.324
329.555
329.551
329.495
329.46
329.455
329.461
329.448
329.386
329.264
329.081
328.825
328.47
328.004
327.461
326.902
326.433
326.159
326.124
326.322
326.716
327.244
327.858
328.507
329.166
329.762
330.227
330.47
330.441
328.932
326.285
348.611
306.154
312.323
315.909
318.641
320.842
322.698
324.334
325.817
327.176
328.422
329.551
330.56
331.452
332.241
332.933
333.54
334.067
334.52
334.907
335.242
335.539
335.808
336.059
336.245
336.488
336.521
336.847
336.761
337.245
337.594
338.473
339.357
336.711
333.575
353.775
307.38
317.046
323.251
327.621
330.921
333.567
335.776
337.67
339.325
340.79
342.092
343.248
344.252
345.061
345.668
346.11
346.438
346.698
346.914
347.104
347.279
347.476
347.68
347.897
348.108
347.998
347.652
346.484
345.356
343.543
343.795
345.888
349.785
346.069
364.62
311.671
322.917
328.399
331.462
333.593
335.334
336.902
338.4
339.875
341.33
342.706
343.884
344.641
344.764
344.414
343.873
343.367
343.022
342.738
342.346
341.82
341.329
340.965
340.907
340.837
340.702
342.371
345.268
346.688
345.709
346.219
347.534
347.816
345.743
361.298
314.504
326.492
331.389
334.324
336.788
339.086
341.29
343.444
345.585
347.693
349.565
350.679
349.983
346.759
343.345
340.504
338.036
336.39
335.45
334.973
334.918
335.556
336.507
336.146
334.238
332.803
332.813
333.61
334.699
336.175
338.248
340.314
342.588
347.284
367.009
315.508
326.996
330.971
333.366
335.485
337.537
339.604
341.758
343.906
345.401
345.171
342.97
340.064
338.104
336.783
335.58
334.563
333.919
333.411
332.616
331.341
329.988
329.221
329.215
329.771
330.896
332.652
334.884
337.501
340.52
344.032
348.352
354.609
365.472
386.991
315.321
327.168
331.394
334.011
336.337
338.592
340.843
343.04
344.969
346.284
346.458
344.88
341.821
338.772
336.435
334.973
334.377
334.13
333.778
333.078
331.997
330.881
330.305
330.623
331.801
333.727
336.304
339.375
342.831
346.682
351.079
356.366
363.355
373.649
390.677
312.586
324.077
328.342
330.689
332.565
334.311
336.047
337.892
339.997
342.52
345.515
348.568
350.351
349.244
345.07
339.752
335.403
332.812
331.672
331.334
331.276
331.191
331.076
331.113
331.509
332.339
333.521
335.076
337.096
339.681
342.779
346.436
351.187
358.229
376.109
313.94
325.824
330.513
333.17
335.272
337.147
338.869
340.455
341.887
343.15
344.297
345.517
347.049
348.947
350.823
351.883
351.247
348.395
344.224
340.302
337.39
335.365
333.909
333.056
332.462
331.559
330.726
330.582
331.756
333.796
336.043
338.035
336.486
329.618
355.611
311.894
323.383
328.388
331.187
333.315
335.199
336.956
338.654
340.347
342.07
343.813
345.496
347.015
348.345
349.555
350.725
351.729
351.687
349.662
346.352
342.977
340.479
338.42
336.085
334.97
335.141
334.285
332.015
329.65
328.192
327.237
325.179
322.615
325.101
351.329
313.047
325.379
330.514
333.387
335.589
337.523
339.31
341.018
342.67
344.234
345.659
346.942
348.13
349.26
350.298
351.09
351.157
349.277
344.268
338.736
336.574
338.785
342.942
344.613
341.415
336.299
331.264
326.769
324.751
326.613
329.957
332.914
336.944
346.443
374.735
312.191
324.631
330.131
333.214
335.551
337.604
339.511
341.346
343.123
344.799
346.3
347.589
348.704
349.739
350.756
351.683
352.089
350.559
344.816
337.418
337.438
343.717
348.539
350.279
349.611
348.114
346.162
343.875
341.861
341.152
342.577
346.728
354.052
367.095
393.097
313.696
326.586
331.848
334.842
337.201
339.321
341.341
343.307
345.163
346.788
348.093
349.068
349.765
350.286
350.75
351.283
351.976
352.797
353.354
352.378
347.422
338.968
334.791
337.239
340.792
343.693
346.726
349.674
352.737
356.62
360.626
363.561
366.768
375.393
395.777
313.875
327.305
332.801
335.892
338.321
340.526
342.641
344.654
346.423
347.825
348.867
349.641
350.245
350.734
351.132
351.46
351.757
352.067
352.413
352.722
352.743
352.15
350.924
349.128
346.784
343.996
341.722
341.374
343.003
346.441
352.37
362.434
373.521
382.756
396.811
315.726
329.294
334.529
337.575
340.112
342.524
344.917
347.168
349.028
350.366
351.216
351.693
351.93
352.041
352.1
352.147
352.2
352.267
352.355
352.463
352.576
352.651
352.629
352.459
352.111
351.566
350.905
350.308
349.72
348.705
346.304
338.133
342.837
357.311
381.652
316.381
330.252
335.475
338.529
341.152
343.739
346.305
348.511
350.055
350.984
351.52
351.848
352.069
352.226
352.338
352.419
352.476
352.517
352.546
352.566
352.57
352.55
352.492
352.389
352.234
352.012
351.662
350.966
349.629
348.222
350.869
353.737
357.504
367.075
387.028
317.391
331.357
336.638
339.819
342.67
345.57
348.408
350.679
352.107
352.84
353.151
353.246
353.245
353.209
353.165
353.125
353.092
353.068
353.053
353.046
353.046
353.051
353.056
353.059
353.053
353.03
352.99
352.949
353.04
353.807
356.417
362.068
370.784
382.967
396.793
317.676
331.75
337.072
340.301
343.251
346.301
349.238
351.464
352.767
353.393
353.652
353.739
353.749
353.728
353.693
353.654
353.614
353.577
353.543
353.515
353.492
353.475
353.462
353.449
353.423
353.315
352.879
351.994
351.12
350.321
349.608
348.606
343.246
341.674
373.559
318.13
332.416
337.853
341.206
344.325
347.592
350.729
353.039
354.305
354.834
354.984
354.971
354.901
354.82
354.75
354.696
354.657
354.638
354.645
354.683
354.761
354.892
355.087
355.359
355.738
356.309
357.442
359.957
360.742
357.699
351.869
344.831
342.575
351.345
377.351
317.998
332.405
337.963
341.396
344.608
348.004
351.294
353.74
355.081
355.634
355.788
355.779
355.715
355.64
355.572
355.52
355.486
355.469
355.474
355.506
355.577
355.714
355.972
356.474
357.491
359.638
363.826
369.357
371.879
370.369
368.076
367.302
370.624
380.226
398.824
318.235
332.834
338.513
342.04
345.35
348.862
352.281
354.838
356.237
356.796
356.928
356.892
356.805
356.717
356.645
356.598
356.576
356.579
356.601
356.634
356.666
356.677
356.66
356.64
356.708
357.096
358.35
361.523
366.636
371.243
374.457
377.107
380.444
386.234
398.804
318.368
333.122
338.814
342.381
345.812
349.523
353.123
355.78
357.197
357.725
357.829
357.786
357.718
357.672
357.665
357.709
357.817
357.997
358.251
358.575
358.965
359.453
360.09
360.737
360.712
359.804
359.022
359.123
360.629
363.536
367.171
370.938
374.779
380.115
392.924
318.259
333.12
338.949
342.61
346.124
349.911
353.569
356.321
357.875
358.5
358.624
358.546
358.411
358.284
358.195
358.161
358.192
358.306
358.519
358.841
359.289
359.915
360.802
361.852
362.415
361.666
360.062
358.604
357.815
358.049
359.688
362.979
367.686
374.815
391.119
318.374
333.367
339.224
342.957
346.671
350.761
354.589
357.292
358.733
359.286
359.382
359.294
359.148
358.995
358.86
358.755
358.692
358.683
358.744
358.897
359.176
359.636
360.351
361.37
362.54
363.329
363.197
362.2
360.899
360.043
360.479
363.019
367.949
376.581
395.08
318.215
333.232
339.193
343.025
346.887
351.187
355.175
357.962
359.457
360.034
360.126
360.017
359.846
359.664
359.493
359.342
359.219
359.133
359.094
359.119
359.227
359.454
359.851
360.491
361.447
362.698
364.024
365.072
365.625
365.899
366.65
368.911
373.451
381.954
399.311
318.245
333.339
339.355
343.294
347.411
352.089
356.263
358.94
360.255
360.728
360.782
360.667
360.5
360.322
360.15
359.987
359.837
359.702
359.589
359.506
359.467
359.496
359.631
359.933
360.491
361.417
362.802
364.636
366.758
368.975
371.379
374.531
379.093
386.71
401.304
318.287
333.314
339.327
343.328
347.602
352.559
357.035
359.849
361.134
361.518
361.491
361.324
361.133
360.956
360.798
360.658
360.531
360.415
360.308
360.208
360.119
360.05
360.025
360.089
360.323
360.85
361.839
363.491
365.981
369.326
373.313
377.71
382.578
389.45
401.873
318.08
333.038
339.095
343.126
347.432
352.504
357.25
360.312
361.724
362.163
362.148
361.967
361.755
361.562
361.4
361.268
361.158
361.067
360.99
360.923
360.86
360.795
360.728
360.679
360.699
360.891
361.415
362.504
364.471
367.607
371.873
376.706
381.629
388.122
400.415
318.269
333.133
339.081
343.019
347.173
352.141
357.179
360.716
362.392
362.89
362.856
362.64
362.397
362.184
362.013
361.88
361.781
361.709
361.66
361.633
361.622
361.618
361.607
361.584
361.568
361.617
361.848
362.451
363.705
365.951
369.372
373.648
378.31
384.808
398.422
317.825
332.539
338.485
342.31
346.134
350.666
355.767
360.036
362.454
363.359
363.463
363.25
362.968
362.718
362.526
362.389
362.3
362.251
362.238
362.262
362.321
362.411
362.514
362.607
362.678
362.755
362.909
363.274
364.063
365.564
368.044
371.515
375.811
382.452
397.502
317.858
332.538
338.415
342.105
345.604
349.581
354.303
358.982
362.22
363.732
364.125
363.988
363.673
363.355
363.099
362.917
362.802
362.746
362.743
362.796
362.911
363.099
363.36
363.665
363.966
364.231
364.5
364.885
365.567
366.799
368.858
371.909
376.025
382.869
398.542
317.364
331.961
337.891
341.544
344.836
348.359
352.522
357.202
361.218
363.586
364.504
364.595
364.33
363.976
363.659
363.423
363.267
363.184
363.167
363.219
363.351
363.588
363.963
364.5
365.176
365.9
366.59
367.288
368.18
369.531
371.61
374.594
378.64
385.486
400.616
317.302
331.944
337.916
341.564
344.767
348.02
351.641
355.804
360.012
363.129
364.713
365.175
365.045
364.687
364.304
363.988
363.762
363.622
363.56
363.574
363.673
363.885
364.257
364.86
365.768
366.991
368.411
369.849
371.294
372.979
375.198
378.139
382.01
388.514
402.373
316.868
331.573
337.7
341.429
344.655
347.847
351.226
354.932
358.863
362.33
364.547
365.501
365.64
365.375
364.979
364.602
364.307
364.102
363.98
363.936
363.975
364.116
364.402
364.906
365.747
367.067
368.943
371.251
373.691
376.093
378.612
381.513
385.143
391.156
403.571
316.958
331.876
338.101
341.877
345.127
348.317
351.613
355.043
358.533
361.832
364.341
365.709
366.148
366.039
365.68
365.271
364.914
364.644
364.459
364.35
364.319
364.376
364.551
364.898
365.517
366.571
368.277
370.791
373.994
377.438
380.719
383.886
387.419
392.976
404.093
316.843
332.062
338.497
342.393
345.728
348.98
352.298
355.637
358.842
361.791
364.239
365.83
366.538
366.621
366.357
365.96
365.57
365.251
365.014
364.851
364.756
364.734
364.802
364.998
365.387
366.087
367.3
369.303
372.319
376.213
380.35
384.13
387.795
393.046
403.57
317.402
332.972
339.463
343.407
346.822
350.187
353.621
356.976
359.984
362.534
364.623
366.114
366.914
367.143
366.996
366.654
366.264
365.917
365.645
365.443
365.304
365.225
365.213
365.291
365.499
365.91
366.653
367.955
370.133
373.431
377.609
381.816
385.644
390.77
401.792
317.904
333.707
340.25
344.265
347.789
351.289
354.858
358.286
361.237
363.571
365.354
366.626
367.369
367.644
367.579
367.305
366.949
366.606
366.325
366.11
365.953
365.848
365.795
365.807
365.906
366.137
366.577
367.372
368.774
371.132
374.623
378.716
382.578
387.698
399.574
318.778
334.716
341.206
345.245
348.878
352.549
356.304
359.823
362.694
364.799
366.279
367.292
367.903
368.166
368.152
367.941
367.625
367.302
367.029
366.823
366.674
366.574
366.52
366.517
366.578
366.731
367.026
367.559
368.519
370.233
373.069
376.857
380.703
385.897
398.289
319.514
335.487
341.929
345.998
349.719
353.501
357.36
360.947
363.83
365.865
367.196
368.031
368.511
368.72
368.717
368.552
368.282
367.987
367.736
367.553
367.435
367.372
367.358
367.398
367.5
367.687
367.998
368.516
369.407
370.982
373.625
377.232
380.999
386.26
398.929
320.188
336.22
342.642
346.737
350.513
354.351
358.243
361.829
364.681
366.659
367.913
368.667
369.088
369.276
369.289
369.162
368.931
368.661
368.427
368.27
368.191
368.181
368.236
368.361
368.57
368.889
369.37
370.104
371.269
373.149
375.98
379.491
383.093
388.307
400.874
320.752
336.843
343.257
347.37
351.166
354.992
358.838
362.395
365.269
367.28
368.535
369.259
369.645
369.818
369.844
369.754
369.566
369.32
369.092
368.946
368.898
368.942
369.075
369.307
369.663
370.182
370.937
372.043
373.679
376.031
379.093
382.448
385.835
390.868
402.694
321.212
337.435
343.881
348.014
351.802
355.563
359.287
362.726
365.564
367.623
368.949
369.727
370.146
370.34
370.389
370.331
370.184
369.967
369.74
369.581
369.537
369.61
369.799
370.118
370.602
371.308
372.322
373.769
375.792
378.454
381.562
384.705
387.878
392.641
403.536
321.731
338.101
344.6
348.775
352.588
356.323
359.943
363.232
365.956
367.985
369.335
370.149
370.6
370.824
370.906
370.889
370.79
370.615
370.395
370.205
370.122
370.179
370.376
370.728
371.272
372.069
373.209
374.806
376.954
379.632
382.589
385.501
388.474
392.974
403.381
322.352
338.901
345.446
349.66
353.503
357.228
360.757
363.88
366.437
368.374
369.717
370.562
371.048
371.301
371.409
371.422
371.363
371.234
371.045
370.841
370.708
370.712
370.874
371.203
371.731
372.518
373.645
375.204
377.257
379.747
382.451
385.142
387.962
392.307
402.741
323.073
339.758
346.352
350.623
354.537
358.312
361.817
364.815
367.184
368.947
370.182
370.989
371.479
371.753
371.887
371.931
371.909
371.827
371.684
371.497
371.329
371.267
371.364
371.635
372.104
372.819
373.851
375.276
377.135
379.374
381.822
384.332
387.044
391.32
402.008
323.868
340.654
347.238
351.529
355.495
359.32
362.825
365.752
368.002
369.637
370.772
371.518
371.978
372.243
372.381
372.438
372.439
372.392
372.296
372.15
371.986
371.881
371.913
372.117
372.514
373.141
374.059
375.332
376.994
379.004
381.242
383.61
386.252
390.51
401.457
324.459
341.327
347.916
352.235
356.26
360.151
363.681
366.571
368.74
370.28
371.333
372.027
372.465
372.725
372.869
372.937
372.956
372.937
372.881
372.787
372.662
372.554
372.543
372.689
373.023
373.574
374.392
375.536
377.038
378.871
380.951
383.211
385.798
390.047
401.164
324.908
341.857
348.41
352.721
356.79
360.754
364.334
367.235
369.393
370.91
371.931
372.592
373.002
373.244
373.378
373.445
373.469
373.465
373.438
373.388
373.319
373.252
373.245
373.365
373.657
374.154
374.901
375.951
377.337
379.044
381.007
383.185
385.729
389.973
401.169
324.966
342.034
348.576
352.881
357.003
361.063
364.708
367.621
369.777
371.305
372.354
373.046
373.48
373.737
373.879
373.95
373.979
373.984
373.973
373.954
373.933
373.926
373.97
374.114
374.405
374.884
375.592
376.582
377.888
379.502
381.378
383.489
385.999
390.241
401.435
324.804
341.944
348.452
352.755
356.994
361.277
365.097
368.075
370.233
371.751
372.801
373.504
373.955
374.226
374.377
374.453
374.485
374.493
374.49
374.487
374.495
374.538
374.65
374.87
375.221
375.734
376.449
377.416
378.673
380.223
382.032
384.09
386.572
390.817
401.936
324.161
341.218
347.701
352.035
356.474
361.13
365.267
368.384
370.567
372.085
373.148
373.885
374.375
374.681
374.857
374.947
374.987
374.999
374.999
375.001
375.021
375.087
375.246
375.551
376.019
376.641
377.43
378.428
379.676
381.186
382.946
384.961
387.423
391.677
402.633
322.999
339.59
346.056
350.484
355.24
360.522
365.292
368.777
371.079
372.589
373.612
374.322
374.809
375.128
375.322
375.428
375.478
375.496
375.499
375.503
375.525
375.594
375.766
376.118
376.703
377.491
378.437
379.547
380.853
382.377
384.123
386.118
388.575
392.839
403.494
321.242
336.988
343.461
348.007
353.039
358.949
364.559
368.698
371.345
372.989
374.049
374.763
375.251
375.579
375.786
375.906
375.966
375.99
375.996
376.001
376.021
376.085
376.248
376.603
377.255
378.215
379.387
380.698
382.144
383.747
385.527
387.53
389.994
394.253
404.426
319.285
334.337
340.916
345.55
350.618
356.766
363.12
368.147
371.399
373.333
374.493
375.227
375.713
376.038
376.249
376.377
376.446
376.476
376.486
376.491
376.509
376.564
376.707
377.031
377.677
378.745
380.156
381.742
383.413
385.161
387.017
389.044
391.509
395.71
405.227
318.061
333.32
340.118
344.707
349.361
354.851
361.074
366.748
370.817
373.314
374.769
375.633
376.169
376.511
376.727
376.858
376.931
376.965
376.977
376.982
376.996
377.042
377.161
377.436
378.014
379.065
380.615
382.465
384.399
386.334
388.289
390.34
392.783
396.866
405.723
318.195
334.587
341.644
346.081
350.073
354.326
359.359
364.83
369.532
372.763
374.711
375.845
376.518
376.928
377.179
377.328
377.411
377.451
377.466
377.471
377.481
377.518
377.616
377.841
378.321
379.253
380.775
382.766
384.919
387.031
389.077
391.144
393.55
397.504
405.892
319.864
337.352
344.48
348.763
352.265
355.491
358.985
363.235
367.822
371.67
374.272
375.834
376.743
377.278
377.597
377.784
377.887
377.937
377.956
377.961
377.968
377.996
378.074
378.253
378.634
379.399
380.749
382.699
384.955
387.19
389.299
391.366
393.728
397.579
405.778
321.822
339.717
346.819
351.107
354.559
357.469
360.107
362.949
366.443
370.205
373.338
375.453
376.731
377.481
377.925
378.185
378.333
378.41
378.444
378.454
378.459
378.48
378.541
378.683
378.983
379.586
380.701
382.459
384.674
386.955
389.089
391.135
393.447
397.23
405.486
323.236
341.019
348.087
352.503
356.205
359.356
361.967
364.211
366.512
369.308
372.321
374.826
376.519
377.549
378.16
378.523
378.737
378.857
378.917
378.943
378.953
378.969
379.017
379.13
379.367
379.837
380.725
382.217
384.267
386.511
388.634
390.641
392.887
396.608
405.098
323.738
341.379
348.503
353.078
357.073
360.616
363.566
365.87
367.728
369.551
371.752
374.137
376.12
377.464
378.29
378.787
379.087
379.267
379.369
379.423
379.449
379.469
379.511
379.602
379.791
380.159
380.857
382.079
383.899
386.055
388.171
390.167
392.374
396.064
404.826
324.173
341.914
349.158
353.871
358.084
361.929
365.186
367.684
369.498
370.902
372.273
373.956
375.791
377.309
378.339
378.983
379.381
379.63
379.785
379.879
379.935
379.975
380.025
380.115
380.285
380.599
381.178
382.203
383.815
385.873
387.999
390.02
392.228
395.914
404.795
325.281
343.265
350.597
355.447
359.884
363.943
367.306
369.808
371.548
372.763
373.72
374.71
375.968
377.323
378.423
379.173
379.654
379.966
380.172
380.309
380.402
380.47
380.541
380.644
380.818
381.118
381.642
382.553
384.014
385.975
388.089
390.118
392.316
395.978
404.882
326.968
344.937
352.251
357.322
362.228
366.661
370.062
372.38
373.885
374.871
375.567
376.164
376.858
377.763
378.698
379.438
379.952
380.301
380.545
380.722
380.854
380.959
381.061
381.194
381.395
381.717
382.247
383.124
384.499
386.358
388.404
390.393
392.567
396.222
405.145
327.969
345.575
352.901
358.421
364.248
369.352
372.843
374.945
376.186
376.944
377.441
377.818
378.194
378.687
379.302
379.89
380.351
380.689
380.942
381.14
381.302
381.443
381.584
381.756
382.004
382.381
382.973
383.905
385.3
387.125
389.11
391.055
393.222
396.897
405.656
327.133
344.419
352.01
358.242
365.341
371.257
374.888
376.864
377.949
378.581
378.975
379.248
379.484
379.76
380.118
380.511
380.865
381.153
381.388
381.588
381.77
381.943
382.124
382.342
382.646
383.098
383.787
384.834
386.331
388.192
390.142
392.044
394.202
397.879
406.274
325.116
342.35
350.324
357.199
365.395
372.114
376.034
378.063
379.145
379.766
380.145
380.393
380.578
380.758
380.971
381.217
381.463
381.687
381.889
382.08
382.272
382.477
382.705
382.981
383.35
383.876
384.647
385.775
387.326
389.178
391.067
392.913
395.059
398.762
406.891
323.472
340.903
348.937
355.781
364.216
371.689
376.229
378.58
379.818
380.525
380.956
381.234
381.426
381.582
381.735
381.902
382.077
382.25
382.424
382.606
382.81
383.054
383.352
383.726
384.22
384.902
385.847
387.118
388.715
390.499
392.286
394.076
396.251
400.044
407.665
323.218
341.12
348.936
355.153
362.855
370.692
376.003
378.834
380.301
381.119
381.612
381.925
382.132
382.283
382.41
382.535
382.667
382.806
382.958
383.132
383.346
383.627
384.001
384.487
385.118
385.974
387.158
388.702
390.484
392.286
394.002
395.721
397.85
401.489
408.183
324.376
342.932
350.709
356.476
363.181
370.461
376.001
379.133
380.761
381.656
382.191
382.528
382.75
382.903
383.019
383.122
383.227
383.341
383.473
383.636
383.85
384.153
384.588
385.187
385.933
386.826
387.971
389.485
391.301
393.153
394.879
396.561
398.603
402.027
408.275
326.348
345.354
353.281
359.096
365.431
371.793
376.787
379.784
381.381
382.262
382.789
383.124
383.344
383.493
383.599
383.686
383.767
383.856
383.964
384.105
384.303
384.599
385.061
385.771
386.755
387.912
389.109
390.372
391.8
393.358
394.944
396.572
398.602
402.066
408.349
328.056
347.018
354.973
360.974
367.448
373.43
377.864
380.583
382.073
382.904
383.404
383.724
383.936
384.078
384.176
384.248
384.308
384.368
384.44
384.537
384.681
384.906
385.277
385.905
386.924
388.377
390.089
391.738
393.158
394.46
395.792
397.254
399.157
402.428
408.311
328.751
347.652
355.633
361.759
368.386
374.313
378.586
381.229
382.705
383.528
384.018
384.331
384.539
384.68
384.775
384.841
384.888
384.926
384.964
385.014
385.088
385.212
385.425
385.806
386.484
387.628
389.329
391.425
393.504
395.215
396.613
397.951
399.581
402.321
407.749
329.059
348.126
356.466
362.991
369.794
375.324
379.212
381.736
383.228
384.082
384.592
384.916
385.133
385.282
385.386
385.457
385.506
385.537
385.558
385.575
385.596
385.633
385.71
385.862
386.156
386.706
387.67
389.176
391.16
393.278
395.14
396.715
398.323
400.808
406.572
329.774
348.886
358.025
365.667
373.105
377.971
380.863
382.738
383.952
384.711
385.19
385.507
385.728
385.886
386.003
386.088
386.15
386.193
386.22
386.233
386.235
386.232
386.233
386.256
386.33
386.506
386.872
387.563
388.741
390.482
392.595
394.658
396.556
399.205
405.689
330.33
349.162
359.212
368.434
376.799
381.252
383.247
384.329
385.047
385.549
385.904
386.162
386.356
386.506
386.626
386.722
386.8
386.862
386.909
386.94
386.954
386.952
386.937
386.917
386.909
386.941
387.068
387.394
388.123
389.527
391.62
393.831
395.848
398.695
405.843
329.526
347.997
358.279
368.224
377.382
382.453
384.656
385.627
386.134
386.456
386.69
386.874
387.024
387.152
387.263
387.363
387.453
387.535
387.609
387.673
387.72
387.746
387.749
387.735
387.724
387.75
387.875
388.219
388.988
390.391
392.316
394.276
396.23
399.284
406.802
326.99
344.963
353.992
362.312
371.494
378.735
383.115
385.41
386.526
387.067
387.352
387.528
387.659
387.769
387.871
387.97
388.071
388.176
388.289
388.412
388.537
388.646
388.721
388.765
388.814
388.928
389.189
389.716
390.643
392.016
393.651
395.32
397.235
400.531
407.834
323.989
341.463
348.847
354.486
361.299
369.273
376.449
381.669
384.903
386.649
387.509
387.926
388.146
388.283
388.39
388.488
388.592
388.711
388.855
389.038
389.267
389.526
389.761
389.932
390.078
390.295
390.685
391.344
392.328
393.588
394.99
396.482
398.362
401.72
408.444
322.968
341.158
348.576
353.168
357.273
362.008
367.909
374.152
379.683
383.789
386.306
387.622
388.265
388.591
388.776
388.903
389.014
389.133
389.281
389.48
389.763
390.153
390.625
391.078
391.439
391.781
392.237
392.907
393.821
394.93
396.163
397.529
399.322
402.534
408.686
325.293
345.332
353.695
358.943
363.065
365.935
368.103
370.73
374.456
378.919
383.084
386.019
387.665
388.499
388.931
389.176
389.336
389.467
389.601
389.772
390.017
390.391
390.945
391.659
392.391
393.019
393.595
394.248
395.054
396.02
397.122
398.382
400.046
403.004
408.732
328.958
349.413
358.248
364.676
370.785
374.944
376.663
376.975
377.017
377.935
380.465
383.77
386.412
387.981
388.818
389.277
389.555
389.743
389.895
390.048
390.24
390.523
390.974
391.673
392.616
393.645
394.577
395.396
396.205
397.085
398.082
399.242
400.78
403.485
408.807
330.586
350.109
359.259
366.905
375.218
381.179
383.862
384.434
384.027
383.218
382.761
383.847
385.931
387.671
388.734
389.342
389.712
389.962
390.152
390.316
390.483
390.694
391.008
391.518
392.323
393.438
394.692
395.852
396.868
397.828
398.829
399.951
401.387
403.852
408.836
329.442
348.009
357.842
367.126
377.223
383.963
387.036
387.991
387.974
387.495
386.848
386.665
387.416
388.441
389.201
389.69
390.02
390.268
390.468
390.638
390.8
390.977
391.209
391.563
392.141
393.056
394.318
395.728
397.038
398.2
399.307
400.466
401.882
404.242
408.985
326.064
343.888
353.459
362.731
373.272
381.61
386.448
388.55
389.203
389.222
389.05
389.013
389.263
389.656
390.017
390.307
390.542
390.738
390.908
391.061
391.208
391.362
391.55
391.813
392.229
392.911
393.971
395.378
396.888
398.279
399.541
400.778
402.208
404.513
409.095
321.82
339.497
347.244
353.356
361.413
371.48
380.837
386.664
389.17
390.044
390.311
390.418
390.535
390.691
390.862
391.026
391.179
391.318
391.448
391.569
391.689
391.816
391.967
392.17
392.48
392.99
393.832
395.093
396.656
398.226
399.642
400.955
402.406
404.7
409.217
320.403
340.167
348.834
353.877
357.848
362.831
371.345
381.354
387.402
389.904
390.854
391.235
391.419
391.541
391.647
391.75
391.852
391.953
392.054
392.156
392.262
392.378
392.518
392.702
392.97
393.397
394.102
395.209
396.702
398.316
399.792
401.129
402.591
404.905
409.373
326.881
349.707
361.152
368.925
372.922
372.359
371.351
377.394
385.061
389.115
390.821
391.58
391.956
392.167
392.303
392.404
392.488
392.566
392.643
392.723
392.811
392.913
393.04
393.21
393.457
393.843
394.475
395.481
396.893
398.49
399.968
401.288
402.724
405.014
409.452
340.712
361.016
373.342
384.806
389.467
387.676
383.59
383.633
387.962
390.429
391.494
392.061
392.436
392.705
392.894
393.029
393.13
393.213
393.288
393.361
393.441
393.539
393.663
393.833
394.08
394.463
395.079
396.043
397.382
398.889
400.283
401.54
402.95
405.258
409.651
347.391
371.527
385.69
395.628
394.721
392.203
391.155
391.393
391.952
392.413
392.778
393.063
393.284
393.456
393.59
393.696
393.784
393.86
393.932
394.007
394.093
394.198
394.334
394.52
394.791
395.201
395.84
396.797
398.065
399.446
400.722
401.901
403.277
405.584
409.861
341.478
375.023
391.068
394.927
393.841
393.938
393.929
393.835
393.826
393.907
394.017
394.125
394.222
394.306
394.379
394.443
394.503
394.563
394.627
394.7
394.79
394.904
395.057
395.27
395.576
396.032
396.707
397.657
398.834
400.066
401.214
402.315
403.649
405.938
410.077
335.739
356.833
369.684
381.734
389.091
393.035
394.608
395.032
395.075
395.049
395.036
395.044
395.066
395.096
395.131
395.171
395.217
395.271
395.337
395.419
395.524
395.663
395.848
396.103
396.46
396.965
397.668
398.587
399.658
400.748
401.785
402.82
404.123
406.396
410.335
326.142
342.45
350.031
357.926
370.439
382.979
391.013
394.528
395.674
395.948
395.958
395.913
395.871
395.848
395.843
395.855
395.882
395.927
395.992
396.081
396.203
396.368
396.592
396.894
397.305
397.858
398.579
399.46
400.433
401.41
402.359
403.337
404.592
406.786
410.508
324.682
345.877
354.544
359.524
365.255
375.414
385.854
392.452
395.316
396.295
396.576
396.622
396.597
396.559
396.532
396.523
396.535
396.57
396.633
396.728
396.863
397.053
397.312
397.661
398.125
398.723
399.461
400.309
401.206
402.099
402.985
403.92
405.135
407.248
410.721
328.395
350.961
361.228
368.422
374.482
379.408
385.858
391.979
395.376
396.696
397.128
397.243
397.246
397.213
397.178
397.159
397.161
397.191
397.254
397.356
397.506
397.718
398.009
398.399
398.906
399.536
400.277
401.089
401.924
402.755
403.593
404.492
405.665
407.684
410.908
329.704
351.398
361.989
370.4
378.037
382.748
386.443
391.28
395.115
396.92
397.575
397.786
397.834
397.821
397.792
397.771
397.771
397.8
397.866
397.976
398.142
398.376
398.697
399.123
399.667
400.324
401.068
401.857
402.654
403.448
404.256
405.127
406.262
408.177
411.105
334.192
356.083
369.199
380.677
387.363
389.771
390.974
393.286
396.032
397.532
398.101
398.308
398.377
398.387
398.373
398.36
398.364
398.398
398.47
398.591
398.771
399.024
399.366
399.812
400.367
401.023
401.747
402.503
403.264
404.025
404.802
405.64
406.724
408.524
411.222
341.895
364.382
380.51
396.246
398.786
397.491
396.83
397.318
398.202
398.665
398.868
398.954
398.98