/*--------------------------------*- C++ -*----------------------------------*\
| =========                 |                                                 |
| \\      /  F ield         | OpenFOAM: The Open Source CFD Toolbox           |
|  \\    /   O peration     | Version:  v1906                                 |
|   \\  /    A nd           | Web:      www.OpenFOAM.com                      |
|    \\/     M anipulation  |                                                 |
\*---------------------------------------------------------------------------*/
FoamFile
{
    version     2.0;
    format      ascii;
    class       volVectorField;
    location    "9";
    object      U;
}
// * * * * * * * * * * * * * * * * * * * * * * * * * * * * * * * * * * * * * //

dimensions      [0 1 -1 0 0 0 0];


internalField   nonuniform List<vector> 
78750
(
(-0.206502 0.63743 3.55803)
(0.554657 -0.259724 -1.37409)
(0.223479 -0.30579 -1.6232)
(0.525657 -0.202668 -0.631092)
(0.316452 -0.239499 -0.499189)
(0.376199 -0.271489 -0.319349)
(0.304338 -0.288338 -0.142884)
(0.274044 -0.289266 -0.0202033)
(0.232417 -0.280486 0.0534055)
(0.196436 -0.26782 0.0927032)
(0.165302 -0.254491 0.108947)
(0.139166 -0.241477 0.109493)
(0.118358 -0.229412 0.0985132)
(0.102894 -0.2189 0.0788649)
(0.0920491 -0.210832 0.0531923)
(0.0842023 -0.205274 0.024888)
(0.0775062 -0.200824 -0.00373725)
(0.0702282 -0.195428 -0.028182)
(0.0614407 -0.188353 -0.0414388)
(0.0512764 -0.17911 -0.0361216)
(0.0414738 -0.166503 -0.0126848)
(0.034153 -0.151016 0.012709)
(0.030042 -0.136253 0.0264532)
(0.0285259 -0.125309 0.0303586)
(0.0287228 -0.118212 0.029767)
(0.0304224 -0.111482 0.0244207)
(0.0325325 -0.101415 0.013571)
(0.0333519 -0.0916044 0.00768377)
(0.0319257 -0.0893819 0.0196548)
(0.0310676 -0.0873977 0.0360537)
(0.0316452 -0.0620621 0.00708435)
(0.0326245 -0.0286833 -0.0633629)
(0.0293902 -0.00243697 -0.145121)
(0.023329 0.0128102 -0.192025)
(0.0117959 0.02435 -0.17933)
(-0.106351 0.822317 2.03506)
(0.0216207 0.188087 -1.01801)
(0.0186969 0.281307 -1.03326)
(0.0344333 0.303969 -1.09108)
(0.0538878 0.336718 -1.08548)
(0.0667639 0.375138 -0.997786)
(0.0762993 0.400888 -0.834739)
(0.0781529 0.389845 -0.671536)
(0.0757016 0.357055 -0.54183)
(0.0702843 0.317711 -0.448089)
(0.0634653 0.279645 -0.38429)
(0.0566208 0.2456 -0.342197)
(0.0501853 0.215611 -0.314348)
(0.0448112 0.189323 -0.295904)
(0.0407357 0.166307 -0.28398)
(0.0375811 0.146078 -0.276704)
(0.0351699 0.128082 -0.272783)
(0.0335648 0.111911 -0.271293)
(0.0328776 0.0973221 -0.271371)
(0.0332033 0.0842481 -0.271897)
(0.0345847 0.0728306 -0.271333)
(0.0370533 0.0634635 -0.268036)
(0.0404533 0.0565583 -0.261095)
(0.0440817 0.0520392 -0.250967)
(0.0469726 0.0493698 -0.239078)
(0.0485201 0.0479735 -0.227026)
(0.0486946 0.0473846 -0.216636)
(0.0475656 0.0469415 -0.209887)
(0.044699 0.0458308 -0.207644)
(0.0391029 0.0442131 -0.208815)
(0.0312109 0.046245 -0.21)
(0.023495 0.058419 -0.210848)
(0.0168138 0.0789062 -0.2118)
(0.0109676 0.100657 -0.208879)
(0.00435566 0.126252 -0.184281)
(0.0179948 0.193727 0.303037)
(0.00978542 0.0877717 0.232455)
(-0.0188848 0.065304 -0.322215)
(-0.00847085 0.137647 -0.279295)
(-0.00395209 0.1345 -0.260169)
(0.0046137 0.128355 -0.227719)
(0.0139736 0.115127 -0.182287)
(0.0223985 0.0966127 -0.141513)
(0.0284457 0.0778196 -0.115008)
(0.0320844 0.0599927 -0.101399)
(0.0339962 0.0425961 -0.096274)
(0.0347775 0.0260922 -0.0966845)
(0.0349051 0.0115956 -0.101043)
(0.0348407 -0.000286246 -0.108151)
(0.0349726 -0.00947839 -0.117032)
(0.0355543 -0.0163087 -0.126896)
(0.0366685 -0.021286 -0.137218)
(0.038268 -0.0247607 -0.147696)
(0.0402599 -0.0268662 -0.158171)
(0.0424938 -0.0274605 -0.168586)
(0.0448372 -0.0262586 -0.178903)
(0.0472079 -0.0229333 -0.189063)
(0.0495387 -0.0171946 -0.198981)
(0.0517625 -0.00882692 -0.208541)
(0.0537969 0.00221513 -0.217618)
(0.0554887 0.0156377 -0.226159)
(0.0564982 0.0306827 -0.234321)
(0.0563251 0.0463932 -0.242532)
(0.0545118 0.0621973 -0.251247)
(0.0508617 0.0781568 -0.260722)
(0.0449985 0.0952572 -0.270981)
(0.0364904 0.113935 -0.280729)
(0.0267452 0.132058 -0.286977)
(0.0165666 0.14901 -0.285021)
(0.00442333 0.163416 -0.241806)
(-0.00653957 0.465747 0.244507)
(-0.0240477 0.421568 0.208417)
(-0.0280091 0.309515 0.00263224)
(-0.0197663 0.282412 -0.0353772)
(-0.00818717 0.275307 -0.0495744)
(0.00445117 0.279718 -0.0636722)
(0.0186126 0.291191 -0.0777086)
(0.0312229 0.298259 -0.0875693)
(0.0394072 0.295279 -0.0925628)
(0.0428286 0.285246 -0.0947732)
(0.04165 0.271877 -0.0960804)
(0.0350637 0.256707 -0.0981292)
(0.0240926 0.240906 -0.103984)
(0.0115894 0.224876 -0.1157)
(-0.00104792 0.208396 -0.132016)
(-0.0126975 0.192308 -0.149112)
(-0.0228356 0.177666 -0.163511)
(-0.0313044 0.164827 -0.174152)
(-0.0379193 0.153703 -0.181843)
(-0.0425461 0.143917 -0.188043)
(-0.0450928 0.13501 -0.194032)
(-0.0455777 0.126829 -0.200505)
(-0.04419 0.11953 -0.207709)
(-0.0410667 0.113442 -0.215656)
(-0.036321 0.109132 -0.223898)
(-0.0307625 0.107553 -0.231317)
(-0.0252699 0.109502 -0.236543)
(-0.0205349 0.115254 -0.23935)
(-0.0165573 0.124878 -0.24038)
(-0.0127327 0.13779 -0.240033)
(-0.00855104 0.15288 -0.238113)
(-0.00411078 0.168737 -0.233906)
(-0.000473204 0.183476 -0.226584)
(0.00157999 0.195428 -0.21309)
(0.000591429 0.195497 -0.168716)
(0.0152632 0.188486 0.1281)
(0.0590016 0.127867 0.155491)
(0.0905437 0.0641633 0.141666)
(0.114521 0.0310649 0.123764)
(0.130157 0.00828074 0.110732)
(0.140059 -0.0118577 0.107824)
(0.145016 -0.0238314 0.112253)
(0.148171 -0.0146137 0.117159)
(0.151096 0.0272369 0.103002)
(0.151562 0.0904461 0.0566612)
(0.149874 0.15547 -0.00379746)
(0.146611 0.204838 -0.0538203)
(0.142423 0.230838 -0.0866583)
(0.138002 0.240251 -0.108985)
(0.132815 0.240797 -0.126991)
(0.12615 0.235013 -0.142616)
(0.118741 0.223876 -0.155827)
(0.11082 0.20789 -0.166575)
(0.102132 0.186792 -0.174526)
(0.093037 0.160823 -0.178942)
(0.0841462 0.131569 -0.178711)
(0.075437 0.101412 -0.171591)
(0.066232 0.0752579 -0.1556)
(0.0564986 0.0608545 -0.13673)
(0.0470602 0.0604939 -0.125147)
(0.0366399 0.0750767 -0.126232)
(0.0245171 0.106771 -0.146817)
(0.0136546 0.137098 -0.174061)
(0.00386084 0.155448 -0.192644)
(-0.00438623 0.165345 -0.202662)
(-0.00997438 0.171534 -0.207898)
(-0.0119724 0.177222 -0.210899)
(-0.00991661 0.18596 -0.211964)
(-0.00442585 0.200835 -0.204217)
(-0.000427749 0.211807 -0.160729)
(0.0116106 -0.249805 0.122633)
(0.0187139 -0.272133 0.174034)
(0.0240388 -0.211209 0.179394)
(0.0288003 -0.0932413 0.105222)
(0.0263288 -0.000835859 0.0193836)
(0.0192863 0.0606042 -0.0465486)
(0.0116185 0.103969 -0.0889066)
(0.00454472 0.137366 -0.11571)
(6.26549e-05 0.165227 -0.133928)
(-0.000277284 0.19043 -0.148703)
(0.00327289 0.213452 -0.162164)
(0.010256 0.233114 -0.174999)
(0.0198403 0.247598 -0.186764)
(0.0302609 0.256882 -0.196784)
(0.040137 0.262276 -0.204965)
(0.0489965 0.264821 -0.211318)
(0.056326 0.265448 -0.215995)
(0.0615963 0.264849 -0.219151)
(0.0647033 0.262988 -0.220732)
(0.0655461 0.259016 -0.220214)
(0.0638502 0.252019 -0.216513)
(0.0593224 0.241945 -0.208634)
(0.0518767 0.23061 -0.197719)
(0.042049 0.22169 -0.18854)
(0.0309046 0.218317 -0.185583)
(0.0197177 0.220725 -0.189405)
(0.00976037 0.226695 -0.197806)
(0.0014936 0.233834 -0.207541)
(-0.00565683 0.240396 -0.21561)
(-0.012221 0.24571 -0.219693)
(-0.0182296 0.249938 -0.218149)
(-0.0228954 0.253035 -0.209855)
(-0.024179 0.254243 -0.194752)
(-0.0203708 0.250939 -0.172904)
(-0.0110722 0.224012 -0.123462)
(-0.016648 0.00159778 -0.117544)
(-0.0476057 -0.0386956 -0.0961918)
(-0.0799296 -0.0461108 -0.0540503)
(-0.104024 -0.0099868 -0.0728587)
(-0.122522 0.029844 -0.117469)
(-0.137801 0.0499327 -0.133317)
(-0.148026 0.0633156 -0.135147)
(-0.155847 0.0760481 -0.137184)
(-0.161372 0.0885595 -0.14123)
(-0.164516 0.100977 -0.148104)
(-0.165451 0.113175 -0.15816)
(-0.164477 0.124879 -0.170739)
(-0.162153 0.136343 -0.184862)
(-0.159044 0.14808 -0.199868)
(-0.15555 0.16029 -0.215063)
(-0.151925 0.172747 -0.229104)
(-0.148404 0.184982 -0.239909)
(-0.145473 0.196571 -0.245764)
(-0.143409 0.207167 -0.247586)
(-0.142184 0.216553 -0.246557)
(-0.141993 0.224787 -0.243026)
(-0.142942 0.232115 -0.237364)
(-0.144894 0.238873 -0.230107)
(-0.147349 0.245342 -0.221762)
(-0.149467 0.25159 -0.212525)
(-0.150439 0.257351 -0.202252)
(-0.149836 0.261736 -0.190497)
(-0.146622 0.263123 -0.176249)
(-0.139368 0.260444 -0.159411)
(-0.127533 0.254857 -0.142101)
(-0.110972 0.248127 -0.125998)
(-0.0899796 0.24097 -0.110568)
(-0.0657126 0.232071 -0.0935621)
(-0.0399218 0.215402 -0.0669037)
(-0.0118633 0.167063 -0.00990968)
(-0.00289062 0.0605743 -0.0459792)
(-0.0176692 0.0939238 -0.0940243)
(-0.0351708 0.103528 -0.104089)
(-0.051674 0.105788 -0.106733)
(-0.0642573 0.107045 -0.110454)
(-0.0737419 0.109005 -0.11661)
(-0.081675 0.112802 -0.125319)
(-0.0890439 0.118997 -0.136357)
(-0.0960646 0.126514 -0.147878)
(-0.102306 0.134006 -0.158358)
(-0.10758 0.140943 -0.167981)
(-0.111864 0.147431 -0.177567)
(-0.115286 0.153916 -0.187739)
(-0.118108 0.160796 -0.198583)
(-0.120568 0.167963 -0.209605)
(-0.122806 0.175107 -0.220178)
(-0.124736 0.181894 -0.229638)
(-0.126204 0.187984 -0.237576)
(-0.126997 0.192842 -0.243761)
(-0.127091 0.19583 -0.247859)
(-0.12664 0.196303 -0.249393)
(-0.125875 0.193564 -0.247656)
(-0.125022 0.186847 -0.241833)
(-0.124184 0.175485 -0.231321)
(-0.12333 0.159095 -0.215894)
(-0.122326 0.137489 -0.195325)
(-0.12092 0.110288 -0.168582)
(-0.118783 0.0773924 -0.134325)
(-0.115331 0.0402948 -0.0930583)
(-0.109795 0.00314854 -0.0491402)
(-0.101515 -0.0289078 -0.00897582)
(-0.0895648 -0.0538761 0.0250553)
(-0.0711982 -0.0729622 0.0562343)
(-0.0471653 -0.0908491 0.0855113)
(-0.0166263 -0.0974794 0.0939403)
(-0.00757066 0.123277 0.173619)
(-0.0102514 0.180733 0.172432)
(-0.00948906 0.191578 0.166234)
(-0.0054354 0.189739 0.162685)
(0.00202185 0.181658 0.160909)
(0.0119167 0.170905 0.16053)
(0.0238112 0.160713 0.160863)
(0.0373173 0.153354 0.161241)
(0.0519414 0.149321 0.161313)
(0.0672206 0.14813 0.161014)
(0.0827848 0.149296 0.160244)
(0.0983377 0.152316 0.158707)
(0.113633 0.156624 0.156204)
(0.128414 0.161867 0.152711)
(0.142549 0.167957 0.148131)
(0.155672 0.174761 0.142057)
(0.167125 0.181968 0.133968)
(0.176485 0.189011 0.123741)
(0.183635 0.195253 0.111639)
(0.188813 0.200459 0.0985966)
(0.192342 0.204839 0.0860188)
(0.194539 0.208638 0.0749332)
(0.195577 0.21186 0.0658572)
(0.195365 0.214162 0.0589838)
(0.193626 0.214846 0.054291)
(0.189988 0.212853 0.0518442)
(0.183922 0.207161 0.0519924)
(0.174882 0.196522 0.0551913)
(0.162709 0.180125 0.0622419)
(0.147422 0.157804 0.0733705)
(0.130444 0.129807 0.0888848)
(0.111682 0.0938198 0.112323)
(0.0826177 0.0306827 0.188865)
(0.0498158 -0.0927906 0.289706)
(0.0208772 -0.197707 0.279766)
(-0.00236496 0.0705035 0.186186)
(0.0118932 0.0309485 0.209516)
(0.0334349 -0.0224219 0.197994)
(0.0605943 -0.0702968 0.184168)
(0.0896513 -0.108071 0.172444)
(0.11967 -0.137371 0.162807)
(0.149537 -0.159473 0.154682)
(0.178206 -0.174798 0.147728)
(0.205478 -0.183998 0.141764)
(0.231478 -0.187936 0.136641)
(0.256229 -0.187559 0.132246)
(0.279457 -0.183636 0.128497)
(0.300886 -0.176777 0.125268)
(0.320267 -0.167504 0.122432)
(0.337355 -0.156278 0.119928)
(0.352335 -0.143636 0.117691)
(0.365375 -0.129791 0.11572)
(0.376343 -0.114743 0.113943)
(0.385256 -0.0988154 0.112436)
(0.391934 -0.0822429 0.11112)
(0.396317 -0.0653991 0.110139)
(0.398398 -0.0483094 0.109388)
(0.398059 -0.0312649 0.109258)
(0.394811 -0.0150032 0.109087)
(0.388148 0.000489635 0.10998)
(0.377488 0.0152774 0.11147)
(0.36242 0.0263267 0.112555)
(0.340627 0.037479 0.12012)
(0.312947 0.0416542 0.117504)
(0.277126 0.0438925 0.133567)
(0.234418 0.0502437 0.12923)
(0.195264 0.0771921 0.146498)
(0.1444 0.149689 0.173804)
(0.101663 0.14721 0.0650409)
(0.0438922 0.125893 0.071884)
(0.00635177 -0.0402496 0.0577192)
(0.0328377 -0.182518 0.0388405)
(0.0592883 -0.261906 0.0222422)
(0.0852709 -0.304577 0.0110003)
(0.109855 -0.325555 0.00322195)
(0.132535 -0.332884 -0.00253882)
(0.153236 -0.33107 -0.00707175)
(0.172157 -0.322797 -0.0108119)
(0.18955 -0.309684 -0.0140236)
(0.205585 -0.292652 -0.0168637)
(0.220229 -0.272216 -0.0194238)
(0.233294 -0.248758 -0.0217286)
(0.244585 -0.222625 -0.02396)
(0.253893 -0.194723 -0.0262774)
(0.261365 -0.166144 -0.0285739)
(0.267467 -0.137093 -0.0305496)
(0.272435 -0.107226 -0.031906)
(0.27604 -0.0762629 -0.0324338)
(0.278022 -0.0441154 -0.0318714)
(0.278168 -0.0106399 -0.0301751)
(0.27625 0.0241117 -0.0273411)
(0.271823 0.0605387 -0.0237903)
(0.265347 0.097779 -0.0201204)
(0.257508 0.135245 -0.0189811)
(0.248779 0.174159 -0.0207281)
(0.240209 0.215942 -0.0222222)
(0.234058 0.263576 -0.0214224)
(0.230299 0.315 -0.0182625)
(0.222519 0.363857 -0.0113436)
(0.205201 0.398698 -0.00110766)
(0.180665 0.403108 -0.020228)
(0.151979 0.372537 -0.0106131)
(0.119605 0.332613 -0.0188476)
(0.0804423 0.368707 0.0121595)
(0.0238951 0.424561 0.159227)
(0.0125589 -0.222864 0.00719526)
(0.0350691 -0.364781 0.00524295)
(0.0544906 -0.405919 0.00702813)
(0.0705953 -0.415599 0.00945693)
(0.0848768 -0.413887 0.0116363)
(0.0977707 -0.406768 0.0134114)
(0.109554 -0.396349 0.0148297)
(0.120499 -0.38305 0.0160339)
(0.130621 -0.366486 0.0171758)
(0.139592 -0.345938 0.018259)
(0.146797 -0.320757 0.0188919)
(0.15168 -0.290647 0.0181534)
(0.154005 -0.255866 0.0145673)
(0.153457 -0.220253 0.00830164)
(0.150612 -0.187288 0.00107214)
(0.14789 -0.155596 -0.00510431)
(0.147317 -0.123011 -0.00912369)
(0.149387 -0.0893693 -0.0104721)
(0.154041 -0.0542433 -0.00656998)
(0.16101 -0.0176626 0.00364133)
(0.168976 0.0185653 0.0175893)
(0.177735 0.0541938 0.0291361)
(0.185292 0.086221 0.0334349)
(0.189843 0.111752 0.0326349)
(0.190443 0.127341 0.0298572)
(0.18661 0.120835 0.0421648)
(0.183146 0.118698 0.073832)
(0.179798 0.160424 0.0931248)
(0.172675 0.241099 0.0852301)
(0.162283 0.32441 0.0707647)
(0.148516 0.40071 0.0721119)
(0.126531 0.48687 0.111953)
(0.0882393 0.601932 0.154928)
(0.0479606 0.709792 0.217306)
(0.0124843 0.720618 0.255769)
(0.00739369 -0.32588 -0.0028204)
(0.0149638 -0.453554 -0.00431996)
(0.0208202 -0.479436 -0.00600731)
(0.0260241 -0.484411 -0.00711192)
(0.0314244 -0.481987 -0.00741889)
(0.0370839 -0.474086 -0.00661186)
(0.0428781 -0.46073 -0.00444579)
(0.0484593 -0.44129 -0.000735298)
(0.0532671 -0.414171 0.00465241)
(0.0566794 -0.376383 0.0114091)
(0.0580198 -0.324451 0.0173131)
(0.0573985 -0.25675 0.0170371)
(0.056693 -0.176586 0.00560036)
(0.0569572 -0.10773 -0.00588185)
(0.0595963 -0.0754873 -0.00580939)
(0.064545 -0.0628343 0.00149413)
(0.0714552 -0.0623909 0.0167612)
(0.0790586 -0.0640127 0.0363706)
(0.0847751 -0.0604621 0.0569622)
(0.0862788 -0.0509761 0.0771725)
(0.0811105 -0.0342475 0.10276)
(0.0707219 0.00562117 0.13454)
(0.0580264 0.0879032 0.139559)
(0.0467244 0.18619 0.0831785)
(0.0372262 0.253302 0.0199548)
(0.0269998 0.297694 0.00877795)
(0.0144895 0.346876 0.035204)
(0.000866881 0.41025 0.0690441)
(-0.0118765 0.485332 0.100503)
(-0.0229121 0.56674 0.129636)
(-0.0322224 0.648976 0.155562)
(-0.0385223 0.724359 0.175631)
(-0.0409158 0.780333 0.183058)
(-0.0374126 0.808722 0.178528)
(-0.021046 0.718341 0.116919)
(0.0005377 -0.354388 0.0119967)
(-0.00146567 -0.467072 0.0127574)
(-0.00327643 -0.485117 0.0134917)
(-0.0056866 -0.488217 0.0151761)
(-0.00860969 -0.485642 0.0180614)
(-0.0116946 -0.478111 0.0225038)
(-0.014947 -0.464872 0.0291455)
(-0.0186774 -0.443313 0.0392341)
(-0.0233376 -0.408214 0.0542191)
(-0.0290766 -0.354703 0.0719456)
(-0.0353686 -0.287895 0.0814281)
(-0.0412148 -0.228008 0.0735388)
(-0.0455948 -0.195392 0.0629274)
(-0.04655 -0.183435 0.0640875)
(-0.0456151 -0.174966 0.0696609)
(-0.0441184 -0.166435 0.081277)
(-0.0440513 -0.151358 0.107212)
(-0.0481745 -0.115037 0.152768)
(-0.0585551 -0.0397605 0.202865)
(-0.074969 0.0721626 0.214469)
(-0.0959103 0.18496 0.154936)
(-0.116923 0.262183 0.0500431)
(-0.132081 0.305423 -0.0346856)
(-0.140338 0.339377 -0.0711621)
(-0.144452 0.373802 -0.0779625)
(-0.146853 0.411622 -0.0709148)
(-0.148228 0.455336 -0.0552865)
(-0.14817 0.503376 -0.0357429)
(-0.145612 0.552261 -0.0161705)
(-0.139335 0.597683 0.000134434)
(-0.128546 0.634767 0.010981)
(-0.112942 0.65806 0.0152429)
(-0.0916494 0.657845 0.0117538)
(-0.0612875 0.606655 5.58635e-05)
(-0.0210296 0.415252 -0.0243169)
(-0.00541705 -0.317795 -0.00419639)
(-0.0151011 -0.433799 -0.0117035)
(-0.0220426 -0.453409 -0.0126918)
(-0.0281098 -0.456601 -0.012426)
(-0.0343623 -0.452475 -0.0112229)
(-0.0403224 -0.44161 -0.00874818)
(-0.0461012 -0.423029 -0.00418798)
(-0.0517698 -0.395164 0.00397237)
(-0.0569179 -0.357014 0.0177254)
(-0.0606273 -0.308047 0.0382671)
(-0.0620168 -0.248003 0.0630563)
(-0.0617697 -0.183061 0.0824156)
(-0.0635902 -0.132587 0.0872461)
(-0.0711958 -0.109845 0.0851715)
(-0.0842282 -0.0987367 0.0849238)
(-0.101979 -0.0834092 0.0899671)
(-0.121902 -0.0571815 0.108555)
(-0.141135 -0.0131121 0.142163)
(-0.156238 0.0562882 0.179158)
(-0.165056 0.14715 0.194836)
(-0.168277 0.236798 0.168109)
(-0.168602 0.300377 0.108309)
(-0.168271 0.334642 0.0492945)
(-0.167895 0.355206 0.0111591)
(-0.167192 0.374929 -0.0110788)
(-0.16558 0.39826 -0.0255568)
(-0.162304 0.425492 -0.0349059)
(-0.156325 0.454202 -0.0396996)
(-0.14669 0.480775 -0.0406922)
(-0.132902 0.501211 -0.0389357)
(-0.115096 0.511186 -0.0350624)
(-0.0938558 0.505355 -0.0293281)
(-0.0690974 0.473954 -0.0205867)
(-0.0401185 0.392125 -0.00630614)
(-0.00597327 0.198621 0.0180335)
(-0.0024452 -0.279514 0.0156842)
(-0.00569134 -0.412126 0.0144406)
(-0.0090077 -0.440243 0.0118781)
(-0.0117184 -0.448432 0.0102337)
(-0.0145547 -0.449709 0.00890752)
(-0.0174458 -0.446019 0.00757906)
(-0.0202221 -0.437947 0.00618402)
(-0.0227845 -0.4257 0.00499182)
(-0.0250878 -0.408674 0.00495078)
(-0.0271449 -0.384974 0.00822375)
(-0.0289102 -0.350576 0.0188757)
(-0.0301586 -0.298524 0.0419075)
(-0.0308824 -0.222042 0.0765581)
(-0.0321721 -0.125318 0.110553)
(-0.0358627 -0.0341686 0.131031)
(-0.0424987 0.0196192 0.138388)
(-0.052924 0.0368202 0.139655)
(-0.0668373 0.0387486 0.141)
(-0.081932 0.0473992 0.147515)
(-0.0951438 0.0768631 0.159921)
(-0.103243 0.130025 0.170578)
(-0.105585 0.196595 0.169061)
(-0.103832 0.261343 0.155003)
(-0.100095 0.31655 0.13629)
(-0.095492 0.361759 0.117848)
(-0.0893535 0.397772 0.100485)
(-0.08064 0.423127 0.0863772)
(-0.0692317 0.437305 0.0779188)
(-0.0563907 0.441071 0.0760314)
(-0.043257 0.436378 0.0808865)
(-0.0305711 0.423498 0.0896088)
(-0.0183925 0.400041 0.100095)
(-0.0056622 0.357205 0.107384)
(0.0064053 0.278422 0.105089)
(0.0112662 0.145248 0.100859)
(-0.000337189 -0.291486 -0.00863121)
(-1.57114e-05 -0.423168 -0.0189797)
(0.000386453 -0.45179 -0.0210449)
(0.000893993 -0.458538 -0.021695)
(0.00145609 -0.456838 -0.0219691)
(0.00203381 -0.448593 -0.022013)
(0.0026106 -0.433778 -0.0219055)
(0.00320455 -0.411548 -0.0217998)
(0.00382067 -0.380926 -0.0219349)
(0.00445262 -0.342377 -0.0225245)
(0.00517505 -0.299616 -0.0232812)
(0.00632886 -0.258767 -0.0226456)
(0.00861409 -0.222696 -0.0175376)
(0.0128819 -0.187123 -0.00427668)
(0.0194917 -0.143613 0.019077)
(0.0274787 -0.0866029 0.0495841)
(0.0344435 -0.0150729 0.0819908)
(0.0381232 0.0607495 0.108658)
(0.0369321 0.12281 0.124841)
(0.0314572 0.159679 0.133083)
(0.0267165 0.176661 0.138853)
(0.0260856 0.181888 0.14466)
(0.0308762 0.18037 0.149908)
(0.041846 0.183412 0.154316)
(0.0578629 0.207319 0.153301)
(0.0778633 0.230493 0.150181)
(0.0959555 0.232497 0.155244)
(0.106389 0.229955 0.170013)
(0.109966 0.250683 0.186596)
(0.109664 0.281574 0.186819)
(0.105379 0.299028 0.172094)
(0.0976764 0.2884 0.135802)
(0.0845279 0.251979 0.0878698)
(0.059591 0.25271 0.115633)
(0.0260037 0.251893 0.159255)
(0.000989983 -0.287506 -0.00198772)
(0.00434774 -0.432725 -0.00655942)
(0.00703686 -0.468999 -0.00894095)
(0.00931032 -0.479871 -0.010377)
(0.011628 -0.48224 -0.0114597)
(0.0140395 -0.479351 -0.0123676)
(0.0165764 -0.472015 -0.0131419)
(0.0193637 -0.460315 -0.0137869)
(0.0225398 -0.443603 -0.0142552)
(0.0262417 -0.420286 -0.0144331)
(0.03055 -0.388082 -0.0141873)
(0.035335 -0.345622 -0.0134213)
(0.0402188 -0.295109 -0.0119236)
(0.0448439 -0.242544 -0.00901467)
(0.0492386 -0.193698 -0.00325576)
(0.053948 -0.149263 0.00778609)
(0.060074 -0.1042 0.0274833)
(0.0688461 -0.0500118 0.0558709)
(0.0805211 0.00899002 0.0826196)
(0.0947482 0.0495376 0.100242)
(0.11169 0.0608566 0.110799)
(0.129858 0.0600735 0.116704)
(0.145492 0.0565888 0.11821)
(0.15181 0.0172051 0.123201)
(0.147162 -0.0122537 0.139636)
(0.138335 0.0447437 0.142706)
(0.130033 0.149886 0.121451)
(0.123159 0.235921 0.0968079)
(0.116788 0.29438 0.0857256)
(0.111101 0.350242 0.0898499)
(0.100477 0.404289 0.0957909)
(0.0837816 0.448969 0.0978345)
(0.0573842 0.497137 0.127225)
(0.0303471 0.541955 0.177982)
(0.00958008 0.531293 0.190215)
(0.00123261 -0.31872 -0.0145005)
(0.00552408 -0.463633 -0.0231069)
(0.0089837 -0.496692 -0.0253916)
(0.0118114 -0.505525 -0.0266039)
(0.0144573 -0.505744 -0.0277618)
(0.0168551 -0.499961 -0.0290868)
(0.0189282 -0.488517 -0.0306663)
(0.0206412 -0.470929 -0.0325376)
(0.021895 -0.446405 -0.0345825)
(0.0225744 -0.414986 -0.0363502)
(0.0227311 -0.378458 -0.0369989)
(0.0227049 -0.33933 -0.0355582)
(0.0229601 -0.299049 -0.0312025)
(0.0237401 -0.258309 -0.0231836)
(0.0249033 -0.218238 -0.0104985)
(0.0261002 -0.179751 0.00889851)
(0.0270083 -0.143059 0.0388863)
(0.0283511 -0.110253 0.0808339)
(0.0315898 -0.0974698 0.120423)
(0.037316 -0.127682 0.141586)
(0.0428348 -0.150332 0.141295)
(0.0486018 -0.0940083 0.116593)
(0.0510012 0.046122 0.0656941)
(0.0367007 0.190905 0.00235992)
(0.012768 0.268699 -0.0371162)
(-0.00702456 0.292748 -0.039434)
(-0.0211158 0.305894 -0.0209689)
(-0.0314784 0.327938 0.0183451)
(-0.0381412 0.383415 0.0770992)
(-0.0380165 0.471501 0.121829)
(-0.0354454 0.540427 0.138467)
(-0.0333276 0.575868 0.148438)
(-0.031807 0.593498 0.159206)
(-0.0277003 0.586815 0.159546)
(-0.0104497 0.474863 0.105573)
(0.00131749 -0.320266 -0.0079708)
(0.00555226 -0.470958 -0.0129722)
(0.00845148 -0.507127 -0.0148206)
(0.0104718 -0.517189 -0.0158692)
(0.0120118 -0.518182 -0.0168173)
(0.0130021 -0.513112 -0.01792)
(0.0133306 -0.50231 -0.0193635)
(0.0128964 -0.485131 -0.0213374)
(0.011549 -0.460542 -0.0239463)
(0.00917568 -0.428156 -0.0270452)
(0.00581138 -0.389243 -0.0301201)
(0.00164101 -0.346406 -0.0322614)
(-0.00306324 -0.302005 -0.0322382)
(-0.00800947 -0.257388 -0.0285551)
(-0.0130082 -0.213994 -0.0194176)
(-0.0181075 -0.173485 -0.00231043)
(-0.0237042 -0.136308 0.0277006)
(-0.0301227 -0.104521 0.0774933)
(-0.03809 -0.0899221 0.138974)
(-0.0542674 -0.107481 0.163806)
(-0.0804111 -0.104481 0.130861)
(-0.0990449 0.00755504 0.0820757)
(-0.0955738 0.169228 0.0292114)
(-0.0837745 0.274565 -0.0138677)
(-0.0729153 0.330411 -0.0365865)
(-0.0634689 0.367656 -0.0463162)
(-0.0587897 0.391393 -0.0431463)
(-0.0591861 0.403395 -0.0253524)
(-0.0625902 0.409772 0.00582281)
(-0.0650349 0.417357 0.0380813)
(-0.0628635 0.429364 0.0610668)
(-0.0549906 0.445889 0.0757762)
(-0.0443297 0.454357 0.0812363)
(-0.030487 0.429189 0.0720576)
(-0.00585317 0.277822 0.0268468)
(0.00141737 -0.351202 -0.0159008)
(0.00590682 -0.493778 -0.0234668)
(0.00920428 -0.522124 -0.025142)
(0.0116137 -0.527753 -0.0259904)
(0.013501 -0.524767 -0.0269918)
(0.0145932 -0.514978 -0.0284379)
(0.0146654 -0.497898 -0.0305315)
(0.0134976 -0.472151 -0.0333656)
(0.0108967 -0.437146 -0.0366502)
(0.00694428 -0.394578 -0.0396337)
(0.00205276 -0.348039 -0.0415477)
(-0.00327982 -0.301696 -0.0420489)
(-0.00872096 -0.258945 -0.0411326)
(-0.0141366 -0.220807 -0.0387915)
(-0.0195664 -0.18555 -0.0346861)
(-0.025146 -0.150615 -0.0278921)
(-0.0309884 -0.114996 -0.0167539)
(-0.0374021 -0.0796714 0.00141858)
(-0.0455095 -0.0458821 0.0310873)
(-0.0576072 -0.0155175 0.0776441)
(-0.0760731 0.000132015 0.138503)
(-0.0975188 -0.0174187 0.177424)
(-0.109196 -0.0327516 0.157679)
(-0.107743 0.00264699 0.116728)
(-0.101603 0.075102 0.0929888)
(-0.0906979 0.162535 0.0767189)
(-0.0740792 0.254112 0.0636149)
(-0.0551366 0.340007 0.0583175)
(-0.0367475 0.41421 0.0577844)
(-0.0200214 0.473087 0.0543835)
(-0.00921568 0.493311 0.044085)
(-0.00599868 0.470381 0.0317074)
(-0.00431795 0.432048 0.0263804)
(-0.00338102 0.374541 0.0262042)
(0.00214951 0.217293 0.0253695)
(0.00161625 -0.352109 -0.00989469)
(0.00598097 -0.496645 -0.0110394)
(0.00926647 -0.525085 -0.0119118)
(0.0117788 -0.529748 -0.0130133)
(0.0139139 -0.52509 -0.0146958)
(0.0153287 -0.512625 -0.017296)
(0.0156702 -0.491328 -0.0212307)
(0.0146219 -0.460003 -0.0267442)
(0.0120561 -0.420157 -0.0333496)
(0.00830116 -0.37622 -0.0398455)
(0.0039378 -0.332331 -0.0450429)
(-0.000557276 -0.29004 -0.0482887)
(-0.00489835 -0.248956 -0.0494368)
(-0.00901091 -0.208717 -0.0485984)
(-0.0128765 -0.169865 -0.045913)
(-0.016376 -0.13317 -0.0414919)
(-0.0194124 -0.0984029 -0.0352585)
(-0.0219736 -0.0645013 -0.0267761)
(-0.0241426 -0.0307302 -0.0151649)
(-0.0261948 0.00264183 0.000872903)
(-0.0291727 0.0342135 0.0225423)
(-0.0352878 0.0615447 0.0486468)
(-0.0457206 0.0826695 0.075055)
(-0.0589323 0.0961873 0.0988054)
(-0.0716264 0.100907 0.117295)
(-0.081411 0.0964298 0.127105)
(-0.0854484 0.0867228 0.124639)
(-0.0814748 0.0916128 0.115934)
(-0.0703634 0.137496 0.113735)
(-0.0527174 0.229129 0.117669)
(-0.0289877 0.353439 0.121459)
(0.0026919 0.478103 0.120472)
(0.0214984 0.511647 0.0998923)
(0.0260073 0.468748 0.0771604)
(0.0169982 0.298151 0.0617878)
(0.00204351 -0.381422 -0.00894745)
(0.00608455 -0.516643 -0.0110393)
(0.00916814 -0.539087 -0.0122513)
(0.0116255 -0.540122 -0.013582)
(0.0138521 -0.531463 -0.0156655)
(0.0153695 -0.513266 -0.0190576)
(0.0157193 -0.483248 -0.0244307)
(0.0144863 -0.440566 -0.0318873)
(0.011729 -0.389406 -0.0402484)
(0.00810438 -0.336357 -0.0478519)
(0.00434927 -0.286469 -0.0536844)
(0.000959076 -0.242532 -0.0574728)
(-0.00178977 -0.205353 -0.0593484)
(-0.00376231 -0.174016 -0.0596163)
(-0.00493481 -0.146673 -0.0585824)
(-0.0053369 -0.121543 -0.0564386)
(-0.00500276 -0.0974001 -0.0532489)
(-0.00393705 -0.07352 -0.0489795)
(-0.00209904 -0.0494603 -0.0435181)
(0.000536456 -0.0249604 -0.0366256)
(0.00397017 -0.000160342 -0.0280066)
(0.00826758 0.0242918 -0.017466)
(0.0130495 0.047341 -0.00536916)
(0.0176171 0.0679454 0.00747977)
(0.0215063 0.0850704 0.020057)
(0.0241725 0.0973753 0.0311173)
(0.0252117 0.103283 0.0387413)
(0.0256655 0.102937 0.042317)
(0.027925 0.0999325 0.0443774)
(0.03415 0.0849364 0.0464288)
(0.0398684 0.0300302 0.0411862)
(0.0396961 0.00929526 0.0492569)
(0.0379844 0.234513 0.100668)
(0.0291596 0.407432 0.130465)
(0.0122754 0.400114 0.115225)
(0.000623057 -0.378947 -0.0033108)
(0.00266302 -0.512336 -0.000648118)
(0.00468447 -0.533156 -0.000885437)
(0.0064906 -0.53278 -0.00217791)
(0.00827604 -0.521649 -0.00473485)
(0.00960341 -0.498269 -0.00938139)
(0.00995844 -0.459245 -0.0171809)
(0.00898702 -0.407055 -0.027869)
(0.00707448 -0.352063 -0.0390338)
(0.00504124 -0.303259 -0.0482195)
(0.00345908 -0.263101 -0.0546307)
(0.00250352 -0.229852 -0.0586914)
(0.00213116 -0.201065 -0.0610635)
(0.002239 -0.175098 -0.0622133)
(0.00274496 -0.151185 -0.0623967)
(0.00361442 -0.129052 -0.0617423)
(0.00485318 -0.108556 -0.0603108)
(0.00648577 -0.0895159 -0.0581162)
(0.00853286 -0.0716912 -0.0551181)
(0.0109982 -0.0548355 -0.0511975)
(0.0138233 -0.0388557 -0.0461775)
(0.0167646 -0.0241217 -0.0399829)
(0.0197806 -0.0115946 -0.0329404)
(0.0229202 -0.00214125 -0.0257938)
(0.0260737 0.00416182 -0.0188939)
(0.0289724 0.00738578 -0.0122748)
(0.0314427 0.00667533 -0.00499252)
(0.0328802 -0.00092756 0.0058733)
(0.0321645 -0.0145108 0.0252782)
(0.0290551 0.0144481 0.0734135)
(0.0197295 0.228472 0.138863)
(-0.00673524 0.445736 0.137686)
(-0.0230004 0.528484 0.122351)
(-0.0230329 0.554115 0.113207)
(-0.010592 0.4514 0.081846)
(0.000500452 -0.391068 0.00169136)
(0.00192454 -0.52279 0.0047552)
(0.00326548 -0.542532 0.00464157)
(0.0045526 -0.540796 0.00343975)
(0.00584244 -0.526756 0.000847321)
(0.00667592 -0.497407 -0.00419016)
(0.00653508 -0.449174 -0.0129279)
(0.00521277 -0.388229 -0.0248238)
(0.00323467 -0.327571 -0.0370731)
(0.00127102 -0.27516 -0.0472232)
(-0.000384532 -0.232385 -0.0545255)
(-0.00171126 -0.197825 -0.0592991)
(-0.00275212 -0.16956 -0.0621533)
(-0.00354305 -0.145873 -0.0636375)
(-0.0041194 -0.12536 -0.0641531)
(-0.00453216 -0.106919 -0.0639608)
(-0.00484834 -0.0897204 -0.0632088)
(-0.00514568 -0.0731536 -0.0619568)
(-0.00550178 -0.0567661 -0.0601974)
(-0.0059877 -0.0402222 -0.0578689)
(-0.00666504 -0.0233148 -0.0548668)
(-0.00757907 -0.0060059 -0.0510676)
(-0.00876783 0.0116139 -0.0463513)
(-0.0105782 0.0294672 -0.0405673)
(-0.0135729 0.0477434 -0.033341)
(-0.0183502 0.0665753 -0.0238386)
(-0.0258102 0.085373 -0.0108286)
(-0.036457 0.101986 0.006694)
(-0.0510507 0.116358 0.0307548)
(-0.0660866 0.142577 0.0673772)
(-0.0683763 0.21607 0.11809)
(-0.0539829 0.322534 0.154562)
(-0.031454 0.361219 0.162971)
(-0.0122671 0.343604 0.14444)
(0.00299068 0.214727 0.0931321)
(0.000512715 -0.386384 0.0042993)
(0.00198771 -0.517504 0.00902924)
(0.00339451 -0.536821 0.00957742)
(0.00478214 -0.534119 0.00873972)
(0.00636314 -0.517876 0.00644377)
(0.00789508 -0.483911 0.00155815)
(0.00908243 -0.428995 -0.00740704)
(0.00976824 -0.363152 -0.0199411)
(0.0102313 -0.302288 -0.0329106)
(0.0108962 -0.253688 -0.0436734)
(0.0119725 -0.216423 -0.0516326)
(0.0134729 -0.187132 -0.0572993)
(0.0153579 -0.162985 -0.0613252)
(0.0175956 -0.142163 -0.0641959)
(0.0201616 -0.123539 -0.0662334)
(0.023011 -0.106343 -0.0676548)
(0.026129 -0.0900553 -0.0686322)
(0.029482 -0.0743732 -0.0692828)
(0.0330563 -0.0590833 -0.069678)
(0.0368741 -0.0439627 -0.0698585)
(0.0409702 -0.028761 -0.069841)
(0.0453746 -0.0132367 -0.0696281)
(0.0501173 0.00279567 -0.0692233)
(0.0552363 0.0195068 -0.0686354)
(0.060581 0.0374847 -0.0678738)
(0.0661681 0.0587304 -0.0668475)
(0.0715381 0.0838223 -0.0657121)
(0.0726723 0.0995277 -0.0647663)
(0.0700284 0.0992535 -0.0629454)
(0.0644239 0.0880988 -0.0586668)
(0.0537048 0.0667788 -0.0495329)
(0.0468985 0.0489577 -0.0448921)
(0.0427256 0.0433903 -0.0402371)
(0.0346806 0.199163 0.0787514)
(0.0167114 0.286817 0.118132)
(-8.82338e-05 -0.396083 0.00843044)