/*--------------------------------*- C++ -*----------------------------------*\
| =========                 |                                                 |
| \\      /  F ield         | OpenFOAM: The Open Source CFD Toolbox           |
|  \\    /   O peration     | Version:  v1906                                 |
|   \\  /    A nd           | Web:      www.OpenFOAM.com                      |
|    \\/     M anipulation  |                                                 |
\*---------------------------------------------------------------------------*/
FoamFile
{
    version     2.0;
    format      ascii;
    class       volVectorField;
    location    "78";
    object      U;
}
// * * * * * * * * * * * * * * * * * * * * * * * * * * * * * * * * * * * * * //

dimensions      [0 1 -1 0 0 0 0];


internalField   nonuniform List<vector> 
78750
(
(-0.080168 -0.077614 2.80465)
(0.337786 -0.186027 1.89223)
(-0.0694079 -0.15387 0.58887)
(0.216287 -0.172141 -0.146446)
(0.211943 -0.180243 -0.436581)
(0.204146 -0.192576 -0.51028)
(0.264488 -0.183723 -0.551231)
(0.287216 -0.188847 -0.521528)
(0.337444 -0.179521 -0.518534)
(0.359797 -0.172019 -0.478204)
(0.380353 -0.163723 -0.435394)
(0.399423 -0.155113 -0.392268)
(0.416354 -0.146598 -0.351219)
(0.428607 -0.137933 -0.313473)
(0.436062 -0.128988 -0.280143)
(0.4399 -0.119737 -0.251992)
(0.441483 -0.110631 -0.229998)
(0.441261 -0.102354 -0.214784)
(0.438721 -0.0949977 -0.206081)
(0.43384 -0.0884054 -0.20312)
(0.426801 -0.0823088 -0.204894)
(0.417727 -0.0764181 -0.210264)
(0.406653 -0.0704676 -0.218152)
(0.393518 -0.0643053 -0.22754)
(0.378174 -0.0578133 -0.237659)
(0.360429 -0.0509475 -0.24776)
(0.339947 -0.0436651 -0.257503)
(0.316231 -0.0361749 -0.266314)
(0.288793 -0.0284045 -0.274746)
(0.257088 -0.0215839 -0.282026)
(0.220773 -0.0159992 -0.291987)
(0.178308 -0.013885 -0.297602)
(0.133046 -0.0186819 -0.313135)
(0.0883859 -0.0513706 -0.382888)
(0.04225 -0.0241509 -0.108544)
(0.0278177 -0.523734 -1.92663)
(-0.150135 -0.475593 -0.507866)
(-0.00898468 -0.403046 0.203409)
(-0.0930915 -0.195412 0.29204)
(-0.0211805 -0.252253 0.259123)
(-0.0441719 -0.217109 0.217694)
(0.00481722 -0.146459 0.228621)
(-0.0204925 -0.206042 0.101637)
(0.0393342 0.0165389 0.0788089)
(0.0218528 -0.0602736 0.170097)
(0.0521368 -0.0225008 0.137401)
(0.0575303 0.013634 0.109663)
(0.0682795 0.0439738 0.0792604)
(0.0782847 0.068221 0.0451035)
(0.0860138 0.0872559 0.0106343)
(0.0928701 0.101901 -0.0207886)
(0.0992411 0.114433 -0.0477876)
(0.106364 0.126422 -0.0717421)
(0.113846 0.139323 -0.0916932)
(0.120932 0.153431 -0.107724)
(0.127421 0.168374 -0.120741)
(0.133203 0.184064 -0.131701)
(0.138155 0.200792 -0.14121)
(0.142183 0.218955 -0.14953)
(0.145213 0.238952 -0.156817)
(0.14707 0.26117 -0.16311)
(0.147553 0.285975 -0.168503)
(0.146341 0.313684 -0.172887)
(0.143082 0.34462 -0.176489)
(0.13717 0.378988 -0.17886)
(0.127801 0.417186 -0.181156)
(0.113367 0.456961 -0.180267)
(0.0960783 0.489752 -0.203574)
(0.0666008 0.533691 -0.185517)
(0.0264159 0.536916 0.120078)
(-0.0206173 -0.117743 -0.100943)
(0.0174276 -0.404532 -0.0808373)
(0.0163112 -0.44687 -0.174271)
(0.0536478 -0.480268 -0.187672)
(0.0746311 -0.477803 -0.196257)
(0.102281 -0.458266 -0.193627)
(0.10719 -0.442114 -0.200123)
(0.118651 -0.398683 -0.199112)
(0.110547 -0.356123 -0.165271)
(0.114936 -0.309205 -0.160656)
(0.109499 -0.267802 -0.128582)
(0.0993915 -0.224009 -0.0635188)
(0.0891875 -0.173583 0.00955205)
(0.0797463 -0.127532 0.0582189)
(0.0700134 -0.0927534 0.0728873)
(0.060468 -0.0695869 0.0638321)
(0.0520516 -0.0529257 0.043761)
(0.0457115 -0.0369109 0.0241334)
(0.0415822 -0.0189863 0.0108528)
(0.0394889 0.00049132 0.00329377)
(0.0390891 0.0200206 -0.00102703)
(0.0400291 0.0389319 -0.00390697)
(0.0420396 0.0576948 -0.00609645)
(0.0448697 0.07722 -0.00775358)
(0.0482178 0.0982803 -0.00890074)
(0.0517867 0.121475 -0.00956339)
(0.0553824 0.147505 -0.00971429)
(0.0588478 0.177294 -0.00917351)
(0.0619567 0.212125 -0.00775907)
(0.0642093 0.253486 -0.00501511)
(0.0649493 0.303632 -0.00139736)
(0.0625521 0.364551 0.00469262)
(0.0545009 0.453709 0.0244545)
(0.0333911 0.573318 0.1352)
(0.0162326 0.56151 0.302111)
(0.0232436 -0.334141 0.00845768)
(0.0347614 -0.49001 0.064936)
(0.0533927 -0.523175 0.142121)
(0.0548169 -0.484293 0.166136)
(0.0560054 -0.418587 0.159956)
(0.0481752 -0.341257 0.130178)
(0.048661 -0.225208 0.0916825)
(0.0373454 -0.134222 0.0542966)
(0.0342873 -0.0386168 -0.00885897)
(0.0282438 0.0541995 -0.0724923)
(0.0241362 0.128855 -0.11789)
(0.0201305 0.173528 -0.131018)
(0.0171111 0.198364 -0.121391)
(0.0150787 0.210778 -0.0966681)
(0.0140345 0.217584 -0.0670064)
(0.0130487 0.22004 -0.0424486)
(0.0113309 0.217049 -0.0260827)
(0.00886422 0.208132 -0.0167874)
(0.00598153 0.194024 -0.0132927)
(0.00314477 0.177541 -0.0142382)
(0.000783521 0.163707 -0.0160976)
(-0.00113049 0.156344 -0.0151502)
(-0.00285407 0.155337 -0.0106351)
(-0.0044783 0.159256 -0.00326789)
(-0.00594458 0.167613 0.00641827)
(-0.00710789 0.180412 0.0180094)
(-0.0078737 0.197237 0.0309058)
(-0.00819819 0.217292 0.0444851)
(-0.00797544 0.240834 0.0588723)
(-0.00705957 0.271232 0.0760455)
(-0.00516188 0.317185 0.100987)
(-0.00262858 0.39268 0.144915)
(-0.00207236 0.500458 0.219217)
(-0.00510774 0.556192 0.28068)
(-5.53399e-05 0.507291 0.295084)
(0.000305019 -0.565103 0.0938576)
(0.0103307 -0.728371 0.0626931)
(-0.00349446 -0.694369 -0.0177623)
(-0.0180577 -0.612258 -0.0942653)
(-0.0432222 -0.51607 -0.169804)
(-0.0656034 -0.419754 -0.186216)
(-0.0841513 -0.335734 -0.143061)
(-0.0936984 -0.253332 -0.0967081)
(-0.0991638 -0.184234 -0.0648796)
(-0.0971475 -0.120744 -0.056579)
(-0.0912261 -0.065479 -0.0562247)
(-0.0830081 -0.0211933 -0.0543777)
(-0.0734577 0.0143771 -0.0494672)
(-0.063669 0.0422879 -0.0423403)
(-0.0539196 0.0643318 -0.0345909)
(-0.0443392 0.0821881 -0.0275156)
(-0.0351958 0.0972171 -0.0219948)
(-0.0269292 0.110321 -0.0187491)
(-0.0199613 0.121825 -0.0182989)
(-0.0144809 0.131958 -0.0203303)
(-0.0104579 0.141139 -0.0230059)
(-0.00772881 0.149476 -0.0240102)
(-0.00599442 0.156652 -0.0225015)
(-0.00498429 0.162675 -0.0185578)
(-0.00453734 0.168289 -0.0121434)
(-0.00456002 0.174633 -0.00316597)
(-0.00495748 0.182499 0.00807817)
(-0.00565049 0.191946 0.0209046)
(-0.00658494 0.202958 0.0348168)
(-0.00760386 0.216798 0.0502094)
(-0.00823798 0.238492 0.0694724)
(-0.00748721 0.282191 0.100388)
(-0.00285007 0.371443 0.157321)
(-0.00130924 0.428888 0.193483)
(0.00155167 0.392839 0.171888)
(0.000445103 -0.506573 0.0404482)
(-0.00856434 -0.464669 0.0637061)
(-0.019157 -0.339998 0.0681635)
(-0.0419852 -0.169976 0.000434949)
(-0.0680479 -0.0325078 -0.133826)
(-0.0903624 0.0193673 -0.210311)
(-0.100617 0.020806 -0.190851)
(-0.109022 0.021539 -0.155248)
(-0.115081 0.0335647 -0.120329)
(-0.117973 0.0520597 -0.0925322)
(-0.117678 0.0704686 -0.0737799)
(-0.115266 0.0863848 -0.0609873)
(-0.111468 0.100442 -0.0515535)
(-0.106703 0.11272 -0.0446341)
(-0.101265 0.122873 -0.0401698)
(-0.0954159 0.130841 -0.038066)
(-0.0892676 0.136915 -0.0380288)
(-0.0827999 0.141722 -0.0395592)
(-0.076 0.145976 -0.0417753)
(-0.0690132 0.150207 -0.0434371)
(-0.0620354 0.154638 -0.0435441)
(-0.0551365 0.159329 -0.0418156)
(-0.0483649 0.164358 -0.0383567)
(-0.0418564 0.169829 -0.0332785)
(-0.035763 0.175818 -0.0266566)
(-0.0302024 0.182319 -0.0185725)
(-0.0252693 0.189214 -0.0091546)
(-0.0210448 0.196265 0.00138856)
(-0.017611 0.203138 0.0126939)
(-0.0150072 0.209485 0.0241564)
(-0.0129794 0.216333 0.0355633)
(-0.0105912 0.232073 0.0491596)
(-0.00621041 0.287499 0.0722749)
(-0.00283113 0.354561 0.0921)
(0.000292406 0.34048 0.0801628)
(-0.0317342 -0.494131 0.199847)
(-0.0617402 -0.587572 0.155855)
(-0.0849542 -0.407421 0.0927191)
(-0.0843769 -0.212369 0.0343068)
(-0.0716517 -0.129852 -0.0134486)
(-0.060964 -0.109168 -0.0291641)
(-0.0547642 -0.0921008 -0.0346235)
(-0.0509676 -0.0752546 -0.0406378)
(-0.0484838 -0.059194 -0.0452832)
(-0.0461375 -0.0428047 -0.0476261)
(-0.0431814 -0.024768 -0.047607)
(-0.0399782 -0.00439323 -0.0457061)
(-0.0367591 0.0172808 -0.0424539)
(-0.0335352 0.0385749 -0.038569)
(-0.0303968 0.0583785 -0.0347309)
(-0.0274777 0.0762467 -0.0313573)
(-0.0249198 0.0920182 -0.0287743)
(-0.0227903 0.105615 -0.0273905)
(-0.021015 0.117012 -0.0274613)
(-0.0193919 0.126327 -0.0286815)
(-0.0177024 0.133915 -0.0303236)
(-0.0157802 0.14026 -0.0317212)
(-0.0135299 0.145871 -0.0324531)
(-0.0109232 0.151214 -0.0322526)
(-0.00797587 0.156667 -0.0309001)
(-0.00475068 0.162523 -0.0281602)
(-0.0013715 0.169006 -0.0237571)
(0.00194393 0.176161 -0.0174373)
(0.00487496 0.183718 -0.00911122)
(0.00702889 0.190964 0.000918272)
(0.00819038 0.197592 0.0121781)
(0.00819965 0.20898 0.0254834)
(0.00543691 0.254331 0.0412321)
(0.00252109 0.319348 0.0515266)
(0.00161617 0.316343 0.0464034)
(0.0012246 -0.185179 -0.0231982)
(-0.00610159 -0.278715 -0.0325146)
(-0.00364376 -0.370025 0.00585696)
(0.00225925 -0.397584 0.0376151)
(0.012853 -0.327507 0.0427525)
(0.0200511 -0.200105 0.0219266)
(0.0169952 -0.122684 0.0076362)
(0.0130513 -0.0709037 -0.00349035)
(0.00945819 -0.0315396 -0.0120549)
(0.00589693 -0.00202912 -0.0169344)
(0.00238202 0.0201172 -0.0188901)
(-0.00068866 0.037338 -0.0190203)
(-0.00279803 0.0516823 -0.0181245)
(-0.00395547 0.0649797 -0.0167954)
(-0.00446405 0.0787264 -0.0156689)
(-0.00462073 0.0936766 -0.0154311)
(-0.00467741 0.109247 -0.0163224)
(-0.00465578 0.123875 -0.017766)
(-0.00441386 0.136275 -0.019184)
(-0.00384519 0.14604 -0.0205557)
(-0.00291248 0.153403 -0.0220252)
(-0.00161208 0.158856 -0.023613)
(2.35502e-05 0.162981 -0.0251939)
(0.00197852 0.166346 -0.0265208)
(0.00421419 0.169457 -0.0272857)
(0.00668902 0.172704 -0.0271478)
(0.00934972 0.176372 -0.0257512)
(0.0120752 0.180699 -0.0226801)
(0.0146195 0.185831 -0.0174306)
(0.0165917 0.191884 -0.0093496)
(0.0175133 0.200196 0.00291256)
(0.0164118 0.218768 0.0217667)
(0.0104891 0.269304 0.0424801)
(0.00462913 0.320042 0.0506267)
(0.00197201 0.310654 0.0446812)
(-0.008208 -0.455242 0.105563)
(-0.0151152 -0.549491 0.134279)
(-0.0258177 -0.523949 0.138873)
(-0.0385888 -0.437972 0.132)
(-0.0408286 -0.309552 0.0970215)
(-0.0309214 -0.171997 0.0522384)
(-0.0227039 -0.0919704 0.0269801)
(-0.0166917 -0.0570682 0.0165201)
(-0.0116391 -0.030581 0.00871352)
(-0.00762176 -0.00711374 0.00237358)
(-0.0049913 0.0133644 -0.00162848)
(-0.00355014 0.0309216 -0.00304322)
(-0.00282412 0.0465437 -0.0021653)
(-0.00250018 0.0619793 0.000676001)
(-0.00238716 0.0792341 0.00495132)
(-0.00227846 0.099035 0.00883282)
(-0.00193399 0.118825 0.0092439)
(-0.00119873 0.134653 0.00516865)
(-0.000107756 0.145532 -0.00117357)
(0.00126097 0.152968 -0.00745619)
(0.00287682 0.158557 -0.0126515)
(0.00470988 0.163278 -0.0166095)
(0.00672248 0.167623 -0.0195178)
(0.00886019 0.171858 -0.0215822)
(0.0110713 0.176166 -0.0228853)
(0.0133227 0.180721 -0.0233618)
(0.0155818 0.185703 -0.0228377)
(0.0177877 0.191336 -0.021042)
(0.0197857 0.198074 -0.0174944)
(0.0213125 0.207293 -0.0110331)
(0.0217878 0.222916 0.00112826)
(0.0198798 0.254393 0.0225768)
(0.0132173 0.308815 0.0459558)
(0.00674468 0.344727 0.0544122)
(0.0030805 0.321706 0.0479492)
(-0.00808426 -0.169613 0.025844)
(-0.0246754 -0.307575 -0.0285278)
(-0.03624 -0.381854 -0.0339414)
(-0.0424116 -0.435576 -0.00789695)
(-0.0457298 -0.455106 0.0334781)
(-0.0411707 -0.402372 0.0685281)
(-0.0246164 -0.273739 0.0686908)
(-0.00831272 -0.193874 0.0626776)
(0.00572193 -0.133062 0.0559578)
(0.0176506 -0.0778108 0.0455801)
(0.0262079 -0.031249 0.0332671)
(0.0313585 0.00477412 0.0223732)
(0.0337347 0.0318393 0.014956)
(0.0341968 0.0526837 0.0111642)
(0.0336557 0.0696516 0.010312)
(0.0328083 0.084692 0.0115575)
(0.032023 0.0993041 0.0139138)
(0.0313616 0.113881 0.0159418)
(0.0306036 0.127359 0.016041)
(0.0295104 0.138414 0.0134831)
(0.0281193 0.146877 0.00886322)
(0.0266255 0.153533 0.00336564)
(0.0252213 0.159315 -0.00195679)
(0.0241 0.164877 -0.00645409)
(0.0233362 0.170613 -0.00987022)
(0.0229173 0.176751 -0.0121408)
(0.0227824 0.183472 -0.0132091)
(0.0228513 0.191031 -0.0129297)
(0.0229829 0.200153 -0.0109333)
(0.0229565 0.213298 -0.00603754)
(0.0222514 0.236973 0.00497604)
(0.0196699 0.281266 0.0258531)
(0.0135913 0.339681 0.0480985)
(0.00758889 0.368391 0.0560284)
(0.00350509 0.334159 0.0489122)
(0.000268746 -0.315245 0.0320186)
(0.00034243 -0.437549 0.0486356)
(-0.00356868 -0.457929 0.0484488)
(-0.00949058 -0.461393 0.0391523)
(-0.0174719 -0.463206 0.0253507)
(-0.0236313 -0.466614 0.0188192)
(-0.0240525 -0.450505 0.0293711)
(-0.0122879 -0.38623 0.0423946)
(0.00212505 -0.315774 0.0549484)
(0.0176957 -0.233137 0.065603)
(0.032463 -0.147896 0.0689699)
(0.0440941 -0.0721051 0.0619229)
(0.0512815 -0.013793 0.0473365)
(0.054285 0.0272633 0.0321397)
(0.0545631 0.0567495 0.0210319)
(0.0534653 0.0800102 0.0145653)
(0.0518145 0.100063 0.0117782)
(0.0498892 0.118771 0.0118636)
(0.0476355 0.13734 0.0140124)
(0.0450222 0.155122 0.0165192)
(0.0421876 0.16988 0.0174168)
(0.0392693 0.180481 0.016088)
(0.0363609 0.18766 0.0130978)
(0.0336265 0.192901 0.00930737)
(0.031208 0.197598 0.00545988)
(0.0291311 0.202731 0.00205584)
(0.0273892 0.20893 -0.000589117)
(0.0259342 0.216702 -0.00219792)
(0.0246403 0.227067 -0.00233587)
(0.023325 0.243335 0.000155183)
(0.0217371 0.273593 0.0083704)
(0.0190749 0.325275 0.0257718)
(0.013975 0.381906 0.0449323)
(0.00856738 0.405804 0.0530219)
(0.00398131 0.358265 0.0464169)
(-0.00408104 -0.230666 0.0233147)
(-0.00214717 -0.370189 0.00544344)
(0.000441781 -0.414686 -0.00353619)
(0.00346824 -0.432358 -0.00719639)
(0.00632414 -0.441126 -0.00890229)
(0.00808073 -0.445654 -0.0117493)
(0.00872423 -0.448558 -0.016971)
(0.00853703 -0.446898 -0.0212833)
(0.0096951 -0.422113 -0.0205507)
(0.0132553 -0.361354 -0.00686991)
(0.0196217 -0.278176 0.0195231)
(0.0287147 -0.18259 0.0493328)
(0.0386904 -0.0864325 0.0681093)
(0.0462655 -0.00625842 0.0669206)
(0.0494649 0.0476786 0.0519889)
(0.0489343 0.080176 0.0365671)
(0.0463715 0.103348 0.0272682)
(0.0431404 0.124313 0.0233739)
(0.0400709 0.143256 0.0225339)
(0.0371422 0.158811 0.0230895)
(0.0340515 0.171304 0.0238954)
(0.0309394 0.181445 0.0239425)
(0.0281667 0.189525 0.0226799)
(0.0259136 0.195916 0.020242)
(0.0241804 0.201369 0.0171464)
(0.0229187 0.206896 0.0139284)
(0.0220244 0.213538 0.0109662)
(0.0213379 0.222342 0.00850987)
(0.0206518 0.234827 0.00694677)
(0.0195703 0.254266 0.00735583)
(0.0175984 0.288627 0.0125788)
(0.0145475 0.347987 0.0259537)
(0.0101414 0.41117 0.0413665)
(0.00595463 0.435151 0.0476849)
(0.00267092 0.381241 0.0411183)
(0.00472981 -0.316394 0.00672383)
(0.0182499 -0.501763 0.021141)
(0.0251763 -0.554004 0.0304165)
(0.0287296 -0.566427 0.0340905)
(0.0307432 -0.565078 0.0341898)
(0.031718 -0.55253 0.0307811)
(0.031492 -0.522838 0.0213503)
(0.0292852 -0.474205 0.00165138)
(0.0253309 -0.419782 -0.0262754)
(0.0205193 -0.370907 -0.0515677)
(0.0157751 -0.325475 -0.0608517)
(0.0131299 -0.272012 -0.0442489)
(0.0153242 -0.199776 -0.00299257)
(0.0224337 -0.109502 0.0448125)
(0.0313916 -0.0131025 0.0767629)
(0.0378244 0.0680334 0.0781946)
(0.038875 0.115012 0.0592335)
(0.036229 0.137766 0.0434056)
(0.0321594 0.157864 0.0376102)
(0.0282112 0.180605 0.0361766)
(0.025655 0.198728 0.0342007)
(0.0239144 0.208747 0.0309692)
(0.0223299 0.212914 0.0273905)
(0.0207377 0.214677 0.024136)
(0.0192392 0.216707 0.021362)
(0.0179911 0.220466 0.0189528)
(0.0170991 0.226804 0.0167914)
(0.0165792 0.237018 0.0148314)
(0.016315 0.254547 0.0131794)
(0.0159189 0.286231 0.0125868)
(0.0144372 0.336996 0.0154376)
(0.0113239 0.40041 0.0244879)
(0.00771892 0.45277 0.0349442)
(0.00441147 0.469004 0.0397612)
(0.00187605 0.397416 0.0339374)
(0.00632832 -0.383203 0.016527)
(0.0129159 -0.500191 0.0207367)
(0.0151944 -0.519448 0.0195342)
(0.0150684 -0.521835 0.0183501)
(0.0134711 -0.518697 0.0172088)
(0.0108152 -0.511805 0.0163605)
(0.00789131 -0.500845 0.0159468)
(0.00536904 -0.47797 0.0146112)
(0.00430892 -0.422495 0.00454545)
(0.00447578 -0.339205 -0.0216818)
(0.00334078 -0.266162 -0.052276)
(0.000405381 -0.224305 -0.06933)
(-0.00267475 -0.199222 -0.0700749)
(-0.00396624 -0.170708 -0.0498639)
(-8.99666e-05 -0.118563 -0.00197204)
(0.00870457 -0.040226 0.0536937)
(0.0195173 0.0565754 0.0919781)
(0.0267198 0.135297 0.0880318)
(0.0274803 0.162819 0.0618223)
(0.0260953 0.166744 0.0475678)
(0.0244097 0.171487 0.0445638)
(0.0226727 0.180123 0.0446587)
(0.021373 0.190994 0.0440209)
(0.0203069 0.200573 0.0414863)
(0.0191141 0.207519 0.037826)
(0.0177887 0.21301 0.0340584)
(0.0164884 0.21899 0.0307619)
(0.0153466 0.227653 0.0280832)
(0.0143963 0.243128 0.0259147)
(0.0136362 0.275193 0.0243005)
(0.0126753 0.335475 0.0242065)
(0.0102753 0.413148 0.0277373)
(0.00719048 0.472274 0.0332952)
(0.00431281 0.489285 0.0361351)
(0.00197216 0.40888 0.0307203)
(-0.00179225 -0.428538 0.022489)
(-0.00248521 -0.547105 0.0244384)
(-0.00114757 -0.563331 0.0244382)
(0.000149586 -0.563362 0.0238192)
(0.00124274 -0.556444 0.0222073)
(0.00168709 -0.542676 0.019)
(0.00106416 -0.521175 0.0136151)
(-0.000791789 -0.492855 0.0065657)
(-0.00330881 -0.458765 0.000322268)
(-0.00462927 -0.406186 -0.00573341)
(-0.00249542 -0.322974 -0.0199919)
(0.000878848 -0.236813 -0.0409645)
(0.00192215 -0.178723 -0.0557159)
(0.000851081 -0.149288 -0.0606439)
(-0.000574288 -0.131616 -0.0571179)
(-0.000431616 -0.10942 -0.0374149)
(0.00494167 -0.0612167 0.0109745)
(0.0147783 0.0144757 0.0665533)
(0.0256448 0.109155 0.105228)
(0.0295129 0.177065 0.0950455)
(0.0262535 0.191978 0.0667847)
(0.0225678 0.194087 0.0526579)
(0.0191154 0.198249 0.0470509)
(0.0160871 0.204265 0.0439854)
(0.0136491 0.211235 0.0413368)
(0.0116841 0.218953 0.0385386)
(0.0100157 0.22795 0.0357181)
(0.00858601 0.239796 0.0332287)
(0.00737782 0.258805 0.0313788)
(0.00647892 0.295737 0.0305795)
(0.00603509 0.364149 0.0312754)
(0.00457001 0.447862 0.0330085)
(0.00252479 0.502091 0.0352023)
(0.000859191 0.513168 0.035872)
(0.00028448 0.41761 0.0297852)
(-0.00351404 -0.366373 0.013239)
(-0.0041796 -0.507703 0.0130065)
(-0.00330033 -0.535399 0.0141694)
(-0.00179047 -0.541475 0.0158409)
(-0.000156688 -0.539202 0.0179874)
(0.00131218 -0.52981 0.0201448)
(0.00265292 -0.510735 0.0212161)
(0.00419257 -0.47712 0.0189437)
(0.00596906 -0.432193 0.0120005)
(0.00764241 -0.387994 0.00289112)
(0.00916903 -0.344854 -0.00631125)
(0.0112296 -0.290815 -0.0175402)
(0.0135947 -0.225783 -0.0315761)
(0.0145359 -0.16847 -0.0430784)
(0.0132799 -0.129203 -0.0485261)
(0.0107511 -0.104987 -0.0482008)
(0.00795203 -0.0856272 -0.0401473)
(0.00691704 -0.054856 -0.0126937)
(0.0113651 0.00607277 0.0405258)
(0.0199999 0.0925732 0.0917452)
(0.0277458 0.173553 0.107297)
(0.0275984 0.204945 0.0860543)
(0.0241994 0.210118 0.0675453)
(0.0202169 0.212492 0.0575636)
(0.0160352 0.215801 0.0509684)
(0.012067 0.220618 0.0457581)
(0.00851363 0.227614 0.0415249)
(0.00546257 0.238047 0.0382671)
(0.00297468 0.255578 0.0360814)
(0.00129918 0.290729 0.0353695)
(0.00158442 0.36173 0.0370131)
(0.00295655 0.458632 0.0397237)
(0.0030189 0.515926 0.0406704)
(0.00230512 0.524424 0.0404036)
(0.00165247 0.417649 0.0329796)
(-0.00111012 -0.373049 0.00496841)
(0.00497817 -0.539756 0.00323403)
(0.0109795 -0.575068 0.00344384)
(0.0172987 -0.582893 0.0040171)
(0.0239538 -0.580538 0.00506562)
(0.0300568 -0.571364 0.00696594)
(0.0350815 -0.55747 0.0102291)
(0.0389725 -0.539194 0.0153601)
(0.0419972 -0.510449 0.021869)
(0.0444729 -0.459168 0.0262409)
(0.0462376 -0.385842 0.0243809)
(0.0470392 -0.306842 0.0150666)
(0.0466157 -0.237653 -0.000304082)
(0.0447534 -0.181602 -0.0176447)
(0.0415288 -0.134236 -0.0325664)
(0.0371789 -0.094056 -0.0423083)
(0.0324694 -0.0644318 -0.0462741)
(0.0286572 -0.045914 -0.0454381)
(0.0263064 -0.0313535 -0.0385661)
(0.0270678 -0.006713 -0.0161317)
(0.0342575 0.0530869 0.0356939)
(0.0429456 0.142439 0.0852299)
(0.0432636 0.198086 0.0875597)
(0.0378848 0.216339 0.0731316)
(0.0316831 0.225348 0.0642776)
(0.0256744 0.233256 0.0588367)
(0.0201323 0.241538 0.0540974)
(0.0151307 0.251522 0.0494665)
(0.0108192 0.265604 0.0453092)
(0.00746869 0.290178 0.0423543)
(0.00595918 0.341767 0.042238)
(0.00677718 0.434245 0.0460814)
(0.00678714 0.510226 0.0490185)
(0.005326 0.527858 0.0490893)
(0.00329014 0.427577 0.0394506)
(0.00404892 -0.40924 -0.00612401)
(0.0143163 -0.591532 -0.00551658)
(0.0220509 -0.631079 -0.00499452)
(0.0287774 -0.63758 -0.00516381)
(0.0355715 -0.631721 -0.00601058)
(0.0420217 -0.616359 -0.00759415)
(0.0475312 -0.591156 -0.0100811)
(0.0513344 -0.555595 -0.0136925)
(0.05233 -0.513398 -0.0176952)
(0.0500776 -0.471853 -0.0188096)
(0.0453314 -0.428125 -0.0129478)
(0.0403992 -0.362912 -0.00313455)
(0.0371928 -0.272904 -0.00188525)
(0.0346774 -0.187038 -0.0127498)
(0.0320576 -0.12596 -0.0275132)
(0.0296722 -0.0864736 -0.0395677)
(0.0275402 -0.0587882 -0.0473658)
(0.0254299 -0.0374385 -0.0510892)
(0.0235506 -0.0210231 -0.0511294)
(0.0220443 -0.00756031 -0.0472993)
(0.0210236 0.0101231 -0.0337825)
(0.025535 0.0657719 0.0193534)
(0.0336473 0.161876 0.0835852)
(0.0334201 0.221856 0.0932597)
(0.0286074 0.23823 0.0764131)
(0.0239987 0.244173 0.0639689)
(0.0198176 0.250827 0.056819)
(0.0161048 0.260011 0.051778)
(0.0128931 0.27337 0.0471826)
(0.0101024 0.29595 0.0427132)
(0.0075789 0.341895 0.0400604)
(0.00557275 0.429961 0.0439112)
(0.0040643 0.515835 0.050039)
(0.00270577 0.537211 0.0505736)
(0.00178699 0.442296 0.0394173)
(0.00499643 -0.475514 0.00280553)
(0.00904641 -0.63792 0.00847706)
(0.0113862 -0.663426 0.0100913)
(0.0127884 -0.663126 0.0110366)
(0.0141001 -0.652657 0.0117805)
(0.0152147 -0.633677 0.0122729)
(0.015988 -0.60445 0.0118909)
(0.0163252 -0.558586 0.00877957)
(0.0159259 -0.487444 -0.000949368)
(0.0134383 -0.396944 -0.0185261)
(0.00768179 -0.314586 -0.0348132)
(0.000514421 -0.255092 -0.0411841)
(-0.00491226 -0.205531 -0.040927)
(-0.00670412 -0.154732 -0.0417746)
(-0.00556487 -0.107552 -0.0461172)
(-0.00327775 -0.0705452 -0.0513925)
(-0.000781944 -0.0435526 -0.0554816)
(0.00149493 -0.0237803 -0.0578339)
(0.00329277 -0.00901826 -0.0584274)
(0.00452185 0.00250317 -0.0571022)
(0.00527289 0.0143566 -0.0521355)
(0.00613803 0.0377463 -0.0334886)
(0.0117693 0.104271 0.026001)
(0.0184578 0.192087 0.0847014)
(0.0189258 0.243088 0.0940231)
(0.0159325 0.258539 0.0779659)
(0.012624 0.264777 0.0632642)
(0.00941089 0.272796 0.0535848)
(0.0066086 0.286718 0.0468788)
(0.00460702 0.313579 0.0411823)
(0.00385203 0.367573 0.0364686)
(0.00378008 0.45509 0.0375184)
(0.00355752 0.529221 0.0429101)
(0.00298046 0.545202 0.0438796)
(0.00212296 0.444857 0.0333494)
(-5.77444e-05 -0.489848 0.00971149)
(-0.00414279 -0.635078 0.00603585)
(-0.00695011 -0.654432 0.00519819)
(-0.00961505 -0.652758 0.00614115)
(-0.0121877 -0.641514 0.00852351)
(-0.0143677 -0.621202 0.012245)
(-0.0163304 -0.589597 0.0167809)
(-0.0180732 -0.542167 0.0203801)
(-0.0188438 -0.475685 0.0187448)
(-0.0177441 -0.394086 0.00707863)
(-0.0155799 -0.311723 -0.0121103)
(-0.0137693 -0.245791 -0.0293844)
(-0.0123067 -0.199678 -0.0401483)
(-0.0105079 -0.16568 -0.0460405)
(-0.0077785 -0.136766 -0.0497716)
(-0.00397461 -0.110031 -0.052917)
(0.000529961 -0.0850818 -0.055931)
(0.00522147 -0.0619957 -0.0587026)
(0.00965422 -0.0407109 -0.0608985)
(0.013435 -0.0211807 -0.0620116)
(0.0164183 -0.00279046 -0.0612723)
(0.0188275 0.018269 -0.0565605)
(0.0213586 0.0542693 -0.0371359)
(0.0267019 0.122884 0.0132666)
(0.0314166 0.193292 0.0577197)
(0.0312602 0.236051 0.0717012)
(0.0277464 0.2578 0.0678675)
(0.0235632 0.271158 0.0595341)
(0.0198159 0.282896 0.051834)
(0.0170946 0.298348 0.0453965)
(0.0161349 0.334775 0.0393501)
(0.0162134 0.422885 0.036062)
(0.0133786 0.520315 0.038513)
(0.00949719 0.549689 0.0390129)
(0.0051432 0.462665 0.0296057)
(-0.00349172 -0.461636 0.00278885)
(-0.00950728 -0.607862 -0.0094789)
(-0.0133916 -0.63048 -0.0122883)
(-0.0165104 -0.631952 -0.0120826)
(-0.019378 -0.624115 -0.00978251)
(-0.0214494 -0.607792 -0.00531779)
(-0.0224804 -0.58136 0.00146081)
(-0.0218771 -0.541007 0.0101816)
(-0.0186973 -0.483484 0.0184412)
(-0.0126373 -0.411654 0.0214315)
(-0.00466967 -0.335774 0.0156746)
(0.00339624 -0.267742 0.00344504)
(0.0100606 -0.214132 -0.00989049)
(0.0150204 -0.174613 -0.0210254)
(0.0188436 -0.145396 -0.0293871)
(0.0222598 -0.122517 -0.0356621)
(0.0258087 -0.102915 -0.0407166)
(0.0297686 -0.0843639 -0.0452111)
(0.0341413 -0.0652554 -0.0495115)
(0.0385648 -0.0447214 -0.0536048)
(0.0423275 -0.0228807 -0.0569989)
(0.0449994 0.000333273 -0.0586705)
(0.0459064 0.0290707 -0.0554669)
(0.0453737 0.0785409 -0.0310628)
(0.0451525 0.152401 0.0165837)
(0.0440513 0.215543 0.0499452)
(0.0428187 0.250951 0.0570294)
(0.041718 0.27073 0.0519646)
(0.0397408 0.285159 0.0442892)
(0.0357127 0.300812 0.0367757)
(0.0280334 0.340543 0.030266)
(0.01817 0.445943 0.0274781)
(0.0100907 0.559772 0.0293664)
(0.00466579 0.592257 0.0276716)
(0.000643296 0.506767 0.0181951)
(-0.00271892 -0.429328 -0.00548408)
(-0.00578233 -0.591356 -0.0216202)
(-0.00771842 -0.619916 -0.0264455)
(-0.00886367 -0.625118 -0.0280289)
(-0.00972212 -0.62165 -0.0278709)
(-0.0100476 -0.61197 -0.0258087)
(-0.00963924 -0.597228 -0.0212557)
(-0.00823044 -0.577165 -0.0133236)
(-0.0053552 -0.547942 -0.00100009)
(-0.000282147 -0.501517 0.0149756)
(0.00729966 -0.433758 0.0290328)
(0.0162211 -0.354537 0.0342085)
(0.0243451 -0.280386 0.029414)
(0.0301894 -0.221789 0.0189839)
(0.0336549 -0.180003 0.00781283)
(0.0356104 -0.150992 -0.00159977)
(0.036982 -0.129902 -0.00901737)
(0.0382913 -0.112678 -0.0151896)
(0.0396339 -0.0955001 -0.0209923)
(0.0406463 -0.0738199 -0.0270393)
(0.0402888 -0.0428553 -0.0327333)
(0.0370802 0.00162504 -0.033198)
(0.0311782 0.061832 -0.0188639)
(0.0238374 0.131267 0.0139654)
(0.0181095 0.187539 0.043884)
(0.015482 0.217593 0.0510046)
(0.0160023 0.236438 0.0456337)
(0.0179081 0.260071 0.0369675)
(0.0192492 0.300375 0.0262108)
(0.017373 0.366984 0.0136905)
(0.00734706 0.452705 0.00424456)
(-0.00570922 0.547198 0.00447373)
(-0.0111473 0.615169 0.00679973)
(-0.0112266 0.620856 0.00458485)
(-0.0062965 0.490085 -0.0023325)
(-0.000695849 -0.431481 -0.0141117)
(-0.00132525 -0.594607 -0.0349765)
(-0.00207213 -0.626082 -0.0417965)
(-0.00249806 -0.632288 -0.0447804)
(-0.00283665 -0.62883 -0.0462761)
(-0.00305659 -0.618079 -0.0465943)
(-0.0032169 -0.600843 -0.0455032)
(-0.00341927 -0.577788 -0.0423656)
(-0.00364747 -0.549449 -0.0359384)
(-0.00351527 -0.514442 -0.0241409)
(-0.00193278 -0.466916 -0.00547815)
(0.00234503 -0.40053 0.0162994)
(0.00889156 -0.31996 0.0325928)
(0.0153256 -0.241086 0.0380373)
(0.0191139 -0.17917 0.0345066)
(0.0195647 -0.138518 0.0276166)
(0.0178251 -0.112815 0.0211802)
(0.0149611 -0.0929912 0.0159314)
(0.0111771 -0.0698494 0.0114763)
(0.00663793 -0.0322135 0.00766402)
(0.00129771 0.0206749 0.00548083)
(-0.00531487 0.0772216 0.00953564)
(-0.0118265 0.132801 0.023794)
(-0.0171537 0.181448 0.0440317)
(-0.0209757 0.210611 0.0544403)
(-0.0238373 0.222295 0.0517869)
(-0.0259835 0.231758 0.0468111)
(-0.0272566 0.252715 0.0417479)
(-0.0265714 0.304657 0.0335392)
(-0.0222578 0.406317 0.0194204)
(-0.0174116 0.537235 0.00186676)
(-0.0165336 0.61649 -0.00670364)
(-0.0141763 0.63368 -0.0074755)
(-0.00986119 0.607546 -0.00917868)
(-0.00233338 0.427648 -0.00897802)
(0.000657058 -0.424163 -0.0246791)
(0.00126499 -0.587977 -0.047542)
(0.00125131 -0.620497 -0.0547718)
(0.00114108 -0.626897 -0.057913)
(0.000960872 -0.623497 -0.05966)
(0.000756519 -0.612793 -0.0605458)
(0.000617235 -0.59547 -0.0606696)
(0.000581973 -0.571852 -0.0598775)
(0.000556414 -0.542911 -0.0577299)
(0.000333574 -0.510717 -0.0532821)
(-0.000123327 -0.476465 -0.044522)
(-0.000261195 -0.436273 -0.0282762)
(0.00134955 -0.380595 -0.00408152)
(0.00557588 -0.30548 0.0208324)
(0.0107178 -0.22229 0.0371027)
(0.0134844 -0.150855 0.0419025)
(0.0122756 -0.102171 0.0397925)
(0.00815426 -0.0709604 0.0362396)
(0.00231197 -0.0454608 0.0336665)
(-0.00345541 -0.0127367 0.0327887)
(-0.00685502 0.0375286 0.0333556)
(-0.00947807 0.0901176 0.0344693)
(-0.012371 0.133099 0.0389017)
(-0.0142057 0.170369 0.0462666)
(-0.0150328 0.198087 0.0501887)
(-0.0160693 0.216711 0.0487787)
(-0.0180724 0.231039 0.0460623)
(-0.020767 0.24427 0.044432)
(-0.0225903 0.262537 0.044053)
(-0.0199817 0.30759 0.0420077)
(-0.008325 0.407067 0.0329174)
(0.00416784 0.534417 0.0150098)
(0.0096925 0.582788 0.00397049)
(0.0101531 0.576861 0.00160065)
(0.00718281 0.42365 0.00623568)
(0.00230705 -0.446015 -0.0327012)
(0.00457872 -0.599092 -0.0536839)
(0.00574436 -0.628612 -0.0602744)
(0.0063487 -0.634068 -0.0633158)
(0.00672412 -0.63036 -0.0651643)
(0.00686379 -0.619953 -0.0662354)
(0.00685508 -0.603642 -0.0666377)
(0.00683881 -0.58118 -0.0663642)
(0.00695955 -0.551182 -0.0653172)
(0.00723189 -0.512427 -0.0633177)
(0.00736584 -0.467435 -0.0600295)
(0.00702259 -0.422782 -0.0544173)
(0.00640081 -0.38113 -0.0439012)
(0.00670082 -0.334829 -0.025092)
(0.00975716 -0.271129 0.000773311)
(0.015237 -0.190023 0.0241075)
(0.0196126 -0.11156 0.0364072)
(0.0203517 -0.0553069 0.0389388)
(0.018503 -0.02146 0.0379009)
(0.0159573 0.00149686 0.0370205)
(0.0138566 0.0279569 0.0382268)
(0.0144339 0.0740482 0.0429326)
(0.01667 0.119679 0.0459847)
(0.0186908 0.149498 0.0466834)
(0.0209785 0.170586 0.0466434)
(0.0240169 0.189546 0.0450588)
(0.0273156 0.209397 0.0421783)
(0.0294935 0.229531 0.0400674)
(0.0293013 0.249511 0.0395905)
(0.0277012 0.266899 0.0383464)
(0.0254003 0.306378 0.0376279)
(0.0269115 0.447044 0.0363375)
(0.0244911 0.577136 0.030458)
(0.0173031 0.611163 0.0294067)
(0.00849626 0.502033 0.0280532)
(0.00270497 -0.453058 -0.0394723)
(0.00546545 -0.594838 -0.057164)
(0.00761902 -0.620708 -0.0624795)
(0.00907553 -0.624373 -0.0653175)
(0.0102196 -0.619161 -0.0675518)
(0.0109252 -0.607318 -0.0694293)
(0.0111583 -0.589951 -0.0708755)
(0.0109429 -0.56801 -0.0716359)
(0.0104275 -0.542011 -0.0713475)
(0.00992424 -0.510847 -0.0696107)
(0.00978667 -0.471733 -0.0661496)
(0.0100015 -0.42486 -0.0611698)
(0.010057 -0.377792 -0.0550922)
(0.0097706 -0.336855 -0.0470303)
(0.00989606 -0.297353 -0.033679)
(0.0124237 -0.24487 -0.0118158)
(0.0183631 -0.171262 0.0127442)
(0.0243039 -0.0950274 0.0284427)
(0.0269952 -0.0394799 0.0337614)
(0.0273233 -0.00598629 0.0346995)
(0.0271886 0.0160357 0.0353317)
(0.0277289 0.0383271 0.0379504)