/*--------------------------------*- C++ -*----------------------------------*\
| =========                 |                                                 |
| \\      /  F ield         | OpenFOAM: The Open Source CFD Toolbox           |
|  \\    /   O peration     | Version:  v1906                                 |
|   \\  /    A nd           | Web:      www.OpenFOAM.com                      |
|    \\/     M anipulation  |                                                 |
\*---------------------------------------------------------------------------*/
FoamFile
{
    version     2.0;
    format      ascii;
    class       volScalarField;
    location    "51.6/sphere";
    object      T;
}
// * * * * * * * * * * * * * * * * * * * * * * * * * * * * * * * * * * * * * //

dimensions      [0 0 0 1 0 0 0];


internalField   nonuniform List<scalar> 
304
(
471.989
472.017
472.014
472.03
471.989
471.984
471.987
472.016
471.987
472.134
472.134
472.03
472.014
472.131
472.131
472.058
472.024
472.056
471.984
472.015
472.031
471.987
472.018
472.134
472.133
472.06
472.031
472.132
472.131
472.085
471.982
472.056
472.083
472.018
471.988
472.032
472.06
471.993
471.992
472.059
472.084
472.02
471.984
472.018
471.971
471.976
471.989
471.989
471.991
472.023
471.989
471.989
472.023
471.991
471.976
471.99
471.993
471.99
472.024
472.017
472.017
472.032
472.031
472.061
472.06
472.086
471.988
472.032
472.017
472.061
472.031
472.086
472.061
471.99
471.993
472.024
471.991
471.986
471.986
472.019
471.983
472.03
471.979
472.012
472.057
472.084
472.023
472.055
472.016
472.013
471.982
472.084
472.059
472.057
472.025
472.021
471.988
471.984
471.969
471.982
471.982
472.017
471.983
472.017
471.984
471.982
471.969
471.99
471.987
471.988
472.022
472.016
472.03
472.061
472.015
472.032
472.06
472.086
471.988
472.061
472.03
472.032
472.016
472.086
472.06
471.99
471.988
472.022
471.989
472.031
472.017
472.06
472.017
472.06
472.032
472.086
471.987
472.06
472.018
472.06
472.017
472.086
472.032
472.057
471.981
472.024
472.031
472.084
472.012
472.056
472.015
472.025
471.982
472.085
472.031
472.057
472.013
471.985
471.982
472.018
471.983
472.056
471.983
472.013
472.056
472.083
472.012
472.029
472.024
472.013
471.982
472.083
472.056
472.029
472.013
472.017
471.982
471.982
471.986
471.989
472.023
471.993
472.031
472.06
472.086
471.986
472.015
472.031
472.06
472.015
472.086
472.059
472.016
471.984
472.059
472.027
472.022
471.988
471.988
472.061
472.033
472.086
471.991
472.033
472.019
472.062
472.017
472.086
472.032
472.03
471.989
472.06
472.017
472.085
472.013
472.056
472.017
472.06
471.983
472.026
472.031
472.057
472.013
472.058
472.015
472.025
471.982
472.017
471.983
471.985
472.083
472.013
472.029
472.025
472.056
471.983
472.013
472.057
472.03
472.014
472.057
472.026
472.014
471.986
471.983
471.983
471.986
471.979
471.986
471.991
472.022
471.987
472.022
471.989
471.987
471.975
471.995
471.991
472.026
471.992
472.061
472.061
472.086
471.991
472.017
472.018
472.032
472.03
472.086
472.06
472.016
471.987
472.032
472.017
472.024
471.99
471.989
472.023
471.986
471.988
472.085
472.025
472.056
472.015
472.031
471.981
472.013
472.058
472.057
472.025
472.031
472.014
472.013
471.982
471.986
471.984
471.985
471.972
472.018
471.984
471.983
471.985
471.984
471.983
)
;

boundaryField
{
    sphere_to_oil
    {
        type            compressible::turbulentTemperatureCoupledBaffleMixed;
        refValue        nonuniform List<scalar> 
360
(
338.329
338.329
321.541
361.232
369.738
323.59
370.833
370.833
370.833
346.794
346.794
326.271
329.903
318.748
345.202
359.087
355.483
355.483
355.483
320.963
354.153
331.227
333.76
363.9
316.587
364.237
321.633
364.089
364.089
364.089
371.563
363.138
321.536
321.189
326.042
326.185
356.466
356.466
356.466
355.727
362.822
327.205
326.338
338.674
338.674
321.476
328.458
313.979
337.088
364.613
323.56
323.621
329.396
329.838
320.77
331.087
356.249
321.078
326.431
331.361
319.243
365.372
365.372
365.372
314.012
363.879
337.006
325.822
369.378
369.378
369.378
370.259
368.741
317.964
354.021
344.498
319.706
332.728
362.801
356.576
334.642
325.627
334.184
319.129
321.498
323.289
326.377
329.713
319.307
321.168
321.616
329.086
326.073
321.854
328.841
326.12
326.458
326.48
322.673
316.301
316.391
320.355
323.564
326.095
329.071
320.199
318.701
329.879
322.514
326.523
326.488
326.373
322.669
320.902
314.257
314.212
330.327
325.875
331.668
338.063
338.063
361.232
361.232
363.9
363.9
361.974
361.974
361.974
363.331
363.331
363.331
330.909
326.085
330.301
321.292
369.738
369.738
343.067
343.067
371.563
371.563
341.837
341.837
370.759
370.759
370.759
321.059
320.282
359.567
359.567
359.567
359.421
359.421
359.421
359.087
354.153
345.202
359.087
358.401
320.123
358.401
358.401
333.797
334.511
325.746
331.2
331.2
364.304
364.304
364.304
319.353
354.153
331.227
363.289
363.289
319.206
363.289
334.412
325.637
314.054
321.605
321.908
328.955
316.48
328.492
321.875
314.089
316.278
364.237
364.237
363.138
363.138
338.92
338.92
361.292
361.292
361.292
336.965
336.965
316.16
325.697
323.8
329.262
325.852
323.343
329.184
322.43
329.951
326.542
322.394
355.727
329.892
326.738
321.057
363.72
363.72
363.72
332.01
332.01
319.204
326.52
326.417
331.246
362.822
327.113
331.11
326.626
355.727
362.822
331.863
321.044
331.863
319.578
314.209
328.389
316.547
321.792
321.672
321.932
316.356
315.947
365.314
360.122
365.314
365.314
360.122
360.122
364.613
363.879
337.088
362.699
316.236
364.613
362.699
362.699
328.629
321.136
325.932
329.015
321.829
370.259
325.901
326.357
326.44
322.637
356.249
354.021
326.559
326.315
322.59
355.75
358.518
331.087
363.233
319.398
356.249
363.233
363.233
331.741
327.104
362.801
326.494
326.395
326.272
363.17
326.836
362.885
331.768
355.75
331.768
363.17
355.75
363.17
313.945
325.922
329.763
330.006
337.573
361.349
337.573
361.349
361.349
316.176
363.879
362.432
337.006
362.432
316.153
362.432
331.046
330.633
319.743
368.322
342.517
368.322
368.322
342.517
320.19
323.304
325.822
329.021
368.741
370.259
342.094
320.955
368.741
342.094
320.255
354.021
359.311
344.498
359.311
318.974
359.311
330.002
356.576
322.722
326.703
358.347
356.175
358.518
344.215
358.518
358.347
344.215
358.347
325.231
334.017
362.801
331.209
319.228
356.576
331.209
321.265
362.885
356.175
362.885
331.706
356.175
331.706
)
;
        refGradient     uniform 0;
        valueFraction   nonuniform List<scalar> 
360
(
0.0001352
0.000129706
8.30389e-05
0.000296648
0.000304239
0.000174456
0.00030613
0.000262772
0.000409015
0.000130228
0.00012697
0.000170335
0.000259596
7.42242e-05
0.000132776
0.000258104
0.000295781
0.000276365
0.000387802
6.79195e-05
0.000254626
0.000125176
0.000115369
0.000306149
8.88868e-05
0.000314685
0.000177383
0.000310622
0.000406508
0.000271927
0.000310672
0.000313348
8.41407e-05
8.32007e-05
0.000174601
0.000171824
0.000290748
0.000394166
0.000270668
0.000406973
0.000402003
8.58389e-05
0.000170262
0.000124264
0.000124115
0.000175271
0.000262223
6.99601e-05
0.000125181
0.000265442
0.000172903
0.000174026
0.000259403
0.000256882
7.25757e-05
0.000132768
0.000270749
6.95256e-05
0.000172237
0.000256842
6.80531e-05
0.000302366
0.000266917
0.000417753
7.01601e-05
0.000272912
0.000127302
0.000123127
0.000309352
0.000403561
0.000271464
0.000389161
0.000394609
7.53659e-05
0.000263112
0.000133477
6.94852e-05
0.000124598
0.000393778
0.000409065
0.000122207
0.000119902
0.000117768
6.99916e-05
8.4402e-05
0.000171115
0.000172073
0.000260587
7.86609e-05
6.64179e-05
8.35307e-05
0.000260162
0.000171747
8.53273e-05
0.000259732
0.000173709
0.000172681
0.000172947
8.43369e-05
6.76006e-05
6.85489e-05
6.76364e-05
0.00017388
0.0001709
0.000259965
7.65373e-05
6.64808e-05
0.000259777
8.25267e-05
0.00017117
0.000171202
0.000174695
8.54238e-05
6.84035e-05
6.67109e-05
6.79997e-05
0.000118363
0.000118505
0.000123109
0.000133494
0.000125466
0.000259243
0.00040839
0.000273131
0.000412146
0.000264186
0.000406166
0.000302415
0.0002644
0.000397326
0.00029783
0.000121481
0.000114883
0.00011767
6.49578e-05
0.0002694
0.000405613
0.000125496
0.000126069
0.000409908
0.000272541
0.000131556
0.000138653
0.000404863
0.000278125
0.000320482
7.149e-05
6.65293e-05
0.000280807
0.000389129
0.000308443
0.000289126
0.000402601
0.000308411
0.000318425
0.000293309
0.000137201
0.000408955
0.00026416
7.36484e-05
0.000397477
0.000297444
0.000113512
0.00011959
0.000118309
0.000124809
0.000130466
0.000406909
0.000267927
0.00031449
7.54055e-05
0.000391431
0.00013422
0.000411598
0.000263491
7.36548e-05
0.000312422
0.000114519
0.000115582
6.75299e-05
0.000177004
0.000176934
0.000261625
8.72442e-05
0.00026202
0.000172406
6.68365e-05
6.49004e-05
0.000409436
0.000260152
0.00040463
0.000269771
0.000128681
0.000120341
0.000406517
0.000254069
0.000293679
0.000118952
0.000138021
6.94373e-05
0.000173892
0.000173735
0.000259574
0.000169961
0.000170836
0.000258552
8.86196e-05
0.000259438
0.00017591
8.61801e-05
0.000292015
0.000259151
0.000174856
6.96851e-05
0.000397638
0.000257782
0.000301606
0.000125653
0.00011677
6.74495e-05
0.000172541
0.000175443
0.000260127
0.000295752
8.27162e-05
0.000257659
0.000168278
0.000255956
0.000270966
0.000123001
6.90876e-05
0.000136489
6.99418e-05
6.58366e-05
0.000263031
8.7779e-05
0.000176832
0.000174787
0.000172704
8.66756e-05
6.62082e-05
0.000268936
0.000251999
0.000423049
0.000314897
0.000394681
0.000283578
0.000303946
0.000311198
0.000138327
0.000266969
7.19277e-05
0.000406259
0.000395027
0.000300137
0.00026178
8.34128e-05
0.000170335
0.000258771
8.41599e-05
0.000308342
0.000171072
0.000172296
0.000170708
8.36506e-05
0.000306045
0.000286791
0.000174165
0.000169662
8.52613e-05
0.000287355
0.000316302
0.000125441
0.000283937
6.74344e-05
0.000404524
0.000392187
0.00029634
0.000256851
8.43777e-05
0.000296806
0.000170905
0.000171168
0.000172143
0.000298422
8.51683e-05
0.0003049
0.000128296
0.000262881
0.000129366
0.000267884
0.000408235
0.00040077
6.74023e-05
0.000135068
0.000133472
0.000130548
0.000118888
0.000397753
0.000129848
0.000264431
0.00031138
6.642e-05
0.000401636
0.000401151
0.000131322
0.000285228
6.96055e-05
0.000305786
0.000116425
0.000114375
6.95479e-05
0.000393381
0.000117567
0.000257985
0.000303839
0.000126043
6.8711e-05
0.00017097
0.000170912
0.000257901
0.000295101
0.000255959
0.000123752
6.66135e-05
0.000260247
0.000137446
7.69339e-05
0.000377139
0.000404971
0.000119687
0.000257249
7.1322e-05
0.00032353
0.000259878
0.000311367
8.51779e-05
0.000171706
0.000300197
0.000291035
0.0002738
0.000122381
0.000401075
0.000400212
0.000145276
0.000267518
0.000117702
0.000119508
0.00026932
0.000133319
7.20821e-05
0.000272382
0.000128375
6.6567e-05
0.000396433
0.000401193
0.000263972
0.000128106
0.000259294
0.000132331
)
;
        value           nonuniform List<scalar> 
360
(
471.99
471.991
471.996
471.975
471.977
472.01
471.977
471.983
471.971
471.989
471.989
472.008
472.013
471.997
471.991
471.979
471.964
471.969
471.956
471.993
471.973
471.986
471.972
471.973
471.992
471.972
472.009
471.973
471.966
471.978
471.975
471.972
471.994
471.994
472.007
472.01
471.966
471.958
471.97
471.956
471.959
471.99
472.007
471.989
471.992
472.008
472.013
471.995
471.989
471.978
472.011
472.01
472.014
472.014
471.99
471.982
471.97
471.992
472.007
472.013
471.992
471.973
471.977
471.966
471.996
471.978
471.99
471.976
471.978
471.973
471.983
471.973
471.972
472
471.98
471.994
471.995
471.974
471.961
471.957
471.974
471.973
471.975
471.993
471.998
472.01
472.01
472.013
471.993
471.992
471.995
472.014
472.012
471.993
472.014
472.011
472.009
472.007
471.989
471.998
471.998
471.999
472.011
472.012
472.014
471.998
471.995
472.012
471.986
472.006
472.01
472.007
471.989
471.991
471.998
471.997
471.979
471.978
471.978
471.99
471.991
471.98
471.965
471.979
471.965
471.979
471.965
471.974
471.979
471.967
471.975
471.978
471.979
471.979
472
471.982
471.971
471.993
471.994
471.971
471.982
471.992
471.992
471.971
471.982
471.974
471.999
471.995
471.973
471.958
471.964
471.972
471.957
471.965
471.966
471.967
471.99
471.957
471.977
471.996
471.958
471.968
471.973
471.972
471.971
471.984
471.984
471.958
471.973
471.968
471.99
471.957
471.983
471.958
471.973
471.99
471.968
471.972
471.971
471.995
472.009
472.008
472.014
471.993
472.014
472.01
471.997
471.997
471.965
471.978
471.965
471.978
471.989
471.991
471.965
471.98
471.974
471.991
471.99
471.997
472.011
472.01
472.014
472.012
472.011
472.015
471.987
472.013
472.006
471.989
471.968
472.013
472.007
471.991
471.961
471.974
471.969
471.984
471.986
471.992
472.007
472.006
472.012
471.969
471.99
472.012
472.008
471.972
471.972
471.984
471.991
471.982
471.991
471.995
472.013
471.992
472.008
472.008
472.009
471.99
471.998
471.977
471.98
471.967
471.972
471.968
471.978
471.971
471.97
471.988
471.978
471.996
471.964
471.965
471.975
472.014
471.998
472.013
472.015
471.996
471.977
472.012
472.007
472.012
471.99
471.967
471.969
472.007
472.01
471.989
471.968
471.966
471.984
471.971
471.992
471.957
471.961
471.97
472.013
471.99
471.97
472.008
472.008
472.008
471.973
471.993
471.972
471.985
471.972
471.984
471.973
471.957
471.961
471.995
471.979
471.98
471.98
471.99
471.967
471.989
471.978
471.976
471.997
471.965
471.964
471.989
471.975
471.996
471.973
471.978
471.978
472
471.974
471.996
471.984
471.979
471.995
472.001
472.011
472.013
472.015
471.976
471.984
471.994
472
471.981
471.99
471.996
471.961
471.96
471.992
471.978
471.996
471.964
472.013
471.965
471.988
472.007
471.967
471.968
471.975
471.99
471.958
471.958
471.986
471.974
471.974
471.974
471.974
471.984
471.992
471.971
471.984
471.992
471.962
471.958
471.974
471.985
471.972
471.984
)
;
        Tnbr            T;
        thicknessLayers 0();
        kappaLayers     0();
        kappaMethod     solidThermo;
        kappa           none;
        alphaAni        none;
    }
}


// ************************************************************************* //
