/*--------------------------------*- C++ -*----------------------------------*\
| =========                 |                                                 |
| \\      /  F ield         | OpenFOAM: The Open Source CFD Toolbox           |
|  \\    /   O peration     | Version:  v1906                                 |
|   \\  /    A nd           | Web:      www.OpenFOAM.com                      |
|    \\/     M anipulation  |                                                 |
\*---------------------------------------------------------------------------*/
FoamFile
{
    version     2.0;
    format      ascii;
    class       volScalarField;
    location    "0.78/oil";
    object      alphat;
}
// * * * * * * * * * * * * * * * * * * * * * * * * * * * * * * * * * * * * * //

dimensions      [1 -1 -1 0 0 0 0];


internalField   nonuniform List<scalar> 
168664
(
0.00160152
0.00023053
0.000204362
5.52703e-05
5.12327e-05
2.3777e-05
1.73677e-05
1.31613e-05
9.36467e-06
1.06563e-05
1.02086e-05
1.24977e-05
1.18416e-05
1.24468e-05
1.14418e-05
1.15446e-05
1.06126e-05
9.8752e-06
8.95299e-06
8.14228e-06
7.53278e-06
7.64117e-06
7.4106e-06
6.88602e-06
5.93285e-06
4.751e-06
3.61841e-06
2.67043e-06
1.91798e-06
6.82336e-07
0.000230388
0.000240081
6.17377e-05
4.59625e-05
2.12522e-05
1.52006e-05
1.10483e-05
9.30462e-06
8.37916e-06
9.04747e-06
9.70229e-06
1.07709e-05
1.05617e-05
1.10207e-05
1.04977e-05
1.05952e-05
9.81961e-06
9.29701e-06
8.49924e-06
8.00761e-06
7.59717e-06
7.63139e-06
7.34205e-06
6.85595e-06
6.28107e-06
5.48626e-06
4.74459e-06
3.79846e-06
3.84457e-06
2.36725e-06
0.000201699
6.2476e-05
6.08917e-05
3.58784e-05
2.82847e-05
1.87634e-05
1.53184e-05
1.17199e-05
1.08647e-05
1.01546e-05
1.05566e-05
1.0542e-05
1.01659e-05
1.05713e-05
1.01207e-05
1.01329e-05
9.44799e-06
9.03388e-06
8.28944e-06
7.9357e-06
7.73631e-06
7.85258e-06
7.70635e-06
7.36027e-06
6.86721e-06
6.2543e-06
5.70626e-06
5.28499e-06
6.1072e-06
5.02228e-06
6.02516e-05
4.86513e-05
3.83482e-05
2.79693e-05
2.11425e-05
1.52731e-05
1.38282e-05
1.12018e-05
1.12329e-05
1.03543e-05
1.07083e-05
1.02009e-05
1.02392e-05
1.06018e-05
1.02329e-05
1.00576e-05
9.47573e-06
9.07517e-06
8.4749e-06
8.17891e-06
7.96113e-06
8.08575e-06
8.17541e-06
7.9926e-06
7.47253e-06
6.85969e-06
6.44226e-06
6.71127e-06
7.77818e-06
7.22574e-06
5.4355e-05
2.62887e-05
3.06766e-05
2.17473e-05
2.11982e-05
1.67884e-05
1.557e-05
1.33741e-05
1.28459e-05
1.18551e-05
1.16678e-05
1.09272e-05
1.0808e-05
1.09901e-05
1.048e-05
1.00999e-05
9.50434e-06
9.15307e-06
8.78597e-06
8.85301e-06
8.61086e-06
8.73693e-06
8.78577e-06
8.75111e-06
8.32078e-06
7.88663e-06
7.66079e-06
8.25769e-06
9.47399e-06
9.47706e-06
3.5471e-05
2.46713e-05
2.61545e-05
1.97504e-05
1.98734e-05
1.5306e-05
1.52183e-05
1.27197e-05
1.2829e-05
1.17613e-05
1.18765e-05
1.09386e-05
1.07559e-05
1.09934e-05
1.0658e-05
1.00005e-05
9.47379e-06
9.00256e-06
8.9905e-06
9.28038e-06
9.09545e-06
9.06673e-06
9.02812e-06
9.0476e-06
8.75078e-06
8.67044e-06
8.69595e-06
9.53932e-06
1.07811e-05
1.12945e-05
2.85548e-05
2.10345e-05
2.16122e-05
1.77689e-05
1.80348e-05
1.53065e-05
1.50763e-05
1.33263e-05
1.30757e-05
1.22777e-05
1.21952e-05
1.14315e-05
1.12897e-05
1.18427e-05
1.13708e-05
1.04017e-05
9.61539e-06
9.05975e-06
8.99232e-06
9.31819e-06
9.12306e-06
9.20601e-06
9.23325e-06
9.4443e-06
9.42844e-06
9.72884e-06
1.00768e-05
1.10812e-05
1.23442e-05
1.33615e-05
2.91936e-05
2.25453e-05
2.26874e-05
1.8803e-05
1.87973e-05
1.55598e-05
1.53752e-05
1.30276e-05
1.28522e-05
1.16759e-05
1.19059e-05
1.13655e-05
1.18851e-05
1.26624e-05
1.23655e-05
1.10598e-05
1.03227e-05
9.51148e-06
9.31094e-06
9.20467e-06
8.95871e-06
9.04804e-06
9.20901e-06
9.64902e-06
1.00194e-05
1.07195e-05
1.13466e-05
1.24236e-05
1.36152e-05
1.50282e-05
2.49193e-05
2.04758e-05
2.01161e-05
1.78021e-05
1.73972e-05
1.5174e-05
1.4659e-05
1.28084e-05
1.23425e-05
1.13576e-05
1.16711e-05
1.18834e-05
1.26525e-05
1.3437e-05
1.29853e-05
1.16818e-05
1.0682e-05
9.78187e-06
9.35931e-06
9.10771e-06
8.79872e-06
9.14139e-06
9.4898e-06
1.02734e-05
1.09728e-05
1.19318e-05
1.27977e-05
1.38723e-05
1.48976e-05
1.66396e-05
2.72158e-05
2.22361e-05
2.18977e-05
1.94527e-05
1.87521e-05
1.60738e-05
1.52746e-05
1.29973e-05
1.23436e-05
1.10613e-05
1.1588e-05
1.18833e-05
1.26101e-05
1.27576e-05
1.25463e-05
1.15908e-05
1.05942e-05
9.71914e-06
9.41519e-06
9.07972e-06
8.8537e-06
9.32062e-06
9.84875e-06
1.07698e-05
1.15303e-05
1.26796e-05
1.37552e-05
1.47773e-05
1.56987e-05
1.77026e-05
2.52799e-05
2.114e-05
2.05184e-05
1.88017e-05
1.79522e-05
1.60389e-05
1.51834e-05
1.32172e-05
1.24185e-05
1.13824e-05
1.17887e-05
1.19652e-05
1.17391e-05
1.10424e-05
1.04758e-05
9.92487e-06
9.24555e-06
8.95916e-06
8.9689e-06
9.12946e-06
9.21079e-06
1.002e-05
1.07231e-05
1.18266e-05
1.26083e-05
1.38828e-05
1.50057e-05
1.58588e-05
1.66638e-05
1.88647e-05
2.73184e-05
2.26263e-05
2.18961e-05
2.01404e-05
1.94682e-05
1.77397e-05
1.70032e-05
1.47514e-05
1.35143e-05
1.17499e-05
1.13442e-05
1.06152e-05
9.59231e-06
8.29923e-06
7.70457e-06
7.21058e-06
7.00812e-06
7.54306e-06
8.16188e-06
8.91314e-06
9.56794e-06
1.07465e-05
1.16712e-05
1.30338e-05
1.39025e-05
1.51311e-05
1.6025e-05
1.66627e-05
1.73646e-05
1.9745e-05
2.58509e-05
2.19506e-05
2.14e-05
2.03396e-05
1.97446e-05
1.84355e-05
1.77171e-05
1.56403e-05
1.41622e-05
1.16585e-05
1.02384e-05
8.64724e-06
7.08905e-06
6.04877e-06
5.22403e-06
4.79099e-06
4.87179e-06
5.73867e-06
6.70553e-06
8.1096e-06
9.49889e-06
1.15511e-05
1.27883e-05
1.42095e-05
1.50668e-05
1.62254e-05
1.69431e-05
1.75711e-05
1.83528e-05
2.11256e-05
2.60993e-05
2.2057e-05
2.16586e-05
2.07819e-05
2.0241e-05
1.88694e-05
1.81997e-05
1.64312e-05
1.51633e-05
1.19129e-05
9.39728e-06
6.65697e-06
4.90896e-06
3.64626e-06
3.28067e-06
2.93659e-06
3.45601e-06
4.78562e-06
5.69148e-06
7.64834e-06
9.51758e-06
1.22069e-05
1.37015e-05
1.51404e-05
1.58109e-05
1.69121e-05
1.76174e-05
1.83453e-05
1.92148e-05
2.24199e-05
2.49796e-05
2.12491e-05
2.07861e-05
2.0055e-05
1.95445e-05
1.84192e-05
1.77466e-05
1.63038e-05
1.528e-05
1.24072e-05
9.98178e-06
7.6296e-06
6.1683e-06
4.47518e-06
3.32681e-06
3.37495e-06
4.43409e-06
5.75281e-06
6.50784e-06
8.32051e-06
1.00286e-05
1.27816e-05
1.44927e-05
1.60542e-05
1.67389e-05
1.77897e-05
1.85069e-05
1.92637e-05
2.00918e-05
2.36064e-05
2.52603e-05
2.13474e-05
2.08064e-05
2.00499e-05
1.95858e-05
1.8484e-05
1.77982e-05
1.61914e-05
1.49252e-05
1.23015e-05
1.02634e-05
8.16668e-06
6.85112e-06
4.87031e-06
2.97733e-06
3.48073e-06
4.80116e-06
6.36911e-06
6.96331e-06
8.7269e-06
1.03002e-05
1.30752e-05
1.4606e-05
1.61768e-05
1.68052e-05
1.79054e-05
1.85969e-05
1.93956e-05
2.00724e-05
2.34871e-05
2.35669e-05
2.01527e-05
1.95603e-05
1.89182e-05
1.84461e-05
1.74599e-05
1.68317e-05
1.54865e-05
1.40919e-05
1.14148e-05
8.91934e-06
6.75907e-06
5.59093e-06
4.08715e-06
3.01337e-06
3.4484e-06
4.54717e-06
6.51303e-06
7.39849e-06
9.19986e-06
1.08965e-05
1.3485e-05
1.48321e-05
1.61775e-05
1.68434e-05
1.79899e-05
1.87581e-05
1.94791e-05
2.00416e-05
2.33227e-05
2.28454e-05
1.96592e-05
1.90363e-05
1.83473e-05
1.78067e-05
1.66805e-05
1.59404e-05
1.45005e-05
1.3335e-05
1.10746e-05
9.26134e-06
7.65098e-06
6.40629e-06
5.50906e-06
5.06481e-06
5.03216e-06
5.14134e-06
7.15991e-06
8.66541e-06
1.05189e-05
1.13497e-05
1.33738e-05
1.43618e-05
1.58359e-05
1.66102e-05
1.77954e-05
1.8601e-05
1.95003e-05
2.0219e-05
2.35267e-05
2.14442e-05
1.87367e-05
1.80329e-05
1.72778e-05
1.65824e-05
1.54609e-05
1.46182e-05
1.32535e-05
1.22553e-05
1.09761e-05
1.02064e-05
9.24647e-06
8.13419e-06
7.35242e-06
7.25399e-06
7.03726e-06
6.91673e-06
8.2252e-06
9.61728e-06
1.0884e-05
1.11945e-05
1.22392e-05
1.30028e-05
1.44649e-05
1.52785e-05
1.62824e-05
1.71227e-05
1.8378e-05
1.95207e-05
2.29103e-05
2.04959e-05
1.78394e-05
1.70089e-05
1.60157e-05
1.51485e-05
1.39651e-05
1.32416e-05
1.21116e-05
1.14098e-05
1.05377e-05
1.04114e-05
1.00313e-05
9.50681e-06
9.30974e-06
9.50622e-06
9.37556e-06
9.289e-06
9.87195e-06
1.01441e-05
1.05234e-05
1.0349e-05
1.10894e-05
1.16374e-05
1.29212e-05
1.36533e-05
1.46991e-05
1.55845e-05
1.69226e-05
1.81088e-05
2.12199e-05
1.87872e-05
1.64612e-05
1.573e-05
1.46802e-05
1.37513e-05
1.27755e-05
1.21258e-05
1.12031e-05
1.05834e-05
1.00353e-05
1.0106e-05
1.00062e-05
1.00276e-05
1.04992e-05
1.13335e-05
1.16784e-05
1.1588e-05
1.11863e-05
1.07047e-05
1.03815e-05
9.87948e-06
1.03178e-05
1.07935e-05
1.19369e-05
1.2615e-05
1.36619e-05
1.45092e-05
1.57025e-05
1.67389e-05
1.91614e-05
1.75875e-05
1.56572e-05
1.50119e-05
1.39184e-05
1.30062e-05
1.2149e-05
1.16051e-05
1.08467e-05
1.03678e-05
9.94936e-06
9.76909e-06
9.34616e-06
9.57665e-06
1.04644e-05
1.15456e-05
1.23547e-05
1.22327e-05
1.10367e-05
1.01426e-05
9.94643e-06
9.63018e-06
1.0062e-05
1.03649e-05
1.12413e-05
1.16883e-05
1.25757e-05
1.32558e-05
1.44e-05
1.54576e-05
1.74253e-05
1.58173e-05
1.4325e-05
1.34854e-05
1.24465e-05
1.17975e-05
1.11572e-05
1.07945e-05
1.03347e-05
1.00966e-05
9.92165e-06
9.60642e-06
8.89293e-06
8.91812e-06
9.83226e-06
1.0918e-05
1.17224e-05
1.15416e-05
1.03497e-05
9.71303e-06
9.87864e-06
9.76357e-06
9.97851e-06
1.0005e-05
1.05048e-05
1.06799e-05
1.13291e-05
1.18759e-05
1.29817e-05
1.40584e-05
1.55568e-05
1.41842e-05
1.29847e-05
1.19304e-05
1.10684e-05
1.06817e-05
1.03215e-05
1.02335e-05
1.00699e-05
1.00076e-05
9.83574e-06
9.35389e-06
8.60698e-06
8.35391e-06
8.90324e-06
9.76157e-06
1.03946e-05
1.03153e-05
9.66287e-06
9.37411e-06
9.74294e-06
9.7457e-06
9.94328e-06
9.81414e-06
1.00393e-05
9.96156e-06
1.02725e-05
1.05551e-05
1.15984e-05
1.27076e-05
1.38285e-05
1.18523e-05
1.11772e-05
1.01365e-05
9.54778e-06
9.37167e-06
9.24416e-06
9.40728e-06
9.53589e-06
9.7137e-06
9.55478e-06
8.94596e-06
8.34213e-06
8.34411e-06
8.61408e-06
9.11291e-06
9.4022e-06
9.65538e-06
9.47281e-06
9.21526e-06
9.32668e-06
9.42613e-06
9.67028e-06
9.51058e-06
9.59087e-06
9.32073e-06
9.29323e-06
9.21405e-06
1.01458e-05
1.12753e-05
1.19402e-05
9.88424e-06
9.61031e-06
8.52534e-06
8.15047e-06
8.32023e-06
8.53267e-06
8.80393e-06
9.09821e-06
9.39949e-06
9.37522e-06
8.7826e-06
8.25675e-06
8.43967e-06
8.63794e-06
8.75111e-06
8.72698e-06
9.17099e-06
9.29256e-06
8.90163e-06
8.79301e-06
8.79327e-06
9.10175e-06
9.02153e-06
9.06023e-06
8.70911e-06
8.31392e-06
7.99842e-06
8.73693e-06
9.91117e-06
1.01244e-05
7.62467e-06
7.85467e-06
6.68607e-06
6.55949e-06
7.06623e-06
7.48028e-06
7.89123e-06
8.34426e-06
8.73484e-06
8.9495e-06
8.56549e-06
8.31295e-06
8.62753e-06
8.72032e-06
8.57615e-06
8.30578e-06
8.75733e-06
8.89018e-06
8.68203e-06
8.45508e-06
8.2496e-06
8.28324e-06
8.13054e-06
8.077e-06
7.74426e-06
7.29758e-06
6.82602e-06
7.22023e-06
8.27807e-06
7.96789e-06
5.40312e-06
6.24294e-06
5.18789e-06
5.64681e-06
6.17471e-06
6.75294e-06
7.31846e-06
7.87942e-06
8.37744e-06
8.65062e-06
8.45694e-06
8.39979e-06
8.7135e-06
8.68726e-06
8.53614e-06
8.18874e-06
8.34526e-06
8.51208e-06
8.48243e-06
8.37861e-06
7.93455e-06
7.78836e-06
7.5064e-06
7.41639e-06
7.16429e-06
6.73681e-06
6.14709e-06
5.681e-06
6.53821e-06
5.65356e-06
2.86234e-06
4.21707e-06
4.05239e-06
4.89148e-06
5.47456e-06
6.2856e-06
6.9642e-06
7.70108e-06
8.38375e-06
8.83824e-06
8.95259e-06
8.96198e-06
9.16852e-06
9.17687e-06
9.27675e-06
8.93445e-06
8.92203e-06
8.97991e-06
8.8929e-06
8.53298e-06
7.81438e-06
7.49752e-06
7.14581e-06
6.97356e-06
6.5543e-06
5.82139e-06
5.07281e-06
3.97531e-06
4.10928e-06
2.76167e-06
1.33925e-06
2.57121e-06
3.53264e-06
4.49201e-06
5.39758e-06
6.35816e-06
7.16664e-06
8.0418e-06
8.89359e-06
9.35218e-06
9.56508e-06
9.69574e-06
9.76278e-06
9.97833e-06
9.91506e-06
9.45603e-06
9.49261e-06
9.60067e-06
9.47145e-06
8.72665e-06
7.74104e-06
7.34353e-06
6.86544e-06
6.60096e-06
5.87387e-06
4.82201e-06
3.69881e-06
2.58638e-06
1.89336e-06
8.02285e-07
0.00022946
0.000245079
6.34573e-05
4.72081e-05
2.12706e-05
1.5422e-05
1.06985e-05
9.58788e-06
7.79709e-06
9.18157e-06
8.92133e-06
1.06865e-05
1.00057e-05
1.12533e-05
1.07076e-05
1.0996e-05
1.0269e-05
9.37805e-06
8.98487e-06
8.0035e-06
7.66269e-06
7.06586e-06
7.13096e-06
6.55908e-06
6.26603e-06
5.2472e-06
4.5128e-06
3.41155e-06
2.95529e-06
1.94259e-06
0.000243617
6.55878e-05
4.58949e-05
2.03773e-05
1.08709e-05
7.44653e-06
5.82241e-06
4.21932e-06
4.05438e-06
4.23425e-06
4.92779e-06
4.46128e-06
3.8504e-06
3.74703e-06
3.96956e-06
4.10198e-06
3.85148e-06
3.78711e-06
3.43994e-06
3.32496e-06
3.1122e-06
3.7188e-06
4.15517e-06
4.63383e-06
4.4668e-06
4.0952e-06
3.51623e-06
3.15018e-06
4.28348e-06
3.88285e-06
6.23296e-05
4.64681e-05
2.85982e-05
2.13927e-05
1.26193e-05
1.00337e-05
7.7259e-06
5.70088e-06
5.15346e-06
5.47952e-06
6.46142e-06
6.50001e-06
5.07859e-06
3.89461e-06
3.60108e-06
3.45279e-06
2.81213e-06
2.35869e-06
2.32705e-06
2.99975e-06
3.3287e-06
4.48807e-06
5.22567e-06
5.44138e-06
5.35178e-06
5.16427e-06
4.29332e-06
4.09666e-06
4.83584e-06
6.16452e-06
4.83642e-05
1.72721e-05
1.94584e-05
1.22149e-05
7.08803e-06
6.43875e-06
4.55348e-06
4.69601e-06
4.77502e-06
5.25056e-06
5.93374e-06
6.2442e-06
4.77496e-06
3.48703e-06
3.04276e-06
2.93369e-06
2.81959e-06
2.23988e-06
2.59529e-06
3.77445e-06
4.50922e-06
5.17612e-06
4.8981e-06
4.88082e-06
5.1905e-06
5.32638e-06
4.66906e-06
4.70053e-06
4.57884e-06
7.84026e-06
2.60951e-05
8.07234e-06
1.00664e-05
7.60852e-06
5.3653e-06
5.2764e-06
3.81518e-06
3.90728e-06
3.70052e-06
3.68416e-06
3.82904e-06
4.25174e-06
3.03793e-06
2.58551e-06
2.51398e-06
2.57782e-06
2.68535e-06
2.15104e-06
2.7956e-06
4.0608e-06
4.43687e-06
3.83161e-06
2.81411e-06
2.94364e-06
3.50719e-06
4.17313e-06
4.41787e-06
4.82345e-06
4.29612e-06
9.58541e-06
2.43934e-05
3.89278e-06
7.62742e-06
6.24368e-06
4.62552e-06
4.43335e-06
2.60732e-06
2.77722e-06
2.07561e-06
2.278e-06
2.64884e-06
3.21276e-06
2.69531e-06
2.51522e-06
2.60666e-06
2.74262e-06
2.91034e-06
2.68867e-06
3.36557e-06
3.78862e-06
3.35368e-06
2.31985e-06
1.4802e-06
1.79208e-06
2.23319e-06
3.23323e-06
4.03464e-06
4.68272e-06
4.03192e-06
1.08872e-05
2.10809e-05
3.18739e-06
5.53828e-06
4.15684e-06
3.59734e-06
3.4182e-06
2.48898e-06
2.48645e-06
1.84289e-06
1.98722e-06
2.33299e-06
3.02036e-06
2.68826e-06
2.65696e-06
2.92212e-06
2.89203e-06
3.07802e-06
3.26566e-06
3.76378e-06
3.17478e-06
2.35764e-06
1.74199e-06
1.3792e-06
1.58509e-06
1.99745e-06
3.18179e-06
4.02666e-06
4.56942e-06
4.0217e-06
1.2412e-05
2.24918e-05
1.80644e-06
4.68115e-06
4.73894e-06
4.17748e-06
3.93483e-06
3.05236e-06
2.90983e-06
2.21005e-06
2.21031e-06
2.42153e-06
2.80696e-06
2.43203e-06
2.3514e-06
2.83421e-06
2.68832e-06
2.78848e-06
3.34729e-06
3.55219e-06
2.73738e-06
1.87396e-06
1.6907e-06
1.46444e-06
1.7468e-06
2.29445e-06
3.41667e-06
4.04031e-06
4.43644e-06
3.98219e-06
1.36383e-05
2.05066e-05
2.5541e-06
3.49288e-06
3.66533e-06
3.6922e-06
3.49362e-06
3.01402e-06
2.90169e-06
2.62648e-06
2.62574e-06
2.64933e-06
2.22925e-06
1.33733e-06
2.29767e-06
3.21737e-06
2.79713e-06
1.9899e-06
2.52311e-06
2.9381e-06
2.62882e-06
2.06522e-06
2.04365e-06
1.87073e-06
2.25013e-06
2.73767e-06
3.54646e-06
3.8429e-06
3.996e-06
3.7592e-06
1.49584e-05
2.20841e-05
2.31261e-06
2.89783e-06
3.35504e-06
3.59793e-06
3.71985e-06
3.41506e-06
3.34866e-06
3.26531e-06
3.16114e-06
2.99812e-06
1.88933e-06
1.45433e-06
3.37118e-06
4.27132e-06
3.53792e-06
2.13101e-06
1.02665e-06
2.06008e-06
2.63594e-06
2.33991e-06
2.44259e-06
2.3263e-06
2.67293e-06
2.84915e-06
3.27678e-06
3.27647e-06
3.19952e-06
3.29555e-06
1.58895e-05
2.11823e-05
2.72364e-06
2.31715e-06
2.44934e-06
2.54366e-06
3.02918e-06
3.20014e-06
3.44582e-06
3.62625e-06
3.45784e-06
3.15328e-06
2.16739e-06
3.01603e-06
4.72407e-06
5.44999e-06
5.09304e-06
4.09962e-06
1.64219e-06
1.42827e-06
2.64077e-06
2.82128e-06
3.10141e-06
3.00826e-06
3.22582e-06
3.19552e-06
3.25777e-06
2.98087e-06
2.75721e-06
2.96854e-06
1.67353e-05
2.26385e-05
2.86286e-06
2.17689e-06
2.22799e-06
2.29553e-06
2.88583e-06
3.22274e-06
3.68319e-06
4.23172e-06
4.17483e-06
3.32516e-06
2.88074e-06
3.72223e-06
4.2477e-06
4.53516e-06
4.47355e-06
3.78548e-06
2.45673e-06
1.6562e-06
2.59502e-06
3.29435e-06
3.62691e-06
3.47253e-06
3.42851e-06
3.28166e-06
3.19114e-06
2.76379e-06
2.65398e-06
2.75713e-06
1.73393e-05
2.17372e-05
2.85491e-06
1.9735e-06
1.93769e-06
1.86801e-06
2.23287e-06
2.43886e-06
3.08588e-06
3.90446e-06
3.81821e-06
2.69536e-06
3.7948e-06
4.20905e-06
4.13045e-06
3.97128e-06
3.7346e-06
3.40882e-06
2.77482e-06
2.31515e-06
2.00581e-06
3.2073e-06
3.63278e-06
3.29755e-06
2.96693e-06
2.71621e-06
2.64824e-06
2.39684e-06
2.542e-06
2.82864e-06
1.84221e-05
2.19911e-05
2.5329e-06
1.84898e-06
1.87078e-06
1.88631e-06
1.89669e-06
1.99309e-06
2.70557e-06
3.56714e-06
3.5985e-06
3.45774e-06
3.90535e-06
3.59504e-06
3.34311e-06
2.83239e-06
2.47919e-06
1.87828e-06
1.95873e-06
1.94219e-06
1.94745e-06
2.58174e-06
3.23904e-06
2.93008e-06
2.44931e-06
2.20484e-06
2.21427e-06
2.14916e-06
2.36361e-06
2.86648e-06
1.93437e-05
2.11967e-05
2.77585e-06
2.0194e-06
1.95806e-06
1.94133e-06
2.01779e-06
2.09782e-06
2.67336e-06
3.17551e-06
3.66401e-06
3.70366e-06
3.3727e-06
2.77487e-06
2.2993e-06
2.45341e-06
2.22133e-06
1.86946e-06
2.14517e-06
2.18652e-06
2.69731e-06
3.19133e-06
3.33233e-06
2.78313e-06
2.14807e-06
1.99901e-06
2.01073e-06
2.01919e-06
2.1963e-06
2.89662e-06
2.01531e-05
2.13947e-05
2.98879e-06
2.24735e-06
2.11246e-06
2.17045e-06
2.34784e-06
2.48415e-06
2.90805e-06
3.38526e-06
3.66184e-06
3.04431e-06
2.11198e-06
1.75362e-06
1.79385e-06
2.39929e-06
2.48203e-06
2.19512e-06
2.39106e-06
2.65179e-06
3.20893e-06
3.43924e-06
3.31751e-06
2.58721e-06
1.78075e-06
1.60229e-06
1.70878e-06
1.79142e-06
1.89815e-06
2.51886e-06
2.00337e-05
2.03083e-05
3.07043e-06
2.55812e-06
2.3825e-06
2.47723e-06
2.62409e-06
2.75472e-06
3.20915e-06
3.64542e-06
3.31461e-06
2.65367e-06
2.37519e-06
2.17703e-06
2.27282e-06
2.87489e-06
2.85011e-06
2.6239e-06
2.77934e-06
2.80023e-06
2.6136e-06
2.88085e-06
3.61589e-06
2.87474e-06
1.95332e-06
1.73629e-06
1.92286e-06
2.14566e-06
2.11116e-06
2.52179e-06
1.99907e-05
1.98007e-05
3.02376e-06
2.82374e-06
2.60316e-06
2.78855e-06
2.91514e-06
3.14954e-06
3.43488e-06
3.80132e-06
3.39235e-06
2.61926e-06
2.48162e-06
2.69415e-06
3.03927e-06
3.55525e-06
3.57653e-06
3.74453e-06
3.52423e-06
2.66746e-06
1.59987e-06
3.44107e-06
4.37945e-06
3.54465e-06
2.91984e-06
2.59646e-06
2.56976e-06
2.78872e-06
2.73895e-06
2.98653e-06
1.99871e-05
1.86538e-05
3.32421e-06
3.32292e-06
3.28787e-06
3.61196e-06
3.65632e-06
3.72155e-06
3.69994e-06
3.9024e-06
3.66249e-06
3.38222e-06
2.2098e-06
2.23149e-06
3.08474e-06
3.92676e-06
3.91589e-06
3.79759e-06
3.11363e-06
1.69436e-06
2.10079e-06
3.79989e-06
4.58918e-06
3.95228e-06
3.54858e-06
3.21736e-06
3.20431e-06
3.39866e-06
3.43863e-06
3.54474e-06
1.94998e-05
1.79057e-05
3.43927e-06
3.30677e-06
3.54965e-06
3.85596e-06
3.48237e-06
3.29522e-06
3.02726e-06
3.28981e-06
3.06955e-06
3.21468e-06
1.80844e-06
1.03457e-06
2.88914e-06
4.23167e-06
4.45532e-06
4.17719e-06
2.37188e-06
1.00817e-06
2.5941e-06
3.26519e-06
3.85731e-06
3.39685e-06
3.31538e-06
3.16579e-06
3.44823e-06
3.51344e-06
3.38201e-06
3.54971e-06
1.83232e-05
1.67526e-05
3.78409e-06
3.47543e-06
3.92548e-06
4.15487e-06
3.30469e-06
2.88013e-06
2.49812e-06
2.74362e-06
2.64531e-06
3.07843e-06
2.40906e-06
1.36387e-06
9.81439e-07
2.69249e-06
3.48506e-06
3.17584e-06
8.88069e-07
1.77533e-06
3.08701e-06
2.99961e-06
3.24347e-06
2.8633e-06
3.08741e-06
3.28596e-06
3.97412e-06
3.93193e-06
3.72578e-06
3.61486e-06
1.6693e-05
1.56974e-05
3.9179e-06
4.03547e-06
4.40702e-06
4.16955e-06
3.08939e-06
2.62272e-06
2.05216e-06
2.23086e-06
2.22812e-06
2.9195e-06
3.07559e-06
2.69173e-06
1.74863e-06
2.07814e-06
2.4303e-06
1.93721e-06
1.9342e-06
2.55824e-06
2.93236e-06
2.4002e-06
2.54467e-06
2.22347e-06
2.62587e-06
2.94183e-06
3.94912e-06
4.22626e-06
4.19349e-06
3.65246e-06
1.5332e-05
1.433e-05
3.97682e-06
4.64676e-06
4.52689e-06
3.85807e-06
2.7571e-06
2.33605e-06
1.69146e-06
1.93922e-06
2.01548e-06
2.83273e-06
3.31032e-06
3.15367e-06
2.98804e-06
3.10659e-06
3.15974e-06
2.23854e-06
2.89904e-06
3.42369e-06
3.16286e-06
2.12937e-06
2.09734e-06
1.78554e-06
2.23377e-06
2.45899e-06
3.67209e-06
4.3194e-06
4.5192e-06
3.84355e-06
1.40078e-05
1.31426e-05
3.98364e-06
4.70719e-06
3.95491e-06
3.26689e-06
2.36664e-06
2.13636e-06
1.50294e-06
1.78096e-06
2.02331e-06
2.97579e-06
3.13179e-06
2.90774e-06
3.48029e-06
3.62074e-06
3.30763e-06
2.54202e-06
3.49911e-06
4.07032e-06
4.03176e-06
2.75507e-06
2.01432e-06
1.51456e-06
1.91958e-06
2.04184e-06
3.243e-06
4.17726e-06
4.67494e-06
3.90782e-06
1.2732e-05
1.13625e-05
4.0795e-06
4.63893e-06
3.51707e-06
2.83439e-06
2.14971e-06
2.38764e-06
2.02607e-06
2.21235e-06
2.40305e-06
3.21786e-06
2.86604e-06
2.52223e-06
3.50548e-06
3.70014e-06
3.2278e-06
2.85711e-06
3.52468e-06
4.18498e-06
4.84603e-06
4.00824e-06
2.88004e-06
1.99205e-06
2.31011e-06
2.46341e-06
3.59062e-06
4.34881e-06
5.066e-06
4.21194e-06
1.1352e-05
9.89645e-06
4.05984e-06
4.40855e-06
3.25935e-06
2.8282e-06
2.53793e-06
3.00654e-06
2.94499e-06
3.34827e-06
3.35527e-06
3.51401e-06
2.45381e-06
2.28477e-06
3.35143e-06
3.68618e-06
3.30221e-06
2.9758e-06
3.29132e-06
3.91056e-06
4.97261e-06
4.90125e-06
4.42765e-06
3.53308e-06
3.70001e-06
3.92435e-06
4.67979e-06
4.63722e-06
5.23624e-06
4.5685e-06
9.99305e-06
8.28499e-06
4.31823e-06
4.39576e-06
3.5016e-06
3.77407e-06
3.79281e-06
4.2185e-06
4.28575e-06
4.95319e-06
5.04918e-06
4.60016e-06
2.59237e-06
2.24799e-06
3.38859e-06
4.20458e-06
3.85274e-06
3.64769e-06
4.05096e-06
4.4494e-06
5.27837e-06
5.36264e-06
5.7826e-06
5.66387e-06
5.97925e-06
5.95338e-06
5.96915e-06
4.92535e-06
5.14114e-06
4.97998e-06
8.33907e-06
6.79619e-06
4.80783e-06
4.32305e-06
4.04342e-06
4.38979e-06
4.19974e-06
4.42147e-06
4.43186e-06
5.11116e-06
5.44236e-06
5.13267e-06
3.08982e-06
2.45452e-06
3.471e-06
4.17092e-06
3.69472e-06
3.51594e-06
4.08529e-06
4.2592e-06
4.45732e-06
4.20891e-06
4.88337e-06
5.33788e-06
6.1555e-06
5.964e-06
5.60689e-06
4.34037e-06
4.2339e-06
5.05882e-06
6.62316e-06
4.70519e-06
4.80407e-06
3.82036e-06
4.09369e-06
4.15141e-06
3.99765e-06
4.28063e-06
4.40558e-06
5.03294e-06
5.41145e-06
5.42312e-06
4.37639e-06
4.12886e-06
3.87206e-06
3.68752e-06
3.07045e-06
3.207e-06
3.67043e-06
3.6288e-06
3.70215e-06
3.32351e-06
3.88675e-06
4.01593e-06
4.71668e-06
4.54253e-06
4.21556e-06
3.48533e-06
3.16644e-06
4.32481e-06
4.18773e-06
2.95303e-06
3.89621e-06
4.27084e-06
5.06897e-06
5.61262e-06
6.48152e-06
7.11483e-06
8.30528e-06
9.0238e-06
1.01797e-05
9.98058e-06
1.01075e-05
9.49044e-06
9.64583e-06
9.45369e-06
9.14613e-06
9.25487e-06
9.0445e-06
9.32827e-06
8.61016e-06
8.13514e-06
7.36697e-06
7.08418e-06
6.63917e-06
6.31075e-06
5.33426e-06
4.49985e-06
3.3193e-06
2.8993e-06
2.0958e-06
0.000204359
6.316e-05
6.04822e-05
3.42618e-05
2.49194e-05
1.78346e-05
1.25798e-05
1.07299e-05
7.80525e-06
8.05403e-06
7.92014e-06
8.06755e-06
8.2558e-06
7.54122e-06
7.8345e-06
8.12087e-06
7.61558e-06
8.40632e-06
7.24557e-06
8.01856e-06
6.07859e-06
6.98099e-06
6.2816e-06
7.46e-06
6.70623e-06
6.35593e-06
5.18468e-06
4.1141e-06
3.17782e-06
2.67895e-06
6.11435e-05
4.70686e-05
2.88622e-05
2.21873e-05
1.10711e-05
8.38342e-06
6.36942e-06
5.37822e-06
5.39885e-06
5.00611e-06
4.20828e-06
3.45065e-06
2.64465e-06
2.89105e-06
3.27165e-06
2.90902e-06
3.26831e-06
3.34235e-06
3.40277e-06
2.61353e-06
1.86554e-06
2.27726e-06
3.2365e-06
3.67908e-06
3.43703e-06
2.82198e-06
2.71215e-06
2.80692e-06
3.36511e-06
3.72366e-06
5.96327e-05
3.00054e-05
2.82977e-05
2.21948e-05
1.46802e-05
1.09584e-05
7.75467e-06
6.2814e-06
6.37725e-06
6.83538e-06
6.4103e-06
5.76871e-06
4.55777e-06
4.09164e-06
3.88002e-06
3.65758e-06
4.03259e-06
3.52915e-06
3.56941e-06
3.01139e-06
2.80081e-06
3.47897e-06
5.0574e-06
5.59537e-06
4.41413e-06
3.24947e-06
3.43328e-06
4.45497e-06
4.19324e-06
5.46805e-06
3.77506e-05
2.0255e-05
2.02221e-05
1.5316e-05
1.02654e-05
8.58912e-06
5.67439e-06
4.94289e-06
4.55786e-06
5.93147e-06
7.00727e-06
7.43106e-06
6.43759e-06
5.48239e-06
4.67734e-06
4.37613e-06
4.12083e-06
3.24595e-06
3.58981e-06
3.25301e-06
2.91963e-06
4.80198e-06
6.76929e-06
6.81852e-06
5.56362e-06
4.05323e-06
4.05953e-06
4.78068e-06
4.4878e-06
7.05891e-06
2.97804e-05
1.04545e-05
1.24022e-05
9.73916e-06
7.89976e-06
7.36849e-06
5.61313e-06
5.04985e-06
4.50291e-06
5.7479e-06
7.59356e-06
8.01341e-06
6.16233e-06
5.08107e-06
4.34468e-06
4.05556e-06
3.48314e-06
2.81121e-06
3.48768e-06
3.75983e-06
5.001e-06
6.32171e-06
6.80212e-06
6.54854e-06
6.01293e-06
4.80201e-06
4.72984e-06
4.26105e-06
4.57449e-06
8.68439e-06
2.61119e-05
7.1264e-06
9.63231e-06
7.83205e-06
6.40276e-06
5.32329e-06
3.75949e-06
3.1523e-06
2.61204e-06
3.68129e-06
5.23352e-06
5.47919e-06
3.87834e-06
3.2265e-06
2.56732e-06
2.63009e-06
2.47859e-06
2.44385e-06
2.95903e-06
3.85253e-06
4.47432e-06
4.2511e-06
3.69265e-06
3.90286e-06
4.58212e-06
4.77418e-06
4.9281e-06
3.62993e-06
4.52063e-06
9.96693e-06
2.1926e-05
4.54487e-06
5.90232e-06
4.75815e-06
4.26903e-06
3.74922e-06
2.66186e-06
2.44265e-06
2.07532e-06
2.7333e-06
3.6846e-06
4.20937e-06
2.99305e-06
2.67894e-06
2.15567e-06
2.285e-06
2.31417e-06
2.37004e-06
3.26883e-06
3.60818e-06
2.9967e-06
2.11058e-06
1.57144e-06
2.14812e-06
3.67717e-06
4.61746e-06
4.56601e-06
3.09869e-06
4.49087e-06
1.13965e-05
2.27388e-05
3.25258e-06
4.62663e-06
5.11767e-06
4.92767e-06
4.38931e-06
3.219e-06
2.90426e-06
2.18718e-06
2.34813e-06
2.86049e-06
3.69343e-06
2.86601e-06
2.91381e-06
1.92266e-06
1.68847e-06
1.65412e-06
2.40713e-06
3.38716e-06
2.91006e-06
1.80857e-06
1.25752e-06
1.20936e-06
1.99412e-06
3.46447e-06
4.20272e-06
3.99681e-06
2.94381e-06
4.35802e-06
1.26257e-05
2.00775e-05
3.16051e-06
2.46668e-06
2.69733e-06
3.2591e-06
3.61102e-06
2.97396e-06
2.75099e-06
2.23669e-06
2.36112e-06
2.49905e-06
3.02392e-06
2.80996e-06
3.22395e-06
2.07227e-06
1.66947e-06
1.71645e-06
1.82984e-06
2.62895e-06
2.25056e-06
1.68337e-06
1.44421e-06
1.68852e-06
2.39244e-06
3.30079e-06
3.61587e-06
3.55205e-06
2.89063e-06
4.05222e-06
1.40356e-05
2.11604e-05
3.13075e-06
2.30587e-06
2.03523e-06
2.47342e-06
3.33419e-06
3.32796e-06
3.17344e-06
2.5696e-06
2.56441e-06
2.31445e-06
2.72918e-06
2.63517e-06
2.95871e-06
2.78166e-06
2.13074e-06
2.53253e-06
1.98671e-06
1.73916e-06
1.56306e-06
1.69027e-06
1.67714e-06
2.0934e-06
2.64215e-06
2.85126e-06
2.88489e-06
2.78861e-06
2.29935e-06
3.49222e-06
1.52205e-05
1.99803e-05
3.05764e-06
1.6752e-06
1.47146e-06
1.27973e-06
1.89954e-06
2.51113e-06
3.01108e-06
2.67824e-06
2.65904e-06
2.93443e-06
3.89152e-06
3.85801e-06
4.66722e-06
4.94642e-06
4.33745e-06
4.23037e-06
3.32898e-06
2.93925e-06
2.30209e-06
2.26815e-06
2.2776e-06
2.55743e-06
2.68807e-06
2.46029e-06
2.39724e-06
2.26005e-06
1.85613e-06
2.9619e-06
1.62028e-05
2.15285e-05
2.91186e-06
1.513e-06
1.45997e-06
1.06676e-06
1.3241e-06
2.13471e-06
2.92246e-06
2.73821e-06
3.38192e-06
4.33852e-06
4.28006e-06
4.66017e-06
5.5538e-06
5.90957e-06
5.87237e-06
5.11174e-06
3.7425e-06
3.49046e-06
3.32368e-06
2.8789e-06
2.47626e-06
2.40412e-06
2.27444e-06
2.07078e-06
2.11104e-06
2.01453e-06
1.68658e-06
2.41761e-06
1.68404e-05
2.08165e-05
2.40633e-06
1.06513e-06
1.27153e-06
9.55186e-07
7.42046e-07
1.45417e-06
2.72134e-06
2.36633e-06
3.54386e-06
4.66966e-06
4.78846e-06
6.03624e-06
6.76119e-06
6.83371e-06
6.59479e-06
6.106e-06
4.82068e-06
3.96678e-06
3.63915e-06
3.25506e-06
2.18286e-06
1.98526e-06
1.78765e-06
1.52442e-06
1.53948e-06
1.53945e-06
1.30059e-06
2.3516e-06
1.78695e-05
2.13124e-05
2.17327e-06
6.65937e-07
8.04808e-07
8.6393e-07
6.9811e-07
1.37995e-06
2.70787e-06
2.74614e-06
3.23034e-06
3.80075e-06
5.16466e-06
5.88067e-06
6.75175e-06
6.72446e-06
6.48742e-06
5.91423e-06
4.93678e-06
4.5444e-06
2.87644e-06
2.84828e-06
2.16109e-06
1.45444e-06
1.14172e-06
1.09138e-06
1.03296e-06
9.39659e-07
7.29961e-07
2.32323e-06
1.86423e-05
2.03764e-05
2.54902e-06
9.43494e-07
8.11966e-07
8.47738e-07
9.2444e-07
1.27277e-06
1.74132e-06
2.52524e-06
3.49814e-06
4.07814e-06
4.84353e-06
4.36405e-06
5.16235e-06
5.9277e-06
6.05371e-06
5.2189e-06
4.59654e-06
4.72571e-06
3.97265e-06
3.64317e-06
2.69987e-06
1.6622e-06
1.07539e-06
1.05463e-06
9.15425e-07
7.42447e-07
7.19096e-07
2.33331e-06
1.93189e-05
2.05175e-05
2.82682e-06
9.50566e-07
8.24902e-07
1.0114e-06
1.33072e-06
1.4475e-06
1.79935e-06
2.82041e-06
3.83255e-06
4.01099e-06
4.35967e-06
3.77578e-06
4.76397e-06
5.82872e-06
6.00883e-06
5.22554e-06
4.62337e-06
5.08227e-06
4.35178e-06
3.7524e-06
2.90311e-06
1.57731e-06
9.4595e-07
8.97831e-07
7.43385e-07
7.51833e-07
6.10933e-07
2.05205e-06
1.92414e-05
1.95748e-05
3.03455e-06
1.1904e-06
1.31917e-06
1.31829e-06
1.64407e-06
1.5968e-06
1.83515e-06
2.51115e-06
3.21533e-06
3.30765e-06
4.52711e-06
4.56042e-06
5.52549e-06
6.16885e-06
6.34566e-06
6.05586e-06
5.07006e-06
4.83769e-06
3.08498e-06
3.49962e-06
2.87624e-06
1.73623e-06
1.22004e-06
8.90791e-07
7.41905e-07
1.32232e-06
1.23281e-06
2.0713e-06
1.9272e-05
1.924e-05
3.0566e-06
1.70759e-06
1.86518e-06
1.64466e-06
1.80629e-06
2.03381e-06
2.17269e-06
2.34357e-06
3.4728e-06
4.09039e-06
4.16599e-06
4.65057e-06
5.66029e-06
6.37903e-06
6.63599e-06
6.11328e-06
4.87711e-06
3.94648e-06
3.13481e-06
3.74123e-06
2.66095e-06
2.36976e-06
2.00604e-06
1.43392e-06
1.47039e-06
2.27344e-06
2.20154e-06
2.72462e-06
1.90388e-05
1.79068e-05
3.30689e-06
2.19807e-06
2.32253e-06
2.45479e-06
2.74729e-06
2.84622e-06
2.77067e-06
2.68518e-06
3.1636e-06
3.73934e-06
3.70173e-06
3.44644e-06
4.58322e-06
5.68278e-06
6.18676e-06
5.15505e-06
3.90523e-06
3.28604e-06
3.3091e-06
3.3729e-06
3.07817e-06
2.66861e-06
2.38762e-06
2.06425e-06
2.01944e-06
2.57648e-06
2.46609e-06
3.43158e-06
1.83225e-05
1.69768e-05
3.48604e-06
2.26658e-06
2.27691e-06
2.96756e-06
3.33365e-06
2.92894e-06
2.53409e-06
2.29223e-06
2.35396e-06
2.45373e-06
3.07494e-06
2.72129e-06
3.49287e-06
4.387e-06
5.40468e-06
4.75123e-06
3.61372e-06
3.10808e-06
2.67104e-06
2.79752e-06
2.85019e-06
2.76842e-06
2.79745e-06
2.90476e-06
2.58194e-06
2.36755e-06
2.12694e-06
3.67932e-06
1.704e-05
1.57765e-05
3.985e-06
2.71192e-06
2.58048e-06
3.70878e-06
4.00785e-06
3.00685e-06
2.20156e-06
1.8607e-06
1.8287e-06
1.8041e-06
2.35988e-06
2.39294e-06
2.97673e-06
2.39423e-06
3.10437e-06
2.8983e-06
3.0019e-06
2.62514e-06
2.27576e-06
2.54678e-06
2.46193e-06
2.55974e-06
3.15027e-06
3.90226e-06
3.62711e-06
2.65745e-06
2.10162e-06
3.68542e-06
1.53919e-05
1.46607e-05
4.05316e-06
2.76566e-06
3.43879e-06
4.44472e-06
3.99416e-06
2.80151e-06
2.01004e-06
1.61217e-06
1.63702e-06
2.19897e-06
3.03484e-06
2.33373e-06
2.57027e-06
3.12343e-06
3.24854e-06
3.11211e-06
3.45863e-06
3.21937e-06
2.50925e-06
2.338e-06