/*--------------------------------*- C++ -*----------------------------------*\
| =========                 |                                                 |
| \\      /  F ield         | OpenFOAM: The Open Source CFD Toolbox           |
|  \\    /   O peration     | Version:  v1906                                 |
|   \\  /    A nd           | Web:      www.OpenFOAM.com                      |
|    \\/     M anipulation  |                                                 |
\*---------------------------------------------------------------------------*/
FoamFile
{
    version     2.0;
    format      ascii;
    class       volScalarField;
    location    "0.78/oil";
    object      heatTransferCoeff(T);
}
// * * * * * * * * * * * * * * * * * * * * * * * * * * * * * * * * * * * * * //

dimensions      [1 0 -3 -1 0 0 0];


internalField   uniform 0;

boundaryField
{
    maxY
    {
        type            calculated;
        value           uniform 0;
    }
    minX
    {
        type            calculated;
        value           uniform 0;
    }
    maxX
    {
        type            calculated;
        value           uniform 0;
    }
    minY
    {
        type            calculated;
        value           uniform 0;
    }
    minZ
    {
        type            calculated;
        value           uniform 0;
    }
    maxZ
    {
        type            calculated;
        value           uniform 0;
    }
    oil_to_sphere
    {
        type            calculated;
        value           nonuniform List<scalar> 
1536
(
-2856.39
-2630.83
-2559.36
-3002.38
-2876.2
-2847.94
-2737.18
-2404.39
-2139.25
-2282.87
-2891.39
-2299.66
-2464.58
-2301.07
-3167.78
-2963.86
-2436.8
-2116.43
-1061.76
-2440.91
-2392.73
-2912.3
-2707.35
-2984.93
-3093.87
-3092.98
-3093.88
-2997.18
-2575.84
-2780.33
-2530.02
-2321.07
-2292.03
-3105.38
-2980.53
-2947.88
-2827.56
-3088.01
-3020.47
-3084.9
-3042.71
-2962.9
-2765.95
-2423.27
-2704.66
-2392.41
-2661.16
-2713.45
-3225.6
-2743.6
-2901.5
-2666.13
-2676.7
-2676.98
-2308.07
-2095.55
-2827.08
-2748.54
-2109.73
-1797.23
-1722.88
-1806.94
-1723.73
-1318.78
-1345.46
-2388.12
-2716.12
-2263.25
-2942.46
-2686.18
-3118.99
-2912.32
-3077.57
-3053.31
-2991.93
-2328.83
-2005.92
-2419.21
-2964.96
-2061.88
-1816.39
-1719.3
-1703.68
-1707.81
-1622.34
-1740.63
-1653.55
-2391.09
-2156.69
-1800.26
-1690.71
-1013.81
-1039.04
-1322.78
-1346.55
-2398.66
-2730.16
-2140.89
-2306.12
-2895.11
-2729.25
-3113.32
-2685.41
-2637.2
-2862.96
-3061.87
-3007.81
-2462.04
-2731.09
-2277.6
-2104.45
-2332.42
-1815.42
-1780.87
-1706.91
-1658.35
-1700.23
-1650.03
-1647.11
-1713.57
-2040.69
-1692.24
-1027.97
-2372.5
-2873.3
-2776.86
-2950.5
-2638.59
-2749.21
-2937.9
-2679.3
-2917.94
-2705.46
-2909.96
-2685.92
-2961.03
-2700.08
-2121.07
-2664.43
-2788.24
-1780.76
-1731.53
-2445.74
-2058.17
-1678.78
-2080.13
-2915.37
-2265.14
-1988.62
-3027.99
-3061.84
-2207.28
-2891.09
-2870.18
-2881.42
-1927.96
-2606.2
-1791.82
-2895.12
-2073.44
-2862.88
-2219.85
-3114.77
-3082.52
-2954.93
-2832.19
-2912.05
-1851.71
-2532.55
-1808.17
-2578.56
-2501.08
-2492.31
-2328.84
-2136.35
-1939.66
-2811.97
-2231.31
-2349.04
-2881.65
-3111.63
-3059.28
-2882.96
-3070.53
-1892.36
-2534.37
-1779.57
-2599.26
-2549.46
-2678.72
-2711.36
-2976.64
-2358.77
-2827.3
-2943.34
-2665.73
-2487.49
-2733.26
-2079
-2745.08
-2708.53
-2829.26
-2270.04
-1888.03
-2009.03
-2078.81
-2106.26
-2067.26
-2281.05
-1810.52
-2321.4
-2067.01
-2108.57
-2007.64
-2481.49
-2377.75
-2001.34
-2294.61
-2416.83
-1938.79
-2255.12
-2611.1
-2556.19
-2274.43
-2226.06
-2352.64
-3023.23
-2342.98
-3015.63
-3217.31
-2939.67
-2596.76
-2940.05
-2031.81
-1873.29
-2380.93
-1939.07
-1979.11
-1920.27
-2190.58
-2133.94
-1067
-1419.81
-2431.34
-2010.33
-2665.69
-2657.91
-2229.73
-2456.26
-1925.98
-2642.65
-3231.37
-2844.5
-2965.06
-2219.76
-2842.22
-2936.24
-2307.73
-2071.28
-2086.17
-2333.93
-1709.62
-2042.43
-1422.4
-1026.72
-1304.37
-1342.47
-1138.09
-2567.02
-2319.08
-2588.5
-2395.97
-2365.25
-2665.6
-2613.04
-2328.83
-2370.78
-1955.83
-2627.3
-2314.56
-2932.37
-2852.14
-2601.56
-2414.13
-2712.62
-2781.42
-2693.64
-2793.89
-2613.51
-2538.59
-2884.14
-1951.99
-2731.11
-1967.9
-2047.56
-2115.82
-2109.68
-1952.62
-2174.62
-2181.98
-2446
-2345.22
-2144.59
-2087.49
-1995.05
-2930.33
-1972.11
-3043.92
-2889.27
-1800.72
-2472.67
-1723.66
-2650.32
-2630.82
-2627.89
-2484.04
-2764.92
-2729.53
-2856.69
-2298.03
-2650.42
-2521.81
-2541.29
-2970.16
-2621.44
-2411.84
-2588.94
-2293.29
-2676.25
-2232.06
-2427.08
-2254.88
-2913.76
-2565.38
-2434.61
-2809.52
-2346.67
-2630.18
-2701.73
-2146.76
-1892.61
-2543.68
-2369.63
-2490.38
-2416.95
-2414.93
-2510.58
-2529.17
-2487.66
-2762.73
-2836.6
-2938.43
-2542.4
-2897.8
-2469.3
-2719.87
-2686.21
-2570.58
-2972.41
-2481.95
-2921.93
-2723.51
-2532.06
-2962.86
-2646.77
-2698.94
-2911.79
-2815.67
-2865.03
-2669.43
-2412.2
-2997.33
-2762.7
-2619.02
-3005.87
-2604.02
-2814.44
-2749.15
-2626.93
-1909.35
-2662.89
-2077.79
-2526.46
-2103.13
-2204.58
-2779.85
-2659.38
-1950.26
-2601.68
-2249.06
-2420.78
-2178.13
-1987.2
-2197.32
-2190.46
-1957.7
-2606.3
-1944.79
-2560.43
-2133.4
-2778.61
-2655.26
-1847.7
-2858.69
-2392.18
-2107.66
-2610.12
-2075.66
-2484.03
-2202.34
-2102.47
-2071.99
-2103.55
-2187.72
-2090.87
-1998.91
-2086.88
-2079.24
-2288.79
-2116.66
-2111.11
-2125.67
-1973.77
-1714.92
-2175.73
-1901.33
-1861.3
-2027.31
-1645.59
-1785.2
-2260.19
-1958.36
-2033.97
-2029.07
-2045.72
-1983.11
-2051.15
-1610.76
-1457.92
-1712.03
-1764.74
-2071.28
-1925.66
-1833.89
-1864.61
-2204.53
-2089.72
-2264.68
-2361.29
-2112.44
-2259.32
-2226.33
-2025.41
-2073.07
-1883.02
-1808.53
-2132.75
-1766.89
-1799.22
-2080.33
-1643.01
-1802.62
-1774.14
-2051.74
-2258.98
-2600.69
-2558.24
-2357.95
-2460.48
-2775.93
-2624.42
-2536.81
-2695.5
-2137.1
-2877.08
-2600.15
-2814.71
-2401.84
-2899.37
-2526.48
-2336.91
-2648.56
-2715.05
-2218.22
-2680.7
-2900.87
-2590.51
-2684.42
-2170.46
-2912.53
-2079.96
-2874
-3051.03
-3135.24
-3198.98
-3307.53
-2920.01
-2962.35
-3001.45
-3081.71
-2957.18
-1970.94
-3051.76
-2860.02
-1871.91
-1808.13
-2539.18
-2829.72
-2922.43
-1878.67
-2533.36
-2727.23
-2933.29
-2840.97
-2566.72
-2025.75
-1775.91
-2062.73
-1882.71
-1765.5
-2294.81
-2103.51
-1892.22
-2086.12
-2054.85
-1575.26
-1800.13
-1835.11
-1455.12
-1809.1
-1516.39
-1907.42
-1486.87
-1979.91
-1786.4
-1852.19
-1954.85
-2230.58
-2039.61
-1972.05
-1695.42
-2122.82
-1978.6
-1757.66
-2283.49
-2147.96
-2001.37
-2333.37
-2073.55
-2037.5
-2003.72
-1579.28
-1797.04
-2045.3
-1109.89
-1417.61
-1155.36
-1387.49
-1269.85
-1263.54
-1298.95
-1298.86
-1408.18
-2131.73
-1651.04
-1810.74
-1794.18
-1642.27
-2161.14
-1657.29
-1785.65
-1810
-1739.06
-2034.26
-1834.46
-2039.07
-1600.88
-2715.13
-2154.82
-1973.23
-2909.63
-2515.54
-2212.01
-2742.56
-2228.53
-2462.05
-2396.95
-2288.89
-2802.13
-2419.64
-2669.34
-2553.64
-2431.62
-2429.62
-2081.66
-2153.07
-2857.69
-2737.67
-2180.49
-2724.83
-2667
-2263.91
-2478.17
-2197.85
-2812.55
-2871.83
-2363.42
-2658.95
-2363.09
-2474.8
-2899.17
-2055.18
-3118.06
-3091.47
-2047.84
-2302.99
-2935.83
-3175.42
-3141.99
-2567.81
-2949.14
-3177.86
-3087.29
-3031.96
-2904.82
-2846
-3042.12
-1953.21
-2072.86
-2563.55
-1840.87
-2962.25
-1931.58
-1819.13
-2106.52
-2715.66
-2904.64
-2789.94
-1968.69
-2836.45
-2042.14
-2581.65
-2562.76
-1848.77
-2915
-1888.16
-2015.2
-1665.07
-1361.98
-1847.06
-2274.95
-1910.84
-1957.75
-1957.53
-1970.36
-2029.13
-2090.95
-1691.85
-2044.28
-1827.05
-1779.96
-1831.35
-1878.06
-1458.49
-1823.25
-1831.01
-1501.72
-1858.38
-1823.53
-1443.2
-1551.9
-2000.86
-1913.75
-1547.42
-1761.52
-2352.32
-2070.47
-1962
-1822.12
-2086.68
-2049.28
-1978.59
-1629.84
-1373.87
-2040.71
-2209.96
-2237.22
-2337.82
-1874.25
-2001.05
-1868.13
-2085.74
-2063.48
-1722.59
-1953.45
-1705.24
-1737.68
-1321.85
-1297.34
-1100.55
-1093.76
-1364.01
-1388.61
-1039.67
-1053.88
-1438.47
-2506.42
-2632.01
-2633.13
-2645.57
-2646.15
-2620.05
-2640.35
-2656.76
-2598.36
-2228.88
-2586.44
-2551.35
-2389.24
-2786.69
-2675.5
-2596.91
-2720.63
-2783.81
-2851.92
-2734.26
-2255.59
-2442.55
-2345.03
-2604.17
-2460.13
-2548.82
-2263
-2757.58
-2919.15
-2442.29
-2621
-2474.37
-2797.87
-2681.4
-2634.61
-2608.09
-2813.24
-2651.16
-2639.09
-2812.73
-2563.89
-2673.14
-3042.22
-2843.77
-2623.39
-2833.8
-2575.52
-2790.25
-2833.68
-2571.49
-2675.29
-2894.65
-2985.23
-2444.72
-2883.24
-2689.31
-2547.94
-2956.06
-2836.1
-2678.17
-2903.51
-2833.44
-2491.06
-2388.21
-2989.27
-2855.02
-2484.28
-2947.32
-3005
-2849.83
-2802.02
-2687.53
-1998.02
-2558.39
-2073.69
-2260.2
-2148.08
-2518.14
-1927.68
-2793.13
-2790.73
-1920.68
-2610.49
-2589.46
-2251.62
-2212.89
-2024.31
-2733.18
-2711.55
-2539.87
-1975.48
-2758.1
-2232.74
-2323.38
-2581.28
-2038.39
-2598.2
-2131.54
-2138.7
-2458.54
-1989.51
-2766.96
-2602.74
-2703.31
-2145.64
-2202.33
-2066.15
-2566.27
-2605.65
-2136.4
-2220.68
-2060.09
-2071.71
-2080.86
-2252.15
-2103.74
-2249.19
-1766.81
-2082.9
-1986.86
-1912.25
-2018.52
-1978.49
-1652.04
-1732.75
-2027.53
-1838.7
-2208.87
-2106.51
-2018.59
-1995.8
-2368.5
-2328.96
-2111.7
-2069.39
-2153.41
-2063.47
-2013.12
-2029.32
-1647.78
-1458.06
-2080.12
-1631.58
-2016.66
-2021.24
-1840.6
-1803.65
-2078.18
-1808.98
-2297.76
-2104.33
-2056.34
-2057.81
-2100.72
-1823.85
-2274.98
-2012.75
-2679.31
-2951.1
-2251.96
-2406.22
-1990.06
-2519.31
-1984.67
-2106.94
-2664.41
-3041.48
-2331.77
-2218.32
-2690.42
-2726.64
-2533.89
-2531.92
-1735.65
-1155.06
-3068.9
-2579.85
-2453.5
-1663.82
-1125.25
-1784.59
-2694.23
-3044.56
-2916.43
-1815.82
-2778.56
-2958.37
-2740.14
-2837.55
-2421.33
-2863.17
-2394.94
-2502.57
-2750.98
-2863.39
-2604.44
-2720.18
-2802.79
-2664.42
-2695.09
-2669.65
-2510.17
-2036.96
-2343
-3185.15
-2332.26
-2959.73
-2479.92
-2751.16
-2572.42
-2460.38
-2185.44
-2404.62
-3064.71
-2606.85
-2963.18
-2470.9
-2365.46
-2654.3
-2005.87
-2891.2
-3126.52
-3072.16
-2878.87
-2974.36
-2939.44
-2896.54
-2921.52
-2438.27
-2262
-2622.39
-2040.63
-2445.01
-2438.1
-2427.69
-2890.27
-2695.33
-2928.71
-2228.06
-2614.19
-2891.27
-2899.6
-3089.98
-2711.1
-2972.89
-2937.19
-2210.39
-2599.29
-2623.7
-2603.78
-2300.95
-2600.31
-2160.61
-2414.21
-1613.28
-2091.78
-2420.44
-2300.76
-1943.48
-2310.06
-1936.31
-1862.86
-2318.61
-2312.27
-1930.18
-2482.29
-2952.6
-2827.79
-3061.92
-2687.45
-2910.36
-3024.11
-2444.42
-3156.04
-2454.52
-2599.78
-2591.5
-2359.89
-2578.73
-1880.34
-2064.73
-2514.15
-1914.45
-2243.68
-2490.83
-2184.84
-1906.48
-1474.59
-1376.75
-2429.97
-2097
-1172.53
-1175.62
-1327.04
-2499.41
-1862.02
-2367.04
-1837.08
-2317.08
-1932.19
-2370.84
-1886.11
-2269.61
-2927.19
-2721.45
-2998.85
-2022.11
-1942.65
-2558.99
-2616.26
-2649.03
-2929.08
-2389.21
-2999.67
-2487.75
-2507.54
-3036.74
-2352.61
-2582.58
-2626.43
-1897.26
-2889.1
-2368.6
-2177.3
-1945.13
-2443.87
-2216.35
-2642.72
-2597.43
-2174.13
-1525.96
-1927.82
-1464.53
-2434.37
-2026.2
-1196.8
-1352.44
-1157.72
-2447.93
-2525.46
-2979.19
-2616.79
-2888.63
-2883.03
-2597.58
-2927.33
-2983.55
-2962.9
-2665.2
-2402.66
-2560.59
-2641.96
-2568.37
-2114.42
-2292.57
-2116.99
-2393.98
-3152.44
-3122.67
-3234.09
-2703.88
-2610.64
-3176.21
-2932.83
-1985.09
-2609.39
-2936.43
-2379.07
-3173.42
-3149.11
-2246.21
-2836.17
-2866.83
-2407.4
-3159.79
-3191.62
-3135.59
-2239.13
-2867.19
-2947.46
-2390.18
-3187.23
-2886.79
-2344.69
-2877.42
-2628.41
-2019.87
-2723.78
-2836.53
-2803.73
-2621.39
-3188.06
-3110.54
-3153.66
-3248.45
-2062.6
-2891.13
-3217.59
-2231.21
-2730.14
-3002.68
-2880.36
-2800.53
-2585.92
-2910.58
-2583.74
-2102.37
-2684.35
-2814.59
-2862.91
-2554.01
-3194.85
-2242.22
-2842.95
-3186.9
-2200.57
-2604.06
-3013.56
-2936.23
-2739.78
-2734.05
-2833.31
-2850.05
-2540.61
-2671.62
-2615.93
-2690.86
-2597.68
-2889.73
-2244.42
-2765.18
-2628.51
-2741.9
-2755.79
-2753.52
-2701.32
-2265.75
-2029.17
-1938.35
-2107.14
-2182.39
-2166.46
-2141.22
-2201.66
-2465.81
-2025.22
-1943.55
-2661.74
-3128.51
-3181.22
-2968.78
-2124.72
-1992.29
-2812.38
-2394.83
-2919.24
-2418.02
-1886.33
-1890.31
-2135.85
-1859.91
-1824.81
-1829.29
-1857.23
-1447.32
-1071.65
-2617.75
-2677.38
-2598.93
-2716
-2589.99
-2730.85
-2352.85
-3257.73
-2909.13
-2186.43
-2424.49
-1821.33
-1450.2
-1089.38
-1479.58
-1778.57
-2516.38
-1941.67
-2005.57
-2586.89
-2531.45
-2411.26
-2453.85
-2695.65
-2584.61
-2950.51
-2239.91
-2208.5
-2803.83
-2725.81
-2832.67
-2104
-1995.6
-2242.11
-2200.47
-2203.27
-1945.25
-1768.96
-2895.8
-2313.31
-2785.26
-2817.09
-2998.23
-2938.73
-2832.21
-2051.62
-2939.23
-2732.48
-2700.28
-2901.32
-2869.37
-2534.49
-2198.36
-2419.46
-2498.27
-2652.12
-2544.43
-2545.18
-2582.67
-2437.95
-2191.12
-2612.63
-2510.17
-2507.46
-2537.22
-2576.26
-2553.14
-2633.7
-2622.31
-2716.14
-2580.65
-2803.72
-2178.3
-2601.32
-2800.31
-2503.8
-1981.56
-2591.64
-2578.29
-2807.25
-2797.17
-2602.99
-2573.72
-2488.05
-2094.47
-2468.99
-2634.94
-2786.6
-2702.02
-2537.35
-2385.38
-2499.65
-2529.04
-2822.17
-2927.22
-2356.2
-2636.73
-2874.31
-2884.64
-2845.32
-2776.94
-2808.62
-3033.76
-2314.93
-2778.98
-2848.42
-2798.14
-2862.24
-2815
-2836.98
-2424.83
-2430.16
-2803.82
-2763.56
-2733.69
-2468.64
-2187.72
-2316.16
-2748.63
-2674.06
-2117.11
-2339.19
-2603.88
-2643.49
-2508.54
-2320.54
-2711.45
-2501.78
-2214.83
-2267.29
-2318.26
-2100.6
-2083.4
-1842.99
-1802.88
-2187.01
-1955.87
-1980.64
-1989.71
-1372.57
-1419.41
-1941.82
-2274.42
-2032.2
-2005.63
-2014.76
-1956.36
-1914.34
-1609.17
-2071.92
-2006.57
-1723.12
-2482.37
-2441.64
-1724.74
-2104.02
-2400.65
-1750.38
-1994.83
-2096.17
-1723.25
-2522.15
-2658.17
-1949.92
-2326.63
-2059.31
-1995.1
-2004.72
-2466.48
-2373.47
-2841.08
-2596.45
-2009.82
-2522.78
-2999.3
-2266.28
-2551.5
-2651.12
-2687.94
-2584.41
-2742.91
-2609.39
-2771.95
-2773.66
-2262.96
-2487.23
-2583.03
-2602.12
-2652.95
-2790.51
-3210.57
-1976.38
-2945.95
-3216.34
-2211.68
-2958.23
-2996.96
-2879.44
-2450.92
-2874.64
-2247.37
-3123.88
-2065.38
-2622.23
-2624.45
-2966.12
-2938.32
-2787.87
-2612.36
-1764.17
-2880.9
-2451.21
-2170.95
-2356.97
-1997.22
-1467.48
-1562.13
-2193.23
-2013.95
-2049.35
-1945.6
-2325.21
-1816.81
-1958.5
-1458.91
-2189.91
-1972.9
-1050.89
-1047.57
-1479.52
-1062.43
-1494.77
-1377.75
-1195.51
-2523.3
-1601.72
-2111.62
-2469.46
-2477.92
-2376.47
-2414.79
-2061.52
-2047.34
-2036.4
-1963.78
-2451.11
-2401.9
-1913.06
-2642.09
-2525.78
-2339.45
-2890.4
-2605.25
-2759.13
-2564.34
-2025.6
-2551.4
-2940.51
-2335.38
-2680.26
-2686.34
-2676.43
-2794.94
-2414.66
-2674.59
-2874.33
-2494.27
-2270.38
-2998.95
-3106.07
-3036.89
-3242.64
-3131.58
-2761.09
-3108.68
-2230.1
-2818.6
-2429.2
-2885.19
-2859.11
-2438.19
-2918.6
-2661.75
-2631.14
-2677.4
-2899.18
-2494.22
-2090.49
-2810.36
-2396.77
-2052
-2083.57
-1909.79
-2414.65
-2054.77
-1934.49
-1517.44
-2214.23
-1978.06
-2362.32
-1891.25
-1439.02
-1395.22
-1196.61
-2468.33
-2605.06
-2767.54
-2441.42
-2674.13
-2568.03
-2639.24
-2543.47
-2682.1
-2737.05
-2908.88
-2221.51
-2459.41
-2762.28
-2449.77
-2533.63
-2651.77
-2695.58
-2817.71
-2819.51
-2678.33
-2590.43
-2619.58
-3001.63
-2838.87
-3000.68
-2081.97
-2676.4
-2866.08
-2810.01
-2822.78
-2867.21
-2225.25
-2807.43
-2977.5
-2336.47
-2830.03
-2663.27
-2203.84
-2689.57
-2774.2
-2713.65
-2563.68
-2204.07
-2720.37
-2556.55
-2700.24
-2479.88
-1716.81
-2122.88
-2008.27
-1428.17
-1953.51
-2289.3
-1769.65
-2250.92
-1966.97
-1933.36
-2190.83
-2339.09
)
;
    }
}


// ************************************************************************* //
