/*--------------------------------*- C++ -*----------------------------------*\
| =========                 |                                                 |
| \\      /  F ield         | OpenFOAM: The Open Source CFD Toolbox           |
|  \\    /   O peration     | Version:  v1906                                 |
|   \\  /    A nd           | Web:      www.OpenFOAM.com                      |
|    \\/     M anipulation  |                                                 |
\*---------------------------------------------------------------------------*/
FoamFile
{
    version     2.0;
    format      ascii;
    class       volScalarField;
    location    "92/sphere";
    object      T;
}
// * * * * * * * * * * * * * * * * * * * * * * * * * * * * * * * * * * * * * //

dimensions      [0 0 0 1 0 0 0];


internalField   nonuniform List<scalar> 
304
(
452.894
452.921
452.915
452.932
452.891
452.88
452.894
452.923
452.892
453.028
453.028
452.932
452.914
453.021
453.021
452.955
452.914
452.946
452.876
452.921
452.938
452.894
452.922
453.029
453.028
452.961
452.932
453.022
453.022
452.98
452.878
452.945
452.972
452.91
452.895
452.934
452.961
452.898
452.893
452.956
452.98
452.919
452.877
452.91
452.866
452.882
452.895
452.896
452.896
452.927
452.895
452.895
452.927
452.897
452.882
452.894
452.897
452.894
452.925
452.921
452.92
452.935
452.933
452.962
452.959
452.983
452.894
452.935
452.921
452.962
452.933
452.984
452.96
452.894
452.897
452.926
452.894
452.887
452.887
452.918
452.879
452.931
452.878
452.91
452.953
452.979
452.917
452.949
452.917
452.911
452.881
452.98
452.955
452.95
452.919
452.92
452.89
452.88
452.864
452.878
452.874
452.909
452.875
452.91
452.876
452.874
452.864
452.895
452.894
452.894
452.926
452.923
452.933
452.963
452.922
452.938
452.962
452.987
452.895
452.963
452.934
452.938
452.923
452.987
452.962
452.896
452.895
452.926
452.895
452.933
452.92
452.959
452.921
452.961
452.935
452.983
452.893
452.96
452.921
452.961
452.922
452.984
452.935
452.954
452.879
452.919
452.932
452.98
452.91
452.949
452.916
452.92
452.881
452.98
452.932
452.95
452.911
452.877
452.879
452.91
452.875
452.945
452.873
452.904
452.946
452.972
452.903
452.921
452.915
452.904
452.872
452.972
452.946
452.921
452.904
452.909
452.878
452.874
452.893
452.894
452.927
452.898
452.938
452.962
452.987
452.894
452.922
452.934
452.962
452.922
452.987
452.961
452.922
452.892
452.961
452.931
452.926
452.894
452.894
452.962
452.935
452.984
452.896
452.935
452.922
452.961
452.921
452.984
452.935
452.933
452.894
452.96
452.921
452.98
452.911
452.95
452.918
452.956
452.883
452.921
452.932
452.951
452.912
452.955
452.916
452.92
452.882
452.909
452.875
452.877
452.972
452.904
452.921
452.915
452.946
452.873
452.904
452.947
452.922
452.905
452.947
452.917
452.905
452.876
452.88
452.876
452.878
452.885
452.894
452.897
452.926
452.894
452.926
452.895
452.893
452.881
452.9
452.895
452.927
452.895
452.961
452.961
452.984
452.896
452.922
452.921
452.935
452.933
452.984
452.96
452.921
452.892
452.935
452.92
452.925
452.894
452.893
452.922
452.883
452.89
452.98
452.92
452.95
452.916
452.932
452.881
452.912
452.955
452.95
452.92
452.932
452.916
452.912
452.882
452.888
452.881
452.887
452.866
452.91
452.876
452.88
452.878
452.876
452.879
)
;

boundaryField
{
    sphere_to_oil
    {
        type            compressible::turbulentTemperatureCoupledBaffleMixed;
        refValue        nonuniform List<scalar> 
360
(
330.918
330.918
321.709
354.008
360.757
324.63
361.748
361.748
361.748
340.872
340.872
328.611
333.334
320.682
340.416
348.325
344.403
344.403
344.403
322.201
343.348
323.461
327.244
356.722
317.393
356.95
322.957
356.955
356.955
356.955
362.243
355.591
321.61
321.282
328.345
328.442
345.275
345.275
345.275
344.617
345.391
321.616
323.114
331.369
331.369
322.77
331.08
314.791
330.572
357.272
324.563
324.696
332.591
333.162
321.947
323.218
344.763
322.285
323.164
332.013
316.469
358.039
358.039
358.039
314.839
356.648
330.483
322.924
360.292
360.292
360.292
361.194
360.011
319.841
344.302
339.816
321.696
326.551
345.331
345.315
327.978
319.719
327.668
316.36
321.599
324.201
328.525
333.034
321.205
322.426
321.839
332.018
328.176
321.943
331.663
328.147
328.762
329.11
325.016
316.513
316.621
321.897
324.575
328.168
331.923
321.825
320.568
333.232
324.665
329.067
328.809
328.945
325.005
322.202
314.993
314.953
327.412
323.125
328.409
330.842
330.842
354.008
354.008
356.722
356.722
354.443
354.443
354.443
356.081
356.081
356.081
327.793
323.361
327.352
322.812
360.757
360.757
337.927
337.927
362.243
362.243
337.396
337.396
361.655
361.655
361.655
322.498
322.249
348.851
348.851
348.851
348.673
348.673
348.673
348.325
343.348
340.416
348.325
348.545
322.073
348.545
348.545
327.291
328.096
319.843
323.55
323.55
346.575
346.575
346.575
316.427
343.348
323.461
345.789
345.789
316.321
345.789
328.079
319.766
314.87
322.982
323.314
331.692
317.277
331.144
323.236
314.918
316.73
356.95
356.95
355.591
355.591
331.756
331.756
354.036
354.036
354.036
330.316
330.316
316.388
327.639
324.988
332.105
327.895
324.306
331.934
324.715
333.289
329.137
324.517
344.617
333.073
329.192
322.338
346.017
346.017
346.017
323.939
323.939
316.37
323.296
323.128
331.782
345.391
321.539
331.715
323.411
344.617
345.391
323.726
322.265
323.726
316.658
314.899
331.005
317.312
323.121
323.017
323.262
317.146
316.316
357.985
353.033
357.985
357.985
353.033
353.033
357.272
356.648
330.572
355.238
316.558
357.272
355.238
355.238
331.319
321.41
327.947
331.864
321.957
361.194
327.971
328.761
328.576
324.822
344.763
344.302
329.089
328.659
324.969
344.37
348.355
323.218
345.66
316.455
344.763
345.66
345.66
332.209
321.512
345.331
323.222
323.396
323.098
345.706
321.493
345.439
323.59
344.37
323.59
345.706
344.37
345.706
314.741
323.191
326.947
327.106
330.836
354.14
330.836
354.14
354.14
316.367
356.648
355.21
330.483
355.21
316.401
355.21
327.914
327.664
321.341
359.318
338.069
359.318
359.318
338.069
321.876
324.233
327.704
331.817
360.011
361.194
337.583
322.487
360.011
337.583
321.765
344.302
348.798
339.816
348.798
321.041
348.798
333.317
345.315
324.819
329.334
348.115
344.975
348.355
339.416
348.355
348.115
339.416
348.115
319.667
327.57
345.331
323.56
316.414
345.315
323.56
322.54
345.439
344.975
345.439
323.609
344.975
323.609
)
;
        refGradient     uniform 0;
        valueFraction   nonuniform List<scalar> 
360
(
0.000140716
0.000134997
8.64269e-05
0.000308748
0.000316649
0.000181573
0.000318616
0.000273492
0.000425695
0.000135542
0.000132151
0.000177285
0.000270187
7.72531e-05
0.000138193
0.000268634
0.000307849
0.000287643
0.000403628
7.0692e-05
0.000265017
0.000130285
0.000120078
0.000318634
9.25128e-05
0.000327518
0.000184619
0.000323289
0.000423084
0.000283017
0.000323343
0.000326128
8.75736e-05
8.65952e-05
0.000181726
0.000178835
0.000302611
0.000410252
0.000281714
0.000423581
0.000418411
8.93439e-05
0.000177214
0.000129333
0.000129179
0.000182421
0.000272918
7.28142e-05
0.000130287
0.000276268
0.000179957
0.000181125
0.000269986
0.000267362
7.55382e-05
0.000138187
0.000281798
7.23636e-05
0.000179269
0.000267326
7.08317e-05
0.000314697
0.000277803
0.000434788
7.30224e-05
0.000284043
0.000132495
0.000128149
0.00032197
0.00042002
0.000282538
0.000405032
0.000410702
7.84415e-05
0.000273847
0.000138924
7.23208e-05
0.000129684
0.00040985
0.000425759
0.000127195
0.000124796
0.000122576
7.28493e-05
8.78457e-05
0.000178096
0.000179095
0.000271218
8.18708e-05
6.9129e-05
8.69388e-05
0.000270774
0.000178755
8.88086e-05
0.000270327
0.000180796
0.000179727
0.000180005
8.77788e-05
7.03587e-05
7.13457e-05
7.03963e-05
0.000180974
0.000177873
0.00027057
7.96603e-05
6.91938e-05
0.000270375
8.58947e-05
0.000178155
0.000178188
0.000181824
8.89101e-05
7.11957e-05
6.94326e-05
7.0774e-05
0.000123192
0.00012334
0.000128131
0.00013894
0.000130584
0.000269817
0.000425043
0.00028427
0.000428952
0.000274962
0.000422729
0.000314749
0.000275184
0.000413528
0.000309976
0.000126437
0.00011957
0.00012247
6.76085e-05
0.00028039
0.000422156
0.000130617
0.000131213
0.000426626
0.000283658
0.000136923
0.00014431
0.000421374
0.00028947
0.000333553
7.44071e-05
6.92443e-05
0.000292263
0.000405006
0.000321028
0.000300922
0.000419027
0.000320994
0.000331417
0.000305276
0.0001428
0.00042564
0.000274937
7.66538e-05
0.000413694
0.00030958
0.000118145
0.000124471
0.000123138
0.000129904
0.000135792
0.000423517
0.000278865
0.000327329
7.84842e-05
0.000407405
0.000139699
0.000428398
0.000274248
7.66621e-05
0.000325176
0.000119194
0.0001203
7.0285e-05
0.000184225
0.000184151
0.000272296
9.08032e-05
0.000272707
0.000179438
6.95633e-05
6.75484e-05
0.000426132
0.000270763
0.00042113
0.000280774
0.00013393
0.00012525
0.000423094
0.000264432
0.000305657
0.000123805
0.000143652
7.22704e-05
0.000180987
0.000180823
0.000270163
0.000176895
0.000177806
0.000269099
9.22364e-05
0.000270023
0.000183088
8.96972e-05
0.00030393
0.000269724
0.000181991
7.25297e-05
0.000413868
0.000268305
0.000313919
0.000130782
0.000121537
7.02035e-05
0.000179586
0.000182606
0.000270745
0.000307826
8.60937e-05
0.000268176
0.000175148
0.000266401
0.000282028
0.000128022
7.19078e-05
0.000142061
7.27975e-05
6.85226e-05
0.000273759
9.13599e-05
0.000184045
0.000181917
0.000179749
9.02114e-05
6.89095e-05
0.000279904
0.000262278
0.0004403
0.000327739
0.000410776
0.000295145
0.000316341
0.000323889
0.00014397
0.000277858
7.48623e-05
0.000422825
0.000411135
0.000312378
0.000272459
8.68161e-05
0.000177284
0.000269326
8.75936e-05
0.000320918
0.000178052
0.000179327
0.000177674
8.70646e-05
0.000318532
0.000298492
0.000181273
0.000176585
8.87409e-05
0.00029908
0.000329207
0.000130562
0.000295528
7.01877e-05
0.000421033
0.000408194
0.000308438
0.000267335
8.7823e-05
0.000308923
0.000177882
0.000178157
0.000179171
0.000310605
8.86459e-05
0.000317347
0.000133532
0.000273609
0.000134647
0.000278819
0.000424895
0.000417128
7.01522e-05
0.000140578
0.000138917
0.000135873
0.000123738
0.000413973
0.000135146
0.000275216
0.00032408
6.91299e-05
0.000418013
0.000417509
0.00013668
0.000296862
7.24453e-05
0.000318257
0.000121175
0.000119041
7.23858e-05
0.000409425
0.000122364
0.000268509
0.000316232
0.000131186
7.15148e-05
0.000177945
0.000177885
0.000268422
0.000307137
0.000266401
0.000128802
6.93317e-05
0.000270863
0.000143054
8.00731e-05
0.000392527
0.000421494
0.000124571
0.000267744
7.42325e-05
0.00033673
0.00027048
0.000324071
8.86542e-05
0.000178713
0.000312445
0.00030291
0.00028497
0.000127375
0.000417438
0.000416541
0.000151203
0.000278432
0.000122507
0.000124386
0.000280314
0.000138762
7.50251e-05
0.000283498
0.000133614
6.92842e-05
0.000412614
0.000417566
0.000274748
0.000133336
0.000269876
0.000137732
)
;
        value           nonuniform List<scalar> 
360
(
452.896
452.897
452.901
452.882
452.883
452.916
452.883
452.887
452.877
452.89
452.891
452.911
452.918
452.899
452.894
452.881
452.863
452.866
452.849
452.889
452.87
452.882
452.867
452.882
452.9
452.881
452.917
452.883
452.874
452.886
452.882
452.879
452.899
452.9
452.91
452.912
452.865
452.851
452.867
452.849
452.849
452.88
452.899
452.896
452.897
452.916
452.923
452.902
452.896
452.886
452.917
452.916
452.918
452.919
452.886
452.878
452.866
452.889
452.899
452.908
452.884
452.883
452.886
452.874
452.903
452.886
452.897
452.883
452.884
452.879
452.887
452.879
452.878
452.901
452.882
452.896
452.897
452.868
452.851
452.849
452.869
452.868
452.869
452.885
452.903
452.916
452.912
452.918
452.895
452.889
452.901
452.921
452.917
452.899
452.921
452.916
452.912
452.908
452.889
452.904
452.903
452.903
452.917
452.916
452.92
452.902
452.896
452.917
452.886
452.906
452.913
452.907
452.889
452.888
452.904
452.904
452.885
452.885
452.885
452.896
452.898
452.886
452.873
452.887
452.874
452.886
452.873
452.881
452.887
452.875
452.884
452.885
452.885
452.885
452.903
452.886
452.877
452.897
452.897
452.877
452.886
452.896
452.896
452.877
452.886
452.88
452.903
452.896
452.875
452.855
452.863
452.874
452.854
452.864
452.865
452.866
452.892
452.854
452.879
452.898
452.856
452.868
452.867
452.867
452.866
452.88
452.876
452.848
452.863
452.856
452.882
452.85
452.875
452.848
452.863
452.882
452.856
452.867
452.866
452.902
452.917
452.916
452.923
452.901
452.923
452.918
452.904
452.903
452.873
452.886
452.873
452.885
452.896
452.897
452.873
452.887
452.881
452.898
452.896
452.903
452.915
452.916
452.92
452.917
452.917
452.921
452.886
452.918
452.906
452.888
452.867
452.918
452.907
452.887
452.851
452.865
452.858
452.88
452.878
452.884
452.899
452.898
452.907
452.858
452.88
452.907
452.899
452.868
452.862
452.88
452.887
452.874
452.883
452.902
452.923
452.9
452.916
452.916
452.917
452.898
452.903
452.885
452.887
452.875
452.881
452.876
452.885
452.88
452.879
452.895
452.885
452.902
452.872
452.873
452.882
452.921
452.903
452.918
452.921
452.901
452.883
452.917
452.907
452.914
452.89
452.867
452.869
452.907
452.913
452.889
452.867
452.866
452.876
452.862
452.884
452.85
452.851
452.859
452.907
452.88
452.859
452.9
452.9
452.9
452.861
452.883
452.86
452.881
452.869
452.877
452.864
452.85
452.851
452.902
452.885
452.886
452.887
452.897
452.875
452.895
452.885
452.883
452.903
452.873
452.873
452.895
452.883
452.902
452.88
452.885
452.885
452.904
452.88
452.899
452.889
452.885
452.899
452.904
452.917
452.918
452.921
452.882
452.888
452.898
452.904
452.886
452.895
452.901
452.859
452.857
452.894
452.88
452.898
452.864
452.918
452.864
452.888
452.908
452.867
452.867
452.877
452.892
452.856
452.856
452.889
452.877
452.868
452.869
452.864
452.876
452.884
452.868
452.881
452.889
452.852
452.851
452.865
452.877
452.869
452.88
)
;
        Tnbr            T;
        thicknessLayers 0();
        kappaLayers     0();
        kappaMethod     solidThermo;
        kappa           none;
        alphaAni        none;
    }
}


// ************************************************************************* //
