/*--------------------------------*- C++ -*----------------------------------*\
| =========                 |                                                 |
| \\      /  F ield         | OpenFOAM: The Open Source CFD Toolbox           |
|  \\    /   O peration     | Version:  v1912                                 |
|   \\  /    A nd           | Website:  www.openfoam.com                      |
|    \\/     M anipulation  |                                                 |
\*---------------------------------------------------------------------------*/
FoamFile
{
    version     2.0;
    format      ascii;
    class       surfaceScalarField;
    location    "436/oil";
    object      phi;
}
// * * * * * * * * * * * * * * * * * * * * * * * * * * * * * * * * * * * * * //

dimensions      [1 0 -1 0 0 0 0];
oriented        oriented;


internalField   nonuniform List<scalar> 
104676
(
-1.25367e-11
2.85341e-11
-1.58733e-11
2.85108e-10
-2.34062e-10
-6.35828e-11
8.94146e-10
-4.39573e-10
-1.69465e-10
1.72049e-09
-5.3647e-10
-2.89877e-10
2.64273e-09
-5.48572e-10
-3.73664e-10
3.53949e-09
-4.98827e-10
-3.97929e-10
4.30121e-09
-4.05313e-10
-3.56403e-10
4.8363e-09
-2.81458e-10
-2.5363e-10
5.07343e-09
-1.37659e-10
-9.94729e-11
4.9737e-09
1.31147e-11
8.66254e-11
4.51823e-09
1.68939e-10
2.86525e-10
3.73858e-09
2.96075e-10
4.83581e-10
2.67549e-09
4.11605e-10
6.51483e-10
1.40532e-09
4.95289e-10
7.74883e-10
2.52973e-11
5.39506e-10
8.40522e-10
-1.359e-09
5.41886e-10
8.42416e-10
-2.63254e-09
4.95698e-10
7.77843e-10
-3.69974e-09
4.11191e-10
6.56014e-10
-4.48678e-09
2.97759e-10
4.89279e-10
-4.94769e-09
1.65238e-10
2.95673e-10
-5.05946e-09
1.41893e-11
9.75849e-11
-4.82738e-09
-1.40585e-10
-9.1489e-11
-4.29643e-09
-2.83832e-10
-2.47118e-10
-3.53779e-09
-4.07525e-10
-3.51111e-10
-2.64355e-09
-5.0062e-10
-3.93624e-10
-1.72309e-09
-5.51311e-10
-3.69146e-10
-8.97271e-10
-5.40593e-10
-2.85222e-10
-2.87906e-10
-4.44284e-10
-1.65079e-10
1.05702e-11
-2.38272e-10
-6.02026e-11
2.42419e-11
-1.36705e-11
2.9168e-10
-5.54825e-10
2.91679e-10
1.12671e-09
-1.66858e-09
5.9949e-10
2.45374e-09
-2.50923e-09
7.42619e-10
4.12524e-09
-3.02161e-09
8.13641e-10
5.9402e-09
-3.26738e-09
9.03858e-10
7.68214e-09
-3.3069e-09
1.06613e-09
9.14652e-09
-3.19185e-09
1.32216e-09
1.01563e-08
-2.96303e-09
1.67178e-09
1.05736e-08
-2.65463e-09
2.09972e-09
1.031e-08
-2.29749e-09
2.57424e-09
9.32432e-09
-1.92173e-09
3.07631e-09
7.6711e-09
-1.59268e-09
3.54197e-09
5.4739e-09
-1.30329e-09
3.9121e-09
2.87194e-09
-1.09394e-09
4.19119e-09
5.10561e-11
-9.84457e-10
4.34485e-09
-2.78067e-09
-9.85152e-10
4.35877e-09
-5.38943e-09
-1.09909e-09
4.20356e-09
-7.58826e-09
-1.31216e-09
3.92218e-09
-9.22727e-09
-1.60219e-09
3.53897e-09
-1.02152e-08
-1.93757e-09
3.09072e-09
-1.04938e-08
-2.3082e-09
2.60101e-09
-1.00899e-08
-2.66275e-09
2.11825e-09
-9.09653e-09
-2.9681e-09
1.69089e-09
-7.64989e-09
-3.19592e-09
1.34177e-09
-5.92251e-09
-3.31198e-09
1.08399e-09
-4.12054e-09
-3.27412e-09
9.20834e-10
-2.45718e-09
-3.03276e-09
8.28813e-10
-1.131e-09
-2.52385e-09
7.53397e-10
-2.93144e-10
-1.68046e-09
6.04332e-10
-5.60997e-10
2.92095e-10
6.14384e-10
-1.78947e-09
6.20265e-10
1.95337e-09
-4.33495e-09
1.32738e-09
3.83183e-09
-6.15517e-09
1.76749e-09
6.06507e-09
-7.34337e-09
2.08852e-09
8.4219e-09
-8.02647e-09
2.40226e-09
1.06477e-08
-8.30969e-09
2.77696e-09
1.24938e-08
-8.28365e-09
3.24573e-09
1.37397e-08
-8.02314e-09
3.81422e-09
1.42134e-08
-7.59617e-09
4.46786e-09
1.38048e-08
-7.0599e-09
5.17097e-09
1.24601e-08
-6.47636e-09
5.89931e-09
1.02363e-08
-5.9247e-09
6.55589e-09
7.29421e-09
-5.44096e-09
7.07973e-09
3.82374e-09
-5.08782e-09
7.46436e-09
6.55979e-11
-4.9058e-09
7.67949e-09
-3.71036e-09
-4.91452e-09
7.70533e-09
-7.19124e-09
-5.09997e-09
7.48176e-09
-1.01331e-08
-5.45514e-09
7.08487e-09
-1.23433e-08
-5.93535e-09
6.54336e-09
-1.37047e-08
-6.49184e-09
5.91564e-09
-1.41351e-08
-7.07404e-09
5.19622e-09
-1.36773e-08
-7.60629e-09
4.48575e-09
-1.24482e-08
-8.03105e-09
3.83385e-09
-1.06197e-08
-8.2896e-09
3.26524e-09
-8.41013e-09
-8.31706e-09
2.79549e-09
-6.06433e-09
-8.03864e-09
2.41872e-09
-3.83825e-09
-7.36043e-09
2.1016e-09
-1.96102e-09
-6.17584e-09
1.77475e-09
-6.18049e-10
-4.35103e-09
1.32761e-09
-1.79813e-09
6.19085e-10
8.81375e-10
-3.56296e-09
8.92109e-10
2.64451e-09
-8.02294e-09
1.92486e-09
4.97014e-09
-1.10844e-08
2.60356e-09
7.63125e-09
-1.31312e-08
3.12672e-09
1.03735e-08
-1.43968e-08
3.62811e-09
1.29228e-08
-1.50421e-08
4.1831e-09
1.501e-08
-1.5201e-08
4.83017e-09
1.63941e-08
-1.49843e-08
5.57711e-09
1.68795e-08
-1.44927e-08
6.41106e-09
1.63396e-08
-1.38185e-08
7.29847e-09
1.47112e-08
-1.3055e-08
8.20703e-09
1.2071e-08
-1.22934e-08
9.00895e-09
8.5943e-09
-1.16301e-08
9.66584e-09
4.50201e-09
-1.11191e-08
1.01235e-08
7.40766e-11
-1.08587e-08
1.03808e-08
-4.37748e-09
-1.08771e-08
1.04142e-08
-8.4835e-09
-1.11321e-08
1.01382e-08
-1.19619e-08
-1.16298e-08
9.65306e-09
-1.45898e-08
-1.22966e-08
8.9891e-09
-1.62316e-08
-1.30612e-08
8.21121e-09
-1.67913e-08
-1.38249e-08
7.31055e-09
-1.63236e-08
-1.44974e-08
6.42341e-09
-1.49589e-08
-1.49884e-08
5.59271e-09
-1.28894e-08
-1.52046e-08
4.84549e-09
-1.03574e-08
-1.50483e-08
4.19918e-09
-7.62977e-09
-1.4409e-08
3.64273e-09
-4.97559e-09
-1.31512e-08
3.13654e-09
-2.65206e-09
-1.11037e-08
2.60437e-09
-8.87909e-10
-8.02947e-09
1.91429e-09
-3.57486e-09
8.88827e-10
1.08278e-09
-5.73854e-09
1.0928e-09
3.17332e-09
-1.24752e-08
2.36168e-09
5.84933e-09
-1.69789e-08
3.21857e-09
8.84068e-09
-2.00137e-08
3.89116e-09
1.18718e-08
-2.19612e-08
4.53336e-09
1.46551e-08
-2.30552e-08
5.22976e-09
1.69106e-08
-2.34773e-08
6.02088e-09
1.83841e-08
-2.33755e-08
6.91773e-09
1.88713e-08
-2.28834e-08
7.90351e-09
1.82326e-08
-2.2126e-08
8.94619e-09
1.64005e-08
-2.1232e-08
1.00091e-08
1.34544e-08
-2.03133e-08
1.09661e-08
9.57153e-09
-1.94886e-08
1.17413e-08
5.01085e-09
-1.88188e-08
1.22605e-08
7.96964e-11
-1.84801e-08
1.25526e-08
-4.87914e-09
-1.85053e-08
1.2587e-08
-9.44944e-09
-1.88352e-08
1.22734e-08
-1.33268e-08
-1.94649e-08
1.17124e-08
-1.62706e-08
-2.03072e-08
1.09544e-08
-1.8118e-08
-2.12313e-08
1.00175e-08
-1.87769e-08
-2.21264e-08
8.96046e-09
-1.83093e-08
-2.28838e-08
7.9187e-09
-1.68543e-08
-2.3377e-08
6.93363e-09
-1.46159e-08
-2.34797e-08
6.03667e-09
-1.18491e-08
-2.30598e-08
5.24478e-09
-8.83355e-09
-2.19705e-08
4.54601e-09
-5.8528e-09
-2.003e-08
3.89805e-09
-3.17879e-09
-1.6993e-08
3.21528e-09
-1.08845e-09
-1.24661e-08
2.34624e-09
-5.7532e-09
1.08989e-09
1.2181e-09
-8.18659e-09
1.22995e-09
3.54111e-09
-1.74515e-08
2.65332e-09
6.4718e-09
-2.35424e-08
3.63282e-09
9.70271e-09
-2.76568e-08
4.41217e-09
1.2942e-08
-3.03575e-08
5.15696e-09
1.58935e-08
-3.19687e-08
5.96196e-09
1.82706e-08
-3.27244e-08
6.86996e-09
1.98123e-08
-3.28116e-08
7.89443e-09
2.03065e-08
-3.23943e-08
9.01664e-09
1.96087e-08
-3.16269e-08
1.01987e-08
1.76479e-08
-3.06665e-08
1.13954e-08
1.44784e-08
-2.96675e-08
1.25237e-08
1.02953e-08
-2.8727e-08
1.34215e-08
5.38662e-09
-2.791e-08
1.39998e-08
7.96762e-11
-2.74833e-08
1.43101e-08
-5.25736e-09
-2.75106e-08
1.43423e-08
-1.01657e-08
-2.79476e-08
1.40207e-08
-1.43347e-08
-2.86808e-08
1.33849e-08
-1.75081e-08
-2.96533e-08
1.25195e-08
-1.94874e-08
-3.06623e-08
1.14102e-08
-2.02079e-08
-3.16233e-08
1.02174e-08
-1.97346e-08
-3.23925e-08
9.03535e-09
-1.82119e-08
-3.28122e-08
7.91254e-09
-1.5852e-08
-3.27265e-08
6.88691e-09
-1.29155e-08
-3.19726e-08
5.97624e-09
-9.69042e-09
-3.03642e-08
5.16862e-09
-6.47117e-09
-2.76663e-08
4.41711e-09
-3.54682e-09
-2.35436e-08
3.62626e-09
-1.22439e-09
-1.74257e-08
2.63722e-09
-8.20597e-09
1.22838e-09
1.28621e-09
-1.0787e-08
1.31425e-09
3.75222e-09
-2.276e-08
2.84254e-09
6.84345e-09
-3.05201e-08
3.88648e-09
1.02229e-08
-3.5761e-08
4.7248e-09
1.359e-08
-3.92637e-08
5.53906e-09
1.66455e-08
-4.14491e-08
6.42496e-09
1.91017e-08
-4.26079e-08
7.42726e-09
2.06925e-08
-4.29645e-08
8.5621e-09
2.12029e-08
-4.27122e-08
9.80764e-09
2.048e-08
-4.20263e-08
1.11223e-08
1.84513e-08
-4.10914e-08
1.24536e-08
1.5135e-08
-4.00872e-08
1.37359e-08
1.0767e-08
-3.91217e-08
1.47627e-08
5.63266e-09
-3.8171e-08
1.53954e-08
8.67592e-11
-3.7664e-08
1.57266e-08
-5.48447e-09
-3.77056e-08
1.57663e-08
-1.06356e-08
-3.82417e-08
1.54453e-08
-1.49878e-08
-3.90659e-08
1.47373e-08
-1.83075e-08
-4.00732e-08
1.37397e-08
-2.03561e-08
-4.10905e-08
1.24769e-08
-2.11016e-08
-4.20261e-08
1.11484e-08
-2.06131e-08
-4.27126e-08
9.83166e-09
-1.90414e-08
-4.29674e-08
8.58342e-09
-1.66026e-08
-4.26126e-08
7.44742e-09
-1.35612e-08
-4.14543e-08
6.44032e-09
-1.02076e-08
-3.92683e-08
5.55054e-09
-6.84078e-09
-3.57605e-08
4.72733e-09
-3.76169e-09
-3.04944e-08
3.87164e-09
-1.30184e-09
-2.26976e-08
2.81205e-09
-1.08185e-08
1.3107e-09
1.31171e-09
-1.34409e-08
1.3421e-09
3.81936e-09
-2.81825e-08
2.91487e-09
6.96361e-09
-3.76539e-08
3.98954e-09
1.03937e-08
-4.4044e-08
4.85294e-09
1.37992e-08
-4.83703e-08
5.70116e-09
1.68853e-08
-5.11765e-08
6.64131e-09
1.93692e-08
-5.28072e-08
7.71548e-09
2.09863e-08
-5.35209e-08
8.93927e-09
2.15168e-08
-5.35342e-08
1.02914e-08
2.08054e-08
-5.30414e-08
1.17265e-08
1.87665e-08
-5.22382e-08
1.31857e-08
1.53996e-08
-5.13285e-08
1.46081e-08
1.09492e-08
-5.0451e-08
1.57797e-08
5.71969e-09
-4.93903e-08
1.64489e-08
8.62753e-11
-4.88483e-08
1.68177e-08
-5.58039e-09
-4.88992e-08
1.68603e-08
-1.0847e-08
-4.94631e-08
1.6488e-08
-1.52625e-08
-5.03916e-08
1.57411e-08
-1.86244e-08
-5.13176e-08
1.46063e-08
-2.06816e-08
-5.22415e-08
1.32083e-08
-2.14164e-08
-5.30442e-08
1.17529e-08
-2.09073e-08
-5.35379e-08
1.03162e-08
-1.93086e-08
-5.35281e-08
8.96204e-09
-1.68412e-08
-5.28171e-08
7.73712e-09
-1.37687e-08
-5.11858e-08
6.659e-09
-1.03772e-08
-4.83728e-08
5.71299e-09
-6.9646e-09
-4.40202e-08
4.84707e-09
-3.83468e-09
-3.7583e-08
3.95875e-09
-1.32594e-09
-2.80808e-08
2.87449e-09
-1.34855e-08
1.34103e-09
1.28894e-09
-1.60476e-08
1.31777e-09
3.73687e-09
-3.35061e-08
2.87569e-09
6.81686e-09
-4.46944e-08
3.96043e-09
1.01876e-08
-5.22398e-08
4.82503e-09
1.3536e-08
-5.73842e-08
5.6654e-09
1.65667e-08
-6.08223e-08
6.61512e-09
1.90125e-08
-6.29786e-08
7.72556e-09
2.06191e-08
-6.41318e-08
9.00426e-09
2.11669e-08
-6.45099e-08
1.04278e-08
2.04972e-08
-6.43217e-08
1.195e-08
1.8529e-08
-6.37668e-08
1.34969e-08
1.52472e-08
-6.30422e-08
1.49955e-08
1.08228e-08
-6.2313e-08
1.62864e-08
5.64629e-09
-6.12196e-08
1.70058e-08
8.17059e-11
-6.07239e-08
1.74402e-08
-5.52313e-09
-6.07689e-08
1.74745e-08
-1.07512e-08
-6.12469e-08
1.70119e-08
-1.51348e-08
-6.22226e-08
1.62146e-08
-1.83938e-08
-6.30317e-08
1.49731e-08
-2.03764e-08
-6.37735e-08
1.35146e-08
-2.10674e-08
-6.43297e-08
1.19765e-08
-2.05404e-08
-6.45184e-08
1.04535e-08
-1.89523e-08
-6.4144e-08
9.0278e-09
-1.65223e-08
-6.29948e-08
7.74765e-09
-1.35067e-08
-6.08317e-08
6.63019e-09
-1.01817e-08
-5.73561e-08
5.65834e-09
-6.8348e-09
-5.21476e-08
4.78049e-09
-3.76312e-09
-4.4549e-08
3.89432e-09
-1.29773e-09
-3.33756e-08
2.82935e-09
-1.61017e-08
1.31847e-09
1.22281e-09
-1.8506e-08
1.23563e-09
3.53336e-09
-3.85166e-08
2.69989e-09
6.41092e-09
-5.1328e-08
3.75607e-09
9.58255e-09
-6.00277e-08
4.61633e-09
1.27593e-08
-6.59938e-08
5.43279e-09
1.5637e-08
-7.00401e-08
6.34018e-09
1.79649e-08
-7.27401e-08
7.4336e-09
1.95086e-08
-7.43913e-08
8.71579e-09
2.00622e-08
-7.52195e-08
1.0156e-08
1.94635e-08
-7.54305e-08
1.17075e-08
1.76353e-08
-7.52229e-08
1.32844e-08
1.45627e-08
-7.47744e-08
1.48048e-08
1.03045e-08
-7.42132e-08
1.61584e-08
5.37255e-09
-7.32273e-08
1.69396e-08
7.57304e-11
-7.28268e-08
1.73998e-08
-5.25208e-09
-7.28693e-08
1.74282e-08
-1.0218e-08
-7.32007e-08
1.69197e-08
-1.44529e-08
-7.40315e-08
1.60438e-08
-1.75092e-08
-7.47492e-08
1.47739e-08
-1.93469e-08
-7.52349e-08
1.32992e-08
-1.99662e-08
-7.54434e-08
1.1733e-08
-1.94338e-08
-7.5232e-08
1.01811e-08
-1.79064e-08
-7.441e-08
8.73861e-09
-1.55913e-08
-7.27625e-08
7.45262e-09
-1.27367e-08
-7.00252e-08
6.33895e-09
-9.59521e-09
-6.58771e-08
5.37961e-09
-6.43251e-09
-5.9833e-08
4.52271e-09
-3.53647e-09
-5.11161e-08
3.67105e-09
-1.21847e-09
-3.83553e-08
2.66176e-09
-1.8562e-08
1.24188e-09
1.10341e-09
-2.0706e-08
1.09662e-09
3.19555e-09
-4.29736e-08
2.36488e-09
5.77407e-09
-5.72179e-08
3.31143e-09
8.59142e-09
-6.69979e-08
4.15288e-09
1.14485e-08
-7.37923e-08
4.9414e-09
1.40535e-08
-7.84255e-08
5.78039e-09
1.61723e-08
-8.16591e-08
6.80027e-09
1.75942e-08
-8.38363e-08
8.02307e-09
1.81288e-08
-8.51592e-08
9.40506e-09
1.76285e-08
-8.58198e-08
1.08897e-08
1.60365e-08
-8.59937e-08
1.23627e-08
1.33117e-08
-8.58091e-08
1.37595e-08
9.38899e-09
-8.53737e-08
1.50832e-08
4.88602e-09
-8.47267e-08
1.60023e-08
6.84856e-11
-8.44919e-08
1.64826e-08
-4.76801e-09
-8.45345e-08
1.65017e-08
-9.24737e-09
-8.47051e-08
1.59837e-08
-1.30986e-08
-8.52834e-08
1.51032e-08
-1.58616e-08
-8.59171e-08
1.39308e-08
-1.75087e-08
-8.60419e-08
1.24541e-08
-1.80351e-08
-8.58392e-08
1.09222e-08
-1.75233e-08
-8.51684e-08
9.42459e-09
-1.6115e-08
-8.38573e-08
8.03901e-09
-1.40041e-08
-8.16825e-08
6.80914e-09
-1.14237e-08
-7.83569e-08
5.75124e-09
-8.59108e-09
-7.35532e-08
4.84341e-09
-5.73744e-09
-6.67227e-08
4.03607e-09
-3.13878e-09
-5.69714e-08
3.25666e-09
-1.07106e-09
-4.27789e-08
2.35583e-09
-2.07374e-08
1.1043e-09
9.29628e-10
-2.25406e-08
9.04976e-10
2.712e-09
-4.66567e-08
1.90069e-09
4.89054e-09
-6.20115e-08
2.61504e-09
7.25319e-09
-7.26932e-08
3.3326e-09
9.60653e-09
-8.02365e-08
4.0909e-09
1.17921e-08
-8.54833e-08
4.87219e-09
1.35987e-08
-8.92373e-08
5.77162e-09
1.48406e-08
-9.19394e-08
6.86128e-09
1.53452e-08
-9.37613e-08
8.09752e-09
1.49776e-08
-9.48381e-08
9.38579e-09
1.36483e-08
-9.53123e-08
1.0648e-08
1.12741e-08
-9.54203e-08
1.19854e-08
7.96279e-09
-9.53097e-08
1.32473e-08
4.15623e-09
-9.50174e-08
1.40973e-08
5.69337e-11
-9.4922e-08
1.45294e-08
-4.07177e-09
-9.48971e-08
1.44914e-08
-7.88507e-09
-9.48663e-08
1.39746e-08
-1.11488e-08
-9.51744e-08
1.31547e-08
-1.34798e-08
-9.56896e-08
1.21036e-08
-1.48388e-08
-9.54072e-08
1.07243e-08
-1.52404e-08
-9.48223e-08
9.3847e-09
-1.47689e-08
-9.3724e-08
8.08423e-09
-1.35428e-08
-9.19417e-08
6.85822e-09
-1.1725e-08
-8.92602e-08
5.75984e-09
-9.54e-09
-8.53706e-08
4.82871e-09
-7.16937e-09
-7.99781e-08
4.05428e-09
-4.81357e-09
-7.24782e-08
3.39964e-09
-2.65068e-09
-6.18988e-08
2.76445e-09
-9.14338e-10
-4.65187e-08
2.00344e-09
-2.25867e-08
9.35019e-10
7.13118e-10
-2.39359e-08
6.82109e-10
2.05414e-09
-4.9451e-08
1.45327e-09
3.73577e-09
-6.56558e-08
1.96261e-09
5.53681e-09
-7.68962e-08
2.402e-09
7.28254e-09
-8.49287e-08
2.94647e-09
8.9074e-09
-9.07139e-08
3.60569e-09
1.02778e-08
-9.49569e-08
4.34918e-09
1.12688e-08
-9.81242e-08
5.19379e-09
1.17526e-08
-1.00385e-07
6.14028e-09
1.14938e-08
-1.01745e-07
7.16577e-09
1.0355e-08
-1.02479e-07
8.30562e-09
8.44665e-09
-1.02988e-07
9.47643e-09
6.04762e-09
-1.03374e-07
1.04635e-08
3.19405e-09
-1.03305e-07
1.11416e-08
4.96086e-11
-1.03244e-07
1.14669e-08
-3.14731e-09
-1.03091e-07
1.13911e-08
-6.05963e-09
-1.02927e-07
1.09728e-08
-8.51121e-09
-1.02991e-07
1.02681e-08
-1.03616e-08
-1.03111e-07
9.27165e-09
-1.13876e-08
-1.02431e-07
8.04991e-09
-1.16372e-08
-1.01568e-07
6.99542e-09
-1.12388e-08
-1.00142e-07
6.01979e-09
-1.03009e-08
-9.80031e-08
5.12351e-09
-8.9376e-09
-9.49923e-08
4.36884e-09
-7.27672e-09
-9.07497e-08
3.71824e-09
-5.47216e-09
-8.49092e-08
3.12655e-09
-3.67369e-09
-7.68797e-08
2.60309e-09
-2.02237e-09
-6.565e-08
2.09994e-09
-6.98584e-10
-4.936e-08
1.5175e-09
-2.39922e-08
7.06936e-10
4.81633e-10
-2.48322e-08
4.14725e-10
1.29892e-09
-5.11401e-08
8.71859e-10
2.34804e-09
-6.7966e-08
1.26111e-09
3.48671e-09
-7.96094e-08
1.57454e-09
4.60384e-09
-8.7981e-08
1.93521e-09
5.64933e-09
-9.41097e-08
2.35037e-09
6.52722e-09
-9.86262e-08
2.79144e-09
7.12315e-09
-1.01954e-07
3.23372e-09
7.44426e-09
-1.04422e-07
3.71541e-09
7.25626e-09
-1.05981e-07
4.42432e-09
6.50922e-09
-1.07028e-07
5.29631e-09
5.35359e-09
-1.07931e-07
6.09805e-09
3.84207e-09
-1.08588e-07
6.72493e-09
2.0362e-09
-1.0866e-07
7.16031e-09
5.98887e-11
-1.0867e-07
7.40193e-09
-1.94649e-09
-1.08466e-07
7.3808e-09
-3.78584e-09
-1.08223e-07
7.13538e-09
-5.30386e-09
-1.08161e-07
6.6876e-09
-6.48969e-09
-1.08002e-07
6.07685e-09
-7.21892e-09
-1.06973e-07
5.27099e-09
-7.49054e-09
-1.05717e-07
4.42018e-09
-7.27819e-09
-1.03982e-07
3.62741e-09
-6.63522e-09
-1.01665e-07
3.01906e-09
-5.68539e-09
-9.85447e-08
2.60257e-09
-4.58909e-09
-9.41186e-08
2.27258e-09
-3.43753e-09
-8.80116e-08
1.95082e-09
-2.30132e-09
-7.96475e-08
1.63157e-09
-1.26311e-09
-6.80036e-08
1.31532e-09
-4.36723e-10
-5.11347e-08
9.48392e-10
-2.48704e-08
4.4148e-10
1.75835e-10
-2.51488e-08
1.40776e-10
4.51061e-10
-5.17167e-08
3.01418e-10
8.20032e-10
-6.8785e-08
4.50065e-10
1.22527e-09
-8.05768e-08
5.62131e-10
1.6345e-09
-8.90646e-08
6.74313e-10
2.04912e-09
-9.52921e-08
7.67805e-10
2.43471e-09
-9.98611e-08
8.49312e-10
2.66481e-09
-1.03166e-07
9.81617e-10
2.69702e-09
-1.05643e-07
1.1888e-09
2.55153e-09
-1.0732e-07
1.48425e-09
2.32033e-09
-1.08591e-07
1.79381e-09
1.98136e-09
-1.09647e-07
2.05566e-09
1.34363e-09
-1.10183e-07
2.23316e-09
6.67167e-10
-1.10343e-07
2.35906e-09
3.46372e-11
-1.10523e-07
2.4855e-09
-6.69385e-10
-1.10355e-07
2.59281e-09
-1.32811e-09
-1.10152e-07
2.5877e-09
-1.84882e-09
-1.10058e-07
2.41779e-09
-2.25899e-09
-1.09784e-07
2.19252e-09
-2.51265e-09
-1.08636e-07
1.9163e-09
-2.61575e-09
-1.07238e-07
1.62447e-09
-2.55134e-09
-1.05389e-07
1.34262e-09
-2.32753e-09
-1.03002e-07
1.1126e-09
-1.99171e-09
-9.98183e-08
9.37736e-10
-1.60141e-09
-9.53013e-08
7.9243e-10
-1.19319e-09
-8.90817e-08
6.61875e-10
-7.9218e-10
-8.05959e-08
5.47425e-10
-4.29831e-10
-6.88064e-08
4.40499e-10
-1.47763e-10
-5.17313e-08
3.14468e-10
-2.51697e-08
1.51443e-10
-1.2429e-10
-2.48878e-08
-1.36693e-10
-3.86313e-10
-5.11789e-08
-2.75859e-10
-7.08637e-10
-6.80865e-08
-3.76168e-10
-1.06136e-09
-7.97555e-08
-4.68555e-10
-1.42517e-09
-8.81463e-08
-5.54477e-10
-1.79084e-09
-9.43107e-08
-6.15786e-10
-2.13216e-09
-9.88579e-08
-6.61925e-10
-2.34899e-09
-1.02196e-07
-7.52528e-10
-2.35377e-09
-1.04676e-07
-9.6267e-10
-2.19581e-09
-1.06201e-07
-1.2771e-09
-1.99086e-09
-1.0722e-07
-1.57611e-09
-1.81318e-09
-1.08049e-07
-1.77649e-09
-1.53183e-09
-1.08558e-07
-1.90653e-09
-9.45467e-10
-1.08886e-07
-2.04242e-09
-9.08675e-11
-1.09128e-07
-2.24918e-09
6.11315e-10
-1.08728e-07
-2.32917e-09
1.21585e-09
-1.08521e-07
-2.2353e-09
1.75916e-09
-1.08513e-07
-2.08774e-09
2.05856e-09
-1.08186e-07
-1.89785e-09
2.25078e-09
-1.07153e-07
-1.67476e-09
2.34628e-09
-1.05908e-07
-1.42576e-09
2.29439e-09
-1.04167e-07
-1.17046e-09
2.11479e-09
-1.01852e-07
-9.703e-10
1.81328e-09
-9.86908e-08
-8.25899e-10
1.46377e-09
-9.42367e-08
-7.15149e-10
1.10116e-09
-8.81089e-08
-6.10206e-10
7.39042e-10
-7.97282e-08
-5.05606e-10
4.10829e-10
-6.80776e-08
-4.00652e-10
1.48028e-10
-5.11902e-08
-2.78282e-10
-2.48921e-08
-1.29568e-10
-4.2129e-10
-2.40412e-08
-4.25308e-10
-1.22417e-09
-4.94659e-08
-9.10053e-10
-2.22642e-09
-6.58205e-08
-1.2638e-09
-3.32403e-09
-7.70884e-08
-1.56948e-09
-4.4269e-09
-8.5155e-08
-1.88849e-09
-5.44922e-09
-9.10434e-08
-2.24499e-09
-6.29858e-09
-9.53642e-08
-2.64432e-09
-6.89996e-09
-9.85005e-08
-3.09438e-09
-7.17804e-09
-1.00798e-07
-3.5997e-09
-6.96346e-09
-1.02162e-07
-4.25394e-09
-6.24822e-09
-1.02863e-07
-5.07244e-09
-5.218e-09
-1.03269e-07
-5.80965e-09
-3.81654e-09
-1.03583e-07
-6.3763e-09
-2.05411e-09
-1.03828e-07
-6.82127e-09
-3.74433e-11
-1.04035e-07
-7.10997e-09
1.91069e-09
-1.03592e-07
-7.08324e-09
3.74244e-09
-1.03514e-07
-6.83863e-09
5.34522e-09
-1.03719e-07
-6.39699e-09
6.30697e-09
-1.0336e-07
-5.78751e-09
6.93207e-09
-1.02685e-07
-5.09303e-09
7.20901e-09
-1.0189e-07
-4.29447e-09
7.00199e-09
-1.00499e-07
-3.46101e-09
6.40318e-09
-9.83406e-08
-2.91223e-09
5.48714e-09
-9.52279e-08
-2.54694e-09
4.43505e-09
-9.09659e-08
-2.21865e-09
3.34554e-09
-8.5129e-08
-1.89037e-09
2.25214e-09
-7.70777e-08
-1.55709e-09
1.25893e-09
-6.58532e-08
-1.23113e-09
4.5731e-10
-4.95323e-08
-8.56264e-10
-2.40265e-08
-4.08257e-10
-6.89182e-10
-2.26611e-08
-6.90922e-10
-1.98702e-09
-4.66838e-08
-1.48427e-09
-3.60798e-09
-6.21387e-08
-2.06079e-09
-5.37474e-09
-7.27631e-08
-2.55858e-09
-7.14125e-09
-8.03103e-08
-3.07812e-09
-8.75449e-09
-8.57504e-08
-3.67975e-09
-1.00697e-08
-8.96759e-08
-4.37302e-09
-1.10008e-08
-9.23936e-08
-5.17574e-09
-1.14661e-08
-9.42517e-08
-6.08074e-09
-1.12366e-08
-9.53664e-08
-7.02476e-09
-1.01482e-08
-9.58407e-08
-8.11032e-09
-8.34155e-09
-9.58423e-08
-9.23361e-09
-5.97769e-09
-9.57627e-08
-1.0184e-08
-3.16018e-09
-9.57687e-08
-1.08764e-08
-4.13585e-11
-9.59044e-08
-1.12496e-08
3.0618e-09
-9.55306e-08
-1.1165e-08
5.95214e-09
-9.55957e-08
-1.08088e-08
8.45495e-09
-9.60858e-08
-1.0136e-08
1.01571e-08
-9.59019e-08
-9.16025e-09
1.11861e-08
-9.56292e-08
-8.08481e-09
1.14977e-08
-9.51992e-08
-7.00266e-09
1.11036e-08
-9.41872e-08
-5.9174e-09
1.01297e-08
-9.2386e-08
-4.98072e-09
8.74871e-09
-8.96455e-08
-4.20142e-09
7.11331e-09
-8.57962e-08
-3.53435e-09
5.38049e-09
-8.04562e-08
-2.93996e-09
3.64882e-09
-7.29266e-08
-2.41943e-09
2.04901e-09
-6.23302e-08
-1.92319e-09
7.31949e-10
-4.6863e-08
-1.35231e-09
-2.26421e-08
-6.52485e-10
-9.19864e-10
-2.08277e-08
-9.13579e-10
-2.62787e-09
-4.30094e-08
-1.96639e-09
-4.76519e-09
-5.72576e-08
-2.74386e-09
-7.09824e-09
-6.70421e-08
-3.38801e-09
-9.44168e-09
-7.39218e-08
-4.0451e-09
-1.16125e-08
-7.87678e-08
-4.81186e-09
-1.34193e-08
-8.21352e-08
-5.73387e-09
-1.46397e-08
-8.43539e-08
-6.81931e-09
-1.51374e-08
-8.57225e-08
-8.03152e-09
-1.4782e-08
-8.6435e-08
-9.28676e-09
-1.34507e-08
-8.66376e-08
-1.05344e-08
-1.10698e-08
-8.64129e-08
-1.18104e-08
-7.8627e-09
-8.59527e-08
-1.30171e-08
-4.11973e-09
-8.56112e-08
-1.39005e-08
-3.35614e-11
-8.56218e-08
-1.43687e-08
4.04312e-09
-8.53567e-08
-1.42507e-08
7.82334e-09
-8.55681e-08
-1.38079e-08
1.10805e-08
-8.63163e-08
-1.30266e-08
1.34198e-08
-8.64953e-08
-1.17459e-08
1.47664e-08
-8.65932e-08
-1.03827e-08
1.51577e-08
-8.64165e-08
-9.17402e-09
1.46842e-08
-8.57424e-08
-7.97123e-09
1.34633e-08
-8.43889e-08
-6.77614e-09
1.16774e-08
-8.21633e-08
-5.69633e-09
9.5127e-09
-7.88424e-08
-4.78902e-09
7.18443e-09
-7.41273e-08
-4.00067e-09
4.87827e-09
-6.73943e-08
-3.22619e-09
2.72788e-09
-5.76838e-08
-2.49598e-09
9.63791e-10
-4.33371e-08
-1.76178e-09
-2.08151e-08
-8.63206e-10
-1.09901e-09
-1.86406e-08
-1.08805e-09
-3.13053e-09
-3.86479e-08
-2.32997e-09
-5.70035e-09
-5.14308e-08
-3.2569e-09
-8.53601e-09
-6.01711e-08
-4.03528e-09
-1.13655e-08
-6.62643e-08
-4.82801e-09
-1.39467e-08
-7.04627e-08
-5.72392e-09
-1.60585e-08
-7.32472e-08
-6.77623e-09
-1.74707e-08
-7.49455e-08
-7.99626e-09
-1.79979e-08
-7.58217e-08
-9.37351e-09
-1.75002e-08
-7.60835e-08
-1.08492e-08
-1.59079e-08
-7.59138e-08
-1.23161e-08
-1.31742e-08
-7.54755e-08
-1.3671e-08
-9.34201e-09
-7.48651e-08
-1.49198e-08
-4.84965e-09
-7.41867e-08
-1.59169e-08
-2.44499e-11
-7.39604e-08
-1.64866e-08
4.78374e-09
-7.3771e-08
-1.63938e-08
9.26263e-09
-7.41426e-08
-1.59043e-08
1.30906e-08
-7.50797e-08
-1.50646e-08
1.58599e-08
-7.55297e-08
-1.37349e-08
1.74914e-08
-7.59293e-08
-1.22955e-08
1.80066e-08
-7.61014e-08
-1.08303e-08
1.74882e-08
-7.58514e-08
-9.37265e-09
1.60819e-08
-7.49834e-08
-7.99922e-09
1.39822e-08
-7.32879e-08
-6.77568e-09
1.13959e-08
-7.05163e-08
-5.73983e-09
8.54774e-09
-6.63813e-08
-4.89778e-09
5.71662e-09
-6.04152e-08
-4.14799e-09
3.16201e-09
-5.17673e-08
-3.36198e-09
1.10729e-09
-3.88988e-08
-2.38362e-09
-1.8622e-08
-1.08573e-09
-1.22005e-09
-1.61829e-08
-1.23766e-09
-3.52947e-09
-3.36691e-08
-2.66947e-09
-6.42141e-09
-4.48636e-08
-3.67534e-09
-9.58142e-09
-5.24933e-08
-4.51783e-09
-1.27267e-08
-5.77523e-08
-5.36664e-09
-1.55901e-08
-6.12764e-08
-6.32292e-09
-1.7913e-08
-6.34885e-08
-7.43581e-09
-1.9452e-08
-6.46873e-08
-8.71918e-09
-1.99991e-08
-6.51116e-08
-1.01631e-08
-1.93996e-08
-6.49674e-08
-1.17156e-08
-1.75716e-08
-6.4453e-08
-1.32888e-08
-1.45184e-08
-6.37649e-08
-1.47638e-08
-1.03105e-08
-6.30382e-08
-1.60348e-08
-5.3147e-09
-6.22287e-08
-1.69539e-08
-1.61374e-11
-6.17546e-08
-1.75044e-08
5.29362e-09
-6.1634e-08
-1.74468e-08
1.02739e-08
-6.21448e-08
-1.69782e-08
1.44608e-08
-6.31037e-08
-1.61629e-08
1.75348e-08
-6.37857e-08
-1.4818e-08
1.93815e-08
-6.44718e-08
-1.33042e-08
1.9996e-08
-6.49888e-08
-1.17271e-08
1.94587e-08
-6.5139e-08
-1.0175e-08
1.7927e-08
-6.47212e-08
-8.73055e-09
1.56112e-08
-6.35287e-08
-7.44336e-09
1.27502e-08
-6.13228e-08
-6.33246e-09
9.58584e-09
-5.78149e-08
-5.4021e-09
6.39342e-09
-5.2611e-08
-4.61177e-09
3.49523e-09
-4.50557e-08
-3.8134e-09
1.2122e-09
-3.38557e-08
-2.75999e-09
-1.61679e-08
-1.24191e-09
-1.27545e-09
-1.35769e-08
-1.3306e-09
-3.75769e-09
-2.83175e-08
-2.8693e-09
-6.84651e-09
-3.78681e-08
-3.90661e-09
-1.02028e-08
-4.43541e-08
-4.78284e-09
-1.35403e-08
-4.87545e-08
-5.66026e-09
-1.657e-08
-5.16125e-08
-6.63426e-09
-1.90167e-08
-5.32867e-08
-7.75512e-09
-2.06231e-08
-5.40412e-08
-9.03974e-09
-2.11685e-08
-5.40938e-08
-1.04723e-08
-2.04929e-08
-5.36414e-08
-1.20016e-08
-1.8517e-08
-5.28737e-08
-1.35552e-08
-1.52448e-08
-5.19912e-08
-1.50459e-08
-1.08412e-08
-5.11111e-08
-1.63307e-08
-5.58069e-09
-5.02893e-08
-1.71999e-08
-8.40907e-12
-4.97116e-08
-1.76152e-08
5.58114e-09
-4.96621e-08
-1.75614e-08
1.08193e-08
-5.02371e-08
-1.71458e-08
1.52056e-08
-5.11494e-08
-1.63405e-08
1.84813e-08
-5.20073e-08
-1.50542e-08
2.04698e-08
-5.28891e-08
-1.35712e-08
2.11582e-08
-5.3659e-08
-1.20181e-08
2.06238e-08
-5.41175e-08
-1.04871e-08
1.90264e-08
-5.40705e-08
-9.05333e-09
1.65843e-08
-5.33214e-08
-7.76524e-09
1.35574e-08
-5.16527e-08
-6.64319e-09
1.02169e-08
-4.88013e-08
-5.6731e-09
6.84094e-09
-4.44178e-08
-4.81716e-09
3.74341e-09
-3.79845e-08
-3.97364e-09
1.28628e-09
-2.84855e-08
-2.91307e-09
-1.35574e-08
-1.3243e-09
-1.31573e-09
-1.09078e-08
-1.35329e-09
-3.84498e-09
-2.28892e-08
-2.89903e-09
-6.99404e-09
-3.07482e-08
-3.9709e-09
-1.04254e-08
-3.60638e-08
-4.85907e-09
-1.3838e-08
-3.9614e-08
-5.7279e-09
-1.69326e-08
-4.18391e-08
-6.67889e-09
-1.94227e-08
-4.30329e-08
-7.76369e-09
-2.10436e-08
-4.3423e-08
-8.99727e-09
-2.15721e-08
-4.3204e-08
-1.03614e-08
-2.0852e-08
-4.2551e-08
-1.18104e-08
-1.87967e-08
-4.16468e-08
-1.32822e-08
-1.54323e-08
-4.0657e-08
-1.46986e-08
-1.1008e-08
-3.9674e-08
-1.58614e-08
-5.7422e-09
-3.89002e-08
-1.66548e-08
-4.51849e-11
-3.83979e-08
-1.70108e-08
5.62492e-09
-3.83443e-08
-1.6988e-08
1.08693e-08
-3.88371e-08
-1.66444e-08
1.53623e-08
-3.97246e-08
-1.59178e-08
1.87608e-08
-4.06736e-08
-1.47321e-08
2.0826e-08
-4.16539e-08
-1.33004e-08
2.15584e-08
-4.25634e-08
-1.1828e-08
2.10395e-08
-4.32215e-08
-1.03771e-08
1.94266e-08
-4.34468e-08
-9.01091e-09
1.69417e-08
-4.30606e-08
-7.77591e-09
1.38498e-08
-4.18704e-08
-6.69034e-09
1.04373e-08
-3.96501e-08
-5.73869e-09
7.00038e-09
-3.61059e-08
-4.87499e-09
3.83636e-09
-3.08095e-08
-4.01101e-09
1.3031e-09
-2.29931e-08
-2.95916e-09
-1.08976e-08
-1.35665e-09
-1.30415e-09
-8.28063e-09
-1.32307e-09
-3.78084e-09
-1.75819e-08
-2.83064e-09
-6.88232e-09
-2.37571e-08
-3.88956e-09
-1.02752e-08
-2.79223e-08
-4.74858e-09
-1.36568e-08
-3.06555e-08
-5.57683e-09
-1.67271e-08
-3.22949e-08
-6.47384e-09
-1.91936e-08
-3.30777e-08
-7.48879e-09
-2.07914e-08
-3.31904e-08
-8.63481e-09
-2.13017e-08
-3.27965e-08
-9.89719e-09
-2.05671e-08
-3.20535e-08
-1.12321e-08
-1.85141e-08
-3.11158e-08
-1.2584e-08
-1.52056e-08
-3.01149e-08
-1.38506e-08
-1.08525e-08
-2.91672e-08
-1.48598e-08
-5.68899e-09
-2.84616e-08
-1.56021e-08
-5.11798e-11
-2.80696e-08
-1.59661e-08
5.55258e-09
-2.80107e-08
-1.59373e-08
1.07222e-08
-2.84129e-08
-1.55938e-08
1.5133e-08
-2.92111e-08
-1.49244e-08
1.8478e-08
-3.01338e-08
-1.38848e-08
2.05391e-08
-3.11188e-08
-1.25961e-08
2.12824e-08
-3.20603e-08
-1.12464e-08
2.07841e-08
-3.28099e-08
-9.91339e-09
1.9194e-08
-3.32068e-08
-8.64989e-09
1.67323e-08
-3.30981e-08
-7.50085e-09
1.36657e-08
-3.23191e-08
-6.48472e-09
1.0286e-08
-3.0683e-08
-5.58744e-09
6.89037e-09
-2.79511e-08
-4.75923e-09
3.78089e-09
-2.37935e-08
-3.90654e-09
1.28939e-09
-1.76364e-08
-2.86521e-09
-8.28272e-09
-1.3255e-09
-1.23136e-09
-5.81061e-09
-1.23866e-09
-3.57233e-09
-1.25873e-08
-2.65364e-09
-6.52212e-09
-1.71604e-08
-3.64691e-09
-9.77114e-09
-2.02306e-08
-4.44275e-09
-1.30282e-08
-2.21974e-08
-5.20105e-09
-1.59976e-08
-2.33097e-08
-6.0158e-09
-1.83879e-08
-2.37504e-08
-6.93707e-09
-1.99387e-08
-2.36659e-08
-7.97362e-09
-2.04337e-08
-2.31902e-08
-9.11132e-09
-1.97218e-08
-2.24494e-08
-1.03162e-08
-1.7732e-08
-2.15641e-08
-1.15414e-08
-1.45666e-08
-2.06427e-08
-1.26377e-08
-1.03876e-08
-1.98194e-08
-1.35269e-08
-5.43918e-09
-1.9212e-08
-1.4198e-08
-4.45225e-11
-1.88998e-08
-1.45644e-08
5.32051e-09
-1.88521e-08
-1.45237e-08
1.02777e-08
-1.91809e-08
-1.41892e-08
1.45002e-08
-1.98459e-08
-1.35876e-08
1.76971e-08
-2.0658e-08
-1.26727e-08
1.96926e-08
-2.15695e-08
-1.15448e-08
2.04135e-08
-2.24533e-08
-1.0328e-08
1.99286e-08
-2.31979e-08
-9.12704e-09
1.83866e-08
-2.36768e-08
-7.98802e-09
1.60014e-08
-2.37638e-08
-6.94907e-09
1.30354e-08
-2.33264e-08
-6.02659e-09
9.77758e-09
-2.22154e-08
-5.20984e-09
6.52777e-09
-2.02499e-08
-4.45132e-09
3.57637e-09
-1.71854e-08
-3.65664e-09
1.22859e-09
-1.26199e-08
-2.6687e-09
-5.81424e-09
-1.23989e-09
-1.09743e-09
-3.61413e-09
-1.09906e-09
-3.20706e-09
-8.11552e-09
-2.36216e-09
-5.90857e-09
-1.12231e-08
-3.23586e-09
-8.91948e-09
-1.3295e-08
-3.92463e-09
-1.19683e-08
-1.45692e-08
-4.57943e-09
-1.47707e-08
-1.52224e-08
-5.28487e-09
-1.70403e-08
-1.53923e-08
-6.08846e-09
-1.85232e-08
-1.51867e-08
-6.9963e-09
-1.90117e-08
-1.4705e-08
-7.99668e-09
-1.83604e-08
-1.4041e-08
-9.05967e-09
-1.65126e-08
-1.32811e-08
-1.01308e-08
-1.35674e-08
-1.25235e-08
-1.10645e-08
-9.66835e-09
-1.18611e-08
-1.18573e-08
-5.05436e-09
-1.13736e-08
-1.24524e-08
-3.77756e-11
-1.11237e-08
-1.27927e-08
4.95449e-09
-1.10956e-08
-1.27487e-08
9.56896e-09
-1.13555e-08
-1.24398e-08
1.3494e-08
-1.18694e-08
-1.19016e-08
1.64694e-08
-1.25294e-08
-1.11039e-08
1.83312e-08
-1.32851e-08
-1.01463e-08
1.89913e-08
-1.40433e-08
-9.07003e-09
1.85126e-08
-1.47091e-08
-8.01026e-09
1.70375e-08
-1.51926e-08
-7.00901e-09
1.47723e-08
-1.54002e-08
-6.09834e-09
1.19724e-08
-1.52318e-08
-5.29482e-09
8.92383e-09
-1.458e-08
-4.58674e-09
5.91422e-09
-1.33094e-08
-3.93095e-09
3.21488e-09
-1.1246e-08
-3.24005e-09
1.1e-09
-8.14008e-09
-2.36499e-09
-3.61662e-09
-1.09763e-09
-8.97102e-10
-1.82115e-09
-8.95879e-10
-2.68029e-09
-4.40469e-09
-1.92764e-09
-5.03173e-09