/*--------------------------------*- C++ -*----------------------------------*\
| =========                 |                                                 |
| \\      /  F ield         | OpenFOAM: The Open Source CFD Toolbox           |
|  \\    /   O peration     | Version:  v1906                                 |
|   \\  /    A nd           | Web:      www.OpenFOAM.com                      |
|    \\/     M anipulation  |                                                 |
\*---------------------------------------------------------------------------*/
FoamFile
{
    version     2.0;
    format      ascii;
    class       volScalarField;
    location    "0.99/oil";
    object      nut;
}
// * * * * * * * * * * * * * * * * * * * * * * * * * * * * * * * * * * * * * //

dimensions      [0 2 -1 0 0 0 0];


internalField   nonuniform List<scalar> 
168664
(
4.60735e-08
3.64634e-08
2.23858e-08
5.81845e-09
7.58313e-09
5.65518e-09
6.4198e-09
5.96336e-09
6.7041e-09
6.55417e-09
7.46623e-09
7.89394e-09
8.22116e-09
8.62711e-09
8.68875e-09
8.67709e-09
8.27402e-09
7.72022e-09
7.2301e-09
6.62197e-09
6.11278e-09
6.14732e-09
5.91265e-09
5.54405e-09
4.80363e-09
3.89683e-09
3.01214e-09
2.23431e-09
1.65322e-09
7.08093e-10
3.94963e-08
1.92329e-08
8.78206e-09
4.77673e-09
5.19756e-09
5.15501e-09
6.02821e-09
6.11413e-09
6.86269e-09
7.00492e-09
7.83062e-09
7.6937e-09
7.7796e-09
8.01757e-09
8.14537e-09
8.11873e-09
7.71584e-09
7.32269e-09
6.88118e-09
6.53137e-09
6.19224e-09
6.20524e-09
5.9507e-09
5.61688e-09
5.17753e-09
4.56933e-09
3.98472e-09
3.23292e-09
3.28228e-09
2.13443e-09
1.78992e-08
9.96275e-09
5.77697e-09
4.74662e-09
6.15267e-09
5.49088e-09
6.99551e-09
6.59129e-09
7.64713e-09
7.38768e-09
8.13805e-09
7.2309e-09
7.21067e-09
7.42762e-09
7.61036e-09
7.53865e-09
7.26325e-09
7.00735e-09
6.59578e-09
6.36098e-09
6.19328e-09
6.33193e-09
6.22815e-09
6.03181e-09
5.66544e-09
5.21881e-09
4.79854e-09
4.48552e-09
5.12756e-09
4.29076e-09
8.43968e-09
6.59881e-09
5.94008e-09
5.08932e-09
6.1192e-09
5.66112e-09
6.75865e-09
6.52841e-09
7.41597e-09
7.32417e-09
7.93123e-09
7.04211e-09
7.28648e-09
7.53244e-09
7.68766e-09
7.52802e-09
7.376e-09
7.14283e-09
6.81985e-09
6.60888e-09
6.46012e-09
6.64466e-09
6.76631e-09
6.69909e-09
6.31397e-09
5.87164e-09
5.56002e-09
5.79546e-09
6.62105e-09
6.27588e-09
6.01742e-09
8.00527e-09
7.0076e-09
6.64676e-09
7.32289e-09
6.72437e-09
7.51617e-09
6.98985e-09
7.83854e-09
7.57013e-09
8.1684e-09
7.37512e-09
7.61416e-09
7.77035e-09
7.83286e-09
7.56618e-09
7.41534e-09
7.21749e-09
7.04483e-09
7.15227e-09
7.004e-09
7.21677e-09
7.29839e-09
7.35128e-09
7.01999e-09
6.73282e-09
6.57143e-09
7.07764e-09
8.01612e-09
8.11637e-09
9.15378e-09
9.10839e-09
8.81953e-09
7.66708e-09
8.11315e-09
7.26257e-09
7.81021e-09
7.19347e-09
7.88481e-09
7.64053e-09
8.21404e-09
7.50834e-09
7.63256e-09
7.91287e-09
8.09982e-09
7.6699e-09
7.5602e-09
7.25042e-09
7.34902e-09
7.64832e-09
7.58597e-09
7.66946e-09
7.69234e-09
7.77774e-09
7.56197e-09
7.5493e-09
7.59105e-09
8.28919e-09
9.24779e-09
9.81905e-09
1.04854e-08
1.06017e-08
9.91776e-09
9.10264e-09
9.17371e-09
8.3697e-09
8.64178e-09
7.89085e-09
8.28336e-09
7.93166e-09
8.35225e-09
7.74569e-09
7.98894e-09
8.57411e-09
8.71311e-09
8.10835e-09
7.79344e-09
7.418e-09
7.44466e-09
7.78852e-09
7.69894e-09
7.86968e-09
7.92094e-09
8.1687e-09
8.16776e-09
8.46638e-09
8.75257e-09
9.58217e-09
1.05557e-08
1.15358e-08
1.27137e-08
1.19605e-08
1.16023e-08
1.03716e-08
1.02748e-08
9.20679e-09
9.27169e-09
8.26048e-09
8.43501e-09
7.84832e-09
8.30453e-09
7.91255e-09
8.61317e-09
9.42204e-09
9.66917e-09
8.85969e-09
8.58975e-09
8.02992e-09
7.95809e-09
7.93737e-09
7.80812e-09
7.96525e-09
8.12649e-09
8.54668e-09
8.85711e-09
9.46417e-09
9.96995e-09
1.08519e-08
1.17702e-08
1.31288e-08
1.41045e-08
1.30634e-08
1.259e-08
1.16199e-08
1.11847e-08
1.01334e-08
9.85606e-09
8.77645e-09
8.63038e-09
7.93297e-09
8.37265e-09
8.4201e-09
9.24332e-09
1.0057e-08
1.01717e-08
9.38879e-09
8.95207e-09
8.41665e-09
8.18477e-09
8.05249e-09
7.83698e-09
8.18958e-09
8.4718e-09
9.163e-09
9.71301e-09
1.05264e-08
1.1208e-08
1.2089e-08
1.28743e-08
1.45145e-08
1.59132e-08
1.43031e-08
1.3991e-08
1.28978e-08
1.24286e-08
1.11266e-08
1.07013e-08
9.41762e-09
9.11149e-09
8.23655e-09
8.70579e-09
8.7196e-09
9.38048e-09
9.6817e-09
9.9295e-09
9.39955e-09
8.98762e-09
8.55195e-09
8.49943e-09
8.31414e-09
8.16978e-09
8.59552e-09
9.01115e-09
9.79203e-09
1.03847e-08
1.13359e-08
1.21758e-08
1.30096e-08
1.37116e-08
1.56229e-08
1.71425e-08
1.51424e-08
1.46509e-08
1.36898e-08
1.31209e-08
1.20575e-08
1.15473e-08
1.02792e-08
9.78966e-09
8.88553e-09
9.09218e-09
8.88033e-09
8.76601e-09
8.41392e-09
8.32168e-09
8.076e-09
7.91944e-09
8.01399e-09
8.25899e-09
8.54633e-09
8.64108e-09
9.33336e-09
9.85802e-09
1.07787e-08
1.13685e-08
1.24094e-08
1.32691e-08
1.39663e-08
1.45708e-08
1.6667e-08
1.88549e-08
1.6333e-08
1.58126e-08
1.48228e-08
1.44856e-08
1.35793e-08
1.32651e-08
1.18509e-08
1.10473e-08
9.53289e-09
8.98921e-09
8.09787e-09
7.44724e-09
6.65805e-09
6.48028e-09
6.23858e-09
6.46255e-09
7.12263e-09
7.81476e-09
8.60751e-09
9.18342e-09
1.01522e-08
1.08411e-08
1.19491e-08
1.25982e-08
1.35931e-08
1.42641e-08
1.4786e-08
1.53042e-08
1.75982e-08
1.92074e-08
1.67647e-08
1.63914e-08
1.57589e-08
1.54147e-08
1.46212e-08
1.42759e-08
1.28934e-08
1.1863e-08
9.67568e-09
8.3554e-09
6.91325e-09
5.94262e-09
5.2499e-09
4.86025e-09
4.66604e-09
5.08541e-09
5.98497e-09
6.79448e-09
8.10774e-09
9.2859e-09
1.09627e-08
1.18832e-08
1.30282e-08
1.3645e-08
1.45735e-08
1.50941e-08
1.56018e-08
1.61771e-08
1.88035e-08
1.9698e-08
1.70302e-08
1.6796e-08
1.62811e-08
1.60054e-08
1.51383e-08
1.4849e-08
1.36674e-08
1.28024e-08
1.01627e-08
8.27393e-09
6.29049e-09
5.28491e-09
4.48549e-09
4.35992e-09
4.189e-09
4.7557e-09
5.81166e-09
6.47845e-09
8.0417e-09
9.51368e-09
1.168e-08
1.28028e-08
1.39449e-08
1.44002e-08
1.52699e-08
1.57707e-08
1.63516e-08
1.69914e-08
1.99956e-08
1.96602e-08
1.69687e-08
1.66711e-08
1.61959e-08
1.59163e-08
1.51674e-08
1.48337e-08
1.38453e-08
1.31683e-08
1.09243e-08
9.2494e-09
7.63636e-09
6.80166e-09
5.57315e-09
4.80469e-09
4.92901e-09
5.77779e-09
6.82238e-09
7.34148e-09
8.74963e-09
1.00196e-08
1.22305e-08
1.35232e-08
1.47597e-08
1.5214e-08
1.60357e-08
1.65381e-08
1.71373e-08
1.77428e-08
2.10068e-08
2.01564e-08
1.72265e-08
1.6877e-08
1.63703e-08
1.61436e-08
1.54005e-08
1.50756e-08
1.39679e-08
1.31661e-08
1.11719e-08
9.758e-09
8.27227e-09
7.46362e-09
6.03496e-09
4.71939e-09
5.16835e-09
6.19509e-09
7.42861e-09
7.78884e-09
9.12246e-09
1.02822e-08
1.25303e-08
1.3703e-08
1.49465e-08
1.53508e-08
1.62041e-08
1.66797e-08
1.73079e-08
1.7791e-08
2.09971e-08
1.92592e-08
1.65737e-08
1.61758e-08
1.5732e-08
1.54768e-08
1.47965e-08
1.44837e-08
1.35543e-08
1.26593e-08
1.06489e-08
8.84792e-09
7.25766e-09
6.53243e-09
5.50956e-09
4.78079e-09
5.15815e-09
5.99733e-09
7.50129e-09
8.03853e-09
9.41027e-09
1.072e-08
1.28668e-08
1.39073e-08
1.49755e-08
1.54044e-08
1.62859e-08
1.68218e-08
1.73868e-08
1.77822e-08
2.08963e-08
1.88933e-08
1.63223e-08
1.59034e-08
1.54125e-08
1.51035e-08
1.42939e-08
1.38713e-08
1.28295e-08
1.21151e-08
1.04829e-08
9.24158e-09
8.01497e-09
7.16749e-09
6.50581e-09
6.07636e-09
6.15168e-09
6.23323e-09
7.79968e-09
8.84983e-09
1.03741e-08
1.10831e-08
1.27571e-08
1.3511e-08
1.46824e-08
1.51976e-08
1.6105e-08
1.66699e-08
1.7378e-08
1.78975e-08
2.10216e-08
1.79781e-08
1.57128e-08
1.52191e-08
1.46611e-08
1.4207e-08
1.33862e-08
1.28573e-08
1.18674e-08
1.12665e-08
1.04013e-08
9.96837e-09
9.22867e-09
8.37468e-09
7.75027e-09
7.5988e-09
7.51836e-09
7.37718e-09
8.40445e-09
9.50389e-09
1.06583e-08
1.0935e-08
1.1812e-08
1.23722e-08
1.35264e-08
1.40884e-08
1.48566e-08
1.5454e-08
1.64335e-08
1.72928e-08
2.04809e-08
1.73053e-08
1.50505e-08
1.44531e-08
1.37027e-08
1.31103e-08
1.22343e-08
1.17942e-08
1.09789e-08
1.05907e-08
1.00139e-08
1.00558e-08
9.77318e-09
9.31016e-09
9.0562e-09
9.10824e-09
9.04902e-09
8.89187e-09
9.40418e-09
9.72777e-09
1.0213e-08
1.01297e-08
1.07775e-08
1.11768e-08
1.21864e-08
1.269e-08
1.34976e-08
1.41361e-08
1.51767e-08
1.60715e-08
1.90061e-08
1.59975e-08
1.39782e-08
1.34477e-08
1.26522e-08
1.19974e-08
1.12776e-08
1.08721e-08
1.02101e-08
9.85399e-09
9.50816e-09
9.67911e-09
9.64472e-09
9.65675e-09
9.94791e-09
1.04974e-08
1.07331e-08
1.05653e-08
1.03358e-08
1.00727e-08
9.98291e-09
9.64e-09
1.00422e-08
1.0385e-08
1.12809e-08
1.17596e-08
1.25725e-08
1.31934e-08
1.41182e-08
1.48985e-08
1.72861e-08
1.50168e-08
1.33093e-08
1.28396e-08
1.2007e-08
1.13558e-08
1.07161e-08
1.03788e-08
9.82632e-09
9.55191e-09
9.27394e-09
9.22577e-09
8.93766e-09
9.16045e-09
9.8368e-09
1.06062e-08
1.11599e-08
1.0963e-08
1.00792e-08
9.45351e-09
9.41611e-09
9.20433e-09
9.60008e-09
9.82441e-09
1.0523e-08
1.08363e-08
1.15312e-08
1.20322e-08
1.29171e-08
1.37155e-08
1.56924e-08
1.35737e-08
1.22065e-08
1.1579e-08
1.07898e-08
1.03285e-08
9.85579e-09
9.63884e-09
9.31185e-09
9.19677e-09
9.0911e-09
8.90863e-09
8.38113e-09
8.45427e-09
9.18979e-09
1.00143e-08
1.05839e-08
1.03646e-08
9.44782e-09
8.98908e-09
9.1963e-09
9.12556e-09
9.35253e-09
9.37515e-09
9.78289e-09
9.89916e-09
1.04077e-08
1.082e-08
1.16728e-08
1.24912e-08
1.40828e-08
1.21621e-08
1.1051e-08
1.02534e-08
9.59713e-09
9.33237e-09
9.07059e-09
9.05492e-09
8.94344e-09
8.94646e-09
8.82416e-09
8.49548e-09
7.91951e-09
7.75378e-09
8.20328e-09
8.86261e-09
9.34063e-09
9.20374e-09
8.71656e-09
8.52638e-09
8.87978e-09
8.87592e-09
9.07328e-09
8.97632e-09
9.17344e-09
9.10173e-09
9.34774e-09
9.56262e-09
1.03677e-08
1.12164e-08
1.24394e-08
1.02385e-08
9.54563e-09
8.75574e-09
8.31311e-09
8.20255e-09
8.12674e-09
8.29299e-09
8.40794e-09
8.57803e-09
8.45697e-09
8.01079e-09
7.53841e-09
7.54205e-09
7.75601e-09
8.13943e-09
8.38579e-09
8.54194e-09
8.42866e-09
8.28128e-09
8.4588e-09
8.52307e-09
8.72878e-09
8.6018e-09
8.67646e-09
8.46303e-09
8.43868e-09
8.37966e-09
9.09075e-09
9.96009e-09
1.08005e-08
8.50625e-09
8.17304e-09
7.34507e-09
7.0678e-09
7.22257e-09
7.41013e-09
7.65531e-09
7.89259e-09
8.15252e-09
8.12418e-09
7.67909e-09
7.24838e-09
7.38159e-09
7.5218e-09
7.60395e-09
7.63489e-09
7.96084e-09
8.07866e-09
7.81203e-09
7.84957e-09
7.86228e-09
8.0984e-09
8.00481e-09
8.02947e-09
7.75671e-09
7.44402e-09
7.19732e-09
7.74732e-09
8.6541e-09
9.05148e-09
6.62341e-09
6.70188e-09
5.81127e-09
5.73976e-09
6.15288e-09
6.50748e-09
6.85218e-09
7.21872e-09
7.54261e-09
7.70662e-09
7.41345e-09
7.17825e-09
7.40634e-09
7.46131e-09
7.35743e-09
7.20393e-09
7.54803e-09
7.66123e-09
7.51596e-09
7.45957e-09
7.36042e-09
7.40377e-09
7.25603e-09
7.1857e-09
6.932e-09
6.55465e-09
6.17291e-09
6.4258e-09
7.24106e-09
7.19406e-09
4.66487e-09
5.28082e-09
4.48184e-09
4.87539e-09
5.30848e-09
5.79839e-09
6.26406e-09
6.71635e-09
7.13137e-09
7.34146e-09
7.19446e-09
7.09621e-09
7.32081e-09
7.28843e-09
7.1945e-09
6.98124e-09
7.08769e-09
7.22754e-09
7.1997e-09
7.2086e-09
6.92643e-09
6.86162e-09
6.63734e-09
6.53262e-09
6.31958e-09
5.92495e-09
5.4433e-09
5.00056e-09
5.65119e-09
5.03881e-09
2.56833e-09
3.61071e-09
3.51183e-09
4.22332e-09
4.69492e-09
5.37203e-09
5.9211e-09
6.51645e-09
7.07299e-09
7.42099e-09
7.51224e-09
7.49425e-09
7.65267e-09
7.65659e-09
7.75398e-09
7.52651e-09
7.50198e-09
7.54485e-09
7.46066e-09
7.21333e-09
6.68441e-09
6.4876e-09
6.24586e-09
6.09379e-09
5.75911e-09
5.11086e-09
4.51465e-09
3.56028e-09
3.63076e-09
2.5973e-09
1.21771e-09
2.23505e-09
3.00644e-09
3.84371e-09
4.55771e-09
5.35816e-09
5.99477e-09
6.68773e-09
7.35474e-09
7.68064e-09
7.84018e-09
7.9342e-09
8.0054e-09
8.163e-09
8.11735e-09
7.78569e-09
7.78555e-09
7.83984e-09
7.69431e-09
7.1385e-09
6.40715e-09
6.19088e-09
5.89223e-09
5.68764e-09
5.14497e-09
4.24405e-09
3.40206e-09
2.41022e-09
1.84187e-09
8.91368e-10
3.57849e-08
2.09798e-08
8.41145e-09
5.81329e-09
5.20647e-09
4.90314e-09
5.47884e-09
5.96118e-09
6.71052e-09
7.40236e-09
7.93744e-09
8.33603e-09
7.97144e-09
8.6738e-09
8.74706e-09
8.8474e-09
8.47001e-09
7.72872e-09
7.54422e-09
6.74627e-09
6.47403e-09
5.94018e-09
5.9584e-09
5.47822e-09
5.24303e-09
4.3974e-09
3.79993e-09
2.88033e-09
2.54502e-09
1.78676e-09
2.01986e-08
8.8261e-09
5.02817e-09
3.21608e-09
3.20157e-09
2.6592e-09
2.70801e-09
2.40201e-09
2.93124e-09
3.36603e-09
4.4263e-09
4.02913e-09
3.68383e-09
3.28646e-09
3.4905e-09
3.59747e-09
3.34114e-09
3.26678e-09
3.00761e-09
3.0184e-09
2.79812e-09
3.27806e-09
3.56368e-09
3.96705e-09
3.79459e-09
3.50326e-09
2.97697e-09
2.69089e-09
3.55765e-09
3.31804e-09
1.01571e-08
7.16441e-09
5.5829e-09
4.23834e-09
4.12592e-09
3.40397e-09
3.5794e-09
2.88006e-09
3.46736e-09
4.15161e-09
5.63397e-09
5.59627e-09
4.64867e-09
3.45864e-09
3.26869e-09
3.1116e-09
2.48147e-09
2.11205e-09
2.1699e-09
2.77885e-09
2.97591e-09
3.84075e-09
4.36819e-09
4.57323e-09
4.46699e-09
4.31963e-09
3.59298e-09
3.47702e-09
4.02384e-09
5.16457e-09
6.93206e-09
4.04904e-09
3.63332e-09
2.91092e-09
2.81454e-09
2.84414e-09
3.27019e-09
3.29663e-09
3.94347e-09
4.2887e-09
5.26028e-09
5.37483e-09
4.33444e-09
3.05887e-09
2.74984e-09
2.59506e-09
2.34194e-09
1.9499e-09
2.3359e-09
3.32252e-09
3.81818e-09
4.33071e-09
4.08704e-09
4.11541e-09
4.31366e-09
4.441e-09
3.91127e-09
3.98206e-09
3.84063e-09
6.6538e-09
8.51687e-09
4.4697e-09
4.19104e-09
3.09947e-09
2.44126e-09
2.1527e-09
2.38516e-09
2.39877e-09
2.94414e-09
2.88129e-09
3.4501e-09
3.73102e-09
2.96794e-09
2.20225e-09
2.15228e-09
2.15724e-09
2.1518e-09
1.89516e-09
2.50408e-09
3.50712e-09
3.70033e-09
3.23452e-09
2.41391e-09
2.5636e-09
2.96592e-09
3.54093e-09
3.73336e-09
4.07679e-09
3.60799e-09
8.08468e-09
9.33083e-09
3.55005e-09
3.55533e-09
2.93445e-09
2.10318e-09
1.77296e-09
1.68806e-09
1.56604e-09
1.86849e-09
1.7776e-09
2.3579e-09
2.80003e-09
2.61318e-09
2.09648e-09
2.12829e-09
2.22639e-09
2.35522e-09
2.35223e-09
2.9322e-09
3.23549e-09
2.79432e-09
2.0145e-09
1.35485e-09
1.6476e-09
1.98374e-09
2.83658e-09
3.46299e-09
3.97678e-09
3.4115e-09
9.31188e-09
1.07271e-08
3.60148e-09
3.85801e-09
3.2294e-09
2.65787e-09
2.11399e-09
1.93028e-09
1.46778e-09
1.52834e-09
1.40402e-09
2.03925e-09
2.6036e-09
2.59501e-09
2.14671e-09
2.26991e-09
2.30861e-09
2.53986e-09
2.84389e-09
3.1734e-09
2.6615e-09
1.92573e-09
1.52094e-09
1.22565e-09
1.48364e-09
1.8339e-09
2.81291e-09
3.45639e-09
3.8821e-09
3.39891e-09
1.05934e-08
1.19468e-08
3.27127e-09
3.59924e-09
3.41725e-09
2.96904e-09
2.37999e-09
2.08721e-09
1.64482e-09
1.6418e-09
1.56167e-09
2.09898e-09
2.4767e-09
2.47023e-09
1.94692e-09
2.17035e-09
2.1664e-09
2.40628e-09
2.96923e-09
3.01981e-09
2.3073e-09
1.59585e-09
1.54167e-09
1.36565e-09
1.67318e-09
2.1234e-09
3.02563e-09
3.492e-09
3.79552e-09
3.39453e-09
1.17753e-08
1.30065e-08
3.21556e-09
3.29896e-09
3.47477e-09
3.37712e-09
2.83152e-09
2.52912e-09
2.10381e-09
2.17884e-09
2.1097e-09
2.44439e-09
2.2348e-09
1.75435e-09
1.4737e-09
2.08326e-09
1.91303e-09
1.56129e-09
2.37524e-09
2.58155e-09
2.32757e-09
1.85611e-09
1.90552e-09
1.75051e-09
2.09546e-09
2.46374e-09
3.11418e-09
3.3215e-09
3.43344e-09
3.2153e-09
1.29107e-08
1.41482e-08
2.9817e-09
2.80096e-09
3.0317e-09
3.11099e-09
2.91969e-09
2.77637e-09
2.49192e-09
2.67068e-09
2.64033e-09
2.79734e-09
2.03642e-09
1.17694e-09
1.94759e-09
2.66152e-09
2.0894e-09
9.881e-10
1.05539e-09
2.0014e-09
2.47379e-09
2.23826e-09
2.32389e-09
2.19954e-09
2.46783e-09
2.57539e-09
2.91283e-09
2.88675e-09
2.81168e-09
2.87197e-09
1.38527e-08
1.5169e-08
3.07357e-09
2.57163e-09
2.69886e-09
2.75069e-09
2.93607e-09
3.0623e-09
2.96031e-09
3.19382e-09
3.05989e-09
2.94096e-09
1.81105e-09
1.68333e-09
2.91169e-09
3.52637e-09
3.23827e-09
2.49207e-09
7.30161e-10
1.4085e-09
2.56184e-09
2.67695e-09
2.8755e-09
2.73857e-09
2.89839e-09
2.83125e-09
2.87514e-09
2.62914e-09
2.44821e-09
2.60837e-09
1.46213e-08
1.63524e-08
3.00971e-09
2.46222e-09
2.48783e-09
2.55797e-09
2.86992e-09
3.07968e-09
3.21503e-09
3.67635e-09
3.57208e-09
2.78042e-09
1.74926e-09
2.14011e-09
2.54019e-09
2.81036e-09
2.76989e-09
2.33092e-09
1.44818e-09
1.3292e-09
2.48654e-09
3.07911e-09
3.32005e-09
3.14454e-09
3.0671e-09
2.90531e-09
2.81073e-09
2.45093e-09
2.35916e-09
2.46079e-09
1.52773e-08
1.66205e-08
2.75682e-09
2.13273e-09
2.19941e-09
2.19172e-09
2.42076e-09
2.549e-09
2.93647e-09
3.58812e-09
3.3362e-09
1.97729e-09
2.30187e-09
2.63971e-09
2.53102e-09
2.39407e-09
2.24339e-09
2.08781e-09
1.76917e-09
1.52175e-09
1.87489e-09
2.96461e-09
3.32398e-09
2.99472e-09
2.68414e-09
2.43744e-09
2.3518e-09
2.12882e-09
2.23722e-09
2.49646e-09
1.62203e-08
1.69976e-08
2.34217e-09
1.65852e-09
1.72527e-09
1.74478e-09
1.80011e-09
1.86211e-09
2.4715e-09
3.16745e-09
3.00632e-09
2.51849e-09
2.72129e-09
2.47416e-09
2.23253e-09
1.83327e-09
1.57649e-09
1.31151e-09
1.50462e-09
1.53123e-09
1.72012e-09
2.40315e-09
2.95101e-09
2.69248e-09
2.26761e-09
2.03647e-09
1.99276e-09
1.93449e-09
2.09535e-09
2.53479e-09
1.70814e-08
1.6942e-08
2.43925e-09
1.65516e-09
1.63802e-09
1.63269e-09
1.72525e-09
1.7439e-09
2.23938e-09
2.56527e-09
2.80137e-09
2.71821e-09
2.51596e-09
2.08084e-09
1.69318e-09
1.73545e-09
1.72503e-09
1.66959e-09
1.91542e-09
1.85221e-09
2.1969e-09
2.64846e-09
2.83099e-09
2.4485e-09
1.95359e-09
1.83125e-09
1.7993e-09
1.80035e-09
1.92923e-09
2.52982e-09
1.77815e-08
1.72777e-08
2.56316e-09
1.80744e-09
1.71482e-09
1.72966e-09
1.88896e-09
1.93946e-09
2.27715e-09
2.48724e-09
2.61472e-09
1.983e-09
1.28128e-09
1.08899e-09
1.27409e-09
1.81785e-09
1.94348e-09
1.87383e-09
2.0316e-09
2.16818e-09
2.48092e-09
2.7277e-09
2.67783e-09
2.20327e-09
1.58941e-09
1.48926e-09
1.52879e-09
1.59941e-09
1.67169e-09
2.23954e-09
1.77556e-08
1.67083e-08
2.57906e-09
2.0287e-09
1.89712e-09
1.93831e-09
2.06996e-09
2.15344e-09
2.53949e-09
2.79525e-09
2.45023e-09
1.69843e-09
1.47285e-09
1.3372e-09
1.57526e-09
2.13222e-09
2.09829e-09
1.99361e-09
2.15278e-09
2.13741e-09
1.92297e-09
2.27188e-09
2.89505e-09
2.39656e-09
1.70543e-09
1.57254e-09
1.6658e-09
1.84248e-09
1.8042e-09
2.2232e-09
1.7737e-08
1.64383e-08
2.54095e-09
2.25399e-09
2.09624e-09
2.21397e-09
2.33037e-09
2.48886e-09
2.7449e-09
3.0202e-09
2.70656e-09
1.9526e-09
1.69468e-09
1.82068e-09
2.18074e-09
2.63439e-09
2.63244e-09
2.80429e-09
2.64266e-09
1.95628e-09
1.11974e-09
2.8083e-09
3.5624e-09
2.9661e-09
2.49302e-09
2.28328e-09
2.21594e-09
2.38096e-09
2.3219e-09
2.6014e-09
1.77151e-08
1.56523e-08
2.75678e-09
2.66801e-09
2.65821e-09
2.89301e-09
2.93053e-09
2.95391e-09
2.95056e-09
3.11531e-09
2.97704e-09
2.73234e-09
1.66159e-09
1.41681e-09
2.15162e-09
2.83438e-09
2.82042e-09
2.72498e-09
2.20773e-09
1.15201e-09
1.7604e-09
3.1422e-09
3.7452e-09
3.27023e-09
2.97572e-09
2.76535e-09
2.7301e-09
2.8773e-09
2.88862e-09
3.03647e-09
1.72836e-08
1.51031e-08
2.85602e-09
2.70699e-09
2.92223e-09
3.13796e-09
2.84609e-09
2.67054e-09
2.47835e-09
2.70283e-09
2.59551e-09
2.74525e-09
1.64716e-09
5.06164e-10
1.93283e-09
2.99039e-09
3.14629e-09
2.91501e-09
1.49743e-09
8.04857e-10
2.26567e-09
2.79724e-09
3.22138e-09
2.87627e-09
2.8164e-09
2.74287e-09
2.93435e-09
2.98553e-09
2.8759e-09
3.06576e-09
1.62414e-08
1.41983e-08
3.13413e-09
2.86962e-09
3.23609e-09
3.4066e-09
2.75627e-09
2.40249e-09
2.10932e-09
2.31018e-09
2.28595e-09
2.66289e-09
2.24053e-09
1.47393e-09
6.83608e-10
1.80179e-09
2.35918e-09
2.08594e-09
5.22442e-10
1.66766e-09
2.65749e-09
2.57543e-09
2.7462e-09
2.46922e-09
2.6506e-09
2.8323e-09
3.33828e-09
3.30912e-09
3.14961e-09
3.11377e-09
1.48642e-08
1.33298e-08
3.25605e-09
3.32264e-09
3.61983e-09
3.43566e-09
2.61584e-09
2.24117e-09
1.80553e-09
1.9306e-09
1.94992e-09
2.51961e-09
2.72044e-09
2.50587e-09
1.73816e-09
1.76517e-09
1.87101e-09
1.49043e-09
1.894e-09
2.35877e-09
2.54444e-09
2.09992e-09
2.20135e-09
1.99339e-09
2.31673e-09
2.58969e-09
3.34874e-09
3.56741e-09
3.5355e-09
3.15428e-09
1.36232e-08
1.22021e-08
3.31577e-09
3.81617e-09
3.73159e-09
3.21451e-09
2.38007e-09
2.04415e-09
1.55696e-09
1.71164e-09
1.77416e-09
2.42793e-09
2.83371e-09
2.73625e-09
2.54986e-09
2.65204e-09
2.73595e-09
2.12932e-09
2.68595e-09
3.03126e-09
2.73767e-09
1.88835e-09
1.84789e-09
1.64818e-09
2.00287e-09
2.2105e-09
3.13598e-09
3.64892e-09
3.79361e-09
3.2957e-09
1.24599e-08
1.11673e-08
3.33596e-09
3.88194e-09
3.31307e-09
2.78049e-09
2.11043e-09
1.92885e-09
1.46561e-09
1.61389e-09
1.78158e-09
2.53639e-09
2.66675e-09
2.434e-09
2.79935e-09
2.97917e-09
2.88949e-09
2.38819e-09
3.11875e-09
3.56486e-09
3.47862e-09
2.43661e-09
1.82573e-09
1.4641e-09
1.75964e-09
1.89043e-09
2.81601e-09
3.55932e-09
3.9324e-09
3.35583e-09
1.12467e-08
9.68944e-09
3.41635e-09
3.84175e-09
2.99377e-09
2.45701e-09
1.95399e-09
2.12828e-09
1.88288e-09
1.9846e-09
2.10744e-09
2.72594e-09
2.43002e-09
2.04267e-09
2.75297e-09
3.03452e-09
2.83905e-09
2.56665e-09
3.0834e-09
3.64215e-09
4.13485e-09
3.46225e-09
2.55188e-09
1.88575e-09
2.07972e-09
2.2147e-09
3.08831e-09
3.703e-09
4.24566e-09
3.5963e-09
1.00329e-08
8.4034e-09
3.41789e-09
3.68587e-09
2.81876e-09
2.47306e-09
2.2747e-09
2.6253e-09
2.61162e-09
2.90623e-09
2.92605e-09
3.02232e-09
2.10982e-09
1.80796e-09
2.65317e-09
3.11179e-09
2.94821e-09
2.64712e-09
2.89747e-09
3.41604e-09
4.24974e-09
4.21006e-09
3.80743e-09
3.14021e-09
3.22033e-09
3.38875e-09
3.95392e-09
3.9511e-09
4.40903e-09
3.89977e-09
8.73324e-09
7.05127e-09
3.6372e-09
3.69261e-09
3.01273e-09
3.21309e-09
3.25569e-09
3.57532e-09
3.66478e-09
4.1716e-09
4.29866e-09
3.94307e-09
2.34496e-09
1.92583e-09
2.85228e-09
3.63055e-09
3.4163e-09
3.19615e-09
3.50736e-09
3.83881e-09
4.47285e-09
4.57114e-09
4.87553e-09
4.81586e-09
5.01929e-09
4.98865e-09
4.96144e-09
4.17365e-09
4.3544e-09
4.24047e-09
7.30553e-09
5.73238e-09
4.0358e-09
3.65007e-09
3.44548e-09
3.70733e-09
3.59651e-09
3.75827e-09
3.81892e-09
4.33934e-09
4.67419e-09
4.42887e-09
2.86413e-09
2.29376e-09
3.08495e-09
3.68621e-09
3.34674e-09
3.18707e-09
3.61588e-09
3.75647e-09
3.87124e-09
3.70064e-09
4.19764e-09
4.583e-09
5.17337e-09
5.0275e-09
4.69897e-09
3.72657e-09
3.66102e-09
4.31698e-09
5.73224e-09
4.00712e-09
4.01727e-09
3.25647e-09
3.48314e-09
3.53397e-09
3.45241e-09
3.66983e-09
3.81642e-09
4.30698e-09
4.65939e-09
4.67283e-09
3.87488e-09
3.64415e-09
3.4656e-09
3.35077e-09
2.90457e-09
3.01159e-09
3.36381e-09
3.32011e-09
3.33441e-09
3.02044e-09
3.41078e-09
3.52228e-09
4.03446e-09
3.90754e-09
3.60235e-09
3.02805e-09
2.78774e-09
3.70943e-09
3.69918e-09
2.5593e-09
3.33663e-09
3.62142e-09
4.33671e-09
4.73957e-09
5.52597e-09
5.9858e-09
7.02058e-09
7.54039e-09
8.52027e-09
8.32664e-09
8.48921e-09
7.99544e-09
8.15001e-09
7.99033e-09
7.78556e-09
7.8453e-09
7.67337e-09
7.88466e-09
7.27258e-09
6.91964e-09
6.26528e-09
6.11988e-09
5.7032e-09
5.51331e-09
4.63539e-09
4.02402e-09
2.98521e-09
2.66072e-09
1.96906e-09
2.2387e-08
8.75997e-09
8.36691e-09
4.76385e-09
5.52622e-09
4.92488e-09
6.39459e-09
6.40388e-09
7.54697e-09
6.97286e-09
7.89736e-09
6.55481e-09
6.82154e-09
6.14646e-09
6.66873e-09
6.973e-09
6.57315e-09
7.21479e-09
6.3285e-09
6.92644e-09
5.38171e-09
6.06597e-09
5.3659e-09
6.27744e-09
5.58018e-09
5.31521e-09
4.32951e-09
3.5033e-09
2.76145e-09
2.40733e-09
8.51415e-09
4.80989e-09
8.71746e-10
3.02819e-09
2.83923e-09
2.66009e-09
2.99646e-09
3.04437e-09
3.59453e-09
3.66935e-09
3.69053e-09
3.34078e-09
2.40573e-09
2.32804e-09
2.47293e-09
2.35187e-09
2.77946e-09
2.85694e-09
2.94464e-09
2.28731e-09
1.73538e-09
2.11777e-09
2.87496e-09
3.18546e-09
2.95895e-09
2.4162e-09
2.31816e-09
2.39132e-09
2.86261e-09
3.25021e-09
5.51076e-09
5.28353e-09
4.63075e-09
4.35893e-09
4.37822e-09
3.20311e-09
3.00347e-09
2.76509e-09
3.74107e-09
4.62696e-09
5.23925e-09
5.14153e-09
4.26677e-09
3.58883e-09
3.22976e-09
3.11387e-09
3.39757e-09
2.93929e-09
3.0112e-09
2.52471e-09
2.36838e-09
3.00275e-09
4.28655e-09
4.69303e-09
3.74029e-09
2.76459e-09
2.8568e-09
3.69038e-09
3.52613e-09
4.6491e-09
7.05273e-09
3.35483e-09
3.72266e-09
4.39999e-09
4.34566e-09
3.75169e-09
2.96827e-09
2.50249e-09
2.88971e-09
4.23286e-09
5.89076e-09
6.47696e-09
5.81824e-09
4.85968e-09
4.15878e-09
3.88958e-09
3.55206e-09
2.71819e-09
3.07473e-09
2.8645e-09
2.66408e-09
4.13736e-09
5.66861e-09
5.69356e-09
4.66244e-09
3.44768e-09
3.45146e-09
4.00645e-09
3.75569e-09
6.0541e-09
7.75907e-09
3.75687e-09
3.40369e-09
4.54538e-09
4.30478e-09
3.84621e-09
3.37685e-09
3.07848e-09
3.2421e-09
4.32734e-09
6.33684e-09
6.8682e-09
5.5905e-09
4.57483e-09
3.95473e-09
3.67081e-09
3.04227e-09
2.35557e-09
3.07178e-09
3.36839e-09
4.28859e-09
5.31062e-09
5.70605e-09
5.47833e-09
5.01185e-09
4.06488e-09
4.02591e-09
3.62848e-09
3.80461e-09
7.38458e-09
9.58403e-09
3.09101e-09
3.11353e-09
3.8492e-09
3.20294e-09
2.39787e-09
2.0639e-09
1.87291e-09
1.95745e-09
2.72639e-09
4.31242e-09
4.76828e-09
3.75223e-09
3.07899e-09
2.46512e-09
2.44751e-09
2.15155e-09
2.07658e-09
2.78508e-09
3.45543e-09
3.86399e-09
3.67678e-09
3.28326e-09
3.41378e-09
3.92333e-09
4.08458e-09
4.19273e-09
3.15297e-09
3.76906e-09
8.5947e-09
1.04121e-08
3.15856e-09
2.81701e-09
3.50664e-09
3.00778e-09
2.18563e-09
1.82548e-09
1.41743e-09
1.3518e-09
1.82792e-09
2.89103e-09
3.64481e-09
3.00777e-09
2.55136e-09
1.89414e-09
2.05212e-09
2.07648e-09
2.22165e-09
3.07126e-09
3.21003e-09
2.66283e-09
1.94977e-09
1.58662e-09
2.04632e-09
3.23616e-09
3.96708e-09
3.89655e-09
2.72497e-09
3.74776e-09
9.80433e-09
1.15762e-08
2.92193e-09
2.41045e-09
3.32771e-09
3.26352e-09
2.60797e-09
2.01971e-09
1.50717e-09
1.23987e-09
1.44939e-09
2.16123e-09
3.21952e-09
2.89289e-09
2.71304e-09
1.75276e-09
1.76513e-09
1.84196e-09
2.40949e-09
3.13878e-09
2.56288e-09
1.70302e-09
1.26765e-09
1.30322e-09
1.95854e-09
3.10921e-09
3.66356e-09
3.46631e-09
2.61815e-09
3.67574e-09
1.09926e-08
1.22786e-08
3.02011e-09
1.91839e-09
2.73341e-09
3.11798e-09
2.97799e-09
2.45511e-09
1.90231e-09
1.61521e-09
1.75311e-09
2.05875e-09
2.87757e-09
2.9169e-09
2.89698e-09
1.89523e-09
1.92416e-09
1.97599e-09
2.09575e-09
2.53869e-09
2.01673e-09
1.60845e-09
1.41866e-09
1.6748e-09
2.26299e-09
2.96975e-09
3.18272e-09
3.09685e-09
2.56528e-09
3.4421e-09
1.22054e-08
1.32641e-08
2.90185e-09
1.67389e-09
1.84854e-09
2.27211e-09
2.65284e-09
2.64816e-09
2.27322e-09
1.90864e-09
2.0534e-09
2.09022e-09
2.69787e-09
2.48262e-09
2.31089e-09
1.92476e-09
1.74518e-09
2.22564e-09
1.90906e-09
1.87948e-09
1.63845e-09
1.75691e-09
1.72207e-09
2.0461e-09
2.46401e-09
2.609e-09
2.60619e-09
2.51165e-09
2.11745e-09
3.01341e-09
1.33535e-08
1.41722e-08
3.07779e-09
1.628e-09
1.6399e-09
1.68779e-09
2.11591e-09
2.46191e-09
2.45937e-09
2.14769e-09
2.2763e-09
2.55666e-09
3.2568e-09
2.72625e-09
3.18476e-09
3.26485e-09
2.76932e-09
2.92172e-09
2.49295e-09
2.54084e-09
2.17447e-09
2.22215e-09
2.20823e-09
2.38453e-09
2.45259e-09
2.25641e-09
2.19568e-09
2.07657e-09
1.74473e-09
2.57398e-09
1.4239e-08
1.55537e-08
2.79833e-09
1.67081e-09
1.61537e-09
1.45046e-09
1.64091e-09
2.05398e-09
2.30894e-09
2.17786e-09
2.79655e-09
3.50341e-09
3.198e-09
3.00657e-09
3.78334e-09
4.00544e-09
3.97551e-09
3.5262e-09
2.60765e-09
2.84827e-09
2.92492e-09
2.70156e-09
2.39878e-09
2.2921e-09
2.11344e-09
1.92036e-09
1.94999e-09
1.85049e-09
1.57961e-09
2.15903e-09
1.49262e-08
1.59677e-08
2.36429e-09
1.43548e-09
1.64718e-09
1.49042e-09
1.35678e-09
1.63584e-09
2.38092e-09
2.22348e-09
2.97627e-09
3.62229e-09
3.19384e-09
4.08716e-09
4.70498e-09
4.75461e-09
4.58692e-09
4.28953e-09
3.34161e-09
2.87263e-09
3.02085e-09
2.92025e-09
2.16515e-09
1.93193e-09
1.68916e-09
1.43715e-09
1.43269e-09
1.39859e-09
1.21693e-09
2.06863e-09
1.58288e-08
1.65435e-08
1.91794e-09
6.56182e-10
9.10333e-10
9.59085e-10
7.47584e-10
1.1821e-09
2.26819e-09
2.48453e-09
2.61148e-09
2.60484e-09
3.48805e-09
4.04826e-09
4.81186e-09
4.81147e-09
4.64404e-09
4.28904e-09
3.53937e-09
3.30368e-09
2.22481e-09
2.47165e-09
2.04476e-09
1.46658e-09
1.16001e-09
1.02225e-09
9.51441e-10
8.78408e-10
7.69408e-10
2.03438e-09
1.65759e-08
1.63665e-08
2.07131e-09
4.71835e-10
3.72951e-10
4.92892e-10
4.99969e-10
8.81868e-10
1.38419e-09
2.11427e-09
2.53029e-09
2.77814e-09
3.38207e-09
2.99284e-09
3.63959e-09
4.23878e-09
4.38282e-09
3.80828e-09
3.40328e-09
3.48178e-09
2.97709e-09
2.8682e-09
2.29816e-09
1.47393e-09
1.01202e-09
9.24596e-10
8.23536e-10
6.79638e-10
7.04503e-10
2.00638e-09
1.71705e-08
1.66792e-08
2.26837e-09
5.56781e-10
3.18566e-10
5.19014e-10
7.83699e-10
9.00101e-10
1.2035e-09
2.069e-09
2.68353e-09
2.74598e-09
3.02833e-09
2.64578e-09
3.47547e-09
4.31541e-09
4.43556e-09
3.84088e-09
3.46446e-09
3.78306e-09
3.22097e-09
2.86884e-09
2.3716e-09
1.30734e-09
8.04925e-10
6.97103e-10
5.94912e-10
5.92353e-10
5.3441e-10
1.77935e-09
1.71792e-08
1.62204e-08
2.43339e-09
7.30953e-10
7.96128e-10
8.08094e-10
1.0421e-09
1.02579e-09
1.21425e-09
1.85977e-09
2.29698e-09
2.24538e-09
3.11319e-09
3.19523e-09
3.9919e-09
4.50896e-09
4.61116e-09
4.36498e-09
3.68161e-09
3.46645e-09
2.16446e-09
2.72454e-09
2.34944e-09
1.41073e-09
1.00376e-09
6.37191e-10
5.12498e-10
1.00351e-09
9.67038e-10
1.77215e-09
1.72176e-08
1.60817e-08
2.45484e-09
1.19126e-09
1.33681e-09
1.21139e-09
1.29175e-09
1.49257e-09
1.56879e-09
1.74965e-09
2.62447e-09
3.11799e-09
2.92726e-09
3.23527e-09
4.04557e-09
4.61061e-09
4.82426e-09
4.40413e-09
3.47281e-09
2.71171e-09
2.34667e-09
2.99212e-09
2.20591e-09
1.96513e-09
1.73778e-09
1.28935e-09
1.2975e-09
1.85946e-09
1.80466e-09
2.30742e-09
1.70156e-08
1.51363e-08
2.64822e-09
1.65173e-09
1.81436e-09
1.98684e-09
2.14951e-09
2.20367e-09
2.0741e-09
2.02873e-09
2.40002e-09
2.96228e-09
2.81786e-09
2.35021e-09
3.18123e-09
3.96848e-09
4.38249e-09
3.59298e-09
2.64095e-09
2.2698e-09
2.53364e-09
2.65552e-09
2.46051e-09
2.15706e-09
2.04069e-09
1.82276e-09
1.7759e-09
2.14601e-09
2.07156e-09
2.88619e-09
1.64011e-08
1.44438e-08
2.80979e-09
1.78627e-09
1.88238e-09
2.46107e-09
2.69506e-09
2.35197e-09
1.96242e-09
1.80016e-09
1.84331e-09
2.01618e-09
2.53141e-09
2.12128e-09
2.50591e-09
2.93381e-09
3.70357e-09
3.2628e-09
2.51362e-09
2.38081e-09
2.12565e-09
2.2554e-09
2.33794e-09
2.29448e-09
2.40394e-09
2.49431e-09
2.22905e-09
2.02349e-09
1.86029e-09
3.11741e-09
1.52745e-08
1.34981e-08
3.23562e-09
2.21425e-09
2.15941e-09
3.05258e-09
3.262e-09
2.49235e-09
1.79673e-09
1.54455e-09
1.52385e-09
1.596e-09
2.17405e-09
2.29811e-09
2.59756e-09
1.84523e-09
2.11543e-09
2.01402e-09
2.41434e-09
2.30769e-09
1.98055e-09
2.14248e-09
2.09654e-09
2.19109e-09
2.71128e-09
3.27812e-09
3.06368e-09
2.29939e-09
1.89722e-09
3.14052e-09
1.38846e-08
1.25745e-08
3.33542e-09
2.32078e-09
2.82823e-09
3.6283e-09
3.27453e-09
2.36427e-09
1.68769e-09
1.36447e-09
1.41866e-09
1.93763e-09
2.71227e-09
2.30843e-09
2.46818e-09
2.83036e-09
2.93119e-09
2.82723e-09
3.18406e-09
3.00806e-09
2.31918e-09
2.06454e-09
1.77751e-09