/*--------------------------------*- C++ -*----------------------------------*\
| =========                 |                                                 |
| \\      /  F ield         | OpenFOAM: The Open Source CFD Toolbox           |
|  \\    /   O peration     | Version:  v1906                                 |
|   \\  /    A nd           | Web:      www.OpenFOAM.com                      |
|    \\/     M anipulation  |                                                 |
\*---------------------------------------------------------------------------*/
FoamFile
{
    version     2.0;
    format      ascii;
    class       volScalarField;
    location    "25";
    object      alphat;
}
// * * * * * * * * * * * * * * * * * * * * * * * * * * * * * * * * * * * * * //

dimensions      [1 -1 -1 0 0 0 0];


internalField   nonuniform List<scalar> 
78750
(
4.94459e-07
8.81505e-06
9.58577e-06
9.48364e-06
9.20625e-06
8.85602e-06
8.4988e-06
8.16395e-06
7.8581e-06
7.57866e-06
7.32163e-06
7.08639e-06
6.87238e-06
6.67769e-06
6.49981e-06
6.33576e-06
6.18269e-06
6.03779e-06
5.89808e-06
5.76031e-06
5.62055e-06
5.47489e-06
5.31808e-06
5.1443e-06
4.94724e-06
4.71924e-06
4.45101e-06
4.13132e-06
3.7468e-06
3.2851e-06
2.73776e-06
2.1063e-06
1.42299e-06
7.97594e-07
1.2912e-08
4.87859e-08
5.84568e-06
1.24252e-05
2.12273e-05
2.6558e-05
2.88444e-05
3.09111e-05
3.26256e-05
3.3562e-05
3.40014e-05
3.42753e-05
3.44773e-05
3.45659e-05
3.45743e-05
3.45481e-05
3.44733e-05
3.43558e-05
3.42297e-05
3.413e-05
3.40808e-05
3.40835e-05
3.41172e-05
3.4147e-05
3.41054e-05
3.38632e-05
3.31766e-05
3.16442e-05
2.87443e-05
2.42078e-05
1.86763e-05
1.35741e-05
1.01443e-05
8.93129e-06
5.52849e-06
3.57827e-08
7.20043e-08
6.33621e-06
1.07981e-05
1.16964e-05
1.23553e-05
1.38659e-05
1.67366e-05
2.17306e-05
2.76382e-05
2.76514e-05
2.77537e-05
2.79273e-05
2.81588e-05
2.84355e-05
2.87449e-05
2.90722e-05
2.94091e-05
2.97478e-05
3.00791e-05
3.03923e-05
3.06745e-05
3.09107e-05
3.10827e-05
3.11689e-05
3.11425e-05
3.09698e-05
3.06079e-05
2.72612e-05
2.23482e-05
1.81098e-05
1.50432e-05
1.3795e-05
1.48598e-05
4.77838e-06
4.34064e-08
5.3891e-08
7.4467e-06
1.70861e-05
1.5394e-05
1.43908e-05
1.49615e-05
1.83699e-05
2.5792e-05
2.53806e-05
2.49451e-05
2.45362e-05
2.41861e-05
2.39136e-05
2.37286e-05
2.36344e-05
2.36303e-05
2.37135e-05
2.38798e-05
2.41232e-05
2.44364e-05
2.48086e-05
2.52245e-05
2.56625e-05
2.60925e-05
2.64746e-05
2.67587e-05
2.68845e-05
2.35001e-05
1.84059e-05
1.48557e-05
1.30261e-05
1.3373e-05
1.71088e-05
5.03732e-06
4.4735e-08
4.71521e-08
4.6088e-06
1.86411e-05
1.88237e-05
1.67655e-05
1.55856e-05
1.53412e-05
1.60467e-05
1.8026e-05
2.00384e-05
1.89958e-05
1.80689e-05
1.73077e-05
1.67269e-05
1.63187e-05
1.60655e-05
1.59501e-05
1.59631e-05
1.61002e-05
1.63653e-05
1.67693e-05
1.73259e-05
1.80444e-05
1.89177e-05
1.99131e-05
2.09547e-05
1.99061e-05
1.76254e-05
1.57954e-05
1.45161e-05
1.42227e-05
1.57219e-05
1.69881e-05
4.10324e-06
4.66644e-08
3.66981e-08
4.07143e-06
1.66287e-05
1.86559e-05
1.45001e-05
1.21817e-05
1.12793e-05
1.13124e-05
1.22079e-05
1.41256e-05
1.53704e-05
1.4527e-05
1.3866e-05
1.3382e-05
1.3047e-05
1.28227e-05
1.26687e-05
1.25489e-05
1.24357e-05
1.23135e-05
1.21824e-05
1.20629e-05
1.20006e-05
1.2068e-05
1.11184e-05
1.00161e-05
9.36834e-06
9.07346e-06
9.04773e-06
9.28147e-06
1.00458e-05
1.21541e-05
1.56837e-05
3.9313e-06
4.57297e-08
3.45824e-08
3.25175e-06
1.52017e-05
1.73066e-05
1.51355e-05
1.2391e-05
1.09877e-05
1.04409e-05
1.04429e-05
1.08804e-05
1.17522e-05
1.29176e-05
1.2685e-05
1.26245e-05
1.27637e-05
1.30157e-05
1.32948e-05
1.35292e-05
1.36623e-05
1.36512e-05
1.34663e-05
1.30928e-05
1.25373e-05
1.04604e-05
7.92996e-06
6.14434e-06
5.08539e-06
4.68774e-06
4.88815e-06
5.63015e-06
7.00901e-06
9.49454e-06
1.19054e-05
3.07728e-06
4.96784e-08
3.23146e-08
2.86961e-06
1.32718e-05
1.61555e-05
1.36912e-05
1.06132e-05
9.07047e-06
8.42422e-06
8.30545e-06
8.5401e-06
9.01144e-06
9.6204e-06
1.03553e-05
1.13488e-05
1.28347e-05
1.48912e-05
1.58188e-05
1.64401e-05
1.69017e-05
1.7166e-05
1.71995e-05
1.69714e-05
1.64559e-05
1.44897e-05
1.04938e-05
7.2915e-06
5.04492e-06
3.65835e-06
3.05465e-06
3.1663e-06
4.012e-06
6.03309e-06
9.59264e-06
2.64937e-06
5.17323e-08
3.12262e-08
2.49201e-06
1.06832e-05
1.53314e-05
1.34313e-05
1.01664e-05
8.42067e-06
7.57373e-06
7.22494e-06
7.19523e-06
7.42564e-06
7.953e-06
8.89094e-06
1.03997e-05
1.27091e-05
1.59241e-05
1.74373e-05
1.82079e-05
1.88074e-05
1.92114e-05
1.93943e-05
1.93253e-05
1.89699e-05
1.8294e-05
1.41588e-05
9.53384e-06
6.21291e-06
4.04564e-06
2.83463e-06
2.44651e-06
2.8755e-06
4.54842e-06
8.14119e-06
2.24078e-06
5.45055e-08
2.9724e-08
2.2517e-06
9.27224e-06
1.45644e-05
1.26077e-05
9.04618e-06
7.19337e-06
6.28098e-06
5.88241e-06
5.85906e-06
6.21561e-06
7.03198e-06
8.42167e-06
1.0522e-05
1.355e-05
1.75174e-05
1.90921e-05
1.99267e-05
2.05939e-05
2.10817e-05
2.13739e-05
2.14433e-05
2.12545e-05
2.07671e-05
1.7307e-05
1.20446e-05
7.93771e-06
5.06886e-06
3.29229e-06
2.4279e-06
2.38869e-06
3.50282e-06
7.53697e-06
2.10902e-06
5.5327e-08
2.75344e-08
2.03952e-06
7.87017e-06
1.38695e-05
1.2916e-05
8.9388e-06
6.78458e-06
5.67241e-06
5.1439e-06
5.07592e-06
5.49813e-06
6.50755e-06
8.22535e-06
1.08186e-05
1.45579e-05
1.87993e-05
1.9795e-05
2.06344e-05
2.13197e-05
2.18495e-05
2.22129e-05
2.23868e-05
2.23361e-05
2.20158e-05
1.8513e-05
1.32906e-05
9.04963e-06
5.92186e-06
3.85718e-06
2.7207e-06
2.42222e-06
3.25571e-06
7.38826e-06
2.0629e-06
5.78677e-08
2.48926e-08
1.90182e-06
7.03389e-06
1.309e-05
1.24678e-05
8.21921e-06
5.97401e-06
4.85401e-06
4.38629e-06
4.4608e-06
5.11949e-06
6.46666e-06
8.60502e-06
1.17067e-05
1.59339e-05
1.97199e-05
2.06466e-05
2.14282e-05
2.20807e-05
2.26114e-05
2.30134e-05
2.32647e-05
2.33284e-05
2.31563e-05
1.91061e-05
1.42029e-05
1.00098e-05
6.71865e-06
4.422e-06
3.0636e-06
2.55298e-06
3.13305e-06
7.20909e-06
2.13277e-06
6.16985e-08
2.24914e-08
1.80422e-06
6.43958e-06
1.23123e-05
1.1848e-05
7.53025e-06
5.29048e-06
4.24129e-06
3.91858e-06
4.20947e-06
5.1471e-06
6.80555e-06
9.24588e-06
1.26013e-05
1.69156e-05
1.99451e-05
2.07382e-05
2.14198e-05
2.20132e-05
2.25286e-05
2.29584e-05
2.32778e-05
2.34454e-05
2.28114e-05
1.82024e-05
1.38143e-05
1.00383e-05
6.95036e-06
4.70567e-06
3.31823e-06
2.75281e-06
3.29378e-06
7.50572e-06
2.16585e-06
6.74991e-08
2.07885e-08
1.73125e-06
6.10784e-06
1.14213e-05
9.97323e-06
6.08994e-06
4.31468e-06
3.66688e-06
3.73327e-06
4.41939e-06
5.75311e-06
7.71866e-06
1.02866e-05
1.34843e-05
1.73047e-05
2.00817e-05
2.07007e-05
2.12634e-05
2.17906e-05
2.22875e-05
2.27423e-05
2.31257e-05
2.33926e-05
2.08844e-05
1.68555e-05
1.31589e-05
9.8579e-06
7.02811e-06
4.87491e-06
3.4878e-06
2.89395e-06
3.42869e-06
7.86197e-06
2.17403e-06
7.31134e-08
2.02592e-08
1.63706e-06
5.83435e-06
1.0562e-05
8.02166e-06
5.00227e-06
3.86692e-06
3.68275e-06
4.12097e-06
5.09819e-06
6.57372e-06
8.42082e-06
1.05638e-05
1.30655e-05
1.60937e-05
1.92342e-05
1.97315e-05
2.02244e-05
2.07235e-05
2.12276e-05
2.17208e-05
2.21707e-05
2.14853e-05
1.77633e-05
1.44331e-05
1.15812e-05
9.01376e-06
6.74148e-06
4.92113e-06
3.68192e-06
3.15807e-06
3.83677e-06
8.7995e-06
2.16091e-06
7.73192e-08
2.00378e-08
1.56153e-06
5.83908e-06
1.00923e-05
6.93105e-06
4.61453e-06
3.92568e-06
4.00668e-06
4.57061e-06
5.51986e-06
6.75389e-06
8.17771e-06
9.81971e-06
1.18248e-05
1.43911e-05
1.74761e-05
1.85098e-05
1.89713e-05
1.94525e-05
1.99535e-05
2.04612e-05
2.09475e-05
1.75517e-05
1.44391e-05
1.19543e-05
9.8538e-06
7.9578e-06
6.25393e-06
4.83168e-06
3.8217e-06
3.4438e-06
4.37056e-06
9.71462e-06
2.14284e-06
7.86146e-08
1.82447e-08
1.46159e-06
5.35255e-06
9.82553e-06
7.59395e-06
5.04009e-06
4.23575e-06
4.16013e-06
4.45691e-06
5.02839e-06
5.8514e-06
6.90175e-06
8.2393e-06
9.99691e-06
1.23538e-05
1.53233e-05
1.69833e-05
1.74177e-05
1.7858e-05
1.83121e-05
1.87759e-05
1.70358e-05
1.39404e-05
1.1492e-05
9.64207e-06
8.15051e-06
6.85876e-06
5.72722e-06
4.74949e-06
4.03399e-06
3.87428e-06
5.15823e-06
1.03067e-05
2.15487e-06
7.81854e-08
1.51106e-08
1.39968e-06
4.87465e-06
9.40482e-06
8.87006e-06
5.72382e-06
4.54091e-06
4.15298e-06
4.13666e-06
4.4015e-06
4.97188e-06
5.83244e-06
7.01651e-06
8.60967e-06
1.07561e-05
1.3557e-05
1.62053e-05
1.6625e-05
1.70057e-05
1.73588e-05
1.76893e-05
1.44318e-05
1.15705e-05
9.4891e-06
7.9936e-06
6.86194e-06
5.95451e-06
5.22467e-06
4.60805e-06
4.17772e-06
4.25755e-06
5.89148e-06
1.05246e-05
2.19346e-06
7.84602e-08
1.27054e-08
1.39672e-06
4.78459e-06
8.8916e-06
9.74684e-06
6.21353e-06
4.70619e-06
4.08067e-06
3.88428e-06
4.02158e-06
4.50837e-06
5.316e-06
6.4483e-06
7.95231e-06
9.94082e-06
1.25639e-05
1.56855e-05
1.68506e-05
1.72308e-05
1.75037e-05
1.66569e-05
1.32617e-05
1.03668e-05
8.31295e-06
6.91372e-06
5.9467e-06
5.26981e-06
4.8203e-06
4.48957e-06
4.31599e-06
4.62906e-06
6.56993e-06
1.0646e-05
2.25125e-06
8.08698e-08
1.16054e-08
1.421e-06
4.99423e-06
8.43398e-06
9.33046e-06
6.06045e-06
4.52513e-06
3.88165e-06
3.71281e-06
3.9323e-06
4.51927e-06
5.42923e-06
6.65048e-06
8.22188e-06
1.02557e-05
1.29036e-05
1.61012e-05
1.84103e-05
1.88694e-05
1.91436e-05
1.73915e-05
1.3631e-05
1.03699e-05
8.03545e-06
6.46661e-06
5.43673e-06
4.7932e-06
4.45372e-06
4.28702e-06
4.30447e-06
4.8205e-06
7.01072e-06
1.06676e-05
2.30058e-06
8.5931e-08
1.13166e-08
1.43342e-06
5.2399e-06
8.13156e-06
8.89581e-06
5.68456e-06
4.3253e-06
3.81361e-06
3.7811e-06
4.15847e-06
4.88773e-06
5.90946e-06
7.20772e-06
8.83796e-06
1.095e-05
1.37455e-05
1.72266e-05
2.02265e-05
2.07819e-05
2.11272e-05
1.91426e-05
1.4816e-05
1.10271e-05
8.31476e-06
6.49228e-06
5.30518e-06
4.59361e-06
4.25954e-06
4.15762e-06
4.28027e-06
4.92694e-06
7.28728e-06
1.05633e-05
2.31789e-06
9.25529e-08
1.12587e-08
1.43616e-06
5.47898e-06
7.96632e-06
8.17909e-06
5.37077e-06
4.26103e-06
3.92543e-06
4.04845e-06
4.5753e-06
5.40598e-06
6.47161e-06
7.76113e-06
9.35342e-06
1.14377e-05
1.42816e-05
1.79915e-05
2.13716e-05
2.19898e-05
2.24202e-05
2.08227e-05
1.58853e-05
1.16079e-05
8.6239e-06
6.64496e-06
5.35058e-06
4.56411e-06
4.18364e-06
4.07667e-06
4.24597e-06
4.99695e-06
7.55987e-06
1.04032e-05
2.32125e-06
1.00029e-07
1.11514e-08
1.42987e-06
5.58747e-06
7.95876e-06
8.13079e-06
5.46506e-06
4.48267e-06
4.24641e-06
4.43746e-06
4.9815e-06
5.7567e-06
6.68553e-06
7.76773e-06
9.10674e-06
1.09265e-05
1.35653e-05
1.73062e-05
2.13832e-05
2.2079e-05
2.26056e-05
2.16659e-05
1.61539e-05
1.15206e-05
8.44559e-06
6.48848e-06
5.25354e-06
4.53438e-06
4.19565e-06
4.10789e-06
4.30282e-06
5.13248e-06
7.92582e-06
9.9729e-06
2.27647e-06
1.05861e-07
1.05846e-08
1.41083e-06
5.4492e-06
7.97247e-06
8.90983e-06
5.98646e-06
4.92005e-06
4.63889e-06
4.75346e-06
5.14846e-06
5.71952e-06
6.40207e-06
7.22006e-06
8.2965e-06
9.86338e-06
1.22793e-05
1.59439e-05
2.06552e-05
2.19551e-05
2.25864e-05
2.2276e-05
1.63251e-05
1.13545e-05
8.14189e-06
6.14938e-06
4.95034e-06
4.32872e-06
4.10637e-06
4.1193e-06
4.40636e-06
5.3873e-06
8.5503e-06
9.46234e-06
2.23614e-06
1.08709e-07
9.57267e-09
1.37953e-06
5.04368e-06
7.91445e-06
9.06911e-06
6.99301e-06
5.62347e-06
5.11263e-06
5.00274e-06
5.13574e-06
5.45421e-06
5.91638e-06
6.55595e-06
7.48443e-06
8.90887e-06
1.11822e-05
1.47876e-05
1.97641e-05
2.19718e-05
2.27206e-05
2.2972e-05
1.676e-05
1.1553e-05
8.15575e-06
5.98723e-06
4.65719e-06
4.00348e-06
3.85878e-06
4.02105e-06
4.47679e-06
5.67549e-06
9.23627e-06
8.69524e-06
2.16816e-06
1.08112e-07
8.50463e-09
1.34962e-06
4.68878e-06
7.70004e-06
8.91532e-06
8.20919e-06
6.44292e-06
5.62063e-06
5.25379e-06
5.14533e-06
5.26451e-06
5.58729e-06
6.13099e-06
6.97093e-06
8.27697e-06
1.03914e-05
1.38766e-05
1.9035e-05
2.19915e-05
2.28625e-05
2.35188e-05
1.762e-05
1.23505e-05
8.87512e-06
6.4993e-06
4.85165e-06
3.88334e-06
3.55214e-06
3.70579e-06
4.30571e-06
5.73447e-06
9.54817e-06
8.37051e-06
2.15473e-06
1.08303e-07
7.87528e-09
1.31995e-06
4.44e-06
7.46316e-06
8.70462e-06
9.47423e-06
7.25883e-06
6.08372e-06
5.47209e-06
5.18644e-06
5.18157e-06
5.42664e-06
5.90057e-06
6.6434e-06
7.80652e-06
9.73576e-06
1.30487e-05
1.82607e-05
2.18121e-05
2.2773e-05
2.35359e-05
1.77037e-05
1.24987e-05
9.3351e-06
7.21182e-06
5.54317e-06
4.29208e-06
3.59463e-06
3.45005e-06
3.89357e-06
5.28273e-06
9.10491e-06
8.27222e-06
2.15735e-06
1.11912e-07
7.45531e-09
1.27351e-06
4.16402e-06
7.20718e-06
8.44096e-06
9.39265e-06
7.81455e-06
6.45008e-06
5.70494e-06
5.34103e-06
5.2703e-06
5.43763e-06
5.79857e-06
6.396e-06
7.41173e-06
9.22889e-06
1.25023e-05
1.78018e-05
2.16653e-05
2.27208e-05
2.35398e-05
1.75136e-05
1.22142e-05
9.20206e-06
7.42184e-06
6.09852e-06
4.9525e-06
4.07875e-06
3.61641e-06
3.74733e-06
4.85236e-06
8.37448e-06
8.52359e-06
2.18668e-06
1.16259e-07
6.52478e-09
1.22475e-06
3.82401e-06
6.79115e-06
8.00519e-06
8.95631e-06
8.3298e-06
6.88475e-06
6.02926e-06
5.55405e-06
5.33676e-06
5.32471e-06
5.50845e-06
5.98539e-06
6.9906e-06
8.96128e-06
1.26365e-05
1.85185e-05
2.17885e-05
2.29838e-05
2.3871e-05
1.7567e-05
1.22471e-05
9.10903e-06
7.36185e-06
6.28522e-06
5.42868e-06
4.63384e-06
4.00293e-06
3.83691e-06
4.61684e-06
7.80012e-06
8.83118e-06
2.21689e-06
1.21724e-07
5.29268e-09
1.23336e-06
3.72258e-06
6.2382e-06
7.40121e-06
8.31441e-06
8.30795e-06
6.88072e-06
5.92735e-06
5.30759e-06
4.93434e-06
4.81139e-06
5.00194e-06
5.65479e-06
7.0498e-06
9.73162e-06
1.45592e-05
2.11061e-05
2.26491e-05
2.38793e-05
2.36186e-05
1.75766e-05
1.25496e-05
9.35176e-06
7.52593e-06
6.51022e-06
5.86627e-06
5.26819e-06
4.64809e-06
4.29305e-06
4.75599e-06
7.47173e-06
9.64741e-06
2.29815e-06
1.32213e-07
4.35704e-09
1.34109e-06
4.12088e-06
5.74436e-06
6.82308e-06
7.64163e-06
7.36633e-06
5.95843e-06
4.97867e-06
4.36538e-06
4.11358e-06
4.25754e-06
4.89069e-06
6.21637e-06
8.6519e-06
1.29185e-05
1.9302e-05
2.29048e-05
2.42771e-05
2.52959e-05
2.32529e-05
1.72791e-05
1.22656e-05
9.11549e-06
7.46775e-06
6.73448e-06
6.38482e-06
5.96343e-06
5.36379e-06
4.90008e-06
5.20188e-06
7.78874e-06
1.03748e-05
2.38991e-06
1.45954e-07
3.76576e-09
1.5159e-06
4.09629e-06
5.36551e-06
6.32342e-06
6.99025e-06
5.70544e-06
4.42294e-06
3.72914e-06
3.55956e-06
3.88106e-06
4.75184e-06
6.36223e-06
9.09984e-06
1.3531e-05
1.96481e-05
2.3636e-05
2.49567e-05
2.59705e-05
2.66544e-05
2.30292e-05
1.66799e-05
1.14078e-05
8.18353e-06
6.69954e-06
6.41287e-06
6.69023e-06
6.81784e-06
6.45634e-06
5.98598e-06
6.30886e-06
9.28439e-06
1.0173e-05
2.40185e-06
1.53734e-07
3.63853e-09
1.75335e-06
4.03621e-06
5.21446e-06
6.02691e-06
5.17206e-06
3.77853e-06
3.24021e-06
3.3438e-06
3.99818e-06
5.26797e-06
7.35913e-06
1.0608e-05
1.52809e-05
2.09023e-05
2.45232e-05
2.5704e-05
2.66754e-05
2.74087e-05
2.78634e-05
2.34593e-05
1.68034e-05
1.13645e-05
7.96071e-06
6.31121e-06
5.95663e-06
6.34223e-06
6.84218e-06
6.98559e-06
6.93946e-06
7.68897e-06
1.13972e-05
9.69465e-06
2.40662e-06
1.59454e-07
4.07851e-09
1.84923e-06
4.15038e-06
5.28889e-06
4.62479e-06
3.40609e-06
3.14131e-06
3.54069e-06
4.55126e-06
6.28219e-06
8.93853e-06
1.26662e-05
1.72349e-05
2.18959e-05
2.43852e-05
2.5499e-05
2.65164e-05
2.73817e-05
2.80213e-05
2.83667e-05
2.19442e-05
1.48332e-05
9.84152e-06
6.99286e-06
5.78079e-06
5.74926e-06
6.39183e-06
7.15089e-06
7.62204e-06
8.02044e-06
9.43692e-06
1.39061e-05
8.91288e-06
2.38702e-06
1.62181e-07
4.71045e-09
1.96405e-06
4.52767e-06
5.47594e-06
3.69336e-06
3.32e-06
3.70266e-06
4.72839e-06
6.45039e-06
8.92664e-06
1.20585e-05
1.55876e-05
1.93001e-05
2.26963e-05
2.39985e-05
2.52947e-05
2.65142e-05
2.75691e-05
2.83623e-05
2.85179e-05
2.13431e-05
1.422e-05
9.22191e-06
6.32503e-06
5.07983e-06
5.06803e-06
5.88686e-06
7.04188e-06
8.05838e-06
9.07257e-06
1.12035e-05
1.55862e-05
8.24248e-06
2.35674e-06
1.62123e-07
4.8967e-09
2.03618e-06
4.79148e-06
5.14099e-06
3.64016e-06
3.44074e-06
3.94189e-06
5.01761e-06
6.66491e-06
8.90517e-06
1.17691e-05
1.52444e-05
1.91155e-05
2.20115e-05
2.3455e-05
2.49004e-05
2.62802e-05
2.75057e-05
2.8481e-05
2.70341e-05
2.08013e-05
1.44757e-05
9.61764e-06
6.48153e-06
4.88998e-06
4.54433e-06
5.16301e-06
6.42989e-06
7.93167e-06
9.63246e-06
1.24132e-05
1.61778e-05
7.86661e-06
2.35084e-06
1.63702e-07
4.57954e-09
2.06887e-06
4.83639e-06
5.64955e-06
3.8497e-06
3.53276e-06
3.92786e-06
4.85794e-06
6.30376e-06
8.30525e-06
1.09175e-05
1.41467e-05
1.78099e-05
2.04388e-05
2.19805e-05
2.35688e-05
2.51275e-05
2.65573e-05
2.77565e-05
2.60216e-05
2.05191e-05
1.48235e-05
1.01553e-05
6.85671e-06
4.92329e-06
4.17307e-06
4.41202e-06
5.50033e-06
7.23309e-06
9.52613e-06
1.28709e-05
1.6083e-05
7.60903e-06
2.35073e-06
1.66781e-07
3.69795e-09
1.95993e-06
4.46118e-06
5.74922e-06
4.42493e-06
3.68802e-06
3.71863e-06
4.24893e-06
5.21248e-06
6.65282e-06
8.68717e-06
1.14545e-05
1.49513e-05
1.84288e-05
2.00752e-05
2.18129e-05
2.3572e-05
2.52595e-05
2.67693e-05
2.51324e-05
2.07819e-05
1.59094e-05
1.14318e-05
7.85677e-06
5.42842e-06
4.13997e-06
3.83477e-06
4.44139e-06
5.93576e-06
8.39732e-06
1.22145e-05
1.57056e-05
7.52098e-06
2.37186e-06
1.72612e-07
2.70895e-09
1.94044e-06
3.89084e-06
5.05986e-06
5.11339e-06
3.9977e-06
3.7341e-06
3.99796e-06
4.67423e-06
5.76984e-06
7.36568e-06
9.59218e-06
1.25632e-05
1.61492e-05
1.79847e-05
1.96806e-05
2.14723e-05
2.32869e-05
2.50251e-05
2.43045e-05
2.07609e-05
1.67292e-05
1.27936e-05
9.26324e-06
6.47471e-06
4.65183e-06
3.75849e-06
3.76264e-06
4.69954e-06
6.78678e-06
1.06313e-05
1.49413e-05
7.38348e-06
2.36773e-06
1.78912e-07
2.05002e-09
1.98613e-06
3.38474e-06
4.46524e-06
5.28979e-06
4.22784e-06
3.86482e-06
4.03337e-06
4.59446e-06
5.51507e-06
6.81901e-06
8.57696e-06
1.0914e-05
1.39045e-05
1.58952e-05
1.73872e-05
1.90451e-05
2.08315e-05
2.26706e-05
2.31336e-05
1.99352e-05
1.65591e-05
1.33956e-05
1.03858e-05
7.6639e-06
5.54184e-06
4.15307e-06
3.58874e-06
3.91503e-06
5.35827e-06
8.70613e-06
1.40005e-05
7.3287e-06
2.36126e-06
1.86251e-07
1.49126e-09
1.67887e-06
2.91574e-06
3.90411e-06
4.68767e-06
4.48494e-06
4.10913e-06
4.20182e-06
4.6341e-06
5.3371e-06
6.28135e-06
7.47907e-06
9.02299e-06
1.10913e-05
1.31846e-05
1.42573e-05
1.55616e-05
1.71251e-05
1.89207e-05
2.03594e-05
1.7369e-05
1.47192e-05
1.2552e-05
1.05014e-05
8.41706e-06
6.46988e-06
4.86786e-06
3.87336e-06
3.67035e-06
4.4905e-06
7.11591e-06
1.28146e-05
7.21573e-06
2.32478e-06
1.89492e-07
1.02289e-09
1.38963e-06
2.46415e-06
3.35653e-06
4.10923e-06
4.51717e-06
4.28478e-06
4.37289e-06
4.68385e-06
5.1294e-06
5.64544e-06
6.19747e-06
6.80776e-06
7.60518e-06
8.8352e-06
1.00771e-05
1.07089e-05
1.17559e-05
1.32729e-05
1.45258e-05
1.24102e-05
1.09729e-05
1.00338e-05
9.15365e-06
8.07327e-06
6.80025e-06
5.44706e-06
4.34649e-06
3.83195e-06
4.22094e-06
6.29043e-06
1.19481e-05
7.16957e-06
2.29503e-06
1.90059e-07
8.65125e-10
1.16084e-06
2.09858e-06
2.92778e-06
3.68322e-06
4.3918e-06
4.39838e-06
4.43337e-06
4.50105e-06
4.55021e-06
4.53139e-06
4.39747e-06
4.12899e-06
3.76831e-06
3.45793e-06
3.46696e-06
4.04809e-06
4.34481e-06
5.33351e-06
5.84175e-06
5.72579e-06
6.02195e-06
6.4663e-06
6.79957e-06
6.82206e-06
6.4417e-06
5.64485e-06
4.72372e-06
4.11024e-06
4.24105e-06
5.93379e-06
1.13811e-05
7.11468e-06
2.26274e-06
1.85695e-07
1.11421e-09
1.05045e-06
1.89731e-06
2.67029e-06
3.36473e-06
3.95924e-06
4.01982e-06
3.86648e-06
3.64828e-06
3.35966e-06
2.96335e-06
2.41222e-06
1.68044e-06
8.10047e-07
6.06517e-09
8.82408e-07
3.72178e-07
5.90078e-09
1.03604e-06
3.36737e-07
2.39602e-07
1.38252e-06
2.62063e-06
3.82742e-06
4.77038e-06
5.29569e-06
5.28848e-06
4.87894e-06
4.46186e-06
4.5771e-06
6.16938e-06
1.15116e-05
7.10911e-06
2.25189e-06
1.80087e-07
1.67841e-09
9.30722e-07
1.84141e-06
2.55085e-06
3.15994e-06
3.23612e-06
3.09573e-06
2.93428e-06
2.78217e-06
2.64016e-06
2.47772e-06
2.23776e-06
1.87231e-06
1.39582e-06
9.27803e-07
5.31454e-07
5.08958e-07
7.75212e-07
8.7791e-07
9.35905e-08
3.97401e-07
3.31918e-07
3.25352e-08
1.14187e-06
2.50302e-06
3.68666e-06
4.39837e-06
4.58154e-06
4.52431e-06
4.78215e-06
6.37721e-06
1.15959e-05
7.25756e-06
2.26737e-06
1.75709e-07
2.23417e-09
6.67464e-07
1.47433e-06
2.19145e-06
2.59064e-06
2.80146e-06
3.04313e-06
3.41672e-06
3.93336e-06
4.57552e-06
5.31086e-06
6.08702e-06
6.8313e-06
7.42164e-06
7.65224e-06
7.28138e-06
6.10492e-06
4.23015e-06
2.23303e-06
1.1159e-06
1.85549e-07
2.79716e-07
4.39265e-07
9.65827e-09
4.99127e-07
1.78254e-06
3.10831e-06
4.0068e-06
4.48826e-06
5.05433e-06
6.80976e-06
1.19153e-05
7.54244e-06
2.31978e-06
1.79275e-07
3.33982e-09
7.33808e-07
1.4748e-06
2.19249e-06
2.82755e-06
3.54793e-06
4.49787e-06
5.72675e-06
7.20985e-06
8.86881e-06
1.05927e-05
1.22494e-05
1.36977e-05
1.47944e-05
1.53856e-05
1.52965e-05
1.43716e-05
1.25423e-05
9.89348e-06
6.70511e-06
3.5613e-06
1.3869e-06
8.59478e-07
5.76644e-07
2.9486e-07
6.19082e-08
1.23209e-06
2.64935e-06
3.79084e-06
4.79943e-06
6.66039e-06
1.14332e-05
8.1032e-06
2.41016e-06
1.97091e-07
5.99303e-09
1.21451e-06
1.91406e-06
2.50567e-06
3.28949e-06
4.40273e-06
5.96815e-06
8.06764e-06
1.06553e-05
1.34733e-05
1.61211e-05
1.82738e-05
1.97936e-05
2.06566e-05
2.08378e-05
2.02646e-05
1.88646e-05
1.66915e-05
1.40275e-05
1.12059e-05
8.29278e-06
5.21681e-06
2.40498e-06
7.15049e-07
5.99393e-07
2.08744e-07
1.80199e-07
1.3606e-06
2.79849e-06
4.25432e-06
6.41056e-06
1.11471e-05
8.58102e-06
2.49771e-06
2.26117e-07
6.73927e-09
1.7809e-06
2.25884e-06
2.80594e-06
3.71024e-06
5.13059e-06
7.28944e-06
1.02813e-05
1.3651e-05
1.65856e-05
1.88894e-05
2.08541e-05
2.25985e-05
2.389e-05
2.4207e-05
2.29263e-05
1.98019e-05
1.55909e-05
1.16567e-05
8.73277e-06
6.71832e-06
5.09436e-06
3.32039e-06
1.44047e-06
1.59558e-07
4.49007e-07
2.70164e-07
8.37943e-07
2.09183e-06
3.62395e-06
5.91991e-06
1.08814e-05
8.73436e-06
2.53708e-06
2.45526e-07
6.34759e-09
2.10609e-06
2.61216e-06
3.29739e-06
4.43889e-06
6.15049e-06
8.05385e-06
9.51307e-06
1.08934e-05
1.28113e-05
1.5394e-05
1.83496e-05
2.1146e-05
2.31956e-05
2.39276e-05
2.27452e-05
1.93411e-05
1.45736e-05
1.01029e-05
6.78148e-06
4.57097e-06
3.16618e-06
2.17695e-06
1.23259e-06
3.79974e-07
4.84611e-07
3.87132e-08
7.2773e-07
1.92247e-06
3.43089e-06
5.82676e-06
1.11848e-05
8.36127e-06
2.51327e-06
2.37318e-07
4.51243e-09
2.28525e-06
2.78204e-06
3.33704e-06
4.0231e-06
4.77756e-06
5.75006e-06
7.26039e-06
9.51424e-06
1.24487e-05
1.56623e-05
1.863e-05
2.10411e-05
2.27791e-05
2.37147e-05
2.35794e-05
2.19413e-05
1.84728e-05
1.37757e-05
9.31209e-06
5.96982e-06
3.78409e-06
2.4678e-06
1.66677e-06
1.07206e-06
6.62236e-07
5.92869e-07
1.0499e-06
1.98484e-06
3.38141e-06
5.90296e-06
1.1729e-05
7.79813e-06
2.45551e-06
2.13919e-07
2.93017e-09
1.74008e-06
2.20959e-06
2.50423e-06
2.92403e-06
3.63654e-06
4.76374e-06
6.3762e-06
8.49832e-06
1.11137e-05
1.40983e-05
1.71455e-05
1.98586e-05
2.19179e-05
2.31369e-05
2.34554e-05
2.29167e-05
2.14556e-05
1.86205e-05
1.42132e-05
9.46046e-06
5.78168e-06
3.47497e-06
2.23837e-06
1.68841e-06
1.50673e-06
1.50209e-06
1.74269e-06
2.37473e-06
3.58044e-06
6.13405e-06
1.21446e-05
7.52043e-06
2.42959e-06
1.98548e-07
3.24788e-09
1.11331e-06
1.7269e-06
2.20954e-06
2.80032e-06
3.60536e-06
4.68037e-06
6.11028e-06
8.04923e-06
1.06485e-05
1.38481e-05
1.71837e-05
1.99717e-05
2.17452e-05
2.23559e-05
2.1875e-05
2.06342e-05
1.91622e-05
1.77592e-05
1.60365e-05
1.31224e-05
9.1239e-06
5.5384e-06
3.25266e-06
2.16808e-06
1.90357e-06
2.01919e-06
2.27321e-06
2.76827e-06
3.81925e-06
6.32397e-06
1.24112e-05
7.60971e-06
2.46174e-06
1.94286e-07
3.96166e-09
9.88295e-07
1.69669e-06
2.27791e-06
2.90484e-06
3.71829e-06
4.85295e-06
6.4608e-06
8.69452e-06
1.16183e-05
1.50185e-05
1.83336e-05
2.09678e-05
2.2632e-05
2.3308e-05
2.30724e-05
2.2065e-05
2.05626e-05
1.89447e-05
1.73884e-05
1.55175e-05
1.25862e-05
8.68339e-06
5.20761e-06
3.10017e-06
2.32653e-06
2.39719e-06
2.76257e-06
3.26282e-06
4.23651e-06
6.70046e-06
1.26884e-05
7.76234e-06
2.49877e-06
1.95175e-07
4.18313e-09
7.95594e-07
1.45376e-06
2.09099e-06
2.85418e-06
3.89406e-06
5.33865e-06
7.30157e-06
9.8488e-06
1.29065e-05
1.61655e-05
1.91445e-05
2.13949e-05
2.26255e-05
2.27344e-05
2.18827e-05
2.05888e-05
1.95196e-05
1.90739e-05
1.91608e-05
1.91272e-05
1.78042e-05
1.41784e-05
9.18518e-06
5.16538e-06
3.06288e-06
2.54705e-06
2.8896e-06
3.54833e-06
4.58855e-06
7.03592e-06
1.30197e-05
8.28854e-06
2.5956e-06
2.06254e-07
4.45957e-09
8.91217e-07
1.68806e-06
2.62775e-06
3.84468e-06
5.48724e-06
7.67779e-06
1.03993e-05
1.33624e-05
1.61352e-05
1.84753e-05
2.03635e-05
2.17751e-05
2.25387e-05
2.23832e-05
2.1169e-05
1.92846e-05
1.76105e-05
1.68757e-05
1.72803e-05
1.84545e-05
1.93137e-05
1.81096e-05
1.39504e-05
8.74208e-06
5.00438e-06
3.31611e-06
3.12185e-06
3.74346e-06
4.92741e-06
7.49198e-06
1.34528e-05
8.60423e-06
2.65506e-06
2.17096e-07
4.90974e-09
1.17104e-06
2.13545e-06
3.28254e-06
4.79311e-06
6.76559e-06
9.0717e-06
1.13484e-05
1.33876e-05
1.53234e-05
1.73024e-05
1.92338e-05
2.07913e-05
2.15459e-05
2.1177e-05
1.97667e-05
1.79696e-05
1.66141e-05
1.62144e-05
1.69114e-05
1.84607e-05
2.00035e-05
1.99376e-05
1.69166e-05
1.18394e-05
7.25486e-06
4.53869e-06
3.61892e-06
3.95876e-06
5.20897e-06
8.00756e-06
1.41773e-05
8.98863e-06
2.74503e-06
2.29262e-07
5.22472e-09
1.20474e-06
2.19012e-06
3.36253e-06
4.84842e-06
6.59633e-06
8.41494e-06
1.02211e-05
1.21451e-05
1.43408e-05
1.6743e-05
1.89474e-05
2.03625e-05
2.05388e-05
1.93919e-05
1.73287e-05
1.51424e-05
1.35554e-05
1.29458e-05
1.34646e-05
1.50934e-05
1.7433e-05
1.93047e-05
1.8857e-05
1.52791e-05
1.03751e-05
6.52824e-06
4.56909e-06
4.28074e-06
5.32614e-06
8.17161e-06
1.44002e-05
9.22366e-06
2.80731e-06
2.41518e-07
5.22326e-09
1.18884e-06
2.211e-06
3.47756e-06
5.05561e-06
6.83848e-06
8.64439e-06
1.04001e-05
1.22147e-05
1.42664e-05
1.65702e-05
1.87603e-05
2.01743e-05
2.02622e-05
1.89154e-05
1.66009e-05
1.419e-05
1.24076e-05
1.15634e-05
1.1712e-05
1.2828e-05
1.47685e-05
1.69684e-05
1.8135e-05
1.68061e-05
1.30866e-05
8.94895e-06
6.11332e-06
5.03539e-06
5.62822e-06
8.36261e-06
1.46902e-05
9.5602e-06
2.89713e-06
2.64368e-07
5.83252e-09
1.30502e-06
2.4438e-06
3.82138e-06
5.4015e-06
6.9151e-06
8.12616e-06
9.13645e-06
1.03029e-05
1.1968e-05
1.421e-05
1.66085e-05
1.83085e-05
1.85473e-05
1.709e-05
1.44463e-05
1.17328e-05
9.87082e-06
9.20492e-06
9.76484e-06
1.14382e-05
1.39066e-05
1.64859e-05
1.80935e-05
1.76212e-05
1.4874e-05
1.10614e-05
7.83111e-06
6.11189e-06
6.17215e-06
8.59072e-06
1.47923e-05
9.73688e-06
2.95281e-06
2.8938e-07
6.0977e-09
1.29736e-06
2.38058e-06
3.5626e-06
4.72739e-06
5.71078e-06
6.58303e-06
7.64142e-06
9.2092e-06
1.14513e-05
1.41548e-05
1.66392e-05
1.8164e-05
1.83852e-05
1.72497e-05
1.48551e-05
1.17919e-05
9.1092e-06
7.54237e-06
7.3279e-06
8.50899e-06
1.10321e-05
1.43767e-05
1.71463e-05
1.77617e-05
1.58798e-05
1.25898e-05
9.40211e-06
7.38502e-06
7.10365e-06
9.33779e-06
1.54476e-05
9.77483e-06
3.00397e-06
3.13954e-07
5.28522e-09
1.03928e-06
1.87478e-06
2.76454e-06
3.69383e-06
4.68551e-06
5.89998e-06
7.5802e-06
9.91016e-06
1.2766e-05
1.55112e-05
1.73879e-05
1.81846e-05
1.81665e-05
1.75322e-05
1.60885e-05
1.35706e-05
1.05093e-05
8.05447e-06
6.89893e-06
7.18278e-06
8.87088e-06
1.17196e-05
1.47981e-05
1.65309e-05
1.5929e-05
1.3523e-05
1.06902e-05
8.64884e-06
8.22707e-06
1.04015e-05
1.63558e-05
9.71958e-06
3.02754e-06
3.34507e-07
5.63143e-09
8.83974e-07
1.64954e-06
2.54449e-06
3.60012e-06
4.90629e-06
6.63215e-06
8.92652e-06
1.16824e-05
1.43213e-05
1.61586e-05
1.70388e-05
1.72592e-05
1.7146e-05
1.67496e-05
1.57403e-05
1.37028e-05
1.08581e-05
8.22299e-06
6.69047e-06
6.6032e-06
8.01159e-06
1.06632e-05
1.36662e-05
1.55903e-05
1.55247e-05
1.38298e-05
1.15799e-05
9.85587e-06
9.59729e-06
1.19737e-05
1.76366e-05
9.54191e-06
3.03719e-06
3.53978e-07
6.67931e-09
8.37264e-07
1.64831e-06
2.70383e-06
4.05027e-06
5.75829e-06
7.93544e-06
1.05726e-05
1.32695e-05
1.53387e-05
1.64457e-05
1.68167e-05
1.68769e-05
1.69221e-05
1.68937e-05
1.62851e-05
1.44579e-05
1.15036e-05
8.52092e-06
6.54759e-06
6.0156e-06
7.0623e-06
9.51883e-06
1.26193e-05
1.4919e-05
1.53076e-05
1.40605e-05
1.22693e-05
1.10042e-05
1.12051e-05
1.41506e-05
1.91452e-05
9.21064e-06
3.01579e-06
3.61769e-07
9.876e-09
9.17978e-07
1.9132e-06
3.26272e-06
4.95473e-06
7.03428e-06
9.60423e-06
1.2572e-05
1.53734e-05
1.72341e-05
1.78707e-05
1.76103e-05
1.70156e-05
1.65186e-05
1.61372e-05
1.53877e-05
1.36508e-05
1.09878e-05
8.29946e-06
6.45073e-06
5.88888e-06
6.8196e-06
9.03524e-06
1.18024e-05
1.39291e-05
1.45622e-05
1.39132e-05
1.28616e-05
1.23498e-05
1.33896e-05
1.71744e-05
2.01117e-05
8.59077e-06
2.93071e-06
3.54707e-07
1.26595e-08
1.0487e-06
2.28893e-06
3.92674e-06
5.83024e-06
8.00281e-06
1.05852e-05
1.36312e-05
1.67168e-05
1.89702e-05
1.98139e-05
1.93976e-05
1.83597e-05
1.7316e-05
1.63887e-05
1.50874e-05
1.28448e-05
9.96997e-06
7.42277e-06
5.84011e-06
5.55017e-06
6.76239e-06
9.19835e-06
1.19384e-05
1.37796e-05
1.42586e-05
1.39039e-05
1.35594e-05
1.40205e-05
1.62719e-05
2.07364e-05
1.96589e-05
7.76616e-06
2.79457e-06
3.27257e-07
1.3444e-08
1.28128e-06
2.7452e-06
4.39936e-06
6.02777e-06
7.75042e-06
9.95848e-06
1.29305e-05
1.62578e-05
1.87823e-05
1.96321e-05
1.88858e-05
1.73725e-05
1.59866e-05
1.50204e-05
1.40232e-05
1.22165e-05
9.60032e-06
7.13934e-06
5.57536e-06
5.23878e-06
6.33254e-06
8.60127e-06
1.11931e-05
1.30667e-05
1.39067e-05
1.42725e-05
1.49253e-05
1.66485e-05
2.01536e-05
2.39415e-05
1.80327e-05
7.00149e-06
2.64276e-06
2.90432e-07
1.20422e-08
1.3395e-06
2.67194e-06
3.83109e-06
4.79493e-06
5.96296e-06
7.8778e-06
1.09829e-05
1.49411e-05
1.7949e-05
1.84954e-05
1.70554e-05
1.50451e-05
1.3419e-05
1.23667e-05
1.15666e-05
1.04024e-05
8.57354e-06
6.62495e-06
5.28631e-06
5.01568e-06
6.09968e-06
8.34138e-06
1.08305e-05
1.26733e-05
1.38174e-05
1.47864e-05
1.628e-05
1.90968e-05
2.33595e-05
2.54098e-05
1.63595e-05
6.44137e-06
2.52366e-06
2.56099e-07
9.39873e-09
9.59346e-07
1.89187e-06
2.68628e-06
3.50803e-06
4.74352e-06
6.90803e-06
1.06754e-05
1.57465e-05
1.87093e-05
1.77589e-05
1.53489e-05
1.3275e-05
1.18815e-05
1.10424e-05
1.05708e-05
1.00872e-05
8.96838e-06
7.16346e-06
5.49302e-06
4.65119e-06
5.02417e-06
6.79015e-06
9.52796e-06
1.20216e-05
1.3779e-05
1.549e-05
1.80308e-05
2.20615e-05
2.68368e-05
2.70183e-05
1.57812e-05
6.26634e-06
2.48715e-06
2.33821e-07
1.11501e-08
8.62223e-07
1.78316e-06
2.82067e-06
4.16641e-06
6.28788e-06
1.01025e-05
1.63841e-05
2.07953e-05
1.87469e-05
1.5109e-05
1.25652e-05
1.12176e-05
1.06771e-05
1.05578e-05
1.05951e-05
1.07123e-05
1.06412e-05
9.59189e-06
7.53533e-06
5.70185e-06
4.87895e-06
5.3153e-06
7.20896e-06
1.02341e-05
1.33417e-05
1.60482e-05
1.91942e-05
2.38538e-05
2.90216e-05
2.85997e-05
1.65176e-05
6.55808e-06
2.56017e-06
2.32238e-07