/*--------------------------------*- C++ -*----------------------------------*\
| =========                 |                                                 |
| \\      /  F ield         | OpenFOAM: The Open Source CFD Toolbox           |
|  \\    /   O peration     | Version:  v1906                                 |
|   \\  /    A nd           | Web:      www.OpenFOAM.com                      |
|    \\/     M anipulation  |                                                 |
\*---------------------------------------------------------------------------*/
FoamFile
{
    version     2.0;
    format      ascii;
    class       volScalarField;
    location    "72.4/sphere";
    object      T;
}
// * * * * * * * * * * * * * * * * * * * * * * * * * * * * * * * * * * * * * //

dimensions      [0 0 0 1 0 0 0];


internalField   nonuniform List<scalar> 
304
(
462.039
462.067
462.062
462.079
462.038
462.029
462.038
462.067
462.038
462.179
462.179
462.079
462.062
462.173
462.174
462.104
462.066
462.098
462.026
462.066
462.082
462.038
462.068
462.179
462.178
462.108
462.08
462.174
462.174
462.13
462.027
462.098
462.125
462.061
462.039
462.081
462.108
462.043
462.04
462.105
462.13
462.067
462.027
462.061
462.015
462.026
462.039
462.04
462.041
462.073
462.039
462.039
462.073
462.041
462.027
462.04
462.043
462.04
462.072
462.067
462.067
462.081
462.08
462.109
462.108
462.132
462.039
462.082
462.067
462.109
462.08
462.132
462.108
462.04
462.043
462.073
462.04
462.034
462.034
462.066
462.028
462.078
462.026
462.058
462.103
462.129
462.067
462.099
462.064
462.059
462.029
462.13
462.104
462.101
462.069
462.068
462.036
462.029
462.013
462.027
462.025
462.06
462.025
462.06
462.026
462.025
462.013
462.04
462.038
462.038
462.072
462.067
462.079
462.109
462.066
462.083
462.108
462.134
462.039
462.109
462.08
462.083
462.067
462.134
462.108
462.041
462.039
462.072
462.039
462.079
462.066
462.107
462.067
462.108
462.081
462.132
462.038
462.108
462.067
462.108
462.067
462.132
462.082
462.103
462.027
462.068
462.079
462.13
462.059
462.1
462.064
462.07
462.029
462.13
462.079
462.101
462.06
462.027
462.027
462.06
462.026
462.098
462.025
462.056
462.098
462.125
462.055
462.073
462.066
462.056
462.024
462.125
462.098
462.074
462.056
462.06
462.027
462.025
462.037
462.039
462.072
462.043
462.082
462.108
462.134
462.038
462.066
462.08
462.109
462.066
462.134
462.108
462.066
462.036
462.108
462.077
462.071
462.038
462.039
462.109
462.082
462.133
462.041
462.082
462.068
462.109
462.067
462.132
462.082
462.079
462.039
462.108
462.067
462.13
462.06
462.1
462.066
462.106
462.03
462.07
462.08
462.101
462.06
462.104
462.064
462.07
462.029
462.06
462.026
462.027
462.125
462.056
462.074
462.067
462.098
462.025
462.057
462.099
462.074
462.057
462.099
462.068
462.057
462.028
462.029
462.026
462.028
462.03
462.037
462.042
462.072
462.038
462.071
462.039
462.038
462.026
462.045
462.041
462.074
462.041
462.109
462.109
462.133
462.041
462.068
462.068
462.082
462.079
462.132
462.108
462.066
462.037
462.082
462.066
462.072
462.04
462.039
462.07
462.032
462.036
462.13
462.07
462.101
462.064
462.079
462.028
462.06
462.104
462.101
462.07
462.079
462.063
462.06
462.029
462.035
462.03
462.034
462.016
462.061
462.027
462.028
462.028
462.027
462.028
)
;

boundaryField
{
    sphere_to_oil
    {
        type            compressible::turbulentTemperatureCoupledBaffleMixed;
        refValue        nonuniform List<scalar> 
360
(
333.626
333.626
322.634
357.164
364.809
325.223
365.845
365.845
365.845
344.312
344.312
329.068
333.432
321.198
343.552
352.796
348.852
348.852
348.852
322.619
347.723
326.167
329.835
359.767
317.407
360.008
322.928
359.978
359.978
359.978
366.42
358.832
322.561
322.215
328.845
328.932
349.777
349.777
349.777
349.095
351.868
326.144
327.454
334.081
334.081
322.747
330.924
314.75
333.067
360.342
325.147
325.253
332.788
333.306
322.413
325.949
349.356
322.74
327.545
335.452
319.288
361.152
361.152
361.152
314.797
359.688
332.971
324.088
364.34
364.34
364.34
365.301
363.976
320.321
348.374
342.886
322.318
329.039
351.875
349.871
330.614
322.182
330.284
319.137
322.54
324.811
329.071
333.176
321.825
322.871
322.756
332.25
328.687
322.892
331.901
328.708
329.272
329.304
325.33
317.303
317.42
322.533
325.175
328.683
332.183
322.443
321.101
333.363
324.984
329.268
329.269
329.121
325.257
322.614
314.975
314.934
328.995
324.272
330.112
333.476
333.476
357.164
357.164
359.767
359.767
357.676
357.676
357.676
359.127
359.127
359.127
329.442
324.513
328.94
323.547
364.809
364.809
340.666
340.666
366.42
366.42
339.954
339.954
365.742
365.742
365.742
323.19
322.907
353.306
353.306
353.306
353.134
353.134
353.134
352.796
347.723
343.552
352.796
352.799
322.73
352.799
352.799
329.858
330.67
322.292
326.262
326.262
353.201
353.201
353.201
319.257
347.723
326.167
352.314
352.314
319.117
352.314
330.648
322.192
314.824
322.934
323.259
331.509
317.295
330.979
323.2
314.875
317.474
360.008
360.008
358.832
358.832
334.465
334.465
357.191
357.191
357.191
332.796
332.796
317.149
328.224
325.507
332.398
328.412
324.903
332.223
325.035
333.44
329.338
324.867
349.095
333.269
329.466
322.765
352.62
352.62
352.62
326.721
326.721
319.14
327.67
327.481
335.31
351.868
326.047
335.217
327.808
349.095
351.868
326.518
322.742
326.518
319.531
314.896
330.852
317.342
323.096
322.98
323.238
317.161
317.078
361.082
356.145
361.082
361.082
356.145
356.145
360.342
359.688
333.067
358.45
317.295
360.342
358.45
358.45
331.656
322.291
328.448
332.134
322.913
365.301
328.525
329.023
329.079
325.131
349.356
348.374
329.306
329.142
325.224
348.897
352.663
325.949
352.229
319.313
349.356
352.229
352.229
335.766
326.024
351.875
327.592
327.702
327.417
352.247
325.995
351.988
326.359
348.897
326.359
352.247
348.897
352.247
314.707
324.346
328.511
328.682
333.362
357.274
333.362
357.274
357.274
317.151
359.688
358.353
332.971
358.353
317.159
358.353
329.576
329.262
321.936
363.367
340.664
363.367
363.367
340.664
322.498
324.854
328.294
332.041
363.976
365.301
340.171
323.21
363.976
340.171
322.459
348.374
353.216
342.886
353.216
321.581
353.216
333.461
349.871
325.209
329.54
352.445
349.497
352.663
342.458
352.663
352.445
342.458
352.445
322.066
330.13
351.875
326.221
319.195
349.871
326.221
322.995
351.988
349.497
351.988
326.352
349.497
326.352
)
;
        refGradient     uniform 0;
        valueFraction   nonuniform List<scalar> 
360
(
0.000138078
0.000132467
8.48067e-05
0.000302962
0.000310715
0.000178169
0.000312645
0.000268366
0.000417719
0.000133001
0.000129673
0.000173961
0.000265122
7.58046e-05
0.000135603
0.000263599
0.000302079
0.00028225
0.000396061
6.93662e-05
0.000260048
0.000127842
0.000117826
0.000312664
9.07789e-05
0.000321382
0.000181159
0.000317232
0.000415158
0.000277714
0.000317284
0.000320017
8.5932e-05
8.49719e-05
0.000178319
0.000175482
0.000296938
0.000402561
0.000276432
0.000415641
0.000410566
8.76679e-05
0.000173889
0.000126909
0.000126758
0.000179002
0.000267803
7.14494e-05
0.000127846
0.000271091
0.000176583
0.00017773
0.000264925
0.00026235
7.41216e-05
0.000135596
0.000276515
7.10065e-05
0.000175906
0.000262312
6.95031e-05
0.000308801
0.000272598
0.000426642
7.16537e-05
0.000278721
0.000130012
0.000125748
0.000315936
0.000412149
0.000277243
0.000397443
0.000403006
7.69707e-05
0.000268714
0.000136319
7.09648e-05
0.000127253
0.000402166
0.000417777
0.00012481
0.000122456
0.000120277
7.14828e-05
8.61989e-05
0.000174758
0.000175737
0.000266133
8.03358e-05
6.78326e-05
8.5309e-05
0.000265699
0.000175404
8.71438e-05
0.00026526
0.000177406
0.000176357
0.00017663
8.61329e-05
6.90398e-05
7.00083e-05
6.90765e-05
0.000177582
0.000174539
0.000265498
7.81669e-05
6.78964e-05
0.000265307
8.42842e-05
0.000174815
0.000174847
0.000178415
8.7243e-05
6.98606e-05
6.81311e-05
6.94474e-05
0.000120883
0.000121028
0.00012573
0.000136336
0.000128137
0.000264761
0.00041708
0.000278944
0.000420916
0.000269809
0.000414809
0.000308851
0.000270027
0.000405781
0.000304168
0.000124067
0.000117329
0.000120175
6.63409e-05
0.000275134
0.000414245
0.000128168
0.000128753
0.000418632
0.000278342
0.000134357
0.000141605
0.000413479
0.000284045
0.000327302
7.30121e-05
6.7946e-05
0.000286785
0.000397414
0.00031501
0.000295281
0.000411174
0.000314977
0.000325204
0.000299554
0.000140123
0.000417662
0.000269784
7.52166e-05
0.00040594
0.000303777
0.00011593
0.000122137
0.000120829
0.000127468
0.000133245
0.000415577
0.000273635
0.00032119
7.7012e-05
0.000399768
0.000137079
0.000420366
0.000269105
7.52241e-05
0.000319078
0.000116959
0.000118044
6.89675e-05
0.000180772
0.0001807
0.000267193
8.91014e-05
0.000267596
0.000176075
6.82594e-05
6.62822e-05
0.000418149
0.000265689
0.00041324
0.000275513
0.00013142
0.000122902
0.000415167
0.000259477
0.000299929
0.000121484
0.000140959
7.09156e-05
0.000177594
0.000177433
0.000265099
0.000173579
0.000174473
0.000264055
9.05069e-05
0.000264961
0.000179655
8.80154e-05
0.000298233
0.000264668
0.000178579
7.11695e-05
0.000406109
0.000263274
0.000308032
0.00012833
0.000119258
6.88866e-05
0.000176217
0.00017918
0.000265667
0.000302053
8.44787e-05
0.000263146
0.000171863
0.000261407
0.000276739
0.000125621
7.05593e-05
0.000139397
7.1432e-05
6.72382e-05
0.000268629
8.96476e-05
0.000180596
0.000178508
0.00017638
8.85207e-05
6.76178e-05
0.00027466
0.000257363
0.000432051
0.000321599
0.00040308
0.000289614
0.000310414
0.00031782
0.000141272
0.000272651
7.3459e-05
0.000414904
0.000403433
0.000306524
0.000267352
8.51887e-05
0.000173961
0.000264278
8.59516e-05
0.000314904
0.000174714
0.000175965
0.000174343
8.54321e-05
0.000312561
0.000292897
0.000177874
0.000173274
8.7077e-05
0.000293474
0.000323036
0.000128114
0.000289986
6.88712e-05
0.00041314
0.000400541
0.000302654
0.000262321
8.61755e-05
0.000303129
0.000174546
0.000174815
0.00017581
0.00030478
8.6983e-05
0.000311395
0.000131028
0.00026848
0.000132122
0.00027359
0.00041693
0.000409307
6.88373e-05
0.000137943
0.000136313
0.000133327
0.000121418
0.000406217
0.000132613
0.000270059
0.000318007
6.7834e-05
0.000410182
0.000409687
0.000134118
0.000291299
7.10873e-05
0.000312293
0.000118903
0.00011681
7.10287e-05
0.000401753
0.00012007
0.000263476
0.000310305
0.000128726
7.0174e-05
0.00017461
0.00017455
0.00026339
0.000301382
0.000261408
0.000126387
6.80318e-05
0.000265786
0.000140372
7.85719e-05
0.000385169
0.000413594
0.000122236
0.000262726
7.28407e-05
0.000330418
0.000265409
0.000317997
8.69919e-05
0.000175362
0.000306589
0.000297232
0.000279629
0.000124987
0.000409614
0.000408733
0.000148369
0.000273213
0.000120209
0.000122054
0.000275057
0.000136159
7.36178e-05
0.000278183
0.000131109
6.79849e-05
0.000404878
0.000409738
0.000269595
0.000130835
0.000264816
0.000135149
)
;
        value           nonuniform List<scalar> 
360
(
462.041
462.041
462.046
462.026
462.028
462.062
462.028
462.033
462.021
462.037
462.038
462.058
462.064
462.046
462.04
462.028
462.011
462.014
461.999
462.038
462.018
462.031
462.016
462.025
462.044
462.024
462.061
462.025
462.017
462.029
462.026
462.023
462.044
462.045
462.057
462.059
462.013
462.001
462.015
461.998
462
462.032
462.051
462.04
462.042
462.06
462.066
462.046
462.04
462.029
462.062
462.062
462.064
462.065
462.035
462.027
462.014
462.038
462.051
462.06
462.035
462.025
462.029
462.017
462.047
462.029
462.041
462.027
462.029
462.024
462.033
462.023
462.022
462.048
462.029
462.043
462.044
462.018
462.001
461.999
462.018
462.017
462.018
462.036
462.048
462.061
462.059
462.064
462.042
462.038
462.046
462.066
462.063
462.044
462.066
462.062
462.058
462.055
462.036
462.048
462.048
462.049
462.062
462.062
462.066
462.048
462.043
462.063
462.033
462.054
462.06
462.055
462.036
462.036
462.048
462.048
462.029
462.029
462.029
462.041
462.042
462.03
462.016
462.03
462.017
462.03
462.017
462.025
462.031
462.018
462.026
462.029
462.029
462.03
462.05
462.032
462.021
462.043
462.043
462.022
462.032
462.042
462.042
462.022
462.032
462.025
462.049
462.043
462.022
462.003
462.011
462.021
462.002
462.012
462.013
462.014
462.039
462.002
462.026
462.045
462.003
462.015
462.017
462.016
462.015
462.029
462.026
461.998
462.015
462.009
462.033
461.999
462.025
461.999
462.015
462.033
462.008
462.016
462.015
462.046
462.061
462.06
462.067
462.045
462.067
462.061
462.047
462.048
462.016
462.029
462.016
462.029
462.04
462.041
462.016
462.031
462.025
462.042
462.04
462.048
462.061
462.061
462.066
462.063
462.062
462.066
462.034
462.064
462.054
462.036
462.014
462.064
462.055
462.036
462.001
462.016
462.01
462.029
462.029
462.035
462.051
462.05
462.059
462.01
462.031
462.059
462.052
462.016
462.014
462.029
462.036
462.025
462.034
462.046
462.066
462.043
462.06
462.06
462.061
462.042
462.048
462.028
462.031
462.018
462.024
462.019
462.029
462.023
462.022
462.039
462.029
462.047
462.015
462.016
462.027
462.066
462.048
462.064
462.067
462.046
462.028
462.063
462.055
462.061
462.038
462.014
462.016
462.055
462.06
462.036
462.015
462.013
462.027
462.013
462.035
461.999
462.002
462.011
462.059
462.032
462.011
462.052
462.052
462.052
462.013
462.035
462.012
462.03
462.017
462.027
462.015
462
462.002
462.046
462.03
462.03
462.031
462.041
462.018
462.04
462.029
462.027
462.047
462.016
462.016
462.039
462.027
462.046
462.024
462.029
462.029
462.05
462.024
462.045
462.034
462.03
462.045
462.051
462.062
462.064
462.067
462.027
462.034
462.044
462.05
462.031
462.04
462.047
462.007
462.005
462.041
462.027
462.045
462.011
462.064
462.012
462.035
462.055
462.015
462.015
462.024
462.039
462.004
462.004
462.035
462.023
462.018
462.018
462.015
462.027
462.035
462.016
462.03
462.038
462.002
462.001
462.016
462.028
462.017
462.029
)
;
        Tnbr            T;
        thicknessLayers 0();
        kappaLayers     0();
        kappaMethod     solidThermo;
        kappa           none;
        alphaAni        none;
    }
}


// ************************************************************************* //
