/*--------------------------------*- C++ -*----------------------------------*\
| =========                 |                                                 |
| \\      /  F ield         | OpenFOAM: The Open Source CFD Toolbox           |
|  \\    /   O peration     | Version:  v1912                                 |
|   \\  /    A nd           | Website:  www.openfoam.com                      |
|    \\/     M anipulation  |                                                 |
\*---------------------------------------------------------------------------*/
FoamFile
{
    version     2.0;
    format      ascii;
    class       surfaceScalarField;
    location    "244/oil";
    object      phi;
}
// * * * * * * * * * * * * * * * * * * * * * * * * * * * * * * * * * * * * * //

dimensions      [1 0 -1 0 0 0 0];
oriented        oriented;


internalField   nonuniform List<scalar> 
104676
(
-1.06091e-11
2.61483e-11
-1.41648e-11
2.69346e-10
-2.21015e-10
-5.88954e-11
8.41367e-10
-4.1393e-10
-1.58036e-10
1.61685e-09
-5.04748e-10
-2.70763e-10
2.48186e-09
-5.15983e-10
-3.49157e-10
3.3227e-09
-4.69224e-10
-3.71759e-10
4.03673e-09
-3.81449e-10
-3.32709e-10
4.53817e-09
-2.65254e-10
-2.36277e-10
4.76019e-09
-1.30367e-10
-9.16741e-11
4.6664e-09
1.10782e-11
8.27332e-11
4.23906e-09
1.57195e-10
2.70239e-10
3.50772e-09
2.7645e-10
4.55018e-10
2.51061e-09
3.84824e-10
6.12466e-10
1.31928e-09
4.63326e-10
7.28194e-10
2.49108e-11
5.04809e-10
7.8976e-10
-1.2735e-09
5.07043e-10
7.91553e-10
-2.46806e-09
4.63724e-10
7.31014e-10
-3.46915e-09
3.84463e-10
6.16785e-10
-4.20758e-09
2.78078e-10
4.60451e-10
-4.64028e-09
1.53787e-10
2.78914e-10
-4.74569e-09
1.21604e-11
9.31113e-11
-4.52878e-09
-1.33037e-10
-8.41079e-11
-4.03153e-09
-2.67408e-10
-2.3012e-10
-3.32063e-09
-3.83464e-10
-3.27714e-10
-2.48227e-09
-4.70858e-10
-3.67693e-10
-1.61895e-09
-5.18528e-10
-3.44886e-10
-8.43955e-10
-5.08631e-10
-2.66349e-10
-2.71608e-10
-4.18436e-10
-1.53848e-10
9.27754e-12
-2.25171e-10
-5.56725e-11
2.15918e-11
-1.23339e-11
2.74912e-10
-5.23005e-10
2.7438e-10
1.05954e-09
-1.5691e-09
5.63588e-10
2.30533e-09
-2.3577e-09
6.98031e-10
3.87364e-09
-2.83793e-09
7.64798e-10
5.57592e-09
-3.06798e-09
8.49527e-10
7.20931e-09
-3.10464e-09
1.0018e-09
8.58217e-09
-2.99646e-09
1.24196e-09
9.52864e-09
-2.7817e-09
1.56984e-09
9.91949e-09
-2.49241e-09
1.97115e-09
9.67191e-09
-2.15745e-09
2.41614e-09
8.74731e-09
-1.80507e-09
2.88696e-09
7.19674e-09
-1.4965e-09
3.32366e-09
5.13607e-09
-1.2251e-09
3.6708e-09
2.69581e-09
-1.02876e-09
3.93257e-09
5.02136e-11
-9.2607e-10
4.07672e-09
-2.60562e-09
-9.2671e-10
4.08983e-09
-5.05243e-09
-1.03354e-09
3.94431e-09
-7.11489e-09
-1.23333e-09
3.68047e-09
-8.6525e-09
-1.50529e-09
3.32113e-09
-9.57971e-09
-1.81977e-09
2.9008e-09
-9.84195e-09
-2.16733e-09
2.44158e-09
-9.46424e-09
-2.49986e-09
1.98885e-09
-8.53373e-09
-2.78632e-09
1.58806e-09
-7.17797e-09
-3.00017e-09
1.26062e-09
-5.55854e-09
-3.10934e-09
1.0188e-09
-3.8686e-09
-3.07429e-09
8.65691e-10
-2.30803e-09
-2.84846e-09
7.79256e-10
-1.06313e-09
-2.37162e-09
7.0835e-10
-2.7596e-10
-1.58055e-09
5.68268e-10
-5.29123e-10
2.74772e-10
5.77635e-10
-1.68295e-09
5.82587e-10
1.83502e-09
-4.07267e-09
1.24638e-09
3.59793e-09
-5.77988e-09
1.65927e-09
5.69297e-09
-6.89348e-09
1.96036e-09
7.90332e-09
-7.53318e-09
2.25456e-09
9.99039e-09
-7.79797e-09
2.60592e-09
1.17211e-08
-7.77296e-09
3.04548e-09
1.2889e-08
-7.52831e-09
3.57855e-09
1.33327e-08
-7.12777e-09
4.19148e-09
1.29493e-08
-6.62488e-09
4.85083e-09
1.16881e-08
-6.07774e-09
5.5339e-09
9.60255e-09
-5.5605e-09
6.14969e-09
6.84353e-09
-5.10694e-09
6.64104e-09
3.58896e-09
-4.7758e-09
7.00185e-09
6.45565e-11
-4.60511e-09
7.2037e-09
-3.47664e-09
-4.61326e-09
7.22801e-09
-6.74119e-09
-4.7871e-09
7.0184e-09
-9.5004e-09
-5.12007e-09
6.64621e-09
-1.15736e-08
-5.57028e-09
6.13841e-09
-1.28511e-08
-6.09203e-09
5.54973e-09
-1.32557e-08
-6.63793e-09
4.87507e-09
-1.28276e-08
-7.13709e-09
4.20881e-09
-1.16762e-08
-7.53559e-09
3.59749e-09
-9.96263e-09
-7.77845e-09
3.06427e-09
-7.89119e-09
-7.80485e-09
2.62376e-09
-5.69144e-09
-7.54465e-09
2.27042e-09
-3.60331e-09
-6.90963e-09
1.973e-09
-1.84169e-09
-5.79953e-09
1.66637e-09
-5.80781e-10
-4.08811e-09
1.24677e-09
-1.69136e-09
5.81528e-10
8.28023e-10
-3.34813e-09
8.375e-10
2.48311e-09
-7.53414e-09
1.80661e-09
4.6653e-09
-1.04051e-08
2.44312e-09
7.16148e-09
-1.23235e-08
2.93364e-09
9.73316e-09
-1.35089e-08
3.40369e-09
1.21235e-08
-1.41127e-08
3.924e-09
1.40803e-08
-1.42609e-08
4.5307e-09
1.53778e-08
-1.40572e-08
5.23109e-09
1.58327e-08
-1.3596e-08
6.01313e-09
1.53263e-08
-1.29639e-08
6.84538e-09
1.37992e-08
-1.22481e-08
7.69752e-09
1.13232e-08
-1.15342e-08
8.44971e-09
8.06302e-09
-1.09125e-08
9.06593e-09
4.22542e-09
-1.04333e-08
9.49534e-09
7.29723e-11
-1.01892e-08
9.73681e-09
-4.10172e-09
-1.02065e-08
9.7682e-09
-7.95245e-09
-1.04455e-08
9.50941e-09
-1.12147e-08
-1.09119e-08
9.05443e-09
-1.36796e-08
-1.15369e-08
8.43172e-09
-1.52201e-08
-1.22537e-08
7.70216e-09
-1.57459e-08
-1.29697e-08
6.85746e-09
-1.53085e-08
-1.36003e-08
6.02547e-09
-1.40301e-08
-1.40609e-08
5.24645e-09
-1.20905e-08
-1.42642e-08
4.54576e-09
-9.71676e-09
-1.41187e-08
3.93972e-09
-7.15914e-09
-1.35204e-08
3.41796e-09
-4.66968e-09
-1.23424e-08
2.94333e-09
-2.48967e-09
-1.04237e-08
2.44425e-09
-8.33865e-10
-7.54063e-09
1.7969e-09
-3.35954e-09
8.34474e-10
1.01687e-09
-5.39027e-09
1.02565e-09
2.97891e-09
-1.1712e-08
2.21612e-09
5.4896e-09
-1.59354e-08
3.01964e-09
8.29543e-09
-1.87796e-08
3.65021e-09
1.1138e-08
-2.0604e-08
4.25225e-09
1.37479e-08
-2.16282e-08
4.90514e-09
1.58625e-08
-2.20229e-08
5.64692e-09
1.7244e-08
-2.19268e-08
6.48792e-09
1.77006e-08
-2.14653e-08
7.41242e-09
1.71017e-08
-2.07553e-08
8.39037e-09
1.53836e-08
-1.99174e-08
9.38741e-09
1.2621e-08
-1.90566e-08
1.02851e-08
8.97987e-09
-1.82836e-08
1.10125e-08
4.70298e-09
-1.76558e-08
1.14996e-08
7.85481e-11
-1.73383e-08
1.17738e-08
-4.57194e-09
-1.73619e-08
1.18062e-08
-8.85812e-09
-1.76711e-08
1.15122e-08
-1.24945e-08
-1.82611e-08
1.0986e-08
-1.52557e-08
-1.90505e-08
1.0275e-08
-1.69888e-08
-1.99166e-08
9.39615e-09
-1.76077e-08
-2.07556e-08
8.40468e-09
-1.71703e-08
-2.14656e-08
7.42758e-09
-1.58071e-08
-2.19282e-08
6.50372e-09
-1.37091e-08
-2.20252e-08
5.66255e-09
-1.11153e-08
-2.16328e-08
4.91999e-09
-8.28772e-09
-2.06131e-08
4.26479e-09
-5.49213e-09
-1.87953e-08
3.65726e-09
-2.98354e-09
-1.59491e-08
3.017e-09
-1.02192e-09
-1.17039e-08
2.2019e-09
-5.40425e-09
1.023e-09
1.14373e-09
-7.68779e-09
1.15422e-09
3.32374e-09
-1.63812e-08
2.48951e-09
6.07324e-09
-2.20927e-08
3.40798e-09
9.10375e-09
-2.59488e-08
4.13864e-09
1.21416e-08
-2.8479e-08
4.83688e-09
1.49093e-08
-2.99878e-08
5.59163e-09
1.71382e-08
-3.06952e-08
6.44307e-09
1.85837e-08
-3.07764e-08
7.40385e-09
1.90471e-08
-3.03852e-08
8.45642e-09
1.83928e-08
-2.96663e-08
9.56529e-09
1.65542e-08
-2.87666e-08
1.06879e-08
1.3582e-08
-2.78308e-08
1.17466e-08
9.65922e-09
-2.69496e-08
1.2589e-08
5.05581e-09
-2.61839e-08
1.31318e-08
7.87227e-11
-2.57841e-08
1.34231e-08
-4.92669e-09
-2.58096e-08
1.34535e-08
-9.5301e-09
-2.62191e-08
1.31519e-08
-1.34402e-08
-2.69061e-08
1.25554e-08
-1.64167e-08
-2.78172e-08
1.17435e-08
-1.82735e-08
-2.87625e-08
1.07029e-08
-1.89501e-08
-2.9663e-08
9.58388e-09
-1.85073e-08
-3.03838e-08
8.47504e-09
-1.70804e-08
-3.07774e-08
7.42186e-09
-1.48684e-08
-3.06977e-08
6.45992e-09
-1.21153e-08
-2.99921e-08
5.6059e-09
-9.09122e-09
-2.8486e-08
4.84859e-09
-6.07196e-09
-2.59585e-08
4.14395e-09
-3.32864e-09
-2.20946e-08
3.40234e-09
-1.14939e-09
-1.63576e-08
2.47473e-09
-7.70624e-09
1.15286e-09
1.20757e-09
-1.01281e-08
1.23328e-09
3.52168e-09
-2.13618e-08
2.66695e-09
6.4218e-09
-2.86384e-08
3.64584e-09
9.59167e-09
-3.35504e-08
4.43181e-09
1.27496e-08
-3.68322e-08
5.19523e-09
1.56149e-08
-3.88793e-08
6.02593e-09
1.79181e-08
-3.99647e-08
6.96592e-09
1.941e-08
-4.02988e-08
8.03035e-09
1.98887e-08
-4.00628e-08
9.19877e-09
1.9211e-08
-3.94207e-08
1.04322e-08
1.73088e-08
-3.85455e-08
1.16813e-08
1.41989e-08
-3.76053e-08
1.28846e-08
1.01025e-08
-3.67012e-08
1.38483e-08
5.28706e-09
-3.58105e-08
1.44422e-08
8.54653e-11
-3.53355e-08
1.47533e-08
-5.13998e-09
-3.53745e-08
1.47907e-08
-9.97142e-09
-3.58769e-08
1.44896e-08
-1.40535e-08
-3.66489e-08
1.38253e-08
-1.71674e-08
-3.75923e-08
1.28893e-08
-1.90893e-08
-3.85449e-08
1.17043e-08
-1.97893e-08
-3.9421e-08
1.04578e-08
-1.9332e-08
-4.00638e-08
9.2225e-09
-1.7859e-08
-4.03024e-08
8.0515e-09
-1.55728e-08
-3.99702e-08
6.98589e-09
-1.27212e-08
-3.88854e-08
6.04131e-09
-9.57641e-09
-3.68378e-08
5.20687e-09
-6.41865e-09
-3.35511e-08
4.43493e-09
-3.53016e-09
-2.86153e-08
3.63249e-09
-1.22203e-09
-2.13041e-08
2.63872e-09
-1.01581e-08
1.23008e-09
1.23147e-09
-1.26185e-08
1.25943e-09
3.58467e-09
-2.64494e-08
2.73484e-09
6.5346e-09
-3.53306e-08
3.74258e-09
9.75219e-09
-4.132e-08
4.55211e-09
1.29462e-08
-4.53738e-08
5.34746e-09
1.58406e-08
-4.8003e-08
6.22914e-09
1.817e-08
-4.9531e-08
7.23668e-09
1.96867e-08
-5.02004e-08
8.3847e-09
2.01845e-08
-5.0214e-08
9.65332e-09
1.95177e-08
-4.97537e-08
1.09999e-08
1.76058e-08
-4.90027e-08
1.23693e-08
1.44483e-08
-4.81519e-08
1.37043e-08
1.02743e-08
-4.7331e-08
1.4804e-08
5.36922e-09
-4.63376e-08
1.54324e-08
8.50398e-11
-4.58299e-08
1.57788e-08
-5.23042e-09
-4.58777e-08
1.58189e-08
-1.01706e-08
-4.64059e-08
1.54696e-08
-1.43124e-08
-4.72755e-08
1.47688e-08
-1.74661e-08
-4.81421e-08
1.37037e-08
-1.93962e-08
-4.90065e-08
1.23918e-08
-2.0086e-08
-4.97573e-08
1.1026e-08
-1.96092e-08
-5.02187e-08
9.6779e-09
-1.81107e-08
-5.02086e-08
8.40733e-09
-1.57974e-08
-4.9542e-08
7.25814e-09
-1.29163e-08
-4.80135e-08
6.24679e-09
-9.73578e-09
-4.53779e-08
5.35949e-09
-6.53494e-09
-4.12993e-08
4.54741e-09
-3.59869e-09
-3.52656e-08
3.71431e-09
-1.24465e-09
-2.63551e-08
2.69735e-09
-1.2661e-08
1.25856e-09
1.21011e-09
-1.50647e-08
1.23665e-09
3.50733e-09
-3.14444e-08
2.69819e-09
6.39713e-09
-4.19355e-08
3.71543e-09
9.55918e-09
-4.90081e-08
4.52616e-09
1.27e-08
-5.3829e-08
5.31424e-09
1.55426e-08
-5.70507e-08
6.20502e-09
1.78366e-08
-5.9072e-08
7.24673e-09
1.93437e-08
-6.0154e-08
8.44645e-09
1.9858e-08
-6.05104e-08
9.78228e-09
1.92303e-08
-6.03367e-08
1.12108e-08
1.73847e-08
-5.98195e-08
1.26626e-08
1.43068e-08
-5.91432e-08
1.40693e-08
1.01568e-08
-5.84622e-08
1.52814e-08
5.3009e-09
-5.74386e-08
1.5957e-08
8.07264e-11
-5.69747e-08
1.6365e-08
-5.17732e-09
-5.7017e-08
1.63975e-08
-1.00818e-08
-5.74644e-08
1.59634e-08
-1.41942e-08
-5.83778e-08
1.5215e-08
-1.72516e-08
-5.91341e-08
1.40498e-08
-1.91118e-08
-5.9827e-08
1.26808e-08
-1.97604e-08
-6.03458e-08
1.12372e-08
-1.92668e-08
-6.05204e-08
9.80788e-09
-1.77779e-08
-6.01676e-08
8.46993e-09
-1.54992e-08
-5.90895e-08
7.26871e-09
-1.26712e-08
-5.70619e-08
6.22029e-09
-9.55288e-09
-5.38049e-08
5.30861e-09
-6.41343e-09
-4.89238e-08
4.48523e-09
-3.53167e-09
-4.18012e-08
3.65407e-09
-1.2182e-09
-3.13234e-08
2.65514e-09
-1.51163e-08
1.23745e-09
1.14805e-09
-1.7372e-08
1.15965e-09
3.31648e-09
-3.61458e-08
2.5334e-09
6.01654e-09
-4.81592e-08
3.52393e-09
8.9921e-09
-5.63142e-08
4.33069e-09
1.19722e-08
-6.19055e-08
5.09644e-09
1.46716e-08
-6.56979e-08
5.94764e-09
1.68553e-08
-6.82294e-08
6.97354e-09
1.83037e-08
-6.97792e-08
8.17671e-09
1.88234e-08
-7.05585e-08
9.52838e-09
1.82625e-08
-7.07602e-08
1.09846e-08
1.65481e-08
-7.05698e-08
1.24648e-08
1.36661e-08
-7.01534e-08
1.38923e-08
9.67157e-09
-6.96308e-08
1.51633e-08
5.04461e-09
-6.87086e-08
1.58971e-08
7.50327e-11
-6.83345e-08
1.63295e-08
-4.92374e-09
-6.83745e-08
1.63564e-08
-9.58293e-09
-6.86842e-08
1.58792e-08
-1.35563e-08
-6.94612e-08
1.5057e-08
-1.64238e-08
-7.01312e-08
1.38648e-08
-1.81482e-08
-7.0583e-08
1.24804e-08
-1.87295e-08
-7.07746e-08
1.10102e-08
-1.82305e-08
-7.05729e-08
9.55355e-09
-1.67982e-08
-6.97996e-08
8.19962e-09
-1.46271e-08
-6.82535e-08
6.99273e-09
-1.19498e-08
-6.5687e-08
5.94769e-09
-9.00321e-09
-6.17991e-08
5.0476e-09
-6.03634e-09
-5.61343e-08
4.24375e-09
-3.31916e-09
-4.79629e-08
3.44485e-09
-1.14387e-09
-3.59964e-08
2.49805e-09
-1.74256e-08
1.16564e-09
1.03599e-09
-1.94369e-08
1.02928e-09
2.9996e-09
-4.03283e-08
2.21923e-09
5.41931e-09
-5.36857e-08
3.10702e-09
8.06278e-09
-6.28537e-08
3.89625e-09
1.07433e-08
-6.92219e-08
4.6359e-09
1.31872e-08
-7.3565e-08
5.42306e-09
1.51751e-08
-7.65975e-08
6.38012e-09
1.65093e-08
-7.86412e-08
7.52774e-09
1.70115e-08
-7.98855e-08
8.82492e-09
1.65428e-08
-8.051e-08
1.02186e-08
1.50499e-08
-8.06784e-08
1.16017e-08
1.24939e-08
-8.05106e-08
1.29133e-08
8.81364e-09
-8.01068e-08
1.41565e-08
4.58858e-09
-7.95033e-08
1.50198e-08
6.80732e-11
-7.9285e-08
1.54711e-08
-4.47034e-09
-7.93253e-08
1.54893e-08
-8.67362e-09
-7.94839e-08
1.50031e-08
-1.22874e-08
-8.00236e-08
1.41764e-08
-1.48801e-08
-8.0614e-08
1.30756e-08
-1.64258e-08
-8.07263e-08
1.16891e-08
-1.69199e-08
-8.05313e-08
1.02509e-08
-1.64401e-08
-7.98977e-08
8.84494e-09
-1.51193e-08
-7.86648e-08
7.54425e-09
-1.31394e-08
-7.66233e-08
6.38984e-09
-1.07189e-08
-7.35045e-08
5.39696e-09
-8.06176e-09
-6.90014e-08
4.54506e-09
-5.38455e-09
-6.2599e-08
3.78759e-09
-2.94617e-09
-5.34574e-08
3.05636e-09
-1.00557e-09
-4.01479e-08
2.21119e-09
-1.94675e-08
1.03661e-09
8.72904e-10
-2.1159e-08
8.49506e-10
2.54595e-09
-4.37849e-08
1.78384e-09
4.59058e-09
-5.8184e-08
2.45392e-09
6.80775e-09
-6.81977e-08
3.12704e-09
9.01599e-09
-7.52686e-08
3.83845e-09
1.10667e-08
-8.01874e-08
4.57159e-09
1.2762e-08
-8.37086e-08
5.41576e-09
1.39275e-08
-8.62454e-08
6.4386e-09
1.44016e-08
-8.79587e-08
7.59918e-09
1.40574e-08
-8.89745e-08
8.8088e-09
1.28107e-08
-8.94257e-08
9.99419e-09
1.05834e-08
-8.95333e-08
1.12503e-08
7.47631e-09
-8.94351e-08
1.24355e-08
3.90416e-09
-8.91651e-08
1.3234e-08
5.70081e-11
-8.90779e-08
1.36401e-08
-3.81786e-09
-8.90551e-08
1.36047e-08
-7.3967e-09
-8.90246e-08
1.31196e-08
-1.04597e-08
-8.93103e-08
1.23498e-08
-1.26474e-08
-8.97889e-08
1.13627e-08
-1.39228e-08
-8.95183e-08
1.00675e-08
-1.42999e-08
-8.89637e-08
8.8095e-09
-1.38577e-08
-8.79282e-08
7.58837e-09
-1.27076e-08
-8.62522e-08
6.43726e-09
-1.10023e-08
-8.37348e-08
5.4061e-09
-8.95252e-09
-8.00864e-08
4.53204e-09
-6.72843e-09
-7.50306e-08
3.80517e-09
-4.51803e-09
-6.80001e-08
3.19081e-09
-2.4883e-09
-5.80817e-08
2.59476e-09
-8.5853e-10
-4.36581e-08
1.88067e-09
-2.12037e-08
8.77809e-10
6.69689e-10
-2.24689e-08
6.40422e-10
1.92869e-09
-4.64078e-08
1.36415e-09
3.50728e-09
-6.16043e-08
1.842e-09
5.19779e-09
-7.21423e-08
2.25427e-09
6.83628e-09
-7.96722e-08
2.76521e-09
8.36128e-09
-8.50964e-08
3.38394e-09
9.64747e-09
-8.90767e-08
4.08189e-09
1.05778e-08
-9.20507e-08
4.8749e-09
1.10323e-08
-9.41769e-08
5.7637e-09
1.079e-08
-9.54589e-08
6.72681e-09
9.72186e-09
-9.61548e-08
7.7974e-09
7.93133e-09
-9.66398e-08
8.89714e-09
5.67988e-09
-9.70081e-08
9.82446e-09
3.00148e-09
-9.69484e-08
1.04617e-08
4.98297e-11
-9.6894e-08
1.07676e-08
-2.95118e-09
-9.67508e-08
1.06968e-08
-5.68503e-09
-9.65947e-08
1.0304e-08
-7.98635e-09
-9.66512e-08
9.64231e-09
-9.7233e-09
-9.67583e-08
8.70644e-09
-1.06865e-08
-9.61141e-08
7.55903e-09
-1.09208e-08
-9.52978e-08
6.56852e-09
-1.05472e-08
-9.39539e-08
5.65212e-09
-9.66719e-09
-9.19426e-08
4.8103e-09
-8.38807e-09
-8.91154e-08
4.10152e-09
-6.82969e-09
-8.51353e-08
3.49056e-09
-5.1364e-09
-7.96589e-08
2.93505e-09
-3.44867e-09
-7.21314e-08
2.4437e-09
-1.89879e-09
-6.16029e-08
1.97146e-09
-6.56059e-10
-4.63254e-08
1.42479e-09
-2.25234e-08
6.63801e-10
4.52398e-10
-2.33107e-08
3.89513e-10
1.21998e-09
-4.79938e-08
8.18677e-10
2.20522e-09
-6.37733e-08
1.18396e-09
3.27448e-09
-7.46895e-08
1.47813e-09
4.32345e-09
-8.25378e-08
1.81668e-09
5.30511e-09
-8.82845e-08
2.20648e-09
6.12945e-09
-9.25219e-08
2.62078e-09
6.68919e-09
-9.56468e-08
3.03638e-09
6.99101e-09
-9.79678e-08
3.48913e-09
6.81501e-09
-9.94379e-08
4.15516e-09
6.11421e-09
-1.00428e-07
4.97431e-09
5.02964e-09
-1.01283e-07
5.72766e-09
3.61063e-09
-1.01906e-07
6.31693e-09
1.91497e-09
-1.01979e-07
6.7263e-09
5.90887e-11
-1.01992e-07
6.95358e-09
-1.8251e-09
-1.01801e-07
6.93397e-09
-3.55242e-09
-1.01571e-07
6.70345e-09
-4.97797e-09
-1.01508e-07
6.28276e-09
-6.09155e-09
-1.01354e-07
5.7089e-09
-6.77633e-09
-1.00381e-07
4.95178e-09
-7.03142e-09
-9.91951e-08
4.15248e-09
-6.83218e-09
-9.75608e-08
3.40771e-09
-6.22875e-09
-9.5382e-08
2.83608e-09
-5.33734e-09
-9.24514e-08
2.4446e-09
-4.30843e-09
-8.82986e-08
2.13443e-09
-3.22759e-09
-8.25719e-08
1.83213e-09
-2.16106e-09
-7.47302e-08
1.53231e-09
-1.18633e-09
-6.38129e-08
1.23534e-09
-4.10289e-10
-4.79921e-08
8.90791e-10
-2.33482e-08
4.14684e-10
1.6535e-10
-2.36084e-08
1.32435e-10
4.24298e-10
-4.85361e-08
2.83446e-10
7.71449e-10
-6.45433e-08
4.23075e-10
1.15271e-09
-7.5599e-08
5.28381e-10
1.53769e-09
-8.35565e-08
6.33856e-10
1.9276e-09
-8.93963e-08
7.2192e-10
2.29012e-09
-9.36833e-08
7.98867e-10
2.50664e-09
-9.6787e-08
9.23608e-10
2.53733e-09
-9.91172e-08
1.11871e-09
2.40109e-09
-1.00698e-07
1.39668e-09
2.18411e-09
-1.01899e-07
1.68796e-09
1.86558e-09
-1.02899e-07
1.93453e-09
1.26617e-09
-1.03408e-07
2.1019e-09
6.30014e-10
-1.03564e-07
2.22065e-09
3.49019e-11
-1.03736e-07
2.33965e-09
-6.27355e-10
-1.03579e-07
2.4405e-09
-1.24693e-09
-1.03387e-07
2.43547e-09
-1.73677e-09
-1.03294e-07
2.27561e-09
-2.1226e-09
-1.03031e-07
2.06358e-09
-2.36121e-09
-1.01946e-07
1.80359e-09
-2.45819e-09
-1.00627e-07
1.52892e-09
-2.39769e-09
-9.8885e-08
1.26369e-09
-2.18743e-09
-9.66394e-08
1.04717e-09
-1.87196e-09
-9.36494e-08
8.82528e-10
-1.5053e-09
-8.9411e-08
7.4571e-10
-1.12176e-09
-8.35783e-08
6.22833e-10
-7.44934e-10
-7.56222e-08
5.1513e-10
-4.0433e-10
-6.45679e-08
4.14508e-10
-1.39061e-10
-4.85532e-08
2.95914e-10
-2.36297e-08
1.42468e-10
-1.1642e-10
-2.3364e-08
-1.27986e-10
-3.61647e-10
-4.80325e-08
-2.58263e-10
-6.63118e-10
-6.38896e-08
-3.52157e-10
-9.92937e-10
-7.48304e-08
-4.3863e-10
-1.33315e-09
-8.26972e-08
-5.18999e-10
-1.67525e-09
-8.8478e-08
-5.76218e-10
-1.99469e-09
-9.27448e-08
-6.19118e-10
-2.19753e-09
-9.58806e-08
-7.03656e-10
-2.20165e-09
-9.82129e-08
-9.00235e-10
-2.05331e-09
-9.96519e-08
-1.19464e-09
-1.86125e-09
-1.00617e-07
-1.47459e-09
-1.69525e-09
-1.01403e-07
-1.66203e-09
-1.43246e-09
-1.01888e-07
-1.78355e-09
-8.8375e-10
-1.02202e-07
-1.91071e-09
-8.34021e-11
-1.02432e-07
-2.10459e-09
5.73927e-10
-1.02057e-07
-2.17968e-09
1.13979e-09
-1.01861e-07
-2.09178e-09
1.6484e-09
-1.01849e-07
-1.95357e-09
1.92838e-09
-1.01535e-07
-1.77581e-09
2.10814e-09
-1.00559e-07
-1.567e-09
2.1975e-09
-9.93824e-08
-1.3339e-09
2.14887e-09
-9.77414e-08
-1.09489e-09
1.98065e-09
-9.55637e-08
-9.07556e-10
1.69822e-09
-9.25945e-08
-7.725e-10
1.37084e-09
-8.84148e-08
-6.68957e-10
1.03122e-09
-8.26679e-08
-5.70826e-10
6.92058e-10
-7.48101e-08
-4.72996e-10
3.84683e-10
-6.38857e-08
-3.74846e-10
1.38613e-10
-4.80467e-08
-2.60405e-10
-2.33698e-08
-1.21312e-10
-3.9526e-10
-2.257e-08
-3.98875e-10
-1.14809e-09
-4.64263e-08
-8.5342e-10
-2.08756e-09
-6.17649e-08
-1.18505e-09
-3.11625e-09
-7.233e-08
-1.47161e-09
-4.14986e-09
-7.98929e-08
-1.77066e-09
-5.10804e-09
-8.5415e-08
-2.10486e-09
-5.90421e-09
-8.94696e-08
-2.47923e-09
-6.46795e-09
-9.24158e-08
-2.90117e-09
-6.7286e-09
-9.45773e-08
-3.37495e-09
-6.52728e-09
-9.58647e-08
-3.98849e-09
-5.85654e-09
-9.65309e-08
-4.75626e-09
-4.89069e-09
-9.69207e-08
-5.44784e-09
-3.5769e-09
-9.72223e-08
-5.97946e-09
-1.92462e-09
-9.74575e-08
-6.397e-09
-3.37559e-11
-9.76555e-08
-6.66799e-09
1.79289e-09
-9.72405e-08
-6.64301e-09
3.51049e-09
-9.7165e-08
-6.41355e-09
5.01338e-09
-9.73529e-08
-5.99918e-09
5.91491e-09
-9.70096e-08
-5.42737e-09
6.50085e-09
-9.63688e-08
-4.77587e-09
6.76042e-09
-9.56153e-08
-4.02675e-09
6.56622e-09
-9.43023e-08
-3.24493e-09
6.00469e-09
-9.22719e-08
-2.73026e-09
5.1457e-09
-8.93479e-08
-2.38772e-09
4.15913e-09
-8.53484e-08
-2.07993e-09
3.13747e-09
-7.98742e-08
-1.77216e-09
2.11215e-09
-7.23252e-08
-1.45975e-09
1.18073e-09
-6.18002e-08
-1.15424e-09
4.28962e-10
-4.64922e-08
-8.02898e-10
-2.25579e-08
-3.82927e-10
-6.46798e-10
-2.12752e-08
-6.48191e-10
-1.86418e-09
-4.38167e-08
-1.39233e-09
-3.38426e-09
-5.83119e-08
-1.93295e-09
-5.04082e-09
-6.82736e-08
-2.39975e-09
-6.69712e-09
-7.53496e-08
-2.88696e-09
-8.20981e-09
-8.04513e-08
-3.45121e-09
-9.44314e-09
-8.41349e-08
-4.10147e-09
-1.03163e-08
-8.66882e-08
-4.85447e-09
-1.07527e-08
-8.84373e-08
-5.70351e-09
-1.05375e-08
-8.94905e-08
-6.58926e-09
-9.51677e-09
-8.99436e-08
-7.60798e-09
-7.82239e-09
-8.99529e-08
-8.66229e-09
-5.60548e-09
-8.9885e-08
-9.55442e-09
-2.96303e-09
-8.98958e-08
-1.02045e-08
-3.77952e-11
-9.00261e-08
-1.05549e-08
2.87288e-09
-8.96758e-08
-1.04757e-08
5.58401e-09
-8.97349e-08
-1.01413e-08
7.93161e-09
-9.01907e-08
-9.50987e-09
9.52795e-09
-9.0012e-08
-8.59402e-09
1.04929e-08
-8.97491e-08
-7.58466e-09
1.07849e-08
-8.93383e-08
-6.56905e-09
1.04152e-08
-8.8382e-08
-5.55063e-09
9.50168e-09
-8.66867e-08
-4.67171e-09
8.20645e-09
-8.41122e-08
-3.94056e-09
6.67261e-09
-8.04999e-08
-3.31477e-09
5.04734e-09
-7.54919e-08
-2.75726e-09
3.42306e-09
-6.8432e-08
-2.26911e-09
1.92237e-09
-5.84959e-08
-1.80382e-09
6.86811e-10
-4.39882e-08
-1.26855e-09
-2.1259e-08
-6.12226e-10
-8.63409e-10
-1.95549e-08
-8.57194e-10
-2.4658e-09
-4.03696e-08
-1.84483e-09
-4.47047e-09
-5.37332e-08
-2.57399e-09
-6.65843e-09
-6.29075e-08
-3.17811e-09
-8.85611e-09
-6.93576e-08
-3.7944e-09
-1.0892e-08
-7.39019e-08
-4.51364e-09
-1.25867e-08
-7.70618e-08
-5.37862e-09
-1.37315e-08
-7.91466e-08
-6.39705e-09
-1.41983e-08
-8.04358e-08
-7.53458e-09
-1.3865e-08
-8.1111e-08
-8.71266e-09
-1.26164e-08
-8.13084e-08
-9.88376e-09
-1.03831e-08
-8.11045e-08
-1.10817e-08
-7.37491e-09
-8.06788e-08
-1.22147e-08
-3.86393e-09
-8.03629e-08
-1.30443e-08
-3.0793e-11
-8.03756e-08
-1.34841e-08
3.79361e-09
-8.0127e-08
-1.33734e-08
7.33994e-09
-8.03236e-08
-1.29578e-08
1.03955e-08
-8.1022e-08
-1.22243e-08
1.25899e-08
-8.11845e-08
-1.1022e-08
1.38529e-08
-8.12701e-08
-9.74222e-09
1.42197e-08
-8.10976e-08
-8.60763e-09
1.37754e-08
-8.04591e-08
-7.47861e-09
1.26301e-08
-7.91844e-08
-6.35698e-09
1.0955e-08
-7.70934e-08
-5.34365e-09
8.92449e-09
-7.39772e-08
-4.49233e-09
6.74047e-09
-6.95554e-08
-3.75275e-09
4.57709e-09
-6.32426e-08
-3.02632e-09
2.55967e-09
-5.41373e-08
-2.34148e-09
9.04499e-10
-4.06802e-08
-1.65296e-09
-1.95446e-08
-8.10072e-10
-1.03164e-09
-1.75026e-08
-1.02097e-09
-2.93772e-09
-3.62777e-08
-2.18611e-09
-5.34831e-09
-4.82672e-08
-3.05552e-09
-8.00794e-09
-5.64623e-08
-3.78558e-09
-1.06618e-08
-6.21747e-08
-4.52913e-09
-1.30828e-08
-6.61116e-08
-5.36957e-09
-1.50638e-08
-6.87242e-08
-6.35689e-09
-1.63885e-08
-7.03203e-08
-7.50175e-09
-1.68831e-08
-7.11469e-08
-8.79433e-09
-1.64162e-08
-7.13982e-08
-1.01795e-08
-1.49226e-08
-7.12453e-08
-1.15566e-08
-1.23584e-08
-7.08401e-08
-1.28288e-08
-8.7635e-09
-7.02726e-08
-1.40015e-08
-4.54923e-09
-6.96398e-08
-1.49379e-08
-2.24922e-11
-6.94297e-08
-1.5473e-08
4.48847e-09
-6.92522e-08
-1.53861e-08
8.69056e-09
-6.95993e-08
-1.49266e-08
1.22819e-08
-7.04755e-08
-1.4138e-08
1.48798e-08
-7.0893e-08
-1.28896e-08
1.64102e-08
-7.12624e-08
-1.15382e-08
1.68933e-08
-7.14183e-08
-1.01626e-08
1.64069e-08
-7.11786e-08
-8.7943e-09
1.50877e-08
-7.03601e-08
-7.50513e-09
1.31181e-08
-6.87671e-08
-6.3568e-09
1.0692e-08
-6.61666e-08
-5.38478e-09
8.02017e-09
-6.2289e-08
-4.59477e-09
5.3641e-09
-5.66954e-08
-3.89148e-09
2.96726e-09
-4.85864e-08
-3.15431e-09
1.03925e-09
-3.65158e-08
-2.2367e-09
-1.74865e-08
-1.01902e-09
-1.14531e-09
-1.51962e-08
-1.16144e-09
-3.31228e-09
-3.16061e-08
-2.5048e-09
-6.02522e-09
-4.2106e-08
-3.44827e-09
-8.98929e-09
-4.92598e-08
-4.23848e-09
-1.19396e-08
-5.419e-08
-5.03465e-09
-1.46255e-08
-5.74942e-08
-5.93176e-09
-1.68046e-08
-5.95695e-08
-6.97596e-09
-1.82484e-08
-6.06963e-08
-8.18033e-09
-1.87616e-08
-6.1098e-08
-9.53556e-09
-1.8199e-08
-6.09675e-08
-1.0993e-08
-1.64841e-08
-6.049e-08
-1.247e-08
-1.362e-08
-5.98494e-08
-1.38549e-08
-9.67256e-09
-5.91719e-08
-1.50485e-08
-4.98585e-09
-5.84153e-08
-1.59118e-08
-1.48938e-11
-5.79721e-08
-1.6429e-08
4.96679e-09
-5.78591e-08
-1.6375e-08
9.63947e-09
-5.83371e-08
-1.5935e-08
1.35676e-08
-5.92343e-08
-1.51695e-08
1.64515e-08
-5.98704e-08
-1.39067e-08
1.81838e-08
-6.05097e-08
-1.24854e-08
1.87602e-08
-6.09902e-08
-1.10047e-08
1.82561e-08
-6.1127e-08
-9.54765e-09
1.68194e-08
-6.07318e-08
-8.19173e-09
1.46471e-08
-5.96113e-08
-6.98361e-09
1.19633e-08
-5.75417e-08
-5.94111e-09
8.99468e-09
-5.42525e-08
-5.06821e-09
5.99953e-09
-4.93737e-08
-4.32688e-09
3.28017e-09
-4.22893e-08
-3.57811e-09
1.13778e-09
-3.17836e-08
-2.59007e-09
-1.51832e-08
-1.16568e-09
-1.19734e-09
-1.27504e-08
-1.24873e-09
-3.52659e-09
-2.65846e-08
-2.69245e-09
-6.42438e-09
-3.55428e-08
-3.66543e-09
-9.57276e-09
-4.16242e-08
-4.4873e-09
-1.27035e-08
-4.57492e-08
-5.31031e-09
-1.55456e-08
-4.84285e-08
-6.22403e-09
-1.78409e-08
-4.9999e-08
-7.27572e-09
-1.93478e-08
-5.07082e-08
-8.48129e-09
-1.98593e-08
-5.07604e-08
-9.82591e-09
-1.92252e-08
-5.03396e-08
-1.12616e-08
-1.73714e-08
-4.96234e-08
-1.27202e-08
-1.43017e-08
-4.87993e-08
-1.41199e-08
-1.01707e-08
-4.79768e-08
-1.53264e-08
-5.23556e-09
-4.72081e-08
-1.61428e-08
-7.79548e-12
-4.66673e-08
-1.6533e-08
5.23641e-09
-4.6621e-08
-1.64826e-08
1.0151e-08
-4.71595e-08
-1.60924e-08
1.42663e-08
-4.80135e-08
-1.53363e-08
1.73395e-08
-4.88154e-08
-1.41286e-08
1.9205e-08
-4.96393e-08
-1.27362e-08
1.98508e-08
-5.03581e-08
-1.1278e-08
1.93495e-08
-5.07852e-08
-9.84069e-09
1.78513e-08
-5.07387e-08
-8.49483e-09
1.55606e-08
-5.00347e-08
-7.28584e-09
1.27211e-08
-4.84695e-08
-6.23287e-09
9.58724e-09
-4.57963e-08
-5.32268e-09
6.41978e-09
-4.16868e-08
-4.51979e-09
3.51326e-09
-3.56545e-08
-3.72865e-09
1.20739e-09
-2.67441e-08
-2.73387e-09
-1.27329e-08
-1.24308e-09
-1.23518e-09
-1.02453e-08
-1.27009e-09
-3.60864e-09
-2.14907e-08
-2.72048e-09
-6.56309e-09
-2.88625e-08
-3.72593e-09
-9.78201e-09
-3.38463e-08
-4.55901e-09
-1.29834e-08
-3.71742e-08
-5.37396e-09
-1.58865e-08
-3.92598e-08
-6.26608e-09
-1.82226e-08
-4.03794e-08
-7.28392e-09
-1.9743e-08
-4.07463e-08
-8.44157e-09
-2.02384e-08
-4.05428e-08
-9.72192e-09
-1.95625e-08
-3.99329e-08
-1.10822e-08
-1.7634e-08
-3.90876e-08
-1.24639e-08
-1.44776e-08
-3.81618e-08
-1.37939e-08
-1.03271e-08
-3.72419e-08
-1.48858e-08
-5.38719e-09
-3.65176e-08
-1.5631e-08
-4.24398e-11
-3.60472e-08
-1.59654e-08
5.2773e-09
-3.59969e-08
-1.59441e-08
1.01977e-08
-3.64586e-08
-1.56214e-08
1.44131e-08
-3.72898e-08
-1.49392e-08
1.76015e-08
-3.8178e-08
-1.38261e-08
1.95391e-08
-3.90952e-08
-1.2482e-08
2.02263e-08
-3.9946e-08
-1.10996e-08
1.97398e-08
-4.05611e-08
-9.7376e-09
1.82271e-08
-4.07709e-08
-8.45515e-09
1.58963e-08
-4.04078e-08
-7.29602e-09
1.29959e-08
-3.92918e-08
-6.27729e-09
9.79444e-09
-3.72106e-08
-5.38442e-09
6.56972e-09
-3.38882e-08
-4.57425e-09
3.60069e-09
-2.89219e-08
-3.76389e-09
1.22324e-09
-2.15896e-08
-2.77727e-09
-1.02362e-08
-1.27352e-09
-1.22435e-09
-7.77925e-09
-1.24181e-09
-3.54859e-09
-1.651e-08
-2.65648e-09
-6.45856e-09
-2.23026e-08
-3.64983e-09
-9.64158e-09
-2.62078e-08
-4.4556e-09
-1.2814e-08
-2.87696e-08
-5.23248e-09
-1.56945e-08
-3.0306e-08
-6.07395e-09
-1.80083e-08
-3.10398e-08
-7.0262e-09
-1.9507e-08
-3.11461e-08
-8.10163e-09
-1.99852e-08
-3.07778e-08
-9.28645e-09
-1.92953e-08
-3.00827e-08
-1.05395e-08
-1.73688e-08
-2.9205e-08
-1.18087e-08
-1.42648e-08
-2.82679e-08
-1.29978e-08
-1.01812e-08
-2.73804e-08
-1.39455e-08
-5.33729e-09
-2.67195e-08
-1.46426e-08
-4.81735e-11
-2.63524e-08
-1.49844e-08
5.20923e-09
-2.62971e-08
-1.49574e-08
1.00594e-08
-2.66739e-08
-1.4635e-08
1.41977e-08
-2.74218e-08
-1.40065e-08
1.7336e-08
-2.8286e-08
-1.30306e-08
1.92698e-08
-2.92084e-08
-1.18208e-08
1.99674e-08
-3.00899e-08
-1.05538e-08
1.95004e-08
-3.07916e-08
-9.30249e-09
1.80092e-08
-3.1163e-08
-8.11652e-09
1.57004e-08
-3.10608e-08
-7.03811e-09
1.28237e-08
-3.03306e-08
-6.08458e-09
9.65292e-09
-2.87973e-08
-5.24275e-09
6.46685e-09
-2.62366e-08
-4.46587e-09
3.54887e-09
-2.23381e-08
-3.66608e-09
1.21048e-09
-1.65621e-08
-2.68927e-09
-7.78149e-09
-1.24436e-09
-1.15609e-09
-5.46044e-09
-1.1627e-09
-3.35311e-09
-1.18223e-08
-2.4906e-09
-6.12095e-09
-1.61123e-08
-3.42246e-09
-9.16923e-09
-1.89907e-08
-4.169e-09
-1.22249e-08
-2.08341e-08
-4.88028e-09
-1.50109e-08
-2.18762e-08
-5.64457e-09
-1.72532e-08
-2.22891e-08
-6.50889e-09
-1.87078e-08
-2.221e-08
-7.48154e-09
-1.91714e-08
-2.17645e-08
-8.54926e-09
-1.85026e-08
-2.10707e-08
-9.68019e-09
-1.66352e-08
-2.02414e-08
-1.08304e-08
-1.36653e-08
-1.93782e-08
-1.18595e-08
-9.74495e-09
-1.86067e-08
-1.26944e-08
-5.10292e-09
-1.80377e-08
-1.33245e-08
-4.20225e-11
-1.77452e-08
-1.36685e-08
4.99135e-09
-1.77004e-08
-1.36303e-08
9.64224e-09
-1.80086e-08
-1.33163e-08
1.36039e-08
-1.86319e-08
-1.27517e-08
1.66034e-08
-1.93928e-08
-1.18929e-08
1.84757e-08
-2.02468e-08
-1.08341e-08
1.91524e-08
-2.10748e-08
-9.69201e-09
1.86982e-08
-2.17725e-08
-8.56477e-09
1.72522e-08
-2.22212e-08
-7.49571e-09
1.50151e-08
-2.23029e-08
-6.52066e-09
1.22328e-08
-2.18933e-08
-5.65504e-09
9.17642e-09
-2.08524e-08
-4.88878e-09
6.12705e-09
-1.90102e-08
-4.17727e-09
3.35725e-09
-1.61367e-08
-3.43187e-09
1.15354e-09
-1.18535e-08
-2.50507e-09
-5.46391e-09
-1.16411e-09
-1.03045e-09
-3.39803e-09
-1.03182e-09
-3.01058e-09
-7.62466e-09
-2.21737e-09
-5.5457e-09
-1.054e-08
-3.03714e-09
-8.37084e-09
-1.24825e-08
-3.68331e-09
-1.12314e-08
-1.36765e-08
-4.29754e-09
-1.38608e-08
-1.42882e-08
-4.9593e-09
-1.599e-08
-1.44473e-08
-5.71319e-09
-1.73807e-08
-1.42544e-08
-6.56502e-09
-1.7838e-08
-1.38029e-08
-7.50381e-09
-1.72258e-08
-1.31805e-08
-8.50149e-09
-1.54914e-08
-1.24683e-08
-9.50691e-09
-1.27279e-08
-1.17582e-08
-1.03834e-08
-9.07023e-09
-1.11373e-08
-1.11276e-08
-4.74195e-09
-1.06804e-08
-1.16862e-08
-3.57908e-11
-1.04462e-08
-1.20057e-08
4.64785e-09
-1.04199e-08
-1.19644e-08
8.97726e-09
-1.06636e-08
-1.16745e-08
1.266e-08
-1.11453e-08
-1.11694e-08
1.54516e-08
-1.17639e-08
-1.04207e-08
1.71988e-08
-1.24722e-08
-9.52199e-09
1.78185e-08
-1.31828e-08
-8.51186e-09
1.73702e-08
-1.3807e-08
-7.51719e-09
1.59871e-08
-1.42604e-08
-6.5775e-09
1.38626e-08
-1.44554e-08
-5.72288e-09
1.12362e-08
-1.42981e-08
-4.9689e-09
8.37602e-09
-1.36877e-08
-4.30459e-09
5.55189e-09
-1.24969e-08
-3.68943e-09
3.0184e-09
-1.05621e-08
-3.04131e-09
1.03303e-09
-7.64796e-09
-2.22032e-09
-3.40025e-09
-1.03073e-09
-8.42519e-10
-1.71395e-09
-8.4131e-10
-2.51653e-09
-4.14045e-09
-1.80995e-09
-4.72346e-09
-5.87277e-09
-2.46018e-09