/*--------------------------------*- C++ -*----------------------------------*\
| =========                 |                                                 |
| \\      /  F ield         | OpenFOAM: The Open Source CFD Toolbox           |
|  \\    /   O peration     | Version:  v1912                                 |
|   \\  /    A nd           | Website:  www.openfoam.com                      |
|    \\/     M anipulation  |                                                 |
\*---------------------------------------------------------------------------*/
FoamFile
{
    version     2.0;
    format      ascii;
    class       volVectorField;
    location    "244/oil";
    object      U;
}
// * * * * * * * * * * * * * * * * * * * * * * * * * * * * * * * * * * * * * //

dimensions      [0 1 -1 0 0 0 0];


internalField   nonuniform List<vector> 
35580
(
(-1.14768e-09 2.30485e-09 -1.17546e-09)
(1.21513e-09 2.08679e-09 -2.83197e-09)
(1.0936e-08 2.05591e-09 -4.55746e-09)
(2.62342e-08 2.56993e-09 -6.30379e-09)
(4.48224e-08 3.39129e-09 -7.70977e-09)
(6.40996e-08 4.35854e-09 -8.65601e-09)
(8.16622e-08 5.37942e-09 -9.13344e-09)
(9.54235e-08 6.4105e-09 -9.19591e-09)
(1.03677e-07 7.42522e-09 -8.92485e-09)
(1.0529e-07 8.39774e-09 -8.39522e-09)
(9.96398e-08 9.27604e-09 -7.67878e-09)
(8.67739e-08 1.00193e-08 -6.96346e-09)
(6.74726e-08 1.06018e-08 -6.29882e-09)
(4.29455e-08 1.10444e-08 -5.82488e-09)
(1.50808e-08 1.1288e-08 -5.57694e-09)
(-1.40019e-08 1.13173e-08 -5.5819e-09)
(-4.1952e-08 1.10626e-08 -5.82458e-09)
(-6.65331e-08 1.06124e-08 -6.28441e-09)
(-8.59578e-08 9.99333e-09 -6.92014e-09)
(-9.89489e-08 9.26438e-09 -7.6454e-09)
(-1.04809e-07 8.40077e-09 -8.35448e-09)
(-1.03364e-07 7.41657e-09 -8.90812e-09)
(-9.52152e-08 6.40125e-09 -9.17859e-09)
(-8.1551e-08 5.37285e-09 -9.12504e-09)
(-6.40588e-08 4.35165e-09 -8.64958e-09)
(-4.48366e-08 3.38727e-09 -7.70376e-09)
(-2.62813e-08 2.56608e-09 -6.29387e-09)
(-1.09906e-08 2.04547e-09 -4.53739e-09)
(-1.25754e-09 2.06353e-09 -2.80735e-09)
(1.12953e-09 2.25461e-09 -1.16033e-09)
(6.06593e-10 -2.19401e-09 5.8743e-10)
(1.19956e-08 -1.32821e-08 5.11272e-10)
(3.48921e-08 -2.2117e-08 -2.87853e-10)
(6.67738e-08 -2.69057e-08 -1.33263e-09)
(1.03856e-07 -2.84203e-08 -2.10313e-09)
(1.41689e-07 -2.74808e-08 -2.36803e-09)
(1.75815e-07 -2.47638e-08 -2.0736e-09)
(2.02215e-07 -2.07758e-08 -1.25975e-09)
(2.1756e-07 -1.59457e-08 -2.30803e-11)
(2.19508e-07 -1.06752e-08 1.49436e-09)
(2.0677e-07 -5.38686e-09 3.26986e-09)
(1.79375e-07 -5.36853e-10 4.93512e-09)
(1.3902e-07 3.46498e-09 6.39858e-09)
(8.83574e-08 6.38792e-09 7.44939e-09)
(3.10037e-08 7.93892e-09 8.00425e-09)
(-2.88288e-08 7.97206e-09 8.02244e-09)
(-8.63764e-08 6.35801e-09 7.47562e-09)
(-1.37134e-07 3.37764e-09 6.45731e-09)
(-1.7751e-07 -7.10974e-10 5.03123e-09)
(-2.05e-07 -5.506e-09 3.36754e-09)
(-2.18096e-07 -1.07867e-08 1.62165e-09)
(-2.16455e-07 -1.60484e-08 6.56321e-11)
(-2.01364e-07 -2.0845e-08 -1.17623e-09)
(-1.7524e-07 -2.48068e-08 -2.00772e-09)
(-1.41353e-07 -2.75238e-08 -2.31304e-09)
(-1.03711e-07 -2.84799e-08 -2.05379e-09)
(-6.67654e-08 -2.69991e-08 -1.29242e-09)
(-3.49345e-08 -2.22476e-08 -2.53039e-10)
(-1.20189e-08 -1.34198e-08 5.30463e-10)
(-6.09171e-10 -2.31584e-09 5.77271e-10)
(2.34596e-09 -2.14016e-08 2.33767e-09)
(2.35034e-08 -5.6583e-08 4.14143e-09)
(5.74948e-08 -8.26166e-08 4.52275e-09)
(1.01189e-07 -9.91619e-08 4.46786e-09)
(1.49986e-07 -1.07962e-07 4.55794e-09)
(1.98793e-07 -1.10691e-07 5.06126e-09)
(2.42252e-07 -1.08794e-07 6.07328e-09)
(2.75392e-07 -1.03445e-07 7.58544e-09)
(2.94029e-07 -9.56622e-08 9.50336e-09)
(2.9519e-07 -8.63902e-08 1.16583e-08)
(2.77161e-07 -7.65774e-08 1.40363e-08)
(2.3989e-07 -6.72447e-08 1.6239e-08)
(1.85604e-07 -5.9415e-08 1.81019e-08)
(1.17832e-07 -5.37436e-08 1.94491e-08)
(4.13158e-08 -5.07437e-08 2.01646e-08)
(-3.85132e-08 -5.07555e-08 2.02122e-08)
(-1.15341e-07 -5.3891e-08 1.94862e-08)
(-1.83234e-07 -5.97346e-08 1.81575e-08)
(-2.37481e-07 -6.76813e-08 1.6295e-08)
(-2.74954e-07 -7.69504e-08 1.41318e-08)
(-2.93445e-07 -8.6727e-08 1.17782e-08)
(-2.92652e-07 -9.59128e-08 9.58235e-09)
(-2.74339e-07 -1.03617e-07 7.66082e-09)
(-2.41529e-07 -1.08913e-07 6.14203e-09)
(-1.98366e-07 -1.10797e-07 5.12303e-09)
(-1.49796e-07 -1.08094e-07 4.61856e-09)
(-1.01157e-07 -9.93532e-08 4.51935e-09)
(-5.75303e-08 -8.28699e-08 4.55823e-09)
(-2.35431e-08 -5.68261e-08 4.14658e-09)
(-2.36338e-09 -2.15548e-08 2.3146e-09)
(3.74386e-09 -5.29907e-08 3.72855e-09)
(3.3149e-08 -1.23429e-07 6.91092e-09)
(7.64209e-08 -1.72992e-07 8.1003e-09)
(1.29413e-07 -2.05883e-07 8.70866e-09)
(1.86817e-07 -2.25599e-07 9.4174e-09)
(2.4317e-07 -2.34861e-07 1.04896e-08)
(2.9269e-07 -2.3596e-07 1.20295e-08)
(3.29947e-07 -2.30804e-07 1.40386e-08)
(3.50289e-07 -2.21102e-07 1.643e-08)
(3.50341e-07 -2.08449e-07 1.90299e-08)
(3.28086e-07 -1.94452e-07 2.17782e-08)
(2.83483e-07 -1.80651e-07 2.43289e-08)
(2.19115e-07 -1.6879e-07 2.6503e-08)
(1.38948e-07 -1.6007e-07 2.80379e-08)
(4.86757e-08 -1.55475e-07 2.88416e-08)
(-4.55058e-08 -1.55543e-07 2.89022e-08)
(-1.36184e-07 -1.60261e-07 2.80554e-08)
(-2.16415e-07 -1.69109e-07 2.65159e-08)
(-2.80749e-07 -1.80998e-07 2.43563e-08)
(-3.25579e-07 -1.94745e-07 2.18433e-08)
(-3.48275e-07 -2.08713e-07 1.90887e-08)
(-3.48619e-07 -2.21294e-07 1.64638e-08)
(-3.28656e-07 -2.30937e-07 1.40756e-08)
(-2.91767e-07 -2.36051e-07 1.20676e-08)
(-2.42582e-07 -2.34956e-07 1.05321e-08)
(-1.86525e-07 -2.25748e-07 9.46717e-09)
(-1.29333e-07 -2.06119e-07 8.74649e-09)
(-7.64383e-08 -1.73289e-07 8.1108e-09)
(-3.32017e-08 -1.23684e-07 6.8884e-09)
(-3.7752e-09 -5.31875e-08 3.69089e-09)
(4.73379e-09 -9.43165e-08 4.71673e-09)
(4.04297e-08 -2.08823e-07 8.82552e-09)
(9.10094e-08 -2.86705e-07 1.0526e-08)
(1.51279e-07 -3.39107e-07 1.15492e-08)
(2.15241e-07 -3.72231e-07 1.26423e-08)
(2.77157e-07 -3.90145e-07 1.41054e-08)
(3.30994e-07 -3.96075e-07 1.60272e-08)
(3.71084e-07 -3.92684e-07 1.84222e-08)
(3.9251e-07 -3.82372e-07 2.12012e-08)
(3.91652e-07 -3.67399e-07 2.41935e-08)
(3.66305e-07 -3.5003e-07 2.72587e-08)
(3.16325e-07 -3.32331e-07 3.01308e-08)
(2.44364e-07 -3.16725e-07 3.26038e-08)
(1.54851e-07 -3.05003e-07 3.43127e-08)
(5.42218e-08 -2.98848e-07 3.52065e-08)
(-5.07681e-08 -2.98946e-07 3.528e-08)
(-1.51862e-07 -3.05157e-07 3.43358e-08)
(-2.41326e-07 -3.16835e-07 3.26092e-08)
(-3.13299e-07 -3.32419e-07 3.01866e-08)
(-3.63564e-07 -3.50083e-07 2.73242e-08)
(-3.89374e-07 -3.67449e-07 2.42422e-08)
(-3.90675e-07 -3.8241e-07 2.1238e-08)
(-3.69661e-07 -3.92727e-07 1.84628e-08)
(-3.29957e-07 -3.96126e-07 1.60675e-08)
(-2.76463e-07 -3.90232e-07 1.41412e-08)
(-2.14856e-07 -3.72379e-07 1.26777e-08)
(-1.51143e-07 -3.39348e-07 1.15618e-08)
(-9.10129e-08 -2.8698e-07 1.04999e-08)
(-4.05034e-08 -2.08976e-07 8.75534e-09)
(-4.7855e-09 -9.45455e-08 4.65696e-09)
(5.36638e-09 -1.42565e-07 5.37393e-09)
(4.54165e-08 -3.07569e-07 1.00558e-08)
(1.01289e-07 -4.17345e-07 1.20444e-08)
(1.66883e-07 -4.91537e-07 1.33096e-08)
(2.35616e-07 -5.3982e-07 1.46404e-08)
(3.01557e-07 -5.67984e-07 1.63659e-08)
(3.58523e-07 -5.80297e-07 1.85788e-08)
(4.00707e-07 -5.80189e-07 2.13049e-08)
(4.23021e-07 -5.70728e-07 2.44452e-08)
(4.21651e-07 -5.5479e-07 2.78341e-08)
(3.9432e-07 -5.35264e-07 3.12547e-08)
(3.40679e-07 -5.14783e-07 3.45089e-08)
(2.63143e-07 -4.9619e-07 3.73069e-08)
(1.66703e-07 -4.81894e-07 3.92323e-08)
(5.83329e-08 -4.74359e-07 4.0224e-08)
(-5.46865e-08 -4.74444e-07 4.02933e-08)
(-1.63573e-07 -4.82026e-07 3.92411e-08)
(-2.5987e-07 -4.96099e-07 3.73082e-08)
(-3.37435e-07 -5.14728e-07 3.45969e-08)
(-3.91415e-07 -5.35196e-07 3.1339e-08)
(-4.19245e-07 -5.54727e-07 2.79006e-08)
(-4.21092e-07 -5.70685e-07 2.45026e-08)
(-3.99211e-07 -5.80189e-07 2.13605e-08)
(-3.57429e-07 -5.80334e-07 1.8639e-08)
(-3.00807e-07 -5.68072e-07 1.64118e-08)
(-2.35168e-07 -5.39956e-07 1.46769e-08)
(-1.66694e-07 -4.91733e-07 1.3308e-08)
(-1.01278e-07 -4.17532e-07 1.19865e-08)
(-4.55229e-08 -3.07578e-07 9.9425e-09)
(-5.44401e-09 -1.42817e-07 5.29378e-09)
(5.72786e-09 -1.95211e-07 5.742e-09)
(4.83644e-08 -4.15058e-07 1.07343e-08)
(1.07473e-07 -5.59159e-07 1.2895e-08)
(1.76338e-07 -6.56696e-07 1.42946e-08)
(2.48014e-07 -7.21441e-07 1.57742e-08)
(3.1645e-07 -7.61185e-07 1.76998e-08)
(3.75412e-07 -7.8136e-07 2.01576e-08)
(4.19033e-07 -7.86177e-07 2.31883e-08)
(4.4212e-07 -7.79317e-07 2.66801e-08)
(4.40709e-07 -7.6419e-07 3.04676e-08)
(4.12432e-07 -7.44196e-07 3.42823e-08)
(3.56723e-07 -7.22521e-07 3.79277e-08)
(2.75675e-07 -7.02246e-07 4.10888e-08)
(1.74644e-07 -6.86094e-07 4.32505e-08)
(6.10681e-08 -6.77464e-07 4.43189e-08)
(-5.7287e-08 -6.77502e-07 4.43902e-08)
(-1.71437e-07 -6.86275e-07 4.32385e-08)
(-2.72301e-07 -7.02074e-07 4.11059e-08)
(-3.53372e-07 -7.22462e-07 3.80531e-08)
(-4.09445e-07 -7.44135e-07 3.44001e-08)
(-4.38247e-07 -7.6413e-07 3.05635e-08)
(-4.40157e-07 -7.79287e-07 2.67626e-08)
(-4.17512e-07 -7.86199e-07 2.32614e-08)
(-3.74298e-07 -7.81421e-07 2.02315e-08)
(-3.15677e-07 -7.61279e-07 1.77507e-08)
(-2.47531e-07 -7.21552e-07 1.58134e-08)
(-1.7611e-07 -6.56807e-07 1.4277e-08)
(-1.0744e-07 -5.59157e-07 1.27996e-08)
(-4.84818e-08 -4.14839e-07 1.05927e-08)
(-5.81366e-09 -1.95529e-07 5.65686e-09)
(5.83729e-09 -2.49993e-07 5.8756e-09)
(4.93878e-08 -5.26973e-07 1.09769e-08)
(1.09641e-07 -7.06678e-07 1.32101e-08)
(1.79595e-07 -8.28458e-07 1.46822e-08)
(2.52192e-07 -9.10607e-07 1.62495e-08)
(3.2139e-07 -9.63125e-07 1.83164e-08)
(3.8102e-07 -9.9267e-07 2.09864e-08)
(4.25271e-07 -1.00425e-06 2.42935e-08)
(4.48923e-07 -1.00206e-06 2.81207e-08)
(4.47902e-07 -9.89954e-07 3.23059e-08)
(4.19728e-07 -9.71732e-07 3.65464e-08)
(3.63618e-07 -9.50944e-07 4.05656e-08)
(2.81199e-07 -9.30703e-07 4.41106e-08)
(1.78037e-07 -9.1357e-07 4.65301e-08)
(6.21965e-08 -9.04405e-07 4.77072e-08)
(-5.84777e-08 -9.04602e-07 4.78248e-08)
(-1.74923e-07 -9.1406e-07 4.65379e-08)
(-2.77884e-07 -9.30665e-07 4.41697e-08)
(-3.60264e-07 -9.50996e-07 4.06972e-08)
(-4.16745e-07 -9.71775e-07 3.66573e-08)
(-4.4543e-07 -9.89977e-07 3.23996e-08)
(-4.46949e-07 -1.0021e-06 2.82027e-08)
(-4.23734e-07 -1.00435e-06 2.43645e-08)
(-3.79879e-07 -9.92817e-07 2.10612e-08)
(-3.20579e-07 -9.63282e-07 1.83695e-08)
(-2.51667e-07 -9.10743e-07 1.62711e-08)
(-1.79325e-07 -8.28501e-07 1.46285e-08)
(-1.09582e-07 -7.06462e-07 1.30865e-08)
(-4.94995e-08 -5.26513e-07 1.0834e-08)
(-5.93087e-09 -2.50466e-07 5.8009e-09)
(5.74272e-09 -3.04891e-07 5.78089e-09)
(4.85714e-08 -6.39121e-07 1.07921e-08)
(1.07756e-07 -8.54624e-07 1.30121e-08)
(1.76394e-07 -1.0009e-06 1.45359e-08)
(2.47592e-07 -1.10089e-06 1.61606e-08)
(3.15507e-07 -1.16709e-06 1.82864e-08)
(3.7416e-07 -1.20744e-06 2.10872e-08)
(4.17931e-07 -1.22765e-06 2.45927e-08)
(4.41702e-07 -1.23236e-06 2.86788e-08)
(4.41346e-07 -1.22572e-06 3.31917e-08)
(4.14265e-07 -1.21173e-06 3.78032e-08)
(3.5956e-07 -1.19403e-06 4.2146e-08)
(2.78343e-07 -1.17577e-06 4.59767e-08)
(1.7609e-07 -1.15922e-06 4.86796e-08)
(6.15347e-08 -1.1506e-06 5.00521e-08)
(-5.79146e-08 -1.15082e-06 5.0166e-08)
(-1.73065e-07 -1.15961e-06 4.8632e-08)
(-2.75108e-07 -1.17568e-06 4.60224e-08)
(-3.56233e-07 -1.19414e-06 4.22652e-08)
(-4.1135e-07 -1.21188e-06 3.7905e-08)
(-4.38913e-07 -1.22584e-06 3.32888e-08)
(-4.3977e-07 -1.2325e-06 2.87647e-08)
(-4.1643e-07 -1.22785e-06 2.46638e-08)
(-3.73024e-07 -1.20771e-06 2.11566e-08)
(-3.1468e-07 -1.16735e-06 1.83169e-08)
(-2.47053e-07 -1.10101e-06 1.61141e-08)
(-1.76091e-07 -1.00069e-06 1.44216e-08)
(-1.07652e-07 -8.53997e-07 1.28712e-08)
(-4.8636e-08 -6.38359e-07 1.06544e-08)
(-5.81843e-09 -3.05452e-07 5.70443e-09)
(5.44046e-09 -3.5782e-07 5.42982e-09)
(4.58759e-08 -7.47259e-07 1.01391e-08)
(1.01715e-07 -9.97536e-07 1.22338e-08)
(1.66446e-07 -1.16789e-06 1.37572e-08)
(2.33653e-07 -1.28564e-06 1.54327e-08)
(2.97885e-07 -1.36587e-06 1.75702e-08)
(3.53569e-07 -1.41807e-06 2.03857e-08)
(3.95429e-07 -1.44851e-06 2.39573e-08)
(4.18613e-07 -1.46216e-06 2.81424e-08)
(4.19059e-07 -1.46329e-06 3.28122e-08)
(3.94067e-07 -1.45595e-06 3.76341e-08)
(3.42606e-07 -1.44355e-06 4.22005e-08)
(2.65455e-07 -1.429e-06 4.61024e-08)
(1.6779e-07 -1.41465e-06 4.89898e-08)
(5.86614e-08 -1.40769e-06 5.05812e-08)
(-5.53493e-08 -1.4079e-06 5.06978e-08)
(-1.65006e-07 -1.41473e-06 4.8938e-08)
(-2.6227e-07 -1.42821e-06 4.61267e-08)
(-3.39289e-07 -1.44316e-06 4.23204e-08)
(-3.9124e-07 -1.45602e-06 3.77283e-08)
(-4.16663e-07 -1.46349e-06 3.29134e-08)
(-4.16737e-07 -1.4624e-06 2.82275e-08)
(-3.93989e-07 -1.44886e-06 2.40229e-08)
(-3.52454e-07 -1.41851e-06 2.04611e-08)
(-2.97042e-07 -1.36621e-06 1.75939e-08)
(-2.33068e-07 -1.28553e-06 1.53879e-08)
(-1.66056e-07 -1.1672e-06 1.3732e-08)
(-1.01484e-07 -9.96432e-07 1.22455e-08)
(-4.584e-08 -7.46288e-07 1.01515e-08)
(-5.47614e-09 -3.58487e-07 5.4237e-09)
(4.9255e-09 -4.06586e-07 4.84524e-09)
(4.12471e-08 -8.46774e-07 9.08709e-09)
(9.14209e-08 -1.12934e-06 1.0953e-08)
(1.49527e-07 -1.32262e-06 1.23548e-08)
(2.09924e-07 -1.45756e-06 1.40123e-08)
(2.6781e-07 -1.55153e-06 1.61063e-08)
(3.18276e-07 -1.61595e-06 1.88124e-08)
(3.56518e-07 -1.65766e-06 2.22491e-08)
(3.78146e-07 -1.68168e-06 2.62711e-08)
(3.79292e-07 -1.69226e-06 3.08365e-08)
(3.57158e-07 -1.69324e-06 3.56168e-08)
(3.1082e-07 -1.6875e-06 4.01741e-08)
(2.41089e-07 -1.67828e-06 4.39422e-08)
(1.52584e-07 -1.66843e-06 4.685e-08)
(5.34113e-08 -1.66384e-06 4.85059e-08)
(-5.04325e-08 -1.6641e-06 4.86542e-08)
(-1.50045e-07 -1.6684e-06 4.68652e-08)
(-2.38057e-07 -1.67736e-06 4.38756e-08)
(-3.0787e-07 -1.68729e-06 4.0187e-08)
(-3.54683e-07 -1.69345e-06 3.56262e-08)
(-3.77034e-07 -1.69259e-06 3.09264e-08)
(-3.76379e-07 -1.68197e-06 2.63629e-08)
(-3.55204e-07 -1.65812e-06 2.23061e-08)
(-3.17268e-07 -1.61658e-06 1.89008e-08)
(-2.67083e-07 -1.5518e-06 1.61329e-08)
(-2.09407e-07 -1.45677e-06 1.3964e-08)
(-1.49096e-07 -1.32099e-06 1.22991e-08)
(-9.10538e-08 -1.12752e-06 1.08512e-08)
(-4.109e-08 -8.45408e-07 8.97245e-09)
(-4.88048e-09 -4.07165e-07 4.82058e-09)
(4.17186e-09 -4.49028e-07 4.03266e-09)
(3.46231e-08 -9.32946e-07 7.58915e-09)
(7.66944e-08 -1.24324e-06 9.19008e-09)
(1.25631e-07 -1.45706e-06 1.04509e-08)
(1.76516e-07 -1.60812e-06 1.1975e-08)
(2.25309e-07 -1.71527e-06 1.39452e-08)
(2.68115e-07 -1.79155e-06 1.64194e-08)
(3.00842e-07 -1.84468e-06 1.94774e-08)
(3.1976e-07 -1.87956e-06 2.29984e-08)
(3.21314e-07 -1.89996e-06 2.70529e-08)
(3.02852e-07 -1.90919e-06 3.12861e-08)
(2.63622e-07 -1.91071e-06 3.5328e-08)
(2.04575e-07 -1.90846e-06 3.885e-08)
(1.2985e-07 -1.90484e-06 4.16753e-08)
(4.55233e-08 -1.90319e-06 4.32563e-08)
(-4.29634e-08 -1.90332e-06 4.3413e-08)
(-1.27729e-07 -1.90461e-06 4.18718e-08)
(-2.02105e-07 -1.90835e-06 3.91023e-08)
(-2.61299e-07 -1.91267e-06 3.5801e-08)
(-3.00709e-07 -1.91079e-06 3.15796e-08)
(-3.19215e-07 -1.90066e-06 2.7248e-08)
(-3.18151e-07 -1.87979e-06 2.30443e-08)
(-2.99732e-07 -1.84509e-06 1.92881e-08)
(-2.67237e-07 -1.79215e-06 1.61398e-08)
(-2.2461e-07 -1.71514e-06 1.36106e-08)
(-1.75857e-07 -1.60662e-06 1.16843e-08)
(-1.25062e-07 -1.4549e-06 1.02668e-08)
(-7.63612e-08 -1.24131e-06 9.09184e-09)
(-3.45106e-08 -9.31339e-07 7.55579e-09)
(-4.117e-09 -4.49422e-07 4.09038e-09)
(3.26408e-09 -4.82868e-07 2.94079e-09)
(2.64667e-08 -1.00136e-06 5.49946e-09)
(5.81835e-08 -1.33354e-06 6.72831e-09)
(9.53259e-08 -1.56381e-06 7.70383e-09)
(1.34078e-07 -1.72852e-06 8.81902e-09)
(1.71317e-07 -1.84764e-06 1.03486e-08)
(2.04033e-07 -1.93469e-06 1.23866e-08)
(2.29174e-07 -1.99813e-06 1.50124e-08)
(2.44189e-07 -2.04288e-06 1.80305e-08)
(2.45948e-07 -2.07195e-06 2.13416e-08)
(2.31836e-07 -2.08909e-06 2.45733e-08)
(2.01612e-07 -2.09915e-06 2.78103e-08)
(1.56803e-07 -2.105e-06 3.09389e-08)
(1.00012e-07 -2.10684e-06 3.32881e-08)
(3.5313e-08 -2.10747e-06 3.44959e-08)
(-3.25879e-08 -2.10689e-06 3.43978e-08)
(-9.78695e-08 -2.10521e-06 3.30886e-08)
(-1.54913e-07 -2.10384e-06 3.07477e-08)
(-2.00181e-07 -2.10142e-06 2.79299e-08)
(-2.30044e-07 -2.09095e-06 2.45738e-08)
(-2.43873e-07 -2.0725e-06 2.11778e-08)
(-2.42729e-07 -2.04271e-06 1.78877e-08)
(-2.28314e-07 -1.9982e-06 1.49208e-08)
(-2.03258e-07 -1.93486e-06 1.24019e-08)
(-1.70712e-07 -1.84713e-06 1.03874e-08)
(-1.33649e-07 -1.72729e-06 8.87916e-09)
(-9.50812e-08 -1.56286e-06 7.79655e-09)
(-5.80505e-08 -1.33339e-06 6.91012e-09)
(-2.62074e-08 -1.00104e-06 5.73877e-09)
(-3.13581e-09 -4.83731e-07 3.08487e-09)
(2.06909e-09 -5.07029e-07 1.91089e-09)
(1.6734e-08 -1.04971e-06 3.5387e-09)
(3.67444e-08 -1.39739e-06 4.22959e-09)
(6.0244e-08 -1.6384e-06 4.73656e-09)
(8.45592e-08 -1.8122e-06 5.39128e-09)
(1.07894e-07 -1.9401e-06 6.39348e-09)
(1.28428e-07 -2.0354e-06 7.76229e-09)
(1.44151e-07 -2.10681e-06 9.5445e-09)
(1.53801e-07 -2.15929e-06 1.16432e-08)
(1.55335e-07 -2.19535e-06 1.3868e-08)
(1.46607e-07 -2.22007e-06 1.60695e-08)
(1.27737e-07 -2.23796e-06 1.83762e-08)
(9.96724e-08 -2.25031e-06 2.05164e-08)
(6.37923e-08 -2.25638e-06 2.21107e-08)
(2.28335e-08 -2.2586e-06 2.28392e-08)
(-2.0068e-08 -2.25646e-06 2.24659e-08)
(-6.15859e-08 -2.25175e-06 2.14471e-08)
(-9.75874e-08 -2.24583e-06 1.97076e-08)
(-1.2608e-07 -2.23664e-06 1.7524e-08)
(-1.45209e-07 -2.21859e-06 1.51481e-08)
(-1.5416e-07 -2.19292e-06 1.29138e-08)
(-1.53386e-07 -2.15599e-06 1.09632e-08)
(-1.44141e-07 -2.10471e-06 9.25422e-09)
(-1.28185e-07 -2.03515e-06 7.83464e-09)
(-1.07476e-07 -1.94077e-06 6.67862e-09)
(-8.39762e-08 -1.81303e-06 5.74507e-09)
(-5.96565e-08 -1.63922e-06 5.05748e-09)
(-3.63814e-08 -1.39814e-06 4.47337e-09)
(-1.64169e-08 -1.04986e-06 3.69144e-09)
(-1.98101e-09 -5.07698e-07 1.94071e-09)
(7.63705e-10 -5.19663e-07 6.04534e-10)
(5.86761e-09 -1.07459e-06 1.20442e-09)
(1.28172e-08 -1.43089e-06 1.51328e-09)
(2.11725e-08 -1.67804e-06 1.71702e-09)
(2.97644e-08 -1.85686e-06 1.98519e-09)
(3.80589e-08 -1.98898e-06 2.40455e-09)
(4.55715e-08 -2.08756e-06 2.9019e-09)
(5.13971e-08 -2.16154e-06 3.40522e-09)
(5.48985e-08 -2.21751e-06 4.05479e-09)
(5.54252e-08 -2.25883e-06 4.94453e-09)
(5.23051e-08 -2.28944e-06 5.87087e-09)
(4.57528e-08 -2.31197e-06 6.72756e-09)
(3.57396e-08 -2.32715e-06 7.38793e-09)
(2.29932e-08 -2.33578e-06 8.08505e-09)
(8.66072e-09 -2.33995e-06 8.41973e-09)
(-6.49826e-09 -2.33779e-06 8.15339e-09)
(-2.17085e-08 -2.33189e-06 7.81883e-09)
(-3.43936e-08 -2.32374e-06 7.18436e-09)
(-4.4248e-08 -2.31113e-06 6.28269e-09)
(-5.09704e-08 -2.28868e-06 5.39723e-09)
(-5.41148e-08 -2.25759e-06 4.5843e-09)
(-5.39667e-08 -2.21536e-06 3.87087e-09)
(-5.08666e-08 -2.15991e-06 3.20942e-09)
(-4.53595e-08 -2.08723e-06 2.67895e-09)
(-3.80588e-08 -1.98968e-06 2.29136e-09)
(-2.96658e-08 -1.85798e-06 1.97183e-09)
(-2.10048e-08 -1.67924e-06 1.72881e-09)
(-1.27588e-08 -1.43205e-06 1.5265e-09)
(-5.71579e-09 -1.07536e-06 1.29505e-09)
(-6.55712e-10 -5.20212e-07 6.93749e-10)
(-5.48203e-10 -5.20192e-07 -6.45108e-10)
(-5.08102e-09 -1.07553e-06 -1.16958e-09)
(-1.14171e-08 -1.43237e-06 -1.37348e-09)
(-1.86243e-08 -1.67976e-06 -1.54574e-09)
(-2.61729e-08 -1.85877e-06 -1.76625e-09)
(-3.34432e-08 -1.9912e-06 -2.0788e-09)
(-3.98624e-08 -2.09015e-06 -2.48546e-09)
(-4.4925e-08 -2.16443e-06 -2.99029e-09)
(-4.78786e-08 -2.2204e-06 -3.6264e-09)
(-4.80285e-08 -2.26138e-06 -4.33223e-09)
(-4.50236e-08 -2.29185e-06 -5.21429e-09)
(-3.91017e-08 -2.31435e-06 -6.18925e-09)
(-3.07779e-08 -2.32925e-06 -7.00144e-09)
(-2.00593e-08 -2.33816e-06 -7.31909e-09)
(-7.12079e-09 -2.34224e-06 -7.3472e-09)
(6.75629e-09 -2.33983e-06 -7.24551e-09)
(1.94707e-08 -2.33474e-06 -6.76143e-09)
(3.12374e-08 -2.32682e-06 -6.17136e-09)
(4.02351e-08 -2.3136e-06 -5.65656e-09)
(4.57348e-08 -2.291e-06 -4.84335e-09)
(4.86085e-08 -2.25994e-06 -3.98614e-09)
(4.85649e-08 -2.21756e-06 -3.18264e-09)
(4.58324e-08 -2.16194e-06 -2.6778e-09)
(4.08204e-08 -2.0889e-06 -2.36057e-09)
(3.41301e-08 -1.99098e-06 -2.03666e-09)
(2.66877e-08 -1.85899e-06 -1.78123e-09)
(1.89786e-08 -1.68002e-06 -1.56645e-09)
(1.1599e-08 -1.43271e-06 -1.35843e-09)
(5.28898e-09 -1.07587e-06 -1.05067e-09)
(6.83563e-10 -5.20501e-07 -5.28894e-10)
(-1.90453e-09 -5.08407e-07 -1.8827e-09)
(-1.58744e-08 -1.05147e-06 -3.56671e-09)
(-3.51748e-08 -1.4005e-06 -4.33511e-09)
(-5.75976e-08 -1.64217e-06 -4.91185e-09)
(-8.10462e-08 -1.81664e-06 -5.58558e-09)
(-1.03675e-07 -1.94543e-06 -6.48982e-09)
(-1.23513e-07 -2.04137e-06 -7.68306e-09)
(-1.38697e-07 -2.11278e-06 -9.239e-09)
(-1.47572e-07 -2.16542e-06 -1.11734e-08)
(-1.48567e-07 -2.20182e-06 -1.32021e-08)
(-1.40024e-07 -2.22705e-06 -1.54462e-08)
(-1.21879e-07 -2.24525e-06 -1.7819e-08)
(-9.53216e-08 -2.25768e-06 -1.98664e-08)
(-6.12373e-08 -2.26504e-06 -2.11728e-08)
(-2.1408e-08 -2.26792e-06 -2.16776e-08)
(2.04793e-08 -2.26487e-06 -2.1385e-08)
(6.00189e-08 -2.26109e-06 -2.04256e-08)
(9.53011e-08 -2.25575e-06 -1.8874e-08)
(1.22483e-07 -2.24473e-06 -1.71274e-08)
(1.40125e-07 -2.22585e-06 -1.48688e-08)
(1.49032e-07 -2.19977e-06 -1.27205e-08)
(1.48256e-07 -2.16248e-06 -1.06421e-08)
(1.39021e-07 -2.11025e-06 -8.85188e-09)
(1.23676e-07 -2.03956e-06 -7.35975e-09)
(1.03841e-07 -1.94467e-06 -6.14147e-09)
(8.1438e-08 -1.81663e-06 -5.23288e-09)
(5.80269e-08 -1.64246e-06 -4.54331e-09)
(3.55125e-08 -1.40109e-06 -4.00659e-09)
(1.61975e-08 -1.0522e-06 -3.29648e-09)
(2.04359e-09 -5.08625e-07 -1.78329e-09)
(-3.11449e-09 -4.85032e-07 -2.99734e-09)
(-2.57689e-08 -1.00392e-06 -5.60001e-09)
(-5.69709e-08 -1.33745e-06 -6.78695e-09)
(-9.32937e-08 -1.5678e-06 -7.66493e-09)
(-1.31148e-07 -1.73303e-06 -8.7193e-09)
(-1.6758e-07 -1.85375e-06 -1.01671e-08)
(-1.99594e-07 -1.94244e-06 -1.20957e-08)
(-2.24221e-07 -2.00685e-06 -1.45937e-08)
(-2.38569e-07 -2.05261e-06 -1.76344e-08)
(-2.40021e-07 -2.08248e-06 -2.0843e-08)
(-2.26262e-07 -2.10022e-06 -2.4143e-08)
(-1.96715e-07 -2.11057e-06 -2.73198e-08)
(-1.53218e-07 -2.11701e-06 -3.02505e-08)
(-9.80766e-08 -2.12043e-06 -3.24543e-08)
(-3.43378e-08 -2.12184e-06 -3.3573e-08)
(3.26539e-08 -2.11945e-06 -3.33049e-08)
(9.65293e-08 -2.11805e-06 -3.2035e-08)
(1.53231e-07 -2.11718e-06 -2.98583e-08)
(1.97169e-07 -2.1111e-06 -2.71806e-08)
(2.26189e-07 -2.0993e-06 -2.39102e-08)
(2.40403e-07 -2.08095e-06 -2.06732e-08)
(2.39401e-07 -2.05172e-06 -1.74922e-08)
(2.24904e-07 -2.00701e-06 -1.46559e-08)
(2.00194e-07 -1.94312e-06 -1.21585e-08)
(1.68022e-07 -1.85507e-06 -1.01544e-08)
(1.31416e-07 -1.73464e-06 -8.64063e-09)
(9.33895e-08 -1.56908e-06 -7.41687e-09)
(5.71468e-08 -1.33865e-06 -6.47222e-09)
(2.6077e-08 -1.00511e-06 -5.29709e-09)
(3.26307e-09 -4.84974e-07 -2.85469e-09)
(-4.14893e-09 -4.513e-07 -3.95748e-09)
(-3.42517e-08 -9.35461e-07 -7.38588e-09)
(-7.55893e-08 -1.24677e-06 -8.97986e-09)
(-1.23785e-07 -1.46127e-06 -1.01862e-08)
(-1.74039e-07 -1.6139e-06 -1.15941e-08)
(-2.2236e-07 -1.72338e-06 -1.35001e-08)
(-2.64687e-07 -1.80135e-06 -1.60028e-08)
(-2.96986e-07 -1.85536e-06 -1.90991e-08)
(-3.15494e-07 -1.89126e-06 -2.27677e-08)
(-3.16938e-07 -1.91286e-06 -2.67649e-08)
(-2.98708e-07 -1.92308e-06 -3.09902e-08)
(-2.59826e-07 -1.92526e-06 -3.49446e-08)
(-2.01798e-07 -1.92386e-06 -3.83944e-08)
(-1.28426e-07 -1.9221e-06 -4.11678e-08)
(-4.45352e-08 -1.92163e-06 -4.28303e-08)
(4.31766e-08 -1.92017e-06 -4.26974e-08)
(1.27018e-07 -1.92148e-06 -4.11392e-08)
(2.01658e-07 -1.92559e-06 -3.83575e-08)
(2.59957e-07 -1.92622e-06 -3.49128e-08)
(2.98477e-07 -1.92276e-06 -3.10426e-08)
(3.16851e-07 -1.91233e-06 -2.68495e-08)
(3.15929e-07 -1.89146e-06 -2.27262e-08)
(2.97537e-07 -1.85601e-06 -1.91984e-08)
(2.65243e-07 -1.80199e-06 -1.62026e-08)
(2.22865e-07 -1.72439e-06 -1.37907e-08)
(1.74513e-07 -1.61582e-06 -1.19048e-08)
(1.24171e-07 -1.46421e-06 -1.03527e-08)
(7.58008e-08 -1.25038e-06 -9.07418e-09)
(3.4296e-08 -9.38491e-07 -7.45305e-09)
(4.14558e-09 -4.51427e-07 -3.96399e-09)
(-4.8913e-09 -4.0919e-07 -4.80421e-09)
(-4.08878e-08 -8.50245e-07 -8.97589e-09)
(-9.0473e-08 -1.13366e-06 -1.08579e-08)
(-1.48245e-07 -1.32816e-06 -1.22718e-08)
(-2.08319e-07 -1.46501e-06 -1.38897e-08)
(-2.65897e-07 -1.5611e-06 -1.6038e-08)
(-3.16056e-07 -1.62699e-06 -1.87896e-08)
(-3.54035e-07 -1.66972e-06 -2.21854e-08)
(-3.75412e-07 -1.69485e-06 -2.62404e-08)
(-3.76468e-07 -1.70659e-06 -3.07512e-08)
(-3.54456e-07 -1.70854e-06 -3.55222e-08)
(-3.08337e-07 -1.70369e-06 -4.00277e-08)
(-2.39322e-07 -1.69532e-06 -4.37925e-08)
(-1.51754e-07 -1.6874e-06 -4.67098e-08)
(-5.23008e-08 -1.68367e-06 -4.8606e-08)
(5.11054e-08 -1.68259e-06 -4.85791e-08)
(1.50221e-07 -1.68694e-06 -4.69861e-08)
(2.38489e-07 -1.69657e-06 -4.40413e-08)
(3.07809e-07 -1.70442e-06 -4.00567e-08)
(3.54081e-07 -1.70894e-06 -3.55758e-08)
(3.7634e-07 -1.70688e-06 -3.07974e-08)
(3.7566e-07 -1.69534e-06 -2.62024e-08)
(3.54393e-07 -1.67041e-06 -2.21706e-08)
(3.16487e-07 -1.62775e-06 -1.87377e-08)
(2.66337e-07 -1.56211e-06 -1.6e-08)
(2.08766e-07 -1.46678e-06 -1.39456e-08)
(1.48746e-07 -1.33126e-06 -1.23332e-08)
(9.09341e-08 -1.13772e-06 -1.08835e-08)
(4.11697e-08 -8.53507e-07 -8.98383e-09)
(4.95263e-09 -4.0924e-07 -4.79244e-09)
(-5.44647e-09 -3.60476e-07 -5.43941e-09)
(-4.57237e-08 -7.51399e-07 -1.01576e-08)
(-1.01291e-07 -1.00281e-06 -1.22465e-08)
(-1.65833e-07 -1.17471e-06 -1.3732e-08)
(-2.32848e-07 -1.29424e-06 -1.53727e-08)
(-2.9695e-07 -1.37605e-06 -1.75648e-08)
(-3.52537e-07 -1.42946e-06 -2.04345e-08)
(-3.94305e-07 -1.46095e-06 -2.39984e-08)
(-4.17365e-07 -1.47565e-06 -2.82104e-08)
(-4.17714e-07 -1.47784e-06 -3.2872e-08)
(-3.92656e-07 -1.47148e-06 -3.77267e-08)
(-3.41246e-07 -1.46024e-06 -4.23483e-08)
(-2.64743e-07 -1.44702e-06 -4.63077e-08)
(-1.67687e-07 -1.43447e-06 -4.91868e-08)
(-5.77509e-08 -1.4274e-06 -5.08862e-08)
(5.62412e-08 -1.42646e-06 -5.07292e-08)
(1.65947e-07 -1.43333e-06 -4.91995e-08)
(2.63502e-07 -1.44679e-06 -4.63249e-08)
(3.40408e-07 -1.4602e-06 -4.22709e-08)
(3.92096e-07 -1.47168e-06 -3.77181e-08)
(4.17431e-07 -1.47812e-06 -3.28847e-08)
(4.17384e-07 -1.47613e-06 -2.8207e-08)
(3.94505e-07 -1.46158e-06 -2.40014e-08)
(3.52894e-07 -1.43021e-06 -2.04133e-08)
(2.9742e-07 -1.37694e-06 -1.75488e-08)
(2.3336e-07 -1.2954e-06 -1.54036e-08)
(1.66275e-07 -1.17656e-06 -1.38018e-08)
(1.01549e-07 -1.00545e-06 -1.2317e-08)
(4.58268e-08 -7.53815e-07 -1.02e-08)
(5.42098e-09 -3.60547e-07 -5.44552e-09)
(-5.77486e-09 -3.07546e-07 -5.77476e-09)
(-4.86168e-08 -6.43364e-07 -1.07271e-08)
(-1.07839e-07 -8.60359e-07 -1.29009e-08)
(-1.76468e-07 -1.00822e-06 -1.44479e-08)
(-2.4765e-07 -1.10966e-06 -1.61408e-08)
(-3.15598e-07 -1.17706e-06 -1.83476e-08)
(-3.74303e-07 -1.21845e-06 -2.12021e-08)
(-4.18101e-07 -1.23963e-06 -2.47247e-08)
(-4.41833e-07 -1.2453e-06 -2.8852e-08)
(-4.41375e-07 -1.2396e-06 -3.33876e-08)
(-4.14096e-07 -1.22649e-06 -3.80466e-08)
(-3.59263e-07 -1.2098e-06 -4.24669e-08)
(-2.78459e-07 -1.1926e-06 -4.63289e-08)
(-1.76356e-07 -1.17751e-06 -4.90589e-08)
(-6.07291e-08 -1.16867e-06 -5.05605e-08)
(5.90622e-08 -1.16819e-06 -5.04498e-08)
(1.74572e-07 -1.17686e-06 -4.91091e-08)
(2.7704e-07 -1.19256e-06 -4.636e-08)
(3.58278e-07 -1.20993e-06 -4.24659e-08)
(4.13419e-07 -1.22675e-06 -3.80896e-08)
(4.40983e-07 -1.23993e-06 -3.34321e-08)
(4.41709e-07 -1.24576e-06 -2.88845e-08)
(4.18173e-07 -1.24022e-06 -2.47551e-08)
(3.74531e-07 -1.21918e-06 -2.1221e-08)
(3.15931e-07 -1.17793e-06 -1.83694e-08)
(2.48029e-07 -1.11069e-06 -1.61916e-08)
(1.76759e-07 -1.00954e-06 -1.45898e-08)
(1.07936e-07 -8.62149e-07 -1.3142e-08)
(4.86164e-08 -6.45271e-07 -1.09467e-08)
(5.71099e-09 -3.07558e-07 -5.83848e-09)
(-5.87845e-09 -2.5252e-07 -5.90027e-09)
(-4.95699e-08 -5.31018e-07 -1.09589e-08)
(-1.10025e-07 -7.1239e-07 -1.31522e-08)
(-1.80155e-07 -8.35554e-07 -1.46825e-08)
(-2.52934e-07 -9.18801e-07 -1.63314e-08)
(-3.22349e-07 -9.72269e-07 -1.84497e-08)
(-3.82168e-07 -1.00269e-06 -2.11608e-08)
(-4.26543e-07 -1.0151e-06 -2.44905e-08)
(-4.50229e-07 -1.01373e-06 -2.83675e-08)
(-4.49103e-07 -1.00242e-06 -3.2592e-08)
(-4.20615e-07 -9.84935e-07 -3.68944e-08)
(-3.64204e-07 -9.64854e-07 -4.10095e-08)
(-2.81905e-07 -9.45233e-07 -4.45727e-08)
(-1.78663e-07 -9.29275e-07 -4.70747e-08)
(-6.16564e-08 -9.20119e-07 -4.83906e-08)
(5.97897e-08 -9.19865e-07 -4.83414e-08)
(1.76693e-07 -9.28882e-07 -4.7127e-08)
(2.80424e-07 -9.4532e-07 -4.45554e-08)
(3.63253e-07 -9.64974e-07 -4.09825e-08)
(4.19922e-07 -9.85093e-07 -3.6938e-08)
(4.4863e-07 -1.00265e-06 -3.26473e-08)
(4.5e-07 -1.01408e-06 -2.84139e-08)
(4.26516e-07 -1.01558e-06 -2.45327e-08)
(3.8229e-07 -1.00329e-06 -2.11918e-08)
(3.22563e-07 -9.72971e-07 -1.84787e-08)
(2.53198e-07 -9.19609e-07 -1.63712e-08)
(1.80379e-07 -8.36482e-07 -1.47734e-08)
(1.10143e-07 -7.13529e-07 -1.33308e-08)
(4.95959e-08 -5.32377e-07 -1.1129e-08)
(5.84891e-09 -2.52478e-07 -5.94275e-09)
(-5.79093e-09 -1.97322e-07 -5.75317e-09)
(-4.867e-08 -4.18667e-07 -1.07137e-08)
(-1.08074e-07 -5.6431e-07 -1.28864e-08)
(-1.77278e-07 -6.62966e-07 -1.43618e-08)
(-2.49301e-07 -7.28574e-07 -1.5911e-08)
(-3.18093e-07 -7.69071e-07 -1.78731e-08)
(-3.77356e-07 -7.89937e-07 -2.03768e-08)
(-4.21186e-07 -7.95405e-07 -2.34389e-08)
(-4.44371e-07 -7.89168e-07 -2.69863e-08)
(-4.42853e-07 -7.74652e-07 -3.08282e-08)
(-4.14175e-07 -7.5522e-07 -3.47394e-08)
(-3.58013e-07 -7.34025e-07 -3.84894e-08)
(-2.76871e-07 -7.14199e-07 -4.16736e-08)
(-1.75579e-07 -6.98907e-07 -4.39081e-08)
(-6.06794e-08 -6.90404e-07 -4.50797e-08)
(5.88181e-08 -6.90069e-07 -4.5045e-08)
(1.73513e-07 -6.98386e-07 -4.39005e-08)
(2.75347e-07 -7.14137e-07 -4.16058e-08)
(3.57028e-07 -7.34016e-07 -3.84151e-08)
(4.1342e-07 -7.55268e-07 -3.47498e-08)
(4.42291e-07 -7.74803e-07 -3.08778e-08)
(4.44051e-07 -7.89438e-07 -2.70315e-08)
(4.21083e-07 -7.9578e-07 -2.34798e-08)
(3.77403e-07 -7.90393e-07 -2.0406e-08)
(3.18236e-07 -7.69605e-07 -1.78987e-08)
(2.49506e-07 -7.2918e-07 -1.59368e-08)
(1.77484e-07 -6.6364e-07 -1.44022e-08)
(1.08229e-07 -5.65064e-07 -1.29707e-08)
(4.86862e-08 -4.19553e-07 -1.08359e-08)
(5.75425e-09 -1.97392e-07 -5.79558e-09)
(-5.45263e-09 -1.44241e-07 -5.35876e-09)
(-4.58163e-08 -3.10621e-07 -1.00284e-08)
(-1.02065e-07 -4.21688e-07 -1.20693e-08)
(-1.68098e-07 -4.96724e-07 -1.34005e-08)
(-2.37258e-07 -5.45626e-07 -1.47877e-08)
(-3.03635e-07 -5.74333e-07 -1.6543e-08)
(-3.60982e-07 -5.87145e-07 -1.88005e-08)
(-4.03427e-07 -5.87502e-07 -2.15531e-08)
(-4.25877e-07 -5.78468e-07 -2.47392e-08)
(-4.24411e-07 -5.62951e-07 -2.81764e-08)
(-3.96648e-07 -5.4376e-07 -3.17097e-08)
(-3.42505e-07 -5.2361e-07 -3.50575e-08)
(-2.64778e-07 -5.05396e-07 -3.7888e-08)
(-1.67884e-07 -4.91594e-07 -3.98902e-08)
(-5.80666e-08 -4.84112e-07 -4.09763e-08)
(5.62495e-08 -4.83792e-07 -4.09392e-08)