/*--------------------------------*- C++ -*----------------------------------*\
| =========                 |                                                 |
| \\      /  F ield         | OpenFOAM: The Open Source CFD Toolbox           |
|  \\    /   O peration     | Version:  v1906                                 |
|   \\  /    A nd           | Web:      www.OpenFOAM.com                      |
|    \\/     M anipulation  |                                                 |
\*---------------------------------------------------------------------------*/
FoamFile
{
    version     2.0;
    format      ascii;
    class       volScalarField;
    location    "54";
    object      T;
}
// * * * * * * * * * * * * * * * * * * * * * * * * * * * * * * * * * * * * * //

dimensions      [0 0 0 1 0 0 0];


internalField   nonuniform List<scalar> 
78750
(
300.04
300.116
300.186
300.248
300.302
300.348
300.388
300.421
300.449
300.472
300.49
300.505
300.515
300.521
300.523
300.522
300.516
300.505
300.49
300.47
300.446
300.418
300.387
300.353
300.32
300.289
300.264
300.248
300.249
300.282
300.375
300.577
300.961
301.584
302.41
300.051
300.147
300.233
300.31
300.379
300.441
300.496
300.544
300.587
300.624
300.655
300.68
300.699
300.713
300.721
300.722
300.717
300.704
300.685
300.659
300.626
300.587
300.543
300.496
300.448
300.404
300.367
300.345
300.349
300.399
300.529
300.787
301.225
301.867
302.683
300.056
300.161
300.255
300.337
300.411
300.477
300.536
300.59
300.637
300.68
300.718
300.751
300.78
300.804
300.823
300.837
300.845
300.846
300.841
300.828
300.806
300.777
300.739
300.695
300.645
300.594
300.547
300.515
300.514
300.571
300.723
301.018
301.49
302.148
302.969
300.062
300.182
300.292
300.387
300.469
300.539
300.602
300.659
300.709
300.753
300.792
300.827
300.857
300.883
300.905
300.922
300.935
300.943
300.947
300.944
300.935
300.918
300.893
300.86
300.821
300.777
300.733
300.699
300.692
300.741
300.892
301.196
301.682
302.351
303.182
300.072
300.21
300.336
300.445
300.537
300.614
300.681
300.74
300.793
300.839
300.881
300.917
300.948
300.975
300.997
301.016
301.03
301.041
301.046
301.046
301.041
301.029
301.009
300.983
300.949
300.912
300.875
300.847
300.845
300.899
301.058
301.375
301.868
302.542
303.382
300.077
300.225
300.36
300.478
300.577
300.659
300.728
300.789
300.843
300.891
300.934
300.971
301.004
301.032
301.056
301.077
301.093
301.106
301.113
301.116
301.114
301.105
301.09
301.069
301.042
301.011
300.98
300.959
300.965
301.028
301.198
301.525
302.022
302.697
303.544
300.084
300.247
300.395
300.524
300.631
300.717
300.789
300.852
300.908
300.957
301.001
301.039
301.073
301.102
301.127
301.148
301.164
301.176
301.183
301.185
301.182
301.173
301.159
301.139
301.114
301.088
301.063
301.051
301.069
301.147
301.335
301.676
302.177
302.852
303.704
300.09
300.263
300.42
300.556
300.668
300.757
300.831
300.895
300.952
301.002
301.047
301.086
301.121
301.152
301.178
301.2
301.218
301.23
301.237
301.239
301.236
301.227
301.213
301.195
301.173
301.15
301.132
301.128
301.158
301.253
301.457
301.812
302.318
302.993
303.849
300.095
300.278
300.444
300.588
300.705
300.799
300.875
300.94
300.999
301.051
301.096
301.137
301.174
301.206
301.234
301.257
301.274
301.286
301.292
301.293
301.288
301.278
301.264
301.245
301.225
301.205
301.193
301.198
301.241
301.353
301.576
301.944
302.454
303.133
303.991
300.1
300.291
300.465
300.615
300.736
300.832
300.911
300.978
301.037
301.09
301.138
301.18
301.219
301.253
301.282
301.306
301.323
301.335
301.341
301.341
301.336
301.325
301.31
301.292
301.273
301.256
301.249
301.262
301.317
301.444
301.684
302.064
302.58
303.262
304.122
300.104
300.304
300.484
300.64
300.766
300.865
300.946
301.015
301.076
301.13
301.18
301.225
301.265
301.301
301.331
301.355
301.373
301.385
301.39
301.389
301.383
301.371
301.355
301.337
301.319
301.304
301.302
301.323
301.389
301.531
301.787
302.178
302.699
303.386
304.248
300.108
300.315
300.503
300.664
300.793
300.895
300.978
301.049
301.112
301.168
301.22
301.266
301.308
301.345
301.376
301.401
301.419
301.431
301.436
301.435
301.428
301.416
301.4
301.381
301.363
301.351
301.353
301.381
301.458
301.613
301.883
302.284
302.811
303.502
304.366
300.112
300.326
300.52
300.687
300.82
300.924
301.009
301.082
301.147
301.205
301.258
301.307
301.35
301.388
301.42
301.446
301.465
301.477
301.482
301.48
301.472
301.459
301.443
301.424
301.407
301.397
301.403
301.438
301.524
301.693
301.976
302.385
302.918
303.614
304.478
300.116
300.338
300.538
300.709
300.846
300.952
301.039
301.114
301.18
301.241
301.296
301.345
301.39
301.429
301.462
301.489
301.508
301.52
301.525
301.524
301.516
301.502
301.485
301.467
301.45
301.442
301.451
301.493
301.589
301.769
302.064
302.481
303.019
303.719
304.585
300.119
300.348
300.554
300.73
300.87
300.979
301.068
301.145
301.213
301.275
301.332
301.383
301.429
301.47
301.504
301.531
301.55
301.563
301.568
301.566
301.558
301.544
301.527
301.508
301.493
301.487
301.5
301.548
301.653
301.844
302.15
302.574
303.115
303.82
304.686
300.123
300.359
300.571
300.752
300.894
301.006
301.096
301.175
301.245
301.308
301.367
301.42
301.467
301.509
301.543
301.571
301.591
301.604
301.609
301.607
301.599
301.585
301.568
301.55
301.535
301.531
301.548
301.602
301.715
301.917
302.233
302.662
303.208
303.916
304.782
300.127
300.369
300.587
300.772
300.917
301.031
301.123
301.203
301.275
301.34
301.4
301.455
301.504
301.546
301.582
301.61
301.631
301.644
301.649
301.648
301.639
301.625
301.608
301.591
301.577
301.575
301.596
301.655
301.777
301.989
302.314
302.748
303.296
304.007
304.874
300.13
300.379
300.603
300.792
300.94
301.055
301.15
301.231
301.305
301.372
301.433
301.489
301.539
301.583
301.619
301.648
301.67
301.683
301.689
301.687
301.679
301.665
301.648
301.631
301.619
301.619
301.644
301.709
301.838
302.059
302.392
302.831
303.381
304.095
304.961
300.134
300.389
300.618
300.811
300.962
301.079
301.175
301.258
301.333
301.402
301.465
301.522
301.573
301.618
301.655
301.685
301.707
301.721
301.727
301.726
301.718
301.705
301.688
301.672
301.661
301.663
301.691
301.762
301.899
302.128
302.468
302.91
303.462
304.178
305.044
300.137
300.398
300.633
300.829
300.983
301.102
301.199
301.284
301.361
301.431
301.496
301.554
301.607
301.652
301.691
301.721
301.744
301.758
301.765
301.764
301.757
301.744
301.728
301.712
301.703
301.707
301.739
301.815
301.958
302.195
302.542
302.987
303.54
304.258
305.124
300.14
300.408
300.647
300.847
301.003
301.124
301.223
301.309
301.388
301.459
301.525
301.585
301.639
301.685
301.725
301.756
301.779
301.795
301.802
301.802
301.795
301.783
301.767
301.753
301.744
301.751
301.786
301.867
302.017
302.261
302.614
303.061
303.616
304.335
305.2
300.143
300.417
300.661
300.865
301.023
301.145
301.246
301.334
301.414
301.487
301.554
301.616
301.67
301.718
301.758
301.79
301.814
301.83
301.838
301.839
301.833
301.821
301.807
301.793
301.786
301.795
301.833
301.919
302.075
302.326
302.684
303.133
303.688
304.409
305.273
300.147
300.426
300.675
300.882
301.042
301.166
301.268
301.358
301.439
301.514
301.582
301.645
301.701
301.749
301.79
301.823
301.848
301.865
301.874
301.875
301.87
301.86
301.846
301.833
301.827
301.839
301.88
301.97
302.132
302.389
302.752
303.202
303.758
304.48
305.344
300.15
300.434
300.688
300.899
301.061
301.187
301.29
301.381
301.464
301.54
301.61
301.674
301.731
301.78
301.822
301.856
301.882
301.899
301.909
301.911
301.907
301.897
301.885
301.873
301.869
301.882
301.927
302.022
302.189
302.451
302.818
303.269
303.825
304.548
305.412
300.153
300.443
300.701
300.915
301.08
301.207
301.312
301.404
301.488
301.566
301.637
301.702
301.76
301.81
301.853
301.888
301.914
301.933
301.943
301.947
301.943
301.935
301.923
301.913
301.911
301.926
301.974
302.072
302.245
302.512
302.883
303.334
303.89
304.614
305.477
300.156
300.451
300.714
300.931
301.098
301.226
301.333
301.427
301.512
301.591
301.664
301.73
301.789
301.84
301.884
301.919
301.946
301.966
301.977
301.982
301.979
301.972
301.962
301.953
301.952
301.969
302.02
302.123
302.3
302.572
302.946
303.398
303.953
304.678
305.541
300.158
300.46
300.727
300.947
301.116
301.246
301.354
301.449
301.536
301.616
301.69
301.757
301.817
301.87
301.914
301.95
301.978
301.998
302.011
302.016
302.015
302.009
302
301.992
301.993
302.013
302.066
302.173
302.354
302.63
303.007
303.46
304.015
304.74
305.603
300.161
300.468
300.74
300.963
301.134
301.265
301.375
301.471
301.56
301.641
301.716
301.784
301.845
301.899
301.944
301.981
302.01
302.03
302.044
302.05
302.05
302.045
302.038
302.032
302.034
302.056
302.112
302.222
302.408
302.688
303.068
303.52
304.075
304.801
305.663
300.164
300.476
300.752
300.979
301.151
301.284
301.395
301.493
301.583
301.666
301.742
301.812
301.873
301.928
301.973
302.011
302.041
302.062
302.076
302.084
302.085
302.081
302.075
302.071
302.075
302.099
302.158
302.272
302.461
302.745
303.127
303.579
304.134
304.86
305.721
300.167
300.484
300.765
300.995
301.169
301.304
301.416
301.516
301.607
301.691
301.768
301.839
301.901
301.956
302.003
302.041
302.071
302.094
302.109
302.117
302.119
302.117
302.112
302.109
302.116
302.142
302.204
302.32
302.514
302.801
303.185
303.637
304.191
304.917
305.779
300.17
300.492
300.777
301.011
301.187
301.323
301.437
301.538
301.63
301.716
301.794
301.866
301.929
301.985
302.032
302.071
302.102
302.125
302.141
302.15
302.153
302.152
302.149
302.148
302.156
302.185
302.249
302.369
302.566
302.857
303.243
303.694
304.247
304.973
305.834
300.173
300.5
300.79
301.026
301.205
301.342
301.457
301.56
301.654
301.741
301.82
301.893
301.957
302.014
302.062
302.101
302.132
302.156
302.173
302.183
302.187
302.187
302.186
302.186
302.196
302.227
302.294
302.417
302.617
302.911
303.299
303.75
304.302
305.028
305.889
300.176
300.509
300.803
301.042
301.222
301.361
301.478
301.582
301.677
301.765
301.846
301.92
301.985
302.042
302.091
302.131
302.163
302.187
302.204
302.215
302.221
302.222
302.222
302.224
302.236
302.269
302.339
302.465
302.668
302.965
303.354
303.805
304.356
305.082
305.942
300.178
300.517
300.816
301.058
301.24
301.381
301.499
301.604
301.701
301.79
301.872
301.947
302.013
302.071
302.12
302.161
302.193
302.218
302.236
302.248
302.254
302.257
302.258
302.262
302.276
302.311
302.383
302.512
302.718
303.018
303.408
303.858
304.409
305.135
305.995
300.181
300.525
300.828
301.074
301.258
301.4
301.519
301.626
301.725
301.815
301.898
301.974
302.041
302.099
302.149
302.19
302.223
302.249
302.267
302.28
302.287
302.291
302.294
302.3
302.316
302.353
302.428
302.559
302.768
303.071
303.462
303.911
304.461
305.186
306.046
300.184
300.534
300.841
301.089
301.275
301.419
301.54
301.649
301.748
301.84
301.924
302.001
302.069
302.128
302.178
302.22
302.253
302.279
302.299
302.312
302.32
302.326
302.33
302.337
302.355
302.395
302.472
302.606
302.818
303.122
303.515
303.963
304.512
305.237
306.097
300.187
300.542
300.854
301.105
301.293
301.438
301.561
301.671
301.772
301.865
301.95
302.028
302.097
302.156
302.207
302.249
302.283
302.31
302.33
302.344
302.353
302.36
302.365
302.375
302.394
302.436
302.515
302.652
302.867
303.174
303.567
304.015
304.562
305.288
306.147
300.19
300.55
300.866
301.121
301.31
301.457
301.581
301.693
301.795
301.89
301.976
302.055
302.124
302.185
302.236
302.279
302.313
302.341
302.361
302.376
302.386
302.394
302.401
302.412
302.434
302.477
302.559
302.698
302.915
303.224
303.618
304.066
304.612
305.337
306.197
300.193
300.558
300.879
301.136
301.327
301.476
301.601
301.715
301.819
301.914
302.002
302.082
302.152
302.213
302.265
302.309
302.344
302.371
302.392
302.408
302.419
302.428
302.436
302.449
302.473
302.519
302.603
302.744
302.964
303.275
303.67
304.116
304.661
305.386
306.246
300.196
300.566
300.891
301.152
301.345
301.494
301.622
301.736
301.842
301.939
302.028
302.109
302.18
302.242
302.294
302.338
302.373
302.402
302.423
302.44
302.452
302.462
302.472
302.486
302.512
302.56
302.646
302.79
303.012
303.325
303.72
304.166
304.71
305.435
306.295
300.199
300.575
300.904
301.167
301.362
301.513
301.642
301.758
301.865
301.964
302.054
302.136
302.208
302.27
302.323
302.367
302.403
302.432
302.454
302.471
302.485
302.496
302.507
302.523
302.551
302.601
302.69
302.836
303.061
303.375
303.771
304.215
304.759
305.484
306.344
300.202
300.583
300.916
301.182
301.379
301.532
301.662
301.78
301.889
301.989
302.08
302.163
302.235
302.299
302.352
302.397
302.433
302.462
302.485
302.503
302.517
302.529
302.542
302.56
302.59
302.642
302.734
302.883
303.109
303.425
303.821
304.265
304.807
305.533
306.393
300.204
300.591
300.929
301.197
301.396
301.55
301.682
301.802
301.912
302.013
302.106
302.19
302.263
302.327
302.381
302.426
302.463
302.493
302.516
302.535
302.55
302.563
302.577
302.597
302.629
302.684
302.777
302.929
303.158
303.476
303.872
304.314
304.856
305.581
306.442
300.207
300.599
300.941
301.213
301.413
301.569
301.703
301.824
301.935
302.038
302.132
302.217
302.291
302.356
302.41
302.456
302.493
302.523
302.547
302.566
302.582
302.597
302.613
302.634
302.668
302.725
302.822
302.976
303.207
303.526
303.922
304.363
304.904
305.63
306.491
300.21
300.607
300.953
301.228
301.43
301.587
301.723
301.845
301.959
302.063
302.158
302.244
302.319
302.384
302.439
302.485
302.523
302.553
302.578
302.598
302.615
302.631
302.648
302.671
302.707
302.767
302.866
303.023
303.256
303.577
303.973
304.413
304.953
305.679
306.541
300.213
300.615
300.966
301.243
301.447
301.606
301.743
301.867
301.982
302.088
302.184
302.271
302.347
302.412
302.468
302.514
302.552
302.584
302.609
302.629
302.647
302.664
302.683
302.708
302.746
302.809
302.91
303.07
303.306
303.628
304.024
304.463
305.001
305.728
306.59
300.216
300.623
300.978
301.258
301.463
301.624
301.763
301.889
302.005
302.113
302.21
302.298
302.375
302.441
302.497
302.544
302.582
302.614
302.639
302.661
302.68
302.698
302.718
302.745
302.786
302.851
302.955
303.117
303.356
303.68
304.075
304.513
305.05
305.777
306.64
300.219
300.631
300.99
301.273
301.48
301.643
301.783
301.911
302.029
302.137
302.236
302.325
302.402
302.469
302.526
302.573
302.612
302.644
302.67
302.692
302.712
302.731
302.753
302.782
302.825
302.893
303
303.165
303.406
303.731
304.127
304.563
305.099
305.826
306.69
300.221
300.639
301.002
301.287
301.497
301.661
301.803
301.933
302.052
302.162
302.263
302.352
302.43
302.498
302.555
302.602
302.641
302.674
302.701
302.724
302.744
302.765
302.788
302.819
302.865
302.935
303.046
303.214
303.457
303.784
304.179
304.613
305.149
305.876
306.74
300.224
300.647
301.014
301.302
301.514
301.679
301.823
301.954
302.076
302.187
302.289
302.379
302.458
302.526
302.583
302.631
302.671
302.704
302.731
302.755
302.777
302.798
302.823
302.856
302.904
302.978
303.092
303.263
303.509
303.837
304.231
304.664
305.199
305.926
306.791
300.227
300.655
301.026
301.317
301.53
301.698
301.843
301.976
302.099
302.212
302.315
302.406
302.486
302.554
302.612
302.66
302.7
302.733
302.762
302.786
302.809
302.832
302.859
302.894
302.944
303.021
303.138
303.312
303.561
303.89
304.284
304.715
305.249
305.976
306.842
300.23
300.663
301.038
301.332
301.547
301.716
301.864
301.998
302.123
302.238
302.342
302.434
302.514
302.583
302.641
302.689
302.73
302.763
302.792
302.817
302.841
302.865
302.894
302.931
302.984
303.064
303.184
303.362
303.613
303.944
304.337
304.767
305.299
306.027
306.893
300.232
300.67
301.05
301.347
301.564
301.735
301.884
302.02
302.147
302.263
302.368
302.461
302.542
302.611
302.67
302.718
302.759
302.793
302.822
302.848
302.873
302.898
302.929
302.968
303.024
303.107
303.231
303.412
303.666
303.998
304.39
304.818
305.35
306.077
306.943
300.235
300.678
301.063
301.362
301.58
301.753
301.904
302.042
302.171
302.288
302.394
302.489
302.57
302.64
302.698
302.747
302.788
302.822
302.852
302.879
302.904
302.932
302.964
303.005
303.064
303.15
303.278
303.462
303.719
304.052
304.444
304.87
305.4
306.128
306.994
300.238
300.686
301.075
301.377
301.597
301.772
301.924
302.065
302.195
302.314
302.421
302.516
302.598
302.668
302.727
302.776
302.817
302.852
302.882
302.91
302.936
302.965
302.998
303.043
303.104
303.194
303.325
303.513
303.772
304.107
304.497
304.921
305.451
306.178
307.044
300.241
300.694
301.087
301.391
301.614
301.79
301.945
302.087
302.219
302.339
302.448
302.544
302.626
302.697
302.756
302.805
302.846
302.881
302.912
302.94
302.968
302.998
303.033
303.08
303.144
303.237
303.371
303.563
303.825
304.161
304.55
304.972
305.501
306.228
307.095
300.244
300.702
301.099
301.406
301.631
301.809
301.966
302.11
302.243
302.365
302.475
302.571
302.654
302.725
302.784
302.834
302.875
302.911
302.942
302.971
302.999
303.03
303.068
303.116
303.184
303.28
303.418
303.613
303.878
304.215
304.603
305.023
305.551
306.278
307.144
300.246
300.71
301.111
301.422
301.648
301.828
301.987
302.132
302.268
302.391
302.502
302.599
302.683
302.753
302.813
302.862
302.904
302.94
302.971
303.001
303.031
303.063
303.102
303.153
303.223
303.323
303.465
303.663
303.931
304.269
304.655
305.074
305.6
306.327
307.193
300.249
300.718
301.124
301.437
301.665
301.847
302.008
302.156
302.292
302.418
302.529
302.627
302.711
302.782
302.841
302.891
302.933
302.969
303.001
303.031
303.062
303.096
303.137
303.19
303.263
303.366
303.511
303.713
303.984
304.322
304.707
305.124
305.649
306.376
307.242
300.252
300.726
301.136
301.452
301.683
301.867
302.029
302.179
302.318
302.444
302.557
302.655
302.74
302.811
302.87
302.92
302.962
302.998
303.031
303.062
303.093
303.128
303.171
303.227
303.302
303.408
303.557
303.763
304.036
304.375
304.759
305.174
305.698
306.424
307.29
300.255
300.735
301.149
301.468
301.701
301.886
302.051
302.203
302.343
302.471
302.585
302.684
302.768
302.839
302.899
302.948
302.991
303.027
303.06
303.092
303.124
303.161
303.205
303.263
303.342
303.451
303.603
303.812
304.088
304.428
304.81
305.223
305.746
306.472
307.338
300.258
300.743
301.162
301.484
301.719
301.906
302.073
302.227
302.369
302.498
302.613
302.713
302.797
302.868
302.928
302.977
303.019
303.056
303.089
303.122
303.155
303.193
303.24
303.3
303.381
303.494
303.649
303.862
304.14
304.48
304.86
305.272
305.794
306.52
307.385
300.261
300.751
301.175
301.5
301.737
301.927
302.095
302.251
302.395
302.526
302.642
302.742
302.826
302.897
302.956
303.006
303.048
303.085
303.119
303.152
303.186
303.225
303.274
303.336
303.42
303.536
303.695
303.911
304.191
304.532
304.91
305.32
305.842
306.566
307.431
300.264
300.76
301.188
301.516
301.755
301.947
302.118
302.276
302.422
302.554
302.671
302.771
302.856
302.926
302.985
303.035
303.077
303.114
303.148
303.181
303.217
303.258
303.308
303.372
303.459
303.578
303.741
303.96
304.242
304.583
304.96
305.368
305.889
306.613
307.477
300.267
300.769
301.202
301.533
301.774
301.968
302.142
302.302
302.45
302.583
302.7
302.801
302.885
302.956
303.014
303.064
303.106
303.143
303.177
303.211
303.248
303.29
303.341
303.408
303.498
303.62
303.786
304.008
304.293
304.634
305.008
305.415
305.935
306.658
307.523
300.27
300.778
301.216
301.55
301.794
301.99
302.165
302.328
302.477
302.612
302.73
302.831
302.915
302.985
303.044
303.093
303.134
303.172
303.206
303.241
303.278
303.322
303.375
303.444
303.537
303.662
303.832
304.056
304.343
304.684
305.057
305.461
305.981
306.703
307.567
300.273
300.787
301.23
301.568
301.814
302.012
302.19
302.354
302.506
302.642
302.76
302.861
302.946
303.015
303.073
303.122
303.163
303.2
303.235
303.27
303.309
303.353
303.408
303.48
303.575
303.704
303.876
304.104
304.392
304.734
305.104
305.507
306.026
306.748
307.611
300.277
300.797
301.244
301.585
301.834
302.035
302.215
302.381
302.535
302.672
302.791
302.892
302.976
303.045
303.103
303.151
303.192
303.229
303.264
303.3
303.339
303.385
303.442
303.515
303.613
303.745
303.921
304.152
304.442
304.783
305.151
305.552
306.07
306.791
307.653
300.28
300.806
301.259
301.603
301.854
302.057
302.24
302.409
302.564
302.703
302.822
302.923
303.007
303.076
303.133
303.18
303.221
303.258
303.293
303.33
303.369
303.416
303.475
303.55
303.651
303.786
303.965
304.198
304.49
304.83
305.197
305.596
306.113
306.834
307.695
300.283
300.816
301.274
301.622
301.875
302.081
302.266
302.437
302.594
302.734
302.854
302.955
303.038
303.106
303.163
303.21
303.25
303.287
303.323
303.359
303.4
303.448
303.508
303.585
303.689
303.826
304.008
304.244
304.537
304.878
305.242
305.64
306.156
306.875
307.735
300.287
300.826
301.29
301.641
301.897
302.105
302.292
302.466
302.625
302.766
302.886
302.987
303.07
303.137
303.193
303.239
303.28
303.316
303.352
303.388
303.43
303.479
303.54
303.62
303.726
303.866
304.051
304.29
304.584
304.924
305.286
305.682
306.197
306.915
307.774
300.29
300.837
301.305
301.66
301.918
302.129
302.319
302.495
302.656
302.798
302.919
303.019
303.101
303.168
303.223
303.269
303.309
303.345
303.381
303.418
303.46
303.51
303.573
303.654
303.762
303.905
304.093
304.334
304.63
304.969
305.329
305.724
306.238
306.955
307.813
300.294
300.847
301.321
301.679
301.94
302.153
302.346
302.525
302.688
302.831
302.952
303.052
303.133
303.2
303.254
303.299
303.338
303.375
303.41
303.447
303.49
303.541
303.605
303.688
303.798
303.944
304.135
304.378
304.674
305.012
305.371
305.764
306.277
306.992
307.849
300.298
300.857
301.337
301.699
301.963
302.178
302.374
302.556
302.72
302.864
302.985
303.085
303.166
303.231
303.285
303.329
303.368
303.404
303.439
303.477
303.52
303.572
303.637
303.722
303.834
303.982
304.176
304.421
304.718
305.055
305.412
305.803
306.315
307.029
307.885
300.301
300.868
301.353
301.719
301.985
302.204
302.402
302.586
302.753
302.897
303.019
303.118
303.198
303.263
303.316
303.359
303.398
303.433
303.469
303.506
303.55
303.602
303.669
303.756
303.87
304.02
304.215
304.462
304.76
305.097
305.451
305.84
306.351
307.064
307.919
300.305
300.879
301.37
301.739
302.009
302.23
302.431
302.618
302.786
302.932
303.053
303.152
303.231
303.295
303.347
303.39
303.428
303.463
303.498
303.536
303.58
303.633
303.701
303.789
303.905
304.057
304.255
304.503
304.802
305.137
305.489
305.877
306.387
307.099
307.952
300.309
300.89
301.387
301.76
302.032
302.256
302.461
302.65
302.82
302.967
303.088
303.186
303.265
303.327
303.378
303.421
303.458
303.493
303.528
303.566
303.61
303.664
303.733
303.822
303.94
304.094
304.293
304.543
304.842
305.176
305.526
305.912
306.421
307.132
307.984
300.313
300.901
301.404
301.781
302.056
302.284
302.492
302.684
302.855
303.002
303.123
303.221
303.298
303.36
303.41
303.451
303.488
303.523
303.557
303.595
303.64
303.695
303.764
303.855
303.974
304.13
304.332
304.583
304.881
305.214
305.562
305.947
306.454
307.164
308.015
300.317
300.913
301.422
301.803
302.081
302.312
302.523
302.718
302.891
303.039
303.16
303.256
303.332
303.393
303.442
303.483
303.519
303.553
303.587
303.625
303.67
303.725
303.796
303.888
304.008
304.166
304.369
304.621
304.92
305.251
305.597
305.98
306.486
307.195
308.045
300.321
300.924
301.44
301.825
302.107
302.341
302.556
302.753
302.928
303.076
303.197
303.292
303.367
303.426
303.474
303.514
303.549
303.583
303.617
303.655
303.7
303.756
303.827
303.921
304.043
304.202
304.406
304.659
304.957
305.287
305.631
306.012
306.518
307.225
308.075
300.325
300.937
301.459
301.849
302.134
302.372
302.59
302.79
302.967
303.115
303.235
303.329
303.402
303.46
303.507
303.546
303.58
303.613
303.647
303.686
303.731
303.787
303.859
303.953
304.076
304.237
304.442
304.695
304.993
305.321
305.663
306.043
306.548
307.254
308.103
300.33
300.949
301.478
301.873
302.162
302.403
302.625
302.828
303.006
303.155
303.273
303.366
303.438
303.495
303.54
303.578
303.611
303.644
303.678
303.716
303.761
303.818
303.891
303.986
304.11
304.272
304.478
304.732
305.03
305.356
305.696
306.074
306.578
307.284
308.132
300.334
300.963
301.499
301.898
302.191
302.436
302.661
302.867
303.047
303.195
303.313
303.404
303.475
303.53
303.573
303.61
303.643
303.675
303.709
303.747
303.792
303.849
303.923
304.019
304.144
304.307
304.514
304.768
305.065
305.389
305.727
306.103
306.606
307.311
308.16
300.339
300.976
301.52
301.924
302.22
302.469
302.699
302.908
303.089
303.237
303.354
303.443
303.512
303.565
303.607
303.643
303.675
303.706
303.74
303.778
303.823
303.881
303.955
304.052
304.178
304.342
304.55
304.804
305.1
305.422
305.758
306.133
306.636
307.34
308.188
300.344
300.991
301.542
301.951
302.251
302.504
302.737
302.949
303.131
303.279
303.395
303.483
303.549
303.601
303.642
303.676
303.707
303.738
303.771
303.809
303.854
303.912
303.987
304.085
304.212
304.377
304.585
304.839
305.134
305.454
305.788
306.162
306.663
307.367
308.215
300.349
301.005
301.564
301.978
302.282
302.539
302.777
302.992
303.175
303.322
303.436
303.523
303.587
303.637
303.676
303.71
303.74
303.77
303.802
303.84
303.886
303.944
304.02
304.118
304.246
304.412
304.621
304.875
305.169
305.487
305.818
306.191
306.692
307.396
308.243
300.354
301.02
301.587
302.006
302.315
302.576
302.818
303.035
303.219
303.366
303.479
303.563
303.626
303.674
303.711
303.743
303.773
303.802
303.834
303.872
303.918
303.976
304.052
304.151
304.281
304.447
304.656
304.91
305.202
305.518
305.848
306.219
306.72
307.423
308.27
300.36
301.036
301.61
302.035
302.348
302.614
302.859
303.08
303.264
303.41
303.521
303.604
303.665
303.711
303.747
303.778
303.806
303.835
303.866
303.904
303.95
304.009
304.085
304.185
304.315
304.483
304.692
304.946
305.237
305.551
305.878
306.248
306.748
307.451
308.299
300.365
301.051
301.635
302.065
302.382
302.653
302.903
303.125
303.311
303.456
303.565
303.645
303.704
303.748
303.782
303.812
303.839
303.867
303.899
303.936
303.982
304.042
304.119
304.219
304.35
304.518
304.727
304.98
305.27
305.582
305.907
306.276
306.776
307.478
308.326
300.371
301.068
301.659
302.095
302.417
302.693
302.947
303.172
303.358
303.502
303.609
303.687
303.743
303.785
303.818
303.847
303.873
303.901
303.931
303.969
304.015
304.075
304.152
304.254
304.385
304.554
304.764
305.016
305.304
305.614
305.938
306.306
306.805
307.507
308.355
300.377
301.084
301.685
302.127
302.454
302.735
302.993
303.221
303.407
303.549
303.654
303.729
303.783
303.823
303.855
303.882
303.907
303.934
303.964
304.001
304.048
304.108
304.186
304.288
304.42
304.589
304.8
305.051
305.338
305.645
305.967
306.334
306.832
307.535
308.383
300.383
301.101
301.711
302.16
302.492
302.778
303.042
303.272
303.457
303.598
303.7
303.773
303.824
303.862
303.892
303.917
303.942
303.968
303.998
304.035
304.082
304.142
304.221
304.324
304.457
304.626
304.837
305.088
305.373
305.678
305.998
306.364
306.862
307.564
308.413
300.389
301.119
301.739
302.194
302.532
302.824
303.092
303.324
303.51
303.648
303.747
303.817
303.866
303.901
303.929
303.953
303.976
304.002
304.031
304.068
304.115
304.176
304.255
304.359
304.492
304.662
304.873
305.123
305.406
305.709
306.027
306.392
306.89
307.593
308.442
300.395
301.138
301.767
302.229
302.573
302.871
303.144
303.378
303.563
303.7
303.796
303.862
303.908
303.941
303.967
303.989
304.011
304.036
304.066
304.102
304.149
304.211
304.291
304.395
304.53
304.7
304.911
305.16
305.442
305.743
306.059
306.423
306.921
307.623
308.473
300.402
301.157
301.797
302.265
302.615
302.92
303.198
303.435
303.619
303.753
303.845
303.908
303.951
303.981
304.005
304.026
304.047
304.071
304.1
304.137
304.184
304.245
304.326
304.431
304.566
304.737
304.948
305.196
305.476
305.775
306.089
306.452
306.95
307.653
308.502
300.409
301.177
301.827
302.303
302.66
302.971
303.254
303.493
303.676
303.807
303.896
303.955
303.994
304.022
304.044
304.063
304.083
304.106
304.135
304.171
304.219
304.281
304.363
304.469
304.605
304.776
304.987
305.235
305.513
305.809
306.122
306.484
306.982
307.685
308.535
300.416
301.197
301.859
302.342
302.705
303.023
303.312
303.553
303.735
303.863
303.948
304.003
304.039
304.063
304.083
304.1
304.119
304.142
304.17
304.206
304.254
304.317
304.399
304.506
304.643
304.815
305.025
305.272
305.548
305.842
306.153
306.514
307.012
307.715
308.565
300.423
301.219
301.891
302.382
302.752
303.077
303.371
303.614
303.795
303.919
304
304.051
304.084
304.106
304.123
304.139
304.156
304.178
304.206
304.242
304.29
304.354
304.437
304.544
304.682
304.855
305.065
305.311
305.585
305.878
306.187
306.548
307.045
307.748
308.599
300.431
301.241
301.924
302.423
302.8
303.132
303.431
303.676
303.855
303.977
304.054
304.1
304.129
304.148
304.163
304.177
304.194
304.214
304.242
304.278
304.326
304.39
304.474
304.582
304.721
304.894
305.104
305.349
305.621
305.911
306.219
306.579
307.076
307.779
308.63
300.439
301.263
301.958
302.465
302.849
303.188
303.493
303.739
303.917
304.035
304.108
304.15
304.175
304.191
304.204
304.216
304.231
304.251
304.278
304.315
304.364
304.428
304.513
304.622
304.762
304.935
305.145
305.389
305.66
305.948
306.254
306.613
307.11
307.813
308.664
300.447
301.285
301.992
302.507
302.899
303.246
303.556
303.803
303.98
304.094
304.162
304.201
304.222
304.235
304.245
304.255
304.269
304.289
304.315
304.351
304.4
304.465
304.551
304.661
304.801
304.975
305.185
305.428
305.696
305.982
306.286
306.645
307.142
307.845
308.696
300.455
301.308
302.027
302.551
302.95
303.304
303.619
303.869
304.043
304.154
304.218
304.252
304.269
304.279
304.287
304.295
304.308
304.327
304.353
304.389
304.438
304.504
304.59
304.702
304.843
305.018
305.227
305.469
305.736
306.019
306.322
306.68
307.178
307.881
308.732
300.463
301.332
302.063
302.595
303.002
303.365
303.685
303.935
304.108
304.215
304.274
304.304
304.317
304.323
304.329
304.336
304.347
304.364
304.39
304.426
304.476
304.542
304.629
304.741
304.883
305.058
305.267
305.508
305.772
306.054
306.355
306.713
307.21
307.912
308.764
300.472
301.356
302.1
302.641
303.056
303.426
303.752
304.004
304.175
304.278
304.332
304.357
304.366
304.369
304.371
304.377
304.387
304.403
304.428
304.465
304.514
304.581
304.67
304.783
304.926
305.101
305.31
305.55
305.813
306.093
306.392
306.749
307.247
307.949
308.8
300.48
301.381
302.138
302.687
303.111
303.49
303.821
304.074
304.244
304.342
304.391
304.41
304.415
304.415
304.414
304.418
304.426
304.442
304.466
304.502
304.553
304.62
304.709
304.823
304.966
305.142
305.35
305.589
305.85
306.127
306.426
306.782
307.279
307.981
308.832
300.489
301.407
302.176
302.735
303.167
303.554
303.891
304.146
304.314
304.408
304.451
304.466
304.466
304.462
304.459
304.46
304.467
304.481
304.506