/*--------------------------------*- C++ -*----------------------------------*\
| =========                 |                                                 |
| \\      /  F ield         | OpenFOAM: The Open Source CFD Toolbox           |
|  \\    /   O peration     | Version:  v1906                                 |
|   \\  /    A nd           | Web:      www.OpenFOAM.com                      |
|    \\/     M anipulation  |                                                 |
\*---------------------------------------------------------------------------*/
FoamFile
{
    version     2.0;
    format      ascii;
    class       volScalarField;
    location    "63";
    object      alphat;
}
// * * * * * * * * * * * * * * * * * * * * * * * * * * * * * * * * * * * * * //

dimensions      [1 -1 -1 0 0 0 0];


internalField   nonuniform List<scalar> 
78750
(
3.30104e-09
5.7976e-07
1.03643e-06
1.45345e-06
1.83635e-06
2.18802e-06
2.5069e-06
2.79027e-06
3.03654e-06
3.24554e-06
3.41863e-06
3.55714e-06
3.66241e-06
3.73578e-06
3.77859e-06
3.79224e-06
3.77807e-06
3.73747e-06
3.67188e-06
3.5829e-06
3.47225e-06
3.34237e-06
3.19414e-06
3.02857e-06
2.84755e-06
2.65229e-06
2.44355e-06
2.22156e-06
1.98572e-06
1.73419e-06
1.46376e-06
1.16975e-06
8.50466e-07
5.20745e-07
8.70453e-09
3.33065e-09
3.60504e-06
6.36231e-06
8.47122e-06
1.06846e-05
1.31931e-05
1.58209e-05
1.83069e-05
2.04546e-05
2.16467e-05
2.24823e-05
2.30806e-05
2.34568e-05
2.36256e-05
2.36006e-05
2.33949e-05
2.30207e-05
2.24895e-05
2.18133e-05
2.10051e-05
2.00798e-05
1.90528e-05
1.79386e-05
1.67537e-05
1.55168e-05
1.42442e-05
1.29497e-05
1.16459e-05
1.00608e-05
7.70994e-06
5.28463e-06
3.43087e-06
2.7255e-06
1.73102e-06
2.70581e-08
4.65836e-09
2.37453e-06
4.70546e-06
7.04861e-06
9.67972e-06
1.27628e-05
1.62099e-05
1.97182e-05
2.27041e-05
2.37696e-05
2.45696e-05
2.51259e-05
2.54581e-05
2.55829e-05
2.55154e-05
2.52696e-05
2.48601e-05
2.33531e-05
2.1534e-05
1.98481e-05
1.83865e-05
1.7168e-05
1.61632e-05
1.5335e-05
1.46176e-05
1.38824e-05
1.29535e-05
1.16266e-05
9.72559e-06
7.31755e-06
5.02651e-06
3.70878e-06
4.08141e-06
1.78411e-06
4.17583e-08
8.50275e-09
2.15871e-06
4.6647e-06
7.83288e-06
1.18235e-05
1.6488e-05
2.11674e-05
2.51299e-05
2.77116e-05
2.85315e-05
2.90582e-05
2.93229e-05
2.93537e-05
2.90147e-05
2.72718e-05
2.52333e-05
2.31521e-05
2.11494e-05
1.92846e-05
1.75964e-05
1.61173e-05
1.48886e-05
1.39395e-05
1.32591e-05
1.27838e-05
1.23695e-05
1.17707e-05
1.06849e-05
8.92824e-06
6.73291e-06
4.83596e-06
4.02546e-06
5.36395e-06
1.75516e-06
5.52871e-08
1.20089e-08
2.18116e-06
4.95534e-06
8.94209e-06
1.4393e-05
2.06419e-05
2.61866e-05
2.90412e-05
3.00226e-05
3.06671e-05
3.10141e-05
3.10963e-05
3.05739e-05
2.83327e-05
2.58675e-05
2.34685e-05
2.12523e-05
1.92556e-05
1.74676e-05
1.58665e-05
1.44484e-05
1.32435e-05
1.23038e-05
1.16534e-05
1.12537e-05
1.09705e-05
1.05392e-05
9.62511e-06
8.08172e-06
6.24119e-06
4.80356e-06
4.51868e-06
6.49412e-06
1.73083e-06
6.65915e-08
1.65686e-08
2.16727e-06
5.0847e-06
9.6501e-06
1.62271e-05
2.35396e-05
2.93427e-05
3.19116e-05
3.28135e-05
3.33654e-05
3.34926e-05
3.14725e-05
2.89261e-05
2.62769e-05
2.37658e-05
2.1515e-05
1.95485e-05
1.78288e-05
1.62968e-05
1.49015e-05
1.36222e-05
1.24793e-05
1.15212e-05
1.07848e-05
1.02617e-05
9.8606e-06
9.37198e-06
8.51908e-06
7.1974e-06
5.7217e-06
4.69178e-06
4.85977e-06
7.09771e-06
1.75406e-06
7.64148e-08
2.0391e-08
2.21758e-06
5.32911e-06
1.04648e-05
1.8073e-05
2.62293e-05
3.21112e-05
3.39014e-05
3.47332e-05
3.52036e-05
3.33706e-05
3.05828e-05
2.7548e-05
2.46494e-05
2.20891e-05
1.99169e-05
1.80924e-05
1.65402e-05
1.5183e-05
1.39594e-05
1.28404e-05
1.18398e-05
1.09879e-05
1.02928e-05
9.73304e-06
9.23148e-06
8.6303e-06
7.74793e-06
6.56805e-06
5.38612e-06
4.7053e-06
5.30725e-06
7.3193e-06
1.76862e-06
8.54009e-08
2.46594e-08
2.24782e-06
5.45443e-06
1.09132e-05
1.9138e-05
2.77233e-05
3.35022e-05
3.60697e-05
3.66303e-05
3.52543e-05
3.26925e-05
2.95444e-05
2.633e-05
2.33956e-05
2.0886e-05
1.88026e-05
1.70783e-05
1.56281e-05
1.43732e-05
1.32525e-05
1.22351e-05
1.13274e-05
1.05429e-05
9.86641e-06
9.26124e-06
8.65916e-06
7.95247e-06
7.04792e-06
5.99473e-06
5.0557e-06
4.65862e-06
5.62092e-06
7.36036e-06
1.79255e-06
9.36644e-08
2.80491e-08
2.28347e-06
5.57797e-06
1.13016e-05
2.00234e-05
2.89558e-05
3.4652e-05
3.70429e-05
3.69531e-05
3.5065e-05
3.2058e-05
2.86107e-05
2.52621e-05
2.23136e-05
1.98516e-05
1.78374e-05
1.61877e-05
1.48152e-05
1.3643e-05
1.26149e-05
1.17063e-05
1.09239e-05
1.02544e-05
9.64587e-06
9.03615e-06
8.35845e-06
7.55099e-06
6.60329e-06
5.62479e-06
4.85917e-06
4.68937e-06
5.97963e-06
7.24849e-06
1.80987e-06
1.01547e-07
3.1932e-08
2.31201e-06
5.65825e-06
1.15565e-05
2.06059e-05
2.96999e-05
3.52455e-05
3.73512e-05
3.69381e-05
3.47481e-05
3.15148e-05
2.79418e-05
2.45524e-05
2.16113e-05
1.91728e-05
1.71821e-05
1.55517e-05
1.41975e-05
1.30485e-05
1.20563e-05
1.12039e-05
1.05005e-05
9.91587e-06
9.3708e-06
8.77781e-06
8.06416e-06
7.20041e-06
6.23749e-06
5.32567e-06
4.69494e-06
4.7049e-06
6.26593e-06
7.12162e-06
1.828e-06
1.09077e-07
3.52274e-08
2.33887e-06
5.73107e-06
1.17693e-05
2.10784e-05
3.03189e-05
3.57673e-05
3.76349e-05
3.69193e-05
3.44378e-05
3.09938e-05
2.73181e-05
2.39117e-05
2.09966e-05
1.85942e-05
1.66338e-05
1.50244e-05
1.36847e-05
1.25506e-05
1.15823e-05
1.07756e-05
1.01469e-05
9.64634e-06
9.16949e-06
8.6054e-06
7.87451e-06
6.97307e-06
6.00057e-06
5.13825e-06
4.60955e-06
4.76827e-06
6.57329e-06
6.95529e-06
1.84242e-06
1.16265e-07
3.89899e-08
2.36372e-06
5.79269e-06
1.19545e-05
2.14814e-05
3.07826e-05
3.60761e-05
3.77227e-05
3.67874e-05
3.41312e-05
3.05856e-05
2.68773e-05
2.34798e-05
2.05862e-05
1.82002e-05
1.62451e-05
1.46311e-05
1.32811e-05
1.2137e-05
1.11668e-05
1.03747e-05
9.78444e-06
9.3388e-06
8.91789e-06
8.39199e-06
7.67212e-06
6.76814e-06
5.80972e-06
4.99757e-06
4.55334e-06
4.83619e-06
6.84993e-06
6.80569e-06
1.85649e-06
1.23096e-07
4.2442e-08
2.3877e-06
5.85321e-06
1.2125e-05
2.18363e-05
3.1194e-05
3.63671e-05
3.78191e-05
3.66743e-05
3.38476e-05
3.02069e-05
2.64775e-05
2.31024e-05
2.02426e-05
1.78826e-05
1.59393e-05
1.43234e-05
1.29621e-05
1.18033e-05
1.08238e-05
1.00381e-05
9.47719e-06
9.07422e-06
8.69869e-06
8.20848e-06
7.50767e-06
6.61519e-06
5.68006e-06
4.9148e-06
4.5424e-06
4.93567e-06
7.13983e-06
6.65587e-06
1.86904e-06
1.29562e-07
4.62474e-08
2.41147e-06
5.9124e-06
1.22965e-05
2.21857e-05
3.15563e-05
3.65733e-05
3.7837e-05
3.65265e-05
3.35907e-05
2.99094e-05
2.61904e-05
2.28468e-05
2.00161e-05
1.76718e-05
1.57287e-05
1.40999e-05
1.27166e-05
1.15317e-05
1.05289e-05
9.73088e-06
9.17713e-06
8.79742e-06
8.45525e-06
8.00052e-06
7.3316e-06
6.47001e-06
5.57295e-06
4.85803e-06
4.55152e-06
5.04494e-06
7.41869e-06
6.52648e-06
1.88155e-06
1.35669e-07
4.98932e-08
2.4348e-06
5.97196e-06
1.24628e-05
2.25119e-05
3.1893e-05
3.67744e-05
3.78683e-05
3.6404e-05
3.33681e-05
2.96547e-05
2.59544e-05
2.26498e-05
1.98544e-05
1.75304e-05
1.55903e-05
1.39492e-05
1.25423e-05
1.13277e-05
1.02959e-05
9.47734e-06
8.91983e-06
8.55069e-06
8.23043e-06
7.80517e-06
7.17028e-06
6.34735e-06
5.49507e-06
4.83142e-06
4.58701e-06
5.1757e-06
7.70544e-06
6.40991e-06
1.89393e-06
1.41458e-07
5.37854e-08
2.45855e-06
6.03316e-06
1.26364e-05
2.28465e-05
3.22136e-05
3.6941e-05
3.78717e-05
3.62808e-05
3.31797e-05
2.94627e-05
2.57962e-05
2.2534e-05
1.97711e-05
1.74625e-05
1.55202e-05
1.38619e-05
1.24262e-05
1.11757e-05
1.01064e-05
9.25565e-06
8.67963e-06
8.30719e-06
7.99845e-06
7.59882e-06
7.00196e-06
6.22658e-06
5.4271e-06
4.81817e-06
4.63512e-06
5.31609e-06
7.98799e-06
6.31191e-06
1.90668e-06
1.46947e-07
5.75902e-08
2.48188e-06
6.09438e-06
1.28069e-05
2.31673e-05
3.252e-05
3.71091e-05
3.7893e-05
3.61893e-05
3.30342e-05
2.93214e-05
2.56937e-05
2.2477e-05
1.9749e-05
1.74577e-05
1.55143e-05
1.38383e-05
1.23716e-05
1.10814e-05
9.96894e-06
9.07755e-06
8.47242e-06
8.08557e-06
7.77855e-06
7.39854e-06
6.8392e-06
6.11503e-06
5.37247e-06
4.82027e-06
4.69869e-06
5.47146e-06
8.27427e-06
6.22897e-06
1.91992e-06
1.52188e-07
6.15666e-08
2.50583e-06
6.15826e-06
1.29867e-05
2.35005e-05
3.28234e-05
3.72651e-05
3.7909e-05
3.61105e-05
3.2922e-05
2.92286e-05
2.56466e-05
2.2477e-05
1.97831e-05
1.7508e-05
1.55626e-05
1.38676e-05
1.23678e-05
1.10346e-05
9.87362e-06
8.93327e-06
8.28776e-06
7.87571e-06
7.56152e-06
7.19578e-06
6.67314e-06
6.00283e-06
5.32079e-06
4.82789e-06
4.76907e-06
5.63403e-06
8.55697e-06
6.16149e-06
1.93371e-06
1.57195e-07
6.54939e-08
2.52938e-06
6.22206e-06
1.31649e-05
2.38259e-05
3.31197e-05
3.74273e-05
3.79462e-05
3.60661e-05
3.28537e-05
2.91846e-05
2.56502e-05
2.25284e-05
1.98695e-05
1.76118e-05
1.56653e-05
1.39513e-05
1.24171e-05
1.10376e-05
9.82291e-06
8.82614e-06
8.13032e-06
7.68345e-06
7.354e-06
6.99727e-06
6.50955e-06
5.89406e-06
5.27453e-06
4.84274e-06
4.84824e-06
5.8069e-06
8.83999e-06
6.10715e-06
1.94812e-06
1.62006e-07
6.95442e-08
2.55351e-06
6.28873e-06
1.3353e-05
2.41652e-05
3.34194e-05
3.75885e-05
3.79885e-05
3.60388e-05
3.28141e-05
2.9177e-05
2.56934e-05
2.26206e-05
1.99977e-05
1.77592e-05
1.58136e-05
1.40827e-05
1.25147e-05
1.10875e-05
9.81549e-06
8.7557e-06
7.99954e-06
7.50807e-06
7.15489e-06
6.80095e-06
6.34486e-06
5.7835e-06
5.22736e-06
4.85826e-06
4.92998e-06
5.98419e-06
9.11843e-06
6.06533e-06
1.96312e-06
1.66624e-07
7.35674e-08
2.5772e-06
6.35545e-06
1.35418e-05
2.45029e-05
3.37189e-05
3.77602e-05
3.80535e-05
3.60441e-05
3.28131e-05
2.92094e-05
2.57764e-05
2.27523e-05
2.01665e-05
1.79489e-05
1.60065e-05
1.42603e-05
1.26589e-05
1.11821e-05
9.84842e-06
8.71973e-06
7.89462e-06
7.35031e-06
6.96642e-06
6.61017e-06
6.18273e-06
5.67439e-06
5.18182e-06
4.87636e-06
5.01588e-06
6.16754e-06
9.39351e-06
6.03321e-06
1.97855e-06
1.71071e-07
7.76795e-08
2.60122e-06
6.42462e-06
1.37404e-05
2.4856e-05
3.40272e-05
3.79389e-05
3.813e-05
3.60675e-05
3.28351e-05
2.92677e-05
2.58867e-05
2.29133e-05
2.03673e-05
1.81747e-05
1.62399e-05
1.44824e-05
1.28503e-05
1.1324e-05
9.92591e-06
8.72265e-06
7.81939e-06
7.21311e-06
6.79034e-06
6.42505e-06
6.02145e-06
5.5634e-06
5.13356e-06
4.89244e-06
5.10166e-06
6.35321e-06
9.66341e-06
6.01133e-06
1.9945e-06
1.75346e-07
8.17743e-08
2.62464e-06
6.4937e-06
1.39416e-05
2.52144e-05
3.43439e-05
3.81343e-05
3.82303e-05
3.61184e-05
3.2885e-05
2.93527e-05
2.60228e-05
2.31006e-05
2.05966e-05
1.84322e-05
1.6509e-05
1.4744e-05
1.30834e-05
1.15081e-05
1.00431e-05
8.76034e-06
7.77193e-06
7.09665e-06
6.62868e-06
6.24893e-06
5.8648e-06
5.45396e-06
5.08529e-06
4.90841e-06
5.18845e-06
6.54154e-06
9.92774e-06
5.99647e-06
2.01078e-06
1.79459e-07
8.59319e-08
2.64801e-06
6.56415e-06
1.41508e-05
2.55894e-05
3.4679e-05
3.83492e-05
3.83483e-05
3.6185e-05
3.29497e-05
2.94526e-05
2.61756e-05
2.33077e-05
2.08503e-05
1.87196e-05
1.6814e-05
1.50473e-05
1.33626e-05
1.17398e-05
1.02065e-05
8.83922e-06
7.75758e-06
7.00486e-06
6.48388e-06
6.0827e-06
5.71214e-06
5.34408e-06
5.03401e-06
4.92063e-06
5.27229e-06
6.72947e-06
1.01893e-05
5.98976e-06
2.02713e-06
1.83409e-07
9.00713e-08
2.6706e-06
6.63369e-06
1.43607e-05
2.59655e-05
3.50109e-05
3.85649e-05
3.84793e-05
3.6265e-05
3.30262e-05
2.95637e-05
2.63402e-05
2.35285e-05
2.11209e-05
1.90286e-05
1.71462e-05
1.53834e-05
1.36797e-05
1.20124e-05
1.04107e-05
8.95592e-06
7.77549e-06
6.93899e-06
6.35881e-06
5.93022e-06
5.56758e-06
5.23757e-06
4.98303e-06
4.93219e-06
5.35687e-06
6.92196e-06
1.04523e-05
5.99463e-06
2.04442e-06
1.87217e-07
9.42501e-08
2.69298e-06
6.70345e-06
1.45728e-05
2.63411e-05
3.53263e-05
3.8762e-05
3.85944e-05
3.63443e-05
3.31067e-05
2.9681e-05
2.65136e-05
2.37617e-05
2.14085e-05
1.93603e-05
1.75078e-05
1.57561e-05
1.40393e-05
1.23315e-05
1.0662e-05
9.11656e-06
7.831e-06
6.90298e-06
6.256e-06
5.79267e-06
5.43102e-06
5.13315e-06
4.93e-06
4.93956e-06
5.43687e-06
7.11141e-06
1.07093e-05
6.00776e-06
2.06252e-06
1.9089e-07
9.84063e-08
2.71467e-06
6.77231e-06
1.47832e-05
2.67067e-05
3.56279e-05
3.89476e-05
3.87009e-05
3.64193e-05
3.31855e-05
2.97978e-05
2.66878e-05
2.39979e-05
2.17027e-05
1.97037e-05
1.78875e-05
1.61539e-05
1.44313e-05
1.26887e-05
1.09543e-05
9.31804e-06
7.92452e-06
6.89924e-06
6.17907e-06
5.67427e-06
5.30674e-06
5.03475e-06
4.87841e-06
4.9462e-06
5.51728e-06
7.30676e-06
1.09642e-05
6.0275e-06
2.08123e-06
1.94434e-07
1.0259e-07
2.73618e-06
6.8421e-06
1.49983e-05
2.70665e-05
3.59148e-05
3.9117e-05
3.87921e-05
3.64826e-05
3.3262e-05
2.99155e-05
2.68643e-05
2.42391e-05
2.20061e-05
2.0062e-05
1.82887e-05
1.65807e-05
1.48596e-05
1.30882e-05
1.12923e-05
9.56519e-06
8.06074e-06
6.93115e-06
6.13046e-06
5.57653e-06
5.19529e-06
4.94197e-06
4.82703e-06
4.95023e-06
5.59512e-06
7.50185e-06
1.12152e-05
6.05393e-06
2.10054e-06
1.97863e-07
1.06738e-07
2.75649e-06
6.90992e-06
1.52122e-05
2.74142e-05
3.61839e-05
3.92685e-05
3.88662e-05
3.65302e-05
3.33295e-05
3.0024e-05
2.70319e-05
2.44737e-05
2.2307e-05
2.0423e-05
1.86992e-05
1.70246e-05
1.53135e-05
1.3521e-05
1.16694e-05
9.85434e-06
8.23933e-06
7.00051e-06
6.11326e-06
5.50329e-06
5.10072e-06
4.85867e-06
4.77923e-06
4.95439e-06
5.67234e-06
7.69767e-06
1.14627e-05
6.08522e-06
2.12028e-06
2.01184e-07
1.10895e-07
2.7761e-06
6.97592e-06
1.54224e-05
2.77529e-05
3.64372e-05
3.94026e-05
3.89236e-05
3.65623e-05
3.33827e-05
3.01223e-05
2.71936e-05
2.47066e-05
2.26101e-05
2.07908e-05
1.91224e-05
1.74883e-05
1.57948e-05
1.39889e-05
1.20873e-05
1.01874e-05
8.4621e-06
7.10892e-06
6.12888e-06
5.45568e-06
5.02383e-06
4.78513e-06
4.73471e-06
4.95771e-06
5.74701e-06
7.89093e-06
1.1706e-05
6.12173e-06
2.14046e-06
2.04414e-07
1.15018e-07
2.79502e-06
7.04075e-06
1.56305e-05
2.80819e-05
3.66735e-05
3.95181e-05
3.89613e-05
3.65747e-05
3.34176e-05
3.02048e-05
2.73416e-05
2.49276e-05
2.29041e-05
2.11537e-05
1.95465e-05
1.79601e-05
1.62929e-05
1.44822e-05
1.25382e-05
1.05585e-05
8.72534e-06
7.25539e-06
6.17826e-06
5.43605e-06
4.96776e-06
4.72475e-06
4.69654e-06
4.96255e-06
5.82074e-06
8.08288e-06
1.1945e-05
6.16165e-06
2.16089e-06
2.07556e-07
1.19148e-07
2.81333e-06
7.10428e-06
1.58363e-05
2.84016e-05
3.68927e-05
3.96144e-05
3.89799e-05
3.6569e-05
3.34367e-05
3.02762e-05
2.74809e-05
2.51414e-05
2.31933e-05
2.15155e-05
1.99741e-05
1.84414e-05
1.68076e-05
1.5e-05
1.30208e-05
1.09664e-05
9.02758e-06
7.43894e-06
6.26088e-06
5.44432e-06
4.93276e-06
4.6779e-06
4.66512e-06
4.9693e-06
5.89362e-06
8.27249e-06
1.21804e-05
6.20551e-06
2.18159e-06
2.10625e-07
1.23248e-07
2.83114e-06
7.167e-06
1.60401e-05
2.87109e-05
3.70938e-05
3.96899e-05
3.89755e-05
3.65389e-05
3.34318e-05
3.03302e-05
2.76029e-05
2.53383e-05
2.34681e-05
2.18665e-05
2.03958e-05
1.89226e-05
1.73294e-05
1.5533e-05
1.35265e-05
1.14039e-05
9.36346e-06
7.65699e-06
6.37628e-06
5.48151e-06
4.92092e-06
4.64727e-06
4.64299e-06
4.97956e-06
5.96628e-06
8.46082e-06
1.24121e-05
6.25168e-06
2.20239e-06
2.1362e-07
1.27361e-07
2.84872e-06
7.22928e-06
1.62422e-05
2.901e-05
3.72767e-05
3.9745e-05
3.89502e-05
3.64882e-05
3.34065e-05
3.0364e-05
2.77074e-05
2.55215e-05
2.37328e-05
2.22109e-05
2.08142e-05
1.94049e-05
1.78574e-05
1.60785e-05
1.40516e-05
1.1867e-05
9.72939e-06
7.90679e-06
6.52265e-06
5.5466e-06
4.93185e-06
4.63293e-06
4.63069e-06
4.99491e-06
6.04221e-06
8.64781e-06
1.26408e-05
6.30031e-06
2.22325e-06
2.16546e-07
1.31434e-07
2.86606e-06
7.29135e-06
1.64422e-05
2.92973e-05
3.74392e-05
3.97769e-05
3.8901e-05
3.64138e-05
3.33584e-05
3.03764e-05
2.77927e-05
2.56874e-05
2.39823e-05
2.25426e-05
2.12234e-05
1.98818e-05
1.8385e-05
1.66294e-05
1.45886e-05
1.23484e-05
1.01191e-05
8.18431e-06
6.69799e-06
5.63933e-06
4.96663e-06
4.63696e-06
4.63094e-06
5.01817e-06
6.12328e-06
8.83727e-06
1.28679e-05
6.35054e-06
2.24407e-06
2.19401e-07
1.35492e-07
2.88328e-06
7.35348e-06
1.66374e-05
2.9572e-05
3.75843e-05
3.97872e-05
3.88266e-05
3.63137e-05
3.32863e-05
3.03679e-05
2.78608e-05
2.58388e-05
2.42193e-05
2.28643e-05
2.16249e-05
2.03539e-05
1.89112e-05
1.7183e-05
1.51333e-05
1.2843e-05
1.05274e-05
8.48498e-06
6.89881e-06
5.75741e-06
5.02419e-06
4.65919e-06
4.644e-06
5.04943e-06
6.20891e-06
9.02877e-06
1.30941e-05
6.40252e-06
2.26483e-06
2.22182e-07
1.39529e-07
2.9001e-06
7.41676e-06
1.68337e-05
2.98409e-05
3.77128e-05
3.97781e-05
3.87336e-05
3.61959e-05
3.31959e-05
3.03378e-05
2.79048e-05
2.5968e-05
2.44382e-05
2.3171e-05
2.20143e-05
2.08169e-05
1.94315e-05
1.77349e-05
1.56807e-05
1.33452e-05
1.09486e-05
8.80398e-06
7.1215e-06
5.89868e-06
5.1039e-06
4.70043e-06
4.6717e-06
5.09105e-06
6.30179e-06
9.22557e-06
1.33201e-05
6.45545e-06
2.28544e-06
2.2488e-07
1.43552e-07
2.91577e-06
7.47737e-06
1.70262e-05
3.00974e-05
3.78225e-05
3.97482e-05
3.86176e-05
3.60541e-05
3.30827e-05
3.02891e-05
2.79349e-05
2.60833e-05
2.46414e-05
2.34639e-05
2.23926e-05
2.12705e-05
1.99449e-05
1.82828e-05
1.6228e-05
1.38518e-05
1.13793e-05
9.13781e-06
7.36273e-06
6.06032e-06
5.20377e-06
4.75961e-06
4.71378e-06
5.1432e-06
6.4021e-06
9.42769e-06
1.35465e-05
6.50955e-06
2.30591e-06
2.27492e-07
1.47537e-07
2.93119e-06
7.53804e-06
1.72188e-05
3.03445e-05
3.7914e-05
3.9697e-05
3.84801e-05
3.58914e-05
3.29485e-05
3.02188e-05
2.79442e-05
2.61808e-05
2.48292e-05
2.37391e-05
2.27541e-05
2.17111e-05
2.04481e-05
1.88232e-05
1.67711e-05
1.43582e-05
1.18149e-05
9.4824e-06
7.61922e-06
6.23996e-06
5.32243e-06
4.83645e-06
4.771e-06
5.2076e-06
6.5125e-06
9.63854e-06
1.37741e-05
6.56429e-06
2.32617e-06
2.3001e-07
1.51499e-07
2.94567e-06
7.59669e-06
1.74076e-05
3.05794e-05
3.79872e-05
3.96257e-05
3.8321e-05
3.57068e-05
3.27933e-05
3.01289e-05
2.79357e-05
2.6262e-05
2.50027e-05
2.40035e-05
2.31034e-05
2.2139e-05
2.09406e-05
1.9355e-05
1.73082e-05
1.48625e-05
1.22533e-05
9.83548e-06
7.88854e-06
6.43524e-06
5.4579e-06
4.92956e-06
4.84251e-06
5.28371e-06
6.63255e-06
9.85754e-06
1.40025e-05
6.61979e-06
2.34625e-06
2.32428e-07
1.55413e-07
2.95965e-06
7.65463e-06
1.75947e-05
3.08026e-05
3.80416e-05
3.95331e-05
3.81398e-05
3.55003e-05
3.26167e-05
3.00183e-05
2.79079e-05
2.6325e-05
2.5159e-05
2.42514e-05
2.34384e-05
2.25517e-05
2.14181e-05
1.98741e-05
1.78352e-05
1.53605e-05
1.26906e-05
1.01941e-05
8.16837e-06
6.64433e-06
5.60897e-06
5.03864e-06
4.92902e-06
5.37315e-06
6.76468e-06
1.00876e-05
1.42324e-05
6.67564e-06
2.3661e-06
2.34739e-07
1.59297e-07
2.973e-06
7.7112e-06
1.77787e-05
3.10143e-05
3.80791e-05
3.94218e-05
3.79389e-05
3.52739e-05
3.24207e-05
2.9889e-05
2.78627e-05
2.6372e-05
2.53e-05
2.44849e-05
2.37595e-05
2.29515e-05
2.18809e-05
2.03788e-05
1.83503e-05
1.58502e-05
1.31251e-05
1.05564e-05
8.45703e-06
6.86542e-06
5.77368e-06
5.16182e-06
5.02922e-06
5.47532e-06
6.90876e-06
1.03287e-05
1.44643e-05
6.73243e-06
2.3858e-06
2.36948e-07
1.63106e-07
2.98563e-06
7.7663e-06
1.79593e-05
3.12132e-05
3.80982e-05
3.92899e-05
3.77163e-05
3.5026e-05
3.22038e-05
2.97397e-05
2.77989e-05
2.64014e-05
2.54242e-05
2.47018e-05
2.40643e-05
2.33351e-05
2.23279e-05
2.08655e-05
1.88493e-05
1.63278e-05
1.35534e-05
1.09203e-05
8.75322e-06
7.09786e-06
5.95167e-06
5.29884e-06
5.14298e-06
5.59051e-06
7.06574e-06
1.05821e-05
1.46971e-05
6.78955e-06
2.40529e-06
2.39044e-07
1.6686e-07
2.99769e-06
7.82009e-06
1.81367e-05
3.14008e-05
3.81017e-05
3.91409e-05
3.74757e-05
3.47602e-05
3.19696e-05
2.95738e-05
2.77195e-05
2.64158e-05
2.55336e-05
2.49038e-05
2.43537e-05
2.37027e-05
2.27584e-05
2.13355e-05
1.93284e-05
1.67885e-05
1.39718e-05
1.12827e-05
9.0548e-06
7.34033e-06
6.14221e-06
5.44924e-06
5.26988e-06
5.71835e-06
7.23547e-06
1.08479e-05
1.49314e-05
6.84743e-06
2.42463e-06
2.41026e-07
1.70517e-07
3.00901e-06
7.87214e-06
1.83098e-05
3.15752e-05
3.80874e-05
3.89722e-05
3.72143e-05
3.44736e-05
3.17156e-05
2.93891e-05
2.76225e-05
2.64136e-05
2.56266e-05
2.50893e-05
2.4626e-05
2.40523e-05
2.31699e-05
2.17862e-05
1.97901e-05
1.72328e-05
1.43785e-05
1.16414e-05
9.3596e-06
7.59127e-06
6.34461e-06
5.61311e-06
5.4105e-06
5.85965e-06
7.41897e-06
1.11271e-05
1.51667e-05
6.9055e-06
2.44373e-06
2.42889e-07
1.74093e-07
3.01977e-06
7.92275e-06
1.84793e-05
3.17381e-05
3.80584e-05
3.87872e-05
3.69359e-05
3.41706e-05
3.1446e-05
2.91897e-05
2.75116e-05
2.63974e-05
2.57053e-05
2.52595e-05
2.48816e-05
2.43835e-05
2.3561e-05
2.22152e-05
2.02301e-05
1.76583e-05
1.47719e-05
1.19945e-05
9.66555e-06
7.84854e-06
6.55705e-06
5.78931e-06
5.56454e-06
6.01485e-06
7.6171e-06
1.14204e-05
1.54045e-05
6.96483e-06
2.46285e-06
2.44651e-07
1.77553e-07
3.02977e-06
7.97136e-06
1.86437e-05
3.18876e-05
3.80122e-05
3.85831e-05
3.66374e-05
3.38481e-05
3.11584e-05
2.89734e-05
2.73852e-05
2.63666e-05
2.57692e-05
2.54142e-05
2.51206e-05
2.46962e-05
2.39318e-05
2.26222e-05
2.0648e-05
1.80639e-05
1.51505e-05
1.23409e-05
9.97141e-06
8.11083e-06
6.77821e-06
5.97666e-06
5.73106e-06
6.18332e-06
7.82963e-06
1.17275e-05
1.56436e-05
7.02498e-06
2.48178e-06
2.46325e-07
1.80919e-07
3.03924e-06
8.01855e-06
1.88044e-05
3.20258e-05
3.79514e-05
3.83629e-05
3.63226e-05
3.35105e-05
3.08571e-05
2.87446e-05
2.72469e-05
2.63237e-05
2.58202e-05
2.55546e-05
2.53431e-05
2.49901e-05
2.42811e-05
2.30056e-05
2.1042e-05
1.84483e-05
1.55134e-05
1.26786e-05
1.02752e-05
8.37621e-06
7.00639e-06
6.17396e-06
5.90969e-06
6.36558e-06
8.05728e-06
1.20486e-05
1.58851e-05
7.08684e-06
2.5009e-06
2.47937e-07
1.84159e-07
3.04794e-06
8.06365e-06
1.89597e-05
3.21503e-05
3.78737e-05
3.8124e-05
3.59887e-05
3.31553e-05
3.05402e-05
2.85018e-05
2.7096e-05
2.62688e-05
2.5859e-05
2.56818e-05
2.55508e-05
2.52668e-05
2.46103e-05
2.33666e-05
2.14127e-05
1.88113e-05
1.58604e-05
1.30081e-05
1.05767e-05
8.64392e-06
7.24036e-06
6.37953e-06
6.09824e-06
6.55908e-06
8.29845e-06
1.23825e-05
1.61279e-05
7.15033e-06
2.52044e-06
2.49503e-07
1.87299e-07
3.05615e-06
8.10742e-06
1.91115e-05
3.22639e-05
3.77815e-05
3.78691e-05
3.56392e-05
3.27864e-05
3.02117e-05
2.82486e-05
2.69353e-05
2.6204e-05
2.5887e-05
2.57966e-05
2.57439e-05
2.55259e-05
2.49188e-05
2.37043e-05
2.17595e-05
1.91527e-05
1.6191e-05
1.33284e-05
1.08747e-05
8.91264e-06
7.47887e-06
6.59249e-06
6.29689e-06
6.7658e-06
8.55326e-06
1.27286e-05
1.63723e-05
7.21585e-06
2.54028e-06
2.5104e-07
1.90312e-07
3.06362e-06
8.14908e-06
1.92577e-05
3.23637e-05
3.76725e-05
3.7596e-05
3.5272e-05
3.24022e-05
2.98705e-05
2.79845e-05
2.6765e-05
2.61299e-05
2.59051e-05
2.59004e-05
2.59241e-05
2.57696e-05
2.52088e-05
2.40206e-05
2.20836e-05
1.94732e-05
1.65057e-05
1.36395e-05
1.11691e-05
9.18181e-06
7.72099e-06
6.81176e-06
6.50442e-06
6.98408e-06
8.82101e-06
1.30858e-05
1.66175e-05
7.28291e-06
2.56029e-06
2.5255e-07
1.93224e-07
3.0706e-06
8.18938e-06
1.94001e-05
3.24523e-05
3.7549e-05
3.73071e-05
3.489e-05
3.2006e-05
2.95197e-05
2.77123e-05
2.65872e-05
2.60479e-05
2.59143e-05
2.59937e-05
2.60915e-05
2.59976e-05
2.548e-05
2.43153e-05
2.23851e-05
1.9773e-05
1.68046e-05
1.39413e-05
1.14596e-05
9.45124e-06
7.9665e-06
7.037e-06
6.72033e-06
7.21312e-06
9.10137e-06
1.34538e-05
1.68638e-05
7.35169e-06
2.58051e-06
2.54044e-07
1.96012e-07
3.07685e-06
8.22752e-06
1.95367e-05
3.2527e-05
3.74089e-05
3.70007e-05
3.44919e-05
3.15969e-05
2.91591e-05
2.7432e-05
2.64023e-05
2.59587e-05
2.59157e-05
2.60777e-05
2.62477e-05
2.62117e-05
2.5734e-05
2.45901e-05
2.26657e-05
2.00536e-05
1.70889e-05
1.42345e-05
1.17462e-05
9.72037e-06
8.21434e-06
7.2669e-06
6.94314e-06
7.45146e-06
9.39308e-06
1.38312e-05
1.71099e-05
7.42157e-06
2.60084e-06
2.55519e-07
1.98695e-07
3.08258e-06
8.26412e-06
1.9669e-05
3.25901e-05
3.72543e-05
3.66788e-05
3.40801e-05
3.11776e-05
2.87911e-05
2.71459e-05
2.62119e-05
2.58636e-05
2.59097e-05
2.61524e-05
2.63921e-05
2.64111e-05
2.59703e-05
2.48447e-05
2.29252e-05
2.03151e-05
1.73587e-05
1.45186e-05
1.20287e-05
9.98929e-06
8.46521e-06
7.50214e-06
7.17336e-06
7.69937e-06
9.69638e-06
1.42181e-05
1.73563e-05
7.49267e-06
2.62132e-06
2.56978e-07
2.01256e-07
3.08758e-06
8.29853e-06
1.97953e-05
3.26396e-05
3.70836e-05
3.63402e-05
3.36538e-05
3.07476e-05
2.84158e-05
2.68544e-05
2.60169e-05
2.57636e-05
2.58977e-05
2.62194e-05
2.65263e-05
2.65973e-05
2.61902e-05
2.50805e-05
2.31657e-05
2.05599e-05
1.76167e-05
1.47954e-05
1.23077e-05
1.02578e-05
8.71776e-06
7.7408e-06
7.40921e-06
7.95543e-06
1.00101e-05
1.46133e-05
1.76016e-05
7.5643e-06
2.64184e-06
2.58414e-07
2.03712e-07
3.09204e-06
8.33125e-06
1.99169e-05
3.26776e-05
3.68988e-05
3.59865e-05
3.32147e-05
3.03089e-05
2.8035e-05
2.6559e-05
2.58186e-05
2.56597e-05
2.58803e-05
2.62786e-05
2.66499e-05
2.67696e-05
2.63931e-05
2.52972e-05
2.33871e-05
2.07889e-05
1.78642e-05
1.50654e-05
1.25832e-05
1.05259e-05
8.97291e-06
7.98479e-06
7.65221e-06
8.22072e-06
1.0335e-05
1.50172e-05
1.78465e-05
7.63679e-06
2.66247e-06
2.59831e-07
2.06049e-07
3.09578e-06
8.36174e-06
2.00326e-05
3.27026e-05
3.66982e-05
3.56164e-05
3.27619e-05
2.9861e-05
2.76489e-05
2.62605e-05
2.56179e-05
2.55532e-05
2.58592e-05
2.63321e-05
2.67648e-05
2.69297e-05
2.65804e-05
2.54963e-05
2.35918e-05
2.10056e-05
1.81059e-05
1.53318e-05
1.2857e-05
1.07944e-05
9.23033e-06
8.23235e-06
7.90008e-06
8.49338e-06
1.06696e-05
1.54282e-05
1.80897e-05
7.70964e-06
2.68315e-06
2.6123e-07
2.08281e-07
3.099e-06
8.39051e-06
2.01435e-05
3.27163e-05
3.64833e-05
3.52309e-05
3.22967e-05
2.94054e-05
2.72586e-05
2.59597e-05
2.54158e-05
2.54449e-05
2.5835e-05
2.63804e-05
2.68715e-05
2.70779e-05
2.6752e-05
2.56773e-05
2.37793e-05
2.12098e-05
1.83427e-05
1.55947e-05
1.3129e-05
1.10633e-05
9.49039e-06
8.48505e-06
8.15579e-06
8.7755e-06
1.10151e-05
1.58465e-05
1.83321e-05
7.78327e-06
2.70397e-06
2.6262e-07
2.10402e-07
3.10157e-06
8.41718e-06
2.02489e-05
3.27175e-05
3.62525e-05
3.48287e-05
3.18182e-05
2.89417e-05
2.68642e-05
2.56571e-05
2.52129e-05
2.53359e-05
2.58093e-05
2.64255e-05
2.69723e-05
2.72166e-05
2.69104e-05
2.58427e-05
2.39514e-05
2.14027e-05
1.85742e-05
1.58541e-05
1.33995e-05
1.13326e-05
9.75285e-06
8.74187e-06
8.4172e-06
9.06531e-06
1.13705e-05
1.62714e-05
1.85736e-05
7.85761e-06
2.72492e-06
2.64008e-07
2.12425e-07
3.10363e-06
8.44216e-06
2.03496e-05
3.27073e-05
3.60066e-05
3.44106e-05
3.13274e-05
2.8471e-05
2.64667e-05
2.53535e-05
2.50097e-05
2.52262e-05
2.5782e-05
2.64674e-05
2.70676e-05
2.73468e-05
2.70568e-05
2.59933e-05
2.41083e-05
2.1583e-05
1.87979e-05
1.61081e-05
1.36669e-05
1.16015e-05
1.00173e-05
9.00292e-06
8.68524e-06
9.36445e-06
1.1736e-05
1.67025e-05
1.88143e-05
7.93271e-06
2.74604e-06
2.65403e-07
2.14344e-07
3.10508e-06
8.46511e-06
2.04448e-05
3.26844e-05
3.57442e-05
3.39756e-05
3.08242e-05
2.79935e-05
2.60667e-05
2.50496e-05
2.4807e-05
2.51166e-05
2.57538e-05
2.65072e-05
2.7159e-05
2.74704e-05
2.71937e-05
2.61322e-05
2.4253e-05
2.17528e-05
1.9014e-05
1.63564e-05
1.39307e-05
1.1869e-05
1.02826e-05
9.26721e-06
8.95894e-06
9.67203e-06
1.21121e-05
1.71398e-05
1.90546e-05
8.0087e-06
2.76736e-06
2.66812e-07
2.16177e-07
3.10608e-06
8.48649e-06
2.05357e-05
3.265e-05
3.54662e-05
3.35245e-05
3.03096e-05
2.75104e-05
2.56651e-05
2.47469e-05
2.46054e-05
2.50071e-05
2.57244e-05
2.65445e-05
2.72463e-05
2.75878e-05
2.7322e-05
2.62607e-05
2.43869e-05
2.19132e-05
1.9223e-05
1.65995e-05
1.41915e-05
1.21357e-05
1.05491e-05
9.53452e-06
9.23774e-06
9.98715e-06
1.24974e-05
1.75818e-05
1.92936e-05
8.08522e-06
2.78885e-06
2.68236e-07
2.17924e-07
3.10652e-06
8.50598e-06
2.06214e-05
3.26029e-05
3.51714e-05
3.30569e-05
2.97839e-05
2.70219e-05
2.52623e-05
2.44478e-05
2.44063e-05
2.4898e-05
2.56943e-05
2.65801e-05
2.73304e-05
2.77002e-05
2.74433e-05
2.63807e-05
2.45124e-05
2.20665e-05
1.94257e-05
1.68374e-05
1.44488e-05
1.24011e-05
1.08166e-05
9.80495e-06
9.52168e-06
1.03096e-05
1.28919e-05
1.80285e-05
1.95321e-05
8.16226e-06
2.81053e-06
2.69678e-07
2.19596e-07
3.10647e-06
8.52384e-06
2.07026e-05
3.25436e-05
3.48598e-05
3.25733e-05
2.92483e-05
2.65295e-05
2.48581e-05
2.4148e-05
2.42066e-05
2.47883e-05
2.56634e-05
2.66139e-05
2.74114e-05
2.78076e-05
2.75578e-05
2.64932e-05
2.4631e-05
2.22146e-05
1.96233e-05
1.70704e-05
1.47027e-05
1.26651e-05
1.1085e-05
1.00784e-05
9.81073e-06
1.06397e-05
1.32955e-05
1.84803e-05
1.97701e-05
8.23992e-06
2.8324e-06
2.71151e-07
2.21195e-07
3.1059e-06
8.53989e-06
2.07787e-05
3.24712e-05
3.45308e-05
3.20736e-05
2.87033e-05
2.60341e-05
2.44546e-05
2.38506e-05
2.40093e-05
2.46806e-05
2.56333e-05
2.66473e-05
2.74902e-05
2.79108e-05
2.76667e-05
2.65999e-05
2.47455e-05
2.23611e-05
1.98174e-05
1.7299e-05
1.49526e-05
1.29269e-05
1.13534e-05
1.03543e-05
1.01047e-05
1.09773e-05
1.37083e-05
1.89365e-05
2.00074e-05
8.31824e-06
2.85451e-06
2.72661e-07
2.22729e-07
3.10485e-06
8.55426e-06
2.08499e-05
3.23858e-05
3.41844e-05
3.15583e-05
2.815e-05
2.55364e-05
2.40517e-05
2.35544e-05
2.38133e-05
2.45738e-05
2.56037e-05
2.66802e-05
2.7567e-05
2.80103e-05
2.77708e-05
2.67025e-05
2.4859e-05
2.25104e-05
2.0011e-05
1.75246e-05
1.51991e-05
1.31864e-05
1.16215e-05
1.06322e-05
1.04035e-05
1.13227e-05
1.41303e-05
1.93966e-05
2.02431e-05
8.39677e-06
2.87679e-06
2.74195e-07
2.24201e-07
3.10326e-06
8.56677e-06
2.09161e-05
3.22869e-05
3.38199e-05
3.10273e-05
2.75887e-05
2.50375e-05
2.36509e-05
2.32617e-05
2.36209e-05
2.44702e-05
2.55766e-05
2.67144e-05
2.76436e-05
2.81077e-05
2.78715e-05
2.68023e-05
2.4973e-05
2.26642e-05
2.02052e-05
1.77479e-05
1.54423e-05
1.34431e-05
1.18885e-05
1.09113e-05
1.07063e-05
1.16753e-05
1.45613e-05
1.98604e-05
2.04768e-05
8.47549e-06
2.89927e-06
2.75754e-07
2.25619e-07
3.1012e-06
8.57759e-06
2.09773e-05
3.21746e-05
3.3437e-05
3.04806e-05
2.70201e-05
2.45375e-05
2.32522e-05
2.2972e-05
2.34318e-05
2.43699e-05
2.55522e-05
2.67505e-05
2.77204e-05
2.82037e-05
2.79695e-05
2.68998e-05
2.50869e-05
2.28208e-05
2.03997e-05
1.79693e-05
1.56828e-05
1.36976e-05
1.21545e-05
1.11915e-05
1.10127e-05
1.20349e-05
1.50007e-05
2.03268e-05
2.07077e-05
8.55397e-06
2.92187e-06
2.77334e-07
2.26988e-07
3.09867e-06
8.58676e-06
2.10338e-05
3.20483e-05
3.30347e-05
2.99181e-05
2.64443e-05
2.40372e-05
2.28564e-05
2.26866e-05
2.32476e-05
2.42746e-05
2.55327e-05
2.67906e-05
2.77998e-05
2.83003e-05
2.80667e-05
2.69963e-05
2.52009e-05
2.29783e-05
2.05932e-05
1.81882e-05
1.59204e-05
1.39496e-05
1.24193e-05
1.14728e-05
1.13238e-05
1.24011e-05
1.54485e-05
2.07957e-05
2.09361e-05
8.63248e-06
2.94465e-06
2.78941e-07
2.28319e-07
3.09576e-06
8.59458e-06
2.10863e-05
3.19081e-05
3.26128e-05
2.93397e-05
2.58619e-05
2.35367e-05
2.24635e-05
2.24055e-05
2.30682e-05
2.41845e-05
2.55184e-05
2.68354e-05
2.78828e-05
2.83989e-05
2.81647e-05
2.70933e-05
2.53163e-05
2.31369e-05
2.07859e-05
1.8405e-05
1.61553e-05
1.41992e-05
1.26832e-05
1.17557e-05
1.16401e-05
1.27739e-05
1.59035e-05
2.12657e-05
2.11609e-05
8.71042e-06
2.9675e-06
2.80566e-07