/*--------------------------------*- C++ -*----------------------------------*\
| =========                 |                                                 |
| \\      /  F ield         | OpenFOAM: The Open Source CFD Toolbox           |
|  \\    /   O peration     | Version:  v1906                                 |
|   \\  /    A nd           | Web:      www.OpenFOAM.com                      |
|    \\/     M anipulation  |                                                 |
\*---------------------------------------------------------------------------*/
FoamFile
{
    version     2.0;
    format      ascii;
    class       volScalarField;
    location    "63";
    object      k;
}
// * * * * * * * * * * * * * * * * * * * * * * * * * * * * * * * * * * * * * //

dimensions      [0 2 -2 0 0 0 0];


internalField   nonuniform List<scalar> 
78750
(
9.66213e-07
6.54232e-06
1.17398e-05
1.65191e-05
2.0934e-05
2.50106e-05
2.87252e-05
3.20405e-05
3.49328e-05
3.73958e-05
3.94414e-05
4.10826e-05
4.23326e-05
4.32056e-05
4.37165e-05
4.38809e-05
4.37147e-05
4.32344e-05
4.24576e-05
4.1404e-05
4.0095e-05
3.85606e-05
3.68123e-05
3.48634e-05
3.27375e-05
3.04502e-05
2.8012e-05
2.54268e-05
2.26894e-05
1.97807e-05
1.66681e-05
1.33035e-05
9.67201e-06
5.93441e-06
2.59664e-06
1.43052e-06
1.40636e-05
2.58001e-05
3.71246e-05
4.78869e-05
5.77111e-05
6.63263e-05
7.36379e-05
7.96716e-05
8.45352e-05
8.83118e-05
9.1043e-05
9.27748e-05
9.35594e-05
9.34536e-05
9.25174e-05
9.0813e-05
8.84033e-05
8.53558e-05
8.17455e-05
7.76547e-05
7.31695e-05
6.83677e-05
6.3335e-05
5.81628e-05
5.29271e-05
4.769e-05
4.25053e-05
3.7417e-05
3.23755e-05
2.72433e-05
2.19845e-05
1.70203e-05
1.33161e-05
1.18728e-05
2.00079e-06
1.59959e-05
2.95121e-05
4.25822e-05
5.48473e-05
6.58529e-05
7.5286e-05
8.30551e-05
8.92681e-05
9.41576e-05
9.78775e-05
0.000100493
0.000102071
0.000102677
0.000102377
0.000101238
9.93363e-05
9.67261e-05
9.34395e-05
8.95416e-05
8.51269e-05
8.03116e-05
7.52096e-05
6.99186e-05
6.45175e-05
5.90721e-05
5.36388e-05
4.82552e-05
4.29179e-05
3.7558e-05
3.20943e-05
2.66724e-05
2.20107e-05
1.89855e-05
1.83638e-05
3.65222e-06
2.40616e-05
4.34946e-05
6.13765e-05
7.69043e-05
8.9616e-05
9.95645e-05
0.000107127
0.000112735
0.000116745
0.000119352
0.000120683
0.000120862
0.000120012
0.000118232
0.000115584
0.000112141
0.000108
0.000103276
9.81054e-05
9.26453e-05
8.70635e-05
8.15024e-05
7.60347e-05
7.06472e-05
6.52895e-05
5.99168e-05
5.44948e-05
4.89749e-05
4.32878e-05
3.74433e-05
3.17903e-05
2.72878e-05
2.46294e-05
2.43558e-05
5.15858e-06
3.01618e-05
5.34253e-05
7.38689e-05
9.04816e-05
0.000103127
0.000112421
0.000119208
0.000124091
0.000127343
0.00012912
0.000129567
0.00012882
0.000126977
0.00012409
0.000120234
0.000115522
0.000110103
0.000104166
9.79291e-05
9.16499e-05
8.56129e-05
8.00512e-05
7.50292e-05
7.04439e-05
6.61047e-05
6.18046e-05
5.73579e-05
5.26049e-05
4.74356e-05
4.19173e-05
3.65465e-05
3.23802e-05
2.98995e-05
2.93844e-05
7.11768e-06
3.66233e-05
6.36167e-05
8.66025e-05
0.000104484
0.000117537
0.000126872
0.000133558
0.000138209
0.000141096
0.000142401
0.000142288
0.000140829
0.000138069
0.000134078
0.000128971
0.000122913
0.000116112
0.000108805
0.000101262
9.37936e-05
8.67643e-05
8.05044e-05
7.5137e-05
7.05775e-05
6.66133e-05
6.29623e-05
5.93206e-05
5.53994e-05
5.09841e-05
4.60865e-05
4.11997e-05
3.73379e-05
3.48234e-05
3.37639e-05
8.7602e-06
4.17159e-05
7.14832e-05
9.62364e-05
0.000114867
0.000128056
0.000137297
0.000143819
0.000148219
0.000150747
0.000151613
0.000150923
0.000148711
0.000145024
0.000139956
0.000133672
0.000126393
0.000118384
0.000109941
0.000101391
9.31178e-05
8.55666e-05
7.90806e-05
7.37277e-05
6.94018e-05
6.5894e-05
6.2914e-05
6.01159e-05
5.7137e-05
5.36724e-05
4.96415e-05
4.54511e-05
4.19617e-05
3.93896e-05
3.77825e-05
1.05945e-05
4.70489e-05
7.96091e-05
0.000106202
0.000125763
0.000139344
0.000148754
0.000155264
0.000159519
0.000161848
0.000162408
0.000161249
0.000158396
0.000153901
0.000147887
0.000140556
0.000132171
0.000123037
0.000113489
0.000103895
9.46901e-05
8.63843e-05
7.93497e-05
7.36313e-05
6.91237e-05
6.56454e-05
6.29399e-05
6.06733e-05
5.84543e-05
5.58983e-05
5.27909e-05
4.9363e-05
4.626e-05
4.36148e-05
4.1484e-05
1.20514e-05
5.11779e-05
8.59115e-05
0.000113978
0.000134321
0.000148259
0.000157832
0.000164392
0.0001686
0.000170765
0.000171013
0.000169379
0.000165883
0.000160596
0.000153675
0.000145363
0.00013597
0.000125847
0.000115373
0.000104972
9.5151e-05
8.64863e-05
7.92749e-05
7.3473e-05
6.8951e-05
6.5549e-05
6.30601e-05
6.12047e-05
5.96163e-05
5.78735e-05
5.56424e-05
5.2959e-05
5.02378e-05
4.75466e-05
4.50219e-05
1.37203e-05
5.58007e-05
9.29045e-05
0.00012255
0.000143727
0.000158054
0.000167805
0.000174413
0.000178556
0.000180537
0.00018047
0.000178378
0.000174278
0.000168257
0.000160496
0.000151274
0.000140934
0.000129865
0.000118483
0.000107258
9.67598e-05
8.763e-05
8.01207e-05
7.41192e-05
6.94651e-05
6.6003e-05
6.35664e-05
6.19372e-05
6.07994e-05
5.97249e-05
5.82753e-05
5.62814e-05
5.39318e-05
5.12302e-05
4.84057e-05
1.51369e-05
5.96109e-05
9.86598e-05
0.000129644
0.000151574
0.00016629
0.000176242
0.00018293
0.000187044
0.000188876
0.000188524
0.000185998
0.000181321
0.000174594
0.000166034
0.000155954
0.000144738
0.000132815
0.000120643
0.000108749
9.77789e-05
8.84347e-05
8.08566e-05
7.48485e-05
7.02095e-05
6.67783e-05
6.44167e-05
6.29654e-05
6.21715e-05
6.16288e-05
6.08284e-05
5.94234e-05
5.74036e-05
5.47047e-05
5.1641e-05
1.67543e-05
6.3856e-05
0.000105012
0.000137391
0.000160061
0.000175135
0.000185259
0.000191999
0.000196055
0.000197712
0.000197057
0.000194094
0.000188849
0.000181441
0.000172111
0.000161204
0.000149138
0.000136373
0.000123406
0.000110814
9.93128e-05
8.96716e-05
8.1962e-05
7.59139e-05
7.12784e-05
6.78734e-05
6.55697e-05
6.42485e-05
6.37136e-05
6.35912e-05
6.33258e-05
6.24187e-05
6.0689e-05
5.79976e-05
5.47185e-05
1.82384e-05
6.76149e-05
0.000110595
0.0001442
0.000167547
0.000182974
0.000193284
0.000200098
0.000204122
0.000205633
0.000204703
0.00020133
0.000195546
0.00018749
0.000177431
0.000165744
0.00015288
0.000139336
0.000125647
0.000112445
0.000100523
9.0711e-05
8.29823e-05
7.69977e-05
7.24612e-05
6.91624e-05
6.69711e-05
6.57946e-05
6.54817e-05
6.56938e-05
6.58518e-05
6.53408e-05
6.38436e-05
6.11394e-05
5.76357e-05
1.98745e-05
7.16551e-05
0.000116543
0.000151388
0.000175383
0.000191129
0.000201601
0.00020847
0.000212447
0.0002138
0.00021259
0.000208813
0.000202507
0.000193829
0.000183069
0.00017063
0.000156989
0.000142671
0.000128245
0.000114395
0.000101984
9.19223e-05
8.41231e-05
7.81813e-05
7.37488e-05
7.05802e-05
6.85305e-05
6.75148e-05
6.74092e-05
6.79026e-05
6.84026e-05
6.82065e-05
6.68897e-05
6.41463e-05
6.03943e-05
2.14422e-05
7.53971e-05
0.000122004
0.000157973
0.000182572
0.000198637
0.000209284
0.000216229
0.000220183
0.000221404
0.000219944
0.000215793
0.000209001
0.000199741
0.000188327
0.000175186
0.000160819
0.000145778
0.000130663
0.000116206
0.000103342
9.30627e-05
8.52224e-05
7.93573e-05
7.50709e-05
7.2081e-05
7.02212e-05
6.94017e-05
6.95098e-05
7.02508e-05
7.10247e-05
7.10666e-05
6.98726e-05
6.70503e-05
6.30124e-05
2.31158e-05
7.93017e-05
0.000127657
0.00016474
0.000189914
0.000206272
0.000217081
0.000224093
0.00022802
0.00022911
0.000227406
0.000222898
0.000215644
0.000205834
0.0001938
0.000179987
0.000164917
0.000149163
0.000133348
0.000118252
0.000104871
9.42953e-05
8.63578e-05
8.05402e-05
7.63971e-05
7.36055e-05
7.19688e-05
7.13795e-05
7.17191e-05
7.26952e-05
7.36989e-05
7.39207e-05
7.28006e-05
6.98606e-05
6.54976e-05
2.47521e-05
8.30083e-05
0.000132982
0.000171101
0.000196825
0.000213481
0.000224468
0.000231569
0.000235493
0.000236478
0.00023456
0.000229729
0.000222052
0.000211737
0.000199133
0.0001847
0.000168976
0.000152549
0.000136068
0.000120346
0.000106439
9.55434e-05
8.74874e-05
8.17079e-05
7.77146e-05
7.51441e-05
7.37657e-05
7.34444e-05
7.40417e-05
7.52526e-05
7.64536e-05
7.68049e-05
7.57094e-05
7.26067e-05
6.78732e-05
2.64622e-05
8.68069e-05
0.000138401
0.000177537
0.000203785
0.000220724
0.000231883
0.000239072
0.000242994
0.000243881
0.00024176
0.000236625
0.000228554
0.000217767
0.000204627
0.000189609
0.000173257
0.000156171
0.000139025
0.000122656
0.00010817
9.68751e-05
8.86381e-05
8.28565e-05
7.8997e-05
7.66542e-05
7.5558e-05
7.55374e-05
7.64212e-05
7.78773e-05
7.92598e-05
7.97058e-05
7.85963e-05
7.5291e-05
7.0145e-05
2.81514e-05
9.04645e-05
0.000143585
0.000183685
0.000210446
0.000227679
0.000239028
0.000246324
0.000250267
0.00025108
0.000248784
0.000243379
0.000234952
0.000223738
0.000210114
0.00019456
0.000177624
0.000159917
0.000142127
0.000125115
0.000110024
9.82731e-05
8.98039e-05
8.39846e-05
8.02441e-05
7.81354e-05
7.73459e-05
7.76605e-05
7.88634e-05
8.05812e-05
8.21359e-05
8.26471e-05
8.14858e-05
7.79352e-05
7.23305e-05
2.98936e-05
9.41714e-05
0.000148808
0.000189854
0.000217114
0.000234635
0.000246173
0.000253579
0.000257547
0.00025829
0.00025583
0.000250172
0.000241416
0.00022981
0.000215739
0.000199687
0.000182203
0.000163904
0.00014548
0.000127815
0.000112077
9.97862e-05
9.10097e-05
8.50961e-05
8.14417e-05
7.95586e-05
7.90884e-05
7.97651e-05
8.13182e-05
8.33209e-05
8.50519e-05
8.56127e-05
8.43713e-05
8.05379e-05
7.44309e-05
3.16243e-05
9.77681e-05
0.000153848
0.000195809
0.000223568
0.000241394
0.000253142
0.000260674
0.000264679
0.000265368
0.000262766
0.000256883
0.000247836
0.000235882
0.000221412
0.000204911
0.000186929
0.000168075
0.00014904
0.000130719
0.000114309
0.00010141
9.22583e-05
8.61967e-05
8.2596e-05
8.09303e-05
8.07923e-05
8.18581e-05
8.37917e-05
8.60998e-05
8.80085e-05
8.86039e-05
8.7258e-05
8.31072e-05
7.64553e-05
3.33933e-05
0.000101382
0.00015889
0.000201757
0.000230019
0.000248162
0.000260125
0.000267781
0.000271819
0.000272452
0.00026971
0.000263619
0.000254306
0.00024204
0.000227216
0.000210312
0.000191875
0.000172504
0.000152881
0.000133905
0.00011679
0.000103199
9.35868e-05
8.73043e-05
8.37061e-05
8.22324e-05
8.24266e-05
8.39011e-05
8.62456e-05
8.88889e-05
9.09928e-05
9.16199e-05
9.01482e-05
8.56432e-05
7.84037e-05
3.5155e-05
0.000104897
0.000163771
0.00020753
0.000236322
0.000254819
0.000267019
0.000274797
0.000278858
0.000279432
0.000276562
0.000270286
0.000260744
0.000248211
0.000233081
0.00021583
0.00019699
0.000177146
0.000156966
0.000137342
0.0001195
0.000105154
9.50074e-05
8.84365e-05
8.47907e-05
8.34825e-05
8.40056e-05
8.5904e-05
8.8683e-05
9.16819e-05
9.3987e-05
9.46457e-05
9.30316e-05
8.81487e-05
8.02804e-05
3.69439e-05
0.000108399
0.000168615
0.000213269
0.000242627
0.000261549
0.000274009
0.000281861
0.000285903
0.000286397
0.000283399
0.000276956
0.000267217
0.000254459
0.000239073
0.000221526
0.000202335
0.000182066
0.000161363
0.000141105
0.000122515
0.000107343
9.65731e-05
8.96281e-05
8.58651e-05
8.46778e-05
8.55123e-05
8.78394e-05
9.10717e-05
9.44484e-05
9.69797e-05
9.77179e-05
9.59095e-05
9.06077e-05
8.20851e-05
3.87251e-05
0.000111802
0.000173293
0.000218818
0.000248776
0.000268124
0.000280851
0.000288835
0.000292828
0.000293236
0.000290123
0.000283541
0.000273643
0.000260707
0.000245117
0.00022733
0.000207845
0.000187204
0.000166022
0.000145157
0.000125818
0.000109773
9.83086e-05
9.09119e-05
8.69635e-05
8.58492e-05
8.69726e-05
8.97294e-05
9.34334e-05
9.72182e-05
0.00010001
0.000100859
9.8865e-05
9.30613e-05
8.38267e-05
4.05234e-05
0.000115174
0.000177902
0.000224274
0.000254839
0.000274547
0.000287528
0.000295672
0.000299703
0.00030002
0.000296806
0.000290111
0.000280088
0.000267015
0.000251271
0.000233298
0.000213576
0.00019262
0.000171008
0.000149569
0.000129484
0.000112522
0.00010028
9.23381e-05
8.81169e-05
8.70083e-05
8.83804e-05
9.15528e-05
9.57332e-05
9.99391e-05
0.000103016
0.000104008
0.000101847
9.55044e-05
8.55081e-05
4.23121e-05
0.000118451
0.000182353
0.00022953
0.000260663
0.000280732
0.000293981
0.000302304
0.000306406
0.000306651
0.000303357
0.000296575
0.000286463
0.000273298
0.000257448
0.000239344
0.000219444
0.000198232
0.00017625
0.000154286
0.000133486
0.000115602
0.000102524
9.39553e-05
8.9376e-05
8.8201e-05
8.9774e-05
9.3341e-05
9.80011e-05
0.000102658
0.000106093
0.000107194
0.00010485
9.79352e-05
8.71325e-05
4.41126e-05
0.000121695
0.000186747
0.00023474
0.000266371
0.000286767
0.000300274
0.000308787
0.000312992
0.00031322
0.000309853
0.000303003
0.000292832
0.000279612
0.000263705
0.000245524
0.000225503
0.000204097
0.000181806
0.000159373
0.000137895
0.000119096
0.000105113
9.58274e-05
9.07899e-05
8.94579e-05
9.11654e-05
9.50923e-05
0.000100229
0.000105362
0.000109194
0.000110404
0.000107865
0.000100352
8.87057e-05
4.58982e-05
0.000124825
0.00019096
0.000239762
0.000271829
0.00029254
0.00030631
0.000315029
0.000319366
0.000319636
0.000316191
0.000309292
0.000299093
0.000285859
0.000269941
0.000251734
0.000231651
0.000210115
0.000187585
0.000164754
0.000142664
0.000122996
0.000108073
9.80025e-05
9.24165e-05
9.08355e-05
9.26027e-05
9.68428e-05
0.00010244
0.000108058
0.000112306
0.000113627
0.000110886
0.000102753
9.0231e-05
4.76876e-05
0.000127894
0.000195055
0.000244621
0.000277116
0.000298141
0.000312177
0.000321106
0.000325581
0.000325903
0.000322412
0.000315499
0.000305309
0.0002921
0.000276213
0.000258027
0.000237936
0.000216331
0.000193628
0.000170468
0.000147833
0.000127352
0.00011146
0.000100538
9.43096e-05
9.23775e-05
9.41155e-05
9.86088e-05
0.000104641
0.000110746
0.00011542
0.000116857
0.00011391
0.000105138
9.17157e-05
4.94629e-05
0.00013087
0.000198993
0.000249277
0.000282169
0.000303494
0.000317793
0.000326939
0.000331569
0.000331968
0.000328458
0.000321552
0.000311393
0.000298236
0.000282415
0.000264295
0.000244247
0.000222633
0.000199828
0.000176419
0.000153322
0.000132105
0.000115257
0.000103453
9.65131e-05
9.41381e-05
9.57552e-05
0.000100429
0.000106851
0.000113425
0.000118526
0.000120082
0.000116927
0.000107506
9.31618e-05
5.12411e-05
0.00013379
0.000202822
0.000253785
0.000287054
0.00030867
0.00032323
0.000332595
0.00033739
0.000337888
0.000334392
0.000327507
0.000317396
0.000304318
0.000288595
0.00027058
0.000250621
0.000229053
0.000206208
0.000182621
0.000159141
0.000137262
0.000119481
0.000106775
9.90647e-05
9.61573e-05
9.75579e-05
0.000102335
0.0001091
0.000116124
0.00012164
0.000123308
0.00011994
0.000109857
9.45755e-05
5.30062e-05
0.000136623
0.000206502
0.000258092
0.000291706
0.000313597
0.000328409
0.000337993
0.000342962
0.000343582
0.000340158
0.00033328
0.000323227
0.000310248
0.000294655
0.00027678
0.000256953
0.000235481
0.000212659
0.000188969
0.000165192
0.000142742
0.00012409
0.000110503
0.00010199
9.8479e-05
9.95714e-05
0.000104361
0.000111398
0.000118826
0.000124745
0.000126526
0.000122942
0.000112189
9.59566e-05
5.47775e-05
0.000139413
0.000210092
0.000262265
0.000296196
0.000318345
0.000333401
0.000343199
0.000348338
0.000349079
0.000345728
0.000338883
0.00032892
0.000316073
0.00030064
0.000282938
0.000263278
0.000241943
0.000219194
0.000195464
0.000171466
0.000148531
0.000129079
0.00011464
0.00010531
0.000101133
0.000101828
0.000106543
0.000113789
0.000121616
0.000127868
0.000129738
0.000125932
0.000114501
9.73078e-05
5.65312e-05
0.000142125
0.000213549
0.000266243
0.000300452
0.000322841
0.000338131
0.000348141
0.000353453
0.000354326
0.000351066
0.000344275
0.000334419
0.000321723
0.000306472
0.000288969
0.000269507
0.000248346
0.000225715
0.000202006
0.000177865
0.00015454
0.000134384
0.000119158
0.000109027
0.000104148
0.000104372
0.000108926
0.000116313
0.000124495
0.000131028
0.000132954
0.00012891
0.00011679
9.86275e-05
5.8279e-05
0.000144795
0.000216948
0.000270093
0.000304545
0.000327152
0.000342663
0.000352876
0.000358361
0.000359368
0.000356207
0.000349486
0.000339758
0.000327235
0.000312189
0.000294909
0.000275669
0.000254711
0.000232235
0.000208593
0.000184372
0.00016074
0.000139974
0.000124034
0.000113134
0.000107536
0.000107227
0.000111536
0.000118987
0.000127466
0.000134227
0.000136177
0.000131877
0.000119055
9.99151e-05
6.0018e-05
0.000147389
0.00022025
0.000273742
0.00030839
0.000331198
0.000346926
0.000357343
0.000363001
0.000364144
0.000361088
0.000354455
0.000344877
0.00033255
0.000317731
0.000300695
0.000281702
0.000260975
0.000238688
0.000215157
0.000190916
0.000167058
0.000145784
0.000129217
0.000117605
0.000111298
0.000110416
0.000114409
0.000121843
0.000130547
0.000137478
0.000139414
0.000134833
0.000121294
0.000101166
6.17507e-05
0.00014989
0.000223392
0.000277209
0.000312045
0.000335049
0.000350987
0.000361604
0.000367434
0.000368718
0.000365777
0.00035924
0.000349815
0.000337696
0.000323127
0.000306351
0.000287625
0.000267151
0.000245081
0.000221698
0.000197487
0.000173474
0.000151784
0.000134676
0.000122413
0.00011542
0.00011394
0.000117555
0.000124895
0.000133747
0.000140785
0.000142664
0.000137777
0.000123505
0.00010238
6.34675e-05
0.000152315
0.00022639
0.000280473
0.00031546
0.000338639
0.000354776
0.000365586
0.000371586
0.000373014
0.000370196
0.000363777
0.000354526
0.000342623
0.000328304
0.00031182
0.000293382
0.000273185
0.000251359
0.000228159
0.000204028
0.000179929
0.000157921
0.000140361
0.000127522
0.000119881
0.000117799
0.000120988
0.000128161
0.000137085
0.00014416
0.000145936
0.000140711
0.000125684
0.000103552
6.51745e-05
0.000154647
0.000229241
0.000283558
0.000318683
0.000342028
0.000358357
0.000369354
0.00037552
0.000377091
0.000374401
0.00036811
0.000359046
0.000347376
0.000333323
0.000317123
0.000298996
0.000279095
0.000257535
0.000234548
0.000210537
0.000186414
0.000164174
0.000146248
0.000132902
0.00012466
0.000121978
0.000124702
0.000131639
0.000140558
0.000147603
0.000149227
0.000143634
0.000127831
0.00010468
6.68609e-05
0.000156883
0.000231929
0.000286432
0.000321665
0.000345158
0.000361666
0.000372842
0.000379169
0.000380882
0.000378328
0.00037218
0.000363315
0.000351892
0.000338121
0.000322224
0.000304406
0.000284825
0.000263556
0.000240812
0.000216966
0.00019288
0.0001705
0.000152295
0.000138521
0.000129731
0.000126469
0.000128705
0.000135345
0.00014418
0.000151119
0.000152539
0.000146542
0.00012994
0.000105761
6.85344e-05
0.000159035
0.000234481
0.000289135
0.000324458
0.000348087
0.000364765
0.000376111
0.000382594
0.000384447
0.000382028
0.000376032
0.000367377
0.000356209
0.000342728
0.000327144
0.000309648
0.000290386
0.000269432
0.000246957
0.000223311
0.000199321
0.000176884
0.000158483
0.00014435
0.000135063
0.000131243
0.000132976
0.000139271
0.000147951
0.000154712
0.000155875
0.000149437
0.000132015
0.000106796
7.01757e-05
0.000161073
0.000236857
0.000291621
0.000327008
0.000350758
0.000367593
0.000379099
0.000385732
0.000387722
0.000385444
0.000379613
0.000371178
0.000360276
0.000347095
0.000331835
0.000314673
0.000295742
0.000275105
0.000252936
0.000229528
0.000205692
0.000183291
0.000164784
0.00015037
0.00014064
0.000136285
0.000137501
0.000143404
0.00015186
0.000158377
0.000159232
0.000152316
0.000134049
0.000107782
7.17936e-05
0.000163025
0.000239099
0.00029394
0.000329374
0.000353229
0.00037021
0.000381867
0.000388641
0.000390765
0.000388628
0.000382967
0.000374759
0.000364128
0.000351253
0.000336321
0.000319499
0.000300907
0.000280595
0.000258724
0.000235595
0.00021197
0.000189694
0.00017117
0.000156558
0.000146448
0.000141585
0.000142273
0.00014774
0.000155906
0.000162114
0.000162612
0.000155182
0.000136046
0.000108717
7.33697e-05
0.000164859
0.000241165
0.000296046
0.000331502
0.000355448
0.000372562
0.00038436
0.000391268
0.000393522
0.000391528
0.000386049
0.000378076
0.000367724
0.00035516
0.000340563
0.000324089
0.000305847
0.000285876
0.000264329
0.000241494
0.000218129
0.000196059
0.000177605
0.000162881
0.000152463
0.000147133
0.000147289
0.000152272
0.00016008
0.000165912
0.000166002
0.000158022
0.000137997
0.000109598
7.49114e-05
0.000166603
0.000243099
0.000297988
0.000333449
0.000357471
0.000374705
0.000386634
0.000393667
0.000396046
0.000394194
0.000388902
0.000381168
0.000371097
0.000358847
0.000344586
0.000328461
0.000310573
0.00029095
0.000269739
0.000247224
0.000224159
0.000202368
0.000184061
0.000169303
0.000158649
0.000152904
0.00015254
0.000157008
0.000164395
0.000169781
0.000169414
0.000160848
0.000139912
0.000110435
7.6403e-05
0.00016823
0.000244861
0.000299726
0.000335171
0.000359254
0.000376596
0.000388644
0.000395795
0.000398294
0.000396586
0.000391491
0.000384002
0.000374217
0.000362285
0.000348363
0.00033259
0.000315059
0.000295792
0.00027493
0.000252756
0.000230031
0.000208595
0.000190506
0.000175786
0.000164966
0.000158856
0.000157987
0.000161915
0.000168826
0.000173706
0.000172833
0.000163647
0.000141781
0.000111232
7.78539e-05
0.000169768
0.000246496
0.000301308
0.000336719
0.000360848
0.000378286
0.000390443
0.000397702
0.000400316
0.00039875
0.000393856
0.000386616
0.000377118
0.000365502
0.000351918
0.000336496
0.000319322
0.000300414
0.00027991
0.000258096
0.000235744
0.000214719
0.000196912
0.000182298
0.000171377
0.000164959
0.00016362
0.000167003
0.000173387
0.0001777
0.000176273
0.000166433
0.000143625
0.000112001
7.92508e-05
0.000171192
0.000247968
0.000302695
0.000338053
0.000362215
0.000379737
0.000391993
0.000399353
0.000402077
0.000400656
0.000395973
0.000388986
0.000379778
0.000368481
0.000355236
0.000340166
0.00032335
0.000304803
0.000284664
0.000263229
0.000241286
0.000220734
0.000203264
0.000188811
0.000177845
0.000171165
0.000169376
0.000172198
0.000178035
0.000181743
0.000179728
0.000169211
0.000145462
0.00011275
8.06048e-05
0.000172532
0.000249319
0.000303934
0.000339222
0.000363403
0.000380996
0.000393341
0.000400794
0.000403622
0.000402344
0.000397875
0.000391146
0.000382229
0.000371249
0.00035834
0.000343619
0.000327159
0.000308974
0.000289206
0.000268162
0.000246656
0.000226629
0.000209543
0.000195301
0.000184343
0.000177451
0.000175253
0.000177552
0.000182783
0.000185839
0.000183204
0.000171988
0.00014729
0.000113486
8.19044e-05
0.000173762
0.000250515
0.00030499
0.00034019
0.000364378
0.000382032
0.000394456
0.000401994
0.000404924
0.000403791
0.000399546
0.000393079
0.000384456
0.000373796
0.000361224
0.000346851
0.000330747
0.000312925
0.000293532
0.000272893
0.000251852
0.000232396
0.000215738
0.000201749
0.000190842
0.000183782
0.000181216
0.000183017
0.000187609
0.000189978
0.000186696
0.00017476
0.000149106
0.00011421
8.31603e-05
0.000174911
0.000251594
0.000305905
0.000341001
0.000365182
0.000382886
0.000395379
0.000402994
0.000406021
0.000405031
0.000401015
0.000394812
0.000386484
0.000376141
0.000363904
0.000349878
0.000334128
0.000316669
0.000297656
0.000277432
0.000256882
0.00023804
0.000221849
0.000208152
0.000197336
0.00019015
0.00018725
0.00018857
0.000192508
0.000194162
0.000190209
0.000177536
0.000150915
0.000114927
8.43627e-05
0.000175955
0.000252527
0.000306647
0.000341625
0.000365788
0.000383532
0.000396086
0.000403772
0.000406892
0.000406049
0.000402269
0.000396336
0.000388305
0.000378281
0.000366379
0.000352698
0.000337303
0.000320207
0.000301579
0.000281784
0.000261748
0.000243557
0.000227865
0.000214491
0.000203797
0.000196518
0.000193314
0.000194172
0.000197449
0.000198373
0.000193733
0.00018031
0.000152715
0.000115635
8.55202e-05
0.000176917
0.000253346
0.000307254
0.000342099
0.000366233
0.000384007
0.000396614
0.000404363
0.000407572
0.000406875
0.000403335
0.000397672
0.000389938
0.000380231
0.000368662
0.000355326
0.000340283
0.000323553
0.000305314
0.000285958
0.000266462
0.000248954
0.000233791
0.000220773
0.000210238
0.000202897
0.000199414
0.000199823
0.000202433
0.000202616
0.000197276
0.000183088
0.000154511
0.000116335
8.66251e-05
0.00017778
0.000254027
0.000307699
0.000342399
0.000366495
0.000384291
0.000396943
0.000404752
0.000408048
0.000407499
0.000404206
0.000398818
0.00039138
0.000381991
0.000370754
0.000357761
0.000343073
0.000326712
0.000308871
0.000289971
0.000271042
0.000254241
0.000239626
0.000226983
0.000216625
0.00020924
0.000205506
0.000205484
0.000207432
0.000206869
0.000200824
0.000185863
0.000156298
0.000117025
8.76847e-05
0.000178563
0.000254598
0.000308017
0.000342559
0.000366606
0.000384415
0.000397106
0.000404968
0.000408349
0.00040795
0.000404908
0.000399794
0.000392652
0.000383575
0.000372668
0.000360017
0.000345684
0.000329697
0.000312265
0.000293843
0.000275519
0.000259437
0.000245384
0.000233134
0.000222979
0.000215583
0.000211614
0.000211171
0.000212456
0.000211142
0.000204385
0.000188643
0.000158082
0.000117707
8.86929e-05
0.000179254
0.000255043
0.000308188
0.00034256
0.00036655
0.000384364
0.000397088
0.000405
0.000408467
0.000408222
0.00040544
0.000400603
0.000393755
0.00038499
0.000374408
0.000362097
0.000348121
0.000332516
0.000315511
0.0002976
0.000279937
0.000264572
0.00025108
0.000239227
0.000229284
0.000221887
0.000217685
0.000216842
0.000217473
0.000215415
0.000207947
0.000191419
0.00015986
0.000118379
8.96565e-05
0.00017987
0.000255389
0.000308241
0.000342431
0.000366353
0.000384165
0.000396915
0.000404874
0.000408426
0.000408338
0.000405821
0.000401264
0.000394709
0.000386251
0.00037599
0.000364015
0.000350395
0.000335178
0.000318617
0.000301254
0.000284318
0.000269661
0.000256727
0.000245275
0.000235554
0.000228175
0.000223775
0.000222529
0.000222502
0.000219697
0.000211516
0.000194199
0.000161636
0.000119048
9.05717e-05
0.000180405
0.000255623
0.000308163
0.000342159
0.000366004
0.000383806
0.000396577
0.00040458
0.00040822
0.000408297
0.000406054
0.00040178
0.000395519
0.000387365
0.000377421
0.000365779
0.000352513
0.000337687
0.000321584
0.000304799
0.000288645
0.000274694
0.000262317
0.000251269
0.000241779
0.000234429
0.000229838
0.000228197
0.000227525
0.000223982
0.000215089
0.00019698
0.000163413
0.000119716
9.14449e-05
0.000180874
0.000255767
0.000307979
0.000341768
0.000365526
0.00038331
0.000396096
0.000404141
0.00040787
0.000408116
0.000406154
0.000402165
0.000396197
0.000388347
0.000378717
0.000367403
0.000354488
0.000340053
0.000324414
0.000308226
0.000292889
0.000279646
0.000267833
0.000257198
0.000247952
0.000240648
0.000235883
0.00023387
0.000232548
0.000228271
0.000218669
0.000199767
0.000165195
0.000120386
9.22735e-05
0.00018127
0.000255813
0.000307679
0.000341249
0.00036491
0.000382668
0.000395464
0.00040355
0.000407375
0.000407799
0.000406123
0.000402421
0.000396746
0.000389199
0.000379883
0.000368897
0.000356333
0.000342289
0.000327119
0.000311541
0.000297042
0.000284508
0.000273261
0.000263047
0.000254056
0.000246813
0.000241895
0.00023953
0.000237573
0.00023257
0.000222263
0.000202566
0.000166986
0.000121062
9.30651e-05
0.00018161
0.000255781
0.000307284
0.000340624
0.000364178
0.000381901
0.0003947
0.000402827
0.000406755
0.000407372
0.000405979
0.000402557
0.000397173
0.000389927
0.000380926
0.00037027
0.000358057
0.000344407
0.000329713
0.000314759
0.000301109
0.000289286
0.000278607
0.000268817
0.000260089
0.000252919
0.000247863
0.000245163
0.00024259
0.000236871
0.000225868
0.000205379
0.00016879
0.000121746
9.38193e-05
0.000181889
0.000255662
0.000306785
0.000339884
0.000363322
0.000381002
0.000393799
0.000401965
0.000406011
0.000406864
0.000405726
0.000402574
0.000397476
0.000390534
0.00038185
0.000371526
0.000359669
0.000346419
0.000332209
0.000317892
0.000305098
0.000293982
0.00028387
0.000274507
0.000266051
0.000258965
0.000253784
0.000250762
0.000247595
0.000241181
0.000229487
0.000208211
0.000170611
0.000122436
9.45414e-05
0.000182114
0.000255469
0.000306198
0.000339045
0.00036236
0.000379988
0.000392773
0.000400969
0.000405126
0.000406219
0.00040534
0.000402465
0.000397662
0.000391028
0.000382665
0.000372678
0.000361181
0.000348339
0.000334626
0.000320967
0.000309022
0.000298605
0.000289056
0.000280123
0.000271945
0.000264956
0.000259662
0.000256332
0.000252587
0.000245495
0.000233124
0.00021106
0.000172448
0.000123141
9.52321e-05
0.000182284
0.000255197
0.000305517
0.000338103
0.000361286
0.000378858
0.000391626
0.000399853
0.000404127
0.000405468
0.000404852
0.000402255
0.000397747
0.000391422
0.000383384
0.000373737
0.00036261
0.000350189
0.000336993
0.000324021
0.000312904
0.000303165
0.000294166
0.000285659
0.000277765
0.000270885
0.000265495
0.000261877
0.000257572
0.000249821
0.000236781
0.000213933
0.000174308
0.000123861
9.58952e-05
0.000182405
0.000254855
0.000304752
0.000337068
0.000360113
0.00037762
0.000390365
0.000398617
0.000403006
0.000404601
0.000404252
0.000401939
0.000397729
0.000391719
0.00038401
0.000374714
0.000363968
0.000351988
0.000339341
0.000327106
0.000316781
0.000307688
0.000299215
0.000291121
0.000283511
0.000276749
0.000271283
0.000267398
0.000262553
0.00025416
0.000240463
0.000216833
0.000176191
0.000124593
9.65311e-05
0.000182475
0.00025444
0.0003039
0.000335939
0.000358838
0.000376275
0.000388994
0.000397272
0.000401783
0.000403642
0.000403566
0.000401539
0.00039763
0.000391935
0.000384558
0.000375616
0.000365264
0.000353744
0.000341681
0.000330234
0.000320663
0.000312182
0.000304208
0.000296509
0.000289175
0.000282538
0.000277011
0.000272884
0.000267526
0.000258514
0.000244173
0.000219765
0.000178101
0.000125336
9.71439e-05
0.000182502
0.000253962
0.000302971
0.000334722
0.000357468
0.000374829
0.000387515
0.000395818
0.000400454
0.000402585
0.000402791
0.000401056
0.000397452
0.000392076
0.000385034
0.000376452
0.000366501
0.000355458
0.000344005
0.000333385
0.000324541
0.00031665
0.000309154
0.000301833
0.000294766
0.000288254
0.000282674
0.000278333
0.000272487
0.000262878
0.000247907
0.000222724
0.000180033
0.000126088
9.77355e-05
0.000182486
0.000253421
0.000301966
0.000333419
0.000356005
0.000373283
0.000385933
0.000394261
0.000399031
0.000401446
0.000401941
0.000400504
0.000397209
0.000392153
0.000385449
0.000377231
0.000367687
0.000357131
0.000346306
0.000336532
0.000328399
0.00032108
0.000314047
0.00030709
0.000300282
0.000293898
0.000288307
0.000283745
0.000277436
0.000267255
0.000251668
0.000225716
0.000181992
0.000126851
9.83111e-05
0.000182438
0.00025283
0.000300894
0.000332038
0.000354454
0.000371641
0.00038425
0.000392604
0.000397515
0.000400224
0.000401018
0.000399887
0.000396907
0.000392179
0.000385817
0.000377966
0.000368836
0.000358777
0.000348595
0.000339671
0.000332234
0.000325474
0.000318888
0.000312284
0.000305729
0.000299484
0.000293918
0.000289124
0.000282363
0.000271634
0.000255447
0.000228731
0.000183971
0.000127624