/*--------------------------------*- C++ -*----------------------------------*\
| =========                 |                                                 |
| \\      /  F ield         | OpenFOAM: The Open Source CFD Toolbox           |
|  \\    /   O peration     | Version:  v1906                                 |
|   \\  /    A nd           | Web:      www.OpenFOAM.com                      |
|    \\/     M anipulation  |                                                 |
\*---------------------------------------------------------------------------*/
FoamFile
{
    version     2.0;
    format      ascii;
    class       surfaceScalarField;
    location    "20.2/oil";
    object      phi;
}
// * * * * * * * * * * * * * * * * * * * * * * * * * * * * * * * * * * * * * //

dimensions      [1 0 -1 0 0 0 0];
oriented        oriented;


internalField   nonuniform List<scalar> 
80688
(
-2.61181e-06
-2.65686e-06
-2.61181e-06
-1.18092e-06
-7.3956e-07
-6.91336e-07
-3.24583e-07
-4.30347e-07
-4.25988e-07
-1.65129e-07
-7.95816e-08
-7.98728e-08
-7.46467e-08
-4.52564e-08
-4.52255e-08
-3.35529e-08
-2.07591e-08
-2.03346e-08
-1.3235e-08
-1.04718e-08
-9.84606e-09
-2.85971e-09
-5.55762e-09
-4.81765e-09
2.44916e-09
-3.07617e-09
-2.23267e-09
4.8996e-09
-1.70902e-09
-7.41383e-10
5.55111e-09
-8.80683e-10
2.29195e-10
4.97493e-09
-3.35847e-10
9.12058e-10
3.53141e-09
3.30837e-11
1.41046e-09
1.50239e-09
2.79249e-10
1.74979e-09
-8.51075e-10
4.16127e-10
1.93736e-09
-3.28125e-09
4.53962e-10
1.97623e-09
-5.55899e-09
4.02408e-10
1.87535e-09
-7.48577e-09
2.73035e-10
1.65376e-09
-8.90867e-09
8.18779e-11
1.34104e-09
-9.73086e-09
-1.49963e-10
9.72167e-10
-9.91677e-09
-4.01124e-10
5.87051e-10
-9.4857e-09
-6.58111e-10
2.27063e-10
-8.51026e-09
-9.00415e-10
-7.50147e-11
-7.10698e-09
-1.11003e-09
-2.93223e-10
-5.43386e-09
-1.27145e-09
-4.0166e-10
-3.67946e-09
-1.36173e-09
-3.92655e-10
-2.05721e-09
-1.34641e-09
-2.75817e-10
-7.91962e-10
-1.17492e-09
-9.03089e-11
-8.14e-11
-7.76554e-10
6.60106e-11
-1.71071e-10
8.96835e-11
-7.04604e-07
-1.24765e-06
-7.04604e-07
-4.26137e-07
-4.5051e-07
-5.67517e-07
-3.11467e-07
-2.9904e-07
-2.45977e-07
-1.64668e-07
-1.24392e-07
-1.01989e-07
-8.47337e-08
-7.08111e-08
-5.43794e-08
-4.08695e-08
-3.86699e-08
-2.59534e-08
-1.57314e-08
-2.36947e-08
-1.19152e-08
-1.33196e-09
-1.56501e-08
-4.30698e-09
6.65142e-09
-1.1188e-08
1.28468e-10
1.04524e-08
-8.48815e-09
2.97814e-09
1.12952e-08
-6.72712e-09
5.00373e-09
9.93892e-09
-5.50559e-09
6.52602e-09
6.94922e-09
-4.64317e-09
7.66598e-09
2.83277e-09
-4.06164e-09
8.45736e-09
-1.91911e-09
-3.72829e-09
8.89632e-09
-6.82336e-09
-3.62388e-09
8.9821e-09
-1.1426e-08
-3.72711e-09
8.73214e-09
-1.53332e-08
-4.00766e-09
8.18792e-09
-1.82416e-08
-4.42465e-09
7.41497e-09
-1.9956e-08
-4.92888e-09
6.49333e-09
-2.04003e-08
-5.46841e-09
5.51165e-09
-1.96177e-08
-5.99152e-09
4.55083e-09
-1.77549e-08
-6.44759e-09
3.68438e-09
-1.50463e-08
-6.78601e-09
2.9674e-09
-1.17981e-08
-6.95142e-09
2.43177e-09
-8.3671e-09
-6.87186e-09
2.07915e-09
-5.13622e-09
-6.44731e-09
1.87004e-09
-2.47824e-09
-5.53852e-09
1.70564e-09
-6.99652e-10
-3.95558e-09
1.40046e-09
-1.57898e-09
7.08274e-10
-4.40595e-07
-3.66457e-07
-4.40595e-07
-3.00907e-07
-3.364e-07
-2.53799e-07
-2.11094e-07
-2.2799e-07
-1.60862e-07
-1.24048e-07
-1.26909e-07
-8.45293e-08
-6.90194e-08
-8.07787e-08
-4.50606e-08
-3.35289e-08
-5.24842e-08
-2.16763e-08
-1.11134e-08
-3.73391e-08
-8.77105e-09
2.78182e-09
-2.84302e-08
-1.11509e-09
1.0847e-08
-2.30204e-08
3.76723e-09
1.46578e-08
-1.94839e-08
7.18506e-09
1.51873e-08
-1.70242e-08
9.76753e-09
1.3128e-08
-1.52357e-08
1.17895e-08
9.07702e-09
-1.39316e-08
1.33395e-08
3.62085e-09
-1.30319e-08
1.44265e-08
-2.63298e-09
-1.25046e-08
1.50301e-08
-9.07239e-09
-1.23271e-08
1.51427e-08
-1.51157e-08
-1.2468e-08
1.47842e-08
-2.02542e-08
-1.28785e-08
1.40094e-08
-2.40968e-08
-1.34893e-08
1.29073e-08
-2.63928e-08
-1.42186e-08
1.15857e-08
-2.70492e-08
-1.49763e-08
1.01643e-08
-2.61206e-08
-1.56722e-08
8.75214e-09
-2.37977e-08
-1.62166e-08
7.44616e-09
-2.03792e-08
-1.65173e-08
6.31278e-09
-1.62473e-08
-1.64704e-08
5.38709e-09
-1.18367e-08
-1.59445e-08
4.66207e-09
-7.59765e-09
-1.47626e-08
4.07626e-09
-3.95569e-09
-1.26753e-08
3.49482e-09
-1.27923e-09
-9.3142e-09
2.68217e-09
-4.14589e-09
1.2877e-09
-8.74496e-08
-1.91558e-07
-8.7449e-08
-1.22025e-07
-1.95853e-07
-1.05971e-07
-1.06984e-07
-1.57766e-07
-8.52653e-08
-7.22413e-08
-1.10437e-07
-5.12149e-08
-4.24001e-08
-8.19168e-08
-2.87032e-08
-1.91404e-08
-6.22956e-08
-1.34483e-08
-2.48909e-09
-5.0244e-08
-3.74644e-09
8.7428e-09
-4.23875e-08
2.72548e-09
1.55177e-08
-3.71224e-08
7.32711e-09
1.85604e-08
-3.33774e-08
1.08508e-08
1.84302e-08
-3.05845e-08
1.36906e-08
1.5634e-08
-2.8446e-08
1.60065e-08
1.07075e-08
-2.68295e-08
1.78243e-08
4.24841e-09
-2.56871e-08
1.91143e-08
-3.08408e-09
-2.50035e-08
1.98314e-08
-1.06047e-08
-2.47622e-08
1.99558e-08
-1.7653e-08
-2.49266e-08
1.95069e-08
-2.3649e-08
-2.54319e-08
1.85494e-08
-2.81446e-08
-2.61832e-08
1.71895e-08
-3.08574e-08
-2.7064e-08
1.55582e-08
-3.16833e-08
-2.79468e-08
1.37965e-08
-3.06904e-08
-2.8702e-08
1.20369e-08
-2.80957e-08
-2.92007e-08
1.03894e-08
-2.42369e-08
-2.93054e-08
8.9294e-09
-1.95361e-08
-2.88642e-08
7.693e-09
-1.4464e-08
-2.76832e-08
6.66669e-09
-9.50324e-09
-2.54995e-08
5.77611e-09
-5.1108e-09
-2.19324e-08
4.86472e-09
-1.72714e-09
-1.63615e-08
3.66372e-09
-7.61019e-09
1.73717e-09
-4.66551e-08
-9.82484e-08
-4.66544e-08
-6.28888e-08
-1.24441e-07
-5.51783e-08
-5.70486e-08
-1.18348e-07
-4.52582e-08
-3.97313e-08
-9.89368e-08
-2.88174e-08
-2.19713e-08
-8.38034e-08
-1.58734e-08
-6.33719e-09
-7.18397e-08
-6.08998e-09
5.91137e-09
-6.3443e-08
9.50486e-10
1.46552e-08
-5.73455e-08
6.21417e-09
1.99853e-08
-5.28262e-08
1.03738e-08
2.20921e-08
-4.9324e-08
1.38397e-08
2.12259e-08
-4.65227e-08
1.68045e-08
1.77299e-08
-4.42644e-08
1.93143e-08
1.20662e-08
-4.24956e-08
2.13298e-08
4.81806e-09
-4.12138e-08
2.2775e-08
-3.33109e-09
-4.0432e-08
2.35777e-08
-1.16527e-08
-4.01443e-08
2.37036e-08
-1.9435e-08
-4.03135e-08
2.31692e-08
-2.605e-08
-4.08636e-08
2.20467e-08
-3.10138e-08
-4.16783e-08
2.0459e-08
-3.40241e-08
-4.26117e-08
1.85581e-08
-3.49742e-08
-4.35047e-08
1.65079e-08
-3.39426e-08
-4.41918e-08
1.44582e-08
-3.1168e-08
-4.45048e-08
1.25297e-08
-2.70114e-08
-4.42693e-08
1.08073e-08
-2.19175e-08
-4.32852e-08
9.32716e-09
-1.63771e-08
-4.12955e-08
8.07184e-09
-1.08895e-08
-3.79454e-08
6.95834e-09
-5.94141e-09
-3.26948e-08
5.81432e-09
-2.04059e-09
-2.46085e-08
4.34615e-09
-1.17039e-08
2.0531e-09
-1.93948e-08
-5.94596e-08
-1.93941e-08
-2.77336e-08
-9.08914e-08
-2.5211e-08
-2.62132e-08
-9.83149e-08
-2.15537e-08
-1.73683e-08
-9.39552e-08
-1.38264e-08
-6.49777e-09
-8.81175e-08
-6.55639e-09
4.17645e-09
-8.21786e-08
-3.35257e-10
1.3193e-08
-7.72245e-08
4.76499e-09
1.98868e-08
-7.30989e-08
9.0597e-09
2.39051e-08
-6.96611e-08
1.28165e-08
2.5116e-08
-6.673e-08
1.61952e-08
2.35601e-08
-6.42059e-08
1.92391e-08
1.94532e-08
-6.20591e-08
2.19016e-08
1.31906e-08
-6.03138e-08
2.40809e-08
5.33535e-09
-5.90162e-08
2.56576e-08
-3.42005e-09
-5.82065e-08
2.653e-08
-1.23218e-08
-5.78926e-08
2.66501e-08
-2.06266e-08
-5.804e-08
2.60313e-08
-2.7673e-08
-5.85675e-08
2.47503e-08
-3.29553e-08
-5.93438e-08
2.29477e-08
-3.61611e-08
-6.02034e-08
2.07975e-08
-3.71862e-08
-6.09646e-08
1.84851e-08
-3.61208e-08
-6.14329e-08
1.61757e-08
-3.32203e-08
-6.14136e-08
1.40083e-08
-2.88615e-08
-6.06977e-08
1.20696e-08
-2.35032e-08
-5.90412e-08
1.03977e-08
-1.76456e-08
-5.61248e-08
8.97172e-09
-1.18011e-08
-5.14929e-08
7.70301e-09
-6.47784e-09
-4.44262e-08
6.40816e-09
-2.237e-09
-3.36222e-08
4.77291e-09
-1.61929e-08
2.25209e-09
-7.96999e-09
-4.35202e-08
-7.96931e-09
-1.14344e-08
-7.67146e-08
-1.07124e-08
-9.84138e-09
-9.09972e-08
-8.91067e-09
-3.92167e-09
-9.50127e-08
-4.86219e-09
3.76334e-09
-9.5294e-08
-5.08481e-10
1.16956e-08
-9.37812e-08
3.67029e-09
1.86607e-08
-9.173e-08
7.54045e-09
2.38979e-08
-8.95059e-08
1.11697e-08
2.69025e-08
-8.7296e-08
1.46303e-08
2.73887e-08
-8.51572e-08
1.79411e-08
2.52782e-08
-8.31445e-08
2.10492e-08
2.07048e-08
-8.13248e-08
2.38391e-08
1.40163e-08
-7.97808e-08
2.61556e-08
5.75169e-09
-7.85961e-08
2.78445e-08
-3.39409e-09
-7.78355e-08
2.87748e-08
-1.2657e-08
-7.75144e-08
2.88847e-08
-2.12775e-08
-7.76039e-08
2.81845e-08
-2.85753e-08
-7.80254e-08
2.67557e-08
-3.40339e-08
-7.86421e-08
2.4757e-08
-3.73369e-08
-7.92804e-08
2.238e-08
-3.83879e-08
-7.97459e-08
1.98323e-08
-3.72889e-08
-7.98322e-08
1.73003e-08
-3.43092e-08
-7.93245e-08
1.49312e-08
-2.98356e-08
-7.79896e-08
1.28183e-08
-2.43339e-08
-7.55436e-08
1.10008e-08
-1.83073e-08
-7.16055e-08
9.45415e-09
-1.22726e-08
-6.56126e-08
8.08499e-09
-6.75124e-09
-5.66514e-08
6.70393e-09
-2.33419e-09
-4.30232e-08
4.98392e-09
-2.08785e-08
2.35136e-09
-2.74362e-09
-3.80335e-08
-2.74307e-09
-3.12498e-09
-7.2925e-08
-3.40816e-09
-7.85077e-10
-9.12172e-08
-2.11992e-09
4.10132e-09
-1.00224e-07
3.2498e-10
1.02405e-08
-1.04621e-07
3.18744e-09
1.66085e-08
-1.06372e-07
6.2229e-09
2.22587e-08
-1.06721e-07
9.3408e-09
2.64821e-08
-1.06261e-07
1.25317e-08
2.87403e-08
-1.05335e-07
1.57808e-08
2.86931e-08
-1.04143e-07
1.90331e-08
2.61994e-08
-1.0283e-07
2.21788e-08
2.13429e-08
-1.01527e-07
2.50587e-08
1.44351e-08
-1.0035e-07
2.74774e-08
5.99584e-09
-9.94051e-08
2.92483e-08
-3.29069e-09
-9.87648e-08
3.02158e-08
-1.26659e-08
-9.84529e-08
3.03138e-08
-2.13722e-08
-9.84455e-08
2.95479e-08
-2.87247e-08
-9.86714e-08
2.79985e-08
-3.42076e-08
-9.8998e-08
2.58389e-08
-3.75077e-08
-9.92613e-08
2.32811e-08
-3.85391e-08
-9.92663e-08
2.05519e-08
-3.74156e-08
-9.88064e-08
1.78507e-08
-3.44132e-08
-9.76595e-08
1.53325e-08
-2.99237e-08
-9.5576e-08
1.3097e-08
-2.44119e-08
-9.22396e-08
1.11842e-08
-1.83755e-08
-8.72093e-08
9.5674e-09
-1.23248e-08
-7.98125e-08
8.14919e-09
-6.7814e-09
-6.89323e-08
6.73755e-09
-2.34353e-09
-5.24636e-08
5.00252e-09
-2.55839e-08
2.36195e-09
-3.57654e-10
-3.73185e-08
-3.57365e-10
9.48524e-10
-7.44246e-08
1.93417e-10
3.93162e-09
-9.55882e-08
1.38799e-09
8.46238e-09
-1.07883e-07
3.12827e-09
1.3802e-08
-1.15188e-07
5.22742e-09
1.92262e-08
-1.19412e-07
7.61601e-09
2.40017e-08
-1.21757e-07
1.02603e-08
2.75059e-08
-1.22902e-07
1.3137e-08
2.92329e-08
-1.23267e-07
1.6205e-08
2.88304e-08
-1.23115e-07
1.93745e-08
2.61403e-08
-1.22642e-07
2.25028e-08
2.12112e-08
-1.22001e-07
2.54032e-08
1.433e-08
-1.21321e-07
2.7852e-08
5.99099e-09
-1.20713e-07
2.9647e-08
-3.14189e-09
-1.20254e-07
3.06218e-08
-1.23377e-08
-1.19963e-07
3.0706e-08
-2.08626e-08
-1.19823e-07
2.99029e-08
-2.80476e-08
-1.19775e-07
2.82886e-08
-3.33874e-08
-1.19704e-07
2.60456e-08
-3.65809e-08
-1.19458e-07
2.33904e-08
-3.75524e-08
-1.18856e-07
2.05612e-08
-3.64233e-08
-1.17709e-07
1.77731e-08
-3.34704e-08
-1.15799e-07
1.51871e-08
-2.90842e-08
-1.12866e-07
1.29042e-08
-2.37148e-08
-1.08569e-07
1.09601e-08
-1.78436e-08
-1.02408e-07
9.32801e-09
-1.19627e-08
-9.36084e-08
7.91495e-09
-6.57719e-09
-8.08457e-08
6.52788e-09
-2.26974e-09
-6.16126e-08
4.84159e-09
-3.01421e-08
2.28844e-09
6.95688e-10
-3.87097e-08
6.95544e-10
2.816e-09
-7.83962e-08
1.85137e-09
6.10649e-09
-1.01901e-07
3.02259e-09
1.03851e-08
-1.16578e-07
4.41657e-09
1.51562e-08
-1.26048e-07
6.08935e-09
1.98814e-08
-1.32208e-07
8.07098e-09
2.3986e-08
-1.36234e-07
1.03724e-08
2.69312e-08
-1.38826e-07
1.29785e-08
2.82681e-08
-1.4044e-07
1.58366e-08
2.76649e-08
-1.41363e-07
1.88511e-08
2.49553e-08
-1.41797e-07
2.18646e-08
2.01786e-08
-1.41901e-07
2.46767e-08
1.35973e-08
-1.41798e-07
2.70581e-08
5.67192e-09
-1.41592e-07
2.88043e-08
-2.97318e-09
-1.41347e-07
2.97389e-08
-1.16592e-08
-1.41086e-07
2.9809e-08
-1.97041e-08
-1.40795e-07
2.9016e-08
-2.64723e-08
-1.40423e-07
2.74165e-08
-3.14865e-08
-1.39879e-07
2.51894e-08
-3.44649e-08
-1.39034e-07
2.2554e-08
-3.53403e-08
-1.37735e-07
1.97547e-08
-3.42368e-08
-1.35811e-07
1.69986e-08
-3.14263e-08
-1.3306e-07
1.44504e-08
-2.72779e-08
-1.29225e-07
1.22103e-08
-2.22195e-08
-1.23942e-07
1.03146e-08
-1.67014e-08
-1.16665e-07
8.73835e-09
-1.11865e-08
-1.06508e-07
7.38526e-09
-6.14293e-09
-9.19647e-08
6.0755e-09
-2.11589e-09
-7.01456e-08
4.50595e-09
-3.43919e-08
2.13392e-09
1.08216e-09
-4.08731e-08
1.08128e-09
3.43666e-09
-8.31915e-08
2.44077e-09
6.67692e-09
-1.0869e-07
3.54799e-09
1.05799e-08
-1.25195e-07
4.71386e-09
1.47765e-08
-1.36333e-07
6.08849e-09
1.88477e-08
-1.44035e-07
7.75508e-09
2.23315e-08
-1.49465e-07
9.74732e-09
2.47847e-08
-1.53335e-07
1.20562e-08
2.5815e-08
-1.56104e-07
1.46334e-08
2.5127e-08
-1.58057e-07
1.73821e-08
2.257e-08
-1.59386e-07
2.01458e-08
1.81759e-08
-1.6024e-07
2.27328e-08
1.21797e-08
-1.60721e-07
2.49191e-08
4.999e-09
-1.60925e-07
2.65135e-08
-2.80387e-09
-1.60899e-07
2.73541e-08
-1.06293e-08
-1.6067e-07
2.74095e-08
-1.78743e-08
-1.60227e-07
2.66772e-08
-2.39601e-08
-1.5953e-07
2.51931e-08
-2.8458e-08
-1.58504e-07
2.3123e-08
-3.11105e-08
-1.57042e-07
2.06607e-08
-3.18555e-08
-1.55028e-07
1.80379e-08
-3.08177e-08
-1.52308e-07
1.54591e-08
-2.82493e-08
-1.4871e-07
1.30817e-08
-2.44877e-08
-1.43984e-07
1.09976e-08
-1.99201e-08
-1.37752e-07
9.2421e-09
-1.49548e-08
-1.29423e-07
7.79326e-09
-1.00014e-08
-1.18028e-07
6.56627e-09
-5.4822e-09
-1.01879e-07
5.39477e-09
-1.88442e-09
-7.77452e-08
4.00188e-09
-3.81773e-08
1.90097e-09
1.10666e-09
-4.30847e-08
1.105e-09
3.30239e-09
-8.77849e-08
2.39772e-09
6.18073e-09
-1.14932e-07
3.3643e-09
9.51477e-09
-1.3285e-07
4.32129e-09
1.30216e-08
-1.45277e-07
5.43747e-09
1.63713e-08
-1.54189e-07
6.80493e-09
1.92048e-08
-1.60761e-07
8.46283e-09
2.11688e-08
-1.65712e-07
1.04132e-08
2.19337e-08
-1.69481e-07
1.26117e-08
2.12579e-08
-1.7235e-07
1.49689e-08
1.9014e-08
-1.74488e-07
1.73463e-08
1.52206e-08
-1.76017e-07
1.95706e-08
1.00907e-08
-1.7703e-07
2.14392e-08
3.97349e-09
-1.77598e-07
2.27908e-08
-2.64689e-09
-1.7777e-07
2.34913e-08
-9.27426e-09
-1.77574e-07
2.35317e-08
-1.54075e-08
-1.77005e-07
2.2912e-08
-2.0556e-08
-1.76018e-07
2.1636e-08
-2.43466e-08
-1.74554e-07
1.98398e-08
-2.65549e-08
-1.72529e-07
1.76952e-08
-2.71426e-08
-1.69848e-07
1.54079e-08
-2.62111e-08
-1.664e-07
1.31604e-08
-2.39835e-08
-1.62029e-07
1.10905e-08
-2.07545e-08
-1.56493e-07
9.27952e-09
-1.68551e-08
-1.49413e-07
7.76239e-09
-1.26293e-08
-1.40166e-07
6.51685e-09
-8.42967e-09
-1.277e-07
5.47229e-09
-4.61074e-09
-1.10188e-07
4.4905e-09
-1.57858e-09
-8.41135e-08
3.33616e-09
-4.13489e-08
1.59301e-09
9.21617e-10
-4.49256e-08
9.1929e-10
2.68599e-09
-9.15148e-08
1.96551e-09
4.94378e-09
-1.19909e-07
2.71866e-09
7.51186e-09
-1.38861e-07
3.44273e-09
1.01747e-08
-1.52227e-07
4.28642e-09
1.26978e-08
-1.62043e-07
5.33036e-09
1.48168e-08
-1.69487e-07
6.60689e-09
1.62624e-08
-1.75281e-07
8.12342e-09
1.6788e-08
-1.79849e-07
9.84263e-09
1.62018e-08
-1.83455e-07
1.16914e-08
1.44035e-08
-1.86247e-07
1.35569e-08
1.14135e-08
-1.88318e-07
1.52914e-08
7.39737e-09
-1.89748e-07
1.67335e-08
2.62896e-09
-1.90594e-07
1.77646e-08
-2.51007e-09
-1.90917e-07
1.82863e-08
-7.64314e-09
-1.90751e-07
1.831e-08
-1.23913e-08
-1.90092e-07
1.78344e-08
-1.63607e-08
-1.88893e-07
1.6845e-08
-1.9264e-08
-1.87092e-07
1.54414e-08
-2.09296e-08
-1.84615e-07
1.37524e-08
-2.13244e-08
-1.814e-07
1.19462e-08
-2.05348e-08
-1.77355e-07
1.01662e-08
-1.874e-08
-1.72349e-07
8.52557e-09
-1.61762e-08
-1.66155e-07
7.09834e-09
-1.31013e-08
-1.58397e-07
5.90813e-09
-9.79108e-09
-1.48415e-07
4.93904e-09
-6.515e-09
-1.35115e-07
4.13888e-09
-3.54754e-09
-1.16554e-07
3.39845e-09
-1.20851e-09
-8.89868e-08
2.53422e-09
-4.37779e-08
1.22055e-09
6.08226e-10
-4.61377e-08
6.03851e-10
1.74893e-09
-9.39341e-08
1.27867e-09
3.19379e-09
-1.23109e-07
1.7555e-09
4.82294e-09
-1.42709e-07
2.21851e-09
6.50921e-09
-1.5668e-07
2.7667e-09
8.10326e-09
-1.67092e-07
3.45495e-09
9.43668e-09
-1.75133e-07
4.31235e-09
1.03337e-08
-1.81516e-07
5.33794e-09
1.06329e-08
-1.86656e-07
6.50792e-09
1.02026e-08
-1.90793e-07
7.76815e-09
8.97205e-09
-1.94054e-07
9.03804e-09
6.95176e-09
-1.96521e-07
1.02229e-08
4.24601e-09
-1.98251e-07
1.12095e-08
1.04483e-09
-1.99304e-07
1.1911e-08
-2.39553e-09
-1.99735e-07
1.2259e-08
-5.81823e-09
-1.99594e-07
1.22654e-08
-8.9635e-09
-1.98876e-07
1.19296e-08
-1.15704e-08
-1.97524e-07
1.12377e-08
-1.34432e-08
-1.95484e-07
1.02654e-08
-1.44692e-08
-1.92688e-07
9.09891e-09
-1.46338e-08
-1.89088e-07
7.8534e-09
-1.4006e-08
-1.84619e-07
6.63586e-09
-1.27131e-08
-1.79164e-07
5.52175e-09
-1.09174e-08
-1.72508e-07
4.55708e-09
-8.79933e-09
-1.64278e-07
3.76305e-09
-6.54103e-09
-1.53801e-07
3.12788e-09
-4.32334e-09
-1.39944e-07
2.61165e-09
-2.3358e-09
-1.20691e-07
2.1495e-09
-7.85144e-10
-9.21565e-08
1.61906e-09
-4.53578e-08
7.94729e-10
2.15982e-10
-4.65646e-08
2.10945e-10
6.06894e-10
-9.47579e-08
4.32925e-10
1.1053e-09
-1.242e-07
5.92877e-10
1.67494e-09
-1.44046e-07
7.67428e-10
2.27763e-09
-1.58281e-07
9.98356e-10
2.8593e-09
-1.68982e-07
1.30874e-09
3.35129e-09
-1.77333e-07
1.70859e-09
3.67565e-09
-1.84035e-07
2.19456e-09
3.75938e-09
-1.89496e-07
2.75664e-09
3.53215e-09
-1.93939e-07
3.37309e-09
2.95053e-09
-1.97478e-07
4.00518e-09
2.01623e-09
-2.00186e-07
4.59954e-09
7.66015e-10
-2.02099e-07
5.0977e-09
-7.14909e-10
-2.03282e-07
5.45851e-09
-2.30172e-09
-2.03784e-07
5.63556e-09
-3.8606e-09
-2.03659e-07
5.62395e-09
-5.25922e-09
-2.02903e-07
5.42609e-09
-6.3675e-09
-2.01461e-07
5.04509e-09
-7.10193e-09
-1.99282e-07
4.53208e-09
-7.42071e-09
-1.96305e-07
3.93594e-09
-7.32995e-09
-1.925e-07
3.32109e-09
-6.87981e-09
-1.87801e-07
2.73144e-09
-6.13991e-09
-1.82109e-07
2.20565e-09
-5.18518e-09
-1.75229e-07
1.76629e-09
-4.11131e-09
-1.66767e-07
1.41531e-09
-2.99922e-09
-1.56064e-07
1.15007e-09
-1.94093e-09
-1.41957e-07
9.54496e-10
-1.0176e-09
-1.22413e-07
7.98519e-10
-3.26444e-10
-9.34752e-08
6.27625e-10
-4.60181e-08
3.33886e-10
-2.177e-10
-4.61231e-08
-2.23786e-10
-6.40784e-10
-9.38369e-08
-4.97908e-10
-1.16998e-09
-1.22991e-07
-6.80375e-10
-1.72993e-09
-1.42677e-07
-8.08367e-10
-2.26831e-09
-1.56837e-07
-9.0475e-10
-2.74183e-09
-1.67525e-07
-9.83969e-10
-3.11792e-09
-1.75903e-07
-1.05404e-09
-3.37459e-09
-1.82663e-07
-1.11526e-09
-3.50081e-09
-1.88202e-07
-1.16778e-09
-3.49672e-09
-1.92735e-07
-1.20826e-09
-3.37346e-09
-1.96372e-07
-1.22944e-09
-3.15849e-09
-1.99179e-07
-1.22171e-09
-2.88143e-09
-2.01188e-07
-1.18768e-09
-2.56487e-09
-2.02451e-07
-1.14721e-09
-2.22265e-09
-2.03001e-07
-1.12513e-09
-1.84397e-09
-2.02886e-07
-1.15198e-09
-1.42124e-09
-2.02104e-07
-1.2226e-09
-9.66538e-10
-2.00607e-07
-1.3083e-09
-5.12718e-10
-1.98364e-07
-1.37135e-09
-9.03271e-11
-1.95332e-07
-1.39572e-09
2.60647e-10
-1.91475e-07
-1.37574e-09
5.26241e-10
-1.86748e-07
-1.31786e-09
6.97586e-10
-1.81046e-07
-1.23479e-09
7.68568e-10
-1.74165e-07
-1.13424e-09
7.57729e-10
-1.65735e-07
-1.02069e-09
6.72419e-10
-1.5508e-07
-8.97969e-10
5.33253e-10
-1.41057e-07
-7.61219e-10
3.50175e-10
-1.2163e-07
-5.99574e-10
1.49583e-10
-9.2877e-08
-3.97612e-10
-4.57247e-08
-1.4379e-10
-6.63795e-10
-4.4789e-08
-6.70248e-10
-1.92466e-09
-9.11227e-08
-1.45336e-09
-3.49422e-09
-1.19439e-07
-1.98238e-09
-5.19833e-09
-1.3856e-07
-2.41357e-09
-6.88323e-09
-1.52317e-07
-2.83536e-09
-8.4151e-09
-1.62693e-07
-3.29986e-09
-9.66033e-09
-1.70819e-07
-3.83844e-09
-1.04999e-08
-1.77368e-07
-4.45593e-09
-1.08353e-08
-1.82728e-07
-5.13934e-09
-1.06018e-08
-1.87115e-07
-5.85269e-09
-9.78179e-09
-1.90648e-07
-6.54426e-09
-8.41342e-09
-1.93387e-07
-7.16021e-09
-6.59477e-09
-1.95366e-07
-7.64089e-09
-4.45678e-09
-1.96625e-07
-7.96356e-09
-2.15265e-09
-1.97181e-07
-8.124e-09
1.9376e-10
-1.97072e-07
-8.16023e-09
2.45304e-09
-1.96293e-07
-8.06987e-09
4.47429e-09
-1.94815e-07
-7.81333e-09
6.11157e-09
-1.92624e-07
-7.37766e-09
7.25785e-09
-1.8969e-07
-6.78849e-09
7.86206e-09
-1.85977e-07
-6.10273e-09
7.9303e-09
-1.81439e-07
-5.37768e-09
7.51622e-09
-1.75963e-07
-4.66826e-09
6.70662e-09
-1.69341e-07
-4.015e-09
5.60809e-09
-1.61201e-07
-3.43529e-09
4.33278e-09
-1.50878e-07
-2.92688e-09
2.99323e-09
-1.37257e-07
-2.45992e-09
1.71014e-09
-1.18363e-07
-1.98362e-09
6.2231e-10
-9.03751e-08
-1.41411e-09
-4.44849e-08
-6.17507e-10
-1.09598e-09
-4.25891e-08
-1.10391e-09
-3.16678e-09
-8.66731e-08
-2.37877e-09
-5.74293e-09
-1.13618e-07
-3.24407e-09
-8.54431e-09
-1.31796e-07
-3.96221e-09
-1.13333e-08
-1.44838e-07
-4.6906e-09
-1.38768e-08
-1.54629e-07
-5.52072e-09
-1.59538e-08
-1.62246e-07
-6.49617e-09
-1.73522e-08
-1.68333e-07
-7.63583e-09
-1.78932e-08
-1.7327e-07
-8.91629e-09
-1.74516e-08
-1.77275e-07
-1.02818e-08
-1.59731e-08
-1.80481e-07
-1.16452e-08
-1.35086e-08
-1.82958e-07
-1.28933e-08
-1.02062e-08
-1.84756e-07
-1.39124e-08
-6.30171e-09
-1.85903e-07
-1.4627e-08
-2.08529e-09
-1.86415e-07
-1.49832e-08
2.17733e-09
-1.86307e-07
-1.5028e-08
6.21451e-09
-1.85577e-07
-1.47534e-08
9.7331e-09
-1.84222e-07
-1.41123e-08
1.24847e-08
-1.82231e-07
-1.31447e-08
1.43025e-08
-1.79578e-07
-1.19297e-08
1.5127e-08
-1.76221e-07
-1.05799e-08
1.49935e-08
-1.72098e-07
-9.20726e-09
1.40145e-08
-1.6708e-07
-7.90473e-09
1.23595e-08
-1.60953e-07
-6.73267e-09
1.02209e-08
-1.53345e-07
-5.7181e-09
7.81002e-09
-1.43623e-07
-4.84395e-09
5.33339e-09
-1.30713e-07
-4.06717e-09
3.00158e-09
-1.12736e-07
-3.29614e-09
1.07251e-09
-8.60687e-08
-2.37723e-09
-4.23444e-08
-1.06803e-09
-1.49308e-09
-3.95951e-08
-1.50093e-09
-4.30432e-09
-8.06365e-08
-3.22536e-09
-7.80194e-09
-1.05726e-07
-4.39458e-09
-1.16066e-08
-1.22619e-07
-5.3728e-09
-1.53985e-08
-1.34672e-07
-6.3731e-09
-1.88635e-08
-1.4364e-07
-7.52351e-09
-2.16971e-08
-1.50523e-07
-8.88942e-09
-2.36069e-08
-1.55932e-07
-1.04916e-08
-2.43438e-08
-1.60226e-07
-1.23078e-08
-2.37182e-08
-1.63637e-07
-1.4264e-08
-2.16518e-08
-1.66308e-07
-1.62394e-08
-1.81925e-08
-1.68333e-07
-1.80848e-08
-1.3539e-08
-1.69776e-07
-1.96333e-08
-8.0097e-09
-1.70683e-07
-2.07495e-08
-2.0171e-09
-1.71078e-07
-2.13291e-08
4.0235e-09
-1.7097e-07
-2.13775e-08
9.6926e-09
-1.70362e-07
-2.08834e-08
1.45668e-08
-1.69255e-07
-1.98412e-08
1.83172e-08
-1.67629e-07
-1.83523e-08
2.07295e-08
-1.65447e-07
-1.65429e-08
2.17385e-08
-1.62649e-07
-1.45809e-08
2.14073e-08
-1.59146e-07
-1.26214e-08
1.99083e-08
-1.54793e-07
-1.07873e-08
1.74821e-08
-1.49371e-07
-9.15638e-09
1.44036e-08
-1.42512e-07
-7.75375e-09
1.09616e-08
-1.3362e-07
-6.56067e-09
7.45266e-09
-1.21694e-07
-5.51073e-09
4.17453e-09
-1.04982e-07
-4.47568e-09
1.47943e-09
-8.01283e-08
-3.24535e-09
-3.93902e-08
-1.47473e-09
-1.83697e-09
-3.59134e-08
-1.84468e-09
-5.28816e-09
-7.32258e-08
-3.95951e-09
-9.57615e-09
-9.60492e-08
-5.38898e-09
-1.42426e-08
-1.1137e-07
-6.582e-09
-1.88916e-08
-1.22223e-07
-7.80054e-09
-2.31426e-08
-1.30183e-07
-9.20568e-09
-2.6616e-08
-1.36169e-07
-1.08813e-08
-2.89578e-08
-1.40736e-07
-1.2854e-08
-2.98536e-08
-1.44238e-07
-1.50921e-08
-2.90716e-08
-1.46906e-07
-1.75123e-08
-2.65045e-08
-1.48899e-07
-1.99761e-08
-2.21995e-08
-1.50335e-07
-2.23026e-08
-1.63903e-08
-1.51307e-07
-2.42785e-08
-9.46468e-09
-1.51885e-07
-2.5723e-08
-1.94525e-09
-1.52115e-07
-2.64828e-08
5.62137e-09
-1.5201e-07
-2.65264e-08
1.26838e-08
-1.51576e-07
-2.58491e-08
1.8716e-08
-1.50809e-07
-2.44781e-08
2.33104e-08
-1.49665e-07
-2.25584e-08
2.62198e-08
-1.48088e-07
-2.02691e-08
2.73796e-08
-1.45986e-07
-1.78234e-08
2.68796e-08
-1.43242e-07
-1.54039e-08
2.49398e-08
-1.39701e-07
-1.31524e-08
2.1857e-08
-1.35132e-07
-1.11554e-08
1.7975e-08
-1.29184e-07
-9.44666e-09
1.36575e-08
-1.21302e-07
-8.001e-09
9.26625e-09
-1.10569e-07
-6.73377e-09
5.17564e-09
-9.5408e-08
-5.48311e-09
1.82872e-09
-7.27918e-08
-3.9896e-09
-3.5738e-08
-1.82347e-09
-2.11186e-09
-3.16822e-08
-2.11937e-09
-6.07429e-09
-6.4719e-08
-4.54435e-09
-1.09952e-08
-8.49521e-08
-6.1761e-09
-1.63452e-08
-9.8487e-08
-7.5332e-09
-2.16738e-08
-1.07979e-07
-8.91582e-09
-2.65424e-08
-1.14813e-07
-1.05021e-08
-3.05169e-08
-1.19805e-07
-1.23893e-08
-3.3189e-08
-1.23456e-07
-1.46085e-08
-3.41986e-08
-1.26101e-07
-1.71275e-08
-3.3281e-08
-1.27964e-07
-1.98598e-08
-3.03087e-08
-1.29223e-07
-2.26483e-08
-2.53335e-08
-1.3002e-07
-2.52907e-08
-1.86121e-08
-1.30477e-07
-2.75514e-08
-1.05903e-08
-1.30692e-07
-2.92151e-08
-1.86886e-09
-1.30736e-07
-3.01003e-08
6.89867e-09
-1.30638e-07
-3.01397e-08
1.50553e-08
-1.30404e-07
-2.9328e-08
2.19895e-08
-1.30012e-07
-2.77309e-08
2.72468e-08
-1.29398e-07
-2.55245e-08
3.05518e-08
-1.28474e-07
-2.29188e-08
3.18359e-08
-1.2712e-07
-2.01498e-08
3.12098e-08
-1.25194e-07
-1.74214e-08
2.89264e-08
-1.22524e-07
-1.48933e-08
2.53279e-08
-1.1888e-07
-1.26543e-08
2.08131e-08
-1.13931e-07
-1.07383e-08
1.57985e-08
-1.07173e-07
-9.11483e-09
1.07081e-08
-9.77923e-08
-7.68595e-09
5.97363e-09
-8.44011e-08
-6.27241e-09
2.10588e-09
-6.4347e-08
-4.57697e-09
-3.15321e-08
-2.10002e-09
-2.30951e-09
-2.70562e-08
-2.31641e-09
-6.63751e-09
-5.54285e-08
-4.96239e-09
-1.2007e-08
-7.2846e-08
-6.73663e-09
-1.78438e-08
-8.44508e-08
-8.19943e-09
-2.36545e-08
-9.24912e-08
-9.67662e-09
-2.89562e-08
-9.81471e-08
-1.13638e-08
-3.32778e-08
-1.0212e-07
-1.33631e-08
-3.617e-08
-1.04858e-07
-1.57055e-08
-3.72451e-08
-1.06662e-07
-1.8363e-08
-3.62148e-08
-1.07756e-07
-2.12383e-08
-3.29445e-08
-1.08324e-07
-2.41693e-08
-2.74901e-08
-1.08523e-07
-2.69514e-08
-2.01284e-08
-1.08503e-07
-2.93354e-08
-1.13422e-08
-1.08384e-07
-3.10939e-08
-1.78709e-09
-1.08259e-07
-3.20318e-08
7.81136e-09
-1.0817e-07
-3.20659e-08
1.67254e-08
-1.08123e-07
-3.11955e-08
2.42906e-08
-1.08082e-07
-2.94955e-08
3.00154e-08
-1.07965e-07
-2.71577e-08
3.3603e-08
-1.07652e-07
-2.44097e-08
3.4984e-08
-1.07003e-07
-2.14984e-08
3.42786e-08
-1.05859e-07
-1.86298e-08
3.17571e-08
-1.04036e-07
-1.59671e-08
2.77979e-08
-1.01311e-07
-1.36092e-08
2.28335e-08
-9.73806e-08
-1.15856e-08
1.73234e-08
-9.17972e-08
-9.8653e-09
1.17345e-08
-8.38592e-08
-8.34416e-09
6.54069e-09
-7.23797e-08
-6.82761e-09
2.30361e-09
-5.51166e-08
-4.99337e-09
-2.6931e-08
-2.29748e-09
-2.42271e-09
-2.22046e-08
-2.42889e-09
-6.95704e-09
-4.5696e-08
-5.19818e-09
-1.25833e-08
-6.01766e-08
-7.0432e-09
-1.86997e-08
-6.9783e-08
-8.5513e-09
-2.47904e-08
-7.63396e-08
-1.00608e-08
-3.03453e-08
-8.08199e-08
-1.17723e-08
-3.48625e-08
-8.38122e-08
-1.37906e-08
-3.78715e-08
-8.57002e-08
-1.61487e-08
-3.89681e-08
-8.67546e-08
-1.88113e-08
-3.78556e-08
-8.71875e-08
-2.16811e-08
-3.44e-08
-8.71774e-08
-2.4602e-08
-2.86597e-08
-8.68954e-08
-2.73676e-08
-2.09316e-08
-8.64964e-08
-2.97345e-08
-1.17176e-08
-8.6118e-08
-3.14802e-08
-1.6985e-09
-8.58633e-08
-3.24148e-08
8.36132e-09
-8.57863e-08
-3.24438e-08
1.7695e-08
-8.58912e-08
-3.15654e-08
2.5616e-08
-8.61325e-08
-2.98703e-08
3.16071e-08
-8.64105e-08
-2.75452e-08
3.53649e-08
-8.65986e-08
-2.4811e-08
3.68103e-08
-8.65389e-08
-2.19092e-08
3.60654e-08
-8.60661e-08
-1.90479e-08
3.34107e-08
-8.4998e-08
-1.63831e-08
2.92378e-08
-8.31248e-08
-1.40135e-08
2.40062e-08
-8.0174e-08
-1.1975e-08
1.82026e-08
-7.57592e-08
-1.02344e-08
1.23209e-08
-6.92905e-08
-8.68689e-09
6.86321e-09
-5.97934e-08
-7.12857e-09
2.41585e-09
-4.54436e-08
-5.22561e-09
-2.21052e-08
-2.40993e-09
-2.44485e-09
-1.73099e-08
-2.4499e-09
-7.02009e-09
-3.58816e-08
-5.23916e-09
-1.27061e-08
-4.74054e-08
-7.08507e-09
-1.88997e-08
-5.50122e-08
-8.57723e-09
-2.5075e-08
-6.01076e-08
-1.00568e-08
-3.07087e-08
-6.34618e-08
-1.17243e-08
-3.52854e-08
-6.55537e-08
-1.36818e-08
-3.83238e-08
-6.67019e-08
-1.59599e-08
-3.94126e-08
-6.71435e-08
-1.85222e-08
-3.82575e-08
-6.70671e-08
-2.12755e-08
-3.47289e-08
-6.66405e-08
-2.40655e-08
-2.88986e-08
-6.60275e-08
-2.66982e-08
-2.10649e-08
-6.53824e-08
-2.89477e-08
-1.17375e-08
-6.48422e-08
-3.06032e-08
-1.60121e-09
-6.4513e-08
-3.14866e-08
8.57275e-09
-6.44494e-08
-3.15109e-08
1.80114e-08
-6.46548e-08
-3.06749e-08
2.60231e-08
-6.50814e-08
-2.90628e-08
3.20899e-08
-6.5628e-08
-2.68493e-08
3.58996e-08
-6.61635e-08
-2.42449e-08
3.73675e-08
-6.65336e-08
-2.14731e-08
3.66084e-08
-6.65779e-08
-1.87291e-08
3.39063e-08
-6.61289e-08
-1.6167e-08
2.96552e-08
-6.49931e-08
-1.38805e-08
2.4327e-08
-6.29391e-08
-1.19066e-08
1.84228e-08
-5.96411e-08
-1.02139e-08
1.2453e-08
-5.46214e-08
-8.69924e-09
6.92821e-09
-4.7107e-08
-7.16164e-09
2.43639e-09
-3.56887e-08
-5.26307e-09
-1.72373e-08
-2.43148e-09
-2.36749e-09
-1.25704e-08
-2.37194e-09
-6.81048e-09
-2.63729e-08
-5.06572e-09
-1.23555e-08
-3.50261e-08
-6.83433e-09
-1.84274e-08
-4.06938e-08
-8.24649e-09
-2.45049e-08
-4.43953e-08
-9.63471e-09
-3.00624e-08
-4.67094e-08
-1.11948e-08
-3.45815e-08
-4.80095e-08
-1.30251e-08
-3.7576e-08
-4.85563e-08
-1.51512e-08
-3.86435e-08
-4.85392e-08
-1.75368e-08
-3.74964e-08
-4.81218e-08
-2.00924e-08
-3.40144e-08
-4.7449e-08
-2.26736e-08
-2.82766e-08
-4.66658e-08
-2.50994e-08
-2.05817e-08
-4.5913e-08
-2.71643e-08
-1.14306e-08
-4.5313e-08
-2.86803e-08
-1.49154e-09
-4.49625e-08
-2.94895e-08
8.48227e-09
-4.49131e-08
-2.95101e-08
1.77354e-08
-4.51673e-08
-2.87407e-08
2.55951e-08
-4.56797e-08
-2.72613e-08
3.15502e-08
-4.63565e-08
-2.52266e-08
3.52913e-08
-4.70785e-08
-2.28261e-08
3.67287e-08
-4.77077e-08
-2.02632e-08
3.59698e-08
-4.81017e-08
-1.77173e-08
3.32866e-08
-4.81123e-08
-1.53335e-08
2.90741e-08
-4.75791e-08
-1.32015e-08
2.3802e-08
-4.63092e-08
-1.13579e-08
1.79782e-08
-4.40415e-08
-9.7758e-09
1.2116e-08
-4.04025e-08
-8.35677e-09
6.72104e-09
-3.48082e-08
-6.90372e-09
2.3583e-09
-2.62385e-08
-5.08743e-09
-1.25239e-08
-2.35516e-09
-2.17807e-09
-8.21099e-09
-2.18136e-09
-6.30065e-09
-1.76012e-08
-4.6491e-09
-1.15037e-08
-2.35756e-08
-6.24738e-09
-1.72596e-08
-2.74329e-08
-7.50499e-09
-2.30658e-08
-2.98534e-08
-8.73577e-09
-2.84026e-08
-3.12473e-08
-1.01253e-08
-3.27546e-08
-3.18915e-08
-1.1766e-08
-3.5649e-08
-3.1982e-08
-1.36798e-08
-3.66911e-08
-3.16671e-08
-1.583e-08
-3.561e-08
-3.1072e-08
-1.81309e-08
-3.22966e-08
-3.03129e-08
-2.04495e-08
-2.68348e-08
-2.95062e-08
-2.26214e-08
-1.95131e-08
-2.87666e-08
-2.44681e-08
-1.08114e-08
-2.81941e-08
-2.58207e-08
-1.36381e-09
-2.78689e-08
-2.65411e-08
8.1151e-09
-2.78334e-08
-2.65586e-08
1.69093e-08
-2.80895e-08
-2.58719e-08
2.43799e-08
-2.85985e-08
-2.45519e-08
3.00397e-08
-2.92836e-08
-2.27327e-08
3.35893e-08
-3.00464e-08
-2.05817e-08
3.49357e-08
-3.07752e-08
-1.82788e-08
3.41745e-08
-3.13531e-08
-1.59875e-08
3.15673e-08
-3.16652e-08
-1.38399e-08
2.74951e-08
-3.15848e-08
-1.19221e-08
2.24206e-08
-3.09641e-08
-1.02705e-08
1.68476e-08
-2.96062e-08
-8.86233e-09
1.12831e-08
-2.72332e-08
-7.60469e-09
6.21784e-09
-2.3432e-08
-6.31099e-09
2.16846e-09
-1.75188e-08
-4.67031e-09
-8.18773e-09
-2.16766e-09