/*--------------------------------*- C++ -*----------------------------------*\
| =========                 |                                                 |
| \\      /  F ield         | OpenFOAM: The Open Source CFD Toolbox           |
|  \\    /   O peration     | Version:  v1906                                 |
|   \\  /    A nd           | Web:      www.OpenFOAM.com                      |
|    \\/     M anipulation  |                                                 |
\*---------------------------------------------------------------------------*/
FoamFile
{
    version     2.0;
    format      ascii;
    class       surfaceScalarField;
    location    "1.8/oil";
    object      phi;
}
// * * * * * * * * * * * * * * * * * * * * * * * * * * * * * * * * * * * * * //

dimensions      [1 0 -1 0 0 0 0];
oriented        oriented;


internalField   nonuniform List<scalar> 
80688
(
-3.31869e-06
-3.37585e-06
-3.31869e-06
-1.50179e-06
-9.38462e-07
-8.78447e-07
-4.15347e-07
-5.44997e-07
-5.41442e-07
-2.15201e-07
-9.88356e-08
-1.01311e-07
-1.0264e-07
-5.53054e-08
-5.72548e-08
-5.25678e-08
-2.43875e-08
-2.56852e-08
-2.84487e-08
-1.15808e-08
-1.25382e-08
-1.63767e-08
-5.6292e-09
-6.44284e-09
-1.00385e-08
-2.79109e-09
-3.54712e-09
-6.54665e-09
-1.38118e-09
-2.11063e-09
-4.52241e-09
-6.5614e-10
-1.36809e-09
-3.2828e-09
-2.70817e-10
-9.68795e-10
-2.4801e-09
-5.75907e-11
-7.45103e-10
-1.92884e-09
6.31753e-11
-6.1443e-10
-1.5299e-09
1.367e-10
-5.3564e-10
-1.22769e-09
1.84874e-10
-4.87078e-10
-9.88635e-10
2.18528e-10
-4.5758e-10
-7.88787e-10
2.42205e-10
-4.4205e-10
-6.07433e-10
2.56894e-10
-4.38246e-10
-4.23599e-10
2.61395e-10
-4.45226e-10
-2.17254e-10
2.54725e-10
-4.61066e-10
2.49601e-11
2.39102e-10
-4.81315e-10
2.97856e-10
2.2415e-10
-4.97043e-10
5.63397e-10
2.29249e-10
-4.94789e-10
7.45121e-10
2.77779e-10
-4.59499e-10
7.50884e-10
3.76003e-10
-3.81764e-10
5.37819e-10
4.79764e-10
-2.66696e-10
1.93302e-10
4.80068e-10
-1.35549e-10
-4.95907e-11
2.5622e-10
-1.33235e-11
-1.12121e-10
6.25323e-11
-8.96435e-07
-1.58298e-06
-8.9643e-07
-5.45538e-07
-5.65345e-07
-7.24015e-07
-4.04147e-07
-3.70175e-07
-3.16213e-07
-2.22384e-07
-1.46859e-07
-1.33738e-07
-1.25502e-07
-7.84562e-08
-7.37319e-08
-7.39112e-08
-3.7785e-08
-3.8193e-08
-4.52164e-08
-1.91553e-08
-2.11203e-08
-2.89779e-08
-9.44776e-09
-1.24199e-08
-1.94593e-08
-4.37533e-09
-7.93441e-09
-1.36648e-08
-1.60984e-09
-5.56584e-09
-9.97721e-09
-6.30138e-11
-4.28067e-09
-7.51135e-09
8.26269e-10
-3.56294e-09
-5.77126e-09
1.35061e-09
-3.14829e-09
-4.47752e-09
1.66937e-09
-2.89993e-09
-3.46841e-09
1.87049e-09
-2.7429e-09
-2.64976e-09
2.00304e-09
-2.63681e-09
-1.96315e-09
2.09265e-09
-2.56073e-09
-1.36629e-09
2.15048e-09
-2.50513e-09
-8.2227e-10
2.17946e-09
-2.46659e-09
-2.94473e-10
2.17841e-09
-2.44481e-09
2.50629e-10
2.14853e-09
-2.43891e-09
8.3247e-10
2.10176e-09
-2.4445e-09
1.43556e-09
2.07089e-09
-2.44983e-09
1.98524e-09
2.11192e-09
-2.43234e-09
2.3395e-09
2.28189e-09
-2.35837e-09
2.3283e-09
2.57575e-09
-2.18855e-09
1.86085e-09
2.83831e-09
-1.8911e-09
1.06041e-09
2.73703e-09
-1.45651e-09
3.02789e-10
1.92008e-09
-9.06235e-10
4.84731e-10
-2.94061e-10
-5.62239e-07
-4.5851e-07
-5.62233e-07
-3.89108e-07
-4.10917e-07
-3.27558e-07
-2.80745e-07
-2.67291e-07
-2.11247e-07
-1.76359e-07
-1.358e-07
-1.15446e-07
-1.12477e-07
-7.6019e-08
-6.63189e-08
-7.2691e-08
-3.98812e-08
-3.76897e-08
-4.83406e-08
-2.09272e-08
-2.25786e-08
-3.32528e-08
-1.01523e-08
-1.43833e-08
-2.36928e-08
-4.00793e-09
-9.92737e-09
-1.74419e-08
-3.89732e-10
-7.47097e-09
-1.31929e-08
1.77838e-09
-6.09047e-09
-1.01696e-08
3.10203e-09
-5.29896e-09
-7.91132e-09
3.92356e-09
-4.83127e-09
-6.14221e-09
4.44383e-09
-4.54357e-09
-4.69914e-09
4.78148e-09
-4.35405e-09
-3.48482e-09
5.00603e-09
-4.21731e-09
-2.43834e-09
5.15537e-09
-4.1092e-09
-1.51501e-09
5.24665e-09
-4.0195e-09
-6.75738e-10
5.28531e-09
-3.94512e-09
1.17862e-10
5.27252e-09
-3.88771e-09
8.99259e-10
5.21577e-09
-3.84863e-09
1.68437e-09
5.14278e-09
-3.82612e-09
2.44917e-09
5.11624e-09
-3.81015e-09
3.10511e-09
5.23269e-09
-3.77671e-09
3.49232e-09
5.57803e-09
-3.68334e-09
3.42224e-09
6.11624e-09
-3.47042e-09
2.78812e-09
6.5465e-09
-3.07407e-09
1.70756e-09
6.26723e-09
-2.44964e-09
5.85163e-10
4.64465e-09
-1.60217e-09
1.65148e-09
-5.81581e-10
-1.13919e-07
-2.30678e-07
-1.13913e-07
-1.63369e-07
-2.20426e-07
-1.41041e-07
-1.51064e-07
-1.62494e-07
-1.17101e-07
-1.14147e-07
-9.72074e-08
-7.55104e-08
-8.3195e-08
-5.86345e-08
-4.83365e-08
-5.97557e-08
-3.28904e-08
-3.04301e-08
-4.33506e-08
-1.75317e-08
-1.98005e-08
-3.20171e-08
-7.93082e-09
-1.3555e-08
-2.41579e-08
-1.93442e-09
-9.93262e-09
-1.85979e-08
1.88353e-09
-7.83327e-09
-1.4544e-08
4.33248e-09
-6.60804e-09
-1.14722e-08
5.91562e-09
-5.88541e-09
-9.04599e-09
6.94649e-09
-5.44909e-09
-7.05379e-09
7.62533e-09
-5.17369e-09
-5.36555e-09
8.07793e-09
-4.98468e-09
-3.90444e-09
8.38339e-09
-4.83847e-09
-2.62269e-09
8.58592e-09
-4.7123e-09
-1.48413e-09
8.70622e-09
-4.59813e-09
-4.56956e-10
8.75295e-09
-4.49481e-09
4.91226e-10
8.73101e-09
-4.40667e-09
1.38735e-09
8.65709e-09
-4.33745e-09
2.24084e-09
8.57802e-09
-4.28872e-09
3.02358e-09
8.58669e-09
-4.25318e-09
3.64965e-09
8.81509e-09
-4.20847e-09
3.97152e-09
9.36675e-09
-4.11059e-09
3.81947e-09
1.01602e-08
-3.89195e-09
3.10072e-09
1.07392e-08
-3.47399e-09
1.92662e-09
1.0236e-08
-2.79465e-09
6.86821e-10
7.73365e-09
-1.8492e-09
3.0232e-09
-6.84899e-10
-6.2455e-08
-1.05774e-07
-6.24494e-08
-8.9087e-08
-1.16622e-07
-7.71723e-08
-8.90507e-08
-9.53486e-08
-6.7182e-08
-7.48907e-08
-6.31517e-08
-4.82155e-08
-5.9907e-08
-4.01712e-08
-3.34471e-08
-4.67301e-08
-2.33009e-08
-2.27664e-08
-3.63902e-08
-1.20428e-08
-1.58288e-08
-2.85271e-08
-4.32658e-09
-1.14673e-08
-2.2604e-08
9.33595e-10
-8.79109e-09
-1.80926e-08
4.5429e-09
-7.17081e-09
-1.45754e-08
7.01048e-09
-6.19514e-09
-1.17462e-08
8.69331e-09
-5.6069e-09
-9.39111e-09
9.83851e-09
-5.24713e-09
-7.3709e-09
1.06196e-08
-5.01448e-09
-5.60029e-09
1.11545e-08
-4.84723e-09
-4.03174e-09
1.15212e-08
-4.70631e-09
-2.63853e-09
1.17652e-08
-4.5725e-09
-1.3996e-09
1.19088e-08
-4.44148e-09
-2.9426e-10
1.19631e-08
-4.31549e-09
7.00529e-10
1.19382e-08
-4.20196e-09
1.60299e-09
1.18624e-08
-4.10781e-09
2.41724e-09
1.18007e-08
-4.03697e-09
3.11646e-09
1.18721e-08
-3.98464e-09
3.6284e-09
1.22355e-08
-3.93234e-09
3.83574e-09
1.29985e-08
-3.83911e-09
3.60991e-09
1.40257e-08
-3.6396e-09
2.88994e-09
1.47142e-08
-3.25498e-09
1.78474e-09
1.39618e-08
-2.6206e-09
6.37236e-10
1.06111e-08
-1.72998e-09
4.29526e-09
-6.34829e-10
-2.79094e-08
-4.99606e-08
-2.79041e-08
-4.47148e-08
-6.05355e-08
-3.9281e-08
-5.04377e-08
-5.23027e-08
-3.7323e-08
-4.7372e-08
-3.6685e-08
-2.95324e-08
-4.15151e-08
-2.39127e-08
-2.21155e-08
-3.50184e-08
-1.36499e-08
-1.61476e-08
-2.91256e-08
-6.03157e-09
-1.19041e-08
-2.4122e-08
-2.80969e-10
-9.04926e-09
-1.99943e-08
4.00749e-09
-7.20155e-09
-1.65923e-08
7.18051e-09
-6.0396e-09
-1.37482e-08
9.49035e-09
-5.32395e-09
-1.13147e-08
1.11485e-08
-4.88873e-09
-9.17791e-09
1.23248e-08
-4.62302e-09
-7.26445e-09
1.31544e-08
-4.44828e-09
-5.5321e-09
1.37364e-08
-4.31419e-09
-3.9656e-09
1.41415e-08
-4.18684e-09
-2.56206e-09
1.44128e-08
-4.05108e-09
-1.31662e-09
1.45712e-08
-3.90785e-09
-2.21386e-10
1.46307e-08
-3.76281e-09
7.37442e-10
1.46071e-08
-3.62775e-09
1.57135e-09
1.45404e-08
-3.5119e-09
2.28172e-09
1.45118e-08
-3.42138e-09
2.84725e-09
1.46613e-08
-3.35472e-09
3.21594e-09
1.51632e-08
-3.29638e-09
3.30664e-09
1.61187e-08
-3.2109e-09
3.03727e-09
1.73354e-08
-3.04037e-09
2.38271e-09
1.8083e-08
-2.71429e-09
1.44651e-09
1.70731e-08
-2.17509e-09
5.079e-10
1.29683e-08
-1.41852e-09
5.30766e-09
-5.04495e-10
-1.33804e-08
-2.32048e-08
-1.33754e-08
-2.39782e-08
-2.91481e-08
-2.07896e-08
-2.96329e-08
-2.54902e-08
-2.11578e-08
-3.03695e-08
-1.78863e-08
-1.80622e-08
-2.87015e-08
-1.11565e-08
-1.44241e-08
-2.58746e-08
-5.30735e-09
-1.11695e-08
-2.27852e-08
-4.66837e-10
-8.65409e-09
-1.98087e-08
3.59746e-09
-6.85496e-09
-1.70968e-08
6.93326e-09
-5.63771e-09
-1.46649e-08
9.60046e-09
-4.85186e-09
-1.24762e-08
1.1667e-08
-4.36534e-09
-1.0479e-08
1.32263e-08
-4.07494e-09
-8.62741e-09
1.4377e-08
-3.90385e-09
-6.89538e-09
1.52137e-08
-3.79125e-09
-5.2766e-09
1.58131e-08
-3.69553e-09
-3.78494e-09
1.62352e-08
-3.58533e-09
-2.44033e-09
1.65175e-08
-3.4493e-09
-1.25296e-09
1.66791e-08
-3.29534e-09
-2.25927e-10
1.67369e-08
-3.13325e-09
6.47306e-10
1.67127e-08
-2.97886e-09
1.3743e-09
1.6657e-08
-2.84357e-09
1.95681e-09
1.66653e-08
-2.73609e-09
2.38225e-09
1.6892e-08
-2.6561e-09
2.6186e-09
1.75183e-08
-2.5915e-09
2.61947e-09
1.86306e-08
-2.51274e-09
2.34306e-09
1.99824e-08
-2.37058e-09
1.79266e-09
2.07389e-08
-2.10548e-09
1.06183e-09
1.94746e-08
-1.67065e-09
3.61974e-10
1.47344e-08
-1.06625e-09
6.02778e-09
-3.58142e-10
-6.64556e-09
-9.91833e-09
-6.64091e-09
-1.31605e-08
-1.13603e-08
-1.12729e-08
-1.76958e-08
-8.74781e-09
-1.22071e-08
-1.96118e-08
-4.84829e-09
-1.11219e-08
-1.98312e-08
-1.53894e-09
-9.39824e-09
-1.89743e-08
1.49427e-09
-7.65849e-09
-1.75881e-08
4.34555e-09
-6.19862e-09
-1.59759e-08
7.08072e-09
-5.0954e-09
-1.43073e-08
9.58871e-09
-4.32406e-09
-1.26545e-08
1.17689e-08
-3.82125e-09
-1.10382e-08
1.35688e-08
-3.51803e-09
-9.45725e-09
1.49957e-08
-3.35045e-09
-7.90462e-09
1.60897e-08
-3.26527e-09
-6.38663e-09
1.69074e-08
-3.21178e-09
-4.92177e-09
1.75026e-08
-3.15434e-09
-3.54801e-09
1.79231e-08
-3.06169e-09
-2.30463e-09
1.82001e-08
-2.92602e-09
-1.21394e-09
1.83508e-08
-2.76231e-09
-2.86927e-10
1.83944e-08
-2.58452e-09
4.79018e-10
1.83607e-08
-2.41392e-09
1.08997e-09
1.83093e-08
-2.26325e-09
1.55027e-09
1.83471e-08
-2.14211e-09
1.85595e-09
1.86372e-08
-2.05092e-09
1.99284e-09
1.93616e-08
-1.98012e-09
1.94117e-09
2.05878e-08
-1.90554e-09
1.68871e-09
2.20213e-08
-1.78644e-09
1.25559e-09
2.27456e-08
-1.57352e-09
7.21181e-10
2.12388e-08
-1.22987e-09
2.35972e-10
1.59795e-08
-7.59913e-10
6.49648e-09
-2.3273e-10
-3.45198e-09
-3.01858e-09
-3.44777e-09
-7.51909e-09
-9.69402e-10
-6.32374e-09
-1.08817e-08
1.85874e-09
-7.24393e-09
-1.28989e-08
4.14899e-09
-6.98004e-09
-1.38305e-08
5.58864e-09
-6.19601e-09
-1.3938e-08
6.87924e-09
-5.27743e-09
-1.35164e-08
8.36457e-09
-4.44062e-09
-1.27658e-08
1.01077e-08
-3.77761e-09
-1.18191e-08
1.19474e-08
-3.30527e-09
-1.07511e-08
1.37039e-08
-3.00302e-09
-9.60043e-09
1.52539e-08
-2.83582e-09
-8.38515e-09
1.6544e-08
-2.7635e-09
-7.11702e-09
1.75692e-08
-2.74769e-09
-5.81987e-09
1.83545e-08
-2.74417e-09
-4.5278e-09
1.89321e-08
-2.72158e-09
-3.29599e-09
1.93367e-08
-2.6454e-09
-2.17898e-09
1.95933e-08
-2.5102e-09
-1.20538e-09
1.97177e-08
-2.34053e-09
-3.9193e-10
1.97341e-08
-2.15314e-09
2.63812e-10
1.96782e-08
-1.97323e-09
7.67678e-10
1.96186e-08
-1.81315e-09
1.12723e-09
1.96715e-08
-1.68395e-09
1.34522e-09
2.00055e-08
-1.5863e-09
1.42118e-09
2.07978e-08
-1.51218e-09
1.35262e-09
2.20972e-08
-1.44078e-09
1.14532e-09
2.35673e-08
-1.3387e-09
8.26208e-10
2.42313e-08
-1.16662e-09
4.5806e-10
2.25019e-08
-8.94917e-10
1.42162e-10
1.68251e-08
-5.2969e-10
6.77918e-09
-1.40542e-10
-1.87787e-09
7.3347e-10
-1.87417e-09
-4.46228e-09
5.30487e-09
-3.68987e-09
-6.88699e-09
8.73202e-09
-4.44856e-09
-8.65247e-09
1.04131e-08
-4.49859e-09
-9.7605e-09
1.08637e-08
-4.16698e-09
-1.02897e-08
1.10957e-08
-3.68722e-09
-1.03797e-08
1.16648e-08
-3.21029e-09
-1.01446e-08
1.26893e-08
-2.81673e-09
-9.67396e-09
1.40119e-08
-2.53509e-09
-9.02641e-09
1.54208e-08
-2.36448e-09
-8.23715e-09
1.67528e-08
-2.28814e-09
-7.32939e-09
1.7916e-08
-2.2798e-09
-6.32063e-09
1.88728e-08
-2.31229e-09
-5.24144e-09
1.96211e-08
-2.34579e-09
-4.13209e-09
2.01735e-08
-2.35073e-09
-3.05811e-09
2.05521e-08
-2.28934e-09
-2.08329e-09
2.07764e-08
-2.15796e-09
-1.23827e-09
2.08625e-08
-1.98985e-09
-5.40712e-10
2.08393e-08
-1.80274e-09
1.22955e-11
2.07503e-08
-1.62511e-09
4.27131e-10
2.06722e-08
-1.46846e-09
7.13297e-10
2.07268e-08
-1.34137e-09
8.78443e-10
2.10848e-08
-1.24448e-09
9.28766e-10
2.19186e-08
-1.17117e-09
8.72173e-10
2.3258e-08
-1.10426e-09
7.22198e-10
2.47341e-08
-1.01685e-09
5.0671e-10
2.53224e-08
-8.75568e-10
2.7089e-10
2.33953e-08
-6.57523e-10
7.8972e-11
1.7388e-08
-3.70996e-10
6.93797e-09
-7.9811e-11
-1.07264e-09
2.87563e-09
-1.06951e-09
-2.75533e-09
9.23331e-09
-2.24576e-09
-4.4918e-09
1.33029e-08
-2.83441e-09
-5.92604e-09
1.48334e-08
-2.9861e-09
-6.97694e-09
1.47807e-08
-2.8662e-09
-7.64042e-09
1.43768e-08
-2.61764e-09
-7.96899e-09
1.43377e-08
-2.34435e-09
-8.01996e-09
1.48501e-08
-2.10982e-09
-7.84633e-09
1.57808e-08
-1.94257e-09
-7.48769e-09
1.69114e-08
-1.84922e-09
-6.97106e-09
1.80591e-08
-1.82294e-09
-6.31705e-09
1.9109e-08
-1.84705e-09
-5.54154e-09
2.00001e-08
-1.90286e-09
-4.67488e-09
2.07095e-08
-1.95512e-09
-3.75591e-09
2.12325e-08
-1.978e-09
-2.85334e-09
2.15791e-08
-1.92961e-09
-2.03285e-09
2.17635e-08
-1.80757e-09
-1.32263e-09
2.18054e-08
-1.65312e-09
-7.38319e-10
2.17384e-08
-1.48338e-09
-2.75574e-10
2.16125e-08
-1.32494e-09
7.08677e-11
2.15113e-08
-1.18554e-09
3.11299e-10
2.15594e-08
-1.07303e-09
4.54126e-10
2.19286e-08
-9.86623e-10
5.08445e-10
2.2785e-08
-9.20729e-10
4.85121e-10
2.41425e-08
-8.61187e-10
4.00267e-10
2.56057e-08
-7.86694e-10
2.7577e-10
2.61181e-08
-6.71198e-10
1.42968e-10
2.40237e-08
-4.95613e-10
3.93003e-11
1.77585e-08
-2.66776e-10
7.02042e-09
-4.31518e-11
-6.4348e-10
4.16009e-09
-6.40986e-10
-1.76563e-09
1.17799e-08
-1.42446e-09
-3.00992e-09
1.64163e-08
-1.86912e-09
-4.13117e-09
1.799e-08
-2.03534e-09
-5.03558e-09
1.76944e-08
-2.00928e-09
-5.68747e-09
1.69082e-08
-1.87945e-09
-6.09616e-09
1.64637e-08
-1.71729e-09
-6.28558e-09
1.66102e-08
-1.57071e-09
-6.28333e-09
1.72424e-08
-1.46388e-09
-6.11508e-09
1.81484e-08
-1.40519e-09
-5.80003e-09
1.91376e-08
-1.3935e-09
-5.35338e-09
2.00815e-08
-1.41911e-09
-4.78857e-09
2.09064e-08
-1.47111e-09
-4.12997e-09
2.15721e-08
-1.5212e-09
-3.41051e-09
2.20624e-08
-1.54933e-09
-2.69287e-09
2.23741e-08
-1.51266e-09
-2.03746e-09
2.25183e-08
-1.41022e-09
-1.46478e-09
2.25188e-08
-1.28604e-09
-9.87767e-10
2.24134e-08
-1.15202e-09
-6.02026e-10
2.22583e-08
-1.03155e-09
-3.02661e-10
2.21387e-08
-9.26736e-10
-8.34101e-11
2.21826e-08
-8.42529e-10
6.23643e-11
2.25598e-08
-7.76904e-10
1.42944e-10
2.34298e-08
-7.25372e-10
1.68327e-10
2.47948e-08
-6.77705e-10
1.51123e-10
2.62398e-08
-6.16918e-10
1.08014e-10
2.66842e-08
-5.22974e-10
5.69215e-11
2.44562e-08
-3.81432e-10
1.53694e-11
1.7998e-08
-1.97943e-10
7.05827e-09
-2.24745e-11
-4.0458e-10
4.96745e-09
-4.02767e-10
-1.16856e-09
1.34809e-08
-9.37023e-10
-2.05995e-09
1.85745e-08
-1.26682e-09
-2.91335e-09
2.02563e-08
-1.41293e-09
-3.64599e-09
1.98492e-08
-1.42213e-09
-4.21707e-09
1.88298e-08
-1.35056e-09
-4.61764e-09
1.81108e-08
-1.24658e-09
-4.85395e-09
1.79917e-08
-1.14518e-09
-4.94002e-09
1.83938e-08
-1.0653e-09
-4.89179e-09
1.91147e-08
-1.01451e-09
-4.72309e-09
1.99637e-08
-9.94858e-10
-4.44643e-09
2.08061e-08
-1.00129e-09
-4.07109e-09
2.15609e-08
-1.02979e-09
-3.61469e-09
2.21773e-08
-1.06151e-09
-3.10046e-09
2.26312e-08
-1.08298e-09
-2.57716e-09
2.29081e-08
-1.05723e-09
-2.09153e-09
2.30162e-08
-9.83536e-10
-1.65614e-09
2.29857e-08
-9.02306e-10
-1.27901e-09
2.2855e-08
-8.18789e-10
-9.56256e-10
2.26835e-08
-7.47936e-10
-6.8753e-10
2.25572e-08
-6.8723e-10
-4.70917e-10
2.26037e-08
-6.37666e-10
-3.04041e-10
2.299e-08
-5.97071e-10
-1.82251e-10
2.38714e-08
-5.63372e-10
-9.96698e-11
2.52416e-08
-5.29291e-10
-4.74097e-11
2.66704e-08
-4.828e-10
-1.73548e-11
2.70638e-08
-4.09658e-10
-2.70183e-12
2.47398e-08
-2.983e-10
1.89565e-12
1.81456e-08
-1.5227e-10
7.07241e-09
-1.22447e-11
-2.65482e-10
5.49707e-09
-2.64142e-10
-7.91883e-10
1.46399e-08
-6.32546e-10
-1.42599e-09
2.0079e-08
-8.70345e-10
-2.05652e-09
2.18711e-08
-9.8421e-10
-2.62047e-09
2.14132e-08
-1.00005e-09
-3.08179e-09
2.02447e-08
-9.53567e-10
-3.42695e-09
1.93338e-08
-8.77783e-10
-3.65543e-09
1.90161e-08
-7.95863e-10
-3.77517e-09
1.9235e-08
-7.21432e-10
-3.79762e-09
1.97971e-08
-6.59994e-10
-3.73455e-09
2.05149e-08
-6.14252e-10
-3.59713e-09
2.12531e-08
-5.84329e-10
-3.39233e-09
2.19278e-08
-5.71688e-10
-3.13141e-09
2.24847e-08
-5.68403e-10
-2.82606e-09
2.28955e-08
-5.69701e-10
-2.50341e-09
2.31397e-08
-5.54302e-10
-2.18982e-09
2.32241e-08
-5.2151e-10
-1.88706e-09
2.31798e-08
-4.96859e-10
-1.60022e-09
2.30452e-08
-4.76951e-10
-1.32902e-09
2.28779e-08
-4.65543e-10
-1.07805e-09
2.27613e-08
-4.55089e-10
-8.51024e-10
2.28217e-08
-4.45081e-10
-6.51182e-10
2.32237e-08
-4.33546e-10
-4.79303e-10
2.4119e-08
-4.19481e-10
-3.3387e-10
2.54964e-08
-4.0025e-10
-2.12892e-10
2.69182e-08
-3.6877e-10
-1.16023e-10
2.72815e-08
-3.14601e-10
-4.4751e-11
2.48992e-08
-2.30652e-10
-5.50063e-12
1.82249e-08
-1.18557e-10
7.07464e-09
-7.73245e-12
-1.80841e-10
5.85798e-09
-1.80059e-10
-5.43245e-10
1.54345e-08
-4.32189e-10
-9.84889e-10
2.11164e-08
-5.95731e-10
-1.43189e-09
2.29922e-08
-6.74157e-10
-1.84061e-09
2.25056e-08
-6.83646e-10
-2.18513e-09
2.12361e-08
-6.4687e-10
-2.4545e-09
2.01878e-08
-5.84618e-10
-2.64772e-09
1.97209e-08
-5.11638e-10
-2.77141e-09
1.97956e-08
-4.36936e-10
-2.83534e-09
2.02263e-08
-3.65285e-10
-2.85071e-09
2.08298e-08
-2.99536e-10
-2.82852e-09
2.14728e-08
-2.41883e-10
-2.77474e-09
2.20702e-08
-1.96241e-10
-2.69339e-09
2.25685e-08
-1.65111e-10
-2.58542e-09
2.29369e-08
-1.49311e-10
-2.45365e-09
2.31527e-08
-1.44775e-10
-2.30119e-09
2.32211e-08
-1.49433e-10
-2.12192e-09
2.31723e-08
-1.71768e-10
-1.9176e-09
2.30423e-08
-2.01503e-10
-1.69162e-09
2.28863e-08
-2.34422e-10
-1.45346e-09
2.27851e-08
-2.61979e-10
-1.21196e-09
2.28613e-08
-2.81009e-10
-9.75752e-10
2.32782e-08
-2.90738e-10
-7.52084e-10
2.41876e-08
-2.9222e-10
-5.44215e-10
2.55731e-08
-2.84546e-10
-3.5748e-10
2.69969e-08
-2.65453e-10
-1.97667e-10
2.73514e-08
-2.29755e-10
-7.6881e-11
2.49503e-08
-1.71893e-10
-8.9711e-12
1.82482e-08
-9.11472e-11
7.07226e-09
-6.58688e-12
-1.26719e-10
6.11098e-09
-1.26278e-10
-3.71063e-10
1.59708e-08
-2.92002e-10
-6.62045e-10
2.18001e-08
-3.92759e-10
-9.55358e-10
2.37212e-08
-4.35653e-10
-1.22453e-09
2.32068e-08
-4.32079e-10
-1.45487e-09
2.1862e-08
-3.95532e-10
-1.64121e-09
2.07114e-08
-3.3734e-10
-1.78538e-09
2.01306e-08
-2.65488e-10
-1.8948e-09
2.0089e-08
-1.83986e-10
-1.98047e-09
2.04072e-08
-9.52373e-11
-2.05512e-09
2.09061e-08
-1.55506e-12
-2.12917e-09
2.14549e-08
9.19197e-11
-2.20951e-09
2.19719e-08
1.78718e-10
-2.29435e-09
2.24061e-08
2.47264e-10
-2.37338e-09
2.27292e-08
2.86708e-10
-2.42377e-09
2.29213e-08
2.81786e-10
-2.4245e-09
2.29857e-08
2.3612e-10
-2.36077e-09
2.29476e-08
1.60935e-10
-2.23186e-09
2.28371e-08
7.63052e-11
-2.04611e-09
2.27048e-08
-4.21528e-12
-1.81648e-09
2.26261e-08
-7.06046e-11
-1.55869e-09
2.27229e-08
-1.19393e-10
-1.28655e-09
2.31564e-08
-1.50347e-10
-1.01046e-09
2.40777e-08
-1.66259e-10
-7.41779e-10
2.54746e-08
-1.70258e-10
-4.90501e-10
2.69093e-08
-1.63724e-10
-2.72022e-10
2.7279e-08
-1.46064e-10
-1.04704e-10
2.48972e-08
-1.14203e-10
-1.10515e-11
1.82195e-08
-6.49417e-11
7.06733e-09
-6.12112e-12
-8.98097e-11
6.29038e-09
-8.95922e-11
-2.42702e-10
1.63104e-08
-1.8663e-10
-4.11978e-10
2.22022e-08
-2.3278e-10
-5.74088e-10
2.41248e-08
-2.41498e-10
-7.19909e-10
2.35752e-08
-2.22564e-10
-8.45121e-10
2.21704e-08
-1.83208e-10
-9.51906e-10
2.09448e-08
-1.26573e-10
-1.04615e-09
2.02795e-08
-5.47086e-11
-1.13756e-09
2.01488e-08
3.16734e-11
-1.23833e-09
2.0377e-08
1.31016e-10
-1.36196e-09
2.07885e-08
2.41157e-10
-1.5191e-09
2.12558e-08
3.56197e-10
-1.716e-09
2.17004e-08
4.68402e-10
-1.94468e-09
2.20759e-08
5.58835e-10
-2.18571e-09
2.23575e-08
6.12751e-10
-2.39459e-09
2.2531e-08
5.99226e-10
-2.52974e-09
2.2597e-08
5.23935e-10
-2.57065e-09
2.25732e-08
4.153e-10
-2.51355e-09
2.24837e-08
2.96356e-10
-2.36892e-09
2.23734e-08
1.86746e-10
-2.15326e-09
2.23142e-08
9.6307e-11
-1.88529e-09
2.2426e-08
2.88493e-11
-1.58244e-09
2.28701e-08
-1.65041e-11
-1.26059e-09
2.37987e-08
-4.284e-11
-9.35148e-10
2.52047e-08
-5.5511e-11
-6.23175e-10
2.66569e-08
-5.95333e-11
-3.4619e-10
2.70612e-08
-5.91503e-11
-1.33004e-10
2.47374e-08
-5.33377e-11
-1.33526e-11
1.81359e-08
-3.60713e-11
7.05864e-09
-4.65892e-12
-6.1394e-11
6.41274e-09
-6.09665e-11
-1.37369e-10
1.64849e-08
-9.85289e-11
-2.00611e-10
2.23589e-08
-9.35144e-11
-2.47207e-10
2.42402e-08
-6.87423e-11
-2.82137e-10
2.36429e-08
-3.27627e-11
-3.131e-10
2.21887e-08
1.26357e-11
-3.48118e-10
2.09098e-08
6.99912e-11
-3.97285e-10
2.01847e-08
1.44031e-10
-4.72219e-10
1.99863e-08
2.37361e-10
-5.85874e-10
2.01406e-08
3.50065e-10
-7.5299e-10
2.04752e-08
4.804e-10
-9.83224e-10
2.08666e-08
6.19438e-10
-1.2824e-09
2.12416e-08
7.57901e-10
-1.63597e-09
2.15596e-08
8.69903e-10
-2.01635e-09
2.18013e-08
9.36551e-10
-2.36306e-09
2.19586e-08
9.19131e-10
-2.61886e-09
2.20302e-08
8.22532e-10
-2.75719e-09
2.20261e-08
6.8543e-10
-2.77024e-09
2.19627e-08
5.34029e-10
-2.66952e-09
2.18778e-08
3.94923e-10
-2.47329e-09
2.18393e-08
2.78623e-10
-2.20258e-09
2.19643e-08
1.91066e-10
-1.87706e-09
2.24134e-08
1.31161e-10
-1.51602e-09
2.33432e-08
9.44852e-11
-1.13816e-09
2.47534e-08
7.3489e-11
-7.66848e-10
2.62277e-08
5.7864e-11
-4.31122e-10
2.66854e-08
4.00986e-11
-1.68046e-10
2.44558e-08
1.85215e-11
-1.85983e-11
1.79859e-08
5.08071e-13
7.03954e-09
5.01976e-13
-3.47447e-11
6.48161e-09
-3.41129e-11
-3.80161e-11
1.65024e-08
-1.42921e-11
-1.25244e-12
2.22811e-08
4.10334e-11
5.90187e-11
2.40795e-08
1.00428e-10
1.22941e-10
2.34248e-08
1.54201e-10
1.73108e-10
2.1933e-08
2.05612e-10
1.96111e-10
2.06231e-08
2.63736e-10
1.79651e-10
1.98634e-08
3.37759e-10
1.11744e-10
1.962e-08
4.34268e-10
-2.12112e-11
1.97193e-08
5.54222e-10
-2.32171e-10
1.99911e-08
6.95093e-10
-5.29735e-10
2.03173e-08
8.46888e-10
-9.16124e-10
2.06298e-08
9.98263e-10
-1.37185e-09
2.08956e-08
1.11972e-09
-1.86294e-09
2.1101e-08
1.19138e-09
-2.3203e-09
2.12432e-08
1.17275e-09
-2.678e-09
2.13205e-08
1.06744e-09
-2.90431e-09
2.13344e-08
9.18089e-10
-2.98766e-09
2.12949e-08
7.51181e-10
-2.93805e-09
2.12323e-08
5.95883e-10
-2.77257e-09
2.12098e-08
4.64013e-10
-2.51212e-09
2.13402e-08
3.63627e-10
-2.17726e-09
2.17844e-08
2.94098e-10
-1.78822e-09
2.27035e-08
2.50652e-10
-1.36606e-09
2.41086e-08
2.22591e-10
-9.37142e-10
2.56023e-08
1.96536e-10
-5.3865e-10
2.6127e-08
1.59914e-10
-2.185e-10
2.40277e-08
1.07903e-10
-2.92837e-11
1.77463e-08
5.04268e-11
6.99844e-09
1.18212e-11
-2.97168e-12
6.48652e-09
-1.93532e-12
7.37296e-11
1.63436e-08
8.20969e-11
2.13763e-10
2.19487e-08
1.92417e-10
3.78467e-10
2.36257e-08
2.89036e-10
5.31429e-10
2.29101e-08
3.61728e-10
6.47733e-10
2.13975e-08
4.19159e-10
7.10595e-10
2.00833e-08
4.76954e-10
7.09218e-10
1.93155e-08
5.4924e-10
6.32878e-10
1.90514e-08
6.44919e-10
4.70942e-10
1.91149e-08
7.66358e-10
2.12606e-10
1.93384e-08
9.1104e-10
-1.47867e-10
1.96102e-08
1.06763e-09
-6.09083e-10
1.98687e-08
1.22227e-09
-1.14731e-09
2.00889e-08
1.34499e-09
-1.72356e-09
2.0262e-08
1.41528e-09
-2.26704e-09
2.03893e-08
1.39733e-09
-2.70976e-09
2.04688e-08
1.29439e-09
-3.01679e-09
2.04965e-08
1.14487e-09
-3.17139e-09
2.04758e-08
9.73638e-10
-3.18061e-09
2.04301e-08
8.11451e-10
-3.05908e-09
2.0416e-08
6.72251e-10
-2.82563e-09
2.05413e-08
5.65421e-10
-2.49896e-09
2.09669e-08
4.90864e-10
-2.09683e-09
2.18584e-08
4.42992e-10
-1.63947e-09
2.32416e-08
4.09658e-10
-1.15558e-09
2.47448e-08
3.73557e-10
-6.87039e-10
2.53416e-08
3.16781e-10
-2.94722e-10
2.34053e-08
2.30106e-10
-5.03037e-11
1.73772e-08
1.24685e-10
6.91425e-09
3.38872e-11
4.11259e-11
6.40268e-09
4.27139e-11
2.16763e-10
1.59616e-08
2.06409e-10
4.74943e-10
2.13086e-08
3.81908e-10
7.46726e-10
2.28309e-08
5.23002e-10
9.79606e-10
2.20581e-08
6.19128e-10
1.14313e-09
2.05507e-08
6.83244e-10
1.22269e-09
1.92655e-08
7.38188e-10
1.21232e-09
1.85221e-08
8.0378e-10
1.10696e-09
1.82647e-08
8.92046e-10
9.0126e-10
1.83136e-08
1.00701e-09
5.88499e-10
1.85059e-08
1.14527e-09
1.67125e-10
1.87369e-08
1.2946e-09
-3.57688e-10
1.89528e-08
1.44079e-09
-9.59612e-10
1.91352e-08
1.55558e-09
-1.59793e-09
1.92805e-08
1.61981e-09
-2.20543e-09
1.93928e-08
1.60406e-09
-2.71697e-09
1.94699e-08
1.51043e-09
-3.09548e-09
1.95035e-08
1.37151e-09
-3.32233e-09
1.94929e-08
1.2098e-09
-3.4001e-09
1.94539e-08
1.05388e-09
-3.33905e-09
1.94367e-08
9.18297e-10
-3.15383e-09
1.95424e-08
8.1368e-10
-2.85793e-09
1.99296e-08
7.41453e-10
-2.46325e-09
2.07688e-08
6.94967e-10
-1.98493e-09
2.21037e-08
6.59587e-10
-1.44808e-09
2.35948e-08
6.13143e-10
-8.99318e-10
2.42615e-08
5.31349e-10
-4.13317e-10
2.25179e-08
4.01437e-10
-8.73274e-11
1.6816e-08
2.35187e-10
6.75474e-09
7.21773e-11
1.06846e-10
6.18681e-09
1.09029e-10
4.13663e-10
1.52749e-08
3.79895e-10
8.13735e-10
2.02685e-08
6.39995e-10
1.20009e-09
2.16073e-08
8.37327e-10
1.50232e-09
2.07934e-08
9.62451e-10
1.68919e-09
1.93283e-08
1.03555e-09
1.75576e-09
1.8112e-08
1.08701e-09
1.70688e-09
1.74283e-08
1.14267e-09
1.54819e-09
1.72045e-08
1.21887e-09
1.2817e-09
1.72599e-08
1.32022e-09
9.06611e-10
1.74376e-08
1.44344e-09
4.25404e-10
1.76408e-08
1.5773e-09
-1.53744e-10
1.78249e-08
1.70698e-09
-8.04103e-10
1.79776e-08
1.80794e-09
-1.48591e-09
1.80994e-08
1.86283e-09
-2.13894e-09
1.81961e-08
1.84975e-09
-2.70481e-09
1.82652e-08
1.77058e-09
-3.14744e-09
1.8297e-08
1.64913e-09
-3.44712e-09
1.82874e-08
1.5052e-09
-3.60228e-09
1.82446e-08
1.36453e-09
-3.61906e-09
1.82115e-08
1.24199e-09
-3.50617e-09
1.8282e-08
1.14757e-09
-3.26842e-09
1.86088e-08
1.08306e-09
-2.90828e-09
1.93667e-08
1.04195e-09
-2.42837e-09
2.0618e-08
1.00582e-09
-1.84451e-09
2.20638e-08
9.47166e-10
-1.2025e-09
2.2785e-08
8.34476e-10
-5.92552e-10
2.12593e-08
6.48672e-10
-1.48464e-10
1.59714e-08
4.00502e-10
6.47171e-09
1.34569e-10
2.02275e-10
5.77943e-09
2.05102e-10
6.82836e-10
1.4173e-08
6.21297e-10
1.25597e-09
1.87043e-08
9.91156e-10
1.76402e-09
1.98371e-08
1.2621e-09
2.12025e-09
1.90103e-08
1.42693e-09
2.30042e-09
1.76344e-08
1.51376e-09
2.31755e-09
1.65321e-08
1.5627e-09
2.19641e-09
1.5942e-08
1.6075e-09
1.95778e-09
1.57752e-08
1.66792e-09
1.61364e-09
1.58532e-08
1.75078e-09
1.16949e-09
1.60277e-08
1.85403e-09
6.30033e-10
1.62135e-08
1.96681e-09
6.01978e-12
1.63737e-08
2.07526e-09
-6.78089e-10
1.65025e-08
2.1593e-09
-1.38678e-09
1.66037e-08
2.20442e-09
-2.06896e-09
1.66843e-08
2.19393e-09
-2.67482e-09
1.67421e-08
2.12893e-09
-3.17255e-09
1.67667e-08
2.02809e-09
-3.54274e-09
1.67499e-08
1.90766e-09
-3.78248e-09
1.66959e-08
1.78841e-09
-3.89362e-09
1.66382e-08
1.68444e-09
-3.87823e-09
1.66607e-08
1.60593e-09
-3.73124e-09
1.6908e-08
1.55375e-09
-3.4389e-09
1.75547e-08
1.51969e-09
-2.98474e-09
1.86813e-08
1.48254e-09
-2.36534e-09
2.0037e-08
1.40737e-09
-1.61819e-09
2.0784e-08
1.25395e-09
-8.49593e-10
1.94963e-08
9.9435e-10
-2.41043e-10
1.47258e-08
6.37089e-10
6.00256e-09
2.28116e-10
3.29822e-10
5.1164e-09
3.33215e-10
1.02808e-09
1.25381e-08
9.36669e-10
1.80222e-09
1.64844e-08
1.4457e-09
2.43299e-09
1.73963e-08
1.81001e-09
2.81899e-09
1.65974e-08
2.02683e-09
2.95397e-09
1.53649e-08
2.13453e-09
2.88142e-09
1.44207e-08
2.18402e-09
2.65416e-09
1.39514e-08
2.21788e-09
2.31227e-09
1.38557e-08
2.26143e-09
1.87881e-09
1.39623e-08
2.32439e-09
1.3641e-09
1.41371e-08
2.40533e-09
7.74682e-10
1.43077e-08
2.49521e-09
1.19448e-10
1.4447e-08
2.58195e-09
-5.81362e-10
1.45544e-08
2.64889e-09
-1.29826e-09
1.46369e-08
2.68374e-09
-1.99073e-09
1.47014e-08
2.67544e-09
-2.61939e-09
1.47461e-08
2.62474e-09
-3.15772e-09
1.47608e-08
2.5442e-09
-3.59075e-09
1.47356e-08
2.44734e-09
-3.91518e-09
1.46688e-08
2.35153e-09
-4.13126e-09
1.45853e-08
2.26896e-09
-4.23518e-09
1.45562e-08
2.20833e-09
-4.21115e-09
1.47136e-08
2.17037e-09
-4.025e-09
1.52243e-08
2.14424e-09
-3.63224e-09
1.61848e-08
2.10372e-09
-2.99848e-09
1.73979e-08
2.00537e-09
-2.14321e-09
1.81305e-08
1.79823e-09
-1.18558e-09
1.70938e-08
1.4449e-09
-3.66644e-10
1.29577e-08
9.49182e-10
5.28169e-09
3.54228e-10
4.77489e-10
4.15728e-09
4.81632e-10
1.41717e-09
1.03009e-08
1.29757e-09
2.39821e-09
1.35392e-08
1.96414e-09
3.13517e-09
1.42234e-08
2.43594e-09
3.51652e-09
1.35013e-08
2.71478e-09
3.56517e-09
1.24662e-08
2.85009e-09
3.36636e-09
1.17151e-08
2.90442e-09
3.0074e-09
1.13809e-08
2.92947e-09
2.55097e-09
1.13554e-08
2.95678e-09
2.02993e-09
1.14838e-08
2.9996e-09
1.45697e-09
1.16516e-08
3.0584e-09
8.36619e-10
1.18023e-08
3.12579e-09
1.74066e-10
1.19184e-08
3.19107e-09
-5.17086e-10
1.2004e-08
3.24159e-09
-1.21544e-09
1.20676e-08
3.26765e-09
-1.89131e-09
1.21163e-08
3.26095e-09
-2.51605e-09
1.21487e-08
3.22209e-09
-3.07094e-09
1.21555e-08
3.16023e-09
-3.54639e-09
1.21249e-08
3.08611e-09
-3.94241e-09
1.20516e-08
3.01325e-09
-4.26078e-09
1.19513e-08
2.95234e-09
-4.49493e-09
1.18801e-08
2.91033e-09
-4.61762e-09
1.19498e-08
2.88648e-09
-4.57371e-09
1.23136e-08
2.86681e-09
-4.28237e-09
1.30742e-08
2.81922e-09
-3.66786e-09
1.4092e-08
2.69138e-09
-2.71986e-09
1.47613e-08
2.42112e-09
-1.56583e-09
1.398e-08
1.95981e-09
-5.12805e-10
1.05979e-08
1.30671e-09
4.26857e-09
5.00308e-10
6.09505e-10
2.93363e-09
6.14145e-10
1.75916e-09
7.53154e-09
1.61968e-09
2.90856e-09
9.96207e-09
2.42777e-09
3.7083e-09
1.04239e-08
2.99976e-09
4.0432e-09
9.82662e-09
3.3398e-09
3.97251e-09
9.03183e-09
3.50502e-09
3.62837e-09
8.49219e-09
3.56702e-09
3.13608e-09
8.2876e-09
3.58555e-09
2.57799e-09
8.31562e-09
3.59784e-09
1.99425e-09
8.44663e-09
3.62087e-09
1.39586e-09
8.59243e-09
3.65759e-09
7.82417e-10
8.71288e-09
3.70283e-09
1.52057e-10
8.80029e-09
3.74852e-09
-4.89425e-10
8.86125e-09
3.78418e-09
-1.12931e-09
8.90543e-09
3.80203e-09
-1.74864e-09
8.93927e-09
3.79635e-09
-2.32921e-09
8.96173e-09
3.76757e-09
-2.86051e-09
8.96449e-09
3.72229e-09
-3.34064e-09
8.93623e-09
3.66884e-09
-3.77566e-09
8.86878e-09
3.61783e-09
-4.17158e-09
8.7693e-09
3.57797e-09
-4.52253e-09
8.67661e-09
3.5544e-09
-4.79488e-09
8.67832e-09
3.54384e-09
-4.91196e-09
8.9018e-09
3.52885e-09
-4.75592e-09
9.44641e-09
3.47179e-09
-4.20356e-09
1.0227e-08
3.31265e-09
-3.20711e-09
1.07846e-08
2.98031e-09
-1.89739e-09
1.02518e-08
2.41843e-09
-6.42437e-10
7.71898e-09
1.62401e-09
2.99675e-09
6.29392e-10
6.62631e-10
1.60331e-09
6.67685e-10
1.90463e-09
4.53462e-09
1.75492e-09
3.11801e-09
6.11959e-09
2.6291e-09
3.90807e-09
6.37964e-09
3.25423e-09
4.15852e-09
5.94339e-09
3.63278e-09
3.96166e-09
5.40841e-09
3.82028e-09
3.49099e-09
5.0738e-09
3.88906e-09
2.90203e-09
4.97495e-09
3.90161e-09
2.29125e-09
5.02707e-09
3.89933e-09
1.69957e-09
5.13584e-09
3.90247e-09
1.13315e-09
5.2421e-09
3.91675e-09
5.83385e-10
5.32273e-09
3.93992e-09
4.09983e-11
5.37671e-09