/*--------------------------------*- C++ -*----------------------------------*\
| =========                 |                                                 |
| \\      /  F ield         | OpenFOAM: The Open Source CFD Toolbox           |
|  \\    /   O peration     | Version:  v1906                                 |
|   \\  /    A nd           | Web:      www.OpenFOAM.com                      |
|    \\/     M anipulation  |                                                 |
\*---------------------------------------------------------------------------*/
FoamFile
{
    version     2.0;
    format      ascii;
    class       volScalarField;
    location    "13";
    object      omega;
}
// * * * * * * * * * * * * * * * * * * * * * * * * * * * * * * * * * * * * * //

dimensions      [0 0 -1 0 0 0 0];


internalField   nonuniform List<scalar> 
78750
(
364.639
13.6379
15.0186
14.6797
14.6297
14.5701
14.5306
14.501
14.4778
14.4605
14.4493
14.4431
14.4402
14.4393
14.4394
14.4401
14.441
14.4422
14.4434
14.4448
14.4462
14.4475
14.4482
14.4474
14.4438
14.4353
14.42
14.3934
14.3531
14.2975
14.2249
14.1341
14.0223
13.885
356.121
527.975
5.88759
6.04793
5.8464
5.56661
5.39227
5.32199
5.30331
5.31015
5.33111
5.35766
5.38133
5.39814
5.40772
5.41016
5.40645
5.39783
5.38616
5.3735
5.36239
5.35548
5.35519
5.36293
5.37813
5.39755
5.41604
5.42643
5.418
5.3783
5.29666
5.16657
4.98762
4.77394
4.53694
523.252
528.432
5.08119
4.88621
4.47316
4.32124
4.51845
4.77779
4.99764
5.2008
5.37682
5.50811
5.59927
5.65819
5.69122
5.70233
5.69368
5.66636
5.62086
5.55743
5.4764
5.37878
5.26715
5.14698
5.02884
4.93083
4.87924
4.90081
4.99286
5.10782
5.18203
5.1816
5.0967
4.93359
4.68482
524.065
528.34
4.91252
4.86463
4.67558
4.4133
4.20019
4.12135
4.28858
4.69441
5.14592
5.48964
5.71382
5.85656
5.95162
6.01742
6.06187
6.08804
6.09682
6.08772
6.05861
6.00601
5.92509
5.80924
5.65039
5.43991
5.17116
4.85108
4.53098
4.34632
4.39227
4.55446
4.6733
4.68427
4.57892
524.305
528.2
4.85391
4.89846
4.83394
4.66083
4.42263
4.20461
4.18369
4.44928
4.82539
5.16094
5.41143
5.58085
5.69111
5.76297
5.80974
5.83826
5.85236
5.85473
5.84711
5.82984
5.80135
5.75764
5.69106
5.58926
5.43528
5.21028
4.90665
4.58344
4.43707
4.56205
4.74758
4.81228
4.72359
524.849
528.083
4.76924
4.83844
4.79861
4.63863
4.34987
4.10187
4.21002
4.63937
5.11689
5.50353
5.77556
5.95346
6.06626
6.13497
6.1724
6.18619
6.18072
6.15795
6.1178
6.05838
5.97592
5.86421
5.71339
5.50936
5.24388
4.94376
4.66855
4.40445
4.17917
4.18501
4.4196
4.6234
4.6768
524.788
528.041
4.72182
4.78151
4.67932
4.39916
4.15957
4.35088
4.9051
5.44644
5.80267
5.99112
6.08064
6.11922
6.13144
6.13002
6.12161
6.10929
6.09383
6.07427
6.04817
6.01108
5.9553
5.86726
5.72211
5.47733
5.09025
4.58378
4.16118
4.09454
4.18434
4.39166
4.5803
4.67425
4.65422
525.436
528.044
4.61452
4.57163
4.36364
4.17469
4.38435
4.90633
5.36775
5.64551
5.80216
5.90404
5.97857
6.03373
6.07275
6.09758
6.1095
6.10947
6.09794
6.07525
6.04198
5.99855
5.9444
5.87716
5.78845
5.65418
5.41921
5.017
4.48777
4.09867
4.08557
4.26657
4.47427
4.57385
4.54387
525.846
528.025
4.54377
4.53433
4.5254
4.75231
5.2016
5.59753
5.85675
6.02607
6.14089
6.21535
6.26011
6.28474
6.29644
6.29958
6.29574
6.28483
6.26562
6.23637
6.19518
6.13936
6.06563
5.97141
5.85575
5.71866
5.55413
5.3287
4.97986
4.51338
4.15402
4.13596
4.34482
4.49102
4.49987
526.121
528.068
4.52157
4.56773
4.73295
5.05332
5.40253
5.67354
5.86193
5.98315
6.05456
6.09517
6.12016
6.13852
6.15449
6.16864
6.1799
6.1859
6.18486
6.1755
6.15666
6.12699
6.08455
6.02661
5.94784
5.84134
5.70249
5.52895
5.30754
5.00263
4.61619
4.31547
4.27571
4.37698
4.42946
526.212
528.122
4.80044
5.02306
5.28163
5.52039
5.71853
5.87128
5.98241
6.05822
6.10699
6.13792
6.15943
6.17777
6.19594
6.21303
6.22522
6.22876
6.22133
6.20111
6.16647
6.11574
6.04734
5.96054
5.85522
5.73155
5.58894
5.42708
5.24586
5.04122
4.8055
4.57437
4.44262
4.42402
4.43405
526.65
528.244
4.89841
5.05466
5.21157
5.39005
5.57936
5.75338
5.89917
6.00246
6.06383
6.0961
6.11528
6.13498
6.16198
6.1949
6.22594
6.24962
6.2624
6.26157
6.24458
6.20854
6.14976
6.06367
5.94615
5.79713
5.62049
5.42751
5.23504
5.05306
4.87706
4.71057
4.59956
4.53935
4.47899
526.575
528.127
4.8014
4.92007
4.99903
5.09266
5.24005
5.46086
5.6904
5.8493
5.93063
5.96089
5.97128
5.98798
6.02287
6.07103
6.12019
6.16043
6.18752
6.19933
6.19413
6.16976
6.1231
6.04939
5.94158
5.79159
5.59165
5.34384
5.07448
4.83521
4.67132
4.58623
4.55347
4.52233
4.44325
526.287
528.059
4.72758
4.85916
4.96625
5.1152
5.33364
5.58744
5.77843
5.87762
5.9116
5.91512
5.9216
5.95462
6.01631
6.09182
6.16254
6.21863
6.25729
6.27798
6.28055
6.26473
6.2298
6.17419
6.09471
5.98563
5.83742
5.63184
5.35736
5.03542
4.73854
4.5491
4.48048
4.44874
4.37647
526.309
528.016
4.6352
4.74217
4.82856
4.95192
5.13493
5.34394
5.52165
5.63448
5.68653
5.70954
5.74429
5.81507
5.91549
6.02181
6.11394
6.18315
6.22898
6.25315
6.25741
6.24303
6.21066
6.16024
6.09143
6.0052
5.90372
5.78257
5.62321
5.39136
5.07532
4.74377
4.51512
4.40786
4.33781
526.667
527.988
4.59339
4.70426
4.81239
4.97415
5.17995
5.37447
5.50704
5.55714
5.55979
5.58223
5.67573
5.82964
5.9952
6.13225
6.22948
6.29115
6.32373
6.33242
6.32086
6.29093
6.24276
6.17461
6.08312
5.96527
5.8235
5.66495
5.50414
5.34302
5.15182
4.9047
4.65572
4.47846
4.37553
527.034
527.954
4.55131
4.65846
4.76137
4.90613
5.07048
5.19419
5.25041
5.26508
5.31751
5.47074
5.69674
5.91652
6.08464
6.19745
6.26781
6.30822
6.32706
6.32907
6.31638
6.28921
6.24633
6.18512
6.1015
5.99064
5.85009
5.67761
5.48049
5.27491
5.07216
4.86886
4.67909
4.52495
4.42112
527.415
527.902
4.51691
4.63318
4.73791
4.86624
4.98151
5.04064
5.08462
5.19321
5.41323
5.68847
5.92765
6.0945
6.20268
6.27203
6.31631
6.34246
6.35336
6.34974
6.33132
6.29709
6.24525
6.17289
6.07581
5.94986
5.79448
5.61133
5.41047
5.20524
5.00537
4.81964
4.66801
4.5457
4.44815
527.945
527.893
4.52966
4.65494
4.74887
4.83019
4.87593
4.93835
5.11984
5.41648
5.72401
5.95493
6.10282
6.19931
6.26951
6.32171
6.35787
6.3783
6.38316
6.37284
6.34739
6.30615
6.24731
6.16741
6.06137
5.92424
5.75266
5.54782
5.32357
5.10266
4.90462
4.7442
4.62572
4.53234
4.44497
528.471
527.929
4.57918
4.69785
4.76382
4.81821
4.9297
5.18436
5.51683
5.79761
5.98133
6.09869
6.18595
6.25834
6.31715
6.35948
6.38586
6.3979
6.3969
6.38334
6.35677
6.31566
6.25721
6.17712
6.06982
5.93021
5.75531
5.54517
5.31324
5.08519
4.88594
4.73116
4.61949
4.52925
4.43654
528.609
528.001
4.63144
4.74767
4.82522
4.94779
5.18104
5.47446
5.71135
5.87365
5.99453
6.0947
6.17913
6.24885
6.30549
6.34861
6.37893
6.39692
6.40259
6.39545
6.37463
6.33856
6.28476
6.20944
6.10738
5.97272
5.79995
5.58425
5.3353
5.08321
4.86739
4.7129
4.60831
4.52153
4.42581
528.619
528.057
4.6736
4.79784
4.90865
5.08324
5.32183
5.55782
5.73917
5.87526
5.98407
6.078
6.16345
6.24109
6.30819
6.35989
6.39595
6.4174
6.42521
6.41987
6.40126
6.36849
6.31979
6.25231
6.16212
6.04426
5.89348
5.69952
5.45956
5.19229
4.9408
4.74866
4.62558
4.52894
4.42566
528.58
528.114
4.72082
4.8544
4.98805
5.17033
5.37446
5.56199
5.70606
5.81508
5.90936
6.00277
6.09623
6.18376
6.25979
6.31935
6.36265
6.39108
6.40565
6.40668
6.39381
6.36596
6.32126
6.25707
6.17026
6.05784
5.91727
5.74049
5.51963
5.26054
4.99542
4.77586
4.63379
4.52862
4.42152
528.648
528.115
4.74295
4.87621
5.00469
5.1718
5.33774
5.4717
5.56691
5.63944
5.72156
5.83014
5.95653
6.08181
6.19308
6.2812
6.34619
6.3911
6.41869
6.43066
6.42784
6.41021
6.37695
6.3263
6.25561
6.1615
6.04035
5.88597
5.68635
5.43559
5.15029
4.88106
4.68602
4.54978
4.42945
528.715
528.034
4.70878
4.85007
4.96841
5.10256
5.21265
5.27735
5.31992
5.38698
5.50639
5.67253
5.85162
6.01342
6.14633
6.24661
6.31781
6.36526
6.39331
6.40463
6.40063
6.38167
6.34729
6.29639
6.22773
6.14066
6.03547
5.90749
5.74589
5.53806
5.28094
5.00452
4.77107
4.59804
4.45661
528.688
527.948
4.63802
4.79783
4.91486
5.01895
5.0905
5.12133
5.15094
5.24355
5.41111
5.62093
5.82668
6.00185
6.14212
6.24845
6.32485
6.37659
6.4082
6.42259
6.4213
6.40471
6.37226
6.32252
6.25373
6.16493
6.05776
5.93035
5.7755
5.58344
5.34813
5.08348
4.84163
4.64894
4.49104
528.695
527.901
4.56877
4.72767
4.83151
4.90356
4.93851
4.94985
5.00025
5.15604
5.39006
5.64016
5.86009
6.03463
6.16817
6.26655
6.33541
6.38034
6.4058
6.41465
6.40847
6.38771
6.35194
6.30002
6.2309
6.14515
6.04653
5.93344
5.79922
5.63219
5.42083
5.17038
4.92481
4.71512
4.54091
528.666
527.891
4.51899
4.65405
4.73487
4.7823
4.81295
4.8756
5.03951
5.29951
5.5805
5.82272
6.00708
6.14139
6.24142
6.31472
6.36613
6.39891
6.41535
6.41678
6.40365
6.37546
6.33078
6.26745
6.18402
6.08279
5.96984
5.84675
5.71193
5.5585
5.37681
5.16654
4.95313
4.75634
4.58226
528.788
527.896
4.49164
4.60343
4.67227
4.72559
4.8012
4.95085
5.1997
5.47856
5.72187
5.90861
6.04759
6.15467
6.24213
6.31164
6.36269
6.39575
6.41207
6.41263
6.39777
6.36686
6.31817
6.24922
6.15885
6.05118
5.93251
5.80541
5.66836
5.51569
5.34297
5.15749
4.96662
4.78544
4.61958
529.049
527.904
4.49717
4.60442
4.68271
4.77312
4.91504
5.13796
5.41169
5.66427
5.86454
6.01459
6.12821
6.21836
6.292
6.34851
6.38753
6.40975
6.41611
6.40705
6.3822
6.34005
6.27765
6.19134
6.08049
5.95356
5.81923
5.68528
5.55379
5.41918
5.27534
5.12434
4.95718
4.79503
4.64483
529.499
527.91
4.52411
4.64434
4.74492
4.87827
5.06694
5.31525
5.5668
5.77355
5.92749
6.04049
6.12759
6.20114
6.268
6.3242
6.36585
6.39125
6.40018
6.39252
6.36747
6.32282
6.2545
6.15769
6.03162
5.88598
5.72992
5.57495
5.43002
5.29898
5.18374
5.06621
4.92633
4.78796
4.65672
530.102
527.913
4.56029
4.70418
4.83231
5.00133
5.21353
5.4587
5.67872
5.84901
5.97366
6.06695
6.14353
6.2137
6.2802
6.336
6.37612
6.39896
6.40457
6.39285
6.36274
6.31149
6.2341
6.12513
5.98475
5.82419
5.65442
5.48911
5.33868
5.20997
5.10884
5.00736
4.88593
4.76757
4.65368
530.661
527.917
4.59976
4.76759
4.91988
5.11315
5.33108
5.55475
5.74092
5.87742
5.97353
6.04534
6.10812
6.17178
6.239
6.29954
6.34543
6.3734
6.38296
6.37389
6.34488
6.29258
6.21084
6.09272
5.93755
5.75666
5.5642
5.38084
5.22515
5.10858
5.02603
4.94113
4.83777
4.73584
4.6357
531.07
527.924
4.64183
4.82951
5.00013
5.21013
5.42558
5.62472
5.78166
5.89208
5.96838
6.02798
6.08635
6.15198
6.22438
6.29174
6.34374
6.37643
6.38957
6.38329
6.35659
6.30622
6.2259
6.10772
5.94865
5.75791
5.5475
5.34038
5.16369
5.03873
4.95905
4.88319
4.79389
4.70476
4.61442
531.227
527.938
4.68845
4.88866
5.06921
5.28861
5.49485
5.66571
5.79281
5.87715
5.93263
5.97753
6.02827
6.09285
6.16909
6.24514
6.30648
6.34708
6.36639
6.36491
6.34198
6.29453
6.21616
6.09846
5.93729
5.74061
5.51925
5.2961
5.10355
4.97162
4.89576
4.8302
4.75502
4.67775
4.59455
531.253
527.96
4.73772
4.94718
5.13404
5.35825
5.55573
5.70383
5.80553
5.86873
5.90791
5.94193
5.98746
6.05234
6.1333
6.219
6.29172
6.34282
6.37117
6.37776
6.36255
6.32317
6.25369
6.14492
5.98955
5.79096
5.55934
5.31419
5.09096
4.92994
4.84431
4.78434
4.72173
4.65514
4.57618
531.223
527.99
4.78518
5.00528
5.19763
5.41915
5.60654
5.73423
5.80855
5.84653
5.86462
5.88162
5.91497
5.97399
6.05619
6.14974
6.23612
6.30096
6.34116
6.35808
6.35262
6.32335
6.26552
6.17081
6.03087
5.84451
5.61764
5.36243
5.11158
4.91304
4.80226
4.74029
4.68753
4.63031
4.55407
531.206
528.024
4.82929
5.06255
5.25945
5.47293
5.6524
5.76863
5.82611
5.84382
5.84294
5.84197
5.85858
5.90524
5.98358
6.08312
6.1857
6.26954
6.32689
6.35886
6.36756
6.35287
6.3115
6.23633
6.1182
5.95191
5.74071
5.48702
5.2125
4.96453
4.79827
4.71306
4.65922
4.60592
4.52897
531.153
528.051
4.86029
5.1143
5.31565
5.51432
5.68695
5.79915
5.84908
5.85047
5.82438
5.79416
5.78003
5.79924
5.86102
5.96035
6.07778
6.18668
6.26792
6.32013
6.34715
6.35086
6.33005
6.28017
6.19392
6.06474
5.89005
5.66657
5.39759
5.11444
4.87734
4.735
4.65535
4.59218
4.50711
531.011
528.062
4.8776
5.1572
5.36117
5.54268
5.70673
5.82017
5.8739
5.87485
5.83761
5.78298
5.73579
5.71744
5.7469
5.83218
5.9588
6.09479
6.20611
6.28287
6.32996
6.35205
6.35011
6.32196
6.26326
6.16958
6.03857
5.86559
5.63844
5.36188
5.07558
4.84816
4.70703
4.60816
4.49997
530.713
528.047
4.8742
5.17919
5.38873
5.55765
5.70889
5.82195
5.88376
5.89424
5.86014
5.79255
5.71111
5.6452
5.62628
5.68101
5.80695
5.96599
6.11142
6.21681
6.28531
6.32502
6.33956
6.32874
6.29076
6.22462
6.13106
6.00901
5.84322
5.6187
5.34077
5.05691
4.8355
4.67226
4.52154
530.256
528.01
4.84875
5.17107
5.38902
5.55227
5.69116
5.7991
5.86522
5.88529
5.86038
5.79442
5.69691
5.59675
5.54105
5.57536
5.70495
5.88405
6.05499
6.18108
6.26323
6.31218
6.33379
6.32943
6.2991
6.24425
6.17
6.08032
5.96424
5.80104
5.57413
5.29474
5.01998
4.78545
4.58055
529.699
527.965
4.81039
5.13967
5.36293
5.52307
5.65212
5.75168
5.8147
5.83574
5.81217
5.7413
5.6242
5.49871
5.44272
5.50922
5.67936
5.88498
6.06377
6.18825
6.26559
6.3082
6.32247
6.31081
6.27513
6.21992
6.15475
6.08377
5.99865
5.87984
5.70399
5.46151
5.18594
4.91297
4.66619
529.256
527.926
4.77355
5.0978
5.31466
5.46512
5.58136
5.66865
5.72166
5.73281
5.68897
5.57609
5.42338
5.33674
5.39258
5.57632
5.81063
6.02254
6.17178
6.261
6.30723
6.32189
6.31017
6.27486
6.22015
6.15594
6.09537
6.04202
5.98553
5.90163
5.76251
5.5552
5.30023
5.02651
4.75923
529.117
527.908
4.75309
5.06369
5.26379
5.40012
5.50296
5.57314
5.59481
5.5379
5.39625
5.24593
5.21905
5.35862
5.60756
5.87213
6.08613
6.22194
6.29182
6.31766
6.31345
6.28533
6.2353
6.166
6.08796
6.02005
5.97475
5.95156
5.9314
5.88265
5.77557
5.59527
5.35045
5.08952
4.82758
529.312
527.925
4.7709
5.06402
5.23914
5.34431
5.39964
5.38683
5.28095
5.13836
5.09545
5.23622
5.51076
5.81321
6.05713
6.21355
6.29158
6.31737
6.31117
6.28334
6.23678
6.16911
6.07832
5.97665
5.89213
5.84841
5.85002
5.87786
5.89979
5.88158
5.79235
5.6129
5.3582
5.10964
4.8671
529.648
527.983
4.81634
5.07481
5.1945
5.22772
5.18152
5.0779
5.03808
5.1824
5.48251
5.80649
6.05045
6.18921
6.25363
6.27932
6.28349
6.26919
6.23623
6.18298
6.10334
5.98895
5.85312
5.74217
5.69973
5.73011
5.80042
5.87023
5.90794
5.88826
5.79032
5.60499
5.3571
5.11979
4.88166
530.013
528.082
4.86058
5.06287
5.12593
5.10523
5.06608
5.14413
5.40359
5.7263
5.96592
6.09603
6.16034
6.203
6.23986
6.26397
6.26377
6.2357
6.18096
6.09724
5.97409
5.81254
5.66315
5.59106
5.617
5.70436
5.80043
5.86957
5.89406
5.86038
5.75724
5.58425
5.36537
5.12845
4.86516
530.421
528.211
4.90417
5.05944
5.11193
5.13443
5.24269
5.48882
5.76428
5.95188
6.05799
6.12437
6.17256
6.20855
6.23413
6.24796
6.24295
6.21359
6.15698
6.06815
5.93506
5.75754
5.58293
5.48322
5.49983
5.60474
5.72422
5.80133
5.82265
5.78783
5.69508
5.54756
5.35846
5.12548
4.83584
530.85
528.339
4.94907
5.0803
5.15601
5.25315
5.44261
5.68305
5.87945
6.00304
6.07103
6.10538
6.12617
6.14772
6.17482
6.20345
6.22421
6.22545
6.19895
6.13876
6.03414
5.8682
5.65066
5.44679
5.33361
5.35258
5.4732
5.60734
5.67605
5.66471
5.58914
5.46507
5.30224
5.08713
4.79606
531.29
528.403
4.9839
5.10108
5.19467
5.33489
5.5429
5.76006
5.91958
6.01005
6.04616
6.04778
6.03591
6.02938
6.03964
6.06919
6.11272
6.15972
6.19499
6.20637
6.18305
6.1105
5.96291
5.7286
5.46011
5.23397
5.12262
5.15363
5.28296
5.40112
5.42751
5.36185
5.23691
5.05125
4.77252
531.614
528.299
4.93421
5.0784
5.18343
5.32306
5.53069
5.74897
5.91296
6.00257
6.03051
6.01577
5.97449
5.92387
5.8828
5.86714
5.88403
5.93103
5.99863
6.07355
6.14201
6.19241
6.21006
6.169
6.02725
5.76914
5.45121
5.1485
4.94234
4.89237
4.97466
5.068
5.07399
4.98109
4.76028
531.819
528.096
4.78556
4.98508
5.11887
5.25019
5.42005
5.60771
5.77359
5.89227
5.95801
5.97809
5.96324
5.9227
5.86286
5.79377
5.73629
5.71481
5.73816
5.79524
5.86788
5.94391
6.02229
6.10446
6.17903
6.21184
6.15183
5.95274
5.61902
5.2389
4.9345
4.80113
4.81551
4.82272
4.7078
531.845
527.933
4.6234
4.85006
5.03352
5.18637
5.3292
5.47245
5.60454
5.71188
5.78858
5.83586
5.85702
5.85391
5.82728
5.77837
5.71383
5.64995
5.61368
5.63169
5.70472
5.79911
5.88222
5.94651
5.99508
6.03244
6.06977
6.11101
6.11922
6.02394
5.76854
5.39464
5.08096
4.90424
4.74361
531.318
527.844
4.51192
4.73162
4.92135
5.07467
5.19944
5.31038
5.41435
5.51165
5.5987
5.66789
5.70965
5.71694
5.68756
5.62839
5.5589
5.50498
5.4896
5.52526
5.60616
5.70637
5.8032
5.89376
5.98182
6.06332
6.12756
6.16146
6.16091
6.13131
6.06935
5.92456
5.64885
5.3099
4.99398
530.071
527.802
4.47801
4.69845
4.88434
5.03546
5.16154
5.27139
5.3626
5.42687
5.45666
5.44988
5.41243
5.3585
5.30836
5.27904
5.28227
5.32395
5.40456
5.51914
5.64693
5.76513
5.87006
5.96504
6.05002
6.12315
6.18488
6.23835
6.27683
6.27673
6.21623
6.08791
5.87965
5.56787
5.22428
529.16
527.806
4.51514
4.73156
4.87063
4.94917
4.985
4.98927
4.97421
4.95638
4.951
4.9683
5.01078
5.07993
5.17673
5.29257
5.41831
5.55442
5.69397
5.82116
5.92678
6.0069
6.0701
6.12756
6.18244
6.23424
6.29236
6.37024
6.45429
6.49058
6.42941
6.25632
5.99164
5.68289
5.35492
529.204
527.843
4.49691
4.63841
4.69978
4.73038
4.77326
4.84941
4.95708
5.08707
5.22818
5.36826
5.50088
5.63461
5.75922
5.85454
5.9271
5.99711
6.07121
6.1304
6.13738
6.09526
6.09311
6.19466
6.35614
6.51557
6.64493
6.73789
6.79188
6.78861
6.68707
6.44293
6.07782
5.71987
5.38419
529.506
527.867
4.55836
4.78562
5.00195
5.22541
5.43857
5.6173
5.74917
5.84035
5.88775
5.89914
5.90235
5.90501
5.87749
5.78124
5.70161
5.80874
6.04549
6.24787
6.37203
6.43784
6.47841
6.51877
6.57076
6.63606
6.71086
6.78892
6.85575
6.87965
6.80411
6.56501
6.17256
5.78302
5.42223
530.131
527.866
4.8444
5.30466
5.68261
5.92717
6.02018
5.97021
5.84023
5.67329
5.4794
5.34026
5.36283
5.57367
5.84791
6.04856
6.15441
6.21409
6.2641
6.31469
6.36686
6.42191
6.48019
6.54
6.59877
6.65359
6.70072
6.73481
6.74441
6.70677
6.58651
6.35369
6.03168
5.69285
5.34091
531.243
527.894
5.18922
5.69883
5.91698
5.91589
5.82533
5.73556
5.67703
5.64468
5.62326
5.60321
5.60232
5.65481
5.76772
5.91237
6.04995
6.15533
6.22688
6.27639
6.31618
6.35675
6.40789
6.47559
6.55609
6.63547
6.69681
6.72425
6.70114
6.61188
6.44668
6.20775
5.91363
5.56798
5.17589
532.429
528.007
5.34698
5.7941
5.97135
5.98769
5.91922
5.80088
5.67266
5.57257
5.50686
5.46678
5.45548
5.4854
5.56188
5.67349
5.8054
5.94797
6.08846
6.20963
6.29532
6.34363
6.36077
6.34987
6.31358
6.2666
6.22945
6.20457
6.17424
6.11629
6.011
5.84203
5.59714
5.28041
4.92673
533.786
528.241
5.3074
5.72118
6.00163
6.1613
6.19685
6.11349
5.96129
5.82833
5.74035
5.65293
5.54269
5.42486
5.34329
5.30938
5.29678
5.30489
5.33973
5.40705
5.5143
5.66055
5.83332
6.01115
6.15857
6.23671
6.23789
6.17931
6.06611
5.89842
5.69012
5.4571
5.20506
4.94067
4.67905
534.496
528.198
5.15836
5.49143
5.75158
5.98792
6.14824
6.23133
6.25352
6.24781
6.26294
6.29044
6.22405
6.03726
5.8552
5.74248
5.65281
5.54969
5.40543
5.22672
5.07882
4.98377
4.9392
4.95574
5.02979
5.14443
5.28219
5.43401
5.58461
5.68806
5.70556
5.62644
5.43887
5.16389
4.82965
533.896
528.058
5.00829
5.34142
5.58078
5.79608
5.97795
6.1012
6.16507
6.18401
6.17657
6.14853
6.09098
5.99794
5.88971
5.83799
5.93021
6.10942
6.14714
5.97759
5.74652
5.54794
5.3828
5.24625
5.13421
5.03671
4.95432
4.8953
4.87349
4.90881
5.00671
5.13127
5.20068
5.1504
4.92245
533.841
527.951
4.84315
5.2183
5.4754
5.67028
5.83381
5.96152
6.04778
6.09456
6.10867
6.09782
6.07036
6.03446
5.9955
5.95542
5.91117
5.84317
5.72589
5.57408
5.46478
5.48759
5.65719
5.87604
6.02075
6.05052
6.00374
5.8824
5.6729
5.42791
5.21399
5.06735
4.99066
4.9375
4.83272
534.616
527.854
4.62217
4.94082
5.19503
5.38482
5.5279
5.63948
5.72766
5.79679
5.84898
5.88432
5.9018
5.90126
5.88406
5.85202
5.80714
5.75577
5.70836
5.67672
5.67031
5.69159
5.72532
5.75189
5.76958
5.78589
5.80439
5.8352
5.89659
5.96346
5.97304
5.86448
5.63568
5.34664
5.08134
532.106
527.801
4.52585
4.79958
5.02801
5.20786
5.3451
5.44793
5.5204
5.56367
5.57665
5.55991
5.52072
5.47194
5.42859
5.40118
5.39364
5.40838
5.44184
5.48998
5.55027
5.62047
5.69798
5.78208
5.87348
5.97085
6.06746
6.15072
6.20457
6.21382
6.18903
6.15086
6.05975
5.79756
5.42025
528.642
527.833
4.65186
4.90889
5.04517
5.10364
5.11683
5.10358
5.07903
5.05575
5.0428
5.04729
5.07497
5.12823
5.20786
5.31251
5.43803
5.5734
5.69906
5.80608
5.90074
5.99486
6.09698
6.21191
6.33921
6.47016
6.59037
6.68528
6.73991
6.73087
6.64124
6.48624
6.28801
6.00764
5.60434
527.829
527.89
4.71596
4.93252
5.05021
5.13017
5.1977
5.26206
5.32017
5.37339
5.4249
5.48032
5.55102
5.6442
5.7649
5.91537
6.07751
6.20987
6.27281
6.2716
6.27487
6.34291
6.46596
6.6057
6.7329
6.83187
6.89861
6.93275
6.92801
6.86323
6.70512
6.4415
6.12482
5.82467
5.44466
528.193
527.925
4.89482
5.26682
5.55336
5.75499
5.87677
5.9206
5.90491
5.86355
5.79856
5.70231
5.61148
5.59354
5.68647
5.86
6.04308
6.19006
6.29353
6.36401
6.41937
6.47186
6.52603
6.58335
6.64394
6.7059
6.76406
6.80775
6.8186
6.76962
6.62962
6.38345
6.06512
5.72959
5.30895
529.245
527.957
5.2515
5.72179
5.91425
5.88726
5.78288
5.69352
5.65616
5.65037
5.65128
5.65154
5.65148
5.65845
5.6876
5.74869
5.83797
5.9466
6.06447
6.17924
6.28048
6.36215
6.42427
6.46856
6.49586
6.50558
6.49603
6.46433
6.40456
6.3066
6.15852
5.95444
5.70043
5.39251
5.00568
531.25
528.099
5.44777
5.85301
5.9978
6.02172
6.00323
5.95878
5.8843
5.78309
5.67268
5.57158
5.48786
5.42418
5.38097
5.35896
5.35963
5.38657
5.44497
5.53633
5.65485
5.78566
5.91279
6.02448
6.11239
6.17176
6.20035
6.19599
6.15432
6.06784
5.92715
5.72517
5.46151
5.14259
4.77928
532.192
528.329
5.63744
6.16089
6.50845
6.71026
6.78217
6.74222
6.61357
6.42921
6.2232
6.03054
5.87534
5.75336
5.64317
5.52925
5.40335
5.26326
5.1281
5.03279
4.99421
5.00118
5.03359
5.07815
5.12597
5.17086
5.20837
5.23531
5.24902
5.24489
5.2144
5.14438
5.02368
4.85171
4.62957
534.13
528.431
5.64908
6.12828
6.46455
6.68858
6.79255
6.82179
6.81607
6.79786
6.78201
6.77633
6.77573
6.76819
6.73959
6.67062
6.53779
6.32763
6.05848
5.78272
5.56282
5.43319
5.37247
5.34252
5.32676
5.3183
5.30531
5.27586
5.2294
5.1689
5.09192
4.99499
4.87426
4.72911
4.56099
533.343
528.286
5.45031
5.92626
6.2593
6.53506
6.73933
6.86216
6.91242
6.90943
6.87752
6.8367
6.7932
6.74746
6.70151
6.65821
6.61986
6.58966
6.56744
6.53905
6.48122
6.38164
6.24995
6.10553
5.98125
5.92496
5.92748
5.92391
5.89235
5.84267
5.76616
5.64136
5.44793
5.16901
4.76538
527.1
528.024
4.98595
5.46899
5.85516
6.15962
6.39054
6.55412
6.65609
6.70531
6.71282
6.68951
6.64484
6.58776
6.52783
6.47561
6.44013
6.4238
6.41942
6.41771
6.41254
6.39911
6.37423
6.3362
6.28392
6.21231
6.1038
5.94005
5.74436
5.58608
5.54423
5.61378
5.6598
5.61033
5.29949
524.784
527.812
4.45466
4.71281
4.96323
5.20362
5.42661
5.62193
5.78687
5.92593
6.04439
6.14427
6.22612
6.29087
6.34039
6.37596
6.39718
6.40229
6.38948
6.35853
6.31095
6.24952
6.17748
6.09849
6.01661
5.93468
5.85521
5.78133
5.71498
5.65873
5.61817
5.61154
5.6708
5.7442
5.55301
524.595
527.802
4.56516
4.83919
5.07737
5.29358
5.47048
5.59929
5.68888
5.74893
5.7835
5.79633
5.79378
5.7825
5.76644
5.74646
5.72221
5.69351
5.66128
5.62797
5.59699
5.57258
5.55809
5.55804
5.57735
5.61612
5.66512
5.71317
5.75361
5.78427
5.79892
5.77829
5.76462
5.8669
5.73516
524.706
527.914
4.83067
5.06898
5.14995
5.1688
5.15532
5.12293
5.08628
5.05211
5.02586
5.01428
5.02163
5.04711
5.08638
5.13376
5.18425
5.23424
5.28388
5.33547
5.39315
5.46341
5.55454
5.67299
5.81765
5.97569
6.1263
6.25393
6.36686
6.48908
6.61626
6.68767
6.60964
6.32307
5.80399
526.279
528.003
4.90234
5.12135
5.21306
5.24456
5.2444
5.24215
5.25011
5.27469
5.32392
5.39895
5.48966
5.58213
5.66786
5.74314
5.80419
5.84718
5.88103
5.93408
6.03128
6.16891
6.32193
6.46579
6.58733
6.68495
6.76407
6.82838
6.87649
6.89769
6.87103
6.76528
6.55033
6.21097
5.67785
527.4
527.949
4.90377
5.22272
5.41804
5.51803
5.55305
5.54864
5.53557
5.52651
5.52154
5.52237
5.53757
5.58042
5.66171
5.78222
5.9297
6.08123
6.21561
6.32528
6.42008
6.50607
6.58083
6.64241
6.69028
6.72505
6.74851
6.75967
6.75157
6.71321
6.63059
6.48928
6.27859
5.96421
5.45096
529.416
527.902
5.06992
5.45913
5.63055
5.65359
5.59732
5.51264
5.43976
5.39718
5.38205
5.39001
5.41755
5.46133
5.52097
5.59885
5.69837
5.81688
5.94553
6.07594
6.20088
6.31457
6.41238
6.49141
6.55027
6.58827
6.6042
6.59486
6.55393
6.47167
6.33608
6.13534
5.85846
5.49045
5.01509
531.393
528.11
5.57709
5.91975
5.96285
5.85342
5.67446
5.52095
5.44695
5.43436
5.43469
5.41905
5.38624
5.34064
5.28689
5.23456
5.19694
5.18481
5.20123
5.243
5.30148
5.36697
5.43227
5.49255
5.54445
5.58562
5.61473
5.63084
5.6318
5.6122
5.5625
5.46987
5.32058
5.10365
4.80167
534.844
528.567
5.77694
6.1722
6.39106
6.49395
6.51705
6.49011
6.43736
6.38454
6.34024
6.29151
6.21934
6.11355
5.97281
5.8044
5.62407
5.45522
5.32284
5.23975
5.20005
5.18825
5.19179
5.20389
5.22072
5.23745
5.24697
5.2409
5.21719
5.17981
5.12839
5.05626
4.95289
4.80902
4.61794
532.522
528.52
5.69122
6.17952
6.52605
6.8041
6.98789
7.06723
7.06431
7.01297
6.93703
6.85041
6.76489
6.69342
6.64615
6.62466
6.61919
6.61083
6.57732
6.49908
6.36768
6.1911
5.99012
5.788
5.62366
5.55108
5.56251
5.57985
5.56423
5.52481
5.46506
5.37621
5.23694
5.01592
4.67231
526.499
528.124
5.14574
5.66238
6.06139
6.37259
6.60501
6.75997
6.84199
6.86202
6.83349
6.7683
6.6776
6.5765
6.48683
6.43061
6.41582
6.42756
6.44716
6.46397
6.4696
6.45906
6.43031
6.38288
6.31738
6.22727
6.09145
5.89049
5.64109
5.40513
5.27966
5.30928
5.37921
5.36791
5.12554
525.329
527.846
4.52966
4.82437
5.09601
5.34737
5.57706
5.77667
5.94258
6.07841
6.19029
6.28273
6.35851
6.41983
6.46775
6.50073
6.51459
6.50494
6.47036
6.41228
6.33362
6.23784
6.12824
6.00684
5.8772
5.7452
5.61875
5.50618
5.41113
5.33721
5.2933
5.29317
5.35855
5.45847
5.32372
524.786
527.815
4.59723
4.88251
5.12925
5.3639
5.5705
5.73337
5.85474
5.94348
6.00328
6.03339
6.03512
6.01402
5.97624
5.92631
5.86727
5.80173
5.73268
5.66295
5.59488
5.53052
5.47229
5.4223
5.38439
5.36709
5.37817
5.41183
5.45214
5.48981
5.51661
5.49845
5.48645
5.60941
5.50597
524.945
527.95
4.91762
5.19958
5.32406
5.39042
5.42902
5.44617
5.44423
5.42572
5.39345
5.35267
5.31159
5.27867
5.25931
5.25458
5.26313
5.28315
5.31125
5.34169
5.36916
5.39264
5.41465
5.44008
5.47993
5.55359
5.67322
5.82306
5.97501
6.12521
6.28221
6.41197
6.41118
6.18679
5.69225
526.618
528.041
4.95473
5.2277
5.35602
5.42712
5.47014
5.49334
5.49858
5.48706
5.46564
5.44391
5.43114
5.43748
5.46925
5.52342
5.59567
5.6841
5.77773
5.85666
5.90876
5.9523
6.02436
6.14043
6.28564
6.43341
6.55837
6.64295
6.67993
6.67345
6.62519
6.52223
6.3434
6.0735
5.61545
527.64
527.937
4.83439
5.16344
5.39281
5.54595
5.63244
5.66062
5.64494
5.61116
5.58173
5.56264
5.55425
5.56219
5.60118
5.6914
5.8326
5.9935
6.13842
6.25066
6.33323
6.399
6.46148
6.53031
6.60716
6.68573
6.75815
6.81678
6.85473
6.85603
6.79603
6.65578
6.43795
6.14979
5.68868
527.933
527.872
4.98145
5.40981
5.62058
5.66637
5.63285
5.58481
5.55241
5.54048
5.54565
5.56541
5.60144
5.66272
5.75833
5.88502
6.03378
6.18428
6.31187
6.41008
6.48816
6.55385
6.61215
6.66972
6.73263
6.80381
6.88114
6.95459
7.00764
7.01931
6.96748
6.8365
6.62396
6.31024
5.78161
528.695
527.917
5.15639
5.56169
5.71132
5.73032
5.69791
5.63771
5.57054
5.5151
5.4747
5.44925
5.44479
5.47541
5.55206
5.67566
5.84115
6.04
6.2538
6.4544
6.61322
6.72323
6.79605
6.83854
6.85711
6.8616
6.85918
6.85384
6.84271
6.81253
6.74453
6.62117
6.42525
6.11052
5.57358
530.884
528.09
5.21686
5.60962
5.81969
5.8911
5.86169
5.76974
5.66563
5.58014
5.5063
5.42793
5.34598
5.27405
5.23466
5.24534
5.30534
5.41068
5.5608
5.75157
5.97339
6.20895
6.44092
6.64581
6.79206
6.86514
6.87604
6.83629
6.752
6.62805
6.46791
6.27275
6.03569
5.71905
5.25102
532.52
528.181
5.17481
5.52673
5.77003
5.9378
6.01484
6.02327
5.99271
5.94511
5.87664
5.76174
5.60333
5.44499
5.32292
5.23583
5.16253
5.09441
5.04496
5.03132
5.05926
5.13197
5.2583
5.44
5.66304
5.90338
6.13582
6.3273
6.43661
6.44823
6.37088
6.21008
5.96791
5.62993
5.16425
533.293
528.17
5.12126
5.44823
5.68106
5.87763
6.00934
6.06827
6.07182
6.04041
5.98556
5.91365
5.83599
5.77257
5.74208
5.7375
5.71393
5.63143
5.5013
5.36193
5.22453
5.08145
4.95302
4.87729
4.86677
4.92097
5.04206
5.2257
5.44936
5.67444
5.84723
5.90615
5.83974
5.63911
5.24739
534.425
528.087
4.97222
5.34224
5.57862
5.75332
5.88889
5.97375
6.00797
6.00354
5.97657
5.94059
5.90279
5.86391
5.81918
5.75841
5.67157
5.56543
5.47539
5.44044
5.46096
5.49911
5.51623
5.49675
5.4413
5.34931
5.23433
5.13574
5.09504
5.14088
5.27766
5.44841
5.54516
5.49279
5.26481
533.923
527.99
4.7608
5.10272
5.34014
5.49933
5.61709
5.70718
5.77395
5.82293
5.85934
5.8839
5.8931
5.88288
5.84954
5.78741
5.69138
5.57089
5.45674
5.37712
5.33938
5.34066
5.36679
5.40436
5.45211
5.51025
5.57098
5.60912
5.59753
5.52621
5.42464
5.38003
5.43251
5.43603
5.27127
531.975
527.916
4.61565
4.91143
5.14499
5.31502
5.44901
5.56515
5.66638
5.74857
5.80517
5.83017
5.81784
5.76279
5.66758
5.54756
5.4245
5.32152
5.25584
5.23259
5.24926
5.29711
5.36178
5.43381
5.5144
5.6091
5.71908
5.8339
5.92383
5.94075
5.8492
5.68397
5.56667
5.49048
5.29118
531.018
527.886
4.60337
4.88743
5.11386
5.28225
5.40454
5.49129
5.54445
5.55998
5.53424
5.47306
5.3901
5.30094
5.22132
5.16573
5.14232
5.15155
5.19057
5.25638
5.33784
5.4188
5.49696
5.58552
5.69748
5.84445
6.03114
6.21601
6.32457
6.31258
6.16431
5.89082
5.60382
5.4162
5.17854
530.717
527.916
4.685
4.95522
5.11758
5.20453
5.24151
5.24054
5.21094
5.16624
5.12111
5.08853
5.0778
5.09189
5.12833
5.18469
5.25803
5.33676
5.41112
5.4866
5.57157
5.65918
5.7513
5.8847
6.0727
6.26658
6.41925
6.5184
6.56117
6.52942
6.38217
6.08882
5.71979
5.44023
5.1475
530.176
527.949
4.69301
4.91755
5.03161
5.08449
5.09973
5.09897
5.10273
5.12331
5.16358
5.22146
5.29287
5.36828
5.43479
5.49165
5.54347
5.5861
5.62174
5.68454
5.80419
5.96177
6.11827
6.2564
6.37858
6.48998
6.59113
6.67561
6.72814
6.72164
6.61614
6.37705
6.03842
5.71774
5.34248
529.618
527.919
4.60399
4.81094
4.95283
5.06138
5.15042
5.23339
5.31187
5.38043
5.43024
5.45965
5.47542
5.48402
5.49675
5.53635
5.62345
5.75133
5.889
6.01378
6.12456
6.2285
6.33056
6.43292
6.53556
6.63651
6.7323
6.81604
6.87513
6.88762
6.82007
6.63987
6.35802
6.03055
5.58504
529.377
527.876
4.58635
4.83907
5.05426
5.22196
5.33902
5.40923
5.44184
5.45349
5.45791
5.46283
5.47484
5.50764
5.57751
5.68852
5.82855
5.9724
6.10132
6.2127
6.31263
6.40797
6.50323
6.60001
6.69758
6.79362
6.88419
6.96243
7.0165
7.0264
6.96295
6.79937
6.54122
6.21382
5.73606
529.571
527.861
4.66812
4.97326
5.20773
5.35343
5.42836
5.45855
5.46541
5.46343
5.4598
5.45939
5.47136
5.51448
5.60645
5.75237
5.93669