/*--------------------------------*- C++ -*----------------------------------*\
| =========                 |                                                 |
| \\      /  F ield         | OpenFOAM: The Open Source CFD Toolbox           |
|  \\    /   O peration     | Version:  v1912                                 |
|   \\  /    A nd           | Website:  www.openfoam.com                      |
|    \\/     M anipulation  |                                                 |
\*---------------------------------------------------------------------------*/
FoamFile
{
    version     2.0;
    format      ascii;
    class       volScalarField;
    location    "266/oil";
    object      wallHeatFlux;
}
// * * * * * * * * * * * * * * * * * * * * * * * * * * * * * * * * * * * * * //

dimensions      [1 0 -3 0 0 0 0];


internalField   uniform 0;

boundaryField
{
    maxY
    {
        type            calculated;
        value           uniform 0;
    }
    minX
    {
        type            calculated;
        value           uniform 0;
    }
    maxX
    {
        type            calculated;
        value           uniform 0;
    }
    minY
    {
        type            calculated;
        value           uniform 0;
    }
    minZ
    {
        type            calculated;
        value           uniform 0;
    }
    maxZ
    {
        type            calculated;
        value           uniform 0;
    }
    oil_to_sphere
    {
        type            calculated;
        value           nonuniform List<scalar> 
1536
(
887.964
953.861
839.892
822.51
610.187
654.394
641.566
291.792
240.217
1017.14
596.704
1034.16
1061.97
1034.03
814.955
604.084
304.508
246.48
-619.222
1058.38
1017.81
665.945
645.93
615.559
683.892
682.944
683.304
619.108
954.922
935.572
841.794
506.591
415.629
688.708
609.219
600.434
545.835
750.574
666.068
740.928
665.668
601.172
922.831
1035.92
948.429
1025.17
660.804
663.508
792.77
690.542
668.246
671.026
634.49
654.492
462.314
392.25
648.326
644.506
252.27
-116.305
-35.774
-126.676
-50.6326
1057.62
1066.66
1030.72
954.713
1029.67
882.809
943.017
693.583
654.06
839.271
670.664
610.188
422.93
378.593
348.435
606.282
246.24
-129.452
-50.2021
-218.538
-226.869
4.86432
-40.4149
-204.906
299.246
244.996
-117.721
-43.2039
-620.547
-618.31
1064.35
1068.12
1038.27
973.026
1003.06
1034.31
876.097
961.23
687.949
879.57
845.699
661.789
670.061
616.707
356.039
593.999
429.82
372.155
413.269
-119.044
-34.9464
-211.91
-200.589
-214.465
0.0256013
-40.602
12.7442
250.626
-41.8681
-619.573
1030.68
875.836
941.033
883.753
934.517
667.165
671.527
681.99
667.103
672.105
659.771
678.528
679.262
655.019
393.672
638.699
635.126
-114.736
-37.632
301.727
252.019
-48.8109
237.185
799.708
798.075
637.167
704.099
839.051
794.815
659.94
680.831
668.061
544.583
471.159
482.504
801.836
776.728
801.381
875.295
729.196
680.064
601.23
549.326
654.26
568.168
476.971
490.741
907.885
761.737
938.208
745.574
494.01
368.929
807.739
815.443
846.268
786.308
725.405
675.313
551.534
666.2
512.496
493.654
480.657
974.722
786.093
842.96
900.011
807.098
883.219
831.895
523.412
525.839
566.86
576.417
508.77
538.147
564.904
607.531
243.701
213.55
183.025
265.748
304.762
288.043
350.001
324.446
219.69
158.002
125.21
997.59
1095.75
1067.35
1002.96
1006.13
1016.05
1000.39
986.693
1038.9
958.099
991.164
992.403
814.545
809.288
944.947
869.368
705.533
553.767
513.106
653.25
526.846
222.356
254.065
191.649
268.156
297.855
201.189
151.621
-292.537
-355.165
1050.14
998.626
1017.48
990.056
1029.18
1098.57
1032.85
988.928
776.77
691.366
779.601
794.774
536.039
610.304
228.44
164.32
308.339
379.192
342.216
133.739
-359.842
-299.676
-478.534
-480.277
-292.349
1016.82
984.33
977.913
959.869
990.078
994.465
971.052
1022.54
1118.77
1051.52
984.828
881.07
798.187
802.958
861.397
951.341
875.325
805.962
804.323
547.182
556.788
610.262
625.185
565.72
607.725
193.074
158.961
209.31
284.235
255.086
302.58
288.572
291.929
188.777
143.576
264.844
207.583
703.754
634.584
652.253
548.161
513.37
495.244
455.121
923.084
863.949
952.121
910.539
864.487
913.955
935.788
958.241
1000.23
929.842
948.555
932.2
1086.41
1017.66
994.027
950.928
1002.94
1047.7
991.691
892.195
913.961
939.457
867.599
942.491
961.788
1000.52
994.208
1036.15
1020.53
1007.1
971.211
970.488
961.125
971.688
920.304
922.141
876.303
918.003
853
874.2
961.382
799.074
911.786
811.349
835.212
784.396
706.162
905.519
802.825
793.753
859.269
708.799
764.649
800.338
697.294
738.454
660.828
816.601
901.963
804.214
812.769
834.12
724.67
770.394
759.285
551.054
586.821
539.84
478.911
437.56
483.364
391.718
360.455
559.578
592.125
553.064
494.52
449.77
513.812
391.53
359.907
336.363
512.109
355.108
492.218
454.907
497.498
391.235
555.251
598.601
547.134
590.071
378.597
340.139
492.294
453.121
506.356
379.797
348.875
284.643
248.35
280.345
245.718
189.082
191.535
146.38
233.416
166.389
309.216
136.294
155.1
115.468
69.7284
135.096
108.944
36.6725
2.9088
-70.071
254.526
224.596
185.206
271.285
159.744
192.254
37.0896
-3.87875
-24.7245
-69.315
119.059
76.9504
137.37
111.073
96.4591
280.577
244.936
283.4
289.636
191.433
142.876
249.408
203.42
1219.92
1143.42
1077.15
1201.28
1090.08
1108.93
1146.6
1042.67
1065.29
1093.69
1086.46
992.664
1045.68
972.577
964.397
943.651
941.206
971.146
955.715
1002.26
1043.82
912.596
1008.8
927.003
969.229
934.017
1013.77
948.026
1011.19
983.238
1028.23
990.32
915.417
957.017
877.567
949.326
788.445
834.416
822.395
670.952
736.428
724.813
813.368
670.807
795.55
661.247
733.047
683.007
614.981
653.347
556.37
527.561
456.556
499.444
479.456
430.841
368.626
499.076
366.082
601.497
544.609
471.953
158.506
112.56
76.826
145.839
115.308
222.962
160.176
305.186
129.217
31.8898
9.82224
-63.149
-164.778
-237.377
-157.946
-234.173
-100.315
-35.9369
-102.935
-177.969
-159.678
213.72
249.336
182.362
265.398
125.865
78.5676
145.167
102.359
215.52
154.396
282.33
339.73
131.744
33.4274
101.828
2.64644
-69.4405
74.3285
-297.558
-356.174
-288.475
-355.064
-474.159
-474.855
-476.091
-476.814
-360.966
1175.22
1064.14
1110.43
1094.93
1068.43
1176.71
1110.89
1091.35
1060.87
997.641
1084.94
1099.36
1128.97
1002.96
1002.62
1046.94
1053.05
912.899
987.793
914.949
1017.5
975.467
970.32
945.848
986.348
942.378
980.683
1023.64
949.852
905.836
884.711
979.611
1018.76
912.236
998.856
924.973
877.638
1032.48
973.293
964.631
985.48
931.321
930.934
965.871
1012.03
935.034
881.63
817.194
791.357
739.567
680.641
748.889
861.543
832.535
818.42
762.753
756.529
720.154
724.075
732.203
669.19
672.837
551.748
648.802
513.615
565.529
498.529
458.642
696.44
611.723
389.852
519.698
364.682
518.687
427.004
366.278
479.986
489.693
479.033
481.729
461.874
661.882
535.078
32.6061
13.256
-19.9822
-61.0645
252.463
215.298
186.195
267.708
159.592
192.432
82.9899
139.769
142.843
109.317
91.6593
-96.4898
-95.9156
-30.3945
-172.633
-162.296
-238.264
-158.087
-156.72
-240.407
-41.9932
-107.82
-102.228
-31.9547
-176.322
217.424
157.448
296.88
332.176
133.017
36.3392
104.628
-3.50228
-24.7764
77.7853
199.973
147.791
245.134
221.129
184.656
268
295.007
75.5323
116.392
142.25
104.64
96.1612
-477.294
-474.35
-289.978
-295.9
-352.956
-361.115
-221.006
-297.918
-360.383
862.667
937.394
923.439
858.151
925.496
860.325
857.061
1011.41
985.403
1047.25
987.79
916.169
964.027
938.768
1000.81
947.893
974.018
917.352
919.481
1015.26
972.344
951.317
958.05
931.793
929.747
955.845
885.172
874.732
918.425
951.184
913.277
981.341
938.071
1046.14
918.954
885.861
903.895
917.475
876.897
861.606
963.716
806.731
733.529
735.798
779.15
674.929
895.055
801.735
798.341
842.985
766.027
768.127
725.751
861.263
787.834
800.1
840.39
713.906
724.377
791.238
776.684
674.002
828.4
890.694
819.055
832.53
772.016
769.318
734.78
733.532
668.803
489.747
450.157
499.698
390.484
375.642
343.258
582.452
527.33
591.515
552.145
449.939
492.468
490.776
377.784
347.667
356.443
555.055
551.677
598.275
546.978
597.536
373.275
391.376
485.212
443.938
492.376
373.184
345.688
611.088
542.506
546.327
569.477
605.058
389.955
353.737
455.111
500.952
499.982
244.426
284.92
190.145
184.969
139.544
280.968
247.749
285.613
118.618
75.7147
140.532
103.008
47.9109
120.025
9.46577
-65.0064
84.4737
219.32
244.672
181.435
269.354
335.144
418.395
249.974
179.938
142.735
162.824
223.011
35.5466
97.6974
0.796851
-13.8611
69.3278
123.522
81.4947
132.812
118.992
96.8265
283.887
333.631
222.24
158.528
128.56
268.424
302.14
220.663
252.228
190.411
848.107
809.841
377.138
318.793
1032.98
972.873
1013.54
1027.01
1012.91
792.722
886.221
852.548
883.523
596.888
671.671
319.021
-227.708
-268.128
842.566
839.927
296.205
-224.075
-274.071
-115.763
1028.29
807.274
645.351
-125.644
886.232
832.121
867.046
590.912
683.666
667.02
291.062
847.432
886.228
663.273
678.887
871.043
658.598
673.587
569.282
610.908
348.781
417.47
470.507
810.959
855.786
649.426
726.424
588.025
639.953
349.024
415.987
431.893
800.171
878.676
654.915
759.23
451.456
357.588
437.79
554.786
731.604
715.039
871.614
892.543
678.408
668.56
645.879
672.394
427.971
358.17
427.979
302.544
1098.03
1058.83
874.837
1003.06
869.544
1037.68
1018.13
674.911
816.336
813.319
840.657
809.232
655.651
444.115
415.428
415.084
423.997
419.96
401.086
47.294
317.793
14.752
54.8432
1067.05
1020.69
1081.29
1030.81
1066.72
1041.16
1067.04
1055.74
1086.17
1046.57
873.495
1007
872.277
939.733
876.62
652.495
742.747
797.991
907.691
688.364
857.432
652.197
356.878
429.093
451.647
371.062
412.427
411.229
304.289
52.8387
-10.1594
-43.6575
-24.4826
316.347
44.3452
-263.391
-258.718
-271.165
1097.58
1064.32
1043.37
1120.9
1051.71
1082.47
1044.75
1102.17
1076.36
880.577
1003.12
849.893
1024.35
1015.86
971.054
1012.1
959.938
862.17
900.692
647.115
788.749
904.711
808.999
888.846
678.71
350.933
435.175
583.493
664.222
400.437
468.608
367.119
423.846
643.457
321.753
48.7669
-52.8598
-8.09508
-46.0196
311.488
43.9942
-260.73
-270.237
-266.48
1060.49
931.099
886.899
1030.62
863.484
675.417
840.325
817.864
816.07
809.516
407.552
472.459
403.936
403.693
408.829
45.0968
332.169
59.5844
331.193
867.414
794.606
722.143
788.713
881.568
805.832
498.226
552.86
494.409
828.236
879.195
820.799
748.437
880.967
708.701
781.743
769.207
703.047
818.8
761.891
872.153
732.865
763.767
766.663
730.589
604.551
590.267
503.181
501.188
443.374
371.515
488.7
424.587
460.777
874.277
782.194
738.491
783.353
854.05
703.461
720.33
727.641
634.964
777.725
550.027
631.593
608.727
511.739
518.196
454.626
371.714
478.983
416.353
463.007
789.191
851.547
703.404
709.468
737.088
622.788
773.994
594.777
498.272
415.229
502.572
460
487.498
967.302
971.314
959.146
980.652
725.321
862.248
824.896
556.68
558.4
609.393
601.145
595.825
289.434
356.109
339.438
208.345
183.961
366.393
304.952
302.821
980.576
997.587
1023.96
959.077
752.369
818.977
717.821
892.302
806.362
593.932
592.309
513.248
298.784
387.943
339.293
213.01
-97.4509
-85.9464
-173.453
-162.932
-239.616
-288.434
982.243
973.088
972.111
948.248
1008.78
788.108
858.311
826.023
543.749
186.747
351.261
-163.459
-240.319
-290.875
-375.686
-70.2333
979.995
988.648
1024.14
977.937
1007.65
1006.16
985.454
968.908
1010.85
708.519
770.581
943.92
808.997
601.342
602.431
299.661
355.915
292.592
251.163
336.066
204.182
-64.2546
594.836
339.314
912.807
884.155
790.767
794.057
596.286
540.934
577.345
479.753
412.241
493.716
422.439
423.203
395.73
1093.38
1063.22
836.376
848.096
920.049
967.834
952.077
967.587
854.203
916.291
891.253
949.415
856.15
908.859
992.6
957.816
964.605
958.147
847.152
887.971
908.879
941.875
977.705
1013.96
987.151
1004.49
928.399
850.719
901.514
1011.67
982.882
1016.3
986.446
856.888
970.537
1000.87
949.714
887.28
912.493
891.067
788.91
750.328
914.753
790.351
729.771
727.261
651.682
661.751
657.967
744.785
882.339
818.165
674.997
666.892
730.532
677.041
745.373
856.974
774.15
667.708
619.417
605.852
470.342
493.626
370.551
608.483
471.645
507.297
382.078
564.084
609.36
478.042
379.587
602.139
442.949
480.139
295.513
293.962
185.186
193.826
93.9251
101.381
197.35
106.833
81.9243
0.189691
-30.047
-34.0407
15.706
283.542
210.379
102.197
70.9123
7.29618
10.6302
-35.8926
251.841
298.316
98.9037
1107.47
1036.28
1072.83
995.921
1030.26
1106.98
972.262
1179.28
1034.76
1053.74
1042.9
1108.92
1047.91
1100.04
1183.98
1111.23
1033.21
1084.49
928.04
977.383
1056.34
1003.37
872.497
964.06
912.749
987.991
955.943
979.6
956.448
1014.8
915.909
841.581
879.233
928.016
1009.28
970.235
963.89
929.585
713.67
764.567
668.074
791.703
849.764
718.345
763.805
781.053
795.649
803.097
858.109
726.305
551.738
501.807
451.409
518.221
600.273
409.728
427.296
489.763
557.212
498.606
439.206
369.732
13.3412
-14.261
-25.1853
183.173
101.606
71.3364
4.1842
284.109
313.499
5.72801
-23.4998
185.499
9.26032
-288.202
-285.904
-366.627
-221.134
-372.444
-279.49
-202.989
1123.79
1033.73
1146.07
1079.85
1072.45
1019.4
1033.52
972.661
1094.01
1147.37
1099.61
1037.46
1022.01
1004.53
1049.65
1053.08
1051.58
928.039
1016.74
907.113
1001.22
1016.6
974.001
831.582
999.915
941.554
973.043
959.779
925.299
961.195
960.008
873.944
908.409
854.676
768.588
872.114
793.469
722.715
697.352
627.856
732.981
867.651
774.373
780.484
576.963
424.058
443.555
539.945
531.261
465.621
518.917
508.745
494.459
439.927
588.918
595.041
102.611
73.9639
7.67374
297.808
215.691
7.71837
-28.0663
190.019
12.6879
285.997
1.14695
-370.677
-280.909
-202.342
1105.91
977.368
867.344
956.465
860.893
866.975
905.81
1009.06
977.406
966.563
872.929
915.603
941.7
928.917
985.795
960.623
975.234
958.244
927.467
848.423
956.909
902.928
889.679
801.495
674.57
757.558
914.248
784.87
727.286
661.679
661.439
740.267
870.199
664.138
734.988
866.169
675.329
466.011
389.044
571.28
606.12
574.109
464.127
510.926
593.276
446.043
600.46
446.345
90.3325
296.215
3.50639
-25.0574
21.7458
288
353.36
196.855
5.01433
20.5003
181.269
290.743
)
;
    }
}


// ************************************************************************* //
