/*--------------------------------*- C++ -*----------------------------------*\
| =========                 |                                                 |
| \\      /  F ield         | OpenFOAM: The Open Source CFD Toolbox           |
|  \\    /   O peration     | Version:  v1906                                 |
|   \\  /    A nd           | Web:      www.OpenFOAM.com                      |
|    \\/     M anipulation  |                                                 |
\*---------------------------------------------------------------------------*/
FoamFile
{
    version     2.0;
    format      ascii;
    class       volScalarField;
    location    "10";
    object      nut;
}
// * * * * * * * * * * * * * * * * * * * * * * * * * * * * * * * * * * * * * //

dimensions      [0 2 -1 0 0 0 0];


internalField   nonuniform List<scalar> 
78750
(
0.000601189
0.00127046
0.000837167
0.000176828
4.02118e-05
4.34312e-05
2.16833e-05
4.06457e-05
2.84552e-05
4.1622e-05
3.6931e-05
4.39313e-05
4.5151e-05
4.88027e-05
5.25225e-05
5.63417e-05
6.01921e-05
6.39635e-05
6.76292e-05
7.10382e-05
7.40737e-05
7.66151e-05
7.80995e-05
7.79312e-05
7.78089e-05
7.76982e-05
7.75564e-05
7.73275e-05
7.69303e-05
7.6238e-05
7.5026e-05
7.29341e-05
6.88505e-05
1.95361e-05
5.10767e-07
6.44911e-05
7.23341e-05
2.7695e-05
1.73226e-05
5.6268e-05
5.5452e-05
6.55862e-05
7.44641e-05
8.9405e-05
9.96115e-05
0.000112605
0.000123059
0.0001326
0.000140282
0.000145848
0.000149501
0.00015142
0.000151907
0.000151355
0.000150168
0.000148673
0.000147104
0.000145634
0.000144525
0.000143948
0.000143662
0.000143338
0.000142619
0.000140679
0.000135655
0.000123461
9.60801e-05
5.24142e-05
2.18089e-05
1.59797e-06
2.35016e-06
4.22532e-05
4.68877e-05
5.3804e-05
7.10116e-05
0.000138617
0.000189057
0.000191134
0.000191925
0.000193064
0.00019402
0.000194189
0.000194099
0.000193806
0.00018818
0.000182814
0.000178276
0.000173584
0.000168598
0.000163715
0.000159183
0.000154753
0.000150253
0.000145967
0.000142024
0.000138398
0.000134871
0.000130896
0.000125645
0.000117581
0.000102861
7.38626e-05
3.541e-05
1.61929e-05
2.30272e-06
6.24615e-07
2.5272e-05
4.44474e-05
8.47532e-05
0.000179227
0.000181328
0.000118038
9.9772e-05
0.000106987
0.000121259
0.000134487
0.000147083
0.000160736
0.000175065
0.000188286
0.000189403
0.000189659
0.000189701
0.000189521
0.000189136
0.000188578
0.000187896
0.00018715
0.0001864
0.00017708
0.000155749
0.000136627
0.000119103
0.000101072
8.18111e-05
6.19865e-05
4.35005e-05
2.82652e-05
2.04274e-05
3.06785e-06
5.56941e-07
2.58463e-05
5.68245e-05
9.89128e-05
0.000155409
0.00018022
0.000182471
0.00018384
0.000184436
0.000184415
0.000183949
0.000183216
0.000182381
0.000181591
0.000180965
0.000180587
0.000180511
0.000180749
0.00018128
0.000182044
0.000182945
0.000183858
0.000184637
0.000185194
0.00018546
0.00018541
0.000185067
0.000175166
0.000134276
9.32496e-05
5.79065e-05
3.18332e-05
1.86979e-05
1.69673e-05
3.95914e-06
7.8424e-07
4.59279e-05
0.000102874
0.000140741
0.00016214
0.000168033
0.000169996
0.000169416
0.000156796
0.000143611
0.000132475
0.000123873
0.000117609
0.000113378
0.000110913
0.000109931
0.000109949
0.000110276
0.000110282
0.000109682
0.000108635
0.000107655
0.000106989
0.000106008
0.000103691
9.98627e-05
9.55346e-05
9.2463e-05
9.00797e-05
7.90412e-05
4.97941e-05
2.42711e-05
1.54076e-05
2.10116e-05
4.90967e-06
5.79041e-07
6.43567e-05
8.85463e-05
9.19624e-05
8.45591e-05
7.73949e-05
7.44045e-05
7.44808e-05
7.55526e-05
7.62088e-05
7.58716e-05
7.44931e-05
7.22871e-05
6.96171e-05
6.69775e-05
6.4973e-05
6.42031e-05
6.51106e-05
6.77364e-05
7.14536e-05
7.48331e-05
7.59517e-05
7.39414e-05
7.00062e-05
6.53543e-05
6.08019e-05
5.72902e-05
5.45949e-05
5.07163e-05
4.46473e-05
3.74379e-05
2.76856e-05
2.14676e-05
3.34265e-05
5.33909e-06
4.65182e-07
2.38537e-05
2.55151e-05
2.59178e-05
2.9682e-05
3.64112e-05
4.52744e-05
5.4984e-05
6.38019e-05
7.03507e-05
7.42584e-05
7.5898e-05
7.58499e-05
7.45929e-05
7.23982e-05
6.95093e-05
6.65222e-05
6.45354e-05
6.40224e-05
6.25485e-05
5.73529e-05
5.15406e-05
4.79198e-05
4.67125e-05
4.8316e-05
5.25262e-05
5.74554e-05
6.08987e-05
6.30956e-05
6.4883e-05
5.65535e-05
2.70462e-05
1.27913e-05
1.61411e-05
5.58446e-06
2.9427e-07
8.94594e-06
1.5862e-05
2.45308e-05
3.60901e-05
5.15308e-05
7.1033e-05
9.12139e-05
0.000105601
0.000110471
0.000107253
9.97959e-05
9.12168e-05
8.30219e-05
7.5633e-05
6.89265e-05
6.20199e-05
5.39176e-05
4.6794e-05
4.49406e-05
5.05954e-05
6.01669e-05
5.8991e-05
5.23285e-05
6.10912e-05
9.45971e-05
9.91778e-05
5.78127e-05
3.46269e-05
2.35875e-05
1.83303e-05
1.86282e-05
2.43642e-05
5.20498e-05
7.09386e-06
1.78863e-06
1.26138e-05
3.05495e-05
5.74542e-05
9.25051e-05
0.000117892
0.000109108
8.48096e-05
6.82949e-05
6.15746e-05
6.14448e-05
6.58237e-05
7.38988e-05
8.56972e-05
0.000101746
0.000122943
0.000149724
0.000176365
0.000180954
0.000155072
0.00013418
0.000133733
0.000147024
0.000153031
0.000134716
0.00010854
8.69734e-05
7.33377e-05
6.18641e-05
3.75441e-05
1.80109e-05
1.15619e-05
1.43756e-05
4.82623e-05
7.38236e-06
4.8334e-06
2.90362e-05
0.000105754
0.000109798
8.44644e-05
5.62101e-05
3.69137e-05
2.93083e-05
3.16404e-05
4.5299e-05
7.31851e-05
0.000109784
0.000141036
0.000155957
0.000152384
0.000139692
0.000126594
0.000115887
0.000107557
0.000101274
9.68169e-05
9.43336e-05
9.52213e-05
9.99156e-05
0.000103344
9.62174e-05
7.7109e-05
5.60268e-05
4.03151e-05
2.83216e-05
1.89509e-05
1.6876e-05
2.85509e-05
6.92332e-05
7.98621e-06
5.16557e-06
3.60004e-05
0.000104531
0.000121556
8.84964e-05
5.25897e-05
3.60235e-05
3.36255e-05
4.63666e-05
8.41644e-05
0.000143455
0.000184995
0.000190344
0.000186345
0.000184524
0.000183411
0.000179948
0.000171668
0.000156769
0.000135927
0.000113383
9.10258e-05
7.12341e-05
5.78963e-05
5.19333e-05
5.20265e-05
5.51593e-05
5.60509e-05
4.99386e-05
3.76182e-05
2.43841e-05
1.79575e-05
2.63079e-05
7.04176e-05
6.96129e-06
4.42194e-06
2.53702e-05
9.0278e-05
0.000125593
0.000101165
7.41359e-05
5.77297e-05
4.62788e-05
3.85693e-05
3.6266e-05
4.17869e-05
5.88388e-05
9.00926e-05
0.000127866
0.000158331
0.000178619
0.00019164
0.000199598
0.000203291
0.000202486
0.000195049
0.000173531
0.000135801
9.60634e-05
6.76808e-05
5.22845e-05
4.63092e-05
4.62971e-05
4.91274e-05
4.97041e-05
3.85769e-05
2.02859e-05
1.79475e-05
5.31518e-05
6.58239e-06
5.27775e-06
3.32644e-05
0.0001233
9.40666e-05
5.35651e-05
3.65542e-05
3.05987e-05
2.88071e-05
3.29824e-05
5.54788e-05
0.000110799
0.000161958
0.000216378
0.000219608
0.000222235
0.000224248
0.000225481
0.000225779
0.000224993
0.000222999
0.000219724
0.00021522
0.000186537
0.000138944
9.57318e-05
6.38419e-05
4.33792e-05
3.15663e-05
2.52557e-05
2.20791e-05
2.04651e-05
1.74523e-05
2.14735e-05
6.12017e-05
7.7327e-06
5.91665e-06
3.56399e-05
0.000134362
7.46182e-05
4.47726e-05
3.97109e-05
4.51885e-05
4.81526e-05
3.72793e-05
3.08481e-05
4.00176e-05
8.14651e-05
0.000164
0.000210126
0.000214305
0.000218273
0.000221727
0.000224415
0.000226117
0.000226648
0.000225836
0.000223536
0.000219674
0.000214339
0.000205405
0.000142837
8.80675e-05
4.85636e-05
2.56711e-05
1.55164e-05
1.22029e-05
1.26917e-05
2.32679e-05
7.07611e-05
8.25385e-06
7.16258e-06
8.34847e-05
6.07672e-05
2.52229e-05
1.72851e-05
1.82718e-05
2.82611e-05
6.15891e-05
0.000108139
0.00016501
0.000206444
0.000194655
0.000190164
0.000201842
0.000219681
0.000223897
0.000226622
0.000228928
0.00023063
0.000231537
0.000231437
0.000230113
0.000227376
0.000223133
0.000217506
0.000190367
0.000123917
6.38805e-05
2.78063e-05
1.38679e-05
1.0811e-05
1.31971e-05
2.71554e-05
6.2111e-05
8.16986e-06
6.9947e-06
9.23385e-05
2.96566e-05
1.6539e-05
2.08767e-05
4.08762e-05
5.98658e-05
8.46601e-05
0.000121112
0.000148684
0.000166121
0.000183607
0.000202855
0.00021442
0.000217826
0.000221215
0.000224495
0.000227559
0.000230267
0.000232447
0.000233891
0.000234345
0.000233536
0.000231219
0.000227266
0.000221797
0.000162884
8.55961e-05
3.34763e-05
1.34531e-05
9.30326e-06
1.34267e-05
3.18629e-05
5.64993e-05
8.07386e-06
6.82508e-06
8.71597e-05
4.64992e-05
2.43428e-05
2.37224e-05
3.59695e-05
5.16783e-05
6.83381e-05
9.60333e-05
0.000138244
0.000180636
0.000201074
0.000203856
0.000206842
0.000209995
0.000213288
0.000216691
0.000220148
0.000223569
0.000226818
0.000229698
0.000231963
0.000233296
0.000233337
0.000231755
0.000228352
0.000176541
0.000100021
4.1805e-05
1.58481e-05
9.12519e-06
1.29051e-05
3.55802e-05
4.68225e-05
7.73122e-06
6.35391e-06
5.56192e-05
7.2733e-05
3.53446e-05
2.25813e-05
2.13372e-05
2.72256e-05
4.26343e-05
7.27492e-05
0.000109333
0.000132816
0.000152231
0.000176102
0.000199158
0.000203053
0.000205757
0.000208591
0.000211589
0.000214757
0.000218057
0.000221385
0.000224563
0.000227351
0.00022942
0.000230378
0.000193953
0.000151676
0.000106358
5.94801e-05
2.593e-05
1.26037e-05
1.2438e-05
2.92944e-05
4.70133e-05
7.03123e-06
4.99577e-06
3.15972e-05
7.92769e-05
9.63012e-05
6.45793e-05
3.4998e-05
2.37223e-05
2.00063e-05
2.13142e-05
3.08665e-05
5.74468e-05
9.75647e-05
0.000120581
0.000136933
0.000157154
0.000177903
0.000195042
0.000203757
0.000206061
0.000208529
0.000211188
0.000213997
0.000216817
0.000203545
0.000182783
0.000159495
0.000134234
0.000105918
7.38819e-05
4.20484e-05
2.11099e-05
1.48575e-05
2.3601e-05
6.23175e-05
6.21313e-06
4.87155e-06
2.72211e-05
7.73275e-05
0.000105903
0.000109422
9.33316e-05
5.86231e-05
3.49604e-05
2.30923e-05
1.74247e-05
1.70421e-05
2.52417e-05
4.86055e-05
7.49719e-05
9.63244e-05
0.00012339
0.000156877
0.000188002
0.000203241
0.000205139
0.000206994
0.000208861
0.000210748
0.000196471
0.000176427
0.000155986
0.000134985
0.000111738
8.48756e-05
5.53527e-05
3.05361e-05
1.87983e-05
2.25415e-05
6.41179e-05
5.83165e-06
4.69193e-06
2.60898e-05
8.00522e-05
0.000124029
0.000134959
0.000135097
0.000129781
0.000104465
6.1929e-05
3.37762e-05
2.00391e-05
1.44716e-05
1.57447e-05
2.90671e-05
5.43281e-05
6.55625e-05
8.41215e-05
0.000122295
0.000173662
0.000206277
0.000208564
0.00021058
0.00021237
0.000202936
0.000176802
0.000153457
0.000134281
0.000116243
9.56822e-05
6.96722e-05
4.1296e-05
2.31622e-05
2.24444e-05
5.3465e-05
5.73605e-06
5.18447e-06
2.45989e-05
7.13617e-05
0.000108084
0.000109597
9.3394e-05
7.60589e-05
6.97718e-05
7.55831e-05
7.84496e-05
5.00306e-05
2.50269e-05
1.55524e-05
1.47832e-05
2.3846e-05
4.84295e-05
6.39742e-05
6.83914e-05
8.66622e-05
0.000130758
0.000195801
0.000212284
0.000215425
0.000218201
0.000211826
0.000175171
0.000144293
0.000122173
0.000104281
8.40976e-05
5.641e-05
3.01186e-05
2.28961e-05
4.53321e-05
6.00832e-06
5.25863e-06
2.35329e-05
6.73881e-05
0.000110214
0.000120543
0.00010887
8.20569e-05
5.74544e-05
4.59065e-05
4.58613e-05
5.09112e-05
4.06001e-05
2.2743e-05
1.5508e-05
1.79366e-05
3.67745e-05
7.63368e-05
7.99766e-05
7.51377e-05
8.60588e-05
0.000119624
0.000176527
0.000216401
0.000220306
0.000223797
0.000187856
0.000149333
0.000119942
9.95091e-05
8.22452e-05
5.94518e-05
3.33176e-05
2.44151e-05
4.7565e-05
6.73687e-06
5.27905e-06
2.15068e-05
6.22981e-05
0.00010835
0.000113713
9.29037e-05
6.83439e-05
5.36769e-05
4.68654e-05
4.43652e-05
4.47965e-05
4.24023e-05
2.99947e-05
1.91354e-05
1.66189e-05
2.60509e-05
6.93928e-05
0.000137498
0.000120753
0.000102735
0.000103833
0.000123423
0.000161628
0.000204966
0.000222994
0.000207036
0.000168022
0.000125714
9.15979e-05
6.69837e-05
4.70676e-05
3.04049e-05
2.7464e-05
6.01121e-05
7.49763e-06
5.97481e-06
2.39492e-05
7.22305e-05
0.000114668
0.000104939
7.01817e-05
4.55155e-05
3.61546e-05
3.57665e-05
4.04644e-05
4.63722e-05
4.7107e-05
3.7077e-05
2.49185e-05
1.97513e-05
2.53893e-05
6.14917e-05
0.000178307
0.000182961
0.000188274
0.000164842
0.000149761
0.000154122
0.000174718
0.000199107
0.000203892
0.000177886
0.000132789
8.80778e-05
5.56716e-05
3.64698e-05
2.72969e-05
3.19214e-05
7.04279e-05
7.92399e-06
6.69768e-06
2.77391e-05
9.18307e-05
0.000120753
8.04724e-05
4.40266e-05
3.11468e-05
3.03625e-05
3.46397e-05
3.93168e-05
4.04951e-05
3.70318e-05
3.13562e-05
2.6909e-05
2.7956e-05
4.38542e-05
0.000103923
0.000179923
0.000183032
0.000186818
0.000191087
0.000195719
0.000200627
0.000205744
0.000208874
0.000203487
0.000178949
0.000135119
8.75147e-05
5.16569e-05
3.21985e-05
2.63192e-05
3.67535e-05
6.71986e-05
7.96302e-06
7.2522e-06
3.52406e-05
0.000117489
9.8715e-05
4.71826e-05
2.54176e-05
2.1359e-05
2.76877e-05
3.99868e-05
4.53787e-05
3.91684e-05
3.127e-05
2.82173e-05
3.18512e-05
4.31404e-05
6.28485e-05
9.14778e-05
0.0001285
0.000171721
0.000186736
0.000191644
0.000196789
0.000202055
0.000207378
0.00021266
0.000202254
0.000175957
0.000135843
9.05187e-05
5.39324e-05
3.30728e-05
2.73863e-05
4.04925e-05
6.17034e-05
7.91216e-06
7.37763e-06
4.11831e-05
0.000110081
7.26888e-05
3.5363e-05
2.08648e-05
1.85796e-05
2.35771e-05
3.02276e-05
3.31783e-05
3.38789e-05
3.52413e-05
3.92753e-05
4.59222e-05
5.36601e-05
6.29459e-05
7.64921e-05
9.79434e-05
0.000129494
0.000166196
0.000195843
0.00020563
0.000210171
0.000209319
0.000200175
0.000186384
0.000164172
0.000130971
9.16575e-05
5.75229e-05
3.6605e-05
3.08119e-05
4.5497e-05
6.02655e-05
7.88508e-06
6.95289e-06
4.00324e-05
0.000106675
8.88052e-05
4.95245e-05
2.60318e-05
1.8049e-05
1.9358e-05
2.41549e-05
2.5753e-05
2.69208e-05
3.1356e-05
3.78685e-05
4.16759e-05
4.39461e-05
5.10514e-05
6.73001e-05
9.15835e-05
0.000118379
0.000144147
0.000165846
0.000179929
0.000185433
0.000184055
0.000177724
0.00016662
0.000148832
0.000122486
9.01567e-05
6.04168e-05
4.13379e-05
3.67544e-05
5.37206e-05
6.04615e-05
7.82982e-06
6.83153e-06
3.79275e-05
0.000106925
0.000111337
7.67721e-05
3.68006e-05
1.832e-05
1.30587e-05
1.55268e-05
2.25996e-05
2.85211e-05
3.256e-05
3.59966e-05
3.49365e-05
3.10598e-05
3.16697e-05
4.2657e-05
7.14827e-05
0.000116945
0.000148107
0.00015879
0.000162039
0.000162481
0.000160129
0.000154705
0.000145708
0.000131794
0.000111674
8.68037e-05
6.29838e-05
4.71785e-05
4.4865e-05
6.40437e-05
6.01991e-05
7.80575e-06
6.54761e-06
3.53238e-05
0.000104606
0.000124797
0.000117515
8.66077e-05
4.15185e-05
1.94006e-05
1.25926e-05
1.31994e-05
1.92658e-05
2.90736e-05
3.77864e-05
3.99294e-05
3.37806e-05
2.52768e-05
2.23667e-05
2.86108e-05
4.79649e-05
8.6195e-05
0.000128476
0.00014755
0.000149094
0.00014375
0.000135959
0.000126765
0.000115542
0.000100988
8.31663e-05
6.55004e-05
5.36447e-05
5.37861e-05
7.31533e-05
5.98853e-05
7.92896e-06
6.48489e-06
3.38408e-05
0.000108816
0.000131943
0.000119979
0.000104181
8.38819e-05
4.56634e-05
2.11339e-05
1.26068e-05
1.218e-05
1.83124e-05
3.1547e-05
4.61764e-05
5.08335e-05
4.29212e-05
2.92602e-05
2.03479e-05
2.02682e-05
2.98558e-05
5.16293e-05
8.55241e-05
0.000116538
0.000129341
0.000127194
0.000117709
0.000105483
9.24258e-05
7.88894e-05
6.61798e-05
5.81503e-05
6.0558e-05
7.90104e-05
6.09016e-05
8.1791e-06
6.50419e-06
3.21953e-05
0.000101596
0.000130998
0.000121223
9.93524e-05
8.14607e-05
6.88209e-05
4.35132e-05
2.08068e-05
1.20608e-05
1.18741e-05
1.9538e-05
3.86336e-05
6.35768e-05
7.21478e-05
6.04846e-05
4.00513e-05
2.38368e-05
1.72027e-05
1.99183e-05
3.23384e-05
5.50153e-05
8.41476e-05
0.000106327
0.000110904
0.000101768
8.74577e-05
7.41161e-05
6.42475e-05
5.96565e-05
6.44175e-05
8.27055e-05
6.21544e-05
8.46468e-06
6.55807e-06
3.14343e-05
9.78679e-05
0.000128608
0.000119067
9.45228e-05
7.12477e-05
5.84967e-05
5.25676e-05
3.6212e-05
1.84362e-05
1.19412e-05
1.42406e-05
2.69263e-05
5.64533e-05
9.2436e-05
0.000100309
7.96117e-05
5.05667e-05
2.80172e-05
1.6486e-05
1.49042e-05
2.26676e-05
3.95779e-05
6.40704e-05
8.80523e-05
9.55899e-05
8.51174e-05
7.03102e-05
6.0863e-05
5.90618e-05
6.67571e-05
8.58929e-05
5.96963e-05
8.67918e-06
6.75482e-06
3.24267e-05
0.000102347
0.000128991
0.000116126
8.96794e-05
6.55707e-05
4.98262e-05
4.07813e-05
3.39573e-05
2.28764e-05
1.43767e-05
1.42721e-05
2.60737e-05
6.24693e-05
0.000125629
0.000153943
0.000131034
9.13441e-05
5.46475e-05
2.90774e-05
1.56928e-05
1.23814e-05
1.80117e-05
3.19334e-05
5.2792e-05
7.44054e-05
8.00391e-05
6.924e-05
5.97945e-05
5.94598e-05
6.96182e-05
8.85119e-05
5.07197e-05
8.5958e-06
6.79719e-06
3.30011e-05
0.000105189
0.000127085
0.000105337
7.48419e-05
5.60016e-05
4.69588e-05
4.02038e-05
3.22631e-05
2.35936e-05
1.67397e-05
1.61872e-05
2.78339e-05
6.69589e-05
0.000141143
0.000172963
0.000170758
0.000135043
9.06312e-05
5.29289e-05
2.79046e-05
1.49397e-05
1.14471e-05
1.59266e-05
2.75556e-05
4.52258e-05
6.36644e-05
6.88928e-05
6.34344e-05
6.29278e-05
7.25292e-05
8.67587e-05
3.99849e-05
8.20117e-06
6.88921e-06
3.38894e-05
0.000109454
0.000121573
8.97512e-05
5.83788e-05
4.33868e-05
3.82287e-05
3.54307e-05
3.0393e-05
2.38922e-05
1.93976e-05
2.08401e-05
3.6152e-05
8.41374e-05
0.000164005
0.000183316
0.000182323
0.000171126
0.000128408
8.53298e-05
5.09496e-05
2.7825e-05
1.5397e-05
1.14723e-05
1.4419e-05
2.34225e-05
3.81049e-05
5.54832e-05
6.59204e-05
6.95305e-05
7.62048e-05
8.08939e-05
3.27739e-05
7.75134e-06
6.92529e-06
3.45564e-05
0.00011127
0.000114473
7.60712e-05
4.85745e-05
3.84653e-05
3.6774e-05
3.61164e-05
3.21075e-05
2.60468e-05
2.22112e-05
2.46213e-05
4.03495e-05
8.37964e-05
0.000153961
0.000192342
0.000192564
0.000180445
0.000150514
0.000117094
8.37578e-05
5.39014e-05
3.15346e-05
1.81401e-05
1.25251e-05
1.30557e-05
1.90072e-05
3.10365e-05
4.89501e-05
6.56533e-05
7.52111e-05
7.45291e-05
2.9954e-05
7.52839e-06
7.05583e-06
3.56657e-05
0.000112575
0.000103691
6.23401e-05
3.88667e-05
3.16433e-05
3.20264e-05
3.38772e-05
3.29929e-05
2.96601e-05
2.75828e-05
3.13277e-05
4.7743e-05
8.68353e-05
0.000143981
0.000183916
0.000189712
0.000176391
0.000157158
0.000135805
0.000112371
8.69161e-05
6.1325e-05
3.92275e-05
2.3647e-05
1.51032e-05
1.25693e-05
1.55059e-05
2.54695e-05
4.42239e-05
6.39337e-05
6.95499e-05
3.01968e-05
7.57532e-06
7.13294e-06
3.7042e-05
0.000111703
9.53107e-05
5.54623e-05
3.49704e-05
2.95536e-05
3.17893e-05
3.54891e-05
3.54731e-05
3.26436e-05
3.1398e-05
3.5938e-05
5.16163e-05
8.45602e-05
0.000130221
0.000165552
0.000176376
0.00017034
0.000158019
0.000143866
0.000128453
0.000111198
9.16441e-05
7.01928e-05
4.8848e-05
3.08865e-05
1.87848e-05
1.29922e-05
1.36219e-05
2.32055e-05
4.47005e-05
6.53183e-05
3.22006e-05
7.74176e-06
7.1596e-06
3.8092e-05
0.000108829
8.98329e-05
5.20955e-05
3.16942e-05
2.53316e-05
2.7075e-05
3.26919e-05
3.68863e-05
3.77152e-05
3.84581e-05
4.38805e-05
5.88006e-05
8.6535e-05
0.000122477
0.000152039
0.000165129
0.000164497
0.000157159
0.000147388
0.000136535
0.000124545
0.000110888
9.49303e-05
7.6273e-05
5.55486e-05
3.54844e-05
2.02516e-05
1.2543e-05
1.38184e-05
2.84396e-05
5.94847e-05
3.44168e-05
7.85297e-06
7.06672e-06
3.82222e-05
0.000106673
9.44721e-05
5.97843e-05
3.5667e-05
2.55964e-05
2.47275e-05
2.9516e-05
3.51959e-05
3.85192e-05
4.14269e-05
4.79406e-05
6.18719e-05
8.51896e-05
0.000114673
0.000140894
0.000155801
0.000159222
0.000155545
0.000148594
0.00014022
0.000130922
0.000120512
0.000108414
9.37598e-05
7.55871e-05
5.38748e-05
3.20574e-05
1.68682e-05
1.215e-05
2.09162e-05
5.3384e-05
3.5734e-05
7.83281e-06
6.94423e-06
3.71331e-05
0.000105253
0.000103645
7.41592e-05
4.41196e-05
2.72249e-05
2.13184e-05
2.3058e-05
2.99585e-05
3.79561e-05
4.45885e-05
5.22757e-05
6.50967e-05
8.51712e-05
0.000110563
0.00013459
0.000150318
0.000156017
0.000154418
0.000148843
0.00014137
0.000132906
0.000123642
0.000113286
0.000101067
8.57033e-05
6.58466e-05
4.25794e-05
2.28994e-05
1.39982e-05
1.89207e-05
4.96234e-05
3.65086e-05
7.73074e-06
6.83229e-06
3.61693e-05
0.000105987
0.000113382
9.33171e-05
6.38715e-05
3.8587e-05
2.45769e-05
2.00413e-05
2.24859e-05
2.99413e-05
3.96682e-05
5.02852e-05
6.371e-05
8.22698e-05
0.000105418
0.000128415
0.000145015
0.000152468
0.000152351
0.000147569
0.000140307
0.000131749
0.000122422
0.000112409
0.000101299
8.80146e-05
7.08914e-05
4.94462e-05
2.87757e-05
1.74629e-05
1.9964e-05
4.84561e-05
3.7698e-05
7.63815e-06
6.78046e-06
3.53158e-05
0.000106888
0.000118947
0.000101991
7.79851e-05
5.38333e-05
3.38891e-05
2.24217e-05
1.90901e-05
2.24913e-05
3.15323e-05
4.4323e-05
5.97295e-05
7.85598e-05
0.000100899
0.000123403
0.000140526
0.000149063
0.00014991
0.000145664
0.000138481
0.000129618
0.000119756
0.000109263
9.81575e-05
8.58618e-05
7.10111e-05
5.251e-05
3.33896e-05
2.1551e-05
2.30278e-05
5.00261e-05
3.94971e-05
7.60948e-06
6.79412e-06
3.51362e-05
0.000108162
0.000122696
0.000106142
8.45529e-05
6.62462e-05
4.85286e-05
3.16427e-05
2.14708e-05
1.90309e-05
2.34375e-05
3.41679e-05
5.02893e-05
7.06602e-05
9.39462e-05
0.000116967
0.000134781
0.000144248
0.000146011
0.000142503
0.000135795
0.000127063
0.000116942
0.000105873
9.41718e-05
8.18213e-05
6.81568e-05
5.23303e-05
3.60554e-05
2.54715e-05
2.73574e-05
5.42026e-05
4.13232e-05
7.64015e-06
6.84525e-06
3.49905e-05
0.000108242
0.000123894
0.000105524
8.16327e-05
6.50029e-05
5.43138e-05
4.23026e-05
2.88544e-05
2.08971e-05
2.03351e-05
2.69577e-05
4.07908e-05
6.11879e-05
8.57508e-05
0.000110003
0.00012855
0.00013848
0.000140766
0.000137964
0.000132052
0.000123993
0.000114186
0.00010294
9.06429e-05
7.76822e-05
6.41951e-05
5.01517e-05
3.68592e-05
2.86863e-05
3.22395e-05
6.0085e-05
4.24156e-05
7.69663e-06
6.91731e-06
3.53422e-05
0.000109635
0.000124318
0.000104341
7.96397e-05
6.35149e-05
5.50224e-05
4.79029e-05
3.69477e-05
2.59594e-05
2.1017e-05
2.35078e-05
3.37524e-05
5.20943e-05
7.6652e-05
0.000101936
0.000121211
0.000131324
0.000133806
0.000131612
0.000126701
0.000119787
0.000110958
0.000100193
8.77428e-05
7.41903e-05
6.03778e-05
4.72978e-05
3.64766e-05
3.10527e-05
3.70939e-05
6.64627e-05
4.24092e-05
7.74696e-06
6.97535e-06
3.54862e-05
0.000110297
0.000122272
9.86142e-05
7.30703e-05
5.88512e-05
5.31213e-05
4.9529e-05
4.25357e-05
3.19921e-05
2.43004e-05
2.3432e-05
3.04086e-05
4.5942e-05
6.89283e-05
9.39144e-05
0.000113207
0.000123099
0.00012544
0.000123628
0.000119762
0.000114292
0.000106909
9.72375e-05
8.5253e-05
7.1529e-05
5.73894e-05
4.47433e-05
3.56412e-05
3.26668e-05
4.13912e-05
7.21338e-05
4.13168e-05
7.76685e-06
7.01894e-06
3.57422e-05
0.000110743
0.000118807
9.1663e-05
6.63997e-05
5.46534e-05
5.17209e-05
5.07666e-05
4.61689e-05
3.6992e-05
2.82826e-05
2.5102e-05
2.9476e-05
4.24376e-05
6.34189e-05
8.73137e-05
0.000105973
0.000115163
0.000116925
0.000115091
0.000111905
0.000107769
0.000102036
9.38836e-05
8.29161e-05
6.95591e-05
5.53914e-05
4.29843e-05
3.49454e-05
3.38335e-05
4.49835e-05
7.64081e-05
3.94242e-05
7.7429e-06
7.03674e-06
3.5724e-05
0.000110194
0.000114566
8.4293e-05
5.94718e-05
4.96927e-05
4.92298e-05
5.13051e-05
4.95191e-05
4.17969e-05
3.26798e-05
2.78509e-05
3.01147e-05
4.07428e-05
5.94824e-05
8.16813e-05
9.92519e-05
0.000107626
0.000108684
0.000106483
0.000103586
0.000100494
9.63753e-05
9.00035e-05
8.05401e-05
6.81329e-05
5.43906e-05
4.22559e-05
3.48065e-05
3.48913e-05
4.78802e-05
7.90375e-05
3.7233e-05
7.67706e-06
7.05077e-06
3.59464e-05
0.000110166
0.000111018
7.85835e-05
5.46368e-05
4.63514e-05
4.74902e-05
5.16585e-05
5.22602e-05
4.61622e-05
3.71136e-05
3.11356e-05
3.16601e-05
4.02614e-05
5.69652e-05
7.75317e-05
9.40176e-05
0.000101465
0.00010155
9.85384e-05
9.536e-05
9.27947e-05
9.00193e-05
8.5499e-05
7.79297e-05
6.70602e-05
5.4303e-05
4.26857e-05
3.56295e-05
3.6417e-05
5.05695e-05
8.04691e-05
3.53504e-05
7.59274e-06
7.0539e-06
3.60735e-05
0.00011017
0.00010839
7.41314e-05
5.0743e-05
4.33901e-05
4.56686e-05
5.1794e-05
5.50268e-05
5.08702e-05
4.2028e-05
3.49405e-05
3.3768e-05
4.03034e-05
5.48696e-05
7.37995e-05
8.94422e-05
9.63326e-05
9.56101e-05
9.16027e-05
8.76596e-05
8.50116e-05
8.30978e-05
8.02915e-05
7.48735e-05
6.60793e-05
5.49093e-05
4.42191e-05
3.76406e-05
3.89413e-05
5.3744e-05
8.15974e-05
3.4197e-05
7.51631e-06
7.07226e-06
3.65508e-05
0.000111279
0.000106561
7.06499e-05
4.80303e-05
4.1429e-05
4.43604e-05
5.17737e-05
5.73102e-05
5.54583e-05
4.73554e-05
3.93834e-05
3.65778e-05
4.11379e-05
5.36455e-05
7.10386e-05
8.6049e-05
9.26527e-05
9.12735e-05
8.61637e-05
8.10587e-05
7.7706e-05
7.59892e-05
7.44622e-05
7.11804e-05
6.48394e-05
5.58361e-05
4.66134e-05
4.08591e-05
4.27994e-05
5.80178e-05
8.32959e-05
3.38395e-05
7.46492e-06
7.09538e-06
3.70286e-05
0.00011302
0.000104227
6.65549e-05
4.54614e-05
4.00144e-05
4.36938e-05
5.22769e-05
5.99762e-05
6.05133e-05
5.33817e-05
4.45712e-05
3.99933e-05
4.2413e-05
5.26897e-05
6.84762e-05
8.31125e-05
8.99909e-05
8.84678e-05
8.24598e-05
7.60234e-05
7.14455e-05
6.9169e-05
6.81935e-05
6.66687e-05
6.28922e-05
5.65396e-05
4.93949e-05
4.49821e-05
4.78486e-05
6.33004e-05
8.56039e-05
3.40047e-05
7.43727e-06
7.16503e-06
3.80879e-05
0.000115857
9.91031e-05
6.04389e-05
4.26192e-05
3.93299e-05
4.41874e-05
5.37913e-05
6.31411e-05
6.58393e-05
5.99918e-05
5.06852e-05
4.44269e-05
4.47214e-05
5.27602e-05
6.68328e-05
8.10204e-05
8.8385e-05
8.71297e-05
8.05623e-05
7.28847e-05
6.68394e-05
6.34055e-05
6.21319e-05
6.15695e-05
5.99665e-05
5.63956e-05
5.18233e-05
4.93055e-05
5.34e-05
6.88292e-05
8.78435e-05
3.42553e-05
7.42286e-06
7.27132e-06
3.96416e-05
0.000118402
8.88279e-05
5.20682e-05
3.93348e-05
3.94624e-05
4.65522e-05
5.76562e-05
6.82562e-05
7.22956e-05
6.73248e-05
5.75585e-05
4.96505e-05
4.77467e-05
5.33843e-05
6.54549e-05
7.89683e-05
8.70054e-05
8.65643e-05
8.00023e-05
7.14413e-05
6.39948e-05
5.91197e-05
5.68729e-05
5.63338e-05
5.60729e-05
5.49307e-05
5.31128e-05
5.29172e-05
5.84722e-05
7.36058e-05
8.91476e-05
3.4181e-05
7.40625e-06
7.4409e-06
4.24803e-05
0.000118923
7.38325e-05
4.32612e-05
3.65141e-05
4.1014e-05
5.14376e-05
6.44136e-05
7.55105e-05
7.96562e-05
7.48939e-05
6.48102e-05
5.56198e-05
5.17574e-05
5.50667e-05
6.49207e-05
7.72674e-05
8.56807e-05
8.62924e-05
8.02847e-05
7.13573e-05
6.28237e-05
5.65513e-05
5.30146e-05
5.17431e-05
5.17789e-05
5.21566e-05
5.26818e-05
5.48439e-05
6.19609e-05
7.67585e-05
8.91018e-05
3.36204e-05
7.37772e-06
7.60206e-06
4.62833e-05
0.000113092
5.81015e-05
3.59103e-05
3.49458e-05
4.46116e-05
5.94934e-05
7.44878e-05
8.51144e-05
8.80502e-05
8.25834e-05
7.19865e-05
6.173e-05
5.61153e-05
5.71403e-05
6.45646e-05
7.52693e-05
8.36891e-05
8.55027e-05
8.06229e-05
7.19765e-05
6.2853e-05
5.54709e-05
5.06831e-05
4.83429e-05
4.7873e-05
4.87042e-05
5.06989e-05
5.48209e-05
6.3482e-05
7.82174e-05
8.79093e-05
3.26114e-05
7.32741e-06
7.71224e-06
5.05097e-05
0.000101275
4.68348e-05
3.13943e-05
3.50821e-05
5.00438e-05
6.92137e-05
8.51002e-05
9.42075e-05
9.54781e-05
8.93263e-05
7.85795e-05
6.77564e-05
6.07768e-05
5.97111e-05
6.46455e-05
7.33068e-05
8.12014e-05
8.40504e-05
8.06446e-05
7.28573e-05
6.36663e-05
5.55398e-05
4.97208e-05
4.63316e-05
4.49961e-05
4.54482e-05
4.78658e-05
5.31665e-05
6.31624e-05
7.82922e-05
8.61408e-05
3.139e-05
7.25692e-06
7.68501e-06
5.25406e-05
9.10879e-05
4.12682e-05
2.89068e-05
3.48375e-05
5.3569e-05
7.639e-05
9.34073e-05
0.000101819
0.000102197
9.57426e-05
8.49882e-05
7.37302e-05
6.55221e-05
6.24606e-05
6.49036e-05
7.12933e-05
7.82184e-05
8.18166e-05
8.00676e-05
7.36628e-05
6.49519e-05
5.64688e-05
4.9866e-05
4.55979e-05
4.34106e-05
4.31383e-05
4.52221e-05
5.0855e-05
6.17758e-05
7.76697e-05
8.44801e-05
3.02624e-05
7.17888e-06
7.56494e-06
5.12224e-05
9.08857e-05
4.26859e-05
2.82838e-05
3.22331e-05
4.99877e-05
7.45202e-05
9.43898e-05
0.000104917
0.000106715
0.000101401
9.13835e-05
8.00379e-05
7.07469e-05
6.57419e-05
6.56826e-05
6.96002e-05
7.50568e-05
7.88624e-05
7.86201e-05
7.39269e-05
6.62367e-05
5.78532e-05
5.07563e-05
4.58284e-05
4.29907e-05
4.20435e-05
4.34891e-05
4.88194e-05
6.01075e-05
7.68891e-05
8.36361e-05
2.95525e-05
7.11936e-06
7.37679e-06
4.75216e-05
9.75563e-05
5.17646e-05
2.97491e-05
2.77453e-05
3.95886e-05
6.26397e-05
8.72856e-05
0.000103761
0.000109762
0.000106977
9.82048e-05
8.69173e-05
7.65915e-05
6.96933e-05
6.71956e-05
6.85877e-05
7.22087e-05
7.5618e-05
7.64587e-05
7.35273e-05
6.72703e-05
5.94344e-05
5.21193e-05
4.66908e-05
4.34017e-05
4.20258e-05
4.29268e-05
4.77097e-05
5.88839e-05
7.64091e-05
8.403e-05
2.9445e-05
7.10106e-06
7.21995e-06
4.47368e-05
0.000103913
7.19054e-05
3.78713e-05
2.63525e-05
2.93545e-05
4.45913e-05
6.90061e-05
9.2716e-05
0.000106919
0.000110011
0.000104479
9.42006e-05
8.32029e-05
7.45227e-05
6.96218e-05
6.84206e-05
6.98634e-05
7.22117e-05
7.34489e-05
7.19821e-05
6.73704e-05
6.0565e-05
5.34447e-05
4.77346e-05
4.41568e-05
4.26179e-05
4.32874e-05
4.76563e-05
5.85212e-05
7.653e-05
8.56325e-05
2.99161e-05
7.13123e-06
7.08324e-06
4.36987e-05
0.000107821
9.52458e-05
5.73834e-05
3.22014e-05
2.51692e-05
3.0496e-05
4.72373e-05
7.23122e-05
9.54226e-05
0.000107786
0.000108359
0.000100806
9.00257e-05
8.00255e-05
7.2985e-05
6.93145e-05
6.8457e-05
6.92668e-05
7.01941e-05
6.96127e-05
6.64808e-05
6.09295e-05
5.43377e-05
4.85532e-05
4.47803e-05
4.32359e-05
4.39886e-05
4.82756e-05
5.89261e-05
7.71626e-05
8.76981e-05
3.06404e-05
7.18944e-06
7.0089e-06
4.43329e-05
0.00011321
0.000113136
8.75809e-05
5.08384e-05
2.99058e-05
2.48628e-05
3.12e-05
4.86051e-05
7.37226e-05
9.58493e-05
0.000106287
0.000104803
9.61946e-05
8.57768e-05
7.69725e-05
7.09856e-05
6.77782e-05
6.67089e-05
6.67125e-05
6.63649e-05
6.43273e-05
6.00359e-05
5.42541e-05
4.87051e-05
4.49102e-05
4.34861e-05
4.45783e-05
4.91839e-05
5.99448e-05
7.82681e-05
8.9522e-05
3.12016e-05
7.24474e-06
6.94176e-06
4.53153e-05
0.000118724
0.00012254
0.000107896
8.04885e-05
4.72156e-05
2.89456e-05
2.50769e-05
3.2325e-05
5.06738e-05
7.58771e-05
9.63492e-05
0.0001041
0.000100494
9.13127e-05
8.15261e-05
7.3563e-05
6.80873e-05
6.49513e-05
6.35579e-05
6.28285e-05
6.14126e-05
5.82476e-05
5.33717e-05
4.81533e-05
4.43769e-05
4.30826e-05
4.46375e-05
4.98819e-05
6.11125e-05
7.94631e-05
9.03502e-05
3.12026e-05
7.26574e-06
6.92158e-06
4.61149e-05
0.000122387
0.000125718
0.000113259
9.79113e-05
7.40104e-05
4.47887e-05
2.85866e-05
2.58466e-05
3.43966e-05
5.4089e-05
7.90118e-05
9.68939e-05
0.000101455
9.5923e-05
8.63643e-05
7.69004e-05
6.92886e-05
6.39883e-05
6.08591e-05
5.92217e-05
5.79198e-05
5.56448e-05
5.18076e-05
4.71884e-05
4.34962e-05
4.22135e-05
4.41159e-05
5.00957e-05
6.20664e-05
8.04351e-05
8.98295e-05
3.055e-05
7.23938e-06
6.90278e-06
4.63561e-05
0.000123372
0.000124274
0.000109338
9.71198e-05
8.7393e-05
6.84308e-05
4.27325e-05
2.8614e-05
2.75747e-05
3.83767e-05
6.00178e-05
8.40349e-05
9.80997e-05
9.88465e-05
9.12889e-05
8.1156e-05
7.17142e-05
6.42724e-05
5.91806e-05
5.61658e-05
5.44076e-05
5.26237e-05
4.9773e-05
4.59861e-05
4.26231e-05
4.13327e-05
4.3348e-05
4.98336e-05
6.24769e-05
8.07911e-05
8.80928e-05
2.94724e-05
7.1731e-06
6.91529e-06