/*--------------------------------*- C++ -*----------------------------------*\
| =========                 |                                                 |
| \\      /  F ield         | OpenFOAM: The Open Source CFD Toolbox           |
|  \\    /   O peration     | Version:  v1906                                 |
|   \\  /    A nd           | Web:      www.OpenFOAM.com                      |
|    \\/     M anipulation  |                                                 |
\*---------------------------------------------------------------------------*/
FoamFile
{
    version     2.0;
    format      ascii;
    class       volScalarField;
    location    "10";
    object      T;
}
// * * * * * * * * * * * * * * * * * * * * * * * * * * * * * * * * * * * * * //

dimensions      [0 0 0 1 0 0 0];


internalField   nonuniform List<scalar> 
78750
(
310.427
310.997
311.372
311.819
312.141
312.077
312.181
312.111
312.129
312.066
312.043
312.003
311.986
311.976
311.965
311.926
311.831
311.668
311.437
311.137
310.774
310.352
309.878
309.358
308.804
308.231
307.658
307.109
306.628
306.297
306.289
306.981
309.204
317.811
396.193
303.746
307.578
309.873
311.375
312.203
312.662
312.978
313.183
313.296
313.347
313.343
313.295
313.21
313.095
312.958
312.806
312.645
312.48
312.315
312.152
311.996
311.848
311.712
311.593
311.498
311.436
311.424
311.488
311.67
312.042
312.751
314.177
317.823
331.878
404.538
310.801
314.188
313.886
313.468
313.306
313.342
313.434
313.549
313.666
313.767
313.849
313.912
313.958
313.988
314.005
314.008
314
313.981
313.951
313.911
313.861
313.802
313.735
313.66
313.58
313.501
313.435
313.405
313.456
313.679
314.284
315.88
320.981
341.172
417.309
304.794
308.263
309.629
310.341
310.762
311.121
311.569
312.153
312.731
313.217
313.615
313.946
314.222
314.453
314.65
314.82
314.969
315.098
315.209
315.308
315.399
315.487
315.579
315.682
315.811
315.988
316.247
316.634
317.222
318.143
319.69
322.689
330.142
352.564
422.573
303.485
306.827
308.391
309.34
310.003
310.564
311.113
311.655
312.175
312.665
313.121
313.536
313.909
314.236
314.517
314.751
314.942
315.089
315.193
315.254
315.27
315.24
315.165
315.054
314.925
314.811
314.758
314.826
315.104
315.825
317.494
321.303
330.207
353.536
423.75
304.17
307.315
308.77
309.868
310.897
311.934
312.976
313.974
314.914
315.792
316.584
317.266
317.822
318.247
318.546
318.731
318.823
318.852
318.851
318.853
318.886
318.968
319.095
319.242
319.352
319.339
319.098
318.55
317.76
317.031
317.136
320.92
336.253
368.889
435.052
305.499
309.243
311.372
313.339
315.324
317.331
319.266
321.034
322.591
323.924
325.037
325.931
326.605
327.047
327.234
327.134
326.712
325.947
324.857
323.519
322.067
320.679
319.565
318.936
318.939
319.626
320.938
322.708
324.732
326.961
329.883
335.722
351.094
380.773
436.871
307.397
313.693
317.069
319.835
322.18
324.142
325.786
327.175
328.359
329.377
330.262
331.036
331.718
332.323
332.862
333.336
333.721
333.93
333.767
332.923
331.021
327.874
323.873
319.936
316.947
315.24
314.596
314.678
315.174
315.64
315.46
314.703
320.974
353.771
429.19
305.404
312.219
316.353
319.438
321.937
324.049
325.865
327.422
328.739
329.83
330.715
331.419
331.964
332.374
332.678
332.926
333.196
333.57
334.032
334.318
334.066
333.222
331.851
329.943
327.8
326.095
324.888
324.002
323.772
325.17
329.299
336.242
348.59
373.886
429.051
304.789
314.061
320.677
325.443
329.023
331.781
334.019
335.912
337.405
338.373
338.834
338.932
338.825
338.633
338.424
338.206
337.979
337.756
337.546
337.327
337.043
336.662
336.19
335.636
334.973
334.162
333.202
332.155
331.234
330.886
332.368
338.045
352.459
378.715
430.451
311.313
325.27
331.004
333.837
335.929
337.96
340.126
341.956
342.464
341.388
339.732
338.396
337.506
336.931
336.573
336.38
336.326
336.387
336.537
336.747
336.978
337.174
337.266
337.169
336.82
336.221
335.455
334.815
335.25
338.902
348.935
366.705
387.527
408.629
446.093
312.68
322.146
325.487
327.533
329.427
331.468
333.409
334.639
335.001
334.946
334.797
334.64
334.512
334.44
334.444
334.531
334.705
334.963
335.308
335.738
336.251
336.826
337.419
337.916
338.144
337.955
337.322
336.4
335.69
336.458
341.647
356.736
384.669
409.939
445.962
310.693
323.48
329.415
332.734
335.371
337.801
339.882
341.494
342.453
342.332
341.079
339.367
337.85
336.732
335.951
335.421
335.094
334.943
334.946
335.081
335.324
335.656
336.072
336.572
337.117
337.585
337.799
337.599
336.864
335.54
334.104
335.929
352.664
382.298
432.734
312.127
324.322
328.753
331.423
333.927
336.126
337.69
338.745
339.317
339.085
338.33
337.549
336.874
336.287
335.765
335.327
334.993
334.771
334.664
334.669
334.776
334.963
335.212
335.523
335.915
336.401
336.975
337.615
338.339
339.267
339.9
339.353
349.449
375.093
424.858
313.003
326.927
332.925
336.782
340.032
341.886
342.266
341.847
341.329
340.885
340.036
338.811
337.864
337.17
336.561
335.992
335.488
335.065
334.736
334.509
334.386
334.364
334.437
334.59
334.805
335.089
335.505
336.181
337.391
339.811
344.774
352.065
365.873
389.516
434.152
320.225
332.278
338.222
342.761
345.261
345.608
344.709
342.81
341.005
339.801
338.976
338.265
337.572
336.925
336.343
335.812
335.331
334.909
334.556
334.278
334.081
333.97
333.951
334.023
334.185
334.437
334.834
335.581
337.149
340.401
346.821
359.365
379.097
402.821
443.349
322.263
333.559
340.094
344.797
343.969
341.844
340.692
339.913
339.279
338.73
338.205
337.686
337.181
336.689
336.206
335.738
335.297
334.89
334.526
334.21
333.952
333.76
333.646
333.621
333.703
333.907
334.287
335.081
337.046
341.828
350.523
363.597
383.042
406.342
445.931
321.873
332.936
338.834
344.133
346.085
345.152
343.539
341.958
340.676
339.754
339.071
338.5
337.965
337.45
336.958
336.495
336.063
335.664
335.302
334.978
334.696
334.461
334.281
334.172
334.154
334.26
334.567
335.343
337.474
343.349
356.078
374.325
392.787
413.707
451.144
319.621
331.09
335.596
339.158
342.401
343.937
343.912
343.053
341.999
341.046
340.225
339.514
338.901
338.369
337.883
337.429
337.013
336.639
336.308
336.023
335.785
335.596
335.457
335.374
335.353
335.42
335.644
336.212
337.676
341.78
352.577
373.277
396.878
417.584
452.072
314.786
325.98
330.062
332.78
335.833
339.573
342.662
344.294
344.336
343.186
341.72
340.519
339.607
338.878
338.279
337.774
337.336
336.949
336.608
336.32
336.092
335.93
335.839
335.824
335.899
336.093
336.454
337.086
338.268
340.861
347.408
362.902
388.326
411.411
447.067
312.012
323.498
328.709
331.6
333.703
335.743
338.363
341.469
344.306
346.156
346.354
344.879
342.79
340.972
339.605
338.624
337.912
337.357
336.887
336.473
336.118
335.83
335.614
335.474
335.425
335.503
335.77
336.327
337.382
339.481
344.226
355.686
378.463
403.543
443.31
311.937
324.442
330.165
333.322
335.567
337.324
338.715
340.047
341.786
344.085
346.403
347.733
347.113
344.967
342.496
340.235
338.481
337.389
336.759
336.337
336.001
335.72
335.489
335.304
335.16
335.071
335.083
335.28
335.836
337.152
340.407
349.149
369.667
396.61
440.993
311.811
323.567
329.01
332.137
334.581
336.934
339.334
341.569
343.303
344.592
345.921
347.652
349.085
348.989
347.317
345.092
342.807
340.501
338.524
337.225
336.496
336.043
335.728
335.514
335.372
335.276
335.217
335.211
335.328
335.795
337.337
342.63
359.364
387.651
437.708
311.769
323.417
329.172
332.409
334.733
336.774
338.858
341.212
343.709
345.85
347.338
348.417
349.497
350.155
349.377
347.512
345.52
343.492
341.307
339.313
337.904
337.112
336.698
336.483
336.397
336.402
336.489
336.652
336.87
337.166
337.92
341.277
355.433
383.118
434.382
310.248
322.355
329.027
332.863
335.665
338.242
340.84
343.302
345.404
347.153
348.556
349.594
350.359
350.933
350.794
349.399
347.608
346.076
344.578
342.914
341.299
340.012
339.176
338.733
338.553
338.558
338.736
339.137
339.847
340.947
342.659
346.873
361.242
386.807
433.753
311.462
324.506
331.019
334.694
337.561
340.533
343.792
346.809
349.028
350.358
351.058
351.416
351.587
351.65
351.476
350.581
349.13
348.017
347.054
346.042
345.006
343.951
342.972
342.191
341.676
341.427
341.445
341.818
342.799
344.899
348.886
356.443
372.577
396.211
438.318
312.463
326.222
332.72
336.552
340.034
344.116
348.095
350.74
352.127
352.791
353.065
353.088
352.874
352.424
351.773
350.888
350.001
349.313
348.654
347.907
347.095
346.24
345.383
344.575
343.89
343.424
343.271
343.572
344.696
347.536
353.765
365.372
383.68
406.329
445.247
314.758
329.52
335.534
339.439
343.832
349.189
353.315
354.802
354.662
354.075
353.482
352.973
352.489
351.912
351.268
350.607
349.942
349.281
348.628
347.959
347.242
346.481
345.715
344.995
344.391
343.975
343.851
344.197
345.413
348.492
355.556
369.315
389.22
411.601
448.751
317.402
331.71
337.136
341.117
346.045
351.5
355.192
356.179
355.729
354.761
353.553
352.313
351.253
350.426
349.754
349.163
348.601
348.041
347.475
346.907
346.336
345.757
345.176
344.629
344.172
343.889
343.893
344.366
345.706
348.87
355.946
369.843
389.696
411.715
448.36
317.05
331.038
336.391
339.982
343.877
348.535
352.961
355.01
354.939
354.114
353.025
351.816
350.636
349.576
348.659
347.962
347.515
347.161
346.78
346.367
345.936
345.501
345.082
344.714
344.449
344.367
344.582
345.287
346.889
350.304
357.415
370.698
389.128
410.37
447.317
317.081
331.139
336.25
339.283
342.157
345.778
350.564
354.77
356.118
355.36
353.961
352.549
351.243
349.965
348.639
347.406
346.661
346.502
346.473
346.332
346.104
345.838
345.587
345.41
345.37
345.552
346.075
347.146
349.181
353.039
360.312
372.821
389.45
409.781
447.287
315.582
329.552
335.21
338.504
341.123
343.535
346.42
350.527
354.446
356.145
355.803
354.649
353.412
352.213
350.921
349.392
347.724
346.447
345.999
346.081
346.174
346.156
346.09
346.068
346.193
346.589
347.411
348.884
351.405
355.735
363.135
374.836
389.896
409.406
447.42
315.201
329.54
335.461
338.944
341.824
344.373
346.547
348.672
351.662
354.89
356.548
356.379
355.417
354.37
353.347
352.219
350.81
349.073
347.374
346.319
346.089
346.26
346.419
346.524
346.687
347.07
347.892
349.459
352.21
356.825
364.31
375.484
389.586
408.49
446.774
314.757
328.959
335.077
338.642
341.572
344.379
347.07
349.367
351.235
353.42
355.846
357.063
356.829
356.019
355.178
354.352
353.419
352.226
350.672
348.919
347.503
346.901
346.999
347.295
347.554
347.876
348.495
349.787
352.337
356.93
364.449
375.426
389.142
407.845
446.454
314.592
329.059
335.464
339.173
342.18
345.087
348.059
350.876
353.057
354.488
355.86
357.245
357.618
357.091
356.338
355.641
354.959
354.179
353.175
351.853
350.301
348.966
348.417
348.711
349.33
349.89
350.492
351.535
353.713
358.049
365.514
376.399
389.922
408.91
448.619
315.318
330.134
336.48
340.189
343.285
346.332
349.429
352.385
354.865
356.555
357.442
358.073
358.283
357.778
357.065
356.47
355.95
355.397
354.72
353.845
352.734
351.52
350.665
350.751
351.833
353.297
354.622
355.998
358.203
362.432
369.805
380.476
393.68
413.155
454.247
315.637
330.602
336.981
340.801
344.179
347.726
351.32
354.37
356.6
358.087
358.873
359.085
358.938
358.351
357.657
357.132
356.691
356.244
355.751
355.163
354.438
353.616
352.942
352.958
354.238
356.778
359.851
362.783
365.88
370.366
377.545
387.731
400.461
420.038
460.69
316.241
331.435
337.691
341.525
345.15
349.174
353.214
356.402
358.458
359.612
360.11
360.05
359.582
358.875
358.231
357.782
357.404
357.017
356.616
356.178
355.671
355.124
354.667
354.649
355.683
358.382
362.822
368.3
373.891
379.65
386.781
396.152
408.02
426.673
464.437
316.41
331.68
338.001
342.008
346.019
350.563
354.812
357.803
359.553
360.463
360.808
360.69
360.195
359.515
358.916
358.488
358.145
357.814
357.464
357.087
356.679
356.261
355.89
355.73
356.158
357.822
361.463
367.468
375.377
383.854
392.127
401.049
411.805
428.715
463.751
316.904
332.261
338.522
342.648
347.06
352.17
356.722
359.61
361.052
361.641
361.725
361.44
360.88
360.223
359.666
359.255
358.924
358.615
358.295
357.953
357.594
357.228
356.88
356.609
356.559
357.058
358.717
362.41
368.968
378.367
388.793
398.664
409.086
424.903
459.951
317.336
332.563
338.783
343.036
347.766
353.245
357.973
360.739
361.93
362.323
362.321
362.046
361.552
360.969
360.454
360.055
359.729
359.431
359.129
358.815
358.486
358.151
357.821
357.516
357.282
357.223
357.585
358.898
362.142
368.682
378.998
390.604
402.053
418.397
455.8
317.759
332.779
338.865
343.112
347.926
353.619
358.822
361.977
363.199
363.407
363.188
362.771
362.249
361.707
361.231
360.847
360.525
360.232
359.943
359.647
359.342
359.031
358.723
358.428
358.167
357.975
357.933
358.246
359.451
362.84
370.617
382.844
395.816
413.712
453.578
317.802
332.541
338.459
342.499
346.887
352.141
357.597
361.598
363.476
363.978
363.86
363.479
362.99
362.486
362.035
361.655
361.332
361.039
360.755
360.47
360.179
359.886
359.596
359.319
359.073
358.883
358.793
358.908
359.523
361.537
367.27
379.025
393.086
412.372
453.443
317.343
331.894
337.726
341.504
345.278
349.728
355.02
360.075
363.283
364.516
364.639
364.305
363.819
363.318
362.864
362.476
362.142
361.843
361.559
361.279
360.998
360.718
360.443
360.184
359.958
359.793
359.736
359.883
360.482
362.28
367.372
378.729
393.369
413.329
454.27
316.86
331.475
337.395
341.072
344.412
347.936
352.077
356.926
361.37
364.061
365.04
365.064
364.696
364.217
363.75
363.338
362.982
362.665
362.372
362.089
361.813
361.542
361.281
361.039
360.833
360.694
360.676
360.888
361.586
363.506
368.631
379.923
394.856
414.908
454.991
316.375
331.185
337.341
341.127
344.468
347.751
351.12
354.848
359.044
362.739
364.872
365.568
365.483
365.095
364.639
364.208
363.827
363.488
363.179
362.888
362.609
362.344
362.096
361.875
361.696
361.591
361.619
361.899
362.71
364.804
370.109
381.399
396.36
416.18
455.312
316.336
331.372
337.676
341.552
344.982
348.346
351.583
354.621
357.748
361.166
364.056
365.621
366.044
365.871
365.485
365.063
364.667
364.309
363.981
363.676
363.389
363.124
362.885
362.684
362.539
362.483
362.577
362.951
363.907
366.218
371.746
382.954
397.619
417.017
455.468
316.291
331.389
337.779
341.717
345.252
348.857
352.435
355.616
358.294
360.837
363.437
365.427
366.346
366.463
366.204
365.83
365.447
365.087
364.751
364.435
364.141
363.873
363.641
363.459
363.35
363.351
363.533
364.04
365.2
367.81
373.63
384.693
398.805
417.683
455.779
316.532
331.71
338.104
342.072
345.696
349.468
353.28
356.684
359.415
361.604
363.615
365.447
366.596
366.953
366.828
366.516
366.162
365.814
365.481
365.163
364.866
364.597
364.372
364.209
364.137
364.2
364.485
365.157
366.582
369.581
375.771
386.682
400.13
418.465
456.439
316.628
331.757
338.13
342.146
345.937
350.026
354.194
357.84
360.66
362.762
364.427
365.876
366.945
367.399
367.371
367.12
366.803
366.478
366.159
365.85
365.557
365.296
365.083
364.944
364.913
365.044
365.439
366.296
368.024
371.468
378.076
388.865
401.686
419.53
457.476
316.814
331.886
338.201
342.251
346.216
350.638
355.151
358.983
361.838
363.889
365.411
366.602
367.48
367.903
367.907
367.69
367.401
367.099
366.799
366.504
366.225
365.977
365.784
365.677
365.695
365.904
366.422
367.478
369.533
373.447
380.483
391.183
403.471
420.894
458.765
316.758
331.715
337.998
342.093
346.236
351.003
355.894
359.956
362.871
364.877
366.301
367.344
368.068
368.423
368.428
368.232
367.965
367.685
367.406
367.132
366.873
366.647
366.483
366.416
366.493
366.789
367.439
368.702
371.079
375.44
382.867
393.488
405.339
422.388
460.035
316.779
331.747
338.025
342.161
346.44
351.449
356.576
360.779
363.742
365.735
367.108
368.07
368.694
368.981
368.965
368.771
368.516
368.252
367.993
367.742
367.509
367.314
367.188
367.17
367.316
367.71
368.498
369.964
372.633
377.361
385.062
395.55
407.019
423.703
460.985
316.698
331.726
338.033
342.207
346.578
351.746
357.032
361.347
364.361
366.36
367.715
368.651
369.245
369.509
369.489
369.3
369.053
368.802
368.561
368.335
368.133
367.977
367.899
367.944
368.17
368.669
369.599
371.252
374.158
379.129
386.923
397.162
408.264
424.592
461.498
316.8
332.033
338.405
342.629
347.081
352.319
357.608
361.923
364.946
366.946
368.289
369.206
369.785
370.041
370.02
369.832
369.587
369.343
369.115
368.91
368.741
368.629
368.61
368.73
369.051
369.668
370.743
372.57
375.658
380.749
388.461
398.331
409.066
425.076
461.71
316.905
332.414
338.896
343.218
347.81
353.108
358.269
362.44
365.393
367.366
368.701
369.626
370.229
370.52
370.528
370.354
370.114
369.873
369.654
369.467
369.325
369.257
369.302
369.509
369.943
370.696
371.931
373.929
377.163
382.287
389.793
399.224
409.613
425.373
461.857
317.256
333.151
339.796
344.323
349.242
354.674
359.57
363.385
366.096
367.935
369.196
370.082
370.678
370.99
371.027
370.872
370.636
370.396
370.181
370.003
369.882
369.848
369.949
370.243
370.796
371.7
373.106
375.277
378.64
383.756
391.011
400.013
410.114
425.719
462.127
317.755
334.039
340.889
345.753
351.245
356.86
361.353
364.618
366.92
368.523
369.658
370.485
371.071
371.411
371.494
371.372
371.15
370.912
370.699
370.526
370.416
370.405
370.547
370.913
371.579
372.638
374.228
376.586
380.084
385.194
392.217
400.851
410.737
426.277
462.611
318.661
335.298
342.414
347.793
354.117
359.847
363.778
366.353
368.117
369.371
370.296
370.997
371.517
371.842
371.948
371.857
371.653
371.421
371.208
371.037
370.931
370.931
371.096
371.509
372.26
373.452
375.218
377.766
381.414
386.549
393.403
401.759
411.495
427.027
463.251
319.862
336.665
344.117
350.158
357.364
362.948
366.179
368.068
369.322
370.241
370.955
371.524
371.967
372.266
372.386
372.327
372.147
371.925
371.713
371.542
371.437
371.439
371.613
372.05
372.857
374.15
376.067
378.8
382.619
387.829
394.598
402.766
412.394
427.932
463.976
321.234
337.994
345.831
352.588
360.463
365.733
368.315
369.658
370.518
371.161
371.682
372.116
372.467
372.715
372.828
372.791
372.636
372.426
372.217
372.044
371.935
371.932
372.101
372.541
373.372
374.729
376.759
379.649
383.64
388.97
395.733
403.778
413.303
428.795
464.595
322.223
338.835
346.843
354.016
362.245
367.464
369.78
370.864
371.511
371.985
372.373
372.702
372.975
373.177
373.277
373.256
373.126
372.933
372.728
372.551
372.433
372.417
372.568
372.987
373.809
375.186
377.28
380.283
384.42
389.886
396.696
404.662
414.066
429.431
464.959
322.548
339.076
346.817
353.72
361.998
367.858
370.555
371.725
372.337
372.737
373.042
373.294
373.502
373.658
373.74
373.728
373.621
373.448
373.25
373.069
372.939
372.902
373.02
373.394
374.166
375.508
377.602
380.645
384.862
390.423
397.283
405.187
414.438
429.589
464.919
322.189
338.698
345.879
351.9
359.576
366.524
370.417
372.152
372.952
373.387
373.67
373.879
374.04
374.158
374.221
374.212
374.125
373.972
373.785
373.603
373.46
373.398
373.474
373.782
374.465
375.71
377.723
380.716
384.916
390.489
397.361
405.212
414.308
429.221
464.525
321.654
338.219
344.992
350.028
356.185
363.381
368.918
371.872
373.231
373.878
374.225
374.437
374.578
374.67
374.715
374.704
374.631
374.499
374.329
374.152
374.004
373.922
373.96
374.201
374.778
375.883
377.746
380.602
384.687
390.178
397.006
404.813
413.793
428.517
463.981
321.294
338.08
344.818
349.245
353.868
359.715
365.997
370.535
372.967
374.114
374.663
374.948
375.107
375.192
375.225
375.209
375.141
375.024
374.872
374.707
374.562
374.472
374.487
374.679
375.167
376.136
377.827
380.503
384.418
389.767
396.508
404.28
413.208
427.863
463.591
321.32
338.447
345.334
349.601
353.403
357.529
362.738
368.056
371.836
373.886
374.868
375.339
375.574
375.689
375.729
375.714
375.651
375.545
375.409
375.26
375.127
375.045
375.058
375.232
375.673
376.552
378.111
380.632
384.39
389.596
396.234
403.968
412.894
427.59
463.572
321.506
338.905
345.969
350.371
354.095
357.499
361.12
365.552
369.955
373.062
374.753
375.566
375.955
376.139
376.211
376.21
376.155
376.058
375.933
375.8
375.684
375.621
375.653
375.841
376.282
377.135
378.636
381.075
384.742
389.854
396.406
404.095
413.045
427.857
463.986
321.723
339.202
346.357
350.921
354.886
358.357
361.406
364.495
368.153
371.722
374.211
375.554
376.202
376.508
376.642
376.676
376.64
376.556
376.443
376.324
376.228
376.19
376.255
376.485
376.971
377.861
379.385
381.832
385.497
390.586
397.08
404.709
413.674
428.61
464.697
321.861
339.351
346.543
351.221
355.452
359.292
362.5
365.126
367.661
370.597
373.4
375.298
376.304
376.788
377.012
377.097
377.094
377.032
376.933
376.827
376.747
376.736
376.842
377.13
377.688
378.663
380.273
382.805
386.542
391.664
398.121
405.665
414.602
429.593
465.434
322.091
339.617
346.803
351.511
355.889
360.039
363.602
366.351
368.486
370.515
372.826
374.928
376.281
376.984
377.321
377.471
377.511
377.479
377.4
377.308
377.241
377.25
377.393
377.737
378.373
379.441
381.154
383.79
387.624
392.8
399.226
406.663
415.515
430.455
465.963
322.289
339.831
347.001
351.761
356.32
360.767
364.655
367.641
369.794
371.45
373.05
374.802
376.261
377.14
377.59
377.805
377.89
377.893
377.841
377.766
377.711
377.733
377.901
378.293
379.001
380.157
381.959
384.676
388.578
393.789
400.18
407.506
416.241
431.059
466.263
322.237
339.597
346.692
351.528
356.395
361.289
365.553
368.783
371.054
372.667
373.941
375.19
376.431
377.342
377.86
378.123
378.245
378.281
378.257
378.203
378.158
378.186
378.363
378.781
379.537
380.757
382.621
385.377
389.289
394.484
400.823
408.049
416.664
431.337
466.356
321.628
338.649
345.673
350.627
355.94
361.48
366.247
369.748
372.146
373.795
374.995
375.972
376.895
377.676
378.18
378.457
378.597
378.655
378.656
378.623
378.591
378.622
378.798
379.221
380.001
381.264
383.17
385.942
389.826
394.963
401.229
408.367
416.88
431.432
466.379
320.68
337.372
344.355
349.425
355.185
361.387
366.673
370.465
373.006
374.723
375.934
376.828
377.547
378.149
378.574
378.826
378.964
379.03
379.047
379.031
379.012
379.044
379.211
379.62
380.395
381.667
383.589
386.358
390.198
395.257
401.446
408.521
416.97
431.452
466.403
319.664
336.231
343.299
348.535
354.727
361.447
367.078
371.053
373.688
375.462
376.706
377.597
378.234
378.704
379.034
379.239
379.357
379.419
379.442
379.438
379.431
379.467
379.626
380.015
380.767
382.026
383.946
386.708
390.516
395.516
401.646
408.686
417.12
431.599
466.532
318.951
335.747
343.103
348.629
355.261
362.22
367.843
371.747
374.332
376.087
377.337
378.237
378.856
379.262
379.522
379.681
379.774
379.825
379.847
379.849
379.849
379.889
380.04
380.407
381.128
382.355
384.254
387.004
390.795
395.765
401.863
408.885
417.315
431.797
466.669
318.95
336.47
344.366
350.41
357.597
364.438
369.527
372.94
375.2
376.773
377.934
378.803
379.41
379.791
380.014
380.139
380.211
380.25
380.267
380.27
380.275
380.318
380.462
380.809
381.494
382.676
384.534
387.257
391.034
395.996
402.088
409.105
417.53
432.008
466.806
320.25
338.666
347.142
353.865
361.674
368.093
372.202
374.751
376.435
377.654
378.608
379.365
379.925
380.287
380.491
380.6
380.657
380.687
380.699
380.702
380.709
380.753
380.894
381.225
381.877
383.012
384.816
387.494
391.247
396.204
402.3
409.317
417.735
432.191
466.897
322.612
341.389
350.133
357.371
365.58
371.684
374.984
376.754
377.873
378.708
379.398
379.984
380.45
380.771
380.961
381.06
381.11
381.134
381.143
381.144
381.152
381.197
381.332
381.645
382.263
383.344
385.079
387.688
391.388
396.321
402.417
409.436
417.842
432.259
466.893
324.549
343.025
351.369
358.312
366.272
372.792
376.434
378.184
379.118
379.735
380.222
380.641
380.994
381.258
381.426
381.519
381.566
381.587
381.594
381.597
381.607
381.653
381.785
382.086
382.674
383.703
385.365
387.887
391.507
396.385
402.455
409.461
417.832
432.174
466.796
324.62
342.628
350.127
355.904
362.735
369.993
375.398
378.348
379.781
380.523
380.975
381.302
381.56
381.76
381.898
381.979
382.022
382.041
382.047
382.05
382.063
382.111
382.241
382.53
383.092
384.072
385.658
388.081
391.593
396.379
402.393
409.373
417.703
431.958
466.633
323.343
340.982
348.143
353.079
358.415
364.948
371.654
376.592
379.388
380.785
381.49
381.88
382.12
382.279
382.384
382.447
382.48
382.495
382.5
382.504
382.518
382.568
382.697
382.979
383.522
384.464
385.986
388.314
391.709
396.381
402.314
409.261
417.559
431.749
466.478
322.308
339.897
347.372
352.489
357.477
362.605
368.164
373.649
377.83
380.327
381.623
382.277
382.616
382.795
382.887
382.93
382.947
382.951
382.95
382.951
382.965
383.014
383.141
383.416
383.944
384.861
386.337
388.588
391.875
396.424
402.255
409.148
417.408
431.527
466.285
321.976
339.586
347.331
352.995
358.825
364.049
368.212
372.119
376.068
379.294
381.329
382.422
382.978
383.253
383.378
383.422
383.427
383.418
383.406
383.4
383.41
383.457
383.579
383.844
384.353
385.243
386.679
388.869
392.062
396.493
402.212
409.035
417.242
431.284
466.078
321.788
339.489
347.424
353.512
360.338
366.474
370.583
373.273
375.717
378.405
380.777
382.336
383.19
383.621
383.822
383.898
383.908
383.891
383.867
383.851
383.856
383.9
384.021
384.281
384.778
385.645
387.045
389.179
392.29
396.614
402.229
408.986
417.156
431.162
465.996
322.235
340.608
348.966
355.514
362.95
369.376
373.421
375.655
377.111
378.588
380.415
382.123
383.267
383.895
384.206
384.34
384.376
384.363
384.333
384.306
384.3
384.338
384.458
384.72
385.221
386.088
387.476
389.577
392.625
396.856
402.373
409.068
417.22
431.227
466.043
324.103
343.233
352.041
359.181
367.059
373.072
376.469
378.185
379.142
379.874
380.782
382.041
383.256
384.073
384.52
384.736
384.819
384.827
384.799
384.763
384.743
384.766
384.874
385.129
385.63
386.506
387.911
390.019
393.042
397.208
402.636
409.258
417.369
431.337
466.067
326.144
345.478
354.313
361.669
369.752
375.598
378.677
380.147
380.899
381.361
381.769
382.363
383.255
384.138
384.736
385.065
385.221
385.271
385.261
385.224
385.19
385.193
385.275
385.5
385.969
386.821
388.222
390.341
393.364
397.494
402.851
409.394
417.431
431.306
465.963
326.792
346.261
354.669
361.482
369.331
375.656
379.27
381.052
381.946
382.44
382.757
383.039
383.46
384.123
384.802
385.277
385.545
385.67
385.704
385.686
385.649
385.634
385.685
385.867
386.276
387.056
388.388
390.465
393.471
397.581
402.904
409.407
417.401
431.223
465.902
326.618
346.129
354.129
360.295
367.617
374.432
378.863
381.214
382.411
383.057
383.44
383.698
383.924
384.247
384.766
385.324
385.736
385.978
386.094
386.126
386.111
386.095
386.131
386.282
386.643
387.35
388.595
390.594
393.556
397.655
402.98
409.492
417.513
431.406
466.145
326.131
344.987
352.763
358.744
365.877
373.056
378.238
381.192
382.72
383.52
383.968
384.244
384.437
384.611
384.864
385.284
385.767
386.145
386.381
386.505
386.551
386.567
386.617
386.772
387.129
387.819
389.03
390.989
393.93
398.04
403.388
409.916
417.977
431.975
466.677
324.121
341.687
349.16
355.008
362.152
369.911
376.347
380.519
382.787
383.921
384.492
384.798
384.977
385.097
385.213
385.404
385.753
386.183
386.547
386.795
386.94
387.024
387.11
387.288
387.663
388.375
389.611
391.595
394.56
398.693
404.049
410.556
418.621
432.686
467.276
320.644
337.535
345.103
350.755
357.365
364.834
372.076
377.956
381.809
383.879
384.865
385.32
385.534
385.639
385.697
385.76
385.903
386.193
386.574
386.931
387.216
387.438
387.638
387.902
388.345
389.119
390.421
392.481
395.522
399.701
405.043
411.485
419.53
433.646
467.959
318.914
337.362
346.043
352.205
358.626
364.579
370.091
375.516
380.222
383.364
385.001
385.737
386.046
386.166
386.202
386.21
386.246
386.385
386.657
386.999
387.339
387.66
387.984
388.375
388.934
389.807
391.191
393.32
396.417
400.616
405.91
412.25
420.222
434.293
468.322
321.528
342.606
352.615
360.239
368.103
373.102
375.83
378.326
381.295
384.016
385.673
386.433
386.732
386.825
386.834
386.831
386.868
386.983
387.182
387.441
387.734
388.059
388.435
388.912
389.574
390.55
392.018
394.201
397.313
401.476
406.68
412.911
420.843
434.954
468.781
326.245
347.831
358.595
367.792
377.103
381.761
382.929
383.333
384.159
385.589
386.805
387.386
387.591
387.636
387.618
387.594
387.605
387.68
387.825
388.036
388.309
388.655
389.097
389.679
390.467
391.567
393.135
395.376
398.492
402.611
407.74
413.897
421.831
436.015
469.469
329.701
350.554
361.102
370.452
379.62
384.894
386.541
386.767
386.659
386.819
387.463
388.032
388.291
388.367
388.358
388.324
388.305
388.328
388.412
388.567
388.806
389.151
389.638
390.31
391.225
392.458
394.131
396.417
399.51
403.552
408.579
414.626
422.436
436.411
469.501
331.055
351.968
361.098
368.598
376.766
383.456
387.146
388.69
389.185
389.181
389.079
389.116
389.159
389.149
389.101
389.039
388.987
388.964
388.99
389.08
389.256
389.551
390.011
390.693
391.661
392.975
394.722
397.03
400.069
403.989
408.861
414.749
422.356
435.985
468.937
329.577
350.21
358.162
363.968
370.809
378.098
383.522
386.634
388.283
389.184
389.67
389.905
390.005
390.004
389.933
389.83
389.724
389.637
389.589
389.596
389.679
389.869
390.215
390.785
391.661
392.921
394.638
396.909
399.869
403.666
408.405
414.181
421.637
435.016
468.181
327.52
347.14
355.48
361.606
368.27
375.306
381.397
385.483
387.733
388.88
389.503
389.891
390.159
390.352
390.467
390.491
390.444
390.361
390.276
390.218
390.213
390.291
390.496
390.893
391.575
392.647
394.209
396.361
399.22
402.927
407.603
413.357
420.777
434.095
467.676
324.958
343.791
352.199
358.727
366.026
373.056
379.161
384.14
387.605
389.584
390.541
390.953
391.091
391.073
390.992
390.944
390.933
390.917
390.881
390.835
390.807
390.828
390.939
391.199
391.696
392.549
393.894
395.866
398.606
402.256
406.934
412.743
420.233
433.67
467.661
322.451
341.306
350.205
357.274
365.521
372.873
378.128
382.116
385.495
388.174
389.969
390.998
391.532
391.772
391.805
391.68
391.514
391.413
391.376
391.37
391.385
391.434
391.55
391.782
392.213
392.961
394.179
396.034
398.699
402.331
407.05
412.953
420.602
434.314
468.389
322.933
342.572
352.343
360.497
370.158
378.024
382.662
385.162
386.84
388.362
389.763
390.835
391.527
391.931
392.144
392.21
392.151
392.027
391.922
391.876
391.891
391.968
392.126
392.404
392.869
393.632
394.845
396.691
399.354
403
407.742
413.675
421.405
435.274
469.119
324.778
345.455
356.256
365.594
375.48
382.263
385.952
387.85
388.953
389.783
390.581
391.333
391.91
392.281
392.488
392.567
392.54
392.445
392.345
392.294
392.312
392.409
392.608
392.947
393.493
394.345
395.647
397.574
400.302
403.979
408.7
414.575
422.279
436.159
469.63
328.6
349.947
361.687
372.348
382.097
387.348
389.498
390.395
390.855
391.185
391.542
392.003
392.471
392.797
392.954
392.978
392.915
392.819
392.744
392.725