/*--------------------------------*- C++ -*----------------------------------*\
| =========                 |                                                 |
| \\      /  F ield         | OpenFOAM: The Open Source CFD Toolbox           |
|  \\    /   O peration     | Version:  v1906                                 |
|   \\  /    A nd           | Web:      www.OpenFOAM.com                      |
|    \\/     M anipulation  |                                                 |
\*---------------------------------------------------------------------------*/
FoamFile
{
    version     2.0;
    format      ascii;
    class       volScalarField;
    location    "32/sphere";
    object      T;
}
// * * * * * * * * * * * * * * * * * * * * * * * * * * * * * * * * * * * * * //

dimensions      [0 0 0 1 0 0 0];


internalField   nonuniform List<scalar> 
304
(
481.673
481.703
481.701
481.717
481.674
481.672
481.672
481.703
481.672
481.827
481.826
481.717
481.7
481.825
481.826
481.748
481.716
481.748
481.674
481.701
481.718
481.672
481.703
481.827
481.826
481.748
481.718
481.826
481.826
481.775
481.67
481.747
481.775
481.709
481.673
481.719
481.748
481.678
481.677
481.749
481.775
481.708
481.674
481.708
481.66
481.661
481.674
481.674
481.676
481.71
481.674
481.674
481.711
481.676
481.661
481.675
481.678
481.675
481.711
481.703
481.703
481.718
481.718
481.75
481.749
481.776
481.673
481.718
481.703
481.75
481.718
481.776
481.749
481.674
481.678
481.711
481.675
481.672
481.672
481.708
481.672
481.716
481.667
481.699
481.747
481.775
481.713
481.746
481.702
481.701
481.67
481.775
481.748
481.748
481.715
481.709
481.673
481.673
481.658
481.671
481.673
481.707
481.672
481.708
481.674
481.672
481.658
481.675
481.672
481.673
481.709
481.703
481.717
481.75
481.702
481.718
481.749
481.776
481.673
481.75
481.718
481.718
481.702
481.776
481.749
481.676
481.673
481.709
481.674
481.718
481.702
481.749
481.702
481.749
481.718
481.776
481.671
481.749
481.703
481.749
481.703
481.776
481.718
481.747
481.668
481.715
481.717
481.775
481.7
481.747
481.702
481.715
481.669
481.775
481.717
481.748
481.701
481.675
481.671
481.708
481.672
481.747
481.672
481.702
481.748
481.775
481.701
481.718
481.716
481.702
481.671
481.775
481.747
481.718
481.702
481.707
481.67
481.671
481.672
481.674
481.71
481.678
481.718
481.749
481.776
481.671
481.701
481.718
481.749
481.701
481.776
481.748
481.702
481.669
481.748
481.715
481.709
481.673
481.674
481.75
481.718
481.776
481.675
481.72
481.704
481.75
481.702
481.775
481.718
481.717
481.673
481.749
481.703
481.776
481.701
481.748
481.704
481.75
481.671
481.717
481.717
481.748
481.701
481.748
481.701
481.715
481.669
481.707
481.672
481.675
481.775
481.701
481.718
481.716
481.748
481.672
481.702
481.748
481.718
481.703
481.749
481.717
481.703
481.674
481.672
481.672
481.676
481.664
481.672
481.677
481.709
481.672
481.709
481.674
481.672
481.659
481.681
481.676
481.712
481.676
481.749
481.75
481.776
481.675
481.703
481.704
481.718
481.717
481.776
481.749
481.701
481.671
481.718
481.702
481.71
481.675
481.673
481.711
481.676
481.673
481.775
481.716
481.747
481.702
481.717
481.669
481.701
481.747
481.748
481.716
481.717
481.701
481.7
481.669
481.672
481.673
481.671
481.661
481.708
481.673
481.671
481.676
481.673
481.671
)
;

boundaryField
{
    sphere_to_oil
    {
        type            compressible::turbulentTemperatureCoupledBaffleMixed;
        refValue        nonuniform List<scalar> 
360
(
340.83
340.83
316.118
362.511
371.012
318.602
372.164
372.164
372.164
343.448
343.448
319.528
321.858
313.787
340.747
364.654
359.755
359.755
359.755
315.427
357.76
335.734
334.621
366.213
313.796
366.961
317.64
366.566
366.566
366.566
373.049
364.84
316.152
315.89
319.311
319.482
360.491
360.491
360.491
359.796
369.058
317.824
319.343
340.84
340.84
317.524
321.787
311.554
338.648
367.381
318.727
318.635
321.485
321.823
315.179
335.896
360.778
315.443
319.369
321.821
312.648
367.855
367.855
367.855
311.561
366.447
338.52
325.847
371.128
371.128
371.128
371.373
369.783
313.341
358.275
340.054
314.203
333.093
368.906
360.69
335.746
323.681
334.926
312.516
316.11
318.453
319.702
321.709
313.945
315.569
316.141
321.582
319.366
316.353
321.422
319.318
319.678
319.602
316.657
312.587
312.669
314.244
318.588
319.396
321.596
314.114
313.874
321.868
316.626
319.738
319.756
319.627
316.684
315.292
311.911
311.857
328.201
325.568
329.522
340.708
340.708
362.511
362.511
366.213
366.213
363.719
363.719
363.719
365.83
365.83
365.83
328.833
325.62
328.202
314.854
371.012
371.012
340.299
340.299
373.049
373.049
338.221
338.221
372.263
372.263
372.263
314.827
314.612
365.103
365.103
365.103
365.328
365.328
365.328
364.654
357.76
340.747
364.654
362.966
314.266
362.966
362.966
334.694
335.407
324.128
335.333
335.333
370.678
370.678
370.678
312.456
357.76
335.734
369.642
369.642
312.482
369.642
335.444
324.005
311.648
317.58
317.828
322.121
313.697
321.79
317.815
311.636
312.539
366.961
366.961
364.84
364.84
340.856
340.856
362.683
362.683
362.683
338.991
338.991
312.507
319.003
318.793
321.763
319.201
318.471
321.755
316.519
321.885
319.662
316.517
359.796
321.919
319.871
315.442
369.825
369.825
369.825
336.704
336.704
312.299
319.491
319.478
321.752
369.058
317.677
321.637
319.519
359.796
369.058
336.781
315.355
336.781
312.782
311.894
321.722
313.773
317.756
317.663
317.882
313.61
312.19
367.926
361.118
367.926
367.926
361.118
361.118
367.381
366.447
338.648
364.276
312.578
367.381
364.276
364.276
321.231
315.844
319.415
321.543
316.312
371.373
319.115
319.629
319.787
316.649
360.778
358.275
319.708
319.572
316.626
360.021
363.386
335.896
369.441
312.784
360.778
369.441
369.441
322.127
317.686
368.906
319.465
319.319
319.327
369.053
317.554
368.724
337.084
360.021
337.084
369.053
360.021
369.053
311.537
325.443
327.368
327.766
339.497
362.745
339.497
362.745
362.745
312.462
366.447
363.919
338.52
363.919
312.528
363.919
328.809
328.422
313.851
369.451
338.861
369.451
369.451
338.861
314.081
318.427
319.213
321.643
369.783
371.373
338.798
314.579
369.783
338.798
314.155
358.275
364.45
340.054
364.45
313.619
364.45
321.941
360.69
316.747
319.761
363.231
360.237
363.386
340.457
363.386
363.231
340.457
363.231
323.388
334.82
368.906
336.063
312.508
360.69
336.063
315.603
368.724
360.237
368.724
337.054
360.237
337.054
)
;
        refGradient     uniform 0;
        valueFraction   nonuniform List<scalar> 
360
(
0.000132391
0.00012701
8.13134e-05
0.000290486
0.00029792
0.000170831
0.000299771
0.000257314
0.00040052
0.000127522
0.000124331
0.000166795
0.000254203
7.26817e-05
0.000130017
0.000252741
0.000289635
0.000270621
0.000379742
6.65076e-05
0.000249334
0.000122574
0.00011297
0.000299789
8.70396e-05
0.000308148
0.000173697
0.000304169
0.000398064
0.000266277
0.000304219
0.00030684
8.23924e-05
8.14719e-05
0.000170973
0.000168254
0.000284706
0.000385974
0.000265042
0.000398515
0.000393647
8.40545e-05
0.000166723
0.000121682
0.000121536
0.000171629
0.000256775
6.85062e-05
0.000122579
0.000259927
0.00016931
0.00017041
0.000254014
0.000251545
7.10669e-05
0.000130008
0.000265121
6.80803e-05
0.000168657
0.000251506
6.66384e-05
0.000296085
0.000261372
0.000409076
6.8702e-05
0.000267243
0.000124657
0.000120568
0.000302926
0.000395179
0.000265825
0.000381078
0.000386413
7.37997e-05
0.000257646
0.000130704
6.80412e-05
0.000122008
0.000385593
0.000400564
0.000119667
0.000117409
0.00011532
6.85365e-05
8.26483e-05
0.00016756
0.000168498
0.000255173
7.70262e-05
6.50372e-05
8.17951e-05
0.000254757
0.000168179
8.35544e-05
0.000254337
0.000170099
0.000169093
0.000169353
8.2584e-05
6.61957e-05
6.71243e-05
6.62309e-05
0.000170267
0.000167349
0.000254565
7.49469e-05
6.50991e-05
0.00025438
8.08113e-05
0.000167613
0.000167645
0.000171064
8.36483e-05
6.69815e-05
6.53244e-05
6.65865e-05
0.000115904
0.000116043
0.000120551
0.00013072
0.000122859
0.000253857
0.000399908
0.000267456
0.000403585
0.000258698
0.00039773
0.000296133
0.000258907
0.000389073
0.000291643
0.000118957
0.000112496
0.000115225
6.3608e-05
0.000263803
0.000397189
0.000122889
0.00012345
0.000401395
0.000266879
0.000128823
0.000135773
0.000396454
0.000272348
0.000313825
7.00045e-05
6.51466e-05
0.000274972
0.000381041
0.000302033
0.000283119
0.000394234
0.000302001
0.000311808
0.000287214
0.00013435
0.000400456
0.000258672
7.21179e-05
0.000389217
0.000291263
0.000111152
0.000117104
0.00011585
0.000122215
0.000127754
0.000398452
0.000262358
0.000307953
7.38379e-05
0.000383296
0.00013143
0.000403044
0.000258014
7.21236e-05
0.000305928
0.000112139
0.000113179
6.61265e-05
0.000173326
0.000173257
0.00025619
8.54311e-05
0.000256577
0.000168823
6.54475e-05
6.35517e-05
0.000400931
0.000254747
0.000396225
0.000264167
0.000126006
0.00011784
0.000398074
0.000248791
0.000287579
0.00011648
0.000135153
6.79944e-05
0.000170279
0.000170125
0.000254182
0.00016643
0.000167287
0.000253181
8.67777e-05
0.000254049
0.000172254
8.43889e-05
0.000285947
0.000253768
0.000171222
6.82365e-05
0.000389373
0.000252424
0.000295338
0.000123041
0.000114342
6.60473e-05
0.000168955
0.000171796
0.000254723
0.000289605
8.09967e-05
0.000252305
0.00016478
0.000250636
0.000265334
0.000120444
6.76514e-05
0.000133651
6.84878e-05
6.44684e-05
0.000257567
8.59549e-05
0.000173157
0.000171155
0.000169115
8.48744e-05
6.48323e-05
0.000263349
0.000246764
0.000414262
0.000308356
0.000386484
0.000277688
0.000297632
0.000304733
0.000135453
0.000261423
7.0433e-05
0.000397821
0.000386822
0.000293903
0.000256342
8.16796e-05
0.000166796
0.000253395
8.24112e-05
0.000301937
0.000167518
0.000168715
0.000167161
8.19119e-05
0.000299685
0.000280831
0.000170546
0.000166137
8.34892e-05
0.000281384
0.000309729
0.000122833
0.000278036
6.60325e-05
0.000396117
0.000384035
0.000290181
0.000251514
8.26237e-05
0.000290637
0.000167353
0.000167611
0.000168565
0.00029222
8.33979e-05
0.000298563
0.000125629
0.000257418
0.000126676
0.000262316
0.000399751
0.00039244
6.60016e-05
0.000132261
0.000130699
0.000127835
0.000116417
0.000389492
0.00012715
0.000258937
0.000304913
6.50397e-05
0.000393294
0.000392819
0.000128594
0.000279303
6.8159e-05
0.000299434
0.000114006
0.000111999
6.81027e-05
0.000385211
0.000115124
0.000252625
0.000297528
0.000123424
6.72832e-05
0.000167418
0.000167361
0.000252544
0.000288972
0.000250642
0.000121181
6.52294e-05
0.000254841
0.000134591
7.53353e-05
0.000369302
0.000396556
0.0001172
0.000251904
6.98398e-05
0.000316807
0.000254479
0.000304897
8.34075e-05
0.000168138
0.000293959
0.000284988
0.000268112
0.000119838
0.00039274
0.000391895
0.000142257
0.00026196
0.000115255
0.000117024
0.000263722
0.000130547
7.05836e-05
0.000266721
0.000125706
6.51832e-05
0.000388194
0.000392856
0.000258485
0.000125443
0.000253906
0.00012958
)
;
        value           nonuniform List<scalar> 
360
(
481.676
481.677
481.68
481.659
481.661
481.695
481.66
481.666
481.654
481.674
481.675
481.694
481.697
481.683
481.676
481.665
481.652
481.658
481.647
481.682
481.662
481.675
481.661
481.658
481.678
481.657
481.694
481.658
481.65
481.663
481.659
481.656
481.678
481.678
481.693
481.695
481.654
481.649
481.659
481.646
481.65
481.678
481.695
481.675
481.677
481.693
481.697
481.681
481.675
481.663
481.696
481.695
481.697
481.697
481.679
481.672
481.658
481.681
481.694
481.698
481.681
481.658
481.662
481.65
481.682
481.663
481.676
481.661
481.662
481.657
481.667
481.656
481.655
481.685
481.666
481.679
481.681
481.663
481.651
481.646
481.663
481.662
481.664
481.682
481.682
481.694
481.695
481.696
481.678
481.681
481.679
481.697
481.696
481.677
481.697
481.694
481.694
481.693
481.676
481.683
481.683
481.684
481.695
481.696
481.697
481.682
481.681
481.696
481.674
481.693
481.695
481.693
481.676
481.68
481.684
481.683
481.663
481.663
481.663
481.676
481.677
481.664
481.649
481.664
481.65
481.664
481.65
481.658
481.665
481.652
481.659
481.663
481.663
481.663
481.685
481.666
481.655
481.678
481.678
481.655
481.666
481.676
481.676
481.655
481.665
481.657
481.684
481.681
481.66
481.648
481.652
481.659
481.647
481.653
481.654
481.654
481.674
481.646
481.663
481.681
481.647
481.655
481.662
481.662
481.66
481.673
481.673
481.649
481.663
481.658
481.68
481.647
481.673
481.649
481.663
481.68
481.657
481.662
481.66
481.681
481.694
481.693
481.697
481.679
481.697
481.695
481.682
481.682
481.65
481.663
481.649
481.662
481.675
481.677
481.649
481.664
481.657
481.677
481.675
481.683
481.695
481.695
481.697
481.696
481.696
481.697
481.674
481.697
481.693
481.676
481.655
481.697
481.693
481.68
481.652
481.664
481.659
481.673
481.676
481.681
481.695
481.694
481.697
481.659
481.678
481.698
481.695
481.66
481.662
481.673
481.679
481.672
481.68
481.681
481.697
481.677
481.693
481.693
481.694
481.675
481.683
481.662
481.664
481.651
481.657
481.652
481.662
481.656
481.655
481.674
481.662
481.681
481.648
481.648
481.659
481.698
481.682
481.697
481.698
481.68
481.66
481.696
481.694
481.697
481.678
481.655
481.656
481.693
481.695
481.676
481.656
481.653
481.674
481.661
481.681
481.647
481.652
481.66
481.698
481.679
481.659
481.695
481.696
481.696
481.662
481.681
481.661
481.674
481.661
481.674
481.663
481.647
481.652
481.681
481.663
481.664
481.664
481.676
481.651
481.675
481.662
481.659
481.682
481.649
481.648
481.674
481.659
481.681
481.656
481.662
481.662
481.685
481.658
481.68
481.668
481.662
481.679
481.685
481.696
481.697
481.698
481.659
481.667
481.678
481.684
481.665
481.674
481.681
481.65
481.649
481.677
481.664
481.682
481.652
481.697
481.652
481.675
481.694
481.655
481.655
481.66
481.675
481.647
481.647
481.671
481.66
481.663
481.664
481.663
481.674
481.681
481.659
481.673
481.681
481.652
481.648
481.664
481.675
481.661
481.673
)
;
        Tnbr            T;
        thicknessLayers 0();
        kappaLayers     0();
        kappaMethod     solidThermo;
        kappa           none;
        alphaAni        none;
    }
}


// ************************************************************************* //
