/*--------------------------------*- C++ -*----------------------------------*\
| =========                 |                                                 |
| \\      /  F ield         | OpenFOAM: The Open Source CFD Toolbox           |
|  \\    /   O peration     | Version:  v1906                                 |
|   \\  /    A nd           | Web:      www.OpenFOAM.com                      |
|    \\/     M anipulation  |                                                 |
\*---------------------------------------------------------------------------*/
FoamFile
{
    version     2.0;
    format      ascii;
    class       volScalarField;
    location    "34";
    object      T;
}
// * * * * * * * * * * * * * * * * * * * * * * * * * * * * * * * * * * * * * //

dimensions      [0 0 0 1 0 0 0];


internalField   nonuniform List<scalar> 
78750
(
299.754
299.44
299.333
299.289
299.266
299.252
299.242
299.235
299.229
299.223
299.219
299.215
299.211
299.207
299.204
299.2
299.197
299.194
299.191
299.187
299.184
299.18
299.176
299.172
299.167
299.162
299.156
299.149
299.143
299.144
299.174
299.284
299.569
300.118
300.913
299.881
299.673
299.523
299.426
299.368
299.332
299.311
299.298
299.29
299.285
299.283
299.282
299.282
299.282
299.283
299.283
299.283
299.283
299.282
299.281
299.278
299.275
299.272
299.269
299.265
299.262
299.261
299.263
299.273
299.3
299.366
299.521
299.835
300.356
301.104
299.893
299.691
299.524
299.392
299.295
299.233
299.204
299.198
299.207
299.224
299.247
299.272
299.298
299.323
299.346
299.366
299.382
299.394
299.402
299.405
299.405
299.402
299.396
299.388
299.381
299.378
299.383
299.403
299.449
299.535
299.684
299.927
300.295
300.831
301.586
299.917
299.758
299.626
299.52
299.439
299.38
299.344
299.331
299.34
299.369
299.414
299.468
299.526
299.581
299.631
299.675
299.71
299.738
299.757
299.769
299.773
299.768
299.756
299.734
299.703
299.662
299.616
299.572
299.552
299.585
299.713
299.975
300.398
300.991
301.773
299.935
299.807
299.695
299.603
299.53
299.482
299.463
299.479
299.524
299.591
299.665
299.736
299.797
299.844
299.881
299.909
299.929
299.944
299.955
299.961
299.964
299.963
299.959
299.951
299.937
299.918
299.892
299.864
299.848
299.874
299.991
300.251
300.678
301.284
302.079
299.944
299.834
299.737
299.658
299.6
299.57
299.57
299.597
299.643
299.697
299.748
299.794
299.831
299.861
299.885
299.905
299.921
299.934
299.945
299.953
299.959
299.963
299.966
299.966
299.965
299.962
299.958
299.957
299.967
300.013
300.138
300.398
300.831
301.449
302.251
299.954
299.861
299.78
299.718
299.678
299.667
299.683
299.72
299.77
299.822
299.872
299.917
299.955
299.986
300.012
300.032
300.049
300.061
300.071
300.077
300.08
300.08
300.077
300.072
300.065
300.057
300.05
300.051
300.072
300.139
300.291
300.579
301.031
301.66
302.471
299.963
299.889
299.825
299.779
299.756
299.757
299.78
299.817
299.862
299.907
299.949
299.986
300.018
300.044
300.067
300.085
300.101
300.113
300.123
300.13
300.136
300.139
300.14
300.14
300.138
300.135
300.135
300.142
300.17
300.244
300.406
300.704
301.169
301.81
302.627
299.973
299.918
299.872
299.84
299.826
299.832
299.854
299.888
299.927
299.967
300.006
300.041
300.072
300.1
300.123
300.142
300.158
300.171
300.182
300.19
300.196
300.2
300.202
300.201
300.199
300.198
300.2
300.213
300.254
300.347
300.533
300.855
301.335
301.982
302.805
299.982
299.944
299.912
299.891
299.886
299.896
299.918
299.95
299.987
300.024
300.059
300.092
300.12
300.145
300.167
300.185
300.201
300.215
300.228
300.239
300.249
300.257
300.264
300.269
300.273
300.276
300.282
300.299
300.343
300.441
300.637
300.973
301.465
302.121
302.948
299.989
299.966
299.947
299.937
299.938
299.951
299.972
300
300.03
300.061
300.09
300.116
300.14
300.161
300.18
300.197
300.212
300.226
300.24
300.253
300.265
300.276
300.287
300.299
300.311
300.325
300.344
300.374
300.432
300.547
300.759
301.111
301.612
302.271
303.1
299.995
299.984
299.975
299.971
299.976
299.988
300.006
300.03
300.055
300.082
300.109
300.134
300.157
300.178
300.197
300.214
300.23
300.246
300.26
300.275
300.289
300.303
300.317
300.332
300.35
300.372
300.401
300.444
300.515
300.643
300.868
301.233
301.741
302.403
303.235
300
299.997
299.994
299.995
300.001
300.012
300.029
300.049
300.072
300.097
300.122
300.146
300.168
300.188
300.207
300.224
300.24
300.255
300.27
300.285
300.3
300.315
300.331
300.351
300.375
300.405
300.447
300.507
300.598
300.745
300.988
301.366
301.879
302.541
303.375
300.003
300.006
300.009
300.013
300.021
300.034
300.05
300.07
300.093
300.118
300.143
300.167
300.189
300.21
300.229
300.246
300.262
300.277
300.292
300.307
300.321
300.337
300.354
300.374
300.4
300.434
300.484
300.556
300.665
300.832
301.094
301.486
302.005
302.668
303.505
300.006
300.014
300.022
300.031
300.042
300.058
300.077
300.099
300.123
300.147
300.171
300.194
300.214
300.234
300.251
300.267
300.283
300.298
300.313
300.328
300.343
300.359
300.378
300.399
300.427
300.466
300.521
300.604
300.73
300.919
301.202
301.611
302.136
302.799
303.639
300.009
300.023
300.036
300.05
300.066
300.085
300.107
300.13
300.153
300.176
300.197
300.216
300.234
300.252
300.268
300.284
300.299
300.315
300.33
300.346
300.362
300.38
300.399
300.423
300.452
300.493
300.553
300.643
300.78
300.987
301.291
301.718
302.252
302.918
303.76
300.012
300.031
300.05
300.069
300.089
300.11
300.131
300.152
300.172
300.192
300.21
300.227
300.245
300.262
300.278
300.295
300.311
300.328
300.345
300.363
300.381
300.401
300.423
300.449
300.483
300.528
300.591
300.687
300.834
301.055
301.378
301.823
302.365
303.033
303.875
300.014
300.039
300.061
300.082
300.103
300.122
300.141
300.159
300.177
300.194
300.212
300.23
300.248
300.267
300.285
300.302
300.32
300.338
300.356
300.375
300.394
300.416
300.44
300.47
300.507
300.557
300.626
300.728
300.883
301.115
301.452
301.912
302.461
303.13
303.971
300.016
300.043
300.067
300.088
300.107
300.125
300.143
300.161
300.18
300.199
300.22
300.24
300.26
300.28
300.299
300.318
300.336
300.354
300.372
300.391
300.411
300.433
300.459
300.49
300.531
300.585
300.66
300.769
300.931
301.172
301.521
301.992
302.545
303.214
304.053
300.017
300.045
300.069
300.091
300.111
300.131
300.151
300.172
300.194
300.216
300.238
300.26
300.281
300.301
300.32
300.339
300.356
300.374
300.391
300.409
300.429
300.45
300.476
300.508
300.551
300.608
300.688
300.803
300.97
301.218
301.575
302.054
302.61
303.277
304.116
300.017
300.047
300.074
300.098
300.121
300.144
300.168
300.193
300.217
300.242
300.265
300.287
300.308
300.328
300.347
300.365
300.382
300.398
300.415
300.433
300.451
300.472
300.498
300.53
300.573
300.633
300.717
300.836
301.009
301.262
301.623
302.107
302.664
303.331
304.171
300.019
300.052
300.082
300.11
300.138
300.166
300.193
300.22
300.246
300.27
300.294
300.316
300.336
300.355
300.373
300.39
300.407
300.423
300.439
300.456
300.475
300.496
300.521
300.554
300.599
300.661
300.749
300.873
301.05
301.306
301.669
302.154
302.711
303.378
304.22
300.021
300.058
300.093
300.125
300.157
300.187
300.216
300.244
300.27
300.294
300.317
300.338
300.358
300.377
300.395
300.412
300.429
300.445
300.462
300.479
300.498
300.52
300.546
300.581
300.629
300.696
300.79
300.922
301.106
301.366
301.731
302.215
302.769
303.436
304.283
300.023
300.065
300.103
300.139
300.172
300.204
300.234
300.261
300.287
300.312
300.335
300.356
300.376
300.395
300.414
300.431
300.448
300.465
300.482
300.5
300.519
300.542
300.57
300.607
300.659
300.733
300.838
300.982
301.177
301.445
301.813
302.294
302.844
303.511
304.363
300.025
300.07
300.111
300.148
300.183
300.216
300.246
300.275
300.302
300.327
300.351
300.373
300.394
300.414
300.432
300.45
300.468
300.485
300.502
300.52
300.539
300.562
300.591
300.63
300.686
300.768
300.886
301.048
301.262
301.544
301.918
302.396
302.943
303.612
304.468
300.026
300.074
300.117
300.156
300.193
300.228
300.261
300.291
300.319
300.346
300.37
300.393
300.414
300.434
300.453
300.471
300.489
300.506
300.523
300.54
300.559
300.581
300.609
300.648
300.705
300.792
300.921
301.103
301.341
301.645
302.032
302.511
303.058
303.73
304.587
300.028
300.078
300.123
300.166
300.205
300.242
300.277
300.309
300.338
300.365
300.39
300.414
300.435
300.455
300.474
300.492
300.51
300.527
300.544
300.561
300.58
300.601
300.627
300.663
300.717
300.802
300.935
301.131
301.397
301.73
302.138
302.624
303.173
303.848
304.705
300.029
300.082
300.131
300.176
300.218
300.257
300.293
300.326
300.356
300.384
300.409
300.433
300.455
300.475
300.494
300.513
300.53
300.547
300.564
300.582
300.6
300.621
300.646
300.678
300.726
300.801
300.924
301.12
301.403
301.77
302.21
302.717
303.275
303.952
304.806
300.031
300.087
300.138
300.186
300.23
300.271
300.308
300.342
300.373
300.402
300.428
300.452
300.474
300.495
300.515
300.533
300.551
300.569
300.586
300.603
300.622
300.643
300.667
300.697
300.738
300.801
300.905
301.08
301.356
301.744
302.225
302.77
303.347
304.027
304.87
300.032
300.091
300.145
300.196
300.242
300.285
300.324
300.36
300.392
300.422
300.449
300.473
300.496
300.518
300.538
300.557
300.575
300.592
300.609
300.627
300.646
300.667
300.691
300.721
300.759
300.812
300.896
301.039
301.281
301.655
302.158
302.746
303.349
304.03
304.858
300.034
300.096
300.153
300.206
300.256
300.301
300.342
300.379
300.413
300.443
300.471
300.497
300.52
300.542
300.562
300.581
300.6
300.617
300.635
300.653
300.673
300.695
300.721
300.752
300.791
300.842
300.915
301.032
301.232
301.563
302.049
302.652
303.273
303.956
304.777
300.036
300.101
300.162
300.219
300.271
300.319
300.362
300.4
300.434
300.466
300.494
300.52
300.544
300.566
300.587
300.606
300.625
300.643
300.661
300.68
300.701
300.725
300.754
300.79
300.835
300.892
300.965
301.072
301.245
301.533
301.979
302.563
303.178
303.858
304.682
300.038
300.107
300.171
300.231
300.286
300.336
300.381
300.42
300.456
300.488
300.517
300.544
300.568
300.591
300.612
300.632
300.651
300.669
300.687
300.707
300.729
300.755
300.788
300.83
300.885
300.955
301.042
301.156
301.322
301.587
301.994
302.538
303.128
303.802
304.636
300.04
300.113
300.181
300.244
300.302
300.354
300.4
300.441
300.477
300.51
300.54
300.568
300.593
300.616
300.638
300.658
300.677
300.696
300.714
300.734
300.756
300.783
300.819
300.868
300.936
301.024
301.134
301.268
301.446
301.706
302.087
302.587
303.149
303.824
304.675
300.041
300.119
300.19
300.257
300.317
300.372
300.419
300.461
300.499
300.533
300.563
300.592
300.617
300.641
300.664
300.684
300.704
300.722
300.741
300.76
300.782
300.809
300.845
300.898
300.974
301.08
301.218
301.384
301.587
301.855
302.224
302.689
303.232
303.914
304.78
300.043
300.124
300.2
300.269
300.333
300.389
300.438
300.482
300.52
300.555
300.586
300.615
300.642
300.666
300.689
300.71
300.73
300.749
300.768
300.787
300.808
300.833
300.867
300.916
300.992
301.107
301.266
301.467
301.705
301.996
302.364
302.81
303.342
304.034
304.909
300.045
300.13
300.209
300.282
300.349
300.407
300.458
300.502
300.542
300.577
300.61
300.639
300.667
300.692
300.715
300.736
300.757
300.777
300.796
300.816
300.836
300.86
300.89
300.933
300.999
301.106
301.268
301.492
301.767
302.092
302.478
302.921
303.449
304.147
305.025
300.048
300.137
300.22
300.296
300.365
300.426
300.478
300.524
300.564
300.601
300.634
300.664
300.692
300.717
300.741
300.763
300.785
300.805
300.826
300.847
300.869
300.892
300.919
300.956
301.011
301.101
301.247
301.468
301.765
302.126
302.543
303.003
303.538
304.239
305.116
300.05
300.143
300.23
300.311
300.383
300.445
300.499
300.545
300.587
300.624
300.658
300.689
300.717
300.744
300.768
300.791
300.813
300.835
300.857
300.88
300.904
300.929
300.957
300.991
301.039
301.113
301.236
301.435
301.727
302.108
302.559
303.049
303.601
304.308
305.184
300.052
300.151
300.242
300.326
300.401
300.465
300.52
300.568
300.61
300.648
300.683
300.715
300.743
300.77
300.795
300.819
300.842
300.865
300.89
300.916
300.943
300.972
301.003
301.038
301.082
301.147
301.253
301.426
301.696
302.077
302.55
303.072
303.645
304.36
305.238
300.055
300.158
300.254
300.342
300.419
300.485
300.541
300.59
300.633
300.672
300.708
300.74
300.769
300.796
300.822
300.846
300.87
300.896
300.922
300.952
300.985
301.02
301.056
301.095
301.14
301.202
301.296
301.45
301.697
302.063
302.543
303.085
303.677
304.401
305.282
300.057
300.166
300.267
300.358
300.438
300.505
300.562
300.611
300.656
300.696
300.732
300.764
300.794
300.822
300.848
300.873
300.898
300.925
300.955
300.989
301.029
301.072
301.117
301.163
301.213
301.275
301.366
301.509
301.738
302.085
302.557
303.105
303.708
304.444
305.334
300.06
300.174
300.279
300.373
300.455
300.523
300.581
300.632
300.677
300.718
300.755
300.788
300.818
300.846
300.873
300.898
300.924
300.953
300.985
301.025
301.073
301.128
301.185
301.242
301.302
301.371
301.465
301.606
301.827
302.161
302.621
303.16
303.766
304.516
305.417
300.063
300.181
300.29
300.387
300.47
300.54
300.599
300.65
300.697
300.738
300.776
300.81
300.841
300.869
300.896
300.922
300.948
300.977
301.012
301.056
301.113
301.181
301.256
301.332
301.408
301.492
301.598
301.75
301.976
302.308
302.756
303.274
303.87
304.629
305.526
300.065
300.187
300.299
300.399
300.484
300.554
300.614
300.667
300.714
300.756
300.795
300.83
300.862
300.89
300.917
300.943
300.969
300.998
301.033
301.079
301.141
301.222
301.318
301.419
301.521
301.629
301.758
301.93
302.172
302.509
302.943
303.43
304.005
304.754
305.628
300.067
300.192
300.307
300.409
300.495
300.567
300.627
300.681
300.729
300.772
300.812
300.848
300.88
300.91
300.937
300.963
300.988
301.015
301.048
301.092
301.154
301.241
301.354
301.483
301.618
301.758
301.917
302.114
302.374
302.715
303.129
303.583
304.129
304.85
305.687
300.068
300.196
300.314
300.417
300.504
300.577
300.638
300.693
300.742
300.786
300.827
300.864
300.898
300.928
300.955
300.981
301.006
301.031
301.06
301.098
301.153
301.234
301.35
301.499
301.667
301.844
302.036
302.259
302.534
302.873
303.265
303.689
304.206
304.892
305.697
300.069
300.2
300.318
300.423
300.512
300.586
300.648
300.704
300.754
300.8
300.841
300.879
300.914
300.945
300.974
301
301.024
301.048
301.074
301.105
301.149
301.215
301.317
301.464
301.651
301.861
302.087
302.335
302.622
302.958
303.333
303.734
304.226
304.885
305.674
300.07
300.202
300.323
300.429
300.519
300.594
300.658
300.714
300.766
300.812
300.855
300.895
300.93
300.963
300.992
301.018
301.043
301.067
301.091
301.118
301.152
301.202
301.281
301.405
301.583
301.808
302.063
302.338
302.64
302.977
303.34
303.727
304.202
304.848
305.636
300.071
300.205
300.327
300.435
300.527
300.603
300.668
300.726
300.778
300.826
300.87
300.91
300.947
300.98
301.011
301.038
301.063
301.087
301.111
301.135
301.164
301.203
301.261
301.354
301.502
301.713
301.978
302.277
302.6
302.946
303.309
303.689
304.158
304.804
305.603
300.072
300.207
300.331
300.441
300.535
300.613
300.68
300.739
300.792
300.841
300.886
300.928
300.965
300.999
301.031
301.059
301.085
301.11
301.134
301.158
301.184
301.216
301.26
301.329
301.442
301.619
301.868
302.176
302.52
302.887
303.262
303.648
304.118
304.772
305.587
300.073
300.211
300.337
300.449
300.546
300.625
300.693
300.753
300.808
300.858
300.904
300.946
300.985
301.02
301.052
301.081
301.108
301.134
301.159
301.184
301.209
301.239
301.276
301.329
301.414
301.553
301.768
302.064
302.421
302.812
303.214
303.614
304.092
304.755
305.582
300.074
300.215
300.344
300.459
300.558
300.639
300.709
300.77
300.826
300.877
300.924
300.967
301.006
301.042
301.075
301.105
301.133
301.16
301.186
301.212
301.238
301.267
301.302
301.347
301.414
301.524
301.701
301.966
302.318
302.729
303.161
303.585
304.075
304.748
305.585
300.076
300.219
300.352
300.471
300.571
300.655
300.726
300.789
300.846
300.898
300.946
300.99
301.029
301.065
301.099
301.13
301.159
301.187
301.214
301.242
301.271
301.301
301.335
301.377
301.435
301.524
301.67
301.902
302.233
302.649
303.108
303.559
304.066
304.75
305.598
300.078
300.225
300.361
300.483
300.587
300.672
300.744
300.809
300.867
300.92
300.969
301.013
301.053
301.09
301.124
301.156
301.186
301.215
301.244
301.274
301.306
301.339
301.375
301.416
301.47
301.547
301.671
301.872
302.177
302.588
303.065
303.542
304.068
304.761
305.611
300.08
300.232
300.372
300.497
300.603
300.69
300.763
300.829
300.888
300.943
300.992
301.037
301.078
301.115
301.15
301.182
301.213
301.244
301.276
301.309
301.344
301.381
301.422
301.466
301.518
301.588
301.696
301.872
302.149
302.544
303.03
303.526
304.067
304.764
305.612
300.082
300.239
300.383
300.512
300.619
300.708
300.783
300.85
300.91
300.966
301.016
301.062
301.103
301.141
301.176
301.209
301.241
301.273
301.307
301.344
301.385
301.429
301.476
301.526
301.58
301.648
301.746
301.902
302.151
302.523
303.001
303.507
304.057
304.757
305.609
300.085
300.246
300.395
300.526
300.636
300.725
300.802
300.87
300.931
300.988
301.039
301.086
301.128
301.166
301.201
301.235
301.268
301.302
301.339
301.38
301.427
301.481
301.539
301.599
301.661
301.732
301.827
301.972
302.202
302.549
303.009
303.507
304.059
304.769
305.636
300.087
300.253
300.406
300.54
300.651
300.742
300.819
300.889
300.952
301.009
301.061
301.108
301.151
301.19
301.225
301.26
301.293
301.329
301.368
301.414
301.47
301.536
301.609
301.685
301.761
301.842
301.943
302.089
302.312
302.644
303.081
303.555
304.1
304.828
305.716
300.09
300.26
300.416
300.552
300.665
300.757
300.836
300.906
300.97
301.029
301.082
301.13
301.173
301.212
301.248
301.282
301.316
301.352
301.393
301.442
301.505
301.584
301.677
301.775
301.873
301.972
302.088
302.245
302.473
302.796
303.208
303.653
304.188
304.935
305.841
300.092
300.265
300.424
300.563
300.677
300.77
300.85
300.922
300.987
301.047
301.101
301.149
301.193
301.232
301.268
301.302
301.336
301.372
301.412
301.462
301.528
301.616
301.726
301.852
301.979
302.107
302.246
302.42
302.656
302.972
303.358
303.78
304.31
305.068
305.982
300.093
300.27
300.431
300.572
300.688
300.782
300.863
300.936
301.003
301.063
301.118
301.168
301.212
301.252
301.288
301.322
301.354
301.389
301.427
301.475
301.538
301.626
301.746
301.894
302.056
302.22
302.39
302.586
302.832
303.142
303.507
303.912
304.439
305.199
306.111
300.095
300.274
300.438
300.58
300.698
300.794
300.876
300.95
301.017
301.079
301.135
301.185
301.23
301.27
301.307
301.34
301.373
301.405
301.441
301.484
301.541
301.622
301.737
301.893
302.082
302.286
302.495
302.719
302.979
303.288
303.639
304.033
304.556
305.31
306.211
300.096
300.278
300.444
300.589
300.708
300.805
300.889
300.964
301.033
301.095
301.152
301.203
301.248
301.289
301.326
301.359
301.391
301.423
301.457
301.496
301.545
301.614
301.716
301.863
302.059
302.292
302.543
302.804
303.087
303.402
303.748
304.136
304.653
305.395
306.281
300.097
300.281
300.45
300.597
300.719
300.818
300.903
300.979
301.049
301.113
301.17
301.222
301.268
301.309
301.346
301.38
301.412
301.443
301.475
301.511
301.554
301.613
301.698
301.825
302.009
302.249
302.53
302.832
303.147
303.481
303.832
304.219
304.729
305.455
306.324
300.099
300.285
300.457
300.607
300.731
300.832
300.918
300.996
301.067
301.131
301.189
301.241
301.288
301.329
301.367
301.401
301.433
301.465
301.496
301.53
301.57
301.621
301.693
301.799
301.959
302.186
302.476
302.807
303.161
303.524
303.89
304.28
304.784
305.494
306.342
300.1
300.29
300.465
300.618
300.744
300.847
300.935
301.014
301.086
301.151
301.21
301.263
301.309
301.351
301.389
301.424
301.457
301.488
301.52
301.553
301.591
301.637
301.7
301.79
301.927
302.128
302.406
302.75
303.134
303.531
303.922
304.321
304.819
305.512
306.34
300.102
300.296
300.474
300.63
300.759
300.864
300.954
301.034
301.107
301.173
301.232
301.285
301.332
301.374
301.413
301.448
301.481
301.513
301.545
301.579
301.616
301.66
301.718
301.797
301.915
302.092
302.346
302.683
303.083
303.51
303.929
304.339
304.834
305.51
306.317
300.104
300.302
300.484
300.644
300.775
300.882
300.973
301.055
301.129
301.196
301.255
301.309
301.356
301.398
301.437
301.472
301.506
301.539
301.571
301.606
301.644
301.688
301.743
301.817
301.923
302.079
302.308
302.626
303.025
303.471
303.914
304.336
304.828
305.489
306.278
300.106
300.309
300.495
300.658
300.791
300.9
300.993
301.076
301.151
301.219
301.279
301.333
301.38
301.422
301.461
301.497
301.531
301.565
301.599
301.634
301.674
301.719
301.775
301.847
301.945
302.088
302.296
302.59
302.975
303.425
303.883
304.313
304.802
305.451
306.228
300.109
300.316
300.506
300.672
300.808
300.918
301.013
301.097
301.173
301.242
301.303
301.357
301.404
301.447
301.486
301.522
301.557
301.591
301.626
301.663
301.704
301.752
301.809
301.882
301.979
302.114
302.307
302.581
302.945
303.384
303.843
304.275
304.76
305.404
306.178
300.111
300.323
300.517
300.687
300.825
300.937
301.033
301.118
301.195
301.265
301.326
301.38
301.428
301.471
301.51
301.547
301.582
301.617
301.652
301.691
301.734
301.784
301.845
301.921
302.019
302.152
302.337
302.594
302.937
303.358
303.805
304.231
304.712
305.356
306.136
300.114
300.33
300.528
300.701
300.841
300.955
301.052
301.139
301.217
301.288
301.35
301.404
301.452
301.495
301.534
301.571
301.606
301.642
301.678
301.718
301.763
301.815
301.879
301.959
302.061
302.195
302.377
302.623
302.948
303.346
303.775
304.189
304.666
305.316
306.108
300.116
300.337
300.539
300.715
300.858
300.973
301.072
301.16
301.239
301.31
301.373
301.428
301.476
301.519
301.558
301.595
301.631
301.666
301.704
301.744
301.79
301.844
301.911
301.994
302.1
302.238
302.419
302.659
302.97
303.348
303.756
304.158
304.632
305.29
306.097
300.118
300.344
300.551
300.729
300.874
300.992
301.092
301.181
301.262
301.333
301.396
301.451
301.499
301.542
301.582
301.619
301.655
301.691
301.728
301.769
301.816
301.871
301.94
302.025
302.135
302.276
302.459
302.696
302.998
303.36
303.75
304.14
304.612
305.279
306.1
300.121
300.351
300.562
300.744
300.891
301.01
301.112
301.203
301.284
301.356
301.42
301.474
301.523
301.566
301.606
301.643
301.679
301.715
301.753
301.794
301.841
301.897
301.966
302.053
302.164
302.308
302.494
302.731
303.027
303.378
303.754
304.137
304.607
305.281
306.114
300.123
300.359
300.573
300.759
300.909
301.03
301.133
301.225
301.308
301.38
301.444
301.498
301.547
301.59
301.63
301.667
301.703
301.74
301.778
301.82
301.867
301.923
301.991
302.078
302.19
302.335
302.522
302.76
303.054
303.398
303.766
304.144
304.614
305.293
306.136
300.126
300.366
300.586
300.775
300.927
301.05
301.155
301.248
301.332
301.405
301.468
301.523
301.571
301.614
301.654
301.692
301.728
301.766
301.804
301.846
301.894
301.949
302.017
302.103
302.215
302.36
302.548
302.786
303.08
303.421
303.785
304.16
304.63
305.314
306.163
300.129
300.374
300.598
300.791
300.946
301.071
301.178
301.272
301.357
301.43
301.494
301.548
301.596
301.639
301.679
301.717
301.754
301.792
301.831
301.874
301.922
301.978
302.045
302.13
302.24
302.384
302.571
302.81
303.104
303.444
303.806
304.18
304.651
305.338
306.192
300.132
300.383
300.611
300.808
300.966
301.093
301.201
301.297
301.382
301.456
301.52
301.574
301.621
301.664
301.704
301.742
301.78
301.819
301.859
301.903
301.952
302.008
302.076
302.161
302.27
302.412
302.597
302.836
303.13
303.47
303.831
304.206
304.678
305.368
306.226
300.135
300.391
300.625
300.826
300.986
301.115
301.225
301.323
301.409
301.483
301.546
301.6
301.647
301.69
301.729
301.768
301.806
301.846
301.888
301.933
301.983
302.041
302.11
302.195
302.304
302.444
302.628
302.865
303.158
303.498
303.859
304.233
304.707
305.4
306.262
300.138
300.4
300.639
300.844
301.007
301.138
301.249
301.348
301.435
301.51
301.573
301.627
301.673
301.715
301.755
301.794
301.833
301.874
301.917
301.964
302.017
302.077
302.148
302.234
302.343
302.484
302.667
302.902
303.194
303.533
303.892
304.266
304.742
305.439
306.305
300.141
300.41
300.654
300.862
301.028
301.161
301.274
301.374
301.462
301.537
301.6
301.654
301.7
301.741
301.781
301.82
301.86
301.902
301.947
301.996
302.051
302.114
302.188
302.277
302.388
302.53
302.713
302.947
303.237
303.573
303.929
304.302
304.78
305.482
306.352
300.144
300.419
300.669
300.881
301.049
301.184
301.299
301.401
301.49
301.565
301.628
301.68
301.726
301.767
301.807
301.846
301.887
301.93
301.977
302.028
302.086
302.153
302.231
302.324
302.438
302.582
302.767
303.002
303.29
303.622
303.974
304.346
304.826
305.532
306.408
300.148
300.429
300.684
300.9
301.071
301.208
301.325
301.428
301.517
301.593
301.655
301.707
301.752
301.793
301.833
301.872
301.914
301.958
302.006
302.061
302.122
302.192
302.274
302.372
302.491
302.639
302.826
303.061
303.348
303.676
304.022
304.392
304.875
305.587
306.468
300.151
300.439
300.699
300.919
301.093
301.232
301.351
301.455
301.545
301.62
301.683
301.734
301.779
301.819
301.858
301.898
301.94
301.986
302.036
302.093
302.158
302.232
302.319
302.422
302.547
302.7
302.891
303.128
303.414
303.736
304.078
304.446
304.932
305.65
306.537
300.155
300.449
300.715
300.939
301.115
301.256
301.377
301.482
301.573
301.648
301.71
301.761
301.805
301.845
301.884
301.924
301.966
302.013
302.065
302.124
302.192
302.271
302.363
302.472
302.603
302.761
302.957
303.196
303.48
303.799
304.135
304.502
304.991
305.716
306.608
300.158
300.459
300.731
300.959
301.138
301.281
301.404
301.51
301.601
301.677
301.738
301.788
301.831
301.87
301.909
301.949
301.993
302.04
302.094
302.156
302.227
302.311
302.408
302.523
302.66
302.825
303.026
303.268
303.551
303.866
304.198
304.565
305.059
305.789
306.687
300.162
300.47
300.748
300.98
301.162
301.307
301.431
301.539
301.63
301.705
301.766
301.815
301.857
301.896
301.934
301.975
302.018
302.067
302.123
302.187
302.261
302.349
302.452
302.573
302.717
302.888
303.094
303.338
303.621
303.932
304.261
304.628
305.127
305.863
306.765
300.166
300.481
300.765
301.001
301.186
301.333
301.459
301.568
301.659
301.734
301.794
301.843
301.884
301.922
301.96
302
302.044
302.094
302.151
302.217
302.296
302.388
302.497
302.624
302.775
302.953
303.164
303.412
303.695
304.003
304.329
304.698
305.203
305.945
306.849
300.169
300.492
300.782
301.023
301.21
301.36
301.487
301.597
301.689
301.764
301.823
301.87
301.91
301.947
301.985
302.025
302.069
302.12
302.178
302.247
302.329
302.425
302.54
302.674
302.832
303.016
303.233
303.484
303.767
304.073
304.398
304.769
305.278
306.024
306.929
300.173
300.503
300.799
301.044
301.234
301.386
301.516
301.627
301.719
301.794
301.852
301.898
301.937
301.973
302.01
302.05
302.095
302.146
302.206
302.277
302.362
302.463
302.584
302.725
302.891
303.083
303.306
303.561
303.844
304.149
304.472
304.845
305.36
306.107
307.007
300.177
300.514
300.817
301.066
301.259
301.413
301.544
301.657
301.75
301.824
301.882
301.927
301.964
301.999
302.035
302.074
302.119
302.171
302.232
302.305
302.392
302.499
302.625
302.774
302.948
303.148
303.377
303.635
303.92
304.223
304.545
304.919
305.437
306.183
307.074
300.181
300.526
300.834
301.087
301.283
301.44
301.573
301.687
301.781
301.855
301.912
301.956
301.992
302.025
302.06
302.099
302.144
302.196
302.258
302.332
302.423
302.533
302.667
302.824
303.006
303.215
303.451
303.713
303.998
304.3
304.621
304.995
305.515
306.254
307.132
300.185
300.537
300.851
301.108
301.307
301.466
301.601
301.717
301.811
301.886
301.942
301.985
302.02
302.051
302.085
302.123
302.167
302.22
302.282
302.357
302.45
302.564
302.703
302.868
303.06
303.278
303.521
303.788
304.074
304.374
304.692
305.066
305.584
306.311
307.169
300.189
300.548
300.868
301.129
301.33
301.492
301.629
301.746
301.842
301.917
301.973
302.015
302.048
302.078
302.11
302.147
302.191
302.243
302.305
302.381
302.475
302.592
302.736
302.909
303.111
303.339
303.591
303.863
304.15
304.448
304.763
305.134
305.647
306.357
307.189
300.193
300.559
300.884
301.149
301.353
301.517
301.657
301.776
301.873
301.948
302.004
302.045
302.077
302.105
302.135
302.17
302.213
302.264
302.326
302.402
302.496
302.614
302.761
302.94
303.151
303.389
303.651
303.93
304.22
304.516
304.826
305.192
305.696
306.38
307.184
300.196
300.569
300.9
301.169
301.376
301.542
301.684
301.805
301.903
301.979
302.035
302.075
302.106
302.132
302.161
302.194
302.235
302.286
302.346
302.421
302.514
302.632
302.78
302.962
303.18
303.428
303.701
303.988
304.281
304.576
304.881
305.24
305.729
306.384
307.159
300.2
300.579
300.915
301.188
301.398
301.567
301.712
301.834
301.934
302.01
302.066
302.106
302.135
302.16
302.186
302.217
302.257
302.305
302.364
302.437
302.527
302.642
302.788
302.969
303.189
303.444
303.726
304.022
304.321
304.615
304.916
305.265
305.735
306.361
307.111
300.203
300.588
300.93
301.208
301.42
301.592
301.739
301.864
301.965
302.042
302.098
302.137
302.166
302.189
302.213
302.242
302.279
302.325
302.382
302.453
302.54
302.65
302.791
302.968
303.185
303.44
303.727
304.029
304.333
304.628
304.924
305.263
305.716
306.319
307.055
300.206
300.598
300.946
301.227
301.443
301.617
301.767
301.894
301.996
302.074
302.13
302.169
302.197
302.218
302.24
302.266
302.3
302.344
302.399
302.466
302.549
302.654
302.787
302.956
303.164
303.414
303.698
304.002
304.309
304.605
304.898
305.229
305.669
306.259
306.992
300.21
300.608
300.961
301.247
301.466
301.644
301.796
301.925
302.028
302.107
302.163
302.201
302.228
302.249
302.269
302.293
302.324
302.366
302.418
302.482
302.561
302.66
302.785
302.943
303.141
303.379
303.654
303.953
304.258
304.554
304.845
305.171
305.605
306.195
306.935
300.213
300.618
300.978
301.268
301.491
301.671
301.826
301.957
302.062
302.14
302.196
302.234
302.26
302.28
302.298
302.32
302.349
302.387
302.436
302.497
302.572
302.665
302.782
302.931
303.115
303.34
303.602
303.892
304.193
304.487
304.777
305.101
305.536
306.134
306.887
300.217
300.629
300.995
301.291
301.517
301.7
301.858
301.991
302.096
302.175
302.23
302.268
302.293
302.312
302.329
302.349
302.376
302.413
302.459
302.517
302.588
302.676
302.786
302.925
303.098
303.31
303.558
303.836
304.129
304.42
304.71
305.034
305.472
306.084
306.854
300.221
300.641
301.014
301.314
301.544
301.731
301.891
302.026
302.132
302.211
302.266
302.302
302.326
302.343
302.359
302.379
302.404
302.439
302.483
302.538
302.605
302.689
302.793
302.924
303.088
303.287
303.523
303.79
304.075
304.364
304.653
304.979
305.422
306.047
306.832
300.225
300.654
301.033
301.339
301.573
301.763
301.926
302.063
302.17
302.248
302.302
302.337
302.36
302.376
302.391
302.41
302.435
302.469
302.512
302.565
302.63
302.709