/*--------------------------------*- C++ -*----------------------------------*\
| =========                 |                                                 |
| \\      /  F ield         | OpenFOAM: The Open Source CFD Toolbox           |
|  \\    /   O peration     | Version:  v1906                                 |
|   \\  /    A nd           | Web:      www.OpenFOAM.com                      |
|    \\/     M anipulation  |                                                 |
\*---------------------------------------------------------------------------*/
FoamFile
{
    version     2.0;
    format      ascii;
    class       volVectorField;
    location    "34";
    object      U;
}
// * * * * * * * * * * * * * * * * * * * * * * * * * * * * * * * * * * * * * //

dimensions      [0 1 -1 0 0 0 0];


internalField   nonuniform List<vector> 
78750
(
(-0.01055 -0.00473925 -0.00180677)
(-0.0109703 -0.0122185 -0.0058585)
(-0.00950577 -0.0137704 -0.00718587)
(-0.00755984 -0.0136885 -0.00750321)
(-0.00599793 -0.0129393 -0.00731913)
(-0.0043873 -0.0118873 -0.00687696)
(-0.00283103 -0.0107535 -0.0063386)
(-0.00140356 -0.00964724 -0.00577605)
(-0.000134158 -0.00861892 -0.00523315)
(0.000992748 -0.00769258 -0.00473135)
(0.00200432 -0.00687268 -0.00427747)
(0.00292416 -0.00615338 -0.00387045)
(0.00377357 -0.00552483 -0.00350601)
(0.00456902 -0.00497603 -0.00317875)
(0.00532246 -0.00449591 -0.002883)
(0.006042 -0.00407364 -0.00261317)
(0.00673263 -0.0036987 -0.00236382)
(0.00739604 -0.00336094 -0.00212973)
(0.00803124 -0.00305035 -0.00190562)
(0.00863535 -0.00275704 -0.00168616)
(0.00920245 -0.00247117 -0.00146587)
(0.00972467 -0.0021826 -0.00123881)
(0.0101925 -0.00188092 -0.000998489)
(0.0105932 -0.00155513 -0.000737516)
(0.0109103 -0.0011934 -0.000447043)
(0.0111231 -0.000782849 -0.000116103)
(0.0112057 -0.000309578 0.000269418)
(0.0111271 0.000241279 0.00072979)
(0.0108393 0.00088801 0.00129821)
(0.0102793 0.00166961 0.00200903)
(0.00936108 0.00268618 0.00289265)
(0.00795051 0.00418092 0.00387325)
(0.00587217 0.00631648 0.00458022)
(0.00323703 0.00807756 0.0042379)
(0.000768313 0.00595827 0.00215264)
(-0.000673246 0.00681024 -0.00224443)
(-0.00233383 -0.00022194 -0.00978842)
(-0.00463393 -0.00677501 -0.015162)
(-0.00666734 -0.0105924 -0.0177345)
(-0.0082577 -0.0117643 -0.0182173)
(-0.00944934 -0.0112453 -0.01753)
(-0.0102376 -0.0099478 -0.0162943)
(-0.0106465 -0.00847384 -0.0148932)
(-0.0107657 -0.00718059 -0.0135237)
(-0.0106506 -0.0062516 -0.012289)
(-0.0103339 -0.00566423 -0.0112104)
(-0.00984898 -0.00533905 -0.0102832)
(-0.00922232 -0.00519499 -0.00950007)
(-0.00847656 -0.00516504 -0.00885146)
(-0.00763202 -0.00519767 -0.00832467)
(-0.00670723 -0.00525436 -0.00790577)
(-0.00571914 -0.0053067 -0.00758094)
(-0.00468315 -0.00533342 -0.00733738)
(-0.00361329 -0.00531776 -0.00716309)
(-0.00252244 -0.00524523 -0.00704686)
(-0.00142276 -0.00510175 -0.0069784)
(-0.000326205 -0.00487178 -0.00694796)
(0.000754701 -0.00453678 -0.00694557)
(0.00180555 -0.00407321 -0.0069593)
(0.00280801 -0.00344994 -0.00697231)
(0.00373581 -0.00262591 -0.00695916)
(0.00454865 -0.00154799 -0.0068788)
(0.00518818 -0.000146853 -0.0066673)
(0.00558604 0.00166871 -0.00622529)
(0.00567477 0.00402973 -0.00543061)
(0.00536968 0.00725477 -0.00409175)
(0.00451696 0.0117275 -0.0021016)
(0.0031149 0.0168077 1.81175e-05)
(0.00153793 0.0195721 0.00129703)
(0.000192056 0.0136522 0.00110806)
(0.000204626 0.0125875 -0.00145396)
(-5.49542e-05 0.0200743 -0.00537214)
(-0.00115512 0.0213697 -0.0075471)
(-0.00255747 0.0201315 -0.00778448)
(-0.00411533 0.0175241 -0.00636394)
(-0.00559782 0.013998 -0.00387453)
(-0.00686828 0.0100702 -0.00105945)
(-0.00785805 0.00623194 0.00155874)
(-0.00847826 0.00280592 0.00380748)
(-0.00871359 -8.21868e-05 0.00570496)
(-0.00862724 -0.0024808 0.0072782)
(-0.00828196 -0.00447811 0.00852703)
(-0.00773681 -0.00611482 0.0094663)
(-0.00704211 -0.0074086 0.0101415)
(-0.00624377 -0.00838353 0.0106039)
(-0.00538061 -0.00906686 0.0108995)
(-0.00448477 -0.00948704 0.0110645)
(-0.00358253 -0.00967198 0.0111236)
(-0.002695 -0.00964734 0.0110901)
(-0.00183885 -0.00943475 0.0109664)
(-0.00102675 -0.00904971 0.0107438)
(-0.000267835 -0.00849883 0.010403)
(0.000431461 -0.0077768 0.00991366)
(0.00106798 -0.0068582 0.00923541)
(0.0016409 -0.00568811 0.00832239)
(0.00215302 -0.00416865 0.0071215)
(0.00260334 -0.00215907 0.00557827)
(0.00297601 0.000516056 0.00368554)
(0.00323284 0.00405673 0.00155951)
(0.00331521 0.00863013 -0.000486003)
(0.00314609 0.0142526 -0.00196918)
(0.00262189 0.0204285 -0.00242767)
(0.00180978 0.0255171 -0.00184859)
(0.000894254 0.02657 -0.000781406)
(0.000104029 0.0167211 0.000129564)
(2.27619e-05 0.00809344 -0.000707896)
(0.00019362 0.0135565 -0.00303648)
(0.000214766 0.0142036 -0.00456369)
(0.000202417 0.0125005 -0.00502975)
(0.00016 0.00955197 -0.00447524)
(9.50662e-05 0.0058023 -0.00302167)
(3.40987e-05 0.00159785 -0.000878153)
(2.82387e-05 -0.0027215 0.00167519)
(8.14118e-05 -0.00693861 0.00432475)
(0.000163732 -0.0109076 0.00674913)
(0.000301989 -0.0145013 0.00866864)
(0.000524397 -0.0176064 0.0099536)
(0.000836312 -0.0201343 0.0106535)
(0.00123505 -0.0220652 0.0109256)
(0.00171053 -0.0234347 0.0109315)
(0.00224217 -0.0243006 0.0107978)
(0.00281554 -0.0247212 0.0106213)
(0.00341518 -0.02475 0.0104709)
(0.00402353 -0.0244319 0.0103944)
(0.00462115 -0.0238025 0.0104257)
(0.00518683 -0.0228878 0.0105902)
(0.0056998 -0.0217034 0.0109081)
(0.00613736 -0.0202573 0.0113929)
(0.00647549 -0.0185465 0.0120459)
(0.00669046 -0.0165419 0.012846)
(0.00675962 -0.0141754 0.0137146)
(0.00666509 -0.0113056 0.0144591)
(0.00639552 -0.00766636 0.0147106)
(0.00595098 -0.00286423 0.0139497)
(0.00531495 0.00349367 0.011821)
(0.00445801 0.0115172 0.00857307)
(0.00337569 0.0204792 0.00520412)
(0.0021657 0.0279971 0.00281656)
(0.00103187 0.0299081 0.00161327)
(0.000155589 0.0187525 0.000873998)
(4.94185e-05 0.00740867 2.53728e-06)
(0.000140351 0.0136123 -0.000959987)
(8.87389e-05 0.0153277 -0.00164845)
(-9.33312e-05 0.0145318 -0.00161817)
(-0.000381008 0.0122425 -0.000682434)
(-0.000743169 0.0088324 0.00118377)
(-0.00114775 0.00455807 0.0037036)
(-0.00155097 -0.000246225 0.00628756)
(-0.00189593 -0.00520969 0.00828486)
(-0.00214379 -0.00995882 0.00931586)
(-0.002278 -0.0142221 0.00941211)
(-0.00228834 -0.017859 0.00888508)
(-0.0021719 -0.0208163 0.00809107)
(-0.00193739 -0.0230686 0.00728891)
(-0.0015919 -0.0246846 0.00658358)
(-0.00114587 -0.0257689 0.00599366)
(-0.000619393 -0.0263943 0.00551387)
(-2.7899e-05 -0.0266101 0.0051258)
(0.000611539 -0.0264504 0.00481041)
(0.00128019 -0.0259366 0.00455517)
(0.00195804 -0.0250799 0.00435747)
(0.00262421 -0.0238812 0.00422641)
(0.00325593 -0.0223292 0.00418458)
(0.00382415 -0.0203928 0.00426856)
(0.00430427 -0.0179986 0.00453075)
(0.00467177 -0.0150087 0.00504664)
(0.00488784 -0.011235 0.00588327)
(0.0049086 -0.00638871 0.00700771)
(0.00469309 -2.14784e-05 0.00814522)
(0.00423228 0.00825079 0.0086944)
(0.00353688 0.0182249 0.00803707)
(0.00261171 0.0284499 0.00624541)
(0.00160315 0.0357773 0.00422959)
(0.000696326 0.0360252 0.00261799)
(6.41682e-05 0.021329 0.00117714)
(-2.28056e-05 0.00602463 0.000588095)
(-9.29702e-05 0.0113414 0.00077753)
(-0.000279492 0.0128583 0.00092214)
(-0.000529367 0.0118897 0.00149322)
(-0.000808546 0.00916921 0.0026838)
(-0.00107335 0.00503203 0.00440504)
(-0.00127419 -9.81293e-05 0.00625867)
(-0.00139503 -0.00572048 0.00779502)
(-0.00143592 -0.0113636 0.00878032)
(-0.00139156 -0.0166661 0.00927467)
(-0.00125533 -0.0214154 0.00949347)
(-0.00102596 -0.0255157 0.00962614)
(-0.000706954 -0.0289326 0.00976179)
(-0.000306021 -0.0316608 0.00991261)
(0.000167371 -0.0337304 0.0100632)
(0.000708577 -0.0352041 0.0101981)
(0.00130349 -0.036134 0.0102999)
(0.00193229 -0.0365514 0.0103521)
(0.00258108 -0.0364766 0.0103459)
(0.00323485 -0.0359237 0.0102762)
(0.00387673 -0.034901 0.0101405)
(0.0044856 -0.0334107 0.00993909)
(0.00503515 -0.031451 0.00967314)
(0.00550233 -0.0289901 0.00934812)
(0.00586076 -0.0259732 0.00897389)
(0.00607826 -0.0223301 0.00857961)
(0.00612681 -0.0179091 0.00822949)
(0.00598213 -0.0124193 0.00802348)
(0.00562658 -0.00537587 0.00803342)
(0.00504184 0.00380267 0.00813098)
(0.00421274 0.0152535 0.00787956)
(0.00315103 0.0275986 0.00687032)
(0.00199177 0.0370017 0.00528604)
(0.000926177 0.0381325 0.00354452)
(0.00015313 0.0226165 0.00153806)
(-2.38204e-05 0.00559428 0.00114867)
(-0.000136454 0.0106285 0.00237555)
(-0.00037793 0.0119905 0.00324697)
(-0.000681368 0.0107743 0.00419348)
(-0.00100477 0.00762138 0.00540124)
(-0.00130534 0.00290809 0.00678241)
(-0.00154778 -0.00282877 0.00806181)
(-0.00171887 -0.0090158 0.00903047)
(-0.00181072 -0.0151586 0.00965094)
(-0.00181776 -0.0209134 0.0100011)
(-0.00173594 -0.0260857 0.0101674)
(-0.00156402 -0.0305823 0.0102004)
(-0.00130391 -0.034365 0.0101285)
(-0.000960264 -0.0374264 0.0099798)
(-0.000540886 -0.0397805 0.00978714)
(-5.82823e-05 -0.041456 0.00958383)
(0.000481602 -0.0425047 0.0093967)
(0.00106974 -0.0429674 0.00924361)
(0.00168985 -0.042861 0.00913722)
(0.00232949 -0.0421917 0.0090825)
(0.00297 -0.0409542 0.00907662)
(0.00359789 -0.0391151 0.00911047)
(0.00419712 -0.0366169 0.00916642)
(0.0047393 -0.0334058 0.00921614)
(0.00519242 -0.0294115 0.00922782)
(0.00551979 -0.0245379 0.00917078)
(0.00568024 -0.0186345 0.00903187)
(0.00563014 -0.0114495 0.008833)
(0.005327 -0.00260481 0.00862174)
(0.00475027 0.00825683 0.00838961)
(0.00391206 0.0209606 0.00795355)
(0.00284494 0.0338601 0.00703418)
(0.001729 0.0429146 0.00563075)
(0.000748738 0.0428625 0.00388799)
(8.90153e-05 0.0247701 0.00164418)
(-2.62284e-05 0.0049477 0.00138955)
(-0.000112163 0.00931476 0.0031958)
(-0.000321324 0.0101651 0.00449649)
(-0.000585125 0.00835624 0.00561758)
(-0.000862175 0.00445111 0.0067096)
(-0.00111222 -0.0010527 0.0077281)
(-0.00131161 -0.0075136 0.00855234)
(-0.00144872 -0.0143163 0.00912085)
(-0.0015117 -0.0209797 0.00944229)
(-0.00149019 -0.027192 0.00954711)
(-0.0013786 -0.0327759 0.00946006)
(-0.00117848 -0.0376372 0.00921016)
(-0.000898007 -0.0417322 0.00884338)
(-0.00054918 -0.0450554 0.00841834)
(-0.000144634 -0.0476331 0.00799245)
(0.000305473 -0.0495099 0.00761125)
(0.00079131 -0.0507329 0.00730597)
(0.00130454 -0.0513382 0.00709931)
(0.00183772 -0.051348 0.00700362)
(0.0023835 -0.050767 0.00702362)
(0.00293417 -0.0495782 0.00715733)
(0.00348153 -0.0477415 0.00739476)
(0.00401363 -0.0451854 0.00771875)
(0.00451373 -0.0418064 0.00809654)
(0.00495569 -0.037472 0.00847233)
(0.00530177 -0.0320239 0.00876756)
(0.00550317 -0.0252735 0.00890264)
(0.00550563 -0.0169677 0.00884236)
(0.00526128 -0.0067499 0.00863245)
(0.00474026 0.00573301 0.00834826)
(0.00394059 0.0202786 0.00793333)
(0.0028929 0.0350219 0.00715175)
(0.00177684 0.0453647 0.00587874)
(0.000783093 0.0454838 0.00412255)
(0.000113561 0.0261052 0.00171068)
(-2.62216e-06 0.00412156 0.00147583)
(2.09716e-05 0.0076566 0.00355583)
(-4.56177e-05 0.00801106 0.00505913)
(-0.000159543 0.00581399 0.00622481)
(-0.000301039 0.00155934 0.00718908)
(-0.000442663 -0.00422224 0.00797597)
(-0.000560857 -0.0108994 0.0085568)
(-0.000636996 -0.0179088 0.00889196)
(-0.000654408 -0.024817 0.00893344)
(-0.000601138 -0.0313128 0.00864374)
(-0.00047397 -0.0371757 0.00803206)
(-0.000278576 -0.0422581 0.00717108)
(-2.64426e-05 -0.0464828 0.00617701)
(0.000270728 -0.0498414 0.00517108)
(0.000600841 -0.0523797 0.00424924)
(0.000953516 -0.0541718 0.00347286)
(0.00132266 -0.0552933 0.0028749)
(0.00170423 -0.055804 0.00247205)
(0.00209515 -0.055741 0.00227161)
(0.00249337 -0.0551152 0.00228084)
(0.00289703 -0.0539079 0.00250925)
(0.00330362 -0.0520626 0.00296723)
(0.00370909 -0.0494745 0.00366076)
(0.00410458 -0.0459791 0.00458191)
(0.00447258 -0.0413462 0.00568563)
(0.00478283 -0.0352943 0.00685817)
(0.00498867 -0.0275236 0.00790094)
(0.00502708 -0.0177584 0.00857531)
(0.00482868 -0.00579051 0.00873456)
(0.00434585 0.00840536 0.00843902)
(0.00357859 0.024254 0.00785237)
(0.00257109 0.0396264 0.00699137)
(0.00153292 0.0497503 0.00577307)
(0.000640021 0.0489592 0.00407203)
(7.30466e-05 0.0276091 0.00165903)
(-7.54097e-06 0.00298075 0.00141958)
(5.77492e-05 0.00523765 0.00352393)
(7.7083e-05 0.0048376 0.00507221)
(7.04871e-05 0.00213958 0.00623809)
(4.71517e-05 -0.00249855 0.0071253)
(2.00513e-05 -0.00859125 0.00774287)
(2.0126e-06 -0.0155619 0.00803586)
(1.1667e-05 -0.0228648 0.00791885)
(6.19138e-05 -0.0300328 0.00733114)
(0.000158926 -0.0366961 0.00629487)
(0.000302937 -0.0425929 0.00493009)
(0.000489273 -0.0475742 0.00341524)
(0.000711276 -0.0515962 0.00192503)
(0.000961506 -0.054699 0.00058496)
(0.00123268 -0.056974 -0.000540251)
(0.0015203 -0.0585296 -0.00143197)
(0.0018192 -0.0594615 -0.00210124)
(0.0021283 -0.0598429 -0.00256728)
(0.00244595 -0.0597153 -0.00283779)
(0.00276663 -0.0590961 -0.0029108)
(0.00308653 -0.0579777 -0.0027779)
(0.00340555 -0.0563092 -0.00241501)
(0.0037195 -0.0539794 -0.001775)
(0.00402187 -0.0508005 -0.000805641)
(0.00429897 -0.0464823 0.000542881)
(0.0045283 -0.0406243 0.0022704)
(0.00467514 -0.0327424 0.00424453)
(0.00468919 -0.0223535 0.00613907)
(0.00450747 -0.0091387 0.00751004)
(0.00407341 0.00680469 0.00805595)
(0.00336808 0.0245319 0.00781104)
(0.00242381 0.0414346 0.00698078)
(0.00144619 0.0522723 0.00572806)
(0.00060511 0.0512611 0.00400532)
(7.63188e-05 0.0286331 0.00159398)
(-8.0747e-06 0.00193952 0.0013341)
(7.46755e-05 0.00289027 0.00339626)
(0.000138252 0.00166754 0.00492469)
(0.000189708 -0.00155092 0.00602268)
(0.000227465 -0.00650633 0.00673531)
(0.000255406 -0.0127372 0.00703302)
(0.000280619 -0.0196947 0.00686103)
(0.000313213 -0.0268478 0.00618989)
(0.000363659 -0.0337464 0.00507082)
(0.00044045 -0.0400541 0.00364905)
(0.00054934 -0.0455559 0.00212092)
(0.000693075 -0.0501478 0.000667398)
(0.000871406 -0.0538168 -0.000593589)
(0.00108143 -0.0566142 -0.00161658)
(0.00131574 -0.0586229 -0.00240816)
(0.00157223 -0.0599626 -0.00300885)
(0.0018506 -0.0607323 -0.00346539)
(0.0021459 -0.0609812 -0.00380235)
(0.00245073 -0.0607351 -0.00402927)
(0.00275901 -0.0600048 -0.00414808)
(0.00306533 -0.0587882 -0.00415323)
(0.00336093 -0.0570626 -0.00402889)
(0.00364241 -0.054714 -0.00372969)
(0.00390776 -0.0515105 -0.00317493)
(0.00413929 -0.0471589 -0.00226398)
(0.00431434 -0.0412319 -0.000889291)
(0.00440414 -0.0331705 0.00098556)
(0.00436845 -0.022365 0.00319107)
(0.00415524 -0.00838386 0.00527164)
(0.00371468 0.00861663 0.00666047)
(0.00302996 0.0273771 0.00706005)
(0.00213474 0.0448649 0.00656266)
(0.00124229 0.0555186 0.00544555)
(0.000499487 0.0537633 0.00378977)
(5.29504e-05 0.0296398 0.0014642)
(2.50213e-06 0.000906536 0.00112433)
(0.000133418 0.000536575 0.0029363)
(0.000268289 -0.00152685 0.00428259)
(0.00039159 -0.00526586 0.00518311)
(0.000491873 -0.010478 0.00563392)
(0.00056371 -0.01675 0.0056127)
(0.000612473 -0.0235905 0.00512182)
(0.000650703 -0.03053 0.00422324)
(0.000693344 -0.0371787 0.00305078)
(0.000753884 -0.0432489 0.00177952)
(0.000842031 -0.0485541 0.000570655)
(0.000962879 -0.0529982 -0.000471671)
(0.00111749 -0.0565626 -0.00131062)
(0.00130387 -0.0592885 -0.00195902)
(0.00151555 -0.0612539 -0.00245329)
(0.00175218 -0.0625835 -0.00283896)
(0.00201124 -0.0633569 -0.00314761)
(0.00228388 -0.0636031 -0.00339256)
(0.00256454 -0.0633412 -0.00358195)
(0.00284777 -0.0625815 -0.00371805)
(0.00312805 -0.0613243 -0.00379661)
(0.00339462 -0.0595541 -0.00380589)
(0.00364085 -0.0571729 -0.00371877)
(0.00386232 -0.0539519 -0.00347571)
(0.00404582 -0.0495694 -0.00297988)
(0.00417257 -0.0435754 -0.0020958)
(0.00421665 -0.0353525 -0.000684154)
(0.00414439 -0.0241846 0.00127038)
(0.00391508 -0.00951032 0.00347297)
(0.00348704 0.00854828 0.00530597)
(0.00283964 0.0285149 0.00620156)
(0.00199716 0.0469224 0.00603182)
(0.00116608 0.0577895 0.00507195)
(0.000477112 0.0556411 0.00351123)
(5.70374e-05 0.0304261 0.00131941)
(1.65532e-05 -0.000219015 0.000881387)
(0.000213761 -0.00191321 0.0023316)
(0.000456932 -0.00466885 0.0034076)
(0.000710071 -0.00865577 0.00408713)
(0.000941092 -0.0137722 0.00435535)
(0.00113424 -0.0197218 0.00421956)
(0.00129015 -0.0261264 0.00372824)
(0.00141893 -0.0326103 0.00297598)
(0.0015336 -0.0388487 0.00208604)
(0.00164574 -0.0445875 0.00117662)
(0.00176365 -0.0496476 0.000332503)
(0.00189254 -0.053924 -0.000403271)
(0.0020357 -0.0573829 -0.00102081)
(0.00219533 -0.0600497 -0.0015297)
(0.00237014 -0.0619841 -0.00194741)
(0.00255918 -0.0632853 -0.00229515)
(0.00276119 -0.064018 -0.00257855)
(0.00296827 -0.0642092 -0.00280479)
(0.00317626 -0.0638761 -0.00297962)
(0.00338164 -0.0630276 -0.00310708)
(0.00358002 -0.0616633 -0.0031884)
(0.00376093 -0.0597616 -0.00321962)
(0.00391941 -0.057208 -0.00319127)
(0.00404806 -0.0537789 -0.00306934)
(0.0041352 -0.0491753 -0.00279211)
(0.00416875 -0.042945 -0.00225539)
(0.00412863 -0.0344661 -0.00131365)
(0.00398591 -0.0229915 0.000155664)
(0.003707 -0.00790426 0.00207165)
(0.0032596 0.0106981 0.00397529)
(0.00262764 0.0312175 0.00520084)
(0.00182952 0.0498919 0.0053662)
(0.00106366 0.0604602 0.00461927)
(0.000436297 0.0576857 0.00320436)
(4.96501e-05 0.0312838 0.0011797)
(1.17571e-05 -0.00140557 0.000691194)
(0.000209117 -0.00462742 0.00181544)
(0.000485376 -0.0082629 0.00264648)
(0.000800579 -0.0126418 0.00316328)
(0.00111494 -0.01779 0.00336237)
(0.00140575 -0.0235409 0.00326247)
(0.00166536 -0.0296297 0.0029046)
(0.00189499 -0.0357629 0.00234507)
(0.00209911 -0.0416631 0.00164533)
(0.00228257 -0.0470961 0.000865912)
(0.00245003 -0.0518896 6.4998e-05)
(0.00260653 -0.055943 -0.000704088)
(0.00275762 -0.0592272 -0.00139986)
(0.00290841 -0.0617685 -0.00199889)
(0.00306203 -0.0636213 -0.00249528)
(0.00321735 -0.0648434 -0.0028944)
(0.00337524 -0.0654952 -0.00320058)
(0.00353286 -0.0656112 -0.00342263)
(0.00368604 -0.0652072 -0.00356758)
(0.00383182 -0.0642906 -0.00364219)
(0.00396529 -0.0628595 -0.00365189)
(0.00407969 -0.0608651 -0.00359374)
(0.00417012 -0.0581822 -0.00345982)
(0.00422622 -0.0546234 -0.00322625)
(0.00423909 -0.0498816 -0.00285126)
(0.00419819 -0.0434836 -0.00226956)
(0.00408918 -0.0347701 -0.00139275)
(0.00389202 -0.0229479 -0.000136474)
(0.00358074 -0.0073619 0.00148015)
(0.00312791 0.0118791 0.00317595)
(0.00251631 0.0330601 0.00441243)
(0.00175598 0.0521732 0.00473901)
(0.00103314 0.0626897 0.00416412)
(0.000436475 0.0595144 0.00290642)
(5.36786e-05 0.0321176 0.00106089)
(2.59064e-06 -0.00232756 0.000605008)
(0.000153204 -0.00688934 0.00155296)
(0.000391596 -0.0113616 0.00224547)
(0.000686248 -0.0161394 0.00267481)
(0.00100292 -0.0213449 0.00283446)
(0.0013185 -0.0269135 0.00271942)
(0.00161954 -0.0326662 0.0023322)
(0.00189871 -0.0383708 0.00169516)
(0.00215222 -0.0437936 0.000862859)
(0.00237914 -0.0487388 -7.75508e-05)
(0.00258172 -0.0530719 -0.00102439)
(0.00276507 -0.0567246 -0.00188952)
(0.00293506 -0.0596838 -0.00261919)
(0.00309684 -0.0619721 -0.00319713)
(0.00325405 -0.0636267 -0.00363372)
(0.0034083 -0.064691 -0.0039524)
(0.003561 -0.0652094 -0.00418001)
(0.00371149 -0.0652038 -0.0043359)
(0.0038562 -0.064681 -0.00443468)
(0.00399188 -0.063642 -0.00448585)
(0.00411319 -0.0620817 -0.0044932)
(0.00421463 -0.0599445 -0.00444844)
(0.00428889 -0.0570961 -0.00432927)
(0.00432405 -0.0533452 -0.00410166)
(0.00430626 -0.0483983 -0.00371182)
(0.00422139 -0.0418073 -0.00308288)
(0.00405717 -0.0329267 -0.00212709)
(0.00380295 -0.0209398 -0.000788711)
(0.00344803 -0.00512582 0.000870396)
(0.00298004 0.0144306 0.00257028)
(0.00238496 0.0359109 0.00383558)
(0.00166232 0.0550892 0.00425181)
(0.000984367 0.0652653 0.00379735)
(0.00042141 0.0615443 0.00267541)
(5.02472e-05 0.03304 0.000978526)
(-1.14608e-05 -0.00294748 0.000564487)
(5.61567e-05 -0.00861014 0.00142956)
(0.000186094 -0.0139237 0.00203132)
(0.000370037 -0.0192589 0.00234699)
(0.000589505 -0.024763 0.00234551)
(0.000827483 -0.030408 0.00200528)
(0.00107011 -0.0360503 0.00134299)
(0.00130698 -0.0414983 0.000434912)
(0.0015316 -0.046572 -0.000590279)
(0.00174179 -0.051137 -0.00158857)
(0.00193903 -0.0551142 -0.00244553)
(0.00212651 -0.0584704 -0.00310305)
(0.00230743 -0.0612037 -0.00355812)
(0.00248495 -0.0633269 -0.0038433)
(0.00266114 -0.06486 -0.00400547)
(0.00283703 -0.0658314 -0.00408951)
(0.00301422 -0.0662705 -0.00413096)
(0.00319283 -0.066186 -0.00415333)
(0.00337062 -0.0655754 -0.004173)
(0.00354591 -0.064433 -0.00419756)
(0.00371361 -0.0627487 -0.00422635)
(0.00386774 -0.0604561 -0.00424625)
(0.00400092 -0.0574015 -0.00423341)
(0.00409724 -0.0533781 -0.00414959)
(0.00413683 -0.0480961 -0.00393231)
(0.00409735 -0.0411427 -0.0034858)
(0.0039582 -0.031931 -0.00268878)
(0.00370675 -0.019683 -0.00144486)
(0.00334217 -0.00364432 0.000204676)
(0.00287084 0.0161935 0.00196225)
(0.00229282 0.0380268 0.00332259)
(0.00160351 0.0574585 0.00385432)
(0.000959097 0.0675522 0.00351656)
(0.000416223 0.0634702 0.00251125)
(4.97101e-05 0.0339583 0.000922983)
(-2.79649e-06 -0.0032797 0.00049196)
(5.64154e-05 -0.00957601 0.00124908)
(0.000154367 -0.0154375 0.0017)
(0.000290772 -0.0211688 0.0017808)
(0.00045622 -0.0268761 0.00146023)
(0.00063935 -0.0325249 0.000769466)
(0.000829818 -0.0380029 -0.000181943)
(0.00102033 -0.0431815 -0.00122652)
(0.00120736 -0.0479537 -0.00219137)
(0.00139028 -0.0522459 -0.00295239)
(0.00156921 -0.0560116 -0.00346032)
(0.00174391 -0.0592229 -0.00373232)
(0.00191414 -0.0618633 -0.0038241)
(0.0020799 -0.0639286 -0.00380236)
(0.00224112 -0.065424 -0.00372646)
(0.00239864 -0.0663697 -0.00363892)
(0.00255482 -0.0667852 -0.00356405)
(0.00271092 -0.066672 -0.00351651)
(0.0028678 -0.0660233 -0.00350465)
(0.00302685 -0.0648277 -0.00352996)
(0.00318471 -0.0630657 -0.00358794)
(0.00333949 -0.060647 -0.00366936)
(0.0034864 -0.0573867 -0.00375526)
(0.00361199 -0.0530527 -0.00381452)
(0.00369652 -0.0473343 -0.00378963)
(0.00371226 -0.0398407 -0.00358009)
(0.00362821 -0.0300658 -0.00303802)
(0.00341956 -0.0173485 -0.00200987)
(0.00307875 -0.00101752 -0.000465183)
(0.00262198 0.0189582 0.00133016)
(0.00207016 0.0408492 0.00282397)
(0.00142846 0.0602158 0.00350715)
(0.000842465 0.0699892 0.00329228)
(0.00035492 0.0654134 0.00238891)
(3.46846e-05 0.0348205 0.00088086)
(1.10879e-05 -0.00373306 0.000318077)
(0.0001211 -0.0106274 0.00078845)
(0.000276889 -0.0169136 0.000931636)
(0.000465905 -0.0229128 0.000680782)
(0.000673334 -0.0287275 6.84211e-05)
(0.000889146 -0.0343472 -0.000781559)
(0.00110703 -0.0397132 -0.00169108)
(0.00132361 -0.0447568 -0.00248727)
(0.00153699 -0.0494142 -0.00305628)
(0.00174496 -0.0536264 -0.00336522)
(0.00194408 -0.0573372 -0.0034487)
(0.00213007 -0.0604996 -0.00337661)
(0.00229907 -0.0630859 -0.00322264)
(0.00244902 -0.0650918 -0.00304525)
(0.00257994 -0.0665305 -0.00288266)
(0.00269308 -0.0674238 -0.00275554)
(0.0027918 -0.0677939 -0.00266851)
(0.00287932 -0.067646 -0.00262239)
(0.00295896 -0.0669751 -0.00261731)
(0.00303462 -0.0657684 -0.00265138)
(0.00310784 -0.0639876 -0.00271972)
(0.00318204 -0.0615237 -0.00282033)
(0.00325639 -0.0581851 -0.00294352)
(0.00332715 -0.0536935 -0.0030735)
(0.00338256 -0.0476797 -0.00317485)
(0.00339881 -0.0397176 -0.00316879)
(0.00334143 -0.029334 -0.00291145)
(0.00317438 -0.0159852 -0.00221125)
(0.00287526 0.000845061 -0.000943648)
(0.0024502 0.0211113 0.000736449)
(0.0019261 0.0431289 0.00230339)
(0.00132136 0.0624793 0.00315588)
(0.000778133 0.0720107 0.00309064)
(0.000328531 0.0670313 0.00229813)
(3.375e-05 0.0355129 0.00085993)
(2.34179e-05 -0.0043629 8.05603e-05)
(0.000198113 -0.0119553 0.000142128)
(0.000455101 -0.0185855 -4.05117e-05)
(0.000761255 -0.0246919 -0.000486743)
(0.0010874 -0.0304587 -0.00110984)
(0.00141724 -0.0359473 -0.0017691)
(0.00174203 -0.0411562 -0.00232768)
(0.00205598 -0.0460494 -0.00269876)
(0.00235346 -0.0505667 -0.00286338)
(0.00262829 -0.054633 -0.00285857)
(0.00287425 -0.0581749 -0.00274851)
(0.00308646 -0.0611419 -0.00259565)
(0.00326261 -0.0635181 -0.00244412)
(0.00340286 -0.0653173 -0.00231728)
(0.00350904 -0.066568 -0.00222379)
(0.00358357 -0.0672989 -0.00216457)
(0.00362968 -0.0675337 -0.00213538)
(0.00365049 -0.0672804 -0.00213156)
(0.00364927 -0.0665362 -0.00215134)
(0.00363037 -0.0652887 -0.00219406)
(0.00359791 -0.0634907 -0.00225856)
(0.0035568 -0.0610264 -0.00234415)
(0.00351118 -0.0577034 -0.00244802)
(0.00346411 -0.0532088 -0.00256529)
(0.00341377 -0.0471078 -0.00268085)
(0.00334816 -0.0388993 -0.00274651)
(0.00324115 -0.028082 -0.00264757)
(0.00305671 -0.0141839 -0.00219406)
(0.00276331 0.00314412 -0.00120474)
(0.00235394 0.0236926 0.000280213)
(0.0018487 0.0457373 0.00182722)
(0.00126857 0.0648901 0.00280339)
(0.000753648 0.0740373 0.00288262)
(0.000325964 0.0686026 0.00220836)
(3.68862e-05 0.036183 0.000845364)
(1.82115e-05 -0.00509625 -0.000113926)
(0.000195455 -0.0136511 -0.000391051)
(0.000486604 -0.0208337 -0.000768455)
(0.000849795 -0.0272004 -0.00122162)
(0.0012476 -0.0330398 -0.00166821)
(0.001656 -0.0384895 -0.00202135)
(0.00205898 -0.0435896 -0.00222799)
(0.00244432 -0.0483158 -0.00228359)
(0.00280192 -0.0526046 -0.00222337)
(0.00312383 -0.0563821 -0.00209997)
(0.00340525 -0.0595926 -0.00196104)
(0.00364484 -0.0622147 -0.00183736)
(0.00384387 -0.0642596 -0.00174258)
(0.00400465 -0.0657566 -0.00167915)
(0.00412936 -0.0667387 -0.00164422)
(0.00421954 -0.0672339 -0.00163342)
(0.00427673 -0.0672627 -0.00164196)
(0.00430206 -0.0668316 -0.00166604)
(0.00429658 -0.0659388 -0.00170461)
(0.00426226 -0.064572 -0.00175742)
(0.00420173 -0.0626847 -0.00182507)
(0.00411772 -0.0601678 -0.00190681)
(0.00401401 -0.056833 -0.00200294)
(0.00389419 -0.0523568 -0.00211414)
(0.00376028 -0.0462639 -0.00223814)
(0.00360939 -0.0379797 -0.00235223)
(0.00342771 -0.0269345 -0.0023753)
(0.00318867 -0.0126632 -0.00213503)
(0.00286301 0.00506867 -0.00141559)
(0.00243723 0.0258985 -0.000156363)
(0.00192222 0.0480303 0.00131927)
(0.001334 0.0670751 0.00238712)
(0.000811382 0.0759552 0.00260888)
(0.000367388 0.0701703 0.00206709)
(4.71367e-05 0.0369217 0.000806743)
(1.36092e-05 -0.00566528 -0.000212892)
(0.000163408 -0.0151091 -0.000645864)
(0.000433298 -0.0228745 -0.00104613)
(0.000783646 -0.0295596 -0.00137505)
(0.00117869 -0.0355195 -0.00159077)
(0.00159292 -0.0409453 -0.00167544)
(0.00200732 -0.0459086 -0.0016443)
(0.00240704 -0.0504045 -0.0015371)
(0.00278095 -0.0543922 -0.00140011)
(0.00312197 -0.0578306 -0.00127006)
(0.00342701 -0.0606994 -0.00116752)
(0.00369597 -0.0630025 -0.00109919)
(0.00393015 -0.0647601 -0.00106377)
(0.00413101 -0.0659988 -0.00105677)
(0.00429945 -0.0667444 -0.00107325)
(0.00443563 -0.0670188 -0.00110888)
(0.00453999 -0.0668373 -0.00115927)
(0.00461228 -0.066205 -0.00121999)
(0.00465189 -0.0651214 -0.00128951)
(0.0046584 -0.0635742 -0.00136663)
(0.00463214 -0.0615172 -0.00145203)
(0.00457259 -0.0588464 -0.00154438)
(0.00448 -0.0553775 -0.00164383)
(0.00435431 -0.0507893 -0.00175233)
(0.00419461 -0.0445952 -0.00187412)
(0.00399823 -0.0361799 -0.00200666)
(0.00375718 -0.0249151 -0.00210714)
(0.0034545 -0.0103194 -0.00204075)
(0.00307011 0.00775512 -0.00158299)
(0.00259507 0.0287958 -0.000585794)
(0.00203961 0.0509199 0.000752463)
(0.0014172 0.0697384 0.00185491)
(0.000868838 0.0782709 0.00219791)
(0.000399106 0.0720685 0.00179932)
(4.82968e-05 0.0378455 0.000698192)
(9.26314e-06 -0.00609761 -0.000206841)
(0.000121149 -0.0163148 -0.000600905)
(0.000335592 -0.0246707 -0.00088718)
(0.000624836 -0.0317579 -0.00104009)
(0.000962852 -0.0379562 -0.00106574)
(0.00132971 -0.043482 -0.000998032)
(0.00170908 -0.0484278 -0.000884166)
(0.00208716 -0.0528111 -0.000767216)
(0.00245291 -0.0566198 -0.000674712)
(0.00279844 -0.0598422 -0.000617081)
(0.00311884 -0.0624805 -0.000593027)
(0.00341155 -0.0645499 -0.000596236)
(0.00367546 -0.0660744 -0.000619937)
(0.00391029 -0.0670806 -0.000658935)
(0.00411607 -0.067594 -0.000710059)
(0.00429277 -0.0676362 -0.000771992)
(0.00444074 -0.0672229 -0.000843973)
(0.00456031 -0.0663611 -0.000923639)
(0.00465087 -0.0650509 -0.00101022)
(0.00471186 -0.0632758 -0.00110368)
(0.00474244 -0.0609861 -0.00120381)
(0.0047404 -0.0580834 -0.00130898)
(0.00470302 -0.0543808 -0.0014176)
(0.00462553 -0.049554 -0.00152977)
(0.00450036 -0.0431101 -0.00165)
(0.00431726 -0.034415 -0.00178579)
(0.00406334 -0.0228087 -0.00192573)
(0.003723 -0.00780246 -0.00198344)
(0.00328353 0.0106764 -0.00175665)
(0.00274683 0.0319791 -0.00103771)
(0.00213363 0.0541251 0.000102701)
(0.0014647 0.07271 0.00117278)
(0.000887055 0.0808791 0.00160362)
(0.000400102 0.0742059 0.00135748)
(3.95827e-05 0.038876 0.000495625)
(1.15389e-05 -0.00641985 -0.000122886)
(0.000109702 -0.0171918 -0.000344427)
(0.000288119 -0.0259976 -0.00045418)
(0.000530072 -0.0334331 -0.000456651)
(0.000819663 -0.0398814 -0.000392527)
(0.00114362 -0.0455624 -0.000310947)
(0.00148872 -0.0505742 -0.000248558)
(0.00184165 -0.0549456 -0.000221305)
(0.00219018 -0.0586797 -0.000227698)
(0.00252444 -0.0617801 -0.000257359)
(0.00283751 -0.0642622 -0.00029879)
(0.00312523 -0.0661524 -0.000343653)
(0.00338559 -0.0674832 -0.000387844)
(0.00361807 -0.0682879 -0.000430829)
(0.00382304 -0.0685964 -0.000474417)
(0.00400133 -0.0684334 -0.000521625)
(0.00415407 -0.0678159 -0.000575882)
(0.00428239 -0.0667525 -0.000639554)
(0.00438708 -0.0652398 -0.000714045)
(0.00446884 -0.0632576 -0.00080069)
(0.00452735 -0.0607531 -0.000898447)
(0.00456119 -0.0576177 -0.00100528)
(0.00456695 -0.053649 -0.00111864)
(0.00453772 -0.0485025 -0.00123731)
(0.00446149 -0.041663 -0.00136516)
(0.00432038 -0.032475 -0.00151457)
(0.00409166 -0.0202683 -0.00169562)
(0.00375146 -0.00459144 -0.00186578)
(0.00328601 0.0144933 -0.00186039)
(0.00270636 0.0361415 -0.00144398)
(0.00205096 0.058237 -0.000575914)
(0.00136214 0.0763632 0.00036535)
(0.00078987 0.0839335 0.000824587)
(0.000332394 0.0765474 0.000731514)
(1.68967e-05 0.0398965 0.000201208)
(1.27265e-05 -0.00679115 7.85661e-06)
(0.000111724 -0.018099 4.85441e-06)
(0.000277862 -0.0273351 3.74327e-05)
(0.000502037 -0.0351409 8.39238e-05)
(0.000773145 -0.0419003 0.000111264)
(0.00108006 -0.0478175 0.000101605)
(0.00140948 -0.0529756 5.7512e-05)
(0.00174686 -0.0573972 -5.77175e-06)
(0.00207877 -0.0610913 -7.09278e-05)
(0.00239472 -0.0640787 -0.00012565)
(0.00268773 -0.066397 -0.00016475)
(0.0029538 -0.0680942 -0.000188886)
(0.00319112 -0.0692195 -0.000202167)