/*--------------------------------*- C++ -*----------------------------------*\
| =========                 |                                                 |
| \\      /  F ield         | OpenFOAM: The Open Source CFD Toolbox           |
|  \\    /   O peration     | Version:  v1906                                 |
|   \\  /    A nd           | Web:      www.OpenFOAM.com                      |
|    \\/     M anipulation  |                                                 |
\*---------------------------------------------------------------------------*/
FoamFile
{
    version     2.0;
    format      ascii;
    class       volScalarField;
    location    "9.2/sphere";
    object      T;
}
// * * * * * * * * * * * * * * * * * * * * * * * * * * * * * * * * * * * * * //

dimensions      [0 0 0 1 0 0 0];


internalField   nonuniform List<scalar> 
304
(
494.012
494.05
494.049
494.07
494.016
494.015
494.011
494.051
494.009
494.196
494.196
494.062
494.048
494.196
494.196
494.103
494.062
494.103
494.011
494.05
494.071
494.013
494.052
494.197
494.196
494.103
494.072
494.196
494.196
494.137
494.013
494.103
494.137
494.056
494.015
494.065
494.103
494.012
494.02
494.105
494.137
494.054
494.012
494.056
493.997
493.995
494.015
494.016
494.012
494.057
494.015
494.016
494.057
494.012
493.995
494.015
494.011
494.015
494.056
494.051
494.05
494.07
494.064
494.105
494.104
494.137
494.011
494.071
494.05
494.104
494.063
494.137
494.104
494.014
494.011
494.056
494.015
494.012
494.012
494.054
494.009
494.069
494.007
494.048
494.102
494.136
494.06
494.102
494.051
494.05
494.011
494.137
494.104
494.103
494.062
494.056
494.014
494.01
493.994
494.013
494.009
494.055
494.013
494.055
494.011
494.013
493.993
494.011
494.013
494.014
494.056
494.051
494.063
494.105
494.05
494.071
494.104
494.138
494.013
494.105
494.064
494.071
494.051
494.138
494.104
494.012
494.015
494.056
494.016
494.063
494.05
494.103
494.05
494.104
494.071
494.137
494.009
494.103
494.051
494.104
494.051
494.137
494.071
494.102
494.009
494.062
494.071
494.137
494.049
494.103
494.05
494.063
494.01
494.137
494.07
494.103
494.05
494.012
494.013
494.056
494.013
494.103
494.01
494.05
494.103
494.137
494.049
494.07
494.062
494.05
494.009
494.137
494.103
494.07
494.05
494.054
494.012
494.012
494.013
494.015
494.056
494.015
494.071
494.104
494.138
494.011
494.05
494.065
494.104
494.05
494.137
494.103
494.05
494.008
494.103
494.061
494.055
494.014
494.009
494.105
494.072
494.138
494.015
494.067
494.053
494.105
494.05
494.137
494.071
494.063
494.012
494.103
494.051
494.138
494.05
494.103
494.053
494.106
494.013
494.065
494.071
494.104
494.05
494.103
494.05
494.063
494.01
494.055
494.013
494.012
494.137
494.05
494.071
494.063
494.104
494.011
494.051
494.104
494.071
494.051
494.104
494.065
494.051
494.014
494.014
494.014
494.013
493.999
494.013
494.013
494.056
494.014
494.055
494.01
494.013
493.994
494.015
494.017
494.058
494.017
494.104
494.105
494.138
494.015
494.051
494.052
494.071
494.062
494.137
494.103
494.05
494.009
494.071
494.05
494.056
494.015
494.013
494.059
494.014
494.015
494.137
494.064
494.104
494.051
494.071
494.01
494.05
494.103
494.104
494.063
494.07
494.049
494.05
494.01
494.013
494.011
494.012
493.998
494.056
494.014
494.014
494.013
494.015
494.014
)
;

boundaryField
{
    sphere_to_oil
    {
        type            compressible::turbulentTemperatureCoupledBaffleMixed;
        refValue        nonuniform List<scalar> 
360
(
319.077
319.077
305.398
338.52
341.73
306.564
342.784
342.784
342.784
319.057
319.057
306.569
307.266
304.838
317.392
342.511
339.238
339.238
339.238
304.93
336.242
317.61
313.356
340.848
305.425
342.244
306.549
341.83
341.83
341.83
343.381
340.985
305.392
305.348
306.498
306.574
338.956
338.956
338.956
338.327
341.788
305.594
306.61
318.981
318.981
306.506
307.186
304.599
318.067
342.551
306.683
306.574
307.132
307.246
304.77
317.441
339.978
304.864
306.558
306.936
304.802
342.286
342.286
342.286
304.595
341.423
317.857
311.553
342.619
342.619
342.619
341.618
340.886
304.733
335.986
316.769
304.835
312.522
341.525
339.854
313.698
311.083
313.275
304.811
305.4
306.528
306.686
307.209
304.742
304.983
305.42
307.206
306.653
305.407
307.147
306.607
306.654
306.548
305.541
304.844
304.89
304.701
306.57
306.667
307.216
304.67
304.955
307.279
305.573
306.633
306.681
306.587
305.556
304.843
304.831
304.801
312.079
311.482
312.27
319.219
319.219
338.52
338.52
340.848
340.848
339.806
339.806
339.806
340.651
340.651
340.651
312.206
311.36
312.002
304.921
341.73
341.73
318.616
318.616
343.381
343.381
316.992
316.992
343.016
343.016
343.016
304.898
304.97
342.966
342.966
342.966
344.047
344.047
344.047
342.511
336.242
317.392
342.511
341.127
304.786
341.127
341.127
313.344
313.221
311.597
317.28
317.28
343.229
343.229
343.229
304.612
336.242
317.61
342.835
342.835
304.652
342.835
313.679
311.499
304.666
306.51
306.597
307.301
305.381
307.184
306.623
304.632
304.899
342.244
342.244
340.985
340.985
318.917
318.917
338.798
338.798
338.798
318.377
318.377
304.85
306.477
306.628
307.287
306.578
306.549
307.294
305.522
307.259
306.558
305.504
338.327
307.286
306.655
304.909
341.774
341.774
341.774
318.051
318.051
304.623
306.672
306.672
306.905
341.788
305.449
306.866
306.616
338.327
341.788
317.863
304.8
317.863
304.762
304.827
307.162
305.415
306.603
306.576
306.655
305.371
304.717
342.802
336.925
342.802
342.802
336.925
336.925
342.551
341.423
318.067
340.287
304.898
342.551
340.287
340.287
307.035
305.409
306.71
307.192
305.455
341.618
306.512
306.591
306.686
305.521
339.978
335.986
306.579
306.616
305.528
338.169
341.492
317.441
341.995
304.837
339.978
341.995
341.995
307.041
305.504
341.525
306.626
306.53
306.562
341.78
305.5
341.107
318.057
338.169
318.057
341.78
338.169
341.78
304.606
311.149
311.26
311.509
318.647
339.06
318.647
339.06
339.06
304.8
341.423
340.445
317.857
340.445
304.872
340.445
312.058
312.001
304.618
339.85
317.319
339.85
339.85
317.319
304.764
306.529
306.608
307.26
340.886
341.618
317.655
304.842
340.886
317.655
304.735
335.986
342.26
316.769
342.26
304.584
342.26
307.283
339.854
305.58
306.596
341.075
338.889
341.492
317.539
341.492
341.075
317.539
341.075
311.011
313.35
341.525
318.046
304.682
339.854
318.046
304.983
341.107
338.889
341.107
318.491
338.889
318.491
)
;
        refGradient     uniform 0;
        valueFraction   nonuniform List<scalar> 
360
(
0.000128801
0.000123567
7.91088e-05
0.000282618
0.000289851
0.000166196
0.000291653
0.000250343
0.000389681
0.000124065
0.000120961
0.00016227
0.000247306
7.07105e-05
0.000126492
0.000245892
0.000281787
0.000263287
0.000369459
6.47037e-05
0.000242576
0.00011925
0.000109909
0.000291668
8.46796e-05
0.000299801
0.000168985
0.000295929
0.000387288
0.000259062
0.00029598
0.000298529
8.01586e-05
7.92632e-05
0.000166335
0.000163689
0.000276992
0.000375523
0.00025786
0.000387725
0.000382991
8.17757e-05
0.000162201
0.000118383
0.000118241
0.000166973
0.000249808
6.66483e-05
0.000119256
0.000252884
0.000164717
0.000165787
0.000247121
0.00024472
6.91395e-05
0.000126483
0.000257936
6.62338e-05
0.000164082
0.000244682
6.48311e-05
0.000288065
0.000254289
0.000398002
6.68387e-05
0.000260001
0.000121277
0.000117301
0.000294721
0.000384483
0.000258623
0.000370765
0.000375955
7.17979e-05
0.000250663
0.00012716
6.6196e-05
0.000118702
0.000375154
0.000389718
0.000116424
0.000114227
0.000112195
6.66777e-05
8.04073e-05
0.000163014
0.000163926
0.000248249
7.49374e-05
6.32732e-05
7.95775e-05
0.000247845
0.000163617
8.12891e-05
0.000247436
0.000165485
0.000164505
0.000164758
8.03445e-05
6.44005e-05
6.53039e-05
6.44349e-05
0.000165648
0.00016281
0.000247658
7.29146e-05
6.33337e-05
0.000247478
7.862e-05
0.000163065
0.000163097
0.000166423
8.138e-05
6.51648e-05
6.35527e-05
6.47806e-05
0.000112763
0.000112898
0.000117285
0.000127176
0.000119527
0.000246978
0.000389082
0.000260209
0.00039266
0.000251688
0.000386963
0.000288112
0.000251891
0.00037854
0.000283742
0.000115733
0.000109448
0.000112102
6.18831e-05
0.000256657
0.00038644
0.000119557
0.000120103
0.000390533
0.000259649
0.00012533
0.000132092
0.000385726
0.000264969
0.000305327
6.81062e-05
6.33799e-05
0.000267522
0.000370724
0.000293851
0.000275447
0.000383559
0.000293819
0.00030336
0.000279432
0.000130708
0.000389613
0.000251662
7.01621e-05
0.000378678
0.000283372
0.00010814
0.00011393
0.00011271
0.000118901
0.00012429
0.000387666
0.000255249
0.000299613
7.18354e-05
0.000372917
0.000127866
0.000392133
0.000251023
7.01677e-05
0.000297642
0.0001091
0.000110112
6.43331e-05
0.000168624
0.000168557
0.000249239
8.31145e-05
0.000249615
0.000164243
6.36724e-05
6.18282e-05
0.000390078
0.000247844
0.000385499
0.000257009
0.00012259
0.000114645
0.000387297
0.000242048
0.000279789
0.000113322
0.000131489
6.61503e-05
0.00016566
0.00016551
0.000247285
0.000161915
0.000162748
0.000246311
8.44246e-05
0.000247156
0.000167581
8.21005e-05
0.0002782
0.000246882
0.000166577
6.63858e-05
0.000378833
0.000245584
0.000287338
0.000119705
0.000111242
6.42561e-05
0.000164372
0.000167136
0.000247812
0.00028176
7.88007e-05
0.00024546
0.00016031
0.000243844
0.000258145
0.000117178
6.58166e-05
0.000130028
6.66305e-05
6.272e-05
0.000250578
8.36243e-05
0.00016846
0.000166512
0.000164527
8.25732e-05
6.3074e-05
0.000256213
0.000240077
0.000403048
0.000300003
0.00037602
0.000270165
0.00028957
0.000296479
0.00013178
0.000254339
6.85228e-05
0.000387052
0.00037635
0.000285941
0.000249387
7.94648e-05
0.00016227
0.00024652
8.01768e-05
0.00029376
0.000162974
0.000164138
0.000162626
7.96905e-05
0.000291565
0.000273221
0.000165919
0.000161629
8.12251e-05
0.00027376
0.000301338
0.000119503
0.000270502
6.42416e-05
0.000385391
0.000373638
0.000282321
0.00024469
8.03835e-05
0.000282765
0.000162813
0.000163064
0.000163992
0.000284304
8.11366e-05
0.000290475
0.000122222
0.000250441
0.000123242
0.000255208
0.000388928
0.000381816
6.42116e-05
0.000128677
0.000127157
0.000124371
0.000113261
0.000378947
0.000123703
0.000251921
0.000296653
6.32758e-05
0.000382647
0.000382185
0.000125107
0.000271735
6.63105e-05
0.000291323
0.000110917
0.000108964
6.62558e-05
0.000374785
0.000112003
0.00024578
0.000289468
0.000120078
6.54585e-05
0.000162876
0.00016282
0.000245691
0.000281145
0.000243851
0.000117896
6.34605e-05
0.000247936
0.000130942
7.32925e-05
0.0003593
0.000385817
0.000114023
0.000245077
6.79457e-05
0.000308224
0.000247574
0.000296636
8.11457e-05
0.000163576
0.000285994
0.000277266
0.000260846
0.000116589
0.000382106
0.000381284
0.000138401
0.000254862
0.000112131
0.000113852
0.000256576
0.000127008
6.86693e-05
0.000259493
0.000122297
6.34152e-05
0.000377685
0.000382218
0.000251481
0.000122042
0.000247024
0.000126066
)
;
        value           nonuniform List<scalar> 
360
(
494.017
494.018
494.021
493.992
493.992
494.043
493.991
494
493.976
494.014
494.015
494.042
494.048
494.026
494.017
494.002
493.988
493.996
493.976
494.027
494.001
494.018
493.997
493.991
494.019
493.99
494.044
493.992
493.976
493.999
493.988
493.987
494.018
494.018
494.041
494.043
493.99
493.977
493.997
493.974
493.976
494.018
494.043
494.016
494.018
494.042
494.048
494.025
494.016
493.999
494.045
494.043
494.049
494.049
494.023
494.014
493.997
494.026
494.043
494.049
494.025
493.991
493.998
493.976
494.026
493.999
494.017
493.996
493.994
493.981
494.002
493.979
493.978
494.031
494.005
494.022
494.024
494
493.979
493.976
493.999
494
494
494.026
494.024
494.043
494.044
494.048
494.021
494.026
494.02
494.048
494.044
494.018
494.048
494.042
494.043
494.043
494.019
494.027
494.027
494.026
494.044
494.044
494.048
494.024
494.024
494.047
494.016
494.042
494.044
494.042
494.019
494.025
494.028
494.028
493.998
493.998
493.998
494.017
494.019
494.001
493.975
494
493.976
494
493.977
493.99
494.001
493.978
493.993
493.998
493.999
493.999
494.027
493.999
493.976
494.018
494.018
493.976
494
494.016
494.016
493.976
493.999
493.987
494.026
494.024
493.996
493.977
493.987
493.995
493.976
493.989
493.988
493.99
494.015
493.975
494
494.025
493.976
493.991
493.998
493.997
493.997
494.016
494.015
493.975
493.998
493.989
494.023
493.976
494.014
493.975
493.999
494.023
493.988
493.998
493.997
494.025
494.044
494.042
494.048
494.021
494.049
494.044
494.027
494.026
493.975
494
493.976
493.998
494.016
494.018
493.975
494.002
493.989
494.019
494.016
494.027
494.043
494.043
494.048
494.044
494.044
494.049
494.017
494.048
494.042
494.019
493.991
494.048
494.042
494.025
493.978
494
493.99
494.016
494.018
494.025
494.043
494.042
494.048
493.99
494.018
494.048
494.043
493.998
493.997
494.016
494.024
494.013
494.024
494.025
494.048
494.019
494.042
494.042
494.043
494.017
494.027
493.998
494.001
493.978
493.989
493.979
493.996
493.988
493.987
494.015
493.999
494.025
493.974
493.975
493.992
494.049
494.024
494.046
494.049
494.021
493.991
494.044
494.044
494.047
494.022
493.992
493.993
494.043
494.044
494.019
493.992
493.988
494.016
493.996
494.025
493.977
493.979
493.992
494.049
494.02
493.992
494.044
494.044
494.044
493.994
494.022
493.993
494.017
493.999
494.016
493.999
493.976
493.978
494.025
494
494
494.001
494.017
493.978
494.016
493.999
493.993
494.026
493.975
493.975
494.015
493.995
494.025
493.988
493.997
493.998
494.028
493.981
494.021
494.003
493.994
494.02
494.029
494.045
494.046
494.049
493.99
494.001
494.018
494.027
493.999
494.014
494.023
493.981
493.979
494.019
494.002
494.026
493.987
494.048
493.988
494.018
494.043
493.99
493.991
493.997
494.016
493.976
493.976
494.011
493.996
494.001
494.001
493.999
494.016
494.025
493.998
494.017
494.026
493.979
493.977
494
494.017
493.999
494.016
)
;
        Tnbr            T;
        thicknessLayers 0();
        kappaLayers     0();
        kappaMethod     solidThermo;
        kappa           none;
        alphaAni        none;
    }
}


// ************************************************************************* //
