/*--------------------------------*- C++ -*----------------------------------*\
| =========                 |                                                 |
| \\      /  F ield         | OpenFOAM: The Open Source CFD Toolbox           |
|  \\    /   O peration     | Version:  v1906                                 |
|   \\  /    A nd           | Web:      www.OpenFOAM.com                      |
|    \\/     M anipulation  |                                                 |
\*---------------------------------------------------------------------------*/
FoamFile
{
    version     2.0;
    format      ascii;
    class       surfaceScalarField;
    location    "92";
    object      phi;
}
// * * * * * * * * * * * * * * * * * * * * * * * * * * * * * * * * * * * * * //

dimensions      [1 0 -1 0 0 0 0];
oriented        oriented;


internalField   nonuniform List<scalar> 
228225
(
-0.000239794
-2.82932e-05
-5.26226e-06
-0.000206508
-2.94415e-05
-3.79751e-06
-0.0001735
-2.97887e-05
-3.16446e-06
-0.000139957
-3.04922e-05
-3.00994e-06
-0.000107561
-2.95626e-05
-2.83719e-06
-8.17366e-05
-2.31821e-05
-2.65783e-06
-6.13374e-05
-1.77986e-05
-2.62508e-06
-4.63294e-05
-1.25316e-05
-2.50724e-06
-3.45821e-05
-9.30058e-06
-2.47982e-06
-2.52346e-05
-6.92234e-06
-2.45194e-06
-1.73878e-05
-5.42442e-06
-2.43798e-06
-1.04907e-05
-4.47598e-06
-2.42599e-06
-4.29313e-06
-3.78345e-06
-2.41071e-06
1.31022e-06
-3.20237e-06
-2.39107e-06
6.38519e-06
-2.68531e-06
-2.37479e-06
1.10031e-05
-2.23361e-06
-2.36521e-06
1.52444e-05
-1.8641e-06
-2.35449e-06
1.91902e-05
-1.58227e-06
-2.33807e-06
2.29044e-05
-1.3732e-06
-2.31417e-06
2.64141e-05
-1.19923e-06
-2.28392e-06
2.97081e-05
-1.0177e-06
-2.25118e-06
3.27476e-05
-7.97412e-07
-2.2197e-06
3.54844e-05
-5.22234e-07
-2.19574e-06
3.78767e-05
-1.96108e-07
-2.18203e-06
3.98018e-05
2.57173e-07
-2.17371e-06
4.11339e-05
8.40587e-07
-2.17051e-06
4.18395e-05
1.4571e-06
-2.16756e-06
4.18551e-05
2.12216e-06
-2.1507e-06
4.113e-05
2.8491e-06
-2.1452e-06
3.94739e-05
3.65814e-06
-2.03416e-06
3.67506e-05
4.57962e-06
-1.89493e-06
3.28241e-05
5.66839e-06
-1.80235e-06
2.63507e-05
7.1679e-06
-7.79304e-07
1.52128e-05
1.0255e-05
6.08922e-07
1.48274e-05
8.32731e-08
-6.4733e-07
-2.67235e-05
-6.82006e-07
-3.29051e-06
-2.70895e-05
3.13346e-07
-6.37512e-06
-2.722e-05
5.35971e-07
-1.20679e-05
-2.54215e-05
6.26646e-07
-1.7672e-05
-2.45172e-05
6.17967e-07
-2.00412e-05
-2.14092e-05
6.78402e-07
-2.11769e-05
-1.74433e-05
8.16742e-07
-2.09669e-05
-1.36459e-05
8.96425e-07
-2.07036e-05
-1.04998e-05
8.90401e-07
-2.02889e-05
-8.20831e-06
7.96587e-07
-1.97781e-05
-6.65269e-06
6.33e-07
-1.91956e-05
-5.57647e-06
4.40196e-07
-1.85047e-05
-4.78928e-06
2.48659e-07
-1.7636e-05
-4.18682e-06
6.12924e-08
-1.65827e-05
-3.68876e-06
-9.49439e-08
-1.53834e-05
-3.24281e-06
-2.26671e-07
-1.40747e-05
-2.84127e-06
-3.57221e-07
-1.26925e-05
-2.4955e-06
-4.79521e-07
-1.12729e-05
-2.2055e-06
-5.82811e-07
-9.84356e-06
-1.96072e-06
-6.5493e-07
-8.39602e-06
-1.75586e-06
-6.93831e-07
-6.88771e-06
-1.57356e-06
-7.17277e-07
-5.27055e-06
-1.36159e-06
-7.65998e-07
-3.51979e-06
-1.05276e-06
-8.87185e-07
-1.57763e-06
-5.96579e-07
-1.08778e-06
5.30192e-07
6.64749e-08
-1.34034e-06
2.86119e-06
7.16202e-07
-1.60487e-06
5.22767e-06
1.57365e-06
-1.84182e-06
7.45141e-06
2.60627e-06
-2.0148e-06
9.32133e-06
3.83449e-06
-2.09203e-06
1.05668e-05
5.32575e-06
-2.05357e-06
1.07446e-05
7.25957e-06
-1.85747e-06
8.98886e-06
1.01718e-05
-1.39162e-06
4.45118e-06
1.53021e-05
-7.34584e-07
1.93266e-05
-2.16644e-07
-1.19285e-05
-1.57184e-05
8.66272e-07
-1.72813e-05
-2.25002e-05
6.52927e-07
-2.15549e-05
-2.33107e-05
2.3916e-07
-2.51476e-05
-2.14606e-05
-4.95203e-07
-2.81531e-05
-2.03649e-05
-1.26363e-06
-2.8681e-05
-1.9145e-05
-1.83938e-06
-2.73624e-05
-1.66681e-05
-2.18089e-06
-2.52766e-05
-1.34126e-05
-2.38105e-06
-2.31271e-05
-1.02073e-05
-2.48783e-06
-2.11382e-05
-7.74077e-06
-2.49829e-06
-1.93499e-05
-6.05639e-06
-2.43033e-06
-1.77623e-05
-4.90531e-06
-2.31315e-06
-1.63973e-05
-4.03057e-06
-2.18442e-06
-1.52651e-05
-3.30278e-06
-2.07435e-06
-1.43311e-05
-2.67949e-06
-1.99359e-06
-1.34999e-05
-2.17329e-06
-1.94388e-06
-1.26804e-05
-1.76678e-06
-1.92947e-06
-1.18424e-05
-1.40536e-06
-1.95444e-06
-1.09851e-05
-1.05571e-06
-2.02284e-06
-1.00827e-05
-7.23885e-07
-2.14195e-06
-9.08009e-06
-4.33611e-07
-2.31348e-06
-7.91644e-06
-1.93918e-07
-2.52161e-06
-6.54385e-06
2.42306e-08
-2.73357e-06
-5.02114e-06
3.71772e-07
-2.92497e-06
-3.28777e-06
7.75561e-07
-3.08831e-06
-1.28264e-06
1.29837e-06
-3.22601e-06
8.02034e-07
1.97355e-06
-3.33823e-06
2.95986e-06
2.83073e-06
-3.41985e-06
5.10729e-06
3.90377e-06
-3.46075e-06
7.10546e-06
5.25239e-06
-3.44653e-06
8.72106e-06
7.01573e-06
-3.35721e-06
9.47393e-06
9.57707e-06
-3.15533e-06
8.26144e-06
1.39993e-05
-2.75059e-06
4.04117e-06
2.13036e-05
-1.94899e-06
2.39317e-05
-6.75481e-07
2.22711e-06
-1.85791e-05
5.89902e-07
3.14213e-06
-2.53661e-05
1.99254e-06
3.91289e-06
-2.69135e-05
2.8643e-06
5.6473e-06
-2.61675e-05
2.97894e-06
6.16641e-06
-2.361e-05
2.71966e-06
5.12173e-06
-2.04528e-05
2.33486e-06
3.55383e-06
-1.70674e-05
1.93154e-06
2.17393e-06
-1.35526e-05
1.47258e-06
1.09729e-06
-1.00921e-05
9.1215e-07
-3.54001e-08
-6.90192e-06
2.49278e-07
-1.40713e-06
-4.35933e-06
-3.63374e-07
-2.78276e-06
-2.68263e-06
-8.8104e-07
-3.87471e-06
-1.68921e-06
-1.28311e-06
-4.6764e-06
-9.5902e-07
-1.57674e-06
-5.27474e-06
-3.27304e-07
-1.78501e-06
-5.68308e-06
1.53039e-07
-1.93988e-06
-5.82613e-06
4.32362e-07
-2.07015e-06
-5.69152e-06
6.41218e-07
-2.19048e-06
-5.26831e-06
8.26305e-07
-2.31001e-06
-4.57374e-06
1.01711e-06
-2.43519e-06
-3.6751e-06
1.24168e-06
-2.569e-06
-2.67338e-06
1.52699e-06
-2.71366e-06
-1.65429e-06
1.88696e-06
-2.86895e-06
-5.63267e-07
2.32711e-06
-3.03044e-06
5.62807e-07
2.8582e-06
-3.19089e-06
1.71906e-06
3.50308e-06
-3.34241e-06
2.89075e-06
4.29765e-06
-3.47764e-06
4.03626e-06
5.29115e-06
-3.58943e-06
5.07042e-06
6.55229e-06
-3.66948e-06
5.84675e-06
8.18983e-06
-3.70636e-06
6.13262e-06
1.04095e-05
-3.68252e-06
5.59692e-06
1.36551e-05
-3.56456e-06
3.98161e-06
1.88152e-05
-3.25402e-06
1.7743e-06
2.5866e-05
-2.41502e-06
2.64529e-05
-8.06575e-07
1.60547e-06
-2.1715e-05
1.58158e-06
2.63829e-06
-2.93163e-05
2.9965e-06
2.83403e-06
-3.01275e-05
3.10633e-06
2.35156e-06
-2.81786e-05
2.59707e-06
9.59774e-07
-2.39657e-05
1.87406e-06
-9.51265e-07
-1.95389e-05
1.12479e-06
-2.36643e-06
-1.60966e-05
5.50337e-07
-2.7838e-06
-1.32581e-05
2.0004e-07
-2.27595e-06
-1.05983e-05
4.24465e-08
-1.28997e-06
-7.89735e-06
2.09509e-08
-3.59795e-07
-5.29643e-06
-6.00315e-09
2.04855e-07
-3.17559e-06
-9.68066e-08
4.43459e-07
-1.69753e-06
-2.54139e-07
5.52884e-07
-6.48927e-07
-4.39031e-07
7.08452e-07
1.35844e-07
-6.3475e-07
7.94064e-07
8.89989e-07
-8.33849e-07
7.68182e-07
1.48263e-06
-1.03013e-06
6.70758e-07
1.95955e-06
-1.22102e-06
5.60739e-07
2.34785e-06
-1.40644e-06
4.88975e-07
2.68579e-06
-1.58684e-06
4.99507e-07
3.00656e-06
-1.76164e-06
6.32963e-07
3.34343e-06
-1.93332e-06
9.20179e-07
3.72556e-06
-2.10641e-06
1.37175e-06
4.1798e-06
-2.28206e-06
1.97479e-06
4.73789e-06
-2.45784e-06
2.70422e-06
5.43094e-06
-2.63007e-06
3.53408e-06
6.29365e-06
-2.79676e-06
4.43256e-06
7.37809e-06
-2.95504e-06
5.35141e-06
8.76382e-06
-3.09994e-06
6.20347e-06
1.05889e-05
-3.22313e-06
6.7993e-06
1.3141e-05
-3.30731e-06
6.66968e-06
1.70934e-05
-3.30834e-06
4.91899e-06
2.36375e-05
-3.10483e-06
2.15096e-06
3.09991e-05
-2.41559e-06
2.94404e-05
-8.90765e-07
6.22733e-06
-2.99612e-05
2.19645e-06
1.03431e-05
-3.7675e-05
4.42277e-06
1.29234e-05
-3.78279e-05
5.23985e-06
1.43321e-05
-3.46493e-05
5.14806e-06
1.36005e-05
-2.76775e-05
4.53424e-06
1.06113e-05
-2.00225e-05
3.57783e-06
6.8583e-06
-1.47195e-05
2.47576e-06
3.57907e-06
-1.13043e-05
1.40487e-06
1.38707e-06
-8.85652e-06
5.07164e-07
5.28578e-07
-6.87552e-06
-1.25242e-07
8.19303e-07
-5.06919e-06
-4.9624e-07
1.74274e-06
-3.37336e-06
-7.20067e-07
2.76846e-06
-1.8747e-06
-8.58218e-07
3.68001e-06
-6.29228e-07
-9.53727e-07
4.41765e-06
3.90735e-07
-1.02574e-06
5.11831e-06
1.23044e-06
-1.08271e-06
5.70161e-06
1.98533e-06
-1.13057e-06
6.16316e-06
2.63311e-06
-1.17499e-06
6.52155e-06
3.17718e-06
-1.22014e-06
6.80445e-06
3.64625e-06
-1.26871e-06
7.05037e-06
4.06741e-06
-1.32404e-06
7.29994e-06
4.47348e-06
-1.3886e-06
7.57362e-06
4.91425e-06
-1.46314e-06
7.8572e-06
5.44699e-06
-1.54512e-06
8.11651e-06
6.12263e-06
-1.63348e-06
8.31271e-06
6.98079e-06
-1.73055e-06
8.41073e-06
8.0527e-06
-1.83707e-06
8.38014e-06
9.38345e-06
-1.95099e-06
8.18509e-06
1.10541e-05
-2.06864e-06
7.76419e-06
1.32244e-05
-2.1857e-06
7.00939e-06
1.62276e-05
-2.29994e-06
5.76975e-06
2.07767e-05
-2.40744e-06
3.96016e-06
2.79068e-05
-2.42636e-06
1.91718e-06
3.50455e-05
-1.99889e-06
3.20394e-05
-7.30303e-07
-2.99582e-06
-3.04331e-05
3.41602e-06
-5.72702e-06
-4.00559e-05
5.00325e-06
-8.00278e-06
-4.11299e-05
5.39378e-06
-9.10444e-06
-3.90438e-05
5.23654e-06
-8.22301e-06
-3.35672e-05
4.7283e-06
-6.29004e-06
-2.63461e-05
4.18878e-06
-4.71635e-06
-2.00559e-05
3.66495e-06
-4.07882e-06
-1.49861e-05
3.00823e-06
-4.30963e-06
-1.08746e-05
2.23856e-06
-4.79326e-06
-7.88284e-06
1.48785e-06
-5.07828e-06
-5.64722e-06
8.59063e-07
-5.13394e-06
-3.71585e-06
3.9023e-07
-5.03137e-06
-2.03567e-06
4.64817e-08
-4.90743e-06
-6.43626e-07
-1.23982e-07
-4.73369e-06
4.50709e-07
-2.491e-07
-4.44405e-06
1.26635e-06
-3.39748e-07
-4.02801e-06
1.96513e-06
-4.07363e-07
-3.51804e-06
2.57715e-06
-4.62764e-07
-2.95724e-06
3.12485e-06
-5.1417e-07
-2.36986e-06
3.62453e-06
-5.67469e-07
-1.7633e-06
4.0908e-06
-6.27002e-07
-1.13395e-06
4.54661e-06
-6.94846e-07
-4.71216e-07
5.03549e-06
-7.73106e-07
2.44349e-07
5.61419e-06
-8.68666e-07
1.0361e-06
6.33981e-06
-9.89967e-07
1.91085e-06
7.27152e-06
-1.1415e-06
2.8362e-06
8.47389e-06
-1.31948e-06
3.74057e-06
1.00203e-05
-1.51448e-06
4.53022e-06
1.20015e-05
-1.71495e-06
5.07982e-06
1.45951e-05
-1.90882e-06
5.15864e-06
1.82198e-05
-2.07946e-06
4.30745e-06
2.37782e-05
-2.18915e-06
2.27421e-06
3.20156e-05
-2.14096e-06
7.53451e-07
3.82516e-05
-1.75056e-06
3.34255e-05
-6.9717e-07
-6.75522e-06
-2.75295e-05
3.48469e-06
-1.05487e-05
-4.13981e-05
4.6889e-06
-1.20938e-05
-4.49484e-05
4.92626e-06
-1.08056e-05
-4.57943e-05
5.0048e-06
-5.08034e-06
-4.48299e-05
5.0173e-06
4.47659e-06
-4.13089e-05
4.89185e-06
1.49159e-05
-3.54802e-05
4.5918e-06
2.3279e-05
-2.76927e-05
4.10889e-06
2.71746e-05
-1.8291e-05
3.43563e-06
2.62774e-05
-9.63612e-06
2.65212e-06
2.30137e-05
-4.26044e-06
1.90159e-06
1.97757e-05
-1.744e-06
1.28667e-06
1.72831e-05
-3.72373e-07
8.4007e-07
1.55919e-05
5.13206e-07
5.35279e-07
1.44956e-05
1.21334e-06
3.2636e-07
1.37915e-05
1.77338e-06
1.83307e-07
1.33565e-05
2.29327e-06
8.80128e-08
1.3075e-05
2.81129e-06
2.49513e-08
1.28376e-05
3.33926e-06
-1.60034e-09
1.25722e-05
3.87824e-06
-1.29426e-08
1.22265e-05
4.42935e-06
-1.49469e-08
1.17721e-05
4.99931e-06
-1.52942e-08
1.12261e-05
5.58788e-06
-1.72798e-08
1.06599e-05
6.20148e-06
-2.5503e-08
1.01659e-05
6.88454e-06
-4.77395e-08
9.82458e-06
7.72037e-06
-9.55611e-08
9.65585e-06
8.84973e-06
-1.84029e-07
9.56342e-06
1.04728e-05
-3.25481e-07
9.36558e-06
1.27599e-05
-5.17048e-07
8.92063e-06
1.58341e-05
-7.46557e-07
8.08373e-06
2.01076e-05
-1.00799e-06
6.58568e-06
2.65841e-05
-1.28894e-06
4.25106e-06
3.57914e-05
-1.46955e-06
2.01698e-06
4.1716e-05
-1.28455e-06
3.58684e-05
-4.94512e-07
-4.91505e-06
-2.59203e-05
2.91597e-06
-7.20454e-06
-4.29435e-05
3.5848e-06
-7.61723e-06
-4.83861e-05
3.75757e-06
-7.00101e-06
-5.0316e-05
3.86744e-06
-5.14925e-06
-5.07477e-05
3.99797e-06
-8.57358e-07
-4.99487e-05
4.18071e-06
6.3066e-06
-4.72702e-05
4.34865e-06
1.52769e-05
-4.13804e-05
4.37885e-06
2.31273e-05
-3.05982e-05
4.14357e-06
2.68279e-05
-1.70887e-05
3.56664e-06
2.63335e-05
-6.62574e-06
2.80328e-06
2.3596e-05
-1.07868e-06
2.06425e-06
2.00974e-05
1.6949e-06
1.44071e-06
1.68638e-05
2.79369e-06
9.7036e-07
1.42966e-05
3.1573e-06
6.38298e-07
1.22853e-05
3.39167e-06
4.04479e-07
1.07111e-05
3.62749e-06
2.46499e-07
9.49418e-06
3.87829e-06
1.51155e-07
8.56218e-06
4.16076e-06
1.06797e-07
7.84282e-06
4.48564e-06
1.03685e-07
7.26841e-06
4.86183e-06
1.33144e-07
6.77777e-06
5.29577e-06
1.89394e-07
6.32227e-06
5.77795e-06
2.64216e-07
5.88751e-06
6.2961e-06
3.43064e-07
5.49185e-06
6.87785e-06
4.10671e-07
5.18887e-06
7.58829e-06
4.50255e-07
5.08613e-06
8.54667e-06
4.30379e-07
5.28438e-06
1.00197e-05
2.9031e-07
5.67597e-06
1.24288e-05
-2.00288e-08
5.77162e-06
1.6115e-05
-3.40286e-07
5.30992e-06
2.12829e-05
-6.84335e-07
3.95171e-06
2.89467e-05
-9.86563e-07
1.83204e-06
3.90331e-05
-1.13409e-06
6.66638e-07
4.38285e-05
-9.89123e-07
3.68687e-05
-4.028e-07
2.43533e-06
-3.02027e-05
1.79112e-06
3.91224e-06
-4.59397e-05
1.63456e-06
3.96575e-06
-4.99165e-05
1.72818e-06
3.00481e-06
-5.09499e-05
1.94498e-06
1.41909e-06
-5.0909e-05
2.17652e-06
-3.14913e-07
-5.01648e-05
2.42919e-06
-1.25189e-06
-4.86109e-05
2.74273e-06
-1.08364e-07
-4.53036e-05
3.14431e-06
3.89034e-06
-3.79464e-05
3.54891e-06
9.06569e-06
-2.58645e-05
3.65321e-06
1.25267e-05
-1.34674e-05
3.36245e-06
1.35082e-05
-4.96514e-06
2.87398e-06
1.3344e-05
-5.15543e-07
2.35e-06
1.27591e-05
1.47865e-06
1.88006e-06
1.20622e-05
2.32887e-06
1.51004e-06
1.1406e-05
2.81456e-06
1.22142e-06
1.08342e-05
3.19522e-06
9.93392e-07
1.03474e-05
3.53144e-06
8.22182e-07
9.93879e-06
3.85301e-06
7.03163e-07
9.59812e-06
4.18039e-06
6.30524e-07
9.31913e-06
4.52495e-06
5.98117e-07
9.10199e-06
4.89317e-06
5.99893e-07
8.93908e-06
5.29008e-06
6.29434e-07
8.80667e-06
5.72702e-06
6.80256e-07
8.66951e-06
6.24608e-06
7.50563e-07
8.50333e-06
6.90294e-06
8.3869e-07
8.35608e-06
7.76037e-06
9.28431e-07
8.39367e-06
9.01024e-06
9.8085e-07
8.74755e-06
1.12083e-05
9.00596e-07
8.89041e-06
1.54445e-05
5.79061e-07
8.16035e-06
2.19682e-05
9.77542e-08
6.41927e-06
3.10942e-05
-3.4855e-07
3.86596e-06
4.22791e-05
-6.42969e-07
1.84092e-06
4.64748e-05
-6.21142e-07
3.88824e-05
-2.3773e-07
1.0774e-06
-3.21389e-05
1.04954e-06
-1.84663e-07
-4.56468e-05
1.09988e-06
-3.16334e-06
-4.83518e-05
1.3529e-06
-6.93254e-06
-4.88347e-05
1.50442e-06
-1.11313e-05
-4.84661e-05
1.60054e-06
-1.5618e-05
-4.74924e-05
1.71635e-06
-2.01738e-05
-4.59457e-05
1.89472e-06
-2.38824e-05
-4.36505e-05
2.1638e-06
-2.44277e-05
-3.9783e-05
2.52969e-06
-2.01819e-05
-3.28278e-05
2.81606e-06
-1.29599e-05
-2.34558e-05
2.79982e-06
-5.70507e-06
-1.47627e-05
2.54757e-06
-1.99644e-07
-8.24303e-06
2.21814e-06
2.96747e-06
-3.5837e-06
1.88177e-06
4.04712e-06
-3.44955e-07
1.57214e-06
4.33527e-06
1.20104e-06
1.30371e-06
4.36218e-06
2.07345e-06
1.07907e-06
4.35473e-06
2.62549e-06
9.00749e-07
4.34133e-06
3.08536e-06
7.68647e-07
4.30161e-06
3.52632e-06
6.80474e-07
4.22354e-06
3.95609e-06
6.32251e-07
4.10118e-06
4.38047e-06
6.19127e-07
3.93355e-06
4.80562e-06
6.36014e-07
3.7287e-06
5.23774e-06
6.77981e-07
3.51484e-06
5.6979e-06
7.43942e-07
3.33581e-06
6.2239e-06
8.37396e-07
3.24636e-06
6.86942e-06
9.60342e-07
3.38036e-06
7.75828e-06
1.10455e-06
4.04906e-06
9.32962e-06
1.21925e-06
5.36556e-06
1.31001e-05
1.08022e-06
5.60981e-06
2.12385e-05
5.45136e-07
4.19682e-06
3.26175e-05
-5.85582e-08
2.05851e-06
4.48233e-05
-3.59181e-07
8.8066e-07
4.80252e-05
-3.70699e-07
3.98396e-05
-1.40177e-07
-6.22169e-06
-2.71318e-05
1.11301e-06
-9.42624e-06
-4.34795e-05
7.31799e-07
-1.05543e-05
-4.85907e-05
1.07188e-06
-1.08654e-05
-5.02891e-05
1.48805e-06
-1.08544e-05
-5.05461e-05
1.79241e-06
-1.08057e-05
-4.98262e-05
2.00391e-06
-1.09026e-05
-4.82607e-05
2.13687e-06
-1.10294e-05
-4.59764e-05
2.21252e-06
-1.01762e-05
-4.30966e-05
2.29083e-06
-6.17136e-06
-3.93832e-05
2.47634e-06
1.85556e-06
-3.42279e-05
2.74213e-06
1.2039e-05
-2.78398e-05
2.92838e-06
2.17422e-05
-2.08678e-05
2.97879e-06
2.93692e-05
-1.40357e-05
2.89441e-06
3.43377e-05
-7.93737e-06
2.69158e-06
3.60912e-05
-2.90865e-06
2.40793e-06
3.51179e-05
9.80284e-07
2.09829e-06
3.24059e-05
3.54498e-06
1.81101e-06
2.91673e-05
4.77055e-06
1.56477e-06
2.60037e-05
5.33184e-06
1.36367e-06
2.31149e-05
5.63521e-06
1.21001e-06
2.05371e-05
5.85266e-06
1.10224e-06
1.82377e-05
6.06255e-06
1.03638e-06
1.61614e-05
6.29755e-06
1.00845e-06
1.42616e-05
6.57224e-06
1.01539e-06
1.25141e-05
6.90383e-06
1.05492e-06
1.09175e-05
7.32533e-06
1.1254e-06
9.52067e-06
7.91261e-06
1.22567e-06
8.5653e-06
8.91586e-06
1.35445e-06
8.73202e-06
1.14799e-05
1.45793e-06
8.82808e-06
2.00455e-05
1.12194e-06
6.85158e-06
3.41506e-05
4.43965e-07
3.93781e-06
4.77636e-05
-4.62497e-08
1.84069e-06
5.02089e-05
-1.27447e-07
4.16491e-05
-3.99839e-08
2.53154e-06
-2.96025e-05
-3.15561e-07
7.51817e-06
-4.73316e-05
-1.21606e-06
1.22514e-05
-5.21771e-05
-1.04066e-06
1.59177e-05
-5.31678e-05
-5.88025e-07
1.85568e-05
-5.27594e-05
-1.81453e-07
2.02568e-05
-5.14663e-05
1.991e-07
2.11304e-05
-4.93991e-05
5.11789e-07
2.12024e-05
-4.65833e-05
7.50634e-07
2.04314e-05
-4.30385e-05
8.90967e-07
1.915e-05
-3.8893e-05
9.30449e-07
1.86716e-05
-3.45844e-05
9.35877e-07
2.04219e-05
-3.05283e-05
1.01838e-06
2.48894e-05
-2.6482e-05
1.22814e-06
3.14429e-05
-2.20138e-05
1.51204e-06
3.86634e-05
-1.68694e-05
1.80512e-06
4.48187e-05
-1.1016e-05
2.05442e-06
4.85419e-05
-4.82905e-06
2.19132e-06
4.90953e-05
9.2425e-07
2.15166e-06
4.65096e-05
5.44065e-06
1.97096e-06
4.23441e-05
7.78973e-06
1.74693e-06
3.77769e-05
8.69913e-06
1.53381e-06
3.33013e-05
8.99198e-06
1.35628e-06
2.91167e-05
9.03224e-06
1.22495e-06
2.52957e-05
8.98128e-06
1.1398e-06
2.18212e-05
8.94712e-06
1.09641e-06
1.86384e-05
8.98887e-06
1.08994e-06
1.56916e-05
9.14287e-06
1.11732e-06
1.29525e-05
9.45913e-06
1.17729e-06
1.05027e-05
1.00763e-05
1.27173e-06
8.89182e-06
1.16669e-05
1.40413e-06
8.81271e-06
1.87517e-05
1.35103e-06
6.73412e-06
3.54322e-05
7.13307e-07
3.79925e-06
5.03943e-05
2.0318e-07
1.69123e-06
5.21668e-05
5.96162e-08
4.322e-05
3.90117e-08
8.85226e-06
-3.74027e-05
-8.51114e-07
1.65612e-05
-5.27562e-05
-1.84195e-06
2.22365e-05
-5.54089e-05
-2.05593e-06
2.63127e-05
-5.51844e-05
-1.7368e-06
2.90591e-05
-5.38973e-05
-1.31789e-06
3.06538e-05
-5.18564e-05
-9.20035e-07
3.12398e-05
-4.91213e-05
-5.68264e-07
3.09509e-05
-4.57166e-05
-2.63758e-07
2.98727e-05
-4.16211e-05
-1.12591e-08
2.79243e-05
-3.67219e-05
1.08702e-07
2.49037e-05
-3.1306e-05
5.83673e-08
2.13686e-05
-2.66075e-05
-1.12752e-07
1.88582e-05
-2.35043e-05
-2.50059e-07
1.86557e-05
-2.13632e-05
-2.79e-07
2.12203e-05
-1.91402e-05
-1.57724e-07
2.62028e-05
-1.60352e-05
1.50607e-07
3.21961e-05
-1.13482e-05
6.21708e-07
3.68599e-05
-4.811e-06
1.15526e-06
3.8598e-05
2.22266e-06
1.5521e-06
3.74708e-05
7.2824e-06
1.68021e-06
3.49887e-05
9.58008e-06
1.62515e-06
3.20541e-05
1.04351e-05
1.50904e-06
2.89505e-05
1.07724e-05
1.37908e-06
2.58339e-05
1.08439e-05
1.26228e-06
2.28079e-05
1.07961e-05
1.17661e-06
1.99153e-05
1.07468e-05
1.12725e-06
1.7159e-05
1.07733e-05
1.1135e-06
1.45215e-05
1.09472e-05
1.13346e-06
1.20001e-05
1.13937e-05
1.185e-06
9.76278e-06
1.26067e-05
1.27288e-06
8.89182e-06
1.82111e-05
1.36539e-06
6.56491e-06
3.67336e-05
8.71213e-07
3.63145e-06
5.27959e-05
3.48326e-07
1.56154e-06
5.39098e-05
1.82781e-07
4.46075e-05
7.18784e-08
6.59875e-06
-4.27092e-05
-7.77002e-07
9.27872e-06
-5.39536e-05
-1.14385e-06
1.05247e-05
-5.47932e-05
-1.75414e-06
1.13075e-05
-5.39719e-05
-1.99747e-06
1.16326e-05
-5.23139e-05
-1.96339e-06
1.14167e-05
-4.99309e-05
-1.79656e-06
1.06482e-05
-4.68683e-05
-1.58678e-06
9.45375e-06
-4.32397e-05
-1.38323e-06
8.22833e-06
-3.92801e-05
-1.19934e-06
7.60205e-06
-3.51157e-05
-1.03256e-06
7.81245e-06
-3.06024e-05
-9.17531e-07
8.21463e-06
-2.60471e-05
-9.12227e-07
8.1484e-06
-2.24008e-05
-9.56045e-07
7.72575e-06
-1.98746e-05
-9.75102e-07
7.59622e-06
-1.79445e-05
-9.70703e-07
8.5157e-06
-1.59334e-05
-9.20049e-07
1.07318e-05
-1.27911e-05
-6.76723e-07
1.34172e-05
-7.32294e-06
-1.06931e-07
1.51853e-05
-1.90298e-08
5.12616e-07
1.61486e-05
5.39117e-06
9.4741e-07
1.62486e-05
8.37109e-06
1.10494e-06
1.59223e-05
9.63217e-06
1.11736e-06
1.5316e-05
1.02805e-05
1.08557e-06
1.44499e-05
1.06575e-05
1.03844e-06
1.33627e-05
1.08747e-05
9.93277e-07
1.21139e-05
1.10183e-05
9.61374e-07
1.07491e-05
1.11701e-05
9.50148e-07
9.29845e-06
1.14152e-05
9.63064e-07
7.78737e-06
1.18843e-05
1.00061e-06
6.23328e-06
1.30776e-05
1.06579e-06
5.09568e-06
1.82009e-05
1.15518e-06
3.63475e-06
3.7314e-05
8.49134e-07
1.7162e-06
5.41784e-05
3.83705e-07
5.39529e-07
5.47267e-05
2.20212e-07
4.49799e-05
5.55147e-08
-2.88142e-06
-4.00472e-05
1.88719e-07
-5.5055e-06
-5.1831e-05
2.99832e-07
-6.92367e-06
-5.33409e-05
-2.2686e-07
-7.40941e-06
-5.29567e-05
-7.00696e-07
-7.22645e-06
-5.16595e-05
-9.98855e-07
-6.59112e-06
-4.96084e-05
-1.12487e-06
-5.66474e-06
-4.68526e-05
-1.13281e-06
-4.59442e-06
-4.34504e-05
-1.08699e-06
-3.52682e-06
-3.95698e-05
-1.03845e-06
-2.4226e-06
-3.54887e-05
-1.00568e-06
-8.88569e-07
-3.14167e-05
-9.77407e-07
1.22494e-06
-2.7414e-05
-9.47434e-07
3.31095e-06
-2.36859e-05
-9.24265e-07
4.77058e-06
-2.04952e-05
-9.00623e-07
5.41512e-06
-1.77449e-05
-8.68327e-07
5.29002e-06
-1.49933e-05
-8.1454e-07
4.74524e-06
-1.15422e-05
-6.8055e-07
4.34436e-06
-6.55736e-06
-3.32398e-07
4.50905e-06
-3.5012e-07
1.84878e-07
4.90576e-06
4.41597e-06
5.812e-07
5.43157e-06
7.08044e-06
7.53038e-07
5.87669e-06
8.36472e-06
8.01407e-07
6.21286e-06
9.11064e-06
8.10475e-07
6.39645e-06
9.64737e-06
8.04471e-07
6.37918e-06
1.00759e-05
7.94452e-07
6.13721e-06
1.0449e-05
7.89841e-07
5.66678e-06
1.08211e-05
7.97712e-07
4.97789e-06
1.12603e-05
8.22621e-07
4.08509e-06
1.18934e-05
8.67792e-07
3.02666e-06
1.32065e-05
9.37361e-07
2.31268e-06
1.80226e-05
1.02663e-06
2.2046e-06
3.68445e-05
8.6471e-07
1.02891e-06
5.49215e-05
4.47057e-07
2.36367e-07
5.51894e-05
2.8668e-07
4.50738e-05
8.22866e-08
-3.68376e-06
-3.69308e-05
2.53473e-07
-5.20939e-06
-5.06063e-05
1.07347e-07
-5.74851e-06
-5.2687e-05
-2.4374e-07
-5.59909e-06
-5.2655e-05
-5.58486e-07
-4.85054e-06
-5.17018e-05
-8.05945e-07
-3.58002e-06
-5.00192e-05
-9.58721e-07
-1.84147e-06
-4.77053e-05
-9.94366e-07
3.29891e-07
-4.4823e-05
-9.29639e-07
2.80085e-06
-4.13927e-05
-8.10073e-07
5.24609e-06
-3.74343e-05
-6.88885e-07
7.27091e-06
-3.30384e-05
-6.03162e-07
8.63584e-06
-2.84039e-05
-5.63754e-07
9.22124e-06
-2.38642e-05
-5.61299e-07
9.00778e-06
-1.98149e-05
-5.73617e-07
8.13801e-06
-1.63619e-05
-5.75107e-07
6.8231e-06
-1.31596e-05
-5.43527e-07
5.32702e-06
-9.59504e-06
-4.44703e-07
4.15108e-06
-5.13216e-06
-2.24632e-07
3.85628e-06
-1.35597e-07
1.00352e-07
4.15682e-06
3.74895e-06
3.71575e-07
4.66115e-06
6.05628e-06
5.11345e-07
5.12346e-06
7.31668e-06
5.69484e-07
5.50104e-06
8.11914e-06
5.94565e-07
5.77022e-06
8.75123e-06
6.0675e-07
5.88667e-06
9.32375e-06
6.14969e-07
5.8038e-06
9.88434e-06
6.25722e-07
5.484e-06
1.04725e-05
6.45126e-07
4.89724e-06
1.11439e-05
6.7918e-07
4.01951e-06
1.2018e-05
7.32876e-07
2.88387e-06
1.35381e-05
8.11876e-07
2.10804e-06
1.80542e-05
9.23848e-07
2.79209e-06
3.57804e-05
9.40651e-07
1.92715e-06
5.54877e-05
6.03574e-07
8.4462e-07
5.59562e-05
4.54403e-07
4.57456e-05
2.04214e-07
-1.08387e-06
-3.63103e-05
3.17442e-07
-9.8613e-07
-5.11885e-05
3.45375e-07
-1.77401e-07
-5.38095e-05
2.02574e-07
9.6545e-07
-5.39087e-05
1.19554e-08
2.31097e-06
-5.29645e-05
-1.74108e-07
3.81431e-06
-5.1244e-05
-3.58297e-07
5.4563e-06
-4.89071e-05
-5.04717e-07
7.27025e-06
-4.61145e-05
-5.7421e-07
9.33833e-06
-4.29646e-05
-5.46958e-07
1.16565e-05
-3.93872e-05
-4.31478e-07
1.39601e-05
-3.51653e-05
-2.69512e-07
1.57047e-05
-3.01366e-05
-1.27152e-07
1.63108e-05
-2.45255e-05
-6.23892e-08
1.55853e-05
-1.9104e-05
-8.19388e-08
1.38952e-05
-1.45965e-05
-1.39191e-07
1.18614e-05
-1.09735e-05
-1.80888e-07
1.00869e-05
-7.64329e-06
-1.67893e-07
9.06513e-06
-4.00309e-06
-6.78794e-08
9.0156e-06
-1.5317e-07
1.08437e-07
9.18666e-06
3.32735e-06
2.73269e-07
9.40023e-06
5.47479e-06
3.73098e-07
9.59353e-06
6.69494e-06
4.23731e-07
9.75634e-06
7.49693e-06
4.50077e-07
9.8709e-06
8.15936e-06
4.65754e-07
9.90792e-06
8.79562e-06
4.77844e-07
9.8325e-06
9.45308e-06
4.91263e-07
9.60531e-06
1.01706e-05
5.10558e-07
9.17914e-06
1.10069e-05
5.40416e-07
8.49068e-06
1.20931e-05
5.85913e-07
7.45879e-06
1.38897e-05
6.53363e-07
5.93354e-06
1.8854e-05
7.53803e-07
5.03504e-06
3.61592e-05
8.50505e-07
3.58179e-06
5.66167e-05
6.72788e-07
1.73662e-06
5.7421e-05
5.79152e-07
4.72422e-05
3.11268e-07
2.13588e-06
-3.84771e-05
-8.14989e-09
3.69091e-06
-5.24983e-05
-2.69186e-07
4.9153e-06
-5.47128e-05
-3.17249e-07
5.95669e-06
-5.45531e-05
-3.71398e-07
6.87628e-06
-5.33893e-05
-4.51062e-07
7.67851e-06
-5.14336e-05
-5.51299e-07
8.32174e-06
-4.88076e-05
-6.61467e-07
8.76298e-06
-4.56952e-05
-7.58211e-07
9.07466e-06
-4.235e-05
-8.09039e-07
9.51595e-06
-3.89304e-05
-7.81357e-07
1.03938e-05
-3.52972e-05
-6.50679e-07
1.17385e-05
-3.10036e-05
-4.24799e-07
1.30541e-05
-2.56565e-05
-1.81301e-07
1.36122e-05
-1.96591e-05
-3.25103e-08
1.32191e-05
-1.42251e-05
-1.50565e-08
1.23059e-05
-1.00265e-05
-6.18042e-08
1.14682e-05
-6.71834e-06
-9.61442e-08
1.11959e-05
-3.63179e-06
-7.7949e-08
1.15002e-05
-4.28774e-07
1.50122e-08
1.21089e-05
2.62848e-06
1.29098e-07
1.26441e-05
4.7419e-06
2.19743e-07
1.30771e-05
5.99827e-06
2.72625e-07
1.34363e-05
6.83757e-06
3.01798e-07
1.37367e-05
7.53782e-06
3.18973e-07
1.39832e-05
8.21358e-06
3.3067e-07
1.41712e-05
8.91696e-06
3.40571e-07
1.42782e-05
9.70036e-06
3.51887e-07
1.42582e-05
1.0641e-05
3.68212e-07
1.40125e-05
1.19145e-05
3.94132e-07
1.32484e-05
1.41491e-05
4.38333e-07
1.0675e-05
2.06992e-05
5.15544e-07
6.88048e-06
3.90994e-05
5.9923e-07
4.29573e-06
5.86342e-05
5.52004e-07
1.96429e-06
5.92539e-05
5.225e-07
4.89511e-05
2.79546e-07
1.64773e-06
-3.9742e-05
-2.85545e-07
2.49945e-06
-5.25941e-05
-6.43991e-07
2.92348e-06
-5.43977e-05
-6.71928e-07
3.23513e-06
-5.41521e-05
-6.73868e-07
3.56477e-06
-5.30107e-05
-6.88414e-07
3.99569e-06
-5.11471e-05
-7.12858e-07
4.54886e-06
-4.86181e-05
-7.45209e-07
5.13473e-06
-4.54939e-05
-7.82154e-07
5.57935e-06
-4.19526e-05
-8.13567e-07
5.78074e-06
-3.82517e-05
-8.21356e-07
5.87297e-06
-3.4529e-05
-7.78124e-07
6.20291e-06
-3.05972e-05
-6.47316e-07
7.00037e-06
-2.59677e-05
-4.15473e-07
7.96881e-06
-2.04265e-05
-1.6818e-07
8.57869e-06
-1.4812e-05
-2.30358e-08
8.74096e-06
-1.02075e-05
3.21133e-09
8.73612e-06
-6.71641e-06
-1.38455e-08
8.92582e-06
-3.8037e-06
-2.27729e-08
9.50599e-06
-1.00091e-06
8.64171e-09
1.04464e-05
1.65705e-06
6.1402e-08
1.13762e-05
3.71907e-06
1.20067e-07
1.21626e-05
5.06701e-06
1.62054e-07
1.2834e-05
5.98678e-06
1.89255e-07
1.34284e-05
6.74239e-06
2.07242e-07
1.39695e-05
7.45633e-06
2.1936e-07
1.44693e-05
8.18922e-06
2.27274e-07
1.4922e-05
9.00965e-06
2.32897e-07
1.52934e-05
1.00187e-05
2.38089e-07
1.54401e-05
1.14866e-05
2.45535e-07
1.47101e-05
1.44894e-05
2.62228e-07
1.09751e-05
2.36804e-05
2.8089e-07
4.95825e-06
4.40197e-05
2.67372e-07
2.33187e-06
6.06278e-05
2.74403e-07
6.93213e-07
6.04061e-05
2.75557e-07
4.93664e-05
1.04475e-07
7.5619e-08
-3.93e-05
-4.81451e-07
-2.34933e-08
-5.16597e-05
-9.10787e-07
-1.61031e-07
-5.34722e-05
-9.18705e-07
-2.44759e-07
-5.33448e-05
-8.80252e-07
-2.24832e-07
-5.23531e-05
-8.50467e-07
-6.64525e-08
-5.0661e-05
-8.27809e-07
2.53273e-07
-4.83188e-05
-8.07143e-07
7.26008e-07
-4.53672e-05
-7.83819e-07
1.26206e-06
-4.19006e-05
-7.53868e-07
1.69551e-06
-3.80993e-05
-7.14524e-07
1.91541e-06
-3.41678e-05
-6.6011e-07
2.03617e-06
-3.01719e-05
-5.74744e-07
2.42761e-06
-2.59158e-05
-4.32347e-07
3.3421e-06
-2.10778e-05
-2.3672e-07
4.45887e-06
-1.58426e-05
-6.93364e-08
5.33048e-06
-1.10876e-05
9.01702e-09
5.91634e-06
-7.33141e-06
1.88504e-08
6.42703e-06
-4.34583e-06
1.88499e-08
7.0784e-06
-1.68582e-06
2.91779e-08
7.88657e-06
7.99818e-07
5.90483e-08
8.67762e-06
2.84592e-06
1.0003e-07
9.2775e-06
4.34711e-06
1.3685e-07
9.70365e-06
5.40708e-06
1.65956e-07
1.00156e-05
6.25006e-06
1.90154e-07
1.02447e-05
7.02345e-06
2.11602e-07
1.03992e-05
7.80916e-06
2.31802e-07
1.04833e-05
8.67871e-06
2.5204e-07
1.04899e-05
9.74213e-06
2.72603e-07
1.03173e-05
1.13527e-05
2.94575e-07
9.42213e-06
1.49782e-05
3.20061e-07
6.46179e-06
2.59539e-05
3.03368e-07
1.12395e-06
4.8236e-05
1.14762e-07
-4.88045e-07
6.16703e-05
4.4653e-08
-9.34965e-07
6.04636e-05
9.23668e-09
4.81859e-05
-1.3313e-07
-1.14266e-06
-3.76667e-05
-6.32776e-07
-8.70659e-07
-5.09653e-05
-1.144e-06
-2.13033e-07
-5.31441e-05
-1.14281e-06
5.20504e-07
-5.31292e-05
-1.09192e-06
1.23541e-06
-5.2145e-05
-1.05712e-06
1.85595e-06
-5.03756e-05
-1.03551e-06
2.31696e-06
-4.78927e-05
-1.01736e-06
2.60719e-06
-4.48074e-05
-9.88656e-07
2.78414e-06
-4.12963e-05
-9.34223e-07
2.91249e-06
-3.75462e-05
-8.45728e-07
3.01776e-06
-3.37083e-05
-7.25551e-07
3.15165e-06
-2.98637e-05
-5.80341e-07
3.50176e-06
-2.59555e-05
-4.10086e-07
4.34309e-06
-2.17623e-05
-2.10688e-07
5.59793e-06
-1.71116e-05
-3.32617e-09
6.74006e-06
-1.23482e-05
1.16792e-07
7.39157e-06
-8.14865e-06
1.65445e-07
7.6526e-06
-4.78055e-06
1.70798e-07
7.80894e-06
-2.01075e-06
1.66273e-07
7.98636e-06
4.57248e-07
1.68825e-07
8.10397e-06
2.55671e-06
1.81323e-07
7.98666e-06
4.27716e-06
1.98252e-07
7.6041e-06
5.58233e-06
2.1643e-07
7.00959e-06
6.61426e-06
2.36665e-07
6.24463e-06
7.53191e-06
2.60375e-07
5.31765e-06
8.44925e-06
2.89549e-07
4.22512e-06
9.45027e-06
3.25809e-07
2.96644e-06
1.06449e-05
3.70748e-07
1.57629e-06
1.23626e-05
4.27094e-07
2.70549e-07
1.59369e-05
4.99576e-07
-1.39683e-07
2.61465e-05
5.54314e-07
-1.01306e-06
4.85981e-05
3.41343e-07
-1.42422e-06
6.15033e-05
9.18919e-08
-1.25439e-06
5.98791e-05
-1.9104e-08
4.67487e-05
-1.4241e-07
4.90455e-08
-3.68502e-05
-9.8949e-07
1.67691e-06
-5.08901e-05
-1.77094e-06
3.49618e-06
-5.32705e-05
-1.71365e-06
5.15157e-06
-5.32136e-05
-1.56466e-06
6.55525e-06
-5.20708e-05
-1.45267e-06
7.63355e-06
-5.00298e-05
-1.3844e-06
8.32637e-06
-4.71835e-05
-1.35402e-06
8.62407e-06
-4.37166e-05
-1.34207e-06
8.5964e-06
-3.99174e-05
-1.32021e-06
8.38246e-06
-3.60676e-05
-1.26258e-06
8.13882e-06
-3.23435e-05
-1.15524e-06
8.00272e-06
-2.87961e-05
-9.97663e-07
8.1222e-06
-2.53648e-05
-7.95173e-07
8.6943e-06
-2.18683e-05
-5.50012e-07
9.82441e-06
-1.80333e-05
-2.70335e-07
1.11738e-05
-1.37282e-05
-1.73456e-10
1.21358e-05
-9.29031e-06
1.71969e-07
1.24099e-05
-5.30587e-06
2.53007e-07
1.21735e-05
-2.04591e-06
2.7537e-07
1.17323e-05
6.27285e-07
2.768e-07
1.107e-05
2.95139e-06
2.77355e-07
1.01613e-05
4.91436e-06
2.83184e-07
8.96234e-06
6.49641e-06
2.94582e-07
7.49753e-06
7.77201e-06
3.12251e-07
5.80768e-06
8.8839e-06
3.38004e-07
3.91268e-06
9.96619e-06