/*--------------------------------*- C++ -*----------------------------------*\
| =========                 |                                                 |
| \\      /  F ield         | OpenFOAM: The Open Source CFD Toolbox           |
|  \\    /   O peration     | Version:  v1906                                 |
|   \\  /    A nd           | Web:      www.OpenFOAM.com                      |
|    \\/     M anipulation  |                                                 |
\*---------------------------------------------------------------------------*/
FoamFile
{
    version     2.0;
    format      ascii;
    class       volScalarField;
    location    "80";
    object      k;
}
// * * * * * * * * * * * * * * * * * * * * * * * * * * * * * * * * * * * * * //

dimensions      [0 2 -2 0 0 0 0];


internalField   nonuniform List<scalar> 
78750
(
0.73816
0.199587
0.0781991
0.00572265
0.00016958
0.00465801
0.00184246
0.00332917
0.00259938
0.00285736
0.00277585
0.00276961
0.00275301
0.00273599
0.00271792
0.00269872
0.0026783
0.00265651
0.00263317
0.00260813
0.00258153
0.00255341
0.00252386
0.00249344
0.0024625
0.00243099
0.00239756
0.00235764
0.00231385
0.00228495
0.00227109
0.00221809
0.00209695
0.00183826
0.000549068
0.00663911
0.00272317
0.00127395
0.00169362
0.00314412
0.00250202
0.00297373
0.00289278
0.00301228
0.00304857
0.00309012
0.00312051
0.0031435
0.00315999
0.00317029
0.00317426
0.0031712
0.00316003
0.00313985
0.00311013
0.00307081
0.00302237
0.00296691
0.00291056
0.002858
0.00281202
0.00277329
0.00274116
0.00271189
0.00268151
0.00264676
0.00259414
0.00248466
0.00218892
0.00133512
0.000767344
0.00255033
0.00265364
0.00227519
0.00207379
0.00216772
0.00220148
0.00227691
0.00233246
0.0023827
0.00242608
0.00246429
0.00249719
0.00252448
0.00254563
0.00256223
0.00257545
0.00258645
0.00259623
0.00260509
0.00261255
0.00261774
0.00261892
0.00261448
0.00260373
0.00258707
0.00256583
0.00254163
0.00251574
0.00248991
0.00245997
0.00241302
0.00231687
0.00208868
0.00167344
0.000296253
0.000919004
0.00144203
0.0018832
0.00217709
0.00236831
0.00251948
0.00263472
0.00272011
0.00277859
0.00281458
0.00283335
0.00284013
0.00283883
0.00283172
0.00281957
0.00280173
0.00277827
0.00274912
0.00271488
0.00267698
0.00263719
0.00259766
0.00256028
0.00252658
0.0024976
0.00247307
0.0024515
0.00243079
0.00240801
0.00237793
0.00232899
0.0022329
0.00207247
0.00200488
0.000779223
0.00210889
0.00250359
0.00262737
0.00268609
0.00272689
0.0027582
0.00278231
0.00279982
0.00281138
0.00281762
0.00281918
0.00281669
0.00281089
0.00280253
0.0027924
0.00278086
0.00276772
0.00275239
0.00273393
0.00271143
0.00268428
0.00265259
0.00261745
0.00258047
0.00254361
0.0025086
0.00247652
0.00244722
0.00241847
0.00238436
0.00232975
0.00221964
0.00207898
0.00231696
0.000896659
0.00195972
0.00234839
0.00253008
0.00264322
0.00272952
0.00280233
0.0028638
0.00291179
0.00294439
0.00296165
0.0029652
0.00295743
0.00294096
0.00291844
0.0028924
0.00286512
0.00283845
0.00281356
0.00279115
0.00277105
0.00275254
0.00273321
0.00271024
0.00268123
0.00264506
0.00260224
0.0025548
0.00250544
0.00245549
0.0024021
0.00233304
0.00223139
0.00219883
0.00280133
0.000988036
0.00200319
0.00234954
0.00251413
0.00262414
0.00271144
0.00278563
0.00284983
0.00290448
0.00294885
0.00298188
0.00300272
0.00301116
0.00300759
0.00299306
0.00296919
0.00293798
0.00290177
0.00286296
0.00282405
0.0027873
0.00275462
0.00272731
0.00270586
0.00269005
0.00267854
0.0026682
0.00265434
0.00263191
0.00259567
0.00253756
0.00243768
0.00227637
0.00226581
0.00314904
0.00108683
0.00215726
0.00249724
0.00263667
0.00271228
0.0027604
0.00279429
0.00282121
0.00284648
0.0028736
0.00290314
0.00293308
0.00295999
0.00298026
0.00299102
0.00299065
0.00297887
0.00295658
0.00292534
0.00288711
0.00284393
0.0027978
0.0027503
0.00270355
0.00266058
0.00262534
0.00260196
0.00259263
0.00259494
0.00260086
0.00259772
0.00256187
0.00247924
0.0025812
0.00379637
0.00110418
0.00216898
0.00251413
0.00266834
0.00276005
0.00282067
0.00285963
0.00288162
0.00289061
0.0028916
0.002891
0.00289455
0.0029055
0.00292363
0.00294571
0.00296677
0.00298169
0.00298654
0.00297928
0.00295975
0.00292911
0.00288868
0.0028397
0.00278344
0.00272136
0.00265608
0.00259313
0.00254164
0.00251138
0.00250606
0.00251437
0.00249419
0.00244441
0.00270677
0.00418106
0.00103485
0.00205226
0.00242524
0.00261006
0.0027258
0.00280776
0.00286727
0.00290957
0.0029383
0.00295575
0.00296311
0.00296221
0.00295646
0.00295036
0.00294839
0.00295365
0.00296651
0.00298393
0.00300018
0.00300951
0.00300826
0.00299402
0.00296613
0.00292469
0.00286988
0.00280164
0.00272062
0.00263169
0.00254838
0.00249454
0.00249838
0.00258337
0.00277585
0.00319311
0.00463099
0.000944771
0.0017513
0.00220984
0.00248229
0.00265871
0.00278071
0.00286391
0.00291901
0.00295675
0.00298616
0.00301233
0.00303539
0.0030517
0.00305685
0.0030487
0.00302951
0.003006
0.00298705
0.00297927
0.00298336
0.00299424
0.00300351
0.00300465
0.00299414
0.00297005
0.00293037
0.002872
0.00279197
0.00269436
0.00259839
0.00251922
0.00246174
0.00252758
0.00300537
0.00486799
0.00136268
0.00226635
0.00278914
0.00305847
0.00320995
0.00329217
0.00332163
0.00331741
0.00329878
0.00328078
0.0032729
0.00327846
0.0032941
0.00331099
0.0033178
0.00330465
0.0032673
0.00321024
0.0031466
0.00309241
0.00305729
0.00303943
0.00303072
0.00302322
0.0030107
0.00298776
0.00294807
0.00288275
0.00278172
0.00265351
0.0025593
0.0025771
0.00288443
0.00360922
0.00554241
0.00247317
0.00314714
0.00336992
0.00346327
0.00350103
0.00349111
0.00345573
0.00341528
0.00338063
0.00335709
0.00334766
0.00335354
0.00337358
0.00340355
0.0034362
0.00346187
0.00346973
0.00345051
0.00340156
0.00333179
0.00325847
0.0031965
0.0031497
0.00311469
0.00308559
0.00305587
0.00301781
0.0029617
0.00287578
0.00275709
0.0026619
0.00274838
0.00317759
0.0038759
0.00560543
0.0028408
0.00296885
0.00301019
0.00304623
0.0030674
0.00307898
0.00309025
0.00310078
0.00310818
0.00311288
0.00311767
0.00312598
0.0031409
0.00316492
0.0031991
0.00324198
0.00328908
0.00333313
0.0033651
0.00337649
0.00336354
0.00333096
0.0032894
0.0032486
0.00321265
0.00318172
0.00315282
0.00311818
0.00306062
0.00294741
0.00275455
0.00260869
0.00291917
0.00372752
0.00577567
0.00176183
0.00208993
0.00231487
0.00248578
0.00262555
0.00273754
0.00282581
0.00288913
0.00292432
0.00293484
0.00292971
0.00291748
0.00290401
0.0028937
0.00289081
0.00289983
0.00292459
0.00296659
0.00302284
0.00308483
0.00314109
0.00318108
0.00319798
0.0031911
0.00316629
0.00313234
0.00309736
0.0030689
0.00304839
0.00300372
0.00290093
0.00298704
0.0036018
0.00460441
0.00681154
0.00129458
0.00177003
0.00205511
0.00225527
0.00243983
0.00260864
0.00274995
0.00285475
0.00291906
0.00294445
0.0029374
0.00290681
0.00286097
0.0028054
0.00274383
0.00268268
0.00263293
0.00260817
0.0026221
0.00267867
0.00277022
0.00288471
0.00300471
0.00310445
0.00316264
0.00317474
0.00314847
0.00309875
0.00305055
0.00303644
0.0030195
0.00309923
0.00375173
0.00460336
0.00640363
0.00160914
0.00206519
0.00233586
0.00253679
0.00272033
0.00288469
0.0030222
0.00312707
0.00319474
0.00322119
0.00320358
0.00314102
0.00303623
0.0028946
0.00272662
0.00254842
0.00237002
0.00219107
0.00203983
0.0019566
0.00193969
0.00199511
0.00216734
0.0024535
0.0027822
0.00304578
0.00318377
0.00322341
0.00320275
0.00315613
0.00313241
0.00292346
0.00317871
0.00412642
0.00708021
0.0018848
0.00247331
0.00286677
0.00318033
0.00345404
0.00367716
0.00384716
0.00396803
0.0040433
0.00407358
0.00405661
0.00398753
0.00385865
0.00365925
0.00337935
0.00301878
0.00260182
0.00217282
0.00176497
0.00138846
0.00102908
0.000682423
0.000662018
0.00100293
0.00164062
0.00233005
0.00287255
0.00312024
0.00308063
0.00283681
0.00290664
0.00342647
0.00429586
0.00578289
0.00945888
0.00188514
0.0025966
0.00306872
0.00344296
0.00377953
0.00406809
0.00430462
0.00449236
0.00463685
0.00474246
0.00481059
0.00483863
0.00481914
0.00473871
0.00457659
0.00430673
0.00391671
0.00343518
0.00287575
0.00217781
0.00123358
0.000168374
3.97379e-05
0.000112496
0.000987717
0.00188835
0.00286912
0.00349072
0.00358671
0.00324662
0.00322653
0.00395966
0.00484187
0.00588706
0.00758011
0.00193757
0.00270851
0.00317033
0.00353271
0.003864
0.00415328
0.00439383
0.00458767
0.00474171
0.00486389
0.00496034
0.00503388
0.00508381
0.0051064
0.00509512
0.00503962
0.00492311
0.00472048
0.00439157
0.00383698
0.00287837
0.00141659
4.53764e-05
0.00014659
0.000134397
0.000228835
0.00133835
0.00266721
0.00359471
0.0041852
0.00439812
0.00460326
0.00485677
0.00503229
0.00463096
0.00198212
0.0029661
0.0034646
0.00386317
0.00423413
0.00455722
0.00481805
0.00501406
0.00514973
0.00523357
0.00527581
0.00528589
0.00526981
0.00522864
0.0051587
0.0050531
0.00490312
0.00469954
0.00443828
0.00412611
0.00377503
0.00335294
0.00275884
0.00181534
0.000687972
0.000244532
0.000179299
0.000360315
0.00102429
0.00222305
0.00331876
0.0041458
0.00445278
0.00436635
0.00359771
0.00190556
0.00290073
0.00341365
0.0038693
0.00433581
0.00477119
0.0051411
0.0054362
0.00565697
0.00580954
0.00590307
0.00594776
0.00595284
0.00592482
0.00586602
0.00577422
0.00564308
0.00546311
0.00522211
0.00490767
0.00450835
0.00401395
0.00343194
0.00278168
0.00210032
0.00140043
0.000719673
0.000198167
0.000266542
0.00017771
0.000765393
0.00168953
0.0027959
0.00340153
0.0038168
0.0019077
0.00273301
0.00318033
0.0036174
0.00411029
0.00459683
0.00502489
0.0053742
0.00564394
0.0058391
0.00596665
0.00603664
0.00606028
0.00604764
0.00600611
0.00593948
0.00584832
0.00572996
0.00557887
0.00538802
0.00515047
0.00486434
0.00452791
0.00413614
0.00368583
0.00318379
0.00265027
0.00212392
0.00163581
0.00118425
0.000830573
0.000786541
0.00138928
0.00254017
0.00399177
0.00187345
0.00245615
0.00271564
0.00299529
0.00341032
0.00392139
0.00444162
0.00491323
0.00531234
0.00562799
0.0058615
0.00601735
0.00610396
0.00613231
0.00611385
0.00605856
0.00597414
0.0058645
0.00573037
0.00557052
0.00538201
0.00516122
0.00490511
0.00461199
0.00428629
0.0039383
0.00357801
0.00321374
0.0028554
0.00250759
0.00214235
0.00173652
0.00148616
0.00199857
0.00350506
0.0018989
0.00227256
0.00233112
0.00237899
0.0025631
0.00295243
0.00348997
0.00405935
0.00458362
0.0050319
0.00539511
0.0056721
0.00587155
0.00600271
0.00607319
0.00608986
0.00606065
0.00599336
0.00589399
0.00576647
0.00561243
0.00543164
0.00522285
0.00498466
0.00471645
0.00441808
0.00409637
0.00376398
0.00343479
0.00311379
0.00279431
0.00244606
0.00205244
0.00187443
0.00252238
0.00229605
0.00281622
0.00282136
0.00269704
0.00256338
0.00258753
0.00291393
0.00346454
0.00406287
0.00460007
0.00504277
0.00539018
0.00565005
0.00584013
0.00596991
0.00604271
0.00606343
0.00603832
0.00597386
0.00587593
0.00574893
0.00559564
0.00541725
0.0052139
0.00498525
0.00473137
0.00445282
0.00415493
0.00384954
0.00355114
0.00325459
0.00292632
0.00251193
0.00204276
0.0017853
0.00266788
0.00353846
0.00353846
0.00325502
0.00280706
0.00232749
0.00217861
0.00250929
0.00312169
0.00377844
0.00435415
0.0048181
0.00517792
0.00545394
0.0056647
0.00581332
0.00590163
0.00593441
0.00591777
0.00585813
0.00576137
0.00563229
0.00547444
0.00529019
0.00508107
0.00484842
0.00459423
0.00432134
0.00403844
0.00376
0.00347806
0.00315185
0.00271701
0.00218543
0.00160418
0.00341888
0.00459362
0.00468191
0.00439113
0.00385905
0.00310786
0.00240452
0.00214438
0.00236811
0.00288143
0.00348186
0.00404108
0.00450907
0.00488202
0.00517292
0.00539914
0.00556587
0.00567262
0.00572219
0.00571944
0.00566999
0.00557944
0.00545281
0.00529433
0.00510746
0.00489537
0.0046616
0.00441107
0.00415122
0.00389072
0.00361686
0.0032865
0.00282788
0.0022856
0.0016788
0.00388806
0.00507415
0.00523587
0.00509124
0.00477004
0.00426701
0.0035868
0.00292966
0.00254426
0.00250255
0.00275347
0.00318963
0.00369026
0.0041625
0.00456155
0.00487918
0.00512091
0.00529889
0.00541874
0.00548128
0.00548907
0.00544658
0.00535902
0.00523166
0.00506959
0.00487777
0.00466174
0.00442862
0.00418843
0.00393643
0.00364646
0.00326647
0.00272537
0.00225884
0.00199136
0.00380939
0.00473521
0.00503083
0.00518983
0.00526627
0.00522739
0.00500684
0.00453995
0.00389603
0.00326778
0.00281986
0.00265043
0.00278383
0.00315577
0.00363597
0.00410099
0.00448768
0.00478285
0.00499409
0.00513766
0.0052213
0.00524674
0.00521706
0.00513734
0.0050137
0.00485293
0.00466283
0.00445325
0.00423098
0.00398491
0.00368345
0.00325516
0.00262836
0.00220101
0.00236457
0.00308095
0.0040694
0.00467113
0.00510192
0.00544334
0.00571267
0.0058904
0.00592779
0.00573994
0.00526545
0.00455377
0.00375531
0.00306319
0.00266838
0.00267663
0.00302902
0.00353162
0.00400477
0.00437487
0.00463956
0.0048225
0.00493763
0.0049875
0.00497529
0.00490708
0.00479097
0.00463688
0.00445724
0.00425277
0.00400507
0.00367679
0.00318746
0.00255813
0.00229326
0.00275708
0.00281452
0.00399075
0.0047462
0.00518646
0.00548406
0.00572048
0.0059268
0.00611265
0.0062638
0.00632427
0.00619343
0.00576022
0.00498999
0.00402086
0.00313385
0.00263404
0.00266946
0.0030918
0.00359946
0.0040166
0.00431646
0.00452998
0.00467318
0.00474623
0.00475257
0.0046993
0.00459615
0.00445027
0.00425755
0.0040017
0.00364017
0.00307491
0.00234281
0.0021502
0.00297945
0.00323518
0.0045244
0.00523398
0.00560865
0.00584311
0.00600948
0.00611921
0.00616449
0.00614944
0.00610767
0.00608139
0.00606597
0.00593631
0.00549577
0.0046845
0.00369936
0.0029175
0.00269636
0.00300331
0.00346969
0.00384811
0.00412203
0.00432816
0.00447436
0.00455593
0.00457501
0.00453846
0.00445323
0.00431921
0.00413007
0.00386344
0.0034512
0.00285225
0.00251104
0.00296194
0.00442697
0.0052797
0.00564407
0.00585898
0.00605007
0.00625328
0.00644198
0.00654397
0.00649471
0.00628114
0.00596414
0.00569542
0.00556223
0.00543684
0.00515527
0.0046093
0.0038073
0.00306857
0.00287222
0.00316603
0.00355284
0.00384962
0.00406705
0.00423033
0.00433832
0.00438525
0.00437175
0.00429685
0.00415469
0.00393441
0.00360723
0.00314108
0.0026515
0.00254468
0.00305968
0.00571037
0.00559756
0.00557913
0.0056384
0.00578015
0.00601327
0.00628049
0.00646414
0.00648143
0.00631578
0.00599884
0.00563365
0.00534691
0.00513308
0.00492155
0.00463954
0.00419076
0.00355412
0.00310091
0.00317005
0.00347331
0.00374296
0.00394197
0.0040918
0.00420353
0.00427633
0.00430597
0.0042879
0.00421635
0.00408083
0.00385263
0.0034712
0.0029469
0.00267732
0.00288949
0.00636629
0.00559996
0.00546072
0.00549947
0.00566017
0.00590959
0.00615221
0.00627183
0.00622591
0.00603988
0.00576379
0.00545335
0.00515019
0.00487319
0.00461573
0.0043533
0.00405124
0.00368752
0.00337294
0.00336209
0.00355936
0.00376962
0.00394267
0.00407924
0.00418246
0.00425159
0.00428356
0.00427508
0.00422249
0.00411879
0.00394345
0.00364943
0.00323118
0.0029641
0.00294023
0.00575352
0.00517398
0.00515438
0.00529061
0.00552214
0.00577615
0.00596923
0.00603496
0.00595658
0.0057632
0.00549484
0.00517898
0.00483353
0.00447242
0.00410399
0.00373462
0.00340062
0.0032113
0.00327006
0.00346833
0.00364004
0.00378272
0.00390613
0.00400839
0.00408394
0.00412775
0.00413644
0.00410645
0.00403356
0.00391318
0.00374031
0.00351229
0.00326255
0.00311764
0.0030862
0.00490286
0.00477814
0.00488718
0.00507421
0.00530065
0.00551841
0.00570031
0.00581596
0.00583289
0.00573933
0.00554121
0.00525401
0.00490835
0.00454913
0.00421934
0.00394494
0.003738
0.00360596
0.00356204
0.00361488
0.00372558
0.00384728
0.00395644
0.00404089
0.00409545
0.00411805
0.00410697
0.00405866
0.00396658
0.00382082
0.00360982
0.00334142
0.00308566
0.0029454
0.00284854
0.00399408
0.00435295
0.00455285
0.00471541
0.00488296
0.00506257
0.00526406
0.00548281
0.00568783
0.00583528
0.00589309
0.00584899
0.00571055
0.00549937
0.00523541
0.00492432
0.00456188
0.00415772
0.00377168
0.00351116
0.00343281
0.00350081
0.00365349
0.00382518
0.0039681
0.00405686
0.00408499
0.00405431
0.00396409
0.00380722
0.00357462
0.00328752
0.0030449
0.00292751
0.00288165
0.00313154
0.00393442
0.00420052
0.00429983
0.00434528
0.0043789
0.00443513
0.00455068
0.0047553
0.00505798
0.00543773
0.00584339
0.00620459
0.00645391
0.00654818
0.00647134
0.00622793
0.00583725
0.00532576
0.00472369
0.0040867
0.0035404
0.00323037
0.00319079
0.00333445
0.00354806
0.00374313
0.00386742
0.00389864
0.00382812
0.00365085
0.00338633
0.00312592
0.00296566
0.0028704
0.00316783
0.00412253
0.00444702
0.00456798
0.00461318
0.0046066
0.00453764
0.00439111
0.00417523
0.00393758
0.00376784
0.00378318
0.00405443
0.00450057
0.00493933
0.00524762
0.00539693
0.00539888
0.00527006
0.00502425
0.00466633
0.00418658
0.00360228
0.00305941
0.0027743
0.00278395
0.00296983
0.00320799
0.00340554
0.00349789
0.00345245
0.00328393
0.00307197
0.00289006
0.00276943
0.00426077
0.00460347
0.00466911
0.00470523
0.00478517
0.00493196
0.00510312
0.00521793
0.00520235
0.00501536
0.00466581
0.00427254
0.00408611
0.00426905
0.00468133
0.00508545
0.00536595
0.0055122
0.00554826
0.00548777
0.00533356
0.00509538
0.00477906
0.00436562
0.00384709
0.00330761
0.00289282
0.00268235
0.00264656
0.00270488
0.00276936
0.00276583
0.00267783
0.0025493
0.00246946
0.00604349
0.00508737
0.00465246
0.0044636
0.00451616
0.00474085
0.00500089
0.00519021
0.00525306
0.0051764
0.00495414
0.0046047
0.00426977
0.00419381
0.00441555
0.00474074
0.00502196
0.00522562
0.00536456
0.00544411
0.00545725
0.00539976
0.00527505
0.00508991
0.00483882
0.00450709
0.00410167
0.00366446
0.0032568
0.00292348
0.00267723
0.00250916
0.00239473
0.00230592
0.00236275
0.00489844
0.00410213
0.00390965
0.00397485
0.00425828
0.00455566
0.00478799
0.00495876
0.00507306
0.00512828
0.00512038
0.00505177
0.00494323
0.0048454
0.00481354
0.00485692
0.0049465
0.00505006
0.00514616
0.00522241
0.00527082
0.00528523
0.00526116
0.00519586
0.00508726
0.00493258
0.0047301
0.004477
0.00417063
0.00381075
0.00340507
0.00298571
0.002628
0.00243626
0.00245119
0.00390605
0.00399405
0.00403011
0.00404887
0.00409623
0.00418814
0.00431741
0.00446448
0.00460413
0.00471175
0.00477441
0.00479217
0.00477669
0.00474758
0.00472458
0.00471991
0.00473669
0.00477154
0.00481749
0.00486625
0.00490981
0.00494086
0.00495284
0.00494016
0.00489837
0.00482417
0.00471548
0.00456969
0.00438231
0.00413966
0.00381829
0.00340355
0.00296861
0.00273037
0.00272724
0.00382547
0.00419145
0.00416869
0.00404163
0.00386188
0.00373076
0.00371549
0.0038272
0.00403573
0.00427301
0.00447769
0.00462264
0.00470751
0.0047425
0.00474287
0.00472549
0.00470365
0.00468502
0.00467274
0.00466702
0.00466509
0.00466352
0.00465821
0.00464436
0.00461639
0.00456811
0.00449334
0.00438662
0.00424276
0.00405216
0.00379664
0.00346375
0.00311882
0.00295824
0.00307303
0.00385843
0.00428846
0.00434243
0.0042885
0.00413431
0.0038418
0.00345547
0.00311511
0.00303231
0.00321749
0.00352073
0.00382414
0.00407764
0.00427182
0.00440954
0.00449629
0.00454171
0.00455749
0.00455469
0.00454164
0.00452282
0.00450047
0.00447502
0.00444516
0.00440751
0.00435603
0.00428182
0.00417422
0.00402449
0.00382903
0.00359644
0.00335023
0.00314576
0.00308933
0.0032797
0.00428351
0.00453536
0.00455481
0.00452035
0.00446181
0.00436852
0.00414558
0.0036589
0.00316138
0.00301807
0.0031553
0.00340075
0.00365715
0.0038759
0.00404328
0.00416152
0.0042384
0.00428323
0.00430402
0.00430755
0.00429851
0.00428069
0.00425683
0.00422827
0.00419426
0.00415085
0.00408985
0.00399888
0.00386368
0.00367717
0.00345705
0.00324927
0.00310297
0.00305856
0.00321988
0.00541313
0.00502316
0.00480412
0.00460333
0.00434203
0.00405721
0.00385637
0.00358241
0.00318003
0.00301026
0.00314082
0.00337638
0.00360328
0.00378695
0.00392611
0.00402858
0.00410153
0.00414918
0.00417382
0.0041779
0.0041649
0.0041394
0.0041061
0.00406872
0.0040293
0.00398689
0.00393598
0.00386557
0.00375844
0.00360063
0.00340042
0.00319984
0.00304984
0.00297852
0.00310169
0.00500446
0.00482647
0.00484245
0.00479932
0.00464553
0.00432702
0.00396317
0.00373161
0.00354917
0.0033657
0.00326585
0.00326589
0.00334926
0.00349645
0.00366543
0.00381712
0.00393574
0.00401974
0.00407128
0.00409275
0.00408702
0.00405857
0.004014
0.00395998
0.0039031
0.0038477
0.00379429
0.00373727
0.00365914
0.00353812
0.00336545
0.00316691
0.00299843
0.00289901
0.00299155
0.00504666
0.00515002
0.00522322
0.00523243
0.00517542
0.00500185
0.00460767
0.00406747
0.00355161
0.00301358
0.0025519
0.00239354
0.00251441
0.00280516
0.00314306
0.00342798
0.00363707
0.00378552
0.0038901
0.00395982
0.00399693
0.00400137
0.00397551
0.00392608
0.00386163
0.00379031
0.00371877
0.00365142
0.00358307
0.00349436
0.00336125
0.00318088
0.00299843
0.00287501
0.00297261
0.00505716
0.00518014
0.00532393
0.00538247
0.00535423
0.00521369
0.00495314
0.00454385
0.00404918
0.0035446
0.0030542
0.00275811
0.00272632
0.00289264
0.00314466
0.00338123
0.00357524
0.00373269
0.00385862
0.00395064
0.00400391
0.00401678
0.00399169
0.00393531
0.00385687
0.00376596
0.003671
0.00357988
0.00349523
0.00341004
0.00330443
0.00315965
0.00299998
0.00288747
0.00299906
0.00492748
0.00537286
0.00568528
0.00587118
0.00597418
0.00597457
0.00581708
0.0054431
0.00489282
0.00432348
0.00382337
0.00338054
0.00305792
0.00287786
0.00279383
0.00281383
0.00296985
0.00321948
0.00348957
0.0037211
0.0038886
0.0039901
0.00403023
0.00401391
0.00394919
0.00384862
0.00372648
0.0035956
0.00346509
0.00333767
0.00321078
0.0030748
0.00293703
0.00283964
0.00297228
0.00484405
0.00516214
0.00540852
0.00558358
0.0057311
0.0058518
0.0059209
0.00588552
0.0056427
0.00517533
0.00476548
0.00453691
0.00430932
0.00391791
0.00335947
0.00282372
0.00250047
0.00249536
0.00289737
0.00336898
0.00368988
0.00388166
0.00399127
0.00403991
0.00403092
0.00396616
0.00385646
0.00371935
0.00356995
0.00341018
0.00323963
0.00306496
0.00290996
0.00282317
0.00301004
0.00531693
0.00562895
0.00583757
0.00594528
0.0059991
0.00600416
0.0059492
0.0058078
0.00552533
0.00500778
0.00433014
0.00382014
0.0035426
0.00334748
0.00319787
0.00307708
0.00298157
0.00295058
0.00307074
0.00334751
0.00363701
0.00385536
0.00400567
0.00409944
0.00413482
0.00410328
0.00400379
0.00385386
0.00368402
0.00350969
0.00332478
0.00312792
0.00296003
0.00288726
0.00311358
0.00508224
0.00536017
0.00553822
0.00565395
0.00575286
0.00586978
0.00602137
0.00617285
0.00624606
0.00612552
0.00567594
0.0050641
0.00461253
0.00432033
0.00406537
0.00382469
0.0036185
0.00342378
0.00323912
0.00310661
0.00308378
0.00324088
0.00353454
0.00379958
0.00396686
0.00404227
0.00402917
0.00392597
0.00375567
0.00356485
0.00338434
0.00321308
0.00306588
0.0029879
0.00313115
0.00630679
0.00599935
0.00582465
0.00569327
0.00556221
0.00544777
0.00537605
0.00532636
0.00525601
0.00512686
0.00490281
0.00462116
0.00442436
0.00430349
0.00418281
0.00405972
0.00391465
0.00373504
0.00354128
0.0033625
0.0032342
0.00318661
0.00323756
0.00341708
0.00367269
0.0038751
0.0039651
0.00393471
0.00378948
0.00356301
0.00332352
0.00312897
0.00299372
0.00290143
0.00290994
0.00676465
0.00589973
0.00562182
0.00547691
0.00539495
0.00546124
0.0056428
0.00578685
0.00579458
0.0056324
0.00531732
0.00496607
0.00472727
0.00459298
0.00448154
0.0043716
0.00424732
0.00409327
0.0039101
0.0037108
0.00351487
0.00334596
0.00322888
0.0031824
0.00321554
0.00336773
0.00361785
0.00379936
0.00382206
0.00368681
0.00342815
0.00313122
0.00289838
0.00275363
0.00267359
0.0072633
0.00574332
0.00520618
0.00484721
0.00455779
0.00451601
0.00465119
0.00481682
0.00494909
0.0050359
0.00507318
0.00505916
0.00500823
0.00493392
0.00484244
0.00473291
0.00460052
0.00443801
0.00424462
0.0040277
0.00379853
0.00357394
0.00337659
0.00322996
0.00315375
0.00315685
0.00330642
0.00360897
0.00384298
0.00387803
0.00371921
0.00343097
0.00314084
0.0029323
0.0027547
0.00672281
0.00541065
0.0050039
0.00474586
0.00465514
0.00481854
0.0050063
0.0051159
0.00516587
0.00518988
0.00521514
0.00523384
0.0052272
0.00519017
0.00512382
0.00502983
0.00491037
0.00476093
0.00457614
0.00435924
0.00411726
0.00386138
0.00360833
0.00338063
0.00320335
0.00309252
0.00305842
0.00319793
0.00349287
0.00371739
0.00374896
0.00360997
0.00339595
0.00315573
0.0027845
0.00531579
0.00486031
0.00466008
0.00439217
0.00405095
0.00389369
0.00403258
0.00433029
0.00464398
0.00490133
0.00508559
0.00520622
0.00527625
0.00530395
0.0052942
0.00524988
0.00517389
0.00506765
0.00492719
0.00474918
0.00453573
0.00429171
0.00402607
0.00375304
0.00349282
0.00325672
0.00304245
0.00288802
0.00288648
0.00301793
0.00313339
0.00313427
0.00301952
0.00279234
0.00228248
0.00526801
0.00543957
0.00543936
0.00534415
0.00507486
0.00458731
0.00412075
0.00393357
0.00403592
0.00427832
0.00453324
0.00474922
0.00491775
0.00504305
0.00512991
0.00518119
0.00519807
0.00518076
0.0051294
0.00504364
0.00492235
0.00476568
0.00457648
0.00435864
0.00411091
0.00383173
0.00352956
0.00322226
0.00294136
0.0027291
0.0026004
0.00250972
0.00238753
0.00216353
0.00164278
0.00435809
0.00494882
0.0051385
0.00522063
0.00522154
0.00503002
0.00450648
0.00384152
0.00343796
0.00345163
0.00371304
0.00401513
0.00427437
0.0044838
0.00465192
0.00478665
0.00489205
0.00496898
0.00501615
0.00503144
0.00501291
0.00495945
0.00487103
0.00474904
0.00459253
0.00439736
0.00416106
0.00388542
0.00358088
0.00326488
0.00295452
0.00266008
0.00237594
0.00206204
0.00142776
0.00516799
0.0054214
0.00552389
0.00560043
0.00566124
0.00565745
0.0054526
0.00483306
0.00392934
0.00325161
0.00309238
0.00329659
0.00359344
0.00385522
0.00406467
0.00424178
0.00440293
0.00455072
0.00468073
0.00478781
0.00486668
0.0049133
0.00492534
0.00490184
0.00484207
0.00474433
0.0046074
0.00443161
0.00421873
0.00397019
0.00368259
0.00334319
0.00294143
0.00249535
0.00164486
0.00478663
0.0049226
0.00503079
0.00511716
0.00520608
0.00528234
0.00529956
0.00514687
0.00460609
0.00372506
0.00303928
0.00288524
0.00308202
0.00334286
0.00356491
0.00375809
0.0039464
0.00413864
0.00433758
0.00454257
0.00473594
0.00489585
0.00500849
0.00507071
0.00508565
0.00505754
0.00498912
0.00488166
0.00473444
0.00454208
0.00428839
0.00394074
0.00347558
0.00296206
0.0020621
0.00531574
0.005427
0.00550021
0.00555666
0.00561322
0.00566001
0.00565616
0.00555396
0.00527777
0.00464137
0.00365993
0.00287233
0.00265062
0.00279832
0.00302239
0.00322968
0.00343435
0.00367277
0.00397666
0.00433886
0.00468905
0.00495675
0.00512863
0.00522541
0.00526725
0.00526561
0.00522504
0.00514576
0.00502381
0.00484867
0.00459876
0.00424309
0.0037813
0.00330834
0.00254888
0.00508883
0.00507229
0.00515497
0.0052348
0.0053282
0.0054394
0.00553114
0.00554174
0.00543837
0.00516439
0.00453825
0.00354203
0.00271964
0.00246531
0.00257686
0.00277548
0.00298999
0.00324592
0.00358719
0.00402483
0.00448095
0.00483937
0.00506076
0.00517647
0.0052245
0.00522557
0.00518754
0.00511124
0.004992
0.00481905
0.00457547
0.0042469
0.00385522
0.00347121
0.00291407
0.00546543
0.00533725
0.00537613
0.00543129
0.00550206
0.00559176
0.00567485
0.00569969
0.00564015
0.00549219
0.00519969
0.00456093
0.00350911
0.00261534
0.00232084
0.00241446
0.00260765
0.00283311
0.0031145
0.00348201
0.00392152
0.00434475
0.00466304
0.00485186
0.00493663
0.00494884
0.0049083
0.00482371
0.00469583
0.00451905
0.00428372
0.00398635
0.00365811
0.00333851
0.00296369
0.00548733
0.00518488
0.00520293
0.00526134
0.00534248
0.00545216
0.00556997
0.00563677
0.00561939
0.00552726
0.00536469
0.00507611
0.00446462
0.00343007
0.00253319
0.00223373
0.00232281
0.00250699
0.00271872
0.00297145
0.00327867
0.003627
0.00396613
0.00423716
0.00441218
0.00449291
0.0044932
0.00442729
0.00430469
0.00412821
0.00389569
0.00360936
0.00330553
0.00302875
0.00282683
0.00551196
0.00527662
0.00533656
0.0054128
0.0054873
0.00556218
0.00565046
0.00572392
0.00573261
0.00567039
0.00555179
0.00537486
0.00508636
0.00450493
0.00349161
0.00256405
0.00221993
0.00228128
0.00244357
0.00262257
0.0028199
0.00304115
0.00328152
0.00352184
0.00373315
0.00388995
0.00397786
0.00399171
0.00393347
0.00380688
0.00361579
0.00336935
0.00310227
0.002861
0.00274154
0.00547756
0.0052872
0.00537854
0.00547219
0.00554759
0.00559742
0.00565048
0.00572686
0.00577332
0.00575374
0.00567361
0.00554281
0.00535418
0.00505775
0.0044971
0.00353495
0.00262675
0.00226274
0.0022938
0.00243077
0.00257672
0.00272322
0.00287333
0.00302763
0.0031825
0.00332842
0.00345124
0.0035357
0.00356875
0.00354133
0.00345017
0.0033018
0.00311891
0.00291878
0.00275671
0.00534345
0.0053128
0.00546176
0.00558347
0.00567379
0.00571343
0.00571754
0.0057517
0.0058038
0.00581622
0.00577248
0.00567975
0.00554106
0.0053431
0.00503323
0.00446985
0.00354525
0.00268642
0.00233474
0.00234907
0.00246698
0.00259006
0.0027042
0.00281057
0.00291145
0.00300882
0.00310254
0.00318854
0.00325819
0.00329921
0.00329898
0.00325081
0.00315912
0.00301042
0.0027755
0.00546147
0.00541343
0.0055508
0.00567855
0.00578841
0.00585071
0.00585193
0.00585255
0.00588684
0.00590792
0.0058839
0.00581557
0.00570891
0.00556154
0.00535415
0.00502734
0.00444433
0.00353778
0.00274506
0.00242539
0.00243044
0.00253318
0.00264266
0.00274088
0.00282625
0.00290038
0.00296631
0.00302711
0.00308367
0.00313239
0.0031636
0.00316407
0.00312386
0.0030161
0.00275742
0.00542777
0.00532492
0.00546288
0.00561191
0.00576429
0.00588541
0.00594314
0.0059643
0.00599071
0.00600569
0.0059848
0.00592579
0.00583355
0.00570859
0.00554224
0.0053069
0.00493237
0.00429023
0.00340495
0.00272816
0.00248932
0.00251146
0.00260982
0.00271348
0.00280517
0.00288169
0.00294363
0.00299352
0.00303451
0.00306815
0.00309144
0.00309493
0.0030667
0.00297996
0.00274558
0.00541369
0.00526564
0.00539028
0.00554157
0.00571211
0.00587242
0.00599289
0.00607464
0.00612953
0.00615132
0.00613298
0.00607754
0.00599105
0.0058762
0.0057297
0.00553776
0.00526312
0.00482442
0.00411582
0.00327489
0.00272232
0.00255941
0.00259889
0.00269658
0.00279783
0.00288624
0.00295718
0.00301034
0.00304757
0.003071
0.00308067
0.00307264
0.00304085
0.00296668
0.0027882
0.00511429
0.00505857
0.00521343
0.00538031
0.00556427
0.00574244
0.00590423
0.00605566
0.006179
0.00624786
0.00625881
0.00622165
0.00614695
0.00604109
0.0059051
0.00573236
0.00550261
0.00516853
0.00464319
0.00387589
0.00311103
0.00268653
0.00259113
0.00265155
0.00275756
0.00286487
0.00295708
0.00302808
0.00307632
0.00310234
0.00310687
0.0030904
0.00305531
0.00299543
0.00289377
0.00496016
0.00499523
0.00515611
0.00532
0.00549766
0.00565744
0.00579378
0.00594871
0.00612116
0.00625577
0.00632339
0.00632814
0.00628328
0.00619919