/*--------------------------------*- C++ -*----------------------------------*\
| =========                 |                                                 |
| \\      /  F ield         | OpenFOAM: The Open Source CFD Toolbox           |
|  \\    /   O peration     | Version:  v1906                                 |
|   \\  /    A nd           | Web:      www.OpenFOAM.com                      |
|    \\/     M anipulation  |                                                 |
\*---------------------------------------------------------------------------*/
FoamFile
{
    version     2.0;
    format      ascii;
    class       surfaceScalarField;
    location    "80";
    object      phi;
}
// * * * * * * * * * * * * * * * * * * * * * * * * * * * * * * * * * * * * * //

dimensions      [1 0 -1 0 0 0 0];
oriented        oriented;


internalField   nonuniform List<scalar> 
228225
(
-0.000279472
-2.68656e-05
-2.76384e-06
-0.000250188
-2.76505e-05
-1.5728e-06
-0.000219548
-2.90914e-05
-1.4896e-06
-0.000188904
-2.91913e-05
-1.39296e-06
-0.000161999
-2.57512e-05
-1.0924e-06
-0.000138528
-2.25552e-05
-8.54095e-07
-0.000118103
-1.97722e-05
-5.89864e-07
-9.98952e-05
-1.77011e-05
-4.42991e-07
-8.37424e-05
-1.57825e-05
-3.05099e-07
-6.92185e-05
-1.42419e-05
-2.16003e-07
-5.61307e-05
-1.28745e-05
-1.46044e-07
-4.42862e-05
-1.16862e-05
-8.98064e-08
-3.35423e-05
-1.06313e-05
-4.23909e-08
-2.38038e-05
-9.68723e-06
2.04007e-08
-1.49872e-05
-8.83678e-06
9.36507e-08
-7.02802e-06
-8.06672e-06
1.83045e-07
1.5233e-07
-7.36866e-06
2.66877e-07
6.61614e-06
-6.73213e-06
3.5081e-07
1.24123e-05
-6.14559e-06
4.36983e-07
1.75767e-05
-5.59929e-06
5.28918e-07
2.21401e-05
-5.0885e-06
6.26086e-07
2.61408e-05
-4.61907e-06
7.27558e-07
2.9629e-05
-4.20028e-06
8.31095e-07
3.26581e-05
-3.83461e-06
9.3625e-07
3.52798e-05
-3.51786e-06
1.04154e-06
3.75544e-05
-3.2395e-06
1.12836e-06
3.956e-05
-2.98414e-06
1.17113e-06
4.09187e-05
-2.7263e-06
1.59293e-06
4.06746e-05
-2.42317e-06
2.86271e-06
3.87481e-05
-1.89316e-06
3.89048e-06
3.56268e-05
-8.25734e-07
3.767e-06
3.14108e-05
1.04134e-06
2.83115e-06
2.50214e-05
3.69019e-06
2.28651e-06
1.4568e-05
7.72224e-06
2.25415e-06
1.27075e-05
1.88575e-06
-1.02015e-05
-1.77507e-05
1.21966e-06
-1.9466e-05
-1.99811e-05
1.63588e-06
-2.6647e-05
-2.32242e-05
1.29778e-06
-3.22774e-05
-2.46155e-05
1.0372e-06
-3.51716e-05
-2.3677e-05
8.29778e-07
-3.60835e-05
-2.22304e-05
6.06369e-07
-3.5396e-05
-2.07302e-05
3.00755e-07
-3.38912e-05
-1.91035e-05
-6.12578e-08
-3.1601e-05
-1.76442e-05
-3.79599e-07
-2.8694e-05
-1.63708e-05
-7.23054e-07
-2.52787e-05
-1.52112e-05
-1.0183e-06
-2.15082e-05
-1.41488e-05
-1.243e-06
-1.74932e-05
-1.31739e-05
-1.40412e-06
-1.33239e-05
-1.22786e-05
-1.50667e-06
-9.08023e-06
-1.14573e-05
-1.54956e-06
-4.8379e-06
-1.07032e-05
-1.5304e-06
-6.68912e-07
-1.00128e-05
-1.44803e-06
3.36048e-06
-9.3813e-06
-1.30256e-06
7.18392e-06
-8.79862e-06
-1.09261e-06
1.07167e-05
-8.24718e-06
-8.07072e-07
1.38562e-05
-7.70785e-06
-4.42102e-07
1.65552e-05
-7.18547e-06
-5.48509e-08
1.86427e-05
-6.69608e-06
4.85024e-07
2.01424e-05
-6.23214e-06
9.7256e-07
2.10659e-05
-5.7788e-06
1.4094e-06
2.143e-05
-5.31405e-06
1.77873e-06
2.12305e-05
-4.80809e-06
2.08722e-06
2.0453e-05
-4.22062e-06
2.33018e-06
1.91031e-05
-3.49255e-06
2.47147e-06
1.73697e-05
-2.54324e-06
2.42407e-06
1.57028e-05
-1.2348e-06
2.10185e-06
1.4199e-05
7.80812e-07
1.77093e-06
1.1818e-05
4.38575e-06
1.66134e-06
6.27445e-06
1.14946e-05
1.7349e-06
1.77472e-05
1.38066e-06
-1.27837e-05
-5.79993e-06
6.99034e-07
-1.91161e-05
-1.52912e-05
1.4494e-06
-2.46502e-05
-1.97107e-05
1.83809e-06
-2.91246e-05
-2.23394e-05
2.04692e-06
-3.11665e-05
-2.39154e-05
2.1604e-06
-3.13228e-05
-2.43324e-05
2.1618e-06
-3.03334e-05
-2.39015e-05
2.10362e-06
-2.86129e-05
-2.29011e-05
2.01488e-06
-2.64842e-05
-2.16849e-05
1.86054e-06
-2.41195e-05
-2.0399e-05
1.61966e-06
-2.15743e-05
-1.90944e-05
1.30087e-06
-1.88749e-05
-1.78078e-05
9.29107e-07
-1.60296e-05
-1.65621e-05
5.19508e-07
-1.30154e-05
-1.53688e-05
6.0138e-08
-9.95522e-06
-1.42364e-05
-2.89883e-07
-6.87551e-06
-1.3165e-05
-6.19541e-07
-3.83859e-06
-1.21564e-05
-8.88161e-07
-9.17096e-07
-1.12084e-05
-1.08286e-06
1.82239e-06
-1.03167e-05
-1.20444e-06
4.32115e-06
-9.47335e-06
-1.25159e-06
6.52873e-06
-8.6646e-06
-1.22652e-06
8.39287e-06
-7.88574e-06
-1.13625e-06
9.85737e-06
-7.14004e-06
-9.89693e-07
1.08816e-05
-6.42286e-06
-7.99515e-07
1.14531e-05
-5.72946e-06
-5.83518e-07
1.15962e-05
-5.05338e-06
-3.62903e-07
1.13691e-05
-4.37667e-06
-1.59613e-07
1.08647e-05
-3.66866e-06
1.85365e-09
1.01416e-05
-2.89332e-06
1.78257e-07
9.34594e-06
-1.9921e-06
3.0519e-07
8.54879e-06
-7.96819e-07
4.2718e-07
7.66636e-06
1.13984e-06
6.07474e-07
6.19962e-06
5.08621e-06
9.0314e-07
3.19515e-06
1.3473e-05
1.26249e-06
2.02124e-05
9.86233e-07
3.71515e-06
-1.13404e-05
1.80377e-06
6.40845e-06
-2.03836e-05
2.45444e-06
8.52525e-06
-2.37783e-05
2.07744e-06
9.83729e-06
-2.50585e-05
1.56865e-06
1.02069e-05
-2.53073e-05
1.19435e-06
1.00725e-05
-2.49725e-05
9.47734e-07
9.79876e-06
-2.42456e-05
7.85622e-07
9.64214e-06
-2.32686e-05
6.78875e-07
9.62552e-06
-2.2144e-05
6.12374e-07
9.71598e-06
-2.09475e-05
5.7422e-07
9.89484e-06
-1.97287e-05
5.51005e-07
1.01495e-05
-1.85129e-05
5.26306e-07
1.04742e-05
-1.73096e-05
4.81101e-07
1.08738e-05
-1.61233e-05
3.98272e-07
1.13614e-05
-1.49563e-05
2.6383e-07
1.19692e-05
-1.38096e-05
5.94316e-08
1.26675e-05
-1.26841e-05
-1.54165e-07
1.34553e-05
-1.15778e-05
-4.06426e-07
1.43222e-05
-1.04915e-05
-6.82735e-07
1.52371e-05
-9.42781e-06
-9.52939e-07
1.61567e-05
-8.38971e-06
-1.18804e-06
1.70308e-05
-7.37971e-06
-1.3746e-06
1.78072e-05
-6.39756e-06
-1.51425e-06
1.84343e-05
-5.43892e-06
-1.60736e-06
1.88598e-05
-4.50041e-06
-1.65154e-06
1.90288e-05
-3.57477e-06
-1.64491e-06
1.88828e-05
-2.64095e-06
-1.58726e-06
1.83581e-05
-1.66254e-06
-1.47878e-06
1.7382e-05
-5.95595e-07
-1.31781e-06
1.58493e-05
6.45316e-07
-1.09785e-06
1.36547e-05
2.21557e-06
-8.03318e-07
1.07183e-05
4.51109e-06
-3.98977e-07
6.94509e-06
8.76034e-06
2.10094e-07
2.68239e-06
1.69271e-05
1.08685e-06
2.22076e-05
9.89071e-07
1.06576e-06
-1.37994e-05
1.49588e-06
6.8173e-07
-2.1738e-05
1.95512e-06
-5.90504e-07
-2.42023e-05
1.91419e-06
-2.07643e-06
-2.51183e-05
1.74854e-06
-3.45045e-06
-2.53102e-05
1.56494e-06
-4.59612e-06
-2.50391e-05
1.38737e-06
-5.46364e-06
-2.44348e-05
1.22147e-06
-6.04723e-06
-2.35954e-05
1.06764e-06
-6.35576e-06
-2.26095e-05
9.25216e-07
-6.40491e-06
-2.15471e-05
7.93905e-07
-6.21745e-06
-2.04513e-05
6.73051e-07
-5.8188e-06
-1.93428e-05
5.60251e-07
-5.2337e-06
-1.82283e-05
4.52005e-07
-4.48697e-06
-1.71083e-05
3.44888e-07
-3.6009e-06
-1.59812e-05
2.3276e-07
-2.58851e-06
-1.48442e-05
1.03546e-07
-1.46211e-06
-1.36959e-05
-4.53856e-08
-2.41575e-07
-1.25358e-05
-2.0458e-07
1.07666e-06
-1.13643e-05
-3.97483e-07
2.48694e-06
-1.01826e-05
-6.16198e-07
3.97068e-06
-8.99133e-06
-8.50202e-07
5.49273e-06
-7.79167e-06
-1.08434e-06
7.00268e-06
-6.58607e-06
-1.30087e-06
8.43965e-06
-5.37715e-06
-1.48258e-06
9.73978e-06
-4.16578e-06
-1.62244e-06
1.08388e-05
-2.94751e-06
-1.71749e-06
1.16738e-05
-1.70986e-06
-1.76052e-06
1.21789e-05
-4.225e-07
-1.74266e-06
1.22971e-05
9.41966e-07
-1.65593e-06
1.19526e-05
2.48177e-06
-1.49335e-06
1.10335e-05
4.38063e-06
-1.24409e-06
9.29727e-06
7.14114e-06
-8.72755e-07
6.27777e-06
1.21735e-05
-2.93527e-07
2.30434e-06
2.05424e-05
6.3784e-07
2.39714e-05
8.56751e-07
5.7643e-07
-1.55017e-05
1.08802e-06
5.87805e-07
-2.35634e-05
1.71516e-06
4.56016e-07
-2.61215e-05
1.93152e-06
4.77278e-07
-2.71071e-05
1.84299e-06
7.28529e-07
-2.73597e-05
1.67674e-06
1.19545e-06
-2.71224e-05
1.50454e-06
1.81762e-06
-2.64943e-05
1.34252e-06
2.5094e-06
-2.55538e-05
1.19575e-06
3.18806e-06
-2.43972e-05
1.06672e-06
3.79715e-06
-2.31252e-05
9.56128e-07
4.31333e-06
-2.18159e-05
8.62364e-07
4.74042e-06
-2.05155e-05
7.81886e-07
5.09921e-06
-1.92441e-05
7.09962e-07
5.41891e-06
-1.80056e-05
6.41196e-07
5.73055e-06
-1.67941e-05
5.70144e-07
6.06306e-06
-1.55991e-05
4.91432e-07
6.44061e-06
-1.44083e-05
4.00082e-07
6.88059e-06
-1.32097e-05
2.92187e-07
7.3956e-06
-1.1992e-05
1.62082e-07
8.00499e-06
-1.07443e-05
-7.74606e-09
8.6809e-06
-9.45599e-06
-1.80915e-07
9.43189e-06
-8.11575e-06
-4.05282e-07
1.02423e-05
-6.71613e-06
-6.66205e-07
1.10773e-05
-5.25462e-06
-9.49674e-07
1.18808e-05
-3.73389e-06
-1.23276e-06
1.25787e-05
-2.1605e-06
-1.48677e-06
1.30975e-05
-5.44005e-07
-1.69063e-06
1.33631e-05
1.1318e-06
-1.83019e-06
1.32904e-05
2.88557e-06
-1.88544e-06
1.27844e-05
4.79961e-06
-1.83069e-06
1.16815e-05
7.08647e-06
-1.62476e-06
9.68649e-06
1.033e-05
-1.21165e-06
6.37134e-06
1.6046e-05
-5.37891e-07
2.32989e-06
2.43854e-05
3.42209e-07
2.58766e-05
6.65049e-07
4.32685e-09
-1.69352e-05
1.31276e-06
-1.5295e-07
-2.59295e-05
2.29028e-06
-3.44429e-07
-2.86538e-05
2.4355e-06
-3.36843e-07
-2.97175e-05
2.28578e-06
-7.04457e-08
-3.00387e-05
2.07977e-06
4.65004e-07
-2.98385e-05
1.84275e-06
1.25352e-06
-2.91932e-05
1.57893e-06
2.24274e-06
-2.81639e-05
1.30878e-06
3.34077e-06
-2.68299e-05
1.05447e-06
4.43321e-06
-2.52881e-05
8.32312e-07
5.41375e-06
-2.36365e-05
6.4979e-07
6.2097e-06
-2.19586e-05
5.06007e-07
6.78995e-06
-2.03174e-05
3.98344e-07
7.16151e-06
-1.87532e-05
3.22893e-07
7.36144e-06
-1.72851e-05
2.7262e-07
7.4451e-06
-1.59127e-05
2.38736e-07
7.47451e-06
-1.46213e-05
2.12131e-07
7.50901e-06
-1.33869e-05
1.84238e-07
7.6005e-06
-1.21821e-05
1.46716e-07
7.79163e-06
-1.0977e-05
9.08989e-08
8.11949e-06
-9.7404e-06
3.01028e-09
8.57183e-06
-8.44071e-06
-8.72739e-08
9.14907e-06
-7.04561e-06
-2.16359e-07
9.82409e-06
-5.52616e-06
-3.82205e-07
1.05484e-05
-3.85984e-06
-5.87972e-07
1.12542e-05
-2.03394e-06
-8.33348e-07
1.18004e-05
-7.24683e-10
-1.10202e-06
1.22212e-05
2.05018e-06
-1.364e-06
1.23545e-05
4.29878e-06
-1.58414e-06
1.20728e-05
6.75575e-06
-1.72608e-06
1.11728e-05
9.65661e-06
-1.73728e-06
9.25498e-06
1.36786e-05
-1.51276e-06
5.85945e-06
2.0248e-05
-8.80394e-07
2.07881e-06
2.81479e-05
6.07617e-08
2.76441e-05
5.13241e-07
-1.48517e-06
-1.70601e-05
1.44418e-06
-2.23255e-06
-2.78774e-05
2.35987e-06
-2.44576e-06
-3.16793e-05
2.83123e-06
-2.20163e-06
-3.33945e-05
2.98952e-06
-1.50523e-06
-3.4174e-05
2.97048e-06
-3.72383e-07
-3.43155e-05
2.85374e-06
1.16227e-06
-3.39099e-05
2.67186e-06
3.04358e-06
-3.30037e-05
2.43345e-06
5.19162e-06
-3.16457e-05
2.1388e-06
7.4789e-06
-2.99038e-05
1.81142e-06
9.74171e-06
-2.78651e-05
1.47917e-06
1.18085e-05
-2.56295e-05
1.16483e-06
1.35306e-05
-2.33027e-05
8.84179e-07
1.48072e-05
-2.09881e-05
6.46321e-07
1.56001e-05
-1.87768e-05
4.5403e-07
1.59362e-05
-1.67355e-05
3.04133e-07
1.58949e-05
-1.4898e-05
1.88951e-07
1.55834e-05
-1.32626e-05
1.02148e-07
1.51117e-05
-1.17983e-05
3.76637e-08
1.45726e-05
-1.04561e-05
-5.82677e-09
1.40388e-05
-9.17939e-06
-3.26702e-08
1.35776e-05
-7.91024e-06
-6.24279e-08
1.3239e-05
-6.59018e-06
-1.03347e-07
1.30524e-05
-5.15854e-06
-1.65851e-07
1.30191e-05
-3.55433e-06
-2.59931e-07
1.31099e-05
-1.72478e-06
-3.94593e-07
1.33297e-05
3.52025e-07
-5.7774e-07
1.33931e-05
2.77517e-06
-8.07953e-07
1.32562e-05
5.46054e-06
-1.06301e-06
1.27813e-05
8.4711e-06
-1.30237e-06
1.17813e-05
1.20351e-05
-1.47097e-06
9.86927e-06
1.69332e-05
-1.47601e-06
6.38173e-06
2.46888e-05
-1.13352e-06
2.39759e-06
3.2341e-05
-3.44051e-07
2.99384e-05
1.84954e-07
-2.05174e-06
-1.66165e-05
1.43717e-06
-2.74807e-06
-2.96315e-05
2.19609e-06
-2.23657e-06
-3.48566e-05
2.45075e-06
-1.15167e-06
-3.72522e-05
2.6085e-06
2.15778e-07
-3.83595e-05
2.68756e-06
1.75053e-06
-3.86755e-05
2.70333e-06
3.4228e-06
-3.83932e-05
2.66924e-06
5.25156e-06
-3.7617e-05
2.59597e-06
7.26949e-06
-3.64099e-05
2.49039e-06
9.4945e-06
-3.48079e-05
2.34688e-06
1.19001e-05
-3.28345e-05
2.16032e-06
1.43946e-05
-3.05165e-05
1.93599e-06
1.68257e-05
-2.79009e-05
1.68553e-06
1.90058e-05
-2.50666e-05
1.42363e-06
2.07508e-05
-2.21253e-05
1.16542e-06
2.19231e-05
-1.92113e-05
9.23877e-07
2.2466e-05
-1.64593e-05
7.07638e-07
2.2415e-05
-1.39755e-05
5.2099e-07
2.18802e-05
-1.18116e-05
3.64858e-07
2.10082e-05
-9.95472e-06
2.35843e-07
1.99432e-05
-8.34203e-06
1.31046e-07
1.88071e-05
-6.88995e-06
4.82772e-08
1.76971e-05
-5.51214e-06
-1.40659e-08
1.66904e-05
-4.12242e-06
-6.05992e-08
1.58482e-05
-2.6275e-06
-1.06985e-07
1.518e-05
-9.09802e-07
-1.65964e-07
1.46477e-05
1.11853e-06
-2.56445e-07
1.42376e-05
3.55499e-06
-4.02305e-07
1.37296e-05
6.53455e-06
-6.20453e-07
1.28136e-05
1.01879e-05
-8.99118e-07
1.09842e-05
1.48522e-05
-1.17294e-06
7.70103e-06
2.11669e-05
-1.29085e-06
3.5975e-06
2.93277e-05
-1.02884e-06
9.08859e-07
3.50768e-05
-3.76548e-07
3.08318e-05
1.09566e-07
-1.2632e-06
-1.66174e-05
1.20826e-06
-5.67098e-07
-3.1935e-05
1.81092e-06
1.43159e-06
-3.81878e-05
1.83462e-06
3.77808e-06
-4.06112e-05
1.71709e-06
6.03009e-06
-4.13774e-05
1.5922e-06
7.98338e-06
-4.12326e-05
1.4905e-06
9.56309e-06
-4.04998e-05
1.41767e-06
1.07996e-05
-3.93863e-05
1.37345e-06
1.18013e-05
-3.80249e-05
1.35386e-06
1.27197e-05
-3.64791e-05
1.35189e-06
1.37079e-05
-3.47526e-05
1.35812e-06
1.48848e-05
-3.28096e-05
1.35864e-06
1.63017e-05
-3.05997e-05
1.34099e-06
1.79178e-05
-2.80845e-05
1.29807e-06
1.95965e-05
-2.52605e-05
1.227e-06
2.1128e-05
-2.21776e-05
1.12775e-06
2.22828e-05
-1.89501e-05
1.00295e-06
2.28809e-05
-1.57483e-05
8.58948e-07
2.28498e-05
-1.27575e-05
7.05674e-07
2.22375e-05
-1.01137e-05
5.52808e-07
2.11734e-05
-7.85631e-06
4.08821e-07
1.98089e-05
-5.93617e-06
2.81557e-07
1.82786e-05
-4.25516e-06
1.76161e-07
1.66927e-05
-2.70267e-06
9.42085e-08
1.5149e-05
-1.17013e-06
3.39377e-08
1.37424e-05
4.69544e-07
-1.06886e-08
1.246e-05
2.4181e-06
-4.52104e-08
1.12814e-05
4.8028e-06
-9.09857e-08
1.01799e-05
7.79721e-06
-1.78297e-07
9.20307e-06
1.14977e-05
-3.45866e-07
8.41752e-06
1.62292e-05
-6.07463e-07
7.24414e-06
2.31683e-05
-8.61594e-07
4.5369e-06
3.28138e-05
-8.11578e-07
1.86227e-06
3.82243e-05
-4.52249e-07
3.28696e-05
-4.27198e-08
3.03351e-06
-1.97567e-05
2.89973e-07
7.42894e-06
-3.57215e-05
1.32373e-07
1.1333e-05
-4.10068e-05
-3.06229e-09
1.43543e-05
-4.22721e-05
-1.12453e-07
1.65344e-05
-4.19718e-05
-2.43995e-07
1.79162e-05
-4.08282e-05
-3.80719e-07
1.85867e-05
-3.92187e-05
-5.08861e-07
1.86731e-05
-3.74181e-05
-6.06596e-07
1.83163e-05
-3.55929e-05
-6.57218e-07
1.76672e-05
-3.38217e-05
-6.57515e-07
1.68888e-05
-3.21197e-05
-6.08818e-07
1.61528e-05
-3.04575e-05
-5.11798e-07
1.56331e-05
-2.87723e-05
-3.77124e-07
1.54733e-05
-2.6979e-05
-2.13903e-07
1.57466e-05
-2.49829e-05
-3.14261e-08
1.64281e-05
-2.26989e-05
1.49015e-07
1.73604e-05
-2.00819e-05
3.2103e-07
1.83017e-05
-1.71669e-05
4.53929e-07
1.90027e-05
-1.4097e-05
5.24955e-07
1.93039e-05
-1.10932e-05
5.2673e-07
1.918e-05
-8.35768e-06
4.7127e-07
1.87042e-05
-5.98089e-06
3.81524e-07
1.79815e-05
-3.93084e-06
2.79119e-07
1.71099e-05
-2.10989e-06
1.78385e-07
1.61996e-05
-4.30776e-07
8.71232e-08
1.52136e-05
1.37451e-06
1.09409e-08
1.4274e-05
3.35945e-06
-6.15268e-08
1.33798e-05
5.76938e-06
-1.26761e-07
1.23949e-05
8.92726e-06
-1.97341e-07
1.09982e-05
1.31496e-05
-2.99854e-07
9.02587e-06
1.86371e-05
-4.59335e-07
6.7562e-06
2.60676e-05
-6.67566e-07
4.06077e-06
3.61145e-05
-7.44916e-07
1.72039e-06
4.09556e-05
-5.10069e-07
3.47595e-05
-1.11337e-07
7.17493e-06
-2.60532e-05
-5.30333e-07
1.17548e-05
-3.89888e-05
-6.25457e-07
1.35331e-05
-4.14567e-05
-6.48123e-07
1.37975e-05
-4.11547e-05
-7.53897e-07
1.31299e-05
-3.97541e-05
-9.36595e-07
1.19353e-05
-3.78356e-05
-1.17256e-06
1.05583e-05
-3.57786e-05
-1.41526e-06
9.2135e-06
-3.37633e-05
-1.63116e-06
7.98858e-06
-3.18433e-05
-1.80777e-06
6.89529e-06
-3.00286e-05
-1.94256e-06
5.92202e-06
-2.83179e-05
-2.03546e-06
5.06832e-06
-2.6702e-05
-2.08451e-06
4.36303e-06
-2.51599e-05
-2.08415e-06
3.86782e-06
-2.36541e-05
-2.02581e-06
3.6656e-06
-2.21276e-05
-1.89861e-06
3.83473e-06
-2.05039e-05
-1.69305e-06
4.40974e-06
-1.86922e-05
-1.40937e-06
5.34011e-06
-1.66117e-05
-1.06874e-06
6.47621e-06
-1.42401e-05
-7.1791e-07
7.61351e-06
-1.16635e-05
-4.14866e-07
8.57893e-06
-9.06287e-06
-1.98592e-07
9.28791e-06
-6.61487e-06
-7.15337e-08
9.73872e-06
-4.39309e-06
-1.90083e-08
9.94795e-06
-2.35081e-06
-1.73485e-08
9.8189e-06
-3.12804e-07
-4.6692e-08
9.69725e-06
1.52796e-06
-9.21203e-08
9.55537e-06
3.58442e-06
-1.43792e-07
9.45385e-06
6.00897e-06
-2.03209e-07
9.35093e-06
9.22148e-06
-2.78076e-07
8.74398e-06
1.39959e-05
-3.86806e-07
6.58993e-06
2.10849e-05
-5.50333e-07
2.7394e-06
3.02146e-05
-7.00014e-07
-1.95099e-07
3.92865e-05
-7.17212e-07
-6.27033e-07
4.16771e-05
-5.53794e-07
3.4515e-05
-2.98366e-07
4.98422e-06
-3.05524e-05
-8.27075e-08
3.55407e-06
-3.78731e-05
5.92497e-07
-4.60761e-07
-3.79989e-05
6.32422e-07
-5.11642e-06
-3.68737e-05
3.52039e-07
-9.5281e-06
-3.53477e-05
-7.19822e-08
-1.30809e-05
-3.38503e-05
-5.51286e-07
-1.55927e-05
-3.24704e-05
-9.31556e-07
-1.71106e-05
-3.1146e-05
-1.22252e-06
-1.7782e-05
-2.98123e-05
-1.44789e-06
-1.77764e-05
-2.8443e-05
-1.62893e-06
-1.72575e-05
-2.70336e-05
-1.78115e-06
-1.63781e-05
-2.55813e-05
-1.91412e-06
-1.52721e-05
-2.40823e-05
-2.03358e-06
-1.40405e-05
-2.25344e-05
-2.14072e-06
-1.27392e-05
-2.09359e-05
-2.22853e-06
-1.13761e-05
-1.92799e-05
-2.2789e-06
-9.92168e-06
-1.7547e-05
-2.26361e-06
-8.33861e-06
-1.5701e-05
-2.15272e-06
-6.62693e-06
-1.37e-05
-1.93379e-06
-4.85812e-06
-1.15305e-05
-1.63221e-06
-3.16083e-06
-9.24421e-06
-1.30801e-06
-1.66078e-06
-6.9468e-06
-1.02036e-06
-4.29766e-07
-4.72996e-06
-7.95305e-07
5.278e-07
-2.61722e-06
-6.27999e-07
1.33796e-06
-5.80554e-07
-5.03877e-07
1.71867e-06
1.58225e-06
-4.11764e-07
1.78056e-06
3.88605e-06
-3.44363e-07
1.61746e-06
6.49897e-06
-2.95252e-07
1.47545e-06
9.69217e-06
-2.58994e-07
1.78088e-06
1.40738e-05
-2.36482e-07
2.63153e-06
2.07819e-05
-2.56507e-07
3.05405e-06
3.06804e-05
-3.37095e-07
2.17454e-06
4.12396e-05
-3.91814e-07
1.33503e-06
4.3549e-05
-4.67357e-07
3.65154e-05
-2.952e-07
-4.55115e-06
-2.68839e-05
1.01593e-06
-1.19521e-05
-3.23632e-05
1.90341e-06
-1.89273e-05
-3.27824e-05
1.71954e-06
-2.4588e-05
-3.24894e-05
1.18758e-06
-2.86379e-05
-3.20802e-05
6.41255e-07
-3.11981e-05
-3.16877e-05
2.25887e-07
-3.25368e-05
-3.12068e-05
-1.11392e-07
-3.29179e-05
-3.056e-05
-3.96793e-07
-3.2534e-05
-2.97577e-05
-6.276e-07
-3.14894e-05
-2.8854e-05
-8.12146e-07
-2.98526e-05
-2.78769e-05
-9.54087e-07
-2.76956e-05
-2.68098e-05
-1.06383e-06
-2.51117e-05
-2.56131e-05
-1.15646e-06
-2.22202e-05
-2.42477e-05
-1.24406e-06
-1.91564e-05
-2.26904e-05
-1.33402e-06
-1.60471e-05
-2.094e-05
-1.43135e-06
-1.29844e-05
-1.90162e-05
-1.53374e-06
-1.00069e-05
-1.69529e-05
-1.62691e-06
-7.09744e-06
-1.47926e-05
-1.68583e-06
-4.22301e-06
-1.25714e-05
-1.6824e-06
-1.40241e-06
-1.03089e-05
-1.60222e-06
1.27102e-06
-8.02305e-06
-1.4592e-06
3.68243e-06
-5.74127e-06
-1.28976e-06
5.7527e-06
-3.47859e-06
-1.12975e-06
7.41316e-06
-1.19263e-06
-9.98783e-07
8.77308e-06
1.14598e-06
-9.01931e-07
9.721e-06
3.77148e-06
-8.40312e-07
1.00838e-05
6.91424e-06
-8.17586e-07
9.67099e-06
1.08636e-05
-8.35637e-07
8.41172e-06
1.60867e-05
-8.79758e-07
6.31901e-06
2.35713e-05
-9.09214e-07
3.6498e-06
3.39832e-05
-8.81656e-07
1.61486e-06
4.39271e-05
-6.44863e-07
3.16561e-07
4.55002e-05
-5.39649e-07
3.74046e-05
-4.22406e-07
-7.60338e-06
-2.13042e-05
1.84186e-06
-1.28289e-05
-2.9887e-05
2.71343e-06
-1.64585e-05
-3.16413e-05
2.49208e-06
-1.89401e-05
-3.20822e-05
2.10122e-06
-2.07722e-05
-3.19466e-05
1.74795e-06
-2.23848e-05
-3.1455e-05
1.43724e-06
-2.39142e-05
-3.07704e-05
1.14088e-06
-2.52828e-05
-3.00027e-05
8.34578e-07
-2.63305e-05
-2.92417e-05
5.22424e-07
-2.69087e-05
-2.85523e-05
2.34491e-07
-2.69006e-05
-2.79419e-05
-1.27554e-08
-2.62188e-05
-2.73643e-05
-2.1751e-07
-2.48207e-05
-2.67434e-05
-3.69766e-07
-2.2701e-05
-2.59882e-05
-4.83508e-07
-1.99153e-05
-2.5e-05
-5.71673e-07
-1.6596e-05
-2.36865e-05
-6.48165e-07
-1.29444e-05
-2.19865e-05
-7.26518e-07
-9.20898e-06
-1.98856e-05
-8.10977e-07
-5.63732e-06
-1.74491e-05
-8.84872e-07
-2.39775e-06
-1.48133e-05
-9.33655e-07
4.16778e-07
-1.20848e-05
-9.50489e-07
2.73728e-06
-9.31856e-06
-9.26045e-07
4.51015e-06
-6.5665e-06
-8.54133e-07
5.74266e-06
-3.89655e-06
-7.40835e-07
6.48214e-06
-1.28033e-06
-6.05928e-07
6.95396e-06
1.1647e-06
-4.75719e-07
7.3439e-06
3.73251e-06
-3.7182e-07
7.50586e-06
7.00321e-06
-3.1844e-07
7.10979e-06
1.14748e-05
-3.44701e-07
5.70892e-06
1.774e-05
-4.52279e-07
3.15737e-06
2.64247e-05
-5.95811e-07
-5.12171e-08
3.75463e-05
-8.35902e-07
-1.38558e-06
4.58962e-05
-1.04954e-06
-1.27859e-06
4.61839e-05
-1.00894e-06
3.68605e-05
-7.82957e-07
-8.77141e-07
-2.23064e-05
1.72401e-06
-6.93217e-07
-3.21114e-05
1.94272e-06
-6.0874e-08
-3.36762e-05
1.45932e-06
3.95297e-07
-3.33887e-05
1.03627e-06
2.79968e-07
-3.23193e-05
7.81264e-07
-5.44874e-07
-3.09266e-05
6.65013e-07
-2.02959e-06
-2.95095e-05
6.28555e-07
-4.00685e-06
-2.8241e-05
6.18835e-07
-6.26922e-06
-2.7211e-05
6.02768e-07
-8.62041e-06
-2.64537e-05
5.70579e-07
-1.08775e-05
-2.59596e-05
5.28461e-07
-1.2859e-05
-2.56817e-05
4.84879e-07
-1.43793e-05
-2.55456e-05
4.4177e-07
-1.52476e-05
-2.54568e-05
3.91201e-07
-1.52706e-05
-2.53006e-05
3.13831e-07
-1.42678e-05
-2.49393e-05
1.84396e-07
-1.21395e-05
-2.42143e-05
-3.66188e-09
-8.98726e-06
-2.29287e-05
-2.2649e-07
-5.10296e-06
-2.09411e-05
-4.93414e-07
-8.4634e-07
-1.8412e-05
-7.15984e-07
3.42258e-06
-1.55123e-05
-8.43106e-07
7.26999e-06
-1.22229e-05
-8.86519e-07
1.0165e-05
-8.48983e-06
-8.69917e-07
1.16786e-05
-4.48685e-06
-8.02384e-07
1.18441e-05
-6.41803e-07
-6.87663e-07
1.07128e-05
2.93402e-06
-5.36682e-07
8.932e-06
5.96317e-06
-3.62075e-07
7.23445e-06
8.97763e-06
-1.90096e-07
6.1353e-06
1.27464e-05
-7.30459e-08
5.86165e-06
1.82064e-05
-4.4494e-08
6.57793e-06
2.61184e-05
-2.75801e-08
7.47334e-06
3.74738e-05
7.0778e-09
5.99109e-06
4.83908e-05
-1.98909e-07
3.38218e-06
4.9874e-05
-5.10245e-07
4.1006e-05
-4.26336e-07
1.91544e-06
-2.49035e-05
7.09616e-07
3.56327e-06
-3.32095e-05
-5.06055e-07
5.51463e-06
-3.41037e-05
-1.43572e-06
7.75191e-06
-3.34273e-05
-2.05511e-06
1.01461e-05
-3.21165e-05
-2.38701e-06
1.25158e-05
-3.05615e-05
-2.44077e-06
1.46346e-05
-2.8984e-05
-2.25155e-06
1.62659e-05
-2.74999e-05
-1.87774e-06
1.72005e-05
-2.61731e-05
-1.38852e-06
1.72887e-05
-2.50434e-05
-8.53194e-07
1.64659e-05
-2.41368e-05
-3.29597e-07
1.47239e-05
-2.34681e-05
1.85503e-07
1.2179e-05
-2.30405e-05
6.48013e-07
9.05894e-06
-2.28474e-05
1.03753e-06
5.69139e-06
-2.28698e-05
1.35156e-06
2.52519e-06
-2.30695e-05
1.57814e-06
1.31809e-07
-2.33787e-05
1.70239e-06
-8.52034e-07
-2.36539e-05
1.67883e-06
1.44513e-07
-2.36148e-05
1.44264e-06
3.44125e-06
-2.31509e-05
1.07657e-06
8.98176e-06
-2.21568e-05
6.79361e-07
1.62637e-05
-2.0173e-05
2.5781e-07
2.38461e-05
-1.61749e-05
-1.87305e-07
3.01269e-05
-1.02611e-05
-6.06081e-07
3.41832e-05
-3.73034e-06
-9.00344e-07
3.57943e-05
2.48838e-06
-1.01809e-06
3.53384e-05
7.57598e-06
-9.8066e-07
3.41918e-05
1.12229e-05
-8.81025e-07
3.2989e-05
1.50009e-05
-8.11104e-07
3.05736e-05
2.1485e-05
-8.66185e-07
2.49414e-05
3.22558e-05
-1.0962e-06
1.74926e-05
4.49809e-05
-1.07842e-06
1.05e-05
5.53352e-05
-7.77238e-07
4.48302e-06
5.62735e-05
-8.63797e-07
4.59916e-05
-5.8366e-07
1.37029e-06
-2.58941e-05
-3.12154e-07
2.71009e-06
-3.28761e-05
-1.58507e-06
4.28531e-06
-3.3389e-05
-2.24077e-06
6.26965e-06
-3.275e-05
-2.66468e-06
8.75833e-06
-3.16888e-05
-2.96925e-06
1.17522e-05
-3.04856e-05
-3.15784e-06
1.51539e-05
-2.92662e-05
-3.21736e-06
1.87911e-05
-2.80722e-05
-3.13702e-06
2.24372e-05
-2.69106e-05
-2.91156e-06
2.58298e-05
-2.57801e-05
-2.5443e-06
2.86903e-05
-2.46831e-05
-2.05131e-06
3.07458e-05
-2.36286e-05
-1.4594e-06
3.17498e-05
-2.26315e-05
-7.99079e-07
3.1505e-05
-2.17141e-05
-1.04993e-07
2.98213e-05
-2.09141e-05
6.512e-07
2.66949e-05
-2.03025e-05
1.3582e-06
2.23386e-05
-2.00238e-05
1.97354e-06
1.73694e-05
-2.03115e-05
2.44002e-06
1.28769e-05
-2.13523e-05
2.74684e-06
1.02191e-05
-2.32683e-05
2.93079e-06
1.07505e-05
-2.59062e-05
3.02032e-06
1.4674e-05
-2.76339e-05
2.93547e-06
2.04958e-05
-2.52339e-05
2.42537e-06
2.61148e-05
-1.80943e-05
1.4978e-06
2.99795e-05
-8.56812e-06
4.77759e-07
3.14807e-05
1.07139e-06
-4.20006e-07
3.04145e-05
9.33506e-06
-9.99968e-07
2.71479e-05
1.54382e-05
-1.18505e-06
2.19606e-05
2.1039e-05
-1.0738e-06
1.42571e-05
2.91484e-05
-7.12939e-07
4.38799e-06
4.12601e-05
-7.00909e-07
-4.02044e-06
5.24481e-05
-1.07784e-06
-6.31634e-06
5.73865e-05
-1.16075e-06
-4.96577e-06
5.52341e-05
-1.22555e-06
4.15255e-05
-1.05994e-06
8.31436e-07
-2.58747e-05
-7.63609e-07
1.18565e-06
-3.19959e-05
-1.10215e-06
1.36857e-06
-3.2286e-05
-1.16023e-06
1.67062e-06
-3.16063e-05
-1.33643e-06
2.20557e-06
-3.05703e-05
-1.56941e-06
3.02187e-06
-2.94374e-05
-1.81764e-06
4.14391e-06
-2.83371e-05
-2.05167e-06
5.5795e-06
-2.73174e-05
-2.24522e-06
7.3187e-06
-2.63846e-05
-2.3759e-06
9.33058e-06
-2.55276e-05
-2.42662e-06
1.15585e-05
-2.47283e-05
-2.38567e-06
1.39147e-05
-2.39649e-05
-2.24531e-06
1.62756e-05
-2.32123e-05
-1.99909e-06
1.84729e-05
-2.24422e-05
-1.63847e-06
2.02816e-05
-2.16261e-05
-1.15023e-06
2.14143e-05
-2.07565e-05
-5.22204e-07
2.15209e-05
-1.99064e-05
2.49966e-07
2.02278e-05
-1.92581e-05
1.09183e-06
1.71338e-05
-1.90019e-05
1.95351e-06
1.17971e-05
-1.93185e-05
2.83881e-06
3.74054e-06
-2.0169e-05
3.72453e-06
-6.22371e-06
-2.11507e-05
4.41315e-06
-1.32611e-05
-2.22551e-05
4.33609e-06
-1.27614e-05
-2.19564e-05
3.28351e-06
-7.727e-06
-1.55879e-05
1.98279e-06
-3.89204e-06
-3.58093e-06
8.09096e-07
-3.37288e-06
8.47873e-06
-1.35777e-07
-7.09872e-06
1.8612e-05
-7.00158e-07
-1.52612e-05
2.77854e-05
-6.28346e-07
-2.51972e-05
3.66411e-05
5.63116e-08
-3.08996e-05
4.48025e-05
4.38508e-07
-2.9103e-05
4.98753e-05
-1.31036e-07
-2.17542e-05
5.05425e-05
-1.04803e-06
-1.19055e-05
4.64202e-05
-1.43953e-06
3.05819e-05
-1.27862e-06
4.19006e-07
-2.53116e-05
-7.9762e-07
-8.69524e-07
-2.99366e-05
-5.86442e-07
-2.16331e-06
-3.0013e-05
-8.01832e-07
-3.12471e-06
-2.92866e-05
-1.17252e-06
-3.73177e-06
-2.82356e-05
-1.5285e-06
-4.01737e-06
-2.71031e-05
-1.8387e-06
-4.03754e-06
-2.60074e-05
-2.0955e-06
-3.86277e-06
-2.49904e-05
-2.29225e-06
-3.57131e-06
-2.40603e-05
-2.41997e-06
-3.2408e-06
-2.32144e-05
-2.47038e-06
-2.93804e-06
-2.24479e-05
-2.44004e-06
-2.70889e-06
-2.17547e-05
-2.33251e-06
-2.57115e-06
-2.1126e-05
-2.157e-06
-2.5122e-06
-2.05496e-05
-1.92475e-06
-2.49464e-06
-2.00089e-05
-1.64527e-06
-2.48747e-06
-1.94811e-05
-1.32356e-06
-2.565e-06
-1.8934e-05
-9.55292e-07
-3.04197e-06
-1.832e-05
-5.23324e-07
-4.49612e-06
-1.75644e-05
-2.04399e-08
-7.94388e-06
-1.65235e-05
6.6906e-07
-1.46622e-05
-1.5067e-05
1.61401e-06
-2.53794e-05
-1.38876e-05
3.04693e-06
-3.83977e-05
-1.50193e-05
4.77148e-06
-4.80522e-05
-1.76576e-05
5.51351e-06
-5.00125e-05
-1.63316e-05
4.89599e-06
-4.44962e-05
-1.01473e-05
3.76864e-06
-3.58427e-05
-5.26784e-07
2.55091e-06
-2.7893e-05
1.04463e-05
1.53473e-06
-2.34666e-05
2.26096e-05
8.85346e-07
-2.29678e-05
3.42697e-05
7.86532e-07
-2.35086e-05
4.26692e-05
9.88406e-07
-2.12182e-05
4.56579e-05
5.71057e-07
-1.52472e-05
4.43908e-05
-5.80594e-07
-7.41991e-06
3.9744e-05
-1.44862e-06
2.40661e-05
-8.79446e-07
-9.84997e-07
-2.42307e-05
-5.69053e-08
-3.27724e-06
-2.83561e-05
6.86431e-07
-5.31682e-06
-2.83552e-05
3.38466e-07
-6.94064e-06
-2.75149e-05
-1.8848e-07
-8.19079e-06
-2.6321e-05
-6.93525e-07
-9.05234e-06
-2.50594e-05
-1.19784e-06
-9.5385e-06
-2.38608e-05
-1.66337e-06
-9.69378e-06
-2.27583e-05
-2.06709e-06
-9.59893e-06
-2.1744e-05
-2.38835e-06
-9.36783e-06
-2.08019e-05
-2.60754e-06
-9.13901e-06
-1.99189e-05
-2.70897e-06
-9.06279e-06
-1.9086e-05
-2.68531e-06
-9.28567e-06
-1.82967e-05
-2.54063e-06
-9.9353e-06
-1.75452e-05
-2.28978e-06
-1.11088e-05
-1.68262e-05
-1.95411e-06
-1.28629e-05
-1.61363e-05
-1.55631e-06
-1.52004e-05
-1.54759e-05
-1.1165e-06
-1.80607e-05
-1.48502e-05
-6.39318e-07
-2.12757e-05
-1.42691e-05
-1.33705e-07
-2.45378e-05
-1.37408e-05
4.35254e-07
-2.73467e-05
-1.32458e-05
1.00403e-06
-2.99566e-05
-1.27034e-05
1.56826e-06
-3.48469e-05
-1.19481e-05
2.15357e-06
-4.42e-05
-1.08745e-05
2.875e-06
-5.48324e-05
-9.95713e-06
3.86342e-06
-6.10014e-05
-9.23125e-06
4.76028e-06
-5.85852e-05
-6.78892e-06
4.94238e-06
-4.86143e-05
-1.19163e-06
4.41851e-06
-3.39175e-05
7.52901e-06
3.62764e-06
-1.86167e-05
1.88114e-05
2.91219e-06
-7.07197e-06
3.05542e-05
2.44428e-06
-1.83015e-06
3.92277e-05
1.96152e-06
-4.63758e-07
4.22126e-05
1.07565e-06
1.01372e-06
3.87985e-05
-1.95937e-07
2.53013e-05
2.55839e-07
-1.32151e-06
-2.40961e-05
1.18541e-06
-3.26904e-06
-2.84504e-05
2.09682e-06
-5.06669e-06
-2.82733e-05
1.79787e-06
-6.67073e-06
-2.71133e-05
1.30134e-06
-8.15536e-06
-2.5506e-05
7.76958e-07
-9.4542e-06
-2.38692e-05
2.12114e-07
-1.05324e-05
-2.23961e-05
-2.96003e-07
-1.13064e-05
-2.11067e-05
-8.04152e-07
-1.17439e-05
-1.99616e-05
-1.28944e-06
-1.18703e-05
-1.892e-05
-1.71696e-06
-1.17493e-05
-1.79532e-05
-2.06342e-06
-1.1469e-05
-1.70441e-05
-2.3117e-06
-1.11315e-05
-1.61837e-05
-2.4497e-06
-1.08447e-05
-1.53659e-05
-2.47157e-06
-1.07188e-05
-1.45817e-05
-2.37837e-06
-1.08609e-05
-1.38236e-05
-2.17758e-06
-1.13691e-05
-1.30896e-05
-1.88123e-06
-1.23389e-05
-1.23757e-05
-1.50349e-06
-1.38812e-05
-1.16737e-05
-1.05001e-06
-1.61334e-05
-1.0973e-05
-5.18842e-07
-1.9196e-05
-1.02633e-05
5.53871e-08
-2.32024e-05
-9.54343e-06
7.7858e-07
-2.79536e-05
-8.82161e-06
1.49341e-06
-3.31047e-05
-8.11612e-06
2.20494e-06
-3.87212e-05
-7.43585e-06
2.89187e-06
-4.49242e-05
-6.77915e-06
3.54773e-06
-4.99478e-05
-6.11539e-06
4.17026e-06
-5.05998e-05
-5.04426e-06
4.69563e-06
-4.43053e-05
-2.4411e-06
4.97662e-06
-3.07418e-05
2.97784e-06
4.92931e-06
-1.34316e-05
1.19556e-05
4.64033e-06
5.83096e-07
2.40877e-05
4.16549e-06
5.12179e-06
3.59639e-05
3.39388e-06
3.79562e-06
3.86076e-05
2.41595e-06
2.79927e-05
1.72181e-06
-1.09297e-06
-2.44697e-05
1.45045e-06
-2.4445e-06
-2.91203e-05
2.00672e-06
-3.55561e-06
-2.89179e-05
1.73515e-06
-4.54129e-06
-2.75486e-05
1.41353e-06
-5.60722e-06
-2.55215e-05
1.10796e-06
-6.76451e-06
-2.34363e-05
7.81989e-07
-7.85223e-06
-2.16361e-05
4.03392e-07
-8.6928e-06
-2.01483e-05
-3.55957e-08
-9.24438e-06
-1.88857e-05
-4.42588e-07
-9.47069e-06
-1.77626e-05
-8.54054e-07
-9.41528e-06
-1.67241e-05
-1.21421e-06
-9.15057e-06
-1.57389e-05
-1.50784e-06
-8.76346e-06
-1.47912e-05
-1.72626e-06
-8.34779e-06
-1.38752e-05
-1.8623e-06
-7.99621e-06
-1.2986e-05
-1.91274e-06
-7.79356e-06
-1.21236e-05
-1.87793e-06
-7.81468e-06