/*--------------------------------*- C++ -*----------------------------------*\
| =========                 |                                                 |
| \\      /  F ield         | OpenFOAM: The Open Source CFD Toolbox           |
|  \\    /   O peration     | Version:  v1906                                 |
|   \\  /    A nd           | Web:      www.OpenFOAM.com                      |
|    \\/     M anipulation  |                                                 |
\*---------------------------------------------------------------------------*/
FoamFile
{
    version     2.0;
    format      ascii;
    class       volVectorField;
    location    "80";
    object      U;
}
// * * * * * * * * * * * * * * * * * * * * * * * * * * * * * * * * * * * * * //

dimensions      [0 1 -1 0 0 0 0];


internalField   nonuniform List<vector> 
78750
(
(7.59821e-06 1.12784e-06 -0.00021904)
(1.53787e-05 6.15104e-05 -0.000456053)
(3.52907e-05 0.000122439 -0.000607935)
(5.77188e-05 0.000192995 -0.000740935)
(7.62935e-05 0.000268295 -0.000855725)
(8.78264e-05 0.000344599 -0.00095456)
(9.21699e-05 0.000419736 -0.00103876)
(8.93287e-05 0.000491259 -0.0011106)
(8.04378e-05 0.000558063 -0.00117112)
(6.64106e-05 0.000618622 -0.0012221)
(4.88797e-05 0.000672555 -0.00126417)
(2.90037e-05 0.000719012 -0.00129855)
(8.34704e-06 0.000758079 -0.00132552)
(-1.22084e-05 0.000789384 -0.00134585)
(-3.16137e-05 0.000813316 -0.00135953)
(-4.96048e-05 0.000829715 -0.00136701)
(-6.5799e-05 0.00083894 -0.00136812)
(-8.05202e-05 0.000840826 -0.00136316)
(-9.38478e-05 0.000835629 -0.00135194)
(-0.000106317 0.000823088 -0.00133472)
(-0.000118084 0.000803403 -0.00131134)
(-0.000129404 0.000776265 -0.00128206)
(-0.000139999 0.000741893 -0.00124666)
(-0.000149498 0.000700052 -0.00120535)
(-0.000156992 0.000651179 -0.00115772)
(-0.000161546 0.00059533 -0.00110375)
(-0.000161885 0.000533427 -0.00104267)
(-0.000156986 0.000466068 -0.000974177)
(-0.000145853 0.000394911 -0.000897077)
(-0.000128129 0.000321332 -0.000810823)
(-0.000103853 0.000247889 -0.000713989)
(-7.43095e-05 0.000176942 -0.000606204)
(-4.26473e-05 0.000112211 -0.000486644)
(-1.71393e-05 5.79465e-05 -0.000356377)
(-6.61273e-06 4.84307e-06 -0.000163443)
(-1.0985e-05 0.000355341 -0.000483943)
(-4.70233e-05 0.000474652 -0.00081126)
(-6.99412e-05 0.000555734 -0.000971122)
(-0.000104582 0.000646207 -0.00110018)
(-0.000142411 0.000738438 -0.00121021)
(-0.000180007 0.000828922 -0.00130566)
(-0.000216621 0.000912401 -0.00139174)
(-0.000250006 0.000986962 -0.00146959)
(-0.000279384 0.00104923 -0.00154163)
(-0.00030266 0.00109883 -0.00160735)
(-0.00031943 0.00113428 -0.00166769)
(-0.000328157 0.00115683 -0.00172155)
(-0.000328974 0.00116684 -0.00176914)
(-0.000321013 0.00116698 -0.00180915)
(-0.000305284 0.00115908 -0.00184142)
(-0.000282176 0.0011465 -0.00186458)
(-0.000253593 0.00113117 -0.00187841)
(-0.000220402 0.00111566 -0.00188195)
(-0.000184854 0.0011006 -0.00187533)
(-0.000148231 0.00108669 -0.00185808)
(-0.000112625 0.0010723 -0.00183106)
(-7.9266e-05 0.00105612 -0.00179451)
(-4.97332e-05 0.00103505 -0.00174993)
(-2.47154e-05 0.0010072 -0.00169786)
(-4.94961e-06 0.000969709 -0.00163997)
(9.6554e-06 0.000921956 -0.0015764)
(1.92411e-05 0.000862788 -0.00150835)
(2.45623e-05 0.000793948 -0.0014348)
(2.63163e-05 0.000716564 -0.0013557)
(2.54986e-05 0.00063494 -0.00126788)
(2.28507e-05 0.000552267 -0.00116896)
(1.9428e-05 0.000474886 -0.00105177)
(1.66789e-05 0.00040691 -0.000908395)
(1.71813e-05 0.000354764 -0.000728302)
(-1.17081e-06 0.000287509 -0.000393247)
(2.70962e-05 0.00102159 -0.000514538)
(1.94684e-05 0.00145109 -0.000905245)
(1.38968e-05 0.00167048 -0.00108729)
(-9.2025e-06 0.00186327 -0.00122885)
(-4.10641e-05 0.00203139 -0.00134695)
(-7.75491e-05 0.00217628 -0.00144968)
(-0.00011533 0.00229451 -0.00154429)
(-0.000152913 0.0023864 -0.00163335)
(-0.000187695 0.00245271 -0.00171832)
(-0.000218562 0.00249437 -0.00179955)
(-0.000243578 0.00251303 -0.00187674)
(-0.00026236 0.00251102 -0.00194909)
(-0.00027382 0.00249093 -0.00201561)
(-0.000278233 0.00245606 -0.00207524)
(-0.000275563 0.00241674 -0.00212403)
(-0.000266776 0.00237602 -0.0021615)
(-0.000252437 0.00233702 -0.00218659)
(-0.000234101 0.00230202 -0.00219885)
(-0.000212828 0.00227258 -0.00219777)
(-0.000190399 0.00224865 -0.00218362)
(-0.000168085 0.00222951 -0.00215658)
(-0.000147534 0.00221241 -0.00211788)
(-0.000129807 0.00219445 -0.00206857)
(-0.000115953 0.0021711 -0.0020107)
(-0.000106337 0.00213869 -0.0019458)
(-0.000100975 0.00209295 -0.00187592)
(-9.92198e-05 0.00203154 -0.00180196)
(-9.99423e-05 0.00195241 -0.00172449)
(-0.000101641 0.0018558 -0.00164232)
(-0.000102472 0.00174244 -0.00155276)
(-0.000100612 0.00161446 -0.00145048)
(-9.34387e-05 0.00147385 -0.00132542)
(-7.79543e-05 0.00132157 -0.00116196)
(-5.51671e-05 0.00115782 -0.000940485)
(-4.27755e-05 0.000844151 -0.000493)
(2.80045e-05 0.00139129 -0.000604592)
(2.83977e-05 0.00204631 -0.00105806)
(3.79846e-05 0.00238298 -0.00126226)
(3.76861e-05 0.00267253 -0.00141457)
(2.7261e-05 0.00291815 -0.00153766)
(1.01703e-05 0.00312291 -0.00164358)
(-1.11317e-05 0.00328719 -0.00174048)
(-3.45627e-05 0.003413 -0.00183181)
(-5.83605e-05 0.00350134 -0.00192011)
(-8.04842e-05 0.00355512 -0.00200525)
(-9.95997e-05 0.00357708 -0.00208699)
(-0.000114438 0.00357188 -0.0021636)
(-0.000124606 0.00354426 -0.00223362)
(-0.000129822 0.00350037 -0.0022952)
(-0.000130231 0.00344624 -0.00234696)
(-0.000125887 0.00338846 -0.00238719)
(-0.000117493 0.00333227 -0.0024151)
(-0.000105905 0.00328271 -0.00242943)
(-9.24151e-05 0.00324229 -0.00242994)
(-7.83336e-05 0.00321254 -0.00241585)
(-6.51305e-05 0.00319172 -0.00238779)
(-5.4086e-05 0.00317709 -0.00234592)
(-4.6334e-05 0.00316277 -0.0022922)
(-4.26001e-05 0.00314297 -0.00222809)
(-4.32163e-05 0.00310981 -0.00215697)
(-4.79716e-05 0.00305728 -0.00208089)
(-5.60106e-05 0.00297856 -0.00200335)
(-6.57933e-05 0.0028706 -0.00192493)
(-7.52707e-05 0.00273031 -0.00184675)
(-8.22106e-05 0.00255937 -0.0017652)
(-8.43323e-05 0.00235865 -0.00167576)
(-7.88782e-05 0.00213326 -0.00156497)
(-6.33612e-05 0.00188983 -0.00140996)
(-4.22308e-05 0.00163001 -0.0011764)
(-3.50589e-05 0.00114351 -0.000643194)
(4.41602e-05 0.00184032 -0.000562086)
(6.27774e-05 0.00273262 -0.0010106)
(9.18475e-05 0.00319107 -0.00120229)
(0.00011603 0.00358689 -0.0013369)
(0.000129803 0.00392583 -0.00144142)
(0.000135223 0.00421074 -0.00153127)
(0.000134394 0.00444227 -0.00161526)
(0.000128703 0.00462102 -0.0016976)
(0.00011963 0.00474763 -0.0017801)
(0.000108513 0.0048256 -0.00186201)
(9.67492e-05 0.00486073 -0.00194143)
(8.54242e-05 0.00485994 -0.00201592)
(7.54573e-05 0.00483086 -0.00208322)
(6.73197e-05 0.00478029 -0.00214192)
(6.12372e-05 0.00471656 -0.00219061)
(5.70803e-05 0.00464768 -0.00222821)
(5.44326e-05 0.00458133 -0.00225361)
(5.26946e-05 0.00452322 -0.0022659)
(5.11196e-05 0.00447752 -0.00226428)
(4.8994e-05 0.00444537 -0.00224843)
(4.55503e-05 0.00442572 -0.00221829)
(4.02386e-05 0.0044141 -0.00217441)
(3.25606e-05 0.00440425 -0.00211763)
(2.24005e-05 0.0043876 -0.00204966)
(9.78835e-06 0.004356 -0.00197274)
(-4.76002e-06 0.00429994 -0.00189011)
(-2.05772e-05 0.0042099 -0.00180547)
(-3.65117e-05 0.00407759 -0.0017221)
(-5.13084e-05 0.00389958 -0.00164138)
(-6.34596e-05 0.00367626 -0.00156193)
(-7.12649e-05 0.00341023 -0.00147878)
(-7.22869e-05 0.00310606 -0.00138073)
(-6.35623e-05 0.00276635 -0.00124715)
(-4.63184e-05 0.00238321 -0.00104746)
(-3.74792e-05 0.00163445 -0.00057111)
(4.30631e-05 0.00205755 -0.000485021)
(6.83025e-05 0.00307837 -0.000884746)
(0.000106049 0.00361194 -0.00104525)
(0.000144613 0.00408395 -0.00115196)
(0.000173915 0.00449751 -0.00123435)
(0.000195027 0.00485393 -0.00130753)
(0.000209534 0.00515298 -0.00137949)
(0.000218267 0.00539526 -0.00145301)
(0.000222046 0.00558222 -0.0015287)
(0.000221641 0.00571613 -0.00160465)
(0.000217989 0.00579991 -0.00167875)
(0.000211959 0.00583894 -0.0017481)
(0.000204364 0.00584035 -0.00181065)
(0.000195717 0.00581328 -0.00186427)
(0.000186236 0.00576733 -0.00190806)
(0.000175892 0.00571245 -0.00194059)
(0.000164548 0.00565672 -0.00196095)
(0.000151948 0.00560648 -0.00196813)
(0.00013794 0.00556517 -0.00196169)
(0.000122352 0.00553387 -0.00194133)
(0.000105222 0.00551026 -0.0019074)
(8.65885e-05 0.00548964 -0.00186036)
(6.67107e-05 0.00546418 -0.00180123)
(4.58929e-05 0.00542493 -0.00173118)
(2.4771e-05 0.00536183 -0.00165231)
(4.02883e-06 0.00526648 -0.00156714)
(-1.55109e-05 0.00513112 -0.00147924)
(-3.31912e-05 0.00495105 -0.00139169)
(-4.82541e-05 0.00472245 -0.00130728)
(-5.98538e-05 0.0044446 -0.00122609)
(-6.67825e-05 0.0041166 -0.00114612)
(-6.68427e-05 0.00373983 -0.00106046)
(-5.71723e-05 0.00331286 -0.000956496)
(-4.02076e-05 0.00283197 -0.000808124)
(-3.06131e-05 0.00191319 -0.00043857)
(3.9195e-05 0.00222472 -0.000349788)
(6.44336e-05 0.00335499 -0.000649732)
(9.81818e-05 0.00395699 -0.000768574)
(0.000132123 0.00449768 -0.000851584)
(0.00015791 0.00498025 -0.000921149)
(0.000176753 0.00540431 -0.000988255)
(0.000190031 0.00576914 -0.00105782)
(0.000198606 0.00607426 -0.00113144)
(0.000203215 0.0063194 -0.00120831)
(0.000204701 0.0065056 -0.00128591)
(0.000203785 0.00663592 -0.00136116)
(0.000201065 0.00671571 -0.00143098)
(0.000196884 0.00675259 -0.00149305)
(0.000191463 0.00675593 -0.00154549)
(0.000184807 0.00673598 -0.00158698)
(0.000176808 0.00670259 -0.00161664)
(0.000167279 0.00666419 -0.00163363)
(0.000156107 0.00662661 -0.0016373)
(0.000143166 0.006593 -0.00162737)
(0.000128477 0.00656355 -0.0016038)
(0.000112077 0.00653567 -0.00156694)
(9.41643e-05 0.00650383 -0.0015174)
(7.49162e-05 0.00646028 -0.00145605)
(5.47226e-05 0.00639557 -0.00138407)
(3.40362e-05 0.00630039 -0.0013032)
(1.35065e-05 0.00616627 -0.00121589)
(-6.20698e-06 0.00598669 -0.00112545)
(-2.42421e-05 0.00575698 -0.00103541)
(-3.97306e-05 0.00547416 -0.000949026)
(-5.1643e-05 0.00513651 -0.000867739)
(-5.88805e-05 0.00474256 -0.000791255)
(-5.97773e-05 0.00429139 -0.000716116)
(-5.21816e-05 0.0037799 -0.000636175)
(-3.77153e-05 0.00320435 -0.000534878)
(-2.69669e-05 0.00213237 -0.000284906)
(2.72244e-05 0.00229614 -0.000232915)
(4.44019e-05 0.00349297 -0.000439689)
(6.78456e-05 0.00415362 -0.000520065)
(9.01736e-05 0.00475254 -0.000583343)
(0.000106477 0.00529061 -0.000644367)
(0.000117905 0.00576883 -0.000708456)
(0.000125669 0.00618582 -0.000778498)
(0.000130529 0.00654109 -0.000854363)
(0.000133136 0.00683377 -0.00093435)
(0.00013406 0.00706469 -0.0010151)
(0.00013379 0.00723637 -0.00109303)
(0.000132655 0.0073539 -0.00116488)
(0.000130855 0.00742464 -0.00122819)
(0.000128425 0.00745776 -0.00128128)
(0.000125333 0.00746328 -0.00132291)
(0.000121405 0.00745091 -0.00135219)
(0.000116435 0.00742879 -0.00136851)
(0.000110202 0.00740266 -0.00137144)
(0.000102579 0.00737529 -0.00136079)
(9.34407e-05 0.00734654 -0.00133668)
(8.27844e-05 0.00731324 -0.00129949)
(7.05915e-05 0.00726958 -0.00124988)
(5.69925e-05 0.00720732 -0.00118873)
(4.22351e-05 0.0071173 -0.00111724)
(2.67463e-05 0.00699029 -0.00103712)
(1.10409e-05 0.00681856 -0.000950791)
(-4.21115e-06 0.00659595 -0.000861563)
(-1.82545e-05 0.00631876 -0.000773166)
(-3.02266e-05 0.00598443 -0.000689235)
(-3.92369e-05 0.00559202 -0.000611953)
(-4.4359e-05 0.00514012 -0.00054204)
(-4.44008e-05 0.00462822 -0.000477936)
(-3.80073e-05 0.0040535 -0.00041667)
(-2.68093e-05 0.00341363 -0.000347499)
(-1.88748e-05 0.00224539 -0.000180673)
(1.89741e-05 0.00237233 -0.000139939)
(2.9868e-05 0.00363499 -0.00027392)
(4.43684e-05 0.00433952 -0.000329076)
(5.72632e-05 0.00498198 -0.000378911)
(6.60044e-05 0.00556314 -0.000432692)
(7.1483e-05 0.00608386 -0.00049305)
(7.46022e-05 0.00654289 -0.000561345)
(7.59453e-05 0.00693959 -0.000636668)
(7.60601e-05 0.00727274 -0.00071672)
(7.54077e-05 0.00754262 -0.000797758)
(7.4386e-05 0.00775109 -0.000875993)
(7.32531e-05 0.00790273 -0.000948031)
(7.2141e-05 0.00800434 -0.00101149)
(7.10728e-05 0.0080647 -0.00106467)
(6.99542e-05 0.00809332 -0.00110651)
(6.86275e-05 0.00809962 -0.00113616)
(6.68423e-05 0.00809151 -0.00115306)
(6.43329e-05 0.00807459 -0.00115683)
(6.08519e-05 0.00805146 -0.0011474)
(5.62317e-05 0.00802171 -0.0011249)
(5.03037e-05 0.00798183 -0.00108976)
(4.29886e-05 0.00792561 -0.00104265)
(3.43025e-05 0.00784478 -0.000984466)
(2.4439e-05 0.00773025 -0.000916372)
(1.36944e-05 0.00757322 -0.000840037)
(2.5245e-06 0.00736633 -0.000757796)
(-8.52721e-06 0.00710418 -0.000672948)
(-1.87721e-05 0.00678368 -0.000589275)
(-2.74896e-05 0.00640326 -0.000510582)
(-3.39107e-05 0.00596257 -0.000439412)
(-3.73118e-05 0.00546103 -0.000377034)
(-3.68121e-05 0.00489853 -0.000322919)
(-3.14178e-05 0.00427307 -0.00027582)
(-2.23135e-05 0.00358309 -0.000228239)
(-1.53927e-05 0.00233969 -0.000115108)
(1.30461e-05 0.00241927 -8.58376e-05)
(2.00832e-05 0.00372799 -0.000175028)
(2.97453e-05 0.0044642 -0.000213299)
(3.78115e-05 0.00513994 -0.00025251)
(4.26899e-05 0.00575566 -0.000299003)
(4.50821e-05 0.00631179 -0.000353979)
(4.56778e-05 0.00680684 -0.000417975)
(4.49812e-05 0.00723962 -0.000489681)
(4.35125e-05 0.00760851 -0.00056649)
(4.17324e-05 0.00791299 -0.000644534)
(4.00387e-05 0.00815426 -0.000719979)
(3.86959e-05 0.00833623 -0.000789502)
(3.78639e-05 0.00846522 -0.000850787)
(3.75476e-05 0.00854949 -0.000902259)
(3.76625e-05 0.00859824 -0.00094291)
(3.80046e-05 0.0086205 -0.000972001)
(3.8328e-05 0.008624 -0.000989005)
(3.83172e-05 0.0086142 -0.000993579)
(3.76745e-05 0.00859361 -0.000985632)
(3.61115e-05 0.00856158 -0.000965326)
(3.34069e-05 0.00851433 -0.000933081)
(2.94067e-05 0.00844541 -0.000889533)
(2.40901e-05 0.00834657 -0.000835517)
(1.7552e-05 0.00820891 -0.000772116)
(1.00319e-05 0.00802397 -0.000700867)
(1.89478e-06 0.00778492 -0.000624014)
(-6.36685e-06 0.007487 -0.000544712)
(-1.41701e-05 0.00712803 -0.000466719)
(-2.08653e-05 0.00670736 -0.000393834)
(-2.5818e-05 0.0062257 -0.000328822)
(-2.84349e-05 0.00568336 -0.000273217)
(-2.80396e-05 0.00508102 -0.000227155)
(-2.38624e-05 0.00441741 -0.000190398)
(-1.68252e-05 0.00369173 -0.000157357)
(-1.16257e-05 0.00239729 -7.79323e-05)
(1.04154e-05 0.00246353 -5.64339e-05)
(1.57964e-05 0.00381061 -0.000118722)
(2.28754e-05 0.00457334 -0.000145603)
(2.82659e-05 0.00527768 -0.000176911)
(3.0976e-05 0.00592378 -0.000217341)
(3.16219e-05 0.00651166 -0.000267248)
(3.07714e-05 0.00703939 -0.000326589)
(2.88998e-05 0.00750506 -0.000393864)
(2.65387e-05 0.00790645 -0.000466274)
(2.41837e-05 0.00824221 -0.000540004)
(2.22638e-05 0.00851284 -0.000611276)
(2.10835e-05 0.00872172 -0.000676953)
(2.07965e-05 0.00887473 -0.000734835)
(2.1422e-05 0.00897984 -0.000783486)
(2.28336e-05 0.00904592 -0.000821971)
(2.47974e-05 0.00908181 -0.00084963)
(2.7001e-05 0.00909502 -0.000865983)
(2.90895e-05 0.0090909 -0.000870722)
(3.06943e-05 0.00907182 -0.000863765)
(3.14824e-05 0.00903697 -0.000845252)
(3.1153e-05 0.00898236 -0.000815564)
(2.94972e-05 0.00890146 -0.000775253)
(2.64044e-05 0.00878601 -0.00072507)
(2.19e-05 0.0086273 -0.000665973)
(1.61511e-05 0.00841713 -0.000599384)
(9.47165e-06 0.00814912 -0.000527384)
(2.30915e-06 0.00781915 -0.000452992)
(-4.78342e-06 0.00742586 -0.000379855)
(-1.12008e-05 0.00696962 -0.000311771)
(-1.63378e-05 0.00645212 -0.000251613)
(-1.96457e-05 0.0058745 -0.000201178)
(-2.05396e-05 0.00523808 -0.000161092)
(-1.83125e-05 0.00454225 -0.000131983)
(-1.33625e-05 0.00378675 -0.000109575)
(-9.42267e-06 0.00244929 -5.37183e-05)
(7.93975e-06 0.00249667 -4.2138e-05)
(1.15649e-05 0.00387402 -8.76181e-05)
(1.62699e-05 0.00465846 -0.000106799)
(1.91506e-05 0.00538704 -0.000132702)
(1.97358e-05 0.00605949 -0.000169033)
(1.86504e-05 0.0066754 -0.000215383)
(1.64057e-05 0.00723221 -0.000271314)
(1.35027e-05 0.00772717 -0.000335072)
(1.0493e-05 0.00815708 -0.000403797)
(7.92935e-06 0.00851995 -0.00047367)
(6.26183e-06 0.00881565 -0.000541101)
(5.80718e-06 0.00904716 -0.000603109)
(6.7263e-06 0.00922011 -0.000657703)
(8.99029e-06 0.00934233 -0.000703545)
(1.24288e-05 0.00942258 -0.000739809)
(1.67286e-05 0.00946959 -0.000765864)
(2.15023e-05 0.00949075 -0.000781284)
(2.63065e-05 0.00949128 -0.000785768)
(3.0694e-05 0.00947339 -0.000779245)
(3.42407e-05 0.00943611 -0.000761824)
(3.65691e-05 0.00937532 -0.000733855)
(3.73746e-05 0.00928444 -0.000695832)
(3.64635e-05 0.00915518 -0.000648431)
(3.3775e-05 0.00897888 -0.00059252)
(2.94166e-05 0.00874751 -0.000529397)
(2.36519e-05 0.00845498 -0.000461005)
(1.69101e-05 0.00809763 -0.000390194)
(9.73314e-06 0.00767482 -0.000320502)
(2.74346e-06 0.00718784 -0.000255703)
(-3.44291e-06 0.00663927 -0.000198804)
(-8.25744e-06 0.00603121 -0.000151815)
(-1.11608e-05 0.00536572 -0.000115796)
(-1.14444e-05 0.00464279 -9.20562e-05)
(-8.93422e-06 0.00386254 -7.73529e-05)
(-6.82037e-06 0.00248973 -3.84762e-05)
(6.0514e-06 0.00253217 -3.52274e-05)
(8.00703e-06 0.00393906 -7.01218e-05)
(1.03323e-05 0.00474385 -8.44933e-05)
(1.04513e-05 0.00549449 -0.000107138)
(8.57724e-06 0.00619061 -0.00014098)
(5.42073e-06 0.00683129 -0.000185152)
(1.49683e-06 0.00741355 -0.000238839)
(-2.65264e-06 0.00793369 -0.00030016)
(-6.43601e-06 0.00838775 -0.000366122)
(-9.27022e-06 0.00877298 -0.000433)
(-1.06898e-05 0.00908894 -0.000497311)
(-1.03808e-05 0.00933832 -0.000556305)
(-8.22446e-06 0.00952679 -0.000608125)
(-4.28532e-06 0.00966214 -0.000651579)
(1.19622e-06 0.00975321 -0.000685893)
(7.84554e-06 0.00980872 -0.000710502)
(1.51838e-05 0.00983604 -0.000724987)
(2.26854e-05 0.00984029 -0.00072908)
(2.98165e-05 0.00982355 -0.000722697)
(3.60651e-05 0.00978469 -0.000705949)
(4.0963e-05 0.00971948 -0.000679151)
(4.4119e-05 0.00962115 -0.000642769)
(4.52629e-05 0.00948136 -0.000597423)
(4.42618e-05 0.00929134 -0.000543921)
(4.11657e-05 0.00904309 -0.000483458)
(3.62028e-05 0.00873059 -0.000417853)
(2.97773e-05 0.00835052 -0.000349795)
(2.24311e-05 0.00790271 -0.000282714)
(1.48143e-05 0.0073893 -0.000220331)
(7.56947e-06 0.00681365 -0.000165755)
(1.2831e-06 0.00617886 -0.000121123)
(-3.51818e-06 0.0054876 -8.77519e-05)
(-6.07335e-06 0.00474035 -6.7307e-05)
(-5.62804e-06 0.00393746 -5.72694e-05)
(-4.9831e-06 0.00253112 -2.93894e-05)
(4.43336e-06 0.00256919 -3.56998e-05)
(4.88091e-06 0.00400537 -6.70361e-05)
(5.35041e-06 0.00482933 -8.02094e-05)
(3.33096e-06 0.00560012 -0.000101768)
(-4.24858e-07 0.00631725 -0.0001343)
(-5.14501e-06 0.00697952 -0.000176888)
(-1.0288e-05 0.00758352 -0.000228654)
(-1.53057e-05 0.00812486 -0.000287669)
(-1.95961e-05 0.00859875 -0.000350934)
(-2.25913e-05 0.00900198 -0.00041482)
(-2.38359e-05 0.00933377 -0.000476019)
(-2.30498e-05 0.0095968 -0.000531988)
(-2.01411e-05 0.00979682 -0.000581031)
(-1.52147e-05 0.0099418 -0.000622083)
(-8.54811e-06 0.0100407 -0.000654434)
(-5.54631e-07 0.0101024 -0.00067758)
(8.25434e-06 0.0101343 -0.000691129)
(1.73251e-05 0.0101414 -0.000694844)
(2.60823e-05 0.0101257 -0.000688641)
(3.39769e-05 0.010086 -0.000672635)
(4.05002e-05 0.0100179 -0.000647106)
(4.52247e-05 0.00991426 -0.000612494)
(4.78297e-05 0.00976671 -0.00056936)
(4.81465e-05 0.00956627 -0.000518452)
(4.61726e-05 0.00930481 -0.000460859)
(4.21022e-05 0.00897625 -0.000398262)
(3.62986e-05 0.00857746 -0.000333178)
(2.92846e-05 0.00810864 -0.000268878)
(2.16853e-05 0.00757254 -0.000209001)
(1.41398e-05 0.00697343 -0.000156631)
(7.21749e-06 0.00631529 -0.0001139)
(1.44994e-06 0.00560126 -8.20533e-05)
(-2.38973e-06 0.00483231 -6.26274e-05)
(-3.20185e-06 0.00400886 -5.33559e-05)
(-3.63647e-06 0.00257123 -2.87133e-05)
(3.87821e-06 0.00261268 -4.35778e-05)
(3.71681e-06 0.00407982 -7.93656e-05)
(3.57783e-06 0.00492292 -9.54157e-05)
(9.35805e-07 0.00571287 -0.000118084)
(-3.28298e-06 0.00644933 -0.000150079)
(-8.26921e-06 0.00713089 -0.000191005)
(-1.35007e-05 0.00775402 -0.000240272)
(-1.84552e-05 0.00831377 -0.000296117)
(-2.26042e-05 0.00880473 -0.000355695)
(-2.54345e-05 0.00922324 -0.000415572)
(-2.65725e-05 0.00956831 -0.000472692)
(-2.57793e-05 0.0098426 -0.000524741)
(-2.30113e-05 0.010052 -0.000570228)
(-1.83753e-05 0.0102047 -0.000608211)
(-1.21425e-05 0.0103099 -0.000638093)
(-4.68847e-06 0.0103764 -0.00065942)
(3.52871e-06 0.0104118 -0.000671872)
(1.20119e-05 0.0104211 -0.000675232)
(2.02513e-05 0.0104062 -0.000669446)
(2.7759e-05 0.0103657 -0.000654601)
(3.40807e-05 0.010295 -0.000630957)
(3.88223e-05 0.0101869 -0.000598885)
(4.16882e-05 0.0100328 -0.000558883)
(4.25033e-05 0.00982351 -0.000511597)
(4.12491e-05 0.00955071 -0.000457993)
(3.80551e-05 0.00920826 -0.00039957)
(3.32316e-05 0.00879313 -0.000338626)
(2.72069e-05 0.00830589 -0.000278205)
(2.05331e-05 0.00774984 -0.000221744)
(1.37539e-05 0.00713001 -0.000172157)
(7.39793e-06 0.00645109 -0.000131342)
(1.95781e-06 0.00571647 -0.000100157)
(-1.77216e-06 0.00492743 -7.94261e-05)
(-2.67439e-06 0.00408428 -6.67058e-05)
(-3.35072e-06 0.0026153 -3.67701e-05)
(4.24876e-06 0.00266043 -5.73457e-05)
(4.38284e-06 0.00415948 -0.00010416)
(4.97961e-06 0.00502146 -0.000126357)
(3.42428e-06 0.00582981 -0.00015181)
(4.08516e-07 0.00658427 -0.000183631)
(-3.34548e-06 0.00728347 -0.000222367)
(-7.31919e-06 0.00792391 -0.000267981)
(-1.10946e-05 0.00850051 -0.000319132)
(-1.42496e-05 0.00900734 -0.00037332)
(-1.64335e-05 0.00944035 -0.000427473)
(-1.73736e-05 0.00979831 -0.00047887)
(-1.6945e-05 0.0100838 -0.000525493)
(-1.51348e-05 0.0103028 -0.000566077)
(-1.20529e-05 0.0104635 -0.000599855)
(-7.8948e-06 0.010575 -0.00062635)
(-2.93236e-06 0.0106465 -0.000645214)
(2.51462e-06 0.0106852 -0.000656201)
(8.11694e-06 0.0106963 -0.000659148)
(1.35446e-05 0.0106816 -0.000654017)
(1.84775e-05 0.0106395 -0.00064088)
(2.2614e-05 0.0105654 -0.000619941)
(2.56961e-05 0.0104521 -0.000591489)
(2.75106e-05 0.0102906 -0.000555917)
(2.79318e-05 0.0100719 -0.000513738)
(2.69224e-05 0.00978751 -0.000465752)
(2.45603e-05 0.0094314 -0.000413227)
(2.10285e-05 0.0090007 -0.000358183)
(1.6632e-05 0.00849636 -0.000303327)
(1.17455e-05 0.00792219 -0.000251752)
(6.79144e-06 0.00728382 -0.000205998)
(2.17985e-06 0.00658626 -0.000167516)
(-1.59668e-06 0.00583289 -0.000136511)
(-3.83347e-06 0.00502503 -0.000112757)
(-3.71621e-06 0.00416292 -9.3324e-05)
(-3.88753e-06 0.00266237 -5.14003e-05)
(5.36426e-06 0.002711 -7.28036e-05)
(6.5599e-06 0.00424283 -0.000132819)
(8.78297e-06 0.00512361 -0.000161999)
(9.42984e-06 0.00594977 -0.000190381)
(8.66701e-06 0.00672136 -0.000221632)
(7.09697e-06 0.00743711 -0.000257274)
(5.19342e-06 0.00809383 -0.000297934)
(3.26389e-06 0.00868651 -0.000342744)
(1.58676e-06 0.00920909 -0.000389754)
(3.39469e-07 0.00965719 -0.000436385)
(-3.64778e-07 0.0100294 -0.000480375)
(-5.14449e-07 0.0103279 -0.000520042)
(-1.4518e-07 0.0105585 -0.000554392)
(6.48835e-07 0.0107292 -0.000582835)
(1.75816e-06 0.0108491 -0.000605051)
(3.05435e-06 0.0109267 -0.000620807)
(4.42182e-06 0.0109696 -0.000629952)
(5.75538e-06 0.0109825 -0.000632383)
(6.9643e-06 0.0109672 -0.000628083)
(7.96586e-06 0.0109222 -0.000617102)
(8.68125e-06 0.0108428 -0.000599579)
(9.03065e-06 0.0107219 -0.000575701)
(8.93121e-06 0.0105507 -0.000545738)
(8.32453e-06 0.0103202 -0.000510046)
(7.16865e-06 0.0100224 -0.000469233)
(5.47642e-06 0.00965139 -0.000424308)
(3.29261e-06 0.00920474 -0.00037695)
(7.5344e-07 0.00868373 -0.000329429)
(-1.94974e-06 0.00809259 -0.000284328)
(-4.54251e-06 0.00743719 -0.000243639)
(-6.72538e-06 0.00672247 -0.00020828)
(-8.04586e-06 0.00595157 -0.000177758)
(-7.90549e-06 0.00512572 -0.000150783)
(-6.05008e-06 0.00424489 -0.000123859)
(-5.0822e-06 0.00271201 -6.78263e-05)
(6.52816e-06 0.00276079 -8.67589e-05)
(8.90038e-06 0.00432537 -0.000158212)
(1.27974e-05 0.00522453 -0.00019307)
(1.56901e-05 0.00606784 -0.000223482)
(1.71795e-05 0.00685565 -0.00025351)
(1.77642e-05 0.00758706 -0.000285479)
(1.785e-05 0.00825918 -0.000320515)
(1.76706e-05 0.00886734 -0.000358237)
(1.73667e-05 0.0094056 -0.000397255)
(1.69776e-05 0.00986948 -0.000435582)
(1.64678e-05 0.0102573 -0.000471446)
(1.57592e-05 0.0105708 -0.000503545)
(1.47604e-05 0.0108155 -0.000531142)
(1.34008e-05 0.0109986 -0.000553843)
(1.16439e-05 0.0111289 -0.000571466)
(9.49978e-06 0.0112145 -0.000583899)
(7.02897e-06 0.0112625 -0.000591077)
(4.33751e-06 0.0112774 -0.000592955)
(1.55996e-06 0.0112609 -0.000589532)
(-1.16462e-06 0.0112115 -0.00058084)
(-3.71827e-06 0.0111247 -0.000566952)
(-6.0113e-06 0.0109937 -0.000547964)
(-8.00225e-06 0.0108102 -0.000524021)
(-9.69436e-06 0.0105656 -0.00049533)
(-1.11198e-05 0.0102525 -0.000462303)
(-1.23442e-05 0.00986541 -0.000425691)
(-1.34227e-05 0.00940243 -0.0003868)
(-1.43729e-05 0.00886516 -0.000347407)
(-1.51457e-05 0.00825799 -0.000309505)
(-1.56032e-05 0.00758674 -0.000274507)
(-1.5517e-05 0.00685602 -0.000242824)
(-1.4493e-05 0.00606867 -0.00021342)
(-1.20359e-05 0.0052256 -0.000184151)
(-8.45723e-06 0.00432649 -0.000151085)
(-6.28578e-06 0.00276115 -8.27776e-05)
(7.39006e-06 0.00281007 -9.77166e-05)
(1.06245e-05 0.00440755 -0.000177146)
(1.57024e-05 0.00532492 -0.000215653)
(2.01546e-05 0.00618491 -0.000247014)
(2.31876e-05 0.00698827 -0.00027551)
(2.5213e-05 0.00773446 -0.000303898)
(2.66151e-05 0.00842101 -0.000333653)
(2.75622e-05 0.00904371 -0.000364752)
(2.81203e-05 0.00959702 -0.000396336)
(2.8236e-05 0.0100765 -0.000426948)
(2.77986e-05 0.0104802 -0.000455301)
(2.66581e-05 0.0108097 -0.000480427)
(2.47017e-05 0.0110695 -0.000501841)
(2.18673e-05 0.0112664 -0.000519302)
(1.81747e-05 0.0114083 -0.000532762)
(1.37221e-05 0.0115029 -0.00054219)
(8.68856e-06 0.0115565 -0.000547602)
(3.31431e-06 0.0115736 -0.000548988)
(-2.11707e-06 0.0115555 -0.00054637)
(-7.33001e-06 0.0115008 -0.000539753)
(-1.20696e-05 0.0114055 -0.000529169)
(-1.61387e-05 0.011263 -0.00051463)
(-1.94182e-05 0.0110658 -0.00049619)
(-2.18681e-05 0.0108061 -0.000473919)
(-2.35307e-05 0.0104768 -0.000448075)
(-2.44932e-05 0.0100735 -0.000419154)
(-2.48929e-05 0.00959463 -0.000388128)
(-2.4828e-05 0.00904198 -0.000356289)
(-2.43496e-05 0.00841996 -0.000325095)
(-2.33876e-05 0.00773403 -0.000295417)
(-2.17746e-05 0.00698833 -0.000267292)
(-1.91341e-05 0.00618533 -0.000239309)
(-1.50522e-05 0.00532554 -0.00020884)
(-1.02498e-05 0.00440826 -0.000171703)
(-7.18845e-06 0.00281013 -9.4651e-05)
(7.81816e-06 0.00285944 -0.000105106)
(1.15089e-05 0.00449001 -0.000188908)
(1.71769e-05 0.00542551 -0.000229167)
(2.24135e-05 0.00630192 -0.000260667)
(2.6199e-05 0.00712031 -0.000287671)
(2.88965e-05 0.00788054 -0.000313117)
(3.08735e-05 0.00858054 -0.000338613)
(3.22794e-05 0.00921665 -0.000364419)
(3.31481e-05 0.00978386 -0.000390051)
(3.33955e-05 0.0102779 -0.000414507)
(3.28812e-05 0.0106969 -0.000436869)
(3.14432e-05 0.0110416 -0.000456463)
(2.8962e-05 0.0113162 -0.000472981)
(2.53893e-05 0.0115267 -0.00048632)
(2.07684e-05 0.0116802 -0.000496511)
(1.52405e-05 0.0117836 -0.000503601)
(9.03636e-06 0.011843 -0.000507644)
(2.45312e-06 0.0118621 -0.000508671)
(-4.17144e-06 0.0118422 -0.000506703)
(-1.04997e-05 0.0117822 -0.000501738)
(-1.6225e-05 0.0116782 -0.00049377)
(-2.11068e-05 0.0115243 -0.000482762)
(-2.49942e-05 0.0113136 -0.000468687)
(-2.78254e-05 0.011039 -0.000451531)
(-2.96327e-05 0.0106944 -0.000431413)
(-3.05257e-05 0.0102758 -0.000408647)
(-3.06576e-05 0.00978212 -0.000383911)
(-3.01599e-05 0.00921539 -0.000358123)
(-2.91072e-05 0.00857979 -0.000332286)
(-2.74682e-05 0.00788027 -0.000306884)
(-2.50907e-05 0.00712044 -0.000281665)
(-2.16144e-05 0.00630233 -0.000255063)
(-1.66704e-05 0.0054261 -0.000224229)
(-1.12191e-05 0.00449068 -0.000184968)
(-7.66582e-06 0.00285944 -0.000102863)
(7.9206e-06 0.00290929 -0.000108402)
(1.17796e-05 0.00457307 -0.00019317)
(1.76004e-05 0.00552671 -0.000233586)
(2.30672e-05 0.00641942 -0.000264569)
(2.70521e-05 0.00725256 -0.000290231)
(2.98907e-05 0.0080263 -0.000313458)
(3.19427e-05 0.00873895 -0.00033588)
(3.33503e-05 0.00938744 -0.000357903)
(3.41491e-05 0.0099673 -0.000379311)
(3.42681e-05 0.0104746 -0.000399404)
(3.35807e-05 0.0109072 -0.000417543)
(3.19373e-05 0.0112659 -0.000433249)
(2.92383e-05 0.0115539 -0.000446352)
(2.54429e-05 0.0117768 -0.000456826)
(2.06043e-05 0.0119409 -0.000464763)
(1.48733e-05 0.0120525 -0.000470247)
(8.48175e-06 0.012117 -0.000473367)
(1.72642e-06 0.0121379 -0.000474166)
(-5.05666e-06 0.0121165 -0.000472675)
(-1.15313e-05 0.0120515 -0.00046888)
(-1.73994e-05 0.0119394 -0.000462753)
(-2.24187e-05 0.0117751 -0.000454223)
(-2.64318e-05 0.0115521 -0.00044322)
(-2.93746e-05 0.011264 -0.000429666)
(-3.12741e-05 0.0109054 -0.000413596)
(-3.22283e-05 0.010473 -0.000395188)
(-3.23802e-05 0.00996609 -0.000374922)
(-3.18452e-05 0.00938662 -0.000353434)
(-3.06903e-05 0.00873854 -0.000331421)
(-2.88813e-05 0.00802628 -0.000309095)
(-2.62722e-05 0.00725287 -0.000286054)
(-2.25064e-05 0.00641998 -0.000260692)
(-1.7247e-05 0.00552742 -0.000230183)
(-1.15765e-05 0.00457385 -0.000190458)
(-7.81386e-06 0.00290931 -0.000106836)
(7.73766e-06 0.00295842 -0.00010721)
(1.15802e-05 0.00465484 -0.000189677)
(1.72733e-05 0.00562638 -0.000228806)
(2.26308e-05 0.00653519 -0.000258618)
(2.65014e-05 0.00738283 -0.000282949)
(2.91949e-05 0.00816972 -0.000304493)
(3.10537e-05 0.00889449 -0.000324791)
(3.22296e-05 0.00955458 -0.000344309)
(3.27763e-05 0.010146 -0.000362967)
(3.26509e-05 0.0106651 -0.000380259)
(3.17647e-05 0.0111099 -0.000395709)
(3.00004e-05 0.0114808 -0.000408967)
(2.72797e-05 0.0117807 -0.000419937)
(2.35723e-05 0.0120144 -0.000428642)
(1.89362e-05 0.0121877 -0.0004352)
(1.35046e-05 0.0123064 -0.000439716)
(7.48772e-06 0.0123754 -0.000442289)
(1.15557e-06 0.0123979 -0.000442973)
(-5.19767e-06 0.012375 -0.000441798)
(-1.12695e-05 0.0123057 -0.000438746)
(-1.67946e-05 0.0121866 -0.000433777)
(-2.15575e-05 0.0120131 -0.000426804)
(-2.54131e-05 0.0117793 -0.000417732)
(-2.83007e-05 0.0114794 -0.000406456)
(-3.02423e-05 0.0111087 -0.000392957)
(-3.13132e-05 0.010664 -0.000377339)
(-3.16199e-05 0.0101452 -0.000359948)
(-3.12529e-05 0.0095541 -0.000341261)
(-3.02482e-05 0.00889438 -0.000321775)
(-2.85495e-05 0.00816994 -0.000301564)
(-2.60056e-05 0.00738334 -0.000280165)
(-2.22775e-05 0.00653591 -0.00025605)
(-1.70536e-05 0.00562722 -0.000226562)
(-1.14567e-05 0.00465574 -0.000187893)
(-7.67204e-06 0.00295849 -0.000106162)
(7.30338e-06 0.0030052 -0.000101413)
(1.09855e-05 0.00473282 -0.00017844)