/*--------------------------------*- C++ -*----------------------------------*\
| =========                 |                                                 |
| \\      /  F ield         | OpenFOAM: The Open Source CFD Toolbox           |
|  \\    /   O peration     | Version:  v1906                                 |
|   \\  /    A nd           | Web:      www.OpenFOAM.com                      |
|    \\/     M anipulation  |                                                 |
\*---------------------------------------------------------------------------*/
FoamFile
{
    version     2.0;
    format      ascii;
    class       volVectorField;
    location    "80";
    object      U;
}
// * * * * * * * * * * * * * * * * * * * * * * * * * * * * * * * * * * * * * //

dimensions      [0 1 -1 0 0 0 0];


internalField   nonuniform List<vector> 
78750
(
(-1.13534e-06 -6.41653e-05 0.000126124)
(-2.40244e-06 -9.18478e-05 0.00022082)
(-7.78332e-06 -9.60686e-05 0.000269411)
(-1.64196e-05 -9.11106e-05 0.000303)
(-2.86107e-05 -8.08832e-05 0.00032491)
(-4.38469e-05 -6.77548e-05 0.000337804)
(-6.14806e-05 -5.34518e-05 0.000343638)
(-8.07776e-05 -3.90995e-05 0.000343988)
(-0.000101041 -2.55803e-05 0.000340021)
(-0.000121719 -1.32784e-05 0.0003327)
(-0.000142214 -2.5917e-06 0.00032275)
(-0.000162031 6.37185e-06 0.000310815)
(-0.000180725 1.3493e-05 0.000297356)
(-0.000197899 1.88334e-05 0.000282824)
(-0.000213213 2.23892e-05 0.000267548)
(-0.000226377 2.42887e-05 0.000251878)
(-0.000237152 2.45735e-05 0.000236082)
(-0.000245337 2.33929e-05 0.000220463)
(-0.000250783 2.0803e-05 0.00020526)
(-0.000253387 1.69522e-05 0.000190753)
(-0.00025308 1.19084e-05 0.000177161)
(-0.000249819 5.83171e-06 0.000164732)
(-0.000243614 -1.18646e-06 0.000153651)
(-0.000234505 -8.97092e-06 0.000144108)
(-0.000222561 -1.73883e-05 0.000136206)
(-0.000207902 -2.62086e-05 0.000130015)
(-0.000190669 -3.52018e-05 0.000125479)
(-0.000171031 -4.40047e-05 0.000122438)
(-0.000149209 -5.22073e-05 0.000120569)
(-0.000125472 -5.92066e-05 0.000119328)
(-0.000100039 -6.42447e-05 0.000117839)
(-7.3048e-05 -6.62441e-05 0.000114774)
(-4.53927e-05 -6.37549e-05 0.000108201)
(-2.25979e-05 -5.48337e-05 9.5206e-05)
(-6.09992e-06 -3.16168e-05 6.10847e-05)
(-2.28661e-06 9.38975e-05 -0.000183773)
(-1.68088e-05 0.000196579 -0.000278397)
(-3.30904e-05 0.000252373 -0.000313525)
(-5.70975e-05 0.000297497 -0.000342882)
(-8.27332e-05 0.000332351 -0.000366586)
(-0.00010829 0.000357776 -0.000384989)
(-0.000133003 0.000375279 -0.000399299)
(-0.000156351 0.000385621 -0.000410921)
(-0.000177831 0.000390077 -0.000420284)
(-0.000197141 0.000389116 -0.000428037)
(-0.000214035 0.000383774 -0.000434228)
(-0.000228351 0.000374353 -0.000439261)
(-0.000240052 0.000361668 -0.000443088)
(-0.000249087 0.000345924 -0.00044601)
(-0.000255443 0.000327878 -0.000447901)
(-0.000259185 0.000307643 -0.000449017)
(-0.000260349 0.000285886 -0.000449221)
(-0.000259046 0.00026269 -0.000448728)
(-0.000255359 0.000238648 -0.0004474)
(-0.000249416 0.000213828 -0.000445405)
(-0.000241383 0.000188646 -0.000442645)
(-0.000231408 0.000163169 -0.000439243)
(-0.000219643 0.000137863 -0.00043504)
(-0.000206286 0.00011278 -0.000430098)
(-0.000191503 8.83237e-05 -0.000424211)
(-0.000175504 6.45404e-05 -0.000417353)
(-0.00015845 4.17905e-05 -0.000409152)
(-0.000140555 2.01273e-05 -0.000399225)
(-0.00012202 -1.09031e-07 -0.000386781)
(-0.000103044 -1.88229e-05 -0.000370841)
(-8.36862e-05 -3.55984e-05 -0.000349762)
(-6.3717e-05 -5.00203e-05 -0.000320638)
(-4.31152e-05 -6.07775e-05 -0.000276627)
(-2.62462e-05 -6.47562e-05 -0.000209558)
(-1.44265e-05 -4.5237e-05 -7.4072e-05)
(-1.55958e-07 0.000254177 -0.000144631)
(-8.25599e-06 0.00043548 -0.000236142)
(-1.51508e-05 0.000514979 -0.000273236)
(-2.60359e-05 0.000571263 -0.000297982)
(-3.75482e-05 0.000609339 -0.000315309)
(-4.88002e-05 0.000633661 -0.000327777)
(-5.95236e-05 0.000646753 -0.000337278)
(-6.94829e-05 0.000651255 -0.000344607)
(-7.8515e-05 0.000648462 -0.000350618)
(-8.6471e-05 0.000640064 -0.000355486)
(-9.32915e-05 0.000626717 -0.000359659)
(-9.8903e-05 0.000609617 -0.000363053)
(-0.000103329 0.000589095 -0.000365955)
(-0.000106547 0.000566073 -0.0003682)
(-0.000108613 0.000540728 -0.000370005)
(-0.000109542 0.00051382 -0.000371189)
(-0.000109413 0.00048545 -0.000371937)
(-0.000108247 0.00045626 -0.00037209)
(-0.000106148 0.000426411 -0.000371732)
(-0.000103167 0.000396434 -0.000370731)
(-9.93933e-05 0.000366365 -0.000369252)
(-9.49103e-05 0.000336681 -0.000367141)
(-8.98376e-05 0.000307415 -0.00036449)
(-8.42411e-05 0.000278979 -0.000361127)
(-7.82373e-05 0.000251371 -0.000357089)
(-7.18775e-05 0.000224925 -0.000352136)
(-6.52564e-05 0.000199603 -0.000346152)
(-5.84073e-05 0.000175649 -0.000338686)
(-5.14058e-05 0.000152981 -0.000329259)
(-4.42706e-05 0.000131749 -0.00031691)
(-3.70176e-05 0.000111786 -0.000300288)
(-2.94255e-05 9.31166e-05 -0.000276766)
(-2.12315e-05 7.53792e-05 -0.000241836)
(-1.3529e-05 5.8465e-05 -0.000190151)
(-9.04182e-06 3.18687e-05 -7.59354e-05)
(-3.06723e-07 0.000338248 -1.66238e-05)
(-3.89096e-06 0.000557725 -7.72574e-05)
(-4.72517e-06 0.000655146 -0.00011174)
(-7.14526e-06 0.000724261 -0.000136008)
(-9.85964e-06 0.000771754 -0.000152151)
(-1.26985e-05 0.000802219 -0.000164219)
(-1.55313e-05 0.00081961 -0.000174068)
(-1.83153e-05 0.000826374 -0.000182829)
(-2.09226e-05 0.000824984 -0.000190812)
(-2.33192e-05 0.000816736 -0.00019853)
(-2.54214e-05 0.000803272 -0.000205954)
(-2.72232e-05 0.000785276 -0.000213353)
(-2.8679e-05 0.000763925 -0.000220549)
(-2.98117e-05 0.000739586 -0.000227703)
(-3.05992e-05 0.000713163 -0.000234587)
(-3.10858e-05 0.000684859 -0.000241315)
(-3.12663e-05 0.000655401 -0.000247657)
(-3.11939e-05 0.00062491 -0.000253702)
(-3.08796e-05 0.000593969 -0.000259248)
(-3.03813e-05 0.000562658 -0.00026436)
(-2.96962e-05 0.000531659 -0.000268736)
(-2.89035e-05 0.000500995 -0.000272438)
(-2.80179e-05 0.000471045 -0.00027529)
(-2.70932e-05 0.000441763 -0.00027733)
(-2.61376e-05 0.000413445 -0.000278343)
(-2.51787e-05 0.000385862 -0.000278378)
(-2.41942e-05 0.000359168 -0.000277154)
(-2.31877e-05 0.00033311 -0.000274522)
(-2.20843e-05 0.000307615 -0.000270014)
(-2.08358e-05 0.000282194 -0.000263146)
(-1.9279e-05 0.000256411 -0.000252998)
(-1.71166e-05 0.000229366 -0.000238619)
(-1.37561e-05 0.000199968 -0.000218355)
(-9.45464e-06 0.000166632 -0.000187575)
(-7.12038e-06 0.000101987 -9.9814e-05)
(-1.9658e-06 0.000365586 5.92685e-05)
(-4.32394e-06 0.00058774 2.63506e-05)
(-3.01935e-06 0.000687699 -1.47267e-06)
(-1.6431e-06 0.000760223 -2.20295e-05)
(1.82666e-07 0.000811296 -3.56884e-05)
(2.21515e-06 0.000845989 -4.60208e-05)
(4.30609e-06 0.000867571 -5.51157e-05)
(6.36819e-06 0.000879111 -6.35527e-05)
(8.33608e-06 0.000882385 -7.18747e-05)
(1.01858e-05 0.000879359 -8.00396e-05)
(1.18736e-05 0.000870998 -8.83489e-05)
(1.33881e-05 0.000858633 -9.66911e-05)
(1.46991e-05 0.00084278 -0.000105212)
(1.5806e-05 0.000824412 -0.000113712)
(1.66754e-05 0.0008038 -0.000122273)
(1.73081e-05 0.000781699 -0.000130669)
(1.76656e-05 0.000758244 -0.000138956)
(1.7755e-05 0.000734038 -0.000146908)
(1.75395e-05 0.000709138 -0.000154569)
(1.70208e-05 0.000684061 -0.000161717)
(1.61707e-05 0.000658832 -0.000168374)
(1.50133e-05 0.000633834 -0.000174347)
(1.35345e-05 0.000608979 -0.000179667)
(1.17725e-05 0.000584521 -0.000184155)
(9.72213e-06 0.000560268 -0.000187827)
(7.43367e-06 0.000536298 -0.000190504)
(4.93547e-06 0.000512246 -0.000192171)
(2.31448e-06 0.000487923 -0.00019261)
(-3.48466e-07 0.000462651 -0.000191695)
(-2.90374e-06 0.0004358 -0.000189027)
(-5.19117e-06 0.000406127 -0.000184283)
(-6.86728e-06 0.000372236 -0.000177325)
(-7.27442e-06 0.000331754 -0.000168467)
(-5.80866e-06 0.000281946 -0.000153605)
(-5.22325e-06 0.000178126 -9.14871e-05)
(-2.26152e-06 0.000371331 9.16167e-05)
(-3.70925e-06 0.000583668 7.4959e-05)
(-2.05727e-06 0.000680604 5.34473e-05)
(2.06672e-07 0.000752089 3.66887e-05)
(3.16797e-06 0.000804202 2.55373e-05)
(6.4661e-06 0.000841048 1.67317e-05)
(9.88872e-06 0.000866217 8.81645e-06)
(1.32806e-05 0.000881962 1.15704e-06)
(1.65506e-05 0.00089052 -6.36412e-06)
(1.96028e-05 0.00089311 -1.41153e-05)
(2.23934e-05 0.000891158 -2.20398e-05)
(2.4864e-05 0.000885308 -3.0264e-05)
(2.69955e-05 0.000876558 -3.86036e-05)
(2.87408e-05 0.000865246 -4.7112e-05)
(3.00917e-05 0.000852113 -5.56156e-05)
(3.10185e-05 0.000837323 -6.41417e-05)
(3.15195e-05 0.000821456 -7.25e-05)
(3.15708e-05 0.000804565 -8.07102e-05)
(3.11808e-05 0.000787112 -8.85847e-05)
(3.03307e-05 0.000769072 -9.61416e-05)
(2.90467e-05 0.000750795 -0.000103207)
(2.73195e-05 0.00073218 -0.000109799)
(2.51869e-05 0.000713466 -0.000115755)
(2.26575e-05 0.00069445 -0.000121095)
(1.97846e-05 0.000675201 -0.000125665)
(1.66012e-05 0.000655321 -0.000129491)
(1.31903e-05 0.0006346 -0.00013243)
(9.6224e-06 0.000612335 -0.000134491)
(6.03203e-06 0.000587878 -0.000135491)
(2.5435e-06 0.000559982 -0.000135323)
(-6.45917e-07 0.000527227 -0.000133753)
(-3.24941e-06 0.000487392 -0.000131191)
(-4.6467e-06 0.000437672 -0.000128474)
(-4.18769e-06 0.000374105 -0.000122286)
(-4.01947e-06 0.000238253 -7.79207e-05)
(-1.75533e-06 0.000361058 9.1974e-05)
(-2.37102e-06 0.000562296 8.24129e-05)
(-8.44564e-07 0.000654962 6.57597e-05)
(1.3702e-06 0.000724636 5.25661e-05)
(4.17882e-06 0.000776581 4.36861e-05)
(7.28131e-06 0.000815019 3.66699e-05)
(1.05003e-05 0.000842814 3.01652e-05)
(1.37072e-05 0.000862491 2.38542e-05)
(1.68054e-05 0.000875565 1.75067e-05)
(1.97155e-05 0.000883605 1.11207e-05)
(2.2376e-05 0.000887431 4.55925e-06)
(2.47377e-05 0.000888085 -2.09306e-06)
(2.67644e-05 0.000885983 -8.94931e-06)
(2.84238e-05 0.00088185 -1.58682e-05)
(2.96826e-05 0.000875873 -2.28682e-05)
(3.05368e-05 0.000868591 -2.98084e-05)
(3.09595e-05 0.000860057 -3.6704e-05)
(3.09559e-05 0.000850685 -4.3408e-05)
(3.05103e-05 0.000840438 -4.99356e-05)
(2.96383e-05 0.000829627 -5.61441e-05)
(2.83354e-05 0.000818134 -6.20513e-05)
(2.66251e-05 0.000806156 -6.75248e-05)
(2.4522e-05 0.000793471 -7.25866e-05)
(2.20662e-05 0.000780127 -7.71168e-05)
(1.92846e-05 0.000765738 -8.11426e-05)
(1.6244e-05 0.000750119 -8.45553e-05)
(1.29991e-05 0.000732603 -8.73867e-05)
(9.64742e-06 0.000712621 -8.95352e-05)
(6.28443e-06 0.000689012 -9.10074e-05)
(3.04985e-06 0.000660536 -9.16382e-05)
(8.84208e-08 0.00062515 -9.14256e-05)
(-2.33791e-06 0.000580431 -9.07428e-05)
(-3.72673e-06 0.000522742 -9.06485e-05)
(-3.51281e-06 0.000447543 -8.84538e-05)
(-3.26636e-06 0.000284585 -5.71391e-05)
(-1.10803e-06 0.000347426 7.75828e-05)
(-1.24539e-06 0.000542518 7.13346e-05)
(-2.41929e-07 0.000633036 5.92516e-05)
(1.23199e-06 0.000701718 4.9505e-05)
(3.07092e-06 0.000753969 4.29233e-05)
(5.1029e-06 0.000793487 3.76225e-05)
(7.213e-06 0.000823395 3.27679e-05)
(9.33235e-06 0.000845693 2.80135e-05)
(1.13915e-05 0.000862235 2.33111e-05)
(1.33357e-05 0.00087408 1.85219e-05)
(1.51164e-05 0.00088238 1.36798e-05)
(1.66991e-05 0.00088767 8.71319e-06)
(1.80453e-05 0.000890707 3.72119e-06)
(1.91361e-05 0.000891735 -1.35243e-06)
(1.99556e-05 0.000891282 -6.40169e-06)
(2.04791e-05 0.000889421 -1.14541e-05)
(2.07027e-05 0.000886536 -1.63957e-05)
(2.06135e-05 0.000882594 -2.12505e-05)
(2.0216e-05 0.000877873 -2.59073e-05)
(1.95068e-05 0.000872254 -3.03927e-05)
(1.85013e-05 0.000865912 -3.46014e-05)
(1.72036e-05 0.000858632 -3.85644e-05)
(1.56417e-05 0.000850463 -4.21838e-05)
(1.38347e-05 0.000841045 -4.54966e-05)
(1.18235e-05 0.000830236 -4.84119e-05)
(9.64206e-06 0.000817443 -5.09725e-05)
(7.3528e-06 0.000802202 -5.30951e-05)
(5.01375e-06 0.000783513 -5.48257e-05)
(2.71548e-06 0.000760349 -5.60685e-05)
(5.46789e-07 0.000730993 -5.68233e-05)
(-1.36874e-06 0.000693423 -5.69997e-05)
(-2.84597e-06 0.000644636 -5.70037e-05)
(-3.51852e-06 0.000580823 -5.75598e-05)
(-3.09703e-06 0.000496677 -5.68054e-05)
(-2.57338e-06 0.00031353 -3.53293e-05)
(-8.5636e-07 0.000334029 6.19396e-05)
(-9.72809e-07 0.000527342 5.98508e-05)
(-6.01275e-07 0.000617203 5.27583e-05)
(-3.25118e-08 0.00068592 4.68412e-05)
(7.48356e-07 0.000738539 4.26922e-05)
(1.64899e-06 0.000779075 3.92842e-05)
(2.61672e-06 0.000810266 3.60496e-05)
(3.61297e-06 0.000834432 3.28985e-05)
(4.60188e-06 0.00085303 2.97281e-05)
(5.55269e-06 0.000867441 2.6563e-05)
(6.44174e-06 0.000878411 2.33282e-05)
(7.23888e-06 0.000886797 2.00834e-05)
(7.92088e-06 0.000892949 1.67871e-05)
(8.4776e-06 0.000897435 1.34968e-05)
(8.89019e-06 0.000900378 1.01778e-05)
(9.15436e-06 0.000902161 6.91186e-06)
(9.25176e-06 0.000902775 3.6963e-06)
(9.18251e-06 0.000902486 6.13663e-07)
(8.94255e-06 0.000901189 -2.37707e-06)
(8.53256e-06 0.000899051 -5.19305e-06)
(7.9554e-06 0.000895874 -7.87624e-06)
(7.22555e-06 0.000891719 -1.0348e-05)
(6.34828e-06 0.000886264 -1.26549e-05)
(5.34859e-06 0.000879416 -1.47229e-05)
(4.24419e-06 0.000870662 -1.66036e-05)
(3.06823e-06 0.000859656 -1.8229e-05)
(1.85394e-06 0.000845559 -1.96562e-05)
(6.43155e-07 0.000827586 -2.08239e-05)
(-5.12547e-07 0.000804323 -2.17841e-05)
(-1.54847e-06 0.000774211 -2.24554e-05)
(-2.39887e-06 0.000734804 -2.2902e-05)
(-2.94783e-06 0.000683169 -2.33328e-05)
(-2.98078e-06 0.000614996 -2.43664e-05)
(-2.38045e-06 0.000524883 -2.47946e-05)
(-1.76318e-06 0.000328355 -1.2988e-05)
(-1.02631e-06 0.00032244 5.06122e-05)
(-1.41931e-06 0.000515056 5.43068e-05)
(-1.67183e-06 0.000604724 5.23973e-05)
(-1.93104e-06 0.000673337 5.0281e-05)
(-2.0378e-06 0.000726187 4.86308e-05)
(-2.01998e-06 0.000767034 4.70238e-05)
(-1.92269e-06 0.000798895 4.53505e-05)
(-1.75964e-06 0.000823788 4.35574e-05)
(-1.55401e-06 0.00084346 4.17172e-05)
(-1.31627e-06 0.000858969 3.97924e-05)
(-1.06721e-06 0.000871355 3.7848e-05)
(-8.16285e-07 0.000881139 3.58453e-05)
(-5.756e-07 0.000888966 3.3852e-05)
(-3.60949e-07 0.000895043 3.1863e-05)
(-1.84221e-07 0.000899793 2.9954e-05)
(-5.2467e-08 0.000903272 2.80748e-05)
(3.3511e-08 0.000905767 2.62591e-05)
(6.40694e-08 0.000907199 2.44759e-05)
(4.19476e-08 0.000907745 2.27966e-05)
(-3.507e-08 0.000907235 2.11777e-05)
(-1.64493e-07 0.00090575 1.96826e-05)
(-3.43491e-07 0.000903016 1.82606e-05)
(-5.64146e-07 0.000898987 1.6972e-05)
(-8.20595e-07 0.00089324 1.57606e-05)
(-1.09923e-06 0.000885532 1.46817e-05)
(-1.38808e-06 0.00087519 1.36733e-05)
(-1.66833e-06 0.000861635 1.27797e-05)
(-1.92276e-06 0.000843761 1.19258e-05)
(-2.12568e-06 0.000820399 1.11439e-05)
(-2.25728e-06 0.000789669 1.03525e-05)
(-2.28956e-06 0.000749344 9.54231e-06)
(-2.1812e-06 0.000696169 8.41598e-06)
(-1.84573e-06 0.00062601 6.54599e-06)
(-1.26411e-06 0.000533139 4.333e-06)
(-7.97963e-07 0.000330948 6.51241e-06)
(-1.33153e-06 0.000311955 4.34756e-05)
(-2.04892e-06 0.000502574 5.30881e-05)
(-2.74693e-06 0.000591228 5.55574e-05)
(-3.57481e-06 0.000659187 5.66621e-05)
(-4.22493e-06 0.000711485 5.70825e-05)
(-4.72934e-06 0.000752092 5.70228e-05)
(-5.11619e-06 0.000783748 5.65725e-05)
(-5.4145e-06 0.000808716 5.58873e-05)
(-5.62477e-06 0.000828457 5.50111e-05)
(-5.76102e-06 0.000844285 5.4044e-05)
(-5.82942e-06 0.000856953 5.29823e-05)
(-5.84142e-06 0.000867247 5.19001e-05)
(-5.79976e-06 0.00087552 5.07749e-05)
(-5.71981e-06 0.000882263 4.96682e-05)
(-5.60026e-06 0.000887597 4.8546e-05)
(-5.45136e-06 0.000891822 4.74848e-05)
(-5.28021e-06 0.000894914 4.64523e-05)
(-5.091e-06 0.000897075 4.54996e-05)
(-4.88248e-06 0.000898187 4.45829e-05)
(-4.66133e-06 0.000898353 4.37526e-05)
(-4.42534e-06 0.00089736 4.29596e-05)
(-4.17829e-06 0.000895206 4.22503e-05)
(-3.91923e-06 0.000891554 4.15703e-05)
(-3.64464e-06 0.00088625 4.096e-05)
(-3.35508e-06 0.000878768 4.03573e-05)
(-3.04747e-06 0.000868705 3.97929e-05)
(-2.71872e-06 0.000855211 3.9191e-05)
(-2.36941e-06 0.000837452 3.85614e-05)
(-2.00187e-06 0.000814004 3.78026e-05)
(-1.61452e-06 0.000783266 3.68865e-05)
(-1.22281e-06 0.000742791 3.56403e-05)
(-8.35278e-07 0.000689609 3.38298e-05)
(-4.63396e-07 0.000619427 3.09123e-05)
(-8.0667e-08 0.000526811 2.67878e-05)
(8.28011e-08 0.00032543 2.06592e-05)
(-1.49776e-06 0.000302122 3.72054e-05)
(-2.39239e-06 0.000488664 5.04228e-05)
(-3.30978e-06 0.000575446 5.55646e-05)
(-4.39024e-06 0.000641885 5.86072e-05)
(-5.27949e-06 0.000693102 6.03358e-05)
(-5.9904e-06 0.000732775 6.1207e-05)
(-6.57697e-06 0.000763803 6.15487e-05)
(-7.0474e-06 0.000788177 6.15129e-05)
(-7.41817e-06 0.00080756 6.12586e-05)
(-7.68624e-06 0.000823003 6.08341e-05)
(-7.86717e-06 0.000835479 6.03336e-05)
(-7.95529e-06 0.000845517 5.97618e-05)
(-7.96612e-06 0.000853702 5.9185e-05)
(-7.89724e-06 0.000860266 5.85885e-05)
(-7.75822e-06 0.000865571 5.80264e-05)
(-7.5508e-06 0.000869673 5.74735e-05)
(-7.2837e-06 0.000872795 5.69767e-05)
(-6.95899e-06 0.000874879 5.65036e-05)
(-6.58636e-06 0.00087605 5.60949e-05)
(-6.16485e-06 0.000876155 5.57117e-05)
(-5.70531e-06 0.000875227 5.53889e-05)
(-5.20908e-06 0.000873009 5.50818e-05)
(-4.67797e-06 0.000869416 5.48187e-05)
(-4.11946e-06 0.000864047 5.45466e-05)
(-3.53583e-06 0.000856631 5.42853e-05)
(-2.93484e-06 0.00084653 5.39693e-05)
(-2.3232e-06 0.00083316 5.36004e-05)
(-1.71052e-06 0.000815472 5.3088e-05)
(-1.10789e-06 0.000792328 5.23948e-05)
(-5.3848e-07 0.000761948 5.1376e-05)
(-2.41031e-08 0.000722204 4.98974e-05)
(3.81281e-07 0.000670011 4.76155e-05)
(6.28366e-07 0.000601453 4.4029e-05)
(7.70742e-07 0.000511103 3.86148e-05)
(6.65752e-07 0.000315177 2.73499e-05)
(-1.34108e-06 0.000293429 2.92831e-05)
(-2.19964e-06 0.000475102 4.24155e-05)
(-3.08374e-06 0.000559551 4.80534e-05)
(-4.14023e-06 0.000624254 5.15584e-05)
(-5.0177e-06 0.000674042 5.35877e-05)
(-5.73984e-06 0.000712652 5.4732e-05)
(-6.33356e-06 0.000742729 5.53005e-05)
(-6.82373e-06 0.000766397 5.55134e-05)
(-7.20295e-06 0.000785083 5.54727e-05)
(-7.48648e-06 0.000800012 5.52915e-05)
(-7.66787e-06 0.000811932 5.50049e-05)
(-7.76082e-06 0.000821566 5.46823e-05)
(-7.7597e-06 0.000829279 5.43281e-05)
(-7.6749e-06 0.000835508 5.39923e-05)
(-7.50725e-06 0.000840398 5.36645e-05)
(-7.26873e-06 0.000844214 5.33843e-05)
(-6.95703e-06 0.000846966 5.31326e-05)
(-6.58396e-06 0.000848808 5.29416e-05)
(-6.15433e-06 0.00084965 5.2785e-05)
(-5.67346e-06 0.000849555 5.26885e-05)
(-5.1485e-06 0.000848342 5.26192e-05)
(-4.58693e-06 0.000845974 5.25963e-05)
(-3.99596e-06 0.000842155 5.25799e-05)
(-3.38318e-06 0.000836707 5.25811e-05)
(-2.75523e-06 0.000829157 5.25507e-05)
(-2.11917e-06 0.000819102 5.24871e-05)
(-1.49072e-06 0.000805768 5.23241e-05)
(-8.78907e-07 0.000788357 5.20339e-05)
(-3.03536e-07 0.000765573 5.15125e-05)
(2.21413e-07 0.000735913 5.06744e-05)
(6.58478e-07 0.000697146 4.93227e-05)
(9.59079e-07 0.000646506 4.7192e-05)
(1.06028e-06 0.000580088 4.37651e-05)
(1.04586e-06 0.000492855 3.84779e-05)
(8.15715e-07 0.000303928 2.63699e-05)
(-9.01167e-07 0.000287012 1.88415e-05)
(-1.54593e-06 0.000464729 2.82116e-05)
(-2.22946e-06 0.000547359 3.2438e-05)
(-3.07174e-06 0.000610584 3.50572e-05)
(-3.81436e-06 0.000659259 3.65365e-05)
(-4.44312e-06 0.000696887 3.73157e-05)
(-4.98382e-06 0.000726205 3.76717e-05)
(-5.43178e-06 0.000749135 3.77394e-05)
(-5.79635e-06 0.000767239 3.76328e-05)
(-6.06646e-06 0.000781552 3.74054e-05)
(-6.24869e-06 0.000792981 3.71242e-05)
(-6.33977e-06 0.000802066 3.68088e-05)
(-6.34883e-06 0.000809344 3.65043e-05)
(-6.27125e-06 0.000815073 3.62142e-05)
(-6.12022e-06 0.000819573 3.59721e-05)
(-5.89421e-06 0.000822935 3.57723e-05)
(-5.60611e-06 0.000825346 3.56403e-05)
(-5.25916e-06 0.000826783 3.55631e-05)
(-4.86242e-06 0.000827339 3.5559e-05)
(-4.42309e-06 0.000826899 3.56083e-05)
(-3.95293e-06 0.000825464 3.57226e-05)
(-3.45972e-06 0.000822822 3.58756e-05)
(-2.94899e-06 0.000818862 3.6072e-05)
(-2.43042e-06 0.000813235 3.62781e-05)
(-1.91171e-06 0.000805657 3.64904e-05)
(-1.40609e-06 0.000795561 3.6666e-05)
(-9.15748e-07 0.000782374 3.67876e-05)
(-4.55603e-07 0.000765151 3.67942e-05)
(-3.42054e-08 0.00074281 3.66404e-05)
(3.28798e-07 0.000713737 3.62248e-05)
(6.20013e-07 0.000675944 3.54344e-05)
(8.00095e-07 0.00062661 3.40482e-05)
(8.32937e-07 0.00056213 3.17307e-05)
(7.84869e-07 0.000477515 2.80231e-05)
(5.90545e-07 0.000294575 1.91306e-05)
(-3.098e-07 0.000284204 7.18054e-06)
(-6.76329e-07 0.000460511 1.05344e-05)
(-1.06632e-06 0.000542431 1.21769e-05)
(-1.62897e-06 0.000605108 1.31165e-05)
(-2.17936e-06 0.000653251 1.34925e-05)
(-2.69471e-06 0.000690448 1.35388e-05)
(-3.15713e-06 0.000719296 1.33761e-05)
(-3.56594e-06 0.000741831 1.30861e-05)
(-3.90851e-06 0.000759479 1.27088e-05)
(-4.18226e-06 0.000773404 1.22925e-05)
(-4.3741e-06 0.000784378 1.18584e-05)
(-4.49249e-06 0.000793081 1.14417e-05)
(-4.53132e-06 0.000799914 1.10535e-05)
(-4.4978e-06 0.000805278 1.07208e-05)
(-4.39485e-06 0.000809358 1.04477e-05)
(-4.22992e-06 0.000812388 1.0255e-05)
(-4.00797e-06 0.000814419 1.01405e-05)
(-3.74218e-06 0.000815573 1.01181e-05)
(-3.43535e-06 0.000815802 1.01793e-05)
(-3.10221e-06 0.000815138 1.03309e-05)
(-2.75355e-06 0.000813441 1.05584e-05)
(-2.39245e-06 0.000810644 1.08619e-05)
(-2.0339e-06 0.000806496 1.12205e-05)
(-1.68186e-06 0.000800792 1.1629e-05)
(-1.34499e-06 0.000793112 1.20608e-05)
(-1.03195e-06 0.000783036 1.25052e-05)
(-7.47091e-07 0.000769861 1.29299e-05)
(-4.90897e-07 0.000752791 1.33169e-05)
(-2.70459e-07 0.00073063 1.36245e-05)
(-8.65828e-08 0.00070192 1.38204e-05)
(4.99217e-08 0.000664585 1.38405e-05)
(1.41947e-07 0.000615977 1.36125e-05)
(1.81774e-07 0.000552443 1.30017e-05)
(2.13826e-07 0.000469198 1.18392e-05)
(1.41969e-07 0.000289274 8.6574e-06)
(2.47407e-07 0.000285588 -3.62673e-06)
(1.33993e-07 0.000463453 -6.52502e-06)
(2.15033e-08 0.000546075 -7.61611e-06)
(-2.70075e-07 0.000609184 -8.47557e-06)
(-6.51361e-07 0.000657609 -9.26727e-06)
(-1.05689e-06 0.000694896 -1.00171e-05)
(-1.46196e-06 0.000723763 -1.07353e-05)
(-1.83836e-06 0.000746179 -1.14349e-05)
(-2.17764e-06 0.000763684 -1.21131e-05)
(-2.46078e-06 0.000777366 -1.27673e-05)
(-2.68113e-06 0.000788111 -1.33822e-05)
(-2.83316e-06 0.000796509 -1.39486e-05)
(-2.92103e-06 0.000803075 -1.44484e-05)
(-2.94128e-06 0.000808116 -1.48724e-05)
(-2.90236e-06 0.000811931 -1.52045e-05)
(-2.8083e-06 0.000814655 -1.5439e-05)
(-2.6687e-06 0.00081645 -1.55645e-05)
(-2.49348e-06 0.000817336 -1.55809e-05)
(-2.29331e-06 0.000817375 -1.54831e-05)
(-2.07702e-06 0.000816494 -1.52774e-05)
(-1.85426e-06 0.00081466 -1.49662e-05)
(-1.63648e-06 0.000811702 -1.45623e-05)
(-1.4317e-06 0.000807469 -1.40716e-05)
(-1.24912e-06 0.000801651 -1.35098e-05)
(-1.09088e-06 0.000793928 -1.28862e-05)
(-9.62642e-07 0.000783771 -1.22181e-05)
(-8.63209e-07 0.000770574 -1.15137e-05)
(-7.94113e-07 0.000753436 -1.07853e-05)
(-7.46515e-07 0.000731253 -1.00325e-05)
(-7.19045e-07 0.000702461 -9.25215e-06)
(-6.92548e-07 0.000665069 -8.42049e-06)
(-6.51005e-07 0.000616331 -7.48997e-06)
(-5.55182e-07 0.000552661 -6.36706e-06)
(-4.00341e-07 0.000469186 -4.91804e-06)
(-3.29523e-07 0.000288828 -1.99146e-06)
(6.38673e-07 0.000290886 -1.16905e-05)
(6.79007e-07 0.000472902 -1.94578e-05)
(7.79194e-07 0.000557386 -2.27238e-05)
(6.82113e-07 0.000621857 -2.50302e-05)
(4.36453e-07 0.000671203 -2.67777e-05)
(1.10316e-07 0.000709134 -2.81825e-05)
(-2.39134e-07 0.000738373 -2.93717e-05)
(-5.9116e-07 0.000761014 -3.04175e-05)
(-9.14962e-07 0.000778573 -3.13617e-05)
(-1.1995e-06 0.000792244 -3.22223e-05)
(-1.43266e-06 0.000802867 -3.3005e-05)
(-1.60949e-06 0.00081113 -3.37056e-05)
(-1.72647e-06 0.000817493 -3.43166e-05)
(-1.78557e-06 0.00082235 -3.48274e-05)
(-1.79135e-06 0.000825939 -3.52284e-05)
(-1.75167e-06 0.000828479 -3.55099e-05)
(-1.67335e-06 0.000830064 -3.56656e-05)
(-1.56832e-06 0.000830794 -3.56908e-05)
(-1.44519e-06 0.000830659 -3.55848e-05)
(-1.31597e-06 0.000829661 -3.53491e-05)
(-1.18974e-06 0.000827691 -3.49881e-05)
(-1.07892e-06 0.000824647 -3.45087e-05)
(-9.9142e-07 0.000820302 -3.39215e-05)
(-9.30278e-07 0.000814412 -3.32375e-05)
(-9.04194e-07 0.000806574 -3.24678e-05)
(-9.09708e-07 0.000796318 -3.16198e-05)
(-9.49541e-07 0.00078295 -3.06969e-05)
(-1.01272e-06 0.000765617 -2.96919e-05)
(-1.09373e-06 0.000743117 -2.85842e-05)
(-1.16975e-06 0.000713921 -2.73294e-05)
(-1.22375e-06 0.000675922 -2.58473e-05)
(-1.21005e-06 0.000626381 -2.39867e-05)
(-1.07282e-06 0.000561567 -2.14804e-05)
(-8.16567e-07 0.00047657 -1.79621e-05)
(-6.70245e-07 0.000292835 -1.02376e-05)
(7.92497e-07 0.000298927 -1.60146e-05)
(8.74712e-07 0.000486482 -2.61865e-05)
(1.07415e-06 0.000573502 -3.05476e-05)
(1.07707e-06 0.000639811 -3.35882e-05)
(9.04093e-07 0.000690489 -3.58214e-05)
(6.3979e-07 0.000729337 -3.75625e-05)
(3.34997e-07 0.000759214 -3.89964e-05)
(2.4643e-08 0.000782243 -4.02264e-05)
(-2.71474e-07 0.000800043 -4.13143e-05)
(-5.34038e-07 0.000813804 -4.22902e-05)
(-7.52839e-07 0.000824451 -4.31679e-05)
(-9.17483e-07 0.000832649 -4.39478e-05)
(-1.03161e-06 0.00083893 -4.46253e-05)
(-1.09278e-06 0.000843656 -4.51907e-05)
(-1.10577e-06 0.000847127 -4.56359e-05)
(-1.07906e-06 0.000849523 -4.59511e-05)
(-1.0215e-06 0.000850995 -4.61303e-05)
(-9.41738e-07 0.000851599 -4.61683e-05)
(-8.50576e-07 0.000851377 -4.6065e-05)
(-7.6088e-07 0.000850281 -4.58209e-05)
(-6.79833e-07 0.000848251 -4.54421e-05)
(-6.20827e-07 0.000845129 -4.49348e-05)
(-5.90444e-07 0.000840732 -4.4309e-05)
(-5.92832e-07 0.000834754 -4.35735e-05)
(-6.33787e-07 0.000826826 -4.27382e-05)
(-7.14591e-07 0.000816413 -4.18069e-05)
(-8.25813e-07 0.000802844 -4.07795e-05)
(-9.62164e-07 0.000785188 -3.96408e-05)
(-1.10974e-06 0.000762249 -3.83596e-05)
(-1.25004e-06 0.000732401 -3.6872e-05)
(-1.35229e-06 0.000693515 -3.50709e-05)
(-1.3719e-06 0.000642723 -3.27538e-05)
(-1.23206e-06 0.000576211 -2.95723e-05)
(-9.45934e-07 0.000488889 -2.50384e-05)
(-8.0552e-07 0.000300079 -1.4905e-05)
(7.35388e-07 0.000308135 -1.65897e-05)
(7.63079e-07 0.000501351 -2.65437e-05)
(9.58493e-07 0.000590952 -3.08439e-05)
(9.64118e-07 0.000659169 -3.38537e-05)
(8.16687e-07 0.000711215 -3.60664e-05)
(5.85608e-07 0.000751049 -3.77978e-05)
(3.2487e-07 0.000781595 -3.92274e-05)
(5.88954e-08 0.000805079 -4.04593e-05)
(-1.92074e-07 0.000823149 -4.15509e-05)
(-4.11189e-07 0.000837068 -4.2534e-05)
(-5.85038e-07 0.000847767 -4.34193e-05)
(-7.09302e-07 0.000855968 -4.42091e-05)
(-7.83445e-07 0.000862193 -4.4896e-05)
(-8.12453e-07 0.000866854 -4.54729e-05)
(-7.96177e-07 0.000870231 -4.59282e-05)
(-7.43529e-07 0.000872546 -4.62547e-05)
(-6.62128e-07 0.000873927 -4.64437e-05)
(-5.64548e-07 0.000874465 -4.64926e-05)
(-4.60953e-07 0.000874172 -4.6398e-05)
(-3.60607e-07 0.000873032 -4.61634e-05)
(-2.7517e-07 0.000870951 -4.57919e-05)
(-2.13038e-07 0.000867798 -4.52924e-05)
(-1.83692e-07 0.000863348 -4.46725e-05)
(-1.9128e-07 0.000857316 -4.39436e-05)
(-2.40063e-07 0.000849289 -4.3113e-05)
(-3.2796e-07 0.000838741 -4.21881e-05)
(-4.53603e-07 0.000824945 -4.11661e-05)
(-6.05783e-07 0.000806969 -4.0036e-05)
(-7.73764e-07 0.000783545 -3.8765e-05)
(-9.36366e-07 0.000753022 -3.72945e-05)
(-1.07023e-06 0.000713171 -3.55176e-05)
(-1.1271e-06 0.000661063 -3.32441e-05)
(-1.0419e-06 0.000592734 -3.01349e-05)
(-7.96434e-07 0.000502963 -2.57161e-05)
(-7.35408e-07 0.000308773 -1.57861e-05)
(5.19957e-07 0.000316875 -1.43216e-05)
(4.38266e-07 0.000514734 -2.19445e-05)
(5.45204e-07 0.000606469 -2.52523e-05)
(4.90886e-07 0.000676252 -2.76086e-05)
(3.27184e-07 0.000729441 -2.939e-05)
(1.15844e-07 0.000770081 -3.08249e-05)
(-1.10055e-07 0.000801192 -3.2046e-05)
(-3.25002e-07 0.000825043 -3.31254e-05)
(-5.1725e-07 0.000843346 -3.4105e-05)
(-6.71765e-07 0.000857385 -3.50018e-05)
(-7.79249e-07 0.000868136 -3.5822e-05)
(-8.40475e-07 0.000876328 -3.65602e-05)
(-8.52058e-07 0.000882519 -3.7209e-05)
(-8.17227e-07 0.000887118 -3.77566e-05)
(-7.41682e-07 0.000890434 -3.81933e-05)
(-6.3178e-07 0.00089268 -3.85082e-05)
(-4.98227e-07 0.000894007 -3.86953e-05)
(-3.48918e-07 0.000894491 -3.87483e-05)
(-1.94994e-07 0.000894167 -3.86671e-05)
(-4.92753e-08 0.000892998 -3.8452e-05)
(8.05912e-08 0.000890906 -3.81093e-05)
(1.85804e-07 0.000887737 -3.7645e-05)
(2.57562e-07 0.000883277 -3.70703e-05)
(2.88542e-07 0.000877213 -3.63947e-05)
(2.77326e-07 0.000869136 -3.56301e-05)
(2.19047e-07 0.000858484 -3.47837e-05)
(1.23778e-07 0.000844529 -3.38605e-05)
(-5.42014e-09 0.00082629 -3.28542e-05)
(-1.60555e-07 0.000802482 -3.1747e-05)
(-3.2484e-07 0.000771393 -3.04961e-05)
(-4.77364e-07 0.00073075 -2.90276e-05)
(-5.83891e-07 0.000677534 -2.7201e-05)
(-5.92346e-07 0.000607694 -2.47722e-05)
(-4.55437e-07 0.000515871 -2.13775e-05)
(-5.17051e-07 0.000317204 -1.37612e-05)
(2.27061e-07 0.00032389 -1.04373e-05)
(2.49757e-08 0.000524699 -1.44772e-05)
(2.37353e-09 0.000617789 -1.62353e-05)
(-1.48971e-07 0.000688572 -1.75647e-05)
(-3.48173e-07 0.000742475 -1.86624e-05)
(-5.55632e-07 0.000783621 -1.96247e-05)
(-7.46954e-07 0.000815065 -2.0506e-05)
(-9.14066e-07 0.00083913 -2.13349e-05)
(-1.04393e-06 0.000857545 -2.21233e-05)
(-1.12803e-06 0.000871632 -2.28721e-05)
(-1.1649e-06 0.000882375 -2.35742e-05)
(-1.15268e-06 0.000890533 -2.42189e-05)
(-1.08729e-06 0.000896664 -2.47927e-05)
(-9.79172e-07 0.0009012 -2.52831e-05)
(-8.31878e-07 0.000904447 -2.5677e-05)
(-6.50518e-07 0.000906637 -2.59644e-05)
(-4.48103e-07 0.000907912 -2.61372e-05)
(-2.32144e-07 0.000908366 -2.61904e-05)
(-1.32817e-08 0.000908019 -2.61221e-05)
(1.98349e-07 0.000906849 -2.59343e-05)
(3.92597e-07 0.000904763 -2.56318e-05)
(5.59704e-07 0.000901614 -2.52229e-05)
(6.91802e-07 0.000897171 -2.47173e-05)
(7.84377e-07 0.000891126 -2.4128e-05)
(8.3128e-07 0.000883046 -2.34678e-05)
(8.30433e-07 0.00087237 -2.27498e-05)
(7.84011e-07 0.000858341 -2.19844e-05)
(6.93652e-07 0.000839972 -2.11785e-05)
(5.67507e-07 0.000815942 -2.03304e-05)
(4.16281e-07 0.000784519 -1.9428e-05)
(2.49913e-07 0.00074338 -1.84406e-05)
(8.85461e-08 0.00068947 -1.73084e-05)
(-3.27007e-08 0.000618665 -1.59232e-05)
(-3.67477e-08 0.000525539 -1.40969e-05)
(-2.28643e-07 0.000324026 -1.00513e-05)
(-6.30741e-08 0.000328458 -6.18971e-06)
(-3.72925e-07 0.000530296 -6.304e-06)
(-5.38255e-07 0.000623866 -6.35504e-06)
(-7.90057e-07 0.000694988 -6.54677e-06)
(-1.02647e-06 0.000749124 -6.88234e-06)
(-1.2311e-06 0.000790408 -7.31167e-06)
(-1.39682e-06 0.000821923 -7.80037e-06)
(-1.51751e-06 0.000845999 -8.32634e-06)
(-1.58988e-06 0.000864387 -8.88325e-06)
(-1.61022e-06 0.000878411 -9.45221e-06)
(-1.57733e-06 0.000889076 -1.001e-05)