/*--------------------------------*- C++ -*----------------------------------*\
| =========                 |                                                 |
| \\      /  F ield         | OpenFOAM: The Open Source CFD Toolbox           |
|  \\    /   O peration     | Version:  v1906                                 |
|   \\  /    A nd           | Web:      www.OpenFOAM.com                      |
|    \\/     M anipulation  |                                                 |
\*---------------------------------------------------------------------------*/
FoamFile
{
    version     2.0;
    format      ascii;
    class       volScalarField;
    location    "21";
    object      alphat;
}
// * * * * * * * * * * * * * * * * * * * * * * * * * * * * * * * * * * * * * //

dimensions      [1 -1 -1 0 0 0 0];


internalField   nonuniform List<scalar> 
78750
(
0.00124486
0.00274036
0.00189659
0.000654112
0.000180532
2.29766e-05
3.82321e-05
2.2763e-05
4.15311e-05
3.72684e-05
5.20536e-05
4.7383e-05
6.39198e-05
6.23296e-05
7.00668e-05
7.4131e-05
7.82011e-05
8.25586e-05
8.64419e-05
9.02931e-05
9.40073e-05
9.76539e-05
0.000101281
0.000104925
0.000108626
0.000112418
0.000116321
0.000120342
0.000124229
0.000126274
0.000123907
0.000119941
9.64011e-05
2.57797e-05
8.16611e-07
0.000144238
0.000142264
5.97031e-06
5.15586e-05
2.67185e-05
2.81124e-05
2.97955e-05
3.60073e-05
3.8411e-05
4.6457e-05
5.29768e-05
6.57445e-05
8.1826e-05
0.000102148
0.000122587
0.000139054
0.000152437
0.000163686
0.000173339
0.000181467
0.000188772
0.000195403
0.000201364
0.00020675
0.000211657
0.000216172
0.000220435
0.000224564
0.000228551
0.000231218
0.000223378
0.000175782
7.82204e-05
1.8494e-05
1.58588e-06
7.71341e-06
2.06723e-05
6.48922e-05
5.5254e-05
5.98172e-05
0.000199868
0.000107868
7.32117e-05
6.83634e-05
6.44898e-05
6.11749e-05
5.9639e-05
6.04552e-05
6.37843e-05
7.02582e-05
8.08042e-05
9.53498e-05
0.000112232
0.000129215
0.000144895
0.000158844
0.000170651
0.000180047
0.000187763
0.000196104
0.000207965
0.000223509
0.000236919
0.000236921
0.000211795
0.000156282
8.70937e-05
4.01089e-05
1.99513e-05
3.08595e-06
1.59205e-06
1.03839e-05
1.97107e-05
5.5968e-05
0.000124984
9.81941e-05
7.80914e-05
7.10595e-05
6.98693e-05
7.19002e-05
7.40796e-05
7.38997e-05
7.32247e-05
7.62734e-05
8.56097e-05
0.000102428
0.000126844
0.000156597
0.000188416
0.000218143
0.000240485
0.000249462
0.000248382
0.00024149
0.000232011
0.000223752
0.000217625
0.000214374
0.000214206
0.000209888
0.000178099
0.000100028
3.51618e-05
1.67599e-05
3.71916e-06
4.19293e-06
4.44039e-05
0.00020485
0.000249694
0.000199153
0.000139771
0.000101576
8.22045e-05
7.49344e-05
7.42613e-05
7.53277e-05
7.5074e-05
7.93692e-05
0.000105414
0.000171127
0.000232557
0.000231544
0.00023067
0.000230033
0.000229693
0.000229651
0.000229868
0.000230309
0.00023099
0.000232
0.000233496
0.000235646
0.00023854
0.000242088
0.000212069
0.000114007
4.84802e-05
2.51354e-05
2.11009e-05
5.03828e-06
4.14067e-06
2.75934e-05
7.38686e-05
0.000144867
0.000163776
0.00012443
9.20653e-05
7.74214e-05
7.28503e-05
7.28992e-05
7.45419e-05
7.50123e-05
7.22332e-05
6.94863e-05
7.50308e-05
9.6838e-05
0.000137682
0.000182295
0.000211305
0.000225866
0.000234411
0.000240233
0.000243502
0.000245038
0.00024612
0.00024668
0.000244653
0.000230079
0.000202063
0.000162381
0.000106954
4.50034e-05
1.90791e-05
1.81288e-05
5.63304e-06
5.99745e-06
4.7598e-05
0.000178736
0.000182237
0.000121267
8.00547e-05
6.20897e-05
5.70226e-05
5.84048e-05
6.25673e-05
6.74956e-05
7.4393e-05
9.1474e-05
0.000133081
0.000197651
0.000225217
0.00022551
0.000226369
0.000227679
0.000229386
0.000231434
0.000229993
0.000223244
0.000225949
0.00023194
0.000231976
0.000221145
0.000199729
0.000169462
0.000128695
7.63479e-05
3.30371e-05
1.80447e-05
2.40579e-05
6.38371e-06
6.35316e-06
3.70238e-05
0.000128236
0.000175832
0.000120407
7.246e-05
5.3854e-05
5.13996e-05
5.76185e-05
6.73737e-05
7.60058e-05
8.08854e-05
8.31826e-05
8.93236e-05
0.000108519
0.000146788
0.000193836
0.000225653
0.000232926
0.000233431
0.00022218
0.000206374
0.000190159
0.00017626
0.000166907
0.000162484
0.000160299
0.000155888
0.000145522
0.000126385
9.07555e-05
4.01512e-05
1.65398e-05
2.02672e-05
6.56995e-06
7.9334e-06
5.1187e-05
0.000171506
0.000152532
8.65341e-05
5.16372e-05
3.88539e-05
3.69973e-05
4.23405e-05
5.34217e-05
7.01059e-05
9.95509e-05
0.000153145
0.000217855
0.000227986
0.000228367
0.000229034
0.000230033
0.000231354
0.00023293
0.000234632
0.000222453
0.000190016
0.000165295
0.000150493
0.000142038
0.000135611
0.000126787
0.000112494
9.07325e-05
5.91319e-05
2.65929e-05
1.51262e-05
2.3063e-05
7.16838e-06
7.86107e-06
4.5279e-05
0.000142317
0.000139911
8.65695e-05
5.26176e-05
3.94267e-05
3.74176e-05
4.26128e-05
5.26819e-05
6.35001e-05
7.43311e-05
9.4238e-05
0.00013557
0.000193257
0.000226859
0.000227341
0.000228296
0.000229692
0.000231448
0.000233408
0.000217311
0.000191694
0.000167528
0.000149352
0.000137304
0.00012881
0.000119861
0.000106841
8.60063e-05
5.09253e-05
1.69532e-05
1.12538e-05
2.29845e-05
8.03926e-06
8.4017e-06
5.53158e-05
0.000158316
0.000136724
8.26178e-05
5.02884e-05
3.58822e-05
3.08415e-05
3.19571e-05
4.05189e-05
6.51654e-05
0.000123212
0.000201952
0.000221313
0.000222932
0.000224748
0.000226734
0.00022889
0.000231211
0.000233663
0.000236166
0.000231226
0.000203202
0.000181725
0.000170367
0.000164109
0.000156281
0.000140967
0.00011475
7.58283e-05
3.01876e-05
1.02145e-05
1.20086e-05
3.85422e-05
9.07869e-06
7.86591e-06
4.51846e-05
0.000137102
0.000160265
0.000130049
8.25049e-05
5.13736e-05
3.72891e-05
3.22396e-05
3.19292e-05
3.5407e-05
4.54901e-05
7.02086e-05
0.000118142
0.00017964
0.000220537
0.000223413
0.000226659
0.000230091
0.000233556
0.000236914
0.000240029
0.000242749
0.000194038
0.000162014
0.000151663
0.000150721
0.00014429
0.000117601
6.89059e-05
2.48218e-05
9.75608e-06
1.53962e-05
7.61106e-05
8.96765e-06
8.26586e-06
4.85875e-05
0.000135578
0.000160857
0.000141722
0.000105866
7.21383e-05
4.95984e-05
3.76416e-05
3.27466e-05
3.23278e-05
3.55864e-05
4.54792e-05
7.21513e-05
0.000122981
0.000159935
0.000173169
0.000188796
0.00021365
0.000233391
0.00023808
0.000242484
0.00024633
0.000239178
0.00018585
0.000147971
0.000127435
0.000114676
9.79278e-05
6.51773e-05
2.67855e-05
1.01088e-05
1.47414e-05
8.39478e-05
8.69463e-06
7.43406e-06
3.88844e-05
0.000115019
0.000163089
0.000170198
0.000154382
0.00011963
8.07541e-05
5.37608e-05
3.88469e-05
3.13864e-05
2.85385e-05
2.93182e-05
3.42881e-05
4.73583e-05
7.74905e-05
0.000121941
0.000149572
0.000161251
0.000172903
0.000188706
0.000206255
0.000218608
0.000216076
0.000194964
0.000163742
0.000134217
0.000111265
9.23081e-05
6.98753e-05
3.86483e-05
1.45693e-05
1.30084e-05
5.71547e-05
8.72787e-06
7.31342e-06
3.66689e-05
0.000109466
0.000165995
0.000174449
0.000163082
0.000146335
0.000126481
9.90632e-05
6.96609e-05
4.86677e-05
3.66905e-05
3.08438e-05
2.96537e-05
3.33393e-05
4.37234e-05
6.43136e-05
9.694e-05
0.0001309
0.000154877
0.000172422
0.000187739
0.000199987
0.000204737
0.000196628
0.000174727
0.00014556
0.000117329
9.35359e-05
7.21141e-05
4.68842e-05
1.88071e-05
1.07425e-05
3.50432e-05
9.01138e-06
7.35445e-06
3.47058e-05
0.000106701
0.000162682
0.000170512
0.000156365
0.000133529
0.00011241
9.75586e-05
8.62159e-05
7.24901e-05
5.57012e-05
4.13565e-05
3.2371e-05
2.86865e-05
3.07243e-05
4.13415e-05
6.38153e-05
9.12471e-05
0.000120808
0.000162979
0.000214582
0.000220561
0.000226584
0.00023247
0.000227285
0.000179344
0.000135932
0.000100529
6.83716e-05
3.82297e-05
1.85916e-05
1.31993e-05
4.04924e-05
9.37952e-06
7.66222e-06
3.58772e-05
0.000109814
0.000167978
0.000176308
0.000162303
0.000138974
0.000114606
9.38221e-05
7.93962e-05
7.22772e-05
6.96183e-05
6.3739e-05
5.08656e-05
3.8592e-05
3.21422e-05
3.25938e-05
4.33339e-05
7.19923e-05
0.000112346
0.000138127
0.000161376
0.00020282
0.000228335
0.00023275
0.000236687
0.000206373
0.000149023
0.000102143
6.33537e-05
3.00789e-05
1.46056e-05
1.57936e-05
6.08206e-05
9.77977e-06
8.11923e-06
3.8438e-05
0.000123976
0.000178918
0.000174928
0.00014786
0.000119615
0.000100599
8.82095e-05
7.67481e-05
6.61964e-05
6.08862e-05
6.16557e-05
6.21062e-05
5.36105e-05
4.14015e-05
3.44914e-05
3.61727e-05
5.32941e-05
0.000102011
0.000148952
0.000143707
0.000134986
0.000147778
0.000186184
0.000230927
0.000231908
0.000174095
9.65521e-05
4.25395e-05
1.95649e-05
1.4005e-05
2.35009e-05
0.000109757
9.81603e-06
8.55022e-06
4.22732e-05
0.000138463
0.000187003
0.000166701
0.000125049
9.48899e-05
8.11919e-05
7.75822e-05
7.75223e-05
7.55938e-05
7.15366e-05
6.9788e-05
7.08526e-05
6.77818e-05
5.62902e-05
4.43737e-05
3.9118e-05
4.2844e-05
6.11899e-05
0.00010703
0.000162102
0.000163697
0.000144679
0.000138251
0.000146458
0.0001546
0.000136523
8.48343e-05
3.72258e-05
1.67552e-05
1.54618e-05
3.40822e-05
0.000109487
9.72073e-06
9.02007e-06
4.60745e-05
0.000153759
0.000179984
0.000134507
8.99459e-05
6.98575e-05
6.50529e-05
6.62245e-05
6.8265e-05
7.01537e-05
7.26553e-05
7.63873e-05
8.04496e-05
8.04326e-05
7.16427e-05
5.8155e-05
4.88935e-05
4.81152e-05
5.81084e-05
8.2554e-05
0.000119688
0.000147942
0.000150688
0.000141222
0.000134194
0.000130424
0.000120435
9.28394e-05
4.9521e-05
1.87879e-05
1.17411e-05
2.60476e-05
0.000105257
9.49229e-06
9.27991e-06
4.86932e-05
0.000161457
0.000162192
9.87881e-05
6.36523e-05
5.51886e-05
6.09761e-05
7.26053e-05
8.16466e-05
8.50434e-05
8.64375e-05
8.9245e-05
9.27966e-05
9.276e-05
8.49615e-05
7.12254e-05
5.87312e-05
5.30023e-05
5.63819e-05
7.09179e-05
9.61636e-05
0.000121109
0.000131286
0.000127901
0.000120869
0.000114443
0.000101117
7.22835e-05
4.01544e-05
2.07122e-05
1.26006e-05
2.4397e-05
0.000106511
9.68341e-06
1.00583e-05
5.76032e-05
0.000166914
0.000125531
6.80691e-05
4.65186e-05
4.56581e-05
5.60066e-05
7.02253e-05
8.1634e-05
8.92253e-05
9.6286e-05
0.000105298
0.00011504
0.000120411
0.000115835
0.000101194
8.36478e-05
7.13889e-05
6.84381e-05
7.66004e-05
9.71529e-05
0.000124749
0.000139523
0.000129012
0.000107615
9.35419e-05
8.28015e-05
5.43536e-05
2.67203e-05
1.72591e-05
2.01089e-05
4.74048e-05
8.50086e-05
9.81641e-06
1.03143e-05
6.406e-05
0.000150693
0.000100787
5.70767e-05
4.306e-05
4.64095e-05
6.01034e-05
7.61808e-05
8.73114e-05
9.25071e-05
9.52781e-05
9.88915e-05
0.000104108
0.000109096
0.000110653
0.000106346
9.67205e-05
8.56344e-05
7.76841e-05
7.55287e-05
7.88741e-05
8.35153e-05
8.31869e-05
7.73769e-05
7.07715e-05
6.72362e-05
6.71244e-05
6.0902e-05
3.7452e-05
1.9751e-05
1.96152e-05
4.82957e-05
7.27248e-05
9.30304e-06
1.02469e-05
6.06284e-05
0.000145936
0.000125674
8.10245e-05
5.49827e-05
4.53458e-05
4.50171e-05
5.09483e-05
6.18035e-05
7.51158e-05
8.7198e-05
9.60669e-05
0.000102065
0.000105887
0.000107449
0.000106221
0.000102054
9.52444e-05
8.67455e-05
7.85652e-05
7.31412e-05
7.23293e-05
7.66895e-05
8.44261e-05
9.04639e-05
8.93768e-05
7.93423e-05
6.17389e-05
4.27461e-05
2.43568e-05
1.40789e-05
2.56639e-05
0.000101616
9.09232e-06
9.39849e-06
4.66513e-05
0.00012415
0.000153558
0.000136212
9.32933e-05
5.99115e-05
4.34418e-05
3.69122e-05
3.67578e-05
4.27734e-05
5.52614e-05
7.2045e-05
8.8189e-05
9.97646e-05
0.000105743
0.000106717
0.000103951
9.93752e-05
9.58289e-05
9.60069e-05
9.96864e-05
0.000102119
9.81334e-05
8.90339e-05
7.97093e-05
7.303e-05
6.9109e-05
5.82127e-05
3.01813e-05
1.76202e-05
1.29956e-05
2.23498e-05
0.000103682
9.6444e-06
8.74347e-06
3.69323e-05
9.80995e-05
0.000149143
0.000158545
0.000142521
0.000106814
7.08973e-05
4.82163e-05
3.60695e-05
3.16855e-05
3.49851e-05
4.74057e-05
6.97678e-05
9.88156e-05
0.000126221
0.00014264
0.000145095
0.000138448
0.0001262
0.000107241
8.85664e-05
8.00337e-05
8.18928e-05
8.69264e-05
8.70667e-05
8.22605e-05
7.65482e-05
6.21083e-05
2.72641e-05
1.37732e-05
1.36064e-05
2.6282e-05
0.000111743
1.00797e-05
8.4933e-06
3.295e-05
9.05859e-05
0.000151499
0.000155729
0.000131697
0.000105789
8.69704e-05
6.86782e-05
4.7663e-05
3.28876e-05
2.77099e-05
3.23644e-05
5.10057e-05
8.87438e-05
0.000133876
0.000155648
0.000138385
0.000101806
7.6851e-05
7.41123e-05
9.4331e-05
0.000137651
0.000181175
0.000191447
0.000169182
0.000133421
9.72177e-05
6.26143e-05
3.0352e-05
1.75399e-05
1.8132e-05
3.64993e-05
0.000129449
1.05675e-05
9.31503e-06
3.3539e-05
8.94197e-05
0.000148799
0.000151649
0.000117627
7.84131e-05
5.78167e-05
5.29641e-05
5.15488e-05
4.01978e-05
2.92403e-05
2.71707e-05
3.62657e-05
6.20673e-05
9.74138e-05
0.000111887
0.000101348
8.35873e-05
7.53062e-05
8.22558e-05
0.000106718
0.000150249
0.000202776
0.000238358
0.000238167
0.000203042
0.000141334
7.19645e-05
3.10036e-05
2.14249e-05
2.70059e-05
5.73347e-05
0.000129518
1.11226e-05
1.06342e-05
3.81705e-05
0.00010706
0.000158395
0.000141915
9.73596e-05
6.08253e-05
4.10138e-05
3.23375e-05
3.14452e-05
3.45081e-05
3.37535e-05
3.10821e-05
3.39826e-05
4.56462e-05
6.55086e-05
8.70216e-05
0.000107515
0.000130829
0.000151761
0.000158572
0.000153804
0.000147879
0.000146099
0.000150492
0.000159839
0.000164566
0.000142488
8.15823e-05
3.45816e-05
2.41608e-05
3.64402e-05
8.65471e-05
0.000107084
1.11557e-05
1.13138e-05
4.22997e-05
0.000126472
0.000160628
0.000119635
6.9223e-05
4.42671e-05
3.45311e-05
2.86573e-05
2.40756e-05
2.37365e-05
2.86143e-05
3.56903e-05
4.21834e-05
5.16388e-05
6.91572e-05
9.16759e-05
9.98288e-05
8.80405e-05
7.79758e-05
8.12115e-05
9.48724e-05
0.000110249
0.000120772
0.000126498
0.000130254
0.00013279
0.000126598
9.27699e-05
4.44024e-05
2.71196e-05
3.69386e-05
8.81825e-05
9.37501e-05
1.0814e-05
1.13223e-05
4.54422e-05
0.000137408
0.000151004
9.73062e-05
5.05303e-05
3.01633e-05
2.292e-05
2.07436e-05
2.03959e-05
2.29741e-05
2.9376e-05
3.51381e-05
3.76068e-05
3.75516e-05
3.87465e-05
4.73477e-05
6.48919e-05
8.35749e-05
9.6655e-05
0.000107203
0.000116314
0.000122152
0.000125492
0.000128657
0.000131817
0.000132801
0.000126623
0.000100367
5.33866e-05
2.95448e-05
3.41823e-05
7.82428e-05
8.99327e-05
1.09673e-05
1.12305e-05
4.73286e-05
0.000138812
0.000146403
9.74408e-05
5.38032e-05
3.26062e-05
2.32378e-05
1.86548e-05
1.70088e-05
1.88154e-05
2.09651e-05
1.99548e-05
2.19826e-05
3.23288e-05
5.68226e-05
9.63104e-05
0.000127786
0.000134238
0.000126795
0.000118858
0.000113985
0.000111536
0.000111033
0.000112469
0.000114708
0.00011406
0.000104576
8.07128e-05
4.94493e-05
3.26883e-05
4.02984e-05
9.39402e-05
8.40411e-05
1.14627e-05
1.11782e-05
4.77067e-05
0.000136197
0.000145639
0.000102553
5.79786e-05
3.48761e-05
2.47693e-05
1.87201e-05
1.38511e-05
1.17622e-05
1.22401e-05
1.23822e-05
1.55929e-05
2.85795e-05
7.30621e-05
0.000192356
0.000228054
0.000201443
0.000164261
0.000134809
0.000115382
0.000104575
9.99559e-05
9.81121e-05
9.53593e-05
8.92282e-05
7.8956e-05
6.50064e-05
5.06455e-05
4.50419e-05
6.39122e-05
0.000129696
6.97674e-05
1.13069e-05
1.13199e-05
4.96399e-05
0.000137552
0.000146387
0.000109157
6.47383e-05
3.87854e-05
2.80598e-05
2.28487e-05
1.69137e-05
1.17019e-05
9.29222e-06
7.89139e-06
8.09146e-06
1.36866e-05
3.15572e-05
9.1759e-05
0.000219488
0.000242832
0.000219931
0.000181276
0.000141963
0.000112929
9.58587e-05
8.70508e-05
8.13853e-05
7.51096e-05
6.77444e-05
6.09181e-05
5.70976e-05
6.29977e-05
9.41341e-05
0.00014417
6.03771e-05
1.05663e-05
1.12523e-05
5.10126e-05
0.000136279
0.000146011
0.000117151
7.47607e-05
4.35302e-05
2.92211e-05
2.43866e-05
2.05046e-05
1.43783e-05
9.68175e-06
7.11949e-06
4.77048e-06
5.36066e-06
1.15686e-05
2.86104e-05
7.75756e-05
0.000178071
0.000222355
0.000217658
0.000191407
0.000152182
0.000115821
9.15065e-05
7.77547e-05
6.97012e-05
6.37423e-05
5.92643e-05
5.86432e-05
6.83197e-05
9.95458e-05
0.000139694
5.70058e-05
1.00653e-05
1.10642e-05
4.97751e-05
0.000133583
0.000152244
0.000134708
9.76246e-05
5.83578e-05
3.54256e-05
2.67856e-05
2.4183e-05
1.9439e-05
1.30533e-05
8.70003e-06
5.44059e-06
2.54073e-06
3.28411e-06
9.201e-06
2.3915e-05
6.15105e-05
0.00014889
0.000225315
0.000239061
0.00021848
0.000172623
0.000123287
8.88988e-05
6.95967e-05
5.92014e-05
5.34972e-05
5.26958e-05
6.18794e-05
8.96693e-05
0.000124703
5.58802e-05
1.02791e-05
1.07204e-05
4.76891e-05
0.000132583
0.000155446
0.000140246
0.000108157
7.03641e-05
4.2058e-05
2.87634e-05
2.57706e-05
2.5194e-05
1.96281e-05
1.30451e-05
8.75651e-06
4.46094e-06
1.31409e-06
2.44641e-06
8.45972e-06
2.22173e-05
5.42725e-05
0.000128824
0.000217616
0.000244456
0.000225197
0.000170086
0.000110002
7.22164e-05
5.41024e-05
4.7425e-05
4.93927e-05
6.35331e-05
9.57239e-05
0.000122593
5.31492e-05
1.04325e-05
1.05223e-05
4.59299e-05
0.000130958
0.000161211
0.000149104
0.000120427
8.45669e-05
5.2377e-05
3.30186e-05
2.62738e-05
2.72606e-05
2.6892e-05
2.03052e-05
1.3787e-05
9.17837e-06
3.88465e-06
8.39289e-07
2.49661e-06
8.81523e-06
2.18425e-05
4.79856e-05
9.99232e-05
0.00016886
0.000199489
0.000183271
0.000133869
8.53089e-05
5.88078e-05
4.97458e-05
5.40531e-05
7.42505e-05
0.000109483
0.000120145
4.50036e-05
9.45498e-06
1.0619e-05
4.6948e-05
0.000135069
0.00016017
0.000138927
0.000103769
7.27008e-05
5.12307e-05
3.63152e-05
2.83772e-05
2.84252e-05
3.27028e-05
3.08703e-05
2.33781e-05
1.74876e-05
1.29093e-05
6.27631e-06
2.29002e-06
3.56566e-06
9.41974e-06
2.04932e-05
3.91681e-05
6.86826e-05
0.00010566
0.000128521
0.00012318
0.00010083
7.91224e-05
6.85419e-05
7.18098e-05
8.87402e-05
0.000109005
9.50157e-05
3.16538e-05
7.54077e-06
1.10427e-05
5.11097e-05
0.00014164
0.000160512
0.000138873
0.00010148
6.59025e-05
4.42782e-05
3.4531e-05
3.08816e-05
3.13318e-05
3.5983e-05
3.88089e-05
3.43137e-05
2.77084e-05
2.34354e-05
1.92931e-05
1.22558e-05
6.35111e-06
5.20203e-06
8.39868e-06
1.51662e-05
2.53086e-05
3.88365e-05
5.50951e-05
7.12834e-05
8.24991e-05
8.69302e-05
8.83285e-05
9.20561e-05
9.93862e-05
0.000101525
7.52875e-05
2.67301e-05
6.42223e-06
1.12444e-05
5.60999e-05
0.000147956
0.00015297
0.000125977
8.98504e-05
5.82073e-05
3.83007e-05
3.02637e-05
3.1178e-05
3.64636e-05
4.25109e-05
4.69888e-05
4.61533e-05
4.13359e-05
3.70362e-05
3.48182e-05
3.1952e-05
2.55396e-05
1.76988e-05
1.2188e-05
1.03981e-05
1.19235e-05
1.6005e-05
2.18474e-05
2.87916e-05
3.68597e-05
4.68853e-05
6.02352e-05
7.55376e-05
8.66229e-05
8.81471e-05
7.15207e-05
2.93728e-05
6.52766e-06
1.12475e-05
5.75549e-05
0.000150278
0.000156376
0.00013271
9.95824e-05
6.72823e-05
4.3169e-05
3.0526e-05
2.89141e-05
3.58944e-05
4.54698e-05
5.22919e-05
5.4826e-05
5.37564e-05
5.15741e-05
5.04253e-05
5.04429e-05
4.96018e-05
4.56067e-05
3.84092e-05
2.96355e-05
2.0958e-05
1.39541e-05
1.00992e-05
9.54942e-06
1.15374e-05
1.56283e-05
2.29911e-05
3.84469e-05
5.88853e-05
6.42034e-05
6.8024e-05
4.12002e-05
7.71523e-06
1.10423e-05
5.503e-05
0.000151034
0.000162798
0.000139793
0.000109698
8.12535e-05
5.54906e-05
3.60091e-05
2.69361e-05
2.85887e-05
3.9089e-05
5.26586e-05
6.27018e-05
6.75112e-05
6.9042e-05
6.97039e-05
7.11081e-05
7.35137e-05
7.45191e-05
6.83145e-05
5.28247e-05
3.70813e-05
2.78075e-05
2.30912e-05
1.92414e-05
1.54679e-05
1.27116e-05
1.15676e-05
1.38813e-05
2.45499e-05
4.13331e-05
5.12143e-05
4.60179e-05
8.42635e-06
1.11699e-05
5.2169e-05
0.000151286
0.000173627
0.000152763
0.000125707
0.000103127
8.10951e-05
5.50945e-05
3.38465e-05
2.43404e-05
2.53434e-05
3.45788e-05
4.84296e-05
6.10643e-05
6.89541e-05
7.3016e-05
7.58e-05
7.75015e-05
7.45079e-05
6.7358e-05
6.42971e-05
7.18639e-05
9.25602e-05
0.000114413
0.000108219
7.82189e-05
4.33718e-05
1.61032e-05
5.77284e-06
7.61501e-06
1.7878e-05
4.16785e-05
4.50087e-05
8.15032e-06
1.13724e-05
5.05857e-05
0.000146964
0.000172455
0.000148521
0.000118143
9.69836e-05
8.54657e-05
7.42229e-05
5.27263e-05
3.23679e-05
2.35284e-05
2.43016e-05
3.19149e-05
4.33521e-05
5.42431e-05
6.21649e-05
6.57396e-05
6.58951e-05
7.28897e-05
9.65559e-05
0.00013393
0.000154478
0.000132955
9.47432e-05
6.99096e-05
5.73336e-05
4.56662e-05
2.95895e-05
1.12544e-05
3.73893e-06
1.04376e-05
3.8559e-05
5.16609e-05
7.90747e-06
1.14741e-05
5.03774e-05
0.000145464
0.000171803
0.000150213
0.000119863
9.72126e-05
8.48373e-05
7.62262e-05
6.17399e-05
4.07651e-05
2.69378e-05
2.33151e-05
2.69357e-05
3.41882e-05
3.99477e-05
4.73827e-05
6.8668e-05
8.5721e-05
5.2728e-05
3.51313e-05
4.03772e-05
5.99792e-05
8.22768e-05
9.23331e-05
9.43521e-05
9.16686e-05
8.04253e-05
6.0181e-05
3.46873e-05
1.53768e-05
1.44491e-05
3.80293e-05
5.63007e-05
7.66909e-06
1.13697e-05
5.0913e-05
0.000147053
0.000168988
0.000144067
0.000110991
8.96389e-05
8.14749e-05
7.71178e-05
6.32439e-05
4.03201e-05
2.46623e-05
2.00044e-05
2.38303e-05
2.70587e-05
1.95121e-05
1.48672e-05
2.10338e-05
3.85517e-05
6.99511e-05
0.000104672
0.000132973
0.000154192
0.000168921
0.000176031
0.000172041
0.000158283
0.000138789
0.000115184
8.6689e-05
5.65506e-05
3.31165e-05
2.08326e-05
4.72566e-05
8.15782e-06
1.12349e-05
5.1002e-05
0.000148166
0.000165148
0.000135176
0.000100008
8.04648e-05
7.58286e-05
7.70859e-05
6.87281e-05
4.45229e-05
2.39105e-05
1.44277e-05
1.22254e-05
9.04969e-06
9.69701e-06
1.86766e-05
4.3479e-05
0.000115867
0.000224754
0.000233821
0.000194453
0.000157164
0.000136212
0.000135348
0.000152405
0.000171767
0.000175588
0.000161598
0.000131511
8.69429e-05
4.37593e-05
2.70629e-05
6.9663e-05
9.63436e-06
1.11443e-05
5.12867e-05
0.000148294
0.000157225
0.000121402
8.63372e-05
6.95512e-05
6.71531e-05
7.17892e-05
7.19941e-05
5.44372e-05
2.94659e-05
1.47423e-05
8.93393e-06
5.86822e-06
4.87804e-06
1.10279e-05
2.65738e-05
6.93073e-05
0.000200924
0.000312972
0.00027946
0.000204071
0.000140394
0.000109381
0.000110301
0.000134897
0.000160461
0.000162026
0.000138026
9.95727e-05
6.79744e-05
6.71114e-05
9.99135e-05
1.07562e-05
1.10318e-05
5.07096e-05
0.0001464
0.000151648
0.000112815
7.78942e-05
6.30582e-05
6.2666e-05
6.86809e-05
7.20232e-05
6.33214e-05
4.14025e-05
2.13601e-05
1.08819e-05
7.07908e-06
2.72403e-06
2.52921e-06
9.63374e-06
2.42725e-05
5.29614e-05
0.000114527
0.000214228
0.000240678
0.000193446
0.000140721
0.000112008
0.000107852
0.000117507
0.000126963
0.000125908
0.000115382
0.00010867
0.000122302
8.06245e-05
1.03107e-05
1.09403e-05
4.98177e-05
0.000142951
0.000147201
0.000106902
7.07599e-05
5.56051e-05
5.61003e-05
6.54449e-05
7.36451e-05
7.03402e-05
5.39871e-05
3.3252e-05
1.86006e-05
1.18729e-05
9.40258e-06
2.91146e-06
2.97503e-07
5.0109e-06
1.49149e-05
3.07549e-05
5.70248e-05
0.000104771
0.000170924
0.000192588
0.000171659
0.000144944
0.000125114
0.000114765
0.000112272
0.000115733
0.00012565
0.000134664
6.01751e-05
8.98573e-06
1.08389e-05
4.83937e-05
0.000138898
0.00014552
0.00010654
6.87641e-05
5.13197e-05
4.9586e-05
5.82298e-05
7.05522e-05
7.51072e-05
6.49639e-05
4.63568e-05
2.99515e-05
2.08053e-05
1.88488e-05
1.78081e-05
8.64643e-06
6.00089e-07
3.14154e-07
5.69947e-06
1.53083e-05
3.00133e-05
5.32033e-05
9.22815e-05
0.000149645
0.00018994
0.000191325
0.000174985
0.000154882
0.00014112
0.000137426
0.000130287
4.85961e-05
7.81056e-06
1.07975e-05
4.69428e-05
0.000134317
0.000146031
0.000109751
6.94199e-05
4.86366e-05
4.42829e-05
5.0995e-05
6.39912e-05
7.47722e-05
7.38163e-05
6.03406e-05
4.38005e-05
3.26342e-05
2.94887e-05
3.30766e-05
3.36113e-05
2.29628e-05
8.63708e-06
6.99745e-07
5.8167e-07
5.72564e-06
1.47987e-05
2.82411e-05
4.82034e-05
7.91341e-05
0.000125459
0.000169205
0.000179955
0.000170463
0.000151707
0.000117327
3.99792e-05
7.21089e-06
1.08692e-05
4.60802e-05
0.000131276
0.00014751
0.000116002
7.41408e-05
4.82654e-05
3.95366e-05
4.27715e-05
5.44163e-05
6.84621e-05
7.5608e-05
7.06832e-05
5.79802e-05
4.63366e-05
4.13604e-05
4.4528e-05
5.2264e-05
5.40567e-05
4.48929e-05
2.89348e-05
1.32123e-05
4.06742e-06
2.2777e-06
5.7526e-06
1.30539e-05
2.38212e-05
3.8658e-05
6.01618e-05
9.3861e-05
0.000126569
0.000127393
9.96045e-05
3.69668e-05
7.19509e-06
1.09905e-05
4.55206e-05
0.000129091
0.000150079
0.000124217
8.33864e-05
5.24645e-05
3.853e-05
3.72746e-05
4.53056e-05
5.89849e-05
7.11486e-05
7.43271e-05
6.80389e-05
5.87262e-05
5.30487e-05
5.428e-05
6.22062e-05
7.16413e-05
7.46276e-05
6.84468e-05
5.58156e-05
4.00772e-05
2.47067e-05
1.33491e-05
7.66203e-06
7.13337e-06
1.06594e-05
1.72235e-05
2.69957e-05
4.49445e-05
7.63198e-05
9.09658e-05
3.94566e-05
7.37315e-06
1.11838e-05
4.56378e-05
0.000128619
0.00015263
0.000131769
9.39972e-05
5.9187e-05
3.97471e-05
3.38975e-05
3.80017e-05
4.94912e-05
6.37303e-05
7.32259e-05
7.36254e-05
6.82591e-05
6.3769e-05
6.46491e-05
7.21846e-05
8.40414e-05
9.41746e-05
9.69611e-05
9.18246e-05
8.15855e-05
6.87803e-05
5.48884e-05
4.12949e-05
2.95145e-05
2.05895e-05
1.47728e-05
1.16783e-05
1.38048e-05
2.52162e-05
5.03202e-05
5.48695e-05
7.58851e-06
1.13306e-05
4.61237e-05
0.0001295
0.000156196
0.000139971
0.000106941
7.04553e-05
4.50988e-05
3.3942e-05
3.37426e-05
4.19241e-05
5.55134e-05
6.86427e-05
7.51578e-05
7.47818e-05
7.29008e-05
7.50243e-05
8.37875e-05
9.80766e-05
0.000112618
0.000120907
0.000120572
0.000113801
0.000103638
9.20906e-05
8.04529e-05
6.95715e-05
5.90178e-05
4.64717e-05
2.95901e-05
1.98506e-05
1.94439e-05
1.10299e-05
2.32673e-05
8.80381e-06
1.14493e-05
4.67944e-05
0.00013105
0.000159977
0.000146836
0.000117551
8.19813e-05
5.26483e-05
3.63129e-05
3.17069e-05
3.63443e-05
4.80835e-05
6.26924e-05
7.38642e-05
7.88753e-05
8.13422e-05
8.69823e-05
9.95044e-05
0.000118498
0.000137997
0.000149802
0.000150951
0.000144289
0.000133566
0.000121438
0.000109904
9.91021e-05
8.28373e-05
5.92573e-05
3.95164e-05
3.13675e-05
1.9583e-05
7.11332e-06
2.12489e-05
1.05792e-05
1.15032e-05
4.75045e-05
0.000133104
0.000163719
0.000152089
0.000125093
9.21251e-05
6.20897e-05
4.16409e-05
3.25042e-05
3.326e-05
4.23373e-05
5.69583e-05
7.13859e-05
8.10985e-05
8.80667e-05
9.82174e-05
0.000116587
0.000143791
0.000172347
0.000190072
0.000192036
0.000182484
0.000167158
0.000149934
0.000131703
0.000105876
6.62277e-05
4.1687e-05
3.36321e-05
2.93255e-05
1.87095e-05
1.76176e-05
6.66104e-05
1.15215e-05
1.15348e-05
4.80708e-05
0.000135264
0.000166985
0.000154658
0.000126879
9.59162e-05
6.89071e-05
4.7871e-05
3.5207e-05
3.20141e-05
3.7731e-05
5.07721e-05
6.69247e-05
8.10769e-05
9.31721e-05
0.000108642
0.00013376
0.000170706
0.000211176
0.000237245
0.000239059
0.000222307
0.000196006
0.000164465
0.000125726
7.59693e-05
4.02788e-05
3.03662e-05
3.10457e-05
3.00872e-05
2.64197e-05
4.08353e-05
0.000108633
1.14446e-05
1.15831e-05
4.87666e-05
0.000137621
0.000169169
0.000153691
0.000122736
9.34415e-05
7.17062e-05
5.41227e-05
4.0201e-05
3.35313e-05
3.57075e-05
4.6155e-05
6.19406e-05
7.82603e-05
9.3615e-05
0.000112227
0.000140308
0.000180373
0.00022378
0.000250414
0.000248233
0.00022384
0.000188072
0.000145811
9.80423e-05
5.31033e-05
2.95406e-05
2.58522e-05
3.05818e-05
3.43291e-05
4.01564e-05
7.34045e-05
8.27628e-05
1.0831e-05
1.16456e-05
4.91802e-05
0.000139262
0.000169018
0.000147628
0.00011188
8.43733e-05
6.83653e-05
5.67343e-05
4.50409e-05
3.65966e-05
3.56756e-05
4.33651e-05
5.80538e-05
7.57573e-05
9.39599e-05
0.000115173
0.00014418
0.000181609
0.000217309
0.000233919
0.000224742
0.000197751
0.000162193
0.000122075
7.96643e-05
4.3456e-05
2.50873e-05
2.29817e-05
2.95318e-05
3.86138e-05
5.48356e-05
9.96685e-05
6.67558e-05
1.02871e-05
1.17656e-05
5.00631e-05
0.000141882
0.000166239
0.000135715
9.66895e-05
7.35242e-05
6.3571e-05
5.76956e-05
4.98059e-05
4.15117e-05
3.85263e-05
4.38105e-05
5.68537e-05
7.43972e-05
9.3573e-05
0.000115642
0.000144046
0.000178048
0.000207332
0.000217628
0.000205551
0.000178868
0.000145205
0.000107879
6.95758e-05
3.82013e-05
2.24773e-05
2.08137e-05
2.79845e-05
4.1281e-05
6.63156e-05
0.000111761
5.93567e-05
1.006e-05
1.18863e-05
5.11064e-05
0.000145219
0.000159004
0.000116755
7.87941e-05
6.21596e-05
5.799e-05
5.69316e-05
5.28503e-05
4.62375e-05
4.27926e-05
4.68648e-05
5.92536e-05
7.75674e-05
9.88788e-05
0.000123371
0.000152867
0.000184841
0.000208709
0.000213168
0.000197634
0.000169585
0.000135307
9.77535e-05
6.07598e-05
3.28292e-05
1.99934e-05
1.95409e-05
2.77012e-05
4.45376e-05
7.65923e-05
0.00011742
5.44906e-05
9.99272e-06
1.20326e-05
5.30403e-05
0.000149981
0.00014616
9.41308e-05
6.31935e-05
5.43043e-05
5.57112e-05
5.86352e-05
5.72542e-05
5.21385e-05
4.8877e-05
5.22803e-05
6.3873e-05
8.19028e-05
0.000103779
0.000129327
0.000159322
0.000190126
0.000211192
0.00021266
0.000194868
0.000164908
0.000128535
8.92033e-05
5.26603e-05
2.77504e-05
1.75573e-05
1.88596e-05
2.91519e-05
5.02381e-05
8.78924e-05
0.000120004
4.99594e-05
9.87427e-06
1.21566e-05
5.55848e-05
0.000153812
0.000124689
7.15193e-05
5.06438e-05
4.88528e-05
5.495e-05
6.08614e-05
6.15704e-05
5.83174e-05
5.63704e-05
6.03952e-05
7.22922e-05
9.08059e-05
0.000113515
0.000139702
0.00016897
0.000196851
0.000213676
0.000211573
0.000191603
0.00016018
0.000122498
8.2498e-05
4.70927e-05
2.43984e-05
1.55691e-05
1.8019e-05
3.14383e-05
5.86288e-05
9.89239e-05
0.000119084
4.55424e-05
9.63327e-06
1.22865e-05
5.90368e-05
0.000154065
0.000100213
5.50309e-05
4.34473e-05
4.7924e-05
5.82966e-05
6.61027e-05
6.74655e-05
6.49967e-05
6.39205e-05
6.83995e-05
8.0184e-05
9.83378e-05
0.000120722
0.000146141
0.000173231
0.000197271
0.000210058
0.0002057
0.000185607
0.000155246
0.000119013
8.04784e-05
4.61688e-05
2.37462e-05
1.43802e-05
1.60504e-05
3.1167e-05
6.62959e-05
0.000106259
0.000114555
4.15768e-05
9.33794e-06
1.24039e-05
6.32277e-05
0.000146878
7.73384e-05
4.31406e-05
3.85965e-05
4.79216e-05
6.13989e-05
7.07328e-05
7.36536e-05
7.30853e-05
7.35554e-05
7.87528e-05
9.03554e-05
0.000107692
0.000128843
0.00015218
0.000175628
0.000194727
0.000203233
0.000197349
0.000178639
0.000151374
0.00011888
8.35893e-05
5.02848e-05
2.63303e-05
1.46605e-05
1.36574e-05
2.61033e-05
6.38228e-05
0.00010653
0.000106989
3.83322e-05
9.09853e-06
1.24478e-05
6.75979e-05
0.000133391
6.20842e-05
3.63315e-05
3.65962e-05
5.01723e-05
6.59066e-05
7.5234e-05
7.83298e-05
7.89224e-05
8.08345e-05
8.69003e-05
9.83535e-05
0.000114575
0.000133864
0.000154435
0.000174018
0.000188844
0.000194418
0.000188389
0.000172102
0.000148735
0.000120827
8.98963e-05
5.85084e-05
3.25475e-05
1.72211e-05
1.2508e-05
1.94651e-05
4.83528e-05
9.82218e-05
9.95414e-05
3.60991e-05
8.97126e-06
1.2334e-05
7.00986e-05
0.000119925
5.46973e-05
3.25824e-05
3.39951e-05
4.89486e-05
6.62872e-05
7.72102e-05
8.2266e-05
8.48311e-05
8.80962e-05
9.45194e-05
0.000105272
0.000119908
0.000136939
0.000154592
0.000170709
0.000182256
0.000186046
0.000180556
0.000166738
0.000146881
0.000123003
9.63194e-05
6.80548e-05
4.16389e-05
2.25951e-05
1.36213e-05
1.51286e-05
3.29183e-05
8.1877e-05
9.56999e-05
3.5076e-05
8.93643e-06