/*--------------------------------*- C++ -*----------------------------------*\
| =========                 |                                                 |
| \\      /  F ield         | OpenFOAM: The Open Source CFD Toolbox           |
|  \\    /   O peration     | Version:  v1906                                 |
|   \\  /    A nd           | Web:      www.OpenFOAM.com                      |
|    \\/     M anipulation  |                                                 |
\*---------------------------------------------------------------------------*/
FoamFile
{
    version     2.0;
    format      ascii;
    class       volScalarField;
    location    "60";
    object      omega;
}
// * * * * * * * * * * * * * * * * * * * * * * * * * * * * * * * * * * * * * //

dimensions      [0 0 -1 0 0 0 0];


internalField   nonuniform List<scalar> 
78750
(
1413.93
185.609
113.692
23.2327
18.5404
28.9457
22.2967
25.0246
24.255
24.1373
24.3075
24.1637
24.2234
24.2454
24.311
24.4007
24.512
24.6352
24.759
24.874
24.9728
25.0498
25.1018
25.127
25.1241
25.0909
25.0215
24.904
24.7161
24.4198
23.9583
23.2598
22.2362
20.5693
474.614
529.257
19.6664
14.5723
16.5393
18.9386
18.3499
18.1909
18.166
18.1494
18.1091
18.0566
18.0042
17.9494
17.8957
17.8504
17.8211
17.8126
17.8238
17.8483
17.8778
17.9046
17.9239
17.9332
17.9316
17.919
17.8959
17.8632
17.8218
17.7716
17.7099
17.6258
17.4766
17.0988
15.8403
701.634
418.791
9.28932
10.9641
13.4057
15.5382
16.3689
16.7055
16.8793
16.974
17.0317
17.0671
17.0881
17.0994
17.1061
17.117
17.1398
17.1698
17.1864
17.1673
17.1019
17.0015
16.8947
16.8005
16.725
16.6646
16.6112
16.5568
16.4947
16.4189
16.3209
16.1822
15.9634
15.6038
14.8368
703.376
422.768
12.1491
12.6932
12.6712
14.5202
15.5602
16.1224
16.5433
16.8596
17.1058
17.2949
17.3953
17.409
17.3733
17.3328
17.3046
17.2787
17.2393
17.1836
17.1206
17.0603
17.0095
16.9699
16.9389
16.9114
16.8813
16.843
16.792
16.7233
16.6229
16.4492
16.1007
15.4323
14.5923
705.846
423.168
13.7235
14.7102
14.5386
14.7055
15.3536
15.86
16.3203
16.7777
17.198
17.5774
17.8899
18.0819
18.1344
18.055
17.8724
17.6447
17.4455
17.3025
17.1986
17.1219
17.0679
17.0297
16.9995
16.9699
16.9336
16.8841
16.816
16.7263
16.6042
16.4067
16.0246
15.3003
14.4139
706.266
427.868
15.5262
16.4655
16.6121
16.4393
16.391
16.3879
16.4076
16.4454
16.496
16.5544
16.613
16.6593
16.6813
16.6752
16.6577
16.6801
16.778
16.9091
17.0363
17.1599
17.2792
17.3828
17.4624
17.5129
17.5323
17.5205
17.4766
17.393
17.2543
17.0225
16.5938
15.77
14.6942
706.838
423.603
14.4623
15.1751
15.5348
15.8347
16.0182
16.0795
16.0977
16.0984
16.0839
16.0536
16.0098
15.9635
15.9313
15.9355
16.0029
16.1422
16.3408
16.5959
16.8968
17.212
17.5081
17.7602
17.9512
18.0738
18.1302
18.1286
18.0785
17.981
17.8276
17.5908
17.1938
16.4699
15.4506
707.431
430.092
15.5456
16.1775
16.3203
16.2328
16.0739
15.9299
15.8253
15.7496
15.6915
15.6759
15.6877
15.7166
15.7489
15.807
15.8987
16.0262
16.2063
16.4484
16.7543
17.1116
17.4933
17.8627
18.1812
18.418
18.557
18.5986
18.5545
18.4332
18.2276
17.9044
17.3747
16.52
15.6
708.556
425.173
14.1789
14.6405
14.6852
14.6501
14.5641
14.4188
14.2242
14.0026
13.7711
13.5518
13.3834
13.2944
13.107
13.0428
13.7955
14.7999
15.5423
16.0271
16.3905
16.7388
17.1157
17.5152
17.9162
18.2875
18.599
18.8253
18.9569
18.9883
18.9017
18.6554
18.1451
17.2077
16.122
709.396
421.338
12.3136
14.1176
15.0587
15.5372
15.7254
15.7221
15.6291
15.5008
15.3145
14.9976
14.4401
14.3472
11.7374
7.39916
10.1722
14.0115
15.8616
16.5634
16.9293
17.2158
17.4818
17.7386
17.9881
18.2214
18.4231
18.5776
18.6775
18.7229
18.7059
18.5929
18.28
17.5703
16.7093
711.108
426.688
15.5233
16.9386
17.2025
17.0537
16.612
16.0423
15.6862
15.5504
15.2284
14.2345
12.9282
14.3326
16.5301
17.8544
18.1557
18.3629
18.6002
18.8547
19.1097
19.3539
19.5766
19.7746
19.9402
20.0571
20.1096
20.0835
19.9603
19.7189
19.3411
18.823
18.1784
17.4625
16.9968
712.578
437.976
17.0604
16.8303
16.4159
15.8337
15.1185
14.5089
14.2378
14.4244
14.8298
15.1335
15.2527
15.3365
15.5418
15.761
15.9539
16.1211
16.2591
16.3731
16.4882
16.6464
16.8941
17.2506
17.7016
18.2004
18.6888
19.1014
19.3786
19.4758
19.3547
18.9742
18.3151
17.5135
17.0451
712.845
431.816
15.3378
16.2661
16.7313
16.9832
17.0011
16.6068
15.5888
14.2491
13.4895
13.4637
13.7472
14.0558
14.3052
14.4954
14.6407
14.7475
14.8186
14.8533
14.8561
14.8438
14.851
14.9289
15.1523
15.5967
16.1712
16.7999
17.4561
18.0487
18.4294
18.4658
18.0895
17.4643
17.1935
713.919
430.739
16.3489
17.3454
17.6725
17.7798
17.7393
17.4877
16.7564
15.3041
14.0449
13.805
14.0378
14.2421
14.3514
14.3899
14.363
14.2612
14.0773
13.8096
13.4622
13.0478
12.5962
12.1454
11.5889
10.325
9.95445
11.73
13.9366
15.6762
16.8293
17.4422
17.5407
17.2992
17.3359
715.139
436.351
16.0971
16.3572
16.4925
16.6026
16.6768
16.6633
16.4436
15.7024
14.3118
13.2555
13.1512
13.4822
13.774
13.9366
13.997
13.9656
13.8193
13.5108
12.9936
12.2432
11.2719
9.9665
7.33585
3.96513
8.14486
12.3677
15.1316
16.5847
17.2917
17.5611
17.518
17.4323
17.7574
716.91
432.806
16.4108
17.2637
17.6241
17.823
17.9364
17.9814
17.9526
17.7859
17.2
15.9011
14.4427
13.5817
13.3886
13.4655
13.5518
13.568
13.4739
13.2212
12.7479
11.9897
10.9266
9.44112
7.13915
6.50596
9.98229
13.6713
16.387
17.8399
18.3904
18.4274
18.2121
18.0619
18.2798
717.472
431.379
15.7355
16.7314
17.1728
17.422
17.5802
17.6737
17.7146
17.7187
17.6656
17.3272
16.3382
14.8216
13.5761
13.157
13.231
13.3572
13.3866
13.2711
12.9704
12.4349
11.6096
10.4945
9.34518
9.20512
10.6314
12.8396
15.1543
16.9623
18.0384
18.4653
18.4441
18.2678
18.2511
716.275
434.204
16.3094
16.9534
17.2173
17.3524
17.4099
17.3999
17.3428
17.2756
17.2409
17.234
17.1028
16.4904
15.1441
13.7233
13.0678
13.0084
13.0765
13.0875
12.9861
12.7403
12.3319
11.7671
11.1406
10.7757
11.0217
11.8808
13.2048
14.7092
16.045
17.0123
17.5412
17.7234
17.9548
716.788
437.163
17.1845
17.7662
17.973
18.0477
18.0429
17.973
17.8538
17.6794
17.4569
17.2602
17.1217
16.9359
16.4252
15.2167
13.862
13.2432
13.1587
13.1799
13.1572
13.0556
12.8626
12.5822
12.2334
11.8874
11.7123
11.9255
12.6644
13.8585
15.1588
16.2032
16.9261
17.4725
18.1874
719.301
441.12
17.2867
17.3428
17.3236
17.2511
17.1035
16.9245
16.843
16.8645
16.8727
16.799
16.6458
16.4157
16.0413
15.323
14.2092
13.4655
13.2703
13.2504
13.2418
13.1984
13.0975
12.9356
12.7305
12.507
12.3066
12.2374
12.5424
13.4848
14.9199
16.261
17.1628
17.8513
18.7563
721.439
443.862
17.8244
17.857
17.8111
17.6735
17.4002
17.0688
16.8585
16.7874
16.756
16.6902
16.5549
16.3224
15.9416
15.3151
14.3973
13.6204
13.3335
13.2657
13.2387
13.1965
13.1152
12.9819
12.7995
12.5857
12.3748
12.2366
12.3619
13.0528
14.3477
15.8793
17.0813
17.9381
18.954
722.224
443.609
17.5199
17.4631
17.3387
17.0798
16.639
16.1679
15.9313
15.9206
15.9569
15.9493
15.8627
15.6608
15.3034
14.7847
14.2329
13.8759
13.7027
13.5805
13.4552
13.3032
13.1119
12.8775
12.5968
12.2854
12.0044
11.9416
12.4396
13.4948
14.6838
15.904
17.0613
17.9931
19.092
722.038
440.998
17.4599
17.6713
17.6752
17.5215
17.1258
16.4513
15.7677
15.4071
15.3086
15.2632
15.1556
14.9309
14.5662
14.126
13.8056
13.6786
13.6074
13.5198
13.3847
13.1806
12.8907
12.5125
12.029
11.4482
11.0074
11.3007
12.6893
14.5571
16.1045
17.0533
17.6802
18.2331
18.8729
718.071
440.511
17.5696
17.8053
17.8267
17.7066
17.366
16.6707
15.6612
14.7985
14.4116
14.3204
14.2926
14.2399
14.1843
14.1534
14.1331
14.1112
14.0783
14.0191
13.9127
13.7344
13.4548
13.0293
12.4091
11.5957
10.7449
10.3611
11.1492
13.0203
15.0987
16.6927
17.5675
17.879
17.9452
712.794
439.082
17.3551
17.7649
17.9128
17.9396
17.8108
17.3865
16.4574
15.1109
13.9453
13.3615
13.186
13.1415
13.174
13.3399
13.5446
13.708
13.8337
13.927
13.9793
13.9743
13.8877
13.6902
13.3468
12.8222
12.1035
11.2718
10.6148
10.6035
11.4858
12.932
14.395
15.4065
15.7471
709.585
438.526
17.4106
17.8669
18.0498
18.1268
18.1014
17.9271
17.4784
16.521
15.0494
13.601
12.7816
12.6795
12.8878
13.1203
13.3347
13.5424
13.7409
13.9164
14.0566
14.1513
14.1888
14.154
14.0285
13.7883
13.4044
12.8493
12.1228
11.3157
10.6238
10.3563
10.9971
12.6709
13.9974
709.982
437.986
17.362
17.9146
18.1531
18.2835
18.3366
18.2994
18.1354
17.7478
16.9122
15.5368
14.0289
13.0405
12.7803
12.9711
13.2865
13.5599
13.7953
14.0139
14.2015
14.3446
14.4314
14.4503
14.3901
14.2412
13.9859
13.5926
13.015
12.2168
11.1076
9.78329
10.1557
12.2387
14.1762
712.422
438.255
17.4563
18.0109
18.2553
18.3906
18.4475
18.4141
18.2774
18.0344
17.6165
16.7738
15.2872
13.5865
12.8134
13.0271
13.3728
13.6897
14.0132
14.3124
14.5661
14.76
14.883
14.9247
14.8728
14.712
14.4318
14.0129
13.3815
12.4046
10.885
9.34154
10.6673
13.1135
14.9685
713.383
439.923
17.7276
18.1886
18.3879
18.4954
18.5398
18.5116
18.394
18.1865
17.9
17.4788
16.6868
15.2522
13.535
12.7641
13.0946
13.6189
14.0593
14.4493
14.794
15.0729
15.2725
15.3804
15.3836
15.2668
15.0138
14.5909
13.9127
12.8706
11.3377
9.75429
10.6058
13.1067
14.818
711.89
442.109
17.9794
18.2594
18.3797
18.4368
18.4334
18.3506
18.1798
17.9228
17.5823
17.1501
16.5529
15.5806
14.0873
12.845
13.0096
13.5721
14.0776
14.559
14.9996
15.3732
15.6637
15.8597
15.9506
15.9246
15.7663
15.439
14.8764
14.0129
12.7951
11.3633
10.8535
12.3506
13.9496
709.77
444.901
18.2946
18.3949
18.4339
18.4355
18.3852
18.2757
18.1121
17.885
17.5757
17.1585
16.5892
15.7806
14.6331
13.3253
12.8545
13.3924
13.9828
14.5097
15.0238
15.4867
15.8765
16.1791
16.3835
16.4797
16.4574
16.2887
15.9311
15.3473
14.5053
13.4197
12.3844
12.3434
13.3764
708.201
446.04
18.2266
18.2057
18.1854
18.1272
17.9957
17.805
17.5812
17.3143
16.9784
16.5378
15.9487
15.1729
14.1964
13.1406
12.5844
13.0402
13.7533
14.3885
14.9849
15.5374
16.0201
16.4177
16.7205
16.9267
17.0315
17.0088
16.8239
16.4493
15.8703
15.0799
14.1091
13.3405
13.6035
707.618
447.034
18.3209
18.2493
18.198
18.1005
17.9187
17.6994
17.4781
17.2236
16.8953
16.4526
15.8527
15.0704
14.1269
13.1318
12.4112
12.4662
13.1557
13.9474
14.6615
15.2995
15.8705
16.3617
16.7785
17.1206
17.3674
17.4919
17.4652
17.2634
16.8753
16.2935
15.4702
14.4875
14.285
708.202
445.738
18.0174
17.9914
17.9546
17.8433
17.6059
17.3051
17.0254
16.7418
16.3989
15.9507
15.3656
14.6411
13.8003
12.9201
12.1745
11.8866
12.2828
13.1044
14.0051
14.8164
15.5138
16.122
16.6586
17.1208
17.4906
17.7418
17.8468
17.7827
17.5363
17.0899
16.3578
15.3725
15.1979
710.31
445.617
18.1318
18.1604
18.1496
18.0543
17.8046
17.433
17.0883
16.7902
16.4655
16.0451
15.479
14.7576
13.9214
13.0516
12.2512
11.6674
11.5529
12.0523
12.981
13.9961
14.8934
15.6543
16.3149
16.8927
17.3783
17.7472
17.9706
18.023
17.8825
17.5103
16.8198
16.1254
16.3811
713.754
444.053
17.9065
18.0393
18.0846
18.0369
17.818
17.3871
16.91
16.5194
16.1707
15.782
15.2936
14.6748
13.9354
13.1347
12.3477
11.6448
11.161
11.1548
11.8412
12.997
14.1606
15.1236
15.9129
16.5879
17.1682
17.6396
17.9684
18.1128
18.0356
17.7014
17.1482
16.9357
17.6011
717.193
444.789
18.1409
18.2643
18.3104
18.2794
18.1004
17.6964
17.166
16.703
16.3196
15.928
15.4561
14.867
14.1673
13.4092
12.6497
11.916
11.2366
10.7358
10.7807
11.7312
13.1494
14.4501
15.4623
16.2689
16.9551
17.5324
17.9575
18.1693
18.1289
17.8524
17.5139
17.5848
18.3292
718.855
444.795
18.0561
18.1558
18.1928
18.1626
18.0039
17.6408
17.102
16.5802
16.1683
15.8003
15.3934
14.8902
14.2778
13.5949
12.8973
12.2031
11.4966
10.7821
10.2377
10.482
11.8962
13.5997
14.9722
15.9866
16.7899
17.4594
17.9605
18.2265
18.2293
18.0265
17.8231
17.918
18.5002
718.546
446.924
18.3542
18.3016
18.2561
18.167
17.9879
17.6739
17.2109
16.7041
16.263
15.8709
15.467
15.0012
14.4595
13.8637
13.2488
12.6216
11.9538
11.2005
10.3737
9.80331
10.4175
12.2929
14.1889
15.5648
16.5444
17.2997
17.8769
18.2226
18.3046
18.1839
18.0317
18.0538
18.4443
717.761
448.022
18.2941
18.1075
17.9766
17.8076
17.5961
17.3228
16.9598
16.557
16.184
15.836
15.4697
15.0499
14.572
14.0576
13.5316
12.9915
12.4028
11.7071
10.8464
9.90491
9.50637
10.7119
12.9726
14.9056
16.1859
17.0419
17.6677
18.097
18.2892
18.271
18.1688
18.1496
18.4368
717.56
449.322
18.3546
18.0376
17.8092
17.5561
17.3566
17.1596
16.8851
16.5544
16.2204
15.8959
15.5576
15.1839
14.7702
14.3282
13.8716
13.3962
12.8732
12.2476
11.446
10.4403
9.47691
9.51723
11.3611
13.8189
15.6817
16.7954
17.4503
17.8834
18.1403
18.2085
18.1566
18.132
18.3845
717.411
448.54
18.0732
17.7143
17.4091
17.0719
16.9088
16.8428
16.7189
16.5222
16.2794
16.0089
15.7101
15.3806
15.0236
14.6475
14.2574
13.8455
13.3873
12.8402
12.1442
11.2354
10.1538
9.34302
9.89375
12.0736
14.5376
16.3154
17.2823
17.7262
17.9343
17.9959
17.9362
17.8682
18.0623
716.406
447.4
18.0243
17.7029
17.3517
16.8955
16.6505
16.6388
16.6161
16.5212
16.3681
16.1711
15.9353
15.6661
15.3707
15.0571
14.7267
14.3744
13.9833
13.5251
12.9604
12.2383
11.318
10.2834
9.62126
10.2536
12.272
14.6066
16.3922
17.3654
17.7047
17.7277
17.6095
17.4635
17.5716
714.909
445.857
18.0513
17.8217
17.4652
16.8819
16.3741
16.3168
16.411
16.4464
16.4031
16.2956
16.1386
15.9437
15.7201
15.4751
15.2117
14.9273
14.6131
14.2535
13.8263
13.3022
12.6457
11.8303
10.9161
10.2377
10.4462
11.8418
13.8541
15.6749
16.8068
17.2182
17.2198
17.1106
17.2139
714.155
445.215
18.4176
18.2939
17.9673
17.3346
16.4466
16.0308
16.106
16.2673
16.3576
16.3617
16.2974
16.1821
16.0306
15.852
15.6508
15.4286
15.1827
14.9065
14.5897
14.2185
13.7749
13.2343
12.5748
11.8147
11.1056
10.8236
11.4052
12.8535
14.5879
15.8831
16.4688
16.6869
17.0048
714.597
445.406
18.8984
18.8602
18.5606
17.9421
16.8703
15.9949
15.804
15.9776
16.1779
16.2962
16.3355
16.3146
16.2467
16.1406
16.0031
15.8389
15.6497
15.4343
15.1895
14.9109
14.5929
14.2245
13.7902
13.2724
12.665
12.0131
11.4998
11.5079
12.4091
13.978
15.3207
16.0868
16.8104
715.571
447.001
19.4536
19.3953
19.0669
18.3951
17.2686
16.2283
15.7825
15.8542
16.0833
16.2647
16.3688
16.4112
16.4035
16.3542
16.2697
16.1546
16.011
15.8393
15.6392
15.4108
15.1547
14.8691
14.5485
14.1836
13.7633
13.2747
12.7189
12.1869
12.0124
12.7593
14.2789
15.5129
16.6285
716.214
450.416
19.9359
19.6509
19.1742
18.3019
17.1128
16.2231
15.8272
15.8712
16.1023
16.3127
16.4538
16.53
16.5564
16.5419
16.4897
16.4027
16.2841
16.1372
15.9662
15.7705
15.5456
15.2923
15.0143
14.7113
14.3819
14.0226
13.6216
13.1676
12.7386
12.7615
13.806
15.1498
16.4677
716.176
455.027
20.2114
19.5323
18.7531
17.5077
16.4459
16.0312
15.9718
16.1057
16.3209
16.5072
16.6293
16.6955
16.7218
16.7148
16.6742
16.6007
16.4962
16.3632
16.2054
16.0268
15.8215
15.5833
15.3177
15.0312
14.7297
14.4205
14.112
13.8042
13.4962
13.3468
13.8825
14.9917
16.3148
715.727
458.868
20.1765
19.0479
17.8001
16.0827
15.5079
15.7975
16.113
16.3738
16.5867
16.7362
16.828
16.8773
16.8943
16.8819
16.84
16.7689
16.6696
16.5441
16.3956
16.223
16.0208
15.7864
15.5232
15.2376
14.9381
14.6384
14.3632
14.1422
13.9873
13.932
14.2271
15.0102
16.2198
715.33
458.697
19.7601
18.4203
16.79
14.8937
14.9104
15.7164
16.1765
16.4794
16.6916
16.8333
16.923
16.9739
16.9932
16.9837
16.9463
16.8817
16.7908
16.6744
16.5323
16.3628
16.1635
15.9329
15.6719
15.3847
15.0791
14.7711
14.4945
14.3033
14.2409
14.3108
14.5797
15.1549
16.2196
715.243
455.63
19.3718
18.2629
16.724
14.5818
14.0395
15.0695
15.7739
16.2221
16.5156
16.7098
16.839
16.9216
16.967
16.9796
16.9613
16.9134
16.8373
16.7336
16.6022
16.442
16.2515
16.0294
15.7747
15.4891
15.1783
14.8576
14.5646
14.3692
14.3439
14.499
14.8183
15.3309
16.3053
715.454
451.828
19.3287
18.7932
17.8641
15.9294
13.6687
13.6606
14.5745
15.3508
15.8851
16.2422
16.4838
16.6488
16.7589
16.8233
16.8474
16.8353
16.789
16.7101
16.5993
16.4566
16.2811
16.0721
15.8277
15.5474
15.2346
14.9025
14.5901
14.3787
14.3663
14.5781
14.9613
15.4837
16.4323
715.773
448.841
19.4696
19.4349
19.1141
18.164
15.8771
13.3786
12.8992
13.6515
14.563
15.2589
15.74
16.0738
16.3087
16.4712
16.575
16.6275
16.6335
16.5966
16.5192
16.4027
16.2485
16.0567
15.8251
15.5516
15.237
14.8926
14.5603
14.3363
14.3418
14.6103
15.0576
15.6036
16.5394
715.966
446.064
19.3262
19.6807
19.7978
19.6909
18.9794
16.7911
14.0722
12.5493
12.6311
13.5059
14.3894
15.0499
15.5178
15.8513
16.0864
16.2429
16.333
16.3644
16.3428
16.272
16.1546
15.9919
15.7819
15.522
15.2108
14.8577
14.5057
14.2653
14.2871
14.6092
15.1077
15.6651
16.5739
715.902
443.927
19.0437
19.5853
19.9021
20.1638
20.3381
20.118
18.6018
16.0224
13.5406
12.2507
12.4423
13.3367
14.1982
14.841
15.3039
15.6335
15.8579
15.9954
16.0586
16.0564
15.9948
15.8766
15.701
15.4646
15.1636
14.8024
14.4224
14.149
14.1729
14.5438
15.0806
15.6385
16.5135
715.64
442.989
18.9643
19.5135
19.7755
20.0015
20.302
20.7026
20.9893
20.4563
18.6409
16.0196
13.4769
12.1313
12.3646
13.2728
14.1005
14.7161
15.1585
15.4624
15.6554
15.7573
15.7799
15.7297
15.6089
15.4156
15.144
14.7922
14.39
14.0573
14.0174
14.3788
14.9371
15.502
16.3639
715.315
444.852
19.4455
19.8744
20.0096
20.068
20.1383
20.3181
20.7211
21.2329
21.4031
20.6832
18.7402
15.9555
13.2599
12.0772
12.5552
13.4492
14.1885
14.7348
15.1191
15.3697
15.5099
15.555
15.5128
15.3851
15.1679
14.8542
14.4577
14.0708
13.9164
14.1824
14.7169
15.29
16.1692
715.072
450.698
20.2042
20.2269
20.2136
20.2852
20.4938
20.6765
20.7522
20.9229
21.2469
21.4825
21.3548
20.3773
18.0787
14.9662
12.6585
12.4294
13.1646
13.9045
14.4839
14.907
15.1897
15.3514
15.4069
15.3639
15.222
14.9746
14.6221
14.2207
13.9536
14.0614
14.5129
15.0762
15.9852
714.975
458.844
20.6486
20.0148
19.7172
19.8695
20.5464
21.2192
21.5473
21.5763
21.5128
21.4774
21.4253
21.2512
20.6489
18.8065
15.7192
13.2868
12.8509
13.38
13.9887
14.4956
14.8821
15.1474
15.2988
15.344
15.2856
15.1193
14.8413
14.4781
14.1542
14.104
14.4246
14.9484
15.8787
714.99
461.556
20.0511
19.0238
18.6139
19.1286
20.277
21.2093
21.7335
21.9607
21.9739
21.8323
21.5999
21.2995
20.864
19.9947
17.9411
15.177
13.6199
13.5428
13.947
14.3746
14.7457
15.0396
15.2426
15.3494
15.3582
15.2652
15.0659
14.771
14.4568
14.3107
14.4989
14.9556
15.8732
714.969
456.764
18.932
18.0853
17.7912
18.3226
19.3547
20.2463
20.875
21.2858
21.5097
21.5539
21.417
21.0997
20.5703
19.6846
18.1027
15.8455
14.3303
14.1185
14.34
14.6104
14.8722
15.1065
15.2915
15.41
15.4515
15.408
15.2723
15.0464
14.7753
14.599
14.6954
15.0839
15.9567
714.815
452.373
18.7988
18.2192
17.5433
16.7671
16.9049
17.8593
18.8211
19.5265
19.968
20.1678
20.1259
19.7932
19.0297
17.7087
16.1828
15.2111
14.8877
14.8806
14.9787
15.1132
15.2586
15.3959
15.5086
15.5828
15.6073
15.5722
15.4684
15.2934
15.0736
14.908
14.9566
15.2834
16.0743
714.388
451.113
19.3566
18.8752
17.994
16.3695
14.9913
15.3296
16.3671
17.2356
17.7264
17.8117
17.5328
17.0801
16.6962
16.3849
16.0636
15.8084
15.6819
15.6434
15.6505
15.6809
15.7212
15.7611
15.7912
15.8027
15.7872
15.7362
15.6413
15.4979
15.3227
15.1871
15.2193
15.4869
16.1559
713.684
447.996
19.3694
19.4074
19.0634
18.0931
16.3913
15.0583
14.7338
15.0587
15.6271
16.1565
16.498
16.6274
16.5963
16.4874
16.3652
16.2601
16.1835
16.1323
16.0973
16.0709
16.0473
16.0239
15.9975
15.9639
15.9183
15.854
15.764
15.6444
15.5063
15.4018
15.4262
15.6333
16.1616
712.916
444.034
19.2191
19.8068
20.134
20.2782
19.9674
18.7982
17.2007
15.716
14.7187
14.4533
14.8536
15.4452
15.8853
16.1286
16.2393
16.2785
16.2825
16.2678
16.2414
16.2073
16.1672
16.1223
16.073
16.0193
15.9604
15.8934
15.8144
15.7199
15.6164
15.5402
15.5573
15.7066
16.11
712.434
443.974
19.0814
19.5563
19.839
20.1381
20.5148
20.8507
20.7415
19.7735
17.9809
15.6288
13.582
13.1921
13.9854
14.8357
15.4212
15.7809
15.9905
16.1049
16.1582
16.1707
16.1542
16.1158
16.061
15.9977
15.9302
15.8612
15.791
15.7185
15.6466
15.5968
15.61
15.7164
16.0432
712.438
448.696
19.7374
19.9487
20.0066
19.9634
19.8335
19.7329
19.8139
19.9513
19.7435
18.5004
15.779
13.2193
12.7931
13.6369
14.5071
15.1199
15.5257
15.7885
15.95
16.038
16.0714
16.0632
16.0238
15.9613
15.8855
15.8066
15.7327
15.6691
15.6186
15.591
15.6064
15.6913
15.9985
712.785
452.057
20.0786
20.2567
20.4143
20.5286
20.527
20.2714
19.713
19.0904
18.6148
18.0609
16.4952
13.9215
12.7618
13.3203
14.1768
14.808
15.2421
15.5503
15.7664
15.907
15.9837
16.0069
15.9874
15.9335
15.8552
15.765
15.6774
15.6057
15.5582
15.5394
15.5571
15.6395
15.9721
713.147
453.088
19.8959
19.9039
19.9805
20.08
20.164
20.146
19.8806
19.2354
18.2579
17.0828
15.5983
13.7048
12.9235
13.5082
14.2515
14.7815
15.1604
15.4495
15.6696
15.8263
15.9249
15.9703
15.9683
15.9257
15.8505
15.754
15.6519
15.5629
15.5026
15.4781
15.4951
15.5866
15.9595
713.272
454.24
19.9857
19.9057
19.9079
19.8992
19.8028
19.5759
19.231
18.7025
17.8147
16.4338
14.7637
13.3945
13.2156
13.8485
14.4319
14.8498
15.1689
15.4268
15.6331
15.7884
15.8931
15.9493
15.9601
15.9294
15.8626
15.7674
15.6573
15.5512
15.4697
15.4275
15.4372
15.5378
15.9379
713.091
453.871
19.7654
19.6746
19.7012
19.7441
19.6829
19.4088
18.932
18.273
17.3437
15.9965
14.4002
13.3827
13.5015
14.0706
14.5395
14.8922
15.176
15.4127
15.6067
15.7576
15.865
15.9295
15.9525
15.936
15.8826
15.7973
15.6891
15.5743
15.4746
15.4128
15.4125
15.5163
15.9173
712.724
452.523
19.3645
19.23
19.2159
19.2412
19.229
19.0697
18.7099
18.1236
17.2357
15.9515
14.4277
13.4659
13.6065
14.1065
14.5237
14.851
15.1222
15.3525
15.5447
15.6983
15.8129
15.8889
15.9273
15.929
15.8951
15.8276
15.7319
15.6194
15.5104
15.4326
15.4193
15.5146
15.888
712.293
451.451
19.1788
19.0647
19.0421
19.0231
18.9541
18.7932
18.5057
18.0514
17.34
16.241
14.7869
13.6252
13.546
13.9755
14.3829
14.7138
14.9914
15.2295
15.4315
15.5964
15.7243
15.8158
15.8722
15.8946
15.8837
15.84
15.7657
15.6677
15.5622
15.4778
15.4539
15.5348
15.8697
711.965
449.605
18.8528
18.8108
18.8273
18.8342
18.7734
18.6205
18.3674
17.9942
17.4394
16.58
15.3173
13.9747
13.463
13.7367
14.1366
14.4861
14.7844
15.0433
15.2659
15.4514
15.5995
15.7114
15.7889
15.8336
15.8466
15.8279
15.7782
15.701
15.6084
15.5269
15.4968
15.5616
15.856
711.741
448.068
18.669
18.6906
18.7212
18.7227
18.6562
18.5173
18.3065
18.0036
17.5707
16.9225
15.9255
14.5966
13.5835
13.4963
13.8248
14.1877
14.5114
14.7973
15.0475
15.26
15.4338
15.5701
15.6707
15.7385
15.7759
15.7835
15.761
15.7095
15.637
15.5657
15.5338
15.5847
15.8471
711.656
447.329
18.671
18.7508
18.8004
18.8021
18.7093
18.5252
18.3014
18.0343
17.6869
17.2007
16.4651
15.3548
14.0746
13.4413
13.5319
13.8594
14.1986
14.511
14.7922
15.0373
15.2426
15.4076
15.5341
15.6252
15.6833
15.7118
15.7116
15.6835
15.6328
15.5774
15.5508
15.5954
15.8396
711.649
447.183
18.7113
18.8187
18.8878
18.9166
18.8524
18.6532
18.3818
18.0959
17.7788
17.3845
16.8371
16.0049
14.8177
13.7486
13.4022
13.5721
13.884
14.2049
14.508
14.7828
15.0211
15.2185
15.3751
15.4931
15.5758
15.6263
15.647
15.6395
15.6085
15.5682
15.5475
15.5875
15.8193
711.665
447.783
18.8461
18.9251
18.9792
19.0104
18.9826
18.827
18.5467
18.2263
17.8992
17.5403
17.0964
16.4679
15.5274
14.37
13.5764
13.4378
13.6431
13.9381
14.2435
14.5353
14.799
15.0247
15.2083
15.3504
15.4539
15.5226
15.5606
15.5706
15.5568
15.5313
15.5195
15.5615
15.7945
711.712
449.076
19.0572
19.0588
19.0662
19.0672
19.0555
18.9623
18.7272
18.4016
18.0552
17.6986
17.2984
16.7816
16.0399
15.0161
13.9974
13.4929
13.4968
13.7156
13.9964
14.2895
14.5708
14.8233
15.0368
15.2074
15.3353
15.4238
15.4772
15.5006
15.4995
15.4851
15.4802
15.5242
15.7583
711.685
450.901
19.2881
19.1765
19.1159
19.0659
19.0631
19.032
18.8662
18.5776
18.2366
17.8825
17.503
17.0488
16.4391
15.5905
14.5749
13.8041
13.5514
13.635
13.8497
14.1099
14.3803
14.6379
14.8662
15.0562
15.2047
15.3123
15.382
15.419
15.4292
15.4239
15.4248
15.472
15.7116
711.623
452.645
19.4498
19.2199
19.0877
18.9947
19.0284
19.0612
18.9567
18.7198
18.4094
18.0709
17.7068
17.2866
16.7511
16.0269
15.1039
14.2103
13.7143
13.6252
13.7487
13.9616
14.2108
14.4659
14.7045
14.9114
15.0787
15.2039
15.2886
15.3372
15.3566
15.3587
15.3655
15.4174
15.6603
711.453
453.37
19.4578
19.137
18.9371
18.8314
18.9539
19.069
19.0246
18.8439
18.5805
18.2742
17.9337
17.5427
17.0596
16.427
15.6123
14.7226
14.0544
13.7778
13.7729
13.9029
14.0982
14.3225
14.5496
14.7598
14.9397
15.082
15.1841
15.2473
15.2775
15.2867
15.2977
15.3519
15.5923
711.206
452.894
19.3522
18.979
18.7064
18.5865
18.8067
19.0245
19.0614
18.9526
18.7496
18.4864
18.1769
17.8149
17.3728
16.8066
16.079
15.2294
14.4574
13.9976
13.852
13.893
14.0296
14.2148
14.4191
14.6201
14.8015
14.9526
15.0675
15.1443
15.1863
15.2044
15.2222
15.2814
15.5187
710.896
452.233
19.2676
18.843
18.4817
18.3099
18.5744
18.8948
19.0333
19.0138
18.8866
18.6823
18.4192
18.0994
17.7066
17.2091
16.5713
15.7948
14.9895
14.3682
14.0439
13.9555
14.0059
14.1335
14.3012
14.4827
14.6579
14.813
14.9385
15.0292
15.085
15.1143
15.1395
15.2012
15.4272
710.533
452.358
19.2429
18.7002
18.2318
18.0587
18.3493
18.7397
18.9625
19.0236
18.9683
18.8271
18.6185
18.3482
18.0077
17.5742
17.0175
16.3225
15.5403
14.8253
14.3395
14.1084
14.057
14.1124
14.2285
14.3747
14.5285
14.6735
14.7983
14.8954
14.9618
15.003
15.0388
15.1075
15.3276
710.18
453.044
19.1533
18.3983
17.8054
17.805
18.2017
18.6296
18.8966
19.0115
19.0128
18.9284
18.7748
18.5583
18.2746
17.9075
17.4324
16.8277
16.1059
15.3573
14.7368
14.3434
14.1647
14.1322
14.1885
14.2944
14.4223
14.5524
14.6708
14.7682
14.8404
14.8908
14.9363
15.0109
15.2207
709.798
453.152
18.826
17.8383
17.1616
17.5181
18.0949
18.5439
18.8259
18.9729
19.0167
18.9793
18.8739
18.7066
18.4755
18.1703
17.7725
17.2615
16.6307
15.9197
15.238
14.7066
14.3818
14.2343
14.2078
14.2557
14.3445
14.4499
14.5548
14.6475
14.7214
14.7781
14.8311
14.9103
15.1101
709.445
451.673
18.1871
17.0722
16.3828
17.0553
17.7863
18.2884
18.6203
18.824
18.9261
18.9447
18.8925
18.7765
18.5982
18.3518
18.0249
17.6007
17.066
16.4309
15.756
15.1425
14.6857
14.4126
14.2894
14.2678
14.3076
14.3794
14.4625
14.5433
14.6137
14.6731
14.7319
14.8149
15.0035
709.102
449.026
17.6103
16.5791
15.7369
16.1407
16.901
17.5517
18.0459
18.3952
18.6206
18.7448
18.7833
18.7471
18.6427
18.4699
18.2219
17.8869
17.4517
16.9113
16.2896
15.6507
15.0909
14.6849
14.4447
14.337
14.3175
14.349
14.4045
14.4668
14.5266
14.5824
14.6422
14.7257
14.9031
708.837
446.31
17.6752
17.0511
16.1354
15.3772
15.406
15.9593
16.6765
17.3211
17.8106
18.1491
18.3608
18.4679
18.487
18.427
18.288
18.0644
17.7466
17.3253
16.8018
16.2041
15.5995
15.0768
14.6987
14.4738
14.3718
14.3516
14.3763
14.4201
14.4685
14.5179
14.5749
14.6558
14.8226
708.684
444.552
18.4788
18.4747
18.1008
17.0583
15.7259
14.8029
14.7225
15.371
16.2282
16.9471
17.4642
17.8111
18.0223
18.1219
18.1242
18.0345
17.8517
17.5704
17.1854
16.7017
16.1494
15.5928
15.1096
14.7532
14.5329
14.4252
14.3939
14.4054
14.436
14.4755
14.5264
14.6022
14.7635
708.706
444.129
19.0701
19.52
19.6696
19.5429
18.7428
17.1264
15.2201
13.9882
14.1122
15.062
16.0183
16.728
17.2162
17.5339
17.7149
17.7798
17.7393
17.597
17.3521
17.0039
16.5624
16.0621
15.563
15.1304
14.8066
14.599
14.4888
14.4462
14.4435
14.4638
14.5041
14.575
14.7435
708.912
445.556
19.1329
19.609
19.9205
20.1873
20.3366
19.962
18.5106
16.1447
13.9327
13.349
14.212
15.2868
16.1001
16.6633
17.0433
17.2802
17.3959
17.401
17.2991
17.0909
16.7811
16.3871
15.947
15.5148
15.142
14.859
14.6702
14.5609
14.5089
14.4961
14.5158
14.5766
14.7563
709.21
448.733
19.4968
19.7304
19.8791
20.018
20.1845
20.3413
20.1594
19.002
16.5697
13.9609
13.1835
14.0215
15.0475
15.8105
16.3428
16.711
16.9483
17.0701
17.0831
16.9904
16.7964
16.5126
16.1635
15.7875
15.4287
15.1228
14.8883
14.7261
14.6255
14.5738
14.5655
14.6109
14.8011
709.508
452.385
20.2369
20.412
20.5349
20.5928
20.5217
20.3662
20.1992
19.8078
18.6086
16.0671
13.572
13.2216
14.141
15.0412
15.6892
16.1511
16.4791
16.6927
16.7992
16.8024
16.7055
16.5174
16.2564
15.9514
15.6371
15.3462
15.0997
14.9073
14.7683
14.6787
14.6383
14.6622
14.8512
709.666
455.046
20.5491
20.6662
20.8659
21.0869
21.1287
20.8725
20.4594
19.9671
19.2121
17.6287
14.9852
13.3048
13.5936
14.4352
15.1322
15.6458
16.028
16.3032
16.479
16.5566
16.5388
16.4324
16.2517
16.0191
15.7619
15.5062
15.2722
15.0722
14.9123
14.7935
14.7224
14.7206
14.8947
709.663
456.135
20.4855
20.4747
20.6708
21.0207
21.2391
21.1126
20.7162
20.1547
19.3885
18.1531
16.0399
13.8671
13.4924
14.1388
14.7966
15.3028
15.6943
15.9951
16.2083
16.333
16.3697
16.3233
16.205
16.0325
15.8273
15.6107
15.3996
15.2056
15.0353
14.8949
14.7968
14.7687
14.9143
709.465
455.327
20.3218
20.2997
20.5092
20.8913
21.161
21.1317
20.8574
20.3912
19.6886
18.5771
16.8001
14.6087
13.5772
13.9032
14.4941
14.9946
15.3955
15.7148
15.9562
16.1176
16.1983
16.2012
16.1346
16.0125
15.8523
15.6712
15.4837
15.2998
15.1267
14.9724
14.8534
14.8002
14.9083
709.142
453.857
20.1384
20.1733
20.4539
20.8673
21.1302
21.1288
20.9127
20.5168
19.9014
18.9328
17.4058
15.4044
13.9896
13.8925
14.3295
14.7818
15.1683
15.4905
15.7475
15.9347
16.0488
16.0907
16.0659
15.9846
15.8605
15.7078
15.539
15.3634
15.1886
15.0247
14.8901
14.8152
14.8812
708.758
452.846
19.8653
19.8581
20.2087
20.7379
21.0801
21.1465
20.9913
20.6514
20.0979
19.2223
17.859
16.0355
14.4827
14.0293
14.2703
14.6447
14.9985
15.3096
15.5706
15.7733
15.9122
15.9859
15.9968
15.9517
15.8605
15.7341
15.5827
15.4148
15.2386
15.0655
14.916
14.8189
14.8393
708.37
452.292
19.4976
19.3847
19.8556
20.5183
20.9026
21.0069
20.9034
20.6227
20.1431
19.3812
18.2044
16.5903
15.0335
14.3094
14.3311
14.5974
14.8989
15.1852
15.4382
15.6452
15.7977
15.8922
15.9288
15.9113
15.8466
15.7428
15.608
15.4494
15.2749
15.0966
14.9353
14.8166
14.7902
707.998
450.564
18.7985
18.6374
19.3664
20.2074
20.6144
20.738
20.67
20.4264
19.985
19.2876
18.2519
16.8825
15.5045
14.6825
14.5068
14.6371
14.8611
15.1047
15.3375
15.5403
15.6998
15.8094
15.8659
15.8704
15.8269
15.7415
15.6208
15.4711
15.2999
15.1195
14.9493
14.8109
14.7336
707.635
447.976
17.9082
17.6552
18.3912
19.3435
19.8389
20.0438
20.0502
19.8673
19.4723
18.826
17.904
16.7767
15.6948
14.9896
14.7377
14.7571
14.8962
15.0828
15.2801
15.4643
15.6185
15.733
15.8016
15.8222
15.796
15.7264
15.6183
15.4768
15.3092
15.1272
14.9487
14.7912
14.6672
707.275
446.062
17.3451
16.9344
17.1004
17.9946
18.6827
19.0455
19.1692
19.0816
18.7717
18.23
17.48
16.6148
15.8058
15.2325
14.9504
14.8852
14.9482
15.0798
15.2412
15.4048
15.5506
15.665
15.7399
15.7706
15.7566
15.6995
15.6025
15.4698
15.3077
15.1267
14.9425
14.7675
14.5973
706.91
445.098
17.351
16.9551
16.4313
16.5492
17.2471
17.8093
18.0925
18.1333
17.9527
17.5701
17.0358
16.4286
15.8485
15.391