/*--------------------------------*- C++ -*----------------------------------*\
| =========                 |                                                 |
| \\      /  F ield         | OpenFOAM: The Open Source CFD Toolbox           |
|  \\    /   O peration     | Version:  v1906                                 |
|   \\  /    A nd           | Web:      www.OpenFOAM.com                      |
|    \\/     M anipulation  |                                                 |
\*---------------------------------------------------------------------------*/
FoamFile
{
    version     2.0;
    format      ascii;
    class       volScalarField;
    location    "60";
    object      T;
}
// * * * * * * * * * * * * * * * * * * * * * * * * * * * * * * * * * * * * * //

dimensions      [0 0 0 1 0 0 0];


internalField   nonuniform List<scalar> 
78750
(
276.176
274.629
272.944
268.982
263.297
262.561
260.326
259.745
258.931
258.591
258.442
258.401
258.523
258.799
259.244
259.849
260.59
261.427
262.304
263.154
263.915
264.527
264.939
265.109
265
264.574
263.78
262.552
260.809
258.489
255.669
252.903
251.978
260.116
343.803
331.173
346.521
369.969
383.4
376.571
358.074
344.588
337.154
332.347
329.013
326.742
325.129
323.937
323.065
322.458
322.079
321.896
321.876
321.984
322.189
322.468
322.802
323.177
323.585
324.02
324.478
324.958
325.466
326.021
326.667
327.501
328.771
331.353
340.561
394.153
298.758
307.376
316.856
330.288
335.427
333.923
330.261
326.536
324.329
323.809
324.015
324.261
324.381
324.373
324.258
324.057
323.796
323.502
323.21
322.926
322.675
322.492
322.391
322.379
322.466
322.665
322.986
323.437
324.035
324.847
326.132
328.748
335.245
352.542
412.47
304.714
309.444
314.416
323.278
331.869
334.293
335.05
335.28
335.337
335.389
335.472
335.582
335.622
335.463
335.081
334.568
334.039
333.479
332.857
332.218
331.602
331.04
330.559
330.181
329.931
329.836
329.925
330.228
330.792
331.775
333.689
338.048
348.571
371.357
429.493
304.093
310.272
318.027
330.209
342.614
347.749
349.674
350.695
351.295
351.598
351.641
351.358
350.691
349.597
348.027
345.978
343.645
341.452
339.608
337.974
336.446
335.055
333.822
332.766
331.909
331.279
330.912
330.851
331.147
331.921
333.735
338.616
351.739
380.186
439.518
300.532
303.325
308.259
317.647
328.475
337.092
342.866
346.664
349.241
351.008
352.167
352.783
352.821
352.182
350.712
348.236
344.828
341.235
338.375
336.285
334.586
333.097
331.835
330.8
329.992
329.41
329.058
328.944
329.139
329.849
331.644
336.378
349.724
380.545
441.973
303.203
305.45
306.501
307.641
309.958
313.667
317.193
320.227
322.869
325.154
327.062
328.527
329.514
330.012
330.019
329.592
328.97
328.369
327.871
327.487
327.218
327.061
327.006
327.043
327.162
327.363
327.648
328.041
328.615
329.523
331.173
334.918
345.582
373.253
436.079
309.451
314.938
317.32
318.794
319.335
318.995
318.205
317.266
316.374
315.67
315.237
315.081
315.196
315.538
316.049
316.648
317.307
318.085
318.973
319.949
320.979
322.018
323.029
323.986
324.878
325.711
326.497
327.277
328.149
329.312
331.244
335.434
346.529
372.567
431.935
315.14
325.852
330.167
333.036
335.191
336.918
338.13
338.57
338.091
336.638
334.216
330.915
327.501
324.404
320.917
317.377
315.716
315.691
316.327
317.13
318.068
319.183
320.424
321.745
323.104
324.476
325.848
327.28
328.925
331.027
334.121
339.669
351.644
375.684
430.074
308.36
317.021
322.719
326.814
330.039
332.871
335.423
337.721
340.109
342.779
345.619
347.958
351.982
354.157
342.315
327.683
321.099
319.714
319.723
319.995
320.406
320.94
321.563
322.248
322.972
323.718
324.472
325.263
326.214
327.593
329.994
335.146
347.543
371.546
423.861
308.674
322.254
330.207
334.574
337.876
340.95
342.813
342.768
342.215
341.499
337.764
326.467
317.75
316.131
318.274
319.737
320.6
321.337
322.089
322.862
323.658
324.474
325.327
326.237
327.186
328.171
329.224
330.435
331.983
334.234
338.015
345.249
359.488
381.21
424.516
317.091
330.674
335.365
338.502
341.881
345.19
347.055
346.687
344.686
342.565
340.939
339.228
337.172
335.642
334.699
333.904
333.154
332.424
331.699
330.998
330.373
329.91
329.704
329.815
330.254
331.014
332.082
333.449
335.171
337.514
341.287
348.589
363.066
383.669
424.42
313.831
323.562
327.889
330.493
332.624
334.968
338.227
342.684
347.363
350.715
352.039
351.76
350.704
349.443
348.198
346.985
345.802
344.617
343.386
342.056
340.594
339.023
337.446
336.05
335.108
334.738
335.019
336.234
338.712
342.806
349.11
358.958
374.281
394.118
432.163
310.208
323.4
330.109
333.803
336.359
338.234
339.452
340.219
341.108
342.199
343.229
344.113
344.756
345.185
345.484
345.694
345.801
345.769
345.55
345.088
344.317
343.199
341.76
339.907
336.593
332.594
330.525
330.687
332.763
336.784
343.739
355.613
373.636
394.105
431.004
315.109
328.329
333.585
336.984
340.184
343.346
346.3
348.786
350.398
351.009
350.667
349.695
348.724
348.064
347.662
347.398
347.195
346.997
346.739
346.313
345.569
344.323
342.22
338.092
331.537
329.285
330.506
332.566
334.746
337.927
343.95
355.634
373.716
393.978
430.067
313.342
324.018
328.23
330.519
332.248
333.934
335.853
338.076
340.562
343.306
345.884
347.432
347.841
347.651
347.359
347.117
346.917
346.729
346.512
346.183
345.597
344.531
342.539
338.627
334.102
334.088
337.954
343.007
347.362
351.557
357.408
367.307
381.886
400.511
436.912
311.022
324.501
331.764
335.921
338.998
341.709
344.172
346.241
347.638
348.339
348.774
349.33
349.76
349.62
349.031
348.405
347.882
347.401
346.868
346.162
345.087
343.317
340.386
336.07
332.081
331.393
334.77
341.564
349.902
358.617
367.899
378.559
391.115
408.086
444.039
311.634
324.325
329.873
332.981
335.477
337.976
340.639
343.323
345.731
347.557
348.699
349.376
349.818
349.918
349.396
348.522
347.76
347.177
346.626
345.954
344.997
343.541
341.275
337.869
333.645
330.099
328.674
330.434
335.807
344.294
355.672
369.95
386.045
404.696
440.89
313.032
327.647
334.501
338.283
341.185
343.965
346.729
349.127
350.827
351.845
352.333
352.445
352.344
352.093
351.523
350.413
349.113
348.031
347.193
346.438
345.589
344.503
343.047
341.011
338.202
334.722
331.263
329.173
330.264
335.449
344.938
359.649
378.295
398.789
435.903
314.423
327.977
333.345
336.622
339.796
343.472
347.345
350.399
352.157
352.92
353.134
353.055
352.788
352.338
351.597
350.402
349.028
348.01
347.331
346.759
346.135
345.371
344.419
343.245
341.765
339.824
337.334
334.764
334.21
338.288
347.311
361.282
378.927
399.287
437.243
316.79
331.753
337.462
340.95
344.43
348.413
352.134
354.501
355.478
355.639
355.423
355.015
354.455
353.698
352.622
351.125
349.472
348.256
347.512
346.976
346.485
345.963
345.358
344.62
343.681
342.435
340.715
338.54
337.418
340.802
350.579
365.436
382.348
402.369
441.056
317.97
330.914
335.649
338.958
342.777
347.346
351.694
354.491
355.543
355.618
355.282
354.708
353.877
352.709
351.185
349.576
348.404
347.72
347.227
346.793
346.398
346.023
345.641
345.207
344.67
343.967
343.08
342.359
342.887
346.631
356.038
370.709
386.689
406.817
446.982
316.251
330.145
335.387
338.603
341.675
345.226
349.388
353.236
355.584
356.376
356.225
355.552
354.471
352.953
351.058
349.255
348.143
347.489
347.003
346.599
346.262
345.98
345.746
345.557
345.47
345.785
347.294
351.089
357.411
365.23
374.115
384.824
397.612
416.5
455.515
316.715
329.876
334.777
337.799
340.646
343.825
347.606
351.631
354.634
355.779
355.487
354.352
352.661
350.805
349.353
348.419
347.722
347.128
346.626
346.209
345.868
345.591
345.365
345.214
345.255
345.823
347.771
352.561
361.384
373.744
387.283
399.305
409.863
425.021
458.86
314.989
328.588
334.021
337.252
340.027
342.812
345.945
349.67
353.491
356.022
356.538
355.632
354.019
352.042
350.198
348.935
348.101
347.462
346.911
346.422
345.989
345.608
345.278
345
344.789
344.713
344.984
346.138
349.148
355.128
364.79
378.427
394.645
412.336
447.146
315.844
329.286
334.467
337.566
340.267
342.895
345.462
348.039
350.894
353.769
355.343
354.688
352.742
351.075
349.96
349.124
348.396
347.73
347.134
346.608
346.15
345.75
345.403
345.102
344.841
344.619
344.448
344.374
344.523
345.149
346.797
352.17
368.73
392.27
435.87
313.926
327.341
333.123
336.502
339.284
341.965
344.656
347.269
349.764
352.374
355.057
356.774
356.387
354.283
351.871
350.085
348.954
348.12
347.405
346.791
346.271
345.834
345.471
345.179
344.949
344.773
344.654
344.608
344.678
344.987
345.874
348.501
362.66
387.187
433.221
314.529
328.267
334.132
337.538
340.348
343.09
345.822
348.313
350.352
352.061
353.873
355.928
356.952
355.372
352.872
351.289
350.139
349.096
348.182
347.401
346.744
346.201
345.759
345.413
345.164
345.023
345.009
345.194
345.848
347.932
353.579
362.369
377.013
399.549
442.123
313.558
327.681
334.131
337.918
341.046
344.138
347.258
350.127
352.422
354.05
355.211
356.345
357.712
358.206
356.379
353.614
351.671
350.35
349.277
348.353
347.571
346.918
346.38
345.948
345.622
345.419
345.377
345.628
346.611
349.743
358.33
373.826
392.339
413.641
452.124
315.055
329.708
335.938
339.659
342.973
346.492
350.028
352.984
355.109
356.533
357.473
358.136
358.744
359.137
357.834
354.935
352.931
351.553
350.386
349.38
348.528
347.814
347.218
346.725
346.325
346.023
345.842
345.905
346.56
348.801
355.38
370.473
393.134
416.071
453.289
315.513
330.252
336.511
340.415
344.166
348.328
352.338
355.382
357.341
358.516
359.22
359.664
359.975
360.14
359.549
357.279
354.72
353.101
351.89
350.819
349.901
349.124
348.47
347.918
347.453
347.053
346.719
346.522
346.657
347.62
350.856
360.087
379.979
405.198
446.647
316.997
331.867
337.858
341.809
346.028
350.901
355.293
358.254
359.938
360.848
361.342
361.587
361.638
361.444
360.681
358.74
356.211
354.416
353.135
352.067
351.156
350.394
349.757
349.223
348.757
348.326
347.924
347.588
347.417
347.664
349.053
353.86
367.736
392.185
438.411
317.503
332.131
337.996
342.028
346.535
351.734
356.262
359.17
360.742
361.557
361.989
362.213
362.288
362.165
361.632
360.309
358.212
356.201
354.68
353.539
352.627
351.875
351.262
350.739
350.27
349.836
349.425
349.042
348.723
348.591
349.024
351.387
360.611
382.596
431.761
317.624
332.011
337.782
341.744
346.161
351.421
356.418
359.915
361.875
362.857
363.294
363.404
363.292
362.987
362.424
361.418
359.843
357.999
356.327
355.001
354.009
353.264
352.682
352.208
351.8
351.431
351.074
350.712
350.347
350.023
349.939
351.051
358.293
378.662
427.878
317.326
331.62
337.296
341.018
344.93
349.666
354.74
358.817
361.342
362.699
363.382
363.679
363.716
363.537
363.13
362.43
361.338
359.862
358.221
356.71
355.531
354.702
354.126
353.711
353.397
353.135
352.882
352.598
352.255
351.859
351.571
352.631
361.211
381.287
426.629
316.605
330.99
336.881
340.599
344.234
348.498
353.42
358.035
361.304
363.153
364.044
364.375
364.369
364.145
363.755
363.19
362.395
361.295
359.881
358.328
356.983
356.071
355.536
355.243
355.101
355.049
355.029
354.975
354.833
354.646
354.89
357.91
369.607
389.77
430.323
316.466
331.266
337.363
341.169
344.779
348.702
352.902
357.069
360.485
362.714
363.951
364.541
364.715
364.608
364.311
363.872
363.29
362.507
361.427
360.011
358.514
357.432
356.922
356.811
356.955
357.303
357.82
358.411
358.984
359.733
361.697
367.597
380.587
400.731
440.577
316.327
331.629
338.12
342.279
346.349
350.61
354.545
358.059
361.076
363.2
364.411
364.984
365.154
365.06
364.794
364.42
363.962
363.387
362.605
361.491
360.065
358.81
358.255
358.351
358.872
359.789
361.168
362.928
364.893
367.324
371.424
379.236
391.77
411.29
451.59
317.167
332.949
339.522
343.945
348.629
353.363
357.047
359.741
361.955
363.669
364.755
365.315
365.51
365.456
365.241
364.932
364.565
364.128
363.562
362.763
361.642
360.404
359.679
359.805
360.606
361.986
364.106
367.059
370.641
374.893
380.645
389.119
400.755
419.042
457.802
318.221
334.321
341.062
345.969
351.623
356.907
360.397
362.45
363.834
364.844
365.491
365.823
365.916
365.835
365.637
365.377
365.08
364.743
364.327
363.769
363.001
362.077
361.402
361.471
362.326
363.847
366.171
369.602
374.18
379.739
386.495
395.028
405.812
422.815
459.904
319.82
335.954
342.692
348.033
354.571
359.943
362.878
364.328
365.193
365.79
366.161
366.334
366.35
366.246
366.061
365.834
365.584
365.311
364.997
364.609
364.128
363.606
363.31
363.656
364.739
366.336
368.49
371.586
376.025
381.888
389.08
397.668
408.085
424.659
461.661
320.726
336.695
343.468
349.18
356.425
362.1
364.827
365.888
366.352
366.616
366.771
366.827
366.792
366.68
366.515
366.319
366.107
365.882
365.636
365.362
365.071
364.847
364.94
365.772
367.573
369.995
372.576
375.434
379.172
384.374
391.289
399.909
410.559
427.705
464.873
320.838
336.493
342.834
348.184
355.362
361.826
365.282
366.651
367.156
367.342
367.396
367.376
367.301
367.18
367.026
366.851
366.664
366.468
366.26
366.044
365.838
365.711
365.865
366.712
368.756
372.126
376.281
380.491
384.617
389.317
395.467
403.609
414.299
431.73
467.383
319.92
335.289
341.185
345.799
352.138
359.466
364.457
366.723
367.577
367.874
367.951
367.927
367.849
367.734
367.596
367.441
367.277
367.104
366.922
366.733
366.547
366.398
366.384
366.746
367.945
370.558
374.882
380.592
386.85
392.976
399.265
406.815
416.786
433.125
466.681
318.75
333.75
339.557
343.582
348.573
355.608
362.152
366.01
367.683
368.287
368.462
368.464
368.391
368.282
368.154
368.017
367.874
367.728
367.576
367.418
367.256
367.101
366.984
366.986
367.301
368.319
370.622
374.787
381.008
388.739
396.833
404.961
414.397
429.435
462.876
317.547
332.576
338.876
342.941
347.269
353.033
359.466
364.479
367.248
368.442
368.872
368.98
368.951
368.861
368.743
368.615
368.484
368.353
368.222
368.09
367.958
367.828
367.708
367.619
367.615
367.823
368.519
370.213
373.678
379.718
388.357
398.14
408.313
423.348
458.583
316.787
332.382
339.415
343.96
348.563
353.741
358.95
363.635
366.815
368.433
369.105
369.338
369.381
369.339
369.257
369.156
369.048
368.938
368.828
368.719
368.614
368.514
368.425
368.356
368.324
368.372
368.591
369.2
370.694
374.104
380.936
391.429
403.191
419.54
456.295
317
333.943
341.669
346.839
352.25
357.385
361.388
364.813
367.425
368.908
369.56
369.794
369.852
369.836
369.78
369.698
369.603
369.504
369.406
369.315
369.233
369.158
369.099
369.066
369.079
369.168
369.395
369.888
370.946
373.327
378.722
388.879
401.847
419.622
456.812
318.884
337.262
345.347
351.242
357.835
362.539
365.155
367.089
368.638
369.598
370.052
370.229
370.287
370.29
370.258
370.199
370.125
370.044
369.963
369.887
369.822
369.769
369.736
369.736
369.796
369.958
370.303
370.985
372.307
374.928
380.276
390.219
403.493
421.897
458.879
322.446
341.148
349.478
356.323
364.011
367.736
368.901
369.619
370.2
370.565
370.74
370.81
370.827
370.815
370.78
370.728
370.664
370.595
370.528
370.466
370.415
370.378
370.364
370.39
370.487
370.711
371.169
372.068
373.799
377.059
383.053
393.137
406.146
424.377
460.837
325.462
343.423
351.982
359.647
367.557
370.595
370.893
371.043
371.215
371.332
371.387
371.403
371.394
371.368
371.329
371.279
371.223
371.165
371.11
371.062
371.023
371.001
371.004
371.052
371.175
371.436
371.958
372.989
375.001
378.774
385.394
395.695
408.313
426.055
461.986
326.198
343.61
351.47
358.634
366.923
371.73
372.452
372.366
372.261
372.192
372.14
372.092
372.044
371.993
371.939
371.882
371.825
371.771
371.723
371.684
371.658
371.652
371.675
371.746
371.894
372.181
372.731
373.807
375.923
379.937
386.917
397.353
409.629
426.917
462.549
324.854
341.773
348.374
353.784
361.134
368.824
372.456
373.252
373.246
373.1
372.963
372.85
372.756
372.673
372.597
372.527
372.462
372.406
372.361
372.33
372.316
372.328
372.375
372.475
372.66
372.987
373.577
374.683
376.824
380.91
388.048
398.534
410.509
427.446
463.046
322.956
339.449
345.676
349.839
354.658
361.724
368.81
372.552
373.828
374.017
373.887
373.712
373.556
373.424
373.311
373.214
373.132
373.066
373.016
372.987
372.983
373.012
373.087
373.228
373.47
373.876
374.566
375.785
378.035
382.22
389.467
399.916
411.55
428.172
463.891
321.352
337.848
344.343
348.281
351.671
355.581
361.528
367.706
371.849
373.892
374.545
374.569
374.413
374.236
374.076
373.94
373.827
373.738
373.674
373.638
373.637
373.679
373.781
373.968
374.283
374.8
375.658
377.108
379.623
384.042
391.421
401.734
412.981
429.292
465.061
319.796
336.571
343.573
347.88
351.453
354.546
357.551
361.708
366.523
370.594
373.336
374.706
375.1
375.053
374.886
374.711
374.554
374.426
374.332
374.275
374.263
374.306
374.425
374.649
375.03
375.664
376.716
378.475
381.401
386.213
393.76
403.831
414.658
430.637
466.209
318.172
335.286
342.985
347.758
351.954
355.985
359.252
361.466
363.565
366.338
369.454
372.297
374.337
375.335
375.56
375.466
375.297
375.13
374.992
374.898
374.858
374.885
375.001
375.24
375.663
376.379
377.585
379.618
382.967
388.248
396.03
405.875
416.309
431.901
467.003
317.267
335.205
343.915
349.292
354.008
358.789
363.125
366.034
367.287
367.737
368.336
369.676
371.666
373.759
375.269
375.884
375.941
375.814
375.655
375.519
375.436
375.427
375.517
375.743
376.168
376.908
378.176
380.348
383.971
389.64
397.686
407.423
417.544
432.711
467.248
318.916
338.033
347.19
353.266
359.141
364.605
368.658
371.327
372.681
372.859
372.459
371.97
371.752
372.323
373.731
375.253
376.088
376.283
376.225
376.105
375.999
375.953
376.003
376.194
376.589
377.301
378.539
380.687
384.339
390.156
398.392
408.163
418.102
432.897
466.995
323.673
342.669
351.308
358.228
366.253
372.446
375.523
376.636
376.913
376.73
376.219
375.598
374.965
374.308
373.951
374.575
375.698
376.388
376.582
376.569
376.505
376.46
376.489
376.643
376.994
377.652
378.811
380.829
384.299
389.951
398.135
407.956
417.859
432.459
466.378
327.818
344.962
353.984
362.789
372.221
377.257
378.842
379.064
378.859
378.498
378.044
377.536
377.017
376.476
375.856
375.422
375.794
376.457
376.808
376.905
376.913
376.913
376.958
377.107
377.434
378.048
379.133
381.015
384.246
389.569
397.47
407.219
417.162
431.769
465.711
326.946
343.308
352.37
361.661
370.7
375.585
377.542
378.265
378.486
378.471
378.321
378.075
377.755
377.375
376.936
376.53
376.534
376.918
377.176
377.269
377.308
377.345
377.423
377.592
377.923
378.525
379.569
381.353
384.377
389.357
396.866
406.403
416.374
431.081
465.158
322.929
339
345.993
352.408
361.559
370.1
374.879
376.931
377.722
377.985
378.015
377.924
377.75
377.521
377.337
377.334
377.471
377.601
377.678
377.724
377.766
377.829
377.942
378.151
378.522
379.158
380.224
381.994
384.921
389.663
396.807
406.025
415.935
430.733
464.982
320.532
336.357
342.745
348.083
356.202
366.586
373.689
376.889
378.034
378.324
378.309
378.231
378.187
378.173
378.158
378.152
378.169
378.195
378.221
378.255
378.307
378.397
378.552
378.815
379.25
379.956
381.095
382.924
385.862
390.501
397.383
406.254
416.012
430.821
465.199
321.1
338.247
345.099
349.977
355.47
362.482
369.57
374.567
377.414
378.716
379.136
379.165
379.07
378.963
378.885
378.838
378.813
378.806
378.816
378.849
378.914
379.028
379.219
379.529
380.021
380.795
382.008
383.91
386.89
391.489
398.186
406.747
416.315
431.049
465.545
320.908
338.147
344.396
347.62
349.982
352.646
357.102
362.847
368.494
373.316
376.878
378.928
379.697
379.802
379.695
379.571
379.483
379.434
379.422
379.445
379.512
379.639
379.851
380.19
380.72
381.54
382.803
384.755
387.765
392.335
398.886
407.184
416.568
431.196
465.804
318.386
335.078
342.638
347.245
350.969
353.994
356.137
357.978
360.497
364.031
368.477
373.381
377.35
379.448
380.157
380.262
380.183
380.084
380.02
380.006
380.052
380.172
380.388
380.742
381.295
382.146
383.446
385.432
388.461
393.002
399.418
407.484
416.715
431.27
465.947
318.729
336.551
344.669
349.758
354.402
359.366
364.25
367.739
369.35
369.855
370.3
371.978
375.177
378.228
379.904
380.511
380.651
380.635
380.586
380.558
380.581
380.683
380.892
381.252
381.827
382.715
384.069
386.122
389.212
393.764
400.077
407.937
417.037
431.566
466.18
321.399
340.354
348.257
353.037
357.143
361.142
365.324
369.708
373.48
375.832
376.779
376.81
377.471
379.135
380.425
380.962
381.111
381.125
381.101
381.083
381.104
381.2
381.406
381.773
382.369
383.299
384.719
386.86
390.045
394.648
400.893
408.585
417.572
432.081
466.502
322.918
341.754
349.502
354.674
359.888
365.182
369.486
372.503
374.928
377.132
378.867
379.772
380.129
380.796
381.387
381.613
381.659
381.646
381.619
381.603
381.628
381.726
381.938
382.317
382.937
383.907
385.387
387.61
390.885
395.536
401.729
409.286
418.169
432.635
466.819
324.141
342.953
350.654
356.091
362.097
368.555
373.842
377.111
378.893
380.042
381.011
381.694
381.94
382.126
382.258
382.272
382.24
382.195
382.154
382.135
382.161
382.265
382.486
382.882
383.526
384.531
386.058
388.337
391.664
396.33
402.464
409.904
418.681
433.065
467.036
325.713
344.607
352.398
358.288
365.035
371.551
376.225
379.119
380.878
381.996
382.74
383.153
383.188
383.09
382.999
382.912
382.832
382.76
382.703
382.675
382.698
382.801
383.026
383.426
384.079
385.094
386.63
388.913
392.225
396.846
402.902
410.24
418.918
433.198
467.076
326.203
344.544
352.222
358.433
366.092
373.355
378.052
380.599
382.07
383.056
383.758
384.15
384.141
383.911
383.708
383.558
383.441
383.344
383.269
383.229
383.244
383.342
383.565
383.965
384.62
385.635
387.164
389.421
392.681
397.221
403.18
410.417
418.998
433.164
467.03
326.025
344.041
351.6
357.75
365.477
373.304
378.741
381.683
383.21
384.082
384.638
384.96
384.972
384.709
384.432
384.227
384.071
383.946
383.848
383.788
383.786
383.867
384.072
384.454
385.087
386.075
387.566
389.764
392.937
397.367
403.215
410.358
418.849
432.908
466.855
325.436
343.191
350.506
356.288
363.484
371.438
377.792
381.648
383.724
384.849
385.466
385.757
385.768
385.513
385.183
384.921
384.725
384.569
384.447
384.365
384.342
384.404
384.588
384.948
385.556
386.514
387.963
390.101
393.186
397.509
403.247
410.301
418.73
432.733
466.779
324.236
341.72
348.649
353.742
359.905
367.554
374.91
380.163
383.265
384.998
385.97
386.458
386.558
386.341
385.974
385.647
385.4
385.209
385.057
384.948
384.9
384.936
385.094
385.425
386.003
386.926
388.335
390.421
393.437
397.671
403.313
410.284
418.657
432.614
466.729
323.133
340.587
347.471
352.177
357.409
364.051
371.45
377.767
382.018
384.536
386.002
386.846
387.216
387.151
386.798
386.408
386.1
385.867
385.685
385.551
385.476
385.487
385.618
385.921
386.465
387.351
388.716
390.751
393.705
397.864
403.424
410.328
418.674
432.643
466.821
322.455
340.049
347.104
351.848
356.88
362.841
369.449
375.759
380.656
383.84
385.763
386.934
387.61
387.822
387.603
387.189
386.813
386.529
386.314
386.153
386.055
386.044
386.156
386.44
386.968
387.838
389.189
391.211
394.149
398.278
403.785
410.627
418.941
432.916
467.048
321.983
339.666
346.91
351.879
357.269
363.393
369.464
375.093
379.863
383.308
385.518
386.903
387.784
388.26
388.287
387.955
387.54
387.202
386.951
386.766
386.647
386.616
386.709
386.974
387.482
388.333
389.665
391.666
394.58
398.674
404.126
410.902
419.176
433.148
467.24
321.766
339.616
347.138
352.507
358.635
365.391
371.327
376.199
380.275
383.436
385.607
387.02
387.955
388.555
388.793
388.627
388.234
387.854
387.564
387.355
387.221
387.179
387.264
387.528
388.038
388.894
390.235
392.25
395.177
399.269
404.687
411.404
419.649
433.636
467.604
322.081
340.355
348.299
354.297
361.504
368.867
374.563
378.659
381.829
384.328
386.145
387.387
388.244
388.84
389.178
389.178
388.878
388.495
388.179
387.951
387.805
387.754
387.834
388.095
388.607
389.467
390.812
392.83
395.753
399.825
405.194
411.84
420.03
433.986
467.835
323.4
342.25
350.726
357.605
366.091
373.633
378.643
381.813
384.057
385.785
387.088
388.031
388.716
389.221
389.55
389.635
389.438
389.084
388.751
388.506
388.35
388.298
388.382
388.652
389.179
390.057
391.42
393.449
396.374
400.427
405.75
412.332
420.489
434.45
468.167
325.449
344.566
353.577
361.408
370.829
378.035
382.177
384.526
386.071
387.221
388.101
388.768
389.278
389.671
389.948
390.057
389.941
389.646
389.321
389.066
388.902
388.845
388.928
389.205
389.744
390.639
392.019
394.059
396.979
401.003
406.271
412.785
420.892
434.822
468.409
327.472
346.542
355.897
364.355
373.988
380.783
384.421
386.347
387.529
388.362
388.989
389.474
389.854
390.154
390.373
390.475
390.408
390.17
389.861
389.596
389.423
389.361
389.442
389.719
390.264
391.169
392.557
394.595
397.494
401.475
406.684
413.14
421.216
435.138
468.637
329.052
347.974
357.52
366.255
375.585
382.034
385.549
387.388
388.463
389.178
389.693
390.083
390.386
390.625
390.801
390.894
390.863
390.686
390.412
390.143
389.954
389.876
389.944
390.212
390.752
391.658
393.052
395.094
397.985
401.939
407.105
413.513
421.561
435.468
468.859
330.822
349.453
359.523
369.024
377.785
383.376
386.519
388.212
389.197
389.836
390.287
390.621
390.878
391.078
391.225
391.309
391.299
391.169
390.937
390.677
390.474
390.379
390.428
390.674
391.192
392.078
393.453
395.474
398.336
402.251
407.369
413.734
421.754
435.637
468.968
333.225
351.318
362.374
373.714
381.642
385.659
387.884
389.164
389.948
390.474
390.851
391.133
391.352
391.521
391.648
391.724
391.73
391.642
391.455
391.215
391.003
390.884
390.907
391.125
391.613
392.47
393.82
395.82
398.662
402.555
407.649
413.991
421.998
435.873
469.13
335.559
353.327
365.465
379.254
386.099
388.415
389.569
390.301
390.805
391.172
391.451
391.668
391.84
391.976
392.077
392.14
392.151
392.091
391.948
391.744
391.539
391.404
391.4
391.584
392.03
392.84
394.142
396.097
398.898
402.753
407.813
414.125
422.097
435.916
469.132
335.768
353.87
366.934
382.632
389.093
390.588
391.128
391.465
391.725
391.936
392.109
392.252
392.37
392.464
392.534
392.576
392.58
392.533
392.422
392.254
392.065
391.921
391.893
392.044
392.449
393.209
394.457
396.359
399.114
402.931
407.965
414.257
422.205
435.975
469.143
332.553
350.816
363.612
379.201
388.216
391.218
392.183
392.521
392.666
392.755
392.827
392.889
392.944
392.99
393.023
393.038
393.029
392.985
392.895
392.757
392.591
392.446
392.391
392.501
392.853
393.548
394.72
396.541
399.218
402.971
407.96
414.223
422.124
435.794
468.976
326.834
344.173
353.958
365.008
377.613
386.054
390.587
392.621
393.368
393.584
393.621
393.61
393.592
393.576
393.56
393.539
393.505
393.451
393.369
393.252
393.108
392.969
392.892
392.957
393.248
393.869
394.954
396.68
399.262
402.936
407.873
414.112
421.974
435.557
468.771
321.933
338.171
344.519
349.726
358.471
369.715
379.923
387.387
391.688
393.567
394.187
394.317
394.288
394.219
394.145
394.075
394.006
393.931
393.843
393.736
393.61
393.483
393.397
393.421
393.645
394.178
395.156
396.76
399.221
402.788
407.656
413.868
421.69
435.175
468.447
320.574
337.84
344.647
348.453
351.781
357.142
365.514
375.117
383.933
390.176
393.373
394.565
394.884
394.892
394.798
394.679
394.557
394.44
394.323
394.203
394.078
393.958
393.871
393.872
394.045
394.498
395.37
396.847
399.167
402.604
407.376
413.546
421.336
434.761
468.107
321.753
341.093
349.481
354.591
358.651
361.818
364.861
369.439
376.067
383.656
389.949
393.506
394.913
395.32
395.359
395.266
395.128
394.976
394.826
394.679
394.538
394.412
394.322
394.312
394.454
394.851
395.639
397.006
399.197
402.504
407.176
413.297
421.071
434.483
467.897
322.626
341.479
349.928
355.84
362.003
368.36
372.989
375.477
377.555
381.287
386.796
391.752
394.493
395.519
395.783
395.768
395.648
395.487
395.315
395.145
394.987
394.852
394.761
394.752
394.888
395.261
396.004
397.301
399.398
402.597
407.17
413.233
420.992
434.428
467.872
322.749
341.426
349.967
355.989
362.446
369.896
376.78
381.143
383.23
384.514
386.932
390.908
394.208
395.76
396.224
396.269
396.164
395.997
395.807
395.615
395.439
395.294
395.206
395.21
395.365
395.755
396.505
397.792
399.859
403.005
407.51
413.515
421.257
434.723
468.107
325.464
345.705
355.05
362.15
369.747
376.601
381.867
385.466
387.531
388.685
389.658
391.68
394.401
396.1
396.683
396.76
396.659
396.487
396.285
396.079
395.891
395.744
395.664
395.691
395.879
396.31
397.1
398.418
400.498
403.626
408.08
414.016
421.715
435.18
468.451
329.639
349.722
359.576
368.286
378.037
385.057
388.669
390.489
391.537
392.223
392.795
393.682
395.367
396.78
397.286
397.313
397.177
396.982
396.761
396.541
396.345
396.201
396.141
396.204
396.445
396.941
397.803
399.19
401.322
404.469
408.898
414.775
422.441
435.905
468.957
332.098
351.132
361.333
371.253
381.912
389.067
392.511
394.02
394.737
395.124
395.376
395.7
396.494
397.491
397.911
397.894
397.722
397.497
397.254
397.018
396.814
396.674
396.631
396.729
397.023
397.585
398.522
399.982
402.17
405.339
409.741
415.548
423.154
436.571
469.377
333.851
352.725
363.341
373.821
383.643
390.072
393.593
395.458
396.499
397.11
397.459
397.646
397.899
398.368
398.599
398.509
398.291
398.034
397.767
397.513
397.3
397.161
397.134
397.262
397.601
398.221
399.221
400.741
402.974
406.155
410.522
416.252
423.789
437.145
469.738
336.57
355.054
366.166
377.632
386.536
391.668
394.541
396.236
397.32
398.067
398.59
398.917
399.098
399.264
399.305
399.136
398.872
398.583
398.291
398.019
397.795
397.654
397.635
397.785
398.157
398.821
399.872
401.44
403.706
406.893
411.226
416.885
424.356
437.646
470.054
339.053
357.32
369.463
383.101
391.237
394.87
396.715
397.843
398.629
399.225
399.688
400.014
400.17
400.176
400.047
399.784
399.468
399.144
398.828
398.538
398.301
398.154
398.137
398.296
398.685
399.372
400.447
402.039
404.318
407.499
411.797
417.394
424.816
438.067
470.333
339.588
358.497
372.219
388.515
395.748
398.046
399.002
399.574
400.003
400.356
400.651
400.873
400.978
400.931
400.729
400.415
400.062
399.71
399.372
399.067
398.821
398.671
398.657
398.824
399.227
399.931
401.025
402.631
404.915
408.083
412.341
417.877
425.251
438.47
470.61
337.389
356.678
371.341
389.888
398.066
400.47
401.268
401.606
401.783
401.888
401.941
401.933
401.841
401.647
401.355
400.998
400.621
400.249
399.895
399.579
399.329
399.18
399.173
399.353
399.774
400.499
401.615
403.24
405.533
408.689
412.907
418.378
425.7
438.877
470.887
332.572
351.293
364.975
383.346
395.691
400.46
402.116
402.73
402.953
402.999
402.945
402.815
402.609
402.326
401.978
401.59
401.19
400.796
400.424
400.096
399.84
399.688
399.679
399.858
400.276
400.998
402.111
403.731
406.017
409.154
413.337
418.762
426.057
439.233
471.21
328.861
347.972
359.365
373.043
389.156
398.513
402.244
403.572
403.998
404.039
403.896
403.658
403.36
403.014
402.627