/*--------------------------------*- C++ -*----------------------------------*\
| =========                 |                                                 |
| \\      /  F ield         | OpenFOAM: The Open Source CFD Toolbox           |
|  \\    /   O peration     | Version:  v1906                                 |
|   \\  /    A nd           | Web:      www.OpenFOAM.com                      |
|    \\/     M anipulation  |                                                 |
\*---------------------------------------------------------------------------*/
FoamFile
{
    version     2.0;
    format      ascii;
    class       volVectorField;
    location    "60";
    object      U;
}
// * * * * * * * * * * * * * * * * * * * * * * * * * * * * * * * * * * * * * //

dimensions      [0 1 -1 0 0 0 0];


internalField   nonuniform List<vector> 
78750
(
(-0.405876 -0.177772 -0.209185)
(-0.346755 -0.161013 -0.20679)
(-0.340789 -0.131884 -0.192997)
(-0.270897 -0.101476 -0.167166)
(-0.20896 -0.0851268 -0.143112)
(-0.229092 -0.0771319 -0.143762)
(-0.186038 -0.0694055 -0.135701)
(-0.174797 -0.0632929 -0.135261)
(-0.153063 -0.0575773 -0.132232)
(-0.13824 -0.0525903 -0.130967)
(-0.123702 -0.0483747 -0.129967)
(-0.111251 -0.0445984 -0.129357)
(-0.0999474 -0.041497 -0.129272)
(-0.0899957 -0.0388627 -0.129638)
(-0.0810703 -0.0367096 -0.13045)
(-0.0731039 -0.0349437 -0.131646)
(-0.0659368 -0.0334635 -0.133135)
(-0.0594102 -0.0321545 -0.13479)
(-0.0533594 -0.0309103 -0.136473)
(-0.0476469 -0.0296539 -0.138071)
(-0.0421544 -0.0283372 -0.139509)
(-0.0367935 -0.0269268 -0.140759)
(-0.0315066 -0.0254077 -0.141851)
(-0.0262624 -0.0237692 -0.142865)
(-0.0210555 -0.0220077 -0.143922)
(-0.0159069 -0.0201302 -0.145171)
(-0.0108658 -0.0181567 -0.146778)
(-0.0060068 -0.0161218 -0.148913)
(-0.00142307 -0.0140758 -0.151749)
(0.00277651 -0.0120753 -0.155446)
(0.00644834 -0.0101319 -0.160097)
(0.00939073 -0.00803925 -0.16553)
(0.0115057 -0.00474179 -0.17092)
(0.0136426 0.00475738 -0.173645)
(0.008031 0.0496557 -0.132329)
(0.0538437 -0.222215 -0.0970806)
(-0.0488814 -0.150864 -0.215003)
(0.00879371 -0.177688 -0.319573)
(-0.0324744 -0.205363 -0.340923)
(-0.0410805 -0.165656 -0.29249)
(-0.056158 -0.102481 -0.216912)
(-0.0701972 -0.0695818 -0.182021)
(-0.0797287 -0.0499773 -0.174005)
(-0.0868759 -0.0333029 -0.170731)
(-0.0910544 -0.0200092 -0.167829)
(-0.0925863 -0.00998688 -0.164621)
(-0.0919201 -0.00158592 -0.160883)
(-0.0895532 0.00570532 -0.156575)
(-0.085935 0.0116055 -0.151772)
(-0.0814101 0.0158232 -0.146573)
(-0.0762713 0.0182611 -0.141052)
(-0.0706656 0.0189708 -0.135311)
(-0.0646643 0.0181924 -0.129484)
(-0.0582969 0.0163218 -0.123685)
(-0.051539 0.013758 -0.117996)
(-0.0444762 0.0107455 -0.112454)
(-0.0372174 0.00759147 -0.107127)
(-0.0298738 0.00462529 -0.102089)
(-0.0224954 0.00214424 -0.0974365)
(-0.0151604 0.000406655 -0.0932824)
(-0.00798355 -0.000349474 -0.0897404)
(-0.00110354 0.000105244 -0.0869032)
(0.00531679 0.00200566 -0.0848268)
(0.0110875 0.00562106 -0.0835184)
(0.0159646 0.0113323 -0.082935)
(0.0195313 0.0198951 -0.0830254)
(0.0212214 0.0331214 -0.0838898)
(0.0200167 0.0556482 -0.0862259)
(0.0143426 0.0988746 -0.0899245)
(0.0027276 0.181612 -0.0748566)
(-0.0097117 -0.009344 0.00543451)
(-0.00222944 -0.00376366 -0.0387773)
(-0.00023048 0.0708671 -0.0874663)
(-0.00442894 0.162157 -0.172803)
(-0.021979 0.164466 -0.222649)
(-0.034401 0.142797 -0.228652)
(-0.0452165 0.123494 -0.216575)
(-0.0556162 0.102296 -0.197264)
(-0.0653596 0.0763522 -0.179157)
(-0.0745088 0.0505517 -0.166892)
(-0.0831583 0.030536 -0.158526)
(-0.0911331 0.0169677 -0.150861)
(-0.0979957 0.00829168 -0.142702)
(-0.103022 0.00306646 -0.134076)
(-0.106182 6.9347e-06 -0.125099)
(-0.107367 -0.00213997 -0.11634)
(-0.106325 -0.00433446 -0.108744)
(-0.103057 -0.00682706 -0.10262)
(-0.098018 -0.00936999 -0.0976981)
(-0.0912792 -0.0119406 -0.0933582)
(-0.0829693 -0.0149532 -0.0893175)
(-0.0739533 -0.018391 -0.0855839)
(-0.0644605 -0.0217861 -0.0819979)
(-0.0547349 -0.0247091 -0.0784931)
(-0.045053 -0.026786 -0.0751109)
(-0.0356067 -0.0276498 -0.0719471)
(-0.0265155 -0.0269237 -0.0691058)
(-0.0178812 -0.0241863 -0.066685)
(-0.00989111 -0.018895 -0.0647577)
(-0.00275765 -0.0101098 -0.0633315)
(0.0034378 0.00454777 -0.0624938)
(0.00854121 0.0314644 -0.0631552)
(0.0110876 0.0831626 -0.0684954)
(0.00927612 0.160315 -0.0768439)
(0.00177735 0.237656 -0.061052)
(0.00372051 -0.14528 -0.0273427)
(0.00538913 -0.172494 -0.0727705)
(0.00807787 -0.125529 -0.109302)
(0.0164094 0.00398155 -0.157379)
(0.0190163 0.0998208 -0.213612)
(0.0171008 0.108222 -0.229053)
(0.015186 0.104564 -0.232446)
(0.0124681 0.0983652 -0.22996)
(0.00886624 0.0913528 -0.223647)
(0.00415034 0.0851921 -0.213831)
(-0.00240267 0.0790903 -0.198621)
(-0.0102259 0.0709235 -0.177994)
(-0.0186913 0.0590851 -0.153519)
(-0.0271845 0.043689 -0.128939)
(-0.0348552 0.0271045 -0.108676)
(-0.0407162 0.0122008 -0.094729)
(-0.044195 0.000602931 -0.0855787)
(-0.0457728 -0.00820818 -0.0784252)
(-0.0456099 -0.0151243 -0.0722928)
(-0.0438806 -0.0208501 -0.0671751)
(-0.0410132 -0.0255647 -0.0628271)
(-0.0372959 -0.029381 -0.0589984)
(-0.0329865 -0.0323646 -0.0554817)
(-0.0283175 -0.0345026 -0.0521344)
(-0.0234791 -0.0357015 -0.0488759)
(-0.0186099 -0.0357911 -0.0456749)
(-0.0137998 -0.034531 -0.0425545)
(-0.00918656 -0.0315767 -0.0395805)
(-0.00490117 -0.0262518 -0.0367356)
(-0.00091193 -0.0169208 -0.0338453)
(0.00281966 0.000557204 -0.0308621)
(0.00593039 0.0369035 -0.0290797)
(0.00716573 0.112635 -0.0341215)
(0.00575783 0.221026 -0.0468438)
(0.000932955 0.287311 -0.0381751)
(0.000490311 -0.12417 0.00372645)
(-0.000757029 -0.126391 -0.0284113)
(-0.00266284 -0.0832883 -0.0688169)
(-0.000512901 0.00764054 -0.12586)
(0.00935093 0.101803 -0.176573)
(0.0150308 0.124272 -0.192874)
(0.017363 0.126564 -0.195594)
(0.0184251 0.125461 -0.193127)
(0.0184322 0.123097 -0.186862)
(0.0176433 0.120472 -0.177576)
(0.0164327 0.117725 -0.165101)
(0.0147906 0.113463 -0.14923)
(0.0126437 0.106263 -0.131383)
(0.00986916 0.095523 -0.113)
(0.00648038 0.0810626 -0.0951571)
(0.00282782 0.0631541 -0.078747)
(-0.000386804 0.0433634 -0.0648363)
(-0.0024691 0.0249305 -0.0543068)
(-0.00334372 0.00984979 -0.046705)
(-0.00329637 -0.00225569 -0.0407044)
(-0.00252729 -0.0120571 -0.0357193)
(-0.00132392 -0.0198177 -0.0316528)
(0.000112675 -0.0256965 -0.0283474)
(0.00161192 -0.029845 -0.025631)
(0.00303724 -0.0323715 -0.0233283)
(0.004286 -0.0333277 -0.0212691)
(0.00528327 -0.0327007 -0.019301)
(0.0059253 -0.0303993 -0.0173049)
(0.00615519 -0.0260538 -0.0151829)
(0.00601886 -0.0183085 -0.0126785)
(0.00549691 -0.00299761 -0.0093675)
(0.00451555 0.0310832 -0.00561186)
(0.00338958 0.106466 -0.0060198)
(0.00256308 0.227603 -0.016621)
(0.000536555 0.298878 -0.0164803)
(-0.00610011 -0.162675 0.0543748)
(-0.0140635 -0.172997 0.033362)
(-0.0201041 -0.137485 -0.00262312)
(-0.0204171 -0.0655805 -0.0561019)
(-0.0106373 0.0116925 -0.104589)
(0.00195881 0.0646134 -0.13699)
(0.0133047 0.0934788 -0.154444)
(0.0225784 0.108647 -0.16232)
(0.030129 0.117042 -0.164233)
(0.0361853 0.121895 -0.161933)
(0.0410277 0.124531 -0.156153)
(0.0449312 0.125164 -0.147135)
(0.0480531 0.123373 -0.135012)
(0.050458 0.118356 -0.119973)
(0.0521842 0.108885 -0.102181)
(0.053245 0.0932404 -0.0819867)
(0.053507 0.0709206 -0.0612403)
(0.0527253 0.0462066 -0.0440327)
(0.0511984 0.0258465 -0.0331419)
(0.0494838 0.0113129 -0.0267961)
(0.0476155 0.000910886 -0.0225747)
(0.0454823 -0.00642615 -0.0195859)
(0.0431749 -0.0111364 -0.0176723)
(0.0407059 -0.0135392 -0.0165911)
(0.0380533 -0.0139354 -0.0160439)
(0.0351706 -0.0125834 -0.0157124)
(0.0321118 -0.00965127 -0.0152872)
(0.0287891 -0.00489663 -0.0144244)
(0.025018 0.00241462 -0.0127774)
(0.0208534 0.0134632 -0.0100341)
(0.0163847 0.0312287 -0.00572429)
(0.0115503 0.0637029 0.000766951)
(0.00668017 0.130828 0.0083836)
(0.00352554 0.24159 0.00967127)
(0.00114601 0.307863 0.00610491)
(-0.00857551 -0.0741795 0.0389846)
(-0.0226004 -0.0982061 0.0524561)
(-0.0301873 -0.103842 0.0552922)
(-0.0343292 -0.0995908 0.0513847)
(-0.0333407 -0.0799511 0.0363042)
(-0.0236777 -0.0465039 0.0109913)
(-0.0110836 -0.0166413 -0.0114164)
(0.00177115 0.00723957 -0.0289146)
(0.0144206 0.0266952 -0.0424347)
(0.0263773 0.0423189 -0.052401)
(0.0372203 0.0541273 -0.0589732)
(0.0467403 0.0620119 -0.0620356)
(0.0549933 0.0661161 -0.0618039)
(0.062081 0.0665713 -0.0586299)
(0.0680755 0.0633387 -0.0529265)
(0.0727997 0.0567463 -0.0455711)
(0.0756926 0.0488808 -0.038351)
(0.0767704 0.0417551 -0.032302)
(0.0763442 0.0359385 -0.0271753)
(0.0746036 0.0314452 -0.022827)
(0.0719417 0.0283942 -0.0194884)
(0.0687008 0.026763 -0.0172781)
(0.0650452 0.0264619 -0.0161576)
(0.0611299 0.0274051 -0.0159425)
(0.057055 0.0295334 -0.0163227)
(0.0528393 0.0328181 -0.0169126)
(0.0485406 0.0372916 -0.0173092)
(0.0440938 0.0432435 -0.0171069)
(0.039301 0.051169 -0.0159165)
(0.0341202 0.0619379 -0.0133515)
(0.0284963 0.0776506 -0.00886206)
(0.0221995 0.10416 -0.00140909)
(0.0147132 0.15762 0.010046)
(0.00778121 0.250925 0.0210816)
(0.00252955 0.315599 0.0231305)
(-0.00920008 -0.0817389 0.172914)
(-0.0153306 -0.107472 0.19755)
(-0.0206917 -0.119176 0.190457)
(-0.0231628 -0.125072 0.174988)
(-0.0211018 -0.124242 0.155527)
(-0.0151763 -0.115579 0.135903)
(-0.00658616 -0.0996643 0.116874)
(0.00321856 -0.0797256 0.0980149)
(0.0130906 -0.0594206 0.0791406)
(0.0224669 -0.0410115 0.0603209)
(0.0311875 -0.0253397 0.0416692)
(0.0389908 -0.0127394 0.024083)
(0.0456368 -0.00287913 0.00846533)
(0.0512025 0.00472178 -0.00498398)
(0.055905 0.0104193 -0.0166251)
(0.0591252 0.0145489 -0.0256765)
(0.0608473 0.0183688 -0.0324534)
(0.0610836 0.0226477 -0.0371755)
(0.0598952 0.027385 -0.0399144)
(0.0577272 0.0324393 -0.0410142)
(0.0549008 0.0376235 -0.0409813)
(0.0516428 0.0428572 -0.0403438)
(0.048104 0.0481482 -0.0395867)
(0.0444319 0.0535625 -0.0390494)
(0.0407526 0.0592129 -0.0388667)
(0.0371311 0.0652552 -0.0389588)
(0.0336275 0.071901 -0.0390871)
(0.030256 0.0795851 -0.0389121)
(0.0268986 0.089193 -0.0379686)
(0.023416 0.102238 -0.035607)
(0.0196698 0.121551 -0.0307901)
(0.01533 0.153656 -0.0215676)
(0.00985232 0.211168 -0.00583069)
(0.00453593 0.291696 0.0111248)
(0.000640431 0.335318 0.0197077)
(-0.00817675 -0.0362541 0.142124)
(-0.00945102 -0.112765 0.170543)
(-0.00605089 -0.177919 0.152796)
(0.00226791 -0.221888 0.137429)
(0.0126529 -0.242411 0.130779)
(0.0237102 -0.24428 0.130284)
(0.0343839 -0.22979 0.133536)
(0.04377 -0.201846 0.138171)
(0.0514317 -0.165545 0.142401)
(0.0573954 -0.125876 0.145513)
(0.061792 -0.0871621 0.146775)
(0.0648663 -0.0537529 0.14533)
(0.0665755 -0.0299646 0.141688)
(0.0671077 -0.0177206 0.139906)
(0.0670919 -0.0120329 0.132084)
(0.0681778 0.00103692 0.0955996)
(0.0682467 0.0194724 0.0485375)
(0.0657153 0.0346815 0.0132443)
(0.0625275 0.045428 -0.00784383)
(0.0595396 0.0542899 -0.0204284)
(0.0564159 0.0631516 -0.0287647)
(0.0529708 0.0723545 -0.0344055)
(0.049393 0.0815135 -0.0380505)
(0.0457541 0.0904477 -0.0403742)
(0.0421094 0.0991234 -0.0419531)
(0.0385078 0.107629 -0.043171)
(0.0350655 0.116184 -0.0442091)
(0.0317803 0.125407 -0.0450429)
(0.0285196 0.13627 -0.0454701)
(0.025215 0.150082 -0.0450671)
(0.0217426 0.169294 -0.0430462)
(0.0178133 0.199539 -0.0377171)
(0.0128368 0.251369 -0.026182)
(0.00788228 0.318497 -0.0104557)
(0.00274682 0.346157 0.00422505)
(0.00146087 -0.091179 0.075877)
(0.0213806 -0.240254 0.0575776)
(0.0405653 -0.326553 0.0331222)
(0.0582449 -0.366408 0.0175984)
(0.0728414 -0.378029 0.00885842)
(0.0844856 -0.370477 0.00376624)
(0.0932935 -0.346745 -0.000889436)
(0.098586 -0.311775 -0.00809823)
(0.100116 -0.273087 -0.0162471)
(0.098875 -0.234738 -0.0197519)
(0.0953527 -0.198117 -0.0131755)
(0.0895428 -0.168292 0.00623943)
(0.082581 -0.133784 0.0150359)
(0.0723786 -0.104658 0.101561)
(0.0527979 -0.102878 0.207245)
(0.039142 -0.0673266 0.155341)
(0.0334633 -0.0131395 0.0506316)
(0.0294847 0.0198919 -0.00672419)
(0.027155 0.036531 -0.0277258)
(0.0255368 0.0491522 -0.0373794)
(0.0240011 0.0613861 -0.042899)
(0.0226358 0.0736831 -0.0458841)
(0.0214921 0.08585 -0.047124)
(0.020466 0.0977859 -0.0473183)
(0.0194912 0.109469 -0.0470245)
(0.0185359 0.120976 -0.0466198)
(0.0175759 0.132479 -0.0462824)
(0.0165838 0.144494 -0.0459577)
(0.0154382 0.158195 -0.0454199)
(0.0139791 0.175246 -0.0443708)
(0.0120878 0.198175 -0.0423263)
(0.00954769 0.233002 -0.0381423)
(0.00604876 0.288796 -0.0297478)
(0.00306327 0.350002 -0.0183175)
(0.000894985 0.365838 -0.00543008)
(0.0073855 -0.207441 0.0072061)
(0.0220531 -0.380384 0.00494644)
(0.0269553 -0.427561 0.0160063)
(0.0268034 -0.427328 0.0274204)
(0.0245238 -0.40655 0.0378691)
(0.0201065 -0.360346 0.0478121)
(0.0136974 -0.282807 0.0481804)
(0.0053755 -0.191169 0.0253167)
(-0.00417764 -0.113691 -0.0100332)
(-0.0122709 -0.055088 -0.0280573)
(-0.0197208 0.00747152 -0.00848293)
(-0.0285805 0.0801646 0.0487821)
(-0.033749 0.100953 0.0424485)
(-0.0387869 0.0880056 -0.00621396)
(-0.0435208 0.0658814 -0.0410561)
(-0.0449303 0.0565334 -0.0490821)
(-0.0450601 0.0548352 -0.0539215)
(-0.0438797 0.0574801 -0.0588048)
(-0.0416268 0.0629799 -0.0631827)
(-0.0391285 0.0706931 -0.0666827)
(-0.0366093 0.0801508 -0.0691711)
(-0.0339857 0.0909356 -0.0706436)
(-0.0311266 0.103076 -0.0712725)
(-0.027902 0.116568 -0.071208)
(-0.02438 0.130947 -0.0706391)
(-0.0206602 0.145932 -0.0697789)
(-0.0168878 0.161667 -0.0687336)
(-0.0132221 0.178763 -0.0674412)
(-0.0098154 0.198305 -0.065607)
(-0.00685006 0.221917 -0.062677)
(-0.00452507 0.252169 -0.0577186)
(-0.00303512 0.292714 -0.0495283)
(-0.00237401 0.343916 -0.0377964)
(-0.00202655 0.383733 -0.0264138)
(-0.00145222 0.377254 -0.0140778)
(0.00187343 -0.300234 0.0411581)
(-0.00448679 -0.399389 0.0525268)
(-0.0107676 -0.408602 0.0513371)
(-0.0161132 -0.400493 0.0501999)
(-0.0209947 -0.375791 0.0524048)
(-0.0229158 -0.328427 0.0605483)
(-0.0200999 -0.262704 0.0715362)
(-0.0141417 -0.190333 0.0747283)
(-0.00847773 -0.128503 0.0627593)
(-0.00446733 -0.0908836 0.043841)
(-0.000645858 -0.0704692 0.0284026)
(0.00522307 -0.0544119 0.019144)
(0.0136574 -0.0392831 0.0139629)
(0.0214987 -0.0276805 0.00782608)
(0.0266603 -0.0191973 0.00209272)
(0.0294775 -0.011374 -0.0028239)
(0.030747 -0.00269041 -0.00737952)
(0.0309273 0.00682592 -0.0119311)
(0.0300176 0.0165718 -0.0168574)
(0.0281197 0.0261523 -0.0224016)
(0.025366 0.0355557 -0.0285995)
(0.0219809 0.0450086 -0.0352355)
(0.0184037 0.0549853 -0.04191)
(0.015033 0.0662723 -0.0481983)
(0.0121596 0.0797948 -0.0537328)
(0.00989727 0.0964841 -0.0583239)
(0.00824947 0.117025 -0.0618071)
(0.00719201 0.141508 -0.0638903)
(0.00655782 0.169828 -0.0643462)
(0.00609509 0.20283 -0.0630141)
(0.00553788 0.243376 -0.0592904)
(0.00473136 0.295804 -0.0517476)
(0.00376229 0.356668 -0.0397677)
(0.00270044 0.394837 -0.0283657)
(0.00161801 0.37919 -0.0146174)
(-0.00586369 -0.242222 -0.00399666)
(-0.0089652 -0.364153 -0.0312779)
(-0.00862327 -0.399827 -0.0363471)
(-0.00674678 -0.412498 -0.0361677)
(-0.00341019 -0.416346 -0.0332261)
(0.00186238 -0.412626 -0.0270225)
(0.00990447 -0.393521 -0.0156181)
(0.0208887 -0.341527 0.00186933)
(0.0331269 -0.249885 0.0164182)
(0.0425372 -0.153279 0.0179199)
(0.0463345 -0.0831874 0.0132821)
(0.0469557 -0.039837 0.00924541)
(0.046981 -0.0135712 0.00676405)
(0.0471229 0.0044452 0.00534303)
(0.0472355 0.0192888 0.00452869)
(0.0472381 0.033185 0.00402804)
(0.047076 0.0471029 0.0036122)
(0.0465005 0.0614171 0.0030582)
(0.0452833 0.0763029 0.00211139)
(0.0432113 0.0917312 0.00046427)
(0.0400767 0.107223 -0.00221233)
(0.0357758 0.121766 -0.00613528)
(0.0304439 0.134377 -0.0113517)
(0.0244233 0.145026 -0.018055)
(0.0183663 0.155066 -0.02645)
(0.0131885 0.166184 -0.0338356)
(0.00932043 0.179806 -0.0381149)
(0.00643827 0.197896 -0.0405724)
(0.00411696 0.222458 -0.0427709)
(0.00225858 0.254882 -0.044776)
(0.000847005 0.296488 -0.0452623)
(-0.000171698 0.347951 -0.0421462)
(-0.000546682 0.401123 -0.0342677)
(-0.000409496 0.42953 -0.0248881)
(-0.000105784 0.398963 -0.0115729)
(0.002436 -0.244481 0.0124454)
(0.00807219 -0.400332 0.0233168)
(0.00965369 -0.444483 0.0255625)
(0.00971152 -0.456114 0.0262509)
(0.00870064 -0.455202 0.0272852)
(0.00659737 -0.44552 0.0298887)
(0.00356852 -0.42619 0.0358556)
(0.000591062 -0.387387 0.0481086)
(0.00147639 -0.306885 0.0631322)
(0.0071828 -0.197079 0.0596463)
(0.0121108 -0.112533 0.0367922)
(0.0148352 -0.068578 0.0156048)
(0.0166665 -0.0473065 0.0033747)
(0.0182597 -0.0338644 -0.00321089)
(0.0199298 -0.0219567 -0.00704549)
(0.0218949 -0.0090765 -0.00917238)
(0.0241366 0.00567722 -0.00982298)
(0.0264072 0.0223884 -0.00916381)
(0.0284229 0.0409293 -0.00750554)
(0.0299512 0.0612498 -0.00524082)
(0.0308073 0.0831687 -0.00284147)
(0.0308517 0.105776 -0.000890994)
(0.0300522 0.12714 0.000210336)
(0.0285895 0.145505 0.00177482)
(0.0266497 0.156856 0.0136885)
(0.0248065 0.162814 0.0269662)
(0.0220791 0.175305 0.0221951)
(0.0183112 0.196944 0.00777247)
(0.0146441 0.225134 -0.0058754)
(0.0115393 0.260052 -0.0157938)
(0.00889787 0.305709 -0.0217862)
(0.00655015 0.36516 -0.0229912)
(0.00448791 0.42559 -0.0188839)
(0.00313578 0.453652 -0.0129882)
(0.00180958 0.417768 -0.00434013)
(0.00143048 -0.301822 -0.00264934)
(-0.000623941 -0.410382 -0.0255204)
(-0.00262356 -0.425341 -0.0381833)
(-0.00471988 -0.421692 -0.0460386)
(-0.00650002 -0.409111 -0.0515033)
(-0.00781945 -0.390503 -0.0532429)
(-0.00887222 -0.368523 -0.0488147)
(-0.00973535 -0.343662 -0.0338375)
(-0.0093091 -0.307233 -0.00337465)
(-0.00445218 -0.236555 0.0319213)
(0.00408288 -0.145515 0.0463205)
(0.0111856 -0.0758005 0.0381687)
(0.0145373 -0.0377012 0.0234495)
(0.0153838 -0.0189089 0.0117242)
(0.0151981 -0.0076283 0.00382177)
(0.0147633 0.00195666 -0.00168783)
(0.0144584 0.0125225 -0.00575008)
(0.0145056 0.0255816 -0.00861255)
(0.0149714 0.0419301 -0.0100225)
(0.0157763 0.0613918 -0.00947803)
(0.0167881 0.0826691 -0.00652134)
(0.017933 0.103936 -0.000718345)
(0.0191582 0.123872 0.00971664)
(0.0209524 0.138917 0.0351124)
(0.0213906 0.141828 0.0864964)
(0.0205614 0.160522 0.0895596)
(0.0179885 0.193612 0.0533245)
(0.0137445 0.229389 0.0138382)
(0.00925264 0.262012 -0.0105443)
(0.00517578 0.29653 -0.0232595)
(0.00155758 0.341226 -0.0284998)
(-0.0010377 0.400364 -0.0273909)
(-0.00186633 0.456722 -0.0220009)
(-0.00172025 0.479635 -0.0168883)
(-0.00117401 0.438692 -0.01005)
(-0.00596463 -0.257986 0.00858004)
(-0.010111 -0.388126 0.0108195)
(-0.0109535 -0.422866 0.012826)
(-0.0103695 -0.434191 0.0135079)
(-0.0088656 -0.435361 0.0128268)
(-0.00651347 -0.427186 0.00957396)
(-0.00350681 -0.407593 0.00223195)
(-0.00048473 -0.377501 -0.00895357)
(0.00201215 -0.342324 -0.0193301)
(0.00487216 -0.301332 -0.0191582)
(0.0106976 -0.23968 -0.00240717)
(0.0195002 -0.160499 0.0162063)
(0.0271972 -0.0903901 0.0228838)
(0.030458 -0.0462973 0.0193387)
(0.0298881 -0.023356 0.0129058)
(0.0275293 -0.0095947 0.0070537)
(0.0244706 0.0019233 0.00225666)
(0.0213259 0.0141459 -0.00143009)
(0.0185256 0.0284704 -0.00376929)
(0.0162658 0.0455339 -0.00423553)
(0.0146019 0.064724 -0.00193933)
(0.0134668 0.0839731 0.00445871)
(0.0126753 0.101088 0.0183409)
(0.0117616 0.112616 0.0498543)
(0.00863129 0.123288 0.0933025)
(0.00496001 0.155895 0.0978726)
(0.00212473 0.205029 0.0649437)
(-0.000434194 0.256217 0.0193501)
(-0.00314063 0.299792 -0.0148524)
(-0.0059807 0.340416 -0.0343976)
(-0.00851977 0.385239 -0.0429956)
(-0.00958767 0.435851 -0.0432364)
(-0.00835213 0.477814 -0.0386163)
(-0.00609556 0.492724 -0.0327965)
(-0.00307485 0.436969 -0.0217773)
(0.00147024 -0.250493 -0.0180043)
(0.00801522 -0.409378 -0.0312523)
(0.0124397 -0.457452 -0.0345606)
(0.0154762 -0.471643 -0.0351038)
(0.0177389 -0.472836 -0.0346669)
(0.0193171 -0.464562 -0.0333307)
(0.0200318 -0.445972 -0.0307827)
(0.0197512 -0.41546 -0.0272386)
(0.0184782 -0.375081 -0.0242889)
(0.0165834 -0.331985 -0.0228825)
(0.015014 -0.287946 -0.018785)
(0.0160586 -0.23103 -0.00474258)
(0.0211002 -0.15292 0.0159679)
(0.026872 -0.0701708 0.0289256)
(0.0286853 -0.0103778 0.0277385)
(0.026352 0.0208641 0.0199723)
(0.0222112 0.0367092 0.0124612)
(0.0174564 0.0472493 0.00679789)
(0.0126412 0.0567658 0.00314369)
(0.00818481 0.0670726 0.00177352)
(0.0042313 0.079048 0.00339787)
(0.000776921 0.092638 0.00955315)
(-0.00231353 0.106414 0.0231213)
(-0.00573842 0.117884 0.0475184)
(-0.0100696 0.13004 0.0763665)
(-0.0138532 0.155244 0.0909575)
(-0.0154938 0.19859 0.0841617)
(-0.0149637 0.254406 0.057839)
(-0.01328 0.30929 0.0244185)
(-0.0114055 0.359394 -0.00438583)
(-0.00964066 0.406819 -0.024098)
(-0.00767755 0.449841 -0.033749)
(-0.00525277 0.479943 -0.0351186)
(-0.00282669 0.488366 -0.0313281)
(-0.000831454 0.41989 -0.0186255)
(0.00115171 -0.280114 -0.00803055)
(0.00638587 -0.417587 -0.0052875)
(0.0106087 -0.447102 -0.00466212)
(0.0140219 -0.451641 -0.00602648)
(0.0172548 -0.445153 -0.00905202)
(0.0201596 -0.427672 -0.0145281)
(0.0222191 -0.397301 -0.0233149)
(0.0231724 -0.35555 -0.0346119)
(0.0231127 -0.308188 -0.0452787)
(0.0220396 -0.263363 -0.0522413)
(0.0200917 -0.228267 -0.0544122)
(0.017829 -0.200672 -0.0507596)
(0.0166116 -0.167673 -0.0371179)
(0.0189841 -0.112043 -0.0119001)
(0.0237289 -0.0404498 0.0105194)
(0.0261654 0.0167462 0.017641)
(0.025112 0.0483375 0.014912)
(0.022311 0.0647065 0.0103297)
(0.0189281 0.0754019 0.00655392)
(0.0153347 0.0845272 0.00422347)
(0.0118137 0.0934208 0.00391906)
(0.00856715 0.102335 0.00648784)
(0.00557242 0.111041 0.0132128)
(0.00259702 0.118993 0.0258153)
(-0.000532446 0.126787 0.0438963)
(-0.0033204 0.139223 0.0620174)
(-0.00467322 0.163533 0.0745885)
(-0.00375903 0.205307 0.0767161)
(-0.00125363 0.260684 0.0651238)
(0.00127123 0.319701 0.0439228)
(0.00335583 0.380144 0.0213441)
(0.00457392 0.439281 0.00347775)
(0.00464421 0.482858 -0.00559352)
(0.00417112 0.497689 -0.00673435)
(0.00247355 0.433625 -0.00128496)
(0.00293453 -0.306396 -0.0119287)
(0.0109862 -0.470226 -0.00624197)
(0.0172434 -0.512779 -0.00246265)
(0.021917 -0.52198 -0.000645078)
(0.0257583 -0.517723 -0.000378503)
(0.0285505 -0.501316 -0.00213394)
(0.0294574 -0.470122 -0.00704314)
(0.0280655 -0.424939 -0.0153868)
(0.0253297 -0.370067 -0.0258031)
(0.0227961 -0.309112 -0.036466)
(0.0209233 -0.249905 -0.0453831)
(0.0193281 -0.202572 -0.0507234)
(0.0178505 -0.166828 -0.0511454)
(0.0167578 -0.131538 -0.0434251)
(0.0177229 -0.0793284 -0.0227814)
(0.0203658 -0.0128724 -0.00110673)
(0.0212728 0.0391544 0.00667558)
(0.0205805 0.0680378 0.00524444)
(0.0195619 0.0830374 0.00204788)
(0.0185203 0.0924891 -0.000544317)
(0.0173958 0.100128 -0.00208248)
(0.0161983 0.107036 -0.0021317)
(0.014984 0.113433 -0.000138913)
(0.0137203 0.119521 0.00470966)
(0.0123402 0.125675 0.0134302)
(0.0109186 0.133544 0.0265602)
(0.00986973 0.147988 0.0432876)
(0.00980251 0.178764 0.0606241)
(0.0107035 0.234993 0.0705523)
(0.0110583 0.307309 0.0637929)
(0.00989983 0.380862 0.0446725)
(0.00787817 0.452954 0.0247399)
(0.00551672 0.508033 0.0122634)
(0.0037175 0.527434 0.00761027)
(0.001727 0.468003 0.00631707)
(0.00382359 -0.347353 0.00023964)
(0.00986001 -0.477843 0.00779759)
(0.0132182 -0.496323 0.0075191)
(0.0154567 -0.492518 0.00553333)
(0.0171342 -0.474627 0.00144953)
(0.017471 -0.436603 -0.00720389)
(0.0156029 -0.375756 -0.0228983)
(0.0116514 -0.30836 -0.0420232)
(0.00724733 -0.254211 -0.0566902)
(0.0040018 -0.215542 -0.0640537)
(0.00243732 -0.184107 -0.0660863)
(0.00223798 -0.154684 -0.0648207)
(0.0026652 -0.126073 -0.0609626)
(0.00313409 -0.0958727 -0.0536175)
(0.00369219 -0.0580128 -0.039687)
(0.0054498 -0.0070589 -0.0195757)
(0.00792085 0.0396563 -0.00672138)
(0.0100649 0.0659953 -0.00385972)
(0.0118794 0.0796143 -0.00463618)
(0.0135117 0.0888731 -0.00628098)
(0.0149947 0.0968699 -0.00804126)
(0.0161802 0.104206 -0.00937277)
(0.0169667 0.110819 -0.00972244)
(0.0173327 0.116781 -0.0086751)
(0.0172964 0.122616 -0.0057643)
(0.0168625 0.129488 1.50167e-05)
(0.0160124 0.1403 0.0105789)
(0.0148284 0.163936 0.0284424)
(0.0137913 0.219024 0.0505174)
(0.0126556 0.309972 0.0600087)
(0.00976724 0.406523 0.0476501)
(0.00574287 0.488662 0.0276563)
(0.00282633 0.543279 0.0138691)
(0.00124304 0.560121 0.00702018)
(0.000360505 0.491684 0.00299412)
(0.00216627 -0.376794 0.0115522)
(0.00377293 -0.513826 0.0223794)
(0.00504864 -0.533795 0.024935)
(0.00567403 -0.529903 0.0253059)
(0.0058726 -0.510026 0.0236126)
(0.00523122 -0.467192 0.0172945)
(0.00354586 -0.40273 0.00298878)
(0.0011554 -0.334629 -0.017024)
(-0.000874291 -0.277499 -0.0353333)
(-0.00189127 -0.233623 -0.0477767)
(-0.0021368 -0.198795 -0.0545321)
(-0.0018718 -0.168226 -0.0568318)
(-0.00143766 -0.13847 -0.0553571)
(-0.00126344 -0.106751 -0.049904)
(-0.0016136 -0.0698714 -0.0393736)
(-0.00183469 -0.0261379 -0.0240414)
(-0.000648469 0.0156974 -0.0115752)
(0.00193406 0.0423372 -0.00731865)
(0.00476281 0.0575944 -0.00723644)
(0.00751952 0.0684438 -0.0085529)
(0.0102178 0.0779509 -0.010454)
(0.0127667 0.0870492 -0.0125436)
(0.0150542 0.0959737 -0.0144218)
(0.0169621 0.104899 -0.0156592)
(0.018366 0.114151 -0.0157141)
(0.0191241 0.124518 -0.0137585)
(0.0190105 0.138199 -0.00798485)
(0.0174766 0.16212 0.00541807)
(0.0141505 0.213936 0.0281673)
(0.00994071 0.308257 0.0468482)
(0.00518087 0.421559 0.0435841)
(0.000511493 0.514649 0.0264814)
(-0.00177814 0.566869 0.0130612)
(-0.00223188 0.579576 0.00530658)
(-0.00158747 0.498215 0.000871149)
(-0.00116948 -0.376077 0.0210044)
(-0.00456874 -0.488528 0.0271208)
(-0.00659547 -0.499324 0.0276566)
(-0.00827856 -0.489211 0.0273858)
(-0.00984303 -0.458976 0.0258671)
(-0.0102194 -0.40136 0.0205923)
(-0.00901546 -0.323804 0.00757889)
(-0.00769956 -0.252084 -0.0116816)
(-0.00725495 -0.203224 -0.0286562)
(-0.00730174 -0.172205 -0.039292)
(-0.00750333 -0.148577 -0.0449349)
(-0.00778732 -0.125533 -0.0469571)
(-0.00820166 -0.0990171 -0.045404)
(-0.00889994 -0.0670057 -0.0395663)
(-0.00999578 -0.031097 -0.0295384)
(-0.0108421 0.00124422 -0.0185624)
(-0.0101639 0.0220446 -0.0116752)
(-0.00844169 0.0341481 -0.00886072)
(-0.00612963 0.0435586 -0.00790606)
(-0.00337539 0.0523111 -0.0080479)
(-0.000546096 0.0605843 -0.00896772)
(0.00223032 0.0685971 -0.0103461)
(0.00494334 0.0767574 -0.0118958)
(0.00754602 0.0856763 -0.0133544)
(0.00986091 0.0962337 -0.0141958)
(0.0115957 0.110277 -0.0132947)
(0.0121896 0.13239 -0.00806634)
(0.0103993 0.172376 0.00558888)
(0.00474227 0.243005 0.0270621)
(-0.00320201 0.347556 0.0438529)
(-0.00999437 0.462543 0.0419465)
(-0.0134855 0.548555 0.0281052)
(-0.013322 0.588907 0.016937)
(-0.0105888 0.592248 0.00933724)
(-0.00526166 0.488549 0.00426719)
(-0.00224948 -0.354142 0.0193774)
(-0.00593325 -0.490197 0.0225644)
(-0.00837965 -0.511148 0.0245257)
(-0.00990699 -0.509814 0.0272288)
(-0.0107897 -0.495158 0.0318413)
(-0.0101578 -0.461474 0.0384172)
(-0.00731628 -0.400355 0.0425382)
(-0.00359194 -0.320669 0.0360003)
(-0.00172769 -0.248572 0.0195174)
(-0.00240042 -0.196332 0.00258345)
(-0.00465303 -0.158528 -0.00944028)
(-0.00782086 -0.127052 -0.0161172)
(-0.0116783 -0.0963659 -0.0178482)
(-0.0158347 -0.0633321 -0.0147979)
(-0.01925 -0.0287349 -0.0083545)
(-0.0208312 -0.000522811 -0.00240782)
(-0.0210376 0.0149028 0.000416852)
(-0.0207506 0.0240802 0.00159949)
(-0.0202295 0.0315478 0.00209206)
(-0.019594 0.038559 0.00209625)
(-0.0189253 0.0454102 0.00173254)
(-0.0182935 0.0524161 0.00113608)
(-0.0177692 0.0599972 0.000485094)
(-0.0174207 0.0692039 4.04525e-06)
(-0.0173953 0.0821828 0.000235991)
(-0.017974 0.102732 0.00289512)
(-0.019566 0.138298 0.0113507)
(-0.0223967 0.199091 0.0282687)
(-0.0261744 0.289682 0.0495206)
(-0.0299039 0.397653 0.0624327)
(-0.0318364 0.492245 0.0579537)
(-0.0301579 0.549793 0.0452527)
(-0.0255636 0.573004 0.0349498)
(-0.0181236 0.56209 0.0257303)
(-0.00598101 0.43123 0.0154099)
(-0.00204453 -0.34499 0.0158643)
(-0.00539501 -0.47063 0.0139235)
(-0.00806543 -0.490676 0.0134545)
(-0.0101364 -0.489419 0.0145237)
(-0.0119756 -0.475285 0.0175905)
(-0.0130262 -0.444494 0.0239884)
(-0.0125357 -0.388891 0.0340548)
(-0.00995342 -0.30609 0.0416691)
(-0.00725694 -0.217 0.0373648)
(-0.00713227 -0.14832 0.0238945)
(-0.00937167 -0.101004 0.0106594)
(-0.0128012 -0.0630226 0.0018511)
(-0.0169664 -0.0283552 -0.00191652)
(-0.0214875 -0.00097978 -0.00156668)
(-0.0252332 0.0148777 0.000443653)
(-0.0276641 0.0234206 0.00235972)
(-0.0295489 0.0297839 0.00397434)
(-0.0312232 0.0357864 0.00533359)
(-0.0327909 0.0416963 0.00643789)
(-0.0344193 0.0476895 0.00734589)
(-0.0361924 0.0539567 0.00813976)
(-0.0381595 0.0608381 0.00890202)
(-0.0404811 0.069059 0.00970682)
(-0.0432752 0.07947 0.0106946)
(-0.0465146 0.0930638 0.0121609)
(-0.0501401 0.112504 0.0150159)
(-0.0537289 0.14349 0.0214759)
(-0.0560741 0.194504 0.0345417)
(-0.0554655 0.271038 0.0540588)
(-0.0508438 0.365405 0.0726889)
(-0.0424385 0.451232 0.0801874)
(-0.0322294 0.500106 0.0756103)
(-0.0224802 0.512263 0.0668712)
(-0.0124052 0.493836 0.0568276)
(-0.000954254 0.363829 0.0372354)
(-0.00167613 -0.332545 0.0133805)
(-0.00512935 -0.471761 0.00800512)
(-0.00812158 -0.497509 0.00589267)
(-0.0106334 -0.500296 0.0058878)
(-0.0130395 -0.492379 0.0078496)
(-0.0149557 -0.473345 0.0129309)
(-0.0158017 -0.437461 0.0234573)
(-0.0143086 -0.374249 0.0403026)
(-0.00994546 -0.282781 0.0550253)
(-0.00572297 -0.18856 0.0559359)
(-0.00493551 -0.118167 0.0453053)
(-0.00737458 -0.0713463 0.0331718)
(-0.0111791 -0.034555 0.0248178)
(-0.0147552 -0.00140942 0.0204564)
(-0.0174003 0.0226446 0.0182187)
(-0.0194411 0.035542 0.0167878)
(-0.0212154 0.0429041 0.015836)
(-0.0229546 0.0486216 0.0151532)
(-0.0247167 0.0542463 0.014652)
(-0.0265359 0.0602911 0.0143357)
(-0.0284745 0.0670006 0.0142367)
(-0.0305945 0.0745639 0.0143927)
(-0.0329282 0.0832046 0.0148182)
(-0.0355174 0.0931625 0.0154741)
(-0.0383419 0.104803 0.0163307)
(-0.0412821 0.118862 0.0174508)
(-0.0439507 0.136966 0.0192223)
(-0.0454384 0.16228 0.0227415)
(-0.0442098 0.199006 0.0297614)
(-0.0388134 0.249026 0.0411673)
(-0.0290323 0.307887 0.0552367)
(-0.0162504 0.366514 0.0683774)
(-0.0052545 0.408626 0.0748782)
(0.00128956 0.414434 0.0725094)
(0.00372222 0.338722 0.0539347)
(-0.00220781 -0.320553 0.00696142)
(-0.0045101 -0.450987 -0.00215481)
(-0.00610328 -0.474885 -0.00597174)
(-0.00728591 -0.476697 -0.00792038)