/*--------------------------------*- C++ -*----------------------------------*\
| =========                 |                                                 |
| \\      /  F ield         | OpenFOAM: The Open Source CFD Toolbox           |
|  \\    /   O peration     | Version:  v1912                                 |
|   \\  /    A nd           | Website:  www.openfoam.com                      |
|    \\/     M anipulation  |                                                 |
\*---------------------------------------------------------------------------*/
FoamFile
{
    version     2.0;
    format      ascii;
    class       volVectorField;
    location    "388/oil";
    object      U;
}
// * * * * * * * * * * * * * * * * * * * * * * * * * * * * * * * * * * * * * //

dimensions      [0 1 -1 0 0 0 0];


internalField   nonuniform List<vector> 
35580
(
(-1.2287e-09 2.44622e-09 -1.25292e-09)
(1.25344e-09 2.22328e-09 -3.00949e-09)
(1.15455e-08 2.19278e-09 -4.84065e-09)
(2.77549e-08 2.73831e-09 -6.6947e-09)
(4.74622e-08 3.60933e-09 -8.18784e-09)
(6.79082e-08 4.63505e-09 -9.19306e-09)
(8.65404e-08 5.71772e-09 -9.70058e-09)
(1.01143e-07 6.81137e-09 -9.76742e-09)
(1.09905e-07 7.88779e-09 -9.47991e-09)
(1.11622e-07 8.91855e-09 -8.91906e-09)
(1.05635e-07 9.84964e-09 -8.15873e-09)
(9.19933e-08 1.06376e-08 -7.39976e-09)
(7.1526e-08 1.12549e-08 -6.69471e-09)
(4.55162e-08 1.1724e-08 -6.19199e-09)
(1.59672e-08 1.19823e-08 -5.929e-09)
(-1.48732e-08 1.20134e-08 -5.93428e-09)
(-4.45122e-08 1.17434e-08 -6.1917e-09)
(-7.05776e-08 1.12662e-08 -6.6795e-09)
(-9.1173e-08 1.06099e-08 -7.35396e-09)
(-1.04943e-07 9.837e-09 -8.12344e-09)
(-1.11146e-07 8.92136e-09 -8.87576e-09)
(-1.096e-07 7.87812e-09 -9.46181e-09)
(-1.00941e-07 6.80102e-09 -9.74856e-09)
(-8.64352e-08 5.71023e-09 -9.69103e-09)
(-6.78738e-08 4.62721e-09 -9.18557e-09)
(-4.74849e-08 3.60464e-09 -8.18087e-09)
(-2.78123e-08 2.73405e-09 -6.68388e-09)
(-1.16111e-08 2.1822e-09 -4.8194e-09)
(-1.30948e-09 2.20077e-09 -2.98304e-09)
(1.20345e-09 2.40017e-09 -1.23374e-09)
(6.31439e-10 -2.29483e-09 6.16918e-10)
(1.26744e-08 -1.40267e-08 5.32514e-10)
(3.69266e-08 -2.33909e-08 -3.16468e-10)
(7.07167e-08 -2.84721e-08 -1.42649e-09)
(1.10035e-07 -3.00832e-08 -2.24549e-09)
(1.50161e-07 -2.90916e-08 -2.52794e-09)
(1.86362e-07 -2.62135e-08 -2.21672e-09)
(2.14373e-07 -2.19859e-08 -1.35426e-09)
(2.30658e-07 -1.68642e-08 -4.30843e-11)
(2.32732e-07 -1.12757e-08 1.56585e-09)
(2.1923e-07 -5.66752e-09 3.44892e-09)
(1.90179e-07 -5.24393e-10 5.2148e-09)
(1.47383e-07 3.71903e-09 6.76658e-09)
(9.36542e-08 6.81836e-09 7.88074e-09)
(3.28298e-08 8.46285e-09 8.46889e-09)
(-3.06227e-08 8.49793e-09 8.48801e-09)
(-9.16508e-08 6.78622e-09 7.90808e-09)
(-1.45476e-07 3.6255e-09 6.82818e-09)
(-1.88289e-07 -7.10736e-10 5.31577e-09)
(-2.1743e-07 -5.79617e-09 3.55142e-09)
(-2.31301e-07 -1.13965e-08 1.69985e-09)
(-2.29539e-07 -1.69758e-08 5.01694e-11)
(-2.13508e-07 -2.20618e-08 -1.26628e-09)
(-1.8578e-07 -2.62612e-08 -2.14727e-09)
(-1.49824e-07 -2.91389e-08 -2.46982e-09)
(-1.09896e-07 -3.01475e-08 -2.19329e-09)
(-7.07201e-08 -2.85708e-08 -1.3841e-09)
(-3.69822e-08 -2.35266e-08 -2.80021e-10)
(-1.27083e-08 -1.41668e-08 5.52799e-10)
(-6.38018e-10 -2.41296e-09 6.06992e-10)
(2.4761e-09 -2.26177e-08 2.47327e-09)
(2.48751e-08 -5.98852e-08 4.38097e-09)
(6.08924e-08 -8.74896e-08 4.78361e-09)
(1.0721e-07 -1.05046e-07 4.72374e-09)
(1.58956e-07 -1.14393e-07 4.81802e-09)
(2.10722e-07 -1.17301e-07 5.35075e-09)
(2.56824e-07 -1.15298e-07 6.42336e-09)
(2.91983e-07 -1.09631e-07 8.02661e-09)
(3.11761e-07 -1.01379e-07 1.00604e-08)
(3.13e-07 -9.15461e-08 1.23454e-08)
(2.93884e-07 -8.11384e-08 1.48669e-08)
(2.54356e-07 -7.12399e-08 1.72023e-08)
(1.96782e-07 -6.29356e-08 1.91774e-08)
(1.24904e-07 -5.69208e-08 2.06055e-08)
(4.37528e-08 -5.37394e-08 2.13639e-08)
(-4.09103e-08 -5.37522e-08 2.14141e-08)
(-1.22389e-07 -5.70783e-08 2.06442e-08)
(-1.9439e-07 -6.32768e-08 1.92352e-08)
(-2.51914e-07 -7.17062e-08 1.72603e-08)
(-2.91643e-07 -8.1538e-08 1.49665e-08)
(-3.11235e-07 -9.19075e-08 1.24707e-08)
(-3.10369e-07 -1.01649e-07 1.01425e-08)
(-2.90919e-07 -1.09816e-07 8.10512e-09)
(-2.56095e-07 -1.15427e-07 6.49509e-09)
(-2.10296e-07 -1.17414e-07 5.41533e-09)
(-1.58774e-07 -1.14534e-07 4.88159e-09)
(-1.07193e-07 -1.05248e-07 4.77773e-09)
(-6.09428e-08 -8.77536e-08 4.82061e-09)
(-2.49263e-08 -6.01359e-08 4.38606e-09)
(-2.4974e-09 -2.27742e-08 2.44882e-09)
(3.95851e-09 -5.60756e-08 3.94837e-09)
(3.51047e-08 -1.30714e-07 7.31797e-09)
(8.09661e-08 -1.83276e-07 8.57783e-09)
(1.37147e-07 -2.18178e-07 9.22177e-09)
(1.98022e-07 -2.39113e-07 9.97251e-09)
(2.57793e-07 -2.48959e-07 1.11088e-08)
(3.10324e-07 -2.50142e-07 1.27414e-08)
(3.4985e-07 -2.44683e-07 1.48717e-08)
(3.71435e-07 -2.34397e-07 1.74074e-08)
(3.71495e-07 -2.20977e-07 2.0164e-08)
(3.47894e-07 -2.06129e-07 2.30778e-08)
(3.00587e-07 -1.91488e-07 2.57818e-08)
(2.32317e-07 -1.78906e-07 2.80864e-08)
(1.47291e-07 -1.69657e-07 2.97133e-08)
(5.15494e-08 -1.64784e-07 3.05648e-08)
(-4.83371e-08 -1.64856e-07 3.06287e-08)
(-1.44506e-07 -1.69862e-07 2.97308e-08)
(-2.29595e-07 -1.79249e-07 2.80986e-08)
(-2.97818e-07 -1.91861e-07 2.58089e-08)
(-3.45351e-07 -2.06445e-07 2.31445e-08)
(-3.69402e-07 -2.21262e-07 2.0224e-08)
(-3.69742e-07 -2.34604e-07 1.7441e-08)
(-3.48542e-07 -2.44826e-07 1.4909e-08)
(-3.0939e-07 -2.5024e-07 1.27802e-08)
(-2.57202e-07 -2.4906e-07 1.11525e-08)
(-1.97736e-07 -2.3927e-07 1.00242e-08)
(-1.37081e-07 -2.18425e-07 9.26093e-09)
(-8.09984e-08 -1.83585e-07 8.58827e-09)
(-3.51698e-08 -1.30977e-07 7.29371e-09)
(-3.99439e-09 -5.62791e-08 3.90845e-09)
(5.00843e-09 -9.98626e-08 4.99653e-09)
(4.28276e-08 -2.21221e-07 9.3487e-09)
(9.6441e-08 -3.03821e-07 1.11508e-08)
(1.60342e-07 -3.59428e-07 1.22347e-08)
(2.28172e-07 -3.94597e-07 1.33932e-08)
(2.93844e-07 -4.13629e-07 1.4944e-08)
(3.50951e-07 -4.19941e-07 1.69814e-08)
(3.9348e-07 -4.16356e-07 1.95207e-08)
(4.16211e-07 -4.05423e-07 2.2467e-08)
(4.15304e-07 -3.89539e-07 2.56393e-08)
(3.88421e-07 -3.71112e-07 2.88886e-08)
(3.3541e-07 -3.52332e-07 3.19329e-08)
(2.59085e-07 -3.35774e-07 3.4554e-08)
(1.64148e-07 -3.23338e-07 3.63649e-08)
(5.74238e-08 -3.16808e-07 3.73119e-08)
(-5.39237e-08 -3.16914e-07 3.73894e-08)
(-1.61138e-07 -3.23504e-07 3.63883e-08)
(-2.56017e-07 -3.35895e-07 3.45579e-08)
(-3.32342e-07 -3.52431e-07 3.19898e-08)
(-3.85639e-07 -3.71173e-07 2.89556e-08)
(-4.12995e-07 -3.89597e-07 2.56883e-08)
(-4.14352e-07 -4.05466e-07 2.25036e-08)
(-3.92037e-07 -4.16403e-07 1.95615e-08)
(-3.499e-07 -4.19993e-07 1.70222e-08)
(-2.93143e-07 -4.13718e-07 1.49803e-08)
(-2.2779e-07 -3.94748e-07 1.34292e-08)
(-1.60217e-07 -3.59677e-07 1.22467e-08)
(-9.64583e-08 -3.04104e-07 1.11221e-08)
(-4.29143e-08 -2.21376e-07 9.27367e-09)
(-5.06567e-09 -1.00101e-07 4.93307e-09)
(5.67952e-09 -1.50994e-07 5.69371e-09)
(4.81174e-08 -3.25893e-07 1.06538e-08)
(1.07345e-07 -4.42325e-07 1.27614e-08)
(1.76892e-07 -5.21053e-07 1.41019e-08)
(2.49781e-07 -5.72311e-07 1.55122e-08)
(3.1972e-07 -6.02223e-07 1.7341e-08)
(3.80143e-07 -6.1531e-07 1.96867e-08)
(4.2489e-07 -6.15209e-07 2.25766e-08)
(4.48559e-07 -6.05175e-07 2.59055e-08)
(4.47106e-07 -5.88263e-07 2.94977e-08)
(4.18115e-07 -5.6754e-07 3.31232e-08)
(3.61221e-07 -5.45803e-07 3.6572e-08)
(2.78985e-07 -5.2607e-07 3.95369e-08)
(1.76706e-07 -5.109e-07 4.1577e-08)
(6.17766e-08 -5.02905e-07 4.26274e-08)
(-5.80806e-08 -5.02996e-07 4.27003e-08)
(-1.73554e-07 -5.11042e-07 4.15849e-08)
(-2.75676e-07 -5.25978e-07 3.95362e-08)
(-3.5793e-07 -5.45749e-07 3.66626e-08)
(-4.15165e-07 -5.67471e-07 3.32096e-08)
(-4.44665e-07 -5.88197e-07 2.95653e-08)
(-4.46601e-07 -6.05128e-07 2.59636e-08)
(-4.23371e-07 -6.15205e-07 2.26331e-08)
(-3.79033e-07 -6.15342e-07 1.97484e-08)
(-3.1896e-07 -6.02307e-07 1.73878e-08)
(-2.49332e-07 -5.72444e-07 1.55491e-08)
(-1.7671e-07 -5.2125e-07 1.40985e-08)
(-1.07346e-07 -4.42511e-07 1.26986e-08)
(-4.8238e-08 -3.25892e-07 1.05326e-08)
(-5.76391e-09 -1.51257e-07 5.60843e-09)
(6.06307e-09 -2.06792e-07 6.0841e-09)
(5.12441e-08 -4.3984e-07 1.13733e-08)
(1.13903e-07 -5.92682e-07 1.36635e-08)
(1.86918e-07 -6.96181e-07 1.51463e-08)
(2.62926e-07 -7.64908e-07 1.6714e-08)
(3.35506e-07 -8.07108e-07 1.87546e-08)
(3.98042e-07 -8.28535e-07 2.13595e-08)
(4.44308e-07 -8.33654e-07 2.45718e-08)
(4.68792e-07 -8.26373e-07 2.82725e-08)
(4.67291e-07 -8.10313e-07 3.22866e-08)
(4.37297e-07 -7.89083e-07 3.63291e-08)
(3.78211e-07 -7.6607e-07 4.01918e-08)
(2.92255e-07 -7.44545e-07 4.35409e-08)
(1.85112e-07 -7.27401e-07 4.58309e-08)
(6.46705e-08 -7.1824e-07 4.69622e-08)
(-6.08359e-08 -7.18282e-07 4.70373e-08)
(-1.81883e-07 -7.27594e-07 4.58165e-08)
(-2.88841e-07 -7.44365e-07 4.35566e-08)
(-3.74809e-07 -7.66009e-07 4.03216e-08)
(-4.34263e-07 -7.89018e-07 3.64508e-08)
(-4.64793e-07 -8.10244e-07 3.23851e-08)
(-4.66799e-07 -8.26333e-07 2.83571e-08)
(-4.42761e-07 -8.33666e-07 2.46466e-08)
(-3.9691e-07 -8.28583e-07 2.14356e-08)
(-3.34721e-07 -8.07189e-07 1.88065e-08)
(-2.62438e-07 -7.65006e-07 1.67536e-08)
(-1.86693e-07 -6.96279e-07 1.51257e-08)
(-1.1388e-07 -5.92661e-07 1.35606e-08)
(-5.13755e-08 -4.39594e-07 1.12218e-08)
(-6.15581e-09 -2.07122e-07 5.99337e-09)
(6.17934e-09 -2.64855e-07 6.22559e-09)
(5.23294e-08 -5.58481e-07 1.16304e-08)
(1.16201e-07 -7.49088e-07 1.39972e-08)
(1.90368e-07 -8.78308e-07 1.55568e-08)
(2.67348e-07 -9.655e-07 1.72173e-08)
(3.40731e-07 -1.02125e-06 1.94073e-08)
(4.0397e-07 -1.05262e-06 2.22365e-08)
(4.50898e-07 -1.0649e-06 2.57411e-08)
(4.75977e-07 -1.06256e-06 2.97968e-08)
(4.74887e-07 -1.04969e-06 3.42316e-08)
(4.45e-07 -1.03033e-06 3.87246e-08)
(3.8549e-07 -1.00824e-06 4.29825e-08)
(2.98087e-07 -9.86744e-07 4.67378e-08)
(1.88692e-07 -9.68551e-07 4.93004e-08)
(6.58605e-08 -9.58818e-07 5.05467e-08)
(-6.20936e-08 -9.59027e-07 5.06706e-08)
(-1.85564e-07 -9.6907e-07 4.93067e-08)
(-2.94737e-07 -9.86703e-07 4.67975e-08)
(-3.82085e-07 -1.0083e-06 4.31185e-08)
(-4.4197e-07 -1.03037e-06 3.88384e-08)
(-4.72375e-07 -1.0497e-06 3.43273e-08)
(-4.7397e-07 -1.06259e-06 2.98804e-08)
(-4.49333e-07 -1.06498e-06 2.58136e-08)
(-4.02807e-07 -1.05274e-06 2.23135e-08)
(-3.39904e-07 -1.02139e-06 1.94614e-08)
(-2.66814e-07 -9.65614e-07 1.7238e-08)
(-1.90097e-07 -8.78323e-07 1.54978e-08)
(-1.16148e-07 -7.48833e-07 1.38644e-08)
(-5.24537e-08 -5.57973e-07 1.14775e-08)
(-6.28006e-09 -2.65347e-07 6.14594e-09)
(6.07939e-09 -3.23043e-07 6.12491e-09)
(5.14636e-08 -6.77368e-07 1.14341e-08)
(1.142e-07 -9.05942e-07 1.37869e-08)
(1.86967e-07 -1.06115e-06 1.5401e-08)
(2.62459e-07 -1.16726e-06 1.71221e-08)
(3.34476e-07 -1.23753e-06 1.93741e-08)
(3.96673e-07 -1.28035e-06 2.23416e-08)
(4.43086e-07 -1.30177e-06 2.60559e-08)
(4.68286e-07 -1.30674e-06 3.03852e-08)
(4.67897e-07 -1.29965e-06 3.51665e-08)
(4.39169e-07 -1.28476e-06 4.00519e-08)
(3.81152e-07 -1.26593e-06 4.46519e-08)
(2.95029e-07 -1.24652e-06 4.8709e-08)
(1.86609e-07 -1.22893e-06 5.15715e-08)
(6.5153e-08 -1.21977e-06 5.30243e-08)
(-6.14892e-08 -1.22e-06 5.31443e-08)
(-1.83574e-07 -1.22935e-06 5.15187e-08)
(-2.91762e-07 -1.24641e-06 4.87541e-08)
(-3.77773e-07 -1.26604e-06 4.4774e-08)
(-4.36207e-07 -1.28491e-06 4.01554e-08)
(-4.65423e-07 -1.29976e-06 3.52653e-08)
(-4.66318e-07 -1.30686e-06 3.04726e-08)
(-4.41554e-07 -1.30196e-06 2.6128e-08)
(-3.95512e-07 -1.28059e-06 2.24124e-08)
(-3.3363e-07 -1.23776e-06 1.9404e-08)
(-2.6191e-07 -1.16735e-06 1.70706e-08)
(-1.8666e-07 -1.06089e-06 1.52776e-08)
(-1.14098e-07 -9.05241e-07 1.36356e-08)
(-5.15371e-08 -6.76532e-07 1.12867e-08)
(-6.16088e-09 -3.23623e-07 6.04346e-09)
(5.75945e-09 -3.79139e-07 5.75238e-09)
(4.86061e-08 -7.91998e-07 1.07415e-08)
(1.07792e-07 -1.05745e-06 1.29613e-08)
(1.76413e-07 -1.2382e-06 1.45749e-08)
(2.47667e-07 -1.36316e-06 1.63497e-08)
(3.15771e-07 -1.4483e-06 1.86138e-08)
(3.74813e-07 -1.50367e-06 2.15964e-08)
(4.19193e-07 -1.53594e-06 2.53802e-08)
(4.43767e-07 -1.55037e-06 2.98138e-08)
(4.44227e-07 -1.5515e-06 3.47607e-08)
(4.17714e-07 -1.54364e-06 3.98682e-08)
(3.6314e-07 -1.53041e-06 4.47043e-08)
(2.81336e-07 -1.51491e-06 4.8836e-08)
(1.77792e-07 -1.49965e-06 5.18932e-08)
(6.21022e-08 -1.49224e-06 5.35777e-08)
(-5.87602e-08 -1.49246e-06 5.37005e-08)
(-1.75008e-07 -1.49972e-06 5.18359e-08)
(-2.78118e-07 -1.51406e-06 4.88578e-08)
(-3.59767e-07 -1.52997e-06 4.48265e-08)
(-4.14839e-07 -1.54368e-06 3.99628e-08)
(-4.41785e-07 -1.55167e-06 3.4863e-08)
(-4.41853e-07 -1.55057e-06 2.98997e-08)
(-4.17724e-07 -1.53626e-06 2.54459e-08)
(-3.73671e-07 -1.50408e-06 2.16732e-08)
(-3.14906e-07 -1.4486e-06 1.86363e-08)
(-2.47066e-07 -1.36299e-06 1.62998e-08)
(-1.76012e-07 -1.23741e-06 1.45461e-08)
(-1.07555e-07 -1.05623e-06 1.29718e-08)
(-4.85715e-08 -7.90932e-07 1.07533e-08)
(-5.79817e-09 -3.79826e-07 5.74574e-09)
(5.21435e-09 -4.30819e-07 5.1325e-09)
(4.36996e-08 -8.97479e-07 9.62609e-09)
(9.68765e-08 -1.19717e-06 1.16034e-08)
(1.58467e-07 -1.40223e-06 1.3088e-08)
(2.22494e-07 -1.54542e-06 1.48436e-08)
(2.83863e-07 -1.64513e-06 1.70613e-08)
(3.37366e-07 -1.71346e-06 1.99275e-08)
(3.77906e-07 -1.75766e-06 2.3568e-08)
(4.00825e-07 -1.78307e-06 2.78282e-08)
(4.02025e-07 -1.7942e-06 3.26639e-08)
(3.78543e-07 -1.79513e-06 3.77266e-08)
(3.29405e-07 -1.78894e-06 4.25522e-08)
(2.55476e-07 -1.77908e-06 4.65412e-08)
(1.61656e-07 -1.76858e-06 4.96196e-08)
(5.65338e-08 -1.76367e-06 5.13723e-08)
(-5.35367e-08 -1.76394e-06 5.15287e-08)
(-1.59122e-07 -1.76852e-06 4.96335e-08)
(-2.52415e-07 -1.77808e-06 4.64667e-08)
(-3.26416e-07 -1.78868e-06 4.25605e-08)
(-3.76036e-07 -1.79531e-06 3.77307e-08)
(-3.99723e-07 -1.79449e-06 3.27536e-08)
(-3.99022e-07 -1.78331e-06 2.79207e-08)
(-3.76564e-07 -1.75807e-06 2.36243e-08)
(-3.36336e-07 -1.71405e-06 2.0018e-08)
(-2.83121e-07 -1.64534e-06 1.70868e-08)
(-2.21966e-07 -1.54451e-06 1.47898e-08)
(-1.58022e-07 -1.40044e-06 1.30265e-08)
(-9.64929e-08 -1.19518e-06 1.14933e-08)
(-4.3535e-08 -8.95985e-07 9.50322e-09)
(-5.16697e-09 -4.3141e-07 5.10629e-09)
(4.41645e-09 -4.75794e-07 4.27113e-09)
(3.66786e-08 -9.88809e-07 8.03848e-09)
(8.12629e-08 -1.31791e-06 9.73489e-09)
(1.33127e-07 -1.54475e-06 1.10702e-08)
(1.87063e-07 -1.70503e-06 1.26843e-08)
(2.38785e-07 -1.8187e-06 1.47709e-08)
(2.8416e-07 -1.89959e-06 1.7391e-08)
(3.18848e-07 -1.95589e-06 2.06299e-08)
(3.38891e-07 -1.9928e-06 2.43587e-08)
(3.40523e-07 -2.01432e-06 2.86525e-08)
(3.20935e-07 -2.02398e-06 3.31346e-08)
(2.79338e-07 -2.02546e-06 3.74134e-08)
(2.16744e-07 -2.02298e-06 4.11412e-08)
(1.37542e-07 -2.01905e-06 4.41318e-08)
(4.81715e-08 -2.01726e-06 4.58052e-08)
(-4.56066e-08 -2.01739e-06 4.59709e-08)
(-1.35442e-07 -2.01879e-06 4.43385e-08)
(-2.1427e-07 -2.02281e-06 4.14053e-08)
(-2.77006e-07 -2.02749e-06 3.79099e-08)
(-3.18774e-07 -2.02561e-06 3.344e-08)
(-3.38384e-07 -2.01498e-06 2.88535e-08)
(-3.37251e-07 -1.99296e-06 2.44023e-08)
(-3.1772e-07 -1.95624e-06 2.04248e-08)
(-2.83266e-07 -1.90014e-06 1.70911e-08)
(-2.38071e-07 -1.81848e-06 1.44129e-08)
(-1.86383e-07 -1.70335e-06 1.23733e-08)
(-1.32536e-07 -1.54238e-06 1.08726e-08)
(-8.09142e-08 -1.31579e-06 9.62875e-09)
(-3.65603e-08 -9.87052e-07 8.00201e-09)
(-4.35828e-09 -4.76184e-07 4.3325e-09)
(3.45536e-09 -5.11648e-07 3.11393e-09)
(2.80343e-08 -1.06131e-06 5.82391e-09)
(6.16391e-08 -1.4136e-06 7.12588e-09)
(1.00996e-07 -1.6579e-06 8.15877e-09)
(1.42062e-07 -1.83264e-06 9.33938e-09)
(1.81529e-07 -1.95901e-06 1.09587e-08)
(2.16202e-07 -2.0513e-06 1.31166e-08)
(2.42843e-07 -2.11852e-06 1.58974e-08)
(2.58747e-07 -2.16587e-06 1.90935e-08)
(2.60597e-07 -2.19657e-06 2.25993e-08)
(2.45623e-07 -2.21459e-06 2.60199e-08)
(2.13578e-07 -2.22511e-06 2.94456e-08)
(1.66085e-07 -2.23118e-06 3.27563e-08)
(1.05905e-07 -2.23304e-06 3.52425e-08)
(3.73501e-08 -2.23366e-06 3.65205e-08)
(-3.4596e-08 -2.23303e-06 3.6416e-08)
(-1.03769e-07 -2.23128e-06 3.503e-08)
(-1.64215e-07 -2.2299e-06 3.25512e-08)
(-2.12184e-07 -2.22744e-06 2.9568e-08)
(-2.43826e-07 -2.21648e-06 2.60151e-08)
(-2.58477e-07 -2.19705e-06 2.24205e-08)
(-2.57261e-07 -2.16559e-06 1.89376e-08)
(-2.41978e-07 -2.11848e-06 1.57969e-08)
(-2.15417e-07 -2.05138e-06 1.31302e-08)
(-1.80917e-07 -1.95836e-06 1.09976e-08)
(-1.41629e-07 -1.83124e-06 9.40089e-09)
(-1.00749e-07 -1.6568e-06 8.25493e-09)
(-6.15026e-08 -1.41337e-06 7.3168e-09)
(-2.77596e-08 -1.06091e-06 6.07658e-09)
(-3.31899e-09 -5.12533e-07 3.26697e-09)
(2.19e-09 -5.37243e-07 2.02289e-09)
(1.77201e-08 -1.11254e-06 3.74653e-09)
(3.89142e-08 -1.48127e-06 4.47841e-09)
(6.38056e-08 -1.73694e-06 5.01494e-09)
(8.95626e-08 -1.92132e-06 5.70776e-09)
(1.14282e-07 -2.05698e-06 6.76847e-09)
(1.36036e-07 -2.15802e-06 8.21719e-09)
(1.52688e-07 -2.23367e-06 1.01039e-08)
(1.62905e-07 -2.2892e-06 1.23255e-08)
(1.64518e-07 -2.32728e-06 1.46801e-08)
(1.55257e-07 -2.35333e-06 1.70094e-08)
(1.35254e-07 -2.37213e-06 1.94497e-08)
(1.05517e-07 -2.38508e-06 2.17136e-08)
(6.75087e-08 -2.39141e-06 2.34001e-08)
(2.41258e-08 -2.3937e-06 2.41703e-08)
(-2.13134e-08 -2.39142e-06 2.37743e-08)
(-6.52893e-08 -2.38646e-06 2.26962e-08)
(-1.03425e-07 -2.38027e-06 2.08546e-08)
(-1.33606e-07 -2.37065e-06 1.85434e-08)
(-1.53869e-07 -2.35166e-06 1.60287e-08)
(-1.63349e-07 -2.32459e-06 1.36645e-08)
(-1.62526e-07 -2.28558e-06 1.1601e-08)
(-1.52727e-07 -2.23132e-06 9.79305e-09)
(-1.35817e-07 -2.15763e-06 8.29141e-09)
(-1.1387e-07 -2.05758e-06 7.0684e-09)
(-8.89657e-08 -1.92209e-06 6.08064e-09)
(-6.31944e-08 -1.7377e-06 5.35317e-09)
(-3.85335e-08 -1.48197e-06 4.73525e-09)
(-1.73837e-08 -1.11262e-06 3.90766e-09)
(-2.09596e-09 -5.3792e-07 2.05479e-09)
(8.07636e-10 -5.50622e-07 6.38789e-10)
(6.20513e-09 -1.13888e-06 1.27344e-09)
(1.35538e-08 -1.51675e-06 1.60051e-09)
(2.2389e-08 -1.77892e-06 1.81602e-09)
(3.14744e-08 -1.96861e-06 2.09955e-09)
(4.02455e-08 -2.10875e-06 2.5427e-09)
(4.81902e-08 -2.21325e-06 3.06802e-09)
(5.43493e-08 -2.29161e-06 3.59907e-09)
(5.80476e-08 -2.35083e-06 4.28498e-09)
(5.85963e-08 -2.39449e-06 5.22545e-09)
(5.5285e-08 -2.42675e-06 6.20439e-09)
(4.83446e-08 -2.45046e-06 7.10925e-09)
(3.77478e-08 -2.4664e-06 7.80596e-09)
(2.42658e-08 -2.47543e-06 8.54239e-09)
(9.11009e-09 -2.47978e-06 8.89607e-09)
(-6.91868e-09 -2.47748e-06 8.61272e-09)
(-2.30051e-08 -2.47127e-06 8.25978e-09)
(-3.64218e-08 -2.46272e-06 7.58919e-09)
(-4.68451e-08 -2.44948e-06 6.63618e-09)
(-5.3956e-08 -2.42584e-06 5.70074e-09)
(-5.72811e-08 -2.39305e-06 4.84237e-09)
(-5.71227e-08 -2.34842e-06 4.08899e-09)
(-5.38398e-08 -2.28976e-06 3.39044e-09)
(-4.80089e-08 -2.21277e-06 2.83011e-09)
(-4.02791e-08 -2.10936e-06 2.42092e-09)
(-3.1393e-08 -1.96968e-06 2.08342e-09)
(-2.22241e-08 -1.78008e-06 1.82683e-09)
(-1.34962e-08 -1.51788e-06 1.61327e-09)
(-6.04373e-09 -1.13962e-06 1.36904e-09)
(-6.92342e-10 -5.51167e-07 7.33818e-10)
(-5.81263e-10 -5.5117e-07 -6.8486e-10)
(-5.39549e-09 -1.13986e-06 -1.24127e-09)
(-1.21292e-08 -1.51828e-06 -1.4574e-09)
(-1.97916e-08 -1.78069e-06 -1.63995e-09)
(-2.78185e-08 -1.97059e-06 -1.87397e-09)
(-3.55502e-08 -2.11104e-06 -2.20602e-09)
(-4.23772e-08 -2.21594e-06 -2.63848e-09)
(-4.77625e-08 -2.29461e-06 -3.17523e-09)
(-5.09065e-08 -2.35382e-06 -3.8515e-09)
(-5.10714e-08 -2.39709e-06 -4.60154e-09)
(-4.78841e-08 -2.42922e-06 -5.53791e-09)
(-4.15959e-08 -2.45289e-06 -6.57235e-09)
(-3.27518e-08 -2.46852e-06 -7.43421e-09)
(-2.136e-08 -2.47783e-06 -7.77193e-09)
(-7.6087e-09 -2.48209e-06 -7.80257e-09)
(7.14002e-09 -2.47953e-06 -7.69548e-09)
(2.06534e-08 -2.47418e-06 -7.18178e-09)
(3.31558e-08 -2.46587e-06 -6.55519e-09)
(4.27155e-08 -2.452e-06 -6.0078e-09)
(4.85592e-08 -2.4282e-06 -5.14403e-09)
(5.16125e-08 -2.39544e-06 -4.23385e-09)
(5.15675e-08 -2.35068e-06 -3.38062e-09)
(4.8667e-08 -2.29184e-06 -2.84432e-09)
(4.3346e-08 -2.21448e-06 -2.50706e-09)
(3.62425e-08 -2.11069e-06 -2.16299e-09)
(2.834e-08 -1.97071e-06 -1.89167e-09)
(2.01543e-08 -1.78086e-06 -1.66349e-09)
(1.23181e-08 -1.51854e-06 -1.44247e-09)
(5.61699e-09 -1.14014e-06 -1.1154e-09)
(7.25885e-10 -5.51459e-07 -5.61131e-10)
(-2.01735e-09 -5.38669e-07 -1.99591e-09)
(-1.68311e-08 -1.11433e-06 -3.78058e-09)
(-3.73057e-08 -1.48446e-06 -4.59484e-09)
(-6.1097e-08 -1.74081e-06 -5.20571e-09)
(-8.59799e-08 -1.92589e-06 -5.91964e-09)
(-1.09994e-07 -2.06247e-06 -6.87843e-09)
(-1.31046e-07 -2.16417e-06 -8.14395e-09)
(-1.4716e-07 -2.23979e-06 -9.79426e-09)
(-1.5658e-07 -2.29547e-06 -1.18456e-08)
(-1.57638e-07 -2.33389e-06 -1.39962e-08)
(-1.48576e-07 -2.36045e-06 -1.63744e-08)
(-1.29327e-07 -2.37956e-06 -1.88883e-08)
(-1.01153e-07 -2.39258e-06 -2.10575e-08)
(-6.4994e-08 -2.40026e-06 -2.24417e-08)
(-2.27409e-08 -2.40324e-06 -2.29765e-08)
(2.16944e-08 -2.39999e-06 -2.26669e-08)
(6.36384e-08 -2.39604e-06 -2.165e-08)
(1.01064e-07 -2.39047e-06 -2.00053e-08)
(1.29898e-07 -2.37892e-06 -1.81537e-08)
(1.48611e-07 -2.35907e-06 -1.57595e-08)
(1.58059e-07 -2.3316e-06 -1.34824e-08)
(1.57237e-07 -2.29222e-06 -1.12796e-08)
(1.47444e-07 -2.23698e-06 -9.38235e-09)
(1.31168e-07 -2.16211e-06 -7.80115e-09)
(1.10131e-07 -2.06154e-06 -6.51011e-09)
(8.6369e-08 -1.92575e-06 -5.54726e-09)
(6.15385e-08 -1.741e-06 -4.81627e-09)
(3.76599e-08 -1.48499e-06 -4.24728e-09)
(1.71752e-08 -1.11503e-06 -3.49401e-09)
(2.1662e-09 -5.38861e-07 -1.88978e-09)
(-3.29819e-09 -5.13887e-07 -3.17666e-09)
(-2.73135e-08 -1.0639e-06 -5.93422e-09)
(-6.04018e-08 -1.4176e-06 -7.19173e-09)
(-9.89268e-08 -1.66192e-06 -8.1214e-09)
(-1.3908e-07 -1.8372e-06 -9.23838e-09)
(-1.77726e-07 -1.96523e-06 -1.07726e-08)
(-2.11685e-07 -2.05924e-06 -1.28169e-08)
(-2.37808e-07 -2.12745e-06 -1.54647e-08)
(-2.53027e-07 -2.17582e-06 -1.86875e-08)
(-2.54568e-07 -2.20733e-06 -2.20875e-08)
(-2.39975e-07 -2.22596e-06 -2.55833e-08)
(-2.08637e-07 -2.23676e-06 -2.89477e-08)
(-1.62507e-07 -2.24343e-06 -3.20513e-08)
(-1.04028e-07 -2.24694e-06 -3.43851e-08)
(-3.64349e-08 -2.24836e-06 -3.55697e-08)
(3.46057e-08 -2.24582e-06 -3.52857e-08)
(1.0234e-07 -2.24438e-06 -3.39404e-08)
(1.62466e-07 -2.24355e-06 -3.16342e-08)
(2.09057e-07 -2.23724e-06 -2.87974e-08)
(2.3983e-07 -2.22489e-06 -2.53325e-08)
(2.54905e-07 -2.20561e-06 -2.19034e-08)
(2.53844e-07 -2.17477e-06 -1.85334e-08)
(2.38473e-07 -2.12749e-06 -1.55288e-08)
(2.1227e-07 -2.05983e-06 -1.28829e-08)
(1.78154e-07 -1.9665e-06 -1.07596e-08)
(1.39336e-07 -1.83879e-06 -9.15594e-09)
(9.90136e-08 -1.66318e-06 -7.85925e-09)
(6.05847e-08 -1.41877e-06 -6.85835e-09)
(2.76425e-08 -1.06509e-06 -5.61245e-09)
(3.45754e-09 -5.13786e-07 -3.02429e-09)
(-4.3932e-09 -4.78127e-07 -4.19377e-09)
(-3.62997e-08 -9.91321e-07 -7.82576e-09)
(-8.01297e-08 -1.32143e-06 -9.51446e-09)
(-1.31239e-07 -1.54897e-06 -1.07918e-08)
(-1.84536e-07 -1.71087e-06 -1.22831e-08)
(-2.35783e-07 -1.82698e-06 -1.43026e-08)
(-2.80671e-07 -1.90963e-06 -1.69547e-08)
(-3.14924e-07 -1.96681e-06 -2.02356e-08)
(-3.34551e-07 -2.00476e-06 -2.41226e-08)
(-3.36084e-07 -2.0275e-06 -2.83571e-08)
(-3.16754e-07 -2.03817e-06 -3.28325e-08)
(-2.75521e-07 -2.04032e-06 -3.702e-08)
(-2.13987e-07 -2.0387e-06 -4.06727e-08)
(-1.36185e-07 -2.03673e-06 -4.36091e-08)
(-4.72332e-08 -2.03617e-06 -4.53691e-08)
(4.57657e-08 -2.03461e-06 -4.52278e-08)
(1.34658e-07 -2.03604e-06 -4.35772e-08)
(2.13793e-07 -2.04049e-06 -4.06305e-08)
(2.75604e-07 -2.04128e-06 -3.69821e-08)
(3.16446e-07 -2.03775e-06 -3.28831e-08)
(3.3593e-07 -2.02685e-06 -2.8442e-08)
(3.34954e-07 -2.00486e-06 -2.40749e-08)
(3.15455e-07 -1.96739e-06 -2.03385e-08)
(2.81213e-07 -1.91019e-06 -1.71655e-08)
(2.36277e-07 -1.82793e-06 -1.46109e-08)
(1.85009e-07 -1.71279e-06 -1.26133e-08)
(1.31632e-07 -1.55197e-06 -1.09687e-08)
(8.03503e-08 -1.32518e-06 -9.61415e-09)
(3.63496e-08 -9.94462e-07 -7.89579e-09)
(4.39179e-09 -4.78227e-07 -4.19913e-09)
(-5.17881e-09 -4.33492e-07 -5.09069e-09)
(-4.33292e-08 -9.00978e-07 -9.50979e-09)
(-9.58995e-08 -1.20151e-06 -1.15034e-08)
(-1.57159e-07 -1.40782e-06 -1.30005e-08)
(-2.20863e-07 -1.55299e-06 -1.47144e-08)
(-2.81921e-07 -1.65492e-06 -1.69904e-08)
(-3.35108e-07 -1.72476e-06 -1.99057e-08)
(-3.7538e-07 -1.77e-06 -2.35032e-08)
(-3.98048e-07 -1.79653e-06 -2.77987e-08)
(-3.99171e-07 -1.80884e-06 -3.25766e-08)
(-3.75833e-07 -1.81076e-06 -3.76297e-08)
(-3.26931e-07 -1.80548e-06 -4.24008e-08)
(-2.53752e-07 -1.79649e-06 -4.63867e-08)
(-1.60903e-07 -1.788e-06 -4.9475e-08)
(-5.54562e-08 -1.784e-06 -5.14823e-08)
(5.41751e-08 -1.78285e-06 -5.14532e-08)
(1.59253e-07 -1.7875e-06 -4.97658e-08)
(2.5283e-07 -1.79777e-06 -4.66467e-08)
(3.26321e-07 -1.80621e-06 -4.24269e-08)
(3.75379e-07 -1.81113e-06 -3.76815e-08)
(3.98981e-07 -1.80908e-06 -3.26209e-08)
(3.98262e-07 -1.79696e-06 -2.77544e-08)
(3.75713e-07 -1.77062e-06 -2.34847e-08)
(3.35522e-07 -1.72546e-06 -1.9849e-08)
(2.82347e-07 -1.65588e-06 -1.69496e-08)
(2.21306e-07 -1.55477e-06 -1.47737e-08)
(1.57672e-07 -1.41101e-06 -1.30657e-08)
(9.63843e-08 -1.20573e-06 -1.15298e-08)
(4.36313e-08 -9.04374e-07 -9.51658e-09)
(5.24631e-09 -4.33515e-07 -5.07635e-09)
(-5.76646e-09 -3.81859e-07 -5.76345e-09)
(-4.84517e-08 -7.96195e-07 -1.07613e-08)
(-1.07361e-07 -1.06279e-06 -1.29742e-08)
(-1.75794e-07 -1.24513e-06 -1.4547e-08)
(-2.46855e-07 -1.37193e-06 -1.62848e-08)
(-3.14826e-07 -1.45871e-06 -1.86069e-08)
(-3.73764e-07 -1.51533e-06 -2.1647e-08)
(-4.18051e-07 -1.54867e-06 -2.54224e-08)
(-4.42503e-07 -1.56416e-06 -2.98837e-08)
(-4.42879e-07 -1.56637e-06 -3.48209e-08)
(-4.16316e-07 -1.5595e-06 -3.99622e-08)
(-3.61809e-07 -1.54747e-06 -4.48561e-08)
(-2.80693e-07 -1.53335e-06 -4.90481e-08)
(-1.77785e-07 -1.51998e-06 -5.20959e-08)
(-6.12279e-08 -1.51245e-06 -5.38947e-08)
(5.96233e-08 -1.51145e-06 -5.37276e-08)
(1.75925e-07 -1.51875e-06 -5.21073e-08)
(2.79345e-07 -1.53309e-06 -4.90627e-08)
(3.60874e-07 -1.54739e-06 -4.47693e-08)
(4.15673e-07 -1.55966e-06 -3.9948e-08)
(4.42534e-07 -1.5666e-06 -3.48296e-08)
(4.42485e-07 -1.56459e-06 -2.98759e-08)
(4.18225e-07 -1.54925e-06 -2.54223e-08)
(3.74105e-07 -1.51603e-06 -2.16226e-08)
(3.15285e-07 -1.45956e-06 -1.8589e-08)
(2.47366e-07 -1.37307e-06 -1.63171e-08)
(1.76244e-07 -1.247e-06 -1.46205e-08)
(1.07629e-07 -1.06552e-06 -1.30477e-08)
(4.85638e-08 -7.98703e-07 -1.08043e-08)
(5.74189e-09 -3.8191e-07 -5.76786e-09)
(-6.11415e-09 -3.25762e-07 -6.11844e-09)
(-5.15159e-08 -6.81677e-07 -1.1364e-08)
(-1.14297e-07 -9.1177e-07 -1.36667e-08)
(-1.87061e-07 -1.06861e-06 -1.53046e-08)
(-2.62536e-07 -1.17624e-06 -1.70977e-08)
(-3.3458e-07 -1.24773e-06 -1.94354e-08)
(-3.96822e-07 -1.29161e-06 -2.24594e-08)
(-4.43259e-07 -1.31403e-06 -2.61908e-08)
(-4.68425e-07 -1.31997e-06 -3.05624e-08)
(-4.67949e-07 -1.31384e-06 -3.53659e-08)
(-4.39035e-07 -1.29985e-06 -4.02997e-08)
(-3.80904e-07 -1.28205e-06 -4.49803e-08)
(-2.95231e-07 -1.26374e-06 -4.90693e-08)
(-1.86973e-07 -1.24769e-06 -5.19594e-08)
(-6.43823e-08 -1.23829e-06 -5.35491e-08)
(6.26167e-08 -1.23778e-06 -5.34313e-08)
(1.85071e-07 -1.24699e-06 -5.20111e-08)
(2.93698e-07 -1.26368e-06 -4.90994e-08)
(3.7982e-07 -1.28218e-06 -4.49751e-08)
(4.38277e-07 -1.30009e-06 -4.03405e-08)
(4.675e-07 -1.31414e-06 -3.54083e-08)
(4.68266e-07 -1.3204e-06 -3.05925e-08)
(4.43309e-07 -1.31459e-06 -2.62197e-08)
(3.97033e-07 -1.2923e-06 -2.24773e-08)
(3.34898e-07 -1.24857e-06 -1.94575e-08)
(2.62906e-07 -1.17725e-06 -1.71511e-08)
(1.87349e-07 -1.06994e-06 -1.54545e-08)
(1.14394e-07 -9.1361e-07 -1.39209e-08)
(5.15174e-08 -6.83654e-07 -1.15946e-08)
(6.04864e-09 -3.25756e-07 -6.18383e-09)
(-6.22393e-09 -2.67447e-07 -6.25115e-09)
(-5.25246e-08 -5.62594e-07 -1.16091e-08)
(-1.1661e-07 -7.54911e-07 -1.39323e-08)
(-1.90962e-07 -8.85557e-07 -1.55525e-08)
(-2.68126e-07 -9.7388e-07 -1.72988e-08)
(-3.41725e-07 -1.03061e-06 -1.95428e-08)
(-4.05146e-07 -1.06287e-06 -2.2415e-08)
(-4.52195e-07 -1.076e-06 -2.59421e-08)
(-4.77314e-07 -1.07449e-06 -3.00487e-08)
(-4.76133e-07 -1.06244e-06 -3.45228e-08)
(-4.45941e-07 -1.04383e-06 -3.90789e-08)
(-3.8614e-07 -1.02247e-06 -4.34363e-08)
(-2.98885e-07 -1.00161e-06 -4.72092e-08)
(-1.8942e-07 -9.84647e-07 -4.98583e-08)
(-6.53648e-08 -9.74919e-07 -5.12517e-08)
(6.33904e-08 -9.7465e-07 -5.11994e-08)
(1.87324e-07 -9.84229e-07 -4.9913e-08)
(2.97291e-07 -1.00169e-06 -4.71889e-08)
(3.85099e-07 -1.02258e-06 -4.34044e-08)
(4.45175e-07 -1.04397e-06 -3.91207e-08)
(4.75607e-07 -1.06265e-06 -3.45767e-08)
(4.77054e-07 -1.07483e-06 -3.00936e-08)
(4.52149e-07 -1.07645e-06 -2.59835e-08)
(4.0525e-07 -1.06344e-06 -2.24457e-08)
(3.4192e-07 -1.03129e-06 -1.95726e-08)
(2.68376e-07 -9.74675e-07 -1.73407e-08)
(1.91179e-07 -8.86486e-07 -1.56483e-08)
(1.16727e-07 -7.56072e-07 -1.41203e-08)
(5.25527e-08 -5.64001e-07 -1.17872e-08)
(6.19427e-09 -2.67389e-07 -6.29396e-09)
(-6.13138e-09 -2.08954e-07 -6.09495e-09)
(-5.15694e-08 -4.43514e-07 -1.13487e-08)
(-1.14538e-07 -5.97941e-07 -1.36498e-08)
(-1.87904e-07 -7.02592e-07 -1.52118e-08)
(-2.64264e-07 -7.72205e-07 -1.68524e-08)
(-3.37198e-07 -8.15177e-07 -1.89309e-08)
(-4.00029e-07 -8.37311e-07 -2.15835e-08)
(-4.46502e-07 -8.43095e-07 -2.48276e-08)
(-4.71093e-07 -8.36448e-07 -2.85853e-08)
(-4.695e-07 -8.21011e-07 -3.26544e-08)
(-4.39111e-07 -8.00357e-07 -3.67965e-08)
(-3.79577e-07 -7.77835e-07 -4.07676e-08)
(-2.9355e-07 -7.56775e-07 -4.41395e-08)
(-1.86153e-07 -7.40534e-07 -4.65058e-08)
(-6.43294e-08 -7.31504e-07 -4.77467e-08)
(6.2363e-08 -7.31149e-07 -4.771e-08)
(1.83958e-07 -7.39982e-07 -4.64976e-08)
(2.91914e-07 -7.56706e-07 -4.40663e-08)
(3.78505e-07 -7.77817e-07 -4.0686e-08)
(4.38286e-07 -8.00392e-07 -3.68036e-08)
(4.68889e-07 -8.21146e-07 -3.27026e-08)
(4.70745e-07 -8.367e-07 -2.86291e-08)
(4.46383e-07 -8.4345e-07 -2.48678e-08)
(4.00061e-07 -8.37748e-07 -2.16128e-08)
(3.37323e-07 -8.15694e-07 -1.89576e-08)
(2.64453e-07 -7.728e-07 -1.68798e-08)
(1.88101e-07 -7.03263e-07 -1.52543e-08)
(1.14693e-07 -5.98705e-07 -1.3738e-08)
(5.15851e-08 -4.44428e-07 -1.14758e-08)
(6.09338e-09 -2.0902e-07 -6.13764e-09)
(-5.77314e-09 -1.52709e-07 -5.67659e-09)
(-4.8543e-08 -3.29005e-07 -1.06216e-08)
(-1.08163e-07 -4.46767e-07 -1.2783e-08)
(-1.78163e-07 -5.26363e-07 -1.41919e-08)
(-2.51484e-07 -5.78255e-07 -1.56609e-08)
(-3.21854e-07 -6.08722e-07 -1.75203e-08)
(-3.82653e-07 -6.22318e-07 -1.99123e-08)
(-4.27659e-07 -6.2269e-07 -2.28287e-08)
(-4.51474e-07 -6.13092e-07 -2.62041e-08)
(-4.4994e-07 -5.9661e-07 -2.98449e-08)
(-4.20526e-07 -5.7623e-07 -3.35872e-08)
(-3.63136e-07 -5.54834e-07 -3.71326e-08)
(-2.80731e-07 -5.35497e-07 -4.01306e-08)
(-1.77997e-07 -5.20844e-07 -4.22514e-08)
(-6.15593e-08 -5.12902e-07 -4.34022e-08)
(5.96422e-08 -5.12563e-07 -4.33632e-08)