/*--------------------------------*- C++ -*----------------------------------*\
| =========                 |                                                 |
| \\      /  F ield         | OpenFOAM: The Open Source CFD Toolbox           |
|  \\    /   O peration     | Version:  v1912                                 |
|   \\  /    A nd           | Website:  www.openfoam.com                      |
|    \\/     M anipulation  |                                                 |
\*---------------------------------------------------------------------------*/
FoamFile
{
    version     2.0;
    format      ascii;
    class       volScalarField;
    location    "388/oil";
    object      wallHeatFlux;
}
// * * * * * * * * * * * * * * * * * * * * * * * * * * * * * * * * * * * * * //

dimensions      [1 0 -3 0 0 0 0];


internalField   uniform 0;

boundaryField
{
    maxY
    {
        type            calculated;
        value           uniform 0;
    }
    minX
    {
        type            calculated;
        value           uniform 0;
    }
    maxX
    {
        type            calculated;
        value           uniform 0;
    }
    minY
    {
        type            calculated;
        value           uniform 0;
    }
    minZ
    {
        type            calculated;
        value           uniform 0;
    }
    maxZ
    {
        type            calculated;
        value           uniform 0;
    }
    oil_to_sphere
    {
        type            calculated;
        value           nonuniform List<scalar> 
1536
(
889.742
608.619
601.839
90.4651
78.173
595.381
368.139
462.349
428.651
135.247
-71.3504
173.906
423.665
184.451
-137.058
337.696
595.975
615.413
322.746
408.917
527.846
433.23
452.902
334.676
362.053
348.272
361.153
300.295
578.729
442.222
662.98
610.652
620.282
340.779
357.269
302.803
328.861
246.201
298.02
359.69
286.637
327.487
419.025
476.482
545.49
356.186
521.762
448.476
-115.223
346.668
501.558
432.548
443.035
334.465
569.612
761.931
449.788
409.525
523.27
497.276
411.938
420.694
406.361
326.987
354.38
399.593
408.204
507.926
505.731
568.416
325.613
77.5032
168.354
348.975
347.721
780.513
623.895
248.536
338.334
605.601
531.611
490.009
92.7226
85.3882
577.328
835.267
20.222
384.418
497.572
496.225
428.273
312.189
307.508
320.253
347.281
474.105
525.339
544.661
644.367
489.749
533.522
321.598
894.137
503.899
156.117
342.28
365.388
110.289
107.591
901.22
621.05
460.824
418.649
453.517
52.5741
79.714
-2.78756
710.263
863.543
636.611
440.843
453.499
294.824
521.981
659.865
475.763
439.003
276.265
539.279
522.349
400.757
510.99
565.961
368.353
385.79
582.661
455.087
607.793
281.499
598.813
431.304
519.118
521.992
422.902
390.545
416.652
479.243
698.742
387.748
905.967
557.144
598.485
449.727
465.214
348.883
476.175
580.921
516.59
952.031
644.087
620.326
712.068
205.609
250.221
315.966
311.293
565.866
685.997
644.343
763.173
299.094
316.566
251.173
526.055
439.311
465.329
811.021
221.105
155.723
835.381
305.336
254.391
243.561
270.041
496.395
835.821
646.085
285.926
196.489
610.756
214.614
562.293
562.779
687.795
170.726
-197.869
677.125
715.909
361.637
345.828
433.72
371.45
615.1
673.814
550.144
490.781
318.458
696.259
646.491
461.693
276.033
354.221
342.838
375.225
530.95
771.038
195.795
179.75
188.371
-236.108
594.779
527.635
487.856
431.183
443.217
696.833
560.323
349.503
596.323
137.51
303.788
-185.261
421.853
577.164
678.518
649.409
596.253
537.348
635.701
168.202
208.627
243.547
722.459
261.708
-190.43
7.55225
529.907
411.337
815.701
942.493
458.31
84.7061
-228.424
496.335
638.844
320.955
329.552
39.9792
310.569
696.084
846.478
406.514
328.867
747.718
647.781
351.78
158.854
386.017
780.071
713.121
537.997
563.687
666.713
243.401
340.741
681.478
563.218
602.884
419.005
596.805
763.306
547.367
524.368
732.567
323.038
319.562
343.971
297.907
314.451
691.715
788.939
170.972
377.816
362.847
373.57
285.292
443.536
416.126
255.35
43.6593
307.215
176.976
283.206
836.496
739.274
733.98
915.399
225.651
246.018
432.403
907.125
844.251
304.051
421.108
289.389
557.853
334.312
522.494
545.86
625.06
571.402
357.342
581.285
304.21
668.324
704.583
605.94
583.012
263.095
796.428
783.553
551.013
164.247
320.015
369.606
546.97
519.303
561.013
254.005
663.723
668.994
627.814
732.267
510.16
475.056
409.288
208.019
476.54
552.417
205.594
185.464
235.287
876.343
657.72
732.346
516.782
470.14
685.168
192.314
815.642
624.913
476.01
470.076
174.14
621.639
651.35
273.573
476.7
402.957
329.752
558.585
659.036
418.78
349.986
227.664
771.63
670.318
182.948
687.814
648.366
594.906
770.893
472.402
573.243
128.746
173.103
544.689
904.047
607.324
813.354
512.883
366.549
642.819
233.621
288.318
520.197
653.924
562.782
519.77
245.264
246.831
682.676
664.658
671.076
465.82
311.701
527.626
583.542
650.609
482.11
385.039
264.13
457.542
220.111
111.1
318.654
267.009
462.011
137.439
369.933
796.474
363.533
360.092
650.697
647.442
553.211
404.034
202.534
604.497
735.875
539.207
485.255
615.368
422.138
451.763
511.821
89.8203
534.698
669.537
729.574
639.833
576.66
564.837
484.838
391.503
234.015
439.267
264.482
174.955
289.956
109.51
845.059
806.568
706.437
885.896
224.464
848.775
251.779
306.852
594.367
204.168
243.088
373.3
364.066
816.237
737.125
512.76
532.545
766.622
684.443
481.866
581.379
280.349
654.6
163.993
726.368
87.2885
568.559
603.122
639.658
355.653
231.172
398.585
648.479
411.763
143.861
652.294
674.585
707.187
924.955
478.819
757.671
223.138
258.496
-103
8.08952
480.556
372.347
336.018
290.286
868.596
244.803
193.056
153.95
372.548
134.153
948.286
277.741
298.552
441.016
-64.58
34.7767
320.717
313.344
419.189
349.001
672.694
638.45
566.22
478.948
117.55
334.806
628.261
233.303
274.607
604.841
774.823
278.982
-105.637
208.192
-72.3931
434.818
356.246
299.397
162.092
-65.9759
559.234
598.677
521.038
429.848
782.248
568.225
547.915
470.68
261.047
344.535
671.493
566.829
380.946
-1.81826
489.386
616.038
798.316
498.867
318.304
800.536
441.308
761.425
277.557
356.587
240.971
363.311
494.147
775.36
223.062
296.631
259.5
372.665
956.761
162.231
340.769
189.141
441.679
492.78
674.171
782.836
116.374
165.729
778.554
812.298
62.7134
760.414
688.891
606.481
679.342
547.847
457.951
473.253
769.135
480.406
553.069
456.762
651.844
500.212
435.682
416.395
207.887
605.576
427.787
647.068
575.077
581.048
565.687
482.591
172.906
679.947
677.792
556.874
432.634
506.24
892.092
128.619
272.657
218.383
487.767
282.799
895.101
364.305
392.977
447.181
-96.8362
-50.7332
329.38
323.714
472.162
240.988
291.987
495.725
299.692
785.213
205.691
877.835
358.898
480.474
-191.016
-61.4123
-107.081
299.801
606.984
339.556
300.414
-68.8243
461.539
620.941
466.887
1024.86
278.225
671.901
549.196
616.999
696.373
684.742
614.109
441.613
384.906
438.317
617.109
404.298
524.705
495.344
519.182
641.225
567.226
604.242
202.18
265.904
-205.488
43.365
103.801
-369.693
320.177
349.699
404.956
434.721
110.356
212.999
380.107
714.737
682.784
374.798
150.804
422.738
632.906
553.018
449.066
130.839
278.065
560.876
506.277
443.936
329.293
586.956
591.382
771.043
595.445
486.643
349.424
287.558
203.047
312.722
409.48
910.506
480.857
835.448
277.975
932.955
320.741
414.618
223.212
250.726
352.005
196.322
399.157
135.379
333.036
666.879
369.348
179.986
789.677
578.561
529.92
425.674
759.243
1064.07
48.5742
570.675
512.543
552.226
194.881
430.313
287.839
516.096
596.194
686.129
258.468
559.212
468.348
590.655
573.352
545.914
375.976
409.086
336.454
146.935
116.569
237.824
747.35
334.146
191.462
342.055
674.319
395.898
744.71
637.033
537.831
485.971
532.104
804.698
238.401
566.108
688.852
718.569
480.659
285.465
388.962
532.972
726.661
218.773
412.326
472.052
667.323
534.128
528.341
754.995
223.966
297.33
261.507
806.068
682.716
475.011
664.831
300.474
332.633
663.82
526.058
773.053
251.158
620.246
653.862
494.359
518.176
604.178
255.963
100.863
454.103
527.741
814.517
419.088
314.837
438.001
535.547
615.72
486.211
291.556
421.353
651.84
222.563
292.487
421.813
329.114
509.799
484.716
712.591
550.528
638.477
340.581
440.243
509.273
430.943
388.148
348.834
345.218
230.005
583.279
502.149
502.54
539.141
165.58
364.569
795.478
802.242
292.004
670.822
534.285
581.433
340.948
721.999
702.98
245.373
395.519
360.27
348.513
155.684
214.202
360.32
696.23
892.762
315.52
601.763
582.113
528.607
404.743
511.296
710.598
500.555
253.871
366.615
342.063
353.819
552.479
579.454
584.695
598.681
596.452
293.508
613.147
373.44
568.07
-66.0295
540.182
739.524
387.044
48.2603
448.206
408.825
835.056
266.22
613.539
435.831
96.5299
784.562
179.08
412.476
458.046
162.577
671.087
514.194
404.55
473.669
512.223
412.019
851.089
185.958
355.047
-139.245
374.434
388.809
467.286
668.625
1080.63
138.476
357.778
988.762
181.111
592.361
285.607
580.797
25.0269
267.218
979.301
78.3044
916.029
124.104
820.425
99.9617
262.76
-109.701
186.291
939.824
-35.1867
431.024
76.9611
755.262
943.589
-20.2059
389.549
321.258
254.67
245.61
362.098
461.124
459.87
573.483
438.25
763.687
1011.69
-26.3929
458.584
539.45
460.846
493.759
424.01
387.811
422.903
630.01
429.688
635.577
351.259
501.414
739.699
385.073
563.02
675.591
350.061
501.413
436.346
570.029
413.595
478.468
392.372
661.601
368.386
527.142
120.79
775.929
-6.98981
525.111
649.853
788.125
272.635
488.77
439.085
488.665
467.354
429.134
625.618
239.957
-206.884
388.274
51.6972
684.822
277.796
453.545
586.284
-171.651
723.384
228.887
-81.2553
258.979
594.231
576.57
465.054
-30.1373
460.43
500.94
312.841
279.641
693.315
654.901
335.524
471.675
694.925
-23.4603
624.602
273.709
563.812
2.74602
890.162
867.55
653.747
459.499
388.002
585.095
376.516
-34.1981
219.549
603.127
286.337
544.578
46.1613
677.777
563.031
-307.533
462.116
515.238
-153.014
731.48
113.789
689.169
779.659
620.078
-72.5275
476.439
398.539
465.253
482.532
546.505
-19.0877
345.838
293.161
294.532
669.8
449.585
518.977
577.325
563.402
394.657
485.536
408.125
525.002
700.367
334.754
382.821
320.162
479.335
647.04
331.36
375.687
353.782
453.368
291.529
311.328
373.492
392.552
480.845
365.605
772.999
626.109
68.4933
75.5712
731.544
-368.21
609.493
499.05
290.629
393.299
742.333
-172.326
683.9
519.091
-51.6149
357.224
311.94
451.822
-198.659
729.901
526.966
-163.673
709.196
713.547
15.1718
790.709
653.732
22.0545
318.485
292.583
-166.236
459.669
488.368
223.165
273.801
251.889
-289.202
267.76
-190.527
-322.484
664.517
319.327
940.575
334.22
-22.3205
734.572
409.011
-114.036
334.047
321.419
-120.092
75.9244
715.997
-450.17
221.687
174.587
-369.976
683.25
634.786
457.739
370.365
316.788
223.747
-237.976
465.934
374.828
386.297
458.581
-81.0611
596.757
335.568
428.523
312.168
419.76
479.293
207.775
-58.1687
361.899
489.343
330.255
369.559
436.577
272.708
381.105
-93.242
335.404
516.703
316.104
395.312
280.235
-49.7752
738.977
729.174
707.012
790.917
12.3084
-149.395
340.299
609.964
487.19
589.564
629.379
222.527
168.178
-140.756
-20.6233
271.21
432.081
415.96
404.481
169.532
668.1
520.963
27.4131
260.697
211.74
624.042
277.887
-240.586
431.249
446.609
681.443
-102.654
316.266
481.832
350.403
393.975
580.138
425.799
229.331
818.033
-328.666
126.784
400.031
275.157
363.397
787.148
529.971
449.12
136.975
742.558
344.87
478.61
628.727
681.51
660.895
679.724
768.033
825.572
757.771
758.683
452.522
641.154
333.969
393.008
161.624
94.9414
-282.015
797.903
781.156
706
381.417
480.825
463.772
283.438
494.811
637.216
237.931
407.416
567.881
316.986
339.794
326.902
377.894
270.863
369.797
348.249
4.18813
479.454
242.131
405.404
-119.994
796.045
416.911
300.709
261.311
33.3689
445.221
307.8
-162.521
128.487
410.745
85.4494
149.713
837.305
865.611
350.654
353.062
601.504
783.108
-169.079
279.664
270.609
364.939
363.034
384.652
422.981
163.338
-41.5297
728.535
356.971
111.735
158.395
350.52
452.94
38.1389
389.6
282.084
333.849
787.748
119.51
-32.1287
362.647
314.724
269.987
-34.8722
683.624
346.563
335.7
348.46
-159.034
350.175
362.374
-22.0324
343.464
127.051
522.027
720.931
282.468
640.802
510.64
291.922
301.233
370.851
-34.1681
505.438
541.205
323.965
-103.188
205.416
398.276
416.593
286.777
-61.4298
297.127
682.283
511.091
302.739
829.598
121.082
625.561
-148.863
106.953
647.271
-158.665
664.744
298.274
451.754
334.748
857.281
180.376
458.013
788.729
740.534
63.2679
722.264
788.441
-354.028
389.922
312.489
-133.507
538.612
306.767
336.562
337.501
426.89
387.071
324.39
302.098
-149.923
537.84
451.103
436.472
477.324
381.335
290.709
208.945
595.176
-226.582
263.866
250.616
-203.36
651.763
813.45
411.144
705.423
741.184
279.658
288.319
533.35
702.676
270.721
565.356
156.923
-132.258
602.723
240.183
681.531
827.759
779.856
-102.739
631.924
459.021
227.948
321.655
364.093
309.395
-92.3351
699.245
-74.7127
689.782
377.434
157.007
108.072
381.478
575.841
760.133
441.876
909.291
609.374
667.442
-170.345
638.567
587.945
682.85
278.958
234.438
-229.875
412.648
888.019
707.783
-47.7833
175.327
-79.9047
278.596
423.799
150.292
1036.21
337.764
176.987
-34.2559
507.577
240.128
-191.964
393.201
303.843
312.509
321.465
325.432
-29.1565
155.92
-130.004
306.637
606.799
524.172
722.213
681.977
264.457
209.879
-152.511
294.151
577.38
749.224
608.173
625.24
113.576
-209.318
185.053
-248.681
599.432
620.219
210.477
660.363
593.491
723.609
492.599
452.557
444.758
264.425
-162.962
195.918
-105.511
139.943
321.805
286.431
5.49778
-106.41
561.313
890.707
830.14
780.074
437.915
552.31
541.921
412.321
320.301
412.523
226.824
376.099
378.552
-103.468
592.113
356.103
176.888
-4.13537
299.61
431.722
428.71
287.543
-1.46672
762.851
504.027
310.237
823.22
236.655
-126.247
524.666
377.377
380.382
380.469
294.672
-229.918
378.511
372.887
-70.4878
745.114
346.195
-448.058
320.62
420.108
438.479
293.017
-93.5507
254.198
268.279
94.6978
392.846
-149.8
405.484
389.511
71.2156
815.667
371.283
-22.4108
873.195
414.201
413.997
-8.70362
389.51
-76.7087
)
;
    }
}


// ************************************************************************* //
