/*--------------------------------*- C++ -*----------------------------------*\
| =========                 |                                                 |
| \\      /  F ield         | OpenFOAM: The Open Source CFD Toolbox           |
|  \\    /   O peration     | Version:  v1906                                 |
|   \\  /    A nd           | Web:      www.OpenFOAM.com                      |
|    \\/     M anipulation  |                                                 |
\*---------------------------------------------------------------------------*/
FoamFile
{
    version     2.0;
    format      ascii;
    class       volScalarField;
    location    "9/oil";
    object      wallHeatFlux;
}
// * * * * * * * * * * * * * * * * * * * * * * * * * * * * * * * * * * * * * //

dimensions      [1 0 -3 0 0 0 0];


internalField   uniform 0;

boundaryField
{
    maxY
    {
        type            calculated;
        value           uniform 0;
    }
    minX
    {
        type            calculated;
        value           uniform 0;
    }
    maxX
    {
        type            calculated;
        value           uniform 0;
    }
    minY
    {
        type            calculated;
        value           uniform 0;
    }
    minZ
    {
        type            calculated;
        value           uniform 0;
    }
    maxZ
    {
        type            calculated;
        value           uniform 0;
    }
    oil_to_sphere
    {
        type            calculated;
        value           nonuniform List<scalar> 
360
(
12022
12089.6
8748.97
18959.9
19817.6
10099.5
20219.7
18248.7
19641.4
11886.4
11950
10103.1
11153.7
7891.74
11730.7
17473.1
20401.8
18905.6
19774.3
7883.35
16760.1
11977.4
10742.6
19338.1
8766.81
19889.3
10082.4
19629.3
19480.3
18423.5
20743.2
20565.3
8781.15
8685.24
10009.9
10047.5
19627.2
19482.8
18959.8
19320.3
19447.6
8766.2
9986.19
12336.2
12365
10060.9
11108.7
7830.01
11909.3
18203.1
10122.8
10087.9
11063.1
11105.9
7830.43
12043.9
18876.7
7889.06
10033.9
11112.3
7908.89
19553.5
18571.1
19379.8
7833.35
16922.4
12025.3
10493.2
20284.6
19276.8
18577.4
19146.7
19174.1
7814.83
14947.7
11722
7918.23
10346.5
19245.1
19956
10539.8
10475.3
10406.3
7905.75
8714.78
10023.2
10064
11130.9
7872.42
7943.63
8741.77
11116.7
10068.1
8736.1
11071.1
10043.8
10052.8
10065.4
8716.69
7954.43
7956.49
7850.48
10104.4
10119.1
11141.2
7851.41
7920.08
11174
8735.86
10080.6
10089.2
10071.4
8724.85
7851.87
7986.07
7976.83
10692.8
10685.8
10610
12237
12257.5
18310.8
19503.6
17384.3
19379.2
18201.5
19542.7
19797.3
18308.2
19128.6
18807.7
10608.9
10602.8
10581.4
7965.81
17868.1
19452.8
12043
12071.7
19448.2
17972.3
11864.1
11687.6
19751
18120.3
20880.2
7959.97
7950.62
19049.2
19513.3
20820
19661
19664.8
20508.5
20858.9
18829.7
11641.5
19719.4
18872.1
7894.69
19673
20178.5
10335.3
10201.1
10675.4
11883
12021.4
19787
18208.2
20587.4
7835.59
19230.8
12051.6
19593.8
18717.3
7840
20199.6
10476.5
10553.5
7945.35
10069.7
10101.4
11146.7
8745.28
11099.2
10061.1
7850.57
7941.83
19446.6
18237.2
19719.5
18969.6
12259.1
12267.9
19527.1
17865
19205.4
12057.7
12130.5
7942.16
10038
10145.4
11142.3
10090.1
10041.6
11174.2
8735.82
11088.1
10015.7
8667.46
18537.3
11162.5
10024.5
7900.17
19156.1
18142.8
19155.9
12284.2
12284.5
7839.35
10037.2
10057.9
11108.1
19648.5
8694.49
11059.5
10025
18852.8
18656.9
12220.6
7867.72
12126
7884.91
7984.92
11092.3
8745.79
10070.7
10047.8
10100.6
8722.79
7886.22
18509.3
18018.1
19485.2
20428.4
18970.6
17938.4
19838.7
20209.9
12054.2
19047.4
7963.14
19802.5
19795.9
19895
11059.1
8755.66
10090.1
11101.3
8802.22
19712.4
10038.5
10002.7
10086.5
8712.8
20145.6
18961.5
10019.4
10027
8714.65
18829.6
20790.1
12003.4
18788.3
7906.71
19767
19244.8
19740.3
11161.3
8721.78
19493.8
10013.6
10040.8
10003.6
19321.2
8758.8
19098
12151.3
17935
12211.2
18540.4
19259.3
19247.3
7851
10372.2
10190.1
10279.8
12359.9
19579.4
12326.3
18963.7
19526.9
7916.85
19541.7
19923.3
12002
19092.8
7942.65
20995.6
10480.5
10430.1
7780.28
18887.3
12144.6
16794.5
18959.3
12133.2
7857.79
10022.1
10048.1
11134.8
19444.7
17953.4
11907.3
7959.77
18159.9
12093.5
7896.98
18796.8
19574
11875.4
18894
7768.32
20405.6
11187.6
20424.8
8714.94
10076.5
20296.2
19296.9
18581.8
11944.3
19722.2
19591.5
12038.7
18749
10364.6
10521.6
18450.7
12053.3
7863.37
18569
12081.4
7923.58
19080.2
19407
18150.9
12115.1
18972
12143.5
)
;
    }
}


// ************************************************************************* //
