/*--------------------------------*- C++ -*----------------------------------*\
| =========                 |                                                 |
| \\      /  F ield         | OpenFOAM: The Open Source CFD Toolbox           |
|  \\    /   O peration     | Version:  v1906                                 |
|   \\  /    A nd           | Web:      www.OpenFOAM.com                      |
|    \\/     M anipulation  |                                                 |
\*---------------------------------------------------------------------------*/
FoamFile
{
    version     2.0;
    format      ascii;
    class       volScalarField;
    location    "0.63/oil";
    object      heatTransferCoeff(T);
}
// * * * * * * * * * * * * * * * * * * * * * * * * * * * * * * * * * * * * * //

dimensions      [1 0 -3 -1 0 0 0];


internalField   uniform 0;

boundaryField
{
    maxY
    {
        type            calculated;
        value           uniform 0;
    }
    minX
    {
        type            calculated;
        value           uniform 0;
    }
    maxX
    {
        type            calculated;
        value           uniform 0;
    }
    minY
    {
        type            calculated;
        value           uniform 0;
    }
    minZ
    {
        type            calculated;
        value           uniform 0;
    }
    maxZ
    {
        type            calculated;
        value           uniform 0;
    }
    oil_to_sphere
    {
        type            calculated;
        value           nonuniform List<scalar> 
1536
(
-2919.92
-2674.29
-2622.61
-3082.89
-3071.8
-2973.46
-2842.21
-2694.32
-2411.94
-2407.5
-3081.81
-2419.69
-2579.45
-2413.44
-3264.58
-3165.14
-2714.41
-2390.3
-1233.83
-2555.93
-2485.71
-3040.58
-2813.19
-3181.31
-3267.12
-3261.34
-3261.07
-3194.38
-2620.43
-2824.39
-2582.33
-2470.23
-2495.19
-3267.47
-3170.91
-3138.88
-3047.11
-3221.83
-3189.91
-3220.63
-3209.53
-3159.29
-2816.42
-2529.72
-2750.56
-2493.36
-2770.86
-2827.6
-3333.69
-2845.85
-3029.25
-2773.96
-2782.23
-2781.58
-2451.31
-2295.19
-2953.46
-2855.58
-2370.45
-2051.9
-1975.11
-2066.2
-1979.89
-1377.48
-1405.34
-2487.61
-2759.87
-2374.12
-3005.19
-2731.91
-3282.37
-3068.67
-3155.33
-3229.28
-3184.2
-2536.69
-2204.83
-2712.22
-3167.04
-2329.09
-2070.28
-1972.86
-1967.32
-1979.57
-1855.82
-1987.64
-1905.81
-2667.46
-2425.58
-2059.96
-1939.27
-1187.52
-1214.12
-1380.43
-1407.57
-2502.54
-2768.59
-2253.79
-2413.45
-2958.54
-2769.41
-3278.49
-2752.26
-2691.3
-3010.38
-3237.36
-3195.6
-2757.74
-2912.59
-2477.85
-2315.17
-2510.98
-2062.89
-2032.31
-1963.42
-1910.9
-1951.87
-1896.36
-1891.61
-1937.87
-2299.51
-1942.08
-1197.83
-2470.39
-2936.16
-2821.8
-3008.15
-2688.37
-2861.42
-3067.3
-2776.34
-3048.4
-2809.19
-3045.22
-2792.57
-3084.59
-2795.17
-2336.3
-2769.18
-2900.2
-2041.44
-1986
-2720.92
-2320.05
-1927.92
-2352.95
-3006.47
-2339.49
-2090.88
-3065.63
-3137.57
-2290.77
-3019.69
-2994.54
-3003.48
-2045.77
-2844.21
-1954.61
-2981.25
-2165.82
-2890.29
-2268.1
-3254.4
-3234.8
-3144.81
-3047.2
-3035.42
-1954.8
-2764.62
-1980.87
-2639.89
-2595.13
-2545.3
-2418.84
-2314.2
-2146.44
-2894.73
-2310.44
-2403.17
-2935.49
-3254.14
-3213.13
-3090.34
-3215.11
-2054.08
-2736.29
-1980.49
-2644.46
-2638.18
-2738.58
-2766.87
-3055.12
-2418.46
-2892.24
-3190.88
-2897.69
-2589.96
-2844.24
-2225.49
-2921.48
-2855.75
-2966.96
-2513.91
-2123.92
-2253.55
-2305.8
-2312.14
-2308.8
-2514.95
-2027.42
-2599
-2333.59
-2386.56
-2147.37
-2608.68
-2509.82
-2155.52
-2398.24
-2526.08
-2108.15
-2335.29
-2681.19
-2617.29
-2363.06
-2318.81
-2427.7
-3117.84
-2392.18
-3097.29
-3360.98
-3152.64
-2839.01
-3074.45
-2171.55
-2099.13
-2627.89
-2183.05
-2202.67
-2130.88
-2433.01
-2375.76
-1328.33
-1711.85
-2530.42
-2166.54
-2729.43
-2712.41
-2355.86
-2593.54
-2079.19
-2695.24
-3339.66
-2973.93
-3070.04
-2300.38
-3065.07
-3121.92
-2601.79
-2346.31
-2326.32
-2546.84
-1937.05
-2315.13
-1715.79
-1305
-1539.87
-1565.16
-1400.04
-2643.49
-2388.88
-2647.04
-2460.89
-2434.81
-2725.94
-2663.78
-2455.24
-2525.9
-2124.47
-2680.53
-2377.39
-3018.25
-2924.44
-2662.74
-2465.78
-2762.8
-2851.33
-2768.56
-2977.55
-2761.32
-2604.89
-2969.38
-2068.34
-2861.8
-2198.89
-2279.52
-2354.66
-2344.19
-2172.96
-2392.33
-2429.73
-2711.38
-2605.48
-2399.24
-2290.03
-2197.68
-2958.84
-2067.06
-3197.68
-3099.88
-1949.23
-2666.82
-1916.21
-2696.65
-2691.72
-2666.54
-2546.16
-2821.71
-2781.56
-2895.78
-2360.74
-2704.12
-2573.79
-2585.88
-3011.47
-2704.5
-2489.17
-2655.1
-2364.96
-2741.7
-2367.67
-2465.59
-2312.61
-2959.18
-2621.72
-2501.56
-2857.24
-2408.43
-2682.06
-2764.34
-2282.22
-2040.3
-2613.83
-2432.71
-2552.15
-2486.91
-2489.76
-2576.13
-2575.04
-2537.88
-2804.29
-2886.44
-2992.96
-2595.67
-2973.06
-2514.21
-2788.26
-2744.9
-2634.93
-3083.33
-2530.43
-2996.29
-2801.1
-2593.6
-3075.19
-2721.69
-2756.31
-3025.95
-2915.03
-2988.68
-2737.39
-2469.36
-3080.61
-2832.28
-2684.37
-3113.74
-2671.76
-2895.68
-2915.29
-2697.65
-2032.75
-2831.97
-2246.66
-2671.44
-2293.93
-2407.95
-2944.63
-2726
-2069.17
-2767.69
-2427.88
-2560.82
-2358.29
-2185.64
-2412.53
-2350.19
-2178.77
-2767.42
-2101.16
-2695.21
-2329.32
-2947.42
-2732.98
-1959.62
-2947.98
-2610.14
-2321.71
-2774.75
-2238.81
-2610.26
-2393.43
-2307.26
-2291.57
-2330.91
-2413.06
-2326.17
-2231.77
-2330.2
-2318.31
-2576.33
-2393.03
-2350.42
-2403.22
-2201.22
-1965.84
-2430.28
-2159.79
-2101.46
-2300.73
-1880.79
-2041.24
-2488.56
-2183.67
-2281.33
-2259.32
-2282.54
-2223.37
-2310.37
-1841.95
-1690.29
-1967.51
-2000.88
-2310.53
-2186.41
-2063.03
-2097.76
-2453.9
-2327.9
-2514.92
-2618.04
-2348.97
-2513.13
-2438.9
-2228.93
-2167.15
-2013.81
-1952.96
-2231.89
-1842.18
-1873.99
-2187.9
-1791.11
-1891.27
-1859.87
-2169.33
-2333.35
-2673.12
-2617.52
-2412.64
-2512.57
-2824.94
-2674.15
-2595.29
-2757.54
-2277.99
-2925.47
-2632.71
-2859.1
-2454.36
-2942.72
-2577.79
-2392.27
-2717.01
-2765.5
-2347.36
-2731.81
-2943.87
-2627.71
-2751.82
-2208.26
-2952.65
-2151.83
-2942.64
-3215.68
-3271.46
-3327.42
-3400.7
-3050.08
-3058.22
-3171.6
-3221.78
-2998.32
-2075.42
-3215.45
-3064.07
-2019.23
-2003.1
-2733.4
-3063.83
-3127.02
-2080.83
-2772.61
-3024.87
-3123.98
-3058.28
-2801.54
-2259.58
-2022.68
-2314.08
-2147.25
-2009.44
-2608.11
-2385.73
-2120.14
-2361.25
-2337.38
-1802.3
-2046.73
-2088.25
-1698.24
-2067.05
-1756
-2155.95
-1722.94
-2233.42
-2022.51
-2104.49
-2189.02
-2463.64
-2291.79
-2195.15
-1918.69
-2358.38
-2230.71
-1982.28
-2567.98
-2418.06
-2235.71
-2563.03
-2345.71
-2303.76
-2259.19
-1808.42
-2048.15
-2310.23
-1387.32
-1710.64
-1428.68
-1682.84
-1491.91
-1491.62
-1521.48
-1533.52
-1686.98
-2234.86
-1794.82
-1886.36
-1872
-1779.86
-2257.81
-1792.83
-1872.17
-1900.94
-1892.04
-2154.81
-1990.78
-2148.74
-1754.19
-2775.64
-2297.5
-2123.8
-2960.55
-2557.65
-2278.94
-2803.91
-2299.69
-2513.89
-2458.3
-2357.49
-2855.9
-2469.98
-2708.81
-2609.68
-2495.35
-2496.22
-2186.01
-2269.85
-2906.03
-2764.36
-2233.89
-2788.82
-2728.93
-2337.86
-2544.98
-2291.6
-2855.97
-2921.55
-2418.45
-2706.82
-2418.31
-2534.67
-2978.23
-2139.2
-3252.25
-3248.71
-2149.76
-2356.12
-2959.76
-3254.84
-3266.64
-2665.38
-3072.5
-3305.6
-3227.04
-3198.91
-3034.84
-3053.84
-3201.9
-2114.36
-2217.08
-2755.88
-2034.56
-3006.23
-2042.33
-2015.65
-2260.85
-3010.04
-3120.48
-3008.86
-2177.8
-3069.19
-2229.15
-2827.88
-2781.41
-2027.14
-3040.67
-2011.63
-2301.76
-1902.59
-1590.86
-2091.21
-2519.82
-2152.59
-2208.9
-2176.67
-2196.71
-2239.6
-2329.29
-1936.93
-2305.24
-2077.52
-2026.77
-2074.11
-2125.39
-1684.43
-2062.74
-2084.61
-1747.75
-2103.93
-2069.44
-1685.51
-1798.86
-2251.62
-2174.93
-1789.52
-1995.85
-2639.98
-2338.03
-2182.07
-2015.85
-2364.78
-2312.3
-2239.06
-1864
-1609.39
-2308.89
-2464.07
-2496.6
-2571.65
-2095.08
-2243.66
-2076.91
-2307.46
-2297.2
-1944.47
-2207.66
-1921.18
-1973.3
-1541.41
-1524.01
-1369.25
-1372.19
-1663.56
-1666.28
-1301.15
-1327.34
-1730.52
-2573.21
-2680.7
-2683.99
-2704.06
-2697.42
-2681.57
-2706.14
-2721.92
-2653.97
-2361.46
-2641.95
-2608.48
-2446.28
-2836.81
-2723.63
-2649.78
-2754.95
-2840.97
-2900.94
-2792.56
-2325.99
-2501.04
-2421.31
-2655.42
-2517.24
-2589.59
-2318.73
-2821.43
-2963.31
-2500
-2671.64
-2521.1
-2852.16
-2718.15
-2683.08
-2658.31
-2858.29
-2695.77
-2694.6
-2868.88
-2617.25
-2737.51
-3144.63
-2941.48
-2685.67
-2949.59
-2622.59
-2869.59
-2904.71
-2630.95
-2732.76
-2963.77
-3088.71
-2504.54
-2964.61
-2762.51
-2610.77
-3064.73
-2938.12
-2737.19
-2976.39
-2950.63
-2563.92
-2446.97
-3063.93
-2918.07
-2550.6
-3019.82
-3107.85
-2947.17
-2915.36
-2854.15
-2163.01
-2687.12
-2274.09
-2469.05
-2362.95
-2604.5
-2061.43
-2912.02
-2948.09
-2075.91
-2770.29
-2722.18
-2466.31
-2433.49
-2244.52
-2887.15
-2871.56
-2612.91
-2096.14
-2901.94
-2449.8
-2529.54
-2738.53
-2207.28
-2750.25
-2328.04
-2350.52
-2545.25
-2115.61
-2940.3
-2746.95
-2831.3
-2339.2
-2421.55
-2231.94
-2732.27
-2739.47
-2370.79
-2442.87
-2298.08
-2311.68
-2326.02
-2492.46
-2332.87
-2491.55
-1999.74
-2320.76
-2238.79
-2154.71
-2288.72
-2245.65
-1888.68
-1988.74
-2298.27
-2083.32
-2455.87
-2367.53
-2247.72
-2214.56
-2563.24
-2622.5
-2388.91
-2338.38
-2391.27
-2303.24
-2276.55
-2297.57
-1879
-1682.84
-2350.43
-1864.62
-2254.63
-2286.39
-2066.8
-2043.42
-2324.54
-2022.6
-2574.31
-2371.39
-2325.83
-2299.95
-2318.67
-2059.53
-2509.9
-2255.7
-2728.81
-3024.24
-2482.62
-2649.94
-2139.03
-2600.56
-2136.18
-2230.19
-2744.83
-3125.08
-2390.73
-2285.71
-2758.04
-2910.34
-2619.74
-2779.23
-1993.42
-1408.17
-3142.94
-2653.55
-2740.08
-1928.8
-1389.32
-2045.12
-2760.31
-3120.8
-3052.96
-2076.55
-2840.61
-3038.19
-2802.75
-3030.32
-2491.15
-2990.33
-2681.05
-2572.35
-2814.87
-3010.56
-2701.97
-2787.56
-2947.8
-2770.15
-2881.45
-2786.73
-2817.71
-2269.21
-2520.38
-3276.34
-2402.45
-3127.24
-2544.52
-2939.75
-2674.84
-2766.45
-2433.33
-2606
-3159.76
-2667.26
-3121.68
-2531.14
-2563.68
-2968.89
-2216.43
-3086.5
-3258.01
-3212.34
-2946.6
-3031.79
-3069.18
-3019.34
-3062.45
-2507.63
-2484.82
-2933.77
-2258.18
-2719.03
-2565.57
-2548.51
-2944.55
-2764.75
-2988.32
-2341.58
-2704.45
-3021.63
-2974.65
-3167.73
-2763.74
-3044.94
-3070.57
-2384.44
-2793.76
-2833.38
-2788.5
-2479.24
-2802.77
-2389.61
-2678.02
-1840.62
-2324.29
-2541.4
-2414.52
-2092.19
-2429.93
-2085.06
-2019.2
-2431.79
-2453.65
-2081.85
-2588.87
-3018.9
-2880.41
-3128.54
-2731.64
-2964.47
-3189.05
-2497.71
-3261.1
-2511.33
-2693.31
-2660.2
-2429.99
-2915.81
-2092.29
-2260.75
-2790.38
-2107.91
-2491.62
-2766.41
-2424.87
-2157.32
-1707.02
-1605.93
-2675.29
-2346.81
-1434.55
-1428.19
-1600.69
-2620.11
-2013.93
-2489.96
-1982.06
-2456.8
-2085.89
-2500.8
-2038.07
-2398.9
-2991.53
-2782.76
-3076.49
-2160.85
-2091.34
-2629.51
-2688.27
-2687.39
-2987.89
-2449.34
-3167.43
-2525.28
-2552.77
-3111.77
-2412.58
-2683.31
-2971.17
-2103.4
-3091.23
-2433.61
-2383.19
-2122.06
-2725.8
-2453.36
-2740.67
-2845.94
-2413.02
-1760.31
-2174.14
-1698.17
-2676.23
-2277.93
-1460.76
-1625.92
-1426.77
-2558.27
-2575.33
-3030.75
-2703.85
-2952.39
-3008.37
-2654.39
-2998.69
-3056.18
-3039.89
-2882.84
-2553.45
-2762.48
-2847.26
-2768.67
-2353.45
-2552.89
-2349.32
-2652.27
-3232.63
-3236.3
-3366.62
-2792.3
-2668.78
-3273.78
-3194.11
-2108.6
-2858.04
-3010.44
-2446.73
-3247.91
-3274.86
-2296.27
-2955.52
-2929.36
-2471.84
-3295.78
-3268.99
-3254.59
-2293.66
-2979.28
-3020
-2462.68
-3310.35
-2968.84
-2429.19
-3095.32
-2809.17
-2214.59
-3033.59
-3070.58
-3016.18
-2872.39
-3262.02
-3230.51
-3278.82
-3355.97
-2127.42
-3027.9
-3357.84
-2335.26
-2886.8
-3087.21
-3076.63
-2864.6
-2640.49
-3133.23
-2749.55
-2300.56
-2994.62
-3060.46
-3087.95
-2806.87
-3296.26
-2302.94
-2965.97
-3333.4
-2295.86
-2753.6
-3099.88
-3033.86
-2990.46
-2965.48
-3075.05
-3114.99
-2840.51
-2716.16
-2670.58
-2738.04
-2653.06
-3000.62
-2304.71
-2825.77
-2771.65
-2890.18
-2887.51
-2890.47
-2850.16
-2523.93
-2248.57
-2139.87
-2341.97
-2461.3
-2367.53
-2362.01
-2420.26
-2532.79
-2133.56
-2091.41
-2723.16
-3250.24
-3258.43
-3097.88
-2177.8
-2079.82
-2907.64
-2477.18
-3140.85
-2712.85
-2084.48
-2092.08
-2359.68
-2104.84
-2067.34
-2063.61
-2101.21
-1684.8
-1344.69
-2667.09
-2719.79
-2652.09
-2759.94
-2655.98
-2823.27
-2420.54
-3340.78
-3105.63
-2474.4
-2647.22
-2070.05
-1697.49
-1358.67
-1742.87
-2031.89
-2592.68
-2084.9
-2144.45
-2642.51
-2595.3
-2484.7
-2522.88
-2752.02
-2638.39
-3083.69
-2347.71
-2261.54
-2870.66
-2876.49
-2933.83
-2309.37
-2205.92
-2492.36
-2408.07
-2425.88
-2169.05
-2020.15
-2987.77
-2548.32
-2848.88
-2883.02
-3063.76
-3002.06
-2936.71
-2192.27
-3060.27
-2987.57
-2936.56
-3142.62
-3135.81
-2833.94
-2402.15
-2548.92
-2617.65
-2722.28
-2611.06
-2596.64
-2629.67
-2496.35
-2261.82
-2675.39
-2566.41
-2567.64
-2580.27
-2629.56
-2613.23
-2674.89
-2675.08
-2758.75
-2635.41
-2866.06
-2241.72
-2657.1
-2843.41
-2580.51
-2121.85
-2644.28
-2640.41
-2853.62
-2857.62
-2666.15
-2637.49
-2561.6
-2217.27
-2538.96
-2694.01
-2837.32
-2748.03
-2589.94
-2434.43
-2555
-2585.54
-2897
-3028.92
-2402.63
-2704.43
-2975.86
-2986.86
-2971.21
-2897.29
-2937.37
-3134.65
-2370.3
-2839.64
-2972.98
-2919.59
-2960.97
-2925.36
-2937.86
-2481.51
-2513.74
-2927.57
-2853.8
-2872.76
-2699.75
-2384.29
-2524.51
-2894.7
-2923.81
-2281.64
-2548.64
-2736
-2764.39
-2736.15
-2538.14
-2856.79
-2740.14
-2416.62
-2488.83
-2570.03
-2333.77
-2323.41
-2079.09
-2042
-2459.15
-2224.83
-2244.88
-2245.81
-1605.82
-1647.18
-2204.59
-2551.8
-2270.65
-2273.07
-2280.88
-2211.82
-2163.86
-1850.3
-2281.09
-2220.08
-1954.08
-2615.57
-2531.71
-1862.72
-2250.07
-2499.19
-1887.81
-2151.78
-2185.49
-1869.32
-2624.3
-2737.17
-2103.86
-2468.45
-2163.21
-2119.35
-2167.35
-2574.51
-2507.56
-2897.53
-2669.71
-2165.25
-2575.82
-3051.91
-2320.92
-2615.62
-2700.79
-2734.21
-2639.9
-2786.58
-2669.74
-2822.75
-2837.85
-2320.61
-2543.13
-2650.18
-2649.83
-2701.24
-2836.8
-3357.05
-2069.64
-3109.91
-3322.2
-2272.73
-3082.89
-3087.97
-2941.9
-2502.87
-2962.18
-2321.35
-3256.47
-2198.48
-2818.82
-2823.7
-3209.58
-3062.67
-3077.82
-2908.79
-1948.14
-3071.43
-2637.28
-2381.06
-2571.36
-2255.15
-1691.62
-1788.01
-2487.05
-2286.71
-2315.38
-2206.17
-2603.9
-2029.36
-2213.81
-1683.51
-2472.65
-2228.66
-1316.5
-1315.84
-1749.74
-1317.89
-1760.89
-1685.71
-1445.09
-2654.69
-1740.99
-2206.89
-2589.75
-2599.08
-2477.4
-2506.59
-2207.97
-2156.93
-2165.1
-2126.81
-2563.83
-2514.34
-2089.91
-2729.92
-2629.39
-2489.9
-2946.22
-2662.71
-2811.76
-2641.66
-2163.34
-2602.43
-3017.24
-2379.26
-2727.51
-2731.97
-2724.2
-2843.48
-2480.41
-2735.99
-2927.24
-2550.49
-2333.15
-3092.34
-3181.93
-3132.06
-3375.58
-3283.13
-2924.53
-3239.17
-2285.18
-2889.19
-2489.28
-3017.54
-3136.31
-2711.61
-3146.26
-2902.84
-2815
-2859.86
-3141.13
-2671.21
-2284.85
-2900.49
-2478.21
-2325.03
-2350.56
-2177.06
-2711.05
-2283.53
-2193.23
-1751.44
-2497.55
-2233.95
-2631.84
-2156.39
-1709.21
-1701.98
-1446.8
-2595.81
-2655.61
-2825.27
-2500.41
-2727.47
-2633.56
-2691.09
-2609.12
-2728.12
-2782.87
-2964.04
-2275.71
-2512.35
-2812.09
-2531.35
-2592.44
-2696.07
-2744.78
-2863.93
-2885.53
-2730.62
-2644.31
-2675.39
-3054.13
-2960.7
-3107.63
-2134.83
-2771.43
-2967.18
-2931.58
-2947.08
-2972.88
-2285.13
-2932.63
-3087.84
-2393.96
-2949.58
-2913.77
-2418.88
-2832.37
-2909.97
-2872.15
-2805.29
-2388.52
-2867.55
-2795.01
-2845.97
-2720.31
-1960.86
-2337.96
-2266.01
-1657.44
-2210.08
-2557.03
-1956.66
-2532.16
-2221.97
-2174.19
-2471.91
-2615.48
)
;
    }
}


// ************************************************************************* //
