/*--------------------------------*- C++ -*----------------------------------*\
| =========                 |                                                 |
| \\      /  F ield         | OpenFOAM: The Open Source CFD Toolbox           |
|  \\    /   O peration     | Version:  v1906                                 |
|   \\  /    A nd           | Web:      www.OpenFOAM.com                      |
|    \\/     M anipulation  |                                                 |
\*---------------------------------------------------------------------------*/
FoamFile
{
    version     2.0;
    format      ascii;
    class       volVectorField;
    location    "17.4/oil";
    object      U;
}
// * * * * * * * * * * * * * * * * * * * * * * * * * * * * * * * * * * * * * //

dimensions      [0 1 -1 0 0 0 0];


internalField   nonuniform List<vector> 
27760
(
(-3.06798e-05 -3.13046e-05 -3.06798e-05)
(-6.06022e-05 -2.34971e-05 -2.20897e-05)
(-4.50993e-06 -6.10925e-06 -6.00766e-06)
(-7.44631e-06 -1.01746e-06 -1.04674e-06)
(-1.89464e-06 -3.48311e-07 -3.76871e-07)
(-1.14779e-06 -1.70782e-07 -1.93664e-07)
(-4.7765e-07 -6.65581e-08 -8.73439e-08)
(-1.87265e-07 -2.64748e-08 -4.71329e-08)
(-2.9942e-08 -6.8971e-09 -2.80514e-08)
(4.79853e-08 2.8238e-09 -1.8886e-08)
(8.11928e-08 8.24394e-09 -1.3914e-08)
(8.52782e-08 1.15682e-08 -1.08562e-08)
(6.95001e-08 1.37225e-08 -8.86851e-09)
(4.00216e-08 1.50608e-08 -7.60265e-09)
(1.94695e-09 1.57584e-08 -6.92034e-09)
(-4.00177e-08 1.59318e-08 -6.74203e-09)
(-8.14943e-08 1.56321e-08 -7.01408e-09)
(-1.18586e-07 1.49213e-08 -7.65583e-09)
(-1.48118e-07 1.38538e-08 -8.56398e-09)
(-1.67855e-07 1.25033e-08 -9.6063e-09)
(-1.76598e-07 1.09685e-08 -1.06251e-08)
(-1.74185e-07 9.34159e-09 -1.14637e-08)
(-1.6144e-07 7.6818e-09 -1.19703e-08)
(-1.4002e-07 6.04602e-09 -1.1976e-08)
(-1.12311e-07 4.45308e-09 -1.13978e-08)
(-8.13441e-08 2.95809e-09 -1.01466e-08)
(-5.06383e-08 1.69002e-09 -8.2059e-09)
(-2.41304e-08 9.08549e-10 -5.72329e-09)
(-5.63953e-09 1.05953e-09 -3.19329e-09)
(1.05066e-09 1.93369e-09 -9.19422e-10)
(-2.22784e-05 -6.2245e-05 -2.22784e-05)
(-7.39023e-06 -7.95867e-06 -9.97972e-06)
(-1.01325e-05 -9.59344e-06 -3.48529e-06)
(-5.01376e-06 -2.60416e-06 -9.89243e-07)
(-2.44297e-06 -1.47933e-06 -4.82256e-07)
(-1.3527e-06 -6.98775e-07 -2.28233e-07)
(-6.239e-07 -3.74287e-07 -1.0622e-07)
(-2.33521e-07 -2.11264e-07 -5.07785e-08)
(-5.90765e-09 -1.27968e-07 -2.23162e-08)
(1.1534e-07 -8.1564e-08 -6.97861e-09)
(1.67352e-07 -5.3604e-08 2.29246e-09)
(1.69771e-07 -3.54365e-08 8.42656e-09)
(1.35835e-07 -2.3224e-08 1.26552e-08)
(7.58453e-08 -1.52518e-08 1.5473e-08)
(-7.82864e-10 -1.07432e-08 1.70293e-08)
(-8.50368e-08 -9.25859e-09 1.73749e-08)
(-1.68365e-07 -1.04587e-08 1.66043e-08)
(-2.43068e-07 -1.39404e-08 1.48775e-08)
(-3.0284e-07 -1.92109e-08 1.24434e-08)
(-3.4318e-07 -2.56991e-08 9.59412e-09)
(-3.61669e-07 -3.27875e-08 6.63246e-09)
(-3.58017e-07 -3.98799e-08 3.84977e-09)
(-3.3389e-07 -4.64225e-08 1.52361e-09)
(-2.92639e-07 -5.18702e-08 -1.14888e-10)
(-2.38998e-07 -5.56647e-08 -9.13897e-10)
(-1.78784e-07 -5.70555e-08 -8.04642e-10)
(-1.18531e-07 -5.49319e-08 1.34211e-10)
(-6.49868e-08 -4.76957e-08 1.55978e-09)
(-2.44485e-08 -3.31883e-08 2.64184e-09)
(-1.90499e-09 -1.13632e-08 2.10083e-09)
(-6.17989e-06 -5.66751e-06 -6.17991e-06)
(-9.87143e-06 -1.05207e-05 -3.59283e-06)
(-5.46214e-06 -5.55407e-06 -1.59932e-06)
(-3.65757e-06 -2.81799e-06 -7.66061e-07)
(-2.04106e-06 -1.67403e-06 -3.69955e-07)
(-1.14786e-06 -9.76873e-07 -1.7765e-07)
(-5.38304e-07 -6.26917e-07 -8.08972e-08)
(-1.71583e-07 -4.3135e-07 -3.27861e-08)
(5.43673e-08 -3.1947e-07 -6.37731e-09)
(1.78969e-07 -2.5085e-07 9.13128e-09)
(2.30406e-07 -2.06054e-07 1.93201e-08)
(2.25557e-07 -1.75242e-07 2.65374e-08)
(1.77375e-07 -1.53701e-07 3.17596e-08)
(9.72343e-08 -1.39195e-07 3.53156e-08)
(-3.66801e-09 -1.30692e-07 3.72741e-08)
(-1.14097e-07 -1.27574e-07 3.76656e-08)
(-2.23167e-07 -1.29238e-07 3.65837e-08)
(-3.2099e-07 -1.34923e-07 3.4221e-08)
(-3.9944e-07 -1.43637e-07 3.08792e-08)
(-4.52753e-07 -1.54238e-07 2.69231e-08)
(-4.77854e-07 -1.65514e-07 2.27425e-08)
(-4.74409e-07 -1.76262e-07 1.87097e-08)
(-4.44589e-07 -1.85298e-07 1.51491e-08)
(-3.92718e-07 -1.91422e-07 1.2313e-08)
(-3.24783e-07 -1.93277e-07 1.03516e-08)
(-2.47973e-07 -1.8913e-07 9.29391e-09)
(-1.70135e-07 -1.76555e-07 8.99155e-09)
(-9.89672e-08 -1.52166e-07 8.97784e-09)
(-4.18627e-08 -1.11125e-07 8.27914e-09)
(-4.5529e-09 -4.80686e-08 4.80395e-09)
(-1.13642e-06 -8.05469e-06 -1.13644e-06)
(-2.78544e-06 -5.54838e-06 -1.05104e-06)
(-2.65743e-06 -4.11209e-06 -7.77645e-07)
(-2.07307e-06 -2.57375e-06 -4.29403e-07)
(-1.29795e-06 -1.72924e-06 -2.25608e-07)
(-7.49008e-07 -1.18356e-06 -1.1233e-07)
(-3.27039e-07 -8.70849e-07 -4.85914e-08)
(-4.14061e-08 -6.79093e-07 -1.32153e-08)
(1.45593e-07 -5.59067e-07 8.17246e-09)
(2.50837e-07 -4.79497e-07 2.20985e-08)
(2.89468e-07 -4.24051e-07 3.20934e-08)
(2.72572e-07 -3.83968e-07 3.96577e-08)
(2.10602e-07 -3.54912e-07 4.53625e-08)
(1.14358e-07 -3.34844e-07 4.93299e-08)
(-4.46796e-09 -3.22799e-07 5.15167e-08)
(-1.3354e-07 -3.18105e-07 5.19083e-08)
(-2.60636e-07 -3.19978e-07 5.05856e-08)
(-3.74522e-07 -3.2733e-07 4.77565e-08)
(-4.65931e-07 -3.38687e-07 4.37678e-08)
(-5.28323e-07 -3.52327e-07 3.90353e-08)
(-5.58244e-07 -3.66376e-07 3.40096e-08)
(-5.55402e-07 -3.78953e-07 2.91099e-08)
(-5.22341e-07 -3.88183e-07 2.46919e-08)
(-4.63984e-07 -3.92131e-07 2.10189e-08)
(-3.87034e-07 -3.88579e-07 1.82353e-08)
(-2.9936e-07 -3.74717e-07 1.63483e-08)
(-2.09415e-07 -3.46675e-07 1.51792e-08)
(-1.25304e-07 -2.98897e-07 1.41921e-08)
(-5.53359e-08 -2.22621e-07 1.23236e-08)
(-6.51025e-09 -1.02633e-07 6.82807e-09)
(-3.97926e-07 -2.36336e-06 -3.97953e-07)
(-1.49511e-06 -3.08226e-06 -5.00692e-07)
(-1.42746e-06 -2.77598e-06 -3.74813e-07)
(-1.16766e-06 -2.12478e-06 -2.26631e-07)
(-7.5914e-07 -1.66126e-06 -1.24272e-07)
(-4.12534e-07 -1.31538e-06 -6.0682e-08)
(-1.20809e-07 -1.08703e-06 -2.11422e-08)
(9.42017e-08 -9.31185e-07 3.32662e-09)
(2.40631e-07 -8.23477e-07 1.98537e-08)
(3.2206e-07 -7.45786e-07 3.19019e-08)
(3.44548e-07 -6.8773e-07 4.13776e-08)
(3.14394e-07 -6.43465e-07 4.90281e-08)
(2.39559e-07 -6.10129e-07 5.50253e-08)
(1.29869e-07 -5.86469e-07 5.92822e-08)
(-2.99687e-09 -5.71939e-07 6.16284e-08)
(-1.46154e-07 -5.66002e-07 6.19934e-08)
(-2.86583e-07 -5.67817e-07 6.04408e-08)
(-4.12174e-07 -5.76064e-07 5.71883e-08)
(-5.12915e-07 -5.88851e-07 5.26324e-08)
(-5.81778e-07 -6.03926e-07 4.72354e-08)
(-6.15128e-07 -6.18813e-07 4.15076e-08)
(-6.12777e-07 -6.31008e-07 3.59112e-08)
(-5.77569e-07 -6.37972e-07 3.08299e-08)
(-5.14846e-07 -6.37066e-07 2.65365e-08)
(-4.31743e-07 -6.25241e-07 2.31741e-08)
(-3.365e-07 -5.98601e-07 2.07362e-08)
(-2.3788e-07 -5.51701e-07 1.90283e-08)
(-1.44263e-07 -4.76379e-07 1.74702e-08)
(-6.47991e-08 -3.58714e-07 1.49269e-08)
(-7.79475e-09 -1.70241e-07 8.18256e-09)
(-1.892e-07 -1.59141e-06 -1.89229e-07)
(-6.36414e-07 -2.14889e-06 -2.27315e-07)
(-6.76904e-07 -2.15268e-06 -1.76754e-07)
(-5.76992e-07 -1.89792e-06 -1.12679e-07)
(-3.61289e-07 -1.66376e-06 -6.14818e-08)
(-1.42759e-07 -1.46176e-06 -2.62357e-08)
(5.83576e-08 -1.31007e-06 -1.80591e-09)
(2.17308e-07 -1.19515e-06 1.53172e-08)
(3.28136e-07 -1.10778e-06 2.84018e-08)
(3.86751e-07 -1.03941e-06 3.9078e-08)
(3.93318e-07 -9.84793e-07 4.82021e-08)
(3.50605e-07 -9.40977e-07 5.59848e-08)
(2.64513e-07 -9.06752e-07 6.22811e-08)
(1.43888e-07 -8.81792e-07 6.68232e-08)
(1.95279e-10 -8.66094e-07 6.93184e-08)
(-1.53439e-07 -8.5935e-07 6.96471e-08)
(-3.03544e-07 -8.60747e-07 6.78553e-08)
(-4.37451e-07 -8.6884e-07 6.41688e-08)
(-5.44666e-07 -8.81449e-07 5.90395e-08)
(-6.17872e-07 -8.95925e-07 5.29848e-08)
(-6.53398e-07 -9.09337e-07 4.65833e-08)
(-6.51196e-07 -9.18658e-07 4.03415e-08)
(-6.14394e-07 -9.20813e-07 3.46728e-08)
(-5.48659e-07 -9.12554e-07 2.98643e-08)
(-4.61395e-07 -8.90057e-07 2.6059e-08)
(-3.6105e-07 -8.48338e-07 2.32412e-08)
(-2.56565e-07 -7.80249e-07 2.12035e-08)
(-1.56525e-07 -6.74589e-07 1.93348e-08)
(-7.07422e-08 -5.11292e-07 1.64418e-08)
(-8.54824e-09 -2.46433e-07 9.00232e-09)
(-7.30038e-08 -9.77976e-07 -7.30347e-08)
(-2.78099e-07 -1.60413e-06 -9.6851e-08)
(-3.01441e-07 -1.80916e-06 -7.75452e-08)
(-2.40991e-07 -1.79096e-06 -4.96079e-08)
(-1.05494e-07 -1.71731e-06 -2.40357e-08)
(4.6176e-08 -1.62578e-06 -4.33375e-09)
(1.93013e-07 -1.5419e-06 1.11722e-08)
(3.13742e-07 -1.46857e-06 2.36659e-08)
(3.97843e-07 -1.40603e-06 3.44986e-08)
(4.38019e-07 -1.35238e-06 4.42878e-08)
(4.31327e-07 -1.30635e-06 5.32477e-08)
(3.78369e-07 -1.26742e-06 6.12285e-08)
(2.83613e-07 -1.23581e-06 6.78397e-08)
(1.55129e-07 -1.21206e-06 7.26653e-08)
(4.10277e-09 -1.19668e-06 7.52992e-08)
(-1.56289e-07 -1.18957e-06 7.55879e-08)
(-3.12429e-07 -1.19004e-06 7.35622e-08)
(-4.51346e-07 -1.19662e-06 6.94453e-08)
(-5.62281e-07 -1.20703e-06 6.37491e-08)
(-6.37807e-07 -1.21842e-06 5.70507e-08)
(-6.74286e-07 -1.22757e-06 4.99991e-08)
(-6.71869e-07 -1.23117e-06 4.31483e-08)
(-6.33945e-07 -1.22578e-06 3.69494e-08)
(-5.66409e-07 -1.20766e-06 3.16976e-08)
(-4.76838e-07 -1.1723e-06 2.7538e-08)
(-3.73757e-07 -1.11363e-06 2.44453e-08)
(-2.6616e-07 -1.02269e-06 2.22016e-08)
(-1.6273e-07 -8.84915e-07 2.01767e-08)
(-7.36571e-08 -6.73397e-07 1.71355e-08)
(-8.88597e-09 -3.27498e-07 9.39887e-09)
(-2.9017e-08 -7.67267e-07 -2.90489e-08)
(-1.05095e-07 -1.40125e-06 -3.90021e-08)
(-1.00545e-07 -1.69706e-06 -3.01445e-08)
(-4.59153e-08 -1.80373e-06 -1.68908e-08)
(5.48776e-08 -1.8303e-06 -3.36567e-09)
(1.70781e-07 -1.81608e-06 8.43277e-09)
(2.84796e-07 -1.78635e-06 1.90651e-08)
(3.79824e-07 -1.75071e-06 2.88843e-08)
(4.44623e-07 -1.71406e-06 3.83748e-08)
(4.70923e-07 -1.67837e-06 4.7653e-08)
(4.5435e-07 -1.64485e-06 5.65742e-08)
(3.94283e-07 -1.61461e-06 6.47578e-08)
(2.94262e-07 -1.5889e-06 7.16403e-08)
(1.61741e-07 -1.56883e-06 7.67027e-08)
(7.58033e-09 -1.55523e-06 7.94411e-08)
(-1.55221e-07 -1.54817e-06 7.96898e-08)
(-3.13229e-07 -1.54705e-06 7.74667e-08)
(-4.53468e-07 -1.55058e-06 7.29801e-08)
(-5.65128e-07 -1.55651e-06 6.68003e-08)
(-6.40828e-07 -1.56203e-06 5.95478e-08)
(-6.77054e-07 -1.56393e-06 5.19392e-08)
(-6.74162e-07 -1.55881e-06 4.45773e-08)
(-6.35739e-07 -1.54306e-06 3.79477e-08)
(-5.67804e-07 -1.51262e-06 3.23503e-08)
(-4.77985e-07 -1.46241e-06 2.793e-08)
(-3.74743e-07 -1.3853e-06 2.46501e-08)
(-2.66964e-07 -1.27039e-06 2.22889e-08)
(-1.63257e-07 -1.09961e-06 2.02074e-08)
(-7.38533e-08 -8.3885e-07 1.71595e-08)
(-8.8758e-09 -4.10244e-07 9.43838e-09)
(-9.14303e-09 -6.92515e-07 -9.17564e-09)
(-2.39615e-08 -1.34887e-06 -1.15756e-08)
(2.83817e-09 -1.70271e-06 -6.86112e-09)
(6.06949e-08 -1.88629e-06 -3.82683e-11)
(1.46499e-07 -1.98066e-06 7.67165e-09)
(2.42743e-07 -2.02306e-06 1.53766e-08)
(3.36384e-07 -2.03729e-06 2.33026e-08)
(4.1395e-07 -2.03549e-06 3.15228e-08)
(4.6501e-07 -2.02477e-06 4.01402e-08)
(4.81454e-07 -2.00905e-06 4.90284e-08)
(4.58485e-07 -1.99097e-06 5.78517e-08)
(3.94901e-07 -1.97255e-06 6.60986e-08)
(2.93677e-07 -1.95552e-06 7.30913e-08)
(1.61739e-07 -1.94125e-06 7.82523e-08)
(9.50127e-09 -1.9307e-06 8.10061e-08)
(-1.50519e-07 -1.92399e-06 8.12164e-08)
(-3.0547e-07 -1.92065e-06 7.88924e-08)
(-4.42735e-07 -1.91961e-06 7.41898e-08)
(-5.51731e-07 -1.91889e-06 6.77212e-08)
(-6.25288e-07 -1.91593e-06 6.01313e-08)
(-6.6005e-07 -1.90774e-06 5.21912e-08)
(-6.56562e-07 -1.8911e-06 4.45311e-08)
(-6.18513e-07 -1.86246e-06 3.76556e-08)
(-5.51917e-07 -1.81759e-06 3.18729e-08)
(-4.64261e-07 -1.75093e-06 2.73226e-08)
(-3.63757e-07 -1.65434e-06 2.39639e-08)
(-2.58981e-07 -1.51503e-06 2.15702e-08)
(-1.58248e-07 -1.31131e-06 1.95132e-08)
(-7.14802e-08 -1.00186e-06 1.6579e-08)
(-8.54993e-09 -4.91727e-07 9.15279e-09)
(-7.06466e-10 -6.88158e-07 -7.39293e-10)
(1.34704e-08 -1.37806e-06 6.98718e-10)
(5.29606e-08 -1.77471e-06 3.84581e-09)
(1.12941e-07 -2.00925e-06 7.87486e-09)
(1.89878e-07 -2.15113e-06 1.27822e-08)
(2.72936e-07 -2.23593e-06 1.83344e-08)
(3.52066e-07 -2.28599e-06 2.4682e-08)
(4.16597e-07 -2.3142e-06 3.18224e-08)
(4.57397e-07 -2.32849e-06 3.97156e-08)
(4.67057e-07 -2.33362e-06 4.81292e-08)
(4.40901e-07 -2.33275e-06 5.66362e-08)
(3.77548e-07 -2.32818e-06 6.46686e-08)
(2.79618e-07 -2.32174e-06 7.14881e-08)
(1.53489e-07 -2.31478e-06 7.65159e-08)
(8.93275e-09 -2.30818e-06 7.91538e-08)
(-1.42375e-07 -2.30204e-06 7.93271e-08)
(-2.88678e-07 -2.29601e-06 7.70375e-08)
(-4.18134e-07 -2.28928e-06 7.236e-08)
(-5.20683e-07 -2.28024e-06 6.59194e-08)
(-5.89554e-07 -2.26679e-06 5.83384e-08)
(-6.21631e-07 -2.24635e-06 5.04062e-08)
(-6.17581e-07 -2.21608e-06 4.27667e-08)
(-5.81041e-07 -2.17268e-06 3.59292e-08)
(-5.17832e-07 -2.11194e-06 3.01982e-08)
(-4.35066e-07 -2.02791e-06 2.57035e-08)
(-3.40493e-07 -1.91153e-06 2.2401e-08)
(-2.42132e-07 -1.74818e-06 2.00759e-08)
(-1.47737e-07 -1.51267e-06 1.81311e-08)
(-6.65885e-08 -1.15674e-06 1.54202e-08)
(-7.91992e-09 -5.6911e-07 8.55426e-09)
(2.69236e-09 -7.12891e-07 2.65742e-09)
(2.83655e-08 -1.44265e-06 5.69713e-09)
(7.18789e-08 -1.87487e-06 8.11107e-09)
(1.29701e-07 -2.1465e-06 1.08047e-08)
(1.97974e-07 -2.32359e-06 1.42377e-08)
(2.69311e-07 -2.44116e-06 1.85021e-08)
(3.35879e-07 -2.52075e-06 2.37349e-08)
(3.89224e-07 -2.5753e-06 2.9929e-08)
(4.21649e-07 -2.61288e-06 3.69864e-08)
(4.26702e-07 -2.63841e-06 4.4646e-08)
(4.00172e-07 -2.65505e-06 5.24565e-08)
(3.40748e-07 -2.66497e-06 5.98502e-08)
(2.50775e-07 -2.66981e-06 6.61003e-08)
(1.36e-07 -2.67071e-06 7.06812e-08)
(5.26336e-09 -2.66839e-06 7.30228e-08)
(-1.31038e-07 -2.66293e-06 7.31594e-08)
(-2.62712e-07 -2.6541e-06 7.10878e-08)
(-3.79172e-07 -2.6413e-06 6.67613e-08)
(-4.71247e-07 -2.6233e-06 6.07649e-08)
(-5.32789e-07 -2.59849e-06 5.36539e-08)
(-5.60961e-07 -2.56485e-06 4.6203e-08)
(-5.56466e-07 -2.52004e-06 3.90201e-08)
(-5.22735e-07 -2.46116e-06 3.25956e-08)
(-4.65154e-07 -2.38415e-06 2.72204e-08)
(-3.90214e-07 -2.28282e-06 2.30191e-08)
(-3.04917e-07 -2.1473e-06 1.99491e-08)
(-2.16469e-07 -1.9613e-06 1.78097e-08)
(-1.31818e-07 -1.6964e-06 1.60687e-08)
(-5.92453e-08 -1.29791e-06 1.36977e-08)
(-6.99265e-09 -6.39618e-07 7.65048e-09)
(3.6107e-09 -7.47242e-07 3.5744e-09)
(3.09086e-08 -1.51685e-06 6.90948e-09)
(7.15344e-08 -1.97897e-06 8.8265e-09)
(1.22377e-07 -2.27869e-06 1.07594e-08)
(1.79733e-07 -2.48243e-06 1.32766e-08)
(2.38312e-07 -2.62552e-06 1.66026e-08)
(2.92095e-07 -2.72915e-06 2.08603e-08)
(3.34533e-07 -2.80615e-06 2.60474e-08)
(3.59396e-07 -2.86438e-06 3.20542e-08)
(3.61374e-07 -2.90856e-06 3.86324e-08)
(3.36926e-07 -2.94153e-06 4.53579e-08)
(2.84937e-07 -2.96514e-06 5.17115e-08)
(2.07445e-07 -2.98066e-06 5.70344e-08)
(1.09392e-07 -2.989e-06 6.08989e-08)
(-1.64351e-09 -2.9907e-06 6.28075e-08)
(-1.16941e-07 -2.98599e-06 6.29046e-08)
(-2.28246e-07 -2.97466e-06 6.11815e-08)
(-3.26654e-07 -2.95618e-06 5.74755e-08)
(-4.04259e-07 -2.92966e-06 5.23022e-08)
(-4.55772e-07 -2.89389e-06 4.61065e-08)
(-4.7877e-07 -2.84746e-06 3.95886e-08)
(-4.73936e-07 -2.78862e-06 3.32922e-08)
(-4.44312e-07 -2.71492e-06 2.76629e-08)
(-3.9458e-07 -2.62251e-06 2.29607e-08)
(-3.30351e-07 -2.5051e-06 1.92959e-08)
(-2.57606e-07 -2.35219e-06 1.66355e-08)
(-1.82457e-07 -2.14601e-06 1.48088e-08)
(-1.10791e-07 -1.85535e-06 1.33686e-08)
(-4.95902e-08 -1.41994e-06 1.14455e-08)
(-5.7843e-09 -7.00559e-07 6.45792e-09)
(3.25798e-09 -7.80075e-07 3.21651e-09)
(2.62012e-08 -1.58412e-06 6.053e-09)
(5.86645e-08 -2.07e-06 7.47892e-09)
(9.81458e-08 -2.39066e-06 8.84701e-09)
(1.41639e-07 -2.61421e-06 1.06531e-08)
(1.85459e-07 -2.77664e-06 1.31258e-08)
(2.25257e-07 -2.89903e-06 1.63672e-08)
(2.56253e-07 -2.99408e-06 2.03726e-08)
(2.73769e-07 -3.06932e-06 2.50414e-08)
(2.73756e-07 -3.1291e-06 3.01614e-08)
(2.53465e-07 -3.17583e-06 3.53789e-08)
(2.12032e-07 -3.2109e-06 4.02757e-08)
(1.51102e-07 -3.23522e-06 4.43117e-08)
(7.45749e-08 -3.24958e-06 4.71866e-08)
(-1.15812e-08 -3.25454e-06 4.85379e-08)
(-1.00653e-07 -3.25052e-06 4.85878e-08)
(-1.86513e-07 -3.23739e-06 4.73322e-08)
(-2.62287e-07 -3.21449e-06 4.45219e-08)
(-3.21739e-07 -3.18102e-06 4.0541e-08)
(-3.60717e-07 -3.13609e-06 3.57086e-08)
(-3.77335e-07 -3.07877e-06 3.05917e-08)
(-3.72218e-07 -3.00786e-06 2.5629e-08)
(-3.47846e-07 -2.9214e-06 2.11911e-08)
(-3.07977e-07 -2.81582e-06 1.7485e-08)
(-2.5707e-07 -2.68479e-06 1.46084e-08)
(-1.9982e-07 -2.51732e-06 1.25376e-08)
(-1.4101e-07 -2.29456e-06 1.1146e-08)
(-8.5229e-08 -1.983e-06 1.0094e-08)
(-3.7886e-08 -1.51788e-06 8.71854e-09)
(-4.32785e-09 -7.49474e-07 5.01141e-09)
(2.20237e-09 -8.04901e-07 2.15745e-09)
(1.70467e-08 -1.63381e-06 4.01301e-09)
(3.75221e-08 -2.13618e-06 4.89743e-09)
(6.21431e-08 -2.471e-06 5.75048e-09)
(8.90479e-08 -2.7081e-06 6.9101e-09)
(1.16075e-07 -2.88407e-06 8.54057e-09)
(1.40534e-07 -3.01998e-06 1.0704e-08)
(1.59397e-07 -3.12835e-06 1.3403e-08)
(1.69624e-07 -3.21639e-06 1.65709e-08)
(1.68504e-07 -3.28799e-06 2.00599e-08)
(1.54173e-07 -3.34514e-06 2.36217e-08)
(1.25968e-07 -3.38885e-06 2.69641e-08)
(8.49351e-08 -3.41973e-06 2.97079e-08)
(3.36574e-08 -3.4385e-06 3.16547e-08)
(-2.38361e-08 -3.44582e-06 3.25478e-08)
(-8.29942e-08 -3.4424e-06 3.25462e-08)
(-1.39705e-07 -3.42814e-06 3.16508e-08)
(-1.89298e-07 -3.40217e-06 2.96748e-08)
(-2.2757e-07 -3.36369e-06 2.69046e-08)
(-2.51818e-07 -3.31196e-06 2.35544e-08)
(-2.60877e-07 -3.24644e-06 2.00319e-08)
(-2.5534e-07 -3.16637e-06 1.6632e-08)
(-2.37022e-07 -3.07021e-06 1.361e-08)
(-2.08572e-07 -2.95465e-06 1.11088e-08)
(-1.73049e-07 -2.81344e-06 9.18937e-09)
(-1.33657e-07 -2.63525e-06 7.83513e-09)
(-9.36234e-08 -2.40042e-06 6.97042e-09)
(-5.60438e-08 -2.07386e-06 6.37765e-09)
(-2.45456e-08 -1.58755e-06 5.62166e-09)
(-2.67324e-09 -7.84291e-07 3.36032e-09)
(7.53617e-10 -8.17746e-07 7.01877e-10)
(5.19201e-09 -1.65896e-06 1.28192e-09)
(1.11005e-08 -2.16943e-06 1.56429e-09)
(1.83636e-08 -2.51155e-06 1.90083e-09)
(2.66151e-08 -2.7561e-06 2.41384e-09)
(3.52244e-08 -2.93995e-06 3.16273e-09)
(4.32103e-08 -3.08409e-06 4.17401e-09)
(4.93305e-08 -3.2008e-06 5.44452e-09)
(5.22341e-08 -3.29698e-06 6.93841e-09)
(5.062e-08 -3.37623e-06 8.59065e-09)
(4.35054e-08 -3.44018e-06 1.02861e-08)
(3.04044e-08 -3.48955e-06 1.18919e-08)
(1.16358e-08 -3.52473e-06 1.32283e-08)
(-1.17315e-08 -3.54643e-06 1.41868e-08)
(-3.78609e-08 -3.55535e-06 1.4618e-08)
(-6.44673e-08 -3.55238e-06 1.4557e-08)
(-8.93905e-08 -3.53744e-06 1.40202e-08)
(-1.10295e-07 -3.50957e-06 1.29419e-08)
(-1.25259e-07 -3.46798e-06 1.15173e-08)
(-1.3323e-07 -3.41202e-06 9.85279e-09)
(-1.33925e-07 -3.34141e-06 8.15241e-09)
(-1.27909e-07 -3.25569e-06 6.55374e-09)
(-1.1623e-07 -3.15361e-06 5.16846e-09)
(-1.00295e-07 -3.03205e-06 4.05245e-09)
(-8.16124e-08 -2.8848e-06 3.23191e-09)
(-6.17174e-08 -2.70038e-06 2.70078e-09)
(-4.21439e-08 -2.45869e-06 2.43037e-09)
(-2.43735e-08 -2.1238e-06 2.34565e-09)
(-1.00844e-08 -1.62585e-06 2.2666e-09)
(-8.81079e-10 -8.03449e-07 1.56707e-09)
(-8.92415e-10 -8.16343e-07 -9.51243e-10)
(-8.10507e-09 -1.65542e-06 -1.79923e-09)
(-1.82079e-08 -2.16484e-06 -2.1498e-09)
(-2.97038e-08 -2.50722e-06 -2.32932e-09)
(-4.12543e-08 -2.75318e-06 -2.44756e-09)
(-5.19295e-08 -2.93935e-06 -2.56611e-09)
(-6.09643e-08 -3.08647e-06 -2.70491e-09)
(-6.78214e-08 -3.20655e-06 -2.86609e-09)
(-7.21655e-08 -3.30627e-06 -3.03122e-09)
(-7.38631e-08 -3.38906e-06 -3.16727e-09)
(-7.30118e-08 -3.45635e-06 -3.23853e-09)
(-6.99471e-08 -3.50869e-06 -3.22437e-09)
(-6.52065e-08 -3.54634e-06 -3.11959e-09)
(-5.93553e-08 -3.56988e-06 -2.9773e-09)
(-5.28333e-08 -3.57987e-06 -2.88822e-09)
(-4.56544e-08 -3.57719e-06 -2.99811e-09)
(-3.75803e-08 -3.56178e-06 -3.27555e-09)
(-2.8641e-08 -3.53278e-06 -3.61558e-09)
(-1.92951e-08 -3.48959e-06 -3.86215e-09)
(-1.02548e-08 -3.43173e-06 -3.96849e-09)
(-2.18476e-09 -3.3591e-06 -3.92054e-09)
(4.37344e-09 -3.27135e-06 -3.74843e-09)
(9.14368e-09 -3.16733e-06 -3.4948e-09)
(1.20639e-08 -3.04403e-06 -3.20202e-09)
(1.32387e-08 -2.89525e-06 -2.8977e-09)
(1.28681e-08 -2.70949e-06 -2.58521e-09)
(1.11991e-08 -2.46659e-06 -2.24077e-09)
(8.42314e-09 -2.13045e-06 -1.80498e-09)
(4.87742e-09 -1.63096e-06 -1.19382e-09)
(9.68042e-10 -8.06059e-07 -2.87452e-10)
(-2.60333e-09 -7.99663e-07 -2.67006e-09)
(-2.18581e-08 -1.62128e-06 -4.99499e-09)
(-4.83942e-08 -2.12016e-06 -5.98871e-09)
(-7.89972e-08 -2.45575e-06 -6.67652e-09)
(-1.10557e-07 -2.69721e-06 -7.41681e-09)
(-1.40591e-07 -2.88034e-06 -8.40116e-09)
(-1.66635e-07 -3.02531e-06 -9.69655e-09)
(-1.86428e-07 -3.14389e-06 -1.13136e-08)
(-1.97973e-07 -3.24259e-06 -1.31972e-08)
(-1.99743e-07 -3.32478e-06 -1.52378e-08)
(-1.90951e-07 -3.39192e-06 -1.72527e-08)
(-1.71736e-07 -3.44456e-06 -1.90517e-08)
(-1.43377e-07 -3.48286e-06 -2.04222e-08)
(-1.07997e-07 -3.50714e-06 -2.13231e-08)
(-6.83101e-08 -3.5177e-06 -2.17137e-08)
(-2.67694e-08 -3.51518e-06 -2.18658e-08)
(1.47253e-08 -3.49954e-06 -2.17326e-08)
(5.36541e-08 -3.47022e-06 -2.10828e-08)
(8.72006e-08 -3.427e-06 -1.98859e-08)
(1.12986e-07 -3.36964e-06 -1.82009e-08)
(1.29505e-07 -3.29812e-06 -1.62205e-08)
(1.36331e-07 -3.21208e-06 -1.41525e-08)
(1.3401e-07 -3.11029e-06 -1.2185e-08)
(1.23821e-07 -2.98967e-06 -1.04449e-08)
(1.07484e-07 -2.844e-06 -8.99655e-09)
(8.69235e-08 -2.6619e-06 -7.82955e-09)
(6.41312e-08 -2.42351e-06 -6.86926e-09)
(4.09515e-08 -2.09333e-06 -5.91594e-09)
(1.97093e-08 -1.60251e-06 -4.62247e-09)
(2.80002e-09 -7.91929e-07 -2.12856e-09)
(-4.26667e-09 -7.67693e-07 -4.33882e-09)
(-3.52194e-08 -1.55659e-06 -8.0963e-09)
(-7.76654e-08 -2.03558e-06 -9.70338e-09)
(-1.26681e-07 -2.3576e-06 -1.08628e-08)
(-1.77441e-07 -2.58894e-06 -1.21728e-08)
(-2.25974e-07 -2.76392e-06 -1.39502e-08)
(-2.68235e-07 -2.90188e-06 -1.63189e-08)
(-3.00359e-07 -3.01416e-06 -1.92951e-08)
(-3.18817e-07 -3.10718e-06 -2.2796e-08)
(-3.20778e-07 -3.18438e-06 -2.66429e-08)
(-3.04571e-07 -3.24741e-06 -3.05331e-08)
(-2.70077e-07 -3.29693e-06 -3.41353e-08)
(-2.1917e-07 -3.33324e-06 -3.70404e-08)
(-1.5533e-07 -3.35648e-06 -3.90739e-08)
(-8.34233e-08 -3.36674e-06 -4.00265e-08)
(-8.39987e-09 -3.36429e-06 -4.01919e-08)
(6.54763e-08 -3.34913e-06 -3.95289e-08)
(1.33144e-07 -3.3211e-06 -3.7769e-08)
(1.89577e-07 -3.28029e-06 -3.50596e-08)
(2.30971e-07 -3.22661e-06 -3.15854e-08)
(2.55162e-07 -3.15994e-06 -2.77358e-08)
(2.61934e-07 -3.07973e-06 -2.38699e-08)
(2.52663e-07 -2.98452e-06 -2.02935e-08)
(2.29898e-07 -2.87103e-06 -1.72051e-08)
(1.96881e-07 -2.73304e-06 -1.46957e-08)
(1.57142e-07 -2.55947e-06 -1.27445e-08)
(1.14301e-07 -2.33112e-06 -1.12199e-08)
(7.17757e-08 -2.01386e-06 -9.78721e-09)
(3.37562e-08 -1.54158e-06 -7.86057e-09)
(4.53082e-09 -7.61579e-07 -3.8721e-09)
(-5.7912e-09 -7.21316e-07 -5.87133e-09)
(-4.74706e-08 -1.46315e-06 -1.09438e-08)
(-1.04476e-07 -1.91351e-06 -1.31077e-08)
(-1.70296e-07 -2.21574e-06 -1.46849e-08)
(-2.3851e-07 -2.4319e-06 -1.64901e-08)
(-3.03824e-07 -2.59416e-06 -1.89618e-08)
(-3.60766e-07 -2.72078e-06 -2.22653e-08)
(-4.0406e-07 -2.82252e-06 -2.6441e-08)
(-4.2883e-07 -2.90561e-06 -3.13952e-08)
(-4.31076e-07 -2.97364e-06 -3.68979e-08)
(-4.08335e-07 -3.02853e-06 -4.25681e-08)
(-3.6019e-07 -3.07134e-06 -4.79411e-08)
(-2.88895e-07 -3.10259e-06 -5.24338e-08)
(-1.99048e-07 -3.12255e-06 -5.56969e-08)
(-9.73591e-08 -3.13131e-06 -5.73196e-08)
(8.7856e-09 -3.12888e-06 -5.7484e-08)
(1.12515e-07 -3.11533e-06 -5.61584e-08)
(2.06306e-07 -3.09079e-06 -5.31685e-08)
(2.83255e-07 -3.05535e-06 -4.88741e-08)
(3.3842e-07 -3.00883e-06 -4.36307e-08)
(3.69198e-07 -2.95085e-06 -3.80119e-08)
(3.75647e-07 -2.88045e-06 -3.24969e-08)
(3.59915e-07 -2.7958e-06 -2.74819e-08)
(3.25699e-07 -2.69346e-06 -2.3204e-08)
(2.7758e-07 -2.56726e-06 -1.977e-08)
(2.20515e-07 -2.4066e-06 -1.71377e-08)
(1.59581e-07 -2.19332e-06 -1.51236e-08)
(9.95919e-08 -1.89534e-06 -1.32755e-08)
(4.64296e-08 -1.45068e-06 -1.07826e-08)
(6.09048e-09 -7.16257e-07 -5.44832e-09)
(-7.11002e-09 -6.62114e-07 -7.19421e-09)
(-5.80318e-08 -1.34414e-06 -1.33978e-08)
(-1.27539e-07 -1.75823e-06 -1.60309e-08)
(-2.07747e-07 -2.03531e-06 -1.7947e-08)
(-2.90858e-07 -2.23207e-06 -2.01374e-08)
(-3.70434e-07 -2.37796e-06 -2.31362e-08)
(-4.39797e-07 -2.48977e-06 -2.71493e-08)
(-4.92475e-07 -2.57756e-06 -3.22347e-08)
(-5.22485e-07 -2.64734e-06 -3.82887e-08)
(-5.24896e-07 -2.70283e-06 -4.50513e-08)
(-4.96572e-07 -2.7463e-06 -5.20761e-08)
(-4.36839e-07 -2.77923e-06 -5.88061e-08)
(-3.48215e-07 -2.80264e-06 -6.45378e-08)
(-2.36204e-07 -2.8172e-06 -6.87692e-08)
(-1.09022e-07 -2.82328e-06 -7.09434e-08)
(2.38121e-08 -2.8209e-06 -7.10949e-08)
(1.53022e-07 -2.81019e-06 -6.91995e-08)
(2.68966e-07 -2.79126e-06 -6.522e-08)
(3.63196e-07 -2.76392e-06 -5.96782e-08)
(4.2987e-07 -2.72764e-06 -5.30731e-08)
(4.66114e-07 -2.68153e-06 -4.61063e-08)
(4.72232e-07 -2.62413e-06 -3.93421e-08)
(4.51026e-07 -2.55327e-06 -3.32414e-08)
(4.07118e-07 -2.46527e-06 -2.80708e-08)
(3.462e-07 -2.35416e-06 -2.39416e-08)
(2.74431e-07 -2.20997e-06 -2.07938e-08)
(1.98124e-07 -2.01594e-06 -1.84063e-08)
(1.23279e-07 -1.74267e-06 -1.62281e-08)
(5.72253e-08 -1.33352e-06 -1.32688e-08)
(7.41822e-09 -6.57801e-07 -6.79695e-09)
(-8.16511e-09 -5.92254e-07 -8.25398e-09)
(-6.64623e-08 -1.20394e-06 -1.53662e-08)
(-1.45909e-07 -1.57551e-06 -1.83664e-08)
(-2.37521e-07 -1.82321e-06 -2.05251e-08)
(-3.32389e-07 -1.99742e-06 -2.29728e-08)
(-4.2315e-07 -2.12437e-06 -2.6318e-08)
(-5.02166e-07 -2.21916e-06 -3.07967e-08)
(-5.62046e-07 -2.29097e-06 -3.64713e-08)
(-5.9596e-07 -2.34555e-06 -4.32278e-08)
(-5.98277e-07 -2.38667e-06 -5.07902e-08)
(-5.65391e-07 -2.41692e-06 -5.86764e-08)
(-4.96475e-07 -2.43832e-06 -6.62785e-08)
(-3.94242e-07 -2.45245e-06 -7.28196e-08)
(-2.64876e-07 -2.46048e-06 -7.76875e-08)
(-1.17726e-07 -2.46325e-06 -8.02379e-08)
(3.60382e-08 -2.461e-06 -8.03696e-08)
(1.85153e-07 -2.45385e-06 -7.80669e-08)
(3.1833e-07 -2.44172e-06 -7.34228e-08)
(4.25993e-07 -2.42396e-06 -6.70523e-08)
(5.01642e-07 -2.39955e-06 -5.95672e-08)
(5.42203e-07 -2.36699e-06 -5.1743e-08)
(5.48141e-07 -2.32433e-06 -4.41897e-08)
(5.22729e-07 -2.26898e-06 -3.73987e-08)
(4.71293e-07 -2.19722e-06 -3.16585e-08)
(4.00363e-07 -2.10329e-06 -2.70801e-08)
(3.17035e-07 -1.97805e-06 -2.35988e-08)
(2.286e-07 -1.80637e-06 -2.09685e-08)
(1.42013e-07 -1.56208e-06 -1.85597e-08)
(6.57666e-08 -1.19481e-06 -1.52436e-08)
(8.46661e-09 -5.88543e-07 -7.87116e-09)
(-8.92422e-09 -5.1431e-07 -9.01419e-09)
(-7.24719e-08 -1.04771e-06 -1.67803e-08)
(-1.58951e-07 -1.37216e-06 -2.00319e-08)
(-2.58612e-07 -1.5875e-06 -2.23354e-08)
(-3.61758e-07 -1.73713e-06 -2.49137e-08)
(-4.60352e-07 -1.84376e-06 -2.84206e-08)
(-5.46038e-07 -1.92062e-06 -3.31034e-08)
(-6.10763e-07 -1.97591e-06 -3.90266e-08)
(-6.47125e-07 -2.01499e-06 -4.60666e-08)
(-6.49045e-07 -2.04159e-06 -5.39359e-08)
(-6.1268e-07 -2.05861e-06 -6.21443e-08)
(-5.37156e-07 -2.06846e-06 -7.00614e-08)
(-4.25362e-07 -2.07327e-06 -7.69022e-08)
(-2.83965e-07 -2.07476e-06 -8.20047e-08)
(-1.2306e-07 -2.07421e-06 -8.47079e-08)
(4.50883e-08 -2.07214e-06 -8.48179e-08)
(2.07861e-07 -2.06868e-06 -8.23242e-08)
(3.5289e-07 -2.06345e-06 -7.74118e-08)
(4.69852e-07 -2.05536e-06 -7.0722e-08)
(5.518e-07 -2.04283e-06 -6.29121e-08)
(5.95498e-07 -2.02382e-06 -5.47645e-08)
(6.01482e-07 -1.99594e-06 -4.69145e-08)
(5.73272e-07 -1.95633e-06 -3.98542e-08)
(5.16633e-07 -1.90123e-06 -3.3881e-08)
(4.38682e-07 -1.8253e-06 -2.9116e-08)
(3.47181e-07 -1.7203e-06 -2.54907e-08)
(2.50155e-07 -1.573e-06 -2.27436e-08)
(1.55258e-07 -1.36067e-06 -2.02047e-08)
(7.18059e-08 -1.03995e-06 -1.66532e-08)
(9.20642e-09 -5.11161e-07 -8.64325e-09)
(-9.36264e-09 -4.31089e-07 -9.45177e-09)
(-7.58603e-08 -8.81098e-07 -1.75957e-08)
(-1.66281e-07 -1.15556e-06 -2.09823e-08)
(-2.705e-07 -1.33685e-06 -2.33359e-08)
(-3.78372e-07 -1.46102e-06 -2.59283e-08)
(-4.8143e-07 -1.54707e-06 -2.9436e-08)
(-5.70858e-07 -1.60627e-06 -3.41043e-08)
(-6.38172e-07 -1.6458e-06 -3.99904e-08)
(-6.75638e-07 -1.67052e-06 -4.69692e-08)
(-6.76999e-07 -1.68405e-06 -5.47457e-08)
(-6.38336e-07 -1.6894e-06 -6.28356e-08)
(-5.58841e-07 -1.68925e-06 -7.06234e-08)
(-4.4157e-07 -1.68611e-06 -7.73594e-08)
(-2.93469e-07 -1.68207e-06 -8.2377e-08)
(-1.25008e-07 -1.67875e-06 -8.50488e-08)
(5.10112e-08 -1.67693e-06 -8.51399e-08)
(2.21222e-07 -1.67668e-06 -8.26441e-08)
(3.72724e-07 -1.67743e-06 -7.77846e-08)
(4.94855e-07 -1.67771e-06 -7.11782e-08)
(5.80404e-07 -1.67555e-06 -6.34873e-08)
(6.26003e-07 -1.66851e-06 -5.54561e-08)
(6.32139e-07 -1.65394e-06 -4.77039e-08)
(6.02419e-07 -1.62884e-06 -4.07179e-08)
(5.42801e-07 -1.58957e-06 -3.47945e-08)
(4.60745e-07 -1.53127e-06 -3.00587e-08)
(3.64439e-07 -1.44672e-06 -2.64476e-08)
(2.62391e-07 -1.32464e-06 -2.36997e-08)
(1.62714e-07 -1.14597e-06 -2.11287e-08)
(7.51851e-08 -8.74684e-07 -1.74631e-08)
(9.61897e-09 -4.28516e-07 -9.09495e-09)
(-9.45587e-09 -3.4559e-07 -9.54142e-09)
(-7.64745e-08 -7.10098e-07 -1.77639e-08)
(-1.67648e-07 -9.3347e-07 -2.11539e-08)
(-2.72918e-07 -1.08023e-06 -2.34609e-08)
(-3.82059e-07 -1.17899e-06 -2.5964e-08)
(-4.864e-07 -1.24509e-06 -2.93364e-08)
(-5.76882e-07 -1.28784e-06 -3.38193e-08)
(-6.44805e-07 -1.31333e-06 -3.94602e-08)
(-6.82319e-07 -1.32587e-06 -4.61259e-08)
(-6.83156e-07 -1.32881e-06 -5.35211e-08)
(-6.43481e-07 -1.32509e-06 -6.11857e-08)
(-5.62636e-07 -1.31746e-06 -6.85365e-08)
(-4.43792e-07 -1.30854e-06 -7.48814e-08)
(-2.93991e-07 -1.30061e-06 -7.95943e-08)
(-1.23746e-07 -1.29542e-06 -8.21116e-08)
(5.4069e-08 -1.29388e-06 -8.21866e-08)
(2.25934e-07 -1.29606e-06 -7.98152e-08)
(3.78895e-07 -1.30122e-06 -7.52349e-08)
(5.02259e-07 -1.30773e-06 -6.90012e-08)
(5.88749e-07 -1.31343e-06 -6.17361e-08)
(6.34914e-07 -1.31575e-06 -5.4128e-08)
(6.41118e-07 -1.31198e-06 -4.67614e-08)
(6.10901e-07 -1.29917e-06 -4.00965e-08)
(5.50248e-07 -1.27397e-06 -3.4429e-08)
(4.66736e-07 -1.23204e-06 -2.9891e-08)
(3.68783e-07 -1.16727e-06 -2.64298e-08)
(2.65155e-07 -1.07032e-06 -2.37873e-08)
(1.64189e-07 -9.25786e-07 -2.128e-08)
(7.57756e-08 -7.05048e-07 -1.76324e-08)
(9.68177e-09 -3.4362e-07 -9.20584e-09)
(-9.16128e-09 -2.61023e-07 -9.24002e-09)
(-7.40843e-08 -5.41008e-07 -1.71973e-08)
(-1.62741e-07 -7.13911e-07 -2.04327e-08)
(-2.65613e-07 -8.26749e-07 -2.25773e-08)
(-3.72748e-07 -9.00964e-07 -2.48823e-08)
(-4.75463e-07 -9.48407e-07 -2.80019e-08)
(-5.64631e-07 -9.76514e-07 -3.21699e-08)
(-6.31508e-07 -9.90273e-07 -3.74201e-08)
(-6.68307e-07 -9.93349e-07 -4.36142e-08)
(-6.68893e-07 -9.8869e-07 -5.04633e-08)
(-6.29617e-07 -9.7897e-07 -5.75345e-08)
(-5.49988e-07 -9.66767e-07 -6.42877e-08)