/*--------------------------------*- C++ -*----------------------------------*\
| =========                 |                                                 |
| \\      /  F ield         | OpenFOAM: The Open Source CFD Toolbox           |
|  \\    /   O peration     | Version:  v1906                                 |
|   \\  /    A nd           | Web:      www.OpenFOAM.com                      |
|    \\/     M anipulation  |                                                 |
\*---------------------------------------------------------------------------*/
FoamFile
{
    version     2.0;
    format      ascii;
    class       surfaceScalarField;
    location    "41.8/oil";
    object      phi;
}
// * * * * * * * * * * * * * * * * * * * * * * * * * * * * * * * * * * * * * //

dimensions      [1 0 -1 0 0 0 0];
oriented        oriented;


internalField   nonuniform List<scalar> 
80688
(
-2.31652e-06
-2.35642e-06
-2.31651e-06
-1.04629e-06
-6.56894e-07
-6.13335e-07
-2.84785e-07
-3.83282e-07
-3.7822e-07
-1.40476e-07
-7.25944e-08
-7.17147e-08
-5.70397e-08
-4.21825e-08
-4.12535e-08
-1.7525e-08
-2.02691e-08
-1.92458e-08
3.08761e-09
-1.0816e-08
-9.79663e-09
1.40966e-08
-6.02479e-09
-4.98423e-09
1.95965e-08
-3.32809e-09
-2.17192e-09
2.13978e-08
-1.59059e-09
-2.10692e-10
2.04207e-08
-3.38587e-10
1.31563e-09
1.7218e-08
6.30092e-10
2.57255e-09
1.22808e-08
1.36361e-09
3.57353e-09
6.12466e-09
1.86928e-09
4.28688e-09
-6.89039e-10
2.14149e-09
4.67219e-09
-7.57365e-09
2.17617e-09
4.70842e-09
-1.39585e-08
1.9814e-09
4.40345e-09
-1.93369e-08
1.58081e-09
3.79757e-09
-2.33122e-08
1.01335e-09
2.96189e-09
-2.56227e-08
3.22357e-10
1.98816e-09
-2.6176e-08
-4.23293e-10
9.76595e-10
-2.50354e-08
-1.17397e-09
3.33247e-11
-2.23925e-08
-1.8831e-09
-7.59786e-10
-1.85857e-08
-2.5008e-09
-1.30602e-09
-1.40602e-08
-2.97441e-09
-1.5511e-09
-9.35057e-09
-3.23722e-09
-1.47244e-09
-5.05631e-09
-3.19438e-09
-1.0999e-09
-1.7921e-09
-2.71609e-09
-5.48136e-10
-7.14813e-11
-1.64849e-09
-7.2146e-11
-1.49806e-10
7.83107e-11
-6.23882e-07
-1.10865e-06
-6.23881e-07
-3.73958e-07
-4.05822e-07
-5.00996e-07
-2.67584e-07
-2.74333e-07
-2.15324e-07
-1.31578e-07
-1.21221e-07
-8.73789e-08
-5.44167e-08
-7.45121e-08
-4.48316e-08
-9.52201e-09
-4.61049e-08
-1.90589e-08
1.77819e-08
-3.23905e-08
-5.7294e-09
3.39732e-08
-2.44336e-08
2.21742e-09
4.24315e-08
-1.93869e-08
7.60051e-09
4.48453e-08
-1.57559e-08
1.17514e-08
4.22163e-08
-1.29167e-08
1.52071e-08
3.53543e-08
-1.0631e-08
1.8123e-08
2.51019e-08
-8.84567e-09
2.04617e-08
1.24325e-08
-7.58962e-09
2.21283e-08
-1.55018e-09
-6.90314e-09
2.30273e-08
-1.56737e-08
-6.80796e-09
2.31076e-08
-2.87916e-08
-7.28544e-09
2.23847e-08
-3.98857e-08
-8.27018e-09
2.09451e-08
-4.81577e-08
-9.65523e-09
1.89406e-08
-5.30952e-08
-1.13021e-08
1.65619e-08
-5.44957e-08
-1.30561e-08
1.40333e-08
-5.24758e-08
-1.47574e-08
1.15635e-08
-4.74502e-08
-1.62483e-08
9.33962e-09
-4.00839e-08
-1.73715e-08
7.50441e-09
-3.12471e-08
-1.79547e-08
6.14347e-09
-2.1954e-08
-1.77883e-08
5.25797e-09
-1.32839e-08
-1.66007e-08
4.73618e-09
-6.26469e-09
-1.40446e-08
4.3093e-09
-1.69695e-09
-9.70834e-09
3.49209e-09
-3.55142e-09
1.70464e-09
-3.88504e-07
-3.31649e-07
-3.88502e-07
-2.59951e-07
-3.14067e-07
-2.20308e-07
-1.73731e-07
-2.24229e-07
-1.36325e-07
-8.87763e-08
-1.3864e-07
-6.75358e-08
-3.1818e-08
-9.99952e-08
-3.14753e-08
7.33238e-09
-7.57817e-08
-9.47375e-09
3.3547e-08
-6.21624e-08
3.55721e-09
5.01134e-08
-5.32685e-08
1.22684e-08
5.88314e-08
-4.69081e-08
1.88031e-08
6.0727e-08
-4.18585e-08
2.4207e-08
5.65555e-08
-3.76262e-08
2.8881e-08
4.70953e-08
-3.40645e-08
3.28937e-08
3.33233e-08
-3.12095e-08
3.61358e-08
1.6447e-08
-2.91669e-08
3.84536e-08
-2.11878e-09
-2.80397e-08
3.97023e-08
-2.08564e-08
-2.78788e-08
3.98084e-08
-3.8275e-08
-2.86561e-08
3.87892e-08
-5.3046e-08
-3.02588e-08
3.67596e-08
-6.41322e-08
-3.24931e-08
3.39241e-08
-7.08627e-08
-3.51118e-08
3.05401e-08
-7.29868e-08
-3.78326e-08
2.69005e-08
-7.06583e-08
-4.03623e-08
2.32765e-08
-6.44123e-08
-4.24074e-08
1.9913e-08
-5.50946e-08
-4.36678e-08
1.69787e-08
-4.3793e-08
-4.38184e-08
1.4562e-08
-3.1746e-08
-4.24742e-08
1.26389e-08
-2.02281e-08
-3.91575e-08
1.10389e-08
-1.04238e-08
-3.32494e-08
9.40053e-09
-3.32066e-09
-2.39252e-08
7.11364e-09
-1.02006e-08
3.32849e-09
-7.44805e-08
-1.82689e-07
-7.44786e-08
-9.89333e-08
-2.02401e-07
-8.72129e-08
-7.74481e-08
-1.79259e-07
-6.64545e-08
-3.73664e-08
-1.44267e-07
-3.44549e-08
-1.38251e-09
-1.23179e-07
-1.28004e-08
2.80659e-08
-1.07824e-07
2.59375e-09
5.00246e-08
-9.74933e-08
1.33721e-08
6.47154e-08
-8.95921e-08
2.16328e-08
7.23323e-08
-8.3048e-08
2.8523e-08
7.30955e-08
-7.72454e-08
3.46236e-08
6.73724e-08
-7.20062e-08
4.01031e-08
5.58008e-08
-6.73909e-08
4.48979e-08
3.93704e-08
-6.35897e-08
4.88106e-08
1.94124e-08
-6.08294e-08
5.16205e-08
-2.46817e-09
-5.92933e-08
5.31341e-08
-2.45237e-08
-5.9075e-08
5.32517e-08
-4.50287e-08
-6.01419e-08
5.19907e-08
-6.2447e-08
-6.23305e-08
4.949e-08
-7.55756e-08
-6.53583e-08
4.59938e-08
-8.36491e-08
-6.88538e-08
4.18154e-08
-8.63814e-08
-7.23964e-08
3.72961e-08
-8.39601e-08
-7.55469e-08
3.27633e-08
-7.6993e-08
-7.78655e-08
2.84909e-08
-6.64357e-08
-7.88936e-08
2.46685e-08
-5.34915e-08
-7.81467e-08
2.13841e-08
-3.95066e-08
-7.50541e-08
1.8595e-08
-2.58559e-08
-6.89041e-08
1.60959e-08
-1.38277e-08
-5.87457e-08
1.3468e-08
-4.63419e-09
-4.3131e-08
1.00122e-08
-1.94781e-08
4.6433e-09
-3.75776e-08
-1.07537e-07
-3.75749e-08
-4.46261e-08
-1.54702e-07
-4.06504e-08
-3.00494e-08
-1.64977e-07
-2.88592e-08
-4.22736e-09
-1.58138e-07
-1.19513e-08
2.20941e-08
-1.5121e-07
1.70948e-09
4.56449e-08
-1.44101e-07
1.27259e-08
6.43284e-08
-1.37813e-07
2.1636e-08
7.71557e-08
-1.31753e-07
2.93338e-08
8.35028e-08
-1.25752e-07
3.63568e-08
8.30795e-08
-1.1976e-07
4.29382e-08
7.59583e-08
-1.13934e-07
4.90492e-08
6.26487e-08
-1.08573e-07
5.44917e-08
4.41199e-08
-1.04044e-07
5.89835e-08
2.17743e-08
-1.00706e-07
6.22224e-08
-2.64779e-09
-9.88378e-08
6.39666e-08
-2.72321e-08
-9.8578e-08
6.40873e-08
-5.00776e-08
-9.98941e-08
6.25977e-08
-6.94927e-08
-1.02576e-07
5.96602e-08
-8.4159e-08
-1.06253e-07
5.55608e-08
-9.32455e-08
-1.10433e-07
5.06662e-08
-9.64506e-08
-1.14565e-07
4.53735e-08
-9.39872e-08
-1.18063e-07
4.00528e-08
-8.65226e-08
-1.20335e-07
3.50044e-08
-7.50792e-08
-1.20778e-07
3.04415e-08
-6.093e-08
-1.18748e-07
2.64517e-08
-4.54857e-08
-1.13479e-07
2.29804e-08
-3.01831e-08
-1.04005e-07
1.97985e-08
-1.6413e-08
-8.89579e-08
1.64422e-08
-5.6055e-09
-6.60782e-08
1.21397e-08
-3.07001e-08
5.61655e-09
-1.29211e-08
-8.16985e-08
-1.29175e-08
-1.21042e-08
-1.42508e-07
-1.30112e-08
-3.90608e-10
-1.7034e-07
-6.35007e-09
1.8836e-08
-1.80574e-07
3.20923e-09
3.98689e-08
-1.84442e-07
1.21996e-08
5.96932e-08
-1.8437e-07
2.04455e-08
7.60048e-08
-1.82176e-07
2.80513e-08
8.72957e-08
-1.78385e-07
3.53403e-08
9.25118e-08
-1.7346e-07
4.24918e-08
9.10436e-08
-1.67797e-07
4.95049e-08
8.27606e-08
-1.61848e-07
5.61968e-08
6.80609e-08
-1.56128e-07
6.22546e-08
4.78847e-08
-1.5117e-07
6.73022e-08
2.36855e-08
-1.47465e-07
7.0958e-08
-2.69737e-09
-1.45378e-07
7.29227e-08
-2.92196e-08
-1.45095e-07
7.30388e-08
-5.38453e-08
-1.46586e-07
7.13176e-08
-7.47599e-08
-1.49602e-07
6.79409e-08
-9.05608e-08
-1.53694e-07
6.32421e-08
-1.00376e-07
-1.58267e-07
5.76486e-08
-1.03902e-07
-1.62654e-07
5.16147e-08
-1.01381e-07
-1.66135e-07
4.5551e-08
-9.35287e-08
-1.67994e-07
3.98073e-08
-8.14171e-08
-1.67492e-07
3.4602e-08
-6.63672e-08
-1.63825e-07
3.00279e-08
-4.98297e-08
-1.56038e-07
2.60217e-08
-3.32951e-08
-1.42877e-07
2.23368e-08
-1.82383e-08
-1.22489e-07
1.8474e-08
-6.2724e-09
-9.16397e-08
1.35955e-08
-4.3258e-08
6.28547e-09
-2.46629e-09
-7.67702e-08
-2.46197e-09
3.24445e-09
-1.48766e-07
5.47856e-10
1.56783e-08
-1.88603e-07
5.8288e-09
3.29697e-08
-2.1024e-07
1.23751e-08
5.17649e-08
-2.22291e-07
1.9054e-08
6.96542e-08
-2.28057e-07
2.57972e-08
8.45262e-08
-2.29714e-07
3.26665e-08
9.4762e-08
-2.28393e-07
3.97731e-08
9.9145e-08
-2.24963e-07
4.71203e-08
9.68954e-08
-2.20116e-07
5.45687e-08
8.77541e-08
-2.14534e-07
6.18277e-08
7.20417e-08
-2.08903e-07
6.84871e-08
5.06779e-08
-2.03884e-07
7.40773e-08
2.51394e-08
-2.00073e-07
7.8146e-08
-2.65463e-09
-1.97914e-07
8.03303e-08
-3.05622e-08
-1.97625e-07
8.0438e-08
-5.64448e-08
-1.99182e-07
7.84782e-08
-7.83957e-08
-2.02309e-07
7.46584e-08
-9.49542e-08
-2.06501e-07
6.93658e-08
-1.05223e-07
-2.11083e-07
6.30841e-08
-1.08913e-07
-2.15293e-07
5.633e-08
-1.06301e-07
-2.18323e-07
4.95757e-08
-9.81453e-08
-2.19345e-07
4.31957e-08
-8.55565e-08
-2.17509e-07
3.74286e-08
-6.98884e-08
-2.11866e-07
3.23721e-08
-5.26176e-08
-2.01261e-07
2.79524e-08
-3.52681e-08
-1.84133e-07
2.39069e-08
-1.9378e-08
-1.58091e-07
1.97126e-08
-6.67961e-09
-1.1882e-07
1.44819e-08
-5.66321e-08
6.69442e-09
2.33403e-09
-8.14431e-08
2.33882e-09
1.10887e-08
-1.64894e-07
7.37327e-09
2.45399e-08
-2.14407e-07
1.23523e-08
4.12725e-08
-2.44602e-07
1.76292e-08
5.90293e-08
-2.63221e-07
2.31723e-08
7.58251e-08
-2.73987e-07
2.91346e-08
8.9771e-08
-2.79288e-07
3.56281e-08
9.92867e-08
-2.8061e-07
4.27011e-08
1.03092e-07
-2.79044e-07
5.02754e-08
1.0034e-07
-2.75494e-07
5.813e-08
9.06843e-08
-2.70782e-07
6.59038e-08
7.43875e-08
-2.65722e-07
7.31157e-08
5.23412e-08
-2.61053e-07
7.92153e-08
2.60412e-08
-2.5744e-07
8.36678e-08
-2.55247e-09
-2.5537e-07
8.60501e-08
-3.1235e-08
-2.55091e-07
8.61484e-08
-5.78022e-08
-2.56581e-07
8.39667e-08
-8.02888e-08
-2.59553e-07
7.97302e-08
-9.72031e-08
-2.63464e-07
7.38765e-08
-1.07643e-07
-2.67605e-07
6.69628e-08
-1.11347e-07
-2.71156e-07
5.95667e-08
-1.0863e-07
-2.73245e-07
5.22053e-08
-1.0028e-07
-2.72975e-07
4.52791e-08
-8.7437e-08
-2.69401e-07
3.90487e-08
-7.14705e-08
-2.61449e-07
3.36166e-08
-5.38628e-08
-2.47771e-07
2.89022e-08
-3.61432e-08
-2.2648e-07
2.46271e-08
-1.98779e-08
-1.94607e-07
2.02506e-08
-6.85582e-09
-1.467e-07
1.48581e-08
-7.03597e-08
6.87176e-09
4.46936e-09
-9.03867e-08
4.47419e-09
1.47558e-08
-1.85781e-07
1.06004e-08
2.88122e-08
-2.43986e-07
1.55232e-08
4.5258e-08
-2.8128e-07
2.02316e-08
6.2341e-08
-3.05499e-07
2.51949e-08
7.83445e-08
-3.20725e-07
3.07344e-08
9.15788e-08
-3.29538e-07
3.70157e-08
1.00537e-07
-3.33644e-07
4.40751e-08
1.03961e-07
-3.34287e-07
5.18181e-08
1.00963e-07
-3.32476e-07
5.99808e-08
9.11665e-08
-3.29135e-07
6.81493e-08
7.47698e-08
-3.25112e-07
7.57867e-08
5.2636e-08
-3.21191e-07
8.22713e-08
2.6249e-08
-3.18066e-07
8.70127e-08
-2.4193e-09
-3.16251e-07
8.95488e-08
-3.11533e-08
-3.15992e-07
8.96352e-08
-5.77324e-08
-3.17276e-07
8.72735e-08
-8.01818e-08
-3.19813e-07
8.27092e-08
-9.70041e-08
-3.23068e-07
7.64265e-08
-1.07321e-07
-3.26312e-07
6.9023e-08
-1.10899e-07
-3.28702e-07
6.11244e-08
-1.08089e-07
-3.29361e-07
5.3306e-08
-9.96991e-08
-3.27357e-07
4.59928e-08
-8.68866e-08
-3.2167e-07
3.94566e-08
-7.10036e-08
-3.11121e-07
3.37888e-08
-5.35108e-08
-2.94171e-07
2.89071e-08
-3.59105e-08
-2.6862e-07
2.454e-08
-1.97501e-08
-2.30898e-07
2.01298e-08
-6.81003e-09
-1.74392e-07
1.47514e-08
-8.3996e-08
6.82633e-09
5.2745e-09
-1.0094e-07
5.27905e-09
1.60307e-08
-2.08314e-07
1.17767e-08
3.00503e-08
-2.74579e-07
1.65728e-08
4.59447e-08
-3.181e-07
2.0926e-08
6.22089e-08
-3.47278e-07
2.55148e-08
7.7335e-08
-3.66592e-07
3.07404e-08
8.98144e-08
-3.7883e-07
3.68124e-08
9.822e-08
-3.85827e-07
4.3778e-08
1.01361e-07
-3.88951e-07
5.15236e-08
9.83564e-08
-3.89259e-07
5.97868e-08
8.87877e-08
-3.8769e-07
6.81229e-08
7.28265e-08
-3.85104e-07
7.59539e-08
5.12886e-08
-3.82282e-07
8.26294e-08
2.56111e-08
-3.79911e-07
8.75227e-08
-2.27759e-09
-3.78484e-07
9.01218e-08
-3.0212e-08
-3.78254e-07
9.01957e-08
-5.60231e-08
-3.7921e-07
8.77452e-08
-7.77712e-08
-3.8107e-07
8.30052e-08
-9.40002e-08
-3.8332e-07
7.64811e-08
-1.03877e-07
-3.85254e-07
6.88191e-08
-1.07202e-07
-3.86064e-07
6.06874e-08
-1.0435e-07
-3.84874e-07
5.26606e-08
-9.61415e-08
-3.80753e-07
4.51871e-08
-8.3702e-08
-3.72652e-07
3.85426e-08
-6.83468e-08
-3.59299e-07
3.28233e-08
-5.1475e-08
-3.38993e-07
2.79495e-08
-3.45321e-08
-3.09194e-07
2.3631e-08
-1.89857e-08
-2.65775e-07
1.93315e-08
-6.54376e-09
-2.00993e-07
1.41599e-08
-9.70994e-08
6.55963e-09
5.33288e-09
-1.1161e-07
5.33641e-09
1.57487e-08
-2.30395e-07
1.16648e-08
2.90421e-08
-3.04048e-07
1.61757e-08
4.38753e-08
-3.531e-07
2.01674e-08
5.89333e-08
-3.86711e-07
2.43752e-08
7.2885e-08
-4.09786e-07
2.92422e-08
8.43738e-08
-4.25309e-07
3.49907e-08
9.21182e-08
-4.3524e-07
4.16681e-08
9.49968e-08
-4.40999e-07
4.91692e-08
9.21681e-08
-4.43658e-07
5.72281e-08
8.32147e-08
-4.44132e-07
6.5396e-08
6.8271e-08
-4.43261e-07
7.31002e-08
4.80825e-08
-4.41771e-07
7.96774e-08
2.40038e-08
-4.40327e-07
8.44943e-08
-2.14472e-09
-4.39376e-07
8.70401e-08
-2.83214e-08
-4.39177e-07
8.71001e-08
-5.24834e-08
-4.39715e-07
8.46678e-08
-7.27877e-08
-4.40736e-07
7.99708e-08
-8.78783e-08
-4.4175e-07
7.35203e-08
-9.6985e-08
-4.42091e-07
6.59433e-08
-9.99333e-08
-4.41022e-07
5.7906e-08
-9.71257e-08
-4.37685e-07
5.00037e-08
-8.93583e-08
-4.31202e-07
4.26818e-08
-7.76969e-08
-4.20514e-07
3.62006e-08
-6.33724e-08
-4.04279e-07
3.06559e-08
-4.76904e-08
-3.80647e-07
2.5972e-08
-3.19678e-08
-3.46798e-07
2.18813e-08
-1.75648e-08
-2.98045e-07
1.78662e-08
-6.05353e-09
-2.25584e-07
1.30789e-08
-1.09221e-07
6.06825e-09
4.90722e-09
-1.21427e-07
4.90979e-09
1.43261e-08
-2.50449e-07
1.06354e-08
2.6236e-08
-3.30613e-07
1.46553e-08
3.94212e-08
-3.84475e-07
1.81891e-08
5.2761e-08
-4.21991e-07
2.19398e-08
6.50981e-08
-4.48446e-07
2.63229e-08
7.52668e-08
-4.67026e-07
3.15481e-08
8.21507e-08
-4.79803e-07
3.76795e-08
8.47254e-08
-4.88189e-07
4.46157e-08
8.2239e-08
-4.93275e-07
5.21032e-08
7.42927e-08
-4.95911e-07
5.97255e-08
6.09577e-08
-4.96861e-07
6.69348e-08
4.29185e-08
-4.96821e-07
7.30896e-08
2.13687e-08
-4.96368e-07
7.75908e-08
-2.03097e-09
-4.95937e-07
7.99608e-08
-2.54438e-08
-4.95771e-07
8.00069e-08
-4.70262e-08
-4.95864e-07
7.77314e-08
-6.51236e-08
-4.95957e-07
7.33176e-08
-7.85014e-08
-4.95612e-07
6.72398e-08
-8.64759e-08
-4.94231e-07
6.01147e-08
-8.89534e-08
-4.91123e-07
5.25786e-08
-8.62979e-08
-4.85538e-07
4.51971e-08
-7.9255e-08
-4.76625e-07
3.83806e-08
-6.88034e-08
-4.63337e-07
3.23709e-08
-5.60428e-08
-4.44305e-07
2.72648e-08
-4.21196e-08
-4.17551e-07
2.29807e-08
-2.82081e-08
-3.79989e-07
1.92798e-08
-1.54922e-08
-3.26466e-07
1.57056e-08
-5.33437e-09
-2.47238e-07
1.14967e-08
-1.19903e-07
5.34726e-09
4.13633e-09
-1.29701e-07
4.1384e-09
1.20139e-08
-2.67246e-07
8.91962e-09
2.19229e-08
-3.52775e-07
1.22534e-08
3.28708e-08
-4.10608e-07
1.51855e-08
4.39271e-08
-4.51379e-07
1.83319e-08
5.41728e-08
-4.80746e-07
2.20543e-08
6.26542e-08
-5.02036e-07
2.65281e-08
6.84321e-08
-5.17406e-07
3.18245e-08
7.06543e-08
-5.28267e-07
3.78551e-08
6.86537e-08
-5.35672e-07
4.43979e-08
6.20649e-08
-5.40412e-07
5.1089e-08
5.09369e-08
-5.43152e-07
5.74192e-08
3.58202e-08
-5.44523e-07
6.28183e-08
1.77194e-08
-5.45031e-07
6.67633e-08
-1.94318e-09
-5.45104e-07
6.883e-08
-2.16062e-08
-5.44967e-07
6.88588e-08
-3.97076e-08
-5.44612e-07
6.68488e-08
-5.4812e-08
-5.4381e-07
6.29575e-08
-6.58976e-08
-5.4213e-07
5.76035e-08
-7.24199e-08
-5.39037e-07
5.13287e-08
-7.43127e-08
-5.3394e-07
4.47094e-08
-7.19221e-08
-5.26165e-07
3.82365e-08
-6.59009e-08
-5.1492e-07
3.22737e-08
-5.70916e-08
-4.99202e-07
2.7056e-08
-4.64102e-08
-4.77636e-07
2.26496e-08
-3.48286e-08
-4.48119e-07
1.89864e-08
-2.3296e-08
-4.07391e-07
1.58694e-08
-1.27763e-08
-3.49891e-07
1.29055e-08
-4.39926e-09
-2.65067e-07
9.45164e-09
-1.28712e-07
4.4101e-09
3.09988e-09
-1.35899e-07
3.09753e-09
8.973e-09
-2.79765e-07
6.64524e-09
1.63541e-08
-3.69264e-07
9.10764e-09
2.45068e-08
-4.30066e-07
1.13047e-08
3.27732e-08
-4.73348e-07
1.37024e-08
4.04709e-08
-5.05024e-07
1.65803e-08
4.68928e-08
-5.28557e-07
2.0099e-08
5.13269e-08
-5.46138e-07
2.42986e-08
5.31202e-08
-5.59181e-07
2.91212e-08
5.17332e-08
-5.68669e-07
3.43832e-08
4.68513e-08
-5.75316e-07
3.97863e-08
3.84759e-08
-5.79719e-07
4.4942e-08
2.69868e-08
-5.82408e-07
4.93736e-08
1.31671e-08
-5.83834e-07
5.26233e-08
-1.88114e-09
-5.84379e-07
5.43236e-08
-1.69172e-08
-5.84265e-07
5.43344e-08
-3.06955e-08
-5.8349e-07
5.26561e-08
-4.21176e-08
-5.81816e-07
4.94281e-08
-5.03968e-08
-5.78878e-07
4.50279e-08
-5.51404e-08
-5.74196e-07
3.99027e-08
-5.634e-08
-5.67262e-07
3.4522e-08
-5.43109e-08
-5.57502e-07
2.93077e-08
-4.95814e-08
-5.44193e-07
2.45435e-08
-4.28071e-08
-5.26375e-07
2.03981e-08
-3.4701e-08
-5.02679e-07
1.69364e-08
-2.59768e-08
-4.70942e-07
1.40991e-08
-1.73338e-08
-4.27749e-07
1.17144e-08
-9.49366e-09
-3.67234e-07
9.50274e-09
-3.26224e-09
-2.78271e-07
6.9724e-09
-1.35245e-07
3.27073e-09
1.85761e-09
-1.39611e-07
1.85483e-09
5.35848e-09
-2.87206e-07
3.93989e-09
9.77927e-09
-3.79077e-07
5.39211e-09
1.46865e-08
-4.417e-07
6.72666e-09
1.9709e-08
-4.86614e-07
8.2436e-09
2.44509e-08
-5.19893e-07
1.01271e-08
2.84854e-08
-5.45071e-07
1.24797e-08
3.13637e-08
-5.64348e-07
1.53307e-08
3.26621e-08
-5.79134e-07
1.86544e-08
3.19888e-08
-5.90345e-07
2.23493e-08
2.90858e-08
-5.98626e-07
2.62126e-08
2.39163e-08
-6.04498e-07
2.99491e-08
1.66721e-08
-6.08364e-07
3.32005e-08
7.83896e-09
-6.10635e-07
3.56336e-08
-1.84199e-09
-6.1162e-07
3.69212e-08
-1.14994e-08
-6.11521e-07
3.6913e-08
-2.02661e-08
-6.10335e-07
3.56126e-08
-2.7397e-08
-6.07856e-07
3.3171e-08
-3.24127e-08
-6.03775e-07
2.99124e-08
-3.51067e-08
-5.9769e-07
2.61871e-08
-3.55316e-08
-5.89198e-07
2.23602e-08
-3.39577e-08
-5.77774e-07
1.86987e-08
-3.07631e-08
-5.62795e-07
1.54072e-08
-2.63626e-08
-5.43375e-07
1.25998e-08
-2.12347e-08
-5.18096e-07
1.02891e-08
-1.57999e-08
-4.84817e-07
8.44047e-09
-1.04975e-08
-4.39996e-07
6.94533e-09
-5.72452e-09
-3.77621e-07
5.61399e-09
-1.96067e-09
-2.86169e-07
4.13449e-09
-1.39173e-07
1.96711e-09
4.71282e-10
-1.40549e-07
4.66774e-10
1.35224e-09
-2.89017e-07
9.30459e-10
2.47701e-09
-3.81462e-07
1.26065e-09
3.79599e-09
-4.44657e-07
1.63842e-09
5.23865e-09
-4.90227e-07
2.17074e-09
6.71643e-09
-5.24298e-07
2.92752e-09
8.10781e-09
-5.50417e-07
3.95438e-09
9.25558e-09
-5.70781e-07
5.28564e-09
9.97403e-09
-5.86768e-07
6.91617e-09
1.00669e-08
-5.99244e-07
8.80627e-09
9.36467e-09
-6.08793e-07
1.08698e-08
7.74033e-09
-6.15856e-07
1.29823e-08
5.19932e-09
-6.2075e-07
1.49276e-08
1.90427e-09
-6.23789e-07
1.64492e-08
-1.81755e-09
-6.25183e-07
1.72847e-08
-5.50588e-09
-6.25093e-07
1.72605e-08
-8.70571e-09
-6.23519e-07
1.63835e-08
-1.109e-08
-6.20299e-07
1.48267e-08
-1.25171e-08
-6.15217e-07
1.28692e-08
-1.2974e-08
-6.07985e-07
1.07527e-08
-1.26071e-08
-5.98258e-07
8.6929e-09
-1.15756e-08
-5.85633e-07
6.82724e-09
-1.00817e-08
-5.69519e-07
5.2299e-09
-8.34127e-09
-5.49052e-07
3.93685e-09
-6.49099e-09
-5.22895e-07
2.94874e-09
-4.68587e-09
-4.8885e-07
2.22741e-09
-3.01857e-09
-4.43388e-07
1.72396e-09
-1.60304e-09
-3.80402e-07
1.36502e-09
-5.35309e-10
-2.88274e-07
1.03752e-09
-1.40248e-07
5.40053e-10
-9.97154e-10
-1.38551e-07
-1.0016e-09
-2.89749e-09
-2.84867e-07
-2.24948e-09
-5.23034e-09
-3.76032e-07
-3.09741e-09
-7.69801e-09
-4.38457e-07
-3.73198e-09
-1.00272e-08
-4.83647e-07
-4.25155e-09
-1.2007e-08
-5.17613e-07
-4.70503e-09
-1.34348e-08
-5.43866e-07
-5.12302e-09
-1.41633e-08
-5.64563e-07
-5.48903e-09
-1.41075e-08
-5.81052e-07
-5.77253e-09
-1.32629e-08
-5.94168e-07
-5.9206e-09
-1.1708e-08
-6.04455e-07
-5.89312e-09
-9.59925e-09
-6.12278e-07
-5.68683e-09
-7.13429e-09
-6.17878e-07
-5.3376e-09
-4.49547e-09
-6.21475e-07
-4.95261e-09
-1.80083e-09
-6.23174e-07
-4.70331e-09
9.33175e-10
-6.23094e-07
-4.73277e-09
3.68095e-09
-6.2122e-07
-5.04708e-09
6.33274e-09
-6.17454e-07
-5.49585e-09
8.67926e-09
-6.11684e-07
-5.87977e-09
1.05156e-08
-6.0372e-07
-6.10217e-09
1.16725e-08
-5.93289e-07
-6.12567e-09
1.20624e-08
-5.80064e-07
-5.95889e-09
1.16818e-08
-5.63493e-07
-5.64515e-09
1.06072e-08
-5.42735e-07
-5.24252e-09
8.98057e-09
-5.16482e-07
-4.78624e-09
6.98037e-09
-4.82555e-07
-4.29503e-09
4.80983e-09
-4.37477e-07
-3.74003e-09
2.71281e-09
-3.75231e-07
-3.07387e-09
9.57185e-10
-2.84318e-07
-2.20131e-09
-1.38338e-07
-9.53533e-10
-2.47799e-09
-1.33586e-07
-2.48628e-09
-7.17706e-09
-2.74715e-07
-5.45293e-09
-1.29981e-08
-3.62716e-07
-7.49468e-09
-1.92683e-08
-4.23041e-07
-9.14656e-09
-2.54173e-08
-4.66763e-07
-1.0735e-08
-3.08942e-08
-4.99695e-07
-1.24417e-08
-3.51986e-08
-5.25219e-07
-1.43424e-08
-3.78697e-08
-5.45421e-07
-1.64716e-08
-3.8551e-08
-5.61599e-07
-1.87715e-08
-3.70313e-08
-5.74559e-07
-2.11289e-08
-3.32559e-08
-5.84838e-07
-2.33929e-08
-2.74115e-08
-5.92758e-07
-2.53646e-08
-1.9851e-08
-5.98541e-07
-2.68972e-08
-1.1112e-08
-6.02316e-07
-2.78978e-08
-1.78442e-09
-6.04142e-07
-2.83592e-08
7.5879e-09
-6.04063e-07
-2.84041e-08
1.64522e-08
-6.02062e-07
-2.80219e-08
2.42153e-08
-5.98127e-07
-2.70901e-08
3.03256e-08
-5.92198e-07
-2.55963e-08
3.44e-08
-5.84146e-07
-2.36485e-08
3.62575e-08
-5.73752e-07
-2.13941e-08
3.59243e-08
-5.60709e-07
-1.90223e-08
3.36028e-08
-5.44476e-07
-1.66951e-08
2.9651e-08
-5.24252e-07
-1.45314e-08
2.4501e-08
-4.98739e-07
-1.25928e-08
1.86637e-08
-4.65871e-07
-1.08461e-08
1.26587e-08
-4.22255e-07
-9.21707e-09
7.0342e-09
-3.62083e-07
-7.52346e-09
2.4575e-09
-2.74298e-07
-5.44261e-09
-1.33426e-07
-2.4543e-09
-3.90274e-09
-1.25773e-07
-3.91053e-09
-1.12808e-08
-2.58816e-07
-8.52087e-09
-2.04485e-08
-3.41852e-07
-1.16971e-08
-3.03719e-08
-3.98788e-07
-1.43297e-08
-4.01818e-08
-4.4001e-07
-1.69422e-08
-4.9033e-08
-4.70995e-07
-1.98487e-08
-5.61252e-08
-4.94922e-07
-2.32048e-08
-6.07072e-08
-5.13781e-07
-2.70582e-08
-6.21636e-08
-5.28783e-07
-3.13595e-08
-6.00428e-08
-5.40746e-07
-3.59337e-08
-5.4188e-08
-5.50183e-07
-4.05099e-08
-4.47618e-08
-5.57434e-07
-4.47504e-08
-3.22872e-08
-5.62713e-07
-4.83028e-08
-1.76045e-08
-5.6616e-07
-5.08395e-08
-1.76324e-09
-5.67832e-07
-5.21511e-08
1.41261e-08
-5.67746e-07
-5.22062e-08
2.89488e-08
-5.65904e-07
-5.09806e-08
4.16315e-08
-5.62299e-07
-4.85111e-08
5.13289e-08
-5.56876e-07
-4.50189e-08
5.75015e-08
-5.49512e-07
-4.08064e-08
5.99667e-08
-5.39986e-07
-3.62316e-08
5.88694e-08
-5.27965e-07
-3.16465e-08
5.4638e-08
-5.12923e-07
-2.73219e-08
4.78941e-08
-4.94072e-07
-2.34363e-08
3.93657e-08
-4.70168e-07
-2.00426e-08
2.98427e-08
-4.39252e-07
-1.70965e-08
2.01619e-08
-3.98134e-07
-1.44397e-08
1.11777e-08
-3.4134e-07
-1.17593e-08
3.89136e-09
-2.58478e-07
-8.53407e-09
-1.25647e-07
-3.88805e-09
-5.20259e-09
-1.1536e-07
-5.21017e-09
-1.50186e-08
-2.37679e-07
-1.13214e-08
-2.72147e-08
-3.1413e-07
-1.5525e-08
-4.04547e-08
-3.66518e-07
-1.90293e-08
-5.3583e-08
-4.04339e-07
-2.25432e-08
-6.55003e-08
-4.3257e-07
-2.65072e-08
-7.51199e-08
-4.54151e-07
-3.11517e-08
-8.14465e-08
-4.70903e-07
-3.65514e-08
-8.36063e-08
-4.83996e-07
-4.26276e-08
-8.09674e-08
-4.94217e-07
-4.91676e-08
-7.32444e-08
-5.02085e-07
-5.58211e-08
-6.05846e-08
-5.07981e-07
-6.21124e-08
-4.36394e-08
-5.12171e-07
-6.74869e-08
-2.35248e-08
-5.14855e-07
-7.14191e-08
-1.73295e-09
-5.16136e-07
-7.34886e-08
2.01054e-08
-5.16049e-07
-7.35347e-08
4.0353e-08
-5.14601e-07
-7.15511e-08
5.75204e-08
-5.11773e-07
-6.76938e-08
7.0457e-08
-5.0744e-07
-6.23727e-08
7.85013e-08
-5.01443e-07
-5.6113e-08
8.14874e-08
-4.935e-07
-4.94715e-08
7.96816e-08
-4.83233e-07
-4.29257e-08
7.37117e-08
-4.70123e-07
-3.68302e-08
6.44271e-08
-4.53385e-07
-3.14023e-08
5.28241e-08
-4.31842e-07
-2.67227e-08
3.99757e-08
-4.03684e-07
-2.2719e-08
2.69643e-08
-3.65963e-07
-1.91604e-08
1.49268e-08
-3.13696e-07
-1.56057e-08
5.19691e-09
-2.374e-07
-1.13475e-08
-1.15256e-07
-5.19312e-09
-6.30777e-09
-1.02737e-07
-6.31554e-09
-1.81947e-08
-2.12097e-07
-1.36951e-08
-3.2971e-08
-2.80599e-07
-1.87551e-08
-4.90202e-08
-3.27485e-07
-2.29846e-08
-6.49666e-08
-3.61143e-07
-2.72497e-08
-7.94772e-08
-3.85991e-07
-3.20688e-08
-9.12389e-08
-4.04658e-07
-3.77306e-08
-9.90262e-08
-4.18782e-07
-4.43331e-08
-1.01762e-07
-4.29466e-07
-5.1794e-08
-9.86591e-08
-4.37443e-07
-5.98779e-08
-8.9329e-08
-4.4327e-07
-6.8145e-08
-7.39233e-08
-4.4738e-07
-7.60072e-08
-5.31945e-08
-4.50119e-07
-8.2781e-08
-2.85039e-08
-4.51766e-07
-8.77801e-08
-1.6927e-09
-4.52505e-07
-9.04417e-08
2.51656e-08
-4.52424e-07
-9.0484e-08
4.99935e-08
-4.51531e-07
-8.78977e-08
7.09294e-08
-4.49741e-07
-8.29676e-08
8.66117e-08
-4.46871e-07
-7.62516e-08
9.62601e-08
-4.42668e-07
-6.84235e-08
9.97069e-08
-4.36776e-07
-6.01712e-08
9.732e-08
-4.28761e-07
-5.20853e-08
8.98845e-08
-4.18078e-07
-4.46096e-08
7.84515e-08
-4.03969e-07
-3.79832e-08
6.42489e-08
-3.8535e-07
-3.22896e-08
4.85684e-08
-3.60571e-07
-2.74329e-08
3.27373e-08
-3.27007e-07
-2.3124e-08
1.81169e-08
-2.80233e-07
-1.88431e-08
6.30506e-09
-2.11862e-07
-1.37265e-08
-1.02651e-07
-6.30064e-09
-7.16911e-09
-8.83917e-08
-7.17627e-09
-2.06634e-08
-1.83066e-07
-1.55369e-08
-3.74321e-08
-2.42573e-07
-2.1257e-08
-5.56648e-08
-2.83232e-07
-2.60194e-08
-7.38026e-08
-3.12196e-07
-3.08088e-08
-9.0321e-08
-3.33249e-07
-3.62238e-08
-1.03735e-07
-3.48662e-07
-4.25825e-08
-1.12628e-07
-3.599e-07
-4.99886e-08
-1.15779e-07
-3.67944e-07
-5.83705e-08
-1.12273e-07
-3.73508e-07
-6.74408e-08
-1.01666e-07
-3.77164e-07
-7.67124e-08
-8.41174e-08
-3.79379e-07
-8.55496e-08
-6.04743e-08
-3.80593e-07
-9.31694e-08
-3.22785e-08
-3.81156e-07
-9.88054e-08
-1.64147e-09
-3.81334e-07
-1.01808e-07
2.90391e-08
-3.81259e-07
-1.01846e-07
5.73649e-08
-3.80936e-07
-9.89214e-08
8.12101e-08
-3.80239e-07
-9.3347e-08
9.90305e-08
-3.7892e-07
-8.57714e-08
1.09943e-07
-3.76614e-07
-7.69666e-08
1.13782e-07
-3.72904e-07
-6.7711e-08
1.10977e-07
-3.67313e-07
-5.8643e-08
1.02418e-07
-3.59268e-07
-5.02512e-08
8.93307e-08
-3.48057e-07
-4.28249e-08
7.31069e-08
-3.32688e-07
-3.64389e-08
5.52295e-08
-3.11704e-07
-3.099e-08
3.72096e-08
-2.82832e-07
-2.61553e-08
2.05861e-08
-2.42267e-07
-2.13422e-08
7.1669e-09
-1.82873e-07
-1.55696e-08
-8.83216e-08
-7.16229e-09
-7.7397e-09
-7.29055e-08
-7.74645e-09
-2.22911e-08
-1.51768e-07
-1.67467e-08
-4.0388e-08
-2.01605e-07
-2.28714e-08
-6.00874e-08
-2.35585e-07
-2.79477e-08
-7.97164e-08
-2.59533e-07
-3.30341e-08
-9.76167e-08
-2.76582e-07
-3.87659e-08
-1.12152e-07
-2.88645e-07
-4.54821e-08
-1.21785e-07
-2.96971e-07
-5.32965e-08
-1.25185e-07
-3.02437e-07
-6.21069e-08
-1.21367e-07
-3.05716e-07
-7.16095e-08
-1.09866e-07
-3.07357e-07
-8.13086e-08
-9.08427e-08
-3.07876e-07
-9.05263e-08
-6.52457e-08
-3.07735e-07
-9.8455e-08
-3.47329e-08
-3.07353e-07
-1.04316e-07
-1.5777e-09
-3.07043e-07
-1.07446e-07
3.16191e-08
-3.06977e-07
-1.07479e-07
6.22536e-08
-3.07159e-07
-1.04412e-07
8.80481e-08
-3.07427e-07
-9.86066e-08
1.07316e-07
-3.07466e-07
-9.07219e-08
1.19117e-07
-3.0688e-07
-8.15359e-08
1.23255e-07
-3.05189e-07
-7.18528e-08
1.20189e-07
-3.01891e-07
-6.23556e-08
1.10884e-07
-2.96424e-07
-5.35387e-08
9.66587e-08
-2.88124e-07
-4.57083e-08
7.90483e-08
-2.76108e-07
-3.89688e-08
5.96719e-08
-2.59121e-07
-3.32065e-08
4.01722e-08
-2.35248e-07
-2.80848e-08
2.22178e-08
-2.01354e-07
-2.29593e-08
7.73707e-09
-1.51614e-07
-1.67781e-08
-7.28519e-08
-7.73266e-09
-7.97657e-09
-5.6947e-08
-7.98199e-09
-2.29765e-08
-1.1953e-07
-1.72377e-08
-4.16755e-08
-1.59405e-07
-2.35009e-08
-6.20916e-08
-1.86517e-07
-2.86526e-08
-8.24855e-08
-2.0535e-07
-3.37895e-08
-1.01116e-07
-2.18388e-07
-3.95639e-08
-1.16258e-07
-2.27189e-07
-4.63145e-08
-1.2629e-07
-2.32791e-07
-5.4148e-08
-1.29815e-07
-2.3596e-07
-6.29518e-08
-1.25819e-07
-2.37291e-07
-7.24208e-08
-1.13833e-07
-2.37302e-07
-8.20403e-08
-9.40664e-08
-2.36496e-07
-9.11469e-08
-6.74985e-08
-2.35344e-07
-9.89586e-08
-3.58599e-08
-2.34276e-07
-1.04716e-07
-1.50057e-09
-2.33626e-07
-1.07777e-07
3.28973e-08
-2.3357e-07
-1.07805e-07
6.46499e-08
-2.34113e-07
-1.04798e-07
9.13977e-08
-2.35085e-07
-9.90899e-08
1.11404e-07
-2.36155e-07
-9.13163e-08
1.23668e-07
-2.36904e-07
-8.22397e-08
1.27967e-07
-2.36852e-07
-7.26363e-08
1.24754e-07
-2.35504e-07
-6.31739e-08
1.15041e-07
-2.32344e-07
-5.43667e-08
1.00195e-07
-2.26758e-07
-4.65209e-08
8.18403e-08
-2.18002e-07
-3.97514e-08
6.16852e-08
-2.05016e-07
-3.395e-08
4.14643e-08
-1.86249e-07
-2.87775e-08
2.29049e-08
-1.59213e-07
-2.35812e-08
7.97208e-09
-1.19415e-07
-1.72671e-08
-5.69109e-08
-7.96891e-09
-7.83448e-09
-4.12718e-08
-7.84069e-09
-2.26193e-08
-8.78368e-08
-1.69086e-08
-4.11463e-08
-1.17876e-07
-2.30026e-08
-6.15057e-08
-1.38188e-07
-2.79698e-08
-8.19474e-08
-1.52008e-07
-3.28999e-08
-1.0069e-07
-1.61202e-07
-3.84436e-08
-1.15961e-07
-1.66985e-07
-4.49326e-08
-1.26086e-07
-1.70209e-07
-5.24574e-08
-1.29663e-07
-1.71484e-07
-6.0899e-08
-1.25673e-07
-1.7133e-07
-6.99517e-08
-1.13664e-07
-1.70195e-07
-7.91159e-08
-9.38753e-08
-1.68533e-07
-8.7752e-08
-6.73118e-08
-1.66782e-07
-9.51254e-08
-3.57093e-08
-1.65336e-07
-1.00543e-07
-1.40691e-09
-1.64506e-07
-1.03422e-07
3.29313e-08
-1.64462e-07
-1.03446e-07
6.46389e-08
-1.65208e-07
-1.00613e-07
9.13719e-08
-1.66582e-07
-9.52366e-08
1.1138e-07
-1.68269e-07
-8.78937e-08
1.23643e-07
-1.69883e-07
-7.92853e-08
1.27918e-07
-1.70985e-07
-7.01413e-08
1.2464e-07
-1.7113e-07
-6.10966e-08
1.14806e-07
-1.69855e-07
-5.2654e-08
9.98211e-08
-1.66653e-07
-4.51197e-08
8.13371e-08
-1.60903e-07
-3.8615e-08
6.11211e-08
-1.51753e-07
-3.3047e-08
4.0947e-08
-1.37989e-07
-2.80857e-08
2.25475e-08
-1.17736e-07
-2.30776e-08
7.83024e-09
-8.77606e-08
-1.69366e-08
-4.12516e-08
-7.82907e-09
-7.26061e-09
-2.67455e-08
-7.26577e-09
-2.10983e-08
-5.83595e-08
-1.56396e-08
-3.86593e-08
-7.91164e-08
-2.11984e-08
-5.81827e-08
-9.29867e-08
-2.56775e-08
-7.79639e-08
-1.02107e-07
-3.01199e-08
-9.6218e-08
-1.07796e-07
-3.51514e-08
-1.11156e-07
-1.10959e-07
-4.10882e-08
-1.21119e-07
-1.12237e-07
-4.80087e-08
-1.24706e-07
-1.1211e-07
-5.57861e-08
-1.20939e-07
-1.10978e-07
-6.41193e-08
-1.09395e-07
-1.09204e-07
-7.25345e-08
-9.03348e-08
-1.07157e-07
-8.04364e-08
-6.47451e-08
-1.05202e-07
-8.71703e-08
-3.43134e-08
-1.03664e-07
-9.21038e-08
-1.2923e-09
-1.02809e-07
-9.47186e-08
3.17612e-08
-1.02777e-07
-9.47391e-08
6.22881e-08
-1.03571e-07
-9.21639e-08
8.80302e-08
-1.05053e-07
-8.72704e-08
1.07292e-07
-1.06963e-07
-8.05679e-08
1.1907e-07
-1.08975e-07
-7.26856e-08
1.23098e-07
-1.10728e-07
-6.42854e-08
1.1978e-07
-1.11851e-07
-5.59605e-08
1.1009e-07
-1.11983e-07
-4.81832e-08
9.54125e-08
-1.10719e-07
-4.12561e-08
7.73985e-08
-1.07583e-07
-3.5306e-08
5.7828e-08
-1.01928e-07
-3.02539e-08
3.84737e-08
-9.2851e-08
-2.57841e-08
2.10326e-08
-7.90265e-08
-2.12685e-08
7.25532e-09
-5.8316e-08
-1.56673e-08
-2.67395e-08
-7.25686e-09
-6.18476e-09
-1.43711e-08
-6.18966e-09
-1.82981e-08
-3.29715e-08