/*--------------------------------*- C++ -*----------------------------------*\
| =========                 |                                                 |
| \\      /  F ield         | OpenFOAM: The Open Source CFD Toolbox           |
|  \\    /   O peration     | Version:  v1906                                 |
|   \\  /    A nd           | Web:      www.OpenFOAM.com                      |
|    \\/     M anipulation  |                                                 |
\*---------------------------------------------------------------------------*/
FoamFile
{
    version     2.0;
    format      ascii;
    class       volVectorField;
    location    "41.8/oil";
    object      U;
}
// * * * * * * * * * * * * * * * * * * * * * * * * * * * * * * * * * * * * * //

dimensions      [0 1 -1 0 0 0 0];


internalField   nonuniform List<vector> 
27760
(
(-2.65118e-05 -2.70385e-05 -2.65118e-05)
(-5.23465e-05 -2.02868e-05 -1.90903e-05)
(-3.857e-06 -5.26859e-06 -5.20644e-06)
(-6.32715e-06 -8.69268e-07 -9.2902e-07)
(-1.45814e-06 -2.88039e-07 -3.56027e-07)
(-7.36343e-07 -1.30598e-07 -2.01277e-07)
(-8.83774e-08 -3.6452e-08 -1.11272e-07)
(2.16123e-07 2.33612e-09 -7.67169e-08)
(3.8394e-07 2.331e-08 -5.91183e-08)
(4.56768e-07 3.55874e-08 -4.9219e-08)
(4.62596e-07 4.40158e-08 -4.21806e-08)
(4.15208e-07 5.00011e-08 -3.68535e-08)
(3.25111e-07 5.43409e-08 -3.27399e-08)
(2.02951e-07 5.72859e-08 -2.98241e-08)
(6.03607e-08 5.88426e-08 -2.82444e-08)
(-9.01183e-08 5.90069e-08 -2.80815e-08)
(-2.35781e-07 5.78259e-08 -2.9288e-08)
(-3.64777e-07 5.542e-08 -3.16636e-08)
(-4.67196e-07 5.19846e-08 -3.48609e-08)
(-5.35801e-07 4.77639e-08 -3.84203e-08)
(-5.66721e-07 4.28429e-08 -4.1907e-08)
(-5.59751e-07 3.7464e-08 -4.47682e-08)
(-5.17671e-07 3.19894e-08 -4.62588e-08)
(-4.46241e-07 2.64434e-08 -4.60496e-08)
(-3.54054e-07 2.09502e-08 -4.37155e-08)
(-2.51765e-07 1.57341e-08 -3.89482e-08)
(-1.51741e-07 1.12616e-08 -3.17626e-08)
(-6.75043e-08 8.41416e-09 -2.27534e-08)
(-1.15827e-08 8.45785e-09 -1.3697e-08)
(5.11586e-09 9.97236e-09 -5.01901e-09)
(-1.92394e-05 -5.37842e-05 -1.92393e-05)
(-6.33897e-06 -6.94005e-06 -8.61601e-06)
(-8.61141e-06 -8.38225e-06 -3.01036e-06)
(-4.06223e-06 -2.36456e-06 -8.59133e-07)
(-1.69407e-06 -1.39836e-06 -4.24211e-07)
(-6.02534e-07 -7.20016e-07 -2.05783e-07)
(1.61225e-07 -4.28735e-07 -9.917e-08)
(6.01474e-07 -2.72003e-07 -4.79256e-08)
(8.57231e-07 -1.80931e-07 -1.82254e-08)
(9.68149e-07 -1.20106e-07 1.26346e-09)
(9.61716e-07 -7.4991e-08 1.60421e-08)
(8.55427e-07 -4.00182e-08 2.79716e-08)
(6.66436e-07 -1.33082e-08 3.73866e-08)
(4.141e-07 5.27638e-09 4.40403e-08)
(1.21006e-07 1.53412e-08 4.76163e-08)
(-1.87883e-07 1.66751e-08 4.79317e-08)
(-4.87063e-07 9.57048e-09 4.50663e-08)
(-7.5269e-07 -5.05845e-09 3.9404e-08)
(-9.64767e-07 -2.57233e-08 3.16001e-08)
(-1.10894e-06 -5.05195e-08 2.2511e-08)
(-1.17742e-06 -7.74459e-08 1.31702e-08)
(-1.16936e-06 -1.04378e-07 4.53485e-09)
(-1.09064e-06 -1.29101e-07 -2.52652e-09)
(-9.53142e-07 -1.49706e-07 -7.29005e-09)
(-7.73688e-07 -1.63995e-07 -9.21833e-09)
(-5.72913e-07 -1.69249e-07 -8.1024e-09)
(-3.73858e-07 -1.61753e-07 -4.27293e-09)
(-1.99896e-07 -1.36668e-07 1.06068e-09)
(-7.17289e-08 -8.86913e-08 5.15861e-09)
(-4.49992e-09 -2.28465e-08 4.64504e-09)
(-5.32761e-06 -4.9948e-06 -5.32756e-06)
(-8.43085e-06 -9.32799e-06 -3.08539e-06)
(-4.48623e-06 -5.14047e-06 -1.36224e-06)
(-2.7531e-06 -2.84123e-06 -6.42818e-07)
(-1.16335e-06 -1.88628e-06 -3.00445e-07)
(-1.99093e-07 -1.29338e-06 -1.32406e-07)
(4.98165e-07 -9.82293e-07 -4.4832e-08)
(9.44261e-07 -7.91128e-07 2.81676e-09)
(1.21121e-06 -6.62914e-07 3.34125e-08)
(1.32139e-06 -5.6655e-07 5.56906e-08)
(1.29327e-06 -4.88958e-07 7.37589e-08)
(1.14198e-06 -4.253e-07 8.88241e-08)
(8.86018e-07 -3.7507e-07 1.00893e-07)
(5.48894e-07 -3.39475e-07 1.09484e-07)
(1.59267e-07 -3.1994e-07 1.14101e-07)
(-2.50649e-07 -3.17169e-07 1.14465e-07)
(-6.47696e-07 -3.30646e-07 1.10657e-07)
(-1.0008e-06 -3.58472e-07 1.03146e-07)
(-1.28391e-06 -3.97484e-07 9.27509e-08)
(-1.4783e-06 -4.43607e-07 8.05334e-08)
(-1.57393e-06 -4.92206e-07 6.76734e-08)
(-1.56989e-06 -5.38543e-07 5.53222e-08)
(-1.47384e-06 -5.77887e-07 4.44857e-08)
(-1.30104e-06 -6.05422e-07 3.59567e-08)
(-1.07276e-06 -6.15872e-07 3.02132e-08)
(-8.1455e-07 -6.02976e-07 2.73161e-08)
(-5.54157e-07 -5.58744e-07 2.67146e-08)
(-3.18467e-07 -4.73156e-07 2.6835e-08)
(-1.32154e-07 -3.33996e-07 2.45499e-08)
(-1.36765e-08 -1.3391e-07 1.38619e-08)
(-9.66902e-07 -7.18047e-06 -9.6684e-07)
(-2.27308e-06 -5.30353e-06 -8.79541e-07)
(-1.98853e-06 -4.25825e-06 -6.38202e-07)
(-1.27252e-06 -3.05688e-06 -3.34797e-07)
(-3.7534e-07 -2.40191e-06 -1.56072e-07)
(3.2147e-07 -1.96384e-06 -5.40778e-08)
(8.80757e-07 -1.69499e-06 7.08067e-09)
(1.27313e-06 -1.50629e-06 4.57024e-08)
(1.51307e-06 -1.36208e-06 7.38702e-08)
(1.60197e-06 -1.24174e-06 9.66438e-08)
(1.54609e-06 -1.13747e-06 1.16306e-07)
(1.35555e-06 -1.04793e-06 1.33247e-07)
(1.04775e-06 -9.75288e-07 1.47035e-07)
(6.47877e-07 -9.22972e-07 1.56924e-07)
(1.88126e-07 -8.93985e-07 1.62235e-07)
(-2.94562e-07 -8.89826e-07 1.62604e-07)
(-7.6187e-07 -9.09828e-07 1.581e-07)
(-1.17779e-06 -9.50988e-07 1.4925e-07)
(-1.51214e-06 -1.00819e-06 1.36993e-07)
(-1.74337e-06 -1.07479e-06 1.22537e-07)
(-1.86003e-06 -1.14324e-06 1.07194e-07)
(-1.86123e-06 -1.20569e-06 9.22285e-08)
(-1.75588e-06 -1.25421e-06 7.87223e-08)
(-1.56132e-06 -1.2807e-06 6.74873e-08)
(-1.30132e-06 -1.27641e-06 5.89602e-08)
(-1.00392e-06 -1.23113e-06 5.31233e-08)
(-6.99158e-07 -1.13216e-06 4.93341e-08)
(-4.15622e-07 -9.63041e-07 4.58065e-08)
(-1.8162e-07 -7.00397e-07 3.91312e-08)
(-2.08208e-08 -3.08728e-07 2.10552e-08)
(-3.24783e-07 -2.43037e-06 -3.24705e-07)
(-1.12891e-06 -3.51605e-06 -3.96373e-07)
(-8.67606e-07 -3.55908e-06 -2.80508e-07)
(-4.02566e-07 -3.19969e-06 -1.48129e-07)
(2.04591e-07 -2.92461e-06 -5.54523e-08)
(7.49292e-07 -2.69088e-06 5.20465e-09)
(1.21383e-06 -2.51152e-06 4.69801e-08)
(1.55687e-06 -2.35847e-06 7.77082e-08)
(1.76619e-06 -2.22031e-06 1.03245e-07)
(1.83066e-06 -2.0905e-06 1.25982e-07)
(1.74796e-06 -1.96902e-06 1.46748e-07)
(1.52397e-06 -1.85975e-06 1.65205e-07)
(1.17462e-06 -1.76865e-06 1.80471e-07)
(7.25794e-07 -1.70201e-06 1.9151e-07)
(2.12062e-07 -1.66483e-06 1.97438e-07)
(-3.26232e-07 -1.65958e-06 1.97787e-07)
(-8.46943e-07 -1.68555e-06 1.92611e-07)
(-1.31037e-06 -1.73869e-06 1.82498e-07)
(-1.68333e-06 -1.81189e-06 1.68531e-07)
(-1.94224e-06 -1.89583e-06 1.5206e-07)
(-2.07485e-06 -1.97996e-06 1.34557e-07)
(-2.08046e-06 -2.05321e-06 1.17407e-07)
(-1.96895e-06 -2.10437e-06 1.01761e-07)
(-1.75907e-06 -2.12204e-06 8.8453e-08)
(-1.47617e-06 -2.09393e-06 7.7907e-08)
(-1.1497e-06 -2.00579e-06 7.00594e-08)
(-8.11022e-07 -1.83963e-06 6.42188e-08)
(-4.9005e-07 -1.57093e-06 5.84473e-08)
(-2.18628e-07 -1.16066e-06 4.90743e-08)
(-2.58332e-08 -5.32764e-07 2.61205e-08)
(-1.41918e-07 -1.9555e-06 -1.41824e-07)
(-3.6686e-07 -3.10561e-06 -1.55231e-07)
(-1.76853e-07 -3.543e-06 -1.03182e-07)
(1.72586e-07 -3.61092e-06 -4.23446e-08)
(6.33786e-07 -3.5918e-06 7.20647e-09)
(1.08537e-06 -3.52017e-06 4.44716e-08)
(1.48534e-06 -3.42935e-06 7.44158e-08)
(1.78914e-06 -3.32169e-06 1.00152e-07)
(1.97153e-06 -3.2016e-06 1.24204e-07)
(2.01393e-06 -3.07339e-06 1.47351e-07)
(1.90824e-06 -2.94406e-06 1.69447e-07)
(1.65705e-06 -2.82252e-06 1.89588e-07)
(1.27488e-06 -2.71857e-06 2.06481e-07)
(7.87896e-07 -2.64141e-06 2.18782e-07)
(2.3239e-07 -2.59809e-06 2.25384e-07)
(-3.4869e-07 -2.59215e-06 2.25704e-07)
(-9.10207e-07 -2.62287e-06 2.19781e-07)
(-1.40957e-06 -2.68527e-06 2.08282e-07)
(-1.81129e-06 -2.7704e-06 1.92453e-07)
(-2.09038e-06 -2.86649e-06 1.73846e-07)
(-2.23421e-06 -2.9602e-06 1.5413e-07)
(-2.24241e-06 -3.03743e-06 1.34831e-07)
(-2.12579e-06 -3.08394e-06 1.17185e-07)
(-1.90426e-06 -3.08523e-06 1.02074e-07)
(-1.60419e-06 -3.02556e-06 8.99215e-08)
(-1.25598e-06 -2.88651e-06 8.0635e-08)
(-8.91921e-07 -2.64427e-06 7.34796e-08)
(-5.43078e-07 -2.2645e-06 6.63929e-08)
(-2.443e-07 -1.6887e-06 5.5458e-08)
(-2.91263e-08 -7.91703e-07 2.94661e-08)
(-3.99021e-08 -1.63718e-06 -3.97943e-08)
(-4.41101e-08 -3.06787e-06 -3.95326e-08)
(1.75526e-07 -3.81555e-06 -1.36801e-08)
(5.06344e-07 -4.17929e-06 1.65333e-08)
(9.12573e-07 -4.36196e-06 4.46864e-08)
(1.3189e-06 -4.42885e-06 6.94047e-08)
(1.68206e-06 -4.42447e-06 9.27143e-08)
(1.96e-06 -4.36871e-06 1.1574e-07)
(2.12291e-06 -4.27679e-06 1.39346e-07)
(2.1487e-06 -4.16109e-06 1.63402e-07)
(2.02592e-06 -4.03428e-06 1.87127e-07)
(1.75487e-06 -3.90959e-06 2.09175e-07)
(1.34891e-06 -3.80011e-06 2.27877e-07)
(8.34342e-07 -3.71763e-06 2.41573e-07)
(2.48679e-07 -3.67105e-06 2.48911e-07)
(-3.63129e-07 -3.6648e-06 2.49201e-07)
(-9.53697e-07 -3.69828e-06 2.42465e-07)
(-1.47821e-06 -3.76574e-06 2.2945e-07)
(-1.89948e-06 -3.85679e-06 2.11596e-07)
(-2.19166e-06 -3.95762e-06 1.907e-07)
(-2.34201e-06 -4.05256e-06 1.68653e-07)
(-2.35077e-06 -4.12506e-06 1.47149e-07)
(-2.22966e-06 -4.15834e-06 1.27547e-07)
(-1.99951e-06 -4.13514e-06 1.10763e-07)
(-1.68748e-06 -4.03649e-06 9.72332e-08)
(-1.32454e-06 -3.83971e-06 8.68338e-08)
(-9.43574e-07 -3.51457e-06 7.87901e-08)
(-5.7645e-07 -3.01557e-06 7.09408e-08)
(-2.60091e-07 -2.26181e-06 5.91558e-08)
(-3.10652e-08 -1.07349e-06 3.14552e-08)
(-1.05209e-09 -1.67747e-06 -9.30881e-10)
(1.12032e-07 -3.34709e-06 1.20464e-08)
(3.63376e-07 -4.31593e-06 2.91384e-08)
(6.97206e-07 -4.88366e-06 4.69983e-08)
(1.08106e-06 -5.22031e-06 6.52512e-08)
(1.46334e-06 -5.40184e-06 8.38511e-08)
(1.80401e-06 -5.47774e-06 1.03895e-07)
(2.06442e-06 -5.47708e-06 1.25815e-07)
(2.21372e-06 -5.42153e-06 1.49715e-07)
(2.22838e-06 -5.32875e-06 1.75006e-07)
(2.09503e-06 -5.21538e-06 2.00509e-07)
(1.81238e-06 -5.09768e-06 2.24528e-07)
(1.39279e-06 -4.99123e-06 2.45066e-07)
(8.62436e-07 -4.90969e-06 2.60176e-07)
(2.59565e-07 -4.86327e-06 2.68257e-07)
(-3.69603e-07 -4.85709e-06 2.68514e-07)
(-9.76291e-07 -4.89062e-06 2.60958e-07)
(-1.51426e-06 -4.95773e-06 2.46419e-07)
(-1.94525e-06 -5.04699e-06 2.26549e-07)
(-2.24307e-06 -5.14331e-06 2.03383e-07)
(-2.39526e-06 -5.22941e-06 1.79043e-07)
(-2.40279e-06 -5.28698e-06 1.55419e-07)
(-2.27825e-06 -5.29736e-06 1.33993e-07)
(-2.04312e-06 -5.24096e-06 1.1571e-07)
(-1.72507e-06 -5.09598e-06 1.0101e-07)
(-1.35523e-06 -4.83542e-06 8.97343e-08)
(-9.66559e-07 -4.42217e-06 8.1083e-08)
(-5.91188e-07 -3.79862e-06 7.28189e-08)
(-2.66947e-07 -2.85968e-06 6.06814e-08)
(-3.18742e-08 -1.36771e-06 3.23102e-08)
(1.61987e-08 -1.8391e-06 1.63312e-08)
(1.82477e-07 -3.76389e-06 3.58281e-08)
(4.53276e-07 -4.92801e-06 4.93536e-08)
(7.89973e-07 -5.66058e-06 6.18042e-08)
(1.16085e-06 -6.12617e-06 7.5361e-08)
(1.5263e-06 -6.40861e-06 9.09587e-08)
(1.84999e-06 -6.56151e-06 1.09423e-07)
(2.0966e-06 -6.61947e-06 1.30966e-07)
(2.23588e-06 -6.60817e-06 1.55363e-07)
(2.24403e-06 -6.54848e-06 1.81782e-07)
(2.10676e-06 -6.45952e-06 2.08813e-07)
(1.82165e-06 -6.35939e-06 2.3451e-07)
(1.40013e-06 -6.265e-06 2.56615e-07)
(8.67885e-07 -6.19102e-06 2.72925e-07)
(2.63188e-07 -6.14838e-06 2.81611e-07)
(-3.67474e-07 -6.14253e-06 2.81836e-07)
(-9.75004e-07 -6.17307e-06 2.73606e-07)
(-1.51278e-06 -6.23374e-06 2.57772e-07)
(-1.94234e-06 -6.31279e-06 2.3618e-07)
(-2.23773e-06 -6.39449e-06 2.11098e-07)
(-2.38703e-06 -6.46081e-06 1.84865e-07)
(-2.39202e-06 -6.49261e-06 1.59521e-07)
(-2.26597e-06 -6.47003e-06 1.36631e-07)
(-2.03074e-06 -6.37181e-06 1.17184e-07)
(-1.71397e-06 -6.17359e-06 1.01611e-07)
(-1.34636e-06 -5.84419e-06 8.97363e-08)
(-9.60315e-07 -5.33951e-06 8.0723e-08)
(-5.87445e-07 -4.58919e-06 7.23132e-08)
(-2.65243e-07 -3.4631e-06 6.02418e-08)
(-3.1653e-08 -1.66473e-06 3.21303e-08)
(2.28033e-08 -2.05842e-06 2.29451e-08)
(2.08723e-07 -4.24447e-06 4.50747e-08)
(4.82983e-07 -5.58877e-06 5.69721e-08)
(8.12942e-07 -6.4634e-06 6.69708e-08)
(1.16757e-06 -7.04177e-06 7.82351e-08)
(1.51396e-06 -7.41592e-06 9.2256e-08)
(1.81932e-06 -7.64362e-06 1.0981e-07)
(2.05145e-06 -7.76321e-06 1.31042e-07)
(2.18162e-06 -7.80296e-06 1.55638e-07)
(2.18665e-06 -7.78554e-06 1.82651e-07)
(2.05195e-06 -7.73108e-06 2.10541e-07)
(1.77428e-06 -7.65824e-06 2.37222e-07)
(1.36412e-06 -7.58428e-06 2.60241e-07)
(8.46112e-07 -7.52407e-06 2.77242e-07)
(2.57624e-07 -7.48858e-06 2.86262e-07)
(-3.55786e-07 -7.48328e-06 2.86454e-07)
(-9.46249e-07 -7.50789e-06 2.77818e-07)
(-1.46803e-06 -7.55628e-06 2.61197e-07)
(-1.88345e-06 -7.61689e-06 2.3857e-07)
(-2.16747e-06 -7.67426e-06 2.1234e-07)
(-2.30908e-06 -7.71045e-06 1.84976e-07)
(-2.31082e-06 -7.70629e-06 1.58649e-07)
(-2.18627e-06 -7.64154e-06 1.34971e-07)
(-1.95715e-06 -7.49392e-06 1.14944e-07)
(-1.65036e-06 -7.23685e-06 9.89688e-08)
(-1.29553e-06 -6.83529e-06 8.68513e-08)
(-9.23628e-07 -6.23812e-06 7.77682e-08)
(-5.64777e-07 -5.3623e-06 6.94987e-08)
(-2.54909e-07 -4.05283e-06 5.78777e-08)
(-3.04142e-08 -1.95507e-06 3.09288e-08)
(2.42715e-08 -2.29256e-06 2.44161e-08)
(2.08839e-07 -4.73414e-06 4.65586e-08)
(4.70967e-07 -6.24587e-06 5.7243e-08)
(7.81216e-07 -7.24717e-06 6.5817e-08)
(1.11033e-06 -7.92677e-06 7.56912e-08)
(1.43012e-06 -8.38561e-06 8.85481e-08)
(1.71137e-06 -8.686e-06 1.05142e-07)
(1.92515e-06 -8.86911e-06 1.25629e-07)
(2.04501e-06 -8.96477e-06 1.49654e-07)
(2.04906e-06 -8.99639e-06 1.76262e-07)
(1.92303e-06 -8.98403e-06 2.03881e-07)
(1.66323e-06 -8.94601e-06 2.30385e-07)
(1.279e-06 -8.89906e-06 2.53286e-07)
(7.93255e-07 -8.85743e-06 2.70188e-07)
(2.41318e-07 -8.83162e-06 2.79091e-07)
(-3.33742e-07 -8.82697e-06 2.79251e-07)
(-8.86899e-07 -8.84326e-06 2.70663e-07)
(-1.3749e-06 -8.87478e-06 2.54061e-07)
(-1.76212e-06 -8.91052e-06 2.3144e-07)
(-2.02524e-06 -8.93587e-06 2.05224e-07)
(-2.15439e-06 -8.93375e-06 1.77953e-07)
(-2.15263e-06 -8.88565e-06 1.51781e-07)
(-2.0335e-06 -8.77173e-06 1.28306e-07)
(-1.81785e-06 -8.56931e-06 1.08515e-07)
(-1.53103e-06 -8.25013e-06 9.27924e-08)
(-1.20063e-06 -7.77564e-06 8.09337e-08)
(-8.55271e-07 -7.08812e-06 7.21291e-08)
(-5.2266e-07 -6.09227e-06 6.43024e-08)
(-2.35797e-07 -4.60925e-06 5.35525e-08)
(-2.81358e-08 -2.22913e-06 2.86844e-08)
(2.27858e-08 -2.51717e-06 2.2937e-08)
(1.91464e-07 -5.19526e-06 4.32563e-08)
(4.27173e-07 -6.85815e-06 5.26143e-08)
(7.03952e-07 -7.97149e-06 6.00049e-08)
(9.95699e-07 -8.74136e-06 6.86566e-08)
(1.27855e-06 -9.27769e-06 8.02448e-08)
(1.52732e-06 -9.64717e-06 9.54595e-08)
(1.71689e-06 -9.89333e-06 1.1446e-07)
(1.82373e-06 -1.00468e-05 1.36902e-07)
(1.82806e-06 -1.01309e-05 1.61885e-07)
(1.71655e-06 -1.01649e-05 1.87904e-07)
(1.48528e-06 -1.01661e-05 2.12912e-07)
(1.14215e-06 -1.015e-05 2.34513e-07)
(7.07591e-07 -1.01296e-05 2.50438e-07)
(2.13535e-07 -1.01149e-05 2.58755e-07)
(-3.01041e-07 -1.0111e-05 2.58877e-07)
(-7.95671e-07 -1.01177e-05 2.50787e-07)
(-1.23124e-06 -1.01295e-05 2.35069e-07)
(-1.5755e-06 -1.01365e-05 2.13661e-07)
(-1.80767e-06 -1.0125e-05 1.88837e-07)
(-1.91945e-06 -1.00796e-05 1.63038e-07)
(-1.91432e-06 -9.98307e-06 1.38323e-07)
(-1.8051e-06 -9.81644e-06 1.16212e-07)
(-1.6109e-06 -9.55709e-06 9.76235e-08)
(-1.35469e-06 -9.1757e-06 8.29017e-08)
(-1.06097e-06 -8.63077e-06 7.18582e-08)
(-7.54979e-07 -7.85853e-06 6.37499e-08)
(-4.60988e-07 -6.75262e-06 5.67121e-08)
(-2.07862e-07 -5.11231e-06 4.72501e-08)
(-2.48034e-08 -2.47707e-06 2.53809e-08)
(1.94045e-08 -2.71506e-06 1.95503e-08)
(1.61096e-07 -5.59809e-06 3.66397e-08)
(3.57604e-07 -7.39047e-06 4.43438e-08)
(5.87588e-07 -8.59926e-06 5.04622e-08)
(8.29511e-07 -9.44699e-06 5.77526e-08)
(1.06418e-06 -1.00518e-05 6.76885e-08)
(1.27109e-06 -1.04843e-05 8.08803e-08)
(1.4296e-06 -1.07898e-05 9.74682e-08)
(1.51998e-06 -1.09993e-05 1.17146e-07)
(1.52529e-06 -1.11355e-05 1.39118e-07)
(1.43373e-06 -1.12163e-05 1.6205e-07)
(1.24132e-06 -1.12573e-05 1.84131e-07)
(9.54249e-07 -1.12725e-05 2.03169e-07)
(5.89544e-07 -1.12738e-05 2.17168e-07)
(1.74343e-07 -1.12703e-05 2.24412e-07)
(-2.5806e-07 -1.1267e-05 2.24481e-07)
(-6.73259e-07 -1.12639e-05 2.17373e-07)
(-1.03786e-06 -1.12556e-05 2.03491e-07)
(-1.32448e-06 -1.12329e-05 1.84554e-07)
(-1.51585e-06 -1.11837e-05 1.62583e-07)
(-1.60556e-06 -1.1094e-05 1.39775e-07)
(-1.5973e-06 -1.09486e-05 1.17958e-07)
(-1.50256e-06 -1.07296e-05 9.8496e-08)
(-1.33791e-06 -1.04151e-05 8.2166e-08)
(-1.12285e-06 -9.9752e-06 6.92801e-08)
(-8.77855e-07 -9.36589e-06 5.96624e-08)
(-6.23757e-07 -8.51858e-06 5.26808e-08)
(-3.80425e-07 -7.31723e-06 4.67664e-08)
(-1.71406e-07 -5.5422e-06 3.90092e-08)
(-2.0452e-08 -2.68917e-06 2.10573e-08)
(1.46438e-08 -2.87331e-06 1.4792e-08)
(1.20553e-07 -5.91859e-06 2.75698e-08)
(2.66897e-07 -7.81302e-06 3.3276e-08)
(4.38163e-07 -9.09738e-06 3.79003e-08)
(6.18568e-07 -1.0008e-05 4.35657e-08)
(7.94284e-07 -1.06698e-05 5.14225e-08)
(9.50219e-07 -1.11563e-05 6.19328e-08)
(1.07095e-06 -1.15144e-05 7.52473e-08)
(1.1414e-06 -1.17749e-05 9.11544e-08)
(1.14817e-06 -1.19593e-05 1.09033e-07)
(1.08161e-06 -1.20841e-05 1.27796e-07)
(9.37737e-07 -1.21629e-05 1.45965e-07)
(7.20533e-07 -1.22078e-05 1.61694e-07)
(4.42618e-07 -1.22296e-05 1.73331e-07)
(1.24992e-07 -1.22366e-05 1.79358e-07)
(-2.06036e-07 -1.22339e-05 1.7937e-07)
(-5.23139e-07 -1.22214e-05 1.73372e-07)
(-7.99955e-07 -1.21939e-05 1.61756e-07)
(-1.01538e-06 -1.21429e-05 1.46046e-07)
(-1.15669e-06 -1.20576e-05 1.27922e-07)
(-1.21977e-06 -1.1926e-05 1.09247e-07)
(-1.20846e-06 -1.17347e-05 9.14777e-08)
(-1.13237e-06 -1.14674e-05 7.57115e-08)
(-1.0047e-06 -1.11032e-05 6.25653e-08)
(-8.40506e-07 -1.06121e-05 5.22518e-08)
(-6.5529e-07 -9.94834e-06 4.46123e-08)
(-4.64514e-07 -9.03942e-06 3.91656e-08)
(-2.8274e-07 -7.76171e-06 3.47067e-08)
(-1.27207e-07 -5.88045e-06 2.90169e-08)
(-1.51615e-08 -2.85634e-06 1.57877e-08)
(8.86606e-09 -2.9818e-06 9.00561e-09)
(7.21619e-08 -6.13719e-06 1.66249e-08)
(1.59471e-07 -8.10098e-06 2.00066e-08)
(2.62091e-07 -9.43777e-06 2.29029e-08)
(3.71052e-07 -1.03936e-05 2.66392e-08)
(4.78448e-07 -1.10982e-05 3.19527e-08)
(5.75339e-07 -1.16273e-05 3.91825e-08)
(6.5225e-07 -1.20283e-05 4.84518e-08)
(6.99491e-07 -1.23316e-05 5.96345e-08)
(7.07935e-07 -1.25577e-05 7.23588e-08)
(6.70426e-07 -1.27212e-05 8.5888e-08)
(5.83138e-07 -1.28339e-05 9.92096e-08)
(4.47505e-07 -1.2906e-05 1.10949e-07)
(2.7091e-07 -1.29467e-05 1.19818e-07)
(6.69126e-08 -1.29636e-05 1.24483e-07)
(-1.46282e-07 -1.29613e-05 1.24429e-07)
(-3.49287e-07 -1.29398e-05 1.19677e-07)
(-5.23929e-07 -1.28943e-05 1.10736e-07)
(-6.5662e-07 -1.28172e-05 9.89616e-08)
(-7.4003e-07 -1.26993e-05 8.56345e-08)
(-7.72785e-07 -1.25305e-05 7.2138e-08)
(-7.58736e-07 -1.22993e-05 5.9495e-08)
(-7.0501e-07 -1.19912e-05 4.84308e-08)
(-6.20769e-07 -1.15862e-05 3.9308e-08)
(-5.15762e-07 -1.10545e-05 3.22417e-08)
(-3.99654e-07 -1.03493e-05 2.70986e-08)
(-2.81785e-07 -9.39563e-06 2.35354e-08)
(-1.70729e-07 -8.06459e-06 2.08068e-08)
(-7.65094e-08 -6.11083e-06 1.75228e-08)
(-9.06885e-09 -2.9705e-06 9.71301e-09)
(2.38028e-09 -3.03302e-06 2.51022e-09)
(1.82014e-08 -6.23916e-06 4.37497e-09)
(4.00594e-08 -8.23541e-06 5.19507e-09)
(6.67835e-08 -9.5985e-06 6.16167e-09)
(9.6921e-08 -1.05795e-05 7.73037e-09)
(1.28928e-07 -1.13103e-05 1.01682e-08)
(1.60573e-07 -1.18678e-05 1.36339e-08)
(1.88844e-07 -1.22995e-05 1.82359e-08)
(2.09978e-07 -1.26352e-05 2.40058e-08)
(2.19732e-07 -1.28942e-05 3.08754e-08)
(2.13934e-07 -1.30897e-05 3.85405e-08)
(1.89147e-07 -1.32316e-05 4.64913e-08)
(1.43925e-07 -1.3328e-05 5.38721e-08)
(7.97924e-08 -1.33864e-05 5.97807e-08)
(2.0033e-09 -1.34125e-05 6.30534e-08)
(-8.03406e-08 -1.34105e-05 6.29494e-08)
(-1.56736e-07 -1.33802e-05 5.95056e-08)
(-2.18188e-07 -1.33178e-05 5.34322e-08)
(-2.59543e-07 -1.32171e-05 4.59505e-08)
(-2.79478e-07 -1.3071e-05 3.79615e-08)
(-2.79529e-07 -1.28715e-05 3.03218e-08)
(-2.63326e-07 -1.26087e-05 2.35199e-08)
(-2.3515e-07 -1.22696e-05 1.78486e-08)
(-1.9936e-07 -1.18354e-05 1.33756e-08)
(-1.59839e-07 -1.12765e-05 1.00585e-08)
(-1.19831e-07 -1.0546e-05 7.78138e-09)
(-8.19345e-08 -9.56731e-06 6.38516e-09)
(-4.82621e-08 -8.20911e-06 5.59213e-09)
(-2.10599e-08 -6.22059e-06 4.93407e-09)
(-2.38809e-09 -3.02535e-06 3.04562e-09)
(-4.52119e-09 -3.02205e-06 -4.40471e-09)
(-3.89028e-08 -6.21486e-06 -8.64032e-09)
(-8.60915e-08 -8.20384e-06 -1.05419e-08)
(-1.39375e-07 -9.56502e-06 -1.16391e-08)
(-1.92377e-07 -1.05491e-05 -1.24413e-08)
(-2.40048e-07 -1.12878e-05 -1.31939e-08)
(-2.77712e-07 -1.18573e-05 -1.39225e-08)
(-3.01611e-07 -1.23049e-05 -1.45595e-08)
(-3.09143e-07 -1.26596e-05 -1.49572e-08)
(-2.99288e-07 -1.29401e-05 -1.49222e-08)
(-2.72824e-07 -1.31582e-05 -1.42795e-08)
(-2.32401e-07 -1.33222e-05 -1.29217e-08)
(-1.81996e-07 -1.34384e-05 -1.10524e-08)
(-1.26038e-07 -1.35118e-05 -9.07259e-09)
(-6.8146e-08 -1.35462e-05 -7.74451e-09)
(-9.51128e-09 -1.35444e-05 -7.89978e-09)
(5.00639e-08 -1.35061e-05 -9.47316e-09)
(1.09262e-07 -1.34289e-05 -1.16786e-08)
(1.64276e-07 -1.3309e-05 -1.36801e-08)
(2.10351e-07 -1.31415e-05 -1.51107e-08)
(2.43288e-07 -1.29202e-05 -1.57457e-08)
(2.60157e-07 -1.2637e-05 -1.57278e-08)
(2.60019e-07 -1.22799e-05 -1.52253e-08)
(2.43724e-07 -1.18309e-05 -1.44584e-08)
(2.1369e-07 -1.12608e-05 -1.35885e-08)
(1.73453e-07 -1.0523e-05 -1.26781e-08)
(1.27357e-07 -9.5413e-06 -1.17002e-08)
(7.99638e-08 -8.18426e-06 -1.04106e-08)
(3.70357e-08 -6.20139e-06 -8.29791e-09)
(4.63758e-09 -3.0167e-06 -3.97109e-09)
(-1.15144e-08 -2.94677e-06 -1.14037e-08)
(-9.65268e-08 -6.06024e-06 -2.18047e-08)
(-2.13227e-07 -8.00101e-06 -2.64544e-08)
(-3.47013e-07 -9.33118e-06 -2.96546e-08)
(-4.83783e-07 -1.02952e-05 -3.29012e-08)
(-6.1193e-07 -1.10217e-05 -3.69665e-08)
(-7.19973e-07 -1.1585e-05 -4.21246e-08)
(-7.97428e-07 -1.20309e-05 -4.83563e-08)
(-8.35274e-07 -1.23881e-05 -5.54326e-08)
(-8.27037e-07 -1.26745e-05 -6.2909e-08)
(-7.69654e-07 -1.29012e-05 -7.01726e-08)
(-6.64455e-07 -1.30754e-05 -7.65285e-08)
(-5.1748e-07 -1.32021e-05 -8.14097e-08)
(-3.38678e-07 -1.32843e-05 -8.44866e-08)
(-1.40777e-07 -1.33239e-05 -8.58173e-08)
(6.37956e-08 -1.33221e-05 -8.59888e-08)
(2.63602e-07 -1.32788e-05 -8.49456e-08)
(4.4602e-07 -1.3193e-05 -8.21289e-08)
(5.98096e-07 -1.3063e-05 -7.74199e-08)
(7.09456e-07 -1.28857e-05 -7.11634e-08)
(7.73791e-07 -1.26564e-05 -6.38922e-08)
(7.89438e-07 -1.2368e-05 -5.63697e-08)
(7.59209e-07 -1.20093e-05 -4.91908e-08)
(6.89377e-07 -1.15626e-05 -4.28361e-08)
(5.88757e-07 -1.09995e-05 -3.75456e-08)
(4.67612e-07 -1.02742e-05 -3.33221e-08)
(3.37114e-07 -9.31248e-06 -2.98971e-08)
(2.08473e-07 -7.98592e-06 -2.64776e-08)
(9.5297e-08 -6.05008e-06 -2.1593e-08)
(1.17031e-08 -2.94286e-06 -1.10328e-08)
(-1.82512e-08 -2.80814e-06 -1.81602e-08)
(-1.51887e-07 -5.77751e-06 -3.45036e-08)
(-3.35243e-07 -7.62992e-06 -4.18004e-08)
(-5.46219e-07 -8.90034e-06 -4.70356e-08)
(-7.63335e-07 -9.82127e-06 -5.26536e-08)
(-9.68874e-07 -1.05151e-05 -5.99691e-08)
(-1.14488e-06 -1.10529e-05 -6.94593e-08)
(-1.27445e-06 -1.14787e-05 -8.12309e-08)
(-1.34247e-06 -1.18196e-05 -9.50276e-08)
(-1.33706e-06 -1.20933e-05 -1.10195e-07)
(-1.25129e-06 -1.23107e-05 -1.25774e-07)
(-1.08484e-06 -1.24788e-05 -1.40447e-07)
(-8.45149e-07 -1.2602e-05 -1.52834e-07)
(-5.47117e-07 -1.26827e-05 -1.61722e-07)
(-2.1208e-07 -1.2722e-05 -1.66222e-07)
(1.35987e-07 -1.27201e-05 -1.66395e-07)
(4.7305e-07 -1.26772e-05 -1.62203e-07)
(7.74891e-07 -1.25929e-05 -1.53587e-07)
(1.01995e-06 -1.24667e-05 -1.41383e-07)
(1.19289e-06 -1.22959e-05 -1.26814e-07)
(1.28589e-06 -1.20764e-05 -1.11256e-07)
(1.29891e-06 -1.18012e-05 -9.60451e-08)
(1.23861e-06 -1.14593e-05 -8.21689e-08)
(1.11662e-06 -1.10334e-05 -7.02741e-08)
(9.47863e-07 -1.04961e-05 -6.06496e-08)
(7.49002e-07 -9.80371e-06 -5.31905e-08)
(5.3771e-07 -8.88501e-06 -4.73868e-08)
(3.31378e-07 -7.61781e-06 -4.19271e-08)
(1.5107e-07 -5.76949e-06 -3.43707e-08)
(1.84907e-08 -2.80513e-06 -1.78225e-08)
(-2.44236e-08 -2.61015e-06 -2.43413e-08)
(-2.02289e-07 -5.37494e-06 -4.61001e-08)
(-4.46104e-07 -7.10169e-06 -5.57903e-08)
(-7.27066e-07 -8.28566e-06 -6.2861e-08)
(-1.01706e-06 -9.14215e-06 -7.05914e-08)
(-1.29282e-06 -9.78446e-06 -8.07647e-08)
(-1.53055e-06 -1.02789e-05 -9.40725e-08)
(-1.70755e-06 -1.06665e-05 -1.10728e-07)
(-1.80312e-06 -1.09731e-05 -1.30447e-07)
(-1.80057e-06 -1.1216e-05 -1.52426e-07)
(-1.68939e-06 -1.14063e-05 -1.75356e-07)
(-1.46761e-06 -1.15514e-05 -1.9741e-07)
(-1.14377e-06 -1.16564e-05 -2.16494e-07)
(-7.37209e-07 -1.17246e-05 -2.30597e-07)
(-2.76984e-07 -1.17576e-05 -2.37989e-07)
(2.02178e-07 -1.17557e-05 -2.38155e-07)
(6.64436e-07 -1.17191e-05 -2.31063e-07)
(1.07489e-06 -1.16475e-05 -2.17217e-07)
(1.40416e-06 -1.15395e-05 -1.9832e-07)
(1.6325e-06 -1.1392e-05 -1.76369e-07)
(1.75099e-06 -1.12e-05 -1.53475e-07)
(1.76121e-06 -1.0956e-05 -1.31464e-07)
(1.67336e-06 -1.06488e-05 -1.11678e-07)
(1.50388e-06 -1.02614e-05 -9.49164e-08)
(1.27323e-06 -9.76782e-06 -8.1482e-08)
(1.0039e-06 -9.12699e-06 -7.11652e-08)
(7.19446e-07 -8.27271e-06 -6.32567e-08)
(4.4279e-07 -7.09162e-06 -5.59645e-08)
(2.01704e-07 -5.36836e-06 -4.6004e-08)
(2.46833e-08 -2.60771e-06 -2.40238e-08)
(-2.97032e-08 -2.35974e-06 -2.96386e-08)
(-2.45222e-07 -4.86684e-06 -5.60425e-08)
(-5.40374e-07 -6.43536e-06 -6.77608e-08)
(-8.80736e-07 -7.50981e-06 -7.63302e-08)
(-1.23255e-06 -8.28362e-06 -8.57445e-08)
(-1.56782e-06 -8.85874e-06 -9.81843e-08)
(-1.85775e-06 -9.29513e-06 -1.14518e-07)
(-2.07466e-06 -9.63039e-06 -1.35008e-07)
(-2.1932e-06 -9.88891e-06 -1.59321e-07)
(-2.1926e-06 -1.00872e-05 -1.86542e-07)
(-2.05941e-06 -1.02367e-05 -2.15094e-07)
(-1.7905e-06 -1.03463e-05 -2.42785e-07)
(-1.3954e-06 -1.04224e-05 -2.66957e-07)
(-8.97193e-07 -1.04701e-05 -2.85004e-07)
(-3.31397e-07 -1.04923e-05 -2.94589e-07)
(2.58334e-07 -1.04905e-05 -2.94735e-07)
(8.26119e-07 -1.04647e-05 -2.85427e-07)
(1.32814e-06 -1.04138e-05 -2.67621e-07)
(1.72858e-06 -1.03349e-05 -2.43617e-07)
(2.004e-06 -1.02232e-05 -2.16029e-07)
(2.14443e-06 -1.00721e-05 -1.87526e-07)
(2.15261e-06 -9.87303e-06 -1.60289e-07)
(2.04169e-06 -9.61428e-06 -1.35914e-07)
(1.83218e-06 -9.27943e-06 -1.15346e-07)
(1.54917e-06 -8.844e-06 -9.88981e-08)
(1.22015e-06 -8.27044e-06 -8.63171e-08)
(8.73649e-07 -7.49868e-06 -7.67362e-08)
(5.37365e-07 -6.42681e-06 -6.7949e-08)
(2.44757e-07 -4.86133e-06 -5.59568e-08)
(2.99711e-08 -2.35771e-06 -2.93275e-08)
(-3.38427e-08 -2.06648e-06 -3.37888e-08)
(-2.78594e-07 -4.27271e-06 -6.38347e-08)
(-6.13481e-07 -5.65676e-06 -7.71037e-08)
(-9.99873e-07 -6.60342e-06 -8.67672e-08)
(-1.39971e-06 -7.28053e-06 -9.73565e-08)
(-1.78125e-06 -7.77701e-06 -1.11334e-07)
(-2.11158e-06 -8.14562e-06 -1.29664e-07)
(-2.3591e-06 -8.41995e-06 -1.52642e-07)
(-2.49476e-06 -8.62239e-06 -1.79877e-07)
(-2.4947e-06 -8.76867e-06 -2.10346e-07)
(-2.34356e-06 -8.87095e-06 -2.423e-07)
(-2.03752e-06 -8.93911e-06 -2.73301e-07)
(-1.58718e-06 -8.98151e-06 -3.00402e-07)
(-1.01866e-06 -9.00515e-06 -3.2068e-07)
(-3.72349e-07 -9.01492e-06 -3.3151e-07)
(3.01503e-07 -9.0132e-06 -3.31633e-07)
(9.49721e-07 -9.00016e-06 -3.2104e-07)
(1.52194e-06 -8.97351e-06 -3.00971e-07)
(1.97742e-06 -8.92853e-06 -2.74029e-07)
(2.28977e-06 -8.85844e-06 -2.43129e-07)
(2.44793e-06 -8.75484e-06 -2.11222e-07)
(2.45538e-06 -8.6079e-06 -1.80758e-07)
(2.32717e-06 -8.40545e-06 -1.53479e-07)
(2.08687e-06 -8.13161e-06 -1.30437e-07)
(1.76327e-06 -7.76403e-06 -1.12012e-07)
(1.38781e-06 -7.26907e-06 -9.79147e-08)
(9.93101e-07 -6.5939e-06 -8.71646e-08)
(6.10622e-07 -5.64954e-06 -7.72887e-08)
(2.78162e-07 -4.2681e-06 -6.37506e-08)
(3.41016e-08 -2.0648e-06 -3.34842e-08)
(-3.66133e-08 -1.74198e-06 -3.65712e-08)
(-3.00612e-07 -3.61618e-06 -6.9056e-08)
(-6.61756e-07 -4.79701e-06 -8.33357e-08)
(-1.07897e-06 -5.60313e-06 -9.36386e-08)
(-1.51136e-06 -6.17444e-06 -1.0485e-07)
(-1.92451e-06 -6.58569e-06 -1.19615e-07)
(-2.28248e-06 -6.88191e-06 -1.38931e-07)
(-2.55068e-06 -7.0924e-06 -1.63074e-07)
(-2.69742e-06 -7.23726e-06 -1.91619e-07)
(-2.69696e-06 -7.33145e-06 -2.23447e-07)
(-2.53278e-06 -7.38718e-06 -2.56703e-07)
(-2.20097e-06 -7.41523e-06 -2.88873e-07)
(-1.71327e-06 -7.42545e-06 -3.16947e-07)
(-1.09796e-06 -7.42634e-06 -3.37907e-07)
(-3.98602e-07 -7.42434e-06 -3.49108e-07)
(3.3053e-07 -7.4228e-06 -3.49214e-07)
(1.03168e-06 -7.42181e-06 -3.38222e-07)
(1.65047e-06 -7.41823e-06 -3.17437e-07)
(2.14306e-06 -7.40576e-06 -2.89503e-07)
(2.48087e-06 -7.37602e-06 -2.57431e-07)
(2.65178e-06 -7.31918e-06 -2.24224e-07)
(2.65936e-06 -7.22448e-06 -1.92406e-07)
(2.51979e-06 -7.07967e-06 -1.63838e-07)
(2.25857e-06 -6.86971e-06 -1.39642e-07)
(1.90712e-06 -6.57449e-06 -1.20246e-07)
(1.49984e-06 -6.16466e-06 -1.05374e-07)
(1.0724e-06 -5.59512e-06 -9.4005e-08)
(6.58986e-07 -4.79102e-06 -8.35047e-08)
(3.00183e-07 -3.61242e-06 -6.89717e-08)
(3.68576e-08 -1.74064e-06 -3.62752e-08)
(-3.77953e-08 -1.39969e-06 -3.7764e-08)
(-3.09753e-07 -2.92436e-06 -7.12836e-08)
(-6.82268e-07 -3.8915e-06 -8.59177e-08)
(-1.11389e-06 -4.55011e-06 -9.6346e-08)
(-1.56263e-06 -5.01116e-06 -1.07617e-07)
(-1.99238e-06 -5.33502e-06 -1.22439e-07)
(-2.36524e-06 -5.55897e-06 -1.41824e-07)
(-2.64459e-06 -5.70781e-06 -1.6601e-07)
(-2.79718e-06 -5.79917e-06 -1.94505e-07)
(-2.79621e-06 -5.84675e-06 -2.26127e-07)
(-2.62485e-06 -5.86236e-06 -2.59011e-07)
(-2.2796e-06 -5.857e-06 -2.90668e-07)
(-1.77309e-06 -5.84109e-06 -3.18171e-07)
(-1.13488e-06 -5.82398e-06 -3.38628e-07)
(-4.10075e-07 -5.81282e-06 -3.49558e-07)
(3.45349e-07 -5.81149e-06 -3.49647e-07)
(1.07183e-06 -5.8201e-06 -3.38894e-07)
(1.71328e-06 -5.83492e-06 -3.18588e-07)
(2.22438e-06 -5.84888e-06 -2.91209e-07)
(2.57526e-06 -5.85281e-06 -2.5964e-07)
(2.75297e-06 -5.83628e-06 -2.26808e-07)
(2.76069e-06 -5.7883e-06 -1.95205e-07)
(2.61495e-06 -5.69702e-06 -1.66696e-07)
(2.34226e-06 -5.54873e-06 -1.42468e-07)
(1.97566e-06 -5.3257e-06 -1.23016e-07)
(1.55152e-06 -5.00309e-06 -1.08105e-07)
(1.10754e-06 -4.54359e-06 -9.66923e-08)
(6.79553e-07 -3.88671e-06 -8.60759e-08)
(3.09298e-07 -2.92146e-06 -7.1202e-08)
(3.80171e-08 -1.39872e-06 -3.74837e-08)
(-3.71122e-08 -1.05491e-06 -3.7089e-08)
(-3.04336e-07 -2.2275e-06 -6.99648e-08)
(-6.72234e-07 -2.97901e-06 -8.41398e-08)
(-1.10125e-06 -3.48885e-06 -9.40551e-08)
(-1.55001e-06 -3.83966e-06 -1.04752e-07)
(-1.98172e-06 -4.07796e-06 -1.18918e-07)
(-2.35736e-06 -4.23353e-06 -1.37559e-07)
(-2.63924e-06 -4.32664e-06 -1.60854e-07)
(-2.79344e-06 -4.37229e-06 -1.88258e-07)
(-2.79297e-06 -4.38242e-06 -2.18562e-07)
(-2.62128e-06 -4.36778e-06 -2.49928e-07)
(-2.27544e-06 -4.33873e-06 -2.79971e-07)
(-1.7687e-06 -4.30533e-06 -3.05958e-07)
(-1.13099e-06 -4.27669e-06 -3.25205e-07)
(-4.07338e-07 -4.2599e-06 -3.35469e-07)