/*--------------------------------*- C++ -*----------------------------------*\
| =========                 |                                                 |
| \\      /  F ield         | OpenFOAM: The Open Source CFD Toolbox           |
|  \\    /   O peration     | Version:  v1906                                 |
|   \\  /    A nd           | Web:      www.OpenFOAM.com                      |
|    \\/     M anipulation  |                                                 |
\*---------------------------------------------------------------------------*/
FoamFile
{
    version     2.0;
    format      ascii;
    class       volScalarField;
    location    "58";
    object      alphat;
}
// * * * * * * * * * * * * * * * * * * * * * * * * * * * * * * * * * * * * * //

dimensions      [1 -1 -1 0 0 0 0];


internalField   nonuniform List<scalar> 
78750
(
3.45605e-09
5.84632e-07
1.01889e-06
1.3967e-06
1.72998e-06
2.02365e-06
2.27781e-06
2.49317e-06
2.67083e-06
2.8119e-06
2.91766e-06
2.98954e-06
3.02905e-06
3.03781e-06
3.01748e-06
2.96984e-06
2.89685e-06
2.80083e-06
2.68456e-06
2.55144e-06
2.40526e-06
2.24719e-06
2.08125e-06
1.91018e-06
1.73621e-06
1.56103e-06
1.38589e-06
1.21204e-06
1.04114e-06
8.75366e-07
7.16722e-07
5.65055e-07
4.16548e-07
2.73529e-07
6.57621e-09
3.09192e-09
3.27813e-06
5.75888e-06
8.10647e-06
1.09888e-05
1.43256e-05
1.63383e-05
1.77598e-05
1.88705e-05
1.96886e-05
2.02319e-05
2.05176e-05
2.05619e-05
2.038e-05
1.9986e-05
1.93931e-05
1.86147e-05
1.76674e-05
1.65732e-05
1.536e-05
1.40597e-05
1.27084e-05
1.13486e-05
1.00169e-05
8.74378e-06
7.55414e-06
6.464e-06
5.47985e-06
4.60077e-06
3.82527e-06
2.52382e-06
1.47763e-06
1.26697e-06
1.14778e-06
2.36148e-08
4.13408e-09
2.49709e-06
5.02698e-06
7.64966e-06
1.06983e-05
1.43689e-05
1.796e-05
1.95677e-05
2.08655e-05
2.1874e-05
2.26109e-05
2.30916e-05
2.33293e-05
2.33346e-05
2.31157e-05
2.26801e-05
2.08492e-05
1.86617e-05
1.68027e-05
1.53036e-05
1.41289e-05
1.32499e-05
1.26383e-05
1.21434e-05
1.07673e-05
9.24043e-06
7.8165e-06
6.52683e-06
5.39809e-06
3.61193e-06
2.10399e-06
1.48507e-06
1.90557e-06
1.25666e-06
3.65745e-08
7.00084e-09
2.14595e-06
4.65431e-06
7.7714e-06
1.16813e-05
1.63421e-05
2.11396e-05
2.38441e-05
2.50365e-05
2.59125e-05
2.65032e-05
2.68361e-05
2.6936e-05
2.68257e-05
2.51521e-05
2.2793e-05
2.05068e-05
1.84205e-05
1.65864e-05
1.5034e-05
1.37868e-05
1.28552e-05
1.2225e-05
1.18356e-05
1.15394e-05
1.10726e-05
1.00944e-05
8.37532e-06
6.05895e-06
3.78978e-06
2.30259e-06
1.78164e-06
2.70657e-06
1.3151e-06
4.88535e-08
9.66093e-09
2.17574e-06
4.90211e-06
8.66006e-06
1.36894e-05
1.96061e-05
2.51362e-05
2.67662e-05
2.78532e-05
2.86051e-05
2.90592e-05
2.92472e-05
2.91968e-05
2.79684e-05
2.54367e-05
2.28514e-05
2.04412e-05
1.828e-05
1.63811e-05
1.4741e-05
1.33721e-05
1.23105e-05
1.15904e-05
1.12025e-05
1.10495e-05
1.08705e-05
1.02107e-05
8.66779e-06
6.38154e-06
4.13714e-06
2.68418e-06
2.27505e-06
3.7689e-06
1.36526e-06
6.05711e-08
1.32853e-08
2.12954e-06
4.91307e-06
9.04441e-06
1.48367e-05
2.15167e-05
2.72864e-05
2.96927e-05
3.06924e-05
3.13483e-05
3.17013e-05
3.17859e-05
2.9658e-05
2.71236e-05
2.45789e-05
2.21877e-05
2.00212e-05
1.80818e-05
1.63387e-05
1.47645e-05
1.33616e-05
1.2172e-05
1.12567e-05
1.06484e-05
1.03081e-05
1.00636e-05
9.54843e-06
8.32802e-06
6.38255e-06
4.37748e-06
3.04771e-06
2.79244e-06
4.74893e-06
1.44984e-06
7.14303e-08
1.66591e-08
2.17223e-06
5.11948e-06
9.74328e-06
1.64725e-05
2.41096e-05
3.02466e-05
3.2001e-05
3.29277e-05
3.34982e-05
3.37551e-05
3.20152e-05
2.92655e-05
2.63991e-05
2.37072e-05
2.13161e-05
1.92409e-05
1.7436e-05
1.58374e-05
1.43915e-05
1.30768e-05
1.19198e-05
1.09779e-05
1.02842e-05
9.81265e-06
9.43356e-06
8.86692e-06
7.77677e-06
6.13841e-06
4.46399e-06
3.37412e-06
3.38971e-06
5.62077e-06
1.52321e-06
8.13689e-08
2.05024e-08
2.19527e-06
5.22971e-06
1.01639e-05
1.75061e-05
2.56644e-05
3.18189e-05
3.42859e-05
3.51616e-05
3.56761e-05
3.40107e-05
3.13313e-05
2.83266e-05
2.53834e-05
2.27267e-05
2.04316e-05
1.84752e-05
1.67924e-05
1.5311e-05
1.39704e-05
1.27379e-05
1.16242e-05
1.06741e-05
9.91269e-06
9.31569e-06
8.78322e-06
8.11572e-06
7.09271e-06
5.72277e-06
4.38452e-06
3.57432e-06
3.9027e-06
6.21388e-06
1.59709e-06
9.01639e-08
2.38376e-08
2.22898e-06
5.35512e-06
1.05733e-05
1.84682e-05
2.70971e-05
3.3275e-05
3.61273e-05
3.69663e-05
3.60655e-05
3.37013e-05
3.0637e-05
2.74067e-05
2.43819e-05
2.17403e-05
1.95098e-05
1.764e-05
1.60537e-05
1.46741e-05
1.34386e-05
1.23109e-05
1.12954e-05
1.04212e-05
9.68319e-06
9.03697e-06
8.39353e-06
7.61497e-06
6.58821e-06
5.38353e-06
4.30567e-06
3.75838e-06
4.42697e-06
6.53789e-06
1.65639e-06
9.82164e-08
2.75197e-08
2.25618e-06
5.44118e-06
1.08603e-05
1.9149e-05
2.8048e-05
3.41256e-05
3.69791e-05
3.73619e-05
3.59161e-05
3.32538e-05
2.99965e-05
2.66798e-05
2.36467e-05
2.10362e-05
1.88483e-05
1.7021e-05
1.54769e-05
1.41418e-05
1.29559e-05
1.18858e-05
1.09336e-05
1.01166e-05
9.40607e-06
8.73752e-06
8.0245e-06
7.17484e-06
6.15548e-06
5.08071e-06
4.20887e-06
3.88896e-06
4.87447e-06
6.69814e-06
1.70844e-06
1.05687e-07
3.07647e-08
2.28148e-06
5.51854e-06
1.11059e-05
1.97204e-05
2.88433e-05
3.4845e-05
3.74493e-05
3.75047e-05
3.57221e-05
3.27824e-05
2.93565e-05
2.59791e-05
2.29564e-05
2.03867e-05
1.8245e-05
1.64589e-05
1.49504e-05
1.36498e-05
1.25035e-05
1.14844e-05
1.05995e-05
9.85592e-06
9.19579e-06
8.5319e-06
7.77659e-06
6.87487e-06
5.8578e-06
4.87484e-06
4.15794e-06
4.03042e-06
5.31621e-06
6.72385e-06
1.74976e-06
1.12758e-07
3.43827e-08
2.307e-06
5.58969e-06
1.13281e-05
2.02194e-05
2.94692e-05
3.5325e-05
3.76807e-05
3.74709e-05
3.54563e-05
3.23582e-05
2.88608e-05
2.5478e-05
2.24822e-05
1.99446e-05
1.78265e-05
1.60526e-05
1.45475e-05
1.32469e-05
1.21048e-05
1.11011e-05
1.02492e-05
9.55255e-06
8.93501e-06
8.29079e-06
7.52715e-06
6.6121e-06
5.61829e-06
4.71655e-06
4.12414e-06
4.15875e-06
5.71192e-06
6.6966e-06
1.78475e-06
1.19467e-07
3.77162e-08
2.33073e-06
5.65492e-06
1.15225e-05
2.06421e-05
2.99906e-05
3.57231e-05
3.78611e-05
3.74082e-05
3.51792e-05
3.19405e-05
2.83895e-05
2.50177e-05
2.20619e-05
1.95664e-05
1.74793e-05
1.5722e-05
1.42213e-05
1.29183e-05
1.17737e-05
1.0776e-05
9.94713e-06
9.28727e-06
8.70516e-06
8.0819e-06
7.32203e-06
6.41045e-06
5.44744e-06
4.61603e-06
4.12566e-06
4.30147e-06
6.10064e-06
6.62532e-06
1.81341e-06
1.25859e-07
4.13688e-08
2.3556e-06
5.72148e-06
1.17197e-05
2.10562e-05
3.0453e-05
3.60197e-05
3.79397e-05
3.72826e-05
3.49016e-05
3.15864e-05
2.80277e-05
2.46877e-05
2.17735e-05
1.93109e-05
1.7241e-05
1.54852e-05
1.39738e-05
1.26525e-05
1.14889e-05
1.0479e-05
9.65278e-06
9.01147e-06
8.45483e-06
7.85539e-06
7.11513e-06
6.22806e-06
5.30877e-06
4.54503e-06
4.14311e-06
4.4437e-06
6.46344e-06
6.54485e-06
1.83811e-06
1.31946e-07
4.48554e-08
2.37936e-06
5.78502e-06
1.19012e-05
2.14242e-05
3.08546e-05
3.62759e-05
3.80029e-05
3.71613e-05
3.46449e-05
3.12675e-05
2.77126e-05
2.44132e-05
2.15472e-05
1.91224e-05
1.70734e-05
1.53212e-05
1.37987e-05
1.24561e-05
1.12676e-05
1.02365e-05
9.40158e-06
8.76605e-06
8.22389e-06
7.64352e-06
6.9268e-06
6.07337e-06
5.20366e-06
4.5048e-06
4.18235e-06
4.59782e-06
6.82058e-06
6.45708e-06
1.85956e-06
1.37756e-07
4.85745e-08
2.40374e-06
5.84982e-06
1.20874e-05
2.17949e-05
3.12331e-05
3.64891e-05
3.80281e-05
3.70291e-05
3.44157e-05
3.10113e-05
2.74821e-05
2.42306e-05
2.14104e-05
1.90168e-05
1.69807e-05
1.52242e-05
1.3683e-05
1.23115e-05
1.10894e-05
1.00269e-05
9.17028e-06
8.52788e-06
7.99147e-06
7.42804e-06
6.74006e-06
5.92902e-06
5.11466e-06
4.47995e-06
4.2314e-06
4.75408e-06
7.16137e-06
6.37559e-06
1.87902e-06
1.43307e-07
5.21995e-08
2.42728e-06
5.91303e-06
1.22656e-05
2.21409e-05
3.15812e-05
3.66888e-05
3.806e-05
3.69213e-05
3.42257e-05
3.08052e-05
2.73084e-05
2.41089e-05
2.1337e-05
1.89766e-05
1.69547e-05
1.51941e-05
1.36325e-05
1.22281e-05
1.09662e-05
9.86362e-06
8.97436e-06
8.31387e-06
7.77384e-06
7.22236e-06
6.56362e-06
5.79878e-06
5.04258e-06
4.47126e-06
4.29327e-06
4.91913e-06
7.49668e-06
6.29969e-06
1.89705e-06
1.48631e-07
5.59896e-08
2.45121e-06
5.97744e-06
1.24483e-05
2.24914e-05
3.19192e-05
3.68711e-05
3.80831e-05
3.68256e-05
3.40726e-05
3.06561e-05
2.72021e-05
2.40565e-05
2.13307e-05
1.89997e-05
1.69885e-05
1.52201e-05
1.36343e-05
1.2193e-05
1.08858e-05
9.73574e-06
8.80341e-06
8.11448e-06
7.5629e-06
7.01931e-06
6.38999e-06
5.67389e-06
4.97774e-06
4.46957e-06
4.36021e-06
5.08627e-06
7.82009e-06
6.2348e-06
1.91436e-06
1.53745e-07
5.97258e-08
2.47447e-06
6.04102e-06
1.26276e-05
2.28298e-05
3.22433e-05
3.70531e-05
3.81223e-05
3.67609e-05
3.39623e-05
3.0557e-05
2.71492e-05
2.40592e-05
2.13808e-05
1.90809e-05
1.70817e-05
1.53058e-05
1.36945e-05
1.22127e-05
1.08546e-05
9.64887e-06
8.66331e-06
7.93592e-06
7.36476e-06
6.82427e-06
6.22303e-06
5.55645e-06
4.92114e-06
4.47586e-06
4.43423e-06
5.25941e-06
8.13759e-06
6.17889e-06
1.93118e-06
1.58671e-07
6.35828e-08
2.49813e-06
6.10613e-06
1.28121e-05
2.31742e-05
3.25642e-05
3.72303e-05
3.81658e-05
3.67162e-05
3.38882e-05
3.05049e-05
2.71478e-05
2.41135e-05
2.14814e-05
1.92119e-05
1.72247e-05
1.54416e-05
1.38046e-05
1.22808e-05
1.08684e-05
9.60071e-06
8.55249e-06
7.77677e-06
7.17787e-06
6.63495e-06
6.05913e-06
5.44132e-06
4.86672e-06
4.48412e-06
4.50992e-06
5.43358e-06
8.44502e-06
6.13419e-06
1.94793e-06
1.63421e-07
6.74102e-08
2.52128e-06
6.17112e-06
1.29966e-05
2.35155e-05
3.28817e-05
3.74142e-05
3.82286e-05
3.67019e-05
3.38522e-05
3.04949e-05
2.71895e-05
2.42113e-05
2.16266e-05
1.93895e-05
1.74169e-05
1.5629e-05
1.39673e-05
1.24e-05
1.0929e-05
9.593e-06
8.47347e-06
7.64018e-06
7.0058e-06
6.45495e-06
5.9013e-06
5.33064e-06
4.81592e-06
4.49559e-06
4.58895e-06
5.61158e-06
8.74639e-06
6.09866e-06
1.96466e-06
1.68009e-07
7.13285e-08
2.54479e-06
6.23787e-06
1.31874e-05
2.38656e-05
3.3202e-05
3.76014e-05
3.83026e-05
3.67097e-05
3.38475e-05
3.0521e-05
2.72685e-05
2.43462e-05
2.1809e-05
1.96059e-05
1.76505e-05
1.58612e-05
1.41778e-05
1.25681e-05
1.10368e-05
9.62782e-06
8.42922e-06
7.52872e-06
6.85025e-06
6.2846e-06
5.74818e-06
5.22148e-06
4.76486e-06
4.50608e-06
4.66698e-06
5.78865e-06
9.03755e-06
6.07232e-06
1.98148e-06
1.72441e-07
7.52311e-08
2.56784e-06
6.30488e-06
1.33811e-05
2.42197e-05
3.35263e-05
3.78e-05
3.83965e-05
3.67441e-05
3.38728e-05
3.05776e-05
2.73775e-05
2.45111e-05
2.2023e-05
1.98568e-05
1.79226e-05
1.6136e-05
1.44341e-05
1.27832e-05
1.11902e-05
9.70414e-06
8.42046e-06
7.44444e-06
6.71425e-06
6.12735e-06
5.60298e-06
5.11638e-06
4.71543e-06
4.51721e-06
4.74607e-06
5.96817e-06
9.32335e-06
6.05453e-06
1.99854e-06
1.76728e-07
7.92016e-08
2.59095e-06
6.37324e-06
1.35814e-05
2.45855e-05
3.386e-05
3.80098e-05
3.85065e-05
3.67996e-05
3.39222e-05
3.0659e-05
2.75109e-05
2.47007e-05
2.22632e-05
2.01368e-05
1.82283e-05
1.64496e-05
1.4734e-05
1.30453e-05
1.13911e-05
9.82534e-06
8.45126e-06
7.3908e-06
6.60037e-06
5.98457e-06
5.46571e-06
5.01403e-06
4.66532e-06
4.52598e-06
4.82239e-06
6.14478e-06
9.5986e-06
6.04332e-06
2.01567e-06
1.80874e-07
8.31613e-08
2.61341e-06
6.4414e-06
1.37851e-05
2.49601e-05
3.42072e-05
3.82397e-05
3.86382e-05
3.68757e-05
3.39899e-05
3.07569e-05
2.76604e-05
2.49075e-05
2.25232e-05
2.04404e-05
1.85624e-05
1.6797e-05
1.50728e-05
1.33501e-05
1.16361e-05
9.9891e-06
8.5209e-06
7.36894e-06
6.51108e-06
5.85949e-06
5.33957e-06
4.91715e-06
4.61658e-06
4.53395e-06
4.89763e-06
6.32232e-06
9.87301e-06
6.04048e-06
2.03291e-06
1.84885e-07
8.71692e-08
2.63561e-06
6.50989e-06
1.3993e-05
2.53432e-05
3.45623e-05
3.84771e-05
3.87853e-05
3.69655e-05
3.40695e-05
3.08666e-05
2.78226e-05
2.51286e-05
2.28e-05
2.07646e-05
1.89221e-05
1.7176e-05
1.54495e-05
1.36979e-05
1.19268e-05
1.01982e-05
8.63216e-06
7.38135e-06
6.44845e-06
5.75353e-06
5.22526e-06
4.8256e-06
4.56839e-06
4.53993e-06
4.97071e-06
6.50003e-06
1.01459e-05
6.04927e-06
2.05103e-06
1.88779e-07
9.11628e-08
2.65707e-06
6.57756e-06
1.42018e-05
2.57256e-05
3.48972e-05
3.86942e-05
3.89163e-05
3.70534e-05
3.41515e-05
3.098e-05
2.79899e-05
2.53568e-05
2.30867e-05
2.11026e-05
1.93006e-05
1.75796e-05
1.58571e-05
1.40823e-05
1.22581e-05
1.04488e-05
8.7832e-06
7.42849e-06
6.41444e-06
5.66948e-06
5.12568e-06
4.74191e-06
4.52262e-06
4.54498e-06
5.04148e-06
6.6759e-06
1.04145e-05
6.06509e-06
2.06979e-06
1.92557e-07
9.51886e-08
2.67823e-06
6.64494e-06
1.44103e-05
2.61017e-05
3.5221e-05
3.89007e-05
3.90398e-05
3.71396e-05
3.42351e-05
3.10967e-05
2.81616e-05
2.55909e-05
2.3382e-05
2.14529e-05
1.96961e-05
1.80062e-05
1.62943e-05
1.45028e-05
1.26301e-05
1.07419e-05
8.97527e-06
7.51173e-06
6.41063e-06
5.60889e-06
5.04215e-06
4.66693e-06
4.47958e-06
4.54913e-06
5.11099e-06
6.85478e-06
1.06798e-05
6.08823e-06
2.08924e-06
1.96228e-07
9.91989e-08
2.69886e-06
6.71216e-06
1.46194e-05
2.64691e-05
3.55268e-05
3.90884e-05
3.91451e-05
3.721e-05
3.43117e-05
3.12086e-05
2.83293e-05
2.5823e-05
2.36782e-05
2.18081e-05
2.01016e-05
1.84485e-05
1.67536e-05
1.49519e-05
1.30361e-05
1.10723e-05
9.20501e-06
7.63018e-06
6.4379e-06
5.57376e-06
4.97715e-06
4.60315e-06
4.4414e-06
4.5541e-06
5.18033e-06
7.03564e-06
1.09425e-05
6.11662e-06
2.10909e-06
1.99792e-07
1.03232e-07
2.71914e-06
6.78008e-06
1.48343e-05
2.68306e-05
3.58187e-05
3.92609e-05
3.92362e-05
3.72685e-05
3.43831e-05
3.1316e-05
2.84929e-05
2.60528e-05
2.39751e-05
2.21678e-05
2.0516e-05
1.89052e-05
1.72337e-05
1.54282e-05
1.34752e-05
1.14393e-05
9.47219e-06
7.7842e-06
6.49698e-06
5.56515e-06
4.93198e-06
4.55183e-06
4.40913e-06
4.56052e-06
5.24937e-06
7.21685e-06
1.12028e-05
6.15072e-06
2.12942e-06
2.03258e-07
1.07234e-07
2.73812e-06
6.84486e-06
1.5043e-05
2.71777e-05
3.6089e-05
3.94108e-05
3.93049e-05
3.73052e-05
3.44336e-05
3.14061e-05
2.86433e-05
2.62731e-05
2.42659e-05
2.25251e-05
2.09325e-05
1.93692e-05
1.77271e-05
1.59244e-05
1.39401e-05
1.18369e-05
9.77249e-06
7.97169e-06
6.5875e-06
5.58405e-06
4.90853e-06
4.51528e-06
4.3849e-06
4.56992e-06
5.31879e-06
7.39826e-06
1.14598e-05
6.1886e-06
2.14999e-06
2.06626e-07
1.11251e-07
2.75674e-06
6.90922e-06
1.52517e-05
2.75189e-05
3.63454e-05
3.95447e-05
3.93578e-05
3.73271e-05
3.44714e-05
3.14864e-05
2.87853e-05
2.64859e-05
2.45511e-05
2.28798e-05
2.13504e-05
1.98395e-05
1.82324e-05
1.64385e-05
1.44288e-05
1.22629e-05
1.0104e-05
8.1912e-06
6.7084e-06
5.63007e-06
4.90714e-06
4.49452e-06
4.37017e-06
4.58383e-06
5.38975e-06
7.58024e-06
1.17148e-05
6.23081e-06
2.17087e-06
2.09903e-07
1.15243e-07
2.77443e-06
6.97151e-06
1.54558e-05
2.78464e-05
3.65798e-05
3.96548e-05
3.9386e-05
3.7324e-05
3.44853e-05
3.15482e-05
2.89105e-05
2.66831e-05
2.48232e-05
2.32251e-05
2.17632e-05
2.03096e-05
1.87428e-05
1.69636e-05
1.49346e-05
1.27114e-05
1.0462e-05
8.43992e-06
6.85839e-06
5.70302e-06
4.92855e-06
4.49086e-06
4.36639e-06
4.60339e-06
5.46293e-06
7.76321e-06
1.19675e-05
6.27593e-06
2.1919e-06
2.1309e-07
1.19249e-07
2.79183e-06
7.03344e-06
1.56595e-05
2.81666e-05
3.67989e-05
3.97472e-05
3.93954e-05
3.73018e-05
3.44803e-05
3.1595e-05
2.9021e-05
2.68665e-05
2.50837e-05
2.35618e-05
2.21711e-05
2.07788e-05
1.92569e-05
1.74974e-05
1.54543e-05
1.31788e-05
1.08433e-05
8.71522e-06
7.03547e-06
5.80162e-06
4.97231e-06
4.50479e-06
4.37485e-06
4.63046e-06
5.5403e-06
7.94864e-06
1.22192e-05
6.32422e-06
2.21308e-06
2.16192e-07
1.23219e-07
2.8086e-06
7.09394e-06
1.58596e-05
2.84742e-05
3.69968e-05
3.98159e-05
3.93806e-05
3.72553e-05
3.4451e-05
3.16174e-05
2.91092e-05
2.70305e-05
2.53279e-05
2.38854e-05
2.25694e-05
2.12423e-05
1.97695e-05
1.80344e-05
1.59821e-05
1.36593e-05
1.12429e-05
9.0134e-06
7.23729e-06
5.92466e-06
5.03816e-06
4.53676e-06
4.39639e-06
4.6657e-06
5.62226e-06
8.1372e-06
1.24702e-05
6.37473e-06
2.23431e-06
2.19206e-07
1.27168e-07
2.825e-06
7.1535e-06
1.60563e-05
2.87702e-05
3.71784e-05
3.98654e-05
3.93428e-05
3.71841e-05
3.43976e-05
3.16179e-05
2.91795e-05
2.71792e-05
2.55581e-05
2.41968e-05
2.29577e-05
2.16989e-05
2.02787e-05
1.85716e-05
1.65141e-05
1.41486e-05
1.16559e-05
9.33014e-06
7.46043e-06
6.06979e-06
5.12483e-06
4.58649e-06
4.43168e-06
4.71129e-06
5.71333e-06
8.33103e-06
1.27216e-05
6.42744e-06
2.25558e-06
2.22132e-07
1.31103e-07
2.84122e-06
7.21311e-06
1.62534e-05
2.90608e-05
3.73434e-05
3.98948e-05
3.92858e-05
3.70952e-05
3.43268e-05
3.15991e-05
2.92253e-05
2.73018e-05
2.57666e-05
2.44907e-05
2.33317e-05
2.21442e-05
2.07802e-05
1.9105e-05
1.70463e-05
1.46422e-05
1.2078e-05
9.66116e-06
7.70144e-06
6.23454e-06
5.23095e-06
4.6537e-06
4.48139e-06
4.76832e-06
5.81395e-06
8.53243e-06
1.29743e-05
6.48202e-06
2.27683e-06
2.24968e-07
1.35031e-07
2.85748e-06
7.27397e-06
1.64489e-05
2.93393e-05
3.74898e-05
3.99039e-05
3.92064e-05
3.69821e-05
3.42314e-05
3.15578e-05
2.92547e-05
2.74109e-05
2.59574e-05
2.47656e-05
2.36896e-05
2.25765e-05
2.12716e-05
1.96314e-05
1.7575e-05
1.51363e-05
1.25053e-05
1.00028e-05
7.95729e-06
6.41658e-06
5.35498e-06
4.73773e-06
4.54563e-06
4.83727e-06
5.92453e-06
8.74233e-06
1.3229e-05
6.53842e-06
2.29806e-06
2.27716e-07
1.3893e-07
2.87344e-06
7.33544e-06
1.66423e-05
2.96065e-05
3.76164e-05
3.98909e-05
3.91051e-05
3.68486e-05
3.41164e-05
3.14964e-05
2.9263e-05
2.74995e-05
2.61313e-05
2.5024e-05
2.40296e-05
2.29925e-05
2.17493e-05
2.01469e-05
1.80959e-05
1.56264e-05
1.29333e-05
1.03507e-05
8.22433e-06
6.6131e-06
5.49499e-06
4.83759e-06
4.62434e-06
4.9189e-06
6.04646e-06
8.96285e-06
1.34867e-05
6.5966e-06
2.31929e-06
2.30378e-07
1.42794e-07
2.88824e-06
7.39428e-06
1.68322e-05
2.98619e-05
3.77247e-05
3.98579e-05
3.89827e-05
3.66932e-05
3.39796e-05
3.14139e-05
2.92519e-05
2.75699e-05
2.62875e-05
2.52662e-05
2.43538e-05
2.33912e-05
2.22109e-05
2.0649e-05
1.86065e-05
1.61099e-05
1.33593e-05
1.07022e-05
8.50025e-06
6.82204e-06
5.64929e-06
4.95203e-06
4.71673e-06
5.01281e-06
6.17981e-06
9.19439e-06
1.37472e-05
6.65651e-06
2.34054e-06
2.32954e-07
1.46613e-07
2.90266e-06
7.45254e-06
1.70197e-05
3.01051e-05
3.78137e-05
3.98038e-05
3.88389e-05
3.65171e-05
3.38228e-05
3.13117e-05
2.92217e-05
2.76216e-05
2.64253e-05
2.54901e-05
2.46608e-05
2.37732e-05
2.26538e-05
2.11331e-05
1.91019e-05
1.65818e-05
1.37789e-05
1.10535e-05
8.78201e-06
7.04112e-06
5.8164e-06
5.0804e-06
4.82283e-06
5.11956e-06
6.32552e-06
9.43824e-06
1.40105e-05
6.71776e-06
2.36175e-06
2.35441e-07
1.50396e-07
2.9163e-06
7.50918e-06
1.7204e-05
3.03363e-05
3.78847e-05
3.97303e-05
3.86751e-05
3.6321e-05
3.36463e-05
3.11904e-05
2.91734e-05
2.76558e-05
2.65458e-05
2.56967e-05
2.49501e-05
2.41379e-05
2.30799e-05
2.15989e-05
1.958e-05
1.70402e-05
1.41899e-05
1.14024e-05
9.06736e-06
7.26806e-06
5.9942e-06
5.22118e-06
4.94201e-06
5.23938e-06
6.48453e-06
9.69573e-06
1.42776e-05
6.78064e-06
2.383e-06
2.37843e-07
1.54115e-07
2.92935e-06
7.56456e-06
1.7385e-05
3.05548e-05
3.79375e-05
3.96371e-05
3.84908e-05
3.61046e-05
3.34501e-05
3.10501e-05
2.91069e-05
2.76725e-05
2.66488e-05
2.58853e-05
2.52207e-05
2.44829e-05
2.3486e-05
2.20447e-05
2.00378e-05
1.7481e-05
1.4589e-05
1.17464e-05
9.35461e-06
7.50135e-06
6.18105e-06
5.37269e-06
5.07297e-06
5.37168e-06
6.65696e-06
9.96727e-06
1.45468e-05
6.84445e-06
2.40418e-06
2.40152e-07
1.57773e-07
2.94171e-06
7.61836e-06
1.75625e-05
3.07614e-05
3.79735e-05
3.95256e-05
3.82877e-05
3.58695e-05
3.32358e-05
3.08923e-05
2.90239e-05
2.76731e-05
2.67356e-05
2.60571e-05
2.54734e-05
2.48086e-05
2.38713e-05
2.24691e-05
2.04744e-05
1.79025e-05
1.49741e-05
1.20838e-05
9.64256e-06
7.74033e-06
6.37654e-06
5.53444e-06
5.21515e-06
5.51611e-06
6.84314e-06
1.0254e-05
1.48188e-05
6.90938e-06
2.42536e-06
2.42361e-07
1.61347e-07
2.95339e-06
7.67057e-06
1.77359e-05
3.09552e-05
3.79921e-05
3.93952e-05
3.80646e-05
3.56146e-05
3.30025e-05
3.07164e-05
2.8924e-05
2.76575e-05
2.68061e-05
2.62119e-05
2.57077e-05
2.51142e-05
2.42344e-05
2.28695e-05
2.08868e-05
1.83016e-05
1.53423e-05
1.24125e-05
9.92961e-06
7.984e-06
6.58016e-06
5.7062e-06
5.36831e-06
5.67247e-06
7.04315e-06
1.05561e-05
1.50924e-05
6.97482e-06
2.44646e-06
2.44465e-07
1.64842e-07
2.96447e-06
7.72133e-06
1.79058e-05
3.11373e-05
3.79946e-05
3.92472e-05
3.78232e-05
3.53416e-05
3.2752e-05
3.05242e-05
2.88088e-05
2.7627e-05
2.68616e-05
2.63508e-05
2.59245e-05
2.54e-05
2.45753e-05
2.32454e-05
2.1274e-05
1.86774e-05
1.56913e-05
1.27305e-05
1.0214e-05
8.23108e-06
6.79119e-06
5.8877e-06
5.53256e-06
5.84112e-06
7.25757e-06
1.0874e-05
1.53676e-05
7.04106e-06
2.46743e-06
2.46472e-07
1.68236e-07
2.97484e-06
7.77026e-06
1.8071e-05
3.13061e-05
3.798e-05
3.90803e-05
3.75621e-05
3.50493e-05
3.24833e-05
3.03151e-05
2.86782e-05
2.7582e-05
2.69024e-05
2.64741e-05
2.61241e-05
2.56661e-05
2.48934e-05
2.35961e-05
2.16349e-05
1.90288e-05
1.60216e-05
1.30368e-05
1.0494e-05
8.47963e-06
7.00806e-06
6.0779e-06
5.70724e-06
6.02166e-06
7.48607e-06
1.12071e-05
1.56429e-05
7.10787e-06
2.48849e-06
2.48396e-07
1.71539e-07
2.98465e-06
7.81779e-06
1.82327e-05
3.14636e-05
3.79498e-05
3.88961e-05
3.72826e-05
3.47393e-05
3.21983e-05
3.0091e-05
2.8534e-05
2.7524e-05
2.693e-05
2.6583e-05
2.63073e-05
2.59132e-05
2.51895e-05
2.3922e-05
2.19699e-05
1.93562e-05
1.63334e-05
1.33329e-05
1.07699e-05
8.72899e-06
7.22972e-06
6.27595e-06
5.89203e-06
6.21431e-06
7.7292e-06
1.15555e-05
1.59191e-05
7.17618e-06
2.51005e-06
2.50261e-07
1.74728e-07
2.99373e-06
7.86329e-06
1.83892e-05
3.16075e-05
3.79027e-05
3.86932e-05
3.69839e-05
3.44109e-05
3.18966e-05
2.98519e-05
2.83762e-05
2.74532e-05
2.69448e-05
2.66782e-05
2.6475e-05
2.6142e-05
2.54641e-05
2.42234e-05
2.22792e-05
1.96598e-05
1.66268e-05
1.36184e-05
1.10404e-05
8.97771e-06
7.45458e-06
6.48022e-06
6.08539e-06
6.41767e-06
7.98567e-06
1.19175e-05
1.61942e-05
7.24552e-06
2.53176e-06
2.52074e-07
1.77817e-07
3.00225e-06
7.90729e-06
1.85417e-05
3.17398e-05
3.78401e-05
3.8473e-05
3.66672e-05
3.40657e-05
3.15798e-05
2.95993e-05
2.82065e-05
2.73712e-05
2.69481e-05
2.6761e-05
2.66285e-05
2.6354e-05
2.57185e-05
2.45018e-05
2.25642e-05
1.99409e-05
1.69028e-05
1.38939e-05
1.13062e-05
9.22554e-06
7.6819e-06
6.68995e-06
6.28697e-06
6.63198e-06
8.25595e-06
1.22931e-05
1.64689e-05
7.31627e-06
2.55364e-06
2.53848e-07
1.80789e-07
3.01003e-06
7.94918e-06
1.86886e-05
3.18582e-05
3.77604e-05
3.82342e-05
3.63319e-05
3.37034e-05
3.12482e-05
2.93336e-05
2.80252e-05
2.72783e-05
2.69405e-05
2.68319e-05
2.67683e-05
2.65496e-05
2.59535e-05
2.47578e-05
2.28257e-05
2.02003e-05
1.71622e-05
1.41599e-05
1.15673e-05
9.47232e-06
7.91095e-06
6.90372e-06
6.49455e-06
6.85435e-06
8.53761e-06
1.26799e-05
1.67412e-05
7.38778e-06
2.57553e-06
2.55586e-07
1.83656e-07
3.01724e-06
7.98946e-06
1.88312e-05
3.19645e-05
3.76652e-05
3.79782e-05
3.59794e-05
3.33257e-05
3.09033e-05
2.90565e-05
2.78337e-05
2.71758e-05
2.6923e-05
2.6892e-05
2.68956e-05
2.67302e-05
2.61704e-05
2.49928e-05
2.3065e-05
2.0439e-05
1.74057e-05
1.44162e-05
1.18236e-05
9.71775e-06
8.14134e-06
7.12138e-06
6.70911e-06
7.08788e-06
8.83146e-06
1.30776e-05
1.70113e-05
7.46017e-06
2.59748e-06
2.57294e-07
1.86406e-07
3.02374e-06
8.0276e-06
1.89678e-05
3.20566e-05
3.7553e-05
3.77042e-05
3.56094e-05
3.29328e-05
3.05457e-05
2.87686e-05
2.76328e-05
2.70643e-05
2.68961e-05
2.69418e-05
2.70108e-05
2.68963e-05
2.63698e-05
2.52078e-05
2.32831e-05
2.06583e-05
1.76343e-05
1.46639e-05
1.20758e-05
9.96239e-06
8.3734e-06
7.34274e-06
6.92967e-06
7.33025e-06
9.13606e-06
1.34841e-05
1.72781e-05
7.53293e-06
2.61939e-06
2.58974e-07
1.8905e-07
3.02964e-06
8.06398e-06
1.90995e-05
3.21362e-05
3.74254e-05
3.74135e-05
3.52234e-05
3.25262e-05
3.01771e-05
2.84714e-05
2.74236e-05
2.69447e-05
2.68608e-05
2.69818e-05
2.71144e-05
2.70484e-05
2.65523e-05
2.54035e-05
2.3481e-05
2.0859e-05
1.78487e-05
1.49029e-05
1.23238e-05
1.02062e-05
8.60704e-06
7.5676e-06
7.15605e-06
7.58116e-06
9.45156e-06
1.38995e-05
1.75418e-05
7.6061e-06
2.64129e-06
2.60625e-07
1.91575e-07
3.03483e-06
8.09808e-06
1.92248e-05
3.22018e-05
3.72817e-05
3.71058e-05
3.48214e-05
3.21065e-05
2.97981e-05
2.81657e-05
2.72072e-05
2.68182e-05
2.68177e-05
2.70128e-05
2.72071e-05
2.7187e-05
2.67186e-05
2.55807e-05
2.366e-05
2.10428e-05
1.80504e-05
1.51344e-05
1.25683e-05
1.04496e-05
8.84253e-06
7.79634e-06
7.38792e-06
7.83962e-06
9.77667e-06
1.4322e-05
1.78018e-05
7.67931e-06
2.6631e-06
2.62245e-07
1.93992e-07
3.03942e-06
8.13033e-06
1.93449e-05
3.2255e-05
3.71231e-05
3.67821e-05
3.44046e-05
3.1675e-05
2.94101e-05
2.7853e-05
2.69848e-05
2.66856e-05
2.67679e-05
2.70356e-05
2.72894e-05
2.73125e-05
2.6869e-05
2.57398e-05
2.38203e-05
2.12101e-05
1.82398e-05
1.53585e-05
1.28095e-05
1.06928e-05
9.08021e-06
8.02885e-06
7.62498e-06
8.1057e-06
1.01117e-05
1.47515e-05
1.8058e-05
7.75251e-06
2.68483e-06
2.63834e-07
1.96289e-07
3.0433e-06
8.16025e-06
1.94585e-05
3.22951e-05
3.69494e-05
3.64423e-05
3.39731e-05
3.12321e-05
2.9014e-05
2.7534e-05
2.67572e-05
2.65479e-05
2.67122e-05
2.7051e-05
2.73621e-05
2.74256e-05
2.70042e-05
2.58819e-05
2.39639e-05
2.13632e-05
1.84195e-05
1.55767e-05
1.30481e-05
1.09361e-05
9.32006e-06
8.26543e-06
7.86822e-06
8.37946e-06
1.04559e-05
1.51868e-05
1.83104e-05
7.82571e-06
2.70648e-06
2.65392e-07
1.98477e-07
3.04662e-06
8.18835e-06
1.9567e-05
3.23236e-05
3.67613e-05
3.60869e-05
3.35277e-05
3.07788e-05
2.86108e-05
2.72101e-05
2.65256e-05
2.64064e-05
2.66519e-05
2.70601e-05
2.7426e-05
2.7527e-05
2.71248e-05
2.60075e-05
2.40913e-05
2.15031e-05
1.85909e-05
1.57897e-05
1.32843e-05
1.11797e-05
9.56257e-06
8.50646e-06
8.11728e-06
8.66065e-06
1.08096e-05
1.56279e-05
1.85591e-05
7.89872e-06
2.72804e-06
2.66921e-07
2.00554e-07
3.04932e-06
8.21435e-06
1.96697e-05
3.234e-05
3.65586e-05
3.57155e-05
3.30682e-05
3.03155e-05
2.8201e-05
2.68818e-05
2.62908e-05
2.62618e-05
2.65878e-05
2.7064e-05
2.74825e-05
2.76181e-05
2.72321e-05
2.61183e-05
2.42051e-05
2.16337e-05
1.87589e-05
1.60001e-05
1.3519e-05
1.14236e-05
9.80725e-06
8.75153e-06
8.37249e-06
8.95061e-06
1.11729e-05
1.60742e-05
1.88046e-05
7.97191e-06
2.74958e-06
2.68429e-07
2.02529e-07
3.05152e-06
8.23868e-06
1.97678e-05
3.23454e-05
3.63417e-05
3.53286e-05
3.25954e-05
2.98432e-05
2.77859e-05
2.65502e-05
2.60538e-05
2.61151e-05
2.6521e-05
2.70638e-05
2.75326e-05
2.76996e-05
2.73269e-05
2.62149e-05
2.43059e-05
2.17562e-05
1.89255e-05
1.62091e-05
1.37528e-05
1.16681e-05
1.00545e-05
9.00109e-06
8.63403e-06
9.24892e-06
1.15462e-05
1.6526e-05
1.90473e-05
8.0453e-06
2.77111e-06
2.69925e-07
2.04404e-07
3.0532e-06
8.26128e-06
1.98611e-05
3.23397e-05
3.61101e-05
3.49255e-05
3.21093e-05
2.93622e-05
2.73659e-05
2.6216e-05
2.58152e-05
2.59669e-05
2.64523e-05
2.70606e-05
2.7578e-05
2.7774e-05
2.74119e-05
2.63001e-05
2.43962e-05
2.18722e-05
1.90914e-05
1.64169e-05
1.39856e-05
1.19127e-05
1.03034e-05
9.25415e-06
8.90112e-06
9.55517e-06
1.19289e-05
1.69818e-05
1.92873e-05
8.11894e-06
2.79267e-06
2.7141e-07
2.06187e-07
3.05445e-06
8.28234e-06
1.99502e-05
3.23233e-05
3.58642e-05
3.45071e-05
3.16109e-05
2.88739e-05
2.69424e-05
2.58804e-05
2.55758e-05
2.58177e-05
2.63818e-05
2.70547e-05
2.76189e-05
2.78418e-05
2.74878e-05
2.63745e-05
2.44761e-05
2.19807e-05
1.92539e-05
1.66223e-05
1.42171e-05
1.21574e-05
1.05543e-05
9.511e-06
9.17399e-06
9.86952e-06
1.23217e-05
1.74425e-05
1.9525e-05
8.19266e-06
2.81426e-06
2.72892e-07
2.07883e-07
3.05525e-06
8.30191e-06
2.00351e-05
3.22961e-05
3.56033e-05
3.40727e-05
3.11004e-05
2.83789e-05
2.65163e-05
2.55444e-05
2.53365e-05
2.56681e-05
2.63102e-05
2.70468e-05
2.7657e-05
2.7905e-05
2.75573e-05
2.64412e-05
2.45484e-05
2.20833e-05
1.94127e-05
1.68246e-05
1.44465e-05
1.24016e-05
1.08064e-05
9.77098e-06
9.45194e-06
1.01911e-05
1.27231e-05
1.79073e-05
1.97619e-05
8.2673e-06
2.83601e-06
2.74391e-07
2.09501e-07
3.05565e-06
8.32006e-06
2.01159e-05
3.2258e-05
3.53276e-05
3.36231e-05
3.0579e-05
2.78784e-05
2.60887e-05
2.52097e-05
2.5098e-05
2.55178e-05
2.62367e-05
2.70362e-05
2.76913e-05
2.79634e-05
2.76205e-05
2.65008e-05
2.46137e-05
2.21804e-05
1.95674e-05
1.70238e-05
1.46741e-05
1.26458e-05
1.10604e-05
1.00346e-05
9.73548e-06
1.05206e-05
1.31335e-05
1.83755e-05
1.99975e-05
8.34249e-06
2.85791e-06
2.75917e-07
2.11042e-07
3.05561e-06
8.33673e-06
2.01925e-05
3.22084e-05
3.50364e-05
3.31582e-05
3.00474e-05
2.73733e-05
2.56602e-05
2.48786e-05
2.48616e-05
2.53674e-05
2.61619e-05
2.70235e-05
2.77228e-05
2.8018e-05
2.76791e-05
2.65555e-05
2.46748e-05
2.22742e-05
1.97187e-05
1.72192e-05
1.48987e-05
1.28885e-05
1.13148e-05
1.03008e-05
1.00239e-05
1.08574e-05
1.35525e-05
1.88468e-05
2.02322e-05
8.41852e-06
2.88003e-06
2.77473e-07
2.12516e-07
3.05515e-06
8.35197e-06
2.0265e-05
3.21475e-05
3.47299e-05
3.26786e-05
2.9507e-05
2.68651e-05
2.52313e-05
2.45472e-05
2.46247e-05
2.52162e-05
2.60858e-05
2.70087e-05
2.77513e-05
2.80687e-05
2.77335e-05
2.66065e-05
2.4734e-05
2.23682e-05
1.98689e-05
1.74126e-05
1.51214e-05
1.31303e-05
1.15698e-05
1.05697e-05
1.03173e-05
1.12019e-05
1.39804e-05
1.93209e-05
2.04648e-05
8.49472e-06
2.90227e-06
2.79045e-07
2.13924e-07
3.05426e-06
8.36567e-06
2.03329e-05
3.20745e-05
3.44072e-05
3.21841e-05
2.89582e-05
2.63551e-05
2.48042e-05
2.42188e-05
2.43905e-05
2.50666e-05
2.60099e-05
2.69926e-05
2.77772e-05
2.81159e-05
2.77843e-05
2.66553e-05
2.47939e-05
2.24659e-05
2.00197e-05
1.7604e-05
1.53413e-05
1.33699e-05
1.18243e-05
1.084e-05
1.06148e-05
1.15534e-05
1.44167e-05
1.97975e-05
2.06957e-05
8.57138e-06
2.92474e-06
2.80638e-07
2.15279e-07
3.05296e-06
8.37801e-06
2.0397e-05
3.19899e-05
3.40685e-05
3.1675e-05
2.84015e-05
2.58434e-05
2.43788e-05
2.3893e-05
2.41588e-05
2.49187e-05
2.59346e-05
2.69759e-05
2.7801e-05
2.81598e-05
2.78318e-05
2.67032e-05
2.48575e-05
2.25719e-05
2.01748e-05
1.77962e-05
1.55603e-05
1.36086e-05
1.2079e-05
1.11122e-05
1.09164e-05
1.1912e-05
1.48614e-05
2.02762e-05
2.09236e-05
8.64783e-06
2.94729e-06
2.82241e-07
2.16579e-07
3.05121e-06
8.38878e-06
2.04565e-05
3.18928e-05
3.37126e-05
3.11506e-05
2.78373e-05
2.5331e-05
2.39563e-05
2.35718e-05
2.39317e-05
2.4775e-05
2.58623e-05
2.69603e-05
2.78239e-05
2.82011e-05
2.78762e-05
2.67494e-05
2.49232e-05
2.26843e-05
2.03326e-05
1.79879e-05
1.57775e-05
1.38456e-05
1.23329e-05
1.13859e-05
1.12229e-05
1.22776e-05
1.53146e-05
2.07573e-05
2.11497e-05
8.7246e-06
2.97006e-06
2.83866e-07
2.17842e-07
3.04914e-06
8.39851e-06
2.0513e-05
3.17838e-05
3.33389e-05
3.06103e-05
2.72651e-05
2.48176e-05
2.35366e-05
2.32548e-05
2.37096e-05
2.46361e-05
2.57941e-05
2.69478e-05
2.78481e-05
2.8242e-05
2.79193e-05
2.67953e-05
2.49914e-05
2.28021e-05
2.04935e-05
1.81807e-05
1.59946e-05
1.40822e-05
1.25873e-05
1.16622e-05
1.15353e-05
1.265e-05
1.57751e-05
2.12391e-05
2.13728e-05
8.80115e-06
2.99293e-06
2.85505e-07