/*--------------------------------*- C++ -*----------------------------------*\
| =========                 |                                                 |
| \\      /  F ield         | OpenFOAM: The Open Source CFD Toolbox           |
|  \\    /   O peration     | Version:  v1906                                 |
|   \\  /    A nd           | Web:      www.OpenFOAM.com                      |
|    \\/     M anipulation  |                                                 |
\*---------------------------------------------------------------------------*/
FoamFile
{
    version     2.0;
    format      ascii;
    class       volScalarField;
    location    "0.24/oil";
    object      heatTransferCoeff(T);
}
// * * * * * * * * * * * * * * * * * * * * * * * * * * * * * * * * * * * * * //

dimensions      [1 0 -3 -1 0 0 0];


internalField   uniform 0;

boundaryField
{
    maxY
    {
        type            calculated;
        value           uniform 0;
    }
    minX
    {
        type            calculated;
        value           uniform 0;
    }
    maxX
    {
        type            calculated;
        value           uniform 0;
    }
    minY
    {
        type            calculated;
        value           uniform 0;
    }
    minZ
    {
        type            calculated;
        value           uniform 0;
    }
    maxZ
    {
        type            calculated;
        value           uniform 0;
    }
    oil_to_sphere
    {
        type            calculated;
        value           nonuniform List<scalar> 
1536
(
-4917.87
-4446.9
-4510.92
-5029.38
-5290.8
-5092.79
-4945.62
-4934.99
-4649.36
-3450.16
-5311.15
-3482.54
-3693.85
-3708.46
-5169.1
-5381.06
-4943.01
-4652.7
-1507.6
-3680.15
-3854.84
-5168.5
-4889.68
-5388.47
-5410.75
-5413.62
-5387.52
-5399.07
-4394.81
-4623.4
-4403.56
-4558.55
-4699.91
-5390.8
-5386.32
-5353.93
-5293.21
-5360.8
-5339.77
-5346.02
-5364.24
-5378.37
-4730.47
-3861.51
-4640.11
-3834.92
-4899.32
-4951.85
-5258.79
-4970.52
-5178.62
-4914.66
-4874.21
-4869.67
-4527.58
-4489.95
-5070.31
-4952.88
-4612.56
-3737.87
-3816.25
-3800.15
-3836.7
-1416.82
-1407.89
-3851.07
-4654.85
-3680.06
-5002.84
-4637.07
-5408.91
-5219.56
-5090.8
-5393.69
-5385.43
-4772.92
-4355.28
-5017.52
-5378.17
-4582.44
-3791.57
-3850.51
-3547.71
-3618.34
-3586.69
-3637.71
-3351.55
-4907.63
-4663.86
-3776.3
-3772.1
-1478.66
-1484.21
-1465.27
-1418.97
-3848.84
-4639.54
-3570.18
-3693.57
-4963.18
-4643.87
-5399.63
-4796.36
-4573.61
-5155.32
-5398.85
-5386.52
-5072.08
-5167.19
-4715.07
-4512.13
-4609.2
-3741.5
-3914.71
-3478.22
-3347.74
-3420.85
-3635.33
-3469.29
-3655.66
-4531.01
-3770.45
-1525.99
-3813.77
-4951.11
-4706.41
-4996.52
-4592.5
-4979.97
-5208.22
-4882.2
-5208.58
-4926.35
-5192.86
-4928.6
-5195.24
-4883.79
-4536.26
-4861.67
-4991.11
-3762.21
-3838.84
-4944.1
-4566.13
-3758.87
-4595.73
-5131.55
-4176.31
-4160.29
-4976.78
-5232.48
-4158.06
-5176.46
-5135.46
-5121.05
-4157.39
-5100.05
-4027.35
-5164.04
-4033.37
-4902.03
-4106.68
-5369.01
-5376.78
-5357.79
-5282.59
-5118.28
-4012.38
-5048.89
-4088.8
-4612.44
-4557.13
-4513.97
-4416.09
-4539.53
-4344.52
-5059.99
-4181.12
-4357.76
-4988.47
-5382.39
-5358.45
-5297.12
-5297.03
-4245.47
-4938.05
-4130
-4590.28
-4605.98
-4594.49
-4720.07
-5098.08
-4364.81
-4882.36
-5428.8
-5203.86
-4696.18
-4932.14
-4416.28
-5125.08
-5054.1
-5147.95
-4672.47
-4204.64
-4343.42
-4423.96
-4406.35
-4536.45
-4713.45
-4135.73
-4800.85
-4479.21
-4552.64
-3335.49
-3579.81
-3485.86
-3312.38
-3569.06
-3671.25
-2875.52
-3903.41
-4165.59
-4267.63
-3883.71
-3836.97
-4306.03
-5263.29
-4260.97
-5190.75
-5447.63
-5351.93
-5168.63
-5185.97
-4344.52
-4138.3
-4784.67
-4275.85
-4317.44
-4180.54
-4591.15
-4417.34
-2118.25
-2492.32
-3666.88
-3059.57
-4286.23
-4375.36
-3625.88
-3583.56
-3208.11
-4367.57
-5389.55
-4946.55
-5215.03
-4193.91
-5303.95
-5333.76
-4838.21
-4522.14
-4559.98
-4760.3
-4046.86
-4478.67
-2506.95
-2100.99
-2028.33
-2203.65
-2382.16
-4124.69
-3934.59
-4302.82
-4047.28
-3958.44
-4315.93
-4336.58
-3748.42
-3430.08
-3140.06
-4363.9
-4307.26
-5079.74
-4940.11
-4464.27
-4297.29
-4727.73
-4783.34
-4705.46
-5182.68
-4958.64
-4639.89
-4983.45
-4189.96
-5048.64
-4253.95
-4297.2
-4442.5
-4475.86
-4300.07
-4549.99
-4596.32
-4939.12
-4791.63
-4480.01
-4400.6
-4250.4
-4871.14
-4111.34
-5310.59
-5289.14
-4088.37
-4873.51
-4021.62
-4539.08
-4537.37
-4366.06
-4330.05
-4675.05
-4647.08
-4753.94
-4043.35
-4371.37
-4415.37
-4401.61
-4830.12
-4125.63
-4051.15
-4280.42
-3939.14
-4304.97
-3640.7
-4208.54
-4083.98
-4758.99
-4450.62
-4314.65
-4704.72
-4074.15
-4333.7
-4344.46
-3534.57
-3132.81
-4105.1
-3981.03
-4177.13
-4046.31
-4081.81
-4260.92
-4359.77
-4313.46
-4568.35
-4777.56
-4902.52
-4419.13
-5017.58
-4434.56
-4775.15
-4610.45
-4617.49
-5137.11
-4459.25
-5047.05
-4833.79
-4404.17
-5142.1
-4769.36
-4761.66
-5095.66
-5006.18
-5133.1
-4644.32
-4412.63
-5139.08
-4835.05
-4572.65
-5159.81
-4703.14
-5016.49
-5129.8
-4719.81
-4148.59
-5005.87
-4426.6
-4822.13
-4450.63
-4589.35
-5148.95
-4747.32
-4199.85
-4957.31
-4642.93
-4733.31
-4464.77
-4341.33
-4596.6
-4516.54
-4403.55
-4923.27
-4247.77
-4818.88
-4501.19
-5152.38
-4757.87
-4035.1
-4943.91
-4837.14
-4530.7
-4956.42
-4420.91
-4730.63
-4551.75
-4509.43
-4410.04
-4468.39
-4565.25
-4477.28
-4293.05
-4470.81
-4364.27
-4796.85
-4550.25
-4621.94
-4570.59
-4209.67
-3980.06
-4452.26
-4210.94
-4083.93
-4325.78
-3655.04
-3699.36
-4644.11
-4243.55
-4391.07
-4375.98
-4318.07
-4276.39
-4294.49
-3574.66
-3308.41
-3593.98
-3958.24
-4264.49
-4238.82
-3994.88
-4102.01
-4645.54
-4481.56
-4696.49
-4834.33
-4503.06
-4608.5
-4538.17
-4265.21
-2267.86
-2331.04
-2253.13
-2334.35
-2182.82
-2181.46
-2308.4
-2069.48
-2172.6
-1895.27
-2421.49
-3848.7
-4131.21
-4262.57
-3989.04
-4228.78
-4720.44
-4386.02
-4414.7
-4350.24
-3541.6
-4761.09
-4411.96
-4598.06
-4066
-4807.27
-4258.22
-4184.77
-4271.28
-4425.99
-3617.63
-4408.88
-4765.06
-4423.96
-4837.77
-3937.84
-4965.76
-3954.85
-5113.61
-5370.18
-5397.89
-5367.02
-5301.96
-5203.31
-5200.74
-5332.64
-5356.81
-4919.22
-4143.17
-5319.43
-5268.67
-4160.57
-4112.8
-4925.05
-5289.96
-5254.61
-4243.36
-5090.72
-5282.68
-5329.42
-5297.99
-5079.82
-4301.3
-4006.98
-4311.89
-4229.14
-3995.93
-4865.49
-4546.38
-4330.92
-4526.99
-4395.81
-3577.98
-3695.86
-3754.71
-3073.44
-3763.53
-3190.62
-3847.26
-3425.95
-3989.64
-3616.95
-3766.46
-4260.4
-4640.02
-4420.7
-4312.98
-3874.14
-4357.92
-4280.15
-3922.84
-4792.73
-4571.12
-4443.41
-4746.41
-4501.79
-4312.44
-4341.23
-3570.5
-3732.11
-4406.92
-2260.7
-2500.18
-2315.24
-2471.94
-2229.74
-2201.01
-2217.63
-2022.93
-2459.45
-2409.25
-2144.96
-2213.93
-2204.93
-2208.09
-2453.71
-2168.71
-1932.37
-2143.68
-2376.89
-2400.48
-2445.88
-2308.2
-2057.2
-4395.58
-3584.11
-3209.63
-4793.02
-4332.86
-4024.67
-4329.07
-3901.61
-4164.39
-4072.88
-3888.61
-4758.23
-4115.03
-4377.68
-4440.82
-4266.84
-4288.51
-3500.73
-3498.75
-4739.1
-4534.97
-3987.15
-4848.2
-4224.67
-3913.09
-4212.66
-3798.15
-4592.52
-4797.89
-4036.56
-4408.53
-4233.08
-4353.72
-5138.52
-3939.78
-5372.72
-5389.4
-4088.34
-4217.58
-4981.69
-5306.81
-5385.36
-4626.39
-5052.02
-5342.19
-5353.62
-5347.5
-5193.07
-5271.02
-5315.51
-4279.18
-4298.76
-4936.02
-4174.25
-4974.5
-4120.51
-4195.99
-4343.78
-5265.59
-5360.87
-5170.09
-4381.11
-5285.59
-4405.08
-5162.81
-5043.93
-4141.99
-5143.51
-4123.31
-4369.54
-3733.5
-3134.4
-3730.92
-4693.76
-4271.28
-4330.28
-4264.82
-4215.81
-4247.9
-4314.22
-3921.6
-4357.54
-4080.85
-4010.95
-3677.33
-3743.9
-3314.87
-3704.58
-3746.5
-3148.22
-3731.29
-3685.73
-2984.62
-3546.93
-4013.19
-3868.25
-3464.02
-3514.26
-4862.47
-4488.39
-4375.82
-4039.32
-4530.99
-4305.33
-4335.96
-3629.75
-3237.31
-4413.54
-4680.86
-4583.46
-4734.54
-4108.4
-4356.15
-4157.95
-4427.04
-4269.03
-3906.07
-4270.22
-3839.9
-3939.03
-2247.03
-2228.22
-2311.95
-2215.48
-2372.5
-2440.48
-2393.61
-2132.15
-2485.08
-4358.07
-4373.69
-4549.9
-4551.25
-4519.56
-4528.52
-4586.1
-4288.38
-4323.83
-3613.05
-4326.35
-4344.54
-4145.91
-4706.09
-4407.23
-4492.35
-4559.66
-4877.46
-4736.99
-4317.88
-3924.45
-4166.67
-3961.42
-4362.96
-4216.36
-4383.42
-4107.32
-4888.48
-4767.76
-4325.51
-4445.61
-4173.56
-4721.83
-4383.3
-4546.22
-4483.66
-4716.68
-4464.95
-4603.18
-4780.2
-4387.87
-4658.84
-5186.01
-4997.25
-4704.06
-5076.28
-4576.01
-4894.62
-4911.97
-4495.13
-4769.07
-5055.22
-5139.12
-4463.3
-5033.88
-4784.95
-4460.37
-5141.09
-5027.52
-4770.87
-5089.8
-5076.42
-4431.01
-4402.07
-5096.84
-4908.47
-4548.43
-5137.37
-5157.82
-5012.93
-5034.58
-5006.21
-4316.59
-4795.34
-4435.14
-4686.41
-4564.68
-4657.22
-4205.17
-4983.25
-5139.9
-4215.28
-4936.51
-4828.1
-4696.5
-4650.47
-4483.72
-5080.84
-5078.12
-4629.62
-4234.3
-5111.56
-4667.11
-4768.58
-4920.24
-4387.34
-4899.04
-4502.57
-4578.69
-4602.76
-4245.36
-5146.02
-4942.5
-5008.34
-4514.97
-4637.87
-4411.98
-4917.23
-4854.05
-4490.2
-4583.3
-4418.86
-4416.03
-4369.38
-4649.12
-4467.86
-4688.43
-3943.59
-4297.33
-4291.66
-4141.11
-4300.93
-4345.3
-3645.38
-3638.76
-4404.71
-4180.17
-4645.47
-4496.06
-4368.69
-4458.14
-4746.8
-4875.87
-4552.72
-4502.03
-4428.38
-4420.35
-4278.74
-4397.72
-3639
-3261.59
-4460.47
-3797.57
-4207.1
-4352.66
-4020.92
-4044.64
-4548.15
-4111.75
-4770.48
-4525.68
-4479.73
-4455.16
-4442.05
-4120.14
-4665.35
-4339.1
-4592.47
-5029.5
-4724.52
-4831.57
-3266.63
-4171.49
-3222.28
-3471.37
-4193.6
-5044.14
-4347.79
-4077.19
-4781.4
-5169.55
-4649.55
-4977.37
-3598.62
-2558.36
-5078.82
-4682.7
-4972.03
-3504.72
-2466.65
-3747.47
-4240.05
-5187.07
-5174.85
-3799.02
-4861.75
-5008.31
-4770.11
-5286.97
-4462.3
-5106.25
-4919.63
-4549.91
-4853.45
-5157.34
-4813.31
-4810.19
-5120.92
-4892.39
-5138.88
-4875.59
-5128.5
-4585.89
-4724.83
-5201.07
-4309.24
-5264.67
-4492.94
-5203.71
-4752.86
-5072.23
-4763.42
-4819.51
-5127.49
-4571.06
-5251.07
-4454.62
-4781.01
-5266.73
-4517.56
-5284.19
-5382.33
-5363.85
-4972.06
-5013.19
-5217.37
-5172.7
-5188.16
-4486.33
-4760.61
-5230.19
-4575.39
-4944.12
-3612.33
-3669.13
-4824.03
-4262.87
-4872.34
-3609.61
-4162.98
-5183.27
-4995.16
-5210.09
-4633.59
-5067.62
-5182.05
-4512.72
-4963.44
-5034.07
-4959.01
-4589.27
-4974.43
-4332.76
-4902.58
-3564.44
-4237.7
-3663.7
-3509.25
-2567.97
-3484.66
-2593.39
-2504.78
-3531.42
-3329.6
-2508.29
-3744.05
-5059.02
-4403.59
-5117.96
-4535.25
-4866.32
-5294.69
-4368.84
-5180.92
-4288.01
-4775.95
-4658.47
-4398.55
-5234.3
-4383
-4501.37
-5092.7
-4172.8
-4805.78
-4982.66
-4386.43
-4053.15
-3316.27
-3177.99
-4877.87
-4325.22
-2550.56
-2572.41
-2669.97
-3700.63
-2497.51
-3473.43
-2337.55
-3338.79
-2508.86
-3417.38
-2375.81
-3440.04
-5028.84
-4302.29
-5095.22
-3305.9
-3238.05
-4224.33
-4164.82
-4498.43
-4895.18
-4241.39
-5303.42
-4410.19
-4305.03
-5022.57
-4362.18
-4793.63
-5294.19
-4400.27
-5343.63
-4379.5
-4509.59
-4319.25
-5039.88
-4777.22
-4790.06
-5019.54
-4393.86
-3391.16
-4069.49
-3314.62
-4844.31
-4220.42
-2489.09
-2690.34
-2403.94
-3705.42
-4372.51
-4879.41
-4142.21
-4858.6
-5158.86
-4554.12
-5017.53
-5074.09
-5064.04
-5082.68
-4637.36
-4952.18
-5029.16
-4953.77
-4310.58
-4762.78
-4278.9
-4876.68
-5288.48
-5335.11
-5414.12
-4961.03
-4543.06
-5227.88
-5413.22
-4119.14
-5198.3
-5159.92
-4314.2
-5256.03
-5405.13
-4163.73
-4921.95
-5012.01
-4441.2
-5330.94
-5286.51
-5386.69
-4187.32
-4938.23
-5132.03
-4465.16
-5349.04
-4968.34
-4441.33
-5337.44
-4968.34
-4513.5
-5318.72
-5265.4
-5170.46
-5216.01
-5284.56
-5315.32
-5330.92
-5410.52
-3971.54
-4957.27
-5430.57
-4266.37
-4940.68
-5224.74
-5270.71
-4834.22
-4595.98
-5361.47
-4918.15
-4602.77
-5273.03
-5287.44
-5239.03
-5179.77
-5357.73
-4239.63
-4936.79
-5417.28
-4240.87
-4813.09
-5244.31
-5061.06
-5181.93
-5178.63
-5301.85
-5321.68
-5176.62
-4508.7
-4350.15
-4542.3
-4335.41
-4969.45
-4185.46
-4743.26
-4975.88
-5067.72
-5050.81
-5091.81
-5071.31
-4787.83
-4487.98
-4262.96
-4446.92
-4675.2
-4553.78
-4485.59
-4597
-4086.97
-3421.15
-3202.9
-4494.05
-5388.55
-5298.66
-5028.17
-3978.65
-3881.37
-4961.32
-4502.75
-5382.86
-5033.1
-4291.6
-4161.52
-4441.39
-3740.64
-3647.7
-3735.76
-3761.17
-3028.83
-2246.64
-4356.99
-4530.11
-4364
-4588.41
-4223.2
-5029.27
-4327.09
-5240.69
-5298.04
-4693.6
-4803.54
-3746.52
-3067.67
-2313.89
-2547.23
-3705.92
-4141.65
-3270.97
-3290.91
-4318.27
-4169.83
-3990.47
-4077.18
-4430.24
-4227.93
-5048.93
-4286.33
-4041.36
-4776.51
-5109.56
-4966.44
-4352.76
-4383.7
-4686.23
-4485.87
-4637.31
-4221.47
-3667.69
-5015.71
-4748.03
-4919.39
-4963.03
-5133.32
-5076.09
-4975.27
-4229.07
-5081.7
-5219.28
-5143.6
-5356.47
-5335.73
-5235.66
-4632.04
-3571.83
-3710.51
-4616.2
-4463.62
-4512.96
-4331.26
-4073.21
-3842.98
-4513.17
-4475.48
-4345.26
-4262.38
-4548.5
-4354.9
-4467.2
-4384.4
-4557.94
-4350.12
-4754.96
-4022.07
-4392.69
-4685.08
-4133
-3250.3
-4325.05
-4220.62
-4689.73
-4753.32
-4403.55
-4193.59
-4085.68
-3415.32
-4182.79
-4589.81
-4590.26
-4370.64
-4386.72
-4334.11
-4481.88
-4389.16
-4978.61
-4949.4
-4243.78
-4641.61
-5047.48
-5047.19
-5108.22
-5038.13
-5071.79
-5074.5
-4279.19
-4759.67
-5102.15
-5032.64
-5015.25
-5027.71
-4906.85
-4411
-4507.25
-5061.28
-4884.25
-5084.81
-5014.98
-4629.5
-4746.16
-5118.07
-5228.84
-4403.52
-4758.71
-4915.4
-4939.46
-5009.36
-4790.23
-5081.45
-5081.85
-4647.17
-4641.56
-4797.64
-4392.34
-4425.1
-4027.1
-4016.91
-4673.07
-4324.45
-4336.97
-4179.6
-3224.68
-3279.79
-4209.59
-4823.13
-4375.68
-4370.28
-4381.37
-4205.9
-4064.02
-3559.22
-4361.48
-4311.18
-3946.52
-3630.39
-3706.56
-2286.24
-3202.15
-3672.81
-2283.77
-3088.26
-2407.42
-2309.22
-3735.36
-3948.45
-2529.82
-3416.19
-2456.92
-2262.16
-2608.49
-3703.46
-3528.93
-4927.05
-4259.01
-3317.02
-4237.18
-4901.93
-4036.76
-4356.21
-4378.88
-4552.32
-4341.85
-4602.15
-4240.49
-4679.23
-4718.07
-4110.7
-4505.6
-4222.54
-4430.62
-4490.46
-4672.95
-5437.17
-3948.37
-5056.86
-5365.39
-4178.59
-5007.15
-5263.43
-5026.39
-4463.05
-5155.45
-4199.01
-5388.18
-4230.57
-5024.25
-4993.36
-5386.29
-5083.68
-5295.23
-5283.25
-4083.47
-5257.66
-4872.01
-4714.94
-4773.21
-4199.61
-3319.89
-3421
-4712.58
-4407.42
-4422.64
-4222.9
-4878.92
-4097.49
-4168.99
-3329.75
-4677.2
-4226.58
-2220.63
-2169
-2494.67
-2385.48
-2571.34
-2527.72
-2564.04
-3634.01
-2211.55
-2523.03
-3604.92
-3600.98
-3644.62
-3705.39
-3205.41
-2419.64
-2362.84
-2544.21
-3661.95
-3590.63
-2760.8
-3902.73
-3739.33
-3358.25
-4979.71
-4242.51
-4671.23
-4204.52
-3344.91
-4299.27
-4889.52
-4225.52
-4464.46
-4519.29
-4524.29
-4683.68
-4074.59
-4492.97
-4789.27
-4549.23
-4274.43
-5254.7
-5240.11
-5282.2
-5423.03
-5397.74
-4950.93
-5375.12
-4152.36
-5003.12
-4471.74
-5074.78
-5338.68
-5073.45
-5352.1
-5212.39
-4965.85
-4997.74
-5334.5
-4855.34
-4588.3
-4926.14
-4504.66
-4448.59
-4449.42
-4208.12
-5006.15
-4390.07
-4113.95
-3421.82
-4718.5
-4234.51
-4908.49
-4085.78
-2504.92
-2580.41
-2554.34
-3631.88
-4342.07
-4646.2
-4175.92
-4661.68
-4484.66
-4605.33
-4169.92
-4511.86
-4578.44
-4820.58
-4017.98
-4476.85
-4657.13
-4060.02
-4288.83
-4477.18
-4547.26
-4695.43
-4771.98
-4508.06
-4572.46
-4602.85
-5114.85
-5090.38
-5014.89
-3886.6
-4707.03
-5024.98
-5075.07
-5089.6
-4941.67
-4143.13
-5068.34
-5054.74
-4287.99
-5070.02
-5228.96
-4668.93
-5027.23
-5099.65
-5098.67
-5105.96
-4606.19
-5085.31
-5129.96
-5068.05
-5044.54
-3921.9
-4458.33
-4209.47
-3282.58
-4206.4
-4835.5
-4024.82
-4748.71
-4217.92
-4050
-4675.03
-4890.82
)
;
    }
}


// ************************************************************************* //
