/*--------------------------------*- C++ -*----------------------------------*\
| =========                 |                                                 |
| \\      /  F ield         | OpenFOAM: The Open Source CFD Toolbox           |
|  \\    /   O peration     | Version:  v1912                                 |
|   \\  /    A nd           | Website:  www.openfoam.com                      |
|    \\/     M anipulation  |                                                 |
\*---------------------------------------------------------------------------*/
FoamFile
{
    version     2.0;
    format      ascii;
    class       volScalarField;
    location    "8.5/sphere";
    object      ddt0((betavSolid*thermo:rho),h);
}
// * * * * * * * * * * * * * * * * * * * * * * * * * * * * * * * * * * * * * //

dimensions      [1 -1 -3 0 0 0 0];


internalField   nonuniform List<scalar> 
1992
(
-5.68832e+06
-5.69113e+06
-5.69088e+06
-5.6969e+06
-5.68925e+06
-5.68914e+06
-5.69102e+06
-5.70917e+06
-5.71302e+06
-5.70211e+06
-5.69071e+06
-5.71288e+06
-5.71662e+06
-5.70616e+06
-5.70045e+06
-5.70595e+06
-5.69749e+06
-5.69081e+06
-5.69665e+06
-5.68923e+06
-5.69075e+06
-5.71284e+06
-5.71659e+06
-5.70614e+06
-5.69612e+06
-5.71645e+06
-5.72018e+06
-5.70984e+06
-5.69087e+06
-5.68884e+06
-5.70578e+06
-5.70954e+06
-5.70307e+06
-5.69043e+06
-5.68909e+06
-5.70174e+06
-5.70599e+06
-5.69657e+06
-5.68891e+06
-5.7058e+06
-5.70964e+06
-5.70304e+06
-5.69617e+06
-5.70294e+06
-5.6931e+06
-5.69056e+06
-5.69056e+06
-5.69055e+06
-5.69032e+06
-5.69056e+06
-5.68856e+06
-5.69691e+06
-5.6913e+06
-5.70603e+06
-5.70206e+06
-5.70966e+06
-5.70611e+06
-5.702e+06
-5.70963e+06
-5.70607e+06
-5.69112e+06
-5.68845e+06
-5.69688e+06
-5.69124e+06
-5.70608e+06
-5.70601e+06
-5.70202e+06
-5.69689e+06
-5.69123e+06
-5.69118e+06
-5.68855e+06
-5.69031e+06
-5.69032e+06
-5.69026e+06
-5.69013e+06
-5.68953e+06
-5.69009e+06
-5.69026e+06
-5.68949e+06
-5.69009e+06
-5.69026e+06
-5.6895e+06
-5.69034e+06
-5.69229e+06
-5.68909e+06
-5.6891e+06
-5.69627e+06
-5.7029e+06
-5.68913e+06
-5.68915e+06
-5.70295e+06
-5.69657e+06
-5.69311e+06
-5.68903e+06
-5.69623e+06
-5.68891e+06
-5.70281e+06
-5.69099e+06
-5.6909e+06
-5.69654e+06
-5.70178e+06
-5.7059e+06
-5.70584e+06
-5.70948e+06
-5.69041e+06
-5.69342e+06
-5.69264e+06
-5.69907e+06
-5.69724e+06
-5.69573e+06
-5.69983e+06
-5.68924e+06
-5.69658e+06
-5.70307e+06
-5.68927e+06
-5.68903e+06
-5.68891e+06
-5.70281e+06
-5.69626e+06
-5.69654e+06
-5.68835e+06
-5.69101e+06
-5.70583e+06
-5.70946e+06
-5.7018e+06
-5.70588e+06
-5.69127e+06
-5.69114e+06
-5.68851e+06
-5.70965e+06
-5.70611e+06
-5.70601e+06
-5.70204e+06
-5.70308e+06
-5.68927e+06
-5.6966e+06
-5.69224e+06
-5.68909e+06
-5.69618e+06
-5.7029e+06
-5.68909e+06
-5.70294e+06
-5.69656e+06
-5.68914e+06
-5.69307e+06
-5.69029e+06
-5.69044e+06
-5.69618e+06
-5.68896e+06
-5.68891e+06
-5.70278e+06
-5.69094e+06
-5.70046e+06
-5.70582e+06
-5.69082e+06
-5.69642e+06
-5.70576e+06
-5.70938e+06
-5.68853e+06
-5.70596e+06
-5.70206e+06
-5.69665e+06
-5.69123e+06
-5.70955e+06
-5.70607e+06
-5.69751e+06
-5.6892e+06
-5.70307e+06
-5.68925e+06
-5.69004e+06
-5.70045e+06
-5.69072e+06
-5.70573e+06
-5.69074e+06
-5.70572e+06
-5.69612e+06
-5.70924e+06
-5.68859e+06
-5.70616e+06
-5.69133e+06
-5.70616e+06
-5.69131e+06
-5.70983e+06
-5.6973e+06
-5.69087e+06
-5.69003e+06
-5.70573e+06
-5.70048e+06
-5.69612e+06
-5.70925e+06
-5.6907e+06
-5.70573e+06
-5.69129e+06
-5.70214e+06
-5.68858e+06
-5.70984e+06
-5.6973e+06
-5.70617e+06
-5.69132e+06
-5.69088e+06
-5.69622e+06
-5.68886e+06
-5.7028e+06
-5.68898e+06
-5.70583e+06
-5.69095e+06
-5.70578e+06
-5.70938e+06
-5.69083e+06
-5.69642e+06
-5.70205e+06
-5.69103e+06
-5.68851e+06
-5.70955e+06
-5.70606e+06
-5.69664e+06
-5.69124e+06
-5.70307e+06
-5.68927e+06
-5.68921e+06
-5.69031e+06
-5.69044e+06
-5.69031e+06
-5.69044e+06
-5.68896e+06
-5.68886e+06
-5.70277e+06
-5.69613e+06
-5.69643e+06
-5.70574e+06
-5.70937e+06
-5.69092e+06
-5.70041e+06
-5.70581e+06
-5.69122e+06
-5.70954e+06
-5.70605e+06
-5.69097e+06
-5.68844e+06
-5.70594e+06
-5.70202e+06
-5.70306e+06
-5.68926e+06
-5.69747e+06
-5.69005e+06
-5.70571e+06
-5.69613e+06
-5.70925e+06
-5.70042e+06
-5.69075e+06
-5.70573e+06
-5.69134e+06
-5.70983e+06
-5.6973e+06
-5.70207e+06
-5.68857e+06
-5.70614e+06
-5.6913e+06
-5.69087e+06
-5.69001e+06
-5.70924e+06
-5.69071e+06
-5.70571e+06
-5.69073e+06
-5.70572e+06
-5.70041e+06
-5.6973e+06
-5.70617e+06
-5.69133e+06
-5.70615e+06
-5.69133e+06
-5.70212e+06
-5.68852e+06
-5.70278e+06
-5.68899e+06
-5.69612e+06
-5.70938e+06
-5.69082e+06
-5.69639e+06
-5.70042e+06
-5.70583e+06
-5.69093e+06
-5.70607e+06
-5.69662e+06
-5.69123e+06
-5.70595e+06
-5.70204e+06
-5.69101e+06
-5.68849e+06
-5.68927e+06
-5.68921e+06
-5.69751e+06
-5.69028e+06
-5.69218e+06
-5.68905e+06
-5.69615e+06
-5.70287e+06
-5.68905e+06
-5.70292e+06
-5.69655e+06
-5.68914e+06
-5.69308e+06
-5.69622e+06
-5.68891e+06
-5.70279e+06
-5.68901e+06
-5.70586e+06
-5.7058e+06
-5.70944e+06
-5.68828e+06
-5.691e+06
-5.69089e+06
-5.69652e+06
-5.70304e+06
-5.68923e+06
-5.68922e+06
-5.70279e+06
-5.69618e+06
-5.689e+06
-5.70944e+06
-5.70175e+06
-5.70588e+06
-5.69088e+06
-5.69651e+06
-5.68839e+06
-5.69102e+06
-5.68928e+06
-5.6966e+06
-5.6892e+06
-5.69218e+06
-5.7029e+06
-5.68905e+06
-5.68911e+06
-5.69655e+06
-5.68912e+06
-5.68916e+06
-5.68881e+06
-5.68829e+06
-5.68814e+06
-5.68879e+06
-5.68832e+06
-5.68902e+06
-5.68838e+06
-5.68899e+06
-5.68833e+06
-5.689e+06
-5.68834e+06
-5.68888e+06
-5.68836e+06
-5.68823e+06
-5.68821e+06
-5.68952e+06
-5.68941e+06
-5.68834e+06
-5.69024e+06
-5.69008e+06
-5.68949e+06
-5.68899e+06
-5.68831e+06
-5.68882e+06
-5.68828e+06
-5.68949e+06
-5.68948e+06
-5.69128e+06
-5.69734e+06
-5.69164e+06
-5.69403e+06
-5.69407e+06
-5.69045e+06
-5.69367e+06
-5.69269e+06
-5.69912e+06
-5.6974e+06
-5.69576e+06
-5.70004e+06
-5.69038e+06
-5.69339e+06
-5.69257e+06
-5.69899e+06
-5.6972e+06
-5.69568e+06
-5.69979e+06
-5.68944e+06
-5.68946e+06
-5.69124e+06
-5.69726e+06
-5.69156e+06
-5.69399e+06
-5.69397e+06
-5.69041e+06
-5.69359e+06
-5.69266e+06
-5.69906e+06
-5.69734e+06
-5.69573e+06
-5.69997e+06
-5.69354e+06
-5.69045e+06
-5.69265e+06
-5.69907e+06
-5.69733e+06
-5.69996e+06
-5.69579e+06
-5.69348e+06
-5.69042e+06
-5.69264e+06
-5.69903e+06
-5.69722e+06
-5.69981e+06
-5.69572e+06
-5.68951e+06
-5.6895e+06
-5.69125e+06
-5.69729e+06
-5.69163e+06
-5.69409e+06
-5.69405e+06
-5.68831e+06
-5.68812e+06
-5.68952e+06
-5.6894e+06
-5.68834e+06
-5.68956e+06
-5.6894e+06
-5.68836e+06
-5.68835e+06
-5.68923e+06
-5.68923e+06
-5.69083e+06
-5.69689e+06
-5.69138e+06
-5.6938e+06
-5.69379e+06
-5.68904e+06
-5.69077e+06
-5.68862e+06
-5.69269e+06
-5.6985e+06
-5.69013e+06
-5.69699e+06
-5.69179e+06
-5.69943e+06
-5.69542e+06
-5.68861e+06
-5.69347e+06
-5.68948e+06
-5.68979e+06
-5.69248e+06
-5.68847e+06
-5.68892e+06
-5.69058e+06
-5.68856e+06
-5.68943e+06
-5.69331e+06
-5.69242e+06
-5.68969e+06
-5.69563e+06
-5.68861e+06
-5.69057e+06
-5.68862e+06
-5.69299e+06
-5.69023e+06
-5.69302e+06
-5.69872e+06
-5.69028e+06
-5.69709e+06
-5.69282e+06
-5.69562e+06
-5.69201e+06
-5.69953e+06
-5.68862e+06
-5.689e+06
-5.69077e+06
-5.69559e+06
-5.69054e+06
-5.68851e+06
-5.68848e+06
-5.69288e+06
-5.69296e+06
-5.69016e+06
-5.69816e+06
-5.69681e+06
-5.68985e+06
-5.69252e+06
-5.69515e+06
-5.6992e+06
-5.69148e+06
-5.6891e+06
-5.68845e+06
-5.68836e+06
-5.68854e+06
-5.69028e+06
-5.69159e+06
-5.69285e+06
-5.69278e+06
-5.7002e+06
-5.68969e+06
-5.69559e+06
-5.69552e+06
-5.68836e+06
-5.6982e+06
-5.69266e+06
-5.69686e+06
-5.68995e+06
-5.69929e+06
-5.6916e+06
-5.69517e+06
-5.70056e+06
-5.69592e+06
-5.70239e+06
-5.69491e+06
-5.70162e+06
-5.69404e+06
-5.70134e+06
-5.68947e+06
-5.69341e+06
-5.68854e+06
-5.68976e+06
-5.69246e+06
-5.69816e+06
-5.69682e+06
-5.69254e+06
-5.68992e+06
-5.69924e+06
-5.69513e+06
-5.69152e+06
-5.68915e+06
-5.68852e+06
-5.6999e+06
-5.70193e+06
-5.69448e+06
-5.69447e+06
-5.70093e+06
-5.70092e+06
-5.69301e+06
-5.69045e+06
-5.69043e+06
-5.68968e+06
-5.68918e+06
-5.69307e+06
-5.68823e+06
-5.6895e+06
-5.69207e+06
-5.68817e+06
-5.69011e+06
-5.68956e+06
-5.68902e+06
-5.68843e+06
-5.6886e+06
-5.69031e+06
-5.68942e+06
-5.68855e+06
-5.69324e+06
-5.69237e+06
-5.68966e+06
-5.68837e+06
-5.6886e+06
-5.69033e+06
-5.70004e+06
-5.69228e+06
-5.69547e+06
-5.69151e+06
-5.69239e+06
-5.69548e+06
-5.68904e+06
-5.68922e+06
-5.69306e+06
-5.68835e+06
-5.69217e+06
-5.68953e+06
-5.69131e+06
-5.69989e+06
-5.69191e+06
-5.69204e+06
-5.69515e+06
-5.69529e+06
-5.68879e+06
-5.68924e+06
-5.68996e+06
-5.68998e+06
-5.68856e+06
-5.68821e+06
-5.6894e+06
-5.68953e+06
-5.68834e+06
-5.68829e+06
-5.68899e+06
-5.68895e+06
-5.68891e+06
-5.68852e+06
-5.68887e+06
-5.69062e+06
-5.6885e+06
-5.69324e+06
-5.68937e+06
-5.68967e+06
-5.69231e+06
-5.68843e+06
-5.68869e+06
-5.69036e+06
-5.68933e+06
-5.68843e+06
-5.69322e+06
-5.68967e+06
-5.69219e+06
-5.69131e+06
-5.69208e+06
-5.69194e+06
-5.69991e+06
-5.68886e+06
-5.6953e+06
-5.69514e+06
-5.68852e+06
-5.69331e+06
-5.69243e+06
-5.68942e+06
-5.68968e+06
-5.68906e+06
-5.69076e+06
-5.68859e+06
-5.68945e+06
-5.68861e+06
-5.69329e+06
-5.6897e+06
-5.69242e+06
-5.68862e+06
-5.68905e+06
-5.69073e+06
-5.6923e+06
-5.70003e+06
-5.69546e+06
-5.69151e+06
-5.6924e+06
-5.68904e+06
-5.69546e+06
-5.68922e+06
-5.68992e+06
-5.68995e+06
-5.68858e+06
-5.68845e+06
-5.68886e+06
-5.69057e+06
-5.68842e+06
-5.68928e+06
-5.69322e+06
-5.69228e+06
-5.68957e+06
-5.68841e+06
-5.68858e+06
-5.69029e+06
-5.69127e+06
-5.69204e+06
-5.6919e+06
-5.69987e+06
-5.68878e+06
-5.69525e+06
-5.69509e+06
-5.68924e+06
-5.68829e+06
-5.69312e+06
-5.68955e+06
-5.69213e+06
-5.69284e+06
-5.6902e+06
-5.6971e+06
-5.69184e+06
-5.69959e+06
-5.69857e+06
-5.69549e+06
-5.69015e+06
-5.69268e+06
-5.69175e+06
-5.69853e+06
-5.69701e+06
-5.69547e+06
-5.69945e+06
-5.68859e+06
-5.69346e+06
-5.69248e+06
-5.68948e+06
-5.68979e+06
-5.6923e+06
-5.70006e+06
-5.69544e+06
-5.69153e+06
-5.69237e+06
-5.68902e+06
-5.69551e+06
-5.68864e+06
-5.68908e+06
-5.69081e+06
-5.68949e+06
-5.68865e+06
-5.69342e+06
-5.68978e+06
-5.6925e+06
-5.68927e+06
-5.6884e+06
-5.69322e+06
-5.68957e+06
-5.69226e+06
-5.68842e+06
-5.68888e+06
-5.69055e+06
-5.68924e+06
-5.69309e+06
-5.68829e+06
-5.68954e+06
-5.6921e+06
-5.68842e+06
-5.68851e+06
-5.69025e+06
-5.69125e+06
-5.69206e+06
-5.69988e+06
-5.69192e+06
-5.69523e+06
-5.68875e+06
-5.6951e+06
-5.69471e+06
-5.69489e+06
-5.70235e+06
-5.70024e+06
-5.69331e+06
-5.70121e+06
-5.70134e+06
-5.69687e+06
-5.68924e+06
-5.68924e+06
-5.69138e+06
-5.69085e+06
-5.69373e+06
-5.69379e+06
-5.69289e+06
-5.69855e+06
-5.69021e+06
-5.69712e+06
-5.69183e+06
-5.69959e+06
-5.69547e+06
-5.69363e+06
-5.69045e+06
-5.69741e+06
-5.69266e+06
-5.70003e+06
-5.6991e+06
-5.69583e+06
-5.69346e+06
-5.69036e+06
-5.69262e+06
-5.69903e+06
-5.69723e+06
-5.69981e+06
-5.69573e+06
-5.68949e+06
-5.68945e+06
-5.69124e+06
-5.69731e+06
-5.69163e+06
-5.69408e+06
-5.69404e+06
-5.68865e+06
-5.68907e+06
-5.69079e+06
-5.68951e+06
-5.69343e+06
-5.68868e+06
-5.68979e+06
-5.6925e+06
-5.69155e+06
-5.69233e+06
-5.70009e+06
-5.69246e+06
-5.69552e+06
-5.68906e+06
-5.69553e+06
-5.68866e+06
-5.68912e+06
-5.69081e+06
-5.68902e+06
-5.68896e+06
-5.68894e+06
-5.68935e+06
-5.68846e+06
-5.69328e+06
-5.69231e+06
-5.68966e+06
-5.69128e+06
-5.69207e+06
-5.69986e+06
-5.69194e+06
-5.69522e+06
-5.68874e+06
-5.69512e+06
-5.68848e+06
-5.68866e+06
-5.69038e+06
-5.68935e+06
-5.69322e+06
-5.68846e+06
-5.68967e+06
-5.69223e+06
-5.68864e+06
-5.68905e+06
-5.69075e+06
-5.69148e+06
-5.69231e+06
-5.70002e+06
-5.69239e+06
-5.69547e+06
-5.68899e+06
-5.69543e+06
-5.68943e+06
-5.69329e+06
-5.68855e+06
-5.68969e+06
-5.69242e+06
-5.68859e+06
-5.68905e+06
-5.69072e+06
-5.68925e+06
-5.68996e+06
-5.68999e+06
-5.68858e+06
-5.68828e+06
-5.68814e+06
-5.68946e+06
-5.68936e+06
-5.68829e+06
-5.68836e+06
-5.68959e+06
-5.69014e+06
-5.68905e+06
-5.68894e+06
-5.68832e+06
-5.68836e+06
-5.68861e+06
-5.69032e+06
-5.68838e+06
-5.6886e+06
-5.69029e+06
-5.69121e+06
-5.6919e+06
-5.6919e+06
-5.69982e+06
-5.68876e+06
-5.69509e+06
-5.69507e+06
-5.68925e+06
-5.68839e+06
-5.69311e+06
-5.69218e+06
-5.68955e+06
-5.68923e+06
-5.68832e+06
-5.69307e+06
-5.69213e+06
-5.68952e+06
-5.69825e+06
-5.69007e+06
-5.69698e+06
-5.69274e+06
-5.69525e+06
-5.69165e+06
-5.69941e+06
-5.69823e+06
-5.68996e+06
-5.69261e+06
-5.69688e+06
-5.69159e+06
-5.6953e+06
-5.6993e+06
-5.70006e+06
-5.69471e+06
-5.69462e+06
-5.70222e+06
-5.69318e+06
-5.70118e+06
-5.70109e+06
-5.69714e+06
-5.68942e+06
-5.6916e+06
-5.68947e+06
-5.69396e+06
-5.69107e+06
-5.694e+06
-5.70056e+06
-5.69492e+06
-5.69591e+06
-5.70239e+06
-5.69401e+06
-5.70134e+06
-5.70161e+06
-5.69893e+06
-5.69038e+06
-5.69347e+06
-5.69732e+06
-5.69243e+06
-5.69575e+06
-5.69988e+06
-5.69162e+06
-5.69278e+06
-5.69282e+06
-5.70022e+06
-5.68968e+06
-5.69554e+06
-5.69561e+06
-5.6887e+06
-5.68904e+06
-5.69082e+06
-5.68946e+06
-5.68859e+06
-5.69337e+06
-5.69246e+06
-5.68974e+06
-5.68948e+06
-5.68864e+06
-5.6934e+06
-5.69248e+06
-5.68975e+06
-5.68796e+06
-5.68805e+06
-5.6892e+06
-5.68924e+06
-5.68815e+06
-5.69813e+06
-5.68991e+06
-5.69682e+06
-5.6925e+06
-5.69515e+06
-5.69151e+06
-5.69919e+06
-5.69815e+06
-5.6899e+06
-5.69682e+06
-5.69253e+06
-5.69519e+06
-5.69151e+06
-5.69922e+06
-5.69992e+06
-5.69445e+06
-5.6945e+06
-5.70193e+06
-5.69305e+06
-5.70092e+06
-5.70095e+06
-5.69739e+06
-5.69167e+06
-5.68954e+06
-5.68956e+06
-5.69413e+06
-5.69412e+06
-5.69132e+06
-5.69919e+06
-5.69052e+06
-5.69742e+06
-5.69375e+06
-5.69585e+06
-5.69278e+06
-5.70011e+06
-5.69917e+06
-5.69049e+06
-5.6974e+06
-5.6937e+06
-5.69582e+06
-5.69271e+06
-5.70009e+06
-5.70105e+06
-5.69638e+06
-5.69637e+06
-5.70298e+06
-5.6948e+06
-5.70202e+06
-5.70202e+06
-5.68911e+06
-5.68843e+06
-5.68912e+06
-5.68842e+06
-5.69043e+06
-5.69044e+06
-5.68966e+06
-5.688e+06
-5.68923e+06
-5.68919e+06
-5.68819e+06
-5.68789e+06
-5.69566e+06
-5.6885e+06
-5.6905e+06
-5.6885e+06
-5.6929e+06
-5.69012e+06
-5.69298e+06
-5.69993e+06
-5.69452e+06
-5.70193e+06
-5.69446e+06
-5.70094e+06
-5.69307e+06
-5.70093e+06
-5.69816e+06
-5.68987e+06
-5.69251e+06
-5.69683e+06
-5.69147e+06
-5.6952e+06
-5.69922e+06
-5.69918e+06
-5.69741e+06
-5.69048e+06
-5.69368e+06
-5.69583e+06
-5.7001e+06
-5.69275e+06
-5.69739e+06
-5.68956e+06
-5.69168e+06
-5.68957e+06
-5.6941e+06
-5.69135e+06
-5.6941e+06
-5.70105e+06
-5.69637e+06
-5.70298e+06
-5.69638e+06
-5.70202e+06
-5.69483e+06
-5.70203e+06
-5.69917e+06
-5.69048e+06
-5.69372e+06
-5.69742e+06
-5.69274e+06
-5.69581e+06
-5.7001e+06
-5.69045e+06
-5.69045e+06
-5.68971e+06
-5.68913e+06
-5.68847e+06
-5.69123e+06
-5.69189e+06
-5.69198e+06
-5.69984e+06
-5.68877e+06
-5.69508e+06
-5.69512e+06
-5.68841e+06
-5.68865e+06
-5.69036e+06
-5.68924e+06
-5.6883e+06
-5.69311e+06
-5.69217e+06
-5.68952e+06
-5.68927e+06
-5.68837e+06
-5.69313e+06
-5.69217e+06
-5.68956e+06
-5.69568e+06
-5.69057e+06
-5.6886e+06
-5.68858e+06
-5.69302e+06
-5.693e+06
-5.69025e+06
-5.69827e+06
-5.697e+06
-5.69008e+06
-5.69279e+06
-5.6953e+06
-5.69943e+06
-5.69168e+06
-5.69824e+06
-5.69e+06
-5.69689e+06
-5.69262e+06
-5.69525e+06
-5.69162e+06
-5.69931e+06
-5.70007e+06
-5.6948e+06
-5.7022e+06
-5.69467e+06
-5.70119e+06
-5.69328e+06
-5.70109e+06
-5.69871e+06
-5.69708e+06
-5.69026e+06
-5.69289e+06
-5.69555e+06
-5.69955e+06
-5.69202e+06
-5.69711e+06
-5.69158e+06
-5.68938e+06
-5.68944e+06
-5.69391e+06
-5.69398e+06
-5.69105e+06
-5.70055e+06
-5.69495e+06
-5.70238e+06
-5.69593e+06
-5.70135e+06
-5.694e+06
-5.70161e+06
-5.69891e+06
-5.69037e+06
-5.69731e+06
-5.69354e+06
-5.69567e+06
-5.69246e+06
-5.69988e+06
-5.68868e+06
-5.68906e+06
-5.69081e+06
-5.6886e+06
-5.68902e+06
-5.69073e+06
-5.68948e+06
-5.68867e+06
-5.6934e+06
-5.69246e+06
-5.68976e+06
-5.68944e+06
-5.68855e+06
-5.6934e+06
-5.69243e+06
-5.68973e+06
-5.68833e+06
-5.6882e+06
-5.68954e+06
-5.68943e+06
-5.6884e+06
-5.68961e+06
-5.69013e+06
-5.68904e+06
-5.68894e+06
-5.68832e+06
-5.68816e+06
-5.68939e+06
-5.68949e+06
-5.68834e+06
-5.6882e+06
-5.69013e+06
-5.68958e+06
-5.68904e+06
-5.68893e+06
-5.68829e+06
-5.68824e+06
-5.68922e+06
-5.69309e+06
-5.68833e+06
-5.68954e+06
-5.69213e+06
-5.68919e+06
-5.69307e+06
-5.6882e+06
-5.68951e+06
-5.69209e+06
-5.68841e+06
-5.68865e+06
-5.6903e+06
-5.68835e+06
-5.68862e+06
-5.69029e+06
-5.6912e+06
-5.69978e+06
-5.69185e+06
-5.69189e+06
-5.69507e+06
-5.69505e+06
-5.68868e+06
-5.70005e+06
-5.69468e+06
-5.70222e+06
-5.69475e+06
-5.70109e+06
-5.69324e+06
-5.70118e+06
-5.69565e+06
-5.68854e+06
-5.68858e+06
-5.69053e+06
-5.69022e+06
-5.69295e+06
-5.69298e+06
-5.69825e+06
-5.69272e+06
-5.69006e+06
-5.69699e+06
-5.69164e+06
-5.69941e+06
-5.69528e+06
-5.69891e+06
-5.69347e+06
-5.69732e+06
-5.69033e+06
-5.69988e+06
-5.69242e+06
-5.69565e+06
-5.69872e+06
-5.69283e+06
-5.69026e+06
-5.69706e+06
-5.69198e+06
-5.69953e+06
-5.69558e+06
-5.69712e+06
-5.6894e+06
-5.68939e+06
-5.69157e+06
-5.69102e+06
-5.69398e+06
-5.69393e+06
-5.68948e+06
-5.6934e+06
-5.68866e+06
-5.68976e+06
-5.69248e+06
-5.68865e+06
-5.68897e+06
-5.69071e+06
-5.69158e+06
-5.70017e+06
-5.69278e+06
-5.69276e+06
-5.69552e+06
-5.69552e+06
-5.68966e+06
-5.68864e+06
-5.68899e+06
-5.69076e+06
-5.68802e+06
-5.68925e+06
-5.68924e+06
-5.68818e+06
-5.68802e+06
-5.69995e+06
-5.69452e+06
-5.70194e+06
-5.69449e+06
-5.70096e+06
-5.69312e+06
-5.70094e+06
-5.69558e+06
-5.68846e+06
-5.69049e+06
-5.68856e+06
-5.69292e+06
-5.69014e+06
-5.69297e+06
-5.69818e+06
-5.69249e+06
-5.68997e+06
-5.69684e+06
-5.69154e+06
-5.69922e+06
-5.69524e+06
-5.69916e+06
-5.69741e+06
-5.69374e+06
-5.69052e+06
-5.70009e+06
-5.69582e+06
-5.69278e+06
-5.70104e+06
-5.69638e+06
-5.70298e+06
-5.69637e+06
-5.70202e+06
-5.69485e+06
-5.70201e+06
-5.69737e+06
-5.68954e+06
-5.69161e+06
-5.68952e+06
-5.69411e+06
-5.69133e+06
-5.69408e+06
-5.69916e+06
-5.6937e+06
-5.69045e+06
-5.6974e+06
-5.69274e+06
-5.70008e+06
-5.6958e+06
-5.69045e+06
-5.69043e+06
-5.68969e+06
-5.6891e+06
-5.68846e+06
-5.68919e+06
-5.6892e+06
-5.68814e+06
-5.6879e+06
-5.68803e+06
-5.69812e+06
-5.69246e+06
-5.69682e+06
-5.68991e+06
-5.6992e+06
-5.69147e+06
-5.69514e+06
-5.69813e+06
-5.69251e+06
-5.69682e+06
-5.6899e+06
-5.6992e+06
-5.69148e+06
-5.69526e+06
-5.69553e+06
-5.68847e+06
-5.68854e+06
-5.69049e+06
-5.69007e+06
-5.69289e+06
-5.69296e+06
-5.70105e+06
-5.70298e+06
-5.69638e+06
-5.69637e+06
-5.70203e+06
-5.70202e+06
-5.69483e+06
-5.69918e+06
-5.69374e+06
-5.69742e+06
-5.69049e+06
-5.70011e+06
-5.69276e+06
-5.6958e+06
-5.69918e+06
-5.69373e+06
-5.69741e+06
-5.6905e+06
-5.7001e+06
-5.69278e+06
-5.69579e+06
-5.69739e+06
-5.68954e+06
-5.68954e+06
-5.69168e+06
-5.69133e+06
-5.69412e+06
-5.69409e+06
-5.68914e+06
-5.68848e+06
-5.68911e+06
-5.68848e+06
-5.68923e+06
-5.69313e+06
-5.68841e+06
-5.68955e+06
-5.6922e+06
-5.68835e+06
-5.68858e+06
-5.69023e+06
-5.69118e+06
-5.69978e+06
-5.69185e+06
-5.69191e+06
-5.69503e+06
-5.69509e+06
-5.6887e+06
-5.68833e+06
-5.68866e+06
-5.69035e+06
-5.69827e+06
-5.69689e+06
-5.6926e+06
-5.69e+06
-5.69931e+06
-5.6953e+06
-5.6916e+06
-5.70006e+06
-5.70218e+06
-5.69465e+06
-5.69472e+06
-5.70109e+06
-5.70115e+06
-5.69319e+06
-5.6957e+06
-5.68862e+06
-5.69059e+06
-5.68857e+06
-5.69305e+06
-5.69027e+06
-5.69298e+06
-5.69826e+06
-5.69272e+06
-5.69698e+06
-5.69002e+06
-5.69939e+06
-5.69162e+06
-5.69524e+06
-5.70053e+06
-5.70236e+06
-5.6959e+06
-5.69487e+06
-5.7016e+06
-5.7013e+06
-5.69395e+06
-5.69891e+06
-5.6973e+06
-5.69351e+06
-5.69038e+06
-5.69987e+06
-5.69572e+06
-5.69245e+06
-5.69869e+06
-5.69282e+06
-5.69706e+06
-5.69026e+06
-5.69951e+06
-5.69195e+06
-5.69555e+06
-5.69712e+06
-5.68946e+06
-5.69158e+06
-5.6894e+06
-5.69398e+06
-5.69107e+06
-5.69392e+06
-5.68948e+06
-5.69341e+06
-5.68865e+06
-5.68976e+06
-5.69245e+06
-5.68946e+06
-5.69338e+06
-5.6886e+06
-5.68974e+06
-5.69244e+06
-5.6916e+06
-5.70022e+06
-5.69282e+06
-5.69277e+06
-5.69561e+06
-5.69551e+06
-5.68969e+06
-5.68866e+06
-5.68904e+06
-5.69081e+06
-5.68861e+06
-5.68897e+06
-5.69074e+06
-5.68938e+06
-5.68947e+06
-5.68831e+06
-5.68826e+06
-5.68893e+06
-5.68831e+06
-5.68829e+06
-5.68884e+06
-5.68889e+06
-5.68901e+06
-5.6893e+06
-5.68843e+06
-5.69321e+06
-5.69222e+06
-5.68963e+06
-5.69125e+06
-5.69189e+06
-5.69984e+06
-5.69203e+06
-5.69508e+06
-5.68874e+06
-5.69525e+06
-5.68849e+06
-5.68888e+06
-5.69057e+06
-5.69326e+06
-5.68838e+06
-5.68931e+06
-5.68962e+06
-5.69229e+06
-5.68867e+06
-5.68903e+06
-5.69075e+06
-5.7e+06
-5.69227e+06
-5.69539e+06
-5.69147e+06
-5.69237e+06
-5.69548e+06
-5.68901e+06
-5.68856e+06
-5.69329e+06
-5.6924e+06
-5.6894e+06
-5.68966e+06
-5.689e+06
-5.6907e+06
-5.68856e+06
-5.6892e+06
-5.68991e+06
-5.68996e+06
-5.68854e+06
-5.69125e+06
-5.69192e+06
-5.69985e+06
-5.69206e+06
-5.6951e+06
-5.6888e+06
-5.69521e+06
-5.68923e+06
-5.68833e+06
-5.69308e+06
-5.69215e+06
-5.68953e+06
-5.68842e+06
-5.68882e+06
-5.69052e+06
-5.68842e+06
-5.68927e+06
-5.69316e+06
-5.69225e+06
-5.68956e+06
-5.68923e+06
-5.6892e+06
-5.69079e+06
-5.69682e+06
-5.69136e+06
-5.69371e+06
-5.69372e+06
-5.69286e+06
-5.69709e+06
-5.69016e+06
-5.69957e+06
-5.69178e+06
-5.69851e+06
-5.69543e+06
-5.69011e+06
-5.69269e+06
-5.69173e+06
-5.69846e+06
-5.69696e+06
-5.6954e+06
-5.69939e+06
-5.68859e+06
-5.68902e+06
-5.69077e+06
-5.68943e+06
-5.68861e+06
-5.6934e+06
-5.69248e+06
-5.68975e+06
-5.68902e+06
-5.69073e+06
-5.68861e+06
-5.68857e+06
-5.69336e+06
-5.69242e+06
-5.68944e+06
-5.68974e+06
-5.68834e+06
-5.68862e+06
-5.69029e+06
-5.69122e+06
-5.69983e+06
-5.69189e+06
-5.692e+06
-5.69505e+06
-5.69521e+06
-5.68873e+06
-5.68843e+06
-5.68927e+06
-5.69314e+06
-5.68956e+06
-5.69223e+06
-5.68841e+06
-5.68882e+06
-5.69054e+06
-5.69266e+06
-5.69012e+06
-5.69176e+06
-5.69844e+06
-5.69693e+06
-5.69936e+06
-5.69537e+06
-5.68923e+06
-5.68927e+06
-5.69083e+06
-5.69684e+06
-5.69139e+06
-5.69374e+06
-5.69376e+06
-5.69287e+06
-5.69709e+06
-5.69016e+06
-5.69955e+06
-5.69178e+06
-5.69851e+06
-5.69545e+06
-5.68948e+06
-5.69344e+06
-5.68867e+06
-5.6925e+06
-5.68976e+06
-5.70006e+06
-5.69227e+06
-5.69543e+06
-5.69153e+06
-5.6924e+06
-5.69552e+06
-5.68909e+06
-5.68865e+06
-5.6891e+06
-5.6908e+06
-5.68861e+06
-5.69334e+06
-5.69244e+06
-5.68946e+06
-5.68974e+06
-5.68904e+06
-5.69076e+06
-5.68862e+06
-5.68886e+06
-5.68883e+06
-5.68899e+06
-5.68846e+06
-5.68865e+06
-5.69037e+06
-5.68934e+06
-5.69321e+06
-5.68838e+06
-5.69219e+06
-5.68967e+06
-5.6885e+06
-5.68889e+06
-5.69061e+06
-5.69325e+06
-5.68849e+06
-5.68938e+06
-5.69232e+06
-5.68969e+06
-5.70001e+06
-5.69229e+06
-5.69545e+06
-5.6915e+06
-5.6924e+06
-5.69546e+06
-5.68902e+06
-5.68945e+06
-5.69325e+06
-5.68858e+06
-5.69238e+06
-5.68971e+06
-5.68863e+06
-5.68905e+06
-5.69074e+06
-5.68858e+06
-5.69329e+06
-5.6924e+06
-5.68944e+06
-5.68971e+06
-5.68908e+06
-5.69076e+06
-5.68866e+06
-5.69617e+06
-5.69594e+06
-5.7026e+06
-5.69462e+06
-5.70183e+06
-5.70086e+06
-5.70164e+06
-5.71294e+06
-5.71288e+06
-5.71654e+06
-5.71285e+06
-5.71651e+06
-5.71646e+06
-5.72011e+06
-5.70937e+06
-5.71662e+06
-5.7131e+06
-5.7166e+06
-5.7131e+06
-5.72018e+06
-5.7167e+06
-5.71654e+06
-5.70917e+06
-5.71293e+06
-5.71646e+06
-5.72011e+06
-5.71286e+06
-5.71652e+06
-5.7131e+06
-5.71302e+06
-5.70937e+06
-5.72018e+06
-5.7167e+06
-5.7166e+06
-5.7131e+06
-5.7016e+06
-5.70334e+06
-5.69552e+06
-5.70332e+06
-5.69894e+06
-5.70586e+06
-5.69894e+06
-5.71651e+06
-5.71645e+06
-5.72011e+06
-5.70914e+06
-5.71292e+06
-5.71287e+06
-5.71653e+06
-5.71309e+06
-5.72018e+06
-5.7167e+06
-5.713e+06
-5.70935e+06
-5.71661e+06
-5.71309e+06
-5.72011e+06
-5.71286e+06
-5.71652e+06
-5.71287e+06
-5.71653e+06
-5.70915e+06
-5.71293e+06
-5.7167e+06
-5.71661e+06
-5.71311e+06
-5.71662e+06
-5.7131e+06
-5.71302e+06
-5.70937e+06
-5.69334e+06
-5.69886e+06
-5.69883e+06
-5.70216e+06
-5.69387e+06
-5.698e+06
-5.69796e+06
-5.70209e+06
-5.69881e+06
-5.69792e+06
-5.69331e+06
-5.69885e+06
-5.69795e+06
-5.69389e+06
-5.70202e+06
-5.69875e+06
-5.69789e+06
-5.69328e+06
-5.69874e+06
-5.69788e+06
-5.69385e+06
-5.69595e+06
-5.6962e+06
-5.69468e+06
-5.7009e+06
-5.70261e+06
-5.70167e+06
-5.70184e+06
-5.69593e+06
-5.69616e+06
-5.69463e+06
-5.70084e+06
-5.70258e+06
-5.70163e+06
-5.7018e+06
-5.69616e+06
-5.69596e+06
-5.69466e+06
-5.70085e+06
-5.70258e+06
-5.7018e+06
-5.70164e+06
-5.69871e+06
-5.69318e+06
-5.69869e+06
-5.70192e+06
-5.69379e+06
-5.69779e+06
-5.69771e+06
-5.69876e+06
-5.70203e+06
-5.6979e+06
-5.69327e+06
-5.69873e+06
-5.69381e+06
-5.69789e+06
-5.69311e+06
-5.69863e+06
-5.70186e+06
-5.69858e+06
-5.69774e+06
-5.69367e+06
-5.69765e+06
-5.6949e+06
-5.69474e+06
-5.70236e+06
-5.69337e+06
-5.70137e+06
-5.70028e+06
-5.70124e+06
-5.69887e+06
-5.70211e+06
-5.69795e+06
-5.69333e+06
-5.69887e+06
-5.69393e+06
-5.69797e+06
-5.69309e+06
-5.69863e+06
-5.69858e+06
-5.70186e+06
-5.69366e+06
-5.69772e+06
-5.69765e+06
-5.69888e+06
-5.69337e+06
-5.69887e+06
-5.70213e+06
-5.69392e+06
-5.69798e+06
-5.69799e+06
-5.69317e+06
-5.69872e+06
-5.7019e+06
-5.69869e+06
-5.69777e+06
-5.69379e+06
-5.69772e+06
-5.69329e+06
-5.69876e+06
-5.70203e+06
-5.69873e+06
-5.69791e+06
-5.69383e+06
-5.69787e+06
-5.69307e+06
-5.70182e+06
-5.69858e+06
-5.69856e+06
-5.69765e+06
-5.69763e+06
-5.69365e+06
-5.70158e+06
-5.69555e+06
-5.70335e+06
-5.70332e+06
-5.69894e+06
-5.69894e+06
-5.70585e+06
-5.69334e+06
-5.70216e+06
-5.69884e+06
-5.69885e+06
-5.69798e+06
-5.698e+06
-5.69389e+06
-5.70154e+06
-5.69553e+06
-5.70332e+06
-5.7033e+06
-5.69891e+06
-5.69891e+06
-5.70582e+06
-5.70158e+06
-5.70334e+06
-5.69552e+06
-5.70333e+06
-5.69893e+06
-5.70584e+06
-5.69894e+06
-5.69311e+06
-5.70184e+06
-5.69859e+06
-5.6986e+06
-5.69767e+06
-5.69768e+06
-5.6937e+06
-5.69331e+06
-5.70215e+06
-5.69885e+06
-5.69883e+06
-5.69799e+06
-5.69795e+06
-5.69386e+06
-5.69303e+06
-5.69856e+06
-5.69854e+06
-5.70179e+06
-5.69362e+06
-5.69762e+06
-5.6976e+06
-5.70157e+06
-5.70328e+06
-5.69548e+06
-5.70332e+06
-5.6989e+06
-5.70583e+06
-5.69891e+06
-5.69335e+06
-5.69885e+06
-5.69885e+06
-5.70214e+06
-5.69391e+06
-5.69797e+06
-5.69797e+06
-5.70153e+06
-5.70328e+06
-5.69547e+06
-5.70331e+06
-5.69887e+06
-5.70581e+06
-5.69891e+06
-5.70152e+06
-5.70327e+06
-5.7033e+06
-5.6955e+06
-5.7058e+06
-5.69888e+06
-5.69889e+06
-5.69303e+06
-5.69856e+06
-5.69858e+06
-5.7018e+06
-5.69365e+06
-5.6976e+06
-5.69764e+06
-5.70161e+06
-5.7033e+06
-5.70335e+06
-5.69551e+06
-5.70586e+06
-5.69894e+06
-5.69895e+06
-5.69868e+06
-5.69314e+06
-5.69867e+06
-5.70188e+06
-5.69769e+06
-5.69376e+06
-5.69775e+06
-5.702e+06
-5.69871e+06
-5.69784e+06
-5.69325e+06
-5.69871e+06
-5.69788e+06
-5.69378e+06
-5.69309e+06
-5.70184e+06
-5.69857e+06
-5.6986e+06
-5.69765e+06
-5.69771e+06
-5.69366e+06
-5.69491e+06
-5.70233e+06
-5.69474e+06
-5.70134e+06
-5.69333e+06
-5.70022e+06
-5.70118e+06
-5.70208e+06
-5.69882e+06
-5.69793e+06
-5.69335e+06
-5.69885e+06
-5.69796e+06
-5.69392e+06
-5.69307e+06
-5.69856e+06
-5.70183e+06
-5.69859e+06
-5.69763e+06
-5.69366e+06
-5.6977e+06
-5.6949e+06
-5.70232e+06
-5.69467e+06
-5.70132e+06
-5.69327e+06
-5.70018e+06
-5.70116e+06
-5.69871e+06
-5.69318e+06
-5.70191e+06
-5.6987e+06
-5.69772e+06
-5.69778e+06
-5.69381e+06
)
;

boundaryField
{
    sphere_to_oil
    {
        type            calculated;
        value           nonuniform List<scalar> 
1536
(
-5.6875e+06
-5.68727e+06
-5.68716e+06
-5.68716e+06
-5.68711e+06
-5.68747e+06
-5.68721e+06
-5.68745e+06
-5.68728e+06
-5.68724e+06
-5.68694e+06
-5.68707e+06
-5.68745e+06
-5.68727e+06
-5.68693e+06
-5.68742e+06
-5.687e+06
-5.68674e+06
-5.68725e+06
-5.68745e+06
-5.68731e+06
-5.68728e+06
-5.68715e+06
-5.68722e+06
-5.68722e+06
-5.68721e+06
-5.68718e+06
-5.6872e+06
-5.68721e+06
-5.68755e+06
-5.68738e+06
-5.6872e+06
-5.68713e+06
-5.68756e+06
-5.68736e+06
-5.68734e+06
-5.68725e+06
-5.68727e+06
-5.68717e+06
-5.68765e+06
-5.68748e+06
-5.68743e+06
-5.68716e+06
-5.68718e+06
-5.68729e+06
-5.68721e+06
-5.68728e+06
-5.68722e+06
-5.68727e+06
-5.68728e+06
-5.6872e+06
-5.68728e+06
-5.68728e+06
-5.68717e+06
-5.68747e+06
-5.68737e+06
-5.68742e+06
-5.68725e+06
-5.68739e+06
-5.68719e+06
-5.68747e+06
-5.68733e+06
-5.68719e+06
-5.68686e+06
-5.68716e+06
-5.68684e+06
-5.68717e+06
-5.6871e+06
-5.68731e+06
-5.68746e+06
-5.68723e+06
-5.68757e+06
-5.68741e+06
-5.68723e+06
-5.68691e+06
-5.68724e+06
-5.68708e+06
-5.68728e+06
-5.68749e+06
-5.6872e+06
-5.68713e+06
-5.68721e+06
-5.6871e+06
-5.68761e+06
-5.68739e+06
-5.68741e+06
-5.68756e+06
-5.68743e+06
-5.68736e+06
-5.68714e+06
-5.68742e+06
-5.68727e+06
-5.68743e+06
-5.68722e+06
-5.68718e+06
-5.68725e+06
-5.68733e+06
-5.68718e+06
-5.68717e+06
-5.68704e+06
-5.6872e+06
-5.68704e+06
-5.68752e+06
-5.68746e+06
-5.68773e+06
-5.68724e+06
-5.68746e+06
-5.68734e+06
-5.6875e+06
-5.68731e+06
-5.68699e+06
-5.68692e+06
-5.68698e+06
-5.6877e+06
-5.68745e+06
-5.68738e+06
-5.68726e+06
-5.68732e+06
-5.68741e+06
-5.68697e+06
-5.68686e+06
-5.6873e+06
-5.6876e+06
-5.68777e+06
-5.68753e+06
-5.68733e+06
-5.68742e+06
-5.68704e+06
-5.68673e+06
-5.68729e+06
-5.68708e+06
-5.6872e+06
-5.68708e+06
-5.68724e+06
-5.68743e+06
-5.68738e+06
-5.68767e+06
-5.68719e+06
-5.68757e+06
-5.68743e+06
-5.68741e+06
-5.68714e+06
-5.68721e+06
-5.68724e+06
-5.68717e+06
-5.68724e+06
-5.68732e+06
-5.68716e+06
-5.68701e+06
-5.68684e+06
-5.6871e+06
-5.68723e+06
-5.68717e+06
-5.6876e+06
-5.68734e+06
-5.68748e+06
-5.68753e+06
-5.68736e+06
-5.68699e+06
-5.68697e+06
-5.68731e+06
-5.68746e+06
-5.6877e+06
-5.6875e+06
-5.68725e+06
-5.68741e+06
-5.68696e+06
-5.68688e+06
-5.68698e+06
-5.68732e+06
-5.68726e+06
-5.68766e+06
-5.68748e+06
-5.6875e+06
-5.68734e+06
-5.68711e+06
-5.68708e+06
-5.68716e+06
-5.6872e+06
-5.68721e+06
-5.68739e+06
-5.68765e+06
-5.6874e+06
-5.68757e+06
-5.68745e+06
-5.68745e+06
-5.68727e+06
-5.68722e+06
-5.68731e+06
-5.68706e+06
-5.68721e+06
-5.68692e+06
-5.68741e+06
-5.68724e+06
-5.68721e+06
-5.68699e+06
-5.68733e+06
-5.68718e+06
-5.68748e+06
-5.68723e+06
-5.68718e+06
-5.68709e+06
-5.68708e+06
-5.68746e+06
-5.68728e+06
-5.68753e+06
-5.68737e+06
-5.68734e+06
-5.68716e+06
-5.68705e+06
-5.68751e+06
-5.68709e+06
-5.68722e+06
-5.68717e+06
-5.68751e+06
-5.68732e+06
-5.6875e+06
-5.68737e+06
-5.68742e+06
-5.68728e+06
-5.68746e+06
-5.68733e+06
-5.68753e+06
-5.68742e+06
-5.68748e+06
-5.68734e+06
-5.68704e+06
-5.68737e+06
-5.68742e+06
-5.6871e+06
-5.68661e+06
-5.68675e+06
-5.68658e+06
-5.68734e+06
-5.68688e+06
-5.68728e+06
-5.68747e+06
-5.68706e+06
-5.68665e+06
-5.68715e+06
-5.68747e+06
-5.6867e+06
-5.6875e+06
-5.68704e+06
-5.68708e+06
-5.68745e+06
-5.68683e+06
-5.68746e+06
-5.68684e+06
-5.68733e+06
-5.68752e+06
-5.68752e+06
-5.68708e+06
-5.68688e+06
-5.68697e+06