/*--------------------------------*- C++ -*----------------------------------*\
| =========                 |                                                 |
| \\      /  F ield         | OpenFOAM: The Open Source CFD Toolbox           |
|  \\    /   O peration     | Version:  v1912                                 |
|   \\  /    A nd           | Website:  www.openfoam.com                      |
|    \\/     M anipulation  |                                                 |
\*---------------------------------------------------------------------------*/
FoamFile
{
    version     2.0;
    format      ascii;
    class       volScalarField;
    location    "185/oil";
    object      heatTransferCoeff(T);
}
// * * * * * * * * * * * * * * * * * * * * * * * * * * * * * * * * * * * * * //

dimensions      [1 0 -3 -1 0 0 0];


internalField   uniform 0;

boundaryField
{
    maxY
    {
        type            calculated;
        value           uniform 0;
    }
    minX
    {
        type            calculated;
        value           uniform 0;
    }
    maxX
    {
        type            calculated;
        value           uniform 0;
    }
    minY
    {
        type            calculated;
        value           uniform 0;
    }
    minZ
    {
        type            calculated;
        value           uniform 0;
    }
    maxZ
    {
        type            calculated;
        value           uniform 0;
    }
    oil_to_sphere
    {
        type            calculated;
        value           nonuniform List<scalar> 
360
(
-85.7671
-86.2485
-59.4413
-154.154
-164.48
-69.2324
-168.829
-152.361
-164.02
-85.8636
-86.3229
-68.8234
-76.4644
-53.5851
-84.1226
-145.97
-166.59
-154.363
-161.481
-53.3983
-134.295
-86.1964
-75.8386
-159.625
-59.7655
-165.496
-69.0426
-163.045
-161.826
-153.02
-173.783
-169.558
-59.6191
-59.0504
-68.1306
-68.4958
-159.8
-158.64
-154.358
-156.863
-160.762
-59.1751
-67.6653
-88.9657
-89.1721
-68.8368
-75.0018
-53.0739
-84.2788
-151.096
-69.4271
-68.8261
-75.7945
-75.8764
-52.9968
-86.5819
-154.819
-53.2772
-67.9243
-74.6204
-53.2885
-162.613
-154.434
-161.187
-53.0145
-139.407
-84.2512
-73.6393
-169.103
-160.718
-154.861
-158.615
-158.109
-53.0414
-119.88
-83.6244
-53.6632
-72.7483
-158.872
-163.601
-74.4827
-73.1991
-73.3829
-53.2771
-59.254
-68.343
-68.6441
-76.026
-53.3375
-53.6809
-59.3279
-76.2723
-68.5926
-59.2531
-75.6238
-68.3892
-68.3964
-68.5227
-58.9557
-54.2416
-54.2488
-53.2726
-69.2806
-69.021
-76.458
-53.2668
-53.8149
-76.6019
-59.2033
-68.8425
-68.7036
-68.773
-59.0809
-53.1554
-54.57
-54.4825
-75.4199
-75.0315
-74.827
-87.674
-87.8192
-148.866
-158.595
-143.487
-159.983
-148.871
-159.87
-161.935
-150.836
-157.623
-154.96
-74.8179
-74.4131
-74.636
-54.0407
-148.291
-161.471
-87.246
-87.4539
-162.951
-150.557
-85.3124
-84.0434
-165.378
-151.697
-174.818
-54.0632
-53.9144
-159.578
-163.49
-174.423
-165.676
-165.733
-172.826
-174.273
-150.89
-83.4846
-164.77
-156.293
-53.5521
-162.955
-167.122
-72.9495
-71.856
-74.7784
-85.3604
-86.3549
-165.006
-151.811
-171.661
-52.8103
-154.121
-86.7324
-163.026
-155.705
-52.8561
-168.048
-74.0664
-73.9274
-54.1319
-68.9183
-69.0418
-76.2453
-59.5826
-75.6821
-67.9269
-53.368
-54.1854
-161.831
-151.738
-162.6
-156.389
-88.2518
-88.3141
-159.341
-145.749
-156.699
-84.7194
-85.2319
-53.8636
-68.3641
-69.5857
-76.4724
-68.8627
-68.5623
-76.4561
-59.1601
-76.0081
-68.3753
-58.7493
-150.487
-76.3313
-68.3202
-53.4965
-158.139
-149.748
-158.121
-88.5186
-88.5207
-52.8085
-68.0105
-68.1068
-74.3368
-162.405
-58.677
-74.1109
-67.8708
-153.039
-154.201
-87.903
-53.1488
-87.2236
-53.1333
-54.4836
-75.5392
-59.5772
-67.1635
-66.9249
-66.9391
-58.7199
-53.7439
-154.558
-144.935
-162.735
-170.595
-152.623
-144.3
-164.685
-166.504
-85.3052
-156.348
-53.9705
-164.403
-162.521
-163.314
-75.8264
-59.4829
-68.8294
-75.8643
-59.7324
-163.286
-68.3417
-68.3011
-68.7469
-59.036
-165.232
-152.082
-68.2157
-68.2315
-58.9574
-152.527
-172.542
-86.2897
-155.437
-53.3438
-162.145
-159.235
-163.318
-73.7258
-58.8908
-160.908
-67.8282
-67.9643
-67.7134
-159.572
-59.0933
-157.026
-87.5066
-145.273
-87.9385
-153.118
-156.027
-158.982
-53.3711
-72.7699
-71.498
-72.2509
-87.5617
-160.005
-87.3243
-154.948
-159.557
-53.763
-161.013
-163.718
-84.089
-156.869
-53.7832
-172.512
-73.7959
-73.3579
-52.7524
-154.742
-87.3463
-137.573
-155.317
-87.2646
-53.2872
-68.5093
-68.5845
-76.251
-160.325
-148.704
-85.9615
-53.962
-149.722
-87.3079
-53.5268
-150.776
-163.201
-84.7205
-157.504
-52.6393
-170.123
-76.5551
-167.428
-59.0842
-68.6874
-167.973
-157.017
-154.204
-85.81
-163.694
-162.16
-86.4912
-155.161
-72.4351
-74.2521
-152.29
-86.9033
-53.0024
-152.204
-87.1054
-53.5883
-156.897
-157.93
-149.231
-87.4858
-154.365
-87.6913
)
;
    }
}


// ************************************************************************* //
