/*--------------------------------*- C++ -*----------------------------------*\
| =========                 |                                                 |
| \\      /  F ield         | OpenFOAM: The Open Source CFD Toolbox           |
|  \\    /   O peration     | Version:  v1912                                 |
|   \\  /    A nd           | Website:  www.openfoam.com                      |
|    \\/     M anipulation  |                                                 |
\*---------------------------------------------------------------------------*/
FoamFile
{
    version     2.0;
    format      ascii;
    class       surfaceScalarField;
    location    "185/oil";
    object      phi;
}
// * * * * * * * * * * * * * * * * * * * * * * * * * * * * * * * * * * * * * //

dimensions      [1 0 -1 0 0 0 0];
oriented        oriented;


internalField   nonuniform List<scalar> 
80688
(
-1.22213e-06
-1.50475e-06
-1.2218e-06
-6.63454e-07
-4.42481e-07
-1.16193e-07
5.77073e-07
-7.08309e-07
-5.32218e-07
2.0027e-07
1.15293e-07
2.6151e-07
3.76328e-07
-1.53972e-07
-2.20867e-08
3.51728e-07
-4.41773e-08
6.87774e-08
4.12371e-07
-7.66987e-08
1.60558e-08
4.21138e-07
-3.97768e-08
3.10099e-08
4.36875e-07
-3.23846e-08
1.66469e-08
4.22848e-07
-7.09784e-09
2.11256e-08
4.03446e-07
5.23127e-09
1.41702e-08
3.62368e-07
2.43518e-08
1.67263e-08
3.15509e-07
3.43115e-08
1.25475e-08
2.5612e-07
4.54553e-08
1.39341e-08
1.92876e-07
5.10539e-08
1.21899e-08
1.27932e-07
5.2828e-08
1.2116e-08
6.15165e-08
5.35358e-08
1.28798e-08
3.78391e-09
4.61547e-08
1.15779e-08
-5.29769e-08
4.21109e-08
1.465e-08
-9.28581e-08
2.72417e-08
1.26394e-08
-1.29857e-07
1.93607e-08
1.76383e-08
-1.45517e-07
-2.77966e-10
1.59375e-08
-1.5786e-07
-9.93644e-09
2.22799e-08
-1.4979e-07
-2.9811e-08
2.17411e-08
-1.39693e-07
-3.92205e-08
2.91239e-08
-1.14463e-07
-5.5734e-08
3.05031e-08
-8.9675e-08
-6.23074e-08
3.75198e-08
-5.71595e-08
-7.16298e-08
3.91143e-08
-2.6755e-08
-6.93065e-08
3.89021e-08
-5.28955e-08
2.61404e-08
-1.48459e-07
-1.20581e-06
-1.5048e-07
3.77363e-07
-1.66005e-07
-8.02298e-07
3.29803e-08
-4.99399e-07
1.35473e-07
3.91122e-07
-2.89856e-07
4.70071e-08
4.71496e-07
-3.29668e-07
9.5321e-08
5.99601e-07
-2.62324e-07
9.00414e-08
6.76009e-07
-2.3633e-07
8.32237e-08
7.25539e-07
-1.77877e-07
8.85712e-08
7.50847e-07
-1.38965e-07
8.12721e-08
7.38804e-07
-8.27916e-08
8.77365e-08
7.07342e-07
-4.57478e-08
8.24412e-08
6.42972e-07
6.83227e-10
8.80387e-08
5.64419e-07
2.80195e-08
8.48445e-08
4.66009e-07
5.5642e-08
8.82235e-08
3.59435e-07
7.09296e-08
8.66985e-08
2.49356e-07
7.62451e-08
8.66625e-08
1.37934e-07
7.79291e-08
8.70278e-08
3.91861e-08
6.11852e-08
8.37179e-08
-5.47668e-08
4.99303e-08
8.61335e-08
-1.23507e-07
1.51718e-08
8.08098e-08
-1.83356e-07
-5.8919e-09
8.51019e-08
-2.11991e-07
-5.13068e-08
7.96635e-08
-2.30912e-07
-7.69129e-08
8.5898e-08
-2.20793e-07
-1.22207e-07
8.22767e-08
-2.04751e-07
-1.45023e-07
8.9761e-08
-1.68761e-07
-1.80627e-07
8.89032e-08
-1.32371e-07
-1.94246e-07
9.55492e-08
-8.67662e-08
-2.10389e-07
9.3154e-08
-4.15954e-08
-1.97987e-07
8.35092e-08
-1.42861e-07
4.83697e-08
-5.516e-07
-1.00037e-07
-5.54172e-07
6.77635e-09
-8.59233e-07
1.34851e-07
2.66896e-07
-6.93718e-07
-6.58008e-08
4.3151e-07
-6.2396e-07
1.6949e-07
6.10737e-07
-5.94363e-07
8.54681e-08
7.11825e-07
-5.01914e-07
1.38502e-07
8.14293e-07
-4.50809e-07
1.12011e-07
8.62108e-07
-3.53867e-07
1.28174e-07
8.93343e-07
-2.87801e-07
1.17601e-07
8.76546e-07
-1.9307e-07
1.27075e-07
8.38737e-07
-1.29399e-07
1.2146e-07
7.62365e-07
-5.19345e-08
1.28989e-07
6.68645e-07
-4.11789e-09
1.25858e-07
5.50971e-07
4.36019e-08
1.29714e-07
4.23556e-07
6.9903e-08
1.28442e-07
2.92038e-07
7.95032e-08
1.28259e-07
1.59286e-07
8.17193e-08
1.28962e-07
4.15002e-08
5.40311e-08
1.2494e-07
-6.97005e-08
3.35892e-08
1.27542e-07
-1.51391e-07
-2.41914e-08
1.21053e-07
-2.21016e-07
-6.1722e-08
1.25456e-07
-2.54613e-07
-1.36211e-07
1.18502e-07
-2.75561e-07
-1.80574e-07
1.24609e-07
-2.6328e-07
-2.53974e-07
1.19486e-07
-2.42973e-07
-2.9196e-07
1.26629e-07
-2.00337e-07
-3.47455e-07
1.24191e-07
-1.56726e-07
-3.67638e-07
1.29781e-07
-1.03205e-07
-3.8828e-07
1.24371e-07
-4.92661e-08
-3.60172e-07
1.08246e-07
-2.51719e-07
5.95927e-08
2.88459e-07
-6.7423e-07
2.85733e-07
2.60184e-07
-9.19504e-07
8.85464e-08
3.87551e-07
-1.02057e-06
1.99489e-07
5.65794e-07
-9.53688e-07
1.51486e-07
7.147e-07
-9.12668e-07
1.69399e-07
8.50793e-07
-8.06526e-07
1.68519e-07
9.5427e-07
-7.2199e-07
1.67704e-07
1.01478e-06
-5.91749e-07
1.77374e-07
1.04356e-06
-4.90294e-07
1.73709e-07
1.02078e-06
-3.56202e-07
1.85917e-07
9.68931e-07
-2.60316e-07
1.82764e-07
8.71775e-07
-1.48582e-07
1.93803e-07
7.52244e-07
-7.59576e-08
1.9137e-07
6.04927e-07
-6.85649e-09
1.97776e-07
4.46452e-07
3.17344e-08
1.96644e-07
2.83912e-07
4.55684e-08
1.96475e-07
1.21195e-07
4.81197e-08
1.96316e-07
-2.2836e-08
8.52648e-09
1.89536e-07
-1.5669e-07
-2.35448e-08
1.90988e-07
-2.53948e-07
-1.07387e-07
1.80453e-07
-3.34553e-07
-1.64172e-07
1.83055e-07
-3.71236e-07
-2.71018e-07
1.7149e-07
-3.90685e-07
-3.36772e-07
1.75647e-07
-3.70117e-07
-4.40491e-07
1.6595e-07
-3.37998e-07
-4.95118e-07
1.71039e-07
-2.78838e-07
-5.71278e-07
1.64663e-07
-2.1676e-07
-5.97908e-07
1.68192e-07
-1.42632e-07
-6.21711e-07
1.59303e-07
-6.74412e-08
-5.73436e-07
1.38073e-07
-3.96533e-07
7.73723e-08
4.5964e-08
-7.63495e-07
4.33015e-08
2.51127e-07
-1.29645e-06
1.7178e-07
4.44518e-07
-1.36141e-06
1.4745e-07
6.36353e-07
-1.34273e-06
1.97207e-07
8.16532e-07
-1.26827e-06
1.75423e-07
9.52717e-07
-1.13944e-06
1.96734e-07
1.06728e-06
-1.02143e-06
1.84869e-07
1.12473e-06
-8.48011e-07
1.9882e-07
1.15246e-06
-7.0875e-07
1.90723e-07
1.12065e-06
-5.27639e-07
2.03249e-07
1.05852e-06
-3.95901e-07
1.97708e-07
9.4612e-07
-2.4466e-07
2.08481e-07
8.10045e-07
-1.45202e-07
2.05319e-07
6.44317e-07
-5.28479e-08
2.1172e-07
4.66671e-07
-1.58e-09
2.1096e-07
2.84347e-07
1.79484e-08
2.09944e-07
1.02033e-07
1.95361e-08
2.10897e-07
-5.84763e-08
-3.50184e-08
2.04055e-07
-2.08116e-07
-8.08458e-08
2.0694e-07
-3.17112e-07
-1.94274e-07
1.95883e-07
-4.07082e-07
-2.75037e-07
2.00835e-07
-4.47695e-07
-4.19435e-07
1.8903e-07
-4.68221e-07
-5.1179e-07
1.95544e-07
-4.43408e-07
-6.5092e-07
1.85616e-07
-4.04197e-07
-7.26716e-07
1.92387e-07
-3.33687e-07
-8.27382e-07
1.85593e-07
-2.58245e-07
-8.63263e-07
1.89914e-07
-1.68616e-07
-8.91453e-07
1.80113e-07
-7.79282e-08
-8.20419e-07
1.56295e-07
-5.61851e-07
8.73898e-08
1.77594e-07
-1.11591e-06
1.74822e-07
3.57293e-07
-1.69275e-06
2.16604e-07
5.86186e-07
-1.84006e-06
2.49754e-07
7.98529e-07
-1.79825e-06
2.43179e-07
1.00058e-06
-1.71518e-06
2.44863e-07
1.15936e-06
-1.55155e-06
2.53325e-07
1.28624e-06
-1.39874e-06
2.50435e-07
1.34952e-06
-1.17834e-06
2.67041e-07
1.37293e-06
-9.95233e-07
2.63069e-07
1.32608e-06
-7.63622e-07
2.82841e-07
1.24084e-06
-5.90322e-07
2.79655e-07
1.095e-06
-3.9647e-07
2.97649e-07
9.20531e-07
-2.66052e-07
2.95322e-07
7.09649e-07
-1.47629e-07
3.05663e-07
4.83895e-07
-7.93886e-08
3.03562e-07
2.54874e-07
-5.60583e-08
3.03028e-07
2.77785e-08
-5.60194e-08
3.02652e-07
-1.71526e-07
-1.27528e-07
2.91814e-07
-3.54759e-07
-1.90634e-07
2.93021e-07
-4.8665e-07
-3.37326e-07
2.74943e-07
-5.9312e-07
-4.45894e-07
2.77326e-07
-6.38341e-07
-6.31616e-07
2.57401e-07
-6.56713e-07
-7.54766e-07
2.61349e-07
-6.18901e-07
-9.32797e-07
2.44065e-07
-5.60836e-07
-1.03338e-06
2.48602e-07
-4.63329e-07
-1.16121e-06
2.3632e-07
-3.5704e-07
-1.20869e-06
2.39139e-07
-2.32641e-07
-1.24183e-06
2.25978e-07
-1.06836e-07
-1.14424e-06
1.98019e-07
-7.83667e-07
1.1498e-07
1.58676e-07
-1.4303e-06
1.55708e-07
4.09044e-07
-2.19574e-06
2.52623e-07
6.71112e-07
-2.3682e-06
2.66075e-07
9.18879e-07
-2.32712e-06
2.81104e-07
1.14648e-06
-2.21362e-06
2.70843e-07
1.31994e-06
-2.01016e-06
2.85145e-07
1.45709e-06
-1.81149e-06
2.75596e-07
1.51979e-06
-1.53369e-06
2.92655e-07
1.53863e-06
-1.29755e-06
2.83475e-07
1.47824e-06
-1.00525e-06
3.02014e-07
1.37613e-06
-7.82896e-07
2.94691e-07
1.20715e-06
-5.38819e-07
3.11326e-07
1.00723e-06
-3.73012e-07
3.06881e-07
7.68112e-07
-2.24813e-07
3.16302e-07
5.13855e-07
-1.40224e-07
3.15092e-07
2.56481e-07
-1.12123e-07
3.13439e-07
6.94066e-10
-1.15758e-07
3.15525e-07
-2.24312e-07
-2.06518e-07
3.03996e-07
-4.3232e-07
-2.91811e-07
3.09186e-07
-5.82664e-07
-4.7776e-07
2.90777e-07
-7.04686e-07
-6.21869e-07
2.97997e-07
-7.57504e-07
-8.56998e-07
2.782e-07
-7.79128e-07
-1.0198e-06
2.86657e-07
-7.36315e-07
-1.24509e-06
2.69476e-07
-6.68293e-07
-1.37872e-06
2.77314e-07
-5.536e-07
-1.54094e-06
2.65034e-07
-4.26057e-07
-1.60627e-06
2.70034e-07
-2.76353e-07
-1.64837e-06
2.56838e-07
-1.24824e-07
-1.52264e-06
2.26866e-07
-1.04119e-06
1.32699e-07
2.24727e-07
-1.87629e-06
2.21269e-07
5.29546e-07
-2.8263e-06
3.25739e-07
8.57733e-07
-3.04914e-06
3.5275e-07
1.15661e-06
-2.98666e-06
3.60657e-07
1.43117e-06
-2.84609e-06
3.57901e-07
1.6377e-06
-2.59339e-06
3.76701e-07
1.79724e-06
-2.34464e-06
3.73618e-07
1.86578e-06
-2.00425e-06
4.02017e-07
1.87801e-06
-1.70845e-06
3.98662e-07
1.79281e-06
-1.35148e-06
4.3143e-07
1.65483e-06
-1.07386e-06
4.28948e-07
1.43406e-06
-7.76905e-07
4.58857e-07
1.17522e-06
-5.71353e-07
4.57176e-07
8.67948e-07
-3.91894e-07
4.74354e-07
5.43236e-07
-2.88445e-07
4.72933e-07
2.15655e-07
-2.55556e-07
4.71013e-07
-1.07844e-07
-2.63204e-07
4.70946e-07
-3.90912e-07
-3.75434e-07
4.51984e-07
-6.49962e-07
-4.85751e-07
4.52991e-07
-8.35879e-07
-7.13584e-07
4.21741e-07
-9.83675e-07
-8.97527e-07
4.23453e-07
-1.04478e-06
-1.18516e-06
3.89271e-07
-1.06428e-06
-1.39246e-06
3.9216e-07
-1.00333e-06
-1.66808e-06
3.62044e-07
-9.07904e-07
-1.83918e-06
3.65035e-07
-7.53326e-07
-2.03873e-06
3.4322e-07
-5.79102e-07
-2.12565e-06
3.45163e-07
-3.7599e-07
-2.1783e-06
3.26815e-07
-1.69807e-07
-2.02023e-06
2.91414e-07
-1.38758e-06
1.76583e-07
2.57843e-07
-2.38786e-06
2.53731e-07
6.26138e-07
-3.57672e-06
3.82131e-07
1.00755e-06
-3.83836e-06
4.07806e-07
1.35571e-06
-3.75536e-06
4.2054e-07
1.6666e-06
-3.57123e-06
4.14247e-07
1.89693e-06
-3.25961e-06
4.35894e-07
2.06899e-06
-2.94606e-06
4.29362e-07
2.13619e-06
-2.52975e-06
4.58299e-07
2.13788e-06
-2.16026e-06
4.50124e-07
2.02994e-06
-1.72532e-06
4.81784e-07
1.86322e-06
-1.3812e-06
4.74074e-07
1.60552e-06
-1.02143e-06
5.0222e-07
1.30678e-06
-7.69676e-07
4.97069e-07
9.56036e-07
-5.5384e-07
5.12689e-07
5.86544e-07
-4.30537e-07
5.11585e-07
2.15085e-07
-3.92525e-07
5.08427e-07
-1.52947e-07
-4.07739e-07
5.12568e-07
-4.75862e-07
-5.45297e-07
4.92779e-07
-7.73492e-07
-6.88442e-07
5.00321e-07
-9.8931e-07
-9.66183e-07
4.68417e-07
-1.16255e-06
-1.20105e-06
4.76762e-07
-1.23772e-06
-1.55172e-06
4.41727e-07
-1.26399e-06
-1.81574e-06
4.49555e-07
-1.19749e-06
-2.15237e-06
4.17776e-07
-1.08784e-06
-2.37187e-06
4.23043e-07
-9.07303e-07
-2.61815e-06
3.98877e-07
-6.98963e-07
-2.73563e-06
4.01635e-07
-4.5378e-07
-2.80539e-06
3.81904e-07
-2.03164e-07
-2.61371e-06
3.42856e-07
-1.8009e-06
2.10161e-07
3.3852e-07
-3.05961e-06
3.3323e-07
8.03633e-07
-4.53276e-06
4.90927e-07
1.28123e-06
-4.84234e-06
5.26382e-07
1.70992e-06
-4.73057e-06
5.4652e-07
2.08863e-06
-4.50015e-06
5.50217e-07
2.3658e-06
-4.12528e-06
5.88506e-07
2.56834e-06
-3.74324e-06
5.9463e-07
2.64138e-06
-3.2488e-06
6.46018e-07
2.63073e-06
-2.80066e-06
6.51039e-07
2.48459e-06
-2.28697e-06
7.07787e-07
2.26365e-06
-1.87225e-06
7.11997e-07
1.93004e-06
-1.45049e-06
7.6267e-07
1.54561e-06
-1.15044e-06
7.65188e-07
1.09722e-06
-8.99499e-07
7.94048e-07
6.27522e-07
-7.5531e-07
7.94473e-07
1.56417e-07
-7.12493e-07
7.91073e-07
-3.07607e-07
-7.35493e-07
7.91779e-07
-7.14278e-07
-8.9791e-07
7.59284e-07
-1.08546e-06
-1.07505e-06
7.57797e-07
-1.35383e-06
-1.4015e-06
7.0369e-07
-1.56528e-06
-1.68919e-06
6.99598e-07
-1.65463e-06
-2.10179e-06
6.39417e-07
-1.67972e-06
-2.4246e-06
6.33952e-07
-1.58993e-06
-2.8211e-06
5.78947e-07
-1.44299e-06
-3.09057e-06
5.71753e-07
-1.207e-06
-3.38334e-06
5.29203e-07
-9.31334e-07
-3.53377e-06
5.22477e-07
-6.06658e-07
-3.62183e-06
4.91766e-07
-2.72355e-07
-3.39082e-06
4.42812e-07
-2.35197e-06
2.78711e-07
4.09448e-07
-3.87165e-06
4.02584e-07
9.70645e-07
-5.68545e-06
5.91491e-07
1.53517e-06
-6.04136e-06
6.34497e-07
2.03605e-06
-5.89421e-06
6.62755e-07
2.46789e-06
-5.60494e-06
6.72953e-07
2.7786e-06
-5.15762e-06
7.21625e-07
2.99624e-06
-4.69432e-06
7.33436e-07
3.06381e-06
-4.10963e-06
7.9326e-07
3.03145e-06
-3.56896e-06
8.00658e-07
2.8459e-06
-2.96412e-06
8.62696e-07
2.57557e-06
-2.46782e-06
8.65887e-07
2.18224e-06
-1.97583e-06
9.18678e-07
1.73488e-06
-1.62232e-06
9.19239e-07
1.21979e-06
-1.33282e-06
9.48411e-07
6.82095e-07
-1.16772e-06
9.501e-07
1.44249e-07
-1.12048e-06
9.45833e-07
-3.86974e-07
-1.15599e-06
9.51718e-07
-8.5472e-07
-1.34681e-06
9.16647e-07
-1.28489e-06
-1.56591e-06
9.21031e-07
-1.60098e-06
-1.94729e-06
8.61883e-07
-1.85267e-06
-2.29795e-06
8.60443e-07
-1.96629e-06
-2.78047e-06
7.92297e-07
-2.00328e-06
-3.17232e-06
7.84705e-07
-1.90738e-06
-3.63621e-06
7.19212e-07
-1.7401e-06
-3.96336e-06
7.05502e-07
-1.46605e-06
-4.30852e-06
6.5114e-07
-1.13727e-06
-4.49877e-06
6.36217e-07
-7.44105e-07
-4.6113e-06
5.96308e-07
-3.33782e-07
-4.33779e-06
5.36643e-07
-3.02714e-06
3.41388e-07
5.29203e-07
-4.92062e-06
5.19774e-07
1.23551e-06
-7.14922e-06
7.57469e-07
1.93449e-06
-7.56095e-06
8.2061e-07
2.54666e-06
-7.37937e-06
8.73002e-07
3.06844e-06
-7.0359e-06
9.09176e-07
3.44132e-06
-6.52475e-06
9.94244e-07
3.69658e-06
-5.98755e-06
1.03797e-06
3.76816e-06
-5.32368e-06
1.14247e-06
3.71218e-06
-4.69822e-06
1.18524e-06
3.46845e-06
-4.01557e-06
1.29519e-06
3.11775e-06
-3.44796e-06
1.33085e-06
2.61773e-06
-2.90067e-06
1.42485e-06
2.05183e-06
-2.50428e-06
1.44786e-06
1.40483e-06
-2.1873e-06
1.50149e-06
7.32387e-07
-2.00644e-06
1.51117e-06
6.07777e-08
-1.95676e-06
1.50789e-06
-5.99267e-07
-2.00297e-06
1.50703e-06
-1.18073e-06
-2.21414e-06
1.44879e-06
-1.71104e-06
-2.46584e-06
1.43023e-06
-2.10117e-06
-2.88642e-06
1.32926e-06
-2.40721e-06
-3.28658e-06
1.29468e-06
-2.54399e-06
-3.8213e-06
1.17761e-06
-2.58164e-06
-4.26881e-06
1.13414e-06
-2.45715e-06
-4.78326e-06
1.02255e-06
-2.24142e-06
-5.15533e-06
9.76238e-07
-1.89509e-06
-5.53863e-06
8.8378e-07
-1.47582e-06
-5.75991e-06
8.41875e-07
-9.71725e-07
-5.89057e-06
7.75175e-07
-4.38723e-07
-5.56344e-06
6.9265e-07
-3.913e-06
4.47141e-07
6.53521e-07
-6.21478e-06
6.40634e-07
1.50809e-06
-8.9368e-06
9.33011e-07
2.33589e-06
-9.41113e-06
1.02237e-06
3.05177e-06
-9.19933e-06
1.10407e-06
3.6512e-06
-8.80688e-06
1.17155e-06
4.07443e-06
-8.24082e-06
1.29286e-06
4.35077e-06
-7.63582e-06
1.37193e-06
4.4106e-06
-6.89972e-06
1.51621e-06
4.314e-06
-6.19682e-06
1.5952e-06
4.00281e-06
-5.44614e-06
1.74176e-06
3.56887e-06
-4.81896e-06
1.80493e-06
2.97372e-06
-4.23012e-06
1.92461e-06
2.31046e-06
-3.80524e-06
1.96423e-06
1.56343e-06
-3.4731e-06
2.03281e-06
7.9002e-07
-3.28616e-06
2.05313e-06
1.91438e-08
-3.23833e-06
2.05244e-06
-7.38682e-07
-3.29685e-06
2.0517e-06
-1.41007e-06
-3.52147e-06
1.97873e-06
-2.02642e-06
-3.79654e-06
1.94705e-06
-2.48923e-06
-4.24006e-06
1.81646e-06
-2.85593e-06
-4.67404e-06
1.75416e-06
-3.03093e-06
-5.24277e-06
1.59647e-06
-3.08495e-06
-5.73017e-06
1.51538e-06
-2.94949e-06
-6.27956e-06
1.36084e-06
-2.70002e-06
-6.68217e-06
1.27737e-06
-2.29707e-06
-7.08801e-06
1.14643e-06
-1.80071e-06
-7.32737e-06
1.07109e-06
-1.19638e-06
-7.4673e-06
9.72401e-07
-5.45082e-07
-7.07417e-06
8.59439e-07
-5.01534e-06
5.57254e-07
8.27708e-07
-7.85175e-06
8.09262e-07
1.87515e-06
-1.11634e-05
1.17918e-06
2.87211e-06
-1.17208e-05
1.3127e-06
3.73176e-06
-1.15085e-05
1.44955e-06
4.45074e-06
-1.11019e-05
1.57606e-06
4.95892e-06
-1.05217e-05
1.77269e-06
5.28076e-06
-9.8881e-06
1.93044e-06
5.33569e-06
-9.12665e-06
2.172e-06
5.19184e-06
-8.39681e-06
2.34383e-06
4.78954e-06
-7.63549e-06
2.59166e-06
4.23759e-06
-7.00519e-06
2.73817e-06
3.49943e-06
-6.43214e-06
2.94018e-06
2.68382e-06
-6.02902e-06
3.03939e-06
1.77377e-06
-5.72204e-06
3.159e-06
8.34394e-07
-5.5536e-06
3.20681e-06
-1.00289e-07
-5.5161e-06
3.21245e-06
-1.0142e-06
-5.57786e-06
3.19491e-06
-1.8244e-06
-5.78609e-06
3.07483e-06
-2.56455e-06
-6.03965e-06
2.98326e-06
-3.12494e-06
-6.44581e-06
2.76613e-06
-3.56656e-06
-6.84867e-06
2.61625e-06
-3.77972e-06
-7.38201e-06
2.35241e-06
-3.83912e-06
-7.84618e-06
2.1754e-06
-3.66672e-06
-8.37194e-06
1.91998e-06
-3.34927e-06
-8.75558e-06
1.75597e-06
-2.85006e-06
-9.13482e-06
1.5476e-06
-2.23982e-06
-9.34914e-06
1.41153e-06
-1.50189e-06
-9.46042e-06
1.25518e-06
-6.94555e-07
-8.97516e-06
1.09366e-06
-6.42097e-06
7.11075e-07
1.01371e-06
-9.85302e-06
9.87562e-07
2.2482e-06
-1.38371e-05
1.43922e-06
3.40579e-06
-1.45025e-05
1.62416e-06
4.41135e-06
-1.43385e-05
1.82438e-06
5.25076e-06
-1.39637e-05
2.02234e-06
5.8371e-06
-1.34134e-05
2.30534e-06
6.18008e-06
-1.27927e-05
2.56158e-06
6.19796e-06
-1.20565e-05
2.91197e-06
5.97107e-06
-1.13618e-05
3.19192e-06
5.45257e-06
-1.06562e-05
3.53919e-06
4.76945e-06
-1.00919e-05
3.76983e-06
3.89645e-06
-9.60023e-06
4.0411e-06
2.95372e-06
-9.28092e-06
4.19463e-06
1.92029e-06
-9.0468e-06
4.35819e-06
8.58265e-07
-8.92997e-06
4.43839e-06
-1.94261e-07
-8.91784e-06
4.45427e-06
-1.21912e-06
-8.97593e-06
4.42293e-06
-2.13189e-06
-9.1367e-06
4.26337e-06
-2.97334e-06
-9.31508e-06
4.11689e-06
-3.62889e-06
-9.61265e-06
3.82238e-06
-4.15766e-06
-9.90136e-06
3.58145e-06
-4.43535e-06
-1.03142e-05
3.20992e-06
-4.52698e-06
-1.06732e-05
2.9187e-06
-4.33945e-06
-1.11088e-05
2.54936e-06
-3.96102e-06
-1.14175e-05
2.28352e-06
-3.36644e-06
-1.17165e-05
1.98714e-06
-2.64644e-06
-1.18479e-05
1.77874e-06
-1.79321e-06
-1.18719e-05
1.55826e-06
-8.48042e-07
-1.12617e-05
1.34141e-06
-8.14214e-06
8.73123e-07
1.21124e-06
-1.22375e-05
1.17327e-06
2.62459e-06
-1.69491e-05
1.69862e-06
3.94689e-06
-1.7757e-05
1.93217e-06
5.12424e-06
-1.77247e-05
2.20889e-06
6.10808e-06
-1.7444e-05
2.4965e-06
6.77336e-06
-1.69778e-05
2.89914e-06
7.11633e-06
-1.64212e-05
3.28556e-06
7.06167e-06
-1.57841e-05
3.78221e-06
6.71886e-06
-1.52133e-05
4.19431e-06
6.05592e-06
-1.46588e-05
4.66554e-06
5.22537e-06
-1.42538e-05
4.99253e-06
4.20964e-06
-1.39315e-05
5.34699e-06
3.14303e-06
-1.3776e-05
5.5617e-06
1.9952e-06
-1.36749e-05
5.77591e-06
8.26735e-07
-1.36505e-05
5.88902e-06
-3.22075e-07
-1.36842e-05
5.91514e-06
-1.43442e-06
-1.37301e-05
5.86657e-06
-2.42841e-06
-1.38013e-05
5.65865e-06
-3.35659e-06
-1.38336e-05
5.44668e-06
-4.10199e-06
-1.39253e-05
5.05805e-06
-4.72698e-06
-1.39863e-05
4.70996e-06
-5.08614e-06
-1.41587e-05
4.20367e-06
-5.23361e-06
-1.42982e-05
3.77247e-06
-5.04463e-06
-1.45481e-05
3.25034e-06
-4.59886e-06
-1.4714e-05
2.85065e-06
-3.88189e-06
-1.48677e-05
2.43415e-06
-3.02631e-06
-1.48418e-05
2.13836e-06
-2.06139e-06
-1.46821e-05
1.84527e-06
-1.00079e-06
-1.39022e-05
1.57985e-06
-1.01782e-05
1.03531e-06
1.35223e-06
-1.48874e-05
1.29768e-06
2.8675e-06
-2.02916e-05
1.82723e-06
4.30916e-06
-2.12759e-05
2.07727e-06
5.62624e-06
-2.14573e-05
2.41555e-06
6.69226e-06
-2.12984e-05
2.78841e-06
7.33652e-06
-2.09192e-05
3.29716e-06
7.56174e-06
-2.04355e-05
3.78909e-06
7.33399e-06
-1.99324e-05
4.37615e-06
6.80932e-06
-1.9541e-05
4.85236e-06
5.98535e-06
-1.91942e-05
5.35947e-06
5.03703e-06
-1.90073e-05
5.7018e-06
3.95918e-06
-1.89084e-05
6.05484e-06
2.89052e-06
-1.89712e-05
6.2639e-06
1.78569e-06
-1.9043e-05
6.473e-06
6.94561e-07
-1.91482e-05
6.58884e-06
-3.53601e-07
-1.92546e-05
6.61862e-06
-1.36807e-06
-1.92888e-05
6.57314e-06
-2.29021e-06
-1.92434e-05
6.36429e-06
-3.19363e-06
-1.908e-05
6.14989e-06
-3.97023e-06
-1.88981e-05
5.74948e-06
-4.68264e-06
-1.86484e-05
5.37449e-06
-5.16671e-06
-1.84948e-05
4.82021e-06
-5.45109e-06
-1.83287e-05
4.3149e-06
-5.36103e-06
-1.83322e-05
3.69406e-06
-4.93487e-06
-1.83238e-05
3.18366e-06
-4.14797e-06
-1.83165e-05
2.66199e-06
-3.18662e-06
-1.80908e-05
2.28762e-06
-2.16317e-06
-1.76508e-05
1.94531e-06
-1.07997e-06
-1.6657e-05
1.67163e-06
-1.23837e-05
1.12554e-06
1.28297e-06
-1.73768e-05
1.20642e-06
2.71883e-06
-2.33251e-05
1.59764e-06
4.15091e-06
-2.45241e-05
1.81611e-06
5.45419e-06
-2.49588e-05
2.19827e-06
6.40235e-06
-2.4879e-05
2.63247e-06
6.80992e-06
-2.45282e-05
3.2015e-06
6.74721e-06
-2.40847e-05
3.71202e-06
6.25071e-06
-2.37169e-05
4.28106e-06
5.53734e-06
-2.35178e-05
4.69023e-06
4.62378e-06
-2.34002e-05
5.11958e-06
3.69931e-06
-2.34518e-05
5.36912e-06
2.75228e-06
-2.36032e-05
5.64196e-06
1.91552e-06
-2.39096e-05
5.77533e-06
1.12377e-06
-2.4177e-05
5.92596e-06
4.21339e-07
-2.44495e-05
6.00391e-06
-1.98431e-07
-2.46577e-05
6.02308e-06
-8.1031e-07
-2.46792e-05
6.0025e-06
-1.39973e-06
-2.44884e-05
5.83451e-06
-2.06831e-06
-2.40971e-05
5.68581e-06
-2.71957e-06
-2.35989e-05
5.35218e-06
-3.4309e-06
-2.29962e-05
5.0593e-06
-4.02204e-06
-2.24717e-05
4.56813e-06
-4.50782e-06
-2.19586e-05
4.11569e-06
-4.65162e-06
-2.16866e-05
3.49818e-06
-4.42765e-06
-2.15063e-05
2.95865e-06
-3.7419e-06
-2.13759e-05
2.37367e-06
-2.80644e-06
-2.09737e-05
1.94751e-06
-1.84226e-06
-2.01991e-05
1.58413e-06
-9.24089e-07
-1.89368e-05
1.3616e-06
-1.42804e-05
9.7261e-07
8.05895e-07
-1.88921e-05
7.09479e-07
1.84752e-06
-2.5147e-05
7.80347e-07
3.012e-06
-2.66397e-05
9.51259e-07
3.96658e-06
-2.72742e-05
1.36091e-06
4.43195e-06
-2.71577e-05
1.81343e-06
4.29844e-06
-2.67385e-05
2.34397e-06
3.78193e-06
-2.63089e-05
2.74084e-06
3.0023e-06
-2.60676e-05
3.13049e-06
2.21158e-06
-2.60572e-05
3.33033e-06
1.42588e-06
-2.61728e-05
3.55852e-06
8.05057e-07
-2.64655e-05
3.63475e-06
3.10056e-07
-2.68741e-05
3.76615e-06
3.78598e-08
-2.74218e-05
3.78468e-06
-8.81953e-08
-2.789e-05
3.83929e-06
-1.61278e-08
-2.83701e-05
3.84878e-06
1.88875e-07
-2.8699e-05
3.83659e-06
3.55185e-07
-2.86968e-05
3.85151e-06
4.36834e-07
-2.83191e-05
3.74932e-06
3.0572e-07
-2.76743e-05
3.70856e-06
4.11311e-08
-2.68437e-05
3.50966e-06
-4.61202e-07
-2.58804e-05
3.3867e-06
-1.03387e-06
-2.49815e-05
3.08266e-06
-1.69611e-06
-2.41158e-05
2.81962e-06
-2.18134e-06
-2.35583e-05
2.35709e-06
-2.39492e-06
-2.32041e-05
1.91149e-06
-2.11459e-06
-2.30105e-05
1.35434e-06
-1.49296e-06
-2.25131e-05
9.17831e-07
-8.05378e-07
-2.14428e-05
5.56194e-07
-3.46616e-07
-1.98076e-05
4.12105e-07
-1.50061e-05
3.79121e-07
-3.83214e-07
-1.80273e-05
-4.81477e-07
-3.40807e-07
-2.42957e-05
-8.93477e-07
1.90635e-08
-2.62646e-05
-7.34753e-07
6.42925e-08
-2.69908e-05
-3.28425e-07
-3.74777e-07
-2.67686e-05
5.029e-08
-1.24017e-06
-2.62736e-05
4.00771e-07
-2.1483e-06
-2.59333e-05
5.32884e-07
-2.95637e-06
-2.58724e-05
6.13241e-07
-3.44967e-06
-2.60869e-05
5.23413e-07
-3.67323e-06
-2.64677e-05
5.18847e-07
-3.55074e-06
-2.70164e-05
4.28809e-07
-3.18555e-06
-2.76874e-05
4.48431e-07
-2.54048e-06
-2.84529e-05
3.86379e-07
-1.69305e-06
-2.91044e-05
3.67326e-07
-5.65719e-07
-2.98081e-05
3.11105e-07
7.23126e-07
-3.02295e-05
2.42056e-07
1.93319e-06
-3.0178e-05
2.71596e-07
2.97654e-06
-2.95659e-05
2.03894e-07
3.7032e-06
-2.86491e-05
2.48537e-07
4.18306e-06
-2.74936e-05
1.70406e-07
4.25974e-06
-2.61867e-05
2.29988e-07
4.0529e-06
-2.49305e-05
1.56138e-07
3.48328e-06
-2.37138e-05
1.67988e-07
2.77628e-06
-2.28338e-05
-1.71387e-08
2.02722e-06
-2.22257e-05
-2.29038e-07
1.58444e-06
-2.19353e-05
-6.32151e-07
1.4369e-06
-2.13701e-05
-9.95177e-07
1.402e-06
-2.00929e-05
-1.31478e-06
8.73479e-07
-1.78678e-05
-1.41112e-06
-1.32322e-05
-9.00278e-07
-2.1462e-06
-1.36833e-05
-2.19757e-06
-3.79617e-06
-1.94678e-05
-3.17754e-06
-4.88841e-06
-2.21888e-05
-2.98314e-06
-6.17911e-06
-2.30552e-05
-2.64438e-06
-7.59552e-06
-2.29235e-05
-2.42826e-06
-8.96104e-06
-2.25784e-05
-2.32922e-06
-9.85582e-06
-2.25661e-05
-2.47195e-06
-1.02105e-05
-2.28474e-05
-2.6698e-06
-9.94066e-06
-2.34002e-05
-2.95606e-06
-9.19303e-06
-2.41255e-05
-3.08933e-06
-8.01407e-06
-2.49718e-05
-3.22311e-06
-6.58304e-06
-2.59074e-05
-3.21052e-06
-4.94477e-06
-2.68306e-05
-3.26002e-06
-3.16792e-06
-2.75932e-05
-3.28744e-06
-1.16314e-06
-2.84261e-05
-3.38624e-06
9.49209e-07
-2.87925e-05
-3.54882e-06
3.00785e-06
-2.86711e-05
-3.56496e-06
4.94515e-06
-2.78352e-05
-3.66748e-06
6.5893e-06
-2.66746e-05
-3.61808e-06
8.00761e-06
-2.52559e-05
-3.65555e-06
8.98054e-06
-2.36608e-05
-3.49832e-06
9.54207e-06
-2.20856e-05
-3.40594e-06
9.51368e-06
-2.05158e-05
-3.16916e-06
8.99225e-06
-1.92378e-05
-3.07418e-06
7.98903e-06
-1.82081e-05
-3.01397e-06
6.8428e-06
-1.76133e-05
-3.17531e-06
5.6236e-06
-1.6803e-05
-3.34754e-06
4.34606e-06
-1.52592e-05
-3.55587e-06
2.34105e-06
-1.22193e-05
-3.64311e-06
-8.39081e-06
-2.50017e-06
-3.75335e-06
-6.25016e-06
-3.6795e-06
-7.47201e-06
-1.05969e-05
-5.1519e-06
-1.05728e-05
-1.40223e-05
-5.06519e-06
-1.33952e-05
-1.5246e-05
-4.98628e-06
-1.55266e-05
-1.57083e-05
-5.08314e-06
-1.68734e-05
-1.59431e-05
-5.28798e-06
-1.72278e-05
-1.65385e-05
-5.67256e-06
-1.66887e-05
-1.73402e-05
-6.04577e-06
-1.53506e-05
-1.83331e-05
-6.40465e-06
-1.34691e-05
-1.94757e-05
-6.53082e-06
-1.11942e-05
-2.06518e-05
-6.59426e-06
-8.76635e-06
-2.1851e-05
-6.48369e-06
-6.31969e-06
-2.28442e-05
-6.43245e-06
-3.94126e-06
-2.35905e-05
-6.38059e-06
-1.64256e-06
-2.4253e-05
-6.47118e-06
5.4246e-07
-2.42544e-05
-6.72245e-06
2.79337e-06
-2.40863e-05
-6.83509e-06
5.19039e-06
-2.32093e-05
-7.02226e-06
7.49999e-06
-2.19422e-05
-7.04142e-06
9.76446e-06
-2.03988e-05
-7.12099e-06
1.17038e-05
-1.86429e-05
-6.95671e-06
1.32535e-05
-1.68427e-05
-6.79213e-06
1.41208e-05
-1.49887e-05
-6.39397e-06
1.42248e-05
-1.33015e-05
-6.03982e-06
1.34029e-05
-1.17435e-05
-5.64231e-06
1.1761e-05
-1.05676e-05
-5.40341e-06
9.29287e-06
-9.17339e-06
-5.16106e-06
6.36831e-06
-7.27579e-06
-5.05853e-06
2.96887e-06
-3.87067e-06
-4.94907e-06
-2.09786e-06
-3.32399e-06
-2.82355e-06
-8.4242e-07
-2.58416e-06
-7.33811e-06
-2.14068e-06
-3.94152e-06
-1.19107e-05
-5.15548e-06
-4.29398e-06
-1.57526e-05
-6.57732e-06
-4.82638e-06
-1.81647e-05
-7.87433e-06
-5.42155e-06
-1.91403e-05
-8.90824e-06
-6.05889e-06
-1.88546e-05
-1.0133e-05
-6.6908e-06
-1.75825e-05
-1.14477e-05
-7.16419e-06
-1.55718e-05
-1.28709e-05
-7.47237e-06
-1.31353e-05
-1.44583e-05
-7.45343e-06
-1.04685e-05
-1.60173e-05
-7.30073e-06
-7.82768e-06
-1.75354e-05
-6.95577e-06
-5.40161e-06
-1.85957e-05
-6.67397e-06
-3.34329e-06
-1.92268e-05
-6.42137e-06
-1.96422e-06
-1.92046e-05
-6.42681e-06
-1.09396e-06
-1.84744e-05
-6.64962e-06
4.19533e-08
-1.83411e-05
-6.88051e-06
1.84981e-06
-1.78459e-05
-7.1706e-06
3.97719e-06
-1.67148e-05
-7.35419e-06
6.36428e-06
-1.51801e-05
-7.60521e-06
8.68437e-06
-1.33839e-05
-7.57857e-06
1.07721e-05
-1.14654e-05
-7.46454e-06
1.22692e-05
-9.5056e-06
-6.97975e-06
1.29366e-05
-7.61366e-06
-6.35494e-06
1.24607e-05
-5.76195e-06
-5.50537e-06
1.06394e-05
-4.10915e-06
-4.63698e-06
7.57256e-06
-2.278e-06
-3.82848e-06
3.93141e-06
-5.59426e-07
-3.0752e-06
8.73522e-07
1.73867e-06
-2.55146e-06
1.0307e-07
-1.32741e-06
1.28586e-06
-3.74577e-06
1.61764e-06
-1.62023e-06
-7.34572e-07
1.50002e-06
-5.96252e-06
-1.49811e-06
6.84976e-07
-9.49146e-06
-2.29142e-06
-7.56878e-07
-1.17162e-05
-3.44232e-06
-2.2071e-06
-1.24965e-05
-4.47738e-06
-3.6504e-06
-1.21616e-05
-5.59622e-06
-4.87152e-06
-1.10147e-05
-6.88679e-06
-5.70749e-06
-9.37936e-06
-8.37015e-06
-6.13568e-06
-7.58473e-06
-1.01869e-05
-6.06563e-06
-5.82212e-06
-1.20771e-05
-5.70223e-06
-4.28148e-06
-1.39916e-05
-5.08382e-06
-3.0402e-06
-1.5357e-05
-4.47932e-06
-2.34003e-06
-1.60366e-05
-3.88963e-06
-2.74334e-06
-1.52082e-05
-3.59236e-06
-3.6036e-06
-1.42399e-05
-3.37358e-06
-4.13376e-06
-1.41293e-05
-3.68096e-06
-3.77628e-06
-1.4062e-05
-4.14074e-06
-2.78518e-06
-1.30965e-05
-4.60882e-06
-1.36011e-06
-1.14945e-05
-5.11015e-06
2.50021e-07
-9.70068e-06
-5.29293e-06
1.86175e-06
-7.83933e-06
-5.23752e-06
3.15897e-06
-6.18175e-06
-4.62082e-06
3.85757e-06
-4.67878e-06
-3.63328e-06
3.65918e-06
-3.37894e-06
-2.1845e-06
2.30534e-06
-2.18953e-06
-5.65694e-07
9.1854e-08
-1.04196e-06
9.77468e-07
-2.45946e-06
-4.20033e-07
2.41194e-06
-3.18833e-06
-6.96407e-07
3.16389e-06
-5.90896e-06
2.82389e-06
5.38868e-06
-1.4829e-05
5.6949e-06
5.90175e-06
-8.70951e-06
7.46208e-06
3.93141e-06
-6.38577e-06
6.85819e-06
2.28102e-06
-5.72691e-06
5.08605e-06
1.20126e-06
-5.45207e-06
3.08968e-06
9.91657e-07
-5.42757e-06
1.15998e-06
1.44696e-06
-5.60803e-06
-4.43303e-07
2.3133e-06
-6.24031e-06
-1.51259e-06
3.15788e-06
-7.23479e-06
-1.97967e-06
3.51333e-06
-8.74972e-06
-1.79227e-06
3.10498e-06
-1.05914e-05
-1.07694e-06
1.84945e-06
-1.27487e-05
1.31118e-08
9.51616e-09
-1.47707e-05
1.25427e-06
-2.36501e-06
-1.62273e-05
2.5658e-06
-4.8848e-06
-1.64176e-05
3.72982e-06
-6.132e-06
-1.78735e-05
4.88144e-06
-7.47008e-06
-1.71733e-05
4.38267e-06
-9.11134e-06
-1.56659e-05
3.2457e-06
-1.02842e-05
-1.40013e-05
2.07819e-06
-1.08648e-05
-1.18799e-05
9.66317e-07
-1.083e-05
-1.0001e-05
2.6584e-07
-1.02849e-05
-8.345e-06
-3.9071e-08
-9.48607e-06
-7.29616e-06
3.158e-07
-8.72426e-06
-6.60852e-06
1.16814e-06
-8.23718e-06
-6.44785e-06
2.58202e-06
-8.19791e-06
-6.47603e-06
4.24742e-06
-8.33915e-06
-6.89119e-06
5.99065e-06
-8.42242e-06
-7.78014e-06
7.44357e-06
-6.12737e-06
-1.08566e-05
7.86532e-06
-1.79299e-05
5.89393e-06
5.86168e-06
-2.68131e-05
6.12277e-06
8.3701e-06
-1.98982e-05
8.68052e-06
8.49688e-06
-1.51136e-05
8.60133e-06
8.40118e-06
-1.29645e-05
7.33357e-06
8.49693e-06
-1.12155e-05
5.66795e-06
9.21359e-06
-1.01332e-05
3.98914e-06
1.04941e-05
-9.3944e-06
2.50611e-06
1.20893e-05
-9.28985e-06
1.4545e-06
1.33633e-05
-9.57394e-06
1.06546e-06
1.35004e-05
-1.03618e-05
1.47518e-06
1.18554e-05
-1.16148e-05
2.66868e-06
8.23356e-06
-1.34462e-05
4.31967e-06
3.13089e-06
-1.58842e-05
6.21658e-06
-2.53567e-06
-1.86716e-05
8.11135e-06
-6.26183e-06
-2.26053e-05
9.91432e-06
-6.06043e-06
-2.94526e-05
1.13782e-05
-6.61739e-06
-2.75126e-05
1.08968e-05
-9.72023e-06
-2.1909e-05
9.34638e-06
-1.29597e-05
-1.84537e-05
7.69228e-06
-1.5279e-05
-1.55988e-05
6.03852e-06
-1.63345e-05
-1.36992e-05
4.75411e-06
-1.6219e-05
-1.23331e-05
3.87287e-06
-1.53442e-05
-1.1826e-05
3.65535e-06
-1.41464e-05
-1.17636e-05
3.95745e-06
-1.29567e-05
-1.2422e-05
4.78471e-06
-1.19152e-05
-1.3357e-05
5.83976e-06
-1.0784e-05
-1.5037e-05
7.01487e-06
-9.25236e-06
-1.71725e-05
7.86096e-06
-5.74242e-06
-2.21836e-05
7.81735e-06
-2.92487e-05
5.57678e-06
3.47353e-06
-3.40211e-05
3.7348e-06
5.53721e-06
-2.75205e-05
5.55891e-06
6.15391e-06
-2.17281e-05
5.99803e-06
6.52735e-06
-1.90373e-05
5.69955e-06
7.29658e-06
-1.67998e-05
4.81528e-06
8.99113e-06
-1.53638e-05
3.5363e-06
1.16802e-05
-1.42096e-05
2.12632e-06
1.50362e-05
-1.37043e-05
1.05865e-06
1.81838e-05
-1.36171e-05
8.95798e-07
1.99354e-05
-1.40196e-05