/*--------------------------------*- C++ -*----------------------------------*\
| =========                 |                                                 |
| \\      /  F ield         | OpenFOAM: The Open Source CFD Toolbox           |
|  \\    /   O peration     | Version:  v1912                                 |
|   \\  /    A nd           | Website:  www.openfoam.com                      |
|    \\/     M anipulation  |                                                 |
\*---------------------------------------------------------------------------*/
FoamFile
{
    version     2.0;
    format      ascii;
    class       volScalarField;
    location    "288/oil";
    object      heatTransferCoeff(T);
}
// * * * * * * * * * * * * * * * * * * * * * * * * * * * * * * * * * * * * * //

dimensions      [1 0 -3 -1 0 0 0];


internalField   uniform 0;

boundaryField
{
    maxY
    {
        type            calculated;
        value           uniform 0;
    }
    minX
    {
        type            calculated;
        value           uniform 0;
    }
    maxX
    {
        type            calculated;
        value           uniform 0;
    }
    minY
    {
        type            calculated;
        value           uniform 0;
    }
    minZ
    {
        type            calculated;
        value           uniform 0;
    }
    maxZ
    {
        type            calculated;
        value           uniform 0;
    }
    oil_to_sphere
    {
        type            calculated;
        value           nonuniform List<scalar> 
1536
(
-30.7063
-26.0823
-25.9947
-17.5277
-17.2792
-25.8419
-22.1188
-23.6345
-23.079
-18.2421
-14.8614
-18.868
-22.9908
-19.0682
-13.7347
-21.5997
-25.8598
-26.2184
-21.3488
-22.7526
-24.7253
-23.1453
-23.4829
-21.5507
-22.0079
-21.7753
-21.9766
-20.9812
-25.5934
-23.3165
-26.9796
-26.109
-26.2768
-21.6341
-21.912
-21.0103
-21.4281
-20.0617
-20.9299
-21.943
-20.7367
-21.4187
-22.9222
-23.8868
-25.0291
-21.8859
-24.6968
-23.475
-14.0688
-21.7605
-24.2941
-23.1493
-23.3801
-21.5322
-25.4408
-28.6218
-23.4215
-22.7647
-24.6608
-24.2103
-22.8152
-22.9381
-22.7312
-21.4129
-21.8757
-22.6075
-22.7383
-24.4072
-24.3544
-25.4056
-21.3901
-17.347
-18.816
-21.7889
-21.7577
-28.9223
-26.33
-20.1468
-21.6113
-26.0682
-24.7863
-24.12
-17.5283
-17.3998
-25.5689
-29.8254
-16.3845
-22.3466
-24.2245
-24.1969
-23.1068
-21.1623
-21.0941
-21.2998
-21.7578
-23.842
-24.7198
-25.0285
-26.6594
-24.0898
-24.8235
-21.3207
-30.7967
-24.343
-18.6184
-21.6751
-22.044
-17.863
-17.8344
-30.9309
-26.2793
-23.626
-22.9067
-23.5084
-16.8764
-17.3594
-15.9798
-27.7703
-30.2909
-26.5506
-23.284
-23.5058
-20.8776
-24.658
-26.9172
-23.9227
-23.2371
-20.5682
-24.942
-24.621
-22.6317
-24.4367
-25.376
-22.0786
-22.3789
-25.6293
-23.5303
-26.1098
-20.659
-25.9054
-23.1158
-24.5742
-24.6188
-22.9839
-22.4445
-22.8828
-23.8878
-27.7604
-22.6149
-30.9892
-25.2058
-26.0946
-23.4163
-23.6787
-21.7378
-24.0111
-25.5775
-24.7112
-31.7918
-26.879
-26.2653
-28.0109
-19.3478
-20.0892
-21.2257
-21.1347
-25.3365
-27.4553
-26.6214
-28.7448
-20.9853
-21.277
-20.2054
-24.7528
-23.354
-23.749
-29.4253
-19.8959
-18.9481
-29.8126
-21.0023
-20.1438
-19.9801
-20.4094
-24.3842
-29.8425
-26.9182
-20.7641
-19.3113
-26.1451
-19.6201
-25.3442
-25.3268
-27.391
-18.8198
-12.7817
-27.227
-27.8532
-22.11
-21.7073
-23.1804
-22.1581
-26.2327
-27.1777
-25.1105
-24.139
-21.3519
-27.5801
-26.7152
-23.8212
-20.5542
-21.8691
-21.6824
-22.3062
-24.8444
-28.8062
-19.5011
-18.9863
-19.1197
-12.176
-25.8727
-24.766
-24.0794
-23.154
-23.3631
-27.6196
-25.3216
-21.8901
-25.9059
-18.3055
-21.0368
-13.0129
-22.9452
-25.6663
-27.25
-26.794
-25.8731
-24.8956
-26.5198
-18.7889
-19.4487
-20.2732
-27.9471
-20.3456
-12.9894
-16.1311
-24.7854
-23.0222
-29.5704
-31.7837
-23.5952
-17.4147
-12.2836
-24.196
-26.7476
-21.3082
-21.4503
-16.6408
-21.1358
-27.6002
-30.0435
-22.8027
-21.4555
-28.3557
-26.9886
-21.8191
-18.5733
-22.4867
-28.9543
-27.842
-24.9074
-25.3484
-27.0503
-19.9998
-21.6294
-27.3031
-25.3411
-26.1346
-22.9379
-25.9289
-28.6843
-25.0944
-24.7104
-28.1271
-21.3809
-21.3068
-21.7466
-20.897
-21.1978
-27.4615
-29.0796
-19.1411
-22.2559
-22.0129
-22.2129
-20.757
-23.3927
-22.9123
-20.2316
-16.7196
-21.0728
-18.9164
-20.6743
-29.8628
-28.2417
-28.1668
-31.3896
-19.6794
-20.0165
-23.3128
-30.9955
-30.1681
-21.066
-22.9899
-20.8173
-25.2521
-21.5508
-24.6707
-25.057
-26.4001
-25.4577
-21.9603
-25.6461
-21.0124
-27.0844
-27.6861
-26.038
-25.6723
-20.3187
-29.2245
-29.071
-25.243
-18.7026
-21.3351
-22.1792
-25.0795
-24.6196
-25.2759
-20.1724
-27.01
-27.2656
-26.4144
-28.1366
-24.4342
-23.8795
-22.7954
-19.4528
-23.9388
-25.1909
-19.402
-19.058
-19.8835
-30.5292
-26.9391
-28.156
-24.5541
-23.8111
-27.4219
-19.1729
-29.533
-26.3776
-23.8801
-23.8011
-18.888
-26.3849
-26.8282
-20.5129
-23.8857
-22.6741
-21.4819
-25.2789
-26.9321
-22.9205
-21.82
-19.7423
-28.8104
-27.1103
-19.0303
-27.4733
-26.8522
-25.8838
-28.7878
-23.8171
-25.517
-18.1964
-18.833
-25.0486
-31.1389
-26.0959
-29.5872
-24.5294
-22.0845
-26.6355
-19.8992
-20.8603
-24.6917
-26.8477
-25.3507
-24.5902
-20.1041
-20.0507
-27.3323
-27.19
-27.1257
-23.7413
-21.1939
-24.749
-25.6739
-26.7682
-24.0026
-22.4017
-20.4176
-23.588
-19.692
-17.8804
-21.2736
-20.45
-23.6472
-18.2537
-22.1287
-29.3068
-22.0252
-21.9688
-26.8083
-26.7383
-25.166
-22.6959
-19.3278
-26.0462
-28.1907
-24.9486
-24.0773
-26.1887
-23.0274
-23.4888
-24.4776
-17.4876
-24.9869
-27.26
-28.1227
-26.6104
-25.5869
-25.3469
-24.0398
-22.5179
-19.9015
-23.2889
-20.3822
-18.8978
-20.7926
-17.8238
-30.0055
-29.3761
-27.6999
-30.8589
-19.9342
-30.048
-20.1217
-21.0222
-25.8296
-19.6503
-19.986
-22.1826
-21.9909
-29.5387
-28.2364
-24.4886
-24.8302
-28.7298
-27.3677
-23.9843
-25.6476
-20.6085
-26.8513
-18.6803
-28.0743
-17.4422
-25.5067
-26.052
-26.624
-21.93
-19.7956
-22.5933
-26.7633
-22.8107
-18.3604
-26.8576
-27.1926
-27.8785
-31.3015
-24.1049
-28.5269
-19.6364
-20.224
-14.2911
-16.0941
-23.924
-22.1368
-21.5581
-20.8075
-30.3636
-20.2825
-19.1401
-18.4841
-22.2889
-18.3954
-31.7436
-20.6305
-20.9663
-23.3421
-14.9637
-16.5359
-21.3051
-21.1848
-22.905
-21.7928
-27.1586
-26.5892
-25.3708
-23.9345
-17.9401
-21.555
-26.4772
-19.8802
-20.5187
-26.0263
-28.84
-20.6161
-14.329
-19.4421
-14.8578
-23.1965
-21.921
-20.9752
-18.6945
-14.869
-25.3265
-25.9512
-24.6269
-23.1588
-29
-25.4627
-25.0662
-23.8309
-20.2847
-21.6868
-27.1474
-25.4036
-22.3009
-15.9654
-24.1001
-26.3859
-29.2589
-24.2582
-21.45
-29.2367
-23.4906
-28.5817
-20.5483
-21.8569
-19.9432
-22.011
-24.1455
-28.8105
-20.1654
-20.8549
-20.2522
-22.3509
-31.8294
-18.8275
-21.6395
-19.0785
-23.4207
-24.126
-27.2182
-28.9723
-18.1533
-18.7099
-28.9314
-29.5461
-17.0178
-28.714
-27.481
-26.088
-27.382
-25.1065
-23.6408
-23.8531
-28.7878
-23.9783
-25.1591
-23.5865
-26.7907
-24.3059
-23.237
-22.9276
-19.4137
-26.046
-23.2065
-26.7245
-25.5733
-25.6889
-25.3869
-24.0247
-18.847
-27.3105
-27.2939
-25.2531
-23.1868
-24.4026
-30.7768
-18.3663
-20.4618
-19.5614
-24.2237
-20.8967
-30.8128
-22.0598
-22.5394
-23.4754
-14.4371
-15.1233
-21.4497
-21.3516
-23.7827
-19.9345
-20.782
-24.3923
-21.1195
-28.9981
-19.6386
-30.5116
-22.1968
-24.1097
-13.1369
-14.9623
-14.2068
-21.0006
-26.0869
-21.6493
-20.9968
-14.8901
-23.6137
-26.3975
-23.6948
-33.1171
-20.587
-27.1403
-25.2863
-26.2146
-27.5895
-27.4427
-26.2242
-23.3679
-22.4206
-23.2796
-26.2379
-22.7122
-24.6818
-24.2468
-24.6086
-26.6445
-25.4168
-26.04
-19.379
-20.4026
-12.6654
-16.6745
-17.7471
-9.9532
-21.3414
-21.8072
-22.7174
-23.2285
-17.849
-19.4996
-22.2889
-27.8735
-27.4152
-22.2039
-18.4729
-22.9906
-26.5378
-25.2966
-23.4275
-18.176
-20.5832
-25.3131
-24.4587
-23.345
-21.4987
-25.7396
-25.841
-28.8031
-25.8826
-24.0642
-21.8008
-20.705
-19.3091
-21.3781
-22.9541
-31.0704
-23.9239
-29.8857
-20.8303
-31.4738
-21.3265
-22.8674
-19.7082
-20.1847
-21.8341
-19.28
-22.6264
-18.2207
-21.5109
-27.1131
-22.123
-18.9961
-29.1279
-25.6258
-24.7687
-23.0917
-28.7407
-33.6843
-16.7955
-25.4704
-24.5885
-25.1524
-19.2745
-23.1468
-20.799
-24.5884
-25.9949
-27.3613
-20.2701
-25.3
-23.8032
-25.7824
-25.5102
-25.0193
-22.2695
-22.8117
-21.598
-18.4297
-17.93
-19.93
-28.3872
-21.5355
-19.142
-21.662
-27.2082
-22.5581
-28.3674
-26.6
-24.9337
-24.0553
-24.8555
-29.3445
-19.9356
-25.3808
-27.4784
-27.9134
-23.9911
-20.7385
-22.4827
-24.8814
-28.0509
-19.6327
-22.8636
-23.8662
-27.0838
-24.8398
-24.8352
-28.534
-19.7071
-20.9451
-20.3541
-29.3833
-27.3175
-23.8576
-27.0481
-20.9829
-21.527
-27.0306
-24.8296
-28.8127
-20.1333
-26.2924
-26.8656
-24.1804
-24.6184
-26.0372
-20.2608
-17.655
-23.5204
-24.8401
-29.6127
-22.9538
-21.2505
-23.2604
-24.8843
-26.2296
-24.0318
-20.8541
-22.983
-26.814
-19.8138
-20.8103
-22.9741
-21.4453
-24.4511
-24.0316
-27.816
-25.1463
-26.5705
-21.6538
-23.3186
-24.4396
-23.1366
-22.4267
-21.7983
-21.7214
-19.8185
-25.6794
-24.3249
-24.3085
-24.9659
-18.7018
-22.0348
-29.2221
-29.3127
-20.8417
-27.1443
-24.8655
-25.619
-21.6794
-27.9884
-27.6444
-20.0252
-22.5421
-21.9696
-21.7842
-18.6026
-19.5103
-21.9666
-27.5666
-30.9247
-21.2351
-26.0064
-25.6593
-24.7571
-22.7186
-24.4732
-27.7986
-24.4116
-20.1716
-22.0692
-21.6694
-21.916
-25.1649
-25.6742
-25.7096
-25.928
-25.9291
-20.8965
-26.1535
-22.1916
-25.4687
-14.8818
-24.9879
-28.2418
-22.4094
-16.7952
-23.5121
-22.8334
-29.8259
-20.4374
-26.162
-23.2518
-17.5887
-29.0562
-18.9902
-22.8436
-23.5688
-18.6785
-27.1577
-24.4913
-22.7353
-23.9437
-24.4613
-22.8046
-30.0757
-19.1264
-21.8884
-13.7376
-22.3917
-22.4151
-23.7207
-27.1173
-33.9135
-18.3361
-21.9535
-32.3715
-19.0341
-25.8283
-20.7549
-25.6107
-16.479
-20.4766
-32.2148
-17.2881
-31.2823
-18.0367
-29.6061
-17.6987
-20.3779
-14.2883
-19.1806
-31.5588
-15.4399
-23.2454
-17.2809
-28.6227
-31.6176
-15.6951
-22.6004
-21.2698
-20.1777
-20.0127
-21.971
-23.6212
-23.6105
-25.4763
-23.2458
-28.6912
-32.7405
-15.6062
-23.7505
-24.9041
-23.6104
-24.156
-23.0255
-22.4737
-23.0014
-26.4455
-23.1374
-26.5182
-21.8387
-24.3298
-28.2616
-22.3672
-25.3014
-27.1955
-21.8044
-24.3306
-23.2454
-25.4275
-22.8507
-23.9534
-22.4991
-26.9595
-22.1011
-24.7123
-18.0024
-28.9376
-15.8975
-24.8426
-26.8099
-29.0334
-20.531
-24.0854
-23.248
-24.0595
-23.8059
-23.1388
-26.3815
-19.986
-12.6193
-22.7178
-16.8592
-27.4121
-20.6273
-23.512
-25.8805
-13.1725
-28.2198
-19.9108
-14.6998
-20.4449
-25.8394
-25.537
-23.7326
-15.4926
-23.6928
-24.3563
-21.1917
-20.644
-27.5422
-26.9153
-21.592
-23.7817
-27.5664
-15.6213
-26.4457
-20.553
-25.3357
-16.0571
-30.9393
-30.364
-26.8294
-23.6522
-22.5084
-25.7585
-22.3
-15.4258
-19.6457
-25.9898
-20.7596
-25.1533
-16.7487
-27.3077
-25.4079
-10.9038
-23.7271
-24.5479
-13.4859
-28.3128
-17.8767
-27.4669
-28.9862
-26.3214
-14.756
-23.9119
-22.6205
-23.7678
-24.0293
-25.1205
-15.6746
-21.7929
-20.8501
-20.8807
-27.1861
-23.4768
-24.7205
-25.5475
-25.3381
-22.5563
-24.036
-22.7807
-24.6771
-27.6085
-21.5537
-22.3639
-21.3025
-24.0116
-26.7685
-21.5061
-22.2226
-21.8601
-23.5332
-20.8372
-21.1496
-22.1976
-22.514
-23.962
-22.1363
-28.8064
-26.4358
-17.097
-17.2941
-28.233
-9.95611
-26.0832
-24.3303
-20.8505
-22.5413
-28.4717
-13.1906
-27.3228
-24.6925
-15.1119
-21.9396
-21.2187
-23.5942
-12.7498
-28.0869
-24.8883
-13.2773
-27.7357
-27.8849
-16.2175
-29.0697
-26.8999
-16.3338
-21.3037
-20.8689
-13.3008
-23.6123
-24.0939
-19.7943
-20.548
-20.342
-11.3003
-20.4266
-13.064
-10.7732
-27.0342
-21.2392
-31.5552
-21.6182
-15.6153
-28.1342
-22.9269
-14.1218
-21.5573
-21.3615
-14.0225
-17.2691
-28.0973
-8.60698
-19.6876
-19.134
-9.99346
-27.3456
-26.5287
-23.5827
-22.1334
-21.3076
-19.7016
-12.0934
-23.7165
-22.1903
-22.3957
-23.5983
-14.6458
-25.9766
-21.5556
-23.1002
-21.1552
-22.9503
-23.9367
-19.4662
-15.032
-22.0234
-24.2474
-21.4605
-22.1346
-23.2611
-20.528
-22.3346
-14.4743
-21.6107
-24.7208
-21.2203
-22.5735
-20.653
-15.1842
-28.3434
-28.2126
-27.707
-29.1685
-16.1646
-13.5292
-21.7236
-26.2631
-24.0726
-25.7802
-26.4419
-19.6982
-18.7802
-13.7887
-15.7675
-20.4794
-23.1576
-22.8887
-22.6981
-18.8498
-27.0634
-24.6746
-16.4204
-20.2624
-19.5256
-26.351
-20.6004
-12.0753
-23.377
-23.3876
-27.2894
-14.2962
-21.3345
-24.1018
-21.8085
-22.5285
-25.6354
-23.0625
-19.7887
-29.5569
-10.5968
-18.2995
-22.753
-20.5766
-22.0188
-29.061
-24.8418
-23.4912
-18.2984
-28.3184
-21.7438
-23.9334
-26.4259
-27.3007
-26.9507
-27.2698
-28.7618
-29.6989
-28.5649
-28.5792
-23.6739
-26.6492
-21.5365
-22.5281
-18.7549
-17.5827
-11.3786
-29.2359
-28.9534
-27.7001
-22.3181
-23.9638
-23.6844
-20.7057
-24.2125
-26.5732
-19.952
-22.7596
-25.4285
-21.2927
-21.6361
-21.4122
-22.2617
-20.4783
-22.1231
-21.7699
-16.0736
-24.0596
-20.0407
-22.7203
-14.0037
-29.2812
-22.9183
-20.9824
-20.332
-16.5501
-23.4006
-21.1039
-13.343
-18.2041
-22.8065
-17.4664
-18.4746
-29.8751
-30.3553
-21.8202
-21.8544
-25.9926
-28.9759
-13.2274
-20.7693
-20.4871
-22.0392
-22.0137
-22.3698
-23.0075
-18.7324
-15.2811
-28.1513
-21.9191
-17.8751
-18.6481
-21.7963
-23.5064
-16.6434
-22.5745
-20.7243
-21.5324
-29.0506
-18.013
-15.4718
-22.0361
-21.2228
-20.4895
-15.3953
-27.3793
-21.7619
-21.5477
-21.7719
-13.3951
-21.8547
-22.0023
-15.6433
-21.7371
-18.1739
-24.6599
-27.9295
-20.7185
-26.6083
-24.4473
-20.8455
-20.986
-22.143
-15.4214
-24.4585
-25.0602
-21.3723
-14.3059
-19.4264
-22.605
-22.9041
-20.7719
-14.9794
-20.9483
-27.2993
-24.5033
-21.0692
-29.7523
-18.0032
-26.4684
-13.5494
-17.7911
-26.8455
-13.4344
-27.032
-21.0402
-23.4868
-21.552
-30.2531
-18.9922
-23.5767
-29.0395
-28.3285
-16.9988
-27.9696
-29.0744
-10.202
-22.6924
-21.1677
-13.7982
-25.1136
-21.072
-21.5679
-21.5852
-23.0685
-22.4124
-21.3733
-21.019
-13.5171
-25.0441
-23.5091
-23.232
-23.9005
-22.3119
-20.8166
-19.4821
-26.0035
-12.2791
-20.3718
-20.3507
-12.7108
-26.8264
-29.4602
-22.9898
-27.7054
-28.3427
-20.5792
-21.0478
-24.8503
-27.6611
-20.4948
-25.3927
-18.6263
-13.8771
-26.0913
-19.9266
-27.2855
-29.7685
-28.9153
-14.2988
-26.5644
-23.6973
-19.8045
-21.3293
-22.0408
-21.1262
-14.4675
-27.7237
-14.7463
-27.5684
-22.248
-18.6322
-17.9479
-22.4333
-25.5393
-28.6666
-23.3101
-31.0185
-26.184
-27.0559
-13.3368
-26.6122
-25.7493
-27.3338
-20.6418
-19.8974
-12.2721
-22.8265
-30.6755
-27.7852
-15.1577
-18.9262
-14.7821
-20.6316
-23.013
-18.5044
-33.2121
-21.5978
-18.9392
-15.3979
-24.4537
-20.005
-12.797
-22.5901
-21.0503
-21.1698
-21.3299
-21.3961
-15.4858
-18.5737
-13.8545
-21.1398
-26.1936
-24.6993
-28.0024
-27.3339
-20.3827
-19.4727
-13.5205
-20.8217
-25.6809
-28.3987
-26.1596
-26.3681
-17.896
-12.6247
-19.0691
-11.955
-25.9638
-26.3259
-19.4979
-26.9299
-25.9168
-27.9757
-24.2884
-23.5029
-23.3682
-20.3814
-13.2775
-19.2713
-14.2944
-18.4315
-21.335
-20.7625
-16.0749
-14.2441
-25.3152
-30.7025
-29.8141
-28.9258
-23.2567
-25.1384
-24.9739
-22.8714
-21.3239
-22.8456
-19.7648
-22.2352
-22.2749
-14.2791
-25.9425
-21.9216
-18.9585
-15.9277
-21.0267
-23.1476
-23.0968
-20.7888
-15.9739
-28.6538
-24.3596
-21.1465
-29.6403
-19.9145
-13.9095
-24.8256
-22.2801
-22.3071
-22.2993
-20.8859
-12.1916
-22.4234
-22.1802
-14.8175
-28.4714
-21.7497
-8.69333
-21.3136
-22.9494
-23.2552
-20.853
-14.4546
-20.2379
-20.4728
-17.5552
-22.496
-13.5362
-22.7217
-22.459
-17.1508
-29.605
-22.1491
-15.6426
-30.6189
-22.8604
-22.8637
-15.8462
-22.4516
-14.7254
)
;
    }
}


// ************************************************************************* //
