/*--------------------------------*- C++ -*----------------------------------*\
| =========                 |                                                 |
| \\      /  F ield         | OpenFOAM: The Open Source CFD Toolbox           |
|  \\    /   O peration     | Version:  v1912                                 |
|   \\  /    A nd           | Website:  www.openfoam.com                      |
|    \\/     M anipulation  |                                                 |
\*---------------------------------------------------------------------------*/
FoamFile
{
    version     2.0;
    format      ascii;
    class       surfaceScalarField;
    location    "288/oil";
    object      phi;
}
// * * * * * * * * * * * * * * * * * * * * * * * * * * * * * * * * * * * * * //

dimensions      [1 0 -1 0 0 0 0];
oriented        oriented;


internalField   nonuniform List<scalar> 
104676
(
-1.16522e-11
2.69176e-11
-1.50641e-11
2.76314e-10
-2.27071e-10
-6.10126e-11
8.64954e-10
-4.25546e-10
-1.63097e-10
1.66326e-09
-5.19065e-10
-2.79259e-10
2.55403e-09
-5.307e-10
-3.60076e-10
3.4202e-09
-4.82641e-10
-3.83434e-10
4.15601e-09
-3.92343e-10
-3.43279e-10
4.67296e-09
-2.72752e-10
-2.43986e-10
4.90198e-09
-1.33888e-10
-9.50497e-11
4.80544e-09
1.17408e-11
8.46556e-11
4.36509e-09
1.62243e-10
2.77782e-10
3.61162e-09
2.85071e-10
4.68119e-10
2.58469e-09
3.96683e-10
6.3029e-10
1.35813e-09
4.77518e-10
7.49475e-10
2.56481e-11
5.20222e-10
8.12873e-10
-1.3112e-09
5.22515e-10
8.14715e-10
-2.54168e-09
4.77905e-10
7.52364e-10
-3.57348e-09
3.96295e-10
6.34713e-10
-4.33489e-09
2.86751e-10
4.73689e-10
-4.78083e-09
1.58766e-10
2.8669e-10
-4.8886e-09
1.29116e-11
9.53283e-11
-4.66349e-09
-1.36584e-10
-8.72619e-11
-4.1495e-09
-2.74948e-10
-2.3765e-10
-3.4163e-09
-3.94455e-10
-3.38125e-10
-2.55335e-09
-4.8445e-10
-3.79217e-10
-1.66604e-09
-5.33511e-10
-3.55598e-10
-8.70046e-10
-5.23218e-10
-2.74629e-10
-2.81921e-10
-4.30148e-10
-1.58763e-10
7.85541e-12
-2.30944e-10
-5.77051e-11
2.3042e-11
-1.30928e-11
2.82404e-10
-5.37568e-10
2.82146e-10
1.08967e-09
-1.61404e-09
5.79741e-10
2.37188e-09
-2.42592e-09
7.18123e-10
3.98645e-09
-2.92054e-09
7.86792e-10
5.73937e-09
-3.15767e-09
8.7397e-10
7.42173e-09
-3.1957e-09
1.03072e-09
8.83609e-09
-3.08455e-09
1.27802e-09
9.81146e-09
-2.86358e-09
1.61571e-09
1.02145e-08
-2.56579e-09
2.02905e-09
9.9596e-09
-2.2209e-09
2.48739e-09
9.0072e-09
-1.85802e-09
2.97233e-09
7.41006e-09
-1.54021e-09
3.42212e-09
5.28785e-09
-1.26071e-09
3.77962e-09
2.77515e-09
-1.05852e-09
4.0492e-09
5.12185e-11
-9.52799e-10
4.19763e-09
-2.68345e-09
-9.53489e-10
4.2111e-09
-5.20347e-09
-1.06353e-09
4.06121e-09
-7.32827e-09
-1.26927e-09
3.78948e-09
-8.91266e-09
-1.54931e-09
3.41939e-09
-9.86774e-09
-1.87311e-09
2.98648e-09
-1.01368e-08
-2.23096e-09
2.5135e-09
-9.74582e-09
-2.57333e-09
2.04716e-09
-8.78536e-09
-2.86827e-09
1.63433e-09
-7.38788e-09
-3.08847e-09
1.29707e-09
-5.72052e-09
-3.20085e-09
1.04813e-09
-3.98202e-09
-3.16461e-09
8.90601e-10
-2.37718e-09
-2.9317e-09
8.01758e-10
-1.09662e-09
-2.44014e-09
7.2877e-10
-2.85701e-10
-1.62509e-09
5.84496e-10
-5.42808e-10
2.8244e-10
5.94159e-10
-1.73092e-09
5.99555e-10
1.88814e-09
-4.19058e-09
1.28275e-09
3.70278e-09
-5.94844e-09
1.70783e-09
5.8597e-09
-7.0955e-09
2.01781e-09
8.13578e-09
-7.75471e-09
2.32073e-09
1.02853e-08
-8.02788e-09
2.68254e-09
1.20682e-08
-8.00255e-09
3.13522e-09
1.32716e-08
-7.75094e-09
3.68426e-09
1.37291e-08
-7.33868e-09
4.31557e-09
1.33344e-08
-6.8209e-09
4.99468e-09
1.20354e-08
-6.25746e-09
5.69817e-09
9.88732e-09
-5.72478e-09
6.33236e-09
7.0459e-09
-5.25767e-09
6.83836e-09
3.69457e-09
-4.91666e-09
7.2099e-09
6.56309e-11
-4.74092e-09
7.41772e-09
-3.58077e-09
-4.74937e-09
7.4427e-09
-6.94287e-09
-4.92845e-09
7.2268e-09
-9.78514e-09
-5.27137e-09
6.8435e-09
-1.1921e-08
-5.73496e-09
6.32054e-09
-1.32367e-08
-6.27214e-09
5.7143e-09
-1.36524e-08
-6.83416e-09
5.01947e-09
-1.32095e-08
-7.34804e-09
4.33321e-09
-1.20216e-08
-7.75832e-09
3.7035e-09
-1.02556e-08
-8.00834e-09
3.15429e-09
-8.12264e-09
-8.0354e-09
2.70066e-09
-5.85889e-09
-7.76709e-09
2.33695e-09
-3.7105e-09
-7.1125e-09
2.03082e-09
-1.89769e-09
-5.96846e-09
1.71517e-09
-5.99191e-10
-4.20553e-09
1.28309e-09
-1.7383e-09
5.98343e-10
8.51977e-10
-3.44452e-09
8.62045e-10
2.55547e-09
-7.75344e-09
1.85962e-09
4.80181e-09
-1.07098e-08
2.51498e-09
7.37178e-09
-1.26858e-08
3.02006e-09
1.00199e-08
-1.39072e-08
3.50408e-09
1.24817e-08
-1.45298e-08
4.03991e-09
1.44975e-08
-1.46829e-08
4.66473e-09
1.58343e-08
-1.44736e-08
5.38607e-09
1.63033e-08
-1.39989e-08
6.19152e-09
1.5782e-08
-1.33481e-08
7.04864e-09
1.42091e-08
-1.2611e-08
7.92621e-09
1.1659e-08
-1.18758e-08
8.70081e-09
8.30143e-09
-1.12355e-08
9.33536e-09
4.3497e-09
-1.07421e-08
9.7775e-09
7.40288e-11
-1.04907e-08
1.00261e-08
-4.22469e-09
-1.05086e-08
1.00583e-08
-8.19035e-09
-1.07548e-08
9.79178e-09
-1.15505e-08
-1.12352e-08
9.32325e-09
-1.40896e-08
-1.18788e-08
8.68201e-09
-1.56762e-08
-1.26167e-08
7.93073e-09
-1.62167e-08
-1.33539e-08
7.06083e-09
-1.57643e-08
-1.40031e-08
6.20392e-09
-1.44457e-08
-1.44773e-08
5.40154e-09
-1.2447e-08
-1.46865e-08
4.67986e-09
-1.00026e-08
-1.45363e-08
4.05578e-09
-7.37004e-09
-1.39197e-08
3.51859e-09
-4.80802e-09
-1.27056e-08
3.02996e-09
-2.56424e-09
-1.07286e-08
2.51615e-09
-8.59338e-10
-7.75917e-09
1.84962e-09
-3.45502e-09
8.58895e-10
1.0464e-09
-5.5463e-09
1.05578e-09
3.06595e-09
-1.2054e-08
2.28127e-09
5.65053e-09
-1.64031e-08
3.10863e-09
8.5393e-09
-1.93327e-08
3.75792e-09
1.14663e-08
-2.12124e-08
4.37787e-09
1.41541e-08
-2.2268e-08
5.0502e-09
1.63323e-08
-2.26752e-08
5.8141e-09
1.77556e-08
-2.25768e-08
6.68019e-09
1.82264e-08
-2.21018e-08
7.63228e-09
1.76097e-08
-2.13707e-08
8.6394e-09
1.58403e-08
-2.05079e-08
9.66611e-09
1.2995e-08
-1.96213e-08
1.05905e-08
9.2452e-09
-1.88252e-08
1.13394e-08
4.84117e-09
-1.81787e-08
1.1841e-08
7.95669e-11
-1.78518e-08
1.21232e-08
-4.70898e-09
-1.78761e-08
1.21565e-08
-9.12289e-09
-1.81946e-08
1.18536e-08
-1.28682e-08
-1.88023e-08
1.13118e-08
-1.57123e-08
-1.96152e-08
1.05797e-08
-1.74972e-08
-2.0507e-08
9.6748e-09
-1.81336e-08
-2.13709e-08
8.6538e-09
-1.76814e-08
-2.21018e-08
7.64754e-09
-1.62757e-08
-2.2578e-08
6.69605e-09
-1.41139e-08
-2.26776e-08
5.82978e-09
-1.14428e-08
-2.2273e-08
5.06513e-09
-8.53189e-09
-2.12221e-08
4.39052e-09
-5.65428e-09
-1.93491e-08
3.76503e-09
-3.07205e-09
-1.64169e-08
3.10588e-09
-1.0525e-09
-1.20449e-08
2.26668e-09
-5.5597e-09
1.05309e-09
1.17699e-09
-7.91111e-09
1.18815e-09
3.42092e-09
-1.68605e-08
2.56275e-09
6.25135e-09
-2.2742e-08
3.50844e-09
9.37141e-09
-2.67138e-08
4.26078e-09
1.24995e-08
-2.93205e-08
4.97977e-09
1.53496e-08
-3.08753e-08
5.75696e-09
1.76454e-08
-3.16046e-08
6.63373e-09
1.91345e-08
-3.16888e-08
7.62309e-09
1.96122e-08
-3.12862e-08
8.70698e-09
1.89386e-08
-3.05458e-08
9.84881e-09
1.7045e-08
-2.96192e-08
1.10048e-08
1.3984e-08
-2.86553e-08
1.20948e-08
9.94426e-09
-2.77477e-08
1.29621e-08
5.20415e-09
-2.69592e-08
1.35209e-08
7.95874e-11
-2.65474e-08
1.38207e-08
-5.07421e-09
-2.65738e-08
1.38519e-08
-9.81455e-09
-2.69956e-08
1.35413e-08
-1.38415e-08
-2.77031e-08
1.29271e-08
-1.69071e-08
-2.86415e-08
1.20912e-08
-1.88193e-08
-2.9615e-08
1.10198e-08
-1.95152e-08
-3.05422e-08
9.86758e-09
-1.90576e-08
-3.12843e-08
8.72574e-09
-1.75866e-08
-3.16894e-08
7.64119e-09
-1.53076e-08
-3.16069e-08
6.65062e-09
-1.24725e-08
-3.08797e-08
5.77124e-09
-9.35891e-09
-2.93277e-08
4.9915e-09
-6.25074e-09
-2.67237e-08
4.26604e-09
-3.42674e-09
-2.27436e-08
3.50257e-09
-1.18335e-09
-1.68356e-08
2.54757e-09
-7.92946e-09
1.18682e-09
1.24267e-09
-1.0423e-08
1.26952e-09
3.62462e-09
-2.19876e-08
2.74539e-09
6.61006e-09
-2.94807e-08
3.75327e-09
9.87352e-09
-3.45399e-08
4.56252e-09
1.3125e-08
-3.79208e-08
5.34859e-09
1.60756e-08
-4.003e-08
6.20393e-09
1.84478e-08
-4.11486e-08
7.1718e-09
1.99846e-08
-4.14931e-08
8.2678e-09
2.0478e-08
-4.12501e-08
9.47086e-09
1.97803e-08
-4.05888e-08
1.07408e-08
1.78211e-08
-3.96872e-08
1.20269e-08
1.46185e-08
-3.87186e-08
1.32658e-08
1.04001e-08
-3.77872e-08
1.42578e-08
5.44187e-09
-3.68699e-08
1.48692e-08
8.64196e-11
-3.63807e-08
1.51893e-08
-5.29364e-09
-3.6421e-08
1.52276e-08
-1.02685e-08
-3.69384e-08
1.49176e-08
-1.44723e-08
-3.77336e-08
1.42337e-08
-1.76793e-08
-3.87053e-08
1.32701e-08
-1.96584e-08
-3.96864e-08
1.20502e-08
-2.03784e-08
-4.05887e-08
1.07668e-08
-1.99061e-08
-4.12506e-08
9.49485e-09
-1.83878e-08
-4.14961e-08
8.2891e-09
-1.60327e-08
-4.11536e-08
7.19189e-09
-1.3096e-08
-4.00358e-08
6.21932e-09
-9.85814e-09
-3.79262e-08
5.3602e-09
-6.60723e-09
-3.45404e-08
4.56546e-09
-3.63375e-09
-2.94565e-08
3.73939e-09
-1.25783e-09
-2.19277e-08
2.7163e-09
-1.04535e-08
1.26628e-09
1.26724e-09
-1.29864e-08
1.2964e-09
3.68936e-09
-2.72248e-08
2.8152e-09
6.726e-09
-3.63701e-08
3.85275e-09
1.00385e-08
-4.25388e-08
4.68623e-09
1.33271e-08
-4.67147e-08
5.5051e-09
1.63074e-08
-4.94233e-08
6.41287e-09
1.87064e-08
-5.09977e-08
7.4502e-09
2.02686e-08
-5.16872e-08
8.63217e-09
2.07816e-08
-5.17012e-08
9.93829e-09
2.0095e-08
-5.12268e-08
1.13247e-08
1.81261e-08
-5.04528e-08
1.27345e-08
1.48744e-08
-4.95761e-08
1.41087e-08
1.05764e-08
-4.87301e-08
1.52408e-08
5.52606e-09
-4.77069e-08
1.58875e-08
8.58977e-11
-4.7184e-08
1.6244e-08
-5.38649e-09
-4.72333e-08
1.62851e-08
-1.0473e-08
-4.77774e-08
1.59255e-08
-1.4738e-08
-4.86731e-08
1.5204e-08
-1.79857e-08
-4.95659e-08
1.41077e-08
-1.99731e-08
-5.04564e-08
1.27571e-08
-2.06828e-08
-5.12299e-08
1.13511e-08
-2.01906e-08
-5.17052e-08
9.9631e-09
-1.86463e-08
-5.16948e-08
8.65498e-09
-1.62635e-08
-5.1008e-08
7.47181e-09
-1.32966e-08
-4.94333e-08
6.43058e-09
-1.00219e-08
-4.67182e-08
5.51708e-09
-6.72662e-09
-4.25169e-08
4.68105e-09
-3.704e-09
-3.63025e-08
3.82343e-09
-1.28093e-09
-2.71273e-08
2.77652e-09
-1.30299e-08
1.29551e-09
1.24522e-09
-1.55043e-08
1.2729e-09
3.60964e-09
-3.23664e-08
2.77737e-09
6.58427e-09
-4.31693e-08
3.82466e-09
9.83944e-09
-5.04534e-08
4.65933e-09
1.30731e-08
-5.54192e-08
5.47067e-09
1.59999e-08
-5.8738e-08
6.38772e-09
1.83623e-08
-6.08201e-08
7.46014e-09
1.99145e-08
-6.19344e-08
8.69524e-09
2.04443e-08
-6.23011e-08
1.00704e-08
1.97981e-08
-6.21215e-08
1.1541e-08
1.78974e-08
-6.15879e-08
1.30356e-08
1.47278e-08
-6.08905e-08
1.44836e-08
1.04547e-08
-6.01883e-08
1.57311e-08
5.45533e-09
-5.91337e-08
1.64264e-08
8.13913e-11
-5.86558e-08
1.68462e-08
-5.33152e-09
-5.86994e-08
1.68795e-08
-1.03809e-08
-5.91605e-08
1.64325e-08
-1.46153e-08
-6.01015e-08
1.56622e-08
-1.77637e-08
-6.0881e-08
1.44628e-08
-1.96789e-08
-6.15952e-08
1.30537e-08
-2.03463e-08
-6.213e-08
1.15676e-08
-1.9837e-08
-6.23102e-08
1.00962e-08
-1.83029e-08
-6.19473e-08
8.71887e-09
-1.5956e-08
-6.08369e-08
7.48226e-09
-1.30439e-08
-5.87484e-08
6.40296e-09
-9.83328e-09
-5.53934e-08
5.46443e-09
-6.60128e-09
-5.03658e-08
4.61681e-09
-3.63484e-09
-4.30302e-08
3.76121e-09
-1.25364e-09
-3.22413e-08
2.73289e-09
-1.55572e-08
1.27367e-09
1.18133e-09
-1.78791e-08
1.19357e-09
3.4131e-09
-3.72057e-08
2.60763e-09
6.1923e-09
-4.95759e-08
3.62738e-09
9.25534e-09
-5.79745e-08
4.4579e-09
1.23233e-08
-6.37336e-08
5.2462e-09
1.51026e-08
-6.76398e-08
6.12244e-09
1.73511e-08
-7.02471e-08
7.1785e-09
1.88427e-08
-7.18428e-08
8.41705e-09
1.93781e-08
-7.26447e-08
9.80846e-09
1.88005e-08
-7.28512e-08
1.13075e-08
1.70351e-08
-7.26538e-08
1.28311e-08
1.40674e-08
-7.22235e-08
1.43004e-08
9.95452e-09
-7.16841e-08
1.56084e-08
5.19112e-09
-7.07338e-08
1.63635e-08
7.54856e-11
-7.0348e-08
1.68083e-08
-5.07015e-09
-7.03892e-08
1.68359e-08
-9.8666e-09
-7.07086e-08
1.63447e-08
-1.39575e-08
-7.15094e-08
1.54984e-08
-1.69101e-08
-7.22003e-08
1.42713e-08
-1.86855e-08
-7.26665e-08
1.28464e-08
-1.92836e-08
-7.28649e-08
1.13331e-08
-1.87691e-08
-7.26581e-08
9.83372e-09
-1.72935e-08
-7.18624e-08
8.44003e-09
-1.50575e-08
-7.02704e-08
7.1977e-09
-1.23007e-08
-6.76272e-08
6.12198e-09
-9.26709e-09
-6.36227e-08
5.19546e-09
-6.2129e-09
-5.77881e-08
4.368e-09
-3.41601e-09
-4.93727e-08
3.54565e-09
-1.17711e-09
-3.70512e-08
2.57104e-09
-1.79339e-08
1.19967e-09
1.06599e-09
-2.00042e-08
1.05933e-09
3.08687e-09
-4.15106e-08
2.28413e-09
5.57736e-09
-5.52644e-08
3.19807e-09
8.29838e-09
-6.47061e-08
4.01049e-09
1.10577e-08
-7.1265e-08
4.77187e-09
1.35738e-08
-7.57382e-08
5.58213e-09
1.56206e-08
-7.88611e-08
6.56724e-09
1.69945e-08
-8.09651e-08
7.74852e-09
1.75117e-08
-8.22453e-08
9.08373e-09
1.7029e-08
-8.28867e-08
1.05182e-08
1.54917e-08
-8.30583e-08
1.19417e-08
1.28598e-08
-8.28836e-08
1.32916e-08
9.07075e-09
-8.24662e-08
1.45709e-08
4.72137e-09
-8.18436e-08
1.54593e-08
6.83221e-11
-8.16181e-08
1.59236e-08
-4.60309e-09
-8.16595e-08
1.59422e-08
-8.92984e-09
-8.18234e-08
1.54417e-08
-1.26502e-08
-8.23801e-08
1.45909e-08
-1.53196e-08
-8.29893e-08
1.34579e-08
-1.6911e-08
-8.31065e-08
1.2031e-08
-1.74194e-08
-8.29072e-08
1.05507e-08
-1.69248e-08
-8.22561e-08
9.10363e-09
-1.55642e-08
-8.09875e-08
7.76487e-09
-1.35253e-08
-7.88858e-08
6.57667e-09
-1.10331e-08
-7.56741e-08
5.55472e-09
-8.29764e-09
-7.10363e-08
4.67789e-09
-5.5418e-09
-6.44423e-08
3.89821e-09
-3.03203e-09
-5.50281e-08
3.14557e-09
-1.03477e-09
-4.13239e-08
2.27563e-09
-2.00352e-08
1.06679e-09
8.98141e-10
-2.17765e-08
8.74245e-10
2.61989e-09
-4.50682e-08
1.83588e-09
4.72418e-09
-5.98944e-08
2.52564e-09
7.00621e-09
-7.02067e-08
3.2185e-09
9.27923e-09
-7.7489e-08
3.95077e-09
1.13903e-08
-8.25548e-08
4.70537e-09
1.31357e-08
-8.61806e-08
5.57422e-09
1.43358e-08
-8.8792e-08
6.62697e-09
1.48239e-08
-9.05546e-08
7.82146e-09
1.44695e-08
-9.15985e-08
9.0664e-09
1.31858e-08
-9.2061e-08
1.02863e-08
1.08923e-08
-9.21694e-08
1.15789e-08
7.69362e-09
-9.20663e-08
1.27985e-08
4.01661e-09
-9.17867e-08
1.36202e-08
5.69763e-11
-9.1696e-08
1.40379e-08
-3.9311e-09
-9.16723e-08
1.40013e-08
-7.61474e-09
-9.16416e-08
1.3502e-08
-1.07678e-08
-9.1937e-08
1.27097e-08
-1.302e-08
-9.24314e-08
1.16938e-08
-1.43331e-08
-9.21547e-08
1.03609e-08
-1.47211e-08
-9.15856e-08
9.06636e-09
-1.42654e-08
-9.05211e-08
7.80964e-09
-1.30808e-08
-8.87968e-08
6.62494e-09
-1.13248e-08
-8.62053e-08
5.56368e-09
-9.21437e-09
-8.24486e-08
4.66411e-09
-6.92486e-09
-7.7242e-08
3.91604e-09
-4.6497e-09
-7.00014e-08
3.28377e-09
-2.56069e-09
-5.97875e-08
2.67033e-09
-8.83434e-10
-4.49364e-08
1.93536e-09
-2.18218e-08
9.03317e-10
6.89013e-10
-2.31245e-08
6.59004e-10
1.98454e-09
-4.77675e-08
1.40383e-09
3.60902e-09
-6.34145e-08
1.89567e-09
5.34878e-09
-7.42665e-08
2.31997e-09
7.03513e-09
-8.20212e-08
2.84581e-09
8.60483e-09
-8.76072e-08
3.48259e-09
9.9289e-09
-9.17055e-08
4.20088e-09
1.08867e-08
-9.47666e-08
5.01698e-09
1.13547e-08
-9.6954e-08
5.93164e-09
1.11052e-08
-9.82716e-08
6.92275e-09
1.00053e-08
-9.89856e-08
8.02444e-09
8.16178e-09
-9.94823e-08
9.15608e-09
5.84405e-09
-9.9859e-08
1.01102e-08
3.08732e-09
-9.97958e-08
1.07658e-08
4.96972e-11
-9.97386e-08
1.10804e-08
-3.03865e-09
-9.9591e-08
1.10074e-08
-5.85223e-09
-9.94309e-08
1.06031e-08
-8.22094e-09
-9.94905e-08
9.9221e-09
-1.00089e-08
-9.96027e-08
8.95903e-09
-1.10005e-08
-9.89418e-08
7.77831e-09
-1.12416e-08
-9.81036e-08
6.75913e-09
-1.08567e-08
-9.67221e-08
5.81617e-09
-9.95033e-09
-9.46528e-08
4.94994e-09
-8.63325e-09
-9.17428e-08
4.2206e-09
-7.02891e-09
-8.76449e-08
3.59192e-09
-5.28594e-09
-8.20053e-08
3.02028e-09
-3.5489e-09
-7.42533e-08
2.51465e-09
-1.95388e-09
-6.34113e-08
2.02868e-09
-6.75038e-10
-4.76813e-08
1.46609e-09
-2.31797e-08
6.83041e-10
4.65425e-10
-2.39906e-08
4.0075e-10
1.25514e-09
-4.93995e-08
8.42348e-10
2.26881e-09
-6.56464e-08
1.21829e-09
3.36896e-09
-7.68877e-08
1.52101e-09
4.44832e-09
-8.49701e-08
1.86941e-09
5.45854e-09
-9.0888e-08
2.27051e-09
6.30701e-09
-9.52507e-08
2.69676e-09
6.88321e-09
-9.8467e-08
3.12431e-09
7.19393e-09
-1.00855e-07
3.59003e-09
7.01266e-09
-1.02366e-07
4.2753e-09
6.29105e-09
-1.03382e-07
5.11814e-09
5.17443e-09
-1.04259e-07
5.89322e-09
3.71384e-09
-1.04898e-07
6.49937e-09
1.96891e-09
-1.04971e-07
6.92042e-09
5.93985e-11
-1.04983e-07
7.15413e-09
-1.87918e-09
-1.04786e-07
7.13384e-09
-3.65651e-09
-1.0455e-07
6.89661e-09
-5.12354e-09
-1.04487e-07
6.46375e-09
-6.26968e-09
-1.0433e-07
5.87334e-09
-6.97455e-09
-1.03331e-07
5.09437e-09
-7.23706e-09
-1.02113e-07
4.27201e-09
-7.03179e-09
-1.00433e-07
3.50574e-09
-6.41042e-09
-9.81916e-08
2.91765e-09
-5.49263e-09
-9.51754e-08
2.51496e-09
-4.43348e-09
-9.08999e-08
2.19592e-09
-3.32104e-09
-8.50028e-08
1.88495e-09
-2.22348e-09
-7.69274e-08
1.57649e-09
-1.22052e-09
-6.56852e-08
1.27097e-09
-4.22075e-10
-4.93962e-08
9.16467e-10
-2.40284e-08
4.26651e-10
1.7005e-10
-2.42968e-08
1.36151e-10
4.36246e-10
-4.99571e-08
2.91444e-10
7.93057e-10
-6.64383e-08
4.35085e-10
1.18492e-09
-7.7823e-08
5.43394e-10
1.58066e-09
-8.60177e-08
6.51853e-10
1.98164e-09
-9.20313e-08
7.42327e-10
2.35462e-09
-9.64449e-08
8.21309e-10
2.57743e-09
-9.96391e-08
9.49432e-10
2.60896e-09
-1.02036e-07
1.14994e-09
2.46859e-09
-1.03661e-07
1.43575e-09
2.24509e-09
-1.04894e-07
1.73522e-09
1.91718e-09
-1.0592e-07
1.98865e-09
1.30049e-09
-1.06442e-07
2.16057e-09
6.46374e-10
-1.066e-07
2.28255e-09
3.47561e-11
-1.06776e-07
2.40489e-09
-6.45953e-10
-1.06614e-07
2.50863e-09
-1.28295e-09
-1.06417e-07
2.50356e-09
-1.78669e-09
-1.06323e-07
2.33917e-09
-2.18361e-09
-1.06055e-07
2.1212e-09
-2.42913e-09
-1.0494e-07
1.85394e-09
-2.52891e-09
-1.03585e-07
1.57161e-09
-2.4666e-09
-1.01794e-07
1.29894e-09
-2.25013e-09
-9.94843e-08
1.07638e-09
-1.9254e-09
-9.64071e-08
9.07139e-10
-1.54807e-09
-9.20437e-08
7.66512e-10
-1.15349e-09
-8.60376e-08
6.40203e-10
-7.65894e-10
-7.78446e-08
5.29504e-10
-4.15639e-10
-6.64616e-08
4.26093e-10
-1.42921e-10
-4.99731e-08
3.04201e-10
-2.43179e-08
1.46496e-10
-1.19853e-10
-2.40451e-08
-1.31863e-10
-3.72556e-10
-4.94383e-08
-2.66093e-10
-6.83403e-10
-6.57647e-08
-3.62832e-10
-1.02357e-09
-7.70309e-08
-4.51927e-10
-1.37441e-09
-8.51322e-08
-5.34766e-10
-1.72703e-09
-9.10849e-08
-5.93806e-10
-2.05614e-09
-9.54776e-08
-6.38157e-10
-2.2651e-09
-9.87046e-08
-7.25405e-10
-2.26944e-09
-1.01103e-07
-9.28057e-10
-2.11689e-09
-1.02582e-07
-1.23143e-09
-1.91927e-09
-1.03572e-07
-1.51994e-09
-1.74827e-09
-1.04378e-07
-1.7132e-09
-1.47727e-09
-1.04875e-07
-1.83854e-09
-9.11611e-10
-1.05196e-07
-1.96961e-09
-8.67536e-11
-1.05432e-07
-2.16925e-09
5.90858e-10
-1.05045e-07
-2.24653e-09
1.17409e-09
-1.04844e-07
-2.15596e-09
1.69814e-09
-1.04833e-07
-2.01356e-09
1.98662e-09
-1.04513e-07
-1.83036e-09
2.17178e-09
-1.0351e-07
-1.61513e-09
2.26379e-09
-1.02302e-07
-1.37488e-09
2.2137e-09
-1.00615e-07
-1.12855e-09
2.04045e-09
-9.83755e-08
-9.35474e-10
1.74956e-09
-9.53199e-08
-7.96245e-10
1.41235e-09
-9.10169e-08
-6.89502e-10
1.06249e-09
-8.50994e-08
-5.88344e-10
7.13081e-10
-7.70077e-08
-4.875e-10
3.96396e-10
-6.57587e-08
-3.86317e-10
1.42835e-10
-4.94513e-08
-2.68339e-10
-2.40501e-08
-1.24963e-10
-4.06745e-10
-2.32276e-08
-4.10659e-10
-1.18186e-09
-4.77846e-08
-8.78638e-10
-2.14942e-09
-6.3577e-08
-1.2201e-09
-3.20902e-09
-7.44562e-08
-1.51514e-09
-4.27368e-09
-8.22445e-08
-1.82307e-09
-5.26053e-09
-8.79308e-08
-2.16722e-09
-6.08038e-09
-9.21049e-08
-2.55275e-09
-6.66085e-09
-9.51368e-08
-2.98727e-09
-6.92931e-09
-9.73598e-08
-3.47518e-09
-6.72225e-09
-9.86822e-08
-4.10697e-09
-6.03189e-09
-9.93648e-08
-4.8975e-09
-5.03747e-09
-9.97629e-08
-5.60956e-09
-3.6845e-09
-1.00071e-07
-6.15691e-09
-1.98278e-09
-1.00311e-07
-6.58675e-09
-3.53676e-11
-1.00513e-07
-6.86567e-09
1.84584e-09
-1.00086e-07
-6.8399e-09
3.61455e-09
-1.00009e-07
-6.60364e-09
5.16202e-09
-1.00204e-07
-6.17704e-09
6.09029e-09
-9.98529e-08
-5.58832e-09
6.69357e-09
-9.9196e-08
-4.91753e-09
6.96079e-09
-9.84232e-08
-4.14622e-09
6.76079e-09
-9.70741e-08
-3.34126e-09
6.18257e-09
-9.49859e-08
-2.81131e-09
5.29808e-09
-9.19768e-08
-2.4586e-09
4.28224e-09
-8.78594e-08
-2.14167e-09
3.23029e-09
-8.22227e-08
-1.82477e-09
2.17459e-09
-7.44489e-08
-1.50307e-09
1.21562e-09
-6.36113e-08
-1.18846e-09
4.41613e-10
-4.78507e-08
-8.26644e-10
-2.32144e-08
-3.94196e-10
-6.6553e-10
-2.18948e-08
-6.67252e-10
-1.91874e-09
-4.50981e-08
-1.43328e-09
-3.48392e-09
-6.00221e-08
-1.98986e-09
-5.18986e-09
-7.028e-08
-2.47042e-09
-6.89553e-09
-7.75669e-08
-2.97202e-09
-8.45316e-09
-8.28202e-08
-3.55294e-09
-9.723e-09
-8.66126e-08
-4.22243e-09
-1.0622e-08
-8.924e-08
-4.99767e-09
-1.10714e-08
-9.10385e-08
-5.87178e-09
-1.08501e-08
-9.21199e-08
-6.78367e-09
-9.79948e-09
-9.25833e-08
-7.83238e-09
-8.05511e-09
-9.25898e-08
-8.91765e-09
-5.77247e-09
-9.25174e-08
-9.83593e-09
-3.05148e-09
-9.25266e-08
-1.0505e-08
-3.93205e-11
-9.26596e-08
-1.08656e-08
2.95769e-09
-9.22988e-08
-1.0784e-08
5.74904e-09
-9.23603e-08
-1.04398e-08
8.16593e-09
-9.2831e-08
-9.78982e-09
9.80939e-09
-9.26494e-08
-8.84707e-09
1.08028e-08
-9.23814e-08
-7.80804e-09
1.11034e-08
-9.19613e-08
-6.76258e-09
1.07228e-08
-9.09792e-08
-5.71419e-09
9.78214e-09
-8.92358e-08
-4.80941e-09
8.44851e-09
-8.65864e-08
-4.05673e-09
6.86922e-09
-8.28676e-08
-3.41251e-09
5.19589e-09
-7.77108e-08
-2.83855e-09
3.52368e-09
-7.04407e-08
-2.336e-09
1.97881e-09
-6.02095e-08
-1.85695e-09
7.06923e-10
-4.5273e-08
-1.30583e-09
-2.18773e-08
-6.30155e-10
-8.88378e-10
-2.0124e-08
-8.8236e-10
-2.5378e-09
-4.15496e-08
-1.899e-09
-4.60178e-09
-5.53085e-08
-2.64963e-09
-6.85474e-09
-6.47556e-08
-3.27153e-09
-9.1177e-09
-7.1398e-08
-3.90597e-09
-1.12139e-08
-7.60776e-08
-4.64641e-09
-1.29586e-08
-7.93308e-08
-5.53687e-09
-1.41372e-08
-8.1476e-08
-6.58529e-09
-1.4618e-08
-8.28014e-08
-7.75629e-09
-1.42752e-08
-8.34938e-08
-8.96897e-09
-1.299e-08
-8.36943e-08
-1.01744e-08
-1.06909e-08
-8.34817e-08
-1.14074e-08
-7.59372e-09
-8.30412e-08
-1.25735e-08
-3.97866e-09
-8.27143e-08
-1.34272e-08
-3.19262e-11
-8.27264e-08
-1.38798e-08
3.90561e-09
-8.24704e-08
-1.37658e-08
7.5566e-09
-8.26734e-08
-1.3338e-08
1.07022e-08
-8.33937e-08
-1.2583e-08
1.29611e-08
-8.3563e-08
-1.13455e-08
1.42614e-08
-8.36535e-08
-1.00283e-08
1.4639e-08
-8.34784e-08
-8.86045e-09
1.41816e-08
-8.28233e-08
-7.69835e-09
1.30023e-08
-8.15126e-08
-6.54383e-09
1.12775e-08
-7.93608e-08
-5.50076e-09
9.18695e-09
-7.61526e-08
-4.62443e-09
6.93843e-09
-7.15993e-08
-3.8631e-09
4.7113e-09
-6.50984e-08
-3.11527e-09
2.6346e-09
-5.57225e-08
-2.41025e-09
9.30897e-10
-4.18678e-08
-1.70141e-09
-2.01126e-08
-8.33748e-10
-1.06145e-09
-1.80115e-08
-1.05093e-09
-3.0234e-09
-3.73374e-08
-2.25024e-09
-5.50519e-09
-4.96816e-08
-3.14521e-09
-8.2437e-09
-5.81205e-08
-3.89673e-09
-1.09762e-08
-6.40034e-08
-4.66217e-09
-1.34688e-08
-6.80576e-08
-5.52736e-09
-1.55082e-08
-7.07476e-08
-6.54374e-09
-1.6872e-08
-7.23899e-08
-7.72224e-09
-1.73813e-08
-7.32391e-08
-9.05276e-09
-1.69011e-08
-7.34957e-08
-1.04785e-08
-1.53639e-08
-7.33358e-08
-1.18959e-08
-1.27242e-08
-7.29163e-08
-1.32053e-08
-9.02306e-09
-7.23303e-08
-1.44121e-08
-4.68398e-09
-7.16775e-08
-1.53758e-08
-2.32408e-11
-7.14604e-08
-1.59265e-08
4.62103e-09
-7.12776e-08
-1.58369e-08
8.94699e-09
-7.16355e-08
-1.53639e-08
1.2644e-08
-7.25386e-08
-1.45523e-08
1.53183e-08
-7.29701e-08
-1.32674e-08
1.68938e-08
-7.33525e-08
-1.18765e-08
1.73911e-08
-7.3515e-08
-1.04607e-08
1.68903e-08
-7.32701e-08
-9.05233e-09
1.5532e-08
-7.24288e-08
-7.72542e-09
1.3504e-08
-7.07894e-08
-6.54344e-09
1.10062e-08
-6.81119e-08
-5.5429e-09
8.25543e-09
-6.41189e-08
-4.72968e-09
5.52118e-09
-5.83585e-08
-4.00569e-09
3.05401e-09
-5.00085e-08
-3.24681e-09
1.06954e-09
-3.75812e-08
-2.30215e-09
-1.79943e-08
-1.04876e-09
-1.17839e-09
-1.56376e-08
-1.19549e-09
-3.40884e-09
-3.25287e-08
-2.57824e-09
-6.20186e-09
-4.33392e-08
-3.54945e-09
-9.25375e-09
-5.07059e-08
-4.36287e-09
-1.22914e-08
-5.57834e-08
-5.18246e-09
-1.50567e-08
-5.91864e-08
-6.10599e-09
-1.72999e-08
-6.13233e-08
-7.18091e-09
-1.87862e-08
-6.24827e-08
-8.42065e-09
-1.93148e-08
-6.28949e-08
-9.81561e-09
-1.87362e-08
-6.27587e-08
-1.13157e-08
-1.69713e-08
-6.22651e-08
-1.28359e-08
-1.40229e-08
-6.16038e-08
-1.42613e-08
-9.95889e-09
-6.09047e-08
-1.54897e-08
-5.13342e-09
-6.01248e-08
-1.6378e-08
-1.53106e-11
-5.9668e-08
-1.69102e-08
5.11355e-09
-5.95517e-08
-1.68546e-08
9.92394e-09
-6.00442e-08
-1.64017e-08
1.39676e-08
-6.09687e-08
-1.56138e-08
1.69363e-08
-6.1625e-08
-1.43141e-08
1.87196e-08
-6.22847e-08
-1.28512e-08
1.9313e-08
-6.2781e-08
-1.13273e-08
1.87939e-08
-6.29232e-08
-9.8276e-09
1.73145e-08
-6.25174e-08
-8.43201e-09
1.50778e-08
-6.13642e-08
-7.1885e-09
1.23145e-08
-5.92333e-08
-6.11543e-09
9.25837e-09
-5.5846e-08
-5.21691e-09
6.17509e-09
-5.08215e-08
-4.45376e-09
3.37598e-09
-4.35265e-08
-3.68295e-09
1.17091e-09
-3.27103e-08
-2.6658e-09
-1.56236e-08
-1.19967e-09
-1.23192e-09
-1.31202e-08
-1.28532e-09
-3.62938e-09
-2.73599e-08
-2.77135e-09
-6.61269e-09
-3.65831e-08
-3.77293e-09
-9.8543e-09
-4.28456e-08
-4.61894e-09
-1.30777e-08
-4.7094e-08
-5.46618e-09
-1.60036e-08
-4.98536e-08
-6.40682e-09
-1.83664e-08
-5.14708e-08
-7.48946e-09
-1.99177e-08
-5.22007e-08
-8.73043e-09
-2.04447e-08
-5.22534e-08
-1.01145e-08
-1.97926e-08
-5.18188e-08
-1.15922e-08
-1.78848e-08
-5.10798e-08
-1.30934e-08
-1.47249e-08
-5.023e-08
-1.4534e-08
-1.04718e-08
-4.93822e-08
-1.57757e-08
-5.39053e-09
-4.85901e-08
-1.66158e-08
-7.92751e-12
-4.80329e-08
-1.70174e-08
5.39128e-09
-4.79852e-08
-1.69655e-08
1.04508e-08
-4.854e-08
-1.65638e-08
1.46871e-08
-4.94198e-08
-1.57855e-08
1.78507e-08
-5.02464e-08
-1.45425e-08
1.97711e-08
-5.10958e-08
-1.31094e-08
2.04358e-08
-5.1837e-08
-1.16086e-08
1.99196e-08
-5.22777e-08
-1.01292e-08
1.83769e-08
-5.22306e-08
-8.74395e-09
1.60181e-08
-5.1506e-08
-7.49955e-09
1.30945e-08
-4.98941e-08
-6.41571e-09
9.86821e-09
-4.71409e-08
-5.47879e-09
6.60757e-09
-4.29087e-08
-4.65229e-09
3.61583e-09
-3.66969e-08
-3.83785e-09
1.24252e-09
-2.75232e-08
-2.81376e-09
-1.31018e-08
-1.2793e-09
-1.27086e-09
-1.05419e-08
-1.3073e-09
-3.71383e-09
-2.21167e-08
-2.80018e-09
-6.75545e-09
-2.97064e-08
-3.83517e-09
-1.00697e-08
-3.48389e-08
-4.69272e-09
-1.33657e-08
-3.82664e-08
-5.53168e-09
-1.63544e-08
-4.04148e-08
-6.4501e-09
-1.87591e-08
-4.15679e-08
-7.49792e-09
-2.03245e-08
-4.19455e-08
-8.68958e-09
-2.08349e-08
-4.17353e-08
-1.00075e-08
-2.01399e-08
-4.11063e-08
-1.14076e-08
-1.81554e-08
-4.0235e-08
-1.28298e-08
-1.49063e-08
-3.92809e-08
-1.41986e-08
-1.06331e-08
-3.83331e-08
-1.53224e-08
-5.54671e-09
-3.75869e-08
-1.60893e-08
-4.35287e-11
-3.71023e-08
-1.64335e-08
5.43355e-09
-3.70506e-08
-1.64115e-08
1.0499e-08
-3.75261e-08
-1.60794e-08
1.48385e-08
-3.83824e-08
-1.53772e-08
1.81207e-08
-3.92975e-08
-1.42314e-08
2.01153e-08
-4.02426e-08
-1.28479e-08
2.08226e-08
-4.11193e-08
-1.1425e-08
2.03215e-08
-4.17533e-08
-1.00231e-08
1.87638e-08
-4.19696e-08
-8.70314e-09
1.63638e-08
-4.15959e-08
-7.51004e-09
1.33774e-08
-4.04464e-08
-6.46143e-09
1.00814e-08
-3.83027e-08
-5.54233e-09
6.76184e-09
-3.48809e-08
-4.70831e-09
3.70577e-09
-2.97667e-08
-3.87409e-09
1.25881e-09
-2.22178e-08
-2.8584e-09
-1.05323e-08
-1.31062e-09
-1.25972e-09
-8.00377e-09
-1.27818e-09
-3.65203e-09
-1.699e-08
-2.73427e-09
-6.64787e-09
-2.2954e-08
-3.75679e-09
-9.92511e-09
-2.69757e-08
-4.58623e-09
-1.31914e-08
-2.96144e-08
-5.38601e-09
-1.61566e-08
-3.11972e-08
-6.25231e-09
-1.85385e-08
-3.19531e-08
-7.23266e-09
-2.00814e-08
-3.20625e-08
-8.33973e-09
-2.05742e-08
-3.16829e-08
-9.55934e-09
-1.9865e-08
-3.09666e-08
-1.08491e-08
-1.78826e-08
-3.00622e-08
-1.21555e-08
-1.46875e-08
-2.90969e-08
-1.33795e-08
-1.04831e-08
-2.81827e-08
-1.43549e-08
-5.49546e-09
-2.7502e-08
-1.50724e-08
-4.93811e-11
-2.71238e-08
-1.54242e-08
5.36368e-09
-2.7067e-08
-1.53964e-08
1.03571e-08
-2.74551e-08
-1.50645e-08
1.46172e-08
-2.82253e-08
-1.44175e-08
1.78478e-08
-2.91155e-08
-1.34129e-08
1.98384e-08
-3.00657e-08
-1.21676e-08
2.05564e-08
-3.09738e-08
-1.08634e-08
2.00753e-08
-3.16966e-08
-9.5754e-09
1.85396e-08
-3.20791e-08
-8.35465e-09
1.61621e-08
-3.19738e-08
-7.2446e-09
1.32001e-08
-3.12215e-08
-6.26307e-09
9.93571e-09
-2.96419e-08
-5.39648e-09
6.65588e-09
-2.70044e-08
-4.59672e-09
3.65235e-09
-2.29899e-08
-3.77338e-09
1.24562e-09
-1.70433e-08
-2.7678e-09
-8.00605e-09
-1.28059e-09
-1.18947e-09
-5.61732e-09
-1.19673e-09
-3.45084e-09
-1.21651e-08
-2.56348e-09
-6.30035e-09
-1.6582e-08
-3.52267e-09
-9.43884e-09
-1.95464e-08
-4.29113e-09
-1.25848e-08
-2.14453e-08
-5.02338e-09
-1.54528e-08
-2.2519e-08
-5.81027e-09
-1.7761e-08
-2.29445e-08
-6.70013e-09
-1.92585e-08
-2.28631e-08
-7.70145e-09
-1.97365e-08
-2.24042e-08
-8.80057e-09
-1.9049e-08
-2.16895e-08
-9.96471e-09
-1.71277e-08
-2.08354e-08
-1.11487e-08
-1.40706e-08
-1.99463e-08
-1.2208e-08
-1.00343e-08
-1.91518e-08
-1.30674e-08
-5.25429e-09
-1.85658e-08
-1.3716e-08
-4.29954e-11
-1.82646e-08
-1.40702e-08
5.13957e-09
-1.82184e-08
-1.40309e-08
9.92784e-09
-1.85357e-08
-1.37076e-08
1.40062e-08
-1.91777e-08
-1.31263e-08
1.70938e-08
-1.99613e-08
-1.22422e-08
1.90211e-08
-2.08409e-08
-1.11522e-08
1.97176e-08
-2.16937e-08
-9.97648e-09
1.92495e-08
-2.24123e-08
-8.81612e-09
1.77604e-08
-2.28742e-08
-7.71567e-09
1.54567e-08
-2.2958e-08
-6.71198e-09
1.25919e-08
-2.25358e-08
-5.82091e-09
9.44513e-09
-2.14633e-08
-5.03209e-09
6.30599e-09
-1.95658e-08
-4.2996e-09
3.45499e-09
-1.66067e-08
-3.53224e-09
1.18696e-09
-1.2197e-08
-2.57816e-09
-5.621e-09
-1.19798e-09
-1.06019e-09
-3.49485e-09
-1.06198e-09
-3.09828e-09
-7.84476e-09
-2.28216e-09
-5.70818e-09
-1.08464e-08
-3.12595e-09
-8.61688e-09
-1.2847e-08
-3.79107e-09
-1.15619e-08
-1.40771e-08
-4.42341e-09
-1.42686e-08
-1.47075e-08
-5.10475e-09
-1.64603e-08
-1.48715e-08
-5.88095e-09
-1.78921e-08
-1.4673e-08
-6.75793e-09
-1.83636e-08
-1.42081e-08
-7.72438e-09
-1.77347e-08
-1.35672e-08
-8.75142e-09
-1.59503e-08
-1.28339e-08
-9.78641e-09
-1.31059e-08
-1.21026e-08
-1.06887e-08
-9.33984e-09
-1.14632e-08
-1.14548e-08
-4.88274e-09
-1.09927e-08
-1.203e-08
-3.65077e-11
-1.07514e-08
-1.23589e-08
4.78611e-09
-1.07243e-08
-1.23165e-08
9.24345e-09
-1.09752e-08
-1.20179e-08
1.30346e-08
-1.14713e-08
-1.14978e-08
1.59083e-08
-1.21084e-08
-1.0727e-08
1.77067e-08
-1.28378e-08
-9.80166e-09
1.83445e-08
-1.35697e-08
-8.76174e-09
1.78825e-08
-1.42123e-08
-7.73781e-09
1.6458e-08
-1.4679e-08
-6.77047e-09
1.42703e-08
-1.48795e-08
-5.89071e-09
1.15659e-08
-1.4717e-08
-5.11453e-09
8.62106e-09
-1.4088e-08
-4.43064e-09
5.71377e-09
-1.28613e-08
-3.79733e-09
3.10606e-09
-1.08689e-08
-3.13014e-09
1.06283e-09
-7.86874e-09
-2.285e-09
-3.49736e-09
-1.06066e-09
-8.66796e-10
-1.76192e-09
-8.65831e-10
-2.58977e-09
-4.25901e-09
-1.86268e-09
-4.86175e-09
-6.04268e-09