/*--------------------------------*- C++ -*----------------------------------*\
| =========                 |                                                 |
| \\      /  F ield         | OpenFOAM: The Open Source CFD Toolbox           |
|  \\    /   O peration     | Version:  v1912                                 |
|   \\  /    A nd           | Website:  www.openfoam.com                      |
|    \\/     M anipulation  |                                                 |
\*---------------------------------------------------------------------------*/
FoamFile
{
    version     2.0;
    format      ascii;
    class       volScalarField;
    location    "288/oil";
    object      wallHeatFlux;
}
// * * * * * * * * * * * * * * * * * * * * * * * * * * * * * * * * * * * * * //

dimensions      [1 0 -3 0 0 0 0];


internalField   uniform 0;

boundaryField
{
    maxY
    {
        type            calculated;
        value           uniform 0;
    }
    minX
    {
        type            calculated;
        value           uniform 0;
    }
    maxX
    {
        type            calculated;
        value           uniform 0;
    }
    minY
    {
        type            calculated;
        value           uniform 0;
    }
    minZ
    {
        type            calculated;
        value           uniform 0;
    }
    maxZ
    {
        type            calculated;
        value           uniform 0;
    }
    oil_to_sphere
    {
        type            calculated;
        value           nonuniform List<scalar> 
1536
(
1824.23
1549.53
1544.33
1041.34
1026.58
1535.26
1314.08
1404.13
1371.13
1083.77
882.94
1120.96
1365.88
1132.85
816.003
1283.24
1536.33
1557.63
1268.34
1351.73
1468.92
1375.07
1395.12
1280.34
1307.5
1293.68
1305.64
1246.5
1520.48
1385.23
1602.84
1551.12
1561.08
1285.29
1301.8
1248.23
1273.05
1191.87
1243.46
1303.64
1231.97
1272.49
1361.8
1419.11
1486.97
1300.24
1467.24
1394.66
835.844
1292.79
1443.3
1375.29
1389.02
1279.24
1511.43
1700.4
1391.46
1352.44
1465.09
1438.33
1355.46
1362.76
1350.46
1272.14
1299.64
1343.11
1350.88
1450.02
1446.88
1509.33
1270.8
1030.6
1117.86
1294.48
1292.64
1718.24
1564.25
1196.92
1283.93
1548.71
1472.55
1432.97
1041.37
1033.74
1519.04
1771.9
973.423
1327.61
1439.17
1437.53
1372.77
1257.26
1253.21
1265.42
1292.64
1416.45
1468.6
1486.93
1583.81
1431.16
1474.75
1266.68
1829.59
1446.21
1106.13
1287.72
1309.65
1061.25
1059.56
1837.57
1561.23
1403.61
1360.89
1396.64
1002.65
1031.34
949.385
1649.81
1799.55
1577.35
1383.3
1396.48
1240.35
1464.92
1599.14
1421.24
1380.52
1221.96
1481.8
1462.73
1344.55
1451.77
1507.58
1311.69
1329.53
1522.64
1397.93
1551.17
1227.35
1539.02
1373.31
1459.95
1462.6
1365.47
1333.43
1359.47
1419.17
1649.23
1343.56
1841.04
1497.46
1550.28
1391.16
1406.75
1291.44
1426.49
1519.55
1468.09
1888.71
1596.87
1560.41
1664.13
1149.46
1193.51
1261.03
1255.62
1505.23
1631.1
1581.56
1707.71
1246.74
1264.07
1200.41
1470.56
1387.46
1410.93
1748.14
1182.03
1125.72
1771.14
1247.75
1196.75
1187.02
1212.53
1448.67
1772.92
1599.21
1233.6
1147.3
1553.26
1165.64
1505.69
1504.65
1627.27
1118.11
759.382
1617.54
1654.74
1313.56
1289.63
1377.14
1316.42
1558.48
1614.61
1491.8
1434.1
1268.53
1638.52
1587.14
1415.22
1221.13
1299.25
1288.16
1325.22
1476.01
1711.36
1158.58
1128
1135.91
723.398
1537.08
1471.34
1430.54
1375.57
1387.99
1640.87
1504.36
1300.5
1539.07
1087.56
1249.82
773.126
1363.17
1524.82
1618.91
1591.83
1537.11
1479.04
1575.54
1116.25
1155.45
1204.44
1660.32
1208.74
771.726
958.357
1472.49
1367.74
1756.74
1888.23
1401.78
1034.63
729.794
1437.47
1589.06
1265.92
1274.36
988.647
1255.69
1639.72
1784.87
1354.72
1274.68
1684.59
1603.39
1296.28
1103.45
1335.95
1720.15
1654.07
1479.73
1505.94
1607.04
1188.19
1285
1622.06
1505.51
1552.65
1362.74
1540.42
1704.12
1490.85
1468.04
1671.02
1270.24
1265.84
1291.96
1241.5
1259.37
1631.48
1727.61
1137.19
1322.23
1307.79
1319.67
1233.18
1389.76
1361.22
1201.97
993.323
1251.93
1123.83
1228.26
1774.12
1677.81
1673.37
1864.84
1169.16
1189.19
1385.03
1841.41
1792.27
1251.54
1365.83
1236.76
1500.22
1280.34
1465.68
1488.63
1568.41
1512.42
1304.66
1523.62
1248.35
1609.06
1644.8
1546.9
1525.18
1207.14
1736.19
1727.08
1499.68
1111.13
1267.52
1317.67
1489.96
1462.64
1501.62
1198.44
1604.64
1619.83
1569.26
1671.56
1451.62
1418.67
1354.27
1155.7
1422.2
1496.58
1152.68
1132.24
1181.28
1813.7
1600.44
1672.73
1458.75
1414.61
1629.12
1139.08
1754.53
1567.09
1418.71
1414.02
1122.15
1567.52
1593.84
1218.67
1419.04
1347.07
1276.24
1501.81
1600.02
1361.7
1296.32
1172.89
1711.6
1610.6
1130.6
1632.18
1595.28
1537.75
1710.27
1414.97
1515.96
1081.06
1118.88
1488.13
1849.94
1550.35
1757.76
1457.28
1312.05
1582.41
1182.23
1239.32
1466.93
1595.01
1506.07
1460.89
1194.39
1191.21
1623.78
1615.34
1611.51
1410.46
1259.13
1470.33
1525.27
1590.28
1425.99
1330.88
1213.03
1401.37
1169.92
1062.29
1263.87
1214.95
1404.88
1084.46
1314.67
1741.1
1308.53
1305.16
1592.67
1588.51
1495.1
1348.36
1148.28
1547.4
1674.8
1482.19
1430.43
1555.85
1368.06
1395.47
1454.21
1038.95
1484.47
1619.5
1670.75
1580.91
1520.11
1505.85
1428.2
1337.79
1182.36
1383.59
1210.91
1122.73
1235.29
1058.92
1782.6
1745.2
1645.63
1833.3
1184.3
1785.12
1195.43
1248.93
1534.53
1167.43
1187.37
1317.86
1306.47
1754.86
1677.51
1454.86
1475.16
1706.82
1625.9
1424.9
1523.72
1224.36
1595.22
1109.81
1667.88
1036.24
1515.33
1547.73
1581.7
1302.86
1176.06
1342.26
1589.99
1355.18
1090.79
1595.59
1615.49
1656.26
1859.6
1432.08
1694.77
1166.62
1201.52
849.052
956.162
1421.31
1315.14
1280.77
1236.18
1803.89
1205
1137.13
1098.16
1324.21
1092.89
1885.87
1225.66
1245.61
1386.75
889.004
982.406
1265.74
1258.59
1360.78
1294.71
1613.48
1579.66
1507.27
1421.95
1065.84
1280.59
1573.01
1181.1
1219.03
1546.22
1713.37
1224.82
851.308
1155.07
882.728
1378.11
1302.33
1246.15
1110.66
883.384
1504.63
1541.74
1463.07
1375.86
1722.87
1512.73
1489.17
1415.79
1205.11
1288.41
1612.8
1509.22
1324.9
948.516
1431.78
1567.57
1738.25
1441.17
1274.36
1736.94
1395.58
1698.02
1220.79
1298.53
1184.84
1307.68
1434.48
1711.61
1198.04
1239
1203.19
1327.88
1890.95
1118.56
1285.6
1133.46
1391.43
1433.31
1617.01
1721.22
1078.49
1111.56
1718.79
1755.31
1011.04
1705.87
1632.63
1549.88
1626.75
1491.57
1404.5
1417.11
1710.27
1424.55
1494.69
1401.28
1591.63
1444.01
1380.5
1362.12
1153.37
1547.38
1378.69
1587.69
1519.3
1526.16
1508.22
1427.3
1119.7
1622.49
1621.5
1500.27
1377.52
1449.75
1828.43
1091.16
1215.65
1162.16
1439.14
1241.49
1830.56
1310.57
1339.06
1394.67
857.722
898.486
1274.33
1268.5
1412.92
1184.32
1234.68
1449.17
1254.73
1722.77
1166.75
1812.67
1318.73
1432.37
780.489
888.925
844.04
1247.65
1549.81
1286.19
1247.42
884.633
1402.88
1568.26
1407.7
1967.44
1223.08
1612.4
1502.26
1557.4
1639.09
1630.36
1557.97
1388.29
1332.02
1383.04
1558.79
1349.34
1466.34
1440.51
1462
1582.95
1510.01
1547.03
1151.33
1212.14
752.479
990.644
1054.38
591.343
1267.9
1295.57
1349.64
1380
1060.43
1158.48
1324.18
1655.94
1628.72
1319.13
1097.48
1365.86
1576.59
1502.87
1391.83
1079.84
1222.84
1503.84
1453.08
1386.92
1277.24
1529.18
1535.2
1711.16
1537.66
1429.64
1295.19
1230.1
1147.17
1270.09
1363.71
1845.86
1421.31
1775.49
1237.54
1869.83
1267.01
1358.56
1170.87
1199.19
1297.17
1145.43
1344.24
1082.5
1277.97
1610.77
1314.33
1128.57
1730.47
1522.42
1471.49
1371.88
1707.46
2001.13
997.835
1513.19
1460.79
1494.29
1145.1
1375.14
1235.67
1460.79
1544.35
1625.52
1204.25
1503.06
1414.14
1531.72
1515.55
1486.38
1323.03
1355.25
1283.14
1094.92
1065.23
1184.04
1686.46
1279.43
1137.24
1286.95
1616.43
1340.19
1685.28
1580.29
1481.3
1429.12
1476.66
1743.34
1184.38
1507.85
1632.47
1658.31
1425.3
1232.07
1335.69
1478.19
1666.48
1166.39
1358.32
1417.88
1609.03
1475.72
1475.45
1695.18
1170.8
1244.35
1209.25
1745.65
1622.92
1417.38
1606.92
1246.6
1278.93
1605.88
1475.13
1711.75
1196.13
1562.02
1596.07
1436.55
1462.57
1546.87
1203.7
1048.89
1397.34
1475.74
1759.26
1363.68
1262.49
1381.89
1478.36
1558.29
1427.71
1238.94
1365.41
1593
1177.14
1236.34
1364.88
1274.07
1452.63
1427.71
1652.52
1493.93
1578.53
1286.46
1385.37
1451.96
1374.55
1332.37
1295.05
1290.48
1177.43
1525.6
1445.14
1444.16
1483.22
1111.08
1309.09
1736.06
1741.44
1238.22
1612.63
1477.25
1522.01
1287.98
1662.77
1642.33
1189.7
1339.22
1305.22
1294.2
1105.19
1159.11
1305.04
1637.71
1837.21
1261.58
1545.03
1524.41
1470.81
1349.71
1453.94
1651.49
1450.29
1198.4
1311.13
1287.39
1302.03
1495.04
1525.29
1527.4
1540.37
1540.43
1241.46
1553.77
1318.41
1513.09
884.146
1484.53
1677.82
1331.34
997.822
1396.86
1356.54
1771.92
1214.19
1554.27
1381.4
1044.96
1726.22
1128.21
1357.13
1400.22
1109.71
1613.43
1455.02
1350.71
1422.51
1453.24
1354.83
1786.77
1136.31
1300.4
816.174
1330.3
1331.68
1409.25
1611.02
2014.75
1089.36
1304.27
1923.15
1130.83
1534.45
1233.06
1521.53
979.036
1216.53
1913.84
1027.1
1858.45
1071.58
1758.88
1051.5
1210.66
848.893
1139.53
1874.87
917.303
1381.01
1026.68
1700.47
1878.36
932.47
1342.7
1263.64
1198.76
1188.96
1305.3
1403.33
1402.7
1513.54
1381.04
1704.53
1945.08
927.19
1411.02
1479.55
1402.69
1435.1
1367.94
1335.17
1366.51
1571.11
1374.58
1575.44
1297.44
1445.44
1678.99
1328.83
1503.16
1615.67
1295.41
1445.49
1381.01
1510.63
1357.55
1423.08
1336.67
1601.64
1313.03
1468.15
1069.53
1719.16
944.488
1475.89
1592.76
1724.84
1219.75
1430.9
1381.15
1429.37
1414.31
1374.68
1567.3
1187.37
749.736
1349.68
1001.63
1628.55
1225.47
1396.84
1537.57
782.605
1676.54
1182.92
873.337
1214.65
1535.11
1517.15
1409.96
920.437
1407.59
1447.02
1259
1226.47
1636.27
1599.03
1282.79
1412.87
1637.71
928.08
1571.13
1221.06
1505.18
953.973
1838.08
1803.89
1593.92
1405.18
1337.23
1530.31
1324.85
916.467
1167.15
1544.04
1233.33
1494.37
995.061
1622.34
1509.49
647.819
1409.64
1458.38
801.223
1682.07
1062.08
1631.8
1722.07
1563.76
876.677
1420.6
1343.88
1412.06
1427.59
1492.42
931.247
1294.73
1238.71
1240.52
1615.12
1394.75
1468.65
1517.76
1505.33
1340.07
1427.97
1353.4
1466.07
1640.21
1280.51
1328.64
1265.58
1426.54
1590.3
1277.68
1320.24
1298.71
1398.11
1237.95
1256.5
1318.76
1337.56
1423.58
1315.14
1711.37
1570.54
1015.75
1027.47
1677.32
591.516
1549.59
1445.46
1238.73
1339.18
1691.49
783.671
1623.23
1466.98
897.815
1303.44
1260.61
1401.73
757.486
1668.62
1478.61
788.825
1647.76
1656.63
963.495
1727
1598.11
970.405
1265.66
1239.83
790.217
1402.81
1431.42
1176
1220.77
1208.53
671.375
1213.56
776.153
640.059
1606.1
1261.82
1874.66
1284.34
927.72
1671.43
1362.09
838.998
1280.73
1269.1
833.094
1025.98
1669.27
511.363
1169.66
1136.77
593.735
1624.6
1576.06
1401.05
1314.95
1265.91
1170.49
718.49
1408.99
1318.32
1330.53
1401.97
870.122
1543.25
1280.61
1372.38
1256.84
1363.49
1422.08
1156.5
893.069
1308.41
1440.54
1274.97
1315.02
1381.94
1219.57
1326.9
859.932
1283.89
1468.65
1260.69
1341.09
1227
902.106
1683.85
1676.08
1646.05
1732.87
960.347
803.791
1290.61
1560.29
1430.15
1531.61
1570.91
1170.29
1115.75
819.211
936.765
1216.69
1375.79
1359.82
1348.5
1119.87
1607.82
1465.91
975.548
1203.79
1160.03
1565.5
1223.89
717.422
1388.84
1389.46
1621.24
849.354
1267.49
1431.89
1295.64
1338.42
1522.99
1370.14
1175.65
1755.94
629.579
1087.19
1351.77
1222.46
1308.14
1726.49
1475.86
1395.62
1087.12
1682.37
1291.8
1421.88
1569.95
1621.92
1601.13
1620.08
1708.71
1764.39
1697.02
1697.88
1406.48
1583.22
1279.49
1338.41
1114.25
1044.61
676.025
1736.88
1720.09
1645.64
1325.92
1423.68
1407.08
1230.13
1438.46
1578.7
1185.36
1352.15
1510.7
1265
1285.4
1272.1
1322.57
1216.62
1314.33
1293.35
954.944
1429.38
1190.62
1349.81
831.975
1739.57
1361.57
1246.57
1207.93
983.249
1390.22
1253.79
792.72
1081.51
1354.93
1037.69
1097.58
1774.84
1803.37
1296.33
1298.37
1544.2
1721.44
785.858
1233.91
1217.15
1309.36
1307.84
1329
1366.88
1112.91
907.867
1672.45
1302.21
1061.98
1107.89
1294.91
1396.51
988.789
1341.15
1231.23
1279.24
1725.88
1070.17
919.195
1309.17
1260.85
1217.3
914.654
1626.61
1292.88
1280.14
1293.47
795.816
1298.39
1307.15
929.378
1291.4
1079.73
1465.05
1659.28
1230.9
1580.79
1452.41
1238.44
1246.79
1315.53
916.202
1453.08
1488.83
1269.74
849.929
1154.13
1342.97
1360.74
1234.07
889.943
1244.54
1621.83
1455.73
1251.72
1767.56
1069.58
1572.48
804.987
1056.99
1594.88
798.16
1605.96
1250.01
1395.35
1280.4
1797.31
1128.34
1400.68
1725.2
1682.97
1009.9
1661.65
1727.29
606.119
1348.16
1257.57
819.769
1492
1251.89
1281.35
1282.38
1370.5
1331.52
1269.8
1248.75
803.065
1487.86
1396.67
1380.21
1419.92
1325.55
1236.71
1157.46
1544.88
729.525
1210.3
1209.06
755.178
1593.76
1750.19
1365.82
1645.95
1683.81
1222.61
1250.47
1476.37
1643.35
1217.62
1508.59
1106.61
824.468
1550.07
1183.84
1621
1768.51
1717.85
849.51
1578.19
1407.87
1176.61
1267.19
1309.46
1255.12
859.529
1647.05
876.091
1637.82
1321.75
1106.95
1066.3
1332.78
1517.29
1703.07
1384.86
1842.78
1555.58
1607.37
792.358
1581.03
1529.76
1623.89
1226.34
1182.12
729.111
1356.12
1822.39
1650.69
900.528
1124.42
878.221
1225.73
1367.2
1099.36
1973.09
1283.13
1125.19
914.802
1452.79
1188.5
760.288
1342.08
1250.61
1257.7
1267.21
1271.14
920.02
1103.47
823.109
1255.92
1556.17
1467.39
1663.62
1623.91
1210.96
1156.9
803.281
1237.02
1525.69
1687.14
1554.13
1566.54
1063.23
750.065
1132.92
710.272
1542.52
1564.03
1158.4
1599.88
1539.7
1662.01
1442.97
1396.31
1388.32
1210.87
788.839
1144.92
849.251
1095.03
1267.51
1233.5
955.021
846.259
1503.98
1824
1771.23
1718.46
1381.68
1493.47
1483.7
1358.79
1266.86
1357.26
1174.24
1321
1323.36
848.335
1541.23
1302.37
1126.34
946.278
1249.2
1375.19
1372.18
1235.07
949.019
1702.3
1447.19
1256.31
1760.91
1183.13
826.378
1474.89
1323.67
1325.27
1324.81
1240.84
724.317
1332.17
1317.72
880.32
1691.47
1292.15
516.492
1266.25
1363.43
1381.6
1238.89
858.764
1202.35
1216.3
1042.96
1336.49
804.203
1349.9
1334.3
1018.94
1758.81
1315.88
929.341
1819.04
1358.14
1358.34
941.433
1333.85
874.852
)
;
    }
}


// ************************************************************************* //
