/*--------------------------------*- C++ -*----------------------------------*\
| =========                 |                                                 |
| \\      /  F ield         | OpenFOAM: The Open Source CFD Toolbox           |
|  \\    /   O peration     | Version:  v1912                                 |
|   \\  /    A nd           | Website:  www.openfoam.com                      |
|    \\/     M anipulation  |                                                 |
\*---------------------------------------------------------------------------*/
FoamFile
{
    version     2.0;
    format      ascii;
    class       surfaceScalarField;
    location    "284/oil";
    object      phi;
}
// * * * * * * * * * * * * * * * * * * * * * * * * * * * * * * * * * * * * * //

dimensions      [1 0 -1 0 0 0 0];
oriented        oriented;


internalField   nonuniform List<scalar> 
104676
(
-1.15127e-11
2.71812e-11
-1.47153e-11
2.75704e-10
-2.26487e-10
-6.07279e-11
8.63102e-10
-4.24694e-10
-1.62698e-10
1.65986e-09
-5.18088e-10
-2.78658e-10
2.5489e-09
-5.29718e-10
-3.5931e-10
3.41327e-09
-4.81745e-10
-3.82604e-10
4.1474e-09
-3.91601e-10
-3.42508e-10
4.66305e-09
-2.72227e-10
-2.43403e-10
4.89147e-09
-1.33634e-10
-9.47682e-11
4.79524e-09
1.16887e-11
8.45518e-11
4.35612e-09
1.61857e-10
2.77266e-10
3.60451e-09
2.84404e-10
4.672e-10
2.57972e-09
3.95768e-10
6.29035e-10
1.35534e-09
4.76436e-10
7.4798e-10
2.50604e-11
5.19063e-10
8.11253e-10
-1.30935e-09
5.21362e-10
8.13088e-10
-2.53705e-09
4.7685e-10
7.50857e-10
-3.5659e-09
3.95405e-10
6.33441e-10
-4.32475e-09
2.86082e-10
4.72748e-10
-4.76927e-09
1.58358e-10
2.86156e-10
-4.87725e-09
1.27994e-11
9.52064e-11
-4.65385e-09
-1.3638e-10
-8.69733e-11
-4.14232e-09
-2.74441e-10
-2.37044e-10
-3.41128e-09
-3.93669e-10
-3.37339e-10
-2.54945e-09
-4.83422e-10
-3.78404e-10
-1.66222e-09
-5.32328e-10
-3.54912e-10
-8.66051e-10
-5.22061e-10
-2.7413e-10
-2.78338e-10
-4.29287e-10
-1.58433e-10
9.83579e-12
-2.30681e-10
-5.74601e-11
2.26733e-11
-1.2806e-11
2.8173e-10
-5.36261e-10
2.8172e-10
1.08723e-09
-1.61066e-09
5.78682e-10
2.36681e-09
-2.421e-09
7.16731e-10
3.97817e-09
-2.91468e-09
7.85238e-10
5.72759e-09
-3.15136e-09
8.7224e-10
7.40645e-09
-3.18928e-09
1.02869e-09
8.81769e-09
-3.07831e-09
1.27549e-09
9.79076e-09
-2.85774e-09
1.61247e-09
1.01927e-08
-2.56053e-09
2.02493e-09
9.93852e-09
-2.21636e-09
2.4823e-09
8.98844e-09
-1.85426e-09
2.9662e-09
7.39497e-09
-1.53717e-09
3.41504e-09
5.27724e-09
-1.25829e-09
3.7718e-09
2.76941e-09
-1.05653e-09
4.04082e-09
5.05724e-11
-9.51003e-10
4.18895e-09
-2.67876e-09
-9.51656e-10
4.20239e-09
-5.19326e-09
-1.06144e-09
4.05281e-09
-7.31275e-09
-1.26674e-09
3.78163e-09
-8.89277e-09
-1.54622e-09
3.4123e-09
-9.84532e-09
-1.86939e-09
2.9803e-09
-1.01143e-08
-2.22653e-09
2.50833e-09
-9.72547e-09
-2.5682e-09
2.04304e-09
-8.76851e-09
-2.86249e-09
1.63113e-09
-7.37462e-09
-3.08212e-09
1.29459e-09
-5.71002e-09
-3.1941e-09
1.04609e-09
-3.97333e-09
-3.15782e-09
8.88773e-10
-2.36995e-09
-2.92546e-09
8.00019e-10
-1.09128e-09
-2.4352e-09
7.27246e-10
-2.83058e-10
-1.62228e-09
5.83422e-10
-5.42438e-10
2.82083e-10
5.92712e-10
-1.72733e-09
5.98376e-10
1.88388e-09
-4.18201e-09
1.28019e-09
3.69481e-09
-5.93631e-09
1.70439e-09
5.84744e-09
-7.08104e-09
2.01373e-09
8.11896e-09
-7.7389e-09
2.31604e-09
1.02641e-08
-8.01147e-09
2.67711e-09
1.20431e-08
-7.98615e-09
3.12885e-09
1.32436e-08
-7.735e-09
3.67672e-09
1.37e-08
-7.32355e-09
4.30667e-09
1.33062e-08
-6.80684e-09
4.98432e-09
1.20102e-08
-6.24461e-09
5.68632e-09
9.86696e-09
-5.71308e-09
6.31917e-09
7.03157e-09
-5.24699e-09
6.82411e-09
3.68693e-09
-4.90672e-09
7.19487e-09
6.50143e-11
-4.73131e-09
7.40226e-09
-3.57412e-09
-4.73968e-09
7.42721e-09
-6.92896e-09
-4.91834e-09
7.21175e-09
-9.76443e-09
-5.26051e-09
6.82924e-09
-1.18948e-08
-5.72317e-09
6.30735e-09
-1.32073e-08
-6.25933e-09
5.70237e-09
-1.36225e-08
-6.82028e-09
5.00902e-09
-1.31818e-08
-7.33314e-09
4.32429e-09
-1.19978e-08
-7.74249e-09
3.69601e-09
-1.02361e-08
-7.99179e-09
3.148e-09
-8.10693e-09
-8.01853e-09
2.69528e-09
-5.84629e-09
-7.75065e-09
2.33219e-09
-3.70077e-09
-7.09756e-09
2.02658e-09
-1.89113e-09
-5.95638e-09
1.71157e-09
-5.9619e-10
-4.1977e-09
1.28051e-09
-1.73585e-09
5.97241e-10
8.49941e-10
-3.43754e-09
8.60285e-10
2.54974e-09
-7.73763e-09
1.85584e-09
4.79147e-09
-1.06879e-08
2.50987e-09
7.35629e-09
-1.26598e-08
3.0139e-09
9.9991e-09
-1.38786e-08
3.49694e-09
1.24559e-08
-1.44999e-08
4.03166e-09
1.44672e-08
-1.46527e-08
4.65517e-09
1.5801e-08
-1.44437e-08
5.37497e-09
1.62688e-08
-1.397e-08
6.17868e-09
1.57485e-08
-1.33205e-08
7.03396e-09
1.41792e-08
-1.2585e-08
7.90966e-09
1.16349e-08
-1.18513e-08
8.68262e-09
8.28444e-09
-1.12124e-08
9.31583e-09
4.3407e-09
-1.072e-08
9.75705e-09
7.34663e-11
-1.04691e-08
1.00051e-08
-4.21661e-09
-1.04869e-08
1.00373e-08
-8.17376e-09
-1.07325e-08
9.77134e-09
-1.15261e-08
-1.12119e-08
9.30376e-09
-1.40589e-08
-1.18542e-08
8.66383e-09
-1.56416e-08
-1.25907e-08
7.91411e-09
-1.61814e-08
-1.33265e-08
7.04608e-09
-1.57311e-08
-1.39745e-08
6.19108e-09
-1.44165e-08
-1.44476e-08
5.3905e-09
-1.24226e-08
-1.46561e-08
4.6704e-09
-9.9828e-09
-1.45059e-08
4.04758e-09
-7.35438e-09
-1.38905e-08
3.5114e-09
-4.79644e-09
-1.26792e-08
3.02368e-09
-2.55689e-09
-1.07068e-08
2.51088e-09
-8.56197e-10
-7.74414e-09
1.84578e-09
-3.44917e-09
8.57138e-10
1.04396e-09
-5.53508e-09
1.05361e-09
3.05914e-09
-1.20294e-08
2.27663e-09
5.63838e-09
-1.63694e-08
3.10228e-09
8.52133e-09
-1.92929e-08
3.75023e-09
1.14424e-08
-2.11686e-08
4.36889e-09
1.41247e-08
-2.2222e-08
5.03983e-09
1.62983e-08
-2.26283e-08
5.80212e-09
1.77183e-08
-2.25301e-08
6.66638e-09
1.81878e-08
-2.2056e-08
7.61642e-09
1.75725e-08
-2.13265e-08
8.62138e-09
1.5807e-08
-2.04654e-08
9.6459e-09
1.2968e-08
-1.95807e-08
1.05683e-08
9.22623e-09
-1.87863e-08
1.13157e-08
4.83119e-09
-1.81411e-08
1.18162e-08
7.90689e-11
-1.78148e-08
1.20979e-08
-4.69981e-09
-1.7839e-08
1.21311e-08
-9.10432e-09
-1.81568e-08
1.18288e-08
-1.28411e-08
-1.87633e-08
1.12881e-08
-1.56783e-08
-1.95745e-08
1.05576e-08
-1.74589e-08
-2.04646e-08
9.65451e-09
-1.80943e-08
-2.13268e-08
8.6357e-09
-1.76441e-08
-2.20563e-08
7.63166e-09
-1.62424e-08
-2.25315e-08
6.6823e-09
-1.40857e-08
-2.26307e-08
5.8179e-09
-1.14198e-08
-2.22266e-08
5.05482e-09
-8.51395e-09
-2.11778e-08
4.38153e-09
-5.64144e-09
-1.93089e-08
3.75724e-09
-3.06428e-09
-1.63833e-08
3.09938e-09
-1.04939e-09
-1.20209e-08
2.2619e-09
-5.54939e-09
1.05083e-09
1.1743e-09
-7.89506e-09
1.18571e-09
3.41339e-09
-1.6826e-08
2.55752e-09
6.23796e-09
-2.26952e-08
3.50128e-09
9.35169e-09
-2.66587e-08
4.25205e-09
1.24734e-08
-2.92599e-08
4.96954e-09
1.53177e-08
-3.08114e-08
5.74511e-09
1.76086e-08
-3.15392e-08
6.62003e-09
1.90944e-08
-3.16231e-08
7.6073e-09
1.95708e-08
-3.12213e-08
8.68888e-09
1.88986e-08
-3.04824e-08
9.82826e-09
1.70092e-08
-2.95578e-08
1.09817e-08
1.39549e-08
-2.85958e-08
1.20694e-08
9.92386e-09
-2.76902e-08
1.2935e-08
5.19347e-09
-2.69032e-08
1.34926e-08
7.9165e-11
-2.64923e-08
1.37918e-08
-5.06422e-09
-2.65185e-08
1.38229e-08
-9.79455e-09
-2.69394e-08
1.3513e-08
-1.38124e-08
-2.76455e-08
1.29001e-08
-1.68708e-08
-2.8582e-08
1.20659e-08
-1.87785e-08
-2.95536e-08
1.09967e-08
-1.94732e-08
-3.0479e-08
9.84693e-09
-1.90174e-08
-3.12197e-08
8.7076e-09
-1.75504e-08
-3.16239e-08
7.62544e-09
-1.52766e-08
-3.15415e-08
6.63701e-09
-1.24471e-08
-3.08156e-08
5.75945e-09
-9.33938e-09
-2.92668e-08
4.98128e-09
-6.2371e-09
-2.66684e-08
4.25724e-09
-3.41879e-09
-2.26969e-08
3.49526e-09
-1.18034e-09
-1.68015e-08
2.54219e-09
-7.91396e-09
1.18424e-09
1.23988e-09
-1.04018e-08
1.26692e-09
3.61672e-09
-2.19426e-08
2.73979e-09
6.59596e-09
-2.94201e-08
3.7456e-09
9.85278e-09
-3.44687e-08
4.55317e-09
1.30977e-08
-3.78424e-08
5.33759e-09
1.60423e-08
-3.99471e-08
6.19114e-09
1.84094e-08
-4.10633e-08
7.15698e-09
1.99428e-08
-4.1407e-08
8.25066e-09
2.04349e-08
-4.11645e-08
9.45116e-09
1.97385e-08
-4.05045e-08
1.07184e-08
1.77838e-08
-3.96048e-08
1.20018e-08
1.45881e-08
-3.86382e-08
1.3238e-08
1.03788e-08
-3.77088e-08
1.4228e-08
5.43078e-09
-3.67933e-08
1.48381e-08
8.6053e-11
-3.6305e-08
1.51575e-08
-5.28317e-09
-3.63451e-08
1.51959e-08
-1.02476e-08
-3.68614e-08
1.48865e-08
-1.4442e-08
-3.7655e-08
1.4204e-08
-1.76415e-08
-3.86248e-08
1.32423e-08
-1.9616e-08
-3.9604e-08
1.20249e-08
-2.03347e-08
-4.05046e-08
1.07443e-08
-1.98641e-08
-4.11653e-08
9.47511e-09
-1.83497e-08
-4.14103e-08
8.27199e-09
-1.59999e-08
-4.10684e-08
7.17713e-09
-1.30692e-08
-3.99529e-08
6.2066e-09
-9.83767e-09
-3.78476e-08
5.34923e-09
-6.59317e-09
-3.4469e-08
4.55608e-09
-3.62578e-09
-2.93959e-08
3.73164e-09
-1.25494e-09
-2.1883e-08
2.7106e-09
-1.04324e-08
1.26354e-09
1.26443e-09
-1.296e-08
1.29374e-09
3.68138e-09
-2.7169e-08
2.80946e-09
6.7117e-09
-3.62953e-08
3.84488e-09
1.00174e-08
-4.24511e-08
4.67662e-09
1.32994e-08
-4.66181e-08
5.49379e-09
1.62736e-08
-4.9321e-08
6.39965e-09
1.86675e-08
-5.0892e-08
7.4348e-09
2.02262e-08
-5.158e-08
8.61429e-09
2.07379e-08
-5.15938e-08
9.91764e-09
2.00527e-08
-5.11204e-08
1.13011e-08
1.80881e-08
-5.0348e-08
1.27079e-08
1.48436e-08
-4.9473e-08
1.40793e-08
1.05548e-08
-4.86288e-08
1.52089e-08
5.51488e-09
-4.76077e-08
1.58543e-08
8.55998e-11
-4.70858e-08
1.62101e-08
-5.37582e-09
-4.71349e-08
1.62512e-08
-1.04517e-08
-4.76778e-08
1.58923e-08
-1.47073e-08
-4.85717e-08
1.51723e-08
-1.79475e-08
-4.94627e-08
1.40782e-08
-1.99303e-08
-5.03516e-08
1.27304e-08
-2.06386e-08
-5.11236e-08
1.13273e-08
-2.01481e-08
-5.15981e-08
9.94239e-09
-1.86076e-08
-5.15878e-08
8.63709e-09
-1.62301e-08
-5.09024e-08
7.45645e-09
-1.32693e-08
-4.9331e-08
6.41741e-09
-1.00011e-08
-4.66216e-08
5.5058e-09
-6.71249e-09
-4.24291e-08
4.67147e-09
-3.6961e-09
-3.62278e-08
3.81557e-09
-1.27815e-09
-2.70717e-08
2.77076e-09
-1.30033e-08
1.29276e-09
1.24248e-09
-1.54727e-08
1.27029e-09
3.60188e-09
-3.23001e-08
2.7717e-09
6.57033e-09
-4.30805e-08
3.81684e-09
9.81886e-09
-5.03494e-08
4.64978e-09
1.3046e-08
-5.53047e-08
5.45943e-09
1.59668e-08
-5.86164e-08
6.37456e-09
1.83242e-08
-6.0694e-08
7.44474e-09
1.9873e-08
-6.18059e-08
8.67724e-09
2.04014e-08
-6.21718e-08
1.00495e-08
1.97564e-08
-6.19924e-08
1.1517e-08
1.786e-08
-6.14599e-08
1.30084e-08
1.46974e-08
-6.07639e-08
1.44534e-08
1.04334e-08
-6.00632e-08
1.56983e-08
5.44438e-09
-5.90108e-08
1.63922e-08
8.11709e-11
-5.85337e-08
1.68112e-08
-5.32094e-09
-5.85772e-08
1.68444e-08
-1.03599e-08
-5.90372e-08
1.63984e-08
-1.4585e-08
-5.99762e-08
1.56296e-08
-1.77261e-08
-6.07542e-08
1.44326e-08
-1.9637e-08
-6.14671e-08
1.30264e-08
-2.0303e-08
-6.20011e-08
1.15435e-08
-1.97953e-08
-6.21811e-08
1.00753e-08
-1.82649e-08
-6.1819e-08
8.70086e-09
-1.59231e-08
-6.07111e-08
7.46688e-09
-1.30171e-08
-5.86269e-08
6.38984e-09
-9.81294e-09
-5.5279e-08
5.45327e-09
-6.58749e-09
-5.02619e-08
4.60739e-09
-3.62718e-09
-4.29416e-08
3.75353e-09
-1.25097e-09
-3.21751e-08
2.72729e-09
-1.55253e-08
1.27103e-09
1.17875e-09
-1.78426e-08
1.19113e-09
3.4058e-09
-3.71294e-08
2.60231e-09
6.17922e-09
-4.94739e-08
3.61996e-09
9.23602e-09
-5.78549e-08
4.44877e-09
1.22978e-08
-6.36019e-08
5.23543e-09
1.50714e-08
-6.74999e-08
6.10984e-09
1.73152e-08
-7.01016e-08
7.1637e-09
1.88035e-08
-7.16938e-08
8.39965e-09
1.93375e-08
-7.24939e-08
9.78812e-09
1.87611e-08
-7.26999e-08
1.1284e-08
1.69995e-08
-7.25028e-08
1.28044e-08
1.40384e-08
-7.20734e-08
1.42706e-08
9.93437e-09
-7.15351e-08
1.5576e-08
5.18079e-09
-7.05867e-08
1.63295e-08
7.53448e-11
-7.02017e-08
1.67735e-08
-5.06007e-09
-7.02427e-08
1.6801e-08
-9.84668e-09
-7.05614e-08
1.63108e-08
-1.39287e-08
-7.13605e-08
1.54662e-08
-1.68745e-08
-7.205e-08
1.42416e-08
-1.86459e-08
-7.25155e-08
1.28197e-08
-1.92427e-08
-7.27137e-08
1.13095e-08
-1.87296e-08
-7.25076e-08
9.81334e-09
-1.72576e-08
-7.17137e-08
8.42262e-09
-1.50265e-08
-7.01251e-08
7.18292e-09
-1.22754e-08
-6.74874e-08
6.10945e-09
-9.24795e-09
-6.34913e-08
5.18486e-09
-6.19994e-09
-5.7669e-08
4.35911e-09
-3.40881e-09
-4.92712e-08
3.53845e-09
-1.1746e-09
-3.69751e-08
2.56582e-09
-1.78971e-08
1.19722e-09
1.06369e-09
-1.99634e-08
1.05716e-09
3.0803e-09
-4.14255e-08
2.27948e-09
5.56562e-09
-5.51508e-08
3.19154e-09
8.2811e-09
-6.45727e-08
4.00228e-09
1.10349e-08
-7.11178e-08
4.76209e-09
1.35459e-08
-7.55815e-08
5.57065e-09
1.55883e-08
-7.86977e-08
6.55372e-09
1.69592e-08
-8.07972e-08
7.73252e-09
1.74751e-08
-8.20746e-08
9.06492e-09
1.69934e-08
-8.27146e-08
1.04964e-08
1.54594e-08
-8.28857e-08
1.19169e-08
1.28334e-08
-8.27114e-08
1.3264e-08
9.05246e-09
-8.22948e-08
1.45407e-08
4.71205e-09
-8.16735e-08
1.54273e-08
6.82534e-11
-8.14485e-08
1.58906e-08
-4.59393e-09
-8.14897e-08
1.59092e-08
-8.91186e-09
-8.16532e-08
1.54097e-08
-1.26243e-08
-8.22087e-08
1.45606e-08
-1.52876e-08
-8.28167e-08
1.343e-08
-1.68752e-08
-8.29338e-08
1.2006e-08
-1.73826e-08
-8.27352e-08
1.05289e-08
-1.68893e-08
-8.20856e-08
9.08481e-09
-1.55319e-08
-8.08199e-08
7.74888e-09
-1.34975e-08
-7.87227e-08
6.56318e-09
-1.10105e-08
-7.55178e-08
5.54337e-09
-8.28054e-09
-7.08897e-08
4.66835e-09
-5.53025e-09
-6.43096e-08
3.89029e-09
-3.02561e-09
-5.4915e-08
3.1392e-09
-1.03254e-09
-4.12392e-08
2.27103e-09
-1.99943e-08
1.06464e-09
8.96216e-10
-2.17321e-08
8.7246e-10
2.61435e-09
-4.49758e-08
1.83215e-09
4.71428e-09
-5.97712e-08
2.5205e-09
6.99167e-09
-7.0062e-08
3.21193e-09
9.26012e-09
-7.73289e-08
3.94268e-09
1.1367e-08
-8.23841e-08
4.69572e-09
1.31086e-08
-8.60022e-08
5.56276e-09
1.43061e-08
-8.8608e-08
6.61331e-09
1.4793e-08
-9.03668e-08
7.8053e-09
1.44393e-08
-9.14084e-08
9.04763e-09
1.31584e-08
-9.18698e-08
1.0265e-08
1.087e-08
-9.1978e-08
1.15549e-08
7.67819e-09
-9.18751e-08
1.2772e-08
4.00876e-09
-9.15961e-08
1.3592e-08
5.69684e-11
-9.15056e-08
1.40089e-08
-3.92327e-09
-9.14819e-08
1.39724e-08
-7.59946e-09
-9.14511e-08
1.34741e-08
-1.07458e-08
-9.17458e-08
1.26835e-08
-1.29929e-08
-9.22392e-08
1.16697e-08
-1.43029e-08
-9.19633e-08
1.03395e-08
-1.469e-08
-9.13957e-08
9.04761e-09
-1.42355e-08
-9.03336e-08
7.79352e-09
-1.30537e-08
-8.86131e-08
6.61132e-09
-1.13015e-08
-8.60271e-08
5.55229e-09
-9.19553e-09
-8.22784e-08
4.6546e-09
-6.91064e-09
-7.70827e-08
3.90808e-09
-4.64002e-09
-6.98573e-08
3.27711e-09
-2.55526e-09
-5.96647e-08
2.66492e-09
-8.81514e-10
-4.48444e-08
1.93145e-09
-2.17773e-08
9.01496e-10
6.87547e-10
-2.30773e-08
6.57661e-10
1.98036e-09
-4.76696e-08
1.40098e-09
3.60149e-09
-6.32841e-08
1.89182e-09
5.33772e-09
-7.41135e-08
2.31525e-09
7.02071e-09
-8.18519e-08
2.84001e-09
8.58725e-09
-8.74261e-08
3.47547e-09
9.90856e-09
-9.15157e-08
4.19226e-09
1.08642e-08
-9.45703e-08
5.00667e-09
1.13311e-08
-9.67531e-08
5.91942e-09
1.1082e-08
-9.80678e-08
6.90846e-09
9.98457e-09
-9.87802e-08
8.00787e-09
8.14514e-09
-9.92757e-08
9.1372e-09
5.83243e-09
-9.96517e-08
1.00894e-08
3.08136e-09
-9.95887e-08
1.07437e-08
4.97187e-11
-9.95316e-08
1.10577e-08
-3.03261e-09
-9.93843e-08
1.09847e-08
-5.84054e-09
-9.92245e-08
1.05813e-08
-8.20423e-09
-9.92839e-08
9.9017e-09
-9.98821e-09
-9.93959e-08
8.94061e-09
-1.09774e-08
-9.87364e-08
7.76229e-09
-1.12179e-08
-9.79003e-08
6.7452e-09
-1.08339e-08
-9.65218e-08
5.8042e-09
-9.92974e-09
-9.4457e-08
4.93979e-09
-8.61559e-09
-9.15533e-08
4.21198e-09
-7.0146e-09
-8.7464e-08
3.58462e-09
-5.27514e-09
-8.18363e-08
3.01415e-09
-3.54155e-09
-7.41004e-08
2.50955e-09
-1.94974e-09
-6.32811e-08
2.02457e-09
-6.7357e-10
-4.75837e-08
1.46313e-09
-2.31325e-08
6.81659e-10
4.64437e-10
-2.39417e-08
3.99936e-10
1.2525e-09
-4.92983e-08
8.40649e-10
2.26409e-09
-6.55115e-08
1.21583e-09
3.36204e-09
-7.67293e-08
1.51793e-09
4.43928e-09
-8.47948e-08
1.86561e-09
5.4475e-09
-9.07002e-08
2.26589e-09
6.29419e-09
-9.50537e-08
2.69126e-09
6.86908e-09
-9.82631e-08
3.11792e-09
7.17901e-09
-1.00646e-07
3.58267e-09
6.99808e-09
-1.02153e-07
4.26653e-09
6.27808e-09
-1.03168e-07
5.10765e-09
5.16399e-09
-1.04043e-07
5.88115e-09
3.70659e-09
-1.0468e-07
6.48608e-09
1.96522e-09
-1.04754e-07
6.90628e-09
5.93869e-11
-1.04765e-07
7.13952e-09
-1.8755e-09
-1.04569e-07
7.11927e-09
-3.64932e-09
-1.04333e-07
6.88253e-09
-5.11324e-09
-1.0427e-07
6.45056e-09
-6.25678e-09
-1.04114e-07
5.86135e-09
-6.95996e-09
-1.03117e-07
5.08396e-09
-7.22186e-09
-1.01902e-07
4.26326e-09
-7.0171e-09
-1.00225e-07
3.49857e-09
-6.39719e-09
-9.79887e-08
2.91171e-09
-5.48145e-09
-9.49789e-08
2.50986e-09
-4.42453e-09
-9.07124e-08
2.19149e-09
-3.31433e-09
-8.48276e-08
1.88115e-09
-2.21893e-09
-7.67691e-08
1.57331e-09
-1.21797e-09
-6.55504e-08
1.2684e-09
-4.21169e-10
-4.92951e-08
9.14613e-10
-2.39795e-08
4.2578e-10
1.69674e-10
-2.42472e-08
1.35877e-10
4.35314e-10
-4.98548e-08
2.90867e-10
7.91426e-10
-6.63019e-08
4.34225e-10
1.18256e-09
-7.76628e-08
5.42321e-10
1.57759e-09
-8.58403e-08
6.50564e-10
1.97781e-09
-9.18413e-08
7.40859e-10
2.34999e-09
-9.62455e-08
8.19681e-10
2.57223e-09
-9.94329e-08
9.47545e-10
2.6036e-09
-1.01825e-07
1.14765e-09
2.46349e-09
-1.03446e-07
1.43289e-09
2.24057e-09
-1.04677e-07
1.73178e-09
1.91351e-09
-1.057e-07
1.98472e-09
1.2982e-09
-1.06221e-07
2.15631e-09
6.45353e-10
-1.06379e-07
2.27805e-09
3.47635e-11
-1.06555e-07
2.40014e-09
-6.44803e-10
-1.06393e-07
2.50367e-09
-1.28062e-09
-1.06196e-07
2.4986e-09
-1.78327e-09
-1.06102e-07
2.33454e-09
-2.1792e-09
-1.05835e-07
2.117e-09
-2.42406e-09
-1.04723e-07
1.85026e-09
-2.52358e-09
-1.03371e-07
1.56848e-09
-2.46145e-09
-1.01584e-07
1.29635e-09
-2.24554e-09
-9.92788e-08
1.07423e-09
-1.92159e-09
-9.62082e-08
9.05346e-10
-1.54507e-09
-9.18539e-08
7.65012e-10
-1.15126e-09
-8.58604e-08
6.38956e-10
-7.64397e-10
-7.76845e-08
5.28469e-10
-4.1481e-10
-6.63253e-08
4.25251e-10
-1.4263e-10
-4.98709e-08
3.03589e-10
-2.42683e-08
1.46191e-10
-1.19643e-10
-2.3996e-08
-1.31594e-10
-3.71822e-10
-4.93371e-08
-2.65537e-10
-6.81967e-10
-6.56297e-08
-3.62067e-10
-1.02132e-09
-7.68725e-08
-4.50965e-10
-1.37133e-09
-8.49567e-08
-5.33619e-10
-1.72317e-09
-9.08969e-08
-5.92526e-10
-2.05163e-09
-9.52803e-08
-6.36776e-10
-2.26027e-09
-9.85005e-08
-7.23833e-10
-2.26469e-09
-1.00894e-07
-9.26047e-10
-2.11245e-09
-1.0237e-07
-1.22876e-09
-1.91512e-09
-1.03357e-07
-1.51663e-09
-1.74433e-09
-1.04162e-07
-1.70945e-09
-1.47384e-09
-1.04657e-07
-1.83451e-09
-9.09464e-10
-1.04978e-07
-1.9653e-09
-8.65472e-11
-1.05213e-07
-2.16453e-09
5.89441e-10
-1.04827e-07
-2.24166e-09
1.17137e-09
-1.04627e-07
-2.15128e-09
1.69438e-09
-1.04616e-07
-2.00918e-09
1.98239e-09
-1.04296e-07
-1.82638e-09
2.16727e-09
-1.03296e-07
-1.61162e-09
2.25912e-09
-1.02091e-07
-1.37191e-09
2.20909e-09
-1.00407e-07
-1.12612e-09
2.03612e-09
-9.81724e-08
-9.3347e-10
1.74578e-09
-9.51233e-08
-7.94536e-10
1.40925e-09
-9.08293e-08
-6.88019e-10
1.06015e-09
-8.49242e-08
-5.87079e-10
7.11505e-10
-7.68494e-08
-4.86459e-10
3.95514e-10
-6.56238e-08
-3.85503e-10
1.42513e-10
-4.93501e-08
-2.67784e-10
-2.40011e-08
-1.24714e-10
-4.05963e-10
-2.31802e-08
-4.09825e-10
-1.17947e-09
-4.76867e-08
-8.7684e-10
-2.14495e-09
-6.34466e-08
-1.21759e-09
-3.20223e-09
-7.43031e-08
-1.51201e-09
-4.26456e-09
-8.20751e-08
-1.81928e-09
-5.24932e-09
-8.77494e-08
-2.16271e-09
-6.06754e-09
-9.19147e-08
-2.54742e-09
-6.64694e-09
-9.49401e-08
-2.98103e-09
-6.91494e-09
-9.71584e-08
-3.46791e-09
-6.70828e-09
-9.8478e-08
-4.09835e-09
-6.0192e-09
-9.91592e-08
-4.8872e-09
-5.0267e-09
-9.95565e-08
-5.59776e-09
-3.67651e-09
-9.98636e-08
-6.14395e-09
-1.97846e-09
-1.00103e-07
-6.5729e-09
-3.53216e-11
-1.00305e-07
-6.85125e-09
1.84179e-09
-9.98787e-08
-6.82555e-09
3.60679e-09
-9.98018e-08
-6.58979e-09
5.15112e-09
-9.99964e-08
-6.16406e-09
6.07759e-09
-9.96462e-08
-5.57658e-09
6.67968e-09
-9.89908e-08
-4.90721e-09
6.94634e-09
-9.82197e-08
-4.13753e-09
6.74671e-09
-9.68736e-08
-3.33427e-09
6.16964e-09
-9.47898e-08
-2.80545e-09
5.28696e-09
-9.17871e-08
-2.45348e-09
4.27323e-09
-8.76784e-08
-2.13721e-09
3.22349e-09
-8.20535e-08
-1.82098e-09
2.17001e-09
-7.4296e-08
-1.49995e-09
1.21305e-09
-6.34808e-08
-1.18601e-09
4.40674e-10
-4.77528e-08
-8.2495e-10
-2.3167e-08
-3.93394e-10
-6.64239e-10
-2.18501e-08
-6.659e-10
-1.91486e-09
-4.50058e-08
-1.43036e-09
-3.4767e-09
-5.98989e-08
-1.98579e-09
-5.17894e-09
-7.01355e-08
-2.46534e-09
-6.88093e-09
-7.74072e-08
-2.96588e-09
-8.4353e-09
-8.26495e-08
-3.54558e-09
-9.70261e-09
-8.64338e-08
-4.21367e-09
-1.05999e-08
-8.90556e-08
-4.98729e-09
-1.10485e-08
-9.08503e-08
-5.85956e-09
-1.08276e-08
-9.19294e-08
-6.76952e-09
-9.77898e-09
-9.23918e-08
-7.81602e-09
-8.03806e-09
-9.23984e-08
-8.89902e-09
-5.76014e-09
-9.23262e-08
-9.81538e-09
-3.04496e-09
-9.23352e-08
-1.0483e-08
-3.93166e-11
-9.24679e-08
-1.0843e-08
2.9513e-09
-9.21078e-08
-1.07615e-08
5.73683e-09
-9.21692e-08
-1.04181e-08
8.14884e-09
-9.2639e-08
-9.7694e-09
9.78902e-09
-9.24578e-08
-8.82861e-09
1.07804e-08
-9.21905e-08
-7.79176e-09
1.10804e-08
-9.17713e-08
-6.7485e-09
1.07004e-08
-9.07914e-08
-5.70232e-09
9.76171e-09
-8.90517e-08
-4.79944e-09
8.43085e-09
-8.64079e-08
-4.04832e-09
6.85487e-09
-8.2697e-08
-3.40545e-09
5.18505e-09
-7.7551e-08
-2.8327e-09
3.51635e-09
-7.02961e-08
-2.33119e-09
1.9747e-09
-6.00861e-08
-1.85314e-09
7.05454e-10
-4.51804e-08
-1.30316e-09
-2.18327e-08
-6.2887e-10
-8.86658e-10
-2.0083e-08
-8.80575e-10
-2.53269e-09
-4.14646e-08
-1.89514e-09
-4.59227e-09
-5.51951e-08
-2.64422e-09
-6.84036e-09
-6.46226e-08
-3.26481e-09
-9.09845e-09
-7.12511e-08
-3.89792e-09
-1.11903e-08
-7.59208e-08
-4.63681e-09
-1.29315e-08
-7.91671e-08
-5.52541e-09
-1.41078e-08
-8.13077e-08
-6.57165e-09
-1.45878e-08
-8.26302e-08
-7.74018e-09
-1.42456e-08
-8.33212e-08
-8.95032e-09
-1.29629e-08
-8.35213e-08
-1.01532e-08
-1.06684e-08
-8.33092e-08
-1.13836e-08
-7.57758e-09
-8.28696e-08
-1.25473e-08
-3.97022e-09
-8.25434e-08
-1.33993e-08
-3.19806e-11
-8.25553e-08
-1.38509e-08
3.89718e-09
-8.22998e-08
-1.37372e-08
7.54062e-09
-8.25024e-08
-1.33102e-08
1.06798e-08
-8.32213e-08
-1.25569e-08
1.29343e-08
-8.33903e-08
-1.13219e-08
1.42319e-08
-8.34807e-08
-1.00074e-08
1.46087e-08
-8.33061e-08
-8.84205e-09
1.4152e-08
-8.26524e-08
-7.6824e-09
1.29752e-08
-8.13445e-08
-6.53028e-09
1.1254e-08
-7.91973e-08
-5.4894e-09
9.16781e-09
-7.59959e-08
-4.6149e-09
6.92402e-09
-7.14521e-08
-3.85516e-09
4.70156e-09
-6.49648e-08
-3.10889e-09
2.62917e-09
-5.56084e-08
-2.40533e-09
9.28988e-10
-4.17823e-08
-1.69794e-09
-2.00716e-08
-8.32049e-10
-1.05941e-09
-1.79748e-08
-1.0488e-09
-3.01734e-09
-3.72611e-08
-2.24567e-09
-5.49385e-09
-4.95798e-08
-3.13881e-09
-8.22643e-09
-5.80012e-08
-3.88875e-09
-1.09531e-08
-6.38718e-08
-4.65258e-09
-1.34405e-08
-6.79175e-08
-5.51596e-09
-1.54758e-08
-7.06016e-08
-6.53021e-09
-1.6837e-08
-7.22404e-08
-7.70626e-09
-1.73455e-08
-7.30878e-08
-9.034e-09
-1.68661e-08
-7.33438e-08
-1.04567e-08
-1.53319e-08
-7.31844e-08
-1.18712e-08
-1.26974e-08
-7.27658e-08
-1.31778e-08
-9.00389e-09
-7.21809e-08
-1.43821e-08
-4.67407e-09
-7.15295e-08
-1.53438e-08
-2.3353e-11
-7.13128e-08
-1.58934e-08
4.61105e-09
-7.11303e-08
-1.5804e-08
8.92808e-09
-7.14874e-08
-1.5332e-08
1.26177e-08
-7.23887e-08
-1.45221e-08
1.52866e-08
-7.28194e-08
-1.32399e-08
1.68588e-08
-7.3201e-08
-1.18518e-08
1.7355e-08
-7.33633e-08
-1.0439e-08
1.68551e-08
-7.3119e-08
-9.0336e-09
1.54996e-08
-7.22795e-08
-7.70946e-09
1.34758e-08
-7.06436e-08
-6.52994e-09
1.09833e-08
-6.79718e-08
-5.5315e-09
8.23833e-09
-6.39872e-08
-4.71998e-09
5.5098e-09
-5.82388e-08
-3.9975e-09
3.04773e-09
-4.99061e-08
-3.24019e-09
1.06735e-09
-3.75044e-08
-2.29747e-09
-1.79577e-08
-1.04663e-09
-1.17615e-09
-1.56057e-08
-1.19308e-09
-3.40204e-09
-3.24622e-08
-2.57301e-09
-6.18911e-09
-4.32505e-08
-3.54223e-09
-9.23437e-09
-5.06019e-08
-4.35395e-09
-1.22654e-08
-5.56688e-08
-5.17182e-09
-1.50249e-08
-5.90645e-08
-6.09341e-09
-1.72637e-08
-6.11968e-08
-7.16609e-09
-1.87473e-08
-6.23537e-08
-8.40324e-09
-1.92749e-08
-6.2765e-08
-9.79529e-09
-1.86975e-08
-6.26291e-08
-1.12922e-08
-1.6936e-08
-6.21366e-08
-1.28092e-08
-1.39934e-08
-6.14767e-08
-1.42316e-08
-9.93772e-09
-6.07791e-08
-1.54575e-08
-5.12254e-09
-6.00008e-08
-1.6344e-08
-1.5467e-11
-5.95449e-08
-1.68751e-08
5.10248e-09
-5.94287e-08
-1.68196e-08
9.90294e-09
-5.99202e-08
-1.63676e-08
1.39385e-08
-6.08428e-08
-1.55813e-08
1.69012e-08
-6.14978e-08
-1.42844e-08
1.86809e-08
-6.21562e-08
-1.28246e-08
1.92729e-08
-6.26515e-08
-1.13038e-08
1.87547e-08
-6.27935e-08
-9.80729e-09
1.72784e-08
-6.23886e-08
-8.41461e-09
1.50464e-08
-6.12379e-08
-7.17369e-09
1.22889e-08
-5.91115e-08
-6.10287e-09
9.2392e-09
-5.57312e-08
-5.20622e-09
6.16237e-09
-5.07173e-08
-4.44467e-09
3.36905e-09
-4.34374e-08
-3.67546e-09
1.16852e-09
-3.26435e-08
-2.66039e-09
-1.55919e-08
-1.19724e-09
-1.22962e-09
-1.30935e-08
-1.28273e-09
-3.6222e-09
-2.7304e-08
-2.76574e-09
-6.59913e-09
-3.65083e-08
-3.76527e-09
-9.83365e-09
-4.27578e-08
-4.60951e-09
-1.30501e-08
-4.69973e-08
-5.45497e-09
-1.59699e-08
-4.9751e-08
-6.39363e-09
-1.8328e-08
-5.13648e-08
-7.47401e-09
-1.98765e-08
-5.2093e-08
-8.71239e-09
-2.04025e-08
-5.21455e-08
-1.00935e-08
-1.97517e-08
-5.17118e-08
-1.15681e-08
-1.78475e-08
-5.09745e-08
-1.30663e-08
-1.46938e-08
-5.01265e-08
-1.45038e-08
-1.04495e-08
-4.92804e-08
-1.5743e-08
-5.37908e-09
-4.84899e-08
-1.65813e-08
-8.12345e-12
-4.79339e-08
-1.69821e-08
5.37958e-09
-4.78862e-08
-1.69303e-08
1.04286e-08
-4.84398e-08
-1.65294e-08
1.46564e-08
-4.93178e-08
-1.57527e-08
1.78137e-08
-5.01427e-08
-1.45123e-08
1.97302e-08
-5.09904e-08
-1.30822e-08
2.03933e-08
-5.17302e-08
-1.15846e-08
1.9878e-08
-5.21701e-08
-1.01083e-08
1.83384e-08
-5.21231e-08
-8.72592e-09
1.59847e-08
-5.14e-08
-7.48412e-09
1.30673e-08
-4.97915e-08
-6.40254e-09
9.84778e-09
-4.70441e-08
-5.46758e-09
6.59396e-09
-4.28207e-08
-4.6428e-09
3.60841e-09
-3.66218e-08
-3.83005e-09
1.23998e-09
-2.74671e-08
-2.80806e-09
-1.30752e-08
-1.27672e-09
-1.26854e-09
-1.05204e-08
-1.30466e-09
-3.70655e-09
-2.20716e-08
-2.79452e-09
-6.74164e-09
-2.96457e-08
-3.82739e-09
-1.00486e-08
-3.47676e-08
-4.68316e-09
-1.33374e-08
-3.8188e-08
-5.52035e-09
-1.63198e-08
-4.03318e-08
-6.43684e-09
-1.87199e-08
-4.14824e-08
-7.48246e-09
-2.02823e-08
-4.1859e-08
-8.67164e-09
-2.0792e-08
-4.16492e-08
-9.9868e-09
-2.00983e-08
-4.10216e-08
-1.1384e-08
-1.81175e-08
-4.01521e-08
-1.28031e-08
-1.48748e-08
-3.92e-08
-1.41691e-08
-1.06104e-08
-3.82542e-08
-1.52906e-08
-5.53489e-09
-3.75096e-08
-1.60559e-08
-4.36434e-11
-3.70259e-08
-1.63993e-08
5.42173e-09
-3.69743e-08
-1.63774e-08
1.04767e-08
-3.74488e-08
-1.6046e-08
1.48075e-08
-3.83032e-08
-1.53452e-08
1.80832e-08
-3.92165e-08
-1.42018e-08
2.00736e-08
-4.01597e-08
-1.28213e-08
2.07794e-08
-4.10346e-08
-1.14014e-08
2.02791e-08
-4.16674e-08
-1.00025e-08
1.87245e-08
-4.18833e-08
-8.68522e-09
1.63295e-08
-4.15104e-08
-7.49461e-09
1.33496e-08
-4.03633e-08
-6.44818e-09
1.00605e-08
-3.82241e-08
-5.531e-09
6.74791e-09
-3.48094e-08
-4.69872e-09
3.69816e-09
-2.97059e-08
-3.86623e-09
1.25624e-09
-2.21726e-08
-2.85262e-09
-1.0511e-08
-1.30797e-09
-1.25748e-09
-7.98746e-09
-1.2756e-09
-3.64497e-09
-1.69554e-08
-2.72875e-09
-6.63433e-09
-2.29072e-08
-3.74919e-09
-9.90429e-09
-2.69206e-08
-4.5769e-09
-1.31634e-08
-2.95538e-08
-5.375e-09
-1.61224e-08
-3.11332e-08
-6.23948e-09
-1.84996e-08
-3.18875e-08
-7.21776e-09
-2.00398e-08
-3.19965e-08
-8.32252e-09
-2.05319e-08
-3.16177e-08
-9.53958e-09
-1.9824e-08
-3.09028e-08
-1.08266e-08
-1.78453e-08
-3.00004e-08
-1.21303e-08
-1.46564e-08
-2.90371e-08
-1.33517e-08
-1.04607e-08
-2.81249e-08
-1.43251e-08
-5.48369e-09
-2.74456e-08
-1.50411e-08
-4.94774e-11
-2.70681e-08
-1.53922e-08
5.35197e-09
-2.70113e-08
-1.53645e-08
1.0335e-08
-2.73986e-08
-1.50332e-08
1.45866e-08
-2.81672e-08
-1.43875e-08
1.78108e-08
-2.90556e-08
-1.33851e-08
1.97973e-08
-3.00039e-08
-1.21424e-08
2.05137e-08
-3.09101e-08
-1.0841e-08
2.00334e-08
-3.16315e-08
-9.55567e-09
1.85007e-08
-3.20133e-08
-8.33747e-09
1.61282e-08
-3.19081e-08
-7.22974e-09
1.31726e-08
-3.11574e-08
-6.25025e-09
9.91512e-09
-2.95812e-08
-5.38547e-09
6.64218e-09
-2.69491e-08
-4.58737e-09
3.64487e-09
-2.2943e-08
-3.76573e-09
1.2431e-09
-1.70087e-08
-2.7622e-09
-7.9899e-09
-1.27801e-09
-1.18743e-09
-5.60588e-09
-1.19432e-09
-3.44426e-09
-1.21404e-08
-2.55832e-09
-6.28758e-09
-1.65482e-08
-3.51557e-09
-9.41903e-09
-1.95066e-08
-4.28244e-09
-1.25581e-08
-2.14014e-08
-5.01315e-09
-1.542e-08
-2.24728e-08
-5.79836e-09
-1.77237e-08
-2.28974e-08
-6.68635e-09
-1.92186e-08
-2.28162e-08
-7.68557e-09
-1.96959e-08
-2.23582e-08
-8.7824e-09
-1.90097e-08
-2.16449e-08
-9.94409e-09
-1.70919e-08
-2.07927e-08
-1.11255e-08
-1.40408e-08
-1.99055e-08
-1.21827e-08
-1.00127e-08
-1.91126e-08
-1.30402e-08
-5.24298e-09
-1.85278e-08
-1.36875e-08
-4.30885e-11
-1.82272e-08
-1.4041e-08
5.12831e-09
-1.81811e-08
-1.40017e-08
9.90661e-09
-1.84977e-08
-1.36792e-08
1.39767e-08
-1.91383e-08
-1.3099e-08
1.70583e-08
-1.99204e-08
-1.22168e-08
1.89817e-08
-2.07982e-08
-1.11291e-08
1.96766e-08
-2.16493e-08
-9.9559e-09
1.92093e-08
-2.23663e-08
-8.79799e-09
1.77232e-08
-2.28273e-08
-7.69984e-09
1.54243e-08
-2.2911e-08
-6.69824e-09
1.25656e-08
-2.24896e-08
-5.80901e-09
9.42555e-09
-2.14193e-08
-5.02183e-09
6.29304e-09
-1.95258e-08
-4.29087e-09
3.44796e-09
-1.65729e-08
-3.5251e-09
1.18458e-09
-1.21723e-08
-2.57296e-09
-5.60973e-09
-1.19557e-09
-1.05846e-09
-3.48779e-09
-1.05985e-09
-3.09249e-09
-7.82887e-09
-2.27758e-09
-5.69667e-09
-1.08243e-08
-3.11967e-09
-8.59878e-09
-1.28209e-08
-3.78341e-09
-1.15373e-08
-1.40484e-08
-4.41442e-09
-1.42383e-08
-1.46775e-08
-5.09432e-09
-1.64257e-08
-1.48411e-08
-5.86888e-09
-1.78551e-08
-1.46429e-08
-6.74403e-09
-1.83259e-08
-1.4179e-08
-7.70846e-09
-1.76982e-08
-1.35394e-08
-8.73333e-09
-1.5917e-08
-1.28076e-08
-9.76613e-09
-1.3078e-08
-1.20779e-08
-1.06665e-08
-9.31966e-09
-1.14399e-08
-1.14311e-08
-4.87216e-09
-1.09703e-08
-1.2005e-08
-3.65945e-11
-1.07296e-08
-1.23333e-08
4.77557e-09
-1.07024e-08
-1.22909e-08
9.22361e-09
-1.09528e-08
-1.19929e-08
1.30072e-08
-1.14479e-08
-1.1474e-08
1.58752e-08
-1.20837e-08
-1.07047e-08
1.767e-08
-1.28116e-08
-9.7814e-09
1.83064e-08
-1.3542e-08
-8.74371e-09
1.78452e-08
-1.41833e-08
-7.72194e-09
1.64235e-08
-1.46491e-08
-6.75662e-09
1.42403e-08
-1.48491e-08
-5.87868e-09
1.15417e-08
-1.46869e-08
-5.10411e-09
8.6032e-09
-1.40591e-08
-4.42162e-09
5.70208e-09
-1.2835e-08
-3.78963e-09
3.0998e-09
-1.08468e-08
-3.12382e-09
1.06075e-09
-7.85288e-09
-2.28041e-09
-3.49043e-09
-1.05854e-09
-8.65473e-10
-1.75847e-09
-8.64094e-10
-2.58504e-09
-4.25048e-09
-1.85896e-09
-4.85201e-09
-6.03047e-09
-2.52685e-09