/*--------------------------------*- C++ -*----------------------------------*\
| =========                 |                                                 |
| \\      /  F ield         | OpenFOAM: The Open Source CFD Toolbox           |
|  \\    /   O peration     | Version:  v1912                                 |
|   \\  /    A nd           | Website:  www.openfoam.com                      |
|    \\/     M anipulation  |                                                 |
\*---------------------------------------------------------------------------*/
FoamFile
{
    version     2.0;
    format      ascii;
    class       volVectorField;
    location    "284/oil";
    object      U;
}
// * * * * * * * * * * * * * * * * * * * * * * * * * * * * * * * * * * * * * //

dimensions      [0 1 -1 0 0 0 0];


internalField   nonuniform List<vector> 
35580
(
(-1.18493e-09 2.37094e-09 -1.2089e-09)
(1.22955e-09 2.14956e-09 -2.91243e-09)
(1.12093e-08 2.11843e-09 -4.6865e-09)
(2.69238e-08 2.64651e-09 -6.48234e-09)
(4.60251e-08 3.49025e-09 -7.92836e-09)
(6.58397e-08 4.48398e-09 -8.9016e-09)
(8.3895e-08 5.53297e-09 -9.39271e-09)
(9.80445e-08 6.5926e-09 -9.45703e-09)
(1.06534e-07 7.63552e-09 -9.17829e-09)
(1.08196e-07 8.63485e-09 -8.63394e-09)
(1.02392e-07 9.53724e-09 -7.89721e-09)
(8.91703e-08 1.0301e-08 -7.16172e-09)
(6.93334e-08 1.08995e-08 -6.47847e-09)
(4.4125e-08 1.13543e-08 -5.99131e-09)
(1.54866e-08 1.16047e-08 -5.73646e-09)
(-1.44033e-08 1.16348e-08 -5.74159e-09)
(-4.31285e-08 1.13731e-08 -5.99105e-09)
(-6.83906e-08 1.09106e-08 -6.46375e-09)
(-8.83523e-08 1.02745e-08 -7.11728e-09)
(-1.017e-07 9.52546e-09 -7.86287e-09)
(-1.07717e-07 8.6381e-09 -8.59182e-09)
(-1.06224e-07 7.62672e-09 -9.16059e-09)
(-9.78397e-08 6.58315e-09 -9.43862e-09)
(-8.37871e-08 5.52625e-09 -9.38342e-09)
(-6.58023e-08 4.47687e-09 -8.89442e-09)
(-4.60437e-08 3.48607e-09 -7.92174e-09)
(-2.69761e-08 2.64252e-09 -6.47199e-09)
(-1.12696e-08 2.10788e-09 -4.66599e-09)
(-1.27826e-09 2.12631e-09 -2.88726e-09)
(1.16451e-09 2.32135e-09 -1.19333e-09)
(6.16264e-10 -2.23909e-09 6.01739e-10)
(1.23007e-08 -1.36229e-08 5.21374e-10)
(3.58137e-08 -2.27003e-08 -3.00769e-10)
(6.85661e-08 -2.76237e-08 -1.37579e-09)
(1.06671e-07 -2.91834e-08 -2.16871e-09)
(1.45555e-07 -2.82211e-08 -2.4417e-09)
(1.80632e-07 -2.54314e-08 -2.13953e-09)
(2.07772e-07 -2.13347e-08 -1.30331e-09)
(2.2355e-07 -1.63719e-08 -3.23915e-11)
(2.25558e-07 -1.09565e-08 1.52707e-09)
(2.12471e-07 -5.52237e-09 3.35201e-09)
(1.84319e-07 -5.38579e-10 5.0635e-09)
(1.42847e-07 3.57365e-09 6.56745e-09)
(9.07809e-08 6.57727e-09 7.6473e-09)
(3.18384e-08 8.17103e-09 8.21733e-09)
(-2.96509e-08 8.20511e-09 8.23586e-09)
(-8.87908e-08 6.54652e-09 7.67378e-09)
(-1.40952e-07 3.48393e-09 6.62722e-09)
(-1.82442e-07 -7.17592e-10 5.16164e-09)
(-2.10687e-07 -5.64493e-09 3.45192e-09)
(-2.24136e-07 -1.10711e-08 1.65774e-09)
(-2.22438e-07 -1.64776e-08 5.88608e-11)
(-2.06914e-07 -2.14059e-08 -1.21726e-09)
(-1.80054e-07 -2.54757e-08 -2.07168e-09)
(-1.45217e-07 -2.82655e-08 -2.38513e-09)
(-1.06529e-07 -2.92448e-08 -2.11804e-09)
(-6.85634e-08 -2.77193e-08 -1.33465e-09)
(-3.58628e-08 -2.28332e-08 -2.6535e-10)
(-1.23294e-08 -1.37617e-08 5.40954e-10)
(-6.20725e-10 -2.36022e-09 5.91403e-10)
(2.40316e-09 -2.19569e-08 2.40004e-09)
(2.41225e-08 -5.8092e-08 4.2506e-09)
(5.90347e-08 -8.48432e-08 4.64113e-09)
(1.03924e-07 -1.01851e-07 4.5833e-09)
(1.54068e-07 -1.10902e-07 4.67487e-09)
(2.04229e-07 -1.13715e-07 5.19135e-09)
(2.48898e-07 -1.11771e-07 6.231e-09)
(2.82964e-07 -1.06278e-07 7.78486e-09)
(3.02125e-07 -9.82833e-08 9.75587e-09)
(3.03325e-07 -8.87566e-08 1.19705e-08)
(2.84801e-07 -7.86733e-08 1.44142e-08)
(2.465e-07 -6.9083e-08 1.66777e-08)
(1.90712e-07 -6.10371e-08 1.85919e-08)
(1.21063e-07 -5.52092e-08 1.99762e-08)
(4.24286e-08 -5.21266e-08 2.07112e-08)
(-3.96095e-08 -5.21387e-08 2.07599e-08)
(-1.18562e-07 -5.53609e-08 2.00137e-08)
(-1.88331e-07 -6.13659e-08 1.86482e-08)
(-2.44075e-07 -6.95322e-08 1.67344e-08)
(-2.82577e-07 -7.90573e-08 1.45117e-08)
(-3.0157e-07 -8.91034e-08 1.20931e-08)
(-3.00741e-07 -9.85413e-08 9.83686e-09)
(-2.81906e-07 -1.06455e-07 7.86219e-09)
(-2.48172e-07 -1.11894e-07 6.3015e-09)
(-2.03802e-07 -1.13823e-07 5.25459e-09)
(-1.53882e-07 -1.11038e-07 4.73686e-09)
(-1.03899e-07 -1.02046e-07 4.6359e-09)
(-5.9078e-08 -8.51009e-08 4.67726e-09)
(-2.41684e-08 -5.83381e-08 4.25563e-09)
(-2.42268e-09 -2.21118e-08 2.37622e-09)
(3.83917e-09 -5.43972e-08 3.82906e-09)
(3.40319e-08 -1.26752e-07 7.09591e-09)
(7.848e-08 -1.77683e-07 8.31677e-09)
(1.32923e-07 -2.11492e-07 8.94056e-09)
(1.91911e-07 -2.31766e-07 9.66785e-09)
(2.49826e-07 -2.41297e-07 1.07689e-08)
(3.00724e-07 -2.42437e-07 1.23509e-08)
(3.3902e-07 -2.37146e-07 1.44153e-08)
(3.59933e-07 -2.2718e-07 1.68727e-08)
(3.59992e-07 -2.14179e-07 1.95443e-08)
(3.37125e-07 -1.99796e-07 2.23683e-08)
(2.9129e-07 -1.85613e-07 2.4989e-08)
(2.25141e-07 -1.73425e-07 2.72228e-08)
(1.42756e-07 -1.64464e-07 2.87997e-08)
(4.99867e-08 -1.59743e-07 2.96252e-08)
(-4.67989e-08 -1.59812e-07 2.96872e-08)
(-1.39983e-07 -1.64661e-07 2.88169e-08)
(-2.22431e-07 -1.73754e-07 2.7235e-08)
(-2.88539e-07 -1.85971e-07 2.5016e-08)
(-3.346e-07 -2.00099e-07 2.2434e-08)
(-3.57913e-07 -2.14452e-07 1.96039e-08)
(-3.58252e-07 -2.27378e-07 1.69069e-08)
(-3.37722e-07 -2.37282e-07 1.44531e-08)
(-2.99795e-07 -2.4253e-07 1.23897e-08)
(-2.49236e-07 -2.41395e-07 1.08122e-08)
(-1.91622e-07 -2.31919e-07 9.71856e-09)
(-1.32851e-07 -2.11734e-07 8.979e-09)
(-7.85055e-08 -1.77986e-07 8.32727e-09)
(-3.40918e-08 -1.27011e-07 7.07256e-09)
(-3.87311e-09 -5.45975e-08 3.79027e-09)
(4.85608e-09 -9.68431e-08 4.84435e-09)
(4.15122e-08 -2.14473e-07 9.06291e-09)
(9.34686e-08 -2.94505e-07 1.08089e-08)
(1.55389e-07 -3.48369e-07 1.18587e-08)
(2.21115e-07 -3.82427e-07 1.29809e-08)
(2.84745e-07 -4.00854e-07 1.44834e-08)
(3.40077e-07 -4.06961e-07 1.64576e-08)
(3.81284e-07 -4.03485e-07 1.89183e-08)
(4.0331e-07 -3.92893e-07 2.17736e-08)
(4.02433e-07 -3.77508e-07 2.48481e-08)
(3.76389e-07 -3.5966e-07 2.79975e-08)
(3.25029e-07 -3.41471e-07 3.09483e-08)
(2.51078e-07 -3.25432e-07 3.34889e-08)
(1.59091e-07 -3.13387e-07 3.52444e-08)
(5.56815e-08 -3.07061e-07 3.61623e-08)
(-5.2208e-08 -3.07163e-07 3.62376e-08)
(-1.56093e-07 -3.13546e-07 3.52673e-08)
(-2.48026e-07 -3.25548e-07 3.34932e-08)
(-3.21983e-07 -3.41563e-07 3.10042e-08)
(-3.73628e-07 -3.59716e-07 2.80636e-08)
(-4.00141e-07 -3.77561e-07 2.48973e-08)
(-4.01464e-07 -3.92933e-07 2.18109e-08)
(-3.79853e-07 -4.0353e-07 1.89596e-08)
(-3.39034e-07 -4.07012e-07 1.64986e-08)
(-2.84049e-07 -4.00941e-07 1.45197e-08)
(-2.20731e-07 -3.82577e-07 1.30167e-08)
(-1.5526e-07 -3.48614e-07 1.18711e-08)
(-9.34799e-08 -2.94784e-07 1.07816e-08)
(-4.15936e-08 -2.14627e-07 8.99044e-09)
(-4.91098e-09 -9.70772e-08 4.78272e-09)
(5.50599e-09 -1.46402e-07 5.51962e-09)
(4.66353e-08 -3.15913e-07 1.03269e-08)
(1.04029e-07 -4.2872e-07 1.23688e-08)
(1.7142e-07 -5.04979e-07 1.36671e-08)
(2.42045e-07 -5.54619e-07 1.50331e-08)
(3.0981e-07 -5.83583e-07 1.68049e-08)
(3.68356e-07 -5.96253e-07 1.90779e-08)
(4.11713e-07 -5.96152e-07 2.18784e-08)
(4.3465e-07 -5.86434e-07 2.51046e-08)
(4.33246e-07 -5.70057e-07 2.85862e-08)
(4.05162e-07 -5.4999e-07 3.21004e-08)
(3.50041e-07 -5.2894e-07 3.54435e-08)
(2.70363e-07 -5.0983e-07 3.83177e-08)
(1.71262e-07 -4.95138e-07 4.02954e-08)
(5.99018e-08 -4.87394e-07 4.13138e-08)
(-5.6234e-08 -4.87482e-07 4.13846e-08)
(-1.68123e-07 -4.95274e-07 4.03035e-08)
(-2.67073e-07 -5.09738e-07 3.83177e-08)
(-3.46774e-07 -5.28885e-07 3.55324e-08)
(-4.02236e-07 -5.4992e-07 3.21857e-08)
(-4.30824e-07 -5.69993e-07 2.86537e-08)
(-4.32707e-07 -5.8639e-07 2.5163e-08)
(-4.10207e-07 -5.9615e-07 2.19352e-08)
(-3.67255e-07 -5.96287e-07 1.91393e-08)
(-3.09056e-07 -5.83669e-07 1.68516e-08)
(-2.41597e-07 -5.54754e-07 1.507e-08)
(-1.71235e-07 -5.05176e-07 1.36647e-08)
(-1.04026e-07 -4.28908e-07 1.23086e-08)
(-4.67502e-08 -3.15918e-07 1.02098e-08)
(-5.58743e-09 -1.4666e-07 5.43684e-09)
(5.87739e-09 -2.00481e-07 5.89774e-09)
(4.96634e-08 -4.26336e-07 1.10238e-08)
(1.10381e-07 -5.74415e-07 1.32424e-08)
(1.8113e-07 -6.74668e-07 1.46785e-08)
(2.54777e-07 -7.41228e-07 1.61971e-08)
(3.25103e-07 -7.82093e-07 1.81742e-08)
(3.85698e-07 -8.02843e-07 2.06983e-08)
(4.30529e-07 -8.07802e-07 2.38114e-08)
(4.54258e-07 -8.00756e-07 2.73982e-08)
(4.5281e-07 -7.85209e-07 3.1289e-08)
(4.23755e-07 -7.64657e-07 3.52077e-08)
(3.6651e-07 -7.42377e-07 3.89523e-08)
(2.83227e-07 -7.21536e-07 4.21991e-08)
(1.79412e-07 -7.04935e-07 4.44194e-08)
(6.27083e-08 -6.96064e-07 4.55164e-08)
(-5.89041e-08 -6.96104e-07 4.55893e-08)
(-1.76196e-07 -7.05121e-07 4.4406e-08)
(-2.79835e-07 -7.2136e-07 4.22152e-08)
(-3.63135e-07 -7.42317e-07 3.90794e-08)
(-4.20746e-07 -7.64594e-07 3.53274e-08)
(-4.50331e-07 -7.85145e-07 3.13866e-08)
(-4.52281e-07 -8.00721e-07 2.74825e-08)
(-4.28996e-07 -8.07819e-07 2.38862e-08)
(-3.84576e-07 -8.02897e-07 2.0774e-08)
(-3.24326e-07 -7.82181e-07 1.82261e-08)
(-2.54294e-07 -7.41333e-07 1.62368e-08)
(-1.80906e-07 -6.74773e-07 1.46596e-08)
(-1.10355e-07 -5.74406e-07 1.31435e-08)
(-4.97894e-08 -4.26106e-07 1.08774e-08)
(-5.96712e-09 -2.00805e-07 5.80966e-09)
(5.9899e-09 -2.56754e-07 6.03478e-09)
(5.07143e-08 -5.41306e-07 1.12727e-08)
(1.12606e-07 -7.2597e-07 1.35656e-08)
(1.84472e-07 -8.51136e-07 1.50761e-08)
(2.59062e-07 -9.35582e-07 1.66846e-08)
(3.30167e-07 -9.89576e-07 1.88065e-08)
(3.91445e-07 -1.01995e-06 2.15482e-08)
(4.36921e-07 -1.03186e-06 2.49448e-08)
(4.61229e-07 -1.02961e-06 2.88758e-08)
(4.60181e-07 -1.01716e-06 3.31747e-08)
(4.3123e-07 -9.98424e-07 3.75304e-08)
(3.73574e-07 -9.77051e-07 4.16586e-08)
(2.88887e-07 -9.5624e-07 4.52995e-08)
(1.82887e-07 -9.38628e-07 4.77842e-08)
(6.3864e-08 -9.29206e-07 4.89928e-08)
(-6.01246e-08 -9.29408e-07 4.91132e-08)
(-1.79768e-07 -9.39131e-07 4.7791e-08)
(-2.85557e-07 -9.56201e-07 4.53584e-08)
(-3.70197e-07 -9.77103e-07 4.17919e-08)
(-4.28226e-07 -9.98466e-07 3.76428e-08)
(-4.5769e-07 -1.01718e-06 3.327e-08)
(-4.59239e-07 -1.02964e-06 2.89595e-08)
(-4.35372e-07 -1.03195e-06 2.50176e-08)
(-3.90296e-07 -1.02009e-06 2.1625e-08)
(-3.29351e-07 -9.89723e-07 1.88607e-08)
(-2.58536e-07 -9.35708e-07 1.67062e-08)
(-1.84204e-07 -8.51166e-07 1.50201e-08)
(-1.12553e-07 -7.25737e-07 1.34377e-08)
(-5.08341e-08 -5.40824e-07 1.1125e-08)
(-6.08754e-09 -2.57236e-07 5.95744e-09)
(5.89296e-09 -3.13146e-07 5.93719e-09)
(4.98753e-08 -6.56513e-07 1.10824e-08)
(1.10668e-07 -8.77959e-07 1.33618e-08)
(1.81178e-07 -1.0283e-06 1.49252e-08)
(2.54329e-07 -1.13107e-06 1.65925e-08)
(3.24112e-07 -1.19913e-06 1.87746e-08)
(3.84382e-07 -1.24061e-06 2.16505e-08)
(4.29362e-07 -1.26137e-06 2.52505e-08)
(4.53789e-07 -1.26621e-06 2.9447e-08)
(4.53423e-07 -1.25937e-06 3.40821e-08)
(4.25596e-07 -1.24498e-06 3.88185e-08)
(3.69385e-07 -1.22677e-06 4.32787e-08)
(2.85936e-07 -1.20799e-06 4.72126e-08)
(1.80876e-07 -1.19097e-06 4.99882e-08)
(6.31805e-08 -1.1821e-06 5.13972e-08)
(-5.95423e-08 -1.18233e-06 5.15138e-08)
(-1.77849e-07 -1.19138e-06 4.99379e-08)
(-2.82688e-07 -1.20789e-06 4.72575e-08)
(-3.66034e-07 -1.22688e-06 4.33988e-08)
(-4.22658e-07 -1.24513e-06 3.89212e-08)
(-4.5097e-07 -1.25949e-06 3.41806e-08)
(-4.5184e-07 -1.26634e-06 2.95346e-08)
(-4.27847e-07 -1.26157e-06 2.53231e-08)
(-3.83236e-07 -1.24087e-06 2.17215e-08)
(-3.23279e-07 -1.19938e-06 1.88056e-08)
(-2.53788e-07 -1.13118e-06 1.65442e-08)
(-1.80877e-07 -1.02807e-06 1.4807e-08)
(-1.10568e-07 -8.77299e-07 1.32161e-08)
(-4.99464e-08 -6.55717e-07 1.09401e-08)
(-5.9721e-09 -3.13715e-07 5.85814e-09)
(5.58285e-09 -3.67513e-07 5.57617e-09)
(4.71066e-08 -7.67596e-07 1.04113e-08)
(1.04461e-07 -1.02477e-06 1.25618e-08)
(1.70955e-07 -1.19985e-06 1.41249e-08)
(2.40001e-07 -1.32088e-06 1.58444e-08)
(3.05996e-07 -1.40335e-06 1.80384e-08)
(3.63212e-07 -1.45699e-06 2.0929e-08)
(4.06224e-07 -1.48827e-06 2.45966e-08)
(4.30046e-07 -1.50229e-06 2.88945e-08)
(4.30503e-07 -1.50342e-06 3.36904e-08)
(4.04823e-07 -1.49585e-06 3.86425e-08)
(3.51948e-07 -1.48309e-06 4.33319e-08)
(2.7268e-07 -1.4681e-06 4.73385e-08)
(1.72339e-07 -1.45335e-06 5.03032e-08)
(6.02256e-08 -1.44619e-06 5.1937e-08)
(-5.69026e-08 -1.4464e-06 5.20563e-08)
(-1.69558e-07 -1.45343e-06 5.02486e-08)
(-2.69481e-07 -1.46729e-06 4.73611e-08)
(-3.48605e-07 -1.48267e-06 4.34524e-08)
(-4.01972e-07 -1.49591e-06 3.87368e-08)
(-4.28085e-07 -1.50361e-06 3.37926e-08)
(-4.28152e-07 -1.50251e-06 2.89808e-08)
(-4.04771e-07 -1.48861e-06 2.46632e-08)
(-3.62086e-07 -1.45742e-06 2.1006e-08)
(-3.05145e-07 -1.40367e-06 1.80623e-08)
(-2.39412e-07 -1.32075e-06 1.57978e-08)
(-1.70563e-07 -1.19912e-06 1.40984e-08)
(-1.0423e-07 -1.02362e-06 1.25731e-08)
(-4.70736e-08 -7.66581e-07 1.04234e-08)
(-5.62068e-09 -3.68188e-07 5.56966e-09)
(5.05452e-09 -4.17601e-07 4.97543e-09)
(4.23526e-08 -8.69817e-07 9.33044e-09)
(9.38853e-08 -1.16016e-06 1.1246e-08)
(1.53571e-07 -1.3588e-06 1.26842e-08)
(2.15616e-07 -1.49749e-06 1.43853e-08)
(2.75088e-07 -1.59407e-06 1.65345e-08)
(3.26939e-07 -1.66028e-06 1.93126e-08)
(3.66231e-07 -1.70313e-06 2.28414e-08)
(3.88451e-07 -1.72779e-06 2.69714e-08)
(3.89627e-07 -1.73863e-06 3.16599e-08)
(3.66883e-07 -1.73959e-06 3.65689e-08)
(3.19273e-07 -1.73366e-06 4.12486e-08)
(2.47633e-07 -1.72415e-06 4.51174e-08)
(1.56709e-07 -1.71401e-06 4.81029e-08)
(5.48298e-08 -1.70928e-06 4.98027e-08)
(-5.18465e-08 -1.70954e-06 4.99545e-08)
(-1.54175e-07 -1.71396e-06 4.81169e-08)
(-2.44588e-07 -1.72319e-06 4.50464e-08)
(-3.16304e-07 -1.73342e-06 4.12588e-08)
(-3.64392e-07 -1.73979e-06 3.65757e-08)
(-3.87347e-07 -1.73894e-06 3.17501e-08)
(-3.86667e-07 -1.72806e-06 2.70643e-08)
(-3.64905e-07 -1.70357e-06 2.28989e-08)
(-3.25922e-07 -1.66089e-06 1.94028e-08)
(-2.74357e-07 -1.59432e-06 1.65614e-08)
(-2.15097e-07 -1.49665e-06 1.4335e-08)
(-1.53136e-07 -1.3571e-06 1.26263e-08)
(-9.35132e-08 -1.15827e-06 1.11406e-08)
(-4.2194e-08 -8.68392e-07 9.21205e-09)
(-5.00905e-09 -4.18184e-07 4.95002e-09)
(4.28122e-09 -4.61191e-07 4.14061e-09)
(3.55498e-08 -9.58327e-07 7.79187e-09)
(7.87579e-08 -1.27717e-06 9.43542e-09)
(1.29021e-07 -1.4969e-06 1.07291e-08)
(1.81291e-07 -1.65215e-06 1.22932e-08)
(2.31417e-07 -1.76227e-06 1.43155e-08)
(2.75395e-07 -1.84065e-06 1.68553e-08)
(3.09018e-07 -1.89523e-06 1.9995e-08)
(3.28452e-07 -1.93104e-06 2.36101e-08)
(3.30045e-07 -1.95197e-06 2.77734e-08)
(3.11075e-07 -1.96139e-06 3.21201e-08)
(2.7077e-07 -1.96291e-06 3.62703e-08)
(2.1011e-07 -1.96056e-06 3.98862e-08)
(1.33347e-07 -1.9568e-06 4.27868e-08)
(4.67253e-08 -1.95509e-06 4.44096e-08)
(-4.41682e-08 -1.95523e-06 4.457e-08)
(-1.31239e-07 -1.95656e-06 4.2987e-08)
(-2.07638e-07 -1.96042e-06 4.01427e-08)
(-2.68441e-07 -1.9649e-06 3.67532e-08)
(-3.08921e-07 -1.96301e-06 3.24189e-08)
(-3.27926e-07 -1.95265e-06 2.79717e-08)
(-3.26828e-07 -1.93124e-06 2.36557e-08)
(-3.079e-07 -1.89562e-06 1.97992e-08)
(-2.74511e-07 -1.84123e-06 1.65671e-08)
(-2.30714e-07 -1.76211e-06 1.39708e-08)
(-1.80625e-07 -1.65057e-06 1.19937e-08)
(-1.28444e-07 -1.49465e-06 1.05392e-08)
(-7.84195e-08 -1.27515e-06 9.33381e-09)
(-3.54361e-08 -9.56652e-07 7.75721e-09)
(-4.2253e-09 -4.61583e-07 4.20007e-09)
(3.34976e-09 -4.95944e-07 3.01904e-09)
(2.71737e-08 -1.02859e-06 5.64568e-09)
(5.97442e-08 -1.36991e-06 6.90717e-09)
(9.78895e-08 -1.60655e-06 7.90799e-09)
(1.37692e-07 -1.77582e-06 9.05223e-09)
(1.75945e-07 -1.89824e-06 1.06219e-08)
(2.09553e-07 -1.98768e-06 1.27138e-08)
(2.35379e-07 -2.05284e-06 1.54095e-08)
(2.50803e-07 -2.09879e-06 1.85083e-08)
(2.52607e-07 -2.12861e-06 2.1908e-08)
(2.38106e-07 -2.14615e-06 2.52259e-08)
(2.07055e-07 -2.15643e-06 2.85493e-08)
(1.61025e-07 -2.16239e-06 3.17611e-08)
(1.02691e-07 -2.16425e-06 3.41727e-08)
(3.62367e-08 -2.16488e-06 3.5412e-08)
(-3.35041e-08 -2.16427e-06 3.53106e-08)
(-1.00555e-07 -2.16255e-06 3.39661e-08)
(-1.59144e-07 -2.16118e-06 3.15622e-08)
(-2.05638e-07 -2.15873e-06 2.86692e-08)
(-2.36308e-07 -2.14803e-06 2.52238e-08)
(-2.50509e-07 -2.12912e-06 2.17378e-08)
(-2.4933e-07 -2.09857e-06 1.83603e-08)
(-2.34519e-07 -2.05287e-06 1.53148e-08)
(-2.08775e-07 -1.98781e-06 1.27291e-08)
(-1.75339e-07 -1.89767e-06 1.06613e-08)
(-1.37264e-07 -1.77452e-06 9.1134e-09)
(-9.76458e-08 -1.60554e-06 8.00258e-09)
(-5.9611e-08 -1.36972e-06 7.09333e-09)
(-2.69081e-08 -1.02823e-06 5.89121e-09)
(-3.21799e-09 -4.96817e-07 3.16737e-09)
(2.12342e-09 -5.20755e-07 1.96149e-09)
(1.7179e-08 -1.07825e-06 3.63236e-09)
(3.77244e-08 -1.43549e-06 4.34155e-09)
(6.18538e-08 -1.68316e-06 4.86149e-09)
(8.68229e-08 -1.86177e-06 5.53314e-09)
(1.10788e-07 -1.9932e-06 6.56153e-09)
(1.31879e-07 -2.09112e-06 7.96616e-09)
(1.48027e-07 -2.16446e-06 9.79554e-09)
(1.57938e-07 -2.21834e-06 1.19499e-08)
(1.5951e-07 -2.25532e-06 1.42337e-08)
(1.50541e-07 -2.28066e-06 1.64937e-08)
(1.31156e-07 -2.29897e-06 1.88616e-08)
(1.0233e-07 -2.3116e-06 2.10584e-08)
(6.54808e-08 -2.3178e-06 2.26946e-08)
(2.34188e-08 -2.32006e-06 2.34418e-08)
(-2.0637e-08 -2.31785e-06 2.30577e-08)
(-6.32723e-08 -2.31302e-06 2.20117e-08)
(-1.00243e-07 -2.30698e-06 2.02256e-08)
(-1.29502e-07 -2.29758e-06 1.7984e-08)
(-1.49146e-07 -2.2791e-06 1.55451e-08)
(-1.58336e-07 -2.25278e-06 1.32519e-08)
(-1.57539e-07 -2.21489e-06 1.12502e-08)
(-1.4804e-07 -2.16225e-06 9.49643e-09)
(-1.31648e-07 -2.09081e-06 8.03986e-09)
(-1.10376e-07 -1.99384e-06 6.85366e-09)
(-8.62365e-08 -1.86258e-06 5.89579e-09)
(-6.12572e-08 -1.68396e-06 5.19044e-09)
(-3.73538e-08 -1.43622e-06 4.59139e-09)
(-1.6853e-08 -1.07837e-06 3.78905e-09)
(-2.03253e-09 -5.21428e-07 1.99243e-09)
(7.8363e-10 -5.33727e-07 6.1991e-10)
(6.02013e-09 -1.10379e-06 1.23547e-09)
(1.31494e-08 -1.46989e-06 1.55253e-09)
(2.17208e-08 -1.72386e-06 1.76148e-09)
(3.05358e-08 -1.90762e-06 2.03646e-09)
(3.90475e-08 -2.04339e-06 2.46636e-09)
(4.67588e-08 -2.14467e-06 2.97619e-09)
(5.27389e-08 -2.22065e-06 3.49192e-09)
(5.6332e-08 -2.2781e-06 4.15804e-09)
(5.68694e-08 -2.32049e-06 5.07106e-09)
(5.36615e-08 -2.35187e-06 6.02151e-09)
(4.69314e-08 -2.37494e-06 6.90027e-09)
(3.66518e-08 -2.39048e-06 7.57721e-09)
(2.35706e-08 -2.3993e-06 8.29219e-09)
(8.8638e-09 -2.40355e-06 8.63545e-09)
(-6.69083e-09 -2.40132e-06 8.36127e-09)
(-2.23e-08 -2.39528e-06 8.0182e-09)
(-3.53177e-08 -2.38694e-06 7.36719e-09)
(-4.54302e-08 -2.37404e-06 6.44222e-09)
(-5.23284e-08 -2.35104e-06 5.5341e-09)
(-5.55542e-08 -2.31917e-06 4.70068e-09)
(-5.54012e-08 -2.27584e-06 3.96914e-09)
(-5.22178e-08 -2.21892e-06 3.29095e-09)
(-4.6563e-08 -2.14427e-06 2.74694e-09)
(-3.90665e-08 -2.04406e-06 2.3496e-09)
(-3.04486e-08 -1.90872e-06 2.02194e-09)
(-2.15562e-08 -1.72504e-06 1.77286e-09)
(-1.30914e-08 -1.47104e-06 1.56559e-09)
(-5.86325e-09 -1.10455e-06 1.32847e-09)
(-6.71965e-10 -5.34275e-07 7.11982e-10)
(-5.62642e-10 -5.34265e-07 -6.63182e-10)
(-5.2224e-09 -1.10475e-06 -1.20192e-09)
(-1.17396e-08 -1.47139e-06 -1.41116e-09)
(-1.9155e-08 -1.7256e-06 -1.58792e-09)
(-2.69218e-08 -1.90956e-06 -1.81454e-09)
(-3.44009e-08 -2.04564e-06 -2.13591e-09)
(-4.1003e-08 -2.1473e-06 -2.55427e-09)
(-4.62097e-08 -2.22359e-06 -3.07338e-09)
(-4.9249e-08 -2.28103e-06 -3.7275e-09)
(-4.94072e-08 -2.32307e-06 -4.45323e-09)
(-4.63225e-08 -2.3543e-06 -5.35999e-09)
(-4.0237e-08 -2.37735e-06 -6.36212e-09)
(-3.16777e-08 -2.39259e-06 -7.19708e-09)
(-2.06524e-08 -2.40169e-06 -7.5239e-09)
(-7.34314e-09 -2.40585e-06 -7.55308e-09)
(6.93049e-09 -2.40337e-06 -7.4488e-09)
(2.00072e-08 -2.39816e-06 -6.95121e-09)
(3.21074e-08 -2.39005e-06 -6.34456e-09)
(4.13601e-08 -2.37653e-06 -5.81503e-09)
(4.70161e-08 -2.35338e-06 -4.97889e-09)
(4.99716e-08 -2.32154e-06 -4.09767e-09)
(4.99271e-08 -2.27806e-06 -3.27146e-09)
(4.71177e-08 -2.22097e-06 -2.75238e-09)
(4.19648e-08 -2.14597e-06 -2.4261e-09)
(3.50867e-08 -2.04537e-06 -2.09319e-09)
(2.74358e-08 -1.90974e-06 -1.83071e-09)
(1.95111e-08 -1.72583e-06 -1.61e-09)
(1.1925e-08 -1.47169e-06 -1.39623e-09)
(5.43783e-09 -1.10506e-06 -1.07974e-09)
(7.02805e-10 -5.34565e-07 -5.4333e-10)
(-1.95471e-09 -5.22157e-07 -1.93409e-09)
(-1.63056e-08 -1.08002e-06 -3.66325e-09)
(-3.61389e-08 -1.43864e-06 -4.45204e-09)
(-5.91843e-08 -1.68698e-06 -5.04382e-09)
(-8.32852e-08 -1.86627e-06 -5.73553e-09)
(-1.06542e-07 -1.9986e-06 -6.66437e-09)
(-1.26929e-07 -2.09717e-06 -7.89016e-09)
(-1.42534e-07 -2.1705e-06 -9.48855e-09)
(-1.51657e-07 -2.22453e-06 -1.14756e-08)
(-1.52684e-07 -2.26185e-06 -1.35594e-08)
(-1.43911e-07 -2.2877e-06 -1.58645e-08)
(-1.25268e-07 -2.30633e-06 -1.83019e-08)
(-9.79769e-08 -2.31903e-06 -2.0405e-08)
(-6.29475e-08 -2.32655e-06 -2.17469e-08)
(-2.20138e-08 -2.32947e-06 -2.22652e-08)
(2.10328e-08 -2.32633e-06 -2.19644e-08)
(6.16642e-08 -2.32247e-06 -2.09786e-08)
(9.79192e-08 -2.31702e-06 -1.93846e-08)
(1.25851e-07 -2.30575e-06 -1.75903e-08)
(1.43978e-07 -2.28642e-06 -1.52703e-08)
(1.53131e-07 -2.2597e-06 -1.30636e-08)
(1.52333e-07 -2.22145e-06 -1.09288e-08)
(1.42843e-07 -2.16784e-06 -9.09013e-09)
(1.27073e-07 -2.09524e-06 -7.5578e-09)
(1.06692e-07 -1.99777e-06 -6.30677e-09)
(8.36714e-08 -1.8662e-06 -5.37391e-09)
(5.96168e-08 -1.68722e-06 -4.66587e-09)
(3.64846e-08 -1.4392e-06 -4.11491e-09)
(1.66399e-08 -1.08074e-06 -3.38544e-09)
(2.09895e-09 -5.22361e-07 -1.83134e-09)
(-3.19644e-09 -4.98144e-07 -3.07877e-09)
(-2.64656e-08 -1.03117e-06 -5.75092e-09)
(-5.85232e-08 -1.37386e-06 -6.9692e-09)
(-9.58468e-08 -1.61056e-06 -7.8699e-09)
(-1.34746e-07 -1.78036e-06 -8.95225e-09)
(-1.72182e-07 -1.9044e-06 -1.04389e-08)
(-2.05078e-07 -1.99552e-06 -1.24196e-08)
(-2.30383e-07 -2.06166e-06 -1.49851e-08)
(-2.45128e-07 -2.10861e-06 -1.8108e-08)
(-2.46626e-07 -2.13924e-06 -2.14032e-08)
(-2.32495e-07 -2.15739e-06 -2.47922e-08)
(-2.02139e-07 -2.16796e-06 -2.80546e-08)
(-1.57447e-07 -2.17451e-06 -3.10642e-08)
(-1.00786e-07 -2.17798e-06 -3.33274e-08)
(-3.52915e-08 -2.17939e-06 -3.44759e-08)
(3.35427e-08 -2.17693e-06 -3.42001e-08)
(9.91715e-08 -2.17552e-06 -3.28955e-08)
(1.57428e-07 -2.17466e-06 -3.06597e-08)
(2.0257e-07 -2.16847e-06 -2.79099e-08)
(2.32385e-07 -2.15641e-06 -2.45512e-08)
(2.46989e-07 -2.13763e-06 -2.12273e-08)
(2.45959e-07 -2.10766e-06 -1.79607e-08)
(2.31062e-07 -2.06178e-06 -1.50483e-08)
(2.05672e-07 -1.99616e-06 -1.24837e-08)
(1.72615e-07 -1.9057e-06 -1.04259e-08)
(1.35004e-07 -1.78196e-06 -8.87177e-09)
(9.59356e-08 -1.61183e-06 -7.61543e-09)
(5.87025e-08 -1.37505e-06 -6.64591e-09)
(2.6785e-08 -1.03236e-06 -5.43908e-09)
(3.35071e-09 -4.98065e-07 -2.93126e-09)
(-4.25812e-09 -4.63492e-07 -4.06488e-09)
(-3.5176e-08 -9.60842e-07 -7.58463e-09)
(-7.7644e-08 -1.28069e-06 -9.22071e-09)
(-1.27164e-07 -1.50112e-06 -1.04583e-08)
(-1.788e-07 -1.65797e-06 -1.19034e-08)
(-2.28449e-07 -1.77046e-06 -1.38605e-08)
(-2.71937e-07 -1.85057e-06 -1.64305e-08)
(-3.05123e-07 -1.90602e-06 -1.96101e-08)
(-3.24141e-07 -1.94286e-06 -2.33773e-08)
(-3.25633e-07 -1.96498e-06 -2.74818e-08)
(-3.06911e-07 -1.97542e-06 -3.18206e-08)
(-2.66967e-07 -1.97759e-06 -3.58811e-08)
(-2.07346e-07 -1.9761e-06 -3.94235e-08)
(-1.31958e-07 -1.97425e-06 -4.22712e-08)
(-4.57627e-08 -1.97375e-06 -4.39781e-08)
(4.43555e-08 -1.97223e-06 -4.38411e-08)
(1.30493e-07 -1.9736e-06 -4.22404e-08)
(2.07175e-07 -1.97786e-06 -3.93832e-08)
(2.67067e-07 -1.97856e-06 -3.5846e-08)
(3.0664e-07 -1.97506e-06 -3.18722e-08)
(3.25517e-07 -1.9644e-06 -2.75668e-08)
(3.24568e-07 -1.94302e-06 -2.33333e-08)
(3.05671e-07 -1.90665e-06 -1.97111e-08)
(2.72489e-07 -1.85117e-06 -1.66352e-08)
(2.28946e-07 -1.77145e-06 -1.4159e-08)
(1.79269e-07 -1.65989e-06 -1.22229e-08)
(1.27549e-07 -1.50408e-06 -1.06295e-08)
(7.78594e-08 -1.28436e-06 -9.31725e-09)
(3.52244e-08 -9.63921e-07 -7.65261e-09)
(4.25641e-09 -4.63606e-07 -4.07027e-09)
(-5.01998e-09 -4.20235e-07 -4.93451e-09)
(-4.19904e-08 -8.73301e-07 -9.21725e-09)
(-9.29296e-08 -1.16449e-06 -1.11488e-08)
(-1.52286e-07 -1.36436e-06 -1.25993e-08)
(-2.14009e-07 -1.505e-06 -1.426e-08)
(-2.73167e-07 -1.60375e-06 -1.64658e-08)
(-3.24698e-07 -1.67144e-06 -1.92912e-08)
(-3.63718e-07 -1.71531e-06 -2.2778e-08)
(-3.85686e-07 -1.74108e-06 -2.69416e-08)
(-3.8678e-07 -1.75309e-06 -3.15732e-08)
(-3.64175e-07 -1.75504e-06 -3.64722e-08)
(-3.16798e-07 -1.75e-06 -4.10984e-08)
(-2.45892e-07 -1.74136e-06 -4.49641e-08)
(-1.5592e-07 -1.73318e-06 -4.79596e-08)
(-5.37369e-08 -1.72933e-06 -4.99065e-08)
(5.25031e-08 -1.72822e-06 -4.98784e-08)
(1.5433e-07 -1.7327e-06 -4.8242e-08)
(2.4501e-07 -1.74262e-06 -4.52174e-08)
(3.16223e-07 -1.75073e-06 -4.11258e-08)
(3.63758e-07 -1.75543e-06 -3.6525e-08)
(3.86626e-07 -1.75337e-06 -3.16189e-08)
(3.85926e-07 -1.74155e-06 -2.6901e-08)
(3.64073e-07 -1.71598e-06 -2.27616e-08)
(3.25125e-07 -1.67217e-06 -1.92369e-08)
(2.73597e-07 -1.60474e-06 -1.64263e-08)
(2.14448e-07 -1.50677e-06 -1.43174e-08)
(1.52788e-07 -1.3675e-06 -1.26623e-08)
(9.34005e-08 -1.16863e-06 -1.11746e-08)
(4.22827e-08 -8.76622e-07 -9.22408e-09)
(5.0848e-09 -4.20273e-07 -4.92084e-09)
(-5.58995e-09 -3.70196e-07 -5.58687e-09)
(-4.69568e-08 -7.71761e-07 -1.04306e-08)
(-1.0404e-07 -1.03007e-06 -1.25746e-08)
(-1.7035e-07 -1.20672e-06 -1.40983e-08)
(-2.39203e-07 -1.32956e-06 -1.57823e-08)
(-3.05061e-07 -1.41364e-06 -1.80329e-08)
(-3.62167e-07 -1.46851e-06 -2.09796e-08)
(-4.05079e-07 -1.50085e-06 -2.4639e-08)
(-4.28776e-07 -1.51591e-06 -2.89635e-08)
(-4.29147e-07 -1.51812e-06 -3.37497e-08)
(-4.03416e-07 -1.51153e-06 -3.87344e-08)
(-3.50606e-07 -1.49994e-06 -4.34799e-08)
(-2.72007e-07 -1.48631e-06 -4.75455e-08)
(-1.72286e-07 -1.4734e-06 -5.05019e-08)
(-5.93337e-08 -1.46612e-06 -5.22467e-08)
(5.77817e-08 -1.46515e-06 -5.20849e-08)
(1.70488e-07 -1.47222e-06 -5.05134e-08)
(2.70707e-07 -1.48607e-06 -4.75608e-08)
(3.49712e-07 -1.49988e-06 -4.33978e-08)
(4.02812e-07 -1.51171e-06 -3.87233e-08)
(4.28838e-07 -1.51838e-06 -3.37609e-08)
(4.28788e-07 -1.51637e-06 -2.89584e-08)
(4.05278e-07 -1.50146e-06 -2.46404e-08)
(3.62523e-07 -1.46923e-06 -2.09565e-08)
(3.05524e-07 -1.4145e-06 -1.80157e-08)
(2.39708e-07 -1.33071e-06 -1.58137e-08)
(1.7079e-07 -1.20858e-06 -1.41697e-08)
(1.04301e-07 -1.03276e-06 -1.26462e-08)
(4.70646e-08 -7.74219e-07 -1.04727e-08)
(5.56538e-09 -3.70258e-07 -5.59138e-09)
(-5.92736e-09 -3.15828e-07 -5.93122e-09)
(-4.99287e-08 -6.60784e-07 -1.10153e-08)
(-1.10766e-07 -8.83736e-07 -1.32463e-08)
(-1.81274e-07 -1.03568e-06 -1.48331e-08)
(-2.54407e-07 -1.13994e-06 -1.65707e-08)
(-3.24213e-07 -1.20921e-06 -1.88365e-08)
(-3.84521e-07 -1.25173e-06 -2.17676e-08)
(-4.29518e-07 -1.27348e-06 -2.53845e-08)
(-4.53907e-07 -1.27928e-06 -2.96221e-08)
(-4.53452e-07 -1.27339e-06 -3.42787e-08)
(-4.25442e-07 -1.25988e-06 -3.90623e-08)
(-3.69117e-07 -1.2427e-06 -4.36012e-08)
(-2.86101e-07 -1.225e-06 -4.75672e-08)
(-1.81193e-07 -1.20948e-06 -5.03706e-08)
(-6.23922e-08 -1.20038e-06 -5.19127e-08)
(6.06823e-08 -1.19989e-06 -5.17984e-08)
(1.79351e-07 -1.2088e-06 -5.04208e-08)
(2.84618e-07 -1.22495e-06 -4.75969e-08)
(3.68074e-07 -1.24283e-06 -4.35979e-08)
(4.2472e-07 -1.26014e-06 -3.91044e-08)
(4.53036e-07 -1.27371e-06 -3.43226e-08)
(4.53778e-07 -1.27973e-06 -2.96536e-08)
(4.29593e-07 -1.27406e-06 -2.5414e-08)
(3.84748e-07 -1.25244e-06 -2.17855e-08)
(3.24537e-07 -1.21006e-06 -1.8858e-08)
(2.54774e-07 -1.14096e-06 -1.66225e-08)
(1.81557e-07 -1.03701e-06 -1.49786e-08)
(1.1086e-07 -8.85548e-07 -1.34931e-08)
(4.99288e-08 -6.62723e-07 -1.12392e-08)
(5.86296e-09 -3.15833e-07 -5.99481e-09)
(-6.03421e-09 -2.59307e-07 -6.06006e-09)
(-5.09089e-08 -5.45379e-07 -1.12532e-08)
(-1.13013e-07 -7.31732e-07 -1.35042e-08)
(-1.85062e-07 -8.58303e-07 -1.50738e-08)
(-2.59832e-07 -9.43863e-07 -1.67662e-08)
(-3.31145e-07 -9.98818e-07 -1.89413e-08)
(-3.92597e-07 -1.03008e-06 -2.17253e-08)
(-4.38187e-07 -1.04282e-06 -2.51441e-08)
(-4.6253e-07 -1.04139e-06 -2.91247e-08)
(-4.61391e-07 -1.02975e-06 -3.34619e-08)
(-4.32142e-07 -1.01176e-06 -3.78794e-08)
(-3.74198e-07 -9.911e-07 -4.21051e-08)
(-2.89646e-07 -9.7092e-07 -4.57646e-08)
(-1.83567e-07 -9.54512e-07 -4.83343e-08)
(-6.33449e-08 -9.45097e-07 -4.9686e-08)
(6.14323e-08 -9.44835e-07 -4.96349e-08)
(1.81535e-07 -9.54105e-07 -4.83868e-08)
(2.88101e-07 -9.71006e-07 -4.57449e-08)
(3.73191e-07 -9.91218e-07 -4.20754e-08)
(4.31407e-07 -1.01191e-06 -3.79224e-08)
(4.60897e-07 -1.02998e-06 -3.35171e-08)
(4.623e-07 -1.04174e-06 -2.91707e-08)
(4.38166e-07 -1.04329e-06 -2.51857e-08)
(3.9272e-07 -1.03066e-06 -2.17555e-08)
(3.3135e-07 -9.99507e-07 -1.89701e-08)
(2.60082e-07 -9.44662e-07 -1.68069e-08)
(1.85274e-07 -8.59229e-07 -1.51671e-08)
(1.13125e-07 -7.32881e-07 -1.36869e-08)
(5.09341e-08 -5.46762e-07 -1.14263e-08)
(6.0044e-09 -2.59261e-07 -6.10179e-09)
(-5.94502e-09 -2.02613e-07 -5.90892e-09)
(-4.99862e-08 -4.29973e-07 -1.10013e-08)
(-1.11011e-07 -5.79616e-07 -1.3231e-08)
(-1.82107e-07 -6.81004e-07 -1.47444e-08)
(-2.561e-07 -7.48438e-07 -1.63344e-08)
(-3.2677e-07 -7.90066e-07 -1.83492e-08)
(-3.87649e-07 -8.11511e-07 -2.09204e-08)
(-4.3268e-07 -8.17126e-07 -2.40647e-08)
(-4.56511e-07 -8.10705e-07 -2.77069e-08)
(-4.54972e-07 -7.95773e-07 -3.16513e-08)
(-4.25531e-07 -7.75789e-07 -3.56674e-08)
(-3.67844e-07 -7.53997e-07 -3.95185e-08)
(-2.84479e-07 -7.33615e-07 -4.27891e-08)
(-1.80402e-07 -7.17895e-07 -4.50846e-08)
(-6.23416e-08 -7.09154e-07 -4.62882e-08)
(6.04372e-08 -7.08808e-07 -4.62522e-08)
(1.78274e-07 -7.17358e-07 -4.50758e-08)
(2.82891e-07 -7.33548e-07 -4.27178e-08)
(3.66802e-07 -7.53984e-07 -3.94404e-08)
(4.24734e-07 -7.75835e-07 -3.56766e-08)
(4.54391e-07 -7.95921e-07 -3.17009e-08)
(4.56192e-07 -8.10971e-07 -2.77518e-08)
(4.32587e-07 -8.17493e-07 -2.41051e-08)
(3.877e-07 -8.11958e-07 -2.09491e-08)
(3.26905e-07 -7.90588e-07 -1.83749e-08)
(2.56289e-07 -7.49035e-07 -1.63609e-08)
(1.82298e-07 -6.81673e-07 -1.47859e-08)
(1.11158e-07 -5.80374e-07 -1.3317e-08)
(4.99984e-08 -4.30873e-07 -1.11251e-08)
(5.90686e-09 -2.02684e-07 -5.95057e-09)
(-5.59839e-09 -1.48093e-07 -5.50371e-09)
(-4.70568e-08 -3.1899e-07 -1.02973e-08)
(-1.0484e-07 -4.33108e-07 -1.23917e-08)
(-1.72677e-07 -5.10224e-07 -1.3757e-08)
(-2.43727e-07 -5.60492e-07 -1.51808e-08)
(-3.11913e-07 -5.90004e-07 -1.69833e-08)
(-3.70823e-07 -6.03174e-07 -1.93019e-08)
(-4.14431e-07 -6.0354e-07 -2.21285e-08)
(-4.3751e-07 -5.94251e-07 -2.53999e-08)
(-4.36028e-07 -5.78297e-07 -2.8929e-08)
(-4.0753e-07 -5.5857e-07 -3.25572e-08)
(-3.51919e-07 -5.37858e-07 -3.59955e-08)
(-2.72062e-07 -5.19138e-07 -3.89035e-08)
(-1.725e-07 -5.04952e-07 -4.09608e-08)
(-5.96574e-08 -4.97261e-07 -4.2077e-08)
(5.78014e-08 -4.96931e-07 -4.20386e-08)