/*--------------------------------*- C++ -*----------------------------------*\
| =========                 |                                                 |
| \\      /  F ield         | OpenFOAM: The Open Source CFD Toolbox           |
|  \\    /   O peration     | Version:  v1906                                 |
|   \\  /    A nd           | Web:      www.OpenFOAM.com                      |
|    \\/     M anipulation  |                                                 |
\*---------------------------------------------------------------------------*/
FoamFile
{
    version     2.0;
    format      ascii;
    class       volScalarField;
    location    "17";
    object      omega;
}
// * * * * * * * * * * * * * * * * * * * * * * * * * * * * * * * * * * * * * //

dimensions      [0 0 -1 0 0 0 0];


internalField   nonuniform List<scalar> 
78750
(
1301.03
191.191
131.871
75.3576
36.2155
16.9257
18.8348
17.2631
18.1925
16.881
17.788
17.0058
17.1966
16.9611
16.8841
16.7685
16.6658
16.5664
16.4712
16.3804
16.2932
16.2082
16.1243
16.0411
15.9572
15.8705
15.7784
15.6768
15.5606
15.4227
15.2533
15.0405
14.7674
14.2334
498.606
463.468
14.3881
6.24059
9.79294
12.4457
11.4021
11.3409
11.2954
11.1223
11.0711
10.9532
10.8841
10.8065
10.7424
10.6837
10.6312
10.5833
10.5386
10.4963
10.4554
10.4153
10.3748
10.3328
10.2882
10.2399
10.1868
10.1276
10.061
9.98504
9.89777
9.79667
9.67169
9.462
8.76371
739.62
403.394
10.5546
10.6341
10.4776
10.2244
10.5163
10.5976
10.6461
10.6711
10.6693
10.6683
10.6685
10.6754
10.688
10.7055
10.7261
10.7481
10.7698
10.7908
10.8102
10.827
10.8398
10.8473
10.8481
10.8409
10.8247
10.798
10.7601
10.7108
10.6501
10.5758
10.4762
10.306
10.1617
744.785
400.051
8.12113
9.75612
10.9978
11.881
12.3729
12.6416
12.7386
12.6777
12.4806
12.1845
11.8317
11.461
11.1065
10.7946
10.5417
10.3555
10.2384
10.1894
10.2057
10.2781
10.3869
10.509
10.6288
10.7398
10.8387
10.9184
10.9672
10.9843
10.9714
10.9189
10.7916
10.446
10.0444
747.227
400.688
9.24104
11.1434
12.416
13.3064
13.9228
14.3397
14.6141
14.789
14.8943
14.9501
14.9677
14.9467
14.8745
14.729
14.4841
14.1153
13.6046
12.9462
12.1592
11.3067
10.5062
9.85934
9.45293
9.44466
9.83523
10.415
10.8283
10.9883
11.1127
11.2245
11.268
11.3124
12.261
752.002
403.116
11.7017
13.6631
14.6656
15.1596
15.339
15.3006
15.1025
14.7941
14.4318
14.0799
13.7932
13.605
13.5254
13.547
13.6483
13.7999
13.9701
14.1248
14.2386
14.2912
14.2603
14.1826
13.9844
13.586
13.0447
11.4237
8.62841
7.84447
9.06612
10.125
10.7664
10.9416
11.8494
752.931
412.016
14.5043
15.5008
15.694
15.5158
15.1029
14.4502
13.5632
12.5293
11.539
10.8253
10.4964
10.5002
10.7177
11.0414
11.4003
11.7582
12.0988
12.4153
12.7061
12.9698
13.1995
13.379
13.442
13.3102
13.0626
12.5258
11.1687
9.33195
8.62904
9.37697
10.2969
11.1542
12.7143
756.274
422.84
16.2199
16.0295
15.688
15.1649
14.4159
13.3794
12.0834
10.7244
9.65384
9.21855
9.3011
9.62065
10.0095
10.3829
10.7091
10.996
11.2739
11.5716
11.8883
12.1654
12.2851
12.1122
11.6408
11.0526
10.488
9.88952
9.29029
9.19083
9.49668
9.92349
10.5123
11.5024
13.8501
758.921
411.438
14.0645
15.5594
16.4082
16.9843
17.389
17.5963
17.4584
16.7661
15.4557
13.7713
12.1492
10.9801
10.4546
10.4315
10.6176
10.8063
10.9075
10.8957
10.7937
10.6452
10.4782
10.2817
10.0414
9.79097
9.59985
9.53196
9.61554
9.80967
10.069
10.4536
11.0898
12.2495
14.8206
759.905
408.675
13.8866
15.4717
16.1399
16.5282
16.8514
17.1823
17.5129
17.6957
17.4122
16.3779
14.6195
12.4155
10.2643
8.76304
8.19227
8.31073
8.66534
8.97204
9.14949
9.22317
9.2394
9.24025
9.25494
9.30965
9.42069
9.57777
9.75752
9.96659
10.2451
10.6494
11.2967
12.6695
15.5277
760.703
416.217
15.1091
15.6965
15.9447
16.0534
16.0681
16.0553
16.1206
16.3358
16.6845
17.0612
17.2774
17.0852
16.3352
15.0583
13.3635
11.3902
9.44254
8.02492
7.40623
7.36542
7.6023
7.87375
8.09535
8.28937
8.48835
8.73157
9.0771
9.54348
10.1146
10.7848
11.6977
13.398
16.2284
761.639
416.355
15.944
16.9757
17.4411
17.6924
17.8333
17.8784
17.793
17.5418
17.1571
16.7842
16.5894
16.5873
16.6463
16.6133
16.3412
15.7155
14.7094
13.3582
11.7418
10.0842
8.68122
7.65997
7.15711
7.1264
7.30775
7.55813
7.93937
8.61695
9.51684
10.4111
11.3221
13.2467
16.4998
762.997
423.64
17.4641
17.6235
17.5118
17.2929
17.1021
17.052
17.0893
17.0975
17.0003
16.7795
16.4748
16.1557
15.8589
15.567
15.2219
14.7266
13.9574
12.8151
11.2901
9.43035
7.44982
5.62575
4.54358
4.72404
5.2342
5.64416
6.21741
7.4222
9.2316
11.001
12.4565
14.3117
17.4089
764.5
429.798
18.1164
17.8451
17.4287
16.913
16.5904
16.5184
16.5606
16.6247
16.6783
16.7067
16.6981
16.6482
16.5668
16.4677
16.3535
16.2076
15.9881
15.6213
15.0201
14.1314
12.9503
11.5392
9.73014
7.02144
3.99981
4.10901
3.76383
4.86001
5.8627
9.19161
11.9556
14.7006
17.8372
764.94
427.638
18.076
18.0499
17.8044
17.4777
17.2337
17.0809
16.9725
16.8864
16.8045
16.7096
16.5876
16.433
16.2523
16.0621
15.8807
15.7203
15.5826
15.4566
15.3164
15.113
14.7646
14.159
13.1887
11.789
9.74392
6.0143
3.80602
3.58502
5.56006
8.58846
11.9062
15.2159
18.4685
766.01
425.462
18.1005
18.2885
18.1758
17.9191
17.5828
17.2395
16.9399
16.7181
16.5949
16.5642
16.5911
16.6296
16.641
16.6006
16.4945
16.3205
16.0924
15.8354
15.5739
15.3211
15.0728
14.8006
14.4368
13.8415
12.7917
11.0619
7.52225
4.09842
4.55766
7.32098
12.0365
15.8289
18.9707
766.522
424.033
18.6776
19.4153
19.684
19.7355
19.5677
19.1612
18.5481
17.8146
17.0832
16.4872
16.1134
15.962
15.9628
16.0285
16.0962
16.133
16.1222
16.0534
15.9188
15.7166
15.4572
15.1616
14.8452
14.494
14.0316
13.2371
11.737
9.03722
4.43274
3.92294
11.0849
16.007
19.3569
767.863
422.437
18.4581
19.5754
20.097
20.4031
20.5583
20.5265
20.2327
19.6176
18.7133
17.6723
16.7129
16.0157
15.6416
15.5269
15.5576
15.64
15.7228
15.7814
15.8014
15.7707
15.6756
15.5041
15.2486
14.9074
14.4675
13.8396
12.7099
9.42417
5.55585
4.98564
11.6918
16.8361
20.0516
769.11
423.077
18.4172
19.5132
20.0341
20.3768
20.6415
20.8322
20.905
20.7671
20.2943
19.4248
18.2486
16.9827
15.8808
15.1254
14.754
14.6721
14.7491
14.8912
15.0465
15.1828
15.2765
15.3112
15.2719
15.1399
14.8892
14.4742
13.7649
12.3977
9.7922
3.8527
11.2836
17.4818
20.6654
770.328
423.549
18.3442
19.37
19.8224
20.0856
20.277
20.4377
20.5871
20.7179
20.7663
20.6055
20.0883
19.1381
17.8351
16.3954
15.1133
14.2532
13.8753
13.85
14.023
14.2845
14.5648
14.8216
15.0369
15.2036
15.3175
15.3631
15.2844
14.9188
13.8456
9.54971
9.83997
16.9794
20.7078
771.888
424.818
19.0393
20.0963
20.5146
20.7063
20.7739
20.7326
20.5997
20.4417
20.3458
20.3257
20.2753
20.0212
19.3736
18.1751
16.4421
14.5323
13.0799
12.4575
12.51
12.8894
13.3206
13.684
13.9446
14.0924
14.1101
13.9592
13.5545
12.7253
10.9235
7.0227
11.0332
17.7414
21.5
774.475
429.783
20.0243
20.6942
20.9351
21.0408
21.087
21.0664
20.9264
20.6564
20.3308
20.087
20.0089
20.0162
19.9363
19.5627
18.5602
16.6287
13.9795
11.557
10.2385
9.97914
10.2427
10.5764
10.7981
10.8538
10.7056
10.3048
9.55205
8.20005
5.7599
6.54246
12.1655
18.6978
22.2727
775.547
440.925
21.2246
21.0004
20.7879
20.556
20.3728
20.2665
20.1415
19.9311
19.6276
19.2852
19.0467
19.0165
19.1209
19.2296
19.2317
18.8936
17.7465
15.8042
13.6983
11.977
10.7907
9.94905
9.27813
8.6804
8.05287
7.25517
6.09214
4.45086
3.90848
5.30254
12.3597
19.3833
22.7972
775.916
446.039
21.3441
20.8677
20.4841
20.0412
19.6987
19.4541
19.2045
18.9169
18.5823
18.2156
17.8695
17.6071
17.4241
17.2538
17.0074
16.5524
15.7157
14.488
13.2075
12.2143
11.4693
10.8004
10.143
9.48987
8.79332
7.99528
7.05973
5.92292
4.2586
4.25013
10.5177
19.1077
22.7334
775.916
440.64
20.5756
20.3434
20
19.4709
18.9769
18.5408
18.0772
17.5452
16.9738
16.4856
16.1557
15.875
15.4896
14.9522
14.3653
13.9089
13.5766
13.2165
12.7573
12.2294
11.681
11.1264
10.5764
10.0535
9.56094
9.09281
8.64753
8.19499
7.47626
6.10645
8.88303
18.1343
22.496
777.852
439.359
21.0184
20.8131
20.4374
19.8656
19.3145
18.8081
18.1851
17.3656
16.3948
15.5236
15.0027
14.7619
14.6234
14.4949
14.3161
14.0545
13.7185
13.3377
12.9278
12.4912
12.0268
11.5356
11.0229
10.5068
9.99498
9.48964
9.01249
8.55313
8.30898
8.21779
9.93765
18.9356
23.6431
782.332
439.238
20.9335
20.6515
20.2632
19.7807
19.4361
19.3265
19.1855
18.8627
18.3201
17.5916
16.8032
16.0728
15.4232
14.8509
14.3704
13.9838
13.6525
13.3256
12.9748
12.6043
12.1923
11.7128
11.1695
10.5908
9.99794
9.35336
8.53976
7.85634
9.3199
13.3035
16.1362
21.0375
24.729
782.423
440.001
21.0327
20.7781
20.3848
19.8277
19.2404
19.0242
19.2065
19.516
19.7433
19.7934
19.6111
19.1367
18.3337
17.2564
16.0655
14.9728
14.1277
13.5389
13.118
12.7704
12.4343
12.0717
11.6522
11.1555
10.5709
9.87169
9.01718
8.10529
8.7322
13.8591
20.6819
23.2131
25.3725
778.446
438.222
21.0634
21.121
20.9515
20.5566
19.8406
18.9094
18.2407
18.1122
18.3909
18.7956
19.1251
19.3011
19.2883
19.0165
18.3653
17.2865
15.9529
14.6866
13.7157
13.0375
12.5367
12.1143
11.7103
11.2953
10.8552
10.3651
9.78415
9.05788
8.56638
10.6156
18.5992
23.3019
25.265
775.847
436.334
21.2549
21.668
21.7801
21.7113
21.3875
20.6179
19.3971
18.2021
17.5231
17.4806
17.7952
18.1429
18.3861
18.4973
18.4491
18.1431
17.4238
16.3043
15.0953
14.094
13.3439
12.7491
12.219
11.715
11.2292
10.7426
10.2554
9.66468
8.93106
8.13711
10.4826
18.4738
22.3996
776.213
436.761
21.3108
21.7732
21.9912
22.1085
22.1154
21.9233
21.3022
20.0634
18.4924
17.3086
16.9775
17.1645
17.4299
17.6003
17.6422
17.5321
17.1908
16.4969
15.5068
14.5248
13.7132
13.0258
12.3831
11.7546
11.1088
10.4109
9.64468
8.26243
9.00763
9.4663
9.16778
17.1431
22.8198
786.473
438.072
21.4384
21.8436
22.0474
22.1853
22.2728
22.2859
22.1519
21.6311
20.3216
18.3992
17.0909
16.8062
16.9514
17.0994
17.129
17.0068
16.6805
16.0726
15.2157
14.3671
13.5933
12.8209
12.047
11.1997
10.0998
8.78238
6.75663
6.16146
11.1496
12.6336
13.9773
21.4419
26.6484
795.762
439.455
21.6917
22.0271
22.1576
22.2074
22.1932
22.1062
21.9306
21.6093
20.8584
19.1621
17.3301
16.6037
16.6039
16.7145
16.7313
16.6095
16.307
15.7711
15.0471
14.2726
13.481
12.6521
11.7579
10.6651
9.30717
7.74942
7.2485
11.286
17.5602
19.8756
19.1789
23.0814
26.7401
787.701
442.695
22.1098
22.298
22.37
22.3781
22.3006
22.0881
21.695
21.106
20.2595
18.9182
17.3359
16.5829
16.5012
16.5461
16.5328
16.4176
16.165
15.7353
15.1271
14.4067
13.6375
12.7987
11.8264
10.619
9.03519
7.1212
6.5489
10.8499
18.3396
24.8239
27.0508
27.1963
27.8117
776.89
446.092
22.3122
22.314
22.3346
22.3366
22.27
22.0553
21.6002
20.8432
19.7775
18.4873
17.2752
16.6709
16.5355
16.5187
16.4903
16.4128
16.2644
16.0233
15.6786
15.2431
14.7467
14.2033
13.5886
12.8521
11.9276
10.7228
9.2092
7.92263
9.80807
15.6838
22.4115
26.7705
28.1345
773.019
446.454
22.2657
22.3209
22.3851
22.4255
22.403
22.2462
21.8609
21.1723
20.1479
18.8602
17.6319
16.8803
16.5434
16.3694
16.2268
16.0652
15.8655
15.6223
15.341
15.0373
14.7311
14.4368
14.156
13.8717
13.5629
13.165
12.8238
12.2435
10.599
10.3421
9.16089
13.8037
18.04
770.289
444.539
22.1206
22.3048
22.4129
22.478
22.4922
22.4129
22.1587
21.6477
20.8304
19.6916
18.3914
17.3595
16.7553
16.3917
16.1035
15.8061
15.457
15.0354
14.5413
13.9961
13.4375
12.9124
12.4892
12.1945
12.0248
12.1726
12.1433
11.2613
11.3321
12.0098
8.45203
11.3434
19.4445
793.678
444.697
22.3865
22.5867
22.6747
22.7072
22.6891
22.6081
22.4211
22.0395
21.39
20.4292
19.1938
17.9793
17.1148
16.5572
16.1373
15.7149
15.1856
14.4937
13.6354
12.623
11.4455
10.097
8.84119
7.9561
7.62531
9.36273
13.1499
15.8743
15.295
13.7727
17.2117
23.299
28.8847
807.711
444.597
22.5777
22.8456
22.9645
23.0106
22.9915
22.9081
22.7656
22.5065
22.0395
21.3113
20.2794
19.0335
17.9194
17.1489
16.6158
16.1515
15.6051
14.8554
13.7842
12.2347
9.99825
6.92319
6.27026
4.20232
8.82255
16.3787
21.9537
24.3384
22.897
20.6557
21.2576
24.381
27.4562
783.972
444.768
22.7359
23.0214
23.1578
23.2273
23.2417
23.2086
23.159
23.0642
22.8129
22.3489
21.6327
20.605
19.347
18.1873
17.3549
16.7904
16.324
15.8004
15.0741
13.9761
12.3018
9.726
6.11774
5.78809
4.5674
11.1711
18.9217
24.6062
27.7503
29.0797
29.6731
29.5936
28.8169
767.542
445.976
22.9487
23.1613
23.2629
23.3118
23.3183
23.3075
23.354
23.4605
23.4754
23.3091
22.9548
22.3843
21.522
20.3627
19.1191
18.0786
17.3424
16.8258
16.3962
15.9387
15.3535
14.5297
13.3292
11.5226
8.83144
5.3369
5.04323
10.3029
14.2109
19.4154
23.4223
27.1408
29.2709
766.321
449.009
23.2957
23.3761
23.4305
23.4525
23.43
23.3852
23.4323
23.6362
23.8313
23.8744
23.7527
23.4813
23.0423
22.3723
21.4103
20.2273
19.0726
18.1524
17.4922
17.0104
16.6143
16.2294
15.7923
15.2491
14.5046
13.5011
12.3168
11.2476
7.60123
4.54235
8.06957
13.2664
15.5788
760.754
451.216
23.4053
23.3994
23.4423
23.4745
23.4663
23.4302
23.4792
23.7058
23.9718
24.1172
24.109
23.9619
23.6795
23.2384
22.5779
21.6208
20.3966
19.1373
18.0782
17.266
16.6363
16.1111
15.6327
15.1085
14.4608
14.2027
13.1187
10.2403
9.10673
10.9251
7.14237
6.25729
7.43339
788.615
451.547
23.3384
23.3489
23.4188
23.4778
23.4865
23.4494
23.4669
23.6535
23.9271
24.1287
24.1924
24.1145
23.8997
23.5389
22.9929
22.1754
20.9751
19.4393
17.8993
16.5691
15.4048
14.303
13.1644
12.1095
10.8248
8.97984
13.3176
17.5673
17.9503
17.1653
18.3111
21.1533
26.633
811.584
449.959
23.1692
23.3136
23.4737
23.6028
23.6534
23.6059
23.5205
23.5427
23.7204
23.9385
24.0822
24.0992
23.9755
23.7035
23.2435
22.5272
21.4769
19.9286
17.927
15.9079
13.9761
11.9852
9.88696
7.63328
9.1461
16.1498
22.1544
23.0979
20.6903
19.5218
22.1483
25.5442
29.1561
793.632
448.022
23.0367
23.3521
23.6345
23.8785
24.0343
24.0559
23.9344
23.7504
23.6601
23.7207
23.8623
23.9857
24.0212
23.9293
23.6796
23.2251
22.4802
21.2941
19.4726
17.0427
14.2692
11.2914
8.25099
6.45052
9.65506
16.6501
23.6461
27.2574
27.2726
26.3825
25.9209
25.8894
25.9794
767.07
445.235
22.8283
23.3605
23.784
24.1616
24.4737
24.6738
24.7049
24.5298
24.2101
23.9096
23.7575
23.763
23.8482
23.9185
23.908
23.7742
23.4732
22.9359
22.0426
20.596
18.4462
15.6248
12.2081
8.30567
5.17519
8.24038
15.0813
21.3444
25.5185
28.2927
30.1452
30.8774
30.2165
766.181
443.213
22.741
23.4273
23.9306
24.381
24.8068
25.1928
25.4857
25.5981
25.4561
25.0667
24.5586
24.1194
23.8886
23.8496
23.8942
23.9237
23.8821
23.736
23.4544
22.9931
22.2792
21.2141
19.7003
17.7097
15.2616
12.4735
10.1852
10.4892
13.0428
16.7522
19.7734
23.0062
25.5125
762.347
443.501
22.8328
23.5327
24.0395
24.4937
24.9494
25.4222
25.8869
26.258
26.4326
26.3404
25.9577
25.3511
24.7162
24.2688
24.0626
24.0042
23.9862
23.9428
23.84
23.6551
23.3689
22.9606
22.3993
21.6539
20.6916
19.4755
18.012
16.7397
14.9987
12.8422
12.3538
13.175
13.1731
754.858
446.828
23.2244
23.7614
24.2018
24.6258
25.0756
25.5718
26.102
26.5859
26.9121
27.0121
26.8585
26.4348
25.7817
25.0897
24.5748
24.2736
24.0968
23.9548
23.7932
23.5802
23.2958
22.9255
22.4579
21.8677
21.1024
20.421
19.4524
17.6987
16.3894
16.357
15.8756
9.37348
15.5083
784.634
450.333
23.5056
23.874
24.2678
24.6955
25.1728
25.7031
26.2587
26.7628
27.1167
27.2576
27.169
26.841
26.2642
25.5198
24.8188
24.2967
23.9129
23.5605
23.1588
22.6626
22.0442
21.2794
20.3683
19.4871
18.1778
16.7302
18.9595
21.2393
21.0735
20.4497
20.4307
21.1528
25.6548
813.454
451.541
23.5404
23.8746
24.2773
24.744
25.2837
25.8753
26.4547
26.9471
27.291
27.4428
27.3836
27.1011
26.5767
25.8336
25.0178
24.3131
23.7312
23.1298
22.3958
21.4767
20.3433
19.0627
17.4637
15.4838
17.9078
23.6964
25.7783
24.3591
22.4436
22.4231
24.3252
26.548
29.8216
798.799
450.633
23.4341
23.7896
24.1946
24.6822
25.2755
25.9357
26.5651
27.0803
27.4397
27.6237
27.6206
27.4177
26.9973
26.3608
25.5867
24.8099
24.0817
23.3399
22.4739
21.3602
19.8653
17.9291
15.7442
15.0714
18.9809
25.4994
29.2315
29.0636
27.69
26.5132
26.1545
26.3234
26.7279
770.367
450.147
23.5277
23.8363
24.1939
24.6685
25.288
25.9909
26.6689
27.2302
27.6321
27.8664
27.9335
27.8309
27.5513
27.0936
26.492
25.8276
25.167
24.4972
23.7462
22.8128
21.5814
19.9346
17.8768
15.8304
15.5925
19.185
24.1163
27.3181
29.0969
30.0428
30.2447
29.7725
28.4592
763.738
450.869
23.7093
23.8901
24.1811
24.6732
25.3605
26.1025
26.7916
27.3691
27.807
28.0979
28.2428
28.244
28.1036
27.8285
27.4422
26.9898
26.5171
26.0386
25.5342
24.963
24.262
23.3675
22.2077
20.7365
19.0465
17.7057
17.7452
19.2358
21.4411
23.8877
26.0716
27.9032
28.5536
764.635
452.852
23.9596
23.9408
24.1463
24.7231
25.5743
26.4001
27.0831
27.6226
28.0339
28.3256
28.5012
28.5639
28.5186
28.3761
28.1563
27.8877
27.5958
27.2914
26.9712
26.6229
26.2295
25.769
25.2178
24.5355
23.6907
22.685
21.5944
20.5853
19.8033
19.6389
20.2327
20.7818
21.0668
762.792
455.001
24.1477
23.8889
23.9713
24.6786
25.7285
26.6542
27.3648
27.9
28.2963
28.5752
28.7499
28.8299
28.8257
28.7505
28.6214
28.4548
28.2617
28.0463
27.8102
27.5519
27.2686
26.9537
26.5978
26.1878
25.7085
25.1504
24.5049
23.7004
22.6236
21.6732
20.2991
16.8705
16.3862
780.403
456.765
24.3359
23.8595
23.822
24.6826
25.8381
26.7822
27.5089
28.0685
28.4862
28.7794
28.9646
29.0576
29.073
29.0252
28.9281
28.7901
28.6117
28.3904
28.1295
27.8362
27.5163
27.1716
26.799
26.3916
25.9395
25.4153
24.7154
24.0947
23.7418
22.567
20.4021
20.512
24.5412
797.841
457.171
24.3258
23.6877
23.5538
24.5339
25.6943
26.6449
27.4253
28.0593
28.5497
28.9042
29.138
29.2691
29.3149
29.2904
29.2091
29.0738
28.8806
28.6273
28.3159
27.9472
27.5221
27.044
26.521
25.958
25.2849
24.4027
23.6158
24.2086
25.4597
24.5146
23.4959
24.9877
28.0886
792.702
456.955
24.1617
23.3819
23.1427
24.1712
25.304
26.2806
27.1392
27.8742
28.47
28.9234
29.2438
29.4472
29.5517
29.5737
29.5262
29.4191
29.2531
29.0227
28.7252
28.3574
27.9151
27.3911
26.7602
25.9974
25.0873
24.0243
23.0511
23.2434
25.3912
26.7112
26.6421
27.2288
28.2787
779.087
456.119
23.7451
22.7791
22.3461
23.3784
24.5491
25.5991
26.566
27.4296
28.1621
28.7506
29.1974
29.5139
29.7159
29.8206
29.8435
29.7962
29.6859
29.514
29.2805
28.9821
28.6125
28.163
27.6213
26.9719
26.1968
25.2781
24.2213
23.2461
23.2637
25.0145
26.5631
27.2479
27.5696
774.926
455.586
23.2889
22.0748
21.2306
22.0619
23.3018
24.4823
25.5946
26.6126
27.5075
28.2582
28.8603
29.3202
29.6503
29.8659
29.9832
30.0166
29.9768
29.8697
29.7011
29.4739
29.1887
28.8432
28.432
27.9469
27.3775
26.7117
25.9293
24.9873
23.8417
23.0776
24.0294
25.4456
26.5281
780.371
455.45
22.9007
21.492
20.1334
20.2538
21.4156
22.7524
24.0707
25.3105
26.4221
27.3734
28.1623
28.7919
29.2711
29.613
29.8334
29.9491
29.974
29.917
29.7873
29.5924
29.3377
29.0252
28.6529
28.2167
27.7117
27.1292
26.4423
25.5875
24.3299
22.7752
23.3635
25.5715
27.8707
791.811
454.801
22.725
21.5414
20.1921
19.1431
19.4133
20.5136
21.9548
23.447
24.8375
26.0595
27.0922
27.9335
28.5957
29.0894
29.4284
29.6327
29.7209
29.7022
29.5833
29.3738
29.0873
28.732
28.2987
27.7683
27.1189
26.3206
25.4789
25.0852
24.457
23.6561
25.1138
27.2982
29.5842
795.586
451.627
22.7484
22.3223
21.6289
20.2675
18.992
18.6477
19.4293
20.9391
22.6296
24.1982
25.5531
26.6821
27.594
28.3005
28.8116
29.1523
29.3469
29.4045
29.3283
29.1235
28.7975
28.3605
27.7894
27.0386
26.0695
24.8936
24.0771
25.0028
26.1826
25.8819
26.7255
27.9642
29.2968
786.687
447.71
23.1133
23.5362
23.5717
23.0207
21.5719
19.6605
18.3355
18.4976
19.9377
21.7855
23.516
24.9936
26.2146
27.196
27.9566
28.5153
28.8899
29.0959
29.1462
29.0426
28.7785
28.3386
27.7023
26.8386
25.7022
24.2862
23.0698
23.7932
26.7581
28.1105
28.3527
28.6283
28.784
777.164
444.481
23.1036
24.1148
24.7733
25.0829
24.7945
23.4789
21.2018
19.0466
18.4182
19.5077
21.3097
23.0729
24.5853
25.8386
26.8546
27.6542
28.256
28.6768
28.9317
29.026
28.9553
28.7039
28.248
27.5591
26.6027
25.3387
23.8489
22.9389
24.3317
27.1231
28.5755
28.9637
28.8006
774.957
442.759
22.6978
23.8648
24.822
25.6423
26.2337
26.3476
25.4982
23.4105
20.9025
19.5083
19.935
21.4124
23.035
24.4699
25.6738
26.6615
27.4529
28.0663
28.5212
28.8302
28.996
29.0103
28.8585
28.5222
27.9748
27.1784
26.1
24.8222
23.9428
24.5382
26.35
27.4741
27.8263
778.339
442.401
22.59
23.5979
24.4598
25.338
26.2508
27.0901
27.6262
27.423
25.9352
23.444
21.3895
21.0669
22.0868
23.4542
24.7192
25.7912
26.6745
27.3896
27.9646
28.4146
28.7448
28.9537
29.0373
28.9915
28.8055
28.4563
27.8971
27.0904
26.067
25.0633
24.7533
25.7842
27.1597
785.876
444.179
23.1926
23.947
24.5872
25.2909
26.1205
27.0676
28.0156
28.7435
28.9452
28.0296
25.6472
23.2282
22.5444
23.2537
24.3399
25.3542
26.2086
26.9135
27.4962
27.9747
28.3569
28.6438
28.8355
28.9366
28.9546
28.891
28.7107
28.3354
27.6557
26.4617
25.0023
26.0268
28.5304
795.512
449.827
24.0997
24.4221
24.9165
25.6696
26.5617
27.4874
28.4132
29.2283
29.7765
29.8799
28.9696
26.5908
24.6217
24.3406
24.9507
25.6735
26.3003
26.8504
27.3416
27.745
28.0564
28.2888
28.4511
28.5579
28.6519
28.8056
28.9736
28.9176
28.4009
27.2507
26.2218
27.6448
30.3155
800.231
458.864
24.8217
24.4568
24.8348
25.9155
27.1842
28.3015
29.2037
29.8819
30.2856
30.3396
29.8469
28.4183
26.8293
26.3363
26.5182
26.8138
27.1096
27.4093
27.6766
27.886
28.0227
28.0867
28.0925
28.0698
28.1294
28.4929
29.0633
29.2452
28.8138
27.9829
27.7509
28.955
30.8478
796.446
463.185
24.4935
23.9089
24.5918
26.0648
27.5185
28.6887
29.5501
30.1107
30.3666
30.2852
29.8338
29.1594
28.6766
28.512
28.4852
28.4961
28.5131
28.5192
28.4985
28.4385
28.3281
28.1533
27.9114
27.6492
27.552
28.0115
28.9875
29.4771
29.23
28.7648
28.8015
29.4535
30.4202
789.181
453.557
22.5327
23.1976
24.5215
25.7434
26.8736
27.9311
28.8172
29.4719
29.8991
30.1543
30.3131
30.4039
30.4212
30.3828
30.3061
30.1957
30.0488
29.8591
29.6232
29.3328
28.9747
28.5345
28.0111
27.4503
27.0467
27.293
28.4935
29.5215
29.5741
29.3398
29.3082
29.4933
29.7812
783.786
437.482
21.3166
22.4195
23.0278
23.6512
24.6405
25.9224
27.2307
28.3864
29.3371
30.0884
30.6593
31.0716
31.3442
31.4945
31.538
31.4858
31.3445
31.1162
30.802
30.3958
29.8868
29.2635
28.5232
27.6888
26.8835
26.529
27.3431
28.9685
29.6902
29.6626
29.5554
29.4715
29.3665
781.063
430.101
20.8764
20.9691
20.7923
20.6783
20.9471
21.8632
23.4826
25.2764
26.8808
28.2547
29.3999
30.3224
31.0321
31.5488
31.8947
32.0871
32.1379
32.0537
31.8389
31.4905
30.9999
30.3575
29.5564
28.5993
27.5245
26.5267
26.2184
27.3783
29.0115
29.575
29.6073
29.481
29.2433
780.428
430.472
20.9511
21.2633
21.1093
20.6694
19.8586
18.2912
17.643
19.4468
22.1708
24.6394
26.6439
28.2427
29.5136
30.512
31.2777
31.8397
32.2175
32.4221
32.4611
32.3344
32.0359
31.5552
30.8819
30.0111
28.9462
27.7256
26.5519
26.1677
27.3112
28.6714
29.1945
29.3034
29.2357
781.832
436.194
21.6409
22.2561
22.5028
22.522
22.2804
20.5581
17.5004
17.001
19.5019
22.502
24.942
26.7965
28.2458
29.4136
30.3796
31.1796
31.8121
32.2761
32.5793
32.7208
32.6875
32.4646
32.0382
31.3976
30.5375
29.457
28.1792
26.9061
26.4384
27.3597
28.3232
28.8126
29.1636
785.119
445.946
22.4739
22.2788
22.0465
21.7703
21.576
20.7182
19.5453
20.2596
22.5022
24.5877
26.1413
27.3377
28.3699
29.3309
30.2185
31.0078
31.682
32.2279
32.6357
32.9099
33.0481
33.0262
32.8204
32.4135
31.7929
30.9496
29.8691
28.5482
27.2397
26.9033
27.6557
28.4281
29.2885
789.57
452.645
23.2606
22.3254
21.2761
20.034
19.38
19.8666
21.7183
23.6108
25.0243
26.1632
27.1607
28.0695
28.9145
29.7091
30.4579
31.1532
31.7763
32.3091
32.7458
33.0815
33.303
33.3886
33.3153
33.0627
32.6141
31.9544
31.06
29.8778
28.4108
27.3172
27.6152
28.5233
29.7892
793.528
455.616
23.6864
22.3632
20.8493
19.5654
19.4062
20.6281
22.6853
24.3249
25.5427
26.5623
27.4775
28.32
29.1049
29.843
30.5399
31.1931
31.7924
32.327
32.7892
33.1664
33.4399
33.5873
33.5862
33.4162
33.0592
32.4974
31.705
30.6247
29.2211
28.0143
28.128
29.0175
30.3608
794.999
462.405
23.8895
21.679
19.5076
19.2151
19.9479
21.4736
23.52
24.9634
26.0252
26.9401
27.7698
28.5334
29.2469
29.9313
30.5958
31.2294
31.816
32.3479
32.8222
33.2223
33.5228
33.6981
33.7241
33.5782
33.2387
32.6864
31.91
30.9039
29.7015
28.7582
28.8674
29.5618
30.6514
793.475
468.407
22.8901
19.7601
17.7119
19.5679
21.718
23.5839
24.8959
25.8546
26.7105
27.5083
28.249
28.9391
29.5898
30.2118
30.8112
31.3896
31.9451
32.4694
32.9461
33.3506
33.6561
33.8363
33.8645
33.7119
33.3465
32.7407
31.9051
30.9432
30.0238
29.4471
29.5425
29.9662
30.6614
790.492
462.504
18.8387
17.0678
19.5364
22.1962
23.503
24.5167
25.4054
26.2444
27.0435
27.796
28.5003
29.1608
29.7853
30.3832
30.9632
31.5307
32.0837
32.6101
33.09
33.4987
33.8113
34.0029
34.0459
33.9055
33.5372
32.8939
31.9774
30.9674
30.2118
29.8983
29.9729
30.1929
30.5581
788.002
447.55
17.738
18.0752
21.3684
22.6044
23.4861
24.3742
25.226
26.0581
26.8657
27.6377
28.3683
29.0586
29.7141
30.3426
30.9524
31.5477
32.1254
32.6727
33.1708
33.5984
33.935
34.1604
34.25
34.1698
33.8711
33.2908
32.3901
31.3011
30.4502
30.12
30.118
30.2147
30.416
787.08
445.341
21.5114
19.4836
19.6451
21.1914
22.3122
23.305
24.2601
25.1802
26.0697
26.9283
27.7491
28.5307
29.2766
29.993
30.6855
31.3552
31.9958
32.5936
33.132
33.5951
33.9694
34.2419
34.3952
34.4029
34.2229
33.7919
33.042
32.0084
31.0277
30.5015
30.3441
30.3398
30.4915
787.94
449.491
22.9262
21.3163
16.8593
17.9621
20.2388
21.767
22.9304
23.9815
24.9736
25.918
26.8212
27.6902
28.5339
29.3596
30.168
30.9501
31.689
32.3652
32.9636
33.4745
33.8925
34.2121
34.4234
34.5079
34.4325
34.1414
33.5574
32.6528
31.6455
30.9533
30.6435
30.5511
30.686
789.388
450.159
22.0405
20.5262
17.6482
15.0565
18.4006
20.7865
22.2295
23.3035
24.2629
25.1703
26.0451
26.9062
27.7732
28.6593
29.5601
30.4501
31.2922
32.0533
32.7148
33.2723
33.7289
34.0875
34.3456
34.4911
34.4974
34.3153
33.8706
33.1166
32.2003
31.4804
31.0892
30.9223
31.0051
790.579
452.018
22.0144
20.3808
18.2821
12.304
17.9095
20.8038
22.22
23.1642
23.9928
24.8133
25.6336
26.4414
27.2667
28.1587
29.1118
30.0734
30.9839
31.7986
32.4974
33.0794
33.5528
33.9255
34.2
34.3696
34.4135
34.2906
33.9419
33.3387
32.5982
31.9754
31.5718
31.3307
31.28
790.569
455.263
22.468
20.4157
16.6771
6.71327
15.8316
20.161
21.8695
22.8615
23.6784
24.4761
25.266
26.0372
26.8377
27.7392
28.7349
29.7559
30.7222
31.5786
32.306
32.9088
33.3982
33.7826
34.0639
34.2357
34.2804
34.1675
33.8639
33.375
32.8024
32.2993
31.9139
31.6111
31.383
789.486
455.692
22.1073
20.0632
17.2393
11.1178
13.3103
19.4473
21.5809
22.6472
23.4644
24.2494
25.0171
25.7595
26.529
27.4133
28.4256
29.4891
30.4999
31.3881
32.1346
32.7506
33.2539
33.6545
33.9524
34.1373
34.1904
34.0881
33.8173
33.404
32.9302
32.482
32.08
31.695
31.2721
787.699
454.934
21.9806
19.7865
16.3769
9.29999
8.82345
19.4963
21.545
22.5574
23.3514
24.1134
24.8545
25.5692
26.3203
27.1975
28.2135
29.2971
30.3372
31.2496
32.0082
32.6264
33.1272
33.5265
33.8282
34.0253
34.1032
34.0448
33.8446
33.5258
33.1396
32.7314
32.3128
31.8578
31.2642
786.317
455.494
22.1051
19.6525
16.06
9.1685
7.09356
15.9893
20.7889
22.2668
23.1403
23.897
24.6278
25.3352
26.0768
26.9343
27.9345
29.0262
30.1009
31.0578
31.8539
32.4956
33.005
33.3985
33.6824
33.8552
33.913
33.8517
33.6754
33.4027
33.062
32.6751
32.2484
31.7564
31.0725
785.14
457.162
22.1501
19.372
15.4258
8.61907
6.87418
7.66775
19.0157
21.6123
22.7846
23.6396
24.4182
25.1447
25.877
26.7032
27.662
28.7293
29.8179
30.8201
31.6688
32.3573
32.9075
33.3365
33.6481
33.8379
33.9016
33.8404
33.6646
33.394
33.0516
32.6548
32.2121
31.7023
30.9956
784.738
459.683
22.1563
18.7983
13.7542
6.59568
5.48117
8.28825
13.5834
20.6667
22.4345
23.3861
24.1796
24.9373
25.6792
26.477
27.3909
28.4208
29.5065
30.5486
31.4517
32.175
32.7366
33.1688
33.4893
33.6998
33.7951
33.774
33.6409
33.4072
33.0871
32.6941
32.2382
31.7034
30.9517
784.361
461.419
21.9508
18.3383
12.8952
5.88133
5.29941
4.33164
8.17248
17.6044
21.6252
23.1161
24.0577
24.8689
25.6162
26.3512
27.1579
28.0713
29.0671
30.0901
31.0638
31.9021
32.5574
33.0363
33.3658
33.5651
33.6434
33.6084
33.4697
33.2383
32.9254
32.5413
32.0968
31.5854
30.9028
785.064
462.751
21.8287
18.3971
13.2779
5.15858
5.32553
4.31269
4.80239
14.0747
20.7832
22.868
23.9605
24.8427
25.669
26.4361
27.202
28.0457
28.9545
29.8555
30.7108
31.5072
32.2149
32.7936
33.2212
33.4968
33.6264
33.6184
33.4848
33.2417
32.9073
32.5008
32.0425
31.5373
30.9099
785.686
462.022
21.5425
18.5027
13.8544
4.89359
5.34184
5.24008
6.67127
14.9509
21.6386
23.11
24.0636
24.94
25.7384
26.4691
27.1834
27.9961
28.9717
29.9869
30.8923
31.618
32.1849
32.641
33.0079
33.2814
33.451
33.5093
33.4531
33.2834
33.0072
32.638
32.1966
31.6939
31.0645
786.184
459.099
21.4783
19.0927
15.0722
4.83874
4.62603
6.1573
9.90465
18.3925
22.5858
23.6373
24.4554
25.2717
26.0361
26.7213
27.337
27.9468
28.6333
29.4558
30.4145
31.3999
32.2363
32.8238
33.185
33.3753
33.4314
33.3765
33.2275
32.9957
32.6891
32.317
31.8949
31.4365
30.9188
786.824
454.809
21.5459
19.871
16.9956
10.471
5.96788
5.76394
10.8226
20.5711
22.3378
23.3705
24.2572
25.0128
25.6904
26.3841
27.1971
28.1264
29.0079
29.6939
30.2274
30.7601
31.4051
32.1302
32.7981
33.3018
33.6106
33.7303
33.6795
33.4819
33.166
32.7631
32.3086
31.8304
31.3168
787.801
451.417
21.6421
20.6553
19.2666
15.7038
4.67663
4.44861
8.24429
14.3567
22.5578
23.1568
23.5745
24.2883
25.2692
26.2276
26.9907
27.6832
28.5392
29.6525
30.8014
31.6444
32.1064
32.3358
32.4894
32.645
32.8062
32.9356
32.9899
32.9374
32.7649
32.4784
32.1001
31.6483
31.1014
786.538
449.648
21.4446
20.6192
19.9102
18.7277
15.3563
7.02052
7.06934
7.31461
11.3152
21.3444
23.5259
23.9319
24.3265
25.0725
26.3111
27.605
28.4795
29.0791
29.7559
30.7347
31.9253
32.9571
33.5679
33.7835
33.7197
33.488
33.1736
32.8285
32.4708
32.1
31.7106
31.2849
30.7672
784.804
450.539
21.4091
20.2651
19.3079
18.5215
17.6643
13.8031
7.63515
6.8269
5.1956
6.72781
15.8468
22.8684
24.3942
24.8176
25.3293
26.3274
27.8874
29.3972
30.255
30.6001
30.8224
31.2419
31.9618
32.8413
33.6191
34.1195
34.3018
34.2009
33.8842
33.4162
32.8416
32.1503
31.1848
783.015
452.343
21.4357
20.1153
18.8122
17.2443
16.2278
15.5078
11.1906
7.68735
6.32694
5.56954
5.60004
11.6695
20.4551
24.3987
25.3083
25.7329
26.3999
27.678
29.5237
31.3316
32.4
32.6897
32.4651
32.0147
31.6275
31.5009
31.6291
31.8311
31.9302
31.839
31.5293
30.9401
29.829
777.761
451.979
21.1765
19.9348
18.6996
17.0424
15.3828
14.0324
12.1862
5.88512
6.46192
6.25634
4.38257
6.07069
9.42181
19.1421
25.0651
27.1418
27.6498
27.7186
27.8729
28.5871
29.9829
31.7924
33.4995
34.6006
34.9504
34.5954
33.755
32.779
31.9244
31.2542
30.6715
29.9699
28.6937
771.011
448.488
20.7703
19.8513
18.8909
17.4375
15.554
13.837
12.1158
9.55792
4.99283
6.48263
6.36231
4.3759
5.26126
7.88663
16.5266
23.1871
27.8285