/*--------------------------------*- C++ -*----------------------------------*\
| =========                 |                                                 |
| \\      /  F ield         | OpenFOAM: The Open Source CFD Toolbox           |
|  \\    /   O peration     | Version:  v1906                                 |
|   \\  /    A nd           | Web:      www.OpenFOAM.com                      |
|    \\/     M anipulation  |                                                 |
\*---------------------------------------------------------------------------*/
FoamFile
{
    version     2.0;
    format      ascii;
    class       volVectorField;
    location    "17";
    object      U;
}
// * * * * * * * * * * * * * * * * * * * * * * * * * * * * * * * * * * * * * //

dimensions      [0 1 -1 0 0 0 0];


internalField   nonuniform List<vector> 
78750
(
(-7.15752e-06 -8.65519e-05 2.53281e-05)
(-2.87178e-05 -7.31138e-05 5.99786e-05)
(-7.42022e-05 -3.5653e-05 9.38385e-05)
(-0.000136388 1.08347e-05 0.000135259)
(-0.000208879 5.75981e-05 0.000182974)
(-0.000287825 0.000101764 0.000234691)
(-0.000369715 0.000141867 0.00028714)
(-0.000451924 0.00017761 0.000337058)
(-0.000532786 0.000209076 0.000380872)
(-0.000611223 0.000236725 0.000415206)
(-0.000686296 0.000260053 0.00043683)
(-0.000756451 0.000277929 0.000443323)
(-0.000820184 0.000289062 0.00043311)
(-0.000875874 0.000292896 0.000406648)
(-0.000922672 0.000289388 0.000364299)
(-0.000959489 0.000279127 0.000308412)
(-0.000985296 0.000263123 0.000241982)
(-0.00100031 0.000241612 0.000164874)
(-0.00100394 0.000215934 8.11083e-05)
(-0.000996144 0.000187188 -6.04819e-06)
(-0.00097734 0.000156323 -9.41882e-05)
(-0.000947846 0.000124297 -0.000180625)
(-0.000908251 9.19701e-05 -0.000263008)
(-0.000859167 6.00706e-05 -0.000339075)
(-0.000801452 2.92178e-05 -0.000406589)
(-0.000735942 -5.25128e-08 -0.000463654)
(-0.000663551 -2.72118e-05 -0.000508417)
(-0.000585306 -5.17732e-05 -0.000539075)
(-0.000502349 -7.31046e-05 -0.00055381)
(-0.000415909 -9.04243e-05 -0.000550831)
(-0.000327053 -0.000102597 -0.000528275)
(-0.000236564 -0.000108019 -0.000484322)
(-0.000147213 -0.000104345 -0.000417194)
(-7.55258e-05 -8.85785e-05 -0.000325738)
(-2.45225e-05 -4.87151e-05 -0.000163823)
(-3.23206e-05 0.000479934 -0.000369548)
(-9.62338e-05 0.000902424 -0.000461529)
(-0.000179395 0.00111891 -0.000475169)
(-0.000291264 0.00127049 -0.000495427)
(-0.000405395 0.00135854 -0.000519464)
(-0.000513984 0.00138858 -0.000541226)
(-0.000613834 0.00137951 -0.00056263)
(-0.000702485 0.00134724 -0.000588197)
(-0.000777412 0.00130442 -0.000619912)
(-0.000838008 0.00125448 -0.000658364)
(-0.000884695 0.0011953 -0.000698074)
(-0.000915166 0.00111991 -0.000728367)
(-0.000932617 0.0010341 -0.000745068)
(-0.00093884 0.000942669 -0.000751691)
(-0.000934237 0.00084829 -0.000751136)
(-0.00092011 0.000753214 -0.000746405)
(-0.000897505 0.000659539 -0.000739076)
(-0.000867668 0.000568563 -0.000730453)
(-0.000831684 0.000481468 -0.000721081)
(-0.000790694 0.000399024 -0.000711633)
(-0.000745688 0.000321811 -0.000702582)
(-0.000697547 0.000250204 -0.000694293)
(-0.000647008 0.000184299 -0.000686921)
(-0.000594747 0.000124167 -0.00068032)
(-0.000541189 6.96711e-05 -0.000674216)
(-0.000486801 2.0715e-05 -0.000667917)
(-0.000431947 -2.30616e-05 -0.000660613)
(-0.000376921 -6.17249e-05 -0.000650951)
(-0.000321997 -9.55583e-05 -0.000637296)
(-0.000267485 -0.0001244 -0.000617162)
(-0.000213425 -0.000148116 -0.00058755)
(-0.000159145 -0.000165631 -0.000542387)
(-0.000104989 -0.000174558 -0.000466681)
(-6.2674e-05 -0.000167942 -0.00034062)
(-3.12968e-05 -9.86848e-05 -8.89544e-05)
(-5.00572e-05 0.000899391 0.000199809)
(-0.000118075 0.00154784 0.000322631)
(-0.000200297 0.00182326 0.000384446)
(-0.000303806 0.00199211 0.000415919)
(-0.000400246 0.00207125 0.000413762)
(-0.000485184 0.00207848 0.000383216)
(-0.000559659 0.0020321 0.000323628)
(-0.000622116 0.00195078 0.000238391)
(-0.00067111 0.00184797 0.000128212)
(-0.000705453 0.00173351 -1.31786e-06)
(-0.000724859 0.00161228 -0.000143291)
(-0.000730541 0.001488 -0.000284381)
(-0.000724387 0.00136218 -0.000409608)
(-0.000708766 0.00123602 -0.000505174)
(-0.000684797 0.00111171 -0.000564493)
(-0.000655848 0.000991838 -0.000596937)
(-0.000622603 0.000877443 -0.000612208)
(-0.000586212 0.000769814 -0.000616244)
(-0.000547869 0.000670309 -0.000612791)
(-0.000508355 0.000579243 -0.000604181)
(-0.000468335 0.0004966 -0.00059236)
(-0.000428407 0.000422117 -0.000578439)
(-0.000389027 0.000355473 -0.000563337)
(-0.000350506 0.000296067 -0.00054753)
(-0.000313175 0.000243365 -0.000531389)
(-0.000277145 0.000196672 -0.000514965)
(-0.000242536 0.000155569 -0.000498069)
(-0.000209379 0.000119441 -0.000480255)
(-0.000177714 8.80799e-05 -0.000460633)
(-0.000147472 6.11837e-05 -0.000437837)
(-0.000118469 3.90043e-05 -0.000409508)
(-9.01324e-05 2.18457e-05 -0.000371392)
(-6.20449e-05 1.07038e-05 -0.000315653)
(-3.86869e-05 7.16797e-06 -0.000233525)
(-2.20511e-05 2.08237e-05 -5.57202e-05)
(-5.39837e-05 0.00114825 0.000578207)
(-0.000104295 0.00191677 0.000843174)
(-0.000151071 0.00218931 0.000926908)
(-0.000209698 0.00230648 0.000981754)
(-0.000264522 0.0023248 0.0010188)
(-0.0003161 0.00227882 0.00102664)
(-0.000364874 0.00219705 0.00100201)
(-0.000409214 0.00209172 0.000940681)
(-0.000446438 0.00197376 0.000845792)
(-0.000474161 0.00184662 0.000719846)
(-0.000491226 0.00171458 0.000570127)
(-0.000497423 0.00157861 0.000404367)
(-0.000493971 0.00144117 0.000234831)
(-0.000481064 0.00130367 7.76659e-05)
(-0.000461798 0.00116992 -5.34987e-05)
(-0.000437014 0.00104358 -0.000149411)
(-0.000409975 0.000927152 -0.00021824)
(-0.000380748 0.000821347 -0.000267802)
(-0.000350496 0.000726557 -0.000303077)
(-0.000319857 0.000642039 -0.000327968)
(-0.000289756 0.000567837 -0.000344558)
(-0.000260631 0.000503293 -0.000354731)
(-0.000232865 0.000447492 -0.000359707)
(-0.000206794 0.000399568 -0.000360553)
(-0.000182601 0.000358437 -0.000357949)
(-0.00016043 0.000323166 -0.000352565)
(-0.000140258 0.000292663 -0.000344797)
(-0.000122013 0.000266061 -0.000335064)
(-0.000105518 0.000242221 -0.00032378)
(-9.05083e-05 0.000220402 -0.000310978)
(-7.64617e-05 0.000199743 -0.000296562)
(-6.24047e-05 0.000179648 -0.000281869)
(-4.68439e-05 0.000159349 -0.000269818)
(-3.21425e-05 0.000138507 -0.000253592)
(-1.97366e-05 0.000105007 -0.000152476)
(-3.16274e-05 0.00082724 0.000571272)
(-4.3983e-05 0.00129248 0.000809405)
(-4.599e-05 0.00149911 0.000872701)
(-4.5148e-05 0.00163962 0.000919691)
(-4.47816e-05 0.0017235 0.000958236)
(-4.75761e-05 0.00176084 0.000980542)
(-5.41921e-05 0.00176053 0.000986133)
(-6.30624e-05 0.00173009 0.000973247)
(-7.24633e-05 0.00167493 0.000941154)
(-8.05102e-05 0.00160011 0.000888274)
(-8.6028e-05 0.00150972 0.000816358)
(-8.80089e-05 0.00140806 0.00072867)
(-8.63983e-05 0.0012992 0.000631315)
(-8.22253e-05 0.00118812 0.000530124)
(-7.61353e-05 0.00107916 0.000432725)
(-6.8908e-05 0.00097662 0.000345289)
(-6.12295e-05 0.000883421 0.000271381)
(-5.37307e-05 0.00080114 0.000211113)
(-4.66784e-05 0.00073006 0.000163271)
(-4.03061e-05 0.000669863 0.000126101)
(-3.48504e-05 0.000619762 9.78859e-05)
(-3.03999e-05 0.000578767 7.71706e-05)
(-2.70822e-05 0.000545793 6.2688e-05)
(-2.48806e-05 0.000519538 5.33338e-05)
(-2.37724e-05 0.00049861 4.79497e-05)
(-2.36747e-05 0.000481574 4.55693e-05)
(-2.44531e-05 0.000466957 4.50258e-05)
(-2.59349e-05 0.000453236 4.5202e-05)
(-2.77753e-05 0.00043901 4.50142e-05)
(-2.96444e-05 0.000422712 4.34018e-05)
(-3.1082e-05 0.000402469 3.89582e-05)
(-3.13413e-05 0.000376096 2.75842e-05)
(-2.85594e-05 0.000340749 -1.22371e-06)
(-2.26983e-05 0.000294285 -4.36453e-05)
(-1.46366e-05 0.000196496 -4.38407e-05)
(-1.24415e-05 0.0005914 0.000474605)
(-1.01555e-05 0.000878693 0.000638864)
(-2.10014e-06 0.00101851 0.000675327)
(1.4228e-05 0.00112248 0.000701988)
(3.49145e-05 0.0011927 0.000723613)
(5.73809e-05 0.00123347 0.000735754)
(8.0103e-05 0.00125042 0.000737875)
(0.000102068 0.00124733 0.000731206)
(0.000122595 0.00122847 0.000716167)
(0.00014106 0.0011969 0.000693418)
(0.000157084 0.00115578 0.000663608)
(0.000170145 0.00110735 0.000628053)
(0.000179988 0.0010541 0.000588173)
(0.000186385 0.000998204 0.000545817)
(0.000189272 0.000942262 0.000502996)
(0.000188671 0.000888513 0.000461742)
(0.000184718 0.000838965 0.000423713)
(0.000177988 0.000794588 0.000390472)
(0.000168819 0.000755924 0.000362441)
(0.000157632 0.000722959 0.000339271)
(0.000144866 0.000695402 0.000320698)
(0.000130894 0.000672568 0.000306179)
(0.000116106 0.000653735 0.00029521)
(0.000100837 0.000637925 0.000287032)
(8.5408e-05 0.000624203 0.00028099)
(7.00923e-05 0.000611425 0.000276167)
(5.51507e-05 0.000598494 0.000271733)
(4.08365e-05 0.000584071 0.000266496)
(2.74308e-05 0.000566748 0.000259117)
(1.52266e-05 0.000544783 0.000248036)
(4.55968e-06 0.000516367 0.000231752)
(-4.13492e-06 0.000479189 0.000205735)
(-9.50466e-06 0.000430621 0.000159649)
(-1.03974e-05 0.000366906 9.54082e-05)
(-7.29342e-06 0.000228418 4.43993e-05)
(-2.5326e-06 0.000350628 0.000353037)
(3.99229e-06 0.000518518 0.000418236)
(1.27487e-05 0.000605814 0.000410672)
(2.83443e-05 0.000677763 0.000405454)
(4.69033e-05 0.000734913 0.000404311)
(6.67457e-05 0.000779773 0.000401696)
(8.68239e-05 0.000814754 0.000396599)
(0.000106377 0.000841356 0.000389371)
(0.000124675 0.000860535 0.000379907)
(0.00014121 0.000873124 0.000367885)
(0.00015557 0.000879611 0.000353138)
(0.000167462 0.000880911 0.000335928)
(0.000176691 0.000877928 0.000316705)
(0.000183104 0.000872031 0.000296502)
(0.000186582 0.00086428 0.000276322)
(0.000187189 0.000855792 0.000257261)
(0.000185057 0.000847069 0.000239974)
(0.000180397 0.000838654 0.000224729)
(0.000173614 0.00083051 0.000212093)
(0.000164861 0.000822735 0.000202126)
(0.000154472 0.000814981 0.000194553)
(0.000142759 0.000807126 0.00018924)
(0.000129964 0.000798677 0.000185682)
(0.000116349 0.000789409 0.000183602)
(0.000102129 0.000778707 0.000182366)
(8.75371e-05 0.000766181 0.000181554)
(7.279e-05 0.000750984 0.000180365)
(5.81076e-05 0.000732408 0.000178163)
(4.37788e-05 0.000709149 0.000173802)
(3.0074e-05 0.000679833 0.000166441)
(1.73361e-05 0.000642299 0.000154679)
(5.97646e-06 0.000594187 0.000134693)
(-2.49724e-06 0.000532263 9.6729e-05)
(-6.12733e-06 0.000450544 4.27988e-05)
(-5.57841e-06 0.000265866 7.24577e-06)
(-3.35253e-06 0.000270392 0.000260831)
(-2.77893e-06 0.000448069 0.000269684)
(-5.363e-06 0.000532126 0.000240953)
(-6.59208e-06 0.000598653 0.000215645)
(-6.42017e-06 0.000652255 0.000197581)
(-5.09782e-06 0.000695753 0.000181157)
(-2.67457e-06 0.000731666 0.000164081)
(8.46732e-07 0.000761426 0.000145805)
(5.41481e-06 0.00078646 0.000126869)
(1.08934e-05 0.00080742 0.000107968)
(1.70916e-05 0.000825185 9.02782e-05)
(2.36827e-05 0.000839998 7.41933e-05)
(3.036e-05 0.00085248 5.98387e-05)
(3.68003e-05 0.000862725 4.6703e-05)
(4.283e-05 0.000871318 3.4752e-05)
(4.82649e-05 0.000878341 2.38975e-05)
(5.30156e-05 0.000884314 1.4566e-05)
(5.69846e-05 0.000889168 6.894e-06)
(6.00172e-05 0.000893364 9.79795e-07)
(6.21049e-05 0.000896521 -2.89319e-06)
(6.31332e-05 0.000898792 -4.56209e-06)
(6.30184e-05 0.000899694 -4.31201e-06)
(6.17157e-05 0.000899223 -2.18135e-06)
(5.91717e-05 0.000896714 1.32542e-06)
(5.54052e-05 0.000891983 5.99474e-06)
(5.04334e-05 0.000884114 1.11395e-05)
(4.43571e-05 0.000872622 1.63776e-05)
(3.73134e-05 0.000856133 2.08313e-05)
(2.95321e-05 0.000833537 2.39491e-05)
(2.12903e-05 0.000802578 2.47095e-05)
(1.29663e-05 0.000760902 2.20752e-05)
(5.10419e-06 0.000704596 1.26697e-05)
(-1.12429e-06 0.00062894 -9.25635e-06)
(-3.99082e-06 0.000526896 -4.13736e-05)
(-4.22578e-06 0.000298657 -5.27697e-05)
(-4.80476e-06 0.000228847 0.000154839)
(-7.58314e-06 0.000426358 0.000169552)
(-1.28607e-05 0.000517577 0.000160071)
(-1.89118e-05 0.000588171 0.000148513)
(-2.44363e-05 0.000643088 0.000137018)
(-2.91827e-05 0.000686479 0.000124044)
(-3.30149e-05 0.000720946 0.000108863)
(-3.57112e-05 0.000748896 9.19065e-05)
(-3.71726e-05 0.000771665 7.35695e-05)
(-3.73224e-05 0.000790744 5.48299e-05)
(-3.61729e-05 0.000806807 3.64895e-05)
(-3.37677e-05 0.000820914 1.9537e-05)
(-3.02994e-05 0.000833384 4.33699e-06)
(-2.59372e-05 0.000844995 -8.66041e-06)
(-2.09116e-05 0.000855792 -1.94299e-05)
(-1.54269e-05 0.000866317 -2.76945e-05)
(-9.71883e-06 0.000876376 -3.35534e-05)
(-3.97912e-06 0.000886308 -3.68357e-05)
(1.50297e-06 0.000895711 -3.78412e-05)
(6.62085e-06 0.000904796 -3.65103e-05)
(1.11771e-05 0.00091299 -3.31935e-05)
(1.4991e-05 0.000920327 -2.79587e-05)
(1.79505e-05 0.00092605 -2.1298e-05)
(1.99488e-05 0.000930027 -1.34031e-05)
(2.09199e-05 0.000931257 -4.89619e-06)
(2.08457e-05 0.00092934 3.90563e-06)
(1.97567e-05 0.000922878 1.22601e-05)
(1.773e-05 0.000910962 1.97243e-05)
(1.49118e-05 0.000891467 2.5441e-05)
(1.14913e-05 0.000862513 2.88867e-05)
(7.71256e-06 0.000820613 2.89067e-05)
(3.88291e-06 0.000762036 2.35749e-05)
(5.97499e-07 0.000680744 8.94747e-06)
(-1.06328e-06 0.00056947 -1.32947e-05)
(-1.62301e-06 0.00031813 -2.77782e-05)
(-5.92493e-06 0.000218891 0.000107858)
(-1.07037e-05 0.000423597 0.00014189)
(-1.70902e-05 0.000517235 0.00015135)
(-2.49656e-05 0.000588444 0.000153386)
(-3.22213e-05 0.000643124 0.000150236)
(-3.86644e-05 0.000685273 0.000142847)
(-4.42237e-05 0.000718262 0.000132164)
(-4.87692e-05 0.000744165 0.00011883)
(-5.21727e-05 0.000765023 0.000103721)
(-5.43541e-05 0.000781885 8.74657e-05)
(-5.52728e-05 0.000796062 7.11409e-05)
(-5.49384e-05 0.000808081 5.553e-05)
(-5.34225e-05 0.000818921 4.14901e-05)
(-5.08555e-05 0.000828773 2.93389e-05)
(-4.73743e-05 0.000838348 1.95254e-05)
(-4.31312e-05 0.000847572 1.20915e-05)
(-3.8308e-05 0.000856944 7.28608e-06)
(-3.30879e-05 0.00086617 4.97507e-06)
(-2.76599e-05 0.000875556 5.25834e-06)
(-2.22249e-05 0.000884574 7.91278e-06)
(-1.69695e-05 0.000893353 1.29071e-05)
(-1.20464e-05 0.000901189 1.9794e-05)
(-7.61696e-06 0.000908028 2.83737e-05)
(-3.79098e-06 0.000912921 3.80308e-05)
(-6.57288e-07 0.000915574 4.83869e-05)
(1.74202e-06 0.00091471 5.86777e-05)
(3.39526e-06 0.000909651 6.84248e-05)
(4.34036e-06 0.000898595 7.67951e-05)
(4.6412e-06 0.000880165 8.3252e-05)
(4.41069e-06 0.000851607 8.69104e-05)
(3.74459e-06 0.000810236 8.70137e-05)
(2.75133e-06 0.000751525 8.18043e-05)
(1.57623e-06 0.000670331 6.87072e-05)
(7.81863e-07 0.000558805 4.75761e-05)
(4.16875e-07 0.000308141 1.73198e-05)
(-6.81998e-06 0.000211126 8.09834e-05)
(-1.26192e-05 0.000409895 0.000130136)
(-1.96185e-05 0.000500111 0.000151385)
(-2.82364e-05 0.000568258 0.000162182)
(-3.61088e-05 0.000619763 0.000164588)
(-4.30838e-05 0.000658956 0.000161145)
(-4.91204e-05 0.000688696 0.000153276)
(-5.41254e-05 0.000711526 0.000142073)
(-5.79349e-05 0.000728946 0.000128228)
(-6.04738e-05 0.000742581 0.000112607)
(-6.16604e-05 0.00075326 9.61017e-05)
(-6.14928e-05 0.000762117 7.99649e-05)
(-5.99868e-05 0.00076958 6.51264e-05)
(-5.72828e-05 0.000776504 5.23281e-05)
(-5.35183e-05 0.000783039 4.18653e-05)
(-4.88779e-05 0.000789789 3.40772e-05)
(-4.35226e-05 0.000796652 2.90308e-05)
(-3.76766e-05 0.000804012 2.68859e-05)
(-3.15268e-05 0.000811538 2.75567e-05)
(-2.53017e-05 0.000819411 3.10502e-05)
(-1.91925e-05 0.000827068 3.71199e-05)
(-1.34031e-05 0.000834481 4.5594e-05)
(-8.0896e-06 0.000840844 5.59909e-05)
(-3.41526e-06 0.000845896 6.78674e-05)
(5.22173e-07 0.000848554 8.03885e-05)
(3.66632e-06 0.000848265 9.27761e-05)
(6.02503e-06 0.000843589 0.000104076)
(7.60825e-06 0.000833526 0.000113657)
(8.46726e-06 0.00081602 0.000120732)
(8.67151e-06 0.000789222 0.000124674)
(8.27443e-06 0.000749934 0.000124448)
(7.26379e-06 0.000694695 0.000118613)
(5.61816e-06 0.000618187 0.00010447)
(3.96972e-06 0.000513872 8.10296e-05)
(2.56513e-06 0.00027998 3.70016e-05)
(-6.25415e-06 0.000204843 5.6368e-05)
(-1.19137e-05 0.000392445 0.000110302)
(-1.89357e-05 0.000477244 0.000136636)
(-2.76235e-05 0.000540582 0.000151368)
(-3.56372e-05 0.00058799 0.000156443)
(-4.27232e-05 0.000623143 0.000154837)
(-4.88572e-05 0.000649192 0.00014836)
(-5.3864e-05 0.000668163 0.000137963)
(-5.75949e-05 0.000681979 0.000124374)
(-5.98988e-05 0.000691789 0.000108278)
(-6.07125e-05 0.000698891 9.08162e-05)
(-5.99856e-05 0.000703976 7.33171e-05)
(-5.77843e-05 0.000708018 5.71284e-05)
(-5.41964e-05 0.00071143 4.3108e-05)
(-4.94185e-05 0.000714948 3.18107e-05)
(-4.36434e-05 0.000718727 2.3431e-05)
(-3.71292e-05 0.000723251 1.81549e-05)
(-3.00904e-05 0.000728411 1.60174e-05)
(-2.28017e-05 0.000734444 1.70899e-05)
(-1.5492e-05 0.000740987 2.1288e-05)
(-8.43229e-06 0.000748032 2.8561e-05)
(-1.8493e-06 0.000754957 3.87053e-05)
(4.01011e-06 0.000761495 5.14468e-05)
(8.98405e-06 0.000766756 6.61169e-05)
(1.29311e-05 0.000770216 8.17598e-05)
(1.58008e-05 0.000770715 9.70585e-05)
(1.75789e-05 0.000767421 0.000110827)
(1.83184e-05 0.000758781 0.000122115)
(1.8086e-05 0.000743436 0.000130345)
(1.69866e-05 0.000719103 0.000134872)
(1.51063e-05 0.00068342 0.000134826)
(1.24377e-05 0.000632705 0.000128551)
(9.03256e-06 0.000562721 0.000113269)
(5.94275e-06 0.000467122 8.75022e-05)
(3.50082e-06 0.000253364 3.70717e-05)
(-5.19197e-06 0.000201897 2.30393e-05)
(-1.06753e-05 0.00038118 7.06339e-05)
(-1.78393e-05 0.000461587 9.64167e-05)
(-2.69155e-05 0.00052095 0.000111029)
(-3.55135e-05 0.000564229 0.000115655)
(-4.32483e-05 0.000595268 0.000113458)
(-4.99533e-05 0.000616808 0.000106075)
(-5.53938e-05 0.00063123 9.43913e-05)
(-5.93123e-05 0.000640127 7.89068e-05)
(-6.15299e-05 0.000645103 6.04707e-05)
(-6.19247e-05 0.000647176 4.03497e-05)
(-6.04862e-05 0.000647546 2.02394e-05)
(-5.72691e-05 0.000646901 1.61102e-06)
(-5.24361e-05 0.000646176 -1.44193e-05)
(-4.61967e-05 0.000645802 -2.72838e-05)
(-3.88181e-05 0.00064645 -3.66775e-05)
(-3.05857e-05 0.000648262 -4.25033e-05)
(-2.18249e-05 0.000651617 -4.467e-05)
(-1.28503e-05 0.000656353 -4.31889e-05)
(-4.00014e-06 0.00066254 -3.8022e-05)
(4.42339e-06 0.000669707 -2.92392e-05)
(1.20957e-05 0.000677617 -1.69303e-05)
(1.87499e-05 0.000685504 -1.43365e-06)
(2.41382e-05 0.000692842 1.66235e-05)
(2.81014e-05 0.000698588 3.60849e-05)
(3.05311e-05 0.000701933 5.54453e-05)
(3.14302e-05 0.000701542 7.30517e-05)
(3.08591e-05 0.000696249 8.76584e-05)
(2.89672e-05 0.000684264 9.85151e-05)
(2.59314e-05 0.000663771 0.00010516)
(2.19418e-05 0.000632124 0.000106831)
(1.7097e-05 0.000586256 0.000101986)
(1.16359e-05 0.000521907 8.77808e-05)
(7.08518e-06 0.000433601 6.31505e-05)
(3.65263e-06 0.000235285 1.71656e-05)
(-3.8254e-06 0.000212982 -1.31202e-05)
(-9.21836e-06 0.000394082 2.07957e-05)
(-1.66334e-05 0.000474578 4.21555e-05)
(-2.63694e-05 0.000532674 5.354e-05)
(-3.59106e-05 0.00057363 5.52089e-05)
(-4.4645e-05 0.000601119 5.00015e-05)
(-5.22866e-05 0.000618296 3.94931e-05)
(-5.84647e-05 0.000627426 2.41919e-05)
(-6.28502e-05 0.000630625 4.57672e-06)
(-6.51938e-05 0.000629402 -1.84355e-05)
(-6.53707e-05 0.000625324 -4.31264e-05)
(-6.33437e-05 0.000619486 -6.75376e-05)
(-5.92149e-05 0.000613128 -8.98784e-05)
(-5.31738e-05 0.000607038 -0.000108962)
(-4.55028e-05 0.000602156 -0.000124104)
(-3.65286e-05 0.000598954 -0.000135048)
(-2.66086e-05 0.000598027 -0.000141703)
(-1.6127e-05 0.00059948 -0.000144068)
(-5.4805e-06 0.000603532 -0.00014211)
(4.94216e-06 0.000609905 -0.00013582)
(1.47445e-05 0.00061843 -0.000125164)
(2.35522e-05 0.000628452 -0.000110216)
(3.10244e-05 0.000639429 -9.12345e-05)
(3.68622e-05 0.000650364 -6.89217e-05)
(4.08436e-05 0.000660381 -4.45143e-05)
(4.28502e-05 0.000668173 -1.98266e-05)
(4.28804e-05 0.000672531 3.1547e-06)
(4.10275e-05 0.000671796 2.27198e-05)
(3.75017e-05 0.000664324 3.78936e-05)
(3.25804e-05 0.000647868 4.8266e-05)
(2.65901e-05 0.000619968 5.33869e-05)
(1.97707e-05 0.00057725 5.19504e-05)
(1.25984e-05 0.00051573 4.14357e-05)
(6.99466e-06 0.00042983 2.15586e-05)
(2.96391e-06 0.000235569 -1.1618e-05)
(-2.63788e-06 0.000240169 -4.30642e-05)
(-8.01016e-06 0.000434566 -2.5282e-05)
(-1.54175e-05 0.000519988 -1.06347e-05)
(-2.54803e-05 0.00058024 -4.14809e-06)
(-3.5587e-05 0.0006208 -6.5137e-06)
(-4.49948e-05 0.000646037 -1.54548e-05)
(-5.32757e-05 0.000659274 -2.99218e-05)
(-5.99672e-05 0.000663378 -4.96313e-05)
(-6.4674e-05 0.000660553 -7.41878e-05)
(-6.71115e-05 0.000652883 -0.000102354)
(-6.71245e-05 0.000641996 -0.00013207)
(-6.46947e-05 0.00062955 -0.000161012)
(-5.99347e-05 0.000616796 -0.000187189)
(-5.30778e-05 0.000605036 -0.000209302)
(-4.44459e-05 0.000595156 -0.0002267)
(-3.44089e-05 0.000588063 -0.00023917)
(-2.33786e-05 0.000584226 -0.000246689)
(-1.17752e-05 0.000584096 -0.000249293)
(-4.45267e-08 0.000587669 -0.00024698)
(1.13761e-05 0.000594914 -0.000239713)
(2.20477e-05 0.000605344 -0.00022743)
(3.15545e-05 0.000618452 -0.000210124)
(3.9506e-05 0.000633297 -0.000187989)
(4.5568e-05 0.000648937 -0.00016168)
(4.9483e-05 0.000664032 -0.000132512)
(5.11101e-05 0.000677259 -0.00010251)
(5.04455e-05 0.00068691 -7.40288e-05)
(4.76188e-05 0.000691266 -4.9166e-05)
(4.28781e-05 0.000688176 -2.91797e-05)
(3.65812e-05 0.000675324 -1.44723e-05)
(2.91545e-05 0.000649751 -5.24887e-06)
(2.09941e-05 0.000607995 -2.40108e-06)
(1.27394e-05 0.000545571 -7.9114e-06)
(6.5903e-06 0.000456793 -2.11693e-05)
(2.15163e-06 0.000254103 -3.87147e-05)
(-1.78381e-06 0.000280892 -5.88514e-05)
(-7.0639e-06 0.000496672 -5.4185e-05)
(-1.41145e-05 0.000590879 -4.61265e-05)
(-2.39604e-05 0.00065611 -4.45778e-05)
(-3.40082e-05 0.000698632 -5.08356e-05)
(-4.34449e-05 0.000723243 -6.32793e-05)
(-5.17748e-05 0.000733915 -8.13072e-05)
(-5.84785e-05 0.000733829 -0.000104862)
(-6.31471e-05 0.000725777 -0.000133534)
(-6.54694e-05 0.000712083 -0.000165829)
(-6.52859e-05 0.00069492 -0.000199351)
(-6.25836e-05 0.000676109 -0.000231483)
(-5.7505e-05 0.000657386 -0.000260125)
(-5.03065e-05 0.000640137 -0.000283997)
(-4.13285e-05 0.000625651 -0.000302582)
(-3.09595e-05 0.000614838 -0.000315786)
(-1.96177e-05 0.000608476 -0.000323705)
(-7.74245e-06 0.000606928 -0.000326418)
(4.22507e-06 0.000610402 -0.000323965)
(1.58339e-05 0.000618677 -0.00031628)
(2.66472e-05 0.000631375 -0.000303257)
(3.62316e-05 0.000647705 -0.000284772)
(4.41889e-05 0.000666731 -0.0002609)
(5.01639e-05 0.000687144 -0.000232145)
(5.3882e-05 0.000707518 -0.000199788)
(5.51804e-05 0.000726089 -0.000165951)
(5.4053e-05 0.000740984 -0.000133288)
(5.06377e-05 0.00074999 -0.000104239)
(4.52209e-05 0.000750718 -8.03347e-05)
(3.81867e-05 0.000740329 -6.20003e-05)
(3.00281e-05 0.000715566 -4.92477e-05)
(2.1216e-05 0.000672394 -4.25512e-05)
(1.25001e-05 0.00060592 -4.33084e-05)
(6.22231e-06 0.000509789 -5.03005e-05)
(1.51482e-06 0.000288945 -5.4842e-05)
(-1.48044e-06 0.00032894 -6.15523e-05)
(-6.75324e-06 0.000569286 -6.40196e-05)
(-1.34062e-05 0.000673844 -6.01921e-05)
(-2.28698e-05 0.00074549 -6.18544e-05)
(-3.25604e-05 0.000791151 -7.05159e-05)
(-4.16886e-05 0.000816344 -8.50702e-05)
(-4.97161e-05 0.000825488 -0.000105207)
(-5.61399e-05 0.000822351 -0.000131058)
(-6.05298e-05 0.000810058 -0.000162117)
(-6.25973e-05 0.000791434 -0.00019669)
(-6.21753e-05 0.000768918 -0.000232094)
(-5.92746e-05 0.000744764 -0.000265569)
(-5.40469e-05 0.000720891 -0.000294999)
(-4.67703e-05 0.00069904 -0.000319248)
(-3.77865e-05 0.000680602 -0.000337938)
(-2.74843e-05 0.000666758 -0.000351132)
(-1.62717e-05 0.0006583 -0.000358995)
(-4.57391e-06 0.000655772 -0.000361686)
(7.17857e-06 0.000659306 -0.000359241)
(1.85539e-05 0.00066877 -0.000351605)
(2.91265e-05 0.000683622 -0.000338599)
(3.84799e-05 0.000703062 -0.000320039)
(4.62154e-05 0.000725906 -0.000295844)
(5.19846e-05 0.000750744 -0.000266378)
(5.54982e-05 0.000775819 -0.000232773)
(5.65895e-05 0.000799183 -0.000197153)
(5.52358e-05 0.000818556 -0.000162311)
(5.15895e-05 0.000831462 -0.000130959)
(4.59236e-05 0.000835041 -0.000104819)
(3.86572e-05 0.000826122 -8.44278e-05)
(3.0275e-05 0.000800903 -6.96204e-05)
(2.13008e-05 0.000754917 -6.06208e-05)
(1.24893e-05 0.000682604 -5.84062e-05)
(6.28096e-06 0.00057698 -6.15245e-05)
(1.33077e-06 0.000333446 -5.89329e-05)
(-1.59468e-06 0.000379879 -5.47622e-05)
(-6.95903e-06 0.000644941 -5.80781e-05)
(-1.34509e-05 0.000760065 -5.54681e-05)
(-2.27296e-05 0.00083838 -5.82003e-05)
(-3.22198e-05 0.00088758 -6.77055e-05)
(-4.11256e-05 0.000913751 -8.30457e-05)
(-4.89273e-05 0.000921883 -0.000104062)
(-5.5118e-05 0.000916159 -0.000130918)
(-5.92825e-05 0.000900182 -0.000163017)
(-6.11278e-05 0.000877119 -0.000198468)
(-6.04984e-05 0.000849816 -0.000234444)
(-5.74127e-05 0.000820798 -0.0002681)
(-5.20409e-05 0.000792318 -0.000297401)
(-4.46675e-05 0.000766303 -0.00032132)
(-3.5644e-05 0.000744396 -0.000339628)
(-2.53499e-05 0.000727874 -0.000352461)
(-1.41981e-05 0.00071769 -0.000360077)
(-2.60045e-06 0.0007144 -0.000362662)
(9.02995e-06 0.000718207 -0.000360298)
(2.02747e-05 0.000728915 -0.000352889)
(3.07187e-05 0.000745976 -0.000340238)
(3.99502e-05 0.000768439 -0.000322073)
(4.75835e-05 0.000795024 -0.000298245)
(5.3261e-05 0.000824084 -0.000268976)
(5.66931e-05 0.000853675 -0.000235285)
(5.77003e-05 0.000881528 -0.000199212)
(5.62595e-05 0.000905094 -0.000163617)
(5.25141e-05 0.000921504 -0.000131352)
(4.67577e-05 0.000927558 -0.000104328)
(3.93879e-05 0.00091963 -8.31468e-05)
(3.0904e-05 0.000893504 -6.76277e-05)
(2.18254e-05 0.000844164 -5.7881e-05)
(1.2917e-05 0.000765492 -5.47627e-05)
(6.68149e-06 0.000649766 -5.68764e-05)
(1.50359e-06 0.000382453 -5.33442e-05)
(-2.02987e-06 0.000429827 -4.12516e-05)
(-7.56132e-06 0.000718134 -4.03372e-05)
(-1.41277e-05 0.00084317 -3.6432e-05)
(-2.34646e-05 0.000927751 -3.84883e-05)
(-3.29466e-05 0.000980225 -4.75998e-05)
(-4.18156e-05 0.00100725 -6.27805e-05)
(-4.95554e-05 0.00101427 -8.38396e-05)
(-5.56704e-05 0.00100593 -0.000110925)
(-5.97425e-05 0.000986209 -0.000143328)
(-6.14775e-05 0.000958674 -0.000179036)
(-6.07047e-05 0.000926515 -0.000215093)
(-5.74492e-05 0.000892613 -0.000248635)
(-5.18881e-05 0.000859496 -0.000277657)
(-4.43201e-05 0.000829367 -0.000301226)
(-3.50987e-05 0.000804045 -0.000319166)
(-2.4624e-05 0.000784974 -0.000331687)
(-1.3308e-05 0.000773174 -0.00033909)
(-1.568e-06 0.000769266 -0.000341597)
(1.01895e-05 0.000773451 -0.000339283)
(2.156e-05 0.000785538 -0.000332063)
(3.21202e-05 0.000804917 -0.000319705)
(4.14575e-05 0.000830571 -0.000301902)
(4.91758e-05 0.000861058 -0.000278436)
(5.4911e-05 0.000894554 -0.000249478)
(5.83633e-05 0.000928846 -0.000215961)
(5.9356e-05 0.000961391 -0.00017989)
(5.78581e-05 0.000989291 -0.000144137)
(5.40351e-05 0.00100934 -0.000111671)
(4.8178e-05 0.00101794 -8.45135e-05)
(4.07032e-05 0.00101108 -6.33704e-05)
(3.2097e-05 0.000984128 -4.80806e-05)
(2.28727e-05 0.0009316 -3.87972e-05)
(1.37762e-05 0.000846821 -3.64476e-05)
(7.37938e-06 0.000721422 -3.99543e-05)
(1.96049e-06 0.00043133 -4.05681e-05)
(-2.67303e-06 0.000475752 -2.3058e-05)
(-8.36882e-06 0.000784413 -1.44449e-05)
(-1.51108e-05 0.000918076 -7.61414e-06)
(-2.45757e-05 0.00100804 -7.79193e-06)
(-3.41286e-05 0.00106322 -1.5611e-05)
(-4.30445e-05 0.00109071 -2.9898e-05)
(-5.08434e-05 0.00109634 -5.04162e-05)
(-5.7032e-05 0.00108509 -7.72586e-05)
(-6.11918e-05 0.00106129 -0.000109689)
(-6.29809e-05 0.00102888 -0.000145589)
(-6.22001e-05 0.0009914 -0.000181929)
(-5.88421e-05 0.000952121 -0.000215741)
(-5.30801e-05 0.000913927 -0.00024496)
(-4.523e-05 0.000879325 -0.000268614)
(-3.56763e-05 0.000850346 -0.000286561)
(-2.48447e-05 0.000828587 -0.00029906)
(-1.31649e-05 0.000815135 -0.00030645)
(-1.06281e-06 0.000810631 -0.000308942)
(1.1051e-05 0.000815289 -0.000306623)
(2.27629e-05 0.000828906 -0.000299395)
(3.36469e-05 0.000850851 -0.000287041)
(4.32751e-05 0.000880043 -0.000269213)
(5.12178e-05 0.000914889 -0.000245647)
(5.70884e-05 0.000953353 -0.000216487)
(6.05678e-05 0.000992919 -0.000182708)
(6.14871e-05 0.00103069 -0.000146379)
(5.98517e-05 0.00106337 -0.00011048)
(5.58549e-05 0.00108741 -7.80439e-05)
(4.98407e-05 0.00109886 -5.11904e-05)
(4.2225e-05 0.00109336 -3.06473e-05)
(3.34965e-05 0.00106593 -1.63055e-05)
(2.41313e-05 0.00101074 -8.36948e-06)
(1.48427e-05 0.000920661 -7.96116e-06)
(8.22962e-06 0.000786778 -1.44537e-05)
(2.61778e-06 0.000476605 -2.27447e-05)
(-3.32752e-06 0.000515239 -3.2541e-06)
(-9.07071e-06 0.000840164 1.43445e-05)
(-1.59311e-05 0.000980696 2.47712e-05)
(-2.54098e-05 0.00107495 2.71569e-05)
(-3.49352e-05 0.00113222 2.13468e-05)
(-4.38433e-05 0.0011599 8.68128e-06)
(-5.17146e-05 0.00116406 -1.05667e-05)
(-5.80893e-05 0.00114982 -3.66142e-05)
(-6.25178e-05 0.00112176 -6.88792e-05)
(-6.4624e-05 0.00108402 -0.000105477)
(-6.41589e-05 0.00104047 -0.000143426)
(-6.09673e-05 0.000994898 -0.00017925)
(-5.5118e-05 0.000950773 -0.000210148)
(-4.69156e-05 0.000911077 -0.000234691)
(-3.69189e-05 0.000878081 -0.000252898)
(-2.5587e-05 0.000853446 -0.000265355)
(-1.34101e-05 0.000838274 -0.000272627)
(-7.91518e-07 0.000833177 -0.000275081)
(1.18346e-05 0.000838364 -0.000272774)
(2.40329e-05 0.000853634 -0.000265646)
(3.54002e-05 0.000878384 -0.000253324)
(4.54443e-05 0.00091152 -0.000235233)
(5.37111e-05 0.000951387 -0.000210771)
(5.96372e-05 0.000995714 -0.000179916)
(6.29113e-05 0.0010415 -0.000144102)
(6.34678e-05 0.00108527 -0.000106155)
(6.1467e-05 0.00112321 -6.95735e-05)
(5.7158e-05 0.00115144 -3.73395e-05)
(5.09155e-05 0.00116581 -1.13243e-05)
(4.31859e-05 0.00116174 7.90928e-06)
(3.44236e-05 0.0011341 2.05938e-05)
(2.50453e-05 0.00107683 2.64843e-05)
(1.57093e-05 0.000982522 2.42793e-05)
(8.95742e-06 0.000841871 1.41376e-05)
(3.28079e-06 0.000515637 -3.16588e-06)
(-3.72571e-06 0.000546769 1.34787e-05)
(-9.32158e-06 0.000883621 3.89812e-05)
(-1.61293e-05 0.0010292 5.26818e-05)
(-2.5444e-05 0.00112661 5.75445e-05)
(-3.4774e-05 0.00118541 5.37798e-05)
(-4.35177e-05 0.00121318 4.29194e-05)
(-5.13701e-05 0.00121609 2.51886e-05)
(-5.77903e-05 0.00119942 2.71559e-07)
(-6.25704e-05 0.00116766 -3.16775e-05)
(-6.5255e-05 0.00112506 -6.93299e-05)
(-6.51815e-05 0.00107562 -0.000109599)
(-6.23603e-05 0.00102297 -0.000147982)
(-5.67661e-05 0.000971517 -0.000180533)
(-4.83094e-05 0.000925627 -0.000205804)
(-3.79427e-05 0.000887958 -0.000224006)
(-2.62587e-05 0.000860051 -0.000236146)
(-1.36504e-05 0.000842963 -0.000243111)
(-6.10007e-07 0.000837226 -0.000245412)