/*--------------------------------*- C++ -*----------------------------------*\
| =========                 |                                                 |
| \\      /  F ield         | OpenFOAM: The Open Source CFD Toolbox           |
|  \\    /   O peration     | Version:  v1906                                 |
|   \\  /    A nd           | Web:      www.OpenFOAM.com                      |
|    \\/     M anipulation  |                                                 |
\*---------------------------------------------------------------------------*/
FoamFile
{
    version     2.0;
    format      ascii;
    class       volVectorField;
    location    "17";
    object      U;
}
// * * * * * * * * * * * * * * * * * * * * * * * * * * * * * * * * * * * * * //

dimensions      [0 1 -1 0 0 0 0];


internalField   nonuniform List<vector> 
78750
(
(-0.337665 -0.17854 -0.084476)
(-0.294206 -0.16423 -0.0808969)
(-0.284398 -0.139968 -0.072067)
(-0.240535 -0.114895 -0.0608968)
(-0.19382 -0.0920111 -0.049363)
(-0.177181 -0.0834103 -0.0454425)
(-0.159662 -0.0726786 -0.0422288)
(-0.143126 -0.0665885 -0.0400439)
(-0.125222 -0.0586767 -0.0372875)
(-0.109631 -0.0532544 -0.0351075)
(-0.0956084 -0.0476779 -0.0331654)
(-0.0832268 -0.0427616 -0.0312271)
(-0.0718042 -0.0385187 -0.0295807)
(-0.0619583 -0.0345844 -0.028029)
(-0.0528481 -0.0311751 -0.0266238)
(-0.0447576 -0.0281347 -0.0253375)
(-0.0373661 -0.0254699 -0.0241476)
(-0.0306233 -0.0231431 -0.0230406)
(-0.0244231 -0.0211174 -0.0219969)
(-0.0187045 -0.0193463 -0.020987)
(-0.0133933 -0.0177814 -0.0199612)
(-0.00839645 -0.0163985 -0.0188737)
(-0.00369531 -0.0151748 -0.0177089)
(0.000704717 -0.0140719 -0.0164568)
(0.00482145 -0.0130482 -0.0150891)
(0.00866015 -0.0120593 -0.0135589)
(0.0122067 -0.0110564 -0.0117992)
(0.0154271 -0.00998227 -0.00971844)
(0.0182663 -0.00876513 -0.00719371)
(0.02064 -0.00731324 -0.00406207)
(0.0224005 -0.00553167 -0.000120383)
(0.0233469 -0.00343339 0.0047996)
(0.0229927 -0.00108844 0.0108981)
(0.0242348 0.00169083 0.0213703)
(0.0152645 0.0765987 0.0293684)
(0.0391376 -0.20592 0.0559811)
(-0.0632844 -0.176272 0.03056)
(-0.0345536 -0.195973 0.0103482)
(-0.0584233 -0.195858 -0.00484525)
(-0.0659341 -0.166032 -0.0152491)
(-0.0691216 -0.143526 -0.0200877)
(-0.0716234 -0.123984 -0.0250778)
(-0.0720626 -0.109962 -0.0286577)
(-0.0717017 -0.0985726 -0.0315089)
(-0.0703198 -0.0889139 -0.0336623)
(-0.0682775 -0.0805133 -0.0353074)
(-0.0656314 -0.0730549 -0.0366012)
(-0.0625842 -0.0663743 -0.0376152)
(-0.0591829 -0.0603427 -0.0384267)
(-0.055517 -0.0548715 -0.0390878)
(-0.0516309 -0.049909 -0.0396403)
(-0.0475612 -0.0454149 -0.0401176)
(-0.0433375 -0.0413494 -0.0405431)
(-0.0389834 -0.0376729 -0.040933)
(-0.0345194 -0.0343472 -0.0412965)
(-0.0299642 -0.0313297 -0.0416372)
(-0.0253378 -0.028568 -0.0419496)
(-0.0206627 -0.0260052 -0.0422174)
(-0.0159631 -0.0235848 -0.0424146)
(-0.0112675 -0.0212449 -0.0425047)
(-0.0066131 -0.0189098 -0.0424404)
(-0.00204792 -0.0164835 -0.0421644)
(0.00237044 -0.0138443 -0.0416096)
(0.00657051 -0.0108345 -0.0407011)
(0.0104233 -0.00724198 -0.0393612)
(0.013675 -0.00275708 -0.0374968)
(0.0160664 0.00329612 -0.0348427)
(0.0175659 0.0137007 -0.0301342)
(0.0166111 0.0490193 -0.0166939)
(0.00662793 0.212273 0.015211)
(-0.016279 0.0898171 0.00652995)
(-0.0316047 0.0364826 0.00191499)
(-0.0519534 -0.0191825 0.00321362)
(-0.0636779 -0.0570451 0.00585422)
(-0.0723534 -0.0827841 0.00760187)
(-0.0749059 -0.0923263 0.00986044)
(-0.0753477 -0.0939632 0.0126505)
(-0.0733285 -0.089643 0.0148446)
(-0.0693304 -0.0854563 0.0157169)
(-0.0647045 -0.0820433 0.015817)
(-0.0596814 -0.0783231 0.015292)
(-0.0546618 -0.0745684 0.0142065)
(-0.0499072 -0.0710032 0.0126892)
(-0.045532 -0.0676204 0.0108415)
(-0.0415841 -0.0643848 0.00874389)
(-0.0380477 -0.0612573 0.00647293)
(-0.034847 -0.0581856 0.00409749)
(-0.0318755 -0.0551234 0.00167686)
(-0.0290446 -0.0520334 -0.00074054)
(-0.0262736 -0.0489057 -0.0031093)
(-0.0234832 -0.0457223 -0.00538136)
(-0.0206183 -0.0424682 -0.00751774)
(-0.0176322 -0.0391161 -0.00949598)
(-0.014483 -0.0356195 -0.0113095)
(-0.0111492 -0.0318959 -0.0129588)
(-0.00764938 -0.0277963 -0.0144415)
(-0.00404938 -0.0231095 -0.0157407)
(-0.000445049 -0.0176258 -0.01682)
(0.00306491 -0.0111437 -0.0176291)
(0.00637999 -0.00330089 -0.0180934)
(0.0093793 0.00675082 -0.0180847)
(0.0118335 0.0215548 -0.0173288)
(0.0134008 0.0511331 -0.0148314)
(0.0121555 0.140564 -0.00581568)
(0.00417963 0.298317 0.0152315)
(0.00247716 0.0195287 0.0239746)
(0.00817217 -0.00799441 0.0226857)
(0.00911082 -0.0485231 0.0175749)
(0.0102506 -0.092036 0.0142974)
(0.0116474 -0.128363 0.0136365)
(0.0132182 -0.154455 0.014227)
(0.0159216 -0.171628 0.0152704)
(0.0195369 -0.180789 0.0170085)
(0.0237691 -0.181684 0.0195724)
(0.02822 -0.175286 0.022604)
(0.032468 -0.164032 0.0257086)
(0.0363215 -0.150033 0.0287412)
(0.0396599 -0.134704 0.0316126)
(0.0423486 -0.119162 0.0341603)
(0.0442528 -0.104432 0.036125)
(0.0452243 -0.0914236 0.0372014)
(0.0450894 -0.0808212 0.0371313)
(0.0436867 -0.0729209 0.0357994)
(0.0409292 -0.0675088 0.0332632)
(0.0368246 -0.0639487 0.0297045)
(0.0315642 -0.0614751 0.0254224)
(0.0256692 -0.0594324 0.0208517)
(0.019886 -0.0574191 0.0164343)
(0.0150178 -0.0551981 0.0124738)
(0.0117251 -0.0524312 0.00910549)
(0.0102594 -0.048651 0.00629486)
(0.0104071 -0.0433711 0.0039672)
(0.011521 -0.0366666 0.00209522)
(0.0129173 -0.0289918 0.000596188)
(0.0143016 -0.0198928 -0.000554356)
(0.0154448 -0.00798617 -0.00127087)
(0.0159626 0.00997428 -0.00130733)
(0.0147531 0.0473154 9.03819e-05)
(0.00996322 0.163817 0.00648886)
(0.00168696 0.3357 0.0198297)
(0.000237941 -0.0266757 0.0398625)
(0.00632636 -0.068257 0.0558872)
(0.0164869 -0.1137 0.0581258)
(0.0296089 -0.158197 0.0561446)
(0.0436052 -0.195037 0.0519231)
(0.0571736 -0.221481 0.0467301)
(0.0695637 -0.237624 0.0413401)
(0.0805635 -0.244945 0.0359497)
(0.0901165 -0.245216 0.0304992)
(0.0982099 -0.239902 0.0249471)
(0.104911 -0.230018 0.0193517)
(0.1103 -0.216298 0.0138689)
(0.11444 -0.19928 0.00879349)
(0.117378 -0.179287 0.00460556)
(0.119156 -0.156478 0.00193053)
(0.119802 -0.130988 0.00140736)
(0.119305 -0.103127 0.0034813)
(0.11758 -0.0735678 0.00821979)
(0.114481 -0.0435981 0.0150754)
(0.109851 -0.0155664 0.0225747)
(0.103594 0.00679923 0.028463)
(0.0960131 0.0197679 0.0307971)
(0.0874679 0.0226345 0.0294145)
(0.0774434 0.0164242 0.025)
(0.0658425 0.00263008 0.0184009)
(0.0528436 -0.0145729 0.0110171)
(0.0374548 -0.0273083 0.00528853)
(0.0230834 -0.0266431 0.00454028)
(0.014147 -0.0185847 0.00524944)
(0.00991869 -0.00776809 0.00459482)
(0.0086685 0.0107649 0.003605)
(0.00862955 0.0463951 0.00315955)
(0.0083252 0.125636 0.00503204)
(0.0057942 0.272399 0.0103567)
(4.39243e-05 0.390317 0.0177911)
(0.00211638 -0.0733874 0.047525)
(0.0204027 -0.199792 0.0463532)
(0.0399319 -0.287582 0.0306463)
(0.0593779 -0.344532 0.015524)
(0.0767628 -0.376556 0.00352145)
(0.0912503 -0.38988 -0.00531228)
(0.102808 -0.389606 -0.0118981)
(0.111652 -0.379464 -0.0173623)
(0.118042 -0.362143 -0.0227795)
(0.12227 -0.339907 -0.02898)
(0.124811 -0.314765 -0.0362884)
(0.126321 -0.288329 -0.0444003)
(0.127428 -0.261713 -0.052582)
(0.12857 -0.235575 -0.0599979)
(0.129983 -0.210195 -0.0659615)
(0.131769 -0.185572 -0.0700026)
(0.133958 -0.161501 -0.0718353)
(0.136514 -0.137615 -0.0712841)
(0.139346 -0.11349 -0.0681809)
(0.142187 -0.0887768 -0.0624364)
(0.144636 -0.0629758 -0.0537688)
(0.146023 -0.0365854 -0.042581)
(0.145463 -0.0100332 -0.0294227)
(0.142657 0.0198252 -0.0117427)
(0.136082 0.0497294 0.00837939)
(0.123662 0.0847748 0.0354004)
(0.106922 0.133451 0.0745027)
(0.0847085 0.129568 0.0837836)
(0.0600994 0.0551683 0.0494731)
(0.0435664 0.00933001 0.0240512)
(0.0327329 0.00687341 0.0161375)
(0.0239799 0.0293466 0.0146803)
(0.0166524 0.0939552 0.0155707)
(0.0115013 0.268441 0.0208296)
(0.00401958 0.405915 0.0232053)
(0.00972379 -0.209403 0.00209924)
(0.0283692 -0.363507 -0.0145248)
(0.0411521 -0.421144 -0.0217941)
(0.0476805 -0.432752 -0.0219414)
(0.0502212 -0.423782 -0.0194283)
(0.0507387 -0.404068 -0.0162251)
(0.0496345 -0.376018 -0.0135632)
(0.0472595 -0.341387 -0.0135067)
(0.0440456 -0.303356 -0.0186192)
(0.0404948 -0.266437 -0.0305724)
(0.0374842 -0.234222 -0.048599)
(0.0359394 -0.207716 -0.0697545)
(0.0362061 -0.185847 -0.0908402)
(0.0380261 -0.166871 -0.109672)
(0.040876 -0.149316 -0.125147)
(0.0441753 -0.132234 -0.136966)
(0.047427 -0.115101 -0.145212)
(0.0502185 -0.0976344 -0.150125)
(0.0522239 -0.0796117 -0.15194)
(0.0532167 -0.060741 -0.150671)
(0.0530055 -0.0406607 -0.145937)
(0.0513597 -0.0189271 -0.136876)
(0.0478874 0.00525435 -0.121625)
(0.0437879 0.0325085 -0.097763)
(0.0397124 0.0616534 -0.068867)
(0.0364828 0.0919807 -0.0396129)
(0.0361791 0.128185 -0.0068583)
(0.0360992 0.160759 0.0289369)
(0.0325109 0.166806 0.0529597)
(0.0255052 0.141374 0.0476859)
(0.0197311 0.122577 0.0296103)
(0.0152634 0.127839 0.016513)
(0.00889353 0.179479 0.0110428)
(0.00343839 0.333048 0.0177678)
(-0.000445025 0.447388 0.0204061)
(0.000215592 -0.311631 0.00715065)
(-0.0108098 -0.394444 0.0130748)
(-0.0198958 -0.394593 0.0179648)
(-0.0279403 -0.382994 0.0224321)
(-0.0348913 -0.365992 0.027283)
(-0.0391596 -0.343642 0.0318569)
(-0.0408523 -0.314477 0.0350249)
(-0.0400457 -0.279469 0.0345884)
(-0.0375051 -0.244429 0.0279993)
(-0.0345132 -0.216495 0.0145855)
(-0.0317585 -0.197909 -0.00302674)
(-0.0292732 -0.185156 -0.0212325)
(-0.0268781 -0.173624 -0.0383918)
(-0.0244192 -0.160426 -0.05417)
(-0.0219675 -0.144295 -0.0682737)
(-0.0198454 -0.125057 -0.0804183)
(-0.0185026 -0.103095 -0.0904411)
(-0.0183385 -0.0789992 -0.0980879)
(-0.0195719 -0.0532453 -0.10271)
(-0.0220634 -0.0257042 -0.102877)
(-0.0252627 0.00437526 -0.0961242)
(-0.0284814 0.0370133 -0.0802434)
(-0.0317338 0.069634 -0.0556273)
(-0.0344606 0.0961684 -0.0286241)
(-0.0356377 0.112672 -0.00705519)
(-0.0346319 0.120718 0.00793256)
(-0.0308656 0.121299 0.0191319)
(-0.0232476 0.109589 0.0248456)
(-0.0133041 0.0900253 0.020261)
(-0.00574908 0.0813296 0.0127552)
(-0.000128412 0.0866615 0.00638469)
(0.00377575 0.116879 0.00139166)
(0.00340141 0.215456 0.00141489)
(0.000478418 0.380822 0.0101726)
(-0.00158107 0.460145 0.0132044)
(-0.0103201 -0.192654 0.00513172)
(-0.01719 -0.30287 -0.0200963)
(-0.0198492 -0.353735 -0.034176)
(-0.0201334 -0.380012 -0.0415083)
(-0.0192301 -0.394021 -0.0448213)
(-0.0176147 -0.399173 -0.0451215)
(-0.0152603 -0.394991 -0.0419046)
(-0.0120859 -0.378399 -0.0333268)
(-0.00833306 -0.346513 -0.0183332)
(-0.00492752 -0.302663 -5.99322e-05)
(-0.00331934 -0.256819 0.0149078)
(-0.00471409 -0.218126 0.0210887)
(-0.00917365 -0.18876 0.0170806)
(-0.0158249 -0.165003 0.00498267)
(-0.0231894 -0.141492 -0.0104703)
(-0.0299188 -0.114634 -0.0243139)
(-0.0354434 -0.0833206 -0.0335143)
(-0.0396278 -0.0489596 -0.0366284)
(-0.0424842 -0.0153606 -0.0336832)
(-0.0441164 0.0126648 -0.0264024)
(-0.0444778 0.0324039 -0.0173522)
(-0.0431548 0.044746 -0.0084663)
(-0.0400989 0.0522182 4.43259e-05)
(-0.0354173 0.0556441 0.00786956)
(-0.029309 0.0544498 0.0138202)
(-0.0218986 0.0484755 0.016791)
(-0.0135484 0.0391881 0.0165404)
(-0.00563028 0.0309919 0.0137258)
(0.00049812 0.0289598 0.00991947)
(0.00512056 0.0353037 0.00599731)
(0.00878763 0.0556449 0.00178188)
(0.010697 0.11032 -0.00221866)
(0.00800942 0.235663 -0.00209095)
(0.00367466 0.404941 0.00520111)
(0.000166846 0.461326 0.00898071)
(0.0017656 -0.185131 -0.00758498)
(0.0124475 -0.348546 -0.00993502)
(0.0184609 -0.399921 -0.00779575)
(0.0205258 -0.413241 -0.00718852)
(0.0205077 -0.413889 -0.00845613)
(0.0186948 -0.406495 -0.0118616)
(0.0149877 -0.39196 -0.0174285)
(0.0101287 -0.371668 -0.0233627)
(0.00529764 -0.344526 -0.0256819)
(0.00178036 -0.305414 -0.0191368)
(0.000444027 -0.251828 -0.00125305)
(0.000593397 -0.189417 0.0238377)
(0.000427127 -0.129411 0.0478249)
(-0.00112304 -0.0830822 0.0626969)
(-0.00436182 -0.0541327 0.065192)
(-0.0091332 -0.037872 0.0578023)
(-0.0144269 -0.0278575 0.0457808)
(-0.0190987 -0.0195271 0.0345076)
(-0.0221661 -0.0108995 0.0270912)
(-0.0232786 -0.00267773 0.0237607)
(-0.0224927 0.00330572 0.0231005)
(-0.0200415 0.00616394 0.0235995)
(-0.016329 0.00617019 0.0241445)
(-0.0116598 0.00375927 0.0240968)
(-0.00642227 -0.000423345 0.0230481)
(-0.00122661 -0.00485376 0.020938)
(0.00324553 -0.00740303 0.0181778)
(0.00659504 -0.00673607 0.0152329)
(0.00899617 -0.00172201 0.012086)
(0.010676 0.0112097 0.00847121)
(0.0114535 0.0422316 0.0043075)
(0.0109955 0.117012 0.00023028)
(0.00747072 0.27063 -0.000569223)
(0.00334407 0.439882 0.00399323)
(0.00034379 0.472458 0.00692004)
(0.00204667 -0.258742 0.00396356)
(0.0066979 -0.374971 0.00598343)
(0.00922571 -0.396296 0.00357552)
(0.011165 -0.3981 -7.5968e-05)
(0.0125945 -0.390214 -0.00558344)
(0.0132564 -0.373012 -0.0138337)
(0.0130934 -0.348796 -0.0246376)
(0.0124698 -0.323826 -0.0365113)
(0.0118297 -0.303305 -0.0477949)
(0.0115063 -0.287415 -0.0572995)
(0.0119444 -0.272451 -0.0635968)
(0.0139269 -0.253099 -0.0640614)
(0.0181924 -0.224603 -0.0553558)
(0.0243688 -0.186415 -0.0370321)
(0.0311047 -0.141867 -0.0122537)
(0.0369832 -0.0951964 0.0148399)
(0.0408201 -0.0518235 0.0396065)
(0.0420158 -0.0188603 0.0571045)
(0.0407969 -0.00192046 0.0646357)
(0.0382374 0.00112987 0.0644043)
(0.0348532 -0.00273403 0.0603479)
(0.0307312 -0.00911325 0.0547612)
(0.0268992 -0.0154925 0.0494876)
(0.0239659 -0.0203679 0.0451056)
(0.0218082 -0.0230832 0.0411762)
(0.0202942 -0.0232615 0.0372487)
(0.0192169 -0.0204024 0.0328076)
(0.0182621 -0.0131228 0.0271924)
(0.0173121 3.67174e-05 0.0205398)
(0.0160605 0.0214582 0.0136062)
(0.0141375 0.0592727 0.00719573)
(0.0118198 0.140826 0.00227264)
(0.0085706 0.3064 0.00116131)
(0.00490616 0.470363 0.0044903)
(0.00147064 0.48827 0.00697075)
(0.00152577 -0.255375 -0.00417476)
(0.0101392 -0.392089 -0.00423378)
(0.0176951 -0.429045 -0.0062102)
(0.0238166 -0.437128 -0.00981847)
(0.0288289 -0.432797 -0.0159343)
(0.0324083 -0.419472 -0.0246153)
(0.0340957 -0.399764 -0.0338312)
(0.0343648 -0.375128 -0.0414984)
(0.033819 -0.345087 -0.0472615)
(0.032638 -0.309752 -0.0523803)
(0.030811 -0.272626 -0.058585)
(0.0286796 -0.239445 -0.0659908)
(0.0270149 -0.213048 -0.0724825)
(0.0264953 -0.19123 -0.075747)
(0.0274948 -0.16971 -0.0741701)
(0.0302907 -0.14482 -0.0660397)
(0.0346782 -0.115066 -0.0505638)
(0.0395814 -0.081463 -0.0294747)
(0.043504 -0.0461196 -0.0057357)
(0.0447153 -0.013132 0.0176986)
(0.0422025 0.0096753 0.0369712)
(0.0373544 0.0186071 0.049676)
(0.0310776 0.0158428 0.0567121)
(0.0242415 0.00472094 0.058427)
(0.0192131 -0.00733509 0.055835)
(0.0165748 -0.0143729 0.0515745)
(0.0153629 -0.0159536 0.0470045)
(0.0147763 -0.0123671 0.0411284)
(0.0144868 0.000470384 0.0318601)
(0.0140978 0.0261955 0.0202804)
(0.0126437 0.0689867 0.00987424)
(0.00924403 0.154372 0.00380652)
(0.00496898 0.331802 0.00292648)
(0.00235652 0.500034 0.00521465)
(0.000319638 0.50511 0.00645568)
(0.00614408 -0.324362 0.0199489)
(0.0145857 -0.446586 0.0367928)
(0.0172651 -0.46264 0.035469)
(0.018023 -0.454908 0.028354)
(0.0176626 -0.429495 0.0130695)
(0.0149814 -0.38892 -0.0104381)
(0.0100018 -0.346255 -0.0343926)
(0.00430995 -0.310619 -0.0522239)
(-0.000735565 -0.282603 -0.0625841)
(-0.00446738 -0.25855 -0.0671605)
(-0.00665512 -0.235029 -0.0682285)
(-0.00743088 -0.21105 -0.067749)
(-0.00721244 -0.187879 -0.0668403)
(-0.00643173 -0.166674 -0.0655173)
(-0.00523857 -0.146898 -0.0631047)
(-0.00348961 -0.126694 -0.0584572)
(-0.00084606 -0.103729 -0.0498175)
(0.00300439 -0.0763421 -0.035409)
(0.00798897 -0.0448369 -0.0150843)
(0.0134761 -0.0119996 0.00911953)
(0.0183769 0.0164422 0.033453)
(0.0215673 0.0339769 0.0531601)
(0.0227022 0.0380889 0.0663549)
(0.0210571 0.0243524 0.0726039)
(0.0161491 -0.00279941 0.0717098)
(0.00993386 -0.0234414 0.0678726)
(0.0057389 -0.0307857 0.0641407)
(0.00402186 -0.0286412 0.0584985)
(0.00489346 -0.0100564 0.0461413)
(0.00724726 0.0329328 0.027074)
(0.0089332 0.102113 0.00844627)
(0.00814955 0.212231 -0.00202348)
(0.00365599 0.388102 0.000324919)
(0.00119668 0.530897 0.00477792)
(4.82843e-05 0.518139 0.00587856)
(0.000436751 -0.371947 0.0469778)
(-0.00407404 -0.448247 0.0519742)
(-0.00765742 -0.449425 0.0453892)
(-0.0109807 -0.427696 0.0321596)
(-0.0136167 -0.380174 0.00675485)
(-0.014 -0.325901 -0.0223349)
(-0.0125128 -0.285809 -0.0436571)
(-0.00998171 -0.260787 -0.0563496)
(-0.00726373 -0.244562 -0.0639745)
(-0.0047801 -0.232383 -0.069018)
(-0.00259257 -0.221616 -0.0725196)
(-0.000604858 -0.210663 -0.0748891)
(0.00129837 -0.198699 -0.076394)
(0.00312717 -0.185932 -0.0772897)
(0.00484256 -0.173189 -0.0777032)
(0.006526 -0.160871 -0.0775057)
(0.00841642 -0.148457 -0.0762477)
(0.0108998 -0.134657 -0.0730043)
(0.0144649 -0.117906 -0.0662368)
(0.0194251 -0.0972656 -0.0543715)
(0.0255352 -0.07326 -0.037121)
(0.0319716 -0.0477205 -0.015698)
(0.0375213 -0.0231238 0.00793731)
(0.0408632 -0.000337105 0.0330491)
(0.0408513 0.0208976 0.0600584)
(0.0356291 0.0239978 0.0830446)
(0.0260302 -0.00498265 0.0936204)
(0.0171518 -0.0361736 0.095502)
(0.0116321 -0.0431513 0.086887)
(0.0101104 -0.00725302 0.0615787)
(0.00991312 0.0702441 0.0319638)
(0.00891306 0.206544 0.0086133)
(0.00547976 0.409419 0.00147647)
(0.00285672 0.54491 0.00395033)
(0.00119132 0.5222 0.00528534)
(-0.0048733 -0.343401 0.0555331)
(-0.00988575 -0.446094 0.0541503)
(-0.0131371 -0.457682 0.0474168)
(-0.014597 -0.445617 0.0399817)
(-0.0134354 -0.415326 0.0305308)
(-0.00817477 -0.378688 0.0209147)
(-0.000829856 -0.344516 0.0117804)
(0.00664409 -0.312948 0.00234209)
(0.013104 -0.283702 -0.00740986)
(0.0179337 -0.25728 -0.0169108)
(0.0211157 -0.233808 -0.0256026)
(0.0230141 -0.212759 -0.0331814)
(0.0241135 -0.193344 -0.0395944)
(0.0248254 -0.175009 -0.0449561)
(0.0253733 -0.157727 -0.0494628)
(0.025788 -0.141868 -0.053295)
(0.0260239 -0.127789 -0.0565305)
(0.0260972 -0.115491 -0.0591035)
(0.0261467 -0.104458 -0.0607997)
(0.0264047 -0.0936593 -0.0611827)
(0.027148 -0.0817327 -0.0593632)
(0.0286376 -0.0673561 -0.0537363)
(0.0309196 -0.0499182 -0.042362)
(0.033635 -0.0299268 -0.024111)
(0.0362222 -0.00872439 0.00076881)
(0.038026 0.0123848 0.0311919)
(0.0371165 0.0302036 0.0685342)
(0.0290477 0.0157085 0.100161)
(0.0182801 -0.0133273 0.108452)
(0.0120711 0.00653067 0.0848007)
(0.0103931 0.0991644 0.0417032)
(0.00774011 0.241297 0.0143088)
(0.00365679 0.448608 0.00493843)
(0.00153831 0.567287 0.005779)
(0.000770691 0.534382 0.0064027)
(-0.0058083 -0.319448 0.0400217)
(-0.00957562 -0.448741 0.0250289)
(-0.0105724 -0.47407 0.0202472)
(-0.00912156 -0.475212 0.0206367)
(-0.00501736 -0.461649 0.0241562)
(0.00205202 -0.434194 0.028544)
(0.0112336 -0.39647 0.0313478)
(0.021146 -0.353337 0.0312007)
(0.0305497 -0.309299 0.0274552)
(0.0383917 -0.268549 0.0201961)
(0.0439945 -0.234352 0.0104316)
(0.0471964 -0.20796 -0.000231018)
(0.0483735 -0.188405 -0.0103505)
(0.0481933 -0.173422 -0.0191766)
(0.0472739 -0.160613 -0.0265538)
(0.0460558 -0.148147 -0.0325883)
(0.044798 -0.135029 -0.0374626)
(0.0435829 -0.121159 -0.0413891)
(0.0423611 -0.107062 -0.044559)
(0.0410529 -0.0933963 -0.0470511)
(0.0396409 -0.0805417 -0.0487649)
(0.0381978 -0.068365 -0.0493984)
(0.0368583 -0.0561315 -0.0483403)
(0.0357483 -0.0425938 -0.0443449)
(0.0349782 -0.0263314 -0.0349263)
(0.0345904 -0.00679768 -0.016418)
(0.0343072 0.0139498 0.0134875)
(0.0324929 0.0311217 0.0568332)
(0.0245976 0.0189248 0.103205)
(0.0155691 0.0029853 0.11653)
(0.011981 0.0921309 0.0734644)
(0.0103722 0.270237 0.0264607)
(0.00595799 0.485479 0.0089124)
(0.00352877 0.584323 0.0077204)
(0.00183262 0.543804 0.00767332)
(-0.00448483 -0.30744 0.0172791)
(-0.00574967 -0.483187 -0.0104548)
(-0.00548542 -0.531262 -0.017201)
(-0.0036755 -0.548216 -0.0162828)
(-0.000666224 -0.552298 -0.0112823)
(0.0038353 -0.544284 -0.00286467)
(0.010351 -0.521369 0.00864314)
(0.0188617 -0.482349 0.0221263)
(0.0287469 -0.429762 0.0352581)
(0.0389623 -0.368821 0.0449593)
(0.0481866 -0.306252 0.0484353)
(0.0552799 -0.24876 0.0446239)
(0.0596809 -0.201056 0.0348232)
(0.0615435 -0.164784 0.0218817)
(0.0615056 -0.138823 0.00861613)
(0.0602824 -0.120497 -0.00328074)
(0.0584473 -0.106895 -0.0132763)
(0.0564 -0.0956363 -0.0214767)
(0.0543536 -0.0850154 -0.0281628)
(0.0523811 -0.0739325 -0.0335569)
(0.0504591 -0.0619211 -0.0377552)
(0.0485016 -0.0492013 -0.0407525)
(0.0464288 -0.0364341 -0.0424651)
(0.0442625 -0.0241555 -0.042698)
(0.0421176 -0.0122338 -0.041001)
(0.0400416 0.00041404 -0.0360693)
(0.0380236 0.0154642 -0.0242928)
(0.03607 0.0323187 0.000292867)
(0.032984 0.0408517 0.0370313)
(0.0256057 0.0274245 0.0813816)
(0.0173191 0.0837009 0.0806319)
(0.0136504 0.272639 0.0376348)
(0.00800453 0.511697 0.0152835)
(0.00461526 0.60864 0.0116104)
(0.00275395 0.563616 0.0100719)
(-0.000756872 -0.302642 -0.0115363)
(0.000236627 -0.483178 -0.0471657)
(0.000500289 -0.533397 -0.059034)
(0.00100821 -0.548508 -0.0639569)
(0.0013676 -0.5512 -0.0659953)
(0.00184663 -0.546304 -0.0652676)
(0.00284673 -0.534293 -0.0606589)
(0.00502151 -0.512814 -0.0505203)
(0.00904463 -0.478315 -0.0337706)
(0.0151656 -0.429753 -0.0118558)
(0.0229195 -0.370414 0.0107948)
(0.0312263 -0.306836 0.0286094)
(0.0388524 -0.246533 0.0376655)
(0.0448544 -0.195291 0.0374035)
(0.0488822 -0.155442 0.0302183)
(0.0511075 -0.12601 0.0195138)
(0.051959 -0.10435 0.00796647)
(0.0518541 -0.0877511 -0.00297875)
(0.051111 -0.0741412 -0.0127573)
(0.0499454 -0.0620823 -0.0212321)
(0.048488 -0.0505558 -0.0284013)
(0.0467974 -0.0388194 -0.0342488)
(0.0448563 -0.0264026 -0.0386498)
(0.0425532 -0.0132062 -0.0413399)
(0.039837 0.000494965 -0.041917)
(0.0368282 0.0143494 -0.0397923)
(0.0336791 0.0286796 -0.0336063)
(0.0303214 0.0452371 -0.0185594)
(0.0265749 0.064039 0.0250809)
(0.0193398 0.0585858 0.100128)
(0.012711 0.122514 0.11137)
(0.00865418 0.329722 0.0483904)
(0.00316568 0.557689 0.0172997)
(0.00104344 0.631335 0.0127487)
(0.000884022 0.577689 0.0104156)
(0.000567312 -0.316919 -0.0232776)
(0.00183649 -0.496508 -0.0420839)
(0.00323083 -0.544964 -0.0471522)
(0.00459645 -0.558336 -0.0505872)
(0.00604876 -0.559348 -0.0544072)
(0.00741454 -0.552189 -0.0592338)
(0.00838267 -0.537985 -0.0647931)
(0.00885185 -0.517823 -0.0694713)
(0.00914891 -0.491871 -0.0700699)
(0.0101304 -0.458161 -0.0627196)
(0.0127695 -0.41423 -0.0454907)
(0.017412 -0.360194 -0.0210583)
(0.0235103 -0.299688 0.00423446)
(0.0299443 -0.238909 0.0237871)
(0.0355602 -0.184415 0.0337542)
(0.0396702 -0.140382 0.0342045)
(0.0422456 -0.10708 0.0279924)
(0.0436861 -0.0818784 0.0183824)
(0.0443844 -0.0616271 0.00757422)
(0.0445572 -0.0440526 -0.00322721)
(0.0442918 -0.0278846 -0.0133086)
(0.0436226 -0.012486 -0.0221999)
(0.0426292 0.00252456 -0.0295853)
(0.0413149 0.0175009 -0.0352175)
(0.0395725 0.0327811 -0.0387547)
(0.0373511 0.0483672 -0.0396201)
(0.0347051 0.0638346 -0.0368976)
(0.0317135 0.0786158 -0.0287996)
(0.0282197 0.0913611 -0.0100207)
(0.0225826 0.0919817 0.0296283)
(0.0151083 0.10964 0.0874683)
(0.0124777 0.350973 0.0631363)
(0.0085135 0.590809 0.0238133)
(0.00568099 0.654806 0.0145826)
(0.00330141 0.591269 0.010733)
(0.000409218 -0.321655 -0.0235238)
(0.00344961 -0.504382 -0.0268157)
(0.00757251 -0.559124 -0.0254924)
(0.0112347 -0.574705 -0.026202)
(0.0147816 -0.575095 -0.0288215)
(0.0181128 -0.564202 -0.0339684)
(0.0207035 -0.542115 -0.0422868)
(0.0221612 -0.510921 -0.05347)
(0.0224297 -0.475887 -0.0656397)
(0.0218449 -0.441726 -0.0755876)
(0.0210896 -0.408996 -0.0795143)
(0.021113 -0.37446 -0.0737614)
(0.0228307 -0.334199 -0.0566359)
(0.0264417 -0.286862 -0.0311915)
(0.0311838 -0.234947 -0.00455005)
(0.0357136 -0.184227 0.0156119)
(0.0389158 -0.141027 0.0247409)
(0.0407161 -0.107665 0.0236801)
(0.0417429 -0.0817754 0.0162912)
(0.0425402 -0.0599799 0.00586836)
(0.0432565 -0.0401227 -0.00553914)
(0.0437859 -0.0213937 -0.0167011)
(0.043936 -0.00367955 -0.0269585)
(0.0436289 0.0130456 -0.0360352)
(0.0428309 0.029023 -0.0438469)
(0.0414328 0.0447631 -0.0502878)
(0.0393316 0.0609872 -0.054912)
(0.0364821 0.0784637 -0.0564539)
(0.0329797 0.0974445 -0.0520824)
(0.0285521 0.11659 -0.0349808)
(0.0195829 0.126783 0.0214436)
(0.0130795 0.312249 0.0569101)
(0.00938382 0.596891 0.0320943)
(0.0057303 0.676445 0.0214769)
(0.0033674 0.612892 0.0150605)
(0.000497549 -0.33363 -0.0260447)
(0.0084097 -0.537022 -0.0244523)
(0.0146936 -0.597177 -0.0232728)
(0.0195329 -0.612698 -0.0246106)
(0.0234519 -0.610415 -0.028079)
(0.0263171 -0.593946 -0.0343032)
(0.0275976 -0.563951 -0.0426166)
(0.0276124 -0.523274 -0.0514275)
(0.0270992 -0.476028 -0.0604358)
(0.0263491 -0.427077 -0.0702225)
(0.0252078 -0.381699 -0.0799629)
(0.0236987 -0.342889 -0.0867943)
(0.0222656 -0.308913 -0.0871705)
(0.021591 -0.274514 -0.0775474)
(0.0222872 -0.234244 -0.0556405)
(0.0241181 -0.1866 -0.024998)
(0.0253327 -0.137635 0.00303873)
(0.0242272 -0.097529 0.0167161)
(0.0211889 -0.0682341 0.0151237)
(0.0177165 -0.0444473 0.00480992)
(0.0150703 -0.0221809 -0.00781221)
(0.013646 -0.000162216 -0.0189712)
(0.0131855 0.0217076 -0.0277143)
(0.0133414 0.0435358 -0.0343057)
(0.0137515 0.0656532 -0.03902)
(0.0141254 0.0883133 -0.0417273)
(0.0143095 0.111372 -0.0417551)
(0.0143616 0.134146 -0.0377899)
(0.0145355 0.155558 -0.027431)
(0.0157186 0.174519 -0.00491837)
(0.0141724 0.206226 0.0398087)
(0.00738378 0.396255 0.0510651)
(0.00167053 0.645509 0.0304531)
(-0.000475066 0.707376 0.0212602)
(-9.78655e-05 0.635019 0.0138774)
(0.00567779 -0.37512 -0.0216617)
(0.0195829 -0.571365 -0.01533)
(0.0270843 -0.620228 -0.0167927)
(0.0311071 -0.626839 -0.0215931)
(0.0332852 -0.61396 -0.0309823)
(0.0329712 -0.582528 -0.0466742)
(0.0296075 -0.539617 -0.0642587)
(0.024901 -0.495633 -0.0772064)
(0.0206117 -0.453422 -0.0840273)
(0.017467 -0.410329 -0.0874996)
(0.0153676 -0.36513 -0.0913097)
(0.0137076 -0.321628 -0.0968285)
(0.0120835 -0.284533 -0.101855)
(0.0106146 -0.253238 -0.103014)
(0.00962329 -0.221899 -0.0965445)
(0.00968569 -0.181925 -0.0762586)
(0.0110254 -0.127041 -0.0386431)
(0.0116429 -0.066353 0.00329457)
(0.00913534 -0.0226127 0.0273302)
(0.00456344 -0.00136428 0.030539)
(-0.000444426 0.00949195 0.0237021)
(-0.00490699 0.0189188 0.0145049)
(-0.00798622 0.0299107 0.00677309)
(-0.00960623 0.0429637 0.00129505)
(-0.00985201 0.0578594 -0.00195997)
(-0.00880182 0.0738495 -0.00289823)
(-0.00659796 0.0897535 -0.00112713)
(-0.00345418 0.104113 0.00416865)
(0.000449181 0.115558 0.0147826)
(0.00555049 0.125356 0.0350214)
(0.00973147 0.188211 0.0619354)
(0.00694785 0.434651 0.0534307)
(0.00120857 0.671564 0.0278368)
(-0.000625071 0.719295 0.0182706)
(-0.000313606 0.632608 0.0109254)
(0.00825894 -0.469747 -0.000131711)
(0.0169933 -0.62298 0.0134507)
(0.0211272 -0.641304 0.0123348)
(0.0227428 -0.630653 0.00554498)
(0.0226663 -0.594568 -0.0116295)
(0.019513 -0.534482 -0.0402588)
(0.0145111 -0.474161 -0.0680177)
(0.0102724 -0.42748 -0.0860331)
(0.00754002 -0.391942 -0.094945)
(0.00602466 -0.360175 -0.0982967)
(0.00550767 -0.326131 -0.0994014)
(0.00575417 -0.288433 -0.101485)
(0.0061588 -0.252211 -0.105877)
(0.00625293 -0.222554 -0.110725)
(0.00608637 -0.198727 -0.113698)
(0.00590191 -0.175862 -0.112719)
(0.0061531 -0.145807 -0.102523)
(0.00772823 -0.0982492 -0.0734256)
(0.00924921 -0.0398245 -0.0317266)
(0.00817759 0.00796807 0.00214517)
(0.00496945 0.0354859 0.0196395)
(0.00165776 0.0483908 0.0257413)
(-0.00122607 0.0552055 0.0270921)
(-0.00373205 0.0601173 0.0265938)
(-0.00558357 0.0648474 0.0255524)
(-0.00655855 0.0701036 0.0250057)
(-0.0066604 0.0757765 0.0257576)
(-0.00599036 0.0809141 0.0284536)
(-0.00476403 0.0842014 0.0339364)
(-0.00321714 0.0907732 0.0430405)
(-0.00119565 0.168291 0.0605823)
(0.00184772 0.444253 0.059753)
(0.000909941 0.686936 0.0312463)
(0.000219707 0.727857 0.020417)
(0.000627572 0.628732 0.0123362)
(0.00185233 -0.519035 0.0303979)
(-0.000536558 -0.636632 0.0447295)
(-0.00211797 -0.642153 0.0417995)
(-0.00459782 -0.618215 0.0308562)
(-0.00827126 -0.555537 0.0042052)
(-0.0125357 -0.478575 -0.030023)
(-0.0157202 -0.424942 -0.0537945)
(-0.0171179 -0.391214 -0.0663528)
(-0.0175946 -0.364421 -0.0734273)
(-0.0178249 -0.337395 -0.078033)
(-0.0180249 -0.306701 -0.0811374)
(-0.0181081 -0.271469 -0.0831894)
(-0.0181881 -0.233935 -0.0848529)
(-0.0188847 -0.197608 -0.0861759)
(-0.0207706 -0.163323 -0.086195)
(-0.0239517 -0.128853 -0.0831101)
(-0.0279015 -0.0903956 -0.0736926)
(-0.0311163 -0.0456501 -0.0546967)
(-0.0318746 -0.00117353 -0.0300598)
(-0.03017 0.0300567 -0.0106546)
(-0.0273266 0.0467989 5.74103e-05)
(-0.0244009 0.0563539 0.00588222)
(-0.0215236 0.0630419 0.00963082)
(-0.0187176 0.0681712 0.0123181)
(-0.0160393 0.0721593 0.014348)
(-0.0133629 0.0752369 0.0160325)
(-0.0106497 0.0774407 0.0176654)
(-0.00804805 0.0787428 0.0195423)
(-0.00601586 0.0790167 0.0219062)
(-0.00419344 0.0791262 0.0254864)
(-0.00428065 0.1363 0.042605)
(-5.52007e-05 0.395262 0.0610061)
(0.0035049 0.677908 0.0375856)
(0.00355633 0.725572 0.0261579)
(0.00239075 0.630625 0.0168864)
(-0.00378157 -0.479421 0.045233)
(-0.00891393 -0.604711 0.0547099)
(-0.0129365 -0.612039 0.0504173)
(-0.0164616 -0.584502 0.0398344)
(-0.0199287 -0.514618 0.0183013)
(-0.0217848 -0.43845 -0.00467959)
(-0.0241712 -0.390167 -0.0182507)
(-0.0272684 -0.357294 -0.0258463)
(-0.0310153 -0.327137 -0.0314353)
(-0.0355233 -0.294164 -0.0367005)
(-0.0406273 -0.25773 -0.0418103)
(-0.0456927 -0.219816 -0.0455796)
(-0.0499622 -0.181193 -0.0465476)
(-0.05311 -0.14074 -0.0440689)
(-0.0552646 -0.0989599 -0.0383447)
(-0.0564067 -0.0616386 -0.0311397)
(-0.0557811 -0.0364339 -0.0253627)
(-0.0532901 -0.0211133 -0.0212397)
(-0.0491765 -0.00843886 -0.0170856)
(-0.0433451 0.00381159 -0.0125542)
(-0.0364885 0.0146499 -0.00836235)
(-0.0294337 0.0232406 -0.00495347)
(-0.0223817 0.0297503 -0.00226701)
(-0.0153476 0.0346627 -0.000179001)
(-0.00831957 0.0384198 0.00139613)
(-0.00131579 0.0415913 0.00252522)
(0.00560241 0.0450597 0.00326954)
(0.0121577 0.0500767 0.00372381)
(0.0176834 0.0580529 0.00401862)
(0.0224725 0.071604 0.00450605)
(0.0219475 0.136881 0.0148146)
(0.0172094 0.358502 0.045099)
(0.0146367 0.668688 0.0419849)
(0.010122 0.743119 0.0336652)
(0.00558489 0.660443 0.023239)
(-0.00398114 -0.45817 0.0467855)
(-0.00831769 -0.599363 0.0558247)
(-0.0119531 -0.612189 0.0550658)
(-0.0141177 -0.592312 0.0514321)