/*--------------------------------*- C++ -*----------------------------------*\
| =========                 |                                                 |
| \\      /  F ield         | OpenFOAM: The Open Source CFD Toolbox           |
|  \\    /   O peration     | Version:  v1912                                 |
|   \\  /    A nd           | Website:  www.openfoam.com                      |
|    \\/     M anipulation  |                                                 |
\*---------------------------------------------------------------------------*/
FoamFile
{
    version     2.0;
    format      ascii;
    class       volScalarField;
    location    "444/oil";
    object      wallHeatFlux;
}
// * * * * * * * * * * * * * * * * * * * * * * * * * * * * * * * * * * * * * //

dimensions      [1 0 -3 0 0 0 0];


internalField   uniform 0;

boundaryField
{
    maxY
    {
        type            calculated;
        value           uniform 0;
    }
    minX
    {
        type            calculated;
        value           uniform 0;
    }
    maxX
    {
        type            calculated;
        value           uniform 0;
    }
    minY
    {
        type            calculated;
        value           uniform 0;
    }
    minZ
    {
        type            calculated;
        value           uniform 0;
    }
    maxZ
    {
        type            calculated;
        value           uniform 0;
    }
    oil_to_sphere
    {
        type            calculated;
        value           nonuniform List<scalar> 
1536
(
698.281
415.839
408.736
-104.358
-116.145
402.813
174.328
269.391
235.55
-59.0961
-266.875
-20.1345
230.618
-9.86387
-332.332
143.965
403.31
422.366
129.004
215.747
335.033
240.258
259.853
140.921
168.343
154.569
167.64
106.429
385.777
249.013
470.417
417.964
427.526
147.26
163.747
109.097
135.409
52.444
104.311
166.286
92.9487
133.866
225.861
283.35
352.594
162.76
328.047
254.616
-310.087
152.819
308.608
239.392
249.215
140.893
376.648
569.654
256.851
216.333
330.304
304.467
218.624
227.677
212.926
133.336
160.707
206.278
215.061
314.904
312.902
375.637
131.955
-117.775
-26.1898
155.252
154.118
588.386
431.23
54.2222
144.593
412.372
338.826
296.81
-101.646
-108.919
384.385
643.366
-175.079
191.17
304.651
303.364
234.757
118.554
113.744
126.599
153.589
281.031
332.078
351.603
451.888
296.866
340.677
127.963
702.477
310.834
-38.5294
148.57
171.919
-84.5529
-87.4565
709.378
428.42
267.66
225.596
260.284
-142.086
-115.263
-197.878
517.763
671.771
443.867
247.746
260.296
101.096
328.785
467.421
282.047
246.098
82.5026
346.169
329.678
207.385
318.236
373.037
175.075
192.43
390.073
261.91
414.508
87.705
406.177
238.299
326.354
329.274
229.782
197.36
223.482
286.665
504
191.914
714.387
364.485
403.476
256.839
272.306
155.764
281.468
388.609
321.642
760.121
448.875
427.715
517.006
12.2239
56.9509
122.334
117.812
373.403
492.359
452.32
569.651
104.932
122.434
56.6859
332.539
245.048
271.588
619.021
24.2229
-43.0187
643.658
112.246
61.312
50.2559
76.9357
301.286
643.825
450.805
91.7594
1.67981
417.649
19.7612
369.005
369.804
495.309
-23.382
-394.001
484.448
523.556
166.601
152.454
240.424
177.839
421.815
481.059
357.212
297.509
123.8
503.203
453.765
266.327
82.3938
160.598
149.154
180.584
337.32
578.379
-1.46712
-14.5354
-5.76927
-432.702
401.715
334.284
294.713
237.69
249.645
503.413
366.903
154.655
403.167
-57.1437
109.958
-381.626
228.99
383.002
485.846
456.322
403.484
344.407
443.142
-26.0421
14.6339
46.6703
530.305
67.6719
-387.567
-187.258
336.784
215.383
622.897
748.728
265.004
-109.924
-424.755
303.509
444.159
127.343
135.972
-154.393
116.924
502.747
654.216
212.239
135.081
555.767
451.99
158.264
-34.6841
191.389
587.463
520.335
345.048
370.633
474.053
49.8244
147.274
488.767
370.156
408.292
225.646
403.471
570.547
354.061
331.021
540.293
128.967
125.682
149.74
104.576
120.847
499.171
596.619
-26.9955
184.316
169.24
179.726
91.0808
249.666
222.488
61.3998
-150.917
113.654
-17.0238
89.576
644.393
546.982
541.513
720.875
32.3361
52.7737
237.224
715.704
650.017
109.922
227.547
95.2837
364.774
140.482
329.248
352.7
431.781
378.6
163.249
388.213
110.767
475.581
511.945
413.151
389.976
69.6723
603.885
590.239
356.645
-29.7585
125.883
175.36
353.765
326.027
368.295
60.5011
470.941
474.181
434.925
539.819
317.267
281.722
215.673
13.8509
282.787
358.97
11.5475
-8.51946
41.4655
684.295
464.57
539.675
323.785
276.63
491.766
-1.66646
623.279
431.875
282.863
276.675
-20.0959
427.842
458.247
79.9336
283.627
209.521
135.829
365.333
466.242
225.589
156.094
33.9986
579.045
477.667
-11.2149
494.327
454.357
401.73
578.429
279.282
380.094
-66.3732
-20.6772
351.39
710.249
414.111
619.861
319.388
172.829
450.31
39.2626
93.4688
326.224
461.109
369.515
326.948
50.7997
53.3377
489.856
469.878
478.394
272.275
117.584
334.479
390.595
458.084
288.723
191.249
69.7132
264.165
25.5066
-83.7889
124.99
72.7881
268.83
-56.5959
176.368
602.936
169.915
166.458
457.701
454.631
360.231
210.553
8.76272
411.31
543.504
346.002
291.602
422.676
228.331
258.41
318.739
-104.646
340.103
474.903
536.74
447.02
383.361
372.037
291.555
197.621
39.7109
245.788
70.5702
-19.2327
96.2687
-85.0145
652.973
614.256
514.01
691.788
27.8059
656.933
58.4347
113.831
401.741
6.80603
49.6152
179.771
170.978
623.927
544.455
319.737
339.418
573.991
491.551
288.651
388.307
86.9328
461.88
-29.7934
533.468
-107.142
374.578
409.585
446.646
161.582
37.5761
205.237
455.578
218.469
-50.1553
459.026
481.807
512.735
733.462
283.509
565.674
29.8296
65.2809
-298.066
-186.161
287.807
179.18
142.45
96.4846
676.969
48.0694
-0.375922
-39.5086
177.565
-62.2819
756.191
83.5223
104.511
247.248
-259.96
-159.383
127.094
119.674
226.269
155.236
479.941
445.61
373.412
285.739
-76.7433
141.025
434.697
39.1101
81.1068
411.966
582.529
85.1914
-301.706
14.1871
-268.088
241.55
162.405
105.419
-32.2582
-260.491
365.534
405.456
328.028
236.022
589.53
374.708
355.066
277.041
67.6188
151.147
478.632
373.747
187.543
-196.532
296.302
421.083
605.738
305.801
122.421
608.682
245.79
569.531
84.3008
163.595
47.5837
169.821
301.485
583.538
23.301
103.552
66.1491
176.954
765.361
-33.7085
147.184
-4.33925
247.088
300.078
480.996
590.576
-80.7534
-28.0612
585.915
619.09
-131.589
566.704
495.533
413.193
485.232
354.492
264.015
279.869
576.311
286.964
360.144
263.243
459.296
306.84
242.1
222.628
14.1681
412.613
232.959
454.349
381.619
387.407
372.575
289.033
-21.0816
486.833
484.439
363.585
239.039
312.927
700.252
-68.5943
79.4489
25.0136
292.843
86.3756
703.44
170.426
199.136
253.053
-292.416
-245.219
135.772
130.139
279.413
47.7093
98.841
300.377
104.016
593.122
8.78084
686.302
162.241
285.442
-390.069
-256.127
-301.957
105.598
413.813
145.602
106.383
-264.178
268.671
426.848
274.127
831.738
84.6353
479.207
353.925
424.323
503.225
490.999
420.725
247.651
190.855
244.755
424.171
210.672
331.776
301.694
326.012
448.278
374.061
411.078
7.71009
72.0326
-401.766
-150.723
-90.9614
-566.601
126.002
155.9
211.401
241.045
-84.303
19.2821
186.678
521.899
488.976
181.316
-43.1597
229.503
439.558
358.408
255.906
-63.6006
84.4911
367.677
312.289
250.731
135.07
393.909
398.007
578.428
402.398
293.435
155.649
94.4435
9.60635
116.569
213.97
718.866
288.17
642.85
81.3716
741.005
126.862
221.218
29.0477
56.3983
158.354
1.85919
205.521
-58.6763
139.431
473.489
175.734
-14.3669
596.924
385.177
337.004
231.809
564.969
872.081
-145.919
377.568
318.259
359.211
0.191631
236.729
93.6391
322.541
401.931
493.663
64.689
365.83
274.568
397.844
380.309
353.226
181.936
215.23
142.49
-47.2962
-77.8016
43.9549
554.942
140.47
-2.31751
148.459
481.294
202.426
552.001
443.772
344.528
292.732
338.576
612.385
44.5809
373.158
495.519
526.031
287.115
91.5159
194.989
339.309
534.106
24.6172
218.504
278.265
474.381
341.21
334.29
562.365
29.9697
103.296
67.3261
613.563
490.081
281.933
471.81
106.624
138.749
470.806
331.607
580.728
57.5444
427.289
460.817
301.317
324.682
411.034
61.7819
-93.3784
260.846
333.509
620.954
225.552
120.674
244.611
342.377
422.602
293.31
97.4484
227.927
459.01
26.9808
99.1038
228.59
135.505
316.626
291.509
520.013
357.238
445.874
146.782
246.6
316.129
237.611
194.689
154.967
151.546
35.8901
390.21
308.942
309.615
345.712
-28.1422
171.048
602.768
609.815
98.137
477.859
341.084
388.721
146.914
529.249
510.52
51.8899
202.165
166.662
154.754
-38.8588
20.6014
166.759
503.335
699.261
121.683
408.501
389.05
335.564
211.132
318.16
517.822
305.967
60.3478
173.095
148.378
159.543
359.362
385.665
391.549
405.743
403.044
99.2838
420.427
179.828
374.447
-260.711
346.697
547.282
193.571
-146.295
253.839
214.649
643.107
71.9926
420.796
242.096
-97.7942
591.631
-15.3873
218.928
265.007
-31.4795
478.015
321.431
210.695
279.265
319.421
218.849
659.384
-8.75957
161.357
-335.001
178.588
195.626
274.291
475.542
889.242
-56.3507
163.854
797.322
-13.4753
399.34
91.486
388.054
-170.44
72.7156
787.83
-116.094
722.944
-70.0224
628.151
-94.9977
68.5462
-306.108
-9.01717
748.248
-230.342
236.384
-117.625
561.604
752.069
-215.4
194.261
128.176
61.2362
52.3286
168.848
268.079
266.696
380.878
245.086
570.923
820.456
-221.772
263.442
346.837
267.874
300.89
230.61
193.709
229.571
437.193
236.091
443.012
157.398
307.996
547.252
191.709
370.399
482.982
156.372
307.986
242.797
377.313
220.191
284.93
198.898
469
174.841
334.342
-73.5977
582.676
-201.938
330.309
456.665
596.207
78.5819
295.739
246.067
295.926
273.334
235.404
432.681
45.8436
-402.887
191.294
-142.934
491.466
83.6299
260.276
391.38
-367.169
528.097
33.4169
-276.842
63.1723
401.459
383.858
271.455
-224.9
266.369
307.101
118.984
85.648
500.118
461.462
141.441
278.837
501.763
-218.421
430.673
79.6092
370.939
-192.151
695.95
675.71
461.118
265.742
193.516
391.434
182.214
-228.98
25.3961
410.348
92.31
349.98
-148.258
484.249
369.114
-503.277
267.98
322.001
-348.528
536.72
-80.5043
496.037
586.574
426.73
-267.011
282.993
204.851
271.265
288.902
352.7
-213.802
151.422
99.4298
100.71
476.118
255.933
324.402
384.642
370.416
200.954
292.444
214.45
332.191
507.808
140.981
189.035
126.457
285.265
453.78
137.471
182.159
160.179
259.802
97.6194
117.674
179.819
198.932
287.69
171.057
580.742
432.61
-125.589
-119.463
537.769
-564.85
416.881
305.143
96.3734
199.501
547.866
-368.201
491.445
324.883
-246.144
163.357
117.568
257.198
-394.565
537.571
331.987
-358.832
516.898
520.324
-179.13
598.877
460.242
-172.253
124.421
98.5029
-362.205
266.432
295.149
27.9397
79.779
55.8843
-486.016
73.9769
-388.591
-519.701
471.601
126.222
749.197
139.552
-216.974
542.624
213.737
-309.304
140.084
127.251
-315.391
-118.732
520.688
-647.181
27.4583
-22.5535
-567.433
490.382
441.931
264.466
176.831
122.325
29.7697
-433.947
272.714
181.518
192.836
265.293
-275.949
402.833
141.94
235.138
118.616
226.403
286.128
13.3923
-253.068
167.97
294.457
136.694
175.846
242.884
78.7074
187.323
-288.538
141.071
321.662
122.57
201.534
86.2547
-244.806
545.386
535.166
514.618
597.926
-181.935
-344.693
145.592
415.256
293.99
396.553
436.472
28.3408
-25.9688
-337.444
-216.782
77.493
238.726
222.575
211.063
-25.1824
475.566
327.357
-166.85
67.4689
17.4458
431.152
84.0628
-436.873
235.052
253.432
488.892
-297.711
121.372
287.178
156.736
200.47
386.962
232.315
35.4414
625.871
-525.002
-69.9937
205.032
81.0658
169.83
594.692
336.171
255.195
-57.7006
550.005
150.856
285.347
435.884
488.835
468.255
487.059
575.302
633.224
565.334
566.257
257.07
448.137
140.242
199.308
-33.5592
-99.6361
-478.309
605.521
588.782
513.482
187.9
287.647
270.5
89.4726
301.471
444.319
43.8148
213.852
374.71
122.749
146.05
133.242
184.343
77.0886
176.273
154.608
-190.612
284.826
47.7969
211.908
-315.043
602.732
223.362
106.914
67.3613
-161.252
251.602
113.979
-358.24
-66.7772
217.295
-109.654
-44.4941
645.22
673.48
156.895
159.38
408.359
590.857
-364.737
84.1511
76.6752
171.44
169.454
191.167
229.588
-31.2189
-236.051
535.14
163.302
-82.9589
-36.1462
157.025
259.614
-156.639
194.641
87.6155
140.15
595.539
-75.269
-227.045
168.716
120.874
75.8954
-229.42
490.421
152.675
142.194
154.839
-354.674
155.899
168.8
-216.967
149.244
-68.1424
328.815
528.678
88.1466
448.211
317.684
97.9915
107.5
177.299
-228.889
311.28
347.051
130.188
-298.473
11.0353
204.721
223.149
92.6877
-256.357
103.013
489.784
317.547
108.304
637.424
-73.2558
431.551
-344.297
-87.6994
453.118
-354.71
471.904
103.276
258.424
140.996
664.685
-13.8497
264.872
596.861
547.444
-130.688
529.799
596.085
-550.754
193.592
118.852
-328.824
343.277
113.123
142.987
143.906
233.556
193.565
130.688
108.141
-345.181
343.194
257.369
243.113
284.2
187.878
96.8843
14.6054
400.595
-422.48
69.9525
54.2435
-399.756
458.761
621.527
215.543
512.722
548.054
86.4585
91.1861
340.138
509.946
76.7112
372.1
-37.6584
-328.282
408.626
46.8383
489.047
635.013
587.676
-297.845
438.048
264.616
33.579
127.927
170.4
115.628
-287.363
505.054
-269.523
495.542
183.956
-37.6254
-88.2594
186.57
382.95
566.94
248.671
718.035
415.509
474.863
-367.594
445.47
394.98
490.044
84.8506
40.2684
-426.363
219.343
696.582
514.595
-242.083
-19.1309
-276.215
84.5394
230.508
-44.1614
844.259
144.07
-17.2885
-228.708
313.915
45.8174
-387.072
198.786
109.862
118.852
127.693
131.667
-223.633
-38.2219
-325.288
112.141
412.286
330.918
529.332
488.988
70.5302
15.8457
-348.344
100.968
383.084
557.06
414.36
432.382
-80.9976
-405.887
-9.1554
-445.162
406.206
426.845
16.2575
467.869
399.625
531.345
297.881
259.194
251.435
70.5095
-357.977
1.47829
-301.132
-55.744
128.04
92.387
-189.05
-301.602
368.174
699.491
637.326
587.815
244.55
359.479
348.965
218.401
126.363
218.959
32.7105
182.502
184.973
-298.484
397.653
162.225
-17.6424
-198.865
105.052
238.417
235.405
93.4061
-196.211
570.373
310.786
116.398
631.101
42.7326
-321.43
329.978
183.495
186.786
186.985
100.812
-425.433
183.119
179.302
-265.299
551.221
152.38
-645.687
126.873
226.833
245.247
99.2192
-288.671
59.9334
74.0412
-99.5916
199.505
-345.266
211.986
195.937
-122.964
622.432
177.746
-217.415
679.406
220.8
220.514
-203.377
196.025
-271.674
)
;
    }
}


// ************************************************************************* //
