/*--------------------------------*- C++ -*----------------------------------*\
| =========                 |                                                 |
| \\      /  F ield         | OpenFOAM: The Open Source CFD Toolbox           |
|  \\    /   O peration     | Version:  v1906                                 |
|   \\  /    A nd           | Web:      www.OpenFOAM.com                      |
|    \\/     M anipulation  |                                                 |
\*---------------------------------------------------------------------------*/
FoamFile
{
    version     2.0;
    format      ascii;
    class       surfaceScalarField;
    location    "36";
    object      phi;
}
// * * * * * * * * * * * * * * * * * * * * * * * * * * * * * * * * * * * * * //

dimensions      [1 0 -1 0 0 0 0];
oriented        oriented;


internalField   nonuniform List<scalar> 
228225
(
-1.11766e-05
-2.39632e-07
1.23032e-07
-1.02964e-05
-1.01806e-06
1.37206e-07
-9.11231e-06
-1.33149e-06
1.47355e-07
-7.79815e-06
-1.44865e-06
1.34375e-07
-6.50354e-06
-1.40693e-06
1.12269e-07
-5.30702e-06
-1.28885e-06
9.23253e-08
-4.22774e-06
-1.15814e-06
7.88648e-08
-3.26169e-06
-1.03897e-06
7.29535e-08
-2.39123e-06
-9.45108e-07
7.47052e-08
-1.59447e-06
-8.79232e-07
8.25612e-08
-8.54208e-07
-8.33074e-07
9.29134e-08
-1.57474e-07
-7.99982e-07
1.03364e-07
5.0394e-07
-7.74235e-07
1.12949e-07
1.13451e-06
-7.5165e-07
1.21219e-07
1.73595e-06
-7.29302e-07
1.28012e-07
2.30823e-06
-7.05488e-07
1.33361e-07
2.85012e-06
-6.79162e-07
1.3742e-07
3.3595e-06
-6.49672e-07
1.40434e-07
3.83362e-06
-6.16665e-07
1.42688e-07
4.2693e-06
-5.8004e-07
1.4449e-07
4.66317e-06
-5.39918e-07
1.46161e-07
5.0118e-06
-4.96555e-07
1.48035e-07
5.31166e-06
-4.50244e-07
1.50474e-07
5.55902e-06
-4.01183e-07
1.53897e-07
5.74949e-06
-3.49266e-07
1.58853e-07
5.87708e-06
-2.93703e-07
1.66143e-07
5.93289e-06
-2.32295e-07
1.76501e-07
5.90285e-06
-1.60317e-07
1.90362e-07
5.76453e-06
-7.06422e-08
2.08948e-07
5.47824e-06
5.29386e-08
2.33344e-07
4.96783e-06
2.46065e-07
2.64368e-07
4.11469e-06
5.55562e-07
2.97688e-07
2.81537e-06
9.86741e-07
3.12911e-07
1.20326e-06
1.34329e-06
2.69595e-07
1.06961e-06
1.3511e-07
-1.02348e-06
6.93051e-07
9.03893e-08
-2.42569e-06
4.24026e-07
-3.99229e-08
-3.7003e-06
1.34714e-07
-1.91672e-07
-4.75412e-06
-6.60845e-08
-3.28585e-07
-5.56825e-06
-1.88287e-07
-4.04273e-07
-6.11687e-06
-3.09972e-07
-4.29904e-07
-6.40698e-06
-4.39383e-07
-4.28161e-07
-6.4685e-06
-5.668e-07
-4.10069e-07
-6.34073e-06
-6.91221e-07
-3.8098e-07
-6.05989e-06
-8.1327e-07
-3.46048e-07
-5.65394e-06
-9.2684e-07
-3.11384e-07
-5.14378e-06
-1.02741e-06
-2.81891e-07
-4.54854e-06
-1.11058e-06
-2.58032e-07
-3.88763e-06
-1.17263e-06
-2.39049e-07
-3.17891e-06
-1.21275e-06
-2.24394e-07
-2.43773e-06
-1.23238e-06
-2.13412e-07
-1.67789e-06
-1.23277e-06
-2.05359e-07
-9.1247e-07
-1.21468e-06
-1.99565e-07
-1.54107e-07
-1.17873e-06
-1.95477e-07
5.84788e-07
-1.12554e-06
-1.92591e-07
1.29217e-06
-1.05614e-06
-1.90392e-07
1.9563e-06
-9.71639e-07
-1.88319e-07
2.56553e-06
-8.73081e-07
-1.85714e-07
3.10803e-06
-7.61297e-07
-1.81748e-07
3.5711e-06
-6.3651e-07
-1.7526e-07
3.94031e-06
-4.97526e-07
-1.64876e-07
4.19824e-06
-3.403e-07
-1.49502e-07
4.3225e-06
-1.55687e-07
-1.28533e-07
4.2788e-06
7.38115e-08
-1.00489e-07
4.01871e-06
3.75218e-07
-6.19997e-08
3.48965e-06
7.84898e-07
-9.63327e-09
2.653e-06
1.32315e-06
6.92499e-08
1.59428e-06
1.90354e-06
1.42336e-07
5.68492e-07
2.20704e-06
1.62947e-07
1.54134e-06
9.83727e-08
-5.35991e-08
6.57499e-07
8.89612e-08
-7.0377e-07
9.54726e-07
1.18975e-07
-1.69272e-06
9.64561e-07
1.59096e-07
-2.79096e-06
7.98923e-07
2.33542e-07
-3.82151e-06
5.14195e-07
3.28598e-07
-4.71486e-06
1.7018e-07
4.14057e-07
-5.39397e-06
-2.30905e-07
4.718e-07
-5.81845e-06
-6.42701e-07
5.0173e-07
-6.00402e-06
-1.01716e-06
5.12943e-07
-5.97512e-06
-1.35459e-06
5.13862e-07
-5.75694e-06
-1.65171e-06
5.08103e-07
-5.37619e-06
-1.90502e-06
4.98248e-07
-4.86244e-06
-2.10969e-06
4.86687e-07
-4.24607e-06
-2.26282e-06
4.75114e-07
-3.55519e-06
-2.36678e-06
4.64379e-07
-2.81435e-06
-2.42678e-06
4.5475e-07
-2.04492e-06
-2.44741e-06
4.4636e-07
-1.26596e-06
-2.43177e-06
4.39258e-07
-4.95247e-07
-2.38174e-06
4.33411e-07
2.49966e-07
-2.29839e-06
4.28733e-07
9.52843e-07
-2.18294e-06
4.25023e-07
1.59697e-06
-2.03668e-06
4.22012e-07
2.1657e-06
-1.86007e-06
4.19349e-07
2.64242e-06
-1.65347e-06
4.16539e-07
3.01122e-06
-1.41709e-06
4.12846e-07
3.2577e-06
-1.15002e-06
4.07057e-07
3.3702e-06
-8.4867e-07
3.96855e-07
3.34082e-06
-5.03875e-07
3.78448e-07
3.16346e-06
-9.55411e-08
3.47449e-07
2.83342e-06
4.04923e-07
3.0087e-07
2.34083e-06
1.03474e-06
2.43109e-07
1.69559e-06
1.77956e-06
1.89173e-07
9.7147e-07
2.47435e-06
1.53865e-07
3.2744e-07
2.72562e-06
1.26506e-07
1.79613e-06
7.43993e-08
-3.04266e-08
5.91745e-07
9.56761e-08
-1.33964e-07
8.92227e-07
1.65949e-07
-2.69115e-07
8.90378e-07
2.09221e-07
-4.35105e-07
7.23604e-07
2.41344e-07
-6.45166e-07
4.59224e-07
2.653e-07
-8.77159e-07
1.21175e-07
2.81478e-07
-1.15237e-06
-2.46126e-07
2.91079e-07
-1.44844e-06
-6.40059e-07
2.94191e-07
-1.70215e-06
-1.0521e-06
2.89458e-07
-1.87055e-06
-1.46165e-06
2.76243e-07
-1.92762e-06
-1.85014e-06
2.56201e-07
-1.86355e-06
-2.20098e-06
2.32488e-07
-1.68138e-06
-2.49985e-06
2.08493e-07
-1.39507e-06
-2.73557e-06
1.86837e-07
-1.02374e-06
-2.90668e-06
1.68899e-07
-5.85328e-07
-3.02014e-06
1.55215e-07
-9.49385e-08
-3.08361e-06
1.46042e-07
4.34218e-07
-3.10225e-06
1.41539e-07
9.89813e-07
-3.07897e-06
1.41835e-07
1.55951e-06
-3.01493e-06
1.47055e-07
2.12972e-06
-2.91023e-06
1.57298e-07
2.68389e-06
-2.76326e-06
1.72657e-07
3.20028e-06
-2.56948e-06
1.93306e-07
3.65268e-06
-2.32483e-06
2.19291e-07
4.01336e-06
-2.02794e-06
2.50559e-07
4.25247e-06
-1.67562e-06
2.86945e-07
4.3383e-06
-1.26186e-06
3.27895e-07
4.24117e-06
-7.77133e-07
3.71009e-07
3.94589e-06
-2.09687e-07
4.10118e-07
3.43143e-06
4.86248e-07
4.3386e-07
2.72593e-06
1.31376e-06
4.27219e-07
1.90147e-06
2.22304e-06
3.81735e-07
1.06634e-06
3.00292e-06
3.07507e-07
3.58372e-07
3.2157e-06
2.19205e-07
2.05185e-06
1.04581e-07
1.43998e-08
4.92476e-07
8.45021e-08
-1.03651e-07
8.40131e-07
1.70005e-07
-3.50762e-07
9.0448e-07
2.32837e-07
-6.93062e-07
7.80471e-07
2.85515e-07
-1.09342e-06
5.27325e-07
3.32579e-07
-1.51645e-06
1.72668e-07
3.71987e-07
-1.89033e-06
-2.69236e-07
3.97455e-07
-2.17142e-06
-7.62891e-07
4.04347e-07
-2.34535e-06
-1.27078e-06
3.92971e-07
-2.40892e-06
-1.76526e-06
3.67458e-07
-2.36968e-06
-2.22261e-06
3.33408e-07
-2.24122e-06
-2.62534e-06
2.96012e-07
-2.03887e-06
-2.96145e-06
2.59277e-07
-1.77762e-06
-3.22288e-06
2.26045e-07
-1.4703e-06
-3.41161e-06
1.97572e-07
-1.12665e-06
-3.53774e-06
1.73894e-07
-7.54548e-07
-3.61065e-06
1.54886e-07
-3.60499e-07
-3.63696e-06
1.40614e-07
5.03343e-08
-3.62102e-06
1.31192e-07
4.73892e-07
-3.56528e-06
1.26775e-07
9.06202e-07
-3.47013e-06
1.27602e-07
1.34247e-06
-3.33354e-06
1.34051e-07
1.77569e-06
-3.14943e-06
1.46807e-07
2.1917e-06
-2.90731e-06
1.666e-07
2.56779e-06
-2.59748e-06
1.93633e-07
2.87547e-06
-2.21095e-06
2.27896e-07
3.07941e-06
-1.73383e-06
2.68328e-07
3.13699e-06
-1.14625e-06
3.11914e-07
2.99653e-06
-4.22182e-07
3.53402e-07
2.64659e-06
4.52182e-07
3.84527e-07
2.10096e-06
1.46612e-06
3.93872e-07
1.42348e-06
2.53135e-06
3.69919e-07
7.45469e-07
3.37166e-06
3.10274e-07
2.17519e-07
3.52379e-06
2.21277e-07
2.17227e-06
9.91354e-08
9.80295e-09
4.01555e-07
8.07086e-08
-3.26786e-08
7.05114e-07
1.77252e-07
-1.36541e-07
7.5864e-07
2.49685e-07
-2.84599e-07
6.22054e-07
3.06555e-07
-4.45604e-07
3.37926e-07
3.50555e-07
-5.82224e-07
-7.00397e-08
3.7953e-07
-6.75245e-07
-5.6553e-07
3.89526e-07
-7.08574e-07
-1.10895e-06
3.79558e-07
-6.73601e-07
-1.65819e-06
3.5254e-07
-5.74338e-07
-2.17847e-06
3.13972e-07
-4.21835e-07
-2.64501e-06
2.69854e-07
-2.3057e-07
-3.04192e-06
2.25213e-07
-1.67524e-08
-3.359e-06
1.83576e-07
2.09218e-07
-3.59613e-06
1.47095e-07
4.44343e-07
-3.76323e-06
1.16283e-07
6.87757e-07
-3.87204e-06
9.06718e-08
9.38185e-07
-3.93123e-06
6.99369e-08
1.19371e-06
-3.94675e-06
5.40384e-08
1.45197e-06
-3.92254e-06
4.3049e-08
1.71028e-06
-3.86095e-06
3.7162e-08
1.96591e-06
-3.76266e-06
3.67149e-08
2.21642e-06
-3.62639e-06
4.21892e-08
2.46044e-06
-3.44787e-06
5.42974e-08
2.69398e-06
-3.21549e-06
7.45695e-08
2.90221e-06
-2.91068e-06
1.04956e-07
3.06101e-06
-2.51613e-06
1.46437e-07
3.14247e-06
-2.01405e-06
1.98934e-07
3.1143e-06
-1.37813e-06
2.60345e-07
2.94532e-06
-5.7714e-07
3.24347e-07
2.60397e-06
4.1539e-07
3.78678e-07
2.08089e-06
1.58297e-06
4.06902e-07
1.43586e-06
2.7826e-06
3.94617e-07
7.82889e-07
3.68861e-06
3.37121e-07
2.49945e-07
3.81823e-06
2.40004e-07
2.32105e-06
1.03263e-07
2.90087e-08
2.93779e-07
7.82743e-08
4.20904e-08
5.10459e-07
1.81418e-07
1.6682e-08
5.24234e-07
2.59787e-07
-4.31881e-08
3.63485e-07
3.18419e-07
-1.20379e-07
5.68111e-08
3.58317e-07
-1.93101e-07
-3.74656e-07
3.77387e-07
-2.43476e-07
-8.89036e-07
3.73928e-07
-2.62147e-07
-1.44064e-06
3.50353e-07
-2.45945e-07
-1.98722e-06
3.12744e-07
-1.96438e-07
-2.49637e-06
2.68237e-07
-1.17558e-07
-2.94695e-06
2.22853e-07
-1.41521e-08
-3.32617e-06
1.80602e-07
1.08712e-07
-3.62577e-06
1.43652e-07
2.48315e-07
-3.84823e-06
1.1224e-07
4.05699e-07
-4.00651e-06
8.56393e-08
5.81696e-07
-4.11146e-06
6.31695e-08
7.75017e-07
-4.1693e-06
4.44869e-08
9.829e-07
-4.18422e-06
2.93389e-08
1.2016e-06
-4.15907e-06
1.75796e-08
1.42659e-06
-4.09539e-06
9.20908e-09
1.65266e-06
-3.99343e-06
4.47042e-09
1.87395e-06
-3.85201e-06
4.10001e-09
2.08465e-06
-3.66774e-06
8.95698e-09
2.27942e-06
-3.43039e-06
1.99327e-08
2.44949e-06
-3.11954e-06
3.86284e-08
2.57875e-06
-2.71245e-06
6.69433e-08
2.64456e-06
-2.18697e-06
1.07065e-07
2.61666e-06
-1.51083e-06
1.60648e-07
2.45719e-06
-6.4347e-07
2.26009e-07
2.13854e-06
4.4076e-07
2.93682e-07
1.67359e-06
1.70407e-06
3.44485e-07
1.11244e-06
2.98895e-06
3.55663e-07
5.686e-07
3.91896e-06
3.14664e-07
1.59969e-07
4.00288e-06
2.25558e-07
2.38916e-06
9.4027e-08
4.70771e-08
1.75155e-07
7.11887e-08
1.24531e-07
2.62375e-07
1.70335e-07
2.0005e-07
2.03284e-07
2.45257e-07
2.61775e-07
3.36982e-09
2.98326e-07
3.14642e-07
-3.26296e-07
3.30223e-07
3.60887e-07
-7.61803e-07
3.4088e-07
4.06103e-07
-1.26622e-06
3.31918e-07
4.54795e-07
-1.79728e-06
3.07863e-07
5.10039e-07
-2.31732e-06
2.7474e-07
5.73676e-07
-2.7982e-06
2.38053e-07
6.4671e-07
-3.22176e-06
2.01624e-07
7.30149e-07
-3.57732e-06
1.67566e-07
8.26482e-07
-3.85912e-06
1.36874e-07
9.38621e-07
-4.07044e-06
1.09932e-07
1.06765e-06
-4.22225e-06
8.65836e-08
1.21257e-06
-4.32311e-06
6.66061e-08
1.37114e-06
-4.37791e-06
4.99331e-08
1.54031e-06
-4.39004e-06
3.65508e-08
1.71648e-06
-4.36181e-06
2.64727e-08
1.89558e-06
-4.29434e-06
1.97651e-08
2.07307e-06
-4.18758e-06
1.65793e-08
2.2439e-06
-4.04013e-06
1.72136e-08
2.40224e-06
-3.84827e-06
2.21175e-08
2.53861e-06
-3.59886e-06
3.2042e-08
2.64171e-06
-3.27033e-06
4.76319e-08
2.70113e-06
-2.84174e-06
6.98496e-08
2.70126e-06
-2.28738e-06
1.00292e-07
2.62093e-06
-1.5715e-06
1.41085e-07
2.43686e-06
-6.52402e-07
1.93194e-07
2.12698e-06
4.98729e-07
2.52251e-07
1.68153e-06
1.84628e-06
3.03786e-07
1.14585e-06
3.20065e-06
3.24794e-07
6.15465e-07
4.15485e-06
2.95643e-07
1.91825e-07
4.2135e-06
2.14584e-07
2.49474e-06
8.84202e-08
5.09491e-08
5.86321e-08
6.51953e-08
1.57323e-07
-9.86119e-10
1.56606e-07
2.93398e-07
-1.57519e-07
2.24523e-07
4.42008e-07
-4.16471e-07
2.7114e-07
5.9282e-07
-7.7457e-07
2.97394e-07
7.38112e-07
-1.21146e-06
3.0427e-07
8.71772e-07
-1.69424e-06
2.94233e-07
9.90688e-07
-2.18772e-06
2.71374e-07
1.09456e-06
-2.66175e-06
2.40401e-07
1.18528e-06
-3.09459e-06
2.05496e-07
1.26616e-06
-3.4726e-06
1.69782e-07
1.34116e-06
-3.78791e-06
1.35388e-07
1.41449e-06
-4.03639e-06
1.03728e-07
1.49168e-06
-4.22325e-06
7.53922e-08
1.5764e-06
-4.3576e-06
5.04065e-08
1.66949e-06
-4.44529e-06
2.88604e-08
1.77055e-06
-4.48995e-06
1.07543e-08
1.87828e-06
-4.49414e-06
-3.84564e-09
1.9897e-06
-4.45949e-06
-1.39557e-08
2.10239e-06
-4.38655e-06
-2.06989e-08
2.21314e-06
-4.2748e-06
-2.37394e-08
2.31811e-06
-4.12247e-06
-2.28234e-08
2.41288e-06
-3.92561e-06
-1.76131e-08
2.491e-06
-3.66953e-06
-7.61973e-09
2.54292e-06
-3.33079e-06
8.39869e-09
2.55768e-06
-2.88779e-06
3.11832e-08
2.52001e-06
-2.31107e-06
6.1307e-08
2.40908e-06
-1.56101e-06
1.00468e-07
2.2001e-06
-5.92971e-07
1.49699e-07
1.87667e-06
6.16188e-07
2.06293e-07
1.44812e-06
2.01656e-06
2.58831e-07
9.56243e-07
3.40742e-06
2.85943e-07
4.90407e-07
4.35591e-06
2.65963e-07
1.39741e-07
4.37114e-06
1.94646e-07
2.55745e-06
7.92499e-08
4.65227e-08
-4.47729e-08
5.64499e-08
1.63215e-07
-2.53093e-07
1.35121e-07
3.2234e-07
-5.08849e-07
1.91964e-07
5.07666e-07
-8.30986e-07
2.28987e-07
7.03188e-07
-1.21774e-06
2.47476e-07
8.93489e-07
-1.6512e-06
2.49295e-07
1.06732e-06
-2.10561e-06
2.37393e-07
1.21889e-06
-2.55497e-06
2.1554e-07
1.34745e-06
-2.97808e-06
1.87619e-07
1.45589e-06
-3.36016e-06
1.56975e-07
1.54914e-06
-3.69213e-06
1.26127e-07
1.63285e-06
-3.96859e-06
9.68035e-08
1.71303e-06
-4.18683e-06
7.01026e-08
1.79468e-06
-4.35154e-06
4.64788e-08
1.88043e-06
-4.46944e-06
2.59297e-08
1.97094e-06
-4.54428e-06
8.32633e-09
2.06521e-06
-4.57833e-06
-6.03241e-09
2.16112e-06
-4.57317e-06
-1.70392e-08
2.2564e-06
-4.52969e-06
-2.52385e-08
2.34821e-06
-4.44806e-06
-3.0445e-08
2.43337e-06
-4.32762e-06
-3.24915e-08
2.50842e-06
-4.16657e-06
-3.10957e-08
2.56871e-06
-3.96023e-06
-2.58136e-08
2.60836e-06
-3.69327e-06
-1.60432e-08
2.62154e-06
-3.34247e-06
-1.62493e-09
2.59888e-06
-2.88548e-06
2.02313e-08
2.52959e-06
-2.29022e-06
4.83716e-08
2.3977e-06
-1.5133e-06
8.41649e-08
2.18417e-06
-5.07439e-07
1.28098e-07
1.8713e-06
7.51105e-07
1.78212e-07
1.4583e-06
2.20388e-06
2.26177e-07
9.82373e-07
3.62979e-06
2.5435e-07
5.22855e-07
4.57582e-06
2.40764e-07
1.6048e-07
4.55705e-06
1.78059e-07
2.64769e-06
7.24417e-08
4.15102e-08
-1.347e-07
4.80099e-08
1.53371e-07
-4.77935e-07
1.12656e-07
3.18177e-07
-8.31623e-07
1.57656e-07
5.18261e-07
-1.21672e-06
1.85394e-07
7.34617e-07
-1.6319e-06
1.97622e-07
9.50331e-07
-2.06348e-06
1.96434e-07
1.15322e-06
-2.49302e-06
1.84419e-07
1.33664e-06
-2.90305e-06
1.6456e-07
1.49868e-06
-3.28015e-06
1.3993e-07
1.6406e-06
-3.6155e-06
1.13311e-07
1.7652e-06
-3.90376e-06
8.6903e-08
1.87577e-06
-4.1415e-06
6.22034e-08
1.97678e-06
-4.32801e-06
4.00278e-08
2.07292e-06
-4.46826e-06
2.04332e-08
2.16727e-06
-4.56685e-06
2.91709e-09
2.25959e-06
-4.62565e-06
-1.11007e-08
2.34995e-06
-4.64572e-06
-2.31368e-08
2.4374e-06
-4.62771e-06
-3.30805e-08
2.52019e-06
-4.57177e-06
-4.08667e-08
2.59593e-06
-4.47757e-06
-4.64018e-08
2.66169e-06
-4.34406e-06
-4.94778e-08
2.71397e-06
-4.16925e-06
-4.97534e-08
2.7473e-06
-3.94706e-06
-4.66577e-08
2.75472e-06
-3.66135e-06
-3.94834e-08
2.7294e-06
-3.29002e-06
-2.72594e-08
2.66363e-06
-2.81083e-06
-8.99918e-09
2.54781e-06
-2.19205e-06
1.75625e-08
2.37093e-06
-1.38966e-06
5.3219e-08
2.12006e-06
-3.54153e-07
9.76548e-08
1.78582e-06
9.37675e-07
1.47904e-07
1.37209e-06
2.42267e-06
1.95398e-07
9.11854e-07
3.86638e-06
2.24427e-07
4.7725e-07
4.79647e-06
2.15086e-07
1.41512e-07
4.73433e-06
1.60027e-07
2.72655e-06
6.48488e-08
2.29128e-08
-1.97621e-07
3.95696e-08
1.00164e-07
-6.46467e-07
9.09274e-08
2.25492e-07
-1.08189e-06
1.24673e-07
3.84958e-07
-1.51972e-06
1.43329e-07
5.62733e-07
-1.95882e-06
1.48973e-07
7.44726e-07
-2.38955e-06
1.43931e-07
9.20898e-07
-2.80024e-06
1.3092e-07
1.08573e-06
-3.18095e-06
1.12945e-07
1.23736e-06
-3.52481e-06
9.28992e-08
1.37619e-06
-3.82754e-06
7.30759e-08
1.50368e-06
-4.08629e-06
5.4892e-08
1.62181e-06
-4.29873e-06
3.89356e-08
1.73443e-06
-4.466e-06
2.51997e-08
1.84465e-06
-4.59193e-06
1.32772e-08
1.95372e-06
-4.67878e-06
2.68728e-09
2.06111e-06
-4.72742e-06
-5.79325e-09
2.1667e-06
-4.73821e-06
-1.32832e-08
2.26986e-06
-4.71119e-06
-1.98339e-08
2.36934e-06
-4.64603e-06
-2.5389e-08
2.46338e-06
-4.54192e-06
-2.98442e-08
2.54956e-06
-4.39744e-06
-3.29706e-08
2.6247e-06
-4.21008e-06
-3.44547e-08
2.68195e-06
-3.9707e-06
-3.37632e-08
2.71193e-06
-3.66115e-06
-3.03242e-08
2.70615e-06
-3.26115e-06
-2.32287e-08
2.65458e-06
-2.74814e-06
-1.12464e-08
2.5461e-06
-2.09121e-06
7.54324e-09
2.36939e-06
-1.24877e-06
3.57698e-08
2.11604e-06
-1.74705e-07
7.3942e-08
1.78027e-06
1.15345e-06
1.20185e-07
1.36969e-06
2.66741e-06
1.66268e-07
9.16239e-07
4.12377e-06
1.9679e-07
4.86487e-07
5.03533e-06
1.91988e-07
1.47815e-07
4.93062e-06
1.43932e-07
2.81846e-06
5.8062e-08
3.02158e-08
-2.59002e-07
3.06898e-08
1.09275e-07
-7.95009e-07
6.91424e-08
2.26637e-07
-1.29213e-06
9.2611e-08
3.70691e-07
-1.76745e-06
1.03435e-07
5.29882e-07
-2.22227e-06
1.04036e-07
6.94883e-07
-2.65194e-06
9.71684e-08
8.596e-07
-3.05087e-06
8.57019e-08
1.02075e-06
-3.41456e-06
7.22462e-08
1.1767e-06
-3.73972e-06
5.87492e-08
1.32642e-06
-4.02377e-06
4.63082e-08
1.46897e-06
-4.26432e-06
3.52762e-08
1.60373e-06
-4.45925e-06
2.55581e-08
1.73151e-06
-4.6109e-06
1.6913e-08
1.85294e-06
-4.72259e-06
9.04324e-09
1.96798e-06
-4.79564e-06
1.63275e-09
2.07579e-06
-4.83087e-06
-4.53576e-09
2.1765e-06
-4.82879e-06
-1.02899e-08
2.27026e-06
-4.78956e-06
-1.5561e-08
2.35714e-06
-4.71284e-06
-2.02257e-08
2.43691e-06
-4.5977e-06
-2.41415e-08
2.50886e-06
-4.44245e-06
-2.70831e-08
2.57104e-06
-4.24361e-06
-2.88009e-08
2.61799e-06
-3.98891e-06
-2.8892e-08
2.64186e-06
-3.65825e-06
-2.69157e-08
2.63434e-06
-3.23161e-06
-2.2147e-08
2.58393e-06
-2.68436e-06
-1.34729e-08
2.47737e-06
-1.98497e-06
2.37896e-10
2.29949e-06
-1.09419e-06
2.32641e-08
2.03886e-06
3.06322e-08
5.53506e-08
1.6992e-06
1.39711e-06
9.61937e-08
1.29146e-06
2.93664e-06
1.38931e-07
8.50988e-07
4.39565e-06
1.6931e-07
4.43114e-07
5.2763e-06
1.6798e-07
1.29346e-07
5.11931e-06
1.26594e-07
2.89933e-06
5.06025e-08
3.74775e-08
-3.18696e-07
2.1786e-08
1.29011e-07
-9.34407e-07
4.74798e-08
2.5843e-07
-1.48346e-06
6.15688e-08
4.13331e-07
-1.98894e-06
6.62783e-08
5.84292e-07
-2.45776e-06
6.42389e-08
7.64508e-07
-2.89058e-06
5.81446e-08
9.48998e-07
-3.28588e-06
5.02545e-08
1.13357e-06
-3.64146e-06
4.20822e-08
1.31413e-06
-3.95487e-06
3.43561e-08
1.48663e-06
-4.2237e-06
2.72232e-08
1.64751e-06
-4.44595e-06
2.0556e-08
1.79513e-06
-4.62127e-06
1.42156e-08
1.92914e-06
-4.75325e-06
8.1632e-09
2.04934e-06
-4.84534e-06
2.38948e-09
2.15551e-06
-4.89924e-06
-2.70555e-09
2.24798e-06
-4.91625e-06
-7.23516e-09
2.32771e-06
-4.89728e-06
-1.1367e-08
2.39581e-06
-4.84276e-06
-1.503e-08
2.4535e-06
-4.75248e-06
-1.81827e-08
2.50192e-06
-4.6255e-06
-2.07569e-08
2.54188e-06
-4.45995e-06
-2.261e-08
2.57231e-06
-4.25063e-06
-2.35571e-08
2.59021e-06
-3.98356e-06
-2.33978e-08
2.59187e-06
-3.63824e-06
-2.18171e-08
2.5707e-06
-3.19229e-06
-1.83027e-08
2.51563e-06
-2.61747e-06
-1.19651e-08
2.41171e-06
-1.87961e-06
-1.53957e-09
2.24145e-06
-9.40117e-07
1.61304e-08
1.99416e-06
2.35596e-07
4.23567e-08
1.66333e-06
1.65069e-06
7.74246e-08
1.26471e-06
3.21963e-06
1.16017e-07
8.35143e-07
4.68055e-06
1.45364e-07
4.3792e-07
5.52783e-06
1.46738e-07
1.2965e-07
5.31776e-06
1.11303e-07
2.98676e-06
4.43125e-08
4.61826e-08
-3.79994e-07
1.46884e-08
1.59386e-07
-1.07807e-06
3.00297e-08
3.1928e-07
-1.68124e-06
3.75126e-08
5.11158e-07
-2.22051e-06
3.93687e-08
7.23489e-07
-2.70817e-06
3.78082e-08
9.46762e-07
-3.14867e-06
3.45831e-08
1.17257e-06
-3.54259e-06
3.06947e-08
1.39328e-06
-3.88879e-06
2.64506e-08
1.60233e-06
-4.18581e-06
2.17533e-08
1.79479e-06
-4.4327e-06
1.64383e-08
1.96774e-06
-4.62949e-06
1.04987e-08
2.12122e-06
-4.77896e-06
4.14619e-09
2.25594e-06
-4.8859e-06
-2.10797e-09
2.37198e-06
-4.95371e-06
-7.70843e-09
2.46997e-06
-4.98443e-06
-1.28381e-08
2.55058e-06
-4.97964e-06
-1.72639e-08
2.61458e-06
-4.94042e-06
-2.0916e-08
2.66285e-06
-4.8673e-06
-2.37875e-08
2.69636e-06
-4.76017e-06
-2.58875e-08
2.71616e-06
-4.61817e-06
-2.72161e-08
2.72329e-06
-4.43944e-06
-2.77239e-08
2.71709e-06
-4.21729e-06
-2.72492e-08
2.69589e-06
-3.93676e-06
-2.57158e-08
2.65838e-06
-3.57788e-06
-2.29908e-08
2.60075e-06
-3.11599e-06
-1.8803e-08
2.515e-06
-2.51927e-06
-1.25931e-08
2.38834e-06
-1.74967e-06
-3.39919e-09
2.20407e-06
-7.67018e-07
1.10853e-08
1.94797e-06
4.59054e-07
3.26505e-08
1.61614e-06
1.9206e-06
6.20725e-08
1.222e-06
3.51842e-06
9.57135e-08
8.02662e-07
4.9777e-06
1.22844e-07
4.18862e-07
5.78662e-06
1.26005e-07
1.22772e-07
5.51914e-06
9.61294e-08
3.07348e-06
3.80868e-08
3.88556e-08
-4.29733e-07
1.04318e-08
1.46411e-07
-1.20561e-06
1.96073e-08
3.06712e-07
-1.86556e-06
2.36908e-08
5.04079e-07
-2.44293e-06
2.47822e-08
7.24189e-07
-2.95283e-06
2.43319e-08
9.5426e-07
-3.40194e-06
2.30493e-08
1.18339e-06
-3.79282e-06
2.10054e-08
1.40312e-06
-4.12654e-06
1.79612e-08
1.60789e-06
-4.40432e-06
1.3714e-08
1.79512e-06
-4.62823e-06
8.28961e-09
1.9647e-06
-4.80093e-06
1.85443e-09
2.11751e-06
-4.92738e-06
-4.38824e-09
2.25476e-06
-5.01252e-06
-1.06433e-08
2.37688e-06
-5.0593e-06
-1.65325e-08
2.48391e-06
-5.06972e-06
-2.17678e-08
2.5757e-06
-5.04525e-06
-2.62075e-08
2.65194e-06
-4.9869e-06
-2.97919e-08
2.71228e-06
-4.89519e-06
-3.25023e-08
2.75645e-06
-4.77005e-06
-3.43328e-08
2.78426e-06
-4.61078e-06
-3.52717e-08
2.79528e-06
-4.41526e-06
-3.52781e-08
2.78737e-06
-4.17528e-06
-3.41914e-08
2.75812e-06
-3.87565e-06
-3.19596e-08
2.70629e-06
-3.49764e-06
-2.85212e-08
2.62952e-06
-3.01565e-06
-2.37109e-08
2.52291e-06
-2.39568e-06
-1.71408e-08
2.37763e-06
-1.59648e-06
-8.04673e-09
2.18091e-06
-5.75406e-07
4.99721e-09
1.91992e-06
6.96007e-07
2.40105e-08
1.58974e-06
2.20136e-06
4.95185e-08
1.20198e-06
3.82758e-06
7.89276e-08
7.9198e-07
5.28483e-06
1.03469e-07
4.16045e-07
6.05594e-06
1.07556e-07
1.23326e-07
5.73087e-06
8.23607e-08
3.16639e-06
3.23925e-08
3.38065e-08
-4.72007e-07
8.02702e-09
1.2977e-07
-1.31628e-06
1.4362e-08
2.74807e-07
-2.02826e-06
1.73793e-08
4.54398e-07
-2.64152e-06
1.87813e-08
6.54428e-07
-3.17235e-06
1.93304e-08
8.62662e-07
-3.62941e-06
1.91258e-08
1.0697e-06
-4.01788e-06
1.79559e-08
1.26938e-06
-4.34188e-06
1.56371e-08
1.45856e-06
-4.60571e-06
1.21811e-08
1.63645e-06
-4.81391e-06
7.76505e-09
1.80373e-06
-4.97081e-06
2.56611e-09
1.96059e-06
-5.08167e-06
-2.60234e-09
2.10694e-06
-5.15104e-06
-7.86843e-09
2.24234e-06
-5.18161e-06
-1.31386e-08
2.36601e-06
-5.17527e-06
-1.81677e-08
2.477e-06
-5.13349e-06
-2.2792e-08
2.57427e-06
-5.05733e-06
-2.68849e-08
2.65675e-06
-4.94739e-06
-3.03411e-08
2.72344e-06
-4.80374e-06
-3.30631e-08
2.77329e-06
-4.62576e-06
-3.49484e-08
2.80355e-06
-4.40972e-06
-3.58797e-08
2.81001e-06
-4.14612e-06
-3.57151e-08
2.78987e-06
-3.82128e-06
-3.43329e-08
2.74067e-06
-3.41691e-06
-3.16427e-08
2.65935e-06
-2.90694e-06
-2.75106e-08
2.54161e-06
-2.2564e-06
-2.16681e-08
2.38102e-06
-1.42251e-06
-1.35369e-08
2.16884e-06
-3.61288e-07
-2.0724e-09
1.89635e-06
9.54017e-07
1.44081e-08
1.5612e-06
2.49997e-06
3.65913e-08
1.1753e-06
4.15128e-06
6.24647e-08
7.72768e-07
5.60318e-06
8.4721e-08
4.05252e-07
6.33481e-06
8.9528e-08
1.19428e-07
5.94938e-06
6.86216e-08
3.26122e-06
2.64955e-08
2.86856e-08
-5.08064e-07
6.94211e-09
1.09785e-07
-1.41046e-06
1.27317e-08
2.32349e-07
-2.16723e-06
1.61348e-08
3.84786e-07
-2.81257e-06
1.84096e-08
5.5659e-07
-3.36426e-06
1.9948e-08
7.39168e-07
-3.83286e-06
2.07474e-08
9.26002e-07
-4.22555e-06
2.07359e-08
1.11243e-06
-4.54833e-06
1.99176e-08
1.29531e-06
-4.80703e-06
1.83478e-08
1.4727e-06
-5.00746e-06
1.60589e-08
1.64361e-06
-5.15485e-06
1.30428e-08
1.80682e-06
-5.25429e-06
9.31673e-09
1.96098e-06
-5.31031e-06
5.01657e-09
2.10509e-06
-5.32596e-06
1.49797e-10
2.23749e-06
-5.30347e-06
-4.2854e-09
2.3576e-06
-5.24459e-06
-9.09575e-09
2.46467e-06
-5.15067e-06
-1.38195e-08
2.55802e-06
-5.02255e-06
-1.82774e-08
2.63693e-06
-4.86044e-06
-2.2309e-08
2.6995e-06
-4.66268e-06
-2.57358e-08
2.74188e-06
-4.42376e-06
-2.84306e-08
2.76048e-06
-4.13457e-06
-3.02455e-08
2.75249e-06
-3.78243e-06
-3.09618e-08
2.71412e-06
-3.34831e-06
-3.03384e-08
2.64048e-06
-2.8053e-06
-2.81308e-08
2.52574e-06
-2.11776e-06
-2.40412e-08
2.36313e-06
-1.24246e-06
-1.7585e-08
2.14552e-06
-1.35913e-07
-7.90769e-09
1.86759e-06
1.22566e-06
6.17707e-09
1.53036e-06
2.81189e-06
2.53279e-08
1.14766e-06
4.48624e-06
4.79269e-08
7.53599e-07
5.92985e-06
6.78727e-08
3.94748e-07
6.62145e-06
7.30191e-08
1.15968e-07
6.17356e-06
5.58213e-08
3.35806e-06
2.09474e-08
3.09143e-08
-5.46163e-07
6.74231e-09
1.1178e-07
-1.50501e-06
1.33163e-08
2.31051e-07
-2.30483e-06
1.80364e-08
3.79839e-07
-2.98348e-06
2.18751e-08
5.5049e-07
-3.56021e-06
2.50945e-08
7.35933e-07
-4.0462e-06
2.77126e-08
9.29368e-07
-4.44883e-06
2.96673e-08
1.12452e-06
-4.77449e-06
3.08479e-08
1.31621e-06
-5.02997e-06
3.11099e-08
1.50072e-06
-5.22243e-06
3.03311e-08
1.67587e-06
-5.35859e-06
2.84742e-08
1.84014e-06
-5.44428e-06
2.56148e-08
1.99228e-06
-5.48453e-06
2.19861e-08
2.1314e-06
-5.483e-06
1.78304e-08
2.25697e-06
-5.44246e-06
1.33284e-08
2.36879e-06
-5.36511e-06
8.62518e-09
2.46686e-06
-5.25264e-06
3.81914e-09
2.5511e-06
-5.10598e-06
-8.9243e-10
2.62066e-06
-4.92471e-06
-5.36791e-09
2.67362e-06
-4.70605e-06
-9.68535e-09
2.70796e-06
-4.44449e-06
-1.36983e-08
2.722e-06
-4.13145e-06
-1.72675e-08
2.71285e-06
-3.75324e-06
-2.01396e-08
2.67596e-06
-3.28952e-06
-2.2013e-08
2.6051e-06
-2.712e-06
-2.25681e-08
2.49254e-06
-1.98391e-06
-2.14288e-08
2.32979e-06
-1.06183e-06
-1.80465e-08
2.10937e-06
9.5875e-08
-1.15408e-08
1.82731e-06
1.50817e-06
-5.91146e-10
1.48818e-06
3.13599e-06
1.49676e-08
1.10889e-06
4.83139e-06
3.4253e-08
7.24662e-07
6.26251e-06
5.19418e-08
3.77184e-07
6.9123e-06
5.73247e-08
1.09536e-07
6.39869e-06
4.36385e-08
3.45352e-06
1.57841e-08
3.14016e-08
-5.85989e-07
7.98795e-09
1.15026e-07
-1.60616e-06
1.71693e-08
2.40584e-07
-2.45507e-06
2.43733e-08
3.99759e-07
-3.17344e-06
3.05195e-08
5.84079e-07
-3.78054e-06
3.57875e-08
7.84185e-07
-4.28658e-06
4.00809e-08
9.90528e-07
-4.6985e-06
4.31753e-08
1.19484e-06
-5.02377e-06
4.48438e-08
1.3912e-06
-5.27142e-06
4.49886e-08
1.57602e-06
-5.45106e-06
4.37134e-08
1.74753e-06
-5.57145e-06
4.12839e-08
1.90488e-06
-5.6397e-06
3.80139e-08
2.04751e-06
-5.66142e-06
3.42035e-08
2.17515e-06
-5.64081e-06
3.01298e-08
2.28775e-06
-5.58105e-06
2.59462e-08
2.3855e-06
-5.48464e-06
2.17326e-08
2.46855e-06
-5.35326e-06
1.75247e-08
2.53677e-06
-5.18758e-06
1.33318e-08
2.58956e-06
-4.98674e-06
9.18992e-09
2.62649e-06
-4.7481e-06
5.05768e-09
2.6474e-06
-4.46637e-06
9.12229e-10
2.65103e-06
-4.13222e-06
-2.93204e-09
2.63499e-06
-3.73075e-06
-6.53328e-09
2.59493e-06
-3.23996e-06
-9.58532e-09
2.52429e-06
-2.62966e-06
-1.18057e-08
2.41444e-06
-1.86133e-06
-1.28585e-08
2.25551e-06
-8.90803e-07
-1.22504e-08
2.03876e-06
3.21599e-07
-9.15247e-09
1.76051e-06
1.78852e-06
-2.27468e-09
1.42665e-06
3.46077e-06
8.95954e-09
1.05678e-06
5.17726e-06
2.40369e-08
6.87465e-07
6.59334e-06
3.87719e-08
3.55386e-07
7.20112e-06
4.38579e-08
1.02112e-07
6.61979e-06
3.31755e-08
3.54569e-06
1.15345e-08
3.42438e-08
-6.30877e-07
1.02067e-08
1.2554e-07
-1.7209e-06
2.30663e-08
2.62763e-07
-2.62575e-06
3.3137e-08
4.35597e-07
-3.3879e-06
4.13713e-08
6.32324e-07
-4.02534e-06
4.7867e-08
8.4059e-07
-4.54744e-06
5.24491e-08
1.04947e-06
-4.96242e-06
5.49261e-08
1.2512e-06
-5.28089e-06
5.5294e-08
1.44145e-06
-5.51556e-06
5.38297e-08
1.61819e-06
-5.67888e-06
5.10277e-08
1.78053e-06
-5.78127e-06
4.7435e-08
1.92802e-06
-5.83071e-06
4.3494e-08
2.06027e-06
-5.83318e-06
3.9476e-08
2.17706e-06
-5.79317e-06
3.55464e-08
2.2783e-06
-5.71409e-06
3.17809e-08
2.36394e-06
-5.59849e-06
2.81832e-08
2.43393e-06
-5.44799e-06
2.47271e-08
2.48816e-06
-5.26321e-06
2.13721e-08
2.52683e-06
-5.04353e-06
1.80964e-08
2.55029e-06
-4.78646e-06
1.4867e-08
2.55849e-06
-4.48624e-06
1.16251e-08
2.55063e-06
-4.1328e-06
8.37861e-09
2.52478e-06
-3.71018e-06
5.21564e-09
2.47734e-06
-3.19486e-06
2.26797e-09
2.40258e-06
-2.55469e-06
-2.9697e-10
2.29235e-06
-1.74896e-06
-2.24015e-09
2.13674e-06
-7.32013e-07
-3.31349e-09
1.92642e-06
5.34574e-07
-2.80668e-09
1.6572e-06
2.05713e-06
4.36227e-10
1.33531e-06
3.77531e-06
7.19688e-09
9.81823e-07
5.51301e-06
1.77128e-08
6.33919e-07
6.91254e-06
2.88985e-08
3.23601e-07
7.47883e-06
3.30995e-08
9.10217e-08
6.82839e-06
2.48888e-08
3.62973e-06
8.49648e-09
3.30884e-08
-6.7739e-07
1.29905e-08
1.25013e-07
-1.84306e-06
2.9882e-08
2.6466e-07
-2.80813e-06
4.24497e-08
4.39386e-07
-3.61465e-06
5.18041e-08
6.35227e-07
-4.27951e-06
5.81663e-08
8.39038e-07
-4.81297e-06
6.15992e-08
1.04081e-06
-5.22658e-06
6.2306e-08
1.23454e-06
-5.53545e-06
6.07547e-08
1.4174e-06
-5.75608e-06
5.76197e-08
1.58805e-06
-5.90318e-06
5.36075e-08
1.74564e-06
-5.98818e-06
4.92896e-08
1.88934e-06
-6.01947e-06
4.50331e-08
2.01835e-06
-6.00323e-06
4.1027e-08
2.13196e-06
-5.94413e-06
3.73402e-08
2.22961e-06
-5.84574e-06
3.3987e-08
2.31089e-06
-5.71072e-06
3.09436e-08
2.37561e-06
-5.54089e-06
2.81692e-08
2.42381e-06
-5.33706e-06
2.56329e-08
2.45562e-06
-5.09868e-06
2.33126e-08
2.47099e-06
-4.82304e-06
2.11826e-08
2.4697e-06
-4.50414e-06
1.91584e-08
2.45111e-06
-4.13146e-06
1.72103e-08
2.41386e-06
-3.68834e-06
1.53633e-08
2.35553e-06
-3.15026e-06
1.3663e-08
2.27222e-06
-2.48359e-06
1.21444e-08
2.15804e-06
-1.64568e-06
1.08176e-08
2.00501e-06
-5.88791e-07
9.71701e-09
1.80452e-06
7.25875e-07
9.07489e-09
1.5512e-06
2.30073e-06
9.59253e-09
1.24903e-06
4.06496e-06
1.24075e-08
9.17675e-07
5.82621e-06
1.81261e-08
5.92839e-07
7.21245e-06
2.50962e-08
3.02601e-07
7.74196e-06
2.75682e-08
8.55701e-08
7.02542e-06
2.08634e-08
3.70909e-06
7.68315e-09
3.38712e-08
-7.26929e-07
1.52343e-08
1.27446e-07
-1.97194e-06
3.4948e-08
2.68357e-07
-2.99798e-06
4.86576e-08
4.42767e-07
-3.84704e-06
5.77663e-08
6.36302e-07
-4.5361e-06
6.28826e-08
8.36499e-07
-5.07788e-06
6.45862e-08
1.03454e-06
-5.48833e-06
6.36104e-08
1.22536e-06
-5.78713e-06
6.07983e-08
1.4063e-06
-5.99402e-06
5.69475e-08
1.5758e-06
-6.1254e-06
5.2679e-08
1.73257e-06
-6.19337e-06
4.83981e-08
1.87543e-06
-6.20668e-06
4.43311e-08
2.00329e-06
-6.1717e-06
4.05875e-08
2.11525e-06
-6.09331e-06
3.72089e-08
2.21059e-06
-5.97528e-06
3.41994e-08
2.28882e-06
-5.8205e-06
3.15444e-08
2.34967e-06
-5.63097e-06
2.92217e-08
2.39303e-06
-5.40764e-06
2.72136e-08
2.41887e-06
-5.15002e-06
2.54963e-08
2.42699e-06
-4.85525e-06
2.40688e-08
2.41702e-06
-4.51707e-06
2.28814e-08
2.38819e-06
-4.12459e-06
2.1931e-08
2.33912e-06
-3.66058e-06
2.12538e-08
2.26781e-06
-3.09988e-06
2.08959e-08
2.17159e-06
-2.4083e-06
2.08841e-08
2.04714e-06
-1.54246e-06
2.11862e-08
1.89004e-06
-4.53383e-07
2.16617e-08
1.69481e-06
8.98987e-07
2.20748e-08
1.45643e-06