/*--------------------------------*- C++ -*----------------------------------*\
| =========                 |                                                 |
| \\      /  F ield         | OpenFOAM: The Open Source CFD Toolbox           |
|  \\    /   O peration     | Version:  v1912                                 |
|   \\  /    A nd           | Website:  www.openfoam.com                      |
|    \\/     M anipulation  |                                                 |
\*---------------------------------------------------------------------------*/
FoamFile
{
    version     2.0;
    format      ascii;
    class       volScalarField;
    location    "140/oil";
    object      heatTransferCoeff(T);
}
// * * * * * * * * * * * * * * * * * * * * * * * * * * * * * * * * * * * * * //

dimensions      [1 0 -3 -1 0 0 0];


internalField   uniform 0;

boundaryField
{
    maxY
    {
        type            calculated;
        value           uniform 0;
    }
    minX
    {
        type            calculated;
        value           uniform 0;
    }
    maxX
    {
        type            calculated;
        value           uniform 0;
    }
    minY
    {
        type            calculated;
        value           uniform 0;
    }
    minZ
    {
        type            calculated;
        value           uniform 0;
    }
    maxZ
    {
        type            calculated;
        value           uniform 0;
    }
    oil_to_sphere
    {
        type            calculated;
        value           nonuniform List<scalar> 
1536
(
-215.019
-225.088
-208.989
-206.295
-178.528
-184.397
-182.181
-138.657
-132.721
-232.926
-176.872
-235.173
-239.057
-235.242
-205.076
-177.341
-140.357
-133.503
-30.7851
-238.611
-232.952
-186.012
-183.142
-178.711
-187.85
-187.795
-187.862
-179.255
-225.77
-222.892
-209.093
-167.569
-154.275
-188.707
-177.868
-176.81
-169.778
-196.22
-185.5
-195.391
-185.557
-176.799
-220.229
-235.716
-223.852
-234.11
-184.165
-184.435
-202.141
-188.146
-185.4
-185.629
-181.753
-184.369
-160.351
-151.368
-183.647
-183.073
-134.268
-91.5946
-101.245
-90.18
-99.1635
-238.309
-239.602
-234.866
-224.894
-234.609
-214.438
-223.042
-189.199
-183.948
-208.669
-186.112
-177.937
-154.49
-149.378
-145.358
-177.617
-133.592
-89.7939
-99.3214
-78.7771
-77.6658
-106.162
-101.052
-80.7597
-139.71
-133.365
-91.276
-100.179
-30.5806
-30.8158
-239.284
-239.82
-235.896
-227.494
-230.963
-235.298
-213.304
-225.743
-188.425
-213.939
-209.319
-185.12
-186.083
-178.979
-146.214
-175.897
-155.433
-148.653
-153.754
-91.3286
-101.74
-79.6845
-81.3931
-79.4995
-105.416
-101.028
-107.164
-134.044
-100.338
-30.8305
-234.845
-213.503
-222.95
-214.653
-221.966
-185.17
-185.84
-187.24
-185.109
-185.635
-183.998
-186.836
-187.969
-184.267
-151.428
-181.973
-181.367
-91.643
-100.762
-139.853
-134.146
-99.4586
-132.318
-202.975
-203.049
-181.83
-190.048
-208.654
-202.919
-183.826
-186.81
-186.159
-170.137
-160.239
-162.513
-203.59
-200.442
-204.267
-219.882
-193.729
-186.983
-177.012
-170.19
-184.536
-173.521
-160.946
-163.077
-219.284
-197.617
-223.831
-194.843
-165.261
-148.486
-204.047
-206.346
-214.579
-201.856
-193.32
-186.416
-170.455
-186.071
-166.347
-163.129
-163.545
-229.019
-200.864
-208.962
-218.373
-204.513
-216.26
-208.081
-166.619
-168.518
-172.144
-173.522
-165.219
-169.117
-172.726
-178.048
-133.502
-129.989
-126.37
-135.947
-140.708
-138.769
-145.822
-144.052
-130.361
-123.221
-119.329
-229.578
-244.031
-239.887
-230.93
-230.541
-232.155
-230.222
-228.459
-236.369
-224.346
-229.262
-229.845
-204.925
-204.731
-224.156
-213.068
-190.474
-171.161
-166.663
-184.22
-167.587
-131.236
-134.845
-127.492
-136.402
-139.895
-128.264
-122.465
-72.2309
-64.1598
-236.839
-230.215
-233.546
-229.359
-234.728
-244.746
-235.532
-229.061
-200.017
-187.628
-200.489
-203.059
-168.488
-178.196
-131.388
-123.994
-141.429
-150.29
-145.456
-120.436
-63.4617
-71.0087
-47.8348
-47.9159
-71.3084
-233.05
-228.475
-227.405
-224.504
-229.306
-230.352
-226.638
-233.731
-247.568
-238.086
-228.502
-216.304
-203.378
-204.041
-211.602
-225.903
-213.791
-203.691
-203.396
-170.194
-171.57
-178.319
-180.059
-172.884
-177.821
-127.552
-123.582
-129.378
-137.833
-134.667
-140.087
-139.516
-139.42
-126.655
-121.428
-136.779
-129.898
-189.946
-181.645
-183.976
-170.118
-166.054
-163.378
-158.762
-220.307
-212.25
-224.019
-218.181
-212.117
-219.817
-221.767
-225.533
-231.794
-221.753
-223.859
-220.777
-243.168
-233.236
-229.726
-223.721
-231.394
-237.491
-230.484
-216.128
-218.292
-223.285
-212.011
-222.762
-225.892
-231.519
-230.147
-235.818
-233.534
-231.645
-226.546
-226.412
-224.809
-226.979
-219.954
-220.757
-213.53
-219.324
-210.011
-213.096
-225.595
-202.962
-220.888
-204.971
-207.625
-201.306
-190.661
-219.562
-203.602
-202.788
-211.196
-191.137
-198.366
-204.167
-189.113
-195.088
-184.933
-205.342
-219.607
-204.042
-205.406
-207.703
-193.228
-199.331
-197.742
-170.732
-175.26
-169.659
-161.358
-156.469
-161.886
-151.423
-147.32
-171.775
-175.54
-171.178
-163.332
-157.897
-165.92
-151.084
-147.403
-144.061
-168.42
-146.77
-162.817
-158.59
-163.367
-150.634
-171.289
-176.746
-170.878
-175.826
-148.989
-144.548
-163.043
-158.442
-164.734
-149.389
-145.923
-137.926
-133.849
-137.467
-133.495
-127.058
-127.381
-122.126
-132.047
-124.274
-141.514
-120.769
-123.062
-119.041
-113.258
-120.795
-117.984
-109.07
-106.25
-97.3985
-135.247
-131.467
-126.706
-136.496
-123.493
-127.264
-109.211
-105.103
-103.389
-97.4776
-119.324
-114.199
-121.076
-118.214
-116.585
-137.295
-133.29
-138.541
-138.753
-127.281
-121.438
-134.489
-129.226
-262.222
-251.675
-242.181
-259.561
-242.792
-245.484
-251.845
-236.582
-239.394
-243.383
-242.282
-229.305
-237.438
-226.561
-225.359
-223.366
-222.66
-227.199
-225.766
-231.188
-236.738
-218.02
-232.952
-220.491
-226.931
-221.428
-233.571
-224.042
-232.534
-228.252
-234.56
-229.19
-218.625
-225.308
-213.692
-230.25
-201.78
-209.04
-205.691
-185.668
-194.449
-193.754
-205.136
-185.578
-202.445
-184.845
-194.308
-187.178
-179.135
-184.181
-171.14
-168.042
-158.854
-163.878
-161.417
-156.19
-148.664
-166.306
-147.522
-177.049
-169.675
-160.363
-123.508
-118.373
-114.174
-122.145
-118.857
-130.7
-123.507
-141.381
-119.938
-108.427
-107.549
-98.4355
-85.5912
-76.7039
-86.2863
-77.1066
-93.6985
-101.457
-93.3784
-84.015
-86.0704
-130.019
-134.42
-126.287
-135.866
-121.018
-114.599
-122.286
-117.05
-129.782
-122.794
-137.998
-144.442
-120.202
-108.659
-116.91
-106.239
-97.4787
-113.641
-71.2603
-63.9525
-73.4778
-64.0427
-48.4728
-48.1117
-48.2858
-48.0681
-62.3133
-255.828
-239.873
-245.775
-243.586
-240.528
-256.222
-246.633
-243.085
-238.84
-229.75
-242.111
-244.597
-249.21
-230.704
-231.487
-237.147
-237.722
-218.061
-229.758
-218.859
-233.457
-226.909
-226.08
-222.975
-228.854
-222.603
-228.234
-234.676
-224.256
-217.372
-214.196
-227.61
-233.075
-218.051
-231.644
-220.333
-213.052
-235.421
-226.401
-225.336
-228.213
-221.179
-220.922
-226.352
-233.312
-222.08
-214.223
-205.339
-203.399
-195.064
-187.019
-196.626
-217.59
-208.342
-205.628
-198.167
-196.943
-191.246
-193.573
-194.378
-185.944
-185.738
-170.46
-183.419
-166.159
-174.074
-163.597
-159.123
-188.395
-178.272
-150.915
-168.074
-147.207
-166.213
-155.669
-148.174
-161.528
-163.986
-163.273
-161.358
-159.688
-185.429
-168.939
-108.423
-108.218
-104.421
-98.8145
-134.522
-130.144
-126.662
-136.337
-123.733
-127.633
-115.073
-122.872
-121.918
-117.912
-115.913
-94.6434
-94.5912
-102.417
-85.0993
-85.7365
-76.5717
-86.4453
-86.6126
-76.3247
-100.559
-92.7278
-93.2378
-101.718
-84.3748
-129.945
-123.095
-140.054
-144.698
-120.311
-109.073
-117.192
-105.223
-104.222
-114.071
-128.021
-121.891
-133.808
-131.204
-126.638
-136.383
-139.477
-114.249
-119.387
-121.83
-117.532
-116.355
-48.3776
-48.3406
-72.7445
-71.8531
-64.2358
-62.2579
-80.9392
-71.7271
-62.9353
-211.644
-222.594
-221.825
-211.055
-221.077
-211.762
-211.162
-232.661
-228.576
-237.292
-228.911
-218.693
-225.909
-222.122
-231.425
-224.177
-227.746
-219.053
-219.064
-233.182
-226.588
-223.249
-224.381
-221.208
-221.023
-225.342
-214.627
-213.3
-219.201
-224.445
-218.816
-227.88
-221.977
-238.117
-219.981
-214.933
-217.819
-219.335
-213.312
-211.124
-226.012
-203.79
-194.649
-194.986
-200.834
-186.853
-218.044
-203.502
-202.743
-208.868
-198.762
-198.974
-193.442
-213.106
-201.687
-203.668
-208.758
-191.706
-193.365
-202.458
-200.477
-186.872
-207.232
-218.186
-206.368
-208.213
-199.801
-199.206
-194.621
-194.397
-186.007
-162.621
-158.124
-164.005
-150.937
-148.973
-145.145
-174.343
-167.762
-175.558
-171.367
-158.19
-163.183
-162.807
-148.919
-145.62
-146.649
-171.382
-171.005
-176.786
-170.511
-176.462
-148.203
-150.686
-162.22
-157.249
-162.774
-148.508
-145.548
-178.468
-169.963
-169.939
-173.464
-177.608
-150.32
-146.13
-158.457
-163.73
-163.794
-133.462
-138.282
-127.237
-126.459
-121.197
-137.533
-133.897
-138.035
-119.496
-114.123
-121.634
-117.068
-110.501
-119.16
-106.944
-97.9914
-114.876
-130.861
-133.575
-126.036
-136.594
-145.152
-155.447
-134.233
-126.077
-121.598
-124.026
-131.496
-108.951
-116.26
-105.936
-104.736
-112.998
-119.938
-114.752
-120.357
-119.222
-116.553
-138.383
-145.692
-130.842
-123.346
-119.798
-135.991
-140.001
-130.751
-134.713
-127.329
-209.747
-204.587
-149.052
-141.973
-235.084
-227.116
-232.567
-234.317
-232.506
-201.684
-216.862
-210.17
-214.733
-176.289
-186.479
-142.259
-77.6464
-75.1765
-209.308
-208.957
-139.154
-77.891
-73.4141
-91.5421
-234.693
-203.856
-183.212
-90.2324
-214.894
-207.646
-213.138
-175.609
-187.379
-186.359
-138.588
-210.49
-215.02
-185.686
-186.806
-212.861
-184.449
-186.342
-172.45
-178.004
-145.362
-153.822
-160.619
-204.681
-212.068
-183.115
-194.18
-175.063
-182.092
-145.382
-153.535
-155.802
-203.101
-215.633
-184.157
-198.857
-158.42
-146.326
-156.543
-171.118
-193.961
-192.071
-213.055
-215.82
-186.32
-184.849
-183.114
-186.621
-155.009
-146.619
-155.131
-140.083
-244.107
-238.685
-213.039
-231.16
-212.204
-235.886
-233.309
-185.818
-205.508
-204.851
-208.794
-204.207
-184.494
-157.765
-153.66
-153.982
-154.683
-154.185
-152.097
-110.892
-141.782
-107.563
-111.687
-239.703
-233.378
-242.606
-234.83
-240.456
-236.793
-240.111
-238.065
-242.431
-236.822
-212.949
-231.871
-213.207
-223.273
-213.411
-183.802
-196.409
-202.656
-219.985
-187.901
-211.628
-183.908
-146.695
-155.363
-158.196
-148.169
-154.109
-152.964
-140.483
-111.486
-103.507
-101.391
-105.602
-141.644
-110.066
-75.636
-77.8063
-73.252
-243.973
-239.983
-236.661
-248.075
-237.478
-241.869
-236.841
-245.538
-241.201
-213.698
-231.166
-209.945
-234.065
-232.555
-226.625
-232.383
-226.516
-211.228
-218.428
-183.156
-202.841
-217.676
-204.112
-216.241
-186.571
-145.485
-156.092
-174.878
-184.505
-151.617
-160.555
-147.462
-154.502
-182.656
-142.52
-111.017
-99.6641
-103.874
-100.859
-141.077
-110.03
-75.5165
-73.3911
-74.5162
-238.862
-221.859
-214.675
-235.052
-211.305
-185.917
-208.928
-205.731
-205.626
-204.705
-152.903
-161.644
-152.511
-152.561
-152.683
-110.517
-144.44
-112.201
-143.255
-212.62
-202.52
-192.613
-201.22
-215.684
-203.919
-163.581
-170.941
-163.64
-207.149
-215.862
-206.138
-196.13
-218.218
-189.559
-200.856
-199.771
-190.888
-205.769
-197.859
-216.489
-193.068
-198.193
-199.072
-194.411
-177.24
-176.344
-164.557
-163.905
-157.148
-148.48
-163.303
-155.394
-159.997
-213.558
-200.743
-194.753
-201.158
-214.584
-189.716
-192.705
-193.969
-179.805
-200.778
-170.377
-181.328
-178.403
-165.308
-166.138
-158.442
-148.343
-161.552
-154.304
-160.173
-201.858
-213.615
-189.611
-191.274
-195.6
-178.415
-200.03
-175.896
-164.569
-153.959
-165.892
-161.392
-165.961
-226.317
-226.72
-225.075
-227.943
-192.936
-215.446
-206.462
-171.715
-172.053
-178.471
-177.384
-175.984
-138.569
-146.686
-145.472
-129.241
-126.156
-147.838
-140.315
-140.158
-227.842
-229.971
-234.367
-225.073
-196.594
-205.795
-191.055
-220.347
-204.839
-175.742
-175.598
-165.387
-139.57
-151.005
-145.295
-129.944
-94.4876
-96.0609
-84.8245
-85.9365
-76.4772
-72.2477
-228.06
-226.982
-226.722
-223.624
-231.916
-201.692
-211.75
-206.915
-169.463
-126.426
-146.365
-85.64
-76.3368
-73.2808
-61.1846
-97.4658
-228.126
-228.325
-234.094
-228.431
-231.847
-231.521
-228.502
-226.633
-232.523
-189.948
-198.175
-229.109
-204.369
-176.785
-177.396
-140.147
-146.819
-138.886
-135.229
-144.004
-129.176
-98.0619
-176.165
-144.707
-218.734
-214.679
-201.596
-202.888
-176.229
-169.062
-173.455
-161.229
-153.569
-164.322
-156.414
-155.573
-152.224
-243.63
-239.713
-207.739
-209.071
-221.594
-226.876
-224.074
-225.437
-210.281
-220.638
-215.759
-223.663
-211.729
-218.288
-229.934
-224.578
-225.962
-224.722
-209.142
-215.173
-217.933
-222.503
-227.799
-232.545
-230.005
-231.548
-220.605
-209.825
-216.863
-232.422
-228.155
-232.567
-229.776
-211.095
-226.901
-231.013
-224.077
-216.08
-219.644
-215.389
-201.486
-196.269
-222.218
-201.345
-194.164
-194.201
-183.691
-185.247
-184.649
-195.26
-217.307
-205.714
-187.049
-186.048
-194.325
-187.228
-195.627
-213.793
-199.217
-185.715
-179.212
-177.703
-161.66
-164.935
-147.92
-177.796
-161.518
-166.6
-149.39
-172.715
-178.067
-163.094
-148.874
-176.96
-157.112
-162.703
-139.243
-139.004
-126.41
-127.561
-116.265
-117.325
-127.912
-117.414
-114.659
-104.686
-102.844
-101.944
-106.835
-137.996
-129.323
-116.867
-113.251
-105.863
-105.955
-101.266
-135.214
-139.835
-116.877
-245.899
-234.956
-240.925
-229.795
-234.108
-245.424
-226.263
-256.233
-235.123
-237.787
-236.542
-246.07
-236.966
-244.487
-256.478
-246.535
-234.999
-242.552
-220.371
-227.655
-238.41
-232.073
-212.738
-225.957
-218.279
-228.864
-224.5
-227.711
-224.732
-232.794
-218.855
-208.548
-213.958
-222.506
-231.921
-226.625
-225.629
-220.828
-191.743
-198.036
-184.933
-202.18
-213.155
-191.972
-198.18
-200.838
-203.314
-203.616
-212.174
-193.351
-171.394
-163.706
-158.78
-168.172
-176.68
-154.258
-156.016
-163.996
-171.517
-163.82
-156.589
-149.23
-106.33
-104.967
-103.034
-126.002
-116.784
-113.39
-105.449
-137.863
-142.051
-105.321
-103.678
-126.318
-106.044
-73.2175
-73.5497
-62.97
-80.914
-61.5347
-73.0938
-82.5508
-248.059
-235.33
-251.63
-241.629
-240.776
-232.43
-234.612
-226.411
-243.716
-251.421
-244.654
-235.503
-232.882
-230.906
-237.476
-237.581
-237.432
-220.473
-233.22
-217.56
-231.113
-232.795
-227.849
-206.858
-233.309
-222.529
-227.149
-225.103
-220.198
-225.005
-225.247
-213.555
-218.694
-214.684
-199.187
-213.258
-202.225
-192.8
-189.634
-178.957
-194.569
-216.176
-199.842
-200.919
-173.295
-155.989
-158.527
-169.349
-169.65
-159.892
-166.434
-166.558
-163.113
-156.609
-175.002
-176.27
-116.877
-113.656
-105.781
-139.488
-130.18
-105.51
-103.081
-126.887
-106.5
-138.048
-104.663
-62.5
-72.7457
-82.7018
-245.542
-227.968
-212.357
-224.678
-212.437
-211.873
-219.323
-232.017
-227.678
-226.066
-213.013
-218.692
-223.701
-220.733
-228.589
-225.847
-227.461
-224.919
-220.584
-209.871
-225.151
-218.349
-215.871
-203.685
-186.734
-197.479
-223.067
-200.888
-193.587
-184.858
-184.767
-194.844
-216.609
-185.321
-194.471
-215.924
-186.819
-160.336
-150.732
-173.574
-177.723
-172.965
-160.648
-167.56
-175.744
-157.361
-176.685
-157.453
-115.863
-139.595
-104.993
-103.402
-107.645
-138.268
-147.625
-127.758
-105.521
-107.299
-125.794
-138.727
)
;
    }
}


// ************************************************************************* //
