/*--------------------------------*- C++ -*----------------------------------*\
| =========                 |                                                 |
| \\      /  F ield         | OpenFOAM: The Open Source CFD Toolbox           |
|  \\    /   O peration     | Version:  v1906                                 |
|   \\  /    A nd           | Web:      www.OpenFOAM.com                      |
|    \\/     M anipulation  |                                                 |
\*---------------------------------------------------------------------------*/
FoamFile
{
    version     2.0;
    format      ascii;
    class       volScalarField;
    location    "52";
    object      omega;
}
// * * * * * * * * * * * * * * * * * * * * * * * * * * * * * * * * * * * * * //

dimensions      [0 0 -1 0 0 0 0];


internalField   nonuniform List<scalar> 
78750
(
1249.24
202.897
155.521
114.515
70.1989
14.1374
23.7103
20.1225
19.6536
19.4441
19.3628
19.3533
19.3716
19.3845
19.3762
19.3451
19.2947
19.2296
19.1535
19.0702
18.9819
18.8892
18.792
18.6894
18.5803
18.4624
18.3331
18.1886
18.0242
17.8329
17.6023
17.3114
16.9276
16.4307
498.878
432.314
14.6642
11.4947
8.61616
9.01679
14.4461
12.9945
12.4259
12.0532
12.2729
12.4318
12.4959
12.507
12.4982
12.4798
12.4536
12.4194
12.3767
12.3249
12.264
12.1949
12.1187
12.0361
11.9483
11.8556
11.7575
11.6519
11.5349
11.3993
11.2329
11.0149
10.7044
10.1738
9.13148
738.639
430.053
18.796
18.2221
14.768
11.2339
10.0968
10.742
10.9846
11.0915
11.1195
11.1553
11.2028
11.2665
11.3404
11.4185
11.4991
11.5823
11.6685
11.7574
11.8481
11.9394
12.0298
12.1177
12.2015
12.2791
12.3479
12.4042
12.4435
12.4596
12.4443
12.382
12.2331
11.8788
11.22
742.781
398.518
7.06212
11.6205
14.1448
14.5565
13.4023
11.7469
10.224
9.69665
9.88229
10.2007
10.467
10.6723
10.8489
11.0159
11.1774
11.3342
11.4872
11.6373
11.7858
11.9335
12.0807
12.2271
12.3711
12.5105
12.6415
12.7591
12.8568
12.9257
12.9532
12.9146
12.7523
12.3607
12.0583
746.188
415.448
17.3901
17.3224
16.5197
15.7039
15.1473
14.5125
13.0454
11.4161
10.6103
10.5096
10.5416
10.6023
10.6797
10.769
10.8718
10.9894
11.1212
11.2658
11.4219
11.5883
11.7642
11.9485
12.1396
12.3353
12.5323
12.7268
12.9135
13.0858
13.2336
13.3365
13.34
13.1395
13.1477
749.18
420.991
13.4097
11.8079
10.0847
8.44884
7.73299
7.87925
8.70437
9.39029
9.66042
9.86797
10.0878
10.2792
10.4436
10.5888
10.724
10.856
10.9931
11.1396
11.2974
11.4673
11.6494
11.8432
12.048
12.2618
12.4818
12.7036
12.9222
13.1309
13.32
13.4686
13.5207
13.4379
13.954
751.889
415.672
17.0629
17.3625
17.1064
16.6048
15.8818
14.9274
13.7986
12.7169
11.8404
11.0298
10.3745
9.94962
9.79177
9.85596
10.0594
10.3103
10.5405
10.7289
10.8923
11.0583
11.242
11.4477
11.6718
11.9104
12.1611
12.4212
12.6865
12.9508
13.2113
13.4662
13.7125
14.0155
14.9566
754.25
406.499
14.1836
15.9448
16.9759
17.6429
18.0833
18.2971
18.2443
17.9065
17.3305
16.5771
15.6466
14.5234
13.2255
11.8242
10.4808
9.42929
8.97855
9.15489
9.73459
10.321
10.708
10.9557
11.185
11.4486
11.7455
12.0624
12.3896
12.7202
13.0491
13.3605
13.6028
13.9252
15.3502
756.336
406.857
14.11
15.8564
16.6251
16.9413
17.0467
17.0625
17.0492
17.0447
17.0958
17.2424
17.4113
17.4167
17.1222
16.5023
15.5801
14.3587
12.881
11.2007
9.66737
8.89314
9.1006
9.78172
10.3279
10.6744
10.9628
11.2807
11.6498
12.0653
12.5319
13.0824
13.7971
14.7737
16.4892
758.648
421.833
18.2649
18.7954
18.8569
18.7925
18.634
18.3429
17.8388
17.0186
15.9099
14.8742
14.4627
14.7258
15.1656
15.4731
15.5824
15.391
14.7658
13.6767
12.1827
10.4467
9.08325
8.66863
9.14155
9.90241
10.4565
10.8349
11.1659
11.5266
11.9413
12.4207
13.0917
14.4547
16.7573
760.492
423.95
17.8178
18.1449
18.3072
18.4145
18.4805
18.5036
18.4741
18.3534
18.0205
17.3065
16.277
15.357
14.8773
14.7635
14.7997
14.8549
14.8487
14.6357
14.0085
12.8584
11.2487
9.48336
8.3397
8.19787
8.72681
9.39411
9.99642
10.5906
11.2731
12.1273
13.2574
15.0855
17.7108
762.813
419.112
17.1323
17.9537
18.2574
18.3607
18.3199
18.1387
17.8294
17.4518
17.1037
16.8246
16.5351
16.1456
15.6823
15.2581
14.9626
14.7955
14.7014
14.6171
14.46
14.0638
13.1576
11.5445
9.46579
8.02652
7.83129
8.3131
8.88597
9.42368
10.1124
11.2259
12.8639
15.3843
18.3239
764.004
420.658
18.4677
19.3151
19.5898
19.6856
19.6724
19.552
19.3106
18.9402
18.4322
17.7397
16.8767
16.0762
15.5756
15.3204
15.1447
14.976
14.812
14.661
14.5172
14.3502
14.0824
13.5166
12.3338
10.5646
8.92983
8.13805
8.06152
8.30303
8.76316
9.94079
12.5929
16.1028
19.1247
765.374
428.565
18.7657
18.8832
18.828
18.6865
18.4361
18.0311
17.4522
16.8684
16.6022
16.5871
16.4159
15.9628
15.5311
15.3178
15.2194
15.1378
15.0508
14.9525
14.8364
14.6944
14.5014
14.1836
13.5479
12.276
10.4371
8.82615
8.03207
7.82553
7.90375
8.58503
11.2847
15.9842
19.4493
766.64
432.989
19.2743
19.2937
19.2358
19.0531
18.6607
17.9298
16.7454
15.3259
14.4428
14.4848
14.8446
15.0827
15.1679
15.175
15.1542
15.1194
15.0708
15.0056
14.9179
14.7977
14.6243
14.3473
13.8341
12.7679
10.7351
7.82557
5.10282
4.26601
5.27777
7.463
11.7336
16.7986
20.2382
768.206
429.55
18.8414
19.1908
19.3534
19.3984
19.2862
18.9394
18.2582
17.227
16.1479
15.5375
15.4269
15.4987
15.5726
15.6048
15.6003
15.5717
15.5259
15.4656
15.389
15.2911
15.1618
14.9809
14.7014
14.2025
13.2022
11.4072
9.04082
6.73335
5.10959
5.42079
10.7161
16.9379
20.5576
768.829
423.491
17.9175
18.4884
18.7663
18.9539
19.0687
19.0772
18.9008
18.3914
17.3916
16.0583
15.0112
14.6265
14.7338
14.9851
15.2068
15.3665
15.4734
15.54
15.5738
15.5778
15.5536
15.4975
15.3939
15.1982
14.7851
13.851
12.1355
9.78562
7.16821
5.07867
9.87057
16.9835
20.8501
770.096
424.304
18.5423
19.2231
19.523
19.7084
19.8347
19.9097
19.9187
19.8029
19.4017
18.4353
16.8522
15.1997
14.2164
14.0799
14.3648
14.6942
14.9518
15.1377
15.2689
15.356
15.4008
15.3964
15.3271
15.1506
14.7617
13.9336
12.454
10.3441
7.83626
5.06591
8.95258
16.9814
21.1694
771.773
423.622
18.0621
18.6939
18.9679
19.1112
19.172
19.1626
19.0997
19.0142
18.9109
18.6897
18.0536
16.6569
14.8109
13.4637
13.1654
13.4831
13.8745
14.1727
14.3773
14.5063
14.5667
14.5487
14.4247
14.1471
13.6342
12.7618
11.478
9.84007
7.96925
6.08211
9.57374
17.4426
21.6995
773.473
426.231
18.7217
19.3419
19.6425
19.8286
19.9407
19.9803
19.9359
19.7955
19.577
19.3297
19.0378
18.4777
17.2035
15.1384
13.1283
12.3369
12.6113
13.0697
13.3783
13.5318
13.5626
13.489
13.3083
12.9955
12.5073
11.792
10.8443
9.72331
8.46274
7.15928
10.133
17.8314
22.1065
774.459
426.161
18.5637
19.1045
19.3654
19.5272
19.628
19.6688
19.637
19.5156
19.2951
18.9987
18.6994
18.4363
18.0711
17.1731
15.2439
12.8221
11.5048
11.7493
12.2911
12.6001
12.7047
12.6688
12.5222
12.2721
11.9097
11.422
10.812
10.1145
9.3396
8.69975
11.5258
18.4279
22.5559
775.438
429.723
19.1642
19.5427
19.7371
19.8641
19.9457
19.983
19.9703
19.8976
19.7471
19.4846
19.0883
18.6203
18.1875
17.768
17.0699
15.4869
12.8983
10.7622
10.6791
11.3108
11.6704
11.7863
11.7599
11.6406
11.4429
11.1654
10.8051
10.3714
9.85905
9.50619
12.3314
18.8572
22.9009
776.296
429.404
19.0675
19.4472
19.6377
19.7519
19.8068
19.7965
19.7133
19.567
19.3906
19.2115
19.0088
18.7193
18.3098
17.8364
17.3503
16.7134
15.4385
12.8985
10.0054
9.48173
10.3616
10.8922
11.0769
11.0887
11.0162
10.8921
10.7202
10.503
10.2698
10.471
13.6649
19.5491
23.3926
777.466
432.042
19.6065
19.8782
20.0175
20.1061
20.1541
20.1553
20.1007
19.9832
19.7993
19.5619
19.3044
19.0407
18.7369
18.3455
17.8646
17.3259
16.6701
15.5654
13.3092
10.0654
8.57687
9.34734
10.0603
10.3986
10.5062
10.4873
10.4039
10.2914
10.199
10.6325
14.0913
19.9015
23.7001
778.307
431.167
19.3937
19.6367
19.7351
19.7706
19.7504
19.6715
19.5514
19.4289
19.3256
19.2278
19.1111
18.9644
18.7846
18.5556
18.2479
17.8391
17.3236
16.6531
15.5823
13.4919
10.0527
7.63869
8.02718
8.8252
9.32797
9.61365
9.76494
9.8603
10.0524
11.0918
14.9979
20.4884
24.1696
779.547
434.205
20.1258
20.2547
20.2796
20.254
20.1701
20.0171
19.819
19.6237
19.4655
19.3558
19.2781
19.1986
19.0887
18.9319
18.7173
18.4331
18.0643
17.5831
16.9092
15.7881
13.6203
10.006
7.27078
7.50752
8.30068
8.77691
9.03707
9.21061
9.48691
10.7594
15.1521
20.7558
24.4358
780.311
433.736
19.8901
19.9904
19.9784
19.8979
19.7329
19.4776
19.1985
18.9757
18.8369
18.7871
18.8161
18.8848
18.9435
18.9525
18.8888
18.7424
18.5076
18.1732
17.7033
16.986
15.7181
13.2465
9.20286
5.76347
5.88433
7.12634
7.98571
8.55573
9.19095
10.9606
15.722
21.1863
24.8229
781.524
437.003
20.5359
20.5513
20.4792
20.3249
20.0514
19.6439
19.205
18.8607
18.641
18.5427
18.5628
18.678
18.8332
18.9679
19.041
19.0328
18.9335
18.7342
18.4186
17.9408
17.1619
15.7442
13.1249
9.43085
6.59093
6.08228
6.73871
7.48386
8.35565
10.5005
15.6609
21.4224
25.1219
782.472
436.345
20.3321
20.4162
20.3786
20.2222
19.8899
19.3438
18.706
18.1778
17.8222
17.6422
17.6516
17.8356
18.1205
18.4112
18.6441
18.7913
18.8434
18.7939
18.6318
18.3301
17.8157
16.8766
15.0895
12.1382
8.73588
6.58152
6.28983
6.8816
7.96429
10.7194
16.137
21.6918
25.3958
783.492
438.471
20.8254
20.9133
20.8922
20.7498
20.4176
19.8166
19.0085
18.2353
17.6164
17.1498
16.8857
16.8965
17.1514
17.508
17.8383
18.0818
18.2188
18.234
18.0972
17.7452
17.0603
15.8599
13.9487
11.2426
8.36514
6.61912
6.33927
6.78383
7.70591
10.6799
16.8073
22.3262
25.9018
784.544
436.38
20.5215
20.7778
20.8682
20.8211
20.5768
20.036
19.1779
18.2197
17.3787
16.6465
16.0084
15.5864
15.5157
15.7303
16.0159
16.2277
16.3051
16.2127
15.9164
15.3706
14.5166
13.3193
11.7716
9.97777
8.40676
7.53642
7.34718
7.5447
7.94653
9.77351
15.9151
21.844
25.6349
784.895
437.118
20.9263
21.2475
21.4
21.4369
21.314
20.9318
20.1867
19.1728
18.1977
17.3602
16.5335
15.6475
14.8452
14.4033
14.3465
14.431
14.458
14.3178
13.9642
13.378
12.5712
11.5995
10.5307
9.50883
8.76431
8.40466
8.3739
8.68635
9.63611
11.1031
16.5265
22.6684
26.7609
789.196
435.347
20.6293
21.0581
21.2958
21.4306
21.4387
21.2373
20.7091
19.8032
18.7432
17.8539
17.1539
16.4595
15.6133
14.6224
13.7678
13.3345
13.2037
13.0854
12.8147
12.3251
11.6226
10.787
9.90508
9.08001
8.45704
8.16867
8.37669
9.55804
12.6734
16.93
20.1923
24.1912
27.3444
786.222
437.295
21.0685
21.4138
21.6212
21.7656
21.8348
21.7634
21.4462
20.7751
19.7715
18.7109
17.842
17.1509
16.4878
15.6979
14.6907
13.605
12.8182
12.431
12.1989
11.9069
11.4621
10.8616
10.1481
9.36779
8.58985
7.94408
7.70351
8.39699
10.8967
16.2566
21.6279
24.3123
26.5418
782.096
438.018
20.9955
21.2278
21.3848
21.5085
21.5902
21.5841
21.4195
21.0167
20.327
19.4346
18.5528
17.8045
17.1565
16.5061
15.7335
14.7375
13.586
12.6084
12.0234
11.6936
11.4036
11.0348
10.5464
9.92797
9.17845
8.3299
7.59595
8.06143
11.4049
16.7771
22.1633
25.1409
27.4376
783.849
441.258
21.4898
21.552
21.6206
21.6904
21.7449
21.7446
21.6345
21.3599
20.8841
20.2189
19.4613
18.7312
18.0682
17.4363
16.7639
15.957
14.9319
13.7402
12.65
11.9051
11.4576
11.1216
10.7582
10.2825
9.63064
8.77046
7.8878
8.07987
10.2528
15.2685
23.0134
25.9586
27.5144
777.537
440.973
21.2741
21.295
21.3311
21.3767
21.4364
21.4851
21.4729
21.3554
21.1017
20.7009
20.1747
19.5831
18.985
18.3981
17.8014
17.1434
16.3554
15.3776
14.2604
13.2298
12.4801
12.0081
11.7156
11.507
11.316
11.1154
10.9393
9.07948
5.28392
6.69429
11.7813
18.1227
22.0175
777.307
441.207
21.5717
21.5962
21.5689
21.529
21.536
21.5905
21.6242
21.5874
21.4508
21.198
20.8276
20.3583
19.824
19.2524
18.6488
17.9912
17.2272
16.2737
15.0752
13.7686
12.6266
11.796
11.2267
10.8145
10.4992
9.98603
8.63367
7.88955
8.48721
7.64209
10.8963
19.2227
26.1681
798.612
439.397
21.7097
21.7687
21.6415
21.442
21.3567
21.4379
21.5473
21.607
21.5915
21.4826
21.265
20.9337
20.4973
19.973
19.3714
18.6806
17.8521
16.7975
15.4147
13.7202
11.8527
10.049
8.43517
7.14888
7.59171
11.6668
17.7942
22.8025
24.6304
23.1545
22.687
26.4909
29.9022
791.992
441.931
22.7592
22.664
22.2787
21.7269
21.4431
21.5696
21.7774
21.9048
21.9435
21.9129
21.8175
21.6496
21.4017
21.0728
20.669
20.1959
19.6482
19.0049
18.2291
17.2673
16.082
14.7372
13.3995
12.1552
10.8219
9.38307
9.56953
14.1233
19.1386
23.2435
26.1798
27.5686
28.0645
768.933
446.115
23.6739
23.2645
22.4865
21.3556
20.8262
21.1977
21.7151
22.062
22.2263
22.257
22.1968
22.0666
21.8711
21.6094
21.2805
20.8842
20.4162
19.8641
19.2063
18.4034
17.4084
16.2084
14.8723
13.4476
12.0827
11.2296
9.59913
8.26914
9.69381
10.9117
15.7575
21.8457
24.8093
779.094
454.728
24.6059
23.6796
22.4293
20.6125
19.9032
20.7406
21.6654
22.2735
22.615
22.7619
22.7704
22.6811
22.5154
22.2801
21.9748
21.5959
21.1337
20.5688
19.8662
18.9599
17.7423
16.149
14.1414
11.6354
9.39973
10.7715
16.2922
18.0061
16.6349
11.2554
13.5672
22.8246
28.4653
802.214
459.208
24.3472
23.0735
21.5368
19.2135
18.07
19.4273
20.9084
21.8938
22.5263
22.9144
23.1146
23.1704
23.1188
22.9858
22.7857
22.5247
22.2004
21.8014
21.3059
20.6725
19.8457
18.7779
17.4413
15.6049
12.059
9.18275
16.2791
22.5757
22.182
19.0196
20.4615
25.3284
29.2173
792.918
458.579
24.0846
23.014
21.6436
19.3374
16.5563
17.273
19.3869
20.9103
21.914
22.5876
23.0208
23.259
23.3374
23.2862
23.1285
22.8804
22.5502
22.1395
21.6452
21.0552
20.3448
19.4732
18.4113
17.1968
15.0556
10.3428
12.6703
22.6023
26.0461
26.114
27.0035
28.5606
29.3822
773.019
454.99
24.2475
23.6235
22.6021
20.6363
16.4427
13.782
16.247
18.7084
20.3966
21.5542
22.3746
22.9479
23.3171
23.5098
23.5486
23.4495
23.2181
22.849
22.3298
21.6452
20.7893
19.7585
18.5799
17.6383
17.8254
17.2531
15.3705
18.0369
22.7694
25.6538
27.6126
28.9061
28.9028
767.785
455.853
24.6293
24.147
23.3867
21.9674
18.9295
13.7306
13.3946
15.662
17.8461
19.5573
20.8438
21.815
22.5434
23.0775
23.4452
23.6683
23.7631
23.7388
23.595
23.3147
22.8669
22.2225
21.35
20.1394
18.5667
18.3626
18.5149
18.3857
19.5313
21.5335
23.4385
24.5954
24.576
767.213
455.067
24.1952
23.9493
23.6491
23.0368
21.7412
18.8039
15.2095
13.8987
14.6159
16.3511
18.1977
19.7332
20.9175
21.8156
22.4752
22.9402
23.245
23.4237
23.5138
23.552
23.5801
23.5985
23.4133
22.758
21.321
19.9843
20.3041
20.706
20.8309
21.0727
21.1031
20.5765
21.2096
774.002
452.116
24.2171
24.5056
24.737
24.8736
24.7761
24.0617
21.5745
17.8348
14.2816
12.6009
13.784
16.136
18.2515
19.8898
21.1009
21.9415
22.4472
22.6751
22.701
22.6317
22.6716
23.0932
23.7458
24.1025
23.8395
23.363
23.403
23.3982
22.9715
22.0623
20.7111
20.743
23.6253
785.487
448.396
24.1275
24.6214
24.9035
25.1221
25.3285
25.4837
25.303
23.7472
20.1367
14.7122
9.97189
10.5387
13.6518
16.494
18.8042
20.627
21.9129
22.676
23.0016
22.991
22.7303
22.3443
22.1225
22.366
23.0784
24.3309
25.4336
25.5694
24.9372
23.5302
22.1287
23.1008
26.2557
789.154
449.297
24.1954
24.5433
24.6591
24.6404
24.5386
24.4426
24.4625
24.4559
23.5843
20.2219
13.4282
8.9516
11.1047
14.659
17.6492
20.0104
21.8241
23.0934
23.8525
24.138
24.0099
23.5408
22.8468
22.1946
22.1859
23.7142
26.0135
26.8565
26.479
25.3717
24.4769
25.1412
27.0975
784.685
451.618
24.4625
24.7542
24.9116
24.9577
24.8672
24.5919
24.1275
23.6376
23.1267
21.7362
16.6968
9.41861
11.182
16.3007
20.6387
23.5666
25.1184
25.8431
26.1357
26.1349
25.8606
25.2984
24.464
23.4622
22.6296
22.8974
24.9766
26.932
27.4299
26.9814
26.462
26.5575
27.3064
780.274
455.242
25.0695
25.2264
25.3355
25.3879
25.3591
25.1972
24.826
24.2375
23.6079
22.8434
20.3852
11.9627
8.82003
14.1633
19.5168
23.4295
25.6143
26.6073
27.043
27.1792
27.0574
26.64
25.8926
24.8765
23.8136
23.1496
23.6987
25.4855
27.035
27.5802
27.5916
27.5915
27.8283
780.236
456.886
25.0358
25.016
25.0419
25.0523
25.0162
24.8886
24.5812
23.9633
23.0641
22.1495
21.1017
16.4251
9.61949
10.749
14.4512
18.609
22.5155
25.2879
26.7172
27.3539
27.5801
27.4843
27.0179
26.1317
24.9928
24.0407
23.7115
24.3612
25.7409
26.9453
27.5589
27.8393
28.1714
781.978
458.894
25.1295
24.943
24.8418
24.7249
24.5599
24.3485
24.1051
23.7204
22.9007
21.3859
19.3045
16.7141
12.3951
12.7404
14.7308
16.8687
19.4696
22.3509
24.9041
26.6398
27.5893
27.9831
27.9102
27.3337
26.2838
25.1349
24.3892
24.2589
24.7973
25.7538
26.6035
27.2042
27.9793
783.567
459.805
25.283
25.0798
24.947
24.7646
24.4637
24.0072
23.4739
23.0013
22.4718
21.4035
19.3006
17.2124
15.4683
15.3294
16.1095
16.9148
17.9254
19.3952
21.3588
23.5352
25.5583
27.131
28.0556
28.2448
27.7264
26.7252
25.683
24.9598
24.7112
25.0063
25.7003
26.5048
27.7134
784.083
460.286
25.3188
24.9907
24.7748
24.5447
24.236
23.801
23.1984
22.4559
21.6663
20.7331
19.3687
18.2444
18.3979
18.5523
18.7653
18.9189
19.028
19.1703
19.4989
20.1973
21.4054
23.139
25.1802
26.9744
27.8842
27.7992
27.1119
26.2272
25.463
25.1337
25.4612
26.2168
27.499
783.181
460.958
25.2362
24.7529
24.4109
24.0372
23.5695
23.0755
22.6635
22.1844
21.4514
20.3992
19.1083
18.5503
19.7704
20.6822
21.1876
21.4612
21.5643
21.516
21.3386
21.0878
20.8911
20.995
21.7707
23.4832
25.6632
27.1088
27.4212
27.0235
26.2989
25.6877
25.7029
26.2978
27.4791
783.203
462.666
25.4157
24.8929
24.5191
24.0666
23.4054
22.5637
21.855
21.4029
20.9714
20.28
19.2061
18.6643
20.177
21.5908
22.5222
23.167
23.6173
23.8772
23.9232
23.7363
23.3273
22.767
22.2543
22.2587
23.4564
25.5383
26.9243
27.2388
26.8829
26.3478
26.2422
26.685
27.73
783.967
463.547
25.2823
24.7013
24.2987
23.8116
23.0933
22.1129
21.087
20.2293
19.5547
19.0108
18.5696
18.7276
20.5243
22.1169
23.2574
24.1792
24.9436
25.4945
25.7736
25.7675
25.4877
24.9484
24.1907
23.4029
23.2263
24.5479
26.4748
27.4684
27.5704
27.2879
27.1532
27.3721
28.0921
783.532
463.203
25.0751
24.5126
24.084
23.5248
22.6922
21.5915
20.4502
19.3513
18.2776
17.595
18.0731
19.566
21.3204
22.6463
23.7565
24.8278
25.7977
26.5178
26.924
27.0403
26.8978
26.5008
25.8395
24.9593
24.1995
24.5015
26.1266
27.4811
28.0125
28.0349
27.9583
28.0132
28.4303
783.456
460.413
24.8363
24.4308
24.0564
23.5058
22.6245
21.3643
19.9971
18.7172
17.4369
16.5965
17.5321
19.7661
21.2943
22.397
23.5083
24.7477
25.9583
26.8853
27.4391
27.6787
27.6657
27.4158
26.9108
26.1413
25.2571
24.9355
25.982
27.2942
27.9573
28.1789
28.2297
28.3323
28.8087
785.44
457.992
24.8458
24.566
24.265
23.8155
23.0876
21.9638
20.5777
19.2156
17.8092
16.3492
15.9129
17.8145
19.6631
20.8546
21.9966
23.372
24.9255
26.3217
27.2529
27.7269
27.8747
27.7618
27.381
26.687
25.6928
24.8525
25.4569
27.2281
28.15
28.4578
28.562
28.7173
29.2614
786.12
456.213
24.7874
24.5583
24.2958
23.9253
23.3627
22.5216
21.4555
20.4105
19.3793
18.0376
16.1948
15.3577
17.1817
18.7339
19.9109
21.1323
22.6666
24.4735
26.1237
27.1925
27.6948
27.8067
27.5977
27.0267
25.9998
24.6482
24.2299
26.2641
28.2361
28.9317
29.1486
29.2727
29.5523
782.921
455.11
24.8031
24.553
24.258
23.8728
23.3339
22.6063
21.76
20.959
20.2637
19.5062
18.3684
16.5416
15.5165
16.7106
18.0265
19.1231
20.2837
21.7971
23.7213
25.6382
26.9495
27.5513
27.6676
27.3838
26.63
25.3181
23.955
24.5029
26.9241
28.4394
29.0631
29.3306
29.4244
779.509
455.758
25.0272
24.6434
24.2431
23.7629
23.1265
22.3642
21.7079
21.2781
20.9856
20.6925
20.2638
19.4736
17.8821
16.3288
16.3917
17.3548
18.3855
19.4502
20.8487
22.7938
25.0276
26.7739
27.6163
27.808
27.5261
26.7405
25.466
24.4923
25.217
26.766
27.7865
28.3181
28.6349
780.124
458.922
25.3495
24.7156
24.1588
23.5245
22.676
21.6777
21.0131
20.9639
21.2462
21.5491
21.7197
21.6868
21.3455
20.3031
18.3094
16.7415
16.7914
17.6986
18.7178
19.933
21.6823
24.0212
26.2202
27.487
27.9458
27.854
27.2656
26.2783
25.5076
25.6528
26.349
27.0359
27.9085
784.29
463.316
25.5107
24.5501
23.7906
22.9123
21.6893
20.283
19.5115
19.7822
20.6192
21.5212
22.2818
22.839
23.1577
23.207
22.8501
21.5569
19.2097
17.9066
18.0595
18.7727
19.7891
21.3799
23.7254
26.0631
27.4796
28.0722
28.1042
27.6356
26.7634
26.0605
26.1894
26.8669
28.126
788.322
468.405
25.5505
24.3145
23.3582
22.1318
20.2901
18.2385
17.4356
18.2714
19.7296
21.1425
22.2991
23.1683
23.764
24.0891
24.1322
23.7927
22.6384
20.8969
19.8795
19.7356
20.0422
20.7397
22.1784
24.5186
26.7388
27.9779
28.4213
28.2785
27.5899
26.7624
26.694
27.32
28.6431
790.275
470.735
25.1893
23.9191
22.8595
21.2551
18.6503
15.7038
14.932
16.9658
19.4951
21.6247
23.2434
24.379
25.1048
25.483
25.5403
25.1818
24.1211
22.562
21.6042
21.285
21.2313
21.3755
21.9544
23.4293
25.639
27.4288
28.3128
28.4597
27.9912
27.3282
27.3031
27.8701
29.0935
790.162
466.812
24.5934
23.6583
22.6459
20.8252
17.6909
13.9394
13.5048
17.4554
21.2276
23.7095
25.19
26.0113
26.3855
26.3789
26.0713
25.6162
25.0963
24.5446
24.0487
23.6384
23.2958
23.0532
23.0861
23.8
25.4442
27.2771
28.3958
28.7413
28.5099
28.1152
28.1043
28.463
29.2952
786.676
459.233
24.3128
23.8424
23.1282
21.7085
19.0775
15.5262
14.6818
18.9236
23.1553
25.3909
26.3017
26.7143
26.9181
26.9803
26.9128
26.7395
26.4905
26.1763
25.8039
25.3761
24.9015
24.4239
24.0958
24.2825
25.4093
27.193
28.5662
29.1117
29.1182
28.9229
28.8397
28.9178
29.2215
781.987
455.229
24.4741
24.3199
24.1729
23.8272
22.7732
20.0539
15.078
10.5989
13.0786
17.7607
21.2045
23.6982
25.2448
26.1539
26.6973
26.9702
27.0396
26.9574
26.753
26.4336
26.0028
25.4751
24.9163
24.5424
24.8054
26.0607
27.7451
28.7843
29.1032
29.1289
29.0824
29.0589
29.1263
780.084
454.16
24.2648
24.0954
23.9576
23.8181
23.6816
23.3343
21.8394
17.3549
8.99235
7.27104
5.09997
12.1176
19.1834
22.7973
24.7785
26.0096
26.7884
27.2133
27.3564
27.274
26.9934
26.5263
25.8944
25.1779
24.6236
24.7454
25.9629
27.6102
28.4767
28.7539
28.8412
28.8961
29.0531
780.979
454.417
24.3164
24.1356
23.9373
23.6115
23.0821
22.4007
21.7325
20.733
17.8535
11.7744
4.88383
8.16453
9.41494
15.9781
20.9017
23.441
24.9211
26.0108
26.8568
27.3982
27.6063
27.5059
27.1199
26.4556
25.5512
24.6313
24.3724
25.5986
27.4126
28.2851
28.6487
28.864
29.1498
781.478
454.564
24.3571
24.2127
24.1195
23.9808
23.6899
23.0792
22.005
20.4976
18.6011
15.9852
12.3919
7.72319
7.90525
5.48314
8.55942
16.1871
21.3957
23.7908
25.1216
26.0988
26.871
27.3676
27.5195
27.3097
26.726
25.753
24.5737
24.1486
25.6578
27.4059
28.2699
28.7479
29.1369
780.739
455.432
24.289
24.0469
23.8984
23.7203
23.4417
23.0043
22.3373
21.3388
19.8195
17.4293
14.1869
11.5713
9.7232
7.03969
6.13701
5.04871
8.52168
17.6878
22.5579
24.8209
26.0397
26.8528
27.3921
27.6174
27.478
26.9274
25.9223
24.7164
24.5705
26.0635
27.3293
28.0791
28.6831
781.241
455.333
24.2195
24.0078
23.8996
23.7654
23.5174
23.0611
22.3377
21.36
20.1878
18.7593
16.807
14.4247
12.6606
11.7698
10.7605
8.76344
4.84359
9.60523
12.0077
19.6043
24.0365
26.1482
27.2614
27.8733
28.1121
27.9811
27.4386
26.4493
25.386
25.411
26.379
27.2754
28.2589
784.141
454.935
24.1325
23.915
23.8053
23.6833
23.4847
23.1493
22.6173
21.8375
20.7789
19.4451
17.9111
16.3
14.9537
14.138
13.7247
13.4124
12.8117
11.4126
9.34027
9.7986
15.7715
21.8913
25.2497
26.9969
27.918
28.3209
28.2901
27.8034
26.8511
25.9942
26.2393
27.1128
28.439
787.567
455.181
24.1176
23.8762
23.753
23.6153
23.3945
23.0416
22.5416
21.8883
21.04
19.931
18.5449
17.0457
15.8569
15.2561
15.0999
15.1616
15.3003
15.2849
14.6732
13.1361
11.7456
15.3738
21.2824
24.9131
26.901
27.9586
28.4102
28.3434
27.7337
26.8784
26.85
27.6216
28.97
788.904
455.421
24.0788
23.8114
23.6786
23.5385
23.3227
22.9845
22.5089
21.9049
21.1665
20.2367
19.0206
17.5338
16.1381
15.3373
15.184
15.4741
16.1116
16.9251
17.3765
16.9826
15.5836
14.4187
17.81
22.6251
25.7192
27.4453
28.3048
28.5439
28.2286
27.6756
27.6986
28.2914
29.3485
787.569
455.497
24.0114
23.7166
23.566
23.4105
23.1859
22.859
22.4202
21.8641
21.1793
20.3412
19.2952
17.9819
16.5356
15.4213
14.9695
15.1396
15.9423
17.3459
18.662
19.169
18.7151
17.4205
17.0021
20.3286
24.0592
26.5195
27.9145
28.5264
28.5333
28.2756
28.323
28.6891
29.3714
785.27
455.51
23.9608
23.6371
23.4655
23.2922
23.0598
22.753
22.3754
21.9167
21.3462
20.6214
19.69
18.4952
17.069
15.716
14.8567
14.6312
15.1369
16.648
18.6705
20.0415
20.4326
19.9399
18.8177
19.1646
22.1476
25.0857
27.0683
28.1708
28.6007
28.6558
28.742
28.9566
29.3916
784.442
455.557
23.8951
23.5321
23.3326
23.1332
22.8788
22.5665
22.2103
21.8048
21.3213
20.7191
19.9456
18.9352
17.6498
16.2394
15.087
14.4623
14.4754
15.5502
17.8485
19.9562
21.0747
21.282
20.6864
19.8881
21.0756
23.7734
26.09
27.5986
28.4024
28.7398
28.9166
29.095
29.4464
784.518
455.36
23.8128
23.4289
23.2125
22.9988
22.7403
22.4456
22.1288
21.778
21.3625
20.8466
20.188
19.3311
18.2139
16.8653
15.5499
14.6073
14.2039
14.7037
16.8631
19.5487
21.2389
21.9493
21.8602
21.1794
21.2197
23.1126
25.4554
27.2084
28.2649
28.8039
29.0773
29.274
29.6055
784.836
455.1
23.7528
23.3419
23.1003
22.8631
22.591
22.3049
22.0214
21.7245
21.3798
20.9511
20.4012
19.6851
18.7439
17.5404
16.2017
15.0437
14.3052
14.2459
15.8071
19.0151
21.3494
22.452
22.6788
22.2582
21.9121
22.9568
25.0016
26.8271
28.0311
28.6998
29.0528
29.2913
29.6561
785.236
455.196
23.7265
23.2676
22.9926
22.7302
22.4507
22.1764
21.9131
21.6469
21.3499
20.9912
20.5391
19.9576
19.1991
18.2108
17.0085
15.796
14.8422
14.3132
14.794
17.6468
21.0919
22.9771
23.6521
23.5364
23.1266
23.4661
24.9361
26.6332
27.8844
28.6276
29.0456
29.344
29.7954
785.988
455.571
23.6988
23.1679
22.8466
22.5544
22.2829
22.0505
21.8309
21.5989
21.334
21.0167
20.6269
20.1408
19.5264
18.7436
17.7758
16.7134
15.7666
15.0915
14.7896
15.6686
19.0273
22.1473
23.8087
24.3817
24.3317
24.3642
25.1891
26.5687
27.7932
28.5917
29.0736
29.4306
29.9269
785.889
456.444
23.6704
23.0321
22.6422
22.3017
22.0316
21.8388
21.6598
21.4563
21.2096
20.9061
20.5331
20.0763
19.5141
18.8173
17.9775
17.0768
16.29
15.7759
15.6337
15.8032
17.2575
20.2553
22.779
24.225
24.8389
25.0998
25.6134
26.6216
27.7269
28.5507
29.0857
29.4769
29.9506
785.6
457.198
23.5529
22.8061
22.3468
21.9619
21.7143
21.577
21.4351
21.2422
20.9858
20.6587
20.253
19.7579
19.1535
18.4063
17.5067
16.5752
15.8567
15.5962
16.0718
16.9783
18.2629
20.4817
22.787
24.3877
25.2887
25.7817
26.2296
26.9199
27.7616
28.4685
28.9585
29.3262
29.8227
786.875
457.45
23.3644
22.5296
22.0048
21.5721
21.3461
21.2669
21.1634
20.9769
20.6979
20.3224
19.8458
19.2584
18.5345
17.6239
16.5229
15.4533
14.8449
15.3192
17.266
19.4478
21.2859
23.0601
24.5427
25.5548
26.1782
26.5761
26.9546
27.5047
28.1956
28.8085
29.2619
29.6505
30.2861
789.754
457.159
23.1279
22.2407
21.6694
21.1883
20.9608
20.9271
20.8632
20.691
20.3995
19.9855
19.4447
18.7655
17.9118
16.8179
15.5231
14.4236
14.1639
15.5092
18.7668
21.8836
24.0216
25.5997
26.6225
27.2226
27.5488
27.7145
27.8508
28.1022
28.492
28.8897
29.2265
29.5727
30.2033
788.273
456.388
22.8849
21.9995
21.413
20.8776
20.593
20.5787
20.5627
20.4226
20.1381
19.7044
19.1164
18.3596
17.3893
16.1445
14.7244
13.7123
13.7243
15.0865
18.6879
22.6928
25.2639
26.9416
27.9085
28.4022
28.6457
28.7979
28.985
29.2696
29.6019
29.8895
30.1146
30.3347
30.6928
786.404
455.302
22.6869
21.8585
21.2929
20.7117
20.2944
20.2335
20.2603
20.1705
19.9162
19.485
18.8666
18.0405
16.9498
15.5271
13.8845
12.9109
13.3591
14.5532
17.4744
21.7825
24.9366
27.0237
28.3607
29.073
29.3356
29.322
29.2343
29.2599
29.4248
29.6228
29.7814
29.8945
29.9733
781.742
454.071
22.5503
21.8183
21.3019
20.7078
20.1445
19.965
20.0165
19.9968
19.7996
19.393
18.7536
17.8486
16.6064
14.9143
12.7963
11.5451
12.7355
14.3944
16.9053
21.0041
24.4295
26.5939
28.0775
29.1259
29.8765
30.3688
30.6129
30.6646
30.6105
30.5076
30.3761
30.2196
30.037
782.447
452.677
22.4531
21.8337
21.3852
20.8282
20.1726
19.8114
19.8363
19.8989
19.802
19.4797
18.8902
17.9806
16.6642
14.7724
12.0503
9.5791
11.0829
13.7844
16.2699
20.1429
23.7573
26.227
27.9667
28.9788
29.444
29.6613
29.8687
30.1336
30.3832
30.5376
30.5814
30.5394
30.4633
784.304
451.337
22.3829
21.838
21.4409
20.9541
20.333
19.8398
19.7763
19.9055
19.9462
19.7786
19.3378
18.552
17.3093
15.4351
12.4595
8.07388
7.58667
12.3834
15.8972
19.9558
23.7994
25.7542
27.3145
28.9624
30.3735
31.1629
31.3519
31.1795
30.8717
30.5596
30.2853
30.0459
29.8509
781.896
450.378
22.3159
21.7427
21.3288
20.8936
20.4249
20.0016
19.8741
20.0248
20.1984
20.2319
20.0414
19.5497
18.6467
17.1721
14.7875
10.7443
7.58442
5.35308
13.404
18.7044
23.5517
26.5915
27.6322
28.1777
28.6749
29.3087
30.0962
30.7802
31.15
31.2357
31.1453
30.9596
30.7055
783.243
450.295
22.2525
21.5023
20.9491
20.4665
20.1785
20.0488
20.0536
20.2429
20.5037
20.7058
20.7655
20.6182
20.187
19.3493
17.9093
15.4727
11.1235
8.6217
8.05206
12.5401
20.9072
25.8324
28.2254
29.5206
30.5352
31.0529
31.0785
30.9514
30.8949
30.8955
30.8679
30.7456
30.3859
779.203
451.308
22.1684
21.0971
20.2694
19.6052
19.4663
19.7101
20.0383
20.3961
20.7722
21.1178
21.383
21.5157
21.481
21.2112
20.5978
19.465
17.5476
14.0353
7.67133
7.21637
8.81826
18.9716
25.7749
28.517
29.0946
29.8522
30.9415
31.5549
31.5726
31.2871
30.8914
30.4217
29.6668
775.144
452.906
21.9701
20.5018
19.3063
18.3475
18.303
18.8542
19.4976
20.097
20.6587
21.1959
21.6968
22.1235
22.4236
22.5442
22.4215
21.9603
21.0046
19.2947
16.2669
10.5786
8.5498
5.61904
14.3115
23.6395
28.1732
28.6397
28.6545
29.2644
30.1165
30.6974
30.9104
30.8327
30.3543
779.061
454.148
21.6253
19.8415
18.3156
16.988
16.8067
17.3765
18.0994
18.834
19.6134
20.4891
21.4533
22.4047
23.2164
23.8026
24.1165
24.1192
23.7426
22.8441
21.1758
18.3375
13.3419
10.0377
5.46159
11.5548
22.8748
29.8502
31.3088
31.1161
30.9761
31.0112
31.0451
30.9571
30.6142
781.832
453.945
21.1978
19.4056
17.81
16.1095
15.2832
15.3549
15.7962
16.4364
17.3724
18.7807
20.6387
22.5788
24.2575
25.5478
26.4457
26.9729
27.1323
26.8903
26.1778
24.8668
22.7354
19.39
14.5181
7.32568
7.0079
17.4807
26.5838
29.8763
30.5611
30.6717
30.6421
30.5827
30.5549
785.574
451.509
20.8237
19.3615
17.9534
16.0365
14.3397
13.6163
13.6005
14.1043
15.4826
18.2087
21.8402
25.1529
27.6138
29.2982
30.4354
31.2091
31.6886
31.8535
31.6496
31.0325
29.9439
28.2583
25.7444
22.0703
16.9719
12.1125
15.6696
25.0173
28.5778
29.6208
30.0728
30.4067
30.8345
786.814
448.8
20.8376
19.7356
18.5715
16.6698
14.2466
12.6212
12.2505
12.9889
15.53
20.3937
25.9723
29.8224
31.484
32.3287
32.9211
33.4012
33.7828
34.0307
34.0896
33.9002
33.4028
32.5238
31.1506
29.0739
25.9528
21.2797
15.4709
17.5518
26.4001
30.2678
31.5265
31.9142
31.8784
786.166
448.031
20.9751
19.9875
19.1128
17.7287
15.4091
12.9113
11.4997
10.7154
9.62622
9.33627
13.5068
20.6007
26.0639
28.9707
30.5649
31.6383
32.4776
33.147
33.6413
33.9369
34.0059
33.8146
33.3149
32.4368
31.0874
29.0966
26.1208
22.1258
21.8639
25.4163
28.1656
29.6206
30.4634
796.355
448.297
20.7549
19.6075
18.7042
17.649
16.0986
13.695
11.5692
10.9175
10.493
8.76206
6.18372
9.93967
17.1803
24.8934
28.3676
30.0906