/*--------------------------------*- C++ -*----------------------------------*\
| =========                 |                                                 |
| \\      /  F ield         | OpenFOAM: The Open Source CFD Toolbox           |
|  \\    /   O peration     | Version:  v1906                                 |
|   \\  /    A nd           | Web:      www.OpenFOAM.com                      |
|    \\/     M anipulation  |                                                 |
\*---------------------------------------------------------------------------*/
FoamFile
{
    version     2.0;
    format      ascii;
    class       volVectorField;
    location    "52";
    object      U;
}
// * * * * * * * * * * * * * * * * * * * * * * * * * * * * * * * * * * * * * //

dimensions      [0 1 -1 0 0 0 0];


internalField   nonuniform List<vector> 
78750
(
(-0.278498 -0.317419 -0.0428227)
(-0.239595 -0.310397 -0.0399246)
(-0.212424 -0.289336 -0.0347568)
(-0.158433 -0.261091 -0.0303165)
(-0.107193 -0.215619 -0.0257469)
(-0.0609652 -0.129792 -0.0223405)
(-0.0519139 -0.0620739 -0.0393515)
(-0.0450412 -0.0330796 -0.0637411)
(-0.0402434 -0.0246385 -0.080637)
(-0.0359552 -0.0211025 -0.0892856)
(-0.0304058 -0.0187797 -0.0938703)
(-0.0246462 -0.0169463 -0.0959381)
(-0.0189674 -0.0151062 -0.0966258)
(-0.0133738 -0.0130773 -0.0966772)
(-0.0080181 -0.0108742 -0.0964892)
(-0.00303375 -0.00857543 -0.0962397)
(0.00150896 -0.00626304 -0.0959945)
(0.00562256 -0.00399153 -0.0957717)
(0.00934107 -0.00178975 -0.095571)
(0.0126683 0.000342812 -0.0953841)
(0.0156312 0.00242106 -0.095211)
(0.0182492 0.00446739 -0.0950693)
(0.0205292 0.00650756 -0.0949971)
(0.0224696 0.00856769 -0.0950453)
(0.0240658 0.010674 -0.0952683)
(0.0253083 0.0128502 -0.0957265)
(0.0261778 0.0151251 -0.0965048)
(0.0266528 0.0175229 -0.0976999)
(0.026708 0.0200667 -0.0994305)
(0.026317 0.0227819 -0.101857)
(0.0254273 0.0256881 -0.1052)
(0.0240236 0.0288158 -0.1098)
(0.0217831 0.0326937 -0.11602)
(0.0207811 0.0417661 -0.124617)
(0.0103763 0.0826843 -0.0869023)
(0.0389146 -0.348701 0.0460322)
(-0.0155744 -0.361608 0.0484035)
(0.010975 -0.35937 0.0436838)
(-0.00935696 -0.342021 0.0319041)
(-0.0297965 -0.334222 0.0202496)
(-0.0524161 -0.252301 0.0350975)
(-0.0571564 -0.114496 0.0467738)
(-0.0625771 -0.015355 0.0196101)
(-0.0645444 0.00777357 -0.0226777)
(-0.0670276 0.0031422 -0.0512771)
(-0.0678427 -0.00384656 -0.0684418)
(-0.0675826 -0.00852272 -0.0784688)
(-0.0662842 -0.0101981 -0.0843249)
(-0.0640607 -0.00962043 -0.0879552)
(-0.0610064 -0.00762233 -0.0903878)
(-0.0573008 -0.00486774 -0.0921466)
(-0.0531438 -0.00181332 -0.0935095)
(-0.048664 0.00129363 -0.0946256)
(-0.0439274 0.00436602 -0.095573)
(-0.0389891 0.00743332 -0.0963905)
(-0.0339111 0.0105895 -0.0970917)
(-0.0287603 0.0139404 -0.0976788)
(-0.0236028 0.0175629 -0.0981525)
(-0.0185038 0.0214912 -0.0985172)
(-0.0135228 0.0257657 -0.0987902)
(-0.00871876 0.030425 -0.0989983)
(-0.00415479 0.0355055 -0.0991658)
(0.000101766 0.0410463 -0.0993194)
(0.00397142 0.0471042 -0.0994883)
(0.00734244 0.0537926 -0.0997029)
(0.0100307 0.0614049 -0.0999795)
(0.0118177 0.0708661 -0.100283)
(0.0124597 0.0862768 -0.100403)
(0.0120459 0.128144 -0.0980191)
(0.00365386 0.222291 -0.0592955)
(-0.0303411 -0.279029 0.0375927)
(-0.0296473 -0.29648 0.0327064)
(-0.0472802 -0.217864 0.0183735)
(-0.0503835 -0.0339097 -0.0107425)
(-0.0506141 0.0302182 -0.0226909)
(-0.0549147 0.00421648 -0.015453)
(-0.0544726 -0.00572713 -0.0122869)
(-0.0534099 0.0026495 -0.0157595)
(-0.052673 0.0156904 -0.0292273)
(-0.0534177 0.0168171 -0.0428916)
(-0.0548668 0.0140338 -0.0529354)
(-0.0560684 0.0106235 -0.0608262)
(-0.0567494 0.00721082 -0.0670432)
(-0.0567741 0.00436954 -0.0717934)
(-0.0560932 0.00257702 -0.0754317)
(-0.0547152 0.00200347 -0.0783425)
(-0.0526822 0.00257762 -0.0808134)
(-0.0500671 0.00410617 -0.0830174)
(-0.0469523 0.00638247 -0.0850431)
(-0.0434124 0.00925106 -0.0869295)
(-0.0395118 0.0126209 -0.0886874)
(-0.0353092 0.0164523 -0.0903099)
(-0.0308637 0.0207429 -0.0917836)
(-0.0262369 0.0255201 -0.0930981)
(-0.0214927 0.0308371 -0.0942494)
(-0.0166975 0.0367741 -0.0952386)
(-0.0119225 0.0434458 -0.0960691)
(-0.00724942 0.0510216 -0.0967532)
(-0.00278368 0.0597713 -0.0973167)
(0.00131965 0.0701536 -0.0977763)
(0.00482622 0.0831137 -0.0981122)
(0.00743391 0.101227 -0.0981843)
(0.00853633 0.132772 -0.0972423)
(0.00772244 0.200246 -0.0905152)
(0.00105741 0.291507 -0.0510901)
(0.000533187 -0.138688 0.0462425)
(-0.0198253 -0.310172 0.0539809)
(-0.0180536 -0.374022 0.0589214)
(-0.0124421 -0.390925 0.0642307)
(0.000881791 -0.341395 0.0640713)
(0.0174594 -0.257203 0.0623358)
(0.0285031 -0.159682 0.0617279)
(0.0353409 -0.0498342 0.0570383)
(0.0366016 0.0187713 0.0458372)
(0.0312201 0.0400446 0.0321097)
(0.0228064 0.0432676 0.0187586)
(0.014658 0.0407747 0.00622896)
(0.00768046 0.0362614 -0.00508676)
(0.00162658 0.0316008 -0.0149323)
(-0.00353765 0.0276699 -0.0233699)
(-0.00771203 0.0247738 -0.030593)
(-0.0108967 0.0229577 -0.0368355)
(-0.0131505 0.022172 -0.0423096)
(-0.0145512 0.0223405 -0.04718)
(-0.0151815 0.023388 -0.0515641)
(-0.0151241 0.0252529 -0.0555419)
(-0.0144603 0.0278933 -0.0591667)
(-0.0132693 0.0312919 -0.0624735)
(-0.0116294 0.0354604 -0.0654875)
(-0.00961891 0.040445 -0.0682286)
(-0.00731747 0.0463359 -0.0707157)
(-0.0048077 0.0532848 -0.0729702)
(-0.00217952 0.0615429 -0.0750137)
(0.000452986 0.0715495 -0.0768582)
(0.00293979 0.0841508 -0.0785221)
(0.00510485 0.101257 -0.0800265)
(0.00671888 0.127919 -0.0813217)
(0.00718855 0.177597 -0.081572)
(0.00610135 0.267748 -0.0749837)
(0.000412004 0.342384 -0.0392899)
(0.00647882 -0.226819 0.0160202)
(0.0234041 -0.333375 0.0234548)
(0.0264268 -0.353688 0.0231032)
(0.0254363 -0.350489 0.0214833)
(0.0213497 -0.339304 0.0207497)
(0.0145406 -0.319792 0.0217872)
(0.00586596 -0.275747 0.0277687)
(0.000263652 -0.164612 0.0398982)
(-0.00292559 -0.0232959 0.0436562)
(-0.00448487 0.0606323 0.0353632)
(-0.00378478 0.0790641 0.0266261)
(-0.0035455 0.0827239 0.020193)
(-0.0033715 0.0824524 0.0140699)
(-0.00335008 0.0793604 0.00742755)
(-0.00341572 0.0746572 0.000654942)
(-0.003517 0.0696015 -0.00588539)
(-0.00359116 0.0649683 -0.0120296)
(-0.00357166 0.061132 -0.0177219)
(-0.00340673 0.0582373 -0.0229594)
(-0.00306284 0.0563223 -0.0277672)
(-0.00252142 0.0553902 -0.0321837)
(-0.00177573 0.0554457 -0.0362513)
(-0.00082912 0.0565101 -0.0400102)
(0.000303 0.0586297 -0.0434967)
(0.00159743 0.0618848 -0.0467429)
(0.0030226 0.0664042 -0.0497789)
(0.00453332 0.07239 -0.0526363)
(0.00606856 0.0801639 -0.0553508)
(0.0075341 0.0902729 -0.0579608)
(0.00878775 0.10375 -0.0605206)
(0.00963329 0.122949 -0.0631072)
(0.00974572 0.15427 -0.0657656)
(0.00839802 0.21476 -0.0676082)
(0.00600947 0.318044 -0.0623008)
(0.000488489 0.381219 -0.0312316)
(-0.00182697 -0.328074 0.067521)
(-0.0147522 -0.407967 0.0856395)
(-0.029824 -0.402653 0.0880537)
(-0.0449491 -0.359387 0.0887643)
(-0.0588482 -0.27081 0.0859553)
(-0.0687515 -0.158676 0.0729782)
(-0.0733293 -0.0599689 0.050605)
(-0.070286 -0.00634389 0.0330105)
(-0.0635414 0.0113806 0.0284829)
(-0.054197 0.0213559 0.0277482)
(-0.0446606 0.0315069 0.024807)
(-0.0367598 0.0376975 0.0216951)
(-0.0308841 0.0418154 0.018531)
(-0.0261435 0.0450175 0.015107)
(-0.0222118 0.0477427 0.0114487)
(-0.0188275 0.050172 0.00758843)
(-0.0158369 0.0523485 0.00358363)
(-0.0132043 0.0543117 -0.000486927)
(-0.0109288 0.0561987 -0.00455412)
(-0.00896398 0.0581743 -0.00857339)
(-0.00723937 0.0603873 -0.0125149)
(-0.00568146 0.0629765 -0.0163587)
(-0.00423288 0.0660805 -0.0200932)
(-0.0028583 0.0698531 -0.0237137)
(-0.00153738 0.0744808 -0.0272226)
(-0.000257352 0.0802017 -0.0306297)
(0.000989637 0.0873455 -0.0339532)
(0.00220317 0.096414 -0.0372276)
(0.00336712 0.108265 -0.0405194)
(0.00444328 0.124565 -0.0439661)
(0.00534819 0.149008 -0.0477959)
(0.0058053 0.19052 -0.0521235)
(0.00484125 0.267111 -0.0552883)
(0.00319718 0.374203 -0.0499799)
(-0.000516186 0.413891 -0.0233817)
(-0.0199549 -0.174419 0.0477266)
(-0.0355715 -0.215812 0.0398293)
(-0.0470796 -0.239878 0.0373243)
(-0.0540708 -0.263316 0.0401644)
(-0.0547709 -0.286966 0.0468648)
(-0.0486675 -0.299892 0.0557626)
(-0.0352341 -0.285348 0.0642195)
(-0.0172983 -0.237901 0.0688269)
(0.00124071 -0.178606 0.0702518)
(0.0185878 -0.126713 0.0713113)
(0.0334448 -0.078851 0.0716567)
(0.0456258 -0.0385183 0.070801)
(0.0541959 -0.00756963 0.068156)
(0.0586348 0.0137757 0.0632877)
(0.0594016 0.0269547 0.0565375)
(0.0571273 0.034752 0.0487957)
(0.0525806 0.0404452 0.0410786)
(0.0468684 0.0461714 0.0341463)
(0.0411705 0.0522046 0.0281507)
(0.0363266 0.0580381 0.022826)
(0.0324663 0.0634282 0.0177846)
(0.0293203 0.0685972 0.012836)
(0.0265927 0.0738857 0.00797368)
(0.024169 0.0795837 0.00324565)
(0.0220466 0.0859058 -0.00133265)
(0.0202192 0.0930822 -0.00578115)
(0.0186472 0.101445 -0.0101319)
(0.017267 0.111505 -0.0144223)
(0.0160061 0.124156 -0.0187126)
(0.0147853 0.141228 -0.0231775)
(0.0135064 0.167223 -0.0282083)
(0.0119448 0.214019 -0.0344232)
(0.00931044 0.303931 -0.0406092)
(0.00622115 0.415419 -0.0381822)
(0.00120021 0.44094 -0.0168521)
(-0.00462265 -0.132387 0.0449812)
(-0.000832306 -0.315103 0.0442488)
(0.00672277 -0.392218 0.0394422)
(0.0134393 -0.425792 0.0352889)
(0.0184219 -0.438591 0.0305067)
(0.0221987 -0.438737 0.0252905)
(0.0256046 -0.428946 0.0211364)
(0.0301372 -0.409473 0.0199431)
(0.0370812 -0.375911 0.021412)
(0.0463616 -0.325622 0.0235227)
(0.0567946 -0.263881 0.0267252)
(0.0673982 -0.197083 0.0330808)
(0.0773863 -0.130134 0.0436142)
(0.0859366 -0.0662928 0.057311)
(0.0921409 -0.00807398 0.0715998)
(0.0956373 0.0411874 0.0829363)
(0.0958647 0.0773556 0.0879534)
(0.0926796 0.0965059 0.0846563)
(0.0867445 0.101517 0.0745335)
(0.0782205 0.0988273 0.0609801)
(0.0684862 0.0960472 0.0489163)
(0.0593663 0.0967548 0.0404229)
(0.0515356 0.100075 0.0342132)
(0.044858 0.104301 0.0285097)
(0.0390352 0.108999 0.0226531)
(0.0338466 0.114673 0.0166815)
(0.0291852 0.122014 0.0107273)
(0.0250277 0.131724 0.00482306)
(0.0213891 0.144829 -0.00113434)
(0.0182484 0.163347 -0.00738047)
(0.0154855 0.192075 -0.0142419)
(0.0126203 0.243755 -0.0218602)
(0.00855539 0.344209 -0.0283857)
(0.00507856 0.459079 -0.0263254)
(0.000724672 0.468673 -0.00972815)
(0.00460323 -0.155342 0.00663665)
(0.0249779 -0.297318 0.012546)
(0.0398302 -0.359359 0.0200496)
(0.0508648 -0.38638 0.0270953)
(0.0582346 -0.396593 0.0321484)
(0.063026 -0.397789 0.0348356)
(0.0659027 -0.392723 0.0350687)
(0.06717 -0.38137 0.032234)
(0.0668994 -0.362059 0.0250067)
(0.0651587 -0.332686 0.0117223)
(0.0625124 -0.293658 -0.00701545)
(0.0598504 -0.249446 -0.0250558)
(0.0582273 -0.203997 -0.0347478)
(0.0586454 -0.157836 -0.0330616)
(0.0616073 -0.110214 -0.0210145)
(0.0666592 -0.060651 -0.00100155)
(0.0727743 -0.0091906 0.0241792)
(0.0787086 0.0430767 0.0514262)
(0.082175 0.094667 0.0767265)
(0.0809353 0.135119 0.0914649)
(0.0757643 0.155113 0.0910323)
(0.0676796 0.157964 0.0793873)
(0.0583313 0.15388 0.0649118)
(0.0504148 0.152176 0.0543912)
(0.0438501 0.154554 0.0475032)
(0.0381288 0.159367 0.0417576)
(0.0330933 0.165525 0.0357906)
(0.0285676 0.17313 0.029249)
(0.0244577 0.183347 0.0221192)
(0.0207716 0.198926 0.0141431)
(0.0174728 0.227284 0.00434046)
(0.0144789 0.287513 -0.00833724)
(0.0101332 0.400402 -0.0190894)
(0.00635845 0.503335 -0.0185487)
(0.00195881 0.497747 -0.00632912)
(0.00556767 -0.312856 0.0363145)
(0.0146888 -0.489326 0.045073)
(0.0208639 -0.530712 0.0406886)
(0.0254862 -0.535491 0.0355294)
(0.0297552 -0.527946 0.0313723)
(0.0333335 -0.512572 0.0284484)
(0.0357884 -0.489273 0.0266831)
(0.0371006 -0.455114 0.0258943)
(0.0374315 -0.405296 0.0254692)
(0.0371898 -0.338526 0.0224661)
(0.0366121 -0.262269 0.010725)
(0.0351728 -0.191851 -0.011927)
(0.0325409 -0.141236 -0.0357786)
(0.0297455 -0.110479 -0.0504848)
(0.0277394 -0.0892818 -0.0557473)
(0.0269074 -0.0684119 -0.0533658)
(0.0281553 -0.0415196 -0.0414222)
(0.0321684 -0.00595342 -0.0182617)
(0.038144 0.0373155 0.0131458)
(0.0448016 0.0855673 0.0474827)
(0.0500813 0.133456 0.0775709)
(0.0512093 0.165216 0.0913565)
(0.0488706 0.176337 0.0885518)
(0.0439873 0.174089 0.076204)
(0.0382092 0.168148 0.0625986)
(0.0335733 0.166321 0.0532915)
(0.0294864 0.169622 0.046973)
(0.0255187 0.17765 0.0415273)
(0.0217211 0.190345 0.0357141)
(0.0181398 0.208498 0.0289041)
(0.0146791 0.237162 0.0202342)
(0.0113495 0.296908 0.007492)
(0.00758033 0.42611 -0.00736785)
(0.00476596 0.535466 -0.0102707)
(0.00157663 0.519282 -0.00273896)
(-0.0015905 -0.315181 0.0125426)
(-0.00401747 -0.420862 -0.00621324)
(-0.00315027 -0.440791 -0.0120873)
(-0.00119572 -0.44547 -0.0138643)
(0.0015496 -0.443894 -0.014007)
(0.00456997 -0.437231 -0.0132327)
(0.00737799 -0.425411 -0.0120051)
(0.00974422 -0.408207 -0.0105428)
(0.0117963 -0.385045 -0.0087213)
(0.014038 -0.352871 -0.00614494)
(0.0171573 -0.305634 -0.00369604)
(0.0211839 -0.242743 -0.00623763)
(0.0249417 -0.176435 -0.0174796)
(0.0271775 -0.122875 -0.032394)
(0.0276857 -0.0876833 -0.0439009)
(0.0271974 -0.0656157 -0.0501008)
(0.0265361 -0.0488888 -0.0518838)
(0.0264645 -0.0309969 -0.0487946)
(0.0280208 -0.00623446 -0.0372389)
(0.0317988 0.0284748 -0.0136161)
(0.0371573 0.0720508 0.0199296)
(0.04264 0.120131 0.0563247)
(0.0457299 0.163283 0.0844839)
(0.0441078 0.187435 0.093224)
(0.0393076 0.196314 0.0878107)
(0.0331594 0.199295 0.0765221)
(0.0278688 0.202911 0.0655462)
(0.0237418 0.210074 0.0564875)
(0.0202666 0.222141 0.0480631)
(0.0172767 0.241584 0.0388175)
(0.0144896 0.27579 0.0275525)
(0.0111057 0.346036 0.0135321)
(0.00624626 0.478447 -0.000502695)
(0.00338227 0.57187 -0.00380645)
(0.00120858 0.543026 -0.00033792)
(-0.00426635 -0.285809 0.00502509)
(-0.00217479 -0.473606 -0.000538871)
(0.00258291 -0.523523 -0.000425232)
(0.00872072 -0.536404 0.000274163)
(0.0154262 -0.535178 0.00131186)
(0.0223922 -0.523393 0.00263141)
(0.0289958 -0.501069 0.00421088)
(0.034824 -0.467588 0.00580055)
(0.0394925 -0.42412 0.00689267)
(0.0429205 -0.374217 0.00722724)
(0.0454122 -0.320282 0.00671661)
(0.047356 -0.26146 0.00359756)
(0.0485478 -0.199877 -0.0053575)
(0.0482338 -0.142857 -0.0192651)
(0.046223 -0.0963777 -0.0333017)
(0.0429887 -0.0622252 -0.0438402)
(0.0392216 -0.0385622 -0.0499501)
(0.0356212 -0.021469 -0.052144)
(0.0325775 -0.00666924 -0.0506842)
(0.0303713 0.010372 -0.0441278)
(0.0297071 0.0349329 -0.0282882)
(0.0312571 0.0713152 0.00127742)
(0.0344264 0.119475 0.0426383)
(0.0364657 0.168178 0.080896)
(0.0348741 0.194763 0.0952999)
(0.0308719 0.20139 0.0909496)
(0.0258513 0.201894 0.0805761)
(0.0209849 0.205088 0.0707686)
(0.0172018 0.214739 0.062446)
(0.0144483 0.234601 0.0531359)
(0.0126467 0.274759 0.03928)
(0.0105134 0.360721 0.0199771)
(0.00580041 0.511014 0.00384376)
(0.00317046 0.592747 0.000117708)
(0.00164657 0.554435 0.000887013)
(0.00226699 -0.296358 -0.0152241)
(0.0129336 -0.48125 -0.0237595)
(0.0206665 -0.531054 -0.0258492)
(0.0274664 -0.543036 -0.0265924)
(0.0341575 -0.541322 -0.0269474)
(0.0406817 -0.53061 -0.0269277)
(0.0462808 -0.512144 -0.0264068)
(0.0504109 -0.486205 -0.025199)
(0.0525705 -0.453028 -0.0225562)
(0.0525543 -0.413185 -0.0159472)
(0.0508574 -0.363697 -0.00203738)
(0.0488012 -0.296025 0.0159168)
(0.0473045 -0.210234 0.023099)
(0.0453914 -0.127506 0.0116449)
(0.0425517 -0.0667538 -0.00864426)
(0.0396473 -0.0276514 -0.0268182)
(0.0372624 -0.00197009 -0.0393515)
(0.0351708 0.0163773 -0.0466815)
(0.0332254 0.0306467 -0.0499996)
(0.0316814 0.0428274 -0.0501664)
(0.0306995 0.0549481 -0.0471691)
(0.0305358 0.0700877 -0.0391147)
(0.0318635 0.0934859 -0.0208436)
(0.0351108 0.130193 0.0125959)
(0.0382043 0.174655 0.0527993)
(0.0377625 0.208829 0.0795458)
(0.0337955 0.22428 0.0869338)
(0.0283448 0.229148 0.0843011)
(0.022755 0.232846 0.0784818)
(0.0178764 0.244463 0.0712012)
(0.0139285 0.282813 0.0583167)
(0.0114233 0.387547 0.0328864)
(0.00696557 0.549174 0.00965801)
(0.00412978 0.616959 0.00377323)
(0.00242178 0.569947 0.00255183)
(0.00760249 -0.384425 -0.00604369)
(0.0163463 -0.569643 -0.0032603)
(0.0210179 -0.610499 -0.00300876)
(0.0235337 -0.61408 -0.0031488)
(0.0257428 -0.603843 -0.00362767)
(0.0278757 -0.58233 -0.00475544)
(0.029531 -0.547328 -0.00763427)
(0.0300009 -0.494561 -0.0149279)
(0.0280454 -0.425583 -0.0295224)
(0.0221889 -0.356564 -0.0460158)
(0.0127689 -0.300995 -0.0504602)
(0.0024448 -0.250077 -0.0379885)
(-0.00531361 -0.187341 -0.0223755)
(-0.00892375 -0.117142 -0.021978)
(-0.00925955 -0.0600654 -0.0345173)
(-0.00771543 -0.023333 -0.0474934)
(-0.00556369 -0.000825962 -0.0557467)
(-0.00300949 0.0145543 -0.0601294)
(-0.000129058 0.0270508 -0.06221)
(0.00277465 0.0385917 -0.0625602)
(0.00555926 0.0501014 -0.0611068)
(0.0082647 0.0626589 -0.0571775)
(0.0111265 0.0783684 -0.0486345)
(0.0145533 0.101271 -0.0303671)
(0.0189103 0.136078 0.0036436)
(0.0225782 0.176719 0.0443863)
(0.0228935 0.206504 0.0700077)
(0.0203305 0.222795 0.0775911)
(0.0168336 0.233975 0.0768832)
(0.0137381 0.248436 0.0737319)
(0.0110669 0.282002 0.0666579)
(0.00872 0.386338 0.0455075)
(0.00455784 0.569944 0.0182766)
(0.00211881 0.63546 0.0097319)
(0.00150307 0.582778 0.0057832)
(0.0019909 -0.4288 0.00454969)
(-0.00428565 -0.553996 -0.00336217)
(-0.00946807 -0.566871 -0.00445191)
(-0.0146325 -0.562179 -0.00212052)
(-0.0197744 -0.548166 0.0028277)
(-0.0241626 -0.524075 0.0101053)
(-0.0278252 -0.485111 0.0185941)
(-0.0303152 -0.42274 0.023945)
(-0.0305992 -0.333315 0.0172491)
(-0.0298613 -0.234172 -0.00421044)
(-0.0309517 -0.156408 -0.0265098)
(-0.0331062 -0.108508 -0.0395009)
(-0.0342187 -0.0777495 -0.0457764)
(-0.0332244 -0.0533485 -0.0495624)
(-0.030063 -0.0322578 -0.0531798)
(-0.025522 -0.014626 -0.0567387)
(-0.0205169 9.58402e-05 -0.059783)
(-0.0157927 0.0130001 -0.0620837)
(-0.0115386 0.0249407 -0.0634935)
(-0.00768486 0.0366121 -0.0638614)
(-0.0042441 0.0486513 -0.062896)
(-0.0012012 0.0618975 -0.0599914)
(0.00152233 0.0778336 -0.0537656)
(0.00413482 0.0993108 -0.0408529)
(0.00698678 0.130947 -0.0144094)
(0.0101558 0.174487 0.0299454)
(0.0119991 0.217043 0.075844)
(0.0112309 0.241159 0.0990679)
(0.00898081 0.24825 0.0984841)
(0.00697588 0.255444 0.0872184)
(0.00642364 0.297004 0.0722552)
(0.00562944 0.429378 0.0469663)
(0.00221999 0.606547 0.0209415)
(0.000434008 0.656517 0.0123858)
(0.00034315 0.592204 0.0072739)
(-0.00456027 -0.390581 0.00152018)
(-0.0145319 -0.526416 -0.0151376)
(-0.0215206 -0.550736 -0.0187874)
(-0.027413 -0.553864 -0.018238)
(-0.033053 -0.547196 -0.0146552)
(-0.0377296 -0.531329 -0.0078713)
(-0.0410856 -0.504391 0.00232632)
(-0.0422049 -0.462523 0.0148288)
(-0.0393778 -0.401463 0.0242848)
(-0.0320886 -0.323562 0.0217511)
(-0.022992 -0.245749 0.00625451)
(-0.0151243 -0.184532 -0.0117638)
(-0.00949761 -0.13946 -0.025936)
(-0.0056192 -0.104358 -0.035971)
(-0.00254356 -0.0751435 -0.043229)
(0.000347215 -0.0502659 -0.0488004)
(0.00321066 -0.0290126 -0.0532187)
(0.00599282 -0.0105999 -0.0567094)
(0.00853177 0.00585765 -0.0593395)
(0.0106759 0.0210738 -0.0610706)
(0.012445 0.0355797 -0.0617465)
(0.0138715 0.0498399 -0.0610751)
(0.0150413 0.0644649 -0.0585264)
(0.0161444 0.0806889 -0.0529637)
(0.0175036 0.101083 -0.0416159)
(0.0195107 0.129514 -0.0189863)
(0.0219287 0.166062 0.0175636)
(0.0230404 0.199853 0.0553907)
(0.0214243 0.221045 0.0792735)
(0.0172836 0.233275 0.0876221)
(0.0128375 0.264801 0.0833508)
(0.0106762 0.41391 0.0579961)
(0.00674013 0.615417 0.0279723)
(0.00414238 0.665986 0.0178879)
(0.00234405 0.595905 0.0116129)
(-0.00450059 -0.331449 -0.00504844)
(-0.00989621 -0.468786 -0.0184586)
(-0.0135037 -0.495043 -0.0222405)
(-0.0159867 -0.500232 -0.0238116)
(-0.0181236 -0.496501 -0.0242802)
(-0.0195725 -0.485442 -0.0232765)
(-0.0199472 -0.467401 -0.0196453)
(-0.0188075 -0.441947 -0.0116066)
(-0.0155517 -0.405996 0.00243097)
(-0.00936643 -0.352142 0.0204652)
(2.43135e-05 -0.276048 0.0328638)
(0.0107402 -0.19154 0.0304933)
(0.0198087 -0.120255 0.0159279)
(0.0256682 -0.0712269 -0.0021874)
(0.0288135 -0.0402653 -0.0176496)
(0.0305382 -0.0192323 -0.0291953)
(0.0318551 -0.00244205 -0.0378034)
(0.0332218 0.012844 -0.0445082)
(0.034671 0.027653 -0.049927)
(0.0361022 0.0422093 -0.0543299)
(0.0374179 0.05648 -0.0578062)
(0.0384878 0.0704412 -0.0603027)
(0.0391626 0.0842415 -0.0616183)
(0.0393472 0.0984259 -0.061297)
(0.0390534 0.114311 -0.0582346)
(0.0383314 0.134614 -0.049542)
(0.0371742 0.163118 -0.0291848)
(0.0352149 0.19875 0.00551653)
(0.0313513 0.231733 0.0436749)
(0.0253512 0.254668 0.0718507)
(0.0179086 0.281445 0.0846737)
(0.013474 0.422547 0.0689962)
(0.00907572 0.634561 0.0373565)
(0.00559702 0.68732 0.0254851)
(0.00297456 0.612621 0.0174124)
(-0.000349636 -0.337408 -0.00344343)
(-0.000137854 -0.502203 -0.0134179)
(-0.000758923 -0.540059 -0.0182087)
(-0.0010383 -0.549882 -0.0209719)
(-0.00117936 -0.549675 -0.0230946)
(-0.00118839 -0.542401 -0.0249359)
(-0.00110445 -0.5289 -0.0263571)
(-0.00103202 -0.509945 -0.0265296)
(-0.000898077 -0.486232 -0.023429)
(-7.42237e-05 -0.455757 -0.013291)
(0.00297344 -0.410389 0.00743027)
(0.00992149 -0.3404 0.0330467)
(0.0200285 -0.250648 0.0489391)
(0.0299921 -0.161905 0.0463379)
(0.0369139 -0.0932678 0.0298001)
(0.0403848 -0.0482948 0.0101025)
(0.0417056 -0.0194583 -0.0064506)
(0.0422427 0.00108399 -0.019116)
(0.0426952 0.0181251 -0.0289987)
(0.0432608 0.0342203 -0.0370225)
(0.0438622 0.0507312 -0.0436561)
(0.0443107 0.0683538 -0.0489735)
(0.0443822 0.0874512 -0.0527356)
(0.0438551 0.108393 -0.0543658)
(0.0425499 0.131909 -0.0527401)
(0.0403638 0.15935 -0.045607)
(0.0373289 0.192135 -0.0290436)
(0.0336617 0.228676 -0.000661793)
(0.0293354 0.261729 0.0331077)
(0.0244646 0.28453 0.0610268)
(0.018374 0.304435 0.0780232)
(0.0134222 0.43471 0.0723018)
(0.0083499 0.65666 0.0435628)
(0.00465061 0.711017 0.0310319)
(0.00244549 0.632981 0.0211744)
(0.000888857 -0.332379 -0.00716015)
(0.00191965 -0.473446 -0.0205519)
(0.00197881 -0.506265 -0.0256398)
(0.00172732 -0.51367 -0.0279818)
(0.00143758 -0.510436 -0.0294646)
(0.00122558 -0.498196 -0.0306461)
(0.00123567 -0.47621 -0.0318789)
(0.00148286 -0.444822 -0.0334317)
(0.00167081 -0.408293 -0.0350447)
(0.00146475 -0.373545 -0.03532)
(0.000992616 -0.343341 -0.0312419)
(0.00130142 -0.311257 -0.0174746)
(0.00459123 -0.261783 0.00869591)
(0.0118153 -0.187314 0.0348948)
(0.0205076 -0.10408 0.0442649)
(0.0269368 -0.0367397 0.0348829)
(0.0298603 0.00603536 0.0182827)
(0.0305402 0.0323831 0.00341931)
(0.0303486 0.0516789 -0.00807367)
(0.0298724 0.0689835 -0.0169633)
(0.0292438 0.0865659 -0.0238181)
(0.0284321 0.105403 -0.028721)
(0.0273813 0.125949 -0.0314195)
(0.0260602 0.148511 -0.0313879)
(0.0244762 0.173342 -0.0277944)
(0.0226962 0.200537 -0.0194773)
(0.0208851 0.229583 -0.00523692)
(0.0192696 0.258322 0.0145974)
(0.017836 0.282911 0.0361223)
(0.0164269 0.301631 0.0542391)
(0.0140504 0.32638 0.0671499)
(0.0107046 0.463737 0.0673215)
(0.00607625 0.683416 0.0448287)
(0.00292694 0.733019 0.0330364)
(0.00158548 0.647108 0.0222222)
(0.000299564 -0.355767 -0.0112018)
(0.00233217 -0.513032 -0.0254398)
(0.00373173 -0.549537 -0.0301469)
(0.00472414 -0.559676 -0.0321755)
(0.00557547 -0.56036 -0.0332961)
(0.00633844 -0.554427 -0.0339025)
(0.00713395 -0.542028 -0.034141)
(0.00812334 -0.521659 -0.0341781)
(0.00938019 -0.490575 -0.0342889)
(0.0106115 -0.448547 -0.0347847)
(0.0111443 -0.402144 -0.0352933)
(0.010653 -0.359666 -0.033719)
(0.00964173 -0.320815 -0.0252663)
(0.00991169 -0.27336 -0.00313393)
(0.0139366 -0.202699 0.0291633)
(0.0208217 -0.115164 0.051429)
(0.0262053 -0.0384085 0.0504319)
(0.0276908 0.0111777 0.0356347)
(0.026491 0.0420395 0.0204992)
(0.0242396 0.0660883 0.00905071)
(0.0217692 0.0890124 0.00109609)
(0.019448 0.112425 -0.00377119)
(0.0173967 0.136334 -0.00578408)
(0.015654 0.1605 -0.00507934)
(0.0142809 0.184776 -0.00163154)
(0.0133592 0.208957 0.00469138)
(0.0129681 0.232505 0.0138446)
(0.0131067 0.254348 0.025073)
(0.0135295 0.27336 0.0366026)
(0.0138712 0.290823 0.0468373)
(0.0132701 0.322158 0.056081)
(0.0101695 0.471944 0.0603492)
(0.00554468 0.696144 0.0445016)
(0.00277493 0.743516 0.0340513)
(0.00160254 0.652675 0.0230664)
(0.00191903 -0.352761 -0.0187503)
(0.00611435 -0.492834 -0.0305911)
(0.00914522 -0.524139 -0.0339496)
(0.0112959 -0.53124 -0.0356139)
(0.0130703 -0.528601 -0.0370051)
(0.0143649 -0.518139 -0.0384771)
(0.0150324 -0.499601 -0.0401376)
(0.0150034 -0.472883 -0.0418839)
(0.0143855 -0.439016 -0.0433338)
(0.0135751 -0.398774 -0.0440892)
(0.0129276 -0.352692 -0.0442414)
(0.0121593 -0.305639 -0.0440524)
(0.0108208 -0.265915 -0.0427022)
(0.00905062 -0.234578 -0.0373328)
(0.00771624 -0.201732 -0.0212628)
(0.00943486 -0.147819 0.011731)
(0.0151859 -0.066123 0.0450187)
(0.0205372 0.0163873 0.0543313)
(0.0217725 0.0711965 0.0432011)
(0.0201124 0.102351 0.0298939)
(0.0175562 0.124372 0.0209201)
(0.0150478 0.143874 0.0157959)
(0.0130088 0.162551 0.0136095)
(0.0115345 0.180711 0.0137416)
(0.0106184 0.198467 0.0157539)
(0.0102833 0.215796 0.0193264)
(0.0105105 0.23253 0.0241273)
(0.0111729 0.248554 0.0296661)
(0.0120022 0.264453 0.0353235)
(0.0126805 0.284245 0.0409215)
(0.0125371 0.330534 0.04757)
(0.0096693 0.496388 0.0532065)
(0.00534836 0.712747 0.0431529)
(0.00285849 0.756439 0.0343735)
(0.00167698 0.659223 0.023644)
(0.00116228 -0.385815 -0.0166341)
(0.0050335 -0.539274 -0.023151)
(0.00874023 -0.571054 -0.0251764)
(0.0117441 -0.577623 -0.0264918)
(0.0145636 -0.57442 -0.0279407)
(0.0169744 -0.563338 -0.029844)
(0.0187612 -0.543842 -0.0324327)
(0.0197444 -0.515151 -0.0358138)
(0.0197294 -0.47843 -0.0396949)
(0.0187632 -0.436832 -0.043238)
(0.0172854 -0.392094 -0.0454281)
(0.0159249 -0.342962 -0.0457883)
(0.014815 -0.290926 -0.0447306)
(0.0134535 -0.244211 -0.0426302)
(0.0117499 -0.207973 -0.0384393)
(0.01016 -0.17632 -0.028)
(0.0104573 -0.133138 -0.00223905)
(0.015249 -0.0612762 0.0358472)
(0.0217181 0.0242134 0.0579807)
(0.0242804 0.0855827 0.0534599)
(0.023159 0.118521 0.0418803)
(0.0208197 0.140659 0.034043)
(0.0183909 0.160042 0.0298206)
(0.016417 0.177992 0.0280547)
(0.0150197 0.194438 0.0279463)
(0.0141369 0.20961 0.0289459)
(0.0137108 0.223978 0.0306799)
(0.0136458 0.238149 0.0328565)
(0.0137491 0.253449 0.0352631)
(0.0137235 0.275129 0.0380863)
(0.0129181 0.330162 0.0425526)
(0.00973585 0.509073 0.0475387)
(0.00532348 0.724012 0.04095)
(0.00287536 0.766415 0.0335824)
(0.0016752 0.666443 0.0234099)
(0.00118357 -0.382659 -0.0176389)
(0.00513921 -0.52872 -0.0250318)
(0.00898464 -0.557618 -0.0274755)
(0.0122418 -0.56227 -0.0290187)
(0.0153765 -0.556602 -0.0306216)
(0.0180934 -0.541673 -0.03265)
(0.0200973 -0.516091 -0.0353812)
(0.0211758 -0.478848 -0.0389406)
(0.021266 -0.432045 -0.0431938)
(0.020492 -0.381247 -0.0478071)
(0.0190551 -0.333111 -0.0520767)
(0.0172837 -0.290869 -0.0549644)
(0.0156175 -0.251867 -0.0556055)
(0.0142998 -0.212279 -0.0537094)
(0.013061 -0.17418 -0.0496897)
(0.0117069 -0.142436 -0.0438783)
(0.0104241 -0.115255 -0.0344486)
(0.0101042 -0.0822638 -0.0143266)
(0.0134943 -0.0235563 0.0234981)
(0.0200708 0.0608134 0.0564647)
(0.0232842 0.128496 0.0589007)
(0.022288 0.16125 0.0481681)
(0.0201367 0.178878 0.0408222)
(0.0179124 0.192684 0.037219)
(0.0160851 0.205183 0.0356776)
(0.0148042 0.216768 0.0352139)
(0.0139515 0.227937 0.0352958)
(0.0133878 0.239749 0.0356739)
(0.0129926 0.254501 0.0362826)
(0.0125588 0.280002 0.0373538)
(0.0115677 0.350492 0.0398927)
(0.00873792 0.543153 0.043029)
(0.00482239 0.744595 0.0381201)
(0.00255888 0.782429 0.0318286)
(0.0014379 0.675139 0.0222101)
(0.000432288 -0.406188 -0.0162794)
(0.00416816 -0.566869 -0.0208874)
(0.00844229 -0.597266 -0.0225496)
(0.0123611 -0.601479 -0.0240563)
(0.0163593 -0.59467 -0.0259945)
(0.0200045 -0.577681 -0.028733)
(0.0227915 -0.549031 -0.0325413)
(0.0242874 -0.509022 -0.037208)
(0.0244183 -0.461601 -0.0419545)
(0.0236141 -0.410546 -0.0462402)
(0.0223453 -0.357782 -0.0502171)
(0.0207992 -0.306351 -0.0540538)
(0.019064 -0.260136 -0.0572119)
(0.0173611 -0.219654 -0.0587408)
(0.0159114 -0.182357 -0.0579034)
(0.014685 -0.147401 -0.0545116)
(0.0135528 -0.116578 -0.0488181)
(0.0125814 -0.0891398 -0.0401307)
(0.0122636 -0.0583332 -0.024013)
(0.0147093 -0.00837175 0.00853623)
(0.0210581 0.0692723 0.0473825)
(0.0254161 0.139703 0.0607335)
(0.025119 0.174073 0.0537026)
(0.0231824 0.189616 0.0464288)
(0.0209284 0.200576 0.042283)
(0.0188009 0.210995 0.0401512)
(0.0170481 0.221828 0.0391294)
(0.0156542 0.233777 0.0386408)
(0.0145126 0.248869 0.0383953)
(0.0134038 0.275315 0.038412)
(0.0118662 0.350644 0.0392841)
(0.00896421 0.553733 0.0404251)
(0.00517509 0.755209 0.0355645)
(0.00287297 0.792326 0.0298421)
(0.00160317 0.681887 0.0208936)
(0.000593412 -0.399153 -0.0149817)
(0.00411206 -0.563199 -0.0153357)
(0.00826138 -0.594501 -0.0157771)
(0.0122581 -0.597734 -0.0170139)
(0.0164955 -0.588302 -0.0191602)
(0.0205952 -0.56576 -0.0226787)
(0.023934 -0.526714 -0.0281632)
(0.0258812 -0.472058 -0.0355289)
(0.0262711 -0.410497 -0.0435075)
(0.0255185 -0.351787 -0.0505953)
(0.0242214 -0.30023 -0.0560805)
(0.0228484 -0.254813 -0.0601264)
(0.0215736 -0.213887 -0.0631354)
(0.0203605 -0.177622 -0.0651438)
(0.0191805 -0.146114 -0.0658058)
(0.0180711 -0.117971 -0.0646813)
(0.017049 -0.091738 -0.0614256)
(0.0161303 -0.0670677 -0.0558426)
(0.0154511 -0.0431464 -0.0472688)
(0.0153686 -0.0157381 -0.0325281)
(0.0172867 0.0265149 -0.00357204)
(0.0227248 0.0948789 0.0374075)
(0.0268268 0.162406 0.0595061)
(0.0263136 0.197911 0.0578796)
(0.0239128 0.213103 0.0518348)
(0.0212021 0.222166 0.0473741)
(0.0185857 0.230357 0.0444159)
(0.0162795 0.240065 0.0424589)
(0.0143369 0.254371 0.0410954)
(0.0126082 0.283736 0.0400429)
(0.0108828 0.371142 0.039373)
(0.00824283 0.583194 0.0388573)
(0.00486186 0.775198 0.0341752)
(0.00267989 0.808909 0.0288554)
(0.00146894 0.691366 0.0202037)
(0.000403172 -0.424206 -0.00974372)
(0.00318412 -0.604068 -0.00791409)
(0.00653906 -0.638534 -0.00798356)
(0.0100117 -0.641967 -0.0090933)
(0.0138463 -0.631315 -0.0111747)
(0.017676 -0.605742 -0.0146697)
(0.0208869 -0.561506 -0.0201538)
(0.0228769 -0.501309 -0.0274633)
(0.0236475 -0.435398 -0.0355506)
(0.023677 -0.372005 -0.0435462)
(0.0233112 -0.314844 -0.050958)
(0.0227224 -0.264738 -0.0574345)
(0.0220789 -0.220595 -0.0627708)
(0.0215098 -0.181022 -0.0668687)
(0.0210239 -0.14568 -0.0695931)