/*--------------------------------*- C++ -*----------------------------------*\
| =========                 |                                                 |
| \\      /  F ield         | OpenFOAM: The Open Source CFD Toolbox           |
|  \\    /   O peration     | Version:  v1912                                 |
|   \\  /    A nd           | Website:  www.openfoam.com                      |
|    \\/     M anipulation  |                                                 |
\*---------------------------------------------------------------------------*/
FoamFile
{
    version     2.0;
    format      ascii;
    class       volVectorField;
    location    "424/oil";
    object      U;
}
// * * * * * * * * * * * * * * * * * * * * * * * * * * * * * * * * * * * * * //

dimensions      [0 1 -1 0 0 0 0];


internalField   nonuniform List<vector> 
35580
(
(-1.23302e-09 2.45853e-09 -1.25741e-09)
(1.25921e-09 2.23415e-09 -3.02268e-09)
(1.15936e-08 2.20341e-09 -4.86217e-09)
(2.7872e-08 2.75129e-09 -6.7245e-09)
(4.76641e-08 3.6261e-09 -8.22432e-09)
(6.81984e-08 4.65629e-09 -9.23405e-09)
(8.69116e-08 5.74372e-09 -9.74387e-09)
(1.01578e-07 6.84215e-09 -9.81106e-09)
(1.10379e-07 7.92325e-09 -9.52233e-09)
(1.12104e-07 8.95842e-09 -8.95914e-09)
(1.0609e-07 9.89351e-09 -8.1955e-09)
(9.23902e-08 1.06849e-08 -7.4332e-09)
(7.18342e-08 1.13049e-08 -6.72507e-09)
(4.57117e-08 1.1776e-08 -6.22017e-09)
(1.60344e-08 1.20353e-08 -5.95604e-09)
(-1.49397e-08 1.20666e-08 -5.96135e-09)
(-4.47068e-08 1.17954e-08 -6.21989e-09)
(-7.08848e-08 1.13162e-08 -6.70982e-09)
(-9.15688e-08 1.0657e-08 -7.38722e-09)
(-1.05397e-07 9.88074e-09 -8.16006e-09)
(-1.11627e-07 8.96116e-09 -8.91566e-09)
(-1.10073e-07 7.91348e-09 -9.50414e-09)
(-1.01376e-07 6.83168e-09 -9.79212e-09)
(-8.68067e-08 5.73615e-09 -9.73426e-09)
(-6.81642e-08 4.64841e-09 -9.2265e-09)
(-4.76868e-08 3.62137e-09 -8.21731e-09)
(-2.79292e-08 2.74697e-09 -6.71368e-09)
(-1.16586e-08 2.19272e-09 -4.84098e-09)
(-1.31361e-09 2.2113e-09 -2.99652e-09)
(1.209e-09 2.41129e-09 -1.2394e-09)
(6.34166e-10 -2.30032e-09 6.19483e-10)
(1.27278e-08 -1.40824e-08 5.34277e-10)
(3.70834e-08 -2.34872e-08 -3.18592e-10)
(7.10187e-08 -2.85909e-08 -1.43358e-09)
(1.10507e-07 -3.02094e-08 -2.25627e-09)
(1.50807e-07 -2.92136e-08 -2.54008e-09)
(1.87166e-07 -2.63231e-08 -2.22761e-09)
(2.15299e-07 -2.20772e-08 -1.36148e-09)
(2.31656e-07 -1.69331e-08 -4.46706e-11)
(2.3374e-07 -1.13204e-08 1.57119e-09)
(2.20179e-07 -5.68775e-09 3.46244e-09)
(1.91002e-07 -5.22178e-10 5.23599e-09)
(1.4802e-07 3.73977e-09 6.79449e-09)
(9.40575e-08 6.85256e-09 7.91347e-09)
(3.29685e-08 8.50411e-09 8.50414e-09)
(-3.07598e-08 8.53921e-09 8.52332e-09)
(-9.20527e-08 6.81994e-09 7.94087e-09)
(-1.46111e-07 3.64542e-09 6.85627e-09)
(-1.89109e-07 -7.09735e-10 5.33733e-09)
(-2.18376e-07 -5.81731e-09 3.56531e-09)
(-2.32306e-07 -1.1442e-08 1.70571e-09)
(-2.30535e-07 -1.70455e-08 4.89145e-11)
(-2.14433e-07 -2.21536e-08 -1.27318e-09)
(-1.86583e-07 -2.63712e-08 -2.15792e-09)
(-1.5047e-07 -2.92612e-08 -2.48176e-09)
(-1.10368e-07 -3.02739e-08 -2.2039e-09)
(-7.10221e-08 -2.869e-08 -1.3911e-09)
(-3.71388e-08 -2.36237e-08 -2.82118e-10)
(-1.27612e-08 -1.42234e-08 5.5445e-10)
(-6.40363e-10 -2.42012e-09 6.0919e-10)
(2.48658e-09 -2.27095e-08 2.48365e-09)
(2.49812e-08 -6.01362e-08 4.39936e-09)
(6.11534e-08 -8.78606e-08 4.80367e-09)
(1.07672e-07 -1.05495e-07 4.7435e-09)
(1.59641e-07 -1.14883e-07 4.83814e-09)
(2.11633e-07 -1.17804e-07 5.37312e-09)
(2.57935e-07 -1.15793e-07 6.45034e-09)
(2.93249e-07 -1.10101e-07 8.0605e-09)
(3.13113e-07 -1.01813e-07 1.0103e-08)
(3.14358e-07 -9.19375e-08 1.2398e-08)
(2.95159e-07 -8.14841e-08 1.49303e-08)
(2.5546e-07 -7.15421e-08 1.72759e-08)
(1.97634e-07 -6.32014e-08 1.92594e-08)
(1.25442e-07 -5.71603e-08 2.06938e-08)
(4.39381e-08 -5.39651e-08 2.14554e-08)
(-4.10937e-08 -5.39782e-08 2.15058e-08)
(-1.22927e-07 -5.7319e-08 2.07325e-08)
(-1.9524e-07 -6.35448e-08 1.93175e-08)
(-2.53014e-07 -7.20112e-08 1.73339e-08)
(-2.92915e-07 -8.1886e-08 1.50303e-08)
(-3.12591e-07 -9.23009e-08 1.25237e-08)
(-3.11719e-07 -1.02085e-07 1.01854e-08)
(-2.92183e-07 -1.10287e-07 8.13922e-09)
(-2.57206e-07 -1.15923e-07 6.52226e-09)
(-2.11207e-07 -1.17918e-07 5.43787e-09)
(-1.5946e-07 -1.15024e-07 4.90187e-09)
(-1.07654e-07 -1.05696e-07 4.79762e-09)
(-6.12039e-08 -8.81255e-08 4.84073e-09)
(-2.50323e-08 -6.03878e-08 4.40436e-09)
(-2.5078e-09 -2.28668e-08 2.459e-09)
(3.97539e-09 -5.63105e-08 3.96515e-09)
(3.52555e-08 -1.3127e-07 7.34918e-09)
(8.13152e-08 -1.84061e-07 8.61452e-09)
(1.3774e-07 -2.19116e-07 9.2613e-09)
(1.9888e-07 -2.40145e-07 1.00153e-08)
(2.58911e-07 -2.50035e-07 1.11566e-08)
(3.11671e-07 -2.51223e-07 1.27963e-08)
(3.5137e-07 -2.45741e-07 1.49357e-08)
(3.73049e-07 -2.3541e-07 1.74824e-08)
(3.73109e-07 -2.2193e-07 2.02509e-08)
(3.49405e-07 -2.07017e-07 2.31773e-08)
(3.01892e-07 -1.92312e-07 2.5893e-08)
(2.33325e-07 -1.79675e-07 2.82075e-08)
(1.47927e-07 -1.70384e-07 2.98414e-08)
(5.17679e-08 -1.6549e-07 3.06966e-08)
(-4.85539e-08 -1.65563e-07 3.07607e-08)
(-1.45142e-07 -1.70591e-07 2.98589e-08)
(-2.306e-07 -1.80019e-07 2.82196e-08)
(-2.9912e-07 -1.92688e-07 2.592e-08)
(-3.46859e-07 -2.07336e-07 2.32441e-08)
(-3.71014e-07 -2.22218e-07 2.0311e-08)
(-3.71354e-07 -2.35618e-07 1.7516e-08)
(-3.5006e-07 -2.45885e-07 1.49731e-08)
(-3.10736e-07 -2.51322e-07 1.2835e-08)
(-2.58319e-07 -2.50136e-07 1.12003e-08)
(-1.98594e-07 -2.40302e-07 1.00671e-08)
(-1.37674e-07 -2.19364e-07 9.3005e-09)
(-8.13477e-08 -1.84371e-07 8.62491e-09)
(-3.53208e-08 -1.31534e-07 7.32475e-09)
(-4.01132e-09 -5.65147e-08 3.92504e-09)
(5.02991e-09 -1.00286e-07 5.01788e-09)
(4.30124e-08 -2.22168e-07 9.38882e-09)
(9.68583e-08 -3.05129e-07 1.11988e-08)
(1.61037e-07 -3.60981e-07 1.22875e-08)
(2.29163e-07 -3.96305e-07 1.34511e-08)
(2.9512e-07 -4.15423e-07 1.50087e-08)
(3.52477e-07 -4.21764e-07 1.7055e-08)
(3.95191e-07 -4.18163e-07 1.96052e-08)
(4.18022e-07 -4.07182e-07 2.25643e-08)
(4.17111e-07 -3.91228e-07 2.57503e-08)
(3.9011e-07 -3.72718e-07 2.90137e-08)
(3.36868e-07 -3.53856e-07 3.20711e-08)
(2.6021e-07 -3.37224e-07 3.47034e-08)
(1.64857e-07 -3.24733e-07 3.65221e-08)
(5.76674e-08 -3.18174e-07 3.7473e-08)
(-5.41656e-08 -3.18281e-07 3.75508e-08)
(-1.61847e-07 -3.249e-07 3.65454e-08)
(-2.57139e-07 -3.37347e-07 3.47071e-08)
(-3.33796e-07 -3.53955e-07 3.21279e-08)
(-3.87325e-07 -3.7278e-07 2.90806e-08)
(-4.14799e-07 -3.91286e-07 2.57992e-08)
(-4.1616e-07 -4.07225e-07 2.26008e-08)
(-3.93747e-07 -4.1821e-07 1.9646e-08)
(-3.51425e-07 -4.21815e-07 1.70957e-08)
(-2.94419e-07 -4.15511e-07 1.50449e-08)
(-2.2878e-07 -3.96457e-07 1.34871e-08)
(-1.60912e-07 -3.6123e-07 1.22995e-08)
(-9.68758e-08 -3.05412e-07 1.11699e-08)
(-4.30994e-08 -2.22322e-07 9.31343e-09)
(-5.08729e-09 -1.00525e-07 4.95417e-09)
(5.70397e-09 -1.51638e-07 5.71812e-09)
(4.83256e-08 -3.27293e-07 1.06996e-08)
(1.0781e-07 -4.44235e-07 1.28166e-08)
(1.7766e-07 -5.2331e-07 1.4163e-08)
(2.50867e-07 -5.74795e-07 1.55795e-08)
(3.2111e-07 -6.04841e-07 1.74163e-08)
(3.81798e-07 -6.17986e-07 1.97722e-08)
(4.26739e-07 -6.17884e-07 2.26746e-08)
(4.50512e-07 -6.07805e-07 2.60178e-08)
(4.49052e-07 -5.90818e-07 2.96255e-08)
(4.19934e-07 -5.70002e-07 3.32667e-08)
(3.62792e-07 -5.48168e-07 3.67303e-08)
(2.80196e-07 -5.28348e-07 3.97079e-08)
(1.7747e-07 -5.1311e-07 4.17567e-08)
(6.20388e-08 -5.0508e-07 4.28116e-08)
(-5.8341e-08 -5.05172e-07 4.28847e-08)
(-1.74318e-07 -5.13254e-07 4.17646e-08)
(-2.76884e-07 -5.28256e-07 3.9707e-08)
(-3.59495e-07 -5.48115e-07 3.6821e-08)
(-4.1698e-07 -5.69933e-07 3.33532e-08)
(-4.46607e-07 -5.90752e-07 2.96932e-08)
(-4.48551e-07 -6.07758e-07 2.6076e-08)
(-4.25218e-07 -6.17879e-07 2.27311e-08)
(-3.80685e-07 -6.18017e-07 1.98339e-08)
(-3.20349e-07 -6.04923e-07 1.74631e-08)
(-2.50417e-07 -5.74927e-07 1.56164e-08)
(-1.77478e-07 -5.23506e-07 1.41595e-08)
(-1.07811e-07 -4.44421e-07 1.27534e-08)
(-4.84465e-08 -3.27292e-07 1.05779e-08)
(-5.78859e-09 -1.51902e-07 5.63252e-09)
(6.08923e-09 -2.07677e-07 6.11022e-09)
(5.14662e-08 -4.41736e-07 1.14224e-08)
(1.14398e-07 -5.95246e-07 1.37226e-08)
(1.8773e-07 -6.99203e-07 1.5212e-08)
(2.64069e-07 -7.68234e-07 1.67866e-08)
(3.36966e-07 -8.10621e-07 1.88361e-08)
(3.99775e-07 -8.32143e-07 2.14523e-08)
(4.46242e-07 -8.37284e-07 2.46784e-08)
(4.70833e-07 -8.2997e-07 2.83952e-08)
(4.69325e-07 -8.13836e-07 3.24265e-08)
(4.39199e-07 -7.92511e-07 3.64864e-08)
(3.79854e-07 -7.69394e-07 4.03656e-08)
(2.93523e-07 -7.47772e-07 4.37291e-08)
(1.85912e-07 -7.30551e-07 4.60289e-08)
(6.49448e-08 -7.21349e-07 4.7165e-08)
(-6.11085e-08 -7.21391e-07 4.72403e-08)
(-1.82682e-07 -7.30745e-07 4.60143e-08)
(-2.90106e-07 -7.47592e-07 4.37446e-08)
(-3.76447e-07 -7.69333e-07 4.04957e-08)
(-4.3616e-07 -7.92445e-07 3.66083e-08)
(-4.66822e-07 -8.13767e-07 3.25251e-08)
(-4.68836e-07 -8.29929e-07 2.84799e-08)
(-4.44693e-07 -8.37294e-07 2.47534e-08)
(-3.9864e-07 -8.3219e-07 2.15285e-08)
(-3.3618e-07 -8.10701e-07 1.88881e-08)
(-2.63581e-07 -7.6833e-07 1.68262e-08)
(-1.87505e-07 -6.99298e-07 1.51911e-08)
(-1.14374e-07 -5.95224e-07 1.36192e-08)
(-5.15979e-08 -4.41487e-07 1.12702e-08)
(-6.18223e-09 -2.08009e-07 6.01915e-09)
(6.20603e-09 -2.65993e-07 6.25236e-09)
(5.25564e-08 -5.60893e-07 1.16806e-08)
(1.16706e-07 -7.52334e-07 1.40578e-08)
(1.91195e-07 -8.82124e-07 1.56243e-08)
(2.6851e-07 -9.69702e-07 1.72921e-08)
(3.42213e-07 -1.0257e-06 1.94916e-08)
(4.05728e-07 -1.0572e-06 2.23331e-08)
(4.5286e-07 -1.06954e-06 2.58528e-08)
(4.78049e-07 -1.06719e-06 2.99259e-08)
(4.76953e-07 -1.05426e-06 3.43797e-08)
(4.46935e-07 -1.03481e-06 3.88921e-08)
(3.87164e-07 -1.01262e-06 4.31683e-08)
(2.99379e-07 -9.91022e-07 4.69396e-08)
(1.89507e-07 -9.72747e-07 4.95131e-08)
(6.61397e-08 -9.6297e-07 5.07646e-08)
(-6.23716e-08 -9.6318e-07 5.0889e-08)
(-1.86379e-07 -9.73268e-07 4.95193e-08)
(-2.96026e-07 -9.90981e-07 4.69993e-08)
(-3.83754e-07 -1.01267e-06 4.33044e-08)
(-4.43899e-07 -1.03484e-06 3.9006e-08)
(-4.74436e-07 -1.05427e-06 3.44756e-08)
(-4.76037e-07 -1.06722e-06 3.00097e-08)
(-4.51292e-07 -1.06962e-06 2.59254e-08)
(-4.04563e-07 -1.05733e-06 2.24102e-08)
(-3.41385e-07 -1.02584e-06 1.95457e-08)
(-2.67976e-07 -9.69814e-07 1.73127e-08)
(-1.90924e-07 -8.82137e-07 1.55649e-08)
(-1.16653e-07 -7.52075e-07 1.39243e-08)
(-5.2681e-08 -5.60381e-07 1.1527e-08)
(-6.30706e-09 -2.66485e-07 6.17239e-09)
(6.10566e-09 -3.24432e-07 6.15126e-09)
(5.16869e-08 -6.80297e-07 1.14834e-08)
(1.14696e-07 -9.09872e-07 1.38466e-08)
(1.87779e-07 -1.06576e-06 1.54679e-08)
(2.636e-07 -1.17235e-06 1.71964e-08)
(3.3593e-07 -1.24293e-06 1.94582e-08)
(3.98398e-07 -1.28593e-06 2.24385e-08)
(4.45013e-07 -1.30745e-06 2.61687e-08)
(4.70322e-07 -1.31243e-06 3.05166e-08)
(4.69931e-07 -1.3053e-06 3.53185e-08)
(4.41077e-07 -1.29034e-06 4.02249e-08)
(3.82806e-07 -1.27143e-06 4.48446e-08)
(2.96307e-07 -1.25192e-06 4.8919e-08)
(1.87414e-07 -1.23425e-06 5.17936e-08)
(6.54285e-08 -1.22505e-06 5.32525e-08)
(-6.17644e-08 -1.22528e-06 5.3373e-08)
(-1.84379e-07 -1.23467e-06 5.17403e-08)
(-2.93037e-07 -1.25182e-06 4.89639e-08)
(-3.79421e-07 -1.27153e-06 4.49668e-08)
(-4.38108e-07 -1.29049e-06 4.03284e-08)
(-4.67451e-07 -1.30541e-06 3.54174e-08)
(-4.6835e-07 -1.31254e-06 3.06041e-08)
(-4.43478e-07 -1.30763e-06 2.6241e-08)
(-3.97235e-07 -1.28617e-06 2.25094e-08)
(-3.35083e-07 -1.24316e-06 1.94881e-08)
(-2.6305e-07 -1.17243e-06 1.71445e-08)
(-1.87472e-07 -1.0655e-06 1.53438e-08)
(-1.14593e-07 -9.09165e-07 1.36945e-08)
(-5.17604e-08 -6.79454e-07 1.13354e-08)
(-6.18738e-09 -3.25013e-07 6.06947e-09)
(5.78433e-09 -3.80772e-07 5.7771e-09)
(4.88168e-08 -7.95425e-07 1.07878e-08)
(1.0826e-07 -1.06204e-06 1.30174e-08)
(1.77179e-07 -1.24359e-06 1.46381e-08)
(2.48743e-07 -1.36909e-06 1.64207e-08)
(3.17143e-07 -1.45461e-06 1.86946e-08)
(3.76441e-07 -1.51023e-06 2.16899e-08)
(4.21015e-07 -1.54263e-06 2.549e-08)
(4.45695e-07 -1.55712e-06 2.99426e-08)
(4.46156e-07 -1.55825e-06 3.49107e-08)
(4.19526e-07 -1.55034e-06 4.00401e-08)
(3.64714e-07 -1.53705e-06 4.4897e-08)
(2.82553e-07 -1.52147e-06 4.90462e-08)
(1.78557e-07 -1.50614e-06 5.21163e-08)
(6.23639e-08 -1.4987e-06 5.38079e-08)
(-5.90234e-08 -1.49892e-06 5.39311e-08)
(-1.75775e-07 -1.50622e-06 5.20584e-08)
(-2.79332e-07 -1.52062e-06 4.90676e-08)
(-3.61334e-07 -1.5366e-06 4.50191e-08)
(-4.16645e-07 -1.55038e-06 4.01347e-08)
(-4.43708e-07 -1.55842e-06 3.50131e-08)
(-4.43777e-07 -1.55732e-06 3.00285e-08)
(-4.19542e-07 -1.54295e-06 2.55558e-08)
(-3.75297e-07 -1.51063e-06 2.17669e-08)
(-3.16276e-07 -1.45491e-06 1.87169e-08)
(-2.4814e-07 -1.36892e-06 1.63703e-08)
(-1.76777e-07 -1.24279e-06 1.4609e-08)
(-1.08022e-07 -1.06081e-06 1.30278e-08)
(-4.87819e-08 -7.9435e-07 1.07997e-08)
(-5.82312e-09 -3.8146e-07 5.77047e-09)
(5.23683e-09 -4.32675e-07 5.15454e-09)
(4.38888e-08 -9.01364e-07 9.66759e-09)
(9.72967e-08 -1.20237e-06 1.16536e-08)
(1.59155e-07 -1.40834e-06 1.31447e-08)
(2.2346e-07 -1.55215e-06 1.4908e-08)
(2.85095e-07 -1.6523e-06 1.71352e-08)
(3.3883e-07 -1.72093e-06 2.00138e-08)
(3.79545e-07 -1.76532e-06 2.36697e-08)
(4.02563e-07 -1.79083e-06 2.79481e-08)
(4.03768e-07 -1.802e-06 3.28046e-08)
(3.80183e-07 -1.80293e-06 3.7889e-08)
(3.30831e-07 -1.7967e-06 4.27354e-08)
(2.5658e-07 -1.78678e-06 4.67413e-08)
(1.6235e-07 -1.77623e-06 4.98328e-08)
(5.67708e-08 -1.7713e-06 5.15927e-08)
(-5.37771e-08 -1.77157e-06 5.17495e-08)
(-1.59819e-07 -1.77617e-06 4.98461e-08)
(-2.53514e-07 -1.78577e-06 4.66657e-08)
(-3.27835e-07 -1.79643e-06 4.27431e-08)
(-3.7767e-07 -1.8031e-06 3.78927e-08)
(-4.01461e-07 -1.80228e-06 3.28944e-08)
(-4.00756e-07 -1.79107e-06 2.80408e-08)
(-3.78201e-07 -1.76573e-06 2.3726e-08)
(-3.37797e-07 -1.72151e-06 2.01043e-08)
(-2.84351e-07 -1.65251e-06 1.71606e-08)
(-2.2293e-07 -1.55123e-06 1.48537e-08)
(-1.58708e-07 -1.40653e-06 1.30828e-08)
(-9.69112e-08 -1.20037e-06 1.15429e-08)
(-4.37233e-08 -8.9986e-07 9.54414e-09)
(-5.18919e-09 -4.33267e-07 5.12823e-09)
(4.43546e-09 -4.77845e-07 4.28943e-09)
(3.68373e-08 -9.9309e-07 8.07308e-09)
(8.16149e-08 -1.32363e-06 9.77693e-09)
(1.33704e-07 -1.55147e-06 1.11181e-08)
(1.87874e-07 -1.71245e-06 1.27393e-08)
(2.3982e-07 -1.82663e-06 1.48348e-08)
(2.85391e-07 -1.90787e-06 1.74661e-08)
(3.20229e-07 -1.96441e-06 2.07187e-08)
(3.40358e-07 -2.00146e-06 2.44634e-08)
(3.41996e-07 -2.02307e-06 2.87755e-08)
(3.22324e-07 -2.03276e-06 3.32769e-08)
(2.80546e-07 -2.03424e-06 3.75742e-08)
(2.17679e-07 -2.03173e-06 4.13181e-08)
(1.38132e-07 -2.02778e-06 4.43213e-08)
(4.83718e-08 -2.02597e-06 4.60014e-08)
(-4.58125e-08 -2.02611e-06 4.61674e-08)
(-1.36035e-07 -2.02751e-06 4.45278e-08)
(-2.15202e-07 -2.03156e-06 4.15821e-08)
(-2.78209e-07 -2.03627e-06 3.80721e-08)
(-3.20157e-07 -2.03439e-06 3.35833e-08)
(-3.39852e-07 -2.02373e-06 2.89773e-08)
(-3.38714e-07 -2.00162e-06 2.45071e-08)
(-3.19099e-07 -1.96475e-06 2.05125e-08)
(-2.84495e-07 -1.90841e-06 1.71646e-08)
(-2.39104e-07 -1.8264e-06 1.4475e-08)
(-1.87192e-07 -1.71076e-06 1.24266e-08)
(-1.3311e-07 -1.54908e-06 1.09194e-08)
(-8.12643e-08 -1.32149e-06 9.67021e-09)
(-3.67182e-08 -9.91321e-07 8.03641e-09)
(-4.37699e-09 -4.78234e-07 4.35109e-09)
(3.47022e-09 -5.13854e-07 3.12721e-09)
(2.81553e-08 -1.06591e-06 5.84888e-09)
(6.19054e-08 -1.41974e-06 7.15654e-09)
(1.01433e-07 -1.66511e-06 8.19397e-09)
(1.42677e-07 -1.84063e-06 9.37969e-09)
(1.82313e-07 -1.96754e-06 1.1006e-08)
(2.17136e-07 -2.06024e-06 1.3173e-08)
(2.43891e-07 -2.12774e-06 1.59655e-08)
(2.59864e-07 -2.17529e-06 1.91752e-08)
(2.61722e-07 -2.2061e-06 2.2696e-08)
(2.46684e-07 -2.22419e-06 2.61313e-08)
(2.14501e-07 -2.23474e-06 2.9572e-08)
(1.668e-07 -2.24083e-06 3.28971e-08)
(1.06357e-07 -2.24269e-06 3.53937e-08)
(3.75036e-08 -2.2433e-06 3.66767e-08)
(-3.47537e-08 -2.24267e-06 3.65712e-08)
(-1.04224e-07 -2.24091e-06 3.5179e-08)
(-1.64929e-07 -2.23954e-06 3.26896e-08)
(-2.13102e-07 -2.23708e-06 2.96939e-08)
(-2.44881e-07 -2.22608e-06 2.61261e-08)
(-2.59596e-07 -2.20658e-06 2.25164e-08)
(-2.58374e-07 -2.175e-06 1.90187e-08)
(-2.43026e-07 -2.12769e-06 1.58646e-08)
(-2.16349e-07 -2.06031e-06 1.31865e-08)
(-1.817e-07 -1.96688e-06 1.10447e-08)
(-1.42242e-07 -1.8392e-06 9.44125e-09)
(-1.01184e-07 -1.664e-06 8.29037e-09)
(-6.17681e-08 -1.4195e-06 7.34819e-09)
(-2.78792e-08 -1.06549e-06 6.10263e-09)
(-3.33318e-09 -5.14739e-07 3.28097e-09)
(2.1994e-09 -5.39559e-07 2.03144e-09)
(1.77963e-08 -1.11736e-06 3.76248e-09)
(3.90815e-08 -1.4877e-06 4.49754e-09)
(6.40799e-08 -1.74449e-06 5.0364e-09)
(8.99476e-08 -1.92968e-06 5.73221e-09)
(1.14774e-07 -2.06594e-06 6.79744e-09)
(1.3662e-07 -2.16742e-06 8.25227e-09)
(1.53344e-07 -2.24339e-06 1.01469e-08)
(1.63605e-07 -2.29915e-06 1.23779e-08)
(1.65225e-07 -2.33738e-06 1.47426e-08)
(1.55925e-07 -2.36352e-06 1.70819e-08)
(1.35835e-07 -2.38239e-06 1.95329e-08)
(1.05969e-07 -2.39538e-06 2.18066e-08)
(6.77948e-08 -2.40173e-06 2.35002e-08)
(2.4223e-08 -2.40403e-06 2.42733e-08)
(-2.14124e-08 -2.40173e-06 2.3875e-08)
(-6.55766e-08 -2.39676e-06 2.2792e-08)
(-1.03874e-07 -2.39055e-06 2.09425e-08)
(-1.34183e-07 -2.3809e-06 1.86216e-08)
(-1.54533e-07 -2.36184e-06 1.60964e-08)
(-1.64053e-07 -2.33467e-06 1.37224e-08)
(-1.63227e-07 -2.2955e-06 1.16502e-08)
(-1.53385e-07 -2.24102e-06 9.83471e-09)
(-1.36402e-07 -2.16702e-06 8.32672e-09)
(-1.14361e-07 -2.06653e-06 7.09852e-09)
(-8.9349e-08 -1.93045e-06 6.10658e-09)
(-6.34663e-08 -1.74525e-06 5.37601e-09)
(-3.86989e-08 -1.4884e-06 4.75545e-09)
(-1.74581e-08 -1.11743e-06 3.92432e-09)
(-2.10484e-09 -5.40235e-07 2.06355e-09)
(8.11083e-10 -5.52994e-07 6.4133e-10)
(6.23128e-09 -1.14381e-06 1.27866e-09)
(1.36107e-08 -1.52333e-06 1.60711e-09)
(2.24827e-08 -1.78666e-06 1.82353e-09)
(3.1606e-08 -1.97718e-06 2.10821e-09)
(4.0414e-08 -2.11793e-06 2.55321e-09)
(4.83925e-08 -2.22289e-06 3.08072e-09)
(5.45781e-08 -2.30158e-06 3.61398e-09)
(5.82925e-08 -2.36104e-06 4.3028e-09)
(5.88438e-08 -2.40487e-06 5.24728e-09)
(5.55185e-08 -2.43726e-06 6.23036e-09)
(4.85483e-08 -2.46105e-06 7.13903e-09)
(3.79058e-08 -2.47705e-06 7.83864e-09)
(2.43656e-08 -2.48611e-06 8.57815e-09)
(9.14416e-09 -2.49047e-06 8.93325e-09)
(-6.95364e-09 -2.48816e-06 8.64846e-09)
(-2.31083e-08 -2.48193e-06 8.29379e-09)
(-3.65806e-08 -2.47334e-06 7.62022e-09)
(-4.7046e-08 -2.46006e-06 6.6632e-09)
(-5.41852e-08 -2.43633e-06 5.72397e-09)
(-5.75234e-08 -2.40341e-06 4.86218e-09)
(-5.73642e-08 -2.35861e-06 4.10582e-09)
(-5.40677e-08 -2.2997e-06 3.40444e-09)
(-4.82124e-08 -2.22239e-06 2.84182e-09)
(-4.04499e-08 -2.11854e-06 2.43094e-09)
(-3.1526e-08 -1.97824e-06 2.09203e-09)
(-2.23179e-08 -1.78781e-06 1.83437e-09)
(-1.35529e-08 -1.52446e-06 1.61994e-09)
(-6.06892e-09 -1.14455e-06 1.37473e-09)
(-6.95135e-10 -5.53539e-07 7.36881e-10)
(-5.83777e-10 -5.53544e-07 -6.88014e-10)
(-5.41963e-09 -1.14479e-06 -1.24692e-09)
(-1.21841e-08 -1.52487e-06 -1.46407e-09)
(-1.98818e-08 -1.78843e-06 -1.6475e-09)
(-2.79453e-08 -1.97916e-06 -1.88266e-09)
(-3.57114e-08 -2.12023e-06 -2.21618e-09)
(-4.2568e-08 -2.22558e-06 -2.65046e-09)
(-4.79761e-08 -2.30459e-06 -3.1894e-09)
(-5.11334e-08 -2.36403e-06 -3.86847e-09)
(-5.12991e-08 -2.40748e-06 -4.62177e-09)
(-4.80982e-08 -2.43973e-06 -5.56245e-09)
(-4.17826e-08 -2.46348e-06 -6.60172e-09)
(-3.28992e-08 -2.47917e-06 -7.4676e-09)
(-2.14568e-08 -2.48851e-06 -7.80679e-09)
(-7.64511e-09 -2.49278e-06 -7.83731e-09)
(7.1677e-09 -2.4902e-06 -7.72957e-09)
(2.07401e-08 -2.48483e-06 -7.21365e-09)
(3.32983e-08 -2.4765e-06 -6.5845e-09)
(4.29022e-08 -2.46258e-06 -6.03487e-09)
(4.87742e-08 -2.4387e-06 -5.16735e-09)
(5.18428e-08 -2.40581e-06 -4.2531e-09)
(5.17982e-08 -2.36087e-06 -3.39598e-09)
(4.88847e-08 -2.30179e-06 -2.85722e-09)
(4.35396e-08 -2.2241e-06 -2.51837e-09)
(3.64041e-08 -2.11986e-06 -2.17275e-09)
(2.84664e-08 -1.97927e-06 -1.90023e-09)
(2.02443e-08 -1.78859e-06 -1.67102e-09)
(1.23733e-08 -1.52512e-06 -1.449e-09)
(5.64225e-09 -1.14507e-06 -1.12043e-09)
(7.29188e-10 -5.53831e-07 -5.63643e-10)
(-2.02604e-09 -5.40988e-07 -2.00469e-09)
(-1.69048e-08 -1.11915e-06 -3.79719e-09)
(-3.74699e-08 -1.4909e-06 -4.6151e-09)
(-6.13668e-08 -1.74837e-06 -5.22874e-09)
(-8.63595e-08 -1.93426e-06 -5.94589e-09)
(-1.10478e-07 -2.07144e-06 -6.90885e-09)
(-1.31622e-07 -2.17358e-06 -8.1797e-09)
(-1.47804e-07 -2.24952e-06 -9.83686e-09)
(-1.57264e-07 -2.30542e-06 -1.18968e-08)
(-1.58326e-07 -2.344e-06 -1.40566e-08)
(-1.49226e-07 -2.37066e-06 -1.64453e-08)
(-1.29893e-07 -2.38984e-06 -1.89706e-08)
(-1.01596e-07 -2.40289e-06 -2.11495e-08)
(-6.52787e-08 -2.4106e-06 -2.25395e-08)
(-2.28416e-08 -2.41358e-06 -2.30763e-08)
(2.17861e-08 -2.41032e-06 -2.27649e-08)
(6.39115e-08 -2.40635e-06 -2.17435e-08)
(1.01501e-07 -2.40077e-06 -2.00919e-08)
(1.30462e-07 -2.38918e-06 -1.82326e-08)
(1.49259e-07 -2.36926e-06 -1.58282e-08)
(1.58751e-07 -2.34169e-06 -1.35413e-08)
(1.57926e-07 -2.30215e-06 -1.13289e-08)
(1.4809e-07 -2.24668e-06 -9.42339e-09)
(1.31743e-07 -2.1715e-06 -7.83528e-09)
(1.10613e-07 -2.07049e-06 -6.53862e-09)
(8.6747e-08 -1.93411e-06 -5.57159e-09)
(6.18078e-08 -1.74855e-06 -4.83741e-09)
(3.78248e-08 -1.49142e-06 -4.26591e-09)
(1.72503e-08 -1.11984e-06 -3.5093e-09)
(2.17566e-09 -5.41177e-07 -1.89801e-09)
(-3.31243e-09 -5.16097e-07 -3.1905e-09)
(-2.74326e-08 -1.0685e-06 -5.9601e-09)
(-6.06662e-08 -1.42374e-06 -7.22319e-09)
(-9.93606e-08 -1.66914e-06 -8.15703e-09)
(-1.3969e-07 -1.84519e-06 -9.27895e-09)
(-1.78504e-07 -1.97377e-06 -1.08198e-08)
(-2.1261e-07 -2.06819e-06 -1.28727e-08)
(-2.38844e-07 -2.13668e-06 -1.55317e-08)
(-2.54128e-07 -2.18526e-06 -1.87682e-08)
(-2.55675e-07 -2.21689e-06 -2.21827e-08)
(-2.41019e-07 -2.23558e-06 -2.56936e-08)
(-2.09545e-07 -2.24641e-06 -2.90727e-08)
(-1.63215e-07 -2.25309e-06 -3.21898e-08)
(-1.04481e-07 -2.25661e-06 -3.45336e-08)
(-3.65948e-08 -2.25803e-06 -3.5723e-08)
(3.47532e-08 -2.25548e-06 -3.54374e-08)
(1.0278e-07 -2.25404e-06 -3.40862e-08)
(1.63168e-07 -2.25321e-06 -3.17703e-08)
(2.09963e-07 -2.24689e-06 -2.89217e-08)
(2.40873e-07 -2.2345e-06 -2.54421e-08)
(2.56015e-07 -2.21515e-06 -2.19984e-08)
(2.54951e-07 -2.18419e-06 -1.86139e-08)
(2.39514e-07 -2.13672e-06 -1.55963e-08)
(2.13197e-07 -2.06877e-06 -1.29389e-08)
(1.78931e-07 -1.97504e-06 -1.08065e-08)
(1.39944e-07 -1.84677e-06 -9.19583e-09)
(9.94451e-08 -1.67039e-06 -7.89349e-09)
(6.08486e-08 -1.42491e-06 -6.8882e-09)
(2.77627e-08 -1.06969e-06 -5.63683e-09)
(3.47249e-09 -5.15993e-07 -3.03738e-09)
(-4.41217e-09 -4.80182e-07 -4.21196e-09)
(-3.64577e-08 -9.95601e-07 -7.85978e-09)
(-8.04793e-08 -1.32716e-06 -9.55591e-09)
(-1.31813e-07 -1.55569e-06 -1.08389e-08)
(-1.85342e-07 -1.7183e-06 -1.23367e-08)
(-2.36812e-07 -1.83492e-06 -1.4365e-08)
(-2.81895e-07 -1.91793e-06 -1.70283e-08)
(-3.16295e-07 -1.97535e-06 -2.03232e-08)
(-3.36005e-07 -2.01345e-06 -2.42267e-08)
(-3.37543e-07 -2.03627e-06 -2.84792e-08)
(-3.18128e-07 -2.04698e-06 -3.29737e-08)
(-2.76716e-07 -2.04912e-06 -3.7179e-08)
(-2.14915e-07 -2.04748e-06 -4.08473e-08)
(-1.36777e-07 -2.04549e-06 -4.37961e-08)
(-4.74402e-08 -2.04493e-06 -4.55637e-08)
(4.59609e-08 -2.04335e-06 -4.54218e-08)
(1.35238e-07 -2.0448e-06 -4.37641e-08)
(2.14717e-07 -2.04927e-06 -4.0805e-08)
(2.76798e-07 -2.05008e-06 -3.71412e-08)
(3.1782e-07 -2.04655e-06 -3.30249e-08)
(3.37391e-07 -2.03561e-06 -2.85649e-08)
(3.36412e-07 -2.01354e-06 -2.41791e-08)
(3.16829e-07 -1.97592e-06 -2.04266e-08)
(2.82437e-07 -1.91848e-06 -1.724e-08)
(2.37306e-07 -1.83586e-06 -1.46744e-08)
(1.85814e-07 -1.72022e-06 -1.26681e-08)
(1.32205e-07 -1.5587e-06 -1.10164e-08)
(8.06995e-08 -1.33091e-06 -9.65586e-09)
(3.65073e-08 -9.98751e-07 -7.92998e-09)
(4.41071e-09 -4.8028e-07 -4.21724e-09)
(-5.20119e-09 -4.35353e-07 -5.11272e-09)
(-4.35175e-08 -9.04865e-07 -9.55103e-09)
(-9.63171e-08 -1.20671e-06 -1.15534e-08)
(-1.57844e-07 -1.41392e-06 -1.30571e-08)
(-2.21826e-07 -1.55973e-06 -1.47784e-08)
(-2.8315e-07 -1.6621e-06 -1.70642e-08)
(-3.36567e-07 -1.73224e-06 -1.9992e-08)
(-3.77012e-07 -1.77767e-06 -2.36049e-08)
(-3.99777e-07 -1.80431e-06 -2.79188e-08)
(-4.00902e-07 -1.81667e-06 -3.27169e-08)
(-3.77461e-07 -1.81858e-06 -3.77913e-08)
(-3.28347e-07 -1.81327e-06 -4.25824e-08)
(-2.54851e-07 -1.80422e-06 -4.6585e-08)
(-1.61601e-07 -1.79569e-06 -4.96865e-08)
(-5.5699e-08 -1.79166e-06 -5.17025e-08)
(5.44062e-08 -1.79051e-06 -5.16735e-08)
(1.59939e-07 -1.79518e-06 -4.99791e-08)
(2.53923e-07 -1.80551e-06 -4.68468e-08)
(3.27735e-07 -1.81399e-06 -4.26092e-08)
(3.77008e-07 -1.81894e-06 -3.78437e-08)
(4.00715e-07 -1.8169e-06 -3.27616e-08)
(3.99994e-07 -1.80473e-06 -2.78743e-08)
(3.77347e-07 -1.7783e-06 -2.35863e-08)
(3.36981e-07 -1.73294e-06 -1.9935e-08)
(2.83574e-07 -1.66306e-06 -1.70231e-08)
(2.22268e-07 -1.56151e-06 -1.48378e-08)
(1.58357e-07 -1.41712e-06 -1.31223e-08)
(9.68027e-08 -1.21094e-06 -1.15798e-08)
(4.38204e-08 -9.0827e-07 -9.55768e-09)
(5.26888e-09 -4.35374e-07 -5.0982e-09)
(-5.79139e-09 -3.83496e-07 -5.78834e-09)
(-4.8662e-08 -7.99626e-07 -1.08079e-08)
(-1.07827e-07 -1.06738e-06 -1.30305e-08)
(-1.76559e-07 -1.25052e-06 -1.46102e-08)
(-2.47929e-07 -1.37788e-06 -1.63555e-08)
(-3.16195e-07 -1.46504e-06 -1.86877e-08)
(-3.7539e-07 -1.52191e-06 -2.17409e-08)
(-4.19868e-07 -1.55538e-06 -2.55324e-08)
(-4.44424e-07 -1.57094e-06 -3.00128e-08)
(-4.44799e-07 -1.57314e-06 -3.49709e-08)
(-4.18118e-07 -1.56623e-06 -4.01338e-08)
(-3.63374e-07 -1.55414e-06 -4.5048e-08)
(-2.81906e-07 -1.53995e-06 -4.92576e-08)
(-1.78555e-07 -1.52651e-06 -5.23183e-08)
(-6.14954e-08 -1.51894e-06 -5.4125e-08)
(5.98778e-08 -1.51794e-06 -5.39575e-08)
(1.76683e-07 -1.52528e-06 -5.23306e-08)
(2.80552e-07 -1.53968e-06 -4.92731e-08)
(3.62438e-07 -1.55406e-06 -4.49616e-08)
(4.17476e-07 -1.56639e-06 -4.01198e-08)
(4.44455e-07 -1.57337e-06 -3.49795e-08)
(4.44407e-07 -1.57136e-06 -3.00048e-08)
(4.20043e-07 -1.55596e-06 -2.55321e-08)
(3.75731e-07 -1.5226e-06 -2.17161e-08)
(3.16655e-07 -1.46588e-06 -1.86695e-08)
(2.4844e-07 -1.37902e-06 -1.63878e-08)
(1.77009e-07 -1.2524e-06 -1.46838e-08)
(1.08096e-07 -1.07012e-06 -1.31041e-08)
(4.8774e-08 -8.02141e-07 -1.08509e-08)
(5.76658e-09 -3.83545e-07 -5.79265e-09)
(-6.14056e-09 -3.27156e-07 -6.14483e-09)
(-5.17392e-08 -6.8461e-07 -1.14132e-08)
(-1.14793e-07 -9.15707e-07 -1.3726e-08)
(-1.87873e-07 -1.07323e-06 -1.5371e-08)
(-2.63677e-07 -1.18133e-06 -1.71719e-08)
(-3.36034e-07 -1.25314e-06 -1.95197e-08)
(-3.98547e-07 -1.29721e-06 -2.25567e-08)
(-4.45185e-07 -1.31973e-06 -2.63041e-08)
(-4.70459e-07 -1.32569e-06 -3.06944e-08)
(-4.69977e-07 -1.31952e-06 -3.55182e-08)
(-4.40936e-07 -1.30546e-06 -4.04727e-08)
(-3.82551e-07 -1.28758e-06 -4.51728e-08)
(-2.96507e-07 -1.26918e-06 -4.9279e-08)
(-1.87782e-07 -1.25306e-06 -5.21813e-08)
(-6.46627e-08 -1.24361e-06 -5.3778e-08)
(6.28847e-08 -1.24309e-06 -5.36599e-08)
(1.85869e-07 -1.25235e-06 -5.2234e-08)
(2.94968e-07 -1.26912e-06 -4.93099e-08)
(3.81465e-07 -1.2877e-06 -4.51682e-08)
(4.40178e-07 -1.3057e-06 -4.05139e-08)
(4.69529e-07 -1.31982e-06 -3.55606e-08)
(4.703e-07 -1.32611e-06 -3.07243e-08)
(4.45234e-07 -1.32028e-06 -2.63328e-08)
(3.98756e-07 -1.2979e-06 -2.25744e-08)
(3.36352e-07 -1.25398e-06 -1.95417e-08)
(2.64047e-07 -1.18235e-06 -1.72254e-08)
(1.88161e-07 -1.07457e-06 -1.55213e-08)
(1.14889e-07 -9.17551e-07 -1.3981e-08)
(5.17402e-08 -6.86593e-07 -1.16446e-08)
(6.07464e-09 -3.27149e-07 -6.21038e-09)
(-6.25079e-09 -2.68589e-07 -6.27804e-09)
(-5.2752e-08 -5.65011e-07 -1.16592e-08)
(-1.17116e-07 -7.58165e-07 -1.39926e-08)
(-1.9179e-07 -8.89385e-07 -1.56199e-08)
(-2.6929e-07 -9.78095e-07 -1.73738e-08)
(-3.43208e-07 -1.03507e-06 -1.96275e-08)
(-4.06905e-07 -1.06747e-06 -2.2512e-08)
(-4.54158e-07 -1.08066e-06 -2.60543e-08)
(-4.79385e-07 -1.07914e-06 -3.01784e-08)
(-4.78196e-07 -1.06703e-06 -3.46715e-08)
(-4.47871e-07 -1.04833e-06 -3.92467e-08)
(-3.87809e-07 -1.02687e-06 -4.36224e-08)
(-3.00176e-07 -1.00591e-06 -4.74111e-08)
(-1.90239e-07 -9.88877e-07 -5.00713e-08)
(-6.56484e-08 -9.79104e-07 -5.14708e-08)
(6.36624e-08 -9.78832e-07 -5.14184e-08)
(1.88132e-07 -9.88454e-07 -5.01268e-08)
(2.98576e-07 -1.006e-06 -4.73912e-08)
(3.86767e-07 -1.02698e-06 -4.35907e-08)
(4.47105e-07 -1.04847e-06 -3.92888e-08)
(4.77671e-07 -1.06724e-06 -3.47255e-08)
(4.79125e-07 -1.07947e-06 -3.02232e-08)
(4.54111e-07 -1.08111e-06 -2.60956e-08)
(4.07008e-07 -1.06804e-06 -2.25426e-08)
(3.43403e-07 -1.03575e-06 -1.96572e-08)
(2.69539e-07 -9.7889e-07 -1.74157e-08)
(1.92007e-07 -8.90313e-07 -1.5716e-08)
(1.17232e-07 -7.59329e-07 -1.41812e-08)
(5.27797e-08 -5.66421e-07 -1.18379e-08)
(6.22087e-09 -2.6853e-07 -6.32093e-09)
(-6.15779e-09 -2.09844e-07 -6.12112e-09)
(-5.17923e-08 -4.45414e-07 -1.13976e-08)
(-1.15033e-07 -6.00514e-07 -1.37087e-08)
(-1.88718e-07 -7.05624e-07 -1.52776e-08)
(-2.65409e-07 -7.75543e-07 -1.69253e-08)
(-3.3866e-07 -8.18704e-07 -1.90129e-08)
(-4.01764e-07 -8.40933e-07 -2.16769e-08)
(-4.48438e-07 -8.4674e-07 -2.49349e-08)
(-4.73135e-07 -8.40062e-07 -2.87086e-08)
(-4.71534e-07 -8.24553e-07 -3.27949e-08)
(-4.41011e-07 -8.03805e-07 -3.69544e-08)
(-3.81218e-07 -7.81182e-07 -4.09422e-08)
(-2.94817e-07 -7.60027e-07 -4.43283e-08)
(-1.86956e-07 -7.43712e-07 -4.67046e-08)
(-6.46076e-08 -7.34641e-07 -4.79508e-08)
(6.26313e-08 -7.34284e-07 -4.79141e-08)
(1.84752e-07 -7.43155e-07 -4.66968e-08)
(2.93177e-07 -7.59954e-07 -4.42552e-08)
(3.80144e-07 -7.81161e-07 -4.08606e-08)
(4.40186e-07 -8.03838e-07 -3.69617e-08)
(4.70922e-07 -8.24687e-07 -3.28432e-08)
(4.72787e-07 -8.40312e-07 -2.87523e-08)
(4.48319e-07 -8.47095e-07 -2.4975e-08)
(4.01795e-07 -8.41369e-07 -2.1706e-08)
(3.38785e-07 -8.19219e-07 -1.90394e-08)
(2.65598e-07 -7.76137e-07 -1.69527e-08)
(1.88915e-07 -7.06294e-07 -1.53201e-08)
(1.15188e-07 -6.01279e-07 -1.37972e-08)
(5.18076e-08 -4.46331e-07 -1.15251e-08)
(6.1195e-09 -2.09909e-07 -6.1639e-09)
(-5.79795e-09 -1.53356e-07 -5.70087e-09)
(-4.87523e-08 -3.3041e-07 -1.06672e-08)
(-1.0863e-07 -4.48684e-07 -1.2838e-08)
(-1.78933e-07 -5.28629e-07 -1.42531e-08)
(-2.52572e-07 -5.80749e-07 -1.57285e-08)
(-3.23247e-07 -6.11351e-07 -1.7596e-08)
(-3.8431e-07 -6.25005e-07 -1.99983e-08)
(-4.29511e-07 -6.25378e-07 -2.29272e-08)
(-4.5343e-07 -6.15736e-07 -2.6317e-08)
(-4.51888e-07 -5.9918e-07 -2.99732e-08)
(-4.22345e-07 -5.78708e-07 -3.37312e-08)
(-3.64705e-07 -5.57217e-07 -3.72916e-08)
(-2.81943e-07 -5.37794e-07 -4.03022e-08)
(-1.78764e-07 -5.23075e-07 -4.24319e-08)
(-6.18249e-08 -5.15098e-07 -4.35877e-08)
(5.98993e-08 -5.14757e-07 -4.35487e-08)