/*--------------------------------*- C++ -*----------------------------------*\
| =========                 |                                                 |
| \\      /  F ield         | OpenFOAM: The Open Source CFD Toolbox           |
|  \\    /   O peration     | Version:  v1912                                 |
|   \\  /    A nd           | Website:  www.openfoam.com                      |
|    \\/     M anipulation  |                                                 |
\*---------------------------------------------------------------------------*/
FoamFile
{
    version     2.0;
    format      ascii;
    class       volScalarField;
    location    "424/oil";
    object      wallHeatFlux;
}
// * * * * * * * * * * * * * * * * * * * * * * * * * * * * * * * * * * * * * //

dimensions      [1 0 -3 0 0 0 0];


internalField   uniform 0;

boundaryField
{
    maxY
    {
        type            calculated;
        value           uniform 0;
    }
    minX
    {
        type            calculated;
        value           uniform 0;
    }
    maxX
    {
        type            calculated;
        value           uniform 0;
    }
    minY
    {
        type            calculated;
        value           uniform 0;
    }
    minZ
    {
        type            calculated;
        value           uniform 0;
    }
    maxZ
    {
        type            calculated;
        value           uniform 0;
    }
    oil_to_sphere
    {
        type            calculated;
        value           nonuniform List<scalar> 
1536
(
751.947
469.874
462.862
-49.75
-61.6781
456.789
228.652
323.476
289.675
-4.62245
-212.07
34.2544
284.728
44.602
-277.597
198.267
457.313
476.477
183.309
269.892
389.078
294.348
313.964
195.23
222.639
208.864
221.881
160.769
439.861
303.168
524.392
471.973
481.555
201.503
217.99
163.392
189.633
106.753
158.607
220.497
147.239
188.138
280.004
337.484
406.662
216.977
382.345
308.955
-255.467
207.154
362.691
293.533
303.542
195.151
430.735
623.549
310.93
270.484
384.391
358.511
272.809
281.779
267.145
187.616
214.993
260.463
269.199
369.007
366.951
429.672
186.237
-63.0393
28.3402
209.552
208.384
642.238
485.233
108.688
198.898
466.533
392.863
350.963
-47.1648
-54.4553
438.466
697.155
-120.337
245.337
358.726
357.422
288.999
172.83
168.055
180.879
207.881
335.149
386.248
405.716
505.839
350.93
394.731
182.238
756.199
364.949
16.0295
202.866
226.148
-29.9393
-32.7854
763.15
482.413
321.803
279.708
314.446
-87.5231
-60.6116
-143.195
571.72
725.524
497.893
301.871
314.45
155.397
382.937
521.362
336.345
300.169
136.813
400.297
383.683
261.586
372.265
427.113
229.25
246.628
444.055
316.057
468.685
142.025
460.172
292.397
380.385
383.292
283.913
251.509
277.627
340.644
558.585
246.805
768.086
418.487
458.136
310.905
326.377
209.894
336.043
442.513
376.285
813.913
503.592
481.703
571.681
66.4291
111.124
176.608
172.044
427.35
546.635
506.144
623.895
159.355
176.848
111.2
386.781
299.499
325.893
672.838
79.4083
12.6879
697.397
166.368
115.431
104.439
131.063
355.974
697.64
505.541
146.184
56.2842
471.776
74.3779
423.183
423.894
549.262
31.0258
-339.025
538.454
577.472
221.269
206.656
294.604
232.107
475.992
535.087
411.29
351.682
178.362
557.316
507.785
321.087
136.67
214.87
203.443
235.141
391.594
632.381
53.8249
39.9221
48.6477
-377.597
455.83
388.48
348.85
291.926
303.902
557.628
421.118
209.27
457.308
-2.58284
164.288
-326.585
283.049
437.425
539.852
510.444
457.517
398.488
497.116
28.404
69.0095
101.854
584.165
122.06
-332.31
-132.653
390.916
270.308
676.939
803.04
319.187
-55.3694
-369.724
357.557
498.729
181.612
190.232
-99.9109
171.202
556.939
708.106
266.693
189.399
609.57
506.87
212.506
19.5639
245.943
641.45
574.372
399.131
424.745
528.055
104.083
201.502
542.783
424.271
462.835
279.844
457.662
624.576
408.244
385.216
594.187
183.365
180.026
204.182
158.766
175.114
553.14
650.526
28.4942
238.553
223.507
234.06
145.517
304.007
276.764
115.763
-96.3777
167.908
37.3538
143.85
698.238
600.88
595.461
775.399
86.5216
106.939
291.932
769.359
704.46
164.336
281.801
149.691
418.893
194.812
383.414
406.842
485.957
432.642
217.653
442.331
164.988
529.606
565.941
467.189
444.083
123.888
657.854
644.424
411.126
24.6205
180.298
229.807
407.919
380.201
422.313
114.74
524.977
528.786
488.991
593.761
371.334
335.912
269.942
68.2756
337.095
413.193
65.9381
45.8535
95.7931
738.125
518.709
593.68
377.881
330.87
545.975
52.7057
677.197
485.983
337.002
330.885
34.3478
482.163
512.373
134.21
337.745
263.741
190.185
419.501
520.282
279.74
210.441
88.2824
633.026
531.666
43.2083
548.561
508.737
455.877
632.376
333.413
434.233
-11.6819
33.6386
405.571
764.569
468.268
674.096
373.624
227.128
504.27
93.7405
148.084
380.594
515.155
423.687
380.995
105.307
107.573
543.903
524.474
532.402
326.525
171.994
388.618
444.678
512.048
342.929
245.568
124.208
318.368
80.0535
-29.1622
179.274
127.228
322.978
-2.20867
230.624
657.184
224.186
220.733
511.797
508.675
414.323
264.785
63.0762
465.46
597.425
400.156
345.883
476.687
282.654
312.606
372.859
-50.1377
394.648
529.458
590.791
501.065
437.542
426.078
345.732
251.966
94.1736
300.019
124.923
35.1973
150.559
-30.49
706.814
668.16
567.946
746.195
82.9285
710.706
112.628
167.934
455.734
62.1259
103.845
234.016
225.1
677.83
598.46
373.841
393.551
627.984
545.618
342.808
442.425
141.147
515.899
24.5243
587.537
-52.6439
428.95
463.833
500.746
215.979
91.8404
259.432
509.647
272.649
4.22673
513.198
535.842
567.239
787.137
338.254
619.49
84.0133
119.439
-243.39
-131.713
341.833
233.324
196.707
150.807
730.681
103.213
53.8423
14.7173
232.218
-7.222
810.034
137.961
158.9
301.56
-205.195
-104.961
181.366
173.959
280.344
209.548
533.969
499.662
427.455
339.895
-22.2834
195.341
488.952
93.5416
135.344
466.028
636.428
139.51
-246.748
68.5661
-213.235
295.722
216.738
159.79
22.2175
-205.969
419.828
459.615
382.128
290.351
643.548
428.95
409.121
331.317
121.836
205.353
532.69
427.867
241.753
-141.954
350.422
475.728
659.717
359.917
177.326
662.458
300.593
623.318
138.47
217.69
101.79
224.055
355.488
637.305
79.2931
157.671
120.345
231.811
819.009
21.2128
201.445
49.8928
301.631
354.091
535.142
644.466
-25.4992
26.2577
639.911
673.246
-77.1265
621
549.731
467.371
539.641
408.689
318.375
334.074
630.359
341.185
414.22
317.486
513.267
361.041
296.36
276.94
68.4669
466.7
287.569
508.368
435.845
441.684
426.704
343.287
33.2925
540.962
538.635
417.763
293.303
367.112
754.024
-13.316
133.605
79.2145
347.479
141.433
757.162
224.77
253.469
307.466
-237.596
-190.705
190.04
184.398
333.44
101.885
152.979
355.132
158.863
646.964
63.9741
739.988
217.363
340.109
-334.275
-201.549
-247.334
160.033
467.958
199.967
160.769
-209.421
322.731
481.252
328.157
885.868
138.898
533.218
408.659
478.33
557.364
545.304
474.93
302.018
245.247
299.009
478.251
264.945
385.853
355.973
380.157
502.36
428.205
465.221
62.2193
126.374
-346.75
-96.3204
-36.37
-511.408
180.428
210.221
265.654
295.332
-29.7407
73.5804
240.895
575.951
543.3
235.548
11.2078
283.666
493.753
412.956
310.048
-9.09977
138.749
421.83
366.663
304.886
189.51
448.019
452.209
632.417
456.508
347.591
209.964
148.573
63.8271
171.55
268.771
772.582
342.18
696.834
136.479
794.808
181.206
275.427
83.4713
110.868
212.633
56.3663
259.797
-4.2833
193.697
527.695
230.003
40.1097
650.952
439.382
391.078
286.149
619.423
925.894
-91.4032
431.695
372.716
413.313
54.7623
290.99
148.073
376.793
456.382
547.61
119.005
420.034
328.883
451.888
434.418
407.236
236.324
269.567
196.857
7.14614
-23.3202
98.2956
608.873
194.757
51.9981
202.723
535.398
256.655
606.017
497.943
398.71
346.896
392.821
666.289
98.9081
427.241
549.709
579.998
341.364
145.879
249.359
393.592
588.078
79.0384
272.832
332.583
528.462
395.284
388.682
616.358
84.3462
157.683
121.754
667.521
544.076
336.052
525.913
160.959
193.094
524.907
386.111
634.636
111.814
481.374
514.927
355.426
378.917
465.172
116.21
-38.9332
315.015
387.951
675.209
279.799
175.097
298.817
396.522
476.732
347.379
151.856
282.144
513.06
81.8018
153.309
282.75
189.772
370.771
345.664
573.991
411.416
499.86
201.103
300.877
370.267
291.801
248.915
209.307
205.832
90.3
444.327
363.097
363.692
399.93
26.1576
225.291
656.784
663.751
152.477
531.946
395.237
442.737
201.301
583.276
564.466
106.122
256.362
220.93
209.064
15.6708
74.8672
221.013
557.403
753.498
176.015
462.672
443.165
389.673
265.4
372.295
571.857
360.509
114.592
227.338
202.668
213.998
413.492
439.983
445.687
459.822
457.255
153.724
474.446
234.097
428.719
-206.142
400.93
601.167
247.801
-91.7616
308.319
269.076
696.909
126.434
474.821
296.399
-43.3258
645.709
39.1212
273.179
319.115
22.9139
532.132
375.462
265.032
333.756
373.463
272.994
713.118
45.8191
215.648
-280.131
233.483
249.774
328.387
529.663
942.886
-1.74151
218.21
850.982
41.0666
453.443
145.897
442.079
-115.651
127.234
841.499
-61.6048
777.065
-15.6093
682.045
-40.3512
122.984
-251.055
45.7271
801.946
-175.641
290.941
-63.0834
615.886
805.751
-160.687
248.999
182.296
115.455
106.505
223.016
322.189
320.842
434.864
299.229
624.954
874.058
-167.008
318.14
400.826
321.964
354.95
284.819
248.115
283.761
491.239
290.355
496.987
211.737
362.21
601.194
245.909
424.39
536.97
210.662
362.203
297.048
431.331
274.401
339.178
253.128
522.985
229.091
388.383
-19.1115
636.844
-147.295
384.911
510.815
650.001
132.974
349.845
300.169
349.95
327.717
289.706
486.76
100.253
-347.948
246.507
-88.3794
545.663
138.054
314.448
446.011
-312.366
582.835
88.2064
-222.02
118.056
455.492
437.874
325.72
-170.309
320.764
361.434
173.321
140.024
554.27
515.682
195.842
332.889
555.905
-163.774
485.031
134.015
425
-137.522
750.387
729.482
515.111
320.052
248.03
445.716
236.676
-174.383
79.8164
464.383
146.695
404.525
-93.7631
538.494
423.468
-448.41
322.395
376.164
-293.726
591.31
-26.0444
550.171
640.695
480.925
-212.498
337.215
259.141
325.639
343.176
407.023
-159.224
205.916
153.732
155.037
530.406
310.213
378.941
438.651
424.509
255.248
346.567
268.736
386.235
561.782
195.295
243.353
180.752
339.662
507.95
191.817
236.404
214.446
314.058
151.972
171.955
234.105
253.203
341.831
225.588
634.631
486.847
-71.188
-64.7952
592.084
-509.733
470.869
359.495
150.823
253.822
602.374
-313.297
545.389
379.319
-191.618
217.697
172.05
311.751
-339.653
591.481
386.639
-304.129
570.798
574.483
-124.668
652.647
514.476
-117.789
178.817
152.903
-307.275
320.596
349.308
82.6607
134.163
110.824
-430.85
128.294
-333.074
-464.422
525.674
180.349
802.84
194.117
-162.413
596.426
268.471
-254.571
194.451
181.676
-260.649
-64.1702
575.432
-591.959
81.8998
32.7043
-512.086
544.442
495.988
318.639
231.078
176.833
84.1409
-379.017
326.873
235.702
247.063
319.471
-221.323
457.189
196.213
289.343
172.868
280.6
340.271
67.8771
-198.438
222.327
349.082
190.948
230.143
297.176
133.085
241.64
-233.797
195.542
376.331
176.817
255.85
140.627
-190.14
599.648
589.545
568.545
652.02
-127.489
-289.952
200.168
469.832
348.143
450.653
490.543
82.7706
28.45
-282.313
-161.8
131.791
292.923
276.78
265.278
29.3953
529.533
381.624
-112.399
121.63
71.9058
485.218
138.391
-381.854
290.045
307.579
542.863
-243.037
176
341.739
211.02
254.708
441.108
286.548
89.788
679.733
-469.97
-14.8377
259.69
135.469
224.086
648.637
390.493
309.551
-3.13379
603.977
205.237
339.518
489.937
542.841
522.251
541.062
629.324
687.138
619.273
620.193
311.854
502.239
194.543
253.601
21.15
-45.0966
-423.289
659.445
642.704
567.444
242.142
341.794
324.673
143.84
355.663
498.388
98.225
268.107
428.855
177.193
200.356
187.524
238.594
131.403
230.517
208.885
-136.01
339.38
102.268
266.144
-260.371
656.917
277.613
161.234
121.725
-106.7
305.873
168.306
-303.381
-12.0452
271.518
-54.9672
9.94153
699.06
727.333
211.205
213.669
462.497
644.744
-309.895
138.953
131.034
225.677
223.714
245.4
283.795
23.3146
-181.528
589.348
217.587
-28.3868
18.3831
211.261
313.802
-102.044
249.288
142.124
194.443
649.414
-20.6729
-172.411
223.074
175.209
130.299
-174.889
544.575
207.021
196.433
209.11
-299.837
210.354
223.058
-162.327
203.683
-13.4303
382.972
582.566
142.614
502.194
371.769
152.349
161.803
231.551
-174.31
365.702
401.472
184.503
-243.735
65.5196
258.974
277.371
147.09
-201.719
157.422
543.741
371.796
162.804
691.289
-18.7837
485.931
-289.518
-33.1391
507.538
-299.759
525.956
157.933
312.614
195.304
718.669
40.5912
319.009
650.641
601.566
-76.3226
583.746
650.002
-495.612
248.623
173.128
-274.077
398.029
167.4
197.245
198.17
287.747
247.804
184.982
162.507
-290.45
397.753
311.672
297.311
338.332
242.103
151.213
69.0781
455.135
-367.57
124.306
109.286
-344.707
512.859
675.322
270.369
566.736
602.187
140.612
146.442
394.295
563.967
131.091
426.269
16.882
-273.337
463.03
101.032
543
689.039
641.544
-243.157
492.391
319.107
88.0599
182.228
224.691
169.94
-232.697
559.485
-214.918
549.987
238.187
16.9294
-33.2284
241.202
437.017
621.091
302.826
771.643
469.849
528.842
-312.306
499.594
449.067
544.086
139.258
94.6935
-371.288
273.526
750.241
568.745
-187.621
35.375
-221.19
138.933
284.687
10.3432
898.062
198.362
37.1662
-174.204
368.198
100.282
-332.383
253.28
164.234
173.133
182.006
185.979
-169.122
16.1954
-270.55
166.658
466.807
385.086
583.396
543.082
124.887
70.2326
-293.453
155.117
437.544
610.923
468.685
486.439
-26.4592
-350.79
45.2806
-390.089
460.367
481.047
70.6966
521.824
453.965
585.236
352.46
313.393
305.623
124.863
-303.315
55.979
-246.3
-0.893625
182.352
146.777
-134.519
-246.89
422.31
753.088
691.371
641.704
298.749
413.529
403.05
272.756
180.724
273.214
87.12
236.767
239.233
-243.821
452.16
216.568
36.8839
-144.283
159.586
292.6
289.588
147.822
-141.625
624.324
364.951
170.73
684.951
97.0883
-266.721
384.549
237.839
241.05
241.218
155.15
-370.631
237.886
233.563
-210.694
605.568
206.706
-590.292
181.179
281.007
299.409
153.54
-233.979
114.385
128.485
-45.1329
253.698
-290.478
266.222
250.196
-68.5358
676.595
231.994
-162.756
733.724
275.01
274.746
-148.811
250.258
-217.026
)
;
    }
}


// ************************************************************************* //
