/*--------------------------------*- C++ -*----------------------------------*\
| =========                 |                                                 |
| \\      /  F ield         | OpenFOAM: The Open Source CFD Toolbox           |
|  \\    /   O peration     | Version:  v1912                                 |
|   \\  /    A nd           | Website:  www.openfoam.com                      |
|    \\/     M anipulation  |                                                 |
\*---------------------------------------------------------------------------*/
FoamFile
{
    version     2.0;
    format      ascii;
    class       volScalarField;
    location    "280/oil";
    object      wallHeatFlux;
}
// * * * * * * * * * * * * * * * * * * * * * * * * * * * * * * * * * * * * * //

dimensions      [1 0 -3 0 0 0 0];


internalField   uniform 0;

boundaryField
{
    maxY
    {
        type            calculated;
        value           uniform 0;
    }
    minX
    {
        type            calculated;
        value           uniform 0;
    }
    maxX
    {
        type            calculated;
        value           uniform 0;
    }
    minY
    {
        type            calculated;
        value           uniform 0;
    }
    minZ
    {
        type            calculated;
        value           uniform 0;
    }
    maxZ
    {
        type            calculated;
        value           uniform 0;
    }
    oil_to_sphere
    {
        type            calculated;
        value           nonuniform List<scalar> 
1536
(
1959.65
1685.89
1680.92
1179.13
1164.01
1671.46
1451.16
1540.61
1507.71
1221.23
1021.23
1258.2
1502.42
1270.28
954.114
1420.27
1672.6
1694.17
1405.37
1488.36
1605.29
1511.56
1531.67
1417.38
1444.51
1430.68
1442.51
1383.62
1656.96
1521.88
1739.04
1687.41
1697.42
1422.16
1438.67
1385.23
1409.87
1328.91
1380.46
1440.43
1368.97
1409.44
1498.43
1555.71
1623.4
1437.05
1604.25
1531.77
973.667
1429.9
1579.78
1511.91
1526.11
1416.15
1647.91
1836.39
1527.93
1489.09
1601.58
1574.71
1492.19
1499.28
1487.28
1409.11
1436.62
1479.84
1487.49
1586.54
1583.27
1645.68
1407.77
1168.71
1255.46
1431.5
1429.58
1854.14
1700.52
1334.36
1420.96
1685.38
1608.91
1569.62
1178.85
1171.17
1655.51
1907.63
1111.56
1464.29
1575.62
1573.94
1509.64
1394.22
1390.26
1402.39
1429.63
1553.01
1605.29
1623.48
1719.95
1567.59
1611.15
1403.63
1965.16
1582.76
1243.8
1424.73
1446.49
1199.06
1197.51
1973.26
1697.48
1540.23
1497.44
1533.31
1140.33
1169.24
1087.37
1785.97
1935.19
1713.68
1519.88
1533.13
1377.37
1601.57
1735.25
1558.26
1516.96
1359.01
1618.39
1599.01
1481.32
1588.11
1644.03
1448.4
1466.29
1658.86
1534.57
1687.88
1364.42
1675.28
1509.82
1596.29
1598.91
1502.06
1470.07
1496.1
1555.38
1786.98
1482.08
1976.55
1633.73
1688.21
1527.59
1543.19
1428.03
1564.21
1655.57
1605.97
2024.45
1734.95
1696.65
1802.1
1286.24
1330.21
1397.98
1392.46
1641.36
1768.07
1717.38
1844.59
1384.07
1401.38
1337.97
1607.43
1524.86
1547.96
1883.94
1321.28
1266.29
1906.75
1384.32
1333.31
1323.75
1349.11
1586.67
1908.72
1737.33
1370.93
1285.08
1689.85
1303.45
1642.4
1641.14
1763.42
1255.39
898.1
1753.82
1790.8
1451.5
1426.4
1513.86
1453.36
1695.19
1750.95
1628.26
1570.8
1406.21
1775.07
1723.46
1553.4
1358.09
1436.19
1425.15
1462.88
1612.96
1847.63
1298.1
1265.41
1273.23
862.442
1673.63
1608.09
1567.15
1512.43
1524.91
1777.68
1641.17
1438.32
1675.69
1225.23
1386.91
912.009
1499.58
1662.15
1755.19
1728.4
1673.46
1615.51
1711.73
1253.64
1292.66
1343.69
1796.24
1345.98
911.155
1096.14
1609.09
1506.34
1893.11
2025.28
1538.51
1172.29
868.652
1573.86
1726.76
1402.86
1411.28
1126.12
1392.66
1776.47
1920.86
1492.13
1411.75
1820.36
1741.88
1433.15
1240.34
1473.61
1856.39
1790.43
1616.21
1642.48
1743.31
1325.1
1421.84
1758.36
1642.06
1690.28
1499.5
1677.17
1840.46
1627.57
1604.8
1807.01
1407.51
1402.97
1429.34
1378.24
1396.31
1767.67
1863.64
1277.21
1459.09
1444.73
1456.78
1370.54
1526.89
1498.18
1339.14
1130.94
1388.84
1261.05
1365.21
1909.99
1813.82
1809.5
2002.43
1305.89
1325.86
1523.08
1976.81
1929.66
1388.85
1502.73
1374.05
1636.79
1417.43
1602.36
1625.25
1705.12
1648.79
1441.94
1660.18
1385.17
1745.39
1781.06
1683.26
1661.71
1343.94
1872.38
1863.81
1637.15
1248.34
1404.82
1455.05
1626.61
1599.34
1637.93
1335.31
1741
1757.62
1705.69
1807.68
1588.05
1555.42
1491.21
1293.03
1559.24
1633.41
1289.92
1269.44
1318.36
1949.54
1737.06
1809.01
1595.26
1551.48
1765.92
1276.28
1890.59
1703.62
1555.33
1550.81
1259.53
1704.59
1730.43
1355.63
1555.6
1483.88
1413.4
1638.49
1736.38
1498.34
1433.46
1309.87
1847.81
1746.87
1267.93
1769.03
1732.51
1674.38
1846.4
1551.56
1652.58
1219.07
1255.94
1624.85
1987.02
1687.01
1894.62
1594.14
1449.06
1718.57
1319.69
1377.14
1604.13
1731.39
1642.77
1597.27
1331.93
1328.07
1760.17
1753.11
1747.8
1547.35
1396.43
1606.94
1661.74
1726.45
1562.77
1467.95
1350.54
1538.15
1307.56
1200.14
1400.85
1352.32
1541.52
1221.7
1451.58
1877.99
1445.47
1442.12
1729.17
1724.89
1631.59
1485.21
1285.33
1684.04
1810.86
1618.85
1567.4
1692.15
1505.14
1532.22
1590.77
1176.49
1622.11
1757.17
1807.15
1717.29
1656.83
1642.22
1564.91
1474.92
1319.79
1520.44
1348.07
1260.07
1372.28
1196.51
1918.46
1881.23
1781.73
1970.6
1323.39
1920.81
1332.18
1385.45
1670.77
1307.02
1324.21
1454.75
1443.04
1890.89
1813.78
1591.38
1611.76
1843.07
1762.34
1561.56
1660.28
1361.16
1731.53
1246.87
1804.32
1173.76
1652.54
1684.62
1718.22
1440.13
1312.99
1479.02
1726.43
1491.89
1228.02
1732.29
1751.84
1793.8
1995.05
1570.22
1830.57
1303.34
1338.18
987.016
1093.55
1557.64
1451.77
1417.68
1373.25
1939.43
1344.15
1273.95
1234.99
1462.12
1231.83
2021.74
1363.03
1382.86
1523.8
1027.19
1119.73
1402.69
1395.57
1497.23
1431.76
1749.81
1716.05
1643.64
1558.61
1203.26
1417.65
1709.91
1318.45
1355.89
1682.64
1849.38
1361.89
989.982
1292.29
1021.14
1514.81
1439.43
1383.35
1248.12
1020.96
1641.64
1678.41
1599.59
1512.95
1859.18
1649.6
1625.57
1552.75
1341.92
1425.19
1749.22
1645.78
1461.69
1086.23
1568.35
1705.46
1874.46
1577.73
1412.9
1872.64
1533.87
1833.75
1357.47
1435.03
1321.62
1444.53
1570.75
1847.29
1339.32
1375.56
1339.94
1466.31
2026.33
1257.14
1422.52
1270.31
1529.06
1569.61
1753.65
1857.21
1217.92
1248.63
1855.04
1891.96
1148.47
1842.89
1769.39
1686.59
1764.05
1628.33
1541.67
1553.89
1846.65
1561.37
1631.15
1538.15
1727.82
1580.78
1517.42
1499.17
1290.39
1683.86
1516.49
1724
1656.13
1663.12
1644.81
1564.2
1256.91
1759.08
1758.26
1636.98
1514.45
1586.48
1964.12
1230.65
1352.3
1298.93
1577.01
1380.42
1966.13
1447.7
1476.17
1531.98
996.05
1036.04
1411.26
1405.41
1549.25
1321.03
1371.28
1587.34
1393.13
1858.63
1306.02
1948.15
1457.82
1570.32
921.273
1026.64
981.871
1385.01
1686.44
1423.37
1384.66
1022.8
1539.29
1705.54
1544.04
2104.04
1360.01
1748.69
1640.38
1693.68
1775.7
1767.4
1694.75
1525.48
1469.27
1519.95
1695.26
1486.29
1602.8
1577.47
1598.63
1719.42
1646.64
1683.66
1288.87
1349.26
891.301
1127.92
1192.13
730.609
1405.23
1432.64
1486.54
1516.99
1198.1
1295.49
1460.99
1792.34
1765.8
1455.98
1234.67
1502.54
1713.35
1640.51
1528.45
1217.36
1359.76
1640.49
1590.29
1523.57
1414.61
1665.72
1671.97
1847.4
1674.21
1566.3
1432.24
1366.68
1283.99
1408.83
1502
1981.41
1557.6
1911.71
1376.6
2005.6
1404.14
1495.35
1308.2
1336.63
1434.14
1282.98
1481.2
1219.75
1414.9
1747.56
1451.27
1266.03
1866.8
1659.2
1607.94
1509
1844.87
2136.93
1135.4
1649.77
1598.21
1630.81
1282.8
1512.06
1373.03
1597.69
1681.75
1761.65
1341.31
1639.84
1551.2
1668.09
1652.09
1622.67
1460.28
1492.36
1420.33
1232.29
1202.71
1321.16
1822.55
1416.41
1274.3
1423.88
1752.96
1477.03
1821.59
1716.99
1618.03
1565.8
1613.55
1879.36
1321.47
1644.33
1769.22
1794.49
1562.19
1369.25
1472.89
1615.17
1802.68
1303.71
1495.41
1554.94
1745.5
1612.17
1612.7
1831.43
1308.02
1381.59
1346.59
1881.81
1759.18
1553.94
1743.45
1383.71
1416.06
1742.4
1612.66
1847.78
1333.07
1698.5
1732.62
1573.09
1599.43
1683.48
1341.05
1186.28
1534.03
1613.12
1896.17
1500.57
1399.82
1518.68
1614.99
1694.88
1564.15
1376.23
1502.22
1729.39
1315.48
1373.12
1501.55
1411
1589.26
1564.36
1788.74
1630.64
1714.76
1423.53
1522.33
1588.57
1511.29
1469.21
1432.17
1427.46
1314.72
1662.16
1581.8
1580.61
1620.03
1248.1
1445.97
1872.37
1877.55
1375.34
1749.11
1613.91
1658.32
1425.22
1799.11
1778.46
1326.55
1475.98
1442.16
1431.25
1242.78
1296.04
1441.94
1774.15
1974.07
1398.68
1681.72
1660.96
1607.35
1486.65
1590.55
1787.85
1587.92
1335.28
1448.01
1424.38
1439.44
1631.63
1662.36
1664.01
1676.83
1677.23
1378.83
1690.08
1455.35
1650.04
1021.84
1621.38
1813.79
1468.18
1135.43
1534.34
1493.88
1907.69
1351.56
1690.6
1518.43
1182.41
1862.68
1265.76
1494.03
1536.75
1246.96
1749.99
1591.36
1487.82
1560.01
1589.61
1491.46
1922.37
1274.04
1437.39
954.627
1468.82
1468.32
1545.75
1747.59
2150.12
1227.16
1441.43
2058.56
1268.45
1670.97
1370.36
1657.85
1117.28
1354.09
2049.27
1164.59
1995.02
1208.88
1894.88
1189.39
1348.03
987.806
1277.67
2010.38
1055.33
1518.68
1164.3
1837.45
2013.83
1070.53
1480.82
1400.2
1335.58
1325.66
1441.98
1539.87
1539.33
1649.77
1517.66
1840.87
2080.34
1065.38
1549.05
1615.78
1539.18
1571.52
1504.73
1472.45
1503.25
1707.49
1511.52
1711.65
1434.56
1582.24
1815.11
1465.59
1639.4
1751.9
1432.4
1582.3
1517.9
1646.94
1494.35
1559.96
1473.51
1737.87
1449.92
1604.52
1207.02
1855.85
1082.37
1613.68
1729.41
1860.59
1357
1567.43
1517.67
1565.7
1551.54
1511.71
1703.77
1324.66
888.363
1489
1139.29
1765.31
1362.8
1533.54
1675.42
920.889
1814.67
1321.17
1011.67
1353.15
1671.45
1653.46
1546.89
1058.19
1544.85
1584.12
1396.11
1363.67
1772.92
1735.85
1420.06
1549.26
1774.33
1065.97
1708.3
1358.34
1641.6
1091.82
1975.45
1939.58
1730.17
1542.22
1474.79
1667.29
1462.28
1054.23
1304.47
1680.39
1370.56
1632.01
1132.57
1759.23
1646.65
786.261
1546.96
1595.05
939.505
1819.82
1199.5
1768.41
1858.64
1700.52
1014.23
1557.42
1480.88
1549.27
1564.54
1629.5
1068.96
1432.24
1375.73
1377.61
1752.11
1531.72
1606.27
1654.05
1641.83
1477.08
1564.54
1490.39
1602.44
1776.4
1417.57
1465.7
1402.59
1563.81
1727
1414.82
1457.12
1435.64
1535.02
1375.1
1393.47
1455.74
1474.51
1560.2
1452.74
1847.35
1707.4
1153.02
1165.41
1814.38
730.592
1685.82
1582.61
1376.13
1476.25
1829.04
922.207
1759.36
1604.34
1035.4
1440.56
1398.09
1539.39
896.044
1804.66
1616.52
926.854
1783.77
1793.3
1100.92
1862.69
1734.97
1107.83
1402.92
1377.1
928.82
1539.49
1568.09
1314.08
1358
1347.16
810.574
1350.62
916.238
779.543
1742.55
1398.4
2010.02
1422.03
1065.39
1807.2
1500.21
977.105
1417.91
1406.43
971.224
1163.65
1807.41
650.7
1307.03
1276.21
733.389
1761.02
1712.47
1537.75
1451.84
1403.45
1307.69
857.094
1545.65
1455.05
1467.36
1538.68
1007.96
1680.42
1417.57
1509.17
1393.74
1500.25
1558.71
1293.98
1030.92
1445.58
1578.38
1411.88
1452.03
1518.94
1356.79
1463.96
998.06
1421.34
1606.6
1397.58
1478.15
1364.2
1040.05
1820.78
1813.31
1782.13
1869.37
1097.73
941.92
1428.33
1698.01
1566.8
1668.12
1707.35
1307.64
1253.07
958.323
1075.5
1353.7
1512.55
1496.6
1485.3
1257.59
1744
1602.84
1112.95
1340.46
1297.45
1701.93
1360.98
856.249
1527.61
1526.09
1757.44
987.313
1405.33
1569.56
1432.62
1475.28
1659.62
1506.99
1312.79
1891.86
768.441
1226.37
1489.69
1359.74
1445.05
1862.61
1612.93
1532.79
1224.82
1818.56
1429.02
1558.57
1706.35
1758.2
1737.39
1756.35
1845.03
1900.44
1833.13
1833.98
1544.72
1719.74
1416.51
1475.41
1252.3
1182.23
814.858
1872.96
1856.16
1781.81
1462.79
1560.32
1543.79
1367.32
1575.21
1715.14
1322.66
1489.06
1647.33
1402.39
1422.44
1409.08
1459.46
1353.67
1451.21
1430.31
1092.72
1567.04
1328.07
1486.67
969.928
1876.3
1498.47
1383.64
1345.1
1120.9
1527.17
1390.87
931.147
1219.62
1491.75
1175.68
1234.94
1910.7
1939.27
1433.38
1435.36
1680.82
1857.42
924.241
1372.2
1354.31
1446.22
1444.76
1465.85
1503.67
1250.52
1045.45
1809.24
1439.2
1199.68
1245.49
1431.77
1533.25
1126.55
1479.04
1368.78
1416.24
1861.83
1207.93
1057.06
1446.34
1397.96
1354.57
1052.25
1763.26
1430.02
1417.01
1430.41
934.186
1435.8
1444.07
1067.25
1428.77
1217.79
1601.71
1795.26
1368.34
1717.01
1588.89
1375.6
1383.81
1452.42
1053.92
1590.4
1626.15
1406.79
988.049
1291.61
1479.87
1497.56
1371.35
1027.81
1381.84
1757.99
1592.63
1389.25
1903.49
1207.03
1709.7
943.212
1194.66
1732.21
936.816
1742.35
1387.93
1532.09
1417.44
1933.53
1265.71
1537.29
1860.91
1819.54
1147.09
1797.78
1863.35
745.257
1487.02
1394.53
957.911
1630.16
1388.85
1418.27
1419.31
1507.25
1468.39
1406.8
1385.93
941.165
1625.53
1533.7
1516.97
1556.51
1462.38
1373.8
1294.91
1682.51
868.077
1347.46
1347.95
894.083
1730.27
1885.94
1504.17
1782.25
1820.41
1359.26
1389.9
1613.03
1779.67
1354.84
1645.28
1244.24
963.11
1687.35
1320.59
1757.15
1904.85
1853.78
987.504
1715.31
1545.37
1314.08
1404.21
1446.45
1392.17
997.467
1784.4
1013.88
1775.21
1458.6
1244.61
1205.17
1470.63
1653.73
1839.72
1521.51
1978.06
1692.71
1743.59
931.867
1717.61
1666.25
1760.26
1363.63
1319.45
868.08
1492.84
1957.79
1787.34
1037.95
1261.96
1017.07
1362.98
1503.92
1236.89
2108.86
1420.12
1262.6
1052.33
1589.77
1325.94
898.282
1479.59
1387.81
1394.67
1404.26
1408.19
1057.57
1240.78
961.228
1393.48
1693.75
1604.08
1800.05
1760.41
1348.12
1294.13
941.788
1373.65
1663.12
1823.05
1691.21
1702.95
1200.85
889.093
1270.28
849.237
1679.19
1700.81
1295.77
1736.03
1676.82
1798
1580.69
1533.07
1525.05
1348.02
926.768
1282.44
987.609
1233.44
1404.56
1370.75
1092.62
984.313
1640.59
1959.25
1907.61
1854.44
1518.44
1629.86
1620.17
1495.95
1404.03
1494.17
1311.53
1457.93
1460.27
986.264
1678.77
1439.5
1263.92
1084.01
1386.81
1511.92
1508.91
1372.38
1086.76
1838.44
1583.87
1393.42
1896.8
1320.29
964.426
1612.59
1460.8
1462.2
1461.66
1377.96
862.598
1470.37
1454.65
1018.11
1828.61
1429.24
656.267
1403.29
1500.13
1518.27
1375.96
996.767
1339.75
1353.68
1180.38
1473.24
942.451
1486.76
1471.21
1156.28
1895.49
1452.77
1067.26
1956.11
1494.93
1495.19
1079.12
1470.7
1012.75
)
;
    }
}


// ************************************************************************* //
