/*--------------------------------*- C++ -*----------------------------------*\
| =========                 |                                                 |
| \\      /  F ield         | OpenFOAM: The Open Source CFD Toolbox           |
|  \\    /   O peration     | Version:  v1912                                 |
|   \\  /    A nd           | Website:  www.openfoam.com                      |
|    \\/     M anipulation  |                                                 |
\*---------------------------------------------------------------------------*/
FoamFile
{
    version     2.0;
    format      ascii;
    class       surfaceScalarField;
    location    "248/oil";
    object      phi;
}
// * * * * * * * * * * * * * * * * * * * * * * * * * * * * * * * * * * * * * //

dimensions      [1 0 -1 0 0 0 0];
oriented        oriented;


internalField   nonuniform List<scalar> 
104676
(
-1.11595e-11
2.61145e-11
-1.43579e-11
2.69625e-10
-2.21681e-10
-5.90998e-11
8.43434e-10
-4.15201e-10
-1.58563e-10
1.62153e-09
-5.06342e-10
-2.71716e-10
2.48961e-09
-5.17634e-10
-3.50408e-10
3.33352e-09
-4.70745e-10
-3.73118e-10
4.05022e-09
-3.82692e-10
-3.33963e-10
4.55358e-09
-2.66103e-10
-2.37214e-10
4.77649e-09
-1.30743e-10
-9.21254e-11
4.68243e-09
1.12018e-11
8.28851e-11
4.2536e-09
1.57832e-10
2.71022e-10
3.51971e-09
2.77503e-10
4.5642e-10
2.51914e-09
3.86248e-10
6.14384e-10
1.3237e-09
4.65016e-10
7.30485e-10
2.48943e-11
5.06639e-10
7.92249e-10
-1.27796e-09
5.08886e-10
7.94047e-10
-2.47664e-09
4.6543e-10
7.33313e-10
-3.48121e-09
3.85911e-10
6.18714e-10
-4.22219e-09
2.79168e-10
4.6187e-10
-4.65634e-09
1.54448e-10
2.79737e-10
-4.76197e-09
1.23248e-11
9.3326e-11
-4.5441e-09
-1.33385e-10
-8.44809e-11
-4.04491e-09
-2.6823e-10
-2.30967e-10
-3.33137e-09
-3.84685e-10
-3.28869e-10
-2.49007e-09
-4.72368e-10
-3.68961e-10
-1.62387e-09
-5.20175e-10
-3.46053e-10
-8.46421e-10
-5.10214e-10
-2.67237e-10
-2.72354e-10
-4.19682e-10
-1.54355e-10
9.33235e-12
-2.25751e-10
-5.58499e-11
2.18096e-11
-1.23676e-11
2.75421e-10
-5.24568e-10
2.75303e-10
1.06237e-09
-1.57405e-09
5.65464e-10
2.31213e-09
-2.36526e-09
7.00324e-10
3.88566e-09
-2.84712e-09
7.67267e-10
5.59381e-09
-3.07799e-09
8.52241e-10
7.23294e-09
-3.11483e-09
1.00499e-09
8.6107e-09
-3.00634e-09
1.24594e-09
9.56062e-09
-2.79087e-09
1.57491e-09
9.95294e-09
-2.50058e-09
1.97757e-09
9.70458e-09
-2.16446e-09
2.42406e-09
8.77685e-09
-1.81086e-09
2.89645e-09
7.22099e-09
-1.50122e-09
3.33461e-09
5.15331e-09
-1.2289e-09
3.68289e-09
2.7048e-09
-1.0319e-09
3.94551e-09
5.02634e-11
-9.28863e-10
4.09013e-09
-2.61454e-09
-9.29498e-10
4.10328e-09
-5.06962e-09
-1.03667e-09
3.95728e-09
-7.13909e-09
-1.23711e-09
3.69257e-09
-8.68193e-09
-1.50998e-09
3.33205e-09
-9.61222e-09
-1.82554e-09
2.91034e-09
-9.87518e-09
-2.1743e-09
2.44961e-09
-9.49594e-09
-2.50799e-09
1.99537e-09
-8.56199e-09
-2.79544e-09
1.59326e-09
-7.2014e-09
-3.01003e-09
1.26474e-09
-5.57639e-09
-3.11954e-09
1.02214e-09
-3.88081e-09
-3.08431e-09
8.68533e-10
-2.3152e-09
-2.85765e-09
7.81826e-10
-1.06639e-09
-2.37913e-09
7.10683e-10
-2.76799e-10
-1.58538e-09
5.70136e-10
-5.30528e-10
2.75674e-10
5.79172e-10
-1.6882e-09
5.84569e-10
1.8404e-09
-4.08573e-09
1.25053e-09
3.60899e-09
-5.7986e-09
1.66476e-09
5.711e-09
-6.91596e-09
1.96682e-09
7.92891e-09
-7.55788e-09
2.26197e-09
1.00233e-08
-7.82365e-09
2.61448e-09
1.17601e-08
-7.79864e-09
3.0555e-09
1.29321e-08
-7.55321e-09
3.59035e-09
1.33776e-08
-7.15131e-09
4.20535e-09
1.29929e-08
-6.64669e-09
4.86692e-09
1.17275e-08
-6.09766e-09
5.55227e-09
9.63483e-09
-5.57865e-09
6.17011e-09
6.86647e-09
-5.12356e-09
6.66308e-09
3.60092e-09
-4.79133e-09
7.02506e-09
6.46516e-11
-4.62007e-09
7.22757e-09
-3.48846e-09
-4.62824e-09
7.25196e-09
-6.76403e-09
-4.80265e-09
7.04165e-09
-9.53259e-09
-5.1367e-09
6.66823e-09
-1.16128e-08
-5.58841e-09
6.15876e-09
-1.28946e-08
-6.11192e-09
5.56813e-09
-1.33004e-08
-6.65969e-09
4.89124e-09
-1.28706e-08
-7.16057e-09
4.22277e-09
-1.1715e-08
-7.56044e-09
3.60941e-09
-9.99532e-09
-7.80412e-09
3.07442e-09
-7.91676e-09
-7.83057e-09
2.63245e-09
-5.70965e-09
-7.5694e-09
2.27795e-09
-3.61471e-09
-6.93214e-09
1.97954e-09
-1.84747e-09
-5.81822e-09
1.67189e-09
-5.82599e-10
-4.10104e-09
1.25089e-09
-1.69644e-09
5.83452e-10
8.30376e-10
-3.35875e-09
8.40324e-10
2.49061e-09
-7.5585e-09
1.81262e-09
4.67985e-09
-1.0439e-08
2.45122e-09
7.18433e-09
-1.23638e-08
2.94335e-09
9.76477e-09
-1.35533e-08
3.41494e-09
1.21634e-08
-1.41593e-08
3.93698e-09
1.41272e-08
-1.43081e-08
4.5457e-09
1.54293e-08
-1.41037e-08
5.24844e-09
1.5886e-08
-1.3641e-08
6.03311e-09
1.53779e-08
-1.30067e-08
6.86816e-09
1.38456e-08
-1.22885e-08
7.72315e-09
1.13613e-08
-1.15722e-08
8.47784e-09
8.09002e-09
-1.09484e-08
9.0961e-09
4.23949e-09
-1.04676e-08
9.52691e-09
7.30944e-11
-1.02227e-08
9.76916e-09
-4.11562e-09
-1.02401e-08
9.80065e-09
-7.97933e-09
-1.04798e-08
9.54099e-09
-1.12526e-08
-1.09478e-08
9.08451e-09
-1.37258e-08
-1.15749e-08
8.45974e-09
-1.52715e-08
-1.2294e-08
7.72776e-09
-1.57989e-08
-1.30125e-08
6.88027e-09
-1.53598e-08
-1.36452e-08
6.04551e-09
-1.40767e-08
-1.41074e-08
5.26389e-09
-1.21303e-08
-1.43114e-08
4.56086e-09
-9.74838e-09
-1.41653e-08
3.9528e-09
-7.18218e-09
-1.35649e-08
3.42931e-09
-4.68456e-09
-1.23829e-08
2.9531e-09
-2.49755e-09
-1.04575e-08
2.45236e-09
-8.36493e-10
-7.56484e-09
1.80286e-09
-3.37004e-09
8.37246e-10
1.01985e-09
-5.40754e-09
1.02911e-09
2.98805e-09
-1.17501e-08
2.22349e-09
5.50686e-09
-1.59875e-08
3.02966e-09
8.32199e-09
-1.88413e-08
3.6623e-09
1.11742e-08
-2.06719e-08
4.26632e-09
1.37931e-08
-2.16996e-08
4.92136e-09
1.59153e-08
-2.20958e-08
5.66561e-09
1.73017e-08
-2.19995e-08
6.50943e-09
1.77601e-08
-2.15364e-08
7.43704e-09
1.71592e-08
-2.0824e-08
8.41829e-09
1.54353e-08
-1.99833e-08
9.41867e-09
1.26633e-08
-1.91195e-08
1.03194e-08
9.00989e-09
-1.8344e-08
1.10492e-08
4.71862e-09
-1.77142e-08
1.15379e-08
7.86882e-11
-1.73957e-08
1.1813e-08
-4.5874e-09
-1.74193e-08
1.18455e-08
-8.88801e-09
-1.77295e-08
1.15504e-08
-1.25367e-08
-1.83215e-08
1.10225e-08
-1.53072e-08
-1.91135e-08
1.03092e-08
-1.70462e-08
-1.99824e-08
9.42741e-09
-1.7667e-08
-2.08242e-08
8.43263e-09
-1.72278e-08
-2.15367e-08
7.45228e-09
-1.58597e-08
-2.20009e-08
6.52533e-09
-1.37543e-08
-2.20982e-08
5.68136e-09
-1.11516e-08
-2.17043e-08
4.93632e-09
-8.31447e-09
-2.0681e-08
4.27894e-09
-5.50968e-09
-1.8857e-08
3.66939e-09
-2.993e-09
-1.60012e-08
3.027e-09
-1.02514e-09
-1.17418e-08
2.2092e-09
-5.42146e-09
1.0264e-09
1.14714e-09
-7.71262e-09
1.15811e-09
3.33401e-09
-1.64346e-08
2.4978e-09
6.0924e-09
-2.21651e-08
3.41928e-09
9.13293e-09
-2.60342e-08
4.15234e-09
1.21811e-08
-2.85729e-08
4.85286e-09
1.49583e-08
-3.0087e-08
5.6101e-09
1.71951e-08
-3.07969e-08
6.46437e-09
1.86458e-08
-3.08785e-08
7.42836e-09
1.9111e-08
-3.0486e-08
8.48448e-09
1.84546e-08
-2.97646e-08
9.59707e-09
1.66098e-08
-2.88619e-08
1.07235e-08
1.36275e-08
-2.79229e-08
1.17857e-08
9.69146e-09
-2.70388e-08
1.26309e-08
5.07259e-09
-2.62707e-08
1.31754e-08
7.88579e-11
-2.58696e-08
1.34677e-08
-4.94331e-09
-2.58952e-08
1.34982e-08
-9.56219e-09
-2.6306e-08
1.31956e-08
-1.34855e-08
-2.69952e-08
1.25971e-08
-1.64721e-08
-2.79093e-08
1.17825e-08
-1.83351e-08
-2.88578e-08
1.07384e-08
-1.90138e-08
-2.97612e-08
9.61573e-09
-1.85692e-08
-3.04844e-08
8.50319e-09
-1.71372e-08
-3.08793e-08
7.4465e-09
-1.49174e-08
-3.07993e-08
6.48134e-09
-1.21549e-08
-3.00913e-08
5.62447e-09
-9.1206e-09
-2.858e-08
4.86464e-09
-6.0914e-09
-2.60439e-08
4.15767e-09
-3.33921e-09
-2.21669e-08
3.41361e-09
-1.15302e-09
-1.64108e-08
2.48294e-09
-7.73105e-09
1.1567e-09
1.2112e-09
-1.01611e-08
1.23743e-09
3.53261e-09
-2.14318e-08
2.67583e-09
6.4421e-09
-2.87325e-08
3.65793e-09
9.62242e-09
-3.3661e-08
4.44646e-09
1.2791e-08
-3.69539e-08
5.21237e-09
1.56662e-08
-3.9008e-08
6.04579e-09
1.79776e-08
-4.00972e-08
6.9889e-09
1.94749e-08
-4.04325e-08
8.05688e-09
1.99554e-08
-4.01957e-08
9.22922e-09
1.92755e-08
-3.95515e-08
1.04668e-08
1.73668e-08
-3.86733e-08
1.17201e-08
1.42464e-08
-3.77299e-08
1.29274e-08
1.01361e-08
-3.68228e-08
1.38943e-08
5.30456e-09
-3.59293e-08
1.44902e-08
8.56152e-11
-3.54527e-08
1.48023e-08
-5.15727e-09
-3.54919e-08
1.48398e-08
-1.00049e-08
-3.59959e-08
1.45377e-08
-1.41008e-08
-3.67704e-08
1.38712e-08
-1.72252e-08
-3.77169e-08
1.29321e-08
-1.91536e-08
-3.86726e-08
1.17432e-08
-1.98557e-08
-3.95516e-08
1.04925e-08
-1.93967e-08
-4.01965e-08
9.25309e-09
-1.79183e-08
-4.04359e-08
8.07818e-09
-1.56241e-08
-4.01025e-08
7.00901e-09
-1.27627e-08
-3.9014e-08
6.06129e-09
-9.60738e-09
-3.69594e-08
5.22408e-09
-6.43922e-09
-3.36616e-08
4.44959e-09
-3.54139e-09
-2.87092e-08
3.64451e-09
-1.22589e-09
-2.13737e-08
2.64746e-09
-1.0191e-08
1.23418e-09
1.23519e-09
-1.26597e-08
1.26365e-09
3.59583e-09
-2.65362e-08
2.74393e-09
6.55528e-09
-3.54469e-08
3.75497e-09
9.78344e-09
-4.14563e-08
4.56714e-09
1.29882e-08
-4.55238e-08
5.36506e-09
1.58926e-08
-4.81619e-08
6.24962e-09
1.82302e-08
-4.96952e-08
7.26048e-09
1.97524e-08
-5.03669e-08
8.41232e-09
2.02521e-08
-5.03805e-08
9.6852e-09
1.95831e-08
-4.99187e-08
1.10363e-08
1.76647e-08
-4.91652e-08
1.24103e-08
1.44965e-08
-4.83115e-08
1.37498e-08
1.03084e-08
-4.74879e-08
1.48532e-08
5.38692e-09
-4.64913e-08
1.54836e-08
8.51698e-11
-4.5982e-08
1.58311e-08
-5.24797e-09
-4.603e-08
1.58714e-08
-1.02047e-08
-4.65599e-08
1.55209e-08
-1.43604e-08
-4.74323e-08
1.48177e-08
-1.75248e-08
-4.83016e-08
1.37492e-08
-1.94613e-08
-4.91689e-08
1.24329e-08
-2.01533e-08
-4.99221e-08
1.10625e-08
-1.96747e-08
-5.03851e-08
9.70992e-09
-1.81708e-08
-5.03749e-08
8.43513e-09
-1.58494e-08
-4.97059e-08
7.2821e-09
-1.29585e-08
-4.81723e-08
6.2674e-09
-9.76728e-09
-4.55277e-08
5.37717e-09
-6.5559e-09
-4.14353e-08
4.56241e-09
-3.61014e-09
-3.53815e-08
3.72658e-09
-1.24858e-09
-2.64414e-08
2.70628e-09
-1.27022e-08
1.26274e-09
1.21379e-09
-1.51141e-08
1.24078e-09
3.51827e-09
-3.15477e-08
2.70713e-09
6.41737e-09
-4.20736e-08
3.7277e-09
9.58979e-09
-4.91698e-08
4.54107e-09
1.27412e-08
-5.40069e-08
5.33169e-09
1.55935e-08
-5.72396e-08
6.22536e-09
1.78956e-08
-5.92678e-08
7.27049e-09
1.94082e-08
-6.03535e-08
8.47419e-09
1.99244e-08
-6.07111e-08
9.8145e-09
1.92947e-08
-6.05368e-08
1.12478e-08
1.74428e-08
-6.00178e-08
1.27045e-08
1.43544e-08
-5.93391e-08
1.4116e-08
1.01904e-08
-5.86559e-08
1.5332e-08
5.31828e-09
-5.7629e-08
1.60099e-08
8.081e-11
-5.71637e-08
1.64192e-08
-5.19466e-09
-5.72062e-08
1.64518e-08
-1.01155e-08
-5.76551e-08
1.60162e-08
-1.42417e-08
-5.85714e-08
1.52654e-08
-1.73094e-08
-5.93301e-08
1.40962e-08
-1.91758e-08
-6.00252e-08
1.27227e-08
-1.98266e-08
-6.05457e-08
1.12743e-08
-1.9331e-08
-6.07208e-08
9.84025e-09
-1.78368e-08
-6.03669e-08
8.49784e-09
-1.55503e-08
-5.92851e-08
7.29264e-09
-1.27126e-08
-5.72506e-08
6.24075e-09
-9.58378e-09
-5.39826e-08
5.32608e-09
-6.43401e-09
-4.90851e-08
4.5e-09
-3.54291e-09
-4.19386e-08
3.66612e-09
-1.22206e-09
-3.14261e-08
2.66391e-09
-1.51657e-08
1.24156e-09
1.15156e-09
-1.74291e-08
1.1635e-09
3.32685e-09
-3.62646e-08
2.54177e-09
6.03558e-09
-4.83179e-08
3.53553e-09
9.02086e-09
-5.65e-08
4.34491e-09
1.20109e-08
-6.21101e-08
5.11313e-09
1.47195e-08
-6.59153e-08
5.96709e-09
1.69109e-08
-6.84554e-08
6.99634e-09
1.83646e-08
-7.00105e-08
8.20349e-09
1.88863e-08
-7.07924e-08
9.55969e-09
1.83235e-08
-7.09947e-08
1.10208e-08
1.66033e-08
-7.08035e-08
1.2506e-08
1.37115e-08
-7.03857e-08
1.39383e-08
9.70342e-09
-6.98614e-08
1.52135e-08
5.06104e-09
-6.89363e-08
1.59497e-08
7.50564e-11
-6.8561e-08
1.63834e-08
-4.94019e-09
-6.86012e-08
1.64104e-08
-9.61484e-09
-6.89119e-08
1.59317e-08
-1.36015e-08
-6.96914e-08
1.51067e-08
-1.64787e-08
-7.03635e-08
1.39106e-08
-1.82088e-08
-7.08166e-08
1.25216e-08
-1.8792e-08
-7.10089e-08
1.10464e-08
-1.82912e-08
-7.08066e-08
9.58498e-09
-1.68538e-08
-7.00307e-08
8.22655e-09
-1.46752e-08
-6.84793e-08
7.01567e-09
-1.19888e-08
-6.59042e-08
5.9672e-09
-9.03231e-09
-6.20032e-08
5.06416e-09
-6.05569e-09
-5.63194e-08
4.25769e-09
-3.32973e-09
-4.81207e-08
3.45619e-09
-1.14749e-09
-3.61145e-08
2.50629e-09
-1.74826e-08
1.16951e-09
1.03919e-09
-1.95008e-08
1.03268e-09
3.00901e-09
-4.04609e-08
2.22654e-09
5.43646e-09
-5.38625e-08
3.11722e-09
8.08851e-09
-6.30611e-08
3.909e-09
1.07779e-08
-6.94506e-08
4.65104e-09
1.32302e-08
-7.38083e-08
5.44074e-09
1.52251e-08
-7.68511e-08
6.40092e-09
1.65642e-08
-7.89017e-08
7.55233e-09
1.70683e-08
-8.01502e-08
8.85384e-09
1.6598e-08
-8.07766e-08
1.02522e-08
1.51e-08
-8.09454e-08
1.16399e-08
1.25352e-08
-8.0777e-08
1.2956e-08
8.84249e-09
-8.03719e-08
1.42032e-08
4.60338e-09
-7.97665e-08
1.50693e-08
6.80286e-11
-7.95476e-08
1.55221e-08
-4.48526e-09
-7.9588e-08
1.55403e-08
-8.70239e-09
-7.97472e-08
1.50525e-08
-1.23282e-08
-8.02886e-08
1.42231e-08
-1.49296e-08
-8.08808e-08
1.31186e-08
-1.64805e-08
-8.09934e-08
1.17276e-08
-1.69763e-08
-8.07977e-08
1.02846e-08
-1.64947e-08
-8.0162e-08
8.87394e-09
-1.51693e-08
-7.8925e-08
7.56894e-09
-1.31825e-08
-7.68767e-08
6.41073e-09
-1.07538e-08
-7.37475e-08
5.4146e-09
-8.08777e-09
-6.92292e-08
4.55994e-09
-5.40179e-09
-6.28053e-08
3.8e-09
-2.95553e-09
-5.36333e-08
3.0664e-09
-1.00875e-09
-4.02797e-08
2.21847e-09
-1.95314e-08
1.04005e-09
8.75621e-10
-2.12287e-08
8.52299e-10
2.55396e-09
-4.39289e-08
1.78969e-09
4.60509e-09
-5.83756e-08
2.46194e-09
6.8294e-09
-6.84226e-08
3.13724e-09
9.04492e-09
-7.55171e-08
3.85094e-09
1.11027e-08
-8.04525e-08
4.58644e-09
1.28039e-08
-8.39856e-08
5.43336e-09
1.39737e-08
-8.6531e-08
6.45956e-09
1.44496e-08
-8.82499e-08
7.624e-09
1.41043e-08
-8.92689e-08
8.83769e-09
1.28533e-08
-8.97215e-08
1.00271e-08
1.06182e-08
-8.98293e-08
1.12873e-08
7.50058e-09
-8.97308e-08
1.24764e-08
3.91657e-09
-8.946e-08
1.32775e-08
5.6877e-11
-8.93727e-08
1.36849e-08
-3.83056e-09
-8.93498e-08
1.36494e-08
-7.42109e-09
-8.93192e-08
1.31627e-08
-1.04943e-08
-8.96057e-08
1.23904e-08
-1.26894e-08
-9.00857e-08
1.13999e-08
-1.39691e-08
-8.98142e-08
1.01005e-08
-1.43475e-08
-8.92578e-08
8.83836e-09
-1.39037e-08
-8.82189e-08
7.61318e-09
-1.27495e-08
-8.65374e-08
6.45827e-09
-1.10383e-08
-8.40115e-08
5.42372e-09
-8.98159e-09
-8.03509e-08
4.54681e-09
-6.75009e-09
-7.52782e-08
3.81758e-09
-4.53245e-09
-6.82242e-08
3.20124e-09
-2.4962e-09
-5.82728e-08
2.60326e-09
-8.61241e-10
-4.38015e-08
1.88685e-09
-2.12733e-08
8.80715e-10
6.71804e-10
-2.25429e-08
6.42515e-10
1.93478e-09
-4.65604e-08
1.36861e-09
3.51834e-09
-6.18071e-08
1.84799e-09
5.21421e-09
-7.23801e-08
2.26159e-09
6.85803e-09
-7.99351e-08
2.77416e-09
8.38819e-09
-8.53775e-08
3.39488e-09
9.67897e-09
-8.93713e-08
4.09508e-09
1.06128e-08
-9.23553e-08
4.89069e-09
1.10691e-08
-9.44885e-08
5.78244e-09
1.08261e-08
-9.57745e-08
6.74877e-09
9.7541e-09
-9.64726e-08
7.82296e-09
7.95724e-09
-9.6959e-08
8.92634e-09
5.69804e-09
-9.73285e-08
9.8567e-09
3.01077e-09
-9.72688e-08
1.0496e-08
4.96297e-11
-9.72143e-08
1.08029e-08
-2.96095e-09
-9.70707e-08
1.07318e-08
-5.70359e-09
-9.6914e-08
1.03377e-08
-8.0125e-09
-9.69705e-08
9.67381e-09
-9.75534e-09
-9.70779e-08
8.73488e-09
-1.07219e-08
-9.64315e-08
7.58371e-09
-1.09571e-08
-9.56125e-08
6.58995e-09
-1.05822e-08
-9.42643e-08
5.67053e-09
-9.69907e-09
-9.22464e-08
4.82594e-09
-8.4155e-09
-8.94098e-08
4.11484e-09
-6.85181e-09
-8.54165e-08
3.5019e-09
-5.15288e-09
-7.99217e-08
2.94459e-09
-3.45964e-09
-7.23691e-08
2.45166e-09
-1.90479e-09
-6.18056e-08
1.9779e-09
-6.58123e-10
-4.64776e-08
1.42946e-09
-2.25974e-08
6.65997e-10
4.53873e-10
-2.33875e-08
3.90778e-10
1.22388e-09
-4.81517e-08
8.2133e-10
2.21215e-09
-6.39832e-08
1.1878e-09
3.28467e-09
-7.49356e-08
1.4829e-09
4.33693e-09
-8.281e-08
1.82254e-09
5.32188e-09
-8.85761e-08
2.21357e-09
6.14923e-09
-9.28277e-08
2.62918e-09
6.71125e-09
-9.59632e-08
3.04612e-09
7.01439e-09
-9.82918e-08
3.50037e-09
6.83784e-09
-9.97666e-08
4.16863e-09
6.13442e-09
-1.0076e-07
4.99051e-09
5.04581e-09
-1.01617e-07
5.74635e-09
3.62177e-09
-1.02242e-07
6.33752e-09
1.92053e-09
-1.02316e-07
6.74817e-09
5.88698e-11
-1.02329e-07
6.97613e-09
-1.83107e-09
-1.02137e-07
6.95643e-09
-3.56375e-09
-1.01906e-07
6.72516e-09
-4.99394e-09
-1.01843e-07
6.30313e-09
-6.11137e-09
-1.01688e-07
5.72744e-09
-6.79866e-09
-1.00712e-07
4.96787e-09
-7.05476e-09
-9.95225e-08
4.16596e-09
-6.85485e-09
-9.7883e-08
3.41874e-09
-6.2493e-09
-9.56971e-08
2.84524e-09
-5.35474e-09
-9.27568e-08
2.45248e-09
-4.32231e-09
-8.85901e-08
2.14131e-09
-3.23786e-09
-8.28442e-08
1.83805e-09
-2.16786e-09
-7.49764e-08
1.53727e-09
-1.19004e-09
-6.40227e-08
1.23935e-09
-4.11563e-10
-4.81497e-08
8.93699e-10
-2.34249e-08
4.16056e-10
1.65963e-10
-2.36862e-08
1.32854e-10
4.25728e-10
-4.86957e-08
2.84345e-10
7.7382e-10
-6.47557e-08
4.24425e-10
1.15603e-09
-7.58479e-08
5.30069e-10
1.54201e-09
-8.38319e-08
6.35863e-10
1.93316e-09
-8.96914e-08
7.24159e-10
2.29713e-09
-9.39929e-08
8.013e-10
2.5148e-09
-9.71071e-08
9.26409e-10
2.54596e-09
-9.94449e-08
1.12215e-09
2.4093e-09
-1.01031e-07
1.40105e-09
2.19127e-09
-1.02235e-07
1.69331e-09
1.87115e-09
-1.03238e-07
1.94068e-09
1.26938e-09
-1.03749e-07
2.10855e-09
6.31165e-10
-1.03905e-07
2.22761e-09
3.45497e-11
-1.04079e-07
2.34692e-09
-6.29273e-10
-1.03921e-07
2.44808e-09
-1.25044e-09
-1.03728e-07
2.44307e-09
-1.74179e-09
-1.03635e-07
2.28275e-09
-2.12911e-09
-1.03371e-07
2.07011e-09
-2.36884e-09
-1.02282e-07
1.80932e-09
-2.46637e-09
-1.00959e-07
1.5338e-09
-2.40573e-09
-9.92113e-08
1.2677e-09
-2.19468e-09
-9.69585e-08
1.05048e-09
-1.878e-09
-9.39586e-08
8.85297e-10
-1.51001e-09
-8.97061e-08
7.48046e-10
-1.12517e-09
-8.38538e-08
6.24785e-10
-7.47147e-10
-7.58712e-08
5.16753e-10
-4.05509e-10
-6.47802e-08
4.15823e-10
-1.39462e-10
-4.87127e-08
2.96863e-10
-2.37073e-08
1.42942e-10
-1.16635e-10
-2.34411e-08
-1.28419e-10
-3.62624e-10
-4.81906e-08
-2.59139e-10
-6.65269e-10
-6.40997e-08
-3.5333e-10
-9.96546e-10
-7.50766e-08
-4.40079e-10
-1.33827e-09
-8.29696e-08
-5.20734e-10
-1.68164e-09
-8.87699e-08
-5.78199e-10
-2.00192e-09
-9.30512e-08
-6.21313e-10
-2.20496e-09
-9.61976e-08
-7.0618e-10
-2.20865e-09
-9.85375e-08
-9.03419e-10
-2.05977e-09
-9.99809e-08
-1.19877e-09
-1.86746e-09
-1.00948e-07
-1.47963e-09
-1.70154e-09
-1.01736e-07
-1.66771e-09
-1.43834e-09
-1.02223e-07
-1.7897e-09
-8.87777e-10
-1.02539e-07
-1.91738e-09
-8.42207e-11
-1.0277e-07
-2.11199e-09
5.76061e-10
-1.02394e-07
-2.18735e-09
1.14437e-09
-1.02197e-07
-2.09911e-09
1.65479e-09
-1.02185e-07
-1.96034e-09
1.93543e-09
-1.0187e-07
-1.78188e-09
2.11536e-09
-1.0089e-07
-1.5723e-09
2.20469e-09
-9.97099e-08
-1.33839e-09
2.15579e-09
-9.80638e-08
-1.09858e-09
1.98709e-09
-9.58791e-08
-9.10639e-10
1.70388e-09
-9.29002e-08
-7.75136e-10
1.37553e-09
-8.87065e-08
-6.71247e-10
1.03481e-09
-8.29404e-08
-5.72776e-10
6.94497e-10
-7.50563e-08
-4.74608e-10
3.86048e-10
-6.40957e-08
-3.76119e-10
1.39104e-10
-4.82044e-08
-2.61287e-10
-2.34465e-08
-1.21709e-10
-3.96289e-10
-2.26445e-08
-4.00206e-10
-1.15146e-09
-4.6579e-08
-8.5625e-10
-2.09418e-09
-6.1968e-08
-1.18894e-09
-3.1267e-09
-7.25678e-08
-1.47641e-09
-4.16422e-09
-8.01558e-08
-1.77645e-09
-5.12584e-09
-8.56966e-08
-2.11183e-09
-5.92446e-09
-8.9765e-08
-2.48753e-09
-6.48952e-09
-9.27213e-08
-2.91092e-09
-6.75049e-09
-9.48899e-08
-3.38627e-09
-6.54838e-09
-9.6181e-08
-4.0018e-09
-5.87588e-09
-9.68487e-08
-4.77205e-09
-4.9076e-09
-9.72392e-08
-5.46592e-09
-3.59006e-09
-9.75418e-08
-5.99937e-09
-1.9323e-09
-9.77782e-08
-6.41842e-09
-3.45193e-11
-9.79774e-08
-6.69041e-09
1.79911e-09
-9.75614e-08
-6.66538e-09
3.5231e-09
-9.74855e-08
-6.43509e-09
5.03111e-09
-9.76736e-08
-6.01922e-09
5.93527e-09
-9.73289e-08
-5.44539e-09
6.52261e-09
-9.66859e-08
-4.79165e-09
6.78262e-09
-9.59301e-08
-4.04002e-09
6.58764e-09
-9.46132e-08
-3.25563e-09
6.02433e-09
-9.25764e-08
-2.73928e-09
5.16265e-09
-8.96427e-08
-2.39563e-09
4.17293e-09
-8.56299e-08
-2.08683e-09
3.14792e-09
-8.01374e-08
-1.77804e-09
2.11918e-09
-7.25631e-08
-1.46459e-09
1.18466e-09
-6.20032e-08
-1.15806e-09
4.30385e-10
-4.66446e-08
-8.05559e-10
-2.2632e-08
-3.84185e-10
-6.48542e-10
-2.13455e-08
-6.50356e-10
-1.86969e-09
-4.39608e-08
-1.39694e-09
-3.3949e-09
-5.85035e-08
-1.93928e-09
-5.05743e-09
-6.84978e-08
-2.40756e-09
-6.71985e-09
-7.55973e-08
-2.89638e-09
-8.23793e-09
-8.07163e-08
-3.46256e-09
-9.47517e-09
-8.44127e-08
-4.11509e-09
-1.03506e-08
-8.69748e-08
-4.87066e-09
-1.07878e-08
-8.87297e-08
-5.7225e-09
-1.05717e-08
-8.97857e-08
-6.61109e-09
-9.54805e-09
-9.02394e-08
-7.63308e-09
-7.84901e-09
-9.02481e-08
-8.69083e-09
-5.62555e-09
-9.018e-08
-9.58598e-09
-2.97442e-09
-9.01913e-08
-1.02383e-08
-3.87365e-11
-9.03227e-08
-1.05901e-08
2.88271e-09
-8.99717e-08
-1.05106e-08
5.60367e-09
-9.00309e-08
-1.01751e-08
7.9592e-09
-9.04877e-08
-9.54141e-09
9.56039e-09
-9.03081e-08
-8.62237e-09
1.05278e-08
-9.00442e-08
-7.60957e-09
1.08203e-08
-8.96323e-08
-6.59059e-09
1.04492e-08
-8.86732e-08
-5.56885e-09
9.53277e-09
-8.69726e-08
-4.68708e-09
8.23343e-09
-8.43897e-08
-3.95354e-09
6.69462e-09
-8.07653e-08
-3.3257e-09
5.06399e-09
-7.57405e-08
-2.76634e-09
3.43434e-09
-6.86569e-08
-2.27659e-09
1.92869e-09
-5.86878e-08
-1.80976e-09
6.89057e-10
-4.41323e-08
-1.27274e-09
-2.13287e-08
-6.14238e-10
-8.65747e-10
-1.96195e-08
-8.60066e-10
-2.47305e-09
-4.05024e-08
-1.85094e-09
-4.48443e-09
-5.39096e-08
-2.58242e-09
-6.68019e-09
-6.31139e-08
-3.18844e-09
-8.88593e-09
-6.95853e-08
-3.80674e-09
-1.09291e-08
-7.41451e-08
-4.52844e-09
-1.26293e-08
-7.73162e-08
-5.39643e-09
-1.3777e-08
-7.94083e-08
-6.41834e-09
-1.42446e-08
-8.07018e-08
-7.55962e-09
-1.39099e-08
-8.13785e-08
-8.74146e-09
-1.26577e-08
-8.15756e-08
-9.91625e-09
-1.04182e-08
-8.13703e-08
-1.1118e-08
-7.40105e-09
-8.09431e-08
-1.22549e-08
-3.87861e-09
-8.06268e-08
-1.30874e-08
-3.19164e-11
-8.06403e-08
-1.35288e-08
3.80649e-09
-8.03915e-08
-1.34178e-08
7.3656e-09
-8.05886e-08
-1.30008e-08
1.04315e-08
-8.12889e-08
-1.22647e-08
1.26325e-08
-8.14514e-08
-1.10582e-08
1.38989e-08
-8.1537e-08
-9.77412e-09
1.42664e-08
-8.13643e-08
-8.63577e-09
1.38204e-08
-8.07241e-08
-7.5031e-09
1.26714e-08
-7.94456e-08
-6.37784e-09
1.0991e-08
-7.73478e-08
-5.36121e-09
8.95387e-09
-7.42211e-08
-4.5071e-09
6.76264e-09
-6.97843e-08
-3.76507e-09
4.59209e-09
-6.34503e-08
-3.03626e-09
2.56802e-09
-5.43147e-08
-2.34917e-09
9.07434e-10
-4.08134e-08
-1.6584e-09
-1.96085e-08
-8.12735e-10
-1.03441e-09
-1.75604e-08
-1.02441e-09
-2.94629e-09
-3.63969e-08
-2.19336e-09
-5.36488e-09
-4.84255e-08
-3.06551e-09
-8.03396e-09
-5.66472e-08
-3.79786e-09
-1.06976e-08
-6.23785e-08
-4.54383e-09
-1.31272e-08
-6.63289e-08
-5.38715e-09
-1.51147e-08
-6.89509e-08
-6.37791e-09
-1.64429e-08
-7.05528e-08
-7.52671e-09
-1.69381e-08
-7.13822e-08
-8.82355e-09
-1.64692e-08
-7.16337e-08
-1.02131e-08
-1.49713e-08
-7.14792e-08
-1.15945e-08
-1.24e-08
-7.10718e-08
-1.28708e-08
-8.79448e-09
-7.05024e-08
-1.40474e-08
-4.56653e-09
-6.98682e-08
-1.49871e-08
-2.38357e-11
-6.96583e-08
-1.55243e-08
4.50365e-09
-6.94808e-08
-1.54372e-08
8.7209e-09
-6.98291e-08
-1.4976e-08
1.23244e-08
-7.07076e-08
-1.41847e-08
1.49302e-08
-7.11259e-08
-1.29319e-08
1.64647e-08
-7.14963e-08
-1.15759e-08
1.69487e-08
-7.16529e-08
-1.01958e-08
1.64605e-08
-7.14129e-08
-8.82304e-09
1.51371e-08
-7.05921e-08
-7.52973e-09
1.31612e-08
-6.89939e-08
-6.37767e-09
1.07272e-08
-6.63846e-08
-5.40246e-09
8.0465e-09
-6.24939e-08
-4.60984e-09
5.38163e-09
-5.68814e-08
-3.90423e-09
2.9769e-09
-4.87455e-08
-3.16465e-09
1.0426e-09
-3.66351e-08
-2.24404e-09
-1.75435e-08
-1.02236e-09
-1.14832e-09
-1.52464e-08
-1.16538e-09
-3.32183e-09
-3.171e-08
-2.51313e-09
-6.04375e-09
-4.22439e-08
-3.45955e-09
-9.01835e-09
-4.94208e-08
-4.2522e-09
-1.19795e-08
-5.43673e-08
-5.05093e-09
-1.46751e-08
-5.76829e-08
-5.95113e-09
-1.68613e-08
-5.97659e-08
-6.99903e-09
-1.83089e-08
-6.0897e-08
-8.20757e-09
-1.88226e-08
-6.13001e-08
-9.56726e-09
-1.82576e-08
-6.11685e-08
-1.10293e-08
-1.65377e-08
-6.06885e-08
-1.25108e-08
-1.36657e-08
-6.00449e-08
-1.39001e-08
-9.7068e-09
-5.9365e-08
-1.50978e-08
-5.00498e-09
-5.86066e-08
-1.59642e-08
-1.64824e-11
-5.81629e-08
-1.64834e-08
4.98352e-09
-5.80502e-08
-1.64294e-08
9.67315e-09
-5.85299e-08
-1.59879e-08
1.36146e-08
-5.94295e-08
-1.52195e-08
1.65073e-08
-6.0067e-08
-1.39523e-08
1.82442e-08
-6.07081e-08
-1.25261e-08
1.88217e-08
-6.11903e-08
-1.10406e-08
1.83157e-08
-6.1328e-08
-9.57881e-09
1.68744e-08
-6.09319e-08
-8.21855e-09
1.46952e-08
-5.98079e-08
-7.00652e-09
1.20026e-08
-5.77313e-08
-5.96059e-09
9.02419e-09
-5.44308e-08
-5.0848e-09
6.01908e-09
-4.95355e-08
-4.34103e-09
3.29078e-09
-4.24275e-08
-3.58982e-09
1.14143e-09
-3.18872e-08
-2.59856e-09
-1.52326e-08
-1.1695e-09
-1.20039e-09
-1.27926e-08
-1.253e-09
-3.5366e-09
-2.66719e-08
-2.70144e-09
-6.44395e-09
-3.5659e-08
-3.67741e-09
-9.60355e-09
-4.176e-08
-4.50177e-09
-1.27459e-08
-4.58985e-08
-5.32741e-09
-1.55984e-08
-4.85872e-08
-6.2443e-09
-1.79012e-08
-5.01636e-08
-7.29976e-09
-1.9412e-08
-5.08759e-08
-8.50956e-09
-1.99238e-08
-5.09284e-08
-9.85863e-09
-1.92869e-08
-5.05056e-08
-1.12988e-08
-1.74277e-08
-4.9786e-08
-1.27618e-08
-1.43497e-08
-4.89584e-08
-1.41658e-08
-1.02068e-08
-4.81331e-08
-1.53765e-08
-5.2559e-09
-4.73625e-08
-1.61959e-08
-9.64704e-12
-4.68208e-08
-1.65878e-08
5.254e-09
-4.67751e-08
-1.65375e-08
1.01866e-08
-4.73155e-08
-1.61458e-08
1.43159e-08
-4.81718e-08
-1.53869e-08
1.73985e-08
-4.89756e-08
-1.41748e-08
1.92688e-08
-4.98018e-08
-1.27776e-08
1.99157e-08
-5.05232e-08
-1.13147e-08
1.94126e-08
-5.09521e-08
-9.87275e-09
1.79096e-08
-5.09059e-08
-8.52262e-09
1.56117e-08
-5.01997e-08
-7.30974e-09
1.27629e-08
-4.86291e-08
-6.25331e-09
9.61866e-09
-4.59466e-08
-5.3401e-09
6.44066e-09
-4.18232e-08
-4.53456e-09
3.52457e-09
-3.57708e-08
-3.74083e-09
1.21123e-09
-2.68311e-08
-2.74282e-09
-1.27741e-08
-1.24715e-09
-1.23823e-09
-1.02792e-08
-1.27448e-09
-3.61869e-09
-2.15612e-08
-2.7296e-09
-6.58286e-09
-2.89567e-08
-3.7381e-09
-9.81331e-09
-3.39565e-08
-4.57365e-09
-1.30267e-08
-3.72952e-08
-5.39118e-09
-1.59405e-08
-3.93882e-08
-6.28641e-09
-1.82843e-08
-4.05122e-08
-7.30797e-09
-1.98086e-08
-4.08809e-08
-8.46975e-09
-2.0304e-08
-4.0677e-08
-9.75436e-09
-1.9625e-08
-4.00646e-08
-1.11188e-08
-1.76909e-08
-3.92156e-08
-1.25046e-08
-1.45262e-08
-3.8286e-08
-1.38387e-08
-1.0364e-08
-3.73629e-08
-1.49343e-08
-5.4084e-09
-3.66368e-08
-1.56824e-08
-4.4704e-11
-3.61657e-08
-1.60183e-08
5.29497e-09
-3.6116e-08
-1.59972e-08
1.02336e-08
-3.65793e-08
-1.56734e-08
1.44635e-08
-3.74128e-08
-1.49886e-08
1.76616e-08
-3.83033e-08
-1.38713e-08
1.96041e-08
-3.92231e-08
-1.25225e-08
2.02924e-08
-4.00767e-08
-1.11356e-08
1.9804e-08
-4.06943e-08
-9.76927e-09
1.82866e-08
-4.09052e-08
-8.48281e-09
1.59485e-08
-4.05411e-08
-7.31996e-09
1.30387e-08
-3.94212e-08
-6.29789e-09
9.82653e-09
-3.73327e-08
-5.40204e-09
6.59103e-09
-3.39989e-08
-4.58918e-09
3.61222e-09
-2.9016e-08
-3.77617e-09
1.2271e-09
-2.16596e-08
-2.78635e-09
-1.02693e-08
-1.27768e-09
-1.22725e-09
-7.80493e-09
-1.24616e-09
-3.55825e-09
-1.65641e-08
-2.66542e-09
-6.47777e-09
-2.23753e-08
-3.66173e-09
-9.67225e-09
-2.6293e-08
-4.46982e-09
-1.28567e-08
-2.8863e-08
-5.24914e-09
-1.57479e-08
-3.04048e-08
-6.09356e-09
-1.80694e-08
-3.11417e-08
-7.04937e-09
-1.95718e-08
-3.12489e-08
-8.12872e-09
-2.00499e-08
-3.08797e-08
-9.3175e-09
-1.93568e-08
-3.01819e-08
-1.05743e-08
-1.74247e-08
-2.93006e-08
-1.18472e-08
-1.43126e-08
-2.83597e-08
-1.30399e-08
-1.02178e-08
-2.74691e-08
-1.39909e-08
-5.35865e-09
-2.68065e-08
-1.46907e-08
-5.07258e-11
-2.64389e-08
-1.50342e-08
5.22664e-09
-2.63841e-08
-1.50075e-08
1.00951e-08
-2.67624e-08
-1.46838e-08
1.42478e-08
-2.75123e-08
-1.40528e-08
1.73955e-08
-2.83787e-08
-1.30732e-08
1.9334e-08
-2.93038e-08
-1.18592e-08
2.00326e-08
-3.01882e-08
-1.0588e-08
1.95637e-08
-3.08926e-08
-9.33271e-09
1.80678e-08
-3.12657e-08
-8.14308e-09
1.57518e-08
-3.11633e-08
-7.06125e-09
1.28659e-08
-3.04305e-08
-6.10457e-09
9.68454e-09
-2.88916e-08
-5.25991e-09
6.48776e-09
-2.6322e-08
-4.48043e-09
3.56013e-09
-2.24106e-08
-3.67803e-09
1.21423e-09
-1.66157e-08
-2.69806e-09
-7.80657e-09
-1.24842e-09
-1.15868e-09
-5.47842e-09
-1.16683e-09
-3.36197e-09
-1.1861e-08
-2.49902e-09
-6.13887e-09
-1.61647e-08
-3.43358e-09
-9.1982e-09
-1.90522e-08
-4.18221e-09
-1.22656e-08
-2.09015e-08
-4.89568e-09
-1.50621e-08
-2.19473e-08
-5.66269e-09
-1.73119e-08
-2.2362e-08
-6.53031e-09
-1.877e-08
-2.22832e-08
-7.5066e-09
-1.92333e-08
-2.18365e-08
-8.57794e-09
-1.85612e-08
-2.11402e-08
-9.71225e-09
-1.66884e-08
-2.03077e-08
-1.08656e-08
-1.37111e-08
-1.94411e-08
-1.18978e-08
-9.78026e-09
-1.86669e-08
-1.27355e-08
-5.12376e-09
-1.80962e-08
-1.33682e-08
-4.47614e-11
-1.78034e-08
-1.3714e-08
5.00799e-09
-1.77589e-08
-1.3676e-08
9.67668e-09
-1.80683e-08
-1.3361e-08
1.36522e-08
-1.86934e-08
-1.27939e-08
1.66606e-08
-1.94563e-08
-1.19318e-08
1.85372e-08
-2.03128e-08
-1.08692e-08
1.92148e-08
-2.11436e-08
-9.72325e-09
1.87585e-08
-2.18439e-08
-8.59253e-09
1.73082e-08
-2.22944e-08
-7.52024e-09
1.50643e-08
-2.23765e-08
-6.54215e-09
1.22731e-08
-2.19653e-08
-5.67367e-09
9.20648e-09
-2.09205e-08
-4.9048e-09
6.14678e-09
-1.90719e-08
-4.19087e-09
3.36777e-09
-1.61889e-08
-3.44303e-09
1.15703e-09
-1.18918e-08
-2.51324e-09
-5.48152e-09
-1.16791e-09
-1.03258e-09
-3.40912e-09
-1.03555e-09
-3.01822e-09
-7.64944e-09
-2.22491e-09
-5.56161e-09
-1.05741e-08
-3.04697e-09
-8.39707e-09
-1.25228e-08
-3.69487e-09
-1.12688e-08
-1.37207e-08
-4.31095e-09
-1.39082e-08
-1.43346e-08
-4.9751e-09
-1.60446e-08
-1.44944e-08
-5.73197e-09
-1.74385e-08
-1.43012e-08
-6.58708e-09
-1.78954e-08
-1.38484e-08
-7.52909e-09
-1.72801e-08
-1.32239e-08
-8.52972e-09
-1.55407e-08
-1.25092e-08
-9.53784e-09
-1.27706e-08
-1.17964e-08
-1.04167e-08
-9.1034e-09
-1.11733e-08
-1.11635e-08
-4.76175e-09
-1.0715e-08
-1.17245e-08
-3.86344e-11
-1.04803e-08
-1.20457e-08
4.66334e-09
-1.04541e-08
-1.20048e-08
9.0096e-09
-1.06987e-08
-1.17138e-08
1.27053e-08
-1.11819e-08
-1.12065e-08
1.55051e-08
-1.18024e-08
-1.04548e-08
1.72561e-08
-1.25128e-08
-9.55265e-09
1.78763e-08
-1.32258e-08
-8.53915e-09
1.74261e-08
-1.38522e-08
-7.54148e-09
1.60388e-08
-1.43073e-08
-6.59903e-09
1.3908e-08
-1.4503e-08
-5.74179e-09
1.12733e-08
-1.43449e-08
-4.98533e-09
8.40345e-09
-1.37322e-08
-4.31871e-09
5.56964e-09
-1.25372e-08
-3.70142e-09
3.02768e-09
-1.05961e-08
-3.05118e-09
1.03602e-09
-7.67259e-09
-2.22756e-09
-3.41121e-09
-1.03411e-09
-8.44001e-10
-1.71935e-09
-8.44427e-10
-2.52251e-09
-4.15368e-09
-1.81614e-09
-4.73663e-09