/*--------------------------------*- C++ -*----------------------------------*\
| =========                 |                                                 |
| \\      /  F ield         | OpenFOAM: The Open Source CFD Toolbox           |
|  \\    /   O peration     | Version:  v1912                                 |
|   \\  /    A nd           | Website:  www.openfoam.com                      |
|    \\/     M anipulation  |                                                 |
\*---------------------------------------------------------------------------*/
FoamFile
{
    version     2.0;
    format      ascii;
    class       volVectorField;
    location    "494/oil";
    object      U;
}
// * * * * * * * * * * * * * * * * * * * * * * * * * * * * * * * * * * * * * //

dimensions      [0 1 -1 0 0 0 0];


internalField   nonuniform List<vector> 
35580
(
(-1.24052e-09 2.46821e-09 -1.26509e-09)
(1.2613e-09 2.24454e-09 -3.0371e-09)
(1.16419e-08 2.21411e-09 -4.88463e-09)
(2.79919e-08 2.76458e-09 -6.75533e-09)
(4.78716e-08 3.64335e-09 -8.26195e-09)
(6.84972e-08 4.67819e-09 -9.27632e-09)
(8.72939e-08 5.77051e-09 -9.7885e-09)
(1.02026e-07 6.87386e-09 -9.85607e-09)
(1.10866e-07 7.9598e-09 -9.56607e-09)
(1.126e-07 8.99949e-09 -9.00049e-09)
(1.0656e-07 9.93872e-09 -8.23341e-09)
(9.27988e-08 1.07336e-08 -7.46767e-09)
(7.21515e-08 1.13563e-08 -6.75636e-09)
(4.59127e-08 1.18296e-08 -6.2492e-09)
(1.61035e-08 1.209e-08 -5.9839e-09)
(-1.50083e-08 1.21214e-08 -5.98923e-09)
(-4.49075e-08 1.1849e-08 -6.24895e-09)
(-7.12015e-08 1.13676e-08 -6.74108e-09)
(-9.19769e-08 1.07056e-08 -7.42151e-09)
(-1.05866e-07 9.92584e-09 -8.19782e-09)
(-1.12123e-07 9.0022e-09 -8.95679e-09)
(-1.10561e-07 7.94992e-09 -9.54777e-09)
(-1.01825e-07 6.86329e-09 -9.83702e-09)
(-8.71896e-08 5.76286e-09 -9.77884e-09)
(-6.84637e-08 4.67025e-09 -9.2687e-09)
(-4.78949e-08 3.63861e-09 -8.25488e-09)
(-2.80497e-08 2.7603e-09 -6.74441e-09)
(-1.17076e-08 2.20356e-09 -4.86322e-09)
(-1.31784e-09 2.22215e-09 -3.01039e-09)
(1.21473e-09 2.42277e-09 -1.24526e-09)
(6.36092e-10 -2.30973e-09 6.21283e-10)
(1.27814e-08 -1.41411e-08 5.35682e-10)
(3.7244e-08 -2.35872e-08 -3.20959e-10)
(7.13293e-08 -2.87136e-08 -1.44097e-09)
(1.10993e-07 -3.03395e-08 -2.26742e-09)
(1.51473e-07 -2.93394e-08 -2.5526e-09)
(1.87994e-07 -2.64361e-08 -2.23885e-09)
(2.16253e-07 -2.21712e-08 -1.36894e-09)
(2.32684e-07 -1.70042e-08 -4.63212e-11)
(2.34777e-07 -1.13665e-08 1.5767e-09)
(2.21156e-07 -5.70865e-09 3.47637e-09)
(1.9185e-07 -5.19992e-10 5.25782e-09)
(1.48676e-07 3.761e-09 6.82326e-09)
(9.44727e-08 6.88767e-09 7.94721e-09)
(3.31113e-08 8.54653e-09 8.5405e-09)
(-3.09011e-08 8.58171e-09 8.55975e-09)
(-9.2467e-08 6.85469e-09 7.97468e-09)
(-1.46766e-07 3.66594e-09 6.88525e-09)
(-1.89955e-07 -7.08664e-10 5.35952e-09)
(-2.19351e-07 -5.83907e-09 3.57964e-09)
(-2.33342e-07 -1.14889e-08 1.71176e-09)
(-2.31561e-07 -1.71174e-08 4.7633e-11)
(-2.15387e-07 -2.22483e-08 -1.2803e-09)
(-1.87411e-07 -2.64846e-08 -2.16889e-09)
(-1.51135e-07 -2.93873e-08 -2.49409e-09)
(-1.10855e-07 -3.04042e-08 -2.21487e-09)
(-7.13334e-08 -2.88129e-08 -1.39831e-09)
(-3.73001e-08 -2.37236e-08 -2.84267e-10)
(-1.28156e-08 -1.42816e-08 5.56153e-10)
(-6.42745e-10 -2.42747e-09 6.11446e-10)
(2.49708e-09 -2.28052e-08 2.49408e-09)
(2.50899e-08 -6.03954e-08 4.41811e-09)
(6.14218e-08 -8.82433e-08 4.82424e-09)
(1.08146e-07 -1.05957e-07 4.76383e-09)
(1.60348e-07 -1.15388e-07 4.85887e-09)
(2.12571e-07 -1.18323e-07 5.39619e-09)
(2.59081e-07 -1.16303e-07 6.47815e-09)
(2.94553e-07 -1.10586e-07 8.09544e-09)
(3.14506e-07 -1.02261e-07 1.0147e-08)
(3.15758e-07 -9.23409e-08 1.24521e-08)
(2.96473e-07 -8.18405e-08 1.49958e-08)
(2.56596e-07 -7.18538e-08 1.73517e-08)
(1.98512e-07 -6.34756e-08 1.93441e-08)
(1.25998e-07 -5.74074e-08 2.07848e-08)
(4.41289e-08 -5.41979e-08 2.15498e-08)
(-4.12827e-08 -5.42112e-08 2.16003e-08)
(-1.23481e-07 -5.75672e-08 2.08236e-08)
(-1.96117e-07 -6.3821e-08 1.94023e-08)
(-2.54148e-07 -7.23255e-08 1.74099e-08)
(-2.94226e-07 -8.22446e-08 1.5096e-08)
(-3.13988e-07 -9.27064e-08 1.25783e-08)
(-3.13111e-07 -1.02534e-07 1.02297e-08)
(-2.93487e-07 -1.10773e-07 8.17438e-09)
(-2.58351e-07 -1.16433e-07 6.55027e-09)
(-2.12145e-07 -1.18437e-07 5.46111e-09)
(-1.60167e-07 -1.1553e-07 4.92278e-09)
(-1.0813e-07 -1.06159e-07 4.81811e-09)
(-6.14731e-08 -8.85088e-08 4.86147e-09)
(-2.51416e-08 -6.06473e-08 4.42324e-09)
(-2.5185e-09 -2.29622e-08 2.46951e-09)
(3.99266e-09 -5.65532e-08 3.98232e-09)
(3.54106e-08 -1.31843e-07 7.38125e-09)
(8.16746e-08 -1.8487e-07 8.65229e-09)
(1.3835e-07 -2.20083e-07 9.30202e-09)
(1.99763e-07 -2.41208e-07 1.00595e-08)
(2.60063e-07 -2.51144e-07 1.12058e-08)
(3.13059e-07 -2.52338e-07 1.28528e-08)
(3.52935e-07 -2.46831e-07 1.50017e-08)
(3.74712e-07 -2.36454e-07 1.75598e-08)
(3.74773e-07 -2.22914e-07 2.03405e-08)
(3.50963e-07 -2.07933e-07 2.32799e-08)
(3.03237e-07 -1.93162e-07 2.60076e-08)
(2.34362e-07 -1.80467e-07 2.83324e-08)
(1.48583e-07 -1.71135e-07 2.99735e-08)
(5.19931e-08 -1.66218e-07 3.08324e-08)
(-4.87774e-08 -1.66292e-07 3.08968e-08)
(-1.45797e-07 -1.71343e-07 2.9991e-08)
(-2.31637e-07 -1.80814e-07 2.83444e-08)
(-3.00463e-07 -1.93539e-07 2.60346e-08)
(-3.48413e-07 -2.08254e-07 2.33468e-08)
(-3.72675e-07 -2.23203e-07 2.04007e-08)
(-3.73015e-07 -2.36664e-07 1.75933e-08)
(-3.51625e-07 -2.46977e-07 1.50391e-08)
(-3.12123e-07 -2.52437e-07 1.28915e-08)
(-2.59471e-07 -2.51245e-07 1.12496e-08)
(-1.99478e-07 -2.41365e-07 1.01113e-08)
(-1.38285e-07 -2.20332e-07 9.3413e-09)
(-8.17078e-08 -1.8518e-07 8.66268e-09)
(-3.54764e-08 -1.32107e-07 7.35677e-09)
(-4.02877e-09 -5.67575e-08 3.94214e-09)
(5.05198e-09 -1.00723e-07 5.03985e-09)
(4.32027e-08 -2.23144e-07 9.43014e-09)
(9.72882e-08 -3.06477e-07 1.12483e-08)
(1.61753e-07 -3.62581e-07 1.23419e-08)
(2.30183e-07 -3.98066e-07 1.35108e-08)
(2.96436e-07 -4.17272e-07 1.50754e-08)
(3.54049e-07 -4.23642e-07 1.71308e-08)
(3.96955e-07 -4.20026e-07 1.96924e-08)
(4.19888e-07 -4.08995e-07 2.26646e-08)
(4.18972e-07 -3.92968e-07 2.58647e-08)
(3.91851e-07 -3.74374e-07 2.91425e-08)
(3.3837e-07 -3.55426e-07 3.22134e-08)
(2.61368e-07 -3.38719e-07 3.48574e-08)
(1.65589e-07 -3.26171e-07 3.66841e-08)
(5.79185e-08 -3.19583e-07 3.76392e-08)
(-5.44149e-08 -3.1969e-07 3.77173e-08)
(-1.62578e-07 -3.2634e-07 3.67074e-08)
(-2.58295e-07 -3.38843e-07 3.4861e-08)
(-3.35295e-07 -3.55527e-07 3.22703e-08)
(-3.89062e-07 -3.74437e-07 2.92096e-08)
(-4.16658e-07 -3.93027e-07 2.59137e-08)
(-4.18024e-07 -4.09038e-07 2.2701e-08)
(-3.95509e-07 -4.20073e-07 1.97331e-08)
(-3.52996e-07 -4.23694e-07 1.71715e-08)
(-2.95734e-07 -4.1736e-07 1.51116e-08)
(-2.29801e-07 -3.98218e-07 1.35468e-08)
(-1.61628e-07 -3.62831e-07 1.23538e-08)
(-9.73062e-08 -3.06761e-07 1.12192e-08)
(-4.32902e-08 -2.23298e-07 9.35444e-09)
(-5.10959e-09 -1.00962e-07 4.97593e-09)
(5.72911e-09 -1.52302e-07 5.74327e-09)
(4.85401e-08 -3.28737e-07 1.07469e-08)
(1.0829e-07 -4.46203e-07 1.28734e-08)
(1.78452e-07 -5.25637e-07 1.4226e-08)
(2.51986e-07 -5.77356e-07 1.56489e-08)
(3.22543e-07 -6.07539e-07 1.74939e-08)
(3.83502e-07 -6.20745e-07 1.98603e-08)
(4.28645e-07 -6.20642e-07 2.27756e-08)
(4.52524e-07 -6.10517e-07 2.61337e-08)
(4.51057e-07 -5.93452e-07 2.97573e-08)
(4.21808e-07 -5.72541e-07 3.34145e-08)
(3.64409e-07 -5.50607e-07 3.68934e-08)
(2.81444e-07 -5.30696e-07 3.98842e-08)
(1.78257e-07 -5.15389e-07 4.1942e-08)
(6.2309e-08 -5.07322e-07 4.30015e-08)
(-5.86093e-08 -5.07414e-07 4.30749e-08)
(-1.75104e-07 -5.15533e-07 4.19498e-08)
(-2.78129e-07 -5.30604e-07 3.98831e-08)
(-3.61109e-07 -5.50554e-07 3.69844e-08)
(-4.1885e-07 -5.72472e-07 3.35012e-08)
(-4.48609e-07 -5.93386e-07 2.9825e-08)
(-4.50561e-07 -6.1047e-07 2.61919e-08)
(-4.27122e-07 -6.20637e-07 2.28322e-08)
(-3.82389e-07 -6.20775e-07 1.99221e-08)
(-3.21782e-07 -6.07621e-07 1.75407e-08)
(-2.51536e-07 -5.77488e-07 1.56858e-08)
(-1.7827e-07 -5.25833e-07 1.42223e-08)
(-1.08292e-07 -4.46389e-07 1.28099e-08)
(-4.86616e-08 -3.28735e-07 1.06247e-08)
(-5.81407e-09 -1.52566e-07 5.65735e-09)
(6.11614e-09 -2.0859e-07 6.13715e-09)
(5.1695e-08 -4.4369e-07 1.14729e-08)
(1.14908e-07 -5.9789e-07 1.37836e-08)
(1.88568e-07 -7.02317e-07 1.52797e-08)
(2.65248e-07 -7.71662e-07 1.68615e-08)
(3.3847e-07 -8.14242e-07 1.89202e-08)
(4.01561e-07 -8.35862e-07 2.1548e-08)
(4.48236e-07 -8.41026e-07 2.47884e-08)
(4.72936e-07 -8.33677e-07 2.85216e-08)
(4.71421e-07 -8.17468e-07 3.25707e-08)
(4.41159e-07 -7.96044e-07 3.66485e-08)
(3.81548e-07 -7.7282e-07 4.05449e-08)
(2.94829e-07 -7.51098e-07 4.39231e-08)
(1.86736e-07 -7.33798e-07 4.6233e-08)
(6.52276e-08 -7.24555e-07 4.7374e-08)
(-6.13893e-08 -7.24597e-07 4.74496e-08)
(-1.83506e-07 -7.33994e-07 4.62181e-08)
(-2.9141e-07 -7.50918e-07 4.39385e-08)
(-3.78136e-07 -7.72759e-07 4.06752e-08)
(-4.38115e-07 -7.95978e-07 3.67706e-08)
(-4.68914e-07 -8.17398e-07 3.26695e-08)
(-4.70936e-07 -8.33635e-07 2.86064e-08)
(-4.46684e-07 -8.41035e-07 2.48635e-08)
(-4.00425e-07 -8.35908e-07 2.16243e-08)
(-3.37684e-07 -8.14321e-07 1.89721e-08)
(-2.64759e-07 -7.71756e-07 1.69011e-08)
(-1.88343e-07 -7.02411e-07 1.52586e-08)
(-1.14884e-07 -5.97866e-07 1.36796e-08)
(-5.18272e-08 -4.43439e-07 1.13201e-08)
(-6.20948e-09 -2.08922e-07 6.04573e-09)
(6.2335e-09 -2.67165e-07 6.27993e-09)
(5.27902e-08 -5.63379e-07 1.17323e-08)
(1.17226e-07 -7.5568e-07 1.41203e-08)
(1.92048e-07 -8.86058e-07 1.56939e-08)
(2.69709e-07 -9.74033e-07 1.73692e-08)
(3.43741e-07 -1.03029e-06 1.95786e-08)
(4.0754e-07 -1.06193e-06 2.24327e-08)
(4.54883e-07 -1.07432e-06 2.59679e-08)
(4.80183e-07 -1.07196e-06 3.0059e-08)
(4.79082e-07 -1.05897e-06 3.45325e-08)
(4.48928e-07 -1.03942e-06 3.90648e-08)
(3.88889e-07 -1.01713e-06 4.33597e-08)
(3.0071e-07 -9.95432e-07 4.71476e-08)
(1.90346e-07 -9.77072e-07 4.97324e-08)
(6.64274e-08 -9.6725e-07 5.09893e-08)
(-6.26578e-08 -9.67461e-07 5.11142e-08)
(-1.87218e-07 -9.77596e-07 4.97383e-08)
(-2.97355e-07 -9.95391e-07 4.72072e-08)
(-3.85475e-07 -1.01718e-06 4.34961e-08)
(-4.45887e-07 -1.03946e-06 3.91787e-08)
(-4.7656e-07 -1.05898e-06 3.46285e-08)
(-4.78168e-07 -1.07198e-06 3.01429e-08)
(-4.53312e-07 -1.0744e-06 2.60406e-08)
(-4.06374e-07 -1.06205e-06 2.25099e-08)
(-3.42912e-07 -1.03042e-06 1.96327e-08)
(-2.69174e-07 -9.74143e-07 1.73898e-08)
(-1.91777e-07 -8.86068e-07 1.56341e-08)
(-1.17173e-07 -7.55418e-07 1.39861e-08)
(-5.29152e-08 -5.62862e-07 1.1578e-08)
(-6.33488e-09 -2.67659e-07 6.19966e-09)
(6.1327e-09 -3.25864e-07 6.17838e-09)
(5.19169e-08 -6.83315e-07 1.15343e-08)
(1.15207e-07 -9.13923e-07 1.39081e-08)
(1.88617e-07 -1.07052e-06 1.55368e-08)
(2.64777e-07 -1.17759e-06 1.72731e-08)
(3.3743e-07 -1.24849e-06 1.9545e-08)
(4.00176e-07 -1.29168e-06 2.25385e-08)
(4.46998e-07 -1.31329e-06 2.62851e-08)
(4.7242e-07 -1.3183e-06 3.06522e-08)
(4.72026e-07 -1.31113e-06 3.54753e-08)
(4.43042e-07 -1.2961e-06 4.04032e-08)
(3.84509e-07 -1.27709e-06 4.50432e-08)
(2.97623e-07 -1.25749e-06 4.91354e-08)
(1.88243e-07 -1.23974e-06 5.20226e-08)
(6.57126e-08 -1.23049e-06 5.34878e-08)
(-6.20476e-08 -1.23073e-06 5.36087e-08)
(-1.85209e-07 -1.24016e-06 5.19688e-08)
(-2.94351e-07 -1.25739e-06 4.91801e-08)
(-3.81119e-07 -1.27719e-06 4.51655e-08)
(-4.40068e-07 -1.29624e-06 4.05067e-08)
(-4.69542e-07 -1.31123e-06 3.55742e-08)
(-4.70445e-07 -1.31841e-06 3.07398e-08)
(-4.45461e-07 -1.31347e-06 2.63574e-08)
(-3.99011e-07 -1.29192e-06 2.26095e-08)
(-3.36581e-07 -1.24871e-06 1.95748e-08)
(-2.64225e-07 -1.17767e-06 1.72208e-08)
(-1.88309e-07 -1.07025e-06 1.54119e-08)
(-1.15104e-07 -9.13209e-07 1.37552e-08)
(-5.19905e-08 -6.82467e-07 1.13856e-08)
(-6.21467e-09 -3.26447e-07 6.09627e-09)
(5.80994e-09 -3.82454e-07 5.80258e-09)
(4.90339e-08 -7.98957e-07 1.08356e-08)
(1.08742e-07 -1.06677e-06 1.30752e-08)
(1.77969e-07 -1.24914e-06 1.47033e-08)
(2.49852e-07 -1.37522e-06 1.64938e-08)
(3.18557e-07 -1.46112e-06 1.87778e-08)
(3.7812e-07 -1.51698e-06 2.17864e-08)
(4.22891e-07 -1.54953e-06 2.56032e-08)
(4.47681e-07 -1.56408e-06 3.00754e-08)
(4.48142e-07 -1.5652e-06 3.50653e-08)
(4.21393e-07 -1.55725e-06 4.02173e-08)
(3.66335e-07 -1.5439e-06 4.50955e-08)
(2.83806e-07 -1.52824e-06 4.92628e-08)
(1.79345e-07 -1.51283e-06 5.23463e-08)
(6.26339e-08 -1.50536e-06 5.40452e-08)
(-5.9294e-08 -1.50557e-06 5.41688e-08)
(-1.76565e-07 -1.51291e-06 5.22878e-08)
(-2.80582e-07 -1.52738e-06 4.92839e-08)
(-3.6295e-07 -1.54344e-06 4.52177e-08)
(-4.18506e-07 -1.55729e-06 4.03119e-08)
(-4.45691e-07 -1.56537e-06 3.51679e-08)
(-4.45759e-07 -1.56428e-06 3.01614e-08)
(-4.21416e-07 -1.54985e-06 2.5669e-08)
(-3.76974e-07 -1.51739e-06 2.18634e-08)
(-3.17688e-07 -1.46141e-06 1.88e-08)
(-2.49248e-07 -1.37503e-06 1.64431e-08)
(-1.77565e-07 -1.24834e-06 1.46739e-08)
(-1.08503e-07 -1.06554e-06 1.30856e-08)
(-4.89986e-08 -7.97875e-07 1.08475e-08)
(-5.8488e-09 -3.83144e-07 5.79593e-09)
(5.25999e-09 -4.34588e-07 5.17726e-09)
(4.40838e-08 -9.05368e-07 9.7104e-09)
(9.77296e-08 -1.20772e-06 1.17053e-08)
(1.59864e-07 -1.41462e-06 1.32032e-08)
(2.24455e-07 -1.55909e-06 1.49743e-08)
(2.86365e-07 -1.65969e-06 1.72114e-08)
(3.40339e-07 -1.72863e-06 2.01027e-08)
(3.81235e-07 -1.77321e-06 2.37747e-08)
(4.04354e-07 -1.79883e-06 2.80718e-08)
(4.05563e-07 -1.81004e-06 3.29496e-08)
(3.81872e-07 -1.81096e-06 3.80563e-08)
(3.32299e-07 -1.80469e-06 4.2924e-08)
(2.57716e-07 -1.79473e-06 4.69475e-08)
(1.63065e-07 -1.78411e-06 5.00524e-08)
(5.70154e-08 -1.77916e-06 5.18197e-08)
(-5.4024e-08 -1.77943e-06 5.1977e-08)
(-1.60537e-07 -1.78406e-06 5.00651e-08)
(-2.54647e-07 -1.79371e-06 4.68709e-08)
(-3.29298e-07 -1.80442e-06 4.29312e-08)
(-3.79355e-07 -1.81113e-06 3.80597e-08)
(-4.03252e-07 -1.81032e-06 3.30396e-08)
(-4.02544e-07 -1.79906e-06 2.81646e-08)
(-3.79889e-07 -1.77361e-06 2.38309e-08)
(-3.39304e-07 -1.72921e-06 2.01933e-08)
(-2.8562e-07 -1.65989e-06 1.72366e-08)
(-2.23924e-07 -1.55816e-06 1.49195e-08)
(-1.59415e-07 -1.41281e-06 1.31408e-08)
(-9.73424e-08 -1.20571e-06 1.1594e-08)
(-4.39174e-08 -9.03853e-07 9.58629e-09)
(-5.21206e-09 -4.3518e-07 5.15083e-09)
(4.45504e-09 -4.79958e-07 4.30829e-09)
(3.70006e-08 -9.97503e-07 8.10875e-09)
(8.19774e-08 -1.32953e-06 9.82025e-09)
(1.34299e-07 -1.5584e-06 1.11674e-08)
(1.88709e-07 -1.72011e-06 1.27959e-08)
(2.40886e-07 -1.8348e-06 1.49007e-08)
(2.86659e-07 -1.9164e-06 1.75436e-08)
(3.21651e-07 -1.97319e-06 2.08104e-08)
(3.41869e-07 -2.0104e-06 2.45714e-08)
(3.43514e-07 -2.0321e-06 2.89023e-08)
(3.23753e-07 -2.04181e-06 3.34235e-08)
(2.81788e-07 -2.04328e-06 3.77397e-08)
(2.18641e-07 -2.04075e-06 4.15001e-08)
(1.38738e-07 -2.03678e-06 4.45164e-08)
(4.85787e-08 -2.03495e-06 4.62035e-08)
(-4.60236e-08 -2.03509e-06 4.63698e-08)
(-1.36646e-07 -2.03651e-06 4.47229e-08)
(-2.16162e-07 -2.04058e-06 4.17644e-08)
(-2.79448e-07 -2.04532e-06 3.82392e-08)
(-3.21582e-07 -2.04344e-06 3.37309e-08)
(-3.41365e-07 -2.03275e-06 2.91049e-08)
(-3.40223e-07 -2.01055e-06 2.46151e-08)
(-3.2052e-07 -1.97352e-06 2.0603e-08)
(-2.85763e-07 -1.91694e-06 1.72403e-08)
(-2.40169e-07 -1.83456e-06 1.45389e-08)
(-1.88025e-07 -1.7184e-06 1.24816e-08)
(-1.33702e-07 -1.55599e-06 1.09677e-08)
(-8.16253e-08 -1.32738e-06 9.71295e-09)
(-3.68809e-08 -9.95721e-07 8.07186e-09)
(-4.39624e-09 -4.80347e-07 4.37025e-09)
(3.48549e-09 -5.16127e-07 3.14091e-09)
(2.82798e-08 -1.07064e-06 5.87462e-09)
(6.21797e-08 -1.42607e-06 7.18813e-09)
(1.01882e-07 -1.67254e-06 8.23023e-09)
(1.43309e-07 -1.84885e-06 9.42127e-09)
(1.83122e-07 -1.97634e-06 1.10547e-08)
(2.18098e-07 -2.06945e-06 1.32313e-08)
(2.44971e-07 -2.13724e-06 1.60359e-08)
(2.61014e-07 -2.18499e-06 1.92595e-08)
(2.6288e-07 -2.21593e-06 2.27955e-08)
(2.47775e-07 -2.23408e-06 2.6246e-08)
(2.15448e-07 -2.24467e-06 2.97019e-08)
(1.67535e-07 -2.25077e-06 3.30418e-08)
(1.06822e-07 -2.25263e-06 3.55493e-08)
(3.76622e-08 -2.25324e-06 3.68375e-08)
(-3.49151e-08 -2.2526e-06 3.67311e-08)
(-1.04692e-07 -2.25084e-06 3.53324e-08)
(-1.65664e-07 -2.24947e-06 3.28322e-08)
(-2.1405e-07 -2.24701e-06 2.98237e-08)
(-2.45969e-07 -2.23598e-06 2.62406e-08)
(-2.60749e-07 -2.2164e-06 2.26152e-08)
(-2.59523e-07 -2.18469e-06 1.91023e-08)
(-2.44106e-07 -2.13719e-06 1.59343e-08)
(-2.17311e-07 -2.06951e-06 1.32445e-08)
(-1.82507e-07 -1.97567e-06 1.10934e-08)
(-1.42874e-07 -1.84742e-06 9.48284e-09)
(-1.01633e-07 -1.67142e-06 8.32692e-09)
(-6.20418e-08 -1.42582e-06 7.38058e-09)
(-2.80024e-08 -1.07022e-06 6.12949e-09)
(-3.34778e-09 -5.17014e-07 3.29538e-09)
(2.20904e-09 -5.41945e-07 2.04025e-09)
(1.78746e-08 -1.12232e-06 3.77893e-09)
(3.92537e-08 -1.49433e-06 4.51726e-09)
(6.43624e-08 -1.75228e-06 5.05854e-09)
(9.03442e-08 -1.93831e-06 5.75746e-09)
(1.15279e-07 -2.07517e-06 6.82739e-09)
(1.37222e-07 -2.1771e-06 8.28855e-09)
(1.54019e-07 -2.2534e-06 1.01914e-08)
(1.64325e-07 -2.3094e-06 1.2432e-08)
(1.65952e-07 -2.34779e-06 1.48068e-08)
(1.5661e-07 -2.37403e-06 1.71564e-08)
(1.36431e-07 -2.39297e-06 1.96183e-08)
(1.06432e-07 -2.406e-06 2.19022e-08)
(6.80885e-08 -2.41237e-06 2.36031e-08)
(2.43233e-08 -2.41467e-06 2.43793e-08)
(-2.15136e-08 -2.41236e-06 2.39788e-08)
(-6.58717e-08 -2.40737e-06 2.28907e-08)
(-1.04336e-07 -2.40115e-06 2.10331e-08)
(-1.34778e-07 -2.39146e-06 1.87022e-08)
(-1.55217e-07 -2.37234e-06 1.61663e-08)
(-1.64779e-07 -2.34506e-06 1.37821e-08)
(-1.63949e-07 -2.30573e-06 1.1701e-08)
(-1.54064e-07 -2.25102e-06 9.87765e-09)
(-1.37006e-07 -2.17669e-06 8.3631e-09)
(-1.14867e-07 -2.07576e-06 7.12956e-09)
(-8.9744e-08 -1.93907e-06 6.13328e-09)
(-6.37466e-08 -1.75303e-06 5.39955e-09)
(-3.88695e-08 -1.49502e-06 4.77628e-09)
(-1.75348e-08 -1.12239e-06 3.94151e-09)
(-2.11399e-09 -5.42622e-07 2.07259e-09)
(8.14602e-10 -5.55439e-07 6.4398e-10)
(6.25817e-09 -1.14889e-06 1.28406e-09)
(1.36692e-08 -1.53011e-06 1.61396e-09)
(2.25792e-08 -1.79463e-06 1.83132e-09)
(3.17416e-08 -1.98601e-06 2.11722e-09)
(4.05875e-08 -2.12739e-06 2.56411e-09)
(4.86004e-08 -2.23282e-06 3.09387e-09)
(5.48127e-08 -2.31185e-06 3.62936e-09)
(5.8543e-08 -2.37156e-06 4.3211e-09)
(5.90965e-08 -2.41557e-06 5.26964e-09)
(5.57563e-08 -2.44809e-06 6.25696e-09)
(4.87555e-08 -2.47197e-06 7.16953e-09)
(3.80664e-08 -2.48802e-06 7.87214e-09)
(2.44669e-08 -2.49711e-06 8.61487e-09)
(9.17872e-09 -2.50148e-06 8.97146e-09)
(-6.98927e-09 -2.49916e-06 8.68521e-09)
(-2.32137e-08 -2.49291e-06 8.32877e-09)
(-3.67435e-08 -2.48429e-06 7.65216e-09)
(-4.72528e-08 -2.47097e-06 6.69103e-09)
(-5.44218e-08 -2.44715e-06 5.74792e-09)
(-5.77737e-08 -2.4141e-06 4.88264e-09)
(-5.76137e-08 -2.36911e-06 4.12319e-09)
(-5.43029e-08 -2.30995e-06 3.41889e-09)
(-4.84221e-08 -2.2323e-06 2.85387e-09)
(-4.06258e-08 -2.12799e-06 2.44122e-09)
(-3.16629e-08 -1.98707e-06 2.10087e-09)
(-2.24146e-08 -1.79578e-06 1.84214e-09)
(-1.36114e-08 -1.53124e-06 1.62683e-09)
(-6.09492e-09 -1.14963e-06 1.3806e-09)
(-6.98054e-10 -5.55984e-07 7.40055e-10)
(-5.86411e-10 -5.5599e-07 -6.9126e-10)
(-5.44455e-09 -1.14987e-06 -1.2527e-09)
(-1.22406e-08 -1.53165e-06 -1.47083e-09)
(-1.99744e-08 -1.79641e-06 -1.65515e-09)
(-2.80756e-08 -1.988e-06 -1.89148e-09)
(-3.58777e-08 -2.1297e-06 -2.22662e-09)
(-4.27656e-08 -2.23551e-06 -2.6629e-09)
(-4.81981e-08 -2.31487e-06 -3.20418e-09)
(-5.13697e-08 -2.37456e-06 -3.88617e-09)
(-5.15364e-08 -2.41819e-06 -4.64277e-09)
(-4.83216e-08 -2.45056e-06 -5.5878e-09)
(-4.19775e-08 -2.4744e-06 -6.63197e-09)
(-3.30533e-08 -2.49014e-06 -7.50194e-09)
(-2.15582e-08 -2.49952e-06 -7.84263e-09)
(-7.68371e-09 -2.5038e-06 -7.87308e-09)
(7.19614e-09 -2.50121e-06 -7.76472e-09)
(2.08302e-08 -2.49582e-06 -7.24655e-09)
(3.34461e-08 -2.48746e-06 -6.6148e-09)
(4.30952e-08 -2.47349e-06 -6.06284e-09)
(4.89956e-08 -2.44952e-06 -5.19143e-09)
(5.20795e-08 -2.41651e-06 -4.27295e-09)
(5.20353e-08 -2.37137e-06 -3.41183e-09)
(4.91086e-08 -2.31204e-06 -2.87049e-09)
(4.37389e-08 -2.23402e-06 -2.53005e-09)
(3.65709e-08 -2.12932e-06 -2.18287e-09)
(2.85968e-08 -1.98809e-06 -1.9091e-09)
(2.03372e-08 -1.79656e-06 -1.67882e-09)
(1.24302e-08 -1.5319e-06 -1.45574e-09)
(5.66826e-09 -1.15015e-06 -1.1256e-09)
(7.32556e-10 -5.56276e-07 -5.66212e-10)
(-2.03503e-09 -5.43378e-07 -2.01373e-09)
(-1.69807e-08 -1.12411e-06 -3.81425e-09)
(-3.7639e-08 -1.49753e-06 -4.63584e-09)
(-6.16443e-08 -1.75617e-06 -5.25232e-09)
(-8.67503e-08 -1.94289e-06 -5.97284e-09)
(-1.10978e-07 -2.08069e-06 -6.9402e-09)
(-1.32216e-07 -2.18327e-06 -8.21671e-09)
(-1.4847e-07 -2.25955e-06 -9.88106e-09)
(-1.57972e-07 -2.31569e-06 -1.19499e-08)
(-1.59039e-07 -2.35441e-06 -1.41191e-08)
(-1.49898e-07 -2.38118e-06 -1.65185e-08)
(-1.30479e-07 -2.40042e-06 -1.90552e-08)
(-1.02055e-07 -2.41352e-06 -2.1244e-08)
(-6.5574e-08 -2.42125e-06 -2.26402e-08)
(-2.29467e-08 -2.42424e-06 -2.3179e-08)
(2.18803e-08 -2.42096e-06 -2.28659e-08)
(6.41938e-08 -2.41698e-06 -2.18399e-08)
(1.01951e-07 -2.41139e-06 -2.01812e-08)
(1.31043e-07 -2.39976e-06 -1.8314e-08)
(1.49927e-07 -2.37977e-06 -1.58992e-08)
(1.59463e-07 -2.35209e-06 -1.36021e-08)
(1.58636e-07 -2.31239e-06 -1.13798e-08)
(1.48756e-07 -2.25669e-06 -9.46568e-09)
(1.32335e-07 -2.18118e-06 -7.87046e-09)
(1.1111e-07 -2.07972e-06 -6.56803e-09)
(8.71369e-08 -1.94273e-06 -5.59672e-09)
(6.20856e-08 -1.75634e-06 -4.85925e-09)
(3.79947e-08 -1.49805e-06 -4.28512e-09)
(1.73278e-08 -1.12481e-06 -3.52503e-09)
(2.1854e-09 -5.43565e-07 -1.90647e-09)
(-3.32708e-09 -5.18375e-07 -3.20474e-09)
(-2.75553e-08 -1.07324e-06 -5.9867e-09)
(-6.09384e-08 -1.43007e-06 -7.25547e-09)
(-9.98071e-08 -1.67658e-06 -8.19359e-09)
(-1.40318e-07 -1.85342e-06 -9.32066e-09)
(-1.79306e-07 -1.98258e-06 -1.08685e-08)
(-2.13564e-07 -2.07741e-06 -1.29305e-08)
(-2.39915e-07 -2.1462e-06 -1.56011e-08)
(-2.55266e-07 -2.19498e-06 -1.88516e-08)
(-2.56819e-07 -2.22674e-06 -2.2281e-08)
(-2.42098e-07 -2.24549e-06 -2.58073e-08)
(-2.10483e-07 -2.25636e-06 -2.92014e-08)
(-1.63946e-07 -2.26306e-06 -3.23323e-08)
(-1.0495e-07 -2.26657e-06 -3.46864e-08)
(-3.67606e-08 -2.268e-06 -3.58808e-08)
(3.49052e-08 -2.26543e-06 -3.55938e-08)
(1.03235e-07 -2.26399e-06 -3.42366e-08)
(1.63892e-07 -2.26317e-06 -3.19107e-08)
(2.10898e-07 -2.25683e-06 -2.90499e-08)
(2.41947e-07 -2.24441e-06 -2.55552e-08)
(2.57159e-07 -2.22498e-06 -2.20964e-08)
(2.56092e-07 -2.1939e-06 -1.86969e-08)
(2.40586e-07 -2.14623e-06 -1.56659e-08)
(2.14151e-07 -2.07799e-06 -1.29967e-08)
(1.79732e-07 -1.98384e-06 -1.08548e-08)
(1.4057e-07 -1.855e-06 -9.23697e-09)
(9.98902e-08 -1.67783e-06 -7.92883e-09)
(6.11207e-08 -1.43124e-06 -6.919e-09)
(2.78867e-08 -1.07443e-06 -5.66196e-09)
(3.48793e-09 -5.18268e-07 -3.05087e-09)
(-4.43169e-09 -4.823e-07 -4.23068e-09)
(-3.66204e-08 -1.00001e-06 -7.89475e-09)
(-8.08394e-08 -1.33306e-06 -9.59852e-09)
(-1.32403e-07 -1.56262e-06 -1.08874e-08)
(-1.86173e-07 -1.72596e-06 -1.23919e-08)
(-2.37874e-07 -1.8431e-06 -1.44293e-08)
(-2.83157e-07 -1.92647e-06 -1.71044e-08)
(-3.1771e-07 -1.98415e-06 -2.04137e-08)
(-3.37507e-07 -2.0224e-06 -2.43343e-08)
(-3.3905e-07 -2.04532e-06 -2.86053e-08)
(-3.19547e-07 -2.05606e-06 -3.31193e-08)
(-2.77951e-07 -2.05819e-06 -3.73429e-08)
(-2.15874e-07 -2.05653e-06 -4.10272e-08)
(-1.37388e-07 -2.05452e-06 -4.3989e-08)
(-4.76541e-08 -2.05395e-06 -4.57642e-08)
(4.61625e-08 -2.05237e-06 -4.56217e-08)
(1.35837e-07 -2.05383e-06 -4.39569e-08)
(2.15671e-07 -2.05832e-06 -4.09849e-08)
(2.7803e-07 -2.05915e-06 -3.73053e-08)
(3.19236e-07 -2.05562e-06 -3.31712e-08)
(3.38896e-07 -2.04464e-06 -2.86916e-08)
(3.37914e-07 -2.02249e-06 -2.42865e-08)
(3.18244e-07 -1.98471e-06 -2.05174e-08)
(2.83699e-07 -1.92702e-06 -1.73168e-08)
(2.38366e-07 -1.84404e-06 -1.47398e-08)
(1.86645e-07 -1.72788e-06 -1.27246e-08)
(1.32795e-07 -1.56563e-06 -1.10655e-08)
(8.10597e-08 -1.33682e-06 -9.69889e-09)
(3.667e-08 -1.00317e-06 -7.96523e-09)
(4.43025e-09 -4.82396e-07 -4.23591e-09)
(-5.2242e-09 -4.37271e-07 -5.13539e-09)
(-4.37114e-08 -9.08871e-07 -9.59344e-09)
(-9.67472e-08 -1.21207e-06 -1.16049e-08)
(-1.58549e-07 -1.42022e-06 -1.31154e-08)
(-2.22818e-07 -1.56668e-06 -1.48444e-08)
(-2.84416e-07 -1.66951e-06 -1.71404e-08)
(-3.38072e-07 -1.73996e-06 -2.00811e-08)
(-3.78697e-07 -1.78559e-06 -2.37099e-08)
(-4.01562e-07 -1.81233e-06 -2.80427e-08)
(-4.0269e-07 -1.82473e-06 -3.28618e-08)
(-3.79143e-07 -1.82664e-06 -3.79581e-08)
(-3.29809e-07 -1.82129e-06 -4.27698e-08)
(-2.55986e-07 -1.81219e-06 -4.67897e-08)
(-1.62322e-07 -1.80361e-06 -4.99047e-08)
(-5.59496e-08 -1.79957e-06 -5.19296e-08)
(5.4645e-08 -1.79841e-06 -5.19007e-08)
(1.60648e-07 -1.8031e-06 -5.01991e-08)
(2.55051e-07 -1.81348e-06 -4.70533e-08)
(3.29192e-07 -1.82202e-06 -4.27972e-08)
(3.78686e-07 -1.827e-06 -3.80109e-08)
(4.02501e-07 -1.82495e-06 -3.29066e-08)
(4.01778e-07 -1.81275e-06 -2.79979e-08)
(3.79031e-07 -1.7862e-06 -2.3691e-08)
(3.38485e-07 -1.74065e-06 -2.00236e-08)
(2.8484e-07 -1.67046e-06 -1.70989e-08)
(2.2326e-07 -1.56846e-06 -1.49039e-08)
(1.59064e-07 -1.42342e-06 -1.31807e-08)
(9.72341e-08 -1.21632e-06 -1.16313e-08)
(4.40153e-08 -9.12287e-07 -9.60007e-09)
(5.29218e-09 -4.3729e-07 -5.12073e-09)
(-5.81702e-09 -3.85184e-07 -5.81396e-09)
(-4.88786e-08 -8.03162e-07 -1.08558e-08)
(-1.08308e-07 -1.07212e-06 -1.30885e-08)
(-1.77347e-07 -1.25608e-06 -1.46753e-08)
(-2.49037e-07 -1.38401e-06 -1.64284e-08)
(-3.17608e-07 -1.47157e-06 -1.87709e-08)
(-3.77066e-07 -1.52868e-06 -2.18376e-08)
(-4.21742e-07 -1.5623e-06 -2.56459e-08)
(-4.46406e-07 -1.57792e-06 -3.01459e-08)
(-4.46781e-07 -1.58013e-06 -3.51257e-08)
(-4.1998e-07 -1.57317e-06 -4.03109e-08)
(-3.64991e-07 -1.56102e-06 -4.52462e-08)
(-2.83161e-07 -1.54675e-06 -4.94739e-08)
(-1.79351e-07 -1.53325e-06 -5.25479e-08)
(-6.17713e-08 -1.52564e-06 -5.43625e-08)
(6.01411e-08 -1.52463e-06 -5.41946e-08)
(1.77466e-07 -1.53201e-06 -5.25608e-08)
(2.81798e-07 -1.54648e-06 -4.94902e-08)
(3.64049e-07 -1.56093e-06 -4.51598e-08)
(4.19334e-07 -1.57333e-06 -4.02969e-08)
(4.46435e-07 -1.58035e-06 -3.51342e-08)
(4.46388e-07 -1.57833e-06 -3.01376e-08)
(4.21915e-07 -1.56287e-06 -2.56453e-08)
(3.77406e-07 -1.52937e-06 -2.18126e-08)
(3.18067e-07 -1.4724e-06 -1.87526e-08)
(2.49548e-07 -1.38515e-06 -1.64608e-08)
(1.77798e-07 -1.25796e-06 -1.47491e-08)
(1.08577e-07 -1.07486e-06 -1.31623e-08)
(4.89907e-08 -8.05684e-07 -1.08989e-08)
(5.79205e-09 -3.85231e-07 -5.81821e-09)
(-6.16773e-09 -3.28593e-07 -6.17197e-09)
(-5.19693e-08 -6.87633e-07 -1.14637e-08)
(-1.15304e-07 -9.19765e-07 -1.3787e-08)
(-1.88711e-07 -1.078e-06 -1.54394e-08)
(-2.64853e-07 -1.18659e-06 -1.72484e-08)
(-3.37534e-07 -1.25872e-06 -1.96066e-08)
(-4.00325e-07 -1.30299e-06 -2.2657e-08)
(-4.47171e-07 -1.32559e-06 -2.64209e-08)
(-4.72556e-07 -1.33158e-06 -3.08305e-08)
(-4.72071e-07 -1.32538e-06 -3.56754e-08)
(-4.42898e-07 -1.31124e-06 -4.06513e-08)
(-3.84252e-07 -1.29327e-06 -4.53716e-08)
(-2.97825e-07 -1.27478e-06 -4.94954e-08)
(-1.88618e-07 -1.25858e-06 -5.24103e-08)
(-6.4952e-08 -1.24909e-06 -5.4014e-08)
(6.31617e-08 -1.24857e-06 -5.38956e-08)
(1.86693e-07 -1.25787e-06 -5.24637e-08)
(2.96278e-07 -1.27472e-06 -4.95271e-08)
(3.83161e-07 -1.29339e-06 -4.53673e-08)
(4.42137e-07 -1.31147e-06 -4.06926e-08)
(4.7162e-07 -1.32567e-06 -3.57177e-08)
(4.72395e-07 -1.332e-06 -3.08602e-08)
(4.47218e-07 -1.32614e-06 -2.64495e-08)
(4.00533e-07 -1.30367e-06 -2.26746e-08)
(3.3785e-07 -1.25955e-06 -1.96286e-08)
(2.65223e-07 -1.1876e-06 -1.7302e-08)
(1.88999e-07 -1.07934e-06 -1.55903e-08)
(1.154e-07 -9.21613e-07 -1.4043e-08)
(5.19699e-08 -6.89622e-07 -1.1696e-08)
(6.10144e-09 -3.28584e-07 -6.23774e-09)
(-6.27841e-09 -2.69766e-07 -6.30573e-09)
(-5.29863e-08 -5.67501e-07 -1.17108e-08)
(-1.17637e-07 -7.6152e-07 -1.40547e-08)
(-1.92644e-07 -8.9333e-07 -1.56893e-08)
(-2.7049e-07 -9.82441e-07 -1.74511e-08)
(-3.44738e-07 -1.03967e-06 -1.97147e-08)
(-4.08719e-07 -1.07222e-06 -2.2612e-08)
(-4.56182e-07 -1.08546e-06 -2.61699e-08)
(-4.81521e-07 -1.08393e-06 -3.03121e-08)
(-4.80326e-07 -1.07176e-06 -3.48248e-08)
(-4.49864e-07 -1.05297e-06 -3.94198e-08)
(-3.89534e-07 -1.03141e-06 -4.38144e-08)
(-3.0151e-07 -1.01035e-06 -4.76195e-08)
(-1.91085e-07 -9.93236e-07 -5.02912e-08)
(-6.59414e-08 -9.83416e-07 -5.16968e-08)
(6.39434e-08 -9.83143e-07 -5.16443e-08)
(1.88966e-07 -9.92808e-07 -5.03473e-08)
(2.99902e-07 -1.01043e-06 -4.75999e-08)
(3.88487e-07 -1.03152e-06 -4.37828e-08)
(4.49094e-07 -1.05311e-06 -3.94621e-08)
(4.79797e-07 -1.07197e-06 -3.48788e-08)
(4.81258e-07 -1.08426e-06 -3.03568e-08)
(4.56133e-07 -1.08591e-06 -2.62111e-08)
(4.08821e-07 -1.07278e-06 -2.26426e-08)
(3.44932e-07 -1.04035e-06 -1.97445e-08)
(2.70739e-07 -9.83235e-07 -1.74931e-08)
(1.92861e-07 -8.94259e-07 -1.57857e-08)
(1.17753e-07 -7.62685e-07 -1.4244e-08)
(5.30137e-08 -5.68916e-07 -1.18901e-08)
(6.24829e-09 -2.69706e-07 -6.34873e-09)
(-6.18494e-09 -2.10761e-07 -6.14806e-09)
(-5.20219e-08 -4.47373e-07 -1.14479e-08)
(-1.15545e-07 -6.03166e-07 -1.37695e-08)
(-1.89557e-07 -7.08749e-07 -1.53454e-08)
(-2.6659e-07 -7.78983e-07 -1.70005e-08)
(-3.40168e-07 -8.22339e-07 -1.90973e-08)
(-4.03553e-07 -8.44667e-07 -2.17731e-08)
(-4.50436e-07 -8.50499e-07 -2.50454e-08)
(-4.75242e-07 -8.43787e-07 -2.88357e-08)
(-4.73633e-07 -8.28204e-07 -3.29399e-08)
(-4.42973e-07 -8.07359e-07 -3.71175e-08)
(-3.82913e-07 -7.84631e-07 -4.11225e-08)
(-2.96127e-07 -7.63377e-07 -4.45232e-08)
(-1.87787e-07 -7.46987e-07 -4.69097e-08)
(-6.48954e-08 -7.37873e-07 -4.81614e-08)
(6.29082e-08 -7.37514e-07 -4.81246e-08)
(1.85571e-07 -7.46426e-07 -4.69021e-08)
(2.94479e-07 -7.63302e-07 -4.445e-08)
(3.81834e-07 -7.84607e-07 -4.10407e-08)
(4.42144e-07 -8.0739e-07 -3.71247e-08)
(4.73018e-07 -8.28336e-07 -3.29881e-08)
(4.74891e-07 -8.44036e-07 -2.88794e-08)
(4.50314e-07 -8.50852e-07 -2.50855e-08)
(4.03583e-07 -8.45102e-07 -2.18021e-08)
(3.40291e-07 -8.22853e-07 -1.91238e-08)
(2.66778e-07 -7.79577e-07 -1.70279e-08)
(1.89754e-07 -7.09419e-07 -1.53879e-08)
(1.15699e-07 -6.03932e-07 -1.38581e-08)
(5.20369e-08 -4.48292e-07 -1.15759e-08)
(6.14642e-09 -2.10825e-07 -6.19095e-09)
(-5.82343e-09 -1.54023e-07 -5.72589e-09)
(-4.8968e-08 -3.31858e-07 -1.07142e-08)
(-1.09112e-07 -4.5066e-07 -1.28947e-08)
(-1.79727e-07 -5.30965e-07 -1.43162e-08)
(-2.53694e-07 -5.8332e-07 -1.57982e-08)
(-3.24684e-07 -6.1406e-07 -1.7674e-08)
(-3.86019e-07 -6.27776e-07 -2.00869e-08)
(-4.31422e-07 -6.2815e-07 -2.30287e-08)
(-4.55447e-07 -6.18462e-07 -2.64334e-08)
(-4.53898e-07 -6.01829e-07 -3.01056e-08)
(-4.24223e-07 -5.81263e-07 -3.38799e-08)
(-3.66326e-07 -5.59673e-07 -3.74557e-08)
(-2.83195e-07 -5.4016e-07 -4.04793e-08)
(-1.79558e-07 -5.25375e-07 -4.26182e-08)
(-6.20997e-08 -5.1736e-07 -4.3779e-08)