/*--------------------------------*- C++ -*----------------------------------*\
| =========                 |                                                 |
| \\      /  F ield         | OpenFOAM: The Open Source CFD Toolbox           |
|  \\    /   O peration     | Version:  v1906                                 |
|   \\  /    A nd           | Web:      www.OpenFOAM.com                      |
|    \\/     M anipulation  |                                                 |
\*---------------------------------------------------------------------------*/
FoamFile
{
    version     2.0;
    format      ascii;
    class       surfaceScalarField;
    location    "43";
    object      phi;
}
// * * * * * * * * * * * * * * * * * * * * * * * * * * * * * * * * * * * * * //

dimensions      [1 0 -1 0 0 0 0];
oriented        oriented;


internalField   nonuniform List<scalar> 
228225
(
-4.09047e-09
5.20781e-09
-1.33128e-09
-1.47586e-08
1.662e-08
-5.95303e-09
-3.08175e-08
2.34083e-08
-7.35099e-09
-5.17762e-08
2.89804e-08
-8.0194e-09
-7.67698e-08
3.34846e-08
-8.49132e-09
-1.04751e-07
3.69104e-08
-8.92947e-09
-1.34717e-07
3.93429e-08
-9.37764e-09
-1.65657e-07
4.08094e-08
-9.86795e-09
-1.96696e-07
4.14369e-08
-1.03992e-08
-2.26975e-07
4.12719e-08
-1.09925e-08
-2.55783e-07
4.04572e-08
-1.1646e-08
-2.82465e-07
3.90565e-08
-1.2378e-08
-3.06481e-07
3.71975e-08
-1.31827e-08
-3.27344e-07
3.49394e-08
-1.40708e-08
-3.44691e-07
3.23707e-08
-1.50279e-08
-3.58192e-07
2.9558e-08
-1.60573e-08
-3.67647e-07
2.65968e-08
-1.71391e-08
-3.72943e-07
2.35289e-08
-1.82338e-08
-3.74005e-07
2.04143e-08
-1.93526e-08
-3.70823e-07
1.7293e-08
-2.04754e-08
-3.63468e-07
1.42121e-08
-2.15648e-08
-3.52061e-07
1.1193e-08
-2.26016e-08
-3.36773e-07
8.26959e-09
-2.35577e-08
-3.17818e-07
5.45831e-09
-2.44122e-08
-2.95462e-07
2.78497e-09
-2.51399e-08
-2.70019e-07
2.75363e-10
-2.57208e-08
-2.41811e-07
-2.07213e-09
-2.61329e-08
-2.11249e-07
-4.20709e-09
-2.63569e-08
-1.78772e-07
-6.10287e-09
-2.63709e-08
-1.44911e-07
-7.71703e-09
-2.61476e-08
-1.10287e-07
-8.99011e-09
-2.56349e-08
-7.57471e-08
-9.8298e-09
-2.47053e-08
-4.26986e-08
-1.0058e-08
-2.29931e-08
-1.39257e-08
-9.37373e-09
-1.93998e-08
-5.85669e-09
-8.0676e-09
-1.21632e-08
3.5372e-08
-1.80021e-08
-4.0659e-08
6.45322e-08
-1.94141e-08
-7.47823e-08
7.77257e-08
-2.01953e-08
-1.11517e-07
8.69793e-08
-2.12647e-08
-1.48693e-07
9.29319e-08
-2.22704e-08
-1.84819e-07
9.61926e-08
-2.31564e-08
-2.18729e-07
9.72304e-08
-2.39783e-08
-2.49636e-07
9.6466e-08
-2.47503e-08
-2.76956e-07
9.42463e-08
-2.54886e-08
-3.00359e-07
9.08641e-08
-2.61889e-08
-3.19626e-07
8.65844e-08
-2.686e-08
-3.34714e-07
8.16373e-08
-2.74938e-08
-3.45642e-07
7.62224e-08
-2.8097e-08
-3.52554e-07
7.05116e-08
-2.86602e-08
-3.55617e-07
6.46277e-08
-2.91943e-08
-3.55066e-07
5.86936e-08
-2.9686e-08
-3.51131e-07
5.28011e-08
-3.01393e-08
-3.44078e-07
4.70231e-08
-3.05468e-08
-3.34171e-07
4.14161e-08
-3.09094e-08
-3.21693e-07
3.60362e-08
-3.12212e-08
-3.0691e-07
3.09149e-08
-3.1486e-08
-2.90095e-07
2.60752e-08
-3.16965e-08
-2.71506e-07
2.15324e-08
-3.18523e-08
-2.51396e-07
1.72964e-08
-3.19481e-08
-2.30003e-07
1.3374e-08
-3.19816e-08
-2.07557e-07
9.7746e-09
-3.19455e-08
-1.84297e-07
6.50127e-09
-3.18324e-08
-1.60435e-07
3.5587e-09
-3.16285e-08
-1.36179e-07
9.53469e-10
-3.1314e-08
-1.11742e-07
-1.29458e-09
-3.08574e-08
-8.73502e-08
-3.16135e-09
-3.02223e-08
-6.32328e-08
-4.59375e-09
-2.93527e-08
-3.97418e-08
-5.49731e-09
-2.80517e-08
-1.77873e-08
-5.58458e-09
-2.57422e-08
-3.17637e-09
-2.04689e-08
-1.04975e-08
5.28556e-08
-6.98698e-09
-2.6825e-08
8.93214e-08
-8.46123e-09
-4.48731e-08
1.04974e-07
-9.20055e-09
-6.33898e-08
1.15453e-07
-9.95721e-09
-8.1525e-08
1.21804e-07
-1.07362e-08
-9.86645e-08
1.24913e-07
-1.15824e-08
-1.14365e-07
1.25416e-07
-1.24835e-08
-1.28305e-07
1.23862e-07
-1.34578e-08
-1.40258e-07
1.20674e-07
-1.44749e-08
-1.50096e-07
1.16237e-07
-1.55348e-08
-1.57785e-07
1.10872e-07
-1.65999e-08
-1.63347e-07
1.04863e-07
-1.76628e-08
-1.66875e-07
9.84377e-08
-1.86883e-08
-1.68471e-07
9.17795e-08
-1.9671e-08
-1.68309e-07
8.50537e-08
-2.05888e-08
-1.66551e-07
7.83764e-08
-2.14415e-08
-1.63367e-07
7.18297e-08
-2.22123e-08
-1.58916e-07
6.54777e-08
-2.2906e-08
-1.53353e-07
5.93676e-08
-2.35144e-08
-1.46822e-07
5.35463e-08
-2.40407e-08
-1.39465e-07
4.80379e-08
-2.44813e-08
-1.31405e-07
4.28579e-08
-2.48431e-08
-1.22752e-07
3.80064e-08
-2.51245e-08
-1.13608e-07
3.34817e-08
-2.53311e-08
-1.04055e-07
2.92825e-08
-2.54617e-08
-9.4174e-08
2.54121e-08
-2.55179e-08
-8.4043e-08
2.18672e-08
-2.54964e-08
-7.37295e-08
1.86371e-08
-2.53934e-08
-6.32913e-08
1.57138e-08
-2.51975e-08
-5.27824e-08
1.30869e-08
-2.48914e-08
-4.2245e-08
1.07477e-08
-2.4446e-08
-3.17227e-08
8.68955e-09
-2.38048e-08
-2.12836e-08
6.9019e-09
-2.28395e-08
-1.09955e-08
5.36878e-09
-2.12409e-08
3.32615e-09
-1.74985e-08
-1.17864e-08
5.67327e-08
7.90922e-09
-2.09505e-08
9.15651e-08
6.91979e-09
-2.86547e-08
1.06742e-07
5.93709e-09
-3.54333e-08
1.17083e-07
5.14872e-09
-4.15793e-08
1.23617e-07
4.32965e-09
-4.71471e-08
1.27115e-07
3.36954e-09
-5.2141e-08
1.28188e-07
2.22055e-09
-5.65176e-08
1.27322e-07
9.17259e-10
-6.02069e-08
1.24907e-07
-5.44313e-10
-6.3105e-08
1.2124e-07
-2.10376e-09
-6.51237e-08
1.16632e-07
-3.74175e-09
-6.6259e-08
1.11386e-07
-5.38667e-09
-6.65775e-08
1.05769e-07
-7.01331e-09
-6.61631e-08
9.9945e-08
-8.58024e-09
-6.51095e-08
9.40679e-08
-1.00682e-08
-6.35228e-08
8.82388e-08
-1.14476e-08
-6.15075e-08
8.25362e-08
-1.27236e-08
-5.91542e-08
7.70105e-08
-1.38843e-08
-5.65539e-08
7.17054e-08
-1.49387e-08
-5.37743e-08
6.66464e-08
-1.588e-08
-5.08753e-08
6.18553e-08
-1.67165e-08
-4.79144e-08
5.73417e-08
-1.74445e-08
-4.49346e-08
5.30999e-08
-1.80733e-08
-4.19783e-08
4.91282e-08
-1.86024e-08
-3.90763e-08
4.54181e-08
-1.90381e-08
-3.62443e-08
4.19607e-08
-1.93791e-08
-3.34824e-08
3.87315e-08
-1.96287e-08
-3.07556e-08
3.56958e-08
-1.97856e-08
-2.80024e-08
3.28112e-08
-1.98496e-08
-2.51325e-08
3.00297e-08
-1.9813e-08
-2.19998e-08
2.72785e-08
-1.96643e-08
-1.83821e-08
2.44722e-08
-1.93996e-08
-1.38971e-08
2.14761e-08
-1.90595e-08
-8.10659e-09
1.81626e-08
-1.85814e-08
1.18617e-08
-1.66446e-08
-1.1427e-08
5.33868e-08
1.47719e-08
-1.54082e-08
8.15553e-08
1.39916e-08
-1.57609e-08
9.41905e-08
1.2906e-08
-1.40288e-08
1.03218e-07
1.21317e-08
-1.11472e-08
1.09316e-07
1.14196e-08
-7.65838e-09
1.13063e-07
1.05616e-08
-3.91421e-09
1.14902e-07
9.54272e-09
-1.50791e-10
1.15193e-07
8.36565e-09
3.49369e-09
1.14229e-07
7.03225e-09
6.96264e-09
1.12259e-07
5.51228e-09
1.022e-08
1.09497e-07
3.87651e-09
1.32081e-08
1.06179e-07
2.21916e-09
1.5849e-08
1.02512e-07
6.15687e-10
1.80817e-08
9.86418e-08
-9.2997e-10
1.98828e-08
9.46648e-08
-2.39726e-09
2.1246e-08
9.06678e-08
-3.79459e-09
2.2181e-08
8.67092e-08
-5.1052e-09
2.26786e-08
8.28396e-08
-6.32889e-09
2.27478e-08
7.90936e-08
-7.45563e-09
2.23834e-08
7.54982e-08
-8.48894e-09
2.15936e-08
7.20684e-08
-9.42247e-09
2.03835e-08
6.88113e-08
-1.02609e-08
1.87611e-08
6.57249e-08
-1.10016e-08
1.6735e-08
6.28022e-08
-1.16486e-08
1.43255e-08
6.00283e-08
-1.22007e-08
1.15724e-08
5.73769e-08
-1.2663e-08
8.53394e-09
5.48076e-08
-1.30376e-08
5.3025e-09
5.2259e-08
-1.33327e-08
2.00767e-09
4.96583e-08
-1.35513e-08
-1.17439e-09
4.69081e-08
-1.36966e-08
-4.00429e-09
4.38754e-08
-1.3767e-08
-6.11964e-09
4.03841e-08
-1.37959e-08
-6.91154e-09
3.61878e-08
-1.39209e-08
-5.49803e-09
3.09666e-08
-1.42159e-08
1.99652e-08
-1.36025e-08
-6.33289e-09
4.60464e-08
1.36729e-08
-6.5249e-09
6.89722e-08
1.2777e-08
-3.48029e-09
7.94863e-08
1.16571e-08
1.50331e-09
8.72675e-08
1.09675e-08
7.56653e-09
9.28743e-08
1.03799e-08
1.41873e-08
9.67256e-08
9.71562e-09
2.09965e-08
9.91806e-08
8.91164e-09
2.77167e-08
1.00484e-07
7.98934e-09
3.40958e-08
1.00877e-07
6.97115e-09
3.99021e-08
1.00552e-07
5.90348e-09
4.4933e-08
9.96727e-08
4.7924e-09
4.91e-08
9.83549e-08
3.65642e-09
5.2391e-08
9.67152e-08
2.50591e-09
5.48223e-08
9.4843e-08
1.36651e-09
5.64292e-08
9.28188e-08
2.41476e-10
5.72306e-08
9.06998e-08
-8.34939e-10
5.72679e-08
8.85409e-08
-1.86927e-09
5.65778e-08
8.63787e-08
-2.8493e-09
5.51987e-08
8.42445e-08
-3.77062e-09
5.31606e-08
8.21585e-08
-4.62403e-09
5.05072e-08
8.01324e-08
-5.4092e-09
4.72682e-08
7.81692e-08
-6.12098e-09
4.34923e-08
7.62627e-08
-6.76103e-09
3.92248e-08
7.43984e-08
-7.32744e-09
3.45238e-08
7.25497e-08
-7.82346e-09
2.94734e-08
7.06793e-08
-8.25003e-09
2.41619e-08
6.87315e-08
-8.61232e-09
1.87016e-08
6.6633e-08
-8.9147e-09
1.32462e-08
6.42796e-08
-9.16449e-09
7.98182e-09
6.15362e-08
-9.36574e-09
3.16776e-09
5.82135e-08
-9.5234e-09
-8.3597e-10
5.4066e-08
-9.67809e-09
-3.4086e-09
4.87486e-08
-9.98826e-09
-3.71518e-09
4.18355e-08
-1.05643e-08
2.68122e-08
-1.05598e-08
-2.09134e-09
3.89607e-08
9.1773e-09
-7.46325e-10
5.94544e-08
8.17197e-09
2.60758e-09
6.89594e-08
7.17552e-09
7.15175e-09
7.61473e-08
6.57251e-09
1.23546e-08
8.1552e-08
6.12169e-09
1.78705e-08
8.55581e-08
5.65139e-09
2.34488e-08
8.8467e-08
5.13373e-09
2.886e-08
9.05085e-08
4.56552e-09
3.39238e-08
9.18564e-08
3.95812e-09
3.85112e-08
9.26536e-08
3.30963e-09
4.25406e-08
9.30094e-08
2.63323e-09
4.59441e-08
9.30201e-08
1.93205e-09
4.86786e-08
9.27596e-08
1.22073e-09
5.07242e-08
9.22936e-08
5.03835e-10
5.20774e-08
9.1672e-08
-2.05466e-10
5.27308e-08
9.09384e-08
-8.91443e-10
5.2699e-08
9.01253e-08
-1.55374e-09
5.20038e-08
8.92607e-08
-2.18734e-09
5.06702e-08
8.83624e-08
-2.78264e-09
4.8725e-08
8.74414e-08
-3.33801e-09
4.62028e-08
8.65017e-08
-3.84771e-09
4.31461e-08
8.55389e-08
-4.31218e-09
3.95947e-08
8.45413e-08
-4.72837e-09
3.56085e-08
8.34852e-08
-5.09855e-09
3.12423e-08
8.23377e-08
-5.42208e-09
2.65736e-08
8.10485e-08
-5.70286e-09
2.16984e-08
7.95515e-08
-5.94253e-09
1.67244e-08
7.77531e-08
-6.14729e-09
1.17979e-08
7.55294e-08
-6.32124e-09
7.09062e-09
7.27112e-08
-6.46999e-09
2.82998e-09
6.90721e-08
-6.59629e-09
-6.8003e-10
6.43092e-08
-6.73505e-09
-2.92651e-09
5.80098e-08
-7.01254e-09
-3.20823e-09
4.9633e-08
-7.51675e-09
3.12025e-08
-7.59795e-09
-5.35265e-10
3.42163e-08
5.27959e-09
3.45107e-10
5.41169e-08
4.45833e-09
2.16433e-09
6.33925e-08
3.74645e-09
4.50617e-09
7.04844e-08
3.3217e-09
7.13059e-09
7.59243e-08
3.00177e-09
9.91297e-09
8.00915e-08
2.68508e-09
1.27574e-08
8.32794e-08
2.34252e-09
1.55816e-08
8.57042e-08
1.97987e-09
1.83076e-08
8.75355e-08
1.59579e-09
2.08628e-08
8.89002e-08
1.19699e-09
2.31897e-08
8.98998e-08
7.83309e-10
2.52353e-08
9.06115e-08
3.62492e-10
2.69611e-08
9.10977e-08
-6.25669e-11
2.83226e-08
9.14061e-08
-4.76285e-10
2.93043e-08
9.15753e-08
-8.83922e-10
2.98828e-08
9.16362e-08
-1.27583e-09
3.00466e-08
9.16117e-08
-1.65097e-09
2.97943e-08
9.15161e-08
-2.00189e-09
2.91251e-08
9.13582e-08
-2.3281e-09
2.805e-08
9.11412e-08
-2.62495e-09
2.65868e-08
9.08605e-08
-2.89368e-09
2.47496e-08
9.0506e-08
-3.13153e-09
2.25743e-08
9.00574e-08
-3.34122e-09
2.00953e-08
8.94865e-08
-3.5217e-09
1.73601e-08
8.875e-08
-3.67695e-09
1.44228e-08
8.77918e-08
-3.80738e-09
1.13618e-08
8.65325e-08
-3.9182e-09
8.25625e-09
8.48689e-08
-4.01144e-09
5.22046e-09
8.26585e-08
-4.09342e-09
2.38119e-09
7.9716e-08
-4.16551e-09
-1.00152e-10
7.57862e-08
-4.23234e-09
-2.01646e-09
7.05371e-08
-4.31406e-09
-3.01931e-09
6.35096e-08
-4.49627e-09
-2.66362e-09
5.4105e-08
-4.82426e-09
3.33769e-08
-4.84052e-09
-5.20288e-10
3.14309e-08
3.30484e-09
-5.39218e-10
5.12982e-08
2.83893e-09
-1.51604e-10
6.05514e-08
2.45265e-09
4.68531e-10
6.76476e-08
2.21754e-09
1.23706e-09
7.31211e-08
2.03247e-09
2.12507e-09
7.73654e-08
1.84066e-09
3.09824e-09
8.06713e-08
1.63467e-09
4.12789e-09
8.326e-08
1.4134e-09
5.18538e-09
8.52959e-08
1.18314e-09
6.23625e-09
8.69054e-08
9.43394e-10
7.25179e-09
8.81835e-08
7.00674e-10
8.20432e-09
8.92037e-08
4.5554e-10
9.06743e-09
9.00216e-08
2.13863e-10
9.81364e-09
9.068e-08
-2.04289e-11
1.04181e-08
9.12111e-08
-2.40318e-10
1.0861e-08
9.16383e-08
-4.46735e-10
1.11347e-08
9.19781e-08
-6.36392e-10
1.12171e-08
9.22404e-08
-8.08932e-10
1.1106e-08
9.24291e-08
-9.60219e-10
1.07974e-08
9.25434e-08
-1.0923e-09
1.02841e-08
9.25754e-08
-1.20203e-09
9.57424e-09
9.25086e-08
-1.29287e-09
8.67724e-09
9.23188e-08
-1.36374e-09
7.61047e-09
9.19715e-08
-1.41935e-09
6.40086e-09
9.14202e-08
-1.45964e-09
5.08048e-09
9.0602e-08
-1.49026e-09
3.69e-09
8.94333e-08
-1.51203e-09
2.2895e-09
8.78036e-08
-1.53152e-09
9.327e-10
8.55648e-08
-1.55023e-09
-2.99968e-10
8.25219e-08
-1.57419e-09
-1.32271e-09
7.84124e-08
-1.60395e-09
-2.01703e-09
7.28903e-08
-1.65663e-09
-2.21255e-09
6.54845e-08
-1.7809e-09
-1.67727e-09
5.55699e-08
-2.00133e-09
3.37577e-08
-2.05669e-09
-1.20948e-09
2.98005e-08
2.83851e-09
-2.22712e-09
4.95259e-08
2.79181e-09
-3.06244e-09
5.86918e-08
2.6948e-09
-3.76131e-09
6.57104e-08
2.63453e-09
-4.3215e-09
7.11189e-08
2.56368e-09
-4.74114e-09
7.53125e-08
2.47252e-09
-5.01467e-09
7.85853e-08
2.3592e-09
-5.14323e-09
8.11579e-08
2.23152e-09
-5.13524e-09
8.31966e-08
2.09117e-09
-5.00101e-09
8.48261e-08
1.94518e-09
-4.7525e-09
8.61416e-08
1.79466e-09
-4.41195e-09
8.72144e-08
1.64654e-09
-3.99041e-09
8.80995e-08
1.50165e-09
-3.51271e-09
8.88374e-08
1.36641e-09
-3.00203e-09
8.9459e-08
1.24073e-09
-2.48084e-09
8.99844e-08
1.13101e-09
-1.96484e-09
9.04284e-08
1.03612e-09
-1.48378e-09
9.07979e-08
9.60407e-10
-1.05195e-09
9.10951e-08
9.01627e-10
-6.84777e-10
9.13143e-08
8.62672e-10
-3.9351e-10
9.14455e-08
8.3832e-10
-1.85274e-10
9.14697e-08
8.30396e-10
-6.05935e-11
9.13612e-08
8.33846e-10
-2.14326e-11
9.1083e-08
8.49042e-10
-5.78234e-11
9.05872e-08
8.69764e-10
-1.61187e-10
8.98089e-08
8.95495e-10
-3.10579e-10
8.86644e-08
9.19156e-10
-4.88839e-10
8.70417e-08
9.39452e-10
-6.68195e-10
8.47951e-08
9.48611e-10
-8.19908e-10
8.17305e-08
9.45192e-10
-9.19426e-10
7.75908e-08
9.21312e-10
-9.3459e-10
7.20349e-08
8.6819e-10
-8.0114e-10
6.46044e-08
7.4919e-10
-4.73734e-10
5.46868e-08
5.52515e-10
3.29441e-08
3.41953e-10
-1.85981e-09
2.86725e-08
2.98768e-09
-3.51422e-09
4.78905e-08
3.28917e-09
-5.02731e-09
5.68008e-08
3.40468e-09
-6.39335e-09
6.36093e-08
3.46805e-09
-7.59547e-09
6.88383e-08
3.4812e-09
-8.61372e-09
7.28761e-08
3.4544e-09
-9.43843e-09
7.60111e-08
3.39998e-09
-1.0065e-08
7.84619e-08
3.32261e-09
-1.04913e-08
8.03909e-08
3.23159e-09
-1.07184e-08
8.19234e-08
3.12968e-09
-1.07541e-08
8.31518e-08
3.02491e-09
-1.06068e-08
8.4149e-08
2.91904e-09
-1.02952e-08
8.49675e-08
2.81926e-09
-9.83346e-09
8.56496e-08
2.72639e-09
-9.24506e-09
8.62238e-08
2.64662e-09
-8.55189e-09
8.67129e-08
2.57952e-09
-7.78431e-09
8.7129e-08
2.52997e-09
-6.96275e-09
8.7481e-08
2.49595e-09
-6.11551e-09
8.77678e-08
2.48071e-09
-5.26757e-09
8.79845e-08
2.48108e-09
-4.43766e-09
8.81163e-08
2.49919e-09
-3.64476e-09
8.8146e-08
2.52973e-09
-2.90094e-09
8.80449e-08
2.57312e-09
-2.21789e-09
8.77778e-08
2.62287e-09
-1.60475e-09
8.72946e-08
2.67831e-09
-1.06011e-09
8.65337e-08
2.73201e-09
-5.89822e-10
8.54106e-08
2.78243e-09
-1.88367e-10
8.38196e-08
2.82125e-09
1.42007e-10
8.16177e-08
2.84602e-09
4.03895e-10
7.86217e-08
2.8476e-09
5.87464e-10
7.4585e-08
2.82228e-09
6.8136e-10
6.91851e-08
2.75472e-09
6.77182e-10
6.19881e-08
2.62049e-09
5.52869e-10
5.24155e-08
2.39683e-09
3.14909e-08
2.00566e-09
-2.06652e-09
2.78291e-08
2.91016e-09
-3.94808e-09
4.63665e-08
3.40469e-09
-5.72043e-09
5.4945e-08
3.62838e-09
-7.34565e-09
6.14809e-08
3.75444e-09
-8.79297e-09
6.64794e-08
3.80446e-09
-1.00359e-08
7.03126e-08
3.80703e-09
-1.10604e-08
7.32634e-08
3.77327e-09
-1.1856e-08
7.55425e-08
3.71471e-09
-1.24134e-08
7.73118e-08
3.63645e-09
-1.27299e-08
7.8692e-08
3.54782e-09
-1.28076e-08
7.97779e-08
3.45234e-09
-1.26564e-08
8.06395e-08
3.35807e-09
-1.22896e-08
8.1333e-08
3.2673e-09
-1.17259e-08
8.18984e-08
3.18703e-09
-1.09865e-08
8.23681e-08
3.11825e-09
-1.01042e-08
8.27624e-08
3.06661e-09
-9.10288e-09
8.30973e-08
3.03152e-09
-8.01762e-09
8.33785e-08
3.01696e-09
-6.87841e-09
8.36083e-08
3.02051e-09
-5.71779e-09
8.37793e-08
3.04436e-09
-4.56639e-09
8.38807e-08
3.08421e-09
-3.45197e-09
8.38912e-08
3.14053e-09
-2.4001e-09
8.3785e-08
3.20735e-09
-1.42833e-09
8.35232e-08
3.28368e-09
-5.55505e-10
8.30595e-08
3.36221e-09
2.0696e-10
8.23299e-08
3.44084e-09
8.51619e-10
8.12559e-08
3.51125e-09
1.3676e-09
7.97319e-08
3.57035e-09
1.75215e-09
7.76255e-08
3.60878e-09
1.9934e-09
7.47588e-08
3.62228e-09
2.07422e-09
7.09035e-08
3.59971e-09
1.97544e-09
6.57522e-08
3.53103e-09
1.67568e-09
5.89032e-08
3.38715e-09
1.13185e-09
4.9813e-08
3.14426e-09
2.99843e-08
2.6396e-09
-1.78176e-09
2.73588e-08
2.24995e-09
-3.53371e-09
4.53699e-08
2.75131e-09
-5.26367e-09
5.36855e-08
2.98846e-09
-6.89323e-09
5.99985e-08
3.11187e-09
-8.36654e-09
6.4797e-08
3.15706e-09
-9.65189e-09
6.84448e-08
3.1508e-09
-1.07132e-08
7.12174e-08
3.10918e-09
-1.15338e-08
7.33241e-08
3.03914e-09
-1.20966e-08
7.49232e-08
2.95065e-09
-1.23912e-08
7.61383e-08
2.84892e-09
-1.24187e-08
7.70623e-08
2.74285e-09
-1.21852e-08
7.777e-08
2.63638e-09
-1.17069e-08
7.83164e-08
2.53735e-09
-1.10034e-08
7.87467e-08
2.44849e-09
-1.01024e-08
7.90922e-08
2.37632e-09
-9.04063e-09
7.93783e-08
2.32203e-09
-7.85412e-09
7.96193e-08
2.29038e-09
-6.58067e-09
7.98252e-08
2.28055e-09
-5.26347e-09
7.99956e-08
2.29526e-09
-3.94254e-09
8.01268e-08
2.33154e-09
-2.65524e-09
8.02044e-08
2.38997e-09
-1.44001e-09
8.021e-08
2.46555e-09
-3.26921e-10
8.01135e-08
2.55696e-09
6.6054e-10
7.98793e-08
2.65748e-09
1.49928e-09
7.94565e-08
2.76432e-09
2.17638e-09
7.87848e-08
2.86947e-09
2.67768e-09
7.77829e-08
2.96911e-09
3.00528e-09
7.6351e-08
3.05434e-09
3.15264e-09
7.43568e-08
3.12037e-09
3.12227e-09
7.16324e-08
3.15748e-09
2.91218e-09
6.79557e-08
3.15947e-09
2.51441e-09
6.30365e-08
3.11174e-09
1.93496e-09
5.6491e-08
2.9924e-09
1.17159e-09
4.78069e-08
2.76969e-09
2.88697e-08
2.28642e-09
-1.16814e-09
2.74624e-08
1.06478e-09
-2.5987e-09
4.53731e-08
1.42715e-09
-4.13592e-09
5.36203e-08
1.60332e-09
-5.66795e-09
5.98495e-08
1.67888e-09
-7.1024e-09
6.45499e-08
1.68326e-09
-8.38393e-09
6.80828e-08
1.64312e-09
-9.46237e-09
7.07276e-08
1.56855e-09
-1.03027e-08
7.26938e-08
1.46908e-09
-1.08737e-08
7.41454e-08
1.35046e-09
-1.11648e-08
7.52067e-08
1.22215e-09
-1.11688e-08
7.59769e-08
1.08964e-09
-1.089e-08
7.6531e-08
9.6046e-10
-1.03449e-08
7.69314e-08
8.39038e-10
-9.55614e-09
7.72242e-08
7.33157e-10
-8.55546e-09
7.74471e-08
6.45845e-10
-7.38648e-09
7.76252e-08
5.82857e-10
-6.08974e-09
7.77783e-08
5.45336e-10
-4.71657e-09
7.79147e-08
5.36808e-10
-3.31565e-09
7.80383e-08
5.56069e-10
-1.93527e-09
7.81423e-08
6.04179e-10
-6.22428e-10
7.8215e-08
6.77428e-10
5.79035e-10
7.82336e-08
7.745e-10
1.63241e-09
7.81699e-08
8.89477e-10
2.51109e-09
7.79826e-08
1.01909e-09
3.19008e-09
7.76223e-08
1.15583e-09
3.65554e-09
7.70229e-08
1.29516e-09
3.90542e-09
7.61047e-08
1.4286e-09
3.94151e-09
7.47629e-08
1.55084e-09
3.77722e-09
7.28681e-08
1.65297e-09
3.43273e-09
7.02496e-08
1.72958e-09
2.92382e-09
6.66905e-08
1.77154e-09
2.28892e-09
6.19019e-08
1.7705e-09
1.56406e-09
5.55107e-08
1.70531e-09
8.05707e-10
4.70123e-08
1.55212e-09
2.84637e-08
1.21216e-09
-4.98478e-10
2.8258e-08
-2.98925e-10
-1.56133e-09
4.65886e-08
-1.49401e-10
-2.87923e-09
5.50027e-08
-6.65565e-11
-4.29023e-09
6.13233e-08
-6.13536e-11
-5.68266e-09
6.60518e-08
-1.1067e-10
-6.96623e-09
6.95644e-08
-1.97774e-10
-8.07146e-09
7.21478e-08
-3.13307e-10
-8.94995e-09
7.40231e-08
-4.52652e-10
-9.55535e-09
7.53597e-08
-6.08208e-10
-9.86492e-09
7.62919e-08
-7.74521e-10
-9.8697e-09
7.69234e-08
-9.42662e-10
-9.5722e-09
7.73389e-08
-1.10537e-09
-8.98908e-09
7.76034e-08
-1.25453e-09
-8.15096e-09
7.77706e-08
-1.38559e-09
-7.08969e-09
7.78799e-08
-1.49166e-09
-5.86072e-09
7.79627e-08
-1.56967e-09
-4.50348e-09
7.80386e-08
-1.61501e-09
-3.0836e-09
7.81207e-08
-1.627e-09
-1.65099e-09
7.82108e-08
-1.60375e-09
-2.67695e-10
7.83049e-08
-1.54735e-09
1.01917e-09
7.83877e-08
-1.45864e-09
2.15841e-09
7.84375e-08
-1.3424e-09
3.10915e-09
7.84205e-08
-1.20193e-09
3.8407e-09
7.8295e-08
-1.04412e-09
4.33121e-09
7.80051e-08
-8.74137e-10
4.57321e-09
7.7483e-08
-7.00192e-10
4.56346e-09
7.66414e-08
-5.28261e-10
4.31998e-09
7.53735e-08
-3.66871e-10
3.86889e-09
7.35414e-08
-2.21856e-10
3.24618e-09
7.09719e-08
-1.00755e-10
2.50494e-09
6.74394e-08
-7.80777e-12
1.70918e-09
6.26515e-08
4.77415e-11
9.38769e-10
5.62251e-08
5.522e-11
3.05379e-10
4.765e-08
-2.57739e-12
2.88953e-08
-1.27326e-10
3.81925e-11
2.9705e-08
-1.48333e-09
-7.21342e-10
4.88813e-08
-1.53579e-09
-1.83233e-09
5.76606e-08
-1.54724e-09
-3.11811e-09
6.42202e-08
-1.61027e-09
-4.44278e-09
6.90894e-08
-1.71329e-09
-5.69938e-09
7.2665e-08
-1.84473e-09
-6.80246e-09
7.52522e-08
-2.00071e-09
-7.68802e-09
7.70844e-08
-2.17593e-09
-8.30691e-09
7.83447e-08
-2.36548e-09
-8.6298e-09
7.9176e-08
-2.56143e-09
-8.64296e-09
7.96939e-08
-2.75758e-09
-8.34697e-09
7.99894e-08
-2.94577e-09
-7.76068e-09
8.01365e-08
-3.11938e-09
-6.91312e-09
8.01923e-08
-3.27059e-09
-5.84e-09
8.02036e-08
-3.39429e-09
-4.59789e-09
8.02034e-08
-3.48459e-09
-3.2358e-09
8.02166e-08
-3.53878e-09
-1.81822e-09
8.02558e-08
-3.55368e-09
-4.04402e-10
8.03263e-08
-3.5295e-09
9.46619e-10
8.04213e-08
-3.46612e-09
2.17414e-09
8.05266e-08
-3.36676e-09
3.23043e-09
8.06159e-08
-3.23424e-09
4.07053e-09
8.06545e-08
-3.07446e-09
4.6638e-09
8.05942e-08
-2.89261e-09
4.98782e-09
8.03761e-08
-2.69645e-09
5.04024e-09
7.99244e-08
-2.49256e-09
4.82582e-09
7.91469e-08
-2.28944e-09
4.36415e-09
7.79269e-08
-2.09367e-09
3.69933e-09
7.61198e-08
-1.913e-09
2.88352e-09
7.35398e-08
-1.75219e-09
1.98846e-09
6.9951e-08
-1.61631e-09
1.10452e-09
6.50449e-08
-1.50831e-09
3.44542e-10
5.84209e-08
-1.43591e-09
-1.43485e-10
4.95447e-08
-1.40662e-09
3.00897e-08
-1.33823e-09
3.18552e-10
3.16118e-08
-2.22362e-09
-2.50976e-10
5.18658e-08
-2.41703e-09
-1.2139e-09
6.11189e-08
-2.49454e-09
-2.39295e-09
6.80036e-08
-2.60601e-09
-3.63664e-09
7.30806e-08
-2.74587e-09
-4.83837e-09
7.67745e-08
-2.90929e-09
-5.90219e-09
7.94095e-08
-3.0933e-09
-6.75857e-09
8.12376e-08
-3.29522e-09
-7.36101e-09
8.24541e-08
-3.50938e-09
-7.67043e-09
8.32156e-08
-3.7296e-09
-7.67345e-09
8.36451e-08
-3.94774e-09
-7.37072e-09
8.38438e-08
-4.15656e-09
-6.78111e-09
8.38916e-08
-4.34775e-09
-5.92552e-09
8.38541e-08
-4.51475e-09
-4.85333e-09
8.37813e-08
-4.6507e-09
-3.61177e-09
8.37127e-08
-4.75101e-09
-2.25815e-09
8.36745e-08
-4.81125e-09
-8.55668e-10
8.36831e-08
-4.82967e-09
5.34012e-10
8.37427e-08
-4.80489e-09
1.84359e-09
8.38483e-08
-4.73832e-09
3.01967e-09
8.39822e-08
-4.63177e-09
4.00907e-09
8.41175e-08
-4.48968e-09
4.76609e-09
8.42137e-08
-4.3167e-09
5.26024e-09
8.42198e-08
-4.11974e-09
5.47218e-09
8.40692e-08
-3.90543e-09
5.39673e-09
8.3681e-08
-3.68207e-09
5.04791e-09
8.29534e-08
-3.45699e-09
4.4515e-09
8.17617e-08
-3.23831e-09
3.65383e-09
7.99488e-08
-3.03221e-09
2.72112e-09
7.73179e-08
-2.8443e-09
1.73351e-09
7.36154e-08
-2.67724e-09
7.94827e-10
6.85157e-08
-2.53325e-09
3.98266e-11
6.1592e-08
-2.41464e-09
-3.73732e-10
5.2281e-08
-2.32404e-09
3.1835e-08
-2.11862e-09
3.46605e-10
3.37308e-08
-2.46427e-09
-1.73641e-10
5.50947e-08
-2.71051e-09
-1.08006e-09
6.4841e-08
-2.81566e-09
-2.19855e-09
7.20693e-08
-2.94707e-09
-3.3876e-09
7.73728e-08
-3.10301e-09
-4.535e-09
8.1202e-08
-3.28003e-09
-5.55005e-09
8.39022e-08
-3.47696e-09
-6.36445e-09
8.57414e-08
-3.69063e-09
-6.92229e-09
8.69299e-08
-3.91645e-09
-7.19554e-09
8.76347e-08
-4.14732e-09
-7.16351e-09
8.79902e-08
-4.37595e-09
-6.83038e-09
8.81048e-08
-4.59396e-09
-6.2125e-09
8.80672e-08
-4.79385e-09
-5.33877e-09
8.7948e-08
-4.96799e-09
-4.25097e-09
8.78039e-08
-5.11033e-09
-2.99807e-09
8.7677e-08
-5.21528e-09
-1.64465e-09
8.75979e-08
-5.27929e-09
-2.43466e-10
8.75839e-08
-5.29962e-09
1.13216e-09
8.76409e-08
-5.27581e-09
2.42693e-09
8.77624e-08
-5.20833e-09
3.57928e-09
8.79305e-08
-5.09992e-09
4.53549e-09
8.81139e-08
-4.95413e-09
5.25713e-09
8.82701e-08
-4.77657e-09
5.70789e-09
8.83416e-08
-4.57331e-09
5.87202e-09
8.82573e-08
-4.352e-09
5.74598e-09
8.79278e-08
-4.12017e-09
5.34085e-09
8.72442e-08
-3.88621e-09
4.68946e-09
8.60714e-08
-3.65745e-09
3.83795e-09
8.42418e-08
-3.44092e-09
2.85103e-09
8.15444e-08
-3.24124e-09
1.81841e-09
7.77106e-08
-3.06152e-09
8.41268e-10
7.23939e-08
-2.90251e-09
5.72987e-11
6.51429e-08
-2.76594e-09
-3.72665e-10
5.5363e-08
-2.65169e-09
3.38586e-08
-2.39656e-09
1.99083e-10
3.58057e-08
-2.27295e-09
-3.78015e-10
5.81608e-08
-2.49055e-09
-1.29889e-09
6.83479e-08
-2.5862e-09
-2.40116e-09
7.58842e-08
-2.71191e-09
-3.55453e-09
8.13901e-08
-2.86391e-09
-4.6547e-09
8.53398e-08
-3.0386e-09
-5.61326e-09
8.80963e-08
-3.23383e-09
-6.36951e-09
8.99431e-08
-3.44662e-09
-6.86966e-09
9.11026e-08
-3.67166e-09
-7.08549e-09
9.17531e-08
-3.90227e-09
-7.00299e-09
9.20376e-08
-4.1305e-09
-6.62309e-09
9.20734e-08
-4.34846e-09
-5.96307e-09
9.19554e-08
-4.54813e-09
-5.05294e-09
9.17609e-08
-4.72242e-09
-3.93534e-09
9.15508e-08
-4.86483e-09
-2.65959e-09
9.13722e-08
-4.97031e-09
-1.28501e-09
9.12574e-08
-5.03484e-09
1.27462e-10
9.12265e-08
-5.0562e-09
1.51819e-09
9.12854e-08
-5.03342e-09
2.82031e-09
9.14277e-08
-4.96747e-09
3.97786e-09
9.16331e-08
-4.86053e-09
4.93859e-09
9.18688e-08
-4.71664e-09
5.66408e-09
9.20874e-08
-4.54081e-09
6.11709e-09
9.22276e-08
-4.33956e-09
6.28338e-09
9.22116e-08
-4.12e-09
6.15681e-09
9.19441e-08
-3.89012e-09
5.75087e-09
9.13077e-08
-3.65787e-09
5.095e-09
9.01588e-08
-3.43115e-09
4.23534e-09
8.83188e-08
-3.21665e-09
3.23418e-09
8.5565e-08
-3.01964e-09
2.17453e-09
8.16131e-08
-2.84311e-09
1.15815e-09
7.61001e-08
-2.68887e-09
3.09545e-10
6.85508e-08
-2.55944e-09
-2.158e-10
5.83442e-08
-2.45728e-09
3.58769e-08
-2.23269e-09
-5.53453e-11
3.765e-08
-1.78763e-09
-7.59441e-10
6.07795e-08
-1.91709e-09
-1.74489e-09
7.13102e-08
-1.97645e-09
-2.86613e-09
7.90831e-08
-2.07732e-09
-4.00378e-09
8.47398e-08
-2.21119e-09
-5.06573e-09
8.87723e-08
-2.37144e-09
-5.97336e-09
9.15584e-08
-2.55466e-09
-6.66654e-09
9.33936e-08
-2.75682e-09
-7.10302e-09
9.45112e-08
-2.9724e-09
-7.25426e-09
9.50983e-08
-3.19424e-09
-7.10939e-09
9.53065e-08
-3.41458e-09
-6.67001e-09
9.526e-08
-3.62532e-09
-5.9568e-09
9.50603e-08
-3.81878e-09
-4.99781e-09
9.47901e-08
-3.98778e-09
-3.83626e-09
9.45151e-08
-4.12615e-09
-2.52197e-09
9.42859e-08
-4.22876e-09
-1.10877e-09
9.41381e-08
-4.29188e-09
3.36207e-10
9.40926e-08
-4.31313e-09
1.75805e-09
9.41568e-08
-4.29178e-09
3.08844e-09
9.43231e-08
-4.22853e-09
4.279e-09
9.45703e-08
-4.12574e-09
5.27297e-09
9.48624e-08
-3.98714e-09
6.02833e-09
9.51489e-08
-3.81785e-09
6.51716e-09
9.53635e-08
-3.624e-09
6.71651e-09
9.54235e-08
-3.41279e-09
6.62653e-09
9.52271e-08
-3.1919e-09
6.25358e-09
9.46497e-08
-2.9694e-09
5.62597e-09
9.35397e-08
-2.75308e-09
4.78441e-09
9.17096e-08
-2.55003e-09
3.78776e-09
8.89261e-08
-2.36577e-09
2.71293e-09
8.48932e-08
-2.20429e-09
1.64897e-09
7.9233e-08
-2.06879e-09
7.1144e-10
7.14532e-08
-1.96505e-09
4.54952e-11
6.09119e-08
-1.90069e-09
3.76869e-08
-1.76524e-09
-3.42049e-10
3.91573e-08
-1.16708e-09
-1.19162e-09
6.28114e-08
-1.17926e-09
-2.26464e-09
7.35708e-08
-1.1886e-09
-3.42233e-09
8.14948e-08
-1.25491e-09
-4.55827e-09
8.72386e-08
-1.36289e-09
-5.5894e-09
9.13065e-08
-1.50214e-09
-6.4527e-09
9.40864e-08
-1.66727e-09
-7.08524e-09
9.58833e-08
-1.85327e-09
-7.46193e-09
9.69385e-08
-2.05402e-09
-7.54647e-09
9.7447e-08
-2.26217e-09
-7.33782e-09
9.75672e-08
-2.46989e-09
-6.83852e-09
9.74297e-08
-2.66924e-09
-6.06568e-09
9.71418e-08
-2.85265e-09
-5.0554e-09
9.67914e-08
-3.01318e-09
-3.84338e-09
9.64486e-08
-3.1448e-09
-2.48149e-09
9.61675e-08
-3.24258e-09
-1.02772e-09
9.59861e-08
-3.30288e-09
4.62111e-10
9.59274e-08
-3.32341e-09
1.9221e-09
9.59988e-08
-3.30345e-09
3.29754e-09
9.61928e-08
-3.2437e-09
4.5276e-09
9.64862e-08
-3.14643e-09
5.56557e-09
9.68407e-08
-3.01525e-09
6.36557e-09
9.72023e-08
-2.8551e-09
6.90129e-09
9.75004e-08
-2.67196e-09
7.15201e-09
9.76473e-08
-2.47278e-09
7.10687e-09
9.75353e-08
-2.26513e-09
6.78035e-09
9.70339e-08
-2.05692e-09
6.19224e-09
9.59842e-08
-1.85598e-09
5.38086e-09
9.41914e-08
-1.6696e-09
4.39625e-09
9.1414e-08
-1.5039e-09
3.30445e-09
8.73469e-08
-1.36385e-09
2.19244e-09
8.1602e-08
-1.25463e-09
1.1552e-09
7.3675e-08
-1.18603e-09
3.2863e-10
6.29106e-08
-1.17263e-09
3.91722e-08
-1.15528e-09
-5.90521e-10
4.03065e-08
-5.59136e-10
-1.58035e-09
6.42554e-08
-4.547e-10
-2.73326e-09
7.51379e-08
-4.13325e-10
-3.92798e-09
8.31333e-08
-4.44114e-10
-5.06714e-09
8.89034e-08
-5.24921e-10
-6.07833e-09
9.296e-08
-6.41599e-10
-6.90414e-09
9.56974e-08
-7.86809e-10
-7.49379e-09
9.74276e-08
-9.54647e-10
-7.81356e-09
9.83979e-08
-1.13843e-09
-7.84667e-09
9.88096e-08
-1.33073e-09
-7.58056e-09
9.8827e-08
-1.52369e-09
-7.02969e-09
9.85866e-08
-1.70965e-09
-6.20734e-09
9.82008e-08
-1.88116e-09
-5.1471e-09
9.77627e-08
-2.0316e-09
-3.88722e-09
9.73463e-08
-2.15511e-09
-2.48448e-09
9.70095e-08
-2.24702e-09
-9.86598e-10
9.67928e-08
-2.30376e-09
5.44146e-10
9.67208e-08
-2.32321e-09
2.04632e-09
9.68013e-08
-2.3046e-09
3.45994e-09
9.70265e-08
-2.24869e-09
4.73244e-09
9.73716e-08
-2.15757e-09
5.8135e-09
9.77959e-08
-2.03479e-09
6.65719e-09
9.82416e-08
-1.88501e-09
7.2393e-09
9.86345e-08
-1.71407e-09
7.53209e-09
9.88813e-08
-1.5286e-09
7.53462e-09
9.88697e-08
-1.336e-09
7.2494e-09
9.84631e-08
-1.14394e-09
6.69714e-09
9.7497e-08
-9.60258e-10
5.91095e-09
9.57701e-08
-7.92337e-10
4.93602e-09
9.30351e-08
-6.46847e-10
3.83288e-09
8.898e-08
-5.29631e-10
2.67241e-09
8.32105e-08
-4.47873e-10
1.54839e-09
7.52149e-08
-4.15227e-10
5.79783e-10
6.43316e-08
-4.53269e-10
4.03064e-08
-5.53391e-10
-7.6287e-10
4.11338e-08
-6.52725e-11
-1.84489e-09
6.52092e-08
1.29746e-10
-3.05643e-09
7.61362e-08
2.12486e-10
-4.27649e-09
8.41417e-08
2.11734e-10
-5.41878e-09
8.98906e-08
1.54649e-10
-6.41628e-09
9.3898e-08
5.88259e-11
-7.21182e-09
9.65627e-08
-6.77636e-11
-7.76798e-09
9.82008e-08
-2.18422e-10
-8.04993e-09
9.90654e-08
-3.85487e-10
-8.03986e-09
9.93625e-08
-5.6167e-10
-7.73709e-09
9.92624e-08
-7.39428e-10
-7.14558e-09
9.89069e-08
-9.11035e-10
-6.28903e-09
9.84135e-08
-1.07e-09
-5.19676e-09
9.78797e-08
-1.20973e-09
-3.91023e-09
9.73843e-08
-1.32469e-09
-2.47683e-09
9.69877e-08
-1.41028e-09
-9.55004e-10
9.67337e-08
-1.46322e-09
5.98585e-10
9.66479e-08
-1.48137e-09
2.12583e-09
9.67392e-08
-1.46411e-09
3.56511e-09
9.69987e-08
-1.41203e-09
4.86239e-09
9.74006e-08
-1.32728e-09
5.97119e-09
9.79012e-08
-1.2131e-09
6.84637e-09
9.844e-08
-1.07412e-09
7.45971e-09
9.8938e-08
-9.15811e-10
7.78682e-09
9.92978e-08
-7.44783e-10
7.82404e-09
9.94018e-08