/*--------------------------------*- C++ -*----------------------------------*\
| =========                 |                                                 |
| \\      /  F ield         | OpenFOAM: The Open Source CFD Toolbox           |
|  \\    /   O peration     | Version:  v1906                                 |
|   \\  /    A nd           | Web:      www.OpenFOAM.com                      |
|    \\/     M anipulation  |                                                 |
\*---------------------------------------------------------------------------*/
FoamFile
{
    version     2.0;
    format      ascii;
    class       volVectorField;
    location    "57.4/oil";
    object      U;
}
// * * * * * * * * * * * * * * * * * * * * * * * * * * * * * * * * * * * * * //

dimensions      [0 1 -1 0 0 0 0];


internalField   nonuniform List<vector> 
27760
(
(-2.54009e-05 -2.58948e-05 -2.54009e-05)
(-5.01425e-05 -1.94262e-05 -1.82955e-05)
(-3.66676e-06 -5.03991e-06 -5.00096e-06)
(-5.98961e-06 -8.24279e-07 -9.08588e-07)
(-1.27368e-06 -2.65294e-07 -3.6387e-07)
(-5.2851e-07 -1.11632e-07 -2.18184e-07)
(1.40964e-07 -1.86745e-08 -1.33309e-07)
(4.70349e-07 2.13034e-08 -1.00216e-07)
(6.53374e-07 4.41056e-08 -8.24336e-08)
(7.2675e-07 5.84115e-08 -7.13766e-08)
(7.1601e-07 6.8794e-08 -6.26516e-08)
(6.34684e-07 7.64397e-08 -5.55627e-08)
(4.94949e-07 8.21923e-08 -4.98293e-08)
(3.10782e-07 8.61254e-08 -4.57051e-08)
(9.82336e-08 8.81898e-08 -4.34842e-08)
(-1.24911e-07 8.83502e-08 -4.33271e-08)
(-3.40436e-07 8.6652e-08 -4.51882e-08)
(-5.31227e-07 8.32428e-08 -4.87906e-08)
(-6.82831e-07 7.83665e-08 -5.36423e-08)
(-7.84673e-07 7.2324e-08 -5.90794e-08)
(-8.30848e-07 6.53959e-08 -6.43664e-08)
(-8.20769e-07 5.77057e-08 -6.8696e-08)
(-7.58498e-07 4.97751e-08 -7.09993e-08)
(-6.52576e-07 4.16534e-08 -7.07518e-08)
(-5.15866e-07 3.35536e-08 -6.72434e-08)
(-3.64426e-07 2.58235e-08 -6.00125e-08)
(-2.1696e-07 1.91774e-08 -4.91065e-08)
(-9.38231e-08 1.49332e-08 -3.54566e-08)
(-1.3559e-08 1.48711e-08 -2.17226e-08)
(8.42996e-09 1.65021e-08 -8.35455e-09)
(-1.84284e-05 -5.15265e-05 -1.84283e-05)
(-6.04034e-06 -6.6848e-06 -8.25237e-06)
(-8.15236e-06 -8.09069e-06 -2.88521e-06)
(-3.70462e-06 -2.33969e-06 -8.27781e-07)
(-1.33144e-06 -1.41776e-06 -4.13703e-07)
(-1.79396e-07 -7.63699e-07 -2.05627e-07)
(6.47567e-07 -4.75062e-07 -1.03179e-07)
(1.14211e-06 -3.11188e-07 -5.22366e-08)
(1.42835e-06 -2.07728e-07 -2.08395e-08)
(1.53798e-06 -1.32069e-07 1.53338e-09)
(1.49455e-06 -7.16012e-08 1.97655e-08)
(1.31567e-06 -2.23639e-08 3.51858e-08)
(1.02205e-06 1.63325e-08 4.76053e-08)
(6.39697e-07 4.35202e-08 5.64672e-08)
(2.00369e-07 5.80654e-08 6.12091e-08)
(-2.60285e-07 5.93603e-08 6.15141e-08)
(-7.05518e-07 4.76853e-08 5.74588e-08)
(-1.10075e-06 2.43214e-08 4.9551e-08)
(-1.41675e-06 -8.54363e-09 3.86837e-08)
(-1.6322e-06 -4.80566e-08 2.60406e-08)
(-1.73543e-06 -9.10123e-08 1.29736e-08)
(-1.72483e-06 -1.3418e-07 9.89486e-10)
(-1.60874e-06 -1.74039e-07 -8.69655e-09)
(-1.40474e-06 -2.07466e-07 -1.50461e-08)
(-1.13805e-06 -2.30892e-07 -1.72503e-08)
(-8.39799e-07 -2.40061e-07 -1.50054e-08)
(-5.4486e-07 -2.29388e-07 -8.82619e-09)
(-2.88505e-07 -1.91945e-07 -5.2708e-10)
(-1.01483e-07 -1.20881e-07 5.86373e-09)
(-5.66912e-09 -2.64327e-08 5.7832e-09)
(-5.09706e-06 -4.84289e-06 -5.09698e-06)
(-8.01002e-06 -9.0938e-06 -2.94405e-06)
(-4.13426e-06 -5.15656e-06 -1.29249e-06)
(-2.34908e-06 -2.9999e-06 -6.03787e-07)
(-6.86848e-07 -2.10693e-06 -2.76154e-07)
(3.75495e-07 -1.54129e-06 -1.14573e-07)
(1.16587e-06 -1.2305e-06 -2.86724e-08)
(1.68525e-06 -1.02326e-06 2.01767e-08)
(1.99101e-06 -8.68681e-07 5.37114e-08)
(2.09662e-06 -7.40399e-07 7.99439e-08)
(2.01613e-06 -6.29253e-07 1.02376e-07)
(1.76505e-06 -5.33882e-07 1.21678e-07)
(1.36674e-06 -4.56883e-07 1.37378e-07)
(8.53644e-07 -4.01945e-07 1.48615e-07)
(2.66532e-07 -3.723e-07 1.54622e-07)
(-3.48213e-07 -3.69612e-07 1.54975e-07)
(-9.42533e-07 -3.93385e-07 1.49751e-07)
(-1.47114e-06 -4.40811e-07 1.39559e-07)
(-1.89576e-06 -5.06995e-07 1.25473e-07)
(-2.18854e-06 -5.85464e-07 1.0892e-07)
(-2.33422e-06 -6.68808e-07 9.14772e-08)
(-2.3309e-06 -7.49117e-07 7.47615e-08)
(-2.18954e-06 -8.18516e-07 6.01678e-08)
(-1.93271e-06 -8.68962e-07 4.88127e-08)
(-1.59226e-06 -8.91801e-07 4.13765e-08)
(-1.20684e-06 -8.7716e-07 3.79275e-08)
(-8.18553e-07 -8.13041e-07 3.76273e-08)
(-4.68177e-07 -6.85221e-07 3.8148e-08)
(-1.92671e-07 -4.77766e-07 3.49274e-08)
(-1.94385e-08 -1.85542e-07 1.95819e-08)
(-9.15918e-07 -7.02526e-06 -9.15819e-07)
(-2.08199e-06 -5.4307e-06 -8.22719e-07)
(-1.68265e-06 -4.57156e-06 -5.88006e-07)
(-8.41933e-07 -3.51199e-06 -2.95827e-07)
(1.84623e-07 -2.93414e-06 -1.23275e-07)
(1.01519e-06 -2.52966e-06 -2.34333e-08)
(1.69287e-06 -2.25989e-06 3.83276e-08)
(2.17366e-06 -2.04604e-06 7.96012e-08)
(2.45843e-06 -1.86011e-06 1.11787e-07)
(2.53942e-06 -1.68838e-06 1.39381e-07)
(2.41843e-06 -1.52937e-06 1.64131e-07)
(2.10633e-06 -1.38763e-06 1.85906e-07)
(1.62642e-06 -1.27057e-06 2.03803e-07)
(1.0145e-06 -1.18602e-06 2.16671e-07)
(3.17141e-07 -1.14013e-06 2.23545e-07)
(-4.11896e-07 -1.13609e-06 2.23903e-07)
(-1.11661e-06 -1.17327e-06 2.17813e-07)
(-1.74414e-06 -1.24702e-06 2.05951e-07)
(-2.24985e-06 -1.34918e-06 1.89533e-07)
(-2.60141e-06 -1.46884e-06 1.70152e-07)
(-2.78123e-06 -1.59343e-06 1.49553e-07)
(-2.78727e-06 -1.70962e-06 1.29448e-07)
(-2.63224e-06 -1.80382e-06 1.11318e-07)
(-2.34178e-06 -1.86225e-06 9.62878e-08)
(-1.95166e-06 -1.87033e-06 8.49571e-08)
(-1.50445e-06 -1.81187e-06 7.72697e-08)
(-1.046e-06 -1.66769e-06 7.22513e-08)
(-6.20063e-07 -1.41438e-06 6.72614e-08)
(-2.6956e-07 -1.02057e-06 5.73129e-08)
(-3.0432e-08 -4.42086e-07 3.06108e-08)
(-2.97415e-07 -2.59493e-06 -2.97292e-07)
(-9.61011e-07 -3.96991e-06 -3.53476e-07)
(-5.58014e-07 -4.23721e-06 -2.37364e-07)
(6.87682e-08 -4.03975e-06 -1.07855e-07)
(8.4203e-07 -3.8603e-06 -1.63421e-08)
(1.5482e-06 -3.66922e-06 4.49064e-08)
(2.15163e-06 -3.48912e-06 8.90688e-08)
(2.59591e-06 -3.30232e-06 1.23729e-07)
(2.85517e-06 -3.10683e-06 1.54319e-07)
(2.90885e-06 -2.90528e-06 1.82777e-07)
(2.75002e-06 -2.70654e-06 2.09429e-07)
(2.38563e-06 -2.523e-06 2.3342e-07)
(1.83835e-06 -2.36834e-06 2.53364e-07)
(1.14613e-06 -2.25541e-06 2.67788e-07)
(3.59867e-07 -2.1939e-06 2.75491e-07)
(-4.60947e-07 -2.18879e-06 2.75829e-07)
(-1.25402e-06 -2.23942e-06 2.68857e-07)
(-1.9605e-06 -2.33927e-06 2.55332e-07)
(-2.53079e-06 -2.47661e-06 2.36645e-07)
(-2.92917e-06 -2.63575e-06 2.14572e-07)
(-3.13647e-06 -2.79856e-06 1.91057e-07)
(-3.15074e-06 -2.94581e-06 1.67965e-07)
(-2.98607e-06 -3.05787e-06 1.46862e-07)
(-2.67032e-06 -3.11494e-06 1.28899e-07)
(-2.24183e-06 -3.09629e-06 1.14652e-07)
(-1.74571e-06 -2.97904e-06 1.03997e-07)
(-1.23031e-06 -2.73594e-06 9.5883e-08)
(-7.4196e-07 -2.33178e-06 8.74266e-08)
(-3.29692e-07 -1.71272e-06 7.32052e-08)
(-3.84743e-08 -7.76452e-07 3.86928e-08)
(-1.19774e-07 -2.28468e-06 -1.19628e-07)
(-2.10647e-07 -3.87762e-06 -1.17565e-07)
(1.46874e-07 -4.62026e-06 -6.14291e-08)
(6.87059e-07 -4.89614e-06 5.67738e-10)
(1.34323e-06 -5.00196e-06 5.14071e-08)
(1.97992e-06 -4.98808e-06 9.10827e-08)
(2.53716e-06 -4.89985e-06 1.24824e-07)
(2.95424e-06 -4.75176e-06 1.5569e-07)
(3.19186e-06 -4.55985e-06 1.85918e-07)
(3.22143e-06 -4.34009e-06 2.15869e-07)
(3.03002e-06 -4.11106e-06 2.44891e-07)
(2.62143e-06 -3.89295e-06 2.71513e-07)
(2.01763e-06 -3.70597e-06 2.9388e-07)
(1.25817e-06 -3.5681e-06 3.1014e-07)
(3.97572e-07 -3.4928e-06 3.1882e-07)
(-4.99814e-07 -3.48701e-06 3.19131e-07)
(-1.3663e-06 -3.55004e-06 3.1111e-07)
(-2.1379e-06 -3.67357e-06 2.95628e-07)
(-2.76086e-06 -3.84232e-06 2.74295e-07)
(-3.19675e-06 -4.03585e-06 2.49158e-07)
(-3.42542e-06 -4.23058e-06 2.22432e-07)
(-3.44521e-06 -4.40136e-06 1.96184e-07)
(-3.27158e-06 -4.52267e-06 1.72105e-07)
(-2.93436e-06 -4.56879e-06 1.51423e-07)
(-2.47388e-06 -4.51284e-06 1.34726e-07)
(-1.93726e-06 -4.32494e-06 1.21848e-07)
(-1.37499e-06 -3.96872e-06 1.11669e-07)
(-8.35961e-07 -3.39431e-06 1.01082e-07)
(-3.74754e-07 -2.51928e-06 8.42137e-08)
(-4.4183e-08 -1.16929e-06 4.44432e-08)
(-1.9991e-08 -2.14539e-06 -1.98213e-08)
(1.15601e-07 -4.18384e-06 -2.73199e-09)
(5.21294e-07 -5.33317e-06 2.91168e-08)
(1.06527e-06 -5.96377e-06 6.24244e-08)
(1.68972e-06 -6.30856e-06 9.33616e-08)
(2.3018e-06 -6.45351e-06 1.21811e-07)
(2.83908e-06 -6.45885e-06 1.50163e-07)
(3.24206e-06 -6.35902e-06 1.79573e-07)
(3.46598e-06 -6.18336e-06 2.10666e-07)
(3.47795e-06 -5.95842e-06 2.42887e-07)
(3.26119e-06 -5.71117e-06 2.74893e-07)
(2.81719e-06 -5.46892e-06 3.04692e-07)
(2.16732e-06 -5.2578e-06 3.29951e-07)
(1.35253e-06 -5.10073e-06 3.48392e-07)
(4.30464e-07 -5.01476e-06 3.58225e-07)
(-5.30225e-07 -5.00865e-06 3.58507e-07)
(-1.45713e-06 -5.08181e-06 3.49259e-07)
(-2.28174e-06 -5.22423e-06 3.31479e-07)
(-2.94672e-06 -5.41745e-06 3.07046e-07)
(-3.41158e-06 -5.63662e-06 2.78369e-07)
(-3.65553e-06 -5.85311e-06 2.47987e-07)
(-3.67759e-06 -6.03647e-06 2.18229e-07)
(-3.49478e-06 -6.15583e-06 1.90987e-07)
(-3.13869e-06 -6.17993e-06 1.67562e-07)
(-2.65155e-06 -6.07587e-06 1.48579e-07)
(-2.08215e-06 -5.80653e-06 1.33836e-07)
(-1.48284e-06 -5.32532e-06 1.22144e-07)
(-9.04788e-07 -4.56534e-06 1.10189e-07)
(-4.06972e-07 -3.41051e-06 9.16595e-08)
(-4.81118e-08 -1.60472e-06 4.84152e-08)
(1.89845e-08 -2.36682e-06 1.91753e-08)
(2.79369e-07 -4.82856e-06 4.97727e-08)
(7.32182e-07 -6.30955e-06 7.39743e-08)
(1.29788e-06 -7.21394e-06 9.59984e-08)
(1.91969e-06 -7.7573e-06 1.18068e-07)
(2.5261e-06 -8.04306e-06 1.41493e-07)
(3.05656e-06 -8.14075e-06 1.67801e-07)
(3.45362e-06 -8.09698e-06 1.97493e-07)
(3.67033e-06 -7.95005e-06 2.3043e-07)
(3.67133e-06 -7.73432e-06 2.65559e-07)
(3.43724e-06 -7.48331e-06 3.01057e-07)
(2.96767e-06 -7.22998e-06 3.34446e-07)
(2.28342e-06 -7.00553e-06 3.62935e-07)
(1.42651e-06 -6.83706e-06 3.83811e-07)
(4.57207e-07 -6.7446e-06 3.9493e-07)
(-5.5218e-07 -6.73852e-06 3.95178e-07)
(-1.52528e-06 -6.81832e-06 3.84567e-07)
(-2.38979e-06 -6.97265e-06 3.64246e-07)
(-3.08542e-06 -7.18033e-06 3.36412e-07)
(-3.57015e-06 -7.41288e-06 3.0386e-07)
(-3.82311e-06 -7.63752e-06 2.69497e-07)
(-3.84436e-06 -7.81932e-06 2.35983e-07)
(-3.65251e-06 -7.92282e-06 2.05435e-07)
(-3.28086e-06 -7.91183e-06 1.79237e-07)
(-2.77331e-06 -7.74794e-06 1.58049e-07)
(-2.17998e-06 -7.38655e-06 1.41628e-07)
(-1.55458e-06 -6.76992e-06 1.28727e-07)
(-9.49879e-07 -5.81228e-06 1.15847e-07)
(-4.27726e-07 -4.36032e-06 9.63143e-08)
(-5.05984e-08 -2.06934e-06 5.09443e-08)
(3.68925e-08 -2.71864e-06 3.71036e-08)
(3.5811e-07 -5.63366e-06 7.50953e-08)
(8.42972e-07 -7.43031e-06 9.64112e-08)
(1.42676e-06 -8.57743e-06 1.1373e-07)
(2.0519e-06 -9.30093e-06 1.31935e-07)
(2.65731e-06 -9.7199e-06 1.53392e-07)
(3.18486e-06 -9.91273e-06 1.79403e-07)
(3.57921e-06 -9.93468e-06 2.10269e-07)
(3.79273e-06 -9.83056e-06 2.455e-07)
(3.78863e-06 -9.64017e-06 2.83733e-07)
(3.54566e-06 -9.40185e-06 3.22804e-07)
(3.06182e-06 -9.15278e-06 3.59834e-07)
(2.3572e-06 -8.92781e-06 3.91594e-07)
(1.47437e-06 -8.75712e-06 4.14923e-07)
(4.75478e-07 -8.66309e-06 4.27313e-07)
(-5.64505e-07 -8.65729e-06 4.27529e-07)
(-1.56626e-06 -8.73934e-06 4.15581e-07)
(-2.45469e-06 -8.89689e-06 3.92718e-07)
(-3.16749e-06 -9.10683e-06 3.61462e-07)
(-3.66185e-06 -9.33792e-06 3.25042e-07)
(-3.9172e-06 -9.55425e-06 2.86761e-07)
(-3.93491e-06 -9.71769e-06 2.49582e-07)
(-3.73526e-06 -9.78923e-06 2.15816e-07)
(-3.35307e-06 -9.72861e-06 1.86971e-07)
(-2.83343e-06 -9.49236e-06 1.63729e-07)
(-2.22718e-06 -9.02846e-06 1.45828e-07)
(-1.58857e-06 -8.26766e-06 1.31943e-07)
(-9.70968e-07 -7.1038e-06 1.18444e-07)
(-4.37365e-07 -5.344e-06 9.84508e-08)
(-5.17722e-08 -2.55082e-06 5.21595e-08)
(4.42288e-08 -3.13654e-06 4.44591e-08)
(3.91071e-07 -6.52125e-06 8.57851e-08)
(8.88467e-07 -8.62589e-06 1.0593e-07)
(1.47658e-06 -9.99949e-06 1.21326e-07)
(2.09764e-06 -1.08933e-05 1.37977e-07)
(2.69635e-06 -1.14429e-05 1.58877e-07)
(3.21724e-06 -1.17359e-05 1.85329e-07)
(3.60699e-06 -1.18343e-05 2.17561e-07)
(3.81833e-06 -1.17879e-05 2.54985e-07)
(3.81384e-06 -1.16401e-05 2.96038e-07)
(3.57081e-06 -1.14322e-05 3.38304e-07)
(3.0857e-06 -1.12038e-05 3.78578e-07)
(2.37761e-06 -1.0992e-05 4.13221e-07)
(1.48887e-06 -1.0829e-05 4.38696e-07)
(4.82456e-07 -1.07387e-05 4.522e-07)
(-5.65289e-07 -1.07334e-05 4.52385e-07)
(-1.57375e-06 -1.08129e-05 4.39251e-07)
(-2.46641e-06 -1.09641e-05 4.14148e-07)
(-3.18004e-06 -1.11626e-05 3.79898e-07)
(-3.67192e-06 -1.13759e-05 3.40086e-07)
(-3.92247e-06 -1.1566e-05 2.9835e-07)
(-3.93452e-06 -1.16929e-05 2.57981e-07)
(-3.72981e-06 -1.17152e-05 2.21463e-07)
(-3.34426e-06 -1.15899e-05 1.90398e-07)
(-2.82332e-06 -1.12687e-05 1.65461e-07)
(-2.21778e-06 -1.06929e-05 1.46367e-07)
(-1.58126e-06 -9.78131e-06 1.31774e-07)
(-9.66314e-07 -8.40688e-06 1.17983e-07)
(-4.353e-07 -6.33606e-06 9.80298e-08)
(-5.15991e-08 -3.03671e-06 5.20274e-08)
(4.6168e-08 -3.57526e-06 4.64087e-08)
(3.94679e-07 -7.43026e-06 8.81251e-08)
(8.84312e-07 -9.83481e-06 1.07315e-07)
(1.45829e-06 -1.14243e-05 1.21695e-07)
(2.06051e-06 -1.24825e-05 1.37633e-07)
(2.64014e-06 -1.31626e-05 1.58365e-07)
(3.1449e-06 -1.35618e-05 1.85214e-07)
(3.52401e-06 -1.37479e-05 2.18437e-07)
(3.73153e-06 -1.3774e-05 2.57373e-07)
(3.73011e-06 -1.36858e-05 3.00388e-07)
(3.49609e-06 -1.35255e-05 3.44893e-07)
(3.0245e-06 -1.33339e-05 3.87445e-07)
(2.33291e-06 -1.31488e-05 4.2414e-07)
(1.46242e-06 -1.30033e-05 4.51132e-07)
(4.7533e-07 -1.29217e-05 4.65384e-07)
(-5.52459e-07 -1.2917e-05 4.6554e-07)
(-1.54088e-06 -1.29889e-05 4.51597e-07)
(-2.41384e-06 -1.31243e-05 4.24905e-07)
(-3.10882e-06 -1.32982e-05 3.88497e-07)
(-3.58432e-06 -1.34773e-05 3.46243e-07)
(-3.82228e-06 -1.36234e-05 3.02104e-07)
(-3.82702e-06 -1.36956e-05 2.59542e-07)
(-3.62146e-06 -1.36519e-05 2.21157e-07)
(-3.24189e-06 -1.34473e-05 1.88613e-07)
(-2.73315e-06 -1.30301e-05 1.62601e-07)
(-2.14462e-06 -1.23351e-05 1.42811e-07)
(-1.52792e-06 -1.12696e-05 1.27867e-07)
(-9.33357e-07 -9.68556e-06 1.14146e-07)
(-4.20511e-07 -7.30898e-06 9.48188e-08)
(-4.99516e-08 -3.51367e-06 5.04214e-08)
(4.46469e-08 -4.00611e-06 4.49056e-08)
(3.76031e-07 -8.31345e-06 8.46972e-08)
(8.37442e-07 -1.1003e-05 1.02591e-07)
(1.3764e-06 -1.27966e-05 1.16059e-07)
(1.94069e-06 -1.40129e-05 1.31335e-07)
(2.48432e-06 -1.48232e-05 1.51703e-07)
(2.9593e-06 -1.53337e-05 1.78443e-07)
(3.31856e-06 -1.56173e-05 2.11834e-07)
(3.51841e-06 -1.57293e-05 2.51218e-07)
(3.5226e-06 -1.57159e-05 2.94956e-07)
(3.30713e-06 -1.56193e-05 3.404e-07)
(2.86556e-06 -1.54792e-05 3.83983e-07)
(2.21323e-06 -1.53333e-05 4.21635e-07)
(1.38873e-06 -1.52139e-05 4.4936e-07)
(4.51816e-07 -1.51456e-05 4.63946e-07)
(-5.24117e-07 -1.51416e-05 4.64068e-07)
(-1.46175e-06 -1.52016e-05 4.49709e-07)
(-2.28757e-06 -1.53123e-05 4.22199e-07)
(-2.94154e-06 -1.5449e-05 3.84761e-07)
(-3.38473e-06 -1.55788e-05 3.41383e-07)
(-3.60146e-06 -1.56643e-05 2.96188e-07)
(-3.59765e-06 -1.56655e-05 2.5274e-07)
(-3.39682e-06 -1.55409e-05 2.13695e-07)
(-3.03448e-06 -1.52447e-05 1.8071e-07)
(-2.55371e-06 -1.47228e-05 1.54442e-07)
(-2.00092e-06 -1.39045e-05 1.34582e-07)
(-1.42405e-06 -1.26861e-05 1.19787e-07)
(-8.69411e-07 -1.08999e-05 1.066e-07)
(-3.91776e-07 -8.23242e-06 8.85293e-08)
(-4.66661e-08 -3.96689e-06 4.71749e-08)
(4.05257e-08 -4.40585e-06 4.07843e-08)
(3.38166e-07 -9.12836e-06 7.6589e-08)
(7.50802e-07 -1.20785e-05 9.25667e-08)
(1.23245e-06 -1.40599e-05 1.04854e-07)
(1.7372e-06 -1.54251e-05 1.19163e-07)
(2.22509e-06 -1.63624e-05 1.38569e-07)
(2.6539e-06 -1.69867e-05 1.6431e-07)
(2.98163e-06 -1.73748e-05 1.96673e-07)
(3.16832e-06 -1.75833e-05 2.35044e-07)
(3.17994e-06 -1.76577e-05 2.7786e-07)
(2.9928e-06 -1.76382e-05 3.2255e-07)
(2.59898e-06 -1.75625e-05 3.65617e-07)
(2.01087e-06 -1.74662e-05 4.02904e-07)
(1.26292e-06 -1.73805e-05 4.30407e-07)
(4.10165e-07 -1.73293e-05 4.4485e-07)
(-4.78847e-07 -1.73259e-05 4.44924e-07)
(-1.33177e-06 -1.73701e-05 4.30632e-07)
(-2.08001e-06 -1.74487e-05 4.03268e-07)
(-2.66829e-06 -1.75373e-05 3.6611e-07)
(-3.06191e-06 -1.76048e-05 3.23189e-07)
(-3.2483e-06 -1.76156e-05 2.78652e-07)
(-3.23506e-06 -1.75322e-05 2.36008e-07)
(-3.0455e-06 -1.73146e-05 1.9787e-07)
(-2.71324e-06 -1.69179e-05 1.65765e-07)
(-2.27794e-06 -1.62866e-05 1.40317e-07)
(-1.78134e-06 -1.53451e-05 1.21196e-07)
(-1.26597e-06 -1.39805e-05 1.07142e-07)
(-7.72297e-07 -1.20065e-05 9.49903e-08)
(-3.481e-07 -9.07343e-06 7.88785e-08)
(-4.16154e-08 -4.38034e-06 4.2166e-08)
(3.41213e-08 -4.75392e-06 3.43941e-08)
(2.82546e-07 -9.83527e-06 6.43353e-08)
(6.26207e-07 -1.30107e-05 7.7705e-08)
(1.02795e-06 -1.51568e-05 8.83271e-08)
(1.45041e-06 -1.66567e-05 1.01128e-07)
(1.86137e-06 -1.77139e-05 1.18796e-07)
(2.22602e-06 -1.84505e-05 1.42421e-07)
(2.50905e-06 -1.89468e-05 1.72358e-07)
(2.67597e-06 -1.92592e-05 2.08142e-07)
(2.69616e-06 -1.94311e-05 2.48402e-07)
(2.54725e-06 -1.94998e-05 2.9076e-07)
(2.21981e-06 -1.94996e-05 3.31918e-07)
(1.72217e-06 -1.94625e-05 3.67817e-07)
(1.08282e-06 -1.94173e-05 3.94532e-07)
(3.49689e-07 -1.93869e-05 4.0864e-07)
(-4.15934e-07 -1.9384e-05 4.08667e-07)
(-1.14876e-06 -1.94087e-05 3.9462e-07)
(-1.78747e-06 -1.94479e-05 3.67965e-07)
(-2.28404e-06 -1.94787e-05 3.3212e-07)
(-2.60992e-06 -1.94724e-05 2.91048e-07)
(-2.75656e-06 -1.9397e-05 2.48825e-07)
(-2.73321e-06 -1.92184e-05 2.08696e-07)
(-2.56217e-06 -1.88996e-05 1.73061e-07)
(-2.27382e-06 -1.83976e-05 1.43283e-07)
(-1.90251e-06 -1.76567e-05 1.19833e-07)
(-1.48361e-06 -1.65977e-05 1.0235e-07)
(-1.05219e-06 -1.50996e-05 8.97223e-08)
(-6.41088e-07 -1.29601e-05 7.91998e-08)
(-2.89005e-07 -9.79761e-06 6.57553e-08)
(-3.47077e-08 -4.73709e-06 3.52935e-08)
(2.56541e-08 -5.03111e-06 2.59238e-08)
(2.10475e-07 -1.03961e-05 4.82324e-08)
(4.65902e-07 -1.37506e-05 5.82482e-08)
(7.65723e-07 -1.6031e-05 6.66409e-08)
(1.08338e-06 -1.76454e-05 7.7228e-08)
(1.39589e-06 -1.88099e-05 9.21508e-08)
(1.67768e-06 -1.96526e-05 1.12388e-07)
(1.90192e-06 -2.02555e-05 1.3831e-07)
(2.04131e-06 -2.06743e-05 1.69604e-07)
(2.07025e-06 -2.09499e-05 2.05241e-07)
(1.96855e-06 -2.11153e-05 2.43221e-07)
(1.72547e-06 -2.11998e-05 2.80695e-07)
(1.34463e-06 -2.12309e-05 3.13902e-07)
(8.46716e-07 -2.12335e-05 3.39042e-07)
(2.69782e-07 -2.12277e-05 3.52502e-07)
(-3.34709e-07 -2.12253e-05 3.52472e-07)
(-9.10902e-07 -2.12262e-05 3.38975e-07)
(-1.40739e-06 -2.12186e-05 3.1382e-07)
(-1.78608e-06 -2.11824e-05 2.80633e-07)
(-2.02635e-06 -2.10927e-05 2.43197e-07)
(-2.12457e-06 -2.09222e-05 2.05278e-07)
(-2.09148e-06 -2.06417e-05 1.6974e-07)
(-1.94715e-06 -2.02184e-05 1.3857e-07)
(-1.71715e-06 -1.96118e-05 1.12787e-07)
(-1.42878e-06 -1.87667e-05 9.26927e-08)
(-1.109e-06 -1.76018e-05 7.79043e-08)
(-7.83691e-07 -1.59895e-05 6.74371e-08)
(-4.76444e-07 -1.37148e-05 5.91468e-08)
(-2.14741e-07 -1.03701e-05 4.91392e-08)
(-2.59372e-08 -5.01989e-06 2.65569e-08)
(1.53503e-08 -5.21991e-06 1.56153e-08)
(1.23704e-07 -1.0776e-05 2.87086e-08)
(2.73536e-07 -1.42527e-05 3.46776e-08)
(4.51415e-07 -1.66289e-05 4.02266e-08)
(6.4343e-07 -1.83312e-05 4.78485e-08)
(8.37176e-07 -1.95842e-05 5.89884e-08)
(1.01796e-06 -2.052e-05 7.43925e-08)
(1.16908e-06 -2.12218e-05 9.44621e-08)
(1.27208e-06 -2.17438e-05 1.19161e-07)
(1.30816e-06 -2.21237e-05 1.47925e-07)
(1.26066e-06 -2.23898e-05 1.79328e-07)
(1.11824e-06 -2.25657e-05 2.11117e-07)
(8.79162e-07 -2.26725e-05 2.40012e-07)
(5.54672e-07 -2.27297e-05 2.62517e-07)
(1.70472e-07 -2.27524e-05 2.74878e-07)
(-2.3485e-07 -2.27503e-05 2.7481e-07)
(-6.17928e-07 -2.27233e-05 2.62352e-07)
(-9.40314e-07 -2.26621e-05 2.3975e-07)
(-1.17639e-06 -2.25509e-05 2.10809e-07)
(-1.31511e-06 -2.2371e-05 1.7903e-07)
(-1.35817e-06 -2.21011e-05 1.47687e-07)
(-1.31709e-06 -2.17176e-05 1.19002e-07)
(-1.20855e-06 -2.11924e-05 9.43923e-08)
(-1.05141e-06 -2.04882e-05 7.44355e-08)
(-8.6419e-07 -1.95512e-05 5.91547e-08)
(-6.63774e-07 -1.82985e-05 4.8141e-08)
(-4.65145e-07 -1.65986e-05 4.06429e-08)
(-2.81202e-07 -1.42271e-05 3.51954e-08)
(-1.26556e-07 -1.07578e-05 2.93006e-08)
(-1.54422e-08 -5.21239e-06 1.60914e-08)
(3.5058e-09 -5.30518e-06 3.75935e-09)
(2.48946e-08 -1.09447e-05 6.31584e-09)
(5.49503e-08 -1.44773e-05 7.60195e-09)
(9.43427e-08 -1.69038e-05 9.72828e-09)
(1.43084e-07 -1.86601e-05 1.35725e-08)
(2.0043e-07 -1.99755e-05 1.97388e-08)
(2.63707e-07 -2.09838e-05 2.87008e-08)
(3.27754e-07 -2.17681e-05 4.08316e-08)
(3.84689e-07 -2.2381e-05 5.63196e-08)
(4.24131e-07 -2.28569e-05 7.50415e-08)
(4.34508e-07 -2.32192e-05 9.6316e-08)
(4.05023e-07 -2.34855e-05 1.1882e-07)
(3.29154e-07 -2.367e-05 1.40129e-07)
(2.07801e-07 -2.37843e-05 1.57392e-07)
(5.19971e-08 -2.38376e-05 1.67202e-07)
(-1.16357e-07 -2.38358e-05 1.67083e-07)
(-2.70774e-07 -2.37788e-05 1.57112e-07)
(-3.8948e-07 -2.36607e-05 1.39697e-07)
(-4.61618e-07 -2.34727e-05 1.18323e-07)
(-4.86585e-07 -2.32032e-05 9.57878e-08)
(-4.71033e-07 -2.28378e-05 7.45482e-08)
(-4.25993e-07 -2.23594e-05 5.58786e-08)
(-3.63108e-07 -2.17444e-05 4.04898e-08)
(-2.92876e-07 -2.09587e-05 2.84728e-08)
(-2.23316e-07 -1.995e-05 1.96224e-08)
(-1.59757e-07 -1.86354e-05 1.35787e-08)
(-1.05144e-07 -1.68813e-05 9.86288e-09)
(-6.0643e-08 -1.44588e-05 7.85953e-09)
(-2.67867e-08 -1.0932e-05 6.70132e-09)
(-3.4716e-09 -5.3001e-06 4.14559e-09)
(-9.42799e-09 -5.27524e-06 -9.17256e-09)
(-8.21641e-08 -1.08794e-05 -1.80771e-08)
(-1.81475e-07 -1.43942e-05 -2.19274e-08)
(-2.91815e-07 -1.68192e-05 -2.37017e-08)
(-3.98668e-07 -1.85895e-05 -2.43259e-08)
(-4.90491e-07 -1.99338e-05 -2.4153e-08)
(-5.57296e-07 -2.09852e-05 -2.31477e-08)
(-5.91815e-07 -2.18252e-05 -2.10099e-08)
(-5.90145e-07 -2.25045e-05 -1.7383e-08)
(-5.52754e-07 -2.30545e-05 -1.1918e-08)
(-4.84319e-07 -2.34946e-05 -4.51531e-09)
(-3.93442e-07 -2.38364e-05 4.5563e-09)
(-2.90563e-07 -2.40875e-05 1.41703e-08)
(-1.85071e-07 -2.42523e-05 2.27667e-08)
(-8.26306e-08 -2.43332e-05 2.79835e-08)
(1.81226e-08 -2.43316e-05 2.78491e-08)
(1.22194e-07 -2.42474e-05 2.243e-08)
(2.30729e-07 -2.40791e-05 1.36386e-08)
(3.37851e-07 -2.3825e-05 3.90821e-09)
(4.33784e-07 -2.34804e-05 -5.22819e-09)
(5.07926e-07 -2.30379e-05 -1.25887e-08)
(5.51393e-07 -2.2486e-05 -1.80064e-08)
(5.59323e-07 -2.18054e-05 -2.15335e-08)
(5.31108e-07 -2.09648e-05 -2.35658e-08)
(4.70482e-07 -1.99136e-05 -2.44704e-08)
(3.84537e-07 -1.85703e-05 -2.45161e-08)
(2.83006e-07 -1.68022e-05 -2.37579e-08)
(1.77097e-07 -1.43805e-05 -2.18192e-08)
(8.08966e-08 -1.08702e-05 -1.78187e-08)
(9.53603e-09 -5.27176e-06 -8.84353e-09)
(-2.28325e-08 -5.12345e-06 -2.26017e-08)
(-1.9247e-07 -1.0567e-05 -4.3376e-08)
(-4.2473e-07 -1.39863e-05 -5.25889e-08)
(-6.89164e-07 -1.6354e-05 -5.85598e-08)
(-9.56627e-07 -1.80933e-05 -6.41047e-08)
(-1.20346e-06 -1.94269e-05 -7.06611e-08)
(-1.40679e-06 -2.04841e-05 -7.86122e-08)
(-1.54656e-06 -2.13435e-05 -8.79123e-08)
(-1.60652e-06 -2.20533e-05 -9.8148e-08)
(-1.57613e-06 -2.26419e-05 -1.08542e-07)
(-1.45203e-06 -2.31257e-05 -1.18277e-07)
(-1.2392e-06 -2.35123e-05 -1.26323e-07)
(-9.50599e-07 -2.38042e-05 -1.32152e-07)
(-6.05551e-07 -2.40006e-05 -1.35474e-07)
(-2.2713e-07 -2.4099e-05 -1.36741e-07)
(1.62575e-07 -2.40974e-05 -1.36883e-07)
(5.42777e-07 -2.39957e-05 -1.35858e-07)
(8.9109e-07 -2.37963e-05 -1.32752e-07)
(1.18426e-06 -2.35017e-05 -1.27054e-07)
(1.4026e-06 -2.31128e-05 -1.19075e-07)
(1.53277e-06 -2.26272e-05 -1.09342e-07)
(1.56952e-06 -2.20372e-05 -9.88953e-08)
(1.51603e-06 -2.13267e-05 -8.85904e-08)
(1.38263e-06 -2.04671e-05 -7.91749e-08)
(1.1854e-06 -1.94104e-05 -7.11096e-08)
(9.44201e-07 -1.80781e-05 -6.44448e-08)
(6.81677e-07 -1.63408e-05 -5.87473e-08)
(4.21228e-07 -1.39759e-05 -5.2603e-08)
(1.91635e-07 -1.05603e-05 -4.32035e-08)
(2.30044e-08 -5.12099e-06 -2.2301e-08)
(-3.60414e-08 -4.84906e-06 -3.58168e-08)
(-3.00236e-07 -1.0007e-05 -6.82197e-08)
(-6.61859e-07 -1.32528e-05 -8.26935e-08)
(-1.07638e-06 -1.55065e-05 -9.28691e-08)
(-1.50072e-06 -1.71685e-05 -1.03384e-07)
(-1.89959e-06 -1.84491e-05 -1.16716e-07)
(-2.23768e-06 -1.94708e-05 -1.33745e-07)
(-2.48235e-06 -2.03078e-05 -1.54685e-07)
(-2.60508e-06 -2.10049e-05 -1.79086e-07)
(-2.58433e-06 -2.15888e-05 -2.05834e-07)
(-2.40817e-06 -2.20732e-05 -2.33294e-07)
(-2.07723e-06 -2.24641e-05 -2.59201e-07)
(-1.60628e-06 -2.27616e-05 -2.81276e-07)
(-1.02408e-06 -2.29634e-05 -2.97245e-07)
(-3.70976e-07 -2.3065e-05 -3.05501e-07)
(3.06751e-07 -2.30633e-05 -3.05648e-07)
(9.61656e-07 -2.29586e-05 -2.97644e-07)
(1.54728e-06 -2.27541e-05 -2.81882e-07)
(2.02294e-06 -2.2454e-05 -2.59957e-07)
(2.35954e-06 -2.20611e-05 -2.34117e-07)
(2.54198e-06 -2.15753e-05 -2.06677e-07)
(2.56928e-06 -2.09906e-05 -1.79887e-07)
(2.45313e-06 -2.02931e-05 -1.55423e-07)
(2.21485e-06 -1.94563e-05 -1.34383e-07)
(1.88278e-06 -1.84353e-05 -1.1724e-07)
(1.4894e-06 -1.7156e-05 -1.03787e-07)
(1.06978e-06 -1.5496e-05 -9.31242e-08)
(6.58935e-07 -1.32448e-05 -8.27745e-08)
(2.99661e-07 -1.00019e-05 -6.8093e-08)
(3.62423e-08 -4.8473e-06 -3.55368e-08)
(-4.82371e-08 -4.4583e-06 -4.80379e-08)
(-3.99153e-07 -9.21247e-06 -9.11928e-08)
(-8.79154e-07 -1.22114e-05 -1.10517e-07)
(-1.43114e-06 -1.42976e-05 -1.24539e-07)
(-1.99942e-06 -1.58376e-05 -1.39599e-07)
(-2.53811e-06 -1.70246e-05 -1.59144e-07)
(-3.00048e-06 -1.79708e-05 -1.8452e-07)
(-3.34225e-06 -1.87447e-05 -2.16114e-07)
(-3.52349e-06 -1.93876e-05 -2.53402e-07)
(-3.51224e-06 -1.99241e-05 -2.94976e-07)
(-3.28863e-06 -2.03671e-05 -3.38465e-07)
(-2.84929e-06 -2.07227e-05 -3.80533e-07)
(-2.2106e-06 -2.09921e-05 -4.17248e-07)
(-1.40989e-06 -2.11738e-05 -4.44584e-07)
(-5.03465e-07 -2.1265e-05 -4.59118e-07)
(4.40051e-07 -2.12635e-05 -4.59248e-07)
(1.34825e-06 -2.11693e-05 -4.44962e-07)
(2.15236e-06 -2.0985e-05 -4.17836e-07)
(2.79576e-06 -2.07134e-05 -3.81254e-07)
(3.24083e-06 -2.0356e-05 -3.39262e-07)
(3.47077e-06 -1.99118e-05 -2.95814e-07)
(3.4886e-06 -1.93748e-05 -2.54214e-07)
(3.31396e-06 -1.87317e-05 -2.16856e-07)
(2.97857e-06 -1.79583e-05 -1.85195e-07)
(2.52215e-06 -1.7013e-05 -1.5971e-07)
(1.98882e-06 -1.58274e-05 -1.40033e-07)
(1.42508e-06 -1.4289e-05 -1.24835e-07)
(8.76571e-07 -1.2205e-05 -1.10634e-07)
(3.98738e-07 -9.20857e-06 -9.10856e-08)
(4.84607e-08 -4.45701e-06 -4.77619e-08)
(-5.86751e-08 -3.96444e-06 -5.84904e-08)
(-4.8309e-07 -8.21082e-06 -1.10838e-07)
(-1.0632e-06 -1.08985e-05 -1.3426e-07)
(-1.73171e-06 -1.277e-05 -1.51499e-07)
(-2.42248e-06 -1.41492e-05 -1.70319e-07)
(-3.08058e-06 -1.52073e-05 -1.94954e-07)
(-3.64916e-06 -1.60444e-05 -2.27072e-07)
(-4.07379e-06 -1.67217e-05 -2.67203e-07)
(-4.30457e-06 -1.72768e-05 -3.14711e-07)
(-4.30063e-06 -1.77323e-05 -3.67877e-07)
(-4.0357e-06 -1.81017e-05 -4.23739e-07)
(-3.50329e-06 -1.83924e-05 -4.7806e-07)
(-2.72156e-06 -1.86083e-05 -5.25738e-07)
(-1.7355e-06 -1.87516e-05 -5.6148e-07)
(-6.14962e-07 -1.88227e-05 -5.80637e-07)
(5.5288e-07 -1.88213e-05 -5.80745e-07)
(1.67515e-06 -1.87476e-05 -5.61801e-07)
(2.66455e-06 -1.86018e-05 -5.26245e-07)
(3.45088e-06 -1.83838e-05 -4.7871e-07)
(3.98892e-06 -1.80916e-05 -4.24473e-07)
(4.26006e-06 -1.77213e-05 -3.68646e-07)
(4.27051e-06 -1.72653e-05 -3.15482e-07)
(4.04629e-06 -1.67104e-05 -2.67922e-07)
(3.62795e-06 -1.60335e-05 -2.27733e-07)
(3.06521e-06 -1.51974e-05 -1.95526e-07)
(2.41236e-06 -1.41406e-05 -1.70782e-07)
(1.72599e-06 -1.27631e-05 -1.51819e-07)
(1.06081e-06 -1.08935e-05 -1.34397e-07)
(4.82742e-07 -8.20784e-06 -1.10745e-07)
(5.88998e-08 -3.96352e-06 -5.82222e-08)
(-6.66038e-08 -3.38733e-06 -6.64395e-08)
(-5.46173e-07 -7.04259e-06 -1.25762e-07)
(-1.20167e-06 -9.36747e-06 -1.52265e-07)
(-1.95884e-06 -1.09868e-05 -1.7184e-07)
(-2.74386e-06 -1.21748e-05 -1.93339e-07)
(-3.49455e-06 -1.30775e-05 -2.21589e-07)
(-4.14586e-06 -1.37811e-05 -2.58444e-07)
(-4.63486e-06 -1.43391e-05 -3.0446e-07)
(-4.9036e-06 -1.47851e-05 -3.58914e-07)
(-4.90455e-06 -1.51402e-05 -4.19773e-07)
(-4.60661e-06 -1.54182e-05 -4.836e-07)
(-4.00153e-06 -1.56287e-05 -5.45606e-07)
(-3.1096e-06 -1.57793e-05 -6e-07)
(-1.98205e-06 -1.58757e-05 -6.40754e-07)
(-6.98968e-07 -1.59223e-05 -6.62609e-07)
(6.3889e-07 -1.5921e-05 -6.62706e-07)
(1.9236e-06 -1.5872e-05 -6.41053e-07)
(3.05431e-06 -1.57734e-05 -6.00457e-07)
(3.95066e-06 -1.56211e-05 -5.46189e-07)
(4.56115e-06 -1.54093e-05 -4.84276e-07)
(4.86513e-06 -1.51305e-05 -4.20486e-07)
(4.87054e-06 -1.47751e-05 -3.59632e-07)
(4.60817e-06 -1.43294e-05 -3.05155e-07)
(4.1253e-06 -1.37718e-05 -2.59084e-07)
(3.4797e-06 -1.30692e-05 -2.2215e-07)
(2.7341e-06 -1.21678e-05 -1.93801e-07)
(1.95335e-06 -1.09813e-05 -1.72149e-07)
(1.19942e-06 -9.3636e-06 -1.52404e-07)
(5.45874e-07 -7.04039e-06 -1.25682e-07)
(6.68266e-08 -3.38672e-06 -6.618e-08)
(-7.12897e-08 -2.75316e-06 -7.11468e-08)
(-5.83056e-07 -5.76057e-06 -1.34569e-07)
(-1.2837e-06 -7.6874e-06 -1.62773e-07)
(-2.09617e-06 -9.02861e-06 -1.83551e-07)
(-2.94228e-06 -1.00047e-05 -2.06441e-07)
(-3.75468e-06 -1.0735e-05 -2.36608e-07)
(-4.46211e-06 -1.12915e-05 -2.76034e-07)
(-4.99514e-06 -1.17195e-05 -3.25237e-07)
(-5.28998e-06 -1.20484e-05 -3.83322e-07)
(-5.29439e-06 -1.22976e-05 -4.48001e-07)
(-4.97448e-06 -1.24811e-05 -5.1557e-07)
(-4.3215e-06 -1.26103e-05 -5.80947e-07)
(-3.35774e-06 -1.26955e-05 -6.38061e-07)
(-2.13891e-06 -1.27459e-05 -6.80713e-07)
(-7.5183e-07 -1.27686e-05 -7.03572e-07)
(6.94398e-07 -1.27675e-05 -7.03655e-07)
(2.083e-06 -1.27428e-05 -6.80971e-07)
(3.3048e-06 -1.26906e-05 -6.38462e-07)
(4.27275e-06 -1.26038e-05 -5.81464e-07)
(4.93085e-06 -1.24735e-05 -5.16172e-07)
(5.25651e-06 -1.22893e-05 -4.48648e-07)
(5.25817e-06 -1.204e-05 -3.83987e-07)
(4.96944e-06 -1.17113e-05 -3.25885e-07)
(4.44233e-06 -1.12838e-05 -2.76634e-07)
(3.74042e-06 -1.07282e-05 -2.3714e-07)
(2.93291e-06 -9.99906e-06 -2.06894e-07)
(2.0909e-06 -9.02429e-06 -1.83866e-07)
(1.28152e-06 -7.68446e-06 -1.62919e-07)
(5.82758e-07 -5.75904e-06 -1.34501e-07)
(7.14993e-08 -2.75283e-06 -7.0903e-08)
(-7.19201e-08 -2.09421e-06 -7.1797e-08)
(-5.88375e-07 -4.42866e-06 -1.35666e-07)
(-1.29938e-06 -5.94049e-06 -1.63764e-07)
(-2.12984e-06 -6.99045e-06 -1.84249e-07)
(-3.00089e-06 -7.74456e-06 -2.06957e-07)
(-3.84201e-06 -8.29568e-06 -2.37187e-07)
(-4.57773e-06 -8.70169e-06 -2.76979e-07)
(-5.13422e-06 -8.99986e-06 -3.26751e-07)
(-5.44412e-06 -9.21507e-06 -3.85454e-07)
(-5.4526e-06 -9.36463e-06 -4.50624e-07)
(-5.12463e-06 -9.46207e-06 -5.18417e-07)
(-4.45183e-06 -9.51952e-06 -5.837e-07)
(-3.45811e-06 -9.54869e-06 -6.40482e-07)
(-2.20163e-06 -9.56039e-06 -6.82709e-07)
(-7.72131e-07 -9.56337e-06 -7.05286e-07)
(7.18135e-07 -9.5625e-06 -7.05358e-07)