/*--------------------------------*- C++ -*----------------------------------*\
| =========                 |                                                 |
| \\      /  F ield         | OpenFOAM: The Open Source CFD Toolbox           |
|  \\    /   O peration     | Version:  v1906                                 |
|   \\  /    A nd           | Web:      www.OpenFOAM.com                      |
|    \\/     M anipulation  |                                                 |
\*---------------------------------------------------------------------------*/
FoamFile
{
    version     2.0;
    format      ascii;
    class       volScalarField;
    location    "21";
    object      alphat;
}
// * * * * * * * * * * * * * * * * * * * * * * * * * * * * * * * * * * * * * //

dimensions      [1 -1 -1 0 0 0 0];


internalField   nonuniform List<scalar> 
78750
(
9.44617e-07
8.10914e-06
1.42824e-05
1.30288e-05
1.25071e-05
1.2278e-05
1.1606e-05
1.09918e-05
1.04207e-05
9.88805e-06
9.39254e-06
8.93236e-06
8.50575e-06
8.11228e-06
7.75298e-06
7.42982e-06
7.14504e-06
6.89997e-06
6.69737e-06
6.53598e-06
6.41082e-06
6.31415e-06
6.23583e-06
6.16393e-06
6.08156e-06
5.97467e-06
5.83449e-06
5.64174e-06
5.38782e-06
5.04952e-06
4.61239e-06
4.04049e-06
3.2284e-06
2.0825e-06
2.60488e-08
9.76993e-08
7.47436e-06
1.72706e-05
2.70796e-05
2.84019e-05
2.95948e-05
3.23974e-05
3.52236e-05
3.76386e-05
3.95587e-05
4.06984e-05
4.11159e-05
4.09667e-05
4.02689e-05
3.91364e-05
3.78008e-05
3.65172e-05
3.55104e-05
3.4928e-05
3.48049e-05
3.51611e-05
3.61283e-05
3.78965e-05
4.02173e-05
4.03389e-05
3.9263e-05
3.80273e-05
3.65924e-05
3.43993e-05
2.47498e-05
1.72915e-05
1.26944e-05
1.0909e-05
8.35471e-06
4.93107e-08
1.38152e-07
8.88866e-06
1.24736e-05
1.20243e-05
1.17276e-05
1.22113e-05
1.33334e-05
1.50544e-05
1.80544e-05
2.39977e-05
2.93437e-05
2.92601e-05
2.92268e-05
2.92358e-05
2.92797e-05
2.9351e-05
2.94402e-05
2.95346e-05
2.91215e-05
2.76444e-05
2.68846e-05
2.65052e-05
2.62168e-05
2.57039e-05
2.45787e-05
2.27115e-05
2.02115e-05
1.7355e-05
1.44719e-05
1.19534e-05
1.01825e-05
9.65201e-06
1.15526e-05
6.24819e-06
6.28142e-08
1.16095e-07
1.20134e-05
2.20257e-05
1.94862e-05
1.81414e-05
1.7997e-05
1.90549e-05
2.12601e-05
2.48807e-05
3.00126e-05
3.36191e-05
3.3246e-05
3.29157e-05
3.26795e-05
3.25668e-05
3.2584e-05
3.27117e-05
3.29083e-05
3.31174e-05
3.3279e-05
3.33447e-05
3.32736e-05
3.11612e-05
2.71864e-05
2.31661e-05
1.93995e-05
1.58884e-05
1.27705e-05
1.02201e-05
8.34421e-06
7.2529e-06
7.3144e-06
9.89469e-06
5.85362e-06
6.92806e-08
1.10427e-07
6.58734e-06
2.41754e-05
2.18962e-05
1.98063e-05
1.90084e-05
1.94563e-05
2.06678e-05
2.21144e-05
2.31209e-05
2.30999e-05
2.18925e-05
1.97944e-05
1.74484e-05
1.5624e-05
1.48169e-05
1.51741e-05
1.69083e-05
2.10936e-05
2.90792e-05
3.04232e-05
3.07785e-05
3.08586e-05
3.06192e-05
2.16768e-05
1.57185e-05
1.17029e-05
8.60104e-06
6.34838e-06
5.01225e-06
4.63867e-06
5.57865e-06
9.40422e-06
3.65869e-06
6.91635e-08
8.88217e-08
5.53504e-06
2.5379e-05
2.46729e-05
2.11588e-05
1.88204e-05
1.77501e-05
1.75274e-05
1.79834e-05
1.89972e-05
2.01025e-05
2.03658e-05
1.91869e-05
1.72451e-05
1.57816e-05
1.5439e-05
1.6358e-05
1.87989e-05
2.38355e-05
3.21207e-05
3.29331e-05
3.35116e-05
3.38335e-05
3.38765e-05
2.70132e-05
2.06794e-05
1.59008e-05
1.18001e-05
8.35633e-06
5.88467e-06
4.54883e-06
4.47101e-06
6.71648e-06
4.24915e-06
6.43961e-08
7.58412e-08
4.24518e-06
1.96945e-05
2.53067e-05
2.22147e-05
1.94266e-05
1.81847e-05
1.81776e-05
1.82713e-05
1.71276e-05
1.47509e-05
1.23397e-05
1.07296e-05
1.01818e-05
1.06705e-05
1.21043e-05
1.45468e-05
1.8482e-05
2.49936e-05
3.22796e-05
3.28542e-05
3.31836e-05
3.32772e-05
2.88569e-05
2.24592e-05
1.80655e-05
1.47797e-05
1.19121e-05
9.24854e-06
6.98758e-06
5.52969e-06
5.31838e-06
7.71808e-06
4.91859e-06
6.94557e-08
6.40108e-08
3.95342e-06
1.80372e-05
2.46104e-05
2.1859e-05
1.91906e-05
1.67791e-05
1.3909e-05
1.1009e-05
8.8542e-06
7.70743e-06
7.53858e-06
8.26086e-06
9.8206e-06
1.2227e-05
1.55701e-05
2.01309e-05
2.64146e-05
3.38917e-05
3.47449e-05
3.50292e-05
3.51156e-05
3.40177e-05
2.77998e-05
2.24795e-05
1.83934e-05
1.51069e-05
1.22872e-05
9.74593e-06
7.54492e-06
6.02648e-06
5.72873e-06
8.16915e-06
5.79424e-06
7.61304e-08
5.8575e-08
3.48498e-06
1.41312e-05
2.22041e-05
1.93023e-05
1.38631e-05
9.3778e-06
6.73658e-06
5.55878e-06
5.46483e-06
6.26837e-06
7.9044e-06
1.03242e-05
1.34643e-05
1.72299e-05
2.1568e-05
2.67019e-05
3.26466e-05
3.46355e-05
3.48434e-05
3.48838e-05
3.47584e-05
3.21956e-05
2.52824e-05
1.97639e-05
1.57421e-05
1.2708e-05
1.03065e-05
8.36138e-06
6.84861e-06
5.94937e-06
6.28729e-06
1.03047e-05
4.8645e-06
8.39293e-08
5.8609e-08
3.06421e-06
1.17681e-05
1.5738e-05
1.02227e-05
6.45183e-06
4.79025e-06
4.47946e-06
5.16373e-06
6.73366e-06
9.11793e-06
1.21241e-05
1.5461e-05
1.88993e-05
2.24446e-05
2.63434e-05
3.08966e-05
3.57377e-05
3.62955e-05
3.63142e-05
3.61642e-05
3.50385e-05
2.81969e-05
2.17994e-05
1.68954e-05
1.32886e-05
1.06421e-05
8.68391e-06
7.24288e-06
6.25017e-06
5.91005e-06
7.10058e-06
1.39046e-05
4.06719e-06
8.60538e-08
5.91512e-08
2.62868e-06
1.03036e-05
1.08269e-05
6.02691e-06
4.24864e-06
4.08508e-06
4.97486e-06
6.74972e-06
9.24566e-06
1.20885e-05
1.49535e-05
1.77868e-05
2.07866e-05
2.42364e-05
2.84104e-05
3.32268e-05
3.5956e-05
3.6089e-05
3.60457e-05
3.58045e-05
3.26181e-05
2.48427e-05
1.83206e-05
1.36159e-05
1.03483e-05
8.17772e-06
6.87416e-06
6.19028e-06
5.96493e-06
6.42157e-06
8.81632e-06
1.67679e-05
3.42071e-06
8.48935e-08
5.90079e-08
2.41281e-06
1.05264e-05
8.04287e-06
4.65377e-06
4.01459e-06
4.66334e-06
6.20206e-06
8.39392e-06
1.08927e-05
1.34116e-05
1.59868e-05
1.88294e-05
2.21403e-05
2.60221e-05
3.04377e-05
3.49866e-05
3.71313e-05
3.72417e-05
3.71688e-05
3.68825e-05
3.1307e-05
2.38253e-05
1.74634e-05
1.27174e-05
9.39264e-06
7.22398e-06
6.01005e-06
5.49584e-06
5.53324e-06
6.381e-06
9.41925e-06
1.56981e-05
3.04739e-06
8.39103e-08
5.94995e-08
2.4013e-06
1.20878e-05
7.46701e-06
4.76575e-06
4.63854e-06
5.66378e-06
7.36553e-06
9.36158e-06
1.13633e-05
1.33924e-05
1.5721e-05
1.86181e-05
2.22347e-05
2.65543e-05
3.1355e-05
3.59865e-05
3.6965e-05
3.71552e-05
3.71511e-05
3.69104e-05
3.03049e-05
2.27696e-05
1.64063e-05
1.16255e-05
8.29289e-06
6.18972e-06
5.14842e-06
4.89064e-06
5.26795e-06
6.53977e-06
1.01095e-05
1.35123e-05
2.74249e-06
8.24405e-08
5.68584e-08
2.37926e-06
1.28778e-05
8.99778e-06
5.66671e-06
5.38725e-06
6.21972e-06
7.48236e-06
8.82077e-06
1.02373e-05
1.19802e-05
1.43982e-05
1.7766e-05
2.21773e-05
2.73933e-05
3.27243e-05
3.6783e-05
3.72878e-05
3.76428e-05
3.78257e-05
3.70927e-05
3.17251e-05
2.50969e-05
1.85743e-05
1.30621e-05
8.93584e-06
6.17982e-06
4.64254e-06
4.09533e-06
4.36421e-06
5.63376e-06
9.12531e-06
1.21546e-05
2.58681e-06
8.17299e-08
4.84511e-08
2.21284e-06
1.04053e-05
1.3416e-05
7.6543e-06
6.31251e-06
6.35467e-06
6.80587e-06
7.38362e-06
8.26688e-06
9.79503e-06
1.22821e-05
1.59976e-05
2.10559e-05
2.71166e-05
3.30432e-05
3.61634e-05
3.67529e-05
3.72093e-05
3.75331e-05
3.59209e-05
3.16515e-05
2.64711e-05
2.08919e-05
1.54658e-05
1.07829e-05
7.2459e-06
4.96894e-06
3.84359e-06
3.6552e-06
4.50818e-06
7.44637e-06
1.11067e-05
2.45225e-06
8.34288e-08
3.92972e-08
2.12895e-06
8.8999e-06
1.70667e-05
1.01636e-05
7.50332e-06
6.66542e-06
6.40419e-06
6.44551e-06
7.02804e-06
8.52231e-06
1.11409e-05
1.50561e-05
2.02688e-05
2.6318e-05
3.21119e-05
3.58936e-05
3.64577e-05
3.6933e-05
3.73373e-05
3.60555e-05
3.2673e-05
2.83891e-05
2.35051e-05
1.83593e-05
1.34195e-05
9.21553e-06
6.12595e-06
4.27695e-06
3.47148e-06
3.682e-06
5.65826e-06
1.0654e-05
2.38411e-06
8.78385e-08
3.46437e-08
2.11876e-06
8.39743e-06
1.67329e-05
1.1926e-05
8.1621e-06
6.4368e-06
5.67358e-06
5.6473e-06
6.49982e-06
8.44201e-06
1.15444e-05
1.58043e-05
2.09731e-05
2.6455e-05
3.14564e-05
3.52265e-05
3.56733e-05
3.60881e-05
3.65063e-05
3.57428e-05
3.28307e-05
2.90932e-05
2.48241e-05
2.02237e-05
1.55349e-05
1.11615e-05
7.59021e-06
5.15653e-06
3.82025e-06
3.52066e-06
4.81131e-06
1.0432e-05
2.38053e-06
9.32303e-08
3.38838e-08
2.10744e-06
8.24477e-06
1.59614e-05
1.10558e-05
7.20007e-06
5.57656e-06
5.1963e-06
5.77473e-06
7.36503e-06
1.00187e-05
1.36279e-05
1.79196e-05
2.24753e-05
2.6885e-05
3.0838e-05
3.40062e-05
3.47998e-05
3.51775e-05
3.56278e-05
3.53481e-05
3.27371e-05
2.92767e-05
2.53246e-05
2.10845e-05
1.6706e-05
1.24587e-05
8.77143e-06
6.04996e-06
4.37879e-06
3.75777e-06
4.70192e-06
1.06391e-05
2.45328e-06
9.71539e-08
3.48321e-08
2.0176e-06
7.90785e-06
1.50697e-05
9.10948e-06
6.06904e-06
5.1368e-06
5.37886e-06
6.56197e-06
8.70824e-06
1.16959e-05
1.52444e-05
1.90316e-05
2.2805e-05
2.64174e-05
2.97507e-05
3.25528e-05
3.34329e-05
3.38029e-05
3.4298e-05
3.36854e-05
3.11681e-05
2.79905e-05
2.45156e-05
2.08789e-05
1.70842e-05
1.3243e-05
9.70062e-06
6.8959e-06
5.02914e-06
4.21613e-06
5.0488e-06
1.14327e-05
2.58109e-06
9.91841e-08
3.52134e-08
1.92752e-06
7.7847e-06
1.34195e-05
7.60976e-06
5.50578e-06
5.22916e-06
5.9987e-06
7.63821e-06
1.01092e-05
1.3145e-05
1.64012e-05
1.96235e-05
2.27226e-05
2.57141e-05
2.85833e-05
3.11097e-05
3.19633e-05
3.23328e-05
3.28708e-05
3.16461e-05
2.90212e-05
2.59696e-05
2.28697e-05
1.98079e-05
1.66847e-05
1.34716e-05
1.03676e-05
7.7262e-06
5.82651e-06
4.93327e-06
5.83274e-06
1.27962e-05
2.75519e-06
9.91626e-08
3.47165e-08
1.85901e-06
7.72806e-06
1.28212e-05
7.21352e-06
5.60699e-06
5.70287e-06
6.75313e-06
8.53805e-06
1.09097e-05
1.35528e-05
1.61846e-05
1.87122e-05
2.12134e-05
2.38119e-05
2.65298e-05
2.90961e-05
3.00333e-05
3.04011e-05
3.09721e-05
2.90556e-05
2.6216e-05
2.32855e-05
2.06007e-05
1.8137e-05
1.56944e-05
1.31591e-05
1.06266e-05
8.3379e-06
6.59298e-06
5.7913e-06
6.96976e-06
1.44096e-05
2.93159e-06
9.91652e-08
3.32907e-08
1.85895e-06
7.96639e-06
1.32174e-05
7.55439e-06
6.11959e-06
6.36801e-06
7.486e-06
9.17703e-06
1.12304e-05
1.33745e-05
1.5435e-05
1.74282e-05
1.9498e-05
2.18011e-05
2.43948e-05
2.7005e-05
2.79643e-05
2.82746e-05
2.86011e-05
2.6063e-05
2.30067e-05
2.02943e-05
1.81311e-05
1.63231e-05
1.4582e-05
1.27322e-05
1.07848e-05
8.8958e-06
7.37932e-06
6.75091e-06
8.29455e-06
1.56085e-05
3.07703e-06
9.91237e-08
3.12381e-08
1.91101e-06
8.23183e-06
1.50735e-05
8.86005e-06
7.11571e-06
7.20342e-06
8.10119e-06
9.40144e-06
1.08863e-05
1.24033e-05
1.38877e-05
1.54013e-05
1.7068e-05
1.90346e-05
2.14346e-05
2.41206e-05
2.53665e-05
2.55417e-05
2.55447e-05
2.23836e-05
1.91399e-05
1.67553e-05
1.51897e-05
1.40645e-05
1.30296e-05
1.18811e-05
1.0567e-05
9.18631e-06
8.0502e-06
7.76583e-06
9.84744e-06
1.62809e-05
3.17714e-06
1.0147e-07
2.85965e-08
1.98493e-06
8.38306e-06
1.54138e-05
1.06543e-05
8.31672e-06
7.96505e-06
8.43197e-06
9.2396e-06
1.0204e-05
1.12658e-05
1.23976e-05
1.36123e-05
1.49195e-05
1.63836e-05
1.82219e-05
2.06379e-05
2.26557e-05
2.25771e-05
2.22566e-05
1.84566e-05
1.5172e-05
1.32552e-05
1.23552e-05
1.19456e-05
1.16173e-05
1.11197e-05
1.03424e-05
9.37385e-06
8.54773e-06
8.54084e-06
1.09695e-05
1.62076e-05
3.20153e-06
1.04866e-07
2.6411e-08
2.05465e-06
8.51554e-06
1.5536e-05
1.25186e-05
9.51804e-06
8.60989e-06
8.59291e-06
8.94237e-06
9.48697e-06
1.01939e-05
1.10126e-05
1.18529e-05
1.25826e-05
1.31893e-05
1.39768e-05
1.55374e-05
1.81662e-05
1.89995e-05
1.8437e-05
1.40492e-05
1.09105e-05
9.53886e-06
9.26997e-06
9.54354e-06
9.94721e-06
1.01568e-05
9.97402e-06
9.48129e-06
9.05342e-06
9.45654e-06
1.24147e-05
1.61106e-05
3.23423e-06
1.1279e-07
2.5303e-08
2.10042e-06
8.71231e-06
1.54177e-05
1.37074e-05
1.02234e-05
8.88939e-06
8.54072e-06
8.63126e-06
8.97141e-06
9.47412e-06
9.98954e-06
1.0295e-05
1.02246e-05
9.89357e-06
9.72421e-06
1.03075e-05
1.23195e-05
1.53743e-05
1.47261e-05
1.03026e-05
7.52283e-06
6.59845e-06
6.74377e-06
7.48661e-06
8.47926e-06
9.31451e-06
9.65387e-06
9.50838e-06
9.29778e-06
9.90531e-06
1.31296e-05
1.53624e-05
3.12855e-06
1.18916e-07
2.60219e-08
2.09236e-06
8.6904e-06
1.54564e-05
1.46325e-05
1.08322e-05
9.25209e-06
8.74271e-06
8.70462e-06
8.87336e-06
9.04957e-06
8.99166e-06
8.51889e-06
7.72595e-06
6.96349e-06
6.60743e-06
7.01292e-06
8.69824e-06
1.18646e-05
1.21219e-05
7.85075e-06
5.33759e-06
4.5901e-06
4.83957e-06
5.74427e-06
7.06471e-06
8.34584e-06
9.20799e-06
9.64868e-06
1.00634e-05
1.13666e-05
1.53437e-05
1.45521e-05
3.08588e-06
1.25321e-07
2.69758e-08
1.99886e-06
8.10526e-06
1.55244e-05
1.61016e-05
1.1947e-05
1.00398e-05
9.33562e-06
9.13709e-06
9.07236e-06
8.85939e-06
8.29434e-06
7.3859e-06
6.41237e-06
5.72704e-06
5.59493e-06
6.28874e-06
8.30445e-06
1.19259e-05
1.28693e-05
8.14125e-06
4.93306e-06
3.68553e-06
3.55251e-06
4.22531e-06
5.59026e-06
7.25033e-06
8.49896e-06
9.03793e-06
9.44458e-06
1.09074e-05
1.52786e-05
1.30101e-05
2.8924e-06
1.22859e-07
2.55899e-08
1.80509e-06
6.6823e-06
1.52775e-05
1.75028e-05
1.47021e-05
1.19084e-05
1.05114e-05
9.83266e-06
9.40554e-06
8.89477e-06
8.08331e-06
6.99797e-06
5.94845e-06
5.29808e-06
5.30386e-06
6.25872e-06
8.76061e-06
1.32869e-05
1.57203e-05
1.10302e-05
6.43252e-06
4.02148e-06
2.92408e-06
2.69575e-06
3.24644e-06
4.554e-06
6.43596e-06
8.50794e-06
1.04429e-05
1.28533e-05
1.7096e-05
1.23242e-05
2.88499e-06
1.24855e-07
2.10134e-08
1.66509e-06
5.66277e-06
1.42985e-05
1.65082e-05
1.7311e-05
1.39192e-05
1.17441e-05
1.04582e-05
9.4776e-06
8.36719e-06
6.99439e-06
5.61868e-06
4.63423e-06
4.25576e-06
4.61123e-06
5.96511e-06
8.97953e-06
1.42484e-05
1.78357e-05
1.42975e-05
9.39161e-06
6.3874e-06
4.70187e-06
3.6535e-06
3.06969e-06
3.09383e-06
3.79139e-06
5.08776e-06
6.94167e-06
9.75401e-06
1.45868e-05
1.26404e-05
2.96792e-06
1.47251e-07
1.85794e-08
1.64663e-06
5.42376e-06
1.36426e-05
1.57242e-05
1.72968e-05
1.51513e-05
1.17922e-05
9.30358e-06
7.28134e-06
5.54238e-06
4.19081e-06
3.39816e-06
3.20788e-06
3.68686e-06
5.02946e-06
7.6781e-06
1.22463e-05
1.78095e-05
1.92049e-05
1.40295e-05
8.52429e-06
5.54619e-06
4.3085e-06
3.97908e-06
4.0288e-06
4.19602e-06
4.54294e-06
5.29333e-06
6.61116e-06
8.96983e-06
1.37169e-05
1.21e-05
2.86325e-06
1.67646e-07
1.72648e-08
1.63944e-06
5.28438e-06
1.31226e-05
1.49093e-05
1.60977e-05
1.34098e-05
9.4882e-06
6.8843e-06
5.11789e-06
3.91359e-06
3.27462e-06
3.24723e-06
3.90127e-06
5.41532e-06
8.04019e-06
1.18593e-05
1.63035e-05
1.99422e-05
2.05231e-05
1.60832e-05
9.73351e-06
5.62394e-06
3.76457e-06
3.30772e-06
3.70308e-06
4.38948e-06
4.89328e-06
5.39737e-06
6.40802e-06
8.73615e-06
1.41752e-05
1.05979e-05
2.65604e-06
1.63034e-07
1.35341e-08
1.4927e-06
4.47079e-06
1.16268e-05
1.32083e-05
1.42463e-05
1.10524e-05
7.96836e-06
5.80695e-06
4.29543e-06
3.37874e-06
3.08986e-06
3.43391e-06
4.46332e-06
6.36162e-06
9.46583e-06
1.39876e-05
1.88345e-05
2.14856e-05
2.11082e-05
1.84627e-05
1.3897e-05
8.53595e-06
4.65617e-06
2.84584e-06
2.52777e-06
3.21229e-06
4.40878e-06
5.6263e-06
6.9386e-06
9.45148e-06
1.49355e-05
9.17073e-06
2.47011e-06
1.49966e-07
1.18124e-08
1.76251e-06
5.39698e-06
1.12974e-05
1.25392e-05
1.24826e-05
6.86275e-06
3.94036e-06
2.67301e-06
2.2984e-06
2.57999e-06
3.49486e-06
5.18683e-06
7.99518e-06
1.23679e-05
1.78676e-05
2.20368e-05
2.32089e-05
2.21189e-05
1.99447e-05
1.75638e-05
1.52587e-05
1.24761e-05
8.71143e-06
5.1212e-06
3.0803e-06
2.58474e-06
3.1357e-06
4.38581e-06
6.2325e-06
9.26809e-06
1.44511e-05
8.64128e-06
2.40541e-06
1.54154e-07
1.61805e-08
1.64626e-06
4.90887e-06
9.90665e-06
6.90793e-06
3.36867e-06
2.18613e-06
2.05695e-06
2.62241e-06
3.90114e-06
6.08299e-06
9.49444e-06
1.42661e-05
1.94286e-05
2.33004e-05
2.56025e-05
2.70371e-05
2.79803e-05
2.82577e-05
2.72472e-05
2.41916e-05
1.92481e-05
1.39387e-05
9.48308e-06
6.10164e-06
3.8201e-06
2.69595e-06
2.58473e-06
3.31522e-06
4.86353e-06
7.73616e-06
1.29231e-05
8.4569e-06
2.39231e-06
1.6715e-07
2.23508e-08
1.59636e-06
6.25494e-06
5.83739e-06
3.18589e-06
2.53482e-06
2.85747e-06
4.04898e-06
6.29465e-06
9.76561e-06
1.40611e-05
1.79008e-05
2.05362e-05
2.25439e-05
2.46547e-05
2.69486e-05
2.89033e-05
2.98137e-05
2.92105e-05
2.70549e-05
2.37138e-05
1.97181e-05
1.5501e-05
1.1399e-05
7.77922e-06
5.00373e-06
3.30117e-06
2.59145e-06
2.7678e-06
3.83757e-06
6.29087e-06
1.15155e-05
8.16994e-06
2.34637e-06
1.76305e-07
2.50131e-08
1.59157e-06
8.06913e-06
4.91757e-06
3.01799e-06
2.84067e-06
3.52216e-06
5.0361e-06
7.33377e-06
1.01753e-05
1.33543e-05
1.68546e-05
2.05784e-05
2.41216e-05
2.69961e-05
2.89657e-05
3.00334e-05
3.02332e-05
2.95275e-05
2.78257e-05
2.5096e-05
2.15154e-05
1.74808e-05
1.34178e-05
9.66865e-06
6.55919e-06
4.37299e-06
3.1216e-06
2.75904e-06
3.29524e-06
5.15651e-06
1.01672e-05
8.21022e-06
2.32183e-06
1.81211e-07
2.17216e-08
1.6836e-06
8.83394e-06
5.33915e-06
3.29753e-06
3.10129e-06
3.78823e-06
5.38325e-06
7.97697e-06
1.15768e-05
1.58809e-05
2.01965e-05
2.38562e-05
2.66765e-05
2.87975e-05
3.03225e-05
3.11875e-05
3.11991e-05
3.01311e-05
2.78707e-05
2.45815e-05
2.0726e-05
1.68135e-05
1.31635e-05
9.92279e-06
7.21996e-06
5.18284e-06
3.82181e-06
3.19121e-06
3.40875e-06
4.98521e-06
1.00213e-05
7.84604e-06
2.25968e-06
1.76589e-07
1.7062e-08
1.69733e-06
8.26144e-06
6.87517e-06
3.99324e-06
3.52083e-06
4.0366e-06
5.40159e-06
7.59029e-06
1.04883e-05
1.39044e-05
1.76268e-05
2.14349e-05
2.50531e-05
2.81695e-05
3.05374e-05
3.13959e-05
3.22466e-05
3.14964e-05
2.93573e-05
2.60761e-05
2.20816e-05
1.79055e-05
1.39543e-05
1.04865e-05
7.68704e-06
5.6489e-06
4.29478e-06
3.60461e-06
3.69538e-06
5.14597e-06
1.02747e-05
7.87925e-06
2.24981e-06
1.70585e-07
1.43233e-08
1.79374e-06
7.63395e-06
7.10796e-06
4.40664e-06
4.1202e-06
4.89417e-06
6.56387e-06
9.03012e-06
1.21019e-05
1.55037e-05
1.89885e-05
2.24279e-05
2.57366e-05
2.86124e-05
2.9304e-05
3.00849e-05
3.09465e-05
3.18513e-05
2.97506e-05
2.62555e-05
2.24311e-05
1.86913e-05
1.51173e-05
1.17599e-05
8.83175e-06
6.54882e-06
4.96673e-06
4.10202e-06
4.06065e-06
5.40778e-06
1.05083e-05
7.96035e-06
2.24888e-06
1.66557e-07
1.35048e-08
1.87188e-06
7.55136e-06
8.65117e-06
5.62548e-06
5.36075e-06
6.19168e-06
7.70384e-06
9.64284e-06
1.17855e-05
1.40797e-05
1.66669e-05
1.97346e-05
2.33011e-05
2.69928e-05
2.78352e-05
2.87659e-05
2.97696e-05
3.08084e-05
3.00507e-05
2.60009e-05
2.17675e-05
1.80383e-05
1.4804e-05
1.19141e-05
9.35904e-06
7.22249e-06
5.61729e-06
4.6645e-06
4.54055e-06
5.86323e-06
1.09617e-05
8.17075e-06
2.2853e-06
1.63615e-07
1.27241e-08
1.81921e-06
7.38827e-06
9.47709e-06
6.89834e-06
6.34078e-06
6.88672e-06
8.01776e-06
9.54763e-06
1.14071e-05
1.36229e-05
1.63102e-05
1.95862e-05
2.33088e-05
2.56968e-05
2.64466e-05
2.73204e-05
2.83324e-05
2.94641e-05
2.96839e-05
2.61395e-05
2.24434e-05
1.91027e-05
1.60399e-05
1.31492e-05
1.04814e-05
8.15644e-06
6.3332e-06
5.16544e-06
4.83837e-06
5.93833e-06
1.06727e-05
8.52085e-06
2.31526e-06
1.62753e-07
1.23909e-08
1.75109e-06
7.27852e-06
9.43199e-06
7.9726e-06
7.24511e-06
7.62823e-06
8.57796e-06
9.87789e-06
1.14385e-05
1.32569e-05
1.54519e-05
1.82542e-05
2.17271e-05
2.36881e-05
2.42878e-05
2.50625e-05
2.60366e-05
2.72018e-05
2.80882e-05
2.40941e-05
2.0697e-05
1.82252e-05
1.61884e-05
1.41444e-05
1.19003e-05
9.57236e-06
7.51274e-06
6.05474e-06
5.46696e-06
6.33417e-06
1.07547e-05
8.99263e-06
2.3739e-06
1.62734e-07
1.2494e-08
1.68685e-06
7.28259e-06
9.48771e-06
9.09273e-06
8.22461e-06
8.4746e-06
9.26862e-06
1.03354e-05
1.15636e-05
1.29522e-05
1.46471e-05
1.69643e-05
2.00985e-05
2.16353e-05
2.2129e-05
2.28469e-05
2.38183e-05
2.50399e-05
2.60381e-05
2.1839e-05
1.87548e-05
1.69281e-05
1.57446e-05
1.46099e-05
1.30478e-05
1.09868e-05
8.82054e-06
7.0834e-06
6.21281e-06
6.84249e-06
1.09435e-05
9.8632e-06
2.50497e-06
1.65656e-07
1.23098e-08
1.64659e-06
7.18211e-06
9.53119e-06
1.01835e-05
9.28848e-06
9.40896e-06
9.98774e-06
1.07067e-05
1.14346e-05
1.21994e-05
1.32063e-05
1.48523e-05
1.74719e-05
1.89314e-05
1.92917e-05
1.99181e-05
2.08438e-05
2.20742e-05
2.22264e-05
1.82575e-05
1.58412e-05
1.48379e-05
1.46711e-05
1.47212e-05
1.42881e-05
1.29167e-05
1.08052e-05
8.69754e-06
7.35819e-06
7.59243e-06
1.13966e-05
1.11405e-05
2.65382e-06
1.70252e-07
1.16667e-08
1.6181e-06
6.55742e-06
9.44539e-06
1.1146e-05
1.02739e-05
1.01893e-05
1.04386e-05
1.06995e-05
1.08653e-05
1.10401e-05
1.15111e-05
1.27038e-05
1.49647e-05
1.63952e-05
1.67225e-05
1.73377e-05
1.82665e-05
1.9518e-05
1.7712e-05
1.4432e-05
1.27181e-05
1.22773e-05
1.26842e-05
1.34506e-05
1.39885e-05
1.37166e-05
1.24416e-05
1.06591e-05
9.32062e-06
9.64799e-06
1.40295e-05
1.24265e-05
2.86744e-06
1.74539e-07
1.003e-08
1.55771e-06
5.59777e-06
8.997e-06
1.08947e-05
1.0895e-05
1.06596e-05
1.04146e-05
9.98703e-06
9.47004e-06
9.14807e-06
9.34946e-06
1.04214e-05
1.25587e-05
1.3532e-05
1.39045e-05
1.45534e-05
1.55099e-05
1.63531e-05
1.36861e-05
1.15494e-05
1.05448e-05
1.06215e-05
1.15051e-05
1.27572e-05
1.38328e-05
1.41998e-05
1.35996e-05
1.23237e-05
1.12411e-05
1.17478e-05
1.61743e-05
1.32179e-05
3.04705e-06
1.82911e-07
7.23669e-09
1.31959e-06
4.04876e-06
7.21233e-06
8.69735e-06
8.46677e-06
7.88535e-06
7.27976e-06
6.7979e-06
6.58668e-06
6.8091e-06
7.65614e-06
9.29432e-06
1.1421e-05
1.18393e-05
1.23566e-05
1.2499e-05
1.20873e-05
1.16466e-05
1.07113e-05
9.48498e-06
8.85705e-06
9.31513e-06
1.07979e-05
1.28207e-05
1.45127e-05
1.50871e-05
1.44799e-05
1.33382e-05
1.26526e-05
1.38486e-05
1.91014e-05
1.33585e-05
3.15998e-06
1.95482e-07
5.50024e-09
1.30966e-06
3.71699e-06
5.95809e-06
6.32742e-06
5.94159e-06
5.58196e-06
5.38158e-06
5.40048e-06
5.74278e-06
6.6209e-06
8.30906e-06
1.03615e-05
1.08088e-05
1.13332e-05
1.02142e-05
9.48212e-06
9.36708e-06
9.59909e-06
9.54615e-06
8.75291e-06
7.93579e-06
8.02227e-06
9.32507e-06
1.17206e-05
1.44558e-05
1.61452e-05
1.6061e-05
1.50523e-05
1.46448e-05
1.64621e-05
2.13065e-05
1.12012e-05
2.9524e-06
1.86188e-07
4.20601e-09
1.57819e-06
4.10383e-06
5.29289e-06
5.03e-06
4.5449e-06
4.28514e-06
4.29229e-06
4.66261e-06
5.69563e-06
7.96577e-06
9.27487e-06
9.85671e-06
1.05643e-05
9.22295e-06
8.3673e-06
8.43956e-06
9.18208e-06
1.02201e-05
1.08009e-05
1.01339e-05
8.62835e-06
7.58773e-06
7.69784e-06
9.04768e-06
1.14732e-05
1.44125e-05
1.68285e-05
1.80057e-05
1.861e-05
2.01495e-05
2.21289e-05
1.12276e-05
3.03864e-06
2.06434e-07
2.72821e-09
2.10352e-06
3.50593e-06
4.09439e-06
3.53975e-06
3.28171e-06
3.3118e-06
3.737e-06
5.00447e-06
7.83987e-06
8.55886e-06
9.51604e-06
8.93479e-06
8.02518e-06
8.72767e-06
1.08398e-05
1.41718e-05
1.77426e-05
1.94826e-05
1.81784e-05
1.51564e-05
1.22828e-05
1.03429e-05
9.45343e-06
9.58667e-06
1.06041e-05
1.2149e-05
1.37214e-05
1.50754e-05
1.65359e-05
1.88295e-05
2.10482e-05
1.09315e-05
3.04231e-06
2.33789e-07
2.84923e-09
2.14597e-06
3.33006e-06
2.91383e-06
2.65287e-06
2.62759e-06
2.99771e-06
4.25888e-06
7.58092e-06
8.85726e-06
1.03301e-05
9.70974e-06
9.58691e-06
1.06764e-05
1.297e-05
1.64773e-05
2.0454e-05
2.25938e-05
2.06801e-05
1.60087e-05
1.17135e-05
9.05958e-06
7.9474e-06
8.13398e-06
9.47853e-06
1.17219e-05
1.4318e-05
1.66829e-05
1.85877e-05
2.02773e-05
2.18835e-05
2.03715e-05
8.7882e-06
2.72126e-06
2.25548e-07
5.2992e-09
1.91697e-06
2.3348e-06
1.9133e-06
1.79801e-06
2.01439e-06
2.73238e-06
4.25299e-06
6.91149e-06
1.01606e-05
1.14549e-05
1.03205e-05
8.96508e-06
8.37373e-06
8.56038e-06
9.42773e-06
1.10139e-05
1.35145e-05
1.68693e-05
1.92915e-05
1.73894e-05
1.25774e-05
8.86926e-06
7.16046e-06
7.13998e-06
8.56537e-06
1.10647e-05
1.39116e-05
1.66222e-05
1.93173e-05
2.17466e-05
2.0153e-05
8.40046e-06
2.63425e-06
2.30075e-07
7.69491e-09
1.56976e-06
4.12104e-06
2.9436e-06
2.4191e-06
2.55522e-06
3.21109e-06
4.44095e-06
6.40092e-06
8.97804e-06
1.05279e-05
9.15829e-06
6.57547e-06
4.6088e-06
3.47673e-06
3.02157e-06
3.15317e-06
3.793e-06
4.8078e-06
6.0866e-06
7.54538e-06
8.94645e-06
9.68249e-06
9.35025e-06
8.75727e-06
9.02398e-06
1.075e-05
1.39323e-05
1.76441e-05
2.07239e-05
2.24498e-05
1.87639e-05
7.57342e-06
2.53345e-06
2.21291e-07
5.33096e-09
1.1665e-06
3.24503e-06
2.73242e-06
2.20358e-06
2.24457e-06
2.7132e-06
3.70695e-06
5.66505e-06
9.436e-06
1.28799e-05
1.37682e-05
1.16362e-05
1.01441e-05
9.33299e-06
8.74377e-06
8.00715e-06
7.07154e-06
6.16793e-06
5.48843e-06
5.07676e-06
4.95325e-06
5.17471e-06
5.68731e-06
6.30414e-06
6.96988e-06
8.01463e-06
1.00395e-05
1.36137e-05
1.84477e-05
2.21112e-05
1.90337e-05
7.88656e-06
2.6195e-06
2.4033e-07
3.31595e-09
2.29921e-06
1.97384e-06
1.95702e-06
2.27199e-06
2.90886e-06
4.00464e-06
5.9229e-06
9.50004e-06
1.50061e-05
1.68648e-05
1.42623e-05
1.12657e-05
9.45898e-06
8.46992e-06
7.93268e-06
7.65286e-06
7.5302e-06
7.49713e-06
7.37801e-06
7.07869e-06
6.7454e-06
6.46114e-06
6.31764e-06
6.45953e-06
6.84884e-06
7.47367e-06
8.65803e-06
1.10553e-05
1.52436e-05
2.01394e-05
1.92524e-05
8.20913e-06
2.70328e-06
2.76849e-07
4.3839e-09
2.11274e-06
2.38886e-06
3.02431e-06
4.22017e-06
6.50532e-06
1.09372e-05
1.64315e-05
1.67696e-05
1.62857e-05
1.25611e-05
1.08016e-05
1.08866e-05
1.24201e-05
1.48498e-05
1.70661e-05
1.77584e-05
1.65106e-05
1.41507e-05
1.16581e-05
9.47242e-06
7.73569e-06
6.54505e-06
5.98361e-06
6.04052e-06
6.53895e-06
7.21977e-06
8.09491e-06
9.73806e-06
1.30852e-05
1.83866e-05
1.90793e-05
7.83137e-06
2.64017e-06
2.89254e-07
4.27651e-09
2.72225e-06
2.33208e-06
2.66135e-06
3.38561e-06
4.60652e-06
6.6944e-06
1.037e-05
1.56921e-05
1.65276e-05
1.45324e-05
1.01635e-05
7.87465e-06
7.16891e-06
7.57264e-06
8.94575e-06
1.11118e-05
1.34089e-05
1.4634e-05
1.39455e-05
1.17647e-05
9.18041e-06
7.00197e-06
5.59609e-06
5.078e-06
5.3981e-06
6.32002e-06
7.50318e-06
8.97443e-06
1.15838e-05
1.66167e-05
1.90745e-05
7.45833e-06
2.53675e-06
2.83321e-07
2.68214e-09
1.84082e-06
1.86681e-06
2.30678e-06
3.13873e-06
4.54834e-06
6.97097e-06
1.09833e-05
1.4408e-05
1.51686e-05
1.5446e-05
1.18067e-05
9.01748e-06
7.43885e-06
6.91104e-06
7.37605e-06
8.95078e-06
1.1704e-05
1.49497e-05
1.68851e-05
1.60697e-05
1.30455e-05
9.54296e-06
6.76688e-06
5.10187e-06
4.56832e-06
5.07985e-06
6.50068e-06
8.72139e-06
1.2025e-05
1.73445e-05
1.91133e-05
7.22246e-06
2.48967e-06
2.73046e-07
2.73598e-09
1.74529e-06
2.18105e-06
2.8247e-06
3.76336e-06
5.10698e-06
7.09737e-06
1.01624e-05
1.42174e-05
1.46662e-05
1.4687e-05
1.10473e-05
8.41506e-06
6.97513e-06
6.36275e-06
6.43665e-06
7.28677e-06
9.14282e-06
1.20617e-05
1.53047e-05
1.71923e-05
1.63411e-05
1.32087e-05
9.51643e-06
6.5677e-06
4.80101e-06
4.23254e-06
4.8154e-06
6.65757e-06
1.02382e-05
1.61636e-05
1.78436e-05
6.95805e-06
2.45968e-06
2.66621e-07
2.38473e-09
1.79077e-06
2.11643e-06
2.54716e-06
3.07883e-06
3.7215e-06
4.57725e-06
5.9475e-06
8.37799e-06
1.12524e-05
1.18901e-05
9.21215e-06
6.93021e-06
5.81663e-06
5.47221e-06
5.69363e-06
6.51104e-06
8.13849e-06
1.07657e-05
1.41489e-05
1.72413e-05
1.84559e-05
1.69919e-05
1.36099e-05
9.83001e-06
6.7887e-06
4.9208e-06
4.2797e-06
4.92238e-06
7.29515e-06
1.2453e-05
1.59118e-05
6.76733e-06
2.45999e-06
2.70099e-07
2.01336e-09
1.52346e-06
1.93431e-06
2.27292e-06
2.57002e-06
2.80502e-06
3.00312e-06
3.31215e-06
4.07891e-06
5.82835e-06
7.8809e-06
7.07275e-06
5.39675e-06
4.53734e-06
4.34447e-06
4.63767e-06
5.41256e-06
6.82017e-06
9.09797e-06
1.22324e-05
1.57515e-05
1.85295e-05
1.93094e-05
1.76888e-05
1.43759e-05
1.06185e-05
7.47352e-06
5.45927e-06
4.72689e-06
5.49713e-06
8.63839e-06
1.39674e-05
6.78004e-06
2.45014e-06
2.78459e-07
2.155e-09
1.81775e-06
2.14977e-06
2.28394e-06
2.28727e-06
2.14846e-06
1.93581e-06
1.82773e-06
2.08352e-06
3.11871e-06
5.43921e-06
6.48874e-06
4.94534e-06
3.9911e-06
3.78213e-06
4.11165e-06
4.94875e-06
6.40804e-06
8.70831e-06
1.18338e-05
1.53418e-05
1.83371e-05
1.98229e-05
1.93156e-05
1.70714e-05
1.38042e-05
1.03711e-05
7.56008e-06
5.87472e-06
5.6664e-06
7.79534e-06
1.35623e-05
6.9786e-06
2.46017e-06
2.7446e-07
1.64871e-09
2.05304e-06
2.55026e-06
2.28768e-06
1.91669e-06
1.55057e-06
1.26828e-06
1.18094e-06
1.4201e-06
2.18512e-06
3.94094e-06
6.75293e-06
6.08305e-06
4.11978e-06
3.27151e-06
3.17914e-06
3.65651e-06
4.74023e-06
6.60245e-06
9.37648e-06
1.26814e-05
1.57102e-05
1.76637e-05
1.80307e-05
1.66911e-05
1.4081e-05
1.10424e-05
8.38554e-06
6.68477e-06
6.44685e-06
8.7763e-06
1.429e-05
6.46241e-06
2.33908e-06
2.39257e-07
2.01451e-09
1.29929e-06
2.35951e-06
2.67831e-06
2.59943e-06
2.47014e-06
2.4551e-06
2.63014e-06
3.04516e-06
3.78167e-06
5.0084e-06
6.86778e-06
8.41241e-06
7.29626e-06
4.75456e-06
3.07203e-06
2.37616e-06
2.40484e-06
3.11957e-06
4.70896e-06
7.41412e-06
1.0842e-05
1.35443e-05
1.44825e-05
1.40443e-05
1.28137e-05
1.11223e-05
9.39131e-06
8.23905e-06
8.48494e-06
1.1524e-05
1.58119e-05
6.52105e-06
2.32756e-06
2.08819e-07
3.33891e-09
8.57483e-07
1.53819e-06
1.89999e-06
2.14676e-06
2.50474e-06
3.0835e-06
3.99535e-06
5.43117e-06
7.58168e-06
9.91727e-06
1.07275e-05
9.82574e-06
8.60035e-06
7.6715e-06
6.78486e-06
5.42618e-06
3.55405e-06
2.04722e-06
1.68252e-06
2.469e-06
4.47802e-06
7.84315e-06
1.1775e-05
1.39743e-05
1.35159e-05
1.18092e-05
1.0193e-05
9.39624e-06
1.01899e-05
1.38017e-05
1.64899e-05
6.60977e-06
2.31217e-06
1.9671e-07
4.88754e-09
1.01017e-06
1.55546e-06
2.05079e-06
2.68631e-06
3.55939e-06
4.78189e-06
6.53121e-06
8.99149e-06
1.19431e-05
1.41613e-05
1.42463e-05
1.22549e-05
9.51034e-06
7.19727e-06
5.6649e-06
4.82732e-06
4.45115e-06
4.12608e-06
3.474e-06
2.76975e-06
2.84768e-06
4.10814e-06
6.52808e-06
9.7408e-06
1.25732e-05
1.37061e-05
1.32921e-05
1.27015e-05
1.34091e-05
1.64393e-05
1.79957e-05
7.51649e-06
2.44296e-06
2.20114e-07
5.89513e-09
1.25457e-06
1.90995e-06
2.65629e-06
3.65317e-06
5.03215e-06
6.96977e-06
9.69531e-06
1.32401e-05
1.66523e-05
1.77318e-05
1.51239e-05
1.07111e-05
7.22415e-06
5.17263e-06
4.10519e-06
3.64243e-06
3.54608e-06
3.59546e-06
3.54898e-06
3.37771e-06
3.42599e-06
4.17626e-06
5.8576e-06
8.28766e-06
1.07894e-05
1.24868e-05
1.31601e-05
1.35287e-05
1.47385e-05
1.75193e-05
1.81668e-05
7.55299e-06
2.44532e-06
2.46321e-07
6.69686e-09
1.61415e-06
2.39324e-06
3.26559e-06
4.29043e-06
5.40084e-06
6.62893e-06
8.22727e-06
1.05069e-05
1.35714e-05
1.63267e-05
1.54465e-05
1.0548e-05
6.3748e-06
4.06295e-06
2.88588e-06
2.36054e-06
2.25783e-06
2.43368e-06
2.74436e-06
3.06492e-06
3.48584e-06
4.34566e-06
5.9885e-06
8.55849e-06
1.16868e-05
1.43552e-05
1.5782e-05
1.63585e-05
1.71341e-05
1.86966e-05
1.76368e-05
7.20749e-06
2.3945e-06
2.5667e-07
5.38767e-09
1.92136e-06
2.20172e-06
2.50438e-06
2.92291e-06
3.61598e-06
4.738e-06
6.39791e-06
8.72396e-06
1.19168e-05
1.57946e-05
1.78338e-05
1.39629e-05
8.05048e-06
4.48233e-06
2.69797e-06
1.87282e-06
1.63232e-06
1.80256e-06
2.27196e-06
2.91614e-06
3.65397e-06
4.57679e-06
5.87239e-06
7.71016e-06
1.00303e-05
1.24134e-05
1.43866e-05
1.59018e-05
1.74379e-05
1.92192e-05
1.73613e-05
6.9169e-06
2.38763e-06
2.63615e-07
3.51585e-09