/*--------------------------------*- C++ -*----------------------------------*\
| =========                 |                                                 |
| \\      /  F ield         | OpenFOAM: The Open Source CFD Toolbox           |
|  \\    /   O peration     | Version:  v1906                                 |
|   \\  /    A nd           | Web:      www.OpenFOAM.com                      |
|    \\/     M anipulation  |                                                 |
\*---------------------------------------------------------------------------*/
FoamFile
{
    version     2.0;
    format      ascii;
    class       volScalarField;
    location    "21";
    object      omega;
}
// * * * * * * * * * * * * * * * * * * * * * * * * * * * * * * * * * * * * * //

dimensions      [0 0 -1 0 0 0 0];


internalField   nonuniform List<scalar> 
78750
(
359.367
14.731
14.93
14.8752
14.8086
14.74
14.6769
14.6193
14.5658
14.516
14.4698
14.4269
14.3872
14.3507
14.3174
14.2877
14.2616
14.2394
14.2212
14.207
14.1962
14.1881
14.1816
14.1756
14.1685
14.159
14.1463
14.1287
14.1052
14.0739
14.0338
13.9834
13.9185
13.8386
357.701
524.626
5.80332
6.25145
6.31547
6.23811
6.12174
6.01379
5.92491
5.85126
5.78949
5.73769
5.69375
5.6553
5.6212
5.59085
5.56377
5.53915
5.51632
5.49465
5.4724
5.44835
5.42215
5.39373
5.36313
5.32982
5.29245
5.2498
5.2006
5.14448
5.07658
4.9865
4.86668
4.71581
4.52666
525.214
524.766
5.07466
5.25383
5.24415
5.15775
5.07552
5.02095
4.9897
4.97338
4.96466
4.96016
4.95759
4.95669
4.95721
4.9589
4.9615
4.96468
4.96802
4.97101
4.97321
4.97411
4.97308
4.96949
4.96276
4.9524
4.93828
4.9206
4.89974
4.87547
4.84572
4.80563
4.74624
4.6599
4.52646
525.81
524.693
4.888
5.066
5.14365
5.16634
5.16278
5.15159
5.13944
5.12721
5.11429
5.10143
5.08909
5.07831
5.07083
5.0676
5.06881
5.07378
5.08106
5.08871
5.09469
5.09734
5.09529
5.08735
5.07216
5.04816
5.0142
4.97017
4.91812
4.86343
4.81279
4.76767
4.71923
4.65011
4.53246
526.074
524.675
4.7917
4.95686
5.05058
5.10502
5.12324
5.11313
5.08324
5.041
4.99232
4.94227
4.89563
4.85766
4.83448
4.83104
4.84793
4.87952
4.91713
4.95269
4.98051
5.00036
5.01257
5.01559
5.00795
4.98708
4.94877
4.89179
4.8185
4.73749
4.66418
4.6122
4.58062
4.54528
4.47227
526.916
524.602
4.73119
4.89832
4.99461
5.05707
5.08524
5.08247
5.05678
5.01712
4.97114
4.92501
4.88382
4.85291
4.83937
4.84903
4.87984
4.92472
4.97461
5.02087
5.05752
5.08522
5.10504
5.11618
5.11787
5.10883
5.08566
5.04438
4.98138
4.89542
4.79429
4.69629
4.61704
4.54958
4.46154
527.247
524.558
4.65871
4.82818
4.92506
4.98907
5.02616
5.03596
5.02081
4.9846
4.93199
4.87102
4.81676
4.78678
4.79133
4.82734
4.88153
4.94015
4.99333
5.0352
5.06458
5.08402
5.09516
5.09834
5.09352
5.07929
5.05386
5.01604
4.96481
4.90039
4.82682
4.75035
4.67645
4.5995
4.49658
527.199
524.519
4.60956
4.77765
4.87177
4.93142
4.96203
4.95864
4.9196
4.85419
4.78696
4.74687
4.75022
4.79482
4.86445
4.94031
5.00922
5.06468
5.10496
5.13164
5.14859
5.15812
5.16093
5.15744
5.14727
5.12874
5.10061
5.06182
5.01188
4.9518
4.88552
4.81691
4.7461
4.6638
4.54631
527.013
524.501
4.57017
4.72929
4.805
4.83353
4.82137
4.77007
4.7032
4.65978
4.66529
4.71907
4.80259
4.89192
4.97078
5.03297
5.07873
5.11065
5.13178
5.14499
5.15203
5.15336
5.14903
5.13868
5.12087
5.09335
5.05527
5.00738
4.95247
4.89624
4.84414
4.79565
4.74433
4.67703
4.56883
527.116
524.502
4.5363
4.66525
4.70775
4.69799
4.65609
4.61908
4.62551
4.6852
4.7806
4.88479
4.97607
5.04709
5.09965
5.13782
5.16524
5.18422
5.1962
5.20233
5.20293
5.1977
5.18624
5.16705
5.13736
5.09532
5.04167
4.98031
4.91854
4.86483
4.81931
4.77636
4.72773
4.66637
4.56884
527.349
524.505
4.49436
4.59219
4.61291
4.59246
4.5735
4.59838
4.67178
4.76995
4.8694
4.9538
5.02004
5.07081
5.11034
5.14103
5.16419
5.18058
5.19092
5.19557
5.19415
5.18593
5.16967
5.14256
5.10076
5.04274
4.97204
4.89904
4.84021
4.80089
4.7725
4.74231
4.69998
4.64376
4.55476
527.705
524.506
4.46459
4.54615
4.56889
4.57301
4.60349
4.6758
4.77014
4.86569
4.95043
5.01941
5.07506
5.12015
5.15652
5.18517
5.20682
5.22212
5.23173
5.2357
5.23334
5.22361
5.20459
5.17239
5.12269
5.05331
4.96828
4.88086
4.81341
4.77187
4.74536
4.71822
4.67876
4.62505
4.54086
528.04
524.508
4.45703
4.53748
4.57524
4.60897
4.6664
4.74334
4.82115
4.89217
4.95502
5.01028
5.05975
5.1036
5.14124
5.17209
5.19623
5.21416
5.22659
5.23339
5.2335
5.22548
5.20671
5.17242
5.11729
5.03815
4.93939
4.83815
4.7656
4.72736
4.70957
4.69091
4.65751
4.60698
4.52636
528.394
524.5
4.45614
4.54677
4.60037
4.65069
4.70981
4.7697
4.82149
4.86814
4.91766
4.97132
5.02754
5.08154
5.12884
5.16734
5.19736
5.22042
5.23806
5.25058
5.25718
5.25645
5.24588
5.22087
5.17484
5.10073
4.99626
4.87246
4.76252
4.69568
4.66861
4.65631
4.63339
4.59049
4.51629
528.704
524.471
4.43671
4.5437
4.60812
4.66034
4.70936
4.74808
4.77458
4.79785
4.83524
4.89315
4.96335
5.03307
5.09276
5.13918
5.17381
5.19996
5.22041
5.23633
5.24771
5.25371
5.25223
5.23938
5.20917
5.15374
5.06547
4.94356
4.80804
4.70035
4.6392
4.61615
4.60024
4.56824
4.50627
528.974
524.44
4.40721
4.52502
4.59515
4.64648
4.68841
4.71476
4.72784
4.74225
4.78011
4.85198
4.93902
5.02067
5.08578
5.13324
5.16691
5.19153
5.211
5.22747
5.24155
5.25276
5.25943
5.25828
5.24401
5.20937
5.14545
5.04449
4.90913
4.77225
4.66494
4.60523
4.57753
4.55019
4.50121
529.214
524.425
4.38675
4.50548
4.57567
4.62144
4.65158
4.66569
4.6752
4.70267
4.76623
4.86118
4.95723
5.03521
5.09055
5.12744
5.15213
5.16996
5.18486
5.19915
5.21362
5.22777
5.24005
5.24752
5.24537
5.22714
5.18453
5.10843
4.99482
4.85981
4.7297
4.6342
4.58138
4.54811
4.50555
529.476
524.424
4.37672
4.48914
4.55255
4.58974
4.61214
4.62966
4.6625
4.72696
4.82157
4.92204
5.00426
5.06156
5.09765
5.11956
5.13362
5.14454
5.15554
5.1685
5.18398
5.20129
5.2188
5.23369
5.24141
5.23589
5.20919
5.15225
5.05915
4.9383
4.80606
4.6904
4.61327
4.56683
4.52032
529.761
524.428
4.36978
4.47349
4.53003
4.5634
4.59041
4.62768
4.69008
4.77662
4.874
4.95838
5.0185
5.05596
5.07682
5.08783
5.09451
5.10089
5.10962
5.12221
5.13911
5.15961
5.18224
5.20434
5.22158
5.22821
5.21652
5.1776
5.10492
5.00215
4.87736
4.75406
4.65962
4.59903
4.54161
529.986
524.43
4.3621
4.45931
4.5147
4.55344
4.59637
4.65752
4.73904
4.82915
4.9146
4.97882
5.01904
5.04008
5.04844
5.0504
5.05096
5.05364
5.06064
5.07314
5.09136
5.1147
5.14189
5.1705
5.19645
5.21433
5.21677
5.19536
5.14377
5.06088
4.94857
4.82383
4.7154
4.63905
4.56515
530.077
524.429
4.35514
4.45041
4.50961
4.55879
4.61849
4.69396
4.77773
4.85675
4.9227
4.96728
4.99117
4.99972
4.99898
4.99454
4.99089
4.99105
4.99681
5.00915
5.02832
5.05397
5.08531
5.12022
5.15478
5.18388
5.20038
5.19645
5.16611
5.1038
5.00698
4.88776
4.772
4.68282
4.59202
530.098
524.425
4.35102
4.44903
4.51527
4.57601
4.6483
4.72854
4.80556
4.86957
4.91723
4.94566
4.95681
4.95573
4.94778
4.93775
4.92966
4.92629
4.92925
4.93962
4.95797
4.98458
5.01935
5.06067
5.10491
5.14667
5.17878
5.19355
5.18402
5.1407
5.05807
4.94405
4.82253
4.72167
4.61542
530.088
524.419
4.35047
4.45549
4.52876
4.59676
4.6732
4.74844
4.81186
4.8578
4.88732
4.90202
4.90371
4.89611
4.88309
4.86837
4.85546
4.84715
4.84526
4.85118
4.86619
4.89143
4.92813
4.97551
5.03024
5.08636
5.13637
5.17259
5.18572
5.16337
5.09793
4.994
4.87301
4.76426
4.64458
530.154
524.411
4.34859
4.46031
4.53897
4.6093
4.68229
4.74849
4.79925
4.83211
4.85027
4.8574
4.85455
4.84354
4.82648
4.80619
4.786
4.76931
4.75888
4.75673
4.76498
4.78593
4.82266
4.87579
4.9422
5.0148
5.08494
5.14372
5.17839
5.17476
5.12373
5.02766
4.90692
4.79206
4.66411
530.257
524.404
4.34564
4.46169
4.54337
4.6127
4.67927
4.73625
4.77703
4.80078
4.81098
4.81174
4.80368
4.78729
4.76359
4.73497
4.70478
4.67704
4.65594
4.64424
4.64425
4.65899
4.69414
4.75284
4.83236
4.92451
5.01945
5.1054
5.16541
5.18439
5.15249
5.07019
4.95591
4.83839
4.70206
530.432
524.401
4.3419
4.45831
4.54022
4.60752
4.66925
4.72085
4.75668
4.77596
4.78128
4.77593
4.76079
4.73631
4.70387
4.66626
4.62723
4.59121
4.56273
4.54492
4.53872
4.54701
4.57803
4.63866
4.72825
4.83778
4.95545
5.06415
5.14351
5.17754
5.15602
5.07973
4.96853
4.85108
4.71575
530.599
524.404
4.34294
4.45926
4.54162
4.60864
4.66896
4.71806
4.74949
4.76179
4.75731
4.7401
4.71321
4.67847
4.63854
4.59748
4.55997
4.52983
4.50843
4.49457
4.48669
4.48702
4.50624
4.55839
4.6505
4.77511
4.91658
5.04622
5.14253
5.19237
5.18616
5.12234
5.01877
4.89941
4.75381
530.892
524.408
4.34263
4.45952
4.54376
4.61135
4.67065
4.71705
4.74336
4.74857
4.73618
4.71153
4.6794
4.64313
4.60664
4.5754
4.55483
4.54685
4.54678
4.54595
4.53865
4.52416
4.51009
4.51843
4.57655
4.69511
4.85644
5.01061
5.11609
5.16069
5.14756
5.08514
4.99141
4.8819
4.74332
531.153
524.404
4.33241
4.45031
4.53662
4.60372
4.6601
4.70372
4.72935
4.73537
4.72403
4.69933
4.6658
4.62851
4.59398
4.57063
4.56658
4.58366
4.61263
4.63767
4.64827
4.63979
4.60799
4.56018
4.52696
4.55278
4.66944
4.85782
5.04249
5.15836
5.18233
5.12769
5.02898
4.90817
4.75537
531.491
524.389
4.3075
4.42192
4.50757
4.57388
4.62708
4.66751
4.69369
4.7029
4.69442
4.66902
4.62985
4.58515
4.54898
4.53517
4.55268
4.59799
4.65458
4.70298
4.73399
4.74761
4.7432
4.71976
4.67965
4.63185
4.60556
4.64968
4.77417
4.92604
5.03459
5.06216
5.01687
4.92586
4.79431
531.673
524.382
4.29495
4.4059
4.48836
4.55053
4.59781
4.63039
4.64707
4.64392
4.6187
4.57418
4.5223
4.48649
4.48438
4.52509
4.60106
4.68848
4.76089
4.80447
4.81994
4.81032
4.77772
4.73587
4.7107
4.71293
4.7338
4.77097
4.83325
4.92097
5.00037
5.03057
5.0015
4.93163
4.82887
531.874
524.378
4.28911
4.39663
4.47281
4.52573
4.56091
4.57902
4.57913
4.55938
4.52258
4.47976
4.45326
4.46316
4.51551
4.60024
4.69397
4.7748
4.83246
4.86529
4.87336
4.85431
4.80401
4.73057
4.67291
4.67699
4.74573
4.83312
4.90332
4.96216
5.00973
5.0248
4.99678
4.9353
4.83653
532.192
524.366
4.26331
4.3604
4.42872
4.47503
4.50535
4.52139
4.5218
4.50392
4.47194
4.44157
4.43696
4.47126
4.54054
4.6302
4.72348
4.80801
4.87729
4.92932
4.9623
4.96995
4.94008
4.85785
4.73193
4.63086
4.64198
4.76604
4.90616
4.99765
5.03402
5.0268
4.98605
4.91688
4.80618
532.565
524.36
4.25979
4.35541
4.4191
4.45544
4.46756
4.45582
4.42374
4.39117
4.38654
4.42993
4.51865
4.63497
4.75628
4.86291
4.94317
4.99655
5.02852
5.0441
5.04659
5.03723
5.01404
4.96819
4.88593
4.764
4.65469
4.65402
4.76762
4.90626
4.99328
5.01071
4.97588
4.90484
4.79387
532.791
524.377
4.26893
4.34673
4.37807
4.37547
4.35386
4.34053
4.36629
4.44521
4.56723
4.70504
4.83069
4.92556
4.98554
5.01872
5.03563
5.04415
5.04842
5.04937
5.04563
5.03408
5.01015
4.96778
4.90084
4.80616
4.69824
4.63195
4.66225
4.77708
4.89605
4.95605
4.95031
4.8972
4.8051
532.848
524.399
4.27267
4.334
4.36001
4.37096
4.39793
4.46681
4.57751
4.70107
4.80526
4.8768
4.92073
4.94894
4.97133
4.9933
5.01644
5.04022
5.06323
5.08365
5.09913
5.10615
5.09959
5.07228
5.01663
4.92765
4.81153
4.70536
4.65701
4.70164
4.80479
4.88956
4.91445
4.88629
4.81594
532.821
524.409
4.27884
4.33865
4.37372
4.40294
4.44709
4.51745
4.60806
4.6992
4.77991
4.8488
4.90665
4.95427
4.9931
5.02508
5.05226
5.07624
5.09791
5.11724
5.13332
5.14404
5.14599
5.13363
5.0998
5.0365
4.94078
4.83159
4.73941
4.71192
4.76305
4.84113
4.88426
4.8778
4.82565
532.686
524.399
4.2773
4.34468
4.38855
4.42504
4.46893
4.53509
4.62665
4.72339
4.80856
4.87476
4.92276
4.95734
4.98376
5.00618
5.02735
5.04864
5.07022
5.09133
5.11051
5.12529
5.13241
5.12735
5.10542
5.06206
4.99638
4.9169
4.83335
4.77782
4.78124
4.8282
4.86583
4.86556
4.81868
532.553
524.383
4.25953
4.32824
4.37251
4.40718
4.44668
4.5064
4.59181
4.68596
4.77036
4.8376
4.88858
4.92773
4.95977
4.98839
5.01604
5.04404
5.07247
5.10045
5.12672
5.14876
5.16294
5.16428
5.14773
5.10921
5.04996
4.98023
4.90611
4.84682
4.82696
4.8462
4.86841
4.86251
4.81061
532.471
524.374
4.24227
4.3101
4.3596
4.40714
4.46677
4.54579
4.63991
4.72867
4.79897
4.84938
4.88454
4.91048
4.93222
4.95322
4.97597
5.00176
5.03036
5.06058
5.09145
5.12151
5.1476
5.16489
5.16783
5.1509
5.11207
5.05403
4.98126
4.91186
4.87166
4.86601
4.87065
4.85612
4.8006
532.431
524.372
4.23687
4.30787
4.36547
4.42509
4.49446
4.56972
4.64315
4.70636
4.75574
4.79343
4.82357
4.84987
4.87491
4.90038
4.92788
4.9584
4.99152
5.02602
5.06078
5.09493
5.12646
5.15131
5.1651
5.16392
5.14627
5.10872
5.04962
4.98164
4.92892
4.90389
4.89179
4.86596
4.80162
532.419
524.371
4.23184
4.3035
4.36316
4.42395
4.4906
4.55763
4.62002
4.67514
4.72155
4.75933
4.78985
4.8151
4.83741
4.85941
4.88375
4.91222
4.94535
4.98261
5.02296
5.06572
5.10904
5.14821
5.17779
5.19285
5.19062
5.16508
5.1122
5.0403
4.97152
4.9258
4.89911
4.86632
4.79963
532.379
524.37
4.22892
4.3007
4.36233
4.42498
4.4913
4.55546
4.61231
4.65992
4.69799
4.72703
4.74861
4.76527
4.77989
4.79545
4.81471
4.83965
4.87114
4.90901
4.95248
5.00209
5.05779
5.11526
5.16844
5.21151
5.2372
5.23473
5.1973
5.12877
5.04758
4.97768
4.92859
4.88208
4.80808
532.377
524.372
4.22887
4.30114
4.36438
4.42815
4.49344
4.55423
4.60487
4.64377
4.67187
4.69094
4.70334
4.71203
4.72019
4.7308
4.74654
4.76944
4.8005
4.83973
4.8867
4.94298
5.01011
5.0843
5.15941
5.22791
5.27774
5.29618
5.2743
5.21229
5.12572
5.04091
4.97597
4.91796
4.83362
532.188
524.372
4.22841
4.3014
4.36604
4.42998
4.49239
4.54722
4.5891
4.61699
4.63277
4.63964
4.64104
4.64053
4.64148
4.64654
4.65799
4.67776
4.70696
4.74585
4.79507
4.85789
4.9378
5.033
5.13816
5.24149
5.32611
5.37631
5.37938
5.32895
5.23361
5.12242
5.02932
4.95454
4.8618
531.961
524.37
4.22613
4.29945
4.36388
4.42492
4.48131
4.52814
4.56085
4.57884
4.58434
4.58146
4.57481
4.56854
4.56593
4.56901
4.57941
4.59864
4.62757
4.66658
4.71777
4.78632
4.8763
4.98806
5.11665
5.24656
5.35925
5.4385
5.47123
5.44782
5.36795
5.2513
5.13702
5.03654
4.91535
532.01
524.366
4.2173
4.28917
4.35098
4.4061
4.45339
4.48919
4.51045
4.51717
4.51219
4.50069
4.48868
4.48058
4.47851
4.48296
4.49464
4.51465
4.54399
4.58395
4.63853
4.71457
4.81775
4.95057
5.10444
5.25847
5.39091
5.48555
5.53169
5.52213
5.45478
5.3418
5.21766
5.09941
4.96004
531.973
524.357
4.19076
4.24963
4.29951
4.34197
4.37663
4.40106
4.41397
4.41696
4.41416
4.41065
4.41007
4.41385
4.42187
4.43365
4.44945
4.47032
4.49842
4.53711
4.59136
4.66962
4.78336
4.93888
5.12289
5.30495
5.45733
5.56471
5.61947
5.61645
5.55464
5.44563
5.32183
5.19531
5.03482
532.206
524.351
4.17619
4.22529
4.26411
4.29497
4.31909
4.33648
4.34791
4.35549
4.36189
4.36933
4.37881
4.39035
4.40401
4.42001
4.439
4.46241
4.49184
4.52937
4.57947
4.65156
4.76187
4.92553
5.13696
5.35678
5.53424
5.64183
5.67719
5.64721
5.56225
5.44136
5.31383
5.17939
5.00582
532.868
524.348
4.16776
4.2119
4.2452
4.27037
4.28911
4.30281
4.31337
4.32287
4.33305
4.34486
4.35908
4.37681
4.39841
4.42431
4.45542
4.49175
4.53291
4.57744
4.62463
4.67724
4.74534
4.84855
5.00821
5.21973
5.43932
5.61091
5.7012
5.70541
5.63581
5.5158
5.37724
5.22619
5.04718
533.2
524.343
4.15589
4.19478
4.2243
4.24631
4.26279
4.27564
4.28718
4.30001
4.31622
4.33786
4.36697
4.40515
4.45438
4.51354
4.57723
4.63873
4.69391
4.74344
4.79145
4.84254
4.90178
4.97648
5.07553
5.20419
5.35407
5.49949
5.60596
5.6465
5.6134
5.52325
5.40639
5.2742
5.11217
533.586
524.344
4.15669
4.19525
4.22336
4.24205
4.25405
4.26498
4.28148
4.30723
4.34262
4.38721
4.44034
4.5012
4.56578
4.62937
4.68784
4.73785
4.77929
4.81411
4.84603
4.88111
4.93006
5.0107
5.13878
5.30796
5.48079
5.61384
5.68535
5.69206
5.63877
5.53672
5.40364
5.24832
5.07487
534.432
524.354
4.16301
4.19694
4.21662
4.22826
4.24382
4.27222
4.31146
4.35172
4.38642
4.41673
4.44743
4.48374
4.53069
4.59228
4.66994
4.76098
4.85755
4.94606
5.01376
5.05648
5.0759
5.08309
5.10895
5.19296
5.34109
5.50544
5.62578
5.67416
5.65029
5.5667
5.44076
5.27972
5.09461
534.591
524.363
4.17273
4.21028
4.23819
4.26307
4.29358
4.3331
4.37345
4.40429
4.42067
4.42248
4.41086
4.38732
4.35712
4.33164
4.32687
4.35964
4.44158
4.57362
4.745
4.93326
5.10872
5.24547
5.33468
5.39167
5.44919
5.52631
5.60319
5.64385
5.62725
5.55531
5.43677
5.27521
5.08414
534.693
524.356
4.15596
4.18687
4.21138
4.23458
4.26166
4.29607
4.33645
4.37934
4.42087
4.45855
4.49306
4.52634
4.55807
4.58421
4.59926
4.59897
4.58344
4.56001
4.54553
4.56549
4.64554
4.79257
4.98131
5.16742
5.32047
5.43916
5.5311
5.59146
5.60178
5.55819
5.4648
5.31704
5.12507
534.695
524.349
4.16029
4.20902
4.26158
4.31886
4.37803
4.43478
4.48524
4.5264
4.55638
4.57724
4.5927
4.60506
4.61506
4.62265
4.62768
4.63031
4.63145
4.63253
4.63315
4.63534
4.6524
4.70802
4.82184
4.98544
5.16087
5.31228
5.42864
5.51239
5.55319
5.54174
5.47954
5.3601
5.19048
534.671
524.354
4.20934
4.2993
4.38318
4.45477
4.50926
4.54488
4.56478
4.57525
4.58156
4.5884
4.60058
4.62132
4.64985
4.68141
4.71052
4.73379
4.75016
4.75853
4.75757
4.7488
4.74058
4.75165
4.80969
4.93263
5.10113
5.26492
5.38793
5.4702
5.51384
5.51362
5.46873
5.37166
5.22167
534.639
524.354
4.18884
4.25712
4.32172
4.38214
4.43812
4.4871
4.52537
4.55178
4.56921
4.58051
4.58825
4.59709
4.61362
4.6428
4.68414
4.73146
4.77669
4.81402
4.83764
4.84374
4.83262
4.81333
4.81154
4.86739
5.00475
5.19024
5.35167
5.44955
5.48684
5.47896
5.43608
5.35193
5.21404
534.546
524.35
4.16091
4.21473
4.27265
4.33248
4.38939
4.43836
4.47676
4.50597
4.52907
4.54798
4.56424
4.57931
4.5957
4.61933
4.65746
4.7134
4.78218
4.85001
4.90409
4.93806
4.94778
4.93094
4.89555
4.87376
4.92027
5.06686
5.26774
5.43281
5.50814
5.50577
5.45649
5.36288
5.20969
534.461
524.351
4.18202
4.25528
4.32656
4.38945
4.43823
4.47131
4.49166
4.50451
4.51483
4.52566
4.53895
4.55614
4.57767
4.60473
4.64124
4.69313
4.76398
4.84658
4.92494
4.98801
5.02913
5.04226
5.02202
4.97356
4.93005
4.95339
5.08269
5.27289
5.42158
5.4741
5.45024
5.36379
5.20426
534.239
524.35
4.17139
4.23156
4.28517
4.32818
4.35844
4.37736
4.38955
4.40062
4.41465
4.43356
4.45861
4.49105
4.53072
4.57725
4.63193
4.69813
4.78074
4.87564
4.96907
5.05085
5.11493
5.15619
5.16758
5.14145
5.07982
5.01279
5.00187
5.09167
5.24257
5.35475
5.38601
5.34004
5.20459
533.822
524.35
4.16424
4.21836
4.26427
4.29698
4.31359
4.31632
4.31293
4.31354
4.32492
4.34716
4.37815
4.41804
4.46729
4.52606
4.59484
4.67473
4.76858
4.87761
4.98795
5.08881
5.17417
5.24038
5.28315
5.295
5.26669
5.19654
5.10862
5.05936
5.09569
5.18343
5.24843
5.25754
5.18342
533.431
524.351
4.16761
4.22038
4.25961
4.27955
4.27883
4.26412
4.24931
4.24928
4.27052
4.307
4.34918
4.39518
4.44852
4.51393
4.59507
4.6921
4.8027
4.92505
5.04548
5.15404
5.24723
5.32386
5.38214
5.41684
5.41935
5.38027
5.29887
5.20344
5.15235
5.17493
5.22468
5.24595
5.18441
533.34
524.35
4.15365
4.19241
4.21841
4.22972
4.22663
4.21631
4.21276
4.22974
4.26973
4.32057
4.36613
4.40181
4.43443
4.47735
4.54582
4.64877
4.78287
4.93432
5.08554
5.2151
5.31902
5.40037
5.4601
5.49557
5.49985
5.46469
5.38737
5.2867
5.21174
5.19906
5.22033
5.21783
5.12386
533.698
524.353
4.14528
4.17952
4.20705
4.22939
4.24983
4.2736
4.30585
4.34867
4.39952
4.4511
4.49196
4.51049
4.50254
4.47413
4.44597
4.45065
4.51836
4.66292
4.86764
5.08527
5.26295
5.38589
5.46528
5.51218
5.52911
5.51349
5.46376
5.39069
5.32483
5.28999
5.27021
5.21844
5.0715
534.11
524.358
4.1574
4.20532
4.25767
4.31968
4.39339
4.47668
4.56398
4.64713
4.71736
4.76803
4.79768
4.80821
4.80075
4.77303
4.71762
4.62529
4.50156
4.39925
4.41396
4.59549
4.89195
5.18358
5.3891
5.49968
5.5365
5.52064
5.4689
5.39966
5.33589
5.28997
5.24649
5.16626
5.00431
534.506
524.364
4.1943
4.28887
4.40344
4.52982
4.65424
4.76477
4.85304
4.91408
4.94743
4.95722
4.94891
4.92641
4.89281
4.85266
4.81204
4.77402
4.7304
4.6615
4.56579
4.50055
4.56416
4.7826
5.06589
5.309
5.46434
5.53177
5.52844
5.47703
5.40543
5.33418
5.26221
5.16189
5.00911
534.629
524.369
4.26321
4.42064
4.57932
4.71581
4.81855
4.88767
4.9269
4.94089
4.93548
4.91564
4.88288
4.83619
4.77635
4.70991
4.64754
4.5986
4.56611
4.54511
4.52851
4.52391
4.56553
4.70008
4.92173
5.16032
5.34926
5.46151
5.49832
5.47491
5.41509
5.34013
5.25947
5.15791
5.03106
534.789
524.372
4.33569
4.52015
4.6546
4.73729
4.79106
4.83531
4.8737
4.90134
4.91362
4.90876
4.8856
4.84124
4.77409
4.69141
4.60845
4.54163
4.4993
4.48064
4.48714
4.52521
4.60803
4.75559
4.96519
5.19238
5.38075
5.49871
5.54215
5.52162
5.45246
5.35604
5.25156
5.14087
5.0376
534.752
524.369
4.28659
4.41594
4.50478
4.57213
4.64085
4.71678
4.79068
4.85096
4.89182
4.91217
4.9104
4.88304
4.82307
4.73077
4.62144
4.5263
4.47313
4.46287
4.48353
4.53433
4.62457
4.76469
4.94984
5.15452
5.3394
5.47199
5.54046
5.5443
5.49257
5.4039
5.29947
5.18871
5.08484
534.637
524.362
4.20501
4.27713
4.32465
4.3608
4.4066
4.47488
4.55941
4.64382
4.71646
4.77327
4.81238
4.82945
4.81466
4.75164
4.63376
4.49234
4.39762
4.39741
4.47178
4.58003
4.71901
4.90033
5.0995
5.28157
5.42972
5.53511
5.58837
5.58577
5.53186
5.43901
5.32174
5.1926
5.07145
534.586
524.375
4.15732
4.2021
4.25971
4.33802
4.43219
4.52489
4.60095
4.65682
4.69789
4.73165
4.76248
4.78833
4.80008
4.78121
4.7035
4.55064
4.38806
4.33528
4.4249
4.58499
4.75224
4.94657
5.16899
5.36364
5.49328
5.56648
5.59479
5.58282
5.53367
5.45277
5.34377
5.21074
5.06958
534.353
524.375
4.22086
4.35015
4.49951
4.63051
4.71014
4.73819
4.73859
4.73358
4.72966
4.72335
4.71252
4.69732
4.67442
4.63344
4.55821
4.44078
4.3212
4.30996
4.4721
4.71273
4.89853
5.02972
5.18843
5.40265
5.60928
5.73939
5.77962
5.7484
5.66537
5.545
5.39391
5.2188
5.03055
534.225
524.384
4.28501
4.43216
4.54846
4.59316
4.57734
4.5582
4.58094
4.63889
4.69536
4.72829
4.73777
4.73058
4.70943
4.6701
4.60104
4.4939
4.36859
4.30505
4.41835
4.72811
5.09591
5.36677
5.47788
5.47387
5.45066
5.47916
5.54733
5.59619
5.59231
5.52959
5.40747
5.22791
5.0039
534.279
524.365
4.17443
4.2151
4.22754
4.21614
4.20544
4.22539
4.29109
4.39233
4.50289
4.5965
4.65941
4.69601
4.72213
4.75014
4.77758
4.77842
4.71011
4.54708
4.33681
4.21322
4.28866
4.57171
4.99096
5.43883
5.73507
5.81373
5.75798
5.6545
5.54654
5.43803
5.31226
5.14737
4.93507
534.317
524.359
4.14348
4.17912
4.2125
4.25173
4.30558
4.37664
4.45732
4.53373
4.59402
4.63358
4.65351
4.65637
4.64407
4.62068
4.60286
4.62511
4.71366
4.83949
4.91511
4.86572
4.68399
4.44502
4.29355
4.36346
4.6807
5.11685
5.48132
5.65011
5.6609
5.58349
5.44988
5.26504
5.03637
534.148
524.365
4.14397
4.18324
4.23015
4.28916
4.35914
4.43432
4.50844
4.57794
4.64068
4.69235
4.72624
4.73819
4.72944
4.70401
4.67287
4.65298
4.65445
4.67606
4.71186
4.75052
4.7651
4.71616
4.58106
4.39306
4.27834
4.40495
4.79807
5.2308
5.49533
5.5827
5.54413
5.40611
5.20126
534.128
524.366
4.15314
4.1994
4.25119
4.30875
4.37063
4.438
4.51221
4.59075
4.6655
4.72503
4.7621
4.77694
4.77112
4.75054
4.73209
4.73785
4.77978
4.84613
4.90898
4.94382
4.93831
4.88842
4.78849
4.63299
4.42495
4.25167
4.31727
4.70086
5.14698
5.42284
5.5131
5.45715
5.29332
534.048
524.365
4.15446
4.20284
4.25891
4.32898
4.41797
4.52427
4.63838
4.74574
4.83169
4.88778
4.91515
4.91823
4.9016
4.87258
4.83969
4.8125
4.80619
4.83451
4.89483
4.96416
5.01199
5.01473
4.95596
4.831
4.64079
4.41039
4.26233
4.40541
4.81643
5.20736
5.41356
5.4417
5.31256
533.748
524.369
4.16907
4.24339
4.34127
4.46317
4.59923
4.73225
4.84356
4.91896
4.95484
4.95916
4.94063
4.90525
4.86487
4.83602
4.83006
4.84969
4.89243
4.95462
5.03072
5.11013
5.1766
5.21069
5.1915
5.09919
4.92205
4.67294
4.43724
4.40544
4.68366
5.06455
5.30421
5.36835
5.25421
533.262
524.376
4.21454
4.33294
4.46988
4.60965
4.73274
4.8255
4.886
4.92231
4.94358
4.95382
4.95401
4.94601
4.93576
4.93252
4.94482
4.97579
5.022
5.07746
5.13823
5.20233
5.26544
5.31702
5.33934
5.3084
5.19638
4.98954
4.72904
4.56057
4.6628
4.96346
5.18584
5.24723
5.13505
532.942
524.378
4.2143
4.31302
4.40562
4.48521
4.55587
4.62855
4.71152
4.80276
4.88953
4.9571
4.99875
5.01283
4.99604
4.95408
4.90883
4.89089
4.92326
5.00176
5.10049
5.19704
5.28191
5.35155
5.39991
5.41392
5.37163
5.24829
5.04298
4.82701
4.75329
4.88664
5.05132
5.11123
5.02969
532.833
524.371
4.16872
4.22275
4.27356
4.33032
4.40205
4.49114
4.59393
4.70308
4.80884
4.89935
4.9669
5.01037
5.0279
5.01344
4.95828
4.86919
4.79696
4.81061
4.92311
5.0849
5.24468
5.37888
5.48018
5.54036
5.54408
5.47032
5.30606
5.08298
4.9082
4.89055
4.96744
5.0072
4.95452
532.951
524.374
4.16022
4.22255
4.30888
4.42475
4.56361
4.71027
4.84891
4.96331
5.04025
5.07707
5.08199
5.06117
5.02018
4.98132
4.961
4.92982
4.8595
4.79741
4.82479
4.95143
5.12356
5.29098
5.43302
5.5417
5.60519
5.60324
5.51408
5.33697
5.12959
4.99323
4.96404
4.96215
4.93116
533.069
524.395
4.2416
4.39098
4.58148
4.78881
4.97823
5.12443
5.21436
5.23943
5.21396
5.15672
5.08652
5.01418
4.94174
4.88507
4.86683
4.89329
4.95687
5.04865
5.16009
5.27884
5.3975
5.51025
5.61135
5.69237
5.73995
5.73595
5.6622
5.51264
5.31613
5.14289
5.04446
4.99046
4.94699
533.312
524.436
4.38478
4.63872
4.89157
5.08172
5.17433
5.17016
5.09285
4.95685
4.79809
4.68599
4.68562
4.79159
4.93141
5.04858
5.13869
5.215
5.28782
5.36314
5.44409
5.52849
5.6133
5.69449
5.76649
5.82079
5.84527
5.82532
5.74763
5.60822
5.42552
5.24735
5.11764
5.02474
4.94903
533.67
524.474
4.50901
4.78288
4.96991
5.0481
5.05891
5.04658
5.02542
4.99843
4.96656
4.93904
4.93744
4.975
5.04141
5.11891
5.19854
5.27927
5.36228
5.44815
5.53648
5.62536
5.71157
5.79093
5.85763
5.90368
5.91866
5.8914
5.8128
5.68157
5.51212
5.33848
5.19198
5.06412
4.94217
534.064
524.473
4.46452
4.67757
4.84023
4.97115
5.07531
5.13991
5.15428
5.11547
5.02397
4.90152
4.80728
4.7999
4.88376
5.01386
5.14647
5.26587
5.3751
5.47965
5.5813
5.6788
5.76919
5.84853
5.91139
5.95061
5.95761
5.92412
5.84452
5.71978
5.56198
5.39574
5.23898
5.08337
4.92265
534.508
524.5
4.4676
4.68733
4.86311
4.97961
5.03865
5.05519
5.04161
5.00221
4.93757
4.84936
4.75759
4.71763
4.77621
4.91476
5.07653
5.2232
5.34947
5.46407
5.57314
5.67686
5.77196
5.85393
5.91727
5.95555
5.96157
5.92887
5.85371
5.73793
5.59147
5.43135
5.26678
5.08901
4.89659
534.691
524.518
4.49634
4.70513
4.85031
4.9495
5.02506
5.07846
5.10072
5.08504
5.0283
4.93103
4.81062
4.71852
4.71943
4.83306
5.01273
5.19586
5.35012
5.47675
5.58699
5.68595
5.77288
5.84525
5.89961
5.93118
5.93402
5.90258
5.83338
5.72702
5.58984
5.43254
5.25939
5.06466
4.8529
534.695
524.477
4.40248
4.57205
4.71397
4.83768
4.93947
5.01145
5.0505
5.05553
5.02528
4.95864
4.8586
4.74905
4.68719
4.72946
4.8765
5.07314
5.25962
5.40863
5.52812
5.63237
5.72516
5.80196
5.85762
5.88792
5.8898
5.86043
5.79747
5.70115
5.57526
5.42589
5.25355
5.05201
4.82379
534.47
524.45
4.36101
4.53189
4.68169
4.80681
4.9082
4.99038
5.05434
5.095
5.10424
5.07481
5.00241
4.88831
4.75672
4.66849
4.68502
4.81911
5.02899
5.24858
5.42257
5.53835
5.61666
5.67928
5.73517
5.77931
5.80102
5.79025
5.74395
5.66206
5.5481
5.40813
5.24319
5.04404
4.80421
534.155
524.409
4.30338
4.46504
4.60973
4.72569
4.81416
4.88533
4.94875
5.00868
5.06258
5.10108
5.1101
5.07511
4.9849
4.84152
4.68435
4.58366
4.59269
4.72654
4.95845
5.22869
5.45977
5.60571
5.67273
5.69054
5.68598
5.67064
5.63977
5.58303
5.49432
5.37599
5.22828
5.0394
4.79673
533.82
524.396
4.29375
4.43752
4.54805
4.63135
4.70194
4.76851
4.83161
4.8902
4.94588
5.00194
5.05964
5.11398
5.15129
5.15036
5.08753
4.94973
4.7598
4.58241
4.48377
4.5076
4.67061
4.9528
5.27877
5.54551
5.68696
5.71775
5.68011
5.60701
5.51513
5.4105
5.28883
5.12377
4.87236
533.423
524.383
4.21164
4.30008
4.3822
4.46472
4.55004
4.63546
4.71721
4.79203
4.8568
4.90946
4.95061
4.98421
5.01712
5.05717
5.10719
5.15559
5.17517
5.13516
5.01625
4.82669
4.6159
4.46385
4.45291
4.63043
4.95878
5.31684
5.55378
5.62786
5.58593
5.47613
5.33331
5.15872
4.91579
533.113
524.381
4.19059
4.27085
4.35186
4.43246
4.51038
4.58473
4.65641
4.7264
4.7944
4.85893
4.91816
4.96992
5.01131
5.0389
5.05054
5.04761
5.03692
5.02966
5.03492
5.04746
5.04178
4.98423
4.85828
4.69419
4.58179
4.64154
4.9105
5.24162
5.45223
5.49855
5.42453
5.2685
5.03209
533.041
524.38
4.18114
4.25579
4.33094
4.40699
4.48466
4.56472
4.64664
4.72777
4.80419
4.87218
4.9294
4.97502
5.00916
5.03223
5.04476
5.04723
5.03976
5.02367
5.00375
4.98794
4.98262
4.99044
5.00777
5.01154
4.96367
4.86181
4.81019
4.94658
5.20513
5.4052
5.46673
5.39339
5.2007
532.947
524.383
4.18107
4.25552
4.33308
4.41503
4.50108
4.58902
4.67509
4.75509
4.82566
4.88473
4.9311
4.96359
4.98021
4.97863
4.95772
4.91857
4.8653
4.80967
4.7737
4.77785
4.81962
4.8796
4.9486
5.03446
5.10269
5.09214
5.00123
4.95669
5.07408
5.26678
5.38283
5.38794
5.33035
533.022
524.394
4.20024
4.28885
4.38349
4.48179
4.57946
4.67237
4.75746
4.83245
4.89534
4.94414
4.97617
4.98719
4.9713
4.92314
4.84224
4.7322
4.61161
4.53187
4.55238
4.68774
4.88866
5.08689
5.25304
5.38617
5.45075
5.4088
5.29263
5.22253
5.27397
5.36902
5.42073
5.42392
5.37575
533.242
524.399
4.20762
4.2982
4.38913
4.47637
4.55929
4.63964
4.71704
4.78756
4.84629
4.88927
4.9125
4.90982
4.87258
4.79333
4.67032
4.53097
4.47541
4.60932
4.89405
5.16686
5.30756
5.33871
5.36022
5.46084
5.62271
5.74631
5.78488
5.76891
5.73911
5.69091
5.60464
5.46512
5.24621
533.984
524.397
4.19941
4.28144
4.36381
4.44921
4.54041
4.63401
4.72085
4.79326
4.84944
4.89148
4.92095
4.93523
4.9245
4.87101
4.75529
4.57106
4.36496
4.28106
4.45627
4.84643
5.28529
5.62128
5.78115
5.79703
5.74876
5.71434
5.73232
5.76887
5.76821
5.70586
5.5694
5.34698
5.04022
534.778
524.392
4.18379
4.25858
4.33922
4.42595
4.51425
4.59656
4.66745
4.72609
4.77402
4.81267
4.84339
4.86857
4.89127
4.9106
4.91354
4.86983
4.73978
4.50484
4.24093
4.13012
4.25575
4.52129
4.96371
5.41883
5.79914
6.01381
6.04362
5.95416
5.81653
5.65306
5.44997
5.19654
4.90626
534.942
524.39
4.18192
4.2577
4.33782
4.41852
4.49517
4.56522
4.62876
4.68687
4.73982
4.78659
4.82523
4.85359
4.86991
4.87419
4.87015
4.86526
4.86456
4.85286
4.78417
4.61283
4.36117
4.15441
4.14589
4.20839
4.47175
4.88519
5.36792
5.75302
5.90259
5.86019
5.68615
5.41459
5.09231
534.818
524.389
4.1749
4.2419
4.30851
4.37322
4.43623
4.499
4.56226
4.62515
4.68552
4.74078
4.78889
4.82892
4.86071
4.88445
4.89943
4.90367
4.89544
4.87552
4.84906
4.81883
4.77
4.66572
4.47791
4.24229
4.11175
4.18804
4.25817
4.65811
5.19017
5.55423
5.66982
5.57319
5.32122
534.615
524.39
4.1716
4.23481
4.29859
4.3639
4.43179
4.50201
4.57251
4.6405
4.70349
4.7597
4.808
4.84761
4.87817
4.89979
4.91281
4.9179
4.91622
4.90821
4.89291
4.86728
4.82715
4.76785
4.6815
4.55387
4.36824
4.14021
4.13633
4.13692
4.46476
4.93966
5.29221
5.43516
5.44558
534.694
524.394
4.17418
4.23779
4.30317
4.37018
4.43795
4.50491
4.56967
4.63165
4.69067
4.74613
4.79678
4.8409
4.87708
4.90435
4.92189
4.92885
4.92493