/*--------------------------------*- C++ -*----------------------------------*\
| =========                 |                                                 |
| \\      /  F ield         | OpenFOAM: The Open Source CFD Toolbox           |
|  \\    /   O peration     | Version:  v1906                                 |
|   \\  /    A nd           | Web:      www.OpenFOAM.com                      |
|    \\/     M anipulation  |                                                 |
\*---------------------------------------------------------------------------*/
FoamFile
{
    version     2.0;
    format      ascii;
    class       volVectorField;
    location    "21";
    object      U;
}
// * * * * * * * * * * * * * * * * * * * * * * * * * * * * * * * * * * * * * //

dimensions      [0 1 -1 0 0 0 0];


internalField   nonuniform List<vector> 
78750
(
(-0.0387111 -0.0230343 -0.00734124)
(-0.0278166 -0.034242 -0.0116582)
(-0.0241898 -0.0337111 -0.0132337)
(-0.0202736 -0.0322509 -0.0129967)
(-0.0152578 -0.0297714 -0.011844)
(-0.01095 -0.0273386 -0.010585)
(-0.00676655 -0.0250262 -0.00929683)
(-0.00283152 -0.0228537 -0.00800546)
(0.000793144 -0.0207837 -0.00671324)
(0.00410933 -0.0187698 -0.00542281)
(0.00710711 -0.0167912 -0.00413776)
(0.00978648 -0.0148483 -0.00285788)
(0.0121555 -0.0129578 -0.00158353)
(0.0142297 -0.0111447 -0.000319096)
(0.0160304 -0.00943763 0.000925081)
(0.0175835 -0.00786487 0.00213286)
(0.0189189 -0.00645125 0.00328428)
(0.0200605 -0.00521378 0.00435824)
(0.0210257 -0.00415934 0.00533241)
(0.0218349 -0.00328297 0.00619598)
(0.0225068 -0.00256592 0.00694845)
(0.0230461 -0.00197344 0.00759893)
(0.0234448 -0.00145401 0.00816527)
(0.0236811 -0.00094266 0.00867248)
(0.023726 -0.000366869 0.00916167)
(0.0235363 0.000329765 0.00966609)
(0.0230597 0.00118618 0.0102046)
(0.0222417 0.00223746 0.0108121)
(0.0210071 0.00350784 0.0115032)
(0.0192762 0.00499311 0.0123084)
(0.0169643 0.00669566 0.0132024)
(0.0139546 0.00877293 0.0140026)
(0.0100985 0.0114664 0.0140121)
(0.00557164 0.0135947 0.0117521)
(0.00134433 0.00993452 0.00571681)
(-0.00265083 0.0156676 -0.00722305)
(-0.00664684 -0.0119427 -0.0287685)
(-0.0118169 -0.0269371 -0.0394663)
(-0.0154115 -0.030919 -0.0423606)
(-0.0179779 -0.0291109 -0.0415594)
(-0.0197737 -0.0256692 -0.0392719)
(-0.0208548 -0.0229101 -0.0367104)
(-0.0212564 -0.0208634 -0.0342216)
(-0.0211489 -0.0191394 -0.0318018)
(-0.0206505 -0.0175262 -0.0294387)
(-0.0198151 -0.0159803 -0.0271749)
(-0.0187139 -0.0145139 -0.0250212)
(-0.0174091 -0.0131649 -0.022968)
(-0.0159198 -0.0119725 -0.0210172)
(-0.0142576 -0.0109682 -0.0191797)
(-0.01244 -0.0101704 -0.017468)
(-0.0104906 -0.00957287 -0.0158906)
(-0.00843801 -0.00913996 -0.0144471)
(-0.00631464 -0.00881233 -0.0131267)
(-0.00415474 -0.00851873 -0.0119082)
(-0.00199177 -0.00818402 -0.0107686)
(0.00013926 -0.00772338 -0.00968778)
(0.00218822 -0.00703869 -0.00864433)
(0.00409719 -0.00600987 -0.00760232)
(0.00584604 -0.0045504 -0.00650153)
(0.00737983 -0.00264569 -0.00529562)
(0.00859557 -0.000315083 -0.00397403)
(0.00941202 0.0024307 -0.00252729)
(0.00979203 0.00563353 -0.000926197)
(0.00972814 0.00950555 0.00100356)
(0.00904536 0.0142841 0.00340469)
(0.00752193 0.0199264 0.00597063)
(0.00522787 0.025704 0.00783367)
(0.00272851 0.0289071 0.00788349)
(0.000437822 0.0213256 0.00475016)
(8.86797e-05 0.0374588 -0.00200804)
(-0.00198869 0.0507478 -0.00988367)
(-0.00578722 0.0505194 -0.0130387)
(-0.00972704 0.0458106 -0.012841)
(-0.0131444 0.0390335 -0.0113748)
(-0.0156782 0.0315505 -0.0101034)
(-0.0174485 0.0241913 -0.00931814)
(-0.0186062 0.0172191 -0.00887283)
(-0.0192531 0.0108669 -0.0085679)
(-0.0194837 0.00560543 -0.00817046)
(-0.0193023 0.00176833 -0.00751926)
(-0.0187411 -0.000895972 -0.00660987)
(-0.0179292 -0.00300549 -0.00559933)
(-0.0169428 -0.00491189 -0.00459668)
(-0.0157679 -0.00667321 -0.00363412)
(-0.0144031 -0.00828126 -0.00272799)
(-0.0128506 -0.00969213 -0.00188496)
(-0.0111223 -0.0108335 -0.00110068)
(-0.00922756 -0.0116363 -0.000362764)
(-0.00719105 -0.012087 0.000328995)
(-0.00508437 -0.0121798 0.000967877)
(-0.00297253 -0.0118427 0.00157215)
(-0.00090154 -0.0109701 0.00217782)
(0.00105876 -0.00947715 0.00281795)
(0.0028503 -0.00729914 0.00352003)
(0.00442051 -0.00437586 0.00430052)
(0.00569978 -0.000650628 0.00516417)
(0.00662224 0.00393405 0.00609943)
(0.00711398 0.00945123 0.00707743)
(0.00710538 0.0159844 0.00805343)
(0.00650957 0.0234506 0.00891159)
(0.00523833 0.031177 0.00942175)
(0.00356261 0.0372887 0.0092589)
(0.00180156 0.0388003 0.00799429)
(0.00027054 0.0257905 0.00434281)
(-0.000242347 0.0341815 -0.00112043)
(-0.00109156 0.046529 -0.00640955)
(-0.00197375 0.0441161 -0.00924834)
(-0.00262949 0.0384285 -0.0104958)
(-0.00318278 0.0312093 -0.0110184)
(-0.00369636 0.0234 -0.0114086)
(-0.00418399 0.0158008 -0.0118341)
(-0.00464569 0.00888149 -0.0121675)
(-0.00510159 0.00293133 -0.0122003)
(-0.00555872 -0.00183653 -0.0117833)
(-0.00601486 -0.00538412 -0.0108816)
(-0.00647723 -0.00800123 -0.00954218)
(-0.00691105 -0.0101783 -0.00790119)
(-0.00726457 -0.0123151 -0.00615217)
(-0.00748305 -0.0145979 -0.00445457)
(-0.007486 -0.0170771 -0.00293464)
(-0.00719653 -0.0196814 -0.00167139)
(-0.006576 -0.0222368 -0.000685899)
(-0.00563062 -0.0245053 5.92927e-05)
(-0.00441286 -0.0262407 0.000648686)
(-0.00299504 -0.0272539 0.00118336)
(-0.00148003 -0.027411 0.00174232)
(7.56305e-05 -0.0265855 0.00240246)
(0.00164002 -0.0246771 0.00322994)
(0.0031266 -0.021628 0.00426301)
(0.0044365 -0.0174372 0.00549017)
(0.00549452 -0.0120799 0.00688549)
(0.0062318 -0.00548508 0.00838974)
(0.0065696 0.00242517 0.00987657)
(0.00642013 0.0116555 0.0111305)
(0.00570386 0.0219623 0.0118782)
(0.00439285 0.0323236 0.0118381)
(0.00282766 0.0401523 0.010874)
(0.00135029 0.0419889 0.0088034)
(0.000202737 0.027571 0.00448551)
(0.000374945 0.0345771 -0.00113958)
(0.000741026 0.0544277 -0.00556982)
(0.000695462 0.0554382 -0.00833673)
(0.000504217 0.0523425 -0.0099436)
(0.000166866 0.0475022 -0.0109197)
(-0.000321601 0.0417006 -0.0113967)
(-0.000927206 0.0357972 -0.0113702)
(-0.00160064 0.0303582 -0.010787)
(-0.0023047 0.0256466 -0.00962584)
(-0.00301276 0.0216781 -0.00792934)
(-0.00371164 0.0182751 -0.00578928)
(-0.00439036 0.0151032 -0.00334018)
(-0.00504197 0.0116881 -0.000779579)
(-0.0056384 0.00754384 0.00160735)
(-0.0060898 0.00242091 0.00350877)
(-0.0062997 -0.00355239 0.00470878)
(-0.00623589 -0.00994107 0.0051862)
(-0.00591388 -0.0161935 0.00509965)
(-0.00538293 -0.021706 0.00470633)
(-0.00473124 -0.0257704 0.00431769)
(-0.00396796 -0.0282897 0.00410325)
(-0.00312197 -0.029495 0.0040724)
(-0.00226047 -0.0294928 0.00425011)
(-0.00141437 -0.0281622 0.00470068)
(-0.000557045 -0.0252157 0.00552604)
(0.000297563 -0.0204722 0.00677782)
(0.00104531 -0.0141036 0.00839871)
(0.00167053 -0.00598178 0.0103268)
(0.00212452 0.00415408 0.0123886)
(0.00236443 0.0162134 0.0141472)
(0.00231244 0.0291638 0.0149409)
(0.0018439 0.0405789 0.0142746)
(0.00114912 0.0472433 0.0124222)
(0.000457964 0.0466279 0.00951213)
(1.97923e-05 0.0284374 0.00448116)
(7.13466e-05 0.0302504 -0.00134801)
(0.000237194 0.0513456 -0.00556834)
(0.00017238 0.0535527 -0.00805978)
(5.01951e-05 0.05136 -0.00939091)
(-0.000132932 0.0472735 -0.0100924)
(-0.000406681 0.0417785 -0.0102352)
(-0.000720436 0.035531 -0.0098491)
(-0.00102408 0.0291164 -0.00898869)
(-0.0012947 0.0229827 -0.00771705)
(-0.00152495 0.0174469 -0.00609301)
(-0.00169456 0.0126247 -0.00417119)
(-0.00175494 0.0083519 -0.0020211)
(-0.00163834 0.004211 0.000232994)
(-0.00128545 -0.000311507 0.00236122)
(-0.000717292 -0.0055533 0.00404819)
(-3.44797e-05 -0.0114492 0.00506164)
(0.000682961 -0.0176014 0.00536052)
(0.00139798 -0.023507 0.00508799)
(0.00206149 -0.02863 0.00449594)
(0.00262234 -0.0323994 0.00387689)
(0.00311461 -0.0347641 0.00337276)
(0.00354319 -0.0359108 0.00301345)
(0.00386548 -0.0359627 0.00283823)
(0.00406963 -0.0349001 0.00290092)
(0.00417581 -0.0325703 0.00325129)
(0.00416345 -0.0288216 0.00396577)
(0.00403375 -0.0237099 0.00510448)
(0.00382921 -0.0170679 0.00675776)
(0.00360383 -0.00841009 0.00899874)
(0.00337277 0.00284039 0.0116812)
(0.0030727 0.0166177 0.0141567)
(0.00256912 0.0308521 0.0153057)
(0.00184856 0.0410019 0.0144213)
(0.00101494 0.0428378 0.0114791)
(0.000282613 0.0271051 0.00548325)
(0.000151985 0.0280655 -0.000849891)
(0.000557461 0.0509065 -0.00427175)
(0.000764537 0.0553619 -0.00659308)
(0.000843862 0.0543032 -0.00787572)
(0.000862094 0.0512298 -0.00856765)
(0.000789397 0.0466413 -0.00874964)
(0.00060601 0.0411065 -0.00837196)
(0.000319218 0.0354356 -0.0073457)
(-2.35443e-05 0.0302126 -0.0055832)
(-0.000328975 0.0254503 -0.00305735)
(-0.00047656 0.0206464 8.56381e-05)
(-0.000349315 0.015134 0.00340164)
(0.000100359 0.0085536 0.00623278)
(0.000862337 0.00107124 0.00805292)
(0.00187528 -0.00672635 0.00869095)
(0.00301809 -0.0142162 0.0083344)
(0.00416208 -0.0209334 0.00732214)
(0.00521485 -0.0265645 0.00601262)
(0.00609901 -0.0308242 0.0047317)
(0.00678426 -0.0335411 0.00369365)
(0.00731515 -0.0348603 0.00289927)
(0.00771592 -0.0349802 0.00232894)
(0.00796791 -0.0339919 0.00199738)
(0.00807804 -0.0318226 0.0019228)
(0.00804485 -0.0283521 0.00210735)
(0.00783887 -0.0236481 0.00256037)
(0.00745371 -0.0178647 0.00329717)
(0.00689081 -0.0110047 0.00438385)
(0.00615482 -0.00286579 0.00595505)
(0.0052739 0.00698498 0.00814861)
(0.0042914 0.0188573 0.0107999)
(0.00319426 0.03165 0.0129893)
(0.0020824 0.0414197 0.0133832)
(0.00103197 0.0435758 0.0112902)
(0.000209373 0.0280198 0.00549361)
(1.88936e-05 0.0254279 -0.000401777)
(0.00014551 0.047371 -0.00315895)
(0.00015207 0.0522836 -0.00522833)
(5.79169e-05 0.0516417 -0.0063455)
(-0.000144343 0.0490271 -0.00676423)
(-0.000465834 0.0451309 -0.00639339)
(-0.000865323 0.0405067 -0.00500383)
(-0.00122751 0.0353658 -0.00244509)
(-0.00137158 0.0293646 0.00107679)
(-0.0011252 0.0220557 0.00481433)
(-0.000422732 0.0134416 0.00780307)
(0.000677036 0.00406619 0.00942059)
(0.00203588 -0.0053013 0.00959186)
(0.00348145 -0.0140073 0.00863991)
(0.00486688 -0.0215974 0.00703561)
(0.0061201 -0.0278781 0.0052244)
(0.0072107 -0.032813 0.00352736)
(0.00811922 -0.0364004 0.00213268)
(0.00882803 -0.0386245 0.00111279)
(0.00938859 -0.0396577 0.000396579)
(0.00983612 -0.0396933 -9.51803e-05)
(0.0101697 -0.038836 -0.000390247)
(0.0103928 -0.0370691 -0.00050156)
(0.0105074 -0.0342602 -0.00042955)
(0.0104974 -0.030285 -0.000165877)
(0.0103305 -0.0251833 0.000284628)
(0.00998242 -0.018979 0.000927763)
(0.00942388 -0.0116519 0.00180141)
(0.00863469 -0.00307121 0.00300433)
(0.00758449 0.00708112 0.00470228)
(0.00624314 0.0191395 0.00696983)
(0.00459723 0.0322836 0.00930839)
(0.0029001 0.0426574 0.0104243)
(0.00137568 0.0451922 0.00927872)
(0.000252691 0.0292029 0.00463351)
(-8.556e-06 0.0243279 0.000270607)
(-0.00022505 0.0463872 -0.00150919)
(-0.000674846 0.0526119 -0.00295751)
(-0.00121988 0.053043 -0.00334557)
(-0.00180711 0.0515378 -0.00269169)
(-0.00234511 0.0484266 -0.000774423)
(-0.00260399 0.0430866 0.00240888)
(-0.00236364 0.0350883 0.00608139)
(-0.00157384 0.0249056 0.00900241)
(-0.000356424 0.0137064 0.0103594)
(0.0010981 0.00271777 0.0101064)
(0.0026068 -0.00717818 0.00872588)
(0.00404076 -0.0155714 0.00683965)
(0.00532891 -0.0224318 0.00493336)
(0.00645533 -0.0279216 0.00327461)
(0.00743452 -0.0322462 0.00194799)
(0.0082829 -0.0355407 0.000937981)
(0.00899726 -0.0378069 0.000199674)
(0.00961076 -0.0390932 -0.000328505)
(0.0101498 -0.039493 -0.000714224)
(0.0106165 -0.0390447 -0.000980582)
(0.0109972 -0.0377212 -0.00113448)
(0.0112699 -0.0354203 -0.00116816)
(0.0114257 -0.0319459 -0.00107275)
(0.0114215 -0.0271416 -0.000830626)
(0.0112105 -0.0210346 -0.00044832)
(0.0107599 -0.0136752 7.61957e-05)
(0.0100383 -0.0051022 0.000776106)
(0.00901551 0.00471321 0.0017405)
(0.00769026 0.0158774 0.00310914)
(0.00607853 0.0283612 0.0049346)
(0.00419252 0.0409237 0.00681725)
(0.00246608 0.0496519 0.00773995)
(0.00103417 0.0503598 0.00692777)
(9.01747e-05 0.0311416 0.00334633)
(-9.32712e-05 0.0246421 0.00129999)
(-0.000729031 0.0476824 0.00119393)
(-0.00164199 0.0545012 0.000942754)
(-0.00253171 0.0546752 0.00158157)
(-0.00331469 0.0514868 0.00332753)
(-0.00373256 0.0445367 0.00602749)
(-0.00348304 0.0339667 0.00854457)
(-0.0026595 0.0213281 0.0096881)
(-0.00152087 0.00857717 0.00915457)
(-0.000300489 -0.00289379 0.00746561)
(0.000856785 -0.0125422 0.00536659)
(0.00189671 -0.0204138 0.00339357)
(0.00283021 -0.0268093 0.00176919)
(0.00368519 -0.0320407 0.000502685)
(0.00448823 -0.0363123 -0.000476472)
(0.00525305 -0.039705 -0.00123971)
(0.00598164 -0.042206 -0.00183237)
(0.00665808 -0.0437529 -0.00227629)
(0.00728985 -0.0443733 -0.00260061)
(0.00788652 -0.0441135 -0.00282136)
(0.00842667 -0.0429689 -0.0029417)
(0.00888422 -0.0408648 -0.00295697)
(0.00924519 -0.0376143 -0.00285541)
(0.00948654 -0.0329801 -0.00263255)
(0.00954792 -0.0268858 -0.00230231)
(0.00938329 -0.0193286 -0.00189378)
(0.00895179 -0.0103866 -0.00142534)
(0.00822311 -0.000189093 -0.00085758)
(0.007195 0.0111623 -6.31126e-05)
(0.0059061 0.0235959 0.00112009)
(0.00442857 0.0366621 0.00269364)
(0.00283753 0.0484362 0.0042126)
(0.0015707 0.0550239 0.00487619)
(0.000600625 0.0537829 0.00434657)
(-4.19428e-06 0.0318554 0.00196573)
(-6.36395e-05 0.0251873 0.00225844)
(-0.000656555 0.0493762 0.00397879)
(-0.00153211 0.0564695 0.00487571)
(-0.00236018 0.0556846 0.00607736)
(-0.00299707 0.049761 0.00777083)
(-0.00314694 0.0389458 0.00915491)
(-0.0027679 0.0255629 0.0091241)
(-0.00215065 0.0123243 0.00764128)
(-0.0015062 0.000785039 0.00548688)
(-0.000903734 -0.00875341 0.0034085)
(-0.000334014 -0.0166322 0.00172992)
(0.000230332 -0.0232762 0.000459669)
(0.000808058 -0.0289582 -0.00050214)
(0.00140008 -0.0337951 -0.00125086)
(0.00200259 -0.037797 -0.00184461)
(0.00260195 -0.0409258 -0.00230947)
(0.00317677 -0.0431226 -0.00265346)
(0.00372046 -0.044391 -0.0028843)
(0.00423998 -0.0447842 -0.00301868)
(0.0047355 -0.0443153 -0.00306072)
(0.00519066 -0.042929 -0.0030097)
(0.005588 -0.0404833 -0.00285341)
(0.00592664 -0.0367057 -0.00258005)
(0.00618072 -0.0312905 -0.00218149)
(0.00630329 -0.0240938 -0.00170332)
(0.00625193 -0.0150805 -0.00123331)
(0.00598076 -0.00440047 -0.000862243)
(0.00545374 0.00755809 -0.000601085)
(0.00467202 0.0202623 -0.000315031)
(0.00369394 0.0331443 0.000208806)
(0.00262353 0.0453182 0.00103663)
(0.00157614 0.0548022 0.0018654)
(0.000811628 0.0589491 0.00221862)
(0.000258794 0.0558273 0.00197261)
(-4.89046e-05 0.0318828 0.000817902)
(-9.89662e-05 0.0253991 0.00286555)
(-0.000718736 0.0500276 0.0059529)
(-0.00155567 0.0566692 0.00746998)
(-0.00232734 0.0545521 0.00846854)
(-0.002939 0.0459868 0.00897026)
(-0.00316769 0.032825 0.00822613)
(-0.00313558 0.0187613 0.00622294)
(-0.00303331 0.0061561 0.00379434)
(-0.00290389 -0.00443178 0.00167552)
(-0.00272639 -0.0133321 9.66824e-05)
(-0.00247387 -0.0209779 -0.00102678)
(-0.00213311 -0.0276171 -0.00184969)
(-0.00170971 -0.033321 -0.00248936)
(-0.00122481 -0.0380814 -0.00300829)
(-0.000703044 -0.0418816 -0.0034284)
(-0.000166548 -0.044722 -0.00375158)
(0.000364193 -0.0466139 -0.00397478)
(0.000883021 -0.0476099 -0.00410055)
(0.00139403 -0.0477628 -0.00413573)
(0.00189363 -0.0470702 -0.00407619)
(0.00236126 -0.0454617 -0.00391695)
(0.00279004 -0.0427595 -0.00363845)
(0.00318396 -0.0386624 -0.00321979)
(0.00351551 -0.032878 -0.00265368)
(0.0037541 -0.0251648 -0.00198731)
(0.00386628 -0.0153875 -0.00133545)
(0.00380776 -0.00365955 -0.000848812)
(0.0035352 0.00953165 -0.000611599)
(0.0030415 0.0234101 -0.000534853)
(0.00238944 0.0370767 -0.000406777)
(0.00168214 0.0492932 -0.000106467)
(0.00102151 0.0579942 0.000235667)
(0.000535963 0.0612498 0.000400908)
(0.000174905 0.0570159 0.000380043)
(-2.5201e-05 0.0318653 0.00012429)
(-5.85959e-05 0.0256194 0.00284845)
(-0.000563635 0.050325 0.00645189)
(-0.00127734 0.0562639 0.00796431)
(-0.00200405 0.0533207 0.00830903)
(-0.00272751 0.043636 0.00744222)
(-0.00326553 0.0303213 0.00529653)
(-0.00370276 0.0171406 0.00267507)
(-0.00408485 0.00563724 0.000438161)
(-0.00437734 -0.00421671 -0.00109854)
(-0.00455249 -0.0128663 -0.00204268)
(-0.00459455 -0.0206049 -0.00262651)
(-0.0044995 -0.0274833 -0.00304462)
(-0.00428516 -0.0334209 -0.00340387)
(-0.00398304 -0.0383353 -0.00373204)
(-0.00362423 -0.0421994 -0.00401396)
(-0.00323419 -0.0450404 -0.00422493)
(-0.00283451 -0.0469038 -0.00434727)
(-0.00242847 -0.0478826 -0.00437872)
(-0.00201345 -0.0480352 -0.00431987)
(-0.0015955 -0.0473489 -0.00416041)
(-0.00118853 -0.045741 -0.00389066)
(-0.000785921 -0.0430066 -0.0034886)
(-0.000369209 -0.0388108 -0.00291631)
(5.71764e-05 -0.0328328 -0.00216548)
(0.000482881 -0.0247338 -0.0012913)
(0.0008857 -0.0142622 -0.000445776)
(0.00121542 -0.00149197 0.000134419)
(0.00139454 0.0128959 0.000251859)
(0.00136047 0.027675 -5.06032e-05)
(0.00112222 0.0415125 -0.000469895)
(0.000771572 0.0530687 -0.000720194)
(0.000428428 0.0606624 -0.000762708)
(0.000173573 0.0630902 -0.000702418)
(4.37425e-06 0.0577407 -0.000538739)
(-4.24497e-05 0.0317096 -0.000211558)
(4.84004e-05 0.0249828 0.00206059)
(-2.921e-06 0.0498109 0.00509662)
(-0.000341877 0.0560389 0.00625555)
(-0.000832108 0.0536789 0.00612333)
(-0.00149886 0.0449951 0.00463724)
(-0.0022556 0.0326968 0.00217614)
(-0.00303026 0.0202082 -0.000223907)
(-0.00374488 0.00883809 -0.00189544)
(-0.00432621 -0.00142795 -0.00277264)
(-0.00473079 -0.0108644 -0.00312162)
(-0.00494346 -0.0195362 -0.0032706)
(-0.00497813 -0.0272792 -0.00344837)
(-0.00486909 -0.0338665 -0.00372725)
(-0.0046595 -0.0391726 -0.00406619)
(-0.00438867 -0.0432144 -0.00439245)
(-0.00408704 -0.046104 -0.00465214)
(-0.00377493 -0.0479819 -0.00482052)
(-0.00345863 -0.0489888 -0.0048979)
(-0.00314013 -0.0491995 -0.00487601)
(-0.00282896 -0.048626 -0.00474034)
(-0.00253223 -0.04722 -0.00447697)
(-0.00223986 -0.0448348 -0.00406811)
(-0.0019342 -0.0412149 -0.00346567)
(-0.00159684 -0.03603 -0.00262479)
(-0.00120148 -0.0288092 -0.00153587)
(-0.000724332 -0.0190216 -0.000290432)
(-0.000169726 -0.0063366 0.000852505)
(0.00039355 0.00890523 0.0015032)
(0.000830308 0.0253366 0.00139916)
(0.0010147 0.0409024 0.000712227)
(0.000929209 0.0535697 -5.71186e-05)
(0.000683701 0.0615462 -0.000528957)
(0.000428453 0.0639294 -0.000653224)
(0.000188117 0.0581312 -0.000489216)
(1.67466e-05 0.0316727 -7.60592e-05)
(0.00010173 0.0227896 0.00110543)
(0.00052217 0.0469597 0.00301469)
(0.000738232 0.0545747 0.00380828)
(0.000767229 0.0538467 0.00362628)
(0.00058641 0.048069 0.00252317)
(0.000130091 0.0382178 0.000726439)
(-0.000523757 0.0268285 -0.000956424)
(-0.00122949 0.015403 -0.00198872)
(-0.00187089 0.00436734 -0.00233146)
(-0.00237641 -0.00619815 -0.00229177)
(-0.00271048 -0.0160725 -0.00226804)
(-0.00288374 -0.0248514 -0.00249657)
(-0.00293393 -0.0321763 -0.00296463)
(-0.00289965 -0.0379145 -0.00352704)
(-0.00280984 -0.042151 -0.00405045)
(-0.00268558 -0.0450831 -0.00446806)
(-0.00254007 -0.04694 -0.00476839)
(-0.0023803 -0.0478982 -0.00495804)
(-0.00221358 -0.0480492 -0.00503531)
(-0.00204913 -0.0474277 -0.00499399)
(-0.00189291 -0.0460126 -0.00482584)
(-0.00174232 -0.0437123 -0.00451514)
(-0.0015907 -0.0403822 -0.00402399)
(-0.0014231 -0.0358036 -0.00330094)
(-0.00121221 -0.0296005 -0.00228822)
(-0.000917258 -0.0212116 -0.000960894)
(-0.00049811 -0.00998507 0.000579383)
(4.90908e-05 0.00441387 0.00198959)
(0.000643058 0.0212684 0.00273906)
(0.00110344 0.03844 0.00252128)
(0.00124877 0.0530137 0.00164943)
(0.00106109 0.0623242 0.000806349)
(0.00074658 0.0651571 0.000387162)
(0.000376229 0.0592016 0.000314687)
(5.14657e-05 0.0322136 0.00035056)
(4.4119e-05 0.0201464 0.000578701)
(0.000462886 0.0422777 0.00152331)
(0.000898689 0.0503606 0.00190891)
(0.00120656 0.0507689 0.00173354)
(0.00136349 0.0472439 0.00110608)
(0.00131141 0.0399813 0.000120083)
(0.000999559 0.0303572 -0.000726336)
(0.000564516 0.0196588 -0.00106688)
(0.00015362 0.00847972 -0.000960988)
(-0.000145816 -0.00277492 -0.000811022)
(-0.000321581 -0.0134618 -0.00101491)
(-0.000409987 -0.0228525 -0.00165391)
(-0.000451978 -0.0305102 -0.00252846)
(-0.00046824 -0.0363882 -0.00339824)
(-0.000463827 -0.040684 -0.00412616)
(-0.00043843 -0.0436628 -0.00467846)
(-0.000393794 -0.0455609 -0.00507305)
(-0.000331011 -0.0465656 -0.00533444)
(-0.000255131 -0.0467818 -0.00547814)
(-0.000172961 -0.0462539 -0.00551)
(-8.97121e-05 -0.0449765 -0.0054313)
(-8.5579e-06 -0.0428894 -0.00522933)
(6.8814e-05 -0.0398899 -0.00487625)
(0.000143661 -0.0358214 -0.00432779)
(0.000225271 -0.0304121 -0.00351748)
(0.000336786 -0.0232176 -0.00236283)
(0.000518096 -0.0135862 -0.000811318)
(0.000808802 -0.000806746 0.00103161)
(0.0012036 0.0152847 0.00274091)
(0.00159612 0.0333631 0.00367061)
(0.00176947 0.0503202 0.00352703)
(0.00154973 0.0622493 0.00277508)
(0.00112556 0.0664773 0.00213519)
(0.000588052 0.0609543 0.0016645)
(9.23546e-05 0.0333082 0.000947216)
(-1.80313e-05 0.0187161 0.00047704)
(0.000112472 0.0391464 0.000945832)
(0.000318458 0.0470303 0.00105683)
(0.000486354 0.0479932 0.000931296)
(0.00058708 0.0455821 0.000698467)
(0.000601282 0.0399802 0.000466015)
(0.000513416 0.0315507 0.000467603)
(0.000431555 0.021085 0.000724697)
(0.000452717 0.00939419 0.000890798)
(0.00058078 -0.00246319 0.000550239)
(0.000744993 -0.0133198 -0.000377194)
(0.000878768 -0.0224045 -0.00161764)
(0.000963632 -0.029536 -0.00283806)
(0.00101283 -0.0349119 -0.00384983)
(0.00104673 -0.0388434 -0.0046123)
(0.00108281 -0.0416028 -0.00515859)
(0.00113 -0.0433781 -0.00553773)
(0.00119229 -0.0443127 -0.00579167)
(0.00126786 -0.0444897 -0.00594306)
(0.00134992 -0.0439399 -0.00600439)
(0.00143205 -0.0426572 -0.00598077)
(0.001508 -0.0405904 -0.00586262)
(0.00157104 -0.0376552 -0.00562788)
(0.00161385 -0.0337408 -0.00523935)
(0.00163299 -0.02866 -0.00463697)
(0.00163275 -0.0220952 -0.00373203)
(0.00162852 -0.0135283 -0.00241545)
(0.00164842 -0.00224141 -0.000622445)
(0.00172122 0.0123697 0.00149353)
(0.00183268 0.0299161 0.00339014)
(0.00185404 0.0479718 0.00437936)
(0.00157836 0.0620809 0.00431898)
(0.0011244 0.0678153 0.00378023)
(0.000567447 0.0628561 0.00298542)
(8.12327e-05 0.0345051 0.00145862)
(-4.52352e-05 0.018547 0.000634063)
(-0.000191849 0.0383754 0.00114886)
(-0.000356154 0.0459026 0.00129055)
(-0.000506069 0.0468377 0.00134206)
(-0.000641516 0.0444815 0.00144596)
(-0.000741522 0.0387522 0.00167332)
(-0.000717603 0.0297045 0.00192974)
(-0.000522618 0.0183468 0.00188234)
(-0.000195407 0.00615601 0.00120207)
(0.000160335 -0.00535205 -9.08035e-05)
(0.000458545 -0.0151788 -0.00164204)
(0.000676162 -0.0230601 -0.00308249)
(0.000831763 -0.0291919 -0.00423058)
(0.000955562 -0.0338951 -0.00506993)
(0.00107069 -0.0374434 -0.00565614)
(0.00119215 -0.040018 -0.00605567)
(0.00132512 -0.0417247 -0.0063229)
(0.0014708 -0.042644 -0.0064978)
(0.00162737 -0.0428248 -0.00660141)
(0.00178692 -0.0422806 -0.00664609)
(0.00194064 -0.0410003 -0.00663543)
(0.00208184 -0.0389323 -0.00656238)
(0.00220198 -0.0359933 -0.00640591)
(0.00228932 -0.032087 -0.00613025)
(0.00233376 -0.027062 -0.00567761)
(0.00232859 -0.0206685 -0.00496099)
(0.00227298 -0.0124902 -0.00386055)
(0.00217583 -0.00190816 -0.00224981)
(0.00205648 0.0117365 -0.000111046)
(0.00193083 0.0285004 0.00224806)
(0.00175943 0.0466629 0.00413161)
(0.00140769 0.0618817 0.00493459)
(0.000962409 0.0686075 0.00475564)
(0.000463123 0.064096 0.00384705)
(6.42004e-05 0.0352735 0.00175441)
(-3.73365e-05 0.0189859 0.000860059)
(-0.000273242 0.03922 0.00172002)
(-0.00062511 0.0467356 0.00209262)
(-0.000949428 0.0474113 0.00231634)
(-0.00121189 0.0444514 0.00254092)
(-0.00135251 0.0375593 0.00269779)
(-0.00125119 0.0272786 0.00245884)
(-0.00096396 0.0152802 0.00154804)
(-0.000609618 0.00337903 3.59094e-05)
(-0.000281706 -0.0071593 -0.00169639)
(-1.24952e-05 -0.0158781 -0.00327014)
(0.000209167 -0.0228811 -0.0045088)
(0.000406844 -0.0284521 -0.00540549)
(0.000600153 -0.0328458 -0.00602433)
(0.000799115 -0.0362385 -0.006439)
(0.00100769 -0.0387347 -0.0067116)
(0.00122371 -0.040393 -0.00688878)
(0.00144522 -0.041264 -0.00700402)
(0.00166973 -0.0413795 -0.00707755)
(0.00188868 -0.0407438 -0.00712066)
(0.00209254 -0.0393397 -0.00713521)
(0.00227466 -0.0371135 -0.00711781)
(0.00242411 -0.0339935 -0.00704949)
(0.00252727 -0.0299017 -0.00689464)
(0.00257151 -0.0247256 -0.00659446)
(0.00254666 -0.0182763 -0.0060603)
(0.00244668 -0.0102203 -0.00516685)
(0.00227293 -3.12321e-05 -0.00376173)
(0.00203971 0.0129124 -0.00174041)
(0.00177178 0.0288406 0.000763028)
(0.00147622 0.0464865 0.00318277)
(0.00109633 0.0618196 0.00470843)
(0.000711689 0.0688383 0.00496564)
(0.000324386 0.0645814 0.00413871)
(4.40688e-05 0.0355717 0.00181087)
(-2.40696e-05 0.0192215 0.00103481)
(-0.000220133 0.0398751 0.00226863)
(-0.000562641 0.0473849 0.0028636)
(-0.000889401 0.0476787 0.00312666)
(-0.00115104 0.043789 0.0031816)
(-0.00127716 0.0355655 0.00282531)
(-0.00119366 0.0243882 0.00179548)
(-0.000998495 0.0123673 0.00014213)
(-0.000786412 0.00115987 -0.00176388)
(-0.000595642 -0.00844015 -0.00351492)
(-0.00042306 -0.016343 -0.00489695)
(-0.000252893 -0.0227771 -0.00588775)
(-7.21405e-05 -0.0280031 -0.00655328)
(0.0001265 -0.0322084 -0.00697619)
(0.000344484 -0.0355038 -0.00722893)
(0.000579518 -0.0379445 -0.00736946)
(0.000825561 -0.0395558 -0.00744183)
(0.00107882 -0.0403669 -0.00747783)
(0.00133645 -0.0403953 -0.007499)
(0.00158893 -0.0396353 -0.0075194)
(0.00182722 -0.038057 -0.00754284)
(0.00204463 -0.035596 -0.00756906)
(0.00222735 -0.0321849 -0.00758213)
(0.00236042 -0.0277557 -0.00754677)
(0.00242913 -0.0222268 -0.00740229)
(0.00242059 -0.0154636 -0.00705795)
(0.00232443 -0.00721776 -0.00638709)
(0.00213566 0.00291367 -0.00523027)
(0.00186146 0.0154225 -0.00344325)
(0.00152979 0.0305157 -0.00104697)
(0.00117401 0.0471613 0.00154506)
(0.000795261 0.061714 0.00350835)
(0.000478419 0.068352 0.00416256)
(0.000200288 0.0641932 0.00362381)
(2.13044e-05 0.0353931 0.00154819)
(-1.06031e-05 0.0191279 0.00110249)
(-0.000112858 0.0399667 0.00257929)
(-0.000342767 0.0475266 0.00328771)
(-0.000570251 0.0476207 0.00345781)
(-0.000755645 0.0432383 0.00317927)
(-0.000852173 0.0345026 0.00223073)
(-0.000833593 0.0233303 0.000599797)
(-0.000773045 0.0118621 -0.00139161)
(-0.000710485 0.00141586 -0.0033114)
(-0.000645003 -0.00754789 -0.00487562)
(-0.000562638 -0.0150753 -0.00601099)
(-0.000452331 -0.0213772 -0.00676818)
(-0.000309067 -0.0266389 -0.007232)
(-0.000133162 -0.0309685 -0.00748183)
(7.18459e-05 -0.0344123 -0.00758334)
(0.000299729 -0.036981 -0.00759121)
(0.000541632 -0.0386743 -0.00755039)
(0.0007928 -0.0395121 -0.00749475)
(0.0010503 -0.0395078 -0.00745041)
(0.00130334 -0.0386509 -0.00743814)
(0.00154356 -0.0368999 -0.00746782)
(0.0017638 -0.0341743 -0.00754375)
(0.0019477 -0.0304136 -0.00765351)
(0.00208095 -0.0255669 -0.00775958)
(0.00215074 -0.0195884 -0.00779387)
(0.00214734 -0.0123889 -0.00765798)
(0.00206221 -0.00378441 -0.00722271)
(0.00188959 0.00652538 -0.00633191)
(0.00163211 0.0188887 -0.00483599)
(0.00131054 0.0333827 -0.00270389)
(0.000963316 0.0489853 -0.000231061)
(0.000619186 0.0623235 0.00184172)
(0.000356491 0.0681648 0.00274172)
(0.000144411 0.0638598 0.00256828)
(9.97065e-06 0.0351673 0.00107985)
(1.06487e-06 0.0186473 0.00103222)
(5.96448e-06 0.0391551 0.00252419)
(-7.24973e-05 0.0465685 0.00319337)
(-0.000156472 0.046582 0.00318468)
(-0.000229144 0.0421601 0.0025648)
(-0.000278866 0.0335882 0.00117583)
(-0.000309637 0.0229263 -0.000754219)
(-0.000347637 0.0121382 -0.00278975)
(-0.000387893 0.0022768 -0.00456461)
(-0.000409797 -0.00633909 -0.0059172)
(-0.000397512 -0.0137572 -0.00685062)
(-0.000343832 -0.0201211 -0.00743571)
(-0.000248413 -0.0255407 -0.00774779)
(-0.000115577 -0.0300628 -0.00784922)
(4.95039e-05 -0.0336902 -0.00779407)
(0.000240619 -0.0364048 -0.00763714)
(0.000449531 -0.0381879 -0.0074348)
(0.00067207 -0.0390524 -0.00723447)
(0.000905313 -0.039006 -0.00707478)
(0.00113817 -0.0380304 -0.00699188)
(0.00136183 -0.0360669 -0.00700816)
(0.00156688 -0.0330133 -0.00713823)
(0.00173474 -0.0288158 -0.00737512)
(0.00185082 -0.0234627 -0.00767282)
(0.00190559 -0.0169592 -0.00794485)
(0.0018936 -0.00926828 -0.00807375)
(0.00180953 -0.000269117 -0.00791988)
(0.00164938 0.0102475 -0.0073291)
(0.00141567 0.0225036 -0.00615848)
(0.00112579 0.0364435 -0.00436005)
(0.000815502 0.0510046 -0.00215235)
(0.000518924 0.0630443 -0.00016265)
(0.000296001 0.068069 0.000885093)
(0.000118606 0.0635266 0.00111528)
(-2.5558e-06 0.0349373 0.000463852)
(1.346e-05 0.0178666 0.000786334)
(0.000140932 0.0377013 0.00197286)
(0.000243917 0.0449749 0.00243667)
(0.000326116 0.0451713 0.00224166)
(0.000391665 0.041374 0.00145048)
(0.000431498 0.0337823 -5.30482e-05)
(0.000406522 0.0241604 -0.00193534)
(0.000331485 0.0142081 -0.00377574)
(0.000242125 0.00483123 -0.00530692)
(0.000170116 -0.00365618 -0.00644855)
(0.000133728 -0.0112144 -0.0072284)
(0.000138966 -0.0178761 -0.0076991)
(0.000183654 -0.0236595 -0.00789876)
(0.000261438 -0.0285521 -0.00785336)
(0.000367474 -0.0325246 -0.00759636)
(0.000499278 -0.0355364 -0.0071883)
(0.000653797 -0.0375461 -0.00671707)
(0.000828197 -0.0385497 -0.00626696)
(0.00102014 -0.0385475 -0.00590054)
(0.00121756 -0.0375084 -0.00567992)
(0.00140865 -0.0353458 -0.00564517)
(0.00158028 -0.0319209 -0.00583026)
(0.00171 -0.027196 -0.00623659)
(0.00178309 -0.0212245 -0.00679782)
(0.00179707 -0.0140784 -0.0073903)
(0.0017555 -0.00577324 -0.00786233)
(0.00166103 0.00375967 -0.00805583)
(0.00151333 0.014652 -0.00781724)
(0.00131352 0.0270027 -0.00701631)
(0.00107237 0.0405948 -0.00560799)
(0.000813681 0.0542586 -0.00376534)
(0.000560407 0.0650405 -0.00200185)
(0.00035241 0.0692608 -0.000904168)
(0.000165006 0.0642398 -0.000315286)
(4.20503e-06 0.0351727 -0.000121231)
(2.13862e-05 0.0168244 0.000462543)
(0.000224045 0.0356424 0.00114064)
(0.000461139 0.042743 0.00130701)
(0.000680939 0.0432456 0.000974528)
(0.000881892 0.0401833 0.000186314)
(0.00105431 0.0338257 -0.00114025)
(0.00112843 0.0253521 -0.00273801)
(0.00112679 0.0161674 -0.0042852)
(0.00109341 0.00712558 -0.00560428)
(0.00106082 -0.00137408 -0.00664756)
(0.00104666 -0.00915729 -0.00741518)
(0.00105567 -0.016134 -0.00789472)
(0.00108422 -0.0222451 -0.00805071)