/*--------------------------------*- C++ -*----------------------------------*\
| =========                 |                                                 |
| \\      /  F ield         | OpenFOAM: The Open Source CFD Toolbox           |
|  \\    /   O peration     | Version:  v1912                                 |
|   \\  /    A nd           | Website:  www.openfoam.com                      |
|    \\/     M anipulation  |                                                 |
\*---------------------------------------------------------------------------*/
FoamFile
{
    version     2.0;
    format      ascii;
    class       volScalarField;
    location    "498/oil";
    object      wallHeatFlux;
}
// * * * * * * * * * * * * * * * * * * * * * * * * * * * * * * * * * * * * * //

dimensions      [1 0 -3 0 0 0 0];


internalField   uniform 0;

boundaryField
{
    maxY
    {
        type            calculated;
        value           uniform 0;
    }
    minX
    {
        type            calculated;
        value           uniform 0;
    }
    maxX
    {
        type            calculated;
        value           uniform 0;
    }
    minY
    {
        type            calculated;
        value           uniform 0;
    }
    minZ
    {
        type            calculated;
        value           uniform 0;
    }
    maxZ
    {
        type            calculated;
        value           uniform 0;
    }
    oil_to_sphere
    {
        type            calculated;
        value           nonuniform List<scalar> 
1536
(
605.624
322.543
315.283
-198.644
-210.185
309.62
80.5327
176.008
142.098
-153.149
-361.5
-114.041
137.192
-103.903
-426.835
50.2087
310.07
328.942
35.2424
122.262
241.722
146.87
166.427
47.1528
74.5968
60.8267
73.9888
12.6067
292.398
155.509
377.226
324.712
334.241
53.6066
70.0909
15.3526
41.7869
-41.325
10.565
72.6881
-0.787303
40.1632
132.38
189.884
259.242
69.1522
234.299
160.798
-404.393
59.0056
215.229
145.914
155.416
47.214
283.263
476.602
163.479
122.838
236.918
211.156
125.069
134.266
119.313
39.6183
66.9791
112.722
121.59
221.49
219.582
282.341
38.2344
-212.281
-120.34
61.5002
60.4233
495.407
337.99
-39.8163
50.8315
318.859
245.527
203.311
-195.711
-202.955
291.01
550.496
-269.596
97.6474
211.287
210.028
141.105
24.8443
19.9715
32.879
59.852
187.593
238.549
258.172
358.738
203.52
247.35
34.2524
609.724
217.399
-132.729
54.8236
78.2901
-178.847
-181.85
616.536
335.197
174.178
132.167
166.768
-236.292
-209.623
-292.293
424.603
578.963
350.589
154.297
166.795
7.34114
235.287
374.288
188.298
152.742
-11.2689
252.713
236.434
113.803
224.953
279.672
81.5379
98.8529
296.87
168.422
320.968
-6.08177
312.951
144.893
233.066
236.008
136.321
103.868
129.996
193.466
409.755
97.1396
621.671
271.248
309.102
163.491
178.947
62.3033
187.239
295.54
227.296
667.247
354.403
334.501
422.606
-81.3648
-36.5824
28.6251
24.1769
280.26
398.648
359.391
475.997
10.9677
28.4838
-37.4366
238.887
151.034
177.827
526.102
-71.0585
-139.2
550.874
18.7992
-32.129
-43.2944
-16.518
206.863
550.908
356.299
-2.20783
-92.5984
324.196
-74.5383
275.463
276.413
402.156
-117.321
-488.919
391.202
430.467
72.2129
58.8712
146.879
84.1401
328.275
387.775
263.842
203.975
29.5957
409.774
360.495
171.781
-11.318
66.8935
55.4205
86.3872
243.613
485.143
-96.9326
-108.56
-99.724
-527.844
308.282
240.711
201.241
144.049
155.965
409.808
273.297
60.3587
309.689
-151.347
16.1535
-476.657
135.654
289.038
392.603
362.878
310.194
251.034
349.954
-120.047
-79.2493
-48.6083
437.312
-26.2322
-482.972
-281.537
243.322
120.551
529.589
654.956
171.453
-204.115
-519.77
210.19
349.942
33.6445
42.2879
-248.46
23.2101
409.182
561.171
118.219
41.2981
462.872
357.237
64.612
-128.347
97.1981
494.251
427.037
251.671
277.205
380.816
-43.8572
53.6451
395.505
276.724
314.119
132.07
309.907
477.262
260.511
237.451
447.243
35.0467
31.8536
55.741
11.0133
27.1529
405.99
503.547
-122.802
90.6722
75.5434
85.9147
-2.90764
155.843
128.777
-32.4627
-245.082
19.9796
-110.91
-4.13171
551.424
453.922
448.369
626.736
-61.219
-40.7473
142.767
623.067
556.017
15.9733
133.873
1.3465
271.334
46.6788
235.727
259.22
338.244
285.294
69.3173
294.777
17.1501
382.303
418.719
319.852
296.556
-23.935
510.704
496.685
262.581
-123.648
31.9334
81.3552
260.263
232.491
275.03
-33.1455
377.645
379.902
341.576
446.684
223.916
188.157
121.973
-80.117
189.02
265.352
-82.3615
-102.398
-52.3348
591.353
371.096
446.433
230.384
182.98
398.169
-95.5437
530.185
338.455
189.39
183.079
-114.097
334.054
364.795
-13.7783
190.19
115.908
41.98
271.808
372.94
132.094
62.2596
-59.7263
485.844
384.434
-105.18
400.69
360.467
308.243
485.287
185.822
286.619
-160.801
-114.457
257.843
616.46
320.606
526.22
225.746
79.0786
357.146
-54.7971
-0.828657
232.351
367.797
275.983
233.631
-43.3118
-40.3035
396.541
375.614
385.145
178.61
23.6412
241.006
297.219
364.912
195.133
97.4637
-24.3753
170.579
-68.6724
-178.106
31.2667
-21.2054
175.339
-150.499
82.6922
509.273
76.214
72.7491
364.301
361.32
266.839
116.918
-85.0133
317.818
450.407
252.5
197.884
329.423
134.538
164.837
225.296
-198.758
245.929
380.71
443.418
353.709
289.814
278.732
198.017
103.792
-54.3228
152.153
-23.2739
-113.21
2.53338
-179.155
560.013
521.187
420.885
597.85
-67.3672
564.092
-35.1346
20.4178
308.52
-88.7076
-44.0166
86.112
77.5336
530.859
451.213
226.323
245.954
480.767
398.202
195.145
294.871
-6.67116
368.614
-123.577
440.113
-201.237
280.701
315.923
353.238
67.6615
-56.115
111.667
362.223
124.925
-144.05
365.494
388.512
418.631
640.789
188.988
472.757
-63.7224
-28.226
-392.469
-280.169
194.526
85.6959
48.7727
2.69385
584.232
-47.1402
-93.9875
-133.134
83.2031
-157.347
663.227
-10.47
10.6039
153.474
-354.514
-253.347
33.3892
25.947
132.906
61.4637
386.659
352.285
280.103
192.236
-170.772
47.2452
341.021
-54.8697
-12.538
318.624
489.469
-8.59408
-396.594
-79.702
-362.795
148.018
68.5958
11.543
-126.314
-354.626
271.794
311.947
234.621
142.221
496.264
281.057
261.736
183.329
-25.9909
57.5562
385.297
280.305
93.945
-290.764
202.858
326.734
512.541
212.367
27.6227
515.834
151.17
476.663
-9.22616
70.1957
-46.0067
76.1811
208.247
490.705
-73.3734
10.1105
-27.4235
82.2399
672.733
-128.534
53.4986
-97.9746
152.916
206.819
387.51
497.532
-176.154
-121.846
492.687
525.588
-225.622
472.958
401.958
319.651
391.293
260.918
170.161
186.282
482.995
193.348
266.778
169.59
366.113
213.258
148.416
128.854
-79.5825
319.23
138.672
361.083
287.996
293.694
279.119
195.361
-114.962
393.376
390.866
270.043
145.349
219.373
607.411
-164.036
-14.0547
-68.5678
198.509
-8.68391
610.686
76.5987
105.327
159.105
-387.067
-339.341
42.0749
36.4581
186.132
-45.8285
5.36769
205.839
9.31881
500.16
-86.5141
593.609
67.0691
191.057
-486.401
-350.36
-396.268
11.6133
320.328
51.7381
12.4818
-358.72
175.332
332.918
180.841
738.278
-9.05289
385.952
259.424
331.078
409.751
397.237
327.137
153.783
96.9447
151.08
330.799
116.967
238.408
207.977
232.528
354.902
280.58
317.596
-86.4039
-21.7919
-496.756
-244.652
-185.217
-661.896
32.0301
62.1116
117.73
147.316
-178.509
-74.4677
93.0675
428.575
395.184
87.6798
-137.029
135.987
345.988
264.226
162.427
-157.7
-9.18919
274.178
218.409
157.23
41.0763
300.483
304.423
485.211
308.972
199.932
61.8718
0.985095
-84.0096
21.6408
119.353
626.123
194.919
549.642
-13.775
648.111
33.0342
127.622
-64.9186
-37.6469
64.6357
-92.2511
111.811
-152.59
45.7355
379.898
82.0336
-108.424
503.642
291.589
243.643
137.989
470.95
779.169
-240.044
284.114
224.236
265.802
-94.0285
143.044
-0.343943
228.87
307.917
400.519
-29.0907
272.243
180.788
304.534
286.886
259.974
88.0296
121.413
48.6211
-141.295
-171.868
-49.8682
461.826
46.7408
-96.0972
54.7678
387.879
108.795
458.74
350.244
250.978
199.213
244.919
519.315
-49.2187
279.78
401.955
432.852
193.449
-2.34595
101.116
245.586
440.919
-69.3448
124.704
184.482
381.007
247.847
240.38
469.141
-63.9151
9.39353
-26.648
520.4
396.856
188.493
378.398
12.8098
44.918
377.398
237.502
487.653
-36.1551
333.908
367.393
207.894
231.04
317.563
-32.1921
-187.382
167.32
239.51
527.28
131.89
26.7089
151.019
248.892
329.142
199.955
3.50985
134.319
365.69
-67.6714
5.51546
135.079
41.8072
223.14
198.007
426.815
263.695
352.664
52.9929
152.886
222.657
144.047
101.064
61.1443
57.8189
-58.0522
296.775
215.44
216.249
252.102
-121.894
77.3928
509.506
516.69
4.31454
384.475
247.584
295.458
53.0109
435.967
417.379
-41.7462
108.592
72.9656
60.9835
-133.008
-73.0921
73.0852
409.983
605.616
27.8756
314.972
295.618
242.14
117.434
224.692
424.529
211.796
-33.308
79.4403
54.6442
65.523
265.904
291.88
298.076
312.37
309.444
5.289
327.161
86.1295
280.744
-354.928
253.06
454.247
99.9394
-240.45
159.775
120.678
550.213
-22.0041
327.519
148.337
-191.838
498.263
-109.5
125.26
171.586
-125.394
384.578
228.144
116.879
185.183
226.115
125.365
566.608
-102.993
67.6203
-429.738
83.8089
102.135
180.89
382.1
796.622
-150.637
70.0044
704.675
-107.646
305.928
-2.45915
294.777
-265.036
-21.4139
695.168
-210.173
629.5
-163.97
535.1
-189.349
-25.4438
-401.159
-103.537
655.536
-324.788
142.187
-211.796
467.883
659.383
-309.864
99.751
34.7331
-32.3766
-41.2104
75.325
174.655
173.21
287.667
151.604
477.635
727.908
-316.327
169.003
253.622
174.486
207.551
137.015
99.7739
136.007
343.88
142.399
349.82
63.5793
214.392
454.118
98.1311
277.179
389.77
62.6358
214.376
149.129
284.048
126.593
191.267
105.266
375.791
81.1745
241.036
-167.672
489.151
-296.284
236.034
363.171
503.328
-15.3302
202.322
152.656
202.651
179.439
141.648
339.309
-48.098
-497.743
95.9659
-237.126
397.891
-10.3373
166.743
297.056
-461.791
433.588
-61.181
-371.497
-31.5883
308.167
290.595
177.763
-319.156
172.453
213.293
25.1671
-8.23509
406.62
367.848
47.5149
185.513
408.282
-312.773
336.821
-14.3258
277.598
-286.471
601.961
582.869
367.896
171.974
99.3946
297.712
88.1824
-323.245
-68.5643
317.053
-1.58937
255.804
-242.348
390.592
275.268
-598.007
174.028
228.484
-443.148
442.466
-174.533
402.571
493.131
333.16
-361.131
189.375
111.115
177.384
195.195
258.909
-308.034
57.3343
5.67348
6.90905
382.385
162.214
230.237
291.394
277.02
107.211
198.997
120.721
238.88
414.62
47.2036
95.2528
32.7131
191.345
360.251
43.6376
88.5016
66.4852
166.126
3.77658
23.9555
86.0909
105.229
194.213
76.9055
487.699
338.966
-219.515
-213.85
443.992
-660.015
323.666
211.302
2.36326
105.712
453.753
-462.995
398.307
230.896
-340.287
69.5348
23.5022
163.01
-489.374
444.493
237.627
-453.279
423.836
426.813
-273.163
506.04
366.603
-266.288
30.5033
4.57771
-457.044
172.915
201.64
-66.54
-14.1183
-38.9725
-581.265
-19.8047
-484.445
-615.145
378.239
32.7682
656.58
45.3415
-311.177
449.73
119.233
-403.804
46.2154
33.2836
-409.906
-212.936
426.168
-742.525
-66.5389
-117.96
-662.993
397.043
348.599
170.931
83.1696
28.2149
-64.1059
-528.788
179.205
87.9658
99.2104
171.752
-370.266
308.983
48.2335
141.549
24.9457
132.827
192.645
-80.6793
-347.389
74.1175
200.141
43.0203
82.0984
149.147
-15.1797
93.5427
-383.052
47.0234
227.272
28.9089
107.755
-7.62258
-339.192
451.697
441.276
421.509
504.528
-275.94
-439.209
51.3629
321.027
200.491
303.145
343.115
-65.6361
-119.927
-432.632
-311.714
-16.2566
145.152
128.986
117.459
-119.415
382.389
233.662
-260.864
-26.0446
-76.5831
337.803
-9.73903
-531.867
140.102
159.943
395.707
-392.11
27.0532
192.976
63.0102
106.823
293.474
138.679
-58.3918
532.873
-620.02
-165.224
110.663
-12.865
76.1527
501.554
242.382
161.344
-151.914
456.819
56.9625
191.817
342.557
395.59
375.026
393.819
482.031
540.137
472.204
473.133
162.48
354.727
46.488
105.566
-128.018
-193.802
-573.306
512.418
495.683
420.313
94.2476
194.158
176.965
-4.39711
207.903
350.967
-50.1281
120.177
281.226
28.7481
52.2881
39.5198
90.6735
-16.6886
82.6167
60.8961
-284.886
190.637
-46.2514
118.265
-409.438
509.179
129.694
13.1269
-26.5012
-255.439
157.9
20.1786
-452.96
-161.276
123.674
-204.075
-138.481
552.26
580.498
63.1259
65.6482
314.886
497.818
-459.426
-10.4677
-17.1792
77.7959
75.7715
97.5303
135.995
-125.375
-330.191
441.547
69.5764
-177.181
-130.295
63.3827
166.054
-250.903
100.291
-6.49803
46.4098
502.519
-169.533
-321.376
74.863
27.0603
-18.0356
-323.573
396.921
58.8422
48.5474
61.1364
-449.354
61.879
75.12
-311.305
55.2511
-162.607
235.31
435.637
-5.8954
355.007
224.303
4.13877
13.743
83.6296
-323.125
217.317
253.09
36.4094
-392.981
-83.0355
111.05
129.532
-1.24199
-350.692
9.07117
396.624
223.881
14.2068
544.421
-167.306
337.66
-438.879
-181.902
359.159
-449.586
378.578
8.9059
164.861
47.2286
571.478
-107.846
171.401
504.006
453.998
-224.553
436.655
502.995
-645.961
98.5778
25.142
-423.348
248.745
19.4082
49.3059
50.216
139.992
99.9177
36.946
14.2752
-439.676
248.996
163.611
149.537
190.737
94.2543
3.08249
-79.4455
306.428
-517.285
-23.8926
-40.7914
-494.802
365.358
528.646
120.882
419.465
454.588
-7.04089
-4.21673
246.634
416.674
-17.1799
278.574
-131.826
-423.148
314.692
-46.7312
395.894
541.734
494.671
-392.268
344.222
170.533
-60.486
34.1726
76.6616
21.854
-381.747
411.075
-363.802
401.54
90.322
-131.818
-183.274
92.2433
289.601
473.444
155.17
625.477
321.688
381.665
-463.053
352.021
301.594
396.736
-9.08833
-53.7002
-521.453
125.793
603.936
421.102
-336.115
-113.239
-371.22
-9.37453
136.965
-138.267
751.365
50.3323
-111.309
-322.814
220.193
-48.2195
-481.495
104.7
15.9856
25.1311
33.9164
37.8949
-317.75
-132.177
-419.796
18.015
318.151
237.393
435.988
395.591
-23.3211
-78.057
-443.118
7.47725
289.055
464.063
320.564
339.048
-175.162
-501.018
-103.143
-540.25
312.695
333.261
-77.7353
374.712
305.804
438.299
203.647
165.616
157.877
-23.3361
-452.355
-92.6208
-395.804
-150.447
34.2676
-1.52091
-283.201
-396.066
274.704
606.952
544.013
494.771
150.971
266.159
255.584
124.554
32.5072
125.283
-61.2311
88.8107
91.291
-392.862
303.545
68.3973
-111.786
-293.105
10.8946
144.867
141.855
-0.546744
-290.458
477.224
217.267
22.589
538.126
-51.1164
-415.89
235.759
89.665
93.0949
93.3486
6.99387
-520.053
88.5583
85.6161
-359.578
457.386
58.5832
-741.331
33.1083
133.298
151.732
5.43053
-383.099
-34.0811
-19.9604
-193.618
105.938
-439.863
118.342
102.257
-216.937
528.916
84.0842
-311.788
585.622
127.204
126.877
-297.589
102.388
-366.028
)
;
    }
}


// ************************************************************************* //
