/*--------------------------------*- C++ -*----------------------------------*\
| =========                 |                                                 |
| \\      /  F ield         | OpenFOAM: The Open Source CFD Toolbox           |
|  \\    /   O peration     | Version:  v1906                                 |
|   \\  /    A nd           | Web:      www.OpenFOAM.com                      |
|    \\/     M anipulation  |                                                 |
\*---------------------------------------------------------------------------*/
FoamFile
{
    version     2.0;
    format      ascii;
    class       surfaceScalarField;
    location    "59/oil";
    object      phi;
}
// * * * * * * * * * * * * * * * * * * * * * * * * * * * * * * * * * * * * * //

dimensions      [1 0 -1 0 0 0 0];
oriented        oriented;


internalField   nonuniform List<scalar> 
80688
(
-2.21088e-06
-2.24873e-06
-2.21087e-06
-9.97771e-07
-6.27532e-07
-5.85575e-07
-2.69286e-07
-3.67005e-07
-3.6148e-07
-1.29165e-07
-7.07879e-08
-6.93333e-08
-4.68399e-08
-4.17893e-08
-4.05354e-08
-6.52983e-09
-2.06844e-08
-1.96257e-08
1.53462e-08
-1.13445e-08
-1.05315e-08
2.73799e-08
-6.34987e-09
-5.68386e-09
3.32874e-08
-3.29569e-09
-2.61185e-09
3.4684e-08
-1.13689e-09
-2.5966e-10
3.24266e-08
5.53831e-10
1.70353e-09
2.71006e-08
1.93517e-09
3.39084e-09
1.93293e-08
3.00401e-09
4.76723e-09
9.82233e-09
3.75154e-09
5.75546e-09
-6.12427e-10
4.14951e-09
6.28525e-09
-1.11157e-08
4.18307e-09
6.3202e-09
-2.08434e-08
3.85988e-09
5.86785e-09
-2.90398e-08
3.21334e-09
4.98304e-09
-3.51072e-08
2.3019e-09
3.76547e-09
-3.86499e-08
1.19703e-09
2.34565e-09
-3.95095e-08
-1.98493e-11
8.79446e-10
-3.77756e-08
-1.2371e-09
-4.96728e-10
-3.37394e-08
-2.39044e-09
-1.6458e-09
-2.79213e-08
-3.40047e-09
-2.41768e-09
-2.10108e-08
-4.1765e-09
-2.734e-09
-1.38418e-08
-4.61043e-09
-2.55854e-09
-7.34816e-09
-4.55472e-09
-1.93893e-09
-2.47721e-09
-3.81687e-09
-1.05409e-09
4.53418e-12
-2.19061e-09
-2.91139e-10
2.72365e-12
1.80552e-12
-5.94594e-07
-1.05954e-06
-5.9459e-07
-3.53641e-07
-3.92144e-07
-4.76342e-07
-2.48212e-07
-2.69153e-07
-2.03281e-07
-1.13467e-07
-1.24539e-07
-8.09938e-08
-3.44677e-08
-8.05959e-08
-4.01932e-08
1.35059e-08
-5.34219e-08
-1.5236e-08
4.38333e-08
-3.97518e-08
-1.92012e-09
6.21846e-08
-3.11796e-08
6.47843e-09
7.13906e-08
-2.51281e-08
1.26264e-08
7.28339e-08
-2.02922e-08
1.7712e-08
6.7422e-08
-1.61952e-08
2.21609e-08
5.60615e-08
-1.27283e-08
2.6024e-08
3.98514e-08
-9.94913e-09
2.91632e-08
2.01698e-08
-7.97725e-09
3.14104e-08
-1.37677e-09
-6.91708e-09
3.26132e-08
-2.30596e-08
-6.82501e-09
3.26909e-08
-4.31745e-08
-7.68324e-09
3.16581e-08
-6.0197e-08
-9.3938e-09
2.96296e-08
-7.29185e-08
-1.17881e-08
2.68114e-08
-8.05461e-08
-1.46418e-08
2.34664e-08
-8.27654e-08
-1.77019e-08
1.99013e-08
-7.97294e-08
-2.06943e-08
1.64212e-08
-7.20619e-08
-2.335e-08
1.32921e-08
-6.07856e-08
-2.53972e-08
1.07204e-08
-4.7251e-08
-2.65426e-08
8.83157e-09
-3.30411e-08
-2.64443e-08
7.624e-09
-1.98396e-08
-2.4681e-08
6.92471e-09
-9.23684e-09
-2.07454e-08
6.32578e-09
-2.44021e-09
-1.40924e-08
5.10511e-09
-4.88603e-09
2.44854e-09
-3.68959e-07
-3.21628e-07
-3.68954e-07
-2.42292e-07
-3.12535e-07
-2.06276e-07
-1.54362e-07
-2.32294e-07
-1.24788e-07
-6.65749e-08
-1.54095e-07
-5.82315e-08
-5.14999e-09
-1.19011e-07
-2.30101e-08
3.88449e-08
-9.63286e-08
-1.08817e-09
6.9315e-08
-8.26619e-08
1.24399e-08
8.87342e-08
-7.2683e-08
2.20841e-08
9.83264e-08
-6.45505e-08
2.98302e-08
9.87748e-08
-5.73414e-08
3.66007e-08
9.0737e-08
-5.08258e-08
4.26684e-08
7.5124e-08
-4.50973e-08
4.7982e-08
5.32668e-08
-4.04059e-08
5.2314e-08
2.69055e-08
-3.70335e-08
5.54175e-08
-1.87693e-09
-3.52104e-08
5.70757e-08
-3.08257e-08
-3.50546e-08
5.71784e-08
-5.77117e-08
-3.65395e-08
5.57422e-08
-8.05348e-08
-3.94878e-08
5.29171e-08
-9.77169e-08
-4.35821e-08
4.8976e-08
-1.08219e-07
-4.84057e-08
4.42664e-08
-1.11635e-07
-5.3475e-08
3.91887e-08
-1.08173e-07
-5.82755e-08
3.41192e-08
-9.8638e-08
-6.22867e-08
2.94018e-08
-8.43299e-08
-6.49785e-08
2.52732e-08
-6.69396e-08
-6.57896e-08
2.18567e-08
-4.84047e-08
-6.40875e-08
1.91082e-08
-3.07217e-08
-5.91293e-08
1.67653e-08
-1.57373e-08
-5.00126e-08
1.42828e-08
-4.96593e-09
-3.56207e-08
1.07569e-08
-1.48268e-08
4.97487e-09
-6.84364e-08
-1.84761e-07
-6.84305e-08
-8.63634e-08
-2.17248e-07
-7.73604e-08
-5.8697e-08
-2.04518e-07
-5.54423e-08
-1.22624e-08
-1.77167e-07
-2.33627e-08
3.04739e-08
-1.6042e-07
-1.32673e-09
6.63372e-08
-1.46947e-07
1.47548e-08
9.35694e-08
-1.36513e-07
2.66194e-08
1.11652e-07
-1.27047e-07
3.62812e-08
1.20208e-07
-1.1791e-07
4.48028e-08
1.19111e-07
-1.08902e-07
5.26577e-08
1.08637e-07
-1.00236e-07
5.98838e-08
8.95948e-08
-9.23421e-08
6.62873e-08
6.33955e-08
-8.5746e-08
7.15394e-08
3.2006e-08
-8.09549e-08
7.53109e-08
-2.17685e-09
-7.83527e-08
7.73251e-08
-3.65292e-08
-7.81412e-08
7.7439e-08
-6.84493e-08
-8.02887e-08
7.56693e-08
-9.5606e-08
-8.45282e-08
7.21971e-08
-1.16154e-07
-9.03797e-08
6.73459e-08
-1.28898e-07
-9.71974e-08
6.15353e-08
-1.33363e-07
-1.04238e-07
5.5228e-08
-1.29803e-07
-1.10709e-07
4.88739e-08
-1.19133e-07
-1.1581e-07
4.28526e-08
-1.02824e-07
-1.18715e-07
3.74272e-08
-8.27543e-08
-1.18575e-07
3.27162e-08
-6.10429e-08
-1.14444e-07
2.86447e-08
-3.98611e-08
-1.05207e-07
2.48961e-08
-2.12411e-08
-8.94696e-08
2.0837e-08
-7.07631e-09
-6.52118e-08
1.54264e-08
-2.89894e-08
7.08628e-09
-3.249e-08
-1.19789e-07
-3.24829e-08
-3.25953e-08
-1.85789e-07
-3.13538e-08
-1.01649e-08
-2.09569e-07
-1.73794e-08
2.39671e-08
-2.12132e-07
8.33356e-10
5.86684e-08
-2.1078e-07
1.56587e-08
8.98726e-08
-2.06166e-07
2.80155e-08
1.14681e-07
-1.99842e-07
3.852e-08
1.31359e-07
-1.91794e-07
4.80706e-08
1.38699e-07
-1.82395e-07
5.71444e-08
1.36056e-07
-1.72134e-07
6.58759e-08
1.23413e-07
-1.61695e-07
7.41022e-08
1.01482e-07
-1.51889e-07
8.14774e-08
7.17134e-08
-1.43553e-07
8.75759e-08
3.62312e-08
-1.37437e-07
9.19647e-08
-2.32123e-09
-1.34109e-07
9.43084e-08
-4.10317e-08
-1.33856e-07
9.44256e-08
-7.69999e-08
-1.36649e-07
9.23287e-08
-1.07631e-07
-1.42129e-07
8.82315e-08
-1.30879e-07
-1.49644e-07
8.25121e-08
-1.45426e-07
-1.58313e-07
7.56631e-08
-1.50761e-07
-1.67126e-07
6.82231e-08
-1.47169e-07
-1.75002e-07
6.07008e-08
-1.35655e-07
-1.80836e-07
5.35122e-08
-1.17804e-07
-1.8352e-07
4.69546e-08
-9.56189e-08
-1.81905e-07
4.11447e-08
-7.13432e-08
-1.74708e-07
3.59888e-08
-4.72743e-08
-1.60407e-07
3.11313e-08
-2.56395e-08
-1.36969e-07
2.58645e-08
-8.71517e-09
-1.01162e-07
1.90256e-08
-4.64312e-08
8.72657e-09
-8.37639e-09
-1.03044e-07
-8.36785e-09
6.86233e-11
-1.90557e-07
-3.67711e-09
2.09899e-08
-2.36385e-07
5.89441e-09
5.00543e-08
-2.5868e-07
1.74841e-08
8.08102e-08
-2.6981e-07
2.82734e-08
1.09377e-07
-2.7311e-07
3.83765e-08
1.32599e-07
-2.71113e-07
4.80493e-08
1.48187e-07
-2.65028e-07
5.76456e-08
1.54478e-07
-2.55984e-07
6.72981e-08
1.50485e-07
-2.45046e-07
7.6905e-08
1.35987e-07
-2.33334e-07
8.61367e-08
1.11609e-07
-2.22022e-07
9.45104e-08
7.88216e-08
-2.12248e-07
1.01483e-07
3.98871e-08
-2.05019e-07
1.06516e-07
-2.3466e-09
-2.01074e-07
1.09199e-07
-4.47164e-08
-2.00798e-07
1.09311e-07
-8.40678e-08
-2.04163e-07
1.06865e-07
-1.17576e-07
-2.10723e-07
1.02102e-07
-1.43029e-07
-2.19659e-07
9.5468e-08
-1.5902e-07
-2.29864e-07
8.75419e-08
-1.65018e-07
-2.40074e-07
7.89456e-08
-1.61345e-07
-2.48922e-07
7.0248e-08
-1.4909e-07
-2.55034e-07
6.19423e-08
-1.2993e-07
-2.57016e-07
5.43357e-08
-1.05971e-07
-2.53419e-07
4.75555e-08
-7.95546e-08
-2.42619e-07
4.14946e-08
-5.31045e-08
-2.22624e-07
3.57665e-08
-2.90272e-08
-1.90645e-07
2.95992e-08
-9.94128e-09
-1.41956e-07
2.17084e-08
-6.63267e-08
9.95424e-09
2.09652e-09
-1.07247e-07
2.10627e-09
1.61443e-08
-2.14933e-07
1.03288e-08
3.8831e-08
-2.78081e-07
1.90095e-08
6.71556e-08
-3.15084e-07
2.80791e-08
9.68146e-08
-3.36477e-07
3.70087e-08
1.2443e-07
-3.46782e-07
4.60566e-08
1.46959e-07
-3.49092e-07
5.54492e-08
1.6195e-07
-3.45361e-07
6.53424e-08
1.6753e-07
-3.37258e-07
7.56934e-08
1.62509e-07
-3.26274e-07
8.62504e-08
1.46524e-07
-3.13904e-07
9.65544e-08
1.20139e-07
-3.01631e-07
1.05995e-07
8.48522e-08
-2.9086e-07
1.13898e-07
4.30303e-08
-2.82823e-07
1.19626e-07
-2.28813e-09
-2.78432e-07
1.22676e-07
-4.77179e-08
-2.78149e-07
1.22781e-07
-8.98781e-08
-2.81951e-07
1.19948e-07
-1.25743e-07
-2.89321e-07
1.14462e-07
-1.52962e-07
-2.99288e-07
1.06848e-07
-1.70055e-07
-3.10545e-07
9.77741e-08
-1.76493e-07
-3.21594e-07
8.79584e-08
-1.72653e-07
-3.30832e-07
7.80696e-08
-1.59703e-07
-3.3663e-07
6.86459e-08
-1.39409e-07
-3.37342e-07
6.00327e-08
-1.13971e-07
-3.31228e-07
5.23698e-08
-8.58173e-08
-3.16308e-07
4.55352e-08
-5.74799e-08
-2.90073e-07
3.9112e-08
-3.15239e-08
-2.48877e-07
3.22757e-08
-1.08253e-08
-1.86291e-07
2.36358e-08
-8.79918e-08
1.08398e-08
7.09432e-09
-1.21446e-07
7.10499e-09
2.48256e-08
-2.50413e-07
1.77489e-08
4.94334e-08
-3.29167e-07
2.64776e-08
7.82253e-08
-3.78518e-07
3.46417e-08
1.07857e-07
-4.0892e-07
4.28113e-08
1.35283e-07
-4.25699e-07
5.14904e-08
1.57606e-07
-4.32384e-07
6.09692e-08
1.72352e-07
-4.31454e-07
7.13468e-08
1.77523e-07
-4.2492e-07
8.24924e-08
1.71818e-07
-4.14619e-07
9.40497e-08
1.54762e-07
-4.02312e-07
1.05463e-07
1.26867e-07
-3.89749e-07
1.16013e-07
8.96462e-08
-3.78538e-07
1.249e-07
4.55685e-08
-3.701e-07
1.31354e-07
-2.17645e-09
-3.6547e-07
1.34783e-07
-5.00096e-08
-3.65194e-07
1.34879e-07
-9.43536e-08
-3.69252e-07
1.31645e-07
-1.32012e-07
-3.77062e-07
1.25401e-07
-1.60524e-07
-3.8753e-07
1.16754e-07
-1.78361e-07
-3.99203e-07
1.06495e-07
-1.85018e-07
-4.10386e-07
9.54494e-08
-1.8094e-07
-4.19281e-07
8.43699e-08
-1.67366e-07
-4.24052e-07
7.38482e-08
-1.46154e-07
-4.22831e-07
6.42771e-08
-1.1958e-07
-4.13612e-07
5.58112e-08
-9.01466e-08
-3.9406e-07
4.83191e-08
-6.04594e-08
-3.61112e-07
4.13515e-08
-3.31982e-08
-3.10173e-07
3.40352e-08
-1.1411e-08
-2.32975e-07
2.48974e-08
-1.10829e-07
1.14267e-08
9.47115e-09
-1.404e-07
9.48221e-09
2.92994e-08
-2.91794e-07
2.15519e-08
5.52684e-08
-3.85641e-07
3.05051e-08
8.46296e-08
-4.46267e-07
3.83881e-08
1.14459e-07
-4.85055e-07
4.63055e-08
1.41902e-07
-5.08099e-07
5.49572e-08
1.64191e-07
-5.1937e-07
6.46969e-08
1.78857e-07
-5.21732e-07
7.56126e-08
1.83862e-07
-5.17479e-07
8.75536e-08
1.77804e-07
-5.08657e-07
1.00096e-07
1.60151e-07
-4.97248e-07
1.12589e-07
1.31335e-07
-4.85145e-07
1.24213e-07
9.28766e-08
-4.74116e-07
1.34036e-07
4.73135e-08
-4.65717e-07
1.4118e-07
-2.03827e-09
-4.61097e-07
1.44978e-07
-5.14561e-08
-4.60839e-07
1.45062e-07
-9.7212e-08
-4.6493e-07
1.41434e-07
-1.35989e-07
-4.72744e-07
1.34459e-07
-1.65241e-07
-4.83116e-07
1.24837e-07
-1.83428e-07
-4.94462e-07
1.13447e-07
-1.90084e-07
-5.04946e-07
1.01215e-07
-1.85721e-07
-5.12655e-07
8.90111e-08
-1.71657e-07
-5.15604e-07
7.74881e-08
-1.49834e-07
-5.1173e-07
6.70756e-08
-1.22571e-07
-4.98796e-07
5.79209e-08
-9.24109e-08
-4.74111e-07
4.98904e-08
-6.19941e-08
-4.34064e-07
4.25348e-08
-3.40502e-08
-3.73042e-07
3.49252e-08
-1.17063e-08
-2.80841e-07
2.55215e-08
-1.34258e-07
1.17226e-08
1.04865e-08
-1.61384e-07
1.04976e-08
3.12181e-08
-3.35714e-07
2.31893e-08
5.77224e-08
-4.44359e-07
3.22142e-08
8.71903e-08
-5.15702e-07
3.99668e-08
1.16886e-07
-5.62551e-07
4.78004e-08
1.44117e-07
-5.91844e-07
5.65138e-08
1.66249e-07
-6.08023e-07
6.65208e-08
1.80817e-07
-6.14224e-07
7.79234e-08
1.85794e-07
-6.12989e-07
9.05331e-08
1.79724e-07
-6.06498e-07
1.03912e-07
1.61969e-07
-5.96827e-07
1.17332e-07
1.32926e-07
-5.85973e-07
1.29872e-07
9.40908e-08
-5.75791e-07
1.4051e-07
4.80238e-08
-5.6792e-07
1.48271e-07
-1.89459e-09
-5.63552e-07
1.52374e-07
-5.18602e-08
-5.63319e-07
1.52446e-07
-9.80661e-08
-5.67213e-07
1.48489e-07
-1.37121e-07
-5.74571e-07
1.40881e-07
-1.66447e-07
-5.84182e-07
1.30391e-07
-1.84535e-07
-5.94395e-07
1.18021e-07
-1.90962e-07
-6.03327e-07
1.04808e-07
-1.86319e-07
-6.08964e-07
9.16666e-08
-1.72e-07
-6.09243e-07
7.93202e-08
-1.49975e-07
-6.01983e-07
6.8228e-08
-1.22587e-07
-5.8474e-07
5.85571e-08
-9.23681e-08
-5.54508e-07
5.01776e-08
-6.19518e-08
-5.07074e-07
4.25937e-08
-3.40255e-08
-4.35844e-07
3.48752e-08
-1.16997e-08
-3.28641e-07
2.54749e-08
-1.57674e-07
1.17161e-08
1.06721e-08
-1.82738e-07
1.06821e-08
3.13048e-08
-3.79681e-07
2.33342e-08
5.73998e-08
-5.02642e-07
3.21876e-08
8.6188e-08
-5.84224e-07
3.97337e-08
1.1511e-07
-6.38891e-07
4.74179e-08
1.4163e-07
-6.74475e-07
5.61114e-08
1.63223e-07
-6.95868e-07
6.62515e-08
1.77532e-07
-7.06472e-07
7.79384e-08
1.82531e-07
-7.08972e-07
9.09837e-08
1.76734e-07
-7.05619e-07
1.04918e-07
1.59451e-07
-6.98508e-07
1.18965e-07
1.31005e-07
-6.89677e-07
1.3215e-07
9.28265e-08
-6.80977e-07
1.43364e-07
4.74485e-08
-6.74091e-07
1.51548e-07
-1.76211e-09
-6.70206e-07
1.55865e-07
-5.1003e-08
-6.70002e-07
1.55923e-07
-9.6473e-08
-6.73459e-07
1.51716e-07
-1.34779e-07
-6.7992e-07
1.43655e-07
-1.63395e-07
-6.88139e-07
1.32574e-07
-1.80869e-07
-6.96445e-07
1.19524e-07
-1.86827e-07
-7.02976e-07
1.05607e-07
-1.81956e-07
-7.05667e-07
9.18321e-08
-1.67692e-07
-7.02473e-07
7.89659e-08
-1.46002e-07
-6.91143e-07
6.74697e-08
-1.19192e-07
-6.69074e-07
5.75242e-08
-8.97351e-08
-6.32966e-07
4.90006e-08
-6.01461e-08
-5.78081e-07
4.14184e-08
-3.30246e-08
-4.968e-07
3.38349e-08
-1.13623e-08
-3.75002e-07
2.46988e-08
-1.80415e-07
1.13782e-08
1.02408e-08
-2.03229e-07
1.02498e-08
2.98511e-08
-4.21551e-07
2.22591e-08
5.45447e-08
-5.57951e-07
3.06153e-08
8.17044e-08
-6.49156e-07
3.77723e-08
1.08996e-07
-7.11349e-07
4.51667e-08
1.34065e-07
-7.53194e-07
5.3651e-08
1.54576e-07
-7.80036e-07
6.36569e-08
1.68319e-07
-7.9553e-07
7.53153e-08
1.73302e-07
-8.02386e-07
8.84301e-08
1.68078e-07
-8.02917e-07
1.02522e-07
1.51906e-07
-7.99148e-07
1.16811e-07
1.24983e-07
-7.93033e-07
1.3028e-07
8.86738e-08
-7.86432e-07
1.41764e-07
4.53672e-08
-7.80936e-07
1.50152e-07
-1.64992e-09
-7.77764e-07
1.54575e-07
-4.86835e-08
-7.77591e-07
1.54623e-07
-9.20308e-08
-7.80411e-07
1.50299e-07
-1.28423e-07
-7.85532e-07
1.42004e-07
-1.55417e-07
-7.91744e-07
1.306e-07
-1.71659e-07
-7.97425e-07
1.17221e-07
-1.7693e-07
-8.00727e-07
1.03022e-07
-1.71926e-07
-7.99715e-07
8.90439e-08
-1.581e-07
-7.92352e-07
7.60533e-08
-1.37385e-07
-7.76373e-07
6.45148e-08
-1.11979e-07
-7.49102e-07
5.46215e-08
-8.41889e-08
-7.06982e-07
4.62264e-08
-5.6384e-08
-6.44755e-07
3.88685e-08
-3.0957e-08
-5.53884e-07
3.16564e-08
-1.06518e-08
-4.18407e-07
2.30999e-08
-2.01733e-07
1.06665e-08
9.28923e-09
-2.21816e-07
9.29807e-09
2.6993e-08
-4.59371e-07
2.0116e-08
4.9233e-08
-6.07826e-07
2.76353e-08
7.37141e-08
-7.07775e-07
3.41385e-08
9.835e-08
-7.76965e-07
4.098e-08
1.21095e-07
-8.24904e-07
4.89651e-08
1.39863e-07
-8.57294e-07
5.84907e-08
1.52619e-07
-8.77994e-07
6.97084e-08
1.57529e-07
-8.89733e-07
8.2437e-08
1.53167e-07
-8.94768e-07
9.62136e-08
1.38754e-07
-8.95016e-07
1.10281e-07
1.14403e-07
-8.92273e-07
1.23591e-07
8.12895e-08
-8.88292e-07
1.34973e-07
4.16051e-08
-8.84562e-07
1.4331e-07
-1.56535e-09
-8.82302e-07
1.47708e-07
-4.47407e-08
-8.82156e-07
1.4774e-07
-8.44415e-08
-8.84116e-07
1.43406e-07
-1.17567e-07
-8.87537e-07
1.3513e-07
-1.41907e-07
-8.91204e-07
1.23799e-07
-1.56302e-07
-8.93585e-07
1.10556e-07
-1.60619e-07
-8.92987e-07
9.65769e-08
-1.55613e-07
-8.87602e-07
8.28799e-08
-1.42691e-07
-8.7549e-07
7.02165e-08
-1.2368e-07
-8.5446e-07
5.90767e-08
-1.00577e-07
-8.21813e-07
4.96082e-08
-7.54957e-08
-7.73738e-07
4.16747e-08
-5.05067e-08
-7.04596e-07
3.48525e-08
-2.77091e-08
-6.04983e-07
2.83018e-08
-9.5452e-09
-4.57218e-07
2.06465e-08
-2.20837e-07
9.55859e-09
7.85492e-09
-2.37528e-07
7.85685e-09
2.27688e-08
-4.91221e-07
1.69361e-08
4.15129e-08
-6.49821e-07
2.32511e-08
6.21852e-08
-7.5727e-07
2.8822e-08
8.31108e-08
-8.32709e-07
3.48176e-08
1.02579e-07
-8.86321e-07
4.19487e-08
1.18834e-07
-9.24165e-07
5.06154e-08
1.3012e-07
-9.5021e-07
6.09304e-08
1.34818e-07
-9.67192e-07
7.27611e-08
1.31593e-07
-9.77217e-07
8.56742e-08
1.19653e-07
-9.82034e-07
9.89576e-08
9.89758e-08
-9.83257e-07
1.11662e-07
7.0472e-08
-9.82424e-07
1.22636e-07
3.60647e-08
-9.80883e-07
1.30729e-07
-1.50789e-09
-9.79742e-07
1.35012e-07
-3.90736e-08
-9.7962e-07
1.35029e-07
-7.34536e-08
-9.80515e-07
1.3078e-07
-1.0192e-07
-9.81794e-07
1.22723e-07
-1.22546e-07
-9.82376e-07
1.11799e-07
-1.34404e-07
-9.80866e-07
9.91386e-08
-1.37505e-07
-9.75763e-07
8.58771e-08
-1.32646e-07
-9.65481e-07
7.30209e-08
-1.21142e-07
-9.48249e-07
6.12553e-08
-1.04616e-07
-9.21979e-07
5.09922e-08
-8.48217e-08
-8.83987e-07
4.23805e-08
-6.35166e-08
-8.30325e-07
3.52812e-08
-4.24146e-08
-7.54978e-07
2.92799e-08
-2.32602e-08
-6.47815e-07
2.36775e-08
-8.01358e-09
-4.89739e-07
1.72745e-08
-2.36875e-07
8.02506e-09
5.96215e-09
-2.49454e-07
5.9639e-09
1.72408e-08
-5.1528e-07
1.27811e-08
3.14678e-08
-6.81605e-07
1.75563e-08
4.72383e-08
-7.94925e-07
2.1885e-08
6.33444e-08
-8.75526e-07
2.67112e-08
7.85278e-08
-9.34125e-07
3.26208e-08
9.14533e-08
-9.77034e-07
3.99436e-08
1.00733e-07
-1.00828e-06
4.87902e-08
1.05041e-07
-1.03058e-06
5.90824e-08
1.03186e-07
-1.04587e-06
7.05042e-08
9.43794e-08
-1.05567e-06
8.2442e-08
7.84724e-08
-1.06136e-06
9.40115e-08
5.60641e-08
-1.06414e-06
1.04124e-07
2.8653e-08
-1.06518e-06
1.11704e-07
-1.47591e-09
-1.06537e-06
1.15759e-07
-3.15874e-08
-1.06527e-06
1.1576e-07
-5.8953e-08
-1.06486e-06
1.1171e-07
-8.12818e-08
-1.06361e-06
1.0414e-07
-9.70844e-08
-1.06061e-06
9.40324e-08
-1.05736e-07
-1.0547e-06
8.24899e-08
-1.07404e-07
-1.0447e-06
7.06085e-08
-1.02901e-07
-1.02921e-06
5.92282e-08
-9.33874e-08
-1.00673e-06
4.89629e-08
-8.01688e-08
-9.75354e-07
4.01569e-08
-6.46781e-08
-9.32347e-07
3.28688e-08
-4.82261e-08
-8.7376e-07
2.69833e-08
-3.21239e-08
-7.93244e-07
2.21636e-08
-1.75906e-08
-6.80168e-07
1.78199e-08
-6.06581e-09
-5.14259e-07
1.29956e-08
-2.49017e-07
6.0756e-09
3.65495e-09
-2.56763e-07
3.65414e-09
1.05551e-08
-5.29922e-07
7.74193e-09
1.92813e-08
-7.00973e-07
1.06424e-08
2.91054e-08
-8.1818e-07
1.34311e-08
3.93441e-08
-9.02518e-07
1.67533e-08
4.92646e-08
-9.65069e-07
2.10231e-08
5.80356e-08
-1.0123e-06
2.64928e-08
6.47286e-08
-1.04827e-06
3.32978e-08
6.83661e-08
-1.07562e-06
4.13973e-08
6.80196e-08
-1.09609e-06
5.05662e-08
6.29778e-08
-1.11098e-06
6.03488e-08
5.28841e-08
-1.12135e-06
7.00832e-08
3.80082e-08
-1.12808e-06
7.88185e-08
1.93344e-08
-1.132e-06
8.55022e-08
-1.46151e-09
-1.13372e-06
8.91446e-08
-2.22304e-08
-1.13363e-06
8.91322e-08
-4.08296e-08
-1.13173e-06
8.54727e-08
-5.55824e-08
-1.12763e-06
7.87768e-08
-6.55338e-08
-1.12071e-06
7.00542e-08
-7.03937e-08
-1.11018e-06
6.03327e-08
-7.05435e-08
-1.09511e-06
5.05569e-08
-6.66679e-08
-1.07451e-06
4.1417e-08
-5.96987e-08
-1.04704e-06
3.33495e-08
-5.06604e-08
-1.01097e-06
2.65778e-08
-4.04347e-08
-9.63711e-07
2.11384e-08
-2.98995e-08
-9.01188e-07
1.68926e-08
-1.97732e-08
-8.16954e-07
1.3584e-08
-1.07883e-08
-6.99948e-07
1.07951e-08
-3.72154e-09
-5.292e-07
7.87443e-09
-2.56468e-07
3.72974e-09
9.97755e-10
-2.58758e-07
9.97524e-10
2.84892e-09
-5.33735e-07
1.96176e-09
5.304e-09
-7.06145e-07
2.71716e-09
8.28557e-09
-8.24862e-07
3.7001e-09
1.17526e-08
-9.11184e-07
5.19947e-09
1.55217e-08
-9.76268e-07
7.43012e-09
1.93469e-08
-1.02664e-06
1.05174e-08
2.28341e-08
-1.06633e-06
1.45758e-08
2.54646e-08
-1.09788e-06
1.96365e-08
2.66308e-08
-1.12289e-06
2.5634e-08
2.57409e-08
-1.14241e-06
3.23192e-08
2.23482e-08
-1.15717e-06
3.92137e-08
1.63427e-08
-1.1677e-06
4.5623e-08
8.0986e-09
-1.17445e-06
5.06931e-08
-1.45896e-09
-1.17768e-06
5.35127e-08
-1.09852e-08
-1.17761e-06
5.35033e-08
-1.91474e-08
-1.17422e-06
5.0645e-08
-2.50008e-08
-1.16731e-06
4.55294e-08
-2.82072e-08
-1.15661e-06
3.91056e-08
-2.88788e-08
-1.14172e-06
3.22106e-08
-2.74698e-08
-1.12206e-06
2.55379e-08
-2.45791e-08
-1.09696e-06
1.9562e-08
-2.08172e-08
-1.06534e-06
1.45301e-08
-1.67097e-08
-1.02558e-06
1.05026e-08
-1.26499e-08
-9.75215e-07
7.44475e-09
-8.91497e-09
-9.10163e-07
5.24003e-09
-5.68264e-09
-8.23947e-07
3.76109e-09
-3.02352e-09
-7.05398e-07
2.79068e-09
-1.04249e-09
-5.33219e-07
2.03733e-09
-2.5856e-07
1.04956e-09
-1.90724e-09
-2.54936e-07
-1.91439e-09
-5.55674e-09
-5.25743e-07
-4.34242e-09
-9.95693e-09
-6.95797e-07
-5.9486e-09
-1.44404e-08
-8.1341e-07
-6.96842e-09
-1.84555e-08
-8.99617e-07
-7.55171e-09
-2.15159e-08
-9.6547e-07
-7.73755e-09
-2.32843e-08
-1.01739e-06
-7.48412e-09
-2.35451e-08
-1.0593e-06
-6.76925e-09
-2.2296e-08
-1.09363e-06
-5.50687e-09
-1.9753e-08
-1.12179e-06
-3.64201e-09
-1.62622e-08
-1.14468e-06
-1.21388e-09
-1.23429e-08
-1.16276e-06
1.66378e-09
-8.41348e-09
-1.17625e-06
4.62437e-09
-4.79343e-09
-1.18525e-06
7.17509e-09
-1.46103e-09
-1.18971e-06
8.70538e-09
1.90858e-09
-1.18965e-06
8.67322e-09
5.62975e-09
-1.18503e-06
7.08925e-09
9.72446e-09
-1.17589e-06
4.49336e-09
1.38622e-08
-1.16227e-06
1.52103e-09
1.75867e-08
-1.14407e-06
-1.36713e-09
2.0405e-08
-1.12107e-06
-3.803e-09
2.19322e-08
-1.09283e-06
-5.65077e-09
2.19481e-08
-1.05847e-06
-6.88725e-09
2.047e-08
-1.01653e-06
-7.57307e-09
1.76687e-08
-9.64617e-07
-7.79731e-09
1.39155e-08
-8.98827e-07
-7.58232e-09
9.65452e-09
-8.12714e-07
-6.97241e-09
5.41769e-09
-6.95233e-07
-5.92813e-09
1.8844e-09
-5.25381e-07
-4.30464e-09
-2.54798e-07
-1.87792e-09
-4.93161e-09
-2.45067e-07
-4.93778e-09
-1.42737e-08
-5.05531e-07
-1.08701e-08
-2.57897e-08
-6.69368e-07
-1.49129e-08
-3.80489e-08
-7.83094e-07
-1.80568e-08
-4.98692e-08
-8.66925e-07
-2.08725e-08
-6.01401e-08
-9.31516e-07
-2.3683e-08
-6.78872e-08
-9.83025e-07
-2.66153e-08
-7.22751e-08
-1.02524e-06
-2.96793e-08
-7.27398e-08
-1.06036e-06
-3.28052e-08
-6.89762e-08
-1.08975e-06
-3.58024e-08
-6.10938e-08
-1.11411e-06
-3.84497e-08
-4.95493e-08
-1.13375e-06
-4.05479e-08
-3.5114e-08
-1.14868e-06
-4.20103e-08
-1.87605e-08
-1.15879e-06
-4.28157e-08
-1.46162e-09
-1.16388e-06
-4.31363e-08
1.58795e-08
-1.1638e-06
-4.31885e-08
3.23568e-08
-1.15857e-06
-4.29318e-08
4.69602e-08
-1.14833e-06
-4.21658e-08
5.87243e-08
-1.13328e-06
-4.07534e-08
6.68683e-08
-1.11355e-06
-3.86703e-08
7.09137e-08
-1.08911e-06
-3.60095e-08
7.0747e-08
-1.05967e-06
-3.2998e-08
6.66416e-08
-1.02451e-06
-2.98502e-08
5.91851e-08
-9.82315e-07
-2.6758e-08
4.91807e-08
-9.30817e-07
-2.37949e-08
3.75945e-08
-8.66286e-07
-2.09548e-08
2.55379e-08
-7.82551e-07
-1.81068e-08
1.41835e-08
-6.68948e-07
-1.49306e-08
4.91742e-09
-5.05257e-07
-1.08583e-08
-2.44969e-07
-4.91101e-09
-7.91755e-09
-2.29226e-07
-7.92338e-09
-2.28619e-08
-4.73275e-07
-1.73115e-08
-4.13506e-08
-6.27128e-07
-2.3751e-08
-6.12674e-08
-7.342e-07
-2.89774e-08
-8.07902e-08
-8.13403e-07
-3.39985e-08
-9.82277e-08
-8.74644e-07
-3.94353e-08
-1.1195e-07
-9.23708e-07
-4.55948e-08
-1.20541e-07
-9.64087e-07
-5.25588e-08
-1.22819e-07
-9.97878e-07
-6.02008e-08
-1.18017e-07
-1.02632e-06
-6.82329e-08
-1.05907e-07
-1.05e-06
-7.62252e-08
-8.68738e-08
-1.06917e-06
-8.36168e-08
-6.19667e-08
-1.08379e-06
-8.98008e-08
-3.28143e-08
-1.09372e-06
-9.42232e-08
-1.45379e-09
-1.09873e-06
-9.65085e-08
2.9946e-08
-1.09866e-06
-9.65465e-08
5.92082e-08
-1.0935e-06
-9.43297e-08
8.43111e-08
-1.08347e-06
-8.99661e-08
1.03577e-07
-1.06872e-06
-8.38212e-08
1.15957e-07
-1.04948e-06
-7.64498e-08
1.21049e-07
-1.02574e-06
-6.84627e-08
1.19063e-07
-9.97262e-07
-6.04215e-08
1.10773e-07
-9.63459e-07
-5.27604e-08
9.73249e-08
-9.23096e-07
-4.57712e-08
8.01501e-08
-8.74061e-07
-3.95816e-08
6.08639e-08
-8.12887e-07
-3.41127e-08
4.11384e-08
-7.33768e-07
-2.9057e-08
2.27778e-08
-6.26793e-07
-2.37937e-08
7.90993e-09
-4.73072e-07
-1.73165e-08
-2.29156e-07
-7.90319e-09
-1.06782e-08
-2.07863e-07
-1.06847e-08
-3.07944e-08
-4.29912e-07
-2.32469e-08
-5.57408e-08
-5.70309e-07
-3.18728e-08
-8.27292e-08
-6.68191e-07
-3.902e-08
-1.09401e-07
-7.40625e-07
-4.61066e-08
-1.33496e-07
-7.96574e-07
-5.39745e-08
-1.52815e-07
-8.41299e-07
-6.30906e-08
-1.65345e-07
-8.77947e-07
-7.36098e-08
-1.69353e-07
-9.08472e-07
-8.5398e-08
-1.63619e-07
-9.33959e-07
-9.80928e-08
-1.47592e-07
-9.55014e-07
-1.11013e-07
-1.21611e-07
-9.71902e-07
-1.23247e-07
-8.69612e-08
-9.84669e-07
-1.33766e-07
-4.59052e-08
-9.93269e-07
-1.41503e-07
-1.43627e-09
-9.97582e-07
-1.45615e-07
4.30751e-08
-9.97517e-07
-1.45651e-07
8.42538e-08
-9.93088e-07
-1.41595e-07
1.19077e-07
-9.84376e-07
-1.33914e-07
1.45298e-07
-9.71493e-07
-1.23449e-07
1.61597e-07
-9.54536e-07
-1.11241e-07
1.67624e-07
-9.33434e-07
-9.833e-08
1.63908e-07
-9.07917e-07
-8.56299e-08
1.5168e-07
-8.77405e-07
-7.3826e-08
1.32634e-07
-8.40765e-07
-6.32848e-08
1.08801e-07
-7.96088e-07
-5.414e-08
8.23499e-08
-7.40196e-07
-4.624e-08
5.55442e-08
-6.67845e-07
-3.91178e-08
3.07303e-08
-5.7005e-07
-3.193e-08
1.06751e-08
-4.29756e-07
-2.32613e-08
-2.07813e-07
-1.06677e-08
-1.3048e-08
-1.81761e-07
-1.30537e-08
-3.75881e-08
-3.7705e-07
-2.83219e-08
-6.8042e-08
-5.01039e-07
-3.88155e-08
-1.01103e-07
-5.87562e-07
-4.75685e-08
-1.33932e-07
-6.51447e-07
-5.63486e-08
-1.63764e-07
-7.00509e-07
-6.62329e-08
-1.87916e-07
-7.39351e-07
-7.77959e-08
-2.03834e-07
-7.70799e-07
-9.1229e-08
-2.09326e-07
-7.96563e-07
-1.06417e-07
-2.02754e-07
-8.17675e-07
-1.22856e-07
-1.83332e-07
-8.34756e-07
-1.3968e-07
-1.51351e-07
-8.48131e-07
-1.55751e-07
-1.08335e-07
-8.58036e-07
-1.6965e-07
-5.70775e-08
-8.64576e-07
-1.7995e-07
-1.40685e-09
-8.67811e-07
-1.85442e-07
5.43012e-08
-8.6775e-07
-1.85475e-07
1.05674e-07
-8.64401e-07
-1.80059e-07
1.48864e-07
-8.57755e-07
-1.69812e-07
1.8109e-07
-8.47776e-07
-1.55944e-07
2.00775e-07
-8.34323e-07
-1.39898e-07
2.0763e-07
-8.17205e-07
-1.23085e-07
2.0244e-07
-7.9608e-07
-1.06647e-07
1.86802e-07
-7.7032e-07
-9.14475e-08
1.62932e-07
-7.38901e-07
-7.79947e-08
1.33347e-07
-7.00096e-07
-6.64065e-08
1.00738e-07
-6.51095e-07
-5.64925e-08
6.78585e-08
-5.87296e-07
-4.76693e-08
3.75225e-08
-5.0084e-07
-3.88737e-08
1.30466e-08
-3.76937e-07
-2.83426e-08
-1.81728e-07
-1.30392e-08
-1.4856e-08
-1.52044e-07
-1.48614e-08
-4.27564e-08
-3.16978e-07
-3.21714e-08
-7.74378e-08
-4.22329e-07
-4.40293e-08
-1.15193e-07
-4.95856e-07
-5.39509e-08
-1.52836e-07
-5.49837e-07
-6.39672e-08
-1.87202e-07
-5.90841e-07
-7.53017e-08
-2.15156e-07
-6.22781e-07
-8.86158e-08
-2.33736e-07
-6.48076e-07
-1.04143e-07
-2.40363e-07
-6.68241e-07
-1.21696e-07
-2.33097e-07
-6.84249e-07
-1.40693e-07
-2.10985e-07
-6.96702e-07
-1.60166e-07
-1.74279e-07
-7.06079e-07
-1.78759e-07
-1.24765e-07
-7.12719e-07
-1.94831e-07
-6.56469e-08
-7.1694e-07
-2.06755e-07
-1.36266e-09
-7.18957e-07
-2.13138e-07
6.29584e-08
-7.18904e-07
-2.13167e-07
1.22184e-07
-7.16785e-07
-2.06842e-07
1.71877e-07
-7.1248e-07
-1.94968e-07
2.08788e-07
-7.05752e-07
-1.78935e-07
2.31172e-07
-6.96336e-07
-1.60371e-07
2.38718e-07
-6.83842e-07
-1.40909e-07
2.32385e-07
-6.67831e-07
-1.21916e-07
2.14087e-07
-6.47667e-07
-1.04355e-07
1.86397e-07
-6.22399e-07
-8.88117e-08
1.52281e-07
-5.90505e-07
-7.54753e-08
1.14854e-07
-5.49555e-07
-6.4113e-08
7.72629e-08
-4.95634e-07
-5.40697e-08
4.26995e-08
-4.22173e-07
-4.41035e-08
1.48556e-08
-3.16898e-07
-3.21952e-08
-1.52024e-07
-1.48483e-08
-1.59388e-08
-1.20163e-07
-1.59422e-08
-4.58788e-08
-2.52581e-07
-3.44578e-08
-8.32118e-08
-3.37904e-07
-4.70913e-08
-1.24028e-07
-3.97398e-07
-5.76422e-08
-1.64894e-07
-4.40649e-07
-6.83214e-08
-2.02353e-07
-4.72929e-07
-8.04525e-08
-2.32947e-07
-4.97455e-07
-9.47322e-08
-2.53395e-07
-5.16238e-07
-1.11392e-07
-2.60822e-07
-5.30603e-07
-1.30211e-07
-2.53094e-07
-5.41417e-07
-1.5056e-07
-2.29151e-07
-5.49292e-07
-1.71353e-07
-1.89314e-07
-5.54764e-07
-1.91152e-07
-1.35497e-07
-5.58301e-07
-2.08235e-07
-7.12118e-08
-5.60346e-07
-2.20879e-07
-1.3036e-09
-5.6125e-07
-2.27615e-07
6.86385e-08
-5.61206e-07
-2.27641e-07
1.33026e-07
-5.60216e-07
-2.20956e-07
1.87001e-07
-5.58097e-07
-2.08358e-07
2.27054e-07
-5.54497e-07
-1.91309e-07
2.51244e-07
-5.48987e-07
-1.71538e-07
2.59241e-07
-5.41081e-07
-1.50758e-07
2.52085e-07
-5.3026e-07
-1.30415e-07
2.31922e-07
-5.15913e-07
-1.11591e-07
2.0158e-07
-4.97139e-07
-9.49183e-08
1.64358e-07
-4.72663e-07
-8.06206e-08
1.23692e-07
-4.40425e-07
-6.84643e-08
8.30406e-08
-3.97231e-07
-5.77522e-08
4.58261e-08
-3.37797e-07
-4.71611e-08
1.59368e-08
-2.52526e-07
-3.44829e-08
-1.20156e-07
-1.59309e-08
-1.61363e-08
-8.78846e-08
-1.61421e-08
-4.65619e-08
-1.87326e-07
-3.48293e-08
-8.4726e-08
-2.5223e-07
-4.75104e-08
-1.26765e-07
-2.97305e-07
-5.80537e-08
-1.69124e-07
-3.29549e-07
-6.874e-08
-2.08155e-07
-3.52958e-07
-8.09407e-08
-2.40182e-07
-3.70062e-07
-9.53664e-08
-2.61679e-07
-3.8252e-07
-1.1222e-07
-2.69638e-07
-3.91391e-07
-1.31253e-07
-2.61806e-07
-3.97454e-07
-1.51796e-07
-2.3709e-07
-4.01278e-07
-1.7273e-07
-1.95858e-07
-4.0341e-07
-1.92586e-07
-1.40138e-07
-4.04378e-07
-2.09642e-07
-7.35876e-08
-4.04667e-07
-2.22229e-07
-1.22629e-09
-4.0468e-07
-2.28931e-07
7.11672e-08
-4.04646e-07
-2.28954e-07
1.37812e-07
-4.04566e-07
-2.22295e-07
1.93687e-07
-4.04226e-07
-2.09746e-07
2.35114e-07
-4.0321e-07
-1.92714e-07
2.60053e-07
-4.0104e-07
-1.72887e-07
2.68139e-07
-3.9719e-07
-1.51976e-07
2.60448e-07
-3.91129e-07
-1.3144e-07
2.392e-07
-3.82259e-07
-1.12406e-07
2.0743e-07
-3.69827e-07
-9.55412e-08
1.6862e-07
-3.52753e-07
-8.11004e-08
1.26451e-07
-3.2938e-07
-6.88755e-08
8.45697e-08
-2.97188e-07
-5.81608e-08
4.65077e-08
-2.52156e-07
-4.75794e-08
1.61367e-08
-1.87299e-07
-3.48559e-08
-8.78865e-08
-1.61329e-08
-1.52875e-08
-5.7305e-08
-1.5292e-08
-4.4413e-08
-1.25272e-07
-3.29283e-08
-8.14391e-08
-1.70439e-07
-4.47644e-08
-1.22735e-07
-2.01477e-07
-5.45326e-08
-1.64763e-07
-2.23045e-07
-6.44763e-08
-2.03776e-07
-2.37993e-07
-7.59523e-08
-2.35968e-07
-2.48213e-07
-8.96571e-08
-2.57752e-07
-2.54966e-07
-1.05771e-07
-2.66028e-07
-2.591e-07
-1.24015e-07
-2.58552e-07
-2.61229e-07
-1.43701e-07
-2.34252e-07
-2.61857e-07
-1.63721e-07
-1.9354e-07
-2.61474e-07
-1.82649e-07
-1.38458e-07
-2.60583e-07
-1.98877e-07
-7.26613e-08
-2.59644e-07
-2.1082e-07
-1.12765e-09
-2.59054e-07
-2.1716e-07
7.0435e-08
-2.59029e-07
-2.17179e-07
1.36317e-07
-2.59571e-07
-2.10877e-07
1.91536e-07
-2.60466e-07
-1.98979e-07
2.32431e-07
-2.61323e-07
-1.82783e-07
2.56938e-07
-2.61677e-07
-1.63869e-07
2.64649e-07
-2.61039e-07
-1.43862e-07
2.56607e-07
-2.58904e-07
-1.24183e-07
2.35067e-07
-2.54781e-07
-1.05939e-07
2.031e-07
-2.48042e-07
-8.9818e-08
1.64294e-07
-2.37847e-07
-7.60999e-08
1.22448e-07
-2.2293e-07
-6.46033e-08
8.12937e-08
-2.014e-07
-5.46343e-08
4.43665e-08
-1.70397e-07
-4.48314e-08
1.52866e-08
-1.25263e-07
-3.29562e-08
-5.73142e-08
-1.52857e-08
-1.32161e-08
-3.08682e-08
-1.32207e-08
-3.91113e-08
-7.10132e-08
-2.83635e-08
-7.29077e-08
-9.83528e-08
-3.82901e-08