/*--------------------------------*- C++ -*----------------------------------*\
| =========                 |                                                 |
| \\      /  F ield         | OpenFOAM: The Open Source CFD Toolbox           |
|  \\    /   O peration     | Version:  v1912                                 |
|   \\  /    A nd           | Website:  www.openfoam.com                      |
|    \\/     M anipulation  |                                                 |
\*---------------------------------------------------------------------------*/
FoamFile
{
    version     2.0;
    format      ascii;
    class       volVectorField;
    location    "60/oil";
    object      U;
}
// * * * * * * * * * * * * * * * * * * * * * * * * * * * * * * * * * * * * * //

dimensions      [0 1 -1 0 0 0 0];


internalField   nonuniform List<vector> 
27760
(
(1.1734e-05 1.09623e-05 1.18526e-05)
(-0.000104406 -6.42929e-05 -5.88499e-05)
(4.48152e-05 -2.92285e-05 -3.1133e-05)
(-1.07905e-05 1.25052e-05 9.60613e-06)
(9.0209e-06 -4.22176e-07 -3.23354e-06)
(2.15523e-07 4.48015e-06 1.60693e-06)
(3.82182e-06 2.0781e-06 -8.4335e-07)
(2.71517e-06 3.10415e-06 1.0333e-07)
(3.1651e-06 2.72313e-06 -3.761e-07)
(3.05114e-06 3.101e-06 -8.07273e-08)
(2.33636e-06 3.10599e-06 -1.7033e-07)
(2.14758e-06 3.29118e-06 -3.0643e-08)
(7.68363e-07 3.36572e-06 -3.40604e-08)
(3.95783e-07 3.4174e-06 2.45041e-08)
(-1.27801e-06 3.47949e-06 3.61378e-08)
(-1.73961e-06 3.40559e-06 2.07983e-08)
(-3.32538e-06 3.42753e-06 3.15793e-08)
(-3.76558e-06 3.24516e-06 -5.3587e-08)
(-4.88665e-06 3.2165e-06 -4.89535e-08)
(-5.15499e-06 2.95448e-06 -1.79668e-07)
(-5.53925e-06 2.88663e-06 -1.81368e-07)
(-5.50871e-06 2.58622e-06 -3.30786e-07)
(-5.04033e-06 2.50501e-06 -3.2992e-07)
(-4.67438e-06 2.22536e-06 -4.61302e-07)
(-3.44049e-06 2.14022e-06 -4.43286e-07)
(-2.84471e-06 1.90879e-06 -5.15539e-07)
(-1.19158e-06 1.83706e-06 -4.47063e-07)
(-7.22782e-07 1.70674e-06 -4.08862e-07)
(5.6261e-07 1.67347e-06 -2.85908e-07)
(2.52028e-08 1.40901e-06 -1.49206e-07)
(-5.9703e-05 -0.000113226 -5.95536e-05)
(4.29904e-05 3.95217e-05 -3.27137e-05)
(-2.26373e-05 -1.50618e-05 3.7287e-06)
(6.65476e-06 4.82644e-06 2.51987e-06)
(1.28557e-06 -3.53554e-06 1.27313e-06)
(7.11242e-06 -1.18876e-06 1.4676e-06)
(7.50779e-06 -2.11411e-06 5.12858e-07)
(9.23886e-06 -1.5502e-06 8.78649e-07)
(9.05807e-06 -1.52476e-06 6.07247e-07)
(9.23036e-06 -1.17379e-06 8.71179e-07)
(7.59413e-06 -1.05918e-06 8.41203e-07)
(6.70532e-06 -8.21808e-07 1.02758e-06)
(3.82846e-06 -7.19882e-07 1.05596e-06)
(2.21916e-06 -6.39608e-07 1.13706e-06)
(-1.29503e-06 -5.64772e-07 1.16407e-06)
(-3.19123e-06 -6.7741e-07 1.13534e-06)
(-6.56622e-06 -6.02327e-07 1.1475e-06)
(-8.3038e-06 -9.186e-07 1.01409e-06)
(-1.07771e-05 -8.64152e-07 9.99184e-07)
(-1.18976e-05 -1.32421e-06 7.82019e-07)
(-1.29075e-05 -1.31056e-06 7.6042e-07)
(-1.30856e-05 -1.83633e-06 5.23745e-07)
(-1.23807e-05 -1.85969e-06 4.99696e-07)
(-1.15631e-05 -2.35821e-06 2.88783e-07)
(-9.33628e-06 -2.38197e-06 2.92427e-07)
(-7.77465e-06 -2.73145e-06 1.70841e-07)
(-4.65914e-06 -2.60132e-06 2.30333e-07)
(-3.10325e-06 -2.38519e-06 2.26077e-07)
(-4.24996e-07 -1.4021e-06 2.61901e-07)
(-3.21227e-07 4.57698e-08 1.61023e-07)
(-3.18746e-05 3.92541e-05 -3.17166e-05)
(-1.48629e-05 -2.74649e-05 3.27847e-06)
(2.75895e-06 -3.09236e-06 -7.39819e-06)
(-4.29735e-07 -7.15614e-06 3.93303e-06)
(8.59955e-06 -4.38121e-06 -9.95114e-07)
(8.17708e-06 -3.33745e-06 1.67781e-06)
(1.16134e-05 -2.47281e-06 2.82085e-07)
(1.20239e-05 -1.00291e-06 1.07185e-06)
(1.24337e-05 -1.67868e-07 7.31793e-07)
(1.21191e-05 1.19422e-06 1.09424e-06)
(1.02943e-05 1.99975e-06 1.03589e-06)
(8.8961e-06 3.0243e-06 1.25112e-06)
(5.42919e-06 3.62642e-06 1.25949e-06)
(3.16937e-06 4.05579e-06 1.34457e-06)
(-1.14874e-06 4.37115e-06 1.36735e-06)
(-3.72458e-06 4.09615e-06 1.34322e-06)
(-7.9263e-06 4.0706e-06 1.36075e-06)
(-1.02643e-05 3.12886e-06 1.24153e-06)
(-1.33608e-05 2.75489e-06 1.22839e-06)
(-1.48923e-05 1.29748e-06 1.01657e-06)
(-1.62032e-05 6.78448e-07 9.95661e-07)
(-1.65154e-05 -9.91774e-07 7.52425e-07)
(-1.57534e-05 -1.72087e-06 7.4262e-07)
(-1.47505e-05 -3.29939e-06 5.32181e-07)
(-1.21192e-05 -3.93055e-06 5.51915e-07)
(-1.0132e-05 -5.04177e-06 4.33361e-07)
(-6.40512e-06 -5.10667e-06 5.041e-07)
(-4.32545e-06 -4.76488e-06 4.88024e-07)
(-9.94163e-07 -2.64385e-06 4.70791e-07)
(-4.14547e-07 4.93963e-07 2.44166e-07)
(9.6324e-06 -1.52925e-05 9.79412e-06)
(6.36443e-06 -4.92827e-06 2.72565e-06)
(4.67634e-07 -1.6303e-05 4.09878e-06)
(7.55383e-06 -1.08685e-05 2.27283e-06)
(8.06914e-06 -1.33525e-05 1.61581e-06)
(1.24394e-05 -1.07105e-05 1.53731e-06)
(1.37852e-05 -1.03962e-05 1.14874e-06)
(1.57672e-05 -8.38085e-06 1.40844e-06)
(1.55522e-05 -7.41501e-06 1.30503e-06)
(1.55365e-05 -5.63615e-06 1.59421e-06)
(1.31461e-05 -4.66443e-06 1.61643e-06)
(1.14516e-05 -3.34086e-06 1.83274e-06)
(7.14612e-06 -2.62816e-06 1.89407e-06)
(4.3181e-06 -2.06292e-06 1.99606e-06)
(-9.84276e-07 -1.71819e-06 2.02821e-06)
(-4.28304e-06 -2.02054e-06 1.99296e-06)
(-9.40044e-06 -2.05892e-06 2.01728e-06)
(-1.24152e-05 -3.20683e-06 1.83215e-06)
(-1.62218e-05 -3.67359e-06 1.82741e-06)
(-1.81886e-05 -5.50814e-06 1.54853e-06)
(-1.98118e-05 -6.30168e-06 1.51591e-06)
(-2.02642e-05 -8.45357e-06 1.20209e-06)
(-1.93996e-05 -9.38338e-06 1.17352e-06)
(-1.82355e-05 -1.14206e-05 9.03013e-07)
(-1.51542e-05 -1.22045e-05 9.10233e-07)
(-1.2764e-05 -1.35804e-05 7.54564e-07)
(-8.36851e-06 -1.34755e-05 8.20737e-07)
(-5.76198e-06 -1.25999e-05 7.86247e-07)
(-1.70129e-06 -8.84496e-06 7.36441e-07)
(-6.00267e-07 -2.46492e-06 4.09213e-07)
(-2.75234e-06 4.42411e-06 -2.59174e-06)
(-7.90793e-07 -1.52353e-05 1.57003e-06)
(3.6745e-06 -1.48609e-05 -7.86453e-07)
(5.70237e-06 -1.87593e-05 1.5631e-06)
(1.06353e-05 -1.66175e-05 2.0827e-07)
(1.27028e-05 -1.51281e-05 1.13911e-06)
(1.55387e-05 -1.28635e-05 6.29346e-07)
(1.66732e-05 -1.00669e-05 1.10881e-06)
(1.68649e-05 -7.83241e-06 9.62601e-07)
(1.64905e-05 -4.9391e-06 1.30401e-06)
(1.40548e-05 -2.95377e-06 1.29356e-06)
(1.21587e-05 -7.2015e-07 1.54366e-06)
(7.61688e-06 7.26431e-07 1.58186e-06)
(4.61931e-06 1.74904e-06 1.70795e-06)
(-9.81765e-07 2.41695e-06 1.75847e-06)
(-4.36324e-06 1.9229e-06 1.71373e-06)
(-9.82573e-06 1.73889e-06 1.74166e-06)
(-1.29573e-05 -2.17313e-07 1.5478e-06)
(-1.70556e-05 -1.22994e-06 1.55546e-06)
(-1.915e-05 -4.27062e-06 1.27248e-06)
(-2.09325e-05 -5.9064e-06 1.27563e-06)
(-2.14503e-05 -9.44977e-06 9.68722e-07)
(-2.0561e-05 -1.13275e-05 9.84108e-07)
(-1.93629e-05 -1.4678e-05 7.27773e-07)
(-1.60763e-05 -1.62807e-05 7.79373e-07)
(-1.35555e-05 -1.85831e-05 6.44922e-07)
(-8.84094e-06 -1.87692e-05 7.51902e-07)
(-6.07257e-06 -1.77205e-05 7.39363e-07)
(-1.70611e-06 -1.24916e-05 6.99863e-07)
(-5.59096e-07 -3.32089e-06 3.60082e-07)
(2.32893e-06 -7.03007e-06 2.4904e-06)
(2.44462e-06 -1.75757e-05 2.04372e-06)
(5.58195e-06 -2.59255e-05 2.10149e-06)
(9.57446e-06 -2.62018e-05 1.66838e-06)
(1.32626e-05 -2.65401e-05 1.35314e-06)
(1.69706e-05 -2.36107e-05 1.45637e-06)
(1.94185e-05 -2.16993e-05 1.31115e-06)
(2.13261e-05 -1.80618e-05 1.65337e-06)
(2.1203e-05 -1.56346e-05 1.66315e-06)
(2.09112e-05 -1.21082e-05 2.07231e-06)
(1.78173e-05 -9.87608e-06 2.16226e-06)
(1.55082e-05 -7.18479e-06 2.51143e-06)
(9.8989e-06 -5.58627e-06 2.61443e-06)
(6.17611e-06 -4.3389e-06 2.78592e-06)
(-7.68607e-07 -3.61547e-06 2.84023e-06)
(-5.05473e-06 -4.14532e-06 2.79437e-06)
(-1.17645e-05 -4.38768e-06 2.82535e-06)
(-1.57175e-05 -6.63653e-06 2.54699e-06)
(-2.0705e-05 -7.84027e-06 2.52009e-06)
(-2.33664e-05 -1.13993e-05 2.0872e-06)
(-2.55398e-05 -1.33505e-05 2.03633e-06)
(-2.62587e-05 -1.75485e-05 1.57303e-06)
(-2.52114e-05 -1.98263e-05 1.53766e-06)
(-2.38175e-05 -2.38358e-05 1.15501e-06)
(-1.98982e-05 -2.58006e-05 1.17432e-06)
(-1.68503e-05 -2.85342e-05 9.64235e-07)
(-1.12069e-05 -2.86792e-05 1.06572e-06)
(-7.76002e-06 -2.70816e-05 1.0322e-06)
(-2.46319e-06 -1.99473e-05 9.81838e-07)
(-7.91623e-07 -6.75656e-06 5.54484e-07)
(-1.37864e-07 -5.43087e-06 1.76859e-08)
(1.64948e-06 -2.38343e-05 1.00438e-06)
(6.22315e-06 -3.13758e-05 5.96235e-07)
(9.77675e-06 -3.43821e-05 1.08119e-06)
(1.49419e-05 -3.28912e-05 6.16391e-07)
(1.81617e-05 -2.97724e-05 9.99861e-07)
(2.13658e-05 -2.6187e-05 7.84303e-07)
(2.29223e-05 -2.13519e-05 1.1982e-06)
(2.29822e-05 -1.74324e-05 1.14253e-06)
(2.23962e-05 -1.25179e-05 1.57422e-06)
(1.91124e-05 -9.04036e-06 1.60306e-06)
(1.65578e-05 -5.22952e-06 1.97219e-06)
(1.05469e-05 -2.77891e-06 2.03767e-06)
(6.63973e-06 -9.85743e-07 2.22894e-06)
(-7.72754e-07 6.28015e-08 2.28741e-06)
(-5.16155e-06 -6.19714e-07 2.23346e-06)
(-1.23846e-05 -1.06478e-06 2.28673e-06)
(-1.6505e-05 -4.16103e-06 1.99728e-06)
(-2.19435e-05 -6.08898e-06 2.01687e-06)
(-2.48072e-05 -1.10312e-05 1.58154e-06)
(-2.72436e-05 -1.40892e-05 1.59797e-06)
(-2.81042e-05 -1.99299e-05 1.14321e-06)
(-2.70476e-05 -2.34712e-05 1.18247e-06)
(-2.5631e-05 -2.90685e-05 8.20636e-07)
(-2.13985e-05 -3.21619e-05 9.13619e-07)
(-1.81291e-05 -3.60471e-05 7.38749e-07)
(-1.19573e-05 -3.66718e-05 9.10424e-07)
(-8.21535e-06 -3.48822e-05 9.19983e-07)
(-2.44035e-06 -2.59308e-05 9.0014e-07)
(-7.20965e-07 -8.84331e-06 4.68322e-07)
(9.9261e-07 -1.01856e-05 1.1434e-06)
(3.10069e-06 -3.1258e-05 1.59559e-06)
(8.94773e-06 -4.25796e-05 1.61223e-06)
(1.38111e-05 -4.48469e-05 1.53289e-06)
(1.9871e-05 -4.40245e-05 1.31552e-06)
(2.42635e-05 -3.96941e-05 1.55554e-06)
(2.79785e-05 -3.57268e-05 1.50511e-06)
(3.00842e-05 -2.97618e-05 2.01666e-06)
(3.00127e-05 -2.52343e-05 2.11053e-06)
(2.92649e-05 -1.94021e-05 2.74586e-06)
(2.50748e-05 -1.54368e-05 2.92461e-06)
(2.17376e-05 -1.10033e-05 3.50059e-06)
(1.4126e-05 -8.28608e-06 3.6874e-06)
(9.00563e-06 -6.20029e-06 3.99024e-06)
(-3.99932e-07 -5.07688e-06 4.09675e-06)
(-6.17785e-06 -5.81005e-06 4.01764e-06)
(-1.52962e-05 -6.35673e-06 4.06011e-06)
(-2.07169e-05 -9.83227e-06 3.59898e-06)
(-2.75456e-05 -1.20818e-05 3.53857e-06)
(-3.13305e-05 -1.77199e-05 2.84282e-06)
(-3.44016e-05 -2.1359e-05 2.75321e-06)
(-3.56125e-05 -2.81489e-05 2.03772e-06)
(-3.43552e-05 -3.24825e-05 1.9841e-06)
(-3.26438e-05 -3.91154e-05 1.41968e-06)
(-2.74584e-05 -4.30057e-05 1.45601e-06)
(-2.33286e-05 -4.76652e-05 1.16526e-06)
(-1.57096e-05 -4.85384e-05 1.32875e-06)
(-1.08369e-05 -4.62258e-05 1.31321e-06)
(-3.61437e-06 -3.50015e-05 1.28401e-06)
(-1.04088e-06 -1.28023e-05 7.31982e-07)
(4.16009e-07 -1.32257e-05 5.52569e-07)
(3.28862e-06 -4.04906e-05 1.1775e-06)
(9.98249e-06 -5.35674e-05 1.08472e-06)
(1.54434e-05 -5.67296e-05 1.12143e-06)
(2.25742e-05 -5.46999e-05 7.89482e-07)
(2.72062e-05 -4.92416e-05 1.04727e-06)
(3.14873e-05 -4.34288e-05 8.86384e-07)
(3.34354e-05 -3.5715e-05 1.38634e-06)
(3.33214e-05 -2.93487e-05 1.36024e-06)
(3.21529e-05 -2.17738e-05 1.98632e-06)
(2.74741e-05 -1.62859e-05 2.04897e-06)
(2.36681e-05 -1.05164e-05 2.63073e-06)
(1.53249e-05 -6.80189e-06 2.73598e-06)
(9.83158e-06 -4.05149e-06 3.05335e-06)
(-3.804e-07 -2.57387e-06 3.13774e-06)
(-6.43312e-06 -3.43156e-06 3.05969e-06)
(-1.63905e-05 -4.26775e-06 3.14836e-06)
(-2.21948e-05 -8.64248e-06 2.68381e-06)
(-2.97924e-05 -1.18301e-05 2.71738e-06)
(-3.40408e-05 -1.90082e-05 2.02932e-06)
(-3.76315e-05 -2.41063e-05 2.06083e-06)
(-3.92033e-05 -3.28258e-05 1.37003e-06)
(-3.80344e-05 -3.88973e-05 1.44092e-06)
(-3.63411e-05 -4.75069e-05 9.18993e-07)
(-3.06886e-05 -5.30376e-05 1.07331e-06)
(-2.61203e-05 -5.92139e-05 8.47971e-07)
(-1.75769e-05 -6.09008e-05 1.12537e-06)
(-1.20213e-05 -5.83851e-05 1.19166e-06)
(-3.88714e-06 -4.48189e-05 1.21702e-06)
(-9.8808e-07 -1.69502e-05 6.5178e-07)
(9.51979e-07 -1.78478e-05 1.07191e-06)
(5.12922e-06 -5.13908e-05 1.74709e-06)
(1.39449e-05 -6.76225e-05 1.72993e-06)
(2.12757e-05 -7.07706e-05 1.6453e-06)
(3.0288e-05 -6.8201e-05 1.37467e-06)
(3.63442e-05 -6.10819e-05 1.69857e-06)
(4.16252e-05 -5.37962e-05 1.66119e-06)
(4.40727e-05 -4.42582e-05 2.38806e-06)
(4.38128e-05 -3.64362e-05 2.54293e-06)
(4.21668e-05 -2.73844e-05 3.49441e-06)
(3.61911e-05 -2.08618e-05 3.77151e-06)
(3.10911e-05 -1.41463e-05 4.68006e-06)
(2.05039e-05 -9.89935e-06 4.97398e-06)
(1.31759e-05 -6.73268e-06 5.47998e-06)
(2.15819e-07 -5.12818e-06 5.64398e-06)
(-7.85015e-06 -6.04511e-06 5.53082e-06)
(-2.04477e-05 -7.07802e-06 5.59365e-06)
(-2.81735e-05 -1.19813e-05 4.86722e-06)
(-3.77792e-05 -1.57863e-05 4.7638e-06)
(-4.34506e-05 -2.40053e-05 3.69189e-06)
(-4.80572e-05 -3.02426e-05 3.5554e-06)
(-5.02517e-05 -4.04952e-05 2.4949e-06)
(-4.89434e-05 -4.81656e-05 2.42747e-06)
(-4.6896e-05 -5.858e-05 1.63169e-06)
(-3.99694e-05 -6.58061e-05 1.70863e-06)
(-3.41026e-05 -7.34903e-05 1.34115e-06)
(-2.34457e-05 -7.60678e-05 1.61984e-06)
(-1.60653e-05 -7.32133e-05 1.67934e-06)
(-5.73274e-06 -5.68783e-05 1.70799e-06)
(-1.40375e-06 -2.20781e-05 9.91788e-07)
(8.20533e-07 -2.47747e-05 9.12022e-07)
(6.10036e-06 -6.67794e-05 1.61782e-06)
(1.65309e-05 -8.59419e-05 1.49434e-06)
(2.53105e-05 -8.93551e-05 1.2894e-06)
(3.58538e-05 -8.52226e-05 8.40382e-07)
(4.2649e-05 -7.60348e-05 1.05964e-06)
(4.85087e-05 -6.61938e-05 8.44459e-07)
(5.07324e-05 -5.41704e-05 1.48826e-06)
(5.00609e-05 -4.39077e-05 1.44872e-06)
(4.75612e-05 -3.26996e-05 2.33577e-06)
(4.05579e-05 -2.43134e-05 2.41501e-06)
(3.44803e-05 -1.61007e-05 3.2856e-06)
(2.26331e-05 -1.07393e-05 3.42645e-06)
(1.45309e-05 -6.84819e-06 3.92168e-06)
(3.01713e-07 -4.90667e-06 4.03179e-06)
(-8.35621e-06 -5.88314e-06 3.91922e-06)
(-2.22556e-05 -7.29837e-06 4.06921e-06)
(-3.07787e-05 -1.30439e-05 3.36132e-06)
(-4.16676e-05 -1.801e-05 3.4306e-06)
(-4.83291e-05 -2.78431e-05 2.40512e-06)
(-5.39576e-05 -3.59847e-05 2.47326e-06)
(-5.69841e-05 -4.85071e-05 1.48384e-06)
(-5.6058e-05 -5.86335e-05 1.61191e-06)
(-5.41747e-05 -7.16517e-05 9.07113e-07)
(-4.66343e-05 -8.14012e-05 1.16296e-06)
(-3.99579e-05 -9.13043e-05 9.18038e-07)
(-2.77216e-05 -9.53604e-05 1.37556e-06)
(-1.88706e-05 -9.24454e-05 1.59225e-06)
(-6.7796e-06 -7.30594e-05 1.71861e-06)
(-1.43594e-06 -2.9766e-05 9.77676e-07)
(1.33829e-06 -3.16916e-05 1.39266e-06)
(9.02002e-06 -8.33768e-05 2.25106e-06)
(2.27211e-05 -0.000106035 2.10013e-06)
(3.44572e-05 -0.00010906 1.8003e-06)
(4.78119e-05 -0.000102824 1.33117e-06)
(5.65117e-05 -9.05312e-05 1.65142e-06)
(6.3611e-05 -7.73663e-05 1.54263e-06)
(6.61682e-05 -6.20377e-05 2.46575e-06)
(6.50119e-05 -4.87654e-05 2.63286e-06)
(6.14627e-05 -3.49964e-05 3.92299e-06)
(5.2522e-05 -2.45288e-05 4.27097e-06)
(4.44169e-05 -1.47678e-05 5.56327e-06)
(2.9586e-05 -8.32826e-06 5.95167e-06)
(1.88945e-05 -3.80919e-06 6.7072e-06)
(1.17001e-06 -1.57895e-06 6.91615e-06)
(-1.02046e-05 -2.64625e-06 6.77438e-06)
(-2.7494e-05 -4.44258e-06 6.88056e-06)
(-3.86883e-05 -1.0994e-05 5.84471e-06)
(-5.23299e-05 -1.71562e-05 5.7182e-06)
(-6.11348e-05 -2.86735e-05 4.21743e-06)
(-6.84236e-05 -3.90172e-05 4.06315e-06)
(-7.26119e-05 -5.41846e-05 2.63331e-06)
(-7.18996e-05 -6.7442e-05 2.59188e-06)
(-6.97742e-05 -8.37799e-05 1.58067e-06)
(-6.07583e-05 -9.69777e-05 1.75858e-06)
(-5.22445e-05 -0.000109927 1.38526e-06)
(-3.70194e-05 -0.000116233 1.88441e-06)
(-2.52389e-05 -0.000113609 2.16259e-06)
(-9.76318e-06 -9.08689e-05 2.33376e-06)
(-1.97633e-06 -3.75917e-05 1.41918e-06)
(1.5163e-06 -4.47181e-05 1.51882e-06)
(1.17047e-05 -0.000109301 2.40613e-06)
(2.8759e-05 -0.000135884 2.07064e-06)
(4.34946e-05 -0.000138348 1.47787e-06)
(5.94494e-05 -0.000129219 7.30442e-07)
(6.95062e-05 -0.000113215 8.32373e-07)
(7.71601e-05 -9.59579e-05 4.6962e-07)
(7.91024e-05 -7.68842e-05 1.212e-06)
(7.67489e-05 -6.015e-05 1.1018e-06)
(7.1399e-05 -4.36675e-05 2.22208e-06)
(6.04108e-05 -3.09333e-05 2.27351e-06)
(5.0327e-05 -1.96323e-05 3.4258e-06)
(3.33382e-05 -1.20496e-05 3.56642e-06)
(2.11078e-05 -6.86325e-06 4.25267e-06)
(1.44288e-06 -4.39793e-06 4.35026e-06)
(-1.11627e-05 -5.45348e-06 4.21024e-06)
(-3.04281e-05 -7.66467e-06 4.45504e-06)
(-4.32058e-05 -1.48765e-05 3.50334e-06)
(-5.89944e-05 -2.23345e-05 3.65e-06)
(-6.97906e-05 -3.54404e-05 2.2965e-06)
(-7.90763e-05 -4.82001e-05 2.44948e-06)
(-8.50392e-05 -6.61464e-05 1.19192e-06)
(-8.54303e-05 -8.2981e-05 1.42986e-06)
(-8.38586e-05 -0.000103115 5.99272e-07)
(-7.41803e-05 -0.000120459 1.02861e-06)
(-6.42499e-05 -0.00013715 8.72618e-07)
(-4.63283e-05 -0.000146362 1.64354e-06)
(-3.15175e-05 -0.000144355 2.21429e-06)
(-1.25674e-05 -0.000117719 2.56153e-06)
(-2.24182e-06 -5.14435e-05 1.60622e-06)
(2.25299e-06 -5.75562e-05 2.18453e-06)
(1.68202e-05 -0.000137227 3.25089e-06)
(3.93278e-05 -0.000167841 2.77143e-06)
(5.89092e-05 -0.000168247 1.93945e-06)
(7.88969e-05 -0.000154109 1.05556e-06)
(9.13735e-05 -0.000131841 1.17963e-06)
(0.000100062 -0.000107945 8.61237e-07)
(0.000101648 -8.27197e-05 1.83026e-06)
(9.77689e-05 -6.03375e-05 1.89117e-06)
(9.01841e-05 -3.93804e-05 3.37832e-06)
(7.61085e-05 -2.2871e-05 3.68525e-06)
(6.28848e-05 -9.03393e-06 5.24497e-06)
(4.2066e-05 4.9028e-07 5.63698e-06)
(2.63492e-05 6.65987e-06 6.56369e-06)
(2.55983e-06 9.64759e-06 6.78341e-06)
(-1.34173e-05 8.44418e-06 6.62602e-06)
(-3.672e-05 5.57529e-06 6.82883e-06)
(-5.30329e-05 -2.89002e-06 5.56777e-06)
(-7.24791e-05 -1.24504e-05 5.51173e-06)
(-8.65178e-05 -2.83084e-05 3.70441e-06)
(-9.86399e-05 -4.50032e-05 3.6448e-06)
(-0.000106905 -6.75479e-05 1.98908e-06)
(-0.000108546 -9.015e-05 2.0887e-06)
(-0.000107352 -0.000116445 1.01129e-06)
(-9.63895e-05 -0.00014048 1.41603e-06)
(-8.40481e-05 -0.000163347 1.22113e-06)
(-6.19253e-05 -0.000177593 2.13424e-06)
(-4.22858e-05 -0.000177575 2.92482e-06)
(-1.77779e-05 -0.000147009 3.41435e-06)
(-3.03715e-06 -6.54683e-05 2.26773e-06)
(3.04704e-06 -8.18302e-05 2.88531e-06)
(2.33968e-05 -0.000181956 4.01952e-06)
(5.28999e-05 -0.000217348 3.21304e-06)
(7.84834e-05 -0.000214931 1.85591e-06)
(0.000102899 -0.000194653 5.63077e-07)
(0.000117488 -0.000165125 3.27886e-07)
(0.000126272 -0.00013398 -3.26294e-07)
(0.000126128 -0.000102513 3.1341e-07)
(0.000119309 -7.48737e-05 8.48136e-09)
(0.000108029 -5.02408e-05 1.13917e-06)
(8.99776e-05 -3.10043e-05 1.04989e-06)
(7.29666e-05 -1.57039e-05 2.27255e-06)
(4.85149e-05 -5.2123e-06 2.3336e-06)
(2.99221e-05 1.25858e-06 3.0521e-06)
(3.17889e-06 4.39993e-06 3.11331e-06)
(-1.51334e-05 3.17901e-06 2.96789e-06)
(-4.14048e-05 2.02297e-08 3.34969e-06)
(-6.06569e-05 -8.8071e-06 2.31777e-06)
(-8.36909e-05 -1.95567e-05 2.61951e-06)
(-0.000101522 -3.69358e-05 1.16388e-06)
(-0.000117494 -5.66086e-05 1.51381e-06)
(-0.000129379 -8.29083e-05 2.18084e-07)
(-0.000133766 -0.000110963 6.86551e-07)
(-0.000134159 -0.000143505 -6.53326e-08)
(-0.000122898 -0.000174849 6.69242e-07)
(-0.00010833 -0.000204872 8.22618e-07)
(-8.16643e-05 -0.000225221 2.12741e-06)
(-5.60048e-05 -0.000227953 3.42348e-06)
(-2.44659e-05 -0.000192706 4.2207e-06)
(-3.89571e-06 -9.06948e-05 2.98875e-06)
(4.51261e-06 -0.000108827 4.2207e-06)
(3.35692e-05 -0.000233801 5.62347e-06)
(7.31182e-05 -0.000273461 4.50074e-06)
(0.00010701 -0.000264651 2.64281e-06)
(0.000137121 -0.000233452 1.02824e-06)
(0.000154281 -0.000191256 6.24685e-07)
(0.000162756 -0.000147509 -1.61545e-07)
(0.000160185 -0.000104758 4.7418e-07)
(0.000149265 -6.72865e-05 1.35253e-07)
(0.000133232 -3.51207e-05 1.37707e-06)
(0.000109898 -9.8398e-06 1.35546e-06)
(8.79719e-05 9.26885e-06 2.75791e-06)
(5.85151e-05 2.25118e-05 2.92596e-06)
(3.55882e-05 3.02368e-05 3.77672e-06)
(4.4318e-06 3.39928e-05 3.8904e-06)
(-1.76987e-05 3.24992e-05 3.74273e-06)
(-4.83336e-05 2.85482e-05 4.16202e-06)
(-7.20505e-05 1.79852e-05 2.96293e-06)
(-9.99109e-05 4.26211e-06 3.23083e-06)
(-0.000122773 -1.73442e-05 1.54439e-06)
(-0.000143802 -4.32829e-05 1.87185e-06)
(-0.000160438 -7.73125e-05 4.35774e-07)
(-0.000168588 -0.000115323 9.60131e-07)
(-0.000171274 -0.000159102 1.8688e-07)
(-0.000159971 -0.000202955 1.05554e-06)
(-0.000142707 -0.000245352 1.35115e-06)
(-0.000110159 -0.000276404 2.96224e-06)
(-7.62258e-05 -0.000285275 4.72601e-06)
(-3.46665e-05 -0.000245847 5.81947e-06)
(-5.41276e-06 -0.000119017 4.3053e-06)
(6.93925e-06 -0.000156361 6.47454e-06)
(4.92341e-05 -0.000315414 8.26765e-06)
(0.000103425 -0.000360024 6.73941e-06)
(0.000148871 -0.00034239 4.18101e-06)
(0.000186021 -0.000297577 2.08085e-06)
(0.000205614 -0.000240417 1.17722e-06)
(0.000212254 -0.000182927 -9.21184e-08)
(0.000204983 -0.000128862 -7.23777e-08)
(0.000187296 -8.27696e-05 -1.00644e-06)
(0.000163778 -4.50236e-05 -4.84005e-07)
(0.000132817 -1.64254e-05 -1.12961e-06)
(0.000103955 4.12472e-06 -3.47685e-07)
(6.85379e-05 1.77871e-05 -5.87896e-07)
(4.0783e-05 2.52612e-05 -1.49286e-07)
(5.33737e-06 2.87229e-05 -2.18584e-07)
(-2.04008e-05 2.70875e-05 -3.42245e-07)
(-5.52708e-05 2.32574e-05 3.12597e-07)
(-8.39019e-05 1.27307e-05 -4.5482e-07)
(-0.000117631 -1.70601e-06 2.43809e-07)
(-0.000147446 -2.49066e-05 -7.55396e-07)
(-0.000175788 -5.45799e-05 1.92023e-07)
(-0.000199725 -9.43683e-05 -5.29577e-07)
(-0.000214229 -0.000141266 5.75629e-07)
(-0.000221235 -0.00019629 3.87165e-07)
(-0.000211319 -0.000253781 1.70181e-06)
(-0.000191315 -0.000310697 2.45393e-06)
(-0.000151551 -0.000354972 4.50469e-06)
(-0.000106131 -0.000372216 6.92351e-06)
(-5.01767e-05 -0.000327923 8.39017e-06)
(-7.84383e-06 -0.000167344 6.48279e-06)
(1.08092e-05 -0.000217797 1.01034e-05)
(7.22586e-05 -0.000420731 1.30892e-05)
(0.000146349 -0.000468702 1.1486e-05)
(0.000206384 -0.000434689 8.49963e-06)
(0.00025099 -0.000366871 6.04945e-06)
(0.000271768 -0.000284554 4.69638e-06)
(0.000273952 -0.000203557 2.78836e-06)
(0.00025901 -0.000129055 2.06335e-06)
(0.000231479 -6.63364e-05 3.10724e-07)
(0.000197905 -1.62153e-05 9.27634e-08)
(0.0001575 2.11204e-05 -1.14358e-06)
(0.000120686 4.68031e-05 -8.76425e-07)
(7.85026e-05 6.3212e-05 -1.41747e-06)
(4.57245e-05 7.16054e-05 -1.10328e-06)
(6.10119e-06 7.51022e-05 -1.18794e-06)
(-2.29233e-05 7.28702e-05 -1.24069e-06)
(-6.18726e-05 6.87276e-05 -4.30559e-07)
(-9.57892e-05 5.63854e-05 -1.03336e-06)
(-0.000136089 3.87461e-05 5.66148e-08)
(-0.00017403 9.78136e-06 -4.84632e-07)
(-0.000211613 -2.91086e-05 1.09558e-06)
(-0.000245428 -8.15523e-05 1.05631e-06)
(-0.000269209 -0.000145172 2.92718e-06)
(-0.000283353 -0.000220355 3.37566e-06)
(-0.000277165 -0.000300814 5.22544e-06)
(-0.000255467 -0.00038192 6.31173e-06)
(-0.000207901 -0.000448215 8.62781e-06)
(-0.000148024 -0.000480868 1.14171e-05)
(-7.26459e-05 -0.000433178 1.29552e-05)
(-1.16346e-05 -0.000229434 9.93104e-06)
(1.80187e-05 -0.000319489 1.69843e-05)
(0.000110144 -0.000583916 2.3e-05)
(0.000214014 -0.000635534 2.24321e-05)
(0.00029484 -0.000579268 1.99067e-05)
(0.000348955 -0.000482084 1.76096e-05)
(0.000370284 -0.000369093 1.5699e-05)
(0.000365034 -0.000260992 1.26279e-05)
(0.000338246 -0.000164573 1.01271e-05)
(0.000295929 -8.58903e-05 6.46887e-06)
(0.000247181 -2.57875e-05 4.16305e-06)
(0.000192398 1.68347e-05 1.21426e-06)
(0.000143185 4.41325e-05 4.90998e-09)
(9.13136e-05 5.9845e-05 -1.46001e-06)
(5.13576e-05 6.66838e-05 -1.8277e-06)
(6.28108e-06 6.85192e-05 -2.04391e-06)
(-2.63242e-05 6.56395e-05 -1.95149e-06)
(-7.03773e-05 6.29443e-05 -8.49872e-07)
(-0.000111695 5.1394e-05 -6.80478e-07)
(-0.000161295 3.39991e-05 1.4057e-06)
(-0.000211682 2.83635e-06 2.34067e-06)
(-0.000263102 -4.18239e-05 5.64964e-06)
(-0.000311534 -0.000104616 7.56607e-06)
(-0.000349202 -0.000184392 1.11656e-05)
(-0.000374161 -0.000281042 1.31302e-05)
(-0.00037428 -0.00038773 1.58535e-05)
(-0.000351122 -0.000497921 1.72208e-05)
(-0.000293556 -0.00059187 1.91918e-05)
(-0.000213156 -0.000645103 2.14619e-05)
(-0.000109027 -0.000593638 2.20649e-05)
(-1.8528e-05 -0.000330063 1.63396e-05)
(2.96653e-05 -0.000467849 2.81811e-05)
(0.000165997 -0.000817096 4.19862e-05)
(0.000308146 -0.000870083 4.5536e-05)
(0.000413031 -0.000778916 4.59356e-05)
(0.000474688 -0.000636554 4.48247e-05)
(0.000491972 -0.000475558 4.21035e-05)
(0.000472727 -0.00032316 3.64197e-05)
(0.000427192 -0.000188352 3.0104e-05)
(0.00036352 -7.90681e-05 2.21419e-05)
(0.000294428 3.53844e-06 1.56134e-05)
(0.000222007 6.06109e-05 9.06006e-06)
(0.000159046 9.57179e-05 5.06361e-06)
(9.76782e-05 0.000113559 1.96147e-06)
(5.2287e-05 0.000119808 9.24622e-07)
(4.45227e-06 0.00011868 9.82643e-07)
(-2.76544e-05 0.000113991 1.48878e-06)
(-7.38684e-05 0.000113541 2.6422e-06)
(-0.000121133 0.00010079 3.77179e-06)
(-0.000179957 8.04271e-05 7.60297e-06)
(-0.000244338 4.03817e-05 1.13785e-05)
(-0.000312943 -1.94901e-05 1.81233e-05)
(-0.000381218 -0.000105013 2.39854e-05)
(-0.000438971 -0.000214997 3.14111e-05)
(-0.000481147 -0.000348702 3.6542e-05)
(-0.000493468 -0.00049745 4.1137e-05)
(-0.000472817 -0.000652426 4.26072e-05)
(-0.000406743 -0.000788059 4.29126e-05)
(-0.000302579 -0.000873042 4.21892e-05)
(-0.000161727 -0.000819734 3.90614e-05)
(-2.94163e-05 -0.000474751 2.6595e-05)
(5.0758e-05 -0.000704995 4.86661e-05)
(0.000254263 -0.00117576 7.96751e-05)
(0.000447922 -0.00123122 9.39896e-05)
(0.000583373 -0.0010971 0.000102752)
(0.000653141 -0.000898955 0.00010558)
(0.000664147 -0.000679013 0.000102271)
(0.000626379 -0.000472019 9.22687e-05)
(0.000556359 -0.000290809 7.90994e-05)
(0.000464581 -0.000145729 6.3289e-05)
(0.000367542 -3.88843e-05 4.88052e-05)
(0.000269644 3.18414e-05 3.53301e-05)
(0.000185094 7.21064e-05 2.58814e-05)
(0.000108056 8.79777e-05 1.96779e-05)
(5.24508e-05 8.90312e-05 1.75873e-05)
(-6.89993e-07 7.94684e-05 1.90109e-05)
(-2.95905e-05 7.17216e-05 2.05007e-05)
(-7.89818e-05 7.88793e-05 2.09107e-05)
(-0.000136759 6.93312e-05 2.35712e-05)
(-0.000210102 5.00734e-05 3.06304e-05)
(-0.000295978 3.94051e-06 3.97961e-05)
(-0.000388935 -7.04362e-05 5.31496e-05)
(-0.000483962 -0.000180276 6.63689e-05)
(-0.000567998 -0.00032536 8.07259e-05)
(-0.000632419 -0.00050309 9.14439e-05)
(-0.00066079 -0.000702522 9.88526e-05)
(-0.000644153 -0.000910919 9.94063e-05)
(-0.000568466 -0.00109627 9.46628e-05)
(-0.000434006 -0.00121889 8.53606e-05)
(-0.000243846 -0.00116191 7.22749e-05)
(-4.88095e-05 -0.000701949 4.50874e-05)
(8.36879e-05 -0.00106735 8.08388e-05)
(0.000373054 -0.00170351 0.000142761)
(0.000618662 -0.00175833 0.000177031)
(0.000777354 -0.00156846 0.000200501)
(0.000843326 -0.0012952 0.000208973)
(0.000836249 -0.000992525 0.00020327)
(0.000769532 -0.000703926 0.000184582)
(0.000667484 -0.00044795 0.00015894)
(0.000542719 -0.000239698 0.000129103)
(0.000415235 -8.41168e-05 0.000100734)
(0.000291635 1.93063e-05 7.53824e-05)
(0.000186985 7.73575e-05 5.68923e-05)
(9.78023e-05 9.48366e-05 4.6133e-05)
(3.67429e-05 8.82917e-05 4.40668e-05)
(-1.39198e-05 5.72686e-05 5.0289e-05)
(-2.44004e-05 4.17962e-05 5.39103e-05)
(-6.69156e-05 6.7886e-05 5.05429e-05)
(-0.000130762 6.28624e-05 5.41674e-05)
(-0.000214912 4.0195e-05 6.59294e-05)
(-0.000321181 -2.48779e-05 8.40552e-05)
(-0.000439072 -0.000132607 0.000108931)
(-0.000563773 -0.000290461 0.000135245)
(-0.000679401 -0.000496476 0.000162364)
(-0.000773842 -0.000744347 0.000183731)
(-0.000828485 -0.0010183 0.000197498)
(-0.000826885 -0.00130008 0.000197829)
(-0.00075221 -0.00155001 0.000185113)
(-0.000593569 -0.00171911 0.000160015)
(-0.000352995 -0.00165903 0.000127683)
(-7.84978e-05 -0.00104372 7.36831e-05)
(0.000133821 -0.00160863 0.000130108)
(0.000518741 -0.00244575 0.000232386)
(0.000802098 -0.00249093 0.00029294)
(0.000961519 -0.00223778 0.000333281)
(0.00100055 -0.00187854 0.000345629)
(0.000957664 -0.00148079 0.000333963)
(0.000853792 -0.00109668 0.000303326)
(0.000722466 -0.000753125 0.000263127)
(0.000575641 -0.000469622 0.000218299)
(0.000432314 -0.000256433 0.000175706)
(0.000295881 -0.000114401 0.000138218)
(0.00017741 -3.84717e-05 0.000110809)
(7.74823e-05 -2.52144e-05 9.66877e-05)
(7.38184e-06 -5.26691e-05 9.7343e-05)
(-3.88867e-05 -0.000132225 0.000112994)
(-1.3336e-05 -0.000161918 0.000119834)
(-4.07444e-05 -9.09568e-05 0.000108294)
(-0.00011285 -7.74616e-05 0.000110217)
(-0.000204028 -9.76051e-05 0.000125576)
(-0.000323398 -0.000181051 0.000152473)
(-0.000453955 -0.000328099 0.000189277)
(-0.000595765 -0.00054233 0.000229433)
(-0.000735117 -0.000820885 0.000270964)
(-0.000860061 -0.00115077 0.000305802)
(-0.000951448 -0.00151157 0.000329643)
(-0.000983025 -0.00187611 0.000333039)
(-0.000930802 -0.00219701 0.000312851)
(-0.000767346 -0.0024147 0.000267779)
(-0.000487255 -0.00235438 0.000208022)
(-0.000123373 -0.00154759 0.000117217)
(0.0001918 -0.00235929 0.000187437)
(0.000636322 -0.00337983 0.000322175)
(0.000899054 -0.00338066 0.000401677)
(0.000993862 -0.00304105 0.000446951)
(0.000950104 -0.00257486 0.000450477)
(0.000832647 -0.00206607 0.000422932)
(0.000674875 -0.00157544 0.000374842)
(0.000521773 -0.0011348 0.000319485)
(0.000380604 -0.000764028 0.000262716)
(0.000265319 -0.000475978 0.000211204)
(0.000165876 -0.000274431 0.000167841)
(8.14673e-05 -0.000162615 0.000137508)
(9.08534e-06 -0.00014757 0.000125104)
(-4.67352e-05 -0.000209541 0.000132836)
(-6.75818e-05 -0.000383553 0.000159851)
(1.00353e-05 -0.000441009 0.000169707)
(2.29581e-05 -0.000281786 0.000147276)
(-3.27423e-05 -0.000234762 0.000143365)
(-9.27791e-05 -0.000258289 0.00015704)
(-0.000179356 -0.000375464 0.000186986)
(-0.000276579 -0.000580526 0.000230079)
(-0.000396761 -0.000866524 0.000279944)
(-0.000537978 -0.00122936 0.000334561)
(-0.000691949 -0.00165204 0.000385644)
(-0.000841781 -0.00211273 0.000427402)
(-0.00094823 -0.00257729 0.00044551)
(-0.00097391 -0.00298805 0.000430928)
(-0.000866658 -0.00327145 0.000375895)
(-0.000598636 -0.00323478 0.00029234)
(-0.00017539 -0.00224261 0.000168109)
(0.000237641 -0.00325632 0.000233109)
(0.000655067 -0.00436184 0.000371305)
(0.000812635 -0.0042543 0.000447339)
(0.000767469 -0.00379854 0.000478207)
(0.000590931 -0.00321776 0.000459058)
(0.000378882 -0.00260799 0.000410818)
(0.000180811 -0.00203698 0.000350105)
(4.61488e-05 -0.00153698 0.000291394)
(-3.30445e-05 -0.00111766 0.000238855)
(-5.38199e-05 -0.00078911 0.000196989)
(-5.06726e-05 -0.000548293 0.000166184)
(-4.04581e-05 -0.000410206 0.000148682)
(-4.42696e-05 -0.000393926 0.000148627)
(-7.01943e-05 -0.000499833 0.000166788)
(-6.93215e-05 -0.000794507 0.000200128)
(2.60411e-05 -0.000889075 0.000210074)
(7.37663e-05 -0.000615944 0.000179564)
(5.30638e-05 -0.000520167 0.000165365)
(6.21446e-05 -0.000544235 0.000166592)
(6.73887e-05 -0.000681123 0.000183872)
(6.56685e-05 -0.000922105 0.00021548)
(3.09106e-05 -0.00124576 0.000257525)
(-5.97183e-05 -0.00165727 0.00031082)
(-0.000207719 -0.00214041 0.00036884)
(-0.000409467 -0.00268263 0.000427127)
(-0.000617801 -0.00324458 0.00046897)