/*--------------------------------*- C++ -*----------------------------------*\
| =========                 |                                                 |
| \\      /  F ield         | OpenFOAM: The Open Source CFD Toolbox           |
|  \\    /   O peration     | Version:  v1912                                 |
|   \\  /    A nd           | Website:  www.openfoam.com                      |
|    \\/     M anipulation  |                                                 |
\*---------------------------------------------------------------------------*/
FoamFile
{
    version     2.0;
    format      ascii;
    class       surfaceScalarField;
    location    "26.5/oil";
    object      phi;
}
// * * * * * * * * * * * * * * * * * * * * * * * * * * * * * * * * * * * * * //

dimensions      [1 0 -1 0 0 0 0];
oriented        oriented;


internalField   nonuniform List<scalar> 
104676
(
-1.32761e-06
-1.32948e-06
-1.34276e-06
-7.4225e-07
-2.90583e-07
-2.94773e-07
-2.71547e-07
-2.33737e-07
-2.36966e-07
-1.43156e-07
-6.38355e-08
-6.45557e-08
-5.83993e-08
-4.22146e-08
-4.25419e-08
-3.04021e-08
-1.4001e-08
-1.39962e-08
-1.33577e-08
-8.562e-09
-8.4824e-09
-6.72651e-09
-3.38239e-09
-3.24876e-09
-2.81965e-09
-2.03295e-09
-1.87391e-09
-1.1306e-09
-9.33724e-10
-7.55325e-10
-2.26593e-10
-5.50125e-10
-3.53884e-10
8.4242e-11
-2.62496e-10
-4.8339e-11
1.14424e-10
-1.30146e-10
9.99634e-11
-5.09023e-11
-3.88079e-11
2.04135e-10
-3.14839e-10
7.00812e-12
2.56929e-10
-6.25608e-10
3.03081e-11
2.8046e-10
-9.32706e-10
3.07845e-11
2.76313e-10
-1.20056e-09
1.63799e-11
2.51475e-10
-1.40277e-09
-9.16229e-12
2.11375e-10
-1.52301e-09
-4.12383e-11
1.61479e-10
-1.55192e-09
-7.93525e-11
1.08255e-10
-1.48822e-09
-1.20425e-10
5.67292e-11
-1.34216e-09
-1.58947e-10
1.28829e-11
-1.13071e-09
-1.92587e-10
-1.88632e-11
-8.75614e-10
-2.19051e-10
-3.60432e-11
-6.05364e-10
-2.3501e-10
-3.52396e-11
-3.49799e-10
-2.35359e-10
-2.02052e-11
-1.46274e-10
-2.10762e-10
7.23664e-12
-2.28875e-11
-1.48924e-10
2.55372e-11
-4.82974e-11
2.54099e-11
-2.89842e-07
-7.44e-07
-2.95634e-07
-2.17117e-07
-2.18389e-07
-1.44919e-07
-1.28784e-07
-1.91121e-07
-1.30949e-07
-7.84241e-08
-6.21324e-08
-5.20629e-08
-4.1731e-08
-4.36836e-08
-3.52242e-08
-2.43741e-08
-1.6811e-08
-1.45468e-08
-1.25741e-08
-1.15104e-08
-8.85171e-09
-6.77128e-09
-5.44163e-09
-3.74354e-09
-2.97502e-09
-3.87141e-09
-1.9578e-09
-1.09098e-09
-2.26586e-09
-5.51913e-10
-3.46659e-11
-1.70259e-09
9.61484e-11
2.87426e-10
-1.16926e-09
5.84674e-10
2.17435e-10
-9.22246e-10
8.62092e-10
-1.56933e-10
-7.19976e-10
1.05554e-09
-6.89681e-10
-6.23076e-10
1.16283e-09
-1.30313e-09
-5.66629e-10
1.21038e-09
-1.90206e-09
-5.65769e-10
1.19548e-09
-2.42533e-09
-5.97089e-10
1.13674e-09
-2.82041e-09
-6.58605e-10
1.04452e-09
-3.05732e-09
-7.34879e-10
9.30555e-10
-3.11402e-09
-8.25157e-10
8.02497e-10
-2.99455e-09
-9.13534e-10
6.73641e-10
-2.71884e-09
-9.92637e-10
5.57982e-10
-2.31907e-09
-1.05487e-09
4.62508e-10
-1.83569e-09
-1.09227e-09
3.89844e-10
-1.32098e-09
-1.09293e-09
3.4321e-10
-8.27549e-10
-1.04252e-09
3.13727e-10
-4.13534e-10
-9.15741e-10
2.90965e-10
-1.21772e-10
-6.77836e-10
2.37151e-10
-2.9677e-10
1.267e-10
-2.33467e-07
-2.73264e-07
-2.37269e-07
-1.89836e-07
-1.3117e-07
-1.3085e-07
-1.29194e-07
-1.32286e-07
-1.19477e-07
-8.33524e-08
-5.55372e-08
-5.24365e-08
-4.83132e-08
-4.3627e-08
-3.50958e-08
-2.9013e-08
-2.05074e-08
-1.56039e-08
-1.5888e-08
-1.5394e-08
-9.24126e-09
-8.72728e-09
-8.643e-09
-3.95937e-09
-4.10351e-09
-6.66782e-09
-1.82735e-09
-1.63812e-09
-4.50079e-09
-2.30458e-10
-2.74516e-10
-3.6616e-09
5.95406e-10
1.90128e-10
-2.83852e-09
1.20462e-09
1.26173e-10
-2.4343e-09
1.57601e-09
-3.29513e-10
-2.09473e-09
1.83044e-09
-1.00134e-09
-1.92837e-09
1.97712e-09
-1.78188e-09
-1.8286e-09
2.0425e-09
-2.5481e-09
-1.81781e-09
2.01826e-09
-3.21833e-09
-1.86045e-09
1.93359e-09
-3.72635e-09
-1.95157e-09
1.80099e-09
-4.03265e-09
-2.06819e-09
1.63962e-09
-4.10827e-09
-2.19926e-09
1.44972e-09
-3.95937e-09
-2.32328e-09
1.26084e-09
-3.61155e-09
-2.42748e-09
1.08703e-09
-3.10519e-09
-2.49768e-09
9.3645e-10
-2.49185e-09
-2.51822e-09
8.12615e-10
-1.83292e-09
-2.46852e-09
7.16658e-10
-1.19125e-09
-2.31975e-09
6.35563e-10
-6.33494e-10
-2.02899e-09
5.55493e-10
-2.08015e-10
-1.5305e-09
4.27181e-10
-7.18842e-10
2.14056e-10
-6.35119e-08
-1.45326e-07
-6.44257e-08
-6.04492e-08
-8.24253e-08
-5.18069e-08
-5.18309e-08
-8.85786e-08
-5.2326e-08
-3.6895e-08
-4.29944e-08
-2.74788e-08
-2.4713e-08
-3.62344e-08
-1.95745e-08
-1.57807e-08
-1.97768e-08
-9.66282e-09
-9.25188e-09
-1.6082e-08
-5.84092e-09
-5.00498e-09
-1.04486e-08
-2.44126e-09
-2.11701e-09
-8.72096e-09
-8.3483e-10
-4.49105e-10
-6.62105e-09
4.52349e-10
4.19922e-10
-5.7513e-09
1.22067e-09
6.07866e-10
-4.83995e-09
1.81348e-09
3.30632e-10
-4.36561e-09
2.20855e-09
-3.00702e-10
-3.94405e-09
2.48065e-09
-1.13936e-09
-3.73233e-09
2.64262e-09
-2.0752e-09
-3.60623e-09
2.71347e-09
-2.98039e-09
-3.5903e-09
2.67768e-09
-3.76521e-09
-3.64595e-09
2.57031e-09
-4.35848e-09
-3.7629e-09
2.4046e-09
-4.71652e-09
-3.91245e-09
2.2023e-09
-4.80804e-09
-4.07091e-09
1.96317e-09
-4.64242e-09
-4.21636e-09
1.72745e-09
-4.24943e-09
-4.32796e-09
1.5075e-09
-3.67466e-09
-4.385e-09
1.31254e-09
-2.97604e-09
-4.36363e-09
1.14679e-09
-2.22037e-09
-4.23394e-09
1.00976e-09
-1.47277e-09
-3.95341e-09
8.86047e-10
-8.06458e-10
-3.45537e-09
7.60068e-10
-2.76709e-10
-2.63304e-09
5.7279e-10
-1.27873e-09
2.83174e-10
-4.17478e-08
-6.13161e-08
-4.22622e-08
-4.17719e-08
-4.74832e-08
-3.49179e-08
-3.95695e-08
-5.58528e-08
-3.49281e-08
-2.959e-08
-3.34399e-08
-1.9534e-08
-2.11186e-08
-3.06113e-08
-1.40945e-08
-1.38066e-08
-1.98481e-08
-7.24074e-09
-8.33962e-09
-1.72697e-08
-4.27924e-09
-4.44416e-09
-1.27281e-08
-1.61595e-09
-1.78991e-09
-1.11713e-08
-2.03952e-10
-1.87741e-10
-9.17454e-09
9.51331e-10
6.10525e-10
-8.26007e-09
1.7105e-09
7.49239e-10
-7.28993e-09
2.31126e-09
3.93311e-10
-6.74253e-09
2.73285e-09
-3.28237e-10
-6.24342e-09
3.02091e-09
-1.27119e-09
-5.98366e-09
3.19429e-09
-2.31352e-09
-5.8304e-09
3.2665e-09
-3.31643e-09
-5.80813e-09
3.22074e-09
-4.18314e-09
-5.86987e-09
3.09064e-09
-4.83817e-09
-6.00412e-09
2.89624e-09
-5.23078e-09
-6.16683e-09
2.647e-09
-5.33118e-09
-6.33273e-09
2.36222e-09
-5.15102e-09
-6.47855e-09
2.08203e-09
-4.72336e-09
-6.57503e-09
1.81941e-09
-4.0973e-09
-6.5959e-09
1.58484e-09
-3.33474e-09
-6.50902e-09
1.38283e-09
-2.5058e-09
-6.27545e-09
1.21256e-09
-1.6789e-09
-5.83763e-09
1.05732e-09
-9.3003e-10
-5.10364e-09
8.99401e-10
-3.23589e-10
-3.91131e-09
6.71839e-10
-1.93308e-09
3.30766e-10
-1.34622e-08
-3.4202e-08
-1.36519e-08
-1.476e-08
-3.19722e-08
-1.42133e-08
-1.62394e-08
-3.89411e-08
-1.54323e-08
-1.28053e-08
-2.7228e-08
-9.64598e-09
-9.88671e-09
-2.62521e-08
-7.27789e-09
-6.39603e-09
-1.94728e-08
-3.86598e-09
-3.66708e-09
-1.78573e-08
-2.14137e-09
-1.40953e-09
-1.45324e-08
-4.53319e-10
1.44943e-10
-1.33222e-08
5.96478e-10
1.09801e-09
-1.16501e-08
1.52246e-09
1.45579e-09
-1.0827e-08
2.20916e-09
1.30407e-09
-9.92675e-09
2.78855e-09
7.2516e-10
-9.38177e-09
3.21815e-09
-1.68382e-10
-8.858e-09
3.50813e-09
-1.25878e-09
-8.57481e-09
3.68155e-09
-2.42655e-09
-8.41283e-09
3.7502e-09
-3.52998e-09
-8.40375e-09
3.69906e-09
-4.47575e-09
-8.46683e-09
3.54273e-09
-5.18671e-09
-8.60561e-09
3.31245e-09
-5.60521e-09
-8.75742e-09
3.00909e-09
-5.71083e-09
-8.90815e-09
2.68104e-09
-5.51807e-09
-9.02856e-09
2.35725e-09
-5.06313e-09
-9.08376e-09
2.05379e-09
-4.39852e-09
-9.04326e-09
1.78276e-09
-3.5886e-09
-8.86797e-09
1.54903e-09
-2.70602e-09
-8.50986e-09
1.35182e-09
-1.82156e-09
-7.89447e-09
1.17238e-09
-1.01491e-09
-6.90149e-09
9.91202e-10
-3.54902e-10
-5.30844e-09
7.37125e-10
-2.6516e-09
3.63615e-10
-8.02982e-09
-1.80728e-08
-8.09941e-09
-9.44544e-09
-2.20251e-08
-8.53138e-09
-1.10646e-08
-2.81856e-08
-9.13641e-09
-8.97982e-09
-2.33888e-08
-5.92395e-09
-7.08744e-09
-2.37093e-08
-4.43517e-09
-4.44767e-09
-1.9842e-08
-2.27066e-09
-2.32146e-09
-1.89637e-08
-1.0198e-09
-4.512e-10
-1.66462e-08
2.43611e-10
8.29122e-10
-1.57372e-08
1.1347e-09
1.61111e-09
-1.43855e-08
1.9534e-09
1.83605e-09
-1.36675e-08
2.61552e-09
1.57516e-09
-1.28629e-08
3.19707e-09
9.00377e-10
-1.23503e-08
3.64327e-09
-8.26216e-11
-1.18131e-08
3.93805e-09
-1.25924e-09
-1.15129e-08
4.11466e-09
-2.50461e-09
-1.13503e-08
4.18285e-09
-3.68324e-09
-1.13513e-08
4.12615e-09
-4.68064e-09
-1.14105e-08
3.94108e-09
-5.4284e-09
-1.15235e-08
3.66562e-09
-5.8588e-09
-1.1637e-08
3.31001e-09
-5.96202e-09
-1.17408e-08
2.93585e-09
-5.755e-09
-1.18026e-08
2.56702e-09
-5.27767e-09
-1.17845e-08
2.22339e-09
-4.58466e-09
-1.16542e-08
1.91794e-09
-3.74263e-09
-1.1366e-08
1.65596e-09
-2.8252e-09
-1.08636e-08
1.43628e-09
-1.9043e-09
-1.00543e-08
1.23895e-09
-1.06192e-09
-8.78739e-09
1.04351e-09
-3.71298e-10
-6.7735e-09
7.74442e-10
-3.40495e-09
3.82054e-10
-2.87252e-09
-1.23256e-08
-2.87466e-09
-3.42852e-09
-1.79616e-08
-3.50759e-09
-4.36718e-09
-2.32559e-08
-3.99098e-09
-3.37747e-09
-2.16795e-08
-2.69901e-09
-2.53358e-09
-2.2574e-08
-1.97919e-09
-1.04177e-09
-2.05254e-08
-8.08351e-10
1.76336e-10
-2.01899e-08
8.09658e-12
1.34121e-09
-1.87085e-08
8.97376e-10
2.10318e-09
-1.81268e-08
1.62761e-09
2.51941e-09
-1.71437e-08
2.34205e-09
2.47785e-09
-1.65994e-08
2.9735e-09
2.02004e-09
-1.59579e-08
3.55272e-09
1.19726e-09
-1.55425e-08
4.01502e-09
1.00837e-10
-1.50289e-08
4.3123e-09
-1.16518e-09
-1.47411e-08
4.49429e-09
-2.48421e-09
-1.45881e-08
4.55681e-09
-3.72769e-09
-1.45843e-08
4.47656e-09
-4.76174e-09
-1.46476e-08
4.27114e-09
-5.53158e-09
-1.47004e-08
3.94678e-09
-5.96629e-09
-1.47443e-08
3.54194e-09
-6.06338e-09
-1.47658e-08
3.12216e-09
-5.8442e-09
-1.47325e-08
2.71073e-09
-5.35211e-09
-1.46071e-08
2.33058e-09
-4.64451e-09
-1.43569e-08
1.99511e-09
-3.78936e-09
-1.39312e-08
1.71008e-09
-2.85966e-09
-1.32662e-08
1.4729e-09
-1.92742e-09
-1.225e-08
1.26344e-09
-1.07459e-09
-1.07002e-08
1.06e-09
-3.74966e-10
-8.25935e-09
7.86221e-10
-4.1682e-09
3.88286e-10
-1.56393e-09
-9.2082e-09
-1.55345e-09
-1.96311e-09
-1.57071e-08
-1.85531e-09
-2.55042e-09
-2.06193e-08
-2.04928e-09
-1.83491e-09
-2.10685e-08
-1.32651e-09
-1.16215e-09
-2.24021e-08
-8.44636e-10
9.59183e-12
-2.16274e-08
-6.97362e-11
9.93173e-10
-2.17345e-08
5.61002e-10
1.94076e-09
-2.09308e-08
1.27472e-09
2.54514e-09
-2.06575e-08
1.92629e-09
2.84136e-09
-2.00281e-08
2.58811e-09
2.71865e-09
-1.96811e-08
3.20435e-09
2.20499e-09
-1.92229e-08
3.77873e-09
1.32571e-09
-1.89214e-08
4.25819e-09
1.90098e-10
-1.846e-08
4.56666e-09
-1.1e-09
-1.82102e-08
4.75923e-09
-2.43595e-09
-1.8064e-08
4.81181e-09
-3.69595e-09
-1.80216e-08
4.69728e-09
-4.73905e-09
-1.80736e-08
4.46914e-09
-5.49131e-09
-1.80521e-08
4.10399e-09
-5.90851e-09
-1.79974e-08
3.67033e-09
-5.99227e-09
-1.78991e-08
3.21703e-09
-5.76331e-09
-1.77333e-08
2.77185e-09
-5.26797e-09
-1.74669e-08
2.3644e-09
-4.56415e-09
-1.70678e-08
2.00706e-09
-3.71928e-09
-1.64827e-08
1.70665e-09
-2.80403e-09
-1.56401e-08
1.45867e-09
-1.88814e-09
-1.44097e-08
1.24378e-09
-1.05132e-09
-1.25765e-08
1.0395e-09
-3.65271e-10
-9.71648e-09
7.71079e-10
-4.91392e-09
3.80442e-10
-5.20635e-10
-8.1721e-09
-5.15468e-10
-5.00892e-10
-1.50941e-08
-6.3273e-10
-6.29191e-10
-1.9792e-08
-6.99001e-10
-6.25763e-11
-2.13003e-08
-3.34768e-10
4.61407e-10
-2.28913e-08
-3.47334e-11
1.29634e-09
-2.29197e-08
4.57327e-10
1.98645e-09
-2.33631e-08
9.38525e-10
2.64734e-09
-2.31026e-08
1.51093e-09
3.03528e-09
-2.31327e-08
2.08726e-09
3.16578e-09
-2.28533e-08
2.69471e-09
2.9373e-09
-2.27358e-08
3.28327e-09
2.36565e-09
-2.2491e-08
3.83974e-09
1.43715e-09
-2.23195e-08
4.32662e-09
2.90229e-10
-2.19598e-08
4.6467e-09
-9.86097e-10
-2.17713e-08
4.83741e-09
-2.29134e-09
-2.16401e-08
4.88139e-09
-3.51474e-09
-2.15447e-08
4.7465e-09
-4.54448e-09
-2.15327e-08
4.48877e-09
-5.25885e-09
-2.1444e-08
4.10626e-09
-5.64536e-09
-2.1268e-08
3.65715e-09
-5.71274e-09
-2.10187e-08
3.18693e-09
-5.48079e-09
-2.06905e-08
2.7252e-09
-4.99781e-09
-2.02564e-08
2.30657e-09
-4.31964e-09
-1.96877e-08
1.94171e-09
-3.5131e-09
-1.89273e-08
1.63808e-09
-2.64342e-09
-1.78995e-08
1.38972e-09
-1.77564e-09
-1.64555e-08
1.17802e-09
-9.86306e-10
-1.43462e-08
9.80322e-10
-3.42253e-10
-1.10862e-08
7.25661e-10
-5.61472e-09
3.58554e-10
-2.10264e-10
-7.74999e-09
-2.11841e-10
-1.19613e-10
-1.49676e-08
-2.17086e-10
-9.76411e-11
-1.962e-08
-1.94011e-10
3.67956e-10
-2.18282e-08
6.22236e-11
8.37396e-10
-2.36627e-08
3.01948e-10
1.52246e-09
-2.42679e-08
6.63184e-10
2.09755e-09
-2.49961e-08
1.05789e-09
2.63415e-09
-2.51807e-08
1.54144e-09
2.94084e-09
-2.5495e-08
2.0556e-09
3.01983e-09
-2.55375e-08
2.60524e-09
2.79144e-09
-2.56444e-08
3.13698e-09
2.25649e-09
-2.55974e-08
3.64133e-09
1.36277e-09
-2.55409e-08
4.11509e-09
2.85658e-10
-2.53452e-08
4.46255e-09
-8.97696e-10
-2.52375e-08
4.64948e-09
-2.09978e-09
-2.51217e-08
4.68369e-09
-3.215e-09
-2.49698e-08
4.54032e-09
-4.16039e-09
-2.48621e-08
4.27482e-09
-4.80872e-09
-2.47102e-08
3.91445e-09
-5.15177e-09
-2.43833e-08
3.45837e-09
-5.19809e-09
-2.3966e-08
2.99365e-09
-4.97285e-09
-2.34582e-08
2.54249e-09
-4.52167e-09
-2.28443e-08
2.13669e-09
-3.89722e-09
-2.2096e-08
1.78383e-09
-3.16268e-09
-2.11542e-08
1.49231e-09
-2.37373e-09
-1.99423e-08
1.25388e-09
-1.58691e-09
-1.82943e-08
1.052e-09
-8.75841e-10
-1.59268e-08
8.69564e-10
-3.00289e-10
-1.2304e-08
6.42287e-10
-6.23422e-09
3.19209e-10
-8.76387e-12
-7.72399e-09
-1.72419e-11
1.90717e-10
-1.51788e-08
1.17109e-11
3.49065e-10
-1.98166e-08
3.83082e-11
7.42649e-10
-2.24294e-08
2.07623e-10
1.11489e-09
-2.44427e-08
4.07719e-10
1.62452e-09
-2.54626e-08
6.84982e-10
2.0544e-09
-2.64257e-08
9.99725e-10
2.44732e-09
-2.69691e-08
1.39551e-09
2.66114e-09
-2.75401e-08
1.83134e-09
2.69162e-09
-2.78588e-08
2.2908e-09
2.46371e-09
-2.81543e-08
2.73777e-09
1.95513e-09
-2.83014e-08
3.21263e-09
1.16762e-09
-2.84113e-08
3.65793e-09
2.33566e-10
-2.83805e-08
3.96933e-09
-7.90697e-10
-2.8347e-08
4.13378e-09
-1.82989e-09
-2.82282e-08
4.14567e-09
-2.78668e-09
-2.8014e-08
4.00097e-09
-3.59087e-09
-2.78093e-08
3.75144e-09
-4.1376e-09
-2.75902e-08
3.42673e-09
-4.4148e-09
-2.71031e-08
2.99696e-09
-4.43573e-09
-2.65319e-08
2.58688e-09
-4.2258e-09
-2.58583e-08
2.19013e-09
-3.82517e-09
-2.50735e-08
1.82857e-09
-3.2788e-09
-2.41539e-08
1.51153e-09
-2.64894e-09
-2.30381e-08
1.25406e-09
-1.9829e-09
-2.16583e-08
1.04993e-09
-1.33046e-09
-1.98335e-08
8.86815e-10
-7.3837e-10
-1.7258e-08
7.39058e-10
-2.55795e-10
-1.3334e-08
5.47403e-10
-6.7612e-09
2.71183e-10
3.13441e-11
-7.77688e-09
2.15538e-11
1.77163e-10
-1.53916e-08
6.69763e-11
3.14867e-10
-2.00448e-08
9.04756e-11
5.90794e-10
-2.28769e-08
1.71629e-10
8.44175e-10
-2.50001e-08
3.04012e-10
1.19173e-09
-2.63253e-08
5.15171e-10
1.49669e-09
-2.74908e-08
7.6019e-10
1.7886e-09
-2.83174e-08
1.05637e-09
1.9662e-09
-2.9101e-08
1.38322e-09
1.98454e-09
-2.96202e-08
1.74314e-09
1.76607e-09
-3.0072e-08
2.13618e-09
1.34201e-09
-3.04237e-08
2.54635e-09
7.75529e-10
-3.07387e-08
2.89384e-09
8.01653e-11
-3.08237e-08
3.13857e-09
-7.02128e-10
-3.08277e-08
3.26305e-09
-1.5038e-09
-3.06838e-08
3.25728e-09
-2.22805e-09
-3.04306e-08
3.14082e-09
-2.82122e-09
-3.01414e-08
2.92526e-09
-3.24742e-09
-2.97863e-08
2.62237e-09
-3.44257e-09
-2.91547e-08
2.24674e-09
-3.43074e-09
-2.84698e-08
1.92602e-09
-3.249e-09
-2.76668e-08
1.62683e-09
-2.9338e-09
-2.67509e-08
1.36221e-09
-2.51581e-09
-2.5714e-08
1.14211e-09
-2.0311e-09
-2.44844e-08
9.61634e-10
-1.51913e-09
-2.2976e-08
8.0571e-10
-1.01731e-09
-2.10112e-08
6.75823e-10
-5.62948e-10
-1.82718e-08
5.59457e-10
-1.94593e-10
-1.41168e-08
4.14435e-10
-7.16162e-09
2.05829e-10
3.64864e-11
-7.82746e-09
1.40908e-11
1.1591e-10
-1.54971e-08
2.60608e-11
1.89243e-10
-2.01703e-08
5.21713e-11
3.3711e-10
-2.31261e-08
1.01313e-10
4.67714e-10
-2.53123e-08
1.8163e-10
6.55333e-10
-2.68184e-08
3.05486e-10
8.145e-10
-2.80966e-08
4.46632e-10
9.58631e-10
-2.90662e-08
6.04733e-10
1.05384e-09
-2.99719e-08
7.75689e-10
1.0504e-09
-3.06373e-08
1.02052e-09
9.01473e-10
-3.12386e-08
1.31552e-09
6.4955e-10
-3.17671e-08
1.59533e-09
2.98738e-10
-3.22046e-08
1.81679e-09
-1.31585e-10
-3.23701e-08
1.97675e-09
-6.07662e-10
-3.24204e-08
2.06871e-09
-1.09104e-09
-3.22756e-08
2.07517e-09
-1.52943e-09
-3.2004e-08
2.01183e-09
-1.87519e-09
-3.16699e-08
1.87428e-09
-2.13234e-09
-3.12209e-08
1.69167e-09
-2.26138e-09
-3.04705e-08
1.44486e-09
-2.26833e-09
-2.96566e-08
1.19375e-09
-2.14646e-09
-2.87483e-08
9.59626e-10
-1.91755e-09
-2.77647e-08
7.84843e-10
-1.61593e-09
-2.66802e-08
6.64647e-10
-1.28708e-09
-2.53888e-08
5.75483e-10
-9.53675e-10
-2.38027e-08
4.93331e-10
-6.33528e-10
-2.1749e-08
4.17639e-10
-3.47673e-10
-1.89052e-08
3.47589e-10
-1.19687e-10
-1.46037e-08
2.58945e-10
-7.41118e-09
1.29871e-10
-1.80568e-11
-7.78051e-09
-2.88979e-11
-5.65852e-11
-1.53965e-08
-6.20536e-11
-1.16126e-10
-2.00326e-08
-7.81949e-11
-1.3843e-10
-2.3027e-08
-7.67766e-11
-1.65271e-10
-2.52221e-08
-6.34197e-11
-1.39414e-10
-2.6806e-08
-3.82175e-11
-1.05831e-10
-2.81209e-08
-9.29924e-12
-7.10326e-11
-2.9144e-08
4.30068e-11
-7.44117e-11
-3.00861e-08
1.17638e-10
-9.75163e-11
-3.0839e-08
2.24758e-10
-1.29325e-10
-3.15411e-08
3.34259e-10
-1.74589e-10
-3.21542e-08
4.32338e-10
-2.98796e-10
-3.25838e-08
5.03388e-10
-4.26113e-10
-3.2801e-08
5.58159e-10
-5.35331e-10
-3.29196e-08
6.08454e-10
-6.64102e-10
-3.2797e-08
6.50209e-10
-7.82273e-10
-3.25437e-08
6.57856e-10
-8.58868e-10
-3.22026e-08
6.09296e-10
-9.08839e-10
-3.17204e-08
5.49491e-10
-9.15917e-10
-3.09319e-08
4.68436e-10
-8.88709e-10
-3.00719e-08
3.88142e-10
-8.21425e-10
-2.91247e-08
3.09107e-10
-7.18979e-10
-2.81173e-08
2.50146e-10
-5.93197e-10
-2.70126e-08
2.06587e-10
-4.61486e-10
-2.56952e-08
1.74722e-10
-3.32466e-10
-2.40793e-08
1.47523e-10
-2.13593e-10
-2.19947e-08
1.2685e-10
-1.12231e-10
-1.91156e-08
1.08973e-10
-3.68015e-11
-1.47632e-08
8.3994e-11
-7.4938e-09
4.58152e-11
-8.02387e-11
-7.61495e-09
-8.53155e-11
-2.33098e-10
-1.50681e-08
-1.75601e-10
-4.33031e-10
-1.95886e-08
-2.44055e-10
-6.31217e-10
-2.25383e-08
-2.90498e-10
-8.39414e-10
-2.46843e-08
-3.29578e-10
-1.0199e-09
-2.62724e-08
-3.53169e-10
-1.18598e-09
-2.75844e-08
-3.70462e-10
-1.2881e-09
-2.86469e-08
-3.95038e-10
-1.31444e-09
-2.96053e-08
-4.54454e-10
-1.2704e-09
-3.03429e-08
-5.4007e-10
-1.20039e-09
-3.09866e-08
-6.24475e-10
-1.12518e-09
-3.15506e-08
-6.78793e-10
-1.01274e-09
-3.19822e-08
-7.14112e-10
-8.02737e-10
-3.2264e-08
-7.46927e-10
-5.04945e-10
-3.24137e-08
-8.03681e-10
-2.46701e-10
-3.2235e-08
-8.20233e-10
-1.68984e-11
-3.19908e-08
-7.82696e-10
1.96784e-10
-3.16846e-08
-7.31685e-10
3.34508e-10
-3.11978e-08
-6.60274e-10
4.39902e-10
-3.04552e-08
-5.82047e-10
5.11701e-10
-2.96521e-08
-4.91649e-10
5.38209e-10
-2.87483e-08
-4.02881e-10
5.2207e-10
-2.77719e-08
-3.29283e-10
4.66208e-10
-2.66821e-08
-2.74651e-10
3.89917e-10
-2.53887e-08
-2.30252e-10
3.04793e-10
-2.38026e-08
-1.915e-10
2.13188e-10
-2.17497e-08
-1.53438e-10
1.2512e-10
-1.89093e-08
-1.18245e-10
4.74105e-11
-1.46081e-08
-7.73713e-11
-7.41203e-09
-3.43517e-11
-1.5235e-10
-7.30927e-09
-1.53335e-10
-4.38814e-10
-1.44616e-08
-3.20041e-10
-7.97152e-10
-1.87851e-08
-4.45144e-10
-1.17841e-09
-2.1616e-08
-5.4107e-10
-1.56632e-09
-2.36558e-08
-6.40605e-10
-1.91612e-09
-2.51754e-08
-7.47202e-10
-2.21343e-09
-2.6418e-08
-8.69043e-10
-2.42375e-09
-2.74298e-08
-1.00675e-09
-2.53408e-09
-2.83291e-08
-1.16591e-09
-2.48971e-09
-2.9021e-08
-1.36629e-09
-2.29184e-09
-2.95671e-08
-1.61736e-09
-1.9897e-09
-3.0007e-08
-1.8458e-09
-1.57088e-09
-3.03768e-08
-2.02415e-09
-1.03718e-09
-3.06354e-08
-2.16233e-09
-4.22928e-10
-3.0777e-08
-2.25093e-09
1.75036e-10
-3.05947e-08
-2.23825e-09
7.41296e-10
-3.04007e-08
-2.15639e-09
1.2425e-09
-3.01756e-08
-2.01024e-09
1.55472e-09
-2.97036e-08
-1.80649e-09
1.76861e-09
-2.90907e-08
-1.57838e-09
1.87742e-09
-2.84419e-08
-1.31893e-09
1.84863e-09
-2.76637e-08
-1.05583e-09
1.70813e-09
-2.67568e-08
-8.74582e-10
1.47899e-09
-2.57053e-08
-7.47684e-10
1.20942e-09
-2.44822e-08
-6.36847e-10
9.26205e-10
-2.2985e-08
-5.34458e-10
6.34766e-10
-2.10234e-08
-4.34799e-10
3.64786e-10
-1.82948e-08
-3.44459e-10
1.35965e-10
-1.41423e-08
-2.36931e-10
-7.16074e-09
-1.15325e-10
-2.1902e-10
-6.86982e-09
-2.2043e-10
-6.26552e-10
-1.3596e-08
-4.58017e-10
-1.12964e-09
-1.76479e-08
-6.34134e-10
-1.67336e-09
-2.02981e-08
-7.74161e-10
-2.22133e-09
-2.21825e-08
-9.25272e-10
-2.72094e-09
-2.35757e-08
-1.1001e-09
-3.13924e-09
-2.46918e-08
-1.30786e-09
-3.44323e-09
-2.55746e-08
-1.55121e-09
-3.61214e-09
-2.63273e-08
-1.83284e-09
-3.57462e-09
-2.69274e-08
-2.13115e-09
-3.28414e-09
-2.73829e-08
-2.47464e-09
-2.7768e-09
-2.76863e-08
-2.82799e-09
-2.10025e-09
-2.79224e-08
-3.13101e-09
-1.28353e-09
-2.81009e-08
-3.35126e-09
-3.72296e-10
-2.82187e-08
-3.46958e-09
5.41214e-10
-2.80673e-08
-3.44092e-09
1.39626e-09
-2.79331e-08
-3.32264e-09
2.14e-09
-2.78171e-08
-3.10221e-09
2.65029e-09
-2.74314e-08
-2.78239e-09
2.96676e-09
-2.69758e-08
-2.43142e-09
3.07546e-09
-2.64732e-08
-2.07741e-09
2.98661e-09
-2.58441e-08
-1.73072e-09
2.7365e-09
-2.50733e-08
-1.43331e-09
2.37476e-09
-2.41555e-08
-1.18805e-09
1.94236e-09
-2.30669e-08
-9.82943e-10
1.48266e-09
-2.17162e-08
-8.09064e-10
1.01817e-09
-1.98988e-08
-6.60111e-10
5.85109e-10
-1.73333e-08
-5.28488e-10
2.13498e-10
-1.34011e-08
-3.69611e-10
-6.76302e-09
-1.84222e-10
-2.78471e-10
-6.31498e-09
-2.76369e-10
-7.89277e-10
-1.25114e-08
-5.73806e-10
-1.41594e-09
-1.6224e-08
-7.97243e-10
-2.09801e-09
-1.86464e-08
-9.69605e-10
-2.78646e-09
-2.03403e-08
-1.1538e-09
-3.42709e-09
-2.15638e-08
-1.37128e-09
-3.97061e-09
-2.25057e-08
-1.64265e-09
-4.35057e-09
-2.32271e-08
-1.96758e-09
-4.52934e-09
-2.38083e-08
-2.34026e-09
-4.46448e-09
-2.42589e-08
-2.73339e-09
-4.11734e-09
-2.45972e-08
-3.13284e-09
-3.46069e-09
-2.48024e-08
-3.54058e-09
-2.55782e-09
-2.48999e-08
-3.92535e-09
-1.4919e-09
-2.49587e-08
-4.20808e-09
-3.21675e-10
-2.50311e-08
-4.35782e-09
8.51469e-10
-2.49195e-08
-4.32095e-09
1.94331e-09
-2.48484e-08
-4.1765e-09
2.88515e-09
-2.48391e-08
-3.91987e-09
3.56087e-09
-2.46004e-08
-3.50674e-09
3.95437e-09
-2.42994e-08
-3.06983e-09
4.07672e-09
-2.39224e-08
-2.67324e-09
3.95984e-09
-2.3441e-08
-2.28629e-09
3.63865e-09
-2.28404e-08
-1.91175e-09
3.16626e-09
-2.21003e-08
-1.58285e-09
2.5921e-09
-2.11806e-08
-1.3121e-09
1.97412e-09
-2.00105e-08
-1.08774e-09
1.35561e-09
-1.84072e-08
-8.73092e-10
7.74102e-10
-1.6069e-08
-6.82789e-10
2.79019e-10
-1.24246e-08
-4.8138e-10
-6.23922e-09
-2.44783e-10
-3.24708e-10
-5.66864e-09
-3.21626e-10
-9.15386e-10
-1.12579e-08
-6.62801e-10
-1.64562e-09
-1.45734e-08
-9.20364e-10
-2.45014e-09
-1.67201e-08
-1.12179e-09
-3.25453e-09
-1.81979e-08
-1.33796e-09
-3.99343e-09
-1.92374e-08
-1.58745e-09
-4.60918e-09
-1.99971e-08
-1.89284e-09
-5.03592e-09
-2.05459e-08
-2.25448e-09
-5.22089e-09
-2.09499e-08
-2.67347e-09
-5.11923e-09
-2.12309e-08
-3.1296e-09
-4.70655e-09
-2.14175e-08
-3.59239e-09
-3.96353e-09
-2.15197e-08
-4.0257e-09
-2.89967e-09
-2.15391e-08
-4.42466e-09
-1.63846e-09
-2.14791e-08
-4.74076e-09
-2.76614e-10
-2.14723e-08
-4.92067e-09
1.08557e-09
-2.13897e-08
-4.89197e-09
2.35632e-09
-2.13864e-08
-4.73283e-09
3.44161e-09
-2.14661e-08
-4.4583e-09
4.22641e-09
-2.13541e-08
-4.03111e-09
4.69108e-09
-2.11947e-08
-3.5694e-09
4.84244e-09
-2.09733e-08
-3.10041e-09
4.70999e-09
-2.0665e-08
-2.64351e-09
4.33705e-09
-2.02472e-08
-2.22029e-09
3.77999e-09
-1.96899e-08
-1.85326e-09
3.09318e-09
-1.89443e-08
-1.54957e-09
2.3375e-09
-1.79403e-08
-1.31446e-09
1.58013e-09
-1.6539e-08
-1.11088e-09
8.92275e-10
-1.4469e-08
-9.1216e-10
3.1855e-10
-1.12013e-08
-6.4961e-10
-5.61374e-09
-3.06937e-10
-3.55396e-10
-4.95327e-09
-3.59977e-10
-1.01597e-09
-9.85093e-09
-7.46424e-10
-1.8222e-09
-1.27479e-08
-1.01923e-09
-2.70169e-09
-1.46093e-08
-1.23132e-09
-3.57747e-09
-1.58651e-08
-1.45707e-09
-4.38059e-09
-1.67166e-08
-1.7177e-09
-5.04238e-09
-1.73e-08
-2.03525e-09
-5.49525e-09
-1.76824e-08
-2.41057e-09
-5.68027e-09
-1.79209e-08
-2.84398e-09
-5.55007e-09
-1.80439e-08
-3.31723e-09
-5.07651e-09
-1.8086e-08
-3.8051e-09
-4.25429e-09
-1.80737e-08
-4.26819e-09
-3.10029e-09
-1.80227e-08
-4.67042e-09
-1.71553e-09
-1.7901e-08
-4.96286e-09
-2.39623e-10
-1.7812e-08
-5.13618e-09
1.24422e-09
-1.77553e-08
-5.1183e-09
2.63708e-09
-1.78123e-08
-4.96689e-09
3.80638e-09
-1.79338e-08
-4.70158e-09
4.66379e-09
-1.79348e-08
-4.27673e-09
5.17955e-09
-1.79103e-08
-3.80018e-09
5.35519e-09
-1.78422e-08
-3.30671e-09
5.2185e-09
-1.76989e-08
-2.8294e-09
4.81479e-09
-1.74517e-08
-2.3918e-09
4.20412e-09
-1.70667e-08
-2.01253e-09
3.44861e-09
-1.64954e-08
-1.69334e-09
2.61279e-09
-1.56654e-08
-1.4391e-09
1.76128e-09
-1.44583e-08
-1.2291e-09
9.82439e-10
-1.26582e-08
-1.03187e-09
3.47146e-10
-9.81399e-09
-7.52023e-10
-4.91543e-09
-3.51155e-10
-3.685e-10
-4.19978e-09
-3.84991e-10
-1.07198e-09
-8.35106e-09
-7.96394e-10
-1.92374e-09
-1.08237e-08
-1.07248e-09
-2.84621e-09
-1.23982e-08
-1.28862e-09
-3.76143e-09
-1.34323e-08
-1.5176e-09
-4.5967e-09
-1.41032e-08
-1.77812e-09
-5.27936e-09
-1.4525e-08
-2.09236e-09
-5.74005e-09
-1.476e-08
-2.46177e-09
-5.91691e-09
-1.48593e-08
-2.88473e-09
-5.76246e-09
-1.48547e-08
-3.3436e-09
-5.24965e-09
-1.47817e-08
-3.81714e-09
-4.37516e-09
-1.46729e-08
-4.27533e-09
-3.18058e-09
-1.45441e-08
-4.67315e-09
-1.74002e-09
-1.43952e-08
-4.94643e-09
-2.06325e-10
-1.42665e-08
-5.07918e-09
1.33622e-09
-1.42346e-08
-5.06328e-09
2.78169e-09
-1.43286e-08
-4.92918e-09
3.99083e-09
-1.44706e-08
-4.67241e-09
4.89402e-09
-1.45648e-08
-4.27322e-09
5.44431e-09
-1.46461e-08
-3.81447e-09
5.63979e-09
-1.47001e-08
-3.33758e-09
5.50654e-09
-1.46906e-08
-2.87506e-09
5.08976e-09
-1.45862e-08
-2.44874e-09
4.45051e-09
-1.43513e-08
-2.07614e-09
3.65571e-09
-1.39407e-08
-1.75992e-09
2.77723e-09
-1.32869e-08
-1.50001e-09
1.88036e-09
-1.22844e-08
-1.27712e-09
1.05028e-09
-1.07566e-08
-1.0716e-09
3.67771e-10
-8.33918e-09
-7.92298e-10
-4.17359e-09
-3.74074e-10
-3.79396e-10
-3.43023e-09
-3.90149e-10
-1.09319e-09
-6.83618e-09
-8.01089e-10
-1.95587e-09
-8.87678e-09
-1.08423e-09
-2.89122e-09
-1.01627e-08
-1.30019e-09
-3.81689e-09
-1.09838e-08
-1.52278e-09
-4.65869e-09
-1.14893e-08
-1.77213e-09
-5.34131e-09
-1.17719e-08
-2.07048e-09
-5.79519e-09
-1.18876e-08
-2.41844e-09
-5.95879e-09
-1.18819e-08
-2.81373e-09
-5.7875e-09
-1.17858e-08
-3.24018e-09
-5.25274e-09
-1.16363e-08
-3.68011e-09
-4.35862e-09
-1.14606e-08
-4.10643e-09
-3.16939e-09
-1.12724e-08
-4.46094e-09
-1.74379e-09
-1.11145e-08
-4.70624e-09
-1.92328e-10
-1.09986e-08
-4.81936e-09
1.35523e-09
-1.09695e-08
-4.81263e-09
2.78654e-09
-1.10572e-08
-4.70269e-09
4.01365e-09
-1.12222e-08
-4.47543e-09
4.94299e-09
-1.13794e-08
-4.11472e-09
5.51138e-09
-1.15319e-08
-3.68262e-09
5.72016e-09
-1.16687e-08
-3.24021e-09
5.59571e-09
-1.17553e-08
-2.81081e-09
5.18103e-09
-1.17589e-08
-2.41256e-09
4.53685e-09
-1.16448e-08
-2.06234e-09
3.73032e-09
-1.13719e-08
-1.7623e-09
2.8363e-09
-1.08808e-08
-1.5121e-09
1.92501e-09
-1.00824e-08
-1.29068e-09
1.07735e-09
-8.8266e-09
-1.08231e-09
3.73041e-10
-6.82782e-09
-8.07047e-10
-3.41568e-09
-3.8487e-10
-3.77645e-10
-2.66945e-09
-3.83142e-10
-1.07788e-09
-5.35152e-09
-7.84418e-10
-1.9267e-09
-6.96401e-09
-1.06395e-09
-2.84835e-09
-7.96985e-09
-1.27119e-09
-3.75923e-09
-8.59236e-09
-1.48058e-09
-4.58579e-09
-8.95087e-09
-1.71184e-09
-5.25161e-09
-9.12e-09
-1.98611e-09
-5.68856e-09
-9.14709e-09
-2.30362e-09
-5.83769e-09
-9.07034e-09
-2.66246e-09
-5.65543e-09
-8.92061e-09
-3.04749e-09
-5.11863e-09
-8.72982e-09
-3.44331e-09
-4.24243e-09
-8.52031e-09
-3.81647e-09
-3.0797e-09
-8.31652e-09
-4.11861e-09
-1.69272e-09
-8.15991e-09
-4.3416e-09
-1.70501e-10
-8.06788e-09
-4.45296e-09
1.3457e-09
-8.04088e-09
-4.44483e-09
2.74516e-09
-8.11735e-09
-4.33935e-09
3.94055e-09
-8.28185e-09
-4.13577e-09
4.8499e-09
-8.46343e-09
-3.82532e-09
5.41668e-09
-8.65405e-09
-3.44462e-09
5.63185e-09
-8.83589e-09
-3.04797e-09
5.51843e-09
-8.98036e-09
-2.66156e-09
5.11619e-09
-9.05588e-09
-2.30078e-09
4.48383e-09
-9.03132e-09
-1.98114e-09
3.68798e-09
-8.87059e-09
-1.70544e-09
2.80433e-09
-8.52367e-09
-1.47348e-09
1.90336e-09
-7.91762e-09
-1.2638e-09
1.06762e-09
-6.93225e-09
-1.05861e-09
3.71344e-10
-5.3459e-09
-7.85648e-10
-2.66575e-09
-3.78584e-10
-3.61196e-10
-1.94536e-09
-3.62893e-10
-1.02928e-09
-3.94048e-09
-7.42951e-10
-1.84072e-09
-5.14563e-09
-1.00694e-09
-2.72457e-09
-5.88742e-09
-1.19859e-09
-3.59946e-09
-6.32845e-09
-1.38902e-09
-4.39336e-09
-6.56063e-09
-1.59634e-09
-5.03056e-09
-6.64105e-09
-1.84175e-09
-5.44554e-09
-6.60825e-09
-2.12385e-09
-5.58141e-09
-6.4932e-09
-2.44128e-09
-5.39759e-09
-6.32283e-09
-2.7816e-09
-4.87339e-09
-6.1214e-09
-3.13261e-09
-4.03443e-09
-5.90995e-09
-3.44933e-09
-2.92121e-09
-5.71949e-09
-3.71025e-09
-1.59763e-09
-5.5762e-09
-3.90729e-09
-1.49303e-10
-5.50017e-09
-4.01604e-09
1.29436e-09
-5.4795e-09
-4.00504e-09
2.63062e-09
-5.54738e-09
-3.90624e-09
3.77145e-09
-5.69459e-09
-3.72809e-09
4.64012e-09
-5.87122e-09
-3.46087e-09
5.19117e-09
-6.07027e-09
-3.13482e-09
5.40495e-09
-6.26457e-09
-2.78511e-09
5.30084e-09
-6.43191e-09
-2.44433e-09
4.91708e-09
-6.54697e-09
-2.12515e-09
4.3092e-09
-6.58227e-09
-1.84117e-09
3.54171e-09
-6.50865e-09
-1.59445e-09
2.68894e-09
-6.285e-09
-1.38589e-09
1.82246e-09
-5.85619e-09
-1.19494e-09
1.02291e-09
-5.12915e-09
-1.00356e-09
3.59372e-10
-3.9404e-09
-7.41963e-10
-1.94654e-09
-3.59837e-10
-3.29529e-10
-1.28609e-09
-3.29741e-10
-9.42827e-10
-2.65119e-09
-6.75991e-10
-1.69577e-09
-3.48102e-09
-9.11666e-10
-2.5213e-09
-3.98331e-09
-1.07858e-09
-3.34253e-09
-4.26399e-09
-1.24322e-09
-4.0901e-09
-4.39097e-09
-1.42209e-09
-4.68998e-09
-4.40647e-09
-1.6347e-09
-5.07936e-09
-4.33973e-09
-1.87915e-09
-5.20477e-09
-4.21324e-09
-2.15454e-09
-5.02856e-09
-4.04896e-09
-2.45008e-09
-4.53523e-09
-3.86305e-09
-2.75168e-09
-3.74963e-09
-3.67893e-09
-3.01662e-09
-2.70843e-09
-3.51687e-09
-3.24382e-09
-1.47345e-09
-3.39659e-09
-3.41459e-09
-1.27637e-10
-3.33305e-09
-3.51293e-09
1.21458e-09
-3.32061e-09
-3.50111e-09
2.45852e-09
-3.37874e-09
-3.41257e-09
3.52045e-09
-3.4992e-09
-3.25731e-09
4.33284e-09
-3.65413e-09
-3.02949e-09
4.8525e-09
-3.83221e-09
-2.75772e-09
5.05559e-09
-4.01337e-09
-2.45429e-09
4.95831e-09
-4.176e-09
-2.15864e-09
4.59616e-09
-4.30278e-09
-1.88204e-09
4.02155e-09
-4.3717e-09
-1.63596e-09
3.29637e-09
-4.36086e-09
-1.42261e-09
2.49384e-09
-4.24009e-09
-1.24238e-09
1.68296e-09
-3.96851e-09
-1.0768e-09
9.40179e-10