/*--------------------------------*- C++ -*----------------------------------*\
| =========                 |                                                 |
| \\      /  F ield         | OpenFOAM: The Open Source CFD Toolbox           |
|  \\    /   O peration     | Version:  v1906                                 |
|   \\  /    A nd           | Web:      www.OpenFOAM.com                      |
|    \\/     M anipulation  |                                                 |
\*---------------------------------------------------------------------------*/
FoamFile
{
    version     2.0;
    format      ascii;
    class       surfaceScalarField;
    location    "98";
    object      phi;
}
// * * * * * * * * * * * * * * * * * * * * * * * * * * * * * * * * * * * * * //

dimensions      [1 0 -1 0 0 0 0];
oriented        oriented;


internalField   nonuniform List<scalar> 
228225
(
-5.37335e-10
-9.16975e-10
1.17746e-09
-7.68752e-10
1.27416e-09
-1.04024e-09
-2.33252e-09
2.96236e-09
-1.3997e-09
-5.52825e-09
4.58889e-09
-1.39261e-09
-1.02566e-08
6.11339e-09
-1.38525e-09
-1.62642e-08
7.47302e-09
-1.46386e-09
-2.32794e-08
8.64633e-09
-1.63313e-09
-3.10045e-08
9.6111e-09
-1.88523e-09
-3.91772e-08
1.03729e-08
-2.19809e-09
-4.75424e-08
1.0926e-08
-2.55979e-09
-5.58823e-08
1.12856e-08
-2.95023e-09
-6.39705e-08
1.14533e-08
-3.36279e-09
-7.1635e-08
1.14492e-08
-3.7819e-09
-7.87138e-08
1.12766e-08
-4.20287e-09
-8.50534e-08
1.09573e-08
-4.61365e-09
-9.05399e-08
1.04969e-08
-5.01182e-09
-9.50656e-08
9.91575e-09
-5.38745e-09
-9.85479e-08
9.21964e-09
-5.73996e-09
-1.00916e-07
8.42787e-09
-6.05859e-09
-1.02117e-07
7.54615e-09
-6.34487e-09
-1.02118e-07
6.59282e-09
-6.59196e-09
-1.00892e-07
5.57359e-09
-6.80003e-09
-9.84353e-08
4.50639e-09
-6.96385e-09
-9.47438e-08
3.39801e-09
-7.08568e-09
-8.98501e-08
2.26716e-09
-7.16283e-09
-8.37727e-08
1.1238e-09
-7.20018e-09
-7.65747e-08
2.75559e-13
-7.19881e-09
-6.82862e-08
-1.12198e-09
-7.16746e-09
-5.89919e-08
-2.18115e-09
-7.11088e-09
-4.87958e-08
-3.15944e-09
-7.03874e-09
-3.78344e-08
-4.01089e-09
-6.94698e-09
-2.63562e-08
-4.6787e-09
-6.80223e-09
-1.48535e-08
-5.05221e-09
-6.45042e-09
-4.54012e-09
-4.97642e-09
-5.33614e-09
-3.53346e-09
-1.00756e-09
-1.47238e-09
1.12459e-08
-1.0688e-08
-8.29894e-09
2.0321e-08
-1.22232e-08
-1.71068e-08
2.47308e-08
-1.29604e-08
-2.69944e-08
2.81154e-08
-1.36392e-08
-3.72899e-08
3.06199e-08
-1.42122e-08
-4.75258e-08
3.24028e-08
-1.46945e-08
-5.73471e-08
3.35899e-08
-1.51209e-08
-6.65164e-08
3.42865e-08
-1.5506e-08
-7.48539e-08
3.45703e-08
-1.58612e-08
-8.22468e-08
3.45059e-08
-1.61879e-08
-8.86113e-08
3.41433e-08
-1.64916e-08
-9.39141e-08
3.3525e-08
-1.67699e-08
-9.81256e-08
3.26861e-08
-1.70259e-08
-1.01247e-07
3.16559e-08
-1.72565e-08
-1.03288e-07
3.0461e-08
-1.7464e-08
-1.04274e-07
2.91278e-08
-1.76447e-08
-1.04236e-07
2.76781e-08
-1.78006e-08
-1.03221e-07
2.61331e-08
-1.79282e-08
-1.01276e-07
2.45117e-08
-1.80294e-08
-9.8462e-08
2.28332e-08
-1.81007e-08
-9.48411e-08
2.11145e-08
-1.81439e-08
-9.04831e-08
1.93728e-08
-1.81559e-08
-8.54621e-08
1.76233e-08
-1.81381e-08
-7.98571e-08
1.58811e-08
-1.80871e-08
-7.37473e-08
1.41597e-08
-1.80034e-08
-6.72126e-08
1.24711e-08
-1.78823e-08
-6.03138e-08
1.08247e-08
-1.77219e-08
-5.31513e-08
9.22859e-09
-1.75137e-08
-4.57723e-08
7.69001e-09
-1.72496e-08
-3.82337e-08
6.21464e-09
-1.69124e-08
-3.05696e-08
4.80685e-09
-1.64822e-08
-2.28007e-08
3.47542e-09
-1.59219e-08
-1.49592e-08
2.2401e-09
-1.51351e-08
-7.25957e-09
1.19406e-09
-1.38703e-08
2.7909e-10
-1.10717e-08
-5.99575e-11
2.04212e-08
-9.11506e-09
-3.02688e-09
3.41509e-08
-1.08641e-08
-6.96648e-09
4.02713e-08
-1.15996e-08
-1.13932e-08
4.46823e-08
-1.2141e-08
-1.59763e-08
4.77681e-08
-1.25644e-08
-2.04873e-08
4.98327e-08
-1.29192e-08
-2.47667e-08
5.10955e-08
-1.32274e-08
-2.86964e-08
5.1726e-08
-1.35086e-08
-3.22067e-08
5.18482e-08
-1.37689e-08
-3.52427e-08
5.15596e-08
-1.4017e-08
-3.77818e-08
5.09339e-08
-1.42519e-08
-3.98084e-08
5.00304e-08
-1.44778e-08
-4.13279e-08
4.88963e-08
-1.46908e-08
-4.2349e-08
4.75707e-08
-1.48937e-08
-4.28948e-08
4.60867e-08
-1.50818e-08
-4.29844e-08
4.44749e-08
-1.52564e-08
-4.26532e-08
4.27606e-08
-1.54131e-08
-4.19351e-08
4.09667e-08
-1.55534e-08
-4.08632e-08
3.91142e-08
-1.5673e-08
-3.94796e-08
3.72221e-08
-1.57735e-08
-3.78215e-08
3.53076e-08
-1.58509e-08
-3.5929e-08
3.33866e-08
-1.59065e-08
-3.38406e-08
3.14724e-08
-1.59365e-08
-3.15956e-08
2.95778e-08
-1.59418e-08
-2.92326e-08
2.7713e-08
-1.59182e-08
-2.67778e-08
2.58821e-08
-1.58655e-08
-2.42585e-08
2.40837e-08
-1.57779e-08
-2.169e-08
2.23122e-08
-1.56518e-08
-1.90819e-08
2.05572e-08
-1.54761e-08
-1.64251e-08
1.87973e-08
-1.52392e-08
-1.36953e-08
1.69972e-08
-1.49184e-08
-1.08507e-08
1.51076e-08
-1.44787e-08
-7.82439e-09
1.30532e-08
-1.38391e-08
-4.52507e-09
1.07278e-08
-1.28328e-08
6.24398e-09
-1.04901e-08
3.73922e-10
2.51163e-08
-5.06842e-09
1.20936e-10
4.10667e-08
-6.66316e-09
-3.9934e-10
4.82325e-08
-7.44151e-09
-1.18435e-09
5.34262e-08
-7.95856e-09
-2.1788e-09
5.7109e-08
-8.34632e-09
-3.30031e-09
5.96276e-08
-8.67407e-09
-4.4684e-09
6.12388e-08
-8.97522e-09
-5.62247e-09
6.21384e-08
-9.25887e-09
-6.71063e-09
6.24746e-08
-9.53658e-09
-7.70333e-09
6.23607e-08
-9.8092e-09
-8.57308e-09
6.18853e-08
-1.00825e-08
-9.30679e-09
6.11166e-08
-1.03529e-08
-9.89723e-09
6.01104e-08
-1.06233e-08
-1.03484e-08
5.89105e-08
-1.08886e-08
-1.06657e-08
5.75546e-08
-1.11501e-08
-1.08616e-08
5.60732e-08
-1.14024e-08
-1.09499e-08
5.44935e-08
-1.16463e-08
-1.09451e-08
5.2838e-08
-1.18762e-08
-1.08641e-08
5.11273e-08
-1.20929e-08
-1.073e-08
4.93781e-08
-1.2291e-08
-1.05571e-08
4.76056e-08
-1.24711e-08
-1.03623e-08
4.58214e-08
-1.26284e-08
-1.01626e-08
4.40353e-08
-1.27631e-08
-9.96831e-09
4.22547e-08
-1.28703e-08
-9.78964e-09
4.04817e-08
-1.29494e-08
-9.62034e-09
3.87096e-08
-1.29956e-08
-9.45304e-09
3.69243e-08
-1.30079e-08
-9.26574e-09
3.51036e-08
-1.29796e-08
-9.01385e-09
3.32117e-08
-1.29056e-08
-8.63899e-09
3.11954e-08
-1.27741e-08
-8.04704e-09
2.89769e-08
-1.25715e-08
-7.11305e-09
2.64501e-08
-1.22761e-08
-5.65807e-09
2.34616e-08
-1.18638e-08
-3.5047e-09
1.98159e-08
-1.12414e-08
1.22919e-08
-9.55248e-09
-4.05404e-10
2.75302e-08
-2.00732e-09
-3.55664e-11
4.39633e-08
-3.26634e-09
7.07089e-10
5.14418e-08
-3.95466e-09
1.57748e-09
5.69579e-08
-4.3996e-09
2.45021e-09
6.09594e-08
-4.72521e-09
3.29385e-09
6.37953e-08
-5.01118e-09
4.08881e-09
6.57245e-08
-5.28027e-09
4.82611e-09
6.69463e-08
-5.54538e-09
5.49941e-09
6.76092e-08
-5.80831e-09
6.10776e-09
6.78298e-08
-6.07602e-09
6.64286e-09
6.76956e-08
-6.34638e-09
7.10616e-09
6.72771e-08
-6.62267e-09
7.48784e-09
6.6628e-08
-6.90038e-09
7.78532e-09
6.57932e-08
-7.18099e-09
7.99304e-09
6.48077e-08
-7.45915e-09
8.09961e-09
6.37015e-08
-7.73557e-09
8.09885e-09
6.24986e-08
-8.00465e-09
7.98348e-09
6.12201e-08
-8.26674e-09
7.74477e-09
5.98824e-08
-8.51638e-09
7.37817e-09
5.84999e-08
-8.75376e-09
6.87245e-09
5.70826e-08
-8.97375e-09
6.23265e-09
5.56384e-08
-9.17644e-09
5.45239e-09
5.4171e-08
-9.35686e-09
4.54386e-09
5.26799e-08
-9.51482e-09
3.51309e-09
5.11569e-08
-9.64572e-09
2.38684e-09
4.95865e-08
-9.74927e-09
1.18753e-09
4.79424e-08
-9.8206e-09
-3.57157e-11
4.61855e-08
-9.85844e-09
-1.22523e-09
4.42578e-08
-9.85624e-09
-2.3001e-09
4.20783e-08
-9.80881e-09
-3.15183e-09
3.95322e-08
-9.70366e-09
-3.62984e-09
3.6464e-08
-9.53445e-09
-3.52262e-09
3.26561e-08
-9.30426e-09
-2.56071e-09
2.78224e-08
-8.96786e-09
1.75435e-08
-7.81172e-09
-6.47322e-10
2.83555e-08
-1.77118e-10
-2.7469e-10
4.46857e-08
-1.09636e-09
6.42103e-10
5.21835e-08
-1.6581e-09
1.82511e-09
5.77887e-08
-2.01321e-09
3.11852e-09
6.19436e-08
-2.2787e-09
4.44688e-09
6.49833e-08
-2.51703e-09
5.76333e-09
6.71623e-08
-2.75204e-09
7.02354e-09
6.86703e-08
-2.98611e-09
8.20554e-09
6.96533e-08
-3.22576e-09
9.28544e-09
7.02203e-08
-3.46997e-09
1.02458e-08
7.04573e-08
-3.72242e-09
1.10737e-08
7.04287e-08
-3.97961e-09
1.17581e-08
7.01865e-08
-4.2432e-09
1.22899e-08
6.97701e-08
-4.50857e-09
1.26607e-08
6.92128e-08
-4.77641e-09
1.28646e-08
6.85396e-08
-5.0417e-09
1.28971e-08
6.7772e-08
-5.3047e-09
1.27503e-08
6.69261e-08
-5.56038e-09
1.24257e-08
6.60157e-08
-5.80877e-09
1.19222e-08
6.50497e-08
-6.04505e-09
1.12361e-08
6.40349e-08
-6.2692e-09
1.03796e-08
6.2973e-08
-6.47665e-09
9.35501e-09
6.18619e-08
-6.66743e-09
8.18102e-09
6.0693e-08
-6.83729e-09
6.87311e-09
5.94511e-08
-6.98623e-09
5.45661e-09
5.81113e-08
-7.1102e-09
3.9716e-09
5.66368e-08
-7.20891e-09
2.46134e-09
5.49741e-08
-7.27821e-09
9.88821e-10
5.30479e-08
-7.31677e-09
-3.70753e-10
5.07544e-08
-7.31793e-09
-1.51207e-09
4.795e-08
-7.27608e-09
-2.30152e-09
4.44413e-08
-7.18748e-09
-2.53622e-09
3.99616e-08
-7.07183e-09
-1.97284e-09
3.41647e-08
-6.90316e-09
2.16836e-08
-6.11496e-09
-6.16888e-10
2.83164e-08
6.55254e-10
-3.02496e-10
4.44103e-08
-3.7524e-11
5.05371e-10
5.18461e-08
-4.70095e-10
1.57168e-09
5.74659e-08
-7.45102e-10
2.76436e-09
6.16999e-08
-9.49172e-10
4.0105e-09
6.48754e-08
-1.13774e-09
5.25976e-09
6.72373e-08
-1.32448e-09
6.47505e-09
6.89709e-08
-1.5159e-09
7.62522e-09
7.02146e-08
-1.71101e-09
8.6847e-09
7.10745e-08
-1.91352e-09
9.63317e-09
7.16297e-08
-2.12116e-09
1.04558e-08
7.19422e-08
-2.33583e-09
1.11374e-08
7.20581e-08
-2.55389e-09
1.16691e-08
7.20147e-08
-2.77629e-09
1.20423e-08
7.18394e-08
-2.99892e-09
1.22489e-08
7.1555e-08
-3.22221e-09
1.22853e-08
7.11776e-08
-3.44192e-09
1.21483e-08
7.07208e-08
-3.65825e-09
1.18379e-08
7.0193e-08
-3.86707e-09
1.13561e-08
6.96002e-08
-4.06849e-09
1.0708e-08
6.89435e-08
-4.25858e-09
9.89594e-09
6.82209e-08
-4.43747e-09
8.93556e-09
6.74243e-08
-4.60148e-09
7.84015e-09
6.65404e-08
-4.7508e-09
6.62478e-09
6.55468e-08
-4.88203e-09
5.32033e-09
6.44115e-08
-4.99534e-09
3.95842e-09
6.30879e-08
-5.08749e-09
2.57776e-09
6.15118e-08
-5.15855e-09
1.23643e-09
5.95939e-08
-5.20489e-09
3.53819e-12
5.72136e-08
-5.22471e-09
-1.04157e-09
5.42051e-08
-5.21152e-09
-1.77835e-09
5.03471e-08
-5.16751e-09
-2.04242e-09
4.53366e-08
-5.11193e-09
-1.61962e-09
3.87762e-08
-5.03219e-09
2.45531e-08
-4.49037e-09
-4.33814e-10
2.7848e-08
9.03201e-10
-2.59729e-10
4.38298e-08
4.05763e-10
2.62514e-10
5.12398e-08
8.41494e-11
9.65661e-10
5.68755e-08
-1.13051e-10
1.75969e-09
6.1168e-08
-2.6167e-10
2.59502e-09
6.44392e-08
-4.00512e-10
3.44347e-09
6.69316e-08
-5.41402e-10
4.27282e-09
6.88252e-08
-6.84114e-10
5.06157e-09
7.02568e-08
-8.31648e-10
5.79211e-09
7.13273e-08
-9.83284e-10
6.44841e-09
7.21148e-08
-1.14088e-09
7.01606e-09
7.26764e-08
-1.30174e-09
7.48443e-09
7.30566e-08
-1.46699e-09
7.84401e-09
7.32878e-08
-1.63346e-09
8.09011e-09
7.3396e-08
-1.80185e-09
8.21481e-09
7.33993e-08
-1.96879e-09
8.21486e-09
7.3312e-08
-2.13476e-09
8.08864e-09
7.31432e-08
-2.29645e-09
7.83703e-09
7.2899e-08
-2.45423e-09
7.46135e-09
7.25811e-08
-2.6049e-09
6.96458e-09
7.2188e-08
-2.74883e-09
6.35542e-09
7.1713e-08
-2.883e-09
5.64209e-09
7.11449e-08
-3.00784e-09
4.83958e-09
7.04652e-08
-3.12055e-09
3.96055e-09
6.96474e-08
-3.22159e-09
3.02606e-09
6.86533e-08
-3.30835e-09
2.06437e-09
6.74306e-08
-3.38132e-09
1.10649e-09
6.5907e-08
-3.43801e-09
1.95485e-10
6.39843e-08
-3.47859e-09
-6.2108e-10
6.15296e-08
-3.49943e-09
-1.2823e-09
5.8363e-08
-3.49867e-09
-1.70099e-09
5.42441e-08
-3.47626e-09
-1.75931e-09
4.88455e-08
-3.45109e-09
-1.30823e-09
4.17365e-08
-3.41031e-09
2.62821e-08
-3.03805e-09
-3.64409e-10
2.72076e-08
1.004e-09
-3.75914e-10
4.31507e-08
6.92347e-10
-1.80892e-10
5.05537e-08
4.88861e-10
1.27246e-10
5.62037e-08
3.64261e-10
4.95967e-10
6.05317e-08
2.68169e-10
8.99459e-10
6.38609e-08
1.74812e-10
1.32059e-09
6.6431e-08
7.93231e-11
1.74315e-09
6.84224e-08
-1.87898e-11
2.14989e-09
6.99681e-08
-1.19257e-10
2.53037e-09
7.1169e-08
-2.22201e-10
2.8742e-09
7.20993e-08
-3.28645e-10
3.17444e-09
7.28158e-08
-4.39136e-10
3.42214e-09
7.33597e-08
-5.51114e-10
3.61258e-09
7.37634e-08
-6.6543e-10
3.73931e-09
7.40492e-08
-7.79199e-10
3.79608e-09
7.42342e-08
-8.93126e-10
3.78347e-09
7.43294e-08
-1.00468e-09
3.69929e-09
7.43426e-08
-1.11451e-09
3.54268e-09
7.42764e-08
-1.22013e-09
3.31292e-09
7.4131e-08
-1.3222e-09
3.01935e-09
7.39016e-08
-1.41832e-09
2.66138e-09
7.35799e-08
-1.50917e-09
2.24836e-09
7.31511e-08
-1.59252e-09
1.78552e-09
7.25947e-08
-1.66911e-09
1.29134e-09
7.18804e-08
-1.73683e-09
7.73138e-10
7.09674e-08
-1.79651e-09
2.52177e-10
6.97988e-08
-1.84618e-09
-2.52738e-10
6.82985e-08
-1.88673e-09
-7.16358e-10
6.63626e-08
-1.91617e-09
-1.10319e-09
6.38524e-08
-1.93468e-09
-1.3818e-09
6.05797e-08
-1.93922e-09
-1.49813e-09
5.62943e-08
-1.93281e-09
-1.38052e-09
5.06557e-08
-1.9273e-09
-9.44358e-10
4.32137e-08
-1.91406e-09
2.70252e-08
-1.68658e-09
-4.52195e-10
2.65094e-08
1.15107e-09
-6.91948e-10
4.2366e-08
1.02316e-09
-7.97289e-10
4.9733e-08
9.27819e-10
-8.31449e-10
5.53636e-08
8.72832e-10
-8.14523e-10
5.96893e-08
8.25148e-10
-7.58692e-10
6.30309e-08
7.75557e-10
-6.76671e-10
6.56278e-08
7.20768e-10
-5.75119e-10
6.76579e-08
6.62875e-10
-4.62198e-10
6.92544e-08
6.00994e-10
-3.45903e-10
7.05158e-08
5.36865e-10
-2.32234e-10
7.1516e-08
4.69949e-10
-1.28209e-10
7.23093e-08
4.022e-10
-3.6341e-11
7.29368e-08
3.32716e-10
3.44775e-11
7.34278e-08
2.63518e-10
8.56567e-11
7.38045e-08
1.93031e-10
1.15179e-10
7.40818e-08
1.23323e-10
1.22008e-10
7.42704e-08
5.36703e-11
1.01244e-10
7.43754e-08
-1.29223e-11
5.50086e-11
7.43995e-08
-7.81064e-11
-1.31826e-11
7.43402e-08
-1.39103e-10
-1.06227e-10
7.41925e-08
-1.97937e-10
-2.19471e-10
7.39455e-08
-2.52704e-10
-3.47068e-10
7.35842e-08
-3.04208e-10
-4.89159e-10
7.30856e-08
-3.5073e-10
-6.3355e-10
7.24191e-08
-3.9329e-10
-7.77792e-10
7.15414e-08
-4.30353e-10
-9.10665e-10
7.03953e-08
-4.63076e-10
-1.025e-09
6.89024e-08
-4.90143e-10
-1.10734e-09
6.6958e-08
-5.12842e-10
-1.14521e-09
6.44211e-08
-5.29795e-10
-1.12794e-09
6.11026e-08
-5.42036e-10
-1.03118e-09
5.67498e-08
-5.50678e-10
-8.29661e-10
5.10207e-08
-5.67212e-10
-4.93136e-10
4.3461e-08
-5.83339e-10
2.70307e-08
-4.98692e-10
-6.09313e-10
2.57803e-08
1.33883e-09
-1.04137e-09
4.14268e-08
1.37033e-09
-1.37163e-09
4.86968e-08
1.36621e-09
-1.63168e-09
5.42575e-08
1.36719e-09
-1.83842e-09
5.85338e-08
1.36055e-09
-1.99571e-09
6.18439e-08
1.34462e-09
-2.11189e-09
6.44223e-08
1.32241e-09
-2.19581e-09
6.64456e-08
1.29449e-09
-2.24752e-09
6.80441e-08
1.26347e-09
-2.27667e-09
6.93155e-08
1.22897e-09
-2.28503e-09
7.03317e-08
1.19297e-09
-2.27739e-09
7.1147e-08
1.15472e-09
-2.25667e-09
7.18002e-08
1.11591e-09
-2.22671e-09
7.23205e-08
1.07608e-09
-2.1878e-09
7.2728e-08
1.03693e-09
-2.14013e-09
7.30377e-08
9.97493e-10
-2.08752e-09
7.32585e-08
9.59385e-10
-2.03022e-09
7.33961e-08
9.21647e-10
-1.96914e-09
7.34512e-08
8.85824e-10
-1.89983e-09
7.34219e-08
8.50915e-10
-1.82919e-09
7.33013e-08
8.18369e-10
-1.74874e-09
7.30794e-08
7.87132e-10
-1.66317e-09
7.27393e-08
7.58554e-10
-1.56806e-09
7.22591e-08
7.31489e-10
-1.46313e-09
7.16068e-08
7.07154e-10
-1.34601e-09
7.07405e-08
6.84265e-10
-1.21723e-09
6.96022e-08
6.63825e-10
-1.07367e-09
6.81156e-08
6.44264e-10
-9.19482e-10
6.61763e-08
6.26189e-10
-7.5251e-10
6.36467e-08
6.07644e-10
-5.76998e-10
6.03397e-08
5.88668e-10
-4.02204e-10
5.60077e-08
5.64762e-10
-2.21594e-10
5.03148e-08
5.27968e-10
-5.66858e-11
4.28147e-08
4.79577e-10
2.65372e-08
4.37308e-10
-7.13977e-10
2.50698e-08
1.42498e-09
-1.25007e-09
4.03965e-08
1.56542e-09
-1.69323e-09
4.75195e-08
1.62006e-09
-2.0636e-09
5.29698e-08
1.65837e-09
-2.37003e-09
5.71638e-08
1.67752e-09
-2.62326e-09
6.0411e-08
1.68467e-09
-2.82685e-09
6.29427e-08
1.68268e-09
-2.98402e-09
6.49303e-08
1.67521e-09
-3.1061e-09
6.65021e-08
1.66303e-09
-3.19169e-09
6.77531e-08
1.64845e-09
-3.24572e-09
6.87544e-08
1.6313e-09
-3.27075e-09
6.95578e-08
1.6133e-09
-3.26605e-09
7.02026e-08
1.59389e-09
-3.23679e-09
7.07163e-08
1.57456e-09
-3.18269e-09
7.11195e-08
1.55456e-09
-3.1062e-09
7.14257e-08
1.53524e-09
-3.00727e-09
7.16443e-08
1.51574e-09
-2.88846e-09
7.17796e-08
1.49734e-09
-2.74989e-09
7.18331e-08
1.47907e-09
-2.5904e-09
7.18015e-08
1.46215e-09
-2.41351e-09
7.16791e-08
1.44552e-09
-2.22033e-09
7.14545e-08
1.43029e-09
-2.00697e-09
7.11124e-08
1.41535e-09
-1.78077e-09
7.063e-08
1.40167e-09
-1.53835e-09
6.99771e-08
1.388e-09
-1.28622e-09
6.91118e-08
1.37514e-09
-1.02278e-09
6.79788e-08
1.36159e-09
-7.57884e-10
6.65027e-08
1.34776e-09
-4.96892e-10
6.45836e-08
1.33161e-09
-2.48725e-10
6.20868e-08
1.3128e-09
-3.02372e-11
5.88325e-08
1.28822e-09
1.4181e-10
5.45796e-08
1.25492e-09
2.50034e-10
4.90048e-08
1.20304e-09
2.5806e-10
4.16754e-08
1.13192e-09
2.57957e-08
9.99438e-10
-6.71194e-10
2.44404e-08
1.29972e-09
-1.18577e-09
3.94354e-08
1.47777e-09
-1.62625e-09
4.64046e-08
1.55525e-09
-2.00179e-09
5.17389e-08
1.60599e-09
-2.31913e-09
5.58436e-08
1.63543e-09
-2.57826e-09
5.90218e-08
1.65123e-09
-2.79414e-09
6.1498e-08
1.65886e-09
-2.96503e-09
6.34412e-08
1.66014e-09
-3.09691e-09
6.49758e-08
1.65787e-09
-3.19063e-09
6.61955e-08
1.65245e-09
-3.25212e-09
6.71689e-08
1.64569e-09
-3.27933e-09
6.79481e-08
1.63735e-09
-3.27365e-09
6.85701e-08
1.62883e-09
-3.24194e-09
6.90631e-08
1.61955e-09
-3.17924e-09
6.94464e-08
1.61072e-09
-3.08851e-09
6.97343e-08
1.60163e-09
-2.97295e-09
6.99347e-08
1.59336e-09
-2.83065e-09
7.00532e-08
1.58509e-09
-2.66518e-09
7.009e-08
1.5778e-09
-2.47818e-09
7.00431e-08
1.57059e-09
-2.27027e-09
6.99057e-08
1.56436e-09
-2.0403e-09
6.9668e-08
1.55811e-09
-1.79274e-09
6.93139e-08
1.55265e-09
-1.53463e-09
6.88223e-08
1.54685e-09
-1.25999e-09
6.81631e-08
1.54139e-09
-9.80144e-10
6.72965e-08
1.53497e-09
-6.98056e-10
6.6168e-08
1.52799e-09
-4.19325e-10
6.47059e-08
1.51878e-09
-1.56277e-10
6.28125e-08
1.50715e-09
8.29605e-11
6.03588e-08
1.49061e-09
2.76684e-10
5.71702e-08
1.46774e-09
4.0914e-10
5.30149e-08
1.43363e-09
4.50737e-10
4.75805e-08
1.38129e-09
3.71919e-10
4.04502e-08
1.30582e-09
2.50235e-08
1.14321e-09
-4.85696e-10
2.39885e-08
9.35308e-10
-8.78072e-10
3.8748e-08
1.08389e-09
-1.23294e-09
4.56084e-08
1.14953e-09
-1.54641e-09
5.08591e-08
1.19183e-09
-1.8149e-09
5.48989e-08
1.21549e-09
-2.0485e-09
5.80242e-08
1.22889e-09
-2.2425e-09
6.04575e-08
1.23516e-09
-2.40133e-09
6.23635e-08
1.23722e-09
-2.52683e-09
6.38659e-08
1.23589e-09
-2.62178e-09
6.5056e-08
1.23299e-09
-2.68301e-09
6.60027e-08
1.22856e-09
-2.71619e-09
6.67559e-08
1.22389e-09
-2.71777e-09
6.73538e-08
1.21866e-09
-2.69214e-09
6.78231e-08
1.21393e-09
-2.63893e-09
6.8184e-08
1.20918e-09
-2.55959e-09
6.84495e-08
1.20533e-09
-2.45622e-09
6.86292e-08
1.20175e-09
-2.32833e-09
6.87269e-08
1.19927e-09
-2.18119e-09
6.87446e-08
1.19715e-09
-2.01226e-09
6.86791e-08
1.19614e-09
-1.82856e-09
6.8525e-08
1.19542e-09
-1.62809e-09
6.82716e-08
1.19562e-09
-1.41325e-09
6.79045e-08
1.19584e-09
-1.18938e-09
6.74019e-08
1.19662e-09
-9.6027e-10
6.67355e-08
1.19692e-09
-7.25181e-10
6.58657e-08
1.19713e-09
-4.9385e-10
6.47402e-08
1.19602e-09
-2.70177e-10
6.32883e-08
1.19365e-09
-6.16078e-11
6.14158e-08
1.18834e-09
1.20137e-10
5.89962e-08
1.17949e-09
2.65204e-10
5.58608e-08
1.16442e-09
3.58421e-10
5.17825e-08
1.14074e-09
3.77386e-10
4.6459e-08
1.1019e-09
2.99246e-10
3.94839e-08
1.04529e-09
2.44098e-08
9.12435e-10
-2.04859e-10
2.37809e-08
4.1305e-10
-4.2336e-10
3.84812e-08
4.8502e-10
-6.46571e-10
4.53132e-08
5.17288e-10
-8.62323e-10
5.05403e-08
5.35976e-10
-1.06757e-09
5.45589e-08
5.4439e-10
-1.25354e-09
5.76652e-08
5.46674e-10
-1.4219e-09
6.00796e-08
5.4562e-10
-1.56828e-09
6.19675e-08
5.41959e-10
-1.69005e-09
6.34511e-08
5.37135e-10
-1.78771e-09
6.46228e-08
5.31266e-10
-1.86115e-09
6.55501e-08
5.25428e-10
-1.90849e-09
6.62844e-08
5.19442e-10
-1.93182e-09
6.68625e-08
5.14193e-10
-1.93024e-09
6.73126e-08
5.09362e-10
-1.90647e-09
6.76538e-08
5.0572e-10
-1.85866e-09
6.79007e-08
5.02837e-10
-1.79321e-09
6.80614e-08
5.01397e-10
-1.7074e-09
6.81415e-08
5.00872e-10
-1.60712e-09
6.81417e-08
5.01861e-10
-1.49264e-09
6.80603e-08
5.03747e-10
-1.36651e-09
6.78909e-08
5.0704e-10
-1.22845e-09
6.76241e-08
5.11038e-10
-1.0838e-09
6.72445e-08
5.16159e-10
-9.3691e-10
6.67318e-08
5.21619e-10
-7.85041e-10
6.60569e-08
5.27751e-10
-6.35524e-10
6.51816e-08
5.33676e-10
-4.86237e-10
6.40534e-08
5.39598e-10
-3.48509e-10
6.2603e-08
5.44482e-10
-2.15819e-10
6.07367e-08
5.48302e-10
-9.9523e-11
5.83303e-08
5.49686e-10
-3.54554e-12
5.52159e-08
5.48097e-10
6.74313e-11
5.11704e-08
5.41348e-10
1.05317e-10
4.58939e-08
5.27307e-10
9.86535e-11
3.89856e-08
5.04895e-10
2.40632e-08
4.45649e-10
6.58283e-11
2.38479e-08
-1.3223e-10
2.01865e-11
3.86766e-08
-1.507e-10
-7.2205e-11
4.55663e-08
-1.59269e-10
-1.99206e-10
5.08337e-08
-1.67821e-10
-3.40877e-10
5.48794e-08
-1.78234e-10
-4.89401e-10
5.80022e-08
-1.89109e-10
-6.33711e-10
6.04255e-08
-2.00477e-10
-7.71678e-10
6.23156e-08
-2.11714e-10
-8.92858e-10
6.37971e-08
-2.22972e-10
-1.00048e-09
6.49624e-08
-2.33574e-10
-1.08669e-09
6.58811e-08
-2.43667e-10
-1.15513e-09
6.66041e-08
-2.5259e-10
-1.20121e-09
6.71701e-08
-2.60543e-10
-1.2296e-09
6.76066e-08
-2.66921e-10
-1.23663e-09
6.79343e-08
-2.71984e-10
-1.22651e-09
6.81668e-08
-2.75186e-10
-1.20377e-09
6.83138e-08
-2.76867e-10
-1.1665e-09
6.83801e-08
-2.76549e-10
-1.11773e-09
6.83675e-08
-2.74655e-10
-1.05847e-09
6.82734e-08
-2.70792e-10
-9.95541e-10
6.80925e-08
-2.65476e-10
-9.2638e-10
6.78144e-08
-2.58379e-10
-8.56845e-10
6.74246e-08
-2.50096e-10
-7.86486e-10
6.69018e-08
-2.4036e-10
-7.1678e-10
6.62177e-08
-2.29809e-10
-6.5172e-10
6.53331e-08
-2.18226e-10
-5.8661e-10
6.41959e-08
-2.06255e-10
-5.25219e-10
6.27357e-08
-1.93679e-10
-4.6601e-10
6.08591e-08
-1.81122e-10
-4.08241e-10
5.84404e-08
-1.68315e-10
-3.4814e-10
5.53119e-08
-1.55822e-10
-2.83811e-10
5.12485e-08
-1.43135e-10
-2.08418e-10
4.59494e-08
-1.30091e-10
-1.21318e-10
3.90114e-08
-1.13006e-10
2.40268e-08
-8.5241e-11
2.67813e-10
2.41492e-08
-5.67593e-10
3.52755e-10
3.92508e-08
-6.61333e-10
3.59111e-10
4.62646e-08
-7.03613e-10
3.04654e-10
5.16225e-08
-7.35366e-10
2.13267e-10
5.57325e-08
-7.61273e-10
9.75585e-11
5.89009e-08
-7.83665e-10
-2.67513e-11
6.13545e-08
-8.03393e-10
-1.54208e-10
6.32641e-08
-8.21373e-10
-2.7612e-10
6.47563e-08
-8.37638e-10
-3.88229e-10
6.59263e-08
-8.52591e-10
-4.85802e-10
6.68446e-08
-8.65916e-10
-5.66632e-10
6.75643e-08
-8.7782e-10
-6.32965e-10
6.8124e-08
-8.87873e-10
-6.8379e-10
6.8553e-08
-8.96231e-10
-7.18652e-10
6.88717e-08
-9.02456e-10
-7.4065e-10
6.90951e-08
-9.06736e-10
-7.50207e-10
6.92323e-08
-9.08687e-10
-7.51146e-10
6.92893e-08
-9.08562e-10
-7.44682e-10
6.92671e-08
-9.06051e-10
-7.34155e-10
6.91642e-08
-9.0149e-10
-7.21511e-10
6.89742e-08
-8.94647e-10
-7.08525e-10
6.86874e-08
-8.85935e-10
-6.96984e-10
6.82886e-08
-8.75185e-10
-6.90311e-10
6.77566e-08
-8.62855e-10
-6.83756e-10
6.70619e-08
-8.48798e-10
-6.83645e-10
6.61652e-08
-8.33457e-10
-6.8395e-10
6.50129e-08
-8.16624e-10
-6.84883e-10
6.35342e-08
-7.98601e-10
-6.78963e-10
6.1633e-08
-7.78951e-10
-6.63781e-10
5.91823e-08
-7.57615e-10
-6.29141e-10
5.60105e-08
-7.33637e-10
-5.64684e-10
5.18897e-08
-7.05846e-10
-4.56218e-10
4.65127e-08
-6.7073e-10
-2.92692e-10
3.947e-08
-6.22241e-10
2.42565e-08
-5.22209e-10
3.57115e-10
2.45978e-08
-8.04918e-10
5.07872e-10
4.00372e-08
-9.39034e-10
5.68462e-10
4.72058e-08
-1.00017e-09
5.56685e-10
5.26775e-08
-1.04474e-09
4.99737e-10
5.68705e-08
-1.07959e-09
4.09741e-10
6.00983e-08
-1.10831e-09
3.02202e-10
6.2594e-08
-1.13311e-09
1.91055e-10
6.45322e-08
-1.15485e-09
7.78509e-11
6.60432e-08
-1.17439e-09
-2.82756e-11
6.72242e-08
-1.19184e-09
-1.24273e-10
6.81482e-08
-1.2075e-09
-2.0702e-10
6.88691e-08
-1.22115e-09
-2.78868e-10
6.94276e-08
-1.23292e-09
-3.35686e-10
6.98529e-08
-1.24246e-09
-3.79901e-10
7.0167e-08
-1.24988e-09
-4.16475e-10
7.03846e-08
-1.25484e-09
-4.39961e-10
7.0516e-08
-1.25748e-09
-4.60794e-10
7.05665e-08
-1.25755e-09
-4.76178e-10
7.05382e-08
-1.25523e-09
-4.90692e-10
7.04288e-08
-1.25035e-09
-5.06044e-10
7.02325e-08
-1.24319e-09
-5.23882e-10
6.99389e-08
-1.23363e-09
-5.46391e-10
6.95328e-08
-1.22202e-09
-5.72593e-10
6.89921e-08
-1.20827e-09
-6.05575e-10
6.8287e-08
-1.19274e-09
-6.42371e-10
6.73768e-08
-1.17531e-09
-6.78788e-10
6.62072e-08
-1.15621e-09
-7.16767e-10
6.47049e-08
-1.13511e-09
-7.42668e-10
6.27723e-08
-1.11189e-09
-7.53963e-10
6.02787e-08
-1.08571e-09
-7.35997e-10
5.70492e-08
-1.05566e-09
-6.77736e-10
5.28502e-08
-1.01934e-09
-5.59674e-10
4.73676e-08
-9.72342e-10
-3.65991e-10
4.01828e-08
-9.06871e-10
2.46591e-08
-7.68592e-10
3.27685e-10
2.50891e-08
-8.20934e-10
4.76885e-10
4.08443e-08
-9.53461e-10
5.38292e-10
4.81578e-08
-1.01466e-09
5.39459e-10
5.37372e-08
-1.05988e-09
4.95213e-10
5.80088e-08
-1.09492e-09
4.24104e-10
6.12939e-08
-1.12391e-09
3.36059e-10
6.38301e-08
-1.14877e-09
2.44207e-10
6.57966e-08
-1.17073e-09
1.49504e-10
6.73263e-08
-1.19035e-09
6.38054e-11
6.85193e-08
-1.20804e-09
-1.54132e-11
6.94499e-08
-1.22381e-09
-8.06831e-11
7.0174e-08
-1.23776e-09
-1.37098e-10
7.07326e-08
-1.24968e-09
-1.80038e-10
7.11566e-08
-1.25958e-09
-2.15427e-10
7.14678e-08
-1.26719e-09
-2.39673e-10
7.16822e-08
-1.27253e-09
-2.57981e-10
7.18097e-08
-1.2754e-09
-2.72798e-10
7.18565e-08
-1.27585e-09
-2.84433e-10
7.18241e-08
-1.27375e-09
-2.96284e-10
7.17108e-08
-1.26926e-09
-3.12224e-10
7.15102e-08
-1.26231e-09
-3.319e-10
7.12122e-08
-1.25313e-09
-3.57457e-10
7.08006e-08
-1.24171e-09
-3.9214e-10
7.02533e-08
-1.22833e-09
-4.30426e-10
6.95396e-08
-1.21297e-09
-4.75166e-10
6.86179e-08
-1.19587e-09
-5.22859e-10
6.74323e-08
-1.17692e-09
-5.714e-10
6.59083e-08
-1.15613e-09
-6.1102e-10
6.39456e-08
-1.13304e-09
-6.35948e-10
6.14112e-08
-1.10712e-09
-6.35721e-10
5.81258e-08
-1.07713e-09
-5.9576e-10
5.38513e-08
-1.04098e-09
-5.00711e-10
4.82663e-08
-9.94036e-10
-3.33244e-10
4.09442e-08
-9.29819e-10
2.51213e-08
-7.94435e-10
2.20617e-10
2.55167e-08
-6.48911e-10
3.11322e-10
4.14984e-08
-7.43146e-10
3.40276e-10
4.89165e-08
-7.88466e-10
3.2666e-10
5.45736e-08
-8.23502e-10
2.86382e-10
5.89022e-08
-8.51417e-10
2.24763e-10
6.22283e-08
-8.74997e-10
1.58446e-10
6.47937e-08
-8.95761e-10
8.84654e-11
6.67802e-08
-9.14417e-10
2.29093e-11
6.83231e-08
-9.31449e-10
-3.45388e-11
6.95242e-08
-9.46964e-10
-8.43837e-11
7.04592e-08
-9.6105e-10
-1.2035e-10
7.11849e-08
-9.73555e-10
-1.46812e-10
7.17434e-08
-9.84428e-10
-1.62883e-10
7.21659e-08
-9.93447e-10
-1.69572e-10
7.24751e-08
-1.00055e-09
-1.68643e-10
7.26868e-08
-1.00552e-09
-1.61916e-10
7.28118e-08
-1.00836e-09
-1.53552e-10
7.28558e-08
-1.00892e-09
-1.42785e-10
7.28211e-08
-1.00726e-09
-1.35116e-10
7.27054e-08
-1.00335e-09
-1.2897e-10
7.25027e-08
-9.97296e-10
-1.32084e-10
7.22022e-08
-9.89153e-10
-1.38831e-10
7.17879e-08
-9.79105e-10
-1.55641e-10
7.12369e-08
-9.67244e-10
-1.79229e-10
7.0518e-08
-9.53781e-10
-2.13831e-10
6.95889e-08
-9.38785e-10
-2.51544e-10
6.83929e-08
-9.22394e-10
-2.93627e-10
6.68539e-08
-9.04527e-10
-3.31685e-10
6.48703e-08
-8.85066e-10
-3.6409e-10
6.23066e-08
-8.63529e-10
-3.80226e-10
5.89809e-08
-8.3921e-10
-3.69173e-10
5.46515e-08
-8.10487e-10
-3.2368e-10
4.89921e-08
-7.74207e-10
-2.19699e-10
4.15702e-08
-7.26755e-10
2.55309e-08
-6.30508e-10
6.4878e-11
2.58051e-08
-3.55993e-10
7.03672e-11
4.18841e-08
-3.8811e-10
4.64244e-11
4.93478e-08
-4.06984e-10
4.57135e-12
5.50388e-08
-4.24876e-10
-4.41117e-11
5.93918e-08
-4.4065e-10
-9.5924e-11
6.2735e-08
-4.55177e-10
-1.45682e-10
6.53118e-08
-4.68881e-10
-1.89244e-10
6.73053e-08
-4.81959e-10
-2.22052e-10
6.8852e-08
-4.94427e-10
-2.46136e-10
7.00543e-08
-5.06222e-10
-2.58034e-10
7.09888e-08
-5.1719e-10
-2.58862e-10
7.17128e-08
-5.27169e-10
-2.48603e-10
7.22689e-08
-5.35956e-10
-2.28503e-10
7.26886e-08
-5.43384e-10
-1.98218e-10
7.2995e-08
-5.49266e-10
-1.62291e-10
7.32041e-08
-5.53491e-10
-1.22655e-10
7.33268e-08
-5.55927e-10
-7.69499e-11
7.33691e-08
-5.56534e-10
-3.48994e-11
7.3333e-08
-5.55274e-10
6.0693e-12
7.32165e-08
-5.52187e-10
4.38736e-11
7.30134e-08
-5.47322e-10
7.39575e-11
7.27128e-08
-5.40805e-10
9.67336e-11
7.22985e-08
-5.32755e-10
1.09077e-10
7.17474e-08
-5.23362e-10
1.10321e-10
7.1028e-08
-5.12791e-10
1.0446e-10
7.00976e-08
-5.01243e-10
8.65229e-11
6.88988e-08
-4.88887e-10
6.26263e-11
6.73552e-08
-4.75868e-10
3.01634e-11
6.53639e-08
-4.62251e-10
-4.11515e-12
6.27889e-08
-4.48007e-10
-3.60005e-11
5.94467e-08
-4.32945e-10
-6.33043e-11
5.50941e-08
-4.16574e-10
-7.62428e-11
4.94028e-08
-3.97753e-10
-6.56742e-11
4.19384e-08
-3.77309e-10
2.5808e-08
-3.43708e-10
-8.95236e-11
2.5911e-08
-1.797e-11
-1.75688e-10
4.19517e-08
1.98087e-11
-2.57302e-10
4.93988e-08
3.10029e-11
-3.28203e-10
5.5077e-08
3.30662e-11
-3.87519e-10
5.94195e-08
3.14738e-11
-4.34007e-10
6.27537e-08
2.76612e-11
-4.66163e-10
6.53224e-08
2.23878e-11
-4.85375e-10
6.73084e-08
1.5974e-11
-4.90555e-10
6.8848e-08
8.94749e-12
-4.81885e-10
7.00437e-08
1.67802e-12
-4.58634e-10
7.09719e-08
-5.51717e-12
-4.22281e-10
7.16901e-08
-1.23958e-11
-3.78313e-10
7.22408e-08
-1.87251e-11
-3.1913e-10
7.26559e-08
-2.41548e-11
-2.54868e-10
7.29582e-08
-2.85394e-11
-1.81632e-10
7.31641e-08
-3.17298e-11
-1.068e-10
7.32844e-08
-3.36166e-11
-2.92259e-11
7.33252e-08
-3.41398e-11
4.80969e-11
7.32886e-08
-3.32686e-11
1.24063e-10
7.31724e-08
-3.10349e-11
1.94132e-10
7.29706e-08
-2.74973e-11
2.58024e-10
7.26722e-08
-2.27677e-11
3.12519e-10
7.22608e-08
-1.69777e-11
3.57452e-10
7.17134e-08
-1.02908e-11
3.88649e-10
7.09984e-08
-3.12056e-12
4.09124e-10
7.00731e-08
4.41777e-12
4.17758e-10
6.888e-08
1.20317e-11
4.1037e-10
6.73427e-08
1.94044e-11
3.89615e-10
6.53585e-08
2.60938e-11
3.54982e-10
6.27915e-08
3.17661e-11
3.06978e-10
5.94587e-08
3.59757e-11
2.44983e-10
5.51173e-08
3.80276e-11
1.71142e-10
4.94402e-08
3.66766e-11
8.77058e-11
4.19944e-08
2.66747e-11
2.59067e-08
-9.99894e-12
-2.18666e-10
2.58332e-08
2.96257e-10
-3.83464e-10
4.17153e-08
4.01804e-10
-5.16643e-10
4.90903e-08
4.4178e-10
-6.1668e-10
5.4714e-08
4.62459e-10
-6.86228e-10
5.90148e-08
4.74086e-10
-7.28028e-10
6.23164e-08
4.8026e-10
-7.48907e-10
6.48593e-08
4.82762e-10
-7.47144e-10
6.68245e-08
4.82733e-10
-7.28213e-10
6.83471e-08
4.80964e-10
-6.90496e-10
6.95287e-08
4.781e-10
-6.39486e-10
7.04451e-08
4.74605e-10
-5.72335e-10
7.11534e-08
4.70878e-10
-4.96974e-10
7.16959e-08
4.67218e-10
-4.06776e-10
7.21042e-08
4.639e-10
-3.12959e-10
7.24012e-08
4.6111e-10
-2.09738e-10
7.26031e-08
4.5903e-10
-1.05339e-10
7.27207e-08
4.5776e-10
3.4091e-12
7.27602e-08
4.57385e-10
1.09591e-10
7.27235e-08
4.57915e-10
2.15197e-10
7.26087e-08
4.59335e-10
3.15346e-10
7.24094e-08
4.6157e-10
4.06062e-10
7.2115e-08
4.64513e-10