/*--------------------------------*- C++ -*----------------------------------*\
| =========                 |                                                 |
| \\      /  F ield         | OpenFOAM: The Open Source CFD Toolbox           |
|  \\    /   O peration     | Version:  v1906                                 |
|   \\  /    A nd           | Web:      www.OpenFOAM.com                      |
|    \\/     M anipulation  |                                                 |
\*---------------------------------------------------------------------------*/
FoamFile
{
    version     2.0;
    format      ascii;
    class       volScalarField;
    location    "65";
    object      k;
}
// * * * * * * * * * * * * * * * * * * * * * * * * * * * * * * * * * * * * * //

dimensions      [0 2 -2 0 0 0 0];


internalField   nonuniform List<scalar> 
78750
(
0.71912
0.186684
0.0690193
0.000596324
0.00284896
0.00146732
0.00210769
0.00193891
0.00178506
0.00200241
0.00184962
0.00193115
0.00192274
0.00194328
0.00196563
0.00199127
0.00202207
0.00205745
0.00209778
0.00214297
0.00219235
0.00224394
0.00229423
0.00233883
0.00237341
0.00239444
0.00239992
0.00238951
0.00236319
0.0023195
0.00225337
0.00215368
0.00199962
0.00165842
0.000364773
0.023227
0.00496323
0.00142556
0.00414951
0.00351575
0.0034397
0.0033394
0.00324558
0.00320103
0.00314079
0.00310801
0.00307699
0.00305477
0.0030382
0.00302667
0.00301949
0.00301597
0.00301545
0.0030171
0.0030197
0.00302206
0.00302326
0.00302281
0.00302076
0.00301757
0.00301383
0.0030099
0.00300534
0.00299866
0.00298741
0.00296888
0.00294011
0.00290045
0.00276243
0.00120853
0.00129132
0.00315771
0.00311725
0.00283732
0.00290577
0.00293439
0.00294838
0.00295289
0.00294687
0.0029341
0.00291689
0.0028978
0.00287821
0.00285894
0.00284037
0.00282259
0.00280553
0.00278904
0.00277256
0.00275661
0.00274306
0.00273349
0.00272819
0.00272673
0.00272871
0.0027338
0.00274112
0.00274826
0.00275006
0.00273698
0.00269171
0.00258074
0.00237942
0.0022207
0.00194833
0.000307429
0.0016538
0.00222655
0.00254871
0.00274739
0.00289968
0.00302638
0.00312469
0.00319568
0.00324315
0.00327209
0.00328741
0.0032934
0.00329357
0.00329078
0.00328728
0.00328486
0.00328485
0.00328813
0.0032945
0.00330288
0.0033116
0.00331901
0.00332383
0.00332523
0.00332304
0.00331752
0.0033084
0.00329296
0.00326255
0.00319424
0.00302947
0.00266578
0.00222582
0.00234331
0.000391409
0.00172133
0.00223031
0.00252687
0.00274193
0.00291397
0.00304606
0.00314309
0.00321153
0.0032582
0.00328946
0.00331069
0.00332604
0.00333829
0.00334881
0.00335779
0.00336448
0.00336759
0.00336586
0.00335862
0.00334608
0.00332928
0.00330966
0.00328822
0.00326495
0.00323845
0.0032064
0.00316596
0.00311366
0.00304394
0.00294462
0.00278631
0.00251365
0.00216759
0.00252986
0.000480383
0.00157896
0.00205938
0.00242153
0.00271465
0.00294856
0.00313242
0.00327469
0.00338323
0.00346526
0.00352731
0.00357514
0.00361363
0.00364664
0.00367693
0.00370606
0.00373439
0.00376111
0.00378445
0.00380195
0.00381099
0.00380937
0.0037959
0.00377019
0.00373268
0.00368525
0.00362979
0.00356645
0.0034919
0.00339657
0.00325712
0.00302251
0.00264105
0.00234777
0.00302617
0.000639328
0.00166896
0.002148
0.00253985
0.00286595
0.00313631
0.00335823
0.00353784
0.00368093
0.00379315
0.00387976
0.00394545
0.00399417
0.00402909
0.00405258
0.00406632
0.00407145
0.00406868
0.00405845
0.00404099
0.00401639
0.00398455
0.00394524
0.00389819
0.00384328
0.00378099
0.00371086
0.00362993
0.00353439
0.00341836
0.00326492
0.00303488
0.00268606
0.00246925
0.00332799
0.000679014
0.00181413
0.00230249
0.00267572
0.00299493
0.00326814
0.00349926
0.00369184
0.00384945
0.00397623
0.00407639
0.00415404
0.00421285
0.00425577
0.00428501
0.00430211
0.00430807
0.00430355
0.00428903
0.00426496
0.00423178
0.00418993
0.00413983
0.00408185
0.00401634
0.00394384
0.0038655
0.00378369
0.00369448
0.00358576
0.00343834
0.00321316
0.00287401
0.00264953
0.00344826
0.000606008
0.00191401
0.0024321
0.0027827
0.00309899
0.0033948
0.00365255
0.00386425
0.00404653
0.00420838
0.00434384
0.00444853
0.0045216
0.00456421
0.00457957
0.00457223
0.00454741
0.00451008
0.00446418
0.00441239
0.00435607
0.00429547
0.00423019
0.00415971
0.0040838
0.00400285
0.00391801
0.00383149
0.00374455
0.00364252
0.00349033
0.00324498
0.00290561
0.00278817
0.00367464
0.000610575
0.00153584
0.00193965
0.00224656
0.00262764
0.00300969
0.00327835
0.00348497
0.00367112
0.00383615
0.00397433
0.00408639
0.00417855
0.00426048
0.00433898
0.00441393
0.0044782
0.00452003
0.00452944
0.00450414
0.00444853
0.00437054
0.00427903
0.00418175
0.0040843
0.00399037
0.0039024
0.00382237
0.00374496
0.00365711
0.00353731
0.00333869
0.00302372
0.00289023
0.00370314
0.00140899
0.00237441
0.00235622
0.00217809
0.00211556
0.00226945
0.0025265
0.00271053
0.00282007
0.00288228
0.00291976
0.00300593
0.00317907
0.00337196
0.00355056
0.00370127
0.0038142
0.00388456
0.00391225
0.00390159
0.00386023
0.00379761
0.00372407
0.00364721
0.00357166
0.00349967
0.00343181
0.00336765
0.0033063
0.00324882
0.00319738
0.00314159
0.00301002
0.00285801
0.00330634
0.0020505
0.00264187
0.00178556
0.000957711
0.00137954
0.00216089
0.00257198
0.00285211
0.00306257
0.00323024
0.00336572
0.00347331
0.00355501
0.00361346
0.0036513
0.00367021
0.00367169
0.00365776
0.00363099
0.00359423
0.00355093
0.00350258
0.00345
0.00339353
0.003333
0.00326741
0.00319475
0.00311139
0.0030102
0.00288258
0.0027337
0.00262009
0.00264662
0.00279985
0.0034601
0.00107869
0.00273862
0.00218732
0.00182363
0.00194706
0.00225957
0.00258008
0.00284016
0.00302013
0.00313341
0.00319666
0.00322581
0.00323842
0.00325272
0.00328054
0.0033207
0.00336495
0.00340636
0.00344376
0.00347454
0.00349759
0.00351256
0.00351855
0.00351417
0.00349782
0.00346858
0.00342624
0.00336975
0.00329423
0.00318706
0.00301733
0.00275491
0.00252122
0.00261775
0.00327408
0.000660955
0.00278706
0.00321957
0.00318197
0.00304996
0.00293413
0.00283649
0.00274651
0.00265
0.00252369
0.00234476
0.00211923
0.00191239
0.00181863
0.00187151
0.00202364
0.00221783
0.00241988
0.00260905
0.00277378
0.00290988
0.00301742
0.00309741
0.00315154
0.00318179
0.00319005
0.00317831
0.00314876
0.00310358
0.00304297
0.0029593
0.00282678
0.0026317
0.0025805
0.0030583
0.000495672
0.00210177
0.00266383
0.00290773
0.00298062
0.00295086
0.0028668
0.00275851
0.00264169
0.00252157
0.00239142
0.0022344
0.0020528
0.00192161
0.00192337
0.0020412
0.00221553
0.00241142
0.00261106
0.00279739
0.00296172
0.00309866
0.00320711
0.00328678
0.00333797
0.00335675
0.00333705
0.0032703
0.0031548
0.00300047
0.00283516
0.00268768
0.0025458
0.00238411
0.00256794
0.000510961
0.00159838
0.002085
0.00241085
0.00261256
0.00272164
0.00276012
0.00274155
0.00267503
0.00256886
0.0024318
0.00227431
0.00210947
0.00194362
0.00176945
0.00158856
0.00142975
0.00132989
0.00131942
0.00141765
0.00161963
0.00189691
0.00220492
0.00249959
0.00275277
0.00294895
0.00308346
0.00315899
0.00316403
0.00308044
0.00290119
0.00270487
0.00269554
0.00274231
0.0026986
0.000504461
0.00155785
0.00205224
0.00239172
0.00263218
0.00279934
0.00291397
0.00299031
0.00303756
0.00306225
0.00306889
0.00306045
0.00303842
0.00300368
0.00295841
0.00290566
0.00284707
0.00278159
0.0027052
0.00261475
0.00251033
0.00239568
0.0022794
0.00218381
0.00215453
0.00223383
0.00241784
0.00267599
0.00293046
0.00303426
0.002838
0.00236132
0.00208577
0.00237413
0.00335878
0.000801025
0.00260414
0.0034496
0.00392379
0.00421177
0.00439462
0.00451491
0.00459675
0.00465425
0.00469567
0.00472563
0.00474651
0.00475923
0.00476349
0.00475757
0.0047381
0.00470004
0.00463805
0.00454848
0.00442883
0.00427994
0.00410661
0.00391534
0.00370382
0.00344684
0.00309142
0.00247554
0.00171121
0.00160663
0.00218572
0.00273115
0.00291047
0.00282423
0.00248628
0.00213432
0.00242417
0.00387922
0.00439933
0.00456952
0.00461108
0.00460805
0.0045914
0.00457466
0.00456283
0.0045566
0.00455502
0.00455738
0.00456394
0.0045753
0.0045912
0.00461051
0.0046318
0.00465309
0.00467045
0.00467814
0.00466888
0.00463759
0.00458288
0.00450399
0.0043935
0.0042285
0.0039577
0.00356043
0.00317365
0.00296032
0.00287519
0.00279572
0.00264456
0.0023691
0.00190853
0.00432076
0.00454156
0.00445421
0.00437764
0.00433803
0.00433778
0.00435912
0.00438533
0.00441038
0.00443647
0.00446838
0.00450898
0.00455713
0.00460778
0.00465318
0.00468606
0.00469965
0.0046884
0.00464938
0.0045839
0.00449635
0.00439445
0.00429041
0.00419832
0.00412695
0.00406356
0.00399054
0.00386872
0.00368582
0.00346925
0.00323652
0.00297654
0.00268419
0.00236384
0.001873
0.00223545
0.00345841
0.00396385
0.00427643
0.00449646
0.00463831
0.00470422
0.00469634
0.0046194
0.00448584
0.00431926
0.0041529
0.00402127
0.00394631
0.00392628
0.00393859
0.00395474
0.00394933
0.00390018
0.0037913
0.0036197
0.00341908
0.00327239
0.00325617
0.00335417
0.00345406
0.00351902
0.00355978
0.00356298
0.0035187
0.0034338
0.00330993
0.00309348
0.00265018
0.00161811
0.00230999
0.00359448
0.00425906
0.00464639
0.00491798
0.00513705
0.00531918
0.00545589
0.00552672
0.00550885
0.0053885
0.00517537
0.00491026
0.00465364
0.00445946
0.00435118
0.00431578
0.0043175
0.00431616
0.00427358
0.00417383
0.0040285
0.00386715
0.00371527
0.00357207
0.00342207
0.00327356
0.00315467
0.00307991
0.00304231
0.00302557
0.00300853
0.00294077
0.00268215
0.00186467
0.00334551
0.00407633
0.00429459
0.004412
0.0045151
0.00461505
0.00470986
0.00479178
0.0048509
0.00487621
0.00485726
0.00478999
0.00468589
0.00457512
0.00449421
0.00446534
0.00448487
0.00453011
0.00457386
0.00459207
0.0045679
0.00449189
0.00436658
0.00420652
0.00402198
0.00381712
0.00359527
0.00336394
0.00313609
0.00292912
0.00276082
0.00264189
0.00256102
0.00245712
0.00221147
0.00251898
0.00362158
0.00419865
0.00450768
0.0047115
0.00487224
0.0050098
0.00513009
0.00523501
0.00531826
0.00535882
0.00532756
0.00520018
0.00496798
0.00465136
0.00431102
0.0040392
0.00390124
0.00388471
0.00393764
0.00401552
0.00408816
0.00413496
0.00414418
0.0041101
0.00403198
0.00391248
0.00376098
0.00358424
0.00338839
0.0031762
0.00293713
0.00264564
0.00236833
0.00235273
0.00371613
0.00439672
0.00461091
0.00471309
0.00479488
0.0048903
0.00499286
0.00508523
0.00517577
0.00528424
0.00540793
0.00551781
0.0055846
0.00558702
0.0054942
0.00525433
0.0048569
0.00441877
0.00408606
0.00390653
0.0038377
0.00382255
0.00382805
0.00383685
0.00383742
0.00382153
0.00378336
0.00371927
0.00362741
0.00350742
0.00335345
0.00313605
0.00281688
0.00260473
0.00300692
0.00493093
0.00471638
0.00460071
0.00455654
0.00458457
0.00470735
0.00484334
0.00491389
0.00492168
0.00489776
0.00487006
0.0048505
0.00483339
0.0048052
0.00474737
0.00462608
0.00439409
0.00408747
0.00385563
0.00374052
0.00368425
0.00364981
0.00362453
0.00360195
0.00357691
0.00354506
0.00350264
0.00344685
0.00337506
0.00328389
0.00317563
0.00307208
0.00299821
0.00308209
0.003811
0.004429
0.00426087
0.00424287
0.00427265
0.00440688
0.00472005
0.00506812
0.00530943
0.00544896
0.00551518
0.00552356
0.00548754
0.0054225
0.00533766
0.00522926
0.0050773
0.00484277
0.00449694
0.00411044
0.00381676
0.00364954
0.00355736
0.0034912
0.00343154
0.00337252
0.0033086
0.00323322
0.00314055
0.00302614
0.00289917
0.00281018
0.00283006
0.0029597
0.00318576
0.0038285
0.00441681
0.00429027
0.00419508
0.00407751
0.003972
0.00402365
0.00421342
0.00441422
0.00457534
0.00469502
0.0047764
0.00481918
0.00482126
0.00477946
0.00468861
0.00454204
0.00434309
0.00412219
0.00392421
0.00377195
0.00365892
0.00356678
0.00348067
0.00339177
0.00329477
0.0031857
0.00306236
0.00292599
0.00278367
0.0026518
0.00256304
0.0025639
0.00266065
0.00277315
0.00291351
0.0034114
0.0040326
0.00418945
0.00422964
0.00419177
0.00411433
0.00414866
0.0043019
0.00447066
0.00460228
0.00468386
0.00471115
0.0046842
0.00461012
0.00450236
0.00437841
0.00425156
0.00412735
0.00400985
0.00390249
0.00380542
0.00371564
0.00362928
0.00354241
0.00345188
0.00335506
0.00324981
0.00313627
0.00301884
0.00290248
0.00278383
0.00264627
0.00245253
0.00226042
0.00215549
0.00336904
0.004149
0.00428429
0.00427169
0.00415794
0.00388521
0.00355803
0.00346703
0.00362576
0.00385207
0.00404126
0.0041745
0.00425638
0.00429515
0.00429897
0.00427513
0.00423077
0.00417268
0.00410657
0.00403628
0.00396375
0.00388988
0.00381574
0.0037424
0.00367195
0.00360756
0.00355198
0.00350176
0.00343853
0.00333226
0.00314775
0.00281563
0.00235515
0.0021842
0.0028008
0.00346668
0.00412183
0.00430285
0.00437647
0.00440032
0.004333
0.00406079
0.00369913
0.00355633
0.00364391
0.00379903
0.00393656
0.00404258
0.00411803
0.00416344
0.00417966
0.00417029
0.00414096
0.00409667
0.00404029
0.00397259
0.00389307
0.00380072
0.00369531
0.00357795
0.00345158
0.0033223
0.00319752
0.00307629
0.0029518
0.00284105
0.00275534
0.00277842
0.00312761
0.00443657
0.00361136
0.00425681
0.00436363
0.00436027
0.00430246
0.00420945
0.00408656
0.00385559
0.00359627
0.00351493
0.00360697
0.00375004
0.00388091
0.00398637
0.00406864
0.00412764
0.00415957
0.00416309
0.00413808
0.0040846
0.00400237
0.00389102
0.00375138
0.00357309
0.00333346
0.003013
0.00259464
0.00210323
0.00176359
0.00209685
0.00275843
0.00319396
0.00346438
0.0038238
0.00477202
0.00411401
0.00447481
0.00444669
0.00435923
0.00422237
0.00406699
0.0039066
0.00376172
0.00363193
0.00355642
0.0035848
0.00368693
0.00379809
0.0038964
0.00398628
0.0040684
0.00413652
0.00418533
0.00420994
0.00420564
0.00416772
0.00409163
0.00397332
0.00380408
0.00356347
0.00321404
0.00269509
0.00198846
0.00131025
0.00128424
0.00201612
0.00269621
0.00309735
0.00338523
0.00367865
0.0045455
0.00462231
0.00445938
0.00426777
0.00405717
0.00395084
0.00383516
0.00365328
0.00351822
0.00348787
0.00353092
0.00361311
0.00370402
0.00379115
0.00387443
0.00395676
0.00403845
0.00411762
0.00419042
0.00424962
0.00428629
0.00429258
0.00426239
0.004188
0.00405488
0.00383688
0.00349101
0.00296158
0.0022588
0.00162761
0.00146661
0.00173668
0.00210009
0.00244239
0.00289197
0.00537359
0.00475074
0.00432465
0.00392061
0.00355743
0.00349956
0.00353168
0.00348493
0.00339719
0.00336046
0.00338086
0.00343058
0.00349199
0.00355891
0.00362959
0.0037039
0.00378198
0.00386224
0.00393991
0.00400806
0.00406178
0.00410109
0.00412863
0.00414401
0.00413712
0.00408629
0.00396088
0.00372173
0.00332821
0.0027916
0.00226217
0.00195664
0.00193337
0.00212301
0.00281131
0.00543203
0.00459076
0.00410524
0.0036121
0.00320263
0.00310196
0.00311429
0.00312316
0.00311883
0.00312001
0.00313436
0.00315999
0.00319509
0.003239
0.00329098
0.00334911
0.0034093
0.0034684
0.00353108
0.00361517
0.00373894
0.00389353
0.00404984
0.00418509
0.00428691
0.00434509
0.00434542
0.00426685
0.00408184
0.00376794
0.00333947
0.00286676
0.0024751
0.00243773
0.00324768
0.00469961
0.00435506
0.00410273
0.00373237
0.0032277
0.00284117
0.00267954
0.00265331
0.00267473
0.00270463
0.00273198
0.0027575
0.00278548
0.00282373
0.00288253
0.00297574
0.00311878
0.0033208
0.00356728
0.00381494
0.00402801
0.00420243
0.00434871
0.00447548
0.00458423
0.00466908
0.00471803
0.00471308
0.00463016
0.00444127
0.00411767
0.00364161
0.0031417
0.00310281
0.00412019
0.00418886
0.00467245
0.00470981
0.0045632
0.00416394
0.00347238
0.00282191
0.00244061
0.00230718
0.00229817
0.00232031
0.00234238
0.002363
0.00239411
0.0024693
0.00266278
0.00305415
0.00357805
0.00402547
0.00428798
0.00442527
0.00450695
0.00456731
0.00462365
0.00468665
0.00475992
0.00483404
0.00488494
0.00487912
0.00477729
0.00453779
0.00415122
0.00380882
0.00393025
0.00505834
0.00398212
0.0047333
0.00491828
0.00493667
0.00484599
0.00450209
0.00376591
0.0029243
0.00232981
0.00208824
0.00205077
0.0020598
0.00206419
0.00206571
0.0020937
0.00222689
0.00260409
0.00327284
0.00400199
0.0044974
0.004715
0.00476719
0.00474788
0.00470033
0.00464769
0.00461389
0.0046236
0.00467953
0.0047427
0.00474902
0.00464219
0.00443091
0.0042854
0.00446449
0.00543191
0.00413893
0.00475739
0.00490774
0.00493868
0.00492604
0.00487994
0.00466131
0.0039996
0.00304006
0.002275
0.00197254
0.00193612
0.0019511
0.00195308
0.00194403
0.00195825
0.0020817
0.00244885
0.00308611
0.00379823
0.00436995
0.00471447
0.00484867
0.00483423
0.00473526
0.00459929
0.00446864
0.0043892
0.0043819
0.00440651
0.00438922
0.00431014
0.00426477
0.00440139
0.00505938
0.00482633
0.00503777
0.00497097
0.00485758
0.00470162
0.00454496
0.00452206
0.00445043
0.00389697
0.00290471
0.00217229
0.00194581
0.00194627
0.00197324
0.00197872
0.00196752
0.00196635
0.00203534
0.00226498
0.00269405
0.00325104
0.00381708
0.0042916
0.00460758
0.00474162
0.00471533
0.00458212
0.00440423
0.00423933
0.00411562
0.00401013
0.00389535
0.00382571
0.00391851
0.00446702
0.00592507
0.00537967
0.00507732
0.00483878
0.00455079
0.00421595
0.00401718
0.00399086
0.00382123
0.00319972
0.0024324
0.00209452
0.00206881
0.00210266
0.00212046
0.00211695
0.00209698
0.00207389
0.00207862
0.00216239
0.00237092
0.00271191
0.00315091
0.00362504
0.00405798
0.00437706
0.00453261
0.00452102
0.00438392
0.00417987
0.00394886
0.00371
0.0035277
0.00355408
0.004137
0.00633468
0.00514319
0.0047476
0.00446245
0.00411896
0.00379974
0.00361174
0.00350603
0.00333235
0.00297546
0.00252911
0.00232877
0.00233033
0.00235246
0.00236054
0.00235377
0.00233175
0.00229394
0.00224356
0.00219358
0.00217087
0.00221068
0.00234509
0.00259027
0.00293724
0.00334822
0.0037592
0.00409038
0.00426968
0.00426847
0.00412228
0.00389932
0.00368322
0.00362784
0.0041364
0.00564194
0.00481229
0.00459077
0.00435551
0.00398665
0.00358056
0.00330337
0.00315689
0.00303223
0.00286483
0.00269229
0.00261018
0.002607
0.00261471
0.00261755
0.00261138
0.00259334
0.00256107
0.00251276
0.00244844
0.00237214
0.00229483
0.00223557
0.00222082
0.00228042
0.00243965
0.00270863
0.00307095
0.00347201
0.00381308
0.0039907
0.00399805
0.00392776
0.00390943
0.00434427
0.00474018
0.00484917
0.0048912
0.00480597
0.00454384
0.0040403
0.00344151
0.00303705
0.00287592
0.00282343
0.00279018
0.00277095
0.00277588
0.00278933
0.0028008
0.00280579
0.00280177
0.00278682
0.00275924
0.00271751
0.00266059
0.00258802
0.00250216
0.00240964
0.00232337
0.00226447
0.00226285
0.00235438
0.00257204
0.00292452
0.0033453
0.00367753
0.00387466
0.0040649
0.00468252
0.00432243
0.0049544
0.00515732
0.00522713
0.00519946
0.00497413
0.00440378
0.00363283
0.00302177
0.00272511
0.00266526
0.00270513
0.0027643
0.00281727
0.00285844
0.00288772
0.00290561
0.00291235
0.00290799
0.00289242
0.00286541
0.00282588
0.00277236
0.00270382
0.00262048
0.00252515
0.00242605
0.00234145
0.00230644
0.0023826
0.00265778
0.00312944
0.00360147
0.00409173
0.00513617
0.00418884
0.00485462
0.00509714
0.00522695
0.00532645
0.00538914
0.00531541
0.00489681
0.00412592
0.00331408
0.00275614
0.00254196
0.00256385
0.00266627
0.00276388
0.00283765
0.00288984
0.00292468
0.00294527
0.00295371
0.00295162
0.00293963
0.00291738
0.00288386
0.00283749
0.00277605
0.0026969
0.00259873
0.00248671
0.00238667
0.00240314
0.00276325
0.00340702
0.00416881
0.00564728
0.00442702
0.00501252
0.00519311
0.00526716
0.0053134
0.00536886
0.00545833
0.00551316
0.00533094
0.00474625
0.00387142
0.00304763
0.00257163
0.00247332
0.00256257
0.00267961
0.00277419
0.00284349
0.0028924
0.00292496
0.00294433
0.00295274
0.00295177
0.00294226
0.00292392
0.00289477
0.00285066
0.00278502
0.00268904
0.00255817
0.00246482
0.00272695
0.00342417
0.00432928
0.00606563
0.00508372
0.00534408
0.00540045
0.00541268
0.00540835
0.00539935
0.00541262
0.00548825
0.00556911
0.00551217
0.00514894
0.00436737
0.00339768
0.0027108
0.00249138
0.00253806
0.00264245
0.00273314
0.00280244
0.00285385
0.00289018
0.00291343
0.00292579
0.00292965
0.00292682
0.00291705
0.00289755
0.00286094
0.00279501
0.0026926
0.00263097
0.00291297
0.00357964
0.00447135
0.0062242
0.00600589
0.00554209
0.0053872
0.00532867
0.00532895
0.00539133
0.00545977
0.00550671
0.00554638
0.00554942
0.00546022
0.00516325
0.00444932
0.00345351
0.00276573
0.00256372
0.00259819
0.00267717
0.00274644
0.00280126
0.00284323
0.00287259
0.00288998
0.0028975
0.00290018
0.00290024
0.00289683
0.00288295
0.00284779
0.00279769
0.00283111
0.00316632
0.00373873
0.00450516
0.00609228
0.00622752
0.00529762
0.00504735
0.00495272
0.0049653
0.00511982
0.00532631
0.00547402
0.00553741
0.0055279
0.00544585
0.00526153
0.00486606
0.00408352
0.00320301
0.00275309
0.00267391
0.00271306
0.00276514
0.00280973
0.00284485
0.00286917
0.00288222
0.00288511
0.00288213
0.00287998
0.00288276
0.00288688
0.00288618
0.00290018
0.00302142
0.00336362
0.00381719
0.00442981
0.00577327
0.0055411
0.00492846
0.00481439
0.00475834
0.00471199
0.00473425
0.00488034
0.00508609
0.00524912
0.0053226
0.0052933
0.00514457
0.00482886
0.00426031
0.00350486
0.00298897
0.00283143
0.00282545
0.00285094
0.00287767
0.00289959
0.0029132
0.002916
0.00290755
0.00289207
0.0028787
0.00287734
0.00289185
0.00292256
0.00299054
0.00315896
0.00345905
0.00380358
0.00428523
0.00540561
0.00487812
0.00491077
0.00493661
0.00487795
0.00470255
0.00441585
0.00422075
0.00430123
0.00453026
0.00472587
0.00480774
0.0047414
0.00449267
0.00405101
0.00352194
0.00316056
0.0030305
0.00300171
0.00299957
0.00300263
0.0030044
0.0030006
0.00298788
0.00296481
0.00293402
0.00290414
0.00288872
0.00290046
0.00294779
0.00304563
0.00322202
0.00346657
0.00372928
0.00411807
0.00507616
0.00480045
0.00510766
0.00516659
0.00510943
0.0049264
0.00452011
0.00395154
0.00363216
0.00370118
0.00391429
0.00406506
0.00407156
0.0039234
0.00367677
0.0034431
0.00329605
0.00322484
0.00319062
0.00317068
0.00315532
0.00313971
0.00311995
0.00309295
0.00305684
0.00301259
0.00296628
0.00293064
0.00292313
0.00296048
0.00305612
0.00321607
0.00341533
0.00362898
0.00396381
0.00482583
0.0047577
0.00505371
0.00513442
0.00513309
0.00505645
0.00481776
0.0043079
0.00367039
0.00327915
0.00322219
0.00333053
0.00344603
0.00349595
0.00348058
0.00343139
0.00338173
0.00334487
0.00331894
0.00329878
0.00328031
0.00326062
0.00323665
0.00320557
0.00316518
0.00311493
0.00305802
0.00300423
0.00297105
0.00298012
0.00304861
0.00317778
0.00334297
0.00353017
0.00383894
0.00466607
0.00474333
0.00513902
0.0051868
0.00516605
0.00512966
0.00510739
0.00503826
0.00471519
0.00411253
0.00349875
0.00310779
0.00298546
0.00304291
0.00315313
0.00323881
0.00328676
0.00330932
0.00331896
0.00332198
0.00332053
0.00331513
0.00330482
0.00328749
0.00326074
0.00322223
0.00317106
0.00311097
0.00305459
0.00302534
0.00304985
0.00313978
0.00327844
0.00345197
0.00375372
0.00462186
0.00521901
0.0055027
0.00543541
0.00530732
0.00512447
0.00494327
0.00495266
0.00512636
0.00517436
0.00490999
0.00431463
0.00356592
0.00296499
0.00273402
0.00279025
0.00292962
0.00305259
0.00314142
0.00320229
0.00324481
0.00327516
0.0032961
0.00330771
0.00330847
0.00329672
0.00327079
0.00322942
0.00317608
0.00312549
0.00310659
0.0031492
0.00325731
0.00341807
0.00372295
0.00470178
0.00607929
0.005803
0.00561793
0.00545319
0.0052235
0.00488674
0.00456308
0.00448329
0.00461527
0.00475136
0.00476248
0.00451599
0.0038515
0.00308733
0.00269666
0.0026675
0.00277423
0.00289358
0.0029951
0.00307733
0.00314439
0.00320088
0.00324943
0.00328916
0.00331611
0.0033272
0.00331968
0.00329284
0.0032523
0.00321815
0.00322569
0.00330099
0.00344428
0.00375394
0.00487123
0.00619341
0.00571886
0.00557631
0.00544868
0.00524724
0.00496039
0.00463149
0.00433143
0.00414249
0.00405925
0.004018
0.00394842
0.00371679
0.00320861
0.00276825
0.00264223
0.00269669
0.00279117
0.0028798
0.00295782
0.00302801
0.00309419
0.00316028
0.0032271
0.00328978
0.00334035
0.00337198
0.00338105
0.00336887
0.00334755
0.00334686
0.00340152
0.00352897
0.00384385
0.00506307
0.00579841
0.00585712
0.00589805
0.00583237
0.00562851
0.00525305
0.0047776
0.00434767
0.00403426
0.00380804
0.00360719
0.00338927
0.00313669
0.00285305
0.00264967
0.00261947
0.00268088
0.00275762
0.00282746
0.00288956
0.00294714
0.00300525
0.00307105
0.00315006
0.00323887
0.00332448
0.00339361
0.00343912
0.00346018
0.00346459
0.00347467
0.00352348
0.00364044
0.00395425
0.00519305
0.00572705
0.0060874
0.00624382
0.00627907
0.00619413
0.0059098
0.00533778
0.00460507
0.00400509
0.00364684
0.00340488
0.003146
0.00285032
0.00261302
0.00253436
0.00257774
0.00265464
0.00272557
0.00278424
0.00283264
0.00287471
0.00291717
0.00297154
0.00305195
0.00316224
0.00328453
0.00339213
0.00347138
0.00352213
0.0035526
0.00358057
0.00363361
0.0037448
0.00404648
0.00522518
0.00566393
0.0059419
0.00611002
0.00621712
0.00627401
0.00622564
0.00595159
0.0052998
0.00441142
0.00371504
0.0033435
0.0030939
0.00281335
0.0025328
0.00241893
0.00247546
0.00257467
0.00265957
0.00272372
0.00277014
0.00280297
0.00282895
0.00286162
0.00292398
0.00303901
0.00319971
0.00336121
0.00348499
0.00356522
0.00361514
0.00365555
0.00371175
0.00381518
0.00408993
0.00515287
0.00568375
0.00593312
0.00605493
0.00613378
0.00619474
0.00621616
0.00614235
0.00584619
0.00512178
0.00414789
0.00348093
0.00315763
0.00291738
0.00262849
0.00237906
0.00233827
0.00243498
0.00254678
0.00263576
0.00269929
0.0027398
0.00276159
0.00277498
0.00280281
0.00288251
0.00304204
0.00325388
0.00344691
0.0035797
0.0036582
0.00370903
0.00376227
0.00385036
0.00408369
0.00501022
0.00599169
0.00604594
0.00610714
0.00615164
0.00617682
0.00615618
0.00605027
0.00581872
0.00535326
0.00450466
0.00364699
0.00319692
0.0029739
0.00275785
0.00248847
0.00230001
0.00230859
0.00241896
0.00253279
0.0026233
0.00268729
0.00272454
0.0027388
0.00274368
0.002771
0.00286854
0.00306044
0.00329987
0.00350478
0.00363832
0.00371597
0.00377247
0.0038469
0.0040417
0.00486458
0.00622622
0.00604845
0.00609037
0.00614626
0.00618111
0.0061451
0.00598404
0.0056744
0.00520255
0.00451396
0.00371272
0.00321195
0.00298898
0.00282375
0.00261373
0.00238217
0.00226845
0.00231755
0.00243078
0.00254101
0.00263071
0.00269484
0.00273103
0.00274249
0.0027448
0.00277424
0.00287979
0.00307744
0.00331292
0.00350865
0.00363578
0.00371714
0.00379765
0.00398408
0.00478823
0.00616512
0.00600259
0.00608489
0.00617356
0.00623675
0.00621608
0.00604931
0.00571314
0.00521141
0.00454595
0.00379115
0.00324054
0.00298879
0.00284428
0.00268364
0.00248048
0.00230286
0.00226068
0.00233847
0.0024522
0.00256106
0.00265222
0.00271914
0.0027582
0.00277196
0.00277578
0.00280491
0.00290379
0.00308293
0.00329072
0.00346267
0.00358566
0.00369878
0.00392334
0.0048138
0.005945
0.0058911
0.00602009
0.00614341
0.00625285
0.00629654
0.00620594
0.00594486
0.00551373
0.00490774
0.00415339
0.00345248
0.00304856
0.00285615
0.00271282
0.00254441
0.00235678
0.00223478
0.00224504
0.00233961
0.00245717
0.00257116
0.0026703
0.00274677
0.00279559
0.00281787
0.00282697
0.002855
0.00294225
0.0030967
0.00327408
0.00343394
0.00359467
0.00389083
0.00492211
0.00564404
0.00568967
0.00584474
0.00598794
0.00613279
0.00625074
0.00628362
0.00617698
0.00591315
0.00548084
0.00484755
0.0040489
0.00335213
0.00294803
0.00273679
0.0025768
0.00240356
0.00223666
0.00216152
0.00220573
0.00231253
0.00243795
0.00256301
0.00267678
0.00276962
0.00283425
0.00286951
0.00288713
0.00291917
0.00300565
0.00315277
0.00333018
0.00353398
0.00389901
0.00503738
0.00547667
0.00562066
0.00580978
0.00596636
0.00611267
0.00623593
0.00630919
0.00629578
0.00617014
0.00592269
0.00552283
0.0049047
0.00408542
0.00334287
0.00288069
0.0026235
0.00243752
0.0022571
0.00211002
0.00207383
0.00214426
0.00226593
0.00240604
0.00255032
0.00268738
0.00280426
0.00288976
0.00294091
0.00297284
0.00302619
0.00314192
0.00331888
0.00354288
0.00393813
0.00508758
0.00533235
0.00557441
0.00582097
0.00601313
0.00617613
0.00629281
0.00634748
0.00633405
0.00624943
0.00609161
0.00585233
0.00549044
0.00491805
0.00411626
0.00334085
0.00282237
0.00251965
0.00230646
0.00211718
0.00198879
0.0019845
0.0020775
0.00221771
0.00238093
0.0025556
0.00272658
0.00287318
0.00297925
0.00304636
0.00310579
0.00320848
0.00337408
0.00359098
0.00397078
0.00504547
0.00520503
0.00556152
0.00585994
0.00609065
0.0062903
0.00643432
0.00649573
0.00646875
0.00636932
0.00621587
0.00601824
0.00576818
0.00542203
0.00488531
0.00410744
0.00331271
0.0027527
0.00241675
0.00218307
0.0019923
0.00189029
0.00191586
0.0020313
0.00219563
0.00239311
0.00261221
0.00282724
0.00300477
0.00312916
0.00321958
0.00332268
0.00346706
0.003653
0.00398053
0.0049308
0.00514319
0.00555322
0.00586456
0.00611634
0.00635811
0.00655615
0.00666316
0.00666013
0.00656014
0.0063926
0.00618641
0.00595499
0.00568834
0.00534141
0.00481973
0.00405588
0.00324926
0.00266816
0.00231606
0.00207317
0.00189465
0.00182553
0.00188019
0.00201809
0.00220934
0.00244476
0.00270757
0.00295699
0.00315368
0.00329476
0.00341226
0.00353711
0.00368638
0.00395571
0.0048045
0.00526608
0.00557341
0.00584334
0.00609601
0.00638337
0.00664818
0.00681005
0.00684254
0.00676013
0.00659129
0.00637132
0.00612939
0.00587485
0.00559141
0.00522928
0.0046945
0.00392528
0.00312406
0.00255972
0.00221686
0.00198337
0.001835
0.00180558
0.00189185
0.0020584
0.00228531
0.00256221
0.00285732
0.00311759
0.00331262
0.00345431
0.00357109
0.0036931
0.00391396
0.00467739
0.00547488
0.00555303
0.00575509
0.00601178
0.00636953
0.00671246
0.00691971
0.00697473
0.00690762
0.0067494
0.00653085
0.00628395
0.00602881
0.00576337
0.00546093
0.00506341
0.00447974
0.00368509
0.00292772
0.00242772
0.0021256
0.0019271
0.00181984
0.00182364
0.00192681
0.00210781
0.0023577
0.00265986
0.0029652
0.00321686
0.00339624
0.0035229
0.00363598
0.00383425
0.00457922
0.00559331
0.00545067
0.00559763
0.00589336
0.0063705
0.00679322
0.00702075
0.00707728
0.00701529
0.00686908
0.00666404
0.0064263
0.00617666
0.00592002
0.00564137
0.00530266
0.00483591
0.00416247
0.0033451
0.00268129
0.00228424
0.00205734
0.00192563
0.00188397
0.00193409
0.00205889
0.00224672
0.00249408
0.00277848
0.00304776
0.0032589
0.00341118
0.00354173
0.00375301
0.00449301
0.00544753
0.00520759
0.0053074
0.00566017
0.00628598
0.0067976
0.00705687
0.00713582
0.00709978
0.00698233
0.00680526
0.0065891
0.00635178
0.00610211
0.00583457
0.00552529
0.0051254
0.00455987
0.00379162
0.00299679
0.0024454
0.00214584
0.00198142
0.00189901
0.00190092
0.00198566
0.00213925
0.00235003
0.00260368
0.00286507
0.00308931
0.00326118
0.00341116
0.00364007
0.00437857
0.00518885
0.00492801
0.00493933
0.0052285
0.00593248
0.00657906
0.0069489
0.00711573
0.00715273
0.00709672
0.00696944
0.00678923
0.00657269
0.00633173
0.00606903
0.00577333
0.00541272
0.00492901