/*--------------------------------*- C++ -*----------------------------------*\
| =========                 |                                                 |
| \\      /  F ield         | OpenFOAM: The Open Source CFD Toolbox           |
|  \\    /   O peration     | Version:  v1912                                 |
|   \\  /    A nd           | Website:  www.openfoam.com                      |
|    \\/     M anipulation  |                                                 |
\*---------------------------------------------------------------------------*/
FoamFile
{
    version     2.0;
    format      ascii;
    class       volVectorField;
    location    "530/oil";
    object      U;
}
// * * * * * * * * * * * * * * * * * * * * * * * * * * * * * * * * * * * * * //

dimensions      [0 1 -1 0 0 0 0];


internalField   nonuniform List<vector> 
35580
(
(-1.24213e-09 2.47095e-09 -1.2669e-09)
(1.2624e-09 2.24728e-09 -3.04083e-09)
(1.16549e-08 2.21689e-09 -4.89046e-09)
(2.80235e-08 2.76798e-09 -6.76336e-09)
(4.79258e-08 3.64776e-09 -8.27176e-09)
(6.85751e-08 4.68381e-09 -9.28731e-09)
(8.73936e-08 5.77741e-09 -9.80013e-09)
(1.02143e-07 6.88206e-09 -9.86778e-09)
(1.10994e-07 7.96926e-09 -9.57746e-09)
(1.12729e-07 9.01013e-09 -9.01125e-09)
(1.06683e-07 9.95044e-09 -8.24327e-09)
(9.29057e-08 1.07462e-08 -7.47663e-09)
(7.22345e-08 1.13697e-08 -6.76447e-09)
(4.59652e-08 1.18435e-08 -6.25673e-09)
(1.61214e-08 1.21043e-08 -5.99112e-09)
(-1.50263e-08 1.21356e-08 -5.99648e-09)
(-4.49599e-08 1.18629e-08 -6.2565e-09)
(-7.12839e-08 1.13809e-08 -6.7492e-09)
(-9.2083e-08 1.07181e-08 -7.43043e-09)
(-1.05988e-07 9.93752e-09 -8.20764e-09)
(-1.12252e-07 9.01282e-09 -8.96748e-09)
(-1.10688e-07 7.95937e-09 -9.5591e-09)
(-1.01941e-07 6.87148e-09 -9.84868e-09)
(-8.72889e-08 5.76977e-09 -9.79041e-09)
(-6.85413e-08 4.6759e-09 -9.27966e-09)
(-4.79488e-08 3.64307e-09 -8.26464e-09)
(-2.8081e-08 2.76374e-09 -6.75238e-09)
(-1.17203e-08 2.20636e-09 -4.86899e-09)
(-1.31899e-09 2.22496e-09 -3.01402e-09)
(1.21619e-09 2.42573e-09 -1.2468e-09)
(6.36763e-10 -2.31193e-09 6.21766e-10)
(1.27957e-08 -1.41562e-08 5.36015e-10)
(3.72861e-08 -2.36131e-08 -3.21608e-10)
(7.14103e-08 -2.87455e-08 -1.44295e-09)
(1.11119e-07 -3.03734e-08 -2.27037e-09)
(1.51646e-07 -2.93722e-08 -2.55589e-09)
(1.88209e-07 -2.64655e-08 -2.24181e-09)
(2.16501e-07 -2.21957e-08 -1.37093e-09)
(2.32951e-07 -1.70226e-08 -4.67933e-11)
(2.35048e-07 -1.13784e-08 1.57808e-09)
(2.21411e-07 -5.71402e-09 3.47995e-09)
(1.92071e-07 -5.19282e-10 5.26345e-09)
(1.48847e-07 3.76675e-09 6.8307e-09)
(9.45808e-08 6.89706e-09 7.95595e-09)
(3.31483e-08 8.55776e-09 8.5499e-09)
(-3.09381e-08 8.59286e-09 8.56916e-09)
(-9.25748e-08 6.86375e-09 7.98341e-09)
(-1.46936e-07 3.67128e-09 6.89272e-09)
(-1.90174e-07 -7.08404e-10 5.36524e-09)
(-2.19604e-07 -5.84473e-09 3.58331e-09)
(-2.33611e-07 -1.15011e-08 1.71329e-09)
(-2.31828e-07 -1.7136e-08 4.72676e-11)
(-2.15634e-07 -2.22728e-08 -1.28218e-09)
(-1.87626e-07 -2.6514e-08 -2.17177e-09)
(-1.51308e-07 -2.942e-08 -2.49731e-09)
(-1.10981e-07 -3.04381e-08 -2.21774e-09)
(-7.1414e-08 -2.88448e-08 -1.4002e-09)
(-3.73419e-08 -2.37496e-08 -2.84848e-10)
(-1.28297e-08 -1.42967e-08 5.5657e-10)
(-6.43383e-10 -2.42937e-09 6.12008e-10)
(2.49991e-09 -2.283e-08 2.49678e-09)
(2.51184e-08 -6.04626e-08 4.42294e-09)
(6.14917e-08 -8.83426e-08 4.82954e-09)
(1.0827e-07 -1.06077e-07 4.76904e-09)
(1.60531e-07 -1.15519e-07 4.86419e-09)
(2.12815e-07 -1.18457e-07 5.40212e-09)
(2.59379e-07 -1.16435e-07 6.48531e-09)
(2.94891e-07 -1.10712e-07 8.10446e-09)
(3.14868e-07 -1.02377e-07 1.01584e-08)
(3.16122e-07 -9.24454e-08 1.24662e-08)
(2.96814e-07 -8.19327e-08 1.50127e-08)
(2.56892e-07 -7.19342e-08 1.73714e-08)
(1.9874e-07 -6.35462e-08 1.9366e-08)
(1.26142e-07 -5.74709e-08 2.08084e-08)
(4.41782e-08 -5.42579e-08 2.15742e-08)
(-4.13322e-08 -5.42714e-08 2.16248e-08)
(-1.23625e-07 -5.76314e-08 2.08472e-08)
(-1.96345e-07 -6.38925e-08 1.94242e-08)
(-2.54442e-07 -7.24069e-08 1.74296e-08)
(-2.94566e-07 -8.23376e-08 1.51131e-08)
(-3.14351e-07 -9.28114e-08 1.25924e-08)
(-3.13472e-07 -1.0265e-07 1.02411e-08)
(-2.93824e-07 -1.10899e-07 8.18347e-09)
(-2.58648e-07 -1.16566e-07 6.55751e-09)
(-2.12389e-07 -1.18572e-07 5.4671e-09)
(-1.60351e-07 -1.15661e-07 4.92817e-09)
(-1.08253e-07 -1.06279e-07 4.8234e-09)
(-6.15429e-08 -8.86081e-08 4.86681e-09)
(-2.51699e-08 -6.07145e-08 4.4281e-09)
(-2.52129e-09 -2.29869e-08 2.47221e-09)
(3.99718e-09 -5.66161e-08 3.98672e-09)
(3.5451e-08 -1.31991e-07 7.38952e-09)
(8.1768e-08 -1.85079e-07 8.66204e-09)
(1.38509e-07 -2.20334e-07 9.31253e-09)
(1.99993e-07 -2.41483e-07 1.00709e-08)
(2.60362e-07 -2.51431e-07 1.12185e-08)
(3.1342e-07 -2.52627e-07 1.28674e-08)
(3.53342e-07 -2.47114e-07 1.50188e-08)
(3.75144e-07 -2.36725e-07 1.75798e-08)
(3.75205e-07 -2.23168e-07 2.03637e-08)
(3.51368e-07 -2.0817e-07 2.33065e-08)
(3.03587e-07 -1.93381e-07 2.60373e-08)
(2.34633e-07 -1.80672e-07 2.83647e-08)
(1.48753e-07 -1.71328e-07 3.00077e-08)
(5.20512e-08 -1.66407e-07 3.08676e-08)
(-4.88359e-08 -1.6648e-07 3.09321e-08)
(-1.45967e-07 -1.71537e-07 3.00252e-08)
(-2.31906e-07 -1.8102e-07 2.83767e-08)
(-3.00811e-07 -1.9376e-07 2.60642e-08)
(-3.48816e-07 -2.08491e-07 2.33734e-08)
(-3.73106e-07 -2.23458e-07 2.04239e-08)
(-3.73446e-07 -2.36935e-07 1.76133e-08)
(-3.52031e-07 -2.47259e-07 1.50562e-08)
(-3.12483e-07 -2.52726e-07 1.29061e-08)
(-2.59769e-07 -2.51533e-07 1.12623e-08)
(-1.99707e-07 -2.41641e-07 1.01227e-08)
(-1.38444e-07 -2.20583e-07 9.35185e-09)
(-8.18011e-08 -1.8539e-07 8.67245e-09)
(-3.55167e-08 -1.32255e-07 7.36503e-09)
(-4.03329e-09 -5.68203e-08 3.94656e-09)
(5.05773e-09 -1.00836e-07 5.0455e-09)
(4.32521e-08 -2.23397e-07 9.4408e-09)
(9.73998e-08 -3.06826e-07 1.12611e-08)
(1.61939e-07 -3.62996e-07 1.2356e-08)
(2.30448e-07 -3.98523e-07 1.35263e-08)
(2.96778e-07 -4.17751e-07 1.50927e-08)
(3.54458e-07 -4.24129e-07 1.71504e-08)
(3.97413e-07 -4.20509e-07 1.9715e-08)
(4.20373e-07 -4.09465e-07 2.26906e-08)
(4.19457e-07 -3.93419e-07 2.58944e-08)
(3.92304e-07 -3.74803e-07 2.91759e-08)
(3.38761e-07 -3.55833e-07 3.22504e-08)
(2.6167e-07 -3.39105e-07 3.48974e-08)
(1.65778e-07 -3.26543e-07 3.67261e-08)
(5.79832e-08 -3.19947e-07 3.76823e-08)
(-5.44803e-08 -3.20055e-07 3.77605e-08)
(-1.62768e-07 -3.26712e-07 3.67494e-08)
(-2.58596e-07 -3.39231e-07 3.49008e-08)
(-3.35683e-07 -3.55934e-07 3.23072e-08)
(-3.89512e-07 -3.74867e-07 2.9243e-08)
(-4.1714e-07 -3.93478e-07 2.59433e-08)
(-4.18507e-07 -4.09508e-07 2.2727e-08)
(-3.95966e-07 -4.20556e-07 1.97557e-08)
(-3.53404e-07 -4.24181e-07 1.71911e-08)
(-2.96075e-07 -4.17839e-07 1.51288e-08)
(-2.30065e-07 -3.98675e-07 1.35622e-08)
(-1.61814e-07 -3.63246e-07 1.23679e-08)
(-9.74176e-08 -3.0711e-07 1.12319e-08)
(-4.33396e-08 -2.23551e-07 9.36504e-09)
(-5.11535e-09 -1.01075e-07 4.98155e-09)
(5.73566e-09 -1.52475e-07 5.74975e-09)
(4.85958e-08 -3.29112e-07 1.07591e-08)
(1.08414e-07 -4.46714e-07 1.28881e-08)
(1.78657e-07 -5.2624e-07 1.42422e-08)
(2.52276e-07 -5.7802e-07 1.56668e-08)
(3.22916e-07 -6.08239e-07 1.7514e-08)
(3.83945e-07 -6.2146e-07 1.98831e-08)
(4.2914e-07 -6.21357e-07 2.28018e-08)
(4.53047e-07 -6.1122e-07 2.61637e-08)
(4.51578e-07 -5.94134e-07 2.97915e-08)
(4.22296e-07 -5.73198e-07 3.34529e-08)
(3.6483e-07 -5.51238e-07 3.69358e-08)
(2.81768e-07 -5.31303e-07 3.993e-08)
(1.78461e-07 -5.15978e-07 4.19901e-08)
(6.23786e-08 -5.07902e-07 4.30507e-08)
(-5.86798e-08 -5.07995e-07 4.31242e-08)
(-1.75309e-07 -5.16123e-07 4.19977e-08)
(-2.78452e-07 -5.31212e-07 3.99288e-08)
(-3.61528e-07 -5.51186e-07 3.70267e-08)
(-4.19335e-07 -5.7313e-07 3.35395e-08)
(-4.49128e-07 -5.94069e-07 2.98592e-08)
(-4.51082e-07 -6.11172e-07 2.62219e-08)
(-4.27616e-07 -6.21352e-07 2.28584e-08)
(-3.82831e-07 -6.21489e-07 1.99449e-08)
(-3.22153e-07 -6.0832e-07 1.75608e-08)
(-2.51826e-07 -5.78151e-07 1.57037e-08)
(-1.78475e-07 -5.26435e-07 1.42385e-08)
(-1.08416e-07 -4.46899e-07 1.28245e-08)
(-4.87172e-08 -3.29109e-07 1.06368e-08)
(-5.82063e-09 -1.52738e-07 5.66376e-09)
(6.12317e-09 -2.08827e-07 6.1441e-09)
(5.17545e-08 -4.44197e-07 1.1486e-08)
(1.1504e-07 -5.98576e-07 1.37994e-08)
(1.88785e-07 -7.03124e-07 1.52972e-08)
(2.65554e-07 -7.7255e-07 1.68809e-08)
(3.38861e-07 -8.15181e-07 1.89419e-08)
(4.02024e-07 -8.36826e-07 2.15728e-08)
(4.48754e-07 -8.41996e-07 2.48169e-08)
(4.73483e-07 -8.34638e-07 2.85543e-08)
(4.71966e-07 -8.18409e-07 3.26081e-08)
(4.41669e-07 -7.96959e-07 3.66906e-08)
(3.81989e-07 -7.73707e-07 4.05914e-08)
(2.95169e-07 -7.51959e-07 4.39736e-08)
(1.8695e-07 -7.34639e-07 4.62861e-08)
(6.53004e-08 -7.25384e-07 4.74283e-08)
(-6.14631e-08 -7.25427e-07 4.7504e-08)
(-1.83721e-07 -7.34835e-07 4.6271e-08)
(-2.91748e-07 -7.5178e-07 4.39887e-08)
(-3.78575e-07 -7.73646e-07 4.07217e-08)
(-4.38623e-07 -7.96893e-07 3.68127e-08)
(-4.69456e-07 -8.18339e-07 3.27069e-08)
(-4.71481e-07 -8.34595e-07 2.86392e-08)
(-4.47201e-07 -8.42005e-07 2.4892e-08)
(-4.00887e-07 -8.36871e-07 2.16492e-08)
(-3.38073e-07 -8.15258e-07 1.89939e-08)
(-2.65064e-07 -7.72644e-07 1.69204e-08)
(-1.88559e-07 -7.03217e-07 1.52761e-08)
(-1.15016e-07 -5.98551e-07 1.36952e-08)
(-5.18865e-08 -4.43945e-07 1.1333e-08)
(-6.21651e-09 -2.09159e-07 6.0526e-09)
(6.24067e-09 -2.67469e-07 6.28705e-09)
(5.2851e-08 -5.64023e-07 1.17457e-08)
(1.17361e-07 -7.56548e-07 1.41365e-08)
(1.9227e-07 -8.87078e-07 1.57119e-08)
(2.7002e-07 -9.75156e-07 1.73892e-08)
(3.44138e-07 -1.03148e-06 1.96011e-08)
(4.0801e-07 -1.06316e-06 2.24584e-08)
(4.55408e-07 -1.07556e-06 2.59977e-08)
(4.80738e-07 -1.0732e-06 3.00935e-08)
(4.79636e-07 -1.06019e-06 3.45721e-08)
(4.49447e-07 -1.04062e-06 3.91096e-08)
(3.89338e-07 -1.0183e-06 4.34095e-08)
(3.01057e-07 -9.96573e-07 4.72017e-08)
(1.90564e-07 -9.78191e-07 4.97894e-08)
(6.65013e-08 -9.68358e-07 5.10477e-08)
(-6.27333e-08 -9.6857e-07 5.11727e-08)
(-1.87437e-07 -9.78717e-07 4.97952e-08)
(-2.97701e-07 -9.96533e-07 4.72612e-08)
(-3.85921e-07 -1.01835e-06 4.35458e-08)
(-4.46403e-07 -1.04065e-06 3.92235e-08)
(-4.77111e-07 -1.06019e-06 3.46681e-08)
(-4.7872e-07 -1.07322e-06 3.01774e-08)
(-4.53836e-07 -1.07564e-06 2.60704e-08)
(-4.06843e-07 -1.06328e-06 2.25357e-08)
(-3.43308e-07 -1.03161e-06 1.96553e-08)
(-2.69484e-07 -9.75265e-07 1.74097e-08)
(-1.91998e-07 -8.87086e-07 1.5652e-08)
(-1.17308e-07 -7.56284e-07 1.40021e-08)
(-5.29759e-08 -5.63505e-07 1.15912e-08)
(-6.34208e-09 -2.67963e-07 6.20671e-09)
(6.13977e-09 -3.26236e-07 6.1854e-09)
(5.19767e-08 -6.84098e-07 1.15475e-08)
(1.1534e-07 -9.14973e-07 1.39241e-08)
(1.88834e-07 -1.07175e-06 1.55546e-08)
(2.65082e-07 -1.17895e-06 1.7293e-08)
(3.37819e-07 -1.24993e-06 1.95674e-08)
(4.00638e-07 -1.29317e-06 2.25643e-08)
(4.47515e-07 -1.31481e-06 2.63152e-08)
(4.72966e-07 -1.31982e-06 3.06873e-08)
(4.72572e-07 -1.31264e-06 3.55159e-08)
(4.43555e-07 -1.29759e-06 4.04495e-08)
(3.84954e-07 -1.27856e-06 4.50949e-08)
(2.97966e-07 -1.25893e-06 4.91918e-08)
(1.88458e-07 -1.24116e-06 5.20822e-08)
(6.57854e-08 -1.2319e-06 5.3549e-08)
(-6.21226e-08 -1.23214e-06 5.367e-08)
(-1.85426e-07 -1.24158e-06 5.20281e-08)
(-2.94693e-07 -1.25883e-06 4.92363e-08)
(-3.81561e-07 -1.27866e-06 4.5217e-08)
(-4.40577e-07 -1.29773e-06 4.0553e-08)
(-4.70084e-07 -1.31274e-06 3.56149e-08)
(-4.70988e-07 -1.31993e-06 3.07749e-08)
(-4.45975e-07 -1.31499e-06 2.63876e-08)
(-3.99471e-07 -1.29341e-06 2.26354e-08)
(-3.36969e-07 -1.25015e-06 1.95972e-08)
(-2.64529e-07 -1.17903e-06 1.72405e-08)
(-1.88526e-07 -1.07148e-06 1.54296e-08)
(-1.15237e-07 -9.14257e-07 1.3771e-08)
(-5.20501e-08 -6.83247e-07 1.13985e-08)
(-6.22176e-09 -3.26818e-07 6.10321e-09)
(5.81662e-09 -3.8289e-07 5.80919e-09)
(4.90903e-08 -7.99872e-07 1.0848e-08)
(1.08868e-07 -1.068e-06 1.30902e-08)
(1.78174e-07 -1.25058e-06 1.47202e-08)
(2.5014e-07 -1.3768e-06 1.65128e-08)
(3.18924e-07 -1.4628e-06 1.87994e-08)
(3.78556e-07 -1.51873e-06 2.18114e-08)
(4.23379e-07 -1.55132e-06 2.56324e-08)
(4.48198e-07 -1.56588e-06 3.01097e-08)
(4.48661e-07 -1.56701e-06 3.51054e-08)
(4.2188e-07 -1.55904e-06 4.02634e-08)
(3.66759e-07 -1.54567e-06 4.51472e-08)
(2.84133e-07 -1.52999e-06 4.93194e-08)
(1.7955e-07 -1.51456e-06 5.24063e-08)
(6.27026e-08 -1.50708e-06 5.4107e-08)
(-5.93663e-08 -1.5073e-06 5.42306e-08)
(-1.76771e-07 -1.51464e-06 5.23474e-08)
(-2.80908e-07 -1.52913e-06 4.93401e-08)
(-3.63369e-07 -1.54521e-06 4.52693e-08)
(-4.18989e-07 -1.55908e-06 4.03579e-08)
(-4.46205e-07 -1.56717e-06 3.5208e-08)
(-4.46274e-07 -1.56608e-06 3.01958e-08)
(-4.21902e-07 -1.55163e-06 2.56983e-08)
(-3.77408e-07 -1.51914e-06 2.18884e-08)
(-3.18054e-07 -1.4631e-06 1.88216e-08)
(-2.49535e-07 -1.37662e-06 1.64619e-08)
(-1.77769e-07 -1.24977e-06 1.46907e-08)
(-1.08627e-07 -1.06676e-06 1.31006e-08)
(-4.90549e-08 -7.98788e-07 1.08599e-08)
(-5.8555e-09 -3.8358e-07 5.80251e-09)
(5.26599e-09 -4.35085e-07 5.18315e-09)
(4.41344e-08 -9.06407e-07 9.72147e-09)
(9.7842e-08 -1.20911e-06 1.17187e-08)
(1.60048e-07 -1.41625e-06 1.32183e-08)
(2.24714e-07 -1.56089e-06 1.49915e-08)
(2.86695e-07 -1.66161e-06 1.72312e-08)
(3.40731e-07 -1.73062e-06 2.01257e-08)
(3.81674e-07 -1.77526e-06 2.38018e-08)
(4.04821e-07 -1.8009e-06 2.81038e-08)
(4.06032e-07 -1.81212e-06 3.29871e-08)
(3.82315e-07 -1.81304e-06 3.80999e-08)
(3.32684e-07 -1.80676e-06 4.29733e-08)
(2.58013e-07 -1.79678e-06 4.70016e-08)
(1.63251e-07 -1.78615e-06 5.01099e-08)
(5.7077e-08 -1.78119e-06 5.1879e-08)
(-5.40908e-08 -1.78147e-06 5.20363e-08)
(-1.60725e-07 -1.7861e-06 5.0122e-08)
(-2.54942e-07 -1.79576e-06 4.69242e-08)
(-3.29678e-07 -1.80649e-06 4.29801e-08)
(-3.79792e-07 -1.81321e-06 3.81031e-08)
(-4.03716e-07 -1.8124e-06 3.30773e-08)
(-4.03008e-07 -1.80113e-06 2.81967e-08)
(-3.80327e-07 -1.77566e-06 2.38581e-08)
(-3.39695e-07 -1.7312e-06 2.02163e-08)
(-2.85948e-07 -1.66181e-06 1.72563e-08)
(-2.24181e-07 -1.55996e-06 1.49366e-08)
(-1.59598e-07 -1.41443e-06 1.31558e-08)
(-9.74542e-08 -1.2071e-06 1.16073e-08)
(-4.39678e-08 -9.04888e-07 9.59722e-09)
(-5.21803e-09 -4.35676e-07 5.15668e-09)
(4.46008e-09 -4.80507e-07 4.31319e-09)
(3.70429e-08 -9.98647e-07 8.11797e-09)
(8.20716e-08 -1.33106e-06 9.83144e-09)
(1.34453e-07 -1.56019e-06 1.11802e-08)
(1.88927e-07 -1.72209e-06 1.28106e-08)
(2.41164e-07 -1.83691e-06 1.49179e-08)
(2.86989e-07 -1.91861e-06 1.75637e-08)
(3.22021e-07 -1.97547e-06 2.08341e-08)
(3.42263e-07 -2.01272e-06 2.45991e-08)
(3.43911e-07 -2.03443e-06 2.8935e-08)
(3.24129e-07 -2.04415e-06 3.34617e-08)
(2.82116e-07 -2.04563e-06 3.77832e-08)
(2.18894e-07 -2.04309e-06 4.15482e-08)
(1.38896e-07 -2.0391e-06 4.45679e-08)
(4.863e-08 -2.03728e-06 4.62566e-08)
(-4.6082e-08 -2.03742e-06 4.64226e-08)
(-1.36807e-07 -2.03884e-06 4.47735e-08)
(-2.16413e-07 -2.04292e-06 4.18116e-08)
(-2.7977e-07 -2.04766e-06 3.82826e-08)
(-3.21952e-07 -2.04579e-06 3.37694e-08)
(-3.41758e-07 -2.03508e-06 2.91381e-08)
(-3.40615e-07 -2.01286e-06 2.46431e-08)
(-3.2089e-07 -1.9758e-06 2.06264e-08)
(-2.86092e-07 -1.91915e-06 1.72599e-08)
(-2.40445e-07 -1.83667e-06 1.45555e-08)
(-1.88241e-07 -1.72038e-06 1.24958e-08)
(-1.33855e-07 -1.55778e-06 1.09802e-08)
(-8.17188e-08 -1.3289e-06 9.72404e-09)
(-3.69231e-08 -9.96861e-07 8.08106e-09)
(-4.40126e-09 -4.80894e-07 4.37521e-09)
(3.48943e-09 -5.16717e-07 3.14442e-09)
(2.83121e-08 -1.07187e-06 5.88124e-09)
(6.2251e-08 -1.42771e-06 7.19626e-09)
(1.02e-07 -1.67447e-06 8.2396e-09)
(1.43474e-07 -1.85099e-06 9.43206e-09)
(1.83333e-07 -1.97862e-06 1.10674e-08)
(2.18349e-07 -2.07184e-06 1.32464e-08)
(2.45252e-07 -2.13971e-06 1.6054e-08)
(2.61314e-07 -2.18751e-06 1.9281e-08)
(2.63184e-07 -2.21848e-06 2.28212e-08)
(2.48063e-07 -2.23665e-06 2.62759e-08)
(2.157e-07 -2.24724e-06 2.97364e-08)
(1.6773e-07 -2.25335e-06 3.30805e-08)
(1.06944e-07 -2.2552e-06 3.55909e-08)
(3.77009e-08 -2.25581e-06 3.68801e-08)
(-3.49611e-08 -2.25518e-06 3.67729e-08)
(-1.04817e-07 -2.25341e-06 3.53722e-08)
(-1.65856e-07 -2.25204e-06 3.28691e-08)
(-2.14296e-07 -2.24959e-06 2.98573e-08)
(-2.46251e-07 -2.23855e-06 2.62704e-08)
(-2.61048e-07 -2.21895e-06 2.2641e-08)
(-2.59821e-07 -2.18721e-06 1.9124e-08)
(-2.44387e-07 -2.13965e-06 1.59525e-08)
(-2.17561e-07 -2.07189e-06 1.32595e-08)
(-1.82716e-07 -1.97794e-06 1.11059e-08)
(-1.43037e-07 -1.84954e-06 9.4936e-09)
(-1.01749e-07 -1.67334e-06 8.33639e-09)
(-6.21126e-08 -1.42745e-06 7.38897e-09)
(-2.80342e-08 -1.07145e-06 6.13645e-09)
(-3.35157e-09 -5.17603e-07 3.29913e-09)
(2.21156e-09 -5.42565e-07 2.04249e-09)
(1.7895e-08 -1.12361e-06 3.78312e-09)
(3.92986e-08 -1.49604e-06 4.52229e-09)
(6.44362e-08 -1.7543e-06 5.06421e-09)
(9.04478e-08 -1.94054e-06 5.76397e-09)
(1.15412e-07 -2.07756e-06 6.83513e-09)
(1.37379e-07 -2.17961e-06 8.29786e-09)
(1.54196e-07 -2.256e-06 1.02027e-08)
(1.64514e-07 -2.31206e-06 1.24458e-08)
(1.66145e-07 -2.35048e-06 1.48234e-08)
(1.56794e-07 -2.37675e-06 1.7176e-08)
(1.36593e-07 -2.39571e-06 1.96412e-08)
(1.06557e-07 -2.40875e-06 2.19281e-08)
(6.81662e-08 -2.41512e-06 2.3631e-08)
(2.43475e-08 -2.41743e-06 2.44077e-08)
(-2.15437e-08 -2.41511e-06 2.40062e-08)
(-6.59521e-08 -2.41012e-06 2.29163e-08)
(-1.04459e-07 -2.40389e-06 2.10565e-08)
(-1.34934e-07 -2.3942e-06 1.8723e-08)
(-1.55394e-07 -2.37506e-06 1.61844e-08)
(-1.64967e-07 -2.34775e-06 1.37977e-08)
(-1.64137e-07 -2.30838e-06 1.17143e-08)
(-1.54241e-07 -2.25361e-06 9.88888e-09)
(-1.37163e-07 -2.1792e-06 8.37257e-09)
(-1.14998e-07 -2.07815e-06 7.13759e-09)
(-8.98465e-08 -1.9413e-06 6.14019e-09)
(-6.38191e-08 -1.75505e-06 5.40563e-09)
(-3.89136e-08 -1.49674e-06 4.78167e-09)
(-1.75545e-08 -1.12368e-06 3.94597e-09)
(-2.11632e-09 -5.4324e-07 2.07493e-09)
(8.15582e-10 -5.56074e-07 6.44603e-10)
(6.26531e-09 -1.15021e-06 1.28537e-09)
(1.36845e-08 -1.53187e-06 1.61564e-09)
(2.26044e-08 -1.79669e-06 1.83322e-09)
(3.1777e-08 -1.9883e-06 2.11942e-09)
(4.06333e-08 -2.12984e-06 2.56679e-09)
(4.86561e-08 -2.23539e-06 3.09715e-09)
(5.48766e-08 -2.31451e-06 3.63329e-09)
(5.86123e-08 -2.37429e-06 4.3259e-09)
(5.91673e-08 -2.41834e-06 5.27563e-09)
(5.58238e-08 -2.45089e-06 6.2642e-09)
(4.88147e-08 -2.4748e-06 7.17795e-09)
(3.81124e-08 -2.49087e-06 7.88151e-09)
(2.44953e-08 -2.49996e-06 8.62516e-09)
(9.18723e-09 -2.50434e-06 8.98211e-09)
(-7.00137e-09 -2.50201e-06 8.6953e-09)
(-2.32451e-08 -2.49575e-06 8.33809e-09)
(-3.67894e-08 -2.48713e-06 7.66046e-09)
(-4.73087e-08 -2.4738e-06 6.69818e-09)
(-5.44839e-08 -2.44995e-06 5.7541e-09)
(-5.78388e-08 -2.41687e-06 4.88799e-09)
(-5.76785e-08 -2.37183e-06 4.12779e-09)
(-5.43644e-08 -2.31261e-06 3.42274e-09)
(-4.84773e-08 -2.23487e-06 2.85707e-09)
(-4.06721e-08 -2.13044e-06 2.44393e-09)
(-3.16988e-08 -1.98936e-06 2.10317e-09)
(-2.24397e-08 -1.79784e-06 1.84413e-09)
(-1.36263e-08 -1.533e-06 1.6286e-09)
(-6.10147e-09 -1.15094e-06 1.38212e-09)
(-6.98742e-10 -5.56617e-07 7.40882e-10)
(-5.86981e-10 -5.56624e-07 -6.92169e-10)
(-5.4508e-09 -1.15119e-06 -1.2543e-09)
(-1.22553e-08 -1.53341e-06 -1.47271e-09)
(-1.99988e-08 -1.79848e-06 -1.65733e-09)
(-2.81098e-08 -1.99029e-06 -1.89402e-09)
(-3.59202e-08 -2.13215e-06 -2.22957e-09)
(-4.28144e-08 -2.23809e-06 -2.66623e-09)
(-4.82512e-08 -2.31753e-06 -3.20787e-09)
(-5.1425e-08 -2.37729e-06 -3.89035e-09)
(-5.15919e-08 -2.42096e-06 -4.64767e-09)
(-4.83741e-08 -2.45337e-06 -5.59396e-09)
(-4.20237e-08 -2.47723e-06 -6.63965e-09)
(-3.30897e-08 -2.49299e-06 -7.51085e-09)
(-2.1582e-08 -2.50237e-06 -7.85186e-09)
(-7.69291e-09 -2.50665e-06 -7.882e-09)
(7.2018e-09 -2.50406e-06 -7.77326e-09)
(2.08497e-08 -2.49866e-06 -7.25456e-09)
(3.348e-08 -2.4903e-06 -6.62238e-09)
(4.31419e-08 -2.47632e-06 -6.07005e-09)
(4.90515e-08 -2.45232e-06 -5.19772e-09)
(5.21407e-08 -2.41928e-06 -4.27812e-09)
(5.2097e-08 -2.3741e-06 -3.41588e-09)
(4.91665e-08 -2.3147e-06 -2.87384e-09)
(4.379e-08 -2.23659e-06 -2.53299e-09)
(3.66133e-08 -2.13177e-06 -2.18543e-09)
(2.86301e-08 -1.99038e-06 -1.91139e-09)
(2.03611e-08 -1.79863e-06 -1.68087e-09)
(1.2445e-08 -1.53366e-06 -1.45751e-09)
(5.67517e-09 -1.15146e-06 -1.12695e-09)
(7.33498e-10 -5.5691e-07 -5.66878e-10)
(-2.03724e-09 -5.43997e-07 -2.01614e-09)
(-1.70003e-08 -1.1254e-06 -3.81876e-09)
(-3.76831e-08 -1.49925e-06 -4.64136e-09)
(-6.17171e-08 -1.75819e-06 -5.25867e-09)
(-8.68524e-08 -1.94513e-06 -5.98013e-09)
(-1.11107e-07 -2.08309e-06 -6.94861e-09)
(-1.32367e-07 -2.18579e-06 -8.22636e-09)
(-1.48638e-07 -2.26215e-06 -9.8922e-09)
(-1.58148e-07 -2.31835e-06 -1.1963e-08)
(-1.59217e-07 -2.35711e-06 -1.41345e-08)
(-1.50067e-07 -2.3839e-06 -1.65369e-08)
(-1.30627e-07 -2.40316e-06 -1.90772e-08)
(-1.02171e-07 -2.41627e-06 -2.12688e-08)
(-6.5648e-08 -2.42401e-06 -2.26666e-08)
(-2.29727e-08 -2.427e-06 -2.32055e-08)
(2.19036e-08 -2.42372e-06 -2.28915e-08)
(6.42633e-08 -2.41974e-06 -2.18643e-08)
(1.02063e-07 -2.41414e-06 -2.02039e-08)
(1.3119e-07 -2.4025e-06 -1.83349e-08)
(1.50098e-07 -2.38249e-06 -1.59176e-08)
(1.59647e-07 -2.35479e-06 -1.36179e-08)
(1.5882e-07 -2.31504e-06 -1.1393e-08)
(1.48929e-07 -2.25928e-06 -9.47659e-09)
(1.32488e-07 -2.18368e-06 -7.87948e-09)
(1.11238e-07 -2.08212e-06 -6.57558e-09)
(8.72372e-08 -1.94497e-06 -5.60319e-09)
(6.21572e-08 -1.75836e-06 -4.86491e-09)
(3.80388e-08 -1.49977e-06 -4.29013e-09)
(1.7348e-08 -1.12609e-06 -3.52914e-09)
(2.18796e-09 -5.44184e-07 -1.90868e-09)
(-3.3308e-09 -5.18965e-07 -3.2085e-09)
(-2.7587e-08 -1.07447e-06 -5.99368e-09)
(-6.10093e-08 -1.43171e-06 -7.26398e-09)
(-9.99238e-08 -1.67851e-06 -8.20331e-09)
(-1.40482e-07 -1.85555e-06 -9.33178e-09)
(-1.79513e-07 -1.98486e-06 -1.08813e-08)
(-2.13809e-07 -2.0798e-06 -1.29455e-08)
(-2.40187e-07 -2.14867e-06 -1.56187e-08)
(-2.55554e-07 -2.1975e-06 -1.88726e-08)
(-2.57109e-07 -2.22929e-06 -2.23057e-08)
(-2.42371e-07 -2.24806e-06 -2.58362e-08)
(-2.10722e-07 -2.25893e-06 -2.92345e-08)
(-1.64132e-07 -2.26563e-06 -3.23692e-08)
(-1.0507e-07 -2.26916e-06 -3.4726e-08)
(-3.6803e-08 -2.27058e-06 -3.59215e-08)
(3.4943e-08 -2.26801e-06 -3.56338e-08)
(1.03349e-07 -2.26657e-06 -3.42749e-08)
(1.64075e-07 -2.26575e-06 -3.19466e-08)
(2.11136e-07 -2.25941e-06 -2.90829e-08)
(2.42224e-07 -2.24697e-06 -2.55845e-08)
(2.57455e-07 -2.22753e-06 -2.21218e-08)
(2.56388e-07 -2.19641e-06 -1.87185e-08)
(2.40864e-07 -2.1487e-06 -1.56839e-08)
(2.14398e-07 -2.08038e-06 -1.30116e-08)
(1.79939e-07 -1.98612e-06 -1.08672e-08)
(1.40732e-07 -1.85713e-06 -9.2476e-09)
(1.00005e-07 -1.67975e-06 -7.93799e-09)
(6.11911e-08 -1.43288e-06 -6.927e-09)
(2.79189e-08 -1.07566e-06 -5.6685e-09)
(3.49194e-09 -5.18858e-07 -3.05438e-09)
(-4.43672e-09 -4.82849e-07 -4.2356e-09)
(-3.66626e-08 -1.00116e-06 -7.90392e-09)
(-8.09332e-08 -1.33458e-06 -9.60972e-09)
(-1.32557e-07 -1.56441e-06 -1.09001e-08)
(-1.86389e-07 -1.72795e-06 -1.24065e-08)
(-2.38148e-07 -1.84522e-06 -1.44461e-08)
(-2.83481e-07 -1.92869e-06 -1.71241e-08)
(-3.18072e-07 -1.98643e-06 -2.0437e-08)
(-3.37889e-07 -2.02472e-06 -2.43618e-08)
(-3.39433e-07 -2.04766e-06 -2.86374e-08)
(-3.19908e-07 -2.05841e-06 -3.31564e-08)
(-2.78265e-07 -2.06054e-06 -3.73847e-08)
(-2.16119e-07 -2.05887e-06 -4.10731e-08)
(-1.37545e-07 -2.05686e-06 -4.40383e-08)
(-4.77102e-08 -2.05628e-06 -4.58157e-08)
(4.62121e-08 -2.0547e-06 -4.5673e-08)
(1.35988e-07 -2.05617e-06 -4.40063e-08)
(2.15913e-07 -2.06067e-06 -4.10312e-08)
(2.78345e-07 -2.0615e-06 -3.73477e-08)
(3.19601e-07 -2.05797e-06 -3.3209e-08)
(3.39285e-07 -2.04698e-06 -2.87245e-08)
(3.38304e-07 -2.02481e-06 -2.43144e-08)
(3.18611e-07 -1.98699e-06 -2.0541e-08)
(2.84026e-07 -1.92924e-06 -1.73366e-08)
(2.3864e-07 -1.84616e-06 -1.47567e-08)
(1.86859e-07 -1.72987e-06 -1.27392e-08)
(1.32948e-07 -1.56743e-06 -1.10783e-08)
(8.11528e-08 -1.33835e-06 -9.71006e-09)
(3.67121e-08 -1.00432e-06 -7.97438e-09)
(4.43531e-09 -4.82944e-07 -4.24078e-09)
(-5.23021e-09 -4.37768e-07 -5.14134e-09)
(-4.37619e-08 -9.0991e-07 -9.60457e-09)
(-9.68591e-08 -1.21346e-06 -1.16184e-08)
(-1.58733e-07 -1.42185e-06 -1.31307e-08)
(-2.23075e-07 -1.56848e-06 -1.48617e-08)
(-2.84743e-07 -1.67143e-06 -1.71602e-08)
(-3.3846e-07 -1.74196e-06 -2.01042e-08)
(-3.79129e-07 -1.78764e-06 -2.3737e-08)
(-4.02018e-07 -1.81441e-06 -2.80747e-08)
(-4.03146e-07 -1.82682e-06 -3.2899e-08)
(-3.79571e-07 -1.82873e-06 -3.80007e-08)
(-3.30181e-07 -1.82337e-06 -4.28174e-08)
(-2.56276e-07 -1.81426e-06 -4.68415e-08)
(-1.62507e-07 -1.80567e-06 -4.99601e-08)
(-5.60159e-08 -1.80161e-06 -5.19877e-08)
(5.47034e-08 -1.80046e-06 -5.1959e-08)
(1.60827e-07 -1.80516e-06 -5.02558e-08)
(2.55339e-07 -1.81555e-06 -4.71066e-08)
(3.29567e-07 -1.8241e-06 -4.28459e-08)
(3.7912e-07 -1.82909e-06 -3.80542e-08)
(4.02963e-07 -1.82704e-06 -3.29442e-08)
(4.0224e-07 -1.81483e-06 -2.80299e-08)
(3.79467e-07 -1.78825e-06 -2.37181e-08)
(3.38874e-07 -1.74265e-06 -2.00466e-08)
(2.85167e-07 -1.67238e-06 -1.71185e-08)
(2.23516e-07 -1.57026e-06 -1.49211e-08)
(1.59246e-07 -1.42506e-06 -1.31959e-08)
(9.73457e-08 -1.21771e-06 -1.16446e-08)
(4.40658e-08 -9.13328e-07 -9.61108e-09)
(5.2982e-09 -4.37786e-07 -5.12658e-09)
(-5.82376e-09 -3.85621e-07 -5.82068e-09)
(-4.8935e-08 -8.04079e-07 -1.08684e-08)
(-1.08433e-07 -1.07334e-06 -1.31036e-08)
(-1.77551e-07 -1.25752e-06 -1.46923e-08)
(-2.49323e-07 -1.3856e-06 -1.64475e-08)
(-3.17973e-07 -1.47326e-06 -1.87925e-08)
(-3.77499e-07 -1.53044e-06 -2.18626e-08)
(-4.22225e-07 -1.5641e-06 -2.56753e-08)
(-4.46915e-07 -1.57973e-06 -3.01804e-08)
(-4.47288e-07 -1.58194e-06 -3.51656e-08)
(-4.20454e-07 -1.57497e-06 -4.03563e-08)
(-3.65402e-07 -1.5628e-06 -4.52966e-08)
(-2.83481e-07 -1.54851e-06 -4.95287e-08)
(-1.79555e-07 -1.53499e-06 -5.26062e-08)
(-6.18443e-08 -1.52738e-06 -5.44232e-08)
(6.02054e-08 -1.52637e-06 -5.42555e-08)
(1.77665e-07 -1.53375e-06 -5.26203e-08)
(2.82117e-07 -1.54824e-06 -4.95464e-08)
(3.64465e-07 -1.56271e-06 -4.52112e-08)
(4.19815e-07 -1.57512e-06 -4.03428e-08)
(4.46948e-07 -1.58216e-06 -3.51742e-08)
(4.46901e-07 -1.58014e-06 -3.0172e-08)
(4.224e-07 -1.56467e-06 -2.56746e-08)
(3.7784e-07 -1.53113e-06 -2.18375e-08)
(3.18432e-07 -1.4741e-06 -1.87741e-08)
(2.49834e-07 -1.38674e-06 -1.64797e-08)
(1.78002e-07 -1.2594e-06 -1.4766e-08)
(1.08702e-07 -1.07609e-06 -1.31774e-08)
(4.90469e-08 -8.06602e-07 -1.09114e-08)
(5.79864e-09 -3.85667e-07 -5.82484e-09)
(-6.17491e-09 -3.28966e-07 -6.17909e-09)
(-5.20293e-08 -6.88417e-07 -1.1477e-08)
(-1.15437e-07 -9.20817e-07 -1.38029e-08)
(-1.88928e-07 -1.07924e-06 -1.54573e-08)
(-2.65157e-07 -1.18795e-06 -1.72683e-08)
(-3.37921e-07 -1.26017e-06 -1.96291e-08)
(-4.00784e-07 -1.30448e-06 -2.2683e-08)
(-4.47683e-07 -1.32712e-06 -2.64512e-08)
(-4.73096e-07 -1.3331e-06 -3.08658e-08)
(-4.72608e-07 -1.32689e-06 -3.5716e-08)
(-4.43399e-07 -1.31274e-06 -4.06972e-08)
(-3.84685e-07 -1.29475e-06 -4.54224e-08)
(-2.98161e-07 -1.27624e-06 -4.95505e-08)
(-1.88832e-07 -1.26002e-06 -5.24687e-08)
(-6.5028e-08 -1.25051e-06 -5.40744e-08)
(6.32299e-08 -1.24999e-06 -5.39562e-08)
(1.86902e-07 -1.2593e-06 -5.25231e-08)
(2.96614e-07 -1.27617e-06 -4.95834e-08)
(3.83599e-07 -1.29486e-06 -4.54189e-08)
(4.42644e-07 -1.31297e-06 -4.0739e-08)
(4.72162e-07 -1.32718e-06 -3.57584e-08)
(4.72938e-07 -1.33352e-06 -3.08953e-08)
(4.47731e-07 -1.32766e-06 -2.64797e-08)
(4.00993e-07 -1.30517e-06 -2.27006e-08)
(3.38238e-07 -1.261e-06 -1.96511e-08)
(2.65527e-07 -1.18896e-06 -1.73219e-08)
(1.89216e-07 -1.08057e-06 -1.56082e-08)
(1.15533e-07 -9.22665e-07 -1.40591e-08)
(5.20295e-08 -6.90407e-07 -1.17094e-08)
(6.10841e-09 -3.28956e-07 -6.24484e-09)
(-6.28572e-09 -2.70071e-07 -6.31299e-09)
(-5.30474e-08 -5.68147e-07 -1.17243e-08)
(-1.17772e-07 -7.6239e-07 -1.40709e-08)
(-1.92865e-07 -8.94352e-07 -1.57075e-08)
(-2.708e-07 -9.83567e-07 -1.74712e-08)
(-3.45133e-07 -1.04087e-06 -1.97374e-08)
(-4.09187e-07 -1.07345e-06 -2.2638e-08)
(-4.56705e-07 -1.0867e-06 -2.61999e-08)
(-4.82071e-07 -1.08517e-06 -3.03468e-08)
(-4.80873e-07 -1.07299e-06 -3.48644e-08)
(-4.50374e-07 -1.05417e-06 -3.94644e-08)
(-3.89973e-07 -1.03259e-06 -4.38636e-08)
(-3.0185e-07 -1.01151e-06 -4.76727e-08)
(-1.91301e-07 -9.94368e-07 -5.03474e-08)
(-6.60176e-08 -9.84536e-07 -5.17547e-08)
(6.40133e-08 -9.84261e-07 -5.17025e-08)
(1.89178e-07 -9.93938e-07 -5.04043e-08)
(3.00243e-07 -1.01158e-06 -4.76539e-08)
(3.88931e-07 -1.03269e-06 -4.38326e-08)
(4.49609e-07 -1.05431e-06 -3.9507e-08)
(4.80349e-07 -1.07319e-06 -3.49185e-08)
(4.81811e-07 -1.0855e-06 -3.03914e-08)
(4.56657e-07 -1.08715e-06 -2.6241e-08)
(4.0929e-07 -1.07401e-06 -2.26685e-08)
(3.45327e-07 -1.04154e-06 -1.97672e-08)
(2.71049e-07 -9.84361e-07 -1.75132e-08)
(1.93082e-07 -8.95281e-07 -1.58038e-08)
(1.17888e-07 -7.63555e-07 -1.42603e-08)
(5.30745e-08 -5.69562e-07 -1.19037e-08)
(6.25543e-09 -2.7001e-07 -6.35595e-09)
(-6.19214e-09 -2.10998e-07 -6.15511e-09)
(-5.20818e-08 -4.47881e-07 -1.1461e-08)
(-1.15677e-07 -6.03853e-07 -1.37853e-08)
(-1.89774e-07 -7.09558e-07 -1.53631e-08)
(-2.66896e-07 -7.79875e-07 -1.70201e-08)
(-3.40557e-07 -8.23281e-07 -1.91193e-08)
(-4.04014e-07 -8.45635e-07 -2.17982e-08)
(-4.50951e-07 -8.51472e-07 -2.50742e-08)
(-4.75786e-07 -8.44752e-07 -2.88687e-08)
(-4.74172e-07 -8.29151e-07 -3.29773e-08)
(-4.43476e-07 -8.08281e-07 -3.71594e-08)
(-3.83345e-07 -7.85527e-07 -4.11687e-08)
(-2.96461e-07 -7.64248e-07 -4.4573e-08)
(-1.87999e-07 -7.47838e-07 -4.69622e-08)
(-6.49694e-08 -7.38713e-07 -4.82154e-08)
(6.29778e-08 -7.38352e-07 -4.81788e-08)
(1.8578e-07 -7.47274e-07 -4.69552e-08)
(2.94813e-07 -7.6417e-07 -4.45005e-08)
(3.8227e-07 -7.85501e-07 -4.10874e-08)
(4.42651e-07 -8.0831e-07 -3.7167e-08)
(4.73561e-07 -8.29282e-07 -3.30257e-08)
(4.75437e-07 -8.45001e-07 -2.89123e-08)
(4.50831e-07 -8.51825e-07 -2.51141e-08)
(4.04046e-07 -8.46069e-07 -2.1827e-08)
(3.40681e-07 -8.23795e-07 -1.91457e-08)
(2.67084e-07 -7.80468e-07 -1.70474e-08)
(1.89971e-07 -7.10229e-07 -1.54055e-08)
(1.15832e-07 -6.04619e-07 -1.3874e-08)
(5.20965e-08 -4.488e-07 -1.15891e-08)
(6.15345e-09 -2.11062e-07 -6.19798e-09)
(-5.8302e-09 -1.54196e-07 -5.73243e-09)
(-4.90243e-08 -3.32234e-07 -1.07264e-08)
(-1.09237e-07 -4.51172e-07 -1.29095e-08)
(-1.79933e-07 -5.3157e-07 -1.43327e-08)
(-2.53984e-07 -5.83987e-07 -1.58164e-08)
(-3.25055e-07 -6.14762e-07 -1.76944e-08)
(-3.8646e-07 -6.28494e-07 -2.011e-08)
(-4.31915e-07 -6.28868e-07 -2.30552e-08)
(-4.55967e-07 -6.19168e-07 -2.64636e-08)
(-4.54416e-07 -6.02515e-07 -3.01398e-08)
(-4.24705e-07 -5.81926e-07 -3.39182e-08)
(-3.6674e-07 -5.60311e-07 -3.74978e-08)
(-2.83514e-07 -5.40776e-07 -4.05246e-08)
(-1.7976e-07 -5.25972e-07 -4.26659e-08)
(-6.21698e-08 -5.17948e-07 -4.3828e-08)
(6.02316e-08 -5.17604e-07 -4.37891e-08)