/*--------------------------------*- C++ -*----------------------------------*\
| =========                 |                                                 |
| \\      /  F ield         | OpenFOAM: The Open Source CFD Toolbox           |
|  \\    /   O peration     | Version:  v1906                                 |
|   \\  /    A nd           | Web:      www.OpenFOAM.com                      |
|    \\/     M anipulation  |                                                 |
\*---------------------------------------------------------------------------*/
FoamFile
{
    version     2.0;
    format      ascii;
    class       surfaceScalarField;
    location    "32.6/oil";
    object      phi;
}
// * * * * * * * * * * * * * * * * * * * * * * * * * * * * * * * * * * * * * //

dimensions      [1 0 -1 0 0 0 0];
oriented        oriented;


internalField   nonuniform List<scalar> 
80688
(
-2.40462e-06
-2.44609e-06
-2.40462e-06
-1.0866e-06
-6.81446e-07
-6.36578e-07
-2.97114e-07
-3.97101e-07
-3.92385e-07
-1.487e-07
-7.44105e-08
-7.40038e-08
-6.36277e-08
-4.28251e-08
-4.22471e-08
-2.40902e-08
-2.01726e-08
-1.93649e-08
-3.94383e-09
-1.05247e-08
-9.62169e-09
6.61396e-09
-5.76676e-09
-4.79106e-09
1.19455e-08
-3.21614e-09
-2.11542e-09
1.39987e-08
-1.6737e-09
-3.79504e-10
1.37363e-08
-6.27794e-10
8.90197e-10
1.17135e-08
1.30602e-10
1.89217e-09
8.34967e-09
6.9543e-10
2.66839e-09
4.05505e-09
1.07865e-09
3.21597e-09
-7.45565e-10
1.28677e-09
3.51384e-09
-5.61872e-09
1.3223e-09
3.55085e-09
-1.01476e-08
1.19367e-09
3.33521e-09
-1.39646e-08
9.19011e-10
2.89796e-09
-1.67832e-08
5.2624e-10
2.29237e-09
-1.84176e-08
4.94855e-11
1.58499e-09
-1.88035e-08
-4.63368e-10
8.49199e-10
-1.79846e-08
-9.83735e-10
1.64906e-10
-1.60997e-08
-1.47305e-09
-4.11855e-10
-1.33867e-08
-1.8981e-09
-8.14914e-10
-1.01599e-08
-2.22411e-09
-1.00272e-09
-6.795e-09
-2.40477e-09
-9.60109e-10
-3.71425e-09
-2.37305e-09
-7.07697e-10
-1.35356e-09
-2.03485e-09
-3.25843e-10
-8.34721e-11
-1.27244e-09
2.35142e-12
-1.7405e-10
9.0576e-11
-6.48117e-07
-1.14985e-06
-6.48117e-07
-3.90106e-07
-4.18302e-07
-5.21155e-07
-2.81936e-07
-2.80413e-07
-2.24858e-07
-1.43568e-07
-1.20616e-07
-9.21627e-08
-6.65054e-08
-7.17442e-08
-4.81433e-08
-2.28015e-08
-4.22284e-08
-2.16481e-08
3.12086e-09
-2.82302e-08
-8.21694e-09
1.82777e-08
-2.04065e-08
-5.17127e-10
2.64023e-08
-1.57346e-08
4.39391e-09
2.93804e-08
-1.26066e-08
7.95474e-09
2.8293e-08
-1.03172e-08
1.07768e-08
2.39058e-08
-8.5624e-09
1.30803e-08
1.69332e-08
-7.2305e-09
1.48984e-08
8.13019e-09
-6.3042e-09
1.61859e-08
-1.67809e-09
-5.79049e-09
1.68856e-08
-1.16305e-08
-5.69273e-09
1.69674e-08
-2.08928e-08
-5.99148e-09
1.64474e-08
-2.87288e-08
-6.63792e-09
1.5393e-08
-3.45654e-08
-7.5562e-09
1.39191e-08
-3.80357e-08
-8.64991e-09
1.21697e-08
-3.89967e-08
-9.81305e-09
1.03107e-08
-3.75363e-08
-1.09383e-08
8.49408e-09
-3.39486e-08
-1.19191e-08
6.85835e-09
-2.87037e-08
-1.265e-08
5.50706e-09
-2.24144e-08
-1.30151e-08
4.50169e-09
-1.57934e-08
-1.28696e-08
3.84374e-09
-9.59987e-09
-1.20208e-08
3.45424e-09
-4.56124e-09
-1.02148e-08
3.1413e-09
-1.25324e-09
-7.13494e-09
2.55449e-09
-2.68829e-09
1.261e-09
-4.04359e-07
-3.41136e-07
-4.04359e-07
-2.73179e-07
-3.18493e-07
-2.30989e-07
-1.86866e-07
-2.22163e-07
-1.44564e-07
-1.02446e-07
-1.3135e-07
-7.36855e-08
-4.72816e-08
-9.01551e-08
-3.67539e-08
-1.03652e-08
-6.46382e-08
-1.45067e-08
1.37786e-08
-5.06583e-08
-1.71572e-09
2.8928e-08
-4.19921e-08
6.43623e-09
3.72336e-08
-3.62424e-08
1.22021e-08
3.99361e-08
-3.20277e-08
1.67186e-08
3.78675e-08
-2.87241e-08
2.04755e-08
3.17516e-08
-2.60698e-08
2.36233e-08
2.2384e-08
-2.39979e-08
2.6135e-08
1.06853e-08
-2.25288e-08
2.79232e-08
-2.29683e-09
-2.17029e-08
2.88946e-08
-1.54547e-08
-2.15373e-08
2.90024e-08
-2.77081e-08
-2.2003e-08
2.82649e-08
-3.80995e-08
-2.3018e-08
2.67715e-08
-4.58861e-08
-2.4448e-08
2.46784e-08
-5.05903e-08
-2.61255e-08
2.21798e-08
-5.20372e-08
-2.7861e-08
1.94949e-08
-5.03396e-08
-2.94608e-08
1.68249e-08
-4.58788e-08
-3.07309e-08
1.4351e-08
-3.92528e-08
-3.14732e-08
1.21971e-08
-3.12269e-08
-3.14695e-08
1.04285e-08
-2.26706e-08
-3.0455e-08
9.0291e-09
-1.44787e-08
-2.80906e-08
7.87795e-09
-7.48644e-09
-2.3923e-08
6.716e-09
-2.39741e-09
-1.73252e-08
5.10123e-09
-7.49087e-09
2.40517e-09
-7.88085e-08
-1.8352e-07
-7.88077e-08
-1.07213e-07
-1.96269e-07
-9.38194e-08
-8.88804e-08
-1.67058e-07
-7.34365e-08
-5.17961e-08
-1.27341e-07
-4.10928e-08
-1.9085e-08
-1.03444e-07
-1.94224e-08
7.18864e-09
-8.6587e-08
-4.32474e-09
2.64883e-08
-7.58054e-08
5.84746e-09
3.94502e-08
-6.82032e-08
1.32491e-08
4.65942e-08
-6.24867e-08
1.91003e-08
4.83494e-08
-5.78424e-08
2.40594e-08
4.51539e-08
-5.39137e-08
2.83851e-08
3.75731e-08
-5.05941e-08
3.2105e-08
2.63816e-08
-4.79205e-08
3.51142e-08
1.2572e-08
-4.59898e-08
3.72706e-08
-2.68183e-09
-4.48911e-08
3.8442e-08
-1.81142e-08
-4.46663e-08
3.85614e-08
-3.24822e-08
-4.52817e-08
3.76468e-08
-4.46841e-08
-4.66219e-08
3.58058e-08
-5.38616e-08
-4.84955e-08
3.3225e-08
-5.9473e-08
-5.06551e-08
3.0141e-08
-6.13199e-08
-5.28242e-08
2.68101e-08
-5.95407e-08
-5.47164e-08
2.34763e-08
-5.45683e-08
-5.60461e-08
2.03429e-08
-4.70781e-08
-5.65131e-08
1.75498e-08
-3.79154e-08
-5.57951e-08
1.51628e-08
-2.8023e-08
-5.35003e-08
1.3153e-08
-1.83633e-08
-4.91249e-08
1.13746e-08
-9.83972e-09
-4.19742e-08
9.52758e-09
-3.30784e-09
-3.09638e-08
7.1067e-09
-1.41157e-08
3.31697e-09
-4.08636e-08
-1.01794e-07
-4.08623e-08
-5.17815e-08
-1.39098e-07
-4.62532e-08
-4.12614e-08
-1.42096e-07
-3.5482e-08
-1.95932e-08
-1.29943e-07
-1.90667e-08
2.54535e-09
-1.19643e-07
-5.93942e-09
2.22482e-08
-1.10674e-07
4.3842e-09
3.78226e-08
-1.03754e-07
1.23744e-08
4.86734e-08
-9.7999e-08
1.89451e-08
5.44944e-08
-9.29881e-08
2.46804e-08
5.52032e-08
-8.84343e-08
2.98831e-08
5.09411e-08
-8.42674e-08
3.46158e-08
4.21308e-08
-8.0566e-08
3.87822e-08
2.95017e-08
-7.74929e-08
4.22015e-08
1.40773e-08
-7.52314e-08
4.4666e-08
-2.88583e-09
-7.39321e-08
4.60042e-08
-2.00138e-08
-7.36645e-08
4.61261e-08
-3.5947e-08
-7.43945e-08
4.50461e-08
-4.94795e-08
-7.5978e-08
4.28886e-08
-5.96763e-08
-7.81701e-08
3.98714e-08
-6.59528e-08
-8.06492e-08
3.62705e-08
-6.81022e-08
-8.30586e-08
3.23839e-08
-6.62821e-08
-8.50235e-08
2.84869e-08
-6.09674e-08
-8.6163e-08
2.48023e-08
-5.28792e-08
-8.60887e-08
2.14873e-08
-4.2909e-08
-8.43728e-08
1.86075e-08
-3.20414e-08
-8.04936e-08
1.61256e-08
-2.1277e-08
-7.37687e-08
1.38794e-08
-1.15849e-08
-6.32037e-08
1.15374e-08
-3.96558e-09
-4.71282e-08
8.54507e-09
-2.20581e-08
3.97685e-09
-1.55227e-08
-7.07503e-08
-1.55209e-08
-1.87332e-08
-1.17765e-07
-1.81229e-08
-1.17041e-08
-1.36226e-07
-1.28992e-08
2.62606e-09
-1.39963e-07
-4.30972e-09
1.88287e-08
-1.39634e-07
3.78814e-09
3.42968e-08
-1.37177e-07
1.1035e-08
4.71382e-08
-1.34057e-07
1.74612e-08
5.62399e-08
-1.30481e-07
2.33797e-08
6.08694e-08
-1.26622e-07
2.90044e-08
6.063e-08
-1.22596e-07
3.4401e-08
5.54606e-08
-1.18581e-07
3.94831e-08
4.56658e-08
-1.14823e-07
4.40514e-08
3.19274e-08
-1.11601e-07
4.78463e-08
1.52849e-08
-1.09186e-07
5.05969e-08
-2.95072e-09
-1.07783e-07
5.20866e-08
-2.13273e-08
-1.07492e-07
5.22037e-08
-3.84018e-08
-1.0828e-07
5.09598e-08
-5.28897e-08
-1.09983e-07
4.84925e-08
-6.3804e-08
-1.1231e-07
4.50538e-08
-7.05354e-08
-1.14881e-07
4.09632e-08
-7.28795e-08
-1.17274e-07
3.65596e-08
-7.10148e-08
-1.19035e-07
3.21473e-08
-6.54492e-08
-1.19713e-07
2.79839e-08
-5.69355e-08
-1.18832e-07
2.42298e-08
-4.6395e-08
-1.15867e-07
2.09537e-08
-3.48343e-08
-1.10167e-07
1.81123e-08
-2.3285e-08
-1.00849e-07
1.55314e-08
-1.2767e-08
-8.65783e-08
1.28566e-08
-4.39888e-09
-6.49861e-08
9.48981e-09
-3.08694e-08
4.41237e-09
-4.85331e-09
-6.10459e-08
-4.85113e-09
-3.30641e-09
-1.14862e-07
-4.44912e-09
4.09373e-09
-1.42825e-07
-8.0133e-10
1.60278e-08
-1.5642e-07
4.52298e-09
2.95597e-08
-1.63236e-07
1.00706e-08
4.27224e-08
-1.65933e-07
1.55928e-08
5.38419e-08
-1.66241e-07
2.10648e-08
6.17073e-08
-1.64923e-07
2.65775e-08
6.54342e-08
-1.62512e-07
3.21633e-08
6.44679e-08
-1.59382e-07
3.77522e-08
5.86255e-08
-1.55897e-07
4.31579e-08
4.81318e-08
-1.52428e-07
4.80987e-08
3.36336e-08
-1.49344e-07
5.22409e-08
1.61677e-08
-1.4698e-07
5.52604e-08
-2.91602e-09
-1.45592e-07
5.68925e-08
-2.21138e-08
-1.45294e-07
5.70006e-08
-3.99258e-08
-1.46062e-07
5.5594e-08
-5.50149e-08
-1.4772e-07
5.2826e-08
-6.63622e-08
-1.49949e-07
4.89864e-08
-7.33459e-08
-1.5233e-07
4.44327e-08
-7.57748e-08
-1.54393e-07
3.95472e-08
-7.38506e-08
-1.55636e-07
3.46765e-08
-6.81094e-08
-1.55548e-07
3.00941e-08
-5.93256e-08
-1.53589e-07
2.59732e-08
-4.84372e-08
-1.49141e-07
2.23853e-08
-3.64613e-08
-1.41422e-07
1.92795e-08
-2.44441e-08
-1.29338e-07
1.64713e-08
-1.34403e-08
-1.11175e-07
1.35924e-08
-4.64012e-09
-8.38011e-08
1.00148e-08
-4.01649e-08
4.65546e-09
2.34709e-11
-6.10952e-08
2.57899e-11
4.51505e-09
-1.2176e-07
2.40595e-09
1.27279e-08
-1.5667e-07
5.63225e-09
2.38306e-08
-1.7707e-07
9.54675e-09
3.60459e-08
-1.89256e-07
1.38047e-08
4.78611e-08
-1.96128e-07
1.83799e-08
5.7847e-08
-1.99521e-07
2.32938e-08
6.4842e-08
-2.00487e-07
2.8569e-08
6.79174e-08
-1.99744e-07
3.41566e-08
6.64611e-08
-1.97836e-07
3.99112e-08
6.02163e-08
-1.95237e-07
4.55849e-08
4.93536e-08
-1.92405e-07
5.08405e-08
3.44844e-08
-1.89759e-07
5.52844e-08
1.66414e-08
-1.87672e-07
5.85344e-08
-2.81611e-09
-1.86418e-07
6.02832e-08
-2.23617e-08
-1.8613e-07
6.03811e-08
-4.04701e-08
-1.86786e-07
5.88326e-08
-5.57779e-08
-1.88211e-07
5.57994e-08
-6.72563e-08
-1.90075e-07
5.16044e-08
-7.42864e-08
-1.91953e-07
4.66529e-08
-7.66969e-08
-1.93349e-07
4.1367e-08
-7.47149e-08
-1.9374e-07
3.61215e-08
-6.88919e-08
-1.92577e-07
3.12057e-08
-6.00164e-08
-1.89271e-07
2.68063e-08
-4.90282e-08
-1.83126e-07
2.29966e-08
-3.6939e-08
-1.73232e-07
1.97209e-08
-2.47886e-08
-1.58274e-07
1.67854e-08
-1.36402e-08
-1.36136e-07
1.38131e-08
-4.7105e-09
-1.02895e-07
1.01639e-08
-4.96024e-08
4.72699e-09
2.19106e-09
-6.54795e-08
2.19327e-09
8.19425e-09
-1.33425e-07
5.66214e-09
1.69365e-08
-1.74204e-07
8.79132e-09
2.76383e-08
-1.99836e-07
1.20644e-08
3.90477e-08
-2.16313e-07
1.56471e-08
4.99366e-08
-2.26696e-07
1.96795e-08
5.9085e-08
-2.32905e-07
2.42356e-08
6.54163e-08
-2.36144e-07
2.93251e-08
6.80344e-08
-2.37242e-07
3.488e-08
6.63046e-08
-2.36825e-07
4.07183e-08
5.99495e-08
-2.35434e-07
4.65519e-08
4.90878e-08
-2.33548e-07
5.20042e-08
3.4301e-08
-2.31606e-07
5.66338e-08
1.6596e-08
-2.29992e-07
6.0025e-08
-2.68053e-09
-2.28988e-07
6.18466e-08
-2.20212e-08
-2.28721e-07
6.1932e-08
-3.99148e-08
-2.29176e-07
6.02834e-08
-5.50104e-08
-2.30186e-07
5.70701e-08
-6.62883e-08
-2.31439e-07
5.2642e-08
-7.31518e-08
-2.32514e-07
4.74251e-08
-7.54511e-08
-2.32919e-07
4.18694e-08
-7.34325e-08
-2.32143e-07
3.63848e-08
-6.76545e-08
-2.29628e-07
3.12738e-08
-5.89076e-08
-2.24746e-07
2.67279e-08
-4.81088e-08
-2.16736e-07
2.28113e-08
-3.62434e-08
-2.04565e-07
1.94674e-08
-2.43211e-08
-1.86705e-07
1.65092e-08
-1.33805e-08
-1.6063e-07
1.35529e-08
-4.61815e-09
-1.21617e-07
9.96013e-09
-5.88555e-08
4.63495e-09
3.05278e-09
-7.15869e-08
3.05464e-09
9.59559e-09
-1.46915e-07
6.94646e-09
1.8363e-08
-1.92937e-07
9.96602e-09
2.8556e-08
-2.22896e-07
1.28667e-08
3.91713e-08
-2.42956e-07
1.60284e-08
4.91835e-08
-2.56383e-07
1.96745e-08
5.75488e-08
-2.65191e-07
2.39208e-08
6.3279e-08
-2.7066e-07
2.87864e-08
6.55473e-08
-2.737e-07
3.41887e-08
6.37394e-08
-2.74963e-07
3.99464e-08
5.75545e-08
-2.75001e-07
4.57521e-08
4.70938e-08
-2.74293e-07
5.12059e-08
3.2898e-08
-2.73264e-07
5.58539e-08
1.5925e-08
-2.72284e-07
5.92651e-08
-2.53268e-09
-2.71611e-07
6.10811e-08
-2.1034e-08
-2.71373e-07
6.11534e-08
-3.81342e-08
-2.71559e-07
5.9483e-08
-5.25295e-08
-2.72012e-07
5.62217e-08
-6.32439e-08
-2.7245e-07
5.17253e-08
-6.97183e-08
-2.72481e-07
4.64414e-08
-7.18234e-08
-2.71655e-07
4.08408e-08
-6.98171e-08
-2.69473e-07
3.53241e-08
-6.42551e-08
-2.65395e-07
3.02046e-08
-5.58932e-08
-2.58781e-07
2.5673e-08
-4.56105e-08
-2.48814e-07
2.17954e-08
-3.4337e-08
-2.34356e-07
1.85175e-08
-2.3031e-08
-2.13654e-07
1.56426e-08
-1.26637e-08
-1.83805e-07
1.28078e-08
-4.36718e-09
-1.39323e-07
9.40892e-09
-6.76062e-08
4.38344e-09
3.21478e-09
-7.80175e-08
3.21577e-09
9.60191e-09
-1.60362e-07
7.06055e-09
1.78611e-08
-2.11062e-07
9.86607e-09
2.72114e-08
-2.44687e-07
1.24409e-08
3.68153e-08
-2.67791e-07
1.52304e-08
4.58036e-08
-2.83871e-07
1.85002e-08
5.32726e-08
-2.9504e-07
2.23805e-08
5.83643e-08
-3.02645e-07
2.68924e-08
6.03238e-08
-3.0762e-07
3.1961e-08
5.85817e-08
-3.10626e-07
3.74051e-08
5.28515e-08
-3.12191e-07
4.292e-08
4.32126e-08
-3.12774e-07
4.81192e-08
3.01519e-08
-3.12755e-07
5.25521e-08
1.45537e-08
-3.12484e-07
5.57981e-08
-2.39041e-09
-3.1218e-07
5.75129e-08
-1.93602e-08
-3.11975e-07
5.7571e-08
-3.50334e-08
-3.11853e-07
5.59676e-08
-4.81987e-08
-3.11684e-07
5.2837e-08
-5.79657e-08
-3.11208e-07
4.85253e-08
-6.3824e-08
-3.10073e-07
4.34503e-08
-6.56584e-08
-3.07888e-07
3.8068e-08
-6.3736e-08
-3.04179e-07
3.2783e-08
-5.85823e-08
-2.98447e-07
2.78986e-08
-5.0898e-08
-2.90056e-07
2.3591e-08
-4.14892e-08
-2.78147e-07
1.99245e-08
-3.12083e-08
-2.61486e-07
1.68493e-08
-2.09129e-08
-2.38137e-07
1.41879e-08
-1.14885e-08
-2.04827e-07
1.15977e-08
-3.95951e-09
-1.55368e-07
8.51626e-09
-7.55402e-08
3.97449e-09
2.95753e-09
-8.39327e-08
2.95767e-09
8.66536e-09
-1.72475e-07
6.40512e-09
1.5929e-08
-2.27179e-07
8.85333e-09
2.40393e-08
-2.63856e-07
1.1059e-08
3.23082e-08
-2.89511e-07
1.34514e-08
4.00064e-08
-3.0785e-07
1.62809e-08
4.63871e-08
-3.21092e-07
1.96706e-08
5.07302e-08
-3.30642e-07
2.36545e-08
5.23705e-08
-3.37422e-07
2.81619e-08
5.08208e-08
-3.42101e-07
3.30243e-08
4.58217e-08
-3.45159e-07
3.79678e-08
3.74161e-08
-3.47003e-07
4.26354e-08
2.60455e-08
-3.47992e-07
4.66071e-08
1.24671e-08
-3.48411e-07
4.95054e-08
-2.26481e-09
-3.48473e-07
5.10251e-08
-1.70071e-08
-3.48301e-07
5.10686e-08
-3.0611e-08
-3.47886e-07
4.96371e-08
-4.20223e-08
-3.47093e-07
4.68206e-08
-5.04511e-08
-3.45702e-07
4.29231e-08
-5.5451e-08
-3.4341e-07
3.83367e-08
-5.69582e-08
-3.39861e-07
3.34794e-08
-5.52014e-08
-3.34658e-07
2.87222e-08
-5.06564e-08
-3.27328e-07
2.43357e-08
-4.39482e-08
-3.17243e-07
2.04786e-08
-3.5778e-08
-3.03532e-07
1.72149e-08
-2.68758e-08
-2.84881e-07
1.44925e-08
-1.79901e-08
-2.59181e-07
1.21585e-08
-9.87478e-09
-2.22862e-07
9.92006e-09
-3.3975e-09
-1.69132e-07
7.28661e-09
-8.23482e-08
3.41054e-09
2.42757e-09
-8.87874e-08
2.42718e-09
7.0539e-09
-1.82323e-07
5.22118e-09
1.28894e-08
-2.40194e-07
7.17956e-09
1.93702e-08
-2.79269e-07
8.93135e-09
2.59454e-08
-3.0693e-07
1.08435e-08
3.20619e-08
-3.27095e-07
1.3128e-08
3.71358e-08
-3.42049e-07
1.58839e-08
4.05878e-08
-3.53244e-07
1.91498e-08
4.18922e-08
-3.61592e-07
2.28652e-08
4.06389e-08
-3.67736e-07
2.68883e-08
3.6607e-08
-3.72117e-07
3.099e-08
2.98326e-08
-3.75083e-07
3.48539e-08
2.06623e-08
-3.7695e-07
3.8128e-08
9.70911e-09
-3.77964e-07
4.05071e-08
-2.16272e-09
-3.78343e-07
4.17416e-08
-1.4032e-08
-3.78199e-07
4.17677e-08
-2.49763e-08
-3.77526e-07
4.05843e-08
-3.41187e-08
-3.76203e-07
3.82528e-08
-4.08314e-08
-3.7401e-07
3.50202e-08
-4.47682e-08
-3.7068e-07
3.12064e-08
-4.58782e-08
-3.6592e-07
2.71696e-08
-4.43654e-08
-3.59385e-07
2.32144e-08
-4.0627e-08
-3.50637e-07
1.95704e-08
-3.51788e-08
-3.39077e-07
1.63863e-08
-2.85825e-08
-3.23834e-07
1.3705e-08
-2.14369e-08
-3.03512e-07
1.14857e-08
-1.43268e-08
-2.759e-07
9.60881e-09
-7.84736e-09
-2.37174e-07
7.83294e-09
-2.69677e-09
-1.80043e-07
5.7607e-09
-8.77526e-08
2.70765e-09
1.70818e-09
-9.22002e-08
1.70458e-09
4.93819e-09
-1.89199e-07
3.64642e-09
9.00106e-09
-2.49253e-07
4.99593e-09
1.3502e-08
-2.89986e-07
6.21656e-09
1.80782e-08
-3.19074e-07
7.56759e-09
2.23453e-08
-3.40564e-07
9.20178e-09
2.58991e-08
-3.56809e-07
1.12061e-08
2.83306e-08
-3.69273e-07
1.35974e-08
2.92668e-08
-3.78865e-07
1.63371e-08
2.84018e-08
-3.86185e-07
1.93145e-08
2.55629e-08
-3.91633e-07
2.23549e-08
2.07613e-08
-3.95519e-07
2.52379e-08
1.42243e-08
-3.98107e-07
2.76943e-08
6.40149e-09
-3.99622e-07
2.94801e-08
-2.08456e-09
-4.00257e-07
3.04005e-08
-1.05557e-08
-4.00136e-07
3.04084e-08
-1.833e-08
-3.99256e-07
2.95037e-08
-2.47848e-08
-3.97481e-07
2.77329e-08
-2.94667e-08
-3.94627e-07
2.5299e-08
-3.21379e-08
-3.90449e-07
2.24404e-08
-3.27819e-08
-3.84699e-07
1.94232e-08
-3.1571e-08
-3.77087e-07
1.64905e-08
-2.88032e-08
-3.67212e-07
1.38075e-08
-2.48535e-08
-3.545e-07
1.1473e-08
-2.01333e-08
-3.38082e-07
9.52796e-09
-1.50562e-08
-3.16529e-07
7.93971e-09
-1.003e-08
-2.87537e-07
6.61047e-09
-5.47906e-09
-2.47108e-07
5.38296e-09
-1.87419e-09
-1.87622e-07
3.97355e-09
-9.15095e-08
1.8827e-09
8.57435e-10
-9.3911e-08
8.53369e-10
2.46432e-09
-1.92606e-07
1.80026e-09
4.49627e-09
-2.53745e-07
2.45982e-09
6.75835e-09
-2.95327e-07
3.0792e-09
9.08134e-09
-3.25197e-07
3.80005e-09
1.12774e-08
-3.47467e-07
4.70745e-09
1.31392e-08
-3.64518e-07
5.84695e-09
1.4446e-08
-3.77807e-07
7.22695e-09
1.49923e-08
-3.88243e-07
8.83188e-09
1.45851e-08
-3.96388e-07
1.06102e-08
1.31009e-08
-4.0261e-07
1.24607e-08
1.0531e-08
-4.07187e-07
1.42373e-08
6.973e-09
-4.10317e-07
1.57681e-08
2.6664e-09
-4.12221e-07
1.69057e-08
-2.02758e-09
-4.1306e-07
1.74968e-08
-6.69562e-09
-4.12954e-07
1.74856e-08
-1.09273e-08
-4.11899e-07
1.68754e-08
-1.43576e-08
-4.09773e-07
1.5722e-08
-1.67515e-08
-4.06413e-07
1.41794e-08
-1.80022e-08
-4.01606e-07
1.24075e-08
-1.81307e-08
-3.95155e-07
1.05844e-08
-1.727e-08
-3.86784e-07
8.83659e-09
-1.5606e-08
-3.76142e-07
7.26626e-09
-1.33402e-08
-3.62697e-07
5.93155e-09
-1.07166e-08
-3.45543e-07
4.83738e-09
-7.94515e-09
-3.2327e-07
3.96981e-09
-5.25323e-09
-2.93506e-07
3.27739e-09
-2.84314e-09
-2.52187e-07
2.66886e-09
-9.61737e-10
-1.91494e-07
1.99058e-09
-9.34395e-08
9.68206e-10
-7.19022e-11
-9.37618e-08
-7.72893e-11
-2.17741e-10
-1.9225e-07
-2.10172e-10
-3.9266e-10
-2.53272e-07
-2.97843e-10
-5.39961e-10
-2.94857e-07
-3.23163e-10
-6.30341e-10
-3.24829e-07
-2.77055e-10
-6.45979e-10
-3.47299e-07
-1.52904e-10
-5.87202e-10
-3.64632e-07
5.54854e-11
-4.74214e-10
-3.78279e-07
3.59451e-10
-3.46269e-10
-3.8913e-07
7.58297e-10
-2.57694e-10
-3.97722e-07
1.24491e-09
-2.66893e-10
-4.04403e-07
1.8023e-09
-4.39526e-10
-4.0942e-07
2.40641e-09
-8.05369e-10
-4.12943e-07
2.9915e-09
-1.34526e-09
-4.15147e-07
3.46611e-09
-1.98424e-09
-4.16149e-07
3.72823e-09
-2.58786e-09
-4.16052e-07
3.7011e-09
-3.026e-09
-4.14852e-07
3.39096e-09
-3.22357e-09
-4.12449e-07
2.87403e-09
-3.17802e-09
-4.08726e-07
2.26737e-09
-2.91622e-09
-4.0352e-07
1.65283e-09
-2.52051e-09
-3.96648e-07
1.09736e-09
-2.04561e-09
-3.87891e-07
6.32655e-10
-1.55303e-09
-3.76902e-07
2.6669e-10
-1.10541e-09
-3.63147e-07
2.3208e-12
-7.13812e-10
-3.4577e-07
-1.64354e-10
-4.0726e-10
-3.23328e-07
-2.48699e-10
-1.80306e-10
-2.93473e-07
-2.60033e-10
-4.54269e-11
-2.52114e-07
-2.08467e-10
7.60055e-12
-1.91437e-07
-1.09577e-10
-9.34291e-08
-2.83885e-12
-1.03234e-09
-9.16917e-08
-1.03781e-09
-2.99349e-09
-1.88005e-07
-2.28368e-09
-5.42476e-09
-2.47705e-07
-3.13544e-09
-8.04614e-09
-2.88415e-07
-3.82077e-09
-1.06055e-08
-3.17803e-07
-4.46684e-09
-1.28896e-08
-3.39869e-07
-5.14608e-09
-1.46857e-08
-3.56933e-07
-5.90271e-09
-1.58123e-08
-3.70415e-07
-6.73715e-09
-1.61283e-08
-3.81187e-07
-7.62625e-09
-1.55535e-08
-3.89782e-07
-8.5143e-09
-1.40846e-08
-3.96539e-07
-9.33244e-09
-1.18059e-08
-4.01682e-07
-1.00172e-08
-8.88274e-09
-4.05356e-07
-1.05102e-08
-5.52324e-09
-4.07703e-07
-1.08039e-08
-1.94789e-09
-4.08789e-07
-1.0936e-08
1.66877e-09
-4.08698e-07
-1.09706e-08
5.14472e-09
-4.07419e-07
-1.09091e-08
8.26424e-09
-4.04886e-07
-1.06827e-08
1.07972e-08
-4.01028e-07
-1.02308e-08
1.25697e-08
-3.95725e-07
-9.56778e-09
1.34839e-08
-3.88813e-07
-8.74985e-09
1.35325e-08
-3.80095e-07
-7.84544e-09
1.27862e-08
-3.69229e-07
-6.92693e-09
1.13765e-08
-3.55683e-07
-6.05507e-09
9.47654e-09
-3.38612e-07
-5.2578e-09
7.27703e-09
-3.16591e-07
-4.53711e-09
4.97756e-09
-2.87323e-07
-3.85043e-09
2.80006e-09
-2.4681e-07
-3.1267e-09
9.93016e-10
-1.87388e-07
-2.24238e-09
-9.14469e-08
-9.89192e-10
-1.97543e-09
-8.77327e-08
-1.98353e-09
-5.71584e-09
-1.79946e-07
-4.31861e-09
-1.03632e-08
-2.37134e-07
-5.92361e-09
-1.54e-08
-2.76128e-07
-7.24987e-09
-2.0386e-08
-3.04246e-07
-8.57095e-09
-2.48912e-08
-3.25319e-07
-1.00441e-08
-2.8513e-08
-3.4157e-07
-1.17414e-08
-3.08697e-08
-3.54363e-07
-1.36958e-08
-3.16473e-08
-3.64544e-07
-1.58654e-08
-3.06348e-08
-3.72639e-07
-1.81556e-08
-2.7746e-08
-3.79002e-07
-2.04262e-08
-2.30868e-08
-3.83852e-07
-2.24885e-08
-1.69241e-08
-3.8735e-07
-2.41681e-08
-9.69228e-09
-3.896e-07
-2.5334e-08
-1.9116e-09
-3.90659e-07
-2.59103e-08
5.91505e-09
-3.90568e-07
-2.59567e-08
1.32772e-08
-3.89318e-07
-2.54637e-08
1.96512e-08
-3.86889e-07
-2.43714e-08
2.45884e-08
-3.83227e-07
-2.27384e-08
2.77969e-08
-3.78229e-07
-2.07048e-08
2.91683e-08
-3.71739e-07
-1.84453e-08
2.87652e-08
-3.63548e-07
-1.61431e-08
2.67877e-08
-3.53304e-07
-1.39475e-08
2.35464e-08
-3.40483e-07
-1.19584e-08
1.93992e-08
-3.24244e-07
-1.02214e-08
1.47498e-08
-3.03236e-07
-8.70558e-09
1.00003e-08
-2.75234e-07
-7.33961e-09
5.56701e-09
-2.3641e-07
-5.96598e-09
1.9546e-09
-1.7946e-07
-4.3147e-09
-8.75411e-08
-1.95115e-09
-2.85779e-09
-8.20094e-08
-2.86556e-09
-8.25465e-09
-1.68335e-07
-6.21424e-09
-1.49694e-08
-2.21905e-07
-8.51422e-09
-2.22602e-08
-2.584e-07
-1.04373e-08
-2.95014e-08
-2.84626e-07
-1.23787e-08
-3.60806e-08
-3.04164e-07
-1.45765e-08
-4.14095e-08
-3.19089e-07
-1.71518e-08
-4.49276e-08
-3.30701e-07
-2.01438e-08
-4.61634e-08
-3.39793e-07
-2.35153e-08
-4.47606e-08
-3.46909e-07
-2.71332e-08
-4.05752e-08
-3.52403e-07
-3.07841e-08
-3.37027e-08
-3.56528e-07
-3.41975e-08
-2.45181e-08
-3.59457e-07
-3.70779e-08
-1.36413e-08
-3.61321e-07
-3.91558e-08
-1.87121e-09
-3.62192e-07
-4.02378e-08
9.94744e-09
-3.62096e-07
-4.02906e-08
2.09653e-08
-3.61038e-07
-3.92971e-08
3.03663e-08
-3.58998e-07
-3.72919e-08
3.75217e-08
-3.55909e-07
-3.44727e-08
4.20396e-08
-3.51655e-07
-3.10916e-08
4.38056e-08
-3.46057e-07
-2.74479e-08
4.29496e-08
-3.3887e-07
-2.38219e-08
3.98079e-08
-3.29733e-07
-2.04286e-08
3.48511e-08
-3.18121e-07
-1.74048e-08
2.86197e-08
-3.03221e-07
-1.47913e-08
2.16898e-08
-2.83755e-07
-1.25516e-08
1.46613e-08
-2.57643e-07
-1.0563e-08
8.14262e-09
-2.21304e-07
-8.58753e-09
2.84622e-09
-1.67932e-07
-6.23258e-09
-8.18523e-08
-2.8426e-09
-3.63906e-09
-7.47236e-08
-3.64666e-09
-1.04994e-08
-1.5358e-07
-7.89452e-09
-1.90289e-08
-2.02571e-07
-1.08045e-08
-2.83035e-08
-2.35888e-07
-1.3238e-08
-3.75233e-08
-2.59706e-07
-1.57001e-08
-4.59229e-08
-2.7726e-07
-1.85041e-08
-5.27419e-08
-2.90456e-07
-2.18143e-08
-5.72763e-08
-3.00482e-07
-2.56846e-08
-5.89032e-08
-3.08108e-07
-3.00583e-08
-5.71647e-08
-3.13867e-07
-3.47808e-08
-5.18465e-08
-3.18127e-07
-3.95948e-08
-4.30401e-08
-3.2118e-07
-4.41537e-08
-3.12002e-08
-3.23248e-07
-4.80492e-08
-1.71091e-08
-3.24508e-07
-5.09043e-08
-1.82335e-09
-3.25069e-07
-5.24088e-08
1.35097e-08
-3.24974e-07
-5.24547e-08
2.7737e-08
-3.24229e-07
-5.10364e-08
3.98011e-08
-3.22805e-07
-4.82572e-08
4.88921e-08
-3.20583e-07
-4.44176e-08
5.45429e-08
-3.17412e-07
-3.98935e-08
5.66435e-08
-3.13063e-07
-3.50942e-08
5.53896e-08
-3.07248e-07
-3.03684e-08
5.1231e-08
-2.99597e-07
-2.59773e-08
4.47699e-08
-2.8958e-07
-2.20798e-08
3.6706e-08
-2.76423e-07
-1.87345e-08
2.77857e-08
-2.58945e-07
-1.58898e-08
1.87572e-08
-2.35234e-07
-1.33807e-08
1.0401e-08
-2.02055e-07
-1.08933e-08
3.63288e-09
-1.53239e-07
-7.92413e-09
-7.45907e-08
-3.62876e-09
-4.28099e-09
-6.61541e-08
-4.2886e-09
-1.2343e-08
-1.36248e-07
-9.27098e-09
-2.23669e-08
-1.79876e-07
-1.26708e-08
-3.32631e-08
-2.09481e-07
-1.55107e-08
-4.41026e-08
-2.30482e-07
-1.83851e-08
-5.39831e-08
-2.4573e-07
-2.16495e-08
-6.20138e-08
-2.56925e-07
-2.55006e-08
-6.73595e-08
-2.65132e-07
-3.00038e-08
-6.92853e-08
-2.71082e-07
-3.51004e-08
-6.72502e-08
-2.75276e-07
-4.06255e-08
-6.0988e-08
-2.78116e-07
-4.62733e-08
-5.0599e-08
-2.79929e-07
-5.16403e-08
-3.65968e-08
-2.80994e-07
-5.62556e-08
-1.99033e-08
-2.81542e-07
-5.96596e-08
-1.76739e-09
-2.81733e-07
-6.14714e-08
1.64155e-08
-2.81644e-07
-6.15131e-08
3.3246e-08
-2.81282e-07
-5.97773e-08
4.74597e-08
-2.80576e-07
-5.64424e-08
5.81294e-08
-2.79369e-07
-5.18838e-08
6.47178e-08
-2.77448e-07
-4.65527e-08
6.71076e-08
-2.74532e-07
-4.09217e-08
6.55467e-08
-2.7029e-07
-3.53971e-08
6.0568e-08
-2.64331e-07
-3.02876e-08
5.28857e-08
-2.56136e-07
-2.57617e-08
4.33309e-08
-2.44988e-07
-2.18796e-08
3.27761e-08
-2.29813e-07
-1.85774e-08
2.21137e-08
-2.08914e-07
-1.56577e-08
1.22569e-08
-1.79434e-07
-1.27641e-08
4.27728e-09
-1.35955e-07
-9.30425e-09
-6.60408e-08
-4.27256e-09
-4.75997e-09
-5.66271e-08
-4.76701e-09
-1.37145e-08
-1.17e-07
-1.02932e-08
-2.48414e-08
-1.54696e-07
-1.40534e-08
-3.69418e-08
-1.80207e-07
-1.71735e-08
-4.89831e-08
-1.98129e-07
-2.03117e-08
-5.99545e-08
-2.10892e-07
-2.38668e-08
-6.88712e-08
-2.19959e-07
-2.8049e-08
-7.47948e-08
-2.26284e-07
-3.29253e-08
-7.69155e-08
-2.30517e-07
-3.84447e-08
-7.46291e-08
-2.33149e-07
-4.44134e-08
-6.76471e-08
-2.34592e-07
-5.0506e-08
-5.60785e-08
-2.35195e-07
-5.63027e-08
-4.0491e-08
-2.35293e-07
-6.1289e-08
-2.19024e-08
-2.35158e-07
-6.49723e-08
-1.70261e-09
-2.34998e-07
-6.69344e-08
1.85409e-08
-2.34917e-07
-6.69707e-08
3.72593e-08
-2.34918e-07
-6.50827e-08
5.30508e-08
-2.34907e-07
-6.14604e-08
6.48913e-08
-2.34689e-07
-5.652e-08
7.21856e-08
-2.33985e-07
-5.07568e-08
7.4813e-08
-2.32477e-07
-4.46818e-08
7.30488e-08
-2.29809e-07
-3.87171e-08
6.74754e-08
-2.25568e-07
-3.31896e-08
5.88995e-08
-2.19266e-07
-2.82948e-08
4.82397e-08
-2.10242e-07
-2.40862e-08
3.64744e-08
-1.9755e-07
-2.04973e-08
2.45999e-08
-1.79725e-07
-1.73144e-08
1.36301e-08
-1.54322e-07
-1.41422e-08
4.75641e-09
-1.16756e-07
-1.03261e-08
-5.6533e-08
-4.75148e-09
-5.05411e-09
-4.65124e-08
-5.06062e-09
-1.45516e-08
-9.6588e-08
-1.09143e-08
-2.63595e-08
-1.28014e-07
-1.48743e-08
-3.92092e-08
-1.49219e-07
-1.81383e-08
-5.20083e-08
-1.63929e-07
-2.14002e-08
-6.36753e-08
-1.7415e-07
-2.50745e-08
-7.31451e-08
-1.81109e-07
-2.93805e-08
-7.94187e-08
-1.8562e-07
-3.43902e-08
-8.16359e-08
-1.88265e-07
-4.00346e-08
-7.91631e-08
-1.89507e-07
-4.61148e-08
-7.17074e-08
-1.89738e-07
-5.23092e-08
-5.93839e-08
-1.89334e-07
-5.81839e-08
-4.28152e-08
-1.88637e-07
-6.32252e-08
-2.30749e-08
-1.87953e-07
-6.69461e-08
-1.62775e-09
-1.87512e-07
-6.89333e-08
1.98608e-08
-1.87441e-07
-6.89645e-08
3.97224e-08
-1.87742e-07
-6.70378e-08
5.64872e-08
-1.88301e-07
-6.33707e-08
6.90591e-08
-1.88888e-07
-5.83727e-08
7.68164e-08
-1.89213e-07
-5.25296e-08
7.96154e-08
-1.88924e-07
-4.63526e-08
7.77395e-08
-1.87654e-07
-4.0279e-08
7.18044e-08
-1.85003e-07
-3.46299e-08
6.2659e-08
-1.80514e-07
-2.96059e-08
5.12948e-08
-1.736e-07
-2.52777e-08
3.87616e-08
-1.63443e-07
-2.15734e-08
2.61255e-08
-1.48814e-07
-1.82749e-08
1.44701e-08
-1.27705e-07
-1.49613e-08
5.04974e-09
-9.63909e-08
-1.09445e-08
-4.64382e-08
-5.04502e-09
-5.14336e-09
-3.62203e-08
-5.14869e-09
-1.48102e-08
-7.58264e-08
-1.10948e-08
-2.68541e-08
-1.00877e-07
-1.50929e-08
-3.99945e-08
-1.1772e-07
-1.8358e-08
-5.31089e-08
-1.29217e-07
-2.15976e-08
-6.50765e-08
-1.36952e-07
-2.52308e-08
-7.47897e-08
-1.41922e-07
-2.94738e-08
-8.12132e-08
-1.44803e-07
-3.43929e-08
-8.34589e-08
-1.46104e-07
-3.99147e-08
-8.0888e-08
-1.46234e-07
-4.58442e-08
-7.3213e-08
-1.45557e-07
-5.1856e-08
-6.05799e-08
-1.44432e-07
-5.75352e-08
-4.36237e-08
-1.43197e-07
-6.23961e-08
-2.34477e-08
-1.42155e-07
-6.59736e-08
-1.54161e-09
-1.41542e-07
-6.78762e-08
2.04028e-08
-1.41483e-07
-6.79025e-08
4.06919e-08
-1.4198e-07
-6.60512e-08
5.78278e-08
-1.42917e-07
-6.25204e-08
7.0699e-08
-1.44063e-07
-5.76968e-08
7.86538e-08
-1.45121e-07
-5.20468e-08
8.15326e-08
-1.4575e-07
-4.6052e-08
7.96068e-08
-1.45598e-07
-4.01301e-08
7.35084e-08
-1.44298e-07
-3.46064e-08
6.41033e-08
-1.41433e-07
-2.96766e-08
5.2423e-08
-1.36504e-07
-2.54158e-08
3.95602e-08
-1.28824e-07
-2.17563e-08
2.66261e-08
-1.17398e-07
-1.84814e-08
1.47302e-08
-1.00637e-07
-1.51715e-08
5.13716e-09
-7.56759e-08
-1.1122e-08
-3.61675e-08
-5.13357e-09
-5.00491e-09
-2.62051e-08
-5.01033e-09
-1.44432e-08
-5.56055e-08
-1.07826e-08
-2.62601e-08
-7.44247e-08
-1.46357e-08
-3.92311e-08
-8.70001e-08
-1.77494e-08
-5.22371e-08
-9.53927e-08
-2.08187e-08
-6.4143e-08
-1.00789e-07
-2.42565e-08
-7.38249e-08
-1.03968e-07
-2.82725e-08
-8.0225e-08
-1.05481e-07
-3.29225e-08
-8.24645e-08
-1.05734e-07
-3.8131e-08
-7.99115e-08
-1.0508e-07
-4.37067e-08
-7.2295e-08
-1.03834e-07
-4.93397e-08
-5.97791e-08
-1.02311e-07
-5.46371e-08
-4.30069e-08
-1.00818e-07
-5.9151e-08
-2.30724e-08
-9.96261e-08
-6.24634e-08
-1.44093e-09
-9.8949e-08
-6.42247e-08
2.0226e-08
-9.89025e-08
-6.42471e-08
4.02644e-08
-9.9489e-08
-6.25292e-08
5.72041e-08
-1.00601e-07
-5.92558e-08
6.99385e-08
-1.02025e-07
-5.47725e-08
7.78122e-08
-1.03493e-07
-4.95015e-08
8.06518e-08
-1.04703e-07
-4.38875e-08
7.87147e-08
-1.05341e-07
-3.83203e-08
7.26137e-08
-1.05085e-07
-3.3112e-08
6.32261e-08
-1.03591e-07
-2.8454e-08
5.15894e-08
-1.00444e-07
-2.44234e-08
3.88203e-08
-9.50928e-08
-2.09623e-08
2.60441e-08
-8.67597e-08
-1.78622e-08
1.4364e-08
-7.42494e-08
-1.47079e-08
4.99836e-09
-5.55024e-08
-1.08079e-08
-2.61725e-08
-4.99663e-09
-4.60923e-09
-1.69823e-08
-4.61356e-09
-1.33846e-08
-3.69196e-08
-9.91046e-09
-2.45069e-08
-4.99009e-08
-1.34015e-08
-3.68531e-08
-5.84674e-08
-1.61865e-08
-4.93406e-08
-6.39802e-08
-1.8925e-08
-6.08413e-08
-6.72776e-08
-2.20109e-08
-7.02296e-08
-6.89371e-08
-2.56423e-08
-7.64685e-08
-6.93744e-08
-2.98675e-08
-7.86879e-08
-6.89068e-08
-3.46077e-08
-7.62869e-08
-6.78041e-08
-3.96773e-08
-6.90168e-08
-6.63177e-08
-4.47866e-08
-5.70531e-08
-6.47e-08
-4.95748e-08
-4.10222e-08
-6.32009e-08
-5.36479e-08
-2.19786e-08
-6.20409e-08
-5.66289e-08
-1.3208e-09
-6.13969e-08
-5.82099e-08
1.93689e-08
-6.13633e-08
-5.82289e-08
3.85067e-08
-6.19419e-08
-5.66849e-08
5.46885e-08
-6.30424e-08
-5.37402e-08
6.6852e-08
-6.44918e-08
-4.96965e-08
7.43572e-08
-6.60701e-08
-4.49285e-08
7.70207e-08
-6.75317e-08
-3.98345e-08
7.50752e-08
-6.86216e-08
-3.47735e-08
6.91152e-08
-6.9091e-08
-3.00345e-08
5.99946e-08
-6.86666e-08
-2.58038e-08
4.87426e-08
-6.70321e-08
-2.21602e-08
3.64746e-08
-6.37701e-08
-1.90547e-08
2.43064e-08
-5.83024e-08
-1.62892e-08
1.33114e-08
-4.97862e-08
-1.34682e-08
4.60188e-09
-3.68579e-08
-9.9351e-09
-1.6968e-08
-4.60262e-09
-3.91343e-09
-9.15171e-09
-3.91722e-09
-1.15654e-08