/*--------------------------------*- C++ -*----------------------------------*\
| =========                 |                                                 |
| \\      /  F ield         | OpenFOAM: The Open Source CFD Toolbox           |
|  \\    /   O peration     | Version:  v1912                                 |
|   \\  /    A nd           | Website:  www.openfoam.com                      |
|    \\/     M anipulation  |                                                 |
\*---------------------------------------------------------------------------*/
FoamFile
{
    version     2.0;
    format      ascii;
    class       volScalarField;
    location    "48/oil";
    object      heatTransferCoeff(T);
}
// * * * * * * * * * * * * * * * * * * * * * * * * * * * * * * * * * * * * * //

dimensions      [1 0 -3 -1 0 0 0];


internalField   uniform 0;

boundaryField
{
    maxY
    {
        type            calculated;
        value           uniform 0;
    }
    minX
    {
        type            calculated;
        value           uniform 0;
    }
    maxX
    {
        type            calculated;
        value           uniform 0;
    }
    minY
    {
        type            calculated;
        value           uniform 0;
    }
    minZ
    {
        type            calculated;
        value           uniform 0;
    }
    maxZ
    {
        type            calculated;
        value           uniform 0;
    }
    oil_to_sphere
    {
        type            calculated;
        value           nonuniform List<scalar> 
1536
(
-125.701
-124.587
-124.742
-122.292
-121.892
-124.362
-123.572
-123.69
-123.547
-122.3
-121.616
-122.379
-123.479
-122.622
-121.006
-123.313
-124.43
-124.802
-123.217
-123.454
-124.05
-123.499
-123.683
-123.308
-123.469
-123.369
-123.34
-123.141
-124.489
-123.708
-124.826
-124.543
-124.652
-123.204
-123.32
-123.058
-123.08
-122.701
-123.027
-123.262
-122.936
-123.175
-123.519
-123.896
-124.224
-123.25
-124.573
-124.158
-120.9
-123.448
-123.954
-123.607
-124.096
-123.193
-124.433
-125.329
-123.589
-123.471
-124.115
-123.838
-123.565
-123.439
-123.601
-123.191
-123.392
-123.481
-123.434
-124.044
-123.908
-124.309
-123.187
-122.485
-122.653
-123.385
-123.305
-125.362
-124.619
-123.062
-123.323
-124.848
-124.06
-124.032
-122.023
-121.936
-124.472
-125.599
-122.105
-123.333
-123.908
-123.863
-123.803
-123.078
-123.126
-123.146
-123.355
-123.844
-124.315
-124.319
-124.644
-123.831
-124.109
-123.145
-125.854
-124.043
-122.633
-123.331
-123.343
-122.439
-122.549
-126.016
-124.577
-123.807
-123.449
-123.802
-121.928
-122.313
-121.815
-125.111
-125.714
-124.757
-123.627
-123.782
-123.016
-124.25
-124.731
-124.257
-123.496
-122.91
-124.316
-123.925
-123.524
-123.897
-124.382
-123.241
-123.412
-124.288
-123.777
-124.897
-122.965
-124.428
-123.506
-123.96
-123.951
-123.519
-123.336
-123.507
-123.571
-126.433
-124.973
-125.889
-124.159
-125.909
-123.559
-123.679
-123.009
-124.878
-124.105
-125.307
-126.413
-126.351
-124.563
-126.725
-122.189
-122.424
-123.103
-122.977
-124.095
-125.656
-124.362
-126.116
-123.316
-123.418
-123.189
-124.477
-124.345
-124.198
-125.496
-124.478
-125.191
-125.492
-122.692
-122.335
-122.401
-122.459
-125.268
-125.664
-126.407
-123.229
-123.014
-124.804
-123.165
-124.584
-124.392
-124.948
-122.398
-121.122
-124.994
-125.059
-124.293
-123.146
-123.702
-123.47
-124.947
-125.021
-124.28
-124.082
-123.759
-125.362
-124.813
-125.188
-122.831
-123.36
-123.318
-124.14
-124.581
-125.629
-124.541
-122.57
-122.539
-121.146
-124.668
-124.385
-123.981
-123.808
-123.94
-125.594
-124.653
-124.092
-124.736
-122.509
-123.142
-121.355
-123.352
-125.232
-125.001
-125.06
-124.495
-124.196
-124.634
-122.465
-122.587
-124.629
-124.981
-122.981
-121.801
-121.712
-124.257
-125.21
-126.029
-127.503
-123.877
-122.132
-121.036
-123.842
-125.984
-123.123
-123.163
-121.663
-123.073
-125.539
-125.904
-124.129
-123.287
-125.03
-126.738
-123.277
-121.961
-124.206
-125.661
-125.311
-124.206
-124.448
-124.911
-122.567
-123.169
-125.045
-124.449
-125.678
-123.641
-124.852
-125.64
-124.495
-124.36
-125.124
-123.423
-123.281
-123.669
-122.79
-123.074
-125.013
-125.542
-124.811
-123.445
-123.408
-123.631
-123.252
-124.127
-123.794
-122.881
-121.813
-122.996
-122.372
-122.874
-125.733
-125.181
-125.257
-127.791
-122.284
-122.38
-124.871
-125.797
-127.119
-123.329
-123.781
-123.213
-124.422
-123.35
-124.283
-124.391
-125.011
-124.344
-123.675
-124.58
-122.903
-124.976
-125.159
-124.574
-124.57
-122.608
-125.734
-126.126
-125.181
-122.29
-123.441
-123.853
-124.427
-124.28
-124.219
-122.595
-124.967
-126.271
-124.786
-125.23
-123.978
-124.011
-123.733
-122.691
-124.282
-124.613
-122.599
-122.421
-122.663
-125.974
-125.156
-125.371
-124.09
-124.088
-125.503
-122.468
-125.753
-124.86
-123.903
-124.02
-122.503
-125.313
-125.083
-122.814
-123.859
-123.577
-123.377
-124.536
-124.941
-123.535
-123.498
-122.514
-125.587
-124.93
-122.518
-125.574
-125.629
-124.739
-125.507
-123.861
-124.573
-122.74
-122.211
-124.472
-127.259
-124.849
-126.443
-124.375
-123.506
-124.652
-122.987
-123.67
-124.722
-124.919
-124.574
-124
-123.134
-122.538
-125.121
-126.221
-124.955
-124.079
-123.373
-124.257
-124.517
-124.716
-124.093
-123.676
-123.233
-123.917
-123.047
-122.474
-123.139
-123.131
-123.826
-122.123
-123.432
-126.356
-123.42
-123.407
-125.011
-124.874
-124.33
-123.614
-122.407
-124.812
-125.208
-124.373
-124.281
-124.578
-123.941
-123.862
-124.106
-122.064
-125.21
-126.164
-125.454
-124.821
-124.69
-124.297
-124.046
-123.777
-122.955
-123.854
-122.92
-122.476
-122.956
-122.235
-125.781
-125.657
-125.042
-127.327
-124.363
-125.659
-122.482
-122.66
-124.393
-124.661
-122.501
-123.433
-123.094
-125.724
-125.404
-124.079
-124.279
-125.583
-125.179
-123.986
-124.581
-122.722
-124.866
-122.152
-125.475
-122.024
-125.06
-125.021
-124.945
-123.648
-122.495
-123.493
-124.937
-123.55
-122.155
-125.192
-125.039
-126.311
-125.966
-125.274
-125.128
-122.263
-122.449
-121.109
-121.366
-123.685
-123.2
-123.2
-123.031
-125.661
-124.551
-122.133
-121.881
-124.337
-123.602
-126.503
-123.203
-123.236
-124.047
-121.57
-121.493
-123.129
-123.107
-123.369
-123.412
-125.011
-124.83
-124.313
-123.96
-122.149
-123.325
-125.214
-122.882
-122.735
-124.621
-125.429
-122.946
-121.717
-122.592
-121.714
-123.693
-123.509
-123.203
-122.489
-121.021
-124.819
-124.793
-124.126
-124.006
-125.743
-124.767
-124.211
-124.172
-122.596
-123.146
-125.07
-124.487
-123.406
-121.587
-123.954
-125.996
-125.768
-124.007
-124.524
-125.332
-125.145
-125.089
-122.604
-122.984
-122.433
-123.34
-123.725
-125.14
-126.291
-122.626
-122.539
-124.791
-126.125
-123.485
-123.244
-122.135
-124.567
-123.741
-125.285
-125.464
-123.911
-122.167
-125.671
-126.258
-121.777
-126.216
-125.503
-124.891
-125.905
-124.529
-124.27
-124.03
-125.721
-124.117
-124.296
-124.001
-124.739
-124.208
-123.895
-123.878
-122.411
-124.678
-124.618
-124.812
-124.778
-124.934
-124.498
-124.203
-122.338
-125.286
-125.42
-124.548
-123.882
-124.212
-125.956
-124.05
-122.542
-122.269
-125.094
-124.619
-125.865
-123.588
-123.762
-124.315
-121.473
-121.107
-123.179
-123.119
-123.628
-122.368
-122.636
-125.413
-124.267
-125.376
-124.392
-125.667
-125.289
-125.11
-122.994
-121.176
-120.962
-123.346
-124.818
-123.464
-123.242
-121.525
-123.628
-125.49
-123.598
-127.666
-122.817
-124.97
-125.732
-124.58
-125.422
-125.714
-125.003
-124.174
-123.838
-123.901
-124.744
-123.707
-124.102
-124.349
-124.213
-124.914
-124.54
-124.796
-122.839
-122.906
-121.16
-121.508
-122.344
-120.421
-123.47
-123.437
-123.666
-123.947
-122.325
-122.445
-123.416
-125.353
-125.738
-123.412
-122.171
-123.589
-125.108
-125.346
-123.723
-122.33
-122.804
-124.518
-124.634
-123.716
-123.561
-124.602
-124.839
-125.603
-124.663
-124.012
-123.42
-122.585
-122.205
-124.654
-124.92
-125.956
-123.65
-126.037
-124.696
-126.305
-123.288
-123.636
-122.795
-123.086
-123.362
-122.795
-123.676
-122.122
-123.203
-125.37
-123.458
-122.615
-125.817
-124.757
-124.13
-124.003
-126.56
-127.232
-121.798
-124.529
-124.863
-124.345
-122.927
-123.859
-123.261
-124.433
-125.427
-124.925
-122.797
-124.621
-124.243
-124.481
-124.507
-124.097
-123.768
-123.881
-123.449
-122.31
-122.187
-122.71
-125.309
-123.255
-122.337
-123.26
-125.194
-123.553
-125.481
-125.083
-124.428
-124.028
-124.527
-125.647
-122.686
-124.4
-125.485
-125.194
-124.181
-123.09
-123.818
-124.617
-125.259
-122.758
-123.884
-124.274
-125.092
-124.16
-124.826
-125.501
-122.695
-123.224
-123.068
-125.776
-125.007
-123.853
-125.124
-123.132
-123.374
-125.114
-125.062
-125.436
-122.645
-124.777
-125.064
-123.964
-124.41
-124.783
-123.031
-121.999
-123.818
-124.936
-126.493
-123.751
-123.424
-123.791
-124.326
-124.845
-123.818
-123.229
-123.698
-124.915
-123.675
-122.785
-123.575
-123.177
-124.15
-123.998
-125.176
-124.504
-124.681
-123.375
-123.964
-124.128
-123.706
-123.491
-123.474
-123.327
-122.811
-124.592
-124.119
-123.946
-124.512
-122.123
-123.367
-125.832
-125.702
-123.083
-125.129
-124.337
-124.357
-123.525
-125.35
-125.037
-122.523
-123.476
-123.391
-123.405
-122.565
-122.381
-123.362
-125.262
-126.994
-123.226
-124.839
-124.58
-124.2
-123.7
-124.137
-125.286
-124.97
-122.606
-123.38
-123.314
-123.764
-124.409
-125.015
-124.65
-124.617
-124.895
-123.316
-124.581
-123.486
-124.832
-121.124
-124.554
-125.152
-123.492
-121.833
-124.472
-124.081
-125.628
-123.13
-124.597
-123.992
-122.021
-125.893
-122.679
-123.714
-123.709
-122.311
-125.201
-123.925
-123.851
-124.67
-123.935
-123.474
-125.587
-122.884
-123.408
-121.292
-124.889
-123.323
-123.747
-125.191
-126.968
-122.624
-123.572
-126.369
-122.767
-124.625
-123.197
-124.371
-122.242
-123.31
-126.323
-121.943
-126.898
-122.089
-125.732
-122.441
-123.098
-121.9
-123.256
-126.117
-121.633
-124.525
-122.052
-126.147
-126.109
-121.76
-124.644
-122.797
-122.557
-122.4
-123.181
-123.736
-123.809
-124.234
-123.654
-125.647
-126.4
-121.833
-125.029
-124.006
-123.688
-123.85
-123.701
-123.889
-123.651
-124.757
-123.863
-124.639
-123.488
-124.245
-125.281
-123.409
-124.174
-124.941
-123.373
-124.252
-123.878
-124.28
-123.632
-124.162
-123.529
-124.84
-123.408
-124.039
-122.229
-126.036
-121.699
-125.276
-125.126
-125.285
-123.066
-123.917
-123.567
-123.736
-124.386
-123.943
-124.801
-122.878
-120.98
-125.694
-121.906
-125.473
-123.172
-123.823
-125.761
-120.921
-126.946
-123.649
-121.585
-124.067
-124.482
-124.326
-124.108
-121.422
-124.365
-124.505
-123.219
-123.076
-125.431
-125.318
-123.518
-123.68
-125.422
-121.593
-125.416
-123.103
-124.337
-121.733
-127.422
-125.784
-124.806
-124.169
-124.131
-124.974
-123.936
-121.406
-122.762
-124.547
-123.143
-125.283
-121.736
-125.533
-124.982
-120.123
-124.423
-124.228
-121.047
-126.672
-122.123
-125.364
-125.956
-125.019
-120.956
-124.091
-123.706
-124.353
-124.247
-124.797
-121.468
-123.796
-123.005
-123.072
-125.572
-124.036
-125.09
-124.311
-124.405
-123.689
-123.933
-123.763
-124.031
-125.081
-123.32
-123.658
-123.176
-124.501
-125.152
-123.37
-123.447
-123.344
-124.007
-123.107
-123.083
-123.523
-123.622
-123.94
-124.014
-125.394
-125.158
-121.678
-122.32
-126.055
-120.265
-124.489
-124.536
-123.316
-123.738
-126.562
-121.137
-124.903
-124.862
-121.128
-123.532
-123.535
-124.658
-120.975
-125.142
-125.397
-120.749
-124.979
-125.586
-121.447
-125.251
-125.341
-121.498
-123.388
-123.22
-121.238
-123.845
-124.032
-123.455
-123.054
-124.142
-120.918
-122.864
-122.38
-120.94
-125.057
-122.799
-126
-123.876
-121.408
-124.937
-124.77
-121.159
-123.432
-123.474
-121.138
-122.086
-126.906
-119.931
-122.824
-124.32
-120.763
-125.158
-124.815
-123.854
-123.415
-123.625
-122.681
-120.745
-123.877
-123.306
-123.479
-123.869
-121.15
-125.219
-123.233
-123.724
-123.026
-123.645
-123.936
-122.823
-121.315
-123.604
-125.081
-123.156
-123.521
-123.969
-123.033
-123.642
-121.32
-123.673
-125.365
-123.041
-123.739
-123.072
-121.455
-125.992
-126.184
-125.024
-125.975
-121.391
-120.936
-123.942
-125.801
-124.012
-124.599
-124.808
-122.803
-122.404
-121.862
-122.36
-122.847
-123.73
-123.637
-123.578
-122.767
-124.843
-124.498
-121.506
-122.47
-122.798
-124.761
-122.96
-120.924
-125.499
-123.719
-124.946
-121.107
-123.892
-124.883
-123.362
-123.56
-124.637
-123.765
-122.665
-125.643
-120.349
-123.762
-124.535
-123.108
-123.389
-125.614
-124.681
-124.203
-122.519
-125.366
-123.538
-123.99
-124.764
-125.023
-124.859
-125.005
-125.655
-125.813
-125.4
-125.401
-125.18
-124.96
-123.285
-123.675
-123.005
-122.168
-120.642
-125.643
-125.522
-125.094
-123.48
-123.955
-123.895
-123.085
-124.152
-124.855
-122.866
-123.689
-124.549
-123.486
-123.335
-123.194
-123.478
-122.88
-123.405
-123.329
-121.683
-124.85
-123.032
-123.633
-120.983
-126.211
-123.746
-123.098
-122.924
-121.772
-123.983
-123.163
-121.108
-122.829
-123.641
-122.43
-122.314
-125.728
-125.951
-123.418
-123.387
-124.764
-125.46
-121.025
-124.027
-122.978
-123.357
-123.394
-123.483
-123.69
-122.628
-121.195
-125.798
-123.407
-122.358
-122.582
-123.254
-123.853
-121.902
-124.438
-123.39
-123.265
-125.466
-122.465
-121.506
-123.61
-123.229
-123.072
-121.257
-125.368
-123.473
-123.158
-123.317
-121.082
-123.739
-123.384
-121.585
-123.657
-122.774
-124.258
-125.031
-123.301
-124.689
-124.021
-123.122
-123.063
-123.429
-121.369
-124.736
-124.98
-123.247
-121.245
-122.807
-123.62
-123.676
-123.185
-121.309
-123.273
-124.917
-124.39
-123.511
-125.732
-122.199
-125.472
-121.024
-122.298
-125.711
-121.338
-125.013
-123.833
-123.848
-123.306
-126.185
-122.538
-123.775
-125.26
-125.69
-121.563
-125.173
-125.563
-120.417
-125.297
-123.081
-121.057
-125.701
-123.047
-123.209
-123.227
-123.68
-123.513
-123.204
-123.21
-120.906
-125.263
-124.096
-123.761
-123.896
-123.442
-123.047
-122.806
-125.62
-120.778
-122.919
-124.365
-121.249
-125.025
-125.464
-124.988
-125.205
-125.719
-122.583
-125.1
-124.337
-125.203
-123.026
-124.588
-122.599
-121.508
-125.369
-122.401
-124.905
-126.075
-125.394
-121.137
-125.431
-124.57
-122.956
-123.201
-123.471
-123.141
-121.159
-126.091
-121.145
-126.057
-123.429
-122.63
-123.355
-124.351
-124.43
-125.889
-123.703
-125.708
-125.27
-124.868
-122.01
-124.991
-124.56
-125.113
-123.143
-122.875
-121.123
-123.565
-125.675
-125.525
-121.013
-122.647
-122.046
-123.109
-123.631
-122.472
-127.018
-123.291
-122.547
-121.202
-124.441
-123.004
-120.524
-124.123
-123.236
-123.093
-123.226
-123.249
-121.251
-122.317
-121.059
-123.576
-125.657
-124.302
-125.432
-125.222
-122.931
-122.622
-121.248
-122.671
-125.317
-125.171
-125.228
-124.752
-122.296
-121.316
-122.56
-120.99
-124.802
-125.037
-122.741
-124.764
-125.159
-125.058
-124.997
-123.875
-123.796
-122.924
-120.666
-122.78
-121.44
-123.172
-123.224
-123.155
-121.533
-121.165
-124.486
-125.556
-126.135
-125.444
-123.775
-124.229
-124.236
-123.945
-123.322
-123.725
-122.788
-123.495
-123.499
-121.076
-125.524
-123.532
-122.705
-121.581
-123.567
-123.695
-123.674
-123.221
-121.609
-125.459
-124.153
-123.191
-125.654
-122.737
-121.024
-125.2
-123.682
-123.524
-123.454
-123.097
-120.515
-124.632
-123.464
-121.175
-126.222
-123.423
-120.333
-123.207
-123.597
-123.696
-123.048
-121.209
-123.071
-123.15
-121.987
-123.448
-121.037
-123.635
-123.572
-121.757
-126.298
-123.423
-121.627
-127.04
-123.634
-123.684
-121.514
-123.516
-121.228
)
;
    }
}


// ************************************************************************* //
