/*--------------------------------*- C++ -*----------------------------------*\
| =========                 |                                                 |
| \\      /  F ield         | OpenFOAM: The Open Source CFD Toolbox           |
|  \\    /   O peration     | Version:  v1912                                 |
|   \\  /    A nd           | Website:  www.openfoam.com                      |
|    \\/     M anipulation  |                                                 |
\*---------------------------------------------------------------------------*/
FoamFile
{
    version     2.0;
    format      ascii;
    class       volScalarField;
    location    "120/oil";
    object      heatTransferCoeff(T);
}
// * * * * * * * * * * * * * * * * * * * * * * * * * * * * * * * * * * * * * //

dimensions      [1 0 -3 -1 0 0 0];


internalField   uniform 0;

boundaryField
{
    maxY
    {
        type            calculated;
        value           uniform 0;
    }
    minX
    {
        type            calculated;
        value           uniform 0;
    }
    maxX
    {
        type            calculated;
        value           uniform 0;
    }
    minY
    {
        type            calculated;
        value           uniform 0;
    }
    minZ
    {
        type            calculated;
        value           uniform 0;
    }
    maxZ
    {
        type            calculated;
        value           uniform 0;
    }
    oil_to_sphere
    {
        type            calculated;
        value           nonuniform List<scalar> 
1536
(
-99.3039
-97.0337
-97.1162
-92.6661
-92.3015
-96.7965
-95.0449
-95.6124
-95.3333
-92.8999
-91.3319
-93.1561
-95.2569
-93.3932
-90.538
-94.694
-96.85
-97.2295
-94.5454
-95.1631
-96.2179
-95.3198
-95.5587
-94.6748
-94.935
-94.7901
-94.8335
-94.3736
-96.8073
-95.524
-97.4903
-97.011
-97.1423
-94.6267
-94.7981
-94.3241
-94.4731
-93.7662
-94.2761
-94.7672
-94.1496
-94.5378
-95.2637
-95.8398
-96.4387
-94.7406
-96.5804
-95.8948
-90.5697
-94.8421
-96.012
-95.399
-95.8199
-94.5866
-96.7189
-98.3732
-95.4734
-95.1791
-96.2432
-95.9017
-95.2618
-95.2116
-95.2608
-94.547
-94.8386
-95.1358
-95.1434
-96.1116
-95.9981
-96.6194
-94.5363
-92.7463
-93.335
-94.8059
-94.738
-98.493
-97.1357
-94.0512
-94.7053
-97.2144
-96.2442
-96.0111
-92.4745
-92.371
-96.7881
-98.9502
-92.1679
-94.9472
-95.957
-95.9153
-95.5244
-94.3868
-94.3993
-94.4793
-94.7746
-95.7885
-96.4043
-96.5064
-97.2591
-95.859
-96.291
-94.4846
-99.4422
-96.0908
-93.2577
-94.7311
-94.8563
-92.8779
-92.947
-99.6008
-97.0899
-95.6936
-95.2084
-95.6516
-92.1989
-92.6274
-91.8318
-97.9465
-99.1806
-97.3044
-95.4564
-95.6369
-94.2517
-96.3382
-97.4024
-96.1082
-95.3473
-94.0773
-96.4758
-96.0951
-95.1742
-96.0167
-96.6621
-94.7961
-95.014
-96.6759
-95.6412
-97.2629
-94.1457
-96.8641
-95.3157
-96.1049
-96.1128
-95.2833
-94.9806
-95.2426
-95.6085
-98.884
-96.1999
-99.5281
-96.448
-97.9783
-95.4499
-95.619
-94.5218
-96.5787
-96.5285
-97.108
-100.157
-98.5437
-97.0746
-99.1716
-93.1736
-93.5782
-94.4246
-94.3059
-96.4448
-98.2335
-97.0453
-98.9723
-94.5
-94.6658
-94.1605
-96.5303
-95.9897
-96.0115
-98.7484
-94.9791
-95.183
-98.869
-94.0607
-93.5317
-93.5265
-93.7051
-96.9755
-99.0017
-98.596
-94.3672
-93.7498
-97.2082
-93.9565
-96.7959
-96.6537
-97.7089
-93.1539
-90.3161
-97.6889
-97.9353
-95.5548
-94.6095
-95.4767
-94.9846
-97.3375
-97.6925
-96.504
-96.0531
-94.9325
-98.0642
-97.397
-96.739
-94.0168
-94.8135
-94.7246
-95.5088
-96.6336
-98.6459
-94.8978
-93.3301
-93.3507
-90.1401
-97.0243
-96.4691
-95.9626
-95.5437
-95.7046
-98.2417
-96.8375
-95.3416
-97.0833
-93.0691
-94.3921
-90.5556
-95.1518
-97.36
-97.7016
-97.5976
-96.901
-96.3758
-97.207
-93.1928
-93.4901
-95.2071
-97.9097
-94.0566
-90.866
-91.807
-96.3848
-96.4994
-99.1751
-100.931
-95.734
-92.5154
-90.0954
-95.9003
-98.2407
-94.4661
-94.5397
-91.9346
-94.3748
-98.1957
-99.2364
-95.6592
-94.6292
-98.0746
-98.8538
-94.7382
-92.7643
-95.6136
-98.716
-98.1112
-96.3871
-96.7001
-97.5738
-93.6518
-94.6014
-97.75
-96.6988
-97.8274
-95.3552
-97.173
-98.6144
-96.6519
-96.4335
-98.0696
-94.7029
-94.5779
-94.9945
-94.0972
-94.3954
-97.7769
-98.6709
-94.9747
-94.9979
-94.8943
-95.1166
-94.3812
-95.847
-95.4562
-93.95
-92.0674
-94.3004
-93.1674
-94.0861
-99.058
-98.1469
-98.1764
-101.01
-93.3469
-93.5233
-96.3506
-99.4642
-100.141
-94.5352
-95.4717
-94.3732
-96.651
-94.7053
-96.3663
-96.5668
-97.4373
-96.6612
-95.0673
-96.8895
-94.2146
-97.6304
-97.9533
-97.0103
-96.8906
-93.7827
-98.854
-99.0844
-97.1886
-93.0399
-94.7007
-95.2642
-96.5994
-96.3479
-96.5143
-93.7269
-97.6006
-98.6109
-97.2818
-98.1484
-96.0739
-95.9203
-95.3757
-93.566
-96.1317
-96.7677
-93.4837
-93.2472
-93.6836
-99.4423
-97.7124
-98.2541
-96.1913
-95.9528
-98.1138
-93.317
-98.9664
-97.3224
-95.8427
-95.9008
-93.2504
-97.6467
-97.6248
-93.9916
-95.814
-95.2259
-94.7026
-96.7408
-97.5575
-95.2743
-94.8963
-93.5319
-98.6175
-97.6066
-93.3067
-98.1807
-98.021
-97.0784
-98.5532
-95.7927
-96.843
-93.1985
-93.0249
-96.6206
-100.551
-97.2241
-99.4751
-96.386
-94.9861
-97.2568
-93.9185
-94.7126
-96.6851
-97.5149
-96.7906
-96.1394
-94.0889
-93.6478
-97.8135
-98.5513
-97.6293
-95.924
-94.6079
-96.3725
-96.8536
-97.3447
-96.0176
-95.209
-94.2599
-95.76
-93.8953
-92.9083
-94.4665
-94.1974
-95.7139
-92.7779
-94.9477
-99.3229
-94.9061
-94.8791
-97.5677
-97.4472
-96.5579
-95.2589
-93.3234
-97.1821
-98.1492
-96.519
-96.175
-97.0611
-95.5981
-95.689
-96.179
-92.491
-97.1273
-98.5325
-98.3024
-97.3694
-96.9486
-96.5923
-95.9961
-95.3182
-93.8969
-95.6196
-94.026
-93.235
-94.1823
-92.7203
-99.1379
-98.8481
-97.8738
-100.511
-94.9092
-99.063
-93.6294
-94.0441
-96.8142
-95.0308
-93.6003
-94.966
-94.6633
-98.9475
-98.3032
-96.1624
-96.4145
-98.5885
-97.8658
-95.935
-96.8902
-93.9568
-97.4779
-92.9345
-98.302
-92.4485
-97.1864
-97.333
-97.4618
-95.0388
-93.5355
-95.1402
-97.5004
-95.2499
-92.835
-97.712
-97.7107
-98.8345
-99.6825
-96.8902
-98.1989
-93.3183
-93.638
-90.79
-91.5488
-95.7017
-94.7856
-94.6003
-94.24
-99.1652
-95.1537
-93.0667
-92.6775
-95.6427
-93.8752
-100.206
-94.3066
-94.4374
-95.7741
-91.333
-91.7802
-94.4691
-94.4151
-95.1509
-94.8266
-97.6796
-97.3682
-96.6109
-95.901
-92.6955
-94.688
-97.6053
-93.8377
-93.9373
-97.0393
-98.514
-94.1182
-91.2346
-93.4912
-91.4009
-95.4749
-94.9367
-94.4163
-93.1793
-90.9112
-96.9577
-97.1383
-96.2407
-95.6861
-98.7895
-96.9639
-96.4416
-96.0187
-93.7633
-94.6033
-97.7178
-96.7454
-94.9846
-91.6651
-95.9497
-98.134
-98.8892
-96.0383
-95.5084
-98.5714
-96.6019
-98.1888
-93.8529
-94.5416
-93.5381
-94.8445
-95.8008
-98.2987
-96.3555
-93.9663
-93.7119
-95.9862
-99.9649
-93.9303
-94.6575
-93.0491
-96.1688
-95.8061
-97.8934
-98.5812
-94.0183
-92.9543
-98.7155
-99.3299
-92.1361
-99.0338
-98.132
-97.2513
-98.3872
-96.6799
-96.0275
-95.9249
-98.7049
-96.0266
-96.5309
-95.8191
-97.3684
-96.1964
-95.632
-95.5209
-93.3535
-97.0873
-96.1371
-97.3994
-97.0071
-97.1548
-96.7481
-96.1029
-93.1205
-97.9239
-98.0142
-96.7409
-95.6065
-96.2304
-99.5076
-94.1848
-93.7805
-93.2982
-96.7998
-95.3988
-99.4545
-95.0369
-95.3144
-96.0071
-91.0955
-91.0545
-94.5509
-94.4771
-95.6156
-93.488
-93.9501
-97.081
-95.2194
-98.5263
-94.8345
-99.2167
-96.2908
-96.7751
-91.7621
-91.0521
-90.6584
-94.5265
-97.1998
-94.8177
-94.4517
-91.2772
-95.5622
-97.7777
-95.5664
-101.474
-94.0168
-97.6439
-97.5945
-97.0704
-98.1095
-98.2703
-97.3747
-95.8722
-95.3305
-95.6495
-97.1946
-95.3303
-96.2407
-96.2778
-96.2965
-97.4461
-96.7877
-97.1691
-93.6473
-94.0219
-90.3066
-91.835
-92.7731
-88.9137
-94.7233
-94.8489
-95.3025
-95.6661
-92.7923
-93.4052
-94.988
-98.1518
-98.2794
-94.9584
-92.8818
-95.3351
-97.5503
-97.323
-95.5701
-92.9004
-94.007
-96.7392
-96.5486
-95.5392
-94.8388
-96.9355
-97.1358
-98.6263
-97.0237
-95.9798
-94.8352
-93.8893
-93.173
-95.5778
-96.2705
-99.6018
-95.6761
-99.2808
-95.4328
-99.9789
-94.5895
-95.3296
-93.7209
-94.0807
-94.8039
-93.5843
-95.2811
-92.7665
-94.5871
-97.9201
-94.9648
-93.3657
-98.8828
-97.0084
-96.2883
-95.6622
-99.2872
-101.346
-92.0803
-96.7969
-96.7527
-96.564
-93.6766
-95.5774
-94.4016
-96.4465
-97.6036
-97.6829
-93.9023
-96.808
-96.0609
-96.8628
-96.7942
-96.3455
-95.2328
-95.4865
-94.7905
-92.9673
-92.7206
-93.7317
-98.2848
-94.6324
-93.2136
-94.6763
-97.8248
-95.1712
-98.3999
-97.552
-96.5528
-95.9882
-96.5986
-98.8302
-93.7157
-96.6764
-98.119
-98.0507
-96.0767
-94.2602
-95.3356
-96.671
-98.1414
-93.6706
-95.5046
-96.1028
-97.7132
-96.3326
-96.8055
-98.468
-93.6496
-94.4215
-94.1218
-98.9348
-97.727
-95.8
-97.7243
-94.3678
-94.7143
-97.7113
-96.971
-98.51
-93.7494
-97.2362
-97.6236
-95.9822
-96.4393
-97.1584
-94.0656
-92.4986
-95.6679
-96.8849
-99.5192
-95.4387
-94.6621
-95.5654
-96.465
-97.265
-95.8313
-94.3966
-95.4104
-97.5012
-94.3816
-94.0658
-95.3202
-94.5481
-96.2016
-95.9591
-98.0073
-96.6755
-97.2569
-94.7556
-95.7071
-96.1822
-95.4654
-95.0853
-94.8727
-94.7431
-93.7674
-96.9085
-96.139
-96.0106
-96.6237
-92.9205
-94.8719
-98.923
-98.8594
-94.2882
-97.7588
-96.4671
-96.7216
-94.8706
-98.1857
-97.8532
-93.6282
-95.1112
-94.8683
-94.8188
-93.2041
-93.363
-94.8465
-97.9885
-100.295
-94.5157
-97.1892
-96.8934
-96.3346
-95.3274
-96.199
-98.0799
-96.7727
-93.7344
-94.8923
-94.7171
-95.1164
-96.6137
-97.208
-96.9595
-97.0055
-97.204
-94.4719
-97.052
-95.0061
-97.0119
-90.989
-96.6603
-98.1262
-95.0805
-92.1053
-96.1303
-95.6348
-98.9709
-94.1927
-97.066
-95.7054
-92.4926
-98.9134
-93.4089
-95.3772
-95.6057
-93.0467
-97.8137
-96.0537
-95.4403
-96.4092
-96.0515
-95.1941
-99.0217
-93.598
-94.8539
-90.7423
-96.0685
-94.9616
-95.6808
-97.7938
-101.231
-93.1605
-94.9913
-100.312
-93.4859
-96.9792
-94.3418
-96.7291
-92.2952
-94.3327
-100.23
-92.341
-100.34
-92.6841
-98.974
-92.827
-94.1507
-91.3519
-93.88
-99.8729
-91.5297
-96.0826
-92.4156
-98.9556
-99.8856
-91.7015
-95.9612
-94.2209
-93.7013
-93.5364
-94.719
-95.6415
-95.6893
-96.5888
-95.4626
-98.6211
-100.452
-91.7252
-96.6026
-96.2432
-95.6037
-95.8936
-95.4262
-95.3839
-95.3831
-97.2707
-95.5774
-97.2096
-94.8951
-96.2304
-98.2245
-95.0084
-96.4898
-97.6415
-94.802
-96.2351
-95.6229
-96.606
-95.3211
-96.0507
-95.1356
-97.4938
-94.9222
-96.2052
-92.7725
-98.9771
-91.7226
-97.1275
-97.6495
-98.4739
-94.1768
-95.9187
-95.4017
-95.7807
-96.1631
-95.6342
-97.2821
-93.8691
-90.163
-96.7455
-92.1769
-98.089
-94.2833
-95.6681
-97.8043
-90.2976
-99.3952
-94.3937
-91.2586
-94.8616
-96.8812
-96.6727
-95.9416
-91.3967
-96.1116
-96.4233
-94.4974
-94.2202
-98.1009
-97.8198
-94.8375
-95.6527
-98.1018
-91.5588
-97.7393
-94.2101
-96.6166
-91.7979
-100.604
-99.2541
-97.4273
-95.9593
-95.5666
-97.2056
-95.3618
-91.3639
-93.6778
-96.9761
-94.3051
-97.2314
-92.0206
-98.0976
-97.0989
-89.005
-96.1639
-96.2877
-90.4873
-99.2301
-92.6567
-98.0283
-98.9355
-97.4176
-90.8288
-95.9867
-95.3002
-96.1271
-96.1357
-96.8759
-91.4871
-95.1001
-94.236
-94.2932
-98.0876
-95.8085
-96.9563
-96.6658
-96.6661
-95.2674
-95.914
-95.3923
-96.1885
-97.8731
-94.6847
-95.1841
-94.5018
-96.3102
-97.6551
-94.7044
-94.9887
-94.7994
-95.8059
-94.3037
-94.3867
-95.0351
-95.2064
-95.8954
-95.3649
-98.4785
-97.5524
-92.0909
-92.611
-98.7655
-88.8031
-96.9639
-96.4369
-94.4569
-95.2979
-99.2029
-90.4581
-97.6549
-96.7849
-91.0657
-94.9591
-94.7304
-96.2888
-90.2017
-98.0693
-97.2287
-90.2092
-97.841
-98.3209
-91.6455
-98.4605
-97.8317
-91.719
-94.6532
-94.3943
-90.5647
-95.7161
-96.003
-94.2188
-94.1738
-94.8825
-89.6978
-93.9992
-91.3019
-89.545
-97.6722
-94.2121
-99.7881
-95.1005
-91.4255
-97.9382
-96.1549
-90.7712
-94.7656
-94.7324
-90.7242
-92.4369
-99.3283
-88.1345
-93.7349
-94.6225
-89.1697
-97.8429
-97.338
-95.713
-94.9376
-94.8227
-93.6377
-89.8279
-95.7726
-94.878
-95.067
-95.7287
-90.9322
-97.4497
-94.6238
-95.4658
-94.3479
-95.3621
-95.8841
-93.6642
-91.1732
-95.0367
-96.7988
-94.538
-95.0132
-95.6926
-94.1525
-95.1637
-90.999
-94.954
-97.1523
-94.3799
-95.3088
-94.2206
-91.3215
-98.7562
-98.8516
-97.864
-99.0077
-91.5888
-90.4229
-95.1809
-97.9552
-95.9819
-96.9454
-97.3057
-93.7234
-93.1459
-91.165
-92.1521
-94.0044
-95.4884
-95.3366
-95.2337
-93.4272
-97.5294
-96.5202
-91.7531
-93.6664
-93.6643
-97.2435
-94.123
-89.9496
-96.8178
-95.5543
-97.6745
-90.7901
-95.0214
-96.6114
-94.7956
-95.1667
-96.9265
-95.4835
-93.6543
-98.8962
-89.0676
-93.9594
-95.9326
-94.2214
-94.8817
-98.7166
-96.7038
-95.9319
-93.0742
-98.3031
-94.9005
-95.9225
-97.2694
-97.7332
-97.505
-97.7105
-98.6499
-99.0619
-98.4057
-98.4106
-96.6861
-97.4797
-94.6536
-95.2483
-93.5658
-92.5953
-89.5267
-98.7932
-98.6169
-97.9113
-95.0429
-95.9064
-95.7751
-94.2465
-96.1264
-97.3817
-93.8497
-95.3325
-96.7977
-94.7195
-94.7215
-94.55
-95.0233
-94.0275
-94.9268
-94.7599
-91.7678
-96.5744
-93.9957
-95.2802
-90.6079
-99.2122
-95.4236
-94.3441
-94.012
-91.9833
-95.7471
-94.4291
-90.486
-93.2646
-95.3135
-92.7456
-92.9849
-99.0582
-99.3709
-94.8398
-94.8286
-97.1313
-98.5792
-90.3895
-94.9373
-94.1001
-94.8656
-94.8838
-95.0609
-95.4122
-93.2899
-91.1668
-98.5565
-94.8633
-92.8238
-93.2311
-94.7149
-95.6882
-92.1064
-95.8065
-94.4697
-94.6391
-98.6072
-92.944
-91.4492
-95.0453
-94.514
-94.1678
-91.2477
-98.0035
-94.8596
-94.5673
-94.7524
-90.484
-95.0791
-94.8736
-91.5609
-94.9835
-93.2158
-96.3453
-97.9397
-94.404
-97.2744
-96.108
-94.3171
-94.3199
-94.9504
-91.336
-96.6208
-96.9865
-94.5742
-90.8911
-93.6395
-95.2342
-95.3697
-94.3388
-91.1522
-94.4574
-97.6582
-96.389
-94.6659
-99.021
-92.7518
-97.7868
-90.4922
-92.7545
-98.0771
-90.6784
-97.64
-94.8856
-95.6786
-94.6742
-99.5043
-93.3091
-95.6545
-98.4574
-98.5364
-91.9779
-98.0543
-98.6838
-88.9902
-96.4557
-94.3909
-90.595
-97.5166
-94.3359
-94.6098
-94.6283
-95.4249
-95.0964
-94.5441
-94.4351
-90.398
-97.1832
-95.8621
-95.5349
-95.8449
-95.0139
-94.2551
-93.6562
-97.7429
-89.9108
-94.0212
-95.0432
-90.384
-97.5821
-98.7373
-96.3307
-97.9919
-98.5617
-93.848
-95.7889
-96.4617
-97.9766
-94.136
-96.8129
-93.2353
-90.9404
-97.593
-93.5099
-97.6444
-99.2709
-98.5126
-90.8122
-97.7886
-96.2595
-93.8661
-94.5279
-94.9477
-94.4202
-90.8817
-98.629
-90.9608
-98.5553
-94.9838
-93.26
-93.5569
-95.6991
-96.7482
-98.786
-95.5182
-99.4087
-97.552
-97.5441
-91.1259
-97.4905
-96.9078
-97.8082
-94.267
-93.8384
-90.1542
-95.2651
-99.2754
-98.2457
-90.9977
-93.366
-91.6135
-94.2396
-95.3726
-93.1065
-101.042
-94.6776
-93.2984
-91.2091
-96.4093
-93.9643
-89.8954
-95.5872
-94.4637
-94.4006
-94.5462
-94.5836
-91.2726
-93.0184
-90.615
-94.7346
-97.8302
-96.3882
-98.2485
-97.8853
-94.0328
-93.5219
-90.642
-93.9887
-97.4255
-98.1897
-97.5149
-97.2416
-92.7857
-90.4042
-93.3487
-89.9579
-97.1482
-97.4316
-93.615
-97.4308
-97.3884
-97.9736
-96.7524
-95.7024
-95.603
-94.0277
-90.1501
-93.5701
-91.0259
-93.5813
-94.5462
-94.3141
-91.6619
-90.8146
-96.7158
-99.1992
-99.3282
-98.5521
-95.5526
-96.4774
-96.4299
-95.5506
-94.6127
-95.3854
-93.7342
-95.0265
-95.0423
-90.7621
-97.6554
-94.9532
-93.4171
-91.649
-94.6921
-95.4608
-95.4297
-94.3694
-91.6834
-98.4767
-96.1743
-94.4627
-98.9296
-93.7455
-90.6071
-97.0681
-95.1742
-95.0702
-95.0178
-94.3124
-89.6963
-95.8966
-94.9873
-91.0048
-98.9611
-94.8208
-88.4482
-94.5269
-95.3272
-95.496
-94.2664
-90.9132
-94.0869
-94.2184
-92.4578
-95.0773
-90.4972
-95.2818
-95.1531
-92.165
-99.3775
-94.948
-91.5902
-100.229
-95.3255
-95.3621
-91.5752
-95.1108
-91.0134
)
;
    }
}


// ************************************************************************* //
