/*--------------------------------*- C++ -*----------------------------------*\
| =========                 |                                                 |
| \\      /  F ield         | OpenFOAM: The Open Source CFD Toolbox           |
|  \\    /   O peration     | Version:  v1912                                 |
|   \\  /    A nd           | Website:  www.openfoam.com                      |
|    \\/     M anipulation  |                                                 |
\*---------------------------------------------------------------------------*/
FoamFile
{
    version     2.0;
    format      ascii;
    class       surfaceScalarField;
    location    "120/oil";
    object      phi;
}
// * * * * * * * * * * * * * * * * * * * * * * * * * * * * * * * * * * * * * //

dimensions      [1 0 -1 0 0 0 0];
oriented        oriented;


internalField   nonuniform List<scalar> 
104676
(
-8.1694e-12
2.06635e-11
-1.05854e-11
2.19412e-10
-1.8086e-10
-4.67087e-11
6.8385e-10
-3.37521e-10
-1.26777e-10
1.31319e-09
-4.11295e-10
-2.17957e-10
2.01493e-09
-4.20418e-10
-2.81242e-10
2.69689e-09
-3.82547e-10
-2.9933e-10
3.27591e-09
-3.11446e-10
-2.6749e-10
3.6825e-09
-2.17314e-10
-1.89184e-10
3.86244e-09
-1.08019e-10
-7.18407e-11
3.78648e-09
6.63247e-12
6.94395e-11
3.44006e-09
1.24953e-10
2.21563e-10
2.84719e-09
2.21602e-10
3.71361e-10
2.03883e-09
3.09455e-10
4.98995e-10
1.07298e-09
3.73115e-10
5.92824e-10
2.34961e-11
4.06788e-10
6.42771e-10
-1.02937e-09
4.08655e-10
6.44283e-10
-1.99819e-09
3.73619e-10
5.95267e-10
-2.81031e-09
3.09444e-10
5.02732e-10
-3.40958e-09
2.23274e-10
3.76061e-10
-3.76103e-09
1.22568e-10
2.28941e-10
-3.8471e-09
7.88622e-12
7.82493e-11
-3.67195e-09
-1.09816e-10
-6.5269e-11
-3.2694e-09
-2.18697e-10
-1.83771e-10
-2.69355e-09
-3.12743e-10
-2.63025e-10
-2.01425e-09
-3.83585e-10
-2.95639e-10
-1.31449e-09
-4.22268e-10
-2.77413e-10
-6.86047e-10
-4.14333e-10
-2.14041e-10
-2.21543e-10
-3.41318e-10
-1.23145e-10
6.91744e-12
-1.84585e-10
-4.38481e-11
1.61379e-11
-9.20523e-12
2.23584e-10
-4.26519e-10
2.23582e-10
8.60537e-10
-1.27611e-09
4.58363e-10
1.87127e-09
-1.91545e-09
5.67274e-10
3.14314e-09
-2.30444e-09
6.21352e-10
4.52332e-09
-2.49058e-09
6.90059e-10
5.84741e-09
-2.52011e-09
8.13549e-10
6.96018e-09
-2.43241e-09
1.00828e-09
7.72734e-09
-2.25847e-09
1.27409e-09
8.04423e-09
-2.02423e-09
1.59942e-09
7.8438e-09
-1.75301e-09
1.96016e-09
7.09477e-09
-1.46771e-09
2.34179e-09
5.83849e-09
-1.21785e-09
2.69582e-09
4.16881e-09
-9.98033e-10
2.97724e-09
2.19144e-09
-8.38955e-10
3.18952e-09
4.74867e-11
-7.55687e-10
3.30649e-09
-2.10498e-09
-7.56081e-10
3.31726e-09
-4.08831e-09
-8.42441e-10
3.19945e-09
-5.76045e-09
-1.0041e-09
2.98573e-09
-7.00749e-09
-1.22423e-09
2.69459e-09
-7.76002e-09
-1.47883e-09
2.35399e-09
-7.97372e-09
-1.76021e-09
1.98187e-09
-7.66885e-09
-2.0295e-09
1.61491e-09
-6.91597e-09
-2.26152e-09
1.29003e-09
-5.81833e-09
-2.43483e-09
1.02454e-09
-4.50677e-09
-2.52347e-09
8.28421e-10
-3.13768e-09
-2.49542e-09
7.04161e-10
-1.87295e-09
-2.31294e-09
6.33937e-10
-8.63462e-10
-1.92703e-09
5.76278e-10
-2.24519e-10
-1.28598e-09
4.62474e-10
-4.32203e-10
2.23835e-10
4.68812e-10
-1.3685e-09
4.73254e-10
1.48864e-09
-3.30722e-09
1.01133e-09
2.91806e-09
-4.69034e-09
1.34552e-09
4.61636e-09
-5.59175e-09
1.58909e-09
6.40786e-09
-6.10917e-09
1.82715e-09
8.09929e-09
-6.32311e-09
2.11165e-09
9.50188e-09
-6.30262e-09
2.4677e-09
1.04484e-08
-6.10451e-09
2.8996e-09
1.08083e-08
-5.78036e-09
3.39628e-09
1.04982e-08
-5.37342e-09
3.93064e-09
9.47693e-09
-4.93069e-09
4.48427e-09
7.78781e-09
-4.51212e-09
4.98345e-09
5.55301e-09
-4.145e-09
5.38182e-09
2.91659e-09
-3.8769e-09
5.67443e-09
6.13165e-11
-3.7386e-09
5.83824e-09
-2.80785e-09
-3.74503e-09
5.85817e-09
-5.45323e-09
-3.88551e-09
5.68849e-09
-7.68951e-09
-4.1548e-09
5.38702e-09
-9.3703e-09
-4.51903e-09
4.97563e-09
-1.04065e-08
-4.9412e-09
4.49865e-09
-1.07357e-08
-5.38294e-09
3.952e-09
-1.03903e-08
-5.78696e-09
3.41213e-09
-9.45888e-09
-6.10963e-09
2.91677e-09
-8.07182e-09
-6.3065e-09
2.48471e-09
-6.39461e-09
-6.32837e-09
2.12778e-09
-4.61306e-09
-6.11841e-09
1.84152e-09
-2.92145e-09
-5.60508e-09
1.6006e-09
-1.49381e-09
-4.70681e-09
1.35219e-09
-4.71397e-10
-3.32047e-09
1.0121e-09
-1.37592e-09
4.72332e-10
6.71316e-10
-2.71924e-09
6.79443e-10
2.01293e-09
-6.11334e-09
1.46454e-09
3.78156e-09
-8.43841e-09
1.9795e-09
5.8044e-09
-9.99069e-09
2.37616e-09
7.88828e-09
-1.09493e-08
2.75633e-09
9.8252e-09
-1.14374e-08
3.17741e-09
1.14109e-08
-1.15569e-08
3.66863e-09
1.24625e-08
-1.1392e-08
4.23592e-09
1.28317e-08
-1.1019e-08
4.8695e-09
1.24223e-08
-1.05078e-08
5.54389e-09
1.11861e-08
-9.92897e-09
6.23451e-09
9.18133e-09
-9.35158e-09
6.84425e-09
6.54114e-09
-8.84866e-09
7.34388e-09
3.43304e-09
-8.46094e-09
7.69218e-09
6.96125e-11
-8.26331e-09
7.88818e-09
-3.3122e-09
-8.27709e-09
7.91391e-09
-6.43196e-09
-8.47016e-09
7.70444e-09
-9.07538e-09
-8.84728e-09
7.33592e-09
-1.10731e-08
-9.35269e-09
6.83145e-09
-1.23223e-08
-9.93233e-09
6.24033e-09
-1.27496e-08
-1.05115e-08
5.55596e-09
-1.23967e-08
-1.10216e-08
4.88188e-09
-1.13625e-08
-1.13944e-08
4.25075e-09
-9.79271e-09
-1.15593e-08
3.68314e-09
-7.87103e-09
-1.14423e-08
3.1923e-09
-5.80008e-09
-1.09591e-08
2.76983e-09
-3.78395e-09
-1.00068e-08
2.38561e-09
-2.01797e-09
-8.45432e-09
1.98157e-09
-6.76165e-10
-6.1195e-09
1.45727e-09
-2.72909e-09
6.77014e-10
8.23998e-10
-4.37478e-09
8.31578e-10
2.41378e-09
-9.49867e-09
1.7956e-09
4.44802e-09
-1.29181e-08
2.44551e-09
6.72127e-09
-1.52192e-08
2.95531e-09
9.02427e-09
-1.66944e-08
3.44212e-09
1.11389e-08
-1.75223e-08
3.97035e-09
1.28524e-08
-1.78412e-08
4.5708e-09
1.39722e-08
-1.77636e-08
5.25187e-09
1.43431e-08
-1.73906e-08
6.00078e-09
1.3859e-08
-1.68169e-08
6.7932e-09
1.24687e-08
-1.61398e-08
7.60124e-09
1.02322e-08
-1.5444e-08
8.32896e-09
7.2839e-09
-1.48191e-08
8.91876e-09
3.82045e-09
-1.43114e-08
9.31396e-09
7.51299e-11
-1.40545e-08
9.53658e-09
-3.69171e-09
-1.40734e-08
9.56318e-09
-7.16387e-09
-1.43232e-08
9.32516e-09
-1.01101e-08
-1.48e-08
8.89896e-09
-1.23476e-08
-1.54381e-08
8.32296e-09
-1.37526e-08
-1.61382e-08
7.6109e-09
-1.42552e-08
-1.68164e-08
6.8076e-09
-1.39022e-08
-1.73904e-08
6.01598e-09
-1.27994e-08
-1.77647e-08
5.26756e-09
-1.11014e-08
-1.78435e-08
4.58626e-09
-9.00176e-09
-1.75267e-08
3.98496e-09
-6.7125e-09
-1.67028e-08
3.45457e-09
-4.44888e-09
-1.52332e-08
2.96291e-09
-2.41727e-09
-1.29306e-08
2.44473e-09
-8.28231e-10
-9.49329e-09
1.78479e-09
-4.38679e-09
8.2948e-10
9.26504e-10
-6.23672e-09
9.35479e-10
2.69243e-09
-1.3281e-08
2.0165e-09
4.91971e-09
-1.79046e-08
2.75925e-09
7.37462e-09
-2.10239e-08
3.3499e-09
9.83564e-09
-2.30698e-08
3.91444e-09
1.20779e-08
-2.42895e-08
4.52501e-09
1.38841e-08
-2.48615e-08
5.21418e-09
1.50559e-08
-2.49276e-08
5.99219e-09
1.54326e-08
-2.4612e-08
6.84483e-09
1.4904e-08
-2.40317e-08
7.74332e-09
1.34163e-08
-2.33053e-08
8.65318e-09
1.10104e-08
-2.25495e-08
9.51138e-09
7.83434e-09
-2.18376e-08
1.01945e-08
4.10668e-09
-2.12187e-08
1.06349e-08
7.59197e-11
-2.08953e-08
1.08716e-08
-3.97825e-09
-2.09159e-08
1.08966e-08
-7.70721e-09
-2.12467e-08
1.06525e-08
-1.08749e-08
-2.18017e-08
1.01694e-08
-1.32867e-08
-2.25379e-08
9.51156e-09
-1.47918e-08
-2.33015e-08
8.66839e-09
-1.5341e-08
-2.40288e-08
7.76173e-09
-1.49835e-08
-2.46111e-08
6.86334e-09
-1.38291e-08
-2.49291e-08
6.01017e-09
-1.20388e-08
-2.48647e-08
5.23105e-09
-9.81023e-09
-2.42947e-08
4.53953e-09
-7.36204e-09
-2.30775e-08
3.92653e-09
-4.91758e-09
-2.10339e-08
3.35634e-09
-2.69623e-09
-1.79081e-08
2.75623e-09
-9.31285e-10
-1.32635e-08
2.00536e-09
-6.25253e-09
9.34466e-10
9.78036e-10
-8.21407e-09
9.99347e-10
2.85231e-09
-1.73151e-08
2.15986e-09
5.20133e-09
-2.32049e-08
2.95137e-09
7.76892e-09
-2.71782e-08
3.5867e-09
1.0327e-08
-2.98318e-08
4.20394e-09
1.26485e-08
-3.14868e-08
4.87594e-09
1.4515e-08
-3.23648e-08
5.63678e-09
1.57246e-08
-3.26359e-08
6.49873e-09
1.61138e-08
-3.24465e-08
7.44523e-09
1.55666e-08
-3.19292e-08
8.4447e-09
1.40276e-08
-3.12234e-08
9.45716e-09
1.15103e-08
-3.04649e-08
1.04327e-08
8.19373e-09
-2.97352e-08
1.12142e-08
4.29438e-09
-2.90156e-08
1.16963e-08
8.17369e-11
-2.86317e-08
1.1949e-08
-4.15073e-09
-2.86632e-08
1.19798e-08
-8.06447e-09
-2.90691e-08
1.17361e-08
-1.13716e-08
-2.96927e-08
1.1198e-08
-1.38947e-08
-3.04544e-08
1.04396e-08
-1.54523e-08
-3.12232e-08
9.47942e-09
-1.60203e-08
-3.19302e-08
8.46935e-09
-1.5651e-08
-3.24487e-08
7.46841e-09
-1.44591e-08
-3.26406e-08
6.51971e-09
-1.26086e-08
-3.23717e-08
5.65659e-09
-1.03002e-08
-3.14947e-08
4.89171e-09
-7.75437e-09
-2.98394e-08
4.21625e-09
-5.19788e-09
-2.7182e-08
3.5916e-09
-2.85914e-09
-2.31891e-08
2.9423e-09
-9.90001e-10
-1.72706e-08
2.13793e-09
-8.23942e-09
9.96897e-10
9.97321e-10
-1.02318e-08
1.02043e-09
2.90313e-09
-2.14356e-08
2.21467e-09
5.2924e-09
-2.86236e-08
3.02949e-09
7.89861e-09
-3.34682e-08
3.68388e-09
1.0486e-08
-3.67461e-08
4.32696e-09
1.28311e-08
-3.88721e-08
5.04025e-09
1.4719e-08
-4.01084e-08
5.85581e-09
1.59489e-08
-4.06513e-08
6.78551e-09
1.63538e-08
-4.06647e-08
7.81325e-09
1.58156e-08
-4.02954e-08
8.9045e-09
1.42689e-08
-3.96912e-08
1.00145e-08
1.17131e-08
-3.9006e-08
1.10969e-08
8.33354e-09
-3.83446e-08
1.19889e-08
4.36131e-09
-3.75424e-08
1.24991e-08
8.14893e-11
-3.71325e-08
1.27806e-08
-4.2242e-09
-3.71713e-08
1.28138e-08
-8.22634e-09
-3.75981e-08
1.2531e-08
-1.1582e-08
-3.83003e-08
1.19632e-08
-1.41374e-08
-3.89991e-08
1.11001e-08
-1.57017e-08
-3.96958e-08
1.00369e-08
-1.62614e-08
-4.03005e-08
8.93006e-09
-1.58762e-08
-4.06714e-08
7.83759e-09
-1.46634e-08
-4.06614e-08
6.80813e-09
-1.27908e-08
-4.01213e-08
5.87719e-09
-1.04584e-08
-3.88851e-08
5.05815e-09
-7.88345e-09
-3.67541e-08
4.33983e-09
-5.29201e-09
-3.3456e-08
3.68264e-09
-2.91458e-09
-2.8575e-08
3.00849e-09
-1.00829e-09
-2.13622e-08
2.18536e-09
-1.02676e-08
1.01992e-09
9.80039e-10
-1.22137e-08
1.00195e-09
2.84055e-09
-2.5481e-08
2.18498e-09
5.18119e-09
-3.39718e-08
3.00755e-09
7.74253e-09
-3.96925e-08
3.66297e-09
1.02871e-08
-4.35909e-08
4.30023e-09
1.25904e-08
-4.61964e-08
5.02097e-09
1.44498e-08
-4.78321e-08
5.8643e-09
1.56722e-08
-4.87096e-08
6.83597e-09
1.60906e-08
-4.90013e-08
7.91828e-09
1.55842e-08
-4.8865e-08
9.07602e-09
1.40912e-08
-4.84512e-08
1.02531e-08
1.15997e-08
-4.79084e-08
1.13938e-08
8.2392e-09
-4.73612e-08
1.2377e-08
4.3064e-09
-4.65353e-08
1.29257e-08
7.78879e-11
-4.61614e-08
1.32573e-08
-4.18186e-09
-4.6196e-08
1.32843e-08
-8.15561e-09
-4.65572e-08
1.29328e-08
-1.14879e-08
-4.72946e-08
1.23264e-08
-1.39655e-08
-4.79036e-08
1.1382e-08
-1.54732e-08
-4.84606e-08
1.02724e-08
-1.59995e-08
-4.88765e-08
9.10229e-09
-1.56004e-08
-4.90143e-08
7.94387e-09
-1.43952e-08
-4.87262e-08
6.85962e-09
-1.25504e-08
-4.78524e-08
5.88639e-09
-1.02607e-08
-4.62119e-08
5.03719e-09
-7.7359e-09
-4.35779e-08
4.29901e-09
-5.19395e-09
-3.96304e-08
3.63256e-09
-2.86047e-09
-3.38683e-08
2.95989e-09
-9.86918e-10
-2.5387e-08
2.15128e-09
-1.22574e-08
1.00286e-09
9.29881e-10
-1.40832e-08
9.3961e-10
2.68625e-09
-2.9289e-08
2.05167e-09
4.87345e-09
-3.90117e-08
2.85276e-09
7.28403e-09
-4.56082e-08
3.5051e-09
9.69865e-09
-5.01299e-08
4.12443e-09
1.18863e-08
-5.31973e-08
4.81328e-09
1.36567e-08
-5.52464e-08
5.64397e-09
1.48317e-08
-5.65032e-08
6.6186e-09
1.52547e-08
-5.71383e-08
7.71393e-09
1.48023e-08
-5.7307e-08
8.89435e-09
1.34154e-08
-5.71589e-08
1.00946e-08
1.10823e-08
-5.68278e-08
1.12525e-08
7.84723e-09
-5.64099e-08
1.22837e-08
4.09921e-09
-5.5667e-08
1.28796e-08
7.29614e-11
-5.53663e-08
1.32311e-08
-3.97753e-09
-5.53993e-08
1.32538e-08
-7.75325e-09
-5.5649e-08
1.28674e-08
-1.09734e-08
-5.62755e-08
1.22011e-08
-1.32976e-08
-5.68141e-08
1.12345e-08
-1.46955e-08
-5.71749e-08
1.01122e-08
-1.51672e-08
-5.7325e-08
8.92023e-09
-1.47637e-08
-5.71572e-08
7.73944e-09
-1.3604e-08
-5.65278e-08
6.64202e-09
-1.1846e-08
-5.52744e-08
5.66398e-09
-9.67792e-09
-5.31972e-08
4.81732e-09
-7.29179e-09
-5.00523e-08
4.08834e-09
-4.88922e-09
-4.54705e-08
3.43754e-09
-2.6887e-09
-3.88596e-08
2.79083e-09
-9.2682e-10
-2.91731e-08
2.02429e-09
-1.4129e-08
9.44784e-10
8.39294e-10
-1.57565e-08
8.34106e-10
2.43008e-09
-3.26773e-08
1.79751e-09
4.39056e-09
-4.34878e-08
2.51565e-09
6.53258e-09
-5.09042e-08
3.15401e-09
8.70495e-09
-5.60547e-08
3.75242e-09
1.06861e-08
-5.95681e-08
4.38964e-09
1.22981e-08
-6.20233e-08
5.1648e-09
1.3381e-08
-6.36807e-08
6.09468e-09
1.37898e-08
-6.46932e-08
7.14613e-09
1.3412e-08
-6.52054e-08
8.27615e-09
1.22043e-08
-6.53491e-08
9.39799e-09
1.01347e-08
-6.52205e-08
1.04623e-08
7.15343e-09
-6.48999e-08
1.14712e-08
3.73016e-09
-6.4416e-08
1.21723e-08
6.67913e-11
-6.42422e-08
1.25393e-08
-3.6117e-09
-6.42758e-08
1.25549e-08
-7.01891e-09
-6.44031e-08
1.21611e-08
-9.9485e-09
-6.48371e-08
1.1491e-08
-1.20504e-08
-6.53105e-08
1.05983e-08
-1.33038e-08
-6.53956e-08
9.47392e-09
-1.37049e-08
-6.52315e-08
8.30758e-09
-1.33167e-08
-6.47129e-08
7.16752e-09
-1.22471e-08
-6.37104e-08
6.11295e-09
-1.06434e-08
-6.20552e-08
5.17716e-09
-8.68293e-09
-5.95302e-08
4.37251e-09
-6.53069e-09
-5.58868e-08
3.68235e-09
-4.36222e-09
-5.07078e-08
3.06889e-09
-2.38708e-09
-4.33115e-08
2.47677e-09
-8.14955e-10
-3.25375e-08
1.7923e-09
-1.57844e-08
8.40403e-10
7.0741e-10
-1.71525e-08
6.88621e-10
2.06325e-09
-3.54784e-08
1.44528e-09
3.72038e-09
-4.71324e-08
1.9874e-09
5.51759e-09
-5.52334e-08
2.53205e-09
7.30795e-09
-6.09529e-08
3.10787e-09
8.97108e-09
-6.49328e-08
3.70161e-09
1.03465e-08
-6.77842e-08
4.38563e-09
1.12928e-08
-6.98418e-08
5.21474e-09
1.16789e-08
-7.12351e-08
6.15584e-09
1.14018e-08
-7.20654e-08
7.1371e-09
1.0393e-08
-7.24395e-08
8.09915e-09
8.58887e-09
-7.25351e-08
9.1187e-09
6.07123e-09
-7.24632e-08
1.00809e-08
3.17595e-09
-7.22504e-08
1.07296e-08
5.70753e-11
-7.21835e-08
1.10601e-08
-3.08484e-09
-7.21662e-08
1.10323e-08
-5.98707e-09
-7.21403e-08
1.06393e-08
-8.47116e-09
-7.23681e-08
1.0015e-08
-1.02455e-08
-7.27503e-08
9.21409e-09
-1.12802e-08
-7.25243e-08
8.16336e-09
-1.15865e-08
-7.2068e-08
7.14274e-09
-1.12286e-08
-7.12228e-08
6.15209e-09
-1.02969e-08
-6.98605e-08
5.21839e-09
-8.91525e-09
-6.78189e-08
4.38214e-09
-7.25444e-09
-6.48644e-08
3.67345e-09
-5.45241e-09
-6.07731e-08
3.08426e-09
-3.66145e-09
-5.50852e-08
2.58644e-09
-2.01679e-09
-4.70597e-08
2.10353e-09
-6.96031e-10
-3.53832e-08
1.52496e-09
-1.71924e-08
7.1191e-10
5.43035e-10
-1.8215e-08
5.19433e-10
1.56392e-09
-3.76051e-08
1.10585e-09
2.84411e-09
-4.99052e-08
1.49262e-09
4.2153e-09
-5.8431e-08
1.82637e-09
5.54469e-09
-6.45225e-08
2.2402e-09
6.78239e-09
-6.89121e-08
2.74161e-09
7.82675e-09
-7.21361e-08
3.30753e-09
8.5827e-09
-7.45486e-08
3.9508e-09
8.95288e-09
-7.62774e-08
4.67211e-09
8.75799e-09
-7.73246e-08
5.45397e-09
7.89323e-09
-7.78981e-08
6.32326e-09
6.44225e-09
-7.83006e-08
7.21635e-09
4.61685e-09
-7.86077e-08
7.96983e-09
2.44466e-09
-7.85662e-08
8.48803e-09
5.02889e-11
-7.85265e-08
8.73739e-09
-2.38462e-09
-7.84122e-08
8.68079e-09
-4.60308e-09
-7.82843e-08
8.36242e-09
-6.47074e-09
-7.83261e-08
7.82548e-09
-7.88048e-09
-7.84066e-08
7.0659e-09
-8.66248e-09
-7.7877e-08
6.13457e-09
-8.85323e-09
-7.72076e-08
5.33028e-09
-8.55074e-09
-7.61115e-08
4.58617e-09
-7.83746e-09
-7.44764e-08
3.90268e-09
-6.80054e-09
-7.21831e-08
3.32724e-09
-5.5372e-09
-6.89591e-08
2.83135e-09
-4.16451e-09
-6.45265e-08
2.38068e-09
-2.79634e-09
-5.84356e-08
1.98222e-09
-1.53984e-09
-4.99155e-08
1.59933e-09
-5.32197e-10
-3.7547e-08
1.15608e-09
-1.82633e-08
5.38687e-10
3.67239e-10
-1.88985e-08
3.16333e-10
9.9046e-10
-3.88928e-08
6.64479e-10
1.79051e-09
-5.16657e-08
9.60471e-10
2.65897e-09
-6.04983e-08
1.19888e-09
3.51132e-09
-6.68483e-08
1.47341e-09
4.30928e-09
-7.14998e-08
1.78973e-09
4.97978e-09
-7.49329e-08
2.12624e-09
5.43568e-09
-7.74687e-08
2.46418e-09
5.68201e-09
-7.93564e-08
2.83263e-09
5.54042e-09
-8.05571e-08
3.37409e-09
4.97265e-09
-8.13703e-08
4.03986e-09
4.09285e-09
-8.20734e-08
4.65253e-09
2.94098e-09
-8.25881e-08
5.13227e-09
1.56406e-09
-8.26552e-08
5.46585e-09
5.65997e-11
-8.26705e-08
5.65137e-09
-1.47423e-09
-8.25175e-08
5.6361e-09
-2.87784e-09
-8.23297e-08
5.44895e-09
-4.03649e-09
-8.22746e-08
5.1071e-09
-4.94158e-09
-8.21422e-08
4.64058e-09
-5.49828e-09
-8.13456e-08
4.02519e-09
-5.70588e-09
-8.03756e-08
3.37558e-09
-5.54455e-09
-7.90431e-08
2.77027e-09
-5.0551e-09
-7.72713e-08
2.30542e-09
-4.33185e-09
-7.48931e-08
1.98676e-09
-3.49693e-09
-7.15283e-08
1.73425e-09
-2.61981e-09
-6.68921e-08
1.48843e-09
-1.75428e-09
-6.0546e-08
1.24484e-09
-9.63201e-10
-5.17103e-08
1.00365e-09
-3.33241e-10
-3.89008e-08
7.23826e-10
-1.89335e-08
3.36973e-10
1.3488e-10
-1.91416e-08
1.08214e-10
3.46445e-10
-3.93357e-08
2.31355e-10
6.30032e-10
-5.22942e-08
3.44932e-10
9.41626e-10
-6.12406e-08
4.30708e-10
1.25645e-09
-6.76799e-08
5.16775e-10
1.57531e-09
-7.24077e-08
5.88996e-10
1.87178e-09
-7.58819e-08
6.52531e-10
2.04955e-09
-7.84016e-08
7.55095e-10
2.07604e-09
-8.02979e-08
9.15014e-10
1.96629e-09
-8.15897e-08
1.14227e-09
1.78995e-09
-8.25745e-08
1.38056e-09
1.53007e-09
-8.33964e-08
1.58276e-09
1.04143e-09
-8.38202e-08
1.72063e-09
5.2216e-10
-8.39545e-08
1.81856e-09
3.56075e-11
-8.40999e-08
1.91607e-09
-5.05598e-10
-8.39742e-08
1.99802e-09
-1.01203e-09
-8.38167e-08
1.9934e-09
-1.41286e-09
-8.37366e-08
1.86275e-09
-1.7286e-09
-8.35158e-08
1.68927e-09
-1.92399e-09
-8.26268e-08
1.4765e-09
-2.00354e-09
-8.15479e-08
1.25181e-09
-1.95453e-09
-8.0127e-08
1.03487e-09
-1.78342e-09
-7.83e-08
8.57621e-10
-1.52649e-09
-7.58727e-08
7.22637e-10
-1.2277e-09
-7.24375e-08
6.10437e-10
-9.15043e-10
-6.77146e-08
5.09766e-10
-6.07807e-10
-6.12749e-08
4.2158e-10
-3.30048e-10
-5.23273e-08
3.39196e-10
-1.13597e-10
-3.93594e-08
2.42142e-10
-1.91636e-08
1.16491e-10
-9.32876e-11
-1.89457e-08
-1.02696e-10
-2.89914e-10
-3.89319e-08
-2.07182e-10
-5.31501e-10
-5.17701e-08
-2.82448e-10
-7.95689e-10
-6.06247e-08
-3.51731e-10
-1.06814e-09
-6.69915e-08
-4.15952e-10
-1.34217e-09
-7.16725e-08
-4.61226e-10
-1.59815e-09
-7.51313e-08
-4.94675e-10
-1.76029e-09
-7.76779e-08
-5.61578e-10
-1.76235e-09
-7.9577e-08
-7.18899e-10
-1.64204e-09
-8.07547e-08
-9.55297e-10
-1.48756e-09
-8.15491e-08
-1.17987e-09
-1.35551e-09
-8.21989e-08
-1.32951e-09
-1.14613e-09
-8.26035e-08
-1.42601e-09
-7.05709e-10
-8.28671e-08
-1.52769e-09
-6.16789e-11
-8.30597e-08
-1.68415e-09
4.66341e-10
-8.2757e-08
-1.74513e-09
9.20431e-10
-8.25962e-08
-1.67455e-09
1.32857e-09
-8.25811e-08
-1.5636e-09
1.55222e-09
-8.23185e-08
-1.4211e-09
1.69572e-09
-8.15165e-08
-1.25384e-09
1.76705e-09
-8.05523e-08
-1.06697e-09
1.7276e-09
-7.92123e-08
-8.75241e-10
1.59212e-09
-7.74393e-08
-7.25258e-10
1.36477e-09
-7.50279e-08
-6.17438e-10
1.10149e-09
-7.16393e-08
-5.34957e-10
8.28546e-10
-6.6985e-08
-4.56672e-10
5.55994e-10
-6.06239e-08
-3.78498e-10
3.09025e-10
-5.17803e-08
-3.00032e-10
1.11366e-10
-3.89533e-08
-2.08493e-10
-1.8955e-08
-9.7241e-11
-3.19165e-10
-1.83043e-08
-3.22203e-10
-9.26934e-10
-3.76349e-08
-6.89239e-10
-1.68531e-09
-5.00549e-08
-9.56834e-10
-2.51563e-09
-5.86064e-08
-1.18797e-09
-3.34984e-09
-6.47282e-08
-1.42917e-09
-4.12309e-09
-6.92006e-08
-1.69874e-09
-4.7655e-09
-7.24883e-08
-2.0007e-09
-5.22035e-09
-7.48821e-08
-2.34102e-09
-5.4307e-09
-7.66436e-08
-2.72313e-09
-5.26799e-09
-7.7699e-08
-3.21839e-09
-4.72615e-09
-7.82522e-08
-3.83869e-09
-3.9463e-09
-7.85813e-08
-4.39743e-09
-2.88538e-09
-7.88375e-08
-4.82686e-09
-1.55066e-09
-7.90374e-08
-5.16436e-09
-2.2759e-11
-7.92037e-08
-5.38368e-09
1.45314e-09
-7.88689e-08
-5.36379e-09
2.84085e-09
-7.88053e-08
-5.1784e-09
4.05492e-09
-7.89518e-08
-4.84339e-09
4.78226e-09
-7.86646e-08
-4.38123e-09
5.25486e-09
-7.81344e-08
-3.8548e-09
5.46403e-09
-7.75122e-08
-3.2493e-09
5.30654e-09
-7.64374e-08
-2.61744e-09
4.85234e-09
-7.4783e-08
-2.20202e-09
4.15782e-09
-7.24074e-08
-1.92595e-09
3.36045e-09
-6.91641e-08
-1.67789e-09
2.53495e-09
-6.47298e-08
-1.42974e-09
1.70654e-09
-5.86178e-08
-1.17779e-09
9.54042e-10
-5.00965e-08
-9.3143e-10
3.46689e-10
-3.76979e-08
-6.48081e-10
-1.82991e-08
-3.09291e-10
-5.23029e-10
-1.7257e-08
-5.24349e-10
-1.50726e-09
-3.55247e-08
-1.12597e-09
-2.73617e-09
-4.72634e-08
-1.56271e-09
-4.07536e-09
-5.53276e-08
-1.93974e-09
-5.4143e-09
-6.10561e-08
-2.3333e-09
-6.63708e-09
-6.51887e-08
-2.78926e-09
-7.63401e-09
-6.81766e-08
-3.31488e-09
-8.33999e-09
-7.02525e-08
-3.92369e-09
-8.69324e-09
-7.16801e-08
-4.61026e-09
-8.51979e-09
-7.25459e-08
-5.3266e-09
-7.69471e-09
-7.29264e-08
-6.15088e-09
-6.32457e-09
-7.2947e-08
-7.00441e-09
-4.53151e-09
-7.29036e-08
-7.72685e-09
-2.39387e-09
-7.29214e-08
-8.25341e-09
-2.71088e-11
-7.30327e-08
-8.53749e-09
2.32793e-09
-7.275e-08
-8.47366e-09
4.52136e-09
-7.27955e-08
-8.20312e-09
6.42043e-09
-7.31591e-08
-7.69177e-09
7.71113e-09
-7.30052e-08
-6.95023e-09
8.49092e-09
-7.27811e-08
-6.13309e-09
8.72634e-09
-7.24366e-08
-5.31101e-09
8.42646e-09
-7.16506e-08
-4.4869e-09
7.68679e-09
-7.02674e-08
-3.77588e-09
6.63859e-09
-6.81746e-08
-3.18461e-09
5.39761e-09
-6.52445e-08
-2.6787e-09
4.08291e-09
-6.11871e-08
-2.22809e-09
2.76912e-09
-5.54703e-08
-1.83374e-09
1.55525e-09
-4.74247e-08
-1.45794e-09
5.5577e-10
-3.56728e-08
-1.02562e-09
-1.72481e-08
-4.9526e-10
-6.98684e-10
-1.58644e-08
-6.93924e-10
-1.9951e-09
-3.27355e-08
-1.4929e-09
-3.61699e-09
-4.35592e-08
-2.08231e-09
-5.38714e-09
-5.0987e-08
-2.57053e-09
-7.16515e-09
-5.62095e-08
-3.06869e-09
-8.81233e-09
-5.98913e-08
-3.65037e-09
-1.01836e-08
-6.24552e-08
-4.35024e-09
-1.11101e-08
-6.41515e-08
-5.17456e-09
-1.14885e-08
-6.52062e-08
-6.0955e-09
-1.12197e-08
-6.57652e-08
-7.04945e-09
-1.02101e-08
-6.59381e-08
-7.99794e-09
-8.40314e-09
-6.57853e-08
-8.96861e-09
-5.96827e-09
-6.54512e-08
-9.88718e-09
-3.12591e-09
-6.52036e-08
-1.05599e-08
-2.23882e-11
-6.52191e-08
-1.09168e-08
3.07412e-09
-6.50188e-08
-1.08275e-08
5.94526e-09
-6.51757e-08
-1.04908e-08
8.41875e-09
-6.57362e-08
-9.89635e-09
1.01946e-08
-6.58591e-08
-8.92195e-09
1.12162e-08
-6.59179e-08
-7.88494e-09
1.15123e-08
-6.57669e-08
-6.96578e-09
1.11518e-08
-6.52387e-08
-6.05139e-09
1.0224e-08
-6.41966e-08
-5.14307e-09
8.86762e-09
-6.24956e-08
-4.32265e-09
7.22379e-09
-5.9967e-08
-3.63364e-09
5.45595e-09
-5.6384e-08
-3.03528e-09
3.70499e-09
-5.12717e-08
-2.44774e-09
2.07214e-09
-4.38979e-08
-1.89398e-09
7.32385e-10
-3.29956e-08
-1.33745e-09
-1.58599e-08
-6.55801e-10
-8.35227e-10
-1.42023e-08
-8.26918e-10
-2.37809e-09
-2.94228e-08
-1.76985e-09
-4.32941e-09
-3.91351e-08
-2.47292e-09
-6.48235e-09
-4.57709e-08
-3.06322e-09
-8.63062e-09
-5.03967e-08
-3.66459e-09
-1.05904e-08
-5.35869e-08
-4.34469e-09
-1.21942e-08
-5.57074e-08
-5.14405e-09
-1.3267e-08
-5.70074e-08
-6.07131e-09
-1.36683e-08
-5.76864e-08
-7.11852e-09
-1.32914e-08
-5.79011e-08
-8.24103e-09
-1.20833e-08
-5.77889e-08
-9.35734e-09
-1.00078e-08
-5.74718e-08
-1.0389e-08
-7.09672e-09
-5.70218e-08
-1.13403e-08
-3.68333e-09
-5.65163e-08
-1.21003e-08
-1.64925e-11
-5.63506e-08
-1.2535e-08
3.63763e-09
-5.62077e-08
-1.24649e-08
7.04128e-09
-5.64868e-08
-1.20924e-08
9.9498e-09
-5.7192e-08
-1.14528e-08
1.20532e-08
-5.75222e-08
-1.04404e-08
1.32919e-08
-5.7812e-08
-9.34458e-09
1.36823e-08
-5.79279e-08
-8.22937e-09
1.32876e-08
-5.77237e-08
-7.12023e-09
1.22186e-08
-5.7052e-08
-6.0755e-09
1.06231e-08
-5.57549e-08
-5.14519e-09
8.65822e-09
-5.36442e-08
-4.35802e-09
6.49452e-09
-5.05018e-08
-3.71856e-09
4.3438e-09
-4.59714e-08
-3.14962e-09
2.40303e-09
-3.94038e-08
-2.55341e-09
8.41804e-10
-2.96233e-08
-1.81115e-09
-1.41927e-08
-8.25452e-10
-9.2761e-10
-1.23337e-08
-9.41081e-10
-2.68243e-09
-2.56394e-08
-2.02868e-09
-4.87941e-09
-3.41463e-08
-2.79182e-09
-7.27975e-09
-3.99398e-08
-3.43092e-09
-9.66889e-09
-4.39326e-08
-4.07508e-09
-1.1844e-08
-4.66104e-08
-4.80137e-09
-1.36089e-08
-4.82954e-08
-5.64721e-09
-1.47786e-08
-4.92144e-08
-6.62318e-09
-1.51952e-08
-4.95481e-08
-7.72175e-09
-1.4741e-08
-4.94519e-08
-8.90353e-09
-1.33533e-08
-4.90751e-08
-1.01015e-08
-1.10341e-08
-4.85658e-08
-1.12253e-08
-7.83654e-09
-4.80252e-08
-1.21941e-08
-4.03914e-09
-4.74183e-08
-1.28952e-08
-1.10491e-11
-4.70628e-08
-1.33156e-08
4.02582e-09
-4.69719e-08
-1.32723e-08
7.81202e-09
-4.73575e-08
-1.29153e-08
1.09943e-08
-4.80803e-08
-1.2294e-08
1.33303e-08
-4.85888e-08
-1.12695e-08
1.4733e-08
-4.90984e-08
-1.01163e-08
1.51992e-08
-4.94788e-08
-8.91522e-09
1.47901e-08
-4.9581e-08
-7.73352e-09
1.36255e-08
-4.92533e-08
-6.63413e-09
1.18653e-08
-4.83398e-08
-5.65488e-09
9.69093e-09
-4.66597e-08
-4.81023e-09
7.2862e-09
-4.39938e-08
-4.10336e-09
4.86009e-09
-4.00419e-08
-3.50343e-09
2.65736e-09
-3.43034e-08
-2.8977e-09
9.21934e-10
-2.57897e-08
-2.09822e-09
-1.23261e-08
-9.44655e-10
-9.70102e-10
-1.03514e-08
-1.01217e-09
-2.85705e-09
-2.15711e-08
-2.1814e-09
-5.20457e-09
-2.88303e-08
-2.96859e-09
-7.75503e-09
-3.37559e-08
-3.63347e-09
-1.02912e-08
-3.7097e-08
-4.29956e-09
-1.25935e-08
-3.92686e-08
-5.03958e-09
-1.4453e-08
-4.0544e-08
-5.89184e-09
-1.56743e-08
-4.11238e-08
-6.86922e-09
-1.60897e-08
-4.11729e-08
-7.9597e-09
-1.55774e-08
-4.08399e-08
-9.12437e-09
-1.40768e-08
-4.02679e-08
-1.0308e-08
-1.15905e-08
-3.96081e-08
-1.14442e-08
-8.24318e-09
-3.89485e-08
-1.2424e-08
-4.24334e-09
-3.83305e-08
-1.30873e-08
-5.89416e-12
-3.7895e-08
-1.34048e-08
4.24496e-09
-3.78581e-08
-1.33644e-08
8.22831e-09
-3.82931e-08
-1.30476e-08
1.15632e-08
-3.89816e-08
-1.24337e-08
1.40534e-08
-3.96257e-08
-1.14534e-08
1.55645e-08
-4.02864e-08
-1.03232e-08
1.60871e-08
-4.08615e-08
-9.13988e-09
1.56803e-08
-4.12004e-08
-7.97367e-09
1.44656e-08
-4.11566e-08
-6.88198e-09
1.2609e-08
-4.05815e-08
-5.90164e-09
1.03079e-08
-3.93105e-08
-5.04819e-09
7.76859e-09
-3.71438e-08
-4.31086e-09
5.20219e-09
-3.38147e-08
-3.66085e-09
2.84715e-09
-2.89278e-08
-3.02061e-09
9.78663e-10
-2.17057e-08
-2.21547e-09
-1.03397e-08
-1.00773e-09
-1.00117e-09
-8.32045e-09
-1.02981e-09
-2.9246e-09
-1.74429e-08
-2.20478e-09
-5.3188e-09
-2.34177e-08
-3.0185e-09
-7.92721e-09
-2.7455e-08
-3.69266e-09
-1.05213e-08
-3.01506e-08
-4.35243e-09
-1.28737e-08
-3.18411e-08
-5.0752e-09
-1.47667e-08
-3.27506e-08
-5.90032e-09
-1.59993e-08
-3.3052e-08
-6.83921e-09
-1.64018e-08
-3.28925e-08
-7.87796e-09
-1.58553e-08
-3.24045e-08
-8.98189e-09
-1.42938e-08
-3.1726e-08
-1.01036e-08
-1.17365e-08
-3.0982e-08
-1.11835e-08
-8.37263e-09
-3.02418e-08
-1.20705e-08
-4.36795e-09
-2.96587e-08
-1.26763e-08
-3.45163e-11
-2.92796e-08
-1.29486e-08
4.27863e-09
-2.92392e-08
-1.29317e-08
8.26758e-09
-2.96122e-08
-1.26697e-08
1.16846e-08
-3.02832e-08
-1.21156e-08
1.42689e-08
-3.09985e-08
-1.12116e-08
1.5839e-08
-3.17363e-08
-1.01203e-08
1.63955e-08
-3.24199e-08
-8.99804e-09
1.60006e-08
-3.29128e-08
-7.89256e-09
1.47741e-08
-3.3078e-08
-6.85195e-09
1.28845e-08
-3.27802e-08
-5.91173e-09
1.05335e-08
-3.18739e-08
-5.08577e-09
7.93879e-09
-3.01868e-08
-4.36226e-09
5.32531e-09
-2.74952e-08
-3.70616e-09
2.91894e-09
-2.34713e-08
-3.05014e-09
9.91827e-10
-1.75272e-08
-2.25137e-09
-8.31506e-09
-1.03276e-09
-9.92804e-10
-6.32042e-09
-1.00721e-09
-2.87703e-09
-1.34051e-08
-2.1536e-09
-5.23596e-09
-1.81009e-08
-2.9578e-09
-7.81604e-09
-2.12649e-08
-3.61005e-09
-1.03874e-08
-2.33402e-08
-4.2392e-09
-1.2722e-08
-2.45855e-08
-4.92114e-09
-1.45974e-08
-2.51819e-08
-5.69335e-09
-1.58125e-08
-2.52709e-08
-6.56583e-09
-1.6201e-08
-2.49765e-08
-7.52737e-09
-1.56431e-08
-2.44178e-08
-8.54457e-09
-1.40826e-08
-2.37114e-08
-9.57519e-09
-1.15672e-08
-2.29565e-08
-1.05411e-08
-8.25667e-09
-2.22411e-08
-1.13113e-08
-4.32891e-09
-2.17083e-08
-1.1878e-08
-3.95732e-11
-2.14123e-08
-1.21563e-08
4.22404e-09
-2.13678e-08
-1.21348e-08
8.15708e-09
-2.16722e-08
-1.18729e-08
1.15125e-08
-2.22763e-08
-1.13623e-08
1.40568e-08
-2.29735e-08
-1.05695e-08
1.56243e-08
-2.3717e-08
-9.58692e-09
1.61895e-08
-2.44271e-08
-8.55802e-09
1.58105e-08
-2.49917e-08
-7.54208e-09
1.46012e-08
-2.52891e-08
-6.57949e-09
1.27291e-08
-2.52036e-08
-5.70451e-09
1.03969e-08
-2.46105e-08
-4.93119e-09
7.82639e-09
-2.33676e-08
-4.24886e-09
5.24354e-09
-2.12928e-08
-3.61954e-09
2.87786e-09
-1.81338e-08
-2.97187e-09
9.81818e-10
-1.34504e-08
-2.18077e-09
-6.32375e-09
-1.00946e-09
-9.3789e-10
-4.43907e-09
-9.43421e-10
-2.71969e-09
-9.60332e-09
-2.01989e-09
-4.96419e-09
-1.30819e-08
-2.77456e-09
-7.4358e-09
-1.54143e-08
-3.37907e-09
-9.91316e-09
-1.69077e-08
-3.95526e-09
-1.21716e-08
-1.77524e-08
-4.57485e-09
-1.39895e-08
-1.80881e-08
-5.27597e-09
-1.51689e-08
-1.8026e-08
-6.06529e-09
-1.55455e-08
-1.76677e-08
-6.93203e-09
-1.50043e-08
-1.71086e-08
-7.85033e-09
-1.34913e-08
-1.64399e-08
-8.78449e-09
-1.10839e-08
-1.57434e-08
-9.62071e-09
-7.90499e-09
-1.51207e-08
-1.02994e-08
-4.14003e-09
-1.46614e-08
-1.08118e-08
-3.48635e-11
-1.44255e-08
-1.10918e-08
4.04797e-09
-1.43892e-08
-1.10611e-08
7.82027e-09
-1.46383e-08
-1.08061e-08
1.10332e-08
-1.51421e-08
-1.03472e-08
1.34656e-08
-1.57566e-08
-9.64934e-09
1.49837e-08
-1.6446e-08
-8.78915e-09
1.55323e-08
-1.71142e-08
-7.86146e-09
1.51638e-08
-1.76769e-08
-6.94607e-09
1.39911e-08
-1.80381e-08
-6.07816e-09
1.2177e-08
-1.81026e-08
-5.28686e-09
9.9208e-09
-1.77697e-08
-4.58466e-09
7.44243e-09
-1.69259e-08
-3.96341e-09
4.9697e-09
-1.54333e-08
-3.38687e-09
2.72344e-09
-1.31045e-08
-2.78305e-09
9.35998e-10
-9.63076e-09
-2.03217e-09
-4.44298e-09
-9.4474e-10
-8.36449e-10
-2.76488e-09
-8.37665e-10
-2.4431e-09
-6.19743e-09
-1.79917e-09
-4.49969e-09
-8.56199e-09
-2.46331e-09
-6.7911e-09
-1.01363e-08
-2.98672e-09
-9.11087e-09
-1.11037e-08
-3.48447e-09
-1.12428e-08
-1.15995e-08
-4.02113e-09
-1.29692e-08
-1.1729e-08
-4.63285e-09
-1.4097e-08
-1.15738e-08
-5.32432e-09
-1.44683e-08
-1.12096e-08
-6.08658e-09
-1.39727e-08
-1.07071e-08
-6.89685e-09
-1.2567e-08
-1.0132e-08
-7.7136e-09
-1.03264e-08
-9.55828e-09
-8.42592e-09
-7.35964e-09
-9.05659e-09
-9.031e-09
-3.84828e-09
-8.68735e-09
-9.48542e-09
-2.99743e-11
-8.49813e-09
-9.74546e-09
3.77004e-09
-8.47675e-09
-9.71223e-09
7.2824e-09
-8.67383e-09
-9.47664e-09
1.02698e-08
-9.06344e-09
-9.06606e-09
1.25343e-08
-9.56359e-09
-8.45753e-09
1.39514e-08
-1.01361e-08
-7.72716e-09
1.44542e-08
-1.07104e-08
-6.90653e-09
1.40906e-08
-1.12145e-08
-6.09864e-09
1.29688e-08
-1.15806e-08
-5.3356e-09
1.12458e-08
-1.17376e-08
-4.64186e-09
9.11566e-09
-1.16095e-08
-4.03005e-09
6.79575e-09
-1.11147e-08
-3.49128e-09
4.50494e-09
-1.01499e-08
-2.99265e-09
2.44958e-09
-8.58169e-09
-2.46745e-09
8.38586e-10
-6.21772e-09
-1.80202e-09
-2.76743e-09
-8.36917e-10
-6.8444e-10
-1.39682e-09
-6.83518e-10
-2.04354e-09
-3.36868e-09
-1.46956e-09