/*--------------------------------*- C++ -*----------------------------------*\
| =========                 |                                                 |
| \\      /  F ield         | OpenFOAM: The Open Source CFD Toolbox           |
|  \\    /   O peration     | Version:  v1906                                 |
|   \\  /    A nd           | Web:      www.OpenFOAM.com                      |
|    \\/     M anipulation  |                                                 |
\*---------------------------------------------------------------------------*/
FoamFile
{
    version     2.0;
    format      ascii;
    class       volScalarField;
    location    "0.19/oil";
    object      wallHeatFlux;
}
// * * * * * * * * * * * * * * * * * * * * * * * * * * * * * * * * * * * * * //

dimensions      [1 0 -3 0 0 0 0];


internalField   uniform 0;

boundaryField
{
    maxY
    {
        type            calculated;
        value           uniform 0;
    }
    minX
    {
        type            calculated;
        value           uniform 0;
    }
    maxX
    {
        type            calculated;
        value           uniform 0;
    }
    minY
    {
        type            calculated;
        value           uniform 0;
    }
    minZ
    {
        type            calculated;
        value           uniform 0;
    }
    maxZ
    {
        type            calculated;
        value           uniform 0;
    }
    oil_to_sphere
    {
        type            calculated;
        value           nonuniform List<scalar> 
1536
(
944639
824212
834355
990883
1.09523e+06
1.0289e+06
974373
976858
891399
584911
1.10413e+06
594600
634121
633871
1.04021e+06
1.11149e+06
976312
891892
259113
631476
667784
1.04892e+06
966645
1.11288e+06
1.11752e+06
1.11503e+06
1.11022e+06
1.11526e+06
824052
874356
805253
854609
884607
1.10902e+06
1.11144e+06
1.10487e+06
1.08727e+06
1.08641e+06
1.09875e+06
1.08849e+06
1.10187e+06
1.11086e+06
899717
668878
879492
663546
961786
976825
1.0592e+06
977295
1.04162e+06
962771
961880
962569
831142
844075
1.02285e+06
979537
887372
635800
660539
653060
664051
241268
238871
671353
879565
628711
972299
874147
1.11399e+06
1.06861e+06
1.00868e+06
1.1111e+06
1.11303e+06
937070
822565
995822
1.11146e+06
875758
646712
675340
598359
616029
615407
610051
546808
967040
887591
649713
649931
257011
255555
251505
241341
669991
875813
608950
630361
963172
873266
1.11314e+06
913302
848034
1.05139e+06
1.11216e+06
1.11428e+06
1.00771e+06
1.05396e+06
923242
857462
855196
635874
688382
576448
545339
561362
625565
571342
623857
861495
648555
265561
656760
957182
892017
969044
868683
981512
1.05966e+06
957821
1.05111e+06
964644
1.05151e+06
960003
1.05369e+06
956011
856673
954802
985689
647385
663839
980643
876473
646464
878768
1.01113e+06
780290
777008
958014
1.03236e+06
784694
1.04157e+06
1.03197e+06
1.02915e+06
785033
1.02566e+06
741415
1.00749e+06
751679
920174
776644
1.08946e+06
1.0977e+06
1.10477e+06
1.08506e+06
1.03608e+06
744906
1.01461e+06
747670
888289
878713
854605
832918
883981
836037
977291
793120
832423
952951
1.09198e+06
1.09417e+06
1.08839e+06
1.0886e+06
832541
981018
783340
869864
889519
871246
895451
991736
815831
926270
1.12661e+06
1.05368e+06
898005
960991
854624
1.03815e+06
1.01678e+06
1.0383e+06
889861
773825
792922
819092
825670
847960
918260
773301
924255
841299
858703
563839
608113
587096
553079
628812
630078
474862
699203
739411
777958
684994
683701
799619
1.03915e+06
793708
1.01395e+06
1.11062e+06
1.11259e+06
1.05249e+06
1.05198e+06
834129
755742
920031
782100
804620
769359
863415
814610
339584
404178
639338
515569
773812
800700
613121
606843
550076
797037
1.0805e+06
1.0182e+06
1.03863e+06
787114
1.09027e+06
1.09782e+06
938127
850064
852174
929653
746957
840515
408233
338936
325588
364661
394190
728578
702574
783335
731409
712757
787790
792499
637144
572116
529696
793524
803435
990573
939381
825386
789932
887384
919655
901125
1.05425e+06
990608
874405
971799
790761
1.0079e+06
776373
774828
823130
843349
790610
864555
883964
977949
913523
839318
821996
765661
927499
764699
1.09022e+06
1.08734e+06
782368
964656
737269
832738
850963
804087
801778
896820
870395
887066
739750
805273
808825
827650
921205
728046
742222
779476
708296
777436
617596
772488
745823
909640
819229
796020
870617
740556
782310
779419
594182
528419
726493
710522
754339
723815
734819
772175
798613
796754
858790
914346
946261
810174
968892
822062
897419
874091
860160
1.037e+06
821695
975274
912440
816683
1.03944e+06
901689
907770
1.02694e+06
989195
1.03217e+06
871624
820581
1.00183e+06
911410
863131
1.04065e+06
885551
972992
1.03246e+06
892406
784119
989906
846224
939160
835382
878105
1.04038e+06
896635
798039
976785
891384
919840
839805
815507
869280
871978
855400
973425
799415
936803
844248
1.04073e+06
908398
761956
961425
935161
855375
978837
837382
908141
861620
865312
821107
835014
866615
842614
788353
837680
794539
927555
856102
869875
860774
755824
721507
813766
763323
734363
792322
622418
621913
876912
778322
805006
808144
784829
785323
779581
605538
565830
604154
710900
761215
775751
710562
746284
880121
841788
907503
941932
847816
864935
844270
766954
370330
378800
357753
375794
382230
377225
372714
332196
367818
300363
390809
690313
733487
771969
725615
776479
884541
807337
812543
790640
598330
918500
814994
862577
735583
896781
773380
750523
767410
813930
610014
806219
911745
821465
922731
737748
933612
727824
984307
1.10236e+06
1.09669e+06
1.10405e+06
1.0607e+06
1.04861e+06
1.03027e+06
1.09526e+06
1.0916e+06
948052
777640
1.09743e+06
1.08149e+06
793774
755061
972514
1.08739e+06
1.04212e+06
816369
1.02174e+06
1.06621e+06
1.09786e+06
1.08734e+06
1.02411e+06
781758
719995
771649
771051
720664
944421
852016
799030
851128
813785
615348
618171
648533
516255
657513
539955
657519
586174
695850
614300
651223
781111
880235
817478
795290
706298
785856
783949
697198
921124
863859
822836
927492
845556
792266
796727
609192
632950
810235
363092
403857
373743
402561
384483
374304
374840
325866
391581
391835
350255
383497
382050
365799
406389
360001
308337
358397
392403
385548
399997
378400
328579
801751
609187
542128
922522
805621
749867
781996
713323
760009
741388
696160
881330
747826
793728
813341
790514
795673
608273
593706
911601
842758
734009
924485
752799
698143
766911
663376
860382
900684
727853
800910
760492
807147
993471
714012
1.09103e+06
1.10214e+06
767812
822635
941413
1.04491e+06
1.09497e+06
899153
1.02685e+06
1.09452e+06
1.09149e+06
1.09691e+06
1.04425e+06
1.08334e+06
1.09301e+06
818692
805643
978829
779132
948204
787438
786450
805034
1.06183e+06
1.10613e+06
1.02535e+06
843600
1.08676e+06
832736
1.03696e+06
1.01551e+06
764356
1.03791e+06
785155
811484
652337
528295
619713
893202
790968
801587
789523
754935
779230
775864
714679
800646
737954
722145
611661
626524
560747
644381
646480
527743
638158
628596
491853
613733
700272
663972
584371
582485
939493
843575
808653
746812
852488
785575
797277
618408
557503
813073
883294
867849
909182
741349
799336
756713
839909
763316
712252
780247
680516
705347
381408
379589
377972
358986
380981
391387
402449
346056
401058
806950
802377
847644
862799
827949
849198
863576
772182
785960
609204
788075
796794
761510
878241
801085
822773
854816
931468
905316
780370
711816
762589
702211
794353
766715
818495
760686
933925
911512
783917
820669
760357
872584
792706
847698
844356
891819
825800
878291
917502
794744
888438
1.04517e+06
996124
879359
1.01362e+06
854185
946826
937097
846539
889681
971418
1.03324e+06
839294
980127
906091
834873
1.03567e+06
994971
900100
985828
1.01529e+06
833573
825419
995915
932428
850080
999046
1.03675e+06
993286
1.00596e+06
992581
814504
922607
828043
892699
855579
881464
805877
971209
1.04354e+06
795633
973945
934844
899300
896428
872417
1.02405e+06
1.02461e+06
874325
801302
1.02679e+06
890209
915247
964086
833829
960605
850913
882985
876998
803525
1.04088e+06
983477
999407
851301
891420
837942
973465
938482
842602
876758
825461
819271
797261
882494
831157
900711
709834
768426
787949
746124
786286
800755
620522
612059
814899
766840
886874
832233
803156
832194
930249
949162
857476
842770
808334
820594
777901
814313
620539
552395
823431
683386
748547
802045
726082
734414
853485
759158
917996
846510
836788
837014
833370
752134
883332
790058
850160
969369
907860
932663
554789
756162
535785
586816
741367
1.0184e+06
826929
741555
912922
1.05983e+06
887585
977145
609635
422236
1.0053e+06
909522
987835
595287
399938
642105
757748
1.00085e+06
1.05185e+06
657014
934608
987119
931803
1.09109e+06
819656
1.03493e+06
970784
891441
926950
1.0556e+06
921587
920428
1.03609e+06
943638
1.04944e+06
954795
1.01718e+06
895517
916797
1.03882e+06
832930
1.09335e+06
834771
1.0662e+06
920324
1.00498e+06
934961
945155
1.02667e+06
881964
1.08708e+06
831236
925763
1.05572e+06
862692
1.08475e+06
1.08964e+06
1.08948e+06
967871
973503
1.06208e+06
1.0401e+06
1.05729e+06
835349
934460
1.04664e+06
875533
980296
607493
623685
926894
762077
938595
615363
726816
1.04407e+06
957323
1.01975e+06
866400
981190
1.05286e+06
836316
969022
992484
970921
855919
975233
773339
953711
610507
755383
624229
602666
413401
591977
419655
407766
600141
541275
402339
645653
980956
804153
987619
848848
932379
1.09921e+06
794716
1.04701e+06
825557
909518
905154
816008
1.05238e+06
833437
855543
1.01793e+06
763152
949004
984029
788888
735571
559668
545060
942004
781764
417117
420099
426515
631718
404325
579032
373467
545259
401059
562723
376785
573663
969409
777382
993447
557126
548075
770378
741239
843540
942915
812071
1.10062e+06
816450
789244
1.01516e+06
816680
916073
1.06999e+06
838433
1.10806e+06
801715
838213
808100
1.00938e+06
937297
924260
987760
793421
574046
733564
564426
935738
753601
395884
428356
382891
637190
820321
934035
727066
933848
1.04371e+06
842179
962987
978363
984576
1.00501e+06
869003
973456
991998
976218
771885
915425
764908
953453
1.04594e+06
1.07836e+06
1.1028e+06
954875
873546
1.05184e+06
1.13016e+06
748720
1.0571e+06
998011
837344
1.03184e+06
1.10218e+06
790864
999011
956939
828166
1.1001e+06
1.03499e+06
1.09568e+06
793309
1.00391e+06
989632
831129
1.09514e+06
963216
840543
1.10226e+06
985041
865612
1.07775e+06
1.0876e+06
1.02931e+06
1.05524e+06
1.04133e+06
1.08329e+06
1.08125e+06
1.08539e+06
754104
1.01751e+06
1.12154e+06
796002
1.01594e+06
1.01539e+06
1.08493e+06
934143
856152
1.10973e+06
975405
879989
1.06797e+06
1.09284e+06
1.04551e+06
1.0389e+06
1.07115e+06
812660
1.01135e+06
1.11727e+06
798908
994216
1.02114e+06
1.00015e+06
1.07313e+06
1.04344e+06
1.08237e+06
1.07833e+06
1.06519e+06
832972
798279
844689
790946
1.00262e+06
802013
894781
990336
1.01728e+06
1.01601e+06
1.0239e+06
1.01542e+06
927776
874166
802273
826781
891946
866031
838312
876061
733605
591773
544021
822355
1.09812e+06
1.04074e+06
1.02474e+06
756258
721216
969143
831777
1.11184e+06
997781
808679
766936
824320
628393
606224
655816
647656
506372
371660
798837
836419
799815
857223
756583
975631
826544
1.05028e+06
1.08499e+06
901868
942459
653460
512364
385884
419662
628888
748306
551362
555360
777226
749536
708227
726448
808296
763471
1.03694e+06
806745
769262
914066
1.02903e+06
976319
811080
830314
896927
823328
883606
777186
621235
972683
923928
941664
942196
991567
981448
975667
773929
1.01036e+06
1.07505e+06
1.04046e+06
1.09134e+06
1.08858e+06
1.06579e+06
908104
602638
643110
875799
833575
847128
779029
733802
699696
850131
834040
806312
778616
857121
798550
828578
812346
853193
797405
930089
741884
813564
880575
762168
542088
788525
759165
889320
917756
809031
751291
727337
581485
735057
862395
848287
799111
797657
798624
844133
814136
951964
1.00067e+06
797716
880581
1.00351e+06
1.00403e+06
1.02524e+06
1.00601e+06
1.02334e+06
1.03259e+06
806045
910059
1.02976e+06
1.01523e+06
994823
1.00139e+06
986777
841098
861706
1.01922e+06
952181
1.02583e+06
1.00247e+06
892497
910592
1.03202e+06
1.06402e+06
826957
921184
973519
976797
1.01369e+06
916815
1.0229e+06
1.02151e+06
893885
885482
924144
809365
821436
721176
724129
889672
793297
797427
763587
554514
555505
763818
945476
804739
805908
808001
759361
728036
605881
802115
801975
713445
618886
649822
375512
544234
642716
378068
523865
408391
378578
642497
697345
407279
569035
410242
360590
409108
635781
598701
937905
781367
570707
747165
954804
751784
799488
802059
845687
794276
859235
762688
892260
919033
756132
859028
753985
818704
829028
885953
1.11971e+06
725121
1.05506e+06
1.0756e+06
807603
1.0277e+06
1.0272e+06
960155
822506
1.00511e+06
811976
1.09253e+06
785643
1.01426e+06
997572
1.10352e+06
1.01069e+06
1.08161e+06
1.07678e+06
757333
1.0729e+06
964918
908541
932436
772218
570049
574070
905793
812523
815078
768413
959997
755551
764278
571420
895186
766523
367292
353198
414598
393886
424940
403422
407740
615170
369138
434654
613405
608112
645007
651341
545668
396882
378514
396401
625719
611226
444965
684332
644351
548293
951064
765928
894204
759718
563979
770504
967080
783205
827769
835020
836148
894686
735348
823326
930584
867201
818690
1.02589e+06
1.02372e+06
1.03658e+06
1.10842e+06
1.11432e+06
1.02738e+06
1.08649e+06
795263
959331
828397
1.00952e+06
1.08482e+06
1.02384e+06
1.11757e+06
1.06683e+06
992634
1.004e+06
1.09287e+06
965706
875233
953966
841855
822002
819616
769163
989579
813941
757987
585047
898836
768100
963528
740326
421994
417410
407351
619770
770269
881116
759681
882890
837120
871397
747489
833511
848601
935780
739776
842682
883166
722173
776256
828034
844793
891476
934749
826170
862211
861029
975818
1.02318e+06
1.01096e+06
733476
912035
1.00519e+06
1.0157e+06
1.02279e+06
992110
791090
1.01966e+06
1.02433e+06
823350
1.01905e+06
1.0627e+06
891562
1.0061e+06
1.02286e+06
1.03067e+06
1.03308e+06
898695
1.02262e+06
1.03296e+06
1.01806e+06
1.01685e+06
703176
844572
773881
560735
760911
944453
757303
911279
762858
719795
892191
959961
)
;
    }
}


// ************************************************************************* //
