/*--------------------------------*- C++ -*----------------------------------*\
| =========                 |                                                 |
| \\      /  F ield         | OpenFOAM: The Open Source CFD Toolbox           |
|  \\    /   O peration     | Version:  v1906                                 |
|   \\  /    A nd           | Web:      www.OpenFOAM.com                      |
|    \\/     M anipulation  |                                                 |
\*---------------------------------------------------------------------------*/
FoamFile
{
    version     2.0;
    format      ascii;
    class       volScalarField;
    location    "85.2/sphere";
    object      T;
}
// * * * * * * * * * * * * * * * * * * * * * * * * * * * * * * * * * * * * * //

dimensions      [0 0 0 1 0 0 0];


internalField   nonuniform List<scalar> 
304
(
456.039
456.067
456.061
456.078
456.037
456.026
456.039
456.068
456.038
456.175
456.176
456.078
456.06
456.168
456.169
456.102
456.061
456.093
456.022
456.066
456.083
456.039
456.067
456.176
456.175
456.107
456.078
456.169
456.169
456.127
456.024
456.093
456.12
456.057
456.04
456.08
456.107
456.043
456.039
456.102
456.127
456.065
456.023
456.057
456.012
456.027
456.04
456.04
456.041
456.073
456.04
456.04
456.073
456.042
456.027
456.039
456.043
456.039
456.071
456.067
456.066
456.08
456.079
456.108
456.106
456.13
456.039
456.081
456.066
456.108
456.079
456.13
456.106
456.039
456.042
456.072
456.04
456.033
456.033
456.064
456.025
456.077
456.024
456.056
456.1
456.126
456.064
456.096
456.063
456.057
456.027
456.127
456.102
456.097
456.066
456.066
456.035
456.026
456.01
456.025
456.021
456.056
456.021
456.056
456.022
456.021
456.01
456.04
456.039
456.039
456.071
456.068
456.079
456.108
456.067
456.083
456.108
456.133
456.04
456.108
456.079
456.083
456.068
456.133
456.108
456.041
456.04
456.072
456.04
456.078
456.065
456.106
456.066
456.107
456.081
456.13
456.038
456.106
456.067
456.107
456.067
456.13
456.081
456.1
456.025
456.065
456.078
456.126
456.056
456.096
456.062
456.066
456.027
456.127
456.078
456.097
456.057
456.023
456.025
456.056
456.022
456.093
456.02
456.051
456.093
456.12
456.05
456.068
456.062
456.051
456.019
456.12
456.093
456.068
456.051
456.056
456.024
456.021
456.038
456.04
456.072
456.043
456.083
456.108
456.133
456.039
456.067
456.08
456.108
456.067
456.133
456.107
456.067
456.037
456.107
456.077
456.071
456.039
456.039
456.108
456.081
456.13
456.041
456.081
456.067
456.107
456.067
456.13
456.081
456.078
456.04
456.106
456.066
456.127
456.057
456.097
456.064
456.103
456.028
456.067
456.078
456.097
456.058
456.101
456.062
456.067
456.027
456.055
456.021
456.023
456.12
456.051
456.069
456.062
456.094
456.02
456.052
456.094
456.069
456.052
456.094
456.064
456.052
456.023
456.026
456.022
456.024
456.03
456.038
456.042
456.072
456.039
456.071
456.04
456.038
456.026
456.045
456.041
456.073
456.041
456.107
456.107
456.13
456.041
456.067
456.067
456.081
456.078
456.13
456.106
456.066
456.038
456.081
456.066
456.071
456.04
456.038
456.068
456.029
456.035
456.127
456.067
456.097
456.062
456.078
456.027
456.058
456.101
456.097
456.067
456.078
456.061
456.058
456.027
456.034
456.027
456.033
456.012
456.057
456.022
456.026
456.024
456.023
456.025
)
;

boundaryField
{
    sphere_to_oil
    {
        type            compressible::turbulentTemperatureCoupledBaffleMixed;
        refValue        nonuniform List<scalar> 
360
(
331.698
331.698
322.096
355.001
362.046
324.972
363.052
363.052
363.052
341.993
341.993
328.972
333.61
321.032
341.466
349.699
345.658
345.658
345.658
322.426
344.584
324.149
328.031
357.693
317.443
357.923
323.021
357.92
357.92
357.92
363.568
356.607
322
321.666
328.722
328.809
346.554
346.554
346.554
345.888
347.023
322.804
324.5
332.154
332.154
322.835
331.169
314.817
331.302
358.248
324.9
325.023
332.894
333.45
322.188
323.914
346.05
322.523
324.565
333.554
317.24
359.033
359.033
359.033
314.865
357.615
331.21
323.275
361.574
361.574
361.574
362.499
361.272
320.176
345.563
340.851
322.088
327.312
346.982
346.604
328.785
320.368
328.47
317.118
321.988
324.54
328.913
333.32
321.591
322.665
322.225
332.346
328.531
322.334
331.99
328.514
329.143
329.359
325.323
316.844
316.958
322.246
324.916
328.523
332.258
322.171
320.921
333.518
324.957
329.314
329.172
329.183
325.284
322.429
315.024
314.984
327.922
323.474
328.951
331.602
331.602
355.001
355.001
357.693
357.693
355.455
355.455
355.455
357.048
357.048
357.048
328.32
323.713
327.862
323.196
362.046
362.046
338.813
338.813
363.568
363.568
338.24
338.24
362.956
362.956
362.956
322.863
322.654
350.226
350.226
350.226
350.048
350.048
350.048
349.699
344.584
341.466
349.699
349.879
322.467
349.879
349.879
328.074
328.896
320.488
324.245
324.245
348.246
348.246
348.246
317.195
344.584
324.149
347.431
347.431
317.08
347.431
328.88
320.41
314.894
323.041
323.372
331.776
317.329
331.231
323.299
314.944
317.057
357.923
357.923
356.607
356.607
332.544
332.544
355.028
355.028
355.028
331.037
331.037
316.709
328.011
325.31
332.439
328.247
324.642
332.274
325.019
333.58
329.386
324.819
345.888
333.374
329.46
322.57
347.682
347.682
347.682
324.646
324.646
317.117
324.695
324.508
333.343
347.023
322.721
333.273
324.82
345.888
347.023
324.439
322.512
324.439
317.441
314.934
331.095
317.367
323.187
323.079
323.329
317.196
316.643
358.973
354.012
358.973
358.973
354.012
354.012
358.248
357.615
331.302
356.245
316.875
358.248
356.245
356.245
331.665
321.785
328.295
332.195
322.351
362.499
328.338
329.025
328.945
325.112
346.05
345.563
329.34
329.033
325.256
345.645
349.696
323.914
347.317
317.236
346.05
347.317
347.317
333.779
322.699
346.982
324.616
324.797
324.482
347.355
322.683
347.094
324.291
345.645
324.291
347.355
345.645
347.355
314.769
323.544
327.451
327.613
331.571
355.125
331.571
355.125
355.125
316.693
357.615
356.199
331.21
356.199
316.722
356.199
328.444
328.176
321.677
360.601
338.93
360.601
360.601
338.93
322.225
324.576
328.075
332.142
361.272
362.499
338.457
322.866
361.272
338.457
322.133
345.563
350.168
340.851
350.168
321.405
350.168
333.601
346.604
325.137
329.586
349.46
346.258
349.696
340.441
349.696
349.46
340.441
349.46
320.303
328.355
346.982
324.241
317.173
346.604
324.241
322.783
347.094
346.258
347.094
324.303
346.258
324.303
)
;
        refGradient     uniform 0;
        valueFraction   nonuniform List<scalar> 
360
(
0.00013981
0.000134128
8.58702e-05
0.00030676
0.00031461
0.000180403
0.000316565
0.000271731
0.000422955
0.000134669
0.0001313
0.000176143
0.000268447
7.67554e-05
0.000137303
0.000266904
0.000305867
0.00028579
0.000401029
7.02365e-05
0.00026331
0.000129446
0.000119304
0.000316583
9.19171e-05
0.00032541
0.00018343
0.000321208
0.000420361
0.000281195
0.000321262
0.000324029
8.70096e-05
8.60375e-05
0.000180555
0.000177683
0.000300662
0.00040761
0.000279899
0.000420854
0.000415716
8.87682e-05
0.000176072
0.000128501
0.000128347
0.000181246
0.00027116
7.23453e-05
0.000129448
0.000274489
0.000178798
0.000179959
0.000268247
0.00026564
7.50515e-05
0.000137297
0.000279983
7.18974e-05
0.000178114
0.000265603
7.03753e-05
0.000312671
0.000276015
0.000431989
7.25522e-05
0.000282214
0.000131642
0.000127324
0.000319897
0.000417316
0.000280719
0.000402425
0.000408058
7.79362e-05
0.000272083
0.000138029
7.18549e-05
0.000128849
0.000407211
0.000423017
0.000126376
0.000123992
0.000121786
7.23799e-05
8.72799e-05
0.000176949
0.000177941
0.000269471
8.13434e-05
6.86836e-05
8.63788e-05
0.00026903
0.000177603
8.82366e-05
0.000268586
0.000179631
0.000178569
0.000178845
8.72133e-05
6.99056e-05
7.08862e-05
6.99429e-05
0.000179809
0.000176727
0.000268827
7.91472e-05
6.8748e-05
0.000268633
8.53414e-05
0.000177008
0.00017704
0.000180652
8.83374e-05
7.0737e-05
6.89854e-05
7.03182e-05
0.000122399
0.000122546
0.000127306
0.000138045
0.000129744
0.00026808
0.000422307
0.00028244
0.000426191
0.000273192
0.000420008
0.000312723
0.000273412
0.000410866
0.000307981
0.000125622
0.0001188
0.000121681
6.7173e-05
0.000278584
0.000419438
0.000129775
0.000130368
0.000423879
0.000281832
0.000136042
0.000143381
0.000418662
0.000287606
0.000331405
7.39278e-05
6.87982e-05
0.000290381
0.000402398
0.00031896
0.000298984
0.000416329
0.000318927
0.000329282
0.00030331
0.00014188
0.000422899
0.000273167
7.616e-05
0.00041103
0.000307586
0.000117384
0.000123669
0.000122345
0.000129067
0.000134917
0.00042079
0.000277068
0.00032522
7.79785e-05
0.000404782
0.000138799
0.000425639
0.000272481
7.61681e-05
0.000323081
0.000118426
0.000119525
6.98323e-05
0.000183038
0.000182966
0.000270542
9.02185e-05
0.000270951
0.000178283
6.91153e-05
6.71133e-05
0.000423389
0.00026902
0.000418419
0.000278967
0.000133068
0.000124444
0.00042037
0.000262729
0.000303689
0.000123007
0.000142727
7.18049e-05
0.000179821
0.000179658
0.000268423
0.000175756
0.000176661
0.000267366
9.16422e-05
0.000268284
0.000181909
8.91194e-05
0.000301973
0.000267986
0.000180819
7.20624e-05
0.000411203
0.000266577
0.000311897
0.00012994
0.000120754
6.97511e-05
0.000178428
0.000181429
0.000269
0.000305843
8.55389e-05
0.000266448
0.00017402
0.000264686
0.000280211
0.000127197
7.14445e-05
0.000141146
7.23284e-05
6.80813e-05
0.000271996
9.07716e-05
0.00018286
0.000180745
0.000178591
8.96305e-05
6.84657e-05
0.000278102
0.000260589
0.000437466
0.000325629
0.000408132
0.000293245
0.000314305
0.000321804
0.000143043
0.000276069
7.43801e-05
0.000420104
0.000408489
0.000310367
0.000270704
8.6257e-05
0.000176143
0.000267592
8.70294e-05
0.000318852
0.000176905
0.000178172
0.000176529
8.65037e-05
0.000316481
0.00029657
0.000180105
0.000175447
8.81693e-05
0.000297154
0.000327087
0.000129721
0.000293624
6.97355e-05
0.000418322
0.000405566
0.000306451
0.000265613
8.72571e-05
0.000306933
0.000176736
0.000177008
0.000178016
0.000308604
8.80747e-05
0.000315303
0.000132672
0.000271847
0.00013378
0.000277023
0.000422159
0.000414441
6.97004e-05
0.000139672
0.000138022
0.000134998
0.000122941
0.000411308
0.000134275
0.000273444
0.000321994
6.86847e-05
0.000415323
0.000414821
0.0001358
0.00029495
7.19788e-05
0.000316208
0.000120394
0.000118274
7.19195e-05
0.000406789
0.000121576
0.00026678
0.000314195
0.000130341
7.10541e-05
0.000176799
0.000176739
0.000266693
0.00030516
0.000264685
0.000127972
6.88851e-05
0.000269119
0.000142133
7.95573e-05
0.000389999
0.00041878
0.000123769
0.00026602
7.37543e-05
0.000334561
0.000268737
0.000321984
8.80831e-05
0.000177562
0.000310433
0.000300959
0.000283135
0.000126554
0.000414751
0.000413858
0.00015023
0.000276639
0.000121718
0.000123585
0.000278508
0.000137868
7.45417e-05
0.000281672
0.000132754
6.88378e-05
0.000409957
0.000414877
0.000272978
0.000132477
0.000268138
0.000136845
)
;
        value           nonuniform List<scalar> 
360
(
456.041
456.042
456.046
456.027
456.028
456.062
456.028
456.033
456.022
456.036
456.036
456.057
456.063
456.045
456.039
456.027
456.009
456.012
455.995
456.035
456.016
456.028
456.013
456.026
456.045
456.026
456.062
456.027
456.019
456.031
456.027
456.024
456.045
456.045
456.056
456.058
456.011
455.997
456.013
455.995
455.996
456.026
456.046
456.041
456.042
456.061
456.068
456.047
456.041
456.03
456.063
456.062
456.064
456.064
456.032
456.024
456.012
456.035
456.046
456.055
456.031
456.027
456.03
456.019
456.048
456.03
456.042
456.028
456.03
456.024
456.033
456.024
456.023
456.047
456.028
456.042
456.043
456.015
455.997
455.995
456.015
456.014
456.015
456.031
456.048
456.061
456.058
456.063
456.041
456.035
456.046
456.066
456.062
456.044
456.066
456.061
456.057
456.054
456.035
456.049
456.049
456.048
456.062
456.062
456.066
456.047
456.042
456.063
456.032
456.052
456.059
456.053
456.034
456.034
456.049
456.049
456.03
456.029
456.029
456.041
456.043
456.031
456.017
456.031
456.018
456.031
456.018
456.026
456.032
456.019
456.028
456.03
456.03
456.03
456.049
456.031
456.022
456.042
456.043
456.022
456.032
456.042
456.042
456.022
456.032
456.025
456.049
456.042
456.021
456.001
456.009
456.02
456
456.01
456.011
456.012
456.038
456
456.025
456.044
456.001
456.013
456.013
456.013
456.012
456.026
456.022
455.994
456.01
456.003
456.029
455.996
456.021
455.995
456.01
456.029
456.003
456.013
456.012
456.047
456.062
456.061
456.068
456.046
456.068
456.063
456.048
456.048
456.017
456.031
456.017
456.03
456.041
456.042
456.017
456.032
456.026
456.043
456.041
456.049
456.061
456.062
456.066
456.063
456.062
456.066
456.032
456.063
456.052
456.034
456.013
456.064
456.053
456.034
455.997
456.011
456.004
456.026
456.024
456.03
456.046
456.045
456.054
456.004
456.026
456.054
456.047
456.014
456.009
456.026
456.033
456.021
456.03
456.047
456.068
456.045
456.061
456.061
456.062
456.043
456.049
456.03
456.032
456.019
456.026
456.02
456.03
456.025
456.024
456.04
456.03
456.047
456.017
456.017
456.027
456.066
456.048
456.064
456.067
456.047
456.028
456.062
456.053
456.06
456.036
456.012
456.014
456.053
456.059
456.034
456.013
456.011
456.023
456.008
456.03
455.996
455.998
456.006
456.055
456.027
456.005
456.047
456.047
456.047
456.008
456.03
456.007
456.027
456.014
456.023
456.011
455.996
455.998
456.047
456.03
456.031
456.031
456.042
456.019
456.04
456.03
456.028
456.048
456.018
456.017
456.04
456.027
456.047
456.025
456.029
456.03
456.049
456.025
456.045
456.034
456.03
456.044
456.05
456.063
456.063
456.067
456.027
456.034
456.043
456.049
456.031
456.04
456.046
456.005
456.003
456.04
456.026
456.044
456.01
456.064
456.01
456.034
456.054
456.013
456.013
456.023
456.038
456.002
456.002
456.034
456.022
456.015
456.015
456.011
456.023
456.031
456.014
456.027
456.035
455.998
455.997
456.012
456.024
456.015
456.026
)
;
        Tnbr            T;
        thicknessLayers 0();
        kappaLayers     0();
        kappaMethod     solidThermo;
        kappa           none;
        alphaAni        none;
    }
}


// ************************************************************************* //
