/*--------------------------------*- C++ -*----------------------------------*\
| =========                 |                                                 |
| \\      /  F ield         | OpenFOAM: The Open Source CFD Toolbox           |
|  \\    /   O peration     | Version:  v1906                                 |
|   \\  /    A nd           | Web:      www.OpenFOAM.com                      |
|    \\/     M anipulation  |                                                 |
\*---------------------------------------------------------------------------*/
FoamFile
{
    version     2.0;
    format      ascii;
    class       volScalarField;
    location    "12.4/sphere";
    object      T;
}
// * * * * * * * * * * * * * * * * * * * * * * * * * * * * * * * * * * * * * //

dimensions      [0 0 0 1 0 0 0];


internalField   nonuniform List<scalar> 
304
(
492.137
492.173
492.172
492.191
492.14
492.139
492.137
492.174
492.135
492.314
492.314
492.186
492.171
492.313
492.313
492.224
492.186
492.224
492.137
492.172
492.192
492.138
492.174
492.314
492.314
492.224
492.193
492.314
492.314
492.256
492.137
492.224
492.257
492.179
492.139
492.189
492.224
492.138
492.144
492.226
492.256
492.178
492.138
492.179
492.123
492.122
492.14
492.141
492.138
492.18
492.14
492.14
492.181
492.139
492.122
492.139
492.138
492.14
492.18
492.173
492.173
492.191
492.188
492.226
492.225
492.256
492.136
492.192
492.173
492.226
492.187
492.257
492.225
492.139
492.138
492.179
492.14
492.137
492.137
492.178
492.136
492.191
492.133
492.171
492.223
492.256
492.184
492.223
492.173
492.172
492.136
492.256
492.225
492.225
492.186
492.179
492.139
492.137
492.121
492.138
492.136
492.178
492.138
492.179
492.137
492.137
492.12
492.137
492.138
492.138
492.179
492.174
492.187
492.226
492.173
492.192
492.225
492.257
492.138
492.226
492.188
492.192
492.174
492.257
492.225
492.138
492.139
492.179
492.14
492.187
492.172
492.225
492.173
492.225
492.192
492.257
492.134
492.225
492.173
492.225
492.173
492.256
492.192
492.224
492.134
492.186
492.192
492.256
492.172
492.224
492.173
492.186
492.135
492.256
492.191
492.225
492.172
492.138
492.138
492.179
492.138
492.224
492.135
492.172
492.224
492.256
492.172
492.192
492.186
492.173
492.135
492.256
492.224
492.192
492.172
492.178
492.137
492.137
492.138
492.139
492.18
492.141
492.192
492.225
492.257
492.136
492.172
492.188
492.225
492.172
492.257
492.224
492.173
492.134
492.224
492.184
492.179
492.138
492.136
492.226
492.193
492.257
492.14
492.19
492.175
492.226
492.173
492.256
492.192
492.186
492.137
492.224
492.173
492.257
492.173
492.225
492.176
492.227
492.137
492.188
492.192
492.225
492.172
492.224
492.173
492.186
492.135
492.178
492.138
492.139
492.256
492.172
492.192
492.187
492.225
492.136
492.173
492.225
492.192
492.174
492.225
492.188
492.174
492.139
492.139
492.138
492.139
492.125
492.138
492.139
492.179
492.138
492.178
492.136
492.138
492.12
492.142
492.141
492.182
492.141
492.225
492.226
492.257
492.14
492.174
492.175
492.192
492.186
492.256
492.224
492.172
492.134
492.192
492.172
492.179
492.139
492.137
492.182
492.14
492.139
492.257
492.187
492.225
492.173
492.192
492.135
492.172
492.224
492.225
492.187
492.191
492.172
492.172
492.135
492.137
492.137
492.136
492.124
492.179
492.139
492.139
492.139
492.139
492.138
)
;

boundaryField
{
    sphere_to_oil
    {
        type            compressible::turbulentTemperatureCoupledBaffleMixed;
        refValue        nonuniform List<scalar> 
360
(
324.591
324.591
307.085
346.069
350.534
308.651
351.689
351.689
351.689
324.368
324.368
308.686
309.611
306.362
322.292
350.796
346.538
346.538
346.538
306.564
343.39
322.615
317.984
349.201
307.037
350.663
308.601
350.169
350.169
350.169
352.418
348.712
307.083
307.014
308.59
308.688
346.323
346.323
346.323
345.684
350.556
307.339
308.746
324.508
324.508
308.546
309.526
305.94
323.303
351.014
308.796
308.665
309.436
309.587
306.369
322.496
347.444
306.495
308.688
309.149
306.188
350.831
350.831
350.831
305.934
349.815
323.067
314.99
351.458
351.458
351.458
350.483
349.526
306.219
343.538
321.578
306.373
316.861
350.251
347.205
318.537
314.138
317.947
306.18
307.086
308.603
308.828
309.536
306.252
306.635
307.11
309.534
308.769
307.111
309.457
308.712
308.79
308.662
307.322
306.33
306.391
306.169
308.657
308.787
309.547
306.123
306.502
309.626
307.357
308.768
308.827
308.709
307.342
306.454
306.229
306.193
315.693
314.829
316.071
324.789
324.789
346.069
346.069
349.201
349.201
347.512
347.512
347.512
348.989
348.989
348.989
315.908
314.697
315.625
306.451
350.534
350.534
323.562
323.562
352.418
352.418
321.606
321.606
351.95
351.95
351.95
306.424
306.548
351.272
351.272
351.272
352.363
352.363
352.363
350.796
343.39
322.292
350.796
349.078
306.315
349.078
349.078
318.008
317.997
314.743
322.179
322.179
352.172
352.172
352.172
305.932
343.39
322.615
351.633
351.633
305.987
351.633
318.499
314.613
306.025
308.554
308.673
309.67
306.98
309.522
308.697
305.981
306.399
350.663
350.663
348.712
348.712
324.407
324.407
346.357
346.357
346.357
323.693
323.693
306.328
308.545
308.737
309.637
308.675
308.627
309.645
307.293
309.605
308.678
307.272
345.684
309.639
308.802
306.544
350.646
350.646
350.646
323.205
323.205
305.94
308.826
308.829
309.117
350.556
307.164
309.067
308.764
345.684
350.556
323.025
306.416
323.025
306.148
306.228
309.493
307.024
308.67
308.634
308.737
306.961
306.163
351.318
344.33
351.318
351.318
344.33
344.33
351.014
349.815
323.303
347.976
306.389
351.014
347.976
347.976
309.318
307.084
308.842
309.515
307.163
350.483
308.592
308.714
308.835
307.298
347.444
343.538
308.705
308.741
307.307
345.611
349.518
322.496
350.786
306.231
347.444
350.786
350.786
309.288
307.225
350.251
308.776
308.653
308.693
350.489
307.22
349.803
323.287
345.611
323.287
350.489
345.611
350.489
305.945
314.466
314.753
315.07
324.027
346.586
324.027
346.586
346.586
306.266
349.815
348.042
323.067
348.042
306.357
348.042
315.747
315.654
306.054
348.549
322.031
348.549
348.549
322.031
306.23
308.602
308.709
309.601
349.526
350.483
322.374
306.342
349.526
322.374
306.198
343.538
350.464
321.578
350.464
306.054
350.464
309.636
347.205
307.374
308.726
349.13
346.268
349.518
322.458
349.518
349.13
322.458
349.13
314.033
318.027
350.251
323.167
306.027
347.205
323.167
306.636
349.803
346.268
349.803
323.743
346.268
323.743
)
;
        refGradient     uniform 0;
        valueFraction   nonuniform List<scalar> 
360
(
0.000129347
0.000124091
7.94443e-05
0.000283814
0.000291078
0.000166902
0.000292887
0.000251403
0.000391328
0.000124591
0.000121474
0.000162959
0.000248357
7.10105e-05
0.000127028
0.000246933
0.00028298
0.000264402
0.000371022
6.49782e-05
0.000243604
0.000119756
0.000110375
0.000292903
8.50386e-05
0.00030107
0.000169702
0.000297182
0.000388926
0.000260159
0.000297233
0.000299792
8.04985e-05
7.95992e-05
0.000167041
0.000164384
0.000278164
0.000377111
0.000258952
0.000389365
0.00038461
8.21224e-05
0.000162889
0.000118885
0.000118742
0.000167682
0.000250869
6.6931e-05
0.000119762
0.000253955
0.000165416
0.000166491
0.000248171
0.00024576
6.94328e-05
0.000127019
0.000259029
6.65147e-05
0.000164778
0.000245721
6.51061e-05
0.000289284
0.000255366
0.000399685
6.71223e-05
0.000261102
0.000121791
0.000117798
0.000295969
0.000386108
0.000259718
0.000372332
0.000377544
7.21026e-05
0.000251725
0.000127699
6.64768e-05
0.000119205
0.00037674
0.000391366
0.000116917
0.000114711
0.00011267
6.69606e-05
8.07483e-05
0.000163706
0.000164622
0.000249304
7.52553e-05
6.35416e-05
7.99149e-05
0.000248898
0.000164311
8.16337e-05
0.000248487
0.000166188
0.000165204
0.000165458
8.06852e-05
6.46737e-05
6.55809e-05
6.47082e-05
0.000166352
0.000163501
0.00024871
7.32239e-05
6.36023e-05
0.000248529
7.89534e-05
0.000163758
0.000163789
0.00016713
8.17251e-05
6.54412e-05
6.38223e-05
6.50554e-05
0.000113241
0.000113377
0.000117781
0.000127715
0.000120034
0.000248025
0.000390727
0.000261311
0.00039432
0.000252754
0.000388599
0.000289331
0.000252958
0.00038014
0.000284943
0.000116223
0.000109911
0.000112577
6.21456e-05
0.000257744
0.000388074
0.000120064
0.000120612
0.000392183
0.000260748
0.000125862
0.000132652
0.000387356
0.000266091
0.000306619
6.83951e-05
6.36487e-05
0.000268655
0.000372291
0.000295094
0.000276614
0.000385181
0.000295063
0.000304645
0.000280615
0.000131262
0.000391261
0.000252728
7.04597e-05
0.00038028
0.000284571
0.000108598
0.000114413
0.000113187
0.000119405
0.000124817
0.000389304
0.00025633
0.000300881
7.21401e-05
0.000374495
0.000128408
0.000393791
0.000252086
7.04652e-05
0.000298902
0.000109562
0.000110578
6.4606e-05
0.00016934
0.000169273
0.000250298
8.3467e-05
0.000250676
0.00016494
6.39425e-05
6.20904e-05
0.000391727
0.000248894
0.000387129
0.000258097
0.00012311
0.000115131
0.000388935
0.000243074
0.000280974
0.000113802
0.000132046
6.64309e-05
0.000166364
0.000166213
0.000248336
0.000162602
0.000163439
0.000247358
8.47825e-05
0.000248205
0.000168292
8.24486e-05
0.000279378
0.000247931
0.000167284
6.66674e-05
0.000380434
0.000246624
0.000288554
0.000120213
0.000111714
6.45286e-05
0.00016507
0.000167846
0.000248864
0.000282953
7.91348e-05
0.000246502
0.000160991
0.000244877
0.000259238
0.000117675
6.60958e-05
0.000130579
6.69131e-05
6.2986e-05
0.000251643
8.39788e-05
0.000169175
0.000167219
0.000165226
8.29233e-05
6.33416e-05
0.000257298
0.000241094
0.000404752
0.000301273
0.00037761
0.000271309
0.000290795
0.000297734
0.000132339
0.000255416
6.88135e-05
0.000388688
0.000377942
0.000287152
0.000250446
7.98019e-05
0.00016296
0.000247567
8.05168e-05
0.000295003
0.000163665
0.000164834
0.000163316
8.00285e-05
0.0002928
0.000274379
0.000166623
0.000162316
8.15696e-05
0.000274919
0.000302614
0.000120009
0.000271648
6.45141e-05
0.000387021
0.000375218
0.000283516
0.00024573
8.07243e-05
0.000283962
0.000163504
0.000163756
0.000164688
0.000285508
8.14806e-05
0.000291705
0.00012274
0.000251502
0.000123764
0.000256289
0.000390573
0.000383431
6.4484e-05
0.000129222
0.000127696
0.000124898
0.000113741
0.000380549
0.000124227
0.000252988
0.000297909
6.35442e-05
0.000384265
0.000383801
0.000125638
0.000272886
6.65918e-05
0.000292557
0.000111387
0.000109425
6.65369e-05
0.000376369
0.000112478
0.000246822
0.000290694
0.000120587
6.57362e-05
0.000163567
0.000163511
0.000246735
0.000282335
0.000244884
0.000118396
6.37297e-05
0.000248986
0.000131497
7.36034e-05
0.00036082
0.000387449
0.000114506
0.000246116
6.82339e-05
0.000309529
0.000248626
0.000297893
8.14898e-05
0.00016427
0.000287205
0.00027844
0.000261951
0.000117084
0.000383722
0.000382896
0.000138988
0.000255941
0.000112607
0.000114334
0.000257663
0.000127546
6.89606e-05
0.000260592
0.000122816
6.36842e-05
0.000379282
0.000383835
0.000252546
0.000122559
0.000248071
0.000126601
)
;
        value           nonuniform List<scalar> 
360
(
492.141
492.143
492.145
492.118
492.119
492.165
492.118
492.126
492.106
492.139
492.14
492.165
492.169
492.15
492.142
492.128
492.114
492.122
492.105
492.15
492.126
492.142
492.124
492.118
492.144
492.117
492.166
492.119
492.106
492.125
492.116
492.115
492.143
492.142
492.164
492.166
492.116
492.106
492.123
492.103
492.106
492.143
492.166
492.141
492.143
492.164
492.169
492.148
492.141
492.125
492.167
492.165
492.17
492.17
492.147
492.139
492.123
492.149
492.165
492.17
492.149
492.118
492.125
492.106
492.15
492.125
492.142
492.122
492.121
492.11
492.128
492.109
492.107
492.154
492.13
492.145
492.148
492.126
492.108
492.104
492.125
492.125
492.126
492.15
492.148
492.165
492.166
492.169
492.145
492.149
492.144
492.169
492.166
492.142
492.169
492.165
492.165
492.165
492.143
492.151
492.151
492.15
492.166
492.166
492.169
492.148
492.148
492.168
492.141
492.164
492.166
492.165
492.143
492.148
492.152
492.151
492.125
492.124
492.124
492.141
492.144
492.127
492.104
492.126
492.105
492.126
492.105
492.117
492.127
492.107
492.12
492.124
492.125
492.125
492.151
492.126
492.106
492.142
492.142
492.106
492.126
492.14
492.14
492.106
492.125
492.114
492.15
492.148
492.122
492.107
492.114
492.122
492.105
492.116
492.116
492.117
492.139
492.104
492.126
492.149
492.105
492.117
492.125
492.124
492.124
492.14
492.14
492.104
492.125
492.116
492.147
492.104
492.139
492.105
492.125
492.147
492.116
492.124
492.123
492.149
492.166
492.164
492.169
492.146
492.17
492.167
492.15
492.15
492.105
492.126
492.105
492.124
492.14
492.142
492.104
492.127
492.116
492.143
492.141
492.151
492.165
492.165
492.17
492.167
492.166
492.17
492.141
492.17
492.164
492.143
492.117
492.169
492.165
492.148
492.107
492.126
492.118
492.14
492.142
492.149
492.165
492.164
492.169
492.118
492.143
492.17
492.166
492.124
492.123
492.14
492.148
492.138
492.148
492.149
492.169
492.144
492.164
492.165
492.166
492.141
492.151
492.124
492.127
492.107
492.117
492.108
492.122
492.116
492.114
492.139
492.125
492.149
492.104
492.104
492.118
492.17
492.148
492.168
492.17
492.145
492.118
492.166
492.166
492.169
492.146
492.118
492.12
492.165
492.166
492.143
492.118
492.115
492.141
492.123
492.149
492.106
492.109
492.119
492.17
492.144
492.119
492.166
492.167
492.167
492.121
492.147
492.12
492.141
492.125
492.141
492.125
492.105
492.108
492.149
492.126
492.126
492.126
492.141
492.107
492.14
492.124
492.119
492.149
492.105
492.104
492.139
492.121
492.148
492.115
492.123
492.124
492.152
492.111
492.145
492.129
492.121
492.144
492.152
492.167
492.168
492.17
492.117
492.128
492.142
492.15
492.125
492.138
492.147
492.109
492.108
492.143
492.127
492.15
492.114
492.169
492.115
492.143
492.165
492.117
492.118
492.123
492.141
492.105
492.105
492.136
492.123
492.127
492.127
492.125
492.14
492.149
492.124
492.141
492.15
492.108
492.106
492.126
492.142
492.125
492.14
)
;
        Tnbr            T;
        thicknessLayers 0();
        kappaLayers     0();
        kappaMethod     solidThermo;
        kappa           none;
        alphaAni        none;
    }
}


// ************************************************************************* //
