/*--------------------------------*- C++ -*----------------------------------*\
| =========                 |                                                 |
| \\      /  F ield         | OpenFOAM: The Open Source CFD Toolbox           |
|  \\    /   O peration     | Version:  v1906                                 |
|   \\  /    A nd           | Web:      www.OpenFOAM.com                      |
|    \\/     M anipulation  |                                                 |
\*---------------------------------------------------------------------------*/
FoamFile
{
    version     2.0;
    format      ascii;
    class       volVectorField;
    location    "73/oil";
    object      U;
}
// * * * * * * * * * * * * * * * * * * * * * * * * * * * * * * * * * * * * * //

dimensions      [0 1 -1 0 0 0 0];


internalField   nonuniform List<vector> 
27760
(
(-2.45092e-05 -2.49747e-05 -2.45092e-05)
(-4.8376e-05 -1.87339e-05 -1.76587e-05)
(-3.51892e-06 -4.85441e-06 -4.83715e-06)
(-5.7263e-06 -7.86563e-07 -8.93224e-07)
(-1.13495e-06 -2.45512e-07 -3.71241e-07)
(-3.71829e-07 -9.48617e-08 -2.32725e-07)
(3.14184e-07 -3.3278e-09 -1.52331e-07)
(6.62716e-07 3.74909e-08 -1.20139e-07)
(8.5789e-07 6.15334e-08 -1.02011e-07)
(9.31981e-07 7.72124e-08 -8.98277e-08)
(9.08534e-07 8.86167e-08 -7.97284e-08)
(8.01077e-07 9.73908e-08 -7.10257e-08)
(6.23481e-07 1.04e-07 -6.38874e-08)
(3.92104e-07 1.08513e-07 -5.87322e-08)
(1.26432e-07 1.10869e-07 -5.59683e-08)
(-1.51827e-07 1.11022e-07 -5.58173e-08)
(-4.20356e-07 1.09018e-07 -5.82349e-08)
(-6.58094e-07 1.05011e-07 -6.28857e-08)
(-8.47134e-07 9.92578e-08 -6.91648e-08)
(-9.74246e-07 9.20698e-08 -7.62493e-08)
(-1.03199e-06 8.38161e-08 -8.31687e-08)
(-1.01907e-06 7.47179e-08 -8.8663e-08)
(-9.40493e-07 6.50204e-08 -9.18548e-08)
(-8.07219e-07 5.50312e-08 -9.1695e-08)
(-6.35363e-07 4.50023e-08 -8.7284e-08)
(-4.45487e-07 3.53822e-08 -7.80451e-08)
(-2.61528e-07 2.7094e-08 -6.40745e-08)
(-1.09402e-07 2.18002e-08 -4.66078e-08)
(-1.22508e-08 2.16026e-08 -2.89988e-08)
(1.16724e-08 2.2875e-08 -1.16265e-08)
(-1.77785e-05 -4.97079e-05 -1.77784e-05)
(-5.80465e-06 -6.47005e-06 -7.96216e-06)
(-7.79213e-06 -7.84686e-06 -2.78649e-06)
(-3.42889e-06 -2.30963e-06 -8.04551e-07)
(-1.05392e-06 -1.42266e-06 -4.07637e-07)
(1.45415e-07 -7.86665e-07 -2.08402e-07)
(1.02211e-06 -4.98592e-07 -1.10178e-07)
(1.55936e-06 -3.26393e-07 -6.00361e-08)
(1.86972e-06 -2.10305e-07 -2.80213e-08)
(1.97816e-06 -1.2003e-07 -4.16518e-09)
(1.90565e-06 -4.49485e-08 1.61085e-08)
(1.67013e-06 1.78766e-08 3.35017e-08)
(1.29522e-06 6.77687e-08 4.76592e-08)
(8.12353e-07 1.02915e-07 5.78025e-08)
(2.60323e-07 1.21572e-07 6.32162e-08)
(-3.17139e-07 1.22819e-07 6.35073e-08)
(-8.74835e-07 1.06928e-07 5.875e-08)
(-1.37007e-06 7.54762e-08 4.95222e-08)
(-1.76651e-06 3.12228e-08 3.6854e-08)
(-2.03732e-06 -2.21693e-08 2.21287e-08)
(-2.16751e-06 -8.04648e-08 6.90747e-09)
(-2.15463e-06 -1.39193e-07 -6.95001e-09)
(-2.0087e-06 -1.93912e-07 -1.7971e-08)
(-1.75172e-06 -2.40039e-07 -2.48746e-08)
(-1.41569e-06 -2.72711e-07 -2.66599e-08)
(-1.04042e-06 -2.8627e-07 -2.29636e-08)
(-6.70551e-07 -2.73614e-07 -1.44726e-08)
(-3.51106e-07 -2.26419e-07 -3.49224e-09)
(-1.20634e-07 -1.37484e-07 4.97934e-09)
(-5.74003e-09 -2.33523e-08 5.80946e-09)
(-4.91297e-06 -4.70859e-06 -4.91291e-06)
(-7.67643e-06 -8.88769e-06 -2.83215e-06)
(-3.85835e-06 -5.15042e-06 -1.23825e-06)
(-2.03289e-06 -3.10757e-06 -5.74577e-07)
(-3.12995e-07 -2.2619e-06 -2.59424e-07)
(8.28196e-07 -1.71326e-06 -1.03886e-07)
(1.69343e-06 -1.39573e-06 -2.06334e-08)
(2.27132e-06 -1.16653e-06 2.7814e-08)
(2.60764e-06 -9.80737e-07 6.21678e-08)
(2.7088e-06 -8.16551e-07 8.99296e-08)
(2.58575e-06 -6.68651e-07 1.14239e-07)
(2.25477e-06 -5.39336e-07 1.35393e-07)
(1.74346e-06 -4.34069e-07 1.52699e-07)
(1.09152e-06 -3.58924e-07 1.65104e-07)
(3.49152e-07 -3.18792e-07 1.71718e-07)
(-4.26376e-07 -3.16196e-07 1.72054e-07)
(-1.17565e-06 -3.50656e-07 1.66186e-07)
(-1.84251e-06 -4.18536e-07 1.54782e-07)
(-2.37913e-06 -5.13338e-07 1.39029e-07)
(-2.7503e-06 -6.26309e-07 1.20526e-07)
(-2.93626e-06 -7.47274e-07 1.01049e-07)
(-2.93387e-06 -8.65134e-07 8.24694e-08)
(-2.75635e-06 -9.68667e-07 6.6406e-08)
(-2.43192e-06 -1.04643e-06 5.41693e-08)
(-2.00107e-06 -1.08632e-06 4.65515e-08)
(-1.51328e-06 -1.07508e-06 4.35917e-08)
(-1.02268e-06 -9.97453e-07 4.41965e-08)
(-5.81657e-07 -8.36503e-07 4.54515e-08)
(-2.37022e-07 -5.75285e-07 4.17417e-08)
(-2.3174e-08 -2.15155e-07 2.32581e-08)
(-8.75614e-07 -6.88433e-06 -8.75537e-07)
(-1.93017e-06 -5.50998e-06 -7.78137e-07)
(-1.43763e-06 -4.80045e-06 -5.48902e-07)
(-4.94127e-07 -3.85401e-06 -2.6606e-07)
(6.39947e-07 -3.33294e-06 -9.93037e-08)
(1.5815e-06 -2.94536e-06 -2.41572e-09)
(2.35698e-06 -2.66008e-06 5.82641e-08)
(2.91e-06 -2.40729e-06 9.9828e-08)
(3.23035e-06 -2.16672e-06 1.33161e-07)
(3.30307e-06 -1.93187e-06 1.62403e-07)
(3.12695e-06 -1.70798e-06 1.88999e-07)
(2.71415e-06 -1.50582e-06 2.12559e-07)
(2.09328e-06 -1.33824e-06 2.31972e-07)
(1.309e-06 -1.21745e-06 2.45928e-07)
(4.19368e-07 -1.1527e-06 2.53362e-07)
(-5.08669e-07 -1.1488e-06 2.53701e-07)
(-1.40535e-06 -1.2051e-06 2.47011e-07)
(-2.20462e-06 -1.31544e-06 2.34016e-07)
(-2.85028e-06 -1.46857e-06 2.16026e-07)
(-3.30112e-06 -1.64933e-06 1.94777e-07)
(-3.53401e-06 -1.83989e-06 1.72189e-07)
(-3.54537e-06 -2.02104e-06 1.50181e-07)
(-3.35041e-06 -2.17299e-06 1.3042e-07)
(-2.9813e-06 -2.27572e-06 1.14187e-07)
(-2.48363e-06 -2.30855e-06 1.02144e-07)
(-1.91229e-06 -2.24947e-06 9.4157e-08)
(-1.3267e-06 -2.07395e-06 8.89583e-08)
(-7.83702e-07 -1.75403e-06 8.32411e-08)
(-3.3853e-07 -1.25496e-06 7.08415e-08)
(-3.74902e-08 -5.33038e-07 3.75915e-08)
(-2.75581e-07 -2.7104e-06 -2.75488e-07)
(-8.23021e-07 -4.31548e-06 -3.1911e-07)
(-2.99137e-07 -4.76688e-06 -2.02694e-07)
(4.67445e-07 -4.6996e-06 -7.54871e-08)
(1.38493e-06 -4.58941e-06 1.3834e-08)
(2.23048e-06 -4.41619e-06 7.41733e-08)
(2.95306e-06 -4.21075e-06 1.18476e-07)
(3.48282e-06 -3.96536e-06 1.5415e-07)
(3.7825e-06 -3.68808e-06 1.86355e-07)
(3.82402e-06 -3.39167e-06 2.16773e-07)
(3.59744e-06 -3.09499e-06 2.45479e-07)
(3.11151e-06 -2.81984e-06 2.71392e-07)
(2.39529e-06 -2.58832e-06 2.92935e-07)
(1.49717e-06 -2.42011e-06 3.08492e-07)
(4.8158e-07 -2.32977e-06 3.16775e-07)
(-5.76498e-07 -2.32482e-06 3.17093e-07)
(-1.5986e-06 -2.40458e-06 3.095e-07)
(-2.51039e-06 -2.56009e-06 2.94796e-07)
(-3.2487e-06 -2.77479e-06 2.7446e-07)
(-3.76738e-06 -3.02623e-06 2.50397e-07)
(-4.04074e-06 -3.28807e-06 2.24721e-07)
(-4.06492e-06 -3.53192e-06 1.9949e-07)
(-3.85676e-06 -3.72855e-06 1.76448e-07)
(-3.45134e-06 -3.84863e-06 1.5689e-07)
(-2.89798e-06 -3.86227e-06 1.41439e-07)
(-2.25548e-06 -3.73801e-06 1.29869e-07)
(-1.58734e-06 -3.44066e-06 1.20807e-07)
(-9.54771e-07 -2.92765e-06 1.10607e-07)
(-4.2206e-07 -2.13723e-06 9.24824e-08)
(-4.84694e-08 -9.55673e-07 4.8592e-08)
(-1.01296e-07 -2.53883e-06 -1.01183e-07)
(-7.47045e-08 -4.49673e-06 -8.59317e-08)
(4.33822e-07 -5.49661e-06 -2.59997e-08)
(1.14763e-06 -5.94283e-06 3.66753e-08)
(1.98163e-06 -6.13975e-06 8.75764e-08)
(2.78638e-06 -6.14869e-06 1.27781e-07)
(3.4851e-06 -6.02595e-06 1.62692e-07)
(4.00219e-06 -5.7983e-06 1.95375e-07)
(4.28601e-06 -5.4948e-06 2.27904e-07)
(4.29983e-06 -5.14497e-06 2.6042e-07)
(4.02755e-06 -4.78102e-06 2.92024e-07)
(3.47522e-06 -4.43623e-06 3.21008e-07)
(2.67234e-06 -4.14263e-06 3.45316e-07)
(1.67061e-06 -3.92791e-06 3.62938e-07)
(5.4037e-07 -3.81246e-06 3.72315e-07)
(-6.35963e-07 -3.80682e-06 3.72604e-07)
(-1.77182e-06 -3.91032e-06 3.63843e-07)
(-2.78514e-06 -4.11106e-06 3.46953e-07)
(-3.6064e-06 -4.3869e-06 3.23634e-07)
(-4.18499e-06 -4.70773e-06 2.96081e-07)
(-4.49325e-06 -5.03835e-06 2.66699e-07)
(-4.52721e-06 -5.34068e-06 2.37769e-07)
(-4.30542e-06 -5.57584e-06 2.11183e-07)
(-3.8658e-06 -5.70494e-06 1.88334e-07)
(-3.26094e-06 -5.68849e-06 1.69867e-07)
(-2.55328e-06 -5.48488e-06 1.55507e-07)
(-1.81041e-06 -5.0466e-06 1.43779e-07)
(-1.09827e-06 -4.31248e-06 1.30693e-07)
(-4.90052e-07 -3.18529e-06 1.08754e-07)
(-5.69275e-08 -1.46229e-06 5.70756e-08)
(-2.05906e-09 -2.55925e-06 -1.92445e-09)
(2.64734e-07 -5.11737e-06 3.03876e-08)
(8.48934e-07 -6.61562e-06 6.79197e-08)
(1.59894e-06 -7.47088e-06 1.03626e-07)
(2.43457e-06 -7.93602e-06 1.36002e-07)
(3.24473e-06 -8.11278e-06 1.66106e-07)
(3.94787e-06 -8.07594e-06 1.96669e-07)
(4.46747e-06 -7.87538e-06 2.28917e-07)
(4.74492e-06 -7.55692e-06 2.63339e-07)
(4.73811e-06 -7.1644e-06 2.99137e-07)
(4.42666e-06 -6.74244e-06 3.34677e-07)
(3.81467e-06 -6.3355e-06 3.6768e-07)
(2.93217e-06 -5.98531e-06 3.9556e-07)
(1.83425e-06 -5.72777e-06 4.15835e-07)
(5.97007e-07 -5.58919e-06 4.26607e-07)
(-6.89787e-07 -5.5832e-06 4.26864e-07)
(-1.93162e-06 -5.70924e-06 4.16631e-07)
(-3.03887e-06 -5.95243e-06 3.96972e-07)
(-3.93582e-06 -6.28509e-06 3.69878e-07)
(-4.56785e-06 -6.66946e-06 3.37957e-07)
(-4.90555e-06 -7.06142e-06 3.0399e-07)
(-4.94537e-06 -7.41351e-06 2.70582e-07)
(-4.70793e-06 -7.67737e-06 2.39892e-07)
(-4.23405e-06 -7.80464e-06 2.1343e-07)
(-3.57988e-06 -7.74612e-06 1.91912e-07)
(-2.81153e-06 -7.44936e-06 1.7503e-07)
(-2.00079e-06 -6.85277e-06 1.61201e-07)
(-1.21845e-06 -5.87298e-06 1.46079e-07)
(-5.45679e-07 -4.36984e-06 1.2141e-07)
(-6.36124e-08 -2.03691e-06 6.37908e-08)
(3.84804e-08 -2.95496e-06 3.86368e-08)
(4.47953e-07 -6.12046e-06 8.66647e-08)
(1.10816e-06 -8.06185e-06 1.17905e-07)
(1.91372e-06 -9.25877e-06 1.43456e-07)
(2.78171e-06 -9.96034e-06 1.6802e-07)
(3.61872e-06 -1.02923e-05 1.94208e-07)
(4.3422e-06 -1.03434e-05 2.23967e-07)
(4.87518e-06 -1.01794e-05 2.57892e-07)
(5.15475e-06 -9.85884e-06 2.95668e-07)
(5.13485e-06 -9.4375e-06 3.35943e-07)
(4.79168e-06 -8.97075e-06 3.76506e-07)
(4.12761e-06 -8.51307e-06 4.14481e-07)
(3.17326e-06 -8.1154e-06 4.46725e-07)
(1.98705e-06 -7.82143e-06 4.70237e-07)
(6.50756e-07 -7.66312e-06 4.8271e-07)
(-7.38499e-07 -7.65711e-06 4.82931e-07)
(-2.07836e-06 -7.80293e-06 4.70913e-07)
(-3.27176e-06 -8.08295e-06 4.4791e-07)
(-4.23692e-06 -8.46408e-06 4.16283e-07)
(-4.91552e-06 -8.90132e-06 3.79117e-07)
(-5.27693e-06 -9.34224e-06 3.39659e-07)
(-5.3185e-06 -9.73046e-06 3.00959e-07)
(-5.0633e-06 -1.00088e-05 2.65507e-07)
(-4.55537e-06 -1.01197e-05 2.34973e-07)
(-3.85466e-06 -1.00046e-05 2.10164e-07)
(-3.031e-06 -9.59966e-06 1.90733e-07)
(-2.16024e-06 -8.82757e-06 1.75002e-07)
(-1.31766e-06 -7.57966e-06 1.58255e-07)
(-5.90942e-07 -5.66686e-06 1.31502e-07)
(-6.89926e-08 -2.66712e-06 6.92041e-08)
(5.88643e-08 -3.50502e-06 5.90444e-08)
(5.49954e-07 -7.33618e-06 1.16932e-07)
(1.27257e-06 -9.72313e-06 1.46531e-07)
(2.13172e-06 -1.12437e-05 1.68366e-07)
(3.04001e-06 -1.21727e-05 1.90131e-07)
(3.91106e-06 -1.26594e-05 2.15661e-07)
(4.66169e-06 -1.28065e-05 2.46745e-07)
(5.21412e-06 -1.2693e-05 2.83771e-07)
(5.50224e-06 -1.23876e-05 3.26013e-07)
(5.47644e-06 -1.19556e-05 3.71693e-07)
(5.10988e-06 -1.14617e-05 4.18117e-07)
(4.40312e-06 -1.0969e-05 4.61835e-07)
(3.3872e-06 -1.05366e-05 4.99106e-07)
(2.12355e-06 -1.0215e-05 5.26326e-07)
(6.99437e-07 -1.00416e-05 5.40723e-07)
(-7.81003e-07 -1.00358e-05 5.40909e-07)
(-2.20778e-06 -1.01973e-05 5.26896e-07)
(-3.47666e-06 -1.05057e-05 5.00097e-07)
(-4.50029e-06 -1.09232e-05 4.63293e-07)
(-5.21712e-06 -1.1398e-05 4.20163e-07)
(-5.59566e-06 -1.18703e-05 3.74517e-07)
(-5.63481e-06 -1.22758e-05 3.29877e-07)
(-5.36054e-06 -1.25493e-05 2.89075e-07)
(-4.82044e-06 -1.26253e-05 2.54024e-07)
(-4.07818e-06 -1.24361e-05 2.25624e-07)
(-3.20711e-06 -1.19061e-05 2.03529e-07)
(-2.2866e-06 -1.09414e-05 1.85922e-07)
(-1.39547e-06 -9.40509e-06 1.67748e-07)
(-6.26268e-07 -7.05442e-06 1.39395e-07)
(-7.32444e-08 -3.34202e-06 7.34914e-08)
(6.91406e-08 -4.14798e-06 6.93457e-08)
(6.07925e-07 -8.6905e-06 1.33208e-07)
(1.37413e-06 -1.1534e-05 1.6288e-07)
(2.27393e-06 -1.33757e-05 1.83817e-07)
(3.21627e-06 -1.45332e-05 2.05256e-07)
(4.11747e-06 -1.51815e-05 2.31875e-07)
(4.89385e-06 -1.54383e-05 2.65533e-07)
(5.4665e-06 -1.53937e-05 3.06523e-07)
(5.76672e-06 -1.51253e-05 3.53953e-07)
(5.74169e-06 -1.47059e-05 4.05686e-07)
(5.36129e-06 -1.42073e-05 4.5857e-07)
(4.62397e-06 -1.36994e-05 5.08582e-07)
(3.56069e-06 -1.32482e-05 5.51311e-07)
(2.23524e-06 -1.29104e-05 5.82531e-07)
(7.39825e-07 -1.27278e-05 5.99022e-07)
(-8.14923e-07 -1.27224e-05 5.99174e-07)
(-2.31222e-06 -1.2894e-05 5.82992e-07)
(-3.64128e-06 -1.32198e-05 5.52092e-07)
(-4.70972e-06 -1.36577e-05 5.09726e-07)
(-5.4535e-06 -1.41503e-05 4.60168e-07)
(-5.84123e-06 -1.46313e-05 4.07812e-07)
(-5.87385e-06 -1.503e-05 3.56766e-07)
(-5.58053e-06 -1.52747e-05 3.10246e-07)
(-5.01261e-06 -1.52931e-05 2.70409e-07)
(-4.23699e-06 -1.5009e-05 2.38231e-07)
(-3.33006e-06 -1.43355e-05 2.13357e-07)
(-2.37364e-06 -1.31611e-05 1.93892e-07)
(-1.44863e-06 -1.13191e-05 1.74481e-07)
(-6.50451e-07 -8.5091e-06 1.44958e-07)
(-7.62825e-08 -4.05036e-06 7.65681e-08)
(7.41408e-08 -4.8399e-06 7.4362e-08)
(6.36326e-07 -1.01233e-05 1.41265e-07)
(1.42474e-06 -1.34337e-05 1.71216e-07)
(2.34561e-06 -1.56003e-05 1.92258e-07)
(3.30649e-06 -1.6993e-05 2.1446e-07)
(4.22551e-06 -1.7815e-05 2.42965e-07)
(5.0192e-06 -1.81999e-05 2.79741e-07)
(5.608e-06 -1.82477e-05 3.25102e-07)
(5.9212e-06 -1.80431e-05 3.77991e-07)
(5.903e-06 -1.76643e-05 4.36022e-07)
(5.51988e-06 -1.71879e-05 4.95595e-07)
(4.76767e-06 -1.6689e-05 5.52101e-07)
(3.67639e-06 -1.62385e-05 6.00499e-07)
(2.31118e-06 -1.5898e-05 6.35879e-07)
(7.68014e-07 -1.57131e-05 6.54517e-07)
(-8.37044e-07 -1.57082e-05 6.54641e-07)
(-2.38139e-06 -1.5883e-05 6.36252e-07)
(-3.74885e-06 -1.6213e-05 6.01123e-07)
(-4.84325e-06 -1.6652e-05 5.52987e-07)
(-5.59922e-06 -1.71382e-05 4.96767e-07)
(-5.98629e-06 -1.76004e-05 4.37572e-07)
(-6.00804e-06 -1.79631e-05 3.80018e-07)
(-5.6973e-06 -1.81504e-05 3.27694e-07)
(-5.10881e-06 -1.80844e-05 2.83018e-07)
(-4.31216e-06 -1.76821e-05 2.47072e-07)
(-3.38545e-06 -1.68458e-05 2.19483e-07)
(-2.41147e-06 -1.54464e-05 1.98232e-07)
(-1.47146e-06 -1.32857e-05 1.77796e-07)
(-6.61115e-07 -1.00032e-05 1.47672e-07)
(-7.78276e-08 -4.77896e-06 7.81562e-08)
(7.54614e-08 -5.55073e-06 7.57121e-08)
(6.39776e-07 -1.15837e-05 1.43105e-07)
(1.42619e-06 -1.53634e-05 1.72923e-07)
(2.34309e-06 -1.78575e-05 1.94252e-07)
(3.29965e-06 -1.94934e-05 2.17486e-07)
(4.21684e-06 -2.05039e-05 2.4808e-07)
(5.01296e-06 -2.10386e-05 2.88052e-07)
(5.60917e-06 -2.12064e-05 3.37752e-07)
(5.93359e-06 -2.10969e-05 3.96038e-07)
(5.928e-06 -2.07918e-05 4.60316e-07)
(5.55545e-06 -2.03696e-05 5.26601e-07)
(4.80841e-06 -1.99082e-05 5.89705e-07)
(3.71462e-06 -1.94817e-05 6.43902e-07)
(2.33902e-06 -1.91546e-05 6.83607e-07)
(7.79695e-07 -1.89757e-05 7.04496e-07)
(-8.43391e-07 -1.89713e-05 7.04589e-07)
(-2.40333e-06 -1.91413e-05 6.8387e-07)
(-3.78013e-06 -1.94592e-05 6.44337e-07)
(-4.87544e-06 -1.9876e-05 5.9034e-07)
(-5.6241e-06 -2.03268e-05 5.27439e-07)
(-5.99808e-06 -2.07374e-05 4.61428e-07)
(-6.00448e-06 -2.10305e-05 3.97467e-07)
(-5.67979e-06 -2.11273e-05 3.39544e-07)
(-5.08143e-06 -2.09471e-05 2.90268e-07)
(-4.28065e-06 -2.04015e-05 2.50771e-07)
(-3.35558e-06 -1.93833e-05 2.20674e-07)
(-2.38777e-06 -1.77458e-05 1.97887e-07)
(-1.45647e-06 -1.52595e-05 1.76797e-07)
(-6.54865e-07 -1.15021e-05 1.46764e-07)
(-7.74544e-08 -5.51122e-06 7.78262e-08)
(7.35793e-08 -6.25279e-06 7.38365e-08)
(6.18251e-07 -1.30196e-05 1.39077e-07)
(1.3748e-06 -1.72585e-05 1.67935e-07)
(2.25721e-06 -2.00773e-05 1.89287e-07)
(3.17991e-06 -2.19623e-05 2.13401e-07)
(4.06886e-06 -2.31762e-05 2.45763e-07)
(4.84643e-06 -2.38838e-05 2.88479e-07)
(5.43646e-06 -2.42017e-05 3.41952e-07)
(5.76756e-06 -2.42228e-05 4.05023e-07)
(5.78e-06 -2.40289e-05 4.74975e-07)
(5.43354e-06 -2.36984e-05 5.47542e-07)
(4.71641e-06 -2.33083e-05 6.17071e-07)
(3.65255e-06 -2.29331e-05 6.77037e-07)
(2.30446e-06 -2.26387e-05 7.21138e-07)
(7.69928e-07 -2.24758e-05 7.44375e-07)
(-8.29359e-07 -2.24719e-05 7.44427e-07)
(-2.36403e-06 -2.26271e-05 7.21301e-07)
(-3.7124e-06 -2.29135e-05 6.77309e-07)
(-4.77646e-06 -2.32804e-05 6.17464e-07)
(-5.49356e-06 -2.36617e-05 5.48094e-07)
(-5.83967e-06 -2.39832e-05 4.75708e-07)
(-5.82623e-06 -2.41679e-05 4.05951e-07)
(-5.49313e-06 -2.41378e-05 3.43148e-07)
(-4.89963e-06 -2.38114e-05 2.89953e-07)
(-4.11675e-06 -2.30971e-05 2.47541e-07)
(-3.22037e-06 -2.18793e-05 2.15455e-07)
(-2.28832e-06 -1.99953e-05 1.91566e-07)
(-1.39502e-06 -1.71844e-05 1.70307e-07)
(-6.27763e-07 -1.2963e-05 1.41264e-07)
(-7.46804e-08 -6.22643e-06 7.51026e-08)
(6.83345e-08 -6.91737e-06 6.86211e-08)
(5.69574e-07 -1.43742e-05 1.28871e-07)
(1.26452e-06 -1.90463e-05 1.55709e-07)
(2.07675e-06 -2.21775e-05 1.76442e-07)
(2.92974e-06 -2.43121e-05 2.00849e-07)
(3.75756e-06 -2.57414e-05 2.34229e-07)
(4.48954e-06 -2.66443e-05 2.78665e-07)
(5.05479e-06 -2.71438e-05 3.34736e-07)
(5.38485e-06 -2.73336e-05 4.01438e-07)
(5.41986e-06 -2.72929e-05 4.76087e-07)
(5.11707e-06 -2.70965e-05 5.54242e-07)
(4.45967e-06 -2.68175e-05 6.29839e-07)
(3.46565e-06 -2.65269e-05 6.95625e-07)
(2.19215e-06 -2.6289e-05 7.44477e-07)
(7.33512e-07 -2.61543e-05 7.70402e-07)
(-7.89711e-07 -2.61509e-05 7.7042e-07)
(-2.2481e-06 -2.62788e-05 7.44542e-07)
(-3.52109e-06 -2.65099e-05 6.95742e-07)
(-4.51428e-06 -2.67935e-05 6.30013e-07)
(-5.17054e-06 -2.70655e-05 5.54522e-07)
(-5.47167e-06 -2.72548e-05 4.76547e-07)
(-5.43428e-06 -2.72885e-05 4.02052e-07)
(-5.10111e-06 -2.70923e-05 3.35527e-07)
(-4.53168e-06 -2.65871e-05 2.79624e-07)
(-3.79427e-06 -2.56801e-05 2.35362e-07)
(-2.95978e-06 -2.42492e-05 2.02155e-07)
(-2.09902e-06 -2.21169e-05 1.77897e-07)
(-1.27844e-06 -1.89927e-05 1.57219e-07)
(-5.75783e-07 -1.43342e-05 1.30239e-07)
(-6.89621e-08 -6.89934e-06 6.94282e-08)
(5.94525e-08 -7.51271e-06 5.97452e-08)
(4.91197e-07 -1.55837e-05 1.11835e-07)
(1.08922e-06 -2.06442e-05 1.35318e-07)
(1.79082e-06 -2.40636e-05 1.54508e-07)
(2.53279e-06 -2.64398e-05 1.78161e-07)
(3.26043e-06 -2.80904e-05 2.11148e-07)
(3.9136e-06 -2.92069e-05 2.55604e-07)
(4.42998e-06 -2.99167e-05 3.12251e-07)
(4.747e-06 -3.03123e-05 3.80284e-07)
(4.80716e-06 -3.04683e-05 4.57306e-07)
(4.56614e-06 -3.04519e-05 5.38948e-07)
(4.00191e-06 -3.03282e-05 6.19026e-07)
(3.12483e-06 -3.01608e-05 6.8971e-07)
(1.98338e-06 -3.00082e-05 7.42958e-07)
(6.63972e-07 -2.99171e-05 7.71537e-07)
(-7.17988e-07 -2.99141e-05 7.71515e-07)
(-2.0368e-06 -2.99994e-05 7.42917e-07)
(-3.17715e-06 -3.01461e-05 6.89675e-07)
(-4.05254e-06 -3.03076e-05 6.19039e-07)
(-4.61457e-06 -3.04255e-05 5.39024e-07)
(-4.85295e-06 -3.04363e-05 4.5747e-07)
(-4.78965e-06 -3.02752e-05 3.80565e-07)
(-4.46881e-06 -2.98751e-05 3.12675e-07)
(-3.94789e-06 -2.91616e-05 2.56175e-07)
(-3.28937e-06 -2.80428e-05 2.11857e-07)
(-2.55566e-06 -2.6392e-05 1.78984e-07)
(-1.80715e-06 -2.40183e-05 1.55412e-07)
(-1.09904e-06 -2.0605e-05 1.36276e-07)
(-4.95331e-07 -1.55551e-05 1.12729e-07)
(-5.97941e-08 -7.50013e-06 6.03053e-08)
(4.66806e-08 -8.00447e-06 4.69781e-08)
(3.81232e-07 -1.65791e-05 8.75147e-08)
(8.44674e-07 -2.19619e-05 1.06152e-07)
(1.39212e-06 -2.56303e-05 1.22556e-07)
(1.97784e-06 -2.8228e-05 1.43996e-07)
(2.56164e-06 -3.00954e-05 1.74628e-07)
(3.09757e-06 -3.14344e-05 2.16456e-07)
(3.53549e-06 -3.23752e-05 2.70386e-07)
(3.82226e-06 -3.30072e-05 3.36047e-07)
(3.90609e-06 -3.33982e-05 4.11562e-07)
(3.74351e-06 -3.36053e-05 4.92975e-07)
(3.30815e-06 -3.36813e-05 5.74242e-07)
(2.60113e-06 -3.36775e-05 6.47228e-07)
(1.65877e-06 -3.36413e-05 7.03221e-07)
(5.5457e-07 -3.36107e-05 7.33764e-07)
(-6.07162e-07 -3.36081e-05 7.33729e-07)
(-1.71048e-06 -3.36335e-05 7.03149e-07)
(-2.65121e-06 -3.36648e-05 6.47103e-07)
(-3.35592e-06 -3.36635e-05 5.74108e-07)
(-3.78848e-06 -3.35829e-05 4.92883e-07)
(-3.94766e-06 -3.33717e-05 4.11562e-07)
(-3.85998e-06 -3.29769e-05 3.36137e-07)
(-3.56889e-06 -3.23415e-05 2.70562e-07)
(-3.12622e-06 -3.13983e-05 2.16738e-07)
(-2.5851e-06 -3.00582e-05 1.75018e-07)
(-1.99581e-06 -2.81913e-05 1.44488e-07)
(-1.40449e-06 -2.55961e-05 1.23132e-07)
(-8.51804e-07 -2.1933e-05 1.06767e-07)
(-3.84048e-07 -1.65583e-05 8.81264e-08)
(-4.68428e-08 -7.99558e-06 4.73947e-08)
(2.9933e-08 -8.35693e-06 3.02251e-08)
(2.39632e-07 -1.72887e-05 5.57537e-08)
(5.30887e-07 -2.29054e-05 6.79043e-08)
(8.80327e-07 -2.67661e-05 8.00721e-08)
(1.26337e-06 -2.955e-05 9.73724e-08)
(1.65739e-06 -3.16147e-05 1.2291e-07)
(2.03397e-06 -3.31693e-05 1.58459e-07)
(2.35904e-06 -3.43455e-05 2.05033e-07)
(2.59314e-06 -3.52285e-05 2.62667e-07)
(2.69409e-06 -3.58774e-05 3.30067e-07)
(2.62265e-06 -3.63372e-05 4.04087e-07)
(2.35021e-06 -3.66456e-05 4.79496e-07)
(1.86896e-06 -3.68373e-05 5.48544e-07)
(1.20021e-06 -3.69429e-05 6.02485e-07)
(3.98758e-07 -3.69871e-05 6.3238e-07)
(-4.50565e-07 -3.69849e-05 6.32305e-07)
(-1.25097e-06 -3.69362e-05 6.0234e-07)
(-1.91769e-06 -3.68262e-05 5.48319e-07)
(-2.39608e-06 -3.66304e-05 4.79265e-07)
(-2.6651e-06 -3.63183e-05 4.03857e-07)
(-2.73257e-06 -3.58551e-05 3.29892e-07)
(-2.62733e-06 -3.52034e-05 2.62536e-07)
(-2.3886e-06 -3.43181e-05 2.04996e-07)
(-2.05865e-06 -3.31405e-05 1.58523e-07)
(-1.67703e-06 -3.15854e-05 1.23057e-07)
(-1.27793e-06 -2.95216e-05 9.76105e-08)
(-8.89982e-07 -2.67402e-05 8.03931e-08)
(-5.36166e-07 -2.28837e-05 6.82801e-08)
(-2.41546e-07 -1.72735e-05 5.61778e-08)
(-2.99759e-08 -8.3506e-06 3.0564e-08)
(9.48273e-09 -8.53548e-06 9.79163e-09)
(6.9101e-08 -1.76437e-05 1.71084e-08)
(1.53987e-07 -2.33835e-05 2.1208e-08)
(2.65364e-07 -2.73622e-05 2.75976e-08)
(4.02543e-07 -3.02793e-05 3.86404e-08)
(5.63092e-07 -3.25026e-05 5.60421e-08)
(7.38981e-07 -3.42449e-05 8.10111e-08)
(9.15607e-07 -3.56365e-05 1.14575e-07)
(1.07128e-06 -3.67581e-05 1.57138e-07)
(1.17793e-06 -3.76597e-05 2.08152e-07)
(1.20507e-06 -3.83733e-05 2.65551e-07)
(1.12532e-06 -3.89199e-05 3.25407e-07)
(9.23084e-07 -3.93154e-05 3.8136e-07)
(6.02914e-07 -3.95713e-05 4.2593e-07)
(1.94695e-07 -3.96958e-05 4.51006e-07)
(-2.46062e-07 -3.96941e-05 4.50925e-07)
(-6.53033e-07 -3.95657e-05 4.25755e-07)
(-9.70882e-07 -3.93059e-05 3.81068e-07)
(-1.1699e-06 -3.8907e-05 3.25057e-07)
(-1.24585e-06 -3.83572e-05 2.65166e-07)
(-1.21434e-06 -3.76408e-05 2.07838e-07)
(-1.10303e-06 -3.67371e-05 1.56863e-07)
(-9.42481e-07 -3.5614e-05 1.14394e-07)
(-7.60881e-07 -3.42216e-05 8.09129e-08)
(-5.8005e-07 -3.24793e-05 5.60072e-08)
(-4.14733e-07 -3.02572e-05 3.86997e-08)
(-2.73161e-07 -2.73423e-05 2.7742e-08)
(-1.5804e-07 -2.33671e-05 2.14601e-08)
(-7.04336e-08 -1.76324e-05 1.74187e-08)
(-9.46107e-09 -8.53091e-06 1.00783e-08)
(-1.39246e-08 -8.51051e-06 -1.36428e-08)
(-1.24116e-07 -1.75854e-05 -2.71256e-08)
(-2.72212e-07 -2.33185e-05 -3.2408e-08)
(-4.30468e-07 -2.7324e-05 -3.32322e-08)
(-5.73601e-07 -3.03035e-05 -3.04748e-08)
(-6.82527e-07 -3.26261e-05 -2.42491e-08)
(-7.42539e-07 -3.45036e-05 -1.39931e-08)
(-7.45958e-07 -3.6063e-05 9.83088e-10)
(-6.93263e-07 -3.73788e-05 2.12925e-08)
(-5.94076e-07 -3.84919e-05 4.71315e-08)
(-4.65924e-07 -3.94222e-05 7.76974e-08)
(-3.3108e-07 -4.01757e-05 1.11144e-07)
(-2.10658e-07 -4.075e-05 1.43584e-07)
(-1.17866e-07 -4.11387e-05 1.70285e-07)
(-5.25995e-08 -4.13346e-05 1.85683e-07)
(1.55757e-09 -4.1333e-05 1.85592e-07)
(6.82208e-08 -4.11336e-05 1.70054e-07)
(1.63485e-07 -4.07415e-05 1.43211e-07)
(2.87366e-07 -4.01643e-05 1.10708e-07)
(4.2641e-07 -3.94082e-05 7.72332e-08)
(5.59195e-07 -3.84758e-05 4.66764e-08)
(6.63257e-07 -3.7361e-05 2.089e-08)
(7.20971e-07 -3.60444e-05 6.3123e-10)
(7.2256e-07 -3.44846e-05 -1.42443e-08)
(6.6741e-07 -3.26074e-05 -2.44137e-08)
(5.6303e-07 -3.02861e-05 -3.05771e-08)
(4.23925e-07 -2.73085e-05 -3.32216e-08)
(2.68998e-07 -2.33061e-05 -3.22836e-08)
(1.23213e-07 -1.7577e-05 -2.69008e-08)
(1.40164e-08 -8.50715e-06 -1.3379e-08)
(-3.92054e-08 -8.26095e-06 -3.89207e-08)
(-3.30414e-07 -1.70729e-05 -7.47266e-08)
(-7.26161e-07 -2.26563e-05 -9.02107e-08)
(-1.17182e-06 -2.65846e-05 -9.92902e-08)
(-1.61551e-06 -2.95419e-05 -1.06329e-07)
(-2.01594e-06 -3.18872e-05 -1.13427e-07)
(-2.33458e-06 -3.38261e-05 -1.20943e-07)
(-2.53954e-06 -3.54795e-05 -1.28641e-07)
(-2.60762e-06 -3.69148e-05 -1.35804e-07)
(-2.52712e-06 -3.81657e-05 -1.41463e-07)
(-2.29901e-06 -3.92412e-05 -1.44858e-07)
(-1.9374e-06 -4.01351e-05 -1.45411e-07)
(-1.46702e-06 -4.08317e-05 -1.43715e-07)
(-9.19485e-07 -4.13117e-05 -1.40756e-07)
(-3.2806e-07 -4.15567e-05 -1.38431e-07)
(2.77605e-07 -4.15551e-05 -1.38541e-07)
(8.70417e-07 -4.1307e-05 -1.41027e-07)
(1.42056e-06 -4.0824e-05 -1.44115e-07)
(1.89452e-06 -4.01247e-05 -1.45905e-07)
(2.26043e-06 -3.92286e-05 -1.45372e-07)
(2.4933e-06 -3.81516e-05 -1.41985e-07)
(2.57883e-06 -3.68996e-05 -1.36282e-07)
(2.51587e-06 -3.54636e-05 -1.2907e-07)
(2.31591e-06 -3.38103e-05 -1.21287e-07)
(2.00205e-06 -3.18719e-05 -1.13679e-07)
(1.60602e-06 -2.95279e-05 -1.06495e-07)
(1.16617e-06 -2.65724e-05 -9.93503e-08)
(7.23538e-07 -2.26467e-05 -9.016e-08)
(3.29775e-07 -1.70665e-05 -7.45489e-08)
(3.9327e-08 -8.25848e-06 -3.86794e-08)
(-6.4719e-08 -7.77853e-06 -6.44648e-08)
(-5.3697e-07 -1.6091e-05 -1.2281e-07)
(-1.17994e-06 -2.13767e-05 -1.48684e-07)
(-1.91325e-06 -2.5118e-05 -1.66353e-07)
(-2.65919e-06 -2.79599e-05 -1.83797e-07)
(-3.35471e-06 -3.02408e-05 -2.05197e-07)
(-3.93752e-06 -3.21539e-05 -2.31934e-07)
(-4.35114e-06 -3.38115e-05 -2.64181e-07)
(-4.54769e-06 -3.52742e-05 -3.0108e-07)
(-4.49258e-06 -3.65683e-05 -3.40955e-07)
(-4.16869e-06 -3.76959e-05 -3.8137e-07)
(-3.58049e-06 -3.86437e-05 -4.19202e-07)
(-2.75534e-06 -3.93887e-05 -4.51264e-07)
(-1.74297e-06 -3.99051e-05 -4.74429e-07)
(-6.11245e-07 -4.01697e-05 -4.86493e-07)
(5.61755e-07 -4.01682e-05 -4.86587e-07)
(1.69483e-06 -3.99009e-05 -4.74697e-07)
(2.70974e-06 -3.93819e-05 -4.51683e-07)
(3.53845e-06 -3.86345e-05 -4.1969e-07)
(4.131e-06 -3.76848e-05 -3.81891e-07)
(4.45971e-06 -3.65559e-05 -3.41513e-07)
(4.51986e-06 -3.52611e-05 -3.01607e-07)
(4.32842e-06 -3.3798e-05 -2.64634e-07)
(3.9198e-06 -3.21407e-05 -2.32348e-07)
(3.34168e-06 -3.02283e-05 -2.05519e-07)
(2.65044e-06 -2.79487e-05 -1.84007e-07)
(1.90818e-06 -2.51084e-05 -1.66469e-07)
(1.17768e-06 -2.13692e-05 -1.48681e-07)
(5.36516e-07 -1.60861e-05 -1.22653e-07)
(6.4873e-08 -7.77672e-06 -6.42242e-08)
(-8.86583e-08 -7.07068e-06 -8.84165e-08)
(-7.29042e-07 -1.46559e-05 -1.67878e-07)
(-1.60131e-06 -1.95011e-05 -2.03503e-07)
(-2.60239e-06 -2.29476e-05 -2.29383e-07)
(-3.63146e-06 -2.55806e-05 -2.56888e-07)
(-4.60535e-06 -2.77081e-05 -2.92127e-07)
(-5.43905e-06 -2.95057e-05 -3.37362e-07)
(-6.05236e-06 -3.10749e-05 -3.93199e-07)
(-6.37342e-06 -3.24691e-05 -4.58602e-07)
(-6.34525e-06 -3.37087e-05 -5.31109e-07)
(-5.93339e-06 -3.47928e-05 -6.06685e-07)
(-5.13268e-06 -3.57056e-05 -6.7964e-07)
(-3.9729e-06 -3.64233e-05 -7.43361e-07)
(-2.52128e-06 -3.69206e-05 -7.90894e-07)
(-8.78709e-07 -3.71752e-05 -8.16344e-07)
(8.3061e-07 -3.71738e-05 -8.16414e-07)
(2.47446e-06 -3.69168e-05 -7.91097e-07)
(3.92862e-06 -3.64172e-05 -7.43691e-07)
(5.09181e-06 -3.56973e-05 -6.80073e-07)
(5.89676e-06 -3.4783e-05 -6.07166e-07)
(6.3133e-06 -3.36978e-05 -5.31611e-07)
(6.34644e-06 -3.24577e-05 -4.5911e-07)
(6.03046e-06 -3.10636e-05 -3.93656e-07)
(5.42206e-06 -2.94947e-05 -3.37782e-07)
(4.59296e-06 -2.76978e-05 -2.92479e-07)
(3.62324e-06 -2.55716e-05 -2.5716e-07)
(2.5977e-06 -2.29401e-05 -2.29548e-07)
(1.59927e-06 -1.94954e-05 -2.03535e-07)
(7.28676e-07 -1.46523e-05 -1.67744e-07)
(8.88177e-08 -7.06939e-06 -8.81853e-08)
(-1.08969e-07 -6.16191e-06 -1.08752e-07)
(-8.90575e-07 -1.28184e-05 -2.06103e-07)
(-1.9561e-06 -1.70958e-05 -2.50027e-07)
(-3.18509e-06 -2.01502e-05 -2.82928e-07)
(-4.45772e-06 -2.24893e-05 -3.19101e-07)
(-5.67342e-06 -2.43819e-05 -3.66341e-07)
(-6.72687e-06 -2.59824e-05 -4.27589e-07)
(-7.51616e-06 -2.73797e-05 -5.03701e-07)
(-7.9477e-06 -2.86199e-05 -5.93494e-07)
(-7.94485e-06 -2.97206e-05 -6.93665e-07)
(-7.45763e-06 -3.06796e-05 -7.98663e-07)
(-6.47296e-06 -3.14833e-05 -9.00694e-07)
(-5.02359e-06 -3.21118e-05 -9.90357e-07)
(-3.1924e-06 -3.2545e-05 -1.0576e-06)
(-1.10901e-06 -3.27658e-05 -1.09376e-06)
(1.06296e-06 -3.27646e-05 -1.09382e-06)
(3.14749e-06 -3.25415e-05 -1.05781e-06)
(4.98097e-06 -3.21063e-05 -9.90651e-07)
(6.43356e-06 -3.1476e-05 -9.01073e-07)
(7.42226e-06 -3.06711e-05 -7.99114e-07)
(7.91399e-06 -2.97113e-05 -6.94138e-07)
(7.92169e-06 -2.86103e-05 -5.93973e-07)
(7.49506e-06 -2.73701e-05 -5.04172e-07)
(6.7105e-06 -2.59732e-05 -4.28016e-07)
(5.66156e-06 -2.43735e-05 -3.66709e-07)
(4.44989e-06 -2.24821e-05 -3.19395e-07)
(3.18064e-06 -2.01444e-05 -2.83088e-07)
(1.95427e-06 -1.70915e-05 -2.50069e-07)
(8.90301e-07 -1.28158e-05 -2.05991e-07)
(1.09137e-07 -6.16103e-06 -1.08529e-07)
(-1.23493e-07 -5.09504e-06 -1.23302e-07)
(-1.00546e-06 -1.06647e-05 -2.33391e-07)
(-2.21075e-06 -1.42734e-05 -2.83115e-07)
(-3.60899e-06 -1.68567e-05 -3.20953e-07)
(-5.06737e-06 -1.88318e-05 -3.63436e-07)
(-6.4713e-06 -2.04228e-05 -4.19578e-07)
(-7.69847e-06 -2.17609e-05 -4.92889e-07)
(-8.62861e-06 -2.29215e-05 -5.84345e-07)
(-9.15e-06 -2.39443e-05 -6.92412e-07)
(-9.16979e-06 -2.48444e-05 -8.13016e-07)
(-8.62606e-06 -2.56214e-05 -9.39435e-07)
(-7.50025e-06 -2.62658e-05 -1.06224e-06)
(-5.8282e-06 -2.67645e-05 -1.17003e-06)
(-3.70558e-06 -2.71051e-05 -1.25083e-06)
(-1.28461e-06 -2.72776e-05 -1.29429e-06)
(1.2411e-06 -2.72765e-05 -1.29433e-06)
(3.6631e-06 -2.71022e-05 -1.25098e-06)
(5.78782e-06 -2.67599e-05 -1.17027e-06)
(7.46286e-06 -2.62596e-05 -1.06256e-06)
(8.59237e-06 -2.56142e-05 -9.39816e-07)
(9.14034e-06 -2.48366e-05 -8.13434e-07)
(9.12512e-06 -2.39362e-05 -6.92857e-07)
(8.60839e-06 -2.29136e-05 -5.84783e-07)
(7.68283e-06 -2.17534e-05 -4.9329e-07)
(6.46e-06 -2.04162e-05 -4.19928e-07)
(5.05993e-06 -1.88261e-05 -3.63742e-07)
(3.60479e-06 -1.68522e-05 -3.21141e-07)
(2.20902e-06 -1.42702e-05 -2.83176e-07)
(1.00521e-06 -1.06629e-05 -2.33295e-07)
(1.23656e-07 -5.09453e-06 -1.23093e-07)
(-1.29904e-07 -3.93143e-06 -1.29735e-07)
(-1.05748e-06 -8.31612e-06 -2.45244e-07)
(-2.33332e-06 -1.119e-05 -2.97071e-07)
(-3.82635e-06 -1.32479e-05 -3.36663e-07)
(-5.39793e-06 -1.48101e-05 -3.81974e-07)
(-6.92332e-06 -1.60541e-05 -4.42801e-07)
(-8.26714e-06 -1.70865e-05 -5.23051e-07)
(-9.29494e-06 -1.79697e-05 -6.23647e-07)
(-9.88166e-06 -1.87374e-05 -7.42717e-07)
(-9.92285e-06 -1.94033e-05 -8.75552e-07)
(-9.34857e-06 -1.99691e-05 -1.01455e-06)
(-8.13716e-06 -2.04308e-05 -1.14925e-06)
(-6.32728e-06 -2.07825e-05 -1.26717e-06)
(-4.0236e-06 -2.10193e-05 -1.35533e-06)
(-1.39291e-06 -2.1138e-05 -1.40265e-06)
(1.35258e-06 -2.11372e-05 -1.40268e-06)
(3.98418e-06 -2.10169e-05 -1.35544e-06)