/*--------------------------------*- C++ -*----------------------------------*\
| =========                 |                                                 |
| \\      /  F ield         | OpenFOAM: The Open Source CFD Toolbox           |
|  \\    /   O peration     | Version:  v1912                                 |
|   \\  /    A nd           | Website:  www.openfoam.com                      |
|    \\/     M anipulation  |                                                 |
\*---------------------------------------------------------------------------*/
FoamFile
{
    version     2.0;
    format      ascii;
    class       volScalarField;
    location    "374/sphere";
    object      ddt0((betavSolid*thermo:rho),h);
}
// * * * * * * * * * * * * * * * * * * * * * * * * * * * * * * * * * * * * * //

dimensions      [1 -1 -3 0 0 0 0];


internalField   nonuniform List<scalar> 
6600
(
-92049.2
-92066.4
-92064.7
-92103.4
-92055
-92054.4
-92065.8
-92179.1
-92203.2
-92133.7
-92064.3
-92202.5
-92226.3
-92160.1
-92124.1
-92159.1
-92103.9
-92064.2
-92101.8
-92055.2
-92064.4
-92201.8
-92226.1
-92160.2
-92098.4
-92225.6
-92249.1
-92184
-92065.9
-92051.7
-92158.3
-92182
-92140.5
-92063.1
-92054.1
-92131.2
-92160.2
-92099.4
-92052.7
-92158.2
-92182.9
-92140.2
-92096.5
-92139.4
-92076.4
-92063.7
-92063.9
-92063.7
-92062.1
-92063.9
-92050.2
-92103.5
-92068
-92159.8
-92134.6
-92183.3
-92161.3
-92134.4
-92182.9
-92159.9
-92066.6
-92050.3
-92103.2
-92067.5
-92160.3
-92159.4
-92134.1
-92103.2
-92067.1
-92067
-92050.5
-92061.9
-92061.8
-92061.2
-92060.2
-92055.6
-92060.3
-92061.6
-92056.1
-92060.1
-92061.3
-92055.7
-92062.2
-92071.8
-92054.1
-92053.8
-92097.4
-92139.2
-92054
-92054.4
-92139.5
-92099.6
-92076.7
-92053.2
-92097.1
-92052.7
-92138.9
-92065.3
-92064.9
-92101.1
-92132.8
-92159.4
-92158.7
-92181.9
-92061.9
-92081
-92075.9
-92115.9
-92104.1
-92095.1
-92121.1
-92055
-92099.3
-92140.5
-92055.2
-92053.3
-92053
-92138.8
-92097.4
-92101
-92048.9
-92066.2
-92159
-92181.6
-92133
-92159
-92068
-92067.5
-92050.3
-92182.9
-92161.1
-92159.9
-92134.9
-92140.5
-92055.1
-92099.9
-92071.6
-92053.8
-92096.9
-92139.3
-92054
-92139.7
-92099.5
-92054.4
-92076.7
-92061.9
-92063.1
-92096.5
-92053.1
-92052.4
-92138.3
-92065.2
-92124.2
-92158.5
-92064.6
-92100.2
-92158.6
-92181
-92050.4
-92159.5
-92134.4
-92101.7
-92067
-92181.9
-92160.1
-92104
-92054.6
-92140.2
-92054.6
-92060.2
-92123.9
-92064.5
-92157.6
-92064
-92157.9
-92098.4
-92179.7
-92050.7
-92160.6
-92068.2
-92159.9
-92067.7
-92183.8
-92105.9
-92065.9
-92060.3
-92157.7
-92123.9
-92098.4
-92180.6
-92064.3
-92158.8
-92067.5
-92134.6
-92051.3
-92183.6
-92106
-92160.8
-92067.8
-92066
-92096.8
-92051.8
-92138.7
-92052.8
-92158.7
-92065.3
-92158.1
-92181.1
-92064.3
-92100.3
-92134.2
-92065.9
-92050.3
-92182.1
-92160.3
-92101.8
-92067.6
-92140.4
-92055.1
-92054.6
-92062.1
-92063.1
-92062.1
-92063.1
-92052.8
-92051.8
-92138.4
-92096.3
-92100.4
-92157.9
-92180.9
-92065.5
-92123.8
-92159
-92067
-92181.9
-92160
-92065.8
-92050.3
-92159.7
-92134.3
-92140.4
-92054.8
-92103.7
-92060.3
-92157.8
-92098.4
-92179.8
-92123.6
-92064
-92158.5
-92068.1
-92183.8
-92106
-92134.1
-92050.9
-92160.3
-92067.8
-92065.9
-92060.1
-92180.5
-92064.3
-92157.7
-92063.9
-92158.9
-92124
-92106
-92161.2
-92068.1
-92160.6
-92068
-92134.6
-92051.2
-92138.5
-92053.1
-92096.5
-92180.7
-92064.3
-92100.2
-92123.5
-92158.5
-92065.3
-92160.6
-92101.6
-92067.3
-92159.1
-92134.3
-92066.2
-92050.1
-92055.2
-92054.5
-92104.2
-92062
-92071.2
-92053.5
-92096.5
-92139.2
-92053.1
-92139.5
-92099.6
-92054.3
-92076.6
-92097.1
-92052.5
-92138.4
-92053.3
-92158.8
-92157.5
-92181.2
-92049
-92066
-92064.9
-92100.9
-92140.2
-92054.6
-92055.1
-92138.3
-92096.5
-92053.1
-92181.5
-92131.7
-92158.6
-92065.1
-92100.7
-92049.1
-92065.9
-92055.2
-92099.1
-92054.7
-92071.1
-92139.1
-92053.6
-92053.8
-92099.2
-92054.3
-92054.3
-92051.9
-92048.2
-92047.5
-92051.2
-92048.7
-92053.8
-92049.2
-92053
-92049.2
-92053
-92049
-92052.3
-92048.6
-92046.7
-92047.4
-92056.4
-92055.8
-92049.7
-92061.2
-92060
-92055.2
-92053.4
-92048.8
-92052
-92048.6
-92056.2
-92055.9
-92067.5
-92104.6
-92068.5
-92084
-92084
-92062.1
-92083.1
-92076.4
-92116.4
-92105.6
-92095.1
-92122.9
-92061.5
-92080.9
-92075.5
-92115.6
-92104.1
-92094.9
-92121.1
-92056.1
-92056.1
-92067.4
-92104.3
-92067.9
-92083.9
-92083.6
-92062.4
-92082.3
-92076.4
-92116.1
-92105.1
-92095.3
-92122.2
-92081.9
-92062.2
-92076.1
-92116
-92104.7
-92122.1
-92095.4
-92081.5
-92061.8
-92075.8
-92115.6
-92104.2
-92121.2
-92095
-92056.1
-92056
-92067.3
-92104.5
-92068.4
-92084.3
-92084.2
-92048.9
-92046.9
-92056.4
-92055.4
-92049.1
-92056.3
-92055.2
-92049
-92048.6
-92054.7
-92054.5
-92065.2
-92102
-92066.8
-92082.8
-92082.4
-92054.4
-92063.8
-92051.1
-92076.5
-92112.8
-92060
-92102.3
-92071.4
-92118.6
-92093
-92051.3
-92081.7
-92056.1
-92058.9
-92074.8
-92050.2
-92053.4
-92062.8
-92050.7
-92056
-92080.5
-92074.3
-92058.1
-92095.2
-92052.4
-92063.8
-92051.9
-92078.7
-92061.2
-92079.5
-92114.5
-92061.4
-92103.1
-92077.7
-92094.8
-92073
-92119.6
-92051.4
-92054.5
-92064
-92095
-92063
-92051.2
-92051.8
-92077.8
-92078.7
-92060.9
-92110.7
-92101.5
-92058.5
-92076.2
-92091.4
-92117.7
-92069.7
-92053.6
-92049.6
-92049.5
-92051.7
-92061.2
-92067.7
-92076.7
-92075.7
-92122.5
-92056.8
-92094
-92092.6
-92049
-92110.8
-92076.7
-92101.3
-92058.7
-92117.9
-92070.1
-92091.3
-92125.8
-92096.5
-92137.4
-92091.1
-92132.1
-92085
-92131.1
-92056.6
-92081.5
-92050.2
-92058.8
-92075.1
-92110.6
-92101.4
-92076.1
-92058.9
-92117.8
-92091.4
-92069.9
-92054.3
-92050.2
-92122.2
-92134.4
-92088.3
-92088
-92128.5
-92128.2
-92079.2
-92062.6
-92062.5
-92057
-92054.9
-92079
-92048.6
-92057.1
-92072.5
-92047
-92060.4
-92057
-92052.7
-92049.7
-92052
-92061.6
-92055.8
-92050.7
-92079.9
-92073.8
-92057.6
-92049.5
-92052.1
-92062
-92121.8
-92073.4
-92093.3
-92067.1
-92073.3
-92092.3
-92054.6
-92054.5
-92078.6
-92049.6
-92073.2
-92056.6
-92065.8
-92120.4
-92071
-92070.9
-92091.1
-92090.9
-92053.3
-92055.8
-92058.2
-92058.1
-92051.1
-92047.1
-92055.6
-92056.2
-92048.9
-92047.8
-92054.6
-92054.2
-92054.1
-92050.5
-92053.2
-92063.1
-92050.5
-92079.9
-92055.4
-92057.6
-92073.8
-92049.8
-92052.6
-92061.6
-92055.2
-92049.3
-92079.7
-92057.8
-92072.7
-92065.9
-92072.1
-92070.6
-92120.7
-92053.6
-92092.2
-92090.1
-92050.1
-92080.3
-92074.3
-92055.7
-92057.8
-92054.5
-92063.8
-92051.3
-92055.8
-92050.8
-92080.3
-92057.9
-92074.3
-92051
-92054.4
-92063.8
-92073.5
-92121.8
-92093
-92067.2
-92073.5
-92054.7
-92092.4
-92056.1
-92058
-92057.8
-92050.9
-92050.1
-92053.2
-92063
-92049.6
-92055.2
-92080.1
-92073.8
-92057.6
-92049.8
-92052
-92061
-92065.8
-92071.7
-92070.3
-92120.5
-92053.3
-92091.9
-92089.7
-92055.1
-92048.7
-92079.5
-92057.5
-92072.6
-92077.6
-92060.3
-92102.9
-92071.8
-92119.6
-92113.3
-92093.6
-92060
-92076.6
-92071.4
-92113
-92102.3
-92093.4
-92118.8
-92050.6
-92081.6
-92074.6
-92056
-92058.9
-92073.4
-92121.6
-92092.7
-92067
-92072.8
-92054.7
-92092.5
-92051.4
-92054.6
-92064
-92056.3
-92051.5
-92081.3
-92058.5
-92075
-92055
-92049.3
-92080
-92057.5
-92073.5
-92049.8
-92053.4
-92062.7
-92054.9
-92079.1
-92048.5
-92057.2
-92072.1
-92049.3
-92051.6
-92060.9
-92065.4
-92072.2
-92120.5
-92070.5
-92091.6
-92053.4
-92089.7
-92089.8
-92090.6
-92137.2
-92124.2
-92081.1
-92130.3
-92130.8
-92101.9
-92054.7
-92054.8
-92066.9
-92065.4
-92082
-92082.7
-92078.5
-92113.1
-92060.9
-92103.4
-92071.9
-92120
-92093.6
-92082.8
-92062.6
-92105.8
-92076.2
-92122.8
-92116.5
-92096.1
-92081.9
-92062.4
-92076.4
-92116.2
-92104.7
-92121.6
-92095.5
-92056.2
-92055.8
-92067.6
-92104.8
-92068.4
-92084.7
-92084.1
-92051.4
-92054.7
-92064.3
-92056.3
-92081.2
-92050.9
-92058.5
-92074.7
-92067.5
-92073.7
-92122.2
-92073.9
-92093.5
-92054.7
-92092.7
-92051.4
-92054.6
-92064
-92055.4
-92054.7
-92054.2
-92055.6
-92049.6
-92080.2
-92073.8
-92057.9
-92065.6
-92072.2
-92120.3
-92070.5
-92091.4
-92052.7
-92089.9
-92050.1
-92052.2
-92061.5
-92055.6
-92080
-92050.2
-92058
-92073.3
-92051.3
-92054.5
-92063.9
-92067
-92073.5
-92121.7
-92073.4
-92093.2
-92054.4
-92092.1
-92056.3
-92080.5
-92050.5
-92058.2
-92074.7
-92051.1
-92054.3
-92063.5
-92056
-92058.3
-92058.1
-92051.2
-92047.8
-92047.4
-92055.9
-92055
-92048.7
-92049.3
-92057.1
-92060.5
-92053.3
-92052.6
-92048.6
-92049.7
-92052.4
-92062.1
-92049.6
-92052
-92061.3
-92065.3
-92070.9
-92070.4
-92119.9
-92053.2
-92090.9
-92089.6
-92054.8
-92049.5
-92079
-92073
-92056.9
-92054.8
-92048.7
-92078.7
-92072.4
-92056.9
-92111
-92059.7
-92102.2
-92077
-92091.9
-92070.4
-92118.5
-92111.3
-92059.9
-92076.2
-92101.9
-92070.2
-92093.2
-92117.9
-92122.8
-92089.5
-92088.8
-92136.2
-92079.9
-92129.8
-92129.2
-92103.6
-92055.7
-92068.6
-92055.8
-92083.9
-92066.3
-92083.8
-92125.9
-92091.1
-92096.4
-92137.4
-92084.8
-92131.1
-92132.1
-92115
-92061.6
-92081.2
-92104.7
-92074.5
-92095.2
-92121.4
-92067.9
-92076.1
-92075.9
-92122.6
-92056.7
-92093.5
-92093.5
-92051.4
-92054.9
-92064.3
-92056
-92050.6
-92080.9
-92074.6
-92058.1
-92056.2
-92050.9
-92080.9
-92074.6
-92058.3
-92045.9
-92046.7
-92054.4
-92054.5
-92048.1
-92110.4
-92058.9
-92101.6
-92075.9
-92091.5
-92069.7
-92117.4
-92110.7
-92058.7
-92101.2
-92075.8
-92091.8
-92069.7
-92117.6
-92122.2
-92088
-92088.3
-92134.5
-92079.4
-92128.3
-92128.6
-92105
-92068.7
-92056.5
-92056.3
-92084.5
-92084.6
-92067.7
-92117
-92062.9
-92105.6
-92083.5
-92096
-92077
-92123.3
-92116.5
-92062.2
-92105.3
-92083
-92095.6
-92076.2
-92122.9
-92128.4
-92099.3
-92099.3
-92141.3
-92089.2
-92134.8
-92134.7
-92054
-92049.3
-92054.2
-92049
-92062.3
-92062.5
-92056.5
-92046.8
-92054.8
-92054.5
-92048.8
-92046.1
-92095.6
-92051.4
-92063.2
-92051.5
-92078.1
-92060.6
-92078.9
-92122.5
-92088.7
-92134.5
-92088.2
-92128.7
-92079.9
-92128.5
-92110.9
-92059
-92076.3
-92101.6
-92069.6
-92092.2
-92117.7
-92116.6
-92105.3
-92062.4
-92082.8
-92095.7
-92122.9
-92076.6
-92105.2
-92056.9
-92069.2
-92056.5
-92084.4
-92068
-92084.7
-92128.3
-92099.3
-92141.3
-92099.5
-92134.7
-92089.6
-92134.7
-92116.6
-92062.3
-92083.1
-92105.4
-92076.5
-92095.6
-92123
-92062.4
-92062.6
-92056.9
-92053.9
-92049.4
-92065.4
-92070.2
-92071.5
-92120.1
-92053.1
-92089.7
-92090.8
-92049.8
-92052.3
-92061.7
-92055.1
-92048.5
-92079.2
-92073
-92057.4
-92054.9
-92049.2
-92079.1
-92072.7
-92057.1
-92095.2
-92063.1
-92052
-92051.7
-92078.7
-92078.7
-92061
-92111.4
-92102.4
-92059.6
-92077.6
-92092.5
-92118.9
-92070.7
-92110.8
-92059.1
-92101.5
-92075.9
-92092.1
-92070.1
-92117.5
-92123.2
-92090.3
-92136.1
-92089.1
-92130.2
-92081
-92129.1
-92114.1
-92103.1
-92061
-92078.3
-92094
-92119.7
-92072.9
-92103.2
-92068.4
-92055.1
-92055.8
-92083
-92083.8
-92066.1
-92126
-92091.3
-92137.3
-92096.6
-92131.3
-92084.8
-92132.1
-92115.1
-92061.8
-92105.1
-92082
-92094.9
-92074.9
-92121.8
-92051.5
-92054.9
-92064.4
-92051.1
-92054.6
-92063.7
-92056.1
-92051.1
-92080.9
-92074.4
-92058.2
-92056.4
-92050
-92081.2
-92074.6
-92058.4
-92048.9
-92047.6
-92056.4
-92055.4
-92050.3
-92057.1
-92060.6
-92053.5
-92052.7
-92048.6
-92047.4
-92055.5
-92056.3
-92050.3
-92048.1
-92060.5
-92057.2
-92053.2
-92052.3
-92048.3
-92048.2
-92054.8
-92078.8
-92048.9
-92056.8
-92072.4
-92054.5
-92078.7
-92047.6
-92056.8
-92072.3
-92049.5
-92052
-92061.1
-92049.6
-92052.3
-92061.4
-92065.3
-92119.8
-92070
-92070.9
-92089.6
-92090.5
-92053
-92123.3
-92089.4
-92136.3
-92090.1
-92129.5
-92080.9
-92130
-92095.1
-92051.4
-92052.1
-92063.1
-92061
-92078.2
-92078.8
-92111.5
-92077.4
-92059.8
-92102.6
-92070.7
-92119
-92092.6
-92114.8
-92081.2
-92104.8
-92061.3
-92121.4
-92074.4
-92094.6
-92114.3
-92078.2
-92061.2
-92103
-92072.6
-92119.8
-92094.2
-92103.3
-92055.7
-92055.2
-92068.1
-92065.8
-92083.7
-92083.3
-92056.5
-92081
-92051.6
-92058.5
-92074.7
-92051.1
-92054.3
-92063.9
-92067.5
-92122.3
-92076.1
-92075.4
-92093.5
-92092.5
-92056.6
-92050.9
-92054.5
-92064
-92047
-92054.6
-92054.4
-92048.8
-92046.4
-92122.5
-92088.5
-92134.5
-92088.1
-92128.7
-92080
-92128.3
-92094.9
-92050.9
-92063.1
-92051.6
-92078.3
-92060.5
-92078.8
-92110.9
-92075.3
-92059.1
-92101.5
-92069.9
-92117.3
-92092.4
-92116.7
-92105.4
-92083.3
-92062.6
-92123
-92095.9
-92076.9
-92128.4
-92099.5
-92141.3
-92099.4
-92134.7
-92089.9
-92134.7
-92105
-92056.6
-92068.4
-92056.2
-92084.8
-92067.9
-92084.2
-92116.6
-92083
-92062.3
-92105.4
-92076.7
-92122.9
-92095.5
-92062.6
-92062.4
-92057
-92053.7
-92049.6
-92054.4
-92054.2
-92048.2
-92046
-92046.2
-92110.4
-92075.8
-92101.5
-92058.8
-92117.6
-92069.6
-92091.6
-92110.8
-92075.4
-92101.3
-92059.4
-92117.2
-92069.7
-92093.1
-92094.6
-92050.6
-92051.9
-92063.1
-92060.5
-92078.1
-92079.2
-92128.5
-92141.3
-92099.6
-92099.5
-92134.8
-92134.8
-92089.8
-92116.8
-92083.3
-92105.6
-92062.6
-92123.2
-92076.7
-92095.5
-92116.7
-92083.3
-92105.6
-92062.6
-92123.2
-92076.9
-92095.7
-92105.1
-92056.4
-92056.7
-92068.9
-92067.8
-92084.6
-92084.5
-92054.1
-92049.8
-92054
-92049.5
-92054.6
-92079.1
-92049.8
-92057
-92073.2
-92049
-92051.7
-92060.9
-92065.3
-92120
-92070.4
-92071.2
-92089.7
-92090.8
-92052.8
-92049.9
-92052.1
-92061.8
-92111.4
-92101.6
-92075.6
-92059.5
-92117.6
-92092.9
-92070.3
-92123.1
-92136.1
-92089.2
-92089.9
-92129.2
-92129.9
-92080.4
-92095.7
-92052.3
-92063.1
-92051.8
-92079.3
-92061.5
-92078.3
-92111.1
-92077.2
-92102.3
-92059.2
-92118.7
-92070.4
-92091.7
-92125.7
-92137.2
-92096.4
-92090.9
-92132
-92130.8
-92084.3
-92115.1
-92104.9
-92081.7
-92061.6
-92121.7
-92095.2
-92074.7
-92114.3
-92078
-92103.1
-92061.7
-92119.6
-92072.9
-92094.1
-92103.5
-92055.8
-92068
-92055.5
-92083.9
-92066.4
-92083.1
-92056.4
-92081
-92051
-92058.4
-92074.4
-92056.3
-92081
-92050.7
-92058.2
-92074.6
-92067.9
-92122.9
-92076.6
-92075.6
-92094.3
-92092.7
-92056.9
-92051.8
-92054.8
-92064.3
-92050.9
-92054.4
-92063.8
-92055.4
-92056.3
-92049.3
-92048
-92052.4
-92048
-92048.5
-92053.8
-92054
-92054.7
-92055.5
-92050
-92079.9
-92073.5
-92057.9
-92065.4
-92071
-92120
-92070.9
-92090.7
-92053
-92090.6
-92050.1
-92053.2
-92062.5
-92080.2
-92048.4
-92055.5
-92057.9
-92073.6
-92051.2
-92054.3
-92063.7
-92121.6
-92073
-92091.9
-92066.9
-92073.7
-92093.1
-92054.6
-92050.8
-92080.5
-92074.4
-92055.7
-92057.9
-92053.6
-92063.4
-92050.8
-92055.8
-92057.9
-92058.1
-92051.1
-92065.4
-92071.2
-92120.2
-92071.3
-92091
-92053
-92090.4
-92054.6
-92049.2
-92079
-92072.9
-92056.8
-92049.5
-92052.9
-92062.1
-92049.6
-92054.8
-92079.3
-92073.1
-92057
-92054.4
-92054
-92064.6
-92101.4
-92066.6
-92082
-92081.8
-92078.2
-92103.3
-92060.7
-92120
-92071.9
-92113.1
-92093.4
-92059.9
-92076.9
-92071.2
-92112.6
-92102
-92092.8
-92118.5
-92050.7
-92054.1
-92063.9
-92055.9
-92050.9
-92081.1
-92074.7
-92058.6
-92054.4
-92063.8
-92051.1
-92050.8
-92081
-92074.6
-92056.3
-92058.7
-92049.5
-92052
-92062
-92065.1
-92119.8
-92071
-92070.9
-92090.6
-92090.3
-92053
-92049.7
-92054.6
-92079.1
-92056.9
-92072.9
-92049.9
-92052.7
-92062.3
-92076.8
-92060.4
-92071.5
-92112.5
-92102.1
-92118.6
-92092.9
-92054.4
-92054.7
-92064.8
-92101.5
-92067.1
-92082
-92082.3
-92078
-92103.1
-92060.2
-92119.7
-92071.4
-92112.7
-92093.2
-92056.6
-92081.6
-92051.1
-92075.2
-92058.7
-92121.5
-92072.8
-92092.6
-92067.3
-92073.1
-92092.5
-92054.9
-92051.6
-92055
-92064.1
-92051.4
-92080.6
-92074.4
-92055.9
-92058.2
-92054.1
-92063.9
-92051.2
-92054.1
-92053.5
-92054.5
-92050.4
-92052.2
-92061.5
-92055.2
-92079.6
-92048.7
-92072.6
-92057.7
-92050.4
-92053.5
-92062.7
-92079.7
-92049.5
-92055.2
-92073.3
-92057.6
-92121.5
-92073.2
-92092.9
-92067.1
-92073.4
-92092.1
-92054.8
-92056
-92079.9
-92050.5
-92073.8
-92058
-92051.1
-92054.3
-92063.4
-92050.5
-92080.1
-92074
-92055.9
-92057.9
-92054.3
-92063.8
-92051.1
-92098.1
-92096.5
-92138.8
-92088
-92133.6
-92127.3
-92132.4
-92203.1
-92202.2
-92225.7
-92202
-92225
-92224.5
-92247.7
-92179.5
-92226.9
-92204.3
-92225.7
-92202.9
-92248.9
-92226.7
-92225.3
-92179
-92202.3
-92225.6
-92247.9
-92202.8
-92225.3
-92203.8
-92203
-92180.3
-92249
-92226.7
-92226.4
-92204.2
-92132.7
-92142.7
-92093.5
-92143.2
-92115.1
-92159.5
-92115.4
-92224.9
-92224.4
-92247.6
-92178.8
-92202.8
-92201.9
-92224.9
-92203.5
-92248.9
-92226.8
-92203.9
-92180.2
-92226.7
-92203.7
-92247.9
-92202.4
-92224.9
-92203.1
-92225.5
-92179.3
-92202.3
-92227.1
-92226.4
-92204.4
-92226.8
-92204.1
-92203.1
-92180.2
-92078.2
-92114.2
-92114.2
-92134.6
-92082.3
-92108.1
-92107.8
-92133.9
-92113.9
-92107.5
-92078
-92114.4
-92107.7
-92082.5
-92133.3
-92113.4
-92107.2
-92077.6
-92113.4
-92106.8
-92082.1
-92096.8
-92098.5
-92088.9
-92127.6
-92138.9
-92132.5
-92133.7
-92096.6
-92098.1
-92088.5
-92127.2
-92138.6
-92132.4
-92133.3
-92098
-92096.6
-92088.5
-92127.1
-92138.6
-92133.3
-92132.2
-92113.1
-92076.9
-92113.1
-92132.7
-92081.7
-92106.7
-92105.7
-92113.4
-92133.7
-92107.3
-92077.6
-92113.5
-92081.8
-92107.1
-92076.8
-92113.2
-92132.5
-92112.7
-92106.7
-92081.3
-92105.5
-92090.8
-92090
-92137.2
-92081.7
-92131
-92124.6
-92130.5
-92114.5
-92134.1
-92107.6
-92077.9
-92114.4
-92082.8
-92107.6
-92076.4
-92113.1
-92112.6
-92132.4
-92081.2
-92106.5
-92105.2
-92114.5
-92078.3
-92114.4
-92134.2
-92082.8
-92108
-92107.7
-92077
-92113.3
-92132.7
-92113.4
-92106.5
-92081.9
-92106.1
-92077.9
-92113.6
-92133.6
-92113.8
-92107.5
-92082.2
-92107.2
-92076.2
-92131.9
-92112.5
-92112.2
-92105.9
-92105.1
-92080.8
-92132.9
-92094.2
-92142.9
-92143.5
-92115.2
-92116
-92159.8
-92078.1
-92134.2
-92114.2
-92114
-92107.9
-92107.8
-92082.4
-92132.6
-92093.7
-92142.8
-92142.7
-92114.9
-92115.1
-92159.4
-92132.8
-92142.7
-92093.6
-92142.7
-92115.1
-92159.4
-92115.3
-92076.7
-92132.3
-92112.7
-92112.7
-92105.8
-92105.9
-92081.3
-92078
-92134.4
-92114.2
-92114.3
-92108
-92107.6
-92082.3
-92076.1
-92112.3
-92112.2
-92131.9
-92080.6
-92105.2
-92105.4
-92132.6
-92142.3
-92093.4
-92143.3
-92114.7
-92159.4
-92115.6
-92078.3
-92114.6
-92114.1
-92134.3
-92082.8
-92108.3
-92107.5
-92132.4
-92142.8
-92093.1
-92142.9
-92114.9
-92159.1
-92115.3
-92132.7
-92142.7
-92143.4
-92094
-92159.6
-92114.9
-92115.9
-92076.3
-92112.5
-92112.6
-92132
-92081
-92105.4
-92105.8
-92132.8
-92142.9
-92143.2
-92093.3
-92159.4
-92115.4
-92115.3
-92113.3
-92077
-92113.2
-92132.6
-92106.3
-92081.8
-92106.2
-92133.5
-92113.5
-92107
-92077.5
-92113.3
-92107.1
-92081.8
-92076.4
-92132.2
-92112.5
-92112.4
-92106
-92105.7
-92080.7
-92091
-92136.9
-92089.7
-92131
-92081.3
-92124.2
-92129.8
-92133.9
-92114.1
-92107.8
-92078.4
-92114.3
-92107.6
-92082.8
-92076.1
-92112.3
-92132
-92112.3
-92105.8
-92080.6
-92105.5
-92090.7
-92136.8
-92089.1
-92130.7
-92080.6
-92123.7
-92129.6
-92113.1
-92076.7
-92132.6
-92113
-92106
-92106.1
-92081.7
-92006.5
-91942.4
-91888.7
-92008
-91943.6
-91889.3
-92008.1
-91943.7
-91889.3
-92010
-91945.7
-91890.5
-92009.1
-91944.9
-91889.7
-92008.5
-91944.6
-91890.4
-92010
-91945.8
-91891.1
-92008.7
-91944.7
-91890.1
-92009.2
-91944.9
-91890.3
-92010.4
-91946.2
-91891.2
-92009.5
-91945.3
-91890
-92008.3
-91944.2
-91889.2
-92008.9
-91944.8
-91890.2
-92010.7
-91946.3
-91891.4
-92009.6
-91945.3
-91889.9
-92010.1
-91946
-91891.2
-92004.8
-91940.9
-91886.7
-92005.6
-91941.5
-91887.4
-92008.9
-91944.7
-91889.8
-92008.7
-91944.7
-91890.1
-92008.7
-91944.5
-91890
-92007.1
-91943
-91888.3
-92007.8
-91943.4
-91888.8
-92008.4
-91944.1
-91889.2
-92008.5
-91944.2
-91889.4
-92008.4
-91944
-91889.2
-92007.9
-91943.7
-91888.8
-92008.6
-91944.3
-91889.3
-92008.2
-91943.8
-91889.6
-92009.1
-91944.7
-91890.1
-92008.5
-91944.1
-91889.9
-92008.7
-91944.2
-91889.9
-92008.8
-91944.3
-91889.9
-92007.6
-91943.4
-91888.4
-92007.7
-91943.4
-91888.4
-92008.6
-91944.3
-91889.4
-92007.6
-91943.4
-91888.5
-92008.2
-91943.9
-91888.8
-92008.7
-91944.5
-91889.5
-92007.6
-91943.4
-91888.5
-92008.6
-91944.3
-91889.4
-92008
-91943.7
-91888.7
-92009.3
-91944.9
-91890.2
-92008.8
-91944.5
-91889.9
-92008.4
-91944.1
-91889.8
-92009.7
-91945.3
-91890.5
-92007.4
-91943.2
-91888.9
-92007.7
-91943.5
-91889
-92010.6
-91946.6
-91891.2
-92010.1
-91945.9
-91891.1
-92009.5
-91945.5
-91891
-92010
-91945.8
-91891.2
-92007.9
-91943.6
-91889.1
-92008.4
-91944
-91889.2
-92008.8
-91944.3
-91890
-92008
-91943.7
-91889.6
-92009.3
-91945.3
-91890.7
-92010
-91945.7
-91891
-92008.2
-91944
-91889.7
-92008.3
-91944.3
-91889.8
-92009.3
-91945
-91890.4
-92008.6
-91944.6
-91890
-92009.5
-91945.2
-91890.5
-92008.3
-91944.1
-91889.1
-92008.8
-91944.6
-91889.8
-92008.4
-91944
-91889.3
-92007.3
-91942.9
-91888.3
-92009.2
-91944.9
-91890.4
-92008.7
-91944.8
-91890.4
-92008.9
-91944.8
-91890.4
-92006.7
-91942.3
-91887.3
-92011.9
-91947.5
-91892.4
-92011.3
-91947
-91891.9
-92010.1
-91946
-91891.2
-92006.6
-91942.2
-91887.2
-92009
-91944.8
-91890.8
-92009.9
-91945.4
-91891.1
-92011.1
-91946.8
-91891.9
-92010.2
-91946
-91891.3
-92005.7
-91941.6
-91887.4
-92006.9
-91942.9
-91888.5
-92007.7
-91943.4
-91888.9
-92010
-91945.9
-91890.8
-92009
-91944.8
-91889.7
-92009.1
-91944.6
-91890.3
-92007.7
-91943.5
-91889.6
-92011.5
-91947.1
-91891.8
-92009.7
-91945.7
-91891.1
-92009.6
-91945.4
-91890.9
-92008.2
-91944.3
-91889.8
-92009.2
-91945
-91890.5
-92008.4
-91944.2
-91889.3
-92008.9
-91944.7
-91889.8
-92008.4
-91944.1
-91889.1
-92008.8
-91944.6
-91889.7
-92007.9
-91943.5
-91888.9
-92006
-91941.9
-91887.6
-92009.2
-91944.7
-91890.3
-92008.8
-91944.3
-91890.1
-92009.1
-91945.2
-91890.7
-92009.3
-91945.2
-91890.7
-92006.7
-91942.3
-91887.3
-92007.9
-91943.8
-91890
-92009.4
-91945
-91890.5
-92011
-91946.7
-91891.7
-92010.1
-91945.9
-91891.2
-92006.2
-91941.9
-91886.9
-92011.9
-91947.6
-91892.5
-92011.7
-91947.3
-91892.2
-92008.5
-91944.3
-91890.6
-92009.6
-91945.2
-91890.9
-92010.3
-91945.8
-91891.3
-92007.5
-91943.4
-91888.8
-92008.2
-91943.8
-91889.2
-92010.1
-91945.9
-91890.9
-92011
-91946.6
-91891.4
-92011.1
-91947
-91891.9
-92008.8
-91944.4
-91890.3
-92007.6
-91943.5
-91889.7
-92008.7
-91944.3
-91890.1
-92010
-91945.7
-91891.2
-92009.2
-91945
-91890.5
-92008.6
-91944.3
-91889.3
-92008.3
-91944.1
-91889.7
-92006
-91942.2
-91888.2
-92007.6
-91943.4
-91889
-92008.2
-91944.2
-91889.6
-92009.7
-91945.3
-91890.4
-92007.3
-91943
-91888.5
-92007.3
-91943.3
-91888.8
-92008.5
-91944.1
-91889.4
-92008.5
-91944.6
-91890.2
-92008.9
-91944.8
-91890.4
-92009.7
-91945.6
-91891
-92010.2
-91945.9
-91891.2
-92007.2
-91943.3
-91889
-92008.2
-91943.9
-91889.3
-92007.7
-91943.3
-91889
-92010.4
-91946.1
-91891.3
-92009.2
-91945
-91890.7
-92008.2
-91944.2
-91889.6
-92008.4
-91944.1
-91889.6
-92008.1
-91944.1
-91889.7
-92008.9
-91944.6
-91889.9
-92009.6
-91945.2
-91890.5
-92009.2
-91945
-91890.3
-92006.5
-91942.5
-91888
-92007.1
-91943
-91889.2
-92008.1
-91943.8
-91889.1
-92003.6
-91940
-91886.3
-92005.1
-91941.2
-91886.9
-92007.8
-91943.5
-91889.5
-92007.8
-91943.8
-91889.2
-92007.3
-91943.3
-91888.7
-92008
-91943.9
-91889.2
-92008.6
-91944.3
-91889.9
-92005.8
-91942
-91887.6
-92007.9
-91943.7
-91889.3
-92003.1
-91939.5
-91886.1
-92006.4
-91942.4
-91888.3
-92005.5
-91941.6
-91887.4
-92007.1
-91943
-91889.3
-92007
-91943.1
-91888.1
-92007.1
-91943.2
-91888.2
-92008.2
-91944
-91889.1
-92007.4
-91943.2
-91888.1
-92007
-91943.1
-91888.7
-92007.4
-91943.1
-91889
-92004.9
-91941.2
-91887
-92007.1
-91942.7
-91888.7
-92010.2
-91945.7
-91890.9
-92010.2
-91945.7
-91890.9
-92010.7
-91946.1
-91891.2
-92009.7
-91945.3
-91890.9
-92010.4
-91946
-91891.2
-92010
-91945.5
-91890.8
-92005.4
-91941.6
-91887.8
-92009.1
-91944.9
-91890.2
-92007.3
-91943.3
-91888.7
-92003.2
-91939.7
-91886
-92006.5
-91942.7
-91887.8
-92006.1
-91942.2
-91887.1
-92006.9
-91942.9
-91887.9
-92006.2
-91942.2
-91887.2
-92007.9
-91943.7
-91889.5
-92004.7
-91941
-91887.3
-92007.2
-91943
-91889.1
-92010.1
-91945.5
-91890.7
-92010.2
-91945.7
-91890.7
-92009.9
-91945.4
-91891.2
-92011.5
-91946.9
-91892.1
-92009.4
-91945.1
-91890.7
-92009.6
-91945.1
-91890.9
-92008.5
-91944.3
-91890.3
-92009.6
-91945.5
-91890.5
-92011.2
-91947
-91891.8
-92008.7
-91944.5
-91890.4
-92008.3
-91944.3
-91890.2
-92010.5
-91946
-91891.2
-92009.5
-91945.4
-91890.8
-92009.8
-91945.6
-91891
-92010.8
-91946.6
-91891.9
-92008.3
-91943.9
-91889.6
-92008.1
-91943.6
-91889.4
-92007.8
-91943.4
-91889.1
-92009.2
-91944.6
-91890.1
-92010.4
-91945.7
-91890.9
-92008
-91943.8
-91889.8
-92007.9
-91943.8
-91889.8
-92009.2
-91944.8
-91890.6
-92009.3
-91945.3
-91890.6
-92009.8
-91945.6
-91890.9
-92010.2
-91946
-91891.3
-92009.7
-91945.3
-91890.7
-92009.2
-91945
-91890.7
-92007.9
-91943.9
-91890
-92009.8
-91945.6
-91890.9
-92010.4
-91946.3
-91891.4
-92010.8
-91946.7
-91891.8
-92012.9
-91948.5
-91893.1
-92009.6
-91945.1
-91890.7
-92009.7
-91945.3
-91890.8
-92008.9
-91944.6
-91890.3
-92010.7
-91946
-91891.4
-92011.1
-91946.3
-91891.6
-92007.5
-91943.3
-91889.4
-92008
-91943.9
-91889.7
-92009.3
-91944.8
-91890.2
-92008.4
-91944.2
-91889.9
-92010.3
-91946.1
-91891
-92008.3
-91944.2
-91889.3
-92010
-91945.7
-91890.5
-92008.1
-91944.2
-91889.5
-92008.8
-91944.5
-91890.3
-92007.5
-91943
-91889
-92007.6
-91943.3
-91889
-92007.1
-91942.8
-91888.6
-92008.5
-91944.1
-91889.7
-92008.6
-91944.3
-91890
-92010.9
-91946.6
-91891.7
-92010.6
-91946.3
-91891.5
-92009.5
-91945
-91890.3
-92006.4
-91942.4
-91888.4
-92008.9
-91944.8
-91889.9
-92011.1
-91946.9
-91891.6
-92010.5
-91946.5
-91891.4
-92009.6
-91945.4
-91890.9
-92008.2
-91944
-91889.6
-92006.5
-91942.5
-91888.7
-92007.1
-91942.9
-91888.9
-92010.3
-91946.2
-91891.7
-92009.3
-91945.1
-91889.9
-92010.7
-91946.3
-91891
-92008.5
-91944.5
-91890
-92008.7
-91944.4
-91890.5
-92009.7
-91945.6
-91890.7
-92009.5
-91945.4
-91890.5
-92008.9
-91944.7
-91889.6
-92008.8
-91944.4
-91889.6
-92006
-91941.7
-91887.7
-92005.1
-91941
-91887.2
-92007.4
-91942.9
-91888.4
-92009.3
-91945
-91890.2
-92004.7
-91940.9
-91887
-92007.1
-91942.9
-91888.9
-92008.2
-91944
-91889.2
-92008.1
-91944.1
-91889
-92009.5
-91945.3
-91890.6
-92007.6
-91943.2
-91889.2
-92007.6
-91943.2
-91889.2
-92007.5
-91943.2
-91888.9
-92008.8
-91944.2
-91889.9
-92008.7
-91944.3
-91890.1
-92009.7
-91945.5
-91890.7
-92009.9
-91945.6
-91890.8
-92008.4
-91944.1
-91890
-92008.7
-91944.6
-91890.3
-92009.1
-91944.7
-91890.5
-92009.7
-91945.5
-91890.9
-92007.5
-91943
-91888.9
-92007.1
-91942.7
-91888.7
-92006.8
-91942.5
-91888.3
-92008.5
-91944
-91889.7
-92008.1
-91943.7
-91889.6
-92011.4
-91946.8
-91892.1
-92010.5
-91946
-91891.3
-92010.6
-91946.1
-91891.5
-92007.9
-91943.9
-91889.1
-92008.8
-91944.5
-91889.6
-92006.8
-91942.6
-91888.5
-92006.3
-91942.2
-91888.4
-92008.8
-91944.5
-91889.7
-92008.9
-91944.6
-91889.9
-92010.2
-91945.7
-91891.1
-92009.6
-91945.2
-91890.7
-92009.9
-91945.5
-91890.8
-92011.8
-91947.3
-91892.6
-92011.8
-91947.2
-91892.5
-92011.7
-91947.1
-91892.3
-92012.6
-91948.1
-91893
-92011.4
-91947
-91892.2
-92012
-91947.5
-91892.5
-92011.3
-91946.8
-91891.9
-92009.4
-91944.9
-91891
-92009.5
-91945
-91890.9
-92004.6
-91940.7
-91886.9
-92005.7
-91941.7
-91887.8
-92006.8
-91942.9
-91887.8
-92006.5
-91942.6
-91887.6
-92007.9
-91943.9
-91889.5
-92003.8
-91940.2
-91886.6
-92006.6
-91942.5
-91888.8
-92010.8
-91946.3
-91891.5
-92010.4
-91945.9
-91891.3
-92010.5
-91946.1
-91891.4
-92009.6
-91945.2
-91890.9
-92010.5
-91946.1
-91891.4
-92009.7
-91945.4
-91891
-92008.8
-91944.4
-91889.9
-92008.7
-91944.2
-91890
-92007.9
-91943.6
-91889.4
-92009.8
-91945.2
-91890.5
-92008.5
-91944.1
-91889.8
-92009.1
-91944.9
-91890.1
-92007.8
-91943.5
-91889.3
-92007.8
-91943.4
-91889.3
-92007.6
-91943.3
-91889.1
-92008.9
-91944.5
-91890.2
-92008.7
-91944.6
-91889.8
-92006.8
-91942.6
-91888.8
-92007
-91942.9
-91889.1
-92008.5
-91944.1
-91889.9
-92009.4
-91945.4
-91890.5
-92010.9
-91946.3
-91891.6
-92011.1
-91946.5
-91891.9
-92009.5
-91945.1
-91890.6
-92010
-91945.4
-91890.9
-92008.9
-91944.5
-91890.2
-92009.6
-91945.5
-91890.7
-92008.5
-91944.2
-91890
-92009.1
-91944.7
-91890.7
-92009.2
-91944.9
-91890.6
-92009
-91944.5
-91890.5
-92008.9
-91944.5
-91890.1
-92010.3
-91945.7
-91891.2
-92010.9
-91946.2
-91891.5
-92011.8
-91947.2
-91892.3
-92011.6
-91947
-91892.5
-92011.5
-91946.9
-91892.4
-92011.7
-91947.2
-91892.2
-92011.8
-91947.3
-91892.4
-92011.4
-91947
-91892.1
-92009
-91944.5
-91890.6
-92008.4
-91943.9
-91889.6
-92008
-91943.5
-91889.5
-92007.7
-91943.4
-91889.1
-92009.2
-91944.7
-91890.2
-92006.7
-91942.5
-91888.6
-92008.7
-91944.6
-91889.8
-92007.6
-91943.3
-91889.4
-92007.8
-91943.5
-91889.1
-92007.8
-91943.5
-91889
-92009.3
-91944.8
-91890.4
-92008.7
-91944.6
-91889.7
-92006.6
-91942.4
-91888.3
-92008.2
-91944
-91889.9
-92009.6
-91945.6
-91890.8
-92009.6
-91945.4
-91890.9
-92010.6
-91946.5
-91891.8
-92011.2
-91946.7
-91891.9
-92010.2
-91945.7
-91891.3
-92009.6
-91945.3
-91891
-92009.6
-91945.3
-91890.8
-92011.2
-91946.6
-91891.9
-92010.3
-91946.2
-91891.4
-92008.8
-91944.5
-91890.6
-92008.9
-91944.8
-91890.7
-92008.5
-91944.4
-91889.6
-92006.6
-91942.4
-91888.5
-92007.7
-91943.3
-91889.1
-92008
-91943.6
-91889.2
-92007.8
-91943.4
-91889.4
-92007.3
-91943
-91888.7
-92009.1
-91944.6
-91890.3
-92011
-91946.4
-91891.4
-92008.7
-91944.5
-91889.5
-92006.9
-91942.6
-91888.3
-92006
-91941.9
-91888.3
-92007.1
-91942.8
-91888.5
-92006.8
-91942.5
-91888.9
-92006.9
-91942.6
-91888.4
-92009.2
-91944.8
-91890.2
-92008.6
-91944.3
-91890.1
-92011
-91946.5
-91891.7
-92010.7
-91946.2
-91891.3
-92009.3
-91945
-91890.5
-92009.4
-91945.1
-91890.9
-92009.9
-91945.4
-91891
-92009.1
-91944.8
-91890.4
-92011.2
-91946.6
-91891.8
-92009.9
-91945.8
-91891
-92008.4
-91944.2
-91890.1
-92009.1
-91944.8
-91890.8
-92008.2
-91944.2
-91890.1
-92010.3
-91945.8
-91891.4
-92011.4
-91946.9
-91892.1
-92009.7
-91945.3
-91890.8
-92009.6
-91945.1
-91890.8
-92008.7
-91944.4
-91890.3
-92010.4
-91945.8
-91891.3
-92011
-91946.4
-91891.8
-92011.4
-91946.9
-91892.1
-92010.4
-91945.9
-91891.3
-92011.4
-91947
-91892.1
-92011.5
-91947.1
-91892.1
-92010.5
-91946.1
-91891.3
-92010.9
-91946.5
-91891.6
-92010
-91945.5
-91891
-92009.2
-91945.1
-91890.2
-92009.5
-91945.2
-91890.4
-92006.6
-91942.4
-91888.8
-92010.1
-91945.9
-91891.2
-92009.4
-91944.9
-91890.2
-92008.2
-91943.7
-91889.5
-92008.1
-91943.8
-91889.5
-92007.8
-91943.5
-91889.2
-92009.5
-91944.9
-91890.4
-92009.5
-91945.4
-91890.5
-92008.2
-91943.9
-91889.7
-92007.4
-91943.3
-91889.4
-92009.3
-91945
-91890.6
-92010
-91945.5
-91891.1
-92008.6
-91944.3
-91890.1
-92010.8
-91946.2
-91891.6
-92010.3
-91945.8
-91891.3
-92010.7
-91946.2
-91891.7
-92010.2
-91946.1
-91891.2