/*--------------------------------*- C++ -*----------------------------------*\
| =========                 |                                                 |
| \\      /  F ield         | OpenFOAM: The Open Source CFD Toolbox           |
|  \\    /   O peration     | Version:  v1912                                 |
|   \\  /    A nd           | Website:  www.openfoam.com                      |
|    \\/     M anipulation  |                                                 |
\*---------------------------------------------------------------------------*/
FoamFile
{
    version     2.0;
    format      ascii;
    class       volScalarField;
    location    "148/oil";
    object      heatTransferCoeff(T);
}
// * * * * * * * * * * * * * * * * * * * * * * * * * * * * * * * * * * * * * //

dimensions      [1 0 -3 -1 0 0 0];


internalField   uniform 0;

boundaryField
{
    maxY
    {
        type            calculated;
        value           uniform 0;
    }
    minX
    {
        type            calculated;
        value           uniform 0;
    }
    maxX
    {
        type            calculated;
        value           uniform 0;
    }
    minY
    {
        type            calculated;
        value           uniform 0;
    }
    minZ
    {
        type            calculated;
        value           uniform 0;
    }
    maxZ
    {
        type            calculated;
        value           uniform 0;
    }
    oil_to_sphere
    {
        type            calculated;
        value           nonuniform List<scalar> 
1536
(
-85.6515
-82.8766
-82.9243
-77.6092
-77.2665
-82.6373
-80.4641
-81.2325
-80.8941
-77.9447
-75.989
-78.2793
-80.8148
-78.5104
-75.1208
-80.0758
-82.6835
-83.0611
-79.9048
-80.6902
-81.9429
-80.897
-81.1579
-80.0501
-80.353
-80.1889
-80.2655
-79.6912
-82.5942
-81.0958
-83.428
-82.8641
-83.0039
-80.0291
-80.2237
-79.6577
-79.8636
-79.0149
-79.6026
-80.2056
-79.4614
-79.9132
-80.8059
-81.4666
-82.1824
-80.1726
-82.2262
-81.4246
-75.2158
-80.2275
-81.6889
-80.9612
-81.3451
-79.9759
-82.4919
-84.4746
-81.0773
-80.7056
-81.9497
-81.5833
-80.7821
-80.7676
-80.7638
-79.9195
-80.2486
-80.6382
-80.6714
-81.7919
-81.6904
-82.4051
-79.9059
-77.6358
-78.4115
-80.2046
-80.1435
-84.6329
-83.0097
-79.2603
-80.0873
-83.0177
-81.9765
-81.6517
-77.4565
-77.347
-82.5738
-85.1857
-76.9736
-80.4335
-81.6305
-81.5914
-81.0524
-79.7393
-79.7352
-79.8418
-80.173
-81.4162
-82.0904
-82.2364
-83.1768
-81.5242
-82.0218
-79.8503
-85.7807
-81.762
-78.3087
-80.1211
-80.2975
-77.8483
-77.8974
-85.9353
-82.9626
-81.2957
-80.7584
-81.2375
-77.1007
-77.5434
-76.6211
-83.9567
-85.4666
-83.1902
-81.0351
-81.2253
-79.5722
-82.0249
-83.3447
-81.6882
-80.9382
-79.3688
-82.1938
-81.8231
-80.6739
-81.7223
-82.433
-80.2571
-80.4935
-82.4966
-81.2337
-83.0652
-79.4424
-82.7045
-80.8877
-81.8213
-81.8368
-80.8344
-80.4805
-80.7809
-81.2821
-84.7028
-81.489
-85.8891
-82.2265
-83.6331
-81.0573
-81.2469
-79.967
-82.0822
-82.3682
-82.6504
-86.5584
-84.2476
-82.9472
-84.9845
-78.3932
-78.8705
-79.7828
-79.669
-82.2512
-84.1201
-82.998
-84.9783
-79.7931
-79.9861
-79.3597
-82.1981
-81.4753
-81.575
-84.9412
-79.9484
-79.9137
-85.118
-79.4457
-78.8447
-78.8065
-79.0384
-82.4765
-85.2303
-84.2975
-79.641
-78.8457
-83.0291
-79.075
-82.5332
-82.4161
-83.6882
-78.2676
-74.7453
-83.638
-83.9651
-80.8692
-80.0309
-81.0298
-80.4242
-83.1504
-83.6305
-82.2515
-81.6893
-80.2146
-84.011
-83.2984
-82.1706
-79.3176
-80.2273
-80.1175
-80.8733
-82.2996
-84.7306
-79.8014
-78.443
-78.4872
-74.4789
-82.8256
-82.152
-81.6048
-81.0778
-81.2497
-84.1608
-82.5616
-80.653
-82.8795
-78.0929
-79.7174
-74.9845
-80.7214
-83.0505
-83.6528
-83.4748
-82.7271
-82.1044
-83.1061
-78.2924
-78.6671
-80.2091
-83.9641
-79.3059
-75.2274
-76.6328
-82.0887
-81.813
-85.3121
-87.1749
-81.3215
-77.4654
-74.4654
-81.5793
-83.9786
-79.8332
-79.9215
-76.8406
-79.7243
-84.12
-85.4594
-81.0965
-79.994
-84.1807
-84.518
-80.1566
-77.9052
-80.9945
-84.8174
-84.1031
-82.1159
-82.4575
-83.5094
-78.9108
-80.0081
-83.7026
-82.455
-83.521
-80.8823
-82.9558
-84.6801
-82.3661
-82.1119
-84.1292
-80.0375
-79.9222
-80.3463
-79.453
-79.7537
-83.7569
-84.8074
-79.7877
-80.455
-80.3217
-80.5408
-79.6507
-81.3696
-80.9577
-79.1973
-76.9633
-79.6521
-78.2987
-79.398
-85.2797
-84.2149
-84.2225
-87.1552
-78.6005
-78.8115
-81.7546
-85.8395
-86.2078
-79.838
-80.9861
-79.6569
-82.3984
-80.0747
-82.0501
-82.2905
-83.265
-82.4493
-80.4489
-82.6707
-79.5709
-83.5615
-83.9446
-82.8488
-82.6771
-79.0817
-84.9838
-85.1357
-82.8255
-78.1524
-80.0262
-80.6517
-82.3212
-82.0248
-82.2942
-79.0068
-83.5223
-84.3819
-83.1439
-84.1942
-81.7675
-81.5294
-80.869
-78.7285
-81.7105
-82.4789
-78.6524
-78.3919
-78.9121
-85.7252
-83.5967
-84.2825
-81.886
-81.541
-84.0176
-78.4714
-85.1377
-83.1685
-81.4674
-81.4974
-78.3589
-83.4288
-83.5038
-79.2889
-81.4458
-80.7242
-80.0583
-82.4757
-83.4718
-80.8141
-80.2833
-78.7616
-84.7089
-83.548
-78.4334
-84.0817
-83.8249
-82.8709
-84.6528
-81.4143
-82.6067
-78.1735
-78.1673
-82.3316
-86.7371
-83.0313
-85.555
-82.0362
-80.4099
-83.1699
-79.1027
-79.9367
-82.3089
-83.4202
-82.5303
-81.8523
-79.2815
-78.9183
-83.7594
-84.3186
-83.5694
-81.5036
-79.9227
-82.0714
-82.648
-83.2678
-81.6327
-80.6539
-79.4832
-81.3407
-79.0412
-77.8761
-79.8263
-79.4401
-81.3162
-77.8497
-80.3884
-85.3751
-80.3337
-80.3004
-83.4541
-83.3432
-82.306
-80.755
-78.5087
-82.9876
-84.206
-82.2298
-81.7739
-82.9207
-81.0948
-81.2634
-81.8604
-77.4612
-82.7232
-84.3181
-84.3141
-83.2546
-82.7056
-82.3712
-81.6232
-80.7653
-79.0862
-81.1664
-79.2893
-78.3488
-79.4994
-77.7144
-85.3732
-85.0108
-83.8839
-86.6463
-79.9006
-85.322
-78.9182
-79.4366
-82.6488
-79.9386
-78.8667
-80.4142
-80.1327
-85.1239
-84.3384
-81.8494
-82.1218
-84.6689
-83.8084
-81.5628
-82.6716
-79.2809
-83.3913
-78.0634
-84.3036
-77.4179
-82.8788
-83.1093
-83.3312
-80.4199
-78.7755
-80.6389
-83.391
-80.7718
-77.9176
-83.5796
-83.6482
-84.6877
-86.0773
-82.3501
-84.3155
-78.5686
-78.9462
-75.438
-76.419
-81.3641
-80.2608
-79.9924
-79.5485
-85.4691
-80.1681
-78.2645
-77.8172
-80.9762
-78.7547
-86.5869
-79.5648
-79.7392
-81.3008
-76.0115
-76.6958
-79.835
-79.7668
-80.7123
-80.2218
-83.6162
-83.2492
-82.391
-81.5254
-77.7185
-80.0616
-83.4149
-79.0342
-79.2467
-82.8694
-84.6323
-79.4114
-75.8007
-78.6665
-76.0434
-81.0316
-80.3364
-79.7241
-78.2619
-75.655
-82.6587
-82.9329
-81.9407
-81.1924
-84.8856
-82.692
-82.1926
-81.5978
-79.0592
-80.0216
-83.6445
-82.5053
-80.4538
-76.4851
-81.5988
-83.818
-85.0191
-81.7024
-80.6945
-84.7607
-81.9922
-84.3189
-79.1853
-80.0075
-78.8081
-80.2815
-81.4892
-84.4542
-81.103
-79.3397
-79.0112
-81.2635
-86.4128
-78.8889
-80.0549
-78.2378
-81.6321
-81.4894
-83.7994
-84.7134
-78.8187
-78.0854
-84.8122
-85.4305
-77.08
-85.0209
-84.0444
-83.0514
-84.2275
-82.391
-81.5651
-81.5275
-84.7738
-81.6347
-82.283
-81.3875
-83.2913
-81.8385
-81.1654
-81.0124
-78.5508
-82.912
-81.5623
-83.3023
-82.7495
-82.8915
-82.5039
-81.7054
-78.2468
-83.843
-83.9116
-82.4703
-81.1347
-81.8859
-85.8285
-78.9958
-79.1094
-78.537
-82.3027
-80.4916
-85.7936
-80.4454
-80.7667
-81.5145
-75.7123
-75.8224
-79.9304
-79.851
-81.2659
-78.7661
-79.3114
-82.5623
-80.395
-84.6747
-79.7793
-85.541
-81.4744
-82.2594
-75.9734
-75.787
-75.3154
-79.8175
-83.0103
-80.1849
-79.7569
-75.9516
-81.1882
-83.5361
-81.2084
-87.8855
-79.3243
-83.5839
-83.1584
-82.9334
-84.049
-84.1468
-83.1782
-81.3843
-80.7547
-81.1882
-83.0374
-80.8153
-81.952
-81.8911
-81.9814
-83.3229
-82.5417
-82.9759
-78.7779
-79.2901
-74.7135
-76.7683
-77.7405
-73.0371
-80.0455
-80.2427
-80.7943
-81.1909
-77.7769
-78.61
-80.4541
-84.1422
-84.1485
-80.4127
-77.9783
-80.8772
-83.3838
-82.9439
-81.1557
-77.9314
-79.3159
-82.4815
-82.1515
-81.1139
-80.1705
-82.727
-82.908
-84.7144
-82.8272
-81.6153
-80.2305
-79.2471
-78.3847
-80.7349
-81.616
-85.9649
-81.3435
-85.4621
-80.5052
-86.3499
-79.9355
-80.8471
-78.9053
-79.2917
-80.2124
-78.7071
-80.7583
-77.8337
-79.972
-83.7988
-80.4009
-78.4735
-84.9867
-82.7614
-82.0081
-81.1593
-85.2287
-87.9012
-76.9892
-82.5602
-82.3413
-82.3082
-78.7796
-81.1031
-79.6758
-82.0969
-83.3133
-83.6611
-79.167
-82.5337
-81.6257
-82.6778
-82.5664
-82.106
-80.6455
-80.9609
-80.1526
-78.0377
-77.7367
-78.9602
-84.3553
-80.0132
-78.3823
-80.0745
-83.7424
-80.6562
-84.4429
-83.398
-82.2535
-81.6201
-82.2738
-84.9897
-78.9484
-82.4455
-84.0336
-84.0697
-81.6774
-79.5503
-80.7718
-82.3371
-84.1707
-78.8495
-80.986
-81.6723
-83.6276
-82.0584
-82.4349
-84.532
-78.8481
-79.7221
-79.3598
-85.0813
-83.6872
-81.4286
-83.6289
-79.687
-80.0769
-83.6148
-82.5657
-84.6235
-79.0164
-83.082
-83.5106
-81.6413
-82.0974
-82.9668
-79.2955
-77.5022
-81.2531
-82.4993
-85.5957
-80.9523
-79.9777
-81.1173
-82.1733
-83.092
-81.49
-79.6833
-80.9358
-83.4022
-79.4547
-79.4101
-80.8619
-79.9273
-81.8729
-81.5921
-84.0148
-82.3959
-83.1565
-80.1363
-81.2424
-81.855
-81.0115
-80.5603
-80.2598
-80.1404
-78.9653
-82.6928
-81.7966
-81.6907
-82.317
-78.0568
-80.3084
-85.0384
-85.0064
-79.5942
-83.6765
-82.171
-82.5311
-80.2333
-84.193
-83.856
-78.8972
-80.6051
-80.2919
-80.2139
-78.2626
-78.5784
-80.274
-83.9478
-86.4879
-79.8576
-82.985
-82.6766
-82.0427
-80.8144
-81.8755
-84.0691
-82.3205
-79.0125
-80.3319
-80.1088
-80.4789
-82.3505
-82.9309
-82.7398
-82.822
-82.9807
-79.7522
-82.906
-80.4481
-82.7315
-75.7198
-82.3508
-84.1984
-80.553
-77.0091
-81.6204
-81.0836
-85.2024
-79.4337
-82.919
-81.2271
-77.4835
-84.9961
-78.5068
-80.8802
-81.2136
-78.1526
-83.723
-81.7632
-80.9079
-81.9329
-81.7552
-80.7259
-85.2949
-78.6859
-80.2635
-75.2845
-81.3376
-80.4593
-81.3051
-83.6987
-87.8577
-78.1723
-80.3868
-86.803
-78.5774
-82.7802
-79.6188
-82.5353
-77.0948
-79.5535
-86.7045
-77.2998
-86.5983
-77.7295
-85.1589
-77.7734
-79.3877
-75.8858
-78.9222
-86.2832
-76.2675
-81.5267
-77.3578
-84.9394
-86.3054
-76.4578
-81.2955
-79.6293
-78.9873
-78.8213
-80.173
-81.2529
-81.2887
-82.3954
-81.0319
-84.6867
-86.9911
-76.4582
-82.0469
-82.0003
-81.2206
-81.5656
-80.9571
-80.8085
-80.9177
-83.1415
-81.1012
-83.1077
-80.2861
-81.8706
-84.281
-80.4867
-82.2798
-83.5936
-80.2046
-81.8745
-81.1599
-82.399
-80.8369
-81.6488
-80.6156
-83.4266
-80.3624
-81.93
-77.7931
-85.0222
-76.5167
-82.6932
-83.5196
-84.6407
-79.4405
-81.5709
-80.9839
-81.4551
-81.7078
-81.1467
-83.1373
-79.0815
-74.5892
-81.9457
-77.0795
-83.9956
-79.5456
-81.2515
-83.4494
-74.8117
-85.2063
-79.4844
-75.897
-79.969
-82.7044
-82.4747
-81.5157
-76.1724
-81.6431
-82.0301
-79.8341
-79.4987
-84.0324
-83.6774
-80.1887
-81.2952
-84.038
-76.3285
-83.5154
-79.4716
-82.3883
-76.6101
-86.7373
-85.5405
-83.3461
-81.5131
-80.9615
-82.9464
-80.7546
-76.1323
-78.8579
-82.8115
-79.5906
-82.8408
-76.9317
-83.9807
-82.7882
-73.3079
-81.692
-81.9617
-75.0284
-85.0938
-77.6742
-83.9586
-84.9991
-83.2327
-75.5657
-81.5891
-80.7722
-81.671
-81.7325
-82.5504
-76.2824
-80.4402
-79.5543
-79.6063
-83.9475
-81.3562
-82.5312
-82.4716
-82.4283
-80.7326
-81.5569
-80.8792
-81.9093
-83.8644
-80.0588
-80.6262
-79.8606
-81.868
-83.5154
-80.0645
-80.4409
-80.2142
-81.3659
-79.6055
-79.7369
-80.4726
-80.6751
-81.5265
-80.723
-84.597
-83.3642
-77.0605
-77.5167
-84.7066
-72.9494
-82.821
-82.0354
-79.7306
-80.7539
-85.1055
-74.9439
-83.6307
-82.3886
-75.8289
-80.3582
-80.0256
-81.764
-74.6474
-84.1205
-82.7836
-74.7633
-83.8652
-84.2794
-76.5219
-84.6374
-83.6837
-76.6048
-79.9816
-79.6844
-75.0519
-81.3107
-81.6399
-79.3206
-79.4416
-79.9642
-73.9434
-79.2769
-75.5908
-73.7116
-83.5843
-79.6159
-86.2146
-80.404
-76.2209
-84.0257
-81.5181
-75.3876
-80.1241
-80.0568
-75.3295
-77.3725
-85.1275
-72.1348
-78.9121
-79.5051
-73.2497
-83.7854
-83.2123
-81.302
-80.3813
-80.1177
-78.8374
-74.2123
-81.3775
-80.3457
-80.5393
-81.3178
-75.6254
-83.1867
-80.0107
-81.0042
-79.7069
-80.8903
-81.5123
-78.8097
-75.898
-80.4375
-82.307
-79.9223
-80.442
-81.2189
-79.4206
-80.6039
-75.643
-80.2857
-82.6878
-79.7462
-80.7694
-79.5009
-76.0482
-84.7223
-84.7712
-83.8777
-85.0949
-76.4657
-74.9862
-80.4901
-83.6497
-81.6186
-82.7433
-83.1686
-78.9051
-78.2531
-75.6326
-76.8325
-79.292
-81.0342
-80.857
-80.7353
-78.4922
-83.4766
-82.1737
-76.6501
-78.9771
-78.8219
-83.1002
-79.4119
-74.3057
-82.1408
-81.1346
-83.6395
-75.4391
-80.2819
-82.1272
-80.2004
-80.6465
-82.6981
-81.0107
-78.869
-85.0869
-73.2939
-78.8021
-81.3044
-79.4855
-80.3128
-84.8402
-82.355
-81.4577
-78.0955
-84.3556
-80.2708
-81.5424
-83.1363
-83.6887
-83.4337
-83.6641
-84.7245
-85.2484
-84.4887
-84.4954
-82.0976
-83.3505
-80.0303
-80.7115
-78.583
-77.5642
-73.8231
-84.9376
-84.7381
-83.914
-80.5039
-81.5358
-81.3728
-79.5326
-81.7632
-83.2567
-79.0589
-80.827
-82.5522
-80.0323
-80.1054
-79.9219
-80.4765
-79.3103
-80.3706
-80.1639
-76.5896
-82.0889
-79.1938
-80.777
-75.2328
-85.2815
-80.9328
-79.668
-79.2675
-76.8608
-81.2915
-79.7612
-74.998
-78.2279
-80.8217
-77.6601
-78.061
-85.2824
-85.632
-80.2382
-80.2364
-82.936
-84.7126
-74.8968
-80.097
-79.3701
-80.3043
-80.3134
-80.529
-80.9421
-78.358
-75.9448
-84.5228
-80.2775
-77.8074
-78.2937
-80.1335
-81.2665
-76.9786
-81.1668
-79.7146
-80.0181
-84.7505
-77.9321
-76.2099
-80.447
-79.8536
-79.4246
-76.0331
-83.9207
-80.2418
-79.9639
-80.1583
-75.0072
-80.4364
-80.303
-76.3349
-80.3356
-78.1826
-82.031
-83.9845
-79.6608
-83.1783
-81.7974
-79.6179
-79.6494
-80.3937
-76.1091
-82.2089
-82.6262
-79.9329
-75.5218
-78.7817
-80.7163
-80.8868
-79.62
-75.8704
-79.7514
-83.6286
-82.0334
-79.943
-85.2269
-77.7767
-83.558
-75.0457
-77.7346
-83.8682
-75.1704
-83.5582
-80.1123
-81.2547
-80.0501
-85.717
-78.4275
-81.254
-84.6288
-84.5437
-76.9499
-84.0843
-84.8165
-73.15
-81.7094
-79.7439
-75.1796
-83.0603
-79.6801
-80.002
-80.0203
-80.965
-80.5662
-79.909
-79.7482
-74.964
-82.7798
-81.4058
-81.0869
-81.4735
-80.4795
-79.5625
-78.8064
-83.4261
-74.3171
-79.283
-80.0942
-74.7847
-83.469
-84.9398
-81.6716
-83.9794
-84.5669
-79.188
-80.8345
-82.1635
-83.9579
-79.4002
-82.5565
-78.2922
-75.4716
-83.3249
-78.7823
-83.6146
-85.4299
-84.6468
-75.4572
-83.5795
-81.7621
-79.041
-79.8869
-80.3701
-79.7586
-75.548
-84.4918
-75.6691
-84.4005
-80.4422
-78.3134
-78.4077
-81.0515
-82.5356
-84.8133
-81.0897
-85.8001
-83.3114
-83.4867
-75.5072
-83.3515
-82.7068
-83.7554
-79.5355
-79.0384
-74.51
-80.787
-85.6223
-84.1986
-75.7842
-78.4592
-76.1974
-79.5116
-80.9118
-78.1643
-87.5602
-80.0623
-78.4078
-76.0029
-82.0391
-79.1613
-74.4127
-80.9948
-79.7776
-79.7522
-79.9018
-79.9454
-76.072
-78.1084
-75.2074
-80.0125
-83.5353
-82.0732
-84.2459
-83.8169
-79.2945
-78.6972
-75.1592
-79.3508
-83.1058
-84.2816
-83.2768
-83.1019
-77.7813
-74.7828
-78.475
-74.2872
-82.9432
-83.2448
-78.7768
-83.37
-83.1253
-84.0211
-82.2786
-81.2769
-81.1695
-79.2902
-74.716
-78.6939
-75.6269
-78.5279
-79.9028
-79.5983
-76.5054
-75.4479
-82.463
-85.5671
-85.485
-84.6806
-81.1062
-82.2361
-82.1639
-81.0243
-79.9535
-80.8871
-78.9277
-80.4735
-80.4944
-75.4132
-83.3437
-80.3497
-78.5066
-76.4644
-79.9551
-81.0101
-80.9748
-79.6479
-76.5014
-84.564
-81.8321
-79.7969
-85.1306
-78.9677
-75.2125
-82.6424
-80.6007
-80.5233
-80.4799
-79.6225
-74.1279
-81.2072
-80.4308
-75.7191
-84.9125
-80.2083
-72.4031
-79.8828
-80.8621
-81.0606
-79.5789
-75.5703
-79.3076
-79.4616
-77.4489
-80.5684
-75.0472
-80.7786
-80.6212
-77.1308
-85.4808
-80.3929
-76.358
-86.3719
-80.8424
-80.8723
-76.3885
-80.5859
-75.7067
)
;
    }
}


// ************************************************************************* //
