/*--------------------------------*- C++ -*----------------------------------*\
| =========                 |                                                 |
| \\      /  F ield         | OpenFOAM: The Open Source CFD Toolbox           |
|  \\    /   O peration     | Version:  v1912                                 |
|   \\  /    A nd           | Website:  www.openfoam.com                      |
|    \\/     M anipulation  |                                                 |
\*---------------------------------------------------------------------------*/
FoamFile
{
    version     2.0;
    format      ascii;
    class       volScalarField;
    location    "148/oil";
    object      wallHeatFlux;
}
// * * * * * * * * * * * * * * * * * * * * * * * * * * * * * * * * * * * * * //

dimensions      [1 0 -3 0 0 0 0];


internalField   uniform 0;

boundaryField
{
    maxY
    {
        type            calculated;
        value           uniform 0;
    }
    minX
    {
        type            calculated;
        value           uniform 0;
    }
    maxX
    {
        type            calculated;
        value           uniform 0;
    }
    minY
    {
        type            calculated;
        value           uniform 0;
    }
    minZ
    {
        type            calculated;
        value           uniform 0;
    }
    maxZ
    {
        type            calculated;
        value           uniform 0;
    }
    oil_to_sphere
    {
        type            calculated;
        value           nonuniform List<scalar> 
1536
(
7323.29
7086.08
7090.17
6635.82
6606.52
7065.66
6879.88
6945.59
6916.64
6664.51
6497.35
6693.09
6909.83
6712.87
6423.11
6846.69
7069.56
7101.84
6832.07
6899.2
7006.28
6916.87
6939.18
6844.47
6870.37
6856.34
6862.87
6813.79
7061.93
6933.86
7133.23
7085.02
7096.97
6842.65
6859.29
6810.91
6828.49
6755.95
6806.22
6857.73
6794.14
6832.76
6909.08
6965.55
7026.74
6854.94
7030.5
6961.99
6431.22
6859.66
6984.58
6922.37
6955.18
6838.14
7053.21
7222.7
6932.28
6900.51
7006.87
6975.56
6907.07
6905.83
6905.52
6833.28
6861.43
6894.73
6897.56
6993.36
6984.68
7045.78
6832.13
6638.13
6704.42
6857.7
6852.44
7236.25
7097.5
6776.99
6847.67
7098.14
7009.14
6981.38
6622.79
6613.41
7060.22
7283.49
6581.53
6877.25
6979.58
6976.24
6930.17
6817.91
6817.57
6826.65
6854.97
6961.23
7018.85
7031.36
7111.74
6970.49
7013.03
6827.37
7334.35
6990.81
6695.64
6850.57
6865.6
6656.3
6660.5
7347.59
7093.46
6950.97
6905.02
6945.98
6592.38
6630.22
6551.41
7178.44
7307.5
7112.91
6928.69
6944.95
6803.63
7013.29
7126.08
6984.49
6920.39
6786.24
7027.72
6996.04
6897.8
6987.42
7048.18
6862.19
6882.4
7053.62
6945.66
7102.22
6792.54
7071.4
6916.08
6995.88
6997.22
6911.52
6881.28
6906.95
6949.74
7242.22
6967.51
7343.57
7030.44
7150.78
6930.56
6946.75
6837.35
7018.2
7042.58
7066.77
7400.75
7203.3
7092.1
7266.34
6702.79
6743.6
6821.6
6811.85
7032.61
7192.39
7096.41
7265.76
6822.52
6839.02
6785.48
7028.12
6966.36
6974.87
7262.57
6835.84
6832.84
7277.64
6792.76
6741.37
6738.11
6757.92
7051.93
7287.26
7207.6
6809.52
6741.55
7099.16
6761.16
7056.75
7046.73
7155.46
6692.15
6391.04
7151.2
7179.16
6914.53
6842.83
6928.23
6876.49
7109.52
7150.54
7032.64
6984.62
6858.59
7183.09
7122.17
7025.79
6781.87
6859.65
6850.28
6914.87
7036.82
7244.64
6823.28
6707.15
6710.92
6368.27
7081.73
7024.16
6977.35
6932.33
6947.04
7195.91
7059.22
6896.06
7086.4
6677.25
6816.08
6411.5
6901.82
7100.96
7152.45
7137.25
7073.3
7020.1
7105.75
6694.23
6726.26
6858.11
7179.05
6780.87
6432.27
6552.35
7018.76
6995.17
7294.27
7453.53
6953.19
6623.56
6367.12
6975.17
7180.32
6825.93
6833.48
6570.12
6816.65
7192.39
7306.88
6933.93
6839.73
7197.53
7226.45
6853.57
6661.1
6925.26
7252
7190.92
7021.03
7050.27
7140.2
6747.08
6840.89
7156.71
7050.07
7141.22
6915.63
7092.86
7240.27
7042.43
7020.74
7193.2
6843.44
6833.55
6869.82
6793.43
6819.15
7161.36
7251.18
6822.11
6879.1
6867.73
6886.45
6810.36
6957.34
6922.12
6771.61
6580.64
6810.48
6694.8
6788.76
7291.54
7200.51
7201.1
7451.87
6720.51
6738.54
6990.23
7339.32
7370.9
6826.39
6924.53
6810.9
7045.26
6846.62
7015.48
7035.99
7119.3
7049.53
6878.57
7068.49
6803.5
7144.63
7177.37
7083.68
7069.05
6761.65
7266.19
7279.2
7081.73
6682.23
6842.45
6895.95
7038.63
7013.29
7036.29
6755.27
7141.29
7214.81
7108.95
7198.72
6991.26
6970.93
6914.49
6731.53
6986.48
7052.16
6725.01
6702.75
6747.21
7329.6
7147.67
7206.29
7001.4
6971.93
7183.63
6709.52
7279.4
7111.05
6965.62
6968.21
6699.9
7133.3
7139.71
6779.4
6963.79
6902.13
6845.2
7051.84
7136.99
6909.77
6864.43
6734.32
7242.74
7143.5
6706.27
7189.11
7167.17
7085.62
7237.95
6961.08
7063.06
6684.11
6683.53
7039.5
7416.14
7099.32
7315.08
7014.24
6875.25
7111.21
6763.56
6834.83
7037.61
7132.59
7056.51
6998.52
6778.8
6747.71
7161.55
7209.4
7145.31
6968.74
6833.63
7017.27
7066.55
7119.52
6979.78
6896.12
6796.1
6954.87
6758.31
6658.71
6825.39
6792.39
6952.75
6656.37
6873.42
7299.68
6868.76
6865.87
7135.46
7125.99
7037.3
6904.74
6712.72
7095.6
7199.75
7030.83
6991.86
7089.87
6933.82
6948.22
6999.27
6623.19
7073.01
7209.37
7209
7118.43
7071.51
7042.9
6978.98
6905.66
6762.13
6939.96
6779.48
6699.07
6797.44
6644.84
7299.54
7268.57
7172.14
7408.34
6831.69
7295.06
6747.66
6791.96
7066.59
6834.98
6743.28
6875.58
6851.48
7278.2
7211.07
6998.25
7021.58
7239.3
7165.76
6973.76
7068.59
6778.71
7130.08
6674.63
7208.06
6619.45
7086.29
7106
7124.94
6876.11
6735.5
6894.8
7130.05
6906.18
6662.16
7146.18
7152.05
7240.94
7359.64
7041.11
7209.05
6717.78
6750.06
6450.23
6534.07
6956.77
6862.46
6839.53
6801.59
7307.68
6854.59
6691.79
6653.55
6923.69
6733.74
7403.22
6803.04
6817.94
6951.43
6499.25
6557.74
6826.08
6820.26
6901.05
6859.17
7149.33
7117.95
7044.56
6970.61
6645.16
6845.49
7132.11
6757.68
6775.79
7085.47
7236.18
6789.92
6481.28
6726.23
6502.02
6928.41
6868.99
6816.65
6691.66
6468.78
7067.48
7090.93
7006.08
6942.15
7257.86
7070.34
7027.61
6976.82
6759.76
6842.05
7151.74
7054.36
6879.01
6539.73
6976.88
7166.59
7269.23
6985.75
6899.6
7247.14
7010.51
7209.34
6770.53
6840.8
6738.29
6864.25
6967.46
7220.88
6934.51
6783.69
6755.62
6948.27
7388.34
6745.23
6844.85
6689.51
6979.73
6967.45
7164.96
7243.07
6739.21
6676.5
7251.53
7304.41
6590.54
7269.35
7185.9
7101.02
7201.58
7044.55
6974
6970.78
7248.28
6979.93
7035.32
6958.82
7121.57
6997.39
6939.82
6926.75
6716.31
7089.13
6973.78
7122.5
7075.23
7087.37
7054.21
6985.99
6690.31
7168.71
7174.57
7051.34
6937.21
7001.43
7338.4
6754.37
6764.01
6715.07
7037.08
6882.22
7335.39
6878.3
6905.76
6969.69
6473.67
6483.07
6834.23
6827.45
6948.37
6734.67
6781.27
7059.29
6874.01
7239.76
6821.35
7313.8
6966.25
7033.38
6496.06
6480.07
6439.75
6824.62
7097.56
6856.04
6819.44
6494.13
6941.74
7142.49
6943.46
7514.29
6782.43
7146.57
7110.23
7090.96
7186.33
7194.69
7111.87
6958.56
6904.74
6941.81
7099.87
6909.9
7007.05
7001.89
7009.61
7124.32
7057.52
7094.61
6735.82
6779.55
6388.34
6563.93
6647.13
6245.06
6844.12
6860.98
6908.14
6942.02
6650.21
6721.37
6879.03
7194.29
7194.85
6875.5
6667.37
6915.19
7129.46
7091.89
6939.02
6663.37
6781.71
7052.35
7024.13
6935.4
6854.8
7073.35
7088.79
7243.2
7081.86
6978.3
6859.93
6775.79
6702.09
6903.08
6978.37
7350.07
6955
7307.13
6883.43
7383
6834.71
6912.64
6746.64
6779.69
6858.39
6729.71
6905.06
6655
6837.81
7164.92
6874.5
6709.7
7266.49
7076.25
7011.83
6939.31
7287.13
7515.57
6582.8
7059.06
7040.36
7037.49
6735.89
6934.5
6812.52
7019.45
7123.45
7153.16
6768.99
7056.79
6979.19
7069.1
7059.59
7020.2
6895.43
6922.39
6853.28
6672.48
6646.75
6751.33
7212.51
6841.33
6701.89
6846.57
7160.11
6896.31
7219.98
7130.67
7032.8
6978.69
7034.57
7266.74
6750.29
7049.22
7185
7188.05
6983.59
6801.73
6906.17
7039.97
7196.72
6741.88
6924.51
6983.15
7150.3
7016.12
7048.35
7227.62
6741.73
6816.45
6785.52
7274.6
7155.4
6962.3
7150.44
6813.44
6846.81
7149.2
7059.54
7235.44
6756.1
7103.66
7140.31
6980.48
7019.5
7093.84
6779.99
6626.68
6947.34
7053.86
7318.56
6921.64
6838.32
6935.72
7026
7104.54
6967.56
6813.15
6920.23
7131.04
6793.61
6789.76
6913.88
6834.01
7000.31
6976.31
7183.4
7045.02
7110.01
6851.89
6946.46
6998.81
6926.71
6888.13
6862.46
6852.25
6751.79
7070.4
6993.78
6984.71
7038.29
6674.07
6866.57
7270.86
7268.14
6805.53
7154.49
7025.8
7056.55
6860.17
7198.62
7169.8
6745.91
6891.93
6865.18
6858.51
6691.7
6718.67
6863.64
7177.69
7394.85
6828.06
7095.38
7069.01
7014.81
6909.84
7000.55
7188.04
7038.58
6755.78
6868.58
6849.53
6881.16
7041.16
7090.76
7074.42
7081.43
7094.98
6819.02
7088.6
6878.52
7073.75
6474.34
7041.2
7199.08
6887.47
6584.56
6978.76
6932.88
7284.9
6791.8
7089.72
6945.15
6625.11
7267.31
6712.57
6915.44
6943.95
6682.27
7158.44
6990.92
6917.84
7005.5
6990.25
6902.27
7292.81
6727.89
6862.71
6437.13
6954.55
6879.46
6951.77
7156.33
7511.88
6684
6873.28
7421.74
6718.62
7077.87
6807.64
7056.93
6591.9
6802.03
7413.32
6609.37
7404.19
6646.1
7281.19
6649.9
6787.87
6488.57
6748.08
7377.3
6521.15
6970.73
6614.35
7262.44
7379.2
6537.43
6950.96
6808.45
6753.58
6739.38
6854.98
6947.28
6950.34
7044.97
6928.38
7240.81
7437.82
6537.48
7015.19
7011.2
6944.51
6974.02
6922.01
6909.35
6918.65
7108.73
6934.33
7105.85
6864.66
7000.14
7206.14
6881.8
7035.08
7147.38
6857.71
7000.48
6939.38
7045.28
6911.75
6981.19
6892.85
7133.12
6871.19
7005.16
6651.54
7269.5
6542.42
7070.39
7141.07
7236.88
6792.35
6974.44
6924.28
6964.55
6986.24
6938.27
7108.38
6761.69
6377.69
7006.54
6590.55
7181.75
6801.35
6947.18
7135.09
6396.7
7285.25
6796.19
6489.52
6837.62
7071.37
7051.71
6969.82
6513.03
6980.71
7013.79
6826.04
6797.37
7184.92
7154.55
6856.33
6950.88
7185.34
6526.36
7140.71
6795.02
7044.31
6550.44
7416.14
7313.8
7126.19
6969.57
6922.45
7092.11
6904.75
6509.59
6742.56
7080.54
6805.21
7083.04
6577.9
7180.46
7078.61
6268.18
6984.91
7007.89
6415.23
7275.65
6641.39
7178.57
7267.6
7116.62
6461.17
6976.05
6906.21
6983.1
6988.36
7058.29
6522.44
6877.88
6802.11
6806.56
7177.66
6956.13
7056.6
7051.47
7047.76
6902.83
6973.3
6915.35
7003.39
7170.53
6845.22
6893.73
6828.29
6999.95
7140.7
6845.71
6877.91
6858.52
6957
6806.49
6817.71
6880.61
6897.94
6970.71
6902.1
7233.11
7127.76
6588.91
6627.98
7242.59
6237.54
7081.3
7014.18
6817.19
6904.66
7276.66
6407.99
7150.54
7044.4
6483.64
6870.84
6842.42
6990.99
6382.65
7192.4
7078.17
6392.56
7170.58
7206.03
6542.89
7236.56
7155.09
6549.97
6838.66
6813.25
6417.23
6952.27
6980.42
6782.22
6792.5
6837.18
6322.5
6778.41
6463.32
6302.71
7146.61
6807.29
7371.39
6874.73
6517.17
7184.26
6969.98
6445.95
6850.84
6845.09
6440.94
6615.63
7278.6
6167.91
6747.24
6797.94
6263.21
7163.78
7114.77
6951.54
6872.83
6850.35
6740.86
6345.49
6957.94
6869.74
6886.31
6952.86
6466.23
7112.62
6841.12
6926.05
6815.15
6916.33
6969.51
6738.48
6489.54
6877.62
7037.42
6833.55
6878.01
6944.44
6790.71
6891.88
6467.74
6864.63
7069.97
6818.48
6905.99
6797.54
6502.36
7243.86
7248.03
7171.63
7275.72
6538.06
6411.61
6882.15
7152.21
6978.58
7074.75
7111.11
6746.67
6690.92
6466.93
6569.46
6779.67
6928.59
6913.46
6903.06
6711.33
7137.36
7026.02
6553.84
6752.71
6739.5
7105.22
6789.97
6353.49
7023.27
6937.17
7151.31
6450.3
6864.32
7022.05
6857.32
6895.47
7070.87
6926.61
6743.52
7275.05
6266.95
6737.86
6951.74
6796.22
6866.95
7253.95
7041.57
6964.86
6677.44
7212.56
6863.39
6972.09
7108.32
7155.54
7133.73
7153.42
7244.05
7288.84
7223.9
7224.47
7019.54
7126.59
6842.83
6901.06
6719.17
6632.04
6312.23
7262.27
7245.19
7174.78
6883.3
6971.49
6957.56
6800.26
6990.94
7118.62
6759.77
6910.92
7058.4
6842.98
6849.23
6833.53
6880.92
6781.22
6871.89
6854.22
6548.65
7018.78
6771.28
6906.63
6432.67
7291.68
6919.93
6811.82
6777.58
6571.84
6950.61
6819.79
6412.61
6688.73
6910.44
6640.21
6674.45
7291.75
7321.65
6860.59
6860.42
7091.21
7243.03
6403.96
6848.5
6786.35
6866.22
6867
6885.45
6920.77
6699.85
6493.53
7226.82
6863.92
6652.79
6694.37
6851.61
6948.49
6581.91
6939.95
6815.81
6841.76
7246.28
6663.45
6516.21
6878.43
6827.71
6791.04
6501.09
7175.4
6860.89
6837.12
6853.76
6413.41
6877.52
6866.12
6526.9
6868.92
6684.91
7013.87
7180.84
6811.25
7111.92
6993.87
6807.56
6810.25
6873.89
6507.59
7029.04
7064.73
6834.49
6457.4
6736.08
6901.46
6916.05
6807.75
6487.19
6818.96
7150.41
7014.06
6835.37
7287.01
6650.16
7144.35
6416.7
6646.57
7170.87
6427.37
7144.31
6849.81
6947.47
6844.48
7328.9
6705.79
6947.37
7235.82
7228.58
6579.43
7189.31
7251.91
6254.65
6986.37
6818.3
6428.14
7101.81
6812.84
6840.36
6841.93
6922.7
6888.6
6832.41
6818.67
6409.7
7077.85
6960.4
6933.11
6966.15
6881.2
6802.8
6738.22
7133.1
6354.43
6778.93
6848.28
6394.42
7136.73
7262.41
6983.09
7180.32
7230.57
6770.73
6911.59
7025.19
7178.59
6789
7058.74
6694.25
6453.13
7124.42
6736.06
7149.14
7304.36
7237.4
6451.88
7146.21
6990.87
6758.24
6830.54
6871.87
6819.58
6459.63
7224.22
6469.98
7216.39
6878.01
6696.04
6704.12
6930.13
7056.96
7251.68
6933.35
7335.97
7123.27
7138.21
6456.16
7126.71
7071.61
7161.27
6800.56
6758.03
6370.94
6907.44
7320.74
7199.07
6479.78
6708.54
6515.18
6798.45
6918.16
6683.29
7486.41
6845.51
6704.08
6498.48
7014.52
6768.5
6362.56
6925.26
6821.19
6819.01
6831.82
6835.54
6504.39
6678.48
6430.52
6841.3
7142.46
7017.41
7203.2
7166.54
6779.95
6728.86
6426.42
6784.65
7105.69
7206.16
7120.31
7105.35
6650.59
6394.27
6709.88
6351.9
7091.84
7117.66
6735.72
7128.25
7107.37
7183.89
7034.98
6949.36
6940.21
6779.54
6388.5
6728.55
6466.4
6714.41
6831.91
6805.88
6541.47
6451.08
7050.76
7316.03
7309.06
7240.3
6934.77
7031.37
7025.2
6927.79
6836.24
6916.05
6748.54
6880.68
6882.49
6448.09
7126.01
6870.1
6712.55
6537.96
6836.38
6926.55
6923.54
6810.13
6541.12
7230.37
6996.83
6822.86
7278.77
6751.96
6430.93
7066.09
6891.56
6884.93
6881.24
6807.94
6338.21
6943.41
6877.05
6474.24
7260.16
6858.04
6190.83
6830.19
6913.9
6930.88
6804.21
6461.53
6781.03
6794.21
6622.13
6888.8
6416.82
6906.78
6893.33
6594.92
7308.71
6873.8
6528.88
7384.91
6912.22
6914.79
6531.48
6890.3
6473.19
)
;
    }
}


// ************************************************************************* //
