/*--------------------------------*- C++ -*----------------------------------*\
| =========                 |                                                 |
| \\      /  F ield         | OpenFOAM: The Open Source CFD Toolbox           |
|  \\    /   O peration     | Version:  v1906                                 |
|   \\  /    A nd           | Web:      www.OpenFOAM.com                      |
|    \\/     M anipulation  |                                                 |
\*---------------------------------------------------------------------------*/
FoamFile
{
    version     2.0;
    format      ascii;
    class       volScalarField;
    location    "87";
    object      nut;
}
// * * * * * * * * * * * * * * * * * * * * * * * * * * * * * * * * * * * * * //

dimensions      [0 2 -1 0 0 0 0];


internalField   nonuniform List<scalar> 
78750
(
0.000471125
0.00102235
0.000678789
0.00016798
1.61642e-05
2.59587e-05
1.86348e-05
2.6415e-05
2.02527e-05
2.65029e-05
2.39665e-05
2.90448e-05
2.78911e-05
3.08272e-05
3.21775e-05
3.35683e-05
3.47653e-05
3.53665e-05
3.52771e-05
3.45563e-05
3.3456e-05
3.22427e-05
3.10465e-05
3.00652e-05
2.92952e-05
2.84663e-05
2.82306e-05
2.91773e-05
2.94898e-05
2.81845e-05
2.6108e-05
2.35762e-05
2.26818e-05
9.90081e-06
4.02834e-07
6.73029e-06
7.24266e-05
6.49819e-05
6.71901e-06
8.92641e-05
6.35013e-05
5.58991e-05
5.35954e-05
5.17666e-05
4.88785e-05
4.80622e-05
4.70636e-05
4.63311e-05
4.53532e-05
4.43166e-05
4.3315e-05
4.22438e-05
4.1109e-05
4.00125e-05
3.8988e-05
3.69512e-05
3.21772e-05
2.31256e-05
1.37968e-05
1.0161e-05
1.26684e-05
1.83358e-05
1.66996e-05
1.82406e-05
2.52195e-05
3.19269e-05
3.2201e-05
1.9755e-05
4.40949e-06
1.93622e-06
4.51031e-06
3.96382e-05
3.41133e-05
3.18072e-05
3.06196e-05
5.09008e-05
7.36129e-05
8.40646e-05
7.98213e-05
7.26693e-05
6.72709e-05
6.41632e-05
6.24494e-05
6.13875e-05
6.04728e-05
5.94995e-05
5.84655e-05
5.73705e-05
5.65152e-05
5.62074e-05
5.60687e-05
5.56011e-05
5.25267e-05
4.3066e-05
2.96771e-05
2.05172e-05
1.62204e-05
2.85411e-06
1.63501e-06
6.64252e-06
2.25779e-05
1.46193e-05
6.82118e-06
6.3753e-06
3.91195e-06
8.07854e-07
8.34506e-06
1.23847e-05
1.73326e-05
2.69147e-05
4.09116e-05
6.17403e-05
8.86827e-05
0.000104444
9.88762e-05
8.71938e-05
7.74862e-05
7.05629e-05
6.59584e-05
6.31527e-05
6.16953e-05
6.12126e-05
6.16263e-05
6.39887e-05
6.92373e-05
7.67174e-05
8.27601e-05
8.15026e-05
7.25086e-05
5.62858e-05
4.0491e-05
3.84268e-05
5.97425e-05
5.66877e-05
2.98928e-05
2.68525e-05
2.80983e-05
1.55878e-05
4.86289e-06
4.16084e-06
3.8122e-06
1.56249e-05
3.5619e-05
7.8172e-05
0.000112407
7.41604e-05
4.9908e-05
3.97324e-05
3.66078e-05
3.74054e-05
4.07979e-05
4.71634e-05
5.62078e-05
6.49606e-05
7.28889e-05
8.21554e-05
9.4768e-05
0.000111906
0.000131524
0.000145382
0.00014966
0.000148444
0.000144364
0.000136236
0.000121667
0.000105642
9.3883e-05
7.53475e-05
5.50178e-05
4.53306e-05
4.46878e-05
4.6613e-05
2.17288e-05
1.03236e-05
5.95392e-06
7.03625e-06
7.37749e-05
7.21681e-05
3.73166e-05
2.22528e-05
1.66761e-05
2.00025e-05
3.28722e-05
3.26033e-05
5.12184e-05
9.99576e-05
0.000104028
7.4257e-05
6.05106e-05
6.025e-05
6.55825e-05
6.98061e-05
7.13522e-05
7.09909e-05
6.97121e-05
6.84459e-05
6.69282e-05
6.45393e-05
6.0956e-05
5.66563e-05
5.27147e-05
5.00106e-05
4.90931e-05
5.12606e-05
5.73587e-05
6.45514e-05
6.18375e-05
1.28213e-05
1.21903e-05
7.08369e-06
5.55426e-06
2.96977e-05
7.14573e-05
0.000103789
0.000100086
6.50954e-05
4.55485e-05
4.00554e-05
3.997e-05
4.10429e-05
4.21854e-05
4.3367e-05
4.48934e-05
4.68542e-05
4.90686e-05
5.11844e-05
5.33597e-05
5.61825e-05
5.85291e-05
5.86111e-05
5.6212e-05
5.28521e-05
5.03569e-05
4.9703e-05
5.09927e-05
5.37736e-05
5.73248e-05
6.04222e-05
6.12489e-05
5.95754e-05
5.09201e-05
2.19301e-05
1.08195e-05
1.8096e-05
7.49785e-06
5.36223e-06
3.09794e-05
0.000104663
0.000125981
9.57798e-05
6.75566e-05
5.21994e-05
4.64229e-05
4.81914e-05
5.65548e-05
6.67922e-05
6.83595e-05
5.95027e-05
4.92719e-05
4.32103e-05
4.33313e-05
5.03355e-05
5.99255e-05
6.34983e-05
6.0683e-05
5.7334e-05
5.6482e-05
5.83858e-05
6.23839e-05
6.74084e-05
7.18181e-05
7.40355e-05
7.39099e-05
7.34488e-05
7.3063e-05
5.58349e-05
1.61155e-05
7.59913e-06
1.56342e-05
7.5299e-06
4.8481e-06
2.41391e-05
7.70961e-05
0.000112578
9.17804e-05
6.26141e-05
4.65562e-05
3.84998e-05
3.34973e-05
3.05961e-05
3.02561e-05
3.33239e-05
4.08771e-05
5.27186e-05
6.48798e-05
7.41131e-05
8.18163e-05
8.7239e-05
8.87272e-05
8.69253e-05
8.38721e-05
8.23103e-05
8.42487e-05
8.97978e-05
9.6973e-05
0.000103161
0.000107502
0.000109685
0.000103896
7.65682e-05
3.39613e-05
1.15018e-05
8.39175e-06
2.07447e-05
7.98679e-06
4.64382e-06
2.23722e-05
7.90281e-05
0.000127687
8.82922e-05
5.8926e-05
5.18022e-05
5.81466e-05
6.45521e-05
5.78446e-05
4.78329e-05
4.16058e-05
3.94125e-05
3.98584e-05
4.12573e-05
4.34526e-05
4.80271e-05
5.68903e-05
7.10994e-05
8.93794e-05
0.000108293
0.00012544
0.000138912
0.000141432
0.000139987
0.000138385
0.000136693
0.000134977
0.000119857
7.99076e-05
3.52667e-05
1.04056e-05
7.03689e-06
1.90939e-05
8.2912e-06
6.79277e-06
3.79097e-05
0.000112315
7.14126e-05
3.5164e-05
2.40611e-05
2.31464e-05
3.24408e-05
6.46855e-05
0.000113503
0.000103046
6.55598e-05
4.69556e-05
4.21312e-05
4.68589e-05
6.20072e-05
9.09812e-05
0.000132028
0.000150717
0.000147692
0.000145068
0.000142714
0.000140562
0.000138585
0.000136783
0.000135179
0.000133785
0.000132581
0.000108186
6.3219e-05
2.5123e-05
9.09291e-06
7.93655e-06
2.39821e-05
8.73972e-06
7.3225e-06
3.95332e-05
0.000105737
4.47762e-05
2.50368e-05
2.80423e-05
4.40712e-05
6.39569e-05
8.66105e-05
0.000113034
0.000122849
9.85503e-05
6.48455e-05
4.65495e-05
4.13682e-05
4.42227e-05
5.28032e-05
6.88099e-05
9.82809e-05
0.000138094
0.000149536
0.000146643
0.000143947
0.000141396
0.000138984
0.000136763
0.000134817
0.000133225
0.000106463
6.76482e-05
2.6407e-05
8.40598e-06
7.40895e-06
2.46728e-05
9.13242e-06
6.67603e-06
3.45982e-05
8.02117e-05
2.59722e-05
1.19366e-05
1.51994e-05
3.79136e-05
8.33619e-05
0.000116788
0.000126455
0.000121987
0.000106281
8.17224e-05
5.93527e-05
4.91488e-05
5.32563e-05
7.52915e-05
0.000115452
0.000150695
0.00015855
0.000155485
0.000152686
0.000150044
0.000147453
0.000144861
0.000142278
0.000134865
0.000113119
8.76718e-05
5.53454e-05
2.17672e-05
8.32495e-06
8.34544e-06
3.00229e-05
9.37895e-06
6.42336e-06
3.28211e-05
9.17882e-05
5.02117e-05
1.76275e-05
1.1384e-05
2.15503e-05
4.59028e-05
6.93612e-05
8.44123e-05
8.97262e-05
8.60845e-05
7.50696e-05
6.13388e-05
5.14849e-05
5.00775e-05
6.03222e-05
8.55558e-05
0.000121413
0.000149894
0.000160736
0.000158361
0.000156035
0.000153664
0.000151188
0.000144089
0.000124244
0.000102838
8.05823e-05
5.23526e-05
1.98394e-05
7.63756e-06
9.23569e-06
3.64364e-05
9.52086e-06
7.14198e-06
4.35837e-05
8.98263e-05
7.0685e-05
3.55676e-05
1.81884e-05
1.7267e-05
2.48981e-05
3.41173e-05
4.5091e-05
5.50784e-05
6.09028e-05
6.21461e-05
6.14176e-05
6.27411e-05
7.04618e-05
8.72909e-05
0.000110554
0.000132086
0.000146631
0.000154932
0.000159052
0.000159644
0.0001561
0.000147582
0.000134103
0.000116985
9.77402e-05
7.61235e-05
4.84935e-05
1.85412e-05
7.35831e-06
9.44562e-06
4.1668e-05
9.44786e-06
6.60487e-06
3.76355e-05
8.7974e-05
0.000110133
0.000108757
7.14323e-05
3.69712e-05
2.48759e-05
2.18794e-05
2.24756e-05
2.57644e-05
3.09631e-05
3.66167e-05
4.18595e-05
4.7783e-05
5.67435e-05
7.02965e-05
8.7288e-05
0.000104033
0.000117299
0.000126399
0.000132073
0.00013472
0.000133962
0.000129272
0.000120624
0.000108489
9.32811e-05
7.41816e-05
4.74829e-05
1.76301e-05
7.50856e-06
1.13604e-05
5.19088e-05
9.52013e-06
5.71879e-06
2.75894e-05
7.07287e-05
0.000119514
0.000144178
0.000137434
9.81583e-05
5.82272e-05
3.75972e-05
2.71189e-05
2.14222e-05
1.90015e-05
1.94823e-05
2.31358e-05
3.06218e-05
4.24449e-05
5.72918e-05
7.16537e-05
8.39511e-05
9.48148e-05
0.000104055
0.000110777
0.0001146
0.000115446
0.000113147
0.000107637
9.90382e-05
8.74523e-05
7.22448e-05
4.9971e-05
2.02043e-05
7.1473e-06
1.06993e-05
5.44244e-05
9.555e-06
4.84956e-06
2.12908e-05
6.42722e-05
0.000123021
0.000146854
0.000154124
0.000158035
0.000150865
0.000114513
7.25288e-05
4.7818e-05
3.43197e-05
2.61653e-05
2.09951e-05
1.8109e-05
1.79865e-05
2.23708e-05
3.41333e-05
5.19076e-05
6.53453e-05
7.37851e-05
8.18471e-05
8.91236e-05
9.34653e-05
9.42782e-05
9.17962e-05
8.61883e-05
7.73987e-05
6.4185e-05
4.23239e-05
1.65605e-05
8.48966e-06
1.31588e-05
6.48257e-05
9.46613e-06
4.916e-06
2.09378e-05
5.93382e-05
0.000109563
0.000134723
0.000136169
0.000125487
0.000114319
0.000107192
9.8904e-05
8.65473e-05
7.38679e-05
6.23144e-05
5.04793e-05
3.88929e-05
2.90979e-05
2.17484e-05
1.72623e-05
1.71727e-05
2.60052e-05
4.45383e-05
5.56765e-05
6.32308e-05
7.03044e-05
7.46904e-05
7.5172e-05
7.19697e-05
6.54856e-05
5.55931e-05
3.92666e-05
1.56083e-05
7.22754e-06
1.47298e-05
7.79845e-05
9.70759e-06
5.99991e-06
2.66306e-05
7.28052e-05
0.000123165
0.000147976
0.00015546
0.000151202
0.000133541
0.000103488
7.37942e-05
5.48448e-05
4.74923e-05
5.12382e-05
6.67429e-05
8.69762e-05
8.40619e-05
5.93379e-05
3.83491e-05
2.46558e-05
1.63102e-05
1.36307e-05
2.1646e-05
3.9168e-05
4.8364e-05
5.68058e-05
6.27439e-05
6.30258e-05
5.82781e-05
4.94951e-05
3.481e-05
1.43884e-05
6.25887e-06
1.21092e-05
7.0466e-05
9.72282e-06
6.82392e-06
3.12062e-05
9.2663e-05
0.000140804
0.000154317
0.000155631
0.000150637
0.000140071
0.000121789
9.57758e-05
7.02056e-05
5.22531e-05
4.35572e-05
4.55634e-05
6.29567e-05
0.000102008
0.000142113
0.00011674
6.35734e-05
3.33871e-05
1.82286e-05
1.06987e-05
1.09613e-05
2.51907e-05
3.61891e-05
4.29733e-05
4.66291e-05
4.47797e-05
3.63524e-05
1.80788e-05
6.47984e-06
8.35383e-06
2.03386e-05
9.24427e-05
1.00111e-05
7.05766e-06
3.25192e-05
9.69291e-05
0.000141965
0.00015336
0.000150842
0.000138099
0.000115517
8.80335e-05
6.72134e-05
5.95151e-05
6.25968e-05
6.68014e-05
6.42787e-05
6.28798e-05
7.25566e-05
9.83469e-05
0.000133595
0.000139975
9.07728e-05
4.37356e-05
2.0656e-05
9.74283e-06
5.46373e-06
1.15996e-05
2.08996e-05
2.6566e-05
2.88608e-05
2.73998e-05
1.96292e-05
6.53589e-06
4.50574e-06
1.66546e-05
9.516e-05
1.01895e-05
7.19513e-06
3.52252e-05
0.000107626
0.000152609
0.000161119
0.000156929
0.000145534
0.000126949
9.95432e-05
6.95821e-05
5.01945e-05
4.57537e-05
5.60646e-05
7.86107e-05
9.79779e-05
0.000101911
0.000103827
0.000116871
0.000139979
0.000151126
0.000116349
5.74359e-05
2.42762e-05
9.47615e-06
1.08408e-06
3.50592e-06
4.32228e-06
1.00643e-05
1.24316e-05
8.29853e-06
3.44099e-06
4.02805e-06
1.4932e-05
9.06552e-05
1.02595e-05
7.36125e-06
3.52871e-05
0.000107436
0.000147189
0.000151287
0.000143481
0.00012984
0.000113215
9.56422e-05
7.83863e-05
6.23676e-05
5.13406e-05
4.97339e-05
6.06275e-05
8.59778e-05
0.00011924
0.00014187
0.000147238
0.000149168
0.000156824
0.000159758
0.000130671
6.92562e-05
2.88923e-05
1.14164e-05
2.46119e-06
6.74811e-07
6.07345e-06
1.70077e-06
2.03197e-06
4.64661e-07
5.24487e-06
1.87153e-05
9.65158e-05
1.0593e-05
7.32943e-06
3.49669e-05
0.000105695
0.000146361
0.000150465
0.000141872
0.00012606
0.00010493
8.18292e-05
6.34391e-05
5.45382e-05
5.44335e-05
5.95002e-05
6.82484e-05
8.39732e-05
0.000110195
0.000144261
0.000174095
0.000187163
0.000183809
0.000172239
0.000152918
0.000116029
6.3269e-05
2.67452e-05
8.13061e-06
5.91798e-07
7.7821e-06
6.11741e-06
3.72922e-06
1.76767e-06
5.52906e-06
2.30486e-05
9.44344e-05
1.07058e-05
7.7174e-06
3.9352e-05
0.00011654
0.00015056
0.000151462
0.000141514
0.000125681
0.00010613
8.46629e-05
6.44573e-05
5.09565e-05
4.80837e-05
5.67221e-05
7.49769e-05
9.72999e-05
0.000118907
0.000138865
0.000156335
0.000168064
0.000170485
0.000163174
0.000148771
0.000128273
9.77092e-05
5.81791e-05
2.8559e-05
1.16286e-05
4.40192e-06
5.96428e-06
1.01219e-06
1.72215e-06
4.84886e-07
1.34669e-05
9.16135e-05
1.04704e-05
7.7717e-06
4.09914e-05
0.000115827
0.000143746
0.000143719
0.000132682
0.000114572
9.33709e-05
7.43348e-05
6.09187e-05
5.34596e-05
5.23279e-05
5.99365e-05
7.87261e-05
0.000107034
0.000136902
0.000159497
0.000171754
0.000175401
0.000172887
0.000165808
0.000154391
0.000135883
0.000106005
6.79417e-05
3.75912e-05
2.03082e-05
1.20142e-05
2.00507e-06
6.24335e-06
1.56064e-06
1.96569e-06
1.38816e-05
9.85155e-05
1.11642e-05
7.73064e-06
4.14248e-05
0.000117287
0.000145543
0.000146353
0.000136261
0.000119741
9.9559e-05
7.84182e-05
6.08875e-05
5.10123e-05
4.97737e-05
5.71951e-05
7.37715e-05
9.91464e-05
0.000129782
0.000158645
0.000177636
0.000180727
0.000165836
0.000135149
9.62665e-05
6.15511e-05
3.85077e-05
2.43425e-05
1.43413e-05
7.07622e-06
5.45239e-06
8.49191e-06
6.87802e-06
6.23499e-06
1.47422e-05
5.2021e-05
7.94527e-05
1.15405e-05
7.55789e-06
4.07214e-05
0.000115679
0.000146759
0.000147251
0.000134796
0.000117863
0.000102614
8.89361e-05
7.33852e-05
5.8202e-05
4.97338e-05
5.07631e-05
6.17442e-05
8.17711e-05
0.000106422
0.000127043
0.00013394
0.000122407
9.74676e-05
7.02804e-05
4.87754e-05
3.46805e-05
2.62775e-05
2.08705e-05
1.56708e-05
9.24254e-06
2.19825e-06
2.15606e-06
5.64658e-06
1.50787e-06
7.52344e-06
2.99823e-05
8.34566e-05
1.06853e-05
7.39148e-06
3.79277e-05
0.000109158
0.000143325
0.000144642
0.000130454
0.000110783
9.5476e-05
8.72569e-05
8.16405e-05
7.19496e-05
5.9303e-05
5.15493e-05
5.27292e-05
6.33739e-05
8.13783e-05
9.97481e-05
0.000108437
0.000101024
7.9686e-05
5.45069e-05
3.45576e-05
2.25142e-05
1.89099e-05
1.94257e-05
1.97375e-05
1.92876e-05
2.09817e-05
2.88859e-05
3.02106e-05
2.36876e-06
3.24613e-06
1.32904e-05
9.41955e-05
1.09993e-05
7.2099e-06
3.57888e-05
0.000104151
0.000143892
0.000144761
0.00012693
0.000105024
9.0191e-05
8.4278e-05
8.4043e-05
8.32725e-05
7.54755e-05
6.33331e-05
5.59224e-05
5.77213e-05
6.95259e-05
8.90661e-05
0.000108107
0.000114989
0.000102806
7.6127e-05
4.80122e-05
2.6519e-05
1.36758e-05
1.26758e-05
1.63219e-05
1.66228e-05
1.04258e-05
8.26498e-06
1.48571e-05
1.56893e-05
7.7525e-06
2.20878e-05
0.000118398
1.19814e-05
7.27129e-06
3.4567e-05
0.000101425
0.000142825
0.000136703
0.000110434
8.77673e-05
7.73731e-05
7.68548e-05
8.25942e-05
9.02303e-05
9.26976e-05
8.43741e-05
7.1213e-05
6.37127e-05
6.59907e-05
7.80834e-05
9.65751e-05
0.000112767
0.00011709
0.000105698
8.28225e-05
5.716e-05
3.37889e-05
1.39209e-05
1.62083e-05
2.05981e-06
4.227e-06
6.26171e-06
1.13934e-05
2.37571e-05
3.74677e-05
7.80911e-05
7.25256e-05
1.16746e-05
7.60134e-06
3.58313e-05
0.0001062
0.000141116
0.000117655
8.37358e-05
6.66207e-05
6.36927e-05
6.90932e-05
7.97664e-05
9.3253e-05
0.00010419
0.000104742
9.3621e-05
8.11014e-05
7.6462e-05
8.20373e-05
9.59197e-05
0.000111716
0.000119452
0.000113225
9.58254e-05
7.43264e-05
5.32734e-05
3.3217e-05
1.4737e-05
1.26176e-05
1.28395e-06
1.1547e-06
5.96312e-06
1.47066e-05
3.86893e-05
0.000111078
5.938e-05
1.0466e-05
8.13548e-06
3.95435e-05
0.000119507
0.000133362
8.48241e-05
5.5394e-05
4.97384e-05
5.75208e-05
7.25855e-05
8.95142e-05
0.000104706
0.000116035
0.000120401
0.000115745
0.00010614
9.97659e-05
0.000101682
0.000111924
0.000126313
0.000137633
0.000139285
0.000129938
0.000113436
9.48766e-05
7.87645e-05
6.93329e-05
6.5236e-05
2.81857e-05
3.68043e-06
7.15083e-07
4.92213e-06
1.16122e-05
3.27896e-05
8.37146e-05
1.00741e-05
8.56464e-06
4.39441e-05
0.000131284
0.000102698
5.01668e-05
3.4554e-05
3.85187e-05
5.54616e-05
8.10528e-05
0.000107284
0.000127334
0.000139223
0.000143753
0.000143137
0.000141102
0.000141982
0.000148633
0.000160761
0.000174403
0.000183456
0.000182705
0.000170352
0.000148536
0.000122008
9.5718e-05
7.03321e-05
3.02976e-05
1.14411e-05
1.61043e-05
2.0247e-05
1.28853e-05
5.45544e-06
2.04127e-05
0.000100072
1.14964e-05
8.90804e-06
4.8907e-05
0.000132081
6.97415e-05
3.21464e-05
2.6365e-05
3.80111e-05
6.24742e-05
9.06451e-05
0.000116039
0.000137537
0.000155191
0.000168891
0.000178861
0.000186381
0.000193875
0.000203811
0.000217184
0.000232666
0.000246977
0.000255315
0.000251667
0.000230838
0.00019266
0.000142704
8.27573e-05
2.2183e-05
8.07099e-06
1.90873e-05
4.05263e-05
3.34413e-05
1.80128e-05
3.94067e-05
9.94476e-05
1.23757e-05
9.10289e-06
5.17893e-05
0.000122447
5.09916e-05
2.34907e-05
2.15946e-05
3.59749e-05
6.22894e-05
9.17238e-05
0.00012106
0.000149641
0.000175934
0.00019848
0.000216782
0.000231252
0.000242933
0.000253119
0.000262516
0.000270635
0.000275519
0.000273979
0.000264044
0.000246347
0.000220578
0.000181385
0.000123335
5.22102e-05
1.3009e-05
1.09241e-05
2.67725e-05
4.72303e-05
5.34948e-05
9.5627e-05
6.84845e-05
1.16426e-05
9.26166e-06
5.25875e-05
0.000111085
4.3425e-05
1.94586e-05
1.76754e-05
3.0777e-05
5.58161e-05
8.70641e-05
0.000122724
0.000160727
0.000195963
0.000224202
0.000244725
0.000259182
0.000269623
0.000277271
0.000282268
0.000283768
0.000279886
0.000268899
0.000250886
0.000228049
0.000203155
0.000176018
0.000140463
8.90503e-05
3.64924e-05
1.27332e-05
1.39422e-05
2.92014e-05
6.37966e-05
0.000121189
6.13338e-05
1.05308e-05
9.21043e-06
5.10567e-05
0.000103618
4.20036e-05
1.75506e-05
1.37666e-05
2.38298e-05
4.766e-05
8.28467e-05
0.000126064
0.000172243
0.000215037
0.000250245
0.00027682
0.000295439
0.000307352
0.000313895
0.000315985
0.000313466
0.000305417
0.000291015
0.000270475
0.000245341
0.000216258
0.000180072
0.000133874
8.77552e-05
5.42883e-05
3.11958e-05
1.96577e-05
2.12625e-05
3.51504e-05
7.20993e-05
7.39632e-05
1.06616e-05
9.11439e-06
4.82344e-05
0.00010371
5.1376e-05
1.98498e-05
1.12376e-05
1.49907e-05
3.20652e-05
6.47275e-05
0.000112617
0.000169392
0.00022575
0.000275412
0.0003164
0.000348162
0.000369729
0.000380896
0.000383574
0.00037961
0.000368226
0.000347025
0.000314873
0.000271554
0.000215437
0.00014761
8.88802e-05
6.50343e-05
6.39047e-05
6.07868e-05
4.2784e-05
2.54929e-05
2.45391e-05
5.05638e-05
8.53987e-05
1.17857e-05
8.97623e-06
4.42735e-05
0.000102808
7.79289e-05
3.21131e-05
1.32115e-05
7.96523e-06
1.30763e-05
3.22038e-05
6.87745e-05
0.000120002
0.000179652
0.000242135
0.000304032
0.000359995
0.000386234
0.000392057
0.000395943
0.000397794
0.000397579
0.000395325
0.000375312
0.00030764
0.000220797
0.00013258
7.16774e-05
5.28632e-05
6.5209e-05
8.13119e-05
5.76644e-05
2.9805e-05
2.76939e-05
6.48332e-05
8.13543e-05
1.23714e-05
8.91711e-06
4.19526e-05
0.000102697
0.000102833
6.15751e-05
2.45821e-05
9.23098e-06
4.22324e-06
1.01646e-05
3.16036e-05
7.59632e-05
0.00014032
0.000213109
0.000286791
0.000355177
0.000382582
0.000391283
0.000397838
0.000402141
0.000404109
0.000403681
0.000384518
0.000311032
0.000225823
0.000141481
7.7735e-05
4.92562e-05
5.25136e-05
7.47471e-05
6.74863e-05
4.06328e-05
4.113e-05
9.24128e-05
7.37259e-05
1.22063e-05
8.78227e-06
3.91523e-05
0.000100549
0.000116663
0.000100911
5.39022e-05
1.85174e-05
3.70806e-06
8.54492e-07
8.32595e-06
3.33327e-05
8.56592e-05
0.000161929
0.000250742
0.000340727
0.000373948
0.000385621
0.000395093
0.000402312
0.000407192
0.00040962
0.000391588
0.000322076
0.000246084
0.000169429
0.000101686
5.79696e-05
4.227e-05
4.85473e-05
6.22552e-05
5.98172e-05
6.92059e-05
0.000121145
6.76985e-05
1.17026e-05
8.78924e-06
3.91953e-05
0.0001046
0.0001227
0.000110855
8.32984e-05
3.54315e-05
8.63195e-06
1.18341e-06
2.24501e-06
1.20362e-05
4.91498e-05
0.0001251
0.000235947
0.000348365
0.000364895
0.000378989
0.000390785
0.000400353
0.000407678
0.000412686
0.00040623
0.000336721
0.00026649
0.000199935
0.000136046
8.21669e-05
4.88276e-05
3.74086e-05
4.43403e-05
6.46857e-05
9.61577e-05
0.000133774
6.1864e-05
1.12551e-05
8.75033e-06
4.05915e-05
0.000107602
0.000120949
0.000105266
7.75661e-05
4.0939e-05
1.26975e-05
2.66834e-06
5.74976e-08
7.78588e-06
4.31691e-05
0.000128231
0.00026068
0.000345255
0.000361453
0.000375924
0.000388519
0.00039918
0.000407863
0.000414495
0.000398401
0.000332013
0.000267957
0.000212367
0.000161385
0.000112353
7.00499e-05
4.36991e-05
3.6969e-05
5.15432e-05
9.20188e-05
0.000129781
6.00397e-05
1.1245e-05
8.7712e-06
4.32256e-05
0.000110756
0.000119941
0.000105578
8.08633e-05
4.75329e-05
1.66652e-05
1.06237e-06
3.16388e-07
3.34656e-06
3.84702e-05
0.000113315
0.000205172
0.000291777
0.000354332
0.00037225
0.000385329
0.000396699
0.000406223
0.000398826
0.000356563
0.000303854
0.000253173
0.000209061
0.000171093
0.000134827
9.65731e-05
6.17609e-05
4.18242e-05
4.27628e-05
7.08912e-05
0.000121288
6.23473e-05
1.16125e-05
8.70618e-06
4.39988e-05
0.000113014
0.000122872
0.000110381
9.22433e-05
6.74151e-05
3.28035e-05
8.0737e-06
1.22414e-06
1.11273e-06
2.59562e-05
9.22028e-05
0.000166197
0.000226331
0.000274517
0.000315893
0.000349873
0.000371987
0.00037729
0.000363383
0.000332461
0.000290751
0.000245979
0.000205244
0.000172082
0.000144015
0.000114046
7.94965e-05
5.08763e-05
4.11029e-05
5.82645e-05
0.000114219
6.36297e-05
1.19051e-05
8.70458e-06
4.37791e-05
0.000115078
0.000127824
0.00011475
9.92255e-05
8.88576e-05
7.15787e-05
2.99311e-05
3.37452e-06
9.91463e-07
3.66455e-06
3.44692e-05
0.000103719
0.000170598
0.000219369
0.000259477
0.000293993
0.000318418
0.000328866
0.000324777
0.000307677
0.000280145
0.000245944
0.000210207
0.000177875
0.000150229
0.000123037
9.11681e-05
5.99464e-05
4.44728e-05
5.65844e-05
0.000113585
6.25375e-05
1.19107e-05
8.72553e-06
4.46745e-05
0.000117086
0.00013034
0.00011626
9.53749e-05
8.08678e-05
7.61439e-05
6.80968e-05
2.70417e-05
2.76442e-06
1.47745e-06
4.12121e-06
3.47754e-05
9.7118e-05
0.000155918
0.000203106
0.000248594
0.0002899
0.000314244
0.000315249
0.000297953
0.000270905
0.000240768
0.00021145
0.000184411
0.000158681
0.000131039
9.8855e-05
6.73233e-05
5.03497e-05
6.13721e-05
0.000117881
6.26346e-05
1.18488e-05
8.73158e-06
4.52618e-05
0.000117591
0.000133883
0.00012473
0.000107128
8.94951e-05
7.8291e-05
7.14401e-05
5.45659e-05
1.6402e-05
1.18308e-06
1.66642e-06
6.83376e-06
4.45507e-05
0.000105364
0.000158121
0.000199588
0.000234285
0.000263856
0.000282758
0.000283159
0.000264579
0.000234284
0.000201999
0.000174562
0.000152523
0.000130604
0.000103607
7.58562e-05
6.14558e-05
7.60001e-05
0.000131751
6.48749e-05
1.18838e-05
8.71278e-06
4.61824e-05
0.000120206
0.000134135
0.000123373
0.000105773
9.0729e-05
8.35627e-05
8.37863e-05
8.02595e-05
4.82418e-05
8.39525e-06
1.12046e-06
5.18653e-07
6.99399e-06
4.52441e-05
9.02621e-05
0.000133322
0.000183123
0.000222983
0.000241929
0.000246447
0.000240415
0.00022348
0.000197548
0.000169038
0.000144437
0.000124605
0.000105441
8.65859e-05
7.8788e-05
9.89078e-05
0.000148393
6.77916e-05
1.18374e-05
8.63215e-06
4.61845e-05
0.000119973
0.000136432
0.000128376
0.000112323
9.55666e-05
8.32913e-05
7.82932e-05
7.9591e-05
7.55533e-05
3.86624e-05
3.66748e-06
1.68541e-06
1.13508e-06
5.37373e-06
4.5112e-05
8.57885e-05
0.000117523
0.000166037
0.00021337
0.000226932
0.000215218
0.000196791
0.00017901
0.000161938
0.000144379
0.000126594
0.000109699
9.65219e-05
9.55776e-05
0.000120082
0.00016226
7.39814e-05
1.19589e-05
8.61171e-06
4.73505e-05
0.000123613
0.000137904
0.000126949
0.00010986
9.71869e-05
9.24353e-05
9.30346e-05
9.40505e-05
8.96473e-05
7.05007e-05
2.91161e-05
2.83302e-06
2.79296e-07
1.99486e-07
2.91763e-06
4.00365e-05
8.66652e-05
0.000105767
0.000137991
0.000186913
0.000217506
0.00020912
0.000180188
0.00015154
0.000131284
0.00011811
0.000108533
0.000103269
0.000109966
0.000138686
0.000174493
8.15733e-05
1.23755e-05
8.54243e-06
4.64976e-05
0.000122883
0.000140206
0.000130776
0.000112175
9.48876e-05
8.55694e-05
8.58216e-05
9.41917e-05
0.000105527
0.000106678
7.74347e-05
2.5432e-05
4.30813e-06
1.14128e-06
3.1289e-06
5.81971e-06
2.569e-05
8.50625e-05
0.000109095
0.000115851
0.000133541
0.000154407
0.000160169
0.000147318
0.000128516
0.000114685
0.000108745
0.000111405
0.000127064
0.000159484
0.000185634
8.26604e-05
1.25873e-05
8.51091e-06
4.62612e-05
0.000123179
0.000138348
0.000125681
0.000107986
9.63543e-05
9.25583e-05
9.4027e-05
9.85491e-05
0.000105654
0.000114488
0.000116888
8.8164e-05
2.80739e-05
1.9366e-06
1.32765e-06
7.25467e-07
3.25815e-06
1.02244e-05
5.94766e-05
0.000121407
0.0001246
0.00011721
0.000112955
0.000109044
0.000105416
0.000104314
0.000107988
0.000119731
0.000143779
0.000176913
0.00018836
7.38272e-05
1.22613e-05
8.56325e-06
4.53212e-05
0.000121688
0.000136409
0.000120763
0.000100105
8.75303e-05
8.50548e-05
9.03461e-05
0.000100541
0.000112466
0.000123801
0.000134488
0.000140821
0.000118485
4.48466e-05
7.82357e-06
1.17487e-06
3.88252e-07
2.2918e-06
1.62772e-06
2.52014e-05
7.63145e-05
0.000100234
9.95991e-05
9.48141e-05
9.31967e-05
9.85901e-05
0.000111845
0.000132554
0.000160352
0.000186834
0.000179197
6.31716e-05
1.16007e-05
8.6267e-06
4.55172e-05
0.000121719
0.000132572
0.000112215
9.21206e-05
8.44313e-05
8.79005e-05
9.78281e-05
0.000109666
0.000120558
0.000128825
0.000133452
0.000135925
0.000138544
0.000129488
6.7092e-05
1.75606e-05
1.44014e-06
2.18354e-06
3.10636e-06
1.20025e-06
1.55351e-05
5.24693e-05
7.29056e-05
7.55785e-05
7.69561e-05
8.44048e-05
0.000102075
0.000130311
0.000162129
0.000183621
0.000169156
5.86369e-05
1.12413e-05
8.72594e-06
4.5501e-05
0.000121935
0.000126969
0.00010095
8.10129e-05
7.6391e-05
8.35544e-05
9.81353e-05
0.000115752
0.000132115
0.000144525
0.000151794
0.000152548
0.000144992
0.00012809
0.00010012
5.51763e-05
1.76497e-05
1.05074e-06
1.4718e-06
1.27875e-06
3.88592e-07
1.41792e-05
4.30501e-05
6.05383e-05
6.57876e-05
7.23703e-05
8.8094e-05
0.000116048
0.000149621
0.00017166
0.000159885
5.77306e-05
1.13272e-05
8.77525e-06
4.55932e-05
0.000121173
0.000117248
8.65142e-05
7.04761e-05
7.23305e-05
8.66036e-05
0.000107281
0.000127944
0.000144084
0.000153765
0.000156901
0.000154992
0.000150035
0.000141253
0.000121763
8.43956e-05
4.14704e-05
1.31022e-05
2.24021e-06
3.26115e-06
7.09142e-08
1.08953e-06
2.42169e-05
5.11157e-05
6.29255e-05
6.85026e-05
8.03191e-05
0.00010424
0.000136734
0.000161369
0.000154074
5.72069e-05
1.15919e-05
8.79857e-06
4.57717e-05
0.00012105
0.000106144
7.30923e-05
6.18985e-05
6.89271e-05
8.79927e-05
0.00011259
0.000135596
0.000152475
0.000161157
0.000160582
0.000152012
0.000140343
0.000129887
0.000118192
9.51254e-05
5.6426e-05
2.11953e-05
2.7361e-06
8.41994e-07
3.20845e-06
2.00436e-06
1.38894e-05
4.08549e-05
5.99442e-05
6.67366e-05
7.53071e-05
9.50276e-05
0.000126623
0.000155553
0.000152053
5.64716e-05
1.18127e-05
8.7805e-06
4.65802e-05
0.000121032
9.12026e-05
5.99739e-05
5.57833e-05
7.01588e-05
9.61776e-05
0.000124584
0.000147194
0.000160088
0.000160612
0.000147964
0.000129303
0.000115829
0.000111105
0.000109495
9.85806e-05
6.97438e-05
3.45401e-05
9.55318e-06
3.06475e-06
3.2436e-07
1.42459e-06
9.24777e-06
3.5103e-05
5.84954e-05
6.65534e-05
7.36462e-05
9.14338e-05
0.000123154
0.000154695
0.000151061
5.57246e-05
1.19777e-05
8.82388e-06
4.79657e-05
0.000118997
7.47716e-05
4.89907e-05
5.15042e-05
7.28434e-05
0.000103295
0.000130266
0.000147511
0.000152083
0.00013994
0.000114998
9.49769e-05
9.13236e-05
0.000102516
0.000116777
0.000113677
8.57733e-05
4.93887e-05
2.04324e-05
4.85289e-06
4.02923e-06
1.26733e-06
7.54725e-06
3.01497e-05
6.28525e-05
7.55415e-05
7.83151e-05
9.04958e-05
0.00011961
0.000154742
0.000153001
5.56066e-05
1.20243e-05
8.99803e-06
4.99197e-05
0.000112534
6.01662e-05
4.02675e-05
4.73321e-05
7.33421e-05
0.000105765
0.000130523
0.000143729
0.000144032
0.000128804
0.000103836
8.69355e-05
9.01736e-05
0.000116184
0.000152271
0.000163846
0.000138496
9.55585e-05
5.59474e-05
2.73974e-05
1.00788e-05
2.59209e-06
3.88075e-06
1.50839e-05
4.12499e-05
7.34648e-05
9.05863e-05
0.00010246
0.000126491
0.000159427
0.000158077
5.58624e-05
1.1848e-05
9.20219e-06
5.12313e-05
0.000106536
5.36413e-05
3.57197e-05
4.39644e-05
7.18046e-05
0.000105753
0.00013263
0.000151912
0.000165465
0.000170602
0.000156492
0.000116776
8.02686e-05
7.10958e-05
8.8675e-05
0.000124863
0.000153877
0.000152418
0.000121422
7.95429e-05
4.4586e-05
2.19435e-05
1.00824e-05
8.05764e-06
1.79922e-05
4.06983e-05
7.12308e-05
0.000100872
0.00013124
0.000161893
0.000161953
5.81394e-05
1.17433e-05
9.17142e-06
4.97877e-05
0.000102726
5.3976e-05
3.29998e-05
3.77886e-05
6.43293e-05
0.000103754
0.000136037
0.000156385
0.000168297
0.000172996
0.000167021
0.000141972
9.95292e-05
6.8954e-05
6.75986e-05
9.5062e-05
0.000142021
0.000175519
0.00016964
0.00013229
8.63309e-05
4.97399e-05
2.76955e-05
1.57707e-05
1.32633e-05
2.31344e-05
4.57125e-05
8.00378e-05
0.000119701
0.000153463
0.000159898
6.23334e-05
1.19892e-05
8.94963e-06
4.47096e-05
0.000102685
7.09981e-05
3.55884e-05
2.83921e-05
4.22093e-05
7.82002e-05
0.000122577
0.000156376
0.000177785
0.000189522
0.000190309
0.000173145
0.0001327
8.77992e-05
6.78425e-05
7.86497e-05
0.000119308
0.00016877
0.000184243
0.000153195
0.000101311
5.82226e-05
3.58509e-05
2.60678e-05
2.0006e-05
2.15414e-05
3.50445e-05
6.21926e-05
0.00010154
0.000140922
0.000157094
6.65343e-05
1.25493e-05
8.7336e-06
3.99377e-05
9.64544e-05
9.49022e-05
4.88538e-05
2.34871e-05
2.43101e-05
4.74271e-05
9.50163e-05
0.000147268
0.000185095
0.000208771
0.000220104
0.000213669
0.000176196
0.000114039
7.04009e-05
6.25518e-05
8.77404e-05
0.000141231
0.000180245
0.000160878
0.000104833
5.76736e-05
3.6506e-05
3.19008e-05
2.97595e-05
2.85479e-05
3.61656e-05
5.74542e-05
9.46592e-05
0.000138403
0.000157556
6.58395e-05
1.28581e-05
8.68726e-06
3.95793e-05
9.92809e-05
0.000105728
6.94719e-05
2.73447e-05
1.79157e-05
3.11503e-05
7.15603e-05
0.000131328
0.000182266
0.000216639
0.000238008
0.000246004
0.000230446
0.000175035
0.000102465
6.48339e-05
6.5925e-05
0.000101285
0.000147805
0.000148229
0.00010078
5.49002e-05
3.44395e-05
3.33354e-05
3.71786e-05
3.69605e-05
4.1397e-05
5.93314e-05
9.64019e-05
0.00014374
0.000159665
6.23302e-05
1.27913e-05
8.84069e-06
4.29014e-05
0.000108981
0.000107636
7.36636e-05
3.4266e-05
1.85592e-05
2.64158e-05
6.24992e-05
0.000122613
0.000176953
0.000214961
0.000239804
0.000251383
0.000242228
0.000198824
0.000128322
7.3807e-05
5.63588e-05
7.08467e-05
0.00011129
0.000134764
0.000105534
5.97399e-05
3.46735e-05
3.1556e-05
3.92183e-05
4.36263e-05
4.81579e-05
6.474e-05
0.000102272
0.00015115
0.000161702
6.01356e-05
1.26639e-05
8.97573e-06
4.65607e-05
0.000112331
0.000102932
6.97185e-05
3.97622e-05
2.24376e-05
2.5124e-05
5.46407e-05
0.000110044
0.000164799
0.00020588
0.000235768
0.000255393
0.000258935
0.000231271
0.000165091
9.61884e-05
6.14152e-05
5.94239e-05
8.26399e-05
0.000105777
9.39535e-05
5.93599e-05
3.47866e-05
2.94442e-05
3.69117e-05
4.44209e-05
5.15273e-05
7.0341e-05
0.000110666
0.000157764
0.000159649
5.78097e-05
1.25255e-05
8.87703e-06