/*--------------------------------*- C++ -*----------------------------------*\
| =========                 |                                                 |
| \\      /  F ield         | OpenFOAM: The Open Source CFD Toolbox           |
|  \\    /   O peration     | Version:  v1906                                 |
|   \\  /    A nd           | Web:      www.OpenFOAM.com                      |
|    \\/     M anipulation  |                                                 |
\*---------------------------------------------------------------------------*/
FoamFile
{
    version     2.0;
    format      ascii;
    class       volVectorField;
    location    "87";
    object      U;
}
// * * * * * * * * * * * * * * * * * * * * * * * * * * * * * * * * * * * * * //

dimensions      [0 1 -1 0 0 0 0];


internalField   nonuniform List<vector> 
78750
(
(-0.372262 -0.135438 -0.108048)
(-0.322263 -0.118742 -0.107056)
(-0.317666 -0.0904696 -0.101502)
(-0.267943 -0.060596 -0.0976471)
(-0.213768 -0.0382734 -0.100468)
(-0.207724 -0.028065 -0.104668)
(-0.175476 -0.0151006 -0.111304)
(-0.161629 -0.00933946 -0.11721)
(-0.134614 -0.000716783 -0.125131)
(-0.118435 0.00257926 -0.132622)
(-0.0963902 0.00721156 -0.141647)
(-0.0802965 0.00923491 -0.149495)
(-0.0632585 0.0133434 -0.156926)
(-0.048616 0.0168813 -0.162706)
(-0.0357964 0.0202077 -0.167748)
(-0.0245513 0.0224544 -0.171737)
(-0.0152045 0.0235079 -0.174849)
(-0.00758863 0.0231979 -0.176721)
(-0.00155061 0.0216904 -0.177165)
(0.00304922 0.0195286 -0.175871)
(0.00649287 0.0174558 -0.172747)
(0.00914716 0.0161602 -0.167892)
(0.0113305 0.016171 -0.161578)
(0.0135221 0.0177487 -0.154418)
(0.0163094 0.0205456 -0.147628)
(0.0200922 0.0237586 -0.142528)
(0.0245779 0.0265615 -0.139771)
(0.028554 0.0278315 -0.139092)
(0.0308306 0.0272015 -0.13899)
(0.0311869 0.0260743 -0.137653)
(0.0301317 0.0257157 -0.134384)
(0.0280812 0.0268495 -0.128836)
(0.0240285 0.0297762 -0.121059)
(0.0232711 0.0277834 -0.113701)
(0.0142224 0.0883571 -0.06172)
(0.0344001 -0.214754 0.084891)
(-0.0672158 -0.20066 0.0784034)
(-0.0451319 -0.243598 0.0704771)
(-0.0620642 -0.26594 0.0690486)
(-0.0677308 -0.255494 0.0635171)
(-0.0625125 -0.245237 0.0638316)
(-0.0546954 -0.223897 0.0644698)
(-0.0421597 -0.206186 0.0655522)
(-0.0288826 -0.189114 0.0668673)
(-0.0134487 -0.170363 0.0682462)
(0.0017391 -0.150647 0.0692938)
(0.0167495 -0.129703 0.069908)
(0.0307694 -0.107642 0.0696634)
(0.043565 -0.0842106 0.0684243)
(0.0547595 -0.0595615 0.0662676)
(0.0640648 -0.0341417 0.0635166)
(0.0711778 -0.00856373 0.0599578)
(0.0760638 0.0162603 0.055693)
(0.0783621 0.0392571 0.0504003)
(0.078307 0.0582199 0.0430392)
(0.0763072 0.0714966 0.0332718)
(0.0728766 0.0779476 0.0208802)
(0.0683354 0.0763495 0.00515393)
(0.0628449 0.0640669 -0.0154865)
(0.056582 0.0412232 -0.0410868)
(0.0493524 0.0166672 -0.0666118)
(0.0408279 0.00608412 -0.0803469)
(0.0321524 0.0213528 -0.0725425)
(0.0258412 0.04885 -0.0560197)
(0.0230013 0.069811 -0.0467762)
(0.0218751 0.0837166 -0.0439708)
(0.0208392 0.0943135 -0.0439475)
(0.0189034 0.104603 -0.0447801)
(0.0142772 0.131194 -0.0441743)
(0.00351359 0.264597 -0.024209)
(-0.0082807 0.117962 -0.15215)
(-0.0139377 0.0709631 -0.17558)
(-0.0136001 0.0126583 -0.159597)
(-0.00943654 -0.0499407 -0.133012)
(-0.00250193 -0.11362 -0.104988)
(0.00613061 -0.159108 -0.0876948)
(0.016051 -0.190611 -0.0763663)
(0.0262325 -0.210216 -0.0689536)
(0.0366159 -0.219848 -0.0641991)
(0.0466984 -0.220798 -0.0613944)
(0.0561691 -0.214565 -0.0599563)
(0.0648677 -0.203013 -0.0592258)
(0.0728911 -0.187576 -0.0584829)
(0.0803866 -0.169148 -0.0571403)
(0.0875014 -0.148182 -0.05476)
(0.0943394 -0.124925 -0.0511036)
(0.100901 -0.0996032 -0.0460057)
(0.107123 -0.0725548 -0.039303)
(0.112866 -0.044165 -0.030618)
(0.117943 -0.0154862 -0.0201658)
(0.121646 0.0128493 -0.00788465)
(0.123307 0.0401017 0.00608294)
(0.122427 0.065835 0.0215054)
(0.118614 0.0914009 0.0394963)
(0.110278 0.121217 0.0636213)
(0.0958166 0.158617 0.0982388)
(0.074612 0.18908 0.127392)
(0.0507282 0.169732 0.104702)
(0.0331265 0.108985 0.0402168)
(0.0229684 0.0696213 -0.00427346)
(0.0167442 0.0618728 -0.0208992)
(0.0121071 0.0739878 -0.0256479)
(0.00910284 0.115775 -0.0252462)
(0.00717893 0.21745 -0.0267002)
(0.00120274 0.343963 -0.0147148)
(0.00672545 0.000410643 -0.0439491)
(0.0359739 -0.0761405 -0.0336006)
(0.0638052 -0.150427 -0.0116204)
(0.092097 -0.215923 0.00942111)
(0.117581 -0.264008 0.0251592)
(0.137875 -0.294455 0.0358034)
(0.152564 -0.310386 0.0412226)
(0.162106 -0.314461 0.0408455)
(0.167635 -0.309217 0.0353726)
(0.170369 -0.29704 0.0267831)
(0.17072 -0.279549 0.0167661)
(0.168756 -0.258147 0.00650302)
(0.164733 -0.233981 -0.00328268)
(0.159156 -0.207792 -0.012303)
(0.152619 -0.180063 -0.0206332)
(0.145662 -0.151077 -0.0285982)
(0.138791 -0.12103 -0.0366483)
(0.132454 -0.0900227 -0.0451161)
(0.126997 -0.0583345 -0.0538206)
(0.122673 -0.0270567 -0.061531)
(0.119163 0.0028165 -0.0666333)
(0.116457 0.0307452 -0.0678133)
(0.114526 0.0571604 -0.0644889)
(0.113196 0.0832679 -0.0557215)
(0.112087 0.109945 -0.0408698)
(0.111651 0.140835 -0.0151059)
(0.110257 0.173429 0.0243268)
(0.106186 0.186883 0.0500597)
(0.100397 0.182817 0.0575038)
(0.0874262 0.165341 0.0487475)
(0.0656988 0.14316 0.0333862)
(0.0444629 0.129839 0.0298)
(0.0274343 0.126195 0.032705)
(0.0139983 0.205129 0.0241717)
(0.00339591 0.362601 0.0143163)
(0.012373 -0.190022 0.0242879)
(0.036138 -0.352744 0.046865)
(0.0554698 -0.434979 0.0540287)
(0.0668663 -0.471075 0.0513329)
(0.0689913 -0.469658 0.0417421)
(0.0649123 -0.447984 0.0266608)
(0.054488 -0.411664 0.00263203)
(0.0399467 -0.365044 -0.0309061)
(0.0271938 -0.313181 -0.0683162)
(0.0192181 -0.260523 -0.101768)
(0.015744 -0.209867 -0.126185)
(0.0152121 -0.163783 -0.140262)
(0.0160321 -0.12344 -0.145565)
(0.0172286 -0.087514 -0.144701)
(0.0183635 -0.0549032 -0.139684)
(0.0192858 -0.0256196 -0.132197)
(0.0200328 0.000183697 -0.124017)
(0.0206674 0.0227956 -0.116725)
(0.0214307 0.0427121 -0.111085)
(0.0231532 0.0607715 -0.106999)
(0.0256986 0.0779448 -0.103898)
(0.0287059 0.0947323 -0.101053)
(0.0318173 0.111321 -0.0977474)
(0.0347687 0.127907 -0.0932584)
(0.0374587 0.14482 -0.0867539)
(0.0400495 0.162475 -0.0770236)
(0.0425597 0.180545 -0.0635939)
(0.0446066 0.198219 -0.0476664)
(0.0451786 0.217935 -0.0253346)
(0.041776 0.237741 0.00473833)
(0.0342052 0.249248 0.0329073)
(0.0262162 0.25149 0.0492611)
(0.017214 0.2555 0.0510686)
(0.00685192 0.31843 0.0377178)
(-0.00090597 0.429913 0.0212579)
(0.00335235 -0.316916 0.0374499)
(-0.00139099 -0.386329 0.0344737)
(-0.00796704 -0.370517 0.0261308)
(-0.0168045 -0.32117 0.0177722)
(-0.0258508 -0.241653 0.00757195)
(-0.0316793 -0.152839 -0.0108961)
(-0.0360237 -0.0928543 -0.0369723)
(-0.0402975 -0.0832411 -0.058276)
(-0.0445182 -0.100222 -0.0695459)
(-0.0486023 -0.119551 -0.0734159)
(-0.0512142 -0.128332 -0.074924)
(-0.0526242 -0.127673 -0.0768794)
(-0.0532331 -0.119082 -0.0796228)
(-0.0524368 -0.102471 -0.0829544)
(-0.0499773 -0.0816467 -0.0862813)
(-0.0463041 -0.0608091 -0.0892048)
(-0.0417604 -0.0405824 -0.0913502)
(-0.0364642 -0.0200761 -0.0925847)
(-0.0311025 0.00135385 -0.0928121)
(-0.0258133 0.0242421 -0.0920387)
(-0.0206965 0.0485371 -0.0900172)
(-0.0159382 0.0740767 -0.0862248)
(-0.011752 0.100696 -0.0799912)
(-0.00831041 0.128202 -0.0705408)
(-0.00568099 0.15619 -0.0571194)
(-0.00376988 0.183711 -0.0393249)
(-0.0023469 0.209035 -0.0175899)
(-0.00113516 0.229898 0.00654108)
(0.000134708 0.244003 0.0303055)
(0.00198237 0.249499 0.0493568)
(0.00438439 0.247623 0.0595524)
(0.00646146 0.245548 0.060493)
(0.00662245 0.258214 0.0524093)
(0.00253166 0.359225 0.0351382)
(-0.0022155 0.446165 0.0183057)
(-0.00807586 -0.230575 0.031165)
(-0.0159263 -0.338321 0.0318869)
(-0.0197398 -0.375855 0.0299605)
(-0.0189959 -0.394355 0.0292632)
(-0.0150872 -0.400799 0.0295326)
(-0.00724157 -0.388144 0.0304001)
(0.00412197 -0.348797 0.0314641)
(0.0146419 -0.29546 0.0322031)
(0.0211301 -0.242565 0.0323126)
(0.02307 -0.195057 0.0303831)
(0.0214477 -0.154715 0.0246624)
(0.0177605 -0.121892 0.0149578)
(0.0134061 -0.0958259 0.00259356)
(0.00884199 -0.0751686 -0.0107398)
(0.00428945 -0.0574464 -0.0230306)
(-8.04106e-05 -0.0398448 -0.0322966)
(-0.00395197 -0.0208436 -0.0375684)
(-0.00722627 -0.000828631 -0.0392048)
(-0.0100681 0.0194442 -0.0380861)
(-0.0125894 0.0401942 -0.0349767)
(-0.0148582 0.0622177 -0.0301763)
(-0.0167822 0.0861008 -0.02335)
(-0.0182156 0.111452 -0.0139494)
(-0.0189577 0.136664 -0.00181173)
(-0.0187963 0.159553 0.0124235)
(-0.017557 0.178333 0.0274916)
(-0.0151739 0.192057 0.0419675)
(-0.011703 0.200387 0.0544285)
(-0.00726021 0.203716 0.0634708)
(-0.0021743 0.203707 0.0677086)
(0.00265308 0.204774 0.0665494)
(0.00697378 0.217026 0.0597505)
(0.00880181 0.273404 0.0461003)
(0.00494807 0.393205 0.0302418)
(3.32499e-05 0.446874 0.0156806)
(-0.000300575 -0.239902 0.0210395)
(0.00328305 -0.377251 0.0208196)
(0.00590203 -0.407507 0.0196298)
(0.00755034 -0.410314 0.0185523)
(0.00866483 -0.398044 0.0169951)
(0.00938898 -0.369834 0.0136135)
(0.01019 -0.327114 0.00702777)
(0.0118875 -0.275782 -0.00235848)
(0.0139896 -0.225179 -0.0122475)
(0.0152089 -0.183183 -0.0202146)
(0.014878 -0.15107 -0.024774)
(0.0129799 -0.124841 -0.0254903)
(0.00966299 -0.0994063 -0.0227238)
(0.00521754 -0.0713413 -0.0186108)
(-1.48898e-05 -0.0411272 -0.0172496)
(-0.00556411 -0.0129119 -0.0205456)
(-0.0107316 0.00972145 -0.0253389)
(-0.0148787 0.0276095 -0.0277941)
(-0.0179148 0.0441026 -0.0266375)
(-0.0200885 0.0614794 -0.0217194)
(-0.0214647 0.079968 -0.0131983)
(-0.022013 0.0982487 -0.0018653)
(-0.0216517 0.114733 0.0109518)
(-0.0202897 0.128373 0.0239295)
(-0.0179223 0.138653 0.0360465)
(-0.0146563 0.145499 0.0466038)
(-0.0106742 0.149173 0.0551505)
(-0.00618884 0.150178 0.0613373)
(-0.00152315 0.149488 0.0648555)
(0.00269176 0.148997 0.0656915)
(0.00600525 0.151606 0.0642535)
(0.00870145 0.165825 0.0598889)
(0.00896596 0.243435 0.0481645)
(0.00501282 0.398976 0.0321583)
(0.000817616 0.449386 0.0168948)
(-0.00500744 -0.239506 0.0154469)
(-0.00412688 -0.38252 0.0187103)
(-0.00266974 -0.422126 0.0190877)
(-0.000769742 -0.430919 0.0181131)
(0.00102282 -0.424039 0.0163602)
(0.00217677 -0.399429 0.0133815)
(0.00218293 -0.355598 0.0105281)
(0.00206465 -0.298151 0.0110725)
(0.00310111 -0.232747 0.0150595)
(0.00521495 -0.164673 0.0180959)
(0.00737234 -0.101134 0.0158433)
(0.00843352 -0.0487951 0.00775697)
(0.00797712 -0.0105427 -0.00264573)
(0.00653486 0.0157669 -0.0111217)
(0.00488254 0.0346678 -0.0160234)
(0.00310673 0.0495941 -0.0180674)
(0.00104557 0.061662 -0.018271)
(-0.00130499 0.0714684 -0.0171198)
(-0.00373188 0.0800365 -0.0145649)
(-0.00585959 0.0883344 -0.0103233)
(-0.00736583 0.0967758 -0.00415158)
(-0.00799546 0.105041 0.00384832)
(-0.00764655 0.11226 0.0129833)
(-0.00642972 0.117668 0.0221595)
(-0.00455544 0.121073 0.0304519)
(-0.00222903 0.122863 0.0374036)
(0.000346641 0.123705 0.042884)
(0.00292508 0.124446 0.0469227)
(0.0052397 0.126166 0.0496983)
(0.0071611 0.130461 0.0515543)
(0.0086822 0.14137 0.0527918)
(0.00957185 0.175816 0.0526696)
(0.00783513 0.285875 0.0458286)
(0.00403022 0.43711 0.0323846)
(0.000615863 0.466589 0.0176324)
(0.00301107 -0.239559 0.00633322)
(0.0174868 -0.417264 0.0154423)
(0.0269923 -0.466576 0.0172279)
(0.0328825 -0.473708 0.0160154)
(0.0366829 -0.460447 0.0106948)
(0.0370194 -0.426183 -0.00311006)
(0.0317302 -0.380069 -0.0257412)
(0.0235462 -0.336941 -0.0457886)
(0.0164135 -0.299464 -0.0510239)
(0.0122744 -0.26029 -0.040469)
(0.0115987 -0.214209 -0.0199804)
(0.0135346 -0.161875 0.00142264)
(0.0161858 -0.108955 0.0155343)
(0.0178212 -0.0619084 0.0189115)
(0.0179062 -0.0230729 0.0141021)
(0.0168835 0.0089427 0.00641)
(0.0154185 0.0358043 3.53716e-05)
(0.0139672 0.0575586 -0.00322849)
(0.0126605 0.0739499 -0.00328839)
(0.0115301 0.0854566 -0.000784526)
(0.010651 0.0930464 0.00344383)
(0.0100903 0.0976869 0.00854707)
(0.00988545 0.100261 0.013828)
(0.0100127 0.101598 0.0189655)
(0.0104132 0.102266 0.0238342)
(0.0110031 0.102647 0.028257)
(0.0116835 0.103151 0.0320767)
(0.0123442 0.104287 0.035214)
(0.0128812 0.106731 0.0377773)
(0.0132209 0.111698 0.0401401)
(0.013261 0.122717 0.0427799)
(0.0126472 0.155817 0.0456992)
(0.00964598 0.278375 0.0443127)
(0.00541837 0.451311 0.0341676)
(0.0015973 0.478019 0.0193042)
(0.00625571 -0.348355 0.0220121)
(0.0164294 -0.487748 0.0349398)
(0.0217035 -0.503257 0.0378836)
(0.0250851 -0.487798 0.0384771)
(0.0271575 -0.434317 0.033357)
(0.0242285 -0.343266 0.015793)
(0.0175262 -0.247613 -0.0130351)
(0.0107894 -0.175285 -0.0463841)
(0.00557996 -0.139116 -0.0682652)
(0.00241198 -0.123091 -0.0753153)
(0.000584099 -0.109557 -0.0722518)
(0.000318435 -0.0881182 -0.0583319)
(0.00228853 -0.0527942 -0.0351565)
(0.0052002 -0.00895998 -0.0137375)
(0.00723721 0.0313901 -0.00294474)
(0.00824222 0.0602072 -0.00166571)
(0.00882326 0.0780152 -0.00383877)
(0.00927188 0.0886016 -0.00548289)
(0.00973054 0.0956187 -0.00565373)
(0.0102753 0.10099 -0.00428083)
(0.0108718 0.105045 -0.00140309)
(0.0114233 0.107591 0.00264718)
(0.0118337 0.10863 0.007401)
(0.0120622 0.108405 0.0123826)
(0.0121212 0.107358 0.0171967)
(0.0120518 0.106076 0.021557)
(0.011895 0.105239 0.0252911)
(0.0116985 0.105592 0.0283267)
(0.0114799 0.107966 0.0308995)
(0.0112321 0.114087 0.0335374)
(0.0109106 0.129711 0.0367986)
(0.0103703 0.178102 0.0408319)
(0.00751548 0.318485 0.0415591)
(0.00382597 0.480538 0.0340099)
(0.000915103 0.491833 0.0199411)
(0.00150077 -0.401709 0.0285303)
(0.000527746 -0.543087 0.0306283)
(0.000345871 -0.55459 0.0317737)
(-0.000266154 -0.527246 0.0311184)
(-0.00246564 -0.437642 0.0192654)
(-0.00859904 -0.333095 -0.00863963)
(-0.0141257 -0.26823 -0.0312658)
(-0.0149242 -0.226713 -0.0462446)
(-0.0131582 -0.197088 -0.0568499)
(-0.0107596 -0.176022 -0.0627902)
(-0.00856357 -0.158989 -0.064638)
(-0.00653027 -0.141053 -0.0621455)
(-0.00421056 -0.116309 -0.0523957)
(-0.00106797 -0.079785 -0.0334984)
(0.00250486 -0.0357833 -0.0133721)
(0.00547542 0.00524087 -0.00135603)
(0.00754977 0.0377384 0.0020438)
(0.00923509 0.0611604 0.00103915)
(0.0109039 0.0764122 -0.000601207)
(0.0124567 0.0856836 -0.00130967)
(0.0138949 0.0919022 -0.000947151)
(0.0152277 0.0964619 0.000511399)
(0.0163121 0.0995765 0.00300144)
(0.0170574 0.101343 0.00627356)
(0.0174434 0.102029 0.0100047)
(0.0174655 0.102051 0.0138435)
(0.0171355 0.101979 0.0174533)
(0.0165304 0.102532 0.020559)
(0.0157237 0.104568 0.0233291)
(0.0147344 0.109653 0.0261699)
(0.0134796 0.122872 0.0295939)
(0.0117327 0.169877 0.0345849)
(0.00829891 0.32562 0.0383933)
(0.00454256 0.497683 0.0335207)
(0.00145622 0.502221 0.0203829)
(-0.00131745 -0.388202 0.021086)
(-0.00641518 -0.530199 0.0240044)
(-0.010671 -0.539354 0.0302026)
(-0.0145072 -0.502257 0.0365499)
(-0.016718 -0.385821 0.0332783)
(-0.014518 -0.246654 0.000475147)
(-0.0151317 -0.179565 -0.028279)
(-0.0150761 -0.151966 -0.0413306)
(-0.0140204 -0.134323 -0.0483337)
(-0.012467 -0.118637 -0.0528183)
(-0.0107816 -0.102703 -0.0554095)
(-0.00924724 -0.0852849 -0.0557278)
(-0.00787777 -0.0645048 -0.0525201)
(-0.00644419 -0.0375334 -0.0435159)
(-0.00466217 -0.00357999 -0.028781)
(-0.00274225 0.0299335 -0.0155044)
(-0.000899242 0.0537794 -0.00888578)
(0.00105864 0.0678186 -0.00679357)
(0.00307075 0.0767056 -0.00630613)
(0.00511899 0.0835457 -0.00614423)
(0.00722534 0.0893652 -0.00575804)
(0.00921552 0.0942114 -0.00483009)
(0.0109844 0.0980591 -0.00320094)
(0.0124632 0.100998 -0.000852947)
(0.013587 0.103208 0.00210296)
(0.014302 0.104975 0.00545005)
(0.0145966 0.10673 0.00897919)
(0.0145011 0.109051 0.0126701)
(0.0140471 0.112804 0.0165537)
(0.0133127 0.11985 0.0206172)
(0.0122722 0.137037 0.0251613)
(0.0105728 0.195994 0.0305155)
(0.00665118 0.359561 0.0353722)
(0.00304578 0.518758 0.0324346)
(0.000807409 0.509967 0.02049)
(-0.000843314 -0.389101 0.0265439)
(-0.00925128 -0.553259 0.0355547)
(-0.0175359 -0.574002 0.0440059)
(-0.0245429 -0.558523 0.0553377)
(-0.0305573 -0.491321 0.0696027)
(-0.026072 -0.355547 0.0593601)
(-0.0197748 -0.261049 0.0279291)
(-0.0158792 -0.217588 0.00850546)
(-0.012447 -0.189517 -0.00420373)
(-0.00968105 -0.16642 -0.0136159)
(-0.0074931 -0.144486 -0.0206518)
(-0.00583145 -0.121844 -0.0253222)
(-0.00459097 -0.09689 -0.0271929)
(-0.00359741 -0.0678327 -0.0254202)
(-0.00246337 -0.0339461 -0.0194117)
(-0.000755906 0.00135724 -0.0112989)
(0.00134306 0.0307942 -0.00546398)
(0.00350536 0.0505188 -0.00308522)
(0.00558757 0.0626827 -0.002589)
(0.0075564 0.0709146 -0.00268638)
(0.00945162 0.0774505 -0.00281138)
(0.011269 0.0831964 -0.00266727)
(0.0129191 0.0883337 -0.00205152)
(0.0143139 0.0928734 -0.00085894)
(0.0153916 0.0968933 0.000919462)
(0.0160977 0.100586 0.0032494)
(0.0164148 0.104297 0.00619926)
(0.0163164 0.108416 0.00985225)
(0.0157763 0.113529 0.0140744)
(0.0148525 0.121347 0.018759)
(0.0134931 0.139084 0.0241822)
(0.0113514 0.204672 0.0298524)
(0.00731919 0.386482 0.0338591)
(0.00373784 0.537899 0.0317047)
(0.00148188 0.519482 0.0213325)
(-0.00129621 -0.39413 0.0353896)
(-0.0144536 -0.51148 0.0350488)
(-0.02665 -0.529858 0.0357317)
(-0.0381474 -0.520995 0.041545)
(-0.0482482 -0.484379 0.0543156)
(-0.0475936 -0.402937 0.066667)
(-0.0365961 -0.305271 0.0571746)
(-0.0268395 -0.241172 0.0440734)
(-0.0185945 -0.19274 0.0312834)
(-0.0125978 -0.154675 0.019035)
(-0.00867595 -0.122925 0.00821996)
(-0.00631878 -0.0940524 -0.000498961)
(-0.00499207 -0.065756 -0.00647428)
(-0.00427267 -0.037229 -0.00911345)
(-0.00370851 -0.00943434 -0.00845102)
(-0.00273762 0.0150779 -0.00583795)
(-0.000986804 0.0339548 -0.00333226)
(0.00126205 0.047419 -0.0018916)
(0.00358828 0.0573533 -0.00131233)
(0.00581564 0.0653731 -0.00118804)
(0.00788099 0.0723576 -0.00120796)
(0.00975108 0.0787035 -0.0011504)
(0.0114003 0.084597 -0.000850515)
(0.0128003 0.0901618 -0.000178958)
(0.0139133 0.0955268 0.000971553)
(0.0146989 0.100852 0.00271517)
(0.0151226 0.106339 0.00517357)
(0.0151532 0.11229 0.00841709)
(0.0147708 0.119331 0.0124554)
(0.0140008 0.129341 0.0174088)
(0.0127806 0.150395 0.0238817)
(0.0105448 0.222717 0.0310792)
(0.00602578 0.410012 0.0348484)
(0.00289382 0.551408 0.0329345)
(0.00134464 0.52267 0.0232686)
(-0.0113235 -0.333191 0.042783)
(-0.0278287 -0.453484 0.0341373)
(-0.0386506 -0.483918 0.0271037)
(-0.0464133 -0.496114 0.0253686)
(-0.0506106 -0.501189 0.0285867)
(-0.050342 -0.495566 0.0389017)
(-0.0437399 -0.456619 0.0558778)
(-0.0320022 -0.386963 0.0664721)
(-0.0195333 -0.314049 0.0697437)
(-0.00803224 -0.246728 0.0665855)
(0.00112136 -0.188384 0.0585817)
(0.00725025 -0.139427 0.0479161)
(0.0106496 -0.0978789 0.0369697)
(0.0122287 -0.0614414 0.0276987)
(0.0129155 -0.0294464 0.021123)
(0.0134393 -0.00285643 0.01705)
(0.0141041 0.0176459 0.0145361)
(0.0148653 0.0329506 0.0126469)
(0.0156958 0.0447369 0.0109896)
(0.01654 0.0544541 0.00946644)
(0.0173384 0.0630037 0.00809418)
(0.0180445 0.0708545 0.00693997)
(0.0186326 0.0782443 0.00609353)
(0.0190731 0.0853288 0.00564969)
(0.019328 0.0922552 0.00570057)
(0.0193568 0.0991879 0.00634633)
(0.0191173 0.106327 0.00769124)
(0.0185534 0.113975 0.00983161)
(0.0176077 0.122767 0.012869)
(0.0163023 0.134739 0.0170933)
(0.0146188 0.159091 0.0235814)
(0.0123648 0.24367 0.0325694)
(0.00809623 0.442764 0.0363534)
(0.0046689 0.567406 0.0342737)
(0.00238614 0.532802 0.025695)
(-0.0104571 -0.25584 0.034367)
(-0.0173907 -0.435668 0.02385)
(-0.0219207 -0.506107 0.0152834)
(-0.0245016 -0.53849 0.0108389)
(-0.0268456 -0.553405 0.00857809)
(-0.0291444 -0.556114 0.00820277)
(-0.0305099 -0.545685 0.0121236)
(-0.0280484 -0.510812 0.024341)
(-0.0202086 -0.450575 0.0411152)
(-0.00872576 -0.374648 0.0575831)
(0.00444523 -0.291372 0.0704248)
(0.017088 -0.209993 0.0772028)
(0.0275498 -0.138298 0.076961)
(0.0350655 -0.0805688 0.0707142)
(0.0395852 -0.037426 0.0611575)
(0.0414711 -0.00694291 0.0512998)
(0.0413131 0.0142469 0.0430599)
(0.0398485 0.0297319 0.036766)
(0.037858 0.0420504 0.0319285)
(0.0358687 0.0525177 0.0279954)
(0.0340925 0.0618188 0.0246405)
(0.0325271 0.0704194 0.0217369)
(0.0311218 0.0786297 0.019266)
(0.0298295 0.086645 0.0172558)
(0.028597 0.0946251 0.0157564)
(0.0273613 0.102741 0.0148394)
(0.0260466 0.111207 0.0145936)
(0.0245657 0.12034 0.0151187)
(0.022844 0.130761 0.0165316)
(0.0208721 0.144252 0.0190931)
(0.0185674 0.168608 0.0238859)
(0.0146533 0.248332 0.032981)
(0.00846172 0.460794 0.0398841)
(0.00495434 0.585782 0.0387406)
(0.00269834 0.545687 0.0300153)
(-0.00294728 -0.23901 0.0243888)
(0.000601035 -0.439289 0.01691)
(0.00107368 -0.512525 0.0102488)
(0.00120414 -0.538383 0.00556377)
(0.000295131 -0.548601 0.001032)
(-0.00128262 -0.552214 -0.00420177)
(-0.00298697 -0.552622 -0.00995534)
(-0.00417691 -0.550527 -0.0148624)
(-0.00383438 -0.53952 -0.0161169)
(-0.000269927 -0.508522 -0.0104454)
(0.00711355 -0.45339 0.00296814)
(0.0174411 -0.379497 0.0222004)
(0.0294742 -0.295185 0.0444134)
(0.04175 -0.208853 0.0655278)
(0.0528195 -0.127611 0.0810556)
(0.0614267 -0.0576817 0.0878168)
(0.0666021 -0.00447913 0.0854183)
(0.0678883 0.0299102 0.0768057)
(0.0657467 0.0493998 0.0664044)
(0.0613337 0.0611307 0.0572273)
(0.0559281 0.0702299 0.0500628)
(0.0506672 0.0784914 0.0445037)
(0.0460561 0.086305 0.0400101)
(0.0420349 0.0939663 0.0362576)
(0.0384687 0.101769 0.0331218)
(0.0352655 0.109951 0.0305937)
(0.0323359 0.118765 0.0287179)
(0.0295828 0.128597 0.0275654)
(0.0269427 0.140278 0.0272308)
(0.0243669 0.15652 0.0279297)
(0.021677 0.189482 0.0304917)
(0.0182542 0.296013 0.0355606)
(0.0103466 0.496773 0.0404451)
(0.00570565 0.600674 0.0403348)
(0.00322308 0.555646 0.03204)
(0.00165946 -0.265451 0.0132012)
(0.011547 -0.468413 0.0056038)
(0.0191986 -0.54574 0.00371246)
(0.0250161 -0.575939 0.00393985)
(0.0300327 -0.587135 0.00447574)
(0.0345599 -0.587143 0.00479179)
(0.0382643 -0.577591 0.00411633)
(0.0408101 -0.559757 0.00110137)
(0.0420478 -0.536778 -0.00554074)
(0.0421138 -0.510206 -0.0159256)
(0.0414601 -0.476889 -0.0283626)
(0.0408454 -0.432811 -0.0386012)
(0.0411838 -0.378301 -0.0403804)
(0.0433769 -0.316381 -0.0292081)
(0.0479994 -0.248807 -0.00577341)
(0.054881 -0.17628 0.0250167)
(0.0629888 -0.100544 0.0565704)
(0.07047 -0.0263853 0.0818256)
(0.0752916 0.0368481 0.0943005)
(0.0757868 0.078446 0.0924401)
(0.0720106 0.0977689 0.0821952)
(0.0655926 0.105465 0.0710898)
(0.0581012 0.110217 0.0623569)
(0.0510565 0.115104 0.0561155)
(0.0449162 0.120701 0.0515514)
(0.0395236 0.127142 0.0480045)
(0.0347217 0.134649 0.0451718)
(0.0303792 0.143649 0.0429618)
(0.0263902 0.154957 0.0413628)
(0.0227518 0.170795 0.040401)
(0.0193105 0.20135 0.0403723)
(0.0165547 0.308203 0.043037)
(0.0122366 0.540815 0.0424293)
(0.00787689 0.634604 0.0399561)
(0.00448146 0.583257 0.0321233)
(0.00400074 -0.327722 0.000415693)
(0.0143825 -0.535069 -0.00776557)
(0.0233014 -0.606416 -0.0121256)
(0.0302098 -0.633376 -0.0142651)
(0.0357779 -0.643674 -0.0153455)
(0.0404171 -0.644923 -0.0156286)
(0.0441415 -0.638907 -0.0148426)
(0.0471436 -0.624936 -0.0125664)
(0.0496065 -0.599685 -0.00872059)
(0.0512919 -0.558069 -0.00460467)
(0.0515425 -0.497834 -0.00413587)
(0.0499164 -0.425095 -0.0126914)
(0.0466038 -0.353621 -0.0309358)
(0.0424392 -0.29581 -0.0501695)
(0.0387467 -0.252459 -0.0603803)
(0.0367585 -0.214764 -0.0574363)
(0.0377622 -0.173247 -0.0397268)
(0.0425157 -0.122307 -0.00852021)
(0.0499308 -0.0605136 0.0302911)
(0.0580153 0.00995939 0.0681908)
(0.0635692 0.0766736 0.0925586)
(0.0635002 0.118241 0.0955959)
(0.0592759 0.134113 0.0866633)
(0.0532933 0.138653 0.0764073)
(0.0471421 0.140609 0.0683966)
(0.0418394 0.143143 0.062852)
(0.0373678 0.147197 0.0589861)
(0.0335967 0.153206 0.0561381)
(0.0304912 0.161864 0.0539144)
(0.0278215 0.175284 0.0519881)
(0.0253533 0.203674 0.0497751)
(0.0194873 0.302322 0.0463482)
(0.00957739 0.540601 0.0479444)
(0.00510103 0.645275 0.0459221)
(0.00314788 0.593609 0.0362336)
(0.00370114 -0.381096 -0.00397398)
(0.0107182 -0.580505 -0.0134088)
(0.0164083 -0.633251 -0.01987)
(0.0208828 -0.647222 -0.0239741)
(0.0246955 -0.647844 -0.0271673)
(0.027785 -0.640573 -0.0300663)
(0.0299019 -0.627048 -0.032902)
(0.030974 -0.607797 -0.035731)
(0.0310099 -0.582108 -0.038302)
(0.0300896 -0.546871 -0.0397631)
(0.0283649 -0.496941 -0.0384147)
(0.0262998 -0.429755 -0.033707)
(0.0247091 -0.350024 -0.03099)
(0.023611 -0.271696 -0.0369278)
(0.0220903 -0.211712 -0.04849)
(0.020097 -0.174519 -0.0575468)
(0.0183433 -0.150911 -0.0608494)
(0.0173488 -0.129789 -0.0572698)
(0.0183895 -0.101426 -0.0414658)
(0.0231115 -0.0579196 -0.00833401)
(0.0309058 0.00306085 0.0364757)
(0.0388899 0.0744806 0.077574)
(0.0420208 0.129355 0.0948373)
(0.0397092 0.152158 0.090676)
(0.0352572 0.157936 0.0814164)
(0.0302941 0.159045 0.0737419)
(0.0258056 0.160143 0.0687399)
(0.0220047 0.163047 0.065846)
(0.018945 0.169296 0.0642951)
(0.0163836 0.183942 0.063403)
(0.0139726 0.235476 0.0614131)
(0.014544 0.414741 0.0507202)
(0.00727279 0.614334 0.0432539)
(0.00294989 0.680573 0.0402054)
(0.00202186 0.614146 0.0310661)
(0.00199407 -0.40809 -0.00926951)
(0.00549319 -0.600981 -0.0253691)
(0.00888143 -0.649837 -0.0316764)
(0.011965 -0.663186 -0.0339444)
(0.0150616 -0.663682 -0.0345594)
(0.018029 -0.655722 -0.0341117)
(0.0205954 -0.640069 -0.0329171)
(0.0226215 -0.615654 -0.0314287)
(0.023959 -0.579173 -0.0306082)
(0.0242947 -0.526462 -0.0325566)
(0.0231072 -0.460565 -0.0395952)
(0.0202343 -0.39574 -0.0491696)
(0.0167307 -0.33953 -0.0546271)
(0.01433 -0.285926 -0.054675)
(0.0138566 -0.23146 -0.0539107)
(0.0143401 -0.183064 -0.0551204)
(0.0144826 -0.147501 -0.0568926)
(0.0141194 -0.123459 -0.0574396)
(0.013647 -0.104926 -0.0556678)
(0.0136842 -0.0847488 -0.0487816)
(0.0158173 -0.053289 -0.028474)
(0.0217555 -0.000999292 0.0124131)
(0.0296292 0.0695628 0.0614007)
(0.034013 0.13114 0.090225)
(0.0325421 0.159162 0.0914276)
(0.028133 0.165905 0.0835164)
(0.0228032 0.166935 0.0764673)
(0.0175318 0.168155 0.0717949)
(0.0127334 0.171723 0.0689746)
(0.0087277 0.180451 0.0672209)
(0.00509008 0.207969 0.0654868)
(0.00563521 0.34305 0.0626818)
(0.00685004 0.621777 0.0475626)
(0.00419191 0.690864 0.0401732)
(0.00279647 0.6171 0.0303515)
(0.00125121 -0.41448 -0.0152257)
(0.00385765 -0.6046 -0.0326172)
(0.00690867 -0.650186 -0.0390309)
(0.00982492 -0.661591 -0.0420018)
(0.0128225 -0.660523 -0.0436974)
(0.0157048 -0.651243 -0.0444614)
(0.0181723 -0.634997 -0.0441562)
(0.0200963 -0.611753 -0.0424394)
(0.0215406 -0.579312 -0.0387821)
(0.0227865 -0.531454 -0.0331022)
(0.0241116 -0.460435 -0.02886)
(0.0249495 -0.374524 -0.033174)
(0.0242416 -0.300353 -0.0451363)
(0.0222365 -0.249932 -0.0563655)
(0.0201196 -0.214142 -0.0628394)
(0.018832 -0.181938 -0.0652385)
(0.0185928 -0.149953 -0.0652652)
(0.0187388 -0.121353 -0.0641738)
(0.0186474 -0.0987676 -0.0623852)
(0.0183774 -0.0808852 -0.0595871)
(0.0182644 -0.0635676 -0.0542911)
(0.0190934 -0.0395593 -0.0411581)
(0.0230249 0.00442385 -0.0069672)
(0.0300202 0.0732198 0.0468181)
(0.0343249 0.139678 0.0866199)
(0.0332274 0.173637 0.0943356)
(0.0296425 0.182614 0.0875489)
(0.025797 0.183015 0.0800219)
(0.0225739 0.183608 0.075064)
(0.0197162 0.188853 0.0723377)
(0.0188667 0.220294 0.0703844)
(0.0138988 0.349416 0.062306)
(0.00721319 0.614222 0.0559578)
(0.00464352 0.693388 0.0493928)
(0.00292646 0.623444 0.0376167)
(0.000597062 -0.426917 -0.0206136)
(0.00267806 -0.61888 -0.0364055)
(0.00519279 -0.663098 -0.0417325)
(0.0078742 -0.672958 -0.0443334)
(0.0108693 -0.669721 -0.0461452)
(0.0139813 -0.657207 -0.047577)
(0.0169105 -0.636397 -0.0486754)
(0.0194181 -0.607326 -0.0493455)
(0.0212513 -0.569376 -0.0492768)
(0.0222313 -0.52153 -0.047692)
(0.0225246 -0.462059 -0.0435791)
(0.0229405 -0.388837 -0.0389536)
(0.0239096 -0.309022 -0.0398521)
(0.0246077 -0.240684 -0.0471708)
(0.0244177 -0.19316 -0.0559947)
(0.0236821 -0.161624 -0.062897)
(0.022967 -0.137589 -0.0672835)
(0.0226221 -0.115461 -0.0694134)
(0.0226473 -0.0936983 -0.0695581)
(0.0227288 -0.0735759 -0.0680807)
(0.022699 -0.0559108 -0.0651923)
(0.0227112 -0.039004 -0.0601768)
(0.0231456 -0.0176998 -0.0493714)
(0.0255884 0.0204596 -0.0200708)
(0.0311213 0.0829826 0.0327316)
(0.0343452 0.140512 0.0736448)
(0.0328827 0.167655 0.0834167)
(0.0288609 0.175094 0.0795276)
(0.0245975 0.175021 0.0751902)
(0.0208456 0.173445 0.0735316)
(0.0160401 0.205665 0.0749309)
(0.0148335 0.41704 0.0644686)
(0.00524203 0.652254 0.0541777)
(0.00172215 0.716876 0.0477487)
(0.00130358 0.641038 0.0352634)
(0.00169828 -0.428151 -0.0237702)
(0.00464352 -0.619165 -0.0391314)
(0.00697152 -0.664678 -0.0442399)
(0.00909679 -0.675014 -0.0464764)
(0.0113821 -0.671816 -0.0477901)
(0.0137721 -0.659011 -0.0485562)
(0.0161086 -0.637392 -0.0488069)
(0.0182845 -0.606266 -0.0484998)
(0.0201551 -0.563131 -0.0476396)
(0.0214452 -0.504605 -0.0465916)
(0.0217658 -0.432361 -0.0463537)
(0.021058 -0.357958 -0.0472777)
(0.0202331 -0.290603 -0.0488519)
(0.0203199 -0.231745 -0.0517954)
(0.0212472 -0.183185 -0.0563767)
(0.0223532 -0.146411 -0.0614289)
(0.0232645 -0.119542 -0.0658223)
(0.023988 -0.0988498 -0.0691503)
(0.0246429 -0.0809817 -0.0713601)
(0.0252765 -0.0637722 -0.0723665)
(0.0257878 -0.046339 -0.0719536)
(0.0260353 -0.0285016 -0.0697485)
(0.0260524 -0.00926683 -0.0647315)
(0.02605 0.0154709 -0.0530985)
(0.0270825 0.0566117 -0.022121)
(0.0297109 0.120594 0.0341617)
(0.0291935 0.174632 0.077099)
(0.0244717 0.195597 0.0854221)
(0.0174701 0.200288 0.0774961)
(0.0101962 0.207525 0.0687508)
(-0.000279536 0.244023 0.0644854)
(0.00147056 0.429552 0.0668212)
(0.00475927 0.685457 0.0510464)
(0.00265798 0.729455 0.0418937)
(0.00176119 0.635521 0.0300012)
(0.0028786 -0.45475 -0.0245247)
(0.00509775 -0.635048 -0.0371355)
(0.0066786 -0.673791 -0.0413075)
(0.0077317 -0.680947 -0.0434436)
(0.00876932 -0.67547 -0.0451234)
(0.00982001 -0.660573 -0.0466145)
(0.010813 -0.636882 -0.0478634)
(0.0116353 -0.603941 -0.048643)
(0.012157 -0.560192 -0.0485199)
(0.0123727 -0.502693 -0.0469967)
(0.0125476 -0.428915 -0.0447797)
(0.012819 -0.346343 -0.0451011)
(0.0130727 -0.273604 -0.0491446)
(0.0137314 -0.219079 -0.054415)
(0.0152486 -0.178472 -0.0592276)
(0.017592 -0.146291 -0.0633399)
(0.0204122 -0.11954 -0.0668374)
(0.0233182 -0.0966386 -0.0697706)
(0.0260591 -0.0763404 -0.0721492)
(0.0285362 -0.0574292 -0.0739351)