/*--------------------------------*- C++ -*----------------------------------*\
| =========                 |                                                 |
| \\      /  F ield         | OpenFOAM: The Open Source CFD Toolbox           |
|  \\    /   O peration     | Version:  v1912                                 |
|   \\  /    A nd           | Website:  www.openfoam.com                      |
|    \\/     M anipulation  |                                                 |
\*---------------------------------------------------------------------------*/
FoamFile
{
    version     2.0;
    format      ascii;
    class       volScalarField;
    location    "100/oil";
    object      heatTransferCoeff(T);
}
// * * * * * * * * * * * * * * * * * * * * * * * * * * * * * * * * * * * * * //

dimensions      [1 0 -3 -1 0 0 0];


internalField   uniform 0;

boundaryField
{
    maxY
    {
        type            calculated;
        value           uniform 0;
    }
    minX
    {
        type            calculated;
        value           uniform 0;
    }
    maxX
    {
        type            calculated;
        value           uniform 0;
    }
    minY
    {
        type            calculated;
        value           uniform 0;
    }
    minZ
    {
        type            calculated;
        value           uniform 0;
    }
    maxZ
    {
        type            calculated;
        value           uniform 0;
    }
    oil_to_sphere
    {
        type            calculated;
        value           nonuniform List<scalar> 
1536
(
-108.266
-106.35
-106.456
-102.613
-102.235
-106.115
-104.658
-105.086
-104.848
-102.777
-101.48
-102.978
-104.774
-103.219
-100.739
-104.334
-106.173
-106.552
-104.201
-104.702
-105.617
-104.824
-105.047
-104.319
-104.549
-104.418
-104.439
-104.059
-106.162
-105.031
-106.74
-106.32
-106.445
-104.253
-104.408
-103.998
-104.108
-103.5
-103.955
-104.368
-103.839
-104.183
-104.792
-105.308
-105.825
-104.346
-106.033
-105.429
-100.728
-104.479
-105.445
-104.913
-105.358
-104.222
-106.084
-107.507
-104.958
-104.718
-105.655
-105.332
-104.805
-104.73
-104.816
-104.194
-104.459
-104.692
-104.682
-105.542
-105.421
-105.976
-104.185
-102.73
-103.188
-104.434
-104.362
-107.6
-106.43
-103.811
-104.345
-106.557
-105.639
-105.469
-102.396
-102.297
-106.144
-107.991
-102.211
-104.515
-105.393
-105.349
-105.061
-104.048
-104.072
-104.133
-104.403
-105.256
-105.83
-105.901
-106.523
-105.301
-105.686
-104.136
-108.41
-105.528
-103.129
-104.365
-104.455
-102.806
-102.888
-108.571
-106.385
-105.179
-104.731
-105.148
-102.176
-102.593
-101.887
-107.145
-108.186
-106.59
-104.959
-105.132
-103.935
-105.763
-106.649
-105.607
-104.842
-103.781
-105.879
-105.493
-104.732
-105.43
-106.029
-104.381
-104.586
-106.008
-105.133
-106.606
-103.846
-106.182
-104.823
-105.511
-105.513
-104.805
-104.539
-104.773
-105.046
-108.209
-105.897
-108.481
-105.81
-107.419
-104.933
-105.087
-104.119
-106.128
-105.849
-106.629
-109.08
-107.949
-106.37
-108.5
-102.93
-103.283
-104.082
-103.96
-105.788
-107.515
-106.286
-108.17
-104.201
-104.348
-103.927
-105.968
-105.554
-105.522
-107.819
-104.9
-105.266
-107.901
-103.701
-103.223
-103.24
-103.382
-106.525
-108.047
-108.003
-104.082
-103.589
-106.538
-103.779
-106.185
-106.026
-106.929
-102.983
-100.623
-106.93
-107.12
-105.237
-104.223
-104.997
-104.584
-106.673
-106.941
-105.887
-105.514
-104.64
-107.305
-106.672
-106.337
-103.714
-104.431
-104.357
-105.157
-106.072
-107.79
-104.864
-103.159
-103.163
-100.51
-106.369
-105.896
-105.42
-105.076
-105.229
-107.501
-106.235
-105.027
-106.431
-102.96
-104.072
-100.862
-104.662
-106.779
-106.941
-106.888
-106.229
-105.772
-106.484
-103.031
-103.274
-105.105
-107.078
-103.789
-101.217
-101.837
-105.798
-106.179
-108.282
-109.959
-105.229
-102.459
-100.444
-105.332
-107.624
-104.117
-104.18
-101.91
-104.038
-107.452
-108.284
-105.257
-104.281
-107.207
-108.285
-104.353
-102.576
-105.251
-107.849
-107.321
-105.783
-106.076
-106.824
-103.379
-104.224
-106.988
-106.075
-107.242
-104.893
-106.529
-107.772
-106.057
-105.864
-107.233
-104.375
-104.244
-104.654
-103.757
-104.052
-106.996
-107.78
-105.002
-104.585
-104.502
-104.726
-104.099
-105.386
-105.011
-103.684
-102.049
-103.962
-102.984
-103.776
-108.107
-107.305
-107.349
-110.104
-103.079
-103.231
-105.969
-108.407
-109.293
-104.23
-105.018
-104.081
-106.034
-104.354
-105.793
-105.966
-106.762
-106.016
-104.706
-106.248
-103.874
-106.884
-107.164
-106.329
-106.246
-103.482
-107.967
-108.25
-106.645
-102.87
-104.379
-104.898
-106
-105.78
-105.875
-103.44
-106.86
-107.97
-106.584
-107.321
-105.495
-105.4
-104.937
-103.36
-105.631
-106.175
-103.274
-103.054
-103.432
-108.448
-106.997
-107.439
-105.612
-105.447
-107.384
-103.117
-108.051
-106.635
-105.312
-105.389
-103.082
-107.002
-106.914
-103.692
-105.279
-104.784
-104.36
-106.132
-106.823
-104.804
-104.532
-103.28
-107.758
-106.853
-103.126
-107.453
-107.36
-106.429
-107.688
-105.264
-106.214
-103.122
-102.834
-106.028
-109.62
-106.564
-108.62
-105.836
-104.596
-106.524
-103.696
-104.46
-106.152
-106.786
-106.178
-105.548
-103.86
-103.368
-107.056
-107.913
-106.877
-105.424
-104.294
-105.789
-106.203
-106.605
-105.493
-104.804
-104.01
-105.26
-103.699
-102.838
-104.122
-103.934
-105.199
-102.637
-104.546
-108.487
-104.514
-104.491
-106.852
-106.725
-105.94
-104.819
-103.102
-106.523
-107.315
-105.927
-105.661
-106.365
-105.156
-105.193
-105.608
-102.42
-106.612
-107.882
-107.498
-106.655
-106.323
-105.954
-105.463
-104.911
-103.671
-105.143
-103.749
-103.063
-103.868
-102.632
-108.178
-107.939
-107.072
-109.613
-104.815
-108.087
-103.337
-103.679
-106.137
-104.993
-103.323
-104.559
-104.243
-108.028
-107.483
-105.588
-105.825
-107.736
-107.11
-105.402
-106.249
-103.639
-106.744
-102.754
-107.505
-102.378
-106.605
-106.693
-106.758
-104.678
-103.276
-104.698
-106.782
-104.792
-102.686
-107.009
-106.959
-108.137
-108.611
-106.468
-107.324
-103.053
-103.332
-100.946
-101.55
-105.146
-104.361
-104.233
-103.931
-108.158
-105.043
-102.838
-102.49
-105.312
-103.861
-109.142
-104.032
-104.133
-105.311
-101.466
-101.75
-104.121
-104.076
-104.666
-104.457
-106.929
-106.657
-105.971
-105.37
-102.588
-104.333
-106.942
-103.607
-103.629
-106.364
-107.636
-103.821
-101.445
-103.277
-101.558
-104.992
-104.563
-104.108
-103.029
-101.001
-106.371
-106.487
-105.657
-105.237
-107.926
-106.359
-105.823
-105.519
-103.465
-104.218
-106.974
-106.119
-104.563
-101.7
-105.402
-107.554
-108.002
-105.48
-105.279
-107.645
-106.229
-107.304
-103.53
-104.125
-103.259
-104.446
-105.227
-107.396
-106.423
-103.615
-103.412
-105.693
-108.856
-103.862
-104.287
-102.827
-105.747
-105.236
-107.163
-107.694
-104.058
-102.772
-107.852
-108.461
-102.085
-108.244
-107.396
-106.596
-107.7
-106.087
-105.556
-105.409
-107.86
-105.507
-105.911
-105.327
-106.628
-105.653
-105.165
-105.083
-103.124
-106.415
-105.742
-106.673
-106.392
-106.543
-106.125
-105.587
-102.941
-107.184
-107.289
-106.135
-105.143
-105.677
-108.488
-104.217
-103.46
-103.041
-106.349
-105.233
-108.422
-104.657
-104.904
-105.556
-101.272
-101.127
-104.193
-104.123
-105.068
-103.203
-103.607
-106.644
-104.998
-107.628
-104.773
-108.195
-106.06
-106.337
-102.213
-101.148
-100.809
-104.229
-106.537
-104.467
-104.145
-101.413
-105.032
-107.149
-105.025
-110.385
-103.71
-106.891
-107.099
-106.372
-107.355
-107.559
-106.716
-105.419
-104.939
-105.178
-106.51
-104.897
-105.65
-105.753
-105.723
-106.737
-106.165
-106.509
-103.463
-103.742
-100.629
-101.792
-102.703
-99.435
-104.404
-104.48
-104.865
-105.204
-102.711
-103.171
-104.569
-107.363
-107.573
-104.548
-102.723
-104.863
-106.871
-106.789
-105.067
-102.787
-103.699
-106.125
-106.03
-105.044
-104.512
-106.287
-106.5
-107.769
-106.367
-105.441
-104.465
-103.549
-102.935
-105.368
-105.929
-108.553
-105.117
-108.357
-105.281
-108.923
-104.254
-104.874
-103.499
-103.84
-104.425
-103.405
-104.854
-102.628
-104.225
-107.208
-104.566
-103.198
-108.013
-106.386
-105.691
-105.22
-108.527
-110.159
-102.053
-106.168
-106.243
-105.949
-103.511
-105.115
-104.116
-105.896
-107.008
-106.904
-103.625
-106.205
-105.57
-106.198
-106.159
-105.72
-104.849
-105.06
-104.443
-102.826
-102.618
-103.48
-107.44
-104.273
-103.004
-104.305
-107.087
-104.739
-107.574
-106.864
-105.968
-105.452
-106.031
-107.923
-103.461
-106.044
-107.382
-107.242
-105.562
-103.964
-104.936
-106.109
-107.326
-103.453
-105.073
-105.609
-106.978
-105.731
-106.268
-107.627
-103.418
-104.118
-103.862
-108.036
-106.96
-105.267
-106.995
-104.052
-104.367
-106.983
-106.457
-107.636
-103.471
-106.549
-106.907
-105.428
-105.884
-106.497
-103.812
-102.405
-105.165
-106.358
-108.666
-104.986
-104.347
-105.086
-105.875
-106.591
-105.277
-104.102
-104.949
-106.776
-104.234
-103.734
-104.848
-104.19
-105.638
-105.422
-107.207
-106.076
-106.533
-104.396
-105.238
-105.617
-104.99
-104.66
-104.508
-104.372
-103.536
-106.265
-105.585
-105.442
-106.043
-102.735
-104.474
-108.046
-107.961
-103.981
-107.021
-105.88
-106.062
-104.523
-107.385
-107.057
-103.349
-104.673
-104.479
-104.449
-103.07
-103.121
-104.455
-107.221
-109.359
-104.183
-106.537
-106.251
-105.745
-104.893
-105.632
-107.292
-106.291
-103.449
-104.492
-104.35
-104.768
-106.004
-106.605
-106.318
-106.339
-106.565
-104.182
-106.36
-104.604
-106.412
-101.088
-106.082
-107.281
-104.657
-102.081
-105.691
-105.225
-108.014
-103.93
-106.375
-105.246
-102.408
-108.058
-103.247
-104.932
-105.087
-102.881
-107.081
-105.464
-105.019
-105.946
-105.466
-104.73
-108.036
-103.443
-104.474
-100.971
-105.78
-104.521
-105.151
-107.065
-109.996
-103.059
-104.621
-109.173
-103.329
-106.324
-104.055
-106.071
-102.342
-104.084
-109.102
-102.279
-109.36
-102.561
-108.049
-102.771
-103.891
-101.584
-103.755
-108.79
-101.621
-105.675
-102.364
-108.168
-108.797
-101.78
-105.629
-103.844
-103.41
-103.247
-104.309
-105.121
-105.177
-105.931
-104.971
-107.779
-109.279
-101.82
-106.193
-105.621
-105.079
-105.331
-104.961
-104.992
-104.916
-106.567
-105.117
-106.487
-104.528
-105.688
-107.39
-104.581
-105.844
-106.881
-104.427
-105.693
-105.153
-105.957
-104.867
-105.538
-104.707
-106.747
-104.521
-105.605
-102.666
-108.148
-101.775
-106.633
-106.944
-107.563
-103.899
-105.369
-104.902
-105.216
-105.686
-105.181
-106.589
-103.628
-100.473
-106.502
-102.154
-107.357
-104.006
-105.166
-107.253
-100.547
-108.724
-104.234
-101.419
-104.688
-106.211
-106.018
-105.445
-101.463
-105.644
-105.903
-104.169
-103.932
-107.352
-107.123
-104.498
-105.111
-107.35
-101.629
-107.098
-103.934
-105.983
-101.838
-109.708
-108.259
-106.69
-105.477
-105.194
-106.591
-104.992
-101.435
-103.459
-106.297
-104.012
-106.706
-101.992
-107.382
-106.52
-99.4034
-105.698
-105.722
-100.717
-108.524
-102.553
-107.281
-108.093
-106.751
-100.924
-105.471
-104.876
-105.651
-105.623
-106.307
-101.54
-104.767
-103.921
-103.981
-107.388
-105.331
-106.456
-106.008
-106.039
-104.848
-105.371
-104.958
-105.591
-107.084
-104.33
-104.781
-104.158
-105.824
-106.957
-104.359
-104.579
-104.416
-105.32
-104
-104.049
-104.635
-104.785
-105.36
-105.018
-107.601
-106.888
-102.022
-102.584
-108.008
-99.3093
-106.27
-105.922
-104.171
-104.885
-108.47
-100.726
-106.878
-106.265
-101.142
-104.586
-104.429
-105.859
-100.498
-107.239
-106.741
-100.431
-107.03
-107.553
-101.642
-107.543
-107.138
-101.709
-104.33
-104.098
-100.831
-105.207
-105.463
-104.052
-103.893
-104.727
-100.133
-103.713
-101.701
-100.034
-106.938
-103.839
-108.695
-104.792
-101.478
-107.084
-105.802
-100.949
-104.421
-104.411
-100.91
-102.39
-108.665
-98.7429
-103.518
-104.604
-99.7198
-107.088
-106.631
-105.207
-104.534
-104.521
-103.406
-100.167
-105.256
-104.458
-104.643
-105.223
-101.057
-106.836
-104.26
-104.996
-104.005
-104.899
-105.351
-103.469
-101.275
-104.662
-106.344
-104.177
-104.62
-105.23
-103.872
-104.762
-101.157
-104.627
-106.678
-104.031
-104.892
-103.931
-101.422
-107.982
-108.108
-107.06
-108.149
-101.585
-100.638
-104.869
-107.369
-105.443
-106.292
-106.607
-103.503
-102.979
-101.443
-102.281
-103.711
-105.013
-104.879
-104.79
-103.288
-106.772
-105.968
-101.735
-103.359
-103.461
-106.549
-103.828
-100.308
-106.49
-105.055
-106.905
-100.945
-104.743
-106.153
-104.419
-104.738
-106.291
-105.021
-103.412
-107.967
-99.5181
-103.97
-105.575
-103.943
-104.487
-107.834
-106.152
-105.469
-102.966
-107.471
-104.547
-105.395
-106.568
-106.969
-106.761
-106.948
-107.801
-108.135
-107.552
-107.556
-106.298
-106.775
-104.297
-104.83
-103.459
-102.525
-99.9275
-107.896
-107.737
-107.115
-104.627
-105.372
-105.263
-103.953
-105.587
-106.674
-103.611
-104.893
-106.175
-104.406
-104.36
-104.197
-104.613
-103.737
-104.523
-104.384
-101.801
-106.117
-103.764
-104.839
-100.78
-108.365
-104.974
-104.025
-103.741
-101.978
-105.272
-104.104
-100.736
-103.196
-104.865
-102.712
-102.84
-108.106
-108.392
-104.468
-104.45
-106.473
-107.691
-100.643
-104.728
-103.818
-104.466
-104.49
-104.64
-104.948
-103.149
-101.232
-107.782
-104.48
-102.743
-103.095
-104.329
-105.19
-102.104
-105.457
-104.204
-104.281
-107.712
-102.859
-101.526
-104.67
-104.183
-103.895
-101.308
-107.265
-104.499
-104.197
-104.375
-100.726
-104.734
-104.48
-101.628
-104.642
-103.145
-105.771
-107.114
-104.13
-106.548
-105.532
-104.014
-103.997
-104.547
-101.404
-106.112
-106.442
-104.23
-101.058
-103.447
-104.803
-104.914
-104.049
-101.259
-104.158
-106.885
-105.843
-104.377
-108.081
-102.643
-107.149
-100.714
-102.676
-107.424
-100.941
-106.902
-104.631
-105.182
-104.318
-108.558
-103.134
-105.142
-107.544
-107.734
-101.908
-107.239
-107.795
-99.4864
-106.177
-104.051
-100.795
-107.035
-104.003
-104.243
-104.261
-104.954
-104.675
-104.196
-104.123
-100.611
-106.667
-105.387
-105.055
-105.312
-104.595
-103.947
-103.458
-107.165
-100.235
-103.745
-104.908
-100.71
-106.866
-107.801
-105.992
-107.205
-107.761
-103.519
-105.655
-105.876
-107.194
-103.858
-106.198
-103.103
-101.176
-106.983
-103.229
-106.871
-108.362
-107.624
-100.97
-107.137
-105.811
-103.65
-104.184
-104.559
-104.091
-101.025
-107.925
-101.075
-107.864
-104.57
-103.13
-103.564
-105.355
-106.103
-107.969
-105.025
-108.341
-106.923
-106.79
-101.463
-106.792
-106.254
-107.05
-103.986
-103.606
-100.512
-104.807
-108.239
-107.482
-101.058
-103.208
-101.81
-103.956
-104.902
-102.974
-109.881
-104.316
-103.13
-101.264
-105.873
-103.733
-100.144
-105.206
-104.151
-104.062
-104.204
-104.237
-101.323
-102.864
-100.809
-104.445
-107.237
-105.815
-107.454
-107.137
-103.757
-103.307
-100.888
-103.644
-106.851
-107.331
-106.884
-106.545
-102.697
-100.746
-103.168
-100.335
-106.496
-106.766
-103.409
-106.679
-106.775
-107.146
-106.286
-105.207
-105.113
-103.751
-100.365
-103.39
-101.213
-103.523
-104.204
-104.022
-101.681
-100.98
-106.098
-108.148
-108.421
-107.667
-105.072
-105.853
-105.822
-105.124
-104.281
-104.941
-103.506
-104.62
-104.633
-100.916
-107.075
-104.582
-103.261
-101.687
-104.413
-104.983
-104.955
-104.081
-101.72
-107.62
-105.62
-104.136
-107.994
-103.498
-100.793
-106.568
-104.782
-104.66
-104.602
-104.003
-100.004
-105.581
-104.584
-101.115
-108.196
-104.456
-99.0865
-104.185
-104.86
-105.008
-103.955
-101.062
-103.839
-103.955
-102.373
-104.641
-100.721
-104.841
-104.732
-102.098
-108.507
-104.544
-101.661
-109.329
-104.871
-104.912
-101.615
-104.685
-101.137
)
;
    }
}


// ************************************************************************* //
