/*--------------------------------*- C++ -*----------------------------------*\
| =========                 |                                                 |
| \\      /  F ield         | OpenFOAM: The Open Source CFD Toolbox           |
|  \\    /   O peration     | Version:  v1906                                 |
|   \\  /    A nd           | Web:      www.OpenFOAM.com                      |
|    \\/     M anipulation  |                                                 |
\*---------------------------------------------------------------------------*/
FoamFile
{
    version     2.0;
    format      ascii;
    class       surfaceScalarField;
    location    "61";
    object      phi;
}
// * * * * * * * * * * * * * * * * * * * * * * * * * * * * * * * * * * * * * //

dimensions      [1 0 -1 0 0 0 0];
oriented        oriented;


internalField   nonuniform List<scalar> 
228225
(
-3.61594e-06
-9.90907e-09
1.27015e-07
-3.23954e-06
-4.96476e-07
1.20573e-07
-2.50411e-06
-8.49728e-07
1.14299e-07
-1.50571e-06
-1.11126e-06
1.13054e-07
-3.36036e-07
-1.28463e-06
1.15124e-07
9.25598e-07
-1.3799e-06
1.18402e-07
2.22175e-06
-1.41719e-06
1.2116e-07
3.51156e-06
-1.4124e-06
1.22668e-07
4.76399e-06
-1.37508e-06
1.22686e-07
5.95533e-06
-1.31253e-06
1.21186e-07
7.06779e-06
-1.23074e-06
1.18224e-07
8.0875e-06
-1.13372e-06
1.13912e-07
9.00282e-06
-1.02385e-06
1.08379e-07
9.80434e-06
-9.03451e-07
1.01742e-07
1.04849e-05
-7.74889e-07
9.40968e-08
1.10392e-05
-6.40182e-07
8.55351e-08
1.14639e-05
-5.01148e-07
7.61325e-08
1.17572e-05
-3.59614e-07
6.59465e-08
1.19195e-05
-2.17683e-07
5.4993e-08
1.19546e-05
-7.8881e-08
4.32764e-08
1.18604e-05
6.30035e-08
3.07262e-08
1.16354e-05
2.07271e-07
1.71408e-08
1.12911e-05
3.42364e-07
1.39936e-09
1.08317e-05
4.68867e-07
-1.00553e-08
1.02692e-05
5.85231e-07
-2.32994e-08
9.61714e-06
6.8944e-07
-3.78746e-08
8.89046e-06
7.79524e-07
-5.33507e-08
8.1048e-06
8.54575e-07
-6.93684e-08
7.27269e-06
9.17244e-07
-8.55335e-08
6.3944e-06
9.79282e-07
-1.01357e-07
5.43807e-06
1.07174e-06
-1.15747e-07
4.31408e-06
1.24895e-06
-1.25262e-07
2.90227e-06
1.5328e-06
-1.21092e-07
1.24473e-06
1.7476e-06
-8.96556e-08
1.27207e-06
-2.61354e-08
-6.0899e-08
-5.71626e-08
1.07799e-07
1.98864e-08
-7.28068e-07
1.51041e-07
2.4577e-07
-1.24882e-06
1.72873e-07
6.15767e-07
-1.66563e-06
1.84581e-07
1.11562e-06
-1.97567e-06
1.91316e-07
1.71831e-06
-2.17834e-06
1.95866e-07
2.39124e-06
-2.28864e-06
1.98714e-07
3.10722e-06
-2.32783e-06
1.99705e-07
3.84453e-06
-2.31123e-06
1.99079e-07
4.58424e-06
-2.24907e-06
1.9705e-07
5.30954e-06
-2.14952e-06
1.9369e-07
6.00562e-06
-2.01873e-06
1.89133e-07
6.65919e-06
-1.86088e-06
1.83656e-07
7.2581e-06
-1.67965e-06
1.77448e-07
7.79141e-06
-1.47867e-06
1.70586e-07
8.24943e-06
-1.26126e-06
1.63126e-07
8.6237e-06
-1.0305e-06
1.55092e-07
8.90692e-06
-7.8935e-07
1.46476e-07
9.09269e-06
-5.40745e-07
1.37201e-07
9.17441e-06
-2.87946e-07
1.27198e-07
9.15822e-06
-3.73647e-08
1.16352e-07
9.04005e-06
2.207e-07
1.04473e-07
8.82134e-06
4.69401e-07
9.1359e-08
8.50508e-06
7.07987e-07
7.6775e-08
8.09623e-06
9.33238e-07
6.04486e-08
7.60132e-06
1.14187e-06
4.20611e-08
7.02776e-06
1.33153e-06
2.1146e-08
6.38192e-06
1.50315e-06
-3.11793e-09
5.65964e-06
1.66571e-06
-2.65335e-08
4.84896e-06
1.84305e-06
-5.33915e-08
3.92235e-06
2.07895e-06
-8.08354e-08
2.85466e-06
2.41917e-06
-1.02637e-07
1.68526e-06
2.80879e-06
-1.06393e-07
5.9386e-07
2.91893e-06
-7.92197e-08
1.88926e-06
-2.18756e-08
1.71016e-07
-3.01931e-07
7.32732e-08
4.10262e-07
-1.08679e-06
1.19635e-07
7.31895e-07
-1.71877e-06
1.48145e-07
1.11884e-06
-2.21911e-06
1.6633e-07
1.55961e-06
-2.59371e-06
1.77231e-07
2.04577e-06
-2.84816e-06
1.83688e-07
2.56609e-06
-2.99717e-06
1.88228e-07
3.10679e-06
-3.06032e-06
1.91815e-07
3.65525e-06
-3.05414e-06
1.94496e-07
4.20041e-06
-2.9906e-06
1.9643e-07
4.73168e-06
-2.87845e-06
1.97733e-07
5.23892e-06
-2.72439e-06
1.98481e-07
5.71225e-06
-2.53287e-06
1.98727e-07
6.14211e-06
-2.3079e-06
1.98448e-07
6.52014e-06
-2.05426e-06
1.97602e-07
6.83893e-06
-1.77613e-06
1.96123e-07
7.09193e-06
-1.47741e-06
1.93928e-07
7.27343e-06
-1.16177e-06
1.90925e-07
7.37847e-06
-8.32783e-07
1.86979e-07
7.40267e-06
-4.94134e-07
1.8193e-07
7.33947e-06
-1.49844e-07
1.75582e-07
7.19678e-06
1.95555e-07
1.67702e-07
6.97154e-06
5.36463e-07
1.58e-07
6.66632e-06
8.66828e-07
1.46168e-07
6.28662e-06
1.18082e-06
1.31877e-07
5.83978e-06
1.47372e-06
1.14728e-07
5.33293e-06
1.74387e-06
9.42467e-08
4.76969e-06
1.9962e-06
6.99335e-08
4.14696e-06
2.24707e-06
4.11516e-08
3.45516e-06
2.52815e-06
6.52904e-09
2.68006e-06
2.88274e-06
-2.87403e-08
1.83627e-06
3.32386e-06
-6.07631e-08
1.00554e-06
3.71498e-06
-7.50043e-08
3.18471e-07
3.66558e-06
-5.86079e-08
2.22386e-06
-1.44706e-08
1.40552e-07
-5.08776e-07
6.56848e-08
4.58427e-07
-1.52244e-06
1.18089e-07
9.02738e-07
-2.31156e-06
1.4817e-07
1.4182e-06
-2.90052e-06
1.65557e-07
1.96099e-06
-3.31192e-06
1.75264e-07
2.50679e-06
-3.57465e-06
1.80629e-07
3.0436e-06
-3.71794e-06
1.83857e-07
3.56487e-06
-3.76813e-06
1.86394e-07
4.06586e-06
-3.74383e-06
1.88556e-07
4.54271e-06
-3.65793e-06
1.90375e-07
4.99162e-06
-3.51947e-06
1.92013e-07
5.40832e-06
-3.33484e-06
1.93657e-07
5.78721e-06
-3.10744e-06
1.95578e-07
6.1219e-06
-2.84056e-06
1.97864e-07
6.40653e-06
-2.53942e-06
2.00422e-07
6.63586e-06
-2.20871e-06
2.0315e-07
6.80528e-06
-1.85282e-06
2.05896e-07
6.91084e-06
-1.47588e-06
2.08459e-07
6.94913e-06
-1.08174e-06
2.10569e-07
6.91722e-06
-6.74208e-07
2.11883e-07
6.81285e-06
-2.57573e-07
2.11977e-07
6.63397e-06
1.63972e-07
2.10337e-07
6.37894e-06
5.84982e-07
2.06376e-07
6.04978e-06
9.96348e-07
1.99483e-07
5.65125e-06
1.3901e-06
1.89089e-07
5.19079e-06
1.75929e-06
1.74726e-07
4.67632e-06
2.10215e-06
1.56032e-07
4.11326e-06
2.4265e-06
1.32622e-07
3.50272e-06
2.75368e-06
1.0382e-07
2.84273e-06
3.11956e-06
6.85597e-08
2.13745e-06
3.56105e-06
2.70596e-08
1.41754e-06
4.05692e-06
-1.28379e-08
7.52936e-07
4.41494e-06
-3.46972e-08
2.28779e-07
4.22086e-06
-2.99941e-08
2.45815e-06
-3.7179e-09
1.46894e-07
-7.09008e-07
5.31062e-08
4.72061e-07
-1.94559e-06
9.76734e-08
9.07653e-07
-2.86892e-06
1.21708e-07
1.39803e-06
-3.52581e-06
1.34784e-07
1.90213e-06
-3.95797e-06
1.41786e-07
2.39749e-06
-4.21558e-06
1.45439e-07
2.87637e-06
-4.34411e-06
1.47211e-07
3.33723e-06
-4.37699e-06
1.47946e-07
3.77866e-06
-4.33335e-06
1.48029e-07
4.19844e-06
-4.22557e-06
1.47797e-07
4.59335e-06
-4.0622e-06
1.47748e-07
4.95835e-06
-3.8483e-06
1.48375e-07
5.28768e-06
-3.5869e-06
1.50058e-07
5.57615e-06
-3.28213e-06
1.53028e-07
5.81852e-06
-2.9392e-06
1.57346e-07
6.01015e-06
-2.56342e-06
1.63012e-07
6.14731e-06
-2.16001e-06
1.69945e-07
6.22728e-06
-1.73391e-06
1.77976e-07
6.24817e-06
-1.28956e-06
1.86818e-07
6.20864e-06
-8.30847e-07
1.96061e-07
6.10722e-06
-3.61396e-07
2.05117e-07
5.94302e-06
1.14849e-07
2.13196e-07
5.71584e-06
5.92725e-07
2.19292e-07
5.42465e-06
1.06516e-06
2.22234e-07
5.07018e-06
1.52359e-06
2.2083e-07
4.65509e-06
1.96017e-06
2.14071e-07
4.1835e-06
2.37235e-06
2.01269e-07
3.65939e-06
2.76857e-06
1.81937e-07
3.08567e-06
3.17202e-06
1.55342e-07
2.46661e-06
3.61829e-06
1.20382e-07
1.81728e-06
4.13291e-06
7.7672e-08
1.17829e-06
4.66218e-06
3.41792e-08
6.1179e-07
4.97912e-06
3.08702e-09
1.80031e-07
4.65674e-06
-2.90624e-09
2.63227e-06
7.76327e-09
1.22486e-07
-8.73395e-07
4.16021e-08
4.15637e-07
-2.31645e-06
7.73787e-08
8.14232e-07
-3.36468e-06
9.7185e-08
1.26225e-06
-4.08259e-06
1.08656e-07
1.72125e-06
-4.53221e-06
1.15017e-07
2.1725e-06
-4.78475e-06
1.17726e-07
2.61066e-06
-4.89993e-06
1.17549e-07
3.03459e-06
-4.91619e-06
1.15201e-07
3.44297e-06
-4.85324e-06
1.11429e-07
3.83359e-06
-4.7233e-06
1.0701e-07
4.20217e-06
-4.53365e-06
1.02751e-07
4.54206e-06
-4.28755e-06
9.92426e-08
4.84681e-06
-3.98869e-06
9.6919e-08
5.11065e-06
-3.64218e-06
9.612e-08
5.32811e-06
-3.2539e-06
9.71463e-08
5.49471e-06
-2.83035e-06
1.00237e-07
5.6073e-06
-2.37827e-06
1.05563e-07
5.66422e-06
-1.90416e-06
1.13211e-07
5.66522e-06
-1.41383e-06
1.23155e-07
5.61107e-06
-9.1204e-07
1.35219e-07
5.50309e-06
-4.02559e-07
1.49018e-07
5.34263e-06
1.11294e-07
1.63881e-07
5.13065e-06
6.25806e-07
1.78776e-07
4.86745e-06
1.13593e-06
1.92288e-07
4.55277e-06
1.63546e-06
2.02688e-07
4.18605e-06
2.11861e-06
2.08161e-07
3.76683e-06
2.58438e-06
2.07096e-07
3.29493e-06
3.04224e-06
1.98165e-07
2.77142e-06
3.51566e-06
1.79886e-07
2.20255e-06
4.03652e-06
1.50746e-07
1.60871e-06
4.61547e-06
1.11554e-07
1.03378e-06
5.16848e-06
6.91698e-08
5.2953e-07
5.44783e-06
3.63771e-08
1.52838e-07
5.0142e-06
2.0484e-08
2.77231e-06
1.46759e-08
1.14237e-07
-1.02047e-06
3.27315e-08
3.77795e-07
-2.64379e-06
6.34983e-08
7.28799e-07
-3.79827e-06
8.23265e-08
1.11958e-06
-4.56784e-06
9.43349e-08
1.51847e-06
-5.03254e-06
1.01349e-07
1.91148e-06
-5.28208e-06
1.04236e-07
2.29557e-06
-5.38782e-06
1.03687e-07
2.67032e-06
-5.39158e-06
1.00533e-07
3.0346e-06
-5.31326e-06
9.56491e-08
3.38554e-06
-5.16415e-06
8.98149e-08
3.71797e-06
-4.94984e-06
8.36752e-08
4.02579e-06
-4.67316e-06
7.77024e-08
4.30296e-06
-4.33827e-06
7.23243e-08
4.54322e-06
-3.95051e-06
6.79736e-08
4.74087e-06
-3.51671e-06
6.5058e-08
4.89141e-06
-3.04495e-06
6.39596e-08
4.99189e-06
-2.54388e-06
6.50325e-08
5.04101e-06
-2.02199e-06
6.85848e-08
5.03904e-06
-1.48686e-06
7.48805e-08
4.98746e-06
-9.44684e-07
8.41035e-08
4.8885e-06
-3.99979e-07
9.6242e-08
4.74471e-06
1.43987e-07
1.10955e-07
4.55851e-06
6.84301e-07
1.2757e-07
4.3309e-06
1.21841e-06
1.44985e-07
4.06115e-06
1.74346e-06
1.61612e-07
3.7465e-06
2.25768e-06
1.75467e-07
3.3828e-06
2.76365e-06
1.84339e-07
2.96606e-06
3.27308e-06
1.85857e-07
2.4952e-06
3.80909e-06
1.77447e-07
1.9772e-06
4.39766e-06
1.56991e-07
1.43551e-06
5.03267e-06
1.24795e-07
9.15345e-07
5.60252e-06
8.66764e-08
4.62623e-07
5.84768e-06
5.37216e-08
1.30739e-07
5.31525e-06
3.2086e-08
2.88845e-06
1.64693e-08
9.76835e-08
-1.14423e-06
2.6032e-08
3.28645e-07
-2.92791e-06
5.27968e-08
6.39188e-07
-4.17989e-06
7.07545e-08
9.87472e-07
-4.99932e-06
8.30653e-08
1.34567e-06
-5.48141e-06
9.06182e-08
1.70143e-06
-5.73185e-06
9.39268e-08
2.05157e-06
-5.83171e-06
9.36216e-08
2.39487e-06
-5.82556e-06
9.0545e-08
2.72977e-06
-5.73396e-06
8.56658e-08
3.05257e-06
-5.56676e-06
7.97082e-08
3.35796e-06
-5.32847e-06
7.31434e-08
3.64054e-06
-5.02216e-06
6.63442e-08
3.89433e-06
-4.65175e-06
5.95959e-08
4.11352e-06
-4.22303e-06
5.32247e-08
4.29301e-06
-3.744e-06
4.7698e-08
4.42876e-06
-3.22433e-06
4.35122e-08
4.51816e-06
-2.67451e-06
4.11153e-08
4.56017e-06
-2.10502e-06
4.09124e-08
4.55529e-06
-1.52538e-06
4.32927e-08
4.50526e-06
-9.43406e-07
4.86266e-08
4.41285e-06
-3.64873e-07
5.71711e-08
4.28146e-06
2.06256e-07
6.89847e-08
4.11422e-06
7.67531e-07
8.38626e-08
3.91318e-06
1.3181e-06
1.012e-07
3.6779e-06
1.85877e-06
1.19836e-07
3.40478e-06
2.3927e-06
1.37987e-07
3.08746e-06
2.92758e-06
1.53288e-07
2.7189e-06
3.47875e-06
1.62853e-07
2.29525e-06
4.06938e-06
1.63379e-07
1.82241e-06
4.71876e-06
1.51886e-07
1.32421e-06
5.40355e-06
1.2763e-07
8.4506e-07
5.98732e-06
9.49158e-08
4.27131e-07
6.20338e-06
6.30947e-08
1.21393e-07
5.58427e-06
3.79723e-08
2.99517e-06
1.65379e-08
8.66227e-08
-1.25317e-06
2.20655e-08
2.92342e-07
-3.18152e-06
4.77929e-08
5.69849e-07
-4.5241e-06
6.65422e-08
8.82439e-07
-5.39208e-06
7.99838e-08
1.20559e-06
-5.89318e-06
8.84599e-08
1.52833e-06
-6.14709e-06
9.23985e-08
1.84745e-06
-6.24344e-06
9.25235e-08
2.1614e-06
-6.22938e-06
8.97783e-08
2.46814e-06
-6.12592e-06
8.51229e-08
2.76416e-06
-5.94209e-06
7.92176e-08
3.04487e-06
-5.68181e-06
7.25392e-08
3.30506e-06
-5.34779e-06
6.53322e-08
3.53931e-06
-4.94385e-06
5.77642e-08
3.74245e-06
-4.47641e-06
5.01456e-08
3.90999e-06
-3.95451e-06
4.28768e-08
4.03834e-06
-3.38917e-06
3.6386e-08
4.12506e-06
-2.79246e-06
3.11256e-08
4.16891e-06
-2.17655e-06
2.75577e-08
4.17e-06
-1.55268e-06
2.60866e-08
4.1296e-06
-9.30273e-07
2.71397e-08
4.05002e-06
-3.16573e-07
3.11399e-08
3.93436e-06
2.83309e-07
3.84605e-08
3.78583e-06
8.66599e-07
4.93194e-08
3.60662e-06
1.43354e-06
6.36305e-08
3.39662e-06
1.98782e-06
8.08137e-08
3.15238e-06
2.5372e-06
9.9606e-08
2.8672e-06
3.09472e-06
1.17941e-07
2.53293e-06
3.68008e-06
1.3289e-07
2.14436e-06
4.31724e-06
1.40726e-07
1.70636e-06
5.01926e-06
1.3763e-07
1.24204e-06
5.7466e-06
1.21576e-07
7.93845e-07
6.34098e-06
9.50945e-08
4.01416e-07
6.53088e-06
6.57771e-08
1.14508e-07
5.833e-06
3.94153e-08
3.09609e-06
1.54334e-08
7.82275e-08
-1.35138e-06
1.97041e-08
2.66773e-07
-3.41493e-06
4.48032e-08
5.22893e-07
-4.84413e-06
6.37331e-08
8.128e-07
-5.75978e-06
7.75574e-08
1.11356e-06
-6.28069e-06
8.6555e-08
1.41467e-06
-6.53952e-06
9.11913e-08
1.71264e-06
-6.63369e-06
9.21927e-08
2.00553e-06
-6.61281e-06
9.04559e-08
2.29092e-06
-6.49822e-06
8.68088e-08
2.56545e-06
-6.29859e-06
8.18589e-08
2.82492e-06
-6.01739e-06
7.59838e-08
3.06468e-06
-5.65701e-06
6.93527e-08
3.2801e-06
-5.22145e-06
6.20793e-08
3.46692e-06
-4.71773e-06
5.43988e-08
3.62151e-06
-4.15581e-06
4.66187e-08
3.741e-06
-3.54785e-06
3.90963e-08
3.82336e-06
-2.90717e-06
3.22422e-08
3.86744e-06
-2.24724e-06
2.65008e-08
3.87304e-06
-1.58068e-06
2.22661e-08
3.84104e-06
-9.18358e-07
1.99518e-08
3.77322e-06
-2.68939e-07
2.0045e-08
3.67214e-06
3.61199e-07
2.30447e-08
3.54058e-06
9.68614e-07
2.94026e-08
3.38049e-06
1.55408e-06
3.94115e-08
3.19165e-06
2.12349e-06
5.30284e-08
2.97065e-06
2.68844e-06
6.96363e-08
2.71069e-06
3.26678e-06
8.77888e-08
2.40321e-06
3.88252e-06
1.04966e-07
2.04219e-06
4.56081e-06
1.17464e-07
1.63143e-06
5.30922e-06
1.20921e-07
1.19261e-06
6.07361e-06
1.12105e-07
7.6589e-07
6.67653e-06
9.17103e-08
3.89375e-07
6.8427e-06
6.55309e-08
1.12241e-07
6.0721e-06
3.92604e-08
3.19584e-06
1.43213e-08
7.32314e-08
-1.44324e-06
1.83915e-08
2.50574e-07
-3.63598e-06
4.34973e-08
4.92263e-07
-5.14878e-06
6.28303e-08
7.65974e-07
-6.11067e-06
7.70577e-08
1.04978e-06
-6.651e-06
8.63959e-08
1.33376e-06
-6.91498e-06
9.13593e-08
1.61453e-06
-7.00735e-06
9.27687e-08
1.89007e-06
-6.98005e-06
9.15855e-08
2.15785e-06
-6.85474e-06
8.86346e-08
2.41455e-06
-6.63986e-06
8.44772e-08
2.65623e-06
-6.33858e-06
7.94227e-08
2.87874e-06
-5.95319e-06
7.35826e-08
3.07816e-06
-5.48799e-06
6.70215e-08
3.25105e-06
-4.9506e-06
5.98928e-08
3.39456e-06
-4.35183e-06
5.24042e-08
3.50649e-06
-3.7047e-06
4.48134e-08
3.58519e-06
-3.02342e-06
3.74292e-08
3.62961e-06
-2.32238e-06
3.06062e-08
3.63931e-06
-1.6152e-06
2.46884e-08
3.61462e-06
-9.13861e-07
2.00664e-08
3.55659e-06
-2.28279e-07
1.72329e-08
3.46705e-06
4.33867e-07
1.67263e-08
3.34821e-06
1.06821e-06
1.90978e-08
3.20167e-06
1.67561e-06
2.48557e-08
3.02721e-06
2.26347e-06
3.43312e-08
2.82174e-06
2.84632e-06
4.7459e-08
2.57887e-06
3.44606e-06
6.34711e-08
2.29034e-06
4.09047e-06
8.0509e-08
1.94995e-06
4.8059e-06
9.52859e-08
1.56084e-06
5.59513e-06
1.03316e-07
1.14327e-06
6.39099e-06
1.00483e-07
7.3516e-07
6.99937e-06
8.57938e-08
3.73414e-07
7.14207e-06
6.31994e-08
1.07326e-07
6.3014e-06
3.79966e-08
3.29182e-06
1.31587e-08
6.96624e-08
-1.53098e-06
1.78094e-08
2.3889e-07
-3.84859e-06
4.31515e-08
4.69444e-07
-5.44216e-06
6.27037e-08
7.29977e-07
-6.44839e-06
7.70856e-08
9.99415e-07
-7.0072e-06
8.66379e-08
1.2684e-06
-7.27605e-06
9.19475e-08
1.53369e-06
-7.36662e-06
9.3844e-08
1.79325e-06
-7.333e-06
9.32643e-08
2.04457e-06
-7.19716e-06
9.09951e-08
2.28446e-06
-6.96742e-06
8.75666e-08
2.50932e-06
-6.64679e-06
8.32677e-08
2.71549e-06
-6.23766e-06
7.82e-08
2.89973e-06
-5.74474e-06
7.24174e-08
3.05932e-06
-5.17633e-06
6.60316e-08
3.19214e-06
-4.54394e-06
5.91851e-08
3.2966e-06
-3.86132e-06
5.20503e-08
3.37148e-06
-3.14326e-06
4.48393e-08
3.41592e-06
-2.40473e-06
3.78074e-08
3.42938e-06
-1.66e-06
3.12173e-08
3.41182e-06
-9.21811e-07
2.53901e-08
3.36367e-06
-2.01028e-07
2.07624e-08
3.28599e-06
4.9356e-07
1.78441e-08
3.18019e-06
1.15667e-06
1.71932e-08
3.04725e-06
1.78901e-06
1.93882e-08
2.88664e-06
2.39896e-06
2.49563e-08
2.69532e-06
3.00329e-06
3.4213e-08
2.4673e-06
3.62699e-06
4.69716e-08
2.19476e-06
4.30085e-06
6.20934e-08
1.87175e-06
5.05193e-06
7.69682e-08
1.50106e-06
5.87851e-06
8.74128e-08
1.10178e-06
6.70166e-06
8.88719e-08
7.09776e-07
7.31288e-06
7.90081e-08
3.60708e-07
7.43193e-06
6.00132e-08
1.03618e-07
6.52317e-06
3.6523e-08
3.38491e-06
1.23341e-08
6.81624e-08
-1.61677e-06
1.74471e-08
2.33112e-07
-4.05656e-06
4.28206e-08
4.56697e-07
-5.72824e-06
6.2311e-08
7.07972e-07
-6.7764e-06
7.65801e-08
9.66575e-07
-7.352e-06
8.60787e-08
1.22377e-06
-7.62484e-06
9.14804e-08
1.47653e-06
-7.71315e-06
9.3663e-08
1.72282e-06
-7.67295e-06
9.35569e-08
1.96015e-06
-7.5265e-06
9.19041e-08
2.18549e-06
-7.28206e-06
8.91884e-08
2.39553e-06
-6.9426e-06
8.56701e-08
2.5871e-06
-6.51077e-06
8.14374e-08
2.75753e-06
-5.99181e-06
7.65316e-08
2.9048e-06
-5.39471e-06
7.10229e-08
3.02741e-06
-4.73165e-06
6.5e-08
3.12429e-06
-4.01688e-06
5.85683e-08
3.19463e-06
-3.26557e-06
5.18629e-08
3.23771e-06
-2.49298e-06
4.50583e-08
3.25292e-06
-1.71369e-06
3.83481e-08
3.23988e-06
-9.40891e-07
3.19886e-08
3.19851e-06
-1.86153e-07
2.635e-08
3.12923e-06
5.40808e-07
2.18899e-08
3.03277e-06
1.23384e-06
1.91381e-08
2.90959e-06
1.89336e-06
1.86759e-08
2.7589e-06
2.5284e-06
2.10963e-08
2.57776e-06
3.15738e-06
2.69076e-08
2.36063e-06
3.80769e-06
3.63112e-08
2.10033e-06
4.51229e-06
4.87691e-08
1.79149e-06
5.29837e-06
6.23946e-08
1.43691e-06
6.1596e-06
7.35757e-08
1.05485e-06
7.00622e-06
7.77511e-08
6.7921e-07
7.61733e-06
7.16844e-08
3.44168e-07
7.71173e-06
5.60293e-08
9.82442e-08
6.7357e-06
3.4577e-08
3.47343e-06
1.15081e-08
6.61616e-08
-1.70055e-06
1.74738e-08
2.25792e-07
-4.25954e-06
4.3129e-08
4.41193e-07
-6.00652e-06
6.26486e-08
6.81966e-07
-7.09417e-06
7.68318e-08
9.2861e-07
-7.68503e-06
8.62662e-08
1.17309e-06
-7.96111e-06
9.16969e-08
1.41266e-06
-8.04685e-06
9.40341e-08
1.64534e-06
-7.99994e-06
9.42138e-08
1.86871e-06
-7.84294e-06
9.29614e-08
2.07987e-06
-7.58408e-06
9.07438e-08
2.27581e-06
-7.22646e-06
8.78135e-08
2.45381e-06
-6.77313e-06
8.42606e-08
2.61173e-06
-6.22995e-06
8.01231e-08
2.7481e-06
-5.60663e-06
7.54508e-08
2.86198e-06
-4.91592e-06
7.02936e-08
2.95275e-06
-4.17245e-06
6.47018e-08
3.0199e-06
-3.39156e-06
5.87401e-08
3.06285e-06
-2.58856e-06
5.25025e-08
3.08096e-06
-1.77802e-06
4.61059e-08
3.07353e-06
-9.73327e-07
3.97297e-08
3.03999e-06
-1.86414e-07
3.36632e-08
2.98006e-06
5.723e-07
2.82953e-08
2.89375e-06
1.29589e-06
2.41084e-08
2.78088e-06
1.98442e-06
2.16649e-08
2.64025e-06
2.6473e-06
2.1577e-08
2.4689e-06
3.30414e-06
2.44428e-08
2.26169e-06
3.98409e-06
3.06896e-08
2.01218e-06
4.7215e-06
4.02131e-08
1.71577e-06
5.54298e-06
5.17679e-08
1.37572e-06
6.43732e-06
6.2417e-08
1.00976e-06
7.30452e-06
6.79095e-08
6.49929e-07
7.9131e-06
6.45421e-08
3.28684e-07
7.98201e-06
5.17361e-08
9.34542e-08
6.93974e-06
3.2367e-08
3.55796e-06
1.0686e-08
6.5142e-08
-1.78337e-06
1.74435e-08
2.21599e-07
-4.45917e-06
4.3006e-08
4.31361e-07
-6.27862e-06
6.21839e-08
6.64195e-07
-7.40313e-06
7.59786e-08
9.01291e-07
-8.0074e-06
8.51406e-08
1.13529e-06
-8.28573e-06
9.05019e-08
1.36372e-06
-8.36837e-06
9.29843e-08
1.58468e-06
-8.3145e-06
9.34854e-08
1.79582e-06
-8.14688e-06
9.26806e-08
1.99443e-06
-7.87379e-06
9.10014e-08
2.17776e-06
-7.49858e-06
8.86874e-08
2.34351e-06
-7.02481e-06
8.5831e-08
2.49004e-06
-6.45905e-06
8.24667e-08
2.61638e-06
-5.8117e-06
7.86287e-08
2.72206e-06
-5.09605e-06
7.43407e-08
2.80686e-06
-4.32697e-06
6.9616e-08
2.87052e-06
-3.51981e-06
6.44706e-08
2.91261e-06
-2.6897e-06
5.89395e-08
2.93241e-06
-1.85102e-06
5.30783e-08
2.92898e-06
-1.01703e-06
4.69983e-08
2.90132e-06
-1.99801e-07
4.09105e-08
2.84856e-06
5.89779e-07
3.51291e-08
2.7701e-06
1.34413e-06
3.00748e-08
2.66519e-06
2.06291e-06
2.62689e-08
2.5323e-06
2.75572e-06
2.43107e-08
2.36845e-06
3.44302e-06
2.48305e-08
2.16886e-06
4.15517e-06
2.83742e-08
1.92787e-06
4.92729e-06
3.51161e-08
1.64183e-06
5.78467e-06
4.43105e-08
1.31466e-06
6.71089e-06
5.36705e-08
9.63842e-07
7.59614e-06
5.94356e-08
6.19589e-07
8.20001e-06
5.77988e-08
3.12436e-07
8.24262e-06
4.73009e-08
8.83917e-08
7.13499e-06
2.99475e-08
3.63826e-06
9.84423e-09
6.33661e-08
-1.86464e-06
1.76522e-08
2.15229e-07
-4.65452e-06
4.33415e-08
4.17828e-07
-6.54367e-06
6.23122e-08
6.41372e-07
-7.70263e-06
7.57948e-08
8.67889e-07
-8.31876e-06
8.46904e-08
1.0907e-06
-8.59859e-06
8.9905e-08
1.30761e-06
-8.67779e-06
9.23902e-08
1.51679e-06
-8.61682e-06
9.30411e-08
1.71597e-06
-8.43867e-06
9.2512e-08
1.90258e-06
-8.15172e-06
9.12164e-08
2.07417e-06
-7.75966e-06
8.93878e-08
2.2288e-06
-7.26667e-06
8.71212e-08
2.36529e-06
-6.68009e-06
8.44495e-08
2.48307e-06
-6.01098e-06
8.13944e-08
2.58208e-06
-5.27312e-06
7.79559e-08
2.6624e-06
-4.48151e-06
7.41136e-08
2.72401e-06
-3.65137e-06
6.98385e-08
2.76656e-06
-2.79748e-06
6.51105e-08
2.78927e-06
-1.93378e-06
5.99258e-08
2.79096e-06
-1.07318e-06
5.43297e-08
2.77016e-06
-2.27592e-07
4.84578e-08
2.72539e-06
5.91848e-07
4.2551e-08
2.65537e-06
1.37703e-06
3.69686e-08
2.55875e-06
2.12719e-06
3.21873e-08
2.43363e-06
2.8519e-06
2.8782e-08
2.27696e-06
3.57216e-06
2.73889e-08
2.08433e-06
4.31907e-06
2.86153e-08
1.85083e-06
5.12789e-06
3.28091e-08
1.57388e-06
6.022e-06
3.95881e-08
1.25825e-06
6.97937e-06
4.72264e-08
9.21358e-07
7.88075e-06
5.25153e-08
5.91722e-07
8.4783e-06
5.17963e-08
2.97863e-07
8.49416e-06
4.30524e-08
8.40614e-08
7.3224e-06
2.75278e-08
3.71501e-06
9.03758e-09
6.2314e-08
-1.94487e-06
1.77082e-08
2.10727e-07
-4.84626e-06
4.31294e-08
4.07617e-07
-6.80226e-06
6.15404e-08
6.23564e-07
-7.99316e-06
7.44472e-08
8.41282e-07
-8.61953e-06
8.29314e-08
1.05464e-06
-8.90004e-06
8.79714e-08
1.26164e-06
-8.97541e-06
9.05044e-08
1.46053e-06
-8.9072e-06
9.13728e-08
1.64913e-06
-8.71856e-06
9.11818e-08
1.82507e-06
-8.41808e-06
9.03168e-08
1.98618e-06
-8.00988e-06
8.90034e-08
2.13087e-06
-7.49881e-06
8.73411e-08
2.25833e-06
-6.893e-06
8.53631e-08
2.36837e-06
-6.20421e-06
8.30817e-08
2.46125e-06
-5.44658e-06
8.0483e-08
2.53734e-06
-4.63523e-06
7.75245e-08
2.59682e-06
-3.78511e-06
7.41464e-08
2.63944e-06
-2.9105e-06
7.02862e-08
2.66438e-06
-2.02474e-06
6.58908e-08
2.67025e-06
-1.14011e-06
6.09447e-08
2.65518e-06
-2.68173e-07
5.55104e-08
2.61714e-06
5.79988e-07
4.97525e-08
2.55419e-06
1.39587e-06
4.39626e-08
2.46445e-06
2.17821e-06
3.85657e-08
2.34564e-06
2.93645e-06
3.41035e-08
2.19467e-06
3.69178e-06
3.12012e-08
2.00747e-06
4.47564e-06
3.04943e-08
1.77993e-06
5.32289e-06
3.244e-08
1.51055e-06
6.25442e-06
3.69161e-08
1.20503e-06
7.2423e-06
4.26551e-08
8.80867e-07
8.15813e-06
4.69903e-08
5.64955e-07
8.74808e-06
4.65684e-08
2.8382e-07
8.73693e-06
3.90909e-08
7.98948e-08
7.50225e-06
2.51863e-08
3.78833e-06
8.28656e-09
6.0777e-08
-2.02375e-06
1.78864e-08
2.05186e-07
-5.03406e-06
4.31776e-08
3.95916e-07
-7.05428e-06
6.11298e-08
6.03948e-07
-8.27484e-06
7.3521e-08
8.12727e-07
-8.91002e-06
8.15935e-08
1.01669e-06
-9.1905e-06
8.63917e-08
1.21403e-06
-9.26173e-06
8.88622e-08
1.40306e-06
-9.18618e-06
8.98247e-08
1.58171e-06
-8.98718e-06
8.98549e-08
1.74776e-06
-8.67356e-06
8.93181e-08
1.8993e-06
-8.24995e-06
8.8434e-08
2.03505e-06
-7.72197e-06
8.73038e-08
2.15451e-06
-7.09853e-06
8.59599e-08
2.25783e-06
-6.39203e-06
8.44057e-08
2.34554e-06
-5.61701e-06
8.2612e-08
2.41826e-06
-4.78857e-06
8.05172e-08
2.47637e-06
-3.92136e-06
7.80339e-08
2.51973e-06
-3.02904e-06
7.50632e-08
2.54749e-06
-2.12414e-06
7.15073e-08
2.55809e-06
-1.21814e-06
6.72956e-08
2.54927e-06
-3.21916e-07
6.24216e-08
2.51842e-06
5.53724e-07
5.69755e-08
2.4629e-06
1.40006e-06
5.1179e-08
2.38021e-06
2.21534e-06
4.54025e-08
2.26768e-06
3.00866e-06
4.01509e-08
2.12214e-06
3.80114e-06
3.60311e-08
1.93984e-06
4.62411e-06
3.36876e-08
1.71746e-06
5.51152e-06
3.36459e-08
1.45457e-06
6.4813e-06
3.59723e-08
1.15786e-06
7.49929e-06
3.97656e-08
8.45016e-07
8.42832e-06
4.28534e-08
5.41435e-07
9.00982e-06
4.22632e-08
2.71747e-07
8.9717e-06
3.56217e-08
7.64746e-08
7.67554e-06
2.30858e-08
3.85884e-06
7.64472e-09
5.97239e-08
-2.10157e-06
1.78863e-08
2.01002e-07
-5.21819e-06
4.26721e-08
3.86579e-07
-7.29988e-06
5.9858e-08
5.87839e-07
-8.54777e-06
7.15246e-08
7.88913e-07
-9.19031e-06
7.90904e-08
9.84722e-07
-9.47008e-06
8.36466e-08
1.17362e-06
-9.53684e-06
8.61013e-08
1.35398e-06
-9.45386e-06
8.72127e-08
1.52382e-06
-9.24464e-06
8.75092e-08
1.68109e-06
-8.91827e-06
8.7331e-08
1.82412e-06
-8.47997e-06
8.68915e-08
1.95189e-06
-7.93613e-06
8.62957e-08
2.06417e-06
-7.29648e-06
8.55777e-08
2.16136e-06
-6.57406e-06
8.47365e-08
2.24425e-06
-5.78373e-06
8.37352e-08
2.31368e-06
-4.94061e-06
8.2499e-08
2.37023e-06
-4.05894e-06
8.0922e-08
2.41389e-06
-3.15169e-06
7.8878e-08
2.44383e-06
-2.23043e-06
7.62318e-08
2.45836e-06
-1.30565e-06
7.28616e-08
2.45492e-06
-3.87301e-07
6.86949e-08
2.43034e-06
5.14418e-07
6.37448e-08
2.38134e-06
1.39075e-06
5.81575e-08
2.30481e-06
2.23947e-06
5.22413e-08
2.19768e-06
3.06918e-06
4.64594e-08
2.05667e-06
3.9006e-06
4.13958e-08
1.87836e-06
4.76458e-06
3.76942e-08
1.66017e-06
5.69368e-06
3.59245e-08
1.40274e-06
6.70238e-06
3.62922e-08
1.11376e-06
7.75011e-06
3.81909e-08
8.11149e-07
8.69123e-06
3.98842e-08
5.18956e-07
9.26361e-06
3.8805e-08
2.60054e-07
9.19863e-06
3.2653e-08
7.3081e-08
7.84233e-06
2.12502e-08
3.92646e-06
7.11434e-09
5.8553e-08
-2.17825e-06
1.79273e-08
1.96701e-07
-5.39879e-06
4.22722e-08
3.77367e-07
-7.53948e-06
5.87583e-08
5.72243e-07
-8.81255e-06
6.97447e-08
7.66093e-07
-9.4611e-06
7.68028e-08
9.54309e-07
-9.73948e-06
8.10665e-08
1.1354e-06
-9.80148e-06
8.34256e-08
1.30781e-06
-9.71098e-06
8.45985e-08
1.46962e-06
-9.49164e-06
8.5078e-08
1.61895e-06
-9.1529e-06
8.51836e-08
1.7543e-06
-8.70056e-06
8.51221e-08
1.8749e-06
-8.14185e-06
8.49995e-08
1.98074e-06
-7.48728e-06
8.48498e-08
2.07243e-06
-6.75052e-06
8.46674e-08
2.15097e-06
-5.94679e-06
8.44086e-08
2.21745e-06
-5.09117e-06
8.39893e-08
2.27263e-06
-4.19752e-06
8.3289e-08
2.31667e-06
-3.278e-06
8.216e-08
2.34883e-06
-2.34315e-06
8.04358e-08
2.36732e-06
-1.40222e-06
7.79501e-08
2.36929e-06
-4.63982e-07
7.4569e-08
2.35106e-06
4.62265e-07
7.02306e-08
2.30868e-06
1.36798e-06
6.50019e-08
2.23837e-06
2.2505e-06
5.9123e-08
2.13658e-06
3.11779e-06
5.30085e-08
1.99992e-06
3.9899e-06
4.72153e-08
1.82522e-06
4.89676e-06
4.23813e-08
1.61061e-06
5.86906e-06
3.91058e-08
1.35779e-06
6.91744e-06
3.77005e-08
1.07543e-06
7.9947e-06
3.77978e-08
7.81728e-07
8.94706e-06
3.80386e-08
4.99526e-07
9.50993e-06
3.62512e-08
2.50114e-07
9.41839e-06
3.02994e-08
7.03033e-08
8.0034e-06
1.97821e-08
3.99166e-06
6.73153e-09
5.77263e-08
-2.25399e-06
1.77966e-08
1.93352e-07
-5.57598e-06
4.138e-08
3.69842e-07
-7.77305e-06
5.69217e-08
5.59175e-07
-9.0691e-06
6.70743e-08
7.46687e-07
-9.72231e-06
7.35645e-08
9.28188e-07
-9.99864e-06
7.75425e-08
1.10234e-06
-1.00556e-05
7.98389e-08
1.26765e-06
-9.9575e-06
8.11057e-08
1.42231e-06
-9.7282e-06
8.17909e-08
1.56457e-06
-9.37746e-06
8.21907e-08
1.6931e-06
-8.91171e-06
8.25056e-08
1.80729e-06
-8.33898e-06
8.28443e-08
1.90728e-06
-7.67061e-06
8.32426e-08
1.99388e-06
-6.92091e-06
8.36928e-08
2.06825e-06
-6.10542e-06
8.41489e-08
2.13168e-06
-5.23922e-06
8.45225e-08
2.18513e-06
-4.33576e-06
8.46853e-08
2.22896e-06
-3.40642e-06
8.44748e-08
2.26255e-06
-2.46056e-06
8.37006e-08
2.28411e-06
-1.50606e-06
8.21582e-08
2.29059e-06
-5.50257e-07
7.96574e-08
2.27789e-06
3.98765e-07
7.60622e-08
2.24141e-06
1.33296e-06
7.13561e-08
2.17673e-06
2.24933e-06
6.57021e-08
2.07981e-06
3.15509e-06
5.94578e-08
1.94704e-06
4.06936e-06
5.31474e-08
1.77551e-06
5.02074e-06
4.74e-08
1.56401e-06
6.03761e-06
4.28367e-08
1.31522e-06
7.1263e-06
3.98541e-08
1.0388e-06
8.23285e-06
3.82824e-08
7.53275e-07
9.19565e-06
3.70868e-08
4.80414e-07
9.74868e-06
3.44643e-08
2.40092e-07
9.63085e-06
2.8495e-08
6.73761e-08
8.15848e-06
1.86503e-08
4.05415e-06
6.4814e-09
5.69074e-08
-2.32878e-06
1.76627e-08
1.90244e-07
-5.75e-06
4.05103e-08
3.63021e-07
-8.00114e-06
5.51537e-08
5.47406e-07
-9.31813e-06
6.45075e-08
7.29247e-07
-9.97471e-06
7.04304e-08
9.04743e-07
-1.02484e-05
7.40866e-08
1.0727e-06
-1.02999e-05
7.62641e-08
1.2317e-06
-1.01942e-05
7.75634e-08
1.38002e-06
-9.95503e-06
7.83943e-08
1.51603e-06
-9.5926e-06
7.90319e-08
1.6385e-06
-9.11395e-06
7.96689e-08
1.74694e-06
-8.52794e-06
8.04143e-08
1.84165e-06
-7.84673e-06
8.13048e-08
1.92356e-06
-7.08525e-06
8.23307e-08
1.99402e-06
-6.25943e-06
8.3444e-08
2.05448e-06
-5.38436e-06
8.45537e-08
2.10615e-06
-4.47308e-06
8.55273e-08
2.14957e-06
-3.53615e-06
8.61937e-08
2.18429e-06
-2.58174e-06
8.63459e-08
2.20856e-06
-1.6162e-06
8.57499e-08
2.21922e-06
-6.45214e-07
8.4167e-08
2.21176e-06
3.2469e-07
8.13923e-08
2.18099e-06
1.28626e-06
7.73238e-08
2.1218e-06
2.23631e-06
7.20393e-08
2.02963e-06
3.18126e-06
6.58288e-08
1.90061e-06
4.13904e-06
5.91757e-08
1.732e-06
5.13649e-06
5.26979e-08
1.52322e-06
6.19921e-06
4.70386e-08
1.2779e-06
7.32886e-06
4.26665e-08
1.00663e-06
8.46452e-06
3.9572e-08
7.28285e-07
9.43713e-06
3.69944e-08
4.6369e-07
9.98014e-06
3.34667e-08
2.31451e-07
9.83638e-06
2.73076e-08
6.49445e-08
8.30804e-06
1.79328e-08
4.11425e-06
6.40613e-09
5.64048e-08
-2.40278e-06
1.73744e-08
1.87918e-07
-5.92092e-06
3.92204e-08
3.57492e-07
-8.22365e-06
5.27755e-08
5.37519e-07
-9.55952e-06
6.12205e-08
7.14328e-07
-1.02182e-05
6.65404e-08
8.84443e-07
-1.04885e-05
6.98837e-08
1.04682e-06
-1.05344e-05
7.1963e-08
1.20015e-06
-1.04209e-05
7.33104e-08
1.34281e-06
-1.01721e-05
7.42933e-08
1.47321e-06
-9.79827e-06
7.51641e-08
1.59022e-06
-9.30718e-06
7.61084e-08
1.69345e-06
-8.7085e-06
7.72371e-08
1.78326e-06
-8.01523e-06
7.85892e-08
1.86071e-06
-7.24296e-06
8.0155e-08
1.9273e-06
-6.40801e-06
8.1887e-08
1.98463e-06
-5.52548e-06
8.3695e-08
2.03408e-06
-4.60808e-06
8.54465e-08
2.07642e-06
-3.66557e-06
8.69674e-08
2.11139e-06
-2.70487e-06
8.80411e-08
2.13738e-06
-1.73072e-06
8.84121e-08
2.15121e-06
-7.46961e-07
8.78009e-08
2.14809e-06
2.41734e-07
8.59382e-08
2.12231e-06
1.22926e-06
8.26351e-08
2.06814e-06
2.21245e-06
7.7876e-08
1.98043e-06
3.19694e-06
7.18724e-08
1.85502e-06
4.19923e-06
6.50564e-08
1.68927e-06
5.24405e-06
5.80281e-08
1.48315e-06
6.35373e-06
5.14502e-08
1.2412e-06
7.52485e-06
4.58614e-08
9.74879e-07
8.68941e-06
4.14043e-08
7.03391e-07
9.67117e-06
3.75519e-08
4.46747e-07
1.0204e-05
3.31126e-08
2.22447e-07
1.00346e-05
2.6651e-08
6.22729e-08
8.45158e-06
1.75891e-08
4.17157e-06
6.49114e-09
5.5875e-08
-2.47593e-06
1.70623e-08
1.85704e-07
-6.08886e-06
3.79122e-08
3.52434e-07
-8.44096e-06
5.04109e-08
5.28641e-07
-9.79385e-06
5.79761e-08
7.01071e-07
-1.04534e-05