/*--------------------------------*- C++ -*----------------------------------*\
| =========                 |                                                 |
| \\      /  F ield         | OpenFOAM: The Open Source CFD Toolbox           |
|  \\    /   O peration     | Version:  v1912                                 |
|   \\  /    A nd           | Website:  www.openfoam.com                      |
|    \\/     M anipulation  |                                                 |
\*---------------------------------------------------------------------------*/
FoamFile
{
    version     2.0;
    format      ascii;
    class       surfaceScalarField;
    location    "155/oil";
    object      phi;
}
// * * * * * * * * * * * * * * * * * * * * * * * * * * * * * * * * * * * * * //

dimensions      [1 0 -1 0 0 0 0];
oriented        oriented;


internalField   nonuniform List<scalar> 
80688
(
-1.44534e-06
-1.69179e-06
-1.45281e-06
-8.31858e-07
-4.44674e-07
-1.68806e-07
5.84462e-07
-7.59034e-07
-6.57287e-07
1.037e-07
2.01979e-07
2.78783e-07
2.78725e-07
-1.2528e-07
-4.97454e-08
2.27591e-07
-1.07159e-08
6.18492e-08
2.85142e-07
-6.34943e-08
5.94308e-09
2.93516e-07
-3.66377e-08
2.82643e-08
3.18752e-07
-4.30553e-08
1.78186e-08
3.20392e-07
-2.91314e-08
2.74921e-08
3.225e-07
-2.752e-08
2.54114e-08
3.08248e-07
-1.78068e-08
3.20588e-08
2.90735e-07
-1.47128e-08
3.2226e-08
2.64074e-07
-9.42206e-09
3.60826e-08
2.32859e-07
-6.17841e-09
3.73933e-08
2.01083e-07
-6.07819e-09
3.78544e-08
1.64131e-07
-3.07652e-09
4.00288e-08
1.34882e-07
-7.90323e-09
3.71524e-08
1.0028e-07
-5.28129e-09
3.98824e-08
7.96688e-08
-1.39993e-08
3.4611e-08
5.36525e-08
-1.17828e-08
3.77991e-08
4.43441e-08
-2.24935e-08
3.18018e-08
2.92544e-08
-2.05733e-08
3.5663e-08
2.8943e-08
-3.0494e-08
3.08053e-08
2.17803e-08
-2.82939e-08
3.54566e-08
2.40902e-08
-3.54281e-08
3.31181e-08
1.87612e-08
-3.2968e-08
3.82971e-08
1.73571e-08
-3.68566e-08
3.82607e-08
9.90154e-09
-2.97845e-08
3.72401e-08
-1.09037e-08
2.08053e-08
-2.07279e-07
-1.26543e-06
-2.19091e-07
3.53533e-07
-2.56784e-09
-1.00292e-06
-1.10579e-07
-3.94495e-07
9.95732e-08
2.51469e-07
-1.59014e-07
-1.05532e-09
2.9401e-07
-2.30825e-07
6.30042e-08
4.05188e-07
-1.85778e-07
6.38837e-08
4.68355e-07
-1.91641e-07
6.49793e-08
5.16395e-07
-1.63143e-07
7.84657e-08
5.4923e-07
-1.552e-07
7.93088e-08
5.54326e-07
-1.2796e-07
9.37332e-08
5.47512e-07
-1.17198e-07
9.64915e-08
5.15353e-07
-9.45183e-08
1.08871e-07
4.72563e-07
-8.40819e-08
1.12159e-07
4.14287e-07
-7.07469e-08
1.19601e-07
3.4778e-07
-6.21238e-08
1.22453e-07
2.79553e-07
-6.11074e-08
1.23257e-07
2.0619e-07
-5.49883e-08
1.25275e-07
1.44873e-07
-6.61625e-08
1.19576e-07
8.15536e-08
-6.2714e-08
1.20752e-07
4.03442e-08
-8.30614e-08
1.10271e-07
-7.94442e-10
-8.16493e-08
1.11005e-07
-1.69111e-08
-1.05611e-07
9.92341e-08
-3.37417e-08
-1.04358e-07
1.00616e-07
-2.85846e-08
-1.25853e-07
9.02024e-08
-2.80602e-08
-1.21663e-07
9.2845e-08
-1.46421e-08
-1.34958e-07
8.61121e-08
-9.527e-09
-1.28046e-07
8.99632e-08
-9.00716e-10
-1.33341e-07
8.78578e-08
1.0337e-09
-1.13759e-07
8.20396e-08
-5.49895e-08
4.51195e-08
-6.94439e-07
1.3668e-07
-7.07667e-07
-1.03415e-07
-6.75231e-07
8.16394e-08
1.2102e-07
-4.58434e-07
-1.60497e-07
2.38552e-07
-3.9403e-07
1.17484e-07
3.82094e-07
-4.01088e-07
2.67193e-08
4.49776e-07
-3.51001e-07
9.75409e-08
5.3494e-07
-3.53693e-07
7.6888e-08
5.7612e-07
-3.08665e-07
1.04342e-07
6.14602e-07
-2.96411e-07
1.0273e-07
6.16466e-07
-2.51679e-07
1.21854e-07
6.07447e-07
-2.33767e-07
1.25588e-07
5.68361e-07
-1.96182e-07
1.40749e-07
5.17311e-07
-1.78566e-07
1.45535e-07
4.48257e-07
-1.56242e-07
1.54549e-07
3.69947e-07
-1.42315e-07
1.585e-07
2.89773e-07
-1.40319e-07
1.59387e-07
2.04637e-07
-1.31583e-07
1.6173e-07
1.33537e-07
-1.49705e-07
1.54643e-07
6.17562e-08
-1.46187e-07
1.55254e-07
1.54749e-08
-1.79201e-07
1.42421e-07
-2.92136e-08
-1.79128e-07
1.42167e-07
-4.46485e-08
-2.17577e-07
1.27401e-07
-5.99353e-08
-2.1681e-07
1.27738e-07
-5.06531e-08
-2.49579e-07
1.14443e-07
-4.58456e-08
-2.41953e-07
1.15482e-07
-2.70938e-08
-2.59361e-07
1.05651e-07
-1.75015e-08
-2.45318e-07
1.07679e-07
-4.99374e-09
-2.4952e-07
1.03672e-07
-2.98069e-10
-2.1446e-07
9.60062e-08
-1.06965e-07
5.16779e-08
2.77958e-07
-4.0554e-07
2.64262e-07
1.55619e-07
-5.55063e-07
2.17096e-09
2.1021e-07
-6.3818e-07
1.25155e-07
3.29546e-07
-5.85103e-07
7.1738e-08
4.25419e-07
-5.99919e-07
1.02958e-07
5.24976e-07
-5.62803e-07
1.12246e-07
6.0562e-07
-5.58125e-07
1.23788e-07
6.59803e-07
-5.08019e-07
1.45171e-07
6.97076e-07
-4.87447e-07
1.53763e-07
6.97033e-07
-4.29344e-07
1.77709e-07
6.79359e-07
-4.02638e-07
1.86545e-07
6.26897e-07
-3.51291e-07
2.0757e-07
5.58715e-07
-3.2568e-07
2.15295e-07
4.69223e-07
-2.94606e-07
2.27857e-07
3.69126e-07
-2.74962e-07
2.32744e-07
2.67549e-07
-2.72244e-07
2.33501e-07
1.61853e-07
-2.60748e-07
2.34862e-07
7.42721e-08
-2.86246e-07
2.24121e-07
-1.14217e-08
-2.82549e-07
2.22055e-07
-6.53316e-08
-3.28275e-07
2.02984e-07
-1.14719e-07
-3.28927e-07
1.99187e-07
-1.28401e-07
-3.81105e-07
1.77209e-07
-1.39732e-07
-3.79251e-07
1.73772e-07
-1.21625e-07
-4.21305e-07
1.53619e-07
-1.06917e-07
-4.07483e-07
1.50823e-07
-7.53861e-08
-4.25815e-07
1.34923e-07
-5.30118e-08
-4.01125e-07
1.33433e-07
-2.7208e-08
-4.00934e-07
1.2561e-07
-1.04396e-08
-3.46458e-07
1.1523e-07
-1.80743e-07
6.33383e-08
-2.42162e-08
-3.42672e-07
-3.86525e-08
1.06426e-07
-7.62195e-07
7.64893e-08
2.18199e-07
-7.88164e-07
3.82106e-08
3.34397e-07
-8.02384e-07
1.01083e-07
4.51875e-07
-8.04814e-07
8.74168e-08
5.40799e-07
-7.76642e-07
1.24914e-07
6.28743e-07
-7.71673e-07
1.25604e-07
6.78766e-07
-7.12152e-07
1.5411e-07
7.19057e-07
-6.87538e-07
1.598e-07
7.17086e-07
-6.13692e-07
1.86319e-07
6.99728e-07
-5.79842e-07
1.94561e-07
6.44615e-07
-5.133e-07
2.17122e-07
5.73974e-07
-4.80399e-07
2.2536e-07
4.8044e-07
-4.39872e-07
2.388e-07
3.75812e-07
-4.15144e-07
2.4481e-07
2.69898e-07
-4.1186e-07
2.4553e-07
1.59258e-07
-3.98396e-07
2.48288e-07
6.86111e-08
-4.32178e-07
2.36579e-07
-2.06472e-08
-4.2908e-07
2.35789e-07
-7.53046e-08
-4.88653e-07
2.15035e-07
-1.25964e-07
-4.90737e-07
2.12468e-07
-1.38337e-07
-5.57367e-07
1.88636e-07
-1.49148e-07
-5.54623e-07
1.86182e-07
-1.28612e-07
-6.05969e-07
1.64129e-07
-1.12352e-07
-5.85306e-07
1.61563e-07
-7.79917e-08
-6.03665e-07
1.43489e-07
-5.35263e-08
-5.6703e-07
1.41441e-07
-2.54601e-08
-5.61118e-07
1.32117e-07
-8.04036e-09
-4.84574e-07
1.20696e-07
-2.5325e-07
6.44663e-08
1.07437e-07
-5.42251e-07
9.21421e-08
1.78665e-07
-9.30219e-07
9.67965e-08
3.03656e-07
-1.03817e-06
1.25016e-07
4.19107e-07
-1.04105e-06
1.23218e-07
5.42539e-07
-1.06806e-06
1.39817e-07
6.4456e-07
-1.04347e-06
1.6481e-07
7.40216e-07
-1.04664e-06
1.79311e-07
7.97285e-07
-9.82919e-07
2.13698e-07
8.38866e-07
-9.5713e-07
2.2801e-07
8.31425e-07
-8.72212e-07
2.65961e-07
8.03338e-07
-8.32748e-07
2.80994e-07
7.29203e-07
-7.53853e-07
3.14688e-07
6.3557e-07
-7.14341e-07
3.27576e-07
5.13783e-07
-6.65732e-07
3.47647e-07
3.79444e-07
-6.36028e-07
3.55223e-07
2.44299e-07
-6.3246e-07
3.55745e-07
1.05477e-07
-6.16579e-07
3.57005e-07
-7.52069e-09
-6.57757e-07
3.38577e-07
-1.15789e-07
-6.54299e-07
3.33488e-07
-1.8037e-07
-7.25536e-07
3.01464e-07
-2.37612e-07
-7.2675e-07
2.93255e-07
-2.47604e-07
-8.04297e-07
2.56921e-07
-2.5372e-07
-7.97293e-07
2.48787e-07
-2.21785e-07
-8.53461e-07
2.15557e-07
-1.93154e-07
-8.21931e-07
2.07994e-07
-1.42287e-07
-8.35812e-07
1.8128e-07
-1.01296e-07
-7.83679e-07
1.75658e-07
-5.53067e-08
-7.68867e-07
1.61759e-07
-2.13209e-08
-6.66111e-07
1.47551e-07
-3.55733e-07
8.11625e-08
5.51802e-08
-6.36238e-07
3.88068e-08
1.70066e-07
-1.14219e-06
9.70831e-08
2.95838e-07
-1.26394e-06
9.99939e-08
4.19001e-07
-1.28953e-06
1.2531e-07
5.45899e-07
-1.32546e-06
1.30497e-07
6.47181e-07
-1.31026e-06
1.65504e-07
7.46429e-07
-1.32146e-06
1.75568e-07
8.03743e-07
-1.25424e-06
2.14013e-07
8.49609e-07
-1.22914e-06
2.26142e-07
8.43572e-07
-1.13278e-06
2.66607e-07
8.19028e-07
-1.08901e-06
2.80807e-07
7.45716e-07
-9.97138e-07
3.16597e-07
6.53365e-07
-9.52011e-07
3.30021e-07
5.31125e-07
-8.94931e-07
3.51438e-07
3.95631e-07
-8.61313e-07
3.60779e-07
2.59575e-07
-8.57635e-07
3.61231e-07
1.18518e-07
-8.40514e-07
3.64993e-07
5.29963e-09
-8.89584e-07
3.45044e-07
-1.04626e-07
-8.86787e-07
3.42414e-07
-1.67996e-07
-9.70039e-07
3.07874e-07
-2.26061e-07
-9.70852e-07
3.02168e-07
-2.34356e-07
-1.05907e-06
2.63065e-07
-2.4131e-07
-1.04737e-06
2.57033e-07
-2.08588e-07
-1.10733e-06
2.21152e-07
-1.81493e-07
-1.06372e-06
2.14691e-07
-1.30946e-07
-1.07182e-06
1.85463e-07
-9.16638e-08
-1.00329e-06
1.80329e-07
-4.67703e-08
-9.79561e-07
1.65801e-07
-1.55575e-08
-8.49432e-07
1.52109e-07
-4.52669e-07
8.1378e-08
9.16208e-08
-8.01726e-07
7.38669e-08
2.17112e-07
-1.39365e-06
1.2597e-07
3.69147e-07
-1.55826e-06
1.42291e-07
5.07322e-07
-1.58857e-06
1.60866e-07
6.54333e-07
-1.6506e-06
1.7813e-07
7.71123e-07
-1.64885e-06
2.21803e-07
8.8593e-07
-1.68017e-06
2.43906e-07
9.51973e-07
-1.62001e-06
2.99718e-07
1.00327e-06
-1.60472e-06
3.24279e-07
9.91477e-07
-1.50717e-06
3.86178e-07
9.55631e-07
-1.46555e-06
4.12383e-07
8.58513e-07
-1.36824e-06
4.68219e-07
7.37267e-07
-1.32136e-06
4.90592e-07
5.78202e-07
-1.2599e-06
5.24031e-07
4.04096e-07
-1.2237e-06
5.36495e-07
2.30123e-07
-1.22032e-06
5.36654e-07
5.25323e-08
-1.20047e-06
5.37543e-07
-8.81919e-08
-1.25427e-06
5.0541e-07
-2.21881e-07
-1.24781e-06
4.94716e-07
-2.95937e-07
-1.33622e-06
4.40239e-07
-3.6063e-07
-1.32993e-06
4.23771e-07
-3.63918e-07
-1.41905e-06
3.63268e-07
-3.63929e-07
-1.39402e-06
3.46657e-07
-3.16476e-07
-1.44685e-06
2.92067e-07
-2.74764e-07
-1.38211e-06
2.76677e-07
-2.05018e-07
-1.37508e-06
2.33508e-07
-1.47094e-07
-1.2838e-06
2.22589e-07
-8.14977e-08
-1.2468e-06
2.01646e-07
-3.10868e-08
-1.08531e-06
1.85471e-07
-5.86506e-07
1.02751e-07
7.67613e-08
-9.36024e-07
5.75369e-08
2.06364e-07
-1.6409e-06
1.17647e-07
3.53409e-07
-1.83357e-06
1.28263e-07
4.9045e-07
-1.87956e-06
1.53952e-07
6.34574e-07
-1.96451e-06
1.69785e-07
7.49319e-07
-1.9837e-06
2.20106e-07
8.66047e-07
-2.03873e-06
2.4183e-07
9.3437e-07
-1.99081e-06
3.02483e-07
9.92505e-07
-1.98918e-06
3.26334e-07
9.86081e-07
-1.89323e-06
3.92491e-07
9.58331e-07
-1.85627e-06
4.18473e-07
8.66501e-07
-1.75459e-06
4.78185e-07
7.51222e-07
-1.70766e-06
5.01582e-07
5.9608e-07
-1.6423e-06
5.37546e-07
4.25144e-07
-1.60538e-06
5.52613e-07
2.54797e-07
-1.60271e-06
5.52736e-07
7.88385e-08
-1.58182e-06
5.57312e-07
-5.74899e-08
-1.64018e-06
5.22235e-07
-1.89588e-07
-1.63094e-06
5.15225e-07
-2.58603e-07
-1.72333e-06
4.56127e-07
-3.22084e-07
-1.70918e-06
4.4273e-07
-3.22241e-07
-1.7961e-06
3.77215e-07
-3.24005e-07
-1.75483e-06
3.62577e-07
-2.78162e-07
-1.79575e-06
3.03056e-07
-2.42548e-07
-1.7054e-06
2.87678e-07
-1.78186e-07
-1.6789e-06
2.39466e-07
-1.27308e-07
-1.56241e-06
2.2773e-07
-6.6824e-08
-1.51262e-06
2.05333e-07
-2.2661e-08
-1.31988e-06
1.90402e-07
-7.12317e-07
1.03149e-07
9.91951e-08
-1.11344e-06
7.82217e-08
2.49831e-07
-1.93806e-06
1.46523e-07
4.21674e-07
-2.16863e-06
1.63214e-07
5.76526e-07
-2.23227e-06
1.97854e-07
7.41295e-07
-2.35652e-06
2.2724e-07
8.72345e-07
-2.41368e-06
2.98925e-07
1.00843e-06
-2.51327e-06
3.38461e-07
1.08924e-06
-2.49994e-06
4.28312e-07
1.15843e-06
-2.53106e-06
4.7268e-07
1.14973e-06
-2.45766e-06
5.73132e-07
1.11313e-06
-2.44e-06
6.20327e-07
9.96025e-07
-2.34987e-06
7.12381e-07
8.48558e-07
-2.31235e-06
7.5216e-07
6.50577e-07
-2.25225e-06
8.07932e-07
4.3484e-07
-2.21841e-06
8.28765e-07
2.20522e-07
-2.21705e-06
8.28663e-07
3.46841e-09
-2.19264e-06
8.27875e-07
-1.63504e-07
-2.24691e-06
7.7371e-07
-3.19601e-07
-2.22617e-06
7.51328e-07
-3.96713e-07
-2.30696e-06
6.60741e-07
-4.63411e-07
-2.27054e-06
6.28063e-07
-4.53955e-07
-2.3348e-06
5.29242e-07
-4.46012e-07
-2.25894e-06
4.96165e-07
-3.83885e-07
-2.26578e-06
4.07902e-07
-3.34969e-07
-2.13107e-06
3.7675e-07
-2.5327e-07
-2.067e-06
3.06399e-07
-1.8584e-07
-1.91303e-06
2.83189e-07
-1.04235e-07
-1.84387e-06
2.49648e-07
-3.94242e-08
-1.61524e-06
2.30552e-07
-8.80481e-07
1.2874e-07
8.96186e-08
-1.27002e-06
6.69566e-08
2.3343e-07
-2.2196e-06
1.37735e-07
3.93964e-07
-2.48391e-06
1.54754e-07
5.3435e-07
-2.56961e-06
1.96959e-07
6.85288e-07
-2.74022e-06
2.32762e-07
8.05979e-07
-2.84945e-06
3.15079e-07
9.40326e-07
-3.00696e-06
3.59337e-07
1.02463e-06
-3.042e-06
4.57762e-07
1.10507e-06
-3.11617e-06
5.04667e-07
1.10826e-06
-3.07411e-06
6.13259e-07
1.08708e-06
-3.08139e-06
6.62574e-07
9.82406e-07
-3.00748e-06
7.62281e-07
8.4822e-07
-2.9828e-06
8.04629e-07
6.61249e-07
-2.93076e-06
8.65484e-07
4.56152e-07
-2.90317e-06
8.89855e-07
2.53473e-07
-2.90439e-06
8.90018e-07
4.52992e-08
-2.87812e-06
8.93651e-07
-1.08505e-07
-2.9272e-06
8.34092e-07
-2.55591e-07
-2.89456e-06
8.15479e-07
-3.203e-07
-2.95914e-06
7.16881e-07
-3.80346e-07
-2.89663e-06
6.86131e-07
-3.64654e-07
-2.92934e-06
5.78842e-07
-3.59469e-07
-2.80984e-06
5.45711e-07
-3.04339e-07
-2.76974e-06
4.48832e-07
-2.71497e-07
-2.57787e-06
4.13966e-07
-2.07054e-07
-2.46456e-06
3.33115e-07
-1.57667e-07
-2.26552e-06
3.03107e-07
-8.71448e-08
-2.17735e-06
2.62957e-07
-3.09892e-08
-1.91335e-06
2.41956e-07
-1.04401e-06
1.32539e-07
1.08474e-07
-1.46253e-06
8.40412e-08
2.70224e-07
-2.55019e-06
1.68833e-07
4.44709e-07
-2.85622e-06
1.97822e-07
5.88176e-07
-2.97525e-06
2.6217e-07
7.44994e-07
-3.21945e-06
3.22416e-07
8.72363e-07
-3.41573e-06
4.38913e-07
1.02392e-06
-3.66942e-06
5.10906e-07
1.12513e-06
-3.79386e-06
6.50644e-07
1.22555e-06
-3.94637e-06
7.29783e-07
1.23677e-06
-3.97254e-06
8.87214e-07
1.21674e-06
-4.03293e-06
9.71561e-07
1.09439e-06
-4.00376e-06
1.11864e-06
9.33732e-07
-4.01135e-06
1.18921e-06
7.08213e-07
-3.98486e-06
1.27962e-06
4.63218e-07
-3.97231e-06
1.31414e-06
2.22393e-07
-3.97798e-06
1.31442e-06
-2.08776e-08
-3.94416e-06
1.30931e-06
-1.96913e-07
-3.97258e-06
1.22141e-06
-3.58633e-07
-3.90967e-06
1.17683e-06
-4.20567e-07
-3.93e-06
1.0328e-06
-4.73853e-07
-3.81367e-06
9.70325e-07
-4.40907e-07
-3.77882e-06
8.16539e-07
-4.23677e-07
-3.5817e-06
7.54636e-07
-3.56707e-07
-3.45505e-06
6.18339e-07
-3.22841e-07
-3.17006e-06
5.58322e-07
-2.57384e-07
-2.9739e-06
4.43888e-07
-2.07465e-07
-2.70585e-06
3.90403e-07
-1.23923e-07
-2.58843e-06
3.27536e-07
-4.88497e-08
-2.28238e-06
2.93952e-07
-1.2559e-06
1.63046e-07
1.04026e-07
-1.64493e-06
7.83767e-08
2.50927e-07
-2.8716e-06
1.74515e-07
3.96518e-07
-3.22052e-06
2.18703e-07
4.96828e-07
-3.38157e-06
3.06009e-07
6.13653e-07
-3.72512e-06
3.88841e-07
7.12932e-07
-4.04204e-06
5.27032e-07
8.56782e-07
-4.42636e-06
6.13098e-07
9.6568e-07
-4.67172e-06
7.68965e-07
1.08767e-06
-4.92793e-06
8.59571e-07
1.12454e-06
-5.04402e-06
1.03461e-06
1.13357e-06
-5.173e-06
1.13104e-06
1.03635e-06
-5.2024e-06
1.29586e-06
9.00745e-07
-5.25234e-06
1.37659e-06
6.98326e-07
-5.26115e-06
1.4787e-06
4.77968e-07
-5.27141e-06
1.51946e-06
2.64037e-07
-5.28475e-06
1.52071e-06
4.57727e-08
-5.24284e-06
1.51694e-06
-1.02042e-07
-5.24339e-06
1.41862e-06
-2.39197e-07
-5.14313e-06
1.37061e-06
-2.74301e-07
-5.10539e-06
1.21049e-06
-3.08218e-07
-4.92139e-06
1.14164e-06
-2.60871e-07
-4.79852e-06
9.72355e-07
-2.44893e-07
-4.50089e-06
9.03214e-07
-1.93832e-07
-4.2588e-06
7.52683e-07
-1.95939e-07
-3.8491e-06
6.81147e-07
-1.75429e-07
-3.54017e-06
5.45758e-07
-1.71125e-07
-3.17954e-06
4.69393e-07
-1.13449e-07
-3.02887e-06
3.82771e-07
-4.86439e-08
-2.67856e-06
3.31376e-07
-1.48358e-06
1.79032e-07
1.21736e-07
-1.86213e-06
9.54594e-08
2.68076e-07
-3.24029e-06
2.22349e-07
3.91783e-07
-3.64671e-06
3.0249e-07
4.49018e-07
-3.87728e-06
4.38475e-07
5.32004e-07
-4.37639e-06
5.68287e-07
6.13818e-07
-4.88132e-06
7.57462e-07
7.67853e-07
-5.46532e-06
8.84924e-07
9.0106e-07
-5.90029e-06
1.09536e-06
1.0592e-06
-6.32168e-06
1.2356e-06
1.1257e-06
-6.58834e-06
1.47782e-06
1.15785e-06
-6.83664e-06
1.6315e-06
1.06506e-06
-6.97304e-06
1.86342e-06
9.23922e-07
-7.1033e-06
1.99211e-06
7.06729e-07
-7.18021e-06
2.13625e-06
4.74408e-07
-7.23325e-06
2.19416e-06
2.52739e-07
-7.25892e-06
2.19584e-06
2.91778e-08
-7.1955e-06
2.17622e-06
-1.14193e-07
-7.13782e-06
2.0378e-06
-2.39871e-07
-6.96298e-06
1.94552e-06
-2.49202e-07
-6.81832e-06
1.72227e-06
-2.55858e-07
-6.51653e-06
1.6018e-06
-1.782e-07
-6.24654e-06
1.37036e-06
-1.4616e-07
-5.79104e-06
1.25811e-06
-9.37522e-08
-5.36899e-06
1.05779e-06
-1.21761e-07
-4.77098e-06
9.49886e-07
-1.41851e-07
-4.28613e-06
7.66046e-07
-1.83084e-07
-3.78193e-06
6.43616e-07
-1.44323e-07
-3.57477e-06
5.07136e-07
-7.28605e-08
-3.16659e-06
4.16564e-07
-1.77707e-06
2.20631e-07
1.31287e-07
-2.09974e-06
1.06321e-07
2.37725e-07
-3.62047e-06
2.7374e-07
2.84667e-07
-4.1007e-06
4.07046e-07
2.43348e-07
-4.43815e-06
6.02195e-07
2.46568e-07
-5.16442e-06
7.84812e-07
2.83593e-07
-5.93459e-06
1.01625e-06
4.31901e-07
-6.78987e-06
1.17624e-06
5.88805e-07
-7.47833e-06
1.42114e-06
7.90224e-07
-8.12242e-06
1.59933e-06
9.06829e-07
-8.59158e-06
1.88664e-06
9.88271e-07
-9.00354e-06
2.08545e-06
9.36745e-07
-9.28541e-06
2.3639e-06
8.32802e-07
-9.52921e-06
2.52985e-06
6.53703e-07
-9.70403e-06
2.70293e-06
4.67914e-07
-9.82349e-06
2.77603e-06
3.0001e-07
-9.86861e-06
2.7776e-06
1.27272e-07
-9.76849e-06
2.74574e-06
3.3631e-08
-9.62347e-06
2.57929e-06
-4.49077e-08
-9.3391e-06
2.45467e-06
-7.87545e-09
-9.04553e-06
2.19017e-06
2.80771e-08
-8.58415e-06
2.03166e-06
1.3626e-07
-8.11776e-06
1.76304e-06
1.78515e-07
-7.45388e-06
1.62058e-06
2.13613e-07
-6.79666e-06
1.39257e-06
1.3128e-07
-5.94811e-06
1.25946e-06
2.64441e-08
-5.21924e-06
1.03795e-06
-1.12836e-07
-4.5064e-06
8.63752e-07
-1.43345e-07
-4.21188e-06
6.67616e-07
-9.78359e-08
-3.73177e-06
5.19674e-07
-2.14119e-06
2.66284e-07
1.44621e-07
-2.36775e-06
1.23388e-07
1.80391e-07
-4.00433e-06
3.4809e-07
1.18912e-07
-4.59413e-06
5.54912e-07
-3.60057e-08
-5.11845e-06
8.35209e-07
-1.07178e-07
-6.1875e-06
1.09425e-06
-1.00045e-07
-7.34102e-06
1.3993e-06
5.94623e-08
-8.56903e-06
1.61966e-06
2.53863e-07
-9.61427e-06
1.94153e-06
5.1172e-07
-1.05812e-05
2.20091e-06
6.865e-07
-1.13529e-05
2.58651e-06
8.20346e-07
-1.20166e-05
2.87921e-06
8.0308e-07
-1.25215e-05
3.25335e-06
7.24253e-07
-1.29458e-05
3.49541e-06
5.71927e-07
-1.32755e-05
3.72378e-06
4.31756e-07
-1.35039e-05
3.82055e-06
3.22079e-07
-1.35769e-05
3.81798e-06
2.01883e-07
-1.3405e-05
3.75672e-06
1.57472e-07
-1.311e-05
3.53096e-06
1.26442e-07
-1.264e-05
3.33194e-06
2.18826e-07
-1.21136e-05
2.97564e-06
3.02896e-07
-1.14007e-05
2.73252e-06
4.55939e-07
-1.06452e-05
2.37444e-06
5.20576e-07
-9.68202e-06
2.1635e-06
5.55274e-07
-8.70124e-06
1.86988e-06
4.34957e-07
-7.51555e-06
1.68775e-06
2.5468e-07
-6.44116e-06
1.4022e-06
5.61107e-09
-5.41527e-06
1.15794e-06
-1.25686e-07
-4.96054e-06
8.79961e-07
-1.35126e-07
-4.37935e-06
6.57022e-07
-2.60306e-06
3.2674e-07
1.62318e-07
-2.6792e-06
1.49134e-07
5.59533e-08
-4.32125e-06
4.23284e-07
-1.69015e-07
-5.06605e-06
6.96884e-07
-4.49853e-07
-5.89354e-06
1.05594e-06
-5.83371e-07
-7.44595e-06
1.39197e-06
-5.90146e-07
-9.09889e-06
1.76465e-06
-4.17669e-07
-1.07875e-05
2.04601e-06
-1.8681e-07
-1.22825e-05
2.43742e-06
1.28775e-07
-1.36748e-05
2.77805e-06
3.7369e-07
-1.48464e-05
3.24862e-06
5.70146e-07
-1.5844e-05
3.63095e-06
5.97369e-07
-1.66335e-05
4.0848e-06
5.49135e-07
-1.72933e-05
4.3957e-06
4.35943e-07
-1.78269e-05
4.66456e-06
3.67633e-07
-1.82125e-05
4.77699e-06
3.51266e-07
-1.83234e-05
4.76289e-06
3.09678e-07
-1.80343e-05
4.67087e-06
3.2735e-07
-1.75192e-05
4.39154e-06
3.52001e-07
-1.67856e-05
4.12091e-06
5.00236e-07
-1.59485e-05
3.68669e-06
6.34767e-07
-1.48976e-05
3.36232e-06
8.24811e-07
-1.37661e-05
2.93087e-06
9.06069e-07
-1.24165e-05
2.6532e-06
9.40108e-07
-1.10416e-05
2.30634e-06
8.0207e-07
-9.45752e-06
2.08001e-06
5.68154e-07
-7.95072e-06
1.74348e-06
2.0836e-07
-6.49138e-06
1.43591e-06
-6.74606e-08
-5.77472e-06
1.09e-06
-1.94073e-07
-5.06143e-06
8.08688e-07
-3.20723e-06
4.10097e-07
1.3616e-07
-2.94993e-06
1.34578e-07
-2.25794e-07
-4.357e-06
3.9771e-07
-6.55659e-07
-5.30427e-06
6.68086e-07
-1.03023e-06
-6.58582e-06
1.06685e-06
-1.18837e-06
-8.75988e-06
1.47207e-06
-1.20388e-06
-1.10136e-05
1.93019e-06
-1.04723e-06
-1.32296e-05
2.28541e-06
-8.149e-07
-1.52733e-05
2.75849e-06
-4.57996e-07
-1.72007e-05
3.169e-06
-1.41037e-07
-1.88709e-05
3.70752e-06
1.34034e-07
-2.02667e-05
4.1477e-06
2.24373e-07
-2.13765e-05
4.65267e-06
2.27955e-07
-2.22978e-05
5.00102e-06
1.84375e-07
-2.30632e-05
5.27992e-06
2.42491e-07
-2.36515e-05
5.3809e-06
3.83351e-07
-2.38073e-05
5.34305e-06
4.69955e-07
-2.33518e-05
5.23096e-06
5.80424e-07
-2.25444e-05
4.91469e-06
6.81384e-07
-2.14834e-05
4.59691e-06
8.98339e-07
-2.02715e-05
4.10608e-06
1.08373e-06
-1.88119e-05
3.72894e-06
1.29704e-06
-1.72197e-05
3.24023e-06
1.36632e-06
-1.53974e-05
2.91168e-06
1.37745e-06
-1.35591e-05
2.50639e-06
1.23383e-06
-1.15453e-05
2.23137e-06
9.95424e-07
-9.54942e-06
1.8371e-06
5.71795e-07
-7.55747e-06
1.48973e-06
1.17023e-07
-6.45277e-06
1.13283e-06
-2.31354e-07
-5.58993e-06
8.7689e-07
-3.90981e-06
4.7123e-07
1.5376e-07
-3.27072e-06
1.67038e-07
-5.0305e-07
-4.08084e-06
3.80652e-07
-1.11261e-06
-5.22589e-06
5.31193e-07
-1.51563e-06
-7.04335e-06
8.60562e-07
-1.67984e-06
-9.87964e-06
1.28399e-06
-1.73596e-06
-1.2757e-05
1.79963e-06
-1.65374e-06
-1.55124e-05
2.20069e-06
-1.46016e-06
-1.81483e-05
2.68147e-06
-1.07903e-06
-2.06467e-05
3.06494e-06
-6.79831e-07
-2.28138e-05
3.54379e-06
-3.12243e-07
-2.45568e-05
3.92259e-06
-1.51868e-07
-2.59e-05
4.36316e-06
-1.15493e-07
-2.69951e-05
4.66094e-06
-1.20045e-07
-2.79331e-05
4.87463e-06
4.73276e-08
-2.87303e-05
4.91147e-06
3.36171e-07
-2.89296e-05
4.8335e-06
5.27569e-07
-2.82818e-05
4.73865e-06
7.00095e-07
-2.71629e-05
4.4461e-06
8.55629e-07
-2.58064e-05
4.16748e-06
1.12982e-06
-2.42742e-05
3.72862e-06
1.36157e-06
-2.24598e-05
3.41618e-06
1.58517e-06
-2.04398e-05
2.99658e-06
1.62055e-06
-1.81527e-05
2.7199e-06
1.57444e-06
-1.58547e-05
2.34171e-06
1.41342e-06
-1.34459e-05
2.06174e-06
1.2035e-06
-1.10008e-05
1.66131e-06
7.98505e-07
-8.50131e-06
1.34885e-06
2.14629e-07
-6.97956e-06
1.11068e-06
-3.56135e-07
-6.01968e-06
1.00053e-06
-4.87109e-06
6.05159e-07
2.88687e-07
-3.8778e-06
3.18417e-07
-6.46724e-07
-3.80305e-06
6.57649e-07
-1.50618e-06
-4.98992e-06
6.23516e-07
-2.08468e-06
-7.19029e-06
7.25497e-07
-2.47989e-06
-1.05042e-05
1.01983e-06
-2.80205e-06
-1.38957e-05
1.46092e-06
-2.9542e-06
-1.71177e-05
1.75751e-06
-2.88709e-06
-2.0258e-05
2.04272e-06
-2.50809e-06
-2.3177e-05
2.15145e-06
-1.99406e-06
-2.56394e-05
2.31174e-06
-1.44313e-06
-2.74798e-05
2.3722e-06
-1.07604e-06
-2.87946e-05
2.5278e-06
-8.51062e-07
-2.98159e-05
2.59606e-06
-6.58618e-07
-3.07428e-05
2.61742e-06
-2.29264e-07
-3.16774e-05
2.51804e-06
3.39193e-07
-3.1893e-05
2.39517e-06
7.54177e-07
-3.10839e-05
2.38728e-06
1.09634e-06
-2.97434e-05
2.23855e-06
1.39593e-06
-2.82865e-05
2.18076e-06
1.7936e-06
-2.66856e-05
2.01388e-06
2.10288e-06
-2.47941e-05
2.02526e-06
2.33171e-06
-2.26108e-05
1.94234e-06
2.28268e-06
-2.00867e-05
1.98327e-06
2.06573e-06
-1.74988e-05
1.8612e-06
1.70162e-06
-1.48447e-05
1.76297e-06
1.3094e-06
-1.21326e-05
1.52414e-06
7.79754e-07
-9.40022e-06
1.42864e-06
1.92277e-08
-7.69151e-06
1.47253e-06
-6.80725e-07
-6.85122e-06
1.53155e-06
-6.46088e-06
9.09116e-07
1.25855e-06
-6.45272e-06
1.31648e-06
4.47188e-07
-5.39853e-06
2.40694e-06
-7.9598e-07
-6.13661e-06
2.38996e-06
-1.8802e-06
-8.24172e-06
2.13577e-06
-2.86147e-06
-1.15122e-05
1.98947e-06
-3.69398e-06
-1.50413e-05
1.97828e-06
-4.21291e-06
-1.84267e-05
1.82825e-06
-4.33973e-06
-2.17098e-05
1.57883e-06
-4.00914e-06
-2.46104e-05
1.10308e-06
-3.38814e-06
-2.69112e-05
6.51121e-07
-2.6211e-06
-2.83824e-05
1.35975e-07
-1.97862e-06
-2.92219e-05
-2.14858e-07
-1.51845e-06
-2.97333e-05
-5.42327e-07
-1.1356e-06
-3.03043e-05
-8.20986e-07
-5.39676e-07
-3.1174e-05
-1.09903e-06
1.44787e-07
-3.13158e-05
-1.26126e-06
6.42661e-07
-3.04597e-05
-1.12169e-06
1.06866e-06
-2.91533e-05
-1.01572e-06
1.46469e-06
-2.80132e-05
-6.68973e-07
1.96381e-06
-2.68598e-05
-3.24535e-07
2.33425e-06
-2.54534e-05
2.89181e-07
2.54209e-06
-2.36727e-05
8.54328e-07
2.37305e-06
-2.14524e-05
1.53497e-06
1.89762e-06
-1.90397e-05
2.01661e-06
1.14457e-06
-1.65423e-05
2.45089e-06
2.75427e-07
-1.40023e-05
2.73912e-06
-6.38298e-07
-1.16296e-05
3.14336e-06
-1.59561e-06
-1.02689e-05
3.53494e-06
-1.9006e-06
-1.00647e-05
3.51865e-06
-1.0406e-05
2.04472e-06
3.23259e-06
-1.30172e-05
3.33236e-06
3.13034e-06
-1.08941e-05
5.5982e-06
1.42574e-06
-1.02935e-05
5.86184e-06
-5.12111e-07
-1.15879e-05
5.28441e-06
-2.47804e-06
-1.3994e-05
4.44814e-06
-4.18204e-06
-1.69069e-05
3.57013e-06
-5.41261e-06
-1.97555e-05
2.55983e-06
-6.06175e-06
-2.25069e-05
1.44682e-06
-6.06546e-06
-2.47214e-05
1.15308e-07
-5.5287e-06
-2.62643e-05
-1.18307e-06
-4.5904e-06
-2.68132e-05
-2.50699e-06
-3.53537e-06
-2.66815e-05
-3.5949e-06
-2.55937e-06
-2.61689e-05
-4.53988e-06
-1.68775e-06
-2.59303e-05
-5.24504e-06
-8.23227e-07
-2.63331e-05
-5.70484e-06
-8.44899e-08
-2.6179e-05
-5.87503e-06
5.21876e-07
-2.55571e-05
-5.50842e-06
1.14169e-06
-2.47859e-05
-4.98674e-06
1.69371e-06
-2.45614e-05
-4.00329e-06
2.25468e-06
-2.454e-05
-2.8802e-06
2.53133e-06
-2.43085e-05
-1.42103e-06
2.46091e-06
-2.36215e-05
1.97998e-08
1.85317e-06
-2.24139e-05
1.56982e-06
7.9215e-07
-2.08777e-05
2.8996e-06
-6.51027e-07
-1.92539e-05
4.15533e-06
-2.25434e-06
-1.76217e-05
5.2232e-06
-3.69075e-06
-1.6403e-05
6.21032e-06
-4.70123e-06
-1.6075e-05
6.81708e-06
-3.95006e-06
-1.72914e-05
6.47617e-06
-1.82789e-05
3.92338e-06
5.48691e-06
-2.41021e-05
5.59897e-06
7.14853e-06
-2.12034e-05
8.64867e-06
6.20685e-06
-1.85485e-05
9.19756e-06
4.36375e-06
-1.82577e-05
8.51374e-06
2.02118e-06
-1.89276e-05
7.27708e-06
-3.35999e-07
-2.03094e-05
5.76054e-06
-2.43928e-06
-2.17318e-05
4.08044e-06
-4.0679e-06
-2.32246e-05
2.34727e-06
-5.04768e-06
-2.42198e-05
4.79089e-07
-5.30548e-06
-2.46644e-05
-1.34121e-06
-4.84004e-06
-2.40901e-05
-3.18772e-06
-3.86708e-06
-2.28451e-05
-4.80859e-06
-2.71738e-06
-2.1058e-05
-6.26004e-06
-1.67393e-06
-1.96338e-05
-7.33939e-06
-1.08353e-06
-1.89607e-05
-7.96231e-06
-9.68286e-07
-1.82049e-05
-8.0888e-06
-8.60944e-07
-1.82225e-05
-7.44145e-06
-5.39706e-07
-1.86923e-05
-6.41428e-06
-3.13417e-07
-1.99452e-05
-4.84186e-06
-2.15543e-07
-2.15065e-05
-3.13072e-06
-6.04161e-07
-2.27569e-05
-1.16216e-06
-1.47851e-06
-2.34738e-05
7.27521e-07
-2.85528e-06
-2.37011e-05
2.66489e-06
-4.53581e-06
-2.35954e-05
4.39915e-06
-6.3077e-06
-2.35424e-05
6.06144e-06
-7.87572e-06
-2.35386e-05
7.48592e-06
-8.75325e-06
-2.41476e-05
8.62322e-06
-8.57513e-06
-2.54463e-05
9.19435e-06
-5.91582e-06
-2.8553e-05
8.6035e-06
-2.98131e-05
5.61958e-06
6.31916e-06
-3.68075e-05
6.38776e-06
9.91066e-06
-3.39326e-05
9.13899e-06
1.09332e-05
-2.92348e-05
9.66506e-06
1.05025e-05
-2.68562e-05
9.03041e-06
8.95496e-06
-2.52493e-05
7.87041e-06
6.80927e-06
-2.45193e-05
6.35674e-06
4.34001e-06
-2.39151e-05
4.65378e-06
1.80112e-06
-2.36251e-05
2.94047e-06
-5.30964e-07
-2.30767e-05
1.18998e-06
-2.36313e-06
-2.23448e-05
-4.86418e-07
-3.3637e-06
-2.08746e-05
-2.214e-06
-3.45928e-06
-1.89184e-05
-3.83035e-06
-2.83846e-06
-1.62571e-05
-5.42095e-06
-1.98106e-06
-1.37727e-05
-6.71794e-06
-1.71926e-06
-1.15896e-05
-7.63239e-06
-2.06476e-06
-1.03633e-05
-7.49566e-06
-2.54775e-06
-1.12327e-05
-6.50631e-06
-2.84454e-06
-1.35044e-05
-4.8905e-06
-3.42518e-06
-1.62904e-05
-3.07345e-06
-4.42026e-06
-1.91429e-05
-1.36763e-06
-6.00198e-06
-2.15207e-05
3.46501e-07
-7.9157e-06
-2.34206e-05
1.86158e-06
-9.91514e-06
-2.50963e-05
3.3958e-06
-1.16979e-05
-2.6593e-05
4.78147e-06
-1.29979e-05
-2.83839e-05
6.14279e-06
-1.3533e-05
-3.02865e-05
7.2843e-06
-1.28488e-05
-3.2971e-05
8.14046e-06
-1.07135e-05
-3.61489e-05
8.56855e-06
-6.35343e-06
-4.09782e-05
8.06658e-06
-4.19323e-05
5.7673e-06
5.75797e-06
-4.83453e-05
5.78116e-06
1.03801e-05
-4.59431e-05
7.3896e-06
1.31464e-05
-3.97798e-05
7.7798e-06
1.44655e-05
-3.56135e-05
7.43935e-06
1.45928e-05
-3.21478e-05
6.77221e-06
1.39796e-05
-2.97447e-05
5.83965e-06
1.28103e-05
-2.75494e-05
4.80459e-06
1.10922e-05
-2.57935e-05
3.88764e-06
8.80658e-06
-2.39544e-05
3.16437e-06
6.00797e-06
-2.2276e-05
2.73076e-06
3.10663e-06
-2.04089e-05
2.43657e-06
5.41785e-07
-1.85703e-05
2.21763e-06
-1.23445e-06
-1.63957e-05
1.91555e-06
-2.43847e-06
-1.43051e-05
1.7371e-06
-3.46106e-06
-1.21888e-05
1.62247e-06
-3.8651e-06
-1.25714e-05
2.6128e-06
-4.92494e-06
-1.33763e-05
3.20414e-06
-6.57851e-06
-1.57407e-05
3.89064e-06
-8.64511e-06
-1.84484e-05
4.22538e-06
-1.10413e-05
-2.10402e-05
4.29443e-06
-1.3439e-05
-2.34546e-05
4.3326e-06
-1.54212e-05
-2.57354e-05
4.29802e-06
-1.67692e-05
-2.82335e-05
4.48629e-06
-1.73986e-05
-3.07222e-05
4.75975e-06
-1.72899e-05
-3.37011e-05
5.20965e-06
-1.63078e-05
-3.68685e-05
5.60106e-06
-1.41238e-05
-4.10214e-05
5.86766e-06
-1.05967e-05
-4.56396e-05
5.96481e-06
-5.56923e-06
-5.16591e-05
5.65479e-06
-5.22541e-05
4.7539e-06
3.73658e-06
-5.58777e-05
3.79681e-06
7.32648e-06
-5.33267e-05
3.79467e-06
9.82844e-06
-4.63216e-05
4.0408e-06
1.14462e-05
-4.13898e-05
4.15943e-06
1.25647e-05
-3.72884e-05
4.02294e-06
1.3596e-05
-3.43989e-05
3.62381e-06
1.46595e-05
-3.17619e-05
3.1498e-06
1.54382e-05
-2.95253e-05
2.95399e-06
1.53441e-05
-2.71934e-05
3.33405e-06
1.37498e-05
-2.50903e-05
4.40957e-06
1.05313e-05
-2.32192e-05
6.02951e-06
6.02572e-06
-2.18674e-05
7.80346e-06
1.20771e-06
-2.10703e-05
9.49331e-06
-3.18467e-06
-2.1018e-05
1.11059e-05
-5.38021e-06
-2.25628e-05
1.25702e-05
-3.99684e-06
-2.79695e-05
1.40154e-05
-4.00503e-06
-2.68708e-05
1.35033e-05
-6.76416e-06
-2.52166e-05
1.22357e-05
-1.02545e-05
-2.55025e-05
1.05451e-05
-1.35396e-05
-2.63821e-05
8.62791e-06
-1.5803e-05
-2.79716e-05
6.78114e-06
-1.674e-05
-2.98762e-05
5.07861e-06
-1.65453e-05
-3.23201e-05
3.89275e-06
-1.56047e-05
-3.47824e-05
3.12045e-06
-1.42878e-05
-3.77992e-05
2.78198e-06
-1.2616e-05
-4.10589e-05
2.51951e-06
-1.03812e-05
-4.54829e-05
2.22756e-06
-7.34214e-06
-5.05561e-05
1.87828e-06
-3.51646e-06
-5.72561e-05
1.77224e-06
-5.83628e-05
2.59316e-06
3.64787e-07
-5.6776e-05
5.34186e-07
1.32898e-06
-5.31106e-05
-1.17958e-06
2.25643e-06
-4.60952e-05
-1.15319e-06
3.26773e-06
-4.16988e-05
-7.01613e-07
4.92213e-06
-3.82745e-05
-6.67629e-07
7.55058e-06
-3.60342e-05
-9.92523e-07
1.12453e-05
-3.40488e-05
-1.40727e-06
1.54286e-05
-3.24168e-05
-1.29127e-06
1.9017e-05
-3.07586e-05
-2.2632e-08
2.0693e-05
-2.93786e-05
2.61284e-06
1.9563e-05
-2.83838e-05
6.29519e-06
1.54019e-05
-2.78969e-05
1.01912e-05
8.85598e-06