/*--------------------------------*- C++ -*----------------------------------*\
| =========                 |                                                 |
| \\      /  F ield         | OpenFOAM: The Open Source CFD Toolbox           |
|  \\    /   O peration     | Version:  v1912                                 |
|   \\  /    A nd           | Website:  www.openfoam.com                      |
|    \\/     M anipulation  |                                                 |
\*---------------------------------------------------------------------------*/
FoamFile
{
    version     2.0;
    format      ascii;
    class       volScalarField;
    location    "125/oil";
    object      heatTransferCoeff(T);
}
// * * * * * * * * * * * * * * * * * * * * * * * * * * * * * * * * * * * * * //

dimensions      [1 0 -3 -1 0 0 0];


internalField   uniform 0;

boundaryField
{
    maxY
    {
        type            calculated;
        value           uniform 0;
    }
    minX
    {
        type            calculated;
        value           uniform 0;
    }
    maxX
    {
        type            calculated;
        value           uniform 0;
    }
    minY
    {
        type            calculated;
        value           uniform 0;
    }
    minZ
    {
        type            calculated;
        value           uniform 0;
    }
    maxZ
    {
        type            calculated;
        value           uniform 0;
    }
    oil_to_sphere
    {
        type            calculated;
        value           nonuniform List<scalar> 
360
(
-82.3906
-82.8529
-56.1045
-145.821
-155.622
-65.2428
-159.783
-144.196
-155.233
-81.2202
-81.6547
-64.999
-72.1207
-50.5604
-79.544
-138.014
-157.551
-145.987
-152.722
-50.3672
-127.018
-81.3573
-71.6317
-151.005
-56.3125
-156.553
-65.0226
-154.229
-153.079
-144.746
-164.509
-160.535
-56.295
-55.6986
-64.3615
-64.6519
-151.175
-150.079
-146.025
-148.326
-152.137
-55.9262
-63.9498
-84.6457
-84.8419
-64.8405
-70.9464
-49.9727
-79.5829
-143.022
-65.4454
-64.9406
-71.5002
-71.6387
-49.9908
-81.7032
-146.435
-50.2973
-64.1098
-70.4919
-50.3241
-153.888
-146.147
-152.541
-49.9698
-131.932
-79.3488
-69.4416
-160.049
-152.115
-146.569
-150.085
-149.582
-50.0395
-113.314
-79.077
-50.6395
-68.7014
-150.349
-154.713
-70.3467
-69.087
-69.3023
-50.3107
-55.9024
-64.4744
-64.8032
-71.7737
-50.3257
-50.6758
-56.0171
-71.9174
-64.7989
-55.9189
-71.377
-64.5711
-64.5874
-64.6956
-55.6707
-51.0885
-51.0872
-50.2655
-65.2998
-65.1824
-72.1026
-50.2667
-50.7691
-72.2637
-55.9067
-64.9529
-64.907
-64.8773
-55.8082
-50.1448
-51.3265
-51.1955
-71.1531
-70.7028
-70.6279
-83.9163
-84.0551
-140.818
-150.024
-135.737
-151.346
-140.901
-151.313
-153.266
-142.662
-149.084
-146.564
-70.6079
-70.127
-70.3988
-51.009
-140.304
-152.778
-82.4527
-82.6492
-154.256
-142.521
-80.5923
-79.3935
-156.449
-143.503
-165.377
-51.0018
-50.8904
-150.879
-154.581
-164.916
-156.685
-156.742
-163.448
-164.776
-142.715
-78.9408
-155.794
-147.735
-50.5204
-154.036
-157.973
-68.8976
-67.8858
-70.5889
-80.5826
-81.5215
-156.207
-143.713
-162.505
-49.8614
-145.772
-81.8634
-154.333
-147.399
-49.9055
-159.085
-69.9444
-69.7754
-50.9072
-64.9538
-65.0431
-71.9205
-56.1517
-71.4725
-64.4823
-50.2621
-51.0242
-153.087
-143.537
-153.949
-148.066
-84.1923
-84.2516
-150.598
-137.749
-148.099
-80.3391
-80.8253
-50.8543
-64.5854
-65.5802
-72.1199
-64.9877
-64.7495
-72.2291
-55.8792
-71.7009
-64.5103
-55.4511
-142.295
-72.1136
-64.5446
-50.4654
-149.72
-141.774
-149.702
-83.5519
-83.5538
-49.8609
-64.2775
-64.3723
-70.0715
-153.689
-55.4482
-69.8883
-64.1505
-144.707
-145.925
-83.0437
-50.1999
-82.402
-50.1809
-51.2444
-71.3536
-56.1534
-64.2502
-63.7264
-63.5018
-55.4842
-50.6223
-146.213
-137.141
-153.951
-161.385
-144.418
-136.541
-155.885
-157.577
-80.5522
-147.884
-50.8963
-155.62
-153.726
-154.474
-71.5077
-56.1508
-65.009
-71.6115
-56.3763
-154.503
-64.5313
-64.4393
-64.9334
-55.7522
-156.285
-143.754
-64.4113
-64.4362
-55.6765
-144.261
-163.108
-81.4273
-147.154
-50.364
-153.367
-150.753
-154.616
-69.4293
-55.6501
-152.275
-64.0547
-64.241
-63.9973
-151.043
-55.8427
-148.617
-82.6191
-137.398
-83.0269
-144.933
-147.573
-150.486
-50.2359
-68.5625
-67.4704
-68.1565
-82.9335
-151.25
-82.7086
-146.467
-150.825
-50.7472
-152.383
-154.842
-79.1961
-148.361
-50.7119
-163.156
-69.6362
-69.2245
-49.7774
-146.407
-82.529
-130.16
-146.949
-82.4519
-50.2777
-64.6863
-64.7363
-72.0181
-151.677
-140.704
-81.1941
-50.9241
-141.645
-82.466
-50.5041
-142.521
-154.289
-80.1136
-148.9
-49.6603
-160.832
-72.3146
-158.33
-55.7774
-64.8808
-158.783
-148.498
-145.772
-81.1149
-154.746
-153.289
-81.7591
-146.671
-68.3634
-70.1208
-144.118
-82.0975
-50.0532
-143.932
-82.2884
-50.6089
-148.497
-149.363
-141.238
-82.6302
-145.988
-82.8243
)
;
    }
}


// ************************************************************************* //
