/*--------------------------------*- C++ -*----------------------------------*\
| =========                 |                                                 |
| \\      /  F ield         | OpenFOAM: The Open Source CFD Toolbox           |
|  \\    /   O peration     | Version:  v1906                                 |
|   \\  /    A nd           | Web:      www.OpenFOAM.com                      |
|    \\/     M anipulation  |                                                 |
\*---------------------------------------------------------------------------*/
FoamFile
{
    version     2.0;
    format      ascii;
    class       volScalarField;
    location    "18";
    object      alphat;
}
// * * * * * * * * * * * * * * * * * * * * * * * * * * * * * * * * * * * * * //

dimensions      [1 -1 -1 0 0 0 0];


internalField   nonuniform List<scalar> 
78750
(
8.1376e-07
7.8369e-07
8.42859e-06
4.32102e-06
8.39223e-06
1.24492e-05
1.33802e-05
1.64339e-05
2.08665e-05
2.59595e-05
3.02327e-05
3.43476e-05
3.82863e-05
4.25052e-05
4.36645e-05
4.74583e-05
4.89008e-05
5.17451e-05
5.28088e-05
5.57066e-05
5.69049e-05
5.95439e-05
5.95146e-05
5.99671e-05
5.73779e-05
5.46113e-05
5.20155e-05
5.33923e-05
5.74143e-05
6.51355e-05
7.64794e-05
8.49804e-05
9.37832e-05
0.000102499
8.58519e-06
2.21217e-06
5.21628e-06
3.6218e-05
3.09708e-05
3.53456e-05
3.81789e-05
5.04297e-05
5.2004e-05
5.90194e-05
6.28838e-05
6.2473e-05
6.27654e-05
6.20667e-05
5.67399e-05
5.55699e-05
5.18884e-05
5.05337e-05
5.01484e-05
4.85028e-05
4.72167e-05
4.52585e-05
4.46258e-05
4.20973e-05
3.55962e-05
2.95994e-05
2.91689e-05
3.66257e-05
4.95828e-05
6.31159e-05
7.64995e-05
9.02182e-05
9.95705e-05
8.90166e-05
6.43177e-05
1.80112e-05
1.66588e-05
3.47384e-05
3.2061e-05
1.94954e-05
2.53343e-05
3.10793e-05
3.56065e-05
3.57667e-05
3.69181e-05
3.77044e-05
3.83395e-05
3.83682e-05
3.87036e-05
3.99052e-05
4.38617e-05
4.40488e-05
4.29241e-05
5.51692e-05
9.31815e-05
5.19272e-05
4.14426e-05
6.12239e-05
9.5458e-05
0.000115991
5.72152e-05
1.98402e-05
1.29155e-05
1.34759e-05
2.08806e-05
3.64429e-05
6.20547e-05
8.69754e-05
8.7576e-05
0.000112676
1.63045e-05
2.46162e-05
5.58016e-05
3.42686e-05
1.80048e-05
1.71245e-05
2.22369e-05
3.15095e-05
4.45682e-05
6.35066e-05
9.12713e-05
0.000109603
0.000102981
8.36073e-05
7.25116e-05
6.07936e-05
3.66126e-05
1.63526e-05
8.4258e-06
9.26897e-06
2.41605e-05
1.27068e-05
1.24329e-05
2.11526e-05
3.19518e-05
3.5229e-05
4.03081e-05
5.00131e-05
6.58162e-05
8.97711e-05
0.000123576
0.000167469
0.00018087
0.00016942
0.000213592
1.49529e-05
2.437e-05
5.41028e-05
1.99921e-05
1.31991e-05
2.44008e-05
7.36356e-05
0.000129372
7.30866e-05
3.71848e-05
2.526e-05
2.87855e-05
2.4278e-05
1.86262e-05
1.98839e-05
2.18015e-05
2.37086e-05
3.12179e-05
6.77035e-05
2.48836e-05
1.51927e-05
1.63175e-05
2.56861e-05
3.9241e-05
2.97295e-05
1.98915e-05
1.6228e-05
1.67883e-05
2.07422e-05
2.90939e-05
4.37306e-05
6.70425e-05
7.99417e-05
7.06668e-05
0.000139394
1.55918e-05
2.00821e-05
4.64526e-05
1.35766e-05
1.37631e-05
4.09513e-05
9.68799e-05
7.92152e-05
5.68815e-05
3.73988e-05
2.16187e-05
2.04697e-05
3.50809e-05
8.63994e-05
0.000145323
0.000104303
6.12576e-05
4.14382e-05
3.26267e-05
2.92371e-05
2.91714e-05
2.95738e-05
2.9709e-05
3.15162e-05
3.5667e-05
4.1883e-05
4.24352e-05
2.87222e-05
1.97732e-05
1.87456e-05
2.37619e-05
3.37953e-05
3.6483e-05
5.31085e-05
0.000147778
1.77556e-05
1.80587e-05
2.31527e-05
8.18798e-06
2.96114e-05
9.46934e-05
7.20048e-05
6.16764e-05
7.89626e-05
8.2679e-05
6.66632e-05
4.62868e-05
3.19452e-05
2.77135e-05
2.89268e-05
3.19116e-05
3.54249e-05
3.78622e-05
3.72975e-05
3.51459e-05
3.32538e-05
3.20658e-05
3.14601e-05
3.10854e-05
3.06647e-05
2.95622e-05
2.68019e-05
2.15452e-05
1.45234e-05
1.0329e-05
1.13221e-05
1.87186e-05
3.78091e-05
9.73374e-05
0.000168633
1.91712e-05
1.43945e-05
1.77696e-05
2.51409e-05
6.2975e-05
0.000111111
0.000130979
0.000140844
0.000164472
0.000189605
0.000179266
0.000119978
7.46447e-05
5.68177e-05
5.52449e-05
6.2718e-05
6.85711e-05
6.32429e-05
5.03764e-05
4.21988e-05
4.25589e-05
4.69804e-05
5.27964e-05
5.89387e-05
6.18607e-05
5.61554e-05
4.37679e-05
3.29068e-05
2.47537e-05
1.64518e-05
1.20818e-05
1.73099e-05
4.49836e-05
0.000145994
0.000140179
1.74413e-05
7.4979e-06
2.44571e-05
6.86347e-05
0.000126547
0.000148482
0.000144682
0.000133836
0.000127916
0.000125216
0.000113715
8.53946e-05
5.54817e-05
3.8434e-05
3.33528e-05
3.91133e-05
5.5448e-05
5.4238e-05
1.97796e-05
2.17779e-07
7.60053e-06
2.86059e-05
4.24413e-05
5.04669e-05
5.01269e-05
4.64906e-05
4.25073e-05
3.65221e-05
2.92979e-05
2.36555e-05
2.15064e-05
2.90562e-05
6.6685e-05
0.00015898
8.44139e-05
1.31489e-05
7.28544e-06
4.62405e-05
0.00011211
0.0001852
0.000237682
0.000265248
0.000261391
0.000219454
0.000177272
0.000161008
0.000152908
0.000118869
7.70893e-05
5.10733e-05
3.87059e-05
3.51698e-05
3.91841e-05
5.18001e-05
6.56671e-05
6.40585e-05
5.52815e-05
4.15767e-05
2.91187e-05
2.11314e-05
1.07599e-05
2.25906e-06
1.27581e-06
8.01417e-06
4.01924e-06
6.50164e-06
1.23095e-05
3.65819e-05
0.0001295
5.88558e-05
9.59081e-06
1.00439e-05
4.80395e-05
0.000136769
0.000167704
0.000173045
0.000173211
0.000167504
0.000150151
0.000120247
9.46237e-05
8.62025e-05
9.46287e-05
0.0001073
9.66562e-05
7.10779e-05
5.3467e-05
4.57809e-05
4.57141e-05
5.19455e-05
6.26174e-05
7.41371e-05
8.29765e-05
8.62173e-05
8.44648e-05
8.10592e-05
6.53064e-05
3.91363e-05
2.47847e-05
1.72709e-05
6.68527e-06
2.82357e-06
7.19797e-06
2.81269e-05
5.31668e-05
7.93196e-06
9.44602e-06
5.19193e-05
0.000156235
0.000229413
0.000237996
0.000215876
0.000175414
0.000135744
0.000109369
9.6439e-05
9.60903e-05
0.000110842
0.000139956
0.000159513
0.000131902
8.69655e-05
6.05722e-05
5.08942e-05
5.24763e-05
6.35391e-05
8.28701e-05
0.000106501
0.000127487
0.000140162
0.000143272
0.000136471
0.000116731
8.78843e-05
5.60289e-05
2.89705e-05
1.56095e-05
2.12977e-06
9.19984e-06
6.49742e-05
7.53996e-06
1.14444e-05
7.59401e-05
0.000205485
0.000220946
0.000210525
0.000185882
0.000150563
0.000116725
9.47742e-05
8.53416e-05
8.65114e-05
9.90442e-05
0.000124177
0.000153632
0.000159049
0.000122895
8.11652e-05
5.82448e-05
5.07699e-05
5.34201e-05
6.3414e-05
7.79875e-05
9.25523e-05
0.000101267
0.000100514
9.37911e-05
9.07351e-05
9.76333e-05
0.000100759
6.36349e-05
3.61184e-05
5.19987e-06
4.34324e-06
2.69354e-05
7.4113e-06
1.12862e-05
8.68277e-05
0.000200833
0.000210537
0.000196025
0.000164632
0.000127121
9.93227e-05
8.70658e-05
8.86771e-05
0.000101223
0.00012171
0.00014769
0.000174423
0.000185882
0.000159962
0.000109492
7.21615e-05
5.55514e-05
5.3192e-05
6.02594e-05
7.21581e-05
8.25171e-05
8.62481e-05
8.38105e-05
8.12119e-05
8.52502e-05
9.77816e-05
0.000103371
7.65118e-05
5.17488e-05
9.97469e-06
3.91212e-06
2.00109e-05
6.97828e-06
1.08512e-05
7.38845e-05
0.000198529
0.000218676
0.000212313
0.000195354
0.00017051
0.000138906
0.000108864
9.02081e-05
8.48219e-05
9.07828e-05
0.00010638
0.000129764
0.00015569
0.00016918
0.000148703
0.000103067
6.84065e-05
5.33896e-05
5.205e-05
5.95194e-05
7.11463e-05
8.11108e-05
8.54434e-05
8.63331e-05
8.97948e-05
9.90168e-05
0.000106552
9.64707e-05
7.45095e-05
1.558e-05
5.0308e-06
1.7928e-05
6.4574e-06
1.05209e-05
7.10575e-05
0.000201795
0.000219006
0.000204787
0.000181703
0.00015717
0.000133655
0.000111219
9.20187e-05
8.10557e-05
8.18512e-05
9.59052e-05
0.000123847
0.000162934
0.000201727
0.000216951
0.000182962
0.000119015
7.58401e-05
5.89443e-05
5.81572e-05
6.68187e-05
7.96219e-05
9.17144e-05
0.000101343
0.0001098
0.00011629
0.000114818
0.000100678
6.96225e-05
1.37308e-05
6.61698e-06
2.16237e-05
6.29076e-06
1.08271e-05
6.97494e-05
0.000204636
0.00022914
0.000219569
0.000201623
0.00018194
0.00016131
0.000136627
0.00010806
8.45028e-05
7.3596e-05
7.65914e-05
9.33505e-05
0.000124429
0.000168896
0.000217928
0.000242659
0.000204103
0.000130252
8.2721e-05
6.46522e-05
6.3752e-05
7.23097e-05
8.5322e-05
9.92761e-05
0.000111763
0.000119067
0.000115898
9.98085e-05
6.3542e-05
1.36623e-05
7.63782e-06
2.37923e-05
6.07442e-06
1.11453e-05
7.89639e-05
0.000212867
0.000222511
0.000203386
0.000175521
0.000147944
0.000125882
0.000110057
9.79123e-05
8.75018e-05
8.17451e-05
8.59771e-05
0.000103937
0.000137165
0.000184057
0.000236575
0.000271756
0.000252794
0.00018176
0.000116281
8.23159e-05
7.18667e-05
7.55334e-05
8.73043e-05
0.0001029
0.000117948
0.000126091
0.000121144
0.000100569
5.3385e-05
1.18826e-05
8.03185e-06
2.83201e-05
6.16662e-06
1.11681e-05
8.2043e-05
0.000209543
0.000220776
0.000210155
0.000190788
0.000165891
0.000138597
0.000113473
9.41587e-05
8.18119e-05
7.66432e-05
7.95062e-05
9.15188e-05
0.000112824
0.000141798
0.000174615
0.000202443
0.000207624
0.000177085
0.000129499
9.36673e-05
7.64883e-05
7.32805e-05
7.86552e-05
8.84278e-05
9.90282e-05
0.000106076
0.000103042
8.10412e-05
3.6642e-05
1.07968e-05
1.03511e-05
4.02682e-05
5.77164e-06
1.06735e-05
7.60188e-05
0.000201394
0.000222206
0.000213627
0.000193949
0.000169978
0.000145844
0.000123722
0.000104944
9.06385e-05
8.16847e-05
7.88692e-05
8.2973e-05
9.42298e-05
0.000111596
0.000132211
0.000150691
0.000158814
0.000149692
0.000126565
0.000101815
8.47236e-05
7.69107e-05
7.59885e-05
7.84664e-05
8.09815e-05
8.12979e-05
7.90465e-05
7.49714e-05
6.30078e-05
1.57594e-05
8.06461e-06
2.42839e-05
6.15845e-06
1.04185e-05
6.77559e-05
0.000198451
0.000231871
0.00022892
0.000213345
0.000193277
0.000173211
0.000154041
0.000134659
0.000114929
9.69348e-05
8.34642e-05
7.64377e-05
7.68192e-05
8.50222e-05
0.00010049
0.000119978
0.000136539
0.000142632
0.000136178
0.000122724
0.000110285
0.000103924
0.000105148
0.000112279
0.000119458
0.000118792
0.000106236
7.50864e-05
2.92599e-05
1.05748e-05
6.5309e-06
2.51933e-05
6.60068e-06
1.00174e-05
5.84294e-05
0.000177763
0.000227637
0.000230505
0.000215689
0.0001933
0.000172273
0.000158027
0.000150443
0.000144533
0.000133696
0.000116146
9.69825e-05
8.2138e-05
7.43912e-05
7.45054e-05
8.23669e-05
9.5301e-05
0.000106055
0.000108989
0.000105911
0.000100283
9.40474e-05
8.90431e-05
8.63006e-05
8.28749e-05
6.91135e-05
4.20973e-05
1.93932e-05
1.1491e-05
1.26271e-05
2.87586e-05
4.63469e-05
6.47189e-06
1.03156e-05
5.63486e-05
0.00016308
0.000214912
0.000223115
0.000214135
0.000193453
0.000166727
0.000142833
0.000128887
0.0001271
0.00013556
0.000146717
0.0001469
0.000129215
0.000103846
8.28576e-05
7.00996e-05
6.52897e-05
6.76087e-05
7.5328e-05
8.38751e-05
8.71888e-05
8.23372e-05
7.12637e-05
5.90068e-05
4.91818e-05
4.46667e-05
4.95734e-05
6.36946e-05
6.04018e-05
2.25879e-05
7.87301e-06
1.84445e-05
4.70467e-06
1.01118e-05
5.14877e-05
0.000143656
0.000197264
0.000212247
0.000212243
0.000202094
0.000182663
0.000156152
0.000130339
0.000113764
0.000110057
0.000119914
0.000142561
0.000170669
0.000183471
0.000163444
0.000126804
9.78715e-05
8.32502e-05
8.27042e-05
9.81536e-05
0.000131956
0.000167999
0.000162836
0.000112552
6.67061e-05
4.88897e-05
4.4601e-05
4.20886e-05
3.92519e-05
2.61211e-05
6.77805e-06
1.20468e-05
7.47608e-06
1.00617e-05
4.83758e-05
0.000136199
0.000194044
0.000210347
0.000210146
0.00020069
0.000185314
0.000165335
0.00014252
0.000121983
0.000109532
0.000108104
0.000118738
0.000141299
0.000169941
0.000186046
0.000169446
0.000130501
9.73419e-05
8.00821e-05
7.7707e-05
8.76488e-05
9.01693e-05
5.47133e-05
1.61855e-05
4.59693e-06
1.14762e-05
1.9713e-05
3.09053e-05
5.05701e-05
6.97331e-05
6.01615e-05
5.79249e-05
7.86493e-06
1.01415e-05
4.74023e-05
0.000137775
0.000199711
0.000213064
0.000207507
0.000193744
0.000177815
0.000161697
0.000145339
0.000129875
0.000118152
0.00011268
0.00011466
0.000125006
0.000145368
0.000176937
0.000213939
0.000232657
0.000204433
0.000147411
0.00010255
7.87541e-05
6.83672e-05
6.21577e-05
5.56641e-05
5.2148e-05
5.00708e-05
4.18461e-05
2.76176e-05
1.49559e-05
1.60651e-05
2.88602e-05
4.78241e-05
3.79205e-06
1.05748e-05
5.05657e-05
0.000153536
0.000214787
0.000217443
0.000199659
0.000180259
0.000167263
0.000158481
0.000149736
0.000140614
0.000134681
0.000135745
0.000145186
0.000161691
0.000182077
0.000202837
0.000220989
0.000232433
0.000229718
0.00020576
0.00016622
0.000131334
0.000116775
0.000122802
0.000111366
5.90827e-05
2.80575e-05
2.00146e-05
1.99437e-05
1.77011e-05
1.52932e-05
1.41106e-05
3.09708e-05
5.33989e-06
1.13509e-05
5.80565e-05
0.00018255
0.0002237
0.000193873
0.000156306
0.000138314
0.000137345
0.000143841
0.000149849
0.000152282
0.000153615
0.000158985
0.000172881
0.00019764
0.000232649
0.000272808
0.000305601
0.000308674
0.000262229
0.000183998
0.000116859
7.37252e-05
4.64499e-05
3.47136e-05
4.33852e-05
7.88131e-05
0.000141958
0.000166136
0.000143247
8.79845e-05
3.68063e-05
1.90167e-05
5.8558e-05
7.01296e-06
1.21588e-05
6.69491e-05
0.000201748
0.000198759
0.000139601
0.000107554
0.000105876
0.000122262
0.000146856
0.000171076
0.000189655
0.000201632
0.000208702
0.000213563
0.000219038
0.000227415
0.000240012
0.000256784
0.000275052
0.000287096
0.000279377
0.000241033
0.000179858
0.000117588
7.09785e-05
4.4471e-05
3.68054e-05
4.97061e-05
8.72503e-05
0.000142295
0.000152325
8.43532e-05
4.03497e-05
5.88701e-05
6.63303e-06
1.25754e-05
7.5843e-05
0.000196055
0.000142132
8.82417e-05
7.74298e-05
9.47817e-05
0.000130688
0.000172865
0.000209357
0.000236708
0.000257709
0.000276024
0.000293534
0.000309936
0.000323373
0.000331559
0.000332652
0.000323123
0.000291428
0.000224647
0.000146556
0.000103892
9.73811e-05
0.00010219
8.61806e-05
4.98189e-05
2.55269e-05
3.38035e-05
6.91448e-05
0.000104725
8.77932e-05
6.72965e-05
8.95704e-05
8.54741e-06
1.26287e-05
8.00992e-05
0.000169519
9.90414e-05
6.39681e-05
6.81338e-05
0.000101788
0.000155884
0.000208555
0.000246359
0.000269882
0.000283957
0.000293505
0.000302621
0.000313781
0.000327023
0.000338846
0.000340064
0.000314899
0.000251821
0.000167595
9.95575e-05
6.56037e-05
6.44294e-05
9.16472e-05
0.000123766
0.000102377
5.46599e-05
3.56472e-05
4.8139e-05
7.93396e-05
9.88201e-05
0.00010172
6.24143e-05
8.14287e-06
1.22883e-05
7.51075e-05
0.000155499
9.24078e-05
5.97741e-05
6.23515e-05
9.09334e-05
0.000137927
0.000188573
0.000232547
0.000268312
0.000297198
0.000320178
0.000337723
0.000350109
0.000357146
0.000357855
0.000351488
0.000339698
0.00032523
0.000304294
0.000263982
0.000198381
0.000128627
8.63089e-05
6.9996e-05
6.24935e-05
4.74113e-05
3.25115e-05
3.2239e-05
4.72754e-05
7.14407e-05
8.86384e-05
3.99955e-05
6.88964e-06
1.19851e-05
6.68827e-05
0.000152821
0.000112128
6.55399e-05
5.12265e-05
6.18815e-05
9.39565e-05
0.00014191
0.000194484
0.000243379
0.000286627
0.000324921
0.000358901
0.000388112
0.000409632
0.000415051
0.000387875
0.000315286
0.000220504
0.000149921
0.000118614
0.000116383
0.000125843
0.000127338
0.000115256
9.25457e-05
6.36618e-05
3.99126e-05
3.04188e-05
3.63085e-05
5.59547e-05
6.9595e-05
2.7821e-05
6.26194e-06
1.18346e-05
6.00897e-05
0.000143097
0.000136152
8.57964e-05
4.76111e-05
3.91611e-05
5.21577e-05
8.47788e-05
0.000133792
0.000189774
0.00024315
0.000289409
0.000327689
0.000357995
0.000379445
0.000389416
0.000383788
0.000357653
0.000305893
0.000231391
0.000159021
0.000113197
9.31339e-05
8.92819e-05
9.41696e-05
9.88482e-05
9.0001e-05
6.77355e-05
4.8203e-05
4.1616e-05
5.07774e-05
6.71869e-05
2.67173e-05
5.66056e-06
1.17619e-05
5.9406e-05
0.000146147
0.000151528
0.000118015
6.8065e-05
3.9449e-05
3.4947e-05
4.91163e-05
8.18336e-05
0.000131264
0.000189856
0.000248102
0.000299169
0.000339338
0.000366571
0.00037935
0.00037638
0.000357506
0.000325058
0.000283491
0.000237036
0.000190149
0.000149348
0.000120032
0.000103526
9.80261e-05
9.76043e-05
9.27135e-05
8.04437e-05
7.02771e-05
7.30861e-05
8.7402e-05
3.71544e-05
5.67859e-06
1.16493e-05
6.00103e-05
0.000151361
0.000168327
0.000151599
0.000109876
6.13213e-05
3.6291e-05
3.29805e-05
4.77268e-05
8.15791e-05
0.000132401
0.000192136
0.000251787
0.000304949
0.000347359
0.000375859
0.000388389
0.000384279
0.000364334
0.000330823
0.00028786
0.000241066
0.00019632
0.000158645
0.00013139
0.00011577
0.000110312
0.00010986
0.000107793
0.000103548
0.000103933
0.000109058
5.16754e-05
6.4084e-06
1.15359e-05
5.92735e-05
0.000157118
0.000184913
0.000178859
0.000156515
0.000110487
5.90695e-05
3.23439e-05
2.69034e-05
3.99118e-05
7.42346e-05
0.000128865
0.000194459
0.000259047
0.000313617
0.000352753
0.000374005
0.00037787
0.000367081
0.000345011
0.000314395
0.000277414
0.000236768
0.000196518
0.000161546
0.000135885
0.000121084
0.000115297
0.000113806
0.00011304
0.0001148
0.000119079
6.32306e-05
7.55841e-06
1.15543e-05
5.81176e-05
0.000158729
0.000193914
0.000190269
0.000175751
0.000155547
0.000115146
6.1277e-05
3.06343e-05
2.20181e-05
3.25029e-05
6.50401e-05
0.000120091
0.00018986
0.000259527
0.000314992
0.000347638
0.000355956
0.000344838
0.000322245
0.000295156
0.000267313
0.000239467
0.000211075
0.000182543
0.00015664
0.000137321
0.000126461
0.000122063
0.000120948
0.00012361
0.000128735
6.87053e-05
8.39942e-06
1.1833e-05
6.02484e-05
0.000163603
0.000198274
0.000189856
0.000167057
0.000145144
0.000130909
0.000107853
6.28524e-05
3.19501e-05
2.22745e-05
3.26717e-05
6.48634e-05
0.000118419
0.000187959
0.000260542
0.000319498
0.000352013
0.000355421
0.000336376
0.000305236
0.00027095
0.000238747
0.000210084
0.000184162
0.000160433
0.000140582
0.000127398
0.000121731
0.000122497
0.000129798
0.000139498
7.26053e-05
8.93029e-06
1.21287e-05
6.48255e-05
0.000174014
0.000207303
0.000198246
0.000170331
0.000135842
0.000109489
9.49933e-05
8.07666e-05
5.58446e-05
3.59635e-05
3.21483e-05
4.87866e-05
8.64769e-05
0.000141072
0.000204355
0.000262849
0.000302573
0.000317012
0.000308666
0.000284874
0.000253498
0.000220854
0.000191135
0.000166499
0.000147545
0.000134194
0.000126656
0.000125426
0.000130691
0.00014168
0.000147921
6.32733e-05
8.8355e-06
1.24019e-05
6.87111e-05
0.000185219
0.000215082
0.000198658
0.0001671
0.000136291
0.000111882
9.2887e-05
7.78824e-05
6.37626e-05
5.01939e-05
4.28756e-05
4.8885e-05
7.28729e-05
0.000115534
0.000174958
0.00024168
0.000297271
0.000325482
0.000322716
0.000295909
0.000255311
0.000210416
0.000168924
0.000136431
0.000116229
0.000109101
0.000113013
0.000123816
0.000137556
0.000150088
0.000144591
5.02983e-05
8.28076e-06
1.27377e-05
7.30045e-05
0.000193535
0.000207524
0.000172979
0.000132768
0.000109403
0.000101519
9.80111e-05
8.93347e-05
7.6579e-05
6.67169e-05
6.33354e-05
6.7513e-05
8.00716e-05
0.000102747
0.0001388
0.000186306
0.000234162
0.00026909
0.000284265
0.000279017
0.000255394
0.00021768
0.000173423
0.000132526
0.000103561
9.07919e-05
9.46698e-05
0.000112015
0.000133632
0.000146839
0.000130432
4.09179e-05
7.73292e-06
1.30497e-05
8.04532e-05
0.000199314
0.00018702
0.00013587
9.74865e-05
8.32227e-05
8.45204e-05
9.11089e-05
9.2804e-05
8.68984e-05
8.17782e-05
8.58725e-05
9.9751e-05
0.000115267
0.000127877
0.000147208
0.000183271
0.000232502
0.000274764
0.000291607
0.000282952
0.000257583
0.00022209
0.000180753
0.000139177
0.00010496
8.44446e-05
8.05591e-05
9.35117e-05
0.000117161
0.000133354
0.000115253
3.57229e-05
7.52027e-06
1.30713e-05
9.01243e-05
0.000192967
0.000149004
9.51351e-05
7.06633e-05
6.9632e-05
8.21996e-05
9.86186e-05
0.000110683
0.000116216
0.000119084
0.000126168
0.000140018
0.000153306
0.000156652
0.00015283
0.000153765
0.000168204
0.000196026
0.000226958
0.000246354
0.000246672
0.000229299
0.000198855
0.000161026
0.000123419
9.43488e-05
7.93943e-05
8.08002e-05
9.79184e-05
0.000118484
0.000107772
3.37905e-05
7.53741e-06
1.26846e-05
9.54261e-05
0.000165892
0.00011274
7.05107e-05
5.69307e-05
6.43564e-05
8.58443e-05
0.000111133
0.000134574
0.000157512
0.000177484
0.00018951
0.00019397
0.000193435
0.000187726
0.000177095
0.000166161
0.000161846
0.000168402
0.000184496
0.000203245
0.000215994
0.000217192
0.000205313
0.000181451
0.000149655
0.000117636
9.40749e-05
8.48385e-05
9.26862e-05
0.000113038
0.000110964
3.48483e-05
7.68688e-06
1.22373e-05
9.26349e-05
0.000154603
0.000113695
7.4712e-05
5.78371e-05
6.11619e-05
8.11835e-05
0.000111497
0.000144019
0.000175399
0.000202958
0.000222155
0.000229684
0.000225487
0.000212116
0.00019403
0.000176977
0.00016634
0.000165297
0.000173445
0.000186393
0.000197815
0.000203001
0.000199974
0.000188043
0.000167559
0.000141725
0.000117581
0.000103604
0.000106295
0.000125217
0.000127451
3.99258e-05
8.00334e-06
1.21211e-05
8.84411e-05
0.000168206
0.000155208
0.0001157
7.42224e-05
5.40112e-05
5.4996e-05
7.35415e-05
0.000106202
0.000145034
0.000181434
0.000211111
0.000230803
0.000236703
0.000227806
0.000208804
0.00018812
0.000173195
0.000167743
0.000171443
0.000180441
0.00018928
0.000193977
0.000193272
0.000187143
0.000175558
0.000159215
0.000141759
0.000130485
0.000133452
0.000151544
0.000153515
4.89664e-05
8.44123e-06
1.20353e-05
8.43282e-05
0.000178981
0.000183849
0.000163028
0.000121316
7.33158e-05
4.61123e-05
4.0703e-05
5.35425e-05
8.6881e-05
0.000138343
0.000191526
0.000229977
0.000247265
0.000243997
0.000226419
0.000204531
0.000187036
0.000178241
0.000177938
0.000182471
0.000186985
0.000188405
0.00018649
0.000182064
0.000175266
0.000166114
0.000156628
0.000152012
0.000158554
0.000175086
0.000171841
5.67596e-05
8.79576e-06
1.19883e-05
8.26972e-05
0.00018934
0.000200098
0.000188471
0.000171509
0.000139809
8.54443e-05
4.47317e-05
3.16196e-05
3.97936e-05
7.01901e-05
0.000122269
0.000181102
0.000226236
0.00024622
0.000241703
0.000223147
0.00020335
0.000189923
0.000184178
0.000183011
0.000181885
0.000178188
0.000172781
0.000168086
0.000165007
0.000162602
0.000160866
0.000163017
0.000173073
0.000187298
0.000177601
5.87423e-05
8.86725e-06
1.19757e-05
8.33096e-05
0.000193012
0.000197899
0.000180594
0.000164878
0.000155428
0.000137035
8.62739e-05
4.15671e-05
2.89281e-05
4.14762e-05
8.00801e-05
0.000140138
0.000200385
0.000239329
0.000250182
0.000239886
0.000221602
0.000205655
0.000195567
0.000189163
0.000181981
0.000171326
0.000158776
0.000148725
0.000144793
0.000147477
0.000154808
0.000165707
0.000180419
0.000193095
0.000176469
5.65175e-05
8.74582e-06
1.18743e-05
8.07958e-05
0.000186691
0.000194033
0.000178121
0.000159255
0.000145115
0.000133389
0.000109079
6.23241e-05
3.19327e-05
3.00149e-05
5.3707e-05
0.000103214
0.00016522
0.000216269
0.000241337
0.000241825
0.000229195
0.000214517
0.000203047
0.000194262
0.00018423
0.000169674
0.00015145
0.000134383
0.000124222
0.000124684
0.000136172
0.000155578
0.000176811
0.000189745
0.000167439
5.17977e-05
8.50607e-06
1.16172e-05
7.62527e-05
0.000180087
0.000185556
0.000167656
0.000147543
0.000132583
0.000121539
0.000107191
8.00008e-05
4.61458e-05
3.18262e-05
4.23039e-05
7.73044e-05
0.000127432
0.000174892
0.000206197
0.000217892
0.000215537
0.000207889
0.000200789
0.000194934
0.000187115
0.000173508
0.000153634
0.000131668
0.000114268
0.000107177
0.000113586
0.000133295
0.000159169
0.000175585
0.000154091
4.70011e-05
8.30789e-06
1.12476e-05
6.70506e-05
0.000169094
0.000176852
0.000158399
0.000139536
0.000128974
0.000123684
0.000114718
9.34361e-05
6.20005e-05
3.76836e-05
3.38905e-05
5.21918e-05
9.08839e-05
0.000137036
0.000172967
0.00019139
0.000195102
0.000191433
0.000187287
0.000185417
0.000183515
0.000176528
0.000161203
0.000139397
0.000117525
0.000102918
0.000100753
0.000113461
0.000138204
0.000159393
0.000143948
4.39537e-05
8.26309e-06
1.11777e-05
6.09354e-05
0.000157859
0.000164638
0.000140879
0.000117492
0.000108053
0.00011365
0.000129041
0.000139915
0.000121505
7.11455e-05
3.69593e-05
3.06755e-05
4.56895e-05
8.09297e-05
0.000125188
0.000158259
0.000173007
0.000174261
0.000170541
0.000168939
0.000171436
0.000173484
0.000167495
0.000150507
0.000127496
0.000107431
9.78614e-05
0.000103172
0.000124124
0.000149021
0.000140388
4.30956e-05
8.35771e-06
1.12708e-05
5.92111e-05
0.000156683
0.000169603
0.000148977
0.000121191
0.000102049
9.714e-05
0.000106043
0.000127294
0.000154229
0.000159018
0.000100476
4.45094e-05
2.85339e-05
3.81742e-05
7.18726e-05
0.000119728
0.000154343
0.000165163
0.000160662
0.000152771
0.000150165
0.000155091
0.000161085
0.000156783
0.000138945
0.000116655
0.000101858
0.000102259
0.000120897
0.000147844
0.000140906
4.30017e-05
8.43273e-06
1.17049e-05
6.63758e-05
0.000173294
0.000188668
0.000168796
0.000138893
0.000114771
0.000104378
0.000107739
0.000122298
0.000145375
0.000171992
0.0001806
0.000120987
4.82046e-05
2.54656e-05
3.31825e-05
6.79447e-05
0.000118221
0.000151765
0.000157091
0.000146461
0.000134456
0.000130453
0.000136718
0.000145647
0.000143563
0.000128542
0.000113587
0.000111717
0.000129042
0.000156159
0.000146703
4.38091e-05
8.45871e-06
1.22983e-05
8.28134e-05
0.000201905
0.000215279
0.000197257
0.000166366
0.000135853
0.000117428
0.00011457
0.000125397
0.00014596
0.000170914
0.00019106
0.000181912
0.000110378
4.28829e-05
2.51991e-05
3.94437e-05
8.16553e-05
0.000128856
0.000149746
0.000143974
0.000127468
0.000113535
0.000109781
0.000117845
0.00013075
0.0001356
0.00013229
0.000134476
0.000151681
0.000174638
0.000156545
4.53886e-05
8.46069e-06
1.2779e-05
0.000102616
0.000225909
0.000238644
0.000225389
0.00020039
0.000171086
0.000147248
0.000136139
0.00013872
0.000151188
0.000166915
0.000177065
0.000168585
0.000127114
6.74246e-05
3.25368e-05
2.96088e-05
5.60659e-05
0.000100382
0.000130394
0.000135521
0.00012437
0.000107886
9.53848e-05
9.30777e-05
0.000103305
0.000122383
0.000140795
0.00015688
0.00017674
0.000193338
0.00016619
4.79632e-05
8.53184e-06
1.30815e-05
0.000117284
0.000240363
0.000252392
0.000242558
0.000222421
0.0001956
0.00016873
0.000150788
0.00014681
0.000156471
0.000175349
0.00019526
0.000203601
0.000181281
0.00011904
5.72387e-05
3.05593e-05
3.32847e-05
6.4136e-05
0.000106688
0.000125681
0.00012193
0.00010842
9.31826e-05
8.24881e-05
8.15661e-05
9.40257e-05
0.000120106
0.000152085
0.000179023
0.000192112
0.000162438
4.91618e-05
8.63238e-06
1.29801e-05
0.00011919
0.000244323
0.000261019
0.000258487
0.000249398
0.000234661
0.000212298
0.000185635
0.000164562
0.000156238
0.000161455
0.000177665
0.000200746
0.000221995
0.000217469
0.00015242
6.85042e-05
3.18189e-05
2.85859e-05
5.18336e-05
9.23745e-05
0.000117383
0.000117387
0.000104408
8.88529e-05
7.79562e-05
7.71519e-05
9.06997e-05
0.000120207
0.000154982
0.00017379
0.000152736
4.91403e-05
8.77423e-06
1.27617e-05
0.000115468
0.000243102
0.000261366
0.0002596
0.000252535
0.00024405
0.000233636
0.000219257
0.000201474
0.000185643
0.000177695
0.000179717
0.00019041
0.000206995
0.000223811
0.000222789
0.000168571
7.96077e-05
3.55347e-05
2.94313e-05
4.93901e-05
8.28256e-05
0.000104728
0.000107351
9.83659e-05
8.58984e-05
7.72097e-05
7.8613e-05
9.4854e-05
0.000126114
0.00015625
0.000151345
5.05488e-05
9.0459e-06
1.25167e-05
0.000111589
0.000239771
0.000260813
0.000262725
0.000260919
0.00025912
0.000256045
0.000248384
0.000234219
0.000216229
0.000201056
0.000194414
0.000198124
0.000210173
0.000224074
0.000225591
0.000192566
0.000121147
5.57689e-05
2.9966e-05
3.35152e-05
6.05926e-05
9.23392e-05
0.0001061
0.000103074
9.24456e-05
8.10607e-05
7.54902e-05
8.22767e-05
0.00010677
0.00014309
0.000149611
4.93647e-05
9.10891e-06
1.24138e-05
0.000110276
0.000236874
0.000256121
0.00025644
0.000254981
0.000257353
0.000263393
0.000269257
0.000269441
0.000259779
0.000241746
0.000223437
0.000213587
0.000216768
0.000232615
0.000252809
0.000252089
0.000193436
9.90297e-05
4.24996e-05
2.82068e-05
4.05332e-05
6.82837e-05
8.85849e-05
9.3061e-05
8.7754e-05
7.86451e-05
7.16546e-05
7.44321e-05
9.51786e-05
0.00013345
0.00014182
4.43049e-05
8.85693e-06
1.23878e-05
0.000111193
0.000235366
0.00025247
0.000251815
0.000250703
0.000255308
0.000266032
0.000279675
0.000291189
0.000295038
0.000287035
0.000267909
0.000245503
0.000230067
0.000227403
0.000235888
0.000242441
0.000218514
0.000144848
6.72132e-05
3.20498e-05
2.96109e-05
5.16312e-05
7.62729e-05
8.32362e-05
7.98874e-05
7.42338e-05
7.0272e-05
7.39953e-05
9.45334e-05
0.000133249
0.000138828
4.16717e-05
8.68159e-06
1.2477e-05
0.000114262
0.000235636
0.000249805
0.000247187
0.000245442
0.000251211
0.000265314
0.000285031
0.000305695
0.000321812
0.000327855
0.000319595
0.000297539
0.000270142
0.000249681
0.000243649
0.000250115
0.000252813
0.000217268
0.000130231
5.5745e-05
2.84068e-05
3.07015e-05
5.32005e-05
7.08819e-05
7.25127e-05
6.90979e-05
6.83565e-05
7.59771e-05
0.000100335
0.000141947
0.000146326
4.3254e-05
8.72543e-06
1.26777e-05
0.000123415
0.000241424
0.000251529
0.000247457
0.000246455
0.000254236
0.000270875
0.000293763
0.000319106
0.000342574
0.000359509
0.000364987
0.00035476
0.000328865
0.000295841
0.000269094
0.000257049
0.000256995
0.000250983
0.000206374
0.000118496
5.05942e-05
2.79511e-05
3.2161e-05
5.10694e-05
6.25946e-05
6.31787e-05
6.37486e-05
7.31508e-05
9.98733e-05
0.000141468
0.000144867
4.39431e-05
8.73877e-06
1.28297e-05
0.000134241
0.000248267
0.000253817
0.000248936
0.000250662
0.00026299
0.000284213
0.00031078
0.000338999
0.000365494
0.000387009
0.000400004
0.000400543
0.000385497
0.000356144
0.000321294
0.000293495
0.000279948
0.000275538
0.000257392
0.00019523
0.000103978
4.57634e-05
2.84608e-05
3.37923e-05
4.78278e-05
5.59026e-05
5.94467e-05
6.80624e-05
9.15959e-05
0.000130481
0.000139853
4.46324e-05
8.90198e-06
1.29585e-05
0.000147432
0.000252668
0.000252552
0.000247306
0.000253201
0.000271971
0.000299819
0.000331907
0.000364228
0.000393891
0.00041857
0.000435806
0.000442598
0.000435848
0.00041437
0.000382023
0.000348424
0.000323687
0.000310395
0.000296571
0.000254462
0.000168238
7.97381e-05
3.91133e-05
3.02434e-05
3.72973e-05
4.79984e-05
5.59832e-05
6.58926e-05
8.78574e-05
0.000128477
0.00014966
4.92247e-05
9.29666e-06
1.2933e-05
0.000157536
0.000253256
0.000249106
0.000245262
0.00025657
0.000282475
0.0003173
0.000355093
0.000391601
0.000424285
0.000451455
0.000471403
0.000481935
0.000480573
0.0004659
0.000439869
0.000409194
0.000382487
0.000363443
0.000343113
0.000297282
0.000207825
0.000106756
5.09463e-05
3.30002e-05
3.35278e-05
4.11648e-05
5.00305e-05
6.38208e-05
9.12268e-05
0.000136664
0.000157524
5.07234e-05
9.42834e-06
1.28919e-05
0.000167645
0.000254361
0.000247297
0.000244835
0.000260303
0.000291455
0.000331493
0.00037398
0.000414649
0.000451106
0.000481786
0.000505108
0.000519196
0.000522123
0.000512981
0.000493376
0.000468432
0.000444433
0.00042251
0.000391335
0.000327522
0.000221177
0.000112761
5.45505e-05
3.54426e-05
3.40112e-05
3.91224e-05
4.57974e-05
5.96006e-05
9.10998e-05
0.00013892
0.00014724
4.61972e-05
9.38211e-06