/*--------------------------------*- C++ -*----------------------------------*\
| =========                 |                                                 |
| \\      /  F ield         | OpenFOAM: The Open Source CFD Toolbox           |
|  \\    /   O peration     | Version:  v1906                                 |
|   \\  /    A nd           | Web:      www.OpenFOAM.com                      |
|    \\/     M anipulation  |                                                 |
\*---------------------------------------------------------------------------*/
FoamFile
{
    version     2.0;
    format      ascii;
    class       volVectorField;
    location    "18";
    object      U;
}
// * * * * * * * * * * * * * * * * * * * * * * * * * * * * * * * * * * * * * //

dimensions      [0 1 -1 0 0 0 0];


internalField   nonuniform List<vector> 
78750
(
(-0.160466 -0.183264 -0.406496)
(0.490954 -0.164731 -0.396561)
(0.573604 -0.176716 -0.402326)
(0.471687 -0.187075 -0.409064)
(0.409934 -0.179913 -0.408042)
(0.404645 -0.173286 -0.408963)
(0.420506 -0.160585 -0.406513)
(0.447687 -0.151063 -0.407235)
(0.467022 -0.139542 -0.406322)
(0.483606 -0.129463 -0.407721)
(0.492606 -0.118072 -0.408238)
(0.498362 -0.107126 -0.410264)
(0.499883 -0.095239 -0.41199)
(0.499821 -0.0836564 -0.414955)
(0.498505 -0.0713984 -0.41782)
(0.498247 -0.0596293 -0.421411)
(0.497724 -0.0474493 -0.425503)
(0.496724 -0.0360106 -0.429705)
(0.492058 -0.0235852 -0.43427)
(0.484813 -0.0105468 -0.437721)
(0.476093 0.00337109 -0.441084)
(0.469009 0.0176934 -0.44347)
(0.462106 0.0319129 -0.445981)
(0.454356 0.0456518 -0.449317)
(0.440281 0.058527 -0.453596)
(0.416075 0.0665942 -0.464062)
(0.380555 0.0703599 -0.471976)
(0.339243 0.0669306 -0.483862)
(0.297154 0.0668236 -0.480673)
(0.25475 0.0574865 -0.485274)
(0.212262 0.0549493 -0.459731)
(0.168198 0.0197193 -0.444652)
(0.123356 -0.0310608 -0.350018)
(0.0819982 -0.156326 -0.361809)
(0.0150305 -0.212459 -0.397322)
(-0.0273516 0.761861 -0.199572)
(-0.0980579 0.415543 0.0127641)
(-0.143532 0.548855 -0.00589815)
(-0.205374 0.593322 0.0104355)
(-0.231546 0.487609 -0.0492462)
(-0.247619 0.456801 -0.0432018)
(-0.264178 0.372366 -0.0487328)
(-0.25571 0.366689 0.00191123)
(-0.259829 0.309233 0.0127056)
(-0.245944 0.302249 0.0324376)
(-0.245153 0.265915 0.0152689)
(-0.218312 0.257276 0.0235036)
(-0.203292 0.246204 0.045924)
(-0.18185 0.243853 0.0716944)
(-0.151264 0.240792 0.0494114)
(-0.126074 0.243457 0.0769458)
(-0.0962471 0.246056 0.0806923)
(-0.0702532 0.24345 0.0909754)
(-0.0441391 0.226126 0.0995264)
(-0.0178967 0.199995 0.108154)
(0.00953291 0.176472 0.109482)
(0.0407388 0.166128 0.105181)
(0.0736126 0.179302 0.0960164)
(0.108915 0.218301 0.0812033)
(0.145052 0.297255 0.0626616)
(0.177595 0.399761 0.0174565)
(0.199194 0.491233 -0.0540328)
(0.205135 0.53762 -0.142705)
(0.199904 0.549121 -0.213297)
(0.188286 0.54299 -0.268662)
(0.173779 0.540218 -0.296472)
(0.157426 0.545297 -0.323609)
(0.133841 0.541944 -0.302869)
(0.0985629 0.606325 -0.290244)
(0.0287061 0.715738 -0.259326)
(-0.00206185 0.8888 -0.268518)
(-0.0333267 0.727758 -0.292951)
(-0.0452053 0.540931 -0.325815)
(-0.0311081 0.36977 -0.217052)
(-0.0138249 0.172538 -0.156658)
(0.0121126 0.080738 -0.0836531)
(0.0480481 -0.0156445 -0.0425759)
(0.0843907 -0.0775405 -0.0126405)
(0.126385 -0.140362 0.0113119)
(0.164636 -0.192279 0.0279619)
(0.200831 -0.236253 0.0445549)
(0.240337 -0.275494 0.0549132)
(0.279883 -0.3219 0.0662507)
(0.315434 -0.367011 0.083609)
(0.347647 -0.38269 0.0941489)
(0.37785 -0.403962 0.0970855)
(0.411143 -0.419399 0.116558)
(0.444577 -0.392474 0.131777)
(0.465551 -0.373549 0.134011)
(0.453917 -0.393038 0.134045)
(0.401648 -0.419902 0.155663)
(0.351424 -0.429045 0.177562)
(0.325261 -0.435366 0.163479)
(0.305871 -0.444069 0.126371)
(0.286456 -0.425228 0.119297)
(0.268992 -0.303094 0.162402)
(0.248692 -0.0619403 0.206483)
(0.218453 0.202481 0.173177)
(0.183591 0.405198 0.0743188)
(0.147931 0.516858 -0.0439622)
(0.116769 0.579555 -0.130674)
(0.090304 0.634337 -0.192312)
(0.0594333 0.71074 -0.204475)
(0.0340847 0.807284 -0.213825)
(0.00618658 0.851234 -0.195707)
(0.00826558 0.685321 -0.263016)
(0.0428292 0.497868 -0.271493)
(0.0591599 0.371871 -0.245942)
(0.0939907 0.197351 -0.0739633)
(0.145115 -0.0322906 0.0528094)
(0.192593 -0.216849 0.124594)
(0.234839 -0.34308 0.160125)
(0.271255 -0.422811 0.176657)
(0.302881 -0.468178 0.182489)
(0.326064 -0.489099 0.180225)
(0.337489 -0.495903 0.170945)
(0.337339 -0.493408 0.159371)
(0.326934 -0.490718 0.153983)
(0.306523 -0.477599 0.159315)
(0.281979 -0.42773 0.140178)
(0.244331 -0.407486 0.1507)
(0.202274 -0.327941 0.229881)
(0.173412 0.00420699 0.160128)
(0.140891 0.389005 -0.0283791)
(0.105278 0.575834 -0.0672166)
(0.0746089 0.552205 0.0610442)
(0.0461924 0.447471 0.179557)
(0.0179682 0.389179 0.217756)
(-0.0146714 0.400477 0.21096)
(-0.0452859 0.453962 0.181569)
(-0.0667228 0.537672 0.135662)
(-0.0798154 0.627878 0.0754714)
(-0.0849261 0.696768 0.00126751)
(-0.0842269 0.729406 -0.0701717)
(-0.0810517 0.732965 -0.124401)
(-0.0746924 0.733816 -0.15488)
(-0.0660402 0.74624 -0.173684)
(-0.0531187 0.773512 -0.180541)
(-0.0357669 0.800886 -0.192765)
(-0.0229005 0.767101 -0.176463)
(0.0145496 0.571789 -0.173237)
(0.0369714 0.504796 -0.0581427)
(0.0295567 0.341115 0.0600851)
(0.0492984 -0.117444 0.114315)
(0.0673938 -0.401923 0.100538)
(0.0760524 -0.481255 0.0791345)
(0.0761105 -0.474573 0.0654716)
(0.0692085 -0.43368 0.0542198)
(0.0552908 -0.360639 0.0300811)
(0.0386256 -0.266001 -0.0276575)
(0.0210005 -0.183302 -0.0825731)
(-0.00177635 -0.12642 -0.0737109)
(-0.0292836 -0.0830188 -0.0157436)
(-0.0563881 -0.0489624 0.0253766)
(-0.0819987 -0.0174691 0.0418117)
(-0.107166 0.0157986 0.0476497)
(-0.125267 0.0396523 0.0557758)
(-0.128269 0.0678905 0.0644347)
(-0.116413 0.0886481 0.0744318)
(-0.0923911 0.0607608 0.112223)
(-0.0678801 0.00514446 0.154521)
(-0.0507777 -0.0340433 0.179807)
(-0.0423655 -0.0412112 0.197046)
(-0.0393544 -0.0192644 0.211842)
(-0.0380271 0.0338936 0.220641)
(-0.0352095 0.124556 0.216648)
(-0.0287536 0.248073 0.194043)
(-0.0191086 0.386286 0.149769)
(-0.00936953 0.513489 0.0870015)
(-0.0045517 0.603178 0.0169145)
(-0.00551751 0.655369 -0.041229)
(-0.00610597 0.675362 -0.0853953)
(-0.00888341 0.695983 -0.128258)
(-0.00409765 0.720518 -0.180923)
(-0.00549941 0.661688 -0.159901)
(0.01398 0.451881 -0.0950084)
(0.016173 0.479851 0.044891)
(0.028728 0.151809 0.13189)
(0.0580891 -0.267313 0.156056)
(0.0617319 -0.422485 0.166173)
(0.0538109 -0.45228 0.175596)
(0.0413491 -0.443989 0.186132)
(0.0262894 -0.418856 0.198759)
(0.0128916 -0.378677 0.202153)
(0.00556407 -0.313352 0.169793)
(0.00517208 -0.228195 0.0931252)
(0.0082937 -0.162789 0.0215641)
(0.0123909 -0.13474 -0.00752202)
(0.0157223 -0.123007 -0.013886)
(0.0186496 -0.114609 -0.00935857)
(0.0216943 -0.0970698 0.00644778)
(0.0241447 -0.0635161 0.0274111)
(0.0272342 -0.0194154 0.0465299)
(0.030543 0.0248628 0.0633872)
(0.0319696 0.0620078 0.0791471)
(0.0288013 0.0931473 0.0940684)
(0.020233 0.120616 0.1108)
(0.0079184 0.144701 0.131873)
(-0.00561718 0.165008 0.156164)
(-0.0179225 0.182076 0.179562)
(-0.0260435 0.201285 0.19809)
(-0.0278263 0.235032 0.209536)
(-0.0220818 0.299804 0.210037)
(-0.00941265 0.404238 0.191444)
(0.00462543 0.527545 0.145626)
(0.0119771 0.626113 0.0763002)
(0.0116726 0.675009 -0.00343011)
(0.00328912 0.731624 -0.0847882)
(0.00172339 0.758495 -0.13152)
(-0.00164642 0.706085 -0.106557)
(0.00539765 0.38433 0.00923584)
(0.0147476 0.440649 0.128085)
(0.0509111 -0.0952104 0.167812)
(0.0437547 -0.370676 0.113132)
(0.0250536 -0.401467 0.0641299)
(0.00942067 -0.367467 0.0383571)
(-0.00647168 -0.311614 0.0289471)
(-0.0152111 -0.279445 0.0334421)
(-0.0186823 -0.272698 0.0503727)
(-0.0183753 -0.267766 0.0752181)
(-0.0141465 -0.248277 0.095503)
(-0.00689666 -0.210886 0.0985485)
(-0.000109543 -0.170239 0.0890374)
(0.00365193 -0.137286 0.0762512)
(0.00374891 -0.111698 0.0638112)
(0.00224327 -0.0901591 0.0532837)
(0.00118835 -0.0697331 0.0461487)
(0.00159027 -0.0481799 0.0428647)
(0.00347108 -0.0246697 0.0435191)
(0.0062329 -0.000333975 0.0479052)
(0.00875917 0.023582 0.0553407)
(0.0103007 0.0462808 0.0654254)
(0.0108142 0.0675377 0.0782766)
(0.010322 0.0872927 0.0942085)
(0.00879827 0.105549 0.113407)
(0.00629776 0.123348 0.135932)
(0.00330083 0.144714 0.161524)
(0.00108154 0.181156 0.188259)
(0.00164006 0.257811 0.209028)
(0.00610719 0.401103 0.20722)
(0.0105651 0.589168 0.16086)
(0.00517253 0.726573 0.0753332)
(-0.00333379 0.795279 0.00714414)
(-0.00509928 0.807019 -0.0164964)
(-0.00380627 0.733682 0.00821092)
(0.0128047 0.233082 0.101688)
(0.0607652 0.0693197 0.139457)
(0.107602 -0.178116 0.107425)
(0.12509 -0.275012 0.080894)
(0.126187 -0.31879 0.072895)
(0.127553 -0.34779 0.0719628)
(0.132657 -0.375361 0.0730271)
(0.138868 -0.396626 0.0743164)
(0.143676 -0.406921 0.0747082)
(0.146328 -0.406301 0.0747745)
(0.146944 -0.388788 0.0781869)
(0.145494 -0.341921 0.0887748)
(0.14202 -0.269358 0.100372)
(0.134992 -0.195822 0.103882)
(0.123698 -0.141501 0.0985657)
(0.109673 -0.107518 0.0885197)
(0.0950541 -0.0855949 0.0760712)
(0.0817639 -0.0676924 0.0598071)
(0.0714681 -0.0470084 0.0401657)
(0.0647117 -0.020248 0.0237545)
(0.0598395 0.00991047 0.0149768)
(0.0545171 0.0394933 0.0131558)
(0.0490277 0.0660783 0.0163421)
(0.0434553 0.0890042 0.0233473)
(0.0374331 0.108867 0.034543)
(0.0302708 0.127051 0.0521898)
(0.0212086 0.145508 0.0791318)
(0.0102758 0.16857 0.115582)
(-0.00161587 0.210691 0.158695)
(-0.0126219 0.309533 0.198607)
(-0.0183463 0.49973 0.205851)
(-0.0187928 0.696981 0.161962)
(-0.0193045 0.765621 0.12327)
(-0.0164678 0.759229 0.109153)
(-0.00698605 0.650167 0.111358)
(0.0173434 -0.238375 0.0534022)
(0.0429386 -0.464001 0.0196887)
(0.0555555 -0.535876 0.00350981)
(0.0620593 -0.548761 0.000724139)
(0.065151 -0.541387 0.000831732)
(0.065614 -0.522794 0.00249169)
(0.0640482 -0.495103 0.00570137)
(0.0608072 -0.462361 0.0102762)
(0.0559239 -0.429421 0.0162163)
(0.0494657 -0.397385 0.0244993)
(0.0419983 -0.360053 0.0377407)
(0.0356675 -0.303825 0.0574243)
(0.0324912 -0.222494 0.0768049)
(0.0310425 -0.131482 0.0855344)
(0.0279667 -0.0568167 0.0840389)
(0.0217928 -0.0113503 0.0819322)
(0.012172 0.0105754 0.0853546)
(-0.000624506 0.0161334 0.0912608)
(-0.0149045 0.0115938 0.0780331)
(-0.0272626 0.0195659 0.0469595)
(-0.035091 0.0445675 0.0367191)
(-0.0416698 0.0689234 0.0375493)
(-0.0475712 0.0921905 0.0418293)
(-0.0528924 0.117476 0.0493305)
(-0.0573965 0.147365 0.0599479)
(-0.058937 0.181272 0.073677)
(-0.0555062 0.216561 0.0908371)
(-0.0484489 0.254399 0.111639)
(-0.0415912 0.30827 0.136431)
(-0.0383446 0.394244 0.167338)
(-0.0387742 0.519052 0.195663)
(-0.0368808 0.640953 0.195639)
(-0.0305394 0.676596 0.180861)
(-0.0218844 0.653796 0.165915)
(-0.00577926 0.508045 0.131314)
(0.00515591 -0.184554 0.0171363)
(0.0115694 -0.307597 0.0182235)
(0.014573 -0.358444 0.0150012)
(0.0158898 -0.381976 0.0091672)
(0.0166271 -0.392974 0.00259038)
(0.0172964 -0.396656 -0.00445858)
(0.0181843 -0.394001 -0.0117581)
(0.0194687 -0.383542 -0.0188413)
(0.0209087 -0.363648 -0.024505)
(0.0215361 -0.337611 -0.0269041)
(0.0206141 -0.311961 -0.0239206)
(0.0183108 -0.287529 -0.0121978)
(0.0162676 -0.25434 0.0111952)
(0.0169429 -0.200502 0.0402491)
(0.0202746 -0.129622 0.0624844)
(0.0239766 -0.0572388 0.0714896)
(0.025875 0.00184847 0.0697761)
(0.0240481 0.0402351 0.0637112)
(0.0180079 0.060275 0.0570187)
(0.00879225 0.0706714 0.051321)
(-0.00209851 0.0789741 0.0492726)
(-0.0129335 0.0899462 0.0531275)
(-0.0236171 0.104394 0.0637147)
(-0.0342027 0.115653 0.0796158)
(-0.0442018 0.11238 0.0982479)
(-0.0533941 0.0846046 0.118762)
(-0.0598957 0.033843 0.137707)
(-0.0613433 0.00540543 0.146356)
(-0.0597033 0.0626742 0.147336)
(-0.0515081 0.208206 0.155253)
(-0.0344131 0.384457 0.173121)
(-0.0162467 0.53985 0.186267)
(-0.00887314 0.563264 0.180258)
(-0.00481807 0.543953 0.167048)
(0.00148118 0.407216 0.118063)
(0.00307438 -0.354014 0.00404803)
(0.0132076 -0.52173 0.00129857)
(0.0205419 -0.554512 0.00344186)
(0.0265568 -0.558759 0.00664856)
(0.0319682 -0.553492 0.00992014)
(0.0362592 -0.542232 0.0121998)
(0.0393055 -0.526067 0.0125146)
(0.0411389 -0.504568 0.00999796)
(0.0418409 -0.474897 0.00370972)
(0.0414835 -0.432705 -0.00695091)
(0.0399131 -0.380085 -0.0200912)
(0.0370597 -0.328762 -0.0306305)
(0.0336417 -0.286515 -0.0333953)
(0.0309266 -0.24908 -0.0247872)
(0.0304984 -0.206036 -0.00385616)
(0.033108 -0.151131 0.0230857)
(0.0372514 -0.0886794 0.0452534)
(0.0405299 -0.0290301 0.0565274)
(0.0416705 0.0197042 0.058008)
(0.0405534 0.0557951 0.0541736)
(0.0375852 0.0819255 0.0490891)
(0.0336791 0.101338 0.045283)
(0.0295143 0.116586 0.0440633)
(0.0252056 0.12903 0.0459661)
(0.0201946 0.137879 0.050837)
(0.0133035 0.140324 0.0576944)
(0.00291295 0.13471 0.0653064)
(-0.0124261 0.122813 0.0738063)
(-0.0297877 0.107597 0.0879255)
(-0.0406089 0.0988459 0.109951)
(-0.034591 0.139536 0.131089)
(-0.0119857 0.304612 0.153029)
(0.00325192 0.490953 0.163189)
(0.00344613 0.493605 0.150653)
(0.0041718 0.391716 0.106514)
(0.00434382 -0.31363 -0.00462991)
(0.0108883 -0.452407 -0.00686626)
(0.0138598 -0.488678 -0.00941753)
(0.0152492 -0.497528 -0.0121258)
(0.0159422 -0.495949 -0.0153583)
(0.0160937 -0.486486 -0.0191951)
(0.0156666 -0.468283 -0.023722)
(0.0145039 -0.439555 -0.0291062)
(0.0124868 -0.400136 -0.0351143)
(0.00991001 -0.353025 -0.0409026)
(0.00744529 -0.303064 -0.0457295)
(0.0054039 -0.257331 -0.0486657)
(0.00374227 -0.221495 -0.0485926)
(0.00250425 -0.194151 -0.0449061)
(0.00186036 -0.169036 -0.036058)
(0.00255148 -0.137833 -0.0190124)
(0.00535571 -0.094332 0.00477189)
(0.00931624 -0.0424231 0.0260033)
(0.0128403 0.00706599 0.0376602)
(0.0153124 0.046423 0.0405099)
(0.0168214 0.0747432 0.0388895)
(0.0176061 0.0947765 0.0361472)
(0.0178863 0.109552 0.0338173)
(0.0177688 0.121268 0.0325084)
(0.0171568 0.131261 0.0326166)
(0.0156922 0.139993 0.034566)
(0.0128131 0.147058 0.0387122)
(0.00804837 0.151271 0.0452174)
(0.00131521 0.150287 0.0545172)
(-0.00749303 0.138719 0.0675334)
(-0.0152421 0.116127 0.0824505)
(-0.0169381 0.150511 0.103801)
(-0.00115868 0.375019 0.136162)
(0.00426588 0.451963 0.130237)
(0.00225001 0.388279 0.0906184)
(0.00477158 -0.422485 0.00507297)
(0.00922781 -0.540623 0.00949733)
(0.0110283 -0.55526 0.0111738)
(0.0114962 -0.552781 0.0118205)
(0.0111757 -0.543096 0.0112208)
(0.00995176 -0.527114 0.00878627)
(0.00784512 -0.503947 0.00356355)
(0.00489602 -0.47169 -0.00559564)
(0.00129355 -0.429936 -0.01875)
(-0.00248318 -0.381717 -0.0333)
(-0.00562131 -0.331833 -0.0453288)
(-0.00757376 -0.285835 -0.0523872)
(-0.00853235 -0.248538 -0.0542605)
(-0.00889593 -0.220258 -0.0521331)
(-0.00888048 -0.197237 -0.0467595)
(-0.00841485 -0.173851 -0.0369962)
(-0.00694029 -0.142976 -0.0201434)
(-0.0039876 -0.100124 0.0024629)
(-0.000407436 -0.0509508 0.0221476)
(0.00269628 -0.00584501 0.0329327)
(0.00501802 0.0297943 0.036021)
(0.00675594 0.0563583 0.0351032)
(0.0080529 0.076513 0.0328289)
(0.00896161 0.0929676 0.0305369)
(0.00947239 0.107988 0.029028)
(0.00949662 0.123142 0.0291972)
(0.00885742 0.138089 0.0319248)
(0.00745734 0.149714 0.0368856)
(0.00552553 0.154875 0.0426857)
(0.00277349 0.151743 0.0491856)
(-0.00104843 0.136881 0.0570711)
(-0.00727701 0.130405 0.0705896)
(-0.00301349 0.25405 0.10165)
(0.00361064 0.409276 0.108532)
(-0.000356153 0.373285 0.0717383)
(-0.00123982 -0.398475 0.00792667)
(-0.00446167 -0.49047 0.00575331)
(-0.00631097 -0.501681 0.00456762)
(-0.0081841 -0.498709 0.00387817)
(-0.0101515 -0.488027 0.00327094)
(-0.0119823 -0.469378 0.00226659)
(-0.0135928 -0.440715 -0.00013195)
(-0.0147435 -0.400399 -0.00538532)
(-0.015172 -0.351816 -0.0142646)
(-0.0149392 -0.303603 -0.0251642)
(-0.0143578 -0.262504 -0.0349966)
(-0.013673 -0.229692 -0.0417228)
(-0.0130286 -0.203761 -0.0449717)
(-0.0125422 -0.183157 -0.0452431)
(-0.0122257 -0.165986 -0.0430744)
(-0.0119316 -0.149389 -0.0382564)
(-0.0113097 -0.129002 -0.0291728)
(-0.00971309 -0.0993274 -0.0137098)
(-0.00694915 -0.0596468 0.00535692)
(-0.00396556 -0.0181832 0.0204763)
(-0.00174653 0.0167197 0.0283761)
(-0.000306233 0.0432274 0.0309996)
(0.000646737 0.0636557 0.0310495)
(0.00125795 0.0807677 0.0302105)
(0.00166839 0.0965933 0.029512)
(0.00201378 0.111888 0.0297929)
(0.0023958 0.125442 0.0315243)
(0.00277946 0.134758 0.034304)
(0.00304998 0.138397 0.0374266)
(0.00299365 0.13587 0.0409922)
(0.00227882 0.126601 0.045672)
(-0.000297753 0.121762 0.0544824)
(-0.00165945 0.20709 0.0780482)
(0.000778582 0.378936 0.0902897)
(-6.46898e-05 0.357802 0.0576086)
(-0.00245483 -0.382284 0.00585444)
(-0.00348981 -0.495696 0.00323414)
(-0.00367503 -0.512877 0.00299076)
(-0.00355637 -0.513869 0.00369357)
(-0.00342938 -0.507781 0.00508977)
(-0.0032958 -0.49585 0.00699071)
(-0.00298432 -0.478159 0.00900922)
(-0.00217833 -0.453407 0.0102624)
(-0.00056822 -0.419143 0.00899157)
(0.00189521 -0.375102 0.00331682)
(0.00447789 -0.326613 -0.00640928)
(0.00621676 -0.281104 -0.0171552)
(0.006842 -0.243006 -0.0257549)
(0.00655741 -0.213056 -0.0308737)
(0.00570476 -0.189908 -0.0327491)
(0.00464992 -0.171173 -0.03201)
(0.00372426 -0.153456 -0.0286747)
(0.0033491 -0.131825 -0.0214572)
(0.0041753 -0.100501 -0.0085248)
(0.00625311 -0.059717 0.0075861)
(0.00853448 -0.018584 0.0203719)
(0.0100586 0.0152372 0.0272925)
(0.0106756 0.0408194 0.0300108)
(0.0107409 0.0604515 0.030658)
(0.0105985 0.0766554 0.0305973)
(0.0105001 0.0909189 0.0306259)
(0.010604 0.103181 0.0311808)
(0.0108715 0.112193 0.0322709)
(0.0110794 0.117028 0.0336753)
(0.010917 0.117777 0.0353696)
(0.0102458 0.115395 0.0375173)
(0.00872252 0.116354 0.0419027)
(0.00418703 0.186661 0.0593056)
(0.00132406 0.348102 0.0730696)
(0.00120433 0.341102 0.0464598)
(-0.000456025 -0.362711 -0.00316909)
(0.000954006 -0.478304 -0.00824569)
(0.00242712 -0.495879 -0.00895157)
(0.00410545 -0.495968 -0.00858957)
(0.0058975 -0.488067 -0.00741014)
(0.00751361 -0.473408 -0.00528209)
(0.00887175 -0.45242 -0.00211229)
(0.0100463 -0.425247 0.00194734)
(0.0112771 -0.391416 0.00614394)
(0.0128661 -0.349704 0.00856971)
(0.0148065 -0.300699 0.00653662)
(0.0164867 -0.250556 -0.000632833)
(0.0171444 -0.207401 -0.00995075)
(0.0165633 -0.174691 -0.0177642)
(0.0150352 -0.151202 -0.0225423)
(0.0129886 -0.134084 -0.024448)
(0.0108256 -0.120504 -0.0239721)
(0.00885698 -0.107448 -0.0210236)
(0.00748349 -0.090615 -0.0143466)
(0.00750007 -0.0646622 -0.00252022)
(0.00898445 -0.030278 0.011436)
(0.0107126 0.00406553 0.0219526)
(0.0118534 0.0322258 0.0275138)
(0.0123592 0.0536263 0.0297251)
(0.0124414 0.0699762 0.0303381)
(0.0123356 0.08279 0.0304073)
(0.0122152 0.0927082 0.030453)
(0.0121244 0.0997954 0.0306629)
(0.0119741 0.104166 0.0310751)
(0.0116094 0.106311 0.0317522)
(0.0110071 0.107746 0.0329045)
(0.00985165 0.117246 0.0362323)
(0.00563914 0.205237 0.0509267)
(0.00149472 0.347249 0.0614956)
(0.00106147 0.336605 0.0392791)
(0.00151766 -0.384897 -0.00491803)
(0.00449987 -0.51042 -0.00783192)
(0.00663553 -0.530084 -0.00837505)
(0.00860312 -0.530768 -0.00838591)
(0.0106318 -0.523421 -0.00806463)
(0.0123724 -0.509788 -0.00726155)
(0.0136552 -0.490844 -0.00573692)
(0.0143928 -0.467257 -0.00322136)
(0.0145737 -0.438729 0.000475005)
(0.0143539 -0.402877 0.00504319)
(0.0141449 -0.355978 0.0084776)
(0.0143183 -0.299248 0.00717165)
(0.0146372 -0.242599 0.000451125)
(0.0146756 -0.195705 -0.00800115)
(0.0143359 -0.161022 -0.0147163)
(0.0136988 -0.136337 -0.0186578)
(0.0128853 -0.11848 -0.0201993)
(0.0120474 -0.104552 -0.0198717)
(0.0113229 -0.0915374 -0.0176042)
(0.0109263 -0.0753121 -0.0121657)
(0.0113771 -0.0509916 -0.00195938)
(0.012717 -0.0196536 0.0105382)
(0.014087 0.0111806 0.020425)
(0.0149223 0.0366557 0.0262271)
(0.0152268 0.0562832 0.0290454)
(0.0152109 0.0711341 0.0302241)
(0.0150207 0.0821814 0.0306332)
(0.0147112 0.0900788 0.0307349)
(0.014261 0.095421 0.0307673)
(0.0136199 0.0989676 0.0308828)
(0.0127825 0.102584 0.0313096)
(0.011365 0.116569 0.0334229)
(0.00729589 0.211201 0.0437484)
(0.00308159 0.343169 0.0506836)
(0.00130768 0.331217 0.0327353)
(0.00222541 -0.403668 -0.00428289)
(0.00275879 -0.511792 -0.00753115)
(0.00288125 -0.525284 -0.00831564)
(0.00274872 -0.521948 -0.00852074)
(0.00256758 -0.510173 -0.00844325)
(0.00236297 -0.490887 -0.00807077)
(0.00208066 -0.464352 -0.00739009)
(0.00160279 -0.431223 -0.00638713)
(0.000771528 -0.393123 -0.0050301)
(-0.000465707 -0.351845 -0.00330857)
(-0.00188244 -0.307817 -0.00163942)
(-0.00286062 -0.260818 -0.001599)
(-0.00293531 -0.214343 -0.00465936)
(-0.00225495 -0.174744 -0.00948388)
(-0.00123028 -0.144687 -0.0136523)
(-0.00018929 -0.122731 -0.0161496)
(0.000712045 -0.106398 -0.0170908)
(0.00142666 -0.0934602 -0.0168112)
(0.00201031 -0.0817973 -0.0153606)
(0.00259755 -0.068832 -0.0121742)
(0.00343942 -0.051157 -0.00602919)
(0.00480672 -0.026861 0.00329309)
(0.00645629 0.000442257 0.0129317)
(0.00796826 0.0252255 0.0200981)
(0.00920778 0.0451191 0.0244859)
(0.0101295 0.0602766 0.0269506)
(0.0107402 0.0715044 0.0283028)
(0.0110662 0.0796163 0.0290679)
(0.0111252 0.0853923 0.0295623)
(0.010949 0.0897749 0.0299968)
(0.0105266 0.095455 0.0307219)
(0.00934839 0.117616 0.0333242)
(0.00474954 0.228172 0.0422759)
(0.000391648 0.353518 0.0463798)
(0.000184529 0.332327 0.0297164)
(-0.00149989 -0.410943 -0.000548355)
(-0.00572986 -0.516373 -0.00335376)
(-0.00847766 -0.528994 -0.00337738)
(-0.0109197 -0.526338 -0.00251319)
(-0.013213 -0.516318 -0.000845333)
(-0.0149386 -0.500168 0.00154541)
(-0.0160567 -0.47817 0.00441231)
(-0.0165552 -0.449936 0.00732531)
(-0.0164339 -0.414971 0.00967982)
(-0.0157727 -0.373634 0.0108321)
(-0.0146786 -0.327692 0.0103439)
(-0.0131419 -0.280016 0.00806762)
(-0.0110761 -0.234375 0.00414455)
(-0.00859874 -0.194798 -0.000526756)
(-0.00604413 -0.163209 -0.00462947)
(-0.00369035 -0.13887 -0.00746325)
(-0.00166806 -0.120007 -0.00899458)
(-2.30596e-05 -0.104844 -0.00941459)
(0.00125928 -0.0916206 -0.00882407)
(0.00227407 -0.0782565 -0.00701585)
(0.00315907 -0.0621675 -0.00335387)
(0.00410759 -0.0411947 0.00275835)
(0.00529053 -0.0163216 0.0103722)
(0.00649622 0.00838432 0.0172313)
(0.0074741 0.0297827 0.0221354)
(0.00814956 0.047052 0.0252508)
(0.00843695 0.0605536 0.0271702)
(0.0082754 0.0709365 0.0284175)
(0.00762597 0.0789553 0.0293786)
(0.00652989 0.0859517 0.030372)
(0.00493079 0.0965456 0.0319213)
(0.00370108 0.13245 0.0353214)
(0.00331789 0.256806 0.0416295)
(0.00218005 0.351952 0.0405888)
(0.00139969 0.320673 0.0269293)
(-0.00244425 -0.377126 -0.00178848)
(-0.00640239 -0.484677 -0.00756263)
(-0.00885847 -0.501309 -0.00853886)
(-0.0107783 -0.501861 -0.00814308)
(-0.0124604 -0.495022 -0.00664231)
(-0.0136029 -0.481991 -0.00397263)
(-0.0142155 -0.463114 -0.000108536)
(-0.0143246 -0.438491 0.00481774)
(-0.0138525 -0.408242 0.0103514)
(-0.0126259 -0.372722 0.0156203)
(-0.010513 -0.332938 0.0195002)
(-0.00759291 -0.29084 0.0210726)
(-0.00417991 -0.249125 0.0200421)
(-0.000726734 -0.210765 0.0169069)
(0.00232477 -0.177988 0.0128169)
(0.00472987 -0.151303 0.00891576)
(0.00648897 -0.129806 0.00584236)
(0.00772042 -0.112059 0.00377921)
(0.0085553 -0.0965052 0.00271715)
(0.00911736 -0.0814812 0.00268938)
(0.00954258 -0.0652224 0.00390335)
(0.0100233 -0.04628 0.00665417)
(0.0108126 -0.024583 0.0108304)
(0.0120863 -0.00199873 0.0154924)
(0.0136784 0.0191392 0.0195365)
(0.0152227 0.037656 0.0225059)
(0.0165759 0.0534946 0.0244738)
(0.0177222 0.0671721 0.0256642)
(0.0185708 0.079252 0.0262902)
(0.0188494 0.0900102 0.0265536)
(0.0183999 0.0993122 0.026854)
(0.0172182 0.1113 0.0287681)
(0.0132202 0.210072 0.0415842)
(0.0100579 0.351033 0.0469748)
(0.00426429 0.336941 0.0321194)
(-0.00300168 -0.366072 -0.00434637)
(-0.00522309 -0.490552 -0.00997956)
(-0.00594378 -0.512049 -0.0113816)
(-0.00596005 -0.515481 -0.0120687)
(-0.00552499 -0.511429 -0.0123607)
(-0.0046051 -0.501384 -0.0120985)
(-0.00325349 -0.485865 -0.010917)
(-0.00156845 -0.465338 -0.00832419)
(0.000342606 -0.44037 -0.0038485)
(0.00249326 -0.411263 0.00272274)
(0.00502546 -0.37773 0.0110332)
(0.00810968 -0.339389 0.0199147)
(0.0118019 -0.297003 0.0275392)
(0.0158278 -0.25329 0.0321852)
(0.0196047 -0.212249 0.0332057)
(0.0225269 -0.177195 0.03133)
(0.0242897 -0.149248 0.0279851)
(0.0249917 -0.127448 0.0244175)
(0.0249715 -0.109816 0.0213234)
(0.024608 -0.0943015 0.0189825)
(0.0242335 -0.0791648 0.0175179)
(0.0241296 -0.0631829 0.0170258)
(0.0244897 -0.0459894 0.0175052)
(0.0253154 -0.0282809 0.0187034)
(0.026447 -0.0114373 0.0201452)
(0.0278172 0.00330067 0.0213914)
(0.0294525 0.0155408 0.0221961)
(0.0312919 0.0258672 0.0225096)
(0.0331067 0.0354265 0.0223585)
(0.0343296 0.0463881 0.0217839)
(0.03342 0.0661848 0.0208168)
(0.0279129 0.124148 0.0187632)
(0.00913956 0.242513 0.024615)
(-0.00191494 0.36499 0.0351202)
(-0.00160241 0.35052 0.0236559)
(-0.00113067 -0.349827 -0.00419055)
(-0.000925764 -0.489604 -0.00678466)
(-9.41244e-05 -0.518865 -0.00776714)
(0.00123091 -0.525639 -0.00891705)
(0.00298259 -0.523637 -0.0104375)
(0.00505619 -0.514802 -0.0123621)
(0.0073976 -0.499389 -0.0145371)
(0.00990517 -0.477546 -0.0165635)
(0.012339 -0.450296 -0.0177342)
(0.0143837 -0.419758 -0.0171034)
(0.0158563 -0.388038 -0.0137317)
(0.0168867 -0.355665 -0.00698657)
(0.017906 -0.321242 0.00310072)
(0.019415 -0.282896 0.0153445)
(0.0215897 -0.240618 0.0273475)
(0.0240167 -0.197404 0.0365679)
(0.0258738 -0.157829 0.0416816)
(0.0264197 -0.125338 0.0430011)
(0.0253826 -0.100495 0.0418416)
(0.0229689 -0.0814551 0.0395825)
(0.0196301 -0.0656515 0.0371741)
(0.0159185 -0.050974 0.0351379)
(0.0123406 -0.0361101 0.0337122)
(0.00913026 -0.020491 0.0329893)
(0.00610729 -0.00423117 0.033048)
(0.00327714 0.0118695 0.0340503)
(0.000345277 0.0265388 0.0360995)
(-0.00333376 0.039433 0.0393066)
(-0.00822922 0.05389 0.043637)
(-0.0145171 0.0832479 0.0482122)
(-0.0208254 0.155895 0.0497442)
(-0.0197482 0.29127 0.0429118)
(-0.0132055 0.421891 0.0271664)
(-0.00996592 0.432784 0.012933)
(-0.00229992 0.333103 0.00624596)
(-0.000286248 -0.364061 -0.00256702)
(0.00100748 -0.513897 -0.00256851)
(0.0029572 -0.548495 -0.00271853)
(0.00515051 -0.557755 -0.00332589)
(0.00778945 -0.557373 -0.00439168)
(0.0107681 -0.549928 -0.00601181)
(0.0140546 -0.535716 -0.00830465)
(0.0177212 -0.514075 -0.011393)
(0.0217445 -0.484289 -0.015292)
(0.0258202 -0.44725 -0.0196552)
(0.02936 -0.406602 -0.0235796)
(0.0318224 -0.36731 -0.0257952)
(0.0331302 -0.332399 -0.0251288)
(0.0337235 -0.301172 -0.0207063)
(0.0342958 -0.270143 -0.0119385)
(0.0354752 -0.23534 0.000894251)
(0.0373952 -0.195099 0.0157599)
(0.0394797 -0.151739 0.0294569)
(0.0407957 -0.110432 0.0393796)
(0.0406457 -0.0760096 0.0446957)
(0.0389996 -0.0502925 0.0462843)
(0.0364119 -0.0318552 0.045683)
(0.0335893 -0.0178035 0.0440723)
(0.0311436 -0.00528244 0.0419943)
(0.0296237 0.00816157 0.0395777)
(0.0291769 0.0246496 0.0368597)
(0.028778 0.0458941 0.0341311)
(0.0274428 0.0727655 0.0323177)
(0.0233835 0.0997599 0.0332729)
(0.017483 0.113367 0.0380667)
(0.0122667 0.11388 0.0458277)
(0.009947 0.11374 0.0551882)
(0.0137112 0.15906 0.0659789)
(0.0197649 0.304066 0.0720919)
(0.0104321 0.299619 0.0537518)
(-0.00094696 -0.361635 -0.00350218)
(0.00103168 -0.524144 -0.00708786)
(0.00411892 -0.566336 -0.00866305)
(0.00733715 -0.579802 -0.00957194)
(0.0108461 -0.582448 -0.0102429)
(0.0144979 -0.577746 -0.0108294)
(0.0181984 -0.566577 -0.0114482)
(0.0220344 -0.548778 -0.0122539)
(0.0261927 -0.523174 -0.0135149)
(0.0308331 -0.488155 -0.0156454)
(0.0358318 -0.443885 -0.018964)
(0.0406235 -0.394474 -0.0231769)
(0.0444548 -0.34672 -0.0272425)
(0.0469512 -0.306056 -0.0299376)
(0.0484218 -0.273726 -0.0303967)
(0.0495993 -0.247152 -0.0279774)
(0.0512925 -0.221914 -0.02178)
(0.0542003 -0.193501 -0.010952)
(0.0584208 -0.159634 0.00361399)
(0.063057 -0.12277 0.0186267)
(0.0667397 -0.0891612 0.0304724)
(0.0687156 -0.0641376 0.0374454)
(0.0693698 -0.0482297 0.0401705)
(0.0695379 -0.0384739 0.0402395)
(0.0698295 -0.0318216 0.0387167)
(0.0705551 -0.0256682 0.0357855)
(0.071863 -0.0148253 0.0301743)
(0.073187 0.00794715 0.0206337)
(0.0725601 0.0410949 0.00894573)
(0.067683 0.0796005 -0.00301574)
(0.0563708 0.119906 -0.0140791)
(0.040216 0.157974 -0.0205858)
(0.0160512 0.220766 0.0057515)
(0.00516473 0.363498 0.0553972)
(0.000739784 0.390228 0.0450173)
(-0.000384849 -0.366922 -0.0111724)
(0.00391448 -0.544914 -0.0224008)
(0.00868112 -0.593638 -0.0269435)
(0.0131931 -0.608969 -0.0292313)
(0.017589 -0.611636 -0.0306759)
(0.0215948 -0.605909 -0.0316264)
(0.0249293 -0.593048 -0.0321199)
(0.0275281 -0.57352 -0.0320792)
(0.0294529 -0.547193 -0.0314468)
(0.030896 -0.513117 -0.030393)
(0.032156 -0.470133 -0.0295169)
(0.0334658 -0.419153 -0.0296)
(0.0347019 -0.364852 -0.0307898)
(0.0353685 -0.313832 -0.0323089)
(0.0349889 -0.270939 -0.0331079)
(0.0334961 -0.23707 -0.0324315)
(0.0312063 -0.209645 -0.0296601)
(0.0285568 -0.184301 -0.0237497)
(0.0261844 -0.156157 -0.0131504)
(0.0249264 -0.122049 0.0023928)
(0.0248089 -0.0842433 0.0199071)
(0.0245854 -0.0497504 0.0354642)
(0.0229118 -0.0247579 0.0472287)
(0.0193274 -0.00994141 0.0561178)
(0.0137446 -0.00255694 0.0640416)
(0.0059531 0.00208809 0.0715368)
(-0.00377341 0.0222404 0.0706901)
(-0.0133042 0.0806528 0.0509246)
(-0.0190744 0.171686 0.0139101)
(-0.0196474 0.271758 -0.0287617)
(-0.0177133 0.350437 -0.0604158)
(-0.0178222 0.395489 -0.0691771)
(-0.020459 0.422866 -0.0492431)
(-0.0189334 0.442444 -0.018098)
(-0.00808619 0.366427 -0.00573373)
(0.00172162 -0.380923 -0.0202963)
(0.00952871 -0.567854 -0.0345959)
(0.0164139 -0.617903 -0.0402537)
(0.0222819 -0.631576 -0.0435282)
(0.0276989 -0.631362 -0.0463056)
(0.0324105 -0.621741 -0.0491087)
(0.0360136 -0.60405 -0.0518368)
(0.0383896 -0.579202 -0.0539504)
(0.0396003 -0.547985 -0.0548065)
(0.039853 -0.510725 -0.0540957)
(0.0394587 -0.467298 -0.0521402)
(0.0388002 -0.418073 -0.0498986)
(0.0382274 -0.365143 -0.0483458)
(0.0378804 -0.312235 -0.047694)
(0.0376333 -0.263351 -0.0474628)
(0.0372222 -0.221575 -0.047094)
(0.0364649 -0.188348 -0.0462723)
(0.0354126 -0.163059 -0.0448118)
(0.0342788 -0.143185 -0.042352)
(0.033304 -0.124823 -0.0379938)
(0.0327958 -0.103099 -0.030115)
(0.0329224 -0.073789 -0.0175932)
(0.0330978 -0.0375418 -0.00222277)