/*--------------------------------*- C++ -*----------------------------------*\
| =========                 |                                                 |
| \\      /  F ield         | OpenFOAM: The Open Source CFD Toolbox           |
|  \\    /   O peration     | Version:  v1906                                 |
|   \\  /    A nd           | Web:      www.OpenFOAM.com                      |
|    \\/     M anipulation  |                                                 |
\*---------------------------------------------------------------------------*/
FoamFile
{
    version     2.0;
    format      ascii;
    class       volScalarField;
    location    "76";
    object      k;
}
// * * * * * * * * * * * * * * * * * * * * * * * * * * * * * * * * * * * * * //

dimensions      [0 2 -2 0 0 0 0];


internalField   nonuniform List<scalar> 
78750
(
2.00029
0.662408
0.321418
0.110342
0.00988081
0.00174844
0.00324877
0.00162304
0.00234475
0.00190129
0.00208544
0.00176666
0.00178679
0.0016647
0.00159495
0.00150895
0.00143038
0.00135307
0.001278
0.00120542
0.00113413
0.00106287
0.00099228
0.000923511
0.000857063
0.000792938
0.000730669
0.000669304
0.000607098
0.000540604
0.000468597
0.000387246
0.000284176
0.000123593
4.51681e-05
0.0642251
0.0120452
0.0127531
0.000605521
0.00303559
0.00457021
0.00386122
0.00401184
0.00373414
0.00365487
0.00347717
0.00337687
0.00326221
0.00316392
0.0030698
0.0029812
0.00289578
0.00281238
0.00272985
0.00264743
0.00256467
0.00248079
0.00239459
0.00230508
0.00221103
0.00211119
0.00200483
0.00189215
0.00177482
0.00165126
0.00152137
0.00139364
0.00124616
0.0010118
0.000784707
0.00190874
0.00323637
0.00431389
0.00392802
0.00314642
0.00311948
0.00334503
0.00340008
0.00341515
0.0033522
0.0032894
0.00321745
0.00315149
0.0030919
0.00303823
0.00298897
0.00294178
0.00289368
0.00284243
0.00278493
0.00271802
0.00264106
0.00254989
0.00244309
0.00231275
0.00215252
0.0019681
0.00176693
0.001548
0.00130317
0.00103118
0.000741685
0.000363379
0.000375551
0.00200895
0.000751311
0.00181878
0.00232914
0.00292971
0.00348872
0.00379896
0.00391744
0.00391832
0.00383934
0.00372807
0.00359593
0.00345565
0.00331567
0.00318514
0.00307032
0.0029723
0.0028892
0.00281851
0.00275786
0.00270483
0.00265661
0.00260989
0.0025612
0.00250673
0.00244259
0.00236411
0.00226545
0.00214004
0.00198031
0.00177418
0.00150162
0.00113828
0.000493297
7.483e-05
0.0022511
0.00168602
0.00371915
0.00414811
0.00409372
0.00388397
0.00367217
0.00350117
0.00336263
0.00324516
0.0031427
0.00305644
0.00298617
0.00292973
0.00288357
0.00284425
0.0028093
0.00277719
0.00274687
0.00271754
0.00268844
0.00265875
0.00262743
0.00259311
0.00255407
0.00250819
0.00245315
0.00238714
0.00230992
0.00222247
0.00212294
0.00200005
0.00180821
0.00138437
0.000837768
0.00380835
0.00141401
0.00264702
0.00328529
0.0036638
0.00392223
0.00411067
0.0042343
0.00427718
0.00422882
0.00410191
0.00392546
0.00373148
0.0035455
0.00338192
0.00324469
0.00313153
0.00303798
0.00295929
0.00289077
0.00282792
0.00276642
0.00270217
0.00263106
0.002549
0.00245192
0.00233587
0.00219702
0.00203157
0.00183544
0.00160482
0.00133204
0.000979309
0.000606747
0.000971077
0.00399869
0.00204045
0.00354204
0.00392115
0.00399488
0.00397325
0.0039061
0.00381812
0.00373266
0.0036657
0.00361731
0.00357643
0.00353206
0.00348041
0.00342467
0.00337042
0.0033217
0.00327991
0.00324474
0.00321519
0.00318975
0.00316648
0.00314308
0.00311638
0.00308219
0.00303507
0.00296859
0.00287596
0.00275056
0.00258667
0.00237809
0.00209791
0.00161375
0.00052774
0.00103514
0.00493203
0.00213486
0.00325539
0.00371605
0.00392324
0.00403647
0.00409949
0.0041151
0.00407849
0.00399471
0.00388283
0.00376509
0.00365535
0.00355767
0.00347126
0.00339486
0.00332818
0.00327132
0.00322401
0.00318535
0.00315412
0.00312891
0.00310815
0.00309002
0.00307233
0.0030523
0.00302664
0.0029916
0.00294297
0.002877
0.00278883
0.00266332
0.00242596
0.00163469
0.00123543
0.00491748
0.00276583
0.00388887
0.00414052
0.0041985
0.00419204
0.0041404
0.00404992
0.00393276
0.00380719
0.00369035
0.00359335
0.00351983
0.00346741
0.00343099
0.00340561
0.00338737
0.00337337
0.00336143
0.00334981
0.00333699
0.00332139
0.00330129
0.00327466
0.0032392
0.00319254
0.0031321
0.00305552
0.00296045
0.00284474
0.00270239
0.0025087
0.00217372
0.00145325
0.00162109
0.00566607
0.00258043
0.00351464
0.00388649
0.00405239
0.00414139
0.00418628
0.00419111
0.00415638
0.00408835
0.00399991
0.00390445
0.00381147
0.00372692
0.00365436
0.00359522
0.00354914
0.0035146
0.00348957
0.00347186
0.00345929
0.00344954
0.00344005
0.00342791
0.00340978
0.00338184
0.00333999
0.00327995
0.00319781
0.00309107
0.00295625
0.00277538
0.00245999
0.00177247
0.00183017
0.0057864
0.00327382
0.0041159
0.00428357
0.00431593
0.00429947
0.00424215
0.00414432
0.00401522
0.00387689
0.00375543
0.00366719
0.00361254
0.00358274
0.00356859
0.00356349
0.0035632
0.00356516
0.00356789
0.00357048
0.00357218
0.00357206
0.0035689
0.00356095
0.00354588
0.0035208
0.00348216
0.00342599
0.00334871
0.00324723
0.00311246
0.00290983
0.00250396
0.00167431
0.00216465
0.0066271
0.00293622
0.00378832
0.00411006
0.00424793
0.00431891
0.00434845
0.00433851
0.00428928
0.00420634
0.00410157
0.00399205
0.00389505
0.00382099
0.00377146
0.00374267
0.00372945
0.00372714
0.00373198
0.0037409
0.00375133
0.00376098
0.00376762
0.00376898
0.00376253
0.00374502
0.0037124
0.00365976
0.00358288
0.00348119
0.00334649
0.00313267
0.00270368
0.00200655
0.00259654
0.00708153
0.00330255
0.00418685
0.00440479
0.00446036
0.00445645
0.00440557
0.00431056
0.00418837
0.00406625
0.00396171
0.00387907
0.00381656
0.00377127
0.00374069
0.00372262
0.00371501
0.00371578
0.00372284
0.00373413
0.00374757
0.00376099
0.00377203
0.00377806
0.00377595
0.00376178
0.00373046
0.00367503
0.00358658
0.00345133
0.00324119
0.00289483
0.00239326
0.00229706
0.00406943
0.00769598
0.00329502
0.00411499
0.00437227
0.00445209
0.00446366
0.00442412
0.0043375
0.0042261
0.00412338
0.00404442
0.00398811
0.00394985
0.00392573
0.00391273
0.0039085
0.00391118
0.00391916
0.003931
0.00394535
0.00396086
0.00397612
0.0039896
0.00399949
0.00400356
0.00399881
0.00398087
0.00394335
0.00387731
0.00376759
0.00358429
0.00329539
0.0028849
0.00248803
0.00345676
0.005507
0.00365135
0.0044305
0.00461598
0.00464395
0.0046036
0.00449797
0.00432896
0.0041402
0.00399189
0.00390115
0.00385361
0.00383298
0.00382904
0.00383632
0.0038517
0.00387312
0.00389891
0.00392758
0.00395774
0.00398807
0.00401723
0.00404382
0.00406631
0.00408288
0.00409138
0.00408929
0.00407341
0.00404083
0.00398937
0.00390814
0.00378289
0.00367152
0.00340861
0.00144807
0.00314597
0.00385546
0.00442627
0.00456613
0.00458081
0.00453265
0.00441915
0.00424119
0.00405068
0.00392411
0.00387585
0.00387299
0.00388859
0.00391129
0.00393742
0.00396587
0.00399615
0.00402782
0.00406035
0.00409306
0.00412503
0.00415498
0.00418122
0.00420147
0.00421273
0.00421128
0.00419277
0.00415217
0.00408426
0.00399979
0.00398039
0.00379077
0.00318995
0.00288774
0.00245398
0.00759441
0.00408571
0.00463013
0.00473939
0.00473715
0.0046725
0.0045333
0.00430716
0.00403334
0.00381138
0.00370288
0.003684
0.00370953
0.00375354
0.00380527
0.00385992
0.00391477
0.00396789
0.00401865
0.0040668
0.00411109
0.00414956
0.00417902
0.00419429
0.00418755
0.00414861
0.00406726
0.0039304
0.00367128
0.00312947
0.00291734
0.00419288
0.00537196
0.00562449
0.00618704
0.00959586
0.00400642
0.00449059
0.00463257
0.00467637
0.00466923
0.004606
0.00446742
0.00424202
0.00398168
0.0037906
0.00371013
0.00370688
0.00374084
0.00379085
0.00384785
0.00390754
0.00396745
0.004026
0.00408208
0.0041349
0.00418373
0.00422757
0.00426424
0.00428812
0.00428475
0.00422155
0.0040427
0.00368025
0.00314554
0.00280639
0.00342122
0.00463243
0.00532926
0.00576965
0.00585873
0.0039957
0.00454701
0.0047132
0.00476894
0.00477094
0.0047168
0.00458897
0.00436548
0.00405529
0.00375542
0.00357748
0.0035269
0.00354891
0.00360272
0.00367029
0.00374404
0.00382008
0.00389612
0.00397078
0.00404321
0.00411283
0.00417919
0.00424201
0.00430149
0.00435757
0.00440764
0.00444124
0.00443607
0.00433551
0.00404791
0.0035989
0.00322733
0.00316193
0.00334316
0.00299215
0.00401641
0.00449979
0.00467225
0.00474018
0.00475903
0.00473135
0.00464566
0.00448087
0.0042155
0.00389027
0.00363564
0.00352108
0.00350764
0.00354202
0.00359696
0.00366155
0.00373085
0.00380189
0.00387262
0.00394177
0.00400864
0.00407301
0.0041353
0.00419722
0.00426384
0.00435021
0.00444276
0.0044311
0.00430627
0.00427142
0.00432922
0.0041816
0.00365692
0.00293328
0.00445361
0.00412901
0.0045621
0.00470495
0.00474835
0.00474114
0.00468242
0.00456119
0.00436672
0.0040939
0.00376949
0.00350023
0.00337657
0.0033656
0.00340453
0.00346299
0.00352939
0.00359962
0.00367154
0.00374084
0.00380405
0.00385875
0.00390347
0.00393866
0.00396804
0.00400295
0.00410698
0.00469768
0.00555221
0.00583884
0.00576966
0.00554116
0.00511341
0.00443053
0.0042473
0.00706149
0.00430192
0.00463085
0.00473504
0.00475813
0.00473552
0.00466206
0.00452616
0.00432236
0.004056
0.0037515
0.00348383
0.00334138
0.00331466
0.00334549
0.00340049
0.003466
0.00353459
0.0036026
0.00366683
0.00372247
0.00376518
0.00379257
0.00380604
0.00381698
0.00390303
0.00433338
0.00546002
0.00683764
0.00723008
0.00711065
0.00676496
0.00619185
0.0055119
0.0054548
0.00703156
0.00436774
0.00468026
0.00476767
0.00477822
0.00474215
0.00465084
0.00449081
0.00426071
0.00397837
0.00367889
0.00341954
0.00326551
0.00322177
0.00324188
0.00329095
0.00335347
0.00342222
0.00349291
0.00356288
0.0036304
0.00369359
0.00374881
0.00378867
0.00380297
0.00379047
0.0038159
0.00412562
0.00498427
0.00605717
0.00689589
0.00719031
0.00694819
0.00644119
0.00605943
0.00635835
0.00446432
0.00474857
0.00482401
0.00482789
0.00478794
0.00469557
0.00453884
0.00431686
0.00404137
0.00374034
0.00346837
0.00328843
0.00321674
0.00321689
0.00325277
0.00330606
0.00336797
0.00343403
0.00350171
0.00356971
0.00363759
0.00370583
0.00377533
0.00384394
0.00390022
0.0039209
0.00389758
0.00391101
0.00412956
0.00466217
0.00549496
0.00622559
0.00632477
0.00616975
0.0065519
0.00445505
0.00477848
0.00485863
0.00485478
0.004801
0.00469002
0.00451535
0.00428921
0.00402635
0.00373638
0.0034534
0.00324415
0.00314661
0.0031337
0.00316432
0.0032155
0.00327669
0.00334284
0.00341122
0.00348056
0.00355104
0.00362481
0.00370724
0.00380771
0.00393756
0.00409264
0.0042214
0.00423936
0.00412664
0.00398186
0.00406228
0.00471276
0.00548309
0.00592544
0.00743716
0.00465704
0.00495513
0.00500983
0.00497995
0.00489542
0.004744
0.00452227
0.00426462
0.00400393
0.00374006
0.00347686
0.00325842
0.00313511
0.00310093
0.00311766
0.00315832
0.00321058
0.00326813
0.00332741
0.00338668
0.00344586
0.00350793
0.0035818
0.00368937
0.00387655
0.00419663
0.00458338
0.00483648
0.00483985
0.00458888
0.00418032
0.0040253
0.00474354
0.00575227
0.00844819
0.00485401
0.00510007
0.00512902
0.00507439
0.00495658
0.00475333
0.00445693
0.00412422
0.00382118
0.00355821
0.00332631
0.00314221
0.00303887
0.00301381
0.00303549
0.00307912
0.00313195
0.0031874
0.00324248
0.00329557
0.00334509
0.0033935
0.00345269
0.00355567
0.00378855
0.0042834
0.00493834
0.0053977
0.00554111
0.00538367
0.00492101
0.00431376
0.00459105
0.00587729
0.00905054
0.00513867
0.00530974
0.00532086
0.0052548
0.00512156
0.00489173
0.00454801
0.00415023
0.0037899
0.00349427
0.00325131
0.0030639
0.00295338
0.00292073
0.00293928
0.00298322
0.00303743
0.00309338
0.00314656
0.0031944
0.00323436
0.00326785
0.00330457
0.00337556
0.00358095
0.00414001
0.00505628
0.00575616
0.00604563
0.0060126
0.00564893
0.0050008
0.00502774
0.00624103
0.00915245
0.00521343
0.00541233
0.00545535
0.00540598
0.00528128
0.00505298
0.0046915
0.004235
0.00379438
0.00343904
0.00316964
0.00297326
0.0028513
0.0028042
0.00281457
0.00285869
0.00291884
0.0029836
0.00304524
0.00309864
0.00314083
0.00317129
0.00319331
0.00322286
0.00333003
0.00374208
0.00472055
0.00576974
0.00626994
0.00637988
0.0061652
0.0056814
0.00567676
0.00662064
0.00899491
0.00523891
0.0055641
0.00568497
0.00568808
0.00561247
0.00544173
0.00513902
0.00468942
0.00417001
0.00369263
0.00330638
0.00301214
0.00280684
0.00269159
0.00265653
0.00267907
0.00273607
0.00281002
0.00288833
0.0029621
0.0030253
0.00307418
0.00310662
0.00312385
0.00315066
0.00332326
0.00400159
0.0052635
0.00619078
0.00651718
0.00648058
0.00621026
0.00622968
0.00689228
0.00880778
0.00505795
0.00559055
0.00581893
0.00589286
0.00588172
0.00578488
0.00557609
0.00521367
0.00470135
0.00413847
0.00363113
0.00322045
0.00290637
0.00268596
0.00255838
0.00251364
0.00253225
0.00259315
0.00267831
0.00277352
0.00286771
0.00295228
0.00301978
0.0030626
0.00307711
0.00309979
0.00334553
0.00425363
0.00559668
0.00635303
0.0065684
0.00651408
0.00657726
0.00705364
0.00872162
0.00492603
0.00565583
0.00598595
0.00612608
0.00617547
0.00614904
0.00603535
0.00580141
0.00539969
0.00483866
0.00422201
0.00366224
0.00320803
0.00286005
0.0026111
0.0024561
0.00238635
0.0023876
0.00244258
0.00253436
0.00264802
0.00277027
0.00288822
0.00298802
0.00305449
0.00307822
0.00311045
0.00344076
0.00454096
0.00581559
0.00638968
0.00657236
0.0067265
0.00715307
0.00883046
0.00469691
0.00560231
0.0060063
0.00617638
0.00624338
0.00623791
0.00616148
0.00600911
0.00576119
0.00536764
0.00481596
0.00420038
0.00364154
0.00319026
0.00284514
0.00259416
0.00242721
0.00233727
0.00231742
0.00235804
0.00244738
0.00257332
0.00272137
0.002872
0.00300189
0.003087
0.00311408
0.00315702
0.00363167
0.00493535
0.00598661
0.00644812
0.00673822
0.0072386
0.00915066
0.00486462
0.00577836
0.00613843
0.00626267
0.00628314
0.0062269
0.00609476
0.0059014
0.00567842
0.0054123
0.00503149
0.00451459
0.00396358
0.0034866
0.00311524
0.00283937
0.00263876
0.00249787
0.00241174
0.00238048
0.00240334
0.00248105
0.00261412
0.0027889
0.00297331
0.00313034
0.00322387
0.00323399
0.0033139
0.00407618
0.00547918
0.00624106
0.00670562
0.00735611
0.00960188
0.00540916
0.00605671
0.00623778
0.00625408
0.00618715
0.00603664
0.00579769
0.00551654
0.00526323
0.00504362
0.00479228
0.00444312
0.00402303
0.00363146
0.0033241
0.0031015
0.00294052
0.00281845
0.00272477
0.00265814
0.00262596
0.00263505
0.00269658
0.00282794
0.0030128
0.00320688
0.00335875
0.00341805
0.00339488
0.00363731
0.00486496
0.00601653
0.00669686
0.00751305
0.0100625
0.00648097
0.00652528
0.0064148
0.00627818
0.00608813
0.00579751
0.00541428
0.00505395
0.00479199
0.00459622
0.00440275
0.00417068
0.00390884
0.00367102
0.00349322
0.00336967
0.00327883
0.00320511
0.00314222
0.003089
0.00304948
0.00302915
0.00303709
0.0030978
0.00322934
0.00340917
0.00358038
0.00367909
0.00365901
0.00363136
0.00429151
0.00574433
0.00668308
0.00769234
0.0105042
0.00728062
0.0066398
0.00633791
0.00610827
0.00582005
0.00539948
0.00491503
0.00456579
0.00438
0.00425596
0.00413137
0.0039966
0.00386898
0.00376916
0.0037003
0.00365201
0.00361492
0.00358421
0.00355761
0.00353488
0.00351631
0.00350347
0.00350227
0.00352825
0.00360542
0.00374104
0.00389936
0.00401769
0.00403011
0.00392063
0.00405825
0.00532836
0.00656469
0.0078474
0.010977
0.00725252
0.00646964
0.00621078
0.00600203
0.00570207
0.00524026
0.00470973
0.00433673
0.00416041
0.00407118
0.00400243
0.00394194
0.00389773
0.00387324
0.00386344
0.00386248
0.00386667
0.0038741
0.00388339
0.00389394
0.00390559
0.00391906
0.0039376
0.00397036
0.00403487
0.00414698
0.00429316
0.00442341
0.00446663
0.00435981
0.0042204
0.00495303
0.00642541
0.00803375
0.011593
0.00656283
0.00625178
0.00618148
0.00607541
0.00587158
0.00550513
0.00497139
0.00443774
0.00409743
0.0039454
0.00388841
0.00386747
0.00386407
0.00387476
0.00389678
0.00392657
0.00396134
0.00399939
0.00403919
0.00407995
0.00412144
0.00416466
0.00421321
0.0042754
0.00436599
0.00450043
0.00467346
0.00484377
0.00493657
0.00487126
0.00464495
0.00493614
0.00650167
0.00840149
0.0123823
0.00599104
0.00627596
0.00635918
0.0063355
0.00623226
0.00601432
0.0056041
0.00498061
0.00435209
0.00394961
0.00377754
0.00373222
0.00374062
0.00377277
0.00381793
0.00387123
0.00392984
0.00399154
0.00405467
0.00411849
0.00418326
0.00425112
0.00432731
0.00442157
0.00454886
0.00472399
0.00494431
0.00517278
0.00532952
0.00532494
0.00512511
0.00528678
0.0069047
0.00899632
0.013229
0.00575457
0.00633546
0.00644248
0.00640445
0.00629042
0.00610955
0.00586385
0.00545451
0.00480932
0.00416821
0.00378094
0.00363204
0.00361053
0.00364386
0.00370091
0.00376948
0.00384358
0.00391997
0.0039968
0.00407427
0.00415343
0.00423768
0.00433626
0.00446336
0.00463791
0.00487401
0.00516271
0.00545723
0.00567401
0.00572533
0.00560617
0.00587794
0.00752662
0.00965213
0.0138282
0.00608375
0.0066013
0.00657823
0.00641644
0.00615894
0.00583277
0.00556949
0.00535371
0.00496438
0.00436332
0.00385499
0.00360448
0.00354025
0.00356497
0.00362658
0.0037025
0.00378277
0.00386389
0.00394673
0.00403166
0.00411747
0.00420739
0.00431398
0.00445604
0.00465874
0.00494455
0.00530459
0.00567282
0.00595406
0.00607055
0.00607173
0.00653776
0.00812664
0.0101175
0.0139924
0.006986
0.00702117
0.00672212
0.00635685
0.00586359
0.0053355
0.00500743
0.00484617
0.00464304
0.00425562
0.00383425
0.00359217
0.00352331
0.00354553
0.00360593
0.0036815
0.00376242
0.00384624
0.00393367
0.00402314
0.00411363
0.00421063
0.00432715
0.00448057
0.00469993
0.00501856
0.00543368
0.00586732
0.00620906
0.00638967
0.00650678
0.0071196
0.00855006
0.010318
0.0138724
0.00827613
0.00737486
0.00672174
0.00608774
0.005265
0.00465136
0.00442287
0.00432276
0.00418072
0.00394867
0.00370361
0.00356373
0.00352907
0.00355193
0.00360294
0.00366979
0.00374679
0.00383077
0.00392023
0.0040158
0.00412001
0.00423759
0.00437666
0.00455281
0.00479566
0.00514534
0.00560242
0.00608538
0.00647647
0.00671097
0.00691132
0.00758017
0.0088144
0.0103728
0.013743
0.0090269
0.00726195
0.00638194
0.00550954
0.00441006
0.00388594
0.00385293
0.00384518
0.00377715
0.00367676
0.00358948
0.00354542
0.00353959
0.00355979
0.00359905
0.00365316
0.00372004
0.0037987
0.00388918
0.00399314
0.00411333
0.00425365
0.00442081
0.00463005
0.0049142
0.00531687
0.00583252
0.00636619
0.00679699
0.00706816
0.00731244
0.00796215
0.00900164
0.0103919
0.0136935
0.00856602
0.00694451
0.00620531
0.00536473
0.00425873
0.0035798
0.00343421
0.0034261
0.00342634
0.00341796
0.00341246
0.00341788
0.00343604
0.00346719
0.00351166
0.00356965
0.00364174
0.00372952
0.00383506
0.00396078
0.0041079
0.0042768
0.00447113
0.00470813
0.00503178
0.00549709
0.00609024
0.00669157
0.0071742
0.00748613
0.00775681
0.00833997
0.00919
0.0104236
0.0136664
0.0076315
0.0069583
0.0066233
0.00614419
0.00529096
0.0041456
0.00335576
0.00307566
0.00305614
0.00309579
0.00312956
0.00315641
0.00318548
0.00322276
0.0032722
0.0033371
0.00342115
0.00353036
0.00367158
0.00384857
0.00405596
0.00428124
0.00451883
0.0047886
0.00515283
0.00568951
0.00637077
0.00703307
0.00756755
0.00794171
0.0082543
0.00875718
0.00942885
0.0104957
0.0136171
0.00705428
0.00717491
0.00711552
0.00693374
0.00653365
0.00558596
0.00417218
0.00309671
0.00268389
0.00265586
0.00272772
0.00279832
0.00285441
0.00290371
0.00295563
0.00302019
0.00310774
0.00323381
0.00341789
0.00366984
0.00396964
0.00427558
0.00456573
0.00486375
0.00525053
0.00585217
0.00665626
0.00738742
0.00793098
0.00834695
0.00871619
0.00916769
0.00970909
0.010631
0.0135594
0.00691794
0.00713058
0.00710244
0.00699913
0.0068234
0.00644491
0.00541728
0.00384194
0.00270357
0.00231643
0.00231265
0.00239782
0.00247898
0.00254563
0.00260552
0.00266978
0.00275502
0.00288943
0.0031178
0.00346767
0.00389251
0.00430151
0.00465174
0.00496903
0.00534077
0.00593694
0.0068588
0.00776618
0.00833888
0.00872968
0.00909439
0.00949393
0.00994215
0.0107322
0.0133375
0.00712797
0.00706758
0.00696215
0.0068199
0.00662457
0.00634944
0.00585357
0.00465289
0.00309568
0.00218924
0.00197674
0.00202921
0.00211905
0.00219393
0.00225384
0.00231078
0.00238557
0.00252041
0.00279107
0.00325673
0.00383341
0.00436417
0.00478447
0.00512175
0.00545574
0.00594552
0.00681001
0.00792538
0.00872429
0.00914769
0.00945772
0.00976661
0.0101115
0.0107415
0.0129097
0.00740707
0.00721064
0.00709221
0.00694778
0.00673392
0.00641032
0.00595381
0.00520971
0.00380817
0.00241643
0.0017994
0.00171885
0.00178868
0.00186343
0.00191857
0.00196216
0.00201495
0.00212715
0.00241377
0.00298605
0.00372887
0.00440639
0.00491945
0.00530257
0.00562266
0.00598476
0.00659255
0.00760967
0.00868677
0.00935434
0.00971316
0.00996345
0.0102146
0.0106992
0.0126165
0.00757287
0.00729534
0.00719006
0.00708061
0.00690958
0.00661968
0.00615883
0.0055061
0.0044853
0.00299018
0.00187611
0.00151557
0.00150737
0.00156622
0.00161202
0.00163952
0.00166415
0.00173325
0.00199253
0.00263465
0.00351589
0.00434688
0.00497805
0.00543932
0.00579717
0.00611185
0.00649182
0.00714249
0.00812625
0.00903701
0.00959646
0.00991165
0.0101575
0.0106359
0.0129304
0.00767301
0.00726137
0.00715959
0.00708386
0.00696153
0.00673742
0.0063468
0.00573574
0.00487549
0.0035948
0.00217939
0.00144161
0.00128657
0.00131012
0.00134242
0.00135208
0.00134597
0.00136027
0.00154943
0.00222437
0.00327086
0.0042549
0.00499428
0.00553194
0.00595295
0.00630211
0.00661812
0.00700765
0.00765974
0.00852243
0.0092356
0.00968854
0.0100444
0.0107408
0.0140155
0.00774925
0.00722214
0.00713674
0.00709386
0.00700762
0.00682287
0.00648146
0.005924
0.0051146
0.00402636
0.00261181
0.00150134
0.00112038
0.00108293
0.00110037
0.00109448
0.00105992
0.00102089
0.00112729
0.00181322
0.00307845
0.00421633
0.00503072
0.00562068
0.0060992
0.00651698
0.00688227
0.00722358
0.00768044
0.00837741
0.00910538
0.00966777
0.0101913
0.0112204
0.0153566
0.00761546
0.00715266
0.00715577
0.0071844
0.00716945
0.00706481
0.00681462
0.00634994
0.00561689
0.00461075
0.00329879
0.00187539
0.00108372
0.000886999
0.000871939
0.000854145
0.000797011
0.000712397
0.000728628
0.00136027
0.00288408
0.00422777
0.00511866
0.00575602
0.00629311
0.00680019
0.00726932
0.00767702
0.00810768
0.00870569
0.00938276
0.0099792
0.0105997
0.0117896
0.015911
0.00726442
0.00705368
0.00715187
0.00723389
0.00727605
0.00725704
0.0071397
0.00686132
0.0063401
0.00550765
0.00435179
0.00285083
0.00147233
0.000832397
0.000679045
0.000639808
0.000573599
0.000455116
0.00035859
0.000757911
0.00236917
0.00408686
0.00514291
0.0058557
0.00646294
0.00708316
0.00771314
0.00826711
0.00875068
0.00929673
0.00988891
0.0104307
0.0110098
0.0120744
0.0153908
0.0070567
0.00703502
0.00714969
0.0072199
0.0072549
0.00725328
0.00720314
0.00707279
0.00679775
0.00628561
0.00544709
0.00421123
0.00258862
0.00124251
0.000649768
0.000484962
0.000402167
0.000271854
8.26792e-05
0.000116023
0.00140913
0.00355413
0.00493334
0.00579336
0.00648029
0.00717814
0.00795079
0.00871332
0.00933105
0.00985355
0.0103396
0.0107708
0.0112224
0.0120319
0.0146253
0.00717874
0.00715466
0.00719856
0.00721199
0.00719761
0.00715581
0.00708818
0.00699034
0.00683286
0.00654763
0.00603836
0.00520113
0.00390877
0.00225968
0.00101851
0.000496171
0.000314959
0.000174651
0.000260362
0.000159346
0.000303454
0.00256819
0.00437225
0.00547422
0.00626688
0.0069908
0.00778216
0.0086624
0.00947928
0.0100949
0.0105465
0.0108915
0.0112272
0.0118705
0.0145518
0.00767835
0.00734202
0.00722121
0.00714293
0.00706277
0.00696955
0.00686757
0.00675699
0.00661778
0.00640593
0.00605549
0.00547564
0.00456207
0.00319924
0.00167116
0.000720173
0.000341611
0.000151087
0.000203607
8.90281e-05
0.0001083
0.00161762
0.00388636
0.00515475
0.00601629
0.00674782
0.00749769
0.00834168
0.00925214
0.0100175
0.0105375
0.0108853
0.0112121
0.011925
0.0153677
0.00837897
0.00746766
0.00714506
0.00696616
0.00681681
0.00668271
0.00657881
0.00648344
0.00635199
0.00614875
0.00583448
0.00535
0.00460205
0.00351241
0.00213122
0.000975613
0.000429063
0.00017722
0.000231699
0.000194455
2.42637e-05
0.00100953
0.00365494
0.00515974
0.00598643
0.00669948
0.00745793
0.00826794
0.00915587
0.00999217
0.0105892
0.011005
0.0114327
0.0123741
0.0163543
0.00882074
0.00736351
0.00690337
0.00664978
0.00643458
0.00626985
0.00619921
0.00615711
0.00605658
0.00586106
0.00554998
0.00508445
0.00439816
0.00344701
0.0022759
0.00115938
0.000539488
0.000245398
3.72845e-05
7.48867e-05
0.000212269
0.000752405
0.00338043
0.00545582
0.00629747
0.00693972
0.00776688
0.00869318
0.0095058
0.0102481
0.0108264
0.0112795
0.0117812
0.0128004
0.016254
0.0087308
0.00708293
0.00660402
0.00631816
0.00604834
0.00585197
0.00581221
0.00582472
0.00576996
0.00560895
0.00532535
0.0048908
0.00425853
0.00339909
0.00237553
0.0013908
0.00073817
0.00039312
0.000138114
0.000232485
0.000133318
0.000743331
0.00306313
0.0059563
0.0071048
0.00749506
0.00809483
0.00920256
0.0101862
0.0107982
0.0112344
0.0115981
0.0120042
0.0127497
0.0147592
0.00825083
0.00682476
0.00640108
0.006108
0.00578855
0.00551868
0.00544727
0.00549262
0.00549737
0.00540162
0.00518554
0.00482678
0.00429352
0.00355988
0.00267763
0.0018067
0.0011461
0.000729948
0.000391185
0.000106025
0.00021945
0.00030139
0.00160444
0.00464213
0.00768592
0.008741
0.0088616
0.00929877
0.010308
0.0110604
0.0114819
0.0117528
0.0119822
0.0122923
0.0129299
0.00780733
0.00672831
0.00635541
0.00606287
0.00570604
0.00531673
0.00510603
0.00512785
0.00519789
0.00519598
0.00508588
0.00484814
0.00446134
0.00390889
0.00320191
0.00244923
0.00180793
0.00133727
0.000955063
0.00056381
0.000190441
0.000185669
0.0002267
0.00208628
0.00507895
0.00841674
0.0101386
0.0102718
0.0102625
0.010696
0.0111342
0.0114222
0.01159
0.0116685
0.0117117
0.00754217
0.00668217
0.0063561
0.00609349
0.00575691
0.00530275
0.00489131
0.00476686
0.00484197
0.00492272
0.00492469
0.0048213
0.00459497
0.00423119
0.00373644
0.00316236
0.00260213
0.0021311
0.00173904
0.00136436
0.000951037
0.000484927
6.88412e-05
0.000163738
0.00137051
0.00417069
0.00769425
0.0105352
0.0112293
0.0110698
0.0110359
0.0111123
0.0111968
0.0112363
0.0113342
0.00725175
0.00659502
0.00635003
0.00614999
0.00588273
0.00546744
0.00492656
0.00454173
0.00448262
0.0045844
0.00467806
0.00469704
0.00461943
0.00443402
0.00414028
0.0037601
0.00334321
0.0029459
0.00258958
0.00225526
0.00190912
0.00152162
0.00107314
0.000601008
0.000338709
0.000842102
0.002637
0.00587932
0.0098286
0.0113913
0.0115531
0.0114802
0.0114291
0.0114424
0.0118155
0.00699785
0.00659085
0.00643343
0.00629376
0.0060986
0.00577457
0.00524872
0.00462609
0.00424691
0.00420886
0.00432611
0.00443882
0.00448518
0.00444811
0.00432523
0.0041234
0.00386688
0.00359005
0.00331714
0.00305233
0.00278472
0.00249641
0.00216767
0.00178373
0.00134421
0.000922022
0.00078733
0.00149868
0.00400364
0.00824209
0.0105596
0.0113149
0.0115477
0.0117237
0.0131533
0.00678637
0.0066323
0.00653995
0.00644099
0.00630418
0.00608662
0.00571315
0.00510154
0.00440471
0.00399494
0.00395252
0.00407885
0.00421145
0.00428996
0.00430012
0.00424228
0.00412736
0.00397449
0.00380146
0.00361839
0.00342662
0.00322092
0.00299242
0.00272993
0.00241935
0.00205128
0.00162687
0.00122926
0.000850641
0.00304605
0.00675129
0.00917103
0.0103953
0.0113267
0.0154347
0.00690533
0.00678278
0.00665494
0.0065278
0.00637516
0.00617448
0.00591449
0.00552688
0.00488366
0.00417179
0.00379379
0.00378251
0.00391969
0.00405842
0.00414918
0.00418294
0.0041654
0.0041066
0.00401741
0.00390666
0.00377859
0.00363292
0.00346593
0.0032716
0.00304131
0.00276438
0.00241206
0.00201814
0.00117998
0.000773223
0.00337063
0.00673634
0.00907726
0.01126
0.0186602
0.00739997
0.00697074
0.00672183
0.00652544
0.00630585
0.00602431
0.00572127
0.00544918
0.00506125
0.00441925
0.00382134
0.00361243
0.00369012
0.0038446
0.00397714
0.00406242
0.00410011
0.00409646
0.00405867
0.00399258
0.00390114
0.00378457
0.00364028
0.00346243
0.00324037
0.00295948
0.00255625
0.00209456
0.00151344
0.000936019
0.00296433
0.00655751
0.00926859
0.0123107
0.0210663
0.00809723
0.00714638
0.00675589
0.00649433
0.0062083
0.00582829
0.00541549
0.00511448
0.00485572
0.00443462
0.00387999
0.00356547
0.00357531
0.00371469
0.00385449
0.00395534
0.00401265
0.00403053
0.00401253
0.00396016
0.00387469
0.00375736
0.0036048
0.00340433
0.00312912
0.00273655
0.00217911
0.00184403
0.00199047
0.00246184
0.00485922
0.00803936
0.0104532
0.0134507
0.0203476
0.00858015
0.00711455
0.00664575
0.00635731
0.00602804
0.00557431
0.00507494
0.0047094
0.00446483
0.00418699
0.00381354
0.00354733
0.00354019
0.00366021
0.00378812
0.00388424
0.00394168
0.00396218
0.0039466
0.00389358
0.00380214
0.00367331
0.00349732
0.00324439
0.00287249
0.00234592
0.00178841
0.00199171
0.00325808
0.00461003
0.00708594
0.00946985
0.0113404
0.0136444
0.0175102
0.00853873
0.00693105
0.0065144
0.00625781
0.0059292
0.00544609
0.00489146
0.00445827
0.00418308
0.0039575
0.00371846
0.00353959
0.00353273
0.00363191
0.0037446
0.00383403
0.00389111
0.00391399
0.00390186
0.00385231
0.00376207
0.00362342
0.00341892
0.00312057
0.0026936
0.00212489
0.00163659
0.00222386
0.00457689
0.00642577
0.00850534
0.0101846
0.0115233
0.0130557
0.0149587
0.00803368
0.00674328
0.00648107
0.00631061
0.00604337
0.00558265
0.00494895
0.00435854
0.00398117
0.00376299
0.00360818
0.00350655
0.00350531
0.00358727
0.00369051
0.00377965
0.00384269
0.00387542
0.00387504
0.00383813
0.00375851
0.00362619
0.00342606
0.00313373
0.00271687
0.0021589
0.00162396
0.00200119
0.00481042
0.00761573
0.00913962
0.0103111
0.0112771
0.0122981
0.0135683
0.00745844
0.00667876
0.00658861
0.00653572
0.00639979
0.00607969
0.00548212
0.00469763
0.00404014
0.00366643
0.00349078
0.00341653
0.00342265
0.00349703
0.00360012
0.00369792
0.00377546
0.00382682
0.00384836
0.00383636
0.0037847
0.00368389
0.00352047
0.00327493
0.0029183
0.00242312
0.00184189
0.00169378
0.00366163
0.00768702
0.00930797
0.0102675
0.0110119
0.0117781
0.0130921
0.00702637
0.00661485
0.00662242
0.00664975
0.00663111
0.00649437
0.00612309
0.00540335
0.00448683
0.00376298
0.00339399
0.00327117
0.00327555
0.00335244
0.00346433
0.00357807
0.00367633
0.00375202
0.00380163
0.00382224
0.0038087
0.00375276
0.003643
0.00346405
0.00319329
0.00280201
0.00227667
0.00179851
0.00240843
0.00601306
0.00887135
0.0100357
0.0107677
0.0115243
0.0132501
0.00689714
0.00659664
0.00661039
0.00665093
0.00667721
0.00664767
0.00649272
0.00608321
0.00528331
0.00428162
0.00353049
0.0031888
0.00311967
0.00318263
0.00330204
0.00343323
0.00355388
0.00365493
0.00373319
0.00378694
0.00381252
0.00380375