/*--------------------------------*- C++ -*----------------------------------*\
| =========                 |                                                 |
| \\      /  F ield         | OpenFOAM: The Open Source CFD Toolbox           |
|  \\    /   O peration     | Version:  v1906                                 |
|   \\  /    A nd           | Web:      www.OpenFOAM.com                      |
|    \\/     M anipulation  |                                                 |
\*---------------------------------------------------------------------------*/
FoamFile
{
    version     2.0;
    format      ascii;
    class       surfaceScalarField;
    location    "38.4/oil";
    object      phi;
}
// * * * * * * * * * * * * * * * * * * * * * * * * * * * * * * * * * * * * * //

dimensions      [1 0 -1 0 0 0 0];
oriented        oriented;


internalField   nonuniform List<scalar> 
80688
(
-2.34494e-06
-2.38535e-06
-2.34494e-06
-1.05931e-06
-6.648e-07
-6.20827e-07
-2.88829e-07
-3.87709e-07
-3.82774e-07
-1.43259e-07
-7.31419e-08
-7.24286e-08
-5.93668e-08
-4.23505e-08
-4.15416e-08
-1.99134e-08
-2.02043e-08
-1.92492e-08
4.89364e-10
-1.06961e-08
-9.70663e-09
1.13132e-08
-5.92857e-09
-4.89535e-09
1.6742e-08
-3.29199e-09
-2.13677e-09
1.86333e-08
-1.63139e-09
-2.60002e-10
1.79216e-08
-4.58206e-10
1.16992e-09
1.51606e-08
4.28042e-10
2.33295e-09
1.08118e-08
1.09826e-09
3.2505e-09
5.35196e-09
1.55717e-09
3.90263e-09
-7.08646e-10
1.80493e-09
4.25567e-09
-6.84068e-09
1.83987e-09
4.29215e-09
-1.25309e-08
1.67017e-09
4.02007e-09
-1.73246e-08
1.31739e-09
3.47631e-09
-2.08665e-08
8.16366e-10
2.72547e-09
-2.29234e-08
2.06854e-10
1.85003e-09
-2.34139e-08
-4.49574e-10
9.40103e-10
-2.2394e-08
-1.11266e-09
9.26899e-11
-2.00357e-08
-1.73768e-09
-6.20613e-10
-1.66397e-08
-2.2816e-09
-1.11433e-09
-1.26021e-08
-2.69861e-09
-1.33904e-09
-8.39735e-09
-2.92981e-09
-1.27495e-09
-4.55805e-09
-2.89087e-09
-9.48437e-10
-1.63153e-09
-2.46531e-09
-4.61225e-10
-7.78209e-11
-1.51237e-09
-4.13498e-11
-1.62409e-10
8.45788e-11
-6.31722e-07
-1.12191e-06
-6.31721e-07
-3.79254e-07
-4.09724e-07
-5.07545e-07
-2.72404e-07
-2.76102e-07
-2.18456e-07
-1.35768e-07
-1.20794e-07
-8.89844e-08
-5.87814e-08
-7.337e-08
-4.5967e-08
-1.44069e-08
-4.46088e-08
-1.997e-08
1.23372e-08
-3.08173e-08
-6.62301e-09
2.8118e-08
-2.2934e-08
1.22455e-09
3.64393e-08
-1.80434e-08
6.43005e-09
3.90587e-08
-1.46138e-08
1.03629e-08
3.70055e-08
-1.19911e-08
1.35861e-08
3.10694e-08
-9.91325e-09
1.62773e-08
2.20457e-08
-8.30437e-09
1.84263e-08
1.08246e-08
-7.17645e-09
1.99547e-08
-1.5944e-09
-6.55708e-09
2.0781e-08
-1.41554e-08
-6.4611e-09
2.08619e-08
-2.58284e-08
-6.8696e-09
2.02128e-08
-3.57009e-08
-7.72351e-09
1.89134e-08
-4.3059e-08
-8.92774e-09
1.71022e-08
-4.74452e-08
-1.03599e-08
1.4953e-08
-4.86797e-08
-1.18839e-08
1.26689e-08
-4.68694e-08
-1.33605e-08
1.04374e-08
-4.23838e-08
-1.46515e-08
8.42823e-09
-3.58148e-08
-1.562e-08
6.76945e-09
-2.79357e-08
-1.61155e-08
5.53773e-09
-1.96469e-08
-1.59531e-08
4.73442e-09
-1.19068e-08
-1.48911e-08
4.26011e-09
-5.63004e-09
-1.26169e-08
3.87479e-09
-1.53283e-09
-8.75313e-09
3.14353e-09
-3.23573e-09
1.54048e-09
-3.93665e-07
-3.34578e-07
-3.93665e-07
-2.64372e-07
-3.15158e-07
-2.23859e-07
-1.78273e-07
-2.23078e-07
-1.39123e-07
-9.36713e-08
-1.35711e-07
-6.96847e-08
-3.74811e-08
-9.61962e-08
-3.3364e-08
7.64926e-10
-7.15498e-08
-1.13051e-08
2.61716e-08
-5.78417e-08
1.61765e-09
4.21861e-08
-4.90644e-08
1.01159e-08
5.07387e-08
-4.29617e-08
1.63657e-08
5.29322e-08
-3.8251e-08
2.14438e-08
4.95483e-08
-3.439e-08
2.57828e-08
4.1343e-08
-3.11883e-08
2.94803e-08
2.9224e-08
-2.86424e-08
3.2457e-08
1.42905e-08
-2.68256e-08
3.45826e-08
-2.18023e-09
-2.58171e-08
3.57307e-08
-1.88241e-08
-2.56546e-08
3.58374e-08
-3.43037e-08
-2.63102e-08
3.49202e-08
-4.74296e-08
-2.76826e-08
3.3085e-08
-5.72752e-08
-2.9601e-08
3.05188e-08
-6.32426e-08
-3.1849e-08
2.74564e-08
-6.51102e-08
-3.41803e-08
2.4164e-08
-6.30175e-08
-3.63406e-08
2.08874e-08
-5.74422e-08
-3.8075e-08
1.78482e-08
-4.91372e-08
-3.91237e-08
1.51986e-08
-3.90687e-08
-3.92028e-08
1.30188e-08
-2.83359e-08
-3.79737e-08
1.12878e-08
-1.80698e-08
-3.50109e-08
9.85365e-09
-9.32279e-09
-2.97572e-08
8.39331e-09
-2.97548e-09
-2.14596e-08
6.35918e-09
-9.19443e-09
2.9832e-09
-7.59475e-08
-1.82685e-07
-7.59461e-08
-1.0182e-07
-1.99785e-07
-8.95013e-08
-8.1544e-08
-1.74433e-07
-6.89206e-08
-4.26492e-08
-1.37754e-07
-3.6852e-08
-7.94571e-09
-1.15671e-07
-1.52285e-08
2.02661e-08
-9.98064e-08
4.47582e-11
4.12002e-08
-8.93514e-08
1.05756e-08
5.5226e-08
-8.16057e-08
1.85155e-08
6.26574e-08
-7.54154e-08
2.50222e-08
6.37912e-08
-7.00892e-08
3.07044e-08
5.90189e-08
-6.53805e-08
3.57627e-08
4.89497e-08
-6.12853e-08
4.01662e-08
3.44909e-08
-5.79344e-08
4.37508e-08
1.6846e-08
-5.55044e-08
4.63236e-08
-2.54191e-09
-5.41424e-08
4.77132e-08
-2.21059e-08
-5.39221e-08
4.78315e-08
-4.03014e-08
-5.48105e-08
4.66958e-08
-5.57552e-08
-5.66629e-08
4.44341e-08
-6.73941e-08
-5.92321e-08
4.127e-08
-7.45374e-08
-6.21948e-08
3.7489e-08
-7.6933e-08
-6.51867e-08
3.34021e-08
-7.47512e-08
-6.78287e-08
2.93062e-08
-6.85344e-08
-6.97415e-08
2.54497e-08
-5.91333e-08
-7.05289e-08
2.20041e-08
-4.7616e-08
-6.97695e-08
1.90493e-08
-3.5176e-08
-6.69616e-08
1.65479e-08
-2.30319e-08
-6.14722e-08
1.43172e-08
-1.2326e-08
-5.24457e-08
1.19827e-08
-4.13556e-09
-3.85677e-08
8.91764e-09
-1.74746e-08
4.14459e-09
-3.87284e-08
-1.0523e-07
-3.87263e-08
-4.72038e-08
-1.48651e-07
-4.26587e-08
-3.41659e-08
-1.56201e-07
-3.12703e-08
-9.941e-09
-1.474e-07
-1.45786e-08
1.4771e-08
-1.39248e-07
-1.13488e-09
3.68449e-08
-1.31487e-07
9.60715e-09
5.43376e-08
-1.25013e-07
1.81693e-08
6.64089e-08
-1.19124e-07
2.54474e-08
7.25534e-08
-1.13555e-07
3.1995e-08
7.25574e-08
-1.08163e-07
3.80701e-08
6.65176e-08
-1.03018e-07
4.3677e-08
5.49089e-08
-9.83306e-08
4.8654e-08
3.86089e-08
-9.43898e-08
5.27555e-08
1.88765e-08
-9.14849e-08
5.57129e-08
-2.73005e-09
-8.98455e-08
5.73097e-08
-2.44996e-08
-8.95833e-08
5.74308e-08
-4.47347e-08
-9.06653e-08
5.60898e-08
-6.19264e-08
-9.29068e-08
5.34356e-08
-7.4901e-08
-9.59871e-08
4.97296e-08
-8.29215e-08
-9.94803e-08
4.53061e-08
-8.57232e-08
-1.02911e-07
4.05264e-08
-8.34993e-08
-1.05779e-07
3.57264e-08
-7.68456e-08
-1.07573e-07
3.11779e-08
-6.6671e-08
-1.07777e-07
2.70738e-08
-5.4104e-08
-1.0583e-07
2.34938e-08
-4.03939e-08
-1.01062e-07
2.039e-08
-2.68113e-08
-9.26131e-08
1.75584e-08
-1.45864e-08
-7.92555e-08
1.45849e-08
-4.98591e-09
-5.89474e-08
1.07792e-08
-2.74575e-08
4.99695e-09
-1.38677e-08
-7.74978e-08
-1.38648e-08
-1.45589e-08
-1.33062e-07
-1.48978e-08
-4.62398e-09
-1.57348e-07
-8.78825e-09
1.27302e-08
-1.65152e-07
3.97458e-10
3.19154e-08
-1.67466e-07
9.03264e-09
5.00727e-08
-1.66542e-07
1.68972e-08
6.50576e-08
-1.64058e-07
2.40594e-08
7.5513e-08
-1.60418e-07
3.08377e-08
8.0506e-08
-1.55972e-07
3.74237e-08
7.95065e-08
-1.51005e-07
4.38407e-08
7.24084e-08
-1.45861e-07
4.99411e-08
5.95727e-08
-1.40948e-07
5.54531e-08
4.18405e-08
-1.367e-07
6.00428e-08
2.05081e-08
-1.33521e-07
6.33681e-08
-2.78515e-09
-1.31712e-07
6.51597e-08
-2.62182e-08
-1.31426e-07
6.52761e-08
-4.79788e-08
-1.32634e-07
6.37289e-08
-6.64528e-08
-1.35117e-07
6.0684e-08
-8.03951e-08
-1.3849e-07
5.64455e-08
-8.90341e-08
-1.42243e-07
5.1402e-08
-9.21057e-08
-1.45806e-07
4.59661e-08
-8.98296e-08
-1.48565e-07
4.05096e-08
-8.28431e-08
-1.49908e-07
3.53485e-08
-7.20981e-08
-1.49202e-07
3.068e-08
-5.87636e-08
-1.45753e-07
2.65881e-08
-4.4121e-08
-1.38721e-07
2.30171e-08
-2.94853e-08
-1.26997e-07
1.97478e-08
-1.61573e-08
-1.08919e-07
1.63357e-08
-5.56065e-09
-8.15773e-08
1.20333e-08
-3.85919e-08
5.57379e-09
-3.35854e-09
-7.07842e-08
-3.35508e-09
7.72836e-10
-1.35858e-07
-1.3356e-09
1.12866e-08
-1.71182e-07
3.3203e-09
2.65241e-08
-1.89783e-07
9.39425e-09
4.32997e-08
-1.99881e-07
1.56395e-08
5.93754e-08
-2.04536e-07
2.19181e-08
7.28091e-08
-2.05752e-07
2.82608e-08
8.21385e-08
-2.04518e-07
3.47706e-08
8.62733e-08
-2.01568e-07
4.14615e-08
8.45181e-08
-1.97469e-07
4.82197e-08
7.66412e-08
-1.92777e-07
5.4793e-08
6.29249e-08
-1.8805e-07
6.08183e-08
4.41835e-08
-1.83835e-07
6.58755e-08
2.17258e-08
-1.80622e-07
6.95587e-08
-2.74554e-09
-1.78781e-07
7.15404e-08
-2.73305e-08
-1.7849e-07
7.16482e-08
-5.01328e-08
-1.79723e-07
6.98915e-08
-6.94622e-08
-1.82245e-07
6.6458e-08
-8.40267e-08
-1.85626e-07
6.17e-08
-9.30346e-08
-1.89291e-07
5.60552e-08
-9.62366e-08
-1.92596e-07
4.99916e-08
-9.38818e-08
-1.94855e-07
4.39351e-08
-8.66455e-08
-1.95367e-07
3.82229e-08
-7.55103e-08
-1.93407e-07
3.30694e-08
-6.16712e-08
-1.88154e-07
2.85625e-08
-4.64287e-08
-1.78601e-07
2.46373e-08
-3.11227e-08
-1.63363e-07
2.10608e-08
-1.71052e-08
-1.40305e-07
1.73685e-08
-5.89983e-09
-1.05554e-07
1.27715e-08
-5.04065e-08
5.91474e-09
1.45346e-09
-7.36949e-08
1.45723e-09
8.57451e-09
-1.48453e-07
5.47451e-09
2.00099e-08
-1.92395e-07
9.77775e-09
3.4571e-08
-2.18873e-07
1.45282e-08
5.01893e-08
-2.35077e-07
1.95775e-08
6.50635e-08
-2.44421e-07
2.50104e-08
7.74833e-08
-2.49077e-07
3.09049e-08
8.60305e-08
-2.50364e-07
3.72995e-08
8.95594e-08
-2.49224e-07
4.41272e-08
8.73117e-08
-2.46417e-07
5.11952e-08
7.89738e-08
-2.42624e-07
5.81849e-08
6.47714e-08
-2.38516e-07
6.46684e-08
4.5487e-08
-2.34703e-07
7.01529e-08
2.24383e-08
-2.31733e-07
7.41596e-08
-2.64461e-09
-2.30005e-07
7.63072e-08
-2.78161e-08
-2.29724e-07
7.64055e-08
-5.11313e-08
-2.30866e-07
7.44583e-08
-7.08551e-08
-2.3319e-07
7.0668e-08
-8.56739e-08
-2.36237e-07
6.54303e-08
-9.47958e-08
-2.39416e-07
5.92468e-08
-9.7995e-08
-2.42034e-07
5.26378e-08
-9.55547e-08
-2.43363e-07
4.60677e-08
-8.81736e-08
-2.42644e-07
3.98956e-08
-7.68574e-08
-2.39077e-07
3.43543e-08
-6.281e-08
-2.31737e-07
2.9535e-08
-4.73317e-08
-2.19446e-07
2.53667e-08
-3.17622e-08
-2.00536e-07
2.16034e-08
-1.74724e-08
-1.72362e-07
1.77668e-08
-6.02933e-09
-1.30045e-07
1.30473e-08
-6.24812e-08
6.04538e-09
3.58968e-09
-8.0878e-08
3.59345e-09
1.22152e-08
-1.65767e-07
8.68867e-09
2.42072e-08
-2.17301e-07
1.2914e-08
3.84187e-08
-2.50149e-07
1.70645e-08
5.32944e-08
-2.71447e-07
2.14938e-08
6.73089e-08
-2.84888e-07
2.64534e-08
7.89563e-08
-2.92798e-07
3.20741e-08
8.68973e-08
-2.96687e-07
3.83823e-08
9.00139e-08
-2.97634e-07
4.52937e-08
8.75145e-08
-2.96493e-07
5.25758e-08
7.90603e-08
-2.94032e-07
5.98623e-08
6.48162e-08
-2.90949e-07
6.66765e-08
4.55351e-08
-2.87886e-07
7.24638e-08
2.25159e-08
-2.85412e-07
7.66986e-08
-2.51118e-09
-2.83945e-07
7.8967e-08
-2.76033e-08
-2.83685e-07
7.90531e-08
-5.08134e-08
-2.84614e-07
7.69587e-08
-7.04075e-08
-2.86497e-07
7.29013e-08
-8.50735e-08
-2.88887e-07
6.73156e-08
-9.40433e-08
-2.91182e-07
6.07357e-08
-9.71183e-08
-2.92681e-07
5.37215e-08
-9.46095e-08
-2.92658e-07
4.67864e-08
-8.72303e-08
-2.90332e-07
4.0309e-08
-7.59963e-08
-2.84842e-07
3.45305e-08
-6.20906e-08
-2.75174e-07
2.95316e-08
-4.67884e-08
-2.59988e-07
2.52399e-08
-3.13994e-08
-2.37341e-07
2.14162e-08
-1.72719e-08
-2.0406e-07
1.75701e-08
-5.95801e-09
-1.54245e-07
1.28868e-08
-7.44136e-08
5.97439e-09
4.40497e-09
-8.96914e-08
4.40843e-09
1.35083e-08
-1.84754e-07
9.88329e-09
2.54652e-08
-2.43239e-07
1.39813e-08
3.91189e-08
-2.81567e-07
1.77645e-08
5.3163e-08
-3.07286e-07
2.17955e-08
6.62801e-08
-3.24412e-07
2.64063e-08
7.71453e-08
-3.35434e-07
3.17704e-08
8.4504e-08
-3.4197e-07
3.79244e-08
8.73075e-08
-3.45205e-07
4.47669e-08
8.47792e-08
-3.46032e-07
5.20673e-08
7.65442e-08
-3.4523e-07
5.94335e-08
6.2745e-08
-3.43505e-07
6.63556e-08
4.40887e-08
-3.41487e-07
7.22575e-08
2.18244e-08
-3.39734e-07
7.65863e-08
-2.368e-09
-3.3864e-07
7.88875e-08
-2.66053e-08
-3.38408e-07
7.89609e-08
-4.9001e-08
-3.39026e-07
7.68074e-08
-6.78636e-08
-3.40265e-07
7.26306e-08
-8.19252e-08
-3.41705e-07
6.68801e-08
-9.04615e-08
-3.42772e-07
6.01272e-08
-9.33014e-08
-3.42806e-07
5.29651e-08
-9.07762e-08
-3.41085e-07
4.59023e-08
-8.36037e-08
-3.3684e-07
3.93352e-08
-7.27646e-08
-3.29187e-07
3.35064e-08
-5.94031e-08
-3.17036e-07
2.85001e-08
-4.47335e-08
-2.98905e-07
2.42464e-08
-3.00087e-08
-2.72557e-07
2.04913e-08
-1.65003e-08
-2.34334e-07
1.6766e-08
-5.68872e-09
-1.77349e-07
1.22918e-08
-8.5807e-08
5.70462e-09
4.4922e-09
-9.86783e-08
4.49469e-09
1.33069e-08
-2.03404e-07
9.83543e-09
2.4598e-08
-2.68198e-07
1.36677e-08
3.72495e-08
-3.11315e-07
1.70964e-08
5.01372e-08
-3.40916e-07
2.07423e-08
6.21146e-08
-3.61368e-07
2.49783e-08
7.20059e-08
-3.75316e-07
2.9991e-08
7.86983e-08
-3.8448e-07
3.58174e-08
8.12157e-08
-3.90087e-07
4.2365e-08
7.8824e-08
-3.93041e-07
4.94011e-08
7.11566e-08
-3.94097e-07
5.65337e-08
5.83245e-08
-3.93935e-07
6.32623e-08
4.09699e-08
-3.93138e-07
6.90059e-08
2.02604e-08
-3.92237e-07
7.32131e-08
-2.2326e-09
-3.91584e-07
7.54365e-08
-2.47529e-08
-3.91384e-07
7.54959e-08
-4.55426e-08
-3.91622e-07
7.33853e-08
-6.3009e-08
-3.92095e-07
6.92964e-08
-7.59809e-08
-3.92411e-07
6.36773e-08
-8.37923e-08
-3.92036e-07
5.70746e-08
-8.62934e-08
-3.90378e-07
5.00732e-08
-8.38343e-08
-3.86739e-07
4.31941e-08
-7.71043e-08
-3.80397e-07
3.68271e-08
-6.70246e-08
-3.70466e-07
3.11993e-08
-5.4657e-08
-3.55797e-07
2.63937e-08
-4.11264e-08
-3.3478e-07
2.23446e-08
-2.7566e-08
-3.04938e-07
1.88197e-08
-1.51462e-08
-2.62124e-07
1.53706e-08
-5.22058e-09
-1.98537e-07
1.12626e-08
-9.62628e-08
5.23527e-09
4.12097e-09
-1.06922e-07
4.12254e-09
1.20422e-08
-2.20253e-07
8.92814e-09
2.2076e-08
-2.90545e-07
1.2313e-08
3.32113e-08
-3.37761e-07
1.53106e-08
4.45024e-08
-3.70721e-07
1.85139e-08
5.49656e-08
-3.94103e-07
2.22719e-08
6.36047e-08
-4.10715e-07
2.67599e-08
6.94638e-08
-4.2237e-07
3.20303e-08
7.16634e-08
-4.30281e-07
3.79942e-08
6.9558e-08
-4.35369e-07
4.44326e-08
6.28046e-08
-4.38329e-07
5.0986e-08
5.14622e-08
-4.39776e-07
5.71828e-08
3.61165e-08
-4.40262e-07
6.2469e-08
1.77851e-08
-4.40239e-07
6.63331e-08
-2.11552e-09
-4.40048e-07
6.83652e-08
-2.20283e-08
-4.39881e-07
6.84104e-08
-4.03896e-08
-4.39731e-07
6.64704e-08
-5.57869e-08
-4.39389e-07
6.26916e-08
-6.71649e-08
-4.38514e-07
5.74813e-08
-7.39363e-08
-4.36632e-07
5.13675e-08
-7.60201e-08
-4.33194e-07
4.49e-08
-7.37264e-08
-4.27599e-07
3.8567e-08
-6.76924e-08
-4.19154e-07
3.27228e-08
-5.87539e-08
-4.06981e-07
2.75758e-08
-4.78496e-08
-3.89911e-07
2.32091e-08
-3.59572e-08
-3.66225e-07
1.95529e-08
-2.40783e-08
-3.33219e-07
1.64025e-08
-1.32226e-08
-2.86348e-07
1.33675e-08
-4.5522e-09
-2.17003e-07
9.79543e-09
-1.0538e-07
4.565e-09
3.43369e-09
-1.1379e-07
3.43475e-09
9.97389e-09
-2.34191e-07
7.39788e-09
1.82065e-08
-3.08943e-07
1.0165e-08
2.73154e-08
-3.5948e-07
1.26108e-08
3.65262e-08
-3.95181e-07
1.52487e-08
4.50708e-08
-4.21026e-07
1.83792e-08
5.21482e-08
-4.39939e-07
2.21462e-08
5.69677e-08
-4.53797e-07
2.6608e-08
5.88117e-08
-4.63813e-07
3.16877e-08
5.71191e-08
-4.70873e-07
3.71967e-08
5.15841e-08
-4.75621e-07
4.28263e-08
4.22501e-08
-4.78588e-07
4.81461e-08
2.95838e-08
-4.8027e-07
5.2675e-08
1.44284e-08
-4.81063e-07
5.5979e-08
-2.02355e-09
-4.81301e-07
5.77048e-08
-1.84748e-08
-4.81163e-07
5.77326e-08
-3.36272e-08
-4.8064e-07
5.60612e-08
-4.62752e-08
-4.7955e-07
5.28086e-08
-5.55594e-08
-4.77553e-07
4.83233e-08
-6.10171e-08
-4.74231e-07
4.30567e-08
-6.25885e-08
-4.69119e-07
3.74961e-08
-6.0561e-08
-4.61683e-07
3.20562e-08
-5.54822e-08
-4.51278e-07
2.70453e-08
-4.80597e-08
-4.37066e-07
2.26632e-08
-3.90634e-08
-4.17873e-07
1.89661e-08
-2.93111e-08
-3.91874e-07
1.58971e-08
-1.96016e-08
-3.56219e-07
1.32906e-08
-1.07467e-08
-3.06019e-07
1.08162e-08
-3.69853e-09
-2.31983e-07
7.93162e-09
-1.12788e-07
3.70923e-09
2.51232e-09
-1.18812e-07
2.50944e-09
7.26945e-09
-2.44327e-07
5.37831e-09
1.3249e-08
-3.22292e-07
7.36959e-09
1.98587e-08
-3.75243e-07
9.15287e-09
2.65648e-08
-4.12993e-07
1.11066e-08
3.28112e-08
-4.4073e-07
1.34569e-08
3.80188e-08
-4.6148e-07
1.63332e-08
4.16041e-08
-4.77148e-07
1.97659e-08
4.30331e-08
-4.88947e-07
2.37054e-08
4.18653e-08
-4.97704e-07
2.79989e-08
3.78468e-08
-5.04003e-07
3.24005e-08
3.09836e-08
-5.08317e-07
3.65928e-08
2.15911e-08
-5.11065e-07
4.0187e-08
1.03114e-08
-5.12599e-07
4.28159e-08
-1.95665e-09
-5.13218e-07
4.4185e-08
-1.42114e-08
-5.13103e-07
4.41946e-08
-2.54468e-08
-5.12249e-07
4.28447e-08
-3.47664e-08
-5.10465e-07
4.02349e-08
-4.15242e-08
-5.07464e-07
3.66685e-08
-4.5393e-08
-5.02866e-07
3.25042e-08
-4.63605e-08
-4.96277e-07
2.81252e-08
-4.4681e-08
-4.87241e-07
2.38782e-08
-4.0785e-08
-4.7517e-07
1.99963e-08
-3.52089e-08
-4.59261e-07
1.66188e-08
-2.85377e-08
-4.38345e-07
1.38003e-08
-2.1358e-08
-4.10547e-07
1.14927e-08
-1.42457e-08
-3.72887e-07
9.55523e-09
-7.79684e-09
-3.20228e-07
7.76048e-09
-2.67576e-09
-2.42808e-07
5.70459e-09
-1.18148e-07
2.6841e-09
1.41696e-09
-1.21643e-07
1.41364e-09
4.08343e-09
-2.49989e-07
2.996e-09
7.45187e-09
-3.29758e-07
4.09734e-09
1.11934e-08
-3.84099e-07
5.11494e-09
1.50258e-08
-4.23105e-07
6.27903e-09
1.86449e-08
-4.52079e-07
7.73006e-09
2.17207e-08
-4.74101e-07
9.54546e-09
2.39053e-08
-4.91078e-07
1.17452e-08
2.48715e-08
-5.04222e-07
1.43083e-08
2.43153e-08
-5.14303e-07
1.71554e-08
2.20382e-08
-5.21854e-07
2.01286e-08
1.80165e-08
-5.27294e-07
2.29984e-08
1.24001e-08
-5.30937e-07
2.54885e-08
5.56616e-09
-5.33114e-07
2.73486e-08
-1.91193e-09
-5.34068e-07
2.83279e-08
-9.36547e-09
-5.33967e-07
2.83183e-08
-1.61294e-08
-5.32808e-07
2.73234e-08
-2.16265e-08
-5.3042e-07
2.54516e-08
-2.54856e-08
-5.26557e-07
2.29522e-08
-2.7544e-08
-5.20899e-07
2.0091e-08
-2.78399e-08
-5.13131e-07
1.71507e-08
-2.65833e-08
-5.02833e-07
1.43359e-08
-2.4067e-08
-4.89493e-07
1.1806e-08
-2.0611e-08
-4.72368e-07
9.65059e-09
-1.65906e-08
-4.50243e-07
7.87844e-09
-1.23327e-08
-4.21269e-07
6.46426e-09
-8.18346e-09
-3.82361e-07
5.32462e-09
-4.45358e-09
-3.28271e-07
4.31331e-09
-1.52026e-09
-2.4893e-07
3.18822e-09
-1.21194e-07
1.52654e-09
2.0675e-10
-1.22051e-07
2.01857e-10
5.8779e-10
-2.50742e-07
3.72027e-10
1.08023e-09
-3.30746e-07
4.95869e-10
1.68755e-09
-3.85383e-07
6.76143e-10
2.38837e-09
-4.24779e-07
9.72969e-10
3.14635e-09
-4.54263e-07
1.426e-09
3.89889e-09
-4.76916e-07
2.06215e-09
4.55474e-09
-4.94639e-07
2.90528e-09
4.99797e-09
-5.08617e-07
3.95251e-09
5.09924e-09
-5.19584e-07
5.1798e-09
4.74074e-09
-5.28029e-07
6.53385e-09
3.82248e-09
-5.34314e-07
7.93806e-09
2.33153e-09
-5.38693e-07
9.24637e-09
3.61149e-10
-5.41422e-07
1.0279e-08
-1.88137e-09
-5.42673e-07
1.0847e-08
-4.08955e-09
-5.42581e-07
1.08214e-08
-5.96179e-09
-5.41145e-07
1.02087e-08
-7.29099e-09
-5.38228e-07
9.13764e-09
-8.00338e-09
-5.33658e-07
7.81317e-09
-8.10608e-09
-5.27198e-07
6.40231e-09
-7.71764e-09
-5.18571e-07
5.05132e-09
-6.94817e-09
-5.0745e-07
3.84759e-09
-5.93347e-09
-4.93341e-07
2.83357e-09
-4.81682e-09
-4.75514e-07
2.02935e-09
-3.6735e-09
-4.5282e-07
1.43324e-09
-2.59756e-09
-4.23362e-07
1.01749e-09
-1.63263e-09
-3.84077e-07
7.51969e-10
-8.42714e-10
-3.29655e-07
5.93548e-10
-2.70675e-10
-2.49978e-07
4.75911e-10
-1.2174e-07
2.75286e-10
-1.0614e-09
-1.19924e-07
-1.06629e-09
-3.08067e-09
-2.46352e-07
-2.3714e-09
-5.57214e-09
-3.24992e-07
-3.26234e-09
-8.23419e-09
-3.78765e-07
-3.95583e-09
-1.07923e-08
-4.17651e-07
-4.57004e-09
-1.30245e-08
-4.46862e-07
-5.16869e-09
-1.47132e-08
-4.69436e-07
-5.79107e-09
-1.56853e-08
-4.87238e-07
-6.42897e-09
-1.58214e-08
-5.01427e-07
-7.05447e-09
-1.50757e-08
-5.12719e-07
-7.61073e-09
-1.34856e-08
-5.21579e-07
-8.04053e-09
-1.11758e-08
-5.28316e-07
-8.30795e-09
-8.33524e-09
-5.33133e-07
-8.39993e-09
-5.16941e-09
-5.36222e-07
-8.36561e-09
-1.85806e-09
-5.37672e-07
-8.31186e-09
1.49357e-09
-5.37589e-07
-8.34368e-09
4.77175e-09
-5.35958e-07
-8.46535e-09
7.80347e-09
-5.32694e-07
-8.56538e-09
1.03582e-08
-5.27702e-07
-8.51093e-09
1.22389e-08
-5.20817e-07
-8.26195e-09
1.33081e-08
-5.11811e-07
-7.82979e-09
1.35181e-08
-5.00404e-07
-7.2556e-09
1.29064e-08
-4.86129e-07
-6.59999e-09
1.15836e-08
-4.68266e-07
-5.92492e-09
9.71605e-09
-4.45689e-07
-5.26313e-09
7.49832e-09
-4.16519e-07
-4.62512e-09
5.1424e-09
-3.77748e-07
-3.97329e-09
2.89316e-09
-3.2416e-07
-3.2454e-09
1.02186e-09
-2.4578e-07
-2.32654e-09
-1.197e-07
-1.01831e-09
-2.32593e-09
-1.15264e-07
-2.33417e-09
-6.73385e-09
-2.36839e-07
-5.10469e-09
-1.22019e-08
-3.12512e-07
-7.01204e-09
-1.81085e-08
-3.64287e-07
-8.57124e-09
-2.39262e-08
-4.01737e-07
-1.00957e-08
-2.91424e-08
-4.29883e-07
-1.17627e-08
-3.32853e-08
-4.51643e-07
-1.36498e-08
-3.59138e-08
-4.68817e-07
-1.57923e-08
-3.66767e-08
-4.82525e-07
-1.81387e-08
-3.53518e-08
-4.93464e-07
-2.05805e-08
-3.18637e-08
-5.02102e-07
-2.29657e-08
-2.63635e-08
-5.08725e-07
-2.50909e-08
-1.91738e-08
-5.13536e-07
-2.6787e-08
-1.08034e-08
-5.16659e-07
-2.79336e-08
-1.83474e-09
-5.18156e-07
-2.84844e-08
7.17925e-09
-5.18072e-07
-2.85303e-08
1.56775e-08
-5.16395e-07
-2.8061e-08
2.30739e-08
-5.13105e-07
-2.69857e-08
2.88455e-08
-5.08141e-07
-2.53318e-08
3.26415e-08
-5.01381e-07
-2.32325e-08
3.4313e-08
-4.92625e-07
-2.08575e-08
3.39088e-08
-4.81598e-07
-1.84021e-08
3.16415e-08
-4.67833e-07
-1.60287e-08
2.7862e-08
-4.50635e-07
-1.38513e-08
2.29844e-08
-4.28886e-07
-1.19254e-08
1.74876e-08
-4.00806e-07
-1.02172e-08
1.18542e-08
-3.63465e-07
-8.65025e-09
6.58917e-09
-3.11848e-07
-7.04694e-09
2.30546e-09
-2.36399e-07
-5.09747e-09
-1.15093e-07
-2.30232e-09
-3.52849e-09
-1.08199e-07
-3.5363e-09
-1.01966e-08
-2.22479e-07
-7.69236e-09
-1.84873e-08
-2.93668e-07
-1.05539e-08
-2.74738e-08
-3.42365e-07
-1.29359e-08
-3.63761e-08
-3.77517e-07
-1.53177e-08
-4.4433e-08
-4.03838e-07
-1.79879e-08
-5.09195e-08
-4.24066e-07
-2.10911e-08
-5.51501e-08
-4.39914e-07
-2.4673e-08
-5.65564e-08
-4.5243e-07
-2.86888e-08
-5.47153e-08
-4.62327e-07
-3.29781e-08
-4.94679e-08
-4.70061e-07
-3.7288e-08
-4.0947e-08
-4.75945e-07
-4.13004e-08
-2.96204e-08
-4.80187e-07
-4.46757e-08
-1.62511e-08
-4.8293e-07
-4.70989e-08
-1.8067e-09
-4.84244e-07
-4.83566e-08
1.26861e-08
-4.84154e-07
-4.84111e-08
2.61963e-08
-4.82664e-07
-4.7241e-08
3.77351e-08
-4.79756e-07
-4.48878e-08
4.65325e-08
-4.75366e-07
-4.15734e-08
5.21044e-08
-4.69362e-07
-3.75909e-08
5.4298e-08
-4.61533e-07
-3.32847e-08
5.32592e-08
-4.51574e-07
-2.89855e-08
4.93895e-08
-4.39017e-07
-2.49468e-08
4.32605e-08
-4.23174e-07
-2.13326e-08
3.55359e-08
-4.02971e-07
-1.81913e-08
2.69298e-08
-3.76719e-07
-1.54804e-08
1.81931e-08
-3.41675e-07
-1.30529e-08
1.00904e-08
-2.93124e-07
-1.06212e-08
3.51717e-09
-2.22117e-07
-7.70815e-09
-1.08061e-07
-3.5139e-09
-4.61225e-09
-9.89667e-08
-4.61987e-09
-1.33123e-08
-2.03753e-07
-1.00261e-08
-2.41257e-08
-2.69113e-07
-1.37408e-08
-3.58732e-08
-3.13775e-07
-1.68427e-08
-4.75344e-08
-3.45891e-07
-1.99651e-08
-5.81365e-08
-3.69735e-07
-2.35013e-08
-6.67152e-08
-3.8783e-07
-2.76573e-08
-7.23835e-08
-4.01745e-07
-3.25007e-08
-7.43595e-08
-4.12493e-07
-3.79611e-08
-7.20734e-08
-4.20766e-07
-4.38473e-08
-6.52628e-08
-4.27029e-07
-4.98424e-08
-5.4051e-08
-4.3164e-07
-5.55169e-08
-3.90139e-08
-4.34857e-07
-6.03672e-08
-2.11428e-08
-4.36881e-07
-6.39197e-08
-1.77001e-09
-4.37826e-07
-6.5791e-08
1.76498e-08
-4.37737e-07
-6.58373e-08
3.56556e-08
-4.36617e-07
-6.40526e-08
5.09165e-08
-4.34441e-07
-6.05759e-08
6.2409e-08
-4.31078e-07
-5.57803e-08
6.95461e-08
-4.2636e-07
-5.01389e-08
7.2186e-08
-4.20016e-07
-4.41569e-08
7.0572e-08
-4.11694e-07
-3.82657e-08
6.52681e-08
-4.00927e-07
-3.27866e-08
5.70334e-08
-3.87024e-07
-2.79152e-08
4.67539e-08
-3.68967e-07
-2.37238e-08
3.538e-08
-3.45198e-07
-2.01474e-08
2.38676e-08
-3.13184e-07
-1.69792e-08
1.32183e-08
-2.6865e-07
-1.38254e-08
4.60648e-09
-2.03451e-07
-1.00542e-08
-9.88523e-08
-4.60273e-09
-5.52106e-09
-8.79168e-08
-5.5288e-09
-1.59238e-08
-1.81373e-07
-1.19772e-08
-2.88571e-08
-2.39788e-07
-1.63924e-08
-4.29099e-08
-2.79639e-07
-2.00829e-08
-5.68798e-08
-3.08111e-07
-2.38101e-08
-6.96011e-08
-3.28984e-07
-2.80296e-08
-7.9924e-08
-3.44512e-07
-3.29946e-08
-8.67733e-08
-3.56105e-07
-3.87907e-08
-8.92036e-08
-3.64718e-07
-4.53445e-08
-8.65205e-08
-3.71001e-07
-5.24476e-08
-7.83823e-08
-3.75456e-07
-5.97114e-08
-6.49189e-08
-3.78485e-07
-6.66186e-08
-4.679e-08
-3.80419e-07
-7.25663e-08
-2.51872e-08
-3.81529e-07
-7.69554e-08
-1.72391e-09
-3.81997e-07
-7.9292e-08
2.17865e-08
-3.81913e-07
-7.93343e-08
4.3527e-08
-3.81284e-07
-7.70738e-08
6.18655e-08
-3.80025e-07
-7.27542e-08
7.56079e-08
-3.77956e-07
-6.6864e-08
8.40683e-08
-3.74829e-07
-5.99919e-08
8.71e-08
-3.70305e-07
-5.27437e-08
8.50257e-08
-3.6398e-07
-4.56395e-08
7.85345e-08
-3.55364e-07
-3.90714e-08
6.85482e-08
-3.43786e-07
-3.32518e-08
5.61418e-08
-3.28306e-07
-2.82551e-08
4.2445e-08
-3.07503e-07
-2.39977e-08
2.86163e-08
-2.79129e-07
-2.0226e-08
1.5843e-08
-2.39393e-07
-1.64831e-08
5.51804e-09
-1.81117e-07
-1.20098e-08
-8.78206e-08
-5.51366e-09
-6.21723e-09
-7.54752e-08
-6.22439e-09
-1.79187e-08
-1.56206e-07
-1.34651e-08
-3.24601e-08
-2.06836e-07
-1.84103e-08
-4.82727e-08
-2.41304e-07
-2.25228e-08
-6.40052e-08
-2.6572e-07
-2.66586e-08
-7.83357e-08
-2.83316e-07
-3.13371e-08
-8.9976e-08
-2.96038e-07
-3.68339e-08
-9.76989e-08
-3.05144e-07
-4.32382e-08
-1.00444e-07
-3.11487e-07
-5.0486e-08
-9.74198e-08
-3.15698e-07
-5.8327e-08
-8.82438e-08
-3.18294e-07
-6.63378e-08
-7.30548e-08
-3.19706e-07
-7.39683e-08
-5.25905e-08
-3.20342e-07
-8.05421e-08
-2.81858e-08
-3.20531e-07
-8.54021e-08
-1.66756e-09
-3.20524e-07
-8.79912e-08
2.48945e-08
-3.20446e-07
-8.80285e-08
4.94295e-08
-3.20303e-07
-8.55164e-08
7.00973e-08
-3.19975e-07
-8.07181e-08
8.55588e-08
-3.19228e-07
-7.41895e-08
9.5044e-08
-3.17722e-07
-6.6592e-08
9.84047e-08
-3.15067e-07
-5.85978e-08
9.60102e-08
-3.10826e-07
-5.07598e-08
8.86286e-08
-3.0448e-07
-4.35026e-08
7.73205e-08
-2.95399e-07
-3.70787e-08
6.32913e-08
-2.82722e-07
-3.15548e-08
4.78253e-08
-2.65195e-07
-2.68422e-08
3.22304e-08
-2.40873e-07
-2.26614e-08
1.78387e-08
-2.06504e-07
-1.84974e-08
6.21455e-09
-1.55994e-07
-1.34982e-08
-7.53961e-08
-6.20998e-09
-6.66523e-09
-6.2138e-08
-6.67194e-09
-1.91957e-08
-1.29262e-07
-1.44137e-08
-3.47784e-08
-1.71581e-07
-1.96719e-08
-5.17394e-08
-2.00322e-07
-2.40209e-08
-6.86372e-08
-2.20449e-07
-2.83734e-08
-8.40438e-08
-2.34634e-07
-3.3276e-08
-9.65512e-08
-2.44511e-07
-3.90195e-08
-1.04837e-07
-2.51157e-07
-4.57007e-08
-1.0776e-07
-2.55333e-07
-5.32306e-08
-1.04476e-07
-2.57635e-07
-6.13476e-08
-9.45902e-08
-2.58554e-07
-6.96261e-08
-7.82463e-08
-2.58563e-07
-7.74871e-08
-5.62631e-08
-2.58082e-07
-8.42428e-08
-3.00645e-08
-2.57496e-07
-8.92334e-08
-1.59955e-09
-2.57091e-07
-9.18986e-08
2.69071e-08
-2.57022e-07
-9.19308e-08
5.32276e-08
-2.57295e-07
-8.9328e-08
7.54083e-08
-2.57763e-07
-8.43927e-08
9.19988e-08
-2.58138e-07
-7.7681e-08
1.02186e-07
-2.58058e-07
-6.98517e-08
1.05794e-07
-2.57085e-07
-6.15898e-08
1.03208e-07
-2.54762e-07
-5.34786e-08
9.52541e-08
-2.50583e-07
-4.59428e-08
8.3063e-08
-2.43962e-07
-3.92462e-08
6.79514e-08
-2.34131e-07
-3.34797e-08
5.13114e-08
-2.20008e-07
-2.85468e-08
3.45556e-08
-1.99958e-07
-2.41584e-08
1.91193e-08
-1.71308e-07
-1.97598e-08
6.66195e-09
-1.29092e-07
-1.4445e-08
-6.20766e-08
-6.65758e-09
-6.83257e-09
-4.84675e-08
-6.83801e-09
-1.96803e-08
-1.01656e-07
-1.47582e-08
-3.56937e-08
-1.35462e-07
-2.01061e-08
-5.31732e-08
-1.58349e-07
-2.44931e-08
-7.06273e-08
-1.74137e-07
-2.88578e-08
-8.65648e-08
-1.84938e-07
-3.37582e-08
-9.95092e-08
-1.92084e-07
-3.94829e-08
-1.08077e-07
-1.96467e-07
-4.61222e-08
-1.11078e-07
-1.98753e-07
-5.35793e-08
-1.07651e-07
-1.99468e-07
-6.15939e-08
-9.74013e-08
-1.99075e-07
-6.97289e-08
-8.05155e-08
-1.98025e-07
-7.74234e-08
-5.78348e-08
-1.96745e-07
-8.40178e-08
-3.08358e-08
-1.95621e-07
-8.88748e-08
-1.51892e-09
-1.9495e-07
-9.14573e-08
2.78365e-08
-1.94893e-07
-9.14847e-08
5.49496e-08
-1.95452e-07
-8.89556e-08
7.78106e-08
-1.96477e-07
-8.41469e-08
9.49357e-08
-1.97673e-07
-7.75904e-08
1.05464e-07
-1.98661e-07
-6.99257e-08
1.09198e-07
-1.99011e-07
-6.18071e-08
1.06513e-07
-1.98277e-07
-5.37995e-08
9.82664e-08
-1.95997e-07
-4.63396e-08
8.56232e-08
-1.9163e-07
-3.96886e-08
6.9966e-08
-1.84528e-07
-3.39452e-08
5.27558e-08
-1.7378e-07
-2.90181e-08
3.54759e-08
-1.58061e-07
-2.46178e-08
1.96054e-08
-1.35251e-07
-2.01862e-08
6.82742e-09
-1.01527e-07
-1.47869e-08
-4.84249e-08
-6.82424e-09
-6.6841e-09
-3.50934e-08
-6.69005e-09
-1.92963e-08
-7.46249e-08
-1.44191e-08
-3.50967e-08
-1.0006e-07
-1.96014e-08
-5.24525e-08
-1.17182e-07
-2.38115e-08
-6.98692e-08
-1.28742e-07
-2.79777e-08
-8.58273e-08
-1.36326e-07
-3.26535e-08
-9.88185e-08
-1.40972e-07
-3.81207e-08
-1.07419e-07
-1.43411e-07
-4.44554e-08
-1.10442e-07
-1.44174e-07
-5.15562e-08
-1.07028e-07
-1.43717e-07
-5.9165e-08
-9.68004e-08
-1.42441e-07
-6.68605e-08
-7.99707e-08
-1.40749e-07
-7.41062e-08
-5.73972e-08
-1.39031e-07
-8.02872e-08
-3.05541e-08
-1.37638e-07
-8.48258e-08
-1.42249e-09
-1.36844e-07
-8.72383e-08
2.77449e-08
-1.36799e-07
-8.72617e-08
5.4693e-08
-1.37506e-07
-8.48946e-08
7.74355e-08
-1.38824e-07
-8.03963e-08
9.44846e-08
-1.40476e-07
-7.4246e-08
1.04968e-07
-1.42117e-07
-6.70276e-08
1.08668e-07
-1.43359e-07
-5.93517e-08
1.05946e-07
-1.43804e-07
-5.17512e-08
9.76401e-08
-1.43041e-07
-4.46497e-08
8.4939e-08
-1.40623e-07
-3.83061e-08
6.92438e-08
-1.36009e-07
-3.28236e-08
5.20574e-08
-1.28469e-07
-2.81238e-08
3.48906e-08
-1.16968e-07
-2.39265e-08
1.92216e-08
-9.99066e-08
-1.96756e-08
6.67893e-09
-7.45382e-08
-1.44462e-08
-3.50683e-08
-6.6777e-09
-6.17721e-09
-2.27341e-08
-6.18211e-09
-1.79473e-08
-4.95551e-08
-1.32997e-08
-3.28782e-08
-6.71162e-08
-1.8013e-08
-4.94685e-08
-7.87958e-08
-2.17961e-08
-6.62663e-08
-8.641e-08
-2.55344e-08
-8.17548e-08
-9.10797e-08
-2.97584e-08
-9.44157e-08
-9.35757e-08
-3.47355e-08
-1.02846e-07
-9.44494e-08
-4.05317e-08
-1.05863e-07
-9.41169e-08
-4.70402e-08
-1.02645e-07
-9.29278e-08
-5.40077e-08
-9.28438e-08
-9.1205e-08
-6.10375e-08
-7.66862e-08
-8.92734e-08
-6.76328e-08
-5.50135e-08
-8.74553e-08
-7.32488e-08
-2.92531e-08
-8.60371e-08
-7.73611e-08
-1.30566e-09
-8.525e-08
-7.95409e-08
2.6674e-08
-8.52175e-08
-7.95609e-08
5.25296e-08
-8.59416e-08
-7.74198e-08
7.43545e-08
-8.73026e-08
-7.33461e-08
9.07132e-08
-8.90736e-08
-6.77608e-08
1.0075e-07
-9.09681e-08
-6.11854e-08
1.0423e-07
-9.26687e-08
-5.41707e-08
1.01484e-07
-9.38471e-08
-4.72116e-08
9.33301e-08
-9.41835e-08
-4.07037e-08
8.09323e-08
-9.33239e-08
-3.49013e-08
6.56876e-08
-9.08536e-08
-2.99112e-08
4.9104e-08
-8.62189e-08
-2.5667e-08
3.26866e-08
-7.86486e-08
-2.19015e-08
1.78785e-08
-6.70166e-08
-1.8082e-08
6.17108e-09
-4.95044e-08
-1.33264e-08
-2.27248e-08
-6.17246e-09
-5.25328e-09
-1.2223e-08
-5.25781e-09
-1.55378e-08