/*--------------------------------*- C++ -*----------------------------------*\
| =========                 |                                                 |
| \\      /  F ield         | OpenFOAM: The Open Source CFD Toolbox           |
|  \\    /   O peration     | Version:  v1906                                 |
|   \\  /    A nd           | Web:      www.OpenFOAM.com                      |
|    \\/     M anipulation  |                                                 |
\*---------------------------------------------------------------------------*/
FoamFile
{
    version     2.0;
    format      ascii;
    class       volVectorField;
    location    "90";
    object      U;
}
// * * * * * * * * * * * * * * * * * * * * * * * * * * * * * * * * * * * * * //

dimensions      [0 1 -1 0 0 0 0];


internalField   nonuniform List<vector> 
78750
(
(6.64682e-06 -1.06955e-06 -0.000186169)
(1.41502e-05 5.61691e-05 -0.00039497)
(3.33004e-05 0.000115323 -0.000530671)
(5.49215e-05 0.000184462 -0.000650753)
(7.24396e-05 0.000258536 -0.000755343)
(8.28074e-05 0.000333894 -0.000846076)
(8.59588e-05 0.00040827 -0.000923907)
(8.18004e-05 0.000479266 -0.000990715)
(7.15109e-05 0.000545689 -0.00104732)
(5.59367e-05 0.000606013 -0.00109523)
(3.67151e-05 0.000659768 -0.00113493)
(1.49729e-05 0.00070606 -0.0011675)
(-7.70547e-06 0.000744888 -0.00119311)
(-3.03962e-05 0.000775816 -0.00121245)
(-5.20161e-05 0.000799156 -0.00122546)
(-7.22226e-05 0.000814701 -0.00123258)
(-9.05248e-05 0.000822755 -0.00123359)
(-0.000107178 0.000823147 -0.00122878)
(-0.000122156 0.000816149 -0.00121798)
(-0.000135889 0.000801544 -0.00120149)
(-0.000148445 0.0007796 -0.00117911)
(-0.000160005 0.000750104 -0.00115117)
(-0.000170223 0.000713402 -0.00111746)
(-0.000178716 0.000669391 -0.00107827)
(-0.000184586 0.000618667 -0.00103321)
(-0.000186957 0.000561429 -0.000982398)
(-0.000184647 0.000498744 -0.000925141)
(-0.000176758 0.00043133 -0.00086129)
(-0.000162422 0.000360936 -0.000789798)
(-0.000141426 0.000289008 -0.000710332)
(-0.000113931 0.000218127 -0.000621723)
(-8.12954e-05 0.000150677 -0.000523926)
(-4.67832e-05 9.03498e-05 -0.000416571)
(-1.90494e-05 4.14091e-05 -0.000301285)
(-7.06847e-06 -3.12619e-06 -0.000134164)
(-1.07921e-05 0.00035173 -0.000464805)
(-4.59919e-05 0.0004665 -0.000785214)
(-6.78137e-05 0.000544713 -0.000940913)
(-0.000100749 0.000632005 -0.00106483)
(-0.000136698 0.00072099 -0.00116878)
(-0.000172427 0.000808458 -0.00125765)
(-0.000207279 0.00088931 -0.00133708)
(-0.000239161 0.00096169 -0.00140852)
(-0.000267384 0.00102226 -0.00147463)
(-0.000289968 0.00107055 -0.00153504)
(-0.00030656 0.00110502 -0.00159081)
(-0.000315667 0.00112673 -0.00164085)
(-0.000317422 0.00113594 -0.00168542)
(-0.000310933 0.00113519 -0.00172315)
(-0.000297136 0.00112618 -0.00175386)
(-0.000276398 0.00111224 -0.00177601)
(-0.000250344 0.00109515 -0.00178953)
(-0.000219908 0.00107759 -0.00179323)
(-0.000187107 0.00106016 -0.00178726)
(-0.000153103 0.00104355 -0.00177113)
(-0.000119891 0.0010262 -0.00174577)
(-8.85483e-05 0.00100692 -0.00171142)
(-6.05799e-05 0.000982746 -0.00166972)
(-3.65693e-05 0.000952033 -0.00162118)
(-1.72362e-05 0.000912159 -0.00156757)
(-2.47323e-06 0.000862794 -0.00150894)
(7.7993e-06 0.000803037 -0.00144648)
(1.42584e-05 0.000734823 -0.001379)
(1.74829e-05 0.000659422 -0.00130631)
(1.83395e-05 0.000581132 -0.00122495)
(1.744e-05 0.000503113 -0.00113222)
(1.57302e-05 0.000431479 -0.00102054)
(1.45214e-05 0.000370099 -0.000881701)
(1.60331e-05 0.000325011 -0.000705283)
(-1.48381e-06 0.000269933 -0.000376323)
(2.78616e-05 0.000996826 -0.000490702)
(2.21748e-05 0.0014095 -0.000871493)
(1.90045e-05 0.00161968 -0.00104682)
(-5.62868e-07 0.00180426 -0.00118071)
(-2.86091e-05 0.00196541 -0.00129043)
(-6.12566e-05 0.00210482 -0.00138456)
(-9.5416e-05 0.0022194 -0.00147051)
(-0.000129756 0.00230946 -0.00155111)
(-0.00016191 0.00237562 -0.00162797)
(-0.000190889 0.00241847 -0.00170167)
(-0.000214921 0.00243954 -0.00177193)
(-0.000233658 0.00244048 -0.00183825)
(-0.000246083 0.00242397 -0.00189951)
(-0.000252435 0.00239251 -0.00195488)
(-0.000252608 0.00235598 -0.0020004)
(-0.000247463 0.00231685 -0.00203567)
(-0.000237407 0.00227838 -0.00205949)
(-0.000223796 0.00224249 -0.0020715)
(-0.000207459 0.00221086 -0.00207112)
(-0.00018992 0.00218335 -0.00205869)
(-0.000172185 0.00215947 -0.00203439)
(-0.000155653 0.0021367 -0.00199949)
(-0.000141162 0.0021126 -0.00195499)
(-0.000129595 0.00208316 -0.00190292)
(-0.000121227 0.00204538 -0.00184464)
(-0.000116058 0.00199557 -0.00178208)
(-0.000113538 0.00193199 -0.00171589)
(-0.000112689 0.00185297 -0.00164647)
(-0.000112236 0.00175898 -0.00157244)
(-0.000110573 0.00165075 -0.00149098)
(-0.000106101 0.00153019 -0.0013967)
(-9.66107e-05 0.001399 -0.00127946)
(-7.9414e-05 0.00125754 -0.00112353)
(-5.57417e-05 0.00110553 -0.00090903)
(-4.25822e-05 0.000812587 -0.000470959)
(2.78788e-05 0.00133958 -0.000577445)
(2.93513e-05 0.0019649 -0.00101792)
(4.01469e-05 0.00228554 -0.00121475)
(4.19294e-05 0.00256114 -0.00135953)
(3.40452e-05 0.00279536 -0.00147463)
(1.97181e-05 0.00299164 -0.00157224)
(1.19687e-06 0.0031506 -0.00166064)
(-1.96496e-05 0.0032742 -0.00174353)
(-4.12676e-05 0.00336327 -0.00182363)
(-6.18154e-05 0.00342033 -0.00190112)
(-8.00903e-05 0.00344766 -0.00197594)
(-9.49243e-05 0.00344932 -0.00204654)
(-0.000105946 0.00342935 -0.00211155)
(-0.000112851 0.00339327 -0.00216911)
(-0.000115739 0.00334635 -0.00221782)
(-0.000114581 0.00329454 -0.00225596)
(-0.000109974 0.00324248 -0.00228276)
(-0.00010259 0.00319465 -0.00229699)
(-9.35361e-05 0.00315323 -0.00229846)
(-8.38729e-05 0.00311956 -0.00228653)
(-7.48315e-05 0.00309205 -0.00226188)
(-6.74318e-05 0.00306834 -0.00222476)
(-6.25787e-05 0.00304334 -0.00217711)
(-6.07832e-05 0.00301222 -0.00212035)
(-6.22434e-05 0.00296839 -0.0020576)
(-6.66875e-05 0.00290696 -0.00199076)
(-7.33313e-05 0.00282254 -0.00192274)
(-8.07982e-05 0.00271254 -0.00185397)
(-8.7337e-05 0.00257492 -0.00178487)
(-9.10403e-05 0.00241053 -0.00171194)
(-9.00071e-05 0.00222051 -0.00163017)
(-8.19342e-05 0.00201336 -0.00152442)
(-6.46417e-05 0.00178946 -0.001374)
(-4.27212e-05 0.00154821 -0.0011458)
(-3.47737e-05 0.00109198 -0.000622366)
(4.31541e-05 0.00177236 -0.00054197)
(6.15527e-05 0.00262704 -0.00098051)
(9.04608e-05 0.0030642 -0.00116741)
(0.000115081 0.00344053 -0.00129709)
(0.000129898 0.00376281 -0.00139562)
(0.000136751 0.00403479 -0.00147851)
(0.000137553 0.0042577 -0.00155476)
(0.00013346 0.00443236 -0.00162909)
(0.000125749 0.0045594 -0.00170363)
(0.000115577 0.00464172 -0.00177812)
(0.000104222 0.00468434 -0.00185088)
(9.26969e-05 0.00469322 -0.00191968)
(8.19092e-05 0.00467498 -0.0019823)
(7.23819e-05 0.00463552 -0.00203718)
(6.44091e-05 0.00458213 -0.00208301)
(5.79644e-05 0.00452195 -0.00211873)
(5.2761e-05 0.00446192 -0.0021432)
(4.83157e-05 0.00440703 -0.00215564)
(4.40241e-05 0.00436101 -0.00215525)
(3.92855e-05 0.00432474 -0.00214186)
(3.34638e-05 0.00429733 -0.00211542)
(2.6101e-05 0.00427471 -0.00207657)
(1.68269e-05 0.00425154 -0.0020261)
(5.59271e-06 0.00422037 -0.0019657)
(-7.45488e-06 0.0041745 -0.00189742)
(-2.17937e-05 0.00410645 -0.00182429)
(-3.66711e-05 0.00400834 -0.00174958)
(-5.10404e-05 0.0038734 -0.00167617)
(-6.37059e-05 0.00369911 -0.00160476)
(-7.34022e-05 0.00348633 -0.00153332)
(-7.86287e-05 0.00323716 -0.00145613)
(-7.70117e-05 0.00295527 -0.00136149)
(-6.6103e-05 0.00264098 -0.00122855)
(-4.73804e-05 0.00228101 -0.00103021)
(-3.75929e-05 0.00156835 -0.000559313)
(4.21388e-05 0.00198439 -0.000472314)
(6.70625e-05 0.00296424 -0.000866968)
(0.000104669 0.00347151 -0.00102618)
(0.000143732 0.00391847 -0.00112991)
(0.000173997 0.00431026 -0.00120701)
(0.000196338 0.00464967 -0.00127311)
(0.000212117 0.00493712 -0.00133679)
(0.000222004 0.00517347 -0.00140161)
(0.000226639 0.00535988 -0.00146867)
(0.000226685 0.00549804 -0.00153663)
(0.000222989 0.00558994 -0.00160359)
(0.000216395 0.00563976 -0.0016668)
(0.000207728 0.0056533 -0.00172426)
(0.000197583 0.00563842 -0.00177386)
(0.00018628 0.00560364 -0.0018147)
(0.000173908 0.00555789 -0.00184542)
(0.000160454 0.00550843 -0.0018651)
(0.00014578 0.00546107 -0.00187275)
(0.000129823 0.00541892 -0.00186795)
(0.000112486 0.00538301 -0.0018504)
(9.38467e-05 0.00535128 -0.00182048)
(7.39763e-05 0.00531964 -0.00177863)
(5.31483e-05 0.00528116 -0.00172586)
(3.1685e-05 0.0052281 -0.00166324)
(1.02172e-05 0.00515182 -0.00159277)
(-1.05358e-05 0.00504541 -0.00151686)
(-2.97421e-05 0.00490271 -0.00143886)
(-4.66726e-05 0.00472026 -0.00136161)
(-6.05859e-05 0.00449528 -0.00128727)
(-7.05883e-05 0.00422729 -0.00121542)
(-7.55084e-05 0.00391563 -0.00114298)
(-7.31435e-05 0.00356063 -0.0010626)
(-6.07883e-05 0.00316055 -0.000960188)
(-4.20926e-05 0.00270934 -0.000809681)
(-3.11617e-05 0.0018347 -0.000438233)
(3.91708e-05 0.00214608 -0.000343287)
(6.49917e-05 0.00323079 -0.000642118)
(9.96096e-05 0.00380201 -0.000761095)
(0.000135102 0.00431397 -0.00084101)
(0.000162526 0.0047717 -0.000904544)
(0.000182918 0.00517624 -0.000963657)
(0.000197549 0.00552758 -0.00102402)
(0.00020718 0.00582548 -0.00108809)
(0.000212456 0.00606955 -0.00115565)
(0.000214153 0.00626017 -0.00122475)
(0.000212947 0.00639933 -0.00129252)
(0.000209448 0.00649088 -0.00135604)
(0.000204032 0.00654095 -0.00141291)
(0.000196996 0.00655736 -0.00146134)
(0.000188448 0.00654912 -0.00149993)
(0.000178378 0.00652504 -0.00152788)
(0.000166704 0.00649279 -0.00154431)
(0.000153418 0.00645765 -0.00154858)
(0.000138482 0.00642266 -0.00154037)
(0.000121979 0.00638803 -0.00151965)
(0.000104 0.00635164 -0.00148674)
(8.47941e-05 0.00630862 -0.00144222)
(6.45653e-05 0.00625225 -0.0013869)
(4.37188e-05 0.00617429 -0.00132188)
(2.2715e-05 0.00606685 -0.00124883)
(2.20071e-06 0.00592301 -0.00117015)
(-1.7161e-05 0.0057377 -0.00108906)
(-3.4544e-05 0.00550739 -0.00100884)
(-4.90771e-05 0.00522986 -0.00093228)
(-5.97851e-05 0.00490364 -0.000860216)
(-6.55619e-05 0.00452703 -0.000791627)
(-6.47873e-05 0.00409858 -0.000722357)
(-5.537e-05 0.00361418 -0.000645501)
(-3.94702e-05 0.00306859 -0.000544049)
(-2.76463e-05 0.00204692 -0.000289573)
(2.76716e-05 0.00220939 -0.000230335)
(4.58745e-05 0.00335485 -0.000437956)
(7.05507e-05 0.00398251 -0.000517453)
(9.45677e-05 0.00455086 -0.000576807)
(0.00011245 0.00506313 -0.000631103)
(0.000125192 0.00552084 -0.000686795)
(0.000134013 0.00592346 -0.000747442)
(0.00013961 0.00627077 -0.000813689)
(0.0001426 0.00656182 -0.000884493)
(0.000143527 0.00679689 -0.000956971)
(0.000142886 0.00697734 -0.00102779)
(0.000141012 0.00710682 -0.0010937)
(0.000138139 0.00719101 -0.00115221)
(0.000134363 0.00723754 -0.00120154)
(0.000129707 0.007255 -0.00124051)
(0.000124073 0.00725205 -0.00126821)
(0.000117335 0.00723604 -0.00128397)
(0.000109328 0.00721218 -0.00128738)
(9.99908e-05 0.0071831 -0.00127825)
(8.9266e-05 0.00714886 -0.00125666)
(7.71942e-05 0.00710676 -0.00122297)
(6.38087e-05 0.00705174 -0.00117778)
(4.92793e-05 0.00697666 -0.00112192)
(3.38848e-05 0.00687367 -0.00105655)
(1.80702e-05 0.00673504 -0.000983352)
(2.3538e-06 0.00655457 -0.000904717)
(-1.26091e-05 0.00632753 -0.000823915)
(-2.60784e-05 0.0060513 -0.000744455)
(-3.72283e-05 0.00572396 -0.000669542)
(-4.5202e-05 0.00534466 -0.000600774)
(-4.91309e-05 0.00491178 -0.000538252)
(-4.78603e-05 0.00442418 -0.000479827)
(-4.01221e-05 0.00387817 -0.000421909)
(-2.79381e-05 0.00327 -0.000353373)
(-1.92966e-05 0.0021554 -0.000183678)
(1.92141e-05 0.00227905 -0.000138156)
(3.07371e-05 0.00348561 -0.000272545)
(4.60813e-05 0.0041562 -0.000325967)
(6.00572e-05 0.00476742 -0.000371625)
(6.97653e-05 0.00532154 -0.000419137)
(7.6078e-05 0.00582043 -0.000471765)
(7.98511e-05 0.0062636 -0.00053147)
(8.16494e-05 0.00665084 -0.000598029)
(8.19867e-05 0.006981 -0.000669763)
(8.13076e-05 0.00725382 -0.00074339)
(8.00073e-05 0.00747012 -0.000815322)
(7.83573e-05 0.00763299 -0.000882162)
(7.65139e-05 0.00774758 -0.000941436)
(7.45273e-05 0.00782105 -0.000991376)
(7.23468e-05 0.00786149 -0.00103088)
(6.98642e-05 0.00787712 -0.00105911)
(6.68769e-05 0.00787505 -0.00107549)
(6.31567e-05 0.00786037 -0.00107964)
(5.85005e-05 0.00783556 -0.00107146)
(5.27766e-05 0.00780036 -0.00105107)
(4.58562e-05 0.00775181 -0.00101888)
(3.76968e-05 0.00768447 -0.000975492)
(2.8351e-05 0.00759123 -0.000921784)
(1.80497e-05 0.00746437 -0.000858879)
(7.10436e-06 0.00729663 -0.000788461)
(-4.0212e-06 0.00708222 -0.0007129)
(-1.47938e-05 0.00681715 -0.000635472)
(-2.45451e-05 0.00649933 -0.000559772)
(-3.25779e-05 0.00612772 -0.000489194)
(-3.81736e-05 0.00570201 -0.000425736)
(-4.0655e-05 0.00522128 -0.000370093)
(-3.91762e-05 0.0046848 -0.000321234)
(-3.2812e-05 0.00408966 -0.00027742)
(-2.30127e-05 0.00343304 -0.000230891)
(-1.56226e-05 0.00224602 -0.000116305)
(1.30595e-05 0.00232248 -8.34755e-05)
(2.03783e-05 0.00357239 -0.000172162)
(3.0459e-05 0.00427316 -0.000208504)
(3.91216e-05 0.0049162 -0.000243831)
(4.45817e-05 0.00550332 -0.000284701)
(4.74959e-05 0.00603597 -0.0003328)
(4.85169e-05 0.00651343 -0.000389172)
(4.81237e-05 0.00693499 -0.000453123)
(4.68041e-05 0.00729922 -0.000522616)
(4.49943e-05 0.00760514 -0.000594207)
(4.30914e-05 0.00785297 -0.000664219)
(4.13639e-05 0.00804513 -0.000729297)
(3.99834e-05 0.00818631 -0.00078701)
(3.898e-05 0.00828311 -0.000835699)
(3.82978e-05 0.00834327 -0.000874319)
(3.77714e-05 0.00837461 -0.000902135)
(3.71844e-05 0.008384 -0.000918631)
(3.62547e-05 0.00837641 -0.000923465)
(3.47232e-05 0.00835418 -0.000916538)
(3.23294e-05 0.00831687 -0.000897994)
(2.88813e-05 0.00826118 -0.000868223)
(2.42649e-05 0.00818154 -0.000827822)
(1.84977e-05 0.00807085 -0.000777587)
(1.16945e-05 0.00792163 -0.000718587)
(4.11634e-06 0.007727 -0.000652396)
(-3.87119e-06 0.0074817 -0.000581323)
(-1.17822e-05 0.0071824 -0.000508537)
(-1.9051e-05 0.00682786 -0.000437649)
(-2.50721e-05 0.00641792 -0.000372085)
(-2.92574e-05 0.00595318 -0.000314091)
(-3.10566e-05 0.00543354 -0.000264665)
(-2.98348e-05 0.00485899 -0.000223476)
(-2.48732e-05 0.00422735 -0.000189851)
(-1.72937e-05 0.00353658 -0.000157991)
(-1.17497e-05 0.00230074 -7.7916e-05)
(1.03243e-05 0.00236402 -5.37801e-05)
(1.5852e-05 0.00365022 -0.000115231)
(2.31947e-05 0.00437609 -0.000140312)
(2.90017e-05 0.00504619 -0.000168093)
(3.21565e-05 0.00566199 -0.000203439)
(3.32397e-05 0.00622457 -0.000247141)
(3.27813e-05 0.00673285 -0.00029962)
(3.12162e-05 0.00718549 -0.000359942)
(2.90304e-05 0.00758047 -0.000425852)
(2.66923e-05 0.00791614 -0.000493905)
(2.46175e-05 0.00819205 -0.000560445)
(2.31005e-05 0.00841008 -0.00062227)
(2.23132e-05 0.00857446 -0.000677056)
(2.2287e-05 0.00869149 -0.000723273)
(2.29229e-05 0.00876858 -0.000759953)
(2.40234e-05 0.00881331 -0.000786444)
(2.53023e-05 0.00883232 -0.000802286)
(2.64468e-05 0.00883038 -0.000807188)
(2.71304e-05 0.0088097 -0.000801067)
(2.70604e-05 0.00876964 -0.00078405)
(2.59781e-05 0.00870675 -0.000756486)
(2.37179e-05 0.00861541 -0.000718888)
(2.02006e-05 0.00848856 -0.000671968)
(1.54805e-05 0.00831893 -0.000616682)
(9.74119e-06 0.00809996 -0.000554498)
(3.29655e-06 0.00782683 -0.000487585)
(-3.41875e-06 0.00749687 -0.000419006)
(-9.88205e-06 0.00710966 -0.000352293)
(-1.55322e-05 0.00666599 -0.000290906)
(-1.98234e-05 0.00616737 -0.000237224)
(-2.22582e-05 0.00561441 -0.000192525)
(-2.22949e-05 0.00500767 -0.000156978)
(-1.92764e-05 0.00434556 -0.000130772)
(-1.37917e-05 0.00362658 -0.00010944)
(-9.52699e-06 0.00234992 -5.319e-05)
(7.90052e-06 0.00239475 -3.93923e-05)
(1.17241e-05 0.00370931 -8.41604e-05)
(1.67747e-05 0.00445546 -0.000101836)
(2.01903e-05 0.0051482 -0.00012454)
(2.13583e-05 0.00578863 -0.000156148)
(2.08621e-05 0.00637744 -0.000196707)
(1.91699e-05 0.00691302 -0.000246246)
(1.67233e-05 0.00739332 -0.000303565)
(1.40213e-05 0.00781542 -0.000366321)
(1.15639e-05 0.00817708 -0.000431028)
(9.78091e-06 0.00847717 -0.000494179)
(8.97877e-06 0.00871718 -0.000552712)
(9.31861e-06 0.00890106 -0.000604505)
(1.08024e-05 0.00903493 -0.000648133)
(1.32905e-05 0.00912604 -0.000682742)
(1.6516e-05 0.00918183 -0.000707712)
(2.01332e-05 0.00920877 -0.000722638)
(2.37486e-05 0.00921146 -0.000727236)
(2.6972e-05 0.00919193 -0.000721436)
(2.94291e-05 0.00914936 -0.000705335)
(3.07955e-05 0.00908025 -0.000679253)
(3.08162e-05 0.00897892 -0.000643651)
(2.93416e-05 0.00883835 -0.00059917)
(2.63444e-05 0.00865139 -0.000546683)
(2.19547e-05 0.00841166 -0.00048754)
(1.64378e-05 0.0081147 -0.000423782)
(1.01997e-05 0.00775836 -0.000358321)
(3.74531e-06 0.00734293 -0.000294608)
(-2.35988e-06 0.00687012 -0.000236107)
(-7.56452e-06 0.00634219 -0.000185348)
(-1.13655e-05 0.00576064 -0.000143816)
(-1.32761e-05 0.00512666 -0.000112098)
(-1.2639e-05 0.00443921 -9.10395e-05)
(-9.49765e-06 0.00369711 -7.71941e-05)
(-6.98657e-06 0.00238739 -3.78327e-05)
(6.12961e-06 0.00242723 -3.2822e-05)
(8.41367e-06 0.00376906 -6.74028e-05)
(1.12606e-05 0.00453401 -8.06113e-05)
(1.21428e-05 0.00524718 -0.000100348)
(1.10854e-05 0.00590959 -0.000129723)
(8.73965e-06 0.0065215 -0.000168359)
(5.58152e-06 0.00708098 -0.000215922)
(2.08528e-06 0.00758518 -0.000271091)
(-1.24006e-06 0.00803048 -0.00033138)
(-3.86298e-06 0.00841391 -0.00039337)
(-5.35539e-06 0.00873395 -0.000453639)
(-5.41382e-06 0.00899174 -0.000509343)
(-3.91416e-06 0.00919119 -0.000558494)
(-8.87694e-07 0.00933834 -0.000599822)
(3.46635e-06 0.00944046 -0.000632528)
(8.82185e-06 0.00950493 -0.00065606)
(1.47656e-05 0.00953813 -0.000670026)
(2.08306e-05 0.00954454 -0.000674173)
(2.65454e-05 0.00952606 -0.000668422)
(3.14602e-05 0.00948171 -0.000652871)
(3.5172e-05 0.00940789 -0.000627808)
(3.73447e-05 0.00929881 -0.000593664)
(3.77574e-05 0.00914743 -0.000551026)
(3.63224e-05 0.00894656 -0.000500705)
(3.31136e-05 0.00868993 -0.000443949)
(2.83593e-05 0.00837324 -0.000382683)
(2.2442e-05 0.00799473 -0.000319673)
(1.58618e-05 0.00755526 -0.000258286)
(9.19432e-06 0.00705727 -0.000201957)
(3.00952e-06 0.00650381 -0.000153315)
(-2.18027e-06 0.00589726 -0.00011396)
(-5.89964e-06 0.00523928 -8.47216e-05)
(-7.44481e-06 0.00452927 -6.67766e-05)
(-6.30034e-06 0.00376621 -5.73988e-05)
(-5.20217e-06 0.00242541 -2.88529e-05)
(4.60296e-06 0.00246089 -3.35717e-05)
(5.45936e-06 0.00382967 -6.4844e-05)
(6.53173e-06 0.00461229 -7.70606e-05)
(5.37868e-06 0.00534407 -9.59492e-05)
(2.53515e-06 0.0060259 -0.000124266)
(-1.28543e-06 0.00665788 -0.000161563)
(-5.57925e-06 0.00723773 -0.000207443)
(-9.8676e-06 0.00776211 -0.000260554)
(-1.36253e-05 0.00822664 -0.000318398)
(-1.63479e-05 0.0086278 -0.000377633)
(-1.76194e-05 0.00896373 -0.000434992)
(-1.71721e-05 0.00923545 -0.000487826)
(-1.49089e-05 0.00944685 -0.000534318)
(-1.09066e-05 0.00960409 -0.000573322)
(-5.39389e-06 0.00971448 -0.000604111)
(1.27227e-06 0.00978546 -0.000626194)
(8.6435e-06 0.0098234 -0.000639205)
(1.62258e-05 0.00983271 -0.00064292)
(2.35141e-05 0.00981516 -0.000637263)
(3.00222e-05 0.00976967 -0.000622333)
(3.53028e-05 0.00969246 -0.00059839)
(3.89894e-05 0.00957762 -0.000565835)
(4.08099e-05 0.00941797 -0.000525203)
(4.06446e-05 0.00920623 -0.000477244)
(3.85123e-05 0.00893608 -0.000423104)
(3.46076e-05 0.00860327 -0.000364572)
(2.92766e-05 0.00820631 -0.000304253)
(2.2989e-05 0.00774653 -0.000245378)
(1.62962e-05 0.00722698 -0.000191313)
(9.76083e-06 0.00665154 -0.000144663)
(3.87444e-06 0.00602326 -0.000107016)
(-8.71377e-07 0.00534421 -7.91389e-05)
(-3.75023e-06 0.00461411 -6.20983e-05)
(-3.89114e-06 0.00383204 -5.34378e-05)
(-3.87017e-06 0.00246224 -2.81419e-05)
(4.04093e-06 0.00250104 -4.13915e-05)
(4.2465e-06 0.00389862 -7.69046e-05)
(4.63759e-06 0.004699 -9.19226e-05)
(2.76588e-06 0.00544856 -0.000112067)
(-6.5185e-07 0.0061483 -0.000140125)
(-4.86753e-06 0.00679812 -0.00017608)
(-9.37592e-06 0.00739575 -0.000219772)
(-1.36999e-05 0.0079375 -0.00027003)
(-1.73791e-05 0.0084185 -0.000324504)
(-1.9955e-05 0.00883468 -0.000380041)
(-2.10865e-05 0.00918396 -0.000433599)
(-2.05582e-05 0.00946726 -0.00048275)
(-1.83205e-05 0.00968852 -0.000525877)
(-1.44493e-05 0.00985397 -0.000561961)
(-9.17733e-06 0.00997104 -0.000590388)
(-2.83476e-06 0.0100472 -0.000610715)
(4.17427e-06 0.0100889 -0.000622641)
(1.14113e-05 0.0101004 -0.000625962)
(1.84174e-05 0.0100835 -0.000620627)
(2.47586e-05 0.0100369 -0.000606715)
(3.00343e-05 0.00995677 -0.000584464)
(3.38994e-05 0.00983699 -0.000554217)
(3.61039e-05 0.00967028 -0.00051645)
(3.65083e-05 0.0094492 -0.000471816)
(3.5114e-05 0.00916741 -0.000421341)
(3.20511e-05 0.00882066 -0.000366635)
(2.76093e-05 0.00840768 -0.000310098)
(2.21696e-05 0.0079302 -0.000254754)
(1.62228e-05 0.00739185 -0.000203778)
(1.02427e-05 0.00679718 -0.000159615)
(4.70257e-06 0.00614972 -0.000123605)
(8.07752e-08 0.00545162 -9.61807e-05)
(-2.87458e-06 0.00470286 -7.7788e-05)
(-3.24052e-06 0.00390244 -6.58726e-05)
(-3.53859e-06 0.00250326 -3.57196e-05)
(4.3487e-06 0.00254599 -5.50286e-05)
(4.74308e-06 0.00397375 -0.000100989)
(5.68892e-06 0.00479187 -0.000121812)
(4.64867e-06 0.00555865 -0.000144731)
(2.15268e-06 0.00627517 -0.000172894)
(-1.12088e-06 0.00694136 -0.000207095)
(-4.66506e-06 0.00755501 -0.000247639)
(-8.07912e-06 0.00811245 -0.000293712)
(-1.09779e-05 0.00860844 -0.000343286)
(-1.30324e-05 0.00903856 -0.000393566)
(-1.3998e-05 0.00940049 -0.000441823)
(-1.37547e-05 0.009695 -0.000485927)
(-1.22858e-05 0.00992594 -0.000524477)
(-9.68147e-06 0.0100995 -0.000556628)
(-6.11696e-06 0.0102232 -0.000581878)
(-1.83217e-06 0.0103045 -0.000599884)
(2.88924e-06 0.0103496 -0.000610409)
(7.74374e-06 0.010363 -0.000613302)
(1.24338e-05 0.0103462 -0.000608522)
(1.66711e-05 0.0102979 -0.000596138)
(2.01802e-05 0.0102141 -0.000576337)
(2.27332e-05 0.0100888 -0.000549393)
(2.41474e-05 0.00991454 -0.000515683)
(2.43141e-05 0.0096839 -0.00047574)
(2.32097e-05 0.00939057 -0.000430425)
(2.09122e-05 0.00903048 -0.000381136)
(1.75944e-05 0.00860258 -0.000329998)
(1.35273e-05 0.00810895 -0.000279728)
(9.05514e-06 0.00755376 -0.000233152)
(4.56594e-06 0.006942 -0.000192356)
(4.51459e-07 0.00627727 -0.000158267)
(-2.80667e-06 0.0055617 -0.000130761)
(-4.53629e-06 0.00479528 -0.000109371)
(-4.07529e-06 0.00397698 -9.11461e-05)
(-3.992e-06 0.0025478 -4.97618e-05)
(5.36576e-06 0.00259448 -7.05146e-05)
(6.68863e-06 0.0040537 -0.000129205)
(9.05806e-06 0.00488979 -0.000156752)
(9.92211e-06 0.00567349 -0.000182695)
(9.35231e-06 0.00640619 -0.000210706)
(7.92513e-06 0.00708792 -0.000242444)
(6.10432e-06 0.00771675 -0.000278779)
(4.20768e-06 0.00828909 -0.000319283)
(2.51316e-06 0.00879972 -0.000362415)
(1.20713e-06 0.00924396 -0.000405842)
(4.08653e-07 0.0096193 -0.000447295)
(1.38607e-07 0.00992623 -0.000484978)
(3.62877e-07 0.0101684 -0.00051776)
(9.97016e-07 0.0103517 -0.000544973)
(1.93977e-06 0.0104834 -0.000566258)
(3.07034e-06 0.0105707 -0.000581378)
(4.27824e-06 0.0106199 -0.000590183)
(5.45751e-06 0.010635 -0.000592571)
(6.52113e-06 0.0106176 -0.000588525)
(7.38471e-06 0.0105665 -0.000578091)
(7.97009e-06 0.0104775 -0.000561401)
(8.20201e-06 0.0103448 -0.000538638)
(8.00075e-06 0.0101611 -0.000510068)
(7.31337e-06 0.00991917 -0.000476079)
(6.10388e-06 0.00961305 -0.00043735)
(4.38408e-06 0.00923892 -0.000395023)
(2.20352e-06 0.00879611 -0.000350887)
(-2.98366e-07 0.00828701 -0.000307222)
(-2.92579e-06 0.00771611 -0.000266375)
(-5.40508e-06 0.00708849 -0.000229932)
(-7.42768e-06 0.00640767 -0.000198381)
(-8.54529e-06 0.00567554 -0.000170988)
(-8.18391e-06 0.00489203 -0.000146336)
(-6.18178e-06 0.00405583 -0.000120929)
(-5.08805e-06 0.00259554 -6.60155e-05)
(6.47092e-06 0.00264303 -8.47304e-05)
(8.8748e-06 0.00413411 -0.000154759)
(1.27745e-05 0.00498805 -0.00018799)
(1.56698e-05 0.00578837 -0.000216239)
(1.71136e-05 0.00653671 -0.00024357)
(1.75838e-05 0.00723342 -0.000272371)
(1.74892e-05 0.00787679 -0.00030394)
(1.70845e-05 0.00846356 -0.000338239)
(1.6537e-05 0.00898867 -0.000374213)
(1.59322e-05 0.00944742 -0.000410081)
(1.52584e-05 0.00983714 -0.000444061)
(1.446e-05 0.010158 -0.000474747)
(1.34541e-05 0.0104131 -0.000501272)
(1.21727e-05 0.010608 -0.00052316)
(1.05754e-05 0.0107494 -0.000540187)
(8.65767e-06 0.0108442 -0.000552222)
(6.46633e-06 0.0108982 -0.000559193)
(4.08377e-06 0.0109152 -0.000561053)
(1.61745e-06 0.0108967 -0.0005578)
(-8.16192e-07 0.0108414 -0.000549462)
(-3.11674e-06 0.0107455 -0.000536113)
(-5.21744e-06 0.0106034 -0.000517853)
(-7.08879e-06 0.0104082 -0.000494837)
(-8.74224e-06 0.0101533 -0.000467312)
(-1.02104e-05 0.00983295 -0.000435769)
(-1.15478e-05 0.00944399 -0.000401082)
(-1.27928e-05 0.00898616 -0.000364662)
(-1.39405e-05 0.00846204 -0.000328296)
(-1.48996e-05 0.0078762 -0.000293779)
(-1.55049e-05 0.00723362 -0.00026219)
(-1.55082e-05 0.00653752 -0.000233604)
(-1.45107e-05 0.00578955 -0.000206814)
(-1.2035e-05 0.00498937 -0.000179622)
(-8.44426e-06 0.00413539 -0.000148098)
(-6.23918e-06 0.00264351 -8.10741e-05)
(7.31512e-06 0.00269152 -9.60687e-05)
(1.05422e-05 0.00421488 -0.000174248)
(1.55652e-05 0.00508673 -0.000211321)
(1.993e-05 0.00590348 -0.000240879)
(2.2808e-05 0.0066671 -0.000267207)
(2.45986e-05 0.00737823 -0.000293105)
(2.5687e-05 0.0080355 -0.000320165)
(2.62731e-05 0.00863599 -0.00034863)
(2.64692e-05 0.00917503 -0.000377903)
(2.62757e-05 0.00964807 -0.000406694)
(2.56256e-05 0.0100524 -0.000433706)
(2.44027e-05 0.0103877 -0.00045788)
(2.25043e-05 0.0106566 -0.000478617)
(1.98661e-05 0.0108641 -0.000495595)
(1.64965e-05 0.0110163 -0.000508717)
(1.24732e-05 0.0111194 -0.000517931)
(7.94305e-06 0.0111786 -0.00052324)
(3.11482e-06 0.0111976 -0.000524629)
(-1.77027e-06 0.0111776 -0.000522116)
(-6.47051e-06 0.0111175 -0.000515705)
(-1.07671e-05 0.0110137 -0.000505434)
(-1.44912e-05 0.010861 -0.000491325)
(-1.75478e-05 0.0106533 -0.000473448)
(-1.991e-05 0.0103844 -0.000451921)
(-2.16185e-05 0.0100494 -0.000427077)
(-2.27576e-05 0.00964565 -0.000399525)
(-2.34286e-05 0.00917321 -0.000370328)
(-2.36925e-05 0.00863484 -0.000340787)
(-2.35426e-05 0.00803499 -0.000312198)
(-2.28619e-05 0.00737829 -0.000285169)
(-2.14588e-05 0.00666758 -0.00025948)
(-1.8952e-05 0.00590424 -0.000233603)
(-1.49419e-05 0.00508761 -0.000204877)
(-1.01833e-05 0.00421577 -0.000169115)
(-7.12178e-06 0.00269171 -9.32201e-05)
(7.75715e-06 0.00274031 -0.00010388)
(1.14345e-05 0.00429631 -0.000186725)
(1.70382e-05 0.00518613 -0.000225799)
(2.21682e-05 0.00601923 -0.000255823)
(2.57765e-05 0.00679782 -0.000281087)
(2.82169e-05 0.00752287 -0.000304562)
(2.98533e-05 0.00819329 -0.000327945)
(3.08674e-05 0.00880662 -0.000351698)
(3.13415e-05 0.00935863 -0.000375546)
(3.12509e-05 0.00984507 -0.00039862)
(3.05103e-05 0.0102632 -0.000419999)
(2.89894e-05 0.0106124 -0.000438934)
(2.65807e-05 0.0108948 -0.000455017)
(2.32345e-05 0.0111147 -0.00046807)
(1.89795e-05 0.0112775 -0.000478077)
(1.39288e-05 0.0113887 -0.000485061)
(8.28344e-06 0.0114531 -0.000489059)
(2.30542e-06 0.011474 -0.000490096)
(-3.71526e-06 0.0114524 -0.00048819)
(-9.47711e-06 0.0113874 -0.000483341)
(-1.47147e-05 0.0112756 -0.000475546)
(-1.92207e-05 0.0111125 -0.000464784)
(-2.28646e-05 0.0108925 -0.000451049)
(-2.56013e-05 0.0106101 -0.000434374)
(-2.74681e-05 0.0102611 -0.000414947)
(-2.85639e-05 0.00984336 -0.000393182)
(-2.90056e-05 0.00935736 -0.000369832)
(-2.88742e-05 0.00880584 -0.000345819)
(-2.81891e-05 0.008193 -0.00032201)
(-2.68675e-05 0.00752301 -0.000298687)
(-2.47268e-05 0.00679829 -0.000275399)
(-2.14087e-05 0.00601992 -0.000250492)
(-1.6554e-05 0.00518692 -0.00022109)
(-1.11553e-05 0.00429713 -0.000182974)
(-7.60877e-06 0.00274042 -0.000101773)
(7.87243e-06 0.00278969 -0.000107609)
(1.17189e-05 0.00437854 -0.000191734)
(1.74885e-05 0.0052864 -0.00023121)
(2.28639e-05 0.0061358 -0.000260986)
(2.66917e-05 0.00692918 -0.000285221)
(2.92985e-05 0.00766774 -0.000306836)
(3.1036e-05 0.0083507 -0.000327537)
(3.20771e-05 0.00897599 -0.000347888)
(3.25053e-05 0.00953992 -0.000367841)
(3.23031e-05 0.0100385 -0.000386812)
(3.13954e-05 0.0104691 -0.000404166)
(2.96694e-05 0.010831 -0.000419362)
(2.70351e-05 0.0111256 -0.000432145)
(2.3449e-05 0.0113568 -0.000442424)
(1.8954e-05 0.0115293 -0.000450247)
(1.36729e-05 0.0116479 -0.000455671)
(7.80657e-06 0.0117171 -0.000458769)
(1.61808e-06 0.0117396 -0.000459578)
(-4.59547e-06 0.0117166 -0.000458125)
(-1.05424e-05 0.011647 -0.000454397)
(-1.59543e-05 0.011528 -0.000448375)
(-2.06211e-05 0.0113553 -0.000440001)
(-2.44137e-05 0.011124 -0.000429229)
(-2.72765e-05 0.0108294 -0.000416024)
(-2.92451e-05 0.0104677 -0.000400486)
(-3.04016e-05 0.0100374 -0.000382875)
(-3.08519e-05 0.00953909 -0.000363731)
(-3.0667e-05 0.00897555 -0.000343689)
(-2.98585e-05 0.00835066 -0.00032333)
(-2.83451e-05 0.00766806 -0.000302699)
(-2.59528e-05 0.00692977 -0.000281239)
(-2.233e-05 0.00613658 -0.000257273)
(-1.71517e-05 0.00528727 -0.000227943)
(-1.15249e-05 0.00437943 -0.000189134)
(-7.76792e-06 0.00278981 -0.000106126)
(7.7047e-06 0.00283851 -0.000106868)
(1.15422e-05 0.00445972 -0.000189021)
(1.72002e-05 0.00538541 -0.000227445)
(2.24904e-05 0.00625094 -0.000256273)
(2.62361e-05 0.00705887 -0.000279408)
(2.87382e-05 0.00781063 -0.000299586)
(3.0337e-05 0.00850564 -0.000318418)
(3.1204e-05 0.00914222 -0.000336499)
(3.14322e-05 0.00971714 -0.000353895)
(3.10265e-05 0.0102268 -0.000370206)
(2.99412e-05 0.0106685 -0.000384964)
(2.80962e-05 0.0110414 -0.000397771)
(2.54228e-05 0.0113469 -0.000408458)
(2.18901e-05 0.0115879 -0.000416993)
(1.75405e-05 0.0117688 -0.00042345)
(1.24916e-05 0.0118939 -0.000427913)
(6.92474e-06 0.0119672 -0.000430466)
(1.07668e-06 0.0119912 -0.000431154)
(-4.7893e-06 0.0119668 -0.000430005)
(-1.04114e-05 0.0118932 -0.000427005)
(-1.55494e-05 0.0117678 -0.000422117)
(-2.00151e-05 0.0115868 -0.000415272)
(-2.369e-05 0.0113457 -0.000406394)
(-2.65218e-05 0.0110403 -0.00039542)
(-2.85311e-05 0.0106675 -0.000382387)
(-2.97852e-05 0.010226 -0.000367467)
(-3.0359e-05 0.00971665 -0.000351058)
(-3.02946e-05 0.00914207 -0.000333623)
(-2.95853e-05 0.00850582 -0.000315558)
(-2.81344e-05 0.00781111 -0.000296794)
(-2.57694e-05 0.00705959 -0.000276739)
(-2.21565e-05 0.00625181 -0.000253798)
(-1.699e-05 0.00538637 -0.000225277)
(-1.14251e-05 0.0044607 -0.0001873)
(-7.64438e-06 0.00283865 -0.000105869)
(7.29266e-06 0.00288516 -0.000101562)
(1.09761e-05 0.00453735 -0.000178633)