/*--------------------------------*- C++ -*----------------------------------*\
| =========                 |                                                 |
| \\      /  F ield         | OpenFOAM: The Open Source CFD Toolbox           |
|  \\    /   O peration     | Version:  v1906                                 |
|   \\  /    A nd           | Web:      www.OpenFOAM.com                      |
|    \\/     M anipulation  |                                                 |
\*---------------------------------------------------------------------------*/
FoamFile
{
    version     2.0;
    format      ascii;
    class       volVectorField;
    location    "5.8/oil";
    object      U;
}
// * * * * * * * * * * * * * * * * * * * * * * * * * * * * * * * * * * * * * //

dimensions      [0 1 -1 0 0 0 0];


internalField   nonuniform List<vector> 
27760
(
(-3.55302e-05 -3.62591e-05 -3.55302e-05)
(-7.0198e-05 -2.72239e-05 -2.5586e-05)
(-5.2347e-06 -7.08066e-06 -6.95317e-06)
(-8.66611e-06 -1.18196e-06 -1.20267e-06)
(-2.26428e-06 -4.08183e-07 -4.24534e-07)
(-1.43032e-06 -2.04245e-07 -2.10969e-07)
(-6.81755e-07 -8.52105e-08 -8.70792e-08)
(-3.67024e-07 -4.05042e-08 -4.04001e-08)
(-1.97765e-07 -1.95262e-08 -1.86882e-08)
(-1.1005e-07 -9.89874e-09 -8.81297e-09)
(-6.27361e-08 -5.1397e-09 -3.98466e-09)
(-3.78419e-08 -2.68427e-09 -1.52087e-09)
(-2.57706e-08 -1.3446e-09 -1.8521e-10)
(-2.13678e-08 -5.89397e-10 5.64356e-10)
(-2.15575e-08 -1.72379e-10 9.77091e-10)
(-2.43374e-08 2.823e-11 1.17576e-09)
(-2.82926e-08 7.69582e-11 1.22527e-09)
(-3.23699e-08 1.30941e-11 1.16587e-09)
(-3.57923e-08 -1.31664e-10 1.031e-09)
(-3.80234e-08 -3.30837e-10 8.4861e-10)
(-3.8748e-08 -5.58291e-10 6.45702e-10)
(-3.78521e-08 -7.92048e-10 4.44522e-10)
(-3.53855e-08 -1.01441e-09 2.64176e-10)
(-3.15243e-08 -1.2147e-09 1.20972e-10)
(-2.6533e-08 -1.38829e-09 3.18101e-11)
(-2.07425e-08 -1.53407e-09 1.65508e-11)
(-1.45646e-08 -1.64178e-09 9.68793e-11)
(-8.53389e-09 -1.6697e-09 2.78313e-10)
(-3.38743e-09 -1.48029e-09 4.80585e-10)
(-3.55415e-10 -8.45488e-10 4.94904e-10)
(-2.58102e-05 -7.20929e-05 -2.58102e-05)
(-8.57492e-06 -9.18784e-06 -1.15635e-05)
(-1.17924e-05 -1.10734e-05 -4.03812e-06)
(-5.91352e-06 -2.9687e-06 -1.14434e-06)
(-2.99414e-06 -1.66374e-06 -5.5601e-07)
(-1.7908e-06 -7.60768e-07 -2.61488e-07)
(-9.99968e-07 -3.88692e-07 -1.20805e-07)
(-5.88981e-07 -2.05406e-07 -5.81138e-08)
(-3.4924e-07 -1.15615e-07 -2.73812e-08)
(-2.11794e-07 -6.91445e-08 -1.23532e-08)
(-1.31726e-07 -4.40782e-08 -4.57187e-09)
(-8.63348e-08 -2.9897e-08 -3.64365e-10)
(-6.23827e-08 -2.15427e-08 2.03496e-09)
(-5.20284e-08 -1.65019e-08 3.43431e-09)
(-5.0209e-08 -1.34929e-08 4.2225e-09)
(-5.34137e-08 -1.18216e-08 4.59676e-09)
(-5.90631e-08 -1.10872e-08 4.66637e-09)
(-6.51917e-08 -1.10301e-08 4.50404e-09)
(-7.03328e-08 -1.14474e-08 4.17447e-09)
(-7.34667e-08 -1.21708e-08 3.73549e-09)
(-7.39909e-08 -1.30497e-08 3.24461e-09)
(-7.16833e-08 -1.3963e-08 2.75219e-09)
(-6.66333e-08 -1.48206e-08 2.30243e-09)
(-5.91705e-08 -1.55669e-08 1.93056e-09)
(-4.97895e-08 -1.61606e-08 1.66531e-09)
(-3.91074e-08 -1.65365e-08 1.52823e-09)
(-2.78656e-08 -1.65206e-08 1.52784e-09)
(-1.69394e-08 -1.56929e-08 1.62618e-09)
(-7.50549e-09 -1.30886e-08 1.66408e-09)
(-9.33159e-10 -6.97972e-09 1.14051e-09)
(-7.16369e-06 -6.51875e-06 -7.16371e-06)
(-1.14736e-05 -1.20873e-05 -4.16976e-06)
(-6.4189e-06 -6.29401e-06 -1.86071e-06)
(-4.39717e-06 -3.09917e-06 -8.95325e-07)
(-2.60055e-06 -1.76032e-06 -4.3668e-07)
(-1.64181e-06 -9.47652e-07 -2.14885e-07)
(-1.00313e-06 -5.43691e-07 -1.04685e-07)
(-6.29718e-07 -3.23241e-07 -5.17268e-08)
(-3.96895e-07 -2.02932e-07 -2.46529e-08)
(-2.5432e-07 -1.34673e-07 -1.07135e-08)
(-1.66843e-07 -9.47329e-08 -3.121e-09)
(-1.14917e-07 -7.05428e-08 1.20755e-09)
(-8.62508e-08 -5.54837e-08 3.7936e-09)
(-7.29981e-08 -4.59783e-08 5.36156e-09)
(-6.97462e-08 -4.00498e-08 6.26441e-09)
(-7.25395e-08 -3.65464e-08 6.69092e-09)
(-7.83632e-08 -3.47598e-08 6.75071e-09)
(-8.48578e-08 -3.42128e-08 6.5218e-09)
(-9.02338e-08 -3.45253e-08 6.08104e-09)
(-9.324e-08 -3.53839e-08 5.49944e-09)
(-9.31366e-08 -3.65151e-08 4.8509e-09)
(-8.966e-08 -3.77066e-08 4.20126e-09)
(-8.29352e-08 -3.88092e-08 3.6085e-09)
(-7.33886e-08 -3.97333e-08 3.1188e-09)
(-6.1647e-08 -4.04006e-08 2.76605e-09)
(-4.84765e-08 -4.06513e-08 2.56889e-09)
(-3.47639e-08 -4.00714e-08 2.5221e-09)
(-2.14743e-08 -3.77124e-08 2.55261e-09)
(-9.90083e-09 -3.15068e-08 2.45444e-09)
(-1.29155e-09 -1.71278e-08 1.55596e-09)
(-1.32216e-06 -9.23768e-06 -1.32219e-06)
(-3.27868e-06 -6.21954e-06 -1.22874e-06)
(-3.19846e-06 -4.47947e-06 -9.14281e-07)
(-2.60384e-06 -2.64693e-06 -5.11988e-07)
(-1.79453e-06 -1.6379e-06 -2.77153e-07)
(-1.24548e-06 -9.89866e-07 -1.47836e-07)
(-8.32906e-07 -6.22956e-07 -7.67678e-08)
(-5.59419e-07 -4.04479e-07 -3.94323e-08)
(-3.74228e-07 -2.75004e-07 -1.90624e-08)
(-2.52491e-07 -1.96214e-07 -7.83354e-09)
(-1.73759e-07 -1.47233e-07 -1.31564e-09)
(-1.25146e-07 -1.16026e-07 2.63657e-09)
(-9.76056e-08 -9.57759e-08 5.12333e-09)
(-8.47524e-08 -8.25389e-08 6.69066e-09)
(-8.17687e-08 -7.39994e-08 7.60841e-09)
(-8.48726e-08 -6.87229e-08 8.03267e-09)
(-9.10382e-08 -6.57853e-08 8.05934e-09)
(-9.77985e-08 -6.45441e-08 7.76078e-09)
(-1.03237e-07 -6.4473e-08 7.22175e-09)
(-1.06004e-07 -6.51372e-08 6.52086e-09)
(-1.05304e-07 -6.61585e-08 5.74602e-09)
(-1.00882e-07 -6.72538e-08 4.97442e-09)
(-9.29149e-08 -6.8235e-08 4.27519e-09)
(-8.19172e-08 -6.8997e-08 3.70184e-09)
(-6.86187e-08 -6.94349e-08 3.29191e-09)
(-5.38842e-08 -6.92912e-08 3.0626e-09)
(-3.86807e-08 -6.78872e-08 3.00142e-09)
(-2.40021e-08 -6.36765e-08 3.01626e-09)
(-1.11914e-08 -5.33062e-08 2.8761e-09)
(-1.47508e-09 -2.92533e-08 1.80735e-09)
(-4.68287e-07 -2.57943e-06 -4.68326e-07)
(-1.79484e-06 -3.22887e-06 -5.94076e-07)
(-1.7944e-06 -2.75396e-06 -4.51134e-07)
(-1.58578e-06 -1.91941e-06 -2.81305e-07)
(-1.2101e-06 -1.33099e-06 -1.6461e-07)
(-9.02955e-07 -9.00329e-07 -9.34656e-08)
(-6.47095e-07 -6.22126e-07 -5.1043e-08)
(-4.59253e-07 -4.40134e-07 -2.69754e-08)
(-3.22515e-07 -3.22816e-07 -1.28842e-08)
(-2.27066e-07 -2.46263e-07 -4.50093e-09)
(-1.6269e-07 -1.95762e-07 7.46127e-10)
(-1.21964e-07 -1.61964e-07 4.16647e-09)
(-9.89231e-08 -1.39129e-07 6.44877e-09)
(-8.88172e-08 -1.23673e-07 7.94753e-09)
(-8.76693e-08 -1.13356e-07 8.83445e-09)
(-9.2095e-08 -1.06689e-07 9.22501e-09)
(-9.92497e-08 -1.0267e-07 9.19533e-09)
(-1.06696e-07 -1.00586e-07 8.80594e-09)
(-1.12485e-07 -9.98293e-08 8.14994e-09)
(-1.15235e-07 -9.98947e-08 7.31167e-09)
(-1.14144e-07 -1.00343e-07 6.39545e-09)
(-1.08995e-07 -1.00858e-07 5.49032e-09)
(-1.00042e-07 -1.01245e-07 4.67678e-09)
(-8.78943e-08 -1.01414e-07 4.0148e-09)
(-7.3385e-08 -1.01256e-07 3.54523e-09)
(-5.74659e-08 -1.00428e-07 3.28422e-09)
(-4.11693e-08 -9.79795e-08 3.21493e-09)
(-2.55178e-08 -9.1726e-08 3.23411e-09)
(-1.18981e-08 -7.6902e-08 3.09462e-09)
(-1.55785e-09 -4.24497e-08 1.95897e-09)
(-2.27355e-07 -1.61201e-06 -2.274e-07)
(-8.06398e-07 -1.9963e-06 -2.78987e-07)
(-9.3805e-07 -1.83207e-06 -2.23696e-07)
(-9.21325e-07 -1.42383e-06 -1.51673e-07)
(-7.74905e-07 -1.07785e-06 -9.46213e-08)
(-6.20959e-07 -7.97417e-07 -5.67149e-08)
(-4.7376e-07 -5.9664e-07 -3.22332e-08)
(-3.53282e-07 -4.54586e-07 -1.71587e-08)
(-2.58745e-07 -3.5634e-07 -7.58799e-09)
(-1.88973e-07 -2.88354e-07 -1.37261e-09)
(-1.40358e-07 -2.41205e-07 2.8644e-09)
(-1.09441e-07 -2.08306e-07 5.84948e-09)
(-9.27163e-08 -1.8528e-07 7.95972e-09)
(-8.68704e-08 -1.69181e-07 9.3976e-09)
(-8.87379e-08 -1.58046e-07 1.0247e-08)
(-9.53777e-08 -1.50474e-07 1.05917e-08)
(-1.04202e-07 -1.45491e-07 1.04884e-08)
(-1.12858e-07 -1.42405e-07 9.98243e-09)
(-1.19402e-07 -1.40598e-07 9.17772e-09)
(-1.22448e-07 -1.39563e-07 8.16568e-09)
(-1.21212e-07 -1.38858e-07 7.0719e-09)
(-1.15539e-07 -1.38183e-07 5.99937e-09)
(-1.05778e-07 -1.37385e-07 5.04177e-09)
(-9.2654e-08 -1.36424e-07 4.26624e-09)
(-7.71048e-08 -1.35213e-07 3.71652e-09)
(-6.01745e-08 -1.33339e-07 3.40763e-09)
(-4.29626e-08 -1.29581e-07 3.319e-09)
(-2.65315e-08 -1.21081e-07 3.34015e-09)
(-1.23135e-08 -1.01572e-07 3.2117e-09)
(-1.59031e-09 -5.62611e-08 2.05353e-09)
(-9.31659e-08 -8.22232e-07 -9.3215e-08)
(-3.9446e-07 -1.20357e-06 -1.28586e-07)
(-5.09539e-07 -1.22145e-06 -1.09658e-07)
(-5.41744e-07 -1.05253e-06 -7.96717e-08)
(-4.9099e-07 -8.67656e-07 -5.25138e-08)
(-4.16686e-07 -6.9704e-07 -3.28714e-08)
(-3.34018e-07 -5.61473e-07 -1.90409e-08)
(-2.58937e-07 -4.57879e-07 -9.70237e-09)
(-1.95891e-07 -3.81459e-07 -3.17865e-09)
(-1.47278e-07 -3.25745e-07 1.50944e-09)
(-1.12916e-07 -2.85403e-07 5.01823e-09)
(-9.17087e-08 -2.56227e-07 7.69288e-09)
(-8.17707e-08 -2.35153e-07 9.68435e-09)
(-8.082e-08 -2.19929e-07 1.10821e-08)
(-8.63172e-08 -2.08951e-07 1.18954e-08)
(-9.56994e-08 -2.00973e-07 1.2189e-08)
(-1.06648e-07 -1.95126e-07 1.20031e-08)
(-1.16901e-07 -1.9082e-07 1.13608e-08)
(-1.24522e-07 -1.87502e-07 1.03808e-08)
(-1.28129e-07 -1.84738e-07 9.16183e-09)
(-1.26958e-07 -1.82149e-07 7.8555e-09)
(-1.20934e-07 -1.79521e-07 6.58148e-09)
(-1.10515e-07 -1.76799e-07 5.45013e-09)
(-9.65527e-08 -1.74035e-07 4.53522e-09)
(-8.01e-08 -1.71197e-07 3.88331e-09)
(-6.22935e-08 -1.67814e-07 3.5073e-09)
(-4.43014e-08 -1.62394e-07 3.3829e-09)
(-2.72322e-08 -1.51386e-07 3.39436e-09)
(-1.25588e-08 -1.26952e-07 3.27257e-09)
(-1.59598e-09 -7.04441e-08 2.11065e-09)
(-4.22473e-08 -4.97388e-07 -4.22991e-08)
(-1.94198e-07 -8.03665e-07 -6.15925e-08)
(-2.77009e-07 -8.74823e-07 -5.47646e-08)
(-3.15747e-07 -8.15106e-07 -4.18348e-08)
(-3.04719e-07 -7.2063e-07 -2.87212e-08)
(-2.71221e-07 -6.20194e-07 -1.83752e-08)
(-2.25991e-07 -5.32381e-07 -1.03788e-08)
(-1.80312e-07 -4.60658e-07 -4.38518e-09)
(-1.39549e-07 -4.04905e-07 2.77122e-10)
(-1.07213e-07 -3.62592e-07 4.00539e-09)
(-8.46803e-08 -3.30956e-07 7.05766e-09)
(-7.21164e-08 -3.07448e-07 9.54832e-09)
(-6.85902e-08 -2.90005e-07 1.14755e-08)
(-7.24772e-08 -2.76943e-07 1.2854e-08)
(-8.16572e-08 -2.66976e-07 1.36335e-08)
(-9.38598e-08 -2.59024e-07 1.38764e-08)
(-1.07034e-07 -2.52355e-07 1.36103e-08)
(-1.19003e-07 -2.46538e-07 1.28269e-08)
(-1.27827e-07 -2.41156e-07 1.16629e-08)
(-1.32121e-07 -2.35921e-07 1.02216e-08)
(-1.31142e-07 -2.30598e-07 8.68489e-09)
(-1.24903e-07 -2.25131e-07 7.19193e-09)
(-1.13977e-07 -2.19624e-07 5.87152e-09)
(-9.93411e-08 -2.14274e-07 4.80379e-09)
(-8.21669e-08 -2.09135e-07 4.0373e-09)
(-6.36772e-08 -2.03697e-07 3.58173e-09)
(-4.51e-08 -1.96189e-07 3.4094e-09)
(-2.75849e-08 -1.82356e-07 3.40027e-09)
(-1.26313e-08 -1.52752e-07 3.28025e-09)
(-1.57667e-09 -8.4811e-08 2.13112e-09)
(-1.89233e-08 -3.31356e-07 -1.89765e-08)
(-9.76684e-08 -5.80975e-07 -2.92153e-08)
(-1.51594e-07 -6.6839e-07 -2.70467e-08)
(-1.82914e-07 -6.62769e-07 -2.15204e-08)
(-1.85393e-07 -6.21053e-07 -1.51382e-08)
(-1.70982e-07 -5.66246e-07 -9.55009e-09)
(-1.46241e-07 -5.13231e-07 -4.72922e-09)
(-1.18624e-07 -4.67297e-07 -6.5766e-10)
(-9.28258e-08 -4.30191e-07 2.88997e-09)
(-7.23017e-08 -4.01334e-07 6.02882e-09)
(-5.89376e-08 -3.79407e-07 8.79994e-09)
(-5.34537e-08 -3.6287e-07 1.1181e-08)
(-5.53904e-08 -3.50301e-07 1.30659e-08)
(-6.34857e-08 -3.40405e-07 1.44245e-08)
(-7.58681e-08 -3.32129e-07 1.51605e-08)
(-9.04903e-08 -3.24534e-07 1.53553e-08)
(-1.05576e-07 -3.17034e-07 1.50272e-08)
(-1.19038e-07 -3.09388e-07 1.4122e-08)
(-1.28925e-07 -3.01365e-07 1.27947e-08)
(-1.33851e-07 -2.92886e-07 1.1149e-08)
(-1.33084e-07 -2.83938e-07 9.39923e-09)
(-1.26727e-07 -2.74702e-07 7.70285e-09)
(-1.15464e-07 -2.6551e-07 6.20617e-09)
(-1.00392e-07 -2.56755e-07 4.99607e-09)
(-8.27799e-08 -2.48611e-07 4.12154e-09)
(-6.39177e-08 -2.40541e-07 3.58903e-09)
(-4.50736e-08 -2.30505e-07 3.36667e-09)
(-2.74198e-08 -2.13528e-07 3.33299e-09)
(-1.24566e-08 -1.78555e-07 3.21627e-09)
(-1.52303e-09 -9.91123e-08 2.10601e-09)
(-8.54548e-09 -2.51153e-07 -8.59923e-09)
(-4.92117e-08 -4.61541e-07 -1.38297e-08)
(-8.22898e-08 -5.50262e-07 -1.32423e-08)
(-1.04054e-07 -5.70277e-07 -1.07987e-08)
(-1.09469e-07 -5.58673e-07 -7.54632e-09)
(-1.03402e-07 -5.33158e-07 -4.32708e-09)
(-8.96003e-08 -5.05117e-07 -1.19261e-09)
(-7.28536e-08 -4.79637e-07 1.79484e-09)
(-5.68536e-08 -4.58828e-07 4.6801e-09)
(-4.4592e-08 -4.42835e-07 7.4497e-09)
(-3.79598e-08 -4.30954e-07 1.00308e-08)
(-3.78361e-08 -4.22114e-07 1.23238e-08)
(-4.39427e-08 -4.1521e-07 1.4153e-08)
(-5.51944e-08 -4.09157e-07 1.5468e-08)
(-6.98555e-08 -4.03037e-07 1.61417e-08)
(-8.60649e-08 -3.96024e-07 1.62921e-08)
(-1.02349e-07 -3.87669e-07 1.59302e-08)
(-1.16729e-07 -3.77908e-07 1.49443e-08)
(-1.27251e-07 -3.66726e-07 1.35053e-08)
(-1.32542e-07 -3.54304e-07 1.17098e-08)
(-1.31892e-07 -3.40919e-07 9.80142e-09)
(-1.25484e-07 -3.2706e-07 7.95391e-09)
(-1.14096e-07 -3.1336e-07 6.32847e-09)
(-9.89174e-08 -3.00457e-07 5.01584e-09)
(-8.12763e-08 -2.88671e-07 4.06332e-09)
(-6.24985e-08 -2.77455e-07 3.47344e-09)
(-4.3856e-08 -2.645e-07 3.21206e-09)
(-2.65115e-08 -2.44132e-07 3.16002e-09)
(-1.19301e-08 -2.0372e-07 3.05553e-09)
(-1.42141e-09 -1.12991e-07 2.02293e-09)
(-3.72487e-09 -2.11637e-07 -3.77924e-09)
(-2.45019e-08 -3.97406e-07 -6.34285e-09)
(-4.38779e-08 -4.83462e-07 -6.25196e-09)
(-5.77122e-08 -5.15921e-07 -5.11936e-09)
(-6.24069e-08 -5.22018e-07 -3.35068e-09)
(-5.97264e-08 -5.15778e-07 -1.34316e-09)
(-5.1757e-08 -5.05937e-07 8.57739e-10)
(-4.15609e-08 -4.96746e-07 3.18881e-09)
(-3.1914e-08 -4.90015e-07 5.62452e-09)
(-2.52574e-08 -4.85938e-07 8.09826e-09)
(-2.32706e-08 -4.83907e-07 1.04821e-08)
(-2.6793e-08 -4.82948e-07 1.26367e-08)
(-3.55801e-08 -4.82017e-07 1.43481e-08)
(-4.86293e-08 -4.801e-07 1.55636e-08)
(-6.43025e-08 -4.76341e-07 1.61421e-08)
(-8.09281e-08 -4.70033e-07 1.62507e-08)
(-9.73525e-08 -4.60842e-07 1.5896e-08)
(-1.11748e-07 -4.4883e-07 1.49007e-08)
(-1.22205e-07 -4.34195e-07 1.34415e-08)
(-1.27401e-07 -4.17381e-07 1.1602e-08)
(-1.26664e-07 -3.99013e-07 9.64607e-09)
(-1.20251e-07 -3.79945e-07 7.75359e-09)
(-1.09001e-07 -3.61165e-07 6.09299e-09)
(-9.41455e-08 -3.43598e-07 4.75488e-09)
(-7.70195e-08 -3.27735e-07 3.78378e-09)
(-5.89277e-08 -3.13031e-07 3.17838e-09)
(-4.10987e-08 -2.96927e-07 2.90339e-09)
(-2.46482e-08 -2.73076e-07 2.84892e-09)
(-1.0955e-08 -2.27369e-07 2.77473e-09)
(-1.25861e-09 -1.25971e-07 1.87008e-09)
(-1.5164e-09 -1.92787e-07 -1.5712e-09)
(-1.19465e-08 -3.63821e-07 -2.7653e-09)
(-2.29978e-08 -4.46728e-07 -2.79578e-09)
(-3.14326e-08 -4.85294e-07 -2.2247e-09)
(-3.4831e-08 -5.02071e-07 -1.17978e-09)
(-3.36679e-08 -5.08801e-07 1.71929e-10)
(-2.90872e-08 -5.12378e-07 1.80608e-09)
(-2.30521e-08 -5.16154e-07 3.6767e-09)
(-1.7599e-08 -5.21394e-07 5.73856e-09)
(-1.46414e-08 -5.28009e-07 7.91022e-09)
(-1.55741e-08 -5.35186e-07 1.00464e-08)
(-2.11171e-08 -5.41811e-07 1.19944e-08)
(-3.10232e-08 -5.46723e-07 1.35295e-08)
(-4.43647e-08 -5.48888e-07 1.46016e-08)
(-5.96289e-08 -5.4747e-07 1.50704e-08)
(-7.53529e-08 -5.41909e-07 1.51389e-08)
(-9.06784e-08 -5.31959e-07 1.48108e-08)
(-1.03978e-07 -5.17721e-07 1.38601e-08)
(-1.13465e-07 -4.99585e-07 1.24642e-08)
(-1.17936e-07 -4.78247e-07 1.06931e-08)
(-1.16812e-07 -4.54711e-07 8.8139e-09)
(-1.10414e-07 -4.30234e-07 7.0021e-09)
(-9.95986e-08 -4.06188e-07 5.42138e-09)
(-8.55672e-08 -3.83798e-07 4.1547e-09)
(-6.95917e-08 -3.63737e-07 3.23986e-09)
(-5.28876e-08 -3.45471e-07 2.67221e-09)
(-3.6582e-08 -3.26213e-07 2.41866e-09)
(-2.16967e-08 -2.99015e-07 2.38449e-09)
(-9.47155e-09 -2.48442e-07 2.36267e-09)
(-1.02758e-09 -1.37487e-07 1.64176e-09)
(-5.62523e-10 -1.83932e-07 -6.18578e-10)
(-5.94967e-09 -3.46204e-07 -1.16821e-09)
(-1.25206e-08 -4.26409e-07 -1.22235e-09)
(-1.79917e-08 -4.67979e-07 -9.13988e-10)
(-2.07544e-08 -4.91343e-07 -2.63399e-10)
(-2.07719e-08 -5.06912e-07 6.6956e-10)
(-1.86413e-08 -5.20356e-07 1.87582e-09)
(-1.56003e-08 -5.34258e-07 3.32466e-09)
(-1.30841e-08 -5.49313e-07 4.97156e-09)
(-1.25217e-08 -5.65022e-07 6.73934e-09)
(-1.50042e-08 -5.80239e-07 8.49353e-09)
(-2.11053e-08 -5.93577e-07 1.00938e-08)
(-3.0599e-08 -6.03673e-07 1.13366e-08)
(-4.2687e-08 -6.09454e-07 1.21801e-08)
(-5.60682e-08 -6.10106e-07 1.25126e-08)
(-6.95244e-08 -6.05261e-07 1.25395e-08)
(-8.24193e-08 -5.94738e-07 1.22651e-08)
(-9.33833e-08 -5.78583e-07 1.14518e-08)
(-1.0088e-07 -5.57312e-07 1.02538e-08)
(-1.03923e-07 -5.31835e-07 8.7273e-09)
(-1.02082e-07 -5.03521e-07 7.11293e-09)
(-9.57288e-08 -4.74019e-07 5.56408e-09)
(-8.56779e-08 -4.45077e-07 4.2235e-09)
(-7.302e-08 -4.18212e-07 3.1583e-09)
(-5.88771e-08 -3.94269e-07 2.39836e-09)
(-4.43013e-08 -3.72728e-07 1.93753e-09)
(-3.02601e-08 -3.50619e-07 1.74986e-09)
(-1.76347e-08 -3.20486e-07 1.76383e-09)
(-7.47236e-09 -2.658e-07 1.81925e-09)
(-7.27956e-10 -1.46939e-07 1.33909e-09)
(-2.4831e-10 -1.79384e-07 -3.05563e-10)
(-3.65818e-09 -3.35948e-07 -6.21787e-10)
(-8.41879e-09 -4.13795e-07 -6.93492e-10)
(-1.29304e-08 -4.56637e-07 -5.33342e-10)
(-1.60692e-08 -4.83965e-07 -1.35862e-10)
(-1.7582e-08 -5.05421e-07 4.7962e-10)
(-1.77092e-08 -5.25882e-07 1.30975e-09)
(-1.71607e-08 -5.47338e-07 2.3379e-09)
(-1.68587e-08 -5.69988e-07 3.53304e-09)
(-1.77816e-08 -5.92932e-07 4.83894e-09)
(-2.0715e-08 -6.14675e-07 6.15559e-09)
(-2.61038e-08 -6.33548e-07 7.37385e-09)
(-3.38232e-08 -6.47962e-07 8.33614e-09)
(-4.33021e-08 -6.56772e-07 8.9922e-09)
(-5.35689e-08 -6.59174e-07 9.2502e-09)
(-6.36588e-08 -6.54965e-07 9.23508e-09)
(-7.30006e-08 -6.44004e-07 8.9546e-09)
(-8.05102e-08 -6.26278e-07 8.24585e-09)
(-8.50462e-08 -6.02403e-07 7.25162e-09)
(-8.59581e-08 -5.73481e-07 6.03144e-09)
(-8.30489e-08 -5.41204e-07 4.77837e-09)
(-7.6731e-08 -5.07555e-07 3.60559e-09)
(-6.77269e-08 -4.74598e-07 2.61429e-09)
(-5.69329e-08 -4.44089e-07 1.8465e-09)
(-4.52368e-08 -4.1701e-07 1.31678e-09)
(-3.34576e-08 -3.92851e-07 1.01703e-09)
(-2.2345e-08 -3.68497e-07 9.30948e-10)
(-1.25976e-08 -3.36119e-07 1.01594e-09)
(-5.02443e-09 -2.78384e-07 1.16763e-09)
(-3.70285e-10 -1.53772e-07 9.73657e-10)
(-2.72443e-10 -1.75907e-07 -3.31644e-10)
(-3.5233e-09 -3.27751e-07 -6.52958e-10)
(-8.27861e-09 -4.03183e-07 -7.65694e-10)
(-1.33413e-08 -4.46087e-07 -7.18985e-10)
(-1.78213e-08 -4.75458e-07 -5.27104e-10)
(-2.1345e-08 -5.00451e-07 -2.07429e-10)
(-2.38756e-08 -5.25417e-07 2.34374e-10)
(-2.56958e-08 -5.51904e-07 7.86043e-10)
(-2.72682e-08 -5.79736e-07 1.42875e-09)
(-2.91374e-08 -6.07702e-07 2.13245e-09)
(-3.17867e-08 -6.34034e-07 2.8457e-09)
(-3.5535e-08 -6.5684e-07 3.50935e-09)
(-4.04007e-08 -6.74363e-07 4.04305e-09)
(-4.61107e-08 -6.8539e-07 4.40201e-09)
(-5.21231e-08 -6.89112e-07 4.53746e-09)
(-5.77668e-08 -6.85412e-07 4.47422e-09)
(-6.24934e-08 -6.74183e-07 4.23206e-09)
(-6.55679e-08 -6.55408e-07 3.74447e-09)
(-6.63595e-08 -6.29797e-07 3.12084e-09)
(-6.46307e-08 -5.98596e-07 2.40574e-09)
(-6.04518e-08 -5.63721e-07 1.71084e-09)
(-5.42475e-08 -5.27385e-07 1.0937e-09)
(-4.65833e-08 -4.91856e-07 6.00627e-10)
(-3.80888e-08 -4.59037e-07 2.44835e-10)
(-2.93512e-08 -4.29989e-07 2.84164e-11)
(-2.09018e-08 -4.04208e-07 -5.34436e-11)
(-1.32342e-08 -3.78491e-07 -3.03449e-12)
(-6.8374e-09 -3.44799e-07 1.73697e-10)
(-2.24773e-09 -2.85342e-07 4.37739e-10)
(2.98805e-11 -1.5754e-07 5.62174e-10)
(-4.71652e-10 -1.7166e-07 -5.32816e-10)
(-4.60899e-09 -3.18407e-07 -9.89881e-10)
(-1.04884e-08 -3.90972e-07 -1.162e-09)
(-1.70975e-08 -4.32905e-07 -1.21214e-09)
(-2.36061e-08 -4.62753e-07 -1.19443e-09)
(-2.95339e-08 -4.89285e-07 -1.14166e-09)
(-3.45956e-08 -5.16477e-07 -1.0663e-09)
(-3.87038e-08 -5.45569e-07 -9.75949e-10)
(-4.19031e-08 -5.7614e-07 -8.70063e-10)
(-4.43287e-08 -6.06798e-07 -7.44701e-10)
(-4.61782e-08 -6.35633e-07 -5.92448e-10)
(-4.76654e-08 -6.60645e-07 -4.18377e-10)
(-4.89995e-08 -6.7999e-07 -2.28332e-10)
(-5.02635e-08 -6.92388e-07 -7.65761e-11)
(-5.13875e-08 -6.96988e-07 -1.53589e-12)
(-5.20021e-08 -6.93658e-07 -1.03744e-10)
(-5.15617e-08 -6.82332e-07 -3.5224e-10)
(-4.96927e-08 -6.63068e-07 -6.91718e-10)
(-4.63214e-08 -6.36695e-07 -1.01431e-09)
(-4.16721e-08 -6.04577e-07 -1.27124e-09)
(-3.61031e-08 -5.68742e-07 -1.43042e-09)
(-3.0038e-08 -5.31485e-07 -1.49538e-09)
(-2.38579e-08 -4.95133e-07 -1.48248e-09)
(-1.78819e-08 -4.61623e-07 -1.41345e-09)
(-1.23623e-08 -4.32027e-07 -1.30437e-09)
(-7.51458e-09 -4.0583e-07 -1.15932e-09)
(-3.55276e-09 -3.79806e-07 -9.66261e-10)
(-7.40458e-10 -3.45876e-07 -6.95556e-10)
(6.74465e-10 -2.86177e-07 -3.18554e-10)
(4.4527e-10 -1.57986e-07 1.32648e-10)
(-7.53457e-10 -1.6566e-07 -8.16661e-10)
(-6.31245e-09 -3.06119e-07 -1.47394e-09)
(-1.39254e-08 -3.75096e-07 -1.71791e-09)
(-2.26229e-08 -4.15103e-07 -1.85748e-09)
(-3.15304e-08 -4.44094e-07 -1.99843e-09)
(-4.00568e-08 -4.70442e-07 -2.19911e-09)
(-4.76919e-08 -4.97815e-07 -2.48322e-09)
(-5.40263e-08 -5.27252e-07 -2.86004e-09)
(-5.87275e-08 -5.5821e-07 -3.31718e-09)
(-6.15568e-08 -5.89252e-07 -3.82516e-09)
(-6.24388e-08 -6.18481e-07 -4.32281e-09)
(-6.14692e-08 -6.43924e-07 -4.75765e-09)
(-5.90068e-08 -6.63757e-07 -5.05035e-09)
(-5.54563e-08 -6.76642e-07 -5.23684e-09)
(-5.1223e-08 -6.81658e-07 -5.3034e-09)
(-4.63172e-08 -6.78572e-07 -5.4402e-09)
(-4.03175e-08 -6.67365e-07 -5.60587e-09)
(-3.32879e-08 -6.48247e-07 -5.64796e-09)
(-2.57107e-08 -6.22194e-07 -5.51252e-09)
(-1.82169e-08 -5.90649e-07 -5.17448e-09)
(-1.13919e-08 -5.55619e-07 -4.6937e-09)
(-5.60833e-09 -5.19335e-07 -4.13663e-09)
(-1.03376e-09 -4.84027e-07 -3.57556e-09)
(2.33347e-09 -4.51544e-07 -3.05934e-09)
(4.57804e-09 -4.22895e-07 -2.61431e-09)
(5.7973e-09 -3.97545e-07 -2.23826e-09)
(6.04866e-09 -3.72311e-07 -1.90282e-09)
(5.2888e-09 -3.39248e-07 -1.54099e-09)
(3.55329e-09 -2.80816e-07 -1.0568e-09)
(8.51965e-10 -1.55072e-07 -2.90466e-10)
(-1.05402e-09 -1.57494e-07 -1.11865e-09)
(-8.20142e-09 -2.90105e-07 -1.99092e-09)
(-1.7737e-08 -3.54662e-07 -2.30286e-09)
(-2.86522e-08 -3.91894e-07 -2.51291e-09)
(-3.99741e-08 -4.18916e-07 -2.77811e-09)
(-5.09976e-08 -4.43636e-07 -3.18254e-09)
(-6.10143e-08 -4.69441e-07 -3.76101e-09)
(-6.93425e-08 -4.97222e-07 -4.52266e-09)
(-7.53337e-08 -5.26417e-07 -5.44437e-09)
(-7.84331e-08 -5.55661e-07 -6.47386e-09)
(-7.83236e-08 -5.83203e-07 -7.50777e-09)
(-7.49878e-08 -6.07225e-07 -8.44936e-09)
(-6.88889e-08 -6.26056e-07 -9.1535e-09)
(-6.06882e-08 -6.38382e-07 -9.63453e-09)
(-5.12069e-08 -6.43266e-07 -9.83123e-09)
(-4.08708e-08 -6.40343e-07 -9.97758e-09)
(-2.95168e-08 -6.29635e-07 -1.00365e-08)
(-1.76612e-08 -6.11543e-07 -9.7965e-09)
(-6.26251e-09 -5.87118e-07 -9.26113e-09)
(3.73964e-09 -5.57782e-07 -8.42349e-09)
(1.16042e-08 -5.25385e-07 -7.41442e-09)
(1.70332e-08 -4.9195e-07 -6.34733e-09)
(2.00644e-08 -4.59484e-07 -5.33713e-09)
(2.09896e-08 -4.29649e-07 -4.45473e-09)
(2.01957e-08 -4.03337e-07 -3.73536e-09)
(1.80595e-08 -3.79997e-07 -3.17336e-09)
(1.48834e-08 -3.56557e-07 -2.72636e-09)
(1.08283e-08 -3.25381e-07 -2.29469e-09)
(6.19064e-09 -2.69615e-07 -1.72401e-09)
(1.22123e-09 -1.48982e-07 -6.78152e-10)
(-1.33383e-09 -1.47162e-07 -1.39986e-09)
(-9.98352e-09 -2.70337e-07 -2.47137e-09)
(-2.13272e-08 -3.29693e-07 -2.8399e-09)
(-3.42824e-08 -3.63471e-07 -3.09994e-09)
(-4.77591e-08 -3.87692e-07 -3.45434e-09)
(-6.0951e-08 -4.09709e-07 -4.01162e-09)
(-7.29858e-08 -4.3263e-07 -4.81488e-09)
(-8.29685e-08 -4.57244e-07 -5.87666e-09)
(-9.00058e-08 -4.83028e-07 -7.16909e-09)
(-9.32947e-08 -5.08772e-07 -8.62574e-09)
(-9.23212e-08 -5.3297e-07 -1.01195e-08)
(-8.69587e-08 -5.5407e-07 -1.15195e-08)
(-7.76998e-08 -5.70641e-07 -1.26323e-08)
(-6.53752e-08 -5.81493e-07 -1.34312e-08)
(-5.11144e-08 -5.85756e-07 -1.38002e-08)
(-3.57703e-08 -5.8297e-07 -1.39438e-08)
(-1.96106e-08 -5.73194e-07 -1.38323e-08)
(-3.59948e-09 -5.56975e-07 -1.32679e-08)
(1.09585e-08 -5.35327e-07 -1.23215e-08)
(2.2934e-08 -5.09557e-07 -1.10237e-08)
(3.15248e-08 -4.81257e-07 -9.56037e-09)
(3.65289e-08 -4.52135e-07 -8.07569e-09)
(3.81658e-08 -4.23889e-07 -6.71028e-09)
(3.69652e-08 -3.97936e-07 -5.54523e-09)
(3.35576e-08 -3.75021e-07 -4.61923e-09)
(2.85458e-08 -3.54584e-07 -3.92134e-09)
(2.24359e-08 -3.33718e-07 -3.39734e-09)
(1.55591e-08 -3.05246e-07 -2.92118e-09)
(8.4384e-09 -2.53324e-07 -2.28792e-09)
(1.53432e-09 -1.40108e-07 -1.01179e-09)
(-1.56751e-09 -1.34924e-07 -1.63396e-09)
(-1.14681e-08 -2.47283e-07 -2.86706e-09)
(-2.42984e-08 -3.0082e-07 -3.27233e-09)
(-3.88977e-08 -3.30685e-07 -3.55572e-09)
(-5.40677e-08 -3.51584e-07 -3.95504e-09)
(-6.89173e-08 -3.70226e-07 -4.59622e-09)
(-8.24511e-08 -3.89425e-07 -5.52807e-09)
(-9.36221e-08 -4.09889e-07 -6.76388e-09)
(-1.01368e-07 -4.31174e-07 -8.27189e-09)
(-1.0472e-07 -4.52278e-07 -9.97884e-09)
(-1.03024e-07 -4.71983e-07 -1.17455e-08)
(-9.60667e-08 -4.8906e-07 -1.34238e-08)
(-8.43285e-08 -5.02397e-07 -1.47993e-08)
(-6.87402e-08 -5.1103e-07 -1.58082e-08)
(-5.06343e-08 -5.14255e-07 -1.63041e-08)
(-3.1233e-08 -5.11623e-07 -1.64328e-08)
(-1.12722e-08 -5.0322e-07 -1.61725e-08)
(7.91384e-09 -4.89615e-07 -1.53747e-08)
(2.47991e-08 -4.71671e-07 -1.41533e-08)
(3.81573e-08 -4.50478e-07 -1.25716e-08)
(4.71941e-08 -4.27287e-07 -1.08401e-08)
(5.17949e-08 -4.03444e-07 -9.11692e-09)
(5.23174e-08 -3.80304e-07 -7.55315e-09)
(4.94566e-08 -3.59008e-07 -6.23393e-09)
(4.40157e-08 -3.40145e-07 -5.19877e-09)
(3.67632e-08 -3.23153e-07 -4.43413e-09)
(2.83588e-08 -3.05351e-07 -3.87942e-09)
(1.92682e-08 -2.80137e-07 -3.38994e-09)
(1.01973e-08 -2.3294e-07 -2.72391e-09)
(1.77725e-09 -1.28972e-07 -1.27777e-09)
(-1.74285e-09 -1.21202e-07 -1.80931e-09)
(-1.25639e-08 -2.2171e-07 -3.15915e-09)
(-2.64619e-08 -2.69036e-07 -3.58141e-09)
(-4.22106e-08 -2.94779e-07 -3.86367e-09)
(-5.85254e-08 -3.12156e-07 -4.26879e-09)
(-7.44541e-08 -3.27171e-07 -4.934e-09)
(-8.89204e-08 -3.42329e-07 -5.91078e-09)
(-1.00786e-07 -3.5827e-07 -7.21079e-09)
(-1.08892e-07 -3.74654e-07 -8.79989e-09)
(-1.12179e-07 -3.90695e-07 -1.06034e-08)
(-1.09911e-07 -4.05479e-07 -1.24823e-08)
(-1.01821e-07 -4.18119e-07 -1.42842e-08)
(-8.83531e-08 -4.27841e-07 -1.57924e-08)
(-7.04807e-08 -4.33956e-07 -1.69133e-08)
(-4.965e-08 -4.35976e-07 -1.74871e-08)
(-2.73575e-08 -4.33547e-07 -1.75962e-08)
(-4.76151e-09 -4.2676e-07 -1.72258e-08)
(1.65353e-08 -4.16114e-07 -1.62862e-08)
(3.48953e-08 -4.02258e-07 -1.49134e-08)
(4.90692e-08 -3.86011e-07 -1.31994e-08)
(5.83082e-08 -3.6826e-07 -1.13585e-08)
(6.25655e-08 -3.49987e-07 -9.54954e-09)
(6.22879e-08 -3.32198e-07 -7.92081e-09)
(5.82679e-08 -3.15773e-07 -6.55699e-09)
(5.14104e-08 -3.01142e-07 -5.49608e-09)
(4.25876e-08 -2.87755e-07 -4.72436e-09)
(3.2563e-08 -2.73187e-07 -4.17877e-09)
(2.18996e-08 -2.51503e-07 -3.70303e-09)
(1.14413e-08 -2.09588e-07 -3.03047e-09)
(1.94652e-09 -1.16167e-07 -1.47319e-09)
(-1.85857e-09 -1.06469e-07 -1.9239e-09)
(-1.32574e-08 -1.94479e-07 -3.34505e-09)
(-2.77898e-08 -2.35435e-07 -3.76655e-09)
(-4.41846e-08 -2.57072e-07 -4.02849e-09)
(-6.11005e-08 -2.70999e-07 -4.40808e-09)
(-7.75493e-08 -2.82481e-07 -5.04721e-09)
(-9.24103e-08 -2.93711e-07 -5.99592e-09)
(-1.04506e-07 -3.05266e-07 -7.26339e-09)
(-1.12643e-07 -3.16909e-07 -8.81413e-09)
(-1.15735e-07 -3.28063e-07 -1.05747e-08)
(-1.13023e-07 -3.38101e-07 -1.24145e-08)
(-1.0422e-07 -3.46452e-07 -1.4186e-08)
(-8.97329e-08 -3.52663e-07 -1.5688e-08)
(-7.05401e-08 -3.56331e-07 -1.68111e-08)
(-4.81289e-08 -3.57188e-07 -1.74009e-08)
(-2.41616e-08 -3.55009e-07 -1.74894e-08)
(-1.01563e-10 -3.49886e-07 -1.70669e-08)
(2.22943e-08 -3.42192e-07 -1.6093e-08)
(4.13581e-08 -3.32347e-07 -1.47063e-08)
(5.58636e-08 -3.20878e-07 -1.30128e-08)
(6.51206e-08 -3.08335e-07 -1.12118e-08)
(6.91251e-08 -2.95365e-07 -9.45548e-09)
(6.83608e-08 -2.82659e-07 -7.88019e-09)
(6.36551e-08 -2.7085e-07 -6.56638e-09)
(5.59555e-08 -2.60235e-07 -5.5514e-09)
(4.61836e-08 -2.50287e-07 -4.82241e-09)
(3.51643e-08 -2.3886e-07 -4.31706e-09)
(2.35252e-08 -2.20729e-07 -3.87572e-09)
(1.22036e-08 -1.84353e-07 -3.21835e-09)
(2.04618e-09 -1.0227e-07 -1.60292e-09)
(-1.92104e-09 -9.11679e-08 -1.98412e-09)
(-1.3591e-08 -1.66397e-07 -3.43788e-09)
(-2.83757e-08 -2.01023e-07 -3.84785e-09)
(-4.49815e-08 -2.18742e-07 -4.07929e-09)
(-6.2036e-08 -2.29501e-07 -4.41497e-09)
(-7.85365e-08 -2.37807e-07 -4.99709e-09)
(-9.33507e-08 -2.45542e-07 -5.87174e-09)
(-1.053e-07 -2.53226e-07 -7.0445e-09)
(-1.13204e-07 -2.60714e-07 -8.48026e-09)
(-1.16002e-07 -2.67623e-07 -1.01086e-08)
(-1.12953e-07 -2.73566e-07 -1.18108e-08)
(-1.03779e-07 -2.78238e-07 -1.34522e-08)
(-8.88615e-08 -2.81455e-07 -1.4855e-08)
(-6.91567e-08 -2.83054e-07 -1.5906e-08)
(-4.61407e-08 -2.8296e-07 -1.64668e-08)
(-2.1542e-08 -2.81076e-07 -1.65372e-08)
(2.99454e-09 -2.77483e-07 -1.61109e-08)
(2.56573e-08 -2.72421e-07 -1.51805e-08)
(4.48115e-08 -2.66104e-07 -1.38738e-08)
(5.92781e-08 -2.58801e-07 -1.23008e-08)
(6.84224e-08 -2.50782e-07 -1.0637e-08)
(7.22557e-08 -2.4241e-07 -9.01993e-09)
(7.1261e-08 -2.34119e-07 -7.57212e-09)
(6.62521e-08 -2.2633e-07 -6.36739e-09)
(5.81727e-08 -2.19223e-07 -5.44156e-09)
(4.79533e-08 -2.12306e-07 -4.78414e-09)
(3.64461e-08 -2.03721e-07 -4.33629e-09)
(2.43176e-08 -1.88975e-07 -3.94014e-09)
(1.25636e-08 -1.58161e-07 -3.31083e-09)
(2.08704e-09 -8.77824e-08 -1.67863e-09)
(-1.93919e-09 -7.56741e-08 -1.99862e-09)
(-1.36326e-08 -1.38125e-07 -3.4555e-09)
(-2.83674e-08 -1.66599e-07 -3.8488e-09)
(-4.48477e-08 -1.80693e-07 -4.04813e-09)
(-6.16923e-08 -1.88674e-07 -4.33447e-09)
(-7.78982e-08 -1.943e-07 -4.84601e-09)
(-9.23442e-08 -1.99151e-07 -5.62481e-09)
(-1.03879e-07 -2.03686e-07 -6.67291e-09)
(-1.11367e-07 -2.07842e-07 -7.95503e-09)
(-1.13805e-07 -2.11389e-07 -9.40505e-09)
(-1.10501e-07 -2.14131e-07 -1.0919e-08)
(-1.01207e-07 -2.15968e-07 -1.23769e-08)
(-8.62875e-08 -2.16909e-07 -1.36276e-08)
(-6.66666e-08 -2.16973e-07 -1.45643e-08)
(-4.37736e-08 -2.16225e-07 -1.50699e-08)
(-1.93288e-08 -2.14665e-07 -1.51258e-08)
(4.95483e-09 -2.12362e-07 -1.4728e-08)
(2.72858e-08 -2.0944e-07 -1.38889e-08)
(4.60957e-08 -2.05952e-07 -1.27186e-08)
(6.02665e-08 -2.01971e-07 -1.13206e-08)
(6.92102e-08 -1.97557e-07 -9.84447e-09)
(7.29318e-08 -1.92859e-07 -8.41099e-09)
(7.18851e-08 -1.88108e-07 -7.12621e-09)
(6.68408e-08 -1.8356e-07 -6.05763e-09)
(5.87058e-08 -1.79298e-07 -5.23971e-09)
(4.83927e-08 -1.7488e-07 -4.6651e-09)
(3.67569e-08 -1.68734e-07 -4.27925e-09)
(2.44878e-08 -1.57102e-07 -3.92941e-09)
(1.2618e-08 -1.31717e-07 -3.33347e-09)
(2.08101e-09 -7.30933e-08 -1.71334e-09)
(-1.91916e-09 -6.02864e-08 -1.97314e-09)
(-1.34326e-08 -1.10167e-07 -3.40946e-09)
(-2.78872e-08 -1.32739e-07 -3.78547e-09)
(-4.39991e-08 -1.4353e-07 -3.9573e-09)
(-6.03943e-08 -1.49157e-07 -4.19871e-09)
(-7.60751e-08 -1.52643e-07 -4.64156e-09)
(-8.99443e-08 -1.55273e-07 -5.32371e-09)