/*--------------------------------*- C++ -*----------------------------------*\
| =========                 |                                                 |
| \\      /  F ield         | OpenFOAM: The Open Source CFD Toolbox           |
|  \\    /   O peration     | Version:  v1912                                 |
|   \\  /    A nd           | Website:  www.openfoam.com                      |
|    \\/     M anipulation  |                                                 |
\*---------------------------------------------------------------------------*/
FoamFile
{
    version     2.0;
    format      ascii;
    class       volScalarField;
    location    "25.5/sphere";
    object      ddt0((betavSolid*thermo:rho),h);
}
// * * * * * * * * * * * * * * * * * * * * * * * * * * * * * * * * * * * * * //

dimensions      [1 -1 -3 0 0 0 0];


internalField   nonuniform List<scalar> 
1992
(
-4.37899e+06
-4.38128e+06
-4.38099e+06
-4.38564e+06
-4.37967e+06
-4.37953e+06
-4.38135e+06
-4.39522e+06
-4.39819e+06
-4.38974e+06
-4.38087e+06
-4.39799e+06
-4.40088e+06
-4.39277e+06
-4.3883e+06
-4.39255e+06
-4.386e+06
-4.3812e+06
-4.38571e+06
-4.37991e+06
-4.38101e+06
-4.39807e+06
-4.40096e+06
-4.39286e+06
-4.38506e+06
-4.40076e+06
-4.40364e+06
-4.39562e+06
-4.38096e+06
-4.3793e+06
-4.39242e+06
-4.39534e+06
-4.39032e+06
-4.38054e+06
-4.37981e+06
-4.38947e+06
-4.39275e+06
-4.38546e+06
-4.37942e+06
-4.39251e+06
-4.39547e+06
-4.39036e+06
-4.38499e+06
-4.39023e+06
-4.3826e+06
-4.38075e+06
-4.38076e+06
-4.38076e+06
-4.38058e+06
-4.38075e+06
-4.37918e+06
-4.38567e+06
-4.38132e+06
-4.39278e+06
-4.3897e+06
-4.39554e+06
-4.39278e+06
-4.38966e+06
-4.39552e+06
-4.39275e+06
-4.38128e+06
-4.3791e+06
-4.38565e+06
-4.38128e+06
-4.39271e+06
-4.39262e+06
-4.38953e+06
-4.38563e+06
-4.38124e+06
-4.38116e+06
-4.37901e+06
-4.38058e+06
-4.38057e+06
-4.3805e+06
-4.38038e+06
-4.37991e+06
-4.38042e+06
-4.38052e+06
-4.37995e+06
-4.38042e+06
-4.38052e+06
-4.37996e+06
-4.38058e+06
-4.3822e+06
-4.3797e+06
-4.3798e+06
-4.38528e+06
-4.39041e+06
-4.37972e+06
-4.37986e+06
-4.39044e+06
-4.3855e+06
-4.38282e+06
-4.37952e+06
-4.38521e+06
-4.37945e+06
-4.39022e+06
-4.38117e+06
-4.38102e+06
-4.38539e+06
-4.3895e+06
-4.39269e+06
-4.39259e+06
-4.3954e+06
-4.38074e+06
-4.383e+06
-4.3824e+06
-4.38738e+06
-4.38599e+06
-4.38483e+06
-4.38797e+06
-4.37969e+06
-4.38547e+06
-4.39041e+06
-4.3797e+06
-4.3795e+06
-4.37943e+06
-4.3902e+06
-4.38508e+06
-4.38536e+06
-4.37887e+06
-4.38103e+06
-4.39253e+06
-4.39534e+06
-4.38937e+06
-4.39253e+06
-4.38128e+06
-4.38114e+06
-4.37898e+06
-4.39548e+06
-4.39274e+06
-4.39263e+06
-4.38955e+06
-4.39039e+06
-4.37968e+06
-4.38532e+06
-4.38195e+06
-4.37949e+06
-4.385e+06
-4.3902e+06
-4.37946e+06
-4.39023e+06
-4.38528e+06
-4.3795e+06
-4.38257e+06
-4.38086e+06
-4.38096e+06
-4.38522e+06
-4.37972e+06
-4.37955e+06
-4.39032e+06
-4.38129e+06
-4.38853e+06
-4.39269e+06
-4.38121e+06
-4.38554e+06
-4.39265e+06
-4.39545e+06
-4.37931e+06
-4.3928e+06
-4.38977e+06
-4.38571e+06
-4.3815e+06
-4.39558e+06
-4.39288e+06
-4.38622e+06
-4.37989e+06
-4.39053e+06
-4.3798e+06
-4.38039e+06
-4.38848e+06
-4.3809e+06
-4.3925e+06
-4.381e+06
-4.39256e+06
-4.38509e+06
-4.39523e+06
-4.37919e+06
-4.39282e+06
-4.38133e+06
-4.39287e+06
-4.38141e+06
-4.39566e+06
-4.38595e+06
-4.38099e+06
-4.38037e+06
-4.39246e+06
-4.38834e+06
-4.38506e+06
-4.39518e+06
-4.38082e+06
-4.39242e+06
-4.38128e+06
-4.38962e+06
-4.37904e+06
-4.39562e+06
-4.38593e+06
-4.39274e+06
-4.38126e+06
-4.38097e+06
-4.38503e+06
-4.37931e+06
-4.39012e+06
-4.37936e+06
-4.39246e+06
-4.38093e+06
-4.39242e+06
-4.39521e+06
-4.38085e+06
-4.38518e+06
-4.38952e+06
-4.38099e+06
-4.37895e+06
-4.39534e+06
-4.39263e+06
-4.38534e+06
-4.38116e+06
-4.39032e+06
-4.37962e+06
-4.37955e+06
-4.38046e+06
-4.38055e+06
-4.38087e+06
-4.38096e+06
-4.3797e+06
-4.37951e+06
-4.39031e+06
-4.38518e+06
-4.38555e+06
-4.39264e+06
-4.39545e+06
-4.38128e+06
-4.38849e+06
-4.39269e+06
-4.3815e+06
-4.39557e+06
-4.39286e+06
-4.38132e+06
-4.37923e+06
-4.39278e+06
-4.38974e+06
-4.39053e+06
-4.37982e+06
-4.38619e+06
-4.3804e+06
-4.39254e+06
-4.38509e+06
-4.39523e+06
-4.38847e+06
-4.38092e+06
-4.3925e+06
-4.38144e+06
-4.39566e+06
-4.38595e+06
-4.38971e+06
-4.37919e+06
-4.3928e+06
-4.38132e+06
-4.38099e+06
-4.38035e+06
-4.39518e+06
-4.38082e+06
-4.39241e+06
-4.38088e+06
-4.39245e+06
-4.38829e+06
-4.38593e+06
-4.39275e+06
-4.38126e+06
-4.39276e+06
-4.38132e+06
-4.3896e+06
-4.379e+06
-4.39011e+06
-4.37937e+06
-4.38495e+06
-4.39521e+06
-4.38084e+06
-4.38515e+06
-4.38828e+06
-4.39246e+06
-4.38092e+06
-4.39264e+06
-4.38532e+06
-4.38115e+06
-4.39255e+06
-4.38952e+06
-4.38099e+06
-4.37892e+06
-4.37962e+06
-4.37954e+06
-4.38602e+06
-4.38043e+06
-4.38213e+06
-4.37978e+06
-4.3852e+06
-4.39039e+06
-4.37966e+06
-4.39042e+06
-4.38549e+06
-4.37973e+06
-4.38279e+06
-4.38522e+06
-4.37943e+06
-4.39021e+06
-4.37953e+06
-4.39266e+06
-4.39255e+06
-4.39538e+06
-4.37897e+06
-4.38119e+06
-4.38102e+06
-4.38538e+06
-4.39039e+06
-4.37967e+06
-4.37968e+06
-4.39019e+06
-4.38502e+06
-4.37949e+06
-4.39533e+06
-4.38933e+06
-4.39253e+06
-4.38099e+06
-4.38534e+06
-4.37889e+06
-4.38103e+06
-4.37969e+06
-4.38532e+06
-4.37964e+06
-4.38191e+06
-4.3902e+06
-4.37943e+06
-4.3795e+06
-4.38527e+06
-4.37948e+06
-4.37954e+06
-4.37943e+06
-4.37898e+06
-4.37882e+06
-4.3794e+06
-4.37901e+06
-4.37953e+06
-4.37902e+06
-4.3795e+06
-4.37899e+06
-4.37949e+06
-4.37892e+06
-4.37936e+06
-4.37892e+06
-4.37894e+06
-4.37888e+06
-4.38e+06
-4.37989e+06
-4.37904e+06
-4.38048e+06
-4.38034e+06
-4.37988e+06
-4.37948e+06
-4.37891e+06
-4.37932e+06
-4.37887e+06
-4.37997e+06
-4.37993e+06
-4.38136e+06
-4.38603e+06
-4.38162e+06
-4.3835e+06
-4.38349e+06
-4.3807e+06
-4.38314e+06
-4.3824e+06
-4.38739e+06
-4.38603e+06
-4.38478e+06
-4.38807e+06
-4.38071e+06
-4.38299e+06
-4.38235e+06
-4.38732e+06
-4.38597e+06
-4.38479e+06
-4.38794e+06
-4.37994e+06
-4.37993e+06
-4.38133e+06
-4.38598e+06
-4.38158e+06
-4.38347e+06
-4.38343e+06
-4.38068e+06
-4.38308e+06
-4.38239e+06
-4.38734e+06
-4.38598e+06
-4.38476e+06
-4.38802e+06
-4.38302e+06
-4.38063e+06
-4.38231e+06
-4.38728e+06
-4.38595e+06
-4.38799e+06
-4.38473e+06
-4.38294e+06
-4.38057e+06
-4.38228e+06
-4.38723e+06
-4.38582e+06
-4.38784e+06
-4.38465e+06
-4.37983e+06
-4.37982e+06
-4.38121e+06
-4.38588e+06
-4.38146e+06
-4.38339e+06
-4.38334e+06
-4.37903e+06
-4.37883e+06
-4.38001e+06
-4.37988e+06
-4.37903e+06
-4.37996e+06
-4.37986e+06
-4.37896e+06
-4.37894e+06
-4.37977e+06
-4.37974e+06
-4.38102e+06
-4.38569e+06
-4.38143e+06
-4.38332e+06
-4.38328e+06
-4.37958e+06
-4.38093e+06
-4.37921e+06
-4.38237e+06
-4.38686e+06
-4.38038e+06
-4.3857e+06
-4.38169e+06
-4.38759e+06
-4.38446e+06
-4.37913e+06
-4.38294e+06
-4.37983e+06
-4.3801e+06
-4.38216e+06
-4.37896e+06
-4.37934e+06
-4.38065e+06
-4.37905e+06
-4.37975e+06
-4.38277e+06
-4.38207e+06
-4.37996e+06
-4.38487e+06
-4.37941e+06
-4.38097e+06
-4.37942e+06
-4.38282e+06
-4.38075e+06
-4.38284e+06
-4.38726e+06
-4.38077e+06
-4.38599e+06
-4.38273e+06
-4.38485e+06
-4.38214e+06
-4.38789e+06
-4.37937e+06
-4.37968e+06
-4.38108e+06
-4.3847e+06
-4.38081e+06
-4.37917e+06
-4.37917e+06
-4.38259e+06
-4.38269e+06
-4.38052e+06
-4.3866e+06
-4.38557e+06
-4.38017e+06
-4.38225e+06
-4.38426e+06
-4.38742e+06
-4.38146e+06
-4.37955e+06
-4.37899e+06
-4.37887e+06
-4.37905e+06
-4.38045e+06
-4.38141e+06
-4.3824e+06
-4.38234e+06
-4.3881e+06
-4.37995e+06
-4.38452e+06
-4.38446e+06
-4.37886e+06
-4.38687e+06
-4.38262e+06
-4.38582e+06
-4.38052e+06
-4.38771e+06
-4.38183e+06
-4.38451e+06
-4.38868e+06
-4.38513e+06
-4.3901e+06
-4.38437e+06
-4.3895e+06
-4.38368e+06
-4.38929e+06
-4.38008e+06
-4.38313e+06
-4.37935e+06
-4.38031e+06
-4.38239e+06
-4.3867e+06
-4.38569e+06
-4.38235e+06
-4.38035e+06
-4.38753e+06
-4.38438e+06
-4.38159e+06
-4.37966e+06
-4.37915e+06
-4.38795e+06
-4.38954e+06
-4.38377e+06
-4.38378e+06
-4.38875e+06
-4.38876e+06
-4.38263e+06
-4.38061e+06
-4.38061e+06
-4.38001e+06
-4.37957e+06
-4.38259e+06
-4.37879e+06
-4.37983e+06
-4.38182e+06
-4.37873e+06
-4.38028e+06
-4.37988e+06
-4.37942e+06
-4.37921e+06
-4.37937e+06
-4.38076e+06
-4.38004e+06
-4.37936e+06
-4.383e+06
-4.38232e+06
-4.38024e+06
-4.37904e+06
-4.37926e+06
-4.38062e+06
-4.38812e+06
-4.38215e+06
-4.38458e+06
-4.38151e+06
-4.38223e+06
-4.38459e+06
-4.37961e+06
-4.37965e+06
-4.38265e+06
-4.37893e+06
-4.38193e+06
-4.37992e+06
-4.38121e+06
-4.38787e+06
-4.38168e+06
-4.38179e+06
-4.38419e+06
-4.3843e+06
-4.37925e+06
-4.3796e+06
-4.38016e+06
-4.38017e+06
-4.37898e+06
-4.37885e+06
-4.37986e+06
-4.37993e+06
-4.37897e+06
-4.37888e+06
-4.37962e+06
-4.37964e+06
-4.37957e+06
-4.37926e+06
-4.37951e+06
-4.38089e+06
-4.37919e+06
-4.38293e+06
-4.37995e+06
-4.3802e+06
-4.3822e+06
-4.3792e+06
-4.37943e+06
-4.38079e+06
-4.37997e+06
-4.37925e+06
-4.38298e+06
-4.38024e+06
-4.38219e+06
-4.38146e+06
-4.38203e+06
-4.38196e+06
-4.3881e+06
-4.37955e+06
-4.38452e+06
-4.38444e+06
-4.3792e+06
-4.38298e+06
-4.38229e+06
-4.38e+06
-4.38022e+06
-4.37965e+06
-4.38101e+06
-4.37931e+06
-4.38006e+06
-4.37939e+06
-4.38304e+06
-4.38026e+06
-4.38236e+06
-4.37936e+06
-4.37971e+06
-4.38107e+06
-4.38219e+06
-4.38818e+06
-4.38464e+06
-4.38161e+06
-4.38231e+06
-4.37969e+06
-4.38468e+06
-4.37978e+06
-4.38038e+06
-4.38037e+06
-4.37923e+06
-4.3791e+06
-4.37947e+06
-4.38079e+06
-4.37903e+06
-4.37977e+06
-4.38279e+06
-4.38209e+06
-4.37998e+06
-4.37906e+06
-4.37925e+06
-4.38061e+06
-4.38133e+06
-4.38196e+06
-4.38187e+06
-4.388e+06
-4.37942e+06
-4.38442e+06
-4.38431e+06
-4.37974e+06
-4.37895e+06
-4.38272e+06
-4.37997e+06
-4.38198e+06
-4.38256e+06
-4.38056e+06
-4.38589e+06
-4.38182e+06
-4.38779e+06
-4.387e+06
-4.38464e+06
-4.38046e+06
-4.38239e+06
-4.38172e+06
-4.38695e+06
-4.38574e+06
-4.38457e+06
-4.38763e+06
-4.37916e+06
-4.38296e+06
-4.38222e+06
-4.3799e+06
-4.38013e+06
-4.38215e+06
-4.38813e+06
-4.38455e+06
-4.38151e+06
-4.38222e+06
-4.37959e+06
-4.38461e+06
-4.37923e+06
-4.37962e+06
-4.38097e+06
-4.37991e+06
-4.3792e+06
-4.38293e+06
-4.38012e+06
-4.38224e+06
-4.37969e+06
-4.37896e+06
-4.38277e+06
-4.37995e+06
-4.382e+06
-4.37898e+06
-4.37933e+06
-4.38067e+06
-4.37967e+06
-4.38267e+06
-4.37889e+06
-4.37993e+06
-4.38188e+06
-4.37896e+06
-4.37903e+06
-4.38047e+06
-4.38119e+06
-4.38183e+06
-4.38789e+06
-4.38172e+06
-4.38429e+06
-4.37925e+06
-4.38419e+06
-4.38395e+06
-4.38406e+06
-4.38985e+06
-4.3882e+06
-4.38284e+06
-4.38897e+06
-4.38905e+06
-4.38557e+06
-4.37965e+06
-4.37962e+06
-4.38128e+06
-4.38092e+06
-4.38313e+06
-4.38315e+06
-4.38249e+06
-4.38688e+06
-4.38041e+06
-4.38574e+06
-4.3817e+06
-4.38767e+06
-4.38447e+06
-4.38309e+06
-4.38063e+06
-4.38601e+06
-4.38232e+06
-4.38804e+06
-4.3873e+06
-4.38477e+06
-4.38293e+06
-4.38054e+06
-4.38227e+06
-4.38723e+06
-4.38583e+06
-4.38784e+06
-4.38466e+06
-4.37983e+06
-4.37978e+06
-4.38121e+06
-4.3859e+06
-4.38146e+06
-4.38339e+06
-4.38334e+06
-4.37913e+06
-4.37946e+06
-4.38085e+06
-4.37986e+06
-4.38291e+06
-4.37917e+06
-4.38011e+06
-4.38217e+06
-4.38141e+06
-4.38201e+06
-4.38804e+06
-4.38211e+06
-4.3845e+06
-4.37946e+06
-4.3845e+06
-4.37914e+06
-4.3795e+06
-4.38085e+06
-4.37944e+06
-4.3794e+06
-4.37937e+06
-4.37969e+06
-4.37896e+06
-4.38274e+06
-4.38199e+06
-4.37995e+06
-4.38117e+06
-4.38181e+06
-4.38784e+06
-4.38169e+06
-4.38425e+06
-4.37921e+06
-4.38416e+06
-4.37895e+06
-4.3791e+06
-4.3805e+06
-4.37968e+06
-4.38268e+06
-4.37893e+06
-4.37994e+06
-4.38191e+06
-4.37909e+06
-4.37945e+06
-4.38079e+06
-4.38134e+06
-4.38199e+06
-4.38796e+06
-4.38204e+06
-4.38444e+06
-4.37939e+06
-4.38439e+06
-4.37974e+06
-4.38273e+06
-4.379e+06
-4.37995e+06
-4.38205e+06
-4.37906e+06
-4.37942e+06
-4.38073e+06
-4.37961e+06
-4.38016e+06
-4.38018e+06
-4.37899e+06
-4.37921e+06
-4.37911e+06
-4.3802e+06
-4.38014e+06
-4.37924e+06
-4.37927e+06
-4.38031e+06
-4.3807e+06
-4.37985e+06
-4.37974e+06
-4.37922e+06
-4.37916e+06
-4.37937e+06
-4.38075e+06
-4.37913e+06
-4.3793e+06
-4.38067e+06
-4.38139e+06
-4.38193e+06
-4.3819e+06
-4.38803e+06
-4.37949e+06
-4.3844e+06
-4.38436e+06
-4.37991e+06
-4.37923e+06
-4.38291e+06
-4.38218e+06
-4.38016e+06
-4.37986e+06
-4.37906e+06
-4.3828e+06
-4.38206e+06
-4.3801e+06
-4.38691e+06
-4.3806e+06
-4.38591e+06
-4.38268e+06
-4.38457e+06
-4.38187e+06
-4.38779e+06
-4.38689e+06
-4.38054e+06
-4.38258e+06
-4.38584e+06
-4.38183e+06
-4.38461e+06
-4.38771e+06
-4.38831e+06
-4.38421e+06
-4.38415e+06
-4.38998e+06
-4.38303e+06
-4.38917e+06
-4.38911e+06
-4.38603e+06
-4.38007e+06
-4.3817e+06
-4.3801e+06
-4.38355e+06
-4.38139e+06
-4.38358e+06
-4.38868e+06
-4.38437e+06
-4.38513e+06
-4.3901e+06
-4.38366e+06
-4.38929e+06
-4.3895e+06
-4.38741e+06
-4.38086e+06
-4.38323e+06
-4.38616e+06
-4.38242e+06
-4.38495e+06
-4.38815e+06
-4.3817e+06
-4.3826e+06
-4.38259e+06
-4.38832e+06
-4.38018e+06
-4.38473e+06
-4.38475e+06
-4.37939e+06
-4.37963e+06
-4.38105e+06
-4.38007e+06
-4.37938e+06
-4.38309e+06
-4.38239e+06
-4.3803e+06
-4.38003e+06
-4.3793e+06
-4.38304e+06
-4.38232e+06
-4.38026e+06
-4.37871e+06
-4.37883e+06
-4.37976e+06
-4.37981e+06
-4.37889e+06
-4.38665e+06
-4.38029e+06
-4.3856e+06
-4.38226e+06
-4.38433e+06
-4.38156e+06
-4.38744e+06
-4.38669e+06
-4.38033e+06
-4.38569e+06
-4.38234e+06
-4.38442e+06
-4.38158e+06
-4.38752e+06
-4.38803e+06
-4.38379e+06
-4.38386e+06
-4.38957e+06
-4.38273e+06
-4.38878e+06
-4.38884e+06
-4.38607e+06
-4.38165e+06
-4.37997e+06
-4.38001e+06
-4.38353e+06
-4.38356e+06
-4.38137e+06
-4.38743e+06
-4.38075e+06
-4.38603e+06
-4.38319e+06
-4.38485e+06
-4.38246e+06
-4.38812e+06
-4.38744e+06
-4.38079e+06
-4.38611e+06
-4.38321e+06
-4.38489e+06
-4.38244e+06
-4.38816e+06
-4.38887e+06
-4.38523e+06
-4.38525e+06
-4.39034e+06
-4.38404e+06
-4.3896e+06
-4.38962e+06
-4.37959e+06
-4.37906e+06
-4.37965e+06
-4.37906e+06
-4.38064e+06
-4.38067e+06
-4.38007e+06
-4.37873e+06
-4.37976e+06
-4.37971e+06
-4.37887e+06
-4.37858e+06
-4.38464e+06
-4.37906e+06
-4.38062e+06
-4.37904e+06
-4.3825e+06
-4.38037e+06
-4.38254e+06
-4.38798e+06
-4.38382e+06
-4.38955e+06
-4.38375e+06
-4.38878e+06
-4.38267e+06
-4.38875e+06
-4.38659e+06
-4.38016e+06
-4.38222e+06
-4.38554e+06
-4.38143e+06
-4.38427e+06
-4.3874e+06
-4.38735e+06
-4.38601e+06
-4.38064e+06
-4.38311e+06
-4.38476e+06
-4.38808e+06
-4.38237e+06
-4.38595e+06
-4.37987e+06
-4.3815e+06
-4.37987e+06
-4.3834e+06
-4.38128e+06
-4.38338e+06
-4.3888e+06
-4.38521e+06
-4.39032e+06
-4.38519e+06
-4.38958e+06
-4.38399e+06
-4.38956e+06
-4.38733e+06
-4.38062e+06
-4.3831e+06
-4.38596e+06
-4.38234e+06
-4.38472e+06
-4.38805e+06
-4.38063e+06
-4.38061e+06
-4.38004e+06
-4.37954e+06
-4.37899e+06
-4.38114e+06
-4.38168e+06
-4.38173e+06
-4.38784e+06
-4.37923e+06
-4.38415e+06
-4.38417e+06
-4.3789e+06
-4.3791e+06
-4.38049e+06
-4.37962e+06
-4.37885e+06
-4.38262e+06
-4.38189e+06
-4.37985e+06
-4.37962e+06
-4.37887e+06
-4.3826e+06
-4.38186e+06
-4.37986e+06
-4.38459e+06
-4.38065e+06
-4.37905e+06
-4.37904e+06
-4.38253e+06
-4.38251e+06
-4.38039e+06
-4.3866e+06
-4.38561e+06
-4.38026e+06
-4.38234e+06
-4.3843e+06
-4.38749e+06
-4.38151e+06
-4.38658e+06
-4.3802e+06
-4.38553e+06
-4.38222e+06
-4.38426e+06
-4.38147e+06
-4.3874e+06
-4.38799e+06
-4.38391e+06
-4.38965e+06
-4.38382e+06
-4.38886e+06
-4.38273e+06
-4.38878e+06
-4.38693e+06
-4.38567e+06
-4.38041e+06
-4.38242e+06
-4.38449e+06
-4.38758e+06
-4.38178e+06
-4.38569e+06
-4.38138e+06
-4.37969e+06
-4.37973e+06
-4.3832e+06
-4.38326e+06
-4.38101e+06
-4.38836e+06
-4.38403e+06
-4.38978e+06
-4.38478e+06
-4.38898e+06
-4.38329e+06
-4.38918e+06
-4.38708e+06
-4.3805e+06
-4.38585e+06
-4.38292e+06
-4.38458e+06
-4.38208e+06
-4.38784e+06
-4.37913e+06
-4.37945e+06
-4.38082e+06
-4.37906e+06
-4.3794e+06
-4.38074e+06
-4.37978e+06
-4.37912e+06
-4.38283e+06
-4.3821e+06
-4.38001e+06
-4.37975e+06
-4.379e+06
-4.38281e+06
-4.38206e+06
-4.37999e+06
-4.37883e+06
-4.37875e+06
-4.37986e+06
-4.37977e+06
-4.37892e+06
-4.37992e+06
-4.38029e+06
-4.37944e+06
-4.37934e+06
-4.37882e+06
-4.37913e+06
-4.38016e+06
-4.38024e+06
-4.37931e+06
-4.37916e+06
-4.3807e+06
-4.38032e+06
-4.37984e+06
-4.37973e+06
-4.3792e+06
-4.37919e+06
-4.37989e+06
-4.38289e+06
-4.37918e+06
-4.38015e+06
-4.38214e+06
-4.37983e+06
-4.38279e+06
-4.37895e+06
-4.38009e+06
-4.38204e+06
-4.3792e+06
-4.37941e+06
-4.38075e+06
-4.37911e+06
-4.37931e+06
-4.38067e+06
-4.38137e+06
-4.388e+06
-4.3819e+06
-4.38189e+06
-4.38439e+06
-4.38434e+06
-4.37942e+06
-4.3883e+06
-4.38419e+06
-4.38998e+06
-4.38426e+06
-4.38911e+06
-4.38308e+06
-4.38917e+06
-4.38489e+06
-4.37937e+06
-4.3794e+06
-4.38093e+06
-4.38074e+06
-4.3828e+06
-4.38282e+06
-4.38691e+06
-4.38266e+06
-4.3806e+06
-4.38592e+06
-4.38186e+06
-4.38779e+06
-4.3846e+06
-4.38739e+06
-4.38323e+06
-4.38616e+06
-4.38082e+06
-4.38815e+06
-4.38241e+06
-4.38487e+06
-4.38726e+06
-4.38275e+06
-4.38076e+06
-4.38598e+06
-4.38211e+06
-4.38789e+06
-4.38483e+06
-4.38601e+06
-4.38005e+06
-4.38004e+06
-4.38169e+06
-4.38135e+06
-4.38357e+06
-4.38353e+06
-4.38004e+06
-4.38304e+06
-4.37933e+06
-4.38027e+06
-4.38232e+06
-4.37938e+06
-4.37966e+06
-4.38106e+06
-4.38167e+06
-4.38829e+06
-4.3826e+06
-4.38255e+06
-4.38473e+06
-4.38468e+06
-4.38018e+06
-4.37934e+06
-4.3796e+06
-4.381e+06
-4.37881e+06
-4.37982e+06
-4.37978e+06
-4.37891e+06
-4.37875e+06
-4.38806e+06
-4.38387e+06
-4.38958e+06
-4.38382e+06
-4.38884e+06
-4.38278e+06
-4.3888e+06
-4.3847e+06
-4.37915e+06
-4.38081e+06
-4.3792e+06
-4.38267e+06
-4.3805e+06
-4.38266e+06
-4.38668e+06
-4.38225e+06
-4.38032e+06
-4.38561e+06
-4.38157e+06
-4.38746e+06
-4.3844e+06
-4.38744e+06
-4.38611e+06
-4.38324e+06
-4.38081e+06
-4.38816e+06
-4.38489e+06
-4.38249e+06
-4.38887e+06
-4.38526e+06
-4.39034e+06
-4.38523e+06
-4.38962e+06
-4.38408e+06
-4.3896e+06
-4.38605e+06
-4.38001e+06
-4.3816e+06
-4.37996e+06
-4.38355e+06
-4.38138e+06
-4.3835e+06
-4.38741e+06
-4.38316e+06
-4.3807e+06
-4.38602e+06
-4.38244e+06
-4.3881e+06
-4.38481e+06
-4.38068e+06
-4.38064e+06
-4.3801e+06
-4.37958e+06
-4.37907e+06
-4.37971e+06
-4.37973e+06
-4.37883e+06
-4.37861e+06
-4.37874e+06
-4.38656e+06
-4.38218e+06
-4.38553e+06
-4.38019e+06
-4.38739e+06
-4.38144e+06
-4.38422e+06
-4.38659e+06
-4.38225e+06
-4.38558e+06
-4.38022e+06
-4.38742e+06
-4.38146e+06
-4.38435e+06
-4.38455e+06
-4.37901e+06
-4.37908e+06
-4.38064e+06
-4.38034e+06
-4.38248e+06
-4.38255e+06
-4.38881e+06
-4.39032e+06
-4.3852e+06
-4.38521e+06
-4.38956e+06
-4.38958e+06
-4.38399e+06
-4.38734e+06
-4.38313e+06
-4.38596e+06
-4.38063e+06
-4.38806e+06
-4.38236e+06
-4.38471e+06
-4.38735e+06
-4.38316e+06
-4.38601e+06
-4.38067e+06
-4.38809e+06
-4.3824e+06
-4.38473e+06
-4.38595e+06
-4.37984e+06
-4.37986e+06
-4.3815e+06
-4.38128e+06
-4.3834e+06
-4.38339e+06
-4.37955e+06
-4.37902e+06
-4.37957e+06
-4.37902e+06
-4.37959e+06
-4.3826e+06
-4.37889e+06
-4.37985e+06
-4.38189e+06
-4.37887e+06
-4.37908e+06
-4.38041e+06
-4.38111e+06
-4.38779e+06
-4.38165e+06
-4.38168e+06
-4.38412e+06
-4.38414e+06
-4.37918e+06
-4.37886e+06
-4.37912e+06
-4.38046e+06
-4.38661e+06
-4.38553e+06
-4.3822e+06
-4.3802e+06
-4.38741e+06
-4.3843e+06
-4.38147e+06
-4.38799e+06
-4.38963e+06
-4.3838e+06
-4.38386e+06
-4.38879e+06
-4.38883e+06
-4.38267e+06
-4.38461e+06
-4.37906e+06
-4.38065e+06
-4.37904e+06
-4.38254e+06
-4.38042e+06
-4.38249e+06
-4.3866e+06
-4.38229e+06
-4.3856e+06
-4.38021e+06
-4.38747e+06
-4.38148e+06
-4.38425e+06
-4.38834e+06
-4.38977e+06
-4.38476e+06
-4.38397e+06
-4.38917e+06
-4.38895e+06
-4.38324e+06
-4.38709e+06
-4.38584e+06
-4.3829e+06
-4.3805e+06
-4.38783e+06
-4.38461e+06
-4.38207e+06
-4.38692e+06
-4.38237e+06
-4.38566e+06
-4.38041e+06
-4.38756e+06
-4.38173e+06
-4.38448e+06
-4.3857e+06
-4.37974e+06
-4.38138e+06
-4.3797e+06
-4.38326e+06
-4.38102e+06
-4.38322e+06
-4.37979e+06
-4.38284e+06
-4.3791e+06
-4.38002e+06
-4.3821e+06
-4.37976e+06
-4.38279e+06
-4.37903e+06
-4.37999e+06
-4.38207e+06
-4.38142e+06
-4.38811e+06
-4.38238e+06
-4.38233e+06
-4.38454e+06
-4.38446e+06
-4.37995e+06
-4.37912e+06
-4.37944e+06
-4.38082e+06
-4.37907e+06
-4.37936e+06
-4.38075e+06
-4.37974e+06
-4.37981e+06
-4.37887e+06
-4.37879e+06
-4.37933e+06
-4.37881e+06
-4.37881e+06
-4.37955e+06
-4.37956e+06
-4.37964e+06
-4.37996e+06
-4.37926e+06
-4.38298e+06
-4.38221e+06
-4.38023e+06
-4.38142e+06
-4.38192e+06
-4.38805e+06
-4.382e+06
-4.3844e+06
-4.37947e+06
-4.38449e+06
-4.37924e+06
-4.37952e+06
-4.38087e+06
-4.38294e+06
-4.37911e+06
-4.37992e+06
-4.38018e+06
-4.38218e+06
-4.37941e+06
-4.37971e+06
-4.38106e+06
-4.38816e+06
-4.38217e+06
-4.38459e+06
-4.38158e+06
-4.38229e+06
-4.3847e+06
-4.37966e+06
-4.37925e+06
-4.38297e+06
-4.38227e+06
-4.37998e+06
-4.3802e+06
-4.3796e+06
-4.38097e+06
-4.37929e+06
-4.37978e+06
-4.38037e+06
-4.38038e+06
-4.3792e+06
-4.38132e+06
-4.38188e+06
-4.38799e+06
-4.38199e+06
-4.38431e+06
-4.37944e+06
-4.38439e+06
-4.37973e+06
-4.37896e+06
-4.38269e+06
-4.38199e+06
-4.37994e+06
-4.37908e+06
-4.37944e+06
-4.38076e+06
-4.37905e+06
-4.37975e+06
-4.38275e+06
-4.38206e+06
-4.37997e+06
-4.37978e+06
-4.37972e+06
-4.38099e+06
-4.38565e+06
-4.38143e+06
-4.38326e+06
-4.38323e+06
-4.38258e+06
-4.38589e+06
-4.38055e+06
-4.38777e+06
-4.38179e+06
-4.38697e+06
-4.3846e+06
-4.38044e+06
-4.3824e+06
-4.38171e+06
-4.3869e+06
-4.3857e+06
-4.38452e+06
-4.38759e+06
-4.37919e+06
-4.37958e+06
-4.38094e+06
-4.37987e+06
-4.37918e+06
-4.38291e+06
-4.38223e+06
-4.3801e+06
-4.37959e+06
-4.38091e+06
-4.37922e+06
-4.37917e+06
-4.3829e+06
-4.38219e+06
-4.37988e+06
-4.3801e+06
-4.37892e+06
-4.37912e+06
-4.38048e+06
-4.38118e+06
-4.38786e+06
-4.38169e+06
-4.38178e+06
-4.38416e+06
-4.38427e+06
-4.37924e+06
-4.37899e+06
-4.37969e+06
-4.38271e+06
-4.37995e+06
-4.38198e+06
-4.37897e+06
-4.37928e+06
-4.38065e+06
-4.38236e+06
-4.38039e+06
-4.38167e+06
-4.38681e+06
-4.38566e+06
-4.38754e+06
-4.38443e+06
-4.37963e+06
-4.37965e+06
-4.3809e+06
-4.38554e+06
-4.38128e+06
-4.38313e+06
-4.38313e+06
-4.38247e+06
-4.38572e+06
-4.38036e+06
-4.38764e+06
-4.38166e+06
-4.38684e+06
-4.38444e+06
-4.37984e+06
-4.38292e+06
-4.37916e+06
-4.38217e+06
-4.38009e+06
-4.38802e+06
-4.38197e+06
-4.38443e+06
-4.3814e+06
-4.38207e+06
-4.3845e+06
-4.37949e+06
-4.37914e+06
-4.37948e+06
-4.38085e+06
-4.37913e+06
-4.38286e+06
-4.38213e+06
-4.37982e+06
-4.38007e+06
-4.37944e+06
-4.38081e+06
-4.37912e+06
-4.37933e+06
-4.37928e+06
-4.37943e+06
-4.37895e+06
-4.37911e+06
-4.38049e+06
-4.37967e+06
-4.38267e+06
-4.37887e+06
-4.38187e+06
-4.37994e+06
-4.37899e+06
-4.37933e+06
-4.38067e+06
-4.38272e+06
-4.37898e+06
-4.37971e+06
-4.38199e+06
-4.37996e+06
-4.38795e+06
-4.38197e+06
-4.38442e+06
-4.38135e+06
-4.38205e+06
-4.38442e+06
-4.37942e+06
-4.37975e+06
-4.3827e+06
-4.37902e+06
-4.38202e+06
-4.37997e+06
-4.37908e+06
-4.37942e+06
-4.38076e+06
-4.37905e+06
-4.38275e+06
-4.38206e+06
-4.37976e+06
-4.37998e+06
-4.37946e+06
-4.38078e+06
-4.37911e+06
-4.38507e+06
-4.38487e+06
-4.39004e+06
-4.38384e+06
-4.38944e+06
-4.38867e+06
-4.38928e+06
-4.39813e+06
-4.39804e+06
-4.40087e+06
-4.39807e+06
-4.4009e+06
-4.40081e+06
-4.40363e+06
-4.39536e+06
-4.40092e+06
-4.39819e+06
-4.40096e+06
-4.39825e+06
-4.40368e+06
-4.40098e+06
-4.40082e+06
-4.39507e+06
-4.39799e+06
-4.40076e+06
-4.40358e+06
-4.39793e+06
-4.40076e+06
-4.39815e+06
-4.39805e+06
-4.39522e+06
-4.40363e+06
-4.40093e+06
-4.40083e+06
-4.39811e+06
-4.38918e+06
-4.39054e+06
-4.38447e+06
-4.39053e+06
-4.38712e+06
-4.39249e+06
-4.38712e+06
-4.4009e+06
-4.4008e+06
-4.40363e+06
-4.3952e+06
-4.39812e+06
-4.39803e+06
-4.40086e+06
-4.39824e+06
-4.40368e+06
-4.40098e+06
-4.39818e+06
-4.39535e+06
-4.40092e+06
-4.39818e+06
-4.40358e+06
-4.39793e+06
-4.40077e+06
-4.39798e+06
-4.40081e+06
-4.39507e+06
-4.39799e+06
-4.40094e+06
-4.40083e+06
-4.39812e+06
-4.40087e+06
-4.39814e+06
-4.39805e+06
-4.39522e+06
-4.38278e+06
-4.38706e+06
-4.38703e+06
-4.38962e+06
-4.38319e+06
-4.38639e+06
-4.38636e+06
-4.38961e+06
-4.38709e+06
-4.38638e+06
-4.3828e+06
-4.38712e+06
-4.3864e+06
-4.38328e+06
-4.38951e+06
-4.38698e+06
-4.38631e+06
-4.38273e+06
-4.38696e+06
-4.38629e+06
-4.38318e+06
-4.38495e+06
-4.38511e+06
-4.38396e+06
-4.38877e+06
-4.39008e+06
-4.38937e+06
-4.38947e+06
-4.38493e+06
-4.38508e+06
-4.38392e+06
-4.38873e+06
-4.39005e+06
-4.38934e+06
-4.38944e+06
-4.38505e+06
-4.38489e+06
-4.38387e+06
-4.38866e+06
-4.39003e+06
-4.38942e+06
-4.38928e+06
-4.38716e+06
-4.38292e+06
-4.38718e+06
-4.38965e+06
-4.38339e+06
-4.38645e+06
-4.38643e+06
-4.3872e+06
-4.38973e+06
-4.38653e+06
-4.38299e+06
-4.38722e+06
-4.3834e+06
-4.38656e+06
-4.38273e+06
-4.38699e+06
-4.38952e+06
-4.38695e+06
-4.38632e+06
-4.38315e+06
-4.38626e+06
-4.38414e+06
-4.384e+06
-4.38988e+06
-4.38296e+06
-4.38914e+06
-4.3883e+06
-4.38901e+06
-4.38715e+06
-4.38969e+06
-4.38646e+06
-4.38288e+06
-4.38715e+06
-4.38332e+06
-4.38648e+06
-4.38265e+06
-4.38696e+06
-4.38692e+06
-4.38945e+06
-4.38312e+06
-4.38624e+06
-4.38618e+06
-4.38714e+06
-4.38284e+06
-4.38713e+06
-4.38963e+06
-4.3833e+06
-4.38642e+06
-4.38642e+06
-4.38265e+06
-4.38696e+06
-4.38942e+06
-4.38692e+06
-4.38622e+06
-4.38313e+06
-4.38617e+06
-4.38274e+06
-4.38699e+06
-4.38952e+06
-4.38695e+06
-4.38633e+06
-4.38316e+06
-4.38628e+06
-4.38283e+06
-4.38958e+06
-4.3871e+06
-4.38705e+06
-4.38639e+06
-4.38633e+06
-4.38329e+06
-4.38943e+06
-4.38476e+06
-4.39076e+06
-4.39074e+06
-4.38739e+06
-4.38738e+06
-4.3927e+06
-4.38304e+06
-4.38983e+06
-4.38729e+06
-4.38727e+06
-4.38662e+06
-4.3866e+06
-4.38347e+06
-4.3893e+06
-4.38468e+06
-4.39068e+06
-4.39069e+06
-4.38726e+06
-4.38729e+06
-4.39261e+06
-4.38922e+06
-4.39058e+06
-4.3845e+06
-4.39055e+06
-4.38716e+06
-4.39251e+06
-4.38715e+06
-4.38261e+06
-4.38938e+06
-4.38687e+06
-4.38686e+06
-4.38615e+06
-4.38614e+06
-4.38307e+06
-4.38276e+06
-4.38961e+06
-4.38705e+06
-4.38702e+06
-4.38638e+06
-4.38634e+06
-4.38318e+06
-4.38281e+06
-4.38709e+06
-4.38704e+06
-4.38956e+06
-4.38327e+06
-4.38636e+06
-4.38631e+06
-4.38943e+06
-4.39071e+06
-4.38471e+06
-4.39074e+06
-4.38736e+06
-4.39269e+06
-4.38737e+06
-4.38305e+06
-4.3873e+06
-4.38727e+06
-4.38981e+06
-4.38348e+06
-4.38662e+06
-4.38658e+06
-4.3893e+06
-4.39068e+06
-4.38463e+06
-4.39067e+06
-4.38727e+06
-4.39261e+06
-4.38726e+06
-4.38917e+06
-4.39051e+06
-4.39054e+06
-4.3845e+06
-4.39248e+06
-4.38711e+06
-4.38714e+06
-4.38255e+06
-4.38685e+06
-4.38685e+06
-4.38935e+06
-4.38303e+06
-4.38611e+06
-4.38612e+06
-4.38919e+06
-4.39051e+06
-4.39055e+06
-4.38447e+06
-4.39249e+06
-4.38712e+06
-4.38713e+06
-4.38714e+06
-4.38289e+06
-4.38717e+06
-4.38962e+06
-4.38642e+06
-4.38338e+06
-4.38642e+06
-4.38971e+06
-4.38716e+06
-4.38649e+06
-4.38297e+06
-4.3872e+06
-4.38655e+06
-4.38339e+06
-4.38272e+06
-4.3895e+06
-4.38694e+06
-4.38696e+06
-4.38625e+06
-4.3863e+06
-4.38314e+06
-4.38416e+06
-4.38986e+06
-4.384e+06
-4.38912e+06
-4.38293e+06
-4.38826e+06
-4.38898e+06
-4.38967e+06
-4.38712e+06
-4.38645e+06
-4.38291e+06
-4.38714e+06
-4.38648e+06
-4.38333e+06
-4.38264e+06
-4.38691e+06
-4.38943e+06
-4.38693e+06
-4.38617e+06
-4.38311e+06
-4.38622e+06
-4.38407e+06
-4.38983e+06
-4.38392e+06
-4.38903e+06
-4.38281e+06
-4.38816e+06
-4.38894e+06
-4.38695e+06
-4.38265e+06
-4.38943e+06
-4.38693e+06
-4.38617e+06
-4.38623e+06
-4.38315e+06
)
;

boundaryField
{
    sphere_to_oil
    {
        type            calculated;
        value           nonuniform List<scalar> 
1536
(
-4.37839e+06
-4.37823e+06
-4.37815e+06
-4.37837e+06
-4.37822e+06
-4.37835e+06
-4.37817e+06
-4.37828e+06
-4.37816e+06
-4.37859e+06
-4.37811e+06
-4.37847e+06
-4.37862e+06
-4.3785e+06
-4.37824e+06
-4.3784e+06
-4.37793e+06
-4.37774e+06
-4.37819e+06
-4.37862e+06
-4.3785e+06
-4.37822e+06
-4.37812e+06
-4.37827e+06
-4.37828e+06
-4.37829e+06
-4.37826e+06
-4.37826e+06
-4.37819e+06
-4.37842e+06
-4.37832e+06
-4.37829e+06
-4.37834e+06
-4.37844e+06
-4.37832e+06
-4.37829e+06
-4.37832e+06
-4.37831e+06
-4.37821e+06
-4.37833e+06
-4.37823e+06
-4.3782e+06
-4.37825e+06
-4.37824e+06
-4.37831e+06
-4.37823e+06
-4.37826e+06
-4.37831e+06
-4.37831e+06
-4.37833e+06
-4.37829e+06
-4.37832e+06
-4.37835e+06
-4.37824e+06
-4.37852e+06
-4.37844e+06
-4.37858e+06
-4.37845e+06
-4.37845e+06
-4.37829e+06
-4.37863e+06
-4.37853e+06
-4.37817e+06
-4.37792e+06
-4.37815e+06
-4.37792e+06
-4.37838e+06
-4.37824e+06
-4.37849e+06
-4.37837e+06
-4.37821e+06
-4.37844e+06
-4.37833e+06
-4.37818e+06
-4.37793e+06
-4.37819e+06
-4.37808e+06
-4.37809e+06
-4.37823e+06
-4.37803e+06
-4.37819e+06
-4.37828e+06
-4.37817e+06
-4.37831e+06
-4.37816e+06
-4.37817e+06
-4.37842e+06
-4.37833e+06
-4.37821e+06
-4.37805e+06
-4.37823e+06
-4.37812e+06
-4.37825e+06
-4.37809e+06
-4.37858e+06
-4.37862e+06
-4.37852e+06
-4.37842e+06
-4.37827e+06
-4.37819e+06
-4.37857e+06
-4.37847e+06
-4.37857e+06
-4.37853e+06
-4.37873e+06
-4.37858e+06
-4.37862e+06
-4.37853e+06
-4.37851e+06
-4.37838e+06
-4.37814e+06
-4.37813e+06
-4.37825e+06
-4.37853e+06
-4.37835e+06
-4.37831e+06
-4.37833e+06
-4.37847e+06
-4.37842e+06
-4.3781e+06
-4.37803e+06
-4.37832e+06
-4.37833e+06
-4.37844e+06
-4.37827e+06
-4.37831e+06
-4.37841e+06
-4.37795e+06
-4.37772e+06
-4.37812e+06
-4.37796e+06
-4.37818e+06
-4.3781e+06
-4.37821e+06
-4.37816e+06
-4.37813e+06
-4.37834e+06
-4.37818e+06
-4.37837e+06
-4.37826e+06
-4.37822e+06
-4.37801e+06
-4.37816e+06
-4.37818e+06
-4.37858e+06
-4.37862e+06
-4.37851e+06
-4.37839e+06
-4.37813e+06
-4.37802e+06
-4.37852e+06
-4.37857e+06
-4.37857e+06
-4.37861e+06
-4.37844e+06
-4.37853e+06
-4.37854e+06
-4.37842e+06
-4.37814e+06
-4.37815e+06
-4.37847e+06
-4.37838e+06
-4.37854e+06
-4.3784e+06
-4.37833e+06
-4.37842e+06
-4.37809e+06
-4.37804e+06
-4.37813e+06
-4.37831e+06
-4.37832e+06
-4.37835e+06
-4.37823e+06
-4.37825e+06
-4.37816e+06
-4.37798e+06
-4.37809e+06
-4.37816e+06
-4.37818e+06
-4.3782e+06
-4.37811e+06
-4.37831e+06
-4.37813e+06
-4.37837e+06
-4.37828e+06
-4.37824e+06
-4.37811e+06
-4.37817e+06
-4.37851e+06
-4.37832e+06
-4.3783e+06
-4.3781e+06
-4.37847e+06
-4.37836e+06
-4.37818e+06
-4.37801e+06
-4.37829e+06
-4.37818e+06
-4.37839e+06
-4.37821e+06
-4.37816e+06
-4.37833e+06
-4.37822e+06
-4.37837e+06
-4.37823e+06
-4.37844e+06
-4.37832e+06
-4.37826e+06
-4.37814e+06
-4.3782e+06
-4.37824e+06
-4.37793e+06
-4.37804e+06
-4.37822e+06
-4.37838e+06
-4.37826e+06
-4.37839e+06
-4.37828e+06
-4.37823e+06
-4.37812e+06
-4.37828e+06
-4.3782e+06
-4.37832e+06
-4.37824e+06
-4.3783e+06
-4.37821e+06
-4.37814e+06
-4.37838e+06
-4.37834e+06
-4.37811e+06
-4.37773e+06
-4.37782e+06
-4.37768e+06
-4.37823e+06
-4.37798e+06
-4.37829e+06
-4.3784e+06
-4.37809e+06
-4.37777e+06
-4.37815e+06
-4.3784e+06
-4.37777e+06
-4.37839e+06
-4.37804e+06
-4.37809e+06
-4.37838e+06
-4.37789e+06
-4.37835e+06
-4.37788e+06
-4.37826e+06
-4.37842e+06
-4.37832e+06
-4.37799e+06
-4.37786e+06