/*--------------------------------*- C++ -*----------------------------------*\
| =========                 |                                                 |
| \\      /  F ield         | OpenFOAM: The Open Source CFD Toolbox           |
|  \\    /   O peration     | Version:  v1906                                 |
|   \\  /    A nd           | Web:      www.OpenFOAM.com                      |
|    \\/     M anipulation  |                                                 |
\*---------------------------------------------------------------------------*/
FoamFile
{
    version     2.0;
    format      ascii;
    class       volScalarField;
    location    "29";
    object      nut;
}
// * * * * * * * * * * * * * * * * * * * * * * * * * * * * * * * * * * * * * //

dimensions      [0 2 -1 0 0 0 0];


internalField   nonuniform List<scalar> 
78750
(
1.53498e-07
5.27182e-06
5.4024e-06
5.36413e-06
5.20027e-06
4.98114e-06
4.75021e-06
4.52783e-06
4.32197e-06
4.13456e-06
3.96508e-06
3.81232e-06
3.67517e-06
3.55225e-06
3.44197e-06
3.34269e-06
3.25267e-06
3.17019e-06
3.09353e-06
3.02075e-06
2.9497e-06
2.87781e-06
2.80218e-06
2.72e-06
2.62824e-06
2.52188e-06
2.39738e-06
2.25004e-06
2.07245e-06
1.85689e-06
1.59652e-06
1.28349e-06
9.20229e-07
5.46726e-07
8.01398e-09
2.30965e-08
3.98848e-06
7.98781e-06
1.35054e-05
1.79878e-05
2.04523e-05
2.22098e-05
2.3582e-05
2.44569e-05
2.49397e-05
2.51328e-05
2.48108e-05
2.4537e-05
2.4295e-05
2.40767e-05
2.38792e-05
2.36959e-05
2.33971e-05
2.31552e-05
2.29854e-05
2.28883e-05
2.2662e-05
2.23453e-05
2.19573e-05
2.14824e-05
2.09009e-05
2.01926e-05
1.93328e-05
1.69099e-05
1.27725e-05
8.93518e-06
6.41926e-06
5.58504e-06
4.18903e-06
1.98555e-08
3.30562e-08
4.19294e-06
7.68735e-06
8.30911e-06
8.62435e-06
9.47025e-06
1.13143e-05
1.45798e-05
1.58192e-05
1.57019e-05
1.56529e-05
1.56537e-05
1.56936e-05
1.57673e-05
1.58694e-05
1.59953e-05
1.61411e-05
1.63035e-05
1.64786e-05
1.66623e-05
1.68489e-05
1.70309e-05
1.71985e-05
1.73341e-05
1.74213e-05
1.74388e-05
1.73572e-05
1.71381e-05
1.45362e-05
1.10294e-05
8.518e-06
7.38169e-06
8.30558e-06
3.548e-06
2.56297e-08
2.42115e-08
4.44814e-06
1.23844e-05
1.07047e-05
9.32464e-06
9.22693e-06
1.07005e-05
1.34415e-05
1.2986e-05
1.25614e-05
1.21897e-05
1.18795e-05
1.16393e-05
1.14706e-05
1.13725e-05
1.13422e-05
1.1376e-05
1.14705e-05
1.1623e-05
1.18311e-05
1.20928e-05
1.2405e-05
1.27618e-05
1.31521e-05
1.35592e-05
1.3957e-05
1.42978e-05
1.31095e-05
1.02421e-05
7.95542e-06
6.50738e-06
6.21955e-06
8.36537e-06
3.36371e-06
2.90122e-08
2.09421e-08
2.74749e-06
1.03479e-05
1.18104e-05
1.01269e-05
8.79656e-06
8.24624e-06
8.23218e-06
8.64069e-06
9.14823e-06
8.25159e-06
7.46449e-06
6.83025e-06
6.35571e-06
6.02781e-06
5.8269e-06
5.73468e-06
5.73823e-06
5.83174e-06
6.01708e-06
6.30327e-06
6.70488e-06
7.23892e-06
7.91929e-06
8.74825e-06
8.73695e-06
8.03917e-06
7.3819e-06
6.73564e-06
6.14925e-06
5.87783e-06
6.58028e-06
1.00303e-05
2.72412e-06
3.31518e-08
1.53273e-08
2.26737e-06
8.70036e-06
1.00422e-05
8.95639e-06
6.9753e-06
5.83765e-06
5.12464e-06
4.60918e-06
4.2303e-06
4.00893e-06
3.96939e-06
4.0862e-06
3.80556e-06
3.59404e-06
3.48093e-06
3.41191e-06
3.34201e-06
3.23986e-06
3.08982e-06
2.89508e-06
2.68323e-06
2.51401e-06
2.48459e-06
2.45026e-06
2.37031e-06
2.49671e-06
2.77488e-06
3.1188e-06
3.45744e-06
3.87836e-06
4.94992e-06
8.84659e-06
2.53635e-06
3.52027e-08
1.24502e-08
1.8795e-06
7.41174e-06
8.65308e-06
8.67751e-06
6.31534e-06
4.74503e-06
3.66443e-06
2.90816e-06
2.44596e-06
2.30341e-06
2.5204e-06
3.10291e-06
3.98416e-06
5.00369e-06
5.60036e-06
6.11013e-06
6.48629e-06
6.701e-06
6.73552e-06
6.57493e-06
6.20759e-06
5.6311e-06
4.37511e-06
3.04348e-06
1.97248e-06
1.36697e-06
1.27189e-06
1.55173e-06
2.04923e-06
2.74613e-06
4.07588e-06
7.92471e-06
2.17892e-06
3.92471e-08
1.02056e-08
1.65782e-06
6.20197e-06
7.16682e-06
6.02885e-06
3.98057e-06
2.77975e-06
2.07122e-06
1.73107e-06
1.76469e-06
2.21367e-06
3.1009e-06
4.40904e-06
6.07502e-06
7.7227e-06
8.42426e-06
8.9705e-06
9.36118e-06
9.59816e-06
9.67972e-06
9.59774e-06
9.33702e-06
8.87657e-06
7.60439e-06
5.47289e-06
3.57712e-06
2.16343e-06
1.34217e-06
1.09324e-06
1.2814e-06
1.80307e-06
2.9181e-06
6.45379e-06
1.96521e-06
4.25604e-08
8.97189e-09
1.40187e-06
5.15581e-06
5.86712e-06
4.23341e-06
2.69416e-06
1.87291e-06
1.49671e-06
1.50564e-06
1.91674e-06
2.74969e-06
4.0071e-06
5.66946e-06
7.62542e-06
8.71089e-06
9.31694e-06
9.7898e-06
1.01333e-05
1.0348e-05
1.043e-05
1.03704e-05
1.01549e-05
9.76508e-06
8.37209e-06
6.08692e-06
4.06909e-06
2.51665e-06
1.51024e-06
1.04543e-06
1.0408e-06
1.43049e-06
2.44481e-06
5.80005e-06
1.75344e-06
4.67704e-08
7.9372e-09
1.21335e-06
4.25876e-06
4.76578e-06
2.84999e-06
1.84279e-06
1.40506e-06
1.3546e-06
1.67333e-06
2.37606e-06
3.46738e-06
4.92475e-06
6.69153e-06
8.64264e-06
1.00734e-05
1.07191e-05
1.1237e-05
1.16236e-05
1.18736e-05
1.19787e-05
1.19278e-05
1.17064e-05
1.12747e-05
8.96635e-06
6.57879e-06
4.47172e-06
2.81379e-06
1.68583e-06
1.08491e-06
9.34815e-07
1.18191e-06
2.03709e-06
5.27784e-06
1.63365e-06
5.04515e-08
7.00474e-09
1.06671e-06
3.64083e-06
4.09115e-06
2.40963e-06
1.64186e-06
1.37518e-06
1.46151e-06
1.89267e-06
2.68376e-06
3.84725e-06
5.3847e-06
7.27899e-06
9.43101e-06
1.09873e-05
1.1735e-05
1.23494e-05
1.28231e-05
1.31473e-05
1.33101e-05
1.32969e-05
1.30894e-05
1.24121e-05
9.70276e-06
7.00224e-06
4.70479e-06
2.94561e-06
1.76144e-06
1.1169e-06
9.14018e-07
1.10056e-06
1.90626e-06
5.16735e-06
1.52854e-06
5.3842e-08
5.73379e-09
9.99437e-07
3.19321e-06
3.65932e-06
2.24896e-06
1.59771e-06
1.40442e-06
1.53908e-06
2.00181e-06
2.82306e-06
4.04326e-06
5.69484e-06
7.78121e-06
1.02031e-05
1.21353e-05
1.29976e-05
1.372e-05
1.42963e-05
1.47177e-05
1.49711e-05
1.50384e-05
1.48961e-05
1.40049e-05
1.09846e-05
7.93639e-06
5.32933e-06
3.32985e-06
1.9738e-06
1.21301e-06
9.29076e-07
1.04473e-06
1.77558e-06
5.02084e-06
1.47035e-06
5.59684e-08
4.43163e-09
9.85471e-07
2.84419e-06
3.35205e-06
2.33757e-06
1.70123e-06
1.51067e-06
1.64744e-06
2.11523e-06
2.95145e-06
4.20417e-06
5.91559e-06
8.11096e-06
1.07257e-05
1.28544e-05
1.37684e-05
1.45506e-05
1.51992e-05
1.57072e-05
1.60606e-05
1.62385e-05
1.62128e-05
1.56847e-05
1.23167e-05
8.93449e-06
6.06115e-06
3.8383e-06
2.29598e-06
1.39451e-06
1.01263e-06
1.05773e-06
1.7353e-06
4.96244e-06
1.42941e-06
5.77983e-08
3.48483e-09
1.04565e-06
2.56824e-06
3.09852e-06
2.27187e-06
1.74288e-06
1.64088e-06
1.87918e-06
2.45853e-06
3.40547e-06
4.74615e-06
6.49669e-06
8.66713e-06
1.1221e-05
1.34649e-05
1.4348e-05
1.5127e-05
1.57997e-05
1.63571e-05
1.67833e-05
1.70552e-05
1.71428e-05
1.66973e-05
1.32105e-05
9.71748e-06
6.7501e-06
4.41358e-06
2.72844e-06
1.67925e-06
1.17397e-06
1.12161e-06
1.71376e-06
4.91584e-06
1.42419e-06
5.95882e-08
2.99044e-09
1.10518e-06
2.39559e-06
2.95729e-06
2.30544e-06
1.88679e-06
1.88516e-06
2.22101e-06
2.87509e-06
3.84514e-06
5.12992e-06
6.73865e-06
8.71168e-06
1.10873e-05
1.3405e-05
1.42951e-05
1.51059e-05
1.58287e-05
1.64498e-05
1.69506e-05
1.73059e-05
1.74859e-05
1.68294e-05
1.32812e-05
9.81696e-06
6.93307e-06
4.67715e-06
3.02144e-06
1.94529e-06
1.3775e-06
1.25759e-06
1.80243e-06
5.0601e-06
1.43555e-06
6.20093e-08
2.52964e-09
1.18482e-06
2.28387e-06
2.88358e-06
2.41397e-06
2.04939e-06
2.08099e-06
2.4147e-06
3.01218e-06
3.86471e-06
4.98628e-06
6.42269e-06
8.25305e-06
1.05534e-05
1.31662e-05
1.41276e-05
1.50096e-05
1.5802e-05
1.64914e-05
1.70596e-05
1.74824e-05
1.77312e-05
1.65862e-05
1.30869e-05
9.69551e-06
6.89133e-06
4.72656e-06
3.1526e-06
2.12322e-06
1.5574e-06
1.41381e-06
1.94928e-06
5.32665e-06
1.46491e-06
6.4881e-08
1.91674e-09
1.287e-06
2.11282e-06
2.7172e-06
2.60788e-06
2.19658e-06
2.15286e-06
2.37615e-06
2.8311e-06
3.52684e-06
4.50195e-06
5.8201e-06
7.56724e-06
9.8282e-06
1.25252e-05
1.39484e-05
1.48791e-05
1.57131e-05
1.64416e-05
1.70491e-05
1.75133e-05
1.78066e-05
1.63587e-05
1.28343e-05
9.47683e-06
6.72684e-06
4.63082e-06
3.13892e-06
2.19223e-06
1.68152e-06
1.57029e-06
2.16416e-06
5.68555e-06
1.48887e-06
6.83126e-08
1.37021e-09
1.13402e-06
1.91153e-06
2.50024e-06
2.62304e-06
2.23833e-06
2.18175e-06
2.37802e-06
2.81104e-06
3.49946e-06
4.47894e-06
5.7965e-06
7.51168e-06
9.6887e-06
1.2292e-05
1.412e-05
1.50115e-05
1.58144e-05
1.65232e-05
1.7123e-05
1.75927e-05
1.7904e-05
1.61645e-05
1.26093e-05
9.31522e-06
6.63064e-06
4.57708e-06
3.1214e-06
2.22006e-06
1.75437e-06
1.68952e-06
2.36832e-06
5.97675e-06
1.5099e-06
7.21589e-08
1.09832e-09
1.03013e-06
1.76825e-06
2.35162e-06
2.55624e-06
2.26803e-06
2.28135e-06
2.54805e-06
3.05742e-06
3.81814e-06
4.8433e-06
6.14758e-06
7.7583e-06
9.72891e-06
1.20868e-05
1.41067e-05
1.49325e-05
1.56909e-05
1.63725e-05
1.69601e-05
1.74317e-05
1.77585e-05
1.53699e-05
1.18707e-05
8.82288e-06
6.36668e-06
4.45938e-06
3.08544e-06
2.23792e-06
1.81147e-06
1.79316e-06
2.5721e-06
6.15625e-06
1.51622e-06
7.5723e-08
9.77236e-10
9.76357e-07
1.69934e-06
2.30044e-06
2.5181e-06
2.33623e-06
2.43561e-06
2.77506e-06
3.33573e-06
4.10659e-06
5.07506e-06
6.23519e-06
7.6134e-06
9.28947e-06
1.13778e-05
1.38047e-05
1.46063e-05
1.53519e-05
1.60275e-05
1.66161e-05
1.7098e-05
1.73705e-05
1.4019e-05
1.07866e-05
8.14941e-06
6.02479e-06
4.32719e-06
3.06215e-06
2.26624e-06
1.86594e-06
1.8816e-06
2.75145e-06
6.25847e-06
1.52179e-06
7.8476e-08
8.72858e-10
9.38335e-07
1.65275e-06
2.26667e-06
2.54779e-06
2.41604e-06
2.54541e-06
2.88908e-06
3.41515e-06
4.09709e-06
4.91189e-06
5.85701e-06
6.97502e-06
8.36966e-06
1.01945e-05
1.25198e-05
1.4038e-05
1.47779e-05
1.5445e-05
1.60258e-05
1.65046e-05
1.55667e-05
1.23039e-05
9.48993e-06
7.31998e-06
5.59319e-06
4.17572e-06
3.06781e-06
2.33661e-06
1.95338e-06
1.98441e-06
2.92178e-06
6.33874e-06
1.52998e-06
8.02415e-08
7.41558e-10
8.90217e-07
1.58519e-06
2.19195e-06
2.58893e-06
2.4685e-06
2.58162e-06
2.87875e-06
3.3197e-06
3.87208e-06
4.51361e-06
5.24769e-06
6.12234e-06
7.24439e-06
8.78092e-06
1.09039e-05
1.33885e-05
1.41132e-05
1.47582e-05
1.53136e-05
1.5769e-05
1.36997e-05
1.05905e-05
8.17265e-06
6.42057e-06
5.07359e-06
3.9624e-06
3.06014e-06
2.42893e-06
2.07777e-06
2.1242e-06
3.12436e-06
6.52156e-06
1.55718e-06
8.16111e-08
6.0164e-10
8.23061e-07
1.48153e-06
2.06317e-06
2.61521e-06
2.51589e-06
2.58755e-06
2.80823e-06
3.13647e-06
3.53993e-06
4.00103e-06
4.52934e-06
5.17436e-06
6.0365e-06
7.27809e-06
9.11283e-06
1.16292e-05
1.32993e-05
1.39044e-05
1.44139e-05
1.4823e-05
1.19071e-05
8.9806e-06
6.89712e-06
5.48604e-06
4.46704e-06
3.65662e-06
2.99488e-06
2.50946e-06
2.22307e-06
2.29963e-06
3.36877e-06
6.77023e-06
1.59724e-06
8.28521e-08
4.95115e-10
7.5268e-07
1.37052e-06
1.92708e-06
2.45823e-06
2.5426e-06
2.57545e-06
2.71566e-06
2.93029e-06
3.19213e-06
3.49233e-06
3.84969e-06
4.3169e-06
4.98577e-06
5.99792e-06
7.55118e-06
9.81582e-06
1.24554e-05
1.2982e-05
1.33981e-05
1.3239e-05
1.01493e-05
7.48081e-06
5.69532e-06
4.55668e-06
3.79736e-06
3.24522e-06
2.82491e-06
2.52462e-06
2.35309e-06
2.50237e-06
3.68506e-06
7.06387e-06
1.65063e-06
8.4531e-08
4.5628e-10
6.90943e-07
1.26996e-06
1.80037e-06
2.30394e-06
2.5159e-06
2.50129e-06
2.54757e-06
2.63742e-06
2.75899e-06
2.92249e-06
3.16321e-06
3.53947e-06
4.13401e-06
5.06525e-06
6.49651e-06
8.56498e-06
1.10337e-05
1.21637e-05
1.23881e-05
1.11418e-05
8.35807e-06
6.05675e-06
4.55984e-06
3.64787e-06
3.09229e-06
2.74836e-06
2.54387e-06
2.44094e-06
2.42084e-06
2.68143e-06
4.00846e-06
7.26989e-06
1.69988e-06
8.64347e-08
4.89019e-10
6.44426e-07
1.18583e-06
1.68384e-06
2.1476e-06
2.31247e-06
2.24168e-06
2.19879e-06
2.1962e-06
2.25403e-06
2.40776e-06
2.70331e-06
3.19604e-06
3.95858e-06
5.09098e-06
6.69924e-06
8.7454e-06
1.07405e-05
1.17824e-05
1.12358e-05
9.27159e-06
6.85167e-06
4.88685e-06
3.59951e-06
2.83748e-06
2.41497e-06
2.21015e-06
2.16467e-06
2.23973e-06
2.39268e-06
2.80294e-06
4.30184e-06
7.4108e-06
1.75152e-06
8.96563e-08
5.64873e-10
6.17929e-07
1.12911e-06
1.59799e-06
2.01125e-06
1.92797e-06
1.83469e-06
1.79362e-06
1.8536e-06
2.05827e-06
2.44875e-06
3.0704e-06
3.98206e-06
5.25822e-06
6.95664e-06
8.99401e-06
1.09555e-05
1.21749e-05
1.21903e-05
1.09538e-05
8.79012e-06
6.37242e-06
4.3569e-06
2.99726e-06
2.21992e-06
1.84042e-06
1.70618e-06
1.74633e-06
1.93408e-06
2.22688e-06
2.77235e-06
4.38279e-06
7.47436e-06
1.79928e-06
9.56039e-08
6.64052e-10
6.30417e-07
1.15105e-06
1.54227e-06
1.61163e-06
1.60328e-06
1.64635e-06
1.82542e-06
2.19561e-06
2.80368e-06
3.70262e-06
4.95676e-06
6.62871e-06
8.72329e-06
1.10719e-05
1.32609e-05
1.47926e-05
1.53372e-05
1.4766e-05
1.30844e-05
1.04989e-05
7.56295e-06
4.96418e-06
3.08898e-06
1.96942e-06
1.44451e-06
1.29392e-06
1.36267e-06
1.59622e-06
1.96513e-06
2.60015e-06
4.25852e-06
7.52967e-06
1.85056e-06
1.06393e-07
8.8636e-10
6.56358e-07
1.08503e-06
1.33496e-06
1.49653e-06
1.69191e-06
2.02608e-06
2.57473e-06
3.40525e-06
4.59229e-06
6.21932e-06
8.35282e-06
1.09648e-05
1.38288e-05
1.6528e-05
1.86465e-05
1.99216e-05
2.02049e-05
1.93711e-05
1.73088e-05
1.40682e-05
1.01996e-05
6.63602e-06
3.97338e-06
2.27438e-06
1.37688e-06
1.05807e-06
1.08885e-06
1.32195e-06
1.69886e-06
2.34049e-06
3.95527e-06
7.56906e-06
1.89061e-06
1.20962e-07
1.31898e-09
7.84602e-07
1.18333e-06
1.42067e-06
1.69566e-06
2.10014e-06
2.71166e-06
3.61246e-06
4.90541e-06
6.72648e-06
9.22131e-06
1.24294e-05
1.61035e-05
1.97171e-05
2.27771e-05
2.50275e-05
2.63465e-05
2.65967e-05
2.55785e-05
2.30263e-05
1.88166e-05
1.35937e-05
8.75383e-06
5.19996e-06
2.93177e-06
1.64436e-06
1.06864e-06
9.80666e-07
1.18031e-06
1.54503e-06
2.17194e-06
3.76581e-06
7.63699e-06
1.91185e-06
1.36162e-07
1.57323e-09
1.07998e-06
1.42339e-06
1.60813e-06
1.92326e-06
2.42242e-06
3.17037e-06
4.27083e-06
5.88121e-06
8.19441e-06
1.13302e-05
1.51569e-05
1.92596e-05
2.31734e-05
2.65661e-05
2.92087e-05
3.08936e-05
3.13908e-05
3.04337e-05
2.76131e-05
2.25772e-05
1.60923e-05
1.01703e-05
5.99955e-06
3.4311e-06
1.97286e-06
1.25898e-06
1.06526e-06
1.20269e-06
1.53242e-06
2.14336e-06
3.79379e-06
7.71225e-06
1.90525e-06
1.47599e-07
1.22111e-09
1.33412e-06
1.57601e-06
1.69458e-06
1.96225e-06
2.41952e-06
3.12382e-06
4.16667e-06
5.65554e-06
7.68224e-06
1.03104e-05
1.3542e-05
1.7222e-05
2.10005e-05
2.44556e-05
2.72702e-05
2.92434e-05
3.01908e-05
2.98487e-05
2.76699e-05
2.29221e-05
1.61915e-05
9.98876e-06
5.7822e-06
3.31464e-06
1.98698e-06
1.37748e-06
1.24338e-06
1.39021e-06
1.71005e-06
2.35245e-06
4.26714e-06
7.46811e-06
1.86096e-06
1.50321e-07
8.67069e-10
1.10277e-06
1.44973e-06
1.59946e-06
1.8113e-06
2.16934e-06
2.73031e-06
3.55853e-06
4.73196e-06
6.35449e-06
8.55105e-06
1.13873e-05
1.47205e-05
1.81638e-05
2.13126e-05
2.39505e-05
2.59876e-05
2.73036e-05
2.76492e-05
2.64197e-05
2.25527e-05
1.60689e-05
9.67201e-06
5.36515e-06
2.95737e-06
1.78235e-06
1.36846e-06
1.42081e-06
1.67603e-06
2.05693e-06
2.8372e-06
5.33257e-06
6.59469e-06
1.78413e-06
1.41949e-07
1.38371e-09
7.12933e-07
1.17796e-06
1.434e-06
1.68219e-06
2.0501e-06
2.61998e-06
3.47111e-06
4.70215e-06
6.44143e-06
8.81423e-06
1.18188e-05
1.51808e-05
1.84475e-05
2.13016e-05
2.36641e-05
2.55405e-05
2.68682e-05
2.7439e-05
2.67243e-05
2.36155e-05
1.74307e-05
1.04926e-05
5.58912e-06
2.87742e-06
1.61883e-06
1.27661e-06
1.51129e-06
1.95272e-06
2.49822e-06
3.56095e-06
6.83086e-06
5.71079e-06
1.71219e-06
1.28146e-07
1.90534e-09
5.55454e-07
1.06267e-06
1.46715e-06
1.87976e-06
2.43144e-06
3.22034e-06
4.34697e-06
5.94212e-06
8.15008e-06
1.1015e-05
1.43073e-05
1.75751e-05
2.04956e-05
2.30094e-05
2.51563e-05
2.69351e-05
2.82497e-05
2.88797e-05
2.83721e-05
2.57722e-05
2.00782e-05
1.26991e-05
6.80772e-06
3.33885e-06
1.65064e-06
1.11219e-06
1.35988e-06
2.00391e-06
2.81855e-06
4.22708e-06
7.93677e-06
5.296e-06
1.6806e-06
1.1729e-07
2.18247e-09
6.03259e-07
1.20375e-06
1.78068e-06
2.39789e-06
3.1714e-06
4.21643e-06
5.66599e-06
7.66148e-06
1.02508e-05
1.32411e-05
1.6261e-05
1.90684e-05
2.16446e-05
2.40224e-05
2.61833e-05
2.80451e-05
2.94578e-05
3.01862e-05
2.98616e-05
2.78012e-05
2.31432e-05
1.62646e-05
9.55449e-06
4.86596e-06
2.2544e-06
1.12139e-06
1.01741e-06
1.62455e-06
2.69725e-06
4.47139e-06
8.31937e-06
5.31606e-06
1.70439e-06
1.14006e-07
2.49301e-09
7.55538e-07
1.45414e-06
2.13015e-06
2.86532e-06
3.77842e-06
4.9942e-06
6.63701e-06
8.77163e-06
1.13037e-05
1.4e-05
1.66555e-05
1.91884e-05
2.15858e-05
2.38236e-05
2.58482e-05
2.75755e-05
2.88816e-05
2.95916e-05
2.94498e-05
2.80309e-05
2.4785e-05
1.96064e-05
1.34551e-05
7.89553e-06
3.97262e-06
1.78746e-06
9.42171e-07
1.07567e-06
1.97347e-06
3.81413e-06
7.77596e-06
5.64863e-06
1.77501e-06
1.19181e-07
2.97236e-09
8.72499e-07
1.61045e-06
2.31941e-06
3.10826e-06
4.10093e-06
5.4223e-06
7.17734e-06
9.39193e-06
1.19586e-05
1.46718e-05
1.73449e-05
1.98739e-05
2.22031e-05
2.42863e-05
2.60743e-05
2.75034e-05
2.84835e-05
2.88865e-05
2.85447e-05
2.72032e-05
2.45481e-05
2.06398e-05
1.60356e-05
1.13033e-05
6.91384e-06
3.5487e-06
1.6184e-06
9.57869e-07
1.24863e-06
2.5418e-06
5.98476e-06
6.19588e-06
1.86355e-06
1.32672e-07
3.55414e-09
8.90167e-07
1.63004e-06
2.37781e-06
3.25072e-06
4.37932e-06
5.88562e-06
7.84185e-06
1.02164e-05
1.28716e-05
1.5636e-05
1.83696e-05
2.09644e-05
2.33286e-05
2.53899e-05
2.70949e-05
2.83916e-05
2.9216e-05
2.94726e-05
2.90135e-05
2.75725e-05
2.48436e-05
2.09553e-05
1.66639e-05
1.27347e-05
9.23903e-06
5.93404e-06
3.17788e-06
1.58611e-06
1.1291e-06
1.68178e-06
3.9462e-06
6.98548e-06
1.94789e-06
1.52627e-07
4.21091e-09
8.47444e-07
1.58781e-06
2.41998e-06
3.46094e-06
4.82614e-06
6.58526e-06
8.72325e-06
1.11504e-05
1.37582e-05
1.64498e-05
1.91249e-05
2.16719e-05
2.39864e-05
2.5988e-05
2.76165e-05
2.88131e-05
2.95093e-05
2.96178e-05
2.90087e-05
2.74539e-05
2.47172e-05
2.09466e-05
1.68668e-05
1.32356e-05
1.02373e-05
7.52469e-06
4.85479e-06
2.69267e-06
1.56107e-06
1.49149e-06
2.85538e-06
7.69777e-06
2.03145e-06
1.75685e-07
5.04428e-09
8.1608e-07
1.59332e-06
2.56417e-06
3.82305e-06
5.41866e-06
7.32949e-06
9.49137e-06
1.18492e-05
1.43632e-05
1.69734e-05
1.9582e-05
2.20744e-05
2.43491e-05
2.63289e-05
2.79517e-05
2.91441e-05
2.98086e-05
2.98122e-05
2.89482e-05
2.68863e-05
2.34354e-05
1.91413e-05
1.51416e-05
1.21219e-05
9.95063e-06
8.07887e-06
6.00553e-06
3.83177e-06
2.26342e-06
1.72976e-06
2.59772e-06
7.97936e-06
2.09758e-06
1.96178e-07
6.16948e-09
8.29531e-07
1.67657e-06
2.77901e-06
4.17547e-06
5.84002e-06
7.72175e-06
9.79792e-06
1.20748e-05
1.45411e-05
1.71328e-05
1.97426e-05
2.22561e-05
2.45758e-05
2.66231e-05
2.83232e-05
2.95805e-05
3.02565e-05
3.01517e-05
2.89457e-05
2.61643e-05
2.17295e-05
1.67755e-05
1.28051e-05
1.02852e-05
8.81825e-06
7.74217e-06
6.41709e-06
4.62162e-06
2.95802e-06
2.17539e-06
2.87867e-06
8.47524e-06
2.11105e-06
2.08328e-07
7.51052e-09
8.49646e-07
1.74383e-06
2.89805e-06
4.30681e-06
5.93437e-06
7.76875e-06
9.83298e-06
1.21443e-05
1.46671e-05
1.73068e-05
1.99457e-05
2.2481e-05
2.4834e-05
2.69371e-05
2.87113e-05
3.00411e-05
3.0734e-05
3.04736e-05
2.87125e-05
2.47631e-05
1.90249e-05
1.36265e-05
1.00669e-05
8.24796e-06
7.50103e-06
7.11525e-06
6.39333e-06
5.00111e-06
3.49232e-06
2.73502e-06
3.70235e-06
8.63075e-06
2.03401e-06
2.04081e-07
8.80009e-09
8.44231e-07
1.75033e-06
2.9194e-06
4.33849e-06
5.98999e-06
7.8827e-06
1.00373e-05
1.24446e-05
1.50386e-05
1.77136e-05
2.03641e-05
2.29076e-05
2.52805e-05
2.74212e-05
2.92468e-05
3.0622e-05
3.13029e-05
3.08302e-05
2.83562e-05
2.30491e-05
1.62131e-05
1.07711e-05
7.70637e-06
6.44602e-06
6.24699e-06
6.40543e-06
6.15112e-06
5.16696e-06
4.00551e-06
3.58785e-06
5.43031e-06
7.06782e-06
1.90007e-06
1.84409e-07
9.92185e-09
8.40242e-07
1.76514e-06
2.97177e-06
4.43944e-06
6.14731e-06
8.10058e-06
1.03161e-05
1.27824e-05
1.54342e-05
1.81672e-05
2.08751e-05
2.34693e-05
2.58773e-05
2.80285e-05
2.9831e-05
3.11377e-05
3.16768e-05
3.09185e-05
2.7876e-05
2.17656e-05
1.44441e-05
9.00537e-06
6.10672e-06
5.04417e-06
5.12004e-06
5.65833e-06
5.84307e-06
5.34445e-06
4.67458e-06
4.85982e-06
8.00653e-06
5.74711e-06
1.79168e-06
1.62549e-07
1.06952e-08
8.43839e-07
1.78348e-06
3.00431e-06
4.47465e-06
6.1802e-06
8.14861e-06
1.04194e-05
1.29849e-05
1.57594e-05
1.86077e-05
2.13986e-05
2.40307e-05
2.64273e-05
2.85165e-05
3.02082e-05
3.13614e-05
3.17254e-05
3.08272e-05
2.78197e-05
2.19308e-05
1.45483e-05
8.6884e-06
5.37511e-06
4.03846e-06
4.02285e-06
4.7443e-06
5.41691e-06
5.54449e-06
5.48546e-06
6.38994e-06
1.00579e-05
5.22695e-06
1.7461e-06
1.49271e-07
1.09729e-08
8.30952e-07
1.75228e-06
2.94477e-06
4.39286e-06
6.11336e-06
8.1553e-06
1.05516e-05
1.32602e-05
1.61513e-05
1.90616e-05
2.1855e-05
2.44393e-05
2.67508e-05
2.87312e-05
3.03059e-05
3.13579e-05
3.1685e-05
3.09313e-05
2.84619e-05
2.34911e-05
1.64756e-05
9.94174e-06
5.71064e-06
3.65985e-06
3.15336e-06
3.69171e-06
4.64737e-06
5.4325e-06
6.08423e-06
7.65678e-06
1.10133e-05
5.22796e-06
1.76919e-06
1.47004e-07
1.0956e-08
8.04236e-07
1.70031e-06
2.88517e-06
4.36864e-06
6.17909e-06
8.35088e-06
1.0882e-05
1.36911e-05
1.6624e-05
1.95162e-05
2.22442e-05
2.47317e-05
2.69286e-05
2.879e-05
3.02582e-05
3.12434e-05
3.15958e-05
3.10545e-05
2.91631e-05
2.52492e-05
1.91412e-05
1.23641e-05
7.10582e-06
4.0593e-06
2.79287e-06
2.81429e-06
3.63147e-06
4.79234e-06
6.11179e-06
8.2903e-06
1.15009e-05
5.49672e-06
1.83926e-06
1.53155e-07
1.09205e-08
7.92248e-07
1.69188e-06
2.91376e-06
4.4735e-06
6.38549e-06
8.65933e-06
1.12703e-05
1.41236e-05
1.7064e-05
1.99357e-05
2.26257e-05
2.50658e-05
2.72132e-05
2.90306e-05
3.04716e-05
3.14657e-05
3.19009e-05
3.1584e-05
3.0165e-05
2.70757e-05
2.18876e-05
1.5313e-05
9.30257e-06
5.22075e-06
3.08144e-06
2.42207e-06
2.77647e-06
3.82473e-06
5.42515e-06
8.04716e-06
1.16762e-05
5.8628e-06
1.92594e-06
1.64149e-07
1.1048e-08
8.0598e-07
1.73194e-06
2.9974e-06
4.60912e-06
6.56781e-06
8.87759e-06
1.15182e-05
1.44005e-05
1.73712e-05
2.02734e-05
2.29921e-05
2.54577e-05
2.7628e-05
2.94693e-05
3.09418e-05
3.19869e-05
3.25148e-05
3.23738e-05
3.12713e-05
2.87031e-05
2.41632e-05
1.79265e-05
1.15585e-05
6.69365e-06
3.78278e-06
2.48981e-06
2.34286e-06
3.03338e-06
4.50173e-06
7.23451e-06
1.15458e-05
6.17239e-06
1.99765e-06
1.75888e-07
1.12301e-08
8.21967e-07
1.7661e-06
3.04845e-06
4.66989e-06
6.63345e-06
8.95523e-06
1.16252e-05
1.45513e-05
1.75698e-05
2.05154e-05
2.32723e-05
2.5774e-05
2.79825e-05
2.98681e-05
3.13966e-05
3.25174e-05
3.31575e-05
3.31946e-05
3.23815e-05
3.0254e-05
2.62413e-05
2.03029e-05
1.36821e-05
8.17463e-06
4.60796e-06
2.79138e-06
2.2339e-06
2.56811e-06
3.74605e-06
6.312e-06
1.12029e-05
6.35869e-06
2.0391e-06
1.84998e-07
1.15192e-08
8.37239e-07
1.7973e-06
3.09484e-06
4.73282e-06
6.72426e-06
9.09323e-06
1.18235e-05
1.48053e-05
1.78616e-05
2.08281e-05
2.35978e-05
2.61127e-05
2.83402e-05
3.02529e-05
3.1816e-05
3.2982e-05
3.36852e-05
3.38086e-05
3.3131e-05
3.12503e-05
2.76182e-05
2.20264e-05
1.53873e-05
9.45774e-06
5.37073e-06
3.13906e-06
2.28125e-06
2.35529e-06
3.28295e-06
5.63264e-06
1.08667e-05
6.4001e-06
2.05067e-06
1.89376e-07
1.18641e-08
8.54295e-07
1.83046e-06
3.14154e-06
4.79539e-06
6.81476e-06
9.22697e-06
1.2009e-05
1.50407e-05
1.81407e-05
2.11463e-05
2.39539e-05
2.65089e-05
2.87803e-05
3.07407e-05
3.23527e-05
3.35707e-05
3.43302e-05
3.45019e-05
3.3877e-05
3.21079e-05
2.87114e-05
2.34139e-05
1.68504e-05
1.0624e-05
6.08121e-06
3.47041e-06
2.36102e-06
2.2487e-06
3.00505e-06
5.19252e-06
1.06174e-05
6.33621e-06
2.04224e-06
1.89434e-07
1.21811e-08
8.66016e-07
1.8471e-06
3.15641e-06
4.81114e-06
6.84438e-06
9.28871e-06
1.21191e-05
1.52058e-05
1.83567e-05
2.14055e-05
2.42526e-05
2.68498e-05
2.91714e-05
3.1191e-05
3.28738e-05
3.41742e-05
3.50086e-05
3.52239e-05
3.46098e-05
3.28696e-05
2.96301e-05
2.46473e-05
1.83148e-05
1.19328e-05
6.94071e-06
3.8884e-06
2.47829e-06
2.17221e-06
2.78519e-06
4.83675e-06
1.03377e-05
6.25507e-06
2.02937e-06
1.87363e-07
1.23828e-08
8.67792e-07
1.84308e-06
3.14467e-06
4.80179e-06
6.85547e-06
9.33921e-06
1.22173e-05
1.53402e-05
1.85037e-05
2.15471e-05
2.43867e-05
2.69907e-05
2.93445e-05
3.14264e-05
3.32064e-05
3.46381e-05
3.56102e-05
3.59405e-05
3.53998e-05
3.3717e-05
3.06197e-05
2.59439e-05
1.99411e-05
1.35574e-05
8.14213e-06
4.5461e-06
2.71746e-06
2.1328e-06
2.54972e-06
4.4081e-06
9.8367e-06
6.22726e-06
2.02263e-06
1.85641e-07
1.25198e-08
8.66045e-07
1.83459e-06
3.13478e-06
4.80778e-06
6.89803e-06
9.42926e-06
1.23401e-05
1.54528e-05
1.85586e-05
2.152e-05
2.42849e-05
2.68479e-05
2.92104e-05
3.13608e-05
3.32739e-05
3.48899e-05
3.60705e-05
3.66013e-05
3.62211e-05
3.46522e-05
3.16921e-05
2.72974e-05
2.16882e-05
1.54991e-05
9.79925e-06
5.60489e-06
3.21567e-06
2.2221e-06
2.32874e-06
3.85362e-06
8.93718e-06
6.28432e-06
2.02304e-06
1.85316e-07
1.2705e-08
8.66053e-07
1.83549e-06
3.15236e-06
4.86915e-06
7.02693e-06
9.62208e-06
1.25481e-05
1.55973e-05
1.85756e-05
2.13911e-05
2.40371e-05
2.65402e-05
2.89187e-05
3.11738e-05
3.32859e-05
3.51732e-05
3.66702e-05
3.75273e-05
3.74343e-05
3.60598e-05
3.31949e-05
2.8908e-05
2.35177e-05
1.7554e-05
1.1775e-05
7.09114e-06
4.07912e-06
2.56359e-06
2.25172e-06
3.31369e-06
7.69054e-06
6.42931e-06
2.02379e-06
1.86162e-07
1.31594e-08
8.82449e-07
1.87836e-06
3.25093e-06
5.06172e-06
7.33563e-06
1.00132e-05
1.29237e-05
1.58464e-05
1.8637e-05
2.12684e-05
2.37804e-05
2.62242e-05
2.86282e-05
3.10029e-05
3.33361e-05
3.5531e-05
3.74029e-05
3.86734e-05
3.89849e-05
3.79313e-05
3.52283e-05
3.09501e-05
2.55692e-05
1.96802e-05
1.38933e-05
8.89913e-06
5.32207e-06
3.23366e-06
2.44198e-06
3.00133e-06
6.49139e-06
6.71712e-06
2.02929e-06
1.86871e-07
1.4079e-08
9.26793e-07
1.97886e-06
3.44151e-06
5.38311e-06
7.79561e-06
1.05371e-05
1.33789e-05
1.61309e-05
1.87262e-05
2.11975e-05
2.36134e-05
2.60344e-05
2.84929e-05
3.10033e-05
3.35519e-05
3.60371e-05
3.82622e-05
3.99265e-05
4.0631e-05
3.99013e-05
3.73745e-05
3.30942e-05
2.76093e-05
2.16779e-05
1.59048e-05
1.07923e-05
6.82309e-06
4.21531e-06
2.94639e-06
3.05018e-06
5.79774e-06
7.2263e-06
2.05717e-06
1.86621e-07
1.53736e-08
9.80495e-07
2.09175e-06
3.64506e-06
5.71296e-06
8.23807e-06
1.09923e-05
1.37263e-05
1.63116e-05
1.87477e-05
2.11017e-05
2.34552e-05
2.58734e-05
2.83926e-05
3.10321e-05
3.37805e-05
3.65396e-05
3.91013e-05
4.11397e-05
4.22091e-05
4.17622e-05
3.93619e-05
3.50349e-05
2.94055e-05
2.33567e-05
1.75867e-05
1.25002e-05
8.36183e-06
5.3911e-06
3.71874e-06
3.46198e-06
5.7593e-06
8.01821e-06
2.12923e-06
1.85005e-07
1.67436e-08
1.01981e-06
2.17445e-06
3.80372e-06
5.97743e-06
8.57665e-06
1.13036e-05
1.39204e-05
1.63557e-05
1.86479e-05
2.08824e-05
2.31523e-05
2.5533e-05
2.80683e-05
3.07852e-05
3.36835e-05
3.66721e-05
3.95409e-05
4.19391e-05
4.33676e-05
4.3197e-05
4.09119e-05
3.65266e-05
3.07452e-05
2.45722e-05
1.87912e-05
1.37985e-05
9.6941e-06
6.58601e-06
4.66507e-06
4.1868e-06
6.34824e-06
8.97402e-06
2.24279e-06
1.82707e-07
1.79379e-08
1.03962e-06
2.22059e-06
3.90789e-06
6.16001e-06
8.79653e-06
1.14712e-05
1.3965e-05
1.6243e-05
1.83689e-05
2.04484e-05
2.25941e-05
2.4897e-05
2.7407e-05
3.0153e-05
3.31407e-05
3.62847e-05
3.93806e-05
4.20633e-05
4.37925e-05
4.38699e-05
4.17182e-05
3.735e-05
3.15321e-05
2.53456e-05
1.96229e-05
1.47464e-05
1.07519e-05
7.6673e-06
5.66684e-06
5.12811e-06
7.4207e-06
9.89577e-06
2.379e-06
1.80817e-07
1.86966e-08
1.03708e-06
2.22274e-06
3.93986e-06
6.24211e-06
8.91123e-06
1.15523e-05
1.39322e-05
1.6035e-05
1.79607e-05
1.98563e-05
2.18679e-05
2.4102e-05
2.66046e-05
2.93912e-05
3.24589e-05
3.57173e-05
3.89646e-05
4.18264e-05
4.37326e-05
4.39338e-05
4.18177e-05
3.74284e-05
3.16127e-05
2.55113e-05
1.99636e-05
1.5303e-05
1.15162e-05
8.58516e-06
6.66159e-06
6.2274e-06
8.86842e-06
1.05355e-05
2.50594e-06
1.80215e-07
1.9173e-08
1.02301e-06
2.20712e-06
3.95537e-06
6.3393e-06
9.10795e-06
1.17613e-05
1.4015e-05
1.58968e-05
1.75842e-05
1.92942e-05
2.12147e-05
2.34574e-05
2.60453e-05
2.8958e-05
3.21636e-05
3.55535e-05
3.89223e-05
4.18887e-05
4.38631e-05
4.40635e-05
4.18678e-05
3.73723e-05
3.15101e-05
2.54715e-05
2.00832e-05
1.56263e-05
1.20595e-05
9.3338e-06
7.58987e-06
7.39363e-06
1.05042e-05
1.08827e-05
2.61034e-06
1.81635e-07
1.9921e-08
1.02477e-06
2.23737e-06
4.07562e-06
6.63557e-06
9.57362e-06
1.22085e-05
1.42446e-05
1.58291e-05
1.72522e-05
1.88066e-05
2.07142e-05
2.30781e-05
2.58826e-05
2.90512e-05
3.24995e-05
3.60811e-05
3.9565e-05
4.25615e-05
4.44606e-05
4.44681e-05
4.19985e-05
3.72513e-05
3.1265e-05
2.52629e-05
2.00274e-05
1.57791e-05
1.24476e-05
9.9599e-06
8.45603e-06
8.59192e-06
1.22125e-05
1.09604e-05
2.68291e-06
1.85028e-07
2.12489e-08
1.05807e-06
2.3436e-06
4.34347e-06
7.15629e-06
1.02447e-05
1.273e-05
1.44283e-05
1.56606e-05
1.68202e-05
1.82519e-05
2.01918e-05
2.27291e-05
2.5815e-05
2.93192e-05
3.30958e-05
3.69477e-05
4.05959e-05
4.36211e-05
4.53861e-05
4.51049e-05
4.22714e-05
3.72149e-05
3.1066e-05
2.50546e-05
1.9915e-05
1.58321e-05
1.27162e-05
1.04733e-05
9.24582e-06
9.76478e-06
1.38433e-05
1.08785e-05
2.72914e-06
1.90009e-07
2.30262e-08
1.11551e-06
2.50248e-06
4.70766e-06
7.80156e-06
1.09638e-05
1.31767e-05
1.44779e-05
1.53603e-05
1.6292e-05
1.76391e-05
1.9626e-05
2.23201e-05
2.56498e-05
2.94533e-05
3.35437e-05
3.76833e-05
4.15366e-05
4.46205e-05
4.62501e-05
4.56478e-05
4.24227e-05
3.70657e-05
3.07856e-05
2.47828e-05
1.97344e-05
1.58056e-05
1.28982e-05
1.09074e-05
9.98426e-06
1.09231e-05
1.5352e-05
1.06783e-05
2.75287e-06
1.95944e-07
2.4832e-08
1.17388e-06
2.66247e-06
5.08429e-06
8.46874e-06
1.1653e-05
1.3534e-05
1.44244e-05
1.49824e-05
1.57383e-05
1.7053e-05
1.91117e-05
2.19423e-05
2.54459e-05
2.94446e-05
3.37403e-05
3.80833e-05
4.21054e-05
4.52641e-05
4.68183e-05
4.59787e-05
4.24501e-05
3.68632e-05
3.04859e-05
2.44868e-05
1.9509e-05
1.57136e-05
1.30017e-05
1.12634e-05
1.06647e-05
1.20459e-05
1.66646e-05
1.04302e-05
2.76229e-06
2.02432e-07
2.63124e-08
1.21776e-06
2.79499e-06
5.43331e-06
9.12213e-06
1.22956e-05
1.37869e-05
1.42241e-05
1.44458e-05
1.50408e-05
1.63476e-05
1.84997e-05
2.14737e-05
2.51311e-05
2.92716e-05
3.36914e-05
3.81395e-05
4.22391e-05
4.5421e-05
4.69165e-05
4.59356e-05
4.22474e-05
3.65589e-05
3.01518e-05
2.41665e-05
1.92426e-05
1.55598e-05
1.30309e-05
1.1548e-05
1.12938e-05
1.31318e-05
1.77559e-05
1.01533e-05
2.76169e-06
2.09177e-07
2.7664e-08
1.25811e-06
2.92426e-06
5.79203e-06
9.79574e-06
1.28769e-05
1.38797e-05
1.38193e-05
1.37094e-05
1.41559e-05
1.54494e-05
1.76798e-05
2.07926e-05
2.46181e-05
2.89256e-05
3.34891e-05
3.80407e-05
4.21925e-05
4.53673e-05
4.6805e-05
4.57473e-05
4.20127e-05
3.6324e-05
2.99282e-05
2.39416e-05
1.9026e-05
1.54018e-05
1.30104e-05
1.17557e-05
1.18362e-05
1.41078e-05
1.85766e-05
9.90014e-06
2.7584e-06
2.16337e-07
2.9341e-08