/*--------------------------------*- C++ -*----------------------------------*\
| =========                 |                                                 |
| \\      /  F ield         | OpenFOAM: The Open Source CFD Toolbox           |
|  \\    /   O peration     | Version:  v1906                                 |
|   \\  /    A nd           | Web:      www.OpenFOAM.com                      |
|    \\/     M anipulation  |                                                 |
\*---------------------------------------------------------------------------*/
FoamFile
{
    version     2.0;
    format      ascii;
    class       surfaceScalarField;
    location    "51.2/oil";
    object      phi;
}
// * * * * * * * * * * * * * * * * * * * * * * * * * * * * * * * * * * * * * //

dimensions      [1 0 -1 0 0 0 0];
oriented        oriented;


internalField   nonuniform List<scalar> 
80688
(
-2.25347e-06
-2.29218e-06
-2.25347e-06
-1.01734e-06
-6.39385e-07
-5.96748e-07
-2.75582e-07
-3.73561e-07
-3.68193e-07
-1.33838e-07
-7.15016e-08
-7.02424e-08
-5.11454e-08
-4.19335e-08
-4.07591e-08
-1.1233e-08
-2.05136e-08
-1.93989e-08
1.00636e-08
-1.11428e-08
-1.01539e-08
2.16371e-08
-6.25145e-09
-5.32221e-09
2.73604e-08
-3.3647e-09
-2.3586e-09
2.89294e-08
-1.39891e-09
-1.70157e-10
2.72278e-08
9.10654e-11
1.61052e-09
2.28228e-08
1.28678e-09
3.11816e-09
1.62803e-08
2.20415e-09
4.33828e-09
8.22499e-09
2.84307e-09
5.21223e-09
-6.41789e-10
3.1847e-09
5.68206e-09
-9.5782e-09
3.21877e-09
5.71762e-09
-1.78579e-08
2.95312e-09
5.32659e-09
-2.48328e-08
2.41693e-09
4.55787e-09
-2.99924e-08
1.66022e-09
3.49942e-09
-3.30002e-08
7.42058e-10
2.26569e-09
-3.37265e-08
-2.62088e-10
9.88384e-10
-3.22529e-08
-1.26686e-09
-2.0677e-10
-2.88261e-08
-2.21822e-09
-1.20857e-09
-2.38874e-08
-3.04929e-09
-1.88951e-09
-1.80186e-08
-3.68708e-09
-2.18168e-09
-1.19215e-08
-4.04232e-09
-2.05483e-09
-6.38217e-09
-3.99077e-09
-1.54858e-09
-2.20195e-09
-3.36672e-09
-8.13524e-10
-3.92154e-11
-1.98412e-09
-1.78643e-10
-8.51029e-11
4.58682e-11
-6.06417e-07
-1.07935e-06
-6.06414e-07
-3.61905e-07
-3.97585e-07
-4.86313e-07
-2.56202e-07
-2.71086e-07
-2.08177e-07
-1.21098e-07
-1.22999e-07
-8.36071e-08
-4.30064e-08
-7.79307e-08
-4.20945e-08
3.56175e-09
-5.02832e-08
-1.67986e-08
3.25393e-08
-3.66463e-08
-3.47412e-09
4.99306e-08
-2.83931e-08
4.75037e-09
5.88026e-08
-2.28314e-08
1.05946e-08
6.06676e-08
-1.8571e-08
1.53071e-08
5.64685e-08
-1.50688e-08
1.93589e-08
4.70679e-08
-1.21568e-08
2.28442e-08
3.34501e-08
-9.84248e-09
2.56644e-08
1.68166e-08
-8.20433e-09
2.76808e-08
-1.44378e-09
-7.31806e-09
2.87631e-08
-1.98425e-08
-7.22465e-09
2.88421e-08
-3.69162e-08
-7.90597e-09
2.79327e-08
-5.13595e-08
-9.27867e-09
2.61389e-08
-6.21425e-08
-1.12019e-08
2.36451e-08
-6.85959e-08
-1.34905e-08
2.06859e-08
-7.04568e-08
-1.59364e-08
1.75352e-08
-6.78638e-08
-1.83187e-08
1.44588e-08
-6.13517e-08
-2.04204e-08
1.16901e-08
-5.17866e-08
-2.20237e-08
9.40929e-09
-4.03078e-08
-2.28914e-08
7.72553e-09
-2.82469e-08
-2.27423e-08
6.63893e-09
-1.70202e-08
-2.1221e-08
6.0036e-09
-7.97094e-09
-1.7888e-08
5.47199e-09
-2.13032e-09
-1.2248e-08
4.4232e-09
-4.35383e-09
2.13839e-09
-3.76883e-07
-3.25588e-07
-3.7688e-07
-2.49574e-07
-3.1285e-07
-2.12044e-07
-1.62511e-07
-2.28557e-07
-1.29592e-07
-7.60842e-08
-1.47269e-07
-6.21565e-08
-1.66944e-08
-1.10716e-07
-2.66043e-08
2.51315e-08
-8.74512e-08
-4.65783e-09
5.37068e-08
-7.39032e-08
8.68156e-09
7.18623e-08
-6.4506e-08
1.79573e-08
8.10684e-08
-5.72629e-08
2.52253e-08
8.21534e-08
-5.11133e-08
3.14572e-08
7.58125e-08
-4.5705e-08
3.69771e-08
6.28942e-08
-4.10193e-08
4.17807e-08
4.4572e-08
-3.72072e-08
4.56868e-08
2.23528e-08
-3.44693e-08
4.84841e-08
-1.97083e-09
-3.29777e-08
4.99832e-08
-2.64635e-08
-3.28197e-08
5.00877e-08
-4.92155e-08
-3.39684e-08
4.88144e-08
-6.85184e-08
-3.62758e-08
4.63e-08
-8.30306e-08
-3.94814e-08
4.27916e-08
-9.18762e-08
-4.32471e-08
3.86022e-08
-9.47196e-08
-4.71833e-08
3.40903e-08
-9.17494e-08
-5.08799e-08
2.9591e-08
-8.36546e-08
-5.3924e-08
2.54087e-08
-7.15366e-08
-5.58949e-08
2.17532e-08
-5.68204e-08
-5.63421e-08
1.87344e-08
-4.11342e-08
-5.47468e-08
1.63183e-08
-2.61543e-08
-5.04837e-08
1.42827e-08
-1.34344e-08
-4.277e-08
1.21621e-08
-4.25796e-09
-3.06021e-08
9.17767e-09
-1.28782e-08
4.26642e-09
-7.09571e-08
-1.83678e-07
-7.09531e-08
-9.16987e-08
-2.10579e-07
-8.15296e-08
-6.67773e-08
-1.93324e-07
-6.0155e-08
-2.31981e-08
-1.62695e-07
-2.8153e-08
1.65156e-08
-1.44126e-07
-6.3035e-09
4.95157e-08
-1.29946e-07
9.49453e-09
7.44029e-08
-1.19709e-07
2.09181e-08
9.09845e-08
-1.11107e-07
3.00194e-08
9.91316e-08
-1.03304e-07
3.78938e-08
9.88647e-08
-9.59032e-08
4.50567e-08
9.04946e-08
-8.89324e-08
5.15975e-08
7.47492e-08
-8.26466e-08
5.73727e-08
5.28513e-08
-7.74134e-08
6.21041e-08
2.64878e-08
-7.36089e-08
6.55031e-08
-2.29033e-09
-7.15236e-08
6.73241e-08
-3.12406e-08
-7.13094e-08
6.74399e-08
-5.81425e-08
-7.29342e-08
6.58677e-08
-8.10119e-08
-7.61791e-08
6.27727e-08
-9.8286e-08
-8.06565e-08
5.84492e-08
-1.08961e-07
-8.58492e-08
5.32766e-08
-1.12649e-07
-9.11666e-08
4.76715e-08
-1.0958e-07
-9.59847e-08
4.20361e-08
-1.00537e-07
-9.96764e-08
3.67091e-08
-8.67651e-08
-1.01591e-07
3.19248e-08
-6.98446e-08
-1.01054e-07
2.77911e-08
-5.15501e-08
-9.72897e-08
2.42485e-08
-3.36975e-08
-8.93659e-08
2.10296e-08
-1.79869e-08
-7.60749e-08
1.75942e-08
-6.00905e-09
-5.56275e-08
1.30476e-08
-2.4906e-08
6.01866e-09
-3.46665e-08
-1.1435e-07
-3.46615e-08
-3.78303e-08
-1.72025e-07
-3.53905e-08
-1.89088e-08
-1.89838e-07
-2.24075e-08
1.14949e-08
-1.88295e-07
-4.80433e-09
4.24326e-08
-1.8458e-07
9.51597e-09
7.02059e-08
-1.79023e-07
2.13041e-08
9.22783e-08
-1.72931e-07
3.11499e-08
1.07246e-07
-1.66023e-07
3.9948e-08
1.14158e-07
-1.58414e-07
4.81981e-08
1.12521e-07
-1.50339e-07
5.60731e-08
1.02351e-07
-1.42225e-07
6.34627e-08
8.42637e-08
-1.34638e-07
7.00783e-08
5.94915e-08
-1.2819e-07
7.55488e-08
2.98388e-08
-1.23446e-07
7.94902e-08
-2.4488e-09
-1.20837e-07
8.16015e-08
-3.48967e-08
-1.20582e-07
8.17207e-08
-6.50423e-08
-1.22649e-07
7.98605e-08
-9.06883e-08
-1.26749e-07
7.62157e-08
-1.10111e-07
-1.32364e-07
7.11304e-08
-1.22213e-07
-1.38798e-07
6.50501e-08
-1.2658e-07
-1.45259e-07
5.84597e-08
-1.23472e-07
-1.50907e-07
5.18144e-08
-1.13749e-07
-1.54885e-07
4.54852e-08
-9.87476e-08
-1.56329e-07
3.97367e-08
-8.01466e-08
-1.5433e-07
3.46754e-08
-5.9815e-08
-1.47848e-07
3.02267e-08
-3.96623e-08
-1.3561e-07
2.6091e-08
-2.15381e-08
-1.15866e-07
2.16672e-08
-7.33768e-09
-8.57899e-08
1.59619e-08
-3.95926e-08
7.34899e-09
-1.03801e-08
-9.35964e-08
-1.03738e-08
-5.34282e-09
-1.69225e-07
-7.8367e-09
1.14046e-08
-2.07025e-07
4.39879e-10
3.60171e-08
-2.23994e-07
1.10867e-08
6.2369e-08
-2.32014e-07
2.10818e-08
8.69819e-08
-2.34023e-07
3.03867e-08
1.07089e-07
-2.32229e-07
3.91908e-08
1.20754e-07
-2.27521e-07
4.78328e-08
1.26584e-07
-2.20707e-07
5.64629e-08
1.23755e-07
-2.12529e-07
6.50193e-08
1.12078e-07
-2.03779e-07
7.32308e-08
9.20696e-08
-1.9531e-07
8.06808e-08
6.49567e-08
-1.87968e-07
8.68905e-08
3.26391e-08
-1.82509e-07
9.13806e-08
-2.48404e-09
-1.79496e-07
9.37813e-08
-3.77451e-08
-1.79217e-07
9.38961e-08
-7.0485e-08
-1.81645e-07
9.17359e-08
-9.83278e-08
-1.86427e-07
8.75209e-08
-1.19425e-07
-1.92922e-07
8.16546e-08
-1.32613e-07
-2.00269e-07
7.46592e-08
-1.3747e-07
-2.07494e-07
6.70923e-08
-1.34291e-07
-2.13547e-07
5.94611e-08
-1.24002e-07
-2.17376e-07
5.2202e-08
-1.08012e-07
-2.17906e-07
4.5587e-08
-8.80745e-08
-2.13999e-07
3.9731e-08
-6.6125e-08
-2.04345e-07
3.45477e-08
-4.41615e-08
-1.87286e-07
2.97132e-08
-2.41642e-08
-1.6044e-07
2.45764e-08
-8.29258e-09
-1.19711e-07
1.80489e-08
-5.6191e-08
8.30571e-09
4.06836e-11
-9.36851e-08
4.80033e-11
1.02774e-08
-1.85342e-07
5.87982e-09
2.82644e-08
-2.3801e-07
1.29982e-08
5.15222e-08
-2.68169e-07
2.09173e-08
7.61937e-08
-2.85525e-07
2.88401e-08
9.93521e-08
-2.94062e-07
3.68805e-08
1.18386e-07
-2.96454e-07
4.5191e-08
1.31223e-07
-2.94264e-07
5.39062e-08
1.36288e-07
-2.88774e-07
6.30018e-08
1.32568e-07
-2.81081e-07
7.22717e-08
1.19739e-07
-2.72276e-07
8.13256e-08
9.82446e-08
-2.63449e-07
8.9633e-08
6.93152e-08
-2.55638e-07
9.66002e-08
3.49115e-08
-2.49766e-07
1.0166e-07
-2.43228e-09
-2.46515e-07
1.04363e-07
-3.98889e-08
-2.46231e-07
1.0447e-07
-7.46348e-08
-2.48888e-07
1.01989e-07
-1.04148e-07
-2.54088e-07
9.7175e-08
-1.26484e-07
-2.61087e-07
9.05014e-08
-1.40432e-07
-2.68886e-07
8.25652e-08
-1.45581e-07
-2.76352e-07
7.40063e-08
-1.4227e-07
-2.82273e-07
6.54148e-08
-1.3149e-07
-2.85418e-07
5.7262e-08
-1.14711e-07
-2.84535e-07
4.98501e-08
-9.3746e-08
-2.78266e-07
4.33022e-08
-7.05865e-08
-2.65024e-07
3.7519e-08
-4.72961e-08
-2.4273e-07
3.21535e-08
-2.59627e-08
-2.0829e-07
2.65164e-08
-8.93221e-09
-1.56183e-07
1.94421e-08
-7.40701e-08
8.94695e-09
4.89105e-09
-1.03475e-07
4.89908e-09
1.84475e-08
-2.11829e-07
1.2931e-08
3.78517e-08
-2.77323e-07
1.99081e-08
6.10131e-08
-3.18067e-07
2.67361e-08
8.51037e-08
-3.43327e-07
3.37111e-08
1.0758e-07
-3.57716e-07
4.11781e-08
1.26017e-07
-3.64237e-07
4.93461e-08
1.38358e-07
-3.64896e-07
5.82908e-08
1.42933e-07
-3.61252e-07
6.79038e-08
1.38642e-07
-3.54676e-07
7.78864e-08
1.25059e-07
-3.46458e-07
8.77646e-08
1.02571e-07
-3.37878e-07
9.69174e-08
7.23976e-08
-3.3011e-07
1.04645e-07
3.65569e-08
-3.24198e-07
1.10272e-07
-2.32512e-09
-3.20904e-07
1.1327e-07
-4.12962e-08
-3.20628e-07
1.13368e-07
-7.74054e-08
-3.23348e-07
1.10569e-07
-1.0802e-07
-3.2863e-07
1.05156e-07
-1.31128e-07
-3.35651e-07
9.76717e-08
-1.45496e-07
-3.43332e-07
8.88135e-08
-1.50742e-07
-3.50413e-07
7.93068e-08
-1.47259e-07
-3.55563e-07
6.98077e-08
-1.36088e-07
-3.57417e-07
6.08277e-08
-1.18758e-07
-3.54568e-07
5.27033e-08
-9.71238e-08
-3.45467e-07
4.55671e-08
-7.32099e-08
-3.28249e-07
3.93111e-08
-4.91144e-08
-3.0039e-07
3.35644e-08
-2.69907e-08
-2.58019e-07
2.76057e-08
-9.29312e-09
-1.94098e-07
2.02168e-08
-9.26723e-08
9.30903e-09
7.1048e-09
-1.17693e-07
7.11306e-09
2.24028e-08
-2.43484e-07
1.63567e-08
4.2706e-08
-3.21018e-07
2.33924e-08
6.59216e-08
-3.71061e-07
2.97786e-08
8.96908e-08
-4.03421e-07
3.63242e-08
1.11706e-07
-4.23285e-07
4.35534e-08
1.29716e-07
-4.3398e-07
5.17332e-08
1.41707e-07
-4.37815e-07
6.09277e-08
1.46006e-07
-4.36562e-07
7.10118e-08
1.41443e-07
-4.31746e-07
8.16328e-08
1.2755e-07
-4.24809e-07
9.2244e-08
1.04637e-07
-4.1711e-07
1.02145e-07
7.39082e-08
-4.09916e-07
1.10534e-07
3.74031e-08
-4.04345e-07
1.16653e-07
-2.19002e-09
-4.01225e-07
1.19914e-07
-4.18497e-08
-4.00968e-07
1.2e-07
-7.85491e-08
-4.03561e-07
1.16912e-07
-1.09599e-07
-4.08549e-07
1.10969e-07
-1.32946e-07
-4.15086e-07
1.02781e-07
-1.4737e-07
-4.22022e-07
9.31146e-08
-1.52526e-07
-4.28026e-07
8.27684e-08
-1.48859e-07
-4.31717e-07
7.24872e-08
-1.37456e-07
-4.31645e-07
6.2825e-08
-1.19894e-07
-4.26272e-07
5.41408e-08
-9.80331e-08
-4.13885e-07
4.65568e-08
-7.38991e-08
-3.92346e-07
3.99631e-08
-4.95861e-08
-3.58696e-07
3.39927e-08
-2.72542e-08
-3.08241e-07
2.78899e-08
-9.38394e-09
-2.32369e-07
2.04013e-08
-1.11457e-07
9.40034e-09
7.96351e-09
-1.33628e-07
7.9716e-09
2.38538e-08
-2.77027e-07
1.76528e-08
4.42921e-08
-3.6608e-07
2.46231e-08
6.7164e-08
-4.2467e-07
3.07376e-08
9.03381e-08
-4.63622e-07
3.70275e-08
1.11703e-07
-4.88753e-07
4.41025e-08
1.29175e-07
-5.03732e-07
5.22802e-08
1.40791e-07
-5.11068e-07
6.16377e-08
1.44922e-07
-5.12717e-07
7.20226e-08
1.40383e-07
-5.10285e-07
8.30781e-08
1.2663e-07
-5.05262e-07
9.42058e-08
1.03939e-07
-4.99054e-07
1.04635e-07
7.34718e-08
-4.92958e-07
1.13509e-07
3.72472e-08
-4.88118e-07
1.19998e-07
-2.04868e-09
-4.85365e-07
1.23436e-07
-4.13918e-08
-4.85135e-07
1.2351e-07
-7.77549e-08
-4.87419e-07
1.20221e-07
-1.0844e-07
-4.9175e-07
1.13887e-07
-1.31411e-07
-4.9728e-07
1.05164e-07
-1.4549e-07
-5.02847e-07
9.49041e-08
-1.50373e-07
-5.07126e-07
8.39825e-08
-1.46558e-07
-5.08695e-07
7.31629e-08
-1.35171e-07
-5.06076e-07
6.3044e-08
-1.17777e-07
-4.97665e-07
5.40002e-08
-9.62245e-08
-4.81602e-07
4.61645e-08
-7.24907e-08
-4.5551e-07
3.94298e-08
-4.86275e-08
-4.15957e-07
3.33976e-08
-2.67229e-08
-3.57471e-07
2.73252e-08
-9.2002e-09
-2.69871e-07
1.99793e-08
-1.29873e-07
9.21639e-09
8.02392e-09
-1.49683e-07
8.03088e-09
2.35799e-08
-3.1012e-07
1.75364e-08
4.33089e-08
-4.10039e-07
2.42304e-08
6.51575e-08
-4.7654e-07
3.00211e-08
8.71904e-08
-5.21661e-07
3.60056e-08
1.07476e-07
-5.51885e-07
4.28461e-08
1.24072e-07
-5.71205e-07
5.08764e-08
1.35156e-07
-5.82324e-07
6.01724e-08
1.39145e-07
-5.87293e-07
7.05879e-08
1.34863e-07
-5.87755e-07
8.17516e-08
1.21745e-07
-5.85186e-07
9.30424e-08
1.0001e-07
-5.80991e-07
1.03671e-07
7.07447e-08
-5.76426e-07
1.12734e-07
3.58991e-08
-5.72634e-07
1.19361e-07
-1.91813e-09
-5.70409e-07
1.22861e-07
-3.97654e-08
-5.7021e-07
1.22922e-07
-7.4701e-08
-5.72018e-07
1.19535e-07
-1.04091e-07
-5.75391e-07
1.13031e-07
-1.25989e-07
-5.79482e-07
1.041e-07
-1.39285e-07
-5.83153e-07
9.36022e-08
-1.43712e-07
-5.8514e-07
8.24421e-08
-1.39829e-07
-5.84014e-07
7.14356e-08
-1.28763e-07
-5.78341e-07
6.11981e-08
-1.12037e-07
-5.66485e-07
5.2094e-08
-9.14261e-08
-5.46474e-07
4.42611e-08
-6.88195e-08
-5.15712e-07
3.75952e-08
-4.61318e-08
-4.70363e-07
3.17185e-08
-2.53406e-08
-4.04158e-07
2.58961e-08
-8.72703e-09
-3.05407e-07
1.8922e-08
-1.47343e-07
8.74238e-09
7.52532e-09
-1.6474e-07
7.53126e-09
2.19405e-08
-3.40868e-07
1.63329e-08
4.01143e-08
-4.5069e-07
2.24766e-08
6.01469e-08
-5.24367e-07
2.77946e-08
8.03276e-08
-5.75195e-07
3.33532e-08
9.89151e-08
-6.10257e-07
3.97852e-08
1.14174e-07
-6.33876e-07
4.74119e-08
1.24451e-07
-6.48934e-07
5.6333e-08
1.28242e-07
-6.57486e-07
6.64018e-08
1.24447e-07
-6.61213e-07
7.72524e-08
1.12492e-07
-6.61514e-07
8.82835e-08
9.24976e-08
-6.59704e-07
9.8707e-08
6.54814e-08
-6.57017e-07
1.07607e-07
3.32238e-08
-6.54493e-07
1.14116e-07
-1.80805e-09
-6.52926e-07
1.17549e-07
-3.68555e-08
-6.52759e-07
1.17597e-07
-6.91518e-08
-6.53985e-07
1.14263e-07
-9.62426e-08
-6.56146e-07
1.07846e-07
-1.16298e-07
-6.58452e-07
9.90257e-08
-1.28308e-07
-6.59833e-07
8.86904e-08
-1.32128e-07
-6.59068e-07
7.77472e-08
-1.28292e-07
-6.54856e-07
6.70061e-08
-1.179e-07
-6.45791e-07
5.70585e-08
-1.02403e-07
-6.30238e-07
4.8257e-08
-8.34402e-08
-6.06182e-07
4.07447e-08
-6.27244e-08
-5.70833e-07
3.44054e-08
-4.20113e-08
-5.19964e-07
2.88886e-08
-2.30723e-08
-4.46619e-07
2.35216e-08
-7.9433e-09
-3.37718e-07
1.71825e-08
-1.63243e-07
7.95706e-09
6.58943e-09
-1.77924e-07
6.59498e-09
1.9141e-08
-3.67662e-07
1.42428e-08
3.49129e-08
-4.86026e-07
1.95642e-08
5.22954e-08
-5.65948e-07
2.41985e-08
6.98108e-08
-6.21826e-07
2.91157e-08
8.60075e-08
-6.61345e-07
3.48909e-08
9.93955e-08
-6.89071e-07
4.18069e-08
1.08514e-07
-7.08029e-07
4.99762e-08
1.12042e-07
-7.20282e-07
5.92676e-08
1.08944e-07
-7.27458e-07
6.93439e-08
9.86519e-08
-7.30872e-07
7.965e-08
8.12387e-08
-7.31702e-07
8.9411e-08
5.75498e-08
-7.31086e-07
9.77582e-08
2.9155e-08
-7.2997e-07
1.03871e-07
-1.72553e-09
-7.29136e-07
1.0709e-07
-3.26094e-08
-7.28997e-07
1.07122e-07
-6.10148e-08
-7.29545e-07
1.03965e-07
-8.47069e-08
-7.30365e-07
9.79113e-08
-1.02097e-07
-7.30675e-07
8.96132e-08
-1.12352e-07
-7.29493e-07
7.9914e-08
-1.15379e-07
-7.25729e-07
6.96886e-08
-1.11725e-07
-7.18197e-07
5.96867e-08
-1.02408e-07
-7.0557e-07
5.04609e-08
-8.87394e-08
-6.86276e-07
4.2369e-08
-7.21508e-08
-6.58284e-07
3.5514e-08
-5.41546e-08
-6.18622e-07
2.9793e-08
-3.62302e-08
-5.62788e-07
2.4899e-08
-1.98775e-08
-4.83195e-07
2.02241e-08
-6.84839e-09
-3.65521e-07
1.47737e-08
-1.76952e-07
6.8604e-09
5.28043e-09
-1.88485e-07
5.2802e-09
1.52972e-08
-3.89036e-07
1.13576e-08
2.78847e-08
-5.14194e-07
1.55803e-08
4.17738e-08
-5.9916e-07
1.93229e-08
5.58423e-08
-6.59269e-07
2.33749e-08
6.89389e-08
-7.02657e-07
2.8215e-08
7.98774e-08
-7.34126e-07
3.41161e-08
8.74671e-08
-7.56772e-07
4.11535e-08
9.06111e-08
-7.72662e-07
4.92366e-08
8.84019e-08
-7.83316e-07
5.80671e-08
8.03006e-08
-7.89925e-07
6.71544e-08
6.62928e-08
-7.93542e-07
7.58475e-08
4.6999e-08
-7.95143e-07
8.33508e-08
2.37258e-08
-7.95573e-07
8.88771e-08
-1.67013e-09
-7.95533e-07
9.17925e-08
-2.7057e-08
-7.95417e-07
9.18071e-08
-5.02973e-08
-7.95226e-07
8.89214e-08
-6.95413e-08
-7.94546e-07
8.34251e-08
-8.34792e-08
-7.92701e-07
7.59639e-08
-9.1475e-08
-7.88806e-07
6.7309e-08
-9.35332e-08
-7.81915e-07
5.8244e-08
-9.01955e-08
-7.71e-07
4.94655e-08
-8.23537e-08
-7.54855e-07
4.14438e-08
-7.11084e-08
-7.3198e-07
3.44588e-08
-5.76495e-08
-7.00356e-07
2.86129e-08
-4.31664e-08
-6.56913e-07
2.3808e-08
-2.8821e-08
-5.96892e-07
1.97586e-08
-1.58014e-08
-5.12207e-07
1.59921e-08
-5.44071e-09
-3.87572e-07
1.16905e-08
-1.87843e-07
5.45053e-09
3.64744e-09
-1.95779e-07
3.64684e-09
1.05383e-08
-4.03715e-07
7.78737e-09
1.92337e-08
-5.3357e-07
1.06806e-08
2.88773e-08
-6.2212e-07
1.33163e-08
3.87351e-08
-6.85404e-07
1.62772e-08
4.80372e-08
-7.31883e-07
1.9924e-08
5.59621e-08
-7.6651e-07
2.44601e-08
6.16509e-08
-7.92413e-07
2.99519e-08
6.42854e-08
-8.1165e-07
3.63529e-08
6.31205e-08
-8.2562e-07
4.34691e-08
5.766e-08
-8.35381e-07
5.09167e-08
4.78144e-08
-8.41834e-07
5.81381e-08
3.39487e-08
-8.45725e-07
6.44475e-08
1.69907e-08
-8.47794e-07
6.91789e-08
-1.63949e-09
-8.48606e-07
7.17039e-08
-2.02495e-08
-8.48508e-07
7.17004e-08
-3.71525e-08
-8.47496e-07
6.91729e-08
-5.09234e-08
-8.45219e-07
6.44432e-08
-6.06426e-08
-8.41115e-07
5.81333e-08
-6.59238e-08
-8.34456e-07
5.09316e-08
-6.68754e-08
-8.24495e-07
4.35311e-08
-6.40095e-08
-8.10318e-07
3.64522e-08
-5.80497e-08
-7.90895e-07
3.00805e-08
-4.97994e-08
-7.6486e-07
2.46304e-08
-4.01546e-08
-7.30133e-07
2.0132e-08
-2.99212e-08
-6.8366e-07
1.6514e-08
-1.99174e-08
-6.20463e-07
1.35666e-08
-1.0895e-08
-5.32154e-07
1.09243e-08
-3.75069e-09
-4.02709e-07
7.99217e-09
-1.95352e-07
3.75857e-09
1.75101e-09
-1.99278e-07
1.7482e-09
5.05046e-09
-4.10672e-07
3.65739e-09
9.23082e-09
-5.4276e-07
5.01032e-09
1.3975e-08
-6.33218e-07
6.35387e-09
1.89694e-08
-6.98414e-07
8.01484e-09
2.38692e-08
-7.46987e-07
1.02044e-08
2.82678e-08
-7.83963e-07
1.30539e-08
3.16953e-08
-8.12483e-07
1.6642e-08
3.36414e-08
-8.34547e-07
2.0951e-08
3.36051e-08
-8.51451e-07
2.58667e-08
3.11876e-08
-8.64115e-07
3.11509e-08
2.61561e-08
-8.7326e-07
3.64573e-08
1.86158e-08
-8.79443e-07
4.12587e-08
9.06106e-09
-8.832e-07
4.49599e-08
-1.62533e-09
-8.84903e-07
4.69836e-08
-1.22815e-08
-8.84817e-07
4.69653e-08
-2.17516e-08
-8.82938e-07
4.49124e-08
-2.91526e-08
-8.79006e-07
4.11879e-08
-3.40158e-08
-8.72639e-07
3.63874e-08
-3.62217e-08
-8.63336e-07
3.10859e-08
-3.60252e-08
-8.50498e-07
2.58073e-08
-3.38066e-08
-8.33455e-07
2.09186e-08
-3.00711e-08
-8.11273e-07
1.66422e-08
-2.53677e-08
-7.82654e-07
1.30897e-08
-2.01323e-08
-7.45643e-07
1.02744e-08
-1.48114e-08
-6.97096e-07
8.11426e-09
-9.74446e-09
-6.32004e-07
6.47411e-09
-5.2913e-09
-5.41746e-07
5.13938e-09
-1.81621e-09
-4.09961e-07
3.77724e-09
-1.98991e-07
1.82239e-09
-3.38566e-10
-1.98599e-07
-3.41099e-10
-1.00363e-09
-4.09128e-07
-8.78924e-10
-1.75069e-09
-5.40803e-07
-1.21057e-09
-2.39415e-09
-6.31272e-07
-1.30256e-09
-2.75152e-09
-6.96941e-07
-1.11497e-09
-2.73925e-09
-7.46399e-07
-6.00578e-10
-2.30333e-09
-7.84666e-07
2.67067e-10
-1.48627e-09
-8.14844e-07
1.54447e-09
-4.2377e-10
-8.38876e-07
3.2666e-09
6.55597e-10
-8.57978e-07
5.44776e-09
1.46871e-09
-8.7295e-07
8.02193e-09
1.73003e-09
-8.84331e-07
1.08091e-08
1.25355e-09
-8.92483e-07
1.35157e-08
4.7335e-11
-8.97732e-07
1.57383e-08
-1.62107e-09
-9.00236e-07
1.70007e-08
-3.25409e-09
-9.00165e-07
1.69808e-08
-4.36428e-09
-8.97494e-07
1.56658e-08
-4.67086e-09
-8.92087e-07
1.33882e-08
-4.19767e-09
-8.8377e-07
1.06573e-08
-3.13536e-09
-8.72261e-07
7.86206e-09
-1.77977e-09
-8.57151e-07
5.29664e-09
-4.21894e-10
-8.37949e-07
3.13603e-09
7.04097e-10
-8.13843e-07
1.44365e-09
1.45537e-09
-7.83605e-07
2.00253e-10
1.78697e-09
-7.45341e-07
-6.33502e-10
1.72558e-09
-6.95918e-07
-1.11612e-09
1.35391e-09
-6.30356e-07
-1.27592e-09
8.25125e-10
-5.40056e-07
-1.16207e-09
2.96392e-10
-4.08615e-07
-8.17283e-10
-1.98403e-07
-2.91354e-10
-2.5301e-09
-1.93531e-07
-2.53804e-09
-7.34167e-09
-3.98687e-07
-5.62851e-09
-1.32577e-08
-5.27149e-07
-7.73737e-09
-1.95348e-08
-6.15652e-07
-9.34308e-09
-2.55475e-08
-6.80188e-07
-1.07404e-08
-3.07091e-08
-7.2916e-07
-1.20772e-08
-3.4525e-08
-7.67457e-07
-1.33932e-08
-3.65751e-08
-7.98089e-07
-1.47053e-08
-3.65957e-08
-8.22916e-07
-1.59388e-08
-3.45114e-08
-8.43073e-07
-1.69895e-08
-3.04103e-08
-8.5929e-07
-1.7761e-08
-2.46237e-08
-8.71969e-07
-1.81485e-08
-1.75665e-08
-8.81359e-07
-1.81814e-08
-9.7559e-09
-8.87571e-07
-1.79715e-08
-1.61896e-09
-8.9063e-07
-1.7743e-08
6.55943e-09
-8.90561e-07
-1.77825e-08
1.44842e-08
-8.8734e-07
-1.80787e-08
2.17266e-08
-8.80983e-07
-1.83465e-08
2.77566e-08
-8.71461e-07
-1.83392e-08
3.21246e-08
-8.5866e-07
-1.79687e-08
3.45153e-08
-8.42336e-07
-1.72054e-08
3.48071e-08
-8.22103e-07
-1.61384e-08
3.30689e-08
-7.97227e-07
-1.48778e-08
2.95728e-08
-7.66576e-07
-1.35335e-08
2.47024e-08
-7.28287e-07
-1.21836e-08
1.89744e-08
-6.79378e-07
-1.08121e-08
1.29394e-08
-6.1494e-07
-9.38103e-09
7.20191e-09
-5.26576e-07
-7.74216e-09
2.5087e-09
-3.98317e-07
-5.60505e-09
-1.9339e-07
-2.5042e-09
-4.72287e-09
-1.84078e-07
-4.73008e-09
-1.36605e-08
-3.79393e-07
-1.03571e-08
-2.47337e-08
-5.01851e-07
-1.42254e-08
-3.66453e-08
-5.86379e-07
-1.73613e-08
-4.83122e-08
-6.48156e-07
-2.03648e-08
-5.86951e-08
-6.95188e-07
-2.35892e-08
-6.68379e-08
-7.32116e-07
-2.71981e-08
-7.18713e-08
-7.61824e-07
-3.12316e-08
-7.31265e-08
-7.86033e-07
-3.56281e-08
-7.01514e-08
-8.05861e-07
-4.01871e-08
-6.28652e-08
-8.21951e-07
-4.46248e-08
-5.15545e-08
-8.34667e-07
-4.86121e-08
-3.68906e-08
-8.44171e-07
-5.18509e-08
-1.98615e-08
-8.50521e-07
-5.40786e-08
-1.61327e-09
-8.53681e-07
-5.51971e-08
1.66807e-08
-8.53603e-07
-5.52516e-08
3.38431e-08
-8.50292e-07
-5.421e-08
4.86972e-08
-8.438e-07
-5.20369e-08
6.02555e-08
-8.34165e-07
-4.88538e-08
6.7833e-08
-8.2135e-07
-4.4888e-08
7.11225e-08
-8.05181e-07
-4.04442e-08
7.0196e-08
-7.85304e-07
-3.5872e-08
6.54789e-08
-7.61058e-07
-3.14522e-08
5.76547e-08
-7.31363e-07
-2.73879e-08
4.75652e-08
-6.94453e-07
-2.37443e-08
3.61575e-08
-6.47485e-07
-2.0485e-08
2.4467e-08
-5.85807e-07
-1.74429e-08
1.3565e-08
-5.01407e-07
-1.42666e-08
4.71043e-09
-3.79104e-07
-1.03587e-08
-1.83974e-07
-4.70591e-09
-6.80508e-09
-1.70461e-07
-6.81202e-09
-1.96495e-08
-3.51701e-07
-1.48471e-08
-3.55818e-08
-4.65541e-07
-2.03769e-08
-5.28243e-08
-5.44194e-07
-2.49429e-08
-6.98424e-08
-6.01692e-07
-2.94464e-08
-8.51909e-08
-6.45392e-07
-3.4447e-08
-9.74557e-08
-6.7962e-07
-4.02316e-08
-1.05368e-07
-7.07023e-07
-4.68884e-08
-1.07836e-07
-7.29252e-07
-5.43136e-08
-1.04096e-07
-7.47358e-07
-6.22421e-08
-9.38457e-08
-7.6195e-07
-7.02524e-08
-7.73297e-08
-7.73408e-07
-7.77756e-08
-5.54177e-08
-7.81919e-07
-8.4165e-08
-2.95485e-08
-7.87583e-07
-8.88073e-08
-1.59824e-09
-7.90394e-07
-9.12374e-08
2.63956e-08
-7.90316e-07
-9.12805e-08
5.23882e-08
-7.87355e-07
-8.89298e-08
7.45118e-08
-7.81568e-07
-8.43559e-08
9.12855e-08
-7.72925e-07
-7.80136e-08
1.01834e-07
-7.61382e-07
-7.05164e-08
1.05894e-07
-7.46727e-07
-6.25146e-08
1.03751e-07
-7.28583e-07
-5.45781e-08
9.61679e-08
-7.06341e-07
-4.7133e-08
8.42078e-08
-6.78954e-07
-4.04489e-08
6.91472e-08
-6.44762e-07
-3.4631e-08
5.23864e-08
-6.01131e-07
-2.9594e-08
3.53527e-08
-5.43723e-07
-2.50503e-08
1.95628e-08
-4.65177e-07
-2.04403e-08
6.79885e-09
-3.51476e-07
-1.48638e-08
-1.70381e-07
-6.79392e-09
-8.65412e-09
-1.53145e-07
-8.66147e-09
-2.49635e-08
-3.16571e-07
-1.88213e-08
-4.52187e-08
-4.19484e-07
-2.58026e-08
-6.71838e-08
-4.90605e-07
-3.16241e-08
-8.89605e-08
-5.42458e-07
-3.74568e-08
-1.08719e-07
-5.81634e-07
-4.40007e-08
-1.24663e-07
-6.12029e-07
-5.16458e-08
-1.35132e-07
-6.36029e-07
-6.05249e-08
-1.38676e-07
-6.5518e-07
-7.05286e-08
-1.34247e-07
-6.70439e-07
-8.13474e-08
-1.21345e-07
-6.82453e-07
-9.23987e-08
-1.002e-07
-6.91653e-07
-1.029e-07
-7.18457e-08
-6.98325e-07
-1.11948e-07
-3.81389e-08
-7.02668e-07
-1.18622e-07
-1.5727e-09
-7.04786e-07
-1.22174e-07
3.50391e-08
-7.04714e-07
-1.22214e-07
6.88779e-08
-7.02464e-07
-1.1873e-07
9.74256e-08
-6.97995e-07
-1.12121e-07
1.18832e-07
-6.91203e-07
-1.03129e-07
1.32033e-07
-6.81924e-07
-9.26584e-08
1.36783e-07
-6.69857e-07
-8.1619e-08
1.33562e-07
-6.54566e-07
-7.07961e-08
1.23421e-07
-6.35424e-07
-6.07764e-08
1.07778e-07
-6.11438e-07
-5.18737e-08
8.8305e-08
-5.81091e-07
-4.41977e-08
6.6771e-08
-5.41978e-07
-3.76183e-08
4.50056e-08
-4.90212e-07
-3.17453e-08
2.48938e-08
-4.19188e-07
-2.58772e-08
8.65164e-09
-3.16388e-07
-1.88456e-08
-1.53084e-07
-8.64607e-09
-1.01716e-08
-1.32795e-07
-1.01782e-08
-2.93139e-08
-2.75359e-07
-2.20694e-08
-5.30898e-08
-3.65475e-07
-3.02328e-08
-7.89267e-08
-4.27724e-07
-3.7044e-08
-1.04612e-07
-4.72881e-07
-4.38916e-08
-1.27986e-07
-5.06639e-07
-5.16215e-08
-1.46946e-07
-5.32384e-07
-6.06854e-08
-1.59488e-07
-5.52253e-07
-7.12332e-08
-1.63886e-07
-5.67612e-07
-8.31703e-08
-1.58844e-07
-5.79386e-07
-9.60952e-08
-1.43734e-07
-5.88241e-07
-1.09323e-07
-1.18775e-07
-5.94661e-07
-1.21951e-07
-8.51615e-08
-5.99077e-07
-1.32861e-07
-4.50809e-08
-6.01807e-07
-1.40942e-07
-1.53503e-09
-6.03083e-07
-1.45249e-07
4.20522e-08
-6.03016e-07
-1.45285e-07
8.22577e-08
-6.01612e-07
-1.41058e-07
1.16063e-07
-5.98764e-07
-1.33036e-07
1.41284e-07
-5.9426e-07
-1.22164e-07
1.56682e-07
-5.87757e-07
-1.09566e-07
1.62035e-07
-5.78859e-07
-9.63515e-08
1.57964e-07
-5.67068e-07
-8.34274e-08
1.45731e-07
-5.51711e-07
-7.14793e-08
1.27076e-07
-5.31872e-07
-6.09109e-08
1.03974e-07
-5.06169e-07
-5.18201e-08
7.85289e-08
-4.72476e-07
-4.40576e-08
5.28885e-08
-4.27406e-07
-3.71654e-08
2.92436e-08
-3.65236e-07
-3.03068e-08
1.01702e-08
-2.75217e-07
-2.20976e-08
-1.32749e-07
-1.01645e-08
-1.126e-08
-1.10269e-07
-1.12663e-08
-3.24231e-08
-2.29813e-07
-2.43832e-08
-5.874e-08
-3.05811e-07
-3.33476e-08
-8.73917e-08
-3.58254e-07
-4.08187e-08
-1.15953e-07
-3.95984e-07
-4.8336e-08
-1.42016e-07
-4.2375e-07
-5.68259e-08
-1.63201e-07
-4.44412e-07
-6.67866e-08
-1.77263e-07
-4.598e-07
-7.83904e-08
-1.82254e-07
-4.71129e-07
-9.14926e-08
-1.76718e-07
-4.79271e-07
-1.05651e-07
-1.5995e-07
-4.84872e-07
-1.20137e-07
-1.32161e-07
-4.88511e-07
-1.33939e-07
-9.47175e-08
-4.90678e-07
-1.45843e-07
-5.00436e-08
-4.91822e-07
-1.54659e-07
-1.48303e-09
-4.92271e-07
-1.59373e-07
4.71177e-08
-4.92212e-07
-1.59405e-07
9.19084e-08
-4.91649e-07
-1.54754e-07
1.29544e-07
-4.90408e-07
-1.45992e-07
1.57562e-07
-4.88148e-07
-1.34131e-07
1.7462e-07
-4.84456e-07
-1.20359e-07
1.8046e-07
-4.78812e-07
-1.05887e-07
1.75786e-07
-4.7066e-07
-9.17332e-08
1.62031e-07
-4.59333e-07
-7.86234e-08
1.41135e-07
-4.43973e-07
-6.70028e-08
1.15343e-07
-4.23358e-07
-5.70186e-08
8.70163e-08
-3.95651e-07
-4.84988e-08
5.85461e-08
-3.57987e-07
-4.09496e-08
3.2359e-08
-3.05618e-07
-3.34309e-08
1.12589e-08
-2.29705e-07
-2.44123e-08
-1.10237e-07
-1.12534e-08
-1.18285e-08
-8.66072e-08
-1.18332e-08
-3.40648e-08
-1.82e-07
-2.55768e-08
-6.17914e-08
-2.43161e-07
-3.49232e-08
-9.20865e-08
-2.85285e-07
-4.26739e-08
-1.22385e-07
-3.15225e-07
-5.04613e-08
-1.5011e-07
-3.36764e-07
-5.92601e-08
-1.72697e-07
-3.52245e-07
-6.95802e-08
-1.87725e-07
-3.63186e-07
-8.15864e-08
-1.93089e-07
-3.7065e-07
-9.5114e-08
-1.87244e-07
-3.75414e-07
-1.09703e-07
-1.69446e-07
-3.78103e-07
-1.24567e-07
-1.3997e-07
-3.79307e-07
-1.3868e-07
-1.00254e-07
-3.7957e-07
-1.50823e-07
-5.28878e-08
-3.79397e-07
-1.59791e-07
-1.41621e-09
-3.79179e-07
-1.64563e-07
5.00925e-08
-3.7913e-07
-1.64591e-07
9.75692e-08
-3.79252e-07
-1.59874e-07
1.37458e-07
-3.79341e-07
-1.50955e-07
1.67165e-07
-3.79006e-07
-1.38849e-07
1.8523e-07
-3.77755e-07
-1.24766e-07
1.91366e-07
-3.75032e-07
-1.09916e-07
1.86297e-07
-3.70258e-07
-9.53331e-08
1.71573e-07
-3.62807e-07
-8.18011e-08
1.49262e-07
-3.51881e-07
-6.97814e-08
1.21794e-07
-3.36448e-07
-5.94423e-08
9.17165e-08
-3.14956e-07
-5.06168e-08
6.16014e-08
-2.85077e-07
-4.27944e-08
3.40035e-08
-2.4302e-07
-3.50006e-08
1.18257e-08
-1.81922e-07
-2.56056e-08
-8.65892e-08
-1.18216e-08
-1.17865e-08
-6.30279e-08
-1.17929e-08
-3.4025e-08
-1.34312e-07
-2.54492e-08
-6.19089e-08
-1.80598e-07
-3.46784e-08
-9.25884e-08
-2.12326e-07
-4.22787e-08
-1.23447e-07
-2.34465e-07
-4.99015e-08
-1.51807e-07
-2.49867e-07
-5.8536e-08
-1.74994e-07
-2.60368e-07
-6.86912e-08
-1.90455e-07
-2.67215e-07
-8.05087e-08
-1.96038e-07
-2.71259e-07
-9.38078e-08
-1.90154e-07
-2.73184e-07
-1.08114e-07
-1.72064e-07
-2.73549e-07
-1.22644e-07
-1.42085e-07
-2.72907e-07
-1.3638e-07
-1.01715e-07
-2.71798e-07
-1.48142e-07
-5.35986e-08
-2.70711e-07
-1.56802e-07
-1.33132e-09
-2.70038e-07
-1.61408e-07
5.09709e-08
-2.69999e-07
-1.61432e-07
9.91892e-08
-2.70596e-07
-1.56874e-07
1.39725e-07
-2.71622e-07
-1.48254e-07
1.69915e-07
-2.72677e-07
-1.3652e-07
1.88249e-07
-2.73276e-07
-1.22813e-07
1.94406e-07
-2.72884e-07
-1.08305e-07
1.8911e-07
-2.70956e-07
-9.40061e-08
1.73921e-07
-2.66914e-07
-8.07051e-08
1.51008e-07
-2.60091e-07
-6.88769e-08
1.22889e-07
-2.49622e-07
-5.87058e-08
9.22398e-08
-2.34261e-07
-5.00464e-08
6.17319e-08
-2.12176e-07
-4.23932e-08
3.39628e-08
-1.80498e-07
-3.47527e-08
1.1785e-08
-1.34266e-07
-2.5478e-08
-6.30213e-08
-1.1783e-08
-1.10374e-08
-4.09477e-08
-1.10427e-08
-3.20748e-08
-8.94904e-08
-2.37842e-08
-5.8799e-08
-1.2158e-07
-3.22946e-08
-8.85584e-08
-1.43331e-07
-3.92363e-08
-1.18777e-07
-1.58037e-07
-4.62101e-08
-1.46742e-07
-1.67722e-07
-5.41805e-08
-1.69717e-07
-1.73754e-07
-6.36386e-08
-1.85145e-07
-1.7708e-07
-7.47079e-08
-1.90841e-07
-1.78372e-07
-8.71913e-08
-1.85251e-07
-1.78162e-07
-1.00611e-07
-1.67673e-07
-1.76918e-07
-1.14209e-07
-1.38454e-07
-1.75107e-07
-1.27019e-07
-9.90857e-08
-1.732e-07
-1.37967e-07
-5.21728e-08
-1.7162e-07
-1.46004e-07
-1.22458e-09
-1.70721e-07
-1.50266e-07
4.97551e-08
-1.70692e-07
-1.50287e-07
9.67608e-08
-1.71537e-07
-1.46065e-07
1.36277e-07
-1.73067e-07
-1.38071e-07
1.65692e-07
-1.74936e-07
-1.27156e-07
1.83496e-07
-1.76716e-07
-1.14364e-07
1.89336e-07
-1.77944e-07
-1.0078e-07
1.83896e-07
-1.78147e-07
-8.73683e-08
1.6873e-07
-1.76863e-07
-7.48842e-08
1.46e-07
-1.73554e-07
-6.38075e-08
1.1826e-07
-1.67547e-07
-5.43356e-08
8.82377e-08
-1.57895e-07
-4.6344e-08
5.86341e-08
-1.43229e-07
-3.93433e-08
3.20193e-08
-1.21518e-07
-3.23653e-08
1.10347e-08
-8.94676e-08
-2.38135e-08
-4.09511e-08
-1.10356e-08
-9.46595e-09
-2.20106e-08
-9.47122e-09
-2.80155e-08
-5.06155e-08
-2.03254e-08