/*--------------------------------*- C++ -*----------------------------------*\
| =========                 |                                                 |
| \\      /  F ield         | OpenFOAM: The Open Source CFD Toolbox           |
|  \\    /   O peration     | Version:  v1906                                 |
|   \\  /    A nd           | Web:      www.OpenFOAM.com                      |
|    \\/     M anipulation  |                                                 |
\*---------------------------------------------------------------------------*/
FoamFile
{
    version     2.0;
    format      ascii;
    class       volScalarField;
    location    "0.6/oil";
    object      heatTransferCoeff(T);
}
// * * * * * * * * * * * * * * * * * * * * * * * * * * * * * * * * * * * * * //

dimensions      [1 0 -3 -1 0 0 0];


internalField   uniform 0;

boundaryField
{
    maxY
    {
        type            calculated;
        value           uniform 0;
    }
    minX
    {
        type            calculated;
        value           uniform 0;
    }
    maxX
    {
        type            calculated;
        value           uniform 0;
    }
    minY
    {
        type            calculated;
        value           uniform 0;
    }
    minZ
    {
        type            calculated;
        value           uniform 0;
    }
    maxZ
    {
        type            calculated;
        value           uniform 0;
    }
    oil_to_sphere
    {
        type            calculated;
        value           nonuniform List<scalar> 
1536
(
-2932.87
-2686.19
-2636.77
-3093.79
-3105.7
-2992.28
-2857.46
-2740.85
-2458.24
-2451.98
-3115.81
-2462.94
-2624.23
-2460.59
-3277.85
-3198.57
-2758.44
-2437.19
-1277.82
-2600.57
-2526.08
-3060.51
-2829.24
-3214.03
-3295.59
-3288.84
-3288.57
-3227.33
-2631.36
-2833.49
-2593.52
-2501.05
-2532.34
-3294.21
-3202.79
-3170.67
-3085.65
-3243.22
-3218.21
-3242.79
-3237.63
-3192.6
-2826.5
-2573.38
-2760.29
-2536.21
-2791.27
-2847.45
-3351.45
-2862.91
-3050.65
-2793.32
-2799.55
-2797.84
-2480.58
-2333.17
-2972.65
-2872.22
-2415.39
-2112.55
-2032.1
-2126.06
-2037.63
-1394.91
-1423.11
-2529.7
-2768.95
-2421.46
-3016.36
-2742.04
-3309.5
-3092.2
-3165.33
-3258.1
-3216.41
-2570.63
-2242.94
-2762.86
-3200.65
-2375.25
-2129.43
-2029.77
-2026.71
-2039.21
-1911.72
-2050.39
-1968.45
-2712.59
-2471.79
-2120.74
-1996.42
-1230.57
-1258.18
-1397.97
-1425.65
-2545.05
-2776.27
-2305.17
-2463.41
-2970.04
-2777.77
-3306.18
-2767.05
-2702.9
-3032.01
-3265.9
-3227.05
-2809.49
-2942.47
-2511.09
-2355.19
-2545.15
-2122.89
-2088.25
-2023.2
-1973.98
-2012.3
-1954.12
-1955.37
-1992.44
-2344.54
-1999.39
-1240.88
-2513.15
-2947.09
-2830.47
-3017.72
-2699.25
-2880.96
-3089.13
-2793.95
-3069.55
-2826.89
-3067.64
-2811.63
-3102.93
-2809.69
-2375.83
-2785.66
-2916.82
-2102.09
-2043.06
-2765.06
-2365.74
-1985.24
-2400.03
-3019.85
-2351.31
-2112.54
-3066.4
-3147.48
-2305
-3040.78
-3014.96
-3021.44
-2068.16
-2883.16
-1990.04
-2994.64
-2182.25
-2892.36
-2272.91
-3277.92
-3258.93
-3176.31
-3082.89
-3053.63
-1975.11
-2803
-2018.84
-2655.16
-2615
-2558.97
-2440.13
-2352.53
-2184.2
-2907.82
-2323.42
-2409.45
-2942.41
-3278.74
-3238.82
-3124.53
-3237.41
-2086.35
-2765.17
-2022.14
-2655.22
-2656.64
-2751.41
-2781.41
-3069.14
-2434.32
-2906.03
-3233.35
-2944.29
-2607.04
-2858.1
-2253.32
-2952.01
-2879.65
-2988.29
-2557.7
-2172.25
-2301.36
-2348.64
-2352.84
-2353.81
-2553.74
-2070.38
-2649.15
-2382.66
-2436.1
-2203.59
-2655.28
-2558.77
-2214.37
-2438.49
-2567.99
-2158.98
-2372.12
-2717.73
-2639.16
-2402.22
-2358.42
-2443.64
-3135.47
-2405.44
-3114.28
-3384.48
-3191.59
-2887.7
-3094.9
-2198.46
-2145.93
-2669.63
-2230.44
-2245.07
-2173.65
-2479.4
-2421.67
-1403.33
-1790.9
-2568.96
-2215.27
-2756.15
-2732.1
-2407.82
-2642
-2136.67
-2714.99
-3356.61
-2992.06
-3086.44
-2314.6
-3102.28
-3152.4
-2654.77
-2395.92
-2371.83
-2581.02
-1985.03
-2364.22
-1793.87
-1383.14
-1598.79
-1622.6
-1471.16
-2680.31
-2419.93
-2669.39
-2488
-2465.76
-2748.98
-2681.64
-2506.2
-2577.44
-2183.69
-2701.04
-2393.84
-3033.76
-2939.54
-2679.44
-2481.95
-2773.88
-2863.92
-2783.04
-3008.72
-2788.07
-2614.1
-2976.55
-2089.88
-2881.69
-2246.23
-2325.76
-2401.25
-2389.43
-2217.3
-2434.52
-2475.8
-2758.45
-2653.31
-2447.15
-2327.88
-2240.2
-2960.11
-2089.03
-3221.5
-3133.71
-1977.96
-2693.44
-1955.92
-2712.76
-2707.34
-2681.82
-2567.04
-2833.44
-2796.3
-2905.49
-2384.25
-2723.8
-2591.49
-2595.82
-3018.64
-2747.03
-2521.61
-2679.97
-2394.57
-2767.35
-2422.14
-2477.32
-2330.18
-2967.03
-2641.2
-2520.9
-2871.89
-2432.46
-2705
-2789.8
-2337.34
-2097.94
-2649.48
-2460.92
-2577.65
-2515.89
-2519.62
-2600.18
-2589.8
-2552.15
-2813.85
-2895.57
-3002.88
-2613.31
-2987.1
-2525.22
-2804.28
-2757.32
-2646.67
-3101.23
-2543.33
-3009.79
-2818.75
-2609.67
-3093.61
-2734.78
-2765.76
-3044.32
-2932.54
-3008.48
-2753.48
-2485.16
-3096.4
-2847.96
-2698.66
-3130.28
-2683.53
-2909.31
-2942.71
-2706.72
-2055.35
-2859.28
-2277.55
-2696.36
-2332.36
-2446.27
-2972.91
-2733.48
-2091.32
-2795.26
-2459.87
-2584.76
-2393.17
-2223.78
-2453.8
-2381.71
-2218.82
-2794.24
-2130.26
-2717.23
-2368.88
-2976.11
-2742.71
-1980.05
-2956
-2651.78
-2364.01
-2801.69
-2269.6
-2633.09
-2430.8
-2346.12
-2335.57
-2375.13
-2456.79
-2370.93
-2278.7
-2377.8
-2364.82
-2629.66
-2442.77
-2395.62
-2452.83
-2246.91
-2022.44
-2481.24
-2213.45
-2154.29
-2352.07
-1936.26
-2106.19
-2529.39
-2229.16
-2329.6
-2303.08
-2329.74
-2270.85
-2359.81
-1897.42
-1751.12
-2033.35
-2054.14
-2360.37
-2240.07
-2113.74
-2146.78
-2501
-2373.36
-2560.6
-2664.76
-2394.68
-2560.31
-2477.61
-2270.93
-2192.46
-2050.36
-1993.9
-2258.92
-1865.02
-1896.83
-2216.95
-1831.95
-1917.6
-1884.87
-2203.28
-2367.88
-2708.9
-2640.82
-2435.59
-2529.79
-2838.31
-2692.08
-2615.8
-2780.71
-2333.65
-2933.64
-2641.61
-2869.88
-2476.31
-2954.72
-2599.59
-2413.57
-2745.32
-2782.57
-2401.29
-2750.57
-2951.32
-2636.51
-2768.99
-2209.94
-2955.73
-2164.61
-2951.42
-3242.7
-3294.71
-3346.94
-3414.75
-3071.47
-3072.43
-3199.84
-3244.58
-3001.19
-2098.88
-3241.4
-3096.92
-2047.25
-2042.07
-2759.36
-3102.3
-3158.31
-2117.89
-2819.86
-3077.13
-3155.35
-3094.45
-2840.17
-2306.11
-2077.07
-2365.89
-2202.44
-2063.74
-2666.53
-2436.03
-2165.37
-2409.98
-2389.21
-1856.16
-2111.18
-2146.16
-1761.39
-2125.57
-1816.09
-2213.49
-1782.05
-2290.2
-2078.24
-2158.8
-2236.17
-2505.52
-2340.5
-2239.41
-1969.31
-2406.8
-2281.64
-2032.67
-2620.19
-2466.5
-2280.21
-2600.65
-2394.43
-2354.45
-2307.45
-1863.42
-2111.96
-2359.68
-1463.9
-1788.88
-1505.98
-1762.05
-1547.02
-1547.51
-1577.52
-1592.36
-1759.73
-2263.25
-1835
-1909.28
-1895.47
-1818.72
-2284.4
-1830.49
-1897.46
-1927.81
-1936.02
-2189.4
-2034.6
-2178.53
-1797.18
-2797.02
-2353.17
-2181.48
-2969.55
-2568.62
-2296.24
-2831.27
-2329.76
-2533.61
-2482.51
-2388.7
-2872.22
-2491.19
-2727.79
-2630.01
-2513.99
-2516.82
-2232.05
-2319.37
-2914.61
-2770.07
-2251.09
-2804.6
-2762.21
-2371.32
-2570.26
-2333.9
-2867.02
-2934.59
-2441.08
-2726.65
-2438.51
-2552.1
-2990.49
-2154.04
-3275.27
-3274.41
-2170.55
-2361.77
-2959.23
-3267.36
-3288.82
-2685.02
-3090.27
-3324.33
-3249.69
-3226.81
-3056.08
-3088
-3226.98
-2144.62
-2249.12
-2781.73
-2072.8
-3008.6
-2067.32
-2053.21
-2292.61
-3062.19
-3158.15
-3044.2
-2215.91
-3107.22
-2267.8
-2876.36
-2818.44
-2064.52
-3058.93
-2036.02
-2354.77
-1957.58
-1649.99
-2154.54
-2562.25
-2201.21
-2258.02
-2217.05
-2243.81
-2281.8
-2378.62
-1993.48
-2357.31
-2132.85
-2080.24
-2135.79
-2187.34
-1742.65
-2120.06
-2142.01
-1810.54
-2157.67
-2126.61
-1750.64
-1857.28
-2306.81
-2233.68
-1850.39
-2053.24
-2692.49
-2387.02
-2224.31
-2055.36
-2414.64
-2362.56
-2289.07
-1919.32
-1670.14
-2358.71
-2513.03
-2544.6
-2612.39
-2141.88
-2291.56
-2118.15
-2350.39
-2346.69
-1993.91
-2259.93
-1970.05
-2025.52
-1596.63
-1580.17
-1442.94
-1449.81
-1742.67
-1738.61
-1376.83
-1405.23
-1808.5
-2592.14
-2698.64
-2698.5
-2718.33
-2715.31
-2696.82
-2722.16
-2748.52
-2674.36
-2415.13
-2663.4
-2628.21
-2467.62
-2850.93
-2743.37
-2668.44
-2761.87
-2854.35
-2910.45
-2820.95
-2356.83
-2521.77
-2454.01
-2673.81
-2538.75
-2599.23
-2333.76
-2836.51
-2971.35
-2523.04
-2687.25
-2541.99
-2869.28
-2736.79
-2697.96
-2670.72
-2868.83
-2708.38
-2707.4
-2880.53
-2636.26
-2749.67
-3159.8
-2958.04
-2696.39
-2967.12
-2633.39
-2884.43
-2919.03
-2644.76
-2741.99
-2973.9
-3105.03
-2518.48
-2979.05
-2778.18
-2625.81
-3081.91
-2956.22
-2747.27
-2987.16
-2968.98
-2581.07
-2462.07
-3076.99
-2931.44
-2563.43
-3029.98
-3123.12
-2963.68
-2932.81
-2880.48
-2193.19
-2708.42
-2315.02
-2510.34
-2406.39
-2618.5
-2086.74
-2925.4
-2975.92
-2104.9
-2796.82
-2743.56
-2508.01
-2474.12
-2283.54
-2914.99
-2900.28
-2623.33
-2118.38
-2925.87
-2492.27
-2570.05
-2764.74
-2238.1
-2775.01
-2366.94
-2390.61
-2558.86
-2138.78
-2969.88
-2773.15
-2851.22
-2377.92
-2462.49
-2262.48
-2760.02
-2761.3
-2414.32
-2486.26
-2344.82
-2359.24
-2373.06
-2538.33
-2375.78
-2536.65
-2052
-2370.09
-2288.99
-2206.19
-2340.17
-2296.02
-1944.41
-2054.46
-2349.07
-2133.72
-2500.98
-2417.18
-2291.57
-2257.28
-2594.53
-2677.85
-2438.9
-2386.68
-2437.14
-2349.93
-2326.92
-2347.98
-1934.53
-1742.76
-2400.6
-1918.17
-2305.01
-2339.02
-2115.99
-2094.38
-2370.14
-2065.69
-2624.02
-2420.13
-2374.6
-2345.36
-2361.24
-2107.8
-2551.32
-2303.52
-2738.6
-3037.69
-2524.68
-2692.99
-2196.12
-2631.67
-2194.18
-2285.64
-2784.27
-3135.66
-2402.36
-2303.05
-2772.71
-2941.15
-2634.82
-2819.64
-2050.76
-1478.5
-3152.44
-2664.12
-2786.31
-1989.43
-1462.3
-2106.32
-2793.72
-3134.38
-3074.09
-2136.77
-2853.11
-3049.75
-2810.11
-3063.33
-2505.17
-3009.3
-2727.09
-2582.66
-2828.63
-3032.48
-2719.75
-2800.82
-2968.73
-2789.19
-2912.45
-2805.3
-2871.19
-2311.55
-2547.82
-3288.02
-2411.64
-3153.85
-2552.82
-2971.14
-2692.63
-2819.32
-2478.13
-2637.92
-3173.5
-2673.55
-3146.09
-2538.44
-2593.57
-3024.26
-2256.06
-3118.02
-3279.44
-3236.99
-2958.62
-3041.09
-3090.69
-3039.09
-3084.73
-2522.16
-2521.37
-2988.66
-2299.24
-2763.02
-2613.22
-2594.96
-2955.16
-2797.4
-2999.46
-2393.87
-2748.23
-3042.85
-2990.05
-3180.7
-2773.01
-3057.61
-3090.79
-2419.57
-2827.35
-2868.53
-2820.36
-2513.14
-2837.64
-2436.99
-2726.77
-1896.75
-2372.67
-2587.99
-2456.58
-2134.86
-2473.4
-2128.36
-2063.44
-2479.51
-2500.9
-2124.97
-2631.96
-3030.48
-2903.91
-3140.72
-2742.44
-2975.41
-3215.15
-2503.42
-3276.06
-2516.03
-2710.36
-2669.28
-2445.36
-2976.85
-2133.47
-2297.46
-2840.36
-2146.38
-2535.16
-2809.46
-2473.97
-2207.11
-1765.17
-1666.62
-2720.48
-2398.31
-1506.59
-1497.47
-1676.38
-2665.63
-2057.55
-2533.45
-2022.83
-2503.72
-2129.49
-2545.25
-2080.14
-2449.79
-3003.11
-2810.83
-3091.28
-2216.08
-2149.39
-2656.49
-2724.95
-2696.26
-2998.87
-2455.88
-3194.55
-2528.09
-2563.18
-3120.54
-2423.89
-2702.27
-3033.51
-2143.27
-3126.06
-2448.21
-2420.7
-2154.73
-2777.27
-2495.76
-2756.35
-2886.02
-2461.65
-1819.74
-2223.41
-1758.59
-2719.51
-2331.57
-1534.65
-1701.46
-1503.06
-2602.08
-2587.79
-3040.09
-2746.35
-2965.6
-3028.79
-2666.76
-3012.67
-3069.6
-3054.23
-2919.14
-2581.66
-2797.55
-2882.09
-2804.21
-2402.73
-2601.42
-2397.59
-2699.8
-3247.19
-3256.1
-3385.83
-2807.01
-2674.56
-3289.41
-3239.76
-2136.1
-2907.81
-3020.58
-2456.04
-3258.56
-3297.42
-2302.99
-2972.48
-2938.28
-2483
-3316.72
-3281.19
-3275.56
-2301.38
-2995.37
-3030.03
-2476.36
-3328.03
-2975.02
-2443.89
-3133.13
-2832.3
-2251.74
-3088.77
-3107.78
-3050.54
-2921.5
-3274.05
-3251.99
-3296.36
-3373.26
-2136.39
-3047.06
-3379.4
-2353.67
-2909.59
-3099.03
-3108.68
-2867.46
-2647.98
-3171.95
-2770.91
-2338.29
-3049.44
-3101.69
-3124.07
-2858.08
-3312.57
-2311.19
-2983.67
-3356.34
-2312.04
-2775.65
-3111.97
-3041.8
-3030.18
-3000.52
-3116.52
-3158.2
-2898.61
-2729.88
-2689.33
-2752.07
-2673.87
-3017.99
-2315.83
-2839.42
-2795.21
-2913.26
-2907.51
-2912.5
-2874.24
-2570.93
-2287.11
-2178.7
-2388.35
-2510.08
-2405.7
-2405.24
-2463.18
-2561.55
-2181.25
-2148.73
-2745.19
-3273.13
-3270.43
-3116.43
-2185.6
-2097.61
-2916.29
-2493.87
-3179.43
-2767.03
-2122.4
-2132.97
-2404.51
-2167.26
-2130.45
-2118.17
-2157.04
-1747.89
-1421.98
-2683.66
-2732.79
-2670.92
-2771.78
-2684.96
-2840.08
-2429.96
-3352.82
-3136.73
-2525
-2683.85
-2127.05
-1761.2
-1432.35
-1812.19
-2095.77
-2623.34
-2142.75
-2201.08
-2668.36
-2623.79
-2518.86
-2553.58
-2773.5
-2662.22
-3105.44
-2370.59
-2270.46
-2882.44
-2900.96
-2944.29
-2348.06
-2246.43
-2538.99
-2446.69
-2469.39
-2216.45
-2084.29
-2996.32
-2587.15
-2864.25
-2900.01
-3072.31
-3011.29
-2947.38
-2222.91
-3072.49
-3028.72
-2973.26
-3183.41
-3182.16
-2891.91
-2435.61
-2598.04
-2663.98
-2738.14
-2627.8
-2610.18
-2651.3
-2519.88
-2292.58
-2689.74
-2581.89
-2584.21
-2597.25
-2641.13
-2633.87
-2687.46
-2690.83
-2770.56
-2654.41
-2876.47
-2258.56
-2675.16
-2853.25
-2609.12
-2179.22
-2667.01
-2667.49
-2863.55
-2869.2
-2687.02
-2666.19
-2594.06
-2268.42
-2574.25
-2709.01
-2854.05
-2766.17
-2607.39
-2448.2
-2569.37
-2601.28
-2908.95
-3045.09
-2410.29
-2717.41
-2994.03
-3004.95
-2991.19
-2916.48
-2956.98
-3148.27
-2379.6
-2850.62
-2991.52
-2937.8
-2978.04
-2941.88
-2953.89
-2491.18
-2531.63
-2945.65
-2862.73
-2894.77
-2743.42
-2424.68
-2564.89
-2919.14
-2970.68
-2315.14
-2588.27
-2759.58
-2782.88
-2778.9
-2580.81
-2881.3
-2785.47
-2455.95
-2530.78
-2617.34
-2379.26
-2370.12
-2130.57
-2094.86
-2507.63
-2275.82
-2294.93
-2294.85
-1666.74
-1705.81
-2256.13
-2602.64
-2318.65
-2324.06
-2330.8
-2262.29
-2214.88
-1908.88
-2321.03
-2262.93
-2005.54
-2664.33
-2568.49
-1901.93
-2296.64
-2538.7
-1926.16
-2201.52
-2209.75
-1911.17
-2665.22
-2770.93
-2147.22
-2514.01
-2193.24
-2153.04
-2213.04
-2615.48
-2556.45
-2911.62
-2696.24
-2223.81
-2605.28
-3059.41
-2338.67
-2638.51
-2717.96
-2747.14
-2660.02
-2798.48
-2696.53
-2833.19
-2849.09
-2336.12
-2557.31
-2679.87
-2664.91
-2716.29
-2847.03
-3380.78
-2088.44
-3134.59
-3339.72
-2280.57
-3100.14
-3101.2
-2950.58
-2511.37
-2975.13
-2332.69
-3278.18
-2226.1
-2849.29
-2854.19
-3250.87
-3075.35
-3126.74
-2965.87
-1988.58
-3100.7
-2666.38
-2422.31
-2605.17
-2305.01
-1751.14
-1845.7
-2538.93
-2337.46
-2364.72
-2257.01
-2655.33
-2071.88
-2263.82
-1742.36
-2522.15
-2278.6
-1390.37
-1392.16
-1821.5
-1391.67
-1829.99
-1770.8
-1516.85
-2702.43
-1780.95
-2233.09
-2635.37
-2644.88
-2515.61
-2543.86
-2255.74
-2188.3
-2200.51
-2172.63
-2606.01
-2556.94
-2141.66
-2765.96
-2670.09
-2536.73
-2959.03
-2687.68
-2822.4
-2672.83
-2218.22
-2626.08
-3030.09
-2390.75
-2744.32
-2745.96
-2738.75
-2853.69
-2507.01
-2757.96
-2935.36
-2564.76
-2341.66
-3106.13
-3196.77
-3149.79
-3395.95
-3308.61
-2949.8
-3261.97
-2292.69
-2899.52
-2499.19
-3032.7
-3182.38
-2764.58
-3186.92
-2951.35
-2843.84
-2885.3
-3182.27
-2695.19
-2322.19
-2908.24
-2494.84
-2374.98
-2399.5
-2228.7
-2765.52
-2329.86
-2243.9
-1809.08
-2547.47
-2283.71
-2681.02
-2209.5
-1780.53
-1785.31
-1519.4
-2644.28
-2681.37
-2837.95
-2524.88
-2739
-2650.35
-2704.03
-2638.64
-2742.51
-2796.59
-2972.82
-2290.79
-2526.18
-2823.2
-2565.85
-2617.59
-2710.49
-2759.33
-2873.56
-2897.61
-2747.87
-2658.56
-2690.28
-3060.89
-2978.19
-3124.03
-2143.99
-2790.29
-2984.33
-2950.46
-2965.89
-2989.51
-2296.12
-2951.24
-3105.13
-2404.41
-2966.68
-2960.88
-2461.99
-2856.63
-2930.93
-2898.3
-2850.51
-2426.83
-2892.32
-2840.29
-2869.91
-2766.18
-2015.39
-2379.61
-2315.78
-1716.96
-2260.56
-2606.31
-1995.28
-2581.36
-2271.68
-2224.38
-2520.98
-2666.23
)
;
    }
}


// ************************************************************************* //
