/*--------------------------------*- C++ -*----------------------------------*\
| =========                 |                                                 |
| \\      /  F ield         | OpenFOAM: The Open Source CFD Toolbox           |
|  \\    /   O peration     | Version:  v1906                                 |
|   \\  /    A nd           | Web:      www.OpenFOAM.com                      |
|    \\/     M anipulation  |                                                 |
\*---------------------------------------------------------------------------*/
FoamFile
{
    version     2.0;
    format      ascii;
    class       volScalarField;
    location    "77";
    object      alphat;
}
// * * * * * * * * * * * * * * * * * * * * * * * * * * * * * * * * * * * * * //

dimensions      [1 -1 -1 0 0 0 0];


internalField   nonuniform List<scalar> 
78750
(
0.000646008
0.00153417
0.00112866
0.000443976
2.85704e-05
3.4937e-05
3.46149e-05
3.32077e-05
3.73537e-05
3.97177e-05
4.27313e-05
4.65131e-05
5.11831e-05
5.54692e-05
5.77022e-05
5.82655e-05
5.82456e-05
5.84487e-05
5.90036e-05
5.9405e-05
5.93406e-05
5.85468e-05
5.68438e-05
5.42476e-05
5.09733e-05
4.73239e-05
4.35462e-05
3.9781e-05
3.60709e-05
3.241e-05
2.87768e-05
2.48369e-05
2.19778e-05
1.41781e-05
6.50661e-07
2.3597e-05
0.000172055
1.48675e-05
5.58956e-05
9.8098e-05
0.000120553
9.35251e-05
8.47629e-05
7.77045e-05
6.96158e-05
6.02136e-05
5.47067e-05
5.96839e-05
8.37676e-05
0.000124663
0.00014122
0.000144846
0.000158522
0.000179608
0.000194005
0.000189338
0.000185402
0.00017943
0.000168237
0.000157915
0.00014879
0.000139583
0.000129164
0.000117269
0.000104132
8.97355e-05
7.24911e-05
4.04946e-05
9.00161e-06
1.63468e-06
7.88221e-06
6.47413e-05
0.000259584
0.000208085
0.000154948
0.000149848
0.000150663
0.000136698
0.00012238
0.000106476
8.48018e-05
6.38026e-05
5.02619e-05
4.53061e-05
4.98236e-05
6.81045e-05
9.81737e-05
0.000112701
0.00011416
0.000117428
0.000121813
0.000123021
0.000120516
0.000115918
0.000110426
0.00010443
9.80971e-05
9.15403e-05
8.45896e-05
7.64909e-05
6.50908e-05
4.60761e-05
2.23607e-05
1.18951e-05
3.07232e-06
3.96487e-06
1.28222e-05
3.06529e-05
7.02672e-05
0.000141335
0.000145487
0.000105033
8.06165e-05
7.22404e-05
7.48319e-05
8.45833e-05
9.10628e-05
8.0679e-05
6.22235e-05
4.94739e-05
4.52898e-05
5.22843e-05
7.96268e-05
0.000131675
0.000174994
0.000194285
0.000200272
0.000196796
0.000188601
0.000172477
0.000155237
0.000139158
0.000124144
0.000109361
9.34476e-05
7.26663e-05
4.07624e-05
1.48628e-05
9.71524e-06
4.11081e-06
9.00531e-06
5.98471e-05
0.000229835
0.000211117
0.000138092
9.01156e-05
6.79266e-05
6.10271e-05
6.25617e-05
6.8362e-05
7.33671e-05
7.01583e-05
5.88017e-05
5.05815e-05
5.7641e-05
0.000100629
0.000198732
0.000210219
0.000205801
0.000202258
0.000199581
0.000197601
0.000196113
0.000194935
0.000166487
0.000140705
0.000121901
0.000107164
9.30067e-05
7.6121e-05
5.36434e-05
2.9842e-05
1.80737e-05
2.23513e-05
5.35334e-06
8.19453e-06
3.29248e-05
9.57695e-05
0.000176731
0.000126074
7.96427e-05
6.33168e-05
6.1971e-05
6.6542e-05
7.37897e-05
8.1916e-05
8.3028e-05
6.82008e-05
4.92559e-05
3.99416e-05
4.31083e-05
6.76056e-05
0.000135835
0.000208058
0.00021013
0.000206827
0.000204123
0.000201917
0.000200095
0.000184101
0.000161635
0.00014021
0.000122264
0.0001086
9.88829e-05
8.6936e-05
4.59749e-05
1.03984e-05
1.00533e-05
5.97035e-06
1.06159e-05
9.49263e-05
0.000202811
0.000122599
6.48393e-05
4.04878e-05
3.29434e-05
3.43905e-05
3.94996e-05
4.5189e-05
5.9048e-05
8.76114e-05
0.000107253
0.000133124
0.000199752
0.00019454
0.000146766
0.00013887
0.000152112
0.000164496
0.000170763
0.000173654
0.000173705
0.000169525
0.000160051
0.000145511
0.000127083
0.000105455
8.02429e-05
5.22355e-05
2.84255e-05
1.71512e-05
1.61956e-05
3.29459e-05
7.25417e-06
8.08492e-06
4.27568e-05
0.000135501
0.000140054
8.69991e-05
5.64978e-05
4.89279e-05
5.30418e-05
5.50057e-05
4.94963e-05
4.57655e-05
4.74683e-05
5.44588e-05
6.64583e-05
8.19468e-05
9.87606e-05
0.000113402
0.000124261
0.000132388
0.00013938
0.000145255
0.000148791
0.000148758
0.000144625
0.000136682
0.000126268
0.000115369
0.000104815
9.1068e-05
6.55935e-05
3.23121e-05
1.4282e-05
1.44903e-05
4.62918e-05
7.43595e-06
1.02725e-05
8.31614e-05
0.000203301
0.000152471
8.1712e-05
4.5122e-05
2.86431e-05
2.41749e-05
3.62199e-05
0.000104402
0.000224732
0.000225564
0.000211763
0.000158779
0.000132401
0.000130298
0.000139892
0.000149174
0.000152658
0.0001515
0.000147905
0.000142652
0.00013569
0.00012705
0.000116998
0.000105862
9.42395e-05
8.30781e-05
7.44533e-05
7.24271e-05
7.25683e-05
3.59354e-05
9.47196e-06
1.77276e-05
7.56397e-06
7.60098e-06
3.84839e-05
0.000117194
0.000166378
0.000176596
0.000137318
7.30904e-05
4.24673e-05
3.26754e-05
3.27591e-05
3.85313e-05
4.79994e-05
6.1047e-05
8.00985e-05
0.000106149
0.000135518
0.000160731
0.000177028
0.000185004
0.000186979
0.000184411
0.000178104
0.000168746
0.000156943
0.000143219
0.000127936
0.000111225
9.31872e-05
7.34831e-05
5.10897e-05
3.22572e-05
2.01449e-05
8.064e-06
1.77585e-05
8.99085e-06
9.73292e-06
6.70671e-05
0.000189168
0.000208853
0.000159346
0.000108242
7.71373e-05
5.52143e-05
3.99855e-05
3.38342e-05
3.74511e-05
5.50444e-05
9.75519e-05
0.000165148
0.000215544
0.000231232
0.000231513
0.00023175
0.000231878
0.000231874
0.000231703
0.000231317
0.000230639
0.000214554
0.000195279
0.000174145
0.000149619
0.000118105
7.52137e-05
3.31984e-05
1.46391e-05
1.33425e-05
2.23453e-05
8.03189e-05
9.07653e-06
7.69193e-06
3.74006e-05
0.000114103
0.000173192
0.000189501
0.000175476
0.000130429
8.60234e-05
5.92784e-05
4.41305e-05
3.57816e-05
3.28172e-05
3.58242e-05
4.7383e-05
7.06596e-05
0.000104325
0.00014087
0.000172023
0.000191931
0.000199395
0.000197807
0.000190954
0.000180695
0.000167722
0.000152622
0.000135983
0.000118052
9.81764e-05
7.26956e-05
3.9621e-05
1.65826e-05
1.13318e-05
2.42672e-05
9.50294e-05
8.59289e-06
8.79902e-06
4.75985e-05
0.000136658
0.00019767
0.00019287
0.000152457
0.000108893
8.11664e-05
6.83983e-05
6.33397e-05
5.70607e-05
4.74604e-05
4.04119e-05
4.07207e-05
5.47869e-05
9.75596e-05
0.000168322
0.000201347
0.000199761
0.000193017
0.000184974
0.00017424
0.00016108
0.000146378
0.000130966
0.000115428
0.000100208
8.54717e-05
7.07326e-05
5.50089e-05
3.57819e-05
1.77923e-05
1.49626e-05
5.19839e-05
8.38575e-06
8.43708e-06
3.71579e-05
0.000108865
0.000168415
0.000177195
0.000159514
0.000123147
8.60549e-05
6.45334e-05
5.85816e-05
6.22802e-05
6.53106e-05
5.85265e-05
4.77127e-05
4.20827e-05
4.63017e-05
6.63866e-05
0.000110982
0.000172567
0.000212923
0.000220464
0.000211048
0.000194385
0.000173935
0.000152181
0.000131022
0.000111694
9.55079e-05
8.23669e-05
6.73133e-05
5.116e-05
2.58516e-05
8.47842e-06
1.92448e-05
9.12472e-06
9.74086e-06
4.94914e-05
0.00014384
0.000191966
0.000175776
0.000127165
8.10025e-05
5.55832e-05
4.57912e-05
4.74859e-05
6.24915e-05
9.16051e-05
0.000110166
9.00447e-05
6.35051e-05
5.43346e-05
6.87432e-05
0.000124947
0.000219403
0.000241744
0.000242883
0.00024449
0.000246118
0.000222846
0.000192932
0.000162342
0.000133431
0.000106844
7.97245e-05
4.3099e-05
2.54032e-05
1.82761e-05
1.32448e-05
3.6164e-05
1.02004e-05
9.82623e-06
4.37929e-05
0.00012945
0.000176235
0.00015914
0.0001131
7.605e-05
5.82524e-05
5.21138e-05
5.28312e-05
6.02078e-05
7.49986e-05
9.2102e-05
9.58784e-05
7.95559e-05
6.1623e-05
5.643e-05
7.02935e-05
0.000116694
0.000202294
0.000245531
0.000246572
0.000247898
0.00024899
0.000243323
0.000207389
0.000165053
0.0001149
5.84952e-05
2.24693e-05
1.41757e-05
1.93217e-05
3.3802e-05
0.000108623
1.02337e-05
9.97944e-06
4.68536e-05
0.00014215
0.000181528
0.000138937
8.24892e-05
5.2252e-05
4.06664e-05
3.82777e-05
4.33834e-05
6.00019e-05
9.54732e-05
0.000145495
0.000170176
0.000142506
9.88979e-05
7.56192e-05
7.93012e-05
0.000120644
0.000210414
0.000250245
0.000250981
0.000252121
0.000237211
0.000209184
0.00017774
0.000140179
9.37551e-05
4.73296e-05
2.01813e-05
1.27101e-05
2.08323e-05
6.07007e-05
7.66196e-05
9.5784e-06
1.05415e-05
4.55133e-05
0.00013839
0.000171462
0.000122134
7.27628e-05
5.24063e-05
4.90305e-05
4.96807e-05
5.01726e-05
5.49556e-05
6.82226e-05
9.15086e-05
0.000119167
0.000132612
0.000118563
9.30693e-05
7.81113e-05
8.16262e-05
0.000107249
0.000151459
0.000187615
0.000195511
0.000184663
0.0001669
0.00014658
0.000123951
9.70696e-05
6.41481e-05
3.29303e-05
1.62484e-05
1.53044e-05
3.64779e-05
7.59303e-05
9.09968e-06
1.17118e-05
6.17357e-05
0.000168146
0.000144739
7.95126e-05
4.16581e-05
2.92795e-05
3.08208e-05
3.99105e-05
5.28675e-05
7.37225e-05
0.000110239
0.000157341
0.00018834
0.000184344
0.000154294
0.000120363
9.90455e-05
9.68479e-05
0.000115673
0.000149148
0.000174768
0.000178463
0.000167445
0.000151271
0.000134081
0.000116374
9.67807e-05
7.38244e-05
4.91375e-05
2.74416e-05
1.52199e-05
2.21944e-05
9.12041e-05
9.23959e-06
1.18958e-05
6.588e-05
0.000153539
0.000126641
7.63071e-05
4.52648e-05
3.44198e-05
3.74665e-05
4.78529e-05
5.69167e-05
6.5303e-05
7.85884e-05
9.7725e-05
0.000117459
0.000129267
0.000127136
0.000113586
9.86523e-05
9.19695e-05
9.84503e-05
0.00011773
0.00014062
0.00015376
0.000153555
0.000144806
0.000132134
0.000117284
9.88806e-05
7.39104e-05
4.71574e-05
2.88525e-05
1.65785e-05
2.20989e-05
0.00010126
9.84229e-06
1.11112e-05
6.24101e-05
0.000154322
0.000161284
0.000121989
6.96127e-05
3.80834e-05
2.58507e-05
2.62931e-05
3.74773e-05
5.83618e-05
8.43349e-05
0.000108494
0.000125778
0.000133298
0.000130885
0.000122179
0.000113606
0.000111488
0.00011979
0.000137823
0.000157282
0.000167206
0.000164461
0.000152614
0.000135322
0.000113724
8.66148e-05
5.54317e-05
3.28922e-05
2.52167e-05
2.30982e-05
3.73822e-05
0.000118339
1.02749e-05
1.02438e-05
4.90606e-05
0.000137996
0.000182263
0.000186392
0.000155455
9.19715e-05
4.85175e-05
2.98069e-05
2.37381e-05
2.59086e-05
3.6271e-05
5.48765e-05
7.83417e-05
9.91662e-05
0.000110864
0.000112921
0.000110303
0.000109775
0.000116416
0.000131362
0.000149912
0.000162887
0.000164244
0.000154726
0.000137285
0.000113083
8.17221e-05
4.8064e-05
2.61625e-05
2.10385e-05
2.80334e-05
5.87885e-05
0.000100293
1.0225e-05
9.5892e-06
4.48881e-05
0.000135373
0.000199022
0.000195276
0.000171642
0.000144379
0.000103801
6.28376e-05
3.86699e-05
2.67279e-05
2.24902e-05
2.58753e-05
3.85741e-05
6.02671e-05
8.4165e-05
0.000101602
0.000111504
0.000118472
0.000126953
0.000138053
0.000148644
0.000153677
0.000150571
0.000140254
0.000124644
0.000104757
8.03388e-05
5.21478e-05
2.86098e-05
1.96736e-05
2.71244e-05
6.54895e-05
8.59056e-05
9.99534e-06
9.63972e-06
4.21273e-05
0.000128159
0.000195458
0.00019317
0.000160813
0.000133516
0.000126264
0.000123616
9.73757e-05
6.34092e-05
4.08254e-05
2.75548e-05
2.11553e-05
2.22603e-05
3.29489e-05
5.24935e-05
7.4129e-05
9.16773e-05
0.000105564
0.000118005
0.000128447
0.000133987
0.000132559
0.000124645
0.000111975
9.60767e-05
7.81319e-05
5.81465e-05
3.60299e-05
2.08031e-05
2.19233e-05
4.83141e-05
9.03157e-05
1.00456e-05
9.56832e-06
4.12824e-05
0.00012073
0.000196388
0.000193012
0.000146369
0.000101733
8.26572e-05
8.92562e-05
0.000120296
0.000151893
0.000126693
7.76045e-05
4.61353e-05
2.82669e-05
1.89968e-05
1.90142e-05
3.1935e-05
5.74065e-05
8.7331e-05
0.000111867
0.000127514
0.000134409
0.00013297
0.000124165
0.000109674
9.13267e-05
7.18773e-05
5.51063e-05
3.95611e-05
2.36864e-05
2.02493e-05
4.01286e-05
9.70817e-05
1.0387e-05
1.11045e-05
4.96825e-05
0.000150427
0.000208774
0.000182383
0.000137424
0.000108331
9.35073e-05
8.5974e-05
9.15009e-05
0.000119785
0.000169563
0.000195568
0.000142842
7.93989e-05
4.36386e-05
2.39056e-05
1.35888e-05
1.50804e-05
3.24914e-05
6.24566e-05
9.48329e-05
0.000117538
0.000126157
0.000122553
0.00010938
8.87982e-05
6.47248e-05
4.54056e-05
3.37123e-05
2.36254e-05
2.15791e-05
4.34842e-05
9.76791e-05
1.07467e-05
1.2683e-05
7.08288e-05
0.000191498
0.000186464
0.00013736
9.6632e-05
8.3054e-05
9.14628e-05
0.000110123
0.000123168
0.000134383
0.000161073
0.00020774
0.000247831
0.000219034
0.00012499
6.20365e-05
3.12302e-05
1.41695e-05
9.05623e-06
2.3143e-05
5.33322e-05
8.87942e-05
0.000113001
0.000118509
0.000108214
8.61744e-05
5.86316e-05
3.72685e-05
2.77083e-05
2.39595e-05
2.72388e-05
5.83888e-05
8.80646e-05
1.0853e-05
1.30475e-05
7.69785e-05
0.000177228
0.000175749
0.000146426
0.000115521
9.58479e-05
8.92741e-05
9.57892e-05
0.000112678
0.000131413
0.000146738
0.000165053
0.000192317
0.000220555
0.000218777
0.000153616
7.89797e-05
3.80152e-05
1.56975e-05
5.951e-06
1.78201e-05
4.62365e-05
7.82646e-05
9.79402e-05
9.86292e-05
8.24151e-05
5.61761e-05
3.36152e-05
2.36979e-05
2.36408e-05
3.37752e-05
7.78845e-05
7.71461e-05
1.07239e-05
1.14359e-05
5.61152e-05
0.000152753
0.000181566
0.00017389
0.000146774
0.000108252
7.58543e-05
6.01615e-05
6.13758e-05
7.91698e-05
0.000112386
0.00015324
0.000191097
0.000222117
0.000243457
0.000238536
0.000178985
9.39552e-05
4.35865e-05
1.72171e-05
6.46964e-06
2.04683e-05
5.14086e-05
8.12371e-05
9.25409e-05
8.3118e-05
5.97204e-05
3.56277e-05
2.28975e-05
2.30854e-05
3.8692e-05
9.45582e-05
6.79419e-05
1.04884e-05
1.04919e-05
4.54239e-05
0.000134817
0.000185936
0.0001896
0.000173555
0.000139598
9.41626e-05
5.92613e-05
4.35993e-05
4.42521e-05
5.94403e-05
8.91697e-05
0.000131075
0.000177331
0.000216902
0.000238723
0.000229096
0.000174552
9.82885e-05
4.76889e-05
2.08547e-05
1.31928e-05
2.87859e-05
5.81529e-05
8.21163e-05
8.57568e-05
6.90097e-05
4.3379e-05
2.53381e-05
2.1752e-05
3.60072e-05
9.32768e-05
6.43194e-05
1.03667e-05
1.07353e-05
4.77894e-05
0.000145253
0.000201849
0.000195613
0.000176622
0.000153443
0.000118999
7.78758e-05
4.98262e-05
3.93729e-05
4.37884e-05
6.17084e-05
9.21024e-05
0.000130989
0.000169163
0.00019358
0.000192906
0.000163943
0.000115256
6.74632e-05
3.51498e-05
1.96227e-05
2.60361e-05
5.07996e-05
7.78816e-05
8.88015e-05
7.92038e-05
5.57828e-05
3.2821e-05
2.33746e-05
3.30323e-05
8.35737e-05
6.65635e-05
1.04787e-05
1.16359e-05
5.65452e-05
0.000163281
0.00020944
0.000207279
0.000188685
0.000165705
0.000141198
0.000110315
7.54401e-05
5.08135e-05
4.0489e-05
4.22625e-05
5.48849e-05
7.59286e-05
9.83057e-05
0.000111322
0.000107307
8.9478e-05
6.83813e-05
4.96112e-05
3.36202e-05
2.5692e-05
3.40276e-05
5.50846e-05
7.77592e-05
8.85865e-05
8.3378e-05
6.57311e-05
4.23873e-05
2.71728e-05
3.09116e-05
7.06902e-05
7.61513e-05
1.08287e-05
1.1676e-05
5.32619e-05
0.000143601
0.000192783
0.000194089
0.000175993
0.000150303
0.000125795
0.000105737
8.83508e-05
7.03284e-05
5.22832e-05
3.9082e-05
3.33889e-05
3.6304e-05
4.71808e-05
6.05065e-05
7.00856e-05
7.07231e-05
6.05016e-05
4.64727e-05
3.6994e-05
3.69957e-05
4.72344e-05
6.36678e-05
7.91741e-05
8.69998e-05
8.39108e-05
7.0514e-05
4.99297e-05
3.21364e-05
3.19205e-05
6.66797e-05
8.84533e-05
1.12782e-05
1.21636e-05
5.17395e-05
0.000144424
0.000193527
0.000188084
0.000167435
0.000143355
0.000119039
9.48246e-05
7.56267e-05
6.90842e-05
7.32689e-05
6.82693e-05
4.8519e-05
3.42062e-05
3.24027e-05
4.7537e-05
7.59346e-05
9.19259e-05
8.33349e-05
6.14036e-05
4.20903e-05
3.52922e-05
4.24426e-05
5.89214e-05
7.48718e-05
8.16353e-05
7.91635e-05
6.86819e-05
5.09837e-05
3.49889e-05
3.55007e-05
7.35098e-05
9.59535e-05
1.16677e-05
1.24522e-05
5.86235e-05
0.000171652
0.000200523
0.000182966
0.000155689
0.000131692
0.000112168
8.80343e-05
6.00145e-05
4.54097e-05
5.51573e-05
8.91545e-05
0.00010268
6.18031e-05
3.75212e-05
3.47289e-05
5.34469e-05
9.77021e-05
0.000133096
0.000117064
7.5447e-05
4.6843e-05
4.0349e-05
4.95635e-05
6.43408e-05
7.19511e-05
6.96486e-05
6.16142e-05
4.87316e-05
3.81109e-05
4.47038e-05
9.62612e-05
9.26832e-05
1.18754e-05
1.20338e-05
6.01635e-05
0.000169725
0.000195089
0.000178718
0.000144241
0.000113259
9.4037e-05
7.68644e-05
5.30505e-05
3.33765e-05
3.05526e-05
4.60153e-05
5.88669e-05
5.06434e-05
4.22317e-05
5.19962e-05
8.99023e-05
0.000125577
0.000129956
0.000111111
8.00436e-05
5.31024e-05
4.15236e-05
4.45272e-05
5.39531e-05
5.86661e-05
5.64056e-05
5.15333e-05
4.55173e-05
4.38695e-05
6.23797e-05
0.000131314
8.265e-05
1.18754e-05
1.13127e-05
5.43445e-05
0.000154879
0.000187298
0.000167463
0.000126742
9.36067e-05
7.65431e-05
6.68684e-05
5.32419e-05
3.54854e-05
2.46807e-05
2.76422e-05
4.22153e-05
6.60974e-05
9.29401e-05
0.000103399
0.000107141
0.000110372
0.000106662
9.14644e-05
6.88419e-05
4.87962e-05
3.84154e-05
3.86205e-05
4.43586e-05
4.67978e-05
4.57748e-05
4.59987e-05
4.72506e-05
5.47806e-05
8.76035e-05
0.00015578
7.13485e-05
1.15876e-05
1.17593e-05
5.49362e-05
0.000162274
0.000196569
0.000173176
0.000132173
9.89529e-05
8.23251e-05
7.74247e-05
7.35546e-05
5.99461e-05
4.17769e-05
3.20542e-05
3.52663e-05
4.77721e-05
6.40657e-05
8.05283e-05
9.61815e-05
0.000108421
0.000110941
9.90291e-05
7.63454e-05
5.33377e-05
3.83057e-05
3.32965e-05
3.55217e-05
3.76625e-05
3.69721e-05
3.9726e-05
4.90522e-05
6.8192e-05
0.000111487
0.000159484
6.22874e-05
1.10557e-05
1.18293e-05
5.2875e-05
0.00015428
0.000193521
0.00017277
0.000131523
9.6804e-05
8.01302e-05
7.95777e-05
9.18102e-05
0.000107003
9.85337e-05
6.58643e-05
4.02701e-05
2.88358e-05
3.00674e-05
4.62855e-05
7.3895e-05
9.78537e-05
0.000109544
0.000107145
9.05989e-05
6.64033e-05
4.54709e-05
3.39297e-05
3.13222e-05
3.26056e-05
3.19747e-05
3.2967e-05
4.36559e-05
7.25603e-05
0.000124081
0.000151866
5.64684e-05
1.05804e-05
1.2091e-05
5.35794e-05
0.000153489
0.000189408
0.000169116
0.000127348
9.12366e-05
7.38533e-05
7.13522e-05
7.91061e-05
9.68521e-05
0.000122966
0.000133454
9.71651e-05
5.35862e-05
3.03274e-05
2.33305e-05
3.2695e-05
6.06889e-05
9.08502e-05
0.000102556
9.50023e-05
7.5441e-05
5.37106e-05
3.80286e-05
3.10884e-05
3.05519e-05
3.04127e-05
2.9191e-05
3.48478e-05
5.87088e-05
0.000113007
0.000143789
5.49408e-05
1.04451e-05
1.23484e-05
5.70007e-05
0.000159866
0.000186713
0.000162437
0.000120699
8.72773e-05
7.28252e-05
7.37522e-05
8.37844e-05
9.715e-05
0.000113274
0.000132527
0.000139749
0.000106716
5.81977e-05
3.07925e-05
2.1795e-05
2.89307e-05
5.22096e-05
7.5774e-05
8.15716e-05
7.18437e-05
5.56418e-05
4.06672e-05
3.18249e-05
2.99432e-05
3.08975e-05
2.94229e-05
3.00409e-05
4.3813e-05
8.61704e-05
0.000136752
5.72282e-05
1.06536e-05
1.25109e-05
5.94847e-05
0.000164592
0.000185254
0.000161626
0.000121498
8.71348e-05
7.06652e-05
7.0934e-05
8.41208e-05
0.000103684
0.000120595
0.000131275
0.000136109
0.000128119
9.56725e-05
5.45138e-05
2.97185e-05
2.13231e-05
2.76337e-05
4.52313e-05
5.91994e-05
5.97534e-05
5.10466e-05
3.9734e-05
3.12547e-05
2.88629e-05
3.10547e-05
3.15411e-05
2.94105e-05
3.55292e-05
6.39855e-05
0.00012594
6.19869e-05
1.10572e-05
1.24654e-05
5.98911e-05
0.000161872
0.000184795
0.000168549
0.000135688
9.87974e-05
7.37645e-05
6.56772e-05
7.2614e-05
9.17995e-05
0.000117611
0.000141005
0.000154963
0.000155766
0.000137459
9.7197e-05
5.50788e-05
3.04602e-05
2.16519e-05
2.61548e-05
3.83467e-05
4.53047e-05
4.27403e-05
3.54763e-05
2.87158e-05
2.6614e-05
2.97674e-05
3.2968e-05
3.09629e-05
3.31729e-05
5.53833e-05
0.000120623
6.63991e-05
1.14462e-05
1.25727e-05
6.16708e-05
0.000164376
0.000188084
0.000177157
0.000152765
0.000119281
8.72486e-05
6.87758e-05
6.61626e-05
7.74444e-05
9.9923e-05
0.000128283
0.000154619
0.000171264
0.000170869
0.00014589
9.94807e-05
5.63661e-05
3.16059e-05
2.19114e-05
2.38978e-05
3.06069e-05
3.24602e-05
2.90976e-05
2.47009e-05
2.3411e-05
2.71132e-05
3.23746e-05
3.26201e-05
3.47734e-05
5.74221e-05
0.000128009
6.85067e-05
1.16845e-05
1.24089e-05
6.11558e-05
0.00016381
0.000190681
0.000184479
0.000167067
0.000140697
0.000107259
7.82652e-05
6.42556e-05
6.61886e-05
8.25084e-05
0.000110517
0.000143805
0.000173395
0.00019038
0.000185303
0.000151262
9.92067e-05
5.64474e-05
3.20163e-05
2.1361e-05
2.04304e-05
2.24896e-05
2.20691e-05
2.01043e-05
1.9923e-05
2.41038e-05
3.06287e-05
3.43015e-05
3.97962e-05
6.75375e-05
0.000142376
6.82046e-05
1.17342e-05
1.23002e-05
5.99215e-05
0.000163916
0.000196116
0.00019385
0.000182124
0.000164154
0.000136197
9.94771e-05
7.03364e-05
5.89815e-05
6.47862e-05
8.62728e-05
0.000120563
0.000159968
0.000193663
0.000210457
0.000198746
0.00015452
9.79083e-05
5.59819e-05
3.16826e-05
1.95642e-05
1.60031e-05
1.60358e-05
1.57994e-05
1.6436e-05
2.10536e-05
2.8542e-05
3.54409e-05
4.69471e-05
8.37262e-05
0.000155073
6.62004e-05
1.16767e-05
1.21627e-05
5.89099e-05
0.000163842
0.000198926
0.000196618
0.000185923
0.000173503
0.000157349
0.000129009
9.06505e-05
6.38022e-05
5.72798e-05
6.95259e-05
9.93331e-05
0.00014266
0.000188698
0.000223042
0.000231736
0.00020484
0.00014892
9.18516e-05
5.30104e-05
2.9409e-05
1.63129e-05
1.23851e-05
1.25553e-05
1.35362e-05
1.79995e-05
2.72285e-05
3.74301e-05
5.48071e-05
0.000101965
0.000161134
6.32554e-05
1.15583e-05
1.23183e-05
6.06816e-05
0.000166993
0.000200297
0.00019707
0.000185615
0.000173628
0.000162275
0.000145422
0.000113996
7.80402e-05
5.92096e-05
6.13834e-05
8.29672e-05
0.000122118
0.00017157
0.000217251
0.000243015
0.000235862
0.000194168
0.000135131
8.37545e-05
4.92384e-05
2.6357e-05
1.36765e-05
1.08131e-05
1.13977e-05
1.45098e-05
2.42868e-05
4.02597e-05
6.39748e-05
0.000115653
0.000162186
6.07547e-05
1.13716e-05
1.24801e-05
6.3942e-05
0.000169439
0.000198516
0.000195069
0.000183582
0.000170624
0.000158596
0.000145524
0.00012466
9.35668e-05
6.83073e-05
6.21061e-05
7.6185e-05
0.000109078
0.000155412
0.000203053
0.000236403
0.000242543
0.000217449
0.000170012
0.000117842
7.54849e-05
4.51755e-05
2.35501e-05
1.29375e-05
1.09203e-05
1.19958e-05
1.85432e-05
3.69675e-05
7.47528e-05
0.000127965
0.000159568
5.7596e-05
1.11254e-05
1.26017e-05
6.70447e-05
0.000173557
0.000199102
0.000195318
0.000184585
0.000172503
0.000160469
0.000147212
0.000129158
0.000103911
7.85914e-05
6.66311e-05
7.33537e-05
9.82221e-05
0.000136734
0.000179157
0.000212788
0.000226748
0.000216445
0.000185879
0.000145137
0.000104466
7.01838e-05
4.26834e-05
2.28927e-05
1.41099e-05
1.1859e-05
1.3671e-05
2.52505e-05
6.07572e-05
0.000130973
0.000151693
5.49636e-05
1.09663e-05
1.24739e-05
6.68767e-05
0.00017344
0.00019745
0.000192043
0.000180621
0.000170072
0.000161773
0.000153252
0.00013974
0.000117607
9.11812e-05
7.35026e-05
7.29817e-05
9.04669e-05
0.000122206
0.000159552
0.00019117
0.000207813
0.000205663
0.000187048
0.000158132
0.000125718
9.42548e-05
6.50225e-05
3.93572e-05
2.34046e-05
1.66995e-05
1.36215e-05
1.69567e-05
3.5329e-05
9.28455e-05
0.000147734
5.82779e-05
1.10838e-05
1.23825e-05
6.61518e-05
0.000172169
0.000194957
0.000187857
0.00017549
0.000166079
0.000161496
0.000158957
0.00015261
0.000135959
0.000108802
8.39389e-05
7.4786e-05
8.46396e-05
0.000110846
0.00014588
0.000178483
0.000198727
0.000202147
0.000190225
0.000168052
0.000140855
0.000112025
8.21118e-05
5.17832e-05
3.20309e-05
2.47331e-05
2.08023e-05
1.68799e-05
2.32037e-05
4.89969e-05
0.000114279
6.82982e-05
1.16104e-05
1.22213e-05
6.54367e-05
0.000168951
0.000189103
0.000179584
0.000166272
0.000158673
0.000158593
0.000162794
0.000164884
0.000156583
0.000132523
0.000101529
8.2772e-05
8.49245e-05
0.000107167
0.000142941
0.000180221
0.000206619
0.000215506
0.000207263
0.000186368
0.000157528
0.000123334
8.4027e-05
4.8051e-05
3.19257e-05
2.9381e-05
2.90544e-05
2.20114e-05
2.08332e-05
3.79197e-05
0.000102617
7.62661e-05
1.24331e-05
1.2107e-05
6.55573e-05
0.0001674
0.000182693
0.0001694
0.000155731
0.000151384
0.000156419
0.000166735
0.000176017
0.000175736
0.000157347
0.000123463
9.51616e-05
8.87373e-05
0.00010699
0.000145503
0.000192159
0.000231149
0.000250878
0.000247103
0.000221054
0.00017641
0.000118708
6.23996e-05
3.28569e-05
2.89463e-05
3.23593e-05
3.08958e-05
2.68748e-05
2.96658e-05
5.76311e-05
0.000147591
6.86884e-05
1.27324e-05
1.19212e-05
6.51829e-05
0.000164924
0.000170527
0.000150647
0.000139097
0.00014208
0.000155389
0.000173137
0.00018911
0.000195855
0.00018429
0.000150994
0.000113406
9.5819e-05
0.000106659
0.000144921
0.000199911
0.000252806
0.000285863
0.000286159
0.000246453
0.000173083
9.31692e-05
4.10339e-05
2.36611e-05
2.86796e-05
3.93219e-05
3.44425e-05
3.2785e-05
5.00645e-05
0.000110485
0.000156934
5.32582e-05
1.19457e-05
1.18651e-05
6.52677e-05
0.000162665
0.000150199
0.000124133
0.000119676
0.000133612
0.000157303
0.000182801
0.000203901
0.000215149
0.000209487
0.000180405
0.000136878
0.000105766
0.000103007
0.000131304
0.000182986
0.000236414
0.000269207
0.000269035
0.000231453
0.000161778
8.64743e-05
3.80982e-05
2.0625e-05
2.36513e-05
4.18285e-05
5.27395e-05
4.93146e-05
7.20198e-05
0.00014179
0.000137466
4.44263e-05
1.07036e-05
1.19431e-05
6.68455e-05
0.000156129
0.000117612
9.44573e-05
0.000102642
0.000129933
0.000164654
0.000197229
0.000222312
0.000236776
0.000236196
0.000213917
0.000170226
0.000126048
0.000105136
0.0001147
0.000151664
0.000198129
0.000229438
0.000234605
0.000214257
0.000170655
0.000110406
5.58393e-05
2.65462e-05
1.92485e-05
2.68147e-05
4.91749e-05
8.32232e-05
0.00012033
0.000162189
0.000133888
4.21705e-05
9.96469e-06
1.22386e-05
7.21129e-05
0.000140514
8.31144e-05
7.22222e-05
9.55203e-05
0.000137645
0.00018117
0.000216197
0.00024112
0.000255725
0.000257753
0.000242163
0.000205347
0.000157225
0.000120842
0.00011023
0.000126396
0.000160316
0.000192304
0.000206492
0.000201095
0.000180194
0.000145729
9.97958e-05
5.55953e-05
2.96053e-05
2.19697e-05
2.70842e-05
5.01343e-05
0.00011385
0.000162025
0.000131083
4.50625e-05
1.0022e-05
1.25513e-05
8.07891e-05
0.000111673
5.73125e-05
5.88391e-05
9.77666e-05
0.000154646
0.000201994
0.000235044
0.000257626
0.000271298
0.000274612
0.000263609
0.000234258
0.000190143
0.000147548
0.000123345
0.000122939
0.00014251
0.000169908
0.000189227
0.000192611
0.000182422
0.000163331
0.000137356
0.000104514
6.87288e-05
4.10756e-05
2.78443e-05
2.94584e-05
5.2388e-05
0.000116042
0.00015137
5.61999e-05
1.06131e-05
1.27024e-05
8.6979e-05
9.01849e-05
4.45848e-05
5.15368e-05
0.000100041
0.000164475
0.000210895
0.000241673
0.00026342
0.00027795
0.000284004
0.000278159
0.000256297
0.000218865
0.000176875
0.000146505
0.000136691
0.00014685
0.000168758
0.000188589
0.00019564
0.000189173
0.000173939
0.000153473
0.000128949
0.00010186
7.52293e-05
5.00565e-05
3.24084e-05
3.13475e-05
5.09318e-05
0.000106371
7.46408e-05
1.16278e-05
1.24899e-05
7.77169e-05
9.36853e-05
4.22222e-05
4.1095e-05
7.58686e-05
0.000138471
0.000194743
0.000234068
0.000262313
0.000282459
0.00029404
0.000294226
0.000279091
0.000247858
0.000208867
0.000177286
0.000164183
0.000171559
0.000192762
0.000213357
0.000220022
0.000210388
0.000188792
0.000157856
0.000120695
8.98203e-05
7.08546e-05
5.42101e-05
3.48508e-05
2.78821e-05
4.30491e-05
0.000105103
8.74429e-05
1.2738e-05
1.20558e-05
5.82687e-05
0.000120207
5.60767e-05
3.06061e-05
3.76568e-05
7.71046e-05
0.000145407
0.000208927
0.000254727
0.000287127
0.000308118
0.000316064
0.000307483
0.000281372
0.000245309
0.000214453
0.000201684
0.000211503
0.000238337
0.000263928
0.000266875
0.000240065
0.000188616
0.000125585
7.95701e-05
6.09392e-05
5.37278e-05
4.49661e-05
3.69495e-05
4.00301e-05
7.26217e-05
0.000163026
7.55722e-05
1.29488e-05
1.16453e-05
4.5936e-05
0.000106388
9.15034e-05
3.19677e-05
1.84158e-05
3.26928e-05
8.21389e-05
0.000163974
0.000237768
0.000289987
0.000324667
0.000342621
0.000341992
0.000322636
0.000291525
0.000262809
0.000250109
0.000259909
0.000287458
0.000310297
0.000296777
0.000236608
0.000151861
8.24439e-05
5.04158e-05
4.65715e-05
5.11063e-05
4.63571e-05
4.62738e-05
6.78776e-05
0.000132681
0.000169407
5.66847e-05
1.19888e-05
1.16203e-05
4.30738e-05
0.000102118
0.000109223
4.33322e-05
1.39816e-05
1.67105e-05
4.70874e-05
0.000122266
0.000215622
0.000285937
0.000331888
0.000357023
0.00036188
0.000348914
0.000325973
0.000304947
0.000296341
0.00030412
0.000320566
0.000322979
0.000287603
0.000214451
0.00013018
6.83713e-05
4.01337e-05
3.78385e-05
5.34993e-05
6.38485e-05
6.85583e-05
0.000102269
0.00016793
0.000151478
4.81869e-05
1.08564e-05
1.20043e-05
4.54971e-05
0.000117674
0.000115068
4.5297e-05
1.40982e-05
1.26742e-05
3.76006e-05
0.000109202
0.000208258
0.000284289
0.000334176
0.000363677
0.00037504
0.000371131
0.000357501
0.000341869
0.000331469
0.000329063
0.000329183
0.000317704
0.000280468
0.000215933
0.000139224
7.60357e-05
4.1437e-05
3.15098e-05
4.20482e-05
7.39312e-05
0.000109038
0.000145566
0.000184374
0.00014746
4.53464e-05
1.01913e-05
1.25886e-05
4.98297e-05
0.000131815
8.65783e-05
2.90183e-05
1.17896e-05
1.31935e-05
4.27978e-05
0.00012416
0.000218816
0.000283472
0.000323985
0.000348145
0.000360521
0.000365164
0.000365333
0.000363065
0.000359302
0.000353542
0.00034298
0.000322531
0.000287308
0.000235555
0.000170744
0.000105433
5.80277e-05
3.52597e-05
3.25072e-05
5.02639e-05
0.00010299
0.000163982
0.000178146
0.00013595
4.43072e-05
1.00195e-05
1.30028e-05
5.30138e-05
0.000127071
6.2578e-05
1.75916e-05
7.8906e-06
1.44838e-05
5.44711e-05
0.000149677
0.000232845
0.000284046
0.00031544
0.000334162
0.000344398
0.000349733
0.000352617
0.000353764
0.000352358
0.000346728
0.000335022
0.000315667
0.000287913
0.000251772
0.000207185
0.000154636
0.000100661
5.96543e-05
3.95154e-05
3.80643e-05
5.8812e-05
0.00011791
0.000163683
0.000140933
4.95097e-05
1.06597e-05
1.31333e-05
5.58846e-05
0.000124544
4.90713e-05
1.29069e-05
5.24464e-06
1.56301e-05
6.5058e-05
0.000164588
0.000237033
0.000278991
0.000304036
0.000319037
0.00032815
0.000334472
0.000339503
0.000342756
0.00034245
0.000336706
0.000324533
0.000305985
0.000281831
0.000253135
0.000221
0.00018611
0.000147998
0.000107179
7.1035e-05
4.94544e-05
4.59601e-05
6.74234e-05
0.000128107
0.000158815
5.95442e-05
1.14034e-05
1.32045e-05
5.7489e-05
0.000125499
4.71457e-05
1.16732e-05
3.15184e-06
1.352e-05
6.53367e-05
0.000173511
0.000250397
0.000292281
0.00031569
0.000328528
0.000335163
0.000338558
0.000340207
0.000339958
0.000336376
0.000327771
0.000313432
0.000294004
0.000271076
0.000246211
0.000220159
0.000193234
0.000166632
0.000141498
0.00011594
8.76949e-05
6.28958e-05
5.53512e-05
7.57031e-05
0.000138039
7.683e-05
1.22303e-05
1.33693e-05
5.97247e-05
0.000123895
4.93565e-05
1.19952e-05
1.85872e-06
9.46914e-06
5.06721e-05
0.00015396
0.000245858
0.000299725
0.000329906
0.000346756
0.000355811
0.0003602
0.000361407
0.000359298
0.000352464
0.000339391
0.000319693
0.000294418
0.000265922
0.000237945
0.000214905
0.000198802
0.000186143
0.000169484
0.000142347
0.000103941
6.58544e-05
4.84579e-05
6.20479e-05
0.00013111
9.16959e-05
1.3268e-05
1.3228e-05