/*--------------------------------*- C++ -*----------------------------------*\
| =========                 |                                                 |
| \\      /  F ield         | OpenFOAM: The Open Source CFD Toolbox           |
|  \\    /   O peration     | Version:  v1906                                 |
|   \\  /    A nd           | Web:      www.OpenFOAM.com                      |
|    \\/     M anipulation  |                                                 |
\*---------------------------------------------------------------------------*/
FoamFile
{
    version     2.0;
    format      ascii;
    class       volScalarField;
    location    "77";
    object      k;
}
// * * * * * * * * * * * * * * * * * * * * * * * * * * * * * * * * * * * * * //

dimensions      [0 2 -2 0 0 0 0];


internalField   nonuniform List<scalar> 
78750
(
0.585338
0.218895
0.119645
0.0531108
0.00350853
0.00340187
0.0032169
0.00319084
0.00313677
0.00306085
0.00295661
0.00282203
0.0026651
0.00250155
0.00234133
0.00218821
0.00204381
0.00190944
0.00178677
0.00167578
0.00157603
0.00148656
0.00140604
0.00133274
0.00126466
0.00119968
0.00113569
0.00107077
0.00100355
0.000932954
0.000858991
0.000779506
0.000699015
0.000601645
0.000295704
0.0078116
0.00432531
0.000660415
0.00245653
0.00247016
0.00326021
0.00365965
0.00382746
0.00384353
0.00374751
0.00354336
0.00322117
0.0028096
0.00241578
0.0021237
0.00191816
0.00176465
0.00164719
0.00155528
0.00147891
0.00141395
0.00136008
0.00131705
0.00128341
0.00125739
0.0012368
0.00121827
0.00119722
0.00116789
0.00112378
0.00105853
0.000966193
0.00083018
0.000619332
0.00116038
0.00234076
0.00479279
0.0052575
0.00526263
0.00457939
0.00399021
0.00363257
0.00343058
0.00332342
0.00326904
0.00321885
0.00311587
0.00291175
0.00260393
0.0022513
0.00194364
0.0017239
0.00157395
0.00146491
0.00138216
0.00131834
0.00126826
0.00122885
0.0011989
0.001178
0.00116535
0.0011591
0.00115631
0.00115286
0.00114411
0.00112531
0.00109175
0.00103853
0.00103973
0.00224609
0.00104506
0.00132821
0.0017864
0.00231909
0.00287197
0.00323751
0.00344489
0.00353138
0.00354187
0.00352272
0.00349918
0.0034704
0.00341032
0.00326852
0.0030078
0.00265454
0.00228627
0.00200156
0.00182225
0.00171024
0.00163203
0.00157162
0.00152166
0.00147829
0.00143904
0.00140266
0.00136897
0.00133767
0.00130784
0.0012774
0.00124129
0.00118377
0.00105919
0.00104617
0.00307957
0.00314199
0.00491858
0.00521851
0.00517751
0.00493342
0.00451636
0.00399676
0.00350176
0.0031323
0.00290303
0.00277168
0.00268091
0.00257518
0.00239783
0.00214248
0.00192369
0.00180599
0.00172585
0.00165964
0.00160726
0.00156786
0.00153857
0.00151629
0.00149836
0.00148164
0.00146409
0.00144523
0.00142539
0.00140546
0.00138734
0.00137676
0.00139905
0.00156401
0.00204995
0.00408737
0.00269213
0.00286656
0.00298436
0.00304755
0.00305243
0.00301129
0.00297275
0.00298844
0.00303644
0.00307924
0.00310756
0.00311439
0.00307354
0.00293319
0.00265491
0.00230962
0.00202954
0.00187226
0.00178781
0.00172816
0.00167869
0.0016384
0.00160553
0.00157824
0.00155468
0.00153275
0.00151073
0.00148754
0.00146238
0.00143329
0.0013903
0.00128494
0.000988835
0.00130446
0.0045566
0.00444873
0.00505716
0.00505977
0.00489588
0.00451325
0.00387745
0.00316826
0.0026257
0.00228985
0.00207727
0.00194863
0.0019014
0.00190741
0.00193149
0.00194023
0.00192295
0.00188292
0.00183449
0.00179365
0.00176093
0.00173311
0.00170837
0.00168527
0.00166245
0.00163818
0.0016104
0.00157708
0.00153702
0.00149097
0.00144444
0.00142264
0.00152226
0.00183385
0.00246155
0.00563182
0.00274302
0.00314764
0.00329389
0.00330974
0.00323498
0.00305405
0.00285206
0.00274723
0.0027105
0.00262824
0.00247906
0.00231954
0.00218722
0.00208927
0.0020192
0.00196921
0.00193065
0.00189823
0.00187004
0.00184529
0.00182331
0.00180324
0.00178399
0.00176468
0.00174406
0.00171991
0.00168871
0.00164549
0.00158495
0.00150502
0.00142184
0.00146297
0.00211162
0.00340845
0.00585261
0.00370511
0.00488065
0.00505266
0.00500569
0.00474899
0.00420214
0.00342978
0.00263484
0.00214327
0.00201634
0.0020023
0.0020091
0.00201866
0.0020224
0.00201687
0.00200302
0.00198626
0.00196982
0.00195419
0.00193908
0.00192415
0.00190896
0.00189299
0.00187554
0.00185718
0.00183821
0.00181848
0.00179757
0.00177448
0.00174444
0.00168273
0.00151297
0.00124014
0.00235828
0.00591926
0.00242707
0.00352221
0.00390983
0.00408382
0.00420016
0.00426319
0.00417804
0.00380818
0.00326127
0.00279378
0.00249328
0.00232059
0.00221652
0.0021513
0.00211013
0.00208289
0.00206353
0.00204837
0.00203536
0.00202318
0.00201069
0.00199665
0.00197955
0.00195747
0.00192828
0.00189139
0.00184634
0.00179296
0.00173174
0.00166209
0.00159409
0.00154453
0.00112844
0.00216099
0.00703609
0.00331038
0.00471181
0.00502293
0.00508505
0.00502294
0.00482377
0.00449019
0.00405971
0.0035231
0.00294989
0.00250566
0.00225599
0.00215332
0.00212013
0.00211076
0.00210889
0.00210928
0.00210963
0.00210884
0.00210645
0.0021018
0.002094
0.0020817
0.00206268
0.00203403
0.00199342
0.00193724
0.00186113
0.00176028
0.00164269
0.00163685
0.00215369
0.00300631
0.00418191
0.00789914
0.00253617
0.00395875
0.00448661
0.00471197
0.00483557
0.00490254
0.00490097
0.00477825
0.00448578
0.00401986
0.00345018
0.00290816
0.0025106
0.00229151
0.00220509
0.00218277
0.00218285
0.00218874
0.0021946
0.00219826
0.00219858
0.00219452
0.00218472
0.00216729
0.00213927
0.00209831
0.00204018
0.0019577
0.00184255
0.00169871
0.00162634
0.00209388
0.00379863
0.00527905
0.00746984
0.00293037
0.00470503
0.00524187
0.00542219
0.00546406
0.00540702
0.0052477
0.00499655
0.00470484
0.00440271
0.00404152
0.00357169
0.00304115
0.00257839
0.00229401
0.00218416
0.00216547
0.00217687
0.00219831
0.00222281
0.00224586
0.00226434
0.00227589
0.00227791
0.00226868
0.00224684
0.00221044
0.00215622
0.00207866
0.00197106
0.00183759
0.00177031
0.00229387
0.00411228
0.00687829
0.00318417
0.00468745
0.00519325
0.00536151
0.00540251
0.00536631
0.00526159
0.00508303
0.00484833
0.00462808
0.00444434
0.00422398
0.00388989
0.00342796
0.00292616
0.00253141
0.00232222
0.00225315
0.00224877
0.00226637
0.0022908
0.0023159
0.0023372
0.00235084
0.00235413
0.00234521
0.0023224
0.0022844
0.00223036
0.00214843
0.00200319
0.00175386
0.00127254
0.00242205
0.00768815
0.00400209
0.00547015
0.00579248
0.00582675
0.00575024
0.0055778
0.00528693
0.0048783
0.00443056
0.0040675
0.00385608
0.00374327
0.00363798
0.00346407
0.00315782
0.00277064
0.0024793
0.0023556
0.00232325
0.00232343
0.00234069
0.00236641
0.00239287
0.00241314
0.00242271
0.00241819
0.00239607
0.00235284
0.00228465
0.00216169
0.00208073
0.00208873
0.00198896
0.0034771
0.00946065
0.00443323
0.00552481
0.0057393
0.00572292
0.00560656
0.00539643
0.00510572
0.00480876
0.0045581
0.00434616
0.00416841
0.00402243
0.00388628
0.00372669
0.00350118
0.00317319
0.00280759
0.00254458
0.00242594
0.00239518
0.00239726
0.00241368
0.00243549
0.00245346
0.00245923
0.00244637
0.00240728
0.00233156
0.00220284
0.00203516
0.00222655
0.00309925
0.00387631
0.0055824
0.0101122
0.00449641
0.00574746
0.00595257
0.00588753
0.00568659
0.00533352
0.00487078
0.00444138
0.00410724
0.00388019
0.00374622
0.00366584
0.00360144
0.00352654
0.00341462
0.0032283
0.00295533
0.00269172
0.00254579
0.00249989
0.00249462
0.00250581
0.00252493
0.00254436
0.00255657
0.00255196
0.00251829
0.00243933
0.00229975
0.00215621
0.00244455
0.00389973
0.00540841
0.00679022
0.00967553
0.00530651
0.00614388
0.00614461
0.00593694
0.0055886
0.00508267
0.00460907
0.00438918
0.00431178
0.00424179
0.00416399
0.00408043
0.00398675
0.00388214
0.00375808
0.00359408
0.00336445
0.0030795
0.00282361
0.00266863
0.00260389
0.00258704
0.00259171
0.00260586
0.00262163
0.00263048
0.00262087
0.00257825
0.00248408
0.00233533
0.00228497
0.0030031
0.00483961
0.00637531
0.00890265
0.00645072
0.00647693
0.00617949
0.00577874
0.00517125
0.00432543
0.00362487
0.003416
0.00347534
0.0035715
0.00366017
0.00372286
0.00374454
0.00373002
0.00368177
0.00359166
0.00344419
0.00323669
0.00301746
0.00286067
0.00278087
0.00274831
0.00274004
0.00274541
0.00275851
0.00277356
0.00278325
0.00277807
0.00274508
0.0026654
0.00253545
0.00250828
0.00357995
0.00545587
0.00900337
0.0068469
0.006417
0.00610962
0.00569684
0.00504354
0.00418158
0.00349765
0.00333231
0.00348878
0.00366998
0.00378906
0.0038516
0.00387194
0.00385874
0.00381417
0.00373545
0.00361428
0.00344442
0.00324283
0.00306122
0.00294039
0.00287636
0.0028474
0.00283867
0.00284238
0.00285324
0.0028655
0.00287163
0.00286143
0.00282197
0.00277879
0.00268396
0.00354762
0.00558907
0.00970722
0.00567144
0.00614539
0.00625236
0.00614337
0.00581393
0.00515097
0.00413342
0.00315566
0.00272776
0.00279603
0.00305428
0.00330386
0.003481
0.00358501
0.00362722
0.00361605
0.00355541
0.00344947
0.00331329
0.00317945
0.00307721
0.00301169
0.00297292
0.0029514
0.00294163
0.00294017
0.00294383
0.00294918
0.00295633
0.00300006
0.00324305
0.00357886
0.00463507
0.00652313
0.0102783
0.00494041
0.00621242
0.00665463
0.00683366
0.00688088
0.00673961
0.00620645
0.00508014
0.00374808
0.00281718
0.00249102
0.00259843
0.00286998
0.0031302
0.00331586
0.00342064
0.00345291
0.00342536
0.00335329
0.00326103
0.00317576
0.00311096
0.00306576
0.00303362
0.00300914
0.00298839
0.00296813
0.00294613
0.00292782
0.00298794
0.00345486
0.00438878
0.00557594
0.00716379
0.0103093
0.00427225
0.0058124
0.00635698
0.00658266
0.006711
0.00679069
0.00678686
0.00651128
0.00564981
0.00432262
0.00305012
0.00223911
0.00200036
0.00216697
0.00248673
0.00278774
0.00300776
0.00314153
0.00320265
0.00321397
0.00320103
0.00318299
0.00316857
0.00315928
0.0031538
0.00314918
0.00314059
0.00312127
0.00308718
0.00308075
0.00341102
0.00459322
0.00593693
0.00736648
0.0102363
0.00448112
0.00585804
0.00638576
0.00658441
0.00667572
0.00673831
0.00683103
0.00698523
0.00707486
0.00675058
0.00577669
0.00438353
0.00300888
0.00204515
0.00169239
0.00184594
0.00221057
0.00255468
0.00279887
0.00294693
0.00302727
0.00306913
0.00309371
0.00311313
0.00313384
0.00315864
0.00318703
0.00321383
0.00322591
0.00320801
0.00327668
0.00412903
0.00570306
0.00733946
0.0106779
0.00441384
0.00610765
0.00671327
0.00690328
0.00693152
0.00686064
0.00672312
0.00661725
0.00670048
0.00695404
0.00710242
0.00683035
0.00590337
0.0044482
0.00289158
0.00173027
0.00132155
0.0015662
0.00203236
0.00243193
0.00270263
0.00287245
0.00297657
0.00304179
0.00308721
0.00312748
0.00317565
0.00324547
0.00334457
0.00343994
0.0034696
0.00396642
0.0056424
0.00762671
0.011729
0.00590797
0.00697608
0.0071848
0.00719982
0.00715488
0.00708557
0.00702201
0.00693937
0.00681137
0.00676913
0.00689755
0.00706041
0.00707604
0.00673273
0.00575523
0.00417956
0.00242277
0.00116556
0.000928786
0.00138585
0.00192956
0.0023458
0.00262579
0.00280558
0.0029205
0.00299597
0.00305546
0.00313036
0.00327596
0.00353418
0.00376211
0.00431344
0.00607971
0.00829437
0.0128075
0.00747226
0.00734896
0.00710011
0.00690203
0.00671305
0.00655595
0.0065288
0.00664644
0.00676741
0.0067983
0.00678131
0.0067854
0.00680268
0.00678336
0.00664063
0.00613568
0.00492371
0.00311165
0.00131838
0.000616544
0.00107584
0.00174365
0.00226191
0.00261769
0.00284607
0.00298742
0.00307255
0.00314127
0.00328553
0.00367596
0.00425138
0.00509208
0.00681184
0.00895234
0.0132779
0.00799926
0.0073235
0.00710474
0.00696911
0.00682699
0.00667099
0.00654663
0.00651989
0.00662194
0.00680224
0.00695588
0.00702156
0.00700559
0.00693397
0.00681666
0.00662891
0.0062454
0.00533309
0.0036478
0.00153681
0.000440243
0.000917588
0.00170144
0.0022986
0.00270341
0.00295805
0.00310496
0.00318604
0.00329632
0.00370398
0.00460382
0.0057803
0.00737602
0.00928426
0.0131565
0.00616842
0.00662877
0.00691874
0.00704015
0.00704014
0.0068946
0.00658015
0.0061384
0.0057624
0.00571306
0.00600217
0.00639332
0.00669747
0.00685909
0.00688796
0.00680828
0.00662736
0.00628105
0.00550795
0.00391868
0.00167068
0.00048492
0.00107287
0.00194446
0.00258368
0.00300371
0.00325499
0.00338734
0.00347611
0.00378067
0.00477373
0.00625326
0.00770867
0.00936037
0.0128545
0.00556971
0.00697894
0.00744132
0.00759646
0.00761554
0.00750068
0.0071992
0.00661502
0.00574489
0.00498206
0.00482207
0.00521281
0.00577175
0.00623598
0.00653123
0.00666621
0.00666291
0.00652623
0.00620183
0.00546988
0.00397287
0.00188142
0.000942742
0.00147178
0.00225321
0.00286387
0.00327874
0.00352321
0.00364942
0.0038258
0.00458615
0.00619232
0.00766942
0.00925956
0.0127394
0.00578956
0.00684957
0.00719028
0.00732125
0.00737785
0.00736188
0.00721911
0.00684621
0.00609598
0.00503497
0.00423787
0.00413534
0.00453771
0.005071
0.00551863
0.00581815
0.00596905
0.00597251
0.00579807
0.00533684
0.00438474
0.00282463
0.00148027
0.00151818
0.00222019
0.00289652
0.00341582
0.00377261
0.00398054
0.00411316
0.00454666
0.00593163
0.00747844
0.00917125
0.0129366
0.00659121
0.00705244
0.00723585
0.00733177
0.00738991
0.00740956
0.00737071
0.00723232
0.00689744
0.00618394
0.0051079
0.00416418
0.00376451
0.00386736
0.00419319
0.00450226
0.00467682
0.00466436
0.0044056
0.00384628
0.00304312
0.00213688
0.00157066
0.00182552
0.00245286
0.00307477
0.00359825
0.00400334
0.00428601
0.00445207
0.00468119
0.00567773
0.00730769
0.00921084
0.0134103
0.00645281
0.00715762
0.00739206
0.00748407
0.00751123
0.00748785
0.00741629
0.00729665
0.0071285
0.00687049
0.00635413
0.00541544
0.0042494
0.00330298
0.00285372
0.00280832
0.00286687
0.00285487
0.00275074
0.00255783
0.00230095
0.00209872
0.00218247
0.00259886
0.00313255
0.00364319
0.00408424
0.00444888
0.00473323
0.00492308
0.00506967
0.00576709
0.00743818
0.00954661
0.014107
0.00726144
0.00757481
0.00766125
0.00770655
0.0077218
0.00768398
0.0075512
0.0072761
0.00683983
0.00635395
0.00613814
0.00618672
0.00592079
0.00503562
0.00378852
0.0028356
0.00253196
0.0025429
0.00255762
0.002479
0.00230326
0.00211545
0.00217332
0.00265316
0.00330213
0.00390497
0.00441047
0.00482786
0.00515515
0.00538443
0.00556706
0.00623618
0.00794291
0.0101681
0.0149299
0.00805393
0.00742713
0.00731231
0.00729825
0.00729739
0.00726532
0.0071429
0.00683981
0.00623057
0.00523753
0.00434285
0.00445651
0.00508069
0.00539275
0.00500078
0.00387467
0.00291976
0.00257636
0.00253534
0.00252432
0.00246777
0.00235465
0.00226961
0.00249822
0.00311132
0.0038243
0.00448806
0.00507385
0.0055631
0.00591974
0.00625314
0.00711359
0.00875957
0.0108975
0.0155826
0.00800277
0.00743815
0.00742734
0.00741112
0.00735025
0.00722154
0.0069891
0.00658771
0.00590305
0.0048068
0.00347322
0.00289794
0.00327438
0.00360641
0.00353497
0.00307809
0.00275114
0.00272338
0.00272975
0.00271231
0.00266218
0.00257946
0.00250789
0.0026212
0.00310686
0.00380632
0.00453978
0.00526704
0.00594119
0.00650771
0.00712729
0.00820848
0.00964144
0.0115013
0.0157554
0.00696412
0.00728681
0.00744502
0.00746282
0.00740322
0.00725992
0.00700133
0.00658559
0.0059456
0.00498411
0.00371665
0.00260412
0.00237829
0.00259908
0.00284202
0.00302016
0.00308349
0.00308902
0.00306795
0.00301984
0.00294275
0.00284108
0.00275238
0.00280574
0.00318807
0.00387201
0.0046745
0.00556524
0.00647171
0.0072344
0.00803515
0.00912756
0.0102791
0.0117825
0.0151992
0.00717717
0.00749607
0.00756463
0.00757174
0.00755389
0.00750967
0.00742527
0.0072711
0.00698357
0.00644447
0.00550691
0.0041916
0.00303134
0.00258368
0.00256728
0.00270387
0.00286131
0.00298029
0.00304831
0.00306833
0.00304379
0.00297698
0.00288464
0.0028435
0.00303227
0.00358754
0.0044132
0.00545449
0.00671462
0.00787018
0.00876349
0.00968734
0.0105686
0.0117162
0.0141926
0.0071839
0.00735418
0.00741114
0.00740542
0.00736132
0.00728522
0.00719629
0.00713293
0.00710915
0.0070706
0.00689787
0.00639181
0.00532473
0.00385955
0.00262813
0.00206588
0.0020911
0.00232936
0.00255983
0.00273179
0.00284231
0.00289578
0.00289903
0.00288025
0.00294302
0.00326913
0.00393273
0.0048964
0.00626723
0.00791574
0.00916907
0.0100005
0.010683
0.0115521
0.0134543
0.0076632
0.00780054
0.00780249
0.00774876
0.00764964
0.00749326
0.00728082
0.00706116
0.00689032
0.00676481
0.00665815
0.00652156
0.00623901
0.00557064
0.00431841
0.00282148
0.0018221
0.00163303
0.00185013
0.00211835
0.00234649
0.00252687
0.00266289
0.00276363
0.0028692
0.0030923
0.00356583
0.00429626
0.00539789
0.00706822
0.00882767
0.00990621
0.0105976
0.0113924
0.013445
0.00794446
0.00773977
0.00766803
0.00761006
0.00753081
0.00740976
0.00724587
0.00707878
0.00693469
0.00676901
0.00654715
0.00628044
0.00598708
0.00563447
0.00507428
0.00405719
0.00266909
0.00165001
0.00142285
0.00160091
0.001845
0.00207828
0.00229518
0.00249852
0.00270322
0.00296513
0.00339111
0.00399001
0.00477321
0.0060201
0.00782797
0.00930656
0.0102241
0.0112165
0.0140817
0.00820801
0.00783395
0.00774022
0.00766908
0.0075648
0.00740098
0.00718537
0.00699583
0.00690821
0.00686486
0.00676105
0.0065515
0.00624004
0.00584683
0.00536813
0.00471539
0.00371134
0.0024126
0.0014788
0.00126772
0.00141368
0.00164124
0.00188771
0.00215111
0.00243986
0.00278498
0.00327171
0.00391023
0.00458546
0.00544787
0.00689867
0.00858502
0.00981955
0.0112018
0.0150683
0.00804679
0.00782966
0.00782331
0.00780703
0.00773701
0.0075781
0.00731246
0.00699543
0.0067793
0.00672629
0.00672786
0.00667186
0.00651245
0.00624086
0.00585753
0.00534694
0.00463037
0.00357726
0.00227736
0.00135421
0.00111314
0.00122849
0.00146022
0.00175025
0.00210056
0.00253525
0.00313336
0.00392426
0.00470886
0.00545743
0.00658957
0.00827141
0.00974129
0.0114764
0.0159842
0.00811476
0.00788709
0.00791283
0.00794542
0.00793663
0.00784508
0.00763311
0.007292
0.00692702
0.00671855
0.0066816
0.00668576
0.00662954
0.00647676
0.0062186
0.00584527
0.0053242
0.00456629
0.00346442
0.00214918
0.00122605
0.000959683
0.00106505
0.00133335
0.00171509
0.00222347
0.00293701
0.00392181
0.00493817
0.00580213
0.00685023
0.00848456
0.0100286
0.0119041
0.0165155
0.00785352
0.00773743
0.007858
0.00796321
0.00802268
0.0079985
0.00785279
0.00755453
0.00711944
0.00671779
0.00654466
0.0065612
0.0066025
0.00656841
0.00643023
0.00618203
0.0058104
0.0052672
0.00445587
0.00329779
0.0019734
0.0010794
0.000826838
0.000969743
0.00133571
0.00189284
0.0027109
0.0038966
0.00518146
0.00630413
0.00743983
0.00899256
0.0104482
0.0122504
0.0165925
0.00772281
0.00782751
0.00804565
0.00822016
0.00835157
0.00840587
0.00833858
0.00810326
0.0076564
0.0070475
0.006556
0.00641069
0.00648481
0.00656354
0.00654878
0.00642014
0.00617436
0.00579307
0.00521213
0.00433168
0.00311082
0.00178816
0.000942099
0.000744204
0.000991597
0.00154377
0.00243129
0.00381134
0.00537462
0.00679437
0.00815879
0.00962628
0.0109131
0.0125347
0.0164511
0.00754467
0.00769754
0.00794134
0.00815233
0.0083412
0.00848169
0.00852886
0.00843148
0.00812873
0.00755708
0.00682028
0.00634302
0.00629937
0.00643596
0.00653414
0.0065233
0.00639375
0.00613921
0.00572911
0.00508077
0.00410296
0.00282777
0.0015646
0.000835256
0.000782938
0.00124454
0.00214529
0.00368661
0.00562656
0.00723264
0.00880498
0.0102202
0.0113567
0.0127828
0.0161858
0.00774916
0.00779138
0.00800164
0.00820602
0.00840115
0.00856148
0.0086489
0.00862127
0.00843194
0.00801364
0.00730694
0.00656853
0.00627496
0.00636176
0.00652106
0.00660188
0.00657079
0.0064221
0.00614035
0.0056797
0.00494332
0.00387482
0.00259986
0.00144879
0.000875781
0.00102974
0.00179802
0.00331534
0.00570838
0.00766931
0.00917364
0.0104909
0.0115308
0.0128068
0.0157249
0.00786228
0.00774856
0.00794569
0.00816743
0.00838679
0.00856821
0.00867146
0.00866022
0.0085047
0.00817272
0.00761484
0.0068806
0.00639415
0.0063642
0.00652859
0.00666914
0.00671619
0.00665698
0.00648158
0.00616066
0.00563243
0.0048101
0.00370357
0.00249904
0.00150472
0.00113219
0.00153363
0.00272207
0.00513759
0.0080149
0.00960192
0.0106935
0.011595
0.0127312
0.0151546
0.00793922
0.00770827
0.00790541
0.00815411
0.00841399
0.00864245
0.00879198
0.00881846
0.00868905
0.00838406
0.00789192
0.0072322
0.00665175
0.00647909
0.00659769
0.00676423
0.0068679
0.00688006
0.00679097
0.00658249
0.0062191
0.00564379
0.00479838
0.00374338
0.00266274
0.00183347
0.00164238
0.00222394
0.00387623
0.0071249
0.00984817
0.0110878
0.0118886
0.0128516
0.0149003
0.00771601
0.0074913
0.00772145
0.00800208
0.00830236
0.00858677
0.00880863
0.00891687
0.00886844
0.00863667
0.00821053
0.00760153
0.00695617
0.00662019
0.00665212
0.00682177
0.00696943
0.00704129
0.00702277
0.00690144
0.00665662
0.00625657
0.00566497
0.00486515
0.00392468
0.00299184
0.00236632
0.0023487
0.00298733
0.00495956
0.00832276
0.0105687
0.0116987
0.0127068
0.0154236
0.00759776
0.00738433
0.00763148
0.00792592
0.00824946
0.00857594
0.00886139
0.00904939
0.00908841
0.00894647
0.00860646
0.00805629
0.00735928
0.00682455
0.00670357
0.00683813
0.00701101
0.00712592
0.00715558
0.00708908
0.00691403
0.00661271
0.00616488
0.00555905
0.00480855
0.00395264
0.00325598
0.00305692
0.0032773
0.00392014
0.00608277
0.00880145
0.0106491
0.012329
0.017264
0.00743586
0.00719353
0.00743599
0.00773607
0.00808056
0.00845089
0.00880218
0.00906964
0.00919406
0.00914218
0.00889801
0.00844239
0.00777634
0.00709502
0.00678064
0.00683464
0.00700475
0.0071383
0.00718613
0.00713402
0.00697241
0.00669008
0.00627593
0.00572253
0.00502479
0.00420462
0.0037826
0.00391874
0.00428634
0.00454969
0.0055659
0.00806076
0.0103559
0.0129214
0.0199815
0.00738856
0.00711511
0.00733296
0.00762975
0.00799741
0.00842107
0.00884142
0.00917589
0.00936083
0.00936749
0.00918574
0.00880119
0.00819106
0.00743632
0.00691709
0.00684673
0.00698882
0.00712171
0.00716431
0.00709554
0.00690726
0.00659077
0.00613167
0.00550398
0.00469225
0.00402396
0.0044004
0.00511093
0.00557976
0.00612048
0.0072585
0.00956612
0.0116761
0.0143499
0.0208943
0.00722975
0.00693402
0.00710469
0.00739148
0.00780497
0.00833289
0.00887217
0.00930289
0.00955931
0.00962301
0.00949497
0.00917124
0.00862829
0.00787378
0.00716701
0.00690733
0.00698826
0.0071174
0.00716115
0.00708208
0.00686844
0.00650718
0.00596979
0.00521329
0.00432411
0.00407167
0.00546121
0.00678019
0.00696549
0.00772082
0.00950579
0.0114208
0.0130139
0.015029
0.0184976
0.00718318
0.00684178
0.00691272
0.00714932
0.00761445
0.00829122
0.00898628
0.00953387
0.00987327
0.0100023
0.00993286
0.0096698
0.00919719
0.00848927
0.00765257
0.00710948
0.00704172
0.00715741
0.00723338
0.00719413
0.00701157
0.00666362
0.00611789
0.00533867
0.00443583
0.00414313
0.00577544
0.0082937
0.00898169
0.00916093
0.0105215
0.0119457
0.013063
0.0142282
0.0149605
0.00721437
0.00676616
0.00667738
0.00682154
0.00736611
0.00824696
0.00911515
0.00977846
0.0102051
0.0104128
0.0104219
0.0102431
0.00987
0.00927247
0.00844952
0.00764001
0.00726406
0.00727143
0.00736987
0.00741086
0.00733646
0.00710999
0.00669662
0.0060597
0.00521377
0.00449195
0.00497271
0.00744296
0.0100538
0.0111173
0.0116646
0.0123276
0.0129522
0.0134886
0.0127832
0.00750401
0.0068487
0.00653711
0.00653609
0.00720394
0.00831366
0.00931628
0.0100588
0.0105596
0.0108485
0.0109446
0.0108593
0.0105939
0.010131
0.00944064
0.00858183
0.00787827
0.00760242
0.00760563
0.00767644
0.00770695
0.00764536
0.00745434
0.00709544
0.00653217
0.00579585
0.00522345
0.00570778
0.00779425
0.0105183
0.0122073
0.0128749
0.0132532
0.0134641
0.0125774
0.00789631
0.00694799
0.00639468
0.00620551
0.00701737
0.0083051
0.0093698
0.0101665
0.0107502
0.011142
0.0113486
0.0113758
0.0112275
0.0108977
0.0103659
0.00963161
0.00884022
0.00829211
0.00807596
0.00805101
0.00808226
0.00809948
0.00806451
0.00794467
0.00770579
0.00731292
0.00675764
0.00620483
0.00619343
0.00745356
0.00976988
0.0114531
0.0122794
0.0127621
0.0138948
0.00826799
0.00704335
0.00632369
0.00592727
0.00673231
0.00804131
0.0091121
0.00996642
0.0106561
0.01118
0.0115273
0.0116933
0.0116786
0.0114819
0.0110922
0.0105012
0.00977367
0.00911989
0.00871609
0.00853834
0.00848094
0.00846746
0.00845674
0.00842298
0.00834445
0.00819397
0.0079261
0.00750187
0.00694995
0.00652364
0.00727525
0.00910291
0.0106975
0.01219
0.0169224
0.00826611
0.00696698
0.00625896
0.0056695
0.00600655
0.00716781
0.00831479
0.00929395
0.0101308
0.0108198
0.0113401
0.0116767
0.0118233
0.0117774
0.0115321
0.0110807
0.0104599
0.00981536
0.00932114
0.00902157
0.00885483
0.00875347
0.00867654
0.00860021
0.00850769
0.00837956
0.00821736
0.00804204
0.00771129
0.00704323
0.00704381
0.0087521
0.0107675
0.013255
0.0204254
0.00796696
0.00700207
0.00646533
0.00578186
0.00513584
0.00567495
0.0069677
0.00819506
0.00923384
0.0101105
0.0108218
0.0113495
0.0116798
0.0118047
0.0117163
0.0114072
0.0109005
0.0103032
0.00977136
0.00938514
0.00911831
0.0089152
0.00873479
0.00855147
0.00835197
0.00818678
0.00827365
0.0084468
0.00837543
0.00823155
0.00881117
0.0105564
0.0123938
0.0148984
0.0211969
0.00764185
0.00734244
0.00697852
0.00633639
0.00508288
0.00411092
0.00523471
0.0068193
0.00814365
0.00921396
0.0100999
0.0108094
0.0113285
0.0116427
0.0117395
0.011608
0.0112579
0.0107554
0.0102235
0.00976101
0.00938117
0.00904738
0.00871734
0.00836022
0.00799743
0.00789995
0.00856798
0.00928663
0.00935992
0.0097425
0.0108952
0.0123412
0.0136938
0.0154753
0.0186659
0.00772143
0.00776539
0.0074392
0.0068652
0.00576629
0.00349951
0.00387835
0.0057177
0.00730825
0.00851651
0.00948709
0.0102935
0.0109378
0.0114037
0.0116722
0.0117267
0.0115651
0.0112237
0.0107817
0.0103206
0.00987447
0.00943242
0.00896463
0.00844455
0.00791951
0.00775083
0.00871438
0.0102931
0.0107435
0.0110755
0.0120323
0.0130133
0.0138656
0.0148025
0.015642
0.0082978
0.0079572
0.00742851
0.00676962
0.00569136
0.00349611
0.00323188
0.00526917
0.00698577
0.00820637
0.00916341
0.00998021
0.0106759
0.0112367
0.0116405
0.0118644
0.0118945
0.0117382
0.0114313
0.0110271
0.0105664
0.0100618
0.00950259
0.00887213
0.00819906
0.00774009
0.00825018
0.0102125
0.0118461
0.0123726
0.0128746
0.0134006
0.0138571
0.014226
0.013903
0.00925412
0.00816511
0.00730007
0.00633434
0.00480465
0.00312357
0.00313208
0.0054658
0.00710757
0.00820056
0.00906543
0.00983142
0.0105223
0.0111276
0.0116241
0.011987
0.0121978
0.0122496
0.0121478
0.0119104
0.0115564
0.0110986
0.0105407
0.00987925
0.00912202
0.0083797
0.00809654
0.00909802
0.0112396
0.0128362
0.0134629
0.0137788
0.0139821
0.014012
0.0132946
0.00997528
0.0082761
0.00717294
0.00591699
0.00386377
0.00230658
0.00312151
0.00576786
0.0072618
0.0082391
0.00902991
0.00974392
0.0104051
0.0110107
0.0115464
0.0119936
0.0123351
0.0125588
0.012658
0.0126322
0.0124816
0.0122063
0.0118045
0.0112728
0.0106101
0.00983916
0.00910296
0.00885634
0.00972106
0.0114885
0.0129571
0.0136252
0.0139377
0.0140854
0.0143935
0.0101977
0.00821831
0.00701592
0.00559923
0.00323082
0.00157565
0.00310213
0.00586174
0.00725854
0.00818959
0.00895533
0.0096509
0.0103002
0.0109052
0.0114579
0.0119463
0.0123591
0.0126878
0.012926
0.0130694
0.0131126
0.0130485
0.0128681
0.0125608
0.0121164
0.011531
0.0108264
0.0101174
0.00973285
0.0101424
0.0114164
0.0126088
0.0132996
0.0139166
0.0161296
0.010254
0.00825679
0.00702979
0.00554352
0.0029797
0.000978841
0.00277615
0.00567103
0.00712159
0.008065
0.00882999
0.00951695
0.0101537
0.0107474
0.0112961
0.0117943
0.0122355
0.0126156
0.012931
0.0131802
0.0133605
0.0134659
0.0134863
0.0134065
0.0132085
0.0128787
0.012418
0.0118504
0.0112408
0.0107438
0.0107585
0.0115493
0.0125112
0.0138062
0.0183944
0.0105537
0.00839421
0.00715023
0.00563534
0.00295846
0.000578969
0.0020836
0.00504801
0.00674948
0.0077993
0.00860832
0.0093136
0.00995543
0.010546
0.0110872
0.0115774
0.0120146
0.0123983
0.0127298
0.0130123
0.0132496
0.013445
0.0135999
0.0137069
0.0137392
0.0136507
0.0134036
0.0129828
0.0123724
0.0115744
0.0110051
0.011663
0.0130275
0.0151806
0.0216809
0.0104489
0.00826827
0.00717942
0.00577829
0.00317722
0.000299027
0.0017775
0.00474215
0.00658056
0.00767323
0.00849173
0.0091955
0.00983081
0.0104104
0.0109364
0.0114071
0.011821
0.0121787
0.0124833
0.0127411
0.0129606
0.0131548
0.0133446
0.0135583
0.0138055
0.0140156
0.0140444
0.0137702
0.0131344
0.0122912
0.0119667
0.012883
0.0142538
0.0163337
0.0215035
0.00974539
0.00828334
0.00761263
0.00671822
0.00489082
0.00143709
0.000413799
0.00299891
0.00564148
0.00708651
0.0080587
0.00884304
0.00953227
0.0101492
0.0106991
0.0111824
0.0115988
0.01195
0.0122409
0.01248
0.0126809
0.0128685
0.0130887
0.0133941
0.0137642
0.01408
0.0142443
0.0141945
0.0138817
0.0134594
0.0135047
0.0142573
0.0151896
0.0165243
0.019129
0.0092788
0.00843431
0.00798961
0.00746998
0.00651247
0.0042282
0.000706411
0.00052534
0.00394117
0.00616493
0.00747062
0.00841244
0.00918607
0.00985617
0.0104428
0.0109514
0.0113813
0.0117342
0.0120134
0.0122247
0.0123803
0.0125146
0.0127185
0.0131453
0.0137884
0.0142682
0.0143617
0.0142109
0.0140167
0.0139824
0.0142892
0.0148269
0.0153979
0.0161566
0.0172298
0.00930037
0.0084379
0.00792579
0.00744093
0.00676064
0.00540167
0.00167156
0.000955368
0.00159699
0.00484894
0.0067334
0.00790563
0.00878769
0.00952869
0.0101775
0.0107423
0.0112141
0.0115905
0.0118747
0.012065
0.01216
0.0121811
0.012222
0.0125227
0.0133328
0.0143517
0.0148871
0.0148851
0.0147276
0.0147236
0.0149314
0.0151978
0.0154219
0.0154935
0.0145196
0.00965487
0.00838688
0.00771857
0.0070967
0.00624819
0.00511699
0.00345779
0.00040472
0.000215721
0.00377516
0.00616445
0.00755172
0.00851201
0.00929442
0.00999472
0.0106165
0.0111491
0.0115859
0.0119305
0.012176
0.0123038
0.0123119
0.0122424
0.0122564
0.0126692
0.0136145
0.0145795
0.0150612
0.0151983
0.0152595
0.015329
0.0153569
0.0152706
0.0148502
0.0135209
0.00999719
0.00846807
0.00773163
0.00706034
0.00611295
0.00472525
0.00291961
0.000558495
1.99028e-05
0.00254959
0.00587095
0.00743405
0.00839325
0.00918645
0.00992553
0.0105952
0.0111842
0.011682
0.0120923
0.0124235
0.0126581
0.0127668
0.0127426
0.0126402
0.0126488
0.0130565
0.013856
0.0145548
0.0148875
0.0150099
0.0150346
0.0149791
0.0148436
0.0146091
0.0146893
0.0102124
0.00834573
0.00746687
0.00666926
0.00561253
0.00431949
0.00252636
0.000774035
0.000193514
0.00241267
0.00612159
0.00747739
0.00832368
0.00906347
0.00976858
0.0104204
0.0110064
0.0115172
0.011957
0.0123403
0.0126569
0.0128744
0.0129704
0.0129447
0.0128621
0.0129188
0.0133667
0.0141485
0.0148014
0.0150997
0.0151791
0.0151473
0.015051
0.0148854
0.0146236
0.0101428
0.00812156
0.00716236
0.00622183
0.00494384
0.00362018
0.00234505
0.000843004
0.000852792
0.00270978
0.00621264
0.00756601
0.00839113
0.00909583
0.00977495
0.0104041
0.0109662
0.0114506
0.0118676