/*--------------------------------*- C++ -*----------------------------------*\
| =========                 |                                                 |
| \\      /  F ield         | OpenFOAM: The Open Source CFD Toolbox           |
|  \\    /   O peration     | Version:  v1906                                 |
|   \\  /    A nd           | Web:      www.OpenFOAM.com                      |
|    \\/     M anipulation  |                                                 |
\*---------------------------------------------------------------------------*/
FoamFile
{
    version     2.0;
    format      ascii;
    class       surfaceScalarField;
    location    "77";
    object      phi;
}
// * * * * * * * * * * * * * * * * * * * * * * * * * * * * * * * * * * * * * //

dimensions      [1 0 -1 0 0 0 0];
oriented        oriented;


internalField   nonuniform List<scalar> 
228225
(
-0.000218466
-2.77744e-05
-3.13807e-06
-0.000186023
-3.02845e-05
-2.22185e-06
-0.000152825
-3.14734e-05
-1.78221e-06
-0.000116836
-3.44849e-05
-1.55663e-06
-7.9792e-05
-3.58359e-05
-1.25905e-06
-4.47208e-05
-3.42263e-05
-8.99503e-07
-1.21671e-05
-3.19683e-05
-6.36428e-07
1.69776e-05
-2.89014e-05
-3.01968e-07
4.25424e-05
-2.55865e-05
-4.24022e-08
6.42417e-05
-2.20617e-05
2.92775e-07
8.17947e-05
-1.81576e-05
5.29165e-07
9.48776e-05
-1.38405e-05
6.77927e-07
0.000103689
-9.63139e-06
7.38641e-07
0.000109232
-6.34591e-06
7.22772e-07
0.000112572
-4.07227e-06
6.51423e-07
0.000114346
-2.3993e-06
5.4367e-07
0.000114925
-1.07237e-06
4.11645e-07
0.000114582
-3.31794e-09
2.64624e-07
0.000113026
1.36107e-06
1.13708e-07
0.000110532
2.43698e-06
-2.19945e-08
0.000107239
3.35281e-06
-1.35106e-07
0.000103275
4.13712e-06
-2.41902e-07
9.87268e-05
4.82135e-06
-3.35486e-07
9.36525e-05
5.4362e-06
-4.14665e-07
8.80868e-05
6.00559e-06
-4.81137e-07
8.20461e-05
6.55164e-06
-5.37993e-07
7.55321e-05
7.09205e-06
-5.88447e-07
6.85383e-05
7.63475e-06
-6.33203e-07
6.10559e-05
8.17838e-06
-6.69993e-07
5.30785e-05
8.71847e-06
-6.98256e-07
4.46033e-05
9.25076e-06
-7.18628e-07
3.56057e-05
9.8059e-06
-7.3671e-07
2.5989e-05
1.0458e-05
-7.54324e-07
1.49905e-05
1.18456e-05
-9.09605e-07
1.53475e-05
-5.28435e-07
1.24593e-06
-2.84153e-05
-4.18023e-07
5.30139e-06
-3.52976e-05
7.45862e-07
1.01357e-05
-3.76431e-05
1.05012e-06
1.37413e-05
-3.93064e-05
1.1622e-06
1.61312e-05
-3.9307e-05
1.07702e-06
1.8861e-05
-3.79793e-05
1.01712e-06
2.18069e-05
-3.59293e-05
1.00488e-06
2.50758e-05
-3.32226e-05
1.03631e-06
2.84437e-05
-3.0088e-05
1.11105e-06
3.16462e-05
-2.65334e-05
1.23338e-06
3.44005e-05
-2.23596e-05
1.39167e-06
3.6267e-05
-1.72963e-05
1.51423e-06
3.67128e-05
-1.16197e-05
1.46569e-06
3.54429e-05
-6.34414e-06
1.21018e-06
3.26832e-05
-2.21749e-06
8.66958e-07
2.91972e-05
5.31479e-07
5.30039e-07
2.59697e-05
1.90246e-06
2.33816e-07
2.31339e-05
2.82741e-06
-1.27147e-08
2.10834e-05
3.57632e-06
-1.8446e-07
1.95484e-05
4.2715e-06
-3.18997e-07
1.83597e-05
4.94451e-06
-4.19798e-07
1.73769e-05
5.6087e-06
-5.02339e-07
1.65053e-05
6.27331e-06
-5.89741e-07
1.56977e-05
6.94172e-06
-7.02979e-07
1.49385e-05
7.61447e-06
-8.50471e-07
1.42223e-05
8.29734e-06
-1.02652e-06
1.35458e-05
8.99737e-06
-1.22254e-06
1.29059e-05
9.71985e-06
-1.43599e-06
1.22859e-05
1.04675e-05
-1.65737e-06
1.16402e-05
1.12426e-05
-1.86396e-06
1.088e-05
1.20583e-05
-2.02809e-06
9.85291e-06
1.29844e-05
-2.11954e-06
8.1273e-06
1.4348e-05
-2.09651e-06
4.51535e-06
1.74055e-05
-1.82034e-06
2.05747e-05
-7.47842e-07
-8.48424e-06
-2.05468e-05
5.12094e-07
-9.30645e-06
-3.47953e-05
2.7528e-07
-7.56629e-06
-3.93027e-05
-9.06409e-08
-5.65344e-06
-4.08155e-05
-4.00926e-07
-4.06058e-06
-4.02502e-05
-6.30734e-07
-2.40292e-06
-3.87637e-05
-8.31119e-07
-5.6968e-07
-3.6685e-05
-1.01501e-06
1.29666e-06
-3.38552e-05
-1.16044e-06
2.98263e-06
-3.04642e-05
-1.23693e-06
4.62323e-06
-2.6909e-05
-1.20223e-06
6.73385e-06
-2.34083e-05
-1.01875e-06
9.91867e-06
-1.97875e-05
-6.80058e-07
1.4182e-05
-1.56446e-05
-2.5851e-07
1.85097e-05
-1.08434e-05
1.26305e-07
2.17242e-05
-5.80347e-06
3.18247e-07
2.3228e-05
-1.29061e-06
2.71834e-07
2.2595e-05
2.39877e-06
1.00459e-07
2.08127e-05
4.67016e-06
-8.84521e-08
1.87541e-05
5.86914e-06
-2.56134e-07
1.68252e-05
6.59818e-06
-4.15923e-07
1.51502e-05
7.1635e-06
-5.60022e-07
1.37474e-05
7.68749e-06
-6.9093e-07
1.25999e-05
8.22173e-06
-8.15027e-07
1.16821e-05
8.78686e-06
-9.4101e-07
1.0974e-05
9.38778e-06
-1.07867e-06
1.04675e-05
1.00238e-05
-1.2335e-06
1.01655e-05
1.06922e-05
-1.40664e-06
1.00689e-05
1.13969e-05
-1.59504e-06
1.0163e-05
1.21526e-05
-1.79537e-06
1.0394e-05
1.29928e-05
-2.00101e-06
1.06203e-05
1.39984e-05
-2.19355e-06
1.04984e-05
1.54103e-05
-2.34667e-06
9.02969e-06
1.81378e-05
-2.4028e-06
4.26397e-06
2.40844e-05
-2.06739e-06
2.54651e-05
-7.72308e-07
5.93865e-06
-2.58537e-05
-6.26251e-07
1.17412e-05
-3.96369e-05
-9.16562e-07
1.67995e-05
-4.35361e-05
-7.68319e-07
2.14e-05
-4.46368e-05
-7.15345e-07
2.58327e-05
-4.38576e-05
-7.61976e-07
2.94504e-05
-4.14351e-05
-8.84031e-07
3.14903e-05
-3.75797e-05
-1.08379e-06
3.18954e-05
-3.28393e-05
-1.36098e-06
3.11141e-05
-2.79293e-05
-1.69308e-06
2.96435e-05
-2.33491e-05
-2.02592e-06
2.79005e-05
-1.93206e-05
-2.28081e-06
2.62431e-05
-1.56824e-05
-2.38961e-06
2.48638e-05
-1.19194e-05
-2.30216e-06
2.35026e-05
-7.47841e-06
-1.98641e-06
2.1732e-05
-2.52748e-06
-1.52043e-06
1.96917e-05
1.82652e-06
-1.11604e-06
1.78927e-05
5.1004e-06
-9.50377e-07
1.63436e-05
7.17081e-06
-9.97757e-07
1.49906e-05
8.29541e-06
-1.11638e-06
1.38307e-05
8.94485e-06
-1.22835e-06
1.28662e-05
9.40677e-06
-1.31959e-06
1.20925e-05
9.81053e-06
-1.39006e-06
1.14943e-05
1.02209e-05
-1.44197e-06
1.10426e-05
1.0676e-05
-1.47914e-06
1.06887e-05
1.12063e-05
-1.50682e-06
1.03762e-05
1.18253e-05
-1.53154e-06
1.00682e-05
1.25186e-05
-1.56061e-06
9.75204e-06
1.32729e-05
-1.60157e-06
9.42785e-06
1.40962e-05
-1.66092e-06
9.08094e-06
1.50373e-05
-1.74212e-06
8.6183e-06
1.62455e-05
-1.84414e-06
7.68319e-06
1.8194e-05
-1.96422e-06
5.39242e-06
2.22355e-05
-2.08089e-06
2.10005e-06
2.89374e-05
-1.91113e-06
2.82158e-05
-7.79011e-07
5.02466e-06
-3.05624e-05
-2.32321e-07
9.07568e-06
-4.35544e-05
1.38282e-08
1.16484e-05
-4.60557e-05
7.14233e-08
1.26732e-05
-4.56458e-05
9.7465e-08
1.24203e-05
-4.35992e-05
1.1631e-07
1.08513e-05
-3.98214e-05
9.48307e-08
8.22776e-06
-3.48104e-05
-3.42936e-09
5.49435e-06
-2.97484e-05
-2.40304e-07
3.38718e-06
-2.52423e-05
-5.01967e-07
2.15034e-06
-2.13198e-05
-7.49339e-07
1.67209e-06
-1.787e-05
-9.50379e-07
1.66813e-06
-1.45854e-05
-1.08056e-06
1.76854e-06
-1.08908e-05
-1.12109e-06
1.4769e-06
-6.11415e-06
-1.07233e-06
3.03787e-07
-3.54562e-07
-1.01545e-06
-1.12682e-06
4.26982e-06
-1.04424e-06
-1.97241e-06
7.02909e-06
-1.12203e-06
-2.02973e-06
8.40103e-06
-1.21508e-06
-1.66188e-06
9.19971e-06
-1.31575e-06
-1.15417e-06
9.80772e-06
-1.41462e-06
-6.22636e-07
1.03323e-05
-1.50121e-06
-9.61979e-08
1.08086e-05
-1.56869e-06
4.18702e-07
1.12758e-05
-1.61411e-06
9.18141e-07
1.17693e-05
-1.63742e-06
1.38725e-06
1.2332e-05
-1.64028e-06
1.78807e-06
1.30022e-05
-1.62417e-06
2.06511e-06
1.37895e-05
-1.59392e-06
2.16712e-06
1.46875e-05
-1.5581e-06
2.06882e-06
1.56935e-05
-1.52691e-06
1.80315e-06
1.68206e-05
-1.51053e-06
1.53522e-06
1.8127e-05
-1.51971e-06
1.72783e-06
1.98769e-05
-1.5721e-06
2.65175e-06
2.36144e-05
-1.67642e-06
1.60784e-06
3.21103e-05
-1.62141e-06
3.06231e-05
-7.5561e-07
6.76008e-06
-3.64246e-05
-6.1595e-07
1.08017e-05
-4.63926e-05
-9.24973e-07
1.37748e-05
-4.75095e-05
-1.33086e-06
1.60599e-05
-4.62327e-05
-1.56569e-06
1.7165e-05
-4.2833e-05
-1.74068e-06
1.63792e-05
-3.69462e-05
-1.93749e-06
1.37255e-05
-2.9834e-05
-2.18624e-06
9.99258e-06
-2.34803e-05
-2.44216e-06
5.78872e-06
-1.83354e-05
-2.65397e-06
1.25037e-06
-1.39682e-05
-2.79939e-06
-3.40549e-06
-1.03723e-05
-2.84984e-06
-7.52564e-06
-7.70577e-06
-2.77339e-06
-1.03608e-05
-5.51208e-06
-2.5511e-06
-1.12757e-05
-3.01583e-06
-2.17913e-06
-1.00715e-05
2.05599e-07
-1.75657e-06
-8.24843e-06
3.92974e-06
-1.48869e-06
-6.38696e-06
6.57295e-06
-1.4295e-06
-4.61232e-06
8.03759e-06
-1.4468e-06
-2.88405e-06
8.89865e-06
-1.4673e-06
-1.18692e-06
9.55854e-06
-1.49063e-06
4.73897e-07
1.01428e-05
-1.51566e-06
2.08823e-06
1.06829e-05
-1.53407e-06
3.64853e-06
1.12103e-05
-1.54098e-06
5.14827e-06
1.17573e-05
-1.5342e-06
6.58695e-06
1.23598e-05
-1.51367e-06
7.96342e-06
1.30567e-05
-1.48064e-06
9.25399e-06
1.38816e-05
-1.43696e-06
1.0402e-05
1.48637e-05
-1.38688e-06
1.13053e-05
1.60498e-05
-1.33837e-06
1.17713e-05
1.75486e-05
-1.30364e-06
1.13846e-05
1.96549e-05
-1.29695e-06
9.30226e-06
2.30974e-05
-1.32176e-06
5.3879e-06
2.87804e-05
-1.3539e-06
2.26581e-06
3.6579e-05
-1.23107e-06
3.33039e-05
-4.94139e-07
-9.84835e-07
-3.62336e-05
9.11681e-07
-3.41485e-06
-4.58346e-05
1.87594e-06
-6.31068e-06
-4.634e-05
1.72016e-06
-9.03173e-06
-4.48178e-05
1.32556e-06
-1.15898e-05
-4.10761e-05
8.64788e-07
-1.41798e-05
-3.45719e-05
2.89485e-07
-1.66208e-05
-2.69081e-05
-4.57468e-07
-1.85023e-05
-2.04622e-05
-1.16475e-06
-1.97902e-05
-1.5434e-05
-1.66979e-06
-2.11522e-05
-1.06714e-05
-2.00603e-06
-2.33136e-05
-6.08237e-06
-2.21442e-06
-2.64149e-05
-2.39827e-06
-2.29358e-06
-2.99951e-05
2.60369e-07
-2.26762e-06
-3.25471e-05
1.65497e-06
-2.17576e-06
-3.31318e-05
2.82051e-06
-2.0724e-06
-3.12118e-05
3.95079e-06
-1.97934e-06
-2.78592e-05
5.08375e-06
-1.90161e-06
-2.41771e-05
6.16157e-06
-1.84455e-06
-2.06132e-05
7.1e-06
-1.80417e-06
-1.72477e-05
7.92406e-06
-1.77063e-06
-1.40833e-05
8.67692e-06
-1.73855e-06
-1.11253e-05
9.38908e-06
-1.70465e-06
-8.37731e-06
1.00868e-05
-1.66498e-06
-5.84039e-06
1.07961e-05
-1.61574e-06
-3.50896e-06
1.15451e-05
-1.555e-06
-1.36929e-06
1.23634e-05
-1.48125e-06
5.99316e-07
1.32778e-05
-1.39396e-06
2.42796e-06
1.4308e-05
-1.29497e-06
4.15899e-06
1.54888e-05
-1.18954e-06
5.76368e-06
1.6988e-05
-1.08709e-06
6.81317e-06
1.9448e-05
-1.00852e-06
5.76081e-06
2.45693e-05
-1.02656e-06
8.08618e-07
3.35315e-05
-1.27435e-06
-1.09982e-06
3.87113e-05
-1.4114e-06
3.27288e-05
-7.71933e-07
-3.92143e-06
-3.35185e-05
1.15016e-06
-8.16571e-06
-4.31572e-05
1.56422e-06
-1.1825e-05
-4.40975e-05
1.39418e-06
-1.47741e-05
-4.30931e-05
1.18507e-06
-1.68503e-05
-4.00218e-05
9.71209e-07
-1.80716e-05
-3.40848e-05
6.872e-07
-1.92828e-05
-2.59738e-05
2.52411e-07
-2.17803e-05
-1.77246e-05
-2.3797e-07
-2.47257e-05
-1.18402e-05
-6.26774e-07
-2.59585e-05
-8.53656e-06
-8.72526e-07
-2.51502e-05
-5.83748e-06
-1.03021e-06
-2.30224e-05
-3.3877e-06
-1.13232e-06
-2.03086e-05
-1.27276e-06
-1.19106e-06
-1.79491e-05
4.92532e-07
-1.21775e-06
-1.60913e-05
2.16983e-06
-1.23321e-06
-1.45265e-05
3.59962e-06
-1.24294e-06
-1.30239e-05
4.79637e-06
-1.24674e-06
-1.14838e-05
5.83439e-06
-1.24622e-06
-9.96136e-06
6.78453e-06
-1.24188e-06
-8.52699e-06
7.68656e-06
-1.23304e-06
-7.22953e-06
8.56064e-06
-1.2186e-06
-6.10508e-06
9.42315e-06
-1.19728e-06
-5.18563e-06
1.02937e-05
-1.16676e-06
-4.50495e-06
1.11956e-05
-1.12288e-06
-4.09677e-06
1.21538e-05
-1.06257e-06
-3.99275e-06
1.31952e-05
-9.84625e-07
-4.22021e-06
1.43442e-05
-8.87505e-07
-4.78989e-06
1.56133e-05
-7.69125e-07
-5.65735e-06
1.70045e-05
-6.27458e-07
-6.58473e-06
1.85368e-05
-4.61272e-07
-6.69917e-06
2.03381e-05
-2.74522e-07
-4.14749e-06
2.33452e-05
-1.15608e-07
7.65433e-07
3.0456e-05
-1.79173e-07
9.09981e-07
3.96599e-05
-5.79759e-07
3.40058e-05
-4.43631e-07
-4.46524e-06
-3.11006e-05
1.95798e-06
-8.23763e-06
-4.25233e-05
3.02981e-06
-1.10402e-05
-4.44589e-05
3.05485e-06
-1.28552e-05
-4.42603e-05
2.85908e-06
-1.32275e-05
-4.24361e-05
2.63411e-06
-1.14238e-05
-3.84335e-05
2.37218e-06
-7.85118e-06
-3.16974e-05
1.98873e-06
-4.6941e-06
-2.23688e-05
1.37607e-06
-3.5193e-06
-1.37241e-05
6.57358e-07
-3.87238e-06
-8.34866e-06
1.37198e-07
-4.63196e-06
-4.91718e-06
-1.76992e-07
-5.13978e-06
-2.46525e-06
-4.2058e-07
-5.24293e-06
-5.65828e-07
-6.0775e-07
-5.05309e-06
1.03909e-06
-7.44051e-07
-4.54556e-06
2.48766e-06
-8.37926e-07
-3.79746e-06
3.7371e-06
-9.03453e-07
-2.86885e-06
4.79726e-06
-9.51902e-07
-1.7988e-06
5.72569e-06
-9.87113e-07
-6.22097e-07
6.58966e-06
-1.01e-06
6.23095e-07
7.43282e-06
-1.02139e-06
1.89601e-06
8.27863e-06
-1.02223e-06
3.15668e-06
9.14334e-06
-1.01339e-06
4.36807e-06
1.00437e-05
-9.95215e-07
5.49445e-06
1.09995e-05
-9.65938e-07
6.49995e-06
1.2033e-05
-9.23442e-07
7.34914e-06
1.31705e-05
-8.68856e-07
7.99546e-06
1.44477e-05
-8.04471e-07
8.35441e-06
1.59141e-05
-7.32719e-07
8.27526e-06
1.76359e-05
-6.54971e-07
7.56931e-06
1.96797e-05
-5.68443e-07
6.14291e-06
2.21822e-05
-4.56903e-07
4.83726e-06
2.55126e-05
-2.73565e-07
5.96358e-06
3.15416e-05
4.88707e-08
3.69903e-06
4.34834e-05
3.07904e-07
3.75587e-05
2.74036e-07
-2.69022e-06
-3.01926e-05
1.74152e-06
-5.17884e-06
-4.23163e-05
2.24682e-06
-7.35412e-06
-4.46723e-05
2.36845e-06
-9.0683e-06
-4.49683e-05
2.40512e-06
-9.76743e-06
-4.41841e-05
2.42009e-06
-8.62872e-06
-4.20671e-05
2.43807e-06
-4.86228e-06
-3.80389e-05
2.47522e-06
1.68842e-06
-3.15014e-05
2.4793e-06
8.63718e-06
-2.30256e-05
2.29344e-06
1.29218e-05
-1.45441e-05
1.8955e-06
1.43265e-05
-7.73174e-06
1.4142e-06
1.39621e-05
-3.06667e-06
9.70539e-07
1.29044e-05
-1.1538e-07
6.06547e-07
1.1847e-05
1.77237e-06
3.1801e-07
1.11758e-05
3.06504e-06
8.28442e-08
1.09244e-05
4.05602e-06
-8.25215e-08
1.10129e-05
4.9044e-06
-2.13822e-07
1.13551e-05
5.68586e-06
-3.23198e-07
1.18966e-05
6.43634e-06
-4.11079e-07
1.26094e-05
7.17469e-06
-4.79389e-07
1.34775e-05
7.91452e-06
-5.3003e-07
1.44896e-05
8.66888e-06
-5.64689e-07
1.56379e-05
9.4526e-06
-5.84817e-07
1.69154e-05
1.02862e-05
-5.91435e-07
1.83159e-05
1.11898e-05
-5.84294e-07
1.9843e-05
1.21795e-05
-5.63642e-07
2.15088e-05
1.32826e-05
-5.3332e-07
2.33182e-05
1.45551e-05
-5.0088e-07
2.51848e-05
1.6143e-05
-4.77082e-07
2.65637e-05
1.85192e-05
-4.74896e-07
2.53744e-05
2.31808e-05
-5.16634e-07
1.82397e-05
3.16874e-05
-6.4811e-07
7.3959e-06
4.08785e-05
-5.48317e-07
2.39752e-06
4.7679e-05
-4.9827e-08
3.98396e-05
1.7125e-07
-1.36704e-06
-3.0436e-05
1.5456e-06
-2.2461e-06
-4.35224e-05
2.0313e-06
-2.81533e-06
-4.62594e-05
2.11916e-06
-3.21645e-06
-4.67027e-05
2.10291e-06
-3.45894e-06
-4.60225e-05
2.0421e-06
-3.35794e-06
-4.41718e-05
1.95059e-06
-2.33853e-06
-4.09911e-05
1.85637e-06
4.9052e-07
-3.62497e-05
1.80858e-06
5.09088e-06
-2.95655e-05
1.81606e-06
1.01666e-05
-2.1479e-05
1.7732e-06
1.4322e-05
-1.35076e-05
1.59049e-06
1.68184e-05
-6.86692e-06
1.30591e-06
1.76706e-05
-1.96693e-06
1.00488e-06
1.7426e-05
1.28108e-06
7.35833e-07
1.66857e-05
3.29686e-06
5.05258e-07
1.58061e-05
4.62363e-06
3.07959e-07
1.49749e-05
5.58982e-06
1.40181e-07
1.42815e-05
6.37392e-06
-3.44467e-09
1.37271e-05
7.07296e-06
-9.48689e-08
1.33129e-05
7.74461e-06
-1.71935e-07
1.30153e-05
8.42149e-06
-2.28917e-07
1.28077e-05
9.12094e-06
-2.66943e-07
1.26689e-05
9.85394e-06
-2.87314e-07
1.25837e-05
1.06358e-05
-2.90645e-07
1.25405e-05
1.14834e-05
-2.7622e-07
1.25308e-05
1.24103e-05
-2.42195e-07
1.25544e-05
1.34373e-05
-1.88805e-07
1.26233e-05
1.46081e-05
-1.20378e-07
1.2729e-05
1.60638e-05
-3.72182e-08
1.27133e-05
1.8375e-05
2.4154e-08
1.18205e-05
2.34896e-05
4.50573e-09
7.72097e-06
3.41839e-05
-2.77866e-07
-3.65852e-08
4.5671e-05
-6.06094e-07
-1.24656e-06
4.71475e-05
-6.43213e-07
3.84361e-05
-4.29826e-07
-2.95238e-06
-2.89442e-05
1.36804e-06
-3.86215e-06
-4.42535e-05
1.55862e-06
-3.77891e-06
-4.81286e-05
1.74826e-06
-3.28881e-06
-4.91157e-05
1.90853e-06
-2.40436e-06
-4.8923e-05
2.01072e-06
-9.15148e-07
-4.77274e-05
2.06021e-06
1.25969e-06
-4.52344e-05
2.05172e-06
4.02477e-06
-4.10285e-05
1.97792e-06
7.67887e-06
-3.5168e-05
1.88633e-06
1.25232e-05
-2.82664e-05
1.85956e-06
1.79383e-05
-2.08768e-05
1.87673e-06
2.25688e-05
-1.33794e-05
1.83641e-06
2.52157e-05
-6.29633e-06
1.67148e-06
2.54431e-05
-3.43057e-07
1.40281e-06
2.39757e-05
3.66256e-06
1.10688e-06
2.17331e-05
6.02333e-06
8.40796e-07
1.93818e-05
7.31107e-06
6.20607e-07
1.71713e-05
8.12717e-06
4.42253e-07
1.51404e-05
8.78507e-06
2.99697e-07
1.32524e-05
9.42197e-06
1.88745e-07
1.14511e-05
1.00924e-05
1.06449e-07
9.6772e-06
1.08188e-05
5.05725e-08
7.86913e-06
1.16147e-05
2.02433e-08
5.96235e-06
1.24948e-05
1.91517e-08
3.89216e-06
1.34759e-05
4.7641e-08
1.59107e-06
1.45772e-05
1.03661e-07
-1.00931e-06
1.58237e-05
1.89552e-07
-3.95344e-06
1.72493e-05
3.08301e-07
-7.17217e-06
1.89275e-05
4.62e-07
-1.01501e-05
2.11243e-05
6.44713e-07
-1.09906e-05
2.47445e-05
8.11813e-07
-7.24985e-06
3.18525e-05
8.18339e-07
-2.8767e-06
4.20061e-05
5.27573e-07
-1.2516e-06
4.52358e-05
7.52875e-08
3.6968e-05
-1.2141e-07
1.48734e-06
-3.10521e-05
5.14616e-07
4.48969e-06
-4.76487e-05
3.26161e-07
7.73576e-06
-5.18534e-05
4.62542e-07
1.06576e-05
-5.27042e-05
6.77681e-07
1.30765e-05
-5.21818e-05
8.65571e-07
1.48986e-05
-5.05247e-05
1.00907e-06
1.61221e-05
-4.75116e-05
1.09444e-06
1.68862e-05
-4.28407e-05
1.0991e-06
1.73947e-05
-3.66368e-05
1.01543e-06
1.80605e-05
-2.98094e-05
9.13602e-07
1.95586e-05
-2.32847e-05
9.09009e-07
2.2189e-05
-1.70749e-05
1.03476e-06
2.54597e-05
-1.08049e-05
1.20585e-06
2.8368e-05
-4.55499e-06
1.29053e-06
2.9767e-05
1.04189e-06
1.22255e-06
2.92997e-05
5.43935e-06
1.05001e-06
2.76441e-05
8.10332e-06
8.55812e-07
2.54638e-05
9.61995e-06
6.76124e-07
2.31507e-05
1.05658e-05
5.18222e-07
2.08641e-05
1.13068e-05
3.84462e-07
1.8648e-05
1.20114e-05
2.7665e-07
1.64955e-05
1.27517e-05
1.95825e-07
1.43763e-05
1.35646e-05
1.42383e-07
1.22449e-05
1.44802e-05
1.16164e-07
1.0043e-05
1.55276e-05
1.17633e-07
7.70009e-06
1.6736e-05
1.48674e-07
5.13667e-06
1.81372e-05
2.11387e-07
2.27709e-06
1.9761e-05
3.09098e-07
-8.89277e-07
2.16277e-05
4.47974e-07
-4.09261e-06
2.3788e-05
6.38688e-07
-6.1517e-06
2.65106e-05
8.96699e-07
-3.68128e-06
3.03592e-05
1.21517e-06
3.46156e-06
3.81527e-05
1.45645e-06
2.91308e-06
4.72277e-05
1.3525e-06
3.92594e-05
8.79706e-07
3.68183e-06
-3.48892e-05
2.1372e-07
7.95229e-06
-5.21847e-05
3.50209e-07
1.19652e-05
-5.61576e-05
3.68409e-07
1.56564e-05
-5.67219e-05
3.99191e-07
1.89705e-05
-5.58773e-05
4.54621e-07
2.17775e-05
-5.3772e-05
5.20264e-07
2.37832e-05
-5.00034e-05
5.75849e-07
2.45766e-05
-4.41191e-05
5.82143e-07
2.40203e-05
-3.64599e-05
4.83045e-07
2.24625e-05
-2.84252e-05
2.79824e-07
2.08119e-05
-2.1636e-05
9.12088e-08
2.02262e-05
-1.64686e-05
3.32593e-08
2.13541e-05
-1.20579e-05
1.40113e-07
2.38514e-05
-7.44002e-06
3.76323e-07
2.64527e-05
-2.20714e-06
6.2942e-07
2.7933e-05
3.18427e-06
7.61327e-07
2.79237e-05
7.36981e-06
7.32797e-07
2.71797e-05
9.73476e-06
6.16942e-07
2.62505e-05
1.09959e-05
4.82588e-07
2.53275e-05
1.18554e-05
3.5491e-07
2.44787e-05
1.25973e-05
2.41677e-07
2.3749e-05
1.3312e-05
1.46605e-07
2.31658e-05
1.40511e-05
7.10295e-08
2.27441e-05
1.48605e-05
1.16166e-08
2.24632e-05
1.57894e-05
-1.59325e-08
2.22961e-05
1.6888e-05
-2.63584e-08
2.21973e-05
1.82042e-05
-1.95943e-08
2.21001e-05
1.97892e-05
1.34069e-09
2.18843e-05
2.16926e-05
5.68933e-08
2.13138e-05
2.40783e-05
1.51904e-07
1.90391e-05
2.82183e-05
3.15044e-07
1.51685e-05
3.38598e-05
5.48537e-07
1.1107e-05
4.29179e-05
9.68721e-07
5.69747e-06
5.31048e-05
1.61919e-06
4.41839e-05
1.2815e-06
3.83587e-06
-3.87856e-05
1.34764e-07
7.18441e-06
-5.58708e-05
3.83183e-07
1.00727e-05
-5.93355e-05
3.11207e-07
1.27522e-05
-5.958e-05
1.92893e-07
1.51397e-05
-5.83498e-05
1.02607e-07
1.68992e-05
-5.55394e-05
3.74422e-08
1.75001e-05
-5.05423e-05
-1.86179e-08
1.68176e-05
-4.32744e-05
-1.16082e-07
1.5441e-05
-3.47736e-05
-2.66424e-07
1.40369e-05
-2.64972e-05
-4.72592e-07
1.28256e-05
-1.97072e-05
-6.56035e-07
1.19697e-05
-1.48146e-05
-7.3752e-07
1.19014e-05
-1.12229e-05
-7.15067e-07
1.30923e-05
-8.00733e-06
-5.87195e-07
1.55144e-05
-4.28635e-06
-3.27255e-07
1.8357e-05
3.38392e-07
2.93434e-09
2.07331e-05
4.79226e-06
1.93207e-07
2.21678e-05
8.04636e-06
2.36791e-07
2.29771e-05
9.96421e-06
2.00444e-07
2.35762e-05
1.10963e-05
1.37581e-07
2.41563e-05
1.19297e-05
6.64937e-08
2.47911e-05
1.26554e-05
9.21454e-10
2.55493e-05
1.33433e-05
-7.1306e-08
2.647e-05
1.40429e-05
-1.26568e-07
2.75886e-05
1.48098e-05
-1.6831e-07
2.89241e-05
1.57104e-05
-1.97056e-07
3.04626e-05
1.68207e-05
-2.12787e-07
3.21312e-05
1.82408e-05
-2.17815e-07
3.36224e-05
2.02211e-05
-2.17687e-07
3.36616e-05
2.37248e-05
-2.12407e-07
2.91024e-05
3.16812e-05
-2.83426e-07
1.91305e-05
4.22798e-05
-4.73997e-07
8.11672e-06
5.18614e-05
-2.3236e-07
2.85449e-06
5.67316e-05
4.93259e-07
4.67733e-05
5.08243e-07
1.06604e-06
-4.02956e-05
3.75297e-07
2.8183e-06
-5.85564e-05
8.55146e-07
4.77955e-06
-6.21961e-05
8.5752e-07
6.81249e-06
-6.23576e-05
7.31227e-07
8.73258e-06
-6.08347e-05
5.81134e-07
1.01259e-05
-5.72849e-05
4.06631e-07
1.05221e-05
-5.10539e-05
1.98471e-07
1.00935e-05
-4.27433e-05
-3.1444e-08
9.37321e-06
-3.37138e-05
-3.10117e-07
8.65677e-06
-2.51953e-05
-5.90087e-07
8.0467e-06
-1.82707e-05
-8.38766e-07
7.5761e-06
-1.33506e-05
-9.992e-07
7.36675e-06
-9.95804e-06
-1.05452e-06
7.6627e-06
-7.28291e-06
-1.01634e-06
8.83672e-06
-4.57984e-06
-8.77537e-07
1.09888e-05
-1.19601e-06
-6.20659e-07
1.32809e-05
2.80171e-06
-3.12764e-07
1.48676e-05
6.53031e-06
-8.90038e-08
1.57132e-05
9.09248e-06
3.49525e-09
1.62457e-05
1.05302e-05
8.36771e-09
1.67086e-05
1.14524e-05
-1.14186e-08
1.71924e-05
1.21972e-05
-5.10641e-08
1.7717e-05
1.28832e-05
-8.95361e-08
1.82864e-05
1.35702e-05
-1.20871e-07
1.89041e-05
1.43086e-05
-1.40131e-07
1.95792e-05
1.51531e-05
-1.43e-07
2.02979e-05
1.61915e-05
-1.24674e-07
2.09527e-05
1.75931e-05
-8.2798e-08
2.10998e-05
1.98714e-05
-2.54442e-08
1.94638e-05
2.46653e-05
-1.75935e-08
1.45328e-05
3.51298e-05
-3.10233e-07
5.44142e-06
4.86659e-05
-8.9005e-07
-1.08444e-06
5.56379e-05
-9.55116e-07
-1.78249e-06
5.55604e-05
-7.25865e-07
4.42176e-05
-5.20513e-07
1.82199e-06
-4.25284e-05
2.88894e-07
4.13279e-06
-6.15025e-05
5.97069e-07
6.32355e-06
-6.50705e-05
7.00099e-07
8.19759e-06
-6.48903e-05
7.0472e-07
9.48219e-06
-6.27012e-05
6.60889e-07
9.66273e-06
-5.79009e-05
5.59851e-07
8.61025e-06
-5.02232e-05
3.71357e-07
7.19554e-06
-4.13256e-05
1.22164e-07
6.1875e-06
-3.24779e-05
-1.55256e-07
5.5817e-06
-2.41052e-05
-4.62128e-07
5.04982e-06
-1.70015e-05
-7.445e-07
4.4076e-06
-1.17904e-05
-9.35943e-07
3.68828e-06
-8.22955e-06
-1.02909e-06
3.08103e-06
-5.64321e-06
-1.05058e-06
2.88035e-06
-3.38575e-06
-1.00783e-06
3.44784e-06
-9.00065e-07
-8.74468e-07
4.65994e-06
2.20722e-06
-6.30431e-07
5.86452e-06
5.66856e-06
-3.63344e-07
6.50369e-06
8.61991e-06
-1.9448e-07
6.51002e-06
1.06191e-05
-1.25204e-07
6.10386e-06
1.19268e-05
-9.97488e-08
5.46264e-06
1.28946e-05
-8.95672e-08
4.6593e-06
1.37367e-05
-8.3845e-08
3.70508e-06
1.45675e-05
-7.49353e-08
2.58288e-06
1.5457e-05
-5.40622e-08
1.26351e-06
1.6462e-05
-7.84935e-09
-2.58252e-07
1.76625e-05
5.42848e-08
-1.99165e-06
1.9225e-05
1.56656e-07
-3.82765e-06
2.16061e-05
2.91374e-07
-5.1098e-06
2.60654e-05
4.06596e-07
-4.3888e-06
3.49184e-05
3.09623e-07
-3.63217e-06
4.76967e-05
-1.59929e-07
-4.11717e-06
5.46265e-05
-4.5456e-07
-2.80537e-06
5.31667e-05
-6.10971e-07
4.12266e-05
-5.46294e-07
5.57036e-06
-4.81786e-05
2.18342e-07
8.99484e-06
-6.55356e-05
7.95773e-07
1.11887e-05
-6.79949e-05
8.84223e-07
1.25751e-05
-6.69559e-05
8.26627e-07
1.28044e-05
-6.34774e-05
7.26395e-07
1.1134e-05
-5.6553e-05
5.56569e-07
7.65704e-06
-4.67679e-05
2.68381e-07
3.76849e-06
-3.72031e-05
-3.77362e-08
8.72595e-07
-2.91618e-05
-2.92054e-07
-6.37122e-07
-2.20325e-05
-4.93084e-07
-1.10261e-06
-1.57929e-05
-7.16855e-07
-1.00026e-06
-1.09666e-05
-9.27133e-07
-6.56208e-07
-7.52072e-06
-1.06868e-06
-2.20665e-07
-4.96915e-06
-1.13268e-06
3.0346e-07
-2.80365e-06
-1.13251e-06
1.0735e-06
-6.26904e-07
-1.07054e-06
2.16672e-06
2.01669e-06
-9.3001e-07
3.34287e-06
5.17279e-06
-7.08138e-07
4.06272e-06
8.3426e-06
-4.7254e-07
4.10386e-06
1.08471e-05
-3.01948e-07
3.63393e-06
1.25644e-05
-2.02747e-07
2.82539e-06
1.38107e-05
-1.44678e-07
1.75119e-06
1.48764e-05
-1.04518e-07
4.20544e-07
1.59266e-05
-6.92142e-08
-1.18062e-06
1.70475e-05
-3.07647e-08
-3.07504e-06
1.82953e-05
2.21026e-08
-5.28293e-06
1.97306e-05
1.1348e-07
-7.74169e-06
2.14608e-05
2.41874e-07
-1.01287e-05
2.37429e-05
4.2173e-07
-1.12652e-05
2.72182e-05
6.53125e-07
-8.56572e-06
3.32666e-05
8.71858e-07
-1.90853e-06
4.33515e-05
8.71741e-07
5.77587e-07
5.32121e-05
6.70985e-07
8.47965e-07
5.31018e-05
5.19275e-07
4.20937e-05
2.87039e-07
4.66231e-06
-5.32863e-05
8.112e-07
4.7762e-06
-6.71907e-05
1.79227e-06
3.27003e-06
-6.81681e-05
1.81925e-06
1.19464e-06
-6.63867e-05
1.62522e-06
-1.54624e-06
-6.1977e-05
1.40331e-06
-5.06085e-06
-5.39214e-05
1.09218e-06
-8.84808e-06
-4.3358e-05
5.68889e-07
-1.222e-05
-3.36647e-05
-4.16702e-08
-1.45919e-05
-2.62124e-05
-5.15347e-07
-1.56536e-05
-2.01349e-05
-8.12893e-07
-1.54684e-05
-1.49554e-05
-1.02411e-06
-1.44288e-05
-1.08534e-05
-1.16818e-06
-1.29529e-05
-7.77303e-06
-1.24648e-06
-1.13203e-05
-5.35224e-06
-1.27692e-06
-9.65962e-06
-3.22417e-06
-1.27125e-06
-8.02605e-06
-1.06769e-06
-1.22666e-06
-6.23096e-06
1.31373e-06
-1.12741e-06
-4.19935e-06
4.06736e-06
-9.60584e-07
-2.17193e-06
7.0375e-06
-7.54859e-07
-4.71953e-07
9.6926e-06
-5.77534e-07
7.87159e-07
1.17297e-05
-4.57779e-07
1.66984e-06
1.3272e-05
-3.79531e-07
2.26244e-06
1.45687e-05
-3.23003e-07
2.61781e-06
1.58067e-05
-2.76643e-07
2.757e-06
1.70969e-05
-2.33317e-07
2.68292e-06
1.85069e-05
-1.86424e-07
2.39439e-06
2.00944e-05
-1.28506e-07
1.90602e-06
2.19473e-05
-5.24948e-08
1.27119e-06
2.42791e-05
6.19218e-08
6.46156e-07
2.76478e-05
2.70817e-07
8.5367e-07
3.31236e-05
5.54293e-07
3.56765e-06
4.18893e-05
8.96008e-07
4.6162e-06
5.38156e-05
1.17623e-06
2.99464e-06
5.51285e-05
1.31683e-06
4.47072e-05
9.71099e-07
-3.71329e-06
-5.1292e-05
1.8321e-06
-9.35916e-06
-6.46281e-05
3.03217e-06
-1.482e-05
-6.58575e-05
3.02941e-06
-1.95163e-05
-6.46438e-05
2.80707e-06
-2.29172e-05
-6.13321e-05
2.58007e-06
-2.41501e-05
-5.51815e-05
2.28114e-06
-2.31929e-05
-4.62612e-05
1.76225e-06
-2.15477e-05
-3.64643e-05
1.06541e-06
-2.00624e-05
-2.81271e-05
4.15734e-07
-1.8388e-05
-2.17172e-05
-7.57156e-08
-1.62158e-05
-1.67e-05
-4.10638e-07
-1.36902e-05
-1.27066e-05
-6.66796e-07
-1.11033e-05
-9.51963e-06
-8.46001e-07
-8.62876e-06
-6.88018e-06
-9.60552e-07
-6.32255e-06
-4.52638e-06
-1.02353e-06
-4.14604e-06
-2.22603e-06
-1.0415e-06
-2.07592e-06
2.30498e-07
-1.01242e-06
4.22057e-08
2.85259e-06
-9.29226e-07
2.20248e-06
5.65014e-06
-7.97559e-07
4.2557e-06
8.26962e-06
-6.54126e-07
6.0805e-06
1.0419e-05
-5.39225e-07
7.67858e-06
1.21066e-05
-4.60674e-07
9.10662e-06
1.35166e-05
-4.07532e-07
1.04194e-05
1.48277e-05
-3.6955e-07
1.16507e-05
1.61648e-05
-3.40566e-07
1.28064e-05
1.76173e-05
-3.16243e-07
1.38554e-05
1.92724e-05
-2.91963e-07
1.46987e-05
2.12722e-05
-2.61385e-07
1.50538e-05
2.3983e-05
-2.15148e-07
1.41127e-05
2.84171e-05
-1.40996e-07
1.08698e-05
3.59181e-05
-3.70176e-08
6.82529e-06
4.55903e-05
2.59453e-07
4.47922e-06
5.62354e-05
8.35071e-07
2.35579e-06
5.69535e-05
1.19932e-06
4.66592e-05
9.58621e-07
-8.79179e-06
-4.53296e-05
2.53001e-06
-1.59809e-05
-6.13186e-05
3.56108e-06
-2.15005e-05
-6.42298e-05
3.58327e-06
-2.5351e-05
-6.45895e-05
3.45137e-06
-2.69024e-05
-6.35679e-05
3.35528e-06
-2.51359e-05
-6.07542e-05
3.29753e-06
-2.0014e-05
-5.50218e-05
3.16327e-06
-1.37188e-05
-4.58398e-05
2.76798e-06
-8.71129e-06
-3.5373e-05
2.10971e-06
-5.60058e-06
-2.62403e-05
1.39222e-06
-3.81336e-06
-1.92364e-05
7.66674e-07
-2.64841e-06
-1.41204e-05
2.68926e-07
-1.71547e-06
-1.03621e-05
-7.88769e-08
-8.52421e-07
-7.43769e-06
-3.03593e-07
2.22896e-08
-4.93789e-06
-4.69342e-07
9.36024e-07
-2.57491e-06
-5.76762e-07
1.92484e-06
-1.44868e-07
-6.28716e-07
3.02707e-06
2.36012e-06
-6.26287e-07
4.30229e-06
4.93637e-06
-5.7806e-07
5.6892e-06
7.37283e-06
-5.07177e-07
7.06776e-06
9.46202e-06
-4.40277e-07
8.36695e-06
1.11748e-05
-3.8851e-07
9.58233e-06
1.26273e-05
-3.49765e-07
1.0738e-05
1.39651e-05
-3.19493e-07
1.18573e-05
1.53102e-05
-2.94896e-07
1.29462e-05
1.67667e-05
-2.74724e-07
1.39714e-05
1.84557e-05
-2.58467e-07
1.48022e-05
2.06034e-05
-2.46136e-07
1.50424e-05
2.38009e-05
-2.40334e-07
1.36581e-05
2.95902e-05
-2.6072e-07
9.16086e-06
3.96935e-05
-3.51114e-07
3.09989e-06
5.05963e-05
-2.69789e-07
7.64654e-07
5.79717e-05
1.39784e-07
-3.00286e-08
5.71935e-05
4.82616e-07
4.60809e-05
4.49651e-07
-7.19923e-06
-4.08826e-05
2.36982e-06
-1.19805e-05
-5.97492e-05
2.94912e-06
-1.52372e-05
-6.41062e-05
3.00904e-06
-1.77164e-05
-6.51441e-05
2.96924e-06
-1.9425e-05
-6.48366e-05
2.9275e-06
-1.98484e-05
-6.33546e-05
2.93015e-06
-1.78377e-05
-6.02801e-05
3.03521e-06
-1.25888e-05
-5.46177e-05
3.22725e-06
-5.36557e-06
-4.6123e-05
3.2749e-06
1.47479e-06
-3.62209e-05
3.00787e-06
6.45461e-06
-2.67295e-05
2.48305e-06
9.26892e-06
-1.87761e-05
1.86174e-06
1.03642e-05
-1.27105e-05
1.28352e-06
1.0452e-05
-8.31307e-06
8.10678e-07
1.01419e-05
-5.06085e-06
4.45967e-07
9.81414e-06
-2.41118e-06
1.68299e-07
9.69847e-06
-6.76118e-09
-2.44164e-08
9.69785e-06
2.47087e-06
-1.16393e-07
9.87419e-06
4.91431e-06
-1.63805e-07
1.01687e-05
7.23891e-06
-1.73225e-07
1.04725e-05
9.30598e-06
-1.63732e-07
1.06979e-05
1.10794e-05
-1.4917e-07
1.08022e-05
1.26347e-05
-1.33523e-07
1.0771e-05
1.40884e-05
-1.15786e-07
1.05984e-05
1.55526e-05
-9.42968e-08
1.02757e-05
1.71336e-05
-6.81801e-08
9.785e-06
1.89631e-05
-3.794e-08
9.09499e-06
2.1281e-05
-5.23138e-09
8.15712e-06
2.46742e-05
4.11506e-08
6.95882e-06
3.06625e-05
2.70734e-08
4.83229e-06
4.14473e-05
-1.37901e-07
1.09804e-06
5.35207e-05
-2.98395e-07
-3.48576e-07
5.88526e-05
-1.50766e-07
-7.16875e-07
5.71716e-05
-1.64885e-08
4.49082e-05
6.74396e-08
-2.12642e-06
-4.06049e-05
1.69694e-06
-3.61947e-06
-6.01876e-05
1.92336e-06
-5.00276e-06
-6.47157e-05
2.09256e-06
-6.66101e-06
-6.54908e-05
2.16039e-06
-8.65367e-06
-6.47968e-05
2.15514e-06
-1.09379e-05
-6.29112e-05
2.08734e-06
-1.30679e-05
-5.99123e-05
2.0033e-06
-1.35552e-05
-5.60223e-05
2.02182e-06
-1.09496e-05
-5.10353e-05
2.26882e-06
-5.46157e-06
-4.44607e-05
2.62888e-06
1.30826e-06
-3.64464e-05
2.83928e-06
7.55268e-06
-2.78288e-05
2.76112e-06
1.20512e-05
-1.96254e-05
2.42279e-06
1.44089e-05
-1.25929e-05
1.95159e-06
1.49708e-05
-7.07283e-06
1.47862e-06
1.44656e-05
-2.96259e-06
1.07594e-06
1.34995e-05
2.09037e-07
7.60681e-07
1.26753e-05
2.771e-06
5.27203e-07
1.20583e-05
5.16481e-06
3.63446e-07
1.16323e-05
7.40211e-06
2.5406e-07
1.12963e-05
9.44618e-06
1.817e-07
1.09416e-05
1.12828e-05
1.32108e-07
1.04919e-05
1.29628e-05
9.75265e-08
9.8971e-06
1.45788e-05
7.58822e-08
9.11453e-06
1.62337e-05