/*--------------------------------*- C++ -*----------------------------------*\
| =========                 |                                                 |
| \\      /  F ield         | OpenFOAM: The Open Source CFD Toolbox           |
|  \\    /   O peration     | Version:  v1906                                 |
|   \\  /    A nd           | Web:      www.OpenFOAM.com                      |
|    \\/     M anipulation  |                                                 |
\*---------------------------------------------------------------------------*/
FoamFile
{
    version     2.0;
    format      ascii;
    class       volVectorField;
    location    "14.2/oil";
    object      U;
}
// * * * * * * * * * * * * * * * * * * * * * * * * * * * * * * * * * * * * * //

dimensions      [0 1 -1 0 0 0 0];


internalField   nonuniform List<vector> 
27760
(
(-3.17444e-05 -3.23923e-05 -3.17444e-05)
(-6.27088e-05 -2.43154e-05 -2.2857e-05)
(-4.67017e-06 -6.32268e-06 -6.2148e-06)
(-7.71689e-06 -1.05379e-06 -1.08036e-06)
(-1.9805e-06 -3.61758e-07 -3.86575e-07)
(-1.21652e-06 -1.78536e-07 -1.9661e-07)
(-5.30987e-07 -7.11677e-08 -8.6384e-08)
(-2.36687e-07 -3.01777e-08 -4.47478e-08)
(-7.76154e-08 -1.03993e-08 -2.51204e-08)
(2.28522e-09 -7.97363e-10 -1.58531e-08)
(3.91776e-08 4.37919e-09 -1.09892e-08)
(4.9179e-08 7.42449e-09 -8.14269e-09)
(4.15408e-08 9.32325e-09 -6.37262e-09)
(2.20762e-08 1.05052e-08 -5.26379e-09)
(-4.72644e-09 1.11361e-08 -4.65939e-09)
(-3.50133e-08 1.13152e-08 -4.47646e-09)
(-6.5307e-08 1.11168e-08 -4.64885e-09)
(-9.2567e-08 1.05834e-08 -5.11487e-09)
(-1.14344e-07 9.77705e-09 -5.78665e-09)
(-1.28915e-07 8.75306e-09 -6.56655e-09)
(-1.35335e-07 7.60434e-09 -7.32999e-09)
(-1.33439e-07 6.3877e-09 -7.96845e-09)
(-1.23817e-07 5.14676e-09 -8.37882e-09)
(-1.07685e-07 3.92803e-09 -8.43188e-09)
(-8.67739e-08 2.75542e-09 -8.04496e-09)
(-6.33006e-08 1.65838e-09 -7.168e-09)
(-3.98805e-08 7.32143e-10 -5.77923e-09)
(-1.94517e-08 1.75563e-10 -3.97298e-09)
(-4.92984e-09 3.39466e-10 -2.12475e-09)
(6.47935e-10 1.13611e-09 -5.13245e-10)
(-2.30538e-05 -6.44063e-05 -2.30538e-05)
(-7.65155e-06 -8.22678e-06 -1.03275e-05)
(-1.05006e-05 -9.91579e-06 -3.60667e-06)
(-5.21829e-06 -2.68116e-06 -1.02319e-06)
(-2.5748e-06 -1.51662e-06 -4.98272e-07)
(-1.46361e-06 -7.0927e-07 -2.35336e-07)
(-7.24728e-07 -3.74577e-07 -1.09261e-07)
(-3.32577e-07 -2.07475e-07 -5.23243e-08)
(-1.0392e-07 -1.23203e-07 -2.35086e-08)
(2.06554e-08 -7.73042e-08 -8.41652e-09)
(8.01292e-08 -5.05109e-08 3.37403e-10)
(9.48201e-08 -3.37176e-08 5.86536e-09)
(7.78357e-08 -2.27785e-08 9.53608e-09)
(3.86469e-08 -1.5743e-08 1.19136e-08)
(-1.47056e-08 -1.17109e-08 1.32281e-08)
(-7.48694e-08 -1.01827e-08 1.35804e-08)
(-1.35101e-07 -1.07931e-08 1.30583e-08)
(-1.89433e-07 -1.31962e-08 1.18009e-08)
(-2.3301e-07 -1.69831e-08 9.99583e-09)
(-2.62377e-07 -2.17148e-08 7.86699e-09)
(-2.75652e-07 -2.69117e-08 5.63685e-09)
(-2.72556e-07 -3.21358e-08 3.53193e-09)
(-2.54257e-07 -3.6979e-08 1.7579e-09)
(-2.23182e-07 -4.10379e-08 4.8834e-10)
(-1.82782e-07 -4.38907e-08 -1.56863e-10)
(-1.37316e-07 -4.49906e-08 -1.26274e-10)
(-9.16129e-08 -4.34918e-08 5.29058e-10)
(-5.07002e-08 -3.81364e-08 1.55939e-09)
(-1.93852e-08 -2.71316e-08 2.33337e-09)
(-1.60411e-09 -9.97679e-09 1.80519e-09)
(-6.39612e-06 -5.85177e-06 -6.39615e-06)
(-1.02256e-05 -1.08583e-05 -3.71995e-06)
(-5.67816e-06 -5.70763e-06 -1.6572e-06)
(-3.8304e-06 -2.8692e-06 -7.94931e-07)
(-2.17934e-06 -1.68155e-06 -3.85106e-07)
(-1.27677e-06 -9.587e-07 -1.86385e-07)
(-6.65306e-07 -5.96993e-07 -8.67966e-08)
(-3.00551e-07 -3.96413e-07 -3.77969e-08)
(-7.50655e-08 -2.83384e-07 -1.14846e-08)
(5.33188e-08 -2.15723e-07 3.44877e-09)
(1.14516e-07 -1.72949e-07 1.2811e-08)
(1.25966e-07 -1.44523e-07 1.91477e-08)
(1.00302e-07 -1.25212e-07 2.35809e-08)
(4.77564e-08 -1.12407e-07 2.65443e-08)
(-2.22602e-08 -1.04789e-07 2.81878e-08)
(-1.00723e-07 -1.01579e-07 2.85876e-08)
(-1.79125e-07 -1.02158e-07 2.78387e-08)
(-2.49843e-07 -1.05863e-07 2.6101e-08)
(-3.06655e-07 -1.11911e-07 2.36094e-08)
(-3.45146e-07 -1.19433e-07 2.06432e-08)
(-3.6293e-07 -1.27529e-07 1.74981e-08)
(-3.59678e-07 -1.35311e-07 1.44574e-08)
(-3.36923e-07 -1.41914e-07 1.17659e-08)
(-2.97799e-07 -1.46466e-07 9.6147e-09)
(-2.46673e-07 -1.47971e-07 8.12042e-09)
(-1.88812e-07 -1.45136e-07 7.30819e-09)
(-1.30007e-07 -1.36104e-07 7.07265e-09)
(-7.59851e-08 -1.18194e-07 7.06526e-09)
(-3.23639e-08 -8.74084e-08 6.541e-09)
(-3.57516e-09 -3.87691e-08 3.83332e-09)
(-1.17758e-06 -8.30854e-06 -1.17761e-06)
(-2.89713e-06 -5.68253e-06 -1.09078e-06)
(-2.78404e-06 -4.17462e-06 -8.085e-07)
(-2.20283e-06 -2.56844e-06 -4.48459e-07)
(-1.42605e-06 -1.68581e-06 -2.37923e-07)
(-8.82838e-07 -1.11663e-06 -1.21242e-07)
(-4.68019e-07 -7.9176e-07 -5.60667e-08)
(-1.889e-07 -5.94501e-07 -2.04832e-08)
(-4.42766e-09 -4.73248e-07 3.99522e-10)
(1.04392e-07 -3.95021e-07 1.34363e-08)
(1.54081e-07 -3.42353e-07 2.23615e-08)
(1.56116e-07 -3.05589e-07 2.88445e-08)
(1.20434e-07 -2.79679e-07 3.3598e-08)
(5.64454e-08 -2.62013e-07 3.68605e-08)
(-2.62611e-08 -2.51213e-07 3.86752e-08)
(-1.17937e-07 -2.46378e-07 3.90748e-08)
(-2.09129e-07 -2.46697e-07 3.81433e-08)
(-2.91235e-07 -2.51241e-07 3.60492e-08)
(-3.57191e-07 -2.58864e-07 3.3064e-08)
(-4.02008e-07 -2.68281e-07 2.95059e-08)
(-4.23018e-07 -2.78116e-07 2.57203e-08)
(-4.19922e-07 -2.87009e-07 2.20262e-08)
(-3.94532e-07 -2.93611e-07 1.86945e-08)
(-3.5043e-07 -2.96528e-07 1.59263e-08)
(-2.92513e-07 -2.94137e-07 1.38339e-08)
(-2.26558e-07 -2.84339e-07 1.24267e-08)
(-1.58802e-07 -2.64159e-07 1.15753e-08)
(-9.52664e-08 -2.29204e-07 1.08763e-08)
(-4.22275e-08 -1.72336e-07 9.51462e-09)
(-5.00623e-09 -8.07308e-08 5.33346e-09)
(-4.13861e-07 -2.40072e-06 -4.13897e-07)
(-1.56504e-06 -3.09258e-06 -5.22119e-07)
(-1.51728e-06 -2.74154e-06 -3.9267e-07)
(-1.27482e-06 -2.0449e-06 -2.39847e-07)
(-8.7998e-07 -1.55062e-06 -1.34457e-07)
(-5.48323e-07 -1.1842e-06 -6.93658e-08)
(-2.69966e-07 -9.44114e-07 -2.94043e-08)
(-6.50299e-08 -7.8265e-07 -5.28909e-09)
(7.70481e-08 -6.73691e-07 1.03871e-08)
(1.6161e-07 -5.97635e-07 2.12935e-08)
(1.95854e-07 -5.4293e-07 2.94969e-08)
(1.86325e-07 -5.0272e-07 3.58957e-08)
(1.40323e-07 -4.73272e-07 4.08033e-08)
(6.61052e-08 -4.52602e-07 4.42556e-08)
(-2.69908e-08 -4.39627e-07 4.61769e-08)
(-1.28942e-07 -4.33514e-07 4.65487e-08)
(-2.29787e-07 -4.33388e-07 4.54371e-08)
(-3.20312e-07 -4.38154e-07 4.30143e-08)
(-3.92921e-07 -4.46372e-07 3.95902e-08)
(-4.4227e-07 -4.56393e-07 3.55181e-08)
(-4.65561e-07 -4.66432e-07 3.11914e-08)
(-4.62584e-07 -4.74704e-07 2.69631e-08)
(-4.35384e-07 -4.79406e-07 2.31281e-08)
(-3.87869e-07 -4.78653e-07 1.98956e-08)
(-3.25272e-07 -4.70226e-07 1.73776e-08)
(-2.53657e-07 -4.51213e-07 1.55734e-08)
(-1.79495e-07 -4.1743e-07 1.43408e-08)
(-1.09007e-07 -3.62448e-07 1.3242e-08)
(-4.90707e-08 -2.75086e-07 1.14067e-08)
(-5.93027e-09 -1.32178e-07 6.32975e-09)
(-1.98126e-07 -1.58098e-06 -1.98166e-07)
(-6.78341e-07 -2.08356e-06 -2.39706e-07)
(-7.44489e-07 -2.03958e-06 -1.88314e-07)
(-6.69447e-07 -1.74381e-06 -1.22631e-07)
(-4.75878e-07 -1.48026e-06 -7.02908e-08)
(-2.78182e-07 -1.25806e-06 -3.4646e-08)
(-9.4673e-08 -1.09413e-06 -1.04456e-08)
(5.15416e-08 -9.73008e-07 5.92916e-09)
(1.56505e-07 -8.83996e-07 1.78952e-08)
(2.17689e-07 -8.17182e-07 2.72169e-08)
(2.36247e-07 -7.66122e-07 3.48862e-08)
(2.15109e-07 -7.26756e-07 4.12564e-08)
(1.59418e-07 -6.96869e-07 4.63279e-08)
(7.63294e-08 -6.75279e-07 4.99658e-08)
(-2.52008e-08 -6.61343e-07 5.19826e-08)
(-1.35109e-07 -6.54399e-07 5.23161e-08)
(-2.43193e-07 -6.53601e-07 5.10148e-08)
(-3.39873e-07 -6.5779e-07 4.82517e-08)
(-4.1721e-07 -6.65345e-07 4.43795e-08)
(-4.69661e-07 -6.7437e-07 3.97924e-08)
(-4.94406e-07 -6.82792e-07 3.49384e-08)
(-4.91351e-07 -6.8849e-07 3.02062e-08)
(-4.62775e-07 -6.8931e-07 2.59155e-08)
(-4.12847e-07 -6.82955e-07 2.22877e-08)
(-3.47025e-07 -6.66656e-07 1.94358e-08)
(-2.71546e-07 -6.36696e-07 1.7352e-08)
(-1.93025e-07 -5.87592e-07 1.5884e-08)
(-1.17834e-07 -5.10566e-07 1.457e-08)
(-5.3324e-08 -3.89674e-07 1.24958e-08)
(-6.46199e-09 -1.89807e-07 6.9296e-09)
(-7.80151e-08 -9.23515e-07 -7.80582e-08)
(-3.08539e-07 -1.47357e-06 -1.04934e-07)
(-3.57971e-07 -1.62326e-06 -8.5934e-08)
(-3.24773e-07 -1.56238e-06 -5.76998e-08)
(-2.1507e-07 -1.45786e-06 -3.19376e-08)
(-8.72533e-08 -1.34484e-06 -1.24534e-08)
(3.95652e-08 -1.24735e-06 2.41896e-09)
(1.45875e-07 -1.16663e-06 1.38938e-08)
(2.23017e-07 -1.10152e-06 2.34022e-08)
(2.65182e-07 -1.04882e-06 3.16593e-08)
(2.70358e-07 -1.00602e-06 3.9001e-08)
(2.39275e-07 -9.71436e-07 4.54181e-08)
(1.75607e-07 -9.44196e-07 5.06736e-08)
(8.56664e-08 -9.23899e-07 5.4497e-08)
(-2.19716e-08 -9.10331e-07 5.65995e-08)
(-1.37323e-07 -9.03017e-07 5.68908e-08)
(-2.50169e-07 -9.01214e-07 5.54035e-08)
(-3.50746e-07 -9.03811e-07 5.23016e-08)
(-4.30939e-07 -9.09144e-07 4.79843e-08)
(-4.85125e-07 -9.15236e-07 4.28888e-08)
(-5.10514e-07 -9.1987e-07 3.75202e-08)
(-5.07176e-07 -9.20763e-07 3.23051e-08)
(-4.77601e-07 -9.15551e-07 2.75945e-08)
(-4.26161e-07 -9.0163e-07 2.36179e-08)
(-3.58469e-07 -8.75747e-07 2.04904e-08)
(-2.80845e-07 -8.33391e-07 1.81972e-08)
(-1.9996e-07 -7.67699e-07 1.65777e-08)
(-1.22263e-07 -6.67319e-07 1.51554e-08)
(-5.53745e-08 -5.11041e-07 1.29846e-08)
(-6.69025e-09 -2.50905e-07 7.21796e-09)
(-3.25189e-08 -6.82226e-07 -3.25636e-08)
(-1.2965e-07 -1.21622e-06 -4.51e-08)
(-1.5033e-07 -1.445e-06 -3.69165e-08)
(-1.23201e-07 -1.50319e-06 -2.38958e-08)
(-4.93712e-08 -1.49504e-06 -1.06278e-08)
(4.15265e-08 -1.45652e-06 6.31218e-10)
(1.34476e-07 -1.41087e-06 1.04011e-08)
(2.14243e-07 -1.3659e-06 1.90309e-08)
(2.71399e-07 -1.32511e-06 2.70542e-08)
(2.99136e-07 -1.2891e-06 3.46667e-08)
(2.93992e-07 -1.25785e-06 4.18385e-08)
(2.55484e-07 -1.23127e-06 4.83331e-08)
(1.8636e-07 -1.20945e-06 5.37489e-08)
(9.23087e-08 -1.19254e-06 5.77242e-08)
(-1.84496e-08 -1.18061e-06 5.98853e-08)
(-1.36153e-07 -1.17334e-06 6.01342e-08)
(-2.50806e-07 -1.1701e-06 5.8491e-08)
(-3.52682e-07 -1.16994e-06 5.5098e-08)
(-4.33632e-07 -1.17131e-06 5.03998e-08)
(-4.88067e-07 -1.17233e-06 4.4863e-08)
(-5.13286e-07 -1.17085e-06 3.90482e-08)
(-5.09527e-07 -1.16459e-06 3.34208e-08)
(-4.79449e-07 -1.15115e-06 2.83616e-08)
(-4.27547e-07 -1.12772e-06 2.4105e-08)
(-3.59505e-07 -1.09067e-06 2.07671e-08)
(-2.81622e-07 -1.03471e-06 1.83246e-08)
(-2.00507e-07 -9.51542e-07 1.66137e-08)
(-1.22567e-07 -8.27116e-07 1.51511e-08)
(-5.54479e-08 -6.3471e-07 1.29831e-08)
(-6.66455e-09 -3.13149e-07 7.24268e-09)
(-1.18779e-08 -5.81898e-07 -1.19234e-08)
(-4.50586e-08 -1.11523e-06 -1.65661e-08)
(-4.19233e-08 -1.3894e-06 -1.263e-08)
(-1.05081e-08 -1.51713e-06 -6.26075e-09)
(4.88037e-08 -1.57175e-06 9.82722e-10)
(1.2031e-07 -1.58614e-06 7.99547e-09)
(1.92976e-07 -1.5814e-06 1.49449e-08)
(2.55217e-07 -1.56772e-06 2.18884e-08)
(2.98372e-07 -1.55063e-06 2.89635e-08)
(3.15768e-07 -1.53269e-06 3.61143e-08)
(3.03507e-07 -1.51528e-06 4.31152e-08)
(2.60547e-07 -1.4992e-06 4.96002e-08)
(1.89112e-07 -1.48507e-06 5.50595e-08)
(9.44135e-08 -1.47329e-06 5.90816e-08)
(-1.57249e-08 -1.46407e-06 6.12308e-08)
(-1.31964e-07 -1.45715e-06 6.14392e-08)
(-2.44825e-07 -1.45204e-06 5.97175e-08)
(-3.44878e-07 -1.44802e-06 5.61545e-08)
(-4.24139e-07 -1.4438e-06 5.12278e-08)
(-4.77171e-07 -1.43775e-06 4.54171e-08)
(-5.01382e-07 -1.42796e-06 3.93287e-08)
(-4.97159e-07 -1.41239e-06 3.34511e-08)
(-4.6726e-07 -1.38871e-06 2.81829e-08)
(-4.16207e-07 -1.35408e-06 2.37666e-08)
(-3.4961e-07 -1.30457e-06 2.03152e-08)
(-2.73611e-07 -1.23414e-06 1.78024e-08)
(-1.94613e-07 -1.13309e-06 1.60604e-08)
(-1.18816e-07 -9.84612e-07 1.46142e-08)
(-5.36377e-08 -7.56463e-07 1.25343e-08)
(-6.40625e-09 -3.74385e-07 7.02489e-09)
(-2.98591e-09 -5.55544e-07 -3.03191e-09)
(-4.94345e-09 -1.10096e-06 -3.55363e-09)
(1.29892e-08 -1.40547e-06 -1.18224e-09)
(4.85245e-08 -1.5763e-06 2.34217e-09)
(1.00656e-07 -1.67291e-06 6.71456e-09)
(1.60395e-07 -1.72548e-06 1.15279e-08)
(2.19625e-07 -1.7531e-06 1.68734e-08)
(2.69497e-07 -1.7664e-06 2.27318e-08)
(3.02559e-07 -1.77161e-06 2.90877e-08)
(3.12772e-07 -1.77209e-06 3.57736e-08)
(2.96337e-07 -1.76976e-06 4.24679e-08)
(2.5205e-07 -1.76573e-06 4.87452e-08)
(1.81842e-07 -1.76076e-06 5.40362e-08)
(9.04891e-08 -1.75529e-06 5.79282e-08)
(-1.46894e-08 -1.7495e-06 5.99639e-08)
(-1.25025e-07 -1.74316e-06 6.01336e-08)
(-2.31931e-07 -1.73589e-06 5.84403e-08)
(-3.26576e-07 -1.72721e-06 5.48954e-08)
(-4.01357e-07 -1.71616e-06 4.99858e-08)
(-4.51124e-07 -1.70153e-06 4.41687e-08)
(-4.73449e-07 -1.68179e-06 3.80688e-08)
(-4.68819e-07 -1.65526e-06 3.21865e-08)
(-4.39976e-07 -1.61989e-06 2.69277e-08)
(-3.91321e-07 -1.57291e-06 2.25334e-08)
(-3.28219e-07 -1.51014e-06 1.91102e-08)
(-2.56492e-07 -1.42492e-06 1.66291e-08)
(-1.82149e-07 -1.30616e-06 1.4931e-08)
(-1.10988e-07 -1.13441e-06 1.35646e-08)
(-4.99597e-08 -8.72115e-07 1.16523e-08)
(-5.92103e-09 -4.32515e-07 6.57087e-09)
(7.76024e-10 -5.61213e-07 7.28424e-10)
(1.25433e-08 -1.12725e-06 2.09032e-09)
(3.71548e-08 -1.45582e-06 3.79905e-09)
(7.33566e-08 -1.65618e-06 6.0058e-09)
(1.19508e-07 -1.78254e-06 8.91145e-09)
(1.69937e-07 -1.86359e-06 1.24642e-08)
(2.18567e-07 -1.91711e-06 1.67464e-08)
(2.58606e-07 -1.95354e-06 2.17344e-08)
(2.8388e-07 -1.97911e-06 2.73508e-08)
(2.89194e-07 -1.9973e-06 3.33931e-08)
(2.71149e-07 -2.01005e-06 3.95074e-08)
(2.28615e-07 -2.01843e-06 4.52597e-08)
(1.63331e-07 -2.02307e-06 5.00816e-08)
(7.96034e-08 -2.02429e-06 5.36028e-08)
(-1.59431e-08 -2.02219e-06 5.53862e-08)
(-1.1562e-07 -2.01654e-06 5.55179e-08)
(-2.12067e-07 -2.00708e-06 5.39961e-08)
(-2.97406e-07 -1.99353e-06 5.07224e-08)
(-3.64685e-07 -1.97524e-06 4.6153e-08)
(-4.09203e-07 -1.95142e-06 4.06882e-08)
(-4.28736e-07 -1.92104e-06 3.49451e-08)
(-4.23804e-07 -1.88286e-06 2.93982e-08)
(-3.97012e-07 -1.83522e-06 2.44416e-08)
(-3.52462e-07 -1.77554e-06 2.0307e-08)
(-2.95076e-07 -1.69952e-06 1.70972e-08)
(-2.30141e-07 -1.59992e-06 1.47842e-08)
(-1.63081e-07 -1.46441e-06 1.32195e-08)
(-9.91105e-08 -1.27109e-06 1.20014e-08)
(-4.44431e-08 -9.77501e-07 1.0343e-08)
(-5.21133e-09 -4.8546e-07 5.88388e-09)
(2.05006e-09 -5.79506e-07 2.00136e-09)
(1.78915e-08 -1.16893e-06 3.95886e-09)
(4.28107e-08 -1.5174e-06 5.28126e-09)
(7.55934e-08 -1.73911e-06 6.7899e-09)
(1.14373e-07 -1.88713e-06 8.84034e-09)
(1.55324e-07 -1.98971e-06 1.15387e-08)
(1.93917e-07 -2.06384e-06 1.49626e-08)
(2.25018e-07 -2.11961e-06 1.90957e-08)
(2.43708e-07 -2.16295e-06 2.38465e-08)
(2.45752e-07 -2.19714e-06 2.9017e-08)
(2.28315e-07 -2.22383e-06 3.42686e-08)
(1.9045e-07 -2.24382e-06 3.91995e-08)
(1.33689e-07 -2.25749e-06 4.32891e-08)
(6.17492e-08 -2.265e-06 4.62414e-08)
(-1.96756e-08 -2.26634e-06 4.76746e-08)
(-1.04156e-07 -2.26143e-06 4.77667e-08)
(-1.85805e-07 -2.25008e-06 4.65105e-08)
(-2.58006e-07 -2.23203e-06 4.37086e-08)
(-3.14739e-07 -2.20692e-06 3.97641e-08)
(-3.51944e-07 -2.17429e-06 3.49917e-08)
(-3.6771e-07 -2.13364e-06 2.99536e-08)
(-3.62553e-07 -2.08423e-06 2.50766e-08)
(-3.38801e-07 -2.02485e-06 2.07209e-08)
(-3.00048e-07 -1.95312e-06 1.70945e-08)
(-2.50574e-07 -1.86474e-06 1.42888e-08)
(-1.94919e-07 -1.75202e-06 1.22823e-08)
(-1.37707e-07 -1.60154e-06 1.09493e-08)
(-8.33746e-08 -1.38929e-06 9.95314e-09)
(-3.71779e-08 -1.06855e-06 8.62933e-09)
(-4.28776e-09 -5.31185e-07 4.97505e-09)
(2.075e-09 -5.99568e-07 2.02217e-09)
(1.62942e-08 -1.21026e-06 3.81327e-09)
(3.67458e-08 -1.57442e-06 4.78326e-09)
(6.23689e-08 -1.81153e-06 5.81865e-09)
(9.15548e-08 -1.9752e-06 7.25398e-09)
(1.21754e-07 -2.09373e-06 9.22832e-09)
(1.49772e-07 -2.18368e-06 1.18085e-08)
(1.71929e-07 -2.25481e-06 1.49804e-08)
(1.84573e-07 -2.31267e-06 1.86591e-08)
(1.845e-07 -2.36014e-06 2.26731e-08)
(1.69526e-07 -2.3985e-06 2.67373e-08)
(1.38925e-07 -2.42818e-06 3.05255e-08)
(9.39476e-08 -2.44926e-06 3.36088e-08)
(3.7545e-08 -2.46184e-06 3.57849e-08)
(-2.57884e-08 -2.46596e-06 3.67788e-08)
(-9.11117e-08 -2.46176e-06 3.68249e-08)
(-1.54105e-07 -2.4491e-06 3.59196e-08)
(-2.09659e-07 -2.4276e-06 3.37997e-08)
(-2.5301e-07 -2.39698e-06 3.07661e-08)
(-2.80957e-07 -2.35702e-06 2.70393e-08)
(-2.9201e-07 -2.30765e-06 2.30782e-08)
(-2.8666e-07 -2.24861e-06 1.92285e-08)
(-2.66824e-07 -2.17911e-06 1.57912e-08)
(-2.35412e-07 -2.09707e-06 1.29323e-08)
(-1.95851e-07 -1.9982e-06 1.07322e-08)
(-1.51727e-07 -1.87448e-06 9.17621e-09)
(-1.06679e-07 -1.71168e-06 8.17179e-09)
(-6.41906e-08 -1.48407e-06 7.46531e-09)
(-2.83532e-08 -1.14149e-06 6.55156e-09)
(-3.17431e-09 -5.67818e-07 3.87001e-09)
(1.42691e-09 -6.15246e-07 1.37104e-09)
(1.05415e-08 -1.24135e-06 2.54268e-09)
(2.31076e-08 -1.61618e-06 3.12842e-09)
(3.85789e-08 -1.86342e-06 3.76027e-09)
(5.60099e-08 -2.03758e-06 4.66911e-09)
(7.39845e-08 -2.16712e-06 5.96041e-09)
(9.05762e-08 -2.26835e-06 7.67459e-09)
(1.03493e-07 -2.35074e-06 9.80709e-09)
(1.10379e-07 -2.41947e-06 1.2301e-08)
(1.09103e-07 -2.47699e-06 1.50371e-08)
(9.81814e-08 -2.5242e-06 1.78148e-08)
(7.70679e-08 -2.56121e-06 2.04052e-08)
(4.65556e-08 -2.58784e-06 2.25065e-08)
(8.60232e-09 -2.60416e-06 2.3982e-08)
(-3.37515e-08 -2.61032e-06 2.4637e-08)
(-7.71489e-08 -2.60673e-06 2.46333e-08)
(-1.18683e-07 -2.59328e-06 2.39722e-08)
(-1.54869e-07 -2.56941e-06 2.24609e-08)
(-1.82483e-07 -2.53482e-06 2.03282e-08)
(-1.99446e-07 -2.48944e-06 1.77251e-08)
(-2.04849e-07 -2.43351e-06 1.49844e-08)
(-1.99179e-07 -2.36717e-06 1.23395e-08)
(-1.83868e-07 -2.28999e-06 9.99753e-09)
(-1.60991e-07 -2.20015e-06 8.07181e-09)
(-1.32926e-07 -2.09344e-06 6.6118e-09)
(-1.02144e-07 -1.96162e-06 5.60691e-09)
(-7.11242e-08 -1.78988e-06 5.00312e-09)
(-4.22469e-08 -1.55126e-06 4.64076e-09)
(-1.82819e-08 -1.19318e-06 4.19089e-09)
(-1.90964e-09 -5.93781e-07 2.60732e-09)
(4.09551e-10 -6.22854e-07 3.47977e-10)
(2.30257e-09 -1.25587e-06 6.28016e-10)
(4.68713e-09 -1.63547e-06 7.81744e-10)
(7.85779e-09 -1.88768e-06 1.02049e-09)
(1.18489e-08 -2.06748e-06 1.41859e-09)
(1.6354e-08 -2.20338e-06 2.0089e-09)
(2.07283e-08 -2.31146e-06 2.80664e-09)
(2.40555e-08 -2.4009e-06 3.8051e-09)
(2.52959e-08 -2.47655e-06 4.9736e-09)
(2.34249e-08 -2.54058e-06 6.25909e-09)
(1.7657e-08 -2.59357e-06 7.56939e-09)
(7.59325e-09 -2.63537e-06 8.80021e-09)
(-6.53731e-09 -2.66566e-06 9.81132e-09)
(-2.3927e-08 -2.68448e-06 1.05247e-08)
(-4.31891e-08 -2.69204e-06 1.08316e-08)
(-6.26199e-08 -2.68891e-06 1.07705e-08)
(-8.06488e-08 -2.67502e-06 1.03581e-08)
(-9.5511e-08 -2.6497e-06 9.52088e-09)
(-1.05724e-07 -2.61269e-06 8.41627e-09)
(-1.10491e-07 -2.56397e-06 7.12139e-09)
(-1.09617e-07 -2.50402e-06 5.80336e-09)
(-1.03586e-07 -2.43324e-06 4.57049e-09)
(-9.32598e-08 -2.35144e-06 3.51245e-09)
(-7.97735e-08 -2.25696e-06 2.67245e-09)
(-6.43321e-08 -2.14565e-06 2.07102e-09)
(-4.81541e-08 -2.00919e-06 1.70503e-09)
(-3.24539e-08 -1.83241e-06 1.55689e-09)
(-1.84149e-08 -1.58775e-06 1.57711e-09)
(-7.36025e-09 -1.22123e-06 1.63418e-09)
(-5.40661e-10 -6.07884e-07 1.23552e-09)
(-7.93258e-10 -6.20302e-07 -8.60833e-10)
(-7.27545e-09 -1.25003e-06 -1.61433e-09)
(-1.63832e-08 -1.62787e-06 -1.91839e-09)
(-2.67498e-08 -1.87983e-06 -2.06638e-09)
(-3.71662e-08 -2.0606e-06 -2.15723e-09)
(-4.68129e-08 -2.19841e-06 -2.24661e-09)
(-5.50386e-08 -2.30903e-06 -2.35299e-09)
(-6.14064e-08 -2.40137e-06 -2.48e-09)
(-6.56586e-08 -2.48007e-06 -2.61341e-09)
(-6.77057e-08 -2.54712e-06 -2.72702e-09)
(-6.7646e-08 -2.60294e-06 -2.78977e-09)
(-6.57588e-08 -2.64726e-06 -2.78511e-09)
(-6.24859e-08 -2.67962e-06 -2.70379e-09)
(-5.82695e-08 -2.7e-06 -2.59671e-09)
(-5.34422e-08 -2.70849e-06 -2.53094e-09)
(-4.79668e-08 -2.70567e-06 -2.63936e-09)
(-4.1571e-08 -2.69148e-06 -2.8911e-09)
(-3.42227e-08 -2.66535e-06 -3.19681e-09)
(-2.62585e-08 -2.62717e-06 -3.42301e-09)
(-1.82588e-08 -2.57705e-06 -3.52524e-09)
(-1.07937e-08 -2.51562e-06 -3.49059e-09)
(-4.35049e-09 -2.44336e-06 -3.34383e-09)
(7.86281e-10 -2.36017e-06 -3.12221e-09)
(4.50134e-09 -2.26447e-06 -2.8623e-09)
(6.81133e-09 -2.1521e-06 -2.58786e-09)
(7.80472e-09 -2.01474e-06 -2.30109e-09)
(7.59772e-09 -1.83718e-06 -1.9795e-09)
(6.2475e-09 -1.59176e-06 -1.56893e-09)
(3.92724e-09 -1.22431e-06 -9.97154e-10)
(8.6871e-10 -6.09464e-07 -1.80986e-10)
(-2.06311e-09 -6.06609e-07 -2.13731e-09)
(-1.73345e-08 -1.22202e-06 -3.97549e-09)
(-3.83864e-08 -1.59128e-06 -4.7475e-09)
(-6.2667e-08 -1.8378e-06 -5.27423e-09)
(-8.77166e-08 -2.01504e-06 -5.84251e-09)
(-1.11597e-07 -2.15052e-06 -6.6056e-09)
(-1.32402e-07 -2.25955e-06 -7.61744e-09)
(-1.48397e-07 -2.35078e-06 -8.88724e-09)
(-1.5806e-07 -2.42871e-06 -1.03708e-08)
(-1.60228e-07 -2.49531e-06 -1.19806e-08)
(-1.54319e-07 -2.55101e-06 -1.35669e-08)
(-1.40456e-07 -2.59555e-06 -1.498e-08)
(-1.19658e-07 -2.62842e-06 -1.60426e-08)
(-9.35511e-08 -2.64941e-06 -1.67408e-08)
(-6.41834e-08 -2.65839e-06 -1.70375e-08)
(-3.33022e-08 -2.65574e-06 -1.71869e-08)
(-2.11741e-09 -2.64144e-06 -1.71439e-08)
(2.75645e-08 -2.61517e-06 -1.66957e-08)
(5.36072e-08 -2.57712e-06 -1.5809e-08)
(7.41416e-08 -2.52761e-06 -1.45136e-08)
(8.7925e-08 -2.4673e-06 -1.29661e-08)
(9.45472e-08 -2.39665e-06 -1.13321e-08)
(9.43413e-08 -2.31546e-06 -9.76701e-09)
(8.82106e-08 -2.22206e-06 -8.37494e-09)
(7.73936e-08 -2.11229e-06 -7.20947e-09)
(6.32742e-08 -1.97787e-06 -6.2622e-09)
(4.7269e-08 -1.80383e-06 -5.47118e-09)
(3.06589e-08 -1.56299e-06 -4.67401e-09)
(1.50904e-08 -1.20219e-06 -3.59594e-09)
(2.26058e-09 -5.98402e-07 -1.5837e-09)
(-3.30379e-09 -5.81661e-07 -3.38267e-09)
(-2.71632e-08 -1.17169e-06 -6.27775e-09)
(-5.98358e-08 -1.5256e-06 -7.49546e-09)
(-9.75669e-08 -1.7617e-06 -8.36956e-09)
(-1.36671e-07 -1.93118e-06 -9.36825e-09)
(-1.74136e-07 -2.06039e-06 -1.07391e-08)
(-2.06894e-07 -2.16395e-06 -1.25782e-08)
(-2.32016e-07 -2.2502e-06 -1.48981e-08)
(-2.46822e-07 -2.32357e-06 -1.76314e-08)
(-2.4916e-07 -2.38608e-06 -2.06351e-08)
(-2.37773e-07 -2.43837e-06 -2.36636e-08)
(-2.12587e-07 -2.48029e-06 -2.64573e-08)
(-1.75079e-07 -2.51148e-06 -2.86847e-08)
(-1.27896e-07 -2.53157e-06 -3.0238e-08)
(-7.46979e-08 -2.54031e-06 -3.09517e-08)
(-1.90676e-08 -2.53774e-06 -3.11142e-08)
(3.61008e-08 -2.5239e-06 -3.06854e-08)
(8.71225e-08 -2.49881e-06 -2.94032e-08)
(1.3019e-07 -2.4629e-06 -2.73712e-08)
(1.62345e-07 -2.41661e-06 -2.47075e-08)
(1.81825e-07 -2.36047e-06 -2.17243e-08)
(1.88372e-07 -2.29477e-06 -1.8705e-08)
(1.82941e-07 -2.21907e-06 -1.58996e-08)
(1.67395e-07 -2.13151e-06 -1.34694e-08)
(1.44116e-07 -2.02788e-06 -1.14899e-08)
(1.15689e-07 -1.90011e-06 -9.94532e-09)
(8.47375e-08 -1.73374e-06 -8.73061e-09)
(5.37062e-08 -1.50263e-06 -7.58041e-09)
(2.56203e-08 -1.15576e-06 -6.03734e-09)
(3.56877e-09 -5.75138e-07 -2.90625e-09)
(-4.44117e-09 -5.46083e-07 -4.5264e-09)
(-3.61822e-08 -1.10029e-06 -8.39148e-09)
(-7.94932e-08 -1.43255e-06 -1.00123e-08)
(-1.29491e-07 -1.65371e-06 -1.11906e-08)
(-1.81346e-07 -1.81168e-06 -1.2558e-08)
(-2.31091e-07 -1.93113e-06 -1.44535e-08)
(-2.74619e-07 -2.02587e-06 -1.70043e-08)
(-3.07956e-07 -2.10377e-06 -2.02405e-08)
(-3.2742e-07 -2.16918e-06 -2.40855e-08)
(-3.29983e-07 -2.22425e-06 -2.83565e-08)
(-3.13786e-07 -2.2699e-06 -3.27469e-08)
(-2.7853e-07 -2.30631e-06 -3.68949e-08)
(-2.25967e-07 -2.33335e-06 -4.03356e-08)
(-1.59572e-07 -2.35077e-06 -4.28289e-08)
(-8.43681e-08 -2.3583e-06 -4.40551e-08)
(-5.73967e-09 -2.35578e-06 -4.42167e-08)
(7.14996e-08 -2.34329e-06 -4.32823e-08)
(1.41838e-07 -2.32111e-06 -4.10587e-08)
(2.00068e-07 -2.2897e-06 -3.78151e-08)
(2.42383e-07 -2.24939e-06 -3.37977e-08)
(2.66691e-07 -2.20048e-06 -2.94614e-08)
(2.72937e-07 -2.14286e-06 -2.51816e-08)
(2.62656e-07 -2.07578e-06 -2.12784e-08)
(2.38571e-07 -1.99717e-06 -1.79431e-08)
(2.04061e-07 -1.90283e-06 -1.52635e-08)
(1.62766e-07 -1.78501e-06 -1.32077e-08)
(1.18391e-07 -1.63002e-06 -1.16315e-08)
(7.44009e-08 -1.4133e-06 -1.01803e-08)
(3.50699e-08 -1.08703e-06 -8.22637e-09)
(4.74003e-09 -5.40669e-07 -4.09556e-09)
(-5.42194e-09 -5.01057e-07 -5.51034e-09)
(-4.39365e-08 -1.01019e-06 -1.02066e-08)
(-9.63556e-08 -1.3153e-06 -1.21639e-08)
(-1.56817e-07 -1.51767e-06 -1.3584e-08)
(-2.19499e-07 -1.66104e-06 -1.52309e-08)
(-2.79613e-07 -1.76802e-06 -1.75149e-08)
(-3.32178e-07 -1.85129e-06 -2.05931e-08)
(-3.7235e-07 -1.91822e-06 -2.45081e-08)
(-3.95633e-07 -1.97301e-06 -2.91755e-08)
(-3.98309e-07 -2.018e-06 -3.43899e-08)
(-3.78022e-07 -2.05439e-06 -3.97961e-08)
(-3.34269e-07 -2.08278e-06 -4.49637e-08)
(-2.68986e-07 -2.10347e-06 -4.93391e-08)
(-1.86302e-07 -2.11652e-06 -5.25644e-08)
(-9.23378e-08 -2.12189e-06 -5.42109e-08)
(5.94416e-09 -2.11945e-06 -5.43594e-08)
(1.01929e-07 -2.10929e-06 -5.2986e-08)
(1.88532e-07 -2.09173e-06 -5.00087e-08)
(2.59419e-07 -2.06696e-06 -4.58212e-08)
(3.10129e-07 -2.03506e-06 -4.07789e-08)
(3.38381e-07 -1.99587e-06 -3.54323e-08)
(3.44311e-07 -1.94884e-06 -3.02192e-08)
(3.2994e-07 -1.89285e-06 -2.55077e-08)
(2.98674e-07 -1.82563e-06 -2.15105e-08)
(2.5471e-07 -1.74304e-06 -1.83187e-08)
(2.02569e-07 -1.63778e-06 -1.58871e-08)
(1.46858e-07 -1.49722e-06 -1.40437e-08)
(9.19112e-08 -1.29882e-06 -1.23603e-08)
(4.30647e-08 -9.98891e-07 -1.00738e-08)
(5.72875e-09 -4.96437e-07 -5.10647e-09)
(-6.2027e-09 -4.48213e-07 -6.2944e-09)
(-5.00967e-08 -9.04651e-07 -1.16543e-08)
(-1.09718e-07 -1.17817e-06 -1.38717e-08)
(-1.78418e-07 -1.35874e-06 -1.54601e-08)
(-2.49574e-07 -1.48529e-06 -1.72865e-08)
(-3.1774e-07 -1.57794e-06 -1.98163e-08)
(-3.77247e-07 -1.64812e-06 -2.32285e-08)
(-4.22587e-07 -1.70258e-06 -2.75685e-08)
(-4.48661e-07 -1.74533e-06 -3.27448e-08)
(-4.51241e-07 -1.77883e-06 -3.85409e-08)
(-4.27626e-07 -1.80459e-06 -4.45777e-08)
(-3.77194e-07 -1.82368e-06 -5.03882e-08)
(-3.02002e-07 -1.83687e-06 -5.53676e-08)
(-2.06657e-07 -1.84466e-06 -5.90708e-08)
(-9.80907e-08 -1.84739e-06 -6.10049e-08)
(1.55127e-08 -1.84509e-06 -6.11337e-08)
(1.26033e-07 -1.83785e-06 -5.94418e-08)
(2.2517e-07 -1.82585e-06 -5.5958e-08)
(3.05777e-07 -1.80891e-06 -5.1147e-08)
(3.62939e-07 -1.78668e-06 -4.54533e-08)
(3.94248e-07 -1.75847e-06 -3.94789e-08)
(3.99971e-07 -1.72331e-06 -3.3694e-08)
(3.82477e-07 -1.67969e-06 -2.84862e-08)
(3.45681e-07 -1.62522e-06 -2.40827e-08)
(2.94385e-07 -1.55587e-06 -2.05735e-08)
(2.33786e-07 -1.46493e-06 -1.79101e-08)
(1.69201e-07 -1.34099e-06 -1.59019e-08)
(1.05656e-07 -1.16397e-06 -1.40632e-08)
(4.93396e-08 -8.94953e-07 -1.15282e-08)
(6.50155e-09 -4.44239e-07 -5.90627e-09)
(-6.76095e-09 -3.89476e-07 -6.85285e-09)
(-5.44584e-08 -7.87524e-07 -1.26866e-08)
(-1.19133e-07 -1.0262e-06 -1.5079e-08)
(-1.93588e-07 -1.18292e-06 -1.67622e-08)
(-2.70635e-07 -1.29126e-06 -1.86714e-08)
(-3.44351e-07 -1.36868e-06 -2.13039e-08)
(-4.08558e-07 -1.42519e-06 -2.48469e-08)
(-4.57289e-07 -1.46684e-06 -2.9347e-08)
(-4.8504e-07 -1.4974e-06 -3.47061e-08)
(-4.87276e-07 -1.51934e-06 -4.07011e-08)
(-4.61129e-07 -1.53449e-06 -4.69504e-08)
(-4.05936e-07 -1.54428e-06 -5.29727e-08)
(-3.23859e-07 -1.54994e-06 -5.81626e-08)
(-2.19836e-07 -1.55246e-06 -6.20333e-08)
(-1.01321e-07 -1.55254e-06 -6.40816e-08)
(2.26989e-08 -1.55043e-06 -6.41891e-08)
(1.43069e-07 -1.54624e-06 -6.23452e-08)
(2.50698e-07 -1.53989e-06 -5.86603e-08)
(3.3792e-07 -1.53084e-06 -5.36187e-08)
(3.9952e-07 -1.51828e-06 -4.77026e-08)
(4.33002e-07 -1.50103e-06 -4.15144e-08)
(4.38694e-07 -1.47771e-06 -3.55399e-08)
(4.19143e-07 -1.44654e-06 -3.01629e-08)
(3.78574e-07 -1.40502e-06 -2.56149e-08)
(3.22197e-07 -1.3494e-06 -2.19922e-08)
(2.55683e-07 -1.27362e-06 -1.92433e-08)
(1.8487e-07 -1.16766e-06 -1.71669e-08)
(1.15291e-07 -1.01407e-06 -1.52487e-08)
(5.37349e-08 -7.79285e-07 -1.2556e-08)
(7.03967e-09 -3.86107e-07 -6.47753e-09)
(-7.08135e-09 -3.26926e-07 -7.17153e-09)
(-5.68947e-08 -6.62968e-07 -1.32764e-08)
(-1.24362e-07 -8.64829e-07 -1.576e-08)
(-2.02013e-07 -9.96584e-07 -1.74697e-08)
(-2.82341e-07 -1.08621e-06 -1.93752e-08)
(-3.59121e-07 -1.14834e-06 -2.19899e-08)
(-4.25856e-07 -1.19152e-06 -2.54981e-08)
(-4.76291e-07 -1.22104e-06 -2.9941e-08)
(-5.04705e-07 -1.24036e-06 -3.52206e-08)
(-5.06453e-07 -1.25194e-06 -4.11099e-08)
(-4.78623e-07 -1.25772e-06 -4.72361e-08)
(-4.20603e-07 -1.25943e-06 -5.31316e-08)
(-3.34654e-07 -1.25865e-06 -5.82228e-08)
(-2.25897e-07 -1.25668e-06 -6.20167e-08)
(-1.0203e-07 -1.25454e-06 -6.40374e-08)
(2.75682e-08 -1.25268e-06 -6.4126e-08)
(1.53169e-07 -1.25119e-06 -6.22762e-08)
(2.65302e-07 -1.2498e-06 -5.86366e-08)
(3.56081e-07 -1.24765e-06 -5.36722e-08)
(4.20129e-07 -1.24354e-06 -4.7872e-08)
(4.54881e-07 -1.23597e-06 -4.18047e-08)
(4.60637e-07 -1.22328e-06 -3.59406e-08)
(4.39999e-07 -1.2035e-06 -3.06554e-08)
(3.97314e-07 -1.1742e-06 -2.61773e-08)
(3.38021e-07 -1.13189e-06 -2.26039e-08)
(2.68082e-07 -1.07126e-06 -1.9888e-08)
(1.93674e-07 -9.83765e-07 -1.78293e-08)
(1.20659e-07 -8.54721e-07 -1.59029e-08)
(5.61646e-08 -6.56165e-07 -1.31403e-08)
(7.3334e-09 -3.24174e-07 -6.81117e-09)
(-7.1492e-09 -2.62755e-07 -7.23508e-09)
(-5.73168e-08 -5.35337e-07 -1.33946e-08)
(-1.25268e-07 -6.99683e-07 -1.58764e-08)
(-2.03576e-07 -8.06241e-07 -1.7545e-08)
(-2.84675e-07 -8.77312e-07 -1.93735e-08)
(-3.622e-07 -9.24753e-07 -2.18716e-08)
(-4.29496e-07 -9.55638e-07 -2.52197e-08)
(-4.80175e-07 -9.74469e-07 -2.94517e-08)
(-5.08456e-07 -9.8432e-07 -3.44644e-08)
(-5.09717e-07 -9.87502e-07 -4.00328e-08)
(-4.81121e-07 -9.85986e-07 -4.58059e-08)
(-4.22167e-07 -9.8159e-07 -5.13433e-08)
(-3.35187e-07 -9.76055e-07 -5.61191e-08)
(-2.25348e-07 -9.70871e-07 -5.96691e-08)
(-1.00361e-07 -9.67205e-07 -6.15677e-08)
(3.0355e-08 -9.65637e-07 -6.16404e-08)
(1.56947e-07 -9.66249e-07 -5.98831e-08)
(2.69916e-07 -9.68609e-07 -5.6462e-08)
(3.61384e-07 -9.71677e-07 -5.17947e-08)
(4.25952e-07 -9.74075e-07 -4.63415e-08)
(4.61018e-07 -9.74126e-07 -4.06247e-08)
(4.66793e-07 -9.70045e-07 -3.50853e-08)
(4.45823e-07 -9.5987e-07 -3.00748e-08)
(4.02451e-07 -9.41288e-07 -2.58182e-08)
(3.42179e-07 -9.11203e-07 -2.24172e-08)
(2.71114e-07 -8.65092e-07 -1.98321e-08)
(1.95608e-07 -7.95854e-07 -1.78663e-08)
(1.21686e-07 -6.91591e-07 -1.59987e-08)
(5.65664e-08 -5.29983e-07 -1.32597e-08)
(7.37038e-09 -2.60645e-07 -6.89664e-09)
(-6.93608e-09 -1.99285e-07 -7.01468e-09)
(-5.55754e-08 -4.09166e-07 -1.29824e-08)
(-1.21665e-07 -5.36514e-07 -1.5352e-08)
(-1.98156e-07 -6.18408e-07 -1.69e-08)
(-2.77676e-07 -6.71676e-07 -1.85773e-08)
(-3.53854e-07 -7.05513e-07 -2.08778e-08)
(-4.20003e-07 -7.25575e-07 -2.39756e-08)
(-4.69724e-07 -7.35561e-07 -2.78942e-08)
(-4.97311e-07 -7.381e-07 -3.25278e-08)
(-4.98263e-07 -7.35248e-07 -3.7658e-08)
(-4.69894e-07 -7.28835e-07 -4.29573e-08)
(-4.11834e-07 -7.20611e-07 -4.80201e-08)