/*--------------------------------*- C++ -*----------------------------------*\
| =========                 |                                                 |
| \\      /  F ield         | OpenFOAM: The Open Source CFD Toolbox           |
|  \\    /   O peration     | Version:  v1912                                 |
|   \\  /    A nd           | Website:  www.openfoam.com                      |
|    \\/     M anipulation  |                                                 |
\*---------------------------------------------------------------------------*/
FoamFile
{
    version     2.0;
    format      ascii;
    class       volScalarField;
    location    "448/oil";
    object      wallHeatFlux;
}
// * * * * * * * * * * * * * * * * * * * * * * * * * * * * * * * * * * * * * //

dimensions      [1 0 -3 0 0 0 0];


internalField   uniform 0;

boundaryField
{
    maxY
    {
        type            calculated;
        value           uniform 0;
    }
    minX
    {
        type            calculated;
        value           uniform 0;
    }
    maxX
    {
        type            calculated;
        value           uniform 0;
    }
    minY
    {
        type            calculated;
        value           uniform 0;
    }
    minZ
    {
        type            calculated;
        value           uniform 0;
    }
    maxZ
    {
        type            calculated;
        value           uniform 0;
    }
    oil_to_sphere
    {
        type            calculated;
        value           nonuniform List<scalar> 
1536
(
689.067
406.561
399.443
-113.734
-125.496
393.546
165.001
260.105
226.257
-68.4487
-276.284
-29.4726
221.327
-19.2151
-341.729
134.642
394.038
413.076
119.68
206.451
325.754
230.972
250.563
131.597
159.021
145.248
158.327
97.099
376.491
239.715
461.15
408.691
418.249
137.947
154.433
99.7751
126.099
43.1196
94.9887
156.979
83.6276
124.548
216.565
274.056
343.311
153.452
318.725
245.287
-319.465
143.49
299.322
230.097
239.888
131.578
367.361
560.401
247.566
207.036
321.017
295.188
209.321
218.388
203.617
124.017
151.387
196.974
205.767
305.615
303.622
366.359
122.636
-127.173
-35.552
145.93
144.801
579.14
421.958
44.871
135.269
403.073
329.548
287.512
-110.999
-118.27
375.1
634.131
-184.478
181.87
295.367
294.082
225.444
109.236
104.419
117.279
144.268
271.739
322.777
342.312
442.625
287.583
331.397
118.644
693.254
301.542
-47.8966
139.248
162.609
-93.9295
-96.843
700.145
419.15
258.364
216.305
250.984
-151.454
-124.646
-207.267
508.499
662.542
434.591
238.454
250.998
91.773
319.487
458.16
272.725
236.815
73.178
336.876
320.405
198.079
308.96
363.753
165.774
183.124
380.805
252.613
405.206
78.3789
396.907
229.01
317.078
320
220.488
188.063
214.185
277.397
494.628
182.489
705.167
355.214
394.092
247.557
263.022
146.47
272.097
379.355
312.26
750.886
439.481
418.446
507.619
2.91745
47.65
113.015
108.501
364.141
483.041
443.079
560.338
95.5884
113.092
47.3263
323.226
235.699
262.265
609.781
14.7481
-52.583
634.432
102.953
52.0202
40.9532
67.6427
291.896
634.585
441.407
82.4153
-7.69522
408.356
10.384
359.703
360.517
486.046
-32.7232
-403.439
475.175
514.299
157.215
143.149
231.122
168.521
412.514
471.782
347.927
288.208
114.433
493.912
444.49
256.926
73.0751
151.28
139.833
171.217
328.002
569.108
-10.9602
-23.8852
-15.1121
-442.163
392.424
324.979
285.418
228.379
240.329
494.105
357.595
145.278
393.871
-66.5113
100.63
-391.076
219.709
373.659
476.574
447.03
394.208
335.122
433.876
-35.39
5.29814
37.1957
521.058
58.3341
-397.054
-196.633
327.49
205.953
613.618
739.404
255.701
-119.29
-434.203
294.229
434.79
118.026
126.656
-163.747
107.606
493.443
644.964
202.889
125.755
546.53
442.568
148.951
-43.998
182.022
578.194
511.057
335.763
361.342
464.782
40.5087
137.963
479.493
360.865
398.927
216.341
394.167
561.271
344.758
321.717
531.04
119.628
116.352
140.392
95.2721
111.53
489.905
587.364
-36.5225
175.004
159.922
170.397
81.7346
240.337
213.169
52.0661
-160.281
104.339
-26.3599
80.2577
635.148
537.728
532.251
711.514
23.033
43.4739
227.831
706.493
640.67
100.58
218.232
85.9426
355.482
131.155
319.949
343.405
422.48
369.322
153.908
378.922
101.458
466.305
502.675
403.874
380.686
60.364
594.619
580.936
347.292
-39.0949
116.541
166.013
344.467
316.725
359.021
51.1889
461.664
464.806
425.642
530.558
307.984
272.418
206.355
4.50677
273.463
349.661
2.20922
-17.8548
32.138
675.052
455.275
530.403
314.497
267.317
482.458
-11.0016
614.021
422.585
273.568
267.368
-29.4434
418.516
448.954
70.6149
274.336
200.212
126.497
356.033
456.964
216.292
146.763
24.6786
569.777
468.396
-20.5588
485.016
445.021
392.434
569.167
269.988
370.798
-75.7631
-30.0027
342.088
700.922
404.813
610.549
310.076
163.507
441.046
29.9093
84.0918
316.89
451.83
360.214
317.668
41.4412
44.026
480.577
460.504
469.121
262.961
108.242
325.184
381.31
448.819
279.416
181.923
60.357
254.859
16.1414
-93.1678
115.671
63.4414
259.533
-65.9336
167.053
593.622
160.598
157.14
448.413
445.352
350.944
201.242
-0.562371
402.014
534.247
336.704
282.283
413.403
219.004
249.105
309.447
-114.004
330.739
465.537
527.46
437.741
374.059
362.759
282.254
188.291
30.3602
236.477
61.2384
-28.5778
86.9477
-94.3758
643.729
605.001
504.75
682.447
18.3419
647.701
49.1302
104.542
392.472
-2.69185
40.3044
170.457
161.686
614.672
535.183
310.448
330.124
564.721
482.269
279.353
379.016
77.6248
452.606
-39.1192
524.184
-116.499
365.243
400.271
437.357
152.243
28.2595
195.933
446.295
209.167
-59.4921
449.725
472.53
503.378
724.247
274.11
556.434
20.5267
55.9826
-307.454
-195.509
278.531
169.883
133.135
87.158
667.748
38.6017
-9.68466
-48.8186
168.182
-71.7352
746.947
74.1757
95.1726
237.923
-269.362
-168.727
117.776
110.354
216.985
145.911
470.665
436.33
364.133
276.441
-86.0935
131.7
425.382
29.7647
71.7947
402.684
573.275
75.8654
-311.142
4.85076
-277.506
232.249
153.077
96.084
-41.6112
-269.851
356.213
396.157
318.74
226.695
580.255
365.396
345.785
267.722
58.3103
141.84
469.351
364.455
178.235
-205.902
287.01
411.701
596.471
296.51
112.994
599.449
236.381
560.296
75.0005
154.307
38.2771
160.509
292.214
574.306
13.6877
94.26
56.8442
167.536
756.15
-43.1379
137.868
-13.6504
237.724
290.804
471.7
581.324
-90.24
-37.3872
576.644
609.792
-140.94
557.382
486.228
403.891
475.891
345.187
254.683
270.563
567.032
277.655
350.859
253.93
450.03
297.534
232.784
213.303
4.84556
403.327
223.583
445.075
372.309
378.088
363.282
279.719
-30.4171
477.54
475.134
354.283
229.723
303.624
691.02
-78.0851
70.1509
15.7079
283.462
76.9229
694.216
161.096
189.808
243.711
-301.828
-254.578
126.455
120.823
270.137
38.4079
89.546
290.976
94.5995
583.878
-0.695294
677.084
152.777
276.057
-399.648
-265.497
-311.335
96.2524
404.517
136.268
97.0456
-273.58
259.389
417.508
264.851
822.444
75.3189
469.933
344.528
415.051
493.93
481.675
411.418
238.317
181.517
235.44
414.886
201.354
322.492
292.375
316.716
438.993
364.766
401.782
-1.6486
62.7027
-411.212
-160.063
-100.334
-576.077
116.657
146.574
202.087
231.725
-93.6708
9.95961
177.369
512.619
479.65
172.005
-52.494
220.204
430.254
349.042
246.611
-72.9579
75.1755
358.379
302.954
241.434
125.724
384.618
388.701
569.158
393.107
284.137
146.324
85.15
0.297188
107.129
204.561
709.644
278.897
633.581
71.9103
731.768
117.532
211.911
19.7036
47.0465
149.034
-7.49914
196.203
-68.0151
130.114
464.182
166.416
-23.72
587.648
375.871
327.72
222.48
555.62
862.842
-155.279
368.275
308.91
349.923
-9.17762
227.413
84.2934
313.226
392.582
484.4
55.3636
356.524
265.242
388.565
371.019
343.953
172.598
205.901
133.156
-56.6434
-87.1555
34.6251
545.682
131.15
-11.643
139.142
472.005
193.115
542.727
434.472
335.225
283.432
329.263
603.13
35.2535
363.872
486.215
516.765
277.801
82.1823
185.654
329.99
524.839
15.2736
209.177
268.939
465.096
331.926
324.952
553.095
20.6338
93.9585
57.9813
604.299
480.811
272.642
462.521
97.2948
129.418
461.518
322.249
571.472
48.2269
418.003
451.527
292.027
315.37
401.74
52.4371
-102.726
251.546
324.162
611.639
216.238
111.33
235.304
333.081
413.308
284.027
88.1072
218.619
449.73
17.5686
89.7973
219.291
126.187
307.329
282.211
510.745
347.936
436.605
137.456
237.281
306.834
228.307
185.379
145.637
142.226
26.5485
380.919
299.644
300.331
336.404
-37.4649
161.735
593.494
600.554
88.8073
468.573
331.786
379.447
137.576
519.973
501.258
42.5787
192.86
157.345
145.429
-48.221
11.2846
157.444
494.052
689.949
112.355
399.201
379.76
326.273
201.815
308.866
508.545
296.602
51.0346
163.782
139.057
150.194
350.069
376.339
382.254
396.458
393.736
89.937
411.153
170.511
365.13
-270.08
337.386
538.031
184.26
-155.658
244.485
205.305
633.87
62.6455
411.521
232.772
-107.146
582.347
-24.7458
209.614
255.717
-40.8183
468.723
312.155
201.366
269.91
310.143
209.553
650.158
-18.1302
152.036
-344.422
169.164
186.329
265.003
466.25
880.032
-65.7266
154.522
788.109
-22.8396
390.051
82.1441
378.779
-179.846
63.3554
778.616
-125.449
713.652
-79.3646
618.898
-104.38
59.1998
-315.559
-18.4162
739.029
-239.734
227.017
-126.99
552.284
742.852
-224.793
184.863
118.884
51.9273
43.0271
159.548
258.789
257.4
371.609
235.79
561.646
811.253
-231.175
254.051
337.568
258.588
291.608
221.303
184.368
220.267
427.914
226.774
433.745
148.069
298.688
537.991
182.404
361.129
473.713
147.051
298.677
233.483
368.039
210.883
275.616
189.587
459.731
165.527
325.063
-82.9524
573.376
-211.32
320.934
447.368
586.971
69.2433
286.45
236.778
286.651
263.997
226.081
423.396
36.5021
-412.32
181.815
-152.3
482.161
74.2858
250.975
382.001
-376.579
518.699
24.01
-286.254
53.7493
392.182
374.584
262.138
-234.273
257.03
297.773
109.655
76.3122
490.82
452.153
132.101
269.557
492.467
-227.804
421.34
70.2683
361.657
-201.53
686.604
666.478
451.848
256.418
184.157
382.114
172.864
-238.354
16.0527
401.071
82.9727
340.615
-157.615
474.936
359.782
-512.697
258.637
312.701
-357.937
527.347
-89.8545
486.743
577.282
417.426
-276.37
273.684
195.529
261.929
279.584
343.373
-223.172
142.066
90.1067
91.3821
466.797
246.613
315.038
375.37
361.128
191.632
283.151
205.13
322.912
498.542
131.655
179.71
117.135
275.926
444.479
128.14
172.846
150.862
250.487
88.2876
108.355
170.499
189.614
278.395
161.695
571.489
423.298
-134.929
-128.849
528.444
-574.314
407.611
295.812
87.0251
190.174
538.507
-377.627
482.183
315.537
-255.505
154.027
108.214
247.832
-403.993
528.316
322.604
-368.223
507.644
511.025
-188.481
589.646
450.93
-181.604
115.082
89.163
-371.635
257.132
285.85
18.5446
70.4418
46.4517
-495.488
64.6512
-398.123
-529.192
462.317
116.929
739.987
130.183
-226.342
533.387
204.339
-318.701
130.75
117.907
-324.789
-128.099
511.289
-656.662
18.1112
-32.0407
-576.935
481.1
432.65
255.165
167.517
112.967
20.4347
-443.378
263.416
172.215
183.526
255.991
-285.328
393.5
132.622
225.832
109.301
217.097
276.832
4.03784
-262.447
158.637
285.078
127.379
166.524
233.563
69.3712
177.998
-297.937
131.719
312.276
113.256
192.209
76.9196
-254.192
536.069
525.829
505.359
588.638
-191.283
-354.092
136.222
405.886
284.693
387.264
427.188
18.9958
-35.312
-346.909
-226.222
68.1705
229.421
213.268
201.755
-34.5529
466.301
318.04
-176.199
58.1699
8.09558
421.869
74.7351
-446.319
225.61
244.135
479.625
-307.098
111.993
277.811
147.416
191.157
377.665
223.004
26.1106
616.623
-534.451
-79.4634
195.648
71.7253
160.514
585.431
326.845
245.862
-67.0691
540.739
141.519
276.046
426.603
479.563
458.984
477.787
566.027
623.967
556.073
556.997
247.664
438.848
130.919
189.986
-42.9523
-109
-487.756
596.263
579.525
504.217
178.587
278.35
261.199
80.1382
292.166
435.037
34.4731
204.537
365.414
113.402
136.727
123.922
175.028
67.7634
166.96
145.29
-199.986
275.46
38.4447
202.596
-324.43
593.429
214.047
97.5881
58.0276
-170.618
242.285
104.651
-367.659
-76.1741
207.985
-119.043
-53.8401
635.976
664.234
147.571
150.06
399.064
581.605
-374.153
74.7422
67.3423
162.128
160.139
181.856
220.281
-40.5818
-245.413
525.833
153.982
-92.3284
-45.5083
147.713
250.31
-166.013
185.259
78.2568
130.829
586.289
-84.6426
-236.425
159.383
111.545
66.5549
-238.783
481.123
143.344
132.882
145.521
-364.089
146.55
159.485
-226.348
139.897
-77.5359
319.517
519.426
78.7951
438.943
308.398
88.6587
98.1769
167.985
-238.26
301.936
337.707
120.863
-307.871
1.68087
195.406
213.84
83.3474
-265.737
93.6714
480.52
308.232
98.9469
628.176
-82.6082
422.214
-353.703
-97.0669
443.775
-364.144
462.623
93.8915
249.12
131.671
655.416
-23.1967
255.577
587.627
538.152
-140.022
520.536
586.828
-560.222
184.144
109.534
-338.223
333.877
103.804
133.671
134.59
224.252
184.253
121.367
98.8071
-354.577
333.827
248.046
233.808
274.906
178.568
87.5566
5.25299
391.231
-431.907
60.6205
44.7932
-409.207
449.473
612.291
206.13
503.449
538.759
77.1609
81.6992
330.84
500.671
67.3747
362.8
-47.0225
-337.715
399.285
37.5337
479.784
625.737
578.428
-307.235
428.718
255.26
24.2252
118.604
161.078
106.303
-296.748
495.709
-278.898
486.195
174.645
-46.992
-97.7077
177.19
373.668
557.643
239.374
708.831
406.18
465.596
-377.086
436.177
385.693
480.765
75.5093
30.9242
-435.818
210.041
687.369
505.298
-251.434
-28.4891
-285.662
75.2006
221.206
-53.5193
835.022
134.749
-26.6379
-238.066
304.596
36.4664
-396.461
189.43
100.527
109.532
118.367
122.343
-232.992
-47.5648
-334.686
102.781
402.925
321.618
520.05
479.701
61.1977
6.508
-357.769
91.6715
373.734
547.812
405.033
423.1
-90.3613
-415.347
-18.5015
-454.618
396.908
417.539
6.91089
458.605
390.295
522.093
288.51
249.889
242.132
61.1775
-367.362
-7.87893
-310.547
-65.1613
118.715
83.0487
-198.412
-310.996
358.879
690.289
628.047
578.562
235.244
350.2
339.679
209.069
117.03
209.644
23.369
173.186
175.658
-307.868
388.295
152.895
-27.0041
-208.236
95.6885
229.115
226.103
84.0634
-205.583
561.11
301.486
107.069
621.856
33.4002
-330.823
320.609
174.164
177.469
177.674
91.483
-434.842
173.716
169.986
-274.674
541.89
143.053
-655.198
117.549
217.532
235.948
89.8928
-298.061
50.5846
64.6937
-108.942
190.201
-354.673
202.674
186.622
-132.308
613.133
168.433
-226.799
670.08
211.493
211.203
-212.745
186.714
-281.057
)
;
    }
}


// ************************************************************************* //
