/*--------------------------------*- C++ -*----------------------------------*\
| =========                 |                                                 |
| \\      /  F ield         | OpenFOAM: The Open Source CFD Toolbox           |
|  \\    /   O peration     | Version:  v1906                                 |
|   \\  /    A nd           | Web:      www.OpenFOAM.com                      |
|    \\/     M anipulation  |                                                 |
\*---------------------------------------------------------------------------*/
FoamFile
{
    version     2.0;
    format      ascii;
    class       volVectorField;
    location    "43/oil";
    object      U;
}
// * * * * * * * * * * * * * * * * * * * * * * * * * * * * * * * * * * * * * //

dimensions      [0 1 -1 0 0 0 0];


internalField   nonuniform List<vector> 
27760
(
(-2.64073e-05 -2.69311e-05 -2.64073e-05)
(-5.21391e-05 -2.0206e-05 -1.90153e-05)
(-3.8394e-06 -5.24722e-06 -5.18688e-06)
(-6.2962e-06 -8.65206e-07 -9.26804e-07)
(-1.44228e-06 -2.86098e-07 -3.56408e-07)
(-7.18991e-07 -1.2905e-07 -2.02475e-07)
(-6.96606e-08 -3.5047e-08 -1.12932e-07)
(2.36676e-07 3.81849e-09 -7.85188e-08)
(4.05627e-07 2.49343e-08 -6.09213e-08)
(4.78461e-07 3.73755e-08 -5.09404e-08)
(4.82949e-07 4.59675e-08 -4.3774e-08)
(4.32841e-07 5.20908e-08 -3.8313e-08)
(3.38764e-07 5.65519e-08 -3.40735e-08)
(2.11629e-07 5.95816e-08 -3.10635e-08)
(6.3421e-08 6.1182e-08 -2.94337e-08)
(-9.28949e-08 6.13461e-08 -2.92713e-08)
(-2.44168e-07 6.0121e-08 -3.05289e-08)
(-3.78122e-07 5.76299e-08 -3.30002e-08)
(-4.84484e-07 5.40734e-08 -3.63252e-08)
(-5.55747e-07 4.97067e-08 -4.00257e-08)
(-5.87877e-07 4.46168e-08 -4.36499e-08)
(-5.80661e-07 3.90386e-08 -4.66277e-08)
(-5.36984e-07 3.33618e-08 -4.81787e-08)
(-4.62819e-07 2.76064e-08 -4.79633e-08)
(-3.671e-07 2.19032e-08 -4.55353e-08)
(-2.60906e-07 1.64856e-08 -4.05745e-08)
(-1.57099e-07 1.18392e-08 -3.30978e-08)
(-6.97351e-08 8.87991e-09 -2.37258e-08)
(-1.18216e-08 8.91664e-09 -1.43051e-08)
(5.35956e-09 1.04536e-08 -5.26404e-09)
(-1.91631e-05 -5.35719e-05 -1.9163e-05)
(-6.31124e-06 -6.91584e-06 -8.58176e-06)
(-8.56937e-06 -8.35425e-06 -2.99851e-06)
(-4.03092e-06 -2.36148e-06 -8.56058e-07)
(-1.6637e-06 -1.3994e-06 -4.23047e-07)
(-5.67919e-07 -7.23449e-07 -2.05555e-07)
(2.00484e-07 -4.32615e-07 -9.93246e-08)
(6.44852e-07 -2.75485e-07 -4.81101e-08)
(9.02932e-07 -1.83565e-07 -1.82676e-08)
(1.0137e-06 -1.21677e-07 1.46817e-09)
(1.00431e-06 -7.54401e-08 1.65424e-08)
(8.92238e-07 -3.94152e-08 2.87724e-08)
(6.94902e-07 -1.18125e-08 3.84455e-08)
(4.32181e-07 7.41552e-09 4.52897e-08)
(1.27395e-07 1.78163e-08 4.89667e-08)
(-1.93633e-07 1.91468e-08 4.92812e-08)
(-5.04489e-07 1.16986e-08 4.63131e-08)
(-7.80467e-07 -3.58528e-09 4.04568e-08)
(-1.00083e-06 -2.51613e-08 3.2388e-08)
(-1.15066e-06 -5.10479e-08 2.29888e-08)
(-1.22191e-06 -7.91608e-08 1.33279e-08)
(-1.21363e-06 -1.07294e-07 4.40533e-09)
(-1.13194e-06 -1.33126e-07 -2.88712e-09)
(-9.89172e-07 -1.54664e-07 -7.79772e-09)
(-8.02812e-07 -1.6961e-07 -9.7669e-09)
(-5.94316e-07 -1.75131e-07 -8.57799e-09)
(-3.87648e-07 -1.67364e-07 -4.57569e-09)
(-2.07112e-07 -1.41299e-07 9.82965e-10)
(-7.42044e-08 -9.1487e-08 5.2547e-09)
(-4.6164e-09 -2.3299e-08 4.7596e-09)
(-5.30598e-06 -4.9801e-06 -5.30593e-06)
(-8.39207e-06 -9.30426e-06 -3.07221e-06)
(-4.45526e-06 -5.13925e-06 -1.35581e-06)
(-2.71896e-06 -2.8528e-06 -6.39253e-07)
(-1.12435e-06 -1.90345e-06 -2.98241e-07)
(-1.52808e-07 -1.31325e-06 -1.30785e-07)
(5.51497e-07 -1.0026e-06 -4.33645e-08)
(1.00322e-06 -8.10556e-07 4.393e-09)
(1.27315e-06 -6.80637e-07 3.52545e-08)
(1.38296e-06 -5.82112e-07 5.78896e-08)
(1.3507e-06 -5.02199e-07 7.63512e-08)
(1.19152e-06 -4.36319e-07 9.1799e-08)
(9.24274e-07 -3.84198e-07 1.04196e-07)
(5.7318e-07 -3.4723e-07 1.13027e-07)
(1.67855e-07 -3.26974e-07 1.1777e-07)
(-2.58349e-07 -3.24211e-07 1.18133e-07)
(-6.71076e-07 -3.38425e-07 1.14197e-07)
(-1.03811e-06 -3.6765e-07 1.06444e-07)
(-1.33243e-06 -4.08593e-07 9.57147e-08)
(-1.53458e-06 -4.57002e-07 8.31047e-08)
(-1.63414e-06 -5.08034e-07 6.9831e-08)
(-1.63012e-06 -5.56725e-07 5.70846e-08)
(-1.53047e-06 -5.98124e-07 4.5904e-08)
(-1.35103e-06 -6.27183e-07 3.711e-08)
(-1.11391e-06 -6.38384e-07 3.1198e-08)
(-8.45673e-07 -6.25195e-07 2.823e-08)
(-5.75194e-07 -5.79315e-07 2.76331e-08)
(-3.30434e-07 -4.90375e-07 2.77735e-08)
(-1.37033e-07 -3.45811e-07 2.5408e-08)
(-1.41547e-08 -1.38308e-07 1.43375e-08)
(-9.62237e-07 -7.16428e-06 -9.6217e-07)
(-2.25642e-06 -5.31119e-06 -8.74448e-07)
(-1.96291e-06 -4.2814e-06 -6.33775e-07)
(-1.23745e-06 -3.09212e-06 -3.31435e-07)
(-3.30564e-07 -2.44385e-06 -1.53286e-07)
(3.76429e-07 -2.00905e-06 -5.1485e-08)
(9.44789e-07 -1.74076e-06 9.72526e-09)
(1.34398e-06 -1.55077e-06 4.85912e-08)
(1.58741e-06 -1.40399e-06 7.7129e-08)
(1.67571e-06 -1.28031e-06 1.00346e-07)
(1.61476e-06 -1.17239e-06 1.20477e-07)
(1.41471e-06 -1.07933e-06 1.37864e-07)
(1.0934e-06 -1.00366e-06 1.52032e-07)
(6.76846e-07 -9.49127e-07 1.62198e-07)
(1.98372e-07 -9.18976e-07 1.67655e-07)
(-3.03739e-07 -9.14829e-07 1.68023e-07)
(-7.89755e-07 -9.36021e-07 1.63372e-07)
(-1.22232e-06 -9.7943e-07 1.54242e-07)
(-1.57012e-06 -1.03972e-06 1.41601e-07)
(-1.81075e-06 -1.10992e-06 1.2669e-07)
(-1.9323e-06 -1.18216e-06 1.10863e-07)
(-1.93381e-06 -1.24817e-06 9.54235e-08)
(-1.82452e-06 -1.29963e-06 8.14895e-08)
(-1.62242e-06 -1.32806e-06 6.99003e-08)
(-1.35224e-06 -1.32428e-06 6.1107e-08)
(-1.04314e-06 -1.27766e-06 5.50899e-08)
(-7.26382e-07 -1.17497e-06 5.1181e-08)
(-4.31714e-07 -9.9918e-07 4.75262e-08)
(-1.88579e-07 -7.26214e-07 4.05893e-08)
(-2.15945e-08 -3.19671e-07 2.18255e-08)
(-3.22401e-07 -2.44256e-06 -3.22317e-07)
(-1.11493e-06 -3.55074e-06 -3.92707e-07)
(-8.42699e-07 -3.61155e-06 -2.76885e-07)
(-3.65288e-07 -3.26528e-06 -1.44796e-07)
(2.54481e-07 -2.99826e-06 -5.22541e-08)
(8.11473e-07 -2.7686e-06 8.44619e-09)
(1.28663e-06 -2.59008e-06 5.04372e-08)
(1.63746e-06 -2.43542e-06 8.15251e-08)
(1.85067e-06 -2.29389e-06 1.07525e-07)
(1.91438e-06 -2.15959e-06 1.30789e-07)
(1.82585e-06 -2.03314e-06 1.52098e-07)
(1.59104e-06 -1.91901e-06 1.71068e-07)
(1.22635e-06 -1.8237e-06 1.8677e-07)
(7.58613e-07 -1.75398e-06 1.98126e-07)
(2.23663e-07 -1.71516e-06 2.0422e-07)
(-3.3664e-07 -1.70993e-06 2.04569e-07)
(-8.78556e-07 -1.73757e-06 1.99225e-07)
(-1.36087e-06 -1.79383e-06 1.88794e-07)
(-1.74911e-06 -1.8713e-06 1.74387e-07)
(-2.01878e-06 -1.9602e-06 1.57397e-07)
(-2.15707e-06 -2.04943e-06 1.39339e-07)
(-2.16325e-06 -2.12738e-06 1.21642e-07)
(-2.04755e-06 -2.18226e-06 1.05493e-07)
(-1.82944e-06 -2.20207e-06 9.17558e-08)
(-1.53527e-06 -2.17396e-06 8.08677e-08)
(-1.19572e-06 -2.08301e-06 7.27614e-08)
(-8.43427e-07 -1.91056e-06 6.67177e-08)
(-5.09559e-07 -1.63118e-06 6.07243e-08)
(-2.27266e-07 -1.20459e-06 5.09714e-08)
(-2.68301e-08 -5.52385e-07 2.71133e-08)
(-1.40087e-07 -1.98091e-06 -1.39987e-07)
(-3.54501e-07 -3.16541e-06 -1.52165e-07)
(-1.5169e-07 -3.62655e-06 -9.98249e-08)
(2.1219e-07 -3.71093e-06 -3.8951e-08)
(6.88051e-07 -3.70211e-06 1.07024e-08)
(1.15361e-06 -3.63588e-06 4.8177e-08)
(1.56549e-06 -3.54646e-06 7.84593e-08)
(1.87792e-06 -3.43709e-06 1.04656e-07)
(2.0646e-06 -3.313e-06 1.29266e-07)
(2.10613e-06 -3.1793e-06 1.5303e-07)
(1.99402e-06 -3.04379e-06 1.75758e-07)
(1.73092e-06 -2.91612e-06 1.96494e-07)
(1.33186e-06 -2.80685e-06 2.13892e-07)
(8.2404e-07 -2.72576e-06 2.26561e-07)
(2.45156e-07 -2.68037e-06 2.33356e-07)
(-3.6018e-07 -2.67444e-06 2.33676e-07)
(-9.45069e-07 -2.70728e-06 2.27559e-07)
(-1.46525e-06 -2.77364e-06 2.15691e-07)
(-1.88383e-06 -2.86416e-06 1.99355e-07)
(-2.17479e-06 -2.96646e-06 1.80148e-07)
(-2.32496e-06 -3.06649e-06 1.59792e-07)
(-2.33391e-06 -3.1494e-06 1.39862e-07)
(-2.21284e-06 -3.20021e-06 1.21634e-07)
(-1.98244e-06 -3.20362e-06 1.06019e-07)
(-1.67015e-06 -3.14315e-06 9.34574e-08)
(-1.30765e-06 -2.99955e-06 8.38507e-08)
(-9.28582e-07 -2.74803e-06 7.64345e-08)
(-5.65343e-07 -2.35302e-06 6.90654e-08)
(-2.54254e-07 -1.75402e-06 5.76739e-08)
(-3.02896e-08 -8.21666e-07 3.06247e-08)
(-3.83553e-08 -1.67659e-06 -3.82395e-08)
(-3.19459e-08 -3.15401e-06 -3.6622e-08)
(2.01591e-07 -3.93253e-06 -1.03756e-08)
(5.48222e-07 -4.3171e-06 2.00534e-08)
(9.70606e-07 -4.51291e-06 4.84298e-08)
(1.3922e-06 -4.58695e-06 7.34649e-08)
(1.76832e-06 -4.58486e-06 9.72113e-08)
(2.05564e-06 -4.52758e-06 1.20795e-07)
(2.22322e-06 -4.43131e-06 1.45059e-07)
(2.24813e-06 -4.30937e-06 1.69838e-07)
(2.11848e-06 -4.17539e-06 1.943e-07)
(1.83461e-06 -4.04352e-06 2.17045e-07)
(1.41045e-06 -3.92774e-06 2.36339e-07)
(8.73389e-07 -3.8406e-06 2.50466e-07)
(2.62456e-07 -3.79154e-06 2.58032e-07)
(-3.75581e-07 -3.78531e-06 2.58322e-07)
(-9.91417e-07 -3.8213e-06 2.51358e-07)
(-1.53843e-06 -3.89347e-06 2.3791e-07)
(-1.97789e-06 -3.99087e-06 2.19463e-07)
(-2.28287e-06 -4.09897e-06 1.97869e-07)
(-2.44006e-06 -4.2012e-06 1.75078e-07)
(-2.44964e-06 -4.2801e-06 1.52843e-07)
(-2.3238e-06 -4.31796e-06 1.32568e-07)
(-2.08417e-06 -4.29659e-06 1.15201e-07)
(-1.75907e-06 -4.19605e-06 1.01195e-07)
(-1.38079e-06 -3.99265e-06 9.042e-08)
(-9.83628e-07 -3.65491e-06 8.20706e-08)
(-6.00872e-07 -3.13564e-06 7.38974e-08)
(-2.71053e-07 -2.35107e-06 6.16042e-08)
(-3.2352e-08 -1.11508e-06 3.2737e-08)
(4.4733e-10 -1.73046e-06 5.76691e-10)
(1.24337e-07 -3.46034e-06 1.48667e-08)
(3.90322e-07 -4.46809e-06 3.24675e-08)
(7.40948e-07 -5.06174e-06 5.06382e-08)
(1.14202e-06 -5.41494e-06 6.91942e-08)
(1.54055e-06 -5.60579e-06 8.81918e-08)
(1.89503e-06 -5.68528e-06 1.08759e-07)
(2.16548e-06 -5.68369e-06 1.31335e-07)
(2.31984e-06 -5.62382e-06 1.56002e-07)
(2.33368e-06 -5.52444e-06 1.82134e-07)
(2.19317e-06 -5.40326e-06 2.08499e-07)
(1.89701e-06 -5.27764e-06 2.33331e-07)
(1.45816e-06 -5.16417e-06 2.54565e-07)
(9.03928e-07 -5.07741e-06 2.70183e-07)
(2.7419e-07 -5.02821e-06 2.78533e-07)
(-3.8288e-07 -5.02204e-06 2.7879e-07)
(-1.01644e-06 -5.05839e-06 2.70965e-07)
(-1.57829e-06 -5.13076e-06 2.55918e-07)
(-2.02856e-06 -5.2271e-06 2.35351e-07)
(-2.33988e-06 -5.3314e-06 2.1137e-07)
(-2.49925e-06 -5.4254e-06 1.86166e-07)
(-2.50759e-06 -5.48972e-06 1.61695e-07)
(-2.378e-06 -5.50458e-06 1.39494e-07)
(-2.13284e-06 -5.44933e-06 1.20541e-07)
(-1.80099e-06 -5.30105e-06 1.05295e-07)
(-1.41494e-06 -5.03148e-06 9.35913e-08)
(-1.00914e-06 -4.60199e-06 8.45954e-08)
(-6.17198e-07 -3.95275e-06 7.59765e-08)
(-2.78641e-07 -2.97481e-06 6.32953e-08)
(-3.32501e-08 -1.42189e-06 3.3681e-08)
(1.7686e-08 -1.90587e-06 1.78273e-08)
(1.94952e-07 -3.90509e-06 3.86466e-08)
(4.80841e-07 -5.11667e-06 5.27241e-08)
(8.34923e-07 -5.88075e-06 6.55326e-08)
(1.22369e-06 -6.3667e-06 7.94481e-08)
(1.60606e-06 -6.66106e-06 9.55098e-08)
(1.94418e-06 -6.81926e-06 1.14578e-07)
(2.20133e-06 -6.87734e-06 1.36873e-07)
(2.34603e-06 -6.86225e-06 1.62151e-07)
(2.35351e-06 -6.79608e-06 1.89537e-07)
(2.20896e-06 -6.69916e-06 2.17561e-07)
(1.9099e-06 -6.59079e-06 2.44202e-07)
(1.46837e-06 -6.48902e-06 2.67117e-07)
(9.11225e-07 -6.4095e-06 2.8402e-07)
(2.78453e-07 -6.3639e-06 2.93021e-07)
(-3.81389e-07 -6.35806e-06 2.93246e-07)
(-1.017e-06 -6.39159e-06 2.84702e-07)
(-1.57969e-06 -6.45783e-06 2.68275e-07)
(-2.02929e-06 -6.54431e-06 2.45873e-07)
(-2.33865e-06 -6.63431e-06 2.19847e-07)
(-2.49528e-06 -6.70867e-06 1.92619e-07)
(-2.50097e-06 -6.74706e-06 1.66305e-07)
(-2.36956e-06 -6.7284e-06 1.4253e-07)
(-2.12384e-06 -6.63021e-06 1.22323e-07)
(-1.79271e-06 -6.42687e-06 1.06134e-07)
(-1.40829e-06 -6.08574e-06 9.37788e-08)
(-1.0045e-06 -5.56086e-06 8.43856e-08)
(-6.14448e-07 -4.7791e-06 7.55969e-08)
(-2.77394e-07 -3.60542e-06 6.29598e-08)
(-3.30861e-08 -1.73215e-06 3.35586e-08)
(2.42825e-08 -2.13907e-06 2.44338e-08)
(2.21206e-07 -4.41397e-06 4.78833e-08)
(5.10662e-07 -5.81456e-06 6.03478e-08)
(8.58182e-07 -6.72659e-06 7.07305e-08)
(1.23094e-06 -7.32946e-06 8.23933e-08)
(1.59453e-06 -7.71852e-06 9.69328e-08)
(1.91465e-06 -7.95369e-06 1.15163e-07)
(2.15765e-06 -8.07498e-06 1.37237e-07)
(2.29354e-06 -8.11203e-06 1.62823e-07)
(2.29813e-06 -8.08884e-06 1.90926e-07)
(2.1562e-06 -8.02683e-06 2.19942e-07)
(1.86447e-06 -7.94595e-06 2.47697e-07)
(1.43396e-06 -7.86467e-06 2.71642e-07)
(8.905e-07 -7.7989e-06 2.89323e-07)
(2.73252e-07 -7.76042e-06 2.98704e-07)
(-3.70076e-07 -7.75514e-06 2.98897e-07)
(-9.89311e-07 -7.78275e-06 2.899e-07)
(-1.53656e-06 -7.83672e-06 2.726e-07)
(-1.97237e-06 -7.90469e-06 2.49048e-07)
(-2.27049e-06 -7.97016e-06 2.21744e-07)
(-2.41939e-06 -8.01396e-06 1.93254e-07)
(-2.42165e-06 -8.01565e-06 1.65835e-07)
(-2.29146e-06 -7.95369e-06 1.41166e-07)
(-2.05157e-06 -7.8045e-06 1.20293e-07)
(-1.73013e-06 -7.54007e-06 1.03634e-07)
(-1.35823e-06 -7.12371e-06 9.09888e-08)
(-9.68342e-07 -6.50211e-06 8.14956e-08)
(-5.92104e-07 -5.58891e-06 7.28307e-08)
(-2.67213e-07 -4.22303e-06 6.06347e-08)
(-3.18703e-08 -2.03609e-06 3.23805e-08)
(2.5719e-08 -2.38696e-06 2.58738e-08)
(2.21052e-07 -4.93173e-06 4.93065e-08)
(4.98077e-07 -6.50857e-06 6.05532e-08)
(8.25582e-07 -7.55328e-06 6.95226e-08)
(1.17257e-06 -8.26175e-06 7.98222e-08)
(1.5094e-06 -8.73882e-06 9.32393e-08)
(1.80536e-06 -9.04931e-06 1.10567e-07)
(2.0301e-06 -9.23622e-06 1.31972e-07)
(2.15586e-06 -9.33088e-06 1.57078e-07)
(2.15973e-06 -9.35808e-06 1.84884e-07)
(2.02677e-06 -9.33921e-06 2.13746e-07)
(1.75317e-06 -9.29392e-06 2.41441e-07)
(1.34875e-06 -9.24018e-06 2.65373e-07)
(8.37639e-07 -9.19332e-06 2.83035e-07)
(2.56944e-07 -9.16468e-06 2.92341e-07)
(-3.48058e-07 -9.16004e-06 2.92502e-07)
(-9.29987e-07 -9.17917e-06 2.83511e-07)
(-1.44338e-06 -9.21594e-06 2.66151e-07)
(-1.85083e-06 -9.2585e-06 2.42501e-07)
(-2.12781e-06 -9.29117e-06 2.15095e-07)
(-2.26397e-06 -9.2956e-06 1.86582e-07)
(-2.26248e-06 -9.25199e-06 1.59212e-07)
(-2.13754e-06 -9.13914e-06 1.34655e-07)
(-1.91105e-06 -8.933e-06 1.13944e-07)
(-1.60966e-06 -8.6038e-06 9.7483e-08)
(-1.26236e-06 -8.11115e-06 8.50585e-08)
(-8.9926e-07 -7.39479e-06 7.58215e-08)
(-5.4954e-07 -6.35551e-06 6.75917e-08)
(-2.47909e-07 -4.80728e-06 5.62734e-08)
(-2.95752e-08 -2.32375e-06 3.01201e-08)
(2.41625e-08 -2.62484e-06 2.43247e-08)
(2.03041e-07 -5.41993e-06 4.58677e-08)
(4.52873e-07 -7.15648e-06 5.57637e-08)
(7.46048e-07 -8.31917e-06 6.35462e-08)
(1.05484e-06 -9.12237e-06 7.26344e-08)
(1.35403e-06 -9.68052e-06 8.48067e-08)
(1.61701e-06 -1.00631e-05 1.00792e-07)
(1.81729e-06 -1.03157e-05 1.2076e-07)
(1.93007e-06 -1.04705e-05 1.44347e-07)
(1.93453e-06 -1.05522e-05 1.70606e-07)
(1.81663e-06 -1.05814e-05 1.97955e-07)
(1.57226e-06 -1.05766e-05 2.24243e-07)
(1.20974e-06 -1.05547e-05 2.46957e-07)
(7.50665e-07 -1.05298e-05 2.63704e-07)
(2.28711e-07 -1.05126e-05 2.72458e-07)
(-3.14947e-07 -1.05087e-05 2.72581e-07)
(-8.37489e-07 -1.05178e-05 2.64055e-07)
(-1.29761e-06 -1.05343e-05 2.47517e-07)
(-1.6613e-06 -1.0547e-05 2.24999e-07)
(-1.90664e-06 -1.05415e-05 1.98896e-07)
(-2.0249e-06 -1.0501e-05 1.71769e-07)
(-2.01974e-06 -1.04069e-05 1.45779e-07)
(-1.90469e-06 -1.0239e-05 1.22523e-07)
(-1.69991e-06 -9.97333e-06 1.02966e-07)
(-1.42961e-06 -9.57888e-06 8.74704e-08)
(-1.1197e-06 -9.01217e-06 7.5839e-08)
(-7.96794e-07 -8.20661e-06 6.72886e-08)
(-4.86532e-07 -7.05133e-06 5.9853e-08)
(-2.19382e-07 -5.33726e-06 4.98472e-08)
(-2.61794e-08 -2.58487e-06 2.67541e-08)
(2.06615e-08 -2.83506e-06 2.08185e-08)
(1.71609e-07 -5.84789e-06 3.90196e-08)
(3.80928e-07 -7.72193e-06 4.72155e-08)
(6.25822e-07 -8.98571e-06 5.37065e-08)
(8.83315e-07 -9.87117e-06 6.14269e-08)
(1.133e-06 -1.05015e-05 7.19468e-08)
(1.35308e-06 -1.09504e-05 8.59157e-08)
(1.52168e-06 -1.12654e-05 1.03484e-07)
(1.61784e-06 -1.1479e-05 1.24329e-07)
(1.62361e-06 -1.16153e-05 1.47609e-07)
(1.52646e-06 -1.16937e-05 1.71911e-07)
(1.32216e-06 -1.17307e-05 1.95322e-07)
(1.01724e-06 -1.17416e-05 2.15519e-07)
(6.29767e-07 -1.17393e-05 2.30379e-07)
(1.88539e-07 -1.17339e-05 2.38082e-07)
(-2.71036e-07 -1.17306e-05 2.38152e-07)
(-7.12279e-07 -1.17295e-05 2.30587e-07)
(-1.09969e-06 -1.17248e-05 2.15847e-07)
(-1.40421e-06 -1.17063e-05 1.95753e-07)
(-1.60754e-06 -1.16611e-05 1.72456e-07)
(-1.70293e-06 -1.1574e-05 1.48278e-07)
(-1.69432e-06 -1.14284e-05 1.25155e-07)
(-1.59391e-06 -1.12054e-05 1.04526e-07)
(-1.41931e-06 -1.08815e-05 8.72152e-08)
(-1.1912e-06 -1.04252e-05 7.35505e-08)
(-9.31321e-07 -9.79038e-06 6.33456e-08)
(-6.61775e-07 -8.90533e-06 5.59295e-08)
(-4.03639e-07 -7.64895e-06 4.96371e-08)
(-1.81887e-07 -5.79221e-06 4.1382e-08)
(-2.17119e-08 -2.80927e-06 2.23154e-08)
(1.57243e-08 -3.00423e-06 1.58844e-08)
(1.29528e-07 -6.19058e-06 2.96122e-08)
(2.86795e-07 -8.17371e-06 3.57414e-08)
(4.70813e-07 -9.51817e-06 4.06998e-08)
(6.64609e-07 -1.04707e-05 4.67666e-08)
(8.53343e-07 -1.11616e-05 5.51782e-08)
(1.02084e-06 -1.16681e-05 6.64324e-08)
(1.15058e-06 -1.2039e-05 8.06928e-08)
(1.2264e-06 -1.23069e-05 9.77346e-08)
(1.23397e-06 -1.24945e-05 1.16895e-07)
(1.1629e-06 -1.26196e-05 1.37014e-07)
(1.00891e-06 -1.26968e-05 1.56509e-07)
(7.76199e-07 -1.27394e-05 1.73402e-07)
(4.78269e-07 -1.2759e-05 1.85911e-07)
(1.37616e-07 -1.27647e-05 1.92405e-07)
(-2.17501e-07 -1.2762e-05 1.92419e-07)
(-5.57647e-07 -1.27508e-05 1.85956e-07)
(-8.54515e-07 -1.27256e-05 1.73471e-07)
(-1.0855e-06 -1.26769e-05 1.566e-07)
(-1.23701e-06 -1.25932e-05 1.37154e-07)
(-1.3047e-06 -1.24613e-05 1.17126e-07)
(-1.2927e-06 -1.22668e-05 9.80762e-08)
(-1.21134e-06 -1.19922e-05 8.11754e-08)
(-1.0748e-06 -1.16152e-05 6.70822e-08)
(-8.99164e-07 -1.11042e-05 5.60227e-08)
(-7.01052e-07 -1.04113e-05 4.78256e-08)
(-4.96995e-07 -9.46046e-06 4.19738e-08)
(-3.02559e-07 -8.12262e-06 3.71758e-08)
(-1.36165e-07 -6.1526e-06 3.10564e-08)
(-1.62469e-08 -2.98733e-06 1.68725e-08)
(9.71084e-09 -3.12167e-06 9.8626e-09)
(7.91157e-08 -6.4273e-06 1.8218e-08)
(1.74873e-07 -8.48558e-06 2.19295e-08)
(2.87403e-07 -9.88678e-06 2.51011e-08)
(4.06856e-07 -1.08882e-05 2.91843e-08)
(5.24572e-07 -1.16254e-05 3.49877e-08)
(6.30782e-07 -1.21778e-05 4.28834e-08)
(7.15141e-07 -1.25951e-05 5.30081e-08)
(7.67073e-07 -1.29092e-05 6.5227e-08)
(7.76615e-07 -1.3142e-05 7.91359e-08)
(7.35943e-07 -1.3309e-05 9.39328e-08)
(6.40866e-07 -1.3423e-05 1.08511e-07)
(4.92914e-07 -1.34951e-05 1.21369e-07)
(3.00137e-07 -1.35353e-05 1.31088e-07)
(7.73284e-08 -1.35517e-05 1.36213e-07)
(-1.55612e-07 -1.35495e-05 1.36161e-07)
(-3.77445e-07 -1.35285e-05 1.30953e-07)
(-5.68307e-07 -1.34835e-05 1.21165e-07)
(-7.13372e-07 -1.34064e-05 1.08276e-07)
(-8.04649e-07 -1.32873e-05 9.36957e-08)
(-8.40662e-07 -1.3115e-05 7.89336e-08)
(-8.25623e-07 -1.28771e-05 6.51072e-08)
(-7.67321e-07 -1.25582e-05 5.30069e-08)
(-6.75751e-07 -1.21369e-05 4.3028e-08)
(-5.61541e-07 -1.15819e-05 3.52942e-08)
(-4.35222e-07 -1.08442e-05 2.96585e-08)
(-3.06958e-07 -9.84487e-06 2.57444e-08)
(-1.86071e-07 -8.44938e-06 2.27357e-08)
(-8.34543e-08 -6.40108e-06 1.91156e-08)
(-9.91928e-09 -3.11044e-06 1.05641e-08)
(2.93186e-09 -3.17934e-06 3.07419e-09)
(2.26702e-08 -6.54226e-06 5.41119e-09)
(4.99469e-08 -8.63715e-06 6.44464e-09)
(8.30895e-08 -1.00679e-05 7.60579e-09)
(1.20132e-07 -1.10974e-05 9.439e-09)
(1.59081e-07 -1.18639e-05 1.2263e-08)
(1.97183e-07 -1.24478e-05 1.62629e-08)
(2.30843e-07 -1.28991e-05 2.15615e-08)
(2.55654e-07 -1.32491e-05 2.81893e-08)
(2.66726e-07 -1.35183e-05 3.60579e-08)
(2.59314e-07 -1.37208e-05 4.48129e-08)
(2.29597e-07 -1.38671e-05 5.38664e-08)
(1.76079e-07 -1.39661e-05 6.22478e-08)
(1.00681e-07 -1.40258e-05 6.89349e-08)
(9.55052e-09 -1.40525e-05 7.26356e-08)
(-8.68843e-08 -1.40505e-05 7.25336e-08)
(-1.76637e-07 -1.40197e-05 6.8666e-08)
(-2.49389e-07 -1.3956e-05 6.18184e-08)
(-2.99098e-07 -1.38527e-05 5.33398e-08)
(-3.24039e-07 -1.37023e-05 4.42517e-08)
(-3.25795e-07 -1.34958e-05 3.55246e-08)
(-3.08376e-07 -1.32228e-05 2.77246e-08)
(-2.76631e-07 -1.28694e-05 2.1195e-08)
(-2.35563e-07 -1.24156e-05 1.60243e-08)
(-1.89691e-07 -1.18303e-05 1.21713e-08)
(-1.42841e-07 -1.10641e-05 9.50566e-09)
(-9.81266e-08 -1.0037e-05 7.84152e-09)
(-5.8104e-08 -8.61105e-06 6.84897e-09)
(-2.55252e-08 -6.52382e-06 5.97154e-09)
(-2.94544e-09 -3.17174e-06 3.60482e-09)
(-4.31364e-09 -3.17183e-06 -4.18479e-09)
(-3.73169e-08 -6.52482e-06 -8.25577e-09)
(-8.25886e-08 -8.61469e-06 -1.0082e-08)
(-1.33502e-07 -1.00455e-05 -1.1086e-08)
(-1.83786e-07 -1.10801e-05 -1.1735e-08)
(-2.28499e-07 -1.18565e-05 -1.22472e-08)
(-2.63139e-07 -1.24551e-05 -1.26299e-08)
(-2.84199e-07 -1.29251e-05 -1.28023e-08)
(-2.89409e-07 -1.32973e-05 -1.26118e-08)
(-2.78155e-07 -1.35913e-05 -1.18723e-08)
(-2.51636e-07 -1.38197e-05 -1.04381e-08)
(-2.12864e-07 -1.39913e-05 -8.25262e-09)
(-1.65997e-07 -1.41128e-05 -5.61017e-09)
(-1.15365e-07 -1.41895e-05 -3.00985e-09)
(-6.41214e-08 -1.42255e-05 -1.33296e-09)
(-1.26251e-08 -1.42236e-05 -1.48669e-09)
(4.02869e-08 -1.41838e-05 -3.40459e-09)
(9.41256e-08 -1.41034e-05 -6.22632e-09)
(1.4555e-07 -1.39783e-05 -8.99686e-09)
(1.89904e-07 -1.38032e-05 -1.12522e-08)
(2.22813e-07 -1.35717e-05 -1.26765e-08)
(2.40986e-07 -1.32749e-05 -1.33627e-08)
(2.4307e-07 -1.29004e-05 -1.34484e-08)
(2.29514e-07 -1.24289e-05 -1.31469e-08)
(2.02406e-07 -1.18299e-05 -1.26246e-08)
(1.65037e-07 -1.10542e-05 -1.19568e-08)
(1.21582e-07 -1.0022e-05 -1.11352e-08)
(7.64989e-08 -8.59531e-06 -9.94347e-09)
(3.54514e-08 -6.5115e-06 -7.91158e-09)
(4.42459e-09 -3.16655e-06 -3.75507e-09)
(-1.16889e-08 -3.09662e-06 -1.15655e-08)
(-9.81128e-08 -6.37016e-06 -2.21419e-08)
(-2.16736e-07 -8.41189e-06 -2.68705e-08)
(-3.52598e-07 -9.81203e-06 -3.0096e-08)
(-4.91277e-07 -1.08274e-05 -3.33257e-08)
(-6.20908e-07 -1.15929e-05 -3.73335e-08)
(-7.2981e-07 -1.21868e-05 -4.23885e-08)
(-8.07384e-07 -1.26573e-05 -4.84612e-08)
(-8.44588e-07 -1.30344e-05 -5.53132e-08)
(-8.35056e-07 -1.33368e-05 -6.24937e-08)
(-7.75929e-07 -1.35766e-05 -6.9396e-08)
(-6.68828e-07 -1.3761e-05 -7.53431e-08)
(-5.20076e-07 -1.38952e-05 -7.98189e-08)
(-3.39826e-07 -1.39824e-05 -8.25496e-08)
(-1.40837e-07 -1.40245e-05 -8.36782e-08)
(6.46674e-08 -1.40228e-05 -8.38482e-08)
(2.65549e-07 -1.3977e-05 -8.30036e-08)
(4.49387e-07 -1.38862e-05 -8.05297e-08)
(6.03195e-07 -1.37487e-05 -7.62228e-08)
(7.16395e-07 -1.35613e-05 -7.03728e-08)
(7.82398e-07 -1.3319e-05 -6.34603e-08)
(7.99256e-07 -1.30145e-05 -5.62331e-08)
(7.6958e-07 -1.26359e-05 -4.92782e-08)
(6.9954e-07 -1.21647e-05 -4.30832e-08)
(5.97973e-07 -1.15709e-05 -3.78974e-08)
(4.75263e-07 -1.08066e-05 -3.37331e-08)
(3.42787e-07 -9.79358e-06 -3.03277e-08)
(2.12015e-07 -8.397e-06 -2.68864e-08)
(9.68841e-08 -6.36016e-06 -2.19283e-08)
(1.18726e-08 -3.09278e-06 -1.11982e-08)
(-1.88269e-08 -2.95443e-06 -1.87237e-08)
(-1.5678e-07 -6.08003e-06 -3.55987e-08)
(-3.4605e-07 -8.0311e-06 -4.31372e-08)
(-5.63734e-07 -9.37019e-06 -4.85272e-08)
(-7.87593e-07 -1.03418e-05 -5.42811e-08)
(-9.99293e-07 -1.10747e-05 -6.17484e-08)
(-1.18029e-06 -1.16436e-05 -7.14146e-08)
(-1.31319e-06 -1.20947e-05 -8.33842e-08)
(-1.38247e-06 -1.24568e-05 -9.73907e-08)
(-1.37603e-06 -1.27481e-05 -1.1276e-07)
(-1.28688e-06 -1.29801e-05 -1.28519e-07)
(-1.11489e-06 -1.316e-05 -1.43326e-07)
(-8.67817e-07 -1.32922e-05 -1.55798e-07)
(-5.61083e-07 -1.3379e-05 -1.6472e-07)
(-2.1658e-07 -1.34214e-05 -1.69225e-07)
(1.41198e-07 -1.34195e-05 -1.69397e-07)
(4.87717e-07 -1.33735e-05 -1.65197e-07)
(7.98237e-07 -1.32832e-05 -1.56546e-07)
(1.05063e-06 -1.3148e-05 -1.44253e-07)
(1.22907e-06 -1.29655e-05 -1.29549e-07)
(1.32538e-06 -1.27315e-05 -1.13809e-07)
(1.33936e-06 -1.24387e-05 -9.83948e-08)
(1.27772e-06 -1.20757e-05 -8.43088e-08)
(1.15233e-06 -1.16244e-05 -7.2216e-08)
(9.78499e-07 -1.1056e-05 -6.24163e-08)
(7.73405e-07 -1.03245e-05 -5.48073e-08)
(5.55306e-07 -9.35511e-06 -4.88695e-08)
(3.42217e-07 -8.01921e-06 -4.32582e-08)
(1.55965e-07 -6.07218e-06 -3.54645e-08)
(1.90624e-08 -2.95149e-06 -1.83891e-08)
(-2.53983e-08 -2.74918e-06 -2.53038e-08)
(-2.1044e-07 -5.66258e-06 -4.79461e-08)
(-4.64085e-07 -7.48334e-06 -5.8039e-08)
(-7.56306e-07 -8.73293e-06 -6.53949e-08)
(-1.0578e-06 -9.63807e-06 -7.3417e-08)
(-1.34435e-06 -1.03181e-05 -8.39549e-08)
(-1.5912e-06 -1.08428e-05 -9.7724e-08)
(-1.77474e-06 -1.12553e-05 -1.14944e-07)
(-1.87352e-06 -1.15829e-05 -1.3532e-07)
(-1.87029e-06 -1.18435e-05 -1.58019e-07)
(-1.75419e-06 -1.20485e-05 -1.8169e-07)
(-1.52329e-06 -1.22056e-05 -2.04446e-07)
(-1.18653e-06 -1.23199e-05 -2.24132e-07)
(-7.64029e-07 -1.23944e-05 -2.38671e-07)
(-2.85938e-07 -1.24306e-05 -2.46291e-07)
(2.11747e-07 -1.24287e-05 -2.46457e-07)
(6.91863e-07 -1.23889e-05 -2.39137e-07)
(1.11824e-06 -1.2311e-05 -2.24852e-07)
(1.4604e-06 -1.21939e-05 -2.05351e-07)
(1.69782e-06 -1.20344e-05 -1.82696e-07)
(1.82117e-06 -1.18277e-05 -1.59059e-07)
(1.83202e-06 -1.1566e-05 -1.36328e-07)
(1.74089e-06 -1.12379e-05 -1.15884e-07)
(1.56479e-06 -1.08256e-05 -9.8558e-08)
(1.32496e-06 -1.03017e-05 -8.46625e-08)
(1.04478e-06 -9.6232e-06 -7.39822e-08)
(7.48763e-07 -8.72024e-06 -6.57836e-08)
(4.60804e-07 -7.47349e-06 -5.82089e-08)
(2.0986e-07 -5.65617e-06 -4.78494e-08)
(2.56546e-08 -2.74682e-06 -2.49894e-08)
(-3.10486e-08 -2.48799e-06 -3.09726e-08)
(-2.56383e-07 -5.13248e-06 -5.85873e-08)
(-5.64971e-07 -6.78812e-06 -7.08571e-08)
(-9.20784e-07 -7.9235e-06 -7.98315e-08)
(-1.2885e-06 -8.74253e-06 -8.968e-08)
(-1.63884e-06 -9.35273e-06 -1.0268e-07)
(-1.94169e-06 -9.81725e-06 -1.19737e-07)
(-2.16814e-06 -1.01757e-05 -1.41126e-07)
(-2.29172e-06 -1.04536e-05 -1.66502e-07)
(-2.29075e-06 -1.06682e-05 -1.94911e-07)
(-2.15122e-06 -1.08313e-05 -2.2471e-07)
(-1.86989e-06 -1.09518e-05 -2.53612e-07)
(-1.45675e-06 -1.10363e-05 -2.78847e-07)
(-9.359e-07 -1.10897e-05 -2.97688e-07)
(-3.4447e-07 -1.11149e-05 -3.07697e-07)
(2.71934e-07 -1.1113e-05 -3.07843e-07)
(8.65348e-07 -1.10844e-05 -2.98111e-07)
(1.39e-06 -1.10279e-05 -2.7951e-07)
(1.80846e-06 -1.09406e-05 -2.54442e-07)
(2.09627e-06 -1.08179e-05 -2.25641e-07)
(2.24299e-06 -1.06534e-05 -1.95891e-07)
(2.25149e-06 -1.0438e-05 -1.67465e-07)
(2.13548e-06 -1.01598e-05 -1.42026e-07)
(1.91637e-06 -9.80184e-06 -1.20558e-07)
(1.62038e-06 -9.33827e-06 -1.03387e-07)
(1.27623e-06 -8.72963e-06 -9.02462e-08)
(9.13774e-07 -7.91262e-06 -8.02325e-08)
(5.61997e-07 -6.77979e-06 -7.10425e-08)
(2.55925e-07 -5.12713e-06 -5.85015e-08)
(3.13142e-08 -2.48603e-06 -3.06641e-08)
(-3.5507e-08 -2.18079e-06 -3.5442e-08)
(-2.92322e-07 -4.51003e-06 -6.69798e-08)
(-6.43712e-07 -5.97232e-06 -8.09264e-08)
(-1.04913e-06 -6.97376e-06 -9.10947e-08)
(-1.46863e-06 -7.69145e-06 -1.02236e-07)
(-1.8689e-06 -8.21927e-06 -1.16932e-07)
(-2.21543e-06 -8.61282e-06 -1.36198e-07)
(-2.47504e-06 -8.90747e-06 -1.60343e-07)
(-2.61727e-06 -9.12669e-06 -1.8896e-07)
(-2.61708e-06 -9.28684e-06 -2.20979e-07)
(-2.45835e-06 -9.40044e-06 -2.54567e-07)
(-2.13703e-06 -9.47758e-06 -2.87161e-07)
(-1.66426e-06 -9.52669e-06 -3.15665e-07)
(-1.06741e-06 -9.55482e-06 -3.36997e-07)
(-3.88902e-07 -9.56685e-06 -3.48393e-07)
(3.18506e-07 -9.56515e-06 -3.48516e-07)
(9.98923e-07 -9.54989e-06 -3.37357e-07)
(1.59946e-06 -9.51881e-06 -3.16234e-07)
(2.07736e-06 -9.46715e-06 -2.87888e-07)
(2.40495e-06 -9.38812e-06 -2.55395e-07)
(2.57067e-06 -9.27323e-06 -2.21854e-07)
(2.57821e-06 -9.11245e-06 -1.89839e-07)
(2.44339e-06 -8.89324e-06 -1.61176e-07)
(2.19094e-06 -8.59908e-06 -1.36967e-07)
(1.8511e-06 -8.20655e-06 -1.17607e-07)
(1.45684e-06 -7.68026e-06 -1.0279e-07)
(1.04243e-06 -6.96447e-06 -9.14894e-08)
(6.40888e-07 -5.9653e-06 -8.11101e-08)
(2.91899e-07 -4.50557e-06 -6.68964e-08)
(3.57643e-08 -2.17919e-06 -3.51402e-08)
(-3.85212e-08 -1.83981e-06 -3.84689e-08)
(-3.16283e-07 -3.82005e-06 -7.26599e-08)
(-6.96252e-07 -5.06867e-06 -8.77119e-08)
(-1.13522e-06 -5.92226e-06 -9.85919e-08)
(-1.59018e-06 -6.52858e-06 -1.10438e-07)
(-2.02492e-06 -6.96658e-06 -1.26035e-07)
(-2.40164e-06 -7.28379e-06 -1.46433e-07)
(-2.68391e-06 -7.51102e-06 -1.71926e-07)
(-2.8384e-06 -7.66936e-06 -2.02069e-07)
(-2.83796e-06 -7.77436e-06 -2.35685e-07)
(-2.66516e-06 -7.8386e-06 -2.70819e-07)
(-2.31586e-06 -7.87315e-06 -3.04817e-07)
(-1.80233e-06 -7.88805e-06 -3.34497e-07)
(-1.15434e-06 -7.89196e-06 -3.56662e-07)
(-4.17795e-07 -7.89145e-06 -3.6851e-07)
(3.50108e-07 -7.88993e-06 -3.68616e-07)
(1.08845e-06 -7.88748e-06 -3.56978e-07)
(1.7399e-06 -7.88092e-06 -3.34989e-07)
(2.25831e-06 -7.86381e-06 -3.05448e-07)
(2.6136e-06 -7.82761e-06 -2.71549e-07)
(2.7931e-06 -7.76228e-06 -2.36462e-07)
(2.80063e-06 -7.6568e-06 -2.02856e-07)
(2.65328e-06 -7.49853e-06 -1.7269e-07)
(2.37793e-06 -7.27183e-06 -1.47143e-07)
(2.0077e-06 -6.95562e-06 -1.26664e-07)
(1.57878e-06 -6.51903e-06 -1.10961e-07)
(1.12872e-06 -5.91446e-06 -9.89568e-08)
(6.93521e-07 -5.06287e-06 -8.78807e-08)
(3.15865e-07 -3.81644e-06 -7.25771e-08)
(3.87648e-08 -1.83853e-06 -3.81755e-08)
(-3.98494e-08 -1.47927e-06 -3.98088e-08)
(-3.26578e-07 -3.09127e-06 -7.51624e-08)
(-7.19333e-07 -4.11464e-06 -9.06215e-08)
(-1.17444e-06 -4.81261e-06 -1.01664e-07)
(-1.64765e-06 -5.30244e-06 -1.13613e-07)
(-2.10091e-06 -5.64794e-06 -1.29326e-07)
(-2.49425e-06 -5.8885e-06 -1.49872e-07)
(-2.78904e-06 -6.05018e-06 -1.75506e-07)
(-2.95017e-06 -6.15147e-06 -2.0571e-07)
(-2.94932e-06 -6.20663e-06 -2.39236e-07)
(-2.76866e-06 -6.22786e-06 -2.74109e-07)
(-2.40442e-06 -6.22648e-06 -3.07693e-07)
(-1.86985e-06 -6.21323e-06 -3.36881e-07)
(-1.19616e-06 -6.19771e-06 -3.58597e-07)
(-4.30961e-07 -6.18729e-06 -3.70202e-07)
(3.66566e-07 -6.18598e-06 -3.70291e-07)
(1.13343e-06 -6.19388e-06 -3.58865e-07)
(1.81037e-06 -6.20714e-06 -3.37301e-07)
(2.34951e-06 -6.21848e-06 -3.08237e-07)
(2.71937e-06 -6.21845e-06 -2.74741e-07)
(2.90637e-06 -6.19632e-06 -2.39919e-07)
(2.91395e-06 -6.14078e-06 -2.06412e-07)
(2.75962e-06 -6.03959e-06 -1.76194e-07)
(2.47146e-06 -5.87846e-06 -1.50517e-07)
(2.08434e-06 -5.63883e-06 -1.29903e-07)
(1.63665e-06 -5.29457e-06 -1.14101e-07)
(1.16816e-06 -4.80626e-06 -1.02011e-07)
(7.16655e-07 -4.11002e-06 -9.07806e-08)
(3.26135e-07 -3.08849e-06 -7.50826e-08)
(4.00711e-08 -1.47835e-06 -3.95311e-08)
(-3.9191e-08 -1.11544e-06 -3.91595e-08)
(-3.21369e-07 -2.35585e-06 -7.38875e-08)
(-7.09876e-07 -3.15149e-06 -8.8886e-08)
(-1.16297e-06 -3.69215e-06 -9.94074e-08)
(-1.63702e-06 -4.06521e-06 -1.10777e-07)
(-2.09315e-06 -4.31985e-06 -1.25836e-07)
(-2.49017e-06 -4.48752e-06 -1.4565e-07)
(-2.78822e-06 -4.58958e-06 -1.70409e-07)
(-2.95143e-06 -4.64173e-06 -1.9954e-07)
(-2.95119e-06 -4.65641e-06 -2.3176e-07)
(-2.76992e-06 -4.64477e-06 -2.6512e-07)
(-2.40445e-06 -4.6175e-06 -2.97083e-07)
(-1.8687e-06 -4.58504e-06 -3.2474e-07)
(-1.19432e-06 -4.55679e-06 -3.45229e-07)
(-4.28937e-07 -4.54014e-06 -3.56157e-07)