/*--------------------------------*- C++ -*----------------------------------*\
| =========                 |                                                 |
| \\      /  F ield         | OpenFOAM: The Open Source CFD Toolbox           |
|  \\    /   O peration     | Version:  v1906                                 |
|   \\  /    A nd           | Web:      www.OpenFOAM.com                      |
|    \\/     M anipulation  |                                                 |
\*---------------------------------------------------------------------------*/
FoamFile
{
    version     2.0;
    format      ascii;
    class       volVectorField;
    location    "89/oil";
    object      U;
}
// * * * * * * * * * * * * * * * * * * * * * * * * * * * * * * * * * * * * * //

dimensions      [0 1 -1 0 0 0 0];


internalField   nonuniform List<vector> 
27760
(
(-2.36434e-05 -2.40834e-05 -2.36434e-05)
(-4.66662e-05 -1.80626e-05 -1.70388e-05)
(-3.39234e-06 -4.67511e-06 -4.67468e-06)
(-5.50505e-06 -7.50845e-07 -8.73372e-07)
(-1.05377e-06 -2.28072e-07 -3.72261e-07)
(-2.9286e-07 -8.17303e-08 -2.4027e-07)
(3.92817e-07 7.98331e-09 -1.63108e-07)
(7.48657e-07 4.82464e-08 -1.32084e-07)
(9.48978e-07 7.23056e-08 -1.13899e-07)
(1.02396e-06 8.81622e-08 -1.00968e-07)
(9.95199e-07 9.96018e-08 -9.01298e-08)
(8.7608e-07 1.08547e-07 -8.03245e-08)
(6.81385e-07 1.15242e-07 -7.22557e-08)
(4.28504e-07 1.19785e-07 -6.6422e-08)
(1.38588e-07 1.22134e-07 -6.32987e-08)
(-1.648e-07 1.22281e-07 -6.31564e-08)
(-4.57416e-07 1.2026e-07 -6.59471e-08)
(-7.16323e-07 1.16201e-07 -7.12958e-08)
(-9.21928e-07 1.10331e-07 -7.85298e-08)
(-1.0597e-06 1.02926e-07 -8.67407e-08)
(-1.12146e-06 9.43596e-08 -9.47117e-08)
(-1.1054e-06 8.50454e-08 -1.00991e-07)
(-1.01711e-06 7.47716e-08 -1.0481e-07)
(-8.69057e-07 6.41033e-08 -1.0476e-07)
(-6.79219e-07 5.33136e-08 -9.98251e-08)
(-4.70788e-07 4.2911e-08 -8.93896e-08)
(-2.70632e-07 3.39326e-08 -7.36264e-08)
(-1.07532e-07 2.81911e-08 -5.39936e-08)
(-6.49414e-09 2.7768e-08 -3.42063e-08)
(1.43103e-08 2.80326e-08 -1.42855e-08)
(-1.71494e-05 -4.79343e-05 -1.71494e-05)
(-5.5934e-06 -6.23775e-06 -7.68266e-06)
(-7.48701e-06 -7.57669e-06 -2.69229e-06)
(-3.24034e-06 -2.24271e-06 -7.82841e-07)
(-9.01266e-07 -1.38883e-06 -4.02095e-07)
(3.07138e-07 -7.7219e-07 -2.11513e-07)
(1.20073e-06 -4.86713e-07 -1.1764e-07)
(1.75678e-06 -3.10584e-07 -6.95502e-08)
(2.07861e-06 -1.86637e-07 -3.83801e-08)
(2.18715e-06 -8.68553e-08 -1.4653e-08)
(2.10123e-06 -2.20954e-09 5.77176e-09)
(1.83875e-06 6.95497e-08 2.35011e-08)
(1.42487e-06 1.26743e-07 3.8001e-08)
(8.93715e-07 1.67043e-07 4.8419e-08)
(2.87593e-07 1.88353e-07 5.39944e-08)
(-3.45831e-07 1.89528e-07 5.42631e-08)
(-9.5731e-07 1.70855e-07 4.93161e-08)
(-1.50017e-06 1.34083e-07 3.977e-08)
(-1.93452e-06 8.23036e-08 2.66986e-08)
(-2.2307e-06 1.96542e-08 1.15493e-08)
(-2.37183e-06 -4.89485e-08 -3.99728e-09)
(-2.35508e-06 -1.18139e-07 -1.81168e-08)
(-2.19151e-06 -1.8291e-07 -2.90297e-08)
(-1.90554e-06 -2.37564e-07 -3.5415e-08)
(-1.53319e-06 -2.76337e-07 -3.62101e-08)
(-1.11933e-06 -2.92713e-07 -3.10588e-08)
(-7.14099e-07 -2.78918e-07 -2.07899e-08)
(-3.67693e-07 -2.26475e-07 -7.98037e-09)
(-1.2194e-07 -1.29573e-07 1.97205e-09)
(-4.28792e-09 -1.13766e-08 4.32527e-09)
(-4.7377e-06 -4.54339e-06 -4.73768e-06)
(-7.38158e-06 -8.61014e-06 -2.72957e-06)
(-3.6568e-06 -5.0404e-06 -1.19225e-06)
(-1.8374e-06 -3.0931e-06 -5.5306e-07)
(-1.0951e-07 -2.2864e-06 -2.50357e-07)
(1.06215e-06 -1.75259e-06 -1.0154e-07)
(1.96078e-06 -1.43004e-06 -2.21946e-08)
(2.56717e-06 -1.18383e-06 2.39304e-08)
(2.91892e-06 -9.73498e-07 5.67908e-08)
(3.01802e-06 -7.81101e-07 8.35528e-08)
(2.87339e-06 -6.04611e-07 1.07132e-07)
(2.50165e-06 -4.49025e-07 1.27748e-07)
(1.93274e-06 -3.22072e-07 1.4465e-07)
(1.21018e-06 -2.31536e-07 1.56763e-07)
(3.89027e-07 -1.83462e-07 1.63197e-07)
(-4.67963e-07 -1.81004e-07 1.63517e-07)
(-1.29562e-06 -2.23673e-07 1.57778e-07)
(-2.03227e-06 -3.07261e-07 1.46616e-07)
(-2.62519e-06 -4.24158e-07 1.31201e-07)
(-3.03523e-06 -5.63988e-07 1.13136e-07)
(-3.24004e-06 -7.14473e-07 9.42151e-08)
(-3.23571e-06 -8.62187e-07 7.6301e-08)
(-3.03666e-06 -9.93127e-07 6.10861e-08)
(-2.67436e-06 -1.09322e-06 4.98914e-08)
(-2.19437e-06 -1.14785e-06 4.3499e-08)
(-1.65263e-06 -1.1416e-06 4.18739e-08)
(-1.11022e-06 -1.05777e-06 4.37442e-08)
(-6.25979e-07 -8.79399e-07 4.59204e-08)
(-2.51349e-07 -5.92393e-07 4.24052e-08)
(-2.34451e-08 -2.09112e-07 2.34882e-08)
(-8.41101e-07 -6.67545e-06 -8.41082e-07)
(-1.81992e-06 -5.43455e-06 -7.4349e-07)
(-1.2815e-06 -4.82146e-06 -5.21013e-07)
(-2.90336e-07 -3.95563e-06 -2.48161e-07)
(8.9408e-07 -3.47345e-06 -8.78923e-08)
(1.89229e-06 -3.09452e-06 4.63816e-09)
(2.7193e-06 -2.79212e-06 6.22501e-08)
(3.31129e-06 -2.5036e-06 1.01534e-07)
(3.6508e-06 -2.21481e-06 1.33021e-07)
(3.71858e-06 -1.92536e-06 1.6069e-07)
(3.51166e-06 -1.64617e-06 1.85905e-07)
(3.04316e-06 -1.39311e-06 2.08273e-07)
(2.34489e-06 -1.18338e-06 2.26711e-07)
(1.46652e-06 -1.03262e-06 2.39961e-07)
(4.72373e-07 -9.52406e-07 2.47011e-07)
(-5.63595e-07 -9.48689e-07 2.47327e-07)
(-1.56436e-06 -1.02087e-06 2.40971e-07)
(-2.45684e-06 -1.16163e-06 2.28628e-07)
(-3.17854e-06 -1.35746e-06 2.11548e-07)
(-3.68318e-06 -1.58988e-06 1.914e-07)
(-3.94425e-06 -1.8369e-06 1.70044e-07)
(-3.95699e-06 -2.07448e-06 1.49352e-07)
(-3.73789e-06 -2.27771e-06 1.30957e-07)
(-3.32282e-06 -2.42141e-06 1.16111e-07)
(-2.76335e-06 -2.48021e-06 1.05412e-07)
(-2.12196e-06 -2.42825e-06 9.86154e-08)
(-1.46634e-06 -2.23853e-06 9.42513e-08)
(-8.61221e-07 -1.88291e-06 8.87083e-08)
(-3.68429e-07 -1.33023e-06 7.53795e-08)
(-3.96696e-08 -5.49255e-07 3.97193e-08)
(-2.59888e-07 -2.70515e-06 -2.59867e-07)
(-7.31254e-07 -4.40982e-06 -2.95955e-07)
(-1.38557e-07 -4.96601e-06 -1.81158e-07)
(7.08098e-07 -4.97971e-06 -5.76147e-08)
(1.70881e-06 -4.90891e-06 2.83911e-08)
(2.63654e-06 -4.73682e-06 8.59434e-08)
(3.42982e-06 -4.49828e-06 1.27841e-07)
(4.01028e-06 -4.19303e-06 1.61371e-07)
(4.3333e-06 -3.83729e-06 1.91573e-07)
(4.36631e-06 -3.45263e-06 2.20085e-07)
(4.09789e-06 -3.0666e-06 2.46989e-07)
(3.53842e-06 -2.70911e-06 2.71263e-07)
(2.7212e-06 -2.40927e-06 2.91427e-07)
(1.70103e-06 -2.19238e-06 3.05973e-07)
(5.50263e-07 -2.07683e-06 3.1371e-07)
(-6.4732e-07 -2.07212e-06 3.14002e-07)
(-1.80416e-06 -2.1776e-06 3.06903e-07)
(-2.83711e-06 -2.38233e-06 2.93157e-07)
(-3.6751e-06 -2.66598e-06 2.74139e-07)
(-4.26553e-06 -3.00059e-06 2.51637e-07)
(-4.57838e-06 -3.35295e-06 2.27649e-07)
(-4.6081e-06 -3.6868e-06 2.04139e-07)
(-4.37276e-06 -3.96461e-06 1.8278e-07)
(-3.91173e-06 -4.14886e-06 1.64801e-07)
(-3.28126e-06 -4.20228e-06 1.5074e-07)
(-2.54906e-06 -4.08737e-06 1.40235e-07)
(-1.78864e-06 -3.765e-06 1.31688e-07)
(-1.07099e-06 -3.19161e-06 1.21081e-07)
(-4.69667e-07 -2.30847e-06 1.0104e-07)
(-5.26879e-08 -1.01251e-06 5.27476e-08)
(-8.9266e-08 -2.61918e-06 -8.9237e-08)
(1.34231e-08 -4.76134e-06 -6.59177e-08)
(6.19305e-07 -5.91109e-06 -4.48837e-09)
(1.44614e-06 -6.46015e-06 5.73564e-08)
(2.39682e-06 -6.70479e-06 1.06645e-07)
(3.31243e-06 -6.70907e-06 1.4503e-07)
(4.10426e-06 -6.53503e-06 1.7804e-07)
(4.68642e-06 -6.2187e-06 2.08787e-07)
(4.99898e-06 -5.80023e-06 2.39338e-07)
(5.00023e-06 -5.32134e-06 2.69842e-07)
(4.67269e-06 -4.82662e-06 2.99451e-07)
(4.02475e-06 -4.36111e-06 3.26558e-07)
(3.09145e-06 -3.9672e-06 3.49246e-07)
(1.93267e-06 -3.68085e-06 3.65662e-07)
(6.28769e-07 -3.52825e-06 3.74383e-07)
(-7.26743e-07 -3.52288e-06 3.74644e-07)
(-2.03583e-06 -3.6641e-06 3.66484e-07)
(-3.20534e-06 -3.93704e-06 3.50747e-07)
(-4.15575e-06 -4.31386e-06 3.2899e-07)
(-4.82831e-06 -4.75621e-06 3.0325e-07)
(-5.18981e-06 -5.21867e-06 2.75777e-07)
(-5.23395e-06 -5.6516e-06 2.48732e-07)
(-4.98059e-06 -6.00395e-06 2.2392e-07)
(-4.47263e-06 -6.22503e-06 2.02666e-07)
(-3.77093e-06 -6.26466e-06 1.85527e-07)
(-2.94865e-06 -6.0725e-06 1.72079e-07)
(-2.08565e-06 -5.595e-06 1.60592e-07)
(-1.26023e-06 -4.76827e-06 1.46591e-07)
(-5.58223e-07 -3.49593e-06 1.21767e-07)
(-6.34459e-08 -1.58057e-06 6.35202e-08)
(9.51503e-09 -2.74532e-06 9.55756e-09)
(3.67333e-07 -5.59283e-06 5.19028e-08)
(1.07877e-06 -7.30516e-06 9.29456e-08)
(1.9776e-06 -8.29911e-06 1.29394e-07)
(2.9669e-06 -8.82686e-06 1.61218e-07)
(3.9214e-06 -8.99508e-06 1.90229e-07)
(4.74465e-06 -8.88699e-06 2.19416e-07)
(5.34731e-06 -8.56466e-06 2.50123e-07)
(5.66077e-06 -8.08861e-06 2.82864e-07)
(5.63696e-06 -7.51902e-06 3.16856e-07)
(5.25401e-06 -6.91731e-06 3.50515e-07)
(4.51908e-06 -6.34407e-06 3.81673e-07)
(3.46929e-06 -5.8554e-06 4.07908e-07)
(2.17014e-06 -5.49881e-06 4.26927e-07)
(7.10454e-07 -5.30875e-06 4.37008e-07)
(-8.05861e-07 -5.30304e-06 4.37234e-07)
(-2.26971e-06 -5.48113e-06 4.27633e-07)
(-3.57736e-06 -5.82395e-06 4.09174e-07)
(-4.64042e-06 -6.29572e-06 3.83671e-07)
(-5.3939e-06 -6.8471e-06 3.53541e-07)
(-5.80137e-06 -7.41971e-06 3.21393e-07)
(-5.85627e-06 -7.95007e-06 2.89707e-07)
(-5.58074e-06 -8.3732e-06 2.60575e-07)
(-5.02165e-06 -8.6246e-06 2.35459e-07)
(-4.24524e-06 -8.64051e-06 2.1501e-07)
(-3.33079e-06 -8.35643e-06 1.98765e-07)
(-2.36531e-06 -7.70185e-06 1.84844e-07)
(-1.43518e-06 -6.58788e-06 1.68268e-07)
(-6.38283e-07 -4.8711e-06 1.39647e-07)
(-7.28535e-08 -2.24109e-06 7.29487e-08)
(5.21116e-08 -3.26463e-06 5.21708e-08)
(5.74898e-07 -6.85849e-06 1.12822e-07)
(1.39791e-06 -9.10069e-06 1.49132e-07)
(2.3942e-06 -1.0487e-05 1.76513e-07)
(3.4592e-06 -1.12742e-05 2.01364e-07)
(4.4806e-06 -1.15971e-05 2.27213e-07)
(5.35718e-06 -1.15565e-05 2.56345e-07)
(5.99586e-06 -1.12344e-05 2.89493e-07)
(6.3213e-06 -1.07083e-05 3.26339e-07)
(6.27992e-06 -1.00552e-05 3.65505e-07)
(5.84601e-06 -9.35238e-06 4.04783e-07)
(5.02563e-06 -8.67563e-06 4.41375e-07)
(3.85832e-06 -8.09505e-06 4.72294e-07)
(2.41568e-06 -7.66996e-06 4.94742e-07)
(7.95734e-07 -7.44336e-06 5.06611e-07)
(-8.86323e-07 -7.43761e-06 5.06797e-07)
(-2.50942e-06 -7.65225e-06 4.95317e-07)
(-3.95844e-06 -8.06392e-06 4.73319e-07)
(-5.13544e-06 -8.62849e-06 4.42963e-07)
(-5.96899e-06 -9.28538e-06 4.07136e-07)
(-6.41965e-06 -9.96306e-06 3.68918e-07)
(-6.48114e-06 -1.0584e-05 3.31274e-07)
(-6.17855e-06 -1.1069e-05 2.96682e-07)
(-5.56351e-06 -1.13396e-05 2.66821e-07)
(-4.70852e-06 -1.13182e-05 2.4248e-07)
(-3.69977e-06 -1.09248e-05 2.23163e-07)
(-2.63196e-06 -1.00696e-05 2.06845e-07)
(-1.5999e-06 -8.6342e-06 1.87977e-07)
(-7.1275e-07 -6.41992e-06 1.5602e-07)
(-8.15255e-08 -2.98649e-06 8.16457e-08)
(7.58872e-08 -3.96949e-06 7.59681e-08)
(7.09087e-07 -8.40523e-06 1.49822e-07)
(1.63654e-06 -1.12037e-05 1.86102e-07)
(2.73558e-06 -1.29805e-05 2.10829e-07)
(3.89174e-06 -1.40279e-05 2.33826e-07)
(4.99483e-06 -1.45101e-05 2.60063e-07)
(5.93846e-06 -1.45469e-05 2.91739e-07)
(6.62477e-06 -1.42377e-05 3.29368e-07)
(6.97196e-06 -1.36754e-05 3.72156e-07)
(6.92068e-06 -1.29518e-05 4.18198e-07)
(6.44123e-06 -1.21593e-05 4.64699e-07)
(5.53844e-06 -1.13883e-05 5.08193e-07)
(4.25421e-06 -1.07228e-05 5.45035e-07)
(2.66654e-06 -1.02337e-05 5.71786e-07)
(8.83384e-07 -9.97282e-06 5.85877e-07)
(-9.67938e-07 -9.96724e-06 5.86025e-07)
(-2.75335e-06 -1.02166e-05 5.72245e-07)
(-4.34546e-06 -1.0693e-05 5.45849e-07)
(-5.63634e-06 -1.1344e-05 5.0942e-07)
(-6.54795e-06 -1.20975e-05 4.66474e-07)
(-7.03805e-06 -1.28688e-05 4.2072e-07)
(-7.10138e-06 -1.35665e-05 3.7569e-07)
(-6.76689e-06 -1.40978e-05 3.34309e-07)
(-6.09198e-06 -1.43704e-05 2.98605e-07)
(-5.1561e-06 -1.42927e-05 2.69537e-07)
(-4.05282e-06 -1.37686e-05 2.46633e-07)
(-2.8848e-06 -1.26867e-05 2.27662e-07)
(-1.75493e-06 -1.08951e-05 2.06484e-07)
(-7.82592e-07 -8.13201e-06 1.7143e-07)
(-8.97369e-08 -3.81158e-06 8.98858e-08)
(9.05572e-08 -4.80625e-06 9.06644e-08)
(8.05629e-07 -1.01728e-05 1.74517e-07)
(1.82501e-06 -1.35659e-05 2.12684e-07)
(3.02109e-06 -1.5749e-05 2.37754e-07)
(4.2698e-06 -1.70703e-05 2.61683e-07)
(5.45847e-06 -1.77273e-05 2.9057e-07)
(6.47514e-06 -1.78603e-05 3.26764e-07)
(7.21601e-06 -1.75849e-05 3.70649e-07)
(7.59266e-06 -1.70082e-05 4.21166e-07)
(7.53948e-06 -1.62354e-05 4.75887e-07)
(7.02187e-06 -1.53724e-05 5.31374e-07)
(6.04267e-06 -1.45231e-05 5.83405e-07)
(4.64587e-06 -1.37844e-05 6.27509e-07)
(2.91578e-06 -1.32392e-05 6.59511e-07)
(9.70759e-07 -1.29481e-05 6.76337e-07)
(-1.04886e-06 -1.29428e-05 6.76446e-07)
(-2.99536e-06 -1.32232e-05 6.59847e-07)
(-4.7283e-06 -1.37567e-05 6.28093e-07)
(-6.12923e-06 -1.44823e-05 5.84298e-07)
(-7.11372e-06 -1.53166e-05 5.32688e-07)
(-7.63748e-06 -1.61622e-05 4.77708e-07)
(-7.69715e-06 -1.69146e-05 4.23661e-07)
(-7.32653e-06 -1.74681e-05 3.74046e-07)
(-6.58975e-06 -1.77178e-05 3.31299e-07)
(-5.57355e-06 -1.75582e-05 2.96556e-07)
(-4.37925e-06 -1.68768e-05 2.69373e-07)
(-3.11696e-06 -1.55392e-05 2.47366e-07)
(-1.89664e-06 -1.33561e-05 2.23787e-07)
(-8.46516e-07 -9.99592e-06 1.85787e-07)
(-9.7424e-08 -4.71118e-06 9.76065e-08)
(1.00691e-07 -5.73766e-06 1.00816e-07)
(8.77455e-07 -1.21131e-05 1.92291e-07)
(1.9724e-06 -1.61418e-05 2.32786e-07)
(3.25176e-06 -1.87565e-05 2.59495e-07)
(4.584e-06 -2.03747e-05 2.85921e-07)
(5.85289e-06 -2.12313e-05 3.18972e-07)
(6.94114e-06 -2.14891e-05 3.61207e-07)
(7.73888e-06 -2.12791e-05 4.12994e-07)
(8.15078e-06 -2.07207e-05 4.72964e-07)
(8.10421e-06 -1.99306e-05 5.38218e-07)
(7.55863e-06 -1.90258e-05 6.04577e-07)
(6.51388e-06 -1.81222e-05 6.66915e-07)
(5.01497e-06 -1.73292e-05 7.19841e-07)
(3.15205e-06 -1.67405e-05 7.5824e-07)
(1.05388e-06 -1.64253e-05 7.78377e-07)
(-1.12576e-06 -1.64204e-05 7.78455e-07)
(-3.22472e-06 -1.67256e-05 7.5848e-07)
(-5.08915e-06 -1.73039e-05 7.20255e-07)
(-6.5902e-06 -1.80855e-05 6.67535e-07)
(-7.63763e-06 -1.89763e-05 6.05446e-07)
(-8.1861e-06 -1.9867e-05 5.39455e-07)
(-8.23529e-06 -2.06412e-05 4.74684e-07)
(-7.82517e-06 -2.11823e-05 4.15284e-07)
(-7.0273e-06 -2.13744e-05 3.64188e-07)
(-5.936e-06 -2.10995e-05 3.22784e-07)
(-4.65966e-06 -2.02291e-05 2.90642e-07)
(-3.31485e-06 -1.86044e-05 2.65153e-07)
(-2.01716e-06 -1.59958e-05 2.39046e-07)
(-9.01214e-07 -1.19948e-05 1.98405e-07)
(-1.04224e-07 -5.67774e-06 1.04447e-07)
(1.07582e-07 -6.73818e-06 1.07746e-07)
(9.26813e-07 -1.41833e-05 2.04621e-07)
(2.07546e-06 -1.88828e-05 2.47226e-07)
(3.41603e-06 -2.19562e-05 2.76088e-07)
(4.81266e-06 -2.38997e-05 3.05839e-07)
(6.14677e-06 -2.49892e-05 3.44124e-07)
(7.29717e-06 -2.54105e-05 3.93667e-07)
(8.14889e-06 -2.53093e-05 4.54843e-07)
(8.5996e-06 -2.4815e-05 5.26032e-07)
(8.56921e-06 -2.40527e-05 6.03829e-07)
(8.01015e-06 -2.31479e-05 6.8326e-07)
(6.91754e-06 -2.22262e-05 7.58129e-07)
(5.33576e-06 -2.14069e-05 8.2186e-07)
(3.3595e-06 -2.07936e-05 8.68204e-07)
(1.1273e-06 -2.04639e-05 8.92494e-07)
(-1.19346e-06 -2.04595e-05 8.92539e-07)
(-3.4259e-06 -2.07801e-05 8.68325e-07)
(-5.40268e-06 -2.1384e-05 8.22074e-07)
(-6.98509e-06 -2.21935e-05 7.5849e-07)
(-8.0783e-06 -2.31045e-05 6.83793e-07)
(-8.63784e-06 -2.39975e-05 6.04637e-07)
(-8.66825e-06 -2.47476e-05 5.27169e-07)
(-8.21675e-06 -2.52293e-05 4.5636e-07)
(-7.36262e-06 -2.53181e-05 3.95628e-07)
(-6.20761e-06 -2.48859e-05 3.46575e-07)
(-4.86594e-06 -2.3789e-05 3.08796e-07)
(-3.45859e-06 -2.18441e-05 2.79492e-07)
(-2.10432e-06 -1.87787e-05 2.50877e-07)
(-9.4121e-07 -1.41017e-05 2.08083e-07)
(-1.09486e-07 -6.69868e-06 1.09749e-07)
(1.11291e-07 -7.7814e-06 1.11467e-07)
(9.5013e-07 -1.63327e-05 2.11049e-07)
(2.12274e-06 -2.17268e-05 2.54999e-07)
(3.49222e-06 -2.52828e-05 2.86056e-07)
(4.92277e-06 -2.75821e-05 3.1957e-07)
(6.29623e-06 -2.89439e-05 3.63672e-07)
(7.4901e-06 -2.95771e-05 4.21345e-07)
(8.38618e-06 -2.96405e-05 4.93015e-07)
(8.87624e-06 -2.92708e-05 5.7687e-07)
(8.87267e-06 -2.85978e-05 6.69021e-07)
(8.31971e-06 -2.77515e-05 7.63692e-07)
(7.2057e-06 -2.68627e-05 8.5353e-07)
(5.57201e-06 -2.60577e-05 9.30368e-07)
(3.51565e-06 -2.54479e-05 9.86496e-07)
(1.18337e-06 -2.5118e-05 1.01599e-06)
(-1.24461e-06 -2.5114e-05 1.016e-06)
(-3.57672e-06 -2.54358e-05 9.86523e-07)
(-5.63273e-06 -2.60372e-05 9.30429e-07)
(-7.26581e-06 -2.68335e-05 8.53661e-07)
(-8.3789e-06 -2.77133e-05 7.63956e-07)
(-8.9307e-06 -2.85501e-05 6.69472e-07)
(-8.93265e-06 -2.92137e-05 5.77524e-07)
(-8.44021e-06 -2.95742e-05 4.93968e-07)
(-7.54054e-06 -2.95022e-05 4.22604e-07)
(-6.3415e-06 -2.88622e-05 3.65261e-07)
(-4.96097e-06 -2.74967e-05 3.2145e-07)
(-3.52162e-06 -2.51986e-05 2.88168e-07)
(-2.14187e-06 -2.16508e-05 2.57213e-07)
(-9.59143e-07 -1.62747e-05 2.13095e-07)
(-1.12337e-07 -7.75432e-06 1.12652e-07)
(1.11049e-07 -8.83517e-06 1.11268e-07)
(9.40278e-07 -1.84968e-05 2.10154e-07)
(2.09737e-06 -2.4591e-05 2.54249e-07)
(3.45159e-06 -2.86447e-05 2.87025e-07)
(4.87245e-06 -3.13281e-05 3.24182e-07)
(6.24661e-06 -3.30048e-05 3.74134e-07)
(7.45405e-06 -3.39062e-05 4.40037e-07)
(8.37637e-06 -3.42023e-05 5.22564e-07)
(8.90184e-06 -3.40333e-05 6.19918e-07)
(8.93581e-06 -3.3529e-05 7.27861e-07)
(8.41405e-06 -3.28185e-05 8.39795e-07)
(7.31585e-06 -3.20327e-05 9.4704e-07)
(5.6762e-06 -3.12994e-05 1.03962e-06)
(3.59092e-06 -3.07335e-05 1.1079e-06)
(1.21204e-06 -3.04243e-05 1.14406e-06)
(-1.26913e-06 -3.04206e-05 1.14404e-06)
(-3.64749e-06 -3.07225e-05 1.10785e-06)
(-5.73174e-06 -3.1281e-05 1.03956e-06)
(-7.36989e-06 -3.20067e-05 9.46982e-07)
(-8.46625e-06 -3.2785e-05 8.39819e-07)
(-8.98573e-06 -3.34878e-05 7.28087e-07)
(-8.94887e-06 -3.39848e-05 6.20311e-07)
(-8.42007e-06 -3.41471e-05 5.23167e-07)
(-7.49357e-06 -3.38452e-05 4.40833e-07)
(-6.28093e-06 -3.29395e-05 3.75122e-07)
(-4.90052e-06 -3.12614e-05 3.2536e-07)
(-3.47243e-06 -2.85804e-05 2.88363e-07)
(-2.11043e-06 -2.45342e-05 2.5565e-07)
(-9.46123e-07 -1.84543e-05 2.11416e-07)
(-1.11648e-07 -8.81591e-06 1.12007e-07)
(1.0582e-07 -9.85805e-06 1.06053e-07)
(8.88513e-07 -2.05911e-05 1.99828e-07)
(1.97963e-06 -2.73663e-05 2.42282e-07)
(3.2611e-06 -3.19188e-05 2.75784e-07)
(4.61438e-06 -3.50075e-05 3.15715e-07)
(5.93591e-06 -3.70402e-05 3.70505e-07)
(7.11347e-06 -3.82697e-05 4.4364e-07)
(8.03291e-06 -3.8874e-05 5.36038e-07)
(8.58255e-06 -3.89934e-05 6.46015e-07)
(8.66311e-06 -3.87527e-05 7.69279e-07)
(8.20179e-06 -3.82738e-05 8.98604e-07)
(7.16731e-06 -3.768e-05 1.02412e-06)
(5.58505e-06 -3.70935e-05 1.1339e-06)
(3.54508e-06 -3.66262e-05 1.21589e-06)
(1.19951e-06 -3.63662e-05 1.25973e-06)
(-1.25324e-06 -3.63629e-05 1.25968e-06)
(-3.59802e-06 -3.66162e-05 1.21577e-06)
(-5.63652e-06 -3.70769e-05 1.13373e-06)
(-7.21658e-06 -3.76568e-05 1.02396e-06)
(-8.24832e-06 -3.82442e-05 8.98495e-07)
(-8.70657e-06 -3.87169e-05 7.69266e-07)
(-8.62258e-06 -3.8952e-05 6.46131e-07)
(-8.06907e-06 -3.88277e-05 5.36326e-07)
(-7.14521e-06 -3.82195e-05 4.44101e-07)
(-5.96262e-06 -3.69875e-05 3.71128e-07)
(-4.63549e-06 -3.49548e-05 3.16461e-07)
(-3.27619e-06 -3.18687e-05 2.76611e-07)
(-1.98874e-06 -2.7323e-05 2.43165e-07)
(-8.92376e-07 -2.05592e-05 2.00644e-07)
(-1.0615e-07 -9.84384e-06 1.06555e-07)
(9.44604e-08 -1.07985e-05 9.47081e-08)
(7.85862e-07 -2.2511e-05 1.77953e-07)
(1.74983e-06 -2.99161e-05 2.16451e-07)
(2.88825e-06 -3.49475e-05 2.48994e-07)
(4.10175e-06 -3.84488e-05 2.89953e-07)
(5.30244e-06 -4.08695e-05 3.47391e-07)
(6.39203e-06 -4.24816e-05 4.24925e-07)
(7.2664e-06 -4.34688e-05 5.23857e-07)
(7.81887e-06 -4.39674e-05 6.42964e-07)
(7.94974e-06 -4.40923e-05 7.7823e-07)
(7.57993e-06 -4.39511e-05 9.22177e-07)
(6.66738e-06 -4.36513e-05 1.06391e-06)
(5.22452e-06 -4.33002e-05 1.18963e-06)
(3.33e-06 -4.29975e-05 1.28488e-06)
(1.12915e-06 -4.2822e-05 1.33643e-06)
(-1.18008e-06 -4.2819e-05 1.33639e-06)
(-3.37992e-06 -4.29884e-05 1.28477e-06)
(-5.2726e-06 -4.32854e-05 1.18944e-06)
(-6.71285e-06 -4.36306e-05 1.06367e-06)
(-7.6223e-06 -4.39249e-05 9.21976e-07)
(-7.98851e-06 -4.40613e-05 7.78139e-07)
(-7.85369e-06 -4.39321e-05 6.42974e-07)
(-7.29698e-06 -4.34297e-05 5.23965e-07)
(-6.41813e-06 -4.24398e-05 4.25159e-07)
(-5.32376e-06 -4.08263e-05 3.47748e-07)
(-4.1181e-06 -3.84063e-05 2.9042e-07)
(-2.89954e-06 -3.49078e-05 2.49544e-07)
(-1.75639e-06 -2.98823e-05 2.17024e-07)
(-7.8849e-07 -2.24864e-05 1.78511e-07)
(-9.46259e-08 -1.07877e-05 9.5072e-08)
(7.59589e-08 -1.15953e-05 7.62074e-08)
(6.25173e-07 -2.41331e-05 1.42634e-07)
(1.39252e-06 -3.20786e-05 1.74279e-07)
(2.3073e-06 -3.75411e-05 2.03529e-07)
(3.29681e-06 -4.14401e-05 2.42651e-07)
(4.29507e-06 -4.42618e-05 2.98828e-07)
(5.2243e-06 -4.6294e-05 3.75712e-07)
(5.99734e-06 -4.77234e-05 4.74964e-07)
(6.51957e-06 -4.86791e-05 5.95905e-07)
(6.69669e-06 -4.92611e-05 7.34964e-07)
(6.44763e-06 -4.95566e-05 8.84979e-07)
(5.72139e-06 -4.96491e-05 1.03487e-06)
(4.51614e-06 -4.96213e-05 1.16971e-06)
(2.89344e-06 -4.95492e-05 1.27313e-06)
(9.82582e-07 -4.9494e-05 1.3297e-06)
(-1.03123e-06 -4.94914e-05 1.32963e-06)
(-2.94102e-06 -4.95412e-05 1.27299e-06)
(-4.5616e-06 -4.96081e-05 1.16948e-06)
(-5.76389e-06 -4.96309e-05 1.03463e-06)
(-6.48665e-06 -4.95338e-05 8.84731e-07)
(-6.73175e-06 -4.92341e-05 7.34778e-07)
(-6.55049e-06 -4.86487e-05 5.9576e-07)
(-6.02389e-06 -4.76901e-05 4.74927e-07)
(-5.24637e-06 -4.62589e-05 3.75792e-07)
(-4.31262e-06 -4.42261e-05 2.98992e-07)
(-3.30986e-06 -4.14054e-05 2.42907e-07)
(-2.31599e-06 -3.75091e-05 2.03857e-07)
(-1.39731e-06 -3.20515e-05 1.74638e-07)
(-6.26955e-07 -2.41136e-05 1.43021e-07)
(-7.60175e-08 -1.15869e-05 7.64996e-08)
(4.97787e-08 -1.21808e-05 5.00608e-08)
(4.03127e-07 -2.53211e-05 9.29305e-08)
(9.00764e-07 -3.3674e-05 1.14506e-07)
(1.50673e-06 -3.94872e-05 1.37537e-07)
(2.18177e-06 -4.37391e-05 1.71038e-07)
(2.88806e-06 -4.6945e-05 2.20696e-07)
(3.57498e-06 -4.94041e-05 2.89736e-07)
(4.17965e-06 -5.13025e-05 3.80116e-07)
(4.62752e-06 -5.27596e-05 4.91794e-07)
(4.83754e-06 -5.3857e-05 6.22066e-07)
(4.7337e-06 -5.46569e-05 7.64601e-07)
(4.26032e-06 -5.52115e-05 9.08947e-07)
(3.40122e-06 -5.5571e-05 1.04037e-06)
(2.19586e-06 -5.57793e-05 1.14224e-06)
(7.45884e-07 -5.58721e-05 1.19842e-06)
(-7.92555e-07 -5.58701e-05 1.19835e-06)
(-2.24133e-06 -5.57727e-05 1.1421e-06)
(-3.44439e-06 -5.55594e-05 1.04011e-06)
(-4.30039e-06 -5.51957e-05 9.0863e-07)
(-4.77015e-06 -5.46369e-05 7.64244e-07)
(-4.86984e-06 -5.38335e-05 6.21798e-07)
(-4.65552e-06 -5.27331e-05 4.91569e-07)
(-4.20324e-06 -5.1274e-05 3.79997e-07)
(-3.59414e-06 -4.93743e-05 2.89705e-07)
(-2.90288e-06 -4.6915e-05 2.2072e-07)
(-2.19247e-06 -4.37103e-05 1.71154e-07)
(-1.51363e-06 -3.94609e-05 1.3772e-07)
(-9.04415e-07 -3.3652e-05 1.14779e-07)
(-4.04385e-07 -2.53054e-05 9.32208e-08)
(-4.9791e-08 -1.21741e-05 5.03011e-08)
(1.61742e-08 -1.24867e-05 1.64258e-08)
(1.2251e-07 -2.59386e-05 2.91754e-08)
(2.8093e-07 -3.45216e-05 3.73936e-08)
(4.9624e-07 -4.0568e-05 5.09369e-08)
(7.68933e-07 -4.50922e-05 7.44259e-08)
(1.09406e-06 -4.86269e-05 1.11223e-07)
(1.4548e-06 -5.14772e-05 1.6396e-07)
(1.81994e-06 -5.3825e-05 2.34436e-07)
(2.14318e-06 -5.5777e-05 3.23149e-07)
(2.36592e-06 -5.73944e-05 4.28552e-07)
(2.42522e-06 -5.87113e-05 5.45655e-07)
(2.26675e-06 -5.97469e-05 6.66092e-07)
(1.86186e-06 -6.05132e-05 7.77095e-07)
(1.22336e-06 -6.10184e-05 8.64032e-07)
(4.13781e-07 -6.12685e-05 9.12342e-07)
(-4.5862e-07 -6.12666e-05 9.12267e-07)
(-1.26686e-06 -6.10122e-05 8.63832e-07)
(-1.90304e-06 -6.05028e-05 7.76756e-07)
(-2.30475e-06 -5.97328e-05 6.65709e-07)
(-2.45935e-06 -5.86936e-05 5.45258e-07)
(-2.39589e-06 -5.73738e-05 4.28167e-07)
(-2.16886e-06 -5.57539e-05 3.22834e-07)
(-1.84128e-06 -5.38003e-05 2.34168e-07)
(-1.47185e-06 -5.14516e-05 1.63802e-07)
(-1.10696e-06 -4.86013e-05 1.11152e-07)
(-7.78014e-07 -4.5068e-05 7.43959e-08)
(-5.0194e-07 -4.0546e-05 5.10081e-08)
(-2.83797e-07 -3.45034e-05 3.75504e-08)
(-1.23368e-07 -2.59256e-05 2.93885e-08)
(-1.61194e-08 -1.24811e-05 1.66469e-08)
(-2.38426e-08 -1.24509e-05 -2.35767e-08)
(-2.06706e-07 -2.58623e-05 -4.64451e-08)
(-4.4433e-07 -3.4458e-05 -5.44509e-08)
(-6.87397e-07 -4.05851e-05 -5.35641e-08)
(-8.91428e-07 -4.52647e-05 -4.44795e-08)
(-1.02464e-06 -4.90315e-05 -2.67306e-08)
(-1.06496e-06 -5.21889e-05 1.17308e-09)
(-1.0052e-06 -5.49113e-05 4.067e-08)
(-8.5538e-07 -5.72909e-05 9.27409e-08)
(-6.43264e-07 -5.93689e-05 1.57127e-07)
(-4.1003e-07 -6.11514e-05 2.31181e-07)
(-2.02101e-07 -6.26241e-05 3.09645e-07)
(-5.81738e-08 -6.37626e-05 3.8359e-07)
(3.85161e-09 -6.45408e-05 4.42517e-07)
(-3.86873e-09 -6.49357e-05 4.75608e-07)
(-3.88263e-08 -6.49337e-05 4.75497e-07)
(-4.52649e-08 -6.45349e-05 4.42244e-07)
(1.91079e-08 -6.37531e-05 3.83219e-07)
(1.66214e-07 -6.26109e-05 3.09192e-07)
(3.77875e-07 -6.1135e-05 2.30739e-07)
(6.15179e-07 -5.93502e-05 1.56689e-07)
(8.31519e-07 -5.72702e-05 9.23676e-08)
(9.85579e-07 -5.48893e-05 4.03516e-08)
(1.04944e-06 -5.21666e-05 9.48222e-10)
(1.01305e-06 -4.90093e-05 -2.68612e-08)
(8.83455e-07 -4.52437e-05 -4.45347e-08)
(6.82572e-07 -4.05664e-05 -5.35346e-08)
(4.42023e-07 -3.44426e-05 -5.43512e-08)
(2.06074e-07 -2.58514e-05 -4.62672e-08)
(2.39149e-08 -1.24462e-05 -2.33806e-08)
(-6.79715e-08 -1.20272e-05 -6.77419e-08)
(-5.66111e-07 -2.50017e-05 -1.29892e-07)
(-1.23495e-06 -3.33621e-05 -1.56187e-07)
(-1.97953e-06 -3.93881e-05 -1.70367e-07)
(-2.70963e-06 -4.40731e-05 -1.79264e-07)
(-3.3547e-06 -4.79371e-05 -1.85852e-07)
(-3.85056e-06 -5.12725e-05 -1.90179e-07)
(-4.14682e-06 -5.42424e-05 -1.91234e-07)
(-4.21087e-06 -5.69254e-05 -1.87516e-07)
(-4.03201e-06 -5.93429e-05 -1.77838e-07)
(-3.62243e-06 -6.14768e-05 -1.61926e-07)
(-3.01507e-06 -6.32847e-05 -1.40955e-07)
(-2.25631e-06 -6.47114e-05 -1.18196e-07)
(-1.39725e-06 -6.57016e-05 -9.82586e-08)
(-4.84671e-07 -6.62091e-05 -8.63947e-08)
(4.44529e-07 -6.62073e-05 -8.64986e-08)
(1.35831e-06 -6.56962e-05 -9.85361e-08)
(2.21952e-06 -6.47026e-05 -1.18618e-07)
(2.98125e-06 -6.32725e-05 -1.41407e-07)
(3.59221e-06 -6.14618e-05 -1.62373e-07)
(4.0057e-06 -5.93258e-05 -1.7831e-07)
(4.18852e-06 -5.69068e-05 -1.8793e-07)
(4.12853e-06 -5.42228e-05 -1.91543e-07)
(3.83622e-06 -5.12528e-05 -1.90456e-07)
(3.34404e-06 -4.79178e-05 -1.86031e-07)
(2.70239e-06 -4.40552e-05 -1.7933e-07)
(1.97526e-06 -3.9372e-05 -1.70373e-07)
(1.23296e-06 -3.33489e-05 -1.56117e-07)
(5.65635e-07 -2.49924e-05 -1.29718e-07)
(6.80731e-08 -1.20232e-05 -6.754e-08)
(-1.13066e-07 -1.11944e-05 -1.12844e-07)
(-9.29758e-07 -2.33161e-05 -2.1508e-07)
(-2.03423e-06 -3.11782e-05 -2.60347e-07)
(-3.28857e-06 -3.69036e-05 -2.90931e-07)
(-4.5587e-06 -4.14206e-05 -3.20065e-07)
(-5.73578e-06 -4.5217e-05 -3.54369e-07)
(-6.71205e-06 -4.85662e-05 -3.95512e-07)
(-7.39136e-06 -5.16167e-05 -4.43186e-07)
(-7.69461e-06 -5.44334e-05 -4.95388e-07)
(-7.56787e-06 -5.70212e-05 -5.49213e-07)
(-6.98984e-06 -5.93447e-05 -6.01133e-07)
(-5.97559e-06 -6.13409e-05 -6.47287e-07)
(-4.57702e-06 -6.29332e-05 -6.84505e-07)
(-2.87963e-06 -6.40471e-05 -7.103e-07)
(-9.93743e-07 -6.46208e-05 -7.23381e-07)
(9.56631e-07 -6.4619e-05 -7.23455e-07)
(2.84357e-06 -6.4042e-05 -7.10478e-07)
(4.54302e-06 -6.29249e-05 -6.84795e-07)
(5.9442e-06 -6.13292e-05 -6.47659e-07)
(6.96165e-06 -5.93307e-05 -6.01508e-07)
(7.54316e-06 -5.70052e-05 -5.49574e-07)
(7.67357e-06 -5.44163e-05 -4.95737e-07)
(7.37415e-06 -5.15993e-05 -4.43459e-07)
(6.69855e-06 -4.85486e-05 -3.95754e-07)
(5.72577e-06 -4.52001e-05 -3.5455e-07)
(4.55196e-06 -4.1405e-05 -3.20184e-07)
(3.28462e-06 -3.689e-05 -2.9097e-07)
(2.0324e-06 -3.11671e-05 -2.60297e-07)
(9.29321e-07 -2.33082e-05 -2.14915e-07)
(1.13161e-07 -1.1191e-05 -1.12649e-07)
(-1.54934e-07 -9.96406e-06 -1.54736e-07)
(-1.26463e-06 -2.08309e-05 -2.94154e-07)
(-2.77164e-06 -2.79369e-05 -3.57371e-07)
(-4.50236e-06 -3.31594e-05 -4.04038e-07)
(-6.2841e-06 -3.73263e-05 -4.53586e-07)
(-7.97246e-06 -4.08761e-05 -5.16287e-07)
(-9.41776e-06 -4.40553e-05 -5.95409e-07)
(-1.0478e-05 -4.6996e-05 -6.91303e-07)
(-1.1027e-05 -4.97504e-05 -8.01651e-07)
(-1.09667e-05 -5.23134e-05 -9.21658e-07)
(-1.02401e-05 -5.46385e-05 -1.04426e-06)
(-8.84256e-06 -5.66521e-05 -1.16044e-06)
(-6.83013e-06 -5.82683e-05 -1.26027e-06)
(-4.3213e-06 -5.94029e-05 -1.33371e-06)
(-1.48906e-06 -5.99884e-05 -1.37266e-06)
(1.45577e-06 -5.99866e-05 -1.37272e-06)
(4.28878e-06 -5.93976e-05 -1.33388e-06)
(6.79915e-06 -5.82599e-05 -1.26049e-06)
(8.81373e-06 -5.66412e-05 -1.1607e-06)
(1.0214e-05 -5.46255e-05 -1.04455e-06)
(1.09436e-05 -5.22989e-05 -9.21936e-07)
(1.10072e-05 -4.97351e-05 -8.01915e-07)
(1.04617e-05 -4.69804e-05 -6.91559e-07)
(9.40485e-06 -4.40399e-05 -5.95621e-07)
(7.9629e-06 -4.08614e-05 -5.1645e-07)
(6.2776e-06 -3.7313e-05 -4.53699e-07)
(4.49853e-06 -3.31479e-05 -4.04029e-07)
(2.76997e-06 -2.79276e-05 -3.57302e-07)
(1.26426e-06 -2.08243e-05 -2.94e-07)
(1.55034e-07 -9.96119e-06 -1.54542e-07)
(-1.88612e-07 -8.38785e-06 -1.88441e-07)
(-1.53319e-06 -1.76503e-05 -3.57691e-07)
(-3.36807e-06 -2.37715e-05 -4.35405e-07)
(-5.49601e-06 -2.83045e-05 -4.95612e-07)
(-7.71508e-06 -3.19466e-05 -5.63157e-07)
(-9.85024e-06 -3.50735e-05 -6.5147e-07)
(-1.17139e-05 -3.79e-05 -7.65486e-07)
(-1.31216e-05 -4.05398e-05 -9.06209e-07)
(-1.39031e-05 -4.30354e-05 -1.07078e-06)
(-1.39184e-05 -4.53762e-05 -1.25259e-06)
(-1.30766e-05 -4.75131e-05 -1.4413e-06)
(-1.1354e-05 -4.93722e-05 -1.62293e-06)
(-8.80913e-06 -5.08688e-05 -1.78105e-06)
(-5.58941e-06 -5.19214e-05 -1.89875e-06)
(-1.92469e-06 -5.24649e-05 -1.96179e-06)
(1.89562e-06 -5.24632e-05 -1.9618e-06)
(5.56082e-06 -5.19166e-05 -1.8988e-06)
(8.78163e-06 -5.08613e-05 -1.78112e-06)
(1.13281e-05 -4.93622e-05 -1.62302e-06)
(1.30527e-05 -4.75012e-05 -1.44142e-06)
(1.38969e-05 -4.53632e-05 -1.25271e-06)
(1.38845e-05 -4.30218e-05 -1.07092e-06)
(1.31061e-05 -4.05261e-05 -9.0635e-07)
(1.17015e-05 -3.78868e-05 -7.65602e-07)
(9.84104e-06 -3.50611e-05 -6.51556e-07)
(7.7088e-06 -3.19353e-05 -5.63249e-07)
(5.49229e-06 -2.82949e-05 -4.95613e-07)
(3.36638e-06 -2.37637e-05 -4.35333e-07)
(1.53279e-06 -1.7645e-05 -3.57532e-07)
(1.88699e-07 -8.38557e-06 -1.88253e-07)
(-2.08464e-07 -6.56246e-06 -2.08312e-07)
(-1.69492e-06 -1.39649e-05 -3.9483e-07)
(-3.74112e-06 -1.89252e-05 -4.80641e-07)
(-6.14238e-06 -2.26171e-05 -5.48911e-07)
(-8.67992e-06 -2.55869e-05 -6.28633e-07)
(-1.11546e-05 -2.81394e-05 -7.3577e-07)
(-1.33473e-05 -3.04537e-05 -8.76747e-07)
(-1.50376e-05 -3.26252e-05 -1.05304e-06)
(-1.60182e-05 -3.46892e-05 -1.26135e-06)
(-1.61136e-05 -3.66346e-05 -1.49351e-06)
(-1.52042e-05 -3.8417e-05 -1.73628e-06)
(-1.32495e-05 -3.99716e-05 -1.97146e-06)
(-1.03091e-05 -4.12247e-05 -2.17735e-06)
(-6.553e-06 -4.21064e-05 -2.33124e-06)
(-2.2558e-06 -4.25616e-05 -2.41387e-06)
(2.23129e-06 -4.25602e-05 -2.41383e-06)
(6.5287e-06 -4.21021e-05 -2.33116e-06)
(1.02853e-05 -4.12182e-05 -2.17727e-06)
(1.32266e-05 -3.99632e-05 -1.97141e-06)