/*--------------------------------*- C++ -*----------------------------------*\
| =========                 |                                                 |
| \\      /  F ield         | OpenFOAM: The Open Source CFD Toolbox           |
|  \\    /   O peration     | Version:  v1906                                 |
|   \\  /    A nd           | Web:      www.OpenFOAM.com                      |
|    \\/     M anipulation  |                                                 |
\*---------------------------------------------------------------------------*/
FoamFile
{
    version     2.0;
    format      ascii;
    class       volScalarField;
    location    "49";
    object      omega;
}
// * * * * * * * * * * * * * * * * * * * * * * * * * * * * * * * * * * * * * //

dimensions      [0 0 -1 0 0 0 0];


internalField   nonuniform List<scalar> 
78750
(
353.36
13.5704
13.5772
13.5818
13.5847
13.5861
13.5863
13.5858
13.5846
13.5832
13.5816
13.58
13.5785
13.5772
13.576
13.5752
13.5746
13.5742
13.5741
13.5742
13.5746
13.5751
13.5758
13.5766
13.5776
13.5788
13.5801
13.5816
13.5835
13.5862
13.5906
13.5987
13.6134
13.6376
356.628
518.508
4.08087
4.10479
4.12717
4.14659
4.16198
4.17283
4.17912
4.1812
4.1796
4.17497
4.16796
4.15924
4.14939
4.13906
4.12882
4.11924
4.11081
4.10396
4.09896
4.0959
4.09464
4.09484
4.09603
4.09771
4.09942
4.10083
4.10164
4.10165
4.10081
4.09964
4.09992
4.10509
4.11959
523.806
518.513
4.11573
4.16876
4.21903
4.26516
4.30578
4.33999
4.36734
4.38769
4.40114
4.40791
4.40833
4.40281
4.39182
4.37591
4.35566
4.33171
4.3048
4.27574
4.24551
4.21527
4.18635
4.16022
4.13844
4.12233
4.11257
4.10891
4.1101
4.11428
4.11946
4.12427
4.12946
4.13868
4.15703
524.407
518.518
4.15015
4.22851
4.29959
4.36386
4.42157
4.47238
4.51612
4.55272
4.58216
4.60448
4.61975
4.62809
4.62968
4.62474
4.61354
4.59638
4.57341
4.54488
4.51139
4.47381
4.43333
4.39087
4.3471
4.30311
4.26033
4.22076
4.18685
4.16127
4.14648
4.14274
4.14836
4.16255
4.18701
524.842
518.523
4.17311
4.26944
4.35682
4.43317
4.49878
4.55509
4.60278
4.64223
4.67384
4.69799
4.71506
4.72543
4.72945
4.72749
4.71989
4.70699
4.68915
4.66648
4.63888
4.60667
4.57037
4.53057
4.48776
4.44231
4.39466
4.34544
4.29586
4.24874
4.20984
4.18585
4.18024
4.19225
4.22019
525.246
518.531
4.2078
4.329
4.43734
4.52972
4.60484
4.66569
4.71552
4.75551
4.78638
4.80876
4.82324
4.83038
4.83075
4.82487
4.81329
4.79659
4.77502
4.74855
4.71745
4.6823
4.64392
4.60335
4.56141
4.51833
4.47377
4.42713
4.37795
4.32714
4.27898
4.24179
4.22416
4.22966
4.25639
525.569
518.539
4.23954
4.38157
4.50565
4.608
4.68808
4.75061
4.80036
4.83935
4.86853
4.88874
4.90074
4.9052
4.90276
4.89401
4.87954
4.85967
4.83435
4.8037
4.76816
4.72846
4.68576
4.64168
4.59779
4.55481
4.51239
4.46948
4.42486
4.37811
4.33166
4.29245
4.27023
4.27144
4.29532
525.878
518.548
4.27375
4.43629
4.57504
4.68609
4.7702
4.83353
4.88245
4.91982
4.94679
4.96433
4.97333
4.97456
4.96879
4.9567
4.93863
4.91448
4.88447
4.84896
4.80858
4.7642
4.71714
4.66929
4.62279
4.57884
4.53726
4.49701
4.45663
4.41509
4.3735
4.33703
4.31464
4.31359
4.33392
526.149
518.557
4.30363
4.48341
4.63433
4.75231
4.83941
4.90354
4.95216
4.98859
5.01405
5.02964
5.03631
5.03492
5.02625
5.01071
4.98826
4.9591
4.92362
4.88245
4.8364
4.7866
4.73463
4.68277
4.63369
4.58887
4.5482
4.51071
4.47499
4.43978
4.40529
4.37495
4.35592
4.35468
4.37162
526.411
518.568
4.33535
4.53238
4.69496
4.81921
4.9089
4.97337
5.02125
5.05643
5.08026
5.09393
5.09848
5.09479
5.08343
5.0644
5.03787
5.00416
4.96383
4.91763
4.86653
4.81175
4.75502
4.69884
4.64636
4.59948
4.55824
4.52189
4.48928
4.45925
4.43151
4.40799
4.39368
4.39337
4.40728
526.651
518.578
4.36462
4.57669
4.74899
4.87818
4.96986
5.0347
5.08213
5.11641
5.13901
5.15117
5.15396
5.14818
5.13398
5.11145
5.08086
5.04266
4.99756
4.94645
4.89043
4.83089
4.76971
4.70969
4.65445
4.60608
4.56466
4.52962
4.5001
4.47515
4.45412
4.43768
4.42867
4.42983
4.44103
526.884
518.589
4.39367
4.6202
4.80192
4.93612
5.03014
5.09581
5.14309
5.17669
5.19832
5.20929
5.21074
5.20307
5.18637
5.1608
5.12669
5.08462
5.03537
4.97991
4.91943
4.85536
4.78969
4.72539
4.66656
4.61565
4.57292
4.53805
4.51054
4.48968
4.47462
4.46487
4.46107
4.46392
4.47275
527.102
518.599
4.4209
4.66052
4.85057
4.98904
5.08493
5.15152
5.19878
5.23173
5.2525
5.26257
5.2627
5.25312
5.23394
5.20539
5.16792
5.1222
5.0691
5.00969
4.94522
4.87718
4.80766
4.73981
4.67812
4.62525
4.5815
4.54682
4.52106
4.50385
4.4942
4.49059
4.49163
4.49612
4.50285
527.311
518.61
4.44815
4.70044
4.89851
5.04115
5.13899
5.20658
5.25404
5.28663
5.30698
5.31632
5.3152
5.30383
5.28236
5.25109
5.21052
5.16141
5.1047
5.04152
4.97316
4.90121
4.82779
4.75623
4.69143
4.63633
4.59134
4.55655
4.53217
4.51808
4.51321
4.51513
4.52054
4.52654
4.53136
527.51
518.621
4.47363
4.73748
4.94291
5.08941
5.18904
5.25752
5.30544
5.33815
5.3582
5.36681
5.36449
5.35144
5.32786
5.29407
5.25067
5.19846
5.13846
5.07184
4.99993
4.92436
4.84733
4.77234
4.70472
4.64766
4.60161
4.56684
4.54382
4.53265
4.53215
4.53903
4.54828
4.55555
4.55853
527.7
518.632
4.49964
4.77483
4.98731
5.13741
5.23872
5.30802
5.35633
5.38908
5.40882
5.41673
5.41328
5.39867
5.3731
5.33694
5.29085
5.23571
5.17259
5.10266
5.02732
4.94821
4.86762
4.78917
4.71862
4.65953
4.6124
4.57764
4.55591
4.54747
4.55098
4.56232
4.57492
4.58324
4.58441
527.881
518.643
4.5242
4.80978
5.02877
5.18228
5.28527
5.35551
5.40436
5.43734
5.45696
5.46436
5.45999
5.44401
5.41667
5.37838
5.32986
5.27205
5.20603
5.133
5.05439
4.97188
4.8878
4.80594
4.73249
4.67141
4.62328
4.58864
4.56828
4.56255
4.56984
4.58523
4.60073
4.60982
4.60912
528.054
518.654
4.54925
4.84498
5.07016
5.22677
5.33124
5.40231
5.45166
5.48484
5.50435
5.51128
5.50603
5.48878
5.45978
5.41952
5.36874
5.30844
5.23973
5.16378
5.08204
4.99623
4.9087
4.82336
4.74684
4.68364
4.63442
4.59984
4.58083
4.57772
4.58859
4.6077
4.62571
4.63534
4.6327
528.218
518.666
4.57331
4.87843
5.10933
5.26886
5.3748
5.44679
5.49677
5.5303
5.54986
5.55647
5.55053
5.5322
5.50176
5.45973
5.40693
5.34437
5.27317
5.19449
5.10977
5.02074
4.9298
4.84098
4.76133
4.69594
4.64561
4.61112
4.59348
4.59298
4.60729
4.62981
4.65
4.65992
4.65522
528.375
518.678
4.59764
4.91187
5.14821
5.3104
5.41769
5.49053
5.54113
5.57504
5.59468
5.60105
5.59451
5.57521
5.54347
5.49987
5.44523
5.38062
5.30713
5.22593
5.13841
5.04629
4.95198
4.85959
4.77657
4.70876
4.65711
4.62256
4.60621
4.60821
4.62581
4.6515
4.67357
4.6836
4.67672
528.525
518.691
4.6213
4.94406
5.18544
5.35013
5.45873
5.53249
5.58379
5.61817
5.63802
5.64427
5.63726
5.61716
5.58431
5.53933
5.48308
5.41662
5.34105
5.25752
5.1674
5.07234
4.97475
4.87883
4.79236
4.722
4.6689
4.63419
4.61904
4.62346
4.64419
4.67279
4.69647
4.70642
4.69726
528.669
518.704
4.64508
4.97609
5.22228
5.38929
5.49913
5.57379
5.62582
5.66072
5.68082
5.68703
5.67966
5.65888
5.62508
5.57889
5.52123
5.45313
5.37571
5.29006
5.19753
5.09969
4.99891
4.89941
4.80928
4.73612
4.68131
4.64618
4.63202
4.63869
4.66238
4.6937
4.71879
4.7285
4.71693
528.806
518.717
4.66838
5.00717
5.25786
5.42706
5.53812
5.61373
5.66654
5.70202
5.72246
5.72871
5.72108
5.69975
5.66515
5.61796
5.55908
5.48957
5.41052
5.32299
5.22826
5.12785
5.02402
4.92103
4.82721
4.75112
4.69443
4.65868
4.64531
4.65401
4.6804
4.71414
4.74037
4.74968
4.73566
528.939
518.73
4.69173
5.03809
5.2931
5.46438
5.57664
5.6532
5.70681
5.74291
5.76371
5.77005
5.76224
5.74047
5.7052
5.65716
5.59727
5.52657
5.44612
5.35692
5.26019
5.15737
5.05064
4.9442
4.8466
4.76739
4.70855
4.67189
4.65901
4.66947
4.69836
4.73434
4.76157
4.77036
4.75372
529.067
518.744
4.71468
5.06823
5.32735
5.50064
5.61412
5.69168
5.74614
5.78287
5.80407
5.81054
5.8026
5.78048
5.74468
5.69595
5.63524
5.56357
5.48197
5.39135
5.29287
5.18787
5.07846
4.96872
4.86735
4.78495
4.72379
4.68598
4.67329
4.68521
4.71624
4.75409
4.782
4.7901
4.77089
529.191
518.757
4.73764
5.09819
5.36134
5.53662
5.65134
5.72993
5.78524
5.82261
5.84417
5.85077
5.84271
5.8203
5.78406
5.73479
5.67343
5.601
5.51847
5.42667
5.32667
5.21971
5.10778
4.99489
4.88979
4.80408
4.74041
4.70115
4.6883
4.70131
4.73415
4.77367
4.80244
4.80959
4.78743
529.311
518.771
4.76018
5.12746
5.39452
5.57185
5.68791
5.76761
5.82378
5.86172
5.8836
5.89028
5.88212
5.85947
5.82289
5.77322
5.71139
5.63841
5.55518
5.46245
5.3612
5.25254
5.13835
5.02254
4.91384
4.82484
4.75853
4.71757
4.70424
4.71795
4.75226
4.79322
4.82282
4.82896
4.80349
529.427
518.785
4.78261
5.15645
5.42743
5.60694
5.72455
5.80545
5.86242
5.9008
5.92284
5.92951
5.92122
5.89834
5.86152
5.81156
5.74943
5.67608
5.59237
5.49895
5.39668
5.28657
5.17035
5.0518
4.93966
4.8474
4.77833
4.73543
4.72124
4.73526
4.77067
4.81282
4.84311
4.84813
4.81915
529.54
518.799
4.80453
5.18465
5.45952
5.64145
5.76104
5.8434
5.901
5.93945
5.96145
5.96799
5.95955
5.93651
5.89953
5.84944
5.78717
5.71366
5.62968
5.53579
5.43277
5.32149
5.20351
5.0825
4.96718
4.87176
4.7999
4.75486
4.73948
4.75339
4.78952
4.83256
4.86333
4.86707
4.8344
529.65
518.813
4.82617
5.21234
5.49104
5.67549
5.79723
5.88092
5.9393
5.97783
5.99959
6.00595
5.99736
5.97422
5.93718
5.88708
5.82483
5.75132
5.66727
5.57314
5.4696
5.35741
5.23795
5.11477
4.99652
4.89808
4.82341
4.77604
4.75913
4.77248
4.80882
4.85235
4.88338
4.88574
4.84926
529.757
518.827
4.84723
5.23911
5.52153
5.70871
5.83198
5.91688
5.97619
6.01522
6.03678
6.043
6.03432
6.01115
5.97415
5.92416
5.86207
5.78873
5.7048
5.61064
5.50683
5.39398
5.27335
5.1483
5.02743
4.92623
4.84885
4.79904
4.78031
4.79269
4.82887
4.87277
4.90349
4.90421
4.86378
529.861
518.842
4.86795
5.26528
5.55123
5.74099
5.86585
5.952
6.01225
6.05185
6.07348
6.07946
6.07067
6.0475
6.01062
5.96085
5.89904
5.82601
5.74236
5.64837
5.54451
5.43126
5.30973
5.18313
5.05997
4.95627
4.87629
4.82398
4.80315
4.81415
4.84976
4.8937
4.92371
4.92254
4.87801
529.963
518.856
4.88811
5.29057
5.57983
5.7719
5.8982
5.98557
6.04683
6.08715
6.1091
6.11485
6.106
6.08293
6.04628
5.99683
5.93543
5.86286
5.77965
5.686
5.58229
5.4689
5.34676
5.21895
5.0939
4.98804
4.90568
4.85089
4.82776
4.837
4.87159
4.91514
4.9441
4.94079
4.892
530.062
518.87
4.90792
5.31537
5.60806
5.80196
5.92952
6.01802
6.08026
6.1213
6.14361
6.14926
6.14048
6.1176
6.08125
6.03224
5.97136
5.89935
5.81672
5.72357
5.6202
5.50686
5.38438
5.25568
5.12912
5.02147
4.93697
4.87976
4.85419
4.86133
4.89444
4.93716
4.96469
4.95902
4.90582
530.159
518.884
4.9269
5.3389
5.63487
5.83036
5.95914
6.04883
6.11214
6.15403
6.1769
6.18268
6.17395
6.15128
6.1153
6.06679
6.00654
5.93522
5.85329
5.76078
5.65792
5.54486
5.42229
5.29302
5.16536
5.05631
4.96999
4.91051
4.88245
4.88722
4.91843
4.95984
4.9856
4.97731
4.91954
530.255
518.898
4.94531
5.36151
5.66052
5.85752
5.9875
6.07835
6.1427
6.18545
6.20896
6.21511
6.20637
6.18393
6.1484
6.1005
6.04097
5.97046
5.88936
5.79763
5.69544
5.58283
5.46041
5.33088
5.2025
5.09246
5.00466
4.9431
4.91252
4.91469
4.9436
4.98325
5.00687
4.99574
4.93321
530.348
518.911
4.96307
5.38312
5.68489
5.88324
6.01431
6.10625
6.17163
6.21524
6.23938
6.24591
6.23729
6.21523
6.18028
6.13311
6.07443
6.00484
5.92468
5.83386
5.73247
5.62051
5.49846
5.36897
5.24029
5.12971
5.04078
4.97738
4.94435
4.94375
4.97002
5.00747
5.0286
5.01437
4.94691
530.441
518.925
4.98017
5.40374
5.70805
5.90764
6.03975
6.13275
6.19913
6.24358
6.26838
6.27537
6.26695
6.24535
6.21105
6.1647
6.10694
6.03834
5.9592
5.86938
5.76892
5.65774
5.53627
5.40711
5.27852
5.16785
5.07819
5.01324
4.97785
4.97438
4.99769
5.03255
5.05086
5.03329
4.96071
530.533
518.938
4.99666
5.42344
5.73007
5.9307
6.06371
6.15771
6.22505
6.27036
6.29585
6.30333
6.29519
6.27408
6.24047
6.19498
6.13824
6.07075
5.99272
5.904
5.80457
5.69431
5.5736
5.44502
5.31693
5.2066
5.11662
5.05045
5.0129
5.00653
5.02665
5.05854
5.0737
5.05253
4.97463
530.624
518.951
5.01263
5.44234
5.75095
5.95242
6.08624
6.18117
6.24944
6.29559
6.32177
6.32979
6.32201
6.3015
6.26868
6.22411
6.16838
6.10199
6.02516
5.93762
5.83932
5.7301
5.61031
5.48257
5.35536
5.24579
5.15587
5.08882
5.04932
5.04008
5.05684
5.08547
5.0972
5.0722
4.98876
530.715
518.964
5.02798
5.46027
5.77057
5.97273
6.10727
6.20307
6.27223
6.3192
6.34609
6.35469
6.34734
6.32749
6.2955
6.25191
6.19728
6.13204
6.0564
5.97008
5.87301
5.76492
5.6462
5.51954
5.39361
5.28517
5.19567
5.12808
5.0869
5.07492
5.08823
5.11333
5.12135
5.09228
5.0031
530.805
518.977
5.04289
5.47747
5.78914
5.99178
6.12691
6.22349
6.29348
6.34123
6.36883
6.37804
6.37119
6.35202
6.32091
6.27834
6.22484
6.16081
6.08641
6.00132
5.90547
5.79867
5.68116
5.55581
5.43154
5.32458
5.23585
5.16805
5.12548
5.11088
5.12065
5.14211
5.14623
5.11288
5.01772
530.896
518.989
5.0572
5.4939
5.8065
6.00943
6.14506
6.24237
6.31314
6.36165
6.38994
6.3998
6.39359
6.37506
6.34481
6.30329
6.25095
6.18816
6.11504
6.03124
5.93665
5.83108
5.71498
5.59116
5.46894
5.36379
5.27617
5.20848
5.16478
5.14774
5.1541
5.17171
5.17175
5.13394
5.03261
530.987
519.001
5.07104
5.50973
5.82279
6.02583
6.16188
6.25984
6.33134
6.38054
6.40948
6.41996
6.41436
6.39652
6.36718
6.32674
6.2756
6.21408
6.14226
6.05977
5.96649
5.86224
5.74754
5.6255
5.50566
5.40263
5.31644
5.24919
5.20468
5.18547
5.18869
5.2022
5.19797
5.15551
5.0478
531.078
519.013
5.08391
5.52422
5.8377
6.04084
6.17728
6.27586
6.34804
6.3979
6.42745
6.43852
6.43354
6.41642
6.38802
6.34867
6.29874
6.2385
6.16799
6.08682
5.99487
5.89199
5.77879
5.65861
5.54156
5.44092
5.35643
5.28992
5.24489
5.22381
5.2241
5.23343
5.22479
5.17753
5.06325
531.17
519.025
5.09621
5.53792
5.85162
6.05475
6.19149
6.29062
6.36341
6.41386
6.44398
6.45561
6.45124
6.43486
6.40741
6.36917
6.32045
6.26149
6.19229
6.11244
6.02182
5.92033
5.8087
5.69055
5.57647
5.47854
5.39604
5.33056
5.28534
5.26267
5.26023
5.26538
5.25225
5.20003
5.07898
531.263
519.037
5.10774
5.55056
5.86434
6.0674
6.2044
6.30403
6.37738
6.42838
6.45901
6.47117
6.46739
6.45176
6.42528
6.38816
6.34067
6.28299
6.21511
6.13657
6.04729
5.94721
5.83722
5.72124
5.61042
5.51535
5.43506
5.37087
5.32572
5.30174
5.29677
5.29782
5.28018
5.2229
5.09491
531.356
519.048
5.11862
5.56232
5.87607
6.079
6.2162
6.31627
6.39012
6.4416
6.47269
6.48531
6.48212
6.46726
6.44174
6.40574
6.35946
6.30307
6.23649
6.15928
6.07134
5.9727
5.86441
5.75074
5.64341
5.55141
5.47354
5.41086
5.36603
5.34099
5.3337
5.33072
5.30855
5.24613
5.11104
531.449
519.059
5.12886
5.57322
5.88679
6.08949
6.22684
6.3273
6.40159
6.4535
6.48499
6.49805
6.49541
6.48133
6.45677
6.42188
6.37681
6.32168
6.25641
6.18051
6.09394
5.99677
5.89025
5.77903
5.67542
5.58666
5.51133
5.4503
5.40599
5.38011
5.37073
5.36385
5.33721
5.26959
5.12727
531.543
519.069
5.13847
5.58326
5.89654
6.09897
6.23642
6.33722
6.41191
6.46419
6.49605
6.50949
6.50739
6.49408
6.47047
6.43667
6.39279
6.33891
6.27492
6.20034
6.11514
6.01949
5.91483
5.80621
5.70655
5.6212
5.54854
5.48929
5.44566
5.41913
5.40783
5.39719
5.36614
5.29328
5.14362
531.638
519.079
5.14746
5.59248
5.90534
6.10742
6.24492
6.34601
6.42105
6.47366
6.50583
6.51964
6.51805
6.50552
6.48285
6.45011
6.40739
6.35474
6.29202
6.21876
6.13494
6.04085
5.93814
5.83231
5.73682
5.65501
5.58512
5.52772
5.48481
5.45777
5.44475
5.43049
5.39512
5.31704
5.15997
531.732
519.089
5.15586
5.6009
5.9132
6.11487
6.25237
6.3537
6.42905
6.48196
6.51442
6.52856
6.52748
6.51573
6.494
6.4623
6.42071
6.36925
6.30779
6.23582
6.1534
6.06092
5.9603
5.85748
5.76635
5.68823
5.62122
5.56572
5.52361
5.49614
5.48148
5.46371
5.42412
5.34084
5.17634
531.826
519.099
5.16367
5.60851
5.92012
6.12128
6.25872
6.36025
6.43587
6.48905
6.52176
6.53622
6.53565
6.52471
6.5039
6.47323
6.43275
6.38246
6.32221
6.25154
6.17054
6.07974
5.98134
5.88181
5.79518
5.72088
5.65684
5.6033
5.562
5.53403
5.51787
5.49673
5.45302
5.36459
5.19267
531.92
519.108
5.17094
5.61538
5.92614
6.1267
6.26401
6.36568
6.44153
6.49494
6.5279
6.54267
6.54262
6.53251
6.51263
6.48297
6.44356
6.39441
6.33536
6.26596
6.18641
6.09739
6.00141
5.90554
5.82346
5.75302
5.69202
5.64051
5.60006
5.57169
5.55396
5.52955
5.48186
5.38839
5.20916
532.014
519.117
5.17763
5.62144
5.93119
6.13106
6.26818
6.36994
6.44597
6.49958
6.53277
6.54788
6.54838
6.53913
6.52018
6.49151
6.45316
6.40511
6.34723
6.2791
6.20101
6.11385
6.02054
5.92877
5.85121
5.78467
5.72676
5.67737
5.63784
5.60909
5.58983
5.56216
5.51055
5.4121
5.22566
532.106
519.126
5.1838
5.62677
5.93535
6.13441
6.27126
6.37305
6.44921
6.50299
6.53641
6.55187
6.55297
6.5446
6.52658
6.4989
6.46158
6.41462
6.35788
6.291
6.21437
6.12913
6.03863
5.95133
5.87827
5.81563
5.76089
5.7137
5.67511
5.64591
5.62532
5.59451
5.53909
5.43572
5.24211
532.198
519.134
5.1894
5.63132
5.93858
6.13674
6.27323
6.37499
6.45122
6.50515
6.53879
6.55464
6.55647
6.54892
6.53182
6.50512
6.46884
6.42296
6.36736
6.30172
6.22655
6.14325
6.05567
5.97305
5.90446
5.84573
5.79426
5.74942
5.71202
5.68286
5.66059
5.62662
5.56741
5.45912
5.25832
532.289
519.142
5.19447
5.63515
5.94094
6.13809
6.27415
6.3758
6.45206
6.50607
6.53991
6.55615
6.55873
6.55204
6.53588
6.51019
6.47497
6.43019
6.37573
6.31132
6.23761
6.15627
6.07166
5.99382
5.92963
5.87481
5.82666
5.78438
5.74847
5.71969
5.69569
5.65855
5.59555
5.48233
5.27435
532.379
519.15
5.199
5.63824
5.94242
6.13846
6.27403
6.3755
6.45173
6.5058
6.53979
6.55643
6.55981
6.554
6.5388
6.51414
6.48001
6.43637
6.38309
6.31996
6.24776
6.16842
6.08684
6.0138
5.9539
5.90285
5.858
5.81836
5.78416
5.75601
5.73038
5.69013
5.6234
5.50524
5.2901
532.468
519.157
5.20301
5.64065
5.94309
6.13794
6.27292
6.37416
6.45031
6.50437
6.53851
6.55552
6.55971
6.5548
6.54058
6.51698
6.48397
6.4415
6.38947
6.3277
6.25708
6.17984
6.10139
6.03316
5.97741
5.92997
5.88827
5.85128
5.81896
5.79169
5.76462
5.7214
5.65101
5.52794
5.30567
532.555
519.164
5.20649
5.64235
5.94293
6.1365
6.27084
6.3718
6.44781
6.50184
6.53609
6.55349
6.55851
6.55451
6.54128
6.51875
6.4869
6.44567
6.39496
6.33465
6.26577
6.19081
6.11568
6.05223
6.00048
5.95638
5.91759
5.88308
5.85263
5.8264
5.7981
5.75212
5.67823
5.55033
5.32101
532.641
519.171
5.20944
5.64336
5.94198
6.13422
6.26785
6.36846
6.44429
6.49825
6.53259
6.55037
6.55622
6.55313
6.54089
6.51946
6.48879
6.44885
6.39956
6.34085
6.27389
6.20147
6.12999
6.07132
6.02341
5.98242
5.94624
5.91398
5.88531
5.86018
5.83081
5.7823
5.7051
5.5725
5.33626
532.725
519.177
5.21191
5.64375
5.94031
6.13113
6.264
6.36421
6.43981
6.49367
6.52808
6.54623
6.55292
6.55074
6.53949
6.51914
6.48967
6.45106
6.40328
6.34633
6.28157
6.21206
6.14474
6.09076
6.04653
6.00838
5.97446
5.94408
5.91695
5.89287
5.86257
5.81177
5.73148
5.59436
5.35138
532.808
519.183
5.21389
5.64351
5.93793
6.12728
6.25933
6.35909
6.43442
6.48814
6.5226
6.5411
6.54865
6.54735
6.53706
6.51777
6.4895
6.45224
6.40602
6.35097
6.28863
6.22246
6.15992
6.11064
6.07005
6.03461
6.00268
5.97383
5.94791
5.9247
5.89349
5.8406
5.75742
5.61599
5.36644
532.888
519.189
5.21542
5.6427
5.93491
6.12273
6.2539
6.35316
6.42819
6.48174
6.51624
6.53511
6.54349
6.54306
6.53371
6.51546
6.48835
6.45243
6.40779
6.3547
6.29495
6.23241
6.17514
6.13062
6.09377
6.06105
6.03099
6.00339
5.97834
5.95574
5.92358
5.86871
5.78284
5.63729
5.38136
532.966
519.194
5.21651
5.64135
5.93129
6.11754
6.24778
6.34648
6.42116
6.47453
6.50905
6.52828
6.5375
6.53792
6.52947
6.5122
6.48622
6.4516
6.40854
6.35744
6.30039
6.24169
6.19001
6.15042
6.11749
6.08769
6.05955
6.03306
6.00858
5.98631
5.95307
5.89627
5.80784
5.65831
5.39615
533.042
519.2
5.21723
5.63952
5.92717
6.11179
6.24104
6.33915
6.41344
6.46659
6.50114
6.52074
6.53081
6.53205
6.52446
6.50813
6.48321
6.44984
6.4083
6.35917
6.30482
6.25006
6.20413
6.16958
6.1408
6.11417
6.08818
6.06286
6.03883
6.01662
5.98209
5.92332
5.83236
5.67897
5.41072
533.116
519.205
5.21757
5.63727
5.92259
6.10556
6.23377
6.33121
6.40507
6.458
6.49258
6.51257
6.52349
6.52553
6.51876
6.50334
6.47944
6.44726
6.40719
6.35998
6.30832
6.25755
6.21738
6.1879
6.16343
6.14025
6.11669
6.0927
6.06907
6.04683
6.01089
5.95009
5.8566
5.69936
5.42508
533.188
519.209
5.2176
5.63468
5.91769
6.09899
6.2261
6.32281
6.39618
6.44884
6.48348
6.50391
6.51565
6.51847
6.5125
6.49795
6.47503
6.44401
6.40537
6.36003
6.31103
6.26423
6.22967
6.20513
6.18499
6.16546
6.14465
6.12238
6.09957
6.07703
6.03951
5.97658
5.88051
5.71941
5.43915
533.259
519.214
5.21741
5.63189
5.91261
6.09221
6.21817
6.31406
6.38685
6.4392
6.47392
6.49498
6.5074
6.51095
6.50577
6.4921
6.47018
6.44032
6.40311
6.35965
6.31332
6.27055
6.24127
6.22139
6.20543
6.18961
6.17185
6.15175
6.13029
6.10735
6.06815
6.003
5.90428
5.73925
5.45301
533.327
519.218
5.21707
5.629
5.90748
6.08538
6.21013
6.30512
6.37723
6.42916
6.46387
6.48553
6.49865
6.50298
6.49866
6.48591
6.46502
6.43636
6.40061
6.3591
6.31555
6.27697
6.25248
6.23681
6.22471
6.21248
6.19793
6.18036
6.16066
6.1375
6.09663
6.02926
5.92784
5.75883
5.46663
533.395
519.222
5.21671
5.62619
5.90247
6.07866
6.20215
6.29615
6.36748
6.41889
6.45356
6.4758
6.48965
6.49479
6.49135
6.47957
6.45976
6.43236
6.39816
6.3587
6.31809
6.2839
6.26373
6.25179
6.24311
6.2342
6.22281
6.20801
6.19045
6.16734
6.12499
6.05548
5.95137
5.77835
5.48019
533.461
519.226
5.21643
5.62357
5.89771
6.07218
6.19434
6.28726
6.35767
6.40845
6.44297
6.46578
6.48036
6.48637
6.48389
6.47314
6.45447
6.42839
6.39583
6.35854
6.32101
6.29137
6.27519
6.26655
6.26085
6.25487
6.24642
6.23441
6.21921
6.19645
6.15287
6.08141
5.9747
5.79773
5.4937
533.526
519.231
5.21639
5.62131
5.89334
6.06606
6.18683
6.27856
6.34793
6.39794
6.43222
6.45557
6.47091
6.47784
6.47639
6.46677
6.44933
6.42467
6.39384
6.35884
6.32453
6.29954
6.28713
6.28147
6.27835
6.27487
6.26904
6.25971
6.24698
6.22482
6.18033
6.10715
5.99802
5.8172
5.50738
533.589
519.235
5.21665
5.61947
5.88937
6.0603
6.17961
6.27004
6.33823
6.38732
6.42125
6.4451
6.46121
6.46913
6.4688
6.46039
6.44429
6.42116
6.39219
6.35964
6.32873
6.30847
6.29973
6.29684
6.29594
6.29452
6.29088
6.28391
6.27356
6.25216
6.20702
6.13242
6.02108
5.83662
5.52117
533.651
519.239
5.21735
5.61813
5.88585
6.05491
6.17268
6.2617
6.32855
6.37658
6.41006
6.43436
6.45126
6.46023
6.46112
6.45405
6.43941
6.41793
6.39097
6.36103
6.33373
6.31827
6.31316
6.31294
6.31404
6.31434
6.31246
6.30749
6.29932
6.2787
6.23312
6.15735
6.04404
5.85615
5.5352
533.711
519.244
5.21847
5.61723
5.88267
6.04976
6.16589
6.25338
6.31874
6.36555
6.39845
6.42316
6.44086
6.45094
6.45316
6.44757
6.43453
6.41486
6.39009
6.36299
6.33958
6.32892
6.32744
6.32983
6.3328
6.33454
6.33402
6.33063
6.32433
6.30439
6.25849
6.18174
6.06667
5.87557
5.54928
533.769
519.249
5.22004
5.61674
5.87975
6.04476
6.15913
6.24496
6.3087
6.35413
6.38635
6.41141
6.4299
6.44116
6.44481
6.44083
6.42956
6.41188
6.38952
6.36553
6.34639
6.34044
6.34257
6.34761
6.35244
6.35547
6.35603
6.35382
6.34903
6.32961
6.2834
6.2058
6.08915
5.895
5.56346
533.826
519.254
5.22189
5.61645
5.87688
6.03966
6.15219
6.23624
6.2982
6.34212
6.37351
6.39885
6.41811
6.43058
6.43578
6.43356
6.42423
6.40876
6.38904
6.36849
6.35404
6.35265
6.35833
6.36604
6.37278
6.37711
6.3786
6.37729
6.37365
6.35444
6.30782
6.22939
6.11124
5.91418
5.57748
533.881
519.259
5.22394
5.61622
5.87392
6.03439
6.14497
6.22714
6.2872
6.32947
6.35993
6.38542
6.40537
6.41907
6.4259
6.42557
6.41836
6.40528
6.38841
6.37157
6.36215
6.36523
6.37446
6.38493
6.3937
6.3994
6.40175
6.40111
6.39842
6.37926
6.3321
6.25282
6.13318
5.93324
5.5914
533.935
519.264
5.22596
5.61584
5.87069
6.02879
6.13737
6.21756
6.2756
6.31611
6.34559
6.37096
6.39146
6.40636
6.4149
6.41662
6.4117
6.4012
6.3874
6.37446
6.37027
6.37777
6.39055
6.40388
6.41486
6.42212
6.42552
6.42582
6.42352
6.40405
6.35617
6.27592
6.15477
5.95194
5.60498
533.988
519.269
5.22783
5.61518
5.86715
6.02287
6.12945
6.20762
6.26353
6.30216
6.33059
6.3555
6.37636
6.39239
6.40266
6.40653
6.40407
6.39633
6.38578
6.37695
6.3781
6.38996
6.40629
6.42257
6.43594
6.44504
6.44981
6.45128
6.44919
6.42918
6.38037
6.29904
6.17627
5.97049
5.61833
534.04
519.274
5.22936
5.61408
5.86319
6.01659
6.12121
6.19735
6.25108
6.28769
6.31486
6.33912
6.36016
6.37719
6.38916
6.39525
6.39539
6.39062
6.38354
6.37901
6.38551
6.40166
6.4215
6.44073
6.45662
6.46778
6.47418
6.47702
6.47511
6.4544
6.40451
6.32197
6.19747
5.98865
5.6313
534.092
519.279
5.23046
5.61248
5.85882
6.01001
6.11275
6.18693
6.23848
6.273
6.29876
6.32211
6.34304
6.36088
6.37445
6.38277
6.38563
6.38402
6.38064
6.38067
6.39251
6.41286
6.43611
6.45827
6.47674
6.49018
6.49849
6.50299
6.50136
6.47992
6.42886
6.34499
6.21868
6.00671
5.64409
534.143
519.284
5.23111
5.61037
5.85401
6.00311
6.10409
6.17642
6.22588
6.25835
6.28261
6.30487
6.32544
6.3438
6.35879
6.36928
6.37493
6.37666
6.37729
6.38223
6.39927
6.42365
6.45015
6.47511
6.49613
6.51188
6.52228
6.52863
6.52744
6.50533
6.45308
6.36786
6.23966
6.02448
5.6566
534.194
519.288
5.23131
5.60775
5.84874
5.99584
6.09515
6.16576
6.21327
6.24382
6.26664
6.28771
6.3077
6.32633
6.34248
6.355
6.36343
6.36867
6.3736
6.38388
6.40596
6.43422
6.46382
6.49145
6.51492
6.53303
6.54564
6.55404
6.55343
6.53075
6.47738
6.39081
6.26069
6.04226
5.66912
534.245
519.292
5.2312
5.60471
5.84304
5.98814
6.08586
6.15484
6.20058
6.22942
6.251
6.27097
6.29029
6.30895
6.32601
6.34034
6.35146
6.36025
6.36971
6.38568
6.41265
6.44466
6.47721
6.50733
6.53308
6.55341
6.56823
6.57877
6.57889
6.55579
6.50142
6.41357
6.28156
6.05992
5.68156
534.295
519.296
5.23089
5.60132
5.83685
5.97989
6.07597
6.14337
6.18748
6.21488
6.23558
6.25468
6.27342
6.29203
6.30978
6.32568
6.33931
6.35162
6.3657
6.38757
6.41938
6.4551
6.49055
6.52307
6.55099
6.57344
6.5904
6.60309
6.60401
6.58063
6.52538
6.43632
6.30249
6.07769
5.69416
534.346
519.301
5.23055
5.59769
5.83018
5.97096
6.06529
6.13105
6.17362
6.19988
6.22012
6.2388
6.25724
6.27587
6.29421
6.31148
6.32741
6.34309
6.36179
6.38958
6.42616
6.46556
6.50387
6.53869
6.56862
6.59301
6.61197
6.62676
6.62854
6.60498
6.54899
6.45886
6.32329
6.09543
5.7068
534.396
519.305
5.23032
5.59389
5.82301
5.96123
6.05355
6.1175
6.15851
6.18388
6.20414
6.22294
6.24155
6.26049
6.2795
6.29806
6.31613
6.33505
6.35829
6.39189
6.43315
6.47622
6.5174
6.55451
6.58639
6.61261
6.63344
6.65019
6.65277
6.62909
6.57245
6.48133
6.34412
6.11328
5.71959
534.447
519.311
5.23029
5.58998
5.8153
5.95059
6.04057
6.10242
6.14176
6.16639
6.18713
6.20665
6.22603
6.24575
6.2657
6.28562
6.30581
6.32788
6.35563
6.39476
6.44048
6.48712
6.53113
6.5705
6.60425
6.63213
6.65463
6.67324
6.67658
6.65279
6.59559
6.50356
6.36479
6.13105
5.73233
534.498
519.316
5.23053
5.58597
5.80702
5.93894
6.02616
6.08552
6.12295
6.14691
6.16849
6.18931
6.21012
6.23122
6.25255
6.27411
6.29654
6.32184
6.35421
6.39846
6.44837
6.49842
6.54522
6.58685
6.62245
6.65199
6.67623
6.69635
6.70029
6.67635
6.61859
6.52569
6.38538
6.14878
5.74503
534.549
519.323
5.23097
5.5818
5.79813
5.92624
6.01022
6.06663
6.10184
6.12513
6.14775
6.17032
6.19322
6.21639
6.23969
6.26332
6.28829
6.31704
6.35421
6.40312
6.45684
6.5101
6.5596
6.60347
6.64095
6.6722
6.69827
6.71953
6.72384
6.69966
6.64133
6.54757
6.40575
6.1663
5.7575
534.601
519.329
5.23154
5.57743
5.78864
5.91249
5.99273
6.04563
6.07827
6.10101
6.12448
6.1491
6.17463
6.20052
6.22643
6.25267
6.2806
6.31313
6.35533
6.4086
6.4659
6.52221
6.57434
6.62047
6.65992
6.69294
6.72085
6.74306
6.74754
6.72296
6.66398
6.56931
6.42594
6.18358
5.7697
534.654
519.336
5.23215
5.57284
5.77859
5.89778
5.97373
6.02246
6.05192
6.07379
6.09812
6.1251
6.1538
6.18304
6.21219
6.2416
6.27294
6.30958
6.35699
6.41447
6.47521
6.53446
6.58917
6.63758
6.67903
6.7139
6.74365
6.7667
6.77119
6.74612
6.68641
6.59079
6.44582
6.20051
5.7815
534.707
519.343
5.23272
5.56806
5.76812
5.88229
5.95343
5.9973
6.02292
6.04339
6.06849
6.09802
6.13027
6.16338
6.19635
6.2295
6.26475
6.3059
6.35868
6.42036
6.4845
6.54668
6.604
6.65477
6.69835
6.73516
6.76679
6.79062
6.79499
6.76926
6.70872
6.61206
6.46541
6.21706
5.79289
534.762
519.35
5.23332
5.56322
5.75743
5.86627
5.93209
5.97044
5.99155
6.01013
6.03572
6.06778
6.10381
6.1412
6.17848
6.2159
6.25557
6.30167
6.35995
6.42583
6.49336
6.55844
6.61839
6.67157
6.71737
6.75623
6.78982
6.81444
6.81864
6.79222
6.73079
6.63303
6.48464
6.23318
5.80382
534.818
519.357
5.23399
5.55849
5.74676
5.85
5.90997
5.94204
5.95784
5.97386
5.99956
6.03408
6.07408
6.11612
6.15821
6.20044
6.24505
6.29661
6.36047
6.4306
6.50156
6.56962
6.63228
6.68799
6.73614
6.77718
6.81283
6.83822
6.8422
6.81499
6.7526
6.65367
6.50345
6.24881
5.81427
534.875
519.364
5.23484
5.55404
5.73639
5.83383
5.88749
5.91256
5.92219
5.93481
5.96006
5.99681
6.04087
6.08787
6.13523
6.1828
6.23296
6.29056
6.35994
6.4343
6.50869
6.57975
6.64516
6.70348
6.75409
6.79746
6.8353
6.86157
6.86538
6.83742
6.77408
6.67397
6.52189
6.26403
5.82434
534.933
519.371
5.23595
5.55002
5.72659
5.81817
5.86513
5.88249
5.88503
5.89327
5.91729
5.95586
6.00392
6.0561
6.10912
6.16256
6.21885
6.2831
6.35805
6.43671
6.51463
6.58879
6.65707
6.7181
6.77131
6.81712
6.85723
6.88443
6.88808
6.85938
6.79509
6.69376
6.53979
6.27871
5.83394
534.993
519.379
5.23727
5.54652
5.71761
5.80342
5.84345
5.85246
5.84696
5.8497
5.87152
5.91131
5.96314
6.02059
6.07958
6.13933
6.20224
6.27362
6.35425
6.43733
6.5189
6.59627
6.66753
6.73141
6.78735
6.83576
6.8783
6.90654
6.91015
6.88081
6.81563
6.71315
6.55733
6.29306
5.84329
535.052
519.386
5.23896
5.5438
5.70969
5.78982
5.82282
5.82312
5.80866
5.80473
5.82324
5.86338
5.91854
5.98117
6.0463
6.11267
6.18263
6.26154
6.34811
6.43586
6.52131
6.60208
6.67648
6.74332
6.80209
6.85322
6.89829
6.9277
6.93136
6.90146
6.83547
6.73187
6.57423
6.30683
5.8522
535.112
519.393
5.24121
5.54202
5.70297
5.77752
5.8034
5.79466
5.77071
5.75906
5.77313
5.81265
5.87052
5.93811
6.00943
6.08265
6.15995
6.24664
6.33932
6.43195
6.52149
6.60588
6.6836
6.75363
6.81554
6.86986
6.91726
6.94786
6.95171
6.92141
6.85475
6.75015
6.5908
6.32039
5.86098
535.172
519.401
5.24432
5.54138
5.69754
5.7666
5.78531
5.76728
5.73332
5.71333
5.7218
5.75964
5.81944
5.8916
5.96906
6.04929
6.1342
6.22886
6.32786
6.42563
6.51951
6.60775
6.68903
6.76246
6.8277
6.88536
6.93506
6.96684
6.97092
6.94031
6.87306
6.76754
6.60655
6.33324
5.86925
535.233
519.41
5.24856
5.54198
5.69334
5.75689
5.76834
5.74082
5.69655
5.66763
5.66991
5.70519
5.76617
5.84242
5.92585
6.01311
6.1058
6.20838
6.31376
6.41679
6.5152
6.60749
6.69255
6.76958
6.83837
6.89954
6.95165
6.98472
6.98919
6.95846
6.8908
6.78451
6.62204
6.34596
5.87742
535.292
519.421
5.25414
5.54384
5.69026
5.74819
5.75219
5.71493
5.66008
5.62191
5.6175
5.64963
5.71117
5.79106
5.88023
5.97457
6.07525