/*--------------------------------*- C++ -*----------------------------------*\
| =========                 |                                                 |
| \\      /  F ield         | OpenFOAM: The Open Source CFD Toolbox           |
|  \\    /   O peration     | Version:  v1906                                 |
|   \\  /    A nd           | Web:      www.OpenFOAM.com                      |
|    \\/     M anipulation  |                                                 |
\*---------------------------------------------------------------------------*/
FoamFile
{
    version     2.0;
    format      ascii;
    class       surfaceScalarField;
    location    "4.8/oil";
    object      phi;
}
// * * * * * * * * * * * * * * * * * * * * * * * * * * * * * * * * * * * * * //

dimensions      [1 0 -1 0 0 0 0];
oriented        oriented;


internalField   nonuniform List<scalar> 
80688
(
-3.15459e-06
-3.20901e-06
-3.15459e-06
-1.42709e-06
-8.92612e-07
-8.34896e-07
-3.93844e-07
-5.18838e-07
-5.14403e-07
-2.03072e-07
-9.48025e-08
-9.597e-08
-9.57447e-08
-5.33359e-08
-5.39911e-08
-4.79972e-08
-2.38483e-08
-2.38993e-08
-2.50471e-08
-1.16099e-08
-1.13401e-08
-1.3626e-08
-5.91914e-09
-5.50201e-09
-7.70584e-09
-3.20321e-09
-2.7169e-09
-4.53479e-09
-1.84686e-09
-1.32417e-09
-2.80325e-09
-1.13849e-09
-5.93037e-10
-1.86305e-09
-7.51051e-10
-1.89136e-10
-1.37819e-09
-5.29679e-10
4.48182e-11
-1.16254e-09
-3.99328e-10
1.83683e-10
-1.10563e-09
-3.22294e-10
2.65389e-10
-1.13626e-09
-2.78713e-10
3.09347e-10
-1.20545e-09
-2.57461e-10
3.26655e-10
-1.27803e-09
-2.51805e-10
3.24389e-10
-1.32964e-09
-2.56681e-10
3.08293e-10
-1.34466e-09
-2.68117e-10
2.83146e-10
-1.3158e-09
-2.82379e-10
2.53527e-10
-1.24249e-09
-2.96535e-10
2.23225e-10
-1.12925e-09
-3.08488e-10
1.95254e-10
-9.83494e-10
-3.17396e-10
1.7164e-10
-8.13246e-10
-3.23751e-10
1.53507e-10
-6.26158e-10
-3.28501e-10
1.41416e-10
-4.30691e-10
-3.30982e-10
1.35521e-10
-2.40126e-10
-3.24849e-10
1.34288e-10
-8.08871e-11
-2.87924e-10
1.2869e-10
-1.7058e-10
8.9696e-11
-8.51685e-07
-1.50564e-06
-8.51683e-07
-5.17128e-07
-5.40086e-07
-6.87084e-07
-3.81522e-07
-3.55461e-07
-2.98983e-07
-2.07746e-07
-1.43378e-07
-1.252e-07
-1.15013e-07
-7.81456e-08
-6.79233e-08
-6.56783e-08
-3.92083e-08
-3.39743e-08
-3.83645e-08
-2.13058e-08
-1.76179e-08
-2.3062e-08
-1.1983e-08
-9.23861e-09
-1.42683e-08
-7.12416e-09
-4.87276e-09
-9.11777e-09
-4.47543e-09
-2.52191e-09
-6.07007e-09
-2.98135e-09
-1.20483e-09
-4.27974e-09
-2.10535e-09
-4.36016e-10
-3.2639e-09
-1.57525e-09
2.97358e-11
-2.73223e-09
-1.2474e-09
3.16407e-10
-2.49966e-09
-1.04493e-09
4.9007e-10
-2.44112e-09
-9.23964e-10
5.86718e-10
-2.46778e-09
-8.58495e-10
6.277e-10
-2.515e-09
-8.31754e-10
6.27175e-10
-2.53739e-09
-8.31028e-10
5.9674e-10
-2.50585e-09
-8.45853e-10
5.46203e-10
-2.40645e-09
-8.67117e-10
4.8534e-10
-2.23781e-09
-8.87704e-10
4.22526e-10
-2.00794e-09
-9.03465e-10
3.65117e-10
-1.73002e-09
-9.1396e-10
3.18644e-10
-1.41865e-09
-9.21906e-10
2.86792e-10
-1.08765e-09
-9.30405e-10
2.70909e-10
-7.51113e-10
-9.3667e-10
2.69153e-10
-4.28497e-10
-9.20346e-10
2.72887e-10
-1.54266e-10
-8.19717e-10
2.57567e-10
-4.87171e-10
1.62328e-10
-5.33683e-07
-4.38275e-07
-5.3368e-07
-3.67754e-07
-3.96416e-07
-3.09599e-07
-2.63247e-07
-2.61651e-07
-1.98317e-07
-1.62782e-07
-1.37057e-07
-1.06786e-07
-1.01237e-07
-7.98992e-08
-5.97919e-08
-6.30017e-08
-4.50661e-08
-3.23771e-08
-3.97576e-08
-2.67018e-08
-1.78481e-08
-2.55509e-08
-1.62923e-08
-9.89742e-09
-1.67793e-08
-1.04005e-08
-5.49524e-09
-1.13112e-08
-6.95342e-09
-2.99014e-09
-7.89492e-09
-4.88417e-09
-1.51343e-09
-5.78255e-09
-3.60533e-09
-6.12386e-10
-4.51501e-09
-2.79649e-09
-4.62954e-11
-3.79738e-09
-2.27788e-09
3.12848e-10
-3.43111e-09
-1.94659e-09
5.35396e-10
-3.27624e-09
-1.74081e-09
6.61986e-10
-3.23048e-09
-1.62186e-09
7.17614e-10
-3.2174e-09
-1.56398e-09
7.19149e-10
-3.18303e-09
-1.54667e-09
6.81272e-10
-3.09218e-09
-1.55324e-09
6.16535e-10
-2.92822e-09
-1.56899e-09
5.37923e-10
-2.68942e-09
-1.58325e-09
4.56754e-10
-2.38577e-09
-1.59076e-09
3.83651e-10
-2.03357e-09
-1.59289e-09
3.26726e-10
-1.65108e-09
-1.59619e-09
2.91796e-10
-1.25564e-09
-1.6069e-09
2.81063e-10
-8.63774e-10
-1.61976e-09
2.91227e-10
-4.95313e-10
-1.59749e-09
3.08687e-10
-1.82289e-10
-1.43256e-09
2.99823e-10
-8.58691e-10
1.89235e-10
-1.07496e-07
-2.23286e-07
-1.07494e-07
-1.53028e-07
-2.1873e-07
-1.32153e-07
-1.3976e-07
-1.66294e-07
-1.08625e-07
-1.03342e-07
-1.04867e-07
-6.86074e-08
-7.29878e-08
-6.77701e-08
-4.24834e-08
-5.0169e-08
-4.2625e-08
-2.526e-08
-3.43685e-08
-2.75303e-08
-1.49721e-08
-2.36566e-08
-1.81692e-08
-8.8349e-09
-1.64747e-08
-1.24131e-08
-5.16941e-09
-1.16861e-08
-8.80211e-09
-2.93988e-09
-8.52473e-09
-6.49935e-09
-1.54617e-09
-6.47657e-09
-5.00194e-09
-6.51548e-10
-5.19311e-09
-4.01376e-09
-6.61836e-11
-4.43092e-09
-3.35703e-09
3.16967e-10
-4.01299e-09
-2.92368e-09
5.59164e-10
-3.80802e-09
-2.644e-09
6.98217e-10
-3.71556e-09
-2.47276e-09
7.58438e-10
-3.65777e-09
-2.37856e-09
7.56798e-10
-3.57835e-09
-2.33541e-09
7.09325e-10
-3.4404e-09
-2.32156e-09
6.3038e-10
-3.22654e-09
-2.31808e-09
5.35235e-10
-2.93585e-09
-2.31188e-09
4.37941e-10
-2.57997e-09
-2.29801e-09
3.51375e-10
-2.17786e-09
-2.28086e-09
2.85868e-10
-1.75066e-09
-2.27219e-09
2.48808e-10
-1.31833e-09
-2.2823e-09
2.43065e-10
-8.99247e-10
-2.30343e-09
2.64598e-10
-5.12859e-10
-2.28092e-09
2.97041e-10
-1.88881e-10
-2.05857e-09
3.02038e-10
-1.24432e-09
1.96746e-10
-5.86303e-08
-1.06027e-07
-5.86278e-08
-8.26027e-08
-1.23146e-07
-7.16121e-08
-8.11025e-08
-1.06363e-07
-6.14312e-08
-6.63521e-08
-7.66331e-08
-4.29842e-08
-5.11287e-08
-5.42949e-08
-2.86985e-08
-3.79583e-08
-3.7431e-08
-1.83644e-08
-2.77945e-08
-2.61134e-08
-1.15806e-08
-2.02642e-08
-1.84939e-08
-7.20572e-09
-1.48365e-08
-1.34471e-08
-4.39371e-09
-1.09985e-08
-1.00768e-08
-2.56327e-09
-8.34314e-09
-7.80799e-09
-1.34672e-09
-6.55947e-09
-6.26311e-09
-5.22492e-10
-5.40965e-09
-5.20365e-09
4.00728e-11
-4.71109e-09
-4.47544e-09
4.1986e-10
-4.31925e-09
-3.97868e-09
6.63171e-10
-4.12019e-09
-3.64506e-09
8.02003e-10
-4.02257e-09
-3.42783e-09
8.57449e-10
-3.95191e-09
-3.29403e-09
8.44819e-10
-3.85297e-09
-3.21506e-09
7.80714e-10
-3.68894e-09
-3.16655e-09
6.80966e-10
-3.44316e-09
-3.12732e-09
5.63461e-10
-3.11605e-09
-3.08365e-09
4.44657e-10
-2.7216e-09
-3.03215e-09
3.39692e-10
-2.28133e-09
-2.98198e-09
2.60847e-10
-1.8192e-09
-2.95095e-09
2.16643e-10
-1.35791e-09
-2.95396e-09
2.10368e-10
-9.17723e-10
-2.98112e-09
2.37505e-10
-5.1877e-10
-2.95985e-09
2.79983e-10
-1.89675e-10
-2.68423e-09
2.96574e-10
-1.63352e-09
1.9953e-10
-2.59227e-08
-5.41842e-08
-2.59205e-08
-4.07597e-08
-7.2406e-08
-3.59027e-08
-4.49158e-08
-6.87178e-08
-3.3489e-08
-4.08087e-08
-5.49829e-08
-2.57573e-08
-3.42603e-08
-4.2327e-08
-1.85163e-08
-2.73636e-08
-3.16392e-08
-1.26885e-08
-2.13107e-08
-2.36999e-08
-8.46647e-09
-1.63746e-08
-1.79266e-08
-5.50334e-09
-1.25452e-08
-1.38353e-08
-3.44122e-09
-9.68175e-09
-1.09436e-08
-1.99665e-09
-7.6193e-09
-8.89964e-09
-9.70801e-10
-6.19813e-09
-7.44921e-09
-2.35069e-10
-5.27209e-09
-6.41862e-09
2.8894e-10
-4.71369e-09
-5.68644e-09
6.52598e-10
-4.41022e-09
-5.16903e-09
8.86885e-10
-4.26791e-09
-4.80435e-09
1.01698e-09
-4.20709e-09
-4.5487e-09
1.06006e-09
-4.15778e-09
-4.37145e-09
1.02812e-09
-4.06721e-09
-4.24425e-09
9.38614e-10
-3.89932e-09
-4.14315e-09
8.0871e-10
-3.6389e-09
-4.0472e-09
6.59465e-10
-3.28846e-09
-3.94413e-09
5.10052e-10
-2.86481e-09
-3.83443e-09
3.78625e-10
-2.3924e-09
-3.73315e-09
2.78776e-10
-1.89835e-09
-3.66495e-09
2.19942e-10
-1.40808e-09
-3.6497e-09
2.05481e-10
-9.44424e-10
-3.67512e-09
2.30355e-10
-5.29084e-10
-3.65048e-09
2.75302e-10
-1.91444e-10
-3.31876e-09
2.96887e-10
-2.02832e-09
2.03365e-10
-1.22345e-08
-2.97169e-08
-1.22328e-08
-2.13775e-08
-4.46395e-08
-1.86235e-08
-2.56589e-08
-4.58909e-08
-1.85455e-08
-2.52837e-08
-4.00004e-08
-1.53577e-08
-2.27489e-08
-3.31073e-08
-1.17545e-08
-1.92995e-08
-2.65626e-08
-8.52598e-09
-1.58257e-08
-2.12271e-08
-5.94658e-09
-1.27129e-08
-1.70699e-08
-3.96961e-09
-1.01279e-08
-1.39461e-08
-2.47411e-09
-8.10165e-09
-1.16281e-08
-1.3417e-09
-6.60127e-09
-9.92021e-09
-4.798e-10
-5.56029e-09
-8.66454e-09
1.7436e-10
-4.89499e-09
-7.74317e-09
6.59263e-10
-4.51864e-09
-7.06633e-09
1.00354e-09
-4.34383e-09
-6.56781e-09
1.22397e-09
-4.29489e-09
-6.19348e-09
1.34019e-09
-4.30357e-09
-5.90545e-09
1.36544e-09
-4.30392e-09
-5.67842e-09
1.30733e-09
-4.24532e-09
-5.48722e-09
1.18437e-09
-4.09217e-09
-5.31123e-09
1.01494e-09
-3.83115e-09
-5.1325e-09
8.24281e-10
-3.46737e-09
-4.94324e-09
6.35326e-10
-3.02106e-09
-4.7497e-09
4.68972e-10
-2.52017e-09
-4.57449e-09
3.40451e-10
-1.99507e-09
-4.4498e-09
2.59753e-10
-1.47427e-09
-4.4004e-09
2.29907e-10
-9.83399e-10
-4.41112e-09
2.45127e-10
-5.4673e-10
-4.37228e-09
2.85131e-10
-1.95699e-10
-3.97467e-09
3.04886e-10
-2.43311e-09
2.09091e-10
-5.927e-09
-1.78643e-08
-5.9256e-09
-1.1353e-08
-2.94082e-08
-9.80526e-09
-1.47303e-08
-3.21574e-08
-1.03563e-08
-1.55876e-08
-3.00095e-08
-9.13367e-09
-1.48947e-08
-2.64233e-08
-7.37686e-09
-1.33086e-08
-2.25523e-08
-5.59628e-09
-1.14041e-08
-1.91167e-08
-4.01486e-09
-9.51561e-09
-1.62766e-08
-2.68184e-09
-7.84402e-09
-1.40373e-08
-1.58041e-09
-6.48535e-09
-1.23107e-08
-6.7599e-10
-5.47014e-09
-1.09967e-08
6.12438e-11
-4.78405e-09
-1.00025e-08
6.51869e-10
-4.38068e-09
-9.25114e-09
1.1046e-09
-4.19975e-09
-8.6779e-09
1.43065e-09
-4.17139e-09
-8.23103e-09
1.63487e-09
-4.2349e-09
-7.86479e-09
1.73483e-09
-4.33208e-09
-7.54794e-09
1.73967e-09
-4.39965e-09
-7.26213e-09
1.65128e-09
-4.38821e-09
-6.98792e-09
1.48926e-09
-4.26203e-09
-6.71107e-09
1.27367e-09
-4.00978e-09
-6.4196e-09
1.03486e-09
-3.63971e-09
-6.11307e-09
7.99758e-10
-3.17575e-09
-5.80614e-09
5.92487e-10
-2.64983e-09
-5.53042e-09
4.30018e-10
-2.09579e-09
-5.32637e-09
3.22532e-10
-1.54517e-09
-5.22343e-09
2.72402e-10
-1.02643e-09
-5.20271e-09
2.7286e-10
-5.66829e-10
-5.13454e-09
3.02656e-10
-2.00715e-10
-4.65657e-09
3.15789e-10
-2.84847e-09
2.14647e-10
-2.95502e-09
-1.19552e-08
-2.95401e-09
-6.17213e-09
-2.09365e-08
-5.2546e-09
-8.55833e-09
-2.39212e-08
-5.84999e-09
-9.60967e-09
-2.35206e-08
-5.43763e-09
-9.65103e-09
-2.17985e-08
-4.58347e-09
-8.99881e-09
-1.96235e-08
-3.58108e-09
-7.99498e-09
-1.75381e-08
-2.58238e-09
-6.8862e-09
-1.57334e-08
-1.65188e-09
-5.8486e-09
-1.42651e-08
-8.09832e-10
-4.99063e-09
-1.3107e-08
-6.17658e-11
-4.36585e-09
-1.22091e-08
5.87716e-10
-3.98437e-09
-1.1516e-08
1.13201e-09
-3.81817e-09
-1.0976e-08
1.55871e-09
-3.82206e-09
-1.05413e-08
1.86727e-09
-3.93641e-09
-1.01707e-08
2.05407e-09
-4.11251e-09
-9.82556e-09
2.13688e-09
-4.30129e-09
-9.48107e-09
2.12191e-09
-4.44039e-09
-9.1264e-09
2.00337e-09
-4.48079e-09
-8.74978e-09
1.80227e-09
-4.3861e-09
-8.34512e-09
1.53936e-09
-4.14698e-09
-7.90952e-09
1.25081e-09
-3.77497e-09
-7.45343e-09
9.68356e-10
-3.29819e-09
-7.00244e-09
7.1952e-10
-2.75261e-09
-6.59864e-09
5.22642e-10
-2.17524e-09
-6.29133e-09
3.87585e-10
-1.60031e-09
-6.11416e-09
3.15813e-10
-1.05882e-09
-6.04396e-09
2.99764e-10
-5.80729e-10
-5.92995e-09
3.17329e-10
-2.03222e-10
-5.35633e-09
3.2226e-10
-3.26835e-09
2.16658e-10
-1.50217e-09
-8.95145e-09
-1.5016e-09
-3.39587e-09
-1.61878e-08
-2.85497e-09
-4.98905e-09
-1.89935e-08
-3.33449e-09
-5.88986e-09
-1.93845e-08
-3.23523e-09
-6.1668e-09
-1.87108e-08
-2.81072e-09
-5.95648e-09
-1.76149e-08
-2.21889e-09
-5.4526e-09
-1.64883e-08
-1.55372e-09
-4.82534e-09
-1.54918e-08
-8.68856e-10
-4.21325e-09
-1.46825e-08
-1.94646e-10
-3.7151e-09
-1.40524e-08
4.47303e-10
-3.3879e-09
-1.35704e-08
1.03402e-09
-3.24926e-09
-1.3197e-08
1.54241e-09
-3.27875e-09
-1.28925e-08
1.94598e-09
-3.43812e-09
-1.26182e-08
2.23632e-09
-3.67303e-09
-1.23392e-08
2.40336e-09
-3.94456e-09
-1.20233e-08
2.46932e-09
-4.21214e-09
-1.16516e-08
2.43816e-09
-4.41317e-09
-1.12194e-08
2.29405e-09
-4.49867e-09
-1.07232e-08
2.05893e-09
-4.43194e-09
-1.01665e-08
1.75467e-09
-4.20554e-09
-9.55921e-09
1.42329e-09
-3.83453e-09
-8.92459e-09
1.10016e-09
-3.35113e-09
-8.30195e-09
8.16122e-10
-2.79451e-09
-7.74556e-09
5.903e-10
-2.20429e-09
-7.31373e-09
4.32194e-10
-1.61661e-09
-7.044e-09
3.42164e-10
-1.06432e-09
-6.90761e-09
3.11369e-10
-5.79071e-10
-6.73299e-09
3.17791e-10
-1.99842e-10
-6.0522e-09
3.16643e-10
-3.68e-09
2.11814e-10
-7.71571e-10
-7.40833e-09
-7.71544e-10
-1.88115e-09
-1.3513e-08
-1.56524e-09
-2.91042e-09
-1.60534e-08
-1.91081e-09
-3.5882e-09
-1.67881e-08
-1.91865e-09
-3.8925e-09
-1.67107e-08
-1.69579e-09
-3.87402e-09
-1.63123e-08
-1.32112e-09
-3.64032e-09
-1.58726e-08
-8.49382e-10
-3.30381e-09
-1.55087e-08
-3.19605e-10
-2.96946e-09
-1.52567e-08
2.39821e-10
-2.71942e-09
-1.51041e-08
8.01662e-10
-2.60483e-09
-1.50193e-08
1.33438e-09
-2.64352e-09
-1.49647e-08
1.80635e-09
-2.81641e-09
-1.49014e-08
2.18178e-09
-3.08774e-09
-1.47947e-08
2.44783e-09
-3.40603e-09
-1.46126e-08
2.59167e-09
-3.74104e-09
-1.43299e-08
2.64162e-09
-4.05963e-09
-1.39326e-08
2.5995e-09
-4.29949e-09
-1.34193e-08
2.43971e-09
-4.41286e-09
-1.27941e-08
2.18433e-09
-4.36329e-09
-1.20709e-08
1.8548e-09
-4.14556e-09
-1.12743e-08
1.49734e-09
-3.77835e-09
-1.04424e-08
1.15057e-09
-3.29694e-09
-9.63059e-09
8.47234e-10
-2.74243e-09
-8.90609e-09
6.06014e-10
-2.15567e-09
-8.33612e-09
4.35629e-10
-1.57338e-09
-7.9615e-09
3.35218e-10
-1.02853e-09
-7.74804e-09
2.95583e-10
-5.53544e-10
-7.50346e-09
2.95482e-10
-1.87654e-10
-6.71092e-09
2.92832e-10
-4.06502e-09
1.97369e-10
-3.99617e-10
-6.6085e-09
-4.00209e-10
-1.05105e-09
-1.19928e-08
-8.6868e-10
-1.70809e-09
-1.429e-08
-1.1064e-09
-2.1925e-09
-1.51622e-08
-1.14146e-09
-2.45899e-09
-1.54307e-08
-1.01354e-09
-2.52006e-09
-1.54919e-08
-7.59317e-10
-2.43375e-09
-1.55498e-08
-4.09091e-10
-2.27378e-09
-1.56804e-08
1.17425e-11
-2.11772e-09
-1.58923e-08
4.79588e-10
-2.03035e-09
-1.6159e-08
9.67558e-10
-2.05432e-09
-1.64378e-08
1.44247e-09
-2.20527e-09
-1.6683e-08
1.86928e-09
-2.4633e-09
-1.68512e-08
2.20785e-09
-2.7952e-09
-1.69063e-08
2.44344e-09
-3.152e-09
-1.68181e-08
2.56235e-09
-3.5096e-09
-1.65694e-08
2.59705e-09
-3.84121e-09
-1.61495e-08
2.54858e-09
-4.08721e-09
-1.55566e-08
2.38336e-09
-4.20212e-09
-1.48024e-08
2.1232e-09
-4.15233e-09
-1.39106e-08
1.78994e-09
-3.93708e-09
-1.2921e-08
1.43153e-09
-3.57682e-09
-1.18894e-08
1.08678e-09
-3.10835e-09
-1.08865e-08
7.87474e-10
-2.57304e-09
-9.99223e-09
5.50831e-10
-2.01059e-09
-9.28264e-09
3.84084e-10
-1.45625e-09
-8.80096e-09
2.85124e-10
-9.42032e-10
-8.50718e-09
2.44926e-10
-4.99222e-10
-8.19084e-09
2.4458e-10
-1.64766e-10
-7.29246e-09
2.47094e-10
-4.40148e-09
1.71696e-10
-2.14145e-10
-6.17897e-09
-2.15385e-10
-6.09674e-10
-1.10967e-08
-5.00632e-10
-1.04173e-09
-1.3194e-08
-6.63916e-10
-1.39395e-09
-1.41082e-08
-7.01758e-10
-1.62281e-09
-1.45772e-08
-6.24587e-10
-1.72366e-09
-1.49429e-08
-4.4809e-10
-1.72689e-09
-1.53582e-08
-1.88396e-10
-1.68055e-09
-1.58655e-08
1.38746e-10
-1.63907e-09
-1.64485e-08
5.1473e-10
-1.65219e-09
-1.70628e-08
9.16919e-10
-1.75363e-09
-1.76512e-08
1.31486e-09
-1.9551e-09
-1.81564e-08
1.67489e-09
-2.23889e-09
-1.85265e-08
1.95907e-09
-2.57528e-09
-1.87228e-08
2.15294e-09
-2.92028e-09
-1.87173e-08
2.24415e-09
-3.25369e-09
-1.85e-08
2.26408e-09
-3.55326e-09
-1.80631e-08
2.21319e-09
-3.76457e-09
-1.74028e-08
2.05749e-09
-3.84911e-09
-1.65351e-08
1.81721e-09
-3.78016e-09
-1.54926e-08
1.51302e-09
-3.56044e-09
-1.43304e-08
1.18968e-09
-3.21217e-09
-1.31198e-08
8.82152e-10
-2.77086e-09
-1.1946e-08
6.18188e-10
-2.27509e-09
-1.09005e-08
4.1247e-10
-1.76078e-09
-1.00666e-08
2.69623e-10
-1.26012e-09
-9.48874e-09
1.87115e-10
-8.01742e-10
-9.12275e-09
1.57193e-10
-4.1418e-10
-8.74292e-09
1.6452e-10
-1.30899e-10
-7.75518e-09
1.79439e-10
-4.66721e-09
1.3483e-10
-1.30554e-10
-5.91576e-09
-1.32645e-10
-3.98161e-10
-1.05065e-08
-3.22583e-10
-7.119e-10
-1.24392e-08
-4.41095e-10
-9.95166e-10
-1.33467e-08
-4.78281e-10
-1.21019e-09
-1.39265e-08
-4.35707e-10
-1.34621e-09
-1.44868e-08
-3.20068e-10
-1.41693e-09
-1.5148e-08
-1.39495e-10
-1.45104e-09
-1.59271e-08
9.56805e-11
-1.48437e-09
-1.67878e-08
3.72641e-10
-1.55224e-09
-1.76695e-08
6.7455e-10
-1.68003e-09
-1.85014e-08
9.78005e-10
-1.87766e-09
-1.92158e-08
1.25706e-09
-2.13363e-09
-1.97516e-08
1.48102e-09
-2.42417e-09
-2.00664e-08
1.63414e-09
-2.71437e-09
-2.01312e-08
1.70418e-09
-2.98304e-09
-1.99413e-08
1.7099e-09
-3.2079e-09
-1.94903e-08
1.65204e-09
-3.34576e-09
-1.87736e-08
1.50865e-09
-3.36844e-09
-1.78134e-08
1.30099e-09
-3.25998e-09
-1.66503e-08
1.04928e-09
-3.02833e-09
-1.53521e-08
7.90015e-10
-2.69638e-09
-1.40025e-08
5.50689e-10
-2.29566e-09
-1.26977e-08
3.50965e-10
-1.85876e-09
-1.15373e-08
1.99945e-10
-1.41559e-09
-1.06095e-08
9.97519e-11
-9.923e-10
-9.95953e-09
4.75063e-11
-6.12926e-10
-9.53933e-09
3.72095e-11
-3.02232e-10
-9.11264e-09
5.90329e-11
-8.72272e-11
-8.06296e-09
9.27765e-11
-4.8427e-09
8.82664e-11
-1.04729e-10
-5.70358e-09
-1.07447e-10
-3.25537e-10
-1.0029e-08
-2.56674e-10
-5.96006e-10
-1.18158e-08
-3.52857e-10
-8.62765e-10
-1.26859e-08
-3.94043e-10
-1.09416e-09
-1.33123e-08
-3.82727e-10
-1.27613e-09
-1.39811e-08
-3.23743e-10
-1.4109e-09
-1.47901e-08
-2.231e-10
-1.51188e-09
-1.57382e-08
-8.79332e-11
-1.59863e-09
-1.67749e-08
7.37737e-11
-1.69279e-09
-1.78275e-08
2.52158e-10
-1.81182e-09
-1.88164e-08
4.34001e-10
-1.96386e-09
-1.9667e-08
6.03177e-10
-2.14575e-09
-2.03113e-08
7.41665e-10
-2.34344e-09
-2.07056e-08
8.36956e-10
-2.53391e-09
-2.08199e-08
8.79137e-10
-2.69469e-09
-2.06511e-08
8.70623e-10
-2.80413e-09
-2.01948e-08
8.13958e-10
-2.8333e-09
-1.94479e-08
7.03556e-10
-2.76861e-09
-1.84372e-08
5.59139e-10
-2.60719e-09
-1.72089e-08
3.97164e-10
-2.36175e-09
-1.58385e-08
2.40972e-10
-2.05375e-09
-1.44156e-08
1.05106e-10
-1.70797e-09
-1.30428e-08
-7.14107e-13
-1.3478e-09
-1.18241e-08
-7.33563e-11
-9.95205e-10
-1.08484e-08
-1.13662e-10
-6.68772e-10
-1.01623e-08
-1.23669e-10
-3.87296e-10
-9.71492e-09
-1.05877e-10
-1.6979e-10
-9.26619e-09
-6.39535e-11
-3.64556e-11
-8.18926e-09
-7.024e-12
-4.91416e-09
3.50069e-11
-1.11053e-10
-5.47819e-09
-1.14336e-10
-3.33785e-10
-9.551e-09
-2.55257e-10
-6.10105e-10
-1.11953e-08
-3.44232e-10
-8.97472e-10
-1.20049e-08
-3.93605e-10
-1.16851e-09
-1.26294e-08
-4.11933e-10
-1.40659e-09
-1.33368e-08
-4.06245e-10
-1.60498e-09
-1.42092e-08
-3.82508e-10
-1.76413e-09
-1.52335e-08
-3.45544e-10
-1.88955e-09
-1.63503e-08
-2.99179e-10
-1.98967e-09
-1.74812e-08
-2.46192e-10
-2.07437e-09
-1.85435e-08
-1.88183e-10
-2.15297e-09
-1.94605e-08
-1.27842e-10
-2.23195e-09
-2.0163e-08
-6.93769e-11
-2.30897e-09
-2.06041e-08
-2.45392e-11
-2.37418e-09
-2.07507e-08
-4.02695e-12
-2.40347e-09
-2.05974e-08
-2.44654e-11
-2.37511e-09
-2.01417e-08
-8.14824e-11
-2.27641e-09
-1.93856e-08
-1.61016e-10
-2.11017e-09
-1.83624e-08
-2.41094e-10
-1.88774e-09
-1.71233e-08
-3.08039e-10
-1.62744e-09
-1.57452e-08
-3.53592e-10
-1.34692e-09
-1.43195e-08
-3.76608e-10
-1.06277e-09
-1.29472e-08
-3.7969e-10
-7.89289e-10
-1.17308e-08
-3.66773e-10
-5.37397e-10
-1.07591e-08
-3.41222e-10
-3.184e-10
-1.00766e-08
-3.04717e-10
-1.43862e-10
-9.63325e-09
-2.56212e-10
-2.78861e-11
-9.18961e-09
-1.9255e-10
1.74725e-11
-8.12348e-09
-1.11133e-10
-4.87589e-09
-2.07906e-11
-1.33906e-10
-5.20676e-09
-1.37514e-10
-3.85965e-10
-9.01112e-09
-2.87818e-10
-6.95117e-10
-1.05081e-08
-3.78062e-10
-1.02483e-09
-1.12373e-08
-4.37828e-10
-1.34916e-09
-1.18211e-08
-4.8393e-10
-1.64945e-09
-1.2509e-08
-5.27519e-10
-1.91155e-09
-1.33707e-08
-5.76381e-10
-2.12499e-09
-1.43851e-08
-6.34912e-10
-2.28257e-09
-1.54889e-08
-7.03795e-10
-2.38093e-09
-1.66037e-08
-7.79105e-10
-2.42285e-09
-1.76498e-08
-8.5184e-10
-2.41655e-09
-1.85538e-08
-9.13047e-10
-2.37714e-09
-1.92506e-08
-9.51832e-10
-2.31361e-09
-1.96936e-08
-9.74023e-10
-2.23076e-09
-1.98483e-08
-9.8516e-10
-2.10754e-09
-1.97056e-08
-1.01501e-09
-1.92681e-09
-1.92646e-08
-1.05781e-09
-1.69336e-09
-1.85346e-08
-1.08451e-09
-1.42507e-09
-1.75526e-08
-1.07808e-09
-1.14593e-09
-1.63707e-08
-1.03171e-09
-8.7589e-10
-1.50616e-08
-9.53664e-10
-6.28817e-10
-1.37107e-08
-8.55837e-10
-4.11933e-10
-1.24124e-08
-7.51676e-10
-2.28411e-10
-1.12632e-08
-6.51124e-10
-7.99063e-11
-1.0348e-08
-5.59587e-10
3.05965e-11
-9.70978e-09
-4.77281e-10
9.72569e-11
-9.30083e-09
-3.99072e-10
1.12113e-10
-8.88948e-09
-3.14986e-10
7.0385e-11
-7.87078e-09
-2.1097e-10
-4.73071e-09
-7.47978e-11
-1.6243e-10
-4.87806e-09
-1.66275e-10
-4.53878e-10
-8.38708e-09
-3.32584e-10
-8.06216e-10
-9.72873e-09
-4.26988e-10
-1.18447e-09
-1.03638e-08
-4.95297e-10
-1.5639e-09
-1.08784e-08
-5.63242e-10
-1.92292e-09
-1.15035e-08
-6.46453e-10
-2.24183e-09
-1.22978e-08
-7.53982e-10
-2.50114e-09
-1.32352e-08
-8.90557e-10
-2.68334e-09
-1.42525e-08
-1.05416e-09
-2.77549e-09
-1.52754e-08
-1.23611e-09
-2.77359e-09
-1.62323e-08
-1.41931e-09
-2.68496e-09
-1.70583e-08
-1.58409e-09
-2.53026e-09
-1.76972e-08
-1.70804e-09
-2.32831e-09
-1.81049e-08
-1.79063e-09
-2.09745e-09
-1.82488e-08
-1.83042e-09
-1.82401e-09
-1.81141e-08
-1.86487e-09
-1.49869e-09
-1.77021e-08
-1.88779e-09
-1.14268e-09
-1.703e-08
-1.86056e-09
-7.85509e-10
-1.61351e-08
-1.7746e-09
-4.59618e-10
-1.50669e-08
-1.62971e-09
-1.85514e-10
-1.3889e-08
-1.4467e-09
2.76648e-11
-1.26758e-08
-1.24812e-09
1.81072e-10
-1.15102e-08
-1.05562e-09
2.81133e-10
-1.04799e-08
-8.83391e-10
3.34612e-10
-9.6631e-09
-7.38385e-10
3.45983e-10
-9.10183e-09
-6.19317e-10
3.14974e-10
-8.75155e-09
-5.18263e-10
2.38085e-10
-8.39339e-09
-4.19191e-10
1.17984e-10
-7.45309e-09
-2.97591e-10
-4.48995e-09
-1.22767e-10
-1.89737e-10
-4.49489e-09
-1.93422e-10
-5.19013e-10
-7.68265e-09
-3.7515e-10
-9.1225e-10
-8.86324e-09
-4.72247e-10
-1.33446e-09
-9.39642e-09
-5.4516e-10
-1.76115e-09
-9.8247e-09
-6.27027e-10
-2.16896e-09
-1.03582e-08
-7.37472e-10
-2.53375e-09
-1.10457e-08
-8.87353e-10
-2.82938e-09
-1.18586e-08
-1.08104e-09
-3.03074e-09
-1.27359e-08
-1.31529e-09
-3.11658e-09
-1.36114e-08
-1.57818e-09
-3.07794e-09
-1.44238e-08
-1.84715e-09
-2.91944e-09
-1.51203e-08
-2.09647e-09
-2.66491e-09
-1.56563e-08
-2.29545e-09
-2.33933e-09
-1.59949e-08
-2.43553e-09
-1.97163e-09
-1.61091e-08
-2.5074e-09
-1.56103e-09
-1.5982e-08
-2.54267e-09
-1.11071e-09
-1.56169e-08
-2.53556e-09
-6.55053e-10
-1.50341e-08
-2.45152e-09
-2.30268e-10
-1.42673e-08
-2.29263e-09
1.26975e-10
-1.33588e-08
-2.06534e-09
3.97606e-10
-1.23598e-08
-1.79984e-09
5.77174e-10
-1.13302e-08
-1.52511e-09
6.74278e-10
-1.03397e-08
-1.26763e-09
7.02871e-10
-9.4644e-09
-1.04407e-09
6.76724e-10
-8.77531e-09
-8.61636e-10
6.05506e-10
-8.31219e-09
-7.18423e-10
4.9367e-10
-8.03594e-09
-6.03765e-10
3.41621e-10
-7.74454e-09
-4.96799e-10
1.56929e-10
-6.90356e-09
-3.64834e-10
-4.17154e-09
-1.61476e-10
-2.11355e-10
-4.06884e-09
-2.14691e-10
-5.69722e-10
-6.91736e-09
-4.06914e-10
-9.93029e-10
-7.93715e-09
-5.02779e-10
-1.44675e-09
-8.36854e-09
-5.74147e-10
-1.90625e-09
-8.70515e-09
-6.60046e-10
-2.34733e-09
-9.13398e-09
-7.83122e-10
-2.74257e-09
-9.69519e-09
-9.55219e-10
-3.06186e-09
-1.03589e-08
-1.18037e-09
-3.27447e-09
-1.10695e-08
-1.45371e-09
-3.35436e-09
-1.17698e-08
-1.76172e-09
-3.28824e-09
-1.24101e-08
-2.07987e-09
-3.07819e-09
-1.29509e-08
-2.37943e-09
-2.74825e-09
-1.33608e-08
-2.62544e-09
-2.32696e-09
-1.36128e-08
-2.80339e-09
-1.85129e-09
-1.36872e-08
-2.89757e-09
-1.33394e-09
-1.35693e-08
-2.93006e-09
-7.91383e-10
-1.32628e-08
-2.8966e-09
-2.66086e-10
-1.27882e-08
-2.77128e-09
2.01405e-10
-1.21712e-08
-2.5636e-09
5.74199e-10
-1.14451e-08
-2.28649e-09
8.35819e-10
-1.06467e-08
-1.97464e-09
9.86014e-10
-9.82123e-09
-1.65917e-09
1.03863e-09
-9.02415e-09
-1.36814e-09
1.01266e-09
-8.31948e-09
-1.11894e-09
9.26744e-10
-7.76998e-09
-9.1941e-10
7.94721e-10
-7.41297e-09
-7.67191e-10
6.2363e-10
-7.21478e-09
-6.50068e-10
4.16622e-10
-6.99372e-09
-5.43813e-10
1.85322e-10
-6.26263e-09
-4.09623e-10
-3.79698e-09
-1.89245e-10
-2.25185e-10
-3.61566e-09
-2.27989e-10
-6.00446e-10
-6.1186e-09
-4.23503e-10
-1.03995e-09
-6.98431e-09
-5.1333e-10
-1.50951e-09
-7.32151e-09
-5.77474e-10
-1.98544e-09
-7.57026e-09
-6.58951e-10
-2.44307e-09
-7.89462e-09
-7.81724e-10
-2.85349e-09
-8.32686e-09
-9.5791e-10
-3.18401e-09
-8.83751e-09
-1.19087e-09
-3.40098e-09
-9.37747e-09
-1.47508e-09
-3.47554e-09
-9.89846e-09
-1.79673e-09
-3.39145e-09
-1.03633e-08
-2.13089e-09
-3.14885e-09
-1.07451e-08
-2.44846e-09
-2.76991e-09
-1.10252e-08
-2.71449e-09
-2.28532e-09
-1.11873e-08
-2.91011e-09
-1.73616e-09
-1.12201e-08
-3.01625e-09
-1.14758e-09
-1.11134e-08
-3.04456e-09
-5.47609e-10
-1.08711e-08
-2.99174e-09
1.62767e-11
-1.05095e-08
-2.84258e-09
5.02982e-10
-1.00465e-08
-2.61141e-09
8.77565e-10
-9.50427e-09
-2.3154e-09
1.12619e-09
-8.90614e-09
-1.98922e-09
1.25206e-09
-8.28317e-09
-1.66392e-09
1.27216e-09
-7.67719e-09
-1.36706e-09
1.2087e-09
-7.14053e-09
-1.11548e-09
1.0833e-09
-6.72767e-09
-9.16912e-10
9.11927e-10
-6.47264e-09
-7.68948e-10
7.03623e-10
-6.34773e-09
-6.58744e-10
4.62745e-10
-6.19224e-09
-5.60591e-10
2.02701e-10
-5.57077e-09
-4.31812e-10
-3.38838e-09
-2.05887e-10
-2.31378e-10
-3.15078e-09
-2.33502e-10
-6.11525e-10
-5.31287e-09
-4.25579e-10
-1.05326e-09
-6.03694e-09
-5.05619e-10
-1.52398e-09
-6.29285e-09
-5.57938e-10
-2.00111e-09
-6.46529e-09
-6.27828e-10
-2.46018e-09
-6.69552e-09
-7.40032e-10
-2.87209e-09
-7.00886e-09
-9.06083e-10
-3.20297e-09
-7.37827e-09
-1.12835e-09
-3.41826e-09
-7.76103e-09
-1.40115e-09
-3.48777e-09
-8.11862e-09
-1.71032e-09
-3.39391e-09
-8.42471e-09
-2.03244e-09
-3.13518e-09
-8.6633e-09
-2.34049e-09
-2.73167e-09
-8.8271e-09
-2.60164e-09
-2.21425e-09
-8.90919e-09
-2.79553e-09
-1.62606e-09
-8.90606e-09
-2.90221e-09
-1.00122e-09
-8.81242e-09
-2.92578e-09
-3.76227e-10
-8.63191e-09
-2.86415e-09
1.99855e-10
-8.37604e-09
-2.7095e-09
6.86718e-10
-8.05485e-09
-2.47848e-09
1.05242e-09
-7.67974e-09
-2.19022e-09
1.28591e-09
-7.26264e-09
-1.87699e-09
1.39272e-09
-6.82271e-09
-1.56727e-09
1.39123e-09
-6.3894e-09
-1.2863e-09
1.30545e-09
-6.00446e-09
-1.05029e-09
1.15812e-09
-5.71376e-09
-8.66569e-10
9.66322e-10
-5.54773e-09
-7.33108e-10
7.39799e-10
-5.48387e-09
-6.37329e-10
4.83163e-10
-5.38268e-09
-5.52923e-10
2.10385e-10
-4.8628e-09
-4.35186e-10
-2.96499e-09
-2.1301e-10
-2.31565e-10
-2.68629e-09
-2.32917e-10
-6.07304e-10
-4.52021e-09
-4.16914e-10
-1.04107e-09
-5.11828e-09
-4.84896e-10
-1.50192e-09
-5.30874e-09
-5.23269e-10
-1.969e-09
-5.42017e-09
-5.78039e-10
-2.4187e-09
-5.57217e-09
-6.73649e-10
-2.82202e-09
-5.78467e-09
-8.20865e-10
-3.14537e-09
-6.03362e-09
-1.0213e-09
-3.35427e-09
-6.28361e-09
-1.26852e-09
-3.41866e-09
-6.50519e-09
-1.54904e-09
-3.32061e-09
-6.68075e-09
-1.842e-09
-3.05731e-09
-6.80376e-09
-2.12284e-09
-2.64723e-09
-6.87455e-09
-2.36263e-09
-2.1205e-09
-6.89423e-09
-2.54169e-09
-1.52023e-09
-6.865e-09
-2.64132e-09
-8.86292e-10
-6.78593e-09
-2.66043e-09
-2.60482e-10
-6.66023e-09
-2.59748e-09
3.08999e-10
-6.49466e-09
-2.45085e-09
7.83098e-10
-6.29226e-09
-2.23669e-09
1.13365e-09
-6.0567e-09
-1.97358e-09
1.35156e-09
-5.79065e-09
-1.68991e-09
1.44366e-09
-5.50369e-09
-1.41112e-09
1.42905e-09
-5.21548e-09
-1.1593e-09
1.33181e-09
-4.9579e-09
-9.49304e-10
1.17511e-09
-4.76857e-09
-7.88498e-10
9.76204e-10
-4.67359e-09
-6.75235e-10
7.44736e-10
-4.65474e-09
-5.97661e-10
4.85178e-10
-4.59348e-09
-5.2964e-10
2.1093e-10
-4.1626e-09
-4.25951e-10
-2.54064e-09
-2.13415e-10
-2.28253e-10
-2.22928e-09
-2.28761e-10
-5.94895e-10
-3.75019e-09
-4.0338e-10
-1.01559e-09
-4.23747e-09
-4.60103e-10
-1.46108e-09
-4.37801e-09
-4.85236e-10
-1.91192e-09
-4.44473e-09
-5.24599e-10
-2.34569e-09
-4.53646e-09
-6.01928e-10
-2.7343e-09
-4.66906e-09
-7.26996e-10
-3.04499e-09
-4.82235e-09
-9.00578e-10
-3.24402e-09
-4.96851e-09
-1.11607e-09
-3.30228e-09
-5.08586e-09
-1.36106e-09
-3.20204e-09
-5.16412e-09
-1.61688e-09
-2.94056e-09
-5.20296e-09
-1.86226e-09
-2.53412e-09
-5.20821e-09
-2.07278e-09
-2.01211e-09
-5.18588e-09
-2.23036e-09
-1.41671e-09
-5.14197e-09
-2.31843e-09
-7.90558e-10
-5.07828e-09
-2.3338e-09
-1.77932e-10
-4.99748e-09
-2.27537e-09
3.74428e-10
-4.90263e-09
-2.14439e-09
8.29856e-10
-4.79224e-09
-1.95544e-09
1.16294e-09
-4.66397e-09
-1.72582e-09
1.36625e-09
-4.51464e-09
-1.47931e-09
1.44718e-09
-4.3469e-09
-1.23771e-09
1.42482e-09
-4.17277e-09
-1.02035e-09
1.32268e-09
-4.01526e-09
-8.405e-10
1.16358e-09
-3.90427e-09
-7.05193e-10
9.64351e-10
-3.86105e-09
-6.13303e-10
7.34428e-10
-3.87095e-09
-5.53859e-10
4.77869e-10
-3.83524e-09
-5.01679e-10
2.07555e-10
-3.48049e-09
-4.11787e-10
-2.12257e-09
-2.10504e-10
-2.24057e-10
-1.78143e-09
-2.23786e-10
-5.81562e-10
-3.00194e-09
-3.9074e-10
-9.89094e-10
-3.39038e-09
-4.39553e-10
-1.41873e-09
-3.49342e-09
-4.54956e-10
-1.85193e-09
-3.52975e-09
-4.81769e-10
-2.26741e-09
-3.57819e-09
-5.42786e-10
-2.63836e-09
-3.65121e-09
-6.46893e-10
-2.93295e-09
-3.73356e-09
-7.94189e-10
-3.11916e-09
-3.80408e-09
-9.78211e-10
-3.16912e-09
-3.84828e-09
-1.18761e-09
-3.06584e-09
-3.86122e-09
-1.40618e-09
-2.80681e-09
-3.84641e-09
-1.61558e-09
-2.40709e-09
-3.81246e-09
-1.79547e-09
-1.89509e-09
-3.7676e-09
-1.93027e-09
-1.31162e-09
-3.71936e-09
-2.00608e-09
-7.00185e-10
-3.67109e-09
-2.01861e-09
-1.05855e-10
-3.62478e-09
-1.96703e-09
4.26819e-10
-3.58103e-09
-1.85427e-09
8.63006e-10
-3.53569e-09
-1.69274e-09
1.17974e-09
-3.48325e-09
-1.49745e-09
1.37068e-09
-3.4174e-09
-1.28818e-09
1.44343e-09
-3.33633e-09
-1.08331e-09
1.41613e-09
-3.24605e-09
-8.99423e-10
1.31179e-09
-3.16258e-09
-7.48327e-10
1.1521e-09
-3.10802e-09
-6.36561e-10
9.53372e-10
-3.09883e-09
-5.63493e-10
7.24713e-10
-3.12322e-09
-5.19067e-10
4.70349e-10
-3.10174e-09
-4.79129e-10
2.03596e-10
-2.81403e-09
-3.99704e-10
-1.71131e-09
-2.07662e-10
-2.20479e-10
-1.34152e-09
-2.19428e-10
-5.7122e-10
-2.26893e-09
-3.82267e-10
-9.6894e-10
-2.5648e-09
-4.27862e-10
-1.3853e-09
-2.63829e-09
-4.38758e-10
-1.80207e-09
-2.655e-09
-4.5798e-10
-2.19889e-09
-2.67433e-09
-5.07037e-10
-2.5502e-09
-2.70587e-09
-5.94022e-10
-2.82624e-09
-2.73878e-09
-7.18741e-10
-2.99636e-09
-2.75885e-09
-8.75114e-10
-3.03458e-09
-2.75712e-09
-1.05294e-09
-2.9251e-09
-2.73246e-09
-1.23824e-09
-2.666e-09
-2.69012e-09
-1.41539e-09
-2.27153e-09
-2.63906e-09
-1.56787e-09
-1.76927e-09
-2.58769e-09
-1.68217e-09
-1.19849e-09
-2.54341e-09
-1.74673e-09
-6.0259e-10
-2.50971e-09
-1.75727e-09
-2.61246e-11
-2.48807e-09
-1.71317e-09
4.88332e-10
-2.47765e-09
-1.61784e-09
9.07789e-10
-2.47357e-09
-1.48157e-09
1.21113e-09
-2.46936e-09
-1.31722e-09
1.39245e-09
-2.45768e-09