/*--------------------------------*- C++ -*----------------------------------*\
| =========                 |                                                 |
| \\      /  F ield         | OpenFOAM: The Open Source CFD Toolbox           |
|  \\    /   O peration     | Version:  v1906                                 |
|   \\  /    A nd           | Web:      www.OpenFOAM.com                      |
|    \\/     M anipulation  |                                                 |
\*---------------------------------------------------------------------------*/
FoamFile
{
    version     2.0;
    format      ascii;
    class       volScalarField;
    location    "55";
    object      omega;
}
// * * * * * * * * * * * * * * * * * * * * * * * * * * * * * * * * * * * * * //

dimensions      [0 0 -1 0 0 0 0];


internalField   nonuniform List<scalar> 
78750
(
353.058
13.5716
13.5871
13.6012
13.614
13.6258
13.6364
13.6458
13.654
13.6609
13.6665
13.6705
13.6731
13.6741
13.6736
13.6715
13.6679
13.6628
13.6564
13.6489
13.6406
13.6318
13.6229
13.6142
13.6061
13.599
13.593
13.5885
13.5855
13.5847
13.587
13.5942
13.609
13.6343
356.757
518.063
4.11699
4.1706
4.21796
4.25962
4.29555
4.32587
4.35079
4.37054
4.38536
4.39547
4.40109
4.40243
4.39972
4.39316
4.383
4.36946
4.35276
4.33325
4.31131
4.28738
4.26201
4.23589
4.20982
4.18468
4.16135
4.14055
4.12281
4.10847
4.09794
4.09189
4.09143
4.0981
4.11426
524.011
518.069
4.15582
4.23898
4.31011
4.37062
4.42199
4.46471
4.49931
4.52637
4.54641
4.55994
4.56743
4.5693
4.56596
4.55779
4.54516
4.52844
4.50803
4.48428
4.45754
4.42808
4.3962
4.36223
4.32661
4.29001
4.25332
4.21762
4.18414
4.15435
4.13006
4.11373
4.10859
4.11709
4.14053
524.498
518.078
4.20285
4.3191
4.41614
4.49395
4.55711
4.60878
4.64999
4.68169
4.70473
4.7199
4.7279
4.72938
4.72496
4.7152
4.70055
4.68137
4.65814
4.63134
4.60144
4.56885
4.53391
4.49708
4.45843
4.41768
4.37491
4.33057
4.28564
4.24181
4.20099
4.16735
4.14805
4.14883
4.17127
524.857
518.087
4.24174
4.38389
4.5017
4.59377
4.66463
4.72037
4.76418
4.79733
4.82092
4.83589
4.84311
4.84338
4.83742
4.82568
4.80854
4.78643
4.75987
4.7295
4.69612
4.66059
4.62361
4.58539
4.54581
4.50457
4.46154
4.41667
4.36983
4.32108
4.27189
4.22738
4.19689
4.18936
4.20754
525.18
518.097
4.27817
4.44295
4.57819
4.68215
4.75915
4.81717
4.86156
4.8944
4.91698
4.93039
4.93564
4.93362
4.92497
4.91007
4.88928
4.86306
4.83196
4.79675
4.75844
4.71838
4.67802
4.63823
4.59895
4.55945
4.51888
4.47646
4.43147
4.3833
4.33264
4.28409
4.24744
4.23351
4.24601
525.447
518.108
4.31517
4.50079
4.65042
4.76261
4.84355
4.90268
4.94667
4.97837
4.99915
5.01025
5.01273
5.00749
4.99492
4.97534
4.9491
4.9167
4.87883
4.83647
4.79098
4.74426
4.69863
4.65596
4.61661
4.57966
4.54362
4.50679
4.46758
4.42468
4.37814
4.33173
4.29462
4.27766
4.28476
525.711
518.12
4.34957
4.55337
4.71547
4.8348
4.91915
4.97933
5.0232
5.05421
5.07384
5.08337
5.08392
5.07608
5.0601
5.0362
5.00475
4.9663
4.92167
4.87199
4.81886
4.76453
4.71202
4.66423
4.62219
4.58525
4.5518
4.51971
4.48667
4.45067
4.41099
4.37031
4.33639
4.31878
4.32106
525.956
518.132
4.38202
4.60232
4.7755
4.90093
4.98812
5.04919
5.09294
5.12327
5.14175
5.14979
5.14834
5.13772
5.1181
5.08972
5.05299
5.0086
4.95752
4.90107
4.84106
4.78001
4.72147
4.66903
4.62402
4.58603
4.55364
4.52478
4.49695
4.46773
4.43568
4.40223
4.37333
4.35655
4.35488
526.199
518.144
4.41359
4.64929
4.83266
4.96369
5.05359
5.11583
5.15963
5.18933
5.2069
5.21374
5.21045
5.19723
5.17423
5.14175
5.1003
5.05068
4.994
4.93173
4.8658
4.79893
4.73499
4.67811
4.62981
4.58974
4.5568
4.52925
4.5048
4.48099
4.45588
4.42964
4.40623
4.39107
4.38645
526.428
518.156
4.44283
4.69242
4.88489
5.02087
5.11311
5.17647
5.2204
5.24964
5.26652
5.27213
5.26692
5.25105
5.22472
5.18827
5.14234
5.08788
5.02614
4.95872
4.88774
4.81609
4.748
4.68797
4.63736
4.59574
4.56217
4.53524
4.51312
4.49356
4.47438
4.45469
4.43651
4.42325
4.41651
526.652
518.168
4.4726
4.73582
4.937
5.07754
5.17185
5.23607
5.28024
5.30921
5.32528
5.32948
5.32224
5.3037
5.27408
5.23379
5.1836
5.12458
5.05811
4.98594
4.9103
4.83429
4.76243
4.69963
4.64708
4.60419
4.57001
4.54338
4.52287
4.50658
4.49231
4.47832
4.46488
4.4536
4.44537
526.865
518.179
4.50039
4.77594
4.98495
5.12959
5.22578
5.29082
5.33519
5.36389
5.37918
5.38206
5.37289
5.3518
5.31903
5.27511
5.2209
5.15759
5.08671
5.0101
4.93018
4.85025
4.77518
4.71027
4.6565
4.61304
4.57886
4.55291
4.53404
4.52068
4.51065
4.50157
4.49224
4.48278
4.47335
527.072
518.192
4.5292
4.81706
5.0336
5.18199
5.27981
5.3455
5.38999
5.41832
5.43276
5.43425
5.42308
5.39942
5.36354
5.31606
5.25795
5.19052
5.1154
5.03455
4.95048
4.86671
4.78839
4.72133
4.66639
4.6225
4.58853
4.56344
4.54625
4.53562
4.52938
4.52463
4.51889
4.51106
4.50056
527.27
518.204
4.55638
4.8554
5.07874
5.23052
5.32987
5.39623
5.44089
5.46896
5.48266
5.48288
5.46988
5.44382
5.40503
5.35422
5.29247
5.22117
5.14205
5.05715
4.96913
4.88168
4.80032
4.73135
4.67554
4.63162
4.59829
4.57449
4.5593
4.55147
4.54881
4.5479
4.54523
4.53871
4.52708
527.463
518.217
4.58444
4.89456
5.12446
5.27934
5.38002
5.44696
5.49174
5.51951
5.53246
5.5314
5.5166
5.48819
5.44661
5.39263
5.3274
5.25243
5.16949
5.08068
4.98876
4.89759
4.81296
4.74179
4.6849
4.64085
4.60821
4.58585
4.57283
4.5679
4.5687
4.57133
4.57134
4.56587
4.55297
527.648
518.23
4.61111
4.93137
5.16721
5.32496
5.42695
5.49453
5.53955
5.56716
5.57951
5.57737
5.56094
5.53043
5.48628
5.42937
5.36094
5.28255
5.19602
5.10347
5.00779
4.91298
4.82509
4.75173
4.69381
4.64977
4.61804
4.5974
4.58682
4.58493
4.58915
4.59503
4.59733
4.59259
4.57823
527.829
518.244
4.63838
4.96864
5.2102
5.3706
5.47379
5.54198
5.58724
5.61473
5.62653
5.62336
5.60542
5.57293
5.5264
5.46677
5.39535
5.31375
5.22381
5.12767
5.02825
4.92969
4.83825
4.76225
4.70295
4.65869
4.62782
4.60897
4.60098
4.60228
4.60992
4.61889
4.62318
4.61891
4.60289
528.003
518.257
4.66446
5.00391
5.25071
5.4136
5.51801
5.58692
5.63257
5.6601
5.67152
5.66752
5.64828
5.61404
5.56537
5.50328
5.42913
5.34455
5.25141
5.15185
5.04883
4.94656
4.85152
4.77271
4.71189
4.66738
4.63743
4.62053
4.61535
4.61999
4.63106
4.64294
4.64894
4.64487
4.62695
528.172
518.271
4.69093
5.03938
5.29122
5.45644
5.56201
5.63165
5.67773
5.70535
5.71649
5.71176
5.69135
5.65554
5.60495
5.54063
5.46398
5.37664
5.28048
5.17765
5.07108
4.96499
4.86604
4.7839
4.72111
4.67603
4.64684
4.63192
4.62965
4.63775
4.6523
4.66698
4.67447
4.67038
4.65035
528.336
518.285
4.71642
5.07319
5.32968
5.49711
5.60389
5.67438
5.72104
5.7489
5.7599
5.75462
5.73326
5.69611
5.64384
5.57756
5.49868
5.40884
5.30989
5.20398
5.094
4.98415
4.8812
4.79544
4.73039
4.68454
4.65604
4.64314
4.64392
4.65564
4.67371
4.69108
4.69987
4.69551
4.67312
528.494
518.299
4.74213
5.10701
5.36799
5.53753
5.6455
5.71687
5.76414
5.79231
5.80324
5.79752
5.77533
5.73702
5.68331
5.61532
5.53447
5.44239
5.34091
5.23208
5.11876
5.00511
4.89792
4.80799
4.74015
4.69309
4.66503
4.65405
4.65792
4.67334
4.69497
4.71497
4.72488
4.72012
4.6952
528.648
518.314
4.76699
5.13942
5.40459
5.57621
5.68547
5.75783
5.80581
5.83437
5.84532
5.83927
5.81642
5.77717
5.72228
5.65287
5.57035
5.47635
5.37262
5.26113
5.14466
5.02731
4.91583
4.82142
4.7504
4.70178
4.67389
4.66475
4.67173
4.69092
4.71615
4.73872
4.74964
4.74424
4.71656
528.797
518.329
4.79189
5.17164
5.44091
5.61461
5.72522
5.79863
5.84734
5.87626
5.88723
5.88089
5.8575
5.81749
5.76164
5.69108
5.60721
5.51159
5.40592
5.29202
5.17257
5.05154
4.93563
4.83627
4.76153
4.71083
4.68273
4.67519
4.68522
4.7082
4.73705
4.76212
4.7739
4.76784
4.73726
528.941
518.344
4.81597
5.20256
5.47576
5.65165
5.76384
5.83843
5.88785
5.91705
5.92801
5.92142
5.8976
5.85703
5.80049
5.7291
5.64421
5.54733
5.44006
5.32409
5.20194
5.07745
4.95716
4.85262
4.77373
4.7205
4.69178
4.68554
4.69845
4.72515
4.75754
4.78502
4.79772
4.79069
4.75708
529.08
518.359
4.83986
5.23302
5.5101
5.68838
5.80259
5.87853
5.92842
5.95757
5.96836
5.96153
5.9374
5.89645
5.83948
5.76755
5.68197
5.58417
5.47564
5.35792
5.23335
5.10556
4.9809
4.87093
4.78744
4.73112
4.70124
4.6959
4.71146
4.74179
4.77776
4.80778
4.82159
4.81317
4.77619
529.215
518.374
4.86289
5.26211
5.54285
5.72359
5.83964
5.91684
5.96754
5.99677
6.0074
6.00041
5.97612
5.93502
5.87787
5.80571
5.71978
5.62143
5.51202
5.39294
5.26633
5.13557
5.00676
4.89134
4.80291
4.74301
4.71144
4.70654
4.72441
4.75815
4.79754
4.83001
4.84519
4.83566
4.7948
529.345
518.389
4.88559
5.29057
5.57481
5.75806
5.87557
5.95397
6.00558
6.03532
6.04574
6.03865
6.01433
5.97324
5.91614
5.84401
5.75803
5.65946
5.54953
5.42946
5.30118
5.16778
5.03506
4.91424
4.82057
4.75658
4.72271
4.71766
4.73739
4.77427
4.81705
4.85227
4.86858
4.85787
4.8129
529.472
518.404
4.90748
5.31779
5.60524
5.79074
5.90969
5.9893
6.04189
6.07225
6.08276
6.07566
6.05143
6.01053
5.9537
5.88187
5.79615
5.6977
5.58763
5.46697
5.33745
5.20185
5.0656
4.93965
4.84059
4.77213
4.7354
4.72961
4.7507
4.79042
4.8365
4.87462
4.89181
4.87976
4.83045
529.594
518.419
4.92901
5.34445
5.63511
5.82246
5.94267
6.02344
6.07705
6.10819
6.11914
6.11194
6.08784
6.04725
5.99087
5.91957
5.83437
5.73634
5.62647
5.5056
5.37524
5.23787
5.09854
4.9678
4.86329
4.79
4.74984
4.74264
4.76451
4.80667
4.85587
4.89682
4.91476
4.90124
4.84743
529.713
518.434
4.94961
5.3698
5.6637
5.85252
5.97388
6.05579
6.11044
6.14239
6.15384
6.14674
6.12297
6.08291
6.02718
5.95663
5.87222
5.77491
5.66556
5.54487
5.41412
5.27546
5.13354
4.99851
4.88866
4.81036
4.76631
4.7571
4.77911
4.8232
4.8752
4.91878
4.93731
4.92222
4.86382
529.828
518.449
4.96962
5.39417
5.69107
5.88133
6.00388
6.08697
6.14271
6.17556
6.18763
6.18076
6.15739
6.1179
6.06293
5.99327
5.90983
5.81348
5.70495
5.58478
5.45402
5.31454
5.17055
5.03175
4.91673
4.83335
4.78503
4.77319
4.79469
4.84017
4.89456
4.9405
4.95947
4.94271
4.87963
529.94
518.464
4.98886
5.41743
5.71708
5.90864
6.03229
6.11652
6.17333
6.20712
6.21994
6.21355
6.19058
6.15175
6.09766
6.02907
5.9468
5.85164
5.74422
5.6249
5.49454
5.35469
5.20917
5.06718
4.94737
4.85899
4.80615
4.79115
4.81146
4.85767
4.91396
4.9619
4.98114
4.96263
4.89484
530.05
518.479
5.00749
5.43975
5.74195
5.93474
6.05947
6.14483
6.20273
6.23748
6.2511
6.24535
6.22278
6.18466
6.13156
6.06417
5.98324
5.88946
5.78337
5.66518
5.53556
5.3958
5.24927
5.10466
4.9805
4.8873
4.82977
4.81114
4.82962
4.87594
4.9336
4.98312
5.00239
4.98201
4.90947
530.156
518.493
5.02541
5.46104
5.76557
5.95946
6.08519
6.17163
6.23057
6.26628
6.28072
6.27563
6.25359
6.21633
6.16435
6.09828
6.01883
5.92661
5.82205
5.70524
5.57669
5.43741
5.29039
5.1438
5.01587
4.91819
4.85596
4.8333
4.84931
4.89498
4.95334
5.00405
5.02316
5.00083
4.92355
530.26
518.507
5.04272
5.48145
5.78813
5.98303
6.10969
6.19717
6.25715
6.29381
6.3091
6.30475
6.2833
6.24695
6.19617
6.13153
6.05366
5.96312
5.86025
5.74504
5.61783
5.4794
5.33237
5.1844
5.05331
4.95154
4.88469
4.85771
4.87066
4.91505
4.97373
5.0249
5.04352
5.01913
4.93711
530.362
518.521
5.05936
5.50094
5.80955
6.00528
6.13279
6.22124
6.28222
6.31981
6.33594
6.33233
6.31156
6.27626
6.22678
6.16366
6.08747
5.99873
5.89769
5.78425
5.65862
5.52136
5.37477
5.22602
5.09248
4.98716
4.91592
4.88445
4.89385
4.93633
4.99472
5.04573
5.06352
5.03693
4.95017
530.461
518.535
5.07557
5.51984
5.83001
6.0264
6.15467
6.24408
6.30606
6.3446
6.3616
6.35877
6.33871
6.30443
6.2563
6.1948
6.12037
6.03351
5.93441
5.82289
5.69904
5.56323
5.41747
5.2685
5.13319
5.02488
4.94954
4.91352
4.91894
4.95889
5.01635
5.06664
5.08325
5.05432
4.9628
530.558
518.549
5.09115
5.53804
5.84926
6.04616
6.17514
6.26546
6.32839
6.36786
6.38573
6.38372
6.36445
6.33128
6.2845
6.2246
6.15204
6.06716
5.97011
5.86063
5.73873
5.60462
5.46007
5.3114
5.17507
5.06441
4.9854
4.9449
4.94602
4.98283
5.03866
5.08767
5.10278
5.07133
4.97505
530.653
518.562
5.1061
5.55535
5.86744
6.06478
6.19443
6.28563
6.34951
6.38989
6.40862
6.40744
6.38899
6.35697
6.31163
6.25337
6.18264
6.0998
6.00488
5.89753
5.7777
5.64549
5.50244
5.35457
5.21787
5.1055
5.02329
4.97848
4.97507
5.0082
5.06173
5.10891
5.12218
5.08806
4.98699
530.746
518.575
5.12021
5.57154
5.88437
6.08209
6.21236
6.3044
6.36917
6.41043
6.43001
6.42966
6.41209
6.38125
6.33736
6.2808
6.21196
6.13114
6.0384
5.93329
5.81565
5.68552
5.54427
5.39763
5.26125
5.14784
5.06298
5.01411
5.00607
5.03504
5.08563
5.13045
5.14154
5.10458
4.99868
530.837
518.587
5.13379
5.58696
5.90036
6.09836
6.22919
6.32201
6.38764
6.42975
6.45014
6.45062
6.43394
6.40429
6.36187
6.30702
6.24008
6.16133
6.07076
5.96792
5.85257
5.72465
5.58543
5.44043
5.30498
5.19116
5.1042
5.05162
5.03892
5.06337
5.11045
5.15238
5.16094
5.12097
5.0102
530.926
518.6
5.14655
5.6013
5.91514
6.11337
6.24472
6.33828
6.40471
6.44763
6.46882
6.47012
6.45438
6.4259
6.38494
6.33181
6.2668
6.19014
6.10178
6.00122
5.88824
5.76267
5.62568
5.48267
5.34876
5.23515
5.14667
5.09078
5.07353
5.09319
5.13625
5.17479
5.1805
5.13731
5.02162
531.014
518.612
5.15878
5.6149
5.92905
6.12742
6.25922
6.35346
6.42064
6.4643
6.48623
6.48832
6.47351
6.44619
6.40669
6.35527
6.29219
6.21763
6.13149
6.03323
5.92263
5.79953
5.66494
5.52424
5.39238
5.27954
5.19011
5.13138
5.10975
5.12445
5.16306
5.19776
5.20029
5.15369
5.033
531.101
518.623
5.17024
5.62749
5.94184
6.14029
6.2725
6.36737
6.43524
6.4796
6.50223
6.50508
6.49117
6.46503
6.42699
6.37727
6.31612
6.24365
6.15974
6.06381
5.95561
5.83497
5.70303
5.56493
5.43562
5.32409
5.23426
5.17317
5.14743
5.15713
5.19095
5.2214
5.22043
5.17023
5.04443
531.187
518.635
5.18121
5.63942
5.95382
6.15227
6.28481
6.38024
6.44875
6.49375
6.51701
6.52056
6.50754
6.48254
6.44594
6.39791
6.33865
6.26825
6.18655
6.09294
5.98716
5.86903
5.73973
5.60455
5.47828
5.36856
5.27886
5.21589
5.18637
5.19109
5.21988
5.24572
5.24098
5.18698
5.05597
531.272
518.646
5.19149
5.65042
5.96476
6.16315
6.29598
6.39192
6.46101
6.50659
6.53045
6.53466
6.52248
6.49864
6.46346
6.41708
6.35969
6.29133
6.21181
6.12052
6.01717
5.90163
5.7751
5.64302
5.52018
5.41272
5.32366
5.25932
5.22641
5.22629
5.24991
5.27084
5.26206
5.20404
5.06768
531.357
518.656
5.2013
5.66079
5.97495
6.17319
6.30623
6.40261
6.47222
6.51832
6.54271
6.54752
6.53615
6.51344
6.47964
6.43487
6.37929
6.31292
6.23555
6.14654
6.04562
5.93269
5.80905
5.68028
5.56128
5.45647
5.36847
5.30322
5.26729
5.26252
5.28092
5.29675
5.2837
5.22148
5.07963
531.441
518.667
5.21048
5.67032
5.98418
6.1822
6.3154
6.41218
6.48225
6.52882
6.55369
6.55907
6.54848
6.52688
6.49442
6.45122
6.39741
6.33298
6.25771
6.17095
6.07244
5.96214
5.84148
5.71623
5.60132
5.49958
5.41312
5.34743
5.30891
5.29973
5.31291
5.32346
5.30595
5.23936
5.09185
531.525
518.677
5.21922
5.67924
5.99267
6.1904
6.32368
6.4208
6.49128
6.53825
6.56354
6.56944
6.5596
6.53907
6.5079
6.46621
6.41408
6.35153
6.2783
6.19374
6.09762
5.98997
5.87239
5.75092
5.64036
5.542
5.45743
5.39172
5.35101
5.33773
5.34579
5.351
5.32888
5.25772
5.10439
531.609
518.687
5.22739
5.68737
6.00026
6.19763
6.33096
6.42835
6.49919
6.54653
6.57221
6.5786
6.5695
6.55
6.52007
6.47981
6.42931
6.36857
6.29731
6.21489
6.12114
6.01617
5.90179
5.78439
5.67837
5.58358
5.50127
5.43596
5.39347
5.37639
5.37947
5.37929
5.35245
5.27659
5.11726
531.693
518.696
5.23511
5.69489
6.00711
6.20405
6.33736
6.43499
6.50614
6.55379
6.5798
6.58665
6.5783
6.55976
6.531
6.4921
6.44316
6.38413
6.31477
6.23444
6.14301
6.04075
5.92971
5.81674
5.71533
5.62432
5.54455
5.48003
5.43615
5.41555
5.41388
5.40834
5.37669
5.29598
5.13047
531.778
518.706
5.24229
5.70167
6.01312
6.20956
6.34282
6.44064
6.51204
6.55996
6.58628
6.59356
6.58595
6.56835
6.54071
6.50313
6.45566
6.39828
6.33073
6.25241
6.16327
6.06373
5.95616
5.84795
5.75122
5.66412
5.5871
5.52368
5.47878
5.45501
5.44886
5.43806
5.40159
5.31589
5.14402
531.863
518.715
5.24901
5.70782
6.01839
6.21426
6.34742
6.44539
6.51701
6.56516
6.59174
6.59944
6.59256
6.57587
6.54932
6.51298
6.46691
6.41109
6.34527
6.26888
6.18196
6.08512
5.98111
5.87789
5.78591
5.70285
5.62882
5.5668
5.52124
5.49464
5.48427
5.46834
5.42704
5.33628
5.15789
531.948
518.724
5.25522
5.71327
6.02285
6.21811
6.35112
6.44919
6.521
6.56934
6.59616
6.60426
6.59813
6.58234
6.55685
6.52171
6.47699
6.42265
6.35847
6.28392
6.19915
6.10499
6.00457
5.90648
5.81931
5.7404
5.66954
5.60923
5.5634
5.5344
5.52012
5.49919
5.45308
5.35716
5.17209
532.034
518.732
5.26097
5.7181
6.02659
6.22117
6.35399
6.45213
6.52408
6.57258
6.59962
6.60812
6.60274
6.58785
6.56338
6.52941
6.48598
6.43306
6.37044
6.29766
6.21496
6.12343
6.02661
5.93374
5.85139
5.77668
5.70913
5.65075
5.60493
5.57383
5.55605
5.5304
5.47957
5.37845
5.18658
532.12
518.741
5.26624
5.72228
6.02957
6.22341
6.356
6.45417
6.52622
6.57485
6.6021
6.61099
6.60639
6.5924
6.56896
6.53612
6.49394
6.44238
6.38127
6.31018
6.2295
6.14055
6.04734
5.95972
5.88219
5.81171
5.74755
5.6913
5.64587
5.61322
5.59208
5.56191
5.50648
5.40015
5.20138
532.207
518.749
5.2711
5.72589
6.03187
6.22491
6.35722
6.45537
6.5275
6.57623
6.60366
6.61295
6.60915
6.59608
6.57366
6.54194
6.50097
6.45074
6.39108
6.32164
6.24293
6.15653
6.06695
5.98457
5.91182
5.84556
5.78484
5.7309
5.68619
5.65252
5.62815
5.59362
5.53368
5.42215
5.2164
532.294
518.757
5.27552
5.7289
6.03347
6.22565
6.35761
6.45571
6.52788
6.57668
6.60428
6.61397
6.61101
6.59888
6.57748
6.54688
6.50711
6.45818
6.39994
6.33211
6.25535
6.17152
6.08561
6.00845
5.94041
5.87831
5.82106
5.76955
5.72582
5.6915
5.66414
5.62549
5.56118
5.44446
5.23169
532.382
518.764
5.27956
5.7314
6.03445
6.22568
6.35727
6.45527
6.52743
6.57627
6.60402
6.61413
6.61204
6.60086
6.5805
6.551
6.51243
6.46478
6.40795
6.34173
6.26694
6.18573
6.10362
6.03158
5.96814
5.91011
5.85627
5.80724
5.76468
5.73002
5.69999
5.65738
5.58884
5.46698
5.24716
532.469
518.772
5.2832
5.73334
6.03477
6.22499
6.35614
6.45399
6.52611
6.57496
6.60285
6.61338
6.6122
6.602
6.58268
6.5543
6.51692
6.47055
6.41514
6.35056
6.2778
6.19934
6.12127
6.05418
5.99519
5.94109
5.89059
5.84405
5.80278
5.76802
5.73558
5.68929
5.61664
5.48969
5.26279
532.557
518.779
5.28651
5.73482
6.03452
6.22366
6.35431
6.45197
6.524
6.57283
6.60084
6.61181
6.61156
6.60236
6.5841
6.55684
6.52064
6.47555
6.42157
6.35866
6.28802
6.2125
6.1388
6.07646
6.02171
5.97139
5.92409
5.88
5.84009
5.80541
5.77082
5.72111
5.64454
5.5126
5.27865
532.644
518.786
5.28946
5.7358
6.03366
6.22164
6.35174
6.44916
6.52107
6.56985
6.59798
6.6094
6.61013
6.60195
6.58476
6.55861
6.52359
6.47978
6.42723
6.36602
6.29758
6.22518
6.15614
6.0984
6.04776
6.00106
5.95688
5.91519
5.87669
5.84225
5.80572
5.75282
5.67251
5.53565
5.29478
532.731
518.793
5.2921
5.73634
6.03226
6.21901
6.34851
6.44565
6.51739
6.56609
6.59433
6.60622
6.60796
6.60081
6.58469
6.55966
6.52582
6.48329
6.43218
6.3727
6.30652
6.23734
6.17314
6.11992
6.07329
6.03012
5.98895
5.9496
5.91252
5.87845
5.84018
5.78433
5.70044
5.55878
5.31104
532.818
518.8
5.2944
5.7364
6.03028
6.21574
6.34459
6.4414
6.51296
6.56156
6.5899
6.60228
6.60505
6.59895
6.5839
6.55999
6.52734
6.48609
6.43643
6.37869
6.31481
6.24895
6.18969
6.14095
6.09826
6.05857
6.02037
5.98333
5.94771
5.91412
5.87425
5.81563
5.72833
5.58195
5.32737
532.904
518.806
5.29638
5.73602
6.02777
6.21188
6.34003
6.43648
6.50782
6.55631
6.58477
6.59767
6.60149
6.59642
6.58244
6.55964
6.52818
6.48822
6.44002
6.38405
6.32252
6.26005
6.20576
6.16144
6.12262
6.08633
6.05103
6.01627
5.98211
5.94913
5.90785
5.84667
5.7561
5.6051
5.34374
532.991
518.812
5.29803
5.73517
6.02471
6.20742
6.33483
6.43089
6.50197
6.55036
6.57898
6.59247
6.59731
6.59324
6.58029
6.55861
6.52835
6.4897
6.44298
6.38882
6.32971
6.27075
6.2214
6.18141
6.14639
6.11344
6.081
6.04849
6.0158
5.98349
5.94095
5.87739
5.78369
5.62815
5.36008
533.076
518.818
5.29937
5.73389
6.02114
6.2024
6.32904
6.42467
6.49548
6.54375
6.57261
6.58694
6.59261
6.58944
6.5775
6.55693
6.52788
6.49057
6.44539
6.39311
6.33652
6.28121
6.23671
6.20092
6.16959
6.13989
6.11026
6.08
6.04883
6.01729
5.97359
5.9078
5.81109
5.65109
5.37637
533.161
518.824
5.30035
5.73213
6.01703
6.19681
6.32266
6.41784
6.48834
6.53647
6.56553
6.58066
6.5872
6.58498
6.57408
6.55464
6.52683
6.4909
6.44732
6.39703
6.34312
6.29172
6.25186
6.22008
6.19225
6.16565
6.13871
6.11057
6.08085
6.05025
6.00562
5.93779
5.83822
5.67386
5.39256
533.245
518.83
5.30099
5.72992
6.01242
6.1907
6.31573
6.41045
6.48064
6.52863
6.55793
6.57391
6.58132
6.58003
6.57015
6.55182
6.52525
6.49073
6.44882
6.40064
6.34963
6.30246
6.267
6.23899
6.21448
6.19084
6.16651
6.14059
6.11274
6.0827
6.03711
5.96737
5.86505
5.69641
5.40861
533.33
518.836
5.30127
5.72724
6.00728
6.18403
6.30824
6.40248
6.47236
6.52021
6.54976
6.56664
6.57495
6.5746
6.56573
6.54852
6.52319
6.49011
6.44992
6.40397
6.35605
6.31337
6.28212
6.25771
6.23634
6.21552
6.19372
6.17006
6.14421
6.11462
6.06807
5.99649
5.89153
5.71869
5.42448
533.412
518.841
5.30121
5.72412
6.00165
6.17684
6.30021
6.39397
6.46353
6.51128
6.54114
6.55897
6.56823
6.56883
6.56097
6.54485
6.52076
6.48911
6.45068
6.40703
6.36233
6.3243
6.29716
6.2762
6.25784
6.23972
6.22038
6.19895
6.17512
6.14597
6.09848
6.02516
5.91763
5.74068
5.44015
533.495
518.846
5.30084
5.7206
5.99554
6.16912
6.29162
6.38488
6.45413
6.5018
6.53204
6.55092
6.56118
6.56277
6.55593
6.54091
6.51805
6.48784
6.45119
6.40989
6.36851
6.33519
6.31206
6.29446
6.27899
6.26346
6.2465
6.22725
6.20543
6.17671
6.12832
6.05334
5.94334
5.76234
5.45559
533.576
518.851
5.30023
5.71673
5.98898
6.16089
6.28246
6.3752
6.44414
6.49178
6.52248
6.54252
6.55387
6.55651
6.55073
6.53682
6.51519
6.48642
6.45158
6.41268
6.37472
6.3461
6.32687
6.31251
6.29982
6.28677
6.27208
6.25494
6.2351
6.20681
6.15757
6.08102
5.96863
5.78368
5.4708
533.656
518.856
5.29943
5.71254
5.98199
6.15213
6.27271
6.36488
6.43349
6.48114
6.5124
6.53373
6.54627
6.55006
6.54539
6.53264
6.51227
6.48498
6.45198
6.41557
6.38114
6.35711
6.34164
6.33039
6.32037
6.30969
6.29718
6.28207
6.26415
6.23625
6.18621
6.10817
5.99347
5.80465
5.48576
533.735
518.86
5.29845
5.70807
5.97458
6.14283
6.26233
6.35386
6.42213
6.46984
6.50176
6.52451
6.53837
6.5434
6.53995
6.52844
6.50939
6.48364
6.45257
6.41877
6.38807
6.36841
6.35649
6.34818
6.34067
6.33224
6.3218
6.30863
6.29257
6.26505
6.21426
6.1348
6.01787
5.82526
5.50045
533.813
518.865
5.29735
5.70332
5.96672
6.13296
6.25127
6.34207
6.40995
6.45777
6.49051
6.51476
6.53003
6.53643
6.53433
6.52416
6.50656
6.48245
6.45344
6.42244
6.39573
6.38015
6.37153
6.36595
6.3608
6.35448
6.34599
6.33466
6.32038
6.2932
6.24166
6.16086
6.04177
5.84545
5.51486
533.888
518.87
5.29611
5.6983
5.95843
6.1225
6.2395
6.32945
6.39689
6.4449
6.47878
6.5044
6.52112
6.52903
6.52843
6.51978
6.50376
6.48143
6.45464
6.42663
6.40415
6.39241
6.38684
6.38377
6.38079
6.37643
6.36977
6.36018
6.34758
6.32071
6.26847
6.18638
6.06521
5.86527
5.52898
533.963
518.874
5.2947
5.69295
5.94965
6.11143
6.22698
6.31596
6.38281
6.43094
6.46602
6.49306
6.51139
6.52099
6.52209
6.51514
6.50087
6.48049
6.45606
6.43123
6.41313
6.40505
6.40237
6.40165
6.40069
6.39816
6.3932
6.38523
6.37424
6.3476
6.29467
6.21134
6.08815
5.88466
5.54278
534.034
518.878
5.29307
5.68723
5.94038
6.09977
6.21376
6.30163
6.36777
6.41595
6.45221
6.48074
6.50079
6.51224
6.51523
6.51017
6.49784
6.47958
6.4577
6.43622
6.42256
6.41801
6.41807
6.41956
6.42047
6.41962
6.41622
6.40978
6.40029
6.37389
6.3203
6.23579
6.11064
5.90369
5.5563
534.106
518.882
5.29115
5.68108
5.93058
6.08748
6.19981
6.28645
6.35179
6.39993
6.43736
6.46738
6.48922
6.50263
6.50767
6.5047
6.49453
6.47861
6.45949
6.44155
6.43235
6.43123
6.43391
6.43748
6.44016
6.44091
6.43908
6.4344
6.42594
6.3996
6.34533
6.25967
6.13262
5.92228
5.5695
534.173
518.886
5.28891
5.6745
5.92027
6.0746
6.18519
6.27049
6.33491
6.38296
6.42151
6.45303
6.47668
6.49216
6.49939
6.49869
6.49088
6.47754
6.46143
6.44731
6.44249
6.44468
6.44987
6.45543
6.4598
6.46209
6.46182
6.4589
6.45127
6.42485
6.36987
6.2831
6.1542
5.94055
5.58246
534.241
518.89
5.28636
5.66748
5.90945
6.06115
6.1699
6.25377
6.31719
6.3651
6.40478
6.43777
6.46326
6.48083
6.49036
6.49209
6.48687
6.47637
6.4636
6.45365
6.45306
6.4584
6.46597
6.47342
6.47939
6.48315
6.48438
6.48315
6.4762
6.44959
6.39387
6.30601
6.17531
5.95842
5.59513
534.304
518.894
5.28354
5.6601
5.89817
6.04715
6.15396
6.2363
6.29868
6.34644
6.38724
6.42172
6.44904
6.46875
6.48064
6.48492
6.48247
6.47507
6.46596
6.46056
6.46405
6.47239
6.48222
6.49146
6.49894
6.50411
6.50678
6.50716
6.5008
6.47393
6.41745
6.3285
6.19604
5.97599
5.60759
534.368
518.897
5.28055
5.65241
5.88648
6.0326
6.13735
6.21807
6.27935
6.32701
6.36899
6.40498
6.43417
6.45603
6.47032
6.47724
6.4777
6.47361
6.46846
6.46792
6.47536
6.48661
6.49861
6.50954
6.51846
6.52495
6.52898
6.53087
6.525
6.4978
6.44055
6.35054
6.21636
5.9932
5.61979
534.428
518.901
5.27749
5.64453
5.87443
6.01753
6.12005
6.199
6.25918
6.30682
6.35005
6.38764
6.41873
6.44279
6.45952
6.46913
6.47259
6.47197
6.47097
6.47546
6.48681
6.50093
6.51505
6.52764
6.53793
6.5457
6.55101
6.55433
6.54886
6.52128
6.46324
6.37219
6.23631
6.01012
5.63177
534.488
518.905
5.27448
5.63657
5.86208
6.00194
6.10199
6.179
6.23807
6.28593
6.33042
6.36968
6.40281
6.42916
6.4484
6.46077
6.46732
6.47029
6.47363
6.48318
6.49837
6.5153
6.53153
6.54573
6.55736
6.56633
6.57285
6.57751
6.57236
6.54435
6.48552
6.39344
6.25591
6.02674
5.64351
534.544
518.909
5.27166
5.62864
5.84953
5.98585
6.08311
6.15789
6.21576
6.26416
6.30986
6.35095
6.38631
6.41512
6.437
6.45224
6.462
6.46871
6.47658
6.4911
6.51002
6.52972
6.54802
6.56381
6.57674
6.58687
6.59454
6.60044
6.59553
6.56705
6.50742
6.41431
6.27515
6.04305
5.65502
534.601
518.913
5.26914
5.62087
5.83686
5.96931
6.06339
6.1355
6.19187
6.24074
6.28792
6.33121
6.36913
6.40067
6.4254
6.44367
6.45681
6.46747
6.48012
6.49938
6.52186
6.54422
6.56452
6.58187
6.59606
6.60729
6.61603
6.62311
6.61837
6.58938
6.52896
6.43485
6.29408
6.05908
5.66628
534.655
518.918
5.26705
5.61339
5.82419
5.9524
6.04285
6.11184
6.16645
6.21579
6.2646
6.31036
6.35115
6.3857
6.41352
6.43505
6.45178
6.46663
6.48433
6.50807
6.53392
6.55883
6.58108
6.59995
6.61536
6.62767
6.63744
6.64559
6.64092
6.61137
6.55013
6.455
6.31264
6.07479
5.67727
534.71
518.924
5.26545
5.6063
5.8116
5.93518
6.02147
6.08675
6.13914
6.18882
6.23946
6.28804
6.33209
6.37001
6.40122
6.42625
6.44682
6.46611
6.48906
6.51709
6.54617
6.57353
6.59766
6.61799
6.63457
6.64786
6.65855
6.66775
6.66315
6.63303
6.57097
6.47486
6.33093
6.09025
5.68802
534.761
518.93
5.26442
5.59968
5.79924
5.9178
5.99939
6.0603
6.10995
6.15974
6.2123
6.26399
6.31168
6.35333
6.38826
6.41709
6.44175
6.46572
6.49404
6.52627
6.55851
6.58827
6.61427
6.63606
6.65381
6.66813
6.67993
6.68981
6.68509
6.65433
6.59143
6.4943
6.3488
6.1053
5.69842
534.814
518.936
5.26394
5.59354
5.78716
5.90035
5.97666
6.03251
6.07882
6.12837
6.18283
6.23787
6.28955
6.33533
6.37435
6.40732
6.43639
6.46532
6.49905
6.5354
6.57075
6.6029
6.63076
6.65402
6.67298
6.68839
6.7014
6.71176
6.70682
6.67537
6.61164
6.51351
6.36645
6.12016
5.7086
534.864
518.943
5.26398
5.58794
5.77546
5.88298
5.95348
6.00353
6.04582
6.09467
6.15088
6.20937
6.26533
6.31562
6.35915
6.39667
6.43054
6.4648
6.5039
6.54433
6.5828
6.61738
6.64716
6.67195
6.69217
6.7087
6.7229
6.7336
6.72829
6.69606
6.63143
6.53227
6.38364
6.13458
5.71839
534.916
518.95
5.26449
5.58285
5.76422
5.8658
5.92997
5.97352
6.01108
6.0587
6.11641
6.17837
6.23881
6.29394
6.34237
6.38486
6.42397
6.46399
6.50838
6.55283
6.59442
6.63148
6.66324
6.68964
6.7112
6.72893
6.74433
6.75534
6.7496
6.71656
6.65104
6.55086
6.40066
6.14883
5.728
534.964
518.957
5.26544
5.57829
5.75351
5.84895
5.9063
5.94264
5.97476
6.02056
6.07943
6.14477
6.20981
6.27001
6.32368
6.37154
6.41633
6.46256
6.51219
6.56069
6.60546
6.64509
6.67896
6.70708
6.73008
6.74905
6.76564
6.77687
6.77059
6.73667
6.6702
6.56895
6.41716
6.16256
5.73716
535.017
518.965
5.267
5.57448
5.7435
5.83256
5.88258
5.91103
5.93705
5.98046
6.04015
6.10873
6.17839
6.24382
6.30294
6.35647
6.40729
6.46003
6.51492
6.56752
6.61559
6.65792
6.69402
6.72402
6.74858
6.76892
6.78677
6.79824
6.79144
6.75663
6.68922
6.58692
6.43355
6.17618
5.74617
535.065
518.973
5.2693
5.57145
5.7342
5.81663
5.85883
5.87868
5.89794
5.93844
5.99864
6.07036
6.14465
6.21539
6.28013
6.33953
6.39664
6.45607
6.51627
6.5731
6.62462
6.66983
6.70836
6.74039
6.76667
6.78846
6.80757
6.81925
6.81186
6.77611
6.70772
6.60431
6.44932
6.1892
5.75466
535.118
518.982
5.27247
5.56927
5.72564
5.80118
5.83506
5.8456
5.85744
5.89447
5.95494
6.02975
6.10873
6.18488
6.25537
6.32081
6.38442
6.45052
6.51604
6.57716
6.63228
6.68054
6.72168
6.75594
6.78412
6.80752
6.82805
6.84001
6.8321
6.79546
6.72612
6.62162
6.46502
6.20213
5.76302
535.165
518.991
5.27643
5.56798
5.71792
5.78629
5.81125
5.8118
5.81556
5.84842
5.90891
5.98681
6.07059
6.15231
6.22871
6.3004
6.37075
6.44339
6.51418
6.57967
6.6385
6.68998
6.73393
6.77061
6.80085
6.82598
6.84796
6.86021
6.85175
6.81419
6.74387
6.63826
6.48001
6.21435
5.77076
535.22
519.001
5.28122
5.56758
5.71103
5.77197
5.78743
5.77704
5.77187
5.79998
5.86033
5.94139
6.03015
6.11765
6.20021
6.27839
6.35571
6.43467
6.51061
6.58046
6.64309
6.69793
6.74485
6.78415
6.81665
6.84372
6.86731
6.88
6.87111
6.83272
6.76148
6.65479
6.49493
6.2265
5.77838
535.268
519.012
5.28672
5.56798
5.705
5.75841
5.76389
5.74175
5.72662
5.74911
5.80889
5.89309
5.98703
6.08058
6.16957
6.25453
6.3391
6.42425
6.50531
6.57955
6.64607
6.7044
6.75445
6.79655
6.83148
6.86061
6.88587
6.89899
6.88967
6.85046
6.7783
6.67052
6.50901
6.23781
5.78526
535.324
519.023
5.29282
5.56911
5.69983
5.74565
5.74077
5.70607
5.67993
5.69595
5.75452
5.84172
5.94095
6.04079
6.13647
6.22844
6.32042
6.41172
6.49792
6.57663
6.64716
6.70913
6.76249
6.80754
6.84507
6.87642
6.9036
6.91737
6.90778
6.86789
6.7949
6.68609
6.52299
6.24905
5.79202
535.372
519.035
5.29936
5.57084
5.69548
5.73382
5.71837
5.67044
5.6321
5.6404
5.69698
5.78697
5.8916
5.99795
6.10058
6.19981
6.29934
6.39685
6.4883
6.57162
6.64631
6.71208
6.7689
6.81709
6.85745
6.89136
6.92027
6.93466
6.92485
6.88432
6.81054
6.70071
6.536
6.25933
5.79793
535.43
519.046
5.3062
5.57304
5.69191
5.723
5.69695
5.63529
5.58365
5.58294
5.63666
5.7288
5.83874
5.95177
6.06159
6.16831
6.27547
6.37928
6.4761
6.5642
6.64323
6.713
6.7735
6.82509
6.86856
6.90534
6.93604
6.95118
6.94129
6.90027
6.82584
6.7151
6.54889
6.26955
5.80374
535.479
519.058
5.31322
5.5756
5.68903
5.71322
5.67674
5.60104
5.53506
5.52381
5.5733
5.66698
5.78216
5.90205
6.01932
6.13383
6.24868
6.35892
6.4613
6.55437