/*--------------------------------*- C++ -*----------------------------------*\
| =========                 |                                                 |
| \\      /  F ield         | OpenFOAM: The Open Source CFD Toolbox           |
|  \\    /   O peration     | Version:  v1906                                 |
|   \\  /    A nd           | Web:      www.OpenFOAM.com                      |
|    \\/     M anipulation  |                                                 |
\*---------------------------------------------------------------------------*/
FoamFile
{
    version     2.0;
    format      ascii;
    class       volScalarField;
    location    "0.37/sphere";
    object      T;
}
// * * * * * * * * * * * * * * * * * * * * * * * * * * * * * * * * * * * * * //

dimensions      [0 0 0 1 0 0 0];


internalField   nonuniform List<scalar> 
7664
(
485.126
485.828
485.352
486.783
484.99
485.589
487.851
489.136
490.681
488.364
485.335
490.032
491.41
489.282
488.491
490.071
487.704
487.777
489.43
487.215
485.716
490.611
492.162
489.87
486.592
491.359
492.922
490.75
485.371
485.504
490.011
491.567
489.229
488.359
487.189
488.269
489.836
487.264
484.907
489.179
490.689
488.439
487.41
489.187
486.645
485.3
485.266
485.304
485.199
485.269
485.192
486.788
485.454
489.763
488.324
490.517
489.257
488.353
490.696
489.366
485.868
485.228
486.885
485.486
489.36
489.793
488.356
486.88
485.503
485.829
485.179
485.236
485.231
485.212
485.228
485.066
485.181
485.182
485.032
485.239
485.213
485.077
485.202
486.463
485.591
487.139
487.481
489.169
485.595
487.172
489.196
487.605
486.651
484.923
487.116
484.909
488.254
485.781
485.354
486.697
488.199
489.739
489.181
490.51
485.653
486.157
485.965
487.539
487.327
487.006
487.736
484.98
487.248
488.349
485.012
484.936
484.915
488.241
487.063
486.693
485.141
485.774
489.164
490.494
488.154
489.67
485.453
485.812
485.183
490.502
489.244
489.694
488.244
488.335
485.011
487.182
486.409
485.578
487.411
489.075
487.032
489.092
487.511
487.054
486.595
488.523
488.562
487.491
487.109
485.519
489.125
487.824
488.584
490.158
487.786
489.38
490.111
491.62
486.945
490.178
488.732
489.428
487.882
491.641
490.243
487.773
487.222
489.276
485.667
485.143
488.192
485.331
489.144
485.714
489.662
486.602
490.427
485.217
489.291
485.473
489.877
485.903
490.744
486.973
485.368
485.142
489.132
488.132
486.594
490.416
485.705
489.615
485.474
488.292
485.197
490.738
486.971
489.836
485.894
485.37
487.396
485.504
489.036
487.008
490.054
487.67
490.006
491.514
487.64
489.203
488.633
487.694
486.814
491.544
490.175
489.246
487.723
489.215
485.628
487.083
488.324
488.355
488.526
488.564
487.093
485.511
489.105
487.495
489.384
490.111
491.619
487.82
488.577
490.19
487.88
491.645
490.242
487.834
486.959
490.211
488.721
489.265
485.662
487.787
485.142
489.664
486.598
490.438
488.201
485.325
489.151
485.907
490.753
486.976
488.402
485.21
489.383
485.486
485.369
485.141
490.424
485.696
489.608
485.321
489.135
488.14
486.974
489.847
485.881
489.386
485.487
488.367
485.212
489.05
486.984
487.408
491.527
487.648
489.207
488.498
490.11
487.673
490.194
489.254
487.721
490.146
488.702
487.684
486.822
485.626
487.09
487.757
488.326
486.498
487.169
487.515
489.216
485.625
489.233
487.614
485.632
486.675
487.158
484.909
488.241
484.935
489.816
489.189
490.68
485.146
485.836
485.369
486.787
488.44
485.007
485.011
488.233
487.064
484.916
490.671
488.174
489.761
485.367
486.786
485.118
485.79
485.012
487.263
485.014
486.392
489.151
487.052
485.582
487.579
487.063
485.597
485.035
484.922
484.665
484.993
484.892
484.895
484.82
484.906
484.828
484.911
484.81
485.027
484.905
484.883
484.714
485.05
484.96
484.81
485.183
485.203
485.043
484.901
484.787
485.02
484.901
485.422
485.239
485.663
487.104
485.927
486.568
486.31
485.335
485.989
485.851
487.394
486.899
486.615
487.54
485.68
486.225
486.018
487.63
487.401
487.049
487.839
485.434
485.259
485.691
487.184
485.958
486.618
486.373
485.351
486.051
485.884
487.495
486.983
486.693
487.657
486.066
485.367
485.888
487.489
486.991
487.664
486.681
486.198
485.653
485.986
487.605
487.359
487.812
487.009
485.255
485.406
485.67
487.165
485.945
486.369
486.574
484.909
484.725
485.093
484.995
484.842
485.092
484.978
484.809
484.894
485.339
485.145
485.534
486.966
485.852
486.505
486.193
485.377
485.551
485.049
485.784
487.228
485.219
486.783
485.633
487.396
486.492
484.947
485.987
485.14
485.143
485.837
485.807
485.576
485.992
485.46
486.033
486.66
486.429
486.131
488.491
487.192
487.068
487.203
487.771
487.717
487.752
489.242
487.622
488.727
488.499
488.384
488.241
489.482
486.408
486.606
487.047
486.736
485.741
485.031
485.216
486.095
486.311
485.388
487.155
486.748
485.195
485.752
486.458
487.351
485.59
484.914
484.822
485.773
485.553
485.934
486.619
486.563
486.95
488.478
486.129
487.279
487.655
487.683
489.131
488.429
488.657
487.525
489.413
488.156
488.279
489.751
489.176
490.252
489.049
490.008
488.772
489.988
486.645
487.774
487.038
486.761
487.529
487.331
487.202
485.952
485.522
487.584
486.839
485.742
485.099
484.962
487.592
487.997
486.276
486.206
487.832
487.752
485.946
485.31
485.243
485.109
485.992
486.594
485.362
486.078
486.35
487.661
488.174
488.097
487.907
486.366
486.516
486.963
486.645
487.016
487.741
487.507
486.741
484.997
485.268
485.454
487.956
486.181
486.745
485.742
486.24
486.788
485.471
485.059
485.885
484.819
485.711
485.066
486.532
488.36
486.76
486.39
487.546
487.192
486.009
485.764
485.867
486.214
485.835
484.685
484.951
485.064
484.794
484.894
485.731
486.142
485.744
485.859
485.615
486.053
485.461
486.698
486.076
486.186
486.462
486.311
486.53
486.947
486.607
486.975
487.715
486.731
487.443
486.604
486.43
486.845
488.42
486.067
487.242
487.645
485.474
486.716
486.499
486.086
486.19
485.669
486.089
485.888
486.623
487.017
487.728
486.732
487.485
486.395
486.576
487.01
486.498
488.505
487.271
486.648
486.968
486.124
487.736
485.804
486.271
485.879
485.89
484.99
485.308
485.483
484.802
485.072
485.94
485.761
485.106
484.98
485.282
485.433
485.622
486.1
486.057
487.781
485.367
486.646
486.567
485.071
484.812
485.904
485.093
485.728
486.019
485.59
487.282
485.801
487.675
487.422
486.944
485.21
485.81
485.648
487.239
486.791
486.479
487.41
484.91
485.994
485.838
485.126
485.149
486.163
487.896
486.681
485.697
486.209
485.432
486.744
485.078
485.387
485.583
485.137
484.929
486.015
485.148
485.838
485.063
484.853
485.931
485.1
485.755
485.016
485.295
485.483
485.056
485.893
484.827
485.085
485.716
484.996
485.278
485.442
485.61
486.069
487.743
486.021
486.614
485.365
486.551
486.257
486.386
488.106
487.674
485.998
487.83
487.943
486.946
485.151
485.345
485.825
485.526
486.205
486.444
486.021
487.386
485.574
487.245
485.787
487.652
486.874
485.99
485.333
486.896
485.825
487.538
487.378
486.626
486.143
485.63
485.937
487.496
487.28
487.702
486.944
485.228
485.395
485.626
487.072
485.892
486.323
486.512
485.072
485.35
485.559
485.13
486.006
484.921
485.146
485.825
485.678
486.109
487.85
486.172
486.657
485.422
486.708
485.069
485.383
485.561
485.692
485.686
486.074
486.023
485.42
486.653
486.4
486.13
486.51
486.348
488.33
486.778
487.123
486.016
487.558
486.268
486.442
486.844
486.514
487.59
486.853
486.633
487.327
485.822
485.617
486.021
486.55
486.415
488.397
486.879
487.167
486.071
487.628
486.519
487.595
486.886
486.628
487.355
486.294
486.488
486.903
485.763
485.83
486.203
485.823
487.831
487.826
488.25
488.223
487.986
487.889
488.284
488.372
488.083
487.964
487.753
486.314
486.516
486.925
485.825
485.58
485.949
486.585
486.864
486.404
488.4
486.054
487.641
487.151
486.565
486.934
487.663
487.407
486.681
486.013
485.355
486.638
486.374
486.133
489.146
487.555
488.701
488.454
488.312
488.168
489.442
489.135
487.55
488.431
488.662
488.168
488.292
489.417
489.669
488.993
488.976
490.214
488.657
489.943
489.933
488.745
487.286
487.242
487.337
487.904
487.853
487.944
489.75
489.041
489.176
490.25
488.769
489.986
490.007
489.251
487.637
488.559
488.793
488.284
488.428
489.526
486.696
487.044
486.606
488.568
486.198
487.761
487.354
485.921
485.675
486.13
486.651
487.044
487.776
487.526
486.76
486.135
485.533
486.801
486.55
486.234
484.641
484.805
484.937
484.979
484.766
487.172
485.18
486.752
485.757
486.459
485.583
487.356
487.326
485.512
487.2
485.942
486.827
485.726
487.58
487.611
486.21
486.281
488.009
485.932
487.773
487.851
487.184
485.953
485.254
485.436
486.388
486.618
485.685
487.481
485.343
486.953
486.044
486.658
485.886
487.642
487.652
485.698
487.446
486.283
487.077
486.028
487.906
487.963
486.707
486.792
488.405
486.415
488.124
488.224
484.912
484.817
485.083
484.932
485.24
485.301
485.092
484.685
484.932
484.978
484.757
484.821
486.708
485.048
485.722
485.223
486.078
485.377
486.297
487.582
486.205
488
486.26
487.763
485.93
487.824
487.283
485.51
485.921
487.163
485.699
486.802
487.543
487.46
486.945
485.326
486.054
486.634
487.637
485.875
487.146
485.232
485.919
485.408
486.32
485.673
486.574
487.942
486.705
488.4
486.786
488.117
486.41
488.207
487.625
485.676
486.28
487.412
486.038
487.035
487.882
485.241
485.306
485.098
485.106
484.952
486.5
486.346
486.75
488.306
486.003
487.118
487.519
486.258
486.424
486.826
485.985
485.362
486.594
486.351
486.079
486.496
486.819
487.561
487.306
486.599
488.369
486.971
487.09
487.065
487.657
487.63
487.576
489
488.559
487.42
488.282
488.182
489.287
488.007
488.982
487.399
488.524
488.25
488.146
488
489.253
489.513
488.816
490.059
488.793
489.792
488.48
489.765
489.088
488.578
487.473
488.317
488.241
489.317
488.075
488.605
487.128
487.155
487.188
487.776
487.812
487.712
489.593
488.852
490.095
488.997
489.823
488.598
489.856
489.102
487.489
488.659
488.383
488.284
488.118
489.38
485.879
485.643
486.077
486.314
486.516
486.936
486.082
485.489
486.74
486.483
486.168
486.559
486.896
487.656
487.398
486.666
487.662
487.611
488.054
488.038
487.813
488.081
488.168
487.892
487.768
487.563
487.825
488.227
488.262
487.999
487.841
488.373
488.288
488.09
487.962
487.769
487.892
486.567
487.668
486.921
486.682
487.41
486.01
486.642
485.377
486.139
486.373
486.327
486.517
486.927
485.796
485.583
485.963
486.562
488.39
486.862
486.385
487.648
487.138
486.064
489.677
488.982
490.216
489.007
489.934
488.664
489.949
488.504
487.18
487.212
487.072
487.72
487.749
487.783
489.163
488.455
487.571
488.706
488.187
489.443
488.332
489.256
488.555
488.793
487.637
489.526
488.286
488.434
489.231
488.483
487.604
488.725
488.226
489.472
488.372
488.746
487.345
487.291
487.231
487.85
487.962
487.9
486.137
486.797
485.51
486.236
486.539
486.415
486.616
487.069
486.694
488.575
487.053
486.608
487.796
487.321
486.203
485.924
485.695
486.121
484.823
484.989
484.921
484.78
484.634
487.626
486.301
488.007
486.21
487.86
485.973
487.765
486.725
485.22
485.737
485.039
486.328
485.384
486.11
487.186
485.75
485.207
486.745
485.605
487.35
486.496
487.662
487.448
486.287
485.701
487.907
487.068
486.048
487.978
486.796
488.41
486.718
488.227
486.433
488.142
487.194
485.442
485.966
485.253
486.618
485.698
486.369
487.504
486.059
485.345
486.986
485.901
487.672
486.678
485.308
485.242
485.109
484.918
484.837
484.987
484.923
484.783
484.838
484.647
487.294
485.936
487.158
485.502
487.549
485.725
486.8
487.148
485.747
486.738
485.197
487.338
485.592
486.448
486.692
485.225
485.036
485.725
485.384
486.279
486.087
487.967
488.406
486.791
486.716
488.215
488.139
486.426
487.639
486.276
487.409
485.665
487.885
486.034
487.016
487.498
486.063
486.987
485.339
487.672
485.898
486.658
487.174
485.421
485.232
485.933
485.689
486.575
486.339
485.095
484.962
484.921
484.837
486.502
487.565
486.823
486.596
487.324
485.778
485.559
485.929
486.529
488.319
486.343
486.774
487.089
487.563
485.999
486.242
486.435
486.834
488.988
488.53
488.268
487.411
489.266
488.169
488.002
489.516
490.063
488.808
488.826
489.776
489.8
488.473
488.347
487.073
486.966
487.072
487.636
487.539
487.646
488.998
488.284
488.577
487.43
489.298
488.004
488.189
489.629
490.107
489.005
488.886
489.869
489.857
488.612
489.13
488.666
488.381
487.49
489.389
488.312
488.125
489.121
488.317
488.605
487.467
489.345
488.09
488.256
488.634
487.206
487.142
487.158
487.845
487.715
487.793
486.08
486.737
485.453
486.17
486.467
486.568
487.665
486.916
486.67
487.421
486.626
488.523
486.584
486.996
487.305
487.699
486.156
485.867
485.65
486.075
486.323
486.521
486.962
488.041
488.063
487.799
487.667
487.764
487.565
487.7
486.157
485.745
485.755
486.602
486.982
487.72
487.461
486.73
486.616
486.872
488.464
486.453
487.692
486.074
487.235
485.866
485.624
486.055
486.754
485.476
486.095
486.208
486.484
486.412
486.587
487.028
488.531
486.493
487.282
486.658
486.982
487.762
486.151
485.508
486.761
486.508
486.111
486.21
485.67
486.107
485.884
485.81
486.269
485.884
485.899
485.616
486.07
487.793
486.133
486.583
485.381
486.654
485.05
484.838
485.884
485.729
485.064
484.997
485.324
485.498
484.843
485.066
485.918
485.754
485.076
485.367
485.171
485.577
487.034
485.872
486.529
486.233
486.097
487.37
485.629
487.783
485.854
487.509
486.989
485.246
485.848
485.703
487.318
486.817
486.531
487.479
485.1
485.404
485.594
485.163
484.922
486.046
485.878
485.172
485.386
485.59
485.081
484.932
486.03
485.863
485.144
485.161
485.004
485.291
485.443
485.615
487.748
486.055
486.038
486.586
486.588
485.354
484.846
485.075
485.932
485.087
485.772
485.004
485.315
485.491
485.806
485.257
485.679
487.304
486.821
487.464
486.547
485.17
485.357
485.569
487.01
485.856
486.25
486.465
486.082
487.316
485.586
487.76
485.825
487.476
486.917
485.159
486.044
484.905
485.848
485.174
487.933
486.171
486.718
485.713
486.221
486.751
485.441
485.08
485.382
485.568
484.912
486.037
485.864
485.153
485.164
485.387
485.579
485.071
485.697
486.079
485.686
486.268
486.439
486.849
486.518
487.606
486.861
487.336
486.638
485.827
485.586
486.014
486.696
485.415
486.044
486.429
486.137
488.494
486.524
487.3
486.631
486.881
487.671
486.098
486.555
487.63
486.891
487.39
486.647
486.33
486.492
486.922
485.463
486.72
486.466
486.055
486.149
485.665
486.069
485.857
486.586
486.6
488.169
486.289
487.958
487.792
487.992
490.666
490.046
491.419
490.612
492.142
491.366
492.904
489.278
491.423
490.144
492.16
490.772
492.918
491.61
488.861
488.475
487.146
489.149
487.768
488.033
489.577
491.407
489.075
490.584
491.352
492.891
490.533
492.061
490.129
490.6
489.192
492.908
491.605
492.086
490.73
488.744
488.218
489.129
489.993
488.053
488.907
489.834
489.315
489.295
487.713
489.262
488.591
490.02
488.559
489.895
489.854
489.394
490.799
489.173
490.58
490.116
492.14
491.374
492.909
489.163
490.722
490.047
491.576
490.769
492.926
491.62
490.741
489.306
491.585
490.246
488.972
488.767
490.318
489.632
489.207
488.523
490.083
492.901
490.532
492.073
490.032
491.571
489.085
490.666
491.621
492.108
490.747
491.585
490.246
490.701
489.292
489.264
489.679
490.594
490.52
489.503
489.43
490.363
489.82
490.756
489.345
489.778
490.069
490.52
489.102
490.44
491.338
490.896
491.345
490.667
491.112
490.668
487.061
488.114
488.537
488.99
487.233
487.867
488.287
488.356
489.051
488.765
487.079
489.491
487.93
487.658
488.946
489.611
490.279
488.724
490.066
488.501
489.152
488.63
489.895
489.012
488.112
489.741
488.782
487.956
489.225
490.489
490.539
489.592
490.332
489.389
489.431
488.265
487.373
487.188
486.012
487.378
487.19
486.116
488.965
488.099
487.864
487.055
488.505
488.258
487.216
486.606
486.591
486.314
487.82
488.178
488.015
487.965
488.833
488.646
489.543
490.161
488.435
489.035
489.951
488.38
487.114
489.072
488.801
487.951
487.694
489.496
489.099
489.437
490.411
490.317
489.307
489.232
490.196
488.665
488.171
489.098
489.902
488.019
488.804
489.759
488.48
489.121
488.879
487.13
489.594
488.005
487.775
489.238
490.563
490.487
489.605
490.345
489.452
489.391
488.798
489.21
490.047
488.279
489.9
488.127
488.945
486.698
486.679
486.381
487.934
488.318
488.14
488.099
488.784
490.043
489.185
488.277
489.879
488.947
488.109
488.92
490.246
489.588
488.687
490.044
489.121
488.472
488.458
488.863
489.122
487.141
489.578
487.759
487.995
486.678
486.69
486.368
487.921
488.309
488.096
488.127
488.056
487.053
488.538
488.917
487.246
487.814
488.259
488.083
488.975
487.85
487.076
488.559
487.259
488.315
485.894
487.235
488.1
487.201
487.059
486.006
487.017
486.393
486.286
488.115
486.034
487.962
487.707
487.852
488.273
487.023
488.99
488.71
487.887
487.605
489.399
488.611
490.14
488.997
488.754
489.499
488.382
489.898
488.548
488.095
489.032
489.831
487.925
488.709
489.683
489.407
490.395
489.276
489.025
490.286
489.172
490.151
487.291
488.196
487.124
485.97
487.311
486.059
487.144
485.886
487.223
487.19
488.072
486
487.041
486.998
488.54
488.083
489.819
489.006
488.695
487.922
489.666
489.392
488.988
490.261
490.358
489.146
489.245
490.108
488.248
486.977
488.69
488.918
487.594
487.813
489.377
488.7
488.554
490.084
489.403
488.953
488.298
489.831
489.424
490.312
489.223
489.066
490.367
489.268
490.172
488.164
489.899
488.799
488.656
489.089
488.016
489.76
488.778
488.579
490.104
489.472
488.982
488.364
489.9
488.345
487.044
488.757
488.994
487.671
487.884
489.456
487.28
485.955
487.304
488.175
486.057
487.109
487.126
486.956
487.975
488.819
488.421
487.713
487.148
488.152
486.976
487.986
488.87
488.432
487.749
487.15
488.193
487.045
488.895
488.496
488.004
488.243
487.753
487.212
489.43
487.815
489.365
489.373
488.686
488.684
490.116
489.958
489.505
489.889
490.896
489.229
490.23
490.632
489.931
489.864
489.464
490.86
489.204
490.601
490.198
490.459
491.383
490.975
491.374
490.728
491.118
490.719
489.964
490.036
489.528
490.919
489.302
490.26
490.701
489.489
489.549
487.956
489.508
488.806
488.83
490.227
490.53
491.41
491.003
491.412
490.762
491.181
490.77
490.046
490
489.589
490.954
489.339
490.713
490.297
487.138
489.048
488.619
488.173
488.367
487.94
487.307
488.215
486.973
488.678
488.943
487.545
487.781
489.377
488.51
488.989
488.044
489.797
487.885
489.661
488.662
488.669
489.416
488.53
490.059
488.281
489.831
488.902
488.948
490.229
490.315
489.301
490.097
489.095
489.173
489.154
488.77
488.225
490.002
488.078
489.864
488.914
488.971
489.65
488.771
490.324
488.538
490.086
489.209
489.256
490.483
490.607
489.676
490.35
489.403
489.517
488.485
488.036
488.957
489.786
487.867
488.655
489.623
488.181
488.635
486.937
488.905
487.519
489.331
487.762
488.915
490.217
489.292
490.282
489.085
490.058
489.145
488.622
489.378
490.015
488.483
489.779
488.244
488.861
488.422
488.803
487.092
489.07
487.709
489.517
487.963
489.226
490.471
489.67
490.583
489.394
490.314
489.494
488.924
489.575
490.292
488.725
490.03
488.472
489.176
486.936
488.792
487.935
488.393
487.693
488.124
487.112
489.827
489.8
489.377
490.781
489.116
490.527
490.092
489.8
489.752
490.741
489.339
490.497
489.074
490.057
490.324
491.276
491.247
490.843
491.009
490.598
490.57
489.415
489.379
487.844
489.398
488.687
490.109
488.705
490.39
491.296
491.316
490.877
491.059
490.624
490.648
489.908
489.89
490.864
489.482
490.587
489.209
490.18
487.049
488.95
488.108
488.526
487.849
488.253
487.23
486.991
488.484
487.991
488.867
487.184
488.227
487.729
489.932
489.462
490.857
489.867
490.195
489.203
490.603
490.466
490.976
491.373
491.381
490.72
490.728
491.126
489.436
489.363
487.806
489.413
488.678
490.118
488.716
489.977
490.908
489.522
489.948
490.233
490.662
489.266
490.532
491.005
491.415
491.414
490.771
490.762
491.188
490.061
489.589
490.959
490.022
490.301
489.355
490.736
489.989
490.027
490.928
489.541
490.256
490.703
489.307
489.501
489.552
489.521
487.925
488.845
490.234
488.806
487.118
488.609
488.159
489.039
487.298
488.367
487.909
488.67
488.53
490.063
489.42
488.903
488.287
489.835
488.952
490.325
489.309
490.227
489.182
490.104
489.09
488.221
488.945
486.972
488.694
487.795
489.386
487.559
488.524
489.803
489.011
488.049
489.678
488.659
487.909
489.271
490.609
489.683
490.516
489.519
490.367
489.43
488.923
488.5
489.159
487.181
488.032
489.624
487.801
489.236
488.811
490.07
488.294
489.921
488.964
488.135
488.913
489.297
490.287
490.211
489.15
489.076
490.054
488.622
490.011
488.478
489.353
488.861
489.771
488.232
488.469
489.783
488.036
488.978
488.643
489.622
487.866
488.165
488.875
488.666
486.942
489.327
487.729
487.529
488.951
490.3
488.731
489.615
489.183
490.07
488.488
489.225
488.803
490.072
488.292
488.964
489.915
488.114
488.89
488.474
489.13
487.135
489.59
488.006
487.761
486.994
487.942
488.402
488.82
487.136
487.701
488.162
490.329
491.261
490.85
491.29
490.581
491.012
490.609
489.315
489.283
489.299
487.722
490.027
488.582
488.585
489.826
490.814
489.815
489.415
490.524
490.114
489.122
489.959
490.884
489.499
489.945
490.198
490.64
489.258
489.918
489.94
490.862
489.448
490.64
490.162
489.214
489.443
489.465
489.457
487.879
490.168
488.757
488.726
488.111
487.068
488.562
488.968
488.296
487.265
487.845
489.009
488.122
487.879
487.094
488.577
488.336
487.272
485.882
488.098
487.194
487.211
487.02
487.054
485.975
490.255
488.702
489.118
488.86
489.557
489.994
488.446
488.639
489.056
489.909
488.112
489.767
487.967
488.791
490.542
489.566
489.416
489.146
490.418
490.274
489.297
486.467
488.247
486.343
488.076
486.103
487.801
487.95
488.286
487.369
487.195
486.018
487.382
487.214
486.115
485.877
487.189
488.071
487.212
487.009
485.976
487.036
490.525
489.559
489.41
489.122
490.396
490.241
489.278
488.321
488.69
488.989
487.006
489.442
487.616
487.88
490.216
488.651
489.084
488.807
489.493
489.942
488.378
486.487
488.243
486.319
488.083
486.069
487.785
487.937
488.063
486.991
488.869
488.473
488.175
487.781
487.195
489.914
489.619
489.908
490.329
490.652
490.318
491.046
490.483
491.077
490.868
491.428
491.217
491.587
491.799
490.726
489.887
490.709
490.583
490.559
491.282
491.423
491.214
491.281
491.083
491.787
492.124
491.922
491.995
491.372
491.01
490.389
491.137
490.786
491.526
491.752
491.938
491.931
491.712
492.092
492.549
492.327
492.313
491.222
491.144
491.003
491.732
492.084
491.955
491.865
492.339
492.719
492.785
492.688
492.577
492.483
492.547
491.064
490.428
491.409
490.827
491.155
491.541
491.785
489.924
490.736
490.723
490.61
490.596
491.315
491.437
491.311
491.188
491.073
491.784
492.125
492.021
491.896
490.387
491.375
491.008
491.132
490.781
491.518
491.751
491.902
491.889
491.642
492.027
492.529
492.286
492.269
491.159
491.257
491.042
491.765
492.089
491.877
491.985
492.273
492.63
492.779
492.61
492.527
492.389
492.506
490.019
489.743
490.412
490.055
490.751
490.468
491.129
491.32
491.22
491.11
491.82
492.138
492.034
491.931
490.022
490.803
490.669
490.873
490.742
491.383
491.513
491.925
491.934
491.701
492.082
492.547
492.306
492.322
490.551
491.476
491.208
491.238
490.973
491.63
491.871
492.324
492.648
492.798
492.696
492.546
492.438
492.572
491.363
491.481
491.235
491.885
492.266
492.015
492.134
491.177
491.274
491.037
491.751
492.112
491.886
491.985
489.577
489.853
489.838
490.292
490.272
490.578
490.996
491.004
490.345
491.319
490.758
491.075
491.478
491.719
491.145
491.213
490.999
491.727
492.076
491.862
491.942
492.234
492.61
492.6
492.741
492.377
492.481
492.466
490.312
490.948
491.282
490.726
491.049
491.458
491.679
491.817
491.791
491.558
491.961
492.468
492.216
492.196
490.794
489.997
490.859
490.656
490.714
491.364
491.503
491.017
490.398
491.333
490.808
491.119
491.516
491.73
489.684
489.932
489.967
490.362
490.406
490.659
491.071
492.281
492.628
492.697
492.763
492.427
492.496
492.55
491.348
491.469
491.203
491.858
492.267
492.005
492.128
491.832
491.857
491.599
492.005
492.493
492.23
492.272
490.469
491.183
491.417
490.913
491.143
491.57
491.843
491.889
491.905
491.654
492.043
492.529
492.273
492.297
491.263
491.161
491.046
491.769
492.097
491.99
491.885
492.287
492.785
492.617
492.681
492.513
492.554
492.404
489.911
489.97
489.647
490.666
490.328
490.393
491.064
491.156
491.437
490.49
491.196
490.903
491.588
491.838
490.725
489.935
490.789
490.601
490.664
491.322
491.446
491.44
491.308
491.177
491.841
492.24
492.105
491.966
491.48
491.206
490.559
491.261
490.98
491.65
491.875
492.347
492.803
492.713
492.695
492.582
492.566
492.481
491.488
491.396
491.26
491.917
492.281
492.144
492.052
490.534
491.173
490.954
491.455
491.237
491.627
491.848
490.056
489.812
490.491
490.078
490.775
490.521
491.182
491.453
491.373
491.235
491.895
492.252
492.116
492.036
490.117
490.929
490.784
490.945
490.808
491.461
491.6
492.237
492.605
492.758
492.666
492.476
492.381
492.519
490.949
491.293
490.313
490.724
491.063
491.463
491.691
491.803
491.832
491.557
491.963
492.484
492.208
492.242
490.707
490.772
489.894
490.562
490.622
491.287
491.426
491.424
491.287
491.139
491.797
492.228
491.943
492.083
489.835
489.593
489.889
490.275
490.587
490.332
491.003
491.122
491.369
490.402
491.085
490.847
491.51
491.795
491.485
491.399
491.256
491.915
492.287
492.15
492.056
491.878
491.88
491.652
492.061
492.517
492.297
492.281
491.198
491.433
490.52
490.968
491.191
491.626
491.862
491.379
491.441
491.231
491.896
492.247
492.041
492.106
490.93
490.104
490.776
490.948
490.805
491.46
491.604
491.151
490.506
490.947
491.414
491.195
491.612
491.828
489.791
490.038
490.483
490.037
490.493
490.729
491.161
483.496
481.167
479.271
483.681
481.381
479.522
483.594
481.269
479.401
483.673
481.335
479.431
483.254
480.924
479.062
483.245
480.925
479.066
483.262
480.937
479.078
483.887
481.65
479.842
484.109
481.902
480.127
486.419
484.619
483.058
483.274
480.949
479.09
486.336
484.53
482.967
485.961
484.038
482.384
485.647
483.629
481.938
483.592
481.256
479.347
483.194
480.832
478.944
483.776
481.539
479.731
484.016
481.812
480.037
487.146
485.816
484.807
485.942
484.022
482.371
485.639
483.617
481.917
483.183
480.857
478.992
483.221
480.884
479.025
483.146
480.785
478.896
483.147
480.77
478.859
483.144
480.765
478.853
483.123
480.75
478.839
483.159
480.801
478.912
483.761
481.464
479.611
483.797
481.491
479.62
483.666
481.343
479.481
483.627
481.373
479.576
483.719
481.483
479.686
483.118
480.745
478.831
483.119
480.763
478.875
483.161
480.808
478.924
483.206
480.874
479.01
483.144
480.767
478.835
483.16
480.793
478.89
483.203
480.824
478.895
483.159
480.789
478.883
483.136
480.781
478.895
484.093
481.805
479.932
485.58
483.559
481.859
484.089
481.807
479.94
485.619
483.596
481.895
483.212
480.873
479.004
483.218
480.872
478.998
483.666
481.344
479.434
483.236
480.902
479.03
483.258
480.917
479.033
483.281
480.938
479.065
483.241
480.909
479.054
483.223
480.888
479.031
483.649
481.392
479.594
483.76
481.527
479.748
483.26
480.931
479.068
483.293
480.959
479.097
484.103
481.897
480.126
485.789
483.917
482.335
485.51
483.552
481.941
485.824
483.952
482.369
485.535
483.576
481.96
487.355
486.045
485.056
487.379
486.069
485.078
485.567
483.536
481.832
483.999
481.715
479.845
485.649
483.63
481.941
483.898
481.586
479.685
484.132
481.852
479.986
483.101
480.731
478.819
483.282
480.929
479.05
483.703
481.358
479.444
483.184
480.806
478.897
483.112
480.761
478.876
483.597
481.337
479.537
483.79
481.559
479.795
483.727
481.452
479.622
483.196
480.834
478.947
484.018
481.817
480.049
485.758
483.886
482.299
485.485
483.521
481.906
486.237
484.47
482.964
486.21
484.445
482.943
485.437
483.469
481.871
485.637
483.726
482.131
486.219
484.441
482.939
483.893
481.657
479.85
484.109
481.904
480.126
485.833
483.961
482.381
485.543
483.588
481.98
487.132
485.807
484.811
487.145
485.816
484.813
487.355
486.043
485.049
487.379
486.068
485.075
485.529
483.498
481.794
483.985
481.703
479.834
485.573
483.551
481.882
485.556
483.533
481.849
483.889
481.577
479.681
484.114
481.833
479.964
483.102
480.731
478.819
483.553
481.228
479.345
483.639
481.316
479.445
483.271
480.917
479.039
483.184
480.805
478.896
483.107
480.756
478.871
483.715
481.438
479.602
483.285
480.943
479.079
483.601
481.337
479.539
483.822
481.583
479.803
483.675
481.409
479.6
485.715
483.843
482.255
485.434
483.474
481.863
486.233
484.472
482.975
486.209
484.432
482.93
486.217
484.459
482.97
485.45
483.488
481.892
485.663
483.761
482.178
485.419
483.456
481.855
484.116
481.912
480.146
485.554
483.601
481.993
487.132
485.805
484.802
485.607
483.581
481.881
483.843
481.533
479.637
484.107
481.823
479.949
483.875
481.567
479.669
484.122
481.841
479.981
483.224
480.872
478.992
483.197
480.858
478.978
483.217
480.867
478.995
483.235
480.895
479.009
483.261
480.918
479.044
483.26
480.92
479.038
483.265
480.919
479.043
483.146
480.824
478.957
483.188
480.857
478.998
483.714
481.483
479.703
483.281
480.95
479.094
483.272
480.94
479.075
485.826
483.96
482.384
485.53
483.572
481.958
483.855
481.618
479.81
484.093
481.888
480.121
485.523
483.567
481.958
484.104
481.898
480.126
483.259
480.907
479.001
483.381
481.045
479.218
483.135
480.821
479.015
483.008
480.685
478.81
483.236
480.883
478.965
483.375
481.042
479.218
483.162
480.81
478.918
483.142
480.788
478.897
483.127
480.791
478.919
483.305
481.005
479.216
483.297
481
479.169
483.366
481.074
479.294
483.24
480.896
479.001
483.357
481.025
479.213
483.027
480.697
478.822
483.187
480.862
479.054
483.147
480.787
478.863
483.071
480.725
478.82
483.181
480.83
478.947
483.222
480.894
479.034
483.18
480.842
478.972
483.269
480.979
479.202
483.31
481.017
479.193
483.365
481.08
479.301
483.895
481.594
479.731
483.53
481.198
479.34
483.86
481.559
479.701
483.552
481.218
479.365
483.556
481.274
479.475
483.835
481.601
479.836
483.213
480.871
478.981
483.355
481.023
479.199
483.215
480.885
479.065
483.02
480.689
478.812
483.165
480.803
478.877
483.082
480.733
478.827
483.162
480.851
478.999
483.081
480.748
478.869
483.345
481.068
479.293
483.235
480.956
479.149
483.371
481.1
479.337
483.799
481.501
479.637
483.456
481.113
479.25
483.739
481.435
479.575
483.93
481.643
479.776
483.453
481.111
479.208
483.574
481.253
479.398
483.423
481.085
479.192
483.31
480.999
479.131
483.352
481.039
479.184
483.341
481.035
479.206
483.297
480.993
479.15
483.49
481.197
479.399
483.418
481.118
479.274
483.401
481.093
479.249
483.336
481.011
479.148
484.267
482.086
480.32
484.346
482.183
480.456
484.509
482.374
480.644
484.197
482.011
480.254
484.008
481.8
480.036
484.065
481.86
480.09
483.845
481.615
479.835
483.975
481.757
480.016
484.325
482.156
480.381
484.605
482.476