/*--------------------------------*- C++ -*----------------------------------*\
| =========                 |                                                 |
| \\      /  F ield         | OpenFOAM: The Open Source CFD Toolbox           |
|  \\    /   O peration     | Version:  v1906                                 |
|   \\  /    A nd           | Web:      www.OpenFOAM.com                      |
|    \\/     M anipulation  |                                                 |
\*---------------------------------------------------------------------------*/
FoamFile
{
    version     2.0;
    format      ascii;
    class       volScalarField;
    location    "39";
    object      nut;
}
// * * * * * * * * * * * * * * * * * * * * * * * * * * * * * * * * * * * * * //

dimensions      [0 2 -1 0 0 0 0];


internalField   nonuniform List<scalar> 
78750
(
1.85957e-08
1.06934e-06
1.26523e-06
1.33464e-06
1.34745e-06
1.33139e-06
1.3031e-06
1.27243e-06
1.24426e-06
1.22053e-06
1.20151e-06
1.18655e-06
1.17464e-06
1.16466e-06
1.15546e-06
1.14599e-06
1.13527e-06
1.12244e-06
1.10674e-06
1.08753e-06
1.06428e-06
1.03656e-06
1.00403e-06
9.66497e-07
9.23851e-07
8.76081e-07
8.23152e-07
7.64842e-07
7.00134e-07
6.25761e-07
5.35596e-07
4.24413e-07
2.99182e-07
1.80879e-07
3.18e-09
3.1356e-09
2.57818e-06
4.68911e-06
7.08423e-06
8.69427e-06
9.24958e-06
9.55679e-06
9.72968e-06
9.83563e-06
9.90722e-06
9.95734e-06
9.98943e-06
1.0003e-05
9.99606e-06
9.96632e-06
9.91157e-06
9.8299e-06
9.71985e-06
9.58034e-06
9.41061e-06
9.20997e-06
8.97761e-06
8.71242e-06
8.41284e-06
8.0768e-06
7.70139e-06
7.28229e-06
6.8118e-06
6.27963e-06
5.6733e-06
4.29426e-06
2.47352e-06
1.80882e-06
1.76183e-06
1.13597e-08
5.47982e-09
3.08691e-06
5.45389e-06
6.02847e-06
6.02959e-06
6.6627e-06
8.23168e-06
8.90456e-06
9.22436e-06
9.54882e-06
9.86991e-06
1.01777e-05
1.04629e-05
1.07178e-05
1.09357e-05
1.11113e-05
1.12401e-05
1.13186e-05
1.13436e-05
1.13123e-05
1.12222e-05
1.10708e-05
1.08556e-05
1.05741e-05
1.02245e-05
9.80546e-06
9.31708e-06
8.7247e-06
6.66609e-06
4.7292e-06
3.27918e-06
2.48061e-06
2.6131e-06
1.80712e-06
1.90237e-08
2.78408e-09
1.60861e-06
3.07086e-06
3.94814e-06
4.53842e-06
4.95367e-06
5.33643e-06
5.60758e-06
6.40906e-06
7.09851e-06
7.82117e-06
8.53542e-06
9.21271e-06
9.83464e-06
1.03897e-05
1.08708e-05
1.12741e-05
1.15975e-05
1.18402e-05
1.20017e-05
1.20817e-05
1.20796e-05
1.19942e-05
1.18241e-05
1.15681e-05
1.12261e-05
9.33868e-06
7.41904e-06
5.67879e-06
4.2168e-06
3.15446e-06
2.63977e-06
3.21613e-06
2.12168e-06
2.51803e-08
1.3363e-09
1.14898e-06
2.00427e-06
2.71834e-06
3.30849e-06
3.8356e-06
4.2837e-06
4.50563e-06
5.0645e-06
6.05624e-06
7.5653e-06
8.43298e-06
9.25696e-06
1.00151e-05
1.06917e-05
1.1277e-05
1.17655e-05
1.21552e-05
1.24456e-05
1.2637e-05
1.27293e-05
1.27219e-05
1.26133e-05
1.24023e-05
1.20889e-05
9.63233e-06
7.38946e-06
5.57094e-06
4.19007e-06
3.22837e-06
2.6641e-06
2.61539e-06
4.03883e-06
1.8934e-06
3.3515e-08
6.76786e-10
7.77833e-07
1.41675e-06
2.00552e-06
2.56812e-06
3.15355e-06
3.48775e-06
3.82478e-06
4.4282e-06
5.38465e-06
6.8397e-06
8.56998e-06
9.50381e-06
1.03587e-05
1.11188e-05
1.17763e-05
1.23285e-05
1.27763e-05
1.31217e-05
1.33666e-05
1.35116e-05
1.35557e-05
1.34952e-05
1.33255e-05
1.28833e-05
1.00684e-05
7.49535e-06
5.4455e-06
3.9426e-06
2.9583e-06
2.43351e-06
2.46295e-06
4.14095e-06
1.96286e-06
3.94211e-08
5.19876e-10
7.04984e-07
1.34536e-06
2.01711e-06
2.7512e-06
3.20815e-06
3.69047e-06
4.39466e-06
5.41614e-06
6.90418e-06
8.90828e-06
9.89199e-06
1.07805e-05
1.15619e-05
1.22311e-05
1.27877e-05
1.32345e-05
1.35759e-05
1.38165e-05
1.396e-05
1.40087e-05
1.39627e-05
1.382e-05
1.35767e-05
1.20011e-05
9.11677e-06
6.6418e-06
4.74619e-06
3.43307e-06
2.63322e-06
2.27627e-06
2.50424e-06
4.7889e-06
1.83655e-06
4.6734e-08
7.19711e-10
8.8028e-07
1.70856e-06
2.47435e-06
3.10392e-06
3.81279e-06
4.7079e-06
5.89515e-06
7.50592e-06
9.58639e-06
1.06185e-05
1.1545e-05
1.23606e-05
1.30633e-05
1.36545e-05
1.41373e-05
1.45161e-05
1.47952e-05
1.4978e-05
1.50669e-05
1.50627e-05
1.49641e-05
1.47682e-05
1.44711e-05
1.22556e-05
9.25794e-06
6.68338e-06
4.69867e-06
3.32884e-06
2.50901e-06
2.15944e-06
2.42477e-06
4.93496e-06
1.83578e-06
5.26193e-08
1.18448e-09
8.99088e-07
1.79344e-06
2.70259e-06
3.6764e-06
4.81558e-06
6.24383e-06
8.10161e-06
1.01472e-05
1.12131e-05
1.21665e-05
1.30033e-05
1.37232e-05
1.43282e-05
1.48221e-05
1.52094e-05
1.54952e-05
1.56842e-05
1.57799e-05
1.57847e-05
1.56989e-05
1.5521e-05
1.52479e-05
1.41442e-05
1.11526e-05
8.32894e-06
5.99921e-06
4.24384e-06
3.06865e-06
2.3855e-06
2.13727e-06
2.53795e-06
5.54938e-06
1.7713e-06
5.90893e-08
1.75438e-09
8.81809e-07
1.83273e-06
2.92146e-06
4.18618e-06
5.71359e-06
7.62069e-06
9.94631e-06
1.14736e-05
1.25432e-05
1.34907e-05
1.43135e-05
1.50118e-05
1.55884e-05
1.60479e-05
1.6396e-05
1.66389e-05
1.67824e-05
1.68311e-05
1.67881e-05
1.66544e-05
1.64286e-05
1.61078e-05
1.41918e-05
1.11472e-05
8.28568e-06
5.90699e-06
4.12487e-06
2.95303e-06
2.2914e-06
2.07585e-06
2.53918e-06
5.82263e-06
1.75661e-06
6.47877e-08
2.46236e-09
8.89136e-07
1.90908e-06
3.17979e-06
4.74821e-06
6.69715e-06
9.12186e-06
1.19377e-05
1.31719e-05
1.42539e-05
1.51825e-05
1.59604e-05
1.65932e-05
1.7089e-05
1.7457e-05
1.77071e-05
1.78485e-05
1.78895e-05
1.78364e-05
1.76936e-05
1.74631e-05
1.71445e-05
1.62309e-05
1.3417e-05
1.04618e-05
7.77362e-06
5.55322e-06
3.91092e-06
2.84677e-06
2.25695e-06
2.10048e-06
2.67003e-06
6.29125e-06
1.72679e-06
7.07643e-08
3.28183e-09
9.47652e-07
2.08292e-06
3.57608e-06
5.4872e-06
7.88261e-06
1.07722e-05
1.3636e-05
1.48553e-05
1.58982e-05
1.67705e-05
1.74818e-05
1.80432e-05
1.84666e-05
1.87638e-05
1.89458e-05
1.90224e-05
1.90019e-05
1.88904e-05
1.8692e-05
1.8408e-05
1.80377e-05
1.60141e-05
1.31918e-05
1.02958e-05
7.62992e-06
5.42076e-06
3.8007e-06
2.76785e-06
2.21193e-06
2.09554e-06
2.74652e-06
6.58375e-06
1.71533e-06
7.62859e-08
4.16247e-09
1.02473e-06
2.27627e-06
3.95816e-06
6.13314e-06
8.8392e-06
1.20144e-05
1.51455e-05
1.63449e-05
1.73543e-05
1.81846e-05
1.88478e-05
1.93564e-05
1.97228e-05
1.9959e-05
2.00761e-05
2.00843e-05
1.99921e-05
1.98067e-05
1.95332e-05
1.91748e-05
1.74831e-05
1.50642e-05
1.24089e-05
9.73227e-06
7.2611e-06
5.20532e-06
3.69964e-06
2.73499e-06
2.22032e-06
2.14477e-06
2.89182e-06
6.86084e-06
1.70282e-06
8.19353e-08
5.05379e-09
1.08582e-06
2.41912e-06
4.22574e-06
6.57349e-06
9.48682e-06
1.28567e-05
1.62913e-05
1.77907e-05
1.87981e-05
1.96154e-05
2.02565e-05
2.07351e-05
2.10646e-05
2.12581e-05
2.13276e-05
2.12837e-05
2.11356e-05
2.08906e-05
2.05543e-05
1.90642e-05
1.70006e-05
1.46261e-05
1.20448e-05
9.43364e-06
7.02654e-06
5.04021e-06
3.60549e-06
2.69491e-06
2.22012e-06
2.18555e-06
3.02275e-06
7.03602e-06
1.69841e-06
8.74119e-08
5.93419e-09
1.12505e-06
2.511e-06
4.40972e-06
6.91363e-06
1.00608e-05
1.36999e-05
1.7358e-05
1.93322e-05
2.03286e-05
2.11183e-05
2.17183e-05
2.21454e-05
2.2416e-05
2.25451e-05
2.25462e-05
2.24313e-05
2.22104e-05
2.16451e-05
2.01526e-05
1.83739e-05
1.63383e-05
1.40442e-05
1.15656e-05
9.06876e-06
6.77502e-06
4.89208e-06
3.54301e-06
2.68644e-06
2.24808e-06
2.25439e-06
3.19167e-06
7.14037e-06
1.69493e-06
9.29967e-08
7.02212e-09
1.17729e-06
2.6349e-06
4.66177e-06
7.38018e-06
1.0823e-05
1.4742e-05
1.85455e-05
2.09597e-05
2.19148e-05
2.26537e-05
2.31972e-05
2.35647e-05
2.37741e-05
2.38413e-05
2.37799e-05
2.36018e-05
2.26196e-05
2.12682e-05
1.97282e-05
1.79674e-05
1.5941e-05
1.36548e-05
1.12e-05
8.75402e-06
6.53657e-06
4.74287e-06
3.47519e-06
2.67492e-06
2.27594e-06
2.32497e-06
3.3631e-06
7.18413e-06
1.69564e-06
9.83963e-08
8.16728e-09
1.2297e-06
2.75447e-06
4.89564e-06
7.80084e-06
1.14929e-05
1.56297e-05
1.95258e-05
2.24225e-05
2.3342e-05
2.40393e-05
2.45374e-05
2.4857e-05
2.50165e-05
2.50317e-05
2.44294e-05
2.33171e-05
2.2073e-05
2.07139e-05
1.91938e-05
1.74494e-05
1.54385e-05
1.31774e-05
1.07697e-05
8.39866e-06
6.27829e-06
4.59e-06
3.41058e-06
2.67066e-06
2.31482e-06
2.4124e-06
3.56469e-06
7.16109e-06
1.69678e-06
1.03709e-07
9.48554e-09
1.27844e-06
2.86336e-06
5.11048e-06
8.19394e-06
1.21222e-05
1.64502e-05
2.03901e-05
2.33983e-05
2.48321e-05
2.54925e-05
2.59499e-05
2.62261e-05
2.60115e-05
2.51336e-05
2.40782e-05
2.29259e-05
2.16926e-05
2.03513e-05
1.88443e-05
1.71049e-05
1.50905e-05
1.28255e-05
1.04291e-05
8.09849e-06
6.04916e-06
4.44995e-06
3.34865e-06
2.6659e-06
2.35304e-06
2.50008e-06
3.76766e-06
7.10568e-06
1.70083e-06
1.08852e-07
1.0816e-08
1.31801e-06
2.95145e-06
5.28742e-06
8.52696e-06
1.26712e-05
1.7186e-05
2.11857e-05
2.41322e-05
2.59799e-05
2.68659e-05
2.70331e-05
2.66307e-05
2.58535e-05
2.48507e-05
2.37251e-05
2.25326e-05
2.12842e-05
1.9946e-05
1.84517e-05
1.67268e-05
1.47245e-05
1.24716e-05
1.00972e-05
7.8096e-06
5.82844e-06
4.31503e-06
3.28864e-06
2.66354e-06
2.39708e-06
2.5999e-06
3.99596e-06
7.01052e-06
1.70527e-06
1.13915e-07
1.2333e-08
1.35787e-06
3.03975e-06
5.46605e-06
8.86409e-06
1.32182e-05
1.7889e-05
2.19013e-05
2.47414e-05
2.64237e-05
2.71439e-05
2.71221e-05
2.65694e-05
2.56715e-05
2.45774e-05
2.33908e-05
2.21675e-05
2.09132e-05
1.95851e-05
1.81091e-05
1.64042e-05
1.44189e-05
1.21806e-05
9.82594e-06
7.57315e-06
5.64643e-06
4.20227e-06
3.23729e-06
2.66206e-06
2.43893e-06
2.69749e-06
4.22336e-06
6.91004e-06
1.71167e-06
1.18815e-07
1.38609e-08
1.39233e-06
3.11345e-06
5.61237e-06
9.14093e-06
1.36721e-05
1.84763e-05
2.25008e-05
2.52517e-05
2.67909e-05
2.73489e-05
2.71695e-05
2.64773e-05
2.54657e-05
2.42874e-05
2.30468e-05
2.17966e-05
2.05361e-05
1.92152e-05
1.77552e-05
1.60701e-05
1.41046e-05
1.18861e-05
9.55671e-06
7.34242e-06
5.47135e-06
4.09544e-06
3.18981e-06
2.66381e-06
2.48551e-06
2.80452e-06
4.47181e-06
6.79207e-06
1.71827e-06
1.23567e-07
1.55415e-08
1.42314e-06
3.17799e-06
5.74433e-06
9.40126e-06
1.41058e-05
1.90246e-05
2.3033e-05
2.56769e-05
2.70747e-05
2.74893e-05
2.71814e-05
2.63839e-05
2.52927e-05
2.40592e-05
2.27841e-05
2.15159e-05
2.02481e-05
1.89274e-05
1.74748e-05
1.58027e-05
1.38528e-05
1.16518e-05
9.34431e-06
7.16137e-06
5.33412e-06
4.01129e-06
3.15235e-06
2.66717e-06
2.52953e-06
2.90802e-06
4.71708e-06
6.68275e-06
1.72625e-06
1.28109e-07
1.72383e-08
1.44733e-06
3.22851e-06
5.85375e-06
9.6313e-06
1.45043e-05
1.95371e-05
2.35359e-05
2.60868e-05
2.7361e-05
2.7652e-05
2.72364e-05
2.63537e-05
2.52002e-05
2.39233e-05
2.26185e-05
2.13279e-05
2.00408e-05
1.87039e-05
1.72403e-05
1.55637e-05
1.36166e-05
1.14265e-05
9.14002e-06
6.99039e-06
5.2088e-06
3.93827e-06
3.12359e-06
2.67679e-06
2.57874e-06
3.01867e-06
4.97662e-06
6.57217e-06
1.7346e-06
1.32468e-07
1.90991e-08
1.46893e-06
3.27557e-06
5.96519e-06
9.8786e-06
1.49355e-05
2.00765e-05
2.40467e-05
2.64936e-05
2.76477e-05
2.783e-05
2.73293e-05
2.63882e-05
2.51992e-05
2.39023e-05
2.25844e-05
2.1278e-05
1.99681e-05
1.86049e-05
1.71154e-05
1.54169e-05
1.34558e-05
1.1263e-05
8.98738e-06
6.86219e-06
5.11647e-06
3.8865e-06
3.10608e-06
2.69015e-06
2.62685e-06
3.12559e-06
5.22947e-06
6.47997e-06
1.74441e-06
1.36635e-07
2.09992e-08
1.48635e-06
3.31599e-06
6.07066e-06
1.01255e-05
1.53735e-05
2.06243e-05
2.45673e-05
2.69162e-05
2.79583e-05
2.80415e-05
2.74673e-05
2.6481e-05
2.52714e-05
2.39696e-05
2.26514e-05
2.13378e-05
2.00081e-05
1.86136e-05
1.70847e-05
1.53445e-05
1.33464e-05
1.113e-05
8.85159e-06
6.74568e-06
5.03619e-06
3.84696e-06
3.09978e-06
2.71247e-06
2.68163e-06
3.23874e-06
5.49073e-06
6.3965e-06
1.75492e-06
1.40647e-07
2.30518e-08
1.50281e-06
3.35727e-06
6.18571e-06
1.03986e-05
1.58469e-05
2.1189e-05
2.50766e-05
2.73111e-05
2.82379e-05
2.8229e-05
2.75946e-05
2.65811e-05
2.53711e-05
2.40859e-05
2.2787e-05
2.1484e-05
2.01512e-05
1.87368e-05
1.71725e-05
1.53856e-05
1.33375e-05
1.10784e-05
8.77559e-06
6.66972e-06
4.98202e-06
3.82301e-06
3.10285e-06
2.73995e-06
2.73824e-06
3.35109e-06
5.74743e-06
6.3332e-06
1.76689e-06
1.44524e-07
2.51557e-08
1.51821e-06
3.39869e-06
6.30457e-06
1.06784e-05
1.63167e-05
2.17237e-05
2.55371e-05
2.76527e-05
2.84683e-05
2.83753e-05
2.76911e-05
2.66615e-05
2.5463e-05
2.42068e-05
2.29406e-05
2.16629e-05
2.03415e-05
1.89197e-05
1.73267e-05
1.5492e-05
1.33852e-05
1.10698e-05
8.72836e-06
6.61164e-06
4.9402e-06
3.80882e-06
3.11523e-06
2.77654e-06
2.8035e-06
3.47279e-06
6.01653e-06
6.27726e-06
1.77924e-06
1.48264e-07
2.73972e-08
1.53492e-06
3.44429e-06
6.43314e-06
1.09726e-05
1.6788e-05
2.2225e-05
2.5937e-05
2.79247e-05
2.86323e-05
2.84656e-05
2.77449e-05
2.67125e-05
2.55379e-05
2.4322e-05
2.31002e-05
2.18617e-05
2.0568e-05
1.91559e-05
1.75495e-05
1.56768e-05
1.35117e-05
1.11302e-05
8.73256e-06
6.58561e-06
4.91481e-06
3.80155e-06
3.13131e-06
2.81687e-06
2.8734e-06
3.60098e-06
6.2953e-06
6.23217e-06
1.7923e-06
1.51825e-07
2.96699e-08
1.55127e-06
3.48963e-06
6.56092e-06
1.12619e-05
1.72384e-05
2.26846e-05
2.62893e-05
2.81541e-05
2.87628e-05
2.85317e-05
2.77825e-05
2.67533e-05
2.56059e-05
2.4431e-05
2.32541e-05
2.20581e-05
2.07981e-05
1.94042e-05
1.77946e-05
1.58934e-05
1.36758e-05
1.12279e-05
8.76748e-06
6.57973e-06
4.89983e-06
3.79818e-06
3.1498e-06
2.86165e-06
2.95144e-06
3.74329e-06
6.59787e-06
6.18506e-06
1.80478e-06
1.55132e-07
3.20354e-08
1.56848e-06
3.53728e-06
6.69433e-06
1.15613e-05
1.76927e-05
2.31309e-05
2.66201e-05
2.83637e-05
2.88796e-05
2.85922e-05
2.78223e-05
2.68023e-05
2.56858e-05
2.45526e-05
2.34203e-05
2.22675e-05
2.10442e-05
1.96748e-05
1.80712e-05
1.61522e-05
1.38914e-05
1.13801e-05
8.85072e-06
6.60777e-06
4.90178e-06
3.79835e-06
3.16562e-06
2.90408e-06
3.03148e-06
3.8954e-06
6.9203e-06
6.14005e-06
1.81719e-06
1.5813e-07
3.43956e-08
1.58537e-06
3.58449e-06
6.82736e-06
1.18597e-05
1.81377e-05
2.35587e-05
2.69343e-05
2.85633e-05
2.89925e-05
2.86532e-05
2.78656e-05
2.68564e-05
2.57708e-05
2.46778e-05
2.35877e-05
2.24756e-05
2.12878e-05
1.9944e-05
1.83513e-05
1.64242e-05
1.41336e-05
1.15718e-05
8.97914e-06
6.67585e-06
4.93018e-06
3.80945e-06
3.18178e-06
2.94359e-06
3.1114e-06
4.05446e-06
7.25454e-06
6.0923e-06
1.82885e-06
1.60825e-07
3.67936e-08
1.60277e-06
3.63286e-06
6.96382e-06
1.21649e-05
1.85834e-05
2.39741e-05
2.72311e-05
2.87455e-05
2.909e-05
2.87018e-05
2.78997e-05
2.69043e-05
2.58521e-05
2.48013e-05
2.37552e-05
2.26856e-05
2.15356e-05
2.02207e-05
1.86442e-05
1.67178e-05
1.44109e-05
1.18145e-05
9.16928e-06
6.80378e-06
5.00311e-06
3.84369e-06
3.20249e-06
2.97696e-06
3.18258e-06
4.20758e-06
7.58315e-06
6.05874e-06
1.84148e-06
1.63376e-07
3.91486e-08
1.61957e-06
3.67987e-06
7.09818e-06
1.24656e-05
1.90135e-05
2.43632e-05
2.75007e-05
2.89025e-05
2.91639e-05
2.8728e-05
2.7912e-05
2.69308e-05
2.59121e-05
2.49037e-05
2.39029e-05
2.28783e-05
2.17695e-05
2.0488e-05
1.89337e-05
1.70166e-05
1.47066e-05
1.20946e-05
9.41667e-06
6.99926e-06
5.13766e-06
3.91995e-06
3.2417e-06
3.0099e-06
3.24243e-06
4.34354e-06
7.8814e-06
6.04574e-06
1.85616e-06
1.66042e-07
4.15295e-08
1.6368e-06
3.7279e-06
7.23573e-06
1.27711e-05
1.94377e-05
2.47313e-05
2.77427e-05
2.90302e-05
2.92088e-05
2.8726e-05
2.78972e-05
2.69313e-05
2.59461e-05
2.49809e-05
2.4028e-05
2.30521e-05
2.19894e-05
2.07475e-05
1.92221e-05
1.73214e-05
1.50176e-05
1.24042e-05
9.71317e-06
7.26118e-06
5.34276e-06
4.05374e-06
3.31469e-06
3.05132e-06
3.28984e-06
4.44795e-06
8.12129e-06
6.06146e-06
1.87368e-06
1.69093e-07
4.3892e-08
1.6533e-06
3.77445e-06
7.37088e-06
1.30696e-05
1.98399e-05
2.50663e-05
2.79514e-05
2.91266e-05
2.92237e-05
2.86944e-05
2.78525e-05
2.69008e-05
2.59475e-05
2.50247e-05
2.41207e-05
2.31968e-05
2.2185e-05
2.09881e-05
1.94966e-05
1.76154e-05
1.53196e-05
1.27106e-05
1.00227e-05
7.56122e-06
5.60767e-06
4.25147e-06
3.43775e-06
3.11877e-06
3.33738e-06
4.52548e-06
8.30468e-06
6.10612e-06
1.89402e-06
1.72663e-07
4.6324e-08
1.66992e-06
3.82186e-06
7.50929e-06
1.33718e-05
2.02329e-05
2.53778e-05
2.81314e-05
2.91936e-05
2.92104e-05
2.86359e-05
2.77818e-05
2.68451e-05
2.59245e-05
2.50447e-05
2.41908e-05
2.33211e-05
2.2364e-05
2.12167e-05
1.97625e-05
1.78998e-05
1.56048e-05
1.29916e-05
1.03081e-05
7.85679e-06
5.89924e-06
4.49921e-06
3.61508e-06
3.227e-06
3.40252e-06
4.59279e-06
8.45281e-06
6.17348e-06
1.91613e-06
1.76668e-07
4.88034e-08
1.6858e-06
3.86838e-06
7.64636e-06
1.36665e-05
2.06024e-05
2.56593e-05
2.82853e-05
2.92369e-05
2.91731e-05
2.85517e-05
2.7683e-05
2.67585e-05
2.5868e-05
2.50305e-05
2.42278e-05
2.34144e-05
2.25149e-05
2.1421e-05
2.00083e-05
1.81617e-05
1.5855e-05
1.32187e-05
1.05269e-05
8.09481e-06
6.16667e-06
4.76304e-06
3.83604e-06
3.38573e-06
3.50966e-06
4.68863e-06
8.62371e-06
6.2484e-06
1.93823e-06
1.80742e-07
5.14091e-08
1.70184e-06
3.91612e-06
7.78625e-06
1.39642e-05
2.09675e-05
2.59311e-05
2.84274e-05
2.92685e-05
2.91211e-05
2.84512e-05
2.75674e-05
2.66548e-05
2.57934e-05
2.49963e-05
2.42429e-05
2.34848e-05
2.26427e-05
2.16017e-05
2.02265e-05
1.83917e-05
1.60631e-05
1.33828e-05
1.06594e-05
8.23843e-06
6.35952e-06
4.99461e-06
4.06971e-06
3.58722e-06
3.67292e-06
4.85126e-06
8.88306e-06
6.30959e-06
1.95811e-06
1.84323e-07
5.40823e-08
1.71762e-06
3.96399e-06
7.92605e-06
1.42554e-05
2.13075e-05
2.61597e-05
2.85268e-05
2.92644e-05
2.90383e-05
2.83203e-05
2.74206e-05
2.65184e-05
2.56843e-05
2.4926e-05
2.42207e-05
2.35173e-05
2.27336e-05
2.17497e-05
2.04196e-05
1.86007e-05
1.62436e-05
1.3498e-05
1.07133e-05
8.28188e-06
6.45237e-06
5.15432e-06
4.27846e-06
3.81049e-06
3.89577e-06
5.11686e-06
9.29422e-06
6.33776e-06
1.97431e-06
1.86857e-07
5.68078e-08
1.73367e-06
4.01254e-06
8.06544e-06
1.4539e-05
2.16235e-05
2.63569e-05
2.85933e-05
2.9226e-05
2.89252e-05
2.81574e-05
2.72397e-05
2.63449e-05
2.55349e-05
2.48128e-05
2.41522e-05
2.35002e-05
2.27735e-05
2.18493e-05
2.05736e-05
1.87855e-05
1.64129e-05
1.36009e-05
1.07342e-05
8.26171e-06
6.45823e-06
5.22986e-06
4.43401e-06
4.02798e-06
4.16457e-06
5.49242e-06
9.86634e-06
6.3263e-06
1.98657e-06
1.88092e-07
5.94654e-08
1.74928e-06
4.05953e-06
8.20057e-06
1.48123e-05
2.19115e-05
2.65197e-05
2.86217e-05
2.91445e-05
2.87639e-05
2.79446e-05
2.70083e-05
2.6119e-05
2.53297e-05
2.46394e-05
2.40186e-05
2.34135e-05
2.27417e-05
2.18815e-05
2.06754e-05
1.89472e-05
1.65956e-05
1.37437e-05
1.07935e-05
8.25033e-06
6.4285e-06
5.2419e-06
4.53145e-06
4.2206e-06
4.45852e-06
5.96036e-06
1.05421e-05
6.29125e-06
1.99723e-06
1.88327e-07
6.2024e-08
1.7644e-06
4.10408e-06
8.32946e-06
1.50732e-05
2.21721e-05
2.66468e-05
2.86074e-05
2.90141e-05
2.85499e-05
2.76792e-05
2.67243e-05
2.5839e-05
2.50673e-05
2.44036e-05
2.3816e-05
2.32516e-05
2.26316e-05
2.18402e-05
2.07228e-05
1.90934e-05
1.682e-05
1.39832e-05
1.09724e-05
8.33643e-06
6.43854e-06
5.23663e-06
4.58125e-06
4.37234e-06
4.74502e-06
6.46607e-06
1.12072e-05
6.26456e-06
2.01032e-06
1.88406e-07
6.44081e-08
1.77808e-06
4.14357e-06
8.44615e-06
1.53114e-05
2.24005e-05
2.67359e-05
2.85501e-05
2.8836e-05
2.82868e-05
2.73685e-05
2.63941e-05
2.55097e-05
2.47513e-05
2.41083e-05
2.35466e-05
2.30154e-05
2.2443e-05
2.17237e-05
2.07119e-05
1.92206e-05
1.70899e-05
1.43431e-05
1.13218e-05
8.59001e-06
6.56177e-06
5.272e-06
4.61087e-06
4.47509e-06
4.98587e-06
6.93704e-06
1.17687e-05
6.27179e-06
2.02896e-06
1.89212e-07
6.66781e-08
1.79106e-06
4.18069e-06
8.55857e-06
1.55411e-05
2.26084e-05
2.67947e-05
2.84553e-05
2.86166e-05
2.79817e-05
2.70172e-05
2.60251e-05
2.51421e-05
2.4395e-05
2.37678e-05
2.32242e-05
2.27176e-05
2.21863e-05
2.15382e-05
2.06424e-05
1.9318e-05
1.73855e-05
1.48077e-05
1.18495e-05
9.04938e-06
6.85638e-06
5.40638e-06
4.65979e-06
4.53489e-06
5.14681e-06
7.29587e-06
1.21856e-05
6.32087e-06
2.05368e-06
1.9122e-07
6.88658e-08
1.80313e-06
4.21537e-06
8.66679e-06
1.57605e-05
2.27931e-05
2.68222e-05
2.83261e-05
2.83631e-05
2.7646e-05
2.66396e-05
2.56321e-05
2.47511e-05
2.40142e-05
2.3397e-05
2.28618e-05
2.23681e-05
2.18672e-05
2.12841e-05
2.05053e-05
1.9361e-05
1.76616e-05
1.53172e-05
1.2504e-05
9.69628e-06
7.34507e-06
5.68849e-06
4.78068e-06
4.58602e-06
5.22789e-06
7.50508e-06
1.24654e-05
6.40091e-06
2.08187e-06
1.94393e-07
7.10799e-08
1.81476e-06
4.24985e-06
8.77796e-06
1.59807e-05
2.29655e-05
2.68287e-05
2.81742e-05
2.809e-05
2.72963e-05
2.62537e-05
2.52344e-05
2.43559e-05
2.3625e-05
2.3009e-05
2.24687e-05
2.19713e-05
2.14842e-05
2.09526e-05
2.02826e-05
1.93181e-05
1.7866e-05
1.57974e-05
1.32048e-05
1.04708e-05
8.00706e-06
6.13668e-06
5.01772e-06
4.68035e-06
5.2707e-06
7.58945e-06
1.26476e-05
6.4997e-06
2.11064e-06
1.98323e-07
7.3361e-08
1.82593e-06
4.28511e-06
8.89551e-06
1.62018e-05
2.31247e-05
2.68154e-05
2.80033e-05
2.78026e-05
2.69385e-05
2.58652e-05
2.48381e-05
2.39628e-05
2.32338e-05
2.26088e-05
2.20472e-05
2.15256e-05
2.10307e-05
2.05311e-05
1.99547e-05
1.91593e-05
1.79524e-05
1.61789e-05
1.38632e-05
1.12828e-05
8.78028e-06
6.73153e-06
5.38988e-06
4.8647e-06
5.3386e-06
7.6244e-06
1.27895e-05
6.6019e-06
2.13702e-06
2.02384e-07
7.57741e-08
1.83683e-06
4.321e-06
9.01773e-06
1.64289e-05
2.32774e-05
2.67896e-05
2.78214e-05
2.75094e-05
2.6581e-05
2.54817e-05
2.44498e-05
2.35775e-05
2.28454e-05
2.22001e-05
2.15988e-05
2.1029e-05
2.04998e-05
2.00077e-05
1.95047e-05
1.8863e-05
1.78914e-05
1.64169e-05
1.44112e-05
1.20432e-05
9.58181e-06
7.41809e-06
5.88325e-06
5.16386e-06
5.49277e-06
7.70893e-06
1.29656e-05
6.69705e-06
2.15963e-06
2.05941e-07
7.8286e-08
1.8473e-06
4.35746e-06
9.14428e-06
1.66589e-05
2.34214e-05
2.6752e-05
2.76312e-05
2.72136e-05
2.62267e-05
2.51065e-05
2.40733e-05
2.32049e-05
2.24657e-05
2.17892e-05
2.11292e-05
2.04847e-05
1.98913e-05
1.9378e-05
1.89247e-05
1.84187e-05
1.76697e-05
1.64892e-05
1.48058e-05
1.26857e-05
1.03346e-05
8.13344e-06
6.46037e-06
5.57526e-06
5.76963e-06
7.92766e-06
1.32479e-05
6.78108e-06
2.17926e-06
2.08581e-07
8.09075e-08
1.85811e-06
4.39624e-06
9.27817e-06
1.68958e-05
2.35606e-05
2.67067e-05
2.74363e-05
2.69181e-05
2.58782e-05
2.47414e-05
2.37108e-05
2.2848e-05
2.20996e-05
2.13837e-05
2.06481e-05
1.99031e-05
1.92144e-05
1.86492e-05
1.822e-05
1.78314e-05
1.72933e-05
1.64001e-05
1.50367e-05
1.31786e-05
1.0985e-05
8.81804e-06
7.07733e-06
6.07916e-06
6.18174e-06
8.33063e-06
1.36797e-05
6.85658e-06
2.19818e-06
2.10265e-07
8.35651e-08
1.86835e-06
4.43459e-06
9.41296e-06
1.71297e-05
2.36877e-05
2.66504e-05
2.72355e-05
2.66233e-05
2.55364e-05
2.43882e-05
2.33651e-05
2.25117e-05
2.17553e-05
2.09957e-05
2.01717e-05
1.93034e-05
1.84887e-05
1.78394e-05
1.74062e-05
1.71156e-05
1.67792e-05
1.61709e-05
1.51212e-05
1.35271e-05
1.15171e-05
9.43881e-06
7.69864e-06
6.65255e-06
6.72543e-06
8.93439e-06
1.42587e-05
6.92953e-06
2.2188e-06
2.11235e-07
8.62435e-08
1.87849e-06
4.47373e-06
9.55105e-06
1.73641e-05
2.38076e-05
2.65885e-05
2.70342e-05
2.63338e-05
2.52057e-05
2.4051e-05
2.30405e-05
2.22018e-05
2.14419e-05
2.06403e-05
1.9722e-05
1.87131e-05
1.77447e-05
1.69786e-05
1.65105e-05
1.62947e-05
1.6149e-05
1.58256e-05
1.5083e-05
1.37518e-05
1.19392e-05
9.9866e-06
8.30416e-06
7.27659e-06
7.39309e-06
9.74149e-06
1.49481e-05
7.01019e-06
2.24383e-06
2.11877e-07
8.8881e-08
1.88802e-06
4.51175e-06
9.68673e-06
1.75887e-05
2.39114e-05
2.65156e-05
2.68296e-05
2.60488e-05
2.48862e-05
2.37308e-05
2.2739e-05
2.19221e-05
2.11673e-05
2.03317e-05
1.93214e-05
1.81621e-05
1.70168e-05
1.61012e-05
1.55639e-05
1.53941e-05
1.54227e-05
1.53818e-05
1.4944e-05
1.38793e-05
1.22747e-05
1.04711e-05
8.88725e-06
7.93448e-06
8.16474e-06
1.07222e-05
1.5683e-05
7.10499e-06
2.27437e-06
2.12742e-07
9.14781e-08
1.89695e-06
4.54879e-06
9.82043e-06
1.78044e-05
2.40023e-05
2.64368e-05
2.6628e-05
2.57751e-05
2.45847e-05
2.34339e-05
2.24666e-05
2.16795e-05
2.09412e-05
2.0086e-05
1.89951e-05
1.7685e-05
1.63446e-05
1.52473e-05
1.46017e-05
1.44407e-05
1.46167e-05
1.48461e-05
1.47137e-05
1.39273e-05
1.2546e-05
1.09111e-05
9.45555e-06
8.62119e-06
9.02266e-06
1.18315e-05
1.64089e-05
7.21827e-06
2.31066e-06
2.14214e-07
9.40251e-08
1.90533e-06
4.58484e-06
9.95049e-06
1.80062e-05
2.40764e-05
2.63513e-05
2.6431e-05
2.55156e-05
2.43045e-05
2.31635e-05
2.22264e-05
2.14773e-05
2.07692e-05
1.99142e-05
1.87636e-05
1.73128e-05
1.57669e-05
1.44572e-05
1.36607e-05
1.34628e-05
1.37473e-05
1.42217e-05
1.43921e-05
1.38998e-05
1.27621e-05
1.13147e-05
1.00098e-05
9.32717e-06
9.94392e-06
1.30207e-05
1.70923e-05
7.34273e-06
2.35068e-06
2.16318e-07
9.6532e-08
1.91321e-06
4.61978e-06
1.00755e-05
1.81917e-05
2.41341e-05
2.6262e-05
2.62427e-05
2.52745e-05
2.40491e-05
2.29224e-05
2.202e-05
2.13166e-05
2.0653e-05
1.98216e-05
1.86404e-05
1.70706e-05
1.53181e-05
1.37686e-05
1.27753e-05
1.24862e-05
1.28266e-05
1.35034e-05
1.39642e-05
1.37811e-05
1.29129e-05
1.16775e-05
1.05461e-05
1.0043e-05
1.09106e-05
1.42537e-05
1.77128e-05
7.46267e-06
2.39082e-06
2.18807e-07
9.89801e-08
1.92058e-06
4.65357e-06
1.01942e-05
1.83581e-05
2.41751e-05
2.61703e-05
2.6065e-05
2.50528e-05
2.38185e-05
2.27096e-05
2.18456e-05
2.11943e-05
2.0589e-05
1.98065e-05
1.86311e-05
1.69773e-05
1.50304e-05
1.32199e-05
1.19825e-05
1.15408e-05
1.18717e-05
1.26923e-05
1.34167e-05
1.35508e-05
1.29796e-05
1.19881e-05
1.10626e-05
1.07742e-05
1.1916e-05
1.55061e-05
1.82553e-05
7.56344e-06
2.42775e-06
2.21304e-07
1.0134e-07
1.92754e-06
4.68591e-06
1.03038e-05
1.85025e-05
2.42004e-05
2.60788e-05
2.58994e-05
2.48507e-05
2.36114e-05
2.25224e-05
2.16989e-05
2.1104e-05
2.05682e-05
1.98594e-05
1.87319e-05
1.70435e-05
1.49326e-05
1.28514e-05
1.13239e-05
1.06607e-05
1.09025e-05
1.17916e-05
1.27372e-05
1.31872e-05
1.29395e-05
1.2228e-05
1.15457e-05
1.15103e-05
1.29532e-05
1.67597e-05
1.87032e-05
7.63347e-06
2.45883e-06
2.23421e-07
1.0355e-07
1.93399e-06
4.71631e-06
1.04012e-05
1.86221e-05
2.42101e-05
2.5987e-05
2.5744e-05
2.46643e-05
2.34226e-05
2.23546e-05
2.15725e-05
2.10364e-05
2.05782e-05
1.99647e-05
1.89292e-05
1.72692e-05
1.50482e-05
1.2707e-05
1.08508e-05
9.89489e-06
9.95613e-06
1.08216e-05
1.1924e-05
1.26726e-05
1.27704e-05
1.23783e-05
1.19816e-05
1.22392e-05
1.40087e-05
1.79872e-05
1.90379e-05
7.66734e-06
2.48262e-06
2.24884e-07
1.05527e-07
1.93985e-06
4.74353e-06
1.04827e-05
1.87155e-05
2.42068e-05
2.5897e-05
2.55987e-05
2.44914e-05
2.32481e-05
2.22011e-05
2.14596e-05
2.09821e-05
2.06049e-05
2.0102e-05
1.91992e-05
1.76411e-05
1.53912e-05
1.28292e-05
1.062e-05
9.30179e-06
9.08451e-06
9.82037e-06
1.09925e-05
1.19996e-05
1.24515e-05
1.24139e-05
1.23463e-05
1.2941e-05
1.50598e-05
1.9152e-05
1.92543e-05
7.67124e-06
2.50015e-06
2.25648e-07
1.07138e-07
1.94445e-06
4.7648e-06
1.05452e-05
1.87813e-05
2.41907e-05
2.58071e-05
2.54592e-05
2.43261e-05
2.30808e-05
2.20534e-05
2.13507e-05
2.09294e-05
2.06321e-05
2.02481e-05
1.95064e-05
1.81155e-05
1.59372e-05
1.32394e-05
1.06928e-05
8.95514e-06
8.35918e-06
8.84834e-06
9.97865e-06
1.11755e-05
1.19711e-05
1.23157e-05
1.26168e-05
1.35813e-05
1.60585e-05
2.01975e-05
1.9357e-05
7.65484e-06
2.51306e-06
2.25877e-07
1.08362e-07
1.9478e-06
4.77996e-06
1.05891e-05
1.88243e-05
2.41666e-05
2.57191e-05
2.53241e-05
2.41647e-05
2.29159e-05
2.19057e-05
2.12386e-05
2.0869e-05
2.06473e-05
2.03785e-05
1.98109e-05
1.86429e-05
1.66453e-05
1.39322e-05
1.1106e-05
8.92526e-06
7.86703e-06
7.98991e-06
8.94395e-06
1.02238e-05
1.13229e-05
1.20645e-05
1.27665e-05
1.41165e-05
1.6941e-05
2.1068e-05
1.93764e-05
7.63443e-06
2.5246e-06
2.2601e-07
1.09205e-07
1.94966e-06
4.78825e-06
1.06134e-05
1.88457e-05
2.41359e-05
2.56316e-05
2.51905e-05
2.40035e-05
2.27494e-05
2.1754e-05
2.11187e-05
2.07957e-05
2.06431e-05
2.04814e-05
2.00853e-05
1.91669e-05
1.74415e-05
1.48607e-05
1.18739e-05
9.27246e-06
7.69446e-06
7.34764e-06
7.98321e-06
9.19889e-06
1.05083e-05
1.16255e-05
1.27422e-05
1.4486e-05
1.7637e-05
2.17252e-05
1.93585e-05
7.62807e-06
2.53852e-06
2.26543e-07
1.09733e-07
1.95036e-06
4.79101e-06
1.0623e-05
1.8853e-05
2.41028e-05
2.55456e-05
2.50576e-05
2.38409e-05
2.25792e-05
2.15963e-05
2.09894e-05
2.07084e-05
2.06164e-05
2.05503e-05
2.03099e-05
1.96377e-05
1.82353e-05
1.59248e-05
1.29478e-05
1.00205e-05
7.91426e-06
7.0208e-06
7.21125e-06
8.19861e-06
9.57157e-06
1.09857e-05
1.24935e-05
1.46215e-05
1.80808e-05
2.21575e-05
1.93351e-05
7.64083e-06
2.55586e-06
2.27771e-07
1.10026e-07
1.95007e-06
4.78899e-06
1.06211e-05
1.88504e-05
2.40675e-05
2.5459e-05
2.49222e-05
2.36735e-05
2.2402e-05
2.14291e-05
2.08479e-05
2.06047e-05
2.05657e-05
2.05784e-05
2.047e-05
2.00184e-05
1.89438e-05
1.6996e-05
1.42126e-05
1.11285e-05
8.55853e-06
7.08721e-06
6.73754e-06
7.33826e-06
8.59235e-06
1.01697e-05
1.20006e-05
1.44795e-05
1.82319e-05
2.2373e-05
1.93258e-05
7.67089e-06
2.57621e-06
2.29824e-07
1.10228e-07
1.94945e-06
4.785e-06
1.06154e-05
1.88469e-05
2.40336e-05
2.5372e-05
2.47834e-05
2.34999e-05
2.22163e-05
2.12511e-05
2.06926e-05
2.04832e-05
2.04907e-05
2.05687e-05
2.05614e-05
2.02862e-05
1.95061e-05
1.79499e-05
1.5506e-05
1.24767e-05
9.59278e-06
7.58217e-06
6.65027e-06
6.74749e-06
7.69314e-06
9.24214e-06
1.12783e-05
1.40533e-05
1.80906e-05
2.23991e-05
1.9346e-05
7.71807e-06
2.59931e-06
2.32755e-07
1.1044e-07
1.94876e-06
4.78058e-06
1.06101e-05
1.88457e-05
2.40005e-05
2.52822e-05
2.46382e-05
2.3317e-05
2.20189e-05
2.10594e-05
2.05209e-05
2.03416e-05
2.03892e-05
2.05203e-05
2.05911e-05
2.04464e-05
1.98954e-05
1.87012e-05
1.66704e-05
1.38892e-05
1.09018e-05
8.47199e-06
6.98001e-06
6.52015e-06
7.02023e-06
8.33512e-06
1.03845e-05
1.33525e-05
1.7667e-05
2.22686e-05
1.94007e-05
7.77767e-06
2.62356e-06
2.36409e-07
1.10766e-07
1.9485e-06
4.77808e-06
1.06118e-05
1.88539e-05
2.39702e-05
2.51889e-05
2.44852e-05
2.31236e-05
2.18091e-05
2.08533e-05
2.03325e-05
2.01795e-05
2.02602e-05
2.04314e-05
2.05568e-05
2.05036e-05
2.0122e-05
1.92193e-05
1.75948e-05
1.51899e-05
1.23168e-05
9.65412e-06
7.69152e-06
6.68403e-06
6.67497e-06
7.60826e-06
9.46966e-06
1.24533e-05
1.69724e-05
2.1983e-05
1.94704e-05
7.83163e-06
2.64522e-06
2.40224e-07
1.11254e-07
1.94893e-06
4.77844e-06
1.06226e-05
1.88726e-05
2.39409e-05
2.50886e-05
2.43204e-05
2.29157e-05
2.15834e-05
2.063e-05
2.01251e-05
1.99952e-05
2.01027e-05
2.03019e-05
2.04592e-05
2.04587e-05
2.01887e-05
1.95075e-05
1.82378e-05
1.62472e-05
1.36615e-05
1.09787e-05
8.69079e-06
7.1988e-06
6.68013e-06
7.16309e-06
8.6947e-06
1.15199e-05
1.61181e-05
2.15807e-05
1.95423e-05
7.87019e-06
2.66184e-06
2.43702e-07
1.11918e-07
1.95027e-06
4.78267e-06
1.0645e-05
1.89041e-05
2.39123e-05
2.49798e-05
2.41418e-05
2.26915e-05
2.13403e-05
2.03883e-05
1.98974e-05
1.97872e-05
1.9915e-05
2.01304e-05
2.02987e-05
2.03158e-05
2.01038e-05
1.95748e-05
1.85976e-05
1.70174e-05
1.48185e-05
1.22991e-05
9.8587e-06
7.98554e-06
6.99961e-06
7.02319e-06
8.15614e-06
1.06964e-05
1.5231e-05
2.11133e-05
1.96154e-05
7.89179e-06
2.67279e-06
2.46541e-07
1.12778e-07
1.95274e-06