/*--------------------------------*- C++ -*----------------------------------*\
| =========                 |                                                 |
| \\      /  F ield         | OpenFOAM: The Open Source CFD Toolbox           |
|  \\    /   O peration     | Version:  v1906                                 |
|   \\  /    A nd           | Web:      www.OpenFOAM.com                      |
|    \\/     M anipulation  |                                                 |
\*---------------------------------------------------------------------------*/
FoamFile
{
    version     2.0;
    format      ascii;
    class       volVectorField;
    location    "39";
    object      U;
}
// * * * * * * * * * * * * * * * * * * * * * * * * * * * * * * * * * * * * * //

dimensions      [0 1 -1 0 0 0 0];


internalField   nonuniform List<vector> 
78750
(
(-0.00677949 -0.00472503 0.00187086)
(-0.0080777 -0.0111353 0.00309801)
(-0.00679814 -0.0124309 0.00322422)
(-0.00542318 -0.0122953 0.00312738)
(-0.0044226 -0.0116695 0.00303997)
(-0.00345213 -0.0108855 0.00300509)
(-0.00250564 -0.0100936 0.00300168)
(-0.00159351 -0.00935902 0.00300768)
(-0.000716008 -0.00870372 0.00301051)
(0.000134527 -0.00812841 0.0030051)
(0.000964308 -0.00762454 0.00299031)
(0.00177465 -0.0071795 0.00296716)
(0.0025659 -0.00677958 0.00293783)
(0.00333705 -0.00641165 0.00290503)
(0.00408497 -0.00606392 0.00287173)
(0.00480466 -0.00572632 0.00284082)
(0.00548967 -0.00539058 0.00281513)
(0.00613246 -0.00505034 0.00279736)
(0.00672468 -0.00470122 0.00279008)
(0.00725759 -0.00434088 0.00279566)
(0.00772229 -0.00396913 0.00281623)
(0.0081101 -0.00358807 0.00285357)
(0.00841299 -0.00320233 0.00290897)
(0.00862394 -0.00281929 0.002983)
(0.00873739 -0.00244916 0.0030752)
(0.00874936 -0.00210429 0.00318365)
(0.00865693 -0.0017959 0.00330427)
(0.00845793 -0.00152401 0.00342954)
(0.00814792 -0.00125644 0.00354578)
(0.00770903 -0.000885048 0.00362684)
(0.00708206 -0.000163726 0.00361884)
(0.00612519 0.00130331 0.00342089)
(0.00464229 0.00373001 0.00289277)
(0.00264636 0.00609893 0.00194724)
(0.000639261 0.0050528 0.000727592)
(-0.000378369 0.0017582 0.00129052)
(-0.00148028 -0.00224501 0.00114908)
(-0.0031076 -0.00478979 0.000210466)
(-0.00453759 -0.00589637 -0.000845039)
(-0.00558031 -0.00598497 -0.00160804)
(-0.00625539 -0.00558858 -0.00202348)
(-0.00662099 -0.00512923 -0.00219111)
(-0.00672292 -0.00482457 -0.00221554)
(-0.00660441 -0.00470943 -0.0021638)
(-0.00630043 -0.00474381 -0.00207321)
(-0.00583797 -0.00486943 -0.0019646)
(-0.00524075 -0.00503112 -0.00184991)
(-0.00453048 -0.00518336 -0.00173556)
(-0.0037275 -0.00529102 -0.00162393)
(-0.0028512 -0.00532837 -0.00151447)
(-0.00192028 -0.00527761 -0.00140465)
(-0.000952849 -0.00512751 -0.00129059)
(3.33688e-05 -0.0048722 -0.0011676)
(0.0010209 -0.00451025 -0.00103044)
(0.00199236 -0.00404392 -0.000873501)
(0.00293022 -0.00347882 -0.000690961)
(0.00381661 -0.00282372 -0.000476942)
(0.00463299 -0.00209049 -0.000225753)
(0.00535981 -0.00129406 6.77798e-05)
(0.00597626 -0.000451538 0.000407727)
(0.00646045 0.000420674 0.000795949)
(0.00679017 0.00131463 0.00122998)
(0.00693185 0.00224939 0.00169899)
(0.0068366 0.00330531 0.00217821)
(0.00646228 0.00468321 0.00262035)
(0.00576299 0.00679134 0.00295674)
(0.00465304 0.0102166 0.00307083)
(0.00312796 0.0148363 0.00278909)
(0.00151079 0.0178609 0.00204852)
(0.00018371 0.0126785 0.00089752)
(-1.84422e-05 0.00596732 0.00153559)
(-0.000600649 0.0099446 0.00279318)
(-0.00180749 0.0105778 0.00311441)
(-0.00320714 0.00923679 0.00285425)
(-0.00461888 0.00662059 0.00225605)
(-0.00586045 0.00337206 0.00156268)
(-0.00680332 0.00019475 0.000992342)
(-0.00742267 -0.00256248 0.000612701)
(-0.00774051 -0.00491227 0.000377901)
(-0.00777612 -0.00693378 0.000231207)
(-0.00756489 -0.00866729 0.000135128)
(-0.00714564 -0.0101245 6.74374e-05)
(-0.00655523 -0.0113062 1.56766e-05)
(-0.00582745 -0.0122114 -2.66686e-05)
(-0.00499276 -0.0128416 -6.2427e-05)
(-0.00407829 -0.0132013 -9.19468e-05)
(-0.00310808 -0.0132974 -0.000113705)
(-0.00210354 -0.0131383 -0.000124609)
(-0.00108407 -0.0127327 -0.000120047)
(-6.76974e-05 -0.0120892 -9.37772e-05)
(0.000928071 -0.011215 -3.77315e-05)
(0.00188559 -0.0101162 5.82639e-05)
(0.00278628 -0.00879675 0.000206787)
(0.0036098 -0.00725803 0.00042306)
(0.00433327 -0.00549687 0.000724882)
(0.00492926 -0.00350201 0.00113172)
(0.00535735 -0.00124803 0.00166218)
(0.0055847 0.00131429 0.002326)
(0.00557631 0.00435002 0.00313212)
(0.00527209 0.00815108 0.00403157)
(0.00461651 0.0130246 0.00481841)
(0.00359061 0.0189532 0.00513746)
(0.00232046 0.0245467 0.00468428)
(0.00106744 0.0261866 0.00343961)
(0.000141644 0.0165644 0.00145983)
(3.16059e-05 0.00426882 0.00100928)
(0.000213135 0.00843801 0.00203371)
(0.000232833 0.0102006 0.00252332)
(0.000120868 0.0101042 0.00264197)
(-0.000132683 0.00862142 0.00253846)
(-0.000495666 0.00615506 0.00234069)
(-0.000895844 0.00305191 0.0021318)
(-0.00127234 -0.000406767 0.00194262)
(-0.00156334 -0.00393636 0.00177697)
(-0.00172724 -0.00727843 0.00163105)
(-0.00175307 -0.0102846 0.00149649)
(-0.0016437 -0.0128735 0.00136566)
(-0.00141394 -0.0150119 0.00123322)
(-0.00108006 -0.0166965 0.00109601)
(-0.000659014 -0.0179409 0.000952512)
(-0.000167441 -0.0187677 0.000802412)
(0.000379316 -0.0192031 0.0006463)
(0.000966854 -0.0192732 0.000485511)
(0.00158171 -0.0190011 0.00032222)
(0.00221159 -0.0184052 0.000159634)
(0.00284448 -0.0174984 2.39492e-06)
(0.00346802 -0.0162867 -0.000142795)
(0.00406896 -0.0147684 -0.000266304)
(0.0046327 -0.0129334 -0.000354459)
(0.00514138 -0.0107619 -0.000388271)
(0.00556102 -0.00822015 -0.000341306)
(0.00586251 -0.00520298 -0.000171026)
(0.00599201 -0.00155878 0.000186438)
(0.00588036 0.00284587 0.000796444)
(0.00546292 0.00823216 0.00169733)
(0.00469345 0.0148338 0.00279304)
(0.00357017 0.0224141 0.00372655)
(0.00227171 0.0290581 0.00397039)
(0.0010477 0.0306251 0.00322781)
(0.000151001 0.019039 0.00143813)
(1.30098e-05 0.00241245 0.000897756)
(0.000211198 0.00499968 0.00189428)
(0.00041098 0.00628653 0.00246947)
(0.000586172 0.00627288 0.0027749)
(0.000710053 0.00512635 0.00292506)
(0.000780009 0.00309427 0.00299936)
(0.000810359 0.000413112 0.00303912)
(0.000818869 -0.00273427 0.00305187)
(0.00082572 -0.0061605 0.00302556)
(0.000852685 -0.00962886 0.00294965)
(0.000919226 -0.012875 0.0028289)
(0.00103373 -0.0157312 0.00267795)
(0.00119781 -0.018134 0.00250961)
(0.00140531 -0.0200539 0.00233254)
(0.00165215 -0.021489 0.00215415)
(0.00193358 -0.0224557 0.00197984)
(0.00224418 -0.0229798 0.00181314)
(0.00257822 -0.0230895 0.00165595)
(0.00292984 -0.0228108 0.00150901)
(0.00329304 -0.022164 0.00137237)
(0.00366152 -0.0211616 0.00124586)
(0.00402859 -0.0198059 0.00112972)
(0.004387 -0.0180875 0.00102544)
(0.00472829 -0.0159837 0.000936977)
(0.00503763 -0.0134524 0.000873433)
(0.0052986 -0.0103284 0.000855817)
(0.00548685 -0.00637019 0.00090869)
(0.00554369 -0.00139838 0.00106667)
(0.00541165 0.00479225 0.00139031)
(0.00502597 0.0123681 0.00194144)
(0.00431986 0.0212303 0.00269269)
(0.00325816 0.0304366 0.00339277)
(0.00205424 0.0372171 0.00358857)
(0.000921333 0.0373897 0.00295628)
(0.000107248 0.0221234 0.00131426)
(1.48885e-06 0.00105895 0.000815315)
(0.00015365 0.0020821 0.00177063)
(0.000368204 0.00251001 0.00235043)
(0.000630558 0.0021228 0.00269035)
(0.000919555 0.000897288 0.00288524)
(0.00122429 -0.00106784 0.00299028)
(0.00154089 -0.0036495 0.00302822)
(0.00186803 -0.00672272 0.00299836)
(0.00220057 -0.0101014 0.00289292)
(0.00252981 -0.0135504 0.00271332)
(0.00284523 -0.0168146 0.00247633)
(0.00313662 -0.0196644 0.00221131)
(0.00340677 -0.02202 0.00194043)
(0.00366026 -0.0238813 0.00167623)
(0.00389709 -0.0252524 0.00142687)
(0.0041206 -0.0261546 0.00119678)
(0.00433376 -0.0266179 0.000987488)
(0.00453845 -0.0266735 0.00079892)
(0.0047354 -0.0263486 0.000630497)
(0.00492416 -0.025664 0.000481906)
(0.00510318 -0.024631 0.00035355)
(0.00526986 -0.0232504 0.000246754)
(0.00542078 -0.0215101 0.000163842)
(0.00555106 -0.0193828 0.000108214)
(0.00564834 -0.0168126 8.57521e-05)
(0.00570348 -0.0135999 0.000112557)
(0.00569104 -0.00942705 0.000214023)
(0.00557446 -0.00401499 0.000413643)
(0.00530844 0.00295872 0.000752166)
(0.00483616 0.0117574 0.00127978)
(0.00410096 0.022254 0.0019917)
(0.00306938 0.0331842 0.00269693)
(0.00193509 0.0410444 0.0029842)
(0.000877004 0.0411333 0.00252799)
(0.000111408 0.0240603 0.00113466)
(-1.13828e-05 -0.000115875 0.000883296)
(9.92205e-05 -0.000863215 0.00199734)
(0.000301211 -0.00180309 0.00269015)
(0.000598487 -0.00321033 0.0030873)
(0.000973342 -0.00515972 0.00328089)
(0.00141073 -0.00762051 0.00333145)
(0.00189616 -0.0105092 0.00327241)
(0.00240599 -0.0136625 0.00312499)
(0.00291168 -0.0168658 0.00291258)
(0.00338383 -0.019888 0.00266492)
(0.00379709 -0.0225103 0.00241594)
(0.0041492 -0.0246602 0.00218657)
(0.0044479 -0.0263492 0.00198443)
(0.00469938 -0.0275844 0.00181143)
(0.00491202 -0.0283874 0.00166453)
(0.00509378 -0.0287855 0.00153773)
(0.00525135 -0.0288063 0.00142389)
(0.00538967 -0.0284739 0.00131623)
(0.00551187 -0.0278065 0.00120927)
(0.00561936 -0.0268149 0.00109946)
(0.00571195 -0.0255015 0.000985522)
(0.00578806 -0.0238585 0.000868711)
(0.00584491 -0.0218667 0.000752993)
(0.00587867 -0.0194922 0.000645524)
(0.00587903 -0.0166169 0.000561192)
(0.00583598 -0.0129761 0.000519325)
(0.00572421 -0.00823438 0.00054318)
(0.00551478 -0.00204321 0.000658303)
(0.00516987 0.00597924 0.000897183)
(0.00464239 0.0160614 0.00128632)
(0.00388108 0.0278422 0.00180537)
(0.00284932 0.0395855 0.00230736)
(0.00176822 0.0472491 0.00248809)
(0.000782635 0.0461959 0.00209408)
(8.08688e-05 0.0263303 0.000932528)
(-1.07103e-05 -0.00103027 0.000804972)
(8.82656e-05 -0.00333451 0.00183993)
(0.000282247 -0.00561515 0.00245198)
(0.000579222 -0.00811373 0.00274594)
(0.000968631 -0.0109059 0.00281097)
(0.00143015 -0.0139547 0.00271626)
(0.00193489 -0.0171303 0.00251894)
(0.00244923 -0.0202573 0.0022694)
(0.00293993 -0.0231499 0.00201145)
(0.00337971 -0.0256429 0.00177935)
(0.00376345 -0.0276922 0.00158621)
(0.00409772 -0.0293195 0.00143196)
(0.00438808 -0.0305373 0.00131208)
(0.00464073 -0.0313641 0.00121886)
(0.00486178 -0.0318213 0.00114379)
(0.00505641 -0.0319298 0.00107905)
(0.00522852 -0.0317077 0.00101833)
(0.00538065 -0.0311693 0.00095702)
(0.00551412 -0.0303237 0.000892114)
(0.00562904 -0.0291739 0.000821891)
(0.00572457 -0.0277158 0.000745606)
(0.00579907 -0.0259365 0.000663324)
(0.00585009 -0.0238133 0.000575973)
(0.00587121 -0.0213098 0.000486067)
(0.00585215 -0.0182816 0.000403183)
(0.00577883 -0.0144372 0.000343708)
(0.00562637 -0.00943164 0.000329263)
(0.00537057 -0.00285236 0.000393999)
(0.00498156 0.00578185 0.000588483)
(0.00442491 0.0168007 0.000955237)
(0.00366638 0.0298282 0.00146726)
(0.00267643 0.0428226 0.00195796)
(0.0016612 0.0510954 0.0021371)
(0.000740435 0.0496881 0.00180018)
(8.07602e-05 0.0280131 0.000794567)
(-1.8505e-06 -0.00196569 0.000654916)
(0.000122632 -0.00582317 0.00147537)
(0.000348535 -0.00940432 0.00192013)
(0.000673484 -0.0129401 0.00209003)
(0.00107648 -0.0164728 0.00208165)
(0.00153014 -0.0199326 0.00197673)
(0.00200395 -0.0231921 0.00183795)
(0.00246749 -0.0261045 0.00170747)
(0.00289484 -0.0285477 0.0016082)
(0.00328248 -0.0305233 0.00154432)
(0.00363371 -0.032074 0.00150897)
(0.00394943 -0.0332174 0.00149196)
(0.00423308 -0.0339754 0.00148316)
(0.00448769 -0.0343708 0.00147386)
(0.00471572 -0.0344255 0.00145763)
(0.00491918 -0.0341591 0.00143042)
(0.00509955 -0.0335875 0.00139041)
(0.00525783 -0.0327223 0.00133755)
(0.00539447 -0.0315697 0.00127311)
(0.00550945 -0.0301297 0.00119917)
(0.00560229 -0.0283945 0.00111821)
(0.00567221 -0.0263475 0.00103269)
(0.00571783 -0.0239614 0.000944852)
(0.00573187 -0.0211595 0.000859788)
(0.00570629 -0.017725 0.000784862)
(0.0056235 -0.0133416 0.000726905)
(0.00546057 -0.00767724 0.000689568)
(0.00519043 -0.000305035 0.000686825)
(0.00478273 0.00923039 0.000753418)
(0.00420756 0.0211621 0.000939801)
(0.00343847 0.034938 0.00126173)
(0.00245892 0.0482462 0.00161039)
(0.00149954 0.0561121 0.00173943)
(0.00065342 0.0536966 0.001462)
(5.69798e-05 0.0297663 0.000640052)
(3.57735e-06 -0.00286916 0.0004984)
(0.000147392 -0.00813881 0.00110292)
(0.000398822 -0.0128038 0.0014295)
(0.000741717 -0.0171025 0.00157466)
(0.00114622 -0.0210852 0.00162186)
(0.00158302 -0.0247107 0.00162935)
(0.0020257 -0.0279 0.00162899)
(0.00244853 -0.0305722 0.00163251)
(0.00284401 -0.0327308 0.00164342)
(0.00321161 -0.0344358 0.00165567)
(0.00355253 -0.0357228 0.0016638)
(0.00386569 -0.036616 0.00166223)
(0.0041518 -0.0371387 0.00164728)
(0.00441175 -0.0373131 0.0016171)
(0.00464624 -0.0371593 0.00157139)
(0.00485572 -0.0366957 0.00151096)
(0.00504046 -0.035937 0.00143744)
(0.00520048 -0.0348946 0.00135298)
(0.00533559 -0.0335745 0.00126003)
(0.00544545 -0.0319771 0.00116123)
(0.00552974 -0.0300948 0.0010593)
(0.00558819 -0.0279118 0.000956924)
(0.00561813 -0.0254004 0.000856819)
(0.005612 -0.0224488 0.000765397)
(0.00556257 -0.0188138 0.00069167)
(0.00545242 -0.014184 0.000646421)
(0.00526578 -0.00817678 0.00063908)
(0.00498295 -0.00029461 0.000682218)
(0.00457578 0.00998416 0.000792664)
(0.00401453 0.0228978 0.000986618)
(0.00327639 0.0377531 0.00125355)
(0.00234278 0.0518999 0.00150463)
(0.00143626 0.0599166 0.00156284)
(0.000634678 0.0569214 0.00128995)
(6.05491e-05 0.0312261 0.000561868)
(6.5507e-06 -0.00377014 0.000430958)
(0.000158244 -0.0104279 0.000967967)
(0.000418307 -0.0161182 0.00129867)
(0.000763271 -0.021111 0.00150522)
(0.00116023 -0.0254921 0.00164418)
(0.00158093 -0.0292665 0.00174573)
(0.00200256 -0.0324083 0.00182124)
(0.00240307 -0.0348975 0.00187399)
(0.00278068 -0.0368167 0.00191057)
(0.0031375 -0.0382531 0.00193228)
(0.0034696 -0.0392445 0.00193836)
(0.00377724 -0.0398238 0.00192879)
(0.00406109 -0.0400214 0.00190405)
(0.00432168 -0.039865 0.00186502)
(0.00455928 -0.0393797 0.00181282)
(0.00477385 -0.0385874 0.00174876)
(0.00496504 -0.0375062 0.00167424)
(0.00513222 -0.0361494 0.00159074)
(0.00527449 -0.0345251 0.00149968)
(0.0053909 -0.0326348 0.00140247)
(0.00548065 -0.0304721 0.0013004)
(0.00554265 -0.0280219 0.00119469)
(0.00557045 -0.0252354 0.00108838)
(0.00555859 -0.0219473 0.000985684)
(0.00549513 -0.0178986 0.00089292)
(0.00536579 -0.0128023 0.000814477)
(0.00515546 -0.0062589 0.000758062)
(0.00484312 0.00224192 0.000738979)
(0.00440549 0.0132032 0.000782536)
(0.00382266 0.0267971 0.00091436)
(0.00308002 0.0421988 0.00112678)
(0.00216804 0.0565293 0.00133167)
(0.00131265 0.0641619 0.00136867)
(0.000571511 0.0602993 0.00112204)
(4.53623e-05 0.0326907 0.000485164)
(4.61379e-06 -0.00456905 0.000411361)
(0.000139613 -0.0124441 0.000948872)
(0.000369578 -0.0190035 0.00131418)
(0.000671723 -0.0245532 0.00157171)
(0.00101592 -0.0292216 0.00175742)
(0.00137859 -0.0330673 0.00188857)
(0.00174205 -0.0361273 0.00197373)
(0.00209117 -0.0384594 0.0020207)
(0.00242741 -0.0402003 0.00204149)
(0.00275312 -0.0414518 0.00204218)
(0.00306329 -0.0422577 0.00202479)
(0.00335809 -0.0426543 0.00199151)
(0.00363756 -0.0426737 0.0019444)
(0.00390112 -0.0423434 0.00188538)
(0.00414781 -0.0416879 0.00181627)
(0.0043764 -0.0407279 0.00173884)
(0.00458544 -0.0394805 0.00165476)
(0.0047733 -0.0379584 0.00156565)
(0.00493836 -0.0361693 0.00147302)
(0.0050793 -0.0341147 0.00137828)
(0.00519503 -0.0317888 0.00128271)
(0.00527938 -0.0291766 0.00118753)
(0.0053256 -0.0261883 0.00109477)
(0.00532618 -0.0226397 0.00100905)
(0.0052683 -0.0183043 0.000936857)
(0.00514214 -0.0128699 0.000884317)
(0.00493508 -0.00589234 0.000858076)
(0.00462962 0.00318839 0.000865653)
(0.00420499 0.0148994 0.000916227)
(0.0036429 0.0293581 0.00101834)
(0.00293043 0.0455624 0.00116242)
(0.00205943 0.0603389 0.00128509)
(0.00124996 0.0678201 0.0012697)
(0.000548667 0.0632672 0.00102234)
(4.57004e-05 0.0339842 0.000440476)
(5.43341e-06 -0.00527586 0.00042392)
(0.000133765 -0.0142111 0.00100211)
(0.00034742 -0.0215138 0.00140774)
(0.000626395 -0.0275411 0.00169446)
(0.00094599 -0.0324729 0.00189284)
(0.00128806 -0.0364241 0.002022)
(0.00163949 -0.0394882 0.0020961)
(0.00198612 -0.0417673 0.00212749)
(0.0023284 -0.0434207 0.00213142)
(0.0026669 -0.0445561 0.00211816)
(0.00299321 -0.045219 0.00209106)
(0.00330544 -0.0454475 0.00205276)
(0.00360208 -0.0452751 0.00200517)
(0.00388134 -0.044732 0.00194968)
(0.00414141 -0.0438455 0.00188732)
(0.00438062 -0.04264 0.00181882)
(0.00459745 -0.0411363 0.00174474)
(0.00479056 -0.0393511 0.00166545)
(0.00495904 -0.0372957 0.00158118)
(0.00510228 -0.0349756 0.00149208)
(0.0052157 -0.0323892 0.00139844)
(0.00529377 -0.0294799 0.00130092)
(0.00533019 -0.0261234 0.00120037)
(0.00531463 -0.0221683 0.00109933)
(0.0052383 -0.017403 0.00100232)
(0.00509154 -0.0115093 0.000916903)
(0.00486084 -0.00403375 0.000855273)
(0.00452941 0.00558933 0.000834697)
(0.00408084 0.0178801 0.000872857)
(0.00350422 0.0329159 0.000975201)
(0.00279398 0.0495743 0.00111583)
(0.00194791 0.0644586 0.00122099)
(0.00117705 0.0715836 0.00118982)
(0.000515135 0.06624 0.000949994)
(4.02111e-05 0.0352621 0.00040834)
(3.61505e-06 -0.00593712 0.000427755)
(0.000123589 -0.0158554 0.00102193)
(0.000326135 -0.0238549 0.00144047)
(0.000596728 -0.0303559 0.00173395)
(0.000913805 -0.0355879 0.00193326)
(0.00125934 -0.0397074 0.00205977)
(0.0016187 -0.0428463 0.00212985)
(0.00197605 -0.0451354 0.0021568)
(0.00232725 -0.0467438 0.00215466)
(0.00267227 -0.0477905 0.00213613)
(0.00300271 -0.0483335 0.0021049)
(0.00331558 -0.0484164 0.00206342)
(0.00360964 -0.0480781 0.00201366)
(0.00388355 -0.0473537 0.00195727)
(0.00413601 -0.0462751 0.00189568)
(0.00436596 -0.0448706 0.00183015)
(0.00457262 -0.0431642 0.00176173)
(0.00475567 -0.041175 0.00169123)
(0.00491469 -0.0389165 0.00161916)
(0.00504572 -0.036396 0.0015453)
(0.0051446 -0.0335797 0.00146913)
(0.00520644 -0.0303873 0.00139062)
(0.005224 -0.0267216 0.00131042)
(0.00519174 -0.0224378 0.00123003)
(0.00510337 -0.0173077 0.00115154)
(0.00494912 -0.0109883 0.00107817)
(0.00471494 -0.00300013 0.00101612)
(0.00438386 0.00723448 0.000977237)
(0.00393969 0.0202147 0.000978722)
(0.00337286 0.0359435 0.0010326)
(0.00268038 0.0531487 0.00112246)
(0.00186487 0.0682113 0.00118359)
(0.00112806 0.0750641 0.00112782)
(0.000495631 0.0690055 0.000890763)
(3.94152e-05 0.0364589 0.000381569)
(5.39088e-06 -0.00656766 0.000440216)
(0.000136251 -0.0174382 0.00106131)
(0.000358163 -0.0261521 0.00150168)
(0.000654748 -0.03318 0.00180951)
(0.00100068 -0.0387722 0.002015)
(0.00137311 -0.0431012 0.00214088)
(0.0017536 -0.0463247 0.00220605)
(0.00212645 -0.0486092 0.00222611)
(0.00248609 -0.0501423 0.00221488)
(0.00283404 -0.051062 0.0021864)
(0.00316472 -0.0514413 0.00214514)
(0.00347487 -0.051331 0.00209366)
(0.00376398 -0.0507761 0.0020341)
(0.00403136 -0.0498174 0.00196826)
(0.00427612 -0.0484917 0.00189773)
(0.0044976 -0.0468315 0.00182384)
(0.00469547 -0.044865 0.00174767)
(0.00486811 -0.0426152 0.00167019)
(0.00501251 -0.040096 0.00159042)
(0.0051251 -0.0372836 0.00150879)
(0.00520245 -0.0341308 0.0014256)
(0.00523941 -0.0305867 0.0013413)
(0.00523259 -0.026561 0.00125726)
(0.00517761 -0.021902 0.00117542)
(0.00506727 -0.0163713 0.00109858)
(0.00489096 -0.0096138 0.00103085)
(0.0046348 -0.00113913 0.000978918)
(0.0042836 0.00963063 0.000953292)
(0.00382466 0.023174 0.000966731)
(0.00325257 0.0394335 0.00102458)
(0.00256788 0.0570062 0.00110578)
(0.00177822 0.0720789 0.00114901)
(0.00107238 0.0785789 0.00108002)
(0.000469071 0.071756 0.000846)
(3.56214e-05 0.0376386 0.000360335)
(3.38864e-06 -0.0072627 0.000460305)
(0.000133507 -0.0192128 0.00111281)
(0.000356819 -0.0287387 0.00157399)
(0.000655039 -0.0363438 0.00189353)
(0.000999416 -0.0422939 0.00210434)
(0.00136472 -0.0467914 0.00223264)
(0.00173255 -0.0500461 0.00230019)
(0.00209093 -0.0522809 0.0023237)
(0.00243434 -0.0537087 0.00231542)
(0.00276555 -0.0544866 0.00228924)
(0.00308176 -0.0547001 0.00225011)
(0.00337908 -0.0544058 0.0022003)
(0.00365716 -0.0536534 0.00214185)
(0.00391547 -0.0524873 0.00207657)
(0.00415339 -0.0509473 0.00200608)
(0.00436982 -0.0490684 0.00193198)
(0.00456204 -0.0468818 0.00185429)
(0.00472755 -0.044399 0.00177252)
(0.0048632 -0.0416092 0.00168737)
(0.00496628 -0.0385018 0.00159885)
(0.00503411 -0.0350529 0.00150874)
(0.00506538 -0.0312061 0.00141847)
(0.00505728 -0.0268597 0.00132935)
(0.00500442 -0.0218473 0.00124289)
(0.00489824 -0.0159144 0.00116099)
(0.00472678 -0.00868951 0.00108647)
(0.00447504 0.000325592 0.00102451)
(0.00412767 0.0116975 0.000984583)
(0.00367336 0.0258648 0.000979702)
(0.00310974 0.042692 0.00101679)
(0.00244149 0.0606428 0.00107669)
(0.0016833 0.075727 0.00110093)
(0.00101111 0.0819013 0.00102166)
(0.000439082 0.074343 0.000792982)
(3.19406e-05 0.0387388 0.000334461)
(4.36391e-06 -0.00793412 0.000491754)
(0.000138829 -0.0209268 0.00118925)
(0.000366289 -0.0312302 0.00167972)
(0.000666378 -0.0393793 0.00201857)
(0.00100972 -0.0456599 0.00224308)
(0.00137136 -0.0503118 0.0023823)
(0.00173405 -0.0535993 0.00245935)
(0.00208875 -0.0557966 0.00249119)
(0.00242943 -0.0571357 0.00248852)
(0.0027583 -0.057789 0.00246273)
(0.0030745 -0.0578504 0.00242234)
(0.00337251 -0.0573809 0.00236967)
(0.00365159 -0.0564341 0.0023069)
(0.00391091 -0.0550585 0.00223621)
(0.00414785 -0.0532983 0.0021589)
(0.00435969 -0.0511867 0.00207445)
(0.00454371 -0.048737 0.0019836)
(0.00469735 -0.0459594 0.00188673)
(0.00481834 -0.042867 0.00178551)
(0.00490625 -0.0394588 0.00168226)
(0.00496083 -0.0357063 0.00157844)
(0.00498077 -0.0315456 0.00147501)
(0.00496297 -0.0268639 0.00137301)
(0.00490179 -0.0214815 0.00127388)
(0.00478837 -0.0151283 0.00117988)
(0.00461031 -0.00742036 0.00109474)
(0.00435251 0.00214266 0.00102484)
(0.0040002 0.0141077 0.000979918)
(0.00354389 0.0288653 0.000970779)
(0.00298386 0.0461928 0.00100029)
(0.00232801 0.0644197 0.00104717)
(0.00159839 0.0794003 0.00105655)
(0.000956332 0.0851913 0.000969256)
(0.000412399 0.0768557 0.00074684)
(2.95737e-05 0.0397885 0.000314345)
(2.50506e-06 -0.00866596 0.000523544)
(0.000133228 -0.0228015 0.00126369)
(0.000355333 -0.0339511 0.00178157)
(0.000650031 -0.0426846 0.00214063)
(0.000988532 -0.0493151 0.00238234)
(0.00134591 -0.0541286 0.00253696)
(0.00170487 -0.0574507 0.00262789)
(0.00205695 -0.0596086 0.0026725)
(0.00239776 -0.0608622 0.00268158)
(0.00272593 -0.0613901 0.00266235)
(0.00304113 -0.0612968 0.00262509)
(0.00333966 -0.0606502 0.00257418)
(0.00361846 -0.0595093 0.00251135)
(0.00387487 -0.057925 0.00243699)
(0.00410667 -0.05593 0.00235209)
(0.00431092 -0.0535488 0.0022576)
(0.00448444 -0.050813 0.002155)
(0.00462572 -0.0477498 0.00204758)
(0.0047348 -0.0443751 0.00193841)
(0.00481172 -0.0406855 0.00182949)
(0.00485614 -0.0366483 0.00172167)
(0.00486693 -0.0321918 0.00161515)
(0.00484136 -0.0271907 0.00150973)
(0.00477419 -0.0214479 0.00140485)
(0.0046567 -0.0146739 0.00130011)
(0.00447639 -0.00646887 0.0011968)
(0.00421796 0.00366809 0.00110074)
(0.00386667 0.0162581 0.00102461)
(0.00341394 0.0316341 0.000984906)
(0.00286194 0.0494793 0.000988898)
(0.00222128 0.067989 0.00101593)
(0.00152085 0.082875 0.00101111)
(0.000907834 0.0883102 0.000918324)
(0.000389672 0.0792284 0.00070388)
(2.83129e-05 0.0407774 0.000297)
(2.97163e-06 -0.00937274 0.000556601)
(0.000135639 -0.0246059 0.00134388)
(0.00035924 -0.0365704 0.00189722)
(0.000654864 -0.0458724 0.00228654)
(0.00099375 -0.0528499 0.00255429)
(0.0013508 -0.057831 0.00272986)
(0.00170885 -0.0611975 0.00283654)
(0.00205991 -0.0633245 0.0028928)
(0.00240121 -0.0644992 0.00291112)
(0.00273032 -0.0649076 0.00289849)
(0.00304518 -0.064665 0.00286152)
(0.0033429 -0.0638469 0.00280516)
(0.00362038 -0.0625075 0.00273188)
(0.00387457 -0.0606891 0.00264284)
(0.00410219 -0.0584317 0.0025392)
(0.00430018 -0.0557739 0.00242449)
(0.00446675 -0.0527521 0.00230254)
(0.00460068 -0.049397 0.00217704)
(0.00470137 -0.0457286 0.00205136)
(0.00476852 -0.0417444 0.00192808)
(0.0048019 -0.03741 0.00180899)
(0.00480075 -0.0326479 0.0016952)
(0.00476287 -0.0273209 0.00158704)
(0.00468362 -0.0212147 0.0014836)
(0.00455501 -0.0140189 0.00138264)
(0.00436519 -0.00531551 0.00128159)
(0.00409965 0.00539732 0.00118105)
(0.00374445 0.0186109 0.00108968)
(0.00329202 0.0345908 0.00102449)
(0.00274586 0.0529124 0.000998385)
(0.00211852 0.0716327 0.000998035)
(0.00144567 0.0863425 0.000974532)
(0.000859923 0.0913825 0.000875326)
(0.000366354 0.0815288 0.0006684)
(2.64868e-05 0.0417262 0.000284061)
(1.16009e-06 -0.0101328 0.000588481)
(0.000129751 -0.026555 0.00142442)
(0.000347549 -0.0393991 0.00201662)
(0.000637019 -0.0493069 0.00243807)
(0.000969801 -0.0566457 0.00273034)
(0.00132089 -0.0617954 0.00292249)
(0.00167356 -0.0652043 0.00303937)
(0.00202048 -0.0672994 0.00310164)
(0.00235904 -0.0683946 0.00312362)
(0.00268684 -0.0686863 0.0031141)
(0.00300074 -0.0682942 0.00307824)
(0.00329742 -0.0672956 0.00301974)
(0.00357353 -0.0657466 0.0029411)
(0.00382571 -0.0636932 0.00284493)
(0.00405078 -0.0611781 0.002734)
(0.00424597 -0.0582437 0.00261105)
(0.00440903 -0.0549315 0.00247912)
(0.0045385 -0.0512788 0.00234163)
(0.00463368 -0.04731 0.00220207)
(0.00469431 -0.0430247 0.00206354)
(0.00472035 -0.0383879 0.00192893)
(0.00471131 -0.0333165 0.00180074)
(0.00466531 -0.0276626 0.00168073)
(0.00457811 -0.0211948 0.00156912)
(0.0044422 -0.0135812 0.00146386)
(0.00424631 -0.00438449 0.00136075)
(0.00397674 0.00690065 0.00125642)
(0.00362052 0.0207389 0.00115446)
(0.00317115 0.0373304 0.00106906)
(0.00263327 0.0561399 0.00101557)
(0.00202084 0.0750833 0.000987782)
(0.00137523 0.0896345 0.00094488)
(0.000815706 0.0943042 0.000838674)
(0.000345165 0.0837087 0.000637762)
(2.51769e-05 0.0426216 0.000272531)
(1.43113e-06 -0.0108635 0.000620747)
(0.000130495 -0.0284214 0.00150799)
(0.000347132 -0.0421057 0.00213814)
(0.00063441 -0.0525966 0.00258412)
(0.000964531 -0.0602887 0.00288756)
(0.00131265 -0.0656105 0.00308071)
(0.00166236 -0.0690714 0.00319303)
(0.00200674 -0.0711464 0.00324874)
(0.0023432 -0.0721734 0.00326408)
(0.00266897 -0.0723586 0.00324893)
(0.0029806 -0.0718255 0.00320925)
(0.00327455 -0.0706537 0.00314887)
(0.00354731 -0.0689005 0.00307046)
(0.00379544 -0.0666142 0.00297594)
(0.0040157 -0.0638406 0.00286693)
(0.00420531 -0.0606271 0.00274515)
(0.0043621 -0.0570212 0.00261274)
(0.0044847 -0.0530663 0.00247239)
(0.0045724 -0.0487912 0.00232708)
(0.00462489 -0.0441981 0.00217991)
(0.00464214 -0.0392518 0.00203441)
(0.00462377 -0.0338646 0.00189433)
(0.00456813 -0.0278778 0.00176316)
(0.00447139 -0.0210434 0.00164311)
(0.00432658 -0.0130084 0.00153371)
(0.00412319 -0.00331678 0.00143084)
(0.00384853 0.00853856 0.00132808)
(0.00349083 0.0229928 0.00122278)
(0.00304464 0.0401754 0.00112317)
(0.00251555 0.0594347 0.00104423)
(0.00191859 0.0785444 0.000987235)
(0.00130067 0.0928793 0.000922495)
(0.000767836 0.0971503 0.000807769)
(0.000321396 0.0857992 0.000611421)
(2.30035e-05 0.0434682 0.000262824)
(4.46675e-07 -0.0116367 0.000647169)
(0.000128924 -0.0303973 0.00157405)
(0.000344665 -0.0449694 0.00222337)
(0.000631655 -0.0560697 0.0026682)
(0.000961611 -0.0641213 0.00295538)
(0.00130885 -0.069608 0.00312566)
(0.00165673 -0.0731094 0.00321569)
(0.00199858 -0.0751528 0.00325323)
(0.00233181 -0.0761013 0.00325566)
(0.00265338 -0.0761708 0.0032331)
(0.00295969 -0.0754891 0.00319148)
(0.00324722 -0.0741379 0.00313444)
(0.00351264 -0.0721768 0.00306412)
(0.0037528 -0.0696565 0.00298171)
(0.00396483 -0.0666263 0.00288773)
(0.00414631 -0.0631378 0.00278251)
(0.00429535 -0.0592435 0.00266654)
(0.00441069 -0.0549919 0.00254071)
(0.00449148 -0.0504144 0.0024063)
(0.00453727 -0.0455158 0.00226532)
(0.0045478 -0.0402612 0.00212086)
(0.00452248 -0.0345591 0.00197705)
(0.00445968 -0.0282419 0.00183855)
(0.00435577 -0.0210465 0.00170957)
(0.00420425 -0.0126003 0.00159242)
(0.00399541 -0.00242878 0.00148565)
(0.00371775 0.00997919 0.00138354)
(0.00336087 0.0250348 0.0012799)
(0.00292046 0.0428026 0.00117579)
(0.00240267 0.0625163 0.001081)
(0.00182295 0.081805 0.00100004)
(0.00123241 0.0959446 0.000914339)
(0.000725217 0.0998403 0.000789656)
(0.000301066 0.0877657 0.00059478)
(2.17851e-05 0.0442578 0.000257174)
(1.43732e-06 -0.0123969 0.000663722)
(0.000135409 -0.0323234 0.00160986)
(0.00035774 -0.0477486 0.00225293)
(0.000651044 -0.0594263 0.002669)
(0.0009854 -0.0678082 0.00291558)
(0.00133406 -0.0734358 0.00304497)
(0.00168048 -0.0769607 0.00310063)
(0.00201865 -0.0789611 0.00311218)
(0.00234631 -0.0798239 0.00309682)
(0.00266047 -0.0797742 0.00306414)
(0.00295765 -0.0789435 0.0030198)
(0.00323461 -0.0774161 0.00296714)
(0.00348841 -0.0752538 0.00290799)
(0.00371637 -0.0725099 0.00284297)
(0.00391618 -0.0692369 0.00277174)
(0.00408597 -0.0654895 0.00269333)
(0.00422433 -0.0613241 0.0026065)
(0.0043302 -0.0567913 0.00250993)
(0.00440265 -0.0519243 0.00240262)
(0.00444103 -0.0467295 0.00228472)
(0.00444473 -0.0411715 0.00215805)
(0.00441285 -0.0351557 0.0020261)
(0.00434351 -0.0285063 0.00189362)
(0.00423305 -0.020947 0.00176577)
(0.00407532 -0.012088 0.00164679)
(0.0038614 -0.00143999 0.00153792)
(0.00358116 0.0115081 0.00143567)
(0.00322584 0.027141 0.00133334)
(0.00279242 0.0454591 0.00122736)
(0.00228752 0.0655843 0.00112206)
(0.00172653 0.0850066 0.00102231)
(0.0011639 0.0989167 0.000918526)
(0.000682393 0.102425 0.00078409)
(0.000280472 0.0896313 0.000588345)
(2.01371e-05 0.044997 0.000256041)
(1.58774e-06 -0.0132042 0.00066589)
(0.000140506 -0.0343583 0.00160213)
(0.000369881 -0.0506631 0.00220928)
(0.00067043 -0.0629113 0.00257189)
(0.00100983 -0.071593 0.00276225)
(0.00136002 -0.0773232 0.00284363)
(0.00170469 -0.0808375 0.00286315)
(0.00203867 -0.0827686 0.00284941)
(0.0023601 -0.0835258 0.00281763)
(0.00266604 -0.0833419 0.00277611)
(0.00295314 -0.0823519 0.00272979)
(0.00321846 -0.0806428 0.00268171)
(0.00345943 -0.0782792 0.00263359)
(0.00367389 -0.0753173 0.00258592)
(0.00386012 -0.0718129 0.00253809)
(0.0040169 -0.0678236 0.0024885)
(0.00414348 -0.0634083 0.00243472)
(0.00423917 -0.0586166 0.00237364)
(0.00430329 -0.053482 0.00230213)
(0.00433511 -0.0480104 0.00221809)
(0.00433376 -0.0421654 0.00212131)
(0.00429791 -0.0358487 0.00201369)
(0.0042252 -0.0288774 0.00189903)