/*--------------------------------*- C++ -*----------------------------------*\
| =========                 |                                                 |
| \\      /  F ield         | OpenFOAM: The Open Source CFD Toolbox           |
|  \\    /   O peration     | Version:  v1912                                 |
|   \\  /    A nd           | Website:  www.openfoam.com                      |
|    \\/     M anipulation  |                                                 |
\*---------------------------------------------------------------------------*/
FoamFile
{
    version     2.0;
    format      ascii;
    class       volScalarField;
    location    "68/oil";
    object      wallHeatFlux;
}
// * * * * * * * * * * * * * * * * * * * * * * * * * * * * * * * * * * * * * //

dimensions      [1 0 -3 0 0 0 0];


internalField   uniform 0;

boundaryField
{
    maxY
    {
        type            calculated;
        value           uniform 0;
    }
    minX
    {
        type            calculated;
        value           uniform 0;
    }
    maxX
    {
        type            calculated;
        value           uniform 0;
    }
    minY
    {
        type            calculated;
        value           uniform 0;
    }
    minZ
    {
        type            calculated;
        value           uniform 0;
    }
    maxZ
    {
        type            calculated;
        value           uniform 0;
    }
    oil_to_sphere
    {
        type            calculated;
        value           nonuniform List<scalar> 
1536
(
16126.4
16834.7
15830.8
15612.1
13575.7
13904.9
13706
10695.8
10299.6
17615.8
13491
17787.8
18003.1
17734.7
15492.9
13427.6
10820.2
10382
3600.77
17983.5
17583.3
14031.7
13815.3
13514.9
14221.4
14208.1
14198.7
13563.2
16912.1
16743.4
15767.5
12805.9
11801.5
14268.9
13467.1
13385.8
12869
14786.7
14036.2
14770.7
14032.2
13391.2
16625.1
17807.5
16853.9
17666.8
13890.4
13891.8
15310.6
14136.1
14000.4
13985.7
13731.1
13891.8
12219.1
11584.8
13872.1
13820.4
10430.8
7610.38
8231.59
7510.21
8094.48
17966.4
18059.8
17739.9
16939.6
17682
16189.9
16797.1
14298
13946.1
15770.6
14081.4
13476.7
11724.9
11428.2
11161.9
13445.5
10401.5
7498.14
8110.18
6781.29
6711.18
8541.34
8208.22
6891.83
10752.6
10336.9
7577.25
8151.42
3590.46
3602.43
18045.3
18078.2
17809.1
17105.3
17399.9
17705.7
16101.9
16988.5
14255
16033.5
15762.3
14037.1
14079.4
13560
11211.8
13338.6
11793.5
11407
11752.9
7593.39
8248.05
6843.28
6936.17
6811.65
8490.9
8210.81
8619.35
10380.1
8168.67
3613.76
17728.9
16120.1
16821.1
16206.4
16733.9
13994.5
14051
14120
13977.8
13974.1
13901.3
14081.5
14160.7
13859.8
11610.4
13711
13660.7
7622.05
8217.84
10789.2
10420.6
8104.91
10277.4
15293.1
15239
13718
14268
15690.5
15250.6
13866.8
14060.9
13999.2
12900.9
12180
12399.8
15304.5
15052.7
15339.4
16588.1
14641.9
14140
13416
12898.5
13938.5
13147.3
12230.1
12451.8
16575.5
14888.4
16863.8
14648.1
12774.4
11458.6
15293
15518.6
16189.8
15109.6
14639.7
14117
12899.6
14066.5
12793.9
12334.4
12583.2
17224.4
15115.3
15718.1
16490.8
15372.8
16251
15679.9
12644.6
13056.3
12968.5
13064.9
12587.4
12859.2
13090.9
13492.3
10359.5
10108
9894.31
10554.6
10849
10753.5
11163.3
11200.7
10192.4
9714.93
9417.32
17246
18305.8
17998.1
17411.7
17315.4
17438.7
17377.1
17167.4
17764.9
16875.9
17255
17328.2
15344.3
15394.3
16851.9
16042
14494.2
12998.7
12935.8
13902.1
12752.8
10206.2
10454.4
9992.21
10611.2
10804.4
10027
9666.31
6325.33
5797.56
17783.4
17422.5
17670.3
17311.9
17700.9
18411.1
17771.8
17279
15190.1
14191
15144.4
15297.6
12775.2
13490
10276
9772.73
10946.6
11532
11163.6
9496.68
5750.5
6245.49
4725.57
4731.25
6287.73
17507
17194.9
17100.4
16863.4
17240.4
17446.8
17099.3
17615.2
18562.2
17940.6
17237.6
16270.8
15306.1
15419
15927.8
16973.1
16095.8
15353.5
15319.1
12930.2
13016.5
13420.7
13528
13095.4
13447.1
9963.96
9739.55
10125.6
10661.4
10462.6
10814
10891.2
10838.2
9938.5
9607.44
10569.6
10150.8
14280
13746.8
13902.4
12876.9
12666.7
12349.2
12066.6
16605.5
16052.8
16848.9
16439.3
15992.9
16635
16722.7
17028.3
17527.1
16740.6
16842
16629.8
18214
17524.2
17268.7
16864.7
17531.8
17889.4
17275.2
16313.8
16440.1
16855
15952.9
16761.7
17023.8
17427
17407.1
17742
17580.9
17406.5
17033.5
17017.7
16917
17150
16623.6
16693
16065.2
16576.3
15872
16098.7
16970.2
15228.8
16560.3
15438.3
15598.9
15070.8
14459.3
16464.9
15301
15346.3
15865.2
14509
14879.6
15337
14321.9
14734.9
14012.2
15500.8
16535
15371.5
15521.4
15657.8
14637.1
14958.3
14865.4
12941.7
13214.7
12884.3
12238.2
11927.6
12290
11679.6
11365.8
13012.5
13217
12971.1
12358.6
12028.1
12543.3
11623.6
11373.3
11088.5
12995.7
11357.4
12305.7
12055.4
12382.9
11600.2
12992.1
13319.9
12984.7
13300.4
11483
11137.9
12351.6
12068.6
12471.6
11527.6
11278.6
10642.3
10410.3
10610.6
10392.3
9934.19
9948.01
9627.23
10310.7
9781.67
10957.1
9530.19
9697.82
9370.23
9016.84
9509.75
9323.75
8773.31
8543.52
7984.55
10505.2
10204.3
9949.39
10573.2
9716.96
9962.2
8776.6
8482.4
8351.87
7992.88
9389.78
9080.77
9545.31
9337.51
9246.43
10635.2
10394.8
10782.2
10781.8
9972.24
9610.71
10425.4
10092.9
19758.6
19043.9
18390.6
19572.2
18312.8
18511.3
19002.3
17863.8
18052.5
18337.5
18260.2
17209.9
17835.9
17038.4
16941.5
16865.4
16767.7
17144.5
17031.3
17498.9
17822.9
16424.6
17476.6
16650
17110.9
16676.2
17583.4
16880.6
17586.9
17218
17682.2
17277.9
16492.3
16941.4
16087.3
17122.2
15110.1
15757.6
15390.7
14053.6
14690.6
14713.8
15523.1
14013.9
15254
13986.5
14685.8
14099.6
13599.2
13922.1
12951.5
12797.8
12088.8
12389.9
12209.5
11993.8
11489.7
12889.2
11378.4
13411.3
12855.5
12185.5
9736.12
9349.96
9081.58
9607.69
9384.46
10230.7
9731.44
10951.5
9466.33
8737.28
8624.69
8058.55
7234.24
6664.14
7300.3
6686.25
7751.45
8245.76
7728.62
7133.07
7259.04
10118.7
10425.2
9905.59
10540.2
9592
9134.12
9600.93
9284.98
10136.9
9665.97
10672.5
11074.2
9466.03
8745.24
9269.07
8541.18
7994.7
9033.16
6257.18
5782.69
6412.29
5830.46
4785.04
4760.79
4762.56
4739.32
5674.14
19306
18140.9
18539.9
18379.3
18163.5
19356.3
18611.4
18318.9
18016.8
17331.3
18246.1
18391
18798.4
17419.5
17553.3
17846.8
17876.5
16431
17242.3
16419.8
17591.8
17037.8
16990.8
16808.4
17222.3
16753.5
17179.7
17642.1
16889.3
16340.4
16120.3
17202.5
17579.2
16449.7
17421.1
16551.4
16022.3
17683
17003
16933.9
17149.1
16703.3
16638.2
17062.7
17572.9
16741.6
16125.2
15402.8
15409.2
14749.4
14144.6
14745.8
16451.5
15530.6
15527.3
14973.5
14857.8
14418.7
14696.1
14696.9
14065.2
14007.2
12907.2
13857.8
12678.8
13369.6
12369.3
12107.8
14074.9
13506.2
11571
12884
11340.5
12667.1
11929.1
11415.7
12232.2
12562.3
12652.7
12223.1
12249.2
13981.3
12843
8752.13
8679.68
8613.73
8122.38
10483.2
10139
9955.13
10598.9
9771.73
10027.9
9169.8
9746
9592.66
9350.93
9200.86
7835.18
7801.51
8286.1
7204.24
7250.28
6652.49
7287.27
7297.83
6647.13
8197.19
7685.85
7731.41
8274.6
7150.09
10158.1
9693.22
10804.4
11087.3
9482.29
8767.4
9289.74
8484.08
8545.96
9065.82
10023.3
9631.97
10380.4
10179.7
9923.42
10563.9
10764.2
9088.45
9389.92
9576.33
9300.19
9223.94
4778.48
4774.48
6353.87
6292.56
5807.69
5672.39
6884.35
6298.51
5711.57
16035
16835.8
16790.5
15903.6
16705.4
16032.2
15972.5
17616.2
17249.3
17861.7
17278.5
16474.2
16997.9
16725.3
17428.3
16887.4
17134
16446.2
16521.6
17566.4
17022.7
16767.9
16913.5
16681.4
16668.3
16964.9
16128
16063.6
16542.5
16901.1
16486.6
17095.9
16703.8
17870.6
16627.9
16187.9
16436.2
16600.7
16100.4
15951
17006
15342.7
14739.2
14751.8
15125.2
14131.6
16369.1
15274.6
15241.8
15712.7
14957.8
14974.2
14638
16047.3
15178
15380
15736.4
14513.6
14642.6
15189.6
15088.1
14141.6
15649.4
16446.1
15534.6
15693.7
15016.4
14988.4
14732.7
14701
14088.3
12319.7
12051.4
12434.2
11655.2
11504.7
11219.1
13109.9
12746.8
13195.3
13032.5
12046.9
12367.5
12339.8
11468.2
11245
11304.1
13004.9
12982.6
13299.9
12931.5
13361.7
11356.5
11567.2
12292.4
11975.4
12332.3
11399.6
11237.9
13403.2
12902.2
12900.9
13149.2
13456.7
11468.2
11245.4
12049.4
12371.3
12404
10421
10686.9
9970.24
9898.48
9587.11
10651.4
10407.4
10703.1
9407.38
9075.12
9553.3
9282.05
8882.55
9456.67
8611.32
8032.97
9141.93
10189.7
10373.3
9887.87
10655.2
11255.1
11944.3
10501.6
9929.69
9579.56
9820.23
10360.7
8763.94
9246.62
8522.64
8444.03
8993.08
9469.32
9122.44
9494.86
9445.64
9235.01
10759.7
11368.6
10227.8
9723.52
9441.18
10569.7
10814.3
10166.6
10446.4
9964.88
15796.3
15453.8
11427.6
10923.5
17675.8
17214.5
17545.3
17630.4
17515.4
15249.8
16318.5
15793.1
16114.4
13365
13999.4
11005.9
6701.34
6495.29
15832.8
15729.5
10727.6
6724.11
6395.62
7601.55
17622
15350.8
13842.6
7509.81
16121.6
15694.9
16054.5
13357.9
14050.2
14055.2
10681.2
15888.2
16115.5
14102.8
14069.5
15970.1
13958.9
14062.8
13103
13431.5
11157.2
11738.7
12070.2
15468.3
15949.7
13907.4
14687.6
13280.1
13713.8
11165.9
11724.4
11804.6
15368.6
16233
14005.2
14968.5
11973.7
11251.1
11929.8
12959.7
14665
14557
16099.2
16281.9
14028.1
13919.8
13823.7
14116.6
11748.2
11319.4
11812.6
10825.9
18336.2
17960
16004.1
17378.5
15947.2
17746.8
17566.7
13969.8
15505.4
15429.4
15744.6
15417.6
13912.6
12018.7
11785.3
11804
11880.8
11778.8
11662.2
8874.99
10931.5
8636.45
8937.93
18039.9
17680.8
18398.4
17779.1
18242.2
17932.7
18055.9
17953.5
18261.8
17844.4
16068
17458.9
16095.1
16751.3
16078.6
13980.9
14822
15318.6
16502.2
14139.3
15928.6
13977.3
11360.7
11849.9
12096.7
11485.1
11893.9
11682.8
10854.6
8913.79
8424.97
8327.61
8746.44
10898.8
8846.95
6530.28
6785.86
6389.95
18332.7
18176
17928
18747.7
17908.4
18214.2
17918.6
18543.4
18098.1
16094.8
17393.6
15862.8
17645
17490.6
17156.4
17497.8
16979.1
15917.3
16354.2
13928
15220.2
16329
15430.4
16197.4
14037.3
11243
11882.1
13324
13849.5
11599.2
12234.1
11367.3
11762.3
13759.5
10977.7
8890.06
8125.42
8443.48
8188.55
10875.5
8842.49
6535.03
6401.4
6456.79
18004.7
16639.8
16128.7
17694.8
15909.1
14021.5
15783.9
15532.1
15556.6
15488.4
11725.1
12260.2
11729.1
11696.9
11699.3
8857.83
11271.4
8977.75
11045.1
16039.9
15264.9
14618.1
15079.3
16191.9
15420.8
12467.7
13102
12710.1
15532.6
16232.5
15568.3
14832.7
16406.8
14296.9
15074.6
15045.9
14543.3
15555.3
14935.7
16266.6
14559
14894.5
14957
14740.8
13328.4
13315.3
12600
12394.1
11980.9
11492.3
12398.3
11914
12378.4
16115.7
15157.8
14760.5
15277.8
16131.2
14372.9
14590.9
14641.7
13611.8
15092.8
12918.4
13635.9
13433.7
12607.3
12500.8
12043.6
11478.8
12236.6
11853.4
12399.4
15325.4
16107.4
14385.9
14499.4
14763.5
13540.7
15013.3
13260.6
12463.8
11795.2
12684
12484.8
13068.1
17062.4
17106.7
16991.8
17199.2
14630
16229
15570.5
13015.3
13065.6
13518.5
13467.4
13299.2
10738.1
11290.1
11157.8
10081.4
9865.56
11397.1
10831.9
10828.3
17225.5
17334.8
17710.1
16999.8
14858.8
15551.5
14418
16566.1
15401.9
13235.4
13177.7
12599.8
10837.2
11640
11165.2
10146.7
7813.56
7973.72
7207.55
7252.31
6642.45
6333.72
17203.3
17112.9
17130.4
16908.5
17517.5
15178.3
15881.6
15664.2
12840.8
9907.1
11198.2
7260.92
6642.09
6385.19
5617.4
8021.59
17273.4
17160.6
17647.6
17246.9
17511.3
17416.5
17224.1
17121.9
17444.8
14361.2
14828.6
17211.3
15406.1
13371.1
13382.6
10851.2
11346
10833.4
10503.4
11113.9
10055.4
8036.97
13273.4
11129.9
16438.4
16169.8
15076.6
15224.2
13271.3
12964.8
13076.8
12190
11761.3
12559.1
12092.3
12170.8
11684.3
18289.1
18034.5
15680.2
15721.5
16682.7
17112.1
16905.6
16885.6
15834.4
16616.2
16270.1
16843.2
16005.4
16512.9
17323.9
16970.4
17062.3
16982.9
15846.2
16205.2
16449.5
16762
17260.6
17552.7
17403.3
17530.3
16637.9
15899
16374.6
17550.8
17230.3
17508.3
17317.5
15962
17140.1
17341.9
16861.1
16267.1
16526.1
16197.2
15059.4
14844.9
16602.2
15172.9
14688.1
14746.8
13910.7
14045
13974.1
14759.7
16287.1
15514.2
14153.5
14096.8
14735.4
14169.7
14810.6
16092.6
14986.8
14040.7
13448.9
13443.4
12495.7
12706.7
11331.4
13437.9
12477
12798.7
11478.5
13110.4
13467.2
12641.4
11395
13391.5
12136.9
12501.8
10785.2
10773.9
9902.87
9964.42
9211.13
9269.63
9998.93
9322.98
9120.62
8486.99
8307.77
8272.62
8617.14
10792.4
10083.3
9282.86
9010.45
8531.42
8576.2
8239.19
10477
10803
9259.02
18467.1
17656.8
18204.3
17427.1
17591
18449.7
17156.8
19323.6
17728.4
17870.2
17834.4
18543.5
17870.4
18420
19258.1
18612.4
17770.2
18239.8
16536.3
17249.5
17915.4
17469.9
16088.1
16924
16448.5
17250.9
16935.2
17186.9
16977.8
17583.6
16517.1
15812.8
16110.1
16794.6
17505.2
17089.8
17019.2
16661.6
14520.2
14775.1
13970.5
15355.6
16082.3
14570.9
14869.8
15099.8
15277.8
15299.4
15934.4
14619.5
13102.5
12388
12125.5
12878.6
13295.1
11906.8
12180.2
12571.6
12989.2
12397.7
11940.2
11462.3
8588.77
8438.57
8323.24
9890.12
9283.27
9031.99
8522.18
10741.7
10985.3
8543.3
8369.75
9877.53
8541.89
6386.34
6410.94
5753.45
6888.3
5645.09
6392.2
6991.71
18620.1
17773.3
18996
18126
18081.3
17440.2
17629.3
17154.6
18363.5
18919.1
18448.7
17785.8
17482.5
17404.9
17894.9
17847.9
17876.3
16539.7
17640.5
16421.9
17498.4
17539.8
17179.2
15672.7
17503.9
16740.9
17150.1
16993.1
16617.9
17023.1
17006.4
16209.4
16486
16208.2
14963.6
16057.5
15182.7
14650.3
14378.8
13552
14730.6
16288.2
15018.4
15073.3
13052.1
12017.4
12369.1
12874.6
13167.7
12139.2
12540
12750.3
12337.7
11914.5
13187.9
13269.2
9299.21
9050.88
8549.67
10913
10155.5
8568.54
8447.23
9915.54
8575.09
10725.3
8506.47
5715.71
6375.82
7003.95
18424.3
17175.2
16000.5
16895.8
16053
15950.4
16567.4
17536.8
17177.8
17065.9
16135.4
16403.3
16826.5
16660.7
17288.7
17068.7
17148.6
16980.9
16645.8
15955.6
16966.5
16449.9
16266.3
15303.9
14113.7
14939.7
16683
15118.1
14626.4
13963.2
13949.8
14745.1
16307
14015.3
14759.1
16268.8
14124.4
12370.4
11637.6
13125.1
13433.6
13103.3
12426.4
12863.2
13300.5
12135.5
13370.1
12169.8
9190.91
10783.7
8510.45
8345.93
8667.57
10748
11350.8
9991.62
8507.08
8658.17
9842.39
10796.4
)
;
    }
}


// ************************************************************************* //
