/*--------------------------------*- C++ -*----------------------------------*\
| =========                 |                                                 |
| \\      /  F ield         | OpenFOAM: The Open Source CFD Toolbox           |
|  \\    /   O peration     | Version:  v1912                                 |
|   \\  /    A nd           | Website:  www.openfoam.com                      |
|    \\/     M anipulation  |                                                 |
\*---------------------------------------------------------------------------*/
FoamFile
{
    version     2.0;
    format      ascii;
    class       volScalarField;
    location    "214/sphere";
    object      ddt0((betavSolid*thermo:rho),h);
}
// * * * * * * * * * * * * * * * * * * * * * * * * * * * * * * * * * * * * * //

dimensions      [1 -1 -3 0 0 0 0];


internalField   nonuniform List<scalar> 
6600
(
-652650
-652766
-652755
-653017
-652689
-652685
-652762
-653533
-653696
-653224
-652752
-653692
-653853
-653403
-653158
-653396
-653022
-652751
-653007
-652690
-652752
-653686
-653852
-653404
-652983
-653848
-654008
-653566
-652763
-652666
-653391
-653552
-653270
-652743
-652682
-653207
-653404
-652991
-652673
-653390
-653558
-653268
-652971
-653263
-652835
-652747
-652748
-652747
-652736
-652748
-652656
-653018
-652777
-653401
-653230
-653561
-653411
-653229
-653558
-653402
-652767
-652657
-653016
-652773
-653404
-653399
-653227
-653016
-652771
-652770
-652658
-652735
-652734
-652731
-652723
-652692
-652724
-652733
-652696
-652723
-652731
-652693
-652737
-652803
-652683
-652681
-652977
-653261
-652682
-652684
-653264
-652992
-652837
-652676
-652975
-652673
-653259
-652759
-652756
-653002
-653218
-653398
-653394
-653552
-652736
-652865
-652830
-653103
-653022
-652961
-653138
-652688
-652990
-653270
-652690
-652677
-652675
-653258
-652977
-653001
-652648
-652765
-653396
-653549
-653219
-653395
-652777
-652773
-652657
-653558
-653410
-653402
-653232
-653270
-652689
-652994
-652802
-652680
-652974
-653262
-652682
-653264
-652992
-652685
-652837
-652735
-652743
-652971
-652676
-652671
-653255
-652758
-653159
-653392
-652754
-652996
-653393
-653545
-652658
-653399
-653229
-653006
-652770
-653551
-653403
-653022
-652686
-653268
-652686
-652724
-653157
-652753
-653386
-652750
-653388
-652983
-653536
-652660
-653406
-652778
-653402
-652775
-653565
-653035
-652762
-652724
-653387
-653158
-652983
-653543
-652752
-653394
-652774
-653230
-652663
-653563
-653035
-653408
-652776
-652763
-652973
-652667
-653258
-652674
-653394
-652759
-653390
-653546
-652752
-652996
-653227
-652763
-652657
-653553
-653405
-653006
-652774
-653269
-652690
-652686
-652736
-652743
-652737
-652743
-652674
-652667
-653256
-652970
-652997
-653388
-653545
-652760
-653157
-653396
-652770
-653552
-653403
-652762
-652657
-653400
-653228
-653269
-652688
-653020
-652724
-653387
-652983
-653537
-653155
-652750
-653392
-652777
-653564
-653035
-653226
-652661
-653405
-652775
-652763
-652722
-653542
-652751
-653387
-652749
-653395
-653158
-653035
-653411
-652778
-653406
-652777
-653230
-652663
-653257
-652676
-652971
-653543
-652752
-652996
-653155
-653392
-652759
-653406
-653005
-652772
-653396
-653228
-652764
-652656
-652690
-652685
-653023
-652736
-652799
-652679
-652971
-653262
-652676
-653263
-652992
-652684
-652836
-652975
-652672
-653255
-652677
-653394
-653386
-653546
-652648
-652763
-652756
-653000
-653268
-652686
-652690
-653255
-652971
-652676
-653548
-653210
-653393
-652757
-652999
-652649
-652763
-652690
-652989
-652687
-652799
-653261
-652679
-652681
-652990
-652684
-652684
-652668
-652642
-652637
-652662
-652646
-652680
-652649
-652675
-652649
-652675
-652648
-652670
-652644
-652631
-652637
-652698
-652693
-652652
-652730
-652722
-652690
-652677
-652646
-652667
-652645
-652697
-652695
-652774
-653026
-652781
-652886
-652886
-652737
-652879
-652834
-653106
-653033
-652961
-653150
-652733
-652865
-652828
-653100
-653022
-652960
-653138
-652696
-652696
-652773
-653024
-652777
-652885
-652883
-652739
-652874
-652834
-653104
-653029
-652963
-653146
-652871
-652738
-652832
-653103
-653027
-653144
-652963
-652869
-652735
-652830
-653101
-653023
-653139
-652960
-652696
-652696
-652772
-653025
-652780
-652888
-652887
-652647
-652633
-652698
-652691
-652648
-652697
-652689
-652647
-652645
-652687
-652685
-652758
-653008
-652769
-652878
-652875
-652685
-652749
-652662
-652835
-653081
-652722
-653010
-652800
-653121
-652947
-652663
-652870
-652696
-652715
-652823
-652656
-652678
-652742
-652659
-652696
-652862
-652820
-652710
-652962
-652671
-652749
-652668
-652850
-652731
-652855
-653093
-652732
-653016
-652843
-652959
-652811
-653128
-652664
-652686
-652750
-652960
-652744
-652663
-652667
-652844
-652850
-652729
-653067
-653005
-652712
-652832
-652936
-653115
-652788
-652679
-652652
-652652
-652667
-652731
-652775
-652836
-652830
-653148
-652701
-652954
-652944
-652647
-653068
-652836
-653004
-652713
-653116
-652791
-652936
-653170
-652971
-653249
-652934
-653213
-652892
-653206
-652700
-652869
-652656
-652715
-652825
-653067
-653004
-652832
-652715
-653115
-652936
-652789
-652684
-652656
-653145
-653228
-652915
-652912
-653188
-653186
-652853
-652740
-652739
-652702
-652688
-652852
-652645
-652703
-652808
-652634
-652725
-652702
-652673
-652653
-652669
-652734
-652694
-652660
-652858
-652817
-652706
-652652
-652669
-652736
-653143
-652814
-652949
-652771
-652813
-652943
-652686
-652686
-652849
-652652
-652812
-652700
-652762
-653133
-652798
-652797
-652934
-652933
-652678
-652694
-652711
-652710
-652663
-652634
-652692
-652696
-652647
-652639
-652686
-652684
-652683
-652658
-652677
-652744
-652658
-652858
-652692
-652707
-652817
-652654
-652673
-652734
-652690
-652650
-652857
-652708
-652809
-652763
-652806
-652795
-653136
-652680
-652942
-652927
-652655
-652861
-652820
-652694
-652708
-652685
-652749
-652663
-652694
-652660
-652861
-652708
-652820
-652662
-652685
-652749
-652815
-653143
-652947
-652772
-652815
-652687
-652943
-652696
-652710
-652708
-652661
-652656
-652677
-652743
-652652
-652690
-652859
-652817
-652706
-652653
-652668
-652730
-652762
-652803
-652793
-653134
-652678
-652940
-652925
-652690
-652646
-652855
-652706
-652809
-652842
-652725
-653015
-652803
-653128
-653085
-652951
-652723
-652835
-652800
-653083
-653011
-652950
-653122
-652659
-652870
-652822
-652696
-652716
-652814
-653142
-652945
-652770
-652810
-652687
-652944
-652665
-652686
-652750
-652698
-652665
-652867
-652712
-652825
-652689
-652650
-652859
-652706
-652815
-652654
-652678
-652741
-652688
-652853
-652645
-652704
-652805
-652650
-652666
-652729
-652760
-652806
-653134
-652794
-652938
-652678
-652925
-652925
-652930
-653247
-653159
-652866
-653200
-653204
-653007
-652687
-652688
-652770
-652759
-652873
-652877
-652848
-653084
-652729
-653018
-652804
-653130
-652951
-652877
-652740
-653034
-652832
-653150
-653107
-652968
-652871
-652739
-652834
-653104
-653026
-653141
-652964
-652697
-652694
-652774
-653027
-652780
-652890
-652887
-652665
-652687
-652752
-652698
-652867
-652661
-652713
-652822
-652774
-652816
-653145
-652817
-652951
-652687
-652945
-652664
-652686
-652750
-652692
-652687
-652684
-652693
-652652
-652860
-652817
-652709
-652761
-652806
-653133
-652794
-652936
-652673
-652926
-652656
-652670
-652733
-652693
-652859
-652656
-652709
-652813
-652664
-652686
-652749
-652770
-652815
-653143
-652814
-652948
-652685
-652941
-652698
-652862
-652658
-652710
-652823
-652663
-652685
-652747
-652696
-652711
-652710
-652663
-652639
-652636
-652694
-652688
-652645
-652650
-652702
-652726
-652677
-652672
-652645
-652653
-652671
-652737
-652652
-652669
-652731
-652759
-652797
-652794
-653130
-652677
-652933
-652924
-652688
-652651
-652852
-652811
-652702
-652687
-652646
-652850
-652807
-652701
-653069
-652720
-653009
-652838
-652940
-652793
-653120
-653071
-652722
-652832
-653007
-652792
-652949
-653116
-653150
-652923
-652918
-653240
-652858
-653197
-653193
-653019
-652693
-652781
-652694
-652885
-652765
-652884
-653171
-652934
-652970
-653248
-652891
-653206
-653213
-653097
-652733
-652867
-653027
-652821
-652962
-653140
-652777
-652832
-652831
-653149
-652700
-652950
-652950
-652665
-652688
-652752
-652696
-652659
-652865
-652822
-652710
-652697
-652661
-652865
-652822
-652711
-652626
-652632
-652684
-652685
-652641
-653065
-652715
-653005
-652830
-652937
-652789
-653113
-653067
-652714
-653003
-652830
-652939
-652789
-653114
-653146
-652912
-652915
-653229
-652854
-653187
-653189
-653029
-652782
-652699
-652698
-652890
-652890
-652775
-653110
-652742
-653033
-652882
-652968
-652838
-653153
-653107
-652738
-653031
-652879
-652965
-652832
-653150
-653187
-652989
-652990
-653275
-652921
-653231
-653230
-652682
-652650
-652683
-652648
-652738
-652739
-652699
-652633
-652687
-652684
-652646
-652627
-652965
-652664
-652744
-652665
-652846
-652727
-652851
-653148
-652918
-653229
-652914
-653190
-652857
-653188
-653069
-652716
-652833
-653006
-652788
-652942
-653115
-653108
-653031
-652739
-652878
-652965
-653150
-652836
-653030
-652702
-652785
-652699
-652889
-652777
-652891
-653187
-652990
-653275
-652991
-653230
-652924
-653231
-653108
-652738
-652879
-653031
-652835
-652965
-653151
-652739
-652740
-652701
-652681
-652651
-652759
-652792
-652801
-653131
-652676
-652925
-652932
-652654
-652671
-652734
-652690
-652645
-652853
-652811
-652705
-652688
-652650
-652853
-652809
-652703
-652962
-652744
-652668
-652666
-652850
-652850
-652729
-653072
-653011
-652720
-652842
-652943
-653123
-652795
-653068
-652717
-653005
-652830
-652941
-652791
-653114
-653152
-652928
-653240
-652920
-653200
-652865
-653192
-653091
-653015
-652730
-652847
-652954
-653129
-652810
-653016
-652780
-652690
-652694
-652879
-652884
-652764
-653171
-652935
-653248
-652971
-653207
-652891
-653213
-653097
-652735
-653029
-652872
-652960
-652824
-653143
-652665
-652689
-652753
-652662
-652686
-652748
-652696
-652662
-652865
-652821
-652710
-652698
-652655
-652867
-652822
-652712
-652647
-652638
-652698
-652691
-652656
-652702
-652726
-652678
-652673
-652645
-652636
-652691
-652697
-652656
-652642
-652726
-652703
-652676
-652670
-652643
-652642
-652687
-652851
-652647
-652701
-652807
-652685
-652850
-652638
-652701
-652806
-652651
-652668
-652731
-652652
-652671
-652733
-652759
-653129
-652791
-652797
-652924
-652930
-652676
-653153
-652922
-653241
-652927
-653195
-652864
-653199
-652962
-652664
-652669
-652744
-652729
-652846
-652851
-653073
-652841
-652721
-653012
-652796
-653123
-652944
-653095
-652867
-653027
-652732
-653140
-652820
-652958
-653092
-652846
-652731
-653015
-652808
-653129
-652955
-653017
-652693
-652690
-652778
-652762
-652884
-652881
-652699
-652866
-652666
-652713
-652823
-652662
-652685
-652749
-652774
-653146
-652833
-652828
-652951
-652944
-652700
-652661
-652685
-652750
-652634
-652685
-652684
-652646
-652630
-653147
-652916
-653229
-652913
-653190
-652858
-653187
-652960
-652661
-652744
-652666
-652847
-652726
-652851
-653069
-652827
-652717
-653004
-652789
-653112
-652943
-653108
-653032
-652881
-652741
-653151
-652967
-652837
-653187
-652991
-653275
-652991
-653230
-652926
-653230
-653029
-652699
-652780
-652697
-652891
-652777
-652888
-653107
-652879
-652739
-653031
-652836
-653151
-652964
-652740
-652739
-652702
-652680
-652652
-652684
-652682
-652642
-652627
-652628
-653065
-652830
-653005
-652715
-653114
-652788
-652938
-653068
-652827
-653004
-652718
-653111
-652788
-652948
-652958
-652659
-652668
-652744
-652726
-652846
-652854
-653188
-653276
-652992
-652991
-653231
-653231
-652925
-653109
-652881
-653033
-652740
-653153
-652836
-652964
-653108
-652881
-653033
-652741
-653152
-652837
-652965
-653029
-652698
-652700
-652784
-652776
-652890
-652890
-652682
-652653
-652681
-652651
-652686
-652853
-652653
-652703
-652812
-652648
-652666
-652729
-652759
-653131
-652794
-652799
-652925
-652932
-652674
-652654
-652670
-652735
-653072
-653005
-652829
-652719
-653114
-652946
-652793
-653151
-653240
-652921
-652925
-653193
-653198
-652861
-652965
-652671
-652744
-652667
-652854
-652733
-652847
-653070
-652839
-653010
-652717
-653122
-652793
-652938
-653169
-653247
-652970
-652932
-653212
-653204
-652887
-653097
-653028
-652870
-652733
-653142
-652962
-652822
-653091
-652845
-653016
-652734
-653128
-652810
-652955
-653018
-652694
-652778
-652692
-652885
-652766
-652880
-652698
-652866
-652662
-652712
-652821
-652698
-652866
-652659
-652711
-652822
-652777
-653150
-652836
-652829
-652956
-652945
-652702
-652667
-652688
-652752
-652661
-652685
-652748
-652691
-652697
-652649
-652641
-652671
-652641
-652644
-652681
-652682
-652687
-652692
-652655
-652858
-652814
-652708
-652760
-652798
-653131
-652798
-652932
-652675
-652931
-652656
-652677
-652740
-652860
-652644
-652693
-652708
-652815
-652663
-652685
-652748
-653142
-652812
-652940
-652770
-652816
-652948
-652686
-652660
-652862
-652820
-652694
-652709
-652680
-652746
-652661
-652695
-652709
-652710
-652663
-652759
-652799
-653132
-652800
-652933
-652676
-652929
-652686
-652649
-652852
-652811
-652701
-652652
-652675
-652737
-652652
-652687
-652854
-652812
-652703
-652685
-652682
-652754
-653004
-652768
-652872
-652871
-652846
-653017
-652728
-653130
-652803
-653084
-652950
-652722
-652837
-652799
-653080
-653008
-652946
-653120
-652660
-652683
-652750
-652695
-652661
-652866
-652823
-652713
-652685
-652749
-652663
-652660
-652865
-652822
-652698
-652714
-652651
-652669
-652737
-652757
-653130
-652798
-652797
-652931
-652929
-652675
-652652
-652686
-652853
-652702
-652811
-652654
-652673
-652739
-652836
-652725
-652801
-653080
-653009
-653121
-652946
-652685
-652687
-652755
-653005
-652771
-652873
-652874
-652845
-653015
-652724
-653128
-652800
-653081
-652948
-652700
-652869
-652663
-652826
-652714
-653141
-652810
-652944
-652773
-652812
-652944
-652688
-652666
-652689
-652751
-652664
-652863
-652821
-652695
-652711
-652683
-652749
-652663
-652683
-652679
-652686
-652658
-652670
-652733
-652691
-652856
-652646
-652809
-652708
-652658
-652679
-652742
-652857
-652651
-652690
-652813
-652706
-653141
-652813
-652947
-652771
-652814
-652941
-652688
-652695
-652858
-652658
-652817
-652709
-652662
-652685
-652746
-652658
-652859
-652818
-652695
-652709
-652684
-652749
-652662
-652982
-652971
-653258
-652913
-653223
-653180
-653215
-653696
-653689
-653849
-653688
-653845
-653841
-653999
-653535
-653857
-653703
-653849
-653694
-654007
-653856
-653846
-653532
-653690
-653849
-654000
-653694
-653846
-653700
-653695
-653541
-654007
-653856
-653854
-653703
-653217
-653285
-652951
-653288
-653097
-653399
-653100
-653844
-653840
-653998
-653530
-653693
-653688
-653844
-653698
-654007
-653856
-653701
-653540
-653856
-653699
-654000
-653691
-653844
-653695
-653848
-653534
-653690
-653859
-653854
-653705
-653857
-653702
-653696
-653540
-652847
-653091
-653091
-653230
-652874
-653050
-653048
-653225
-653089
-653045
-652845
-653093
-653047
-652876
-653221
-653086
-653044
-652843
-653086
-653041
-652873
-652973
-652984
-652919
-653182
-653259
-653215
-653224
-652971
-652981
-652916
-653179
-653257
-653214
-653221
-652981
-652971
-652916
-653179
-653257
-653221
-653214
-653084
-652838
-653084
-653217
-652870
-653040
-653033
-653086
-653224
-653044
-652842
-653086
-652871
-653043
-652837
-653084
-653216
-653081
-653040
-652868
-653032
-652932
-652926
-653248
-652870
-653205
-653162
-653202
-653093
-653227
-653046
-652845
-653093
-652878
-653047
-652835
-653084
-653080
-653215
-652867
-653039
-653030
-653094
-652847
-653093
-653227
-652878
-653049
-653047
-652839
-653085
-653217
-653086
-653039
-652871
-653036
-652845
-653087
-653223
-653088
-653046
-652874
-653044
-652833
-653212
-653079
-653077
-653035
-653030
-652864
-653219
-652955
-653286
-653290
-653098
-653104
-653401
-652846
-653227
-653091
-653090
-653049
-653048
-652875
-653216
-652952
-653286
-653285
-653096
-653098
-653399
-653218
-653285
-652951
-653285
-653097
-653399
-653099
-652836
-653214
-653081
-653081
-653034
-653035
-652867
-652845
-653228
-653091
-653092
-653049
-653046
-652874
-652832
-653079
-653077
-653212
-652863
-653030
-653031
-653216
-653282
-652950
-653289
-653094
-653398
-653101
-652848
-653094
-653090
-653228
-652877
-653051
-653046
-653215
-653286
-652948
-653287
-653096
-653396
-653099
-653217
-653285
-653290
-652954
-653400
-653096
-653103
-652834
-653080
-653081
-653212
-652866
-653032
-653034
-653218
-653287
-653288
-652950
-653399
-653099
-653099
-653085
-652838
-653085
-653217
-653038
-652871
-653037
-653223
-653087
-653042
-652842
-653085
-653043
-652871
-652834
-653214
-653079
-653079
-653035
-653033
-652864
-652933
-653245
-652924
-653205
-652867
-653159
-653197
-653225
-653091
-653048
-652848
-653092
-653046
-652878
-652832
-653078
-653212
-653078
-653034
-652863
-653032
-652931
-653245
-652920
-653203
-652862
-653156
-653196
-653084
-652837
-653216
-653083
-653035
-653036
-652870
-652359
-651925
-651561
-652370
-651932
-651564
-652370
-651933
-651565
-652383
-651945
-651569
-652376
-651939
-651563
-652372
-651938
-651570
-652383
-651946
-651575
-652373
-651938
-651568
-652377
-651940
-651569
-652385
-651948
-651574
-652379
-651942
-651566
-652371
-651935
-651560
-652375
-651940
-651569
-652387
-651950
-651575
-652379
-651942
-651563
-652383
-651947
-651574
-652347
-651913
-651546
-652353
-651918
-651550
-652374
-651937
-651563
-652374
-651939
-651568
-652374
-651937
-651568
-652363
-651927
-651556
-652368
-651930
-651559
-652371
-651933
-651560
-652372
-651934
-651561
-652371
-651933
-651560
-652368
-651930
-651556
-652372
-651934
-651560
-652371
-651934
-651566
-652377
-651940
-651570
-652373
-651936
-651569
-652374
-651937
-651569
-652375
-651937
-651569
-652366
-651928
-651553
-652366
-651928
-651554
-652372
-651935
-651561
-652366
-651929
-651554
-652370
-651932
-651556
-652373
-651936
-651562
-652366
-651929
-651555
-652372
-651935
-651560
-652368
-651930
-651556
-652378
-651940
-651568
-652375
-651937
-651567
-652372
-651935
-651566
-652381
-651943
-651571
-652365
-651929
-651560
-652368
-651931
-651561
-652387
-651950
-651572
-652383
-651947
-651575
-652379
-651944
-651575
-652383
-651946
-651575
-652369
-651932
-651561
-652372
-651934
-651562
-652375
-651937
-651569
-652370
-651933
-651567
-652378
-651943
-651572
-652383
-651946
-651574
-652371
-651935
-651565
-652371
-651936
-651566
-652378
-651941
-651570
-652373
-651938
-651567
-652379
-651942
-651571
-652370
-651933
-651558
-652374
-651937
-651563
-652372
-651934
-651562
-652364
-651927
-651556
-652377
-651940
-651570
-652374
-651940
-651570
-652375
-651939
-651571
-652359
-651921
-651546
-652395
-651958
-651583
-652392
-651954
-651579
-652383
-651946
-651574
-652358
-651920
-651545
-652376
-651940
-651575
-652382
-651945
-651576
-652390
-651953
-651580
-652383
-651947
-651574
-652354
-651918
-651550
-652362
-651927
-651557
-652367
-651930
-651560
-652383
-651946
-651571
-652376
-651939
-651563
-652377
-651939
-651571
-652367
-651931
-651566
-652393
-651954
-651578
-652381
-651946
-651575
-652380
-651944
-651573
-652370
-651936
-651566
-652377
-651941
-651571
-652371
-651933
-651559
-652374
-651937
-651563
-652371
-651933
-651559
-652374
-651936
-651563
-652369
-651931
-651560
-652356
-651920
-651551
-652378
-651940
-651571
-652375
-651937
-651569
-652377
-651942
-651572
-652378
-651942
-651573
-652359
-651921
-651546
-652369
-651934
-651569
-652379
-651942
-651572
-652390
-651952
-651578
-652383
-651946
-651574
-652356
-651918
-651543
-652395
-651958
-651583
-652394
-651956
-651581
-652373
-651937
-651573
-652380
-651943
-651575
-652385
-651947
-651577
-652366
-651930
-651559
-652371
-651933
-651562
-652383
-651947
-651571
-652389
-651951
-651575
-652390
-651953
-651577
-652375
-651938
-651571
-652367
-651932
-651567
-652375
-651937
-651570
-652383
-651946
-651575
-652377
-651941
-651571
-652372
-651934
-651559
-652371
-651935
-651566
-652356
-651922
-651555
-652366
-651931
-651561
-652370
-651935
-651564
-652381
-651943
-651570
-652364
-651927
-651557
-652364
-651929
-651559
-652373
-651935
-651563
-652372
-651938
-651569
-652376
-651940
-651571
-652380
-651945
-651573
-652384
-651947
-651575
-652364
-651929
-651560
-652371
-651933
-651563
-652368
-651930
-651562
-652385
-651949
-651576
-652377
-651941
-651572
-652371
-651935
-651564
-652372
-651935
-651565
-652370
-651935
-651565
-652375
-651938
-651567
-652380
-651943
-651571
-652378
-651941
-651569
-652358
-651923
-651552
-652363
-651926
-651561
-652369
-651931
-651561
-652339
-651906
-651542
-652349
-651914
-651545
-652367
-651930
-651563
-652367
-651932
-651561
-652364
-651929
-651558
-652368
-651933
-651560
-652373
-651935
-651566
-652354
-651919
-651550
-652368
-651931
-651563
-652335
-651903
-651541
-652358
-651922
-651556
-652351
-651917
-651550
-652363
-651926
-651562
-652361
-651926
-651551
-652362
-651927
-651552
-652370
-651933
-651559
-652364
-651927
-651552
-652362
-651927
-651558
-652365
-651927
-651560
-652348
-651914
-651546
-652362
-651925
-651558
-652384
-651946
-651574
-652384
-651946
-651575
-652388
-651949
-651576
-652381
-651943
-651574
-652386
-651948
-651578
-652383
-651945
-651575
-652351
-651917
-651552
-652376
-651939
-651569
-652363
-651928
-651558
-652336
-651904
-651540
-652358
-651924
-651550
-652355
-651920
-651544
-652360
-651925
-651550
-652356
-651920
-651545
-652368
-651931
-651563
-652346
-651913
-651549
-652363
-651927
-651561
-652384
-651945
-651573
-652384
-651946
-651573
-652382
-651945
-651577
-652393
-651955
-651582
-652379
-651942
-651573
-652381
-651943
-651574
-652373
-651937
-651570
-652380
-651944
-651569
-652390
-651953
-651576
-652374
-651938
-651570
-652371
-651936
-651569
-652386
-651948
-651577
-652379
-651944
-651573
-652382
-651945
-651574
-652388
-651952
-651580
-652372
-651934
-651566
-652371
-651932
-651564
-652368
-651931
-651562
-652378
-651939
-651569
-652386
-651947
-651575
-652369
-651933
-651566
-652368
-651933
-651566
-652378
-651940
-651572
-652378
-651943
-651571
-652382
-651945
-651573
-652384
-651948
-651576
-652381
-651943
-651573
-652377
-651941
-651573
-652368
-651934
-651569
-652382
-651945
-651575
-652386
-651950
-651576
-652388
-651952
-651578
-652402
-651964
-651586
-652380
-651942
-651573
-652381
-651943
-651574
-652376
-651939
-651570
-652388
-651949
-651578
-652391
-651951
-651579
-652366
-651930
-651564
-652369
-651934
-651567
-652378
-651940
-651570
-652372
-651936
-651568
-652385
-651949
-651575
-652371
-651935
-651564
-652382
-651944
-651568
-652369
-651935
-651563
-652374
-651937
-651569
-652366
-651929
-651562
-652367
-651930
-651562
-652363
-651927
-651559
-652373
-651936
-651567
-652374
-651937
-651570
-652389
-651952
-651579
-652388
-651951
-651578
-652378
-651940
-651569
-652357
-651922
-651556
-652375
-651939
-651567
-652390
-651952
-651577
-652386
-651951
-651575
-652380
-651944
-651574
-652371
-651934
-651567
-652359
-651924
-651560
-652363
-651927
-651565
-652385
-651949
-651579
-652378
-651941
-651565
-652387
-651949
-651571
-652372
-651937
-651567
-652374
-651937
-651570
-652380
-651944
-651570
-652379
-651942
-651569
-652375
-651939
-651563
-652375
-651937
-651565
-652355
-651919
-651553
-652349
-651914
-651550
-652365
-651927
-651557
-652378
-651941
-651569
-652346
-651912
-651547
-652362
-651926
-651560
-652370
-651933
-651560
-652369
-651933
-651556
-652379
-651942
-651572
-652367
-651930
-651564
-652367
-651930
-651563
-652366
-651930
-651561
-652375
-651937
-651568
-652375
-651937
-651569
-652381
-651945
-651571
-652382
-651945
-651572
-652372
-651935
-651568
-652374
-651938
-651570
-652377
-651939
-651572
-652381
-651944
-651573
-652366
-651928
-651561
-652363
-651926
-651559
-652361
-651925
-651557
-652373
-651935
-651567
-652371
-651933
-651567
-652393
-651954
-651582
-652387
-651949
-651577
-652387
-651949
-651578
-652369
-651933
-651561
-652375
-651937
-651564
-652361
-651925
-651558
-652358
-651922
-651557
-652374
-651937
-651567
-652375
-651938
-651566
-652385
-651947
-651575
-652381
-651943
-651573
-652383
-651945
-651573
-652396
-651957
-651586
-652396
-651957
-651585
-652395
-651956
-651584
-652401
-651963
-651587
-652393
-651955
-651583
-652397
-651958
-651584
-652392
-651954
-651581
-652380
-651942
-651576
-652380
-651942
-651575
-652345
-651911
-651546
-652353
-651917
-651555
-652360
-651925
-651549
-652358
-651923
-651548
-652368
-651932
-651564
-652340
-651908
-651544
-652359
-651923
-651558
-652389
-651950
-651578
-652386
-651948
-651577
-652387
-651950
-651578
-652380
-651943
-651575
-652387
-651949
-651577
-652382
-651944
-651575
-652375
-651937
-651568
-652375
-651936
-651568
-652369
-651932
-651564
-652382
-651943
-651572
-652373
-651935
-651566
-652377
-651941
-651569
-652368
-651932
-651564
-652368
-651931
-651564
-652367
-651930
-651562
-652376
-651939
-651571
-652374
-651939
-651565
-652361
-651925
-651560
-652362
-651927
-651562
-652373
-651935
-651567
-652379
-651943
-651570
-652389
-651950
-651578
-652391
-651952
-651581
-652380
-651942
-651572
-652383
-651944
-651574
-652376
-651938
-651569
-652381
-651945
-651571
-652372
-651935
-651568
-652377
-651939
-651573
-652378
-651941
-651573
-652376
-651938
-651571
-652376
-651938
-651569
-652385
-651946
-651576
-652389
-651950
-651578
-652395
-651957
-651583
-652394
-651955
-651585
-652393
-651955
-651585
-652395
-651956
-651583
-652395
-651957
-651583
-652393
-651955
-651582
-652376
-651938
-651573
-652372
-651934
-651566
-652369
-651932
-651565
-652368
-651931
-651562
-652378
-651939
-651570
-652361
-651924
-651559
-652374
-651938
-651565
-652367
-651930
-651564
-652368
-651931
-651563
-652368
-651931
-651562
-652378
-651940
-651570
-652375
-651938
-651565
-652360
-651924
-651557
-652371
-651935
-651567
-652380
-651945
-651573
-652380
-651944
-651573
-652387
-651951
-651580
-652391
-651953
-651581
-652385
-651946
-651577
-652381
-651943
-651575
-652381
-651944
-651573
-652392
-651952
-651581
-652385
-651949
-651576
-652375
-651938
-651572
-652375
-651939
-651572
-652373
-651937
-651564
-652360
-651924
-651558
-652367
-651930
-651562
-652369
-651932
-651564
-652368
-651931
-651564
-652365
-651928
-651559
-652378
-651939
-651571
-652390
-651951
-651577
-652374
-651938
-651563
-652362
-651925
-651556
-652356
-651920
-651557
-652363
-651927
-651559
-652361
-651925
-651561
-652362
-651926
-651558
-652378
-651940
-651570
-652374
-651937
-651570
-652390
-651952
-651579
-652387
-651950
-651578
-652378
-651941
-651573
-652379
-651942
-651574
-652382
-651944
-651575
-652377
-651940
-651571
-652391
-651952
-651580
-652382
-651947
-651573
-652372
-651936
-651569
-652377
-651940
-651573
-652371
-651935
-651568
-652385
-651947
-651577
-652393
-651955
-651582
-652381
-651944
-651574
-652380
-651942
-651574
-652375
-651938
-651570
-652386
-651947
-651577
-652390
-651951
-651580
-652393
-651955
-651582
-652386
-651948
-651578
-652393
-651955
-651583
-652394
-651956
-651582
-652387
-651949
-651577
-652389
-651951
-651579
-652383
-651945
-651575
-652377
-651942
-651568
-652380
-651942
-651570
-652359
-651924
-651559
-652383
-651947
-651575
-652379
-651941
-651569
-652371
-651933
-651565
-652370
-651933
-651565
-652368
-651931
-651563
-652380
-651941
-651571
-652380
-651944
-651570
-652371
-651934
-651566
-652365
-651930
-651564
-652379
-651942
-651573
-652383
-651945
-651575
-652373
-651937
-651569
-652389
-651950
-651579
-652385
-651947
-651577
-652388
-651950
-651580
-652384
-651948
-651574
-652371
-651934
-651567
-652372
-651934
-651568
-652365
-651930
-651565
-652378
-651940
-651572
-652379
-651942
-651573
-652374
-651937
-651569
-652385
-651946
-651576
-652390
-651951
-651579
-652398
-651959
-651586
-652393
-651955
-651584
-652395
-651956
-651584
-652395
-651956
-651583
-652393
-651955
-651583
-652397
-651958
-651584
-652379
-651941
-651575
-652381
-651942
-651576
-652351
-651916
-651551
-652357
-651921
-651557
-652366
-651929
-651558
-652341
-651908
-651543
-652364
-651928
-651553
-652356
-651922
-651547
-652362
-651926
-651558
-652381
-651943
-651572
-652370
-651935
-651559
-652373
-651936
-651564
-652368
-651933
-651560
-652366
-651929
-651563
-652368
-651931
-651564
-652367
-651930
-651561
-652377
-651939
-651571
-652367
-651929
-651563
-652368
-651930
-651563
-652368
-651931
-651561
-652375
-651938
-651569
-652372
-651936
-651564
-652365
-651928
-651561
-652373
-651937
-651562
-652356
-651920
-651554
-652391
-651953
-651579
-652380
-651942
-651574
-652379
-651942
-651574
-652372
-651935
-651569
-652391
-651952
-651581
-652381
-651945
-651572
-652382
-651945
-651573
-652372
-651935
-651567
-652383
-651947
-651576
-652384
-651948
-651574
-652372
-651936
-651569
-652370
-651935
-651568
-652351
-651915
-651549
-652328
-651896
-651534
-652360
-651922
-651554
-652340
-651906
-651540
-652352
-651915
-651539
-652353
-651917
-651542
-652392
-651957
-651579
-652386
-651951
-651574
-652369
-651934
-651564
-652375
-651939
-651567
-652378
-651942
-651568
-652381
-651945
-651571
-652334
-651901
-651537
-652362
-651924
-651553
-652354
-651917
-651541
-652353
-651916
-651540
-652362
-651924
-651555
-652358
-651921
-651549
-652325
-651892
-651531
-652390
-651954
-651581
-652389
-651952
-651581
-652389
-651951
-651581
-652394
-651957
-651582
-652387
-651952
-651576
-652379
-651943
-651569
-652381
-651944
-651571
-652371
-651936
-651565
-652379
-651941
-651570
-652369
-651931
-651564
-652368
-651931
-651563
-652365
-651928
-651560
-652378
-651940
-651570
-652373
-651937
-651563
-652376
-651939
-651566
-652356
-651919
-651552
-652381
-651944
-651571
-652372
-651936
-651563
-652364
-651927
-651559
-652360
-651924
-651558
-652380
-651945
-651572
-652393
-651955
-651578
-652377
-651941
-651568
-652387
-651950
-651574
-652378
-651943
-651572
-652386
-651947
-651576
-652384
-651948
-651575
-652386
-651950
-651576
-652385
-651949
-651572
-652381
-651943
-651574
-652379
-651942
-651574
-652375
-651939
-651570
-652389
-651950
-651580
-652375
-651938
-651572
-652380
-651942
-651573
-652374
-651937
-651569
-652387
-651948
-651578
-652382
-651946
-651573
-652383
-651946
-651574
-652374
-651937
-651570
-652375
-651939
-651571
-652385
-651948