/*--------------------------------*- C++ -*----------------------------------*\
| =========                 |                                                 |
| \\      /  F ield         | OpenFOAM: The Open Source CFD Toolbox           |
|  \\    /   O peration     | Version:  v1906                                 |
|   \\  /    A nd           | Web:      www.OpenFOAM.com                      |
|    \\/     M anipulation  |                                                 |
\*---------------------------------------------------------------------------*/
FoamFile
{
    version     2.0;
    format      ascii;
    class       volScalarField;
    location    "0.57/oil";
    object      alphat;
}
// * * * * * * * * * * * * * * * * * * * * * * * * * * * * * * * * * * * * * //

dimensions      [1 -1 -1 0 0 0 0];


internalField   nonuniform List<scalar> 
168664
(
0.00275506
0.000299077
0.000305793
8.57941e-05
7.40563e-05
3.68058e-05
2.51385e-05
1.94902e-05
1.28922e-05
1.3807e-05
1.20544e-05
1.43415e-05
1.31493e-05
1.34249e-05
1.19922e-05
1.18949e-05
1.08128e-05
9.90908e-06
8.89952e-06
7.9888e-06
7.38246e-06
7.41967e-06
7.21145e-06
6.64685e-06
5.67119e-06
4.50086e-06
3.29875e-06
2.43905e-06
1.65038e-06
4.25249e-07
0.000298111
0.000349692
7.85715e-05
6.76749e-05
2.95483e-05
2.26206e-05
1.49625e-05
1.26979e-05
9.95202e-06
1.04204e-05
1.03624e-05
1.16264e-05
1.11759e-05
1.14907e-05
1.06794e-05
1.06804e-05
9.81627e-06
9.18018e-06
8.30444e-06
7.71043e-06
7.30926e-06
7.28046e-06
7.01506e-06
6.49303e-06
5.91355e-06
5.13146e-06
4.37436e-06
3.48319e-06
3.52745e-06
2.03047e-06
0.000303272
7.85671e-05
7.15308e-05
4.62602e-05
3.47755e-05
2.51579e-05
1.88291e-05
1.48756e-05
1.23414e-05
1.14722e-05
1.11756e-05
1.1415e-05
1.07958e-05
1.10969e-05
1.0375e-05
1.02935e-05
9.50472e-06
8.94954e-06
8.12293e-06
7.62991e-06
7.44524e-06
7.48419e-06
7.37013e-06
6.98651e-06
6.47428e-06
5.85286e-06
5.28488e-06
4.89156e-06
5.74673e-06
4.58639e-06
8.91768e-05
6.97006e-05
4.83473e-05
3.63795e-05
2.58297e-05
1.987e-05
1.64773e-05
1.3603e-05
1.25285e-05
1.14605e-05
1.12596e-05
1.09293e-05
1.07361e-05
1.10075e-05
1.03687e-05
1.00984e-05
9.34718e-06
8.8057e-06
8.1021e-06
7.69182e-06
7.48122e-06
7.54394e-06
7.64431e-06
7.41474e-06
6.86458e-06
6.2179e-06
5.79071e-06
6.08228e-06
7.20104e-06
6.45979e-06
7.5858e-05
3.31801e-05
3.65394e-05
2.61108e-05
2.43166e-05
2.0057e-05
1.77152e-05
1.55019e-05
1.40859e-05
1.30111e-05
1.22421e-05
1.15873e-05
1.12394e-05
1.13312e-05
1.05679e-05
1.00806e-05
9.32243e-06
8.82998e-06
8.39951e-06
8.35225e-06
8.13384e-06
8.18768e-06
8.24096e-06
8.13598e-06
7.6994e-06
7.20177e-06
6.96635e-06
7.55865e-06
8.83426e-06
8.62861e-06
4.67402e-05
3.09912e-05
3.17297e-05
2.36775e-05
2.2632e-05
1.76775e-05
1.68289e-05
1.42145e-05
1.37353e-05
1.26006e-05
1.22745e-05
1.1386e-05
1.0982e-05
1.1136e-05
1.05026e-05
9.73989e-06
9.00983e-06
8.42803e-06
8.34972e-06
8.56906e-06
8.36476e-06
8.26186e-06
8.19616e-06
8.15173e-06
7.84838e-06
7.71795e-06
7.73908e-06
8.58276e-06
9.88846e-06
1.00997e-05
3.43807e-05
2.37067e-05
2.44373e-05
1.98296e-05
1.97002e-05
1.68571e-05
1.61246e-05
1.44178e-05
1.37029e-05
1.29357e-05
1.25087e-05
1.17897e-05
1.14471e-05
1.18832e-05
1.11199e-05
9.99562e-06
9.01545e-06
8.3376e-06
8.25444e-06
8.50716e-06
8.30452e-06
8.28589e-06
8.31096e-06
8.43707e-06
8.43445e-06
8.67075e-06
9.03274e-06
1.00291e-05
1.13587e-05
1.20565e-05
3.34719e-05
2.4841e-05
2.48455e-05
2.03331e-05
1.99783e-05
1.64515e-05
1.59076e-05
1.35493e-05
1.30346e-05
1.19431e-05
1.19108e-05
1.14828e-05
1.18071e-05
1.25009e-05
1.18801e-05
1.04148e-05
9.42183e-06
8.50016e-06
8.23489e-06
8.07588e-06
7.79459e-06
7.79811e-06
7.95975e-06
8.33454e-06
8.73014e-06
9.38763e-06
1.0044e-05
1.1119e-05
1.23788e-05
1.33905e-05
2.68598e-05
2.1381e-05
2.09608e-05
1.83464e-05
1.77593e-05
1.54302e-05
1.46485e-05
1.28526e-05
1.21376e-05
1.12894e-05
1.14444e-05
1.18187e-05
1.2531e-05
1.32475e-05
1.25448e-05
1.10777e-05
9.82592e-06
8.69337e-06
8.14383e-06
7.77449e-06
7.44955e-06
7.69015e-06
8.07686e-06
8.79263e-06
9.55215e-06
1.04657e-05
1.13822e-05
1.24462e-05
1.35391e-05
1.48485e-05
2.84968e-05
2.27765e-05
2.23088e-05
1.96219e-05
1.86765e-05
1.58492e-05
1.47639e-05
1.24817e-05
1.15788e-05
1.04696e-05
1.09172e-05
1.15505e-05
1.23252e-05
1.24735e-05
1.20229e-05
1.09699e-05
9.67187e-06
8.49335e-06
7.89328e-06
7.38573e-06
7.11063e-06
7.50682e-06
8.09851e-06
8.98177e-06
9.82351e-06
1.09523e-05
1.21013e-05
1.31178e-05
1.41129e-05
1.56086e-05
2.54082e-05
2.09474e-05
2.02277e-05
1.83763e-05
1.73131e-05
1.52978e-05
1.42014e-05
1.22417e-05
1.12576e-05
1.04559e-05
1.09605e-05
1.15702e-05
1.15287e-05
1.07819e-05
1.00807e-05
9.46165e-06
8.51493e-06
7.81797e-06
7.43998e-06
7.26194e-06
7.27388e-06
7.99893e-06
8.8048e-06
9.86599e-06
1.07556e-05
1.20152e-05
1.3232e-05
1.4073e-05
1.49548e-05
1.6605e-05
2.69876e-05
2.21473e-05
2.12804e-05
1.94154e-05
1.8491e-05
1.66654e-05
1.56201e-05
1.3327e-05
1.18787e-05
1.04312e-05
1.02572e-05
1.00992e-05
9.17238e-06
7.79802e-06
7.08903e-06
6.60277e-06
6.02446e-06
6.18788e-06
6.45201e-06
6.7791e-06
7.32326e-06
8.44521e-06
9.50116e-06
1.08438e-05
1.18416e-05
1.30635e-05
1.40645e-05
1.46913e-05
1.54778e-05
1.72476e-05
2.49171e-05
2.10867e-05
2.04169e-05
1.92929e-05
1.85056e-05
1.71366e-05
1.61516e-05
1.40043e-05
1.23579e-05
1.01854e-05
9.08819e-06
8.03066e-06
6.50712e-06
5.49616e-06
4.69634e-06
4.26008e-06
3.88914e-06
4.16228e-06
4.99732e-06
5.91486e-06
7.12154e-06
9.08704e-06
1.04688e-05
1.18716e-05
1.28798e-05
1.40374e-05
1.48674e-05
1.5489e-05
1.63608e-05
1.85028e-05
2.47359e-05
2.0909e-05
2.03829e-05
1.94756e-05
1.87246e-05
1.73195e-05
1.63595e-05
1.45605e-05
1.31315e-05
1.0142e-05
7.70019e-06
5.20261e-06
3.36343e-06
2.18941e-06
1.70438e-06
1.40204e-06
1.16834e-06
2.14565e-06
3.17886e-06
5.04105e-06
6.93322e-06
9.55554e-06
1.12052e-05
1.26391e-05
1.34806e-05
1.45882e-05
1.54242e-05
1.61501e-05
1.71195e-05
1.96666e-05
2.33478e-05
1.99107e-05
1.93349e-05
1.85729e-05
1.78823e-05
1.67156e-05
1.57921e-05
1.43097e-05
1.3124e-05
1.03502e-05
7.72117e-06
5.27661e-06
3.59109e-06
2.07461e-06
1.00145e-06
4.81745e-07
1.49715e-06
2.75389e-06
3.68888e-06
5.53452e-06
7.40466e-06
1.00873e-05
1.19345e-05
1.34916e-05
1.43511e-05
1.54142e-05
1.62622e-05
1.702e-05
1.7944e-05
2.07946e-05
2.33389e-05
1.98167e-05
1.91565e-05
1.83801e-05
1.77307e-05
1.65994e-05
1.56529e-05
1.39906e-05
1.24945e-05
9.90528e-06
7.67122e-06
5.49886e-06
3.98299e-06
2.21449e-06
9.84183e-07
7.48675e-07
1.8311e-06
3.35471e-06
4.22255e-06
6.04036e-06
7.74694e-06
1.03718e-05
1.19959e-05
1.3552e-05
1.43669e-05
1.5481e-05
1.6316e-05
1.71158e-05
1.78908e-05
2.06244e-05
2.15878e-05
1.85898e-05
1.78889e-05
1.72186e-05
1.65856e-05
1.55533e-05
1.46982e-05
1.32895e-05
1.16608e-05
8.98608e-06
6.37428e-06
4.23395e-06
2.91612e-06
1.64449e-06
1.47074e-06
1.42382e-06
1.9952e-06
3.86743e-06
5.08601e-06
6.87318e-06
8.50249e-06
1.08362e-05
1.22363e-05
1.3563e-05
1.44121e-05
1.55855e-05
1.64874e-05
1.72093e-05
1.78589e-05
2.04534e-05
2.06901e-05
1.79825e-05
1.72525e-05
1.6545e-05
1.58501e-05
1.4692e-05
1.37471e-05
1.22743e-05
1.08829e-05
8.5747e-06
6.69848e-06
5.34925e-06
4.12105e-06
3.59569e-06
3.71235e-06
3.45092e-06
3.47533e-06
5.1414e-06
6.75717e-06
8.32978e-06
8.96058e-06
1.07906e-05
1.18456e-05
1.32913e-05
1.42494e-05
1.54603e-05
1.64035e-05
1.73014e-05
1.81119e-05
2.07588e-05
1.93829e-05
1.71406e-05
1.63419e-05
1.55591e-05
1.47331e-05
1.35693e-05
1.25516e-05
1.11383e-05
9.93574e-06
8.60641e-06
7.78359e-06
7.10892e-06
6.21355e-06
5.6834e-06
5.81501e-06
5.43459e-06
5.42833e-06
6.59175e-06
7.79518e-06
8.65382e-06
8.8425e-06
9.75252e-06
1.05932e-05
1.20366e-05
1.29952e-05
1.40203e-05
1.49819e-05
1.62589e-05
1.74889e-05
2.02402e-05
1.84228e-05
1.62426e-05
1.53227e-05
1.43022e-05
1.33126e-05
1.20968e-05
1.12152e-05
1.00558e-05
9.18239e-06
8.29457e-06
8.13224e-06
7.9894e-06
7.78078e-06
7.88984e-06
8.27996e-06
8.07479e-06
8.11841e-06
8.55629e-06
8.53437e-06
8.515e-06
8.20602e-06
8.78941e-06
9.39609e-06
1.06586e-05
1.15243e-05
1.25762e-05
1.35742e-05
1.49389e-05
1.62101e-05
1.87275e-05
1.68763e-05
1.49862e-05
1.4183e-05
1.30896e-05
1.20564e-05
1.10492e-05
1.02786e-05
9.32825e-06
8.57327e-06
8.01482e-06
8.03577e-06
8.05126e-06
8.24394e-06
8.97254e-06
1.00167e-05
1.04247e-05
1.04551e-05
9.88418e-06
9.15007e-06
8.52639e-06
7.9098e-06
8.21024e-06
8.73653e-06
9.8623e-06
1.06371e-05
1.16859e-05
1.26202e-05
1.38423e-05
1.49506e-05
1.67882e-05
1.57954e-05
1.42787e-05
1.35766e-05
1.24408e-05
1.14421e-05
1.05726e-05
9.93688e-06
9.18401e-06
8.61546e-06
8.21876e-06
7.97998e-06
7.59698e-06
7.86227e-06
8.89808e-06
1.01695e-05
1.11282e-05
1.11182e-05
9.81477e-06
8.76315e-06
8.37688e-06
7.99109e-06
8.2986e-06
8.61934e-06
9.44826e-06
9.95907e-06
1.08303e-05
1.15759e-05
1.27475e-05
1.3875e-05
1.53179e-05
1.42078e-05
1.30939e-05
1.2202e-05
1.11166e-05
1.041e-05
9.75948e-06
9.33637e-06
8.89028e-06
8.59884e-06
8.45443e-06
8.09133e-06
7.39098e-06
7.38367e-06
8.36151e-06
9.54822e-06
1.04859e-05
1.03932e-05
9.17542e-06
8.46473e-06
8.52147e-06
8.36997e-06
8.46849e-06
8.48315e-06
8.9267e-06
9.13082e-06
9.75779e-06
1.03412e-05
1.14761e-05
1.2615e-05
1.36108e-05
1.27882e-05
1.1914e-05
1.08053e-05
9.9083e-06
9.48461e-06
9.13038e-06
9.00868e-06
8.88259e-06
8.79205e-06
8.66087e-06
8.12682e-06
7.40618e-06
7.13364e-06
7.7151e-06
8.62294e-06
9.32361e-06
9.33784e-06
8.67223e-06
8.32986e-06
8.62261e-06
8.64152e-06
8.75328e-06
8.61334e-06
8.77042e-06
8.70156e-06
8.97629e-06
9.27244e-06
1.03388e-05
1.1504e-05
1.22076e-05
1.06113e-05
1.02383e-05
9.14544e-06
8.52673e-06
8.3318e-06
8.20247e-06
8.35042e-06
8.51543e-06
8.69193e-06
8.5707e-06
7.91949e-06
7.34498e-06
7.3697e-06
7.67816e-06
8.19103e-06
8.48926e-06
8.8041e-06
8.61396e-06
8.27394e-06
8.27245e-06
8.41174e-06
8.62404e-06
8.46575e-06
8.49305e-06
8.21796e-06
8.15475e-06
8.06597e-06
9.02624e-06
1.02051e-05
1.04792e-05
8.9164e-06
8.86987e-06
7.73438e-06
7.33751e-06
7.50594e-06
7.7223e-06
7.98392e-06
8.31704e-06
8.6232e-06
8.64637e-06
8.02903e-06
7.55642e-06
7.77202e-06
8.01814e-06
8.11999e-06
8.06045e-06
8.54435e-06
8.67161e-06
8.21696e-06
7.94652e-06
7.95496e-06
8.26328e-06
8.22824e-06
8.2426e-06
7.87677e-06
7.43789e-06
7.10612e-06
7.87964e-06
9.1001e-06
9.02872e-06
6.79196e-06
7.22353e-06
5.99243e-06
5.82622e-06
6.34504e-06
6.74306e-06
7.15722e-06
7.63206e-06
8.02886e-06
8.27973e-06
7.8915e-06
7.72787e-06
8.07737e-06
8.21214e-06
8.02352e-06
7.70988e-06
8.19227e-06
8.34893e-06
8.10795e-06
7.72324e-06
7.44901e-06
7.45088e-06
7.34153e-06
7.30198e-06
6.94653e-06
6.49531e-06
6.0181e-06
6.48159e-06
7.58023e-06
7.01983e-06
4.86474e-06
5.81563e-06
4.69799e-06
5.11899e-06
5.65189e-06
6.19929e-06
6.76756e-06
7.3416e-06
7.82837e-06
8.13797e-06
7.95283e-06
8.01181e-06
8.35395e-06
8.35291e-06
8.13588e-06
7.75204e-06
7.94688e-06
8.13105e-06
8.10281e-06
7.88554e-06
7.36163e-06
7.13287e-06
6.86062e-06
6.78936e-06
6.54334e-06
6.16454e-06
5.56572e-06
5.1783e-06
6.07031e-06
5.07821e-06
2.42777e-06
3.85424e-06
3.64197e-06
4.41512e-06
5.00957e-06
5.7857e-06
6.47156e-06
7.21899e-06
7.89378e-06
8.40939e-06
8.54017e-06
8.61781e-06
8.8146e-06
8.83787e-06
8.89285e-06
8.53475e-06
8.54883e-06
8.62835e-06
8.56001e-06
8.15354e-06
7.39301e-06
6.98763e-06
6.59908e-06
6.42285e-06
5.99739e-06
5.32847e-06
4.55486e-06
3.55653e-06
3.71516e-06
2.35052e-06
1.10178e-06
2.27971e-06
3.24691e-06
4.08786e-06
5.03357e-06
5.94977e-06
6.79457e-06
7.69625e-06
8.5859e-06
9.14139e-06
9.39746e-06
9.54735e-06
9.56879e-06
9.79139e-06
9.70689e-06
9.2478e-06
9.32387e-06
9.50411e-06
9.42468e-06
8.66112e-06
7.62431e-06
7.09914e-06
6.53016e-06
6.22492e-06
5.44033e-06
4.43494e-06
3.20424e-06
2.20591e-06
1.49697e-06
4.97418e-07
0.000297585
0.000357882
8.0591e-05
6.96676e-05
2.97236e-05
2.30373e-05
1.48231e-05
1.30699e-05
9.39634e-06
1.03506e-05
9.27024e-06
1.11438e-05
1.03186e-05
1.14476e-05
1.06433e-05
1.08402e-05
1.0019e-05
9.05981e-06
8.61286e-06
7.63408e-06
7.25878e-06
6.71719e-06
6.73803e-06
6.22403e-06
5.88286e-06
4.94967e-06
4.1763e-06
3.16702e-06
2.65369e-06
1.62871e-06
0.000355172
7.11793e-05
5.747e-05
2.70764e-05
1.37728e-05
1.04894e-05
7.2283e-06
5.39723e-06
4.63748e-06
4.49604e-06
4.78229e-06
4.18155e-06
3.38518e-06
3.45028e-06
3.63947e-06
3.74274e-06
3.54687e-06
3.48285e-06
3.14225e-06
2.91093e-06
2.82707e-06
3.39091e-06
3.89975e-06
4.31558e-06
4.22013e-06
3.81735e-06
3.3273e-06
2.90602e-06
4.09264e-06
3.56651e-06
7.83932e-05
5.84457e-05
2.98377e-05
2.67727e-05
1.44453e-05
1.27443e-05
8.9467e-06
6.84031e-06
5.66401e-06
5.7051e-06
6.26259e-06
6.25529e-06
4.67703e-06
3.61755e-06
3.27181e-06
3.11514e-06
2.5853e-06
2.1153e-06
2.02752e-06
2.60727e-06
3.016e-06
4.19994e-06
5.0148e-06
5.1751e-06
5.15911e-06
4.94369e-06
4.11111e-06
3.82854e-06
4.62632e-06
5.80608e-06
6.98118e-05
2.48079e-05
2.47993e-05
1.55757e-05
8.75117e-06
8.28522e-06
5.16988e-06
5.30931e-06
4.88243e-06
5.29664e-06
5.67357e-06
6.01317e-06
4.43433e-06
3.32609e-06
2.84482e-06
2.76299e-06
2.80771e-06
2.14182e-06
2.40539e-06
3.46267e-06
4.29284e-06
4.94286e-06
4.70524e-06
4.61986e-06
5.0344e-06
5.11693e-06
4.47904e-06
4.42599e-06
4.35396e-06
7.27011e-06
3.28194e-05
1.20409e-05
1.19598e-05
9.32116e-06
5.98287e-06
6.34864e-06
4.30977e-06
4.44019e-06
3.83524e-06
3.81647e-06
3.66833e-06
4.06661e-06
2.77095e-06
2.67992e-06
2.59108e-06
2.66002e-06
2.83366e-06
2.12609e-06
2.62097e-06
3.80056e-06
4.28265e-06
3.62457e-06
2.63606e-06
2.69839e-06
3.35597e-06
3.94231e-06
4.21836e-06
4.58105e-06
4.09872e-06
8.95736e-06
3.05362e-05
7.64685e-06
1.05549e-05
8.36764e-06
5.77547e-06
5.55297e-06
3.22089e-06
3.361e-06
2.27881e-06
2.53841e-06
2.65835e-06
3.13634e-06
2.51834e-06
2.66686e-06
2.74682e-06
2.87326e-06
3.03902e-06
2.61828e-06
3.20052e-06
3.59007e-06
3.24734e-06
2.14939e-06
1.34556e-06
1.56544e-06
2.04356e-06
2.94307e-06
3.79828e-06
4.43343e-06
3.82316e-06
1.00078e-05
2.37081e-05
4.86979e-06
6.848e-06
5.03127e-06
4.12609e-06
3.98139e-06
2.81798e-06
2.92201e-06
2.11199e-06
2.35727e-06
2.46298e-06
3.04296e-06
2.54185e-06
2.84219e-06
3.13204e-06
3.05782e-06
3.18414e-06
3.16478e-06
3.71275e-06
3.12745e-06
2.41855e-06
1.7043e-06
1.38182e-06
1.39195e-06
1.77313e-06
2.8876e-06
3.80083e-06
4.33059e-06
3.82639e-06
1.14374e-05
2.47762e-05
2.64169e-06
5.68903e-06
5.52686e-06
4.68047e-06
4.46822e-06
3.38709e-06
3.33786e-06
2.47841e-06
2.55054e-06
2.53393e-06
2.78571e-06
2.13978e-06
2.48808e-06
3.03385e-06
2.79059e-06
2.77774e-06
3.15921e-06
3.48961e-06
2.73251e-06
1.94441e-06
1.62027e-06
1.39437e-06
1.4861e-06
2.01426e-06
3.1034e-06
3.78665e-06
4.1725e-06
3.75772e-06
1.24122e-05
2.14516e-05
2.9064e-06
4.0059e-06
3.86245e-06
3.80237e-06
3.67733e-06
3.13032e-06
3.13712e-06
2.74877e-06
2.81449e-06
2.65683e-06
2.11729e-06
1.09482e-06
2.86601e-06
3.78254e-06
3.22601e-06
2.3058e-06
2.34299e-06
2.90861e-06
2.5694e-06
2.06319e-06
1.88666e-06
1.72897e-06
1.98029e-06
2.49662e-06
3.26675e-06
3.60214e-06
3.73886e-06
3.53196e-06
1.36133e-05
2.26495e-05
2.10383e-06
3.11538e-06
3.45269e-06
3.66868e-06
3.86027e-06
3.4799e-06
3.50801e-06
3.30476e-06
3.18347e-06
2.85177e-06
1.75199e-06
1.96841e-06
4.19469e-06
5.06255e-06
4.30043e-06
2.89604e-06
1.3081e-06
1.97977e-06
2.43188e-06
2.12239e-06
2.15594e-06
2.06745e-06
2.36927e-06
2.58807e-06
2.98357e-06
3.00515e-06
2.92216e-06
3.03964e-06
1.43187e-05
2.1007e-05
2.52528e-06
2.36467e-06
2.29121e-06
2.37207e-06
2.84608e-06
3.00099e-06
3.39532e-06
3.53175e-06
3.3717e-06
3.03817e-06
2.5006e-06
3.81475e-06
5.6262e-06
6.34239e-06
5.98304e-06
4.97294e-06
2.40799e-06
1.67422e-06
2.37563e-06
2.5598e-06
2.79957e-06
2.76645e-06
2.93887e-06
2.94906e-06
2.98459e-06
2.72446e-06
2.49658e-06
2.71744e-06
1.50337e-05
2.21568e-05
2.49646e-06
1.92311e-06
1.90403e-06
1.96542e-06
2.57699e-06
2.9583e-06
3.53197e-06
4.08703e-06
4.07234e-06
3.40427e-06
3.47917e-06
4.50218e-06
5.07505e-06
5.35905e-06
5.31012e-06
4.56118e-06
3.14027e-06
2.053e-06
2.3992e-06
2.98894e-06
3.30541e-06
3.18305e-06
3.13964e-06
3.0257e-06
2.94437e-06
2.53241e-06
2.42353e-06
2.49156e-06
1.54619e-05
2.08548e-05
2.61602e-06
1.80801e-06
1.64627e-06
1.5526e-06
1.85924e-06
2.12993e-06
2.82421e-06
3.66675e-06
3.71231e-06
3.04545e-06
4.49797e-06
4.94857e-06
4.90688e-06
4.78203e-06
4.52922e-06
4.16189e-06
3.40815e-06
2.89064e-06
2.05285e-06
2.96884e-06
3.31297e-06
3.00932e-06
2.68891e-06
2.47381e-06
2.43333e-06
2.19661e-06
2.34693e-06
2.57532e-06
1.64483e-05
2.08359e-05
2.33086e-06
1.84012e-06
1.81869e-06
1.84076e-06
1.78925e-06
1.91853e-06
2.54441e-06
3.42679e-06
3.57151e-06
3.78432e-06
4.3422e-06
4.0793e-06
3.85813e-06
3.38163e-06
3.0433e-06
2.35336e-06
2.32941e-06
2.2579e-06
2.07872e-06
2.40958e-06
3.00457e-06
2.65872e-06
2.20128e-06
1.97404e-06
2.03403e-06
1.95646e-06
2.17862e-06
2.61315e-06
1.72686e-05
1.98545e-05
2.5727e-06
1.99726e-06
1.91965e-06
1.91774e-06
1.9706e-06
2.10789e-06
2.63987e-06
3.27216e-06
3.88495e-06
4.06443e-06
3.6762e-06
3.10387e-06
2.64792e-06
2.90283e-06
2.58207e-06
2.06514e-06
2.28081e-06
2.3884e-06
2.90488e-06
3.2903e-06
3.32648e-06
2.65241e-06
1.98739e-06
1.80403e-06
1.85663e-06
1.83439e-06
2.02589e-06
2.65197e-06
1.80193e-05
1.98653e-05
2.799e-06
2.20405e-06
2.05322e-06
2.14683e-06
2.30483e-06
2.49985e-06
2.89743e-06
3.54536e-06
3.90717e-06
3.44203e-06
2.48437e-06
2.11765e-06
2.10929e-06
2.75736e-06
2.81064e-06
2.35741e-06
2.57325e-06
2.86164e-06
3.49489e-06
3.59757e-06
3.38619e-06
2.48317e-06
1.66162e-06
1.41534e-06
1.5798e-06
1.626e-06
1.74859e-06
2.2643e-06
1.78581e-05
1.87567e-05
2.87156e-06
2.47717e-06
2.28885e-06
2.41995e-06
2.54706e-06
2.69913e-06
3.1158e-06
3.65308e-06
3.39638e-06
3.00607e-06
2.80089e-06
2.63203e-06
2.68638e-06
3.31711e-06
3.29276e-06
2.96647e-06
3.10244e-06
3.15312e-06
2.97944e-06
2.95381e-06
3.58089e-06
2.70246e-06
1.77234e-06
1.51745e-06
1.78971e-06
1.98664e-06
1.97353e-06
2.26858e-06
1.78132e-05
1.81441e-05
2.83086e-06
2.72987e-06
2.47531e-06
2.68124e-06
2.77623e-06
3.03367e-06
3.27402e-06
3.67245e-06
3.25407e-06
2.73759e-06
2.86155e-06
3.18359e-06
3.52611e-06
4.07407e-06
4.10115e-06
4.21871e-06
3.95252e-06
3.0991e-06
1.90311e-06
3.30005e-06
4.21885e-06
3.30028e-06
2.69545e-06
2.32265e-06
2.35516e-06
2.57459e-06
2.56329e-06
2.73295e-06
1.78745e-05
1.70682e-05
3.11752e-06
3.18273e-06
3.11384e-06
3.46551e-06
3.49732e-06
3.59954e-06
3.56169e-06
3.79293e-06
3.50126e-06
3.32601e-06
2.4117e-06
2.81069e-06
3.69902e-06
4.57791e-06
4.54942e-06
4.42114e-06
3.67831e-06
2.17637e-06
1.98135e-06
3.5798e-06
4.42019e-06
3.74525e-06
3.33762e-06
2.93447e-06
2.95542e-06
3.15499e-06
3.23357e-06
3.28391e-06
1.74576e-05
1.63233e-05
3.23622e-06
3.12471e-06
3.34138e-06
3.66878e-06
3.27338e-06
3.11552e-06
2.82511e-06
3.10432e-06
2.80927e-06
2.96646e-06
1.61601e-06
1.65849e-06
3.56392e-06
4.94214e-06
5.17635e-06
4.89916e-06
3.0404e-06
1.29249e-06
2.31359e-06
2.96627e-06
3.63732e-06
3.15261e-06
3.07906e-06
2.87119e-06
3.20208e-06
3.27812e-06
3.15449e-06
3.27957e-06
1.64292e-05
1.53167e-05
3.58556e-06
3.28352e-06
3.73669e-06
3.97047e-06
3.07241e-06
2.66643e-06
2.28187e-06
2.56107e-06
2.41805e-06
2.83883e-06
2.00842e-06
9.85144e-07
1.58818e-06
3.36148e-06
4.21111e-06
3.92047e-06
1.46514e-06
1.51669e-06
2.8502e-06
2.7635e-06
3.04109e-06
2.61911e-06
2.84048e-06
3.00457e-06
3.75507e-06
3.71598e-06
3.50183e-06
3.34546e-06
1.49054e-05
1.43586e-05
3.72357e-06
3.84879e-06
4.23431e-06
3.97397e-06
2.83286e-06
2.36757e-06
1.79138e-06
2.04562e-06
2.04871e-06
2.72399e-06
2.75726e-06
2.28111e-06
1.51768e-06
2.21545e-06
2.76522e-06
2.28378e-06
1.5479e-06
2.17526e-06
2.72311e-06
2.21375e-06
2.36455e-06
1.96401e-06
2.34368e-06
2.63442e-06
3.70122e-06
3.99908e-06
3.97113e-06
3.39048e-06
1.37418e-05
1.31323e-05
3.76168e-06
4.45687e-06
4.3347e-06
3.63029e-06
2.47143e-06
2.05924e-06
1.41549e-06
1.78798e-06
1.89037e-06
2.69685e-06
3.12874e-06
2.98007e-06
2.93382e-06
3.05468e-06
3.02701e-06
1.92134e-06
2.44759e-06
3.0733e-06
2.96888e-06
1.97931e-06
1.94896e-06
1.55512e-06
1.96806e-06
2.15061e-06
3.41226e-06
4.08248e-06
4.29802e-06
3.59213e-06
1.25552e-05
1.21014e-05
3.75485e-06
4.50584e-06
3.7162e-06
2.98821e-06
2.0331e-06
1.80814e-06
1.15366e-06
1.5953e-06
1.88286e-06
2.83713e-06
2.97951e-06
2.88868e-06
3.58006e-06
3.64644e-06
3.09241e-06
2.15768e-06
3.13201e-06
3.68994e-06
3.76081e-06
2.51523e-06
1.81464e-06
1.26393e-06
1.65784e-06
1.73871e-06
2.96065e-06
3.92123e-06
4.44741e-06
3.66029e-06
1.15167e-05
1.04377e-05
3.84869e-06
4.42683e-06
3.23862e-06
2.53061e-06
1.80827e-06
2.08678e-06
1.69348e-06
1.97949e-06
2.22341e-06
3.08756e-06
2.76001e-06
2.62727e-06
3.67615e-06
3.71838e-06
2.98056e-06
2.57347e-06
3.25073e-06
3.83309e-06
4.56338e-06
3.7202e-06
2.61799e-06
1.66308e-06
2.0461e-06
2.18728e-06
3.32246e-06
4.08615e-06
4.83814e-06
3.96502e-06
1.0268e-05
9.15491e-06
3.81477e-06
4.16477e-06
2.94683e-06
2.51007e-06
2.20203e-06
2.712e-06
2.62299e-06
3.0806e-06
3.0716e-06
3.29391e-06
2.34655e-06
2.44629e-06
3.47849e-06
3.56287e-06
2.96651e-06
2.71217e-06
3.02471e-06
3.57266e-06
4.66387e-06
4.55575e-06
4.1369e-06
3.16405e-06
3.39481e-06
3.64403e-06
4.43601e-06
4.36556e-06
4.98133e-06
4.30632e-06
9.16383e-06
7.64225e-06
4.05726e-06
4.13144e-06
3.20057e-06
3.49446e-06
3.49767e-06
3.9567e-06
3.98879e-06
4.71258e-06
4.73222e-06
4.30112e-06
2.29083e-06
2.21253e-06
3.27594e-06
3.91521e-06
3.46961e-06
3.34818e-06
3.77862e-06
4.12461e-06
5.00354e-06
5.03115e-06
5.5148e-06
5.339e-06
5.71605e-06
5.71077e-06
5.76596e-06
4.67093e-06
4.8573e-06
4.70013e-06
7.61781e-06
6.34728e-06
4.53868e-06
4.03974e-06
3.75133e-06
4.11105e-06
3.87708e-06
4.12562e-06
4.06692e-06
4.80239e-06
5.02561e-06
4.73861e-06
2.57596e-06
2.07825e-06
3.10853e-06
3.75127e-06
3.22597e-06
3.05961e-06
3.6886e-06
3.83193e-06
4.10478e-06
3.79825e-06
4.54852e-06
4.96597e-06
5.8766e-06
5.67893e-06
5.36822e-06
4.06389e-06
3.91215e-06
4.76524e-06
6.1345e-06
4.32408e-06
4.55544e-06
3.52355e-06
3.80726e-06
3.84756e-06
3.64954e-06
3.95196e-06
4.0194e-06
4.68476e-06
4.99727e-06
5.02094e-06
3.91784e-06
3.73669e-06
3.44e-06
3.20566e-06
2.53114e-06
2.65818e-06
3.15753e-06
3.12282e-06
3.26606e-06
2.89399e-06
3.54049e-06
3.65299e-06
4.41453e-06
4.23215e-06
3.95011e-06
3.23093e-06
2.87885e-06
4.05336e-06
3.77905e-06
2.61393e-06
3.5455e-06
3.95718e-06
4.63821e-06
5.25536e-06
5.96652e-06
6.72796e-06
7.75223e-06
8.63722e-06
9.65599e-06
9.61316e-06
9.58892e-06
9.01668e-06
9.08493e-06
8.91707e-06
8.58416e-06
8.70385e-06
8.5586e-06
8.79752e-06
8.2243e-06
7.62517e-06
7.00624e-06
6.53744e-06
6.23915e-06
5.75112e-06
4.9364e-06
3.98476e-06
2.94017e-06
2.46283e-06
1.70611e-06
0.000306466
8.06841e-05
7.14359e-05
4.51423e-05
3.17551e-05
2.45631e-05
1.65167e-05
1.40263e-05
9.10323e-06
9.21429e-06
8.00479e-06
8.63063e-06
8.54767e-06
7.65504e-06
7.72038e-06
7.77538e-06
7.23001e-06
7.89929e-06
6.75889e-06
7.47617e-06
5.66085e-06
6.48247e-06
5.96399e-06
7.02345e-06
6.41662e-06
5.97983e-06
4.88356e-06
3.78705e-06
2.86944e-06
2.36358e-06
7.82741e-05
5.87303e-05
3.06746e-05
2.7473e-05
1.2979e-05
1.10321e-05
7.67212e-06
6.40702e-06
5.99286e-06
5.34509e-06
4.27235e-06
3.21304e-06
2.57701e-06
2.87668e-06
3.3278e-06
2.85105e-06
3.0506e-06
3.11993e-06
3.11554e-06
2.38127e-06
1.57735e-06
2.02244e-06
2.97739e-06
3.45882e-06
3.22365e-06
2.66787e-06
2.49895e-06
2.57298e-06
3.11241e-06
3.35431e-06
7.00058e-05
3.13682e-05
2.72537e-05
2.56239e-05
1.60844e-05
1.33348e-05
8.97697e-06
7.38785e-06
7.01006e-06
7.24694e-06
6.4662e-06
5.50568e-06
4.25571e-06
3.88492e-06
3.75945e-06
3.49937e-06
3.88323e-06
3.45678e-06
3.4335e-06
3.00043e-06
2.74841e-06
3.32993e-06
4.8353e-06
5.39486e-06
4.1975e-06
3.06023e-06
3.26574e-06
4.2698e-06
3.93723e-06
5.06866e-06
4.76981e-05
2.56974e-05
2.41016e-05
1.86896e-05
1.17749e-05
1.02556e-05
6.54261e-06
5.71132e-06
4.95709e-06
6.12212e-06
6.8304e-06
7.04611e-06
5.99655e-06
5.09802e-06
4.29974e-06
4.00187e-06
3.86343e-06
3.16469e-06
3.4208e-06
3.06915e-06
2.57968e-06
4.4794e-06
6.50783e-06
6.57523e-06
5.334e-06
3.80047e-06
3.78507e-06
4.53312e-06
4.23539e-06
6.45575e-06
3.54514e-05
1.27352e-05
1.40589e-05
1.11197e-05
8.45582e-06
8.17262e-06
6.03484e-06
5.42855e-06
4.62361e-06
5.7412e-06
7.33624e-06
7.6079e-06
5.66254e-06
4.63665e-06
3.91262e-06
3.64279e-06
3.23179e-06
2.78923e-06
3.25771e-06
3.41141e-06
4.66822e-06
6.04162e-06
6.51257e-06
6.31087e-06
5.80246e-06
4.55858e-06
4.45296e-06
3.98692e-06
4.36027e-06
8.02427e-06
3.15025e-05
1.02821e-05
1.2382e-05
9.60682e-06
7.47143e-06
6.26308e-06
4.34691e-06
3.55615e-06
2.805e-06
3.7097e-06
5.03486e-06
5.04932e-06
3.34679e-06
2.82932e-06
2.29567e-06
2.417e-06
2.43044e-06
2.50648e-06
2.57752e-06
3.45092e-06
4.11828e-06
3.92178e-06
3.29289e-06
3.58646e-06
4.29946e-06
4.49372e-06
4.66932e-06
3.32694e-06
4.30179e-06
9.05342e-06
2.4704e-05
6.15342e-06
7.48473e-06
5.56607e-06
4.82148e-06
4.25032e-06
3.01234e-06
2.74814e-06
2.39327e-06
2.89747e-06
3.67549e-06
3.89744e-06
2.57776e-06
2.4561e-06
2.23761e-06
2.3237e-06
2.29527e-06
2.24588e-06
2.83232e-06
3.29673e-06
2.69076e-06
1.87349e-06
1.21839e-06
1.81807e-06
3.36806e-06
4.34648e-06
4.32526e-06
2.81065e-06
4.27956e-06
1.03816e-05
2.49304e-05
4.40843e-06
5.95383e-06
5.91648e-06
5.47803e-06
4.85072e-06
3.60377e-06
3.27587e-06
2.59915e-06
2.61361e-06
2.99606e-06
3.40103e-06
2.40272e-06
2.66177e-06
1.94954e-06
1.59952e-06
1.38818e-06
2.04999e-06
2.98481e-06
2.77555e-06
1.62671e-06
1.17928e-06
9.3825e-07
1.63666e-06
3.11318e-06
3.89654e-06
3.72218e-06
2.63735e-06
4.11218e-06
1.13518e-05
2.10523e-05
3.7305e-06
3.47293e-06
3.03462e-06
3.44037e-06
3.72595e-06
3.13405e-06
2.98725e-06
2.54224e-06
2.54124e-06
2.63961e-06
2.68134e-06
2.39559e-06
3.11902e-06
2.08453e-06
1.26e-06
1.32166e-06
1.31989e-06
2.3039e-06
2.27461e-06
1.61309e-06
1.42048e-06
1.44296e-06
2.07745e-06
2.97487e-06
3.32706e-06
3.29376e-06
2.60211e-06
3.80265e-06
1.26367e-05
2.16292e-05
3.34498e-06
2.9875e-06
2.41891e-06
2.69028e-06
3.44028e-06
3.43524e-06
3.3212e-06
2.78812e-06
2.61387e-06
2.35983e-06
2.49201e-06
2.72777e-06
3.32152e-06
3.288e-06
2.37108e-06
2.56393e-06
1.99726e-06
1.52829e-06
1.54503e-06
1.48025e-06
1.47874e-06
1.79294e-06
2.33744e-06
2.53953e-06
2.58104e-06
2.48872e-06
1.97595e-06
3.23607e-06
1.35897e-05
1.97131e-05
3.06117e-06
2.19584e-06
1.79708e-06
1.50712e-06
1.79621e-06
2.46308e-06
3.07951e-06
2.89348e-06
2.72343e-06
3.09992e-06
4.0798e-06
4.55636e-06
5.4047e-06
5.78674e-06
5.17512e-06
4.86853e-06
3.7883e-06
3.05885e-06
2.32872e-06
2.08664e-06
2.07782e-06
2.32678e-06
2.45659e-06
2.19518e-06
2.10661e-06
1.9705e-06
1.57745e-06
2.73785e-06
1.44333e-05
2.08983e-05
2.79253e-06
1.68676e-06
1.56164e-06
1.1822e-06
1.22639e-06
2.13923e-06
3.0222e-06
2.9322e-06
3.44937e-06
4.52649e-06
4.68514e-06
5.49818e-06
6.33106e-06
6.7592e-06
6.73546e-06
5.83859e-06
4.37659e-06
3.71347e-06
3.32608e-06
2.69551e-06
2.23219e-06
2.14276e-06
2.05319e-06
1.84858e-06
1.87176e-06
1.80212e-06
1.48031e-06
2.17611e-06
1.48836e-05
1.98089e-05
2.29087e-06
1.17514e-06
1.19166e-06
9.14772e-07
6.48533e-07
1.46867e-06
2.73289e-06
2.37984e-06
3.64012e-06
4.9886e-06
5.50478e-06
6.89583e-06
7.5952e-06
7.70974e-06
7.46531e-06
6.90078e-06
5.56457e-06
4.53465e-06
3.81118e-06
3.15923e-06
1.92104e-06
1.74635e-06
1.61673e-06
1.39863e-06
1.41489e-06
1.43796e-06
1.16801e-06
2.14462e-06
1.58141e-05
2.00306e-05
2.14609e-06
1.02086e-06
1.01023e-06
1.07715e-06
1.02712e-06
1.6083e-06
2.78609e-06
2.71633e-06
3.35786e-06
4.29332e-06
5.83351e-06
6.62529e-06
7.47337e-06
7.4574e-06
7.22026e-06
6.56971e-06
5.56519e-06
5.09538e-06
3.24847e-06
2.89076e-06
2.01584e-06
1.33032e-06
1.07698e-06
1.11315e-06
1.05645e-06
9.19266e-07
5.97416e-07
2.14082e-06
1.64742e-05
1.89196e-05
2.53254e-06
1.20646e-06
1.10674e-06
1.12555e-06
1.26557e-06
1.53257e-06
1.93641e-06
2.65216e-06
3.88058e-06
4.64319e-06
5.43879e-06
5.01156e-06
5.84508e-06
6.65079e-06
6.75304e-06
5.85257e-06
5.14591e-06
5.27975e-06
4.43098e-06
3.92759e-06
2.73424e-06
1.70008e-06
1.10504e-06
1.13935e-06
9.64482e-07
7.44582e-07
6.05556e-07
2.18052e-06
1.70952e-05
1.88589e-05
2.79832e-06
1.11246e-06
1.06372e-06
1.23273e-06
1.57383e-06
1.68046e-06
2.03251e-06
3.01947e-06
4.22681e-06
4.54255e-06
4.9433e-06
4.3508e-06
5.33468e-06
6.45109e-06
6.63689e-06
5.81314e-06
5.14262e-06
5.6066e-06
4.81995e-06
4.05086e-06
2.94244e-06
1.63891e-06
1.02866e-06
1.06333e-06
8.80307e-07
8.27554e-07
6.00511e-07
1.91108e-06
1.69753e-05
1.7906e-05
2.96019e-06
1.24599e-06
1.43551e-06
1.43218e-06
1.8041e-06
1.7418e-06
1.99614e-06
2.6037e-06
3.48562e-06
3.80728e-06
5.19234e-06
5.24254e-06
6.19893e-06
6.89106e-06
7.07332e-06
6.75836e-06
5.68338e-06
5.45211e-06
3.5775e-06
3.65222e-06
2.78957e-06
1.66443e-06
1.19632e-06
1.04752e-06
8.53672e-07
1.35636e-06
1.2202e-06
1.92763e-06
1.70114e-05
1.74765e-05
2.96475e-06
1.71903e-06
1.88052e-06
1.59701e-06
1.81435e-06
2.01528e-06
2.20146e-06
2.34933e-06
3.59162e-06
4.31172e-06
4.7114e-06
5.35434e-06
6.38591e-06
7.17165e-06
7.42043e-06
6.86676e-06
5.56072e-06
4.60179e-06
3.47186e-06
3.76667e-06
2.48881e-06
2.21566e-06
1.82626e-06
1.27427e-06
1.26061e-06
2.17149e-06
2.10452e-06
2.55724e-06
1.68344e-05
1.62226e-05
3.17912e-06
2.11333e-06
2.20029e-06
2.27431e-06
2.6608e-06
2.77929e-06
2.79674e-06
2.70788e-06
3.26057e-06
3.82258e-06
3.96588e-06
4.08805e-06
5.3099e-06
6.57634e-06
7.06165e-06
5.96355e-06
4.67598e-06
3.86945e-06
3.55294e-06
3.43657e-06
3.0314e-06
2.61555e-06
2.20446e-06
1.83197e-06
1.75801e-06
2.41871e-06
2.29568e-06
3.23472e-06
1.61913e-05
1.52905e-05
3.34835e-06
2.12277e-06
2.07091e-06
2.75437e-06
3.19057e-06
2.77761e-06
2.48895e-06
2.23134e-06
2.34869e-06
2.43683e-06
3.07243e-06
3.02312e-06
4.01965e-06
5.24229e-06
6.29753e-06
5.54273e-06
4.29069e-06
3.39471e-06
2.77498e-06
2.79452e-06
2.75663e-06
2.65755e-06
2.55612e-06
2.67602e-06
2.34714e-06
2.17552e-06
1.90094e-06
3.46131e-06
1.50581e-05
1.42436e-05
3.8253e-06
2.52171e-06
2.34887e-06
3.52388e-06
3.87036e-06
2.80117e-06
2.0853e-06
1.75958e-06
1.77546e-06
1.68737e-06
2.02516e-06
2.03738e-06
2.90705e-06
2.7873e-06
3.75303e-06
3.50304e-06
3.24201e-06
2.48422e-06
2.14925e-06
2.46004e-06
2.31778e-06
2.39052e-06
2.88188e-06
3.70036e-06
3.4008e-06
2.41428e-06
1.80065e-06
3.44177e-06
1.35167e-05
1.32321e-05
3.86331e-06
2.51447e-06
3.25613e-06
4.28373e-06
3.83381e-06
2.56597e-06
1.87092e-06
1.54597e-06
1.54846e-06
2.02508e-06
2.68026e-06
1.80923e-06
2.15632e-06
2.87034e-06
2.98366e-06
2.84692e-06