/*--------------------------------*- C++ -*----------------------------------*\
| =========                 |                                                 |
| \\      /  F ield         | OpenFOAM: The Open Source CFD Toolbox           |
|  \\    /   O peration     | Version:  v1906                                 |
|   \\  /    A nd           | Web:      www.OpenFOAM.com                      |
|    \\/     M anipulation  |                                                 |
\*---------------------------------------------------------------------------*/
FoamFile
{
    version     2.0;
    format      ascii;
    class       volVectorField;
    location    "76/oil";
    object      U;
}
// * * * * * * * * * * * * * * * * * * * * * * * * * * * * * * * * * * * * * //

dimensions      [0 1 -1 0 0 0 0];


internalField   nonuniform List<vector> 
27760
(
(-2.43416e-05 -2.4802e-05 -2.43416e-05)
(-4.80445e-05 -1.86038e-05 -1.75388e-05)
(-3.49285e-06 -4.81963e-06 -4.80604e-06)
(-5.68029e-06 -7.79532e-07 -8.89869e-07)
(-1.11428e-06 -2.41942e-07 -3.72042e-07)
(-3.4975e-07 -9.20026e-08 -2.34831e-07)
(3.37728e-07 -7.80387e-10 -1.55152e-07)
(6.88721e-07 4.00547e-08 -1.23157e-07)
(8.85476e-07 6.4205e-08 -1.04983e-07)
(9.59695e-07 8.0021e-08 -9.25983e-08)
(9.34548e-07 9.1513e-08 -8.23078e-08)
(8.2354e-07 1.00392e-07 -7.33501e-08)
(6.40804e-07 1.07078e-07 -6.59899e-08)
(4.03024e-07 1.1164e-07 -6.06724e-08)
(1.30154e-07 1.14019e-07 -5.78233e-08)
(-1.55565e-07 1.14171e-07 -5.76737e-08)
(-4.31263e-07 1.1214e-07 -6.01796e-08)
(-6.75344e-07 1.08079e-07 -6.49967e-08)
(-8.69423e-07 1.02243e-07 -7.15036e-08)
(-9.99892e-07 9.49365e-08 -7.88548e-08)
(-1.05912e-06 8.65228e-08 -8.60384e-08)
(-1.04566e-06 7.73111e-08 -9.17145e-08)
(-9.64633e-07 6.73969e-08 -9.50613e-08)
(-8.27411e-07 5.71748e-08 -9.49281e-08)
(-6.50561e-07 4.6898e-08 -9.03876e-08)
(-4.55327e-07 3.70302e-08 -8.08486e-08)
(-2.66423e-07 2.85254e-08 -6.64195e-08)
(-1.10565e-07 2.30928e-08 -4.83866e-08)
(-1.15072e-08 2.28592e-08 -3.02051e-08)
(1.22458e-08 2.39885e-08 -1.22062e-08)
(-1.76565e-05 -4.93652e-05 -1.76565e-05)
(-5.76214e-06 -6.42721e-06 -7.90785e-06)
(-7.72892e-06 -7.79757e-06 -2.76813e-06)
(-3.385e-06 -2.30007e-06 -8.00308e-07)
(-1.01342e-06 -1.41955e-06 -4.06586e-07)
(1.91132e-07 -7.87054e-07 -2.09036e-07)
(1.07404e-06 -4.99168e-07 -1.11641e-07)
(1.61702e-06 -3.25691e-07 -6.18184e-08)
(1.93066e-06 -2.07528e-07 -2.98639e-08)
(2.03894e-06 -1.14831e-07 -5.9122e-09)
(1.96238e-06 -3.73464e-08 1.45177e-08)
(1.71898e-06 2.77053e-08 3.20896e-08)
(1.33278e-06 7.94221e-08 4.64101e-08)
(8.36007e-07 1.15857e-07 5.66746e-08)
(2.68403e-07 1.35177e-07 6.21516e-08)
(-3.25181e-07 1.36412e-07 6.24395e-08)
(-8.98392e-07 1.19835e-07 5.76122e-08)
(-1.40742e-06 8.70635e-08 4.82548e-08)
(-1.81495e-06 4.09432e-08 3.54117e-08)
(-2.09337e-06 -1.47393e-08 2.04905e-08)
(-2.22714e-06 -7.5593e-08 5.0867e-09)
(-2.21371e-06 -1.36901e-07 -8.9497e-09)
(-2.06336e-06 -1.94121e-07 -2.00491e-08)
(-1.79869e-06 -2.42386e-07 -2.6923e-08)
(-1.45272e-06 -2.76622e-07 -2.85474e-08)
(-1.06656e-06 -2.90946e-07 -2.45539e-08)
(-6.86311e-07 -2.78044e-07 -1.56594e-08)
(-3.5841e-07 -2.2945e-07 -4.24165e-09)
(-1.22464e-07 -1.38087e-07 4.57419e-09)
(-5.59179e-09 -2.17803e-08 5.65268e-09)
(-4.87873e-06 -4.67971e-06 -4.87867e-06)
(-7.61662e-06 -8.84107e-06 -2.81174e-06)
(-3.81304e-06 -5.13877e-06 -1.22874e-06)
(-1.98441e-06 -3.11576e-06 -5.69806e-07)
(-2.58367e-07 -2.27814e-06 -2.57051e-07)
(8.93129e-07 -1.73224e-06 -1.02769e-07)
(1.76854e-06 -1.41321e-06 -2.01981e-08)
(2.35458e-06 -1.17987e-06 2.79207e-08)
(2.69514e-06 -9.88309e-07 6.21355e-08)
(2.79558e-06 -8.17554e-07 8.98697e-08)
(2.66638e-06 -6.63013e-07 1.14205e-07)
(2.32396e-06 -5.27601e-07 1.35409e-07)
(1.79656e-06 -4.17294e-07 1.52766e-07)
(1.12491e-06 -3.38565e-07 1.65208e-07)
(3.60568e-07 -2.96583e-07 1.7184e-07)
(-4.37686e-07 -2.9401e-07 1.72172e-07)
(-1.20887e-06 -3.30368e-07 1.66278e-07)
(-1.89528e-06 -4.01886e-07 1.54827e-07)
(-2.44776e-06 -5.01801e-07 1.3901e-07)
(-2.83004e-06 -6.20978e-07 1.20438e-07)
(-3.02165e-06 -7.48753e-07 1.00903e-07)
(-3.01925e-06 -8.73503e-07 8.22852e-08)
(-2.83635e-06 -9.83357e-07 6.62371e-08)
(-2.502e-06 -1.06628e-06 5.40812e-08)
(-2.05797e-06 -1.10957e-06 4.66174e-08)
(-1.55539e-06 -1.09942e-06 4.38734e-08)
(-1.05019e-06 -1.0201e-06 4.47139e-08)
(-5.96496e-07 -8.54445e-07 4.61436e-08)
(-2.425e-07 -5.85727e-07 4.24145e-08)
(-2.35334e-08 -2.17094e-07 2.36066e-08)
(-8.68493e-07 -6.85054e-06 -8.68425e-07)
(-1.90521e-06 -5.50972e-06 -7.70606e-07)
(-1.39936e-06 -4.82354e-06 -5.42548e-07)
(-4.41497e-07 -3.89535e-06 -2.61586e-07)
(7.07658e-07 -3.38303e-06 -9.60076e-08)
(1.66522e-06 -2.9973e-06 1.16187e-10)
(2.45487e-06 -2.70815e-06 6.0324e-08)
(3.01839e-06 -2.44735e-06 1.01609e-07)
(3.3438e-06 -2.19601e-06 1.34774e-07)
(3.41512e-06 -1.94897e-06 1.63916e-07)
(3.23068e-06 -1.71272e-06 1.90449e-07)
(2.80292e-06 -1.49918e-06 2.13964e-07)
(2.16127e-06 -1.32214e-06 2.33343e-07)
(1.35171e-06 -1.19461e-06 2.47272e-07)
(4.3397e-07 -1.12638e-06 2.5469e-07)
(-5.23112e-07 -1.1225e-06 2.55025e-07)
(-1.44782e-06 -1.18237e-06 2.48341e-07)
(-2.27221e-06 -1.29951e-06 2.35362e-07)
(-2.93843e-06 -1.4622e-06 2.17394e-07)
(-3.40389e-06 -1.65448e-06 1.96173e-07)
(-3.64463e-06 -1.85762e-06 1.73621e-07)
(-3.65675e-06 -2.0513e-06 1.51664e-07)
(-3.45582e-06 -2.21461e-06 1.31977e-07)
(-3.07492e-06 -2.32636e-06 1.1585e-07)
(-2.56114e-06 -2.36479e-06 1.03941e-07)
(-1.97127e-06 -2.30691e-06 9.60962e-08)
(-1.36684e-06 -2.12744e-06 9.09992e-08)
(-8.06704e-07 -1.79797e-06 8.52515e-08)
(-3.4793e-07 -1.28386e-06 7.25382e-08)
(-3.83555e-08 -5.42835e-07 3.8443e-08)
(-2.71997e-07 -2.72051e-06 -2.71916e-07)
(-8.00954e-07 -4.35697e-06 -3.13604e-07)
(-2.58687e-07 -4.83588e-06 -1.9732e-07)
(5.29164e-07 -4.78847e-06 -7.07381e-08)
(1.46863e-06 -4.68802e-06 1.80404e-08)
(2.33556e-06 -4.51566e-06 7.7963e-08)
(3.07636e-06 -4.30338e-06 1.21963e-07)
(3.61911e-06 -4.0452e-06 1.57425e-07)
(3.92475e-06 -3.75101e-06 1.89475e-07)
(3.96408e-06 -3.43551e-06 2.19771e-07)
(3.72677e-06 -3.11942e-06 2.48372e-07)
(3.22197e-06 -2.82634e-06 2.7419e-07)
(2.47977e-06 -2.57989e-06 2.95651e-07)
(1.55019e-06 -2.40102e-06 3.11144e-07)
(4.997e-07 -2.30515e-06 3.1939e-07)
(-5.94428e-07 -2.30024e-06 3.19703e-07)
(-1.65136e-06 -2.38562e-06 3.12136e-07)
(-2.59445e-06 -2.55187e-06 2.97487e-07)
(-3.35851e-06 -2.7816e-06 2.77222e-07)
(-3.89575e-06 -3.05112e-06 2.53239e-07)
(-4.17943e-06 -3.33258e-06 2.27646e-07)
(-4.20528e-06 -3.59586e-06 2.02502e-07)
(-3.99048e-06 -3.80991e-06 1.79554e-07)
(-3.57119e-06 -3.94361e-06 1.60099e-07)
(-2.99843e-06 -3.9654e-06 1.44753e-07)
(-2.33316e-06 -3.84232e-06 1.33264e-07)
(-1.64135e-06 -3.53802e-06 1.24206e-07)
(-9.86583e-07 -3.00914e-06 1.13826e-07)
(-4.35571e-07 -2.19357e-06 9.51491e-08)
(-4.98296e-08 -9.7779e-07 4.99354e-08)
(-9.83504e-08 -2.57063e-06 -9.82515e-08)
(-5.28588e-08 -4.58128e-06 -8.08962e-08)
(4.80012e-07 -5.62018e-06 -2.04798e-08)
(1.22188e-06 -6.09221e-06 4.21526e-08)
(2.08471e-06 -6.30153e-06 9.28627e-08)
(2.91669e-06 -6.31082e-06 1.32873e-07)
(3.63821e-06 -6.17803e-06 1.6762e-07)
(4.17124e-06 -5.93209e-06 2.00178e-07)
(4.46213e-06 -5.60453e-06 2.32609e-07)
(4.47295e-06 -5.2275e-06 2.65036e-07)
(4.18719e-06 -4.83584e-06 2.96551e-07)
(3.61141e-06 -4.46538e-06 3.25443e-07)
(2.77642e-06 -4.15038e-06 3.49663e-07)
(1.73589e-06 -3.92033e-06 3.67213e-07)
(5.62669e-07 -3.79691e-06 3.76547e-07)
(-6.5806e-07 -3.79131e-06 3.7683e-07)
(-1.83683e-06 -3.90287e-06 3.68102e-07)
(-2.8888e-06 -4.11902e-06 3.51274e-07)
(-3.74195e-06 -4.41637e-06 3.28033e-07)
(-4.34371e-06 -4.76301e-06 3.00559e-07)
(-4.66511e-06 -5.12153e-06 2.7125e-07)
(-4.70168e-06 -5.45135e-06 2.42385e-07)
(-4.47233e-06 -5.71099e-06 2.15859e-07)
(-4.01622e-06 -5.859e-06 1.93069e-07)
(-3.38791e-06 -5.85354e-06 1.74654e-07)
(-2.65237e-06 -5.6509e-06 1.60312e-07)
(-1.88007e-06 -5.20188e-06 1.48508e-07)
(-1.13986e-06 -4.44396e-06 1.35119e-07)
(-5.0802e-07 -3.27869e-06 1.12414e-07)
(-5.88046e-08 -1.50141e-06 5.89331e-08)
(8.44662e-10 -2.61707e-06 9.64068e-10)
(2.89658e-07 -5.25358e-06 3.57833e-08)
(9.04213e-07 -6.80621e-06 7.42109e-08)
(1.68942e-06 -7.69601e-06 1.10199e-07)
(2.5612e-06 -8.1776e-06 1.42614e-07)
(3.40521e-06 -8.35475e-06 1.72701e-07)
(4.13651e-06 -8.30454e-06 2.0325e-07)
(4.67564e-06 -8.07966e-06 2.35506e-07)
(4.96167e-06 -7.72911e-06 2.69952e-07)
(4.95104e-06 -7.30019e-06 3.05772e-07)
(4.62293e-06 -6.84105e-06 3.41316e-07)
(3.98208e-06 -6.39955e-06 3.743e-07)
(3.06008e-06 -6.02047e-06 4.02144e-07)
(1.91448e-06 -5.7422e-06 4.22378e-07)
(6.24398e-07 -5.59282e-06 4.33122e-07)
(-7.16973e-07 -5.58686e-06 4.33373e-07)
(-2.01158e-06 -5.72378e-06 4.23157e-07)
(-3.16637e-06 -5.98779e-06 4.03528e-07)
(-4.10261e-06 -6.34944e-06 3.7646e-07)
(-4.76327e-06 -6.76848e-06 3.44548e-07)
(-5.11735e-06 -7.19778e-06 3.10566e-07)
(-5.16068e-06 -7.58648e-06 2.7712e-07)
(-4.91433e-06 -7.88274e-06 2.46384e-07)
(-4.42058e-06 -8.03479e-06 2.19876e-07)
(-3.73792e-06 -7.99026e-06 1.98313e-07)
(-2.93546e-06 -7.69391e-06 1.81359e-07)
(-2.08843e-06 -7.08178e-06 1.67364e-07)
(-1.27115e-06 -6.06836e-06 1.51819e-07)
(-5.68655e-07 -4.51096e-06 1.26163e-07)
(-6.60647e-08 -2.09821e-06 6.6221e-08)
(4.18047e-08 -3.04249e-06 4.19453e-08)
(4.77653e-07 -6.31864e-06 9.29921e-08)
(1.17508e-06 -8.33413e-06 1.25434e-07)
(2.02388e-06 -9.57722e-06 1.51491e-07)
(2.93632e-06 -1.0301e-05 1.76281e-07)
(3.81486e-06 -1.06342e-05 2.02637e-07)
(4.57286e-06 -1.06688e-05 2.32582e-07)
(5.1298e-06 -1.04742e-05 2.66733e-07)
(5.41996e-06 -1.0113e-05 3.0476e-07)
(5.39551e-06 -9.64517e-06 3.4528e-07)
(5.03209e-06 -9.13076e-06 3.86055e-07)
(4.33276e-06 -8.6286e-06 4.24188e-07)
(3.3301e-06 -8.19364e-06 4.56533e-07)
(2.08545e-06 -7.87284e-06 4.80096e-07)
(6.84344e-07 -7.70052e-06 4.92586e-07)
(-7.71882e-07 -7.69455e-06 4.928e-07)
(-2.17649e-06 -7.85444e-06 4.80752e-07)
(-3.42819e-06 -8.16135e-06 4.57687e-07)
(-4.44149e-06 -8.57984e-06 4.25949e-07)
(-5.15512e-06 -9.06164e-06 3.88618e-07)
(-5.53655e-06 -9.55033e-06 3.4894e-07)
(-5.58245e-06 -9.98516e-06 3.09985e-07)
(-5.31645e-06 -1.03044e-05 2.7427e-07)
(-4.78437e-06 -1.04462e-05 2.43491e-07)
(-4.04899e-06 -1.0348e-05 2.18465e-07)
(-3.18375e-06 -9.94228e-06 1.98821e-07)
(-2.26861e-06 -9.14851e-06 1.82803e-07)
(-1.38308e-06 -7.85483e-06 1.65491e-07)
(-6.19637e-07 -5.86784e-06 1.37507e-07)
(-7.21066e-08 -2.75649e-06 7.22941e-08)
(6.28408e-08 -3.62826e-06 6.3005e-08)
(5.85695e-07 -7.60935e-06 1.24543e-07)
(1.35333e-06 -1.00946e-05 1.55648e-07)
(2.26482e-06 -1.16761e-05 1.78202e-07)
(3.22698e-06 -1.26349e-05 2.00402e-07)
(4.14843e-06 -1.3125e-05 2.26347e-07)
(4.94108e-06 -1.32534e-05 2.57914e-07)
(5.52285e-06 -1.31031e-05 2.95513e-07)
(5.8242e-06 -1.27483e-05 3.38386e-07)
(5.7933e-06 -1.22594e-05 3.84703e-07)
(5.40253e-06 -1.17067e-05 4.31715e-07)
(4.65319e-06 -1.11589e-05 4.75925e-07)
(3.57858e-06 -1.068e-05 5.13565e-07)
(2.24371e-06 -1.0325e-05 5.4102e-07)
(7.40462e-07 -1.01341e-05 5.5553e-07)
(-8.21812e-07 -1.01283e-05 5.55709e-07)
(-2.32766e-06 -1.03073e-05 5.41569e-07)
(-3.66763e-06 -1.06493e-05 5.14521e-07)
(-4.74979e-06 -1.11132e-05 4.77338e-07)
(-5.509e-06 -1.16432e-05 4.3371e-07)
(-5.91157e-06 -1.21743e-05 3.87471e-07)
(-5.95564e-06 -1.26368e-05 3.4219e-07)
(-5.66799e-06 -1.296e-05 3.00752e-07)
(-5.09847e-06 -1.30728e-05 2.65119e-07)
(-4.31416e-06 -1.29027e-05 2.36221e-07)
(-3.39274e-06 -1.23695e-05 2.13691e-07)
(-2.4185e-06 -1.13752e-05 1.95621e-07)
(-1.47531e-06 -9.7782e-06 1.76703e-07)
(-6.61456e-07 -7.32911e-06 1.46836e-07)
(-7.71215e-08 -3.46619e-06 7.7343e-08)
(7.39279e-08 -4.31413e-06 7.41176e-08)
(6.50624e-07 -9.05369e-06 1.42361e-07)
(1.47047e-06 -1.20246e-05 1.73868e-07)
(2.43269e-06 -1.39453e-05 1.95767e-07)
(3.43938e-06 -1.51429e-05 2.17908e-07)
(4.40096e-06 -1.57987e-05 2.45286e-07)
(5.22799e-06 -1.60357e-05 2.79867e-07)
(5.83638e-06 -1.59494e-05 3.21955e-07)
(6.15324e-06 -1.56235e-05 3.70611e-07)
(6.12293e-06 -1.51372e-05 4.23608e-07)
(5.71417e-06 -1.45687e-05 4.77698e-07)
(4.9261e-06 -1.3995e-05 5.28763e-07)
(3.7923e-06 -1.3488e-05 5.72323e-07)
(2.38084e-06 -1.31097e-05 6.04107e-07)
(7.89562e-07 -1.2906e-05 6.20881e-07)
(-8.64411e-07 -1.29006e-05 6.21024e-07)
(-2.45751e-06 -1.30933e-05 6.04544e-07)
(-3.87245e-06 -1.34596e-05 5.73067e-07)
(-5.01127e-06 -1.39532e-05 5.29859e-07)
(-5.80562e-06 -1.45118e-05 4.79244e-07)
(-6.22156e-06 -1.50625e-05 4.2568e-07)
(-6.25932e-06 -1.55283e-05 3.73368e-07)
(-5.94928e-06 -1.58306e-05 3.25622e-07)
(-5.34559e-06 -1.58908e-05 2.84684e-07)
(-4.51936e-06 -1.56266e-05 2.51578e-07)
(-3.55215e-06 -1.49458e-05 2.25936e-07)
(-2.53155e-06 -1.37314e-05 2.05758e-07)
(-1.54438e-06 -1.18105e-05 1.85375e-07)
(-6.92827e-07 -8.87301e-06 1.54015e-07)
(-8.10204e-08 -4.21693e-06 8.12796e-08)
(7.98365e-08 -5.05706e-06 8.00431e-08)
(6.86537e-07 -1.05931e-05 1.52125e-07)
(1.53773e-06 -1.40654e-05 1.84271e-07)
(2.53167e-06 -1.6333e-05 2.06564e-07)
(3.5681e-06 -1.77791e-05 2.29817e-07)
(4.55836e-06 -1.86153e-05 2.59556e-07)
(5.41227e-06 -1.89819e-05 2.97872e-07)
(6.04418e-06 -1.89853e-05 3.45089e-07)
(6.37829e-06 -1.8717e-05 4.00073e-07)
(6.3552e-06 -1.82627e-05 4.60306e-07)
(5.93966e-06 -1.77067e-05 5.22027e-07)
(5.12805e-06 -1.71319e-05 5.8046e-07)
(3.95327e-06 -1.66168e-05 6.30425e-07)
(2.48552e-06 -1.62292e-05 6.66898e-07)
(8.27626e-07 -1.60196e-05 6.86097e-07)
(-8.96343e-07 -1.60146e-05 6.86212e-07)
(-2.55536e-06 -1.62142e-05 6.67246e-07)
(-4.02524e-06 -1.65912e-05 6.31011e-07)
(-5.20301e-06 -1.70947e-05 5.81297e-07)
(-6.01822e-06 -1.76568e-05 5.23144e-07)
(-6.43758e-06 -1.81985e-05 4.61802e-07)
(-6.46414e-06 -1.86368e-05 4.02049e-07)
(-6.13245e-06 -1.88877e-05 3.47633e-07)
(-5.50086e-06 -1.88663e-05 3.01102e-07)
(-4.64406e-06 -1.84823e-05 2.63615e-07)
(-3.64625e-06 -1.76319e-05 2.34791e-07)
(-2.5969e-06 -1.61791e-05 2.12483e-07)
(-1.58403e-06 -1.39175e-05 1.90792e-07)
(-7.11123e-07 -1.04732e-05 1.58473e-07)
(-8.34981e-08 -4.99625e-06 8.37999e-08)
(8.20946e-08 -5.82742e-06 8.23327e-08)
(6.97526e-07 -1.21772e-05 1.55717e-07)
(1.55578e-06 -1.61588e-05 1.88106e-07)
(2.55636e-06 -1.878e-05 2.11024e-07)
(3.59975e-06 -2.04865e-05 2.35751e-07)
(4.59933e-06 -2.15217e-05 2.68199e-07)
(5.4658e-06 -2.20432e-05 3.10534e-07)
(6.11327e-06 -2.21675e-05 3.63112e-07)
(6.46372e-06 -2.19918e-05 4.24687e-07)
(6.4544e-06 -2.16059e-05 4.92477e-07)
(6.0459e-06 -2.10971e-05 5.62255e-07)
(5.23087e-06 -2.05522e-05 6.28561e-07)
(4.0401e-06 -2.00539e-05 6.85415e-07)
(2.54438e-06 -1.96743e-05 7.27011e-07)
(8.50009e-07 -1.94676e-05 7.48884e-07)
(-9.13283e-07 -1.94632e-05 7.48968e-07)
(-2.60822e-06 -1.96608e-05 7.27249e-07)
(-4.10505e-06 -2.00312e-05 6.85811e-07)
(-5.29722e-06 -2.05197e-05 6.29147e-07)
(-6.11373e-06 -2.10539e-05 5.6304e-07)
(-6.52356e-06 -2.15511e-05 4.93539e-07)
(-6.53364e-06 -2.19248e-05 4.2607e-07)
(-6.18291e-06 -2.20879e-05 3.64863e-07)
(-5.53335e-06 -2.19513e-05 3.12713e-07)
(-4.66232e-06 -2.14188e-05 2.70856e-07)
(-3.655e-06 -2.0376e-05 2.38906e-07)
(-2.60054e-06 -1.8668e-05 2.14624e-07)
(-1.58574e-06 -1.60546e-05 1.91942e-07)
(-7.12481e-07 -1.20955e-05 1.59337e-07)
(-8.40754e-08 -5.78784e-06 8.44202e-08)
(8.10912e-08 -6.59723e-06 8.13369e-08)
(6.82843e-07 -1.37533e-05 1.53318e-07)
(1.51934e-06 -1.82393e-05 1.85111e-07)
(2.49504e-06 -2.12159e-05 2.08428e-07)
(3.51496e-06 -2.3193e-05 2.34562e-07)
(4.49687e-06 -2.44467e-05 2.69534e-07)
(5.35476e-06 -2.51513e-05 3.15632e-07)
(6.00448e-06 -2.54321e-05 3.73271e-07)
(6.36745e-06 -2.53898e-05 4.4116e-07)
(6.37832e-06 -2.51153e-05 5.16333e-07)
(5.99344e-06 -2.46963e-05 5.94184e-07)
(5.20063e-06 -2.42193e-05 6.68649e-07)
(4.02687e-06 -2.37686e-05 7.32783e-07)
(2.54122e-06 -2.34183e-05 7.79896e-07)
(8.51126e-07 -2.32257e-05 8.04716e-07)
(-9.0998e-07 -2.32218e-05 8.0476e-07)
(-2.60018e-06 -2.34065e-05 7.80036e-07)
(-4.08603e-06 -2.37487e-05 7.3302e-07)
(-5.25989e-06 -2.4191e-05 6.69e-07)
(-6.05258e-06 -2.4659e-05 5.94691e-07)
(-6.43704e-06 -2.5069e-05 5.17025e-07)
(-6.42516e-06 -2.53342e-05 4.42049e-07)
(-6.06022e-06 -2.53674e-05 3.74435e-07)
(-5.4071e-06 -2.50782e-05 3.1708e-07)
(-4.54403e-06 -2.43668e-05 2.71291e-07)
(-3.55484e-06 -2.31092e-05 2.36596e-07)
(-2.52574e-06 -2.11332e-05 2.10686e-07)
(-1.53932e-06 -1.81646e-05 1.87459e-07)
(-6.92261e-07 -1.36963e-05 1.55479e-07)
(-8.2187e-08 -6.57066e-06 8.25829e-08)
(7.65463e-08 -7.33656e-06 7.68244e-08)
(6.39361e-07 -1.52617e-05 1.44401e-07)
(1.42031e-06 -2.02308e-05 1.74485e-07)
(2.33315e-06 -2.35547e-05 1.97563e-07)
(3.29154e-06 -2.58076e-05 2.24567e-07)
(4.22106e-06 -2.72974e-05 2.61406e-07)
(5.04208e-06 -2.8214e-05 3.10382e-07)
(5.67496e-06 -2.86898e-05 3.72109e-07)
(6.04307e-06 -2.88269e-05 4.45436e-07)
(6.07973e-06 -2.87136e-05 5.2737e-07)
(5.7377e-06 -2.8434e-05 6.13015e-07)
(4.99892e-06 -2.80713e-05 6.95726e-07)
(3.88414e-06 -2.77067e-05 7.67612e-07)
(2.45762e-06 -2.74135e-05 8.20936e-07)
(8.24736e-07 -2.72492e-05 8.49233e-07)
(-8.80153e-07 -2.72458e-05 8.49246e-07)
(-2.51276e-06 -2.74031e-05 8.20985e-07)
(-3.93872e-06 -2.76893e-05 7.67703e-07)
(-5.05261e-06 -2.80468e-05 6.95867e-07)
(-5.79021e-06 -2.84022e-05 6.13261e-07)
(-6.13056e-06 -2.86746e-05 5.27803e-07)
(-6.09153e-06 -2.87809e-05 4.46027e-07)
(-5.72039e-06 -2.86373e-05 3.72883e-07)
(-5.08342e-06 -2.81558e-05 3.1133e-07)
(-4.2571e-06 -2.7235e-05 2.62529e-07)
(-3.32107e-06 -2.57438e-05 2.25865e-07)
(-2.35507e-06 -2.34932e-05 1.99009e-07)
(-1.43405e-06 -2.01764e-05 1.75982e-07)
(-6.45506e-07 -1.52211e-05 1.45751e-07)
(-7.71743e-08 -7.31823e-06 7.76148e-08)
(6.80464e-08 -8.01124e-06 6.83323e-08)
(5.63425e-07 -1.66339e-05 1.28049e-07)
(1.25015e-06 -2.20442e-05 1.54977e-07)
(2.05583e-06 -2.56949e-05 1.76846e-07)
(2.90757e-06 -2.82202e-05 2.03655e-07)
(3.74223e-06 -2.99578e-05 2.40949e-07)
(4.4905e-06 -3.11121e-05 2.91135e-07)
(5.08083e-06 -3.18202e-05 3.54994e-07)
(5.44171e-06 -3.21833e-05 4.31575e-07)
(5.5077e-06 -3.22844e-05 5.18127e-07)
(5.22882e-06 -3.22e-05 6.09715e-07)
(4.58074e-06 -3.20049e-05 6.99386e-07)
(3.57605e-06 -3.17725e-05 7.78419e-07)
(2.27057e-06 -3.15704e-05 8.37868e-07)
(7.62886e-07 -3.14525e-05 8.69762e-07)
(-8.15875e-07 -3.14495e-05 8.69738e-07)
(-2.32296e-06 -3.15613e-05 8.37818e-07)
(-3.62731e-06 -3.17573e-05 7.78371e-07)
(-4.6303e-06 -3.19836e-05 6.99385e-07)
(-5.27617e-06 -3.21728e-05 6.09776e-07)
(-5.55244e-06 -3.22515e-05 5.1828e-07)
(-5.48336e-06 -3.21451e-05 4.31847e-07)
(-5.11878e-06 -3.17775e-05 3.55415e-07)
(-4.52402e-06 -3.10656e-05 2.91707e-07)
(-3.77055e-06 -2.99091e-05 2.41663e-07)
(-2.93e-06 -2.81713e-05 2.04481e-07)
(-2.07187e-06 -2.56485e-05 1.7775e-07)
(-1.25982e-06 -2.20042e-05 1.55931e-07)
(-5.67516e-07 -1.66046e-05 1.28932e-07)
(-6.83921e-08 -7.99831e-06 6.88785e-08)
(5.51877e-08 -8.58327e-06 5.54803e-08)
(4.5197e-07 -1.77933e-05 1.03527e-07)
(1.00206e-06 -2.35796e-05 1.25632e-07)
(1.65162e-06 -2.75198e-05 1.4493e-07)
(2.34592e-06 -3.03013e-05 1.69972e-07)
(3.03681e-06 -3.22879e-05 2.05627e-07)
(3.66952e-06 -3.36961e-05 2.54212e-07)
(4.18466e-06 -3.46664e-05 3.16736e-07)
(4.51968e-06 -3.52964e-05 3.92703e-07)
(4.61407e-06 -3.56616e-05 4.79864e-07)
(4.41761e-06 -3.58272e-05 5.73606e-07)
(3.90048e-06 -3.58546e-05 6.66933e-07)
(3.06521e-06 -3.58038e-05 7.50555e-07)
(1.95528e-06 -3.57306e-05 8.14543e-07)
(6.5697e-07 -3.56796e-05 8.49395e-07)
(-7.08261e-07 -3.5677e-05 8.49362e-07)
(-2.00569e-06 -3.57225e-05 8.14474e-07)
(-3.11403e-06 -3.57906e-05 7.50434e-07)
(-3.94702e-06 -3.58361e-05 6.66802e-07)
(-4.46139e-06 -3.58039e-05 5.73519e-07)
(-4.65454e-06 -3.5634e-05 4.79875e-07)
(-4.55639e-06 -3.52649e-05 3.92805e-07)
(-4.21718e-06 -3.46315e-05 3.16926e-07)
(-3.69744e-06 -3.36589e-05 2.5451e-07)
(-3.0597e-06 -3.22495e-05 2.06034e-07)
(-2.36348e-06 -3.02634e-05 1.70479e-07)
(-1.66375e-06 -2.74845e-05 1.45518e-07)
(-1.00907e-06 -2.35497e-05 1.2625e-07)
(-4.54762e-07 -1.77717e-05 1.04133e-07)
(-5.53568e-08 -8.57398e-06 5.5885e-08)
(3.77417e-08 -9.01189e-06 3.80303e-08)
(3.03885e-07 -1.8658e-05 7.04112e-08)
(6.73736e-07 -2.47295e-05 8.58067e-08)
(1.11638e-06 -2.89025e-05 1.0089e-07)
(1.59955e-06 -3.19069e-05 1.22005e-07)
(2.09377e-06 -3.41273e-05 1.5297e-07)
(2.56268e-06 -3.57889e-05 1.95905e-07)
(2.96354e-06 -3.70339e-05 2.51975e-07)
(3.24763e-06 -3.79552e-05 3.21126e-07)
(3.36375e-06 -3.86184e-05 4.017e-07)
(3.26512e-06 -3.90747e-05 4.89846e-07)
(2.91866e-06 -3.93683e-05 5.79258e-07)
(2.31694e-06 -3.95406e-05 6.6081e-07)
(1.48768e-06 -3.96287e-05 7.24247e-07)
(4.98362e-07 -3.96626e-05 7.59302e-07)
(-5.48588e-07 -3.96603e-05 7.59231e-07)
(-1.53689e-06 -3.96217e-05 7.24116e-07)
(-2.36418e-06 -3.9529e-05 6.60603e-07)
(-2.96312e-06 -3.93524e-05 5.79051e-07)
(-3.30625e-06 -3.90549e-05 4.89641e-07)
(-3.40104e-06 -3.85951e-05 4.01554e-07)
(-3.28078e-06 -3.7929e-05 3.21023e-07)
(-2.99222e-06 -3.70053e-05 2.51966e-07)
(-2.58665e-06 -3.57588e-05 1.95999e-07)
(-2.11287e-06 -3.40968e-05 1.53143e-07)
(-1.61375e-06 -3.18773e-05 1.22267e-07)
(-1.12582e-06 -2.88754e-05 1.01229e-07)
(-6.78925e-07 -2.47068e-05 8.61917e-08)
(-3.05788e-07 -1.8642e-05 7.08345e-08)
(-3.77938e-08 -9.00515e-06 3.83591e-08)
(1.58769e-08 -9.25643e-06 1.61854e-08)
(1.21127e-07 -1.91469e-05 2.90678e-08)
(2.69706e-07 -2.53866e-05 3.58887e-08)
(4.57379e-07 -2.9715e-05 4.49423e-08)
(6.77764e-07 -3.28888e-05 5.96642e-08)
(9.23244e-07 -3.5306e-05 8.24141e-08)
(1.17941e-06 -3.71968e-05 1.14751e-07)
(1.42424e-06 -3.87022e-05 1.57889e-07)
(1.62771e-06 -3.99096e-05 2.122e-07)
(1.7531e-06 -4.08741e-05 2.7683e-07)
(1.76226e-06 -4.16313e-05 3.49006e-07)
(1.62263e-06 -4.2206e-05 4.23689e-07)
(1.31785e-06 -4.26179e-05 4.93026e-07)
(8.57633e-07 -4.28819e-05 5.47862e-07)
(2.8334e-07 -4.30096e-05 5.78551e-07)
(-3.32857e-07 -4.30079e-05 5.78478e-07)
(-9.0595e-07 -4.28762e-05 5.47708e-07)
(-1.36393e-06 -4.26079e-05 4.92762e-07)
(-1.66561e-06 -4.21925e-05 4.23373e-07)
(-1.80159e-06 -4.16145e-05 3.48656e-07)
(-1.78823e-06 -4.08543e-05 2.76556e-07)
(-1.65835e-06 -3.98876e-05 2.11967e-07)
(-1.45021e-06 -3.86785e-05 1.57749e-07)
(-1.2006e-06 -3.71723e-05 1.14692e-07)
(-9.39677e-07 -3.52815e-05 8.24136e-08)
(-6.8961e-07 -3.28655e-05 5.97544e-08)
(-4.64985e-07 -2.96939e-05 4.51107e-08)
(-2.73688e-07 -2.53693e-05 3.61574e-08)
(-1.22459e-07 -1.91348e-05 2.9381e-08)
(-1.58677e-08 -9.25145e-06 1.64628e-08)
(-9.69514e-09 -9.28061e-06 -9.41438e-09)
(-9.02548e-08 -1.91881e-05 -1.92796e-08)
(-1.96621e-07 -2.54557e-05 -2.26946e-08)
(-3.03803e-07 -2.98415e-05 -2.14329e-08)
(-3.89571e-07 -3.311e-05 -1.55714e-08)
(-4.37846e-07 -3.56626e-05 -4.706e-09)
(-4.38078e-07 -3.77298e-05 1.20547e-08)
(-3.87968e-07 -3.94493e-05 3.55867e-08)
(-2.94623e-07 -4.09011e-05 6.65196e-08)
(-1.74959e-07 -4.21294e-05 1.04876e-07)
(-5.35471e-08 -4.3155e-05 1.49173e-07)
(4.19832e-08 -4.39843e-05 1.96563e-07)
(8.87632e-08 -4.46153e-05 2.41721e-07)
(7.69282e-08 -4.50416e-05 2.78269e-07)
(1.56788e-08 -4.52561e-05 2.99086e-07)
(-6.46276e-08 -4.52544e-05 2.99002e-07)
(-1.24531e-07 -4.50362e-05 2.78058e-07)
(-1.34e-07 -4.46065e-05 2.41376e-07)
(-8.39177e-08 -4.39725e-05 1.96165e-07)
(1.56329e-08 -4.31403e-05 1.48752e-07)
(1.41467e-07 -4.21125e-05 1.04467e-07)
(2.65785e-07 -4.08824e-05 6.61671e-08)
(3.63925e-07 -3.94296e-05 3.52794e-08)
(4.18825e-07 -3.77097e-05 1.18462e-08)
(4.23251e-07 -3.56427e-05 -4.83067e-09)
(3.79336e-07 -3.30914e-05 -1.56409e-08)
(2.97436e-07 -2.98249e-05 -2.1395e-08)
(1.93468e-07 -2.54423e-05 -2.25522e-08)
(8.93472e-08 -1.91789e-05 -1.90503e-08)
(9.77455e-09 -9.27686e-06 -9.15882e-09)
(-3.7844e-08 -9.05682e-06 -3.75581e-08)
(-3.20132e-07 -1.87275e-05 -7.23026e-08)
(-7.02499e-07 -2.48651e-05 -8.70893e-08)
(-1.1299e-06 -2.91942e-05 -9.50022e-08)
(-1.55035e-06 -3.24647e-05 -9.99869e-08)
(-1.92296e-06 -3.50699e-05 -1.03831e-07)
(-2.21055e-06 -3.72345e-05 -1.06643e-07)
(-2.38386e-06 -3.90898e-05 -1.08008e-07)
(-2.42367e-06 -4.07078e-05 -1.07147e-07)
(-2.32337e-06 -4.21232e-05 -1.0321e-07)
(-2.08946e-06 -4.33436e-05 -9.5889e-08)
(-1.74082e-06 -4.43598e-05 -8.53928e-08)
(-1.30472e-06 -4.51526e-05 -7.3499e-08)
(-8.11694e-07 -4.56991e-05 -6.25636e-08)
(-2.89536e-07 -4.5978e-05 -5.5823e-08)
(2.41411e-07 -4.59763e-05 -5.593e-08)
(7.64893e-07 -4.56941e-05 -6.28173e-08)
(1.26041e-06 -4.51446e-05 -7.38715e-08)
(1.6999e-06 -4.43491e-05 -8.58511e-08)
(2.05262e-06 -4.33305e-05 -9.63595e-08)
(2.29106e-06 -4.21084e-05 -1.03685e-07)
(2.39613e-06 -4.06918e-05 -1.07575e-07)
(2.36118e-06 -3.9073e-05 -1.0839e-07)
(2.19262e-06 -3.72177e-05 -1.06941e-07)
(1.9096e-06 -3.50536e-05 -1.0404e-07)
(1.5412e-06 -3.24496e-05 -1.00115e-07)
(1.12441e-06 -2.9181e-05 -9.50312e-08)
(6.99933e-07 -2.48546e-05 -8.70187e-08)
(3.19484e-07 -1.87204e-05 -7.21188e-08)
(3.79516e-08 -9.05399e-06 -3.73254e-08)
(-6.67584e-08 -8.5713e-06 -6.65042e-08)
(-5.54302e-07 -1.77392e-05 -1.26814e-07)
(-1.217e-06 -2.35802e-05 -1.53417e-07)
(-1.9706e-06 -2.7729e-05 -1.71128e-07)
(-2.73387e-06 -3.08969e-05 -1.87989e-07)
(-3.4412e-06 -3.3457e-05 -2.08143e-07)
(-4.02846e-06 -3.56214e-05 -2.32845e-07)
(-4.43845e-06 -3.75123e-05 -2.62127e-07)
(-4.62391e-06 -3.9194e-05 -2.95032e-07)
(-4.55223e-06 -4.06921e-05 -3.29894e-07)
(-4.20942e-06 -4.20048e-05 -3.64477e-07)
(-3.60354e-06 -4.31131e-05 -3.96096e-07)
(-2.76495e-06 -4.39868e-05 -4.22274e-07)
(-1.74487e-06 -4.45936e-05 -4.40746e-07)
(-6.10378e-07 -4.4905e-05 -4.50183e-07)
(5.63442e-07 -4.49034e-05 -4.50273e-07)
(1.69921e-06 -4.45892e-05 -4.40999e-07)
(2.72168e-06 -4.39797e-05 -4.22671e-07)
(3.56362e-06 -4.31034e-05 -3.96549e-07)
(4.17362e-06 -4.19933e-05 -3.64955e-07)
(4.52097e-06 -4.06791e-05 -3.30407e-07)
(4.59739e-06 -3.91802e-05 -2.95511e-07)
(4.41677e-06 -3.7498e-05 -2.6253e-07)
(4.01153e-06 -3.56073e-05 -2.33212e-07)
(3.42871e-06 -3.34435e-05 -2.08421e-07)
(2.72546e-06 -3.08847e-05 -1.88157e-07)
(1.96571e-06 -2.77184e-05 -1.71211e-07)
(1.2148e-06 -2.35719e-05 -1.53391e-07)
(5.53838e-07 -1.77337e-05 -1.26649e-07)
(6.68989e-08 -8.56916e-06 -6.6271e-08)
(-9.43651e-08 -7.82798e-06 -9.41225e-08)
(-7.75841e-07 -1.62326e-05 -1.78803e-07)
(-1.70311e-06 -2.16132e-05 -2.16721e-07)
(-2.76584e-06 -2.54576e-05 -2.44044e-07)
(-3.85619e-06 -2.84149e-05 -2.72735e-07)
(-4.88545e-06 -3.08266e-05 -3.09178e-07)
(-5.76326e-06 -3.28865e-05 -3.55657e-07)
(-6.40498e-06 -3.47052e-05 -4.12712e-07)
(-6.7355e-06 -3.63388e-05 -4.79179e-07)
(-6.69612e-06 -3.78057e-05 -5.52468e-07)
(-6.2525e-06 -3.90994e-05 -6.28459e-07)
(-5.40131e-06 -4.01962e-05 -7.01437e-07)
(-4.17559e-06 -4.10631e-05 -7.64894e-07)
(-2.64678e-06 -4.1666e-05 -8.12045e-07)
(-9.20352e-07 -4.19755e-05 -8.37229e-07)
(8.75019e-07 -4.19741e-05 -8.37293e-07)
(2.60265e-06 -4.16621e-05 -8.12227e-07)
(4.13384e-06 -4.10568e-05 -7.65193e-07)
(5.36273e-06 -4.01876e-05 -7.01831e-07)
(6.21786e-06 -3.90892e-05 -6.28892e-07)
(6.66586e-06 -3.77942e-05 -5.52918e-07)
(6.70989e-06 -3.63267e-05 -4.79634e-07)
(6.38416e-06 -3.46931e-05 -4.13116e-07)
(5.74706e-06 -3.28746e-05 -3.56028e-07)
(4.8736e-06 -3.08154e-05 -3.09485e-07)
(3.84831e-06 -2.8405e-05 -2.72968e-07)
(2.76132e-06 -2.54492e-05 -2.44176e-07)
(1.70112e-06 -2.16068e-05 -2.16731e-07)
(7.75461e-07 -1.62284e-05 -1.7866e-07)
(9.45099e-08 -7.82639e-06 -9.38983e-08)
(-1.18241e-07 -6.85074e-06 -1.18022e-07)
(-9.65795e-07 -1.42571e-05 -2.23751e-07)
(-2.12044e-06 -1.90286e-05 -2.71514e-07)
(-3.45148e-06 -2.24541e-05 -3.07289e-07)
(-4.82888e-06 -2.50998e-05 -3.46507e-07)
(-6.14357e-06 -2.72653e-05 -3.97559e-07)
(-7.28146e-06 -2.91217e-05 -4.63567e-07)
(-8.13234e-06 -3.07663e-05 -5.45395e-07)
(-8.59523e-06 -3.22471e-05 -6.41719e-07)
(-8.58792e-06 -3.35786e-05 -7.48956e-07)
(-8.05721e-06 -3.47523e-05 -8.61148e-07)
(-6.98987e-06 -3.57455e-05 -9.69986e-07)
(-5.42201e-06 -3.65285e-05 -1.0655e-06)
(-3.44345e-06 -3.70713e-05 -1.13706e-06)
(-1.19388e-06 -3.73491e-05 -1.17551e-06)
(1.15081e-06 -3.73479e-05 -1.17557e-06)
(3.40142e-06 -3.70676e-05 -1.13725e-06)
(5.38207e-06 -3.65227e-05 -1.06576e-06)
(6.95288e-06 -3.57379e-05 -9.70318e-07)
(8.02393e-06 -3.47433e-05 -8.61548e-07)
(8.55881e-06 -3.35687e-05 -7.49373e-07)
(8.57064e-06 -3.22369e-05 -6.42142e-07)
(8.11232e-06 -3.07561e-05 -5.45812e-07)
(7.2659e-06 -2.91118e-05 -4.63943e-07)
(6.13226e-06 -2.72561e-05 -3.9788e-07)
(4.82137e-06 -2.50918e-05 -3.4676e-07)
(3.44719e-06 -2.24475e-05 -3.07411e-07)
(2.11866e-06 -1.90237e-05 -2.71531e-07)
(9.65508e-07 -1.4254e-05 -2.23629e-07)
(1.18395e-07 -6.84958e-06 -1.17806e-07)
(-1.35786e-07 -5.6853e-06 -1.35594e-07)
(-1.10471e-06 -1.19051e-05 -2.56728e-07)
(-2.42834e-06 -1.59465e-05 -3.11602e-07)
(-3.96387e-06 -1.88576e-05 -3.53571e-07)
(-5.56571e-06 -2.11057e-05 -4.00788e-07)
(-7.10817e-06 -2.29419e-05 -4.63155e-07)
(-8.45689e-06 -2.45121e-05 -5.4452e-07)
(-9.47965e-06 -2.5899e-05 -6.45941e-07)
(-1.00535e-05 -2.71436e-05 -7.65705e-07)
(-1.00761e-05 -2.82578e-05 -8.99302e-07)
(-9.47919e-06 -2.92346e-05 -1.0393e-06)
(-8.24221e-06 -3.00559e-05 -1.17528e-06)
(-6.40435e-06 -3.0699e-05 -1.29463e-06)
(-4.07074e-06 -3.11419e-05 -1.3841e-06)
(-1.40878e-06 -3.13676e-05 -1.43223e-06)
(1.36842e-06 -3.13665e-05 -1.43227e-06)
(4.03129e-06 -3.11388e-05 -1.38423e-06)
(6.36678e-06 -3.06941e-05 -1.29483e-06)
(8.20732e-06 -3.00494e-05 -1.17554e-06)
(9.44764e-06 -2.9227e-05 -1.03962e-06)
(1.00484e-05 -2.82495e-05 -8.99654e-07)
(1.003e-05 -2.7135e-05 -7.66085e-07)
(9.4605e-06 -2.58905e-05 -6.46317e-07)
(8.44204e-06 -2.45041e-05 -5.44864e-07)
(7.0974e-06 -2.29346e-05 -4.63452e-07)
(5.55859e-06 -2.10993e-05 -4.01051e-07)
(3.95983e-06 -1.88525e-05 -3.53722e-07)
(2.42665e-06 -1.59428e-05 -3.11637e-07)
(1.10445e-06 -1.19028e-05 -2.5662e-07)
(1.35934e-07 -5.68455e-06 -1.35391e-07)
(-1.44186e-07 -4.39994e-06 -1.44016e-07)
(-1.17282e-06 -9.31125e-06 -2.723e-07)
(-2.58754e-06 -1.25405e-05 -3.30103e-07)
(-4.24386e-06 -1.48689e-05 -3.74648e-07)
(-5.98863e-06 -1.66568e-05 -4.25903e-07)
(-7.68387e-06 -1.81038e-05 -4.94788e-07)
(-9.17938e-06 -1.93292e-05 -5.85684e-07)
(-1.03256e-05 -2.04013e-05 -6.99646e-07)
(-1.09828e-05 -2.13548e-05 -8.34586e-07)
(-1.10339e-05 -2.22005e-05 -9.85215e-07)
(-1.04e-05 -2.29344e-05 -1.14295e-06)
(-9.05577e-06 -2.35448e-05 -1.29594e-06)
(-7.04326e-06 -2.40177e-05 -1.42999e-06)
(-4.47864e-06 -2.43404e-05 -1.53027e-06)
(-1.54807e-06 -2.45036e-05 -1.58414e-06)
(1.51099e-06 -2.45028e-05 -1.58415e-06)
(4.44234e-06 -2.43379e-05 -1.53035e-06)