/*--------------------------------*- C++ -*----------------------------------*\
| =========                 |                                                 |
| \\      /  F ield         | OpenFOAM: The Open Source CFD Toolbox           |
|  \\    /   O peration     | Version:  v1912                                 |
|   \\  /    A nd           | Website:  www.openfoam.com                      |
|    \\/     M anipulation  |                                                 |
\*---------------------------------------------------------------------------*/
FoamFile
{
    version     2.0;
    format      ascii;
    class       volScalarField;
    location    "518/oil";
    object      wallHeatFlux;
}
// * * * * * * * * * * * * * * * * * * * * * * * * * * * * * * * * * * * * * //

dimensions      [1 0 -3 0 0 0 0];


internalField   uniform 0;

boundaryField
{
    maxY
    {
        type            calculated;
        value           uniform 0;
    }
    minX
    {
        type            calculated;
        value           uniform 0;
    }
    maxX
    {
        type            calculated;
        value           uniform 0;
    }
    minY
    {
        type            calculated;
        value           uniform 0;
    }
    minZ
    {
        type            calculated;
        value           uniform 0;
    }
    maxZ
    {
        type            calculated;
        value           uniform 0;
    }
    oil_to_sphere
    {
        type            calculated;
        value           nonuniform List<scalar> 
1536
(
584.41
301.183
293.887
-220.23
-231.716
288.283
59.0581
154.628
120.702
-174.682
-383.164
-135.541
115.802
-125.434
-448.472
28.7429
288.722
307.552
13.7754
100.858
220.358
125.488
145.037
25.6843
53.1333
39.364
52.5471
-8.87413
271.018
134.101
355.89
303.362
312.883
32.1643
48.6482
-6.11049
20.3519
-62.7937
-10.8984
51.2585
-22.2484
18.7096
110.977
168.485
237.868
47.7203
212.835
139.318
-425.984
37.5267
193.85
124.512
133.941
25.7659
261.882
455.298
142.101
101.432
215.537
189.793
103.649
112.88
97.8803
18.1614
45.5198
91.3027
100.189
200.103
198.216
260.981
16.7767
-233.918
-141.896
40.0353
38.9717
474.119
316.642
-61.3467
29.3646
297.449
224.166
181.904
-217.247
-224.484
269.631
529.233
-291.236
76.2351
189.911
188.659
119.663
3.38918
-1.49799
11.4217
38.3905
166.2
217.136
236.781
337.411
182.148
225.982
12.7972
588.488
196.007
-154.296
33.3602
56.8534
-200.436
-203.462
595.279
313.853
152.775
110.777
145.358
-257.861
-231.227
-313.909
403.273
557.714
329.232
132.901
145.388
-14.1243
213.881
352.965
166.834
131.368
-32.7382
231.316
215.086
92.3766
203.596
258.295
60.1223
77.4282
275.531
147.017
299.551
-27.5545
291.606
123.508
211.708
214.655
114.923
82.463
108.593
172.128
388.177
75.4407
600.444
249.901
287.495
142.119
157.573
40.9053
165.665
274.232
205.696
645.983
332.773
313.16
400.993
-102.792
-57.9972
7.17025
2.73881
258.935
377.193
338.114
454.554
-10.5458
6.9736
-58.9862
217.445
129.509
156.36
504.828
-92.8735
-161.221
529.631
-2.5956
-53.5227
-64.7131
-37.9145
185.244
529.635
334.662
-23.7219
-114.184
302.799
-96.1285
254.046
255.031
380.828
-138.828
-510.651
369.853
409.154
50.6025
37.4451
125.461
62.6875
306.859
366.417
242.465
182.56
8.02722
388.383
339.141
150.134
-32.7736
45.4396
33.9599
64.8206
222.159
463.796
-118.79
-130.087
-121.235
-549.628
286.891
219.288
179.84
122.61
134.517
388.377
251.866
38.7692
288.287
-172.915
-5.32322
-498.415
114.284
267.525
371.255
341.483
288.835
229.656
328.618
-141.57
-100.744
-70.4226
416.021
-47.7319
-504.815
-303.122
221.924
98.8387
508.226
633.487
150.035
-225.68
-541.524
188.824
328.37
12.1918
20.8388
-269.997
1.75389
387.76
539.868
96.6929
19.8262
441.604
335.543
43.17
-149.792
75.6328
472.909
405.676
230.292
255.814
359.469
-65.3059
32.2085
374.152
255.332
292.558
110.646
288.485
455.904
239.092
216.028
425.939
13.5433
10.3713
34.2197
-10.4082
5.70127
384.655
482.237
-144.737
69.232
54.0914
64.4364
-24.4266
134.362
107.321
-53.9528
-266.642
-1.46741
-132.406
-25.5864
530.139
432.616
427.044
605.182
-82.6388
-62.1591
121.14
601.857
534.496
-5.5366
112.426
-20.1607
249.94
25.2021
214.315
237.818
316.829
263.931
47.8114
273.384
-4.28377
360.946
397.375
298.49
275.167
-45.3667
489.37
475.266
241.045
-145.144
10.4233
59.8324
238.855
211.075
253.676
-54.5862
356.284
358.316
320.204
425.361
202.544
166.736
100.52
-101.631
167.552
243.918
-103.862
-123.892
-73.8107
570.074
349.694
425.085
208.999
161.539
376.74
-117.037
508.871
317.066
167.989
161.649
-135.619
312.581
343.399
-35.2339
168.797
94.4747
20.493
250.395
351.579
110.688
40.776
-81.1849
464.505
363.088
-126.694
379.252
338.97
286.839
463.962
164.424
265.218
-182.421
-135.928
236.425
594.987
299.197
504.78
204.306
57.6141
335.816
-76.3323
-22.4183
210.859
346.433
254.569
212.266
-64.8588
-61.743
375.177
354.032
363.796
157.164
2.13265
219.605
275.84
343.58
173.705
75.9913
-45.9171
149.153
-90.235
-199.7
9.80835
-42.7254
153.934
-171.999
61.2448
487.829
54.7609
51.2941
342.917
339.957
245.456
95.4805
-106.484
296.413
429.092
231.093
176.427
308.072
113.063
143.414
203.903
-220.306
224.368
359.144
422.052
332.345
268.396
257.369
176.601
82.3098
-75.852
130.716
-44.7597
-134.726
-18.9276
-200.708
538.73
499.879
399.564
576.343
-89.1573
542.835
-56.5575
-0.969421
287.177
-110.576
-65.4539
64.6685
56.1391
509.551
429.865
204.936
224.555
459.423
376.829
173.736
273.478
-28.1021
347.26
-145.049
418.74
-222.781
259.208
294.479
331.852
46.1581
-77.5659
90.2435
340.85
103.507
-165.547
344.08
367.152
397.085
619.571
167.348
451.483
-85.1414
-49.6345
-414.083
-301.692
173.169
64.2925
27.3249
-18.7798
562.999
-68.9387
-115.42
-154.569
61.5986
-179.112
641.943
-31.9898
-10.8963
132.004
-376.163
-274.86
11.9353
4.48787
111.53
39.9943
365.302
330.918
258.739
170.828
-192.3
25.7739
319.574
-76.3867
-33.9782
297.253
468.162
-30.0665
-418.319
-101.198
-384.479
126.603
47.1178
-9.95013
-147.849
-376.179
250.332
290.538
213.235
120.745
474.911
259.615
240.368
161.873
-47.4232
36.1284
363.928
258.911
72.5155
-312.339
181.464
305.133
491.203
190.975
5.91847
494.577
129.506
455.401
-30.6393
48.8118
-67.4344
54.742
186.899
469.451
-95.5073
-11.2832
-48.8471
60.5546
651.526
-150.245
32.049
-119.413
131.355
185.467
366.105
476.23
-197.996
-143.319
471.343
504.18
-247.151
451.495
380.533
298.234
369.786
239.494
148.672
164.855
461.629
171.914
245.401
148.148
344.778
191.832
126.967
107.384
-101.047
297.849
117.085
339.73
266.56
272.239
257.722
173.915
-136.456
371.978
369.443
248.626
123.898
197.954
586.155
-185.888
-35.4624
-89.9936
176.911
-30.4481
589.449
55.1166
83.8488
137.595
-408.738
-360.89
20.6227
15.0096
164.775
-67.2443
-16.0332
184.194
-12.3625
478.877
-108.332
572.387
45.2792
169.447
-508.456
-371.935
-417.86
-9.90482
298.924
30.2477
-9.01724
-380.366
153.962
311.412
159.482
716.88
-30.5031
364.601
237.788
309.729
388.35
375.77
305.71
132.292
75.4435
129.633
309.422
95.5126
217.032
186.52
211.124
333.523
259.177
296.193
-107.952
-43.2733
-518.504
-266.157
-206.797
-683.714
10.515
40.6384
96.2839
125.856
-200.077
-95.932
71.6352
407.208
373.709
66.2416
-158.52
114.576
324.564
242.663
141.024
-179.244
-30.6376
252.771
196.915
135.823
19.5561
279.093
282.997
463.869
287.582
178.524
40.4011
-20.4124
-105.443
-0.0934091
97.69
604.889
173.569
528.301
-35.5591
626.842
11.552
106.193
-86.4324
-59.1789
43.1787
-113.798
90.356
-174.091
24.2837
358.47
60.5807
-129.959
482.284
270.162
222.267
116.508
449.425
757.897
-261.595
262.717
202.709
244.415
-115.6
121.595
-21.8616
207.424
286.392
379.193
-50.5618
250.816
159.317
283.17
265.497
238.624
66.5295
99.9337
27.1295
-162.816
-193.404
-71.3493
440.507
25.2811
-117.568
33.3169
366.492
87.3574
437.388
328.831
229.56
177.802
223.475
498.007
-70.6944
258.401
380.534
411.519
172.004
-23.8359
79.6232
224.128
419.583
-90.8577
103.228
163.01
359.628
226.471
218.879
447.798
-85.4103
-12.1058
-48.1637
499.07
375.512
167.1
357.011
-8.66914
23.4352
356.011
215.957
466.343
-57.6078
312.528
346.003
186.504
209.601
296.162
-53.7078
-208.904
145.906
217.989
505.833
110.446
5.19526
129.591
227.488
307.744
178.581
-17.9977
112.887
344.324
-89.3423
-15.9119
113.67
20.3549
201.736
176.599
405.477
242.278
331.323
31.5196
131.43
201.257
122.626
79.6282
39.6634
36.3597
-79.5606
275.383
194.032
194.873
230.67
-143.359
55.9503
488.153
495.368
-17.1664
363.095
226.177
274.105
31.5115
414.61
396.055
-63.1845
87.1679
51.5134
39.5145
-154.564
-94.5435
51.6383
388.61
584.176
6.39806
293.559
274.226
220.75
95.981
203.292
403.169
190.235
-54.7508
57.9979
33.1835
43.9969
244.506
270.408
276.675
290.992
288.014
-16.2314
305.807
64.6769
259.291
-376.499
231.622
432.946
78.5022
-262.007
138.239
99.1629
528.945
-43.5249
306.163
126.871
-213.369
476.886
-131.047
103.815
150.197
-146.895
363.185
206.785
95.3991
163.643
204.752
103.961
545.367
-124.569
46.159
-451.428
62.1089
80.7302
159.506
360.706
775.416
-172.225
48.5173
683.463
-129.206
284.541
-23.9682
273.42
-286.694
-42.9651
673.952
-231.713
608.106
-185.48
513.796
-210.951
-46.963
-422.921
-125.177
634.309
-346.412
120.621
-233.357
446.426
638.163
-331.492
78.1127
13.3391
-53.8096
-62.6264
53.9125
153.265
151.806
266.326
130.201
456.277
706.719
-337.975
147.381
232.28
153.104
186.181
115.586
78.2671
114.586
322.515
120.948
328.484
42.0992
192.961
432.794
76.706
255.837
368.428
41.1747
192.944
127.684
262.695
105.163
169.823
83.8287
354.45
59.7294
219.673
-189.21
467.738
-317.884
214.45
341.766
482.063
-36.8317
180.934
131.269
181.295
157.941
120.182
317.931
-69.6062
-519.461
74.1402
-258.692
376.467
-31.8513
145.329
275.461
-483.455
411.95
-82.8394
-393.168
-53.284
286.808
269.242
156.312
-340.737
150.951
191.816
3.68741
-29.7299
385.213
346.415
26.0102
164.146
386.879
-334.375
315.333
-35.8325
256.227
-308.066
580.442
561.613
346.552
150.505
77.8452
276.254
66.6534
-344.827
-90.0768
295.693
-23.0879
234.242
-263.89
369.149
253.782
-619.696
152.517
207.073
-464.811
420.886
-196.061
381.172
471.737
311.737
-382.68
167.941
89.6536
155.89
173.741
237.435
-329.609
35.7927
-15.7923
-14.5669
360.925
140.757
208.678
270.044
255.636
85.7487
177.602
99.2616
217.516
393.284
25.7331
73.781
11.2502
169.842
338.838
22.1543
67.0584
45.0336
144.679
-17.709
2.49831
64.6316
83.7754
172.811
55.3492
466.397
317.526
-241.02
-235.46
422.522
-681.803
302.324
189.817
-19.1607
84.2386
432.206
-484.698
376.982
209.377
-361.841
48.0539
1.96551
141.445
-511.081
423.183
216.023
-474.903
402.529
405.404
-294.692
484.785
345.164
-287.818
9.0006
-16.9267
-478.758
151.504
180.231
-88.1714
-35.6164
-60.6903
-603.072
-41.2762
-506.39
-636.997
356.863
11.3718
635.375
23.7719
-332.745
428.462
97.5966
-425.44
24.7239
11.7694
-431.546
-234.504
404.527
-764.354
-88.0598
-139.804
-684.871
375.673
327.231
149.516
61.7255
6.66799
-85.599
-550.502
157.796
66.5467
77.7746
150.335
-391.86
287.496
26.7791
120.122
3.49972
111.403
171.242
-102.217
-368.985
52.6298
178.547
21.5734
60.6346
127.685
-36.6754
72.0713
-404.691
25.4909
205.661
7.46491
86.2841
-29.116
-360.802
430.247
419.78
400.191
483.144
-297.462
-460.848
29.7889
299.453
179.084
281.759
321.741
-87.1524
-141.439
-454.425
-333.449
-37.7208
123.728
107.559
96.0278
-140.989
361.056
212.21
-282.389
-47.4548
-98.1113
316.43
-31.2153
-553.616
118.363
138.539
374.372
-413.723
5.45863
171.408
41.5515
85.3821
272.07
117.241
-79.8752
511.582
-641.774
-187.028
89.0565
-34.3708
54.7051
480.229
220.909
139.857
-173.484
435.484
35.4654
170.403
321.19
374.241
353.681
372.471
460.676
518.825
450.882
451.812
140.824
333.34
25.0227
84.104
-149.645
-215.362
-595.056
491.101
474.368
398.982
72.8056
172.753
155.551
-25.8888
186.481
329.594
-71.6367
98.7295
259.822
7.22627
30.821
18.0619
69.2276
-38.1591
61.1739
39.4403
-306.47
169.072
-67.784
96.8256
-431.05
487.759
108.248
-8.34598
-47.9913
-277.003
136.447
-1.29715
-474.646
-182.912
102.239
-225.693
-159.999
530.977
559.209
41.6572
44.188
293.485
476.516
-481.106
-32.131
-38.6675
56.3558
54.3225
76.0919
114.567
-146.932
-351.744
420.119
48.1176
-198.754
-151.85
41.9431
144.633
-272.485
78.6889
-28.0456
24.9476
481.222
-191.115
-342.973
53.3751
5.58139
-39.5414
-345.129
375.513
37.359
27.1066
39.6828
-471.032
40.3528
53.6717
-332.905
33.7311
-184.234
213.902
414.335
-27.4266
333.668
202.923
-17.3491
-7.72292
62.1837
-344.701
195.804
231.577
14.9385
-414.619
-104.573
89.6038
108.099
-22.7475
-372.29
-12.4371
375.295
202.436
-7.337
523.128
-188.839
316.163
-460.533
-203.47
337.646
-471.308
357.211
-12.7003
143.44
25.7604
550.138
-129.366
150.001
482.747
432.604
-246.044
415.33
481.682
-667.758
76.824
3.68676
-444.99
227.102
-2.04798
27.8573
28.7654
118.57
78.4768
15.4834
-7.21564
-461.311
227.429
142.145
128.113
169.339
72.8189
-18.3937
-100.979
284.868
-538.991
-45.3787
-62.55
-516.563
343.973
507.381
99.2088
398.114
433.189
-28.4478
-26.0595
225.226
395.319
-38.6766
257.161
-153.386
-444.868
293.186
-68.1542
374.567
520.377
473.377
-413.886
322.741
148.993
-82.0225
12.7072
55.2001
0.38426
-403.356
389.559
-385.387
380.018
68.8842
-153.384
-205.028
70.647
268.228
452.038
133.762
604.286
300.208
360.327
-484.909
330.625
280.213
375.372
-30.5959
-75.2146
-543.225
104.375
582.725
399.696
-357.644
-134.786
-392.972
-30.8764
115.548
-159.813
730.097
28.8707
-132.835
-344.36
198.735
-69.7495
-503.113
83.1583
-5.50778
3.67349
12.446
16.4254
-339.299
-153.689
-441.434
-3.53555
296.599
215.98
414.616
374.208
-44.8086
-99.5563
-464.817
-13.9278
267.527
442.771
299.089
317.679
-196.721
-522.798
-124.662
-562.02
291.285
311.835
-99.2552
353.383
284.323
416.996
182.072
144.191
136.456
-44.8224
-473.963
-114.165
-417.479
-172.13
12.7981
-23.0214
-304.758
-417.694
253.303
585.765
522.649
473.468
129.546
244.794
234.204
103.067
11.0186
103.836
-82.7394
67.3597
69.8421
-414.47
281.998
46.9153
-133.34
-314.682
-10.6629
123.449
120.436
-22.0575
-312.037
455.897
195.855
1.11116
516.838
-72.6034
-437.517
214.188
68.1824
71.6441
71.9102
-14.4862
-541.716
66.9085
64.1665
-381.164
435.902
37.1081
-763.229
11.6407
111.883
130.322
-16.0427
-404.719
-55.606
-41.4824
-215.146
84.5155
-461.521
96.9021
80.8089
-238.452
507.506
62.64
-333.395
564.15
105.774
105.439
-319.16
80.95
-387.631
)
;
    }
}


// ************************************************************************* //
