/*--------------------------------*- C++ -*----------------------------------*\
| =========                 |                                                 |
| \\      /  F ield         | OpenFOAM: The Open Source CFD Toolbox           |
|  \\    /   O peration     | Version:  v1906                                 |
|   \\  /    A nd           | Web:      www.OpenFOAM.com                      |
|    \\/     M anipulation  |                                                 |
\*---------------------------------------------------------------------------*/
FoamFile
{
    version     2.0;
    format      ascii;
    class       surfaceScalarField;
    location    "48.2/oil";
    object      phi;
}
// * * * * * * * * * * * * * * * * * * * * * * * * * * * * * * * * * * * * * //

dimensions      [1 0 -1 0 0 0 0];
oriented        oriented;


internalField   nonuniform List<scalar> 
80688
(
-2.27173e-06
-2.3108e-06
-2.27173e-06
-1.02573e-06
-6.44457e-07
-6.01548e-07
-2.78275e-07
-3.76368e-07
-3.71086e-07
-1.35818e-07
-7.18054e-08
-7.0652e-08
-5.29447e-08
-4.19926e-08
-4.08804e-08
-1.31787e-08
-2.04366e-08
-1.93294e-08
7.8883e-09
-1.10405e-08
-1.00265e-08
1.92786e-08
-6.18889e-09
-5.20151e-09
2.49288e-08
-3.36531e-09
-2.28496e-09
2.65694e-08
-1.47402e-09
-1.66644e-10
2.50949e-08
-6.12215e-11
1.53574e-09
2.10669e-08
1.06159e-09
2.96635e-09
1.50278e-08
1.91975e-09
4.11932e-09
7.56774e-09
2.51597e-09
4.94408e-09
-6.55708e-10
2.83537e-09
5.38805e-09
-8.94919e-09
2.86964e-09
5.42383e-09
-1.6635e-08
2.62665e-09
5.05915e-09
-2.31092e-08
2.13387e-09
4.34031e-09
-2.78973e-08
1.43786e-09
3.35017e-09
-3.0686e-08
5.92369e-10
2.19632e-09
-3.13577e-08
-3.28683e-10
1.00043e-09
-2.99892e-08
-1.2511e-09
-1.17453e-10
-2.68095e-08
-2.12427e-09
-1.05547e-09
-2.22274e-08
-2.88632e-09
-1.69574e-09
-1.67818e-08
-3.47092e-09
-1.9747e-09
-1.11213e-08
-3.7961e-09
-1.86449e-09
-5.97272e-09
-3.74694e-09
-1.40162e-09
-2.07854e-09
-3.16891e-09
-7.25293e-10
-5.18678e-11
-1.88543e-09
-1.41273e-10
-1.10469e-10
5.85838e-11
-6.11485e-07
-1.08783e-06
-6.11483e-07
-3.65433e-07
-3.99924e-07
-4.90585e-07
-2.59586e-07
-2.71945e-07
-2.10271e-07
-1.24285e-07
-1.22382e-07
-8.47235e-08
-4.65357e-08
-7.68321e-08
-4.29101e-08
-5.36008e-10
-4.89655e-08
-1.74708e-08
2.7916e-08
-3.53309e-08
-4.16168e-09
4.49237e-08
-2.71809e-08
3.98424e-09
5.36625e-08
-2.17944e-08
9.69013e-09
5.56991e-08
-1.77444e-08
1.42338e-08
5.19935e-08
-1.44621e-08
1.81064e-08
4.33911e-08
-1.17568e-08
2.14207e-08
3.08308e-08
-9.61649e-09
2.40966e-08
1.54422e-08
-8.10377e-09
2.60083e-08
-1.47515e-09
-7.28301e-09
2.70357e-08
-1.85316e-08
-7.18908e-09
2.71152e-08
-3.43629e-08
-7.8037e-09
2.62616e-08
-4.77537e-08
-9.04927e-09
2.45739e-08
-5.77467e-08
-1.07959e-08
2.22267e-08
-6.37227e-08
-1.28733e-08
1.94417e-08
-6.54382e-08
-1.50909e-08
1.64777e-08
-6.30253e-08
-1.72477e-08
1.35836e-08
-5.69816e-08
-1.91463e-08
1.09783e-08
-4.81098e-08
-2.05888e-08
8.83071e-09
-3.74642e-08
-2.13593e-08
7.24272e-09
-2.62755e-08
-2.11997e-08
6.21492e-09
-1.58533e-08
-1.97814e-08
5.61224e-09
-7.44092e-09
-1.66932e-08
5.11186e-09
-1.99724e-09
-1.14642e-08
4.13509e-09
-4.1129e-09
2.00517e-09
-3.80271e-07
-3.27294e-07
-3.80268e-07
-2.52653e-07
-3.13054e-07
-2.14487e-07
-1.65909e-07
-2.2708e-07
-1.31609e-07
-7.99996e-08
-1.44499e-07
-6.37928e-08
-2.14105e-08
-1.07321e-07
-2.81005e-08
1.95521e-08
-8.37846e-08
-6.14362e-09
4.73682e-08
-7.02449e-08
7.09787e-09
6.50158e-08
-6.10326e-08
1.62041e-08
7.40654e-08
-5.40961e-08
2.32521e-08
7.54058e-08
-4.83213e-08
2.92364e-08
6.97496e-08
-4.33098e-08
3.4504e-08
5.79219e-08
-3.90013e-08
3.90721e-08
4.10335e-08
-3.55091e-08
4.27809e-08
2.04967e-08
-3.3003e-08
4.5436e-08
-2.0145e-09
-3.16328e-08
4.68609e-08
-2.46956e-08
-3.1474e-08
4.69659e-08
-4.57681e-08
-3.24993e-08
4.57681e-08
-6.36428e-08
-3.45722e-08
4.33976e-08
-7.7074e-08
-3.74538e-08
4.00891e-08
-8.52509e-08
-4.08358e-08
3.61394e-08
-8.78656e-08
-4.43638e-08
3.18875e-08
-8.50964e-08
-4.76663e-08
2.76495e-08
-7.75845e-08
-5.03702e-08
2.3712e-08
-6.63509e-08
-5.20948e-08
2.02723e-08
-5.27138e-08
-5.24307e-08
1.74343e-08
-3.81775e-08
-5.09029e-08
1.51669e-08
-2.42908e-08
-4.69328e-08
1.32646e-08
-1.24899e-08
-3.97885e-08
1.12945e-08
-3.96512e-09
-2.85191e-08
8.53004e-09
-1.20514e-08
3.97334e-09
-7.20129e-08
-1.83271e-07
-7.20097e-08
-9.39046e-08
-2.07906e-07
-8.32563e-08
-7.00793e-08
-1.88815e-07
-6.209e-08
-2.76299e-08
-1.56839e-07
-3.01092e-08
1.08837e-08
-1.37503e-07
-8.33123e-09
4.27461e-08
-1.22985e-07
7.33785e-09
6.66967e-08
-1.12758e-07
1.85629e-08
8.26757e-08
-1.04422e-07
2.74101e-08
9.06546e-08
-9.70638e-08
3.49887e-08
9.07156e-08
-9.02161e-08
4.18339e-08
8.31854e-08
-8.3838e-08
4.80583e-08
6.87622e-08
-7.81203e-08
5.35421e-08
4.85942e-08
-7.33719e-08
5.80308e-08
2.42557e-08
-6.99199e-08
6.12554e-08
-2.34288e-09
-6.80198e-08
6.29856e-08
-2.91145e-08
-6.78045e-08
6.31021e-08
-5.39941e-08
-6.92416e-08
6.1622e-08
-7.51387e-08
-7.21306e-08
5.8703e-08
-9.1099e-08
-7.61183e-08
5.46248e-08
-1.00947e-07
-8.07353e-08
4.97477e-08
-1.04329e-07
-8.54478e-08
4.4466e-08
-1.01463e-07
-8.9693e-08
3.916e-08
-9.30753e-08
-9.29066e-08
3.4149e-08
-8.03219e-08
-9.45023e-08
2.96541e-08
-6.46625e-08
-9.38676e-08
2.57774e-08
-4.77355e-08
-9.0295e-08
2.24651e-08
-3.12159e-08
-8.29218e-08
1.94694e-08
-1.66726e-08
-7.06202e-08
1.62882e-08
-5.57569e-09
-5.17039e-08
1.20878e-08
-2.32122e-08
5.58512e-09
-3.55583e-08
-1.12159e-07
-3.55541e-08
-3.99464e-08
-1.66494e-07
-3.70242e-08
-2.24116e-08
-1.81922e-07
-2.44274e-08
6.52078e-09
-1.78715e-07
-7.05615e-09
3.59768e-08
-1.7401e-07
7.05077e-09
6.23967e-08
-1.68002e-07
1.85975e-08
8.33848e-08
-1.61902e-07
2.81551e-08
9.767e-08
-1.55325e-07
3.66185e-08
1.04405e-07
-1.48296e-07
4.44979e-08
1.03158e-07
-1.40953e-07
5.19841e-08
9.39616e-08
-1.33633e-07
5.8991e-08
7.73971e-08
-1.26813e-07
6.52568e-08
5.46114e-08
-1.21022e-07
7.04362e-08
2.72812e-08
-1.16759e-07
7.41691e-08
-2.50769e-09
-1.14403e-07
7.61718e-08
-3.24575e-08
-1.14146e-07
7.62915e-08
-6.02829e-08
-1.15958e-07
7.45413e-08
-8.39463e-08
-1.19574e-07
7.11065e-08
-1.01853e-07
-1.24526e-07
6.63144e-08
-1.1299e-07
-1.30185e-07
6.05877e-08
-1.16983e-07
-1.35841e-07
5.43855e-08
-1.14075e-07
-1.40738e-07
4.81379e-08
-1.05068e-07
-1.44108e-07
4.21949e-08
-9.11996e-08
-1.45177e-07
3.68056e-08
-7.40179e-08
-1.43121e-07
3.20715e-08
-5.5246e-08
-1.36991e-07
2.79243e-08
-3.66416e-08
-1.25613e-07
2.40869e-08
-1.99067e-08
-1.07357e-07
2.00016e-08
-6.78741e-09
-7.95677e-08
1.47445e-08
-3.67983e-08
6.79862e-09
-1.11784e-08
-8.98077e-08
-1.1173e-08
-7.48917e-09
-1.60709e-07
-9.47454e-09
7.64428e-09
-1.95328e-07
-1.72779e-09
3.05223e-08
-2.10167e-07
8.57385e-09
5.51601e-08
-2.16896e-07
1.82481e-08
7.82316e-08
-2.18294e-07
2.72203e-08
9.71193e-08
-2.16442e-07
3.56531e-08
1.10025e-07
-2.12111e-07
4.388e-08
1.15663e-07
-2.05994e-07
5.20596e-08
1.13276e-07
-1.98715e-07
6.01483e-08
1.02693e-07
-1.90951e-07
6.79013e-08
8.43887e-08
-1.83442e-07
7.49329e-08
5.94989e-08
-1.76927e-07
8.07945e-08
2.97799e-08
-1.72075e-07
8.50354e-08
-2.5473e-09
-1.69382e-07
8.73061e-08
-3.50129e-08
-1.69102e-07
8.74215e-08
-6.51557e-08
-1.71207e-07
8.53924e-08
-9.07782e-08
-1.75379e-07
8.1428e-08
-1.10175e-07
-1.81041e-07
7.59115e-08
-1.22276e-07
-1.87422e-07
6.93374e-08
-1.26699e-07
-1.93651e-07
6.22328e-08
-1.23725e-07
-1.98789e-07
5.50763e-08
-1.14213e-07
-2.01898e-07
4.82782e-08
-9.94662e-08
-2.02018e-07
4.20945e-08
-8.10978e-08
-1.98123e-07
3.66337e-08
-6.08881e-08
-1.89018e-07
3.1817e-08
-4.06709e-08
-1.73176e-07
2.73453e-08
-2.22624e-08
-1.48381e-07
2.26156e-08
-7.64538e-09
-1.10804e-07
1.66188e-08
-5.21021e-08
7.65848e-09
-7.62755e-10
-8.82886e-08
-7.56309e-10
8.01397e-09
-1.73648e-07
4.16254e-09
2.4202e-08
-2.22203e-07
1.06869e-08
4.55229e-08
-2.49648e-07
1.81601e-08
6.82869e-08
-2.65344e-07
2.56842e-08
8.97367e-08
-2.73058e-07
3.33142e-08
1.07424e-07
-2.75304e-07
4.11738e-08
1.19424e-07
-2.73501e-07
4.939e-08
1.24275e-07
-2.68792e-07
5.79467e-08
1.21038e-07
-2.62136e-07
6.6658e-08
1.09409e-07
-2.54486e-07
7.51642e-08
8.97884e-08
-2.46792e-07
8.29708e-08
6.33052e-08
-2.39965e-07
8.95209e-08
3.1764e-08
-2.34816e-07
9.42815e-08
-2.49842e-09
-2.31948e-07
9.68285e-08
-3.6874e-08
-2.31662e-07
9.69355e-08
-6.87582e-08
-2.33935e-07
9.46118e-08
-9.58268e-08
-2.38409e-07
9.00983e-08
-1.16291e-07
-2.4442e-07
8.3843e-08
-1.29042e-07
-2.51081e-07
7.64097e-08
-1.3371e-07
-2.57383e-07
6.84014e-08
-1.30618e-07
-2.62254e-07
6.03728e-08
-1.20681e-07
-2.64601e-07
5.27658e-08
-1.05257e-07
-2.63306e-07
4.58633e-08
-8.60075e-08
-2.57152e-07
3.97805e-08
-6.47581e-08
-2.44694e-07
3.44267e-08
-4.3396e-08
-2.2402e-07
2.94819e-08
-2.38293e-08
-1.92258e-07
2.431e-08
-8.20356e-09
-1.44264e-07
1.78343e-08
-6.8524e-08
8.21832e-09
4.05932e-09
-9.64143e-08
4.06629e-09
1.6046e-08
-1.96752e-07
1.11175e-08
3.35004e-08
-2.57097e-07
1.74394e-08
5.45538e-08
-2.94462e-07
2.37606e-08
7.65682e-08
-3.17631e-07
3.02725e-08
9.71845e-08
-3.30933e-07
3.72583e-08
1.14155e-07
-3.3717e-07
4.48958e-08
1.25578e-07
-3.38175e-07
5.32516e-08
1.2991e-07
-3.35351e-07
6.2227e-08
1.26131e-07
-3.29905e-07
7.15475e-08
1.1384e-07
-3.22969e-07
8.0774e-08
9.33803e-08
-3.1566e-07
8.93282e-08
6.58624e-08
-3.09003e-07
9.65559e-08
3.31346e-08
-3.03911e-07
1.01823e-07
-2.393e-09
-3.01053e-07
1.04633e-07
-3.80097e-08
-3.00776e-07
1.04731e-07
-7.10058e-08
-3.0306e-07
1.02121e-07
-9.89651e-08
-3.07519e-07
9.70689e-08
-1.20044e-07
-3.13427e-07
9.00855e-08
-1.33121e-07
-3.19831e-07
8.1827e-08
-1.37853e-07
-3.25625e-07
7.29737e-08
-1.34612e-07
-3.29634e-07
6.41393e-08
-1.24357e-07
-3.30656e-07
5.58011e-08
-1.08492e-07
-3.27443e-07
4.82718e-08
-8.87135e-08
-3.18606e-07
4.16745e-08
-6.68668e-08
-3.02451e-07
3.59102e-08
-4.48629e-08
-2.76662e-07
3.06381e-08
-2.4661e-08
-2.37654e-07
2.5195e-08
-8.49594e-09
-1.7889e-07
1.84609e-08
-8.55318e-08
8.51185e-09
6.23441e-09
-1.0889e-07
6.24154e-09
1.98722e-08
-2.24842e-07
1.44514e-08
3.81035e-08
-2.96114e-07
2.0786e-08
5.90725e-08
-3.42049e-07
2.66179e-08
8.06239e-08
-3.71828e-07
3.26455e-08
1.00648e-07
-3.90283e-07
3.93267e-08
1.17079e-07
-4.00497e-07
4.68954e-08
1.28073e-07
-4.04576e-07
5.54069e-08
1.32092e-07
-4.04116e-07
6.47461e-08
1.28058e-07
-4.00459e-07
7.45885e-08
1.15529e-07
-3.9487e-07
8.44296e-08
9.4777e-08
-3.88528e-07
9.36198e-08
6.68913e-08
-3.82531e-07
1.01413e-07
3.37284e-08
-3.7785e-07
1.07102e-07
-2.25885e-09
-3.75203e-07
1.10138e-07
-3.83124e-08
-3.74947e-07
1.10224e-07
-7.16694e-08
-3.77065e-07
1.07363e-07
-9.98745e-08
-3.81163e-07
1.0185e-07
-1.21058e-07
-3.86501e-07
9.42584e-08
-1.34115e-07
-3.92077e-07
8.53023e-08
-1.38739e-07
-3.96729e-07
7.57276e-08
-1.35347e-07
-3.99253e-07
6.6226e-08
-1.24935e-07
-3.98379e-07
5.73107e-08
-1.08942e-07
-3.92749e-07
4.93131e-08
-8.90624e-08
-3.80831e-07
4.23451e-08
-6.71321e-08
-3.60687e-07
3.63058e-08
-4.50481e-08
-3.29605e-07
3.08594e-08
-2.47656e-08
-2.83252e-07
2.53151e-08
-8.53138e-09
-2.13651e-07
1.85269e-08
-1.02611e-07
8.54773e-09
7.06146e-09
-1.2302e-07
7.06838e-09
2.12261e-08
-2.54685e-07
1.56785e-08
3.95052e-08
-3.3631e-07
2.19172e-08
6.00295e-08
-3.90015e-07
2.74417e-08
8.08798e-08
-4.25845e-07
3.31662e-08
1.00149e-07
-4.49184e-07
3.96311e-08
1.15948e-07
-4.63414e-07
4.71184e-08
1.26493e-07
-4.70817e-07
5.56957e-08
1.30301e-07
-4.73148e-07
6.52236e-08
1.26288e-07
-4.71822e-07
7.53762e-08
1.13948e-07
-4.68135e-07
8.5605e-08
9.35203e-08
-4.63301e-07
9.52009e-08
6.60494e-08
-4.58431e-07
1.03372e-07
3.33586e-08
-4.54511e-07
1.09352e-07
-2.11787e-09
-4.5225e-07
1.12523e-07
-3.76413e-08
-4.52021e-07
1.12598e-07
-7.04693e-08
-4.53813e-07
1.09576e-07
-9.81567e-08
-4.57226e-07
1.0375e-07
-1.18861e-07
-4.61527e-07
9.57305e-08
-1.31522e-07
-4.65719e-07
8.63038e-08
-1.35872e-07
-4.68659e-07
7.62805e-08
-1.32371e-07
-4.69117e-07
6.63635e-08
-1.22045e-07
-4.65808e-07
5.71032e-08
-1.06313e-07
-4.57323e-07
4.88415e-08
-8.68426e-08
-4.42e-07
4.16991e-08
-6.54177e-08
-4.1769e-07
3.55778e-08
-4.38845e-08
-3.81253e-07
3.01146e-08
-2.41207e-08
-3.27651e-07
2.46356e-08
-8.30767e-09
-2.47485e-07
1.80215e-08
-1.19242e-07
8.32372e-09
7.10597e-09
-1.37238e-07
7.11178e-09
2.09063e-08
-2.84016e-07
1.5531e-08
3.8436e-08
-3.75319e-07
2.14788e-08
5.78868e-08
-4.36123e-07
2.66568e-08
7.75368e-08
-4.77535e-07
3.204e-08
9.56607e-08
-5.05524e-07
3.82164e-08
1.10517e-07
-5.23753e-07
4.54826e-08
1.20468e-07
-5.34673e-07
5.39051e-08
1.24087e-07
-5.40119e-07
6.33521e-08
1.2031e-07
-5.41533e-07
7.34878e-08
1.0862e-07
-5.40194e-07
8.37481e-08
8.92063e-08
-5.37302e-07
9.34152e-08
6.30362e-08
-5.33924e-07
1.01663e-07
3.18579e-08
-5.3103e-07
1.07698e-07
-1.98724e-09
-5.29291e-07
1.10886e-07
-3.58619e-08
-5.29093e-07
1.10947e-07
-6.71285e-08
-5.30418e-07
1.07872e-07
-9.34212e-08
-5.32892e-07
1.01959e-07
-1.12994e-07
-5.35797e-07
9.38421e-08
-1.24854e-07
-5.38165e-07
8.43051e-08
-1.28768e-07
-5.3892e-07
7.41754e-08
-1.25245e-07
-5.36837e-07
6.41965e-08
-1.15299e-07
-5.30682e-07
5.49275e-08
-1.00299e-07
-5.1902e-07
4.66978e-08
-8.18351e-08
-5.00095e-07
3.96308e-08
-6.15956e-08
-4.71561e-07
3.36313e-08
-4.129e-08
-4.29917e-07
2.83587e-08
-2.26836e-08
-3.69409e-07
2.31514e-08
-7.81424e-09
-2.7928e-07
1.69249e-08
-1.34886e-07
7.82934e-09
6.61553e-09
-1.50474e-07
6.62033e-09
1.9293e-08
-3.11044e-07
1.4351e-08
3.52875e-08
-4.11069e-07
1.97554e-08
5.29375e-08
-4.78227e-07
2.4454e-08
7.07386e-08
-5.24724e-07
2.93879e-08
8.71535e-08
-5.57054e-07
3.51146e-08
1.00645e-07
-5.79162e-07
4.19175e-08
1.09748e-07
-5.9366e-07
4.98845e-08
1.13123e-07
-6.02379e-07
5.8885e-08
1.0979e-07
-6.06792e-07
6.85918e-08
9.9234e-08
-6.08104e-07
7.84666e-08
8.15572e-08
-6.07428e-07
8.78027e-08
5.76598e-08
-6.05802e-07
9.5776e-08
2.91191e-08
-6.04098e-07
1.01608e-07
-1.87681e-09
-6.02978e-07
1.04683e-07
-3.28876e-08
-6.02813e-07
1.04731e-07
-6.14654e-08
-6.03594e-07
1.01754e-07
-8.54325e-08
-6.04938e-07
9.60126e-08
-1.03165e-07
-6.06182e-07
8.8118e-08
-1.13768e-07
-6.06431e-07
7.8869e-08
-1.17116e-07
-6.04654e-07
6.90814e-08
-1.13684e-07
-5.99751e-07
5.94827e-08
-1.04453e-07
-5.90516e-07
5.06027e-08
-9.07094e-08
-5.75519e-07
4.27557e-08
-7.39039e-08
-5.52969e-07
3.60684e-08
-5.55525e-08
-5.20348e-07
3.04361e-08
-3.72075e-08
-4.73809e-07
2.55464e-08
-2.04353e-08
-4.06983e-07
2.08015e-08
-7.03622e-09
-3.07883e-07
1.52038e-08
-1.48972e-07
7.04963e-09
5.71866e-09
-1.61915e-07
5.72301e-09
1.66103e-08
-3.34288e-07
1.23516e-08
3.02994e-08
-4.41724e-07
1.6966e-08
4.53959e-08
-5.1432e-07
2.0996e-08
6.06167e-08
-5.65231e-07
2.52863e-08
7.47001e-08
-6.01474e-07
3.03366e-08
8.63473e-08
-6.27202e-07
3.63919e-08
9.42827e-08
-6.45146e-07
4.3551e-08
9.7351e-08
-6.57145e-07
5.16979e-08
9.46472e-08
-6.64625e-07
6.05365e-08
8.56742e-08
-6.6871e-07
6.95786e-08
7.04948e-08
-6.70391e-07
7.8142e-08
4.98494e-08
-6.70619e-07
8.54615e-08
2.51074e-08
-6.70176e-07
9.08196e-08
-1.79357e-09
-6.69715e-07
9.36375e-08
-2.86969e-08
-6.69578e-07
9.36682e-08
-5.34466e-08
-6.69756e-07
9.09109e-08
-7.40905e-08
-6.69905e-07
8.56108e-08
-8.92411e-08
-6.69371e-07
7.83393e-08
-9.81681e-08
-6.67339e-07
6.98356e-08
-1.0079e-07
-6.62904e-07
6.08711e-08
-9.75814e-08
-6.55065e-07
5.21053e-08
-8.94332e-08
-6.42689e-07
4.40245e-08
-7.74909e-08
-6.24405e-07
3.6943e-08
-6.30017e-08
-5.98409e-07
3.09505e-08
-4.7286e-08
-5.6202e-07
2.59559e-08
-3.1634e-08
-5.11151e-07
2.16907e-08
-1.73548e-08
-4.38885e-07
1.7623e-08
-5.97876e-09
-3.32141e-07
1.28825e-08
-1.60941e-07
5.9903e-09
4.4862e-09
-1.70887e-07
4.48522e-09
1.29933e-08
-3.52434e-07
9.63955e-09
2.36837e-08
-4.65634e-07
1.32194e-08
3.54822e-08
-5.42516e-07
1.6398e-08
4.74362e-08
-5.97032e-07
1.98473e-08
5.85655e-08
-6.36577e-07
2.39737e-08
6.7859e-08
-6.65505e-07
2.90096e-08
7.43004e-08
-6.86605e-07
3.50178e-08
7.69546e-08
-7.01719e-07
4.19199e-08
7.50478e-08
-7.12178e-07
4.94595e-08
6.81221e-08
-7.18999e-07
5.72154e-08
5.61683e-08
-7.23068e-07
6.46316e-08
3.97188e-08
-7.25196e-07
7.10269e-08
1.98895e-08
-7.26079e-07
7.57325e-08
-1.73715e-09
-7.26298e-07
7.82098e-08
-2.33538e-08
-7.26184e-07
7.82232e-08
-4.31474e-08
-7.25735e-07
7.57732e-08
-5.95417e-08
-7.24605e-07
7.10951e-08
-7.14173e-08
-7.22234e-07
6.47384e-08
-7.8227e-08
-7.17887e-07
5.73579e-08
-7.99714e-08
-7.10783e-07
4.96242e-08
-7.711e-08
-7.00061e-07
4.21351e-08
-7.04027e-08
-6.84689e-07
3.52933e-08
-6.07879e-08
-6.63358e-07
2.93379e-08
-4.92815e-08
-6.34273e-07
2.43577e-08
-3.68991e-08
-5.9467e-07
2.02682e-08
-2.46335e-08
-5.40242e-07
1.68248e-08
-1.35026e-08
-4.63641e-07
1.36253e-08
-4.64707e-09
-3.50967e-07
9.9703e-09
-1.70244e-07
4.65634e-09
2.97254e-09
-1.76831e-07
2.97116e-09
8.58493e-09
-3.64381e-07
6.33463e-09
1.56684e-08
-4.81399e-07
8.68229e-09
2.35259e-08
-5.61199e-07
1.08258e-08
3.15608e-08
-6.18308e-07
1.32414e-08
3.91443e-08
-6.60384e-07
1.62236e-08
4.5604e-08
-6.91902e-07
1.99381e-08
5.02358e-08
-7.15675e-07
2.44374e-08
5.23702e-08
-7.33537e-07
2.96833e-08
5.13944e-08
-7.46719e-07
3.5517e-08
4.69012e-08
-7.56129e-07
4.16226e-08
3.88205e-08
-7.62528e-07
4.75405e-08
2.74512e-08
-7.66533e-07
5.27067e-08
1.35544e-08
-7.68762e-07
5.65798e-08
-1.70495e-09
-7.69681e-07
5.86427e-08
-1.6943e-08
-7.69584e-07
5.86376e-08
-3.07809e-08
-7.68466e-07
5.65686e-08
-4.20493e-08
-7.66031e-07
5.26939e-08
-4.99947e-08
-7.61813e-07
4.75249e-08
-5.42989e-08
-7.55207e-07
4.1624e-08
-5.505e-08
-7.45594e-07
3.55619e-08
-5.26699e-08
-7.32205e-07
2.97642e-08
-4.77524e-08
-7.14155e-07
2.45485e-08
-4.09542e-08
-6.90247e-07
2.00915e-08
-3.30139e-08
-6.58629e-07
1.6416e-08
-2.45918e-08
-6.16557e-07
1.34646e-08
-1.63628e-08
-5.59536e-07
1.10652e-08
-8.94438e-09
-4.79978e-07
8.91838e-09
-3.07564e-09
-3.63371e-07
6.53575e-09
-1.76403e-07
3.08292e-09
1.24037e-09
-1.79308e-07
1.23692e-09
3.57468e-09
-3.69282e-07
2.56623e-09
6.53608e-09
-4.87869e-07
3.50813e-09
9.91552e-09
-5.69044e-07
4.46515e-09
1.34972e-08
-6.27567e-07
5.67725e-09
1.70389e-08
-6.71226e-07
7.29988e-09
2.0248e-08
-7.04542e-07
9.4309e-09
2.27785e-08
-7.30337e-07
1.2132e-08
2.42479e-08
-7.50397e-07
1.53909e-08
2.42746e-08
-7.65869e-07
1.9123e-08
2.25483e-08
-7.77552e-07
2.31499e-08
1.88754e-08
-7.86068e-07
2.72125e-08
1.33196e-08
-7.91882e-07
3.0904e-08
6.24343e-09
-7.95446e-07
3.376e-08
-1.68867e-09
-7.97073e-07
3.53236e-08
-9.58936e-09
-7.96986e-07
3.53032e-08
-1.65771e-08
-7.95184e-07
3.3706e-08
-2.19876e-08
-7.91443e-07
3.08225e-08
-2.54825e-08
-7.85446e-07
2.71274e-08
-2.69857e-08
-7.76771e-07
2.30667e-08
-2.67125e-08
-7.64912e-07
1.90449e-08
-2.49571e-08
-7.493e-07
1.53389e-08
-2.21062e-08
-7.29119e-07
1.21129e-08
-1.85778e-08
-7.03224e-07
9.4483e-09
-1.46885e-08
-6.69871e-07
7.35306e-09
-1.07688e-08
-6.26239e-07
5.76185e-09
-7.05842e-09
-5.6782e-07
4.57331e-09
-3.81855e-09
-4.86847e-07
3.62851e-09
-1.30508e-09
-3.68566e-07
2.68148e-09
-1.79019e-07
1.31065e-09
-6.41431e-10
-1.78022e-07
-6.44681e-10
-1.8755e-09
-3.66532e-07
-1.51588e-09
-3.34976e-09
-4.84305e-07
-2.08928e-09
-4.82313e-09
-5.65143e-07
-2.42772e-09
-6.06704e-09
-6.23772e-07
-2.55133e-09
-6.93858e-09
-6.679e-07
-2.45406e-09
-7.31567e-09
-7.02031e-07
-2.13391e-09
-7.15738e-09
-7.28945e-07
-1.55024e-09
-6.5052e-09
-7.50381e-07
-6.68873e-10
-5.491e-09
-7.67425e-07
5.42336e-10
-4.31552e-09
-7.8079e-07
2.06236e-09
-3.21592e-09
-7.90955e-07
3.78734e-09
-2.38915e-09
-7.98237e-07
5.52875e-09
-1.91218e-09
-8.02926e-07
7.00295e-09
-1.68148e-09
-8.05158e-07
7.85412e-09
-1.41381e-09
-8.05085e-07
7.83067e-09
-8.36251e-10
-8.02684e-07
6.92235e-09
1.66538e-10
-7.97836e-07
5.38986e-09
1.48713e-09
-7.90387e-07
3.6205e-09
2.92299e-09
-7.80091e-07
1.88469e-09
4.22576e-09
-7.66587e-07
3.71868e-10
5.18638e-09
-7.49441e-07
-8.1931e-10
5.66656e-09
-7.27929e-07
-1.67065e-09
5.61737e-09
-7.00956e-07
-2.21932e-09
5.07622e-09
-6.66826e-07
-2.504e-09
4.13903e-09
-6.22734e-07
-2.5674e-09
2.94562e-09
-5.64213e-07
-2.41334e-09
1.69524e-09
-4.83547e-07
-2.04968e-09
6.00101e-10
-3.66012e-07
-1.45914e-09
-1.77823e-07
-5.95668e-10
-2.58803e-09
-1.72838e-07
-2.59616e-09
-7.50402e-09
-3.55884e-07
-5.73236e-09
-1.35681e-08
-4.70359e-07
-7.88193e-09
-2.00445e-08
-5.49103e-07
-9.56361e-09
-2.63125e-08
-6.06408e-07
-1.10958e-08
-3.17821e-08
-6.49784e-07
-1.26462e-08
-3.59402e-08
-6.83601e-07
-1.42722e-08
-3.83342e-08
-7.10552e-07
-1.59991e-08
-3.86498e-08
-7.32308e-07
-1.77575e-08
-3.67477e-08
-7.49891e-07
-1.94358e-08
-3.26539e-08
-7.63974e-07
-2.09101e-08
-2.66451e-08
-7.74934e-07
-2.20293e-08
-1.91214e-08
-7.83017e-07
-2.27444e-08
-1.06266e-08
-7.88344e-07
-2.30771e-08
-1.67576e-09
-7.90954e-07
-2.31543e-08
7.31781e-09
-7.90882e-07
-2.3196e-08
1.5931e-08
-7.88106e-07
-2.31909e-08
2.36465e-08
-7.82631e-07
-2.29203e-08
2.99069e-08
-7.74412e-07
-2.22355e-08
3.4279e-08
-7.63328e-07
-2.11357e-08
3.64986e-08
-7.49137e-07
-1.967e-08
3.65077e-08
-7.31474e-07
-1.79759e-08
3.44384e-08
-7.09669e-07
-1.61902e-08
3.06111e-08
-6.82698e-07
-1.44301e-08
2.54445e-08
-6.48891e-07
-1.27687e-08
1.94701e-08
-6.05578e-07
-1.11816e-08
1.32432e-08
-5.48373e-07
-9.61328e-09
7.36355e-09
-4.69772e-07
-7.8954e-09
2.56704e-09
-3.55502e-07
-5.71376e-09
-1.72693e-07
-2.56312e-09
-4.50949e-09
-1.63811e-07
-4.51697e-09
-1.30404e-08
-3.37479e-07
-9.8742e-09
-2.36222e-08
-4.46215e-07
-1.35622e-08
-3.50335e-08
-5.21112e-07
-1.65798e-08
-4.62516e-08
-5.75678e-07
-1.95121e-08
-5.62905e-08
-6.17039e-07
-2.27066e-08
-6.42319e-08
-6.49331e-07
-2.63293e-08
-6.92308e-08
-6.75128e-07
-3.04251e-08
-7.0619e-08
-6.95983e-07
-3.49364e-08
-6.79288e-08
-7.12914e-07
-3.96674e-08
-6.10408e-08
-7.26531e-07
-4.43306e-08
-5.01943e-08
-7.37199e-07
-4.85813e-08
-3.6015e-08
-7.4511e-07
-5.20856e-08
-1.94579e-08
-7.50361e-07
-5.45396e-08
-1.66586e-09
-7.52957e-07
-5.57897e-08
1.6173e-08
-7.52876e-07
-5.58447e-08
3.2866e-08
-7.50124e-07
-5.46752e-08
4.72425e-08
-7.44727e-07
-5.22807e-08
5.83455e-08
-7.36681e-07
-4.88339e-08
6.55345e-08
-7.2591e-07
-4.4607e-08
6.85499e-08
-7.12212e-07
-3.99401e-08
6.75011e-08
-6.95229e-07
-3.51966e-08
6.28305e-08
-6.74337e-07
-3.06619e-08
5.52177e-08
-6.48551e-07
-2.65346e-08
4.54822e-08
-6.16279e-07
-2.28761e-08
3.45324e-08
-5.74984e-07
-1.96447e-08
2.33493e-08
-5.20518e-07
-1.66718e-08
1.29426e-08
-4.45754e-07
-1.36112e-08
4.49753e-09
-3.37177e-07
-9.88017e-09
-1.63702e-07
-4.49355e-09
-6.30933e-09
-1.51185e-07
-6.31656e-09
-1.8217e-08
-3.11817e-07
-1.37544e-08
-3.29972e-08
-4.1256e-07
-1.88748e-08
-4.90122e-08
-4.81977e-07
-2.31196e-08
-6.4847e-08
-5.3251e-07
-2.73337e-08
-7.91643e-08
-5.7068e-07
-3.20418e-08
-9.06499e-08
-6.00329e-07
-3.75154e-08
-9.81157e-08
-6.23822e-07
-4.38401e-08
-1.00529e-07
-6.42649e-07
-5.09203e-08
-9.71616e-08
-6.57777e-07
-5.85057e-08
-8.77039e-08
-6.69796e-07
-6.61926e-08
-7.23646e-08
-6.79105e-07
-7.34339e-08
-5.19427e-08
-6.85932e-07
-7.96006e-08
-2.77806e-08
-6.90428e-07
-8.40949e-08
-1.64652e-09
-6.92638e-07
-8.64532e-08
2.45323e-08
-6.92558e-07
-8.64977e-08
4.88218e-08
-6.90192e-07
-8.42216e-08
6.94597e-08
-6.85566e-07
-7.97984e-08
8.50642e-08
-6.78604e-07
-7.36813e-08
9.48288e-08
-6.69206e-07
-6.64681e-08
9.85272e-08
-6.5712e-07
-5.87908e-08
9.64483e-08
-6.41952e-07
-5.1198e-08
8.93217e-08
-6.23112e-07
-4.4098e-08
7.81513e-08
-5.99635e-07
-3.77456e-08
6.41309e-08
-5.70021e-07
-3.22378e-08
4.85609e-08
-5.31922e-07
-2.7492e-08
3.27614e-08
-4.81482e-07
-2.32359e-08
1.81289e-08
-4.12177e-07
-1.89447e-08
6.3034e-09
-3.11576e-07
-1.37748e-08
-1.51099e-07
-6.29899e-09
-7.88448e-09
-1.35409e-07
-7.89205e-09
-2.2744e-08
-2.79818e-07
-1.71394e-08
-4.12056e-08
-3.70608e-07
-2.34914e-08
-6.1238e-08
-4.3315e-07
-2.87946e-08
-8.11155e-08
-4.7851e-07
-3.41218e-08
-9.91706e-08
-5.1251e-07
-4.01144e-08
-1.13766e-07
-5.38604e-07
-4.71305e-08
-1.23379e-07
-5.58917e-07
-5.52917e-08
-1.2668e-07
-5.7485e-07
-6.44978e-08
-1.22701e-07
-5.87293e-07
-7.44625e-08
-1.10975e-07
-5.96875e-07
-8.46477e-08
-9.17014e-08
-6.04047e-07
-9.43309e-08
-6.58214e-08
-6.09135e-07
-1.02676e-07
-3.50315e-08
-6.12384e-07
-1.08834e-07
-1.61667e-09
-6.13941e-07
-1.12112e-07
3.18445e-08
-6.13865e-07
-1.12153e-07
6.27688e-08
-6.1217e-07
-1.08946e-07
8.88478e-08
-6.0879e-07
-1.02855e-07
1.08389e-07
-6.03579e-07
-9.4567e-08
1.20422e-07
-5.96323e-07
-8.49158e-08
1.2473e-07
-5.86684e-07
-7.47434e-08
1.21762e-07
-5.74208e-07
-6.47753e-08
1.12485e-07
-5.58282e-07
-5.55534e-08
9.82014e-08
-5.37983e-07
-4.73682e-08
8.04392e-08
-5.11938e-07
-4.03208e-08
6.08124e-08
-4.78003e-07
-3.42918e-08
4.09859e-08
-4.32733e-07
-2.89229e-08
2.26718e-08
-3.70291e-07
-2.35713e-08
7.88204e-09
-2.7962e-07
-1.71666e-08
-1.3534e-07
-7.87699e-09
-9.15549e-09
-1.17091e-07
-9.1624e-09
-2.63878e-08
-2.42726e-07
-1.98593e-08
-4.77958e-08
-3.22003e-07
-2.71965e-08
-7.1065e-08
-3.76566e-07
-3.33154e-08
-9.42041e-08
-4.15903e-07
-3.94687e-08
-1.15267e-07
-4.45028e-07
-4.64188e-08
-1.32361e-07
-4.66938e-07
-5.45727e-08
-1.43678e-07
-4.83535e-07
-6.40647e-08
-1.47662e-07
-4.96059e-07
-7.48077e-08
-1.43143e-07
-5.05373e-07
-8.64383e-08
-1.29556e-07
-5.12125e-07
-9.83374e-08
-1.07098e-07
-5.16813e-07
-1.09692e-07
-7.68465e-08
-5.1989e-07
-1.19497e-07
-4.07713e-08
-5.21704e-07
-1.26755e-07
-1.5749e-09
-5.22513e-07
-1.30624e-07
3.76638e-08
-5.22443e-07
-1.30661e-07
7.38664e-08
-5.21501e-07
-1.26872e-07
1.04314e-07
-5.19564e-07
-1.19674e-07
1.27039e-07
-5.16393e-07
-1.0991e-07
1.40921e-07
-5.1162e-07
-9.8586e-08
1.45759e-07
-5.04821e-07
-8.67012e-08
1.4211e-07
-4.95487e-07
-7.50718e-08
1.31111e-07
-4.82965e-07
-6.43181e-08
1.1433e-07
-4.66397e-07
-5.48055e-08
9.35465e-08
-4.4453e-07
-4.66243e-08
7.06547e-08
-4.1547e-07
-3.96409e-08
4.75875e-08
-3.76223e-07
-3.34427e-08
2.63153e-08
-3.21744e-07
-2.7275e-08
9.15395e-09
-2.42569e-07
-1.98895e-08
-1.17038e-07
-9.14876e-09
-1.00447e-08
-9.69951e-08
-1.00513e-08
-2.8927e-08
-2.02096e-07
-2.17482e-08
-5.24093e-08
-2.68788e-07
-2.97326e-08
-7.79742e-08
-3.14625e-07
-3.63755e-08
-1.03455e-07
-3.47371e-07
-4.30503e-08
-1.26702e-07
-3.71198e-07
-5.05825e-08
-1.45592e-07
-3.88633e-07
-5.94153e-08
-1.58124e-07
-4.01303e-07
-6.97005e-08
-1.62562e-07
-4.10313e-07
-8.13079e-08
-1.57615e-07
-4.16477e-07
-9.3843e-08
-1.4266e-07
-4.20421e-07
-1.06658e-07
-1.17895e-07
-4.22722e-07
-1.18857e-07
-8.45403e-08
-4.23875e-07
-1.2937e-07
-4.47575e-08
-4.24336e-07
-1.37151e-07
-1.51924e-09
-4.24442e-07
-1.41309e-07
4.17598e-08
-4.24381e-07
-1.41342e-07
8.16619e-08
-4.24156e-07
-1.37247e-07
1.15211e-07
-4.23592e-07
-1.29521e-07
1.40212e-07
-4.22342e-07
-1.19052e-07
1.55461e-07
-4.19985e-07
-1.06884e-07
1.60719e-07
-4.15995e-07
-9.40834e-08
1.56604e-07
-4.09819e-07
-8.15529e-08
1.44387e-07
-4.0081e-07
-6.99382e-08
1.25795e-07
-3.88168e-07
-5.96363e-08
1.02825e-07
-3.70781e-07
-5.07799e-08
7.75852e-08
-3.47013e-07
-4.32174e-08
5.22081e-08
-3.14337e-07
-3.65094e-08
2.88599e-08
-2.68578e-07
-2.98182e-08
1.00432e-08
-2.01974e-07
-2.17785e-08
-9.69562e-08
-1.00382e-08
-1.04802e-08
-7.60296e-08
-1.04853e-08
-3.01854e-08
-1.59731e-07
-2.26597e-08
-5.47547e-08
-2.13292e-07
-3.09269e-08
-8.15936e-08
-2.50022e-07
-3.77644e-08
-1.08424e-07
-2.75925e-07
-4.46161e-08
-1.32962e-07
-2.94317e-07
-5.23434e-08
-1.52935e-07
-3.07264e-07
-6.13957e-08
-1.66204e-07
-3.16117e-07
-7.19171e-08
-1.70912e-07
-3.21843e-07
-8.37609e-08
-1.65704e-07
-3.25164e-07
-9.65217e-08
-1.49934e-07
-3.26681e-07
-1.0951e-07
-1.23857e-07
-3.26968e-07
-1.2183e-07
-8.87532e-08
-3.2656e-07
-1.32419e-07
-4.69092e-08
-3.25947e-07
-1.40234e-07
-1.4491e-09
-3.25512e-07
-1.44391e-07
4.40488e-08
-3.2546e-07
-1.44419e-07
8.60051e-08
-3.25796e-07
-1.40317e-07
1.21286e-07
-3.2632e-07
-1.32552e-07
1.47597e-07
-3.26654e-07
-1.22001e-07
1.63639e-07
-3.26316e-07
-1.09711e-07
1.69144e-07
-3.24763e-07
-9.67373e-08
1.64737e-07
-3.2143e-07
-8.39825e-08
1.51778e-07
-3.15717e-07
-7.21345e-08
1.32089e-07
-3.06878e-07
-6.16e-08
1.07815e-07
-2.93978e-07
-5.25286e-08
8.12111e-08
-2.75635e-07
-4.47743e-08
5.45575e-08
-2.49796e-07
-3.78872e-08
3.01207e-08
-2.13135e-07
-3.10059e-08
1.0477e-08
-1.59641e-07
-2.26891e-08
-7.6006e-08
-1.04733e-08
-1.03894e-08
-5.52443e-08
-1.03958e-08
-2.99946e-08
-1.17693e-07
-2.24321e-08
-5.45727e-08
-1.58161e-07
-3.05526e-08
-8.16036e-08
-1.85774e-07
-3.72171e-08
-1.08775e-07
-2.04876e-07
-4.38768e-08
-1.33727e-07
-2.17965e-07
-5.14006e-08
-1.54101e-07
-2.26656e-07
-6.0234e-08
-1.67659e-07
-2.32059e-07
-7.05e-08
-1.72515e-07
-2.34947e-07
-8.20399e-08
-1.67286e-07
-2.35953e-07
-9.44399e-08
-1.51339e-07
-2.35609e-07
-1.07019e-07
-1.24966e-07
-2.34443e-07
-1.18897e-07
-8.9494e-08
-2.32973e-07
-1.29059e-07
-4.72434e-08
-2.31663e-07
-1.36534e-07
-1.36126e-09
-2.30885e-07
-1.40509e-07
4.45563e-08
-2.30844e-07
-1.40533e-07
8.69106e-08
-2.31544e-07
-1.36606e-07
1.22551e-07
-2.32789e-07
-1.29172e-07
1.49139e-07
-2.34202e-07
-1.1904e-07
1.65334e-07
-2.35323e-07
-1.0719e-07
1.70841e-07
-2.35638e-07
-9.46317e-08
1.66277e-07
-2.34627e-07
-8.22393e-08
1.52999e-07
-2.31741e-07
-7.06977e-08
1.32903e-07
-2.26361e-07
-6.04213e-08
1.08199e-07
-2.17702e-07
-5.1572e-08
8.12425e-08
-2.04655e-07
-4.40233e-08
5.43879e-08
-1.85609e-07
-3.73328e-08
2.99292e-08
-1.58049e-07
-3.06278e-08
1.0387e-08
-1.17638e-07
-2.24611e-08
-5.52336e-08
-1.03855e-08
-9.69277e-09
-3.58535e-08
-9.69811e-09
-2.81682e-08
-7.83313e-08
-2.08867e-08
-5.16309e-08
-1.06353e-07
-2.83457e-08
-7.77442e-08
-1.25256e-07
-3.44047e-08
-1.0424e-07
-1.37916e-07
-4.04644e-08
-1.28736e-07
-1.46102e-07
-4.73677e-08
-1.48832e-07
-1.51017e-07
-5.55425e-08
-1.62293e-07
-1.53503e-07
-6.50958e-08
-1.67217e-07
-1.54167e-07
-7.58558e-08
-1.6226e-07
-1.53501e-07
-8.7409e-08
-1.46824e-07
-1.51944e-07
-9.91012e-08
-1.21228e-07
-1.49936e-07
-1.10103e-07
-8.67866e-08
-1.47919e-07
-1.19496e-07
-4.57757e-08
-1.46288e-07
-1.26386e-07
-1.25172e-09
-1.45369e-07
-1.30039e-07
4.33042e-08
-1.4534e-07
-1.3006e-07
8.44093e-08
-1.46201e-07
-1.26448e-07
1.19001e-07
-1.47781e-07
-1.196e-07
1.44796e-07
-1.49757e-07
-1.10239e-07
1.60461e-07
-1.51732e-07
-9.92559e-08
1.65674e-07
-1.53272e-07
-8.75783e-08
1.61011e-07
-1.53931e-07
-7.60331e-08
1.47816e-07
-1.53274e-07
-6.52726e-08
1.27971e-07
-1.50804e-07
-5.57121e-08
1.03706e-07
-1.45914e-07
-4.75235e-08
7.74116e-08
-1.37762e-07
-4.05991e-08
5.14588e-08
-1.25144e-07
-3.45122e-08
2.81092e-08
-1.06282e-07
-2.84167e-08
9.6892e-09
-7.83019e-08
-2.09157e-08
-3.58539e-08
-9.69048e-09
-8.29189e-09
-1.92644e-08
-8.29717e-09
-2.45395e-08