/*--------------------------------*- C++ -*----------------------------------*\
| =========                 |                                                 |
| \\      /  F ield         | OpenFOAM: The Open Source CFD Toolbox           |
|  \\    /   O peration     | Version:  v1912                                 |
|   \\  /    A nd           | Website:  www.openfoam.com                      |
|    \\/     M anipulation  |                                                 |
\*---------------------------------------------------------------------------*/
FoamFile
{
    version     2.0;
    format      ascii;
    class       volScalarField;
    location    "27.5/sphere";
    object      T;
}
// * * * * * * * * * * * * * * * * * * * * * * * * * * * * * * * * * * * * * //

dimensions      [0 0 0 1 0 0 0];


internalField   nonuniform List<scalar> 
1992
(
462.892
462.93
462.928
462.998
462.906
462.905
462.928
463.141
463.186
463.058
462.927
463.185
463.229
463.105
463.039
463.104
463.004
462.926
462.994
462.905
462.927
463.185
463.228
463.105
462.99
463.227
463.271
463.149
462.927
462.902
463.102
463.146
463.069
462.923
462.904
463.054
463.104
462.992
462.903
463.102
463.147
463.069
462.989
463.068
462.952
462.924
462.924
462.924
462.921
462.924
462.895
462.998
462.932
463.104
463.057
463.147
463.105
463.057
463.147
463.105
462.93
462.894
462.998
462.931
463.105
463.104
463.057
462.998
462.931
462.931
462.895
462.921
462.921
462.92
462.918
462.911
462.918
462.92
462.911
462.918
462.92
462.911
462.922
462.943
462.904
462.903
462.989
463.067
462.904
462.904
463.068
462.992
462.951
462.903
462.989
462.903
463.067
462.928
462.928
462.994
463.054
463.103
463.102
463.145
462.922
462.956
462.947
463.022
463.001
462.983
463.031
462.906
462.992
463.069
462.906
462.904
462.903
463.067
462.99
462.994
462.893
462.929
463.102
463.145
463.055
463.103
462.932
462.931
462.895
463.147
463.105
463.104
463.057
463.069
462.906
462.993
462.943
462.904
462.989
463.068
462.904
463.068
462.993
462.905
462.951
462.92
462.922
462.989
462.902
462.902
463.066
462.927
463.039
463.102
462.926
462.992
463.101
463.144
462.894
463.103
463.057
462.994
462.93
463.145
463.104
463.003
462.905
463.069
462.905
462.919
463.039
462.927
463.101
462.926
463.101
462.99
463.143
462.895
463.105
462.932
463.105
462.931
463.149
463.002
462.927
462.919
463.102
463.04
462.99
463.143
462.927
463.102
462.931
463.058
462.896
463.149
463.002
463.106
462.932
462.927
462.99
462.902
463.067
462.903
463.102
462.928
463.102
463.144
462.927
462.993
463.057
462.929
462.895
463.146
463.105
462.995
462.932
463.069
462.906
462.906
462.922
462.923
462.921
462.922
462.902
462.901
463.066
462.988
462.992
463.101
463.144
462.928
463.038
463.102
462.93
463.145
463.104
462.928
462.893
463.103
463.057
463.069
462.906
463.003
462.919
463.101
462.99
463.143
463.039
462.927
463.101
462.932
463.149
463.002
463.057
462.895
463.105
462.932
462.927
462.919
463.143
462.927
463.101
462.926
463.102
463.039
463.002
463.106
462.932
463.105
462.932
463.058
462.895
463.067
462.903
462.988
463.144
462.927
462.992
463.039
463.102
462.928
463.105
462.995
462.931
463.104
463.057
462.929
462.894
462.906
462.906
463.004
462.921
462.942
462.903
462.988
463.067
462.903
463.067
462.992
462.905
462.951
462.989
462.902
463.067
462.904
463.103
463.102
463.145
462.892
462.929
462.928
462.994
463.069
462.905
462.906
463.067
462.989
462.904
463.145
463.054
463.103
462.928
462.994
462.894
462.929
462.906
462.993
462.906
462.942
463.068
462.904
462.904
462.993
462.905
462.905
462.902
462.894
462.893
462.9
462.894
462.904
462.895
462.903
462.894
462.904
462.894
462.902
462.894
462.893
462.893
462.912
462.911
462.897
462.92
462.918
462.91
462.904
462.894
462.901
462.894
462.909
462.909
462.932
463.002
462.934
462.963
462.963
462.922
462.959
462.947
463.023
463.003
462.983
463.034
462.921
462.956
462.946
463.022
463.001
462.983
463.031
462.909
462.909
462.931
463.001
462.933
462.962
462.962
462.922
462.958
462.947
463.022
463.002
462.983
463.033
462.958
462.922
462.947
463.023
463.002
463.033
462.984
462.957
462.922
462.947
463.022
463.001
463.031
462.983
462.909
462.909
462.931
463.002
462.934
462.963
462.963
462.895
462.893
462.912
462.91
462.896
462.912
462.911
462.896
462.895
462.906
462.906
462.927
462.997
462.931
462.96
462.96
462.903
462.925
462.897
462.948
463.017
462.919
462.999
462.939
463.027
462.98
462.897
462.956
462.909
462.913
462.944
462.896
462.902
462.923
462.897
462.909
462.955
462.944
462.913
462.982
462.898
462.923
462.898
462.951
462.92
462.951
463.018
462.92
462.999
462.949
462.981
462.941
463.028
462.897
462.902
462.924
462.983
462.923
462.898
462.897
462.95
462.951
462.92
463.013
462.997
462.916
462.947
462.978
463.025
462.936
462.904
462.895
462.895
462.898
462.921
462.934
462.949
462.948
463.036
462.912
462.981
462.98
462.895
463.013
462.947
462.997
462.916
463.025
462.936
462.977
463.04
462.985
463.062
462.974
463.052
462.963
463.049
462.909
462.955
462.896
462.913
462.944
463.013
462.997
462.947
462.916
463.026
462.977
462.936
462.905
462.896
463.034
463.058
462.971
462.97
463.046
463.046
462.954
462.921
462.921
462.912
462.907
462.953
462.893
462.911
462.941
462.893
462.918
462.913
462.905
462.894
462.897
462.92
462.908
462.896
462.953
462.943
462.912
462.895
462.898
462.921
463.033
462.942
462.98
462.933
462.943
462.98
462.903
462.907
462.952
462.895
462.942
462.911
462.931
463.032
462.939
462.94
462.977
462.978
462.901
462.906
462.915
462.915
462.895
462.893
462.911
462.912
462.896
462.894
462.903
462.903
462.903
462.896
462.901
462.923
462.896
462.954
462.908
462.912
462.942
462.894
462.899
462.92
462.907
462.894
462.953
462.912
462.941
462.93
462.94
462.938
463.032
462.901
462.978
462.976
462.895
462.954
462.944
462.908
462.912
462.903
462.924
462.897
462.908
462.896
462.954
462.912
462.943
462.897
462.902
462.924
462.942
463.033
462.979
462.932
462.943
462.903
462.979
462.906
462.914
462.914
462.894
462.896
462.901
462.923
462.895
462.908
462.954
462.943
462.912
462.895
462.898
462.92
462.93
462.94
462.938
463.032
462.901
462.978
462.976
462.907
462.894
462.953
462.912
462.941
462.949
462.919
462.999
462.939
463.029
463.017
462.98
462.919
462.948
462.939
463.017
462.999
462.981
463.028
462.896
462.956
462.944
462.909
462.913
462.942
463.034
462.979
462.933
462.943
462.903
462.98
462.897
462.903
462.925
462.909
462.897
462.955
462.913
462.944
462.907
462.895
462.954
462.912
462.943
462.896
462.902
462.923
462.907
462.953
462.894
462.911
462.941
462.895
462.897
462.92
462.93
462.941
463.033
462.939
462.978
462.901
462.976
462.972
462.974
463.062
463.037
462.956
463.048
463.05
462.997
462.907
462.907
462.932
462.928
462.96
462.961
462.951
463.017
462.92
463
462.94
463.029
462.981
462.959
462.923
463.003
462.947
463.034
463.023
462.984
462.957
462.922
462.947
463.022
463.002
463.032
462.984
462.909
462.909
462.931
463.002
462.934
462.964
462.963
462.897
462.904
462.925
462.909
462.955
462.898
462.913
462.944
462.933
462.943
463.034
462.944
462.98
462.903
462.98
462.897
462.904
462.925
462.905
462.904
462.903
462.908
462.895
462.954
462.943
462.912
462.93
462.94
463.032
462.939
462.977
462.9
462.976
462.895
462.899
462.921
462.908
462.954
462.896
462.913
462.942
462.898
462.904
462.925
462.933
462.943
463.034
462.944
462.98
462.903
462.98
462.909
462.955
462.897
462.913
462.944
462.897
462.903
462.924
462.907
462.915
462.915
462.895
462.893
462.892
462.91
462.909
462.894
462.895
462.912
462.917
462.904
462.902
462.893
462.894
462.898
462.92
462.894
462.898
462.92
462.929
462.938
462.938
463.031
462.901
462.976
462.976
462.906
462.894
462.952
462.941
462.911
462.907
462.894
462.952
462.941
462.911
463.013
462.917
462.998
462.948
462.977
462.937
463.026
463.013
462.916
462.947
462.997
462.936
462.978
463.025
463.034
462.972
462.971
463.06
462.954
463.047
463.047
462.999
462.908
462.933
462.908
462.961
462.929
462.962
463.04
462.974
462.985
463.062
462.963
463.049
463.052
463.02
462.92
462.956
463.001
462.944
462.983
463.031
462.934
462.947
462.948
463.035
462.911
462.98
462.981
462.897
462.903
462.925
462.908
462.896
462.954
462.943
462.912
462.909
462.897
462.955
462.944
462.912
462.891
462.892
462.909
462.91
462.894
463.013
462.916
462.997
462.947
462.977
462.937
463.025
463.013
462.916
462.997
462.947
462.978
462.936
463.025
463.034
462.97
462.971
463.058
462.954
463.046
463.046
463.002
462.934
462.909
462.91
462.964
462.963
462.931
463.023
462.923
463.003
462.959
462.984
462.948
463.034
463.023
462.922
463.002
462.959
462.984
462.947
463.034
463.045
462.991
462.99
463.068
462.972
463.057
463.057
462.904
462.895
462.904
462.894
462.921
462.921
462.912
462.892
462.91
462.91
462.896
462.89
462.984
462.898
462.923
462.898
462.951
462.92
462.952
463.034
462.971
463.058
462.971
463.046
462.954
463.046
463.013
462.916
462.947
462.998
462.936
462.978
463.026
463.023
463.003
462.922
462.959
462.984
463.034
462.948
463.002
462.91
462.934
462.91
462.963
462.932
462.963
463.045
462.991
463.068
462.991
463.057
462.972
463.057
463.023
462.922
462.959
463.003
462.947
462.984
463.034
462.921
462.921
462.912
462.904
462.895
462.93
462.939
462.939
463.032
462.901
462.976
462.977
462.895
462.899
462.921
462.907
462.894
462.953
462.942
462.912
462.907
462.895
462.953
462.941
462.912
462.983
462.924
462.898
462.898
462.952
462.952
462.92
463.014
462.999
462.918
462.949
462.979
463.027
462.938
463.014
462.917
462.998
462.947
462.978
462.937
463.026
463.035
462.974
463.06
462.972
463.048
462.956
463.047
463.019
463
462.92
462.95
462.982
463.029
462.942
463
462.933
462.908
462.909
462.962
462.962
462.929
463.04
462.975
463.062
462.986
463.05
462.964
463.053
463.021
462.922
463.002
462.958
462.983
462.945
463.032
462.898
462.903
462.925
462.897
462.903
462.925
462.909
462.898
462.955
462.944
462.913
462.909
462.896
462.956
462.944
462.913
462.895
462.893
462.912
462.911
462.897
462.913
462.919
462.905
462.903
462.894
462.892
462.91
462.911
462.897
462.893
462.917
462.912
462.904
462.902
462.893
462.893
462.906
462.952
462.893
462.91
462.94
462.906
462.952
462.892
462.911
462.94
462.895
462.898
462.92
462.894
462.898
462.92
462.929
463.031
462.938
462.938
462.975
462.975
462.9
463.034
462.971
463.06
462.972
463.047
462.955
463.048
462.983
462.897
462.897
462.923
462.919
462.951
462.951
463.013
462.948
462.917
462.998
462.937
463.027
462.978
463.02
462.956
463.001
462.92
463.031
462.943
462.982
463.018
462.949
462.92
462.999
462.94
463.028
462.981
462.999
462.907
462.907
462.933
462.928
462.962
462.961
462.909
462.955
462.897
462.913
462.944
462.897
462.902
462.924
462.933
463.035
462.948
462.947
462.98
462.98
462.911
462.897
462.902
462.924
462.892
462.91
462.91
462.895
462.892
463.034
462.971
463.058
462.97
463.046
462.954
463.046
462.983
462.897
462.923
462.898
462.951
462.92
462.952
463.013
462.946
462.917
462.997
462.937
463.025
462.978
463.023
463.002
462.959
462.923
463.034
462.984
462.948
463.045
462.991
463.068
462.991
463.057
462.973
463.057
463.002
462.91
462.933
462.909
462.963
462.932
462.963
463.023
462.959
462.922
463.003
462.948
463.034
462.984
462.921
462.921
462.912
462.904
462.895
462.91
462.909
462.895
462.891
462.892
463.013
462.947
462.997
462.917
463.026
462.936
462.978
463.013
462.947
462.997
462.917
463.025
462.936
462.979
462.983
462.897
462.899
462.924
462.919
462.951
462.952
463.046
463.068
462.991
462.991
463.057
463.057
462.972
463.024
462.959
463.003
462.923
463.034
462.948
462.984
463.023
462.959
463.003
462.923
463.034
462.948
462.984
463.003
462.91
462.91
462.935
462.932
462.964
462.963
462.905
462.896
462.904
462.896
462.907
462.953
462.895
462.911
462.942
462.895
462.898
462.92
462.93
463.032
462.938
462.939
462.976
462.976
462.901
462.895
462.899
462.921
463.014
462.998
462.947
462.917
463.026
462.979
462.937
463.035
463.06
462.972
462.973
463.047
463.048
462.955
462.984
462.899
462.924
462.898
462.952
462.921
462.951
463.014
462.949
462.999
462.917
463.027
462.937
462.978
463.04
463.062
462.986
462.974
463.053
463.05
462.963
463.021
463.002
462.957
462.921
463.032
462.983
462.945
463.019
462.95
462.999
462.92
463.028
462.941
462.981
463
462.909
462.933
462.908
462.962
462.93
462.962
462.909
462.955
462.897
462.913
462.944
462.909
462.955
462.897
462.913
462.944
462.934
463.036
462.948
462.948
462.981
462.98
462.912
462.898
462.903
462.925
462.897
462.902
462.925
462.911
462.912
462.897
462.894
462.903
462.893
462.895
462.901
462.903
462.904
462.907
462.894
462.953
462.941
462.912
462.93
462.938
463.032
462.94
462.975
462.9
462.977
462.896
462.901
462.923
462.954
462.894
462.908
462.912
462.942
462.897
462.902
462.924
463.033
462.942
462.979
462.932
462.943
462.98
462.903
462.897
462.954
462.943
462.908
462.912
462.902
462.924
462.896
462.905
462.914
462.915
462.894
462.93
462.939
463.032
462.94
462.976
462.901
462.977
462.907
462.894
462.952
462.941
462.911
462.895
462.901
462.923
462.896
462.907
462.953
462.942
462.911
462.907
462.906
462.927
462.997
462.931
462.959
462.96
462.95
463
462.919
463.029
462.939
463.017
462.98
462.919
462.949
462.939
463.016
462.998
462.98
463.027
462.896
462.902
462.925
462.908
462.897
462.955
462.944
462.913
462.903
462.925
462.897
462.897
462.955
462.944
462.909
462.913
462.895
462.899
462.921
462.93
463.032
462.939
462.94
462.976
462.977
462.901
462.895
462.907
462.953
462.911
462.942
462.895
462.901
462.923
462.948
462.919
462.939
463.016
462.998
463.027
462.98
462.907
462.907
462.927
462.997
462.932
462.96
462.96
462.95
463
462.919
463.029
462.939
463.017
462.98
462.909
462.956
462.897
462.945
462.913
463.034
462.942
462.979
462.933
462.944
462.98
462.904
462.898
462.904
462.925
462.897
462.955
462.944
462.909
462.913
462.903
462.925
462.897
462.903
462.902
462.904
462.896
462.899
462.921
462.908
462.954
462.894
462.941
462.912
462.896
462.902
462.923
462.954
462.896
462.908
462.943
462.912
463.033
462.942
462.98
462.933
462.944
462.98
462.904
462.909
462.954
462.897
462.943
462.913
462.898
462.903
462.925
462.897
462.954
462.944
462.909
462.913
462.903
462.925
462.898
462.989
462.986
463.065
462.971
463.055
463.044
463.053
463.185
463.185
463.228
463.185
463.228
463.227
463.27
463.143
463.229
463.187
463.228
463.187
463.27
463.229
463.228
463.142
463.186
463.227
463.27
463.185
463.228
463.187
463.186
463.143
463.271
463.23
463.229
463.187
463.053
463.073
462.981
463.073
463.021
463.103
463.021
463.227
463.227
463.27
463.141
463.185
463.185
463.228
463.187
463.27
463.229
463.186
463.143
463.229
463.187
463.27
463.185
463.228
463.185
463.228
463.142
463.186
463.23
463.229
463.187
463.229
463.187
463.187
463.143
462.955
463.02
463.019
463.059
462.961
463.01
463.009
463.058
463.019
463.009
462.954
463.02
463.009
462.961
463.057
463.019
463.008
462.954
463.019
463.008
462.961
462.986
462.989
462.971
463.044
463.065
463.053
463.055
462.986
462.989
462.971
463.044
463.064
463.053
463.055
462.989
462.987
462.971
463.044
463.064
463.055
463.053
463.018
462.953
463.017
463.056
462.96
463.007
463.006
463.018
463.057
463.008
462.954
463.018
462.96
463.008
462.953
463.018
463.056
463.017
463.007
462.96
463.006
462.974
462.973
463.062
462.957
463.05
463.037
463.049
463.02
463.058
463.009
462.954
463.02
462.962
463.009
462.953
463.018
463.017
463.056
462.96
463.007
463.006
463.02
462.955
463.02
463.058
462.962
463.009
463.009
462.953
463.019
463.056
463.018
463.007
462.961
463.007
462.955
463.019
463.057
463.019
463.009
462.961
463.008
462.952
463.055
463.017
463.017
463.006
463.006
462.959
463.052
462.981
463.073
463.072
463.021
463.021
463.102
462.954
463.058
463.019
463.019
463.009
463.009
462.961
463.052
462.981
463.073
463.072
463.021
463.021
463.102
463.053
463.073
462.982
463.073
463.022
463.103
463.022
462.953
463.056
463.018
463.017
463.007
463.007
462.96
462.954
463.058
463.02
463.019
463.009
463.009
462.961
462.951
463.016
463.016
463.055
462.958
463.005
463.005
463.052
463.072
462.98
463.072
463.021
463.102
463.021
462.954
463.019
463.019
463.058
462.961
463.009
463.009
463.052
463.072
462.981
463.073
463.021
463.102
463.021
463.052
463.073
463.073
462.982
463.102
463.021
463.021
462.952
463.017
463.017
463.055
462.96
463.006
463.006
463.053
463.073
463.073
462.981
463.103
463.022
463.022
463.018
462.953
463.018
463.055
463.006
462.96
463.007
463.057
463.018
463.008
462.953
463.018
463.008
462.96
462.952
463.056
463.017
463.017
463.006
463.007
462.959
462.975
463.062
462.973
463.05
462.956
463.037
463.048
463.058
463.019
463.009
462.955
463.02
463.009
462.962
462.952
463.017
463.056
463.017
463.006
462.959
463.007
462.975
463.061
462.972
463.05
462.956
463.036
463.048
463.018
462.953
463.056
463.018
463.007
463.007
462.961
)
;

boundaryField
{
    sphere_to_oil
    {
        type            compressible::turbulentTemperatureCoupledBaffleMixed;
        refValue        nonuniform List<scalar> 
1536
(
342.982
343.998
344.114
345.985
346.071
344.117
344.991
344.607
344.759
345.716
346.63
345.572
344.632
345.569
346.871
345.083
344.11
344.058
345.132
344.681
344.263
344.734
344.667
345.095
344.99
345.044
344.991
345.225
344.136
342.254
344.111
345.84
345.645
342.587
344.634
343.857
345.678
345.287
346.267
342.65
344.078
344.054
345.07
345.008
345.215
345.119
345.156
345.434
345.233
345.41
345.004
345.276
345.449
345.12
344.957
344.72
344.49
344.462
344.603
344.21
344.363
344.914
344.642
344.414
343.967
344.691
346.036
345.901
346.78
344.204
345.074
344.474
344.748
344.716
344.709
344.238
345.114
344.082
342.527
343.833
346.464
345.984
346.769
342.805
344.239
343.508
344.67
344.829
344.32
344.401
344.484
344.817
344.775
344.837
344.963
344.867
344.233
344.751
344.495
344.73
345.774
346.246
343.498
343.926
343.291
345.2
344.579
344.338
344.435
344.125
345.126
347.139
346.15
343.191
343.574
343.928
346.068
345.704
345.04
345.042
347.014
345.36
344.229
343.411
344.032
345.432
345.081
344.182
344.097
344.358
344.524
346.015
346.044
345.999
343.88
344.204
343.21
346.282
344.915
344.492
344.49
344.755
345.173
345.191
344.988
344.892
344.448
344.473
343.894
344.282
346.309
345.195
346.216
342.982
344.242
343.854
344.489
344.265
345.142
346.193
345.671
344.01
342.957
344.473
345.775
345.066
344.977
346.945
345.935
345.951
345.957
342.949
344.04
344.647
344.784
344.66
345.751
346.165
346.062
346.369
343.694
343.104
343.98
344.63
344.711
344.421
344.66
345.236
344.051
344.315
343.861
344.475
344.654
345.23
344.39
344.343
344.398
344.864
343.126
344.172
343.73
346.502
346.078
344.443
344.237
344.98
344.922
344.162
344.658
346.886
342.796
343.949
344.107
346.441
344.43
345.318
344.903
344.107
344.738
344.41
344.382
344.782
344.805
344.901
344.593
344.803
344.944
344.541
343.453
343.938
343.749
345.008
344.97
342.948
343.748
344.278
344.063
344.409
344.112
345.025
344.674
343.526
343.791
344.429
344.137
344.62
344.626
343.605
344.393
344.179
345.058
343.691
343.687
344.619
345.38
344.174
343.379
343.919
344.468
342.852
342.783
343.951
343.27
344.043
343.633
345.602
345.425
345.395
347.088
343.831
345.168
345.185
345.167
345.384
344.229
342.805
345.139
343.812
345.694
343.931
343.595
344.87
343.512
345.257
345.167
344.885
345.187
347.031
346.567
346.091
344.997
345.345
345.193
344.39
347.133
346.984
346.315
346.291
345.157
344.719
345.254
344.62
347.013
344.677
343.267
345.514
343.517
345.827
343.205
345.223
345.413
343.621
345.739
343.79
345.45
345.349
343.615
343.978
344.545
344.945
343.208
343.979
344.604
345.216
344.526
345.644
345.51
345.271
344.043
345.498
346.688
344.237
344.21
343.776
345.707
347.137
343.818
343.662
345.052
345.071
344.732
345.584
344.964
344.038
343.838
344.313
344.971
344.527
345.185
346.613
343.754
343.917
344.675
345.342
345.033
344.975
345.074
344.155
344.916
344.248
346.517
344.269
343.34
345.653
345.518
345.497
347.112
344.066
344.262
344.49
344.812
344.655
344.613
346.609
346.174
344.632
343.739
344.253
344.828
344.999
344.097
345.836
345.208
347.074
344.05
344.781
343.705
343.394
344.236
343.826
343.902
344.138
344.709
344.364
343.983
346.949
345.759
345.604
343.41
345.508
343.642
345.221
346.945
346.224
344.264
344.821
343.18
342.763
345.607
344.538
346.049
347.211
344.742
344.485
343.845
344.329
343.962
345.147
345.115
345.384
346.232
345.19
343.759
343.164
344.871
345.577
345.12
343.85
343.552
343.973
345.032
345.761
344.682
344.919
343.301
343.628
344.293
344.716
344.188
343.788
346.651
345.345
344.976
343.707
344.133
344.041
344.774
344.685
344.064
343.468
344.331
344.576
344.395
343.569
347.609
345.085
345.15
345.082
345.254
345.182
343.761
343.383
345.789
344.996
344.943
345.011
344.981
345.319
344.701
344.806
345.427
346.22
345.223
345.717
345.312
343.553
343.2
343.584
343.51
343.621
342.96
345.514
345.44
344.719
343.951
344.783
344.695
342.935
343.215
344.889
345.152
344.75
345.239
345.23
344.201
345.452
345.08
344.329
344.26
343.972
344.136
344.733
344.515
344.962
346.323
343.77
344.543
344.095
344.835
345.159
344.874
344.759
343.733
343.66
344.038
344.784
344.448
344.115
346.716
345.241
345.275
343.31
343.299
343.295
344.947
345.12
345.132
345.43
344.736
343.472
343.335
344.287
344.51
345.689
344.821
345.304
344.73
345.103
344.958
346.203
344.243
344.367
344.171
344.852
345.304
343.593
343.784
343.801
344.533
345.089
343.88
343.537
344.384
344.644
344.515
344.766
346.872
344.662
344.755
345.53
346.053
344.492
344.248
345.717
345.53
345.643
345.459
343.106
343.058
343.012
343.876
343.539
344.437
345.051
344.568
344.59
347.02
343.24
345.279
343.783
344.993
345.661
344.913
345.758
343.215
343.997
344.592
344.447
344.78
344.583
346.535
345.04
345.342
345.01
344.999
345.727
343.417
343.576
344.052
344.767
345.952
345.324
347.464
345.347
347.573
344.06
343.503
343.924
345.347
344.573
345.771
344.846
345.094
344.989
345.123
344.202
343.86
344.803
344.906
344.978
345.04
346.246
345.049
345.525
344.86
343.451
343.828
344.658
345.111
344.748
345.691
343.509
343.797
343.964
344.78
345.922
344.12
343.463
344.607
345.052
344.217
345.914
346.514
345.192
345.718
343.403
344.332
342.989
344.556
345.347
344.077
343.323
344.459
344.46
345.021
343.951
346.529
345.214
345.09
345.505
345.104
345.017
345.017
344.882
345.732
345.984
347.441
346.448
346.794
345.095
345.298
345.148
344.42
346.851
343.89
344.266
344.425
344.72
344.731
345.473
346.988
345.104
345.445
343.801
343.908
343.839
345.056
345
345.076
344.634
345.213
344.373
344.189
343.92
344.808
344.57
344.937
346.473
345.906
345.38
344.642
344.412
345.545
345.964
345.184
345.375
344.635
345.87
344.966
344.571
343.355
343.391
345.272
344.992
345.153
343.639
345.043
343.929
343.92
344.301
344.556
343.956
344.868
346.519
345.231
345.61
344.488
344.095
343.59
344.967
345.144
344.321
344.56
344.057
344.9
345.357
344.79
346.779
345.627
344.683
344.442
344.864
346.039
344.381
343.875
343.622
344.793
345.288
343.971
344.19
344.257
344.988
344.557
344.901
346.621
344.946
345.501
344.719
345.379
345.727
345.285
345.975
343.793
343.162
343.322
343.367
343.591
342.955
344.324
345.464
343.033
345.255
345.048
343.926
343.836
343.735
343.809
343.996
345.526
345.287
344.804
345.134
344.496
344.393
344.856
343.027
343.277
343.476
343.235
343.464
344.396
344.476
343.902
344.306
347.581
343.43
343.735
344.474
344.716
344.194
344.112
346.856
345.08
345.134
345.167
344.997
345.204
343.12
344.878
343.811
344.654
345.026
344.995
345.673
343.383
344.346
343.543
344.819
345.143
345.744
346.806
345.802
346.832
345.813
344.526
345.013
344.966
345.546
345.99
345.095
345.989
344.197
344.065
343.878
345.433
344.056
344.964
346.888
345.389
344.761
344.375
343.516
343.845
344.613
344.714
344.467
345.766
344.318
343.822
343.818
344.84
345.184
344.97
343.67
342.871
343.705
344.569
343.506
345.53
345.398
344.112
345.415
343.903
345.57
347.221
345.367
347.136
344.871
345.324
345.291
344.574
346.569
346.757
346.305
345.331
344.557
343.536
343.295
344.857
344.592
344.958
343.622
343.72
343.493
345.091
345.265
345.32
344.194
343.09
345.524
345.636
345.786
345.333
344.23
344.988
343.695
345.936
342.79
345.545
343.803
344.354
346.683
345.431
345.117
343.703
345.327
345.761
346.876
346.327
345.087
345.308
345.231
344.715
346.633
346.246
345.148
345.176
345.461
344.126
344.789
344.132
343.801
343.25
344.549
345.317
345.077
343.842
343.955
344.252
344.605
344.457
344.581
346.773
345.939
345.098
344.109
343.42
344.026
345.515
345.482
345.156
345.337
344.005
344.095
343.444
344.991
345.201
346.496
344.647
344.142
344.346
344.491
343.988
344.659
345.515
345.307
346.764
345.576
346.644
345.72
346.89
345.26
344.721
345.031
345.231
345.755
346.615
344.28
344.098
344.419
345.205
344.448
344.764
346.739
343.42
344.226
344.321
345.322
345.239
344.603
346.67
345.398
345.068
343.756
343.844
344.229
344.948
344.931
346.388
344.513
343.794
344.081
343.36
345.779
344.479
343.765
345.213
343.342
343.911
344.749
343.495
345.315
345.017
345.994
344.951
344.185
345.449
344.988
346.464
344.692
345.106
344.502
343.508
342.927
344.086
343.652
343.311
345.501
345.085
345.228
346.911
343.819
344.873
343.942
342.621
345.684
344.926
345.486
344.669
344.596
344.115
344.373
342.894
343.601
343.733
342.967
343.297
345.883
345.23
345.637
343.745
343.362
343.247
344.69
344.981
344.634
346.075
342.458
343.438
343.737
344.756
345.615
343.973
343.791
344.272
344.514
344.597
344.519
346.402
343.41
344.512
344.204
344.881
344.581
343.865
347.071
345.408
345.188
344.419
344.092
344.037
344.396
344.886
345.134
343.677
346.385
345.15
345.322
347.096
346.399
345.548
346.537
345.174
344.624
344.636
344.708
345.658
345.094
345.508
343.997
344.735
343.901
345.066
345.054
344.089
344.135
344.204
345.44
344.088
344.466
346.391
345.706
345.659
343.768
343.773
344.202
345.261
344.683
344.417
346.843
344.245
342.984
345.885
345.345
345.547
344.018
344.395
344.548
343.825
345.308
342.964
344.206
344.832
343.628
347.505
344.554
345.911
343.785
345.361
345.573
346.947
346.248
345.125
344.977
344.885
344.687
346.753
346.563
345.12
345.138
345.264
344.43
344.593
344.148
343.539
344.088
345.456
345.265
344.006
344.531
345.279
343.647
343.408
345.666
343.791
343.057
345.102
345.921
347.162
345.659
347.312
343.437
344.108
344.601
344.025
344.021
347.12
346.663
345.551
346.601
346.772
345.231
344.08
345.072
345.255
346.66
344.577
344.626
343.878
344.15
344.068
344.872
344.607
343.646
344.544
342.503
344.659
345.328
343.836
344.332
344.044
344.685
345.374
343.729
343.817
344.084
344.601
344.386
344.731
347.003
345.664
344.938
344.726
344.03
344.873
344.412
344.539
344.521
344.423
346.782
345.308
347.271
344.313
345.87
343.939
346.453
345.085
344.225
344.098
345.589
345.356
347.14
346.207
345.957
347.742
345.169
345.042
344.839
344.742
345.948
345.579
344.93
344.009
343.681
343.822
345.155
344.952
345.809
344.77
343.796
343.99
344.308
345.288
344.67
345.897
345.337
344.241
344.477
344.715
345.277
345.146
344.155
346.374
344.141
343.465
344.143
345.269
344.541
345.06
346.785
345.278
345.597
344.78
344.248
345.226
343.861
344.871
342.927
344.676
344.555
343.004
343.242
343.221
344.44
345.369
342.842
344.65
345.114
344.744
344.244
345.468
345.409
344.997
345.606
344.825
345.754
345.005
344.499
343.316
343.801
345.404
344.87
344.988
344.255
345.669
343.346
344.138
344.293
344.841
345.127
344.703
346.71
344.135
343.455
342.353
344.847
346.13
344.847
345.637
344.106
344.401
344.226
344.435
344.691
345.597
346.283
345.173
344.709
345.233
344.34
344.099
343.749
344.637
345.343
344.66
345.22
344.809
344.202
344.591
346.354
344.091
344.147
344.228
344.879
344.794
345.082
345.422
345.75
345.912
345.449
343.177
343.44
343.501
345.34
344.748
345.099
345.665
345.083
344.805
343.246
343.827
345.479
344.871
343.496
343.957
344.366
345.106
344.75
344.518
346.86
344.348
344.378
343.325
344.936
345.481
344.932
345.256
344.866
344.949
344.558
344.962
344.971
346.077
348.042
345.522
347.758
344.182
343.747
343.657
344.93
344.396
344.548
347.255
345.31
344.912
344.906
344.364
343.61
344.96
345.545
345.148
345.149
344.809
346.642
344.539
343.825
344.365
343.505
344.408
343.514
345.54
345.253
345.06
345.38
343.305
343.812
344.593
344.541
344.701
343.879
348.063
345.193
345.262
345.13
343.878
344.427
343.45
344.781
345.433
344.711
345.265
344.045
343.892
344.518
345.132
344.436
344.094
346.746
346.064
347.766
344.631
345.43
344.968
345.425
345.146
345.501
347.281
345.996
344.651
343.397
344.405
343.32
345.357
344.781
345.08
345.208
344.742
344.339
344.057
344.554
344.953
345.293
344.789
346.038
343.789
343.917
345.581
345.276
344.778
344.887
345.126
345.036
344.468
344.55
346.949
343.695
344.29
343.971
345.882
345.096
344.712
344.455
344.752
344.927
345.061
345.074
345.522
344.183
344.471
344.488
344.652
344.858
344.353
346.121
345.752
344.99
343.318
343.377
343.355
344.964
345.265
343.846
344.344
344.189
345.28
344.913
345.102
346.472
343.096
343.662
343.72
345.458
344.873
344.805
345.008
344.561
345.072
345.814
345.569
345.007
344.006
343.749
343.014
344.801
345.177
344.115
344.169
344.399
345.204
344.86
344.44
346.424
343.866
343.694
344.515
345.425
344.984
344.899
345.077
344.974
345.062
344.292
346.679
344.205
344.152
344.129
)
;
        refGradient     uniform 0;
        valueFraction   nonuniform List<scalar> 
1536
(
0.000139749
0.000158679
0.000168433
0.000417787
0.000399351
0.000226752
0.000247059
0.000216987
0.000232339
0.000401866
0.000396577
0.000399228
0.000223765
0.000237103
0.000398953
0.000377012
0.000231794
0.000256034
0.000351383
0.000211235
0.000226025
0.000210848
0.00022298
0.000366798
0.000367546
0.000366952
0.000348319
0.000367375
0.000186784
0.000160427
0.000170743
0.000431005
0.00042313
0.000147017
0.000161087
0.000164676
0.000422639
0.000421535
0.000420731
0.00014807
0.00016014
0.00016457
0.000349144
0.000348816
0.000331469
0.00032715
0.000265862
0.000321183
0.000333582
0.000261657
0.000324752
0.000332032
0.000261174
0.00034988
0.000208551
0.000218593
0.000215209
0.000231236
0.000221053
0.000241195
0.000215968
0.000227203
0.00023004
0.000261292
0.000224295
0.00025144
0.000404162
0.000402631
0.000334791
0.0002265
0.000244759
0.000217914
0.000231238
0.000226134
0.00025635
0.000216621
0.000228281
0.000160238
0.000144263
0.000168267
0.000407153
0.000427214
0.000420223
0.000147341
0.000164488