/*--------------------------------*- C++ -*----------------------------------*\
| =========                 |                                                 |
| \\      /  F ield         | OpenFOAM: The Open Source CFD Toolbox           |
|  \\    /   O peration     | Version:  v1906                                 |
|   \\  /    A nd           | Web:      www.OpenFOAM.com                      |
|    \\/     M anipulation  |                                                 |
\*---------------------------------------------------------------------------*/
FoamFile
{
    version     2.0;
    format      ascii;
    class       volScalarField;
    location    "70";
    object      omega;
}
// * * * * * * * * * * * * * * * * * * * * * * * * * * * * * * * * * * * * * //

dimensions      [0 0 -1 0 0 0 0];


internalField   nonuniform List<scalar> 
78750
(
1473.52
195.141
120.728
28.2856
25.6478
27.5434
26.9613
27.1422
27.4255
27.4117
27.5271
27.5896
27.6571
27.7207
27.7835
27.8471
27.9122
27.9797
28.0497
28.1224
28.1972
28.2735
28.3502
28.4262
28.4997
28.5687
28.6305
28.6824
28.7211
28.7394
28.7103
28.5719
28.2089
27.31
478.428
458.258
14.3652
9.65822
9.38
11.0994
12.0849
12.6498
13.1389
13.5052
13.8479
14.1545
14.4376
14.702
14.9531
15.195
15.4308
15.6625
15.8909
16.1154
16.335
16.5462
16.7451
16.9281
17.0929
17.2381
17.3636
17.4697
17.5563
17.621
17.6541
17.6258
17.466
17.0107
15.8168
700.511
417.221
13.1049
14.4688
14.3112
13.9515
13.5048
13.0919
12.7535
12.5041
12.3251
12.2137
12.1667
12.1808
12.2514
12.3745
12.5477
12.769
13.0388
13.3568
13.7226
14.1332
14.5835
15.069
15.5854
16.1295
16.6955
17.2637
17.7843
18.1832
18.4092
18.4774
18.3817
17.9216
16.501
701.909
419.758
11.7339
13.1506
13.8978
14.3167
14.5834
14.7288
14.7625
14.7067
14.5888
14.4318
14.2536
14.0667
13.8795
13.6969
13.5233
13.3613
13.2144
13.0867
12.9833
12.9103
12.8722
12.8753
12.9273
13.0391
13.2249
13.5063
13.9056
14.4879
15.4979
16.8913
17.9646
18.2602
17.525
706.075
424.684
13.9395
14.4615
14.5119
14.4002
14.1817
13.933
13.7282
13.5859
13.4916
13.432
13.4024
13.4018
13.4279
13.4751
13.5361
13.6046
13.6738
13.7339
13.7721
13.7751
13.7319
13.638
13.4928
13.3023
13.0791
12.8681
12.897
13.2569
14.0864
15.8587
17.3928
17.85
17.5107
709.024
423.28
13.5287
14.6108
15.1343
15.4554
15.6513
15.7139
15.6207
15.3669
14.9641
14.4297
13.7885
13.09
12.4281
11.9211
11.64
11.596
11.7814
12.159
12.6278
13.056
13.3785
13.5964
13.7067
13.6814
13.4879
13.0987
12.5463
12.2504
12.7234
14.1369
16.0261
16.9295
16.9147
709.357
422.003
13.6305
15.0963
15.7189
16.0631
16.2994
16.4794
16.6161
16.7003
16.7042
16.5857
16.2938
15.7739
14.9853
13.9563
12.8431
11.9015
11.3014
11.1383
11.6077
12.609
13.5607
14.1765
14.534
14.7187
14.7225
14.4878
13.9828
13.3245
12.9817
13.3825
14.4354
15.4916
15.8388
707.812
424.728
14.2453
15.3113
15.6956
15.8612
15.9225
15.9069
15.8313
15.7309
15.6507
15.6054
15.5603
15.4464
15.1599
14.5701
13.6145
12.4254
11.0028
9.10806
5.76884
5.17522
9.0234
12.0201
13.6617
14.419
14.7617
14.8439
14.6022
14.0182
13.3307
12.9545
13.0266
13.3366
13.9312
707.849
428.445
15.5364
16.3869
16.6435
16.7288
16.7213
16.6215
16.4284
16.1664
15.8778
15.5994
15.3326
15.0378
14.6484
14.0797
13.2722
12.2645
11.2193
10.3151
9.76328
9.92516
11.0846
12.729
14.2598
15.4081
16.1279
16.4518
16.4491
16.0697
15.2403
14.1336
13.0575
12.4848
13.5744
710.383
430.898
15.5034
16.0909
16.2777
16.3197
16.2497
16.0529
15.7757
15.5006
15.2723
15.1085
15.0085
14.9482
14.8915
14.7918
14.5658
14.094
13.3216
12.3568
11.368
10.4595
9.63303
8.6156
7.04712
4.63778
6.9233
10.9855
13.7125
15.063
15.4626
15.0857
13.9882
13.2486
14.3736
711.642
437.479
16.9965
17.1314
17.0758
16.9171
16.5997
16.1014
15.5388
15.0238
14.5648
14.1468
13.7615
13.3981
13.0498
12.7201
12.4186
12.1489
11.8965
11.645
11.3903
11.1214
10.8447
10.5976
10.4369
10.2481
9.34078
9.05785
11.0895
13.3976
14.8005
15.2336
14.7862
14.5702
15.7168
713.866
437.376
16.273
16.3943
16.4033
16.2979
16.0143
15.5367
14.9693
14.4399
13.9999
13.6416
13.3312
13.0291
12.7058
12.3579
12.0132
11.7254
11.5673
11.6397
11.9696
12.3211
12.5518
12.7043
12.8633
13.0268
13.2281
13.6678
14.4022
15.1394
15.5991
15.5815
15.0756
15.2675
16.601
715.869
435.477
16.7123
17.1876
17.3519
17.3786
17.2582
16.9337
16.3654
15.5968
14.7396
13.9102
13.2084
12.6644
12.2065
11.7776
11.4054
11.1908
11.2639
12.0803
13.9818
15.6836
16.4142
16.5191
16.3944
16.2493
16.2798
16.5842
16.9943
17.2622
17.2539
16.8783
16.3206
16.5466
17.6782
717.458
433.053
16.1001
16.7501
17.0421
17.208
17.2903
17.275
17.1003
16.6887
16.0544
15.3198
14.6034
13.9403
13.286
12.525
11.5316
10.4811
10.0393
10.6629
12.5904
14.8569
16.4166
17.0897
17.2679
17.2435
17.1742
17.2315
17.5337
17.9611
18.231
18.1806
17.9798
18.1296
18.7865
718.121
434.772
16.7718
17.356
17.5734
17.6567
17.6313
17.4784
17.1786
16.6945
15.947
14.9416
13.9247
13.2
12.7783
12.4867
12.1822
11.7299
11.0468
10.4724
10.5812
11.963
14.2143
16.146
17.469
18.1805
18.3983
18.3187
18.1433
18.0907
18.2595
18.4923
18.6517
18.8414
19.1966
717.117
432.952
16.1802
16.9631
17.289
17.4506
17.521
17.5132
17.4387
17.2999
17.007
16.3795
15.3956
14.3752
13.6096
13.1004
12.708
12.312
11.8248
11.1674
10.3626
9.7809
9.88006
11.2001
13.323
15.3847
17.0848
18.2465
18.7546
18.7335
18.4918
18.3315
18.3314
18.3983
18.507
713.941
438.752
17.4027
17.6406
17.6668
17.5879
17.3696
16.9518
16.3522
15.7176
15.1616
14.6123
13.9479
13.2832
12.8908
12.708
12.5683
12.4121
12.2181
11.9618
11.6073
11.1331
10.5988
10.1779
10.1722
11.0501
12.776
14.7825
16.6469
18.0639
18.7358
18.7142
18.4626
18.2248
17.9728
711.612
437.56
16.878
17.2859
17.4449
17.4859
17.407
17.1771
16.8063
16.36
15.8929
15.3865
14.7846
14.1261
13.6067
13.3115
13.1312
12.9785
12.8165
12.6331
12.4232
12.1812
11.8898
11.529
11.1024
10.6447
10.3228
10.5485
11.6465
13.4601
15.504
17.1601
17.7856
17.7725
17.5782
710.973
440.527
17.417
17.5067
17.4723
17.3239
16.9792
16.3667
15.5773
14.838
14.3039
13.9882
13.819
13.7103
13.6118
13.5128
13.4154
13.317
13.2101
13.0877
12.9452
12.778
12.5817
12.3529
12.0841
11.7623
11.3678
10.8785
10.3716
10.2761
11.2787
13.5435
16.0041
17.0364
17.3575
711.763
437.666
16.9087
17.2498
17.3727
17.3841
17.2617
16.9618
16.504
15.9868
15.4804
15.0111
14.6129
14.3102
14.0974
13.9485
13.836
13.7405
13.6497
13.5541
13.4477
13.3261
13.1851
13.0201
12.8275
12.6035
12.3381
12.0094
11.5721
10.9789
10.3992
10.7583
13.121
15.8569
16.8424
711.877
438.161
17.176
17.4428
17.499
17.4354
17.2085
16.7455
16.0584
15.3362
14.8053
14.502
14.3383
14.2419
14.1759
14.1222
14.072
14.0194
13.9617
13.8976
13.8253
13.742
13.6445
13.5291
13.392
13.2298
13.0403
12.8108
12.5127
12.1043
11.5278
10.9002
11.2659
13.8882
15.7561
710.83
436.299
16.8757
17.3152
17.4979
17.5834
17.5784
17.4374
17.0771
16.4614
15.741
15.155
14.788
14.583
14.468
14.3973
14.3462
14.3008
14.2553
14.2072
14.1539
14.093
14.0217
13.937
13.8357
13.7149
13.5722
13.3994
13.1801
12.892
12.4971
11.9342
11.3546
12.1255
14.3545
709.213
436.933
17.1244
17.5176
17.6315
17.6306
17.5232
17.2867
16.912
16.3826
15.6992
15.0228
14.5741
14.3877
14.3429
14.3397
14.3461
14.3545
14.3594
14.3571
14.3454
14.3226
14.2869
14.2369
14.1707
14.0863
13.9821
13.8549
13.6916
13.4711
13.1691
12.7298
12.0818
11.7661
13.3622
708.052
437.861
17.1875
17.5246
17.6272
17.6244
17.5115
17.2668
16.9227
16.5218
16.033
15.4479
14.9048
14.557
14.402
14.3437
14.3203
14.3165
14.3248
14.3388
14.3527
14.362
14.3627
14.3516
14.3254
14.2815
14.2173
14.13
14.0087
13.8358
13.5907
13.228
12.6491
12.0827
13.0942
708
440.719
17.6456
17.7801
17.7621
17.6412
17.3674
16.8912
16.2807
15.6824
15.1825
14.7862
14.5027
14.3446
14.275
14.2474
14.2385
14.2441
14.2613
14.2864
14.3152
14.3436
14.3675
14.3829
14.3859
14.3725
14.3392
14.2796
14.1822
14.0313
13.8029
13.4481
12.8985
12.4466
13.3773
708.743
439.837
17.4101
17.6246
17.6634
17.5899
17.3607
16.9425
16.4085
15.8603
15.3502
14.906
14.5633
14.3437
14.2254
14.167
14.1388
14.1301
14.1385
14.1612
14.1945
14.2338
14.2743
14.3109
14.3381
14.3506
14.3421
14.3052
14.2286
14.0974
13.8858
13.5454
13.0628
12.8631
13.886
709.517
441.622
17.8558
17.953
17.9035
17.74
17.4006
16.8502
16.1977
15.5952
15.1152
14.7589
14.5029
14.3272
14.2126
14.139
14.0898
14.0586
14.0459
14.0518
14.0744
14.1103
14.1545
14.201
14.2429
14.2737
14.2873
14.2747
14.2205
14.1035
13.8887
13.5292
13.1396
13.3473
14.4893
710.128
440.536
17.591
17.7742
17.7834
17.6711
17.3834
16.887
16.287
15.7154
15.2279
14.8463
14.572
14.3838
14.2539
14.1605
14.0869
14.0282
13.9867
13.9651
13.9646
13.9834
14.0174
14.0601
14.1053
14.1515
14.1939
14.2182
14.2036
14.1227
13.9376
13.6106
13.3124
13.7989
14.9732
710.684
442.212
18.0638
18.1687
18.1181
17.9478
17.5919
17.0083
16.3261
15.7349
15.2886
14.9513
14.6954
14.5067
14.3677
14.2601
14.1675
14.0839
14.0126
13.9588
13.9273
13.9197
13.9341
13.965
14.0074
14.0648
14.1314
14.1888
14.2079
14.1523
13.9785
13.6542
13.3835
14.0624
15.3157
711.419
441.881
17.8637
17.9814
17.95
17.7935
17.4423
16.8635
16.1808
15.5682
15.1275
14.844
14.6559
14.5182
14.407
14.3097
14.2162
14.1228
14.0333
13.9548
13.8949
13.8594
13.8498
13.8628
13.8992
13.9667
14.0649
14.1765
14.2664
14.2881
14.1901
13.9165
13.6245
14.3041
15.6249
712.4
443.632
18.2732
18.3119
18.2268
18.0155
17.5962
16.9542
16.2649
15.675
15.2242
14.9145
14.7132
14.5759
14.4699
14.3765
14.2831
14.184
14.0807
13.9795
13.8891
13.8187
13.7753
13.7584
13.7719
13.8303
13.9426
14.0916
14.2342
14.3189
14.2939
14.0906
13.8433
14.5883
16.0369
713.835
443.943
18.1471
18.1537
18.0635
17.8365
17.3663
16.6387
15.9002
15.3725
15.0421
14.8305
14.6887
14.5851
14.4992
14.4183
14.3333
14.2384
14.133
14.0207
13.9084
13.8058
13.7227
13.6604
13.6244
13.6435
13.7577
13.9668
14.2121
14.4218
14.5138
14.4069
14.2719
15.0903
16.6231
715.465
444.878
18.3563
18.3395
18.2376
18.0025
17.5248
16.7651
15.9338
15.3104
14.9548
14.7689
14.6617
14.586
14.5201
14.4544
14.3841
14.303
14.2084
14.1014
13.9864
13.8699
13.7608
13.66
13.5674
13.5061
13.5337
13.6959
13.9719
14.3069
14.5885
14.676
14.7564
15.6334
17.1692
716.76
444.308
18.2303
18.2488
18.1711
17.9606
17.5128
16.778
15.9346
15.2508
14.8358
14.6296
14.5319
14.477
14.4341
14.39
14.339
14.2762
14.1992
14.1089
14.0076
13.8996
13.7894
13.671
13.5431
13.4358
13.4127
13.5264
13.7806
14.1791
14.6674
15.0266
15.3381
16.1625
17.5566
717.328
445.25
18.4129
18.385
18.2882
18.0693
17.6207
16.8901
16.0459
15.3471
14.8949
14.6434
14.5111
14.4362
14.3839
14.3371
14.2878
14.2304
14.1613
14.0792
13.9858
13.8836
13.7711
13.6426
13.4994
13.3664
13.3032
13.3646
13.5575
13.9205
14.5383
15.2242
15.7901
16.5383
17.7391
717.495
445.271
18.3274
18.2898
18.1894
17.9627
17.4996
16.7533
15.8883
15.1825
14.7588
14.5462
14.4412
14.3814
14.3372
14.2953
14.2494
14.1956
14.1318
14.057
13.9708
13.8723
13.759
13.6277
13.4806
13.3424
13.2752
13.3319
13.4939
13.7537
14.2919
15.1623
15.9741
16.7172
17.8211
718.05
445.576
18.442
18.4052
18.3074
18.0939
17.6667
16.9777
16.1349
15.3627
14.8364
14.5518
14.4118
14.3378
14.2889
14.2463
14.2013
14.1492
14.0873
14.0143
13.9296
13.832
13.7183
13.5838
13.4292
13.2798
13.2096
13.2922
13.4981
13.7232
14.092
14.9075
15.8916
16.7458
17.9628
719.483
446.126
18.4523
18.3509
18.21
17.9476
17.4626
16.7572
15.9794
15.3011
14.8279
14.5536
14.4065
14.3228
14.2655
14.2165
14.1665
14.1107
14.0458
13.9701
13.8826
13.7812
13.6609
13.515
13.3439
13.1801
13.1126
13.241
13.545
13.8419
14.1302
14.7878
15.8307
16.8314
18.2549
720.971
446.401
18.5227
18.4207
18.2739
18.0008
17.5048
16.7964
16.017
15.3407
14.872
14.5962
14.4414
14.3472
14.2793
14.2199
14.1597
14.0941
14.0199
13.9347
13.8367
13.7222
13.5842
13.4157
13.2198
13.0375
12.9689
13.1366
13.5573
14.0125
14.3727
14.9453
15.9589
17.0071
18.4906
721.139
446.707
18.6073
18.473
18.2924
17.9804
17.4565
16.7737
16.0468
15.3976
14.925
14.6371
14.4728
14.3721
14.2991
14.2352
14.1703
14.0991
14.018
13.9247
13.8161
13.6871
13.5304
13.3395
13.1206
12.9199
12.8361
13.0067
13.5074
14.1602
14.7244
15.3196
16.2132
17.1504
18.4842
719.922
447.252
18.7131
18.5342
18.3092
17.9343
17.3408
16.6549
16.0003
15.4371
15.0123
14.7322
14.5577
14.4427
14.3567
14.2816
14.2071
14.1273
14.0377
13.9352
13.816
13.6744
13.503
13.2958
13.0607
12.8432
12.7294
12.8493
13.326
14.1046
14.9363
15.6769
16.4462
17.1986
18.3033
718.492
448.064
18.8957
18.6708
18.3999
17.9588
17.2859
16.5704
15.9429
15.4276
15.0472
14.7948
14.6318
14.519
14.4308
14.3517
14.2725
14.1872
14.0914
13.9816
13.8538
13.702
13.5189
13.2996
13.0523
12.8192
12.6762
12.7333
13.1047
13.8297
14.8052
15.7499
16.5061
17.1376
18.0775
717.481
448.721
18.9846
18.7139
18.4034
17.9002
17.15
16.4272
15.8767
15.4444
15.1114
14.8749
14.7127
14.5959
14.5027
14.4191
14.3362
14.2474
14.1483
14.0349
13.9029
13.7461
13.557
13.3302
13.0728
12.823
12.6517
12.6631
12.9466
13.5241
14.418
15.4595
16.2913
16.9183
17.8101
716.722
449.606
19.1341
18.8334
18.4998
17.9502
17.0995
16.2702
15.7226
15.367
15.1127
14.9266
14.7883
14.6798
14.5876
14.502
14.4162
14.3244
14.2223
14.106
13.971
13.8109
13.6183
13.3874
13.1228
12.8556
12.6517
12.6248
12.8688
13.3526
14.0573
14.9905
15.861
16.5473
17.4789
716.015
449.635
19.1254
18.8623
18.5697
18.069
17.2312
16.3035
15.6816
15.3287
15.1035
14.9431
14.8213
14.7224
14.6355
14.5531
14.4696
14.3797
14.2795
14.1653
14.0326
13.8757
13.687
13.4602
13.1961
12.9164
12.6739
12.5835
12.7883
13.2677
13.8837
14.6371
15.4369
16.1449
17.1265
715.449
449.536
19.1561
18.959
18.7318
18.3166
17.5477
16.5141
15.7093
15.2897
15.0769
14.9448
14.8449
14.7591
14.679
14.5997
14.5172
14.4277
14.3282
14.2157
14.0864
13.9348
13.7539
13.5369
13.2824
13.0036
12.7342
12.5677
12.6763
13.1343
13.7773
14.4551
15.161
15.8387
16.8504
715.281
448.724
19.0782
19.0048
18.8916
18.627
18.053
17.0621
15.9997
15.3315
15.0233
14.8819
14.7993
14.7343
14.6717
14.6056
14.5321
14.4489
14.354
14.2457
14.1212
13.9757
13.8028
13.5953
13.3506
13.0784
12.7979
12.5745
12.5693
12.9406
13.6206
14.3482
15.0313
15.683
16.7188
715.538
447.818
19.0178
19.0678
19.0663
18.9507
18.6096
17.8648
16.72
15.6863
15.1079
14.8627
14.7586
14.6984
14.6467
14.5912
14.5264
14.4497
14.3598
14.2559
14.1359
13.996
13.8299
13.6299
13.3925
13.1258
12.8425
12.5867
12.491
12.7418
13.3943
14.2068
14.9544
15.633
16.7209
716.048
446.79
18.8888
19.0435
19.1336
19.1395
18.9948
18.5709
17.6745
16.4298
15.4125
14.8841
14.6819
14.6093
14.5713
14.5343
14.4862
14.423
14.3433
14.2468
14.1327
13.998
13.8361
13.6385
13.4007
13.1308
12.8409
12.5662
12.4198
12.5843
13.1837
14.0534
14.8977
15.636
16.7832
716.407
446.228
18.8294
19.0321
19.1695
19.2473
19.2244
19.0306
18.5222
17.5075
16.215
15.2302
14.7432
14.563
14.4992
14.4638
14.4259
14.3747
14.3056
14.2172
14.1107
13.9842
13.8296
13.6362
13.397
13.1183
12.8137
12.5172
12.3359
12.451
13.0124
13.9058
14.8225
15.6118
16.7926
716.34
445.94
18.7345
18.9412
19.091
19.1984
19.235
19.1552
18.8897
18.2825
17.1667
15.8738
14.981
14.5803
14.4443
14.3955
14.3622
14.3211
14.2626
14.1833
14.0842
13.9671
13.8236
13.6384
13.4021
13.1168
12.7928
12.4632
12.2382
12.3136
12.8709
13.8003
14.7519
15.5498
16.7088
715.769
446.111
18.749
18.9344
19.0722
19.177
19.2294
19.1953
19.0344
18.6785
17.953
16.7489
15.5205
14.7719
14.4638
14.3565
14.3079
14.2665
14.2136
14.1422
14.0517
13.9435
13.8133
13.6468
13.4289
13.1549
12.8274
12.4699
12.1816
12.1664
12.6662
13.6268
14.6176
15.4094
16.5176
714.878
446.575
18.7415
18.8704
18.9801
19.067
19.1089
19.0727
18.9293
18.6538
18.1744
17.3154
16.1086
15.1016
14.5842
14.3836
14.3003
14.2464
14.1894
14.1185
14.0316
13.9292
13.8105
13.663
13.4696
13.2201
12.9097
12.5484
12.2101
12.0763
12.4255
13.3215
14.3331
15.1304
16.2113
713.887
447.086
18.7389
18.8076
18.8904
18.9652
19.0076
18.9821
18.8572
18.6109
18.2086
17.5573
16.5524
15.4687
14.7674
14.4529
14.3206
14.2461
14.1798
14.1052
14.0189
13.9211
13.8132
13.684
13.5159
13.2983
13.0227
12.6867
12.3317
12.0925
12.2421
12.9624
13.9337
14.7381
15.8254
712.954
447.721
18.708
18.6866
18.7217
18.7641
18.7811
18.7357
18.6024
18.3674
18.009
17.4727
16.6824
15.7248
14.9735
14.5774
14.3938
14.2908
14.2072
14.1212
14.0283
13.9292
13.8251
13.706
13.5571
13.3696
13.1348
12.8447
12.5138
12.2187
12.1823
12.6676
13.5372
14.3392
15.4475
712.147
447.89
18.5811
18.5077
18.5187
18.548
18.5599
18.5183
18.3963
18.1752
17.8347
17.3403
16.6578
15.8436
15.1396
14.7117
14.4881
14.3556
14.2525
14.1521
14.0483
13.9434
13.8372
13.7209
13.584
13.4204
13.2237
12.9843
12.7024
12.4094
12.2505
12.4941
13.2021
13.985
15.1111
711.415
447.638
18.4316
18.3235
18.3054
18.3018
18.2764
18.2061
18.0799
17.8816
17.5861
17.1602
16.5815
15.9002
15.2825
14.8605
14.6084
14.4449
14.3156
14.1947
14.0743
13.956
13.8384
13.7159
13.5837
13.4397
13.2791
13.0896
12.8623
12.6061
12.4079
12.4772
12.9904
13.7127
14.82
710.693
446.932
18.2626
18.1608
18.1355
18.1164
18.0684
17.9748
17.8369
17.6462
17.3807
17.0138
16.5311
15.9691
15.4382
15.0339
14.7588
14.5624
14.4017
14.2532
14.1081
13.9645
13.8219
13.679
13.5377
13.4042
13.2794
13.1463
12.9791
12.769
12.5782
12.5684
12.929
13.5582
14.5937
710.005
446.059
18.1582
18.0753
18.0387
17.9955
17.9161
17.7897
17.633
17.4528
17.2291
16.932
16.5426
16.081
15.6215
15.2357
14.9432
14.7178
14.5269
14.3489
14.173
13.9956
13.8158
13.6337
13.4549
13.2987
13.1893
13.1202
13.037
12.8903
12.7166
12.669
12.937
13.4786
14.4196
709.39
445.753
18.1912
18.113
18.0618
17.9989
17.8965
17.7352
17.5284
17.3093
17.0875
16.8419
16.5438
16.1875
15.8073
15.4538
15.1583
14.9148
14.702
14.5003
14.2974
14.0873
13.8672
13.6358
13.3961
13.1686
13.0041
12.9528
12.9737
12.9487
12.8368
12.7644
12.9521
13.4127
14.2585
708.816
445.8
18.2882
18.2112
18.1453
18.0629
17.9457
17.7813
17.5627
17.3074
17.0499
16.8017
16.5454
16.2628
15.957
15.6517
15.3745
15.1329
14.9156
14.7061
14.4906
14.261
14.0121
13.7404
13.4431
13.1277
12.8388
12.6815
12.7226
12.8507
12.8965
12.8744
12.9977
13.3657
14.1062
708.281
446.688
18.5409
18.4447
18.3536
18.2311
18.0568
17.8491
17.6206
17.3525
17.0597
16.7786
16.523
16.2811
16.0365
15.7882
15.551
15.3344
15.1333
14.9349
14.7264
14.4981
14.2432
13.9561
13.6313
13.2639
12.8671
12.5196
12.3794
12.5238
12.7637
12.9067
13.0464
13.3416
13.9845
707.888
447.84
18.8129
18.7193
18.6287
18.4872
18.2568
17.9773
17.7248
17.4686
17.1711
16.853
16.5568
16.3022
16.0786
15.8691
15.6724
15.4907
15.3183
15.1446
14.9586
14.7505
14.5121
14.237
13.9185
13.5479
13.1184
12.6511
12.2547
12.1404
12.38
12.7219
12.9882
13.287
13.8939
707.746
449.151
19.1145
19.0355
18.9604
18.8144
18.5331
18.146
17.8116
17.5459
17.2697
16.9544
16.6304
16.3438
16.1105
15.9162
15.7483
15.5989
15.4568
15.3116
15.1534
14.9732
14.7629
14.5156
14.2246
13.8814
13.4748
12.995
12.4692
12.0454
11.9865
12.3225
12.7443
13.1379
13.8106
707.868
450.168
19.3513
19.3117
19.2755
19.1574
18.8771
18.4225
17.986
17.6738
17.4031
17.1024
16.7671
16.4406
16.1683
15.958
15.7974
15.6686
15.5512
15.4313
15.2991
15.146
14.9644
14.7478
14.4898
14.1834
13.818
13.3764
12.8458
12.272
11.8723
11.9403
12.3869
12.9056
13.7236
708.086
450.455
19.5087
19.5461
19.5647
19.4891
19.236
18.7517
18.209
17.8241
17.5494
17.2751
16.9566
16.6096
16.2893
16.0344
15.8513
15.722
15.616
15.513
15.4002
15.2687
15.1111
14.921
14.6927
14.4204
14.0947
13.6991
13.2102
12.6204
12.0363
11.7778
12.0692
12.6571
13.6215
708.176
450.232
19.6423
19.7925
19.8857
19.8737
19.6786
19.2112
18.5682
18.0569
17.7375
17.4769
17.1864
16.8451
16.4875
16.1704
15.9359
15.7813
15.6698
15.5721
15.4703
15.3534
15.2131
15.0432
14.8383
14.5933
14.2997
13.9432
13.5007
12.9479
12.3214
11.854
11.9142
12.4704
13.5078
708.039
449.931
19.7606
20.0081
20.1672
20.2224
20.1018
19.6989
19.0192
18.3661
17.9597
17.697
17.4415
17.134
16.7735
16.4024
16.0925
15.8801
15.7381
15.6294
15.5276
15.417
15.2872
15.1312
14.9438
14.7195
14.4507
14.1253
13.724
13.2205
12.6219
12.0784
11.95
12.3964
13.4085
707.748
450.488
19.9403
20.1794
20.3527
20.4479
20.3916
20.0731
19.4522
18.7324
18.2241
17.9291
17.6944
17.4289
17.1002
16.7172
16.345
16.0567
15.858
15.7165
15.5988
15.4828
15.3544
15.205
15.0285
14.8187
14.5685
14.2673
13.899
13.442
12.8964
12.3586
12.1251
12.442
13.3584
707.431
452.032
20.133
20.2401
20.3588
20.4463
20.4187
20.1668
19.6601
19.0175
18.4936
18.175
17.9468
17.7106
17.4197
17.0604
16.6674
16.3162
16.0495
15.8574
15.708
15.5734
15.4355
15.2835
15.1096
14.9068
14.6681
14.3842
14.0416
13.6239
13.1292
12.6301
12.3606
12.5715
13.367
707.15
454.019
20.282
20.1876
20.2061
20.2562
20.2356
20.0343
19.6486
19.1678
18.7408
18.4456
18.2219
17.997
17.7278
17.3954
17.0121
16.6312
16.3089
16.0616
15.8694
15.7047
15.5467
15.3823
15.2018
14.9978
14.7633
14.4894
14.1646
13.7764
13.3248
12.8679
12.5942
12.7329
13.4152
706.901
455.168
20.2177
19.9351
19.8551
19.8936
19.9112
19.7776
19.5161
19.205
18.9185
18.6871
18.483
18.2676
18.0117
17.7001
17.3371
16.9561
16.6063
16.3166
16.0822
15.8819
15.6957
15.5098
15.3138
15.1002
14.8616
14.5897
14.2744
13.9057
13.4858
13.0657
12.8026
12.8943
13.4795
706.652
455.033
19.951
19.5117
19.3619
19.4745
19.6013
19.5721
19.4327
19.2505
19.0673
18.893
18.7138
18.5108
18.2671
17.9735
17.6331
17.2682
16.9154
16.6029
16.3356
16.1011
15.8838
15.6711
15.4531
15.2225
14.9725
14.6952
14.3814
14.0228
13.6232
13.2293
12.9766
13.0348
13.5353
706.383
453.762
19.5249
18.9663
18.7776
19.0288
19.278
19.3457
19.303
19.2103
19.0998
18.9774
18.8342
18.6578
18.439
18.1739
17.8669
17.5341
17.2007
16.8884
16.6048
16.3453
16.1002
15.8603
15.6176
15.3656
15.0985
14.8093
14.49
14.1337
13.7455
13.3689
13.1234
13.1539
13.5776
706.103
452.214
19.0927
18.4544
18.2412
18.6343
18.9899
19.131
19.1448
19.0949
19.0198
18.9318
18.8235
18.6821
18.5012
18.2789
18.0193
17.7333
17.4365
17.1435
16.8617
16.5909
16.3273
16.0655
15.8001
15.5264
15.2397
14.9345
14.6042
14.2436
13.8587
13.4906
13.2461
13.2489
13.6007
705.827
450.494
18.5617
17.8385
17.5432
18.027
18.5335
18.7948
18.893
18.8958
18.8511
18.7881
18.7078
18.602
18.4646
18.293
18.0884
17.8563
17.605
17.3435
17.0777
16.81
16.5398
16.2656
15.9841
15.6927
15.3882
15.0667
14.7232
14.3545
13.9678
13.6024
13.3538
13.328
13.6129
705.588
449.196
18.1184
17.312
16.8288
17.2078
17.8918
18.3353
18.5631
18.6503
18.6512
18.6102
18.5489
18.4705
18.371
18.2459
18.0929
17.912
17.7066
17.4813
17.2403
16.9863
16.7209
16.4443
16.1554
15.8531
15.5357
15.2007
14.8447
14.4662
14.0738
13.7051
13.4463
13.3901
13.6148
705.404
447.773
17.8139
17.0365
16.3325
16.1111
16.7888
17.531
18.0134
18.2814
18.4039
18.4282
18.3977
18.3408
18.2671
18.1751
18.0605
17.9204
17.7543
17.5635
17.35
17.1157
16.8628
16.5924
16.3044
15.9987
15.6749
15.3314
14.9663
14.5795
14.1808
13.8063
13.534
13.4475
13.6211
705.312
446.811
18.031
17.4869
16.7931
15.7363
15.4717
16.2411
17.069
17.6313
17.9693
18.1453
18.2103
18.2087
18.1708
18.1079
18.0215
17.9107
17.774
17.611
17.4219
17.208
16.9712
16.7119
16.4306
16.1276
15.8029
15.4556
15.0849
14.6917
14.2864
13.9032
13.6141
13.4984
13.6324
705.31
446.5
18.4665
18.1735
17.7107
16.6932
15.1029
14.8551
15.7746
16.6719
17.2812
17.6638
17.8845
17.9955
18.0329
18.0198
17.9694
17.8878
17.7769
17.6371
17.469
17.2739
17.0529
16.8064
16.5349
16.2386
15.9175
15.5711
15.199
14.8031
14.3937
14.0032
13.6987
13.5587
13.6653
705.396
447.646
18.8364
18.6467
18.3753
17.7867
16.1811
14.402
14.6273
15.6594
16.5028
17.0681
17.4395
17.6742
17.8075
17.8655
17.8679
17.8266
17.7478
17.6347
17.4893
17.314
17.1097
16.8773
16.6174
16.3303
16.0158
15.6735
15.3031
14.9067
14.4945
14.0973
13.7788
13.619
13.7079
705.511
449.094
19.011
18.8197
18.604
18.1766
17.1629
15.0123
14.0925
14.8829
15.8371
16.5247
16.9959
17.3177
17.5276
17.6516
17.7091
17.7134
17.6725
17.5913
17.4732
17.3209
17.1361
16.9204
16.6747
16.3997
16.0952
15.7609
15.3965
15.004
14.5932
14.1933
13.8657
13.6923
13.7697
705.636
450.131
19.2395
19.0758
18.8756
18.4432
17.5201
15.7435
14.0697
14.3877
15.3336
16.0889
16.6176
16.9867
17.2428
17.4131
17.5149
17.56
17.556
17.5077
17.4188
17.2919
17.129
16.9323
16.7033
16.4426
16.1504
15.8262
15.4699
15.0835
14.6764
14.2766
13.9439
13.7616
13.8296
705.714
450.201
19.3349
19.2588
19.1244
18.7321
17.7973
16.1368
14.2139
14.0682
14.9535
15.7401
16.2976
16.6898
16.9708
17.1702
17.304
17.3817
17.4094
17.391
17.33
17.2285
17.0889
16.9134
16.7034
16.46
16.1833
15.873
15.5289
15.1527
14.7531
14.3569
14.0225
13.8345
13.8935
705.757
449.535
19.2683
19.2761
19.2194
18.9241
18.1259
16.546
14.5117
13.7854
14.5512
15.368
15.9591
16.3778
16.6839
16.91
17.0721
17.1788
17.235
17.2442
17.2096
17.1335
17.0178
16.8645
16.6747
16.4495
16.1892
15.8937
15.5629
15.1988
14.81
14.4222
14.0927
13.904
13.9522
705.745
447.949
19.1395
19.288
19.3458
19.2107
18.6844
17.4824
15.5081
13.8003
13.9743
14.8001
15.479
15.966
16.3236
16.5928
16.7936
16.9349
17.0232
17.0627
17.0572
17.0089
16.9196
16.7908
16.6238
16.4196
16.1785
15.9005
15.5856
15.2353
14.8575
14.4771
14.1503
13.9587
13.9935
705.713
446.26
19.0321
19.3252
19.5107
19.5723
19.3848
18.7419
17.3154
15.0852
13.6644
13.9696
14.7373
15.3644
15.824
16.1688
16.4309
16.6252
16.7596
16.8393
16.87
16.8549
16.796
16.695
16.5532
16.3716
16.151
15.8916
15.5938
15.2598
14.8973
14.5306
14.2144
14.0265
14.0511
705.716
445.521
18.8809
19.1987
19.4374
19.618
19.6562
19.431
18.7543
17.2602
14.9579
13.6048
13.8613
14.5779
15.1788
15.6286
15.9721
16.2356
16.4309
16.5654
16.6444
16.6709
16.6489
16.581
16.4688
16.3136
16.1162
15.877
15.5964
15.2766
14.9255
14.5672
14.2551
14.0645
14.0763
705.729
445.577
18.7275
18.9898
19.2178
19.4273
19.5442
19.4793
19.1701
18.4692
16.9785
14.7797
13.5933
13.8524
14.4975
15.0463
15.4687
15.7998
16.0586
16.2519
16.3838
16.4579
16.4774
16.446
16.3663
16.2403
16.0694
15.8545
15.5961
15.2964
14.9629
14.6187
14.317
14.1317
14.1447
705.875
445.483
18.5388
18.7585
18.9876
19.2341
19.4091
19.4051
19.1793
18.7215
17.91
16.3826
14.4557
13.6635
13.9877
14.5378
15.0054
15.3805
15.686
15.9293
16.1114
16.2335
16.2973
16.3055
16.2607
16.165
16.02
15.8269
15.5871
15.3033
14.9841
14.6533
14.3617
14.1791
14.1871
705.956
445.262
18.2692
18.4118
18.6225
18.9156
19.1902
19.3004
19.1771
18.8145
18.2047
17.2284
15.6637
14.1872
13.852
14.204
14.648
15.0319
15.3548
15.624
15.8383
15.9955
16.0951
16.1382
16.1267
16.0627
15.9478
15.7832
15.5695
15.3087
15.0083
14.6912
14.4084
14.231
14.2462
706.118
445.936
18.1568
18.1358
18.253
18.5154
18.8333
19.04
19.0433
18.8162
18.3479
17.6023
16.4752
15.0329
14.1455
14.1287
14.4517
14.8011
15.1148
15.3898
15.6217
15.8039
15.9323
16.0043
16.02
15.9806
15.8875
15.7424
15.5469
15.3042
15.023
14.7265
14.4626
14.2956
14.3093
706.155
447.336
18.2
18.0247
18.0365
18.2047
18.4581
18.6557
18.7108
18.5895
18.2674
17.7109
16.8667
15.7238
14.6836
14.3082
14.4236
14.6795
14.9447
15.1933
15.4157
15.602
15.7438
15.8355
15.8748
15.8611
15.7947
15.676
15.5055
15.2851
15.0224
14.7395
14.4826
14.3151
14.3218
706.145
447.992
18.1763
17.96
17.9183
17.9598
18.0438
18.1172
18.1289
18.0427
17.8243
17.4332
16.8278
15.9984
15.1458
14.6713
14.6221
14.7644
14.9567
15.1568
15.3489
15.5188
15.6549
15.748
15.7927
15.7866
15.7292
15.6211
15.4635
15.2595
15.0174
14.7589
14.5264
14.3751
14.3813
706.081
447.105
18.1568
18.0713
18.0368
17.9149
17.7067
17.5042
17.3403
17.1964
17.0337
16.7939
16.4143
15.8756
15.3001
14.9121
14.796
14.8452
14.9616
15.1041
15.2541
15.3968
15.5194
15.6114
15.6647
15.6742
15.6364
15.5492
15.4116
15.2251
14.9975
14.7493
14.5197
14.3582
14.3304
705.786
445.407
18.2716
18.4261
18.4984
18.3607
17.938
17.363
16.8052
16.3623
16.0794
15.927
15.7908
15.5809
15.3288
15.1324
15.0518
15.0645
15.13
15.2214
15.3234
15.4232
15.5097
15.5721
15.6021
15.5947
15.5476
15.4596
15.3305
15.1612
14.9571
14.7352
14.5297
14.3839
14.3541
705.644
444.176
18.3806
18.7242
18.9968
19.1372
18.9138
18.2839
17.4034
16.46
15.6454
15.145
14.978
14.9683
14.97
14.9509
14.943
14.9654
15.0179
15.092
15.1806
15.2767
15.3706
15.4491
15.5018
15.5189
15.493
15.42
15.2994
15.1343
14.9338
14.7165
14.5129
14.355
14.2724
705.172
444.379
18.3359
18.6417
19.0635
19.6112
19.9018
19.7242
19.1061
18.138
16.9509
15.7446
14.8417
14.4597
14.4877
14.6526
14.8072
14.9279
15.026
15.1111
15.1854
15.2494
15.3006
15.3359
15.3528
15.3489
15.3207
15.2632
15.1701
15.0376
14.8679
14.6736
14.4811
14.3216
14.2199
705.073
446.15
18.2069
18.1968
18.5612
19.4386
20.2262
20.5318
20.3933
19.8715
18.9867
17.7822
16.3839
15.0534
14.1852
13.937
14.0574
14.2699
14.4721
14.6504
14.8125
14.9651
15.1045
15.2191
15.2964
15.3279
15.3111
15.2486
15.1449
15.0053
14.8365
14.6506
14.4687
14.3154
14.2085
705.025
448.338
18.1546
17.8232
18.0092
18.9838
20.1121
20.7549
20.9263
20.7539
20.2626
19.439
18.3378
17.0584
15.731
14.6393
14.0905
14.04
14.2009
14.3895
14.5528
14.6866
14.8001
14.9026
14.9951
15.069
15.1109
15.1085
15.0552
14.9509
14.8028
14.6262
14.444
14.2809
14.1523
704.968
448.773
18.1292
17.7969
17.8552
18.5331
19.6362
20.491
20.9042
20.9679
20.7445
20.2093
19.3395
18.2422
17.0573
15.8686
14.8232
14.1569
13.9669
14.0779
14.291
14.506
14.6829
14.8101
14.8927
14.9414
14.9637
14.9596
14.9236
14.8488
14.7327
14.5818
14.4157
14.2632
14.1582
705.174
447.205
18.203
18.0638
17.965
17.9904
18.5802
19.4967
20.205
20.5539
20.5887
20.3453
19.8114
18.9967
17.9985
16.9299
15.8582
14.8768
14.1802
13.8886
13.9129
14.1017
14.3457
14.5768
14.756
14.8693
14.9206
14.9205
14.8786
14.8002
14.6881
14.5485
14.3989
14.268
14.1969
705.282
446.497
18.509
18.5022
18.4045
18.0834
17.8286
18.2225
18.9843
19.596
19.8815
19.8661
19.6015
19.1228
18.4678
17.6852
16.8213
15.9194
15.074
14.4339
14.0779
13.9748
14.0494
14.2259
14.4362
14.6255
14.76
14.8273
14.8299
14.7767
14.6785
14.5489
14.4079
14.2812
14.1992
705.107
447.711
18.7391
18.7714
18.9166
18.9715
18.565
18.1097
18.2246
18.7457
19.1962
19.3848
19.33
19.0851
18.6838
18.144
17.4833
16.7384
15.9865
15.3342
14.8509
14.5342
14.3578
14.2988
14.3332
14.4273
14.5398
14.6329
14.6805
14.6715
14.6068
14.4979
14.367
14.2423
14.1497
704.931
449.288
18.5644
18.4112
18.6753
19.293
19.5504
19.154
18.5524
18.4184
18.7585
19.086
19.202
19.1227
18.8826
18.4929
17.9462
17.2409
16.4336
15.6794
15.1489
14.8596
14.7145
14.6337
14.585
14.5625
14.5643
14.5809
14.5945
14.5852
14.5392
14.4552
14.3482
14.2442
14.1678
704.906
449.473
18.1861
17.8669
17.974
18.7171
19.5457
19.7945
19.4432
18.8316
18.6908
18.9504
19.1512
19.1846
19.0749
18.8363
18.4561
17.9021
17.1484
16.2451
15.3863
14.8027