/*--------------------------------*- C++ -*----------------------------------*\
| =========                 |                                                 |
| \\      /  F ield         | OpenFOAM: The Open Source CFD Toolbox           |
|  \\    /   O peration     | Version:  v1906                                 |
|   \\  /    A nd           | Web:      www.OpenFOAM.com                      |
|    \\/     M anipulation  |                                                 |
\*---------------------------------------------------------------------------*/
FoamFile
{
    version     2.0;
    format      ascii;
    class       surfaceScalarField;
    location    "70";
    object      phi;
}
// * * * * * * * * * * * * * * * * * * * * * * * * * * * * * * * * * * * * * //

dimensions      [1 0 -1 0 0 0 0];
oriented        oriented;


internalField   nonuniform List<scalar> 
228225
(
-3.60883e-09
4.84954e-09
-1.19136e-09
-1.3705e-08
1.59163e-08
-5.81981e-09
-2.90185e-08
2.25068e-08
-7.19188e-09
-4.91005e-08
2.79202e-08
-7.84165e-09
-7.31171e-08
3.23229e-08
-8.3033e-09
-1.00061e-07
3.56846e-08
-8.74326e-09
-1.28968e-07
3.81067e-08
-9.19847e-09
-1.58854e-07
3.9591e-08
-9.70304e-09
-1.88886e-07
4.02789e-08
-1.02486e-08
-2.1822e-07
4.0191e-08
-1.08576e-08
-2.4618e-07
3.94807e-08
-1.15212e-08
-2.72104e-07
3.81869e-08
-1.22593e-08
-2.95491e-07
3.64447e-08
-1.30606e-08
-3.15848e-07
3.4296e-08
-1.39384e-08
-3.32836e-07
3.18627e-08
-1.48757e-08
-3.46126e-07
2.91686e-08
-1.58769e-08
-3.55514e-07
2.63166e-08
-1.69278e-08
-3.60878e-07
2.33452e-08
-1.79848e-08
-3.62135e-07
2.03201e-08
-1.90593e-08
-3.59276e-07
1.7275e-08
-2.01357e-08
-3.52363e-07
1.42641e-08
-2.11775e-08
-3.41499e-07
1.13032e-08
-2.21682e-08
-3.2685e-07
8.43216e-09
-2.30799e-08
-3.08619e-07
5.6635e-09
-2.38941e-08
-2.87061e-07
3.0273e-09
-2.45855e-08
-2.62466e-07
5.39882e-10
-2.51361e-08
-2.35164e-07
-1.77657e-09
-2.55243e-08
-2.05537e-07
-3.89409e-09
-2.57323e-08
-1.74023e-07
-5.77826e-09
-2.57388e-08
-1.41115e-07
-7.38774e-09
-2.55184e-08
-1.07431e-07
-8.66407e-09
-2.50204e-08
-7.3795e-08
-9.51618e-09
-2.41201e-08
-4.15682e-08
-9.76948e-09
-2.24572e-08
-1.34975e-08
-9.12478e-09
-1.89425e-08
-5.70458e-09
-7.79624e-09
-1.16577e-08
3.44663e-08
-1.79583e-08
-3.9164e-08
6.27991e-08
-1.93778e-08
-7.21178e-08
7.56305e-08
-2.01695e-08
-1.07635e-07
8.46727e-08
-2.12343e-08
-1.43609e-07
9.05283e-08
-2.22312e-08
-1.78619e-07
9.37998e-08
-2.31061e-08
-2.11527e-07
9.49309e-08
-2.39161e-08
-2.41594e-07
9.43332e-08
-2.46747e-08
-2.68248e-07
9.23304e-08
-2.53991e-08
-2.91176e-07
8.92042e-08
-2.60847e-08
-3.10151e-07
8.51968e-08
-2.67417e-08
-3.25128e-07
8.0525e-08
-2.73612e-08
-3.36099e-07
7.53681e-08
-2.79523e-08
-3.43189e-07
6.98917e-08
-2.85044e-08
-3.46536e-07
6.42292e-08
-2.90213e-08
-3.46358e-07
5.84884e-08
-2.94973e-08
-3.42858e-07
5.27572e-08
-2.99375e-08
-3.36297e-07
4.7114e-08
-3.03328e-08
-3.26907e-07
4.16166e-08
-3.06849e-08
-3.1497e-07
3.6325e-08
-3.09871e-08
-3.00736e-07
3.12723e-08
-3.12426e-08
-2.84474e-07
2.64856e-08
-3.14448e-08
-2.66429e-07
2.19811e-08
-3.15934e-08
-2.46855e-07
1.77728e-08
-3.1683e-08
-2.25983e-07
1.38674e-08
-3.17113e-08
-2.04047e-07
1.02732e-08
-3.16711e-08
-1.81266e-07
6.99834e-09
-3.15551e-08
-1.5786e-07
4.05027e-09
-3.13495e-08
-1.34039e-07
1.4353e-09
-3.10347e-08
-1.10018e-07
-8.28986e-10
-3.05793e-08
-8.60185e-08
-2.71693e-09
-2.99473e-08
-6.22759e-08
-4.17614e-09
-2.9083e-08
-3.91343e-08
-5.11854e-09
-2.77922e-08
-1.75047e-08
-5.2566e-09
-2.54988e-08
-2.96915e-09
-2.02398e-08
-9.69265e-09
5.16441e-08
-7.48482e-09
-2.50981e-08
8.72321e-08
-9.02939e-09
-4.21989e-08
1.02521e-07
-9.78798e-09
-5.97838e-08
1.12801e-07
-1.05434e-08
-7.70364e-08
1.19084e-07
-1.13032e-08
-9.33657e-08
1.22244e-07
-1.2115e-08
-1.08361e-07
1.22895e-07
-1.29685e-08
-1.21717e-07
1.21573e-07
-1.38836e-08
-1.33236e-07
1.18683e-07
-1.48327e-08
-1.42799e-07
1.14585e-07
-1.58187e-08
-1.50366e-07
1.09573e-07
-1.68083e-08
-1.55949e-07
1.03905e-07
-1.77983e-08
-1.59617e-07
9.7793e-08
-1.87574e-08
-1.61455e-07
9.14125e-08
-1.96815e-08
-1.61586e-07
8.49086e-08
-2.05495e-08
-1.60153e-07
7.84172e-08
-2.13608e-08
-1.57323e-07
7.20249e-08
-2.20989e-08
-1.53239e-07
6.57971e-08
-2.27666e-08
-1.48053e-07
5.97856e-08
-2.33544e-08
-1.41903e-07
5.40399e-08
-2.38647e-08
-1.34927e-07
4.85876e-08
-2.4293e-08
-1.2724e-07
4.3447e-08
-2.46453e-08
-1.18962e-07
3.86204e-08
-2.49195e-08
-1.10179e-07
3.41113e-08
-2.51207e-08
-1.00986e-07
2.99209e-08
-2.52474e-08
-9.1462e-08
2.60517e-08
-2.53017e-08
-8.16838e-08
2.24994e-08
-2.52793e-08
-7.17117e-08
1.92546e-08
-2.5176e-08
-6.1608e-08
1.63111e-08
-2.49804e-08
-5.14204e-08
1.36585e-08
-2.46753e-08
-4.1191e-08
1.12869e-08
-2.42319e-08
-3.09628e-08
9.18923e-09
-2.35938e-08
-2.07977e-08
7.34981e-09
-2.26335e-08
-1.07677e-08
5.75189e-09
-2.10395e-08
3.56236e-09
-1.7298e-08
-1.10257e-08
5.56703e-08
7.00106e-09
-1.96743e-08
8.99905e-08
5.88648e-09
-2.69766e-08
1.04951e-07
4.87503e-09
-3.34186e-08
1.1516e-07
4.08148e-09
-3.92515e-08
1.21642e-07
3.27523e-09
-4.4514e-08
1.25156e-07
2.34856e-09
-4.91864e-08
1.26314e-07
1.25431e-09
-5.32197e-08
1.25578e-07
2.89264e-11
-5.6569e-08
1.23356e-07
-1.32382e-09
-5.9187e-08
1.1996e-07
-2.75776e-09
-6.1043e-08
1.15689e-07
-4.25899e-09
-6.2139e-08
1.10776e-07
-5.7755e-09
-6.2505e-08
1.05449e-07
-7.28924e-09
-6.22001e-08
9.98661e-08
-8.76001e-09
-6.12976e-08
9.41826e-08
-1.01755e-08
-5.98902e-08
8.85067e-08
-1.14981e-08
-5.80642e-08
8.29292e-08
-1.27289e-08
-5.59132e-08
7.75013e-08
-1.38548e-08
-5.35188e-08
7.22725e-08
-1.48816e-08
-5.09482e-08
6.72699e-08
-1.58011e-08
-4.8258e-08
6.2519e-08
-1.66202e-08
-4.55087e-08
5.80306e-08
-1.73346e-08
-4.27374e-08
5.38019e-08
-1.79529e-08
-3.99839e-08
4.98317e-08
-1.84734e-08
-3.72754e-08
4.61137e-08
-1.89018e-08
-3.46333e-08
4.26461e-08
-1.92356e-08
-3.2056e-08
3.94017e-08
-1.94801e-08
-2.95132e-08
3.63456e-08
-1.96336e-08
-2.69428e-08
3.34356e-08
-1.96952e-08
-2.42498e-08
3.06245e-08
-1.96572e-08
-2.12931e-08
2.78364e-08
-1.95074e-08
-1.78492e-08
2.49879e-08
-1.92418e-08
-1.354e-08
2.19376e-08
-1.88992e-08
-7.92873e-09
1.85598e-08
-1.84163e-08
1.21145e-08
-1.64822e-08
-1.12043e-08
5.28809e-08
1.39927e-08
-1.52621e-08
8.09455e-08
1.3104e-08
-1.58248e-08
9.35113e-08
1.20029e-08
-1.43524e-08
1.02463e-07
1.12227e-08
-1.17201e-08
1.08502e-07
1.051e-08
-8.43399e-09
1.1221e-07
9.65848e-09
-4.80695e-09
1.14039e-07
8.64964e-09
-1.06856e-09
1.14362e-07
7.47795e-09
2.6399e-09
1.13467e-07
6.17945e-09
6.21207e-09
1.11622e-07
4.76652e-09
9.57432e-09
1.09037e-07
3.28961e-09
1.26519e-08
1.05923e-07
1.77623e-09
1.53935e-08
1.02435e-07
2.72245e-10
1.77402e-08
9.8717e-08
-1.19674e-09
1.96555e-08
9.48712e-08
-2.60249e-09
2.11244e-08
9.0986e-08
-3.94959e-09
2.21524e-08
8.71183e-08
-5.21654e-09
2.27331e-08
8.33239e-08
-6.40292e-09
2.2867e-08
7.96355e-08
-7.49788e-09
2.25574e-08
7.60838e-08
-8.50399e-09
2.18089e-08
7.26835e-08
-9.41445e-09
2.06265e-08
6.94448e-08
-1.02335e-08
1.90201e-08
6.6367e-08
-1.09576e-08
1.70003e-08
6.34427e-08
-1.15917e-08
1.45912e-08
6.06571e-08
-1.21344e-08
1.1841e-08
5.7987e-08
-1.25899e-08
8.80351e-09
5.53969e-08
-1.29586e-08
5.57432e-09
5.28249e-08
-1.32487e-08
2.27283e-09
5.01985e-08
-1.3463e-08
-9.17123e-10
4.74197e-08
-1.36043e-08
-3.76233e-09
4.43539e-08
-1.36705e-08
-5.90756e-09
4.08253e-08
-1.36939e-08
-6.74011e-09
3.6582e-08
-1.38097e-08
-5.39879e-09
3.13057e-08
-1.40907e-08
2.01905e-08
-1.34728e-08
-6.35369e-09
4.59426e-08
1.32922e-08
-6.69076e-09
6.89545e-08
1.23274e-08
-3.86207e-09
7.94883e-08
1.11941e-08
8.68513e-10
8.72463e-08
1.04876e-08
6.65018e-09
9.28298e-08
9.88987e-09
1.29847e-08
9.66501e-08
9.22559e-09
1.94954e-08
9.90891e-08
8.43815e-09
2.58996e-08
1.004e-07
7.55882e-09
3.19451e-08
1.0083e-07
6.59097e-09
3.74564e-08
1.00545e-07
5.56478e-09
4.22939e-08
9.97136e-08
4.48825e-09
4.63767e-08
9.84472e-08
3.39052e-09
4.96667e-08
9.68659e-08
2.27947e-09
5.21555e-08
9.50486e-08
1.17868e-09
5.38597e-08
9.30771e-08
9.19893e-11
5.47903e-08
9.10041e-08
-9.5074e-10
5.49783e-08
8.88863e-08
-1.95579e-09
5.44541e-08
8.67567e-08
-2.90837e-09
5.3248e-08
8.46484e-08
-3.80572e-09
5.13887e-08
8.25797e-08
-4.63823e-09
4.89156e-08
8.05644e-08
-5.40578e-09
4.58563e-08
7.86051e-08
-6.1028e-09
4.22584e-08
7.66969e-08
-6.7309e-09
3.81626e-08
7.48258e-08
-7.28775e-09
3.36293e-08
7.2966e-08
-7.77634e-09
2.87323e-08
7.10817e-08
-8.19722e-09
2.35682e-08
6.91173e-08
-8.55504e-09
1.82457e-08
6.70009e-08
-8.85394e-09
1.2916e-08
6.46276e-08
-9.10056e-09
7.7718e-09
6.18642e-08
-9.29876e-09
3.05853e-09
5.85188e-08
-9.45265e-09
-8.61737e-10
5.43484e-08
-9.60194e-09
-3.38046e-09
4.90025e-08
-9.90244e-09
-3.66784e-09
4.20595e-08
-1.04646e-08
2.69775e-08
-1.04564e-08
-2.18183e-09
3.9045e-08
9.07933e-09
-8.99124e-10
5.96122e-08
8.0598e-09
2.35837e-09
6.91487e-08
7.08125e-09
6.75872e-09
7.63562e-08
6.49059e-09
1.17737e-08
8.17679e-08
6.04757e-09
1.70664e-08
8.57744e-08
5.58245e-09
2.24093e-08
8.86765e-08
5.07009e-09
2.75932e-08
9.07105e-08
4.50633e-09
3.24659e-08
9.20503e-08
3.90553e-09
3.69009e-08
9.2845e-08
3.26567e-09
4.08128e-08
9.32008e-08
2.60098e-09
4.41309e-08
9.32165e-08
1.91318e-09
4.68162e-08
9.29617e-08
1.21728e-09
4.88452e-08
9.25038e-08
5.1682e-10
5.02093e-08
9.18888e-08
-1.74887e-10
5.09007e-08
9.11618e-08
-8.48709e-10
5.09291e-08
9.0353e-08
-1.49765e-09
5.03157e-08
8.9491e-08
-2.11931e-09
4.90765e-08
8.8592e-08
-2.70418e-09
4.72383e-08
8.76678e-08
-3.251e-09
4.48358e-08
8.67221e-08
-3.75391e-09
4.19036e-08
8.57506e-08
-4.21337e-09
3.84832e-08
8.47422e-08
-4.62616e-09
3.46314e-08
8.36736e-08
-4.99435e-09
3.04011e-08
8.25125e-08
-5.31714e-09
2.58728e-08
8.12092e-08
-5.59801e-09
2.11285e-08
7.96984e-08
-5.83851e-09
1.62894e-08
7.78865e-08
-6.04428e-09
1.14847e-08
7.56509e-08
-6.21935e-09
6.89576e-09
7.28225e-08
-6.36875e-09
2.73259e-09
6.91752e-08
-6.49509e-09
-6.92266e-10
6.44074e-08
-6.63234e-09
-2.88999e-09
5.81051e-08
-6.90553e-09
-3.15883e-09
4.97313e-08
-7.40326e-09
3.13104e-08
-7.49133e-09
-6.34927e-10
3.43644e-08
5.31704e-09
2.22724e-10
5.42594e-08
4.49349e-09
2.04302e-09
6.35336e-08
3.79496e-09
4.39147e-09
7.06253e-08
3.38202e-09
7.02555e-09
7.60646e-08
3.07059e-09
9.80868e-09
8.02294e-08
2.76189e-09
1.26414e-08
8.34158e-08
2.42699e-09
1.54412e-08
8.5838e-08
2.07254e-09
1.81284e-08
8.76681e-08
1.69664e-09
2.06366e-08
8.90306e-08
1.3065e-09
2.29046e-08
9.00289e-08
9.01444e-10
2.48941e-08
9.0738e-08
4.90276e-10
2.65616e-08
9.12218e-08
7.37444e-11
2.78711e-08
9.15263e-08
-3.34938e-10
2.88072e-08
9.16912e-08
-7.36228e-10
2.93466e-08
9.17454e-08
-1.12332e-09
2.94821e-08
9.17124e-08
-1.49454e-09
2.92094e-08
9.16061e-08
-1.84287e-09
2.85351e-08
9.14359e-08
-2.16786e-09
2.74609e-08
9.12048e-08
-2.46489e-09
2.60106e-08
9.09088e-08
-2.73505e-09
2.41984e-08
9.05377e-08
-2.9756e-09
2.20589e-08
9.00717e-08
-3.1889e-09
1.96218e-08
8.94833e-08
-3.37391e-09
1.69395e-08
8.87296e-08
-3.53415e-09
1.40632e-08
8.77557e-08
-3.67006e-09
1.10646e-08
8.64819e-08
-3.78626e-09
8.03022e-09
8.48072e-08
-3.88489e-09
5.06394e-09
8.25885e-08
-3.97163e-09
2.29077e-09
7.96429e-08
-4.04806e-09
-1.28807e-10
7.57148e-08
-4.11822e-09
-1.99719e-09
7.04757e-08
-4.20222e-09
-2.97239e-09
6.34649e-08
-4.38479e-09
-2.6185e-09
5.40909e-08
-4.71223e-09
3.34319e-08
-4.74029e-09
-5.54927e-10
3.15484e-08
3.37117e-09
-5.78264e-10
5.13785e-08
2.90505e-09
-1.85011e-10
6.0613e-08
2.5264e-09
4.42886e-10
6.76979e-08
2.29884e-09
1.22549e-09
7.31621e-08
2.1206e-09
2.11914e-09
7.74006e-08
1.93521e-09
3.09732e-09
8.07019e-08
1.7359e-09
4.12559e-09
8.3288e-08
1.52135e-09
5.17458e-09
8.53214e-08
1.29797e-09
6.20928e-09
8.69293e-08
1.06501e-09
7.20645e-09
8.82051e-08
8.28933e-10
8.13016e-09
8.92228e-08
5.90183e-10
8.96144e-09
9.00368e-08
3.55492e-10
9.6705e-09
9.06906e-08
1.25198e-10
1.02398e-08
9.12148e-08
-9.23191e-11
1.06477e-08
9.16337e-08
-2.97178e-10
1.08844e-08
9.19629e-08
-4.8562e-10
1.09354e-08
9.22129e-08
-6.58314e-10
1.07939e-08
9.2387e-08
-8.11051e-10
1.04617e-08
9.24842e-08
-9.45858e-10
9.93277e-09
9.2497e-08
-1.0601e-09
9.21626e-09
9.24107e-08
-1.15642e-09
8.3214e-09
9.22008e-08
-1.23361e-09
7.26643e-09
9.18338e-08
-1.29602e-09
6.07791e-09
9.12635e-08
-1.34359e-09
4.78585e-09
9.04281e-08
-1.38148e-09
3.43387e-09
8.92448e-08
-1.41055e-09
2.07387e-09
8.76042e-08
-1.43678e-09
7.63373e-10
8.53593e-08
-1.46177e-09
-4.17666e-10
8.23169e-08
-1.49102e-09
-1.39345e-09
7.82153e-08
-1.52518e-09
-2.0487e-09
7.27117e-08
-1.58087e-09
-2.21266e-09
6.53354e-08
-1.70643e-09
-1.66192e-09
5.54678e-08
-1.92693e-09
3.37602e-08
-1.99065e-09
-1.20564e-09
2.98699e-08
2.88354e-09
-2.19326e-09
4.95301e-08
2.83615e-09
-2.98929e-09
5.86662e-08
2.74152e-09
-3.64062e-09
6.56664e-08
2.68532e-09
-4.15947e-09
7.1062e-08
2.61917e-09
-4.54123e-09
7.52482e-08
2.53342e-09
-4.78348e-09
7.85174e-08
2.42612e-09
-4.88764e-09
8.1089e-08
2.30497e-09
-4.86784e-09
8.31287e-08
2.17148e-09
-4.73007e-09
8.47597e-08
2.03241e-09
-4.49018e-09
8.60773e-08
1.88865e-09
-4.16782e-09
8.71511e-08
1.7468e-09
-3.77081e-09
8.80365e-08
1.60754e-09
-3.33264e-09
8.87723e-08
1.47692e-09
-2.8616e-09
8.93903e-08
1.35487e-09
-2.3859e-09
8.99095e-08
1.24701e-09
-1.91985e-09
9.03451e-08
1.15266e-09
-1.48642e-09
9.07031e-08
1.07587e-09
-1.09952e-09
9.09866e-08
1.01446e-09
-7.78015e-10
9.11895e-08
9.71254e-10
-5.22935e-10
9.13026e-08
9.42618e-10
-3.50333e-10
9.13066e-08
9.2884e-10
-2.50442e-10
9.11775e-08
9.25416e-10
-2.28448e-10
9.08782e-08
9.32936e-10
-2.73255e-10
9.03624e-08
9.45609e-10
-3.7298e-10
8.95655e-08
9.63105e-10
-5.12131e-10
8.84055e-08
9.78806e-10
-6.7129e-10
8.67712e-08
9.91594e-10
-8.26424e-10
8.45186e-08
9.94102e-10
-9.47347e-10
8.14551e-08
9.85028e-10
-1.01472e-09
7.73252e-08
9.56722e-10
-9.93519e-10
7.17908e-08
9.00679e-10
-8.34609e-10
6.43946e-08
7.80355e-10
-4.81849e-10
5.45303e-08
5.84169e-10
3.29073e-08
3.71727e-10
-1.82448e-09
2.86845e-08
3.01011e-09
-3.43287e-09
4.78302e-08
3.30924e-09
-4.90023e-09
5.67073e-08
3.42417e-09
-6.21695e-09
6.34958e-08
3.48926e-09
-7.37314e-09
6.87112e-08
3.50582e-09
-8.35108e-09
7.27431e-08
3.48378e-09
-9.14436e-09
7.58761e-08
3.4352e-09
-9.75058e-09
7.83292e-08
3.36458e-09
-1.0164e-08
8.02623e-08
3.28086e-09
-1.03914e-08
8.18007e-08
3.18656e-09
-1.0438e-08
8.30349e-08
3.08928e-09
-1.03173e-08
8.40377e-08
2.99054e-09
-1.00361e-08
8.48602e-08
2.89714e-09
-9.61826e-09
8.55447e-08
2.80968e-09
-9.07951e-09
8.61182e-08
2.73403e-09
-8.44454e-09
8.66041e-08
2.66966e-09
-7.73342e-09
8.70133e-08
2.62123e-09
-6.97224e-09
8.73554e-08
2.58674e-09
-6.18355e-09
8.76286e-08
2.56941e-09
-5.38941e-09
8.78298e-08
2.56585e-09
-4.60969e-09
8.79433e-08
2.57844e-09
-3.85721e-09
8.7953e-08
2.60228e-09
-3.14725e-09
8.78297e-08
2.63788e-09
-2.48892e-09
8.75407e-08
2.67912e-09
-1.88734e-09
8.70352e-08
2.72558e-09
-1.34646e-09
8.62543e-08
2.77022e-09
-8.65434e-10
8.51133e-08
2.81183e-09
-4.4535e-10
8.35092e-08
2.84247e-09
-8.75576e-11
8.12993e-08
2.86002e-09
2.08812e-10
7.83035e-08
2.85566e-09
4.33617e-10
7.42756e-08
2.82596e-09
5.7122e-10
6.88973e-08
2.7559e-09
6.07249e-10
6.17347e-08
2.62165e-09
5.20868e-10
5.22167e-08
2.4008e-09
3.14158e-08
2.01296e-09
-2.03228e-09
2.77866e-08
2.92968e-09
-3.86405e-09
4.62402e-08
3.42214e-09
-5.58189e-09
5.47817e-08
3.64405e-09
-7.15356e-09
6.12951e-08
3.77113e-09
-8.54641e-09
6.62803e-08
3.8244e-09
-9.74288e-09
7.01082e-08
3.83205e-09
-1.07316e-08
7.30601e-08
3.80482e-09
-1.15033e-08
7.53444e-08
3.75394e-09
-1.20451e-08
7.71226e-08
3.68417e-09
-1.23614e-08
7.85129e-08
3.60442e-09
-1.24561e-08
7.961e-08
3.51782e-09
-1.23297e-08
8.04818e-08
3.432e-09
-1.20045e-08
8.11846e-08
3.34891e-09
-1.14902e-08
8.17564e-08
3.27518e-09
-1.08143e-08
8.22299e-08
3.21151e-09
-9.99791e-09
8.2624e-08
3.1633e-09
-9.06926e-09
8.29553e-08
3.12979e-09
-8.05615e-09
8.32281e-08
3.11488e-09
-6.99087e-09
8.3446e-08
3.1161e-09
-5.89564e-09
8.36007e-08
3.13572e-09
-4.80643e-09
8.3683e-08
3.16956e-09
-3.74262e-09
8.3671e-08
3.21835e-09
-2.72966e-09
8.35409e-08
3.27634e-09
-1.78525e-09
8.32536e-08
3.34291e-09
-9.26329e-10
8.27652e-08
3.4111e-09
-1.62855e-10
8.20115e-08
3.47926e-09
4.92962e-10
8.0917e-08
3.53945e-09
1.03884e-09
7.93763e-08
3.58908e-09
1.45846e-09
7.72598e-08
3.61908e-09
1.74526e-09
7.43907e-08
3.62574e-09
1.87886e-09
7.05434e-08
3.59808e-09
1.83777e-09
6.54127e-08
3.52671e-09
1.58973e-09
5.85996e-08
3.38297e-09
1.09511e-09
4.95658e-08
3.14395e-09
2.98676e-08
2.64472e-09
-1.75536e-09
2.72535e-08
2.28806e-09
-3.46243e-09
4.51582e-08
2.78988e-09
-5.13386e-09
5.34272e-08
3.02571e-09
-6.70187e-09
5.97121e-08
3.15069e-09
-8.11468e-09
6.44942e-08
3.20006e-09
-9.34405e-09
6.81369e-08
3.20013e-09
-1.03638e-08
7.0912e-08
3.16649e-09
-1.11519e-08
7.30278e-08
3.10582e-09
-1.16972e-08
7.46399e-08
3.0276e-09
-1.19914e-08
7.5871e-08
2.93665e-09
-1.20353e-08
7.68118e-08
2.8413e-09
-1.18335e-08
7.75361e-08
2.74511e-09
-1.1402e-08
7.80971e-08
2.6554e-09
-1.07596e-08
7.85397e-08
2.57454e-09
-9.93203e-09
7.88933e-08
2.50867e-09
-8.94938e-09
7.91836e-08
2.45868e-09
-7.84697e-09
7.94233e-08
2.42914e-09
-6.6619e-09
7.96231e-08
2.41909e-09
-5.42826e-09
7.97817e-08
2.43124e-09
-4.18503e-09
7.98966e-08
2.46264e-09
-2.97213e-09
7.99527e-08
2.5141e-09
-1.81222e-09
7.99338e-08
2.58078e-09
-7.4327e-10
7.98094e-08
2.66178e-09
2.13508e-10
7.95461e-08
2.75066e-09
1.03929e-09
7.90935e-08
2.8452e-09
1.71948e-09
7.83939e-08
2.93777e-09
2.24465e-09
7.73666e-08
3.02514e-09
2.60694e-09
7.59148e-08
3.09881e-09
2.80609e-09
7.3907e-08
3.15461e-09
2.8336e-09
7.11789e-08
3.18311e-09
2.69087e-09
6.75094e-08
3.17864e-09
2.36238e-09
6.26131e-08
3.12696e-09
1.84824e-09
5.61073e-08
3.00703e-09
1.13718e-09
4.74872e-08
2.78745e-09
2.86982e-08
2.30813e-09
-1.15835e-09
2.72822e-08
1.12968e-09
-2.54237e-09
4.50448e-08
1.49642e-09
-4.01376e-09
5.32278e-08
1.67237e-09
-5.46999e-09
5.94174e-08
1.75077e-09
-6.83293e-09
6.40952e-08
1.76095e-09
-8.04339e-09
6.76204e-08
1.72903e-09
-9.06856e-09
7.0269e-08
1.66467e-09
-9.86269e-09
7.22477e-08
1.57701e-09
-1.04132e-08
7.37178e-08
1.47158e-09
-1.06988e-08
7.48003e-08
1.35709e-09
-1.07172e-08
7.55934e-08
1.23732e-09
-1.0472e-08
7.61704e-08
1.12028e-09
-9.97711e-09
7.65927e-08
1.01021e-09
-9.25699e-09
7.69037e-08
9.13987e-10
-8.33872e-09
7.71409e-08
8.34435e-10
-7.25888e-09
7.73275e-08
7.76852e-10
-6.06211e-09
7.74832e-08
7.42116e-10
-4.78731e-09
7.76153e-08
7.33648e-10
-3.48358e-09
7.77283e-08
7.50113e-10
-2.19498e-09
7.78147e-08
7.9271e-10
-9.64194e-10
7.78645e-08
8.57836e-10
1.697e-10
7.78548e-08
9.44543e-10
1.17487e-09
7.77595e-08
1.0472e-09
2.0166e-09
7.75378e-08
1.16309e-09
2.6837e-09
7.71431e-08
1.28513e-09
3.15848e-09
7.65103e-08
1.40944e-09
3.43338e-09
7.55625e-08
1.52802e-09
3.51792e-09
7.41966e-08
1.63629e-09
3.41119e-09
7.22863e-08
1.72571e-09
3.13556e-09
6.96631e-08
1.79158e-09
2.70554e-09
6.6114e-08
1.82496e-09
2.14761e-09
6.13534e-08
1.81824e-09
1.49205e-09
5.50118e-08
1.75066e-09
7.88035e-10
4.65923e-08
1.59898e-09
2.82274e-08
1.25859e-09
-4.9525e-10
2.79939e-08
-2.15765e-10
-1.51166e-09
4.61205e-08
-5.89782e-11
-2.7539e-09
5.4446e-08
2.41683e-11
-4.08095e-09
6.07111e-08
3.31391e-11
-5.3829e-09
6.5407e-08
-8.83832e-12
-6.5843e-09
6.89072e-08
-8.63674e-11
-7.61778e-09
7.14932e-08
-1.90257e-10
-8.43676e-09
7.33831e-08
-3.16413e-10
-9.00301e-09
7.47423e-08
-4.57742e-10
-9.29678e-09
7.57028e-08
-6.08661e-10
-9.30955e-09
7.63653e-08
-7.6006e-10
-9.04321e-09
7.68125e-08
-9.06886e-10
-8.51658e-09
7.71067e-08
-1.04185e-09
-7.75119e-09
7.73003e-08
-1.16056e-09
-6.78453e-09
7.74302e-08
-1.25681e-09
-5.65594e-09
7.75273e-08
-1.32785e-09
-4.41215e-09
7.76095e-08
-1.36933e-09
-3.10773e-09
7.769e-08
-1.3808e-09
-1.78871e-09
7.777e-08
-1.36032e-09
-5.09278e-10
7.78462e-08
-1.30998e-09
6.83094e-10
7.79034e-08
-1.23036e-09
1.7402e-09
7.79217e-08
-1.12597e-09
2.63236e-09
7.7868e-08
-9.99576e-10
3.32479e-09
7.77034e-08
-8.5767e-10
3.79996e-09
7.7373e-08
-7.04676e-10
4.04571e-09
7.68125e-08
-5.48277e-10
4.06587e-09
7.59362e-08
-3.93668e-10
3.86942e-09
7.4641e-08
-2.48815e-10
3.48419e-09
7.27914e-08
-1.18821e-10
2.9381e-09
7.02185e-08
-1.05865e-11
2.28195e-09
6.66997e-08
7.10846e-11
1.56797e-09
6.19485e-08
1.19275e-10
8.72384e-10
5.55848e-08
1.22735e-10
2.91746e-10
4.71095e-08
6.36279e-11
2.85858e-08
-6.65529e-11
4.27031e-11
2.93555e-08
-1.40404e-09
-6.56331e-10
4.82705e-08
-1.45181e-09
-1.68206e-09
5.69361e-08
-1.46329e-09
-2.87419e-09
6.3423e-08
-1.52213e-09
-4.09843e-09
6.82494e-08
-1.61704e-09
-5.26073e-09
7.18071e-08
-1.73727e-09
-6.28353e-09
7.43955e-08
-1.87949e-09
-7.10499e-09
7.62435e-08
-2.03869e-09
-7.68423e-09
7.7531e-08
-2.21094e-09
-7.98934e-09
7.83975e-08
-2.3894e-09
-8.00857e-09
7.89553e-08
-2.56828e-09
-7.74913e-09
7.9291e-08
-2.73963e-09
-7.22128e-09
7.94766e-08
-2.89771e-09
-6.45127e-09
7.95665e-08
-3.03535e-09
-5.47955e-09
7.96056e-08
-3.14807e-09
-4.34603e-09
7.96252e-08
-3.2304e-09
-3.10735e-09
7.96491e-08
-3.28002e-09
-1.80927e-09
7.96891e-08
-3.2939e-09
-5.19943e-10
7.97505e-08
-3.27238e-09
7.14906e-10
7.98265e-08
-3.2152e-09
1.8411e-09
7.99042e-08
-3.12545e-09
2.80878e-09
7.9958e-08
-3.00552e-09
3.58374e-09
7.99556e-08
-2.86094e-09
4.13188e-09
7.98504e-08
-2.69622e-09
4.43726e-09
7.95865e-08
-2.51859e-09
4.49385e-09
7.90905e-08
-2.33375e-09
4.30482e-09
7.82739e-08
-2.14959e-09
3.89485e-09
7.70229e-08
-1.97184e-09
3.29711e-09
7.51971e-08
-1.80768e-09
2.56316e-09
7.26146e-08
-1.66116e-09
1.75328e-09
6.90442e-08
-1.53702e-09
9.57256e-10
6.41834e-08
-1.4375e-09
2.74488e-10
5.76367e-08
-1.36982e-09
-1.5479e-10
4.88815e-08
-1.34116e-09
2.9706e-08
-1.27658e-09
3.4355e-10
3.11848e-08
-2.17203e-09
-1.54521e-10
5.11335e-08
-2.36652e-09
-1.02492e-09
6.02532e-08
-2.44598e-09
-2.09954e-09
6.70528e-08
-2.5543e-09
-3.24422e-09
7.2079e-08
-2.68652e-09
-4.34883e-09
7.57522e-08
-2.83888e-09
-5.33381e-09
7.83887e-08
-3.00907e-09
-6.13135e-09
8.02364e-08
-3.19497e-09
-6.69498e-09
8.14854e-08
-3.39147e-09
-6.99168e-09
8.22882e-08
-3.59318e-09
-7.00862e-09
8.27641e-08
-3.79266e-09
-6.74496e-09
8.30106e-08
-3.98354e-09
-6.21306e-09
8.31043e-08
-4.15818e-09
-5.44574e-09
8.31081e-08
-4.3108e-09
-4.47285e-09
8.30694e-08
-4.43499e-09
-3.34738e-09
8.3026e-08
-4.52673e-09
-2.11876e-09
8.30021e-08
-4.58183e-09
-8.42995e-10
8.30139e-08
-4.59884e-09
4.16271e-10
8.30648e-08
-4.57635e-09
1.60906e-09
8.31506e-08
-4.51579e-09
2.67882e-09
8.32541e-08
-4.41866e-09
3.57529e-09
8.33503e-08
-4.28921e-09
4.26221e-09
8.34004e-08
-4.13148e-09
4.70797e-09
8.33563e-08
-3.95192e-09
4.89716e-09
8.31539e-08
-3.75636e-09
4.82227e-09
8.27162e-08
-3.55246e-09
4.50028e-09
8.19442e-08
-3.34662e-09
3.95142e-09
8.07181e-08
-3.14627e-09
3.22199e-09
7.88842e-08
-2.95679e-09
2.36715e-09
7.62513e-08
-2.78325e-09
1.46913e-09
7.25703e-08
-2.62773e-09
6.20834e-10
6.75231e-08
-2.49194e-09
-5.11221e-11
6.06878e-08
-2.37726e-09
-4.00623e-10
5.15149e-08
-2.28597e-09
3.13862e-08
-2.08001e-09
3.92421e-10
3.32438e-08
-2.45227e-09
-4.25424e-11
5.42769e-08
-2.70705e-09
-8.5176e-10
6.38788e-08
-2.8169e-09
-1.86699e-09
7.10147e-08
-2.94696e-09
-2.95542e-09
7.62641e-08
-3.09665e-09
-4.01083e-09
8.00718e-08
-3.26369e-09
-4.95002e-09
8.27758e-08
-3.44778e-09
-5.70577e-09
8.46385e-08
-3.64615e-09
-6.2312e-09
8.58654e-08
-3.85495e-09
-6.49232e-09
8.66182e-08
-4.06773e-09
-6.48006e-09
8.70277e-08
-4.27811e-09
-6.18643e-09
8.71978e-08
-4.47843e-09
-5.63492e-09
8.72138e-08
-4.66207e-09
-4.84603e-09
8.71428e-08
-4.82196e-09
-3.86444e-09
8.70389e-08
-4.95271e-09
-2.73095e-09
8.69419e-08
-5.04904e-09
-1.50156e-09
8.68808e-08
-5.10783e-09
-2.32145e-10
8.68716e-08
-5.12643e-09
1.01514e-09
8.69203e-08
-5.10456e-09
2.18868e-09
8.70204e-08
-5.04251e-09
3.23157e-09
8.71553e-08
-4.94293e-09
4.09459e-09
8.72953e-08
-4.80898e-09
4.74076e-09
8.74002e-08
-4.64592e-09
5.13985e-09
8.74154e-08
-4.45919e-09
5.27759e-09
8.72731e-08
-4.25584e-09
5.14787e-09
8.68876e-08
-4.04257e-09
4.7657e-09
8.61542e-08
-3.82701e-09
4.15752e-09
8.49419e-08
-3.61556e-09
3.36909e-09
8.3088e-08
-3.41465e-09
2.46157e-09
8.03867e-08
-3.22813e-09
1.51461e-09
7.65748e-08
-3.05874e-09
6.32171e-10
7.13135e-08
-2.90643e-09
-6.61473e-11
6.41569e-08
-2.77203e-09
-4.20832e-10
5.45244e-08
-2.65446e-09
3.33585e-08
-2.39211e-09
2.64134e-10
3.5276e-08
-2.29627e-09
-2.20925e-10
5.72916e-08
-2.52936e-09
-1.04196e-09
6.73308e-08
-2.6323e-09
-2.04037e-09
7.47733e-08
-2.75868e-09
-3.09674e-09
8.02256e-08
-2.90612e-09
-4.10852e-09
8.41565e-08
-3.07247e-09
-4.99801e-09
8.69208e-08
-3.25634e-09
-5.69976e-09
8.87971e-08
-3.45533e-09
-6.17268e-09
9.00016e-08
-3.66472e-09
-6.38223e-09
9.07081e-08
-3.8786e-09
-6.31894e-09
9.10546e-08
-4.08982e-09
-5.98514e-09
9.11541e-08
-4.29134e-09
-5.393e-09
9.10974e-08
-4.47578e-09
-4.57133e-09
9.09583e-08
-4.63678e-09
-3.55936e-09
9.07944e-08
-4.76823e-09
-2.40141e-09
9.06505e-08
-4.8656e-09
-1.15088e-09
9.05568e-08
-4.92506e-09
1.30593e-10
9.05323e-08
-4.94467e-09
1.39289e-09
9.05826e-08
-4.92344e-09
2.57516e-09
9.07017e-08
-4.86236e-09
3.62218e-09
9.08703e-08
-4.76337e-09
4.48995e-09
9.10578e-08
-4.63026e-09
5.13877e-09
9.12191e-08
-4.46758e-09
5.54064e-09
9.12963e-08
-4.28143e-09
5.6751e-09
9.1215e-08
-4.07823e-09
5.54483e-09
9.08843e-08
-3.86532e-09
5.15715e-09
9.01909e-08
-3.64975e-09
4.54236e-09
8.89963e-08
-3.4387e-09
3.74153e-09
8.71264e-08
-3.23806e-09
2.81674e-09
8.43647e-08
-3.05255e-09
1.84432e-09
8.04321e-08
-2.88456e-09
9.18683e-10
7.49734e-08
-2.73524e-09
1.62366e-10
6.75193e-08
-2.60583e-09
-2.77561e-10
5.74626e-08
-2.49769e-09
3.53401e-08
-2.25922e-09
1.85607e-11
3.70895e-08
-1.83205e-09
-5.89679e-10
5.98809e-08
-1.98139e-09
-1.47333e-09
7.02649e-08
-2.04982e-09
-2.49265e-09
7.79461e-08
-2.15286e-09
-3.53874e-09
8.35528e-08
-2.28365e-09
-4.51439e-09
8.75714e-08
-2.43703e-09
-5.35536e-09
9.03715e-08
-2.61047e-09
-6.00079e-09
9.22435e-08
-2.80045e-09
-6.41073e-09
9.34143e-08
-3.00209e-09
-6.56095e-09
9.40661e-08
-3.2089e-09
-6.43698e-09
9.43454e-08
-3.41392e-09
-6.04542e-09
9.43714e-08
-3.60974e-09
-5.39912e-09
9.42415e-08
-3.78941e-09
-4.52885e-09
9.40342e-08
-3.94626e-09
-3.47035e-09
9.38119e-08
-4.07464e-09
-2.27334e-09
9.36221e-08
-4.16975e-09
-9.87111e-10
9.34985e-08
-4.2282e-09
3.33312e-10
9.3461e-08
-4.24772e-09
1.6268e-09
9.35159e-08
-4.2277e-09
2.84021e-09
9.36567e-08
-4.16875e-09
3.92122e-09
9.38631e-08
-4.0731e-09
4.82104e-09
9.41014e-08
-3.94414e-09
5.50348e-09
9.43239e-08
-3.78665e-09
5.93729e-09
9.44678e-08
-3.6063e-09
6.10794e-09
9.44543e-08
-3.40972e-09
6.0111e-09
9.41861e-08
-3.2039e-09
5.65537e-09
9.35434e-08
-2.99624e-09
5.06413e-09
9.23798e-08
-2.7937e-09
4.28145e-09
9.05128e-08
-2.60276e-09
3.35954e-09
8.77152e-08
-2.4283e-09
2.36661e-09
8.36965e-08
-2.27381e-09
1.39661e-09
7.80869e-08
-2.14164e-09
5.5159e-10
7.03997e-08
-2.03634e-09
-2.64918e-11
6.00062e-08
-1.96404e-09
3.71228e-08
-1.81034e-09
-2.64236e-10
3.85688e-08
-1.21466e-09
-1.02451e-09
6.1888e-08
-1.24753e-09
-1.9973e-09
7.25036e-08
-1.2663e-09
-3.0544e-09
8.03392e-08
-1.3354e-09
-4.09843e-09
8.60377e-08
-1.44116e-09
-5.05049e-09
9.00974e-08
-1.57462e-09
-5.84512e-09
9.28987e-08
-1.73122e-09
-6.43656e-09
9.47404e-08
-1.90648e-09
-6.78535e-09
9.58582e-08
-2.09484e-09
-6.87068e-09
9.6441e-08
-2.28958e-09
-6.68416e-09
9.66421e-08
-2.48357e-09
-6.22973e-09
9.65869e-08
-2.66954e-09
-5.52544e-09
9.63779e-08
-2.84051e-09
-4.60063e-09
9.60985e-08
-2.99006e-09
-3.49127e-09
9.58152e-08
-3.11262e-09
-2.24272e-09
9.55787e-08
-3.20359e-09
-9.11766e-10
9.5425e-08
-3.25961e-09
4.52583e-10
9.53755e-08
-3.27856e-09
1.79092e-09
9.54372e-08
-3.25975e-09
3.0493e-09
9.56029e-08
-3.20385e-09
4.17354e-09
9.58511e-08
-3.11297e-09
5.12082e-09
9.61456e-08
-2.99045e-09
5.85054e-09
9.64356e-08
-2.84089e-09
6.33221e-09
9.66544e-08
-2.66984e-09
6.55232e-09
9.67187e-08
-2.48372e-09
6.5035e-09
9.65255e-08
-2.2895e-09
6.19031e-09
9.59494e-08
-2.09445e-09
5.64069e-09
9.48371e-08
-1.9057e-09
4.88318e-09
9.29993e-08
-1.72996e-09
3.97104e-09
9.02007e-08
-1.57275e-09
2.96372e-09
8.61418e-08
-1.43854e-09
1.94038e-09
8.04425e-08
-1.33176e-09
9.97172e-10
7.26043e-08
-1.26089e-09
2.54476e-10
6.19843e-08
-1.23904e-09
3.85828e-08
-1.20253e-09
-5.22497e-10
3.96842e-08
-5.93113e-10
-1.4256e-09
6.32964e-08
-5.0595e-10
-2.48308e-09
7.40354e-08
-4.72868e-10
-3.58424e-09
8.19444e-08
-5.0606e-10
-4.63381e-09
8.7673e-08
-5.84791e-10
-5.56706e-09
9.17271e-08
-6.96225e-10
-6.32687e-09
9.44931e-08
-8.33733e-10
-6.87081e-09
9.62768e-08
-9.91903e-10
-7.16762e-09
9.7319e-08
-1.16453e-09
-7.19819e-09
9.78155e-08
-1.34478e-09
-6.95299e-09
9.79243e-08
-1.52536e-09
-6.44537e-09
9.77768e-08
-1.69925e-09
-5.68606e-09
9.74796e-08
-1.85951e-09
-4.70979e-09
9.71213e-08
-2.00005e-09
-3.5504e-09
9.67717e-08
-2.11536e-09
-2.25529e-09
9.64853e-08
-2.20113e-09
-8.75634e-10
9.62997e-08
-2.25399e-09
5.33516e-10
9.62383e-08
-2.27202e-09
1.91581e-09
9.63083e-08
-2.25444e-09
3.21994e-09
9.65024e-08
-2.20202e-09
4.38968e-09
9.67971e-08
-2.11667e-09
5.38199e-09
9.71548e-08
-2.00172e-09
6.15893e-09
9.75207e-08
-1.8615e-09
6.6896e-09
9.7825e-08
-1.70148e-09
6.95858e-09
9.79791e-08
-1.52778e-09
6.95302e-09
9.78761e-08
-1.3473e-09
6.68582e-09
9.73848e-08
-1.16706e-09
6.16961e-09
9.63468e-08
-9.94348e-10
5.43981e-09
9.45665e-08
-8.35977e-10
4.53507e-09
9.1803e-08
-6.98134e-10
3.51309e-09
8.77505e-08
-5.86204e-10
2.4398e-09
8.20226e-08
-5.06705e-10
1.40245e-09
7.41133e-08
-4.72101e-10
5.16695e-10
6.33735e-08
-5.02716e-10
3.96857e-08
-5.86897e-10
-7.08138e-10
4.0468e-08
-7.58483e-11
-1.71448e-09
6.41931e-08
1.10254e-10
-2.837e-09
7.49719e-08
1.87168e-10
-3.96935e-09
8.28892e-08
1.85139e-10
-5.02433e-09
8.85983e-08
1.30497e-10
-5.94376e-09
9.2607e-08
3.97416e-11
-6.6787e-09
9.53068e-08
-7.9813e-11
-7.1865e-09
9.70067e-08
-2.21272e-10
-7.4423e-09
9.79531e-08
-3.78123e-10
-7.42823e-09
9.83454e-08
-5.43307e-10
-7.1425e-09
9.83481e-08
-7.0981e-10
-6.59105e-09
9.80962e-08
-8.70425e-10
-5.79532e-09
9.7702e-08
-1.01922e-09
-4.78143e-09
9.72572e-08
-1.14996e-09
-3.58793e-09
9.68364e-08
-1.25754e-09
-2.26091e-09
9.64959e-08
-1.33757e-09
-8.51876e-10
9.62769e-08
-1.38706e-09
5.88261e-10
9.62031e-08
-1.40391e-09
2.0001e-09
9.62831e-08
-1.38763e-09
3.33423e-09
9.65082e-08
-1.33871e-09
4.53458e-09
9.68547e-08
-1.25921e-09
5.56061e-09
9.72814e-08
-1.15213e-09
6.372e-09
9.77318e-08
-1.02185e-09
6.9377e-09
9.81312e-08
-8.73459e-10
7.24289e-09