/*--------------------------------*- C++ -*----------------------------------*\
| =========                 |                                                 |
| \\      /  F ield         | OpenFOAM: The Open Source CFD Toolbox           |
|  \\    /   O peration     | Version:  v1906                                 |
|   \\  /    A nd           | Web:      www.OpenFOAM.com                      |
|    \\/     M anipulation  |                                                 |
\*---------------------------------------------------------------------------*/
FoamFile
{
    version     2.0;
    format      ascii;
    class       volScalarField;
    location    "82";
    object      alphat;
}
// * * * * * * * * * * * * * * * * * * * * * * * * * * * * * * * * * * * * * //

dimensions      [1 -1 -1 0 0 0 0];


internalField   nonuniform List<scalar> 
78750
(
7.32259e-09
7.38559e-07
1.17682e-06
1.57349e-06
1.94204e-06
2.27681e-06
2.57293e-06
2.8291e-06
3.04661e-06
3.22779e-06
3.3751e-06
3.49079e-06
3.57687e-06
3.63518e-06
3.66746e-06
3.67551e-06
3.66013e-06
3.62212e-06
3.56262e-06
3.48273e-06
3.38328e-06
3.26642e-06
3.13022e-06
2.97523e-06
2.80192e-06
2.61041e-06
2.40064e-06
2.17234e-06
1.92397e-06
1.65344e-06
1.35658e-06
1.02996e-06
6.89184e-07
3.92047e-07
8.20568e-09
3.84505e-09
2.53005e-06
5.04776e-06
7.85686e-06
1.1111e-05
1.43335e-05
1.6883e-05
1.85629e-05
1.96137e-05
2.03338e-05
2.09199e-05
2.14859e-05
2.20965e-05
2.27936e-05
2.36247e-05
2.45743e-05
2.47377e-05
2.42411e-05
2.36408e-05
2.29487e-05
2.21761e-05
2.13325e-05
2.04196e-05
1.94434e-05
1.8407e-05
1.73104e-05
1.61525e-05
1.49371e-05
1.24986e-05
9.80883e-06
6.93745e-06
4.48028e-06
3.29098e-06
2.26114e-06
3.13888e-08
4.62839e-09
2.45634e-06
4.74628e-06
7.2948e-06
1.03451e-05
1.39837e-05
1.79891e-05
2.1776e-05
2.46955e-05
2.64555e-05
2.71726e-05
2.71423e-05
2.66572e-05
2.59391e-05
2.51329e-05
2.43206e-05
2.35278e-05
2.27403e-05
2.19439e-05
2.11428e-05
2.03499e-05
1.95814e-05
1.88573e-05
1.81835e-05
1.75244e-05
1.67935e-05
1.58525e-05
1.45223e-05
1.26199e-05
1.00812e-05
7.33533e-06
5.43954e-06
5.45353e-06
2.53454e-06
5.01761e-08
9.00548e-09
2.12413e-06
4.48243e-06
7.51794e-06
1.14567e-05
1.61903e-05
2.10299e-05
2.50642e-05
2.77988e-05
2.92247e-05
2.95392e-05
2.90101e-05
2.79268e-05
2.65457e-05
2.50549e-05
2.35689e-05
2.21437e-05
2.07979e-05
1.95325e-05
1.83481e-05
1.72579e-05
1.62917e-05
1.5483e-05
1.48555e-05
1.44024e-05
1.4048e-05
1.36147e-05
1.28214e-05
1.13885e-05
9.31381e-06
7.19878e-06
6.12381e-06
7.47801e-06
2.42705e-06
6.48795e-08
1.34945e-08
2.15479e-06
4.81863e-06
8.67793e-06
1.40838e-05
2.05581e-05
2.65779e-05
3.08463e-05
3.25188e-05
3.30719e-05
3.25289e-05
3.07051e-05
2.8485e-05
2.62436e-05
2.41718e-05
2.23343e-05
2.07209e-05
1.92887e-05
1.7989e-05
1.67841e-05
1.566e-05
1.46393e-05
1.37705e-05
1.30929e-05
1.26141e-05
1.22811e-05
1.19332e-05
1.12945e-05
1.01153e-05
8.4885e-06
7.04149e-06
6.80497e-06
9.04297e-06
2.32827e-06
7.5693e-08
1.90964e-08
2.17027e-06
5.06352e-06
9.64626e-06
1.64026e-05
2.41449e-05
3.02944e-05
3.37117e-05
3.46882e-05
3.38141e-05
3.1738e-05
2.90953e-05
2.63938e-05
2.3927e-05
2.17992e-05
2.00102e-05
1.85069e-05
1.72203e-05
1.60851e-05
1.50516e-05
1.40958e-05
1.32238e-05
1.24627e-05
1.18361e-05
1.13467e-05
1.09537e-05
1.05362e-05
9.89609e-06
8.89103e-06
7.67949e-06
6.83066e-06
7.34212e-06
9.69722e-06
2.26544e-06
8.34872e-08
2.39886e-08
2.22611e-06
5.33674e-06
1.05317e-05
1.83641e-05
2.69018e-05
3.29197e-05
3.56462e-05
3.5697e-05
3.38388e-05
3.08986e-05
2.76491e-05
2.46125e-05
2.20174e-05
1.98954e-05
1.81845e-05
1.67961e-05
1.56441e-05
1.46548e-05
1.37735e-05
1.29743e-05
1.22603e-05
1.16327e-05
1.10788e-05
1.05823e-05
1.01056e-05
9.56644e-06
8.85844e-06
7.9568e-06
7.0638e-06
6.68511e-06
7.80564e-06
9.60559e-06
2.20733e-06
8.98113e-08
2.88483e-08
2.27357e-06
5.52631e-06
1.11504e-05
1.97649e-05
2.87644e-05
3.44612e-05
3.64799e-05
3.57218e-05
3.31282e-05
2.96604e-05
2.61245e-05
2.29863e-05
2.03957e-05
1.83238e-05
1.668e-05
1.53692e-05
1.43081e-05
1.34307e-05
1.26922e-05
1.20723e-05
1.15577e-05
1.11013e-05
1.06441e-05
1.0142e-05
9.56492e-06
8.88527e-06
8.09098e-06
7.24825e-06
6.57585e-06
6.52916e-06
8.08494e-06
9.20808e-06
2.16024e-06
9.56075e-08
3.29446e-08
2.31421e-06
5.66426e-06
1.15756e-05
2.06908e-05
2.99013e-05
3.53056e-05
3.68305e-05
3.55348e-05
3.24751e-05
2.87026e-05
2.50283e-05
2.18609e-05
1.92871e-05
1.72436e-05
1.56277e-05
1.43432e-05
1.3314e-05
1.2485e-05
1.18277e-05
1.13404e-05
1.10004e-05
1.07189e-05
1.0388e-05
9.92184e-06
9.28156e-06
8.48542e-06
7.60759e-06
6.78565e-06
6.24772e-06
6.41905e-06
8.26564e-06
8.72505e-06
2.11824e-06
1.01595e-07
3.70676e-08
2.35045e-06
5.77124e-06
1.18998e-05
2.13953e-05
3.07242e-05
3.58494e-05
3.69607e-05
3.52513e-05
3.18696e-05
2.79154e-05
2.41776e-05
2.10109e-05
1.84596e-05
1.64352e-05
1.48286e-05
1.35492e-05
1.25292e-05
1.17243e-05
1.11223e-05
1.07386e-05
1.05383e-05
1.04052e-05
1.0194e-05
9.7789e-06
9.10658e-06
8.22816e-06
7.28538e-06
6.46953e-06
6.01476e-06
6.32845e-06
8.36146e-06
8.26595e-06
2.08187e-06
1.07767e-07
4.08907e-08
2.38108e-06
5.85209e-06
1.21333e-05
2.18832e-05
3.12502e-05
3.61451e-05
3.69555e-05
3.49643e-05
3.13816e-05
2.73306e-05
2.3573e-05
2.04198e-05
1.7885e-05
1.58679e-05
1.42559e-05
1.29592e-05
1.19201e-05
1.11073e-05
1.05243e-05
1.02041e-05
1.01037e-05
1.00925e-05
9.99805e-06
9.65662e-06
8.99227e-06
8.07301e-06
7.08793e-06
6.27059e-06
5.86587e-06
6.27509e-06
8.43475e-06
7.85796e-06
2.05111e-06
1.14047e-07
4.48393e-08
2.41032e-06
5.92857e-06
1.23559e-05
2.23403e-05
3.17214e-05
3.63938e-05
3.6934e-05
3.47049e-05
3.09672e-05
2.68539e-05
2.30949e-05
1.9962e-05
1.74448e-05
1.54338e-05
1.38158e-05
1.25048e-05
1.14456e-05
1.06153e-05
1.00342e-05
9.74923e-06
9.71082e-06
9.78332e-06
9.77986e-06
9.51017e-06
8.87661e-06
7.9519e-06
6.95365e-06
6.14229e-06
5.7745e-06
6.25635e-06
8.51231e-06
7.50383e-06
2.0259e-06
1.20225e-07
4.87604e-08
2.43763e-06
5.99703e-06
1.2548e-05
2.27179e-05
3.20835e-05
3.65587e-05
3.68818e-05
3.44773e-05
3.06406e-05
2.65015e-05
2.27564e-05
1.96451e-05
1.71401e-05
1.51268e-05
1.34935e-05
1.2158e-05
1.10701e-05
1.02131e-05
9.61806e-06
9.34495e-06
9.34062e-06
9.46849e-06
9.53574e-06
9.33512e-06
8.74995e-06
7.8485e-06
6.86138e-06
6.06614e-06
5.73175e-06
6.27645e-06
8.61526e-06
7.20678e-06
2.00697e-06
1.26233e-07
5.27736e-08
2.46443e-06
6.06702e-06
1.27482e-05
2.31065e-05
3.24471e-05
3.67263e-05
3.68444e-05
3.42838e-05
3.03689e-05
2.62196e-05
2.24974e-05
1.94118e-05
1.6921e-05
1.4907e-05
1.32594e-05
1.18994e-05
1.07815e-05
9.89487e-06
9.27908e-06
9.00205e-06
9.00951e-06
9.16728e-06
9.28148e-06
9.13645e-06
8.60297e-06
7.74202e-06
6.78633e-06
6.02087e-06
5.72442e-06
6.33202e-06
8.74891e-06
6.95804e-06
1.99365e-06
1.31982e-07
5.68405e-08
2.49075e-06
6.13496e-06
1.29379e-05
2.34617e-05
3.27628e-05
3.68628e-05
3.68098e-05
3.41331e-05
3.01739e-05
2.60341e-05
2.23407e-05
1.92789e-05
1.67969e-05
1.47757e-05
1.31072e-05
1.17163e-05
1.05618e-05
9.63786e-06
8.99078e-06
8.69638e-06
8.69962e-06
8.86937e-06
9.01495e-06
8.91786e-06
8.44018e-06
7.63328e-06
6.72458e-06
6.00007e-06
5.74732e-06
6.42118e-06
8.91337e-06
6.75636e-06
1.98604e-06
1.37499e-07
6.09485e-08
2.51683e-06
6.20495e-06
1.31361e-05
2.38293e-05
3.30863e-05
3.70104e-05
3.6796e-05
3.40163e-05
3.00257e-05
2.59048e-05
2.22462e-05
1.92122e-05
1.67423e-05
1.47162e-05
1.3028e-05
1.16058e-05
1.04122e-05
9.44661e-06
8.76043e-06
8.43734e-06
8.42368e-06
8.59028e-06
8.75035e-06
8.68857e-06
8.26303e-06
7.51603e-06
6.66514e-06
5.99208e-06
5.79123e-06
6.53818e-06
9.10435e-06
6.59436e-06
1.9834e-06
1.42772e-07
6.51178e-08
2.54291e-06
6.27487e-06
1.33314e-05
2.4182e-05
3.33875e-05
3.715e-05
3.67994e-05
3.39445e-05
2.99436e-05
2.58515e-05
2.22292e-05
1.92206e-05
1.67592e-05
1.47248e-05
1.30133e-05
1.15555e-05
1.03178e-05
9.30436e-06
8.57002e-06
8.20625e-06
8.16384e-06
8.31672e-06
8.48284e-06
8.45053e-06
8.07702e-06
7.39515e-06
6.60977e-06
5.99553e-06
5.85277e-06
6.67857e-06
9.31516e-06
6.46613e-06
1.98493e-06
1.47847e-07
6.93009e-08
2.56892e-06
6.34678e-06
1.35343e-05
2.4546e-05
3.3698e-05
3.73033e-05
3.68249e-05
3.39036e-05
2.98998e-05
2.5842e-05
2.22606e-05
1.9282e-05
1.6834e-05
1.47956e-05
1.30636e-05
1.15708e-05
1.02873e-05
9.2211e-06
8.43096e-06
8.01503e-06
7.93138e-06
8.05758e-06
8.21782e-06
8.2067e-06
7.8818e-06
7.26686e-06
6.55239e-06
6.00371e-06
5.92598e-06
6.83787e-06
9.54247e-06
6.36861e-06
1.99044e-06
1.52733e-07
7.35347e-08
2.59494e-06
6.41934e-06
1.37386e-05
2.49064e-05
3.40012e-05
3.74604e-05
3.68717e-05
3.39014e-05
2.99055e-05
2.58854e-05
2.23442e-05
1.93942e-05
1.6959e-05
1.49167e-05
1.31643e-05
1.16363e-05
1.03051e-05
9.1822e-06
8.32974e-06
7.85161e-06
7.7167e-06
7.80703e-06
7.95388e-06
7.95936e-06
7.68205e-06
7.13585e-06
6.49555e-06
6.01625e-06
6.00803e-06
7.0109e-06
9.77789e-06
6.29332e-06
1.99858e-06
1.57454e-07
7.77728e-08
2.62088e-06
6.49361e-06
1.39503e-05
2.52786e-05
3.43153e-05
3.7633e-05
3.69401e-05
3.39257e-05
2.99407e-05
2.59608e-05
2.24635e-05
1.95474e-05
1.71309e-05
1.50906e-05
1.33226e-05
1.1762e-05
1.03829e-05
9.19967e-06
8.27768e-06
7.72633e-06
7.52846e-06
7.5713e-06
7.69433e-06
7.70876e-06
7.47537e-06
6.99805e-06
6.43478e-06
6.02922e-06
6.09547e-06
7.19487e-06
1.00206e-05
6.24027e-06
2.00962e-06
1.62024e-07
8.20465e-08
2.64652e-06
6.56843e-06
1.41663e-05
2.56565e-05
3.46339e-05
3.78173e-05
3.70299e-05
3.39782e-05
3.00065e-05
2.60661e-05
2.26119e-05
1.973e-05
1.73344e-05
1.52993e-05
1.35196e-05
1.19294e-05
1.05038e-05
9.25905e-06
8.26355e-06
7.63142e-06
7.36243e-06
7.34984e-06
7.44191e-06
7.45985e-06
7.26726e-06
6.85792e-06
6.3724e-06
6.04259e-06
6.18668e-06
7.38631e-06
1.02638e-05
6.20183e-06
2.02225e-06
1.66452e-07
8.63242e-08
2.67182e-06
6.64406e-06
1.43887e-05
2.6048e-05
3.497e-05
3.80235e-05
3.71421e-05
3.40517e-05
3.00924e-05
2.61931e-05
2.27858e-05
1.9944e-05
1.75757e-05
1.55523e-05
1.37666e-05
1.2151e-05
1.068e-05
9.37157e-06
8.29689e-06
7.57424e-06
7.22402e-06
7.14601e-06
7.19783e-06
7.2117e-06
7.05502e-06
6.71173e-06
6.30445e-06
6.05255e-06
6.27785e-06
7.58191e-06
1.05075e-05
6.17837e-06
2.03675e-06
1.7075e-07
9.06198e-08
2.69642e-06
6.7192e-06
1.4614e-05
2.64461e-05
3.53104e-05
3.82377e-05
3.72679e-05
3.4137e-05
3.01883e-05
2.633e-05
2.29709e-05
2.01718e-05
1.78353e-05
1.58294e-05
1.40441e-05
1.24088e-05
1.08964e-05
9.52539e-06
8.36934e-06
7.55052e-06
7.11257e-06
6.96236e-06
6.96721e-06
6.97075e-06
6.84495e-06
6.56455e-06
6.23432e-06
6.06082e-06
6.36931e-06
7.78049e-06
1.07479e-05
6.1647e-06
2.05223e-06
1.74914e-07
9.4919e-08
2.72054e-06
6.79391e-06
1.48396e-05
2.68395e-05
3.56316e-05
3.84346e-05
3.73867e-05
3.42245e-05
3.0293e-05
2.64803e-05
2.31741e-05
2.04231e-05
1.81244e-05
1.61427e-05
1.43644e-05
1.2715e-05
1.11646e-05
9.73078e-06
8.48936e-06
7.56665e-06
7.03218e-06
6.801e-06
6.7504e-06
6.7358e-06
6.6345e-06
6.41281e-06
6.15793e-06
6.06332e-06
6.45694e-06
7.97732e-06
1.09816e-05
6.16006e-06
2.06865e-06
1.7896e-07
9.92182e-08
2.74398e-06
6.86811e-06
1.50654e-05
2.72251e-05
3.59389e-05
3.86182e-05
3.74947e-05
3.43143e-05
3.03981e-05
2.66283e-05
2.33759e-05
2.06765e-05
1.84212e-05
1.6471e-05
1.47081e-05
1.3053e-05
1.14714e-05
9.97884e-06
8.6523e-06
7.62239e-06
6.9854e-06
6.66676e-06
6.55377e-06
6.51381e-06
6.43018e-06
6.26187e-06
6.07923e-06
6.06251e-06
6.54217e-06
8.17479e-06
1.12153e-05
6.16298e-06
2.08578e-06
1.82887e-07
1.03525e-07
2.76695e-06
6.9426e-06
1.52944e-05
2.76007e-05
3.62281e-05
3.87836e-05
3.75863e-05
3.43906e-05
3.04978e-05
2.67791e-05
2.35871e-05
2.0945e-05
1.87388e-05
1.68265e-05
1.50859e-05
1.34321e-05
1.1825e-05
1.02769e-05
8.86474e-06
7.72353e-06
6.97643e-06
6.56222e-06
6.37848e-06
6.30464e-06
6.23063e-06
6.10927e-06
5.99502e-06
6.05503e-06
6.6218e-06
8.3693e-06
1.14457e-05
6.17418e-06
2.1034e-06
1.86705e-07
1.07808e-07
2.78866e-06
7.015e-06
1.55224e-05
2.79655e-05
3.64993e-05
3.89299e-05
3.76596e-05
3.44516e-05
3.05871e-05
2.69208e-05
2.37897e-05
2.12078e-05
1.90562e-05
1.71893e-05
1.54801e-05
1.38373e-05
1.22141e-05
1.06174e-05
9.12366e-06
7.87193e-06
7.00979e-06
6.49365e-06
6.23176e-06
6.11568e-06
6.04258e-06
5.96057e-06
5.9094e-06
6.0434e-06
6.6969e-06
8.56166e-06
1.16715e-05
6.19297e-06
2.12176e-06
1.90419e-07
1.12101e-07
2.80976e-06
7.08597e-06
1.57471e-05
2.83192e-05
3.67519e-05
3.90571e-05
3.77155e-05
3.44985e-05
3.06741e-05
2.7062e-05
2.39939e-05
2.14765e-05
1.93849e-05
1.75695e-05
1.58987e-05
1.42747e-05
1.2643e-05
1.10041e-05
9.43256e-06
8.07132e-06
7.08839e-06
6.46331e-06
6.11542e-06
5.94815e-06
5.8664e-06
5.81506e-06
5.82079e-06
6.02575e-06
6.76668e-06
8.75356e-06
1.18942e-05
6.21916e-06
2.14095e-06
1.94044e-07
1.16363e-07
2.82989e-06
7.1553e-06
1.59694e-05
2.86626e-05
3.69854e-05
3.91619e-05
3.77467e-05
3.45192e-05
3.07336e-05
2.71795e-05
2.41799e-05
2.17329e-05
1.97076e-05
1.79509e-05
1.6327e-05
1.47316e-05
1.31015e-05
1.14295e-05
9.78694e-06
8.32025e-06
7.21383e-06
6.47515e-06
6.03505e-06
5.80847e-06
5.70851e-06
5.67845e-06
5.73382e-06
6.00577e-06
6.83371e-06
8.94496e-06
1.21137e-05
6.25021e-06
2.16066e-06
1.97573e-07
1.20647e-07
2.84964e-06
7.22404e-06
1.61907e-05
2.89969e-05
3.72017e-05
3.92479e-05
3.77602e-05
3.45249e-05
3.07823e-05
2.72903e-05
2.43628e-05
2.19894e-05
2.0034e-05
1.83407e-05
1.67697e-05
1.52102e-05
1.359e-05
1.1893e-05
1.01856e-05
8.61703e-06
7.38501e-06
6.52886e-06
5.99107e-06
5.69762e-06
5.57005e-06
5.55159e-06
5.64871e-06
5.98283e-06
6.89608e-06
9.13235e-06
1.23293e-05
6.28616e-06
2.18086e-06
2.01015e-07
1.24899e-07
2.86864e-06
7.29157e-06
1.64096e-05
2.93195e-05
3.73968e-05
3.93084e-05
3.77448e-05
3.45001e-05
3.08009e-05
2.73747e-05
2.45241e-05
2.22294e-05
2.03496e-05
1.8726e-05
1.72155e-05
1.57007e-05
1.41002e-05
1.23874e-05
1.0623e-05
8.95741e-06
7.6006e-06
6.62543e-06
5.98634e-06
5.61992e-06
5.45617e-06
5.43968e-06
5.57005e-06
5.96057e-06
6.95646e-06
9.31739e-06
1.25406e-05
6.32483e-06
2.20124e-06
2.04356e-07
1.29193e-07
2.88772e-06
7.35978e-06
1.66294e-05
2.96342e-05
3.75749e-05
3.9349e-05
3.77093e-05
3.44568e-05
3.08042e-05
2.74478e-05
2.46771e-05
2.24635e-05
2.0662e-05
1.9112e-05
1.76668e-05
1.6203e-05
1.46297e-05
1.29096e-05
1.10954e-05
9.33794e-06
7.85787e-06
6.76291e-06
6.01975e-06
5.57522e-06
5.36762e-06
5.34401e-06
5.49915e-06
5.93976e-06
7.01457e-06
9.49904e-06
1.27479e-05
6.36637e-06
2.22176e-06
2.07598e-07
1.33459e-07
2.9064e-06
7.42776e-06
1.68462e-05
2.99344e-05
3.7729e-05
3.93615e-05
3.76425e-05
3.43807e-05
3.07756e-05
2.74944e-05
2.48069e-05
2.2678e-05
2.09598e-05
1.94889e-05
1.81154e-05
1.67099e-05
1.5172e-05
1.34529e-05
1.15968e-05
9.75349e-06
8.1539e-06
6.94026e-06
6.09193e-06
5.56563e-06
5.30774e-06
5.26859e-06
5.44004e-06
5.92418e-06
7.07456e-06
9.67991e-06
1.2951e-05
6.40905e-06
2.24215e-06
2.10722e-07
1.37751e-07
2.92532e-06
7.49809e-06
1.70629e-05
3.02262e-05
3.78661e-05
3.93526e-05
3.75533e-05
3.42844e-05
3.07293e-05
2.75271e-05
2.4924e-05
2.28818e-05
2.12493e-05
1.98608e-05
1.85628e-05
1.72202e-05
1.57237e-05
1.40128e-05
1.2122e-05
1.01992e-05
8.48445e-06
7.15407e-06
6.20042e-06
5.58979e-06
5.27632e-06
5.21425e-06
5.39428e-06
5.91612e-06
7.1394e-06
9.8611e-06
1.31512e-05
6.45299e-06
2.26235e-06
2.13723e-07
1.41969e-07
2.94258e-06
7.56497e-06
1.72738e-05
3.05044e-05
3.79804e-05
3.93168e-05
3.74341e-05
3.41532e-05
3.06461e-05
2.75261e-05
2.5014e-05
2.30642e-05
2.15223e-05
2.02206e-05
1.9003e-05
1.77288e-05
1.62796e-05
1.45834e-05
1.26647e-05
1.06688e-05
8.84484e-06
7.40112e-06
6.34343e-06
5.6474e-06
5.27464e-06
5.1837e-06
5.36559e-06
5.91955e-06
7.21224e-06
1.00472e-05
1.33498e-05
6.49737e-06
2.28224e-06
2.16583e-07
1.46232e-07
2.95998e-06
7.63336e-06
1.74896e-05
3.07786e-05
3.8081e-05
3.92641e-05
3.72978e-05
3.40084e-05
3.05513e-05
2.75112e-05
2.50866e-05
2.323e-05
2.1782e-05
2.05702e-05
1.9436e-05
1.82338e-05
1.68366e-05
1.51606e-05
1.32202e-05
1.11575e-05
9.2302e-06
7.6769e-06
6.51709e-06
5.73547e-06
5.30081e-06
5.17626e-06
5.35428e-06
5.93515e-06
7.29354e-06
1.02388e-05
1.35475e-05
6.54246e-06
2.30181e-06
2.193e-07
1.50431e-07
2.97617e-06
7.69896e-06
1.76992e-05
3.1035e-05
3.81568e-05
3.91831e-05
3.71299e-05
3.38296e-05
3.04231e-05
2.74675e-05
2.5137e-05
2.33756e-05
2.2023e-05
2.09053e-05
1.98589e-05
1.87328e-05
1.73918e-05
1.57409e-05
1.37842e-05
1.16608e-05
9.63655e-06
7.97814e-06
6.71896e-06
5.85254e-06
5.35451e-06
5.19272e-06
5.36206e-06
5.96526e-06
7.38614e-06
1.04392e-05
1.37446e-05
6.58768e-06
2.32101e-06
2.21859e-07
1.54632e-07
2.99218e-06
7.76489e-06
1.79102e-05
3.12844e-05
3.8218e-05
3.90855e-05
3.69453e-05
3.36353e-05
3.02795e-05
2.74073e-05
2.5171e-05
2.35071e-05
2.22508e-05
2.12265e-05
2.02695e-05
1.92223e-05
1.79408e-05
1.63192e-05
1.43514e-05
1.21733e-05
1.0059e-05
8.30046e-06
6.94527e-06
5.99562e-06
5.43369e-06
5.23206e-06
5.38876e-06
6.01023e-06
7.49062e-06
1.06491e-05
1.39425e-05
6.6335e-06
2.33987e-06
2.24263e-07
1.58765e-07
3.00717e-06
7.82841e-06
1.81153e-05
3.15162e-05
3.82555e-05
3.89612e-05
3.67318e-05
3.34113e-05
3.01074e-05
2.73211e-05
2.51824e-05
2.36191e-05
2.24625e-05
2.15342e-05
2.06674e-05
1.97017e-05
1.84829e-05
1.68937e-05
1.49188e-05
1.26913e-05
1.04936e-05
8.64025e-06
7.19298e-06
6.16244e-06
5.53707e-06
5.29409e-06
5.43518e-06
6.07167e-06
7.60919e-06
1.08708e-05
1.4142e-05
6.67985e-06
2.35841e-06
2.26514e-07
1.62862e-07
3.02179e-06
7.89121e-06
1.83185e-05
3.17374e-05
3.82778e-05
3.88205e-05
3.65017e-05
3.31711e-05
2.99192e-05
2.72186e-05
2.51774e-05
2.37149e-05
2.26582e-05
2.18268e-05
2.10512e-05
2.01666e-05
1.90125e-05
1.74593e-05
1.54815e-05
1.32101e-05
1.09359e-05
8.9933e-06
7.4582e-06
6.34958e-06
5.66191e-06
5.37692e-06
5.50031e-06
6.14917e-06
7.74168e-06
1.11038e-05
1.43427e-05
6.72708e-06
2.37669e-06
2.28626e-07
1.66859e-07
3.03531e-06
7.95113e-06
1.85147e-05
3.1941e-05
3.82778e-05
3.86553e-05
3.62455e-05
3.29051e-05
2.97067e-05
2.70938e-05
2.51529e-05
2.37936e-05
2.28387e-05
2.21056e-05
2.14226e-05
2.062e-05
1.95305e-05
1.80148e-05
1.60373e-05
1.37266e-05
1.13822e-05
9.35625e-06
7.73779e-06
6.55416e-06
5.80582e-06
5.47889e-06
5.5833e-06
6.24265e-06
7.88852e-06
1.13484e-05
1.45437e-05
6.77503e-06
2.39474e-06
2.30609e-07
1.70795e-07
3.04839e-06
8.00995e-06
1.87079e-05
3.21332e-05
3.82627e-05
3.84737e-05
3.59726e-05
3.2623e-05
2.94784e-05
2.69532e-05
2.51127e-05
2.38565e-05
2.30033e-05
2.23685e-05
2.17781e-05
2.10582e-05
2.0034e-05
1.85569e-05
1.65829e-05
1.42379e-05
1.18296e-05
9.72639e-06
8.02908e-06
6.77355e-06
5.96626e-06
5.59777e-06
5.68241e-06
6.35089e-06
8.04886e-06
1.16037e-05
1.47454e-05
6.82397e-06
2.4126e-06
2.32477e-07
1.74612e-07
3.06037e-06
8.06563e-06
1.88931e-05
3.23076e-05
3.82269e-05
3.82698e-05
3.56769e-05
3.23191e-05
2.923e-05
2.67942e-05
2.50561e-05
2.39047e-05
2.31541e-05
2.2618e-05
2.21201e-05
2.14825e-05
2.05233e-05
1.9085e-05
1.71165e-05
1.47416e-05
1.22759e-05
1.01016e-05
8.3301e-06
7.00589e-06
6.14154e-06
5.73213e-06
5.7966e-06
6.47328e-06
8.22247e-06
1.18697e-05
1.49478e-05
6.87378e-06
2.43028e-06
2.34239e-07
1.78354e-07
3.0719e-06
8.12012e-06
1.90752e-05
3.24709e-05
3.81764e-05
3.80497e-05
3.53646e-05
3.19994e-05
2.89668e-05
2.66208e-05
2.49856e-05
2.39391e-05
2.3291e-05
2.28533e-05
2.24475e-05
2.18917e-05
2.09971e-05
1.95977e-05
1.76355e-05
1.52352e-05
1.27187e-05
1.04799e-05
8.63915e-06
7.24952e-06
6.33003e-06
5.88045e-06
5.92458e-06
6.60879e-06
8.40841e-06
1.21452e-05
1.51508e-05
6.92473e-06
2.44782e-06
2.35907e-07
1.81971e-07
3.08243e-06
8.17164e-06
1.92496e-05
3.26175e-05
3.81068e-05
3.78089e-05
3.50315e-05
3.16606e-05
2.86863e-05
2.64318e-05
2.4901e-05
2.39604e-05
2.34155e-05
2.3076e-05
2.27616e-05
2.22863e-05
2.14552e-05
2.00943e-05
1.814e-05
1.57173e-05
1.31565e-05
1.08599e-05
8.95482e-06
7.5032e-06
6.53064e-06
6.04181e-06
6.06563e-06
6.75691e-06
8.60631e-06
1.24299e-05
1.53546e-05
6.97669e-06
2.46523e-06
2.3749e-07
1.85501e-07
3.09246e-06
8.22174e-06
1.94203e-05
3.27528e-05
3.80225e-05
3.75517e-05
3.46821e-05
3.13072e-05
2.83927e-05
2.62302e-05
2.48043e-05
2.39699e-05
2.35279e-05
2.32864e-05
2.30624e-05
2.26662e-05
2.1897e-05
2.05739e-05
1.86285e-05
1.61874e-05
1.35888e-05
1.12403e-05
9.27569e-06
7.76548e-06
6.74202e-06
6.21506e-06
6.21879e-06
6.91683e-06
8.81551e-06
1.27228e-05
1.55593e-05
7.02985e-06
2.48256e-06
2.39002e-07
1.8891e-07
3.10164e-06
8.26934e-06
1.95844e-05
3.28727e-05
3.79197e-05
3.72745e-05
3.43135e-05
3.09371e-05
2.80848e-05
2.60159e-05
2.4696e-05
2.39683e-05
2.36295e-05
2.34855e-05
2.33511e-05
2.30327e-05
2.23236e-05
2.10369e-05
1.91011e-05
1.66451e-05
1.40145e-05
1.16199e-05
9.60048e-06
8.03513e-06
6.96307e-06
6.39921e-06
6.38327e-06
7.08816e-06
9.03533e-06
1.30233e-05
1.57647e-05
7.08416e-06
2.49982e-06
2.40451e-07
1.92228e-07
3.11033e-06
8.3155e-06
1.97445e-05
3.29812e-05
3.78023e-05
3.69812e-05
3.39298e-05
3.05545e-05
2.77662e-05
2.57916e-05
2.45778e-05
2.39566e-05
2.37204e-05
2.36733e-05
2.36275e-05
2.33851e-05
2.27342e-05
2.14829e-05
1.95575e-05
1.70905e-05
1.44344e-05
1.19988e-05
9.92844e-06
8.31091e-06
7.19239e-06
6.59314e-06
6.55872e-06
7.27164e-06
9.26578e-06
1.33308e-05
1.59706e-05
7.13955e-06
2.51702e-06
2.41844e-07
1.95426e-07
3.11827e-06
8.35944e-06
1.98986e-05
3.30747e-05
3.76668e-05
3.66688e-05
3.3529e-05
3.01584e-05
2.74369e-05
2.55577e-05
2.44507e-05
2.3936e-05
2.3802e-05
2.38511e-05
2.38928e-05
2.37249e-05
2.31302e-05
2.19126e-05
1.99981e-05
1.7524e-05
1.4849e-05
1.23774e-05
1.02599e-05
8.59284e-06
7.42967e-06
6.7963e-06
6.74436e-06
7.46592e-06
9.50625e-06
1.36445e-05
1.61772e-05
7.19613e-06
2.53419e-06
2.43186e-07
1.98529e-07
3.12573e-06
8.40198e-06
2.00488e-05
3.31569e-05
3.75169e-05
3.6341e-05
3.31149e-05
2.97525e-05
2.71e-05
2.5317e-05
2.43164e-05
2.39073e-05
2.38745e-05
2.40186e-05
2.41462e-05
2.40509e-05
2.35104e-05
2.23252e-05
2.04225e-05
1.79449e-05
1.52575e-05
1.27552e-05
1.05944e-05
8.88051e-06
7.67448e-06
7.00819e-06
6.93959e-06
7.67037e-06
9.7566e-06
1.39645e-05
1.63842e-05
7.25374e-06
2.55135e-06
2.44474e-07
2.01511e-07
3.13252e-06
8.44244e-06
2.01931e-05
3.32248e-05
3.73498e-05
3.59957e-05
3.26867e-05
2.93369e-05
2.67563e-05
2.50704e-05
2.41763e-05
2.38722e-05
2.39394e-05
2.41771e-05
2.43889e-05
2.43641e-05
2.38755e-05
2.27213e-05
2.08307e-05
1.83536e-05
1.566e-05
1.31322e-05
1.0932e-05
9.17387e-06
7.92685e-06
7.22879e-06
7.14422e-06
7.88459e-06
1.00163e-05
1.42899e-05
1.65921e-05
7.31267e-06
2.56854e-06
2.45719e-07
2.0439e-07
3.13882e-06
8.48147e-06
2.03334e-05
3.32815e-05
3.71685e-05
3.56357e-05
3.2247e-05
2.89144e-05
2.64084e-05
2.48202e-05
2.4032e-05
2.38313e-05
2.39968e-05
2.43262e-05
2.46203e-05
2.46637e-05
2.42248e-05
2.31e-05
2.12224e-05
1.87495e-05
1.6056e-05
1.35079e-05
1.12725e-05
9.47307e-06
8.1866e-06
7.4578e-06
7.358e-06
8.10845e-06
1.02854e-05
1.46209e-05
1.68014e-05
7.3731e-06
2.58585e-06
2.4693e-07
2.07151e-07
3.14447e-06
8.51846e-06
2.04681e-05
3.33247e-05
3.6971e-05
3.52598e-05
3.17958e-05
2.84855e-05
2.60572e-05
2.45678e-05
2.38852e-05
2.37868e-05
2.40486e-05
2.44675e-05
2.48414e-05
2.49503e-05
2.45585e-05
2.34614e-05
2.15972e-05
1.91321e-05
1.64448e-05
1.38821e-05
1.16156e-05
9.77772e-06
8.45349e-06
7.69509e-06
7.58071e-06
8.34161e-06
1.05633e-05
1.49568e-05
1.70123e-05
7.43518e-06
2.6033e-06
2.48117e-07
2.09806e-07
3.14962e-06
8.55393e-06
2.05986e-05
3.33564e-05
3.67587e-05
3.48693e-05
3.13346e-05
2.8052e-05
2.57047e-05
2.43151e-05
2.37375e-05
2.37397e-05
2.40957e-05
2.46015e-05
2.50526e-05
2.52242e-05
2.48767e-05
2.38055e-05
2.19551e-05
1.95011e-05
1.68259e-05
1.4254e-05
1.19611e-05
1.00879e-05
8.72789e-06
7.94063e-06
7.81219e-06
8.58398e-06
1.08501e-05
1.5298e-05
1.72252e-05
7.49894e-06
2.62094e-06
2.49288e-07
2.12349e-07
3.15416e-06
8.58753e-06
2.07241e-05
3.33755e-05
3.65304e-05
3.44631e-05
3.08628e-05
2.76139e-05
2.53515e-05
2.40637e-05
2.35907e-05
2.36915e-05
2.41393e-05
2.47296e-05
2.52549e-05
2.54862e-05
2.51799e-05
2.41323e-05
2.22956e-05
1.98558e-05
1.71979e-05
1.46222e-05
1.23077e-05
1.0403e-05
9.00953e-06
8.19451e-06
8.05262e-06
8.83551e-06
1.11456e-05
1.56439e-05
1.74402e-05
7.56443e-06
2.63879e-06
2.5045e-07
2.14788e-07
3.15818e-06
8.61955e-06
2.08454e-05
3.33824e-05
3.62861e-05
3.40413e-05
3.03811e-05
2.71717e-05
2.49981e-05
2.38155e-05
2.3446e-05
2.36433e-05
2.41806e-05
2.4853e-05
2.54498e-05
2.57375e-05
2.54693e-05
2.44432e-05
2.262e-05
2.01971e-05
1.75607e-05
1.4986e-05
1.26545e-05
1.0722e-05
9.29792e-06
8.45703e-06
8.30254e-06
9.09715e-06
1.1451e-05
1.59962e-05
1.76589e-05
7.63193e-06
2.65694e-06
2.51615e-07
2.17126e-07
3.16168e-06
8.64998e-06
2.09624e-05
3.33767e-05
3.60246e-05
3.36033e-05
2.98894e-05
2.67258e-05
2.46442e-05
2.35687e-05
2.33024e-05
2.35951e-05
2.42207e-05
2.49731e-05
2.56386e-05
2.59795e-05
2.57459e-05
2.47389e-05
2.29292e-05
2.05256e-05
1.79141e-05
1.53443e-05
1.30002e-05
1.1044e-05
9.59227e-06
8.72742e-06
8.56122e-06
9.36831e-06
1.17656e-05
1.6354e-05
1.78809e-05
7.70148e-06
2.67542e-06
2.52793e-07
2.19372e-07
3.16468e-06
8.67899e-06
2.10756e-05
3.33582e-05
3.57454e-05
3.31487e-05
2.93881e-05
2.62767e-05
2.42906e-05
2.33234e-05
2.31604e-05
2.35481e-05
2.42609e-05
2.50915e-05
2.58231e-05
2.62138e-05
2.60117e-05
2.50217e-05
2.32257e-05
2.0844e-05
1.82591e-05
1.56972e-05
1.3344e-05
1.13677e-05
9.89164e-06
9.00547e-06
8.82981e-06
9.65063e-06
1.20915e-05
1.67195e-05
1.81073e-05
7.77339e-06
2.6944e-06
2.53997e-07
2.21529e-07
3.16721e-06
8.7066e-06
2.11847e-05
3.3326e-05
3.54475e-05
3.26774e-05
2.88779e-05
2.58254e-05
2.39379e-05
2.30801e-05
2.30202e-05
2.35025e-05
2.43014e-05
2.52086e-05
2.60039e-05
2.64412e-05
2.62675e-05
2.5293e-05
2.35119e-05
2.11555e-05
1.85975e-05
1.60447e-05
1.36853e-05
1.16922e-05
1.01948e-05
9.28966e-06
9.10601e-06
9.9414e-06
1.24266e-05
1.70903e-05
1.83359e-05
7.84715e-06
2.71385e-06
2.55226e-07
2.23608e-07
3.16929e-06
8.73301e-06
2.12904e-05
3.32799e-05
3.51303e-05
3.21897e-05
2.83597e-05
2.53727e-05
2.35867e-05
2.28389e-05
2.28821e-05
2.34582e-05
2.43425e-05
2.53249e-05
2.61816e-05
2.66628e-05
2.65148e-05
2.55545e-05
2.379e-05
2.1463e-05
1.89305e-05
1.63871e-05
1.40233e-05
1.20165e-05
1.0501e-05
9.57972e-06
9.39082e-06
1.02433e-05
1.27727e-05
1.74685e-05
1.85675e-05
7.92289e-06
2.73379e-06
2.56486e-07
2.25611e-07
3.17091e-06
8.75806e-06
2.13918e-05
3.32186e-05
3.47935e-05
3.16865e-05
2.78353e-05
2.49205e-05
2.32386e-05
2.26012e-05
2.27468e-05
2.34161e-05
2.43846e-05
2.54407e-05
2.63566e-05
2.68787e-05
2.67535e-05
2.58064e-05
2.40601e-05
2.17662e-05
1.92584e-05
1.67245e-05
1.4358e-05
1.23399e-05
1.08088e-05
9.87396e-06
9.68196e-06
1.05534e-05
1.31283e-05
1.78526e-05
1.88014e-05
8.00046e-06
2.75423e-06
2.57779e-07
2.27546e-07
3.17204e-06
8.7818e-06
2.14891e-05
3.31417e-05
3.44364e-05
3.11683e-05
2.73057e-05
2.44694e-05
2.28938e-05
2.23667e-05
2.2614e-05
2.33754e-05
2.44273e-05
2.55559e-05
2.65291e-05
2.70895e-05
2.69844e-05
2.60489e-05
2.43217e-05
2.20631e-05
1.95797e-05
1.7056e-05
1.46887e-05
1.26619e-05
1.11183e-05
1.01727e-05
9.98029e-06
1.08734e-05
1.34951e-05
1.8244e-05
1.90374e-05
8.07955e-06
2.77514e-06
2.59104e-07
2.29408e-07
3.17261e-06
8.8037e-06
2.15805e-05
3.30481e-05
3.40599e-05
3.06372e-05
2.67735e-05
2.4022e-05
2.25546e-05
2.21374e-05
2.2485e-05
2.33372e-05
2.44709e-05
2.56702e-05
2.66987e-05
2.72948e-05
2.72074e-05
2.62821e-05
2.4574e-05
2.23519e-05
1.98929e-05
1.73802e-05
1.50139e-05
1.2981e-05
1.14276e-05
1.04741e-05
1.02842e-05
1.12019e-05
1.38724e-05
1.86424e-05
1.92749e-05
8.15981e-06
2.79647e-06
2.60458e-07
2.31203e-07
3.17259e-06
8.8239e-06
2.16665e-05
3.29373e-05
3.36627e-05
3.00926e-05
2.62385e-05
2.35782e-05
2.2221e-05
2.19137e-05
2.23605e-05
2.33019e-05
2.45159e-05
2.57844e-05
2.68662e-05
2.74958e-05
2.74239e-05
2.65073e-05
2.48184e-05
2.26328e-05
2.01981e-05
1.76971e-05
1.53336e-05
1.32971e-05
1.17369e-05
1.07786e-05
1.05943e-05
1.15399e-05
1.42612e-05
1.90493e-05
1.95145e-05
8.24175e-06
2.81831e-06
2.6185e-07
2.3292e-07
3.17179e-06
8.84142e-06
2.17449e-05
3.28089e-05
3.32459e-05
2.9536e-05
2.57021e-05
2.31393e-05
2.18946e-05
2.16968e-05
2.22416e-05
2.32704e-05
2.45625e-05
2.58979e-05
2.70306e-05
2.76915e-05
2.76334e-05
2.6725e-05
2.50557e-05
2.29063e-05
2.04955e-05
1.80067e-05
1.56472e-05
1.36092e-05
1.20447e-05
1.10844e-05
1.0909e-05
1.18858e-05
1.46598e-05
1.94624e-05
1.9754e-05
8.32453e-06
2.84055e-06
2.63278e-07
2.34569e-07
3.17027e-06
8.85669e-06
2.1817e-05
3.26624e-05
3.28071e-05
2.89652e-05
2.51628e-05
2.27046e-05
2.15756e-05
2.14886e-05
2.21309e-05
2.32456e-05
2.46138e-05
2.60136e-05
2.71946e-05
2.78841e-05
2.78378e-05
2.69373e-05
2.52887e-05
2.31741e-05
2.07863e-05
1.83099e-05
1.59557e-05
1.39179e-05
1.23516e-05
1.13923e-05
1.1229e-05
1.22407e-05
1.50698e-05
1.98828e-05
1.99938e-05
8.4082e-06
2.86322e-06
2.64737e-07
2.36153e-07
3.16793e-06
8.86922e-06
2.18819e-05
3.24974e-05
3.23455e-05
2.83792e-05
2.46196e-05
2.22735e-05
2.12643e-05
2.12895e-05
2.20294e-05
2.32291e-05
2.46715e-05
2.6133e-05
2.73592e-05
2.80747e-05
2.8039e-05
2.7147e-05
2.55209e-05
2.34385e-05
2.10721e-05
1.86081e-05
1.62599e-05
1.42238e-05
1.26574e-05
1.17012e-05
1.1553e-05
1.26028e-05
1.54887e-05
2.03083e-05
2.02326e-05
8.49235e-06
2.88621e-06
2.66222e-07
2.37696e-07
3.16493e-06
8.87979e-06
2.19415e-05
3.23132e-05
3.18582e-05
2.77754e-05
2.40701e-05
2.18444e-05
2.09608e-05
2.11011e-05
2.19398e-05
2.32247e-05
2.47401e-05
2.62608e-05
2.75289e-05
2.82669e-05
2.82398e-05
2.7357e-05
2.57554e-05
2.37013e-05
2.13535e-05
1.89013e-05
1.65604e-05
1.45279e-05
1.29637e-05
1.20132e-05
1.18827e-05
1.29739e-05
1.59183e-05
2.07398e-05
2.0471e-05
8.57713e-06
2.90959e-06
2.67737e-07
2.39213e-07
3.16136e-06
8.88871e-06
2.19966e-05
3.21088e-05
3.13432e-05
2.71519e-05
2.35124e-05
2.14149e-05
2.06658e-05
2.09231e-05
2.18621e-05
2.32337e-05
2.48225e-05
2.64008e-05
2.77072e-05
2.84639e-05
2.84428e-05
2.75693e-05
2.59939e-05
2.39636e-05
2.16314e-05
1.91902e-05
1.68571e-05
1.48298e-05
1.32697e-05
1.23273e-05
1.22179e-05
1.3353e-05
1.63572e-05
2.11757e-05
2.07079e-05
8.66207e-06
2.93322e-06
2.69277e-07
2.4072e-07
3.15735e-06
8.89643e-06
2.20479e-05
3.18831e-05
3.07985e-05
2.65077e-05
2.29453e-05
2.09825e-05
2.03715e-05
2.07505e-05
2.17948e-05
2.32575e-05
2.4922e-05
2.65573e-05
2.78991e-05
2.867e-05
2.86512e-05
2.77852e-05
2.62353e-05
2.4225e-05
2.19055e-05
1.94744e-05
1.71501e-05
1.51297e-05
1.35764e-05
1.26454e-05
1.25612e-05
1.37417e-05
1.68066e-05
2.1617e-05
2.09436e-05
8.74717e-06
2.95714e-06
2.70837e-07