/*--------------------------------*- C++ -*----------------------------------*\
| =========                 |                                                 |
| \\      /  F ield         | OpenFOAM: The Open Source CFD Toolbox           |
|  \\    /   O peration     | Version:  v1906                                 |
|   \\  /    A nd           | Web:      www.OpenFOAM.com                      |
|    \\/     M anipulation  |                                                 |
\*---------------------------------------------------------------------------*/
FoamFile
{
    version     2.0;
    format      ascii;
    class       volScalarField;
    location    "82";
    object      k;
}
// * * * * * * * * * * * * * * * * * * * * * * * * * * * * * * * * * * * * * //

dimensions      [0 2 -2 0 0 0 0];


internalField   nonuniform List<scalar> 
78750
(
2.1393e-06
8.32645e-06
1.33137e-05
1.78562e-05
2.21007e-05
2.59762e-05
2.94203e-05
3.2412e-05
3.49614e-05
3.70916e-05
3.88283e-05
4.01955e-05
4.1215e-05
4.19073e-05
4.2292e-05
4.239e-05
4.22107e-05
4.17635e-05
4.10623e-05
4.01209e-05
3.89497e-05
3.75749e-05
3.5975e-05
3.41578e-05
3.21301e-05
2.98949e-05
2.74535e-05
2.48046e-05
2.19323e-05
1.88159e-05
1.54119e-05
1.16876e-05
7.82318e-06
4.46416e-06
2.45194e-06
1.64833e-06
1.6609e-05
3.09371e-05
4.45219e-05
5.68347e-05
6.75077e-05
7.6494e-05
8.39069e-05
8.98774e-05
9.452e-05
9.79416e-05
0.000100246
0.000101535
0.000101907
0.000101457
0.000100295
9.85286e-05
9.62355e-05
9.34782e-05
9.03225e-05
8.68292e-05
8.30513e-05
7.90062e-05
7.47305e-05
7.02484e-05
6.55702e-05
6.07015e-05
5.56699e-05
5.043e-05
4.48098e-05
3.85415e-05
3.1331e-05
2.35942e-05
1.70819e-05
1.3789e-05
1.9842e-06
2.01029e-05
3.7329e-05
5.34579e-05
6.79154e-05
8.02436e-05
9.02891e-05
9.81906e-05
0.00010424
0.000108736
0.00011191
0.000113929
0.000114913
0.000114958
0.000114157
0.000112601
0.000110391
0.000107629
0.000104424
0.00010088
9.71e-05
9.31739e-05
8.91665e-05
8.5107e-05
8.0983e-05
7.67466e-05
7.23268e-05
6.76345e-05
6.25379e-05
5.67962e-05
5.00329e-05
4.20229e-05
3.36189e-05
2.64062e-05
2.20812e-05
3.86092e-06
2.7751e-05
5.00888e-05
7.01159e-05
8.69896e-05
0.000100388
0.000110578
0.000118116
0.000123542
0.00012725
0.000129499
0.000130465
0.000130271
0.000129022
0.000126821
0.000123784
0.000120044
0.000115751
0.000111065
0.00010616
0.000101215
9.64117e-05
9.19025e-05
8.77625e-05
8.39615e-05
8.03746e-05
7.68132e-05
7.30492e-05
6.8807e-05
6.37179e-05
5.73371e-05
4.95275e-05
4.13922e-05
3.40106e-05
2.85944e-05
5.78593e-06
3.46896e-05
6.11811e-05
8.39923e-05
0.000102095
0.000115521
0.000125122
0.000131866
0.000136475
0.000139354
0.000140722
0.000140723
0.000139441
0.000136956
0.000133374
0.00012884
0.000123534
0.000117667
0.000111468
0.000105183
9.90811e-05
9.34489e-05
8.85344e-05
8.44541e-05
8.1163e-05
7.84824e-05
7.61297e-05
7.3745e-05
7.09e-05
6.70833e-05
6.1766e-05
5.48384e-05
4.7408e-05
4.00389e-05
3.34063e-05
8.18843e-06
4.16663e-05
7.17859e-05
9.68338e-05
0.000115774
0.000129185
0.000138503
0.000144942
0.000149207
0.000151655
0.000152457
0.000151689
0.000149403
0.000145682
0.000140662
0.00013454
0.000127561
0.000120001
0.00011216
0.00010436
9.6961e-05
9.03476e-05
8.48254e-05
8.05032e-05
7.7327e-05
7.51207e-05
7.35904e-05
7.23248e-05
7.07975e-05
6.83686e-05
6.43858e-05
5.8642e-05
5.20057e-05
4.46512e-05
3.68918e-05
1.02868e-05
4.73264e-05
8.02484e-05
0.000107007
0.000126608
0.000140101
0.000149316
0.000155579
0.00015958
0.000161636
0.000161873
0.000160332
0.000157053
0.000152137
0.000145769
0.000138203
0.000129751
0.000120752
0.00011157
0.000102599
9.42851e-05
8.70817e-05
8.12466e-05
7.68094e-05
7.36986e-05
7.17675e-05
7.07657e-05
7.03058e-05
6.98363e-05
6.86353e-05
6.59277e-05
6.13543e-05
5.54547e-05
4.81603e-05
3.97338e-05
1.23715e-05
5.28063e-05
8.83965e-05
0.000116807
0.000137107
0.000150784
0.000159999
0.00016617
0.00016997
0.000171682
0.000171391
0.000169115
0.000164896
0.000158869
0.000151265
0.0001424
0.000132638
0.000122377
0.000112042
0.000102103
9.30945e-05
8.54836e-05
7.9392e-05
7.47629e-05
7.15131e-05
6.95384e-05
6.8666e-05
6.85879e-05
6.87914e-05
6.85195e-05
6.68802e-05
6.33248e-05
5.80796e-05
5.09442e-05
4.23455e-05
1.41289e-05
5.73602e-05
9.51852e-05
0.00012505
0.000146071
0.000160057
0.000169399
0.000175572
0.000179245
0.000180672
0.000179915
0.000176977
0.000171914
0.000164894
0.0001562
0.0001462
0.000135315
0.000123995
0.000112728
0.000102069
9.26529e-05
8.48839e-05
7.87136e-05
7.40022e-05
7.06401e-05
6.85443e-05
6.76095e-05
6.76237e-05
6.81571e-05
6.84758e-05
6.76174e-05
6.48673e-05
6.02008e-05
5.33622e-05
4.50449e-05
1.58979e-05
6.19575e-05
0.000102034
0.000133343
0.000155063
0.000169331
0.000178768
0.000184913
0.00018843
0.000189552
0.000188319
0.000184727
0.000178846
0.00017088
0.000161157
0.000150099
0.00013818
0.000125909
0.000113836
0.000102607
9.29489e-05
8.5136e-05
7.89721e-05
7.42437e-05
7.08064e-05
6.8578e-05
6.7496e-05
6.74305e-05
6.80487e-05
6.8679e-05
6.83411e-05
6.6201e-05
6.20485e-05
5.56104e-05
4.78274e-05
1.75384e-05
6.61596e-05
0.000108279
0.000140929
0.000163349
0.00017795
0.000187535
0.000193694
0.000197089
0.000197937
0.00019626
0.000192052
0.0001854
0.000176541
0.00016585
0.000153799
0.000140913
0.000127764
0.000114967
0.000103269
9.34837e-05
8.57286e-05
7.96816e-05
7.50533e-05
7.16517e-05
6.93747e-05
6.81744e-05
6.79764e-05
6.85362e-05
6.92699e-05
6.92305e-05
6.75253e-05
6.3816e-05
5.78213e-05
5.06596e-05
1.92328e-05
7.04053e-05
0.000114534
0.000148464
0.000171518
0.000186403
0.000196101
0.000202252
0.000205513
0.000206083
0.00020397
0.000199162
0.000191765
0.000182049
0.000170431
0.000157429
0.000143623
0.000129634
0.000116149
0.000104018
9.41343e-05
8.64633e-05
8.0579e-05
7.61207e-05
7.28436e-05
7.06125e-05
6.93713e-05
6.90705e-05
6.95283e-05
7.02481e-05
7.03504e-05
6.89391e-05
6.55961e-05
6.00266e-05
5.34478e-05
2.09156e-05
7.45164e-05
0.000120552
0.000155703
0.000179379
0.00019456
0.000204392
0.000210553
0.000213696
0.000214007
0.000211476
0.000206096
0.000197987
0.000187451
0.000174945
0.00016103
0.000146336
0.000131538
0.000117386
0.000104824
9.48373e-05
8.72541e-05
8.15581e-05
7.73198e-05
7.4239e-05
7.214e-05
7.0944e-05
7.06031e-05
7.09715e-05
7.16248e-05
7.17669e-05
7.05381e-05
6.74781e-05
6.22685e-05
5.61612e-05
2.26381e-05
7.85934e-05
0.000126456
0.000162746
0.000186987
0.000202435
0.000212391
0.000218565
0.000221603
0.000221672
0.000218753
0.000212834
0.000204057
0.00019275
0.000179403
0.000164618
0.000149068
0.00013348
0.000118666
0.000105664
9.55356e-05
8.80148e-05
8.25067e-05
7.85141e-05
7.568e-05
7.37846e-05
7.27174e-05
7.2415e-05
7.27433e-05
7.33286e-05
7.34567e-05
7.23296e-05
6.94726e-05
6.45348e-05
5.87601e-05
2.43837e-05
8.26249e-05
0.000132256
0.000169651
0.000194448
0.000210171
0.000220262
0.000226463
0.000229409
0.000229255
0.000225969
0.000219545
0.000210139
0.000198104
0.000183961
0.000168347
0.00015197
0.000135604
0.000120116
0.000106628
9.63e-05
8.87943e-05
8.34476e-05
7.97018e-05
7.71418e-05
7.55009e-05
7.46312e-05
7.44426e-05
7.47929e-05
7.53368e-05
7.54289e-05
7.4344e-05
7.16126e-05
6.68458e-05
6.12565e-05
2.61471e-05
8.65799e-05
0.000137892
0.000176322
0.000201634
0.00021762
0.000227853
0.000234094
0.000236971
0.000236622
0.000233007
0.000226123
0.000216141
0.000203436
0.000188554
0.000172158
0.000154989
0.000137859
0.00012169
0.000107677
9.70884e-05
8.95519e-05
8.434e-05
8.08306e-05
7.85595e-05
7.72095e-05
7.65927e-05
7.65852e-05
7.7024e-05
7.75714e-05
7.7633e-05
7.65559e-05
7.38852e-05
6.91906e-05
6.36455e-05
2.7937e-05
9.05154e-05
0.000143471
0.000182913
0.000208736
0.000224993
0.000235377
0.000241672
0.000244494
0.000243968
0.000240048
0.000232739
0.000222226
0.000208902
0.000193332
0.000176198
0.000158263
0.000140374
0.000123505
0.000108904
9.7965e-05
9.03249e-05
8.52022e-05
8.19147e-05
7.99366e-05
7.89044e-05
7.85863e-05
7.88184e-05
7.9405e-05
8.00001e-05
8.00429e-05
7.89472e-05
7.62799e-05
7.15685e-05
6.59468e-05
2.97329e-05
9.43703e-05
0.000148894
0.000189296
0.000215609
0.000232136
0.000242684
0.000249048
0.000251835
0.000251158
0.000246969
0.000239278
0.000228287
0.000214405
0.000198208
0.000180393
0.000161734
0.000143108
0.000125528
0.000110296
9.89207e-05
9.11011e-05
8.6012e-05
8.29161e-05
8.12296e-05
8.05355e-05
8.05553e-05
8.10811e-05
8.18779e-05
8.25766e-05
8.26308e-05
8.15076e-05
7.87984e-05
7.39842e-05
6.81645e-05
3.15507e-05
9.82049e-05
0.000154268
0.000195617
0.000222422
0.000239231
0.000249954
0.000256395
0.000259154
0.000258337
0.000253898
0.000245857
0.000234431
0.000220041
0.000203273
0.000184824
0.000165482
0.000146138
0.000127832
0.000111914
0.000100002
9.19112e-05
8.67884e-05
8.38458e-05
8.24418e-05
8.21019e-05
8.24939e-05
8.3359e-05
8.44135e-05
8.52571e-05
8.53445e-05
8.41866e-05
8.13985e-05
7.64153e-05
7.03095e-05
3.33706e-05
0.000101966
0.000159509
0.000201776
0.000229075
0.000246179
0.00025709
0.000263618
0.000266357
0.000265415
0.000260749
0.000252396
0.000240585
0.000225747
0.000208472
0.000189454
0.000169483
0.000149457
0.000130426
0.00011378
0.000101233
9.27747e-05
8.75376e-05
8.4695e-05
8.35506e-05
8.35704e-05
8.43636e-05
8.56139e-05
8.69833e-05
8.80242e-05
8.81796e-05
8.69923e-05
8.40958e-05
7.8877e-05
7.2388e-05
3.52059e-05
0.000105692
0.000164683
0.000207866
0.000235679
0.000253106
0.000264216
0.000270824
0.000273532
0.000272459
0.000267577
0.000258937
0.00024678
0.000231545
0.000213818
0.000194289
0.00017374
0.000153061
0.000133312
0.000115902
0.00010263
9.37088e-05
8.82758e-05
8.54763e-05
8.45643e-05
8.49445e-05
8.61613e-05
8.7833e-05
8.9558e-05
9.08359e-05
9.10842e-05
8.98693e-05
8.68427e-05
8.13405e-05
7.44039e-05
3.7043e-05
0.000109344
0.000169732
0.000213823
0.000242187
0.000259999
0.000271325
0.000277981
0.000280635
0.000279428
0.000274347
0.000265455
0.000253003
0.000237431
0.000219319
0.000199345
0.000178277
0.000156991
0.000136537
0.000118336
0.000104245
9.47556e-05
8.90296e-05
8.61987e-05
8.54752e-05
8.6204e-05
8.78598e-05
8.99885e-05
9.21158e-05
9.36775e-05
9.40538e-05
9.2824e-05
8.96521e-05
8.38194e-05
7.63626e-05
3.8888e-05
0.000112933
0.000174669
0.000219657
0.000248618
0.000266849
0.000278401
0.000285101
0.000287654
0.000286305
0.00028104
0.000271928
0.000259224
0.000243368
0.000224928
0.00020457
0.000183041
0.000161192
0.000140055
0.000121051
0.000106071
9.59253e-05
8.98172e-05
8.68816e-05
8.63008e-05
8.73617e-05
8.94662e-05
9.2079e-05
9.46438e-05
9.65235e-05
9.70541e-05
9.58209e-05
9.2491e-05
8.62912e-05
7.82626e-05
4.07347e-05
0.00011645
0.000179475
0.000225325
0.000254892
0.00027347
0.000285254
0.000292067
0.000294558
0.000293097
0.00028768
0.000278388
0.000265483
0.0002494
0.000230698
0.000210025
0.000188099
0.000165743
0.000143953
0.000124134
0.000108193
9.72874e-05
9.06877e-05
8.75522e-05
8.70463e-05
8.84058e-05
9.09566e-05
9.40759e-05
9.71158e-05
9.9354e-05
0.000100067
9.88336e-05
9.53483e-05
8.87567e-05
8.011e-05
4.25815e-05
0.000119892
0.000184151
0.000230828
0.000260959
0.000279885
0.000291915
0.000298875
0.000301389
0.000299779
0.00029421
0.000284762
0.000271695
0.000255437
0.000236533
0.000215609
0.000193355
0.000170553
0.000148159
0.000127545
0.000110611
9.88646e-05
9.16774e-05
8.82491e-05
8.77471e-05
8.93649e-05
9.23526e-05
9.59915e-05
9.95316e-05
0.000102157
0.000103085
0.000101911
9.82273e-05
9.1213e-05
8.1905e-05
4.44315e-05
0.000123271
0.000188725
0.000236238
0.000266857
0.000286099
0.000298366
0.000305477
0.000308033
0.000306325
0.000300659
0.000291107
0.000277931
0.000261554
0.000242512
0.000221405
0.000198892
0.000175712
0.000152769
0.000131385
0.000113433
0.000100753
9.28626e-05
8.90245e-05
8.84293e-05
9.02418e-05
9.36393e-05
9.78026e-05
0.000101871
0.000104923
0.000106107
0.00010503
0.000101133
9.36509e-05
8.36523e-05
4.62717e-05
0.00012654
0.000193118
0.00024145
0.000272507
0.00029206
0.000304578
0.000311868
0.000314504
0.00031274
0.000306985
0.000297344
0.000284087
0.000267634
0.000248507
0.000227282
0.000204583
0.000181103
0.000157687
0.000135598
0.000116665
0.000102992
9.43054e-05
8.99464e-05
8.91551e-05
9.10869e-05
9.48533e-05
9.95305e-05
0.000104136
0.000107635
0.000109115
0.000108165
0.000104088
9.6086e-05
8.53536e-05
4.81165e-05
0.000129745
0.000197385
0.000246486
0.000277965
0.000297825
0.000310596
0.000318076
0.000320826
0.000319083
0.000313229
0.000303522
0.000290228
0.000273754
0.000254602
0.000233324
0.00021051
0.000186805
0.000162995
0.000140271
0.000120402
0.000105678
9.60939e-05
9.10912e-05
8.99809e-05
9.19324e-05
9.6005e-05
0.000101172
0.000106323
0.00011031
0.000112164
0.000111332
0.000107079
9.85232e-05
8.70157e-05
4.99479e-05
0.000132844
0.000201473
0.000251294
0.000283166
0.000303321
0.000316344
0.000324017
0.000326884
0.000325173
0.000319257
0.000309528
0.000296239
0.000279789
0.000260663
0.000239392
0.000216532
0.000192684
0.000168569
0.000145306
0.000124592
0.000108808
9.82692e-05
9.25257e-05
9.09812e-05
9.28464e-05
9.71481e-05
0.000102764
0.000108456
0.000112956
0.000115226
0.000114521
0.000110088
0.000100954
8.8636e-05
5.1789e-05
0.000135896
0.000205459
0.000255958
0.000288199
0.00030864
0.000321915
0.000329791
0.000332793
0.000331138
0.000325187
0.000315464
0.000302215
0.000285827
0.000266772
0.00024556
0.000222715
0.000198795
0.000174455
0.00015074
0.00012926
0.000112421
0.000100886
9.4314e-05
9.22196e-05
9.38816e-05
9.83194e-05
0.000104329
0.000110546
0.000115573
0.000118285
0.000117721
0.000113109
0.000103376
9.02177e-05
5.36166e-05
0.000138844
0.000209269
0.000260387
0.000292964
0.000313676
0.000327196
0.000335275
0.000338422
0.000336839
0.000330883
0.000321196
0.000308018
0.000291729
0.00027279
0.000251688
0.00022892
0.000205
0.000180523
0.000156454
0.000134312
0.000116475
0.000103948
9.64994e-05
9.37627e-05
9.51108e-05
9.95834e-05
0.000105914
0.000112619
0.000118168
0.000121332
0.000120916
0.000116125
0.000105779
9.17553e-05
5.5462e-05
0.000141768
0.000213009
0.000264697
0.000297579
0.000318544
0.000332303
0.000340588
0.000343888
0.000342397
0.000336461
0.00032683
0.000313746
0.000297584
0.000278794
0.000257843
0.000235202
0.000211342
0.000186802
0.000162464
0.000139753
0.000120979
0.000107481
9.91231e-05
9.56641e-05
9.65906e-05
0.000100991
0.00010756
0.000114704
0.000120754
0.000124368
0.000124103
0.000119132
0.00010816
9.32492e-05
5.72959e-05
0.0001446
0.000216596
0.000268777
0.000301919
0.000323116
0.000337105
0.000345592
0.000349052
0.000347674
0.000341799
0.000332232
0.00031926
0.000303254
0.000284649
0.000263893
0.000241429
0.000217692
0.000193164
0.000168653
0.00014548
0.000125873
0.000111463
0.000102201
9.79706e-05
9.83846e-05
0.000102607
0.000109319
0.000116835
0.000123359
0.000127395
0.000127274
0.000122117
0.000110507
9.46911e-05
5.91411e-05
0.000147409
0.000220169
0.000272749
0.000306112
0.000327522
0.000341728
0.000350413
0.000354034
0.000352774
0.000346988
0.000337489
0.000324646
0.000308821
0.000290429
0.000269901
0.000247651
0.000224083
0.000199628
0.00017502
0.000151483
0.000131141
0.000115888
0.000105747
0.000100714
0.000100538
0.000104481
0.00011124
0.00011906
0.00012604
0.000130434
0.00013043
0.000125077
0.000112815
9.60791e-05
6.09546e-05
0.00015007
0.000223525
0.000276454
0.000310013
0.000331622
0.000346038
0.000354914
0.000358691
0.000357557
0.000351876
0.000342474
0.00032979
0.000314174
0.000296026
0.000275756
0.000253759
0.000230406
0.000206083
0.000181458
0.000157659
0.000136705
0.000120705
0.000109741
0.000103907
0.00010309
0.000106668
0.00011338
0.000121427
0.000128809
0.000133502
0.000133577
0.000128005
0.000115076
9.7405e-05
6.27878e-05
0.00015271
0.000226817
0.000280042
0.000313765
0.000335557
0.000350174
0.000359237
0.00036317
0.000362157
0.000356578
0.000347281
0.000334778
0.000319392
0.000301509
0.000281524
0.000259807
0.000236704
0.000212558
0.000187977
0.000164001
0.000142543
0.000125888
0.000114163
0.000107546
0.000106054
0.000109193
0.000115769
0.000123961
0.000131677
0.000136609
0.000136721
0.000130903
0.000117287
9.86675e-05
6.45932e-05
0.000155213
0.000229882
0.000283356
0.000317222
0.000339185
0.000353996
0.000363241
0.00036733
0.000366448
0.000360988
0.000351817
0.000339503
0.000324369
0.000306781
0.000287107
0.000265701
0.000242883
0.000218961
0.000194488
0.000170426
0.000148584
0.00013138
0.000118975
0.000111614
0.000109435
0.000112078
0.000118436
0.000126686
0.000134656
0.00013976
0.000139862
0.000133766
0.000119442
9.986e-05
6.63998e-05
0.000157664
0.000232856
0.000286542
0.000320526
0.000342643
0.000357633
0.000367052
0.000371289
0.000370535
0.000365198
0.000356168
0.000344061
0.000329187
0.000311901
0.000292559
0.000271484
0.000248976
0.000225311
0.000200997
0.000176921
0.000154802
0.000137149
0.000124147
0.000116093
0.00011323
0.000115334
0.000121397
0.000129618
0.000137758
0.000142962
0.000143002
0.000136593
0.00012154
0.000100983
6.81773e-05
0.000159983
0.000235617
0.000289467
0.000323546
0.000345805
0.000360967
0.000370553
0.000374938
0.000374314
0.00036911
0.00036024
0.00034836
0.000333765
0.000316798
0.0002978
0.000277084
0.000254914
0.000231542
0.000207436
0.00018342
0.000161131
0.000143132
0.000129628
0.000120946
0.000117423
0.000118962
0.000124666
0.000132772
0.000140994
0.00014622
0.000146144
0.000139384
0.000123579
0.000102039
6.99397e-05
0.000162231
0.000238267
0.000292251
0.000326405
0.00034879
0.000364112
0.000373855
0.00037838
0.000377882
0.000372813
0.000364113
0.000352468
0.000338164
0.000321526
0.000302881
0.000282527
0.000260717
0.000237663
0.000213801
0.000189905
0.000167538
0.000149288
0.00013537
0.00012613
0.000121981
0.000122945
0.000128238
0.00013615
0.000144366
0.000149537
0.000149288
0.00014214
0.000125562
0.000103033
7.16588e-05
0.000164342
0.000240711
0.000294789
0.000328997
0.000351496
0.000366968
0.000376863
0.000381524
0.000381155
0.00037623
0.000367717
0.000356325
0.000342325
0.000326032
0.000307755
0.000287778
0.000266338
0.000243629
0.000220048
0.000196326
0.000173966
0.00015556
0.000141317
0.000131591
0.000126859
0.000127249
0.000132092
0.000139741
0.000147868
0.000152909
0.000152433
0.000144861
0.000127491
0.000103969
7.3352e-05
0.000166376
0.00024304
0.000297183
0.000331429
0.000354027
0.000369637
0.000379672
0.000384461
0.000384215
0.000379433
0.000371115
0.000359982
0.000346294
0.000330351
0.00031245
0.000292858
0.000271798
0.000249447
0.000226177
0.000202674
0.000180395
0.000161916
0.000147428
0.000137286
0.000132015
0.00013184
0.000136202
0.000143527
0.000151489
0.000156331
0.000155579
0.000147547
0.000129369
0.000104854
7.49942e-05
0.000168276
0.000245173
0.000299347
0.000333612
0.000356298
0.000372037
0.000382206
0.00038712
0.000386998
0.000382368
0.00037426
0.0003634
0.000350036
0.000334454
0.000316937
0.00029774
0.00027707
0.000255091
0.000232157
0.000208916
0.000186785
0.000168318
0.000153664
0.000143174
0.000137409
0.000136684
0.000140543
0.000147491
0.000155218
0.000159797
0.000158721
0.000150198
0.000131198
0.00010569
7.66043e-05
0.000170099
0.000247195
0.000301374
0.00033564
0.0003584
0.000374255
0.000384545
0.000389574
0.000389571
0.000385091
0.000377201
0.000366621
0.000353585
0.000338368
0.00032124
0.000302441
0.000282168
0.000260569
0.000237982
0.000215044
0.000193123
0.000174741
0.000159994
0.00014922
0.000143009
0.000141749
0.000145088
0.000151613
0.000159043
0.0001633
0.000161857
0.000152815
0.000132982
0.000106485
7.8161e-05
0.000171797
0.000249036
0.00030319
0.000337441
0.000360263
0.000376225
0.00038663
0.000391769
0.000391884
0.000387561
0.000379903
0.000369613
0.000356916
0.000342071
0.000325338
0.000306944
0.000287074
0.000265867
0.000243647
0.000221034
0.000199386
0.000181161
0.00016639
0.000155394
0.000148784
0.00014701
0.000149816
0.000155876
0.000162951
0.000166831
0.000164984
0.000155398
0.000134723
0.000107242
7.96802e-05
0.000173416
0.000250768
0.000304872
0.000339092
0.000361963
0.000378018
0.000388526
0.000393764
0.000393991
0.000389824
0.000382404
0.000372411
0.000360056
0.000345589
0.000329253
0.000311267
0.000291804
0.000270995
0.000249158
0.000226901
0.000205575
0.000187565
0.000172829
0.000161669
0.000154704
0.00015244
0.000154705
0.000160263
0.000166931
0.000170386
0.000168099
0.000157948
0.000136424
0.000107966
8.11475e-05
0.000174923
0.000252339
0.000306364
0.000340538
0.000363445
0.000379584
0.000390186
0.000395518
0.000395854
0.000391848
0.000384678
0.00037499
0.000362986
0.000348902
0.000332969
0.000315395
0.000296345
0.000275943
0.000254502
0.000232629
0.000211674
0.000193931
0.000179283
0.000168011
0.000160738
0.000158008
0.00015973
0.000164761
0.000170971
0.000173958
0.000171201
0.000160465
0.000138088
0.000108662
8.25754e-05
0.000176353
0.000253802
0.000307728
0.000341839
0.000364769
0.00038098
0.000391665
0.000397082
0.000397521
0.000393675
0.00038676
0.000377383
0.000365733
0.000352034
0.000336507
0.000319348
0.000300714
0.000280726
0.000259696
0.000238234
0.0002177
0.000200262
0.000185743
0.000174401
0.000166858
0.00016369
0.00016488
0.000169385
0.000175072
0.000177544
0.000174288
0.000162951
0.000139718
0.000109332
8.39521e-05
0.000177679
0.000255119
0.000308918
0.000342952
0.000365896
0.000382169
0.000392929
0.000398424
0.000398964
0.000395279
0.00038863
0.00037957
0.000368279
0.000354971
0.000339854
0.000323114
0.000304903
0.000285338
0.000264734
0.000243711
0.000223649
0.000206555
0.000192202
0.000180827
0.000173047
0.000169466
0.000170133
0.000174102
0.000179223
0.000181142
0.000177362
0.000165408
0.000141318
0.000109979
8.52878e-05
0.000178929
0.00025633
0.000309982
0.000343926
0.000366872
0.000383197
0.000394023
0.000399587
0.000400222
0.0003967
0.000390321
0.00038158
0.00037065
0.000357732
0.000343026
0.000326707
0.000308923
0.000289787
0.000269623
0.000249067
0.000229522
0.000212808
0.000198655
0.000187282
0.000179295
0.000175322
0.000175473
0.000178892
0.000183416
0.000184749
0.000180422
0.000167838
0.000142889
0.000110601
8.65718e-05
0.000180081
0.000257404
0.000310886
0.000344727
0.000367665
0.000384036
0.00039492
0.000400548
0.000401278
0.000397921
0.00039182
0.000383404
0.000372837
0.000360312
0.000346018
0.000330123
0.000312769
0.000294071
0.000274362
0.000254297
0.000235313
0.000219014
0.000205095
0.000193753
0.000185592
0.000181248
0.000180889
0.000183746
0.000187643
0.000188361
0.000183468
0.000170244
0.000144435
0.000111204
8.78118e-05
0.000181156
0.000258373
0.000311666
0.000345392
0.000368314
0.000384721
0.000395656
0.000401344
0.000402165
0.000398975
0.000393156
0.000385064
0.000374859
0.000362724
0.00034884
0.00033337
0.000316449
0.000298196
0.000278954
0.000259405
0.000241023
0.000225171
0.000211518
0.000200242
0.000191929
0.000187234
0.000186371
0.000188654
0.0001919
0.000191981
0.000186504
0.000172629
0.00014596
0.000111791
8.90008e-05
0.000182139
0.000259214
0.000312298
0.000345898
0.000368796
0.000385232
0.000396215
0.00040196
0.000402874
0.000399857
0.000394327
0.000386562
0.000376717
0.000364969
0.000351494
0.000336447
0.00031996
0.000302157
0.000283396
0.000264386
0.000246644
0.00023127
0.000217913
0.000206731
0.000198291
0.000193266
0.000191907
0.000193609
0.000196183
0.000195606
0.000189532
0.000174997
0.000147469
0.000112367
9.01442e-05
0.000183045
0.00025995
0.000312807
0.00034627
0.000369135
0.000385596
0.000396622
0.000402422
0.000403432
0.000400593
0.000395357
0.000387916
0.000378426
0.000367061
0.00035399
0.000339362
0.00032331
0.000305961
0.00028769
0.000269242
0.000252174
0.00023731
0.00022428
0.000213221
0.000204685
0.000199343
0.000197492
0.000198606
0.000200491
0.000199241
0.000192558
0.000177356
0.000148967
0.000112935
9.12394e-05
0.000183868
0.000260572
0.000313182
0.000346497
0.000369322
0.000385801
0.000396865
0.000402723
0.000403839
0.000401192
0.000396252
0.000389131
0.000379991
0.000369003
0.000356331
0.000342119
0.000326498
0.000309605
0.000291833
0.000273965
0.000257598
0.000243272
0.0002306
0.000219698
0.000211095
0.000205453
0.000203119
0.000203637
0.000204819
0.000202882
0.000195581
0.000179707
0.000150458
0.000113498
9.22902e-05
0.000184618
0.000261093
0.000313437
0.000346592
0.000369369
0.000385859
0.000396958
0.000402873
0.000404107
0.000401686
0.000397025
0.000390217
0.000381422
0.000370807
0.00035853
0.000344731
0.000329541
0.000313105
0.00029584
0.000278568
0.000262926
0.000249159
0.000236871
0.000226156
0.000217517
0.000211607
0.000208798
0.000208718
0.000209181
0.000206545
0.000198613
0.00018206
0.00015195
0.000114063
9.32975e-05
0.000185294
0.000261511
0.000313568
0.000346553
0.000369272
0.000385766
0.000396893
0.000402862
0.000404218
0.000402039
0.000397657
0.000391165
0.000382717
0.000372477
0.000360593
0.000347205
0.000332444
0.000316466
0.000299714
0.000283056
0.00026815
0.000254955
0.000243071
0.000232573
0.000223931
0.00021778
0.000214509
0.000213834
0.000213571
0.000210225
0.000201657
0.00018442
0.000153448
0.000114634
9.42651e-05
0.000185903
0.000261833
0.000313585
0.000346386
0.000369039
0.000385531
0.00039668
0.000402701
0.000404181
0.000402254
0.00039816
0.00039199
0.000383893
0.000374028
0.000362539
0.000349561
0.00033523
0.000319715
0.000303488
0.000287467
0.000273295
0.000260676
0.000249208
0.000238947
0.000230332
0.000223974
0.000220274
0.000219012
0.000218017
0.000213951
0.000204735
0.000186805
0.000154968
0.000115215
9.51946e-05
0.000186446
0.00026206
0.000313485
0.00034609
0.000368669
0.00038515
0.000396316
0.000402386
0.000403994
0.000402329
0.00039853
0.000392686
0.000384945
0.000375457
0.000364363
0.000351798
0.000337902
0.00032286
0.000307177
0.000291825
0.000278373
0.00026632
0.000255269
0.000245258
0.000236694
0.000230157
0.000226049
0.000224206
0.000222491
0.000217708
0.000207842
0.000189213
0.000156511
0.000115808
9.60909e-05
0.000186929
0.000262196
0.000313273
0.000345669
0.000368166
0.000384631
0.000395808
0.000401926
0.000403665
0.000402269
0.000398772
0.000393261
0.000385878
0.000376772
0.000366078
0.000353931
0.000340479
0.000325924
0.000310811
0.000296175
0.000283416
0.000271911
0.00026127
0.000251515
0.00024302
0.000236332
0.000231845
0.000229451
0.000227013
0.000221513
0.000210993
0.00019166
0.000158084
0.000116415
9.69542e-05
0.000187348
0.000262238
0.000312946
0.000345123
0.000367531
0.000383974
0.000395159
0.000401322
0.000403198
0.00040208
0.000398891
0.000393716
0.000386695
0.000377971
0.000367679
0.000355953
0.000342951
0.000328899
0.000314382
0.000300501
0.000288416
0.000277443
0.000267202
0.000257703
0.000249289
0.000242469
0.000237628
0.000234702
0.000231562
0.000225355
0.000214184
0.000194145
0.000159688
0.000117035
9.77883e-05
0.000187707
0.000262185
0.000312504
0.000344452
0.000366767
0.000383186
0.000394375
0.000400584
0.0004026
0.000401769
0.000398893
0.000394057
0.000387401
0.000379062
0.000369174
0.000357874
0.000345329
0.000331789
0.000317888
0.00030479
0.000293369
0.00028292
0.000273074
0.000263833
0.00025551
0.000248581
0.000243411
0.000239978
0.000236155
0.000229245
0.000217426
0.000196677
0.000161329
0.000117671
9.85911e-05
0.000187996
0.00026203
0.000311943
0.000343656
0.000365875
0.000382268
0.000393462
0.000399722
0.000401884
0.000401348
0.000398787
0.000394292
0.000388
0.000380046
0.000370563
0.000359689
0.000347604
0.000334585
0.000321312
0.000309011
0.000298248
0.000288319
0.000278866
0.000269884
0.000261664
0.000254642
0.000249169
0.000245258
0.000240776
0.000233182
0.000220716
0.000199254
0.000163003
0.000118319
9.93652e-05
0.00018822
0.000261775
0.000311264
0.000342735
0.000364857
0.000381225
0.000392428
0.000398744
0.000401062
0.00040083
0.00039859
0.000394436
0.000388507
0.000380938
0.00037186
0.000361415
0.000349795
0.000337303
0.000324669
0.000313172
0.000303061
0.000293646
0.000284583
0.000275865
0.000267757
0.000260664
0.000254915
0.000250554
0.000245438
0.000237176
0.00022407
0.000201888
0.000164719
0.000118986
0.000100106
0.000188367
0.000261413
0.000310464
0.000341689
0.000363714
0.000380062
0.000391281
0.000397664
0.000400149
0.000400231
0.000398312
0.000394496
0.000388927
0.00038174
0.000373066
0.000363053
0.000351902
0.000339948
0.000327969
0.000317273
0.000307806
0.000298897
0.000290218
0.000281761
0.000273771
0.000266621
0.000260621
0.000255842
0.000250118
0.000241209
0.000227471
0.000204568
0.00016647
0.000119668
0.000100817
0.000188447
0.000260951
0.000309548
0.000340521
0.000362448
0.00037878
0.000390024
0.000396491
0.000399163
0.000399571
0.000397978
0.000394498
0.000389284
0.000382474
0.000374202
0.00036462
0.000353947
0.000342543
0.000331238
0.000321337
0.000312503
0.000304092
0.000295791
0.000287592
0.000279724
0.000272531
0.000266303
0.000261136
0.000254832
0.000245294
0.000230933
0.000207304
0.000168261
0.000120364
0.000101501
0.000188458
0.000260391
0.000308516
0.00033923
0.000361057
0.000377376
0.000388656
0.000395229
0.000398114
0.000398864
0.0003976
0.000394455
0.00038959
0.000383152
0.000375279
0.000366132
0.000355944
0.000345109
0.00033451
0.000325381
0.000317164
0.000309237
0.000301305
0.000293358
0.000285607
0.000278375
0.000271936
0.000266408
0.000259552
0.00024941
0.000234438
0.000210085
0.000170086
0.000121072
0.000102166
0.000188416
0.000259746
0.000307379
0.000337819
0.000359539
0.000375844
0.000387174
0.000393882
0.00039702
0.000398125
0.000397195
0.000394385
0.000389867
0.000383797
0.00037632
0.000367609
0.000357916
0.000347673
0.00033782
0.000329432
0.000321809
0.000314354
0.000306784
0.000299085
0.000291455
0.000284192
0.000277553
0.000271686
0.0002643
0.000253572
0.000237998
0.00021292
0.000171952
0.000121795
0.000102821
0.000188328
0.000259024
0.000306138
0.000336286
0.000357888
0.000374173
0.000385558
0.000392437
0.000395911
0.00039735
0.000396758
0.000394291
0.000390126
0.000384424
0.000377342
0.000369067
0.000359877
0.000350246
0.00034117
0.000333492
0.000326439
0.000319439
0.000312218
0.000304762
0.00029725
0.00028996
0.000283149
0.000276951
0.000269058
0.000257764
0.0002416
0.000215797
0.000173848
0.000122528
0.000103471
0.000188204
0.000258233
0.000304798
0.000334633
0.000356099
0.000372352
0.000383785
0.000390837
0.000394668
0.000396481
0.000396265
0.00039417
0.000390376
0.000385051
0.000378366
0.000370529
0.000361847
0.00035284
0.00034456
0.000337568
0.000331065
0.000324506
0.000317627
0.00031041
0.000303019
0.000295718
0.000288775
0.000282234
0.000273844
0.000261998
0.000245252
0.000218722
0.00017578
0.000123272
0.000104121
0.000188049
0.000257377
0.000303361