/*--------------------------------*- C++ -*----------------------------------*\
| =========                 |                                                 |
| \\      /  F ield         | OpenFOAM: The Open Source CFD Toolbox           |
|  \\    /   O peration     | Version:  v1906                                 |
|   \\  /    A nd           | Web:      www.OpenFOAM.com                      |
|    \\/     M anipulation  |                                                 |
\*---------------------------------------------------------------------------*/
FoamFile
{
    version     2.0;
    format      ascii;
    class       volScalarField;
    location    "62";
    object      nut;
}
// * * * * * * * * * * * * * * * * * * * * * * * * * * * * * * * * * * * * * //

dimensions      [0 2 -1 0 0 0 0];


internalField   nonuniform List<scalar> 
78750
(
9.97801e-09
7.53741e-07
1.08925e-06
1.37553e-06
1.63599e-06
1.86557e-06
2.05916e-06
2.2169e-06
2.34228e-06
2.43826e-06
2.50811e-06
2.55473e-06
2.58041e-06
2.58701e-06
2.57591e-06
2.54801e-06
2.50459e-06
2.44701e-06
2.37665e-06
2.29487e-06
2.20345e-06
2.10293e-06
1.99285e-06
1.87436e-06
1.74783e-06
1.61335e-06
1.47088e-06
1.32045e-06
1.16187e-06
9.94467e-07
8.17483e-07
6.31054e-07
4.41092e-07
2.7118e-07
6.63332e-09
3.27113e-09
1.76321e-06
3.51586e-06
5.59615e-06
8.41297e-06
1.19752e-05
1.50741e-05
1.62445e-05
1.713e-05
1.73494e-05
1.72842e-05
1.73348e-05
1.75092e-05
1.77894e-05
1.79888e-05
1.75906e-05
1.70852e-05
1.64882e-05
1.58157e-05
1.50838e-05
1.43078e-05
1.34991e-05
1.26678e-05
1.18255e-05
1.09785e-05
1.01288e-05
9.27499e-06
8.41254e-06
7.53778e-06
6.0531e-06
3.98816e-06
2.45333e-06
1.87118e-06
1.4112e-06
2.55201e-08
2.83242e-09
1.93451e-06
3.72872e-06
5.71256e-06
8.12304e-06
1.13188e-05
1.54867e-05
1.80261e-05
1.90491e-05
1.98102e-05
2.03343e-05
2.06439e-05
2.07595e-05
2.07e-05
1.94683e-05
1.82956e-05
1.72923e-05
1.63993e-05
1.55903e-05
1.4852e-05
1.41791e-05
1.35703e-05
1.30233e-05
1.25159e-05
1.1992e-05
1.1368e-05
1.05323e-05
9.3466e-06
7.70217e-06
5.70841e-06
3.88104e-06
2.82713e-06
3.10036e-06
1.58007e-06
3.96763e-08
5.63106e-09
1.66518e-06
3.51309e-06
5.82765e-06
8.81088e-06
1.25842e-05
1.68854e-05
2.08147e-05
2.23928e-05
2.30346e-05
2.34334e-05
2.35215e-05
2.21021e-05
2.05324e-05
1.90316e-05
1.76361e-05
1.63587e-05
1.5198e-05
1.4147e-05
1.32048e-05
1.23839e-05
1.1706e-05
1.11772e-05
1.07781e-05
1.04506e-05
1.00731e-05
9.46828e-06
8.45329e-06
6.96017e-06
5.21765e-06
3.76046e-06
3.12622e-06
4.22813e-06
1.56226e-06
5.10077e-08
8.35049e-09
1.73672e-06
3.83916e-06
6.72467e-06
1.06483e-05
1.55613e-05
2.06601e-05
2.3784e-05
2.45936e-05
2.51201e-05
2.53961e-05
2.54503e-05
2.35674e-05
2.14425e-05
1.94884e-05
1.77573e-05
1.62333e-05
1.48777e-05
1.3656e-05
1.25516e-05
1.15723e-05
1.07522e-05
1.01299e-05
9.70607e-06
9.4228e-06
9.14804e-06
8.67026e-06
7.77761e-06
6.43746e-06
4.94322e-06
3.80063e-06
3.54379e-06
5.28381e-06
1.53442e-06
6.05375e-08
1.20688e-08
1.73819e-06
3.98191e-06
7.31805e-06
1.20793e-05
1.78709e-05
2.31949e-05
2.60611e-05
2.67998e-05
2.72493e-05
2.67703e-05
2.47494e-05
2.25225e-05
2.04124e-05
1.85298e-05
1.68904e-05
1.54596e-05
1.41876e-05
1.303e-05
1.19604e-05
1.098e-05
1.01192e-05
9.42287e-06
8.91372e-06
8.56141e-06
8.25999e-06
7.81903e-06
7.03658e-06
5.88888e-06
4.66059e-06
3.80766e-06
3.89203e-06
5.90738e-06
1.53496e-06
6.83073e-08
1.52433e-08
1.78359e-06
4.18885e-06
7.96561e-06
1.35395e-05
2.01461e-05
2.56523e-05
2.78553e-05
2.855e-05
2.88919e-05
2.69482e-05
2.44665e-05
2.19734e-05
1.97179e-05
1.77815e-05
1.61452e-05
1.4751e-05
1.35349e-05
1.2442e-05
1.14348e-05
1.05041e-05
9.67659e-06
8.99072e-06
8.45617e-06
8.04504e-06
7.67358e-06
7.19296e-06
6.45333e-06
5.46007e-06
4.46645e-06
3.87295e-06
4.28465e-06
6.19248e-06
1.53567e-06
7.50293e-08
1.87455e-08
1.81626e-06
4.32541e-06
8.4144e-06
1.45702e-05
2.16296e-05
2.70214e-05
2.96282e-05
3.00928e-05
2.87686e-05
2.6443e-05
2.37588e-05
2.11665e-05
1.88862e-05
1.69659e-05
1.53678e-05
1.4025e-05
1.28707e-05
1.18482e-05
1.09169e-05
1.0061e-05
9.29748e-06
8.65038e-06
8.11292e-06
7.65113e-06
7.1975e-06
6.64919e-06
5.9205e-06
5.05131e-06
4.25966e-06
3.89347e-06
4.59454e-06
6.24635e-06
1.54309e-06
8.08939e-08
2.1694e-08
1.85246e-06
4.44818e-06
8.78285e-06
1.54033e-05
2.28311e-05
2.81506e-05
3.05099e-05
3.0466e-05
2.87473e-05
2.61104e-05
2.32273e-05
2.05373e-05
1.8224e-05
1.63042e-05
1.47221e-05
1.34055e-05
1.22872e-05
1.13112e-05
1.04381e-05
9.65491e-06
8.97671e-06
8.40677e-06
7.90968e-06
7.43517e-06
6.9223e-06
6.30698e-06
5.56401e-06
4.77074e-06
4.12498e-06
3.94106e-06
4.89598e-06
6.1727e-06
1.55014e-06
8.64131e-08
2.47683e-08
1.88042e-06
4.53357e-06
9.04563e-06
1.60002e-05
2.36264e-05
2.87903e-05
3.08504e-05
3.05042e-05
2.85338e-05
2.57238e-05
2.27486e-05
2.00231e-05
1.77035e-05
1.57888e-05
1.42153e-05
1.29097e-05
1.18071e-05
1.0855e-05
1.00189e-05
9.28955e-06
8.68162e-06
8.18182e-06
7.73077e-06
7.25983e-06
6.70858e-06
6.04308e-06
5.28717e-06
4.54843e-06
4.01231e-06
3.97329e-06
5.13856e-06
6.06708e-06
1.55926e-06
9.17531e-08
2.75855e-08
1.90813e-06
4.61051e-06
9.2674e-06
1.64929e-05
2.42805e-05
2.93297e-05
3.11535e-05
3.05528e-05
2.8365e-05
2.54102e-05
2.23639e-05
1.96157e-05
1.72953e-05
1.53848e-05
1.38137e-05
1.25079e-05
1.14054e-05
1.04589e-05
9.64049e-06
8.94904e-06
8.4037e-06
7.97507e-06
7.58262e-06
7.13807e-06
6.57463e-06
5.87851e-06
5.11213e-06
4.40913e-06
3.95153e-06
4.02736e-06
5.37268e-06
5.94208e-06
1.56821e-06
9.70365e-08
3.05057e-08
1.9316e-06
4.67207e-06
9.44857e-06
1.68931e-05
2.47721e-05
2.96778e-05
3.12907e-05
3.04959e-05
2.81655e-05
2.51324e-05
2.20597e-05
1.93123e-05
1.7e-05
1.50947e-05
1.35224e-05
1.22099e-05
1.10982e-05
1.01445e-05
9.32678e-06
8.65107e-06
8.1421e-06
7.7615e-06
7.4156e-06
7.00147e-06
6.44436e-06
5.74076e-06
4.978e-06
4.30798e-06
3.91328e-06
4.08398e-06
5.58336e-06
5.82632e-06
1.57793e-06
1.02227e-07
3.33612e-08
1.95475e-06
4.7318e-06
9.61882e-06
1.72597e-05
2.52138e-05
2.99915e-05
3.14175e-05
3.04488e-05
2.79929e-05
2.48966e-05
2.18095e-05
1.90711e-05
1.67716e-05
1.48727e-05
1.3298e-05
1.19753e-05
1.08488e-05
9.87999e-06
9.0533e-06
8.38246e-06
7.89859e-06
7.5559e-06
7.25143e-06
6.87123e-06
6.33301e-06
5.63794e-06
4.88884e-06
4.25016e-06
3.90796e-06
4.1613e-06
5.79955e-06
5.7149e-06
1.58782e-06
1.07327e-07
3.63241e-08
1.97652e-06
4.78763e-06
9.77909e-06
1.75973e-05
2.55933e-05
3.02301e-05
3.14829e-05
3.03711e-05
2.78275e-05
2.47013e-05
2.16219e-05
1.89041e-05
1.66219e-05
1.47303e-05
1.31519e-05
1.18161e-05
1.06699e-05
9.67875e-06
8.83226e-06
8.1508e-06
7.6724e-06
7.34848e-06
7.07146e-06
6.72083e-06
6.20857e-06
5.5363e-06
4.81353e-06
4.2109e-06
3.91847e-06
4.24846e-06
6.01471e-06
5.6168e-06
1.59835e-06
1.12283e-07
3.92771e-08
1.99767e-06
4.84247e-06
9.93532e-06
1.79207e-05
2.59495e-05
3.04534e-05
3.15472e-05
3.03065e-05
2.76884e-05
2.45431e-05
2.14789e-05
1.87861e-05
1.65233e-05
1.46397e-05
1.3057e-05
1.17066e-05
1.05382e-05
9.52083e-06
8.64908e-06
7.94938e-06
7.46655e-06
7.15069e-06
6.8922e-06
6.56738e-06
6.08452e-06
5.44374e-06
4.75569e-06
4.19273e-06
3.94909e-06
4.35339e-06
6.24064e-06
5.52797e-06
1.60927e-06
1.17102e-07
4.2336e-08
2.01891e-06
4.89825e-06
1.00938e-05
1.82401e-05
2.62814e-05
3.06442e-05
3.15879e-05
3.02377e-05
2.7568e-05
2.44231e-05
2.13866e-05
1.87254e-05
1.64852e-05
1.46104e-05
1.3023e-05
1.16563e-05
1.04626e-05
9.41437e-06
8.51041e-06
7.78233e-06
7.2818e-06
6.9605e-06
6.70894e-06
6.40314e-06
5.94986e-06
5.34659e-06
4.70076e-06
4.18248e-06
3.98951e-06
4.46847e-06
6.47154e-06
5.45286e-06
1.62099e-06
1.21764e-07
4.53845e-08
2.03936e-06
4.95265e-06
1.02483e-05
1.85475e-05
2.65964e-05
3.08277e-05
3.16353e-05
3.01888e-05
2.74783e-05
2.43407e-05
2.13356e-05
1.87077e-05
1.64907e-05
1.46253e-05
1.30332e-05
1.16493e-05
1.04284e-05
9.34616e-06
8.40544e-06
7.64259e-06
7.11612e-06
6.78095e-06
6.52897e-06
6.23774e-06
5.81397e-06
5.2519e-06
4.65299e-06
4.18273e-06
4.04211e-06
4.59704e-06
6.71064e-06
5.3878e-06
1.6332e-06
1.26287e-07
4.85318e-08
2.06042e-06
5.00948e-06
1.04091e-05
1.88603e-05
2.69028e-05
3.09976e-05
3.16758e-05
3.01466e-05
2.74105e-05
2.42922e-05
2.13259e-05
1.87357e-05
1.65447e-05
1.46904e-05
1.30948e-05
1.16935e-05
1.04436e-05
9.32425e-06
8.34151e-06
7.53593e-06
6.97282e-06
6.61321e-06
6.35159e-06
6.06858e-06
5.67216e-06
5.15296e-06
4.60449e-06
4.18555e-06
4.09979e-06
4.73279e-06
6.95221e-06
5.33556e-06
1.64624e-06
1.30672e-07
5.16608e-08
2.08071e-06
5.06501e-06
1.05666e-05
1.91636e-05
2.71978e-05
3.11665e-05
3.1728e-05
3.0127e-05
2.73726e-05
2.42768e-05
2.13501e-05
1.87976e-05
1.66332e-05
1.47913e-05
1.31932e-05
1.1775e-05
1.04957e-05
9.33698e-06
8.3087e-06
7.45506e-06
6.84806e-06
6.45701e-06
6.17984e-06
5.90112e-06
5.5307e-06
5.05531e-06
4.5593e-06
4.19372e-06
4.16474e-06
4.87799e-06
7.19741e-06
5.29269e-06
1.65977e-06
1.34937e-07
5.48793e-08
2.10169e-06
5.12314e-06
1.07314e-05
1.94756e-05
2.74918e-05
3.13316e-05
3.17824e-05
3.01196e-05
2.73566e-05
2.42901e-05
2.1407e-05
1.8895e-05
1.67601e-05
1.49335e-05
1.33358e-05
1.19027e-05
1.05942e-05
9.39429e-06
8.3163e-06
7.40772e-06
6.74694e-06
6.31497e-06
6.01412e-06
5.73375e-06
5.38619e-06
4.95406e-06
4.51157e-06
4.20108e-06
4.23086e-06
5.0264e-06
7.4405e-06
5.26068e-06
1.67399e-06
1.39088e-07
5.80765e-08
2.12193e-06
5.18028e-06
1.08946e-05
1.97826e-05
2.77799e-05
3.14999e-05
3.18502e-05
3.01331e-05
2.73648e-05
2.43276e-05
2.14871e-05
1.90153e-05
1.69108e-05
1.5102e-05
1.35073e-05
1.20621e-05
1.07261e-05
9.48462e-06
8.35436e-06
7.38688e-06
6.66616e-06
6.18715e-06
5.85726e-06
5.57112e-06
5.2439e-06
4.85406e-06
4.46524e-06
4.21075e-06
4.30086e-06
5.18076e-06
7.68316e-06
5.23647e-06
1.68863e-06
1.43136e-07
6.13531e-08
2.14266e-06
5.23959e-06
1.10651e-05
2.01003e-05
2.80723e-05
3.16718e-05
3.19266e-05
3.01619e-05
2.73936e-05
2.43886e-05
2.15923e-05
1.91627e-05
1.70915e-05
1.5304e-05
1.37164e-05
1.22626e-05
1.0901e-05
9.61773e-06
8.43223e-06
7.40017e-06
6.6108e-06
6.07627e-06
5.70995e-06
5.41216e-06
5.10117e-06
4.75128e-06
4.41537e-06
4.21728e-06
4.36895e-06
5.33474e-06
7.92005e-06
5.22092e-06
1.70379e-06
1.47092e-07
6.46076e-08
2.16254e-06
5.29791e-06
1.12356e-05
2.04183e-05
2.83661e-05
3.18521e-05
3.20175e-05
3.02076e-05
2.74383e-05
2.44631e-05
2.17095e-05
1.93222e-05
1.72863e-05
1.55234e-05
1.39475e-05
1.24895e-05
1.1106e-05
9.7827e-06
8.54129e-06
7.44157e-06
6.57869e-06
5.98331e-06
5.57551e-06
5.26157e-06
4.96312e-06
4.65056e-06
4.36616e-06
4.22428e-06
4.43845e-06
5.49182e-06
8.15391e-06
5.21148e-06
1.71928e-06
1.50958e-07
6.79321e-08
2.18252e-06
5.35737e-06
1.14121e-05
2.07479e-05
2.86717e-05
3.20464e-05
3.21231e-05
3.02687e-05
2.7499e-05
2.45542e-05
2.18444e-05
1.95016e-05
1.75041e-05
1.57698e-05
1.42099e-05
1.2752e-05
1.135e-05
9.98794e-06
8.68923e-06
7.51756e-06
6.57418e-06
5.91053e-06
5.45451e-06
5.11851e-06
4.8276e-06
4.5486e-06
4.31343e-06
4.22696e-06
4.50396e-06
5.64546e-06
8.37876e-06
5.20815e-06
1.73501e-06
1.54746e-07
7.12347e-08
2.2015e-06
5.41532e-06
1.15875e-05
2.10764e-05
2.89754e-05
3.22419e-05
3.22387e-05
3.03376e-05
2.75637e-05
2.46475e-05
2.19815e-05
1.96848e-05
1.77286e-05
1.60272e-05
1.44884e-05
1.30364e-05
1.1621e-05
1.02239e-05
8.86909e-06
7.62411e-06
6.59671e-06
5.86001e-06
5.35075e-06
4.98767e-06
4.69953e-06
4.45002e-06
4.26135e-06
4.22911e-06
4.5692e-06
5.80052e-06
8.602e-06
5.2091e-06
1.75088e-06
1.58455e-07
7.45988e-08
2.22037e-06
5.4736e-06
1.17661e-05
2.14075e-05
2.92635e-05
3.24202e-05
3.23411e-05
3.04076e-05
2.76355e-05
2.47505e-05
2.21303e-05
1.98817e-05
1.79695e-05
1.63047e-05
1.47917e-05
1.33504e-05
1.1926e-05
1.04968e-05
9.08647e-06
7.76598e-06
6.64983e-06
5.83379e-06
5.26508e-06
4.86889e-06
4.5777e-06
4.35262e-06
4.20677e-06
4.22687e-06
4.62995e-06
5.9528e-06
8.82193e-06
5.21804e-06
1.76704e-06
1.6209e-07
7.7941e-08
2.2383e-06
5.53017e-06
1.19408e-05
2.17267e-05
2.95359e-05
3.25853e-05
3.24331e-05
3.04711e-05
2.77021e-05
2.48485e-05
2.22748e-05
2.0076e-05
1.82111e-05
1.65873e-05
1.51056e-05
1.36814e-05
1.22545e-05
1.07984e-05
9.33569e-06
7.94031e-06
6.73406e-06
5.8344e-06
5.20126e-06
4.76658e-06
4.46673e-06
4.2608e-06
4.15378e-06
4.22397e-06
4.68949e-06
6.10504e-06
9.03978e-06
5.23267e-06
1.78365e-06
1.6565e-07
8.13448e-08
2.2563e-06
5.58798e-06
1.21197e-05
2.2044e-05
2.97967e-05
3.27369e-05
3.25135e-05
3.05273e-05
2.77703e-05
2.49512e-05
2.24248e-05
2.02773e-05
1.8462e-05
1.68826e-05
1.54367e-05
1.40346e-05
1.26104e-05
1.11319e-05
9.61962e-06
8.14986e-06
6.85187e-06
5.86326e-06
5.16014e-06
4.68108e-06
4.3663e-06
4.17347e-06
4.10043e-06
4.21785e-06
4.74565e-06
6.25753e-06
9.25338e-06
5.25234e-06
1.80066e-06
1.69135e-07
8.47276e-08
2.27329e-06
5.6449e-06
1.23005e-05
2.23503e-05
3.00395e-05
3.28706e-05
3.25767e-05
3.05676e-05
2.78282e-05
2.50434e-05
2.25646e-05
2.04706e-05
1.87084e-05
1.7178e-05
1.57732e-05
1.43997e-05
1.29849e-05
1.14902e-05
9.9328e-06
8.39106e-06
7.00201e-06
5.92113e-06
5.1439e-06
4.61559e-06
4.28024e-06
4.09468e-06
4.05076e-06
4.2126e-06
4.80273e-06
6.41402e-06
9.46593e-06
5.27562e-06
1.81795e-06
1.7253e-07
8.81603e-08
2.28976e-06
5.70059e-06
1.24796e-05
2.2651e-05
3.02693e-05
3.29899e-05
3.26272e-05
3.05974e-05
2.78777e-05
2.51306e-05
2.27026e-05
2.06647e-05
1.8958e-05
1.74793e-05
1.61195e-05
1.47793e-05
1.33793e-05
1.1874e-05
1.02757e-05
8.66435e-06
7.18457e-06
6.00799e-06
5.15254e-06
4.5701e-06
4.20839e-06
4.02392e-06
4.00373e-06
4.20649e-06
4.85798e-06
6.56997e-06
9.6751e-06
5.30224e-06
1.83541e-06
1.7583e-07
9.15748e-08
2.30556e-06
5.75536e-06
1.26571e-05
2.29427e-05
3.04825e-05
3.30915e-05
3.26595e-05
3.06092e-05
2.79101e-05
2.52033e-05
2.28281e-05
2.08481e-05
1.91994e-05
1.77762e-05
1.64662e-05
1.51651e-05
1.37866e-05
1.2277e-05
1.06432e-05
8.96559e-06
7.39665e-06
6.12306e-06
5.18689e-06
4.54665e-06
4.15369e-06
3.96471e-06
3.96309e-06
4.20328e-06
4.91498e-06
6.72868e-06
9.8824e-06
5.33088e-06
1.85287e-06
1.79018e-07
9.5034e-08
2.32106e-06
5.80977e-06
1.28348e-05
2.32295e-05
3.06829e-05
3.31785e-05
3.26778e-05
3.06082e-05
2.7932e-05
2.52697e-05
2.29485e-05
2.10269e-05
1.94378e-05
1.80725e-05
1.68155e-05
1.55579e-05
1.42061e-05
1.26978e-05
1.10337e-05
9.29354e-06
7.6371e-06
6.2655e-06
5.24634e-06
4.54496e-06
4.11604e-06
3.9169e-06
3.92836e-06
4.20189e-06
4.97181e-06
6.88715e-06
1.00861e-05
5.36149e-06
1.87028e-06
1.82089e-07
9.84729e-08
2.33603e-06
5.86344e-06
1.30108e-05
2.3507e-05
3.08669e-05
3.32472e-05
3.26763e-05
3.05863e-05
2.79329e-05
2.53199e-05
2.30535e-05
2.11915e-05
1.96646e-05
1.83608e-05
1.71612e-05
1.59518e-05
1.46321e-05
1.31311e-05
1.14422e-05
9.64367e-06
7.90242e-06
6.43371e-06
5.33084e-06
4.56607e-06
4.0974e-06
3.88316e-06
3.90265e-06
4.20553e-06
5.03155e-06
7.04857e-06
1.02872e-05
5.39306e-06
1.8875e-06
1.85027e-07
1.01952e-07
2.35098e-06
5.91745e-06
1.31876e-05
2.37791e-05
3.10378e-05
3.33009e-05
3.26596e-05
3.05495e-05
2.79192e-05
2.53555e-05
2.31456e-05
2.13458e-05
1.98834e-05
1.86434e-05
1.75036e-05
1.63458e-05
1.50626e-05
1.35739e-05
1.18655e-05
1.00133e-05
8.19055e-06
6.62624e-06
5.43946e-06
4.60951e-06
4.09767e-06
3.86359e-06
3.88594e-06
4.21377e-06
5.09359e-06
7.21069e-06
1.04847e-05
5.42574e-06
1.9045e-06
1.87829e-07
1.05398e-07
2.36567e-06
5.97124e-06
1.3363e-05
2.40413e-05
3.11911e-05
3.33352e-05
3.26231e-05
3.04931e-05
2.78864e-05
2.5373e-05
2.32219e-05
2.14861e-05
2.00904e-05
1.89165e-05
1.78394e-05
1.67365e-05
1.54936e-05
1.40218e-05
1.22987e-05
1.03974e-05
8.49709e-06
6.84029e-06
5.57083e-06
4.67505e-06
4.11759e-06
3.85982e-06
3.88068e-06
4.23015e-06
5.16279e-06
7.37715e-06
1.06799e-05
5.45892e-06
1.9212e-06
1.90481e-07
1.08852e-07
2.38038e-06
6.02521e-06
1.35366e-05
2.4296e-05
3.13324e-05
3.33543e-05
3.25683e-05
3.04175e-05
2.78355e-05
2.53745e-05
2.32847e-05
2.1615e-05
2.02873e-05
1.91809e-05
1.81682e-05
1.71223e-05
1.59226e-05
1.44714e-05
1.27381e-05
1.07925e-05
8.81906e-06
7.07349e-06
5.72324e-06
4.76161e-06
4.15657e-06
3.8716e-06
3.8868e-06
4.2543e-06
5.23751e-06
7.54699e-06
1.08725e-05
5.49296e-06
1.9376e-06
1.92981e-07
1.12281e-07
2.39499e-06
6.08094e-06
1.37115e-05
2.45455e-05
3.14595e-05
3.33577e-05
3.24988e-05
3.03279e-05
2.77697e-05
2.53588e-05
2.33284e-05
2.17263e-05
2.047e-05
1.94339e-05
1.84876e-05
1.75008e-05
1.63469e-05
1.49194e-05
1.31794e-05
1.11936e-05
9.1517e-06
7.32212e-06
5.89421e-06
4.86797e-06
4.21473e-06
3.90016e-06
3.90625e-06
4.28836e-06
5.3197e-06
7.72254e-06
1.10636e-05
5.5276e-06
1.95369e-06
1.95318e-07
1.15712e-07
2.4091e-06
6.13607e-06
1.38853e-05
2.4787e-05
3.1573e-05
3.33461e-05
3.24132e-05
3.02216e-05
2.7688e-05
2.533e-05
2.33624e-05
2.18275e-05
2.06406e-05
1.9676e-05
1.8798e-05
1.78718e-05
1.67655e-05
1.53643e-05
1.36211e-05
1.15992e-05
9.49316e-06
7.58399e-06
6.08141e-06
4.99195e-06
4.29028e-06
3.94441e-06
3.93859e-06
4.33219e-06
5.40905e-06
7.90314e-06
1.12535e-05
5.56333e-06
1.96951e-06
1.97501e-07
1.19092e-07
2.42275e-06
6.19051e-06
1.40579e-05
2.50194e-05
3.1671e-05
3.3318e-05
3.23111e-05
3.00987e-05
2.75894e-05
2.52835e-05
2.33797e-05
2.19151e-05
2.08002e-05
1.99053e-05
1.90964e-05
1.82335e-05
1.71768e-05
1.58039e-05
1.40603e-05
1.20059e-05
9.84035e-06
7.8568e-06
6.28321e-06
5.13244e-06
4.38257e-06
4.00421e-06
3.98429e-06
4.38684e-06
5.50707e-06
8.09044e-06
1.14425e-05
5.59995e-06
1.98506e-06
1.99527e-07
1.22448e-07
2.43587e-06
6.24396e-06
1.42287e-05
2.52435e-05
3.17564e-05
3.32764e-05
3.21946e-05
2.99615e-05
2.74768e-05
2.5224e-05
2.3385e-05
2.19913e-05
2.09493e-05
2.01261e-05
1.93846e-05
1.85843e-05
1.75789e-05
1.62367e-05
1.44954e-05
1.24122e-05
1.01917e-05
8.13885e-06
6.49799e-06
5.28803e-06
4.49047e-06
4.07863e-06
4.04258e-06
4.45164e-06
5.61307e-06
8.28358e-06
1.16307e-05
5.63772e-06
2.00039e-06
2.01402e-07
1.25738e-07
2.4485e-06
6.29645e-06
1.4397e-05
2.54569e-05
3.18266e-05
3.32187e-05
3.20614e-05
2.98068e-05
2.73465e-05
2.5147e-05
2.33743e-05
2.20531e-05
2.10855e-05
2.03357e-05
1.96638e-05
1.89254e-05
1.79713e-05
1.6661e-05
1.49241e-05
1.28154e-05
1.05447e-05
8.42819e-06
6.72439e-06
5.4579e-06
4.61376e-06
4.16813e-06
4.11443e-06
4.52792e-06
5.72864e-06
8.48425e-06
1.1819e-05
5.67663e-06
2.01551e-06
2.03132e-07
1.28978e-07
2.46063e-06
6.34777e-06
1.45627e-05
2.56614e-05
3.18846e-05
3.3148e-05
3.19143e-05
2.96382e-05
2.72025e-05
2.50568e-05
2.3351e-05
2.21028e-05
2.12097e-05
2.05333e-05
1.99312e-05
1.92556e-05
1.83515e-05
1.70742e-05
1.53442e-05
1.32135e-05
1.08973e-05
8.72287e-06
6.96047e-06
5.64025e-06
4.75097e-06
4.2717e-06
4.19945e-06
4.61575e-06
5.85408e-06
8.69262e-06
1.20088e-05
5.71742e-06
2.03057e-06
2.04738e-07
1.32122e-07
2.47208e-06
6.39741e-06
1.47242e-05
2.58542e-05
3.19278e-05
3.30617e-05
3.17506e-05
2.94523e-05
2.70414e-05
2.495e-05
2.33126e-05
2.21386e-05
2.13211e-05
2.07187e-05
2.01869e-05
1.95744e-05
1.87209e-05
1.74745e-05
1.57529e-05
1.36039e-05
1.12475e-05
9.02124e-06
7.20483e-06
5.83381e-06
4.901e-06
4.38864e-06
4.29742e-06
4.71546e-06
5.99005e-06
8.9092e-06
1.21994e-05
5.7599e-06
2.04559e-06
2.06233e-07
1.35199e-07
2.48308e-06
6.44596e-06
1.48832e-05
2.60381e-05
3.19591e-05
3.29624e-05
3.15733e-05
2.9253e-05
2.68673e-05
2.48306e-05
2.32621e-05
2.21628e-05
2.14206e-05
2.08918e-05
2.04296e-05
1.98797e-05
1.90767e-05
1.78624e-05
1.61489e-05
1.39847e-05
1.15934e-05
9.32164e-06
7.45593e-06
6.03713e-06
5.06242e-06
4.5176e-06
4.40721e-06
4.82622e-06
6.136e-06
9.13333e-06
1.23906e-05
5.80432e-06
2.06063e-06
2.07631e-07
1.38171e-07
2.4934e-06
6.49269e-06
1.50376e-05
2.62101e-05
3.19758e-05
3.28479e-05
3.13799e-05
2.90376e-05
2.66775e-05
2.46964e-05
2.31981e-05
2.21743e-05
2.1508e-05
2.1053e-05
2.06602e-05
2.0172e-05
1.94188e-05
1.82363e-05
1.65321e-05
1.43548e-05
1.19335e-05
9.62262e-06
7.71244e-06
6.24906e-06
5.23433e-06
4.65788e-06
4.52842e-06
4.94802e-06
6.2924e-06
9.36576e-06
1.25827e-05
5.85044e-06
2.07569e-06
2.08943e-07
1.41065e-07
2.50327e-06
6.53829e-06
1.51892e-05
2.6373e-05
3.19805e-05
3.27203e-05
3.11729e-05
2.8809e-05
2.64753e-05
2.45505e-05
2.31231e-05
2.21751e-05
2.15845e-05
2.12025e-05
2.08781e-05
2.04506e-05
1.97459e-05
1.85946e-05
1.69007e-05
1.47131e-05
1.22671e-05
9.92341e-06
7.97345e-06
6.46857e-06
5.41569e-06
4.80854e-06
4.66025e-06
5.08022e-06
6.45867e-06
9.60577e-06
1.27759e-05
5.89857e-06
2.09084e-06
2.10185e-07
1.43848e-07
2.51246e-06
6.58193e-06
1.53358e-05
2.65236e-05
3.19707e-05
3.25774e-05
3.09502e-05
2.8565e-05
2.62589e-05
2.43914e-05
2.30362e-05
2.21649e-05
2.16503e-05
2.13412e-05
2.10845e-05
2.07166e-05
2.00591e-05
1.89381e-05
1.72547e-05
1.50589e-05
1.25918e-05
1.02217e-05
8.23713e-06
6.69428e-06
5.60542e-06
4.96881e-06
4.80223e-06
5.22274e-06
6.63517e-06
9.85394e-06
1.29706e-05
5.94854e-06
2.10609e-06
2.11368e-07
1.4654e-07
2.52115e-06
6.62423e-06
1.54789e-05
2.66646e-05
3.19486e-05
3.24208e-05
3.07133e-05
2.83077e-05
2.60303e-05
2.42212e-05
2.29392e-05
2.21447e-05
2.17059e-05
2.14691e-05
2.12789e-05
2.09691e-05
2.03573e-05
1.92655e-05
1.7593e-05
1.53919e-05
1.29089e-05
1.05182e-05
8.50343e-06
6.92561e-06
5.80273e-06
5.13783e-06
4.9536e-06
5.37494e-06
6.82139e-06
1.01097e-05
1.3167e-05
6.00045e-06
2.12148e-06
2.12503e-07
1.49115e-07
2.52914e-06
6.66446e-06
1.56165e-05
2.67931e-05
3.1912e-05
3.22489e-05
3.04608e-05
2.80359e-05
2.57888e-05
2.40395e-05
2.28317e-05
2.21149e-05
2.17519e-05
2.15868e-05
2.14622e-05
2.1209e-05
2.06411e-05
1.95772e-05
1.79156e-05
1.57114e-05
1.32173e-05
1.0812e-05
8.77152e-06
7.16181e-06
6.00694e-06
5.31507e-06
5.11403e-06
5.53682e-06
7.01759e-06
1.03735e-05
1.3365e-05
6.05417e-06
2.13702e-06
2.136e-07
1.51592e-07
2.53662e-06
6.7032e-06
1.57503e-05
2.69116e-05
3.18627e-05
3.20629e-05
3.01941e-05
2.77513e-05
2.55362e-05
2.38479e-05
2.27153e-05
2.20763e-05
2.17885e-05
2.16941e-05
2.16336e-05
2.14351e-05
2.09091e-05
1.98717e-05
1.82212e-05
1.60167e-05
1.35165e-05
1.11029e-05
9.04117e-06
7.40257e-06
6.21758e-06
5.49992e-06
5.28288e-06
5.70776e-06
7.22358e-06
1.06453e-05
1.35652e-05
6.10989e-06
2.1528e-06
2.14667e-07
1.53955e-07
2.54344e-06
6.73997e-06
1.58789e-05
2.70181e-05
3.17992e-05
3.18615e-05
2.99123e-05
2.74534e-05
2.52725e-05
2.36469e-05
2.25906e-05
2.20296e-05
2.18168e-05
2.1792e-05
2.1794e-05
2.16481e-05
2.11617e-05
2.01489e-05
1.85093e-05
1.63068e-05
1.38055e-05
1.13898e-05
9.31186e-06
7.64765e-06
6.43453e-06
5.69229e-06
5.46026e-06
5.88868e-06
7.43932e-06
1.0925e-05
1.37674e-05
6.16733e-06
2.16887e-06
2.15709e-07
1.56223e-07
2.54978e-06
6.77538e-06
1.6004e-05
2.71149e-05
3.1723e-05
3.16459e-05
2.96167e-05
2.71439e-05
2.49994e-05
2.34378e-05
2.24587e-05
2.19759e-05
2.18373e-05
2.18809e-05
2.19435e-05
2.18477e-05
2.13981e-05
2.04079e-05
1.87789e-05
1.65807e-05
1.40833e-05
1.16719e-05
9.5827e-06
7.89644e-06
6.65749e-06
5.89213e-06
5.64626e-06
6.07939e-06
7.66523e-06
1.12129e-05
1.39722e-05
6.22679e-06
2.18527e-06
2.16735e-07
1.58386e-07
2.55553e-06
6.80902e-06
1.61245e-05
2.72005e-05
3.16326e-05
3.1415e-05
2.93067e-05
2.68226e-05
2.47171e-05
2.32214e-05
2.23206e-05
2.19163e-05
2.18515e-05
2.19623e-05
2.20835e-05
2.20351e-05
2.16194e-05
2.06492e-05
1.90299e-05
1.68379e-05
1.43492e-05
1.19481e-05
9.85281e-06
8.14824e-06
6.88597e-06
6.09924e-06
5.8408e-06
6.27976e-06
7.90134e-06
1.15089e-05
1.41794e-05
6.2881e-06
2.20199e-06
2.17754e-07
1.60459e-07
2.56081e-06
6.84138e-06
1.62418e-05
2.72766e-05
3.15293e-05
3.11696e-05
2.89832e-05
2.64907e-05
2.4427e-05
2.2999e-05
2.21774e-05
2.18517e-05
2.186e-05
2.20368e-05
2.22146e-05
2.2211e-05
2.1826e-05
2.0873e-05
1.92624e-05
1.70784e-05
1.46027e-05
1.22175e-05
1.0121e-05
8.40199e-06
7.11926e-06
6.31315e-06
6.0438e-06
6.49009e-06
8.14842e-06
1.18139e-05
1.43901e-05
6.35165e-06
2.2191e-06
2.18778e-07
1.62434e-07
2.56554e-06
6.8721e-06
1.63549e-05
2.73418e-05
3.14118e-05
3.09088e-05
2.86459e-05
2.61484e-05
2.41295e-05
2.27711e-05
2.20299e-05
2.1783e-05
2.18642e-05
2.21058e-05
2.23384e-05
2.23768e-05
2.20194e-05
2.10808e-05
1.94776e-05
1.73029e-05
1.48444e-05
1.24799e-05
1.03869e-05
8.65717e-06
7.35672e-06
6.53313e-06
6.25448e-06
6.70963e-06
8.40585e-06
1.21274e-05
1.46036e-05
6.41707e-06
2.23656e-06
2.19813e-07
1.64321e-07
2.56979e-06
6.90143e-06
1.64644e-05
2.73969e-05
3.12808e-05
3.0633e-05
2.82955e-05
2.57966e-05
2.38258e-05
2.25388e-05
2.18787e-05
2.17108e-05
2.18641e-05
2.21695e-05
2.24551e-05
2.25331e-05
2.22003e-05
2.12735e-05
1.96766e-05
1.75127e-05
1.50753e-05
1.2735e-05
1.06491e-05
8.91248e-06
7.59743e-06
6.75882e-06
6.47279e-06
6.93871e-06
8.6744e-06
1.24502e-05
1.48204e-05
6.48453e-06
2.25443e-06
2.20865e-07
1.66114e-07
2.5735e-06
6.92911e-06
1.65695e-05
2.74409e-05
3.11351e-05
3.03416e-05
2.79319e-05
2.54359e-05
2.35165e-05
2.23028e-05
2.17248e-05
2.16358e-05
2.18608e-05
2.22287e-05
2.25655e-05
2.26806e-05
2.23696e-05
2.14523e-05
1.98613e-05
1.77105e-05
1.5299e-05
1.29845e-05
1.09084e-05
9.16792e-06
7.8411e-06
6.98969e-06
6.69796e-06
7.17647e-06
8.95314e-06
1.27816e-05
1.50401e-05
6.55378e-06
2.27269e-06
2.21943e-07
1.67823e-07
2.57672e-06
6.9553e-06
1.66707e-05
2.74741e-05
3.0975e-05
3.0035e-05
2.7556e-05
2.50673e-05
2.32028e-05
2.20642e-05
2.15689e-05
2.15585e-05
2.18543e-05
2.22834e-05
2.26694e-05
2.28191e-05
2.25273e-05
2.16176e-05
2.00325e-05
1.78976e-05
1.55169e-05
1.32288e-05
1.11642e-05
9.42255e-06
8.08694e-06
7.22542e-06
6.9304e-06
7.42372e-06
9.24319e-06
1.31225e-05
1.52634e-05
6.625e-06
2.29141e-06
2.23056e-07
1.69447e-07
2.5794e-06
6.97983e-06
1.67675e-05
2.74957e-05
3.07996e-05
2.97125e-05
2.71678e-05
2.46915e-05
2.28855e-05
2.1824e-05
2.1412e-05
2.14801e-05
2.18456e-05
2.23343e-05
2.27675e-05
2.29494e-05
2.26741e-05
2.17703e-05
2.01911e-05
1.8075e-05
1.57296e-05
1.34687e-05
1.14169e-05
9.67625e-06
8.33441e-06
7.46534e-06
7.16937e-06
7.67955e-06
9.54374e-06
1.34721e-05
1.54895e-05
6.69811e-06
2.3106e-06
2.24212e-07
1.70996e-07
2.58159e-06
7.00286e-06
1.68602e-05
2.7506e-05
3.06091e-05
2.93746e-05
2.67681e-05
2.43093e-05
2.25657e-05
2.15832e-05
2.12551e-05
2.14012e-05
2.18354e-05
2.23821e-05
2.28603e-05
2.30716e-05
2.28102e-05
2.191e-05
2.03366e-05
1.82412e-05
1.59342e-05
1.3702e-05
1.1665e-05
9.92798e-06
8.58274e-06
7.70891e-06
7.41479e-06
7.94483e-06
9.85583e-06
1.38309e-05
1.57181e-05
6.77294e-06
2.33026e-06
2.25414e-07
1.7247e-07
2.58322e-06
7.02414e-06
1.69483e-05
2.75042e-05
3.04025e-05
2.90204e-05
2.63566e-05
2.3921e-05
2.22439e-05
2.13428e-05
2.10995e-05
2.13232e-05
2.1825e-05
2.2428e-05
2.2949e-05
2.31872e-05
2.29369e-05
2.20386e-05
2.04705e-05
1.83969e-05
1.61308e-05
1.39285e-05
1.19081e-05
1.0177e-05
8.83103e-06
7.95509e-06
7.66548e-06
8.21804e-06
1.01776e-05
1.41976e-05
1.59475e-05
6.84895e-06
2.35033e-06
2.26655e-07
1.73881e-07
2.58436e-06
7.04391e-06
1.70324e-05
2.74909e-05
3.018e-05
2.86502e-05
2.59336e-05
2.35269e-05
2.19208e-05
2.11041e-05
2.09462e-05
2.12468e-05
2.1815e-05
2.24728e-05
2.30344e-05
2.32968e-05
2.3055e-05
2.21565e-05
2.05929e-05
1.85421e-05
1.63181e-05
1.41473e-05
1.21454e-05
1.04227e-05
9.07869e-06
8.20342e-06
7.92117e-06
8.49956e-06
1.05107e-05
1.45722e-05
1.61772e-05
6.92594e-06
2.3708e-06
2.27934e-07
1.75228e-07
2.58495e-06
7.06193e-06
1.71118e-05
2.74652e-05
2.99405e-05
2.82631e-05
2.54987e-05
2.31265e-05
2.15958e-05
2.08687e-05
2.0796e-05
2.11723e-05
2.1806e-05
2.25175e-05
2.31182e-05
2.34026e-05
2.31667e-05
2.22661e-05
2.07064e-05
1.8679e-05
1.64975e-05
1.43586e-05
1.23766e-05
1.06645e-05
9.32495e-06
8.45315e-06
8.18119e-06
8.78862e-06
1.0854e-05
1.49544e-05
1.6407e-05
7.00367e-06
2.39162e-06
2.29251e-07
1.76524e-07
2.58506e-06
7.0785e-06
1.71874e-05
2.74277e-05
2.96841e-05
2.78593e-05
2.50527e-05
2.27206e-05
2.12684e-05
2.06326e-05
2.06459e-05
2.10985e-05
2.17978e-05
2.25624e-05
2.32006e-05
2.35049e-05
2.32728e-05
2.23686e-05
2.08128e-05
1.88094e-05
1.66699e-05
1.45629e-05
1.26018e-05
1.09021e-05
9.56958e-06
8.70409e-06
8.44563e-06
9.08573e-06
1.12083e-05
1.53451e-05
1.66367e-05
7.0819e-06
2.41278e-06
2.30598e-07
1.77774e-07
2.58467e-06
7.09348e-06
1.72587e-05
2.73775e-05
2.94099e-05
2.74383e-05
2.45954e-05
2.23094e-05
2.09393e-05
2.03966e-05
2.04969e-05
2.10264e-05
2.17915e-05
2.26085e-05
2.3283e-05
2.36051e-05
2.33749e-05
2.24662e-05
2.09148e-05
1.8937e-05
1.68376e-05
1.47613e-05
1.28212e-05
1.11352e-05
9.81186e-06
8.95542e-06
8.71367e-06
9.39012e-06
1.15727e-05
1.5743e-05
1.68658e-05
7.1606e-06
2.43425e-06
2.31989e-07
1.78986e-07
2.58385e-06
7.10711e-06
1.73263e-05
2.73146e-05
2.91177e-05
2.70007e-05
2.4128e-05
2.18938e-05
2.0609e-05
2.01608e-05
2.03489e-05
2.09557e-05
2.17866e-05
2.26557e-05
2.33652e-05
2.37033e-05
2.34734e-05
2.256e-05
2.10149e-05
1.90656e-05
1.70032e-05
1.49555e-05
1.30359e-05
1.13644e-05
1.0052e-05
9.2071e-06
8.98521e-06
9.7018e-06
1.19473e-05
1.61479e-05
1.70941e-05
7.23968e-06
2.45605e-06
2.33424e-07
1.80165e-07
2.58256e-06
7.11924e-06
1.73897e-05
2.72385e-05
2.88071e-05
2.65465e-05
2.36508e-05
2.14742e-05
2.02773e-05
1.99248e-05
2.02011e-05
2.08857e-05
2.17828e-05
2.27038e-05
2.34474e-05
2.38002e-05
2.35693e-05
2.26514e-05
2.11148e-05
1.91968e-05
1.71681e-05
1.51463e-05
1.32463e-05
1.15899e-05
1.029e-05
9.45887e-06
9.25985e-06
1.00202e-05
1.2331e-05
1.65581e-05
1.73204e-05
7.31862e-06
2.47805e-06
2.34894e-07
1.81312e-07
2.58077e-06
7.12974e-06
1.74485e-05
2.71487e-05
2.84778e-05
2.60763e-05
2.31651e-05
2.10516e-05
1.99456e-05
1.96896e-05
2.00545e-05
2.0817e-05
2.17803e-05
2.27527e-05
2.35294e-05
2.38954e-05
2.36625e-05
2.27403e-05
2.12143e-05
1.933e-05
1.73328e-05
1.5335e-05
1.34537e-05
1.18124e-05
1.0526e-05
9.71066e-06
9.53738e-06
1.03451e-05
1.27238e-05
1.69733e-05
1.75446e-05
7.3974e-06
2.50028e-06
2.364e-07
1.82432e-07
2.5785e-06
7.13864e-06
1.75028e-05
2.70449e-05
2.81295e-05
2.55903e-05
2.26713e-05
2.06267e-05
1.96138e-05
1.94552e-05
1.99089e-05
2.07494e-05
2.17789e-05
2.28027e-05
2.36117e-05
2.39896e-05
2.37533e-05
2.28266e-05
2.13123e-05
1.94628e-05
1.74959e-05
1.55212e-05
1.36582e-05
1.20324e-05
1.07607e-05
9.96303e-06
9.81819e-06
1.06764e-05
1.31245e-05
1.73916e-05
1.77659e-05
7.47575e-06
2.52266e-06
2.3794e-07
1.83529e-07
2.57574e-06
7.14589e-06
1.75525e-05
2.69269e-05
2.77623e-05
2.50892e-05
2.21707e-05
2.02004e-05
1.92829e-05
1.92221e-05
1.97645e-05
2.06829e-05
2.17786e-05
2.28533e-05
2.36941e-05
2.40829e-05
2.38425e-05
2.29112e-05
2.14093e-05
1.95948e-05
1.76573e-05
1.57049e-05
1.38603e-05
1.22505e-05
1.09942e-05
1.02155e-05
1.01013e-05
1.10136e-05
1.35332e-05
1.7813e-05
1.79844e-05
7.55366e-06
2.54517e-06
2.39517e-07
1.84602e-07
2.57246e-06
7.1513e-06