/*--------------------------------*- C++ -*----------------------------------*\
| =========                 |                                                 |
| \\      /  F ield         | OpenFOAM: The Open Source CFD Toolbox           |
|  \\    /   O peration     | Version:  v1906                                 |
|   \\  /    A nd           | Web:      www.OpenFOAM.com                      |
|    \\/     M anipulation  |                                                 |
\*---------------------------------------------------------------------------*/
FoamFile
{
    version     2.0;
    format      ascii;
    class       volVectorField;
    location    "83";
    object      U;
}
// * * * * * * * * * * * * * * * * * * * * * * * * * * * * * * * * * * * * * //

dimensions      [0 1 -1 0 0 0 0];


internalField   nonuniform List<vector> 
78750
(
(5.61081e-05 -0.000770572 0.00154455)
(0.000333533 -0.0017417 0.00398163)
(0.000763882 -0.00260925 0.00562968)
(0.00139024 -0.00353112 0.00659926)
(0.00223337 -0.00449479 0.00708697)
(0.00329843 -0.00543089 0.00727924)
(0.00456866 -0.00627127 0.00730935)
(0.00601079 -0.00696874 0.00725786)
(0.00758291 -0.007498 0.00716827)
(0.00924015 -0.00785012 0.00706209)
(0.010938 -0.00802663 0.00694904)
(0.0126339 -0.00803491 0.00683293)
(0.0142883 -0.00788548 0.00671476)
(0.0158649 -0.00759007 0.00659415)
(0.0173297 -0.00715635 0.00647203)
(0.0186533 -0.0065978 0.00634791)
(0.0198082 -0.0059285 0.0062217)
(0.0207704 -0.00516265 0.0060937)
(0.0215192 -0.00431476 0.00596455)
(0.0220376 -0.00340001 0.00583527)
(0.0223126 -0.00243441 0.00570718)
(0.022336 -0.00143491 0.00558175)
(0.022106 -0.000419541 0.00546035)
(0.0216176 0.000589353 0.00534547)
(0.0208638 0.00157452 0.00523876)
(0.0198565 0.00251933 0.00514241)
(0.018614 0.00340622 0.00505806)
(0.0171559 0.0042171 0.00498648)
(0.0155028 0.00493921 0.00492808)
(0.0136724 0.00557645 0.00488167)
(0.0116653 0.00620966 0.00483494)
(0.00941404 0.00712907 0.00472208)
(0.00674403 0.0087046 0.00432866)
(0.00367837 0.0101066 0.00327073)
(0.00089058 0.00725854 0.00132252)
(5.69349e-06 -0.00253274 0.00132661)
(0.000375218 -0.00608022 0.0031892)
(0.00104005 -0.0090225 0.00428602)
(0.00198205 -0.0117805 0.00488306)
(0.00315793 -0.0143716 0.00516942)
(0.00450804 -0.0166775 0.00527053)
(0.0059718 -0.0185867 0.00526772)
(0.00749654 -0.0200375 0.00521053)
(0.00903813 -0.021012 0.00512719)
(0.0105596 -0.0215194 0.00503294)
(0.0120298 -0.0215825 0.00493557)
(0.0134233 -0.0212302 0.00483871)
(0.0147191 -0.0204953 0.00474255)
(0.015891 -0.0194182 0.00464146)
(0.0169276 -0.0180319 0.00453677)
(0.0178204 -0.0163565 0.00443518)
(0.0185511 -0.0144212 0.00433758)
(0.0191079 -0.0122564 0.00424498)
(0.019481 -0.00989476 0.00415834)
(0.0196613 -0.00737198 0.00407816)
(0.0196401 -0.00472756 0.00400467)
(0.0194095 -0.00200531 0.00393796)
(0.0189619 0.000746516 0.00387861)
(0.0183059 0.00347287 0.00382874)
(0.0174529 0.00611756 0.00378936)
(0.0164107 0.00862252 0.00376087)
(0.0151942 0.0109422 0.00374622)
(0.0138134 0.0130625 0.00375496)
(0.0122795 0.0150091 0.00379442)
(0.0106042 0.0169057 0.00386275)
(0.00876373 0.0191043 0.0039423)
(0.00668162 0.0221978 0.00395137)
(0.00436873 0.0261055 0.00366362)
(0.00207208 0.0277193 0.00276344)
(0.000241939 0.0181578 0.00110186)
(5.02511e-07 -0.00436147 0.0012406)
(0.000481051 -0.0113392 0.00286799)
(0.00138335 -0.0171627 0.00378111)
(0.00262519 -0.0221102 0.00425254)
(0.0040824 -0.0261475 0.00447285)
(0.00563951 -0.0292229 0.00456088)
(0.0072089 -0.0313606 0.00458473)
(0.00873431 -0.0326462 0.00457941)
(0.0101821 -0.0331842 0.00456055)
(0.0115316 -0.0330733 0.00453362)
(0.0127689 -0.0323968 0.00449964)
(0.0138842 -0.0312234 0.00445826)
(0.0148702 -0.029609 0.00440908)
(0.0157199 -0.027601 0.0043524)
(0.0164274 -0.025242 0.00428886)
(0.0169866 -0.0225658 0.00422132)
(0.0173936 -0.0196021 0.00415409)
(0.0176454 -0.0163782 0.00409229)
(0.0177401 -0.0129216 0.00404091)
(0.0176766 -0.00926201 0.00400324)
(0.0174551 -0.00543468 0.00398033)
(0.0170771 -0.00148436 0.00396986)
(0.0165411 0.00253194 0.00396575)
(0.0158431 0.00654269 0.00395881)
(0.014985 0.0104585 0.0039387)
(0.0139729 0.0141829 0.00389765)
(0.0128174 0.0176367 0.00383517)
(0.0115318 0.0207909 0.00376007)
(0.0101286 0.0237154 0.00368813)
(0.00860829 0.0266545 0.00363589)
(0.00693832 0.0300891 0.00360111)
(0.00506725 0.0344452 0.00351139)
(0.00315897 0.0386723 0.00318173)
(0.00140618 0.0385509 0.00236742)
(0.00014713 0.0233547 0.000940931)
(3.79821e-05 -0.00692457 0.00113201)
(0.000633175 -0.0182652 0.0024462)
(0.00163803 -0.0273143 0.00305914)
(0.00291375 -0.0342563 0.00329564)
(0.00430116 -0.0391724 0.00335672)
(0.00568573 -0.0423232 0.00334633)
(0.00700927 -0.0440728 0.00331087)
(0.00825182 -0.0447446 0.00326733)
(0.00940727 -0.0445671 0.00322082)
(0.0104721 -0.0436932 0.00317004)
(0.0114431 -0.0422268 0.00311317)
(0.0123162 -0.0402399 0.00305065)
(0.0130859 -0.0377857 0.00298323)
(0.0137443 -0.034907 0.0029133)
(0.0142822 -0.031643 0.00284529)
(0.014691 -0.0280327 0.00278565)
(0.0149643 -0.0241168 0.00274262)
(0.0150988 -0.0199375 0.00272562)
(0.0150947 -0.0155365 0.00274417)
(0.0149554 -0.0109528 0.00280774)
(0.014686 -0.0062213 0.00292314)
(0.0142902 -0.00137523 0.003092)
(0.0137747 0.00354553 0.00330774)
(0.0131463 0.00848507 0.00355168)
(0.0124056 0.0133634 0.00379303)
(0.0115513 0.0180776 0.00399421)
(0.0105837 0.0225283 0.00412207)
(0.00950545 0.0266769 0.00416054)
(0.00831784 0.0306252 0.00411585)
(0.00701008 0.0346891 0.00400812)
(0.0055507 0.0393526 0.00384661)
(0.00391872 0.0446744 0.00358998)
(0.00235798 0.0487258 0.00313692)
(0.000996942 0.046809 0.00230379)
(7.20897e-05 0.026963 0.000928152)
(4.43912e-05 -0.00931004 0.000834725)
(0.000602422 -0.0240562 0.00169663)
(0.00148703 -0.0351243 0.00205992)
(0.00255242 -0.0428769 0.00220486)
(0.00365312 -0.0477425 0.0022623)
(0.00471066 -0.0504311 0.00228118)
(0.00570883 -0.0516187 0.00227807)
(0.0066511 -0.0517452 0.00225604)
(0.00754344 -0.0510524 0.00221525)
(0.00838711 -0.0496677 0.00215446)
(0.00917177 -0.0476759 0.00206945)
(0.00989053 -0.0451319 0.00195902)
(0.0105349 -0.042064 0.00182609)
(0.0110892 -0.0385061 0.00167508)
(0.0115394 -0.0345026 0.00151337)
(0.0118744 -0.0301127 0.00135149)
(0.012088 -0.0254076 0.00120306)
(0.0121788 -0.0204639 0.00108426)
(0.0121504 -0.0153535 0.00101407)
(0.0120098 -0.0101364 0.00101259)
(0.0117659 -0.00485507 0.00109966)
(0.0114276 0.000463923 0.00129238)
(0.0110031 0.00580238 0.00159998)
(0.010499 0.0111365 0.00201649)
(0.00991681 0.0164243 0.00251346)
(0.00925445 0.0216014 0.00303798)
(0.00850639 0.0266034 0.00352212)
(0.00766463 0.0314283 0.00390299)
(0.00671711 0.0362198 0.00414035)
(0.00564324 0.0413088 0.00421555)
(0.0044153 0.0470312 0.00411305)
(0.00304544 0.0529208 0.00380556)
(0.00178743 0.0564441 0.00326982)
(0.000724341 0.0527796 0.0023778)
(3.65895e-05 0.0292588 0.000942309)
(4.74974e-05 -0.011616 0.000604937)
(0.000531293 -0.029517 0.00124617)
(0.00126624 -0.0423644 0.00156071)
(0.00213282 -0.0508355 0.00172724)
(0.00301544 -0.0557657 0.00181226)
(0.00386256 -0.0582615 0.00184419)
(0.00467527 -0.059197 0.00183908)
(0.00546233 -0.0590492 0.00180323)
(0.00622183 -0.0580461 0.00173803)
(0.00694795 -0.056298 0.0016449)
(0.00763271 -0.0538587 0.00152422)
(0.00826444 -0.050758 0.00137509)
(0.00882749 -0.0470241 0.00119865)
(0.0093061 -0.0427035 0.000997887)
(0.00968667 -0.0378725 0.000778172)
(0.00995957 -0.0326343 0.000547877)
(0.0101215 -0.0271054 0.00031889)
(0.0101757 -0.0214023 0.000107094)
(0.0101299 -0.0156258 -6.8764e-05)
(0.00999412 -0.00985105 -0.000186433)
(0.00977957 -0.00412322 -0.000220831)
(0.00949681 0.00153896 -0.000145796)
(0.0091536 0.00713688 6.23287e-05)
(0.00875513 0.0126783 0.000418298)
(0.00830278 0.0181655 0.000918638)
(0.00779206 0.0235905 0.00153256)
(0.00721186 0.0289536 0.0022005)
(0.00654501 0.034317 0.00284558)
(0.00576919 0.0398738 0.00339054)
(0.00485838 0.0459424 0.00376301)
(0.00379057 0.0526612 0.00388908)
(0.0026047 0.0590598 0.00370617)
(0.00153352 0.0622232 0.00320786)
(0.000629198 0.0572261 0.00231632)
(4.18652e-05 0.0309421 0.000875481)
(4.37957e-05 -0.0133732 0.000413021)
(0.000442196 -0.0334736 0.000876817)
(0.00104102 -0.047434 0.00114663)
(0.00174766 -0.0562681 0.0013199)
(0.00246843 -0.0611518 0.00142193)
(0.00316505 -0.0634681 0.00146923)
(0.00384275 -0.0641938 0.00147628)
(0.00450747 -0.0638091 0.00145018)
(0.00515415 -0.0625231 0.00139342)
(0.00577544 -0.0604257 0.00130632)
(0.00636248 -0.0575493 0.00118846)
(0.00690353 -0.0539065 0.00103936)
(0.00738448 -0.0495233 0.000858802)
(0.00779091 -0.0444666 0.00064777)
(0.00811096 -0.0388478 0.000409329)
(0.00833841 -0.0328151 0.000149479)
(0.00847201 -0.0265318 -0.000121996)
(0.0085149 -0.0201538 -0.000390634)
(0.00847368 -0.0138116 -0.000636913)
(0.00835719 -0.00759811 -0.000836891)
(0.00817523 -0.00156437 -0.000963295)
(0.00793886 0.00427639 -0.000987347)
(0.00765826 0.00994171 -0.000881654)
(0.00733917 0.015472 -0.000624476)
(0.00698236 0.0209197 -0.000206225)
(0.00658194 0.0263447 0.00036247)
(0.00612391 0.0318289 0.00104521)
(0.00558625 0.0375149 0.00178053)
(0.00494151 0.0436424 0.00248665)
(0.00416187 0.0504777 0.0030613)
(0.00323072 0.0579071 0.00338274)
(0.00220902 0.0645058 0.00334547)
(0.00129297 0.0672136 0.00293213)
(0.00052206 0.0609578 0.00209892)
(3.12984e-05 0.0323795 0.000753795)
(3.18694e-05 -0.014934 0.000310459)
(0.000349078 -0.037118 0.000737863)
(0.000838036 -0.0522788 0.00104903)
(0.00142966 -0.0616715 0.00127263)
(0.00204275 -0.0667195 0.00141019)
(0.00264319 -0.0690305 0.00147951)
(0.00323572 -0.0696806 0.00150084)
(0.0038236 -0.0691655 0.00148499)
(0.00439964 -0.0676852 0.00143649)
(0.00495561 -0.0653127 0.00135711)
(0.00548245 -0.0620634 0.00124716)
(0.00596876 -0.0579398 0.00110597)
(0.00640185 -0.0529732 0.000932217)
(0.00677018 -0.0472501 0.000724687)
(0.00706516 -0.0409136 0.000482946)
(0.00728177 -0.0341459 0.000208441)
(0.00741846 -0.0271438 -9.37384e-05)
(0.00747704 -0.0200935 -0.000412972)
(0.00746217 -0.0131513 -0.000732008)
(0.00738113 -0.00643172 -0.00102654)
(0.00724336 -2.82472e-06 -0.00126624)
(0.00705791 0.00611359 -0.00141728)
(0.00683307 0.0119399 -0.00144591)
(0.00657555 0.0175393 -0.00132294)
(0.0062864 0.0230076 -0.00102873)
(0.00595863 0.0284691 -0.000559128)
(0.00557671 0.0340856 6.8701e-05)
(0.00511701 0.0400798 0.000811366)
(0.00455037 0.0467363 0.00159378)
(0.00384922 0.0542685 0.00230047)
(0.00299995 0.0623345 0.00277692)
(0.00207316 0.069143 0.00287855)
(0.00123531 0.0715447 0.00257026)
(0.000514557 0.0642689 0.00183146)
(4.24321e-05 0.0337365 0.000630713)
(3.20767e-05 -0.0161175 0.000254893)
(0.000318801 -0.0398682 0.000660575)
(0.000762914 -0.055938 0.000979892)
(0.00130062 -0.0657619 0.00121111)
(0.00185655 -0.0709457 0.00135145)
(0.00240032 -0.0732589 0.0014213)
(0.00293712 -0.0738448 0.00144278)
(0.0034688 -0.073209 0.00142816)
(0.00398755 -0.071544 0.00138325)
(0.00448559 -0.0689102 0.00131097)
(0.004955 -0.0653103 0.00121256)
(0.00538609 -0.0607416 0.00108777)
(0.00576861 -0.055244 0.000935088)
(0.00609362 -0.0489234 0.000752067)
(0.0063546 -0.0419477 0.000536001)
(0.00654783 -0.0345248 0.000285107)
(0.00667192 -0.0268775 5.93545e-08)
(0.00672744 -0.0192186 -0.000314095)
(0.00671736 -0.0117288 -0.000645975)
(0.00664718 -0.00454458 -0.000976442)
(0.00652466 0.00224707 -0.00127837)
(0.00635911 0.00861157 -0.00151831)
(0.00615997 0.014573 -0.00165996)
(0.00593414 0.0202148 -0.00166842)
(0.00568312 0.0256729 -0.00151439)
(0.00540035 0.031131 -0.00117907)
(0.00506954 0.0368247 -0.000660139)
(0.00466592 0.043048 1.95299e-05)
(0.00416062 0.05012 0.000798359)
(0.003527 0.0581931 0.00155969)
(0.00275244 0.0667168 0.00213116)
(0.00191176 0.0736123 0.00234032)
(0.00114483 0.0756962 0.00213672)
(0.000476613 0.0674544 0.00151593)
(3.78298e-05 0.0351038 0.000499711)
(2.31466e-05 -0.0173209 0.000253354)
(0.000273219 -0.0427665 0.000691964)
(0.000671017 -0.0598784 0.00104681)
(0.001161 -0.0702321 0.00130246)
(0.00167156 -0.0756126 0.00145706)
(0.00217347 -0.0779638 0.00153616)
(0.00267136 -0.0785092 0.00156545)
(0.00316578 -0.0777721 0.00155891)
(0.00364823 -0.075943 0.00152332)
(0.00411087 -0.0730737 0.00146226)
(0.0045461 -0.069159 0.00137741)
(0.00494513 -0.0641941 0.00126862)
(0.00529931 -0.0582255 0.00113387)
(0.00560154 -0.0513725 0.000969551)
(0.00584682 -0.0438193 0.000771278)
(0.00603183 -0.0357903 0.000535234)
(0.0061554 -0.0275232 0.000259791)
(0.00621816 -0.0192511 -5.27946e-05)
(0.00622154 -0.0111772 -0.000394443)
(0.00616893 -0.00346165 -0.000749606)
(0.00606635 0.00378362 -0.00109454)
(0.00592166 0.0105041 -0.00139832)
(0.00574348 0.0167174 -0.00162585)
(0.00553881 0.0225184 -0.00174146)
(0.00530988 0.0280741 -0.00171204)
(0.00505148 0.033618 -0.00150989)
(0.00474886 0.0394487 -0.00111784)
(0.0043781 0.0459226 -0.00053995)
(0.003911 0.053388 0.000179485)
(0.00332236 0.0619436 0.000932638)
(0.00259999 0.0708647 0.00154337)
(0.00181891 0.0778436 0.00182386)
(0.00109818 0.0796595 0.00171259)
(0.000460356 0.0705308 0.00121504)
(3.86357e-05 0.036448 0.000386681)
(2.57497e-05 -0.0183211 0.000254374)
(0.000270503 -0.0451635 0.000705952)
(0.000654792 -0.0631358 0.00106546)
(0.00112203 -0.0739362 0.00131676)
(0.00160356 -0.0794943 0.00146452)
(0.00207345 -0.081889 0.00153819)
(0.00253737 -0.0824045 0.0015643)
(0.00299588 -0.0815783 0.00155735)
(0.00344088 -0.0795992 0.00152486)
(0.00386517 -0.0765128 0.00147135)
(0.00426194 -0.0723088 0.0013994)
(0.00462354 -0.0669843 0.00130952)
(0.00494274 -0.0605955 0.00119979)
(0.00521404 -0.0532753 0.0010659)
(0.00543384 -0.0452221 0.000901904)
(0.00559997 -0.0366729 0.000701539)
(0.00571123 -0.0278783 0.000459986)
(0.00576762 -0.0190808 0.000175761)
(0.00577084 -0.0104986 -0.000147352)
(0.0057235 -0.00231011 -0.000498257)
(0.00563016 0.00535112 -0.000857089)
(0.00549743 0.0124121 -0.00119572)
(0.00533277 0.0188832 -0.00148046)
(0.00514249 0.0248673 -0.00167567)
(0.00492892 0.0305562 -0.0017464)
(0.00468785 0.0362231 -0.00165992)
(0.0044065 0.0422173 -0.00138935)
(0.00406311 0.0489439 -0.00092426)
(0.0036304 0.0567702 -0.000292421)
(0.00308448 0.0657385 0.000412402)
(0.00241436 0.074971 0.00102058)
(0.00169358 0.0819768 0.00134075)
(0.00102285 0.0835078 0.00130588)
(0.000424853 0.0735017 0.000928107)
(3.33979e-05 0.0377442 0.000282961)
(2.09365e-05 -0.0194046 0.00028095)
(0.000250915 -0.0477866 0.000769171)
(0.000614447 -0.0667007 0.00114607)
(0.00105775 -0.0779683 0.00140194)
(0.00151378 -0.0836939 0.00154922)
(0.00195798 -0.0861172 0.00162234)
(0.00239614 -0.0865906 0.00164949)
(0.00282832 -0.0856669 0.00164578)
(0.00324632 -0.0835346 0.00161914)
(0.0036432 -0.0802351 0.00157455)
(0.00401264 -0.0757556 0.00151499)
(0.00434788 -0.0700957 0.00144113)
(0.00464294 -0.0633194 0.00135081)
(0.00489356 -0.0555698 0.00123913)
(0.00509718 -0.0470545 0.00109923)
(0.00525235 -0.0380188 0.000923692)
(0.00535821 -0.0287215 0.000706274)
(0.00541433 -0.0194146 0.000443711)
(0.00542109 -0.010327 0.000137445)
(0.00538062 -0.00165349 -0.000204543)
(0.00529667 0.00645173 -0.000566089)
(0.00517439 0.0138971 -0.000922704)
(0.00501998 0.0206836 -0.00124376)
(0.00483894 0.0269187 -0.00149564)
(0.0046335 0.032813 -0.00164394)
(0.00440036 0.0386725 -0.00165426)
(0.00412877 0.0448872 -0.00149429)
(0.00380017 0.0518998 -0.00114343)
(0.0033908 0.0600872 -0.000614956)
(0.00287791 0.0694394 1.37337e-05)
(0.00225054 0.0789422 0.000587134)
(0.00158119 0.0859523 0.000919782)
(0.000954864 0.0871964 0.000943511)
(0.000393556 0.0763318 0.000674428)
(3.02145e-05 0.0389644 0.000195519)
(2.28697e-05 -0.0203802 0.000295297)
(0.000250288 -0.0501144 0.000795804)
(0.00060287 -0.0698399 0.00116866)
(0.00102652 -0.0815089 0.00141302)
(0.00145738 -0.0873838 0.00154954)
(0.00187407 -0.0898374 0.00161554)
(0.00228328 -0.0902762 0.00163911)
(0.0026852 -0.0892648 0.00163527)
(0.00307212 -0.0869916 0.00161232)
(0.00343766 -0.0834952 0.00157593)
(0.00377613 -0.0787629 0.00152985)
(0.00408169 -0.0728 0.00147537)
(0.00434951 -0.0656806 0.00141047)
(0.00457646 -0.0575584 0.0013297)
(0.00476093 -0.0486487 0.00122483)
(0.00490207 -0.0392019 0.00108631)
(0.00499941 -0.0294802 0.000905311)
(0.00505263 -0.0197397 0.000675839)
(0.00506167 -0.0102159 0.000396727)
(0.00502694 -0.00111446 7.34247e-05)
(0.00495146 0.00739446 -0.000280322)
(0.00483995 0.015203 -0.000642389)
(0.004697 0.0223044 -0.000984196)
(0.00452681 0.028809 -0.00127398)
(0.00433104 0.0349426 -0.00147879)
(0.0041068 0.0410359 -0.00156458)
(0.00384493 0.0475101 -0.00149713)
(0.00352974 0.0548334 -0.00125)
(0.00314108 0.0633816 -0.000825394)
(0.00265857 0.0730882 -0.000284603)
(0.00207281 0.0828135 0.000234972)
(0.00145495 0.0897879 0.000560664)
(0.000875659 0.090723 0.000627035)
(0.000356067 0.0790034 0.000452934)
(2.55618e-05 0.0400973 0.000120839)
(2.00637e-05 -0.0214093 0.00032061)
(0.000238269 -0.0525683 0.000844405)
(0.000575896 -0.0731331 0.00121993)
(0.000980652 -0.0851934 0.00145733)
(0.00139028 -0.0911944 0.00158581)
(0.00178495 -0.0936591 0.0016464)
(0.00217155 -0.09405 0.0016676)
(0.00254994 -0.0929425 0.0016644)
(0.00291254 -0.090525 0.00164533)
(0.00325337 -0.0868347 0.00161642)
(0.00356729 -0.0818607 0.00158191)
(0.00384938 -0.0756145 0.00154342)
(0.00409586 -0.0681788 0.0014991)
(0.00430466 -0.0597153 0.00144332)
(0.00447493 -0.0504447 0.00136727)
(0.00460632 -0.0406196 0.00126026)
(0.00469846 -0.0305033 0.00111168)
(0.00475088 -0.0203541 0.000913298)
(0.00476319 -0.0104125 0.000661525)
(0.00473541 -0.000893951 0.000359408)
(0.0046687 0.00801673 1.81979e-05)
(0.00456608 0.0161978 -0.000342266)
(0.00443166 0.0236349 -0.000695591)
(0.00426885 0.0304402 -0.00101193)
(0.00407887 0.0368517 -0.00125991)
(0.00385911 0.0432216 -0.00140658)
(0.00360173 0.0499953 -0.00141762)
(0.00329368 0.0576583 -0.00126365)
(0.0029187 0.0665758 -0.000938866)
(0.00246035 0.0766202 -0.000490078)
(0.00191098 0.0865358 -3.53816e-05)
(0.00133914 0.0934479 0.000269558)
(0.000803376 0.0940618 0.000364519)
(0.000323082 0.081503 0.000269993)
(2.24337e-05 0.0411395 6.16301e-05)
(2.08291e-05 -0.0223746 0.000334986)
(0.000234554 -0.0548364 0.000863871)
(0.000559863 -0.0761488 0.00122814)
(0.000945178 -0.0885508 0.00144956)
(0.00133142 -0.0946618 0.00156521)
(0.00170141 -0.097136 0.00161788)
(0.00206258 -0.0974823 0.00163525)
(0.00241474 -0.0962845 0.0016319)
(0.00275074 -0.0937316 0.00161651)
(0.00306508 -0.0898606 0.00159564)
(0.0033532 -0.0846648 0.00157413)
(0.00361098 -0.0781639 0.00155421)
(0.00383563 -0.0704509 0.00153431)
(0.00402597 -0.0616954 0.00150865)
(0.00418191 -0.0521214 0.00146764)
(0.00430363 -0.0419811 0.00139909)
(0.004391 -0.0315349 0.00129016)
(0.00444348 -0.0210387 0.00112977)
(0.00446019 -0.0107338 0.000911421)
(0.00444036 -0.000841543 0.000635579)
(0.00438414 0.00844123 0.000311561)
(0.00429299 0.0169801 -4.23203e-05)
(0.00416953 0.0247531 -0.000400973)
(0.00401639 0.0318728 -0.000735743)
(0.00383438 0.0385867 -0.00101652)
(0.00362094 0.0452632 -0.00121172)
(0.00336926 0.0523661 -0.00128797)
(0.00306859 0.0603891 -0.00121495)
(0.00270622 0.0696791 -0.000981468)
(0.00226964 0.0800436 -0.000621974)
(0.0017537 0.0901168 -0.000235617)
(0.00122507 0.0969378 4.06945e-05)
(0.00073175 0.0972169 0.000153191)
(0.000290639 0.0838352 0.000123261)
(1.92066e-05 0.0420967 1.58782e-05)
(1.88727e-05 -0.0233555 0.000352706)
(0.00022445 -0.057133 0.000889758)
(0.000536234 -0.0791873 0.00124509)
(0.000904214 -0.0919108 0.00145225)
(0.00127109 -0.098111 0.00155591)
(0.00162122 -0.100581 0.00160089)
(0.00196211 -0.100875 0.00161429)
(0.00229328 -0.099583 0.00161026)
(0.0026078 -0.0968951 0.00159755)
(0.00290057 -0.0928495 0.00158303)
(0.00316755 -0.0874443 0.00157198)
(0.00340538 -0.080708 0.00156711)
(0.00361212 -0.0727429 0.00156727)
(0.00378741 -0.0637251 0.00156699)
(0.00393179 -0.053881 0.00155669)
(0.00404591 -0.0434605 0.0015236)
(0.00412987 -0.0327194 0.00145344)
(0.00418304 -0.0219089 0.0013327)
(0.00420413 -0.0112685 0.00115161)
(0.00419156 -0.00102305 0.000907123)
(0.00414437 0.00862071 0.000605493)
(0.00406283 0.0175158 0.000262982)
(0.00394841 0.0256323 -9.63927e-05)
(0.00380274 0.0330824 -0.000444514)
(0.00362628 0.0401211 -0.000751812)
(0.00341674 0.0471307 -0.000987651)
(0.00316823 0.0545886 -0.00111978)
(0.00287202 0.0629908 -0.00111787)
(0.00251862 0.0726581 -0.000967026)
(0.00209945 0.0833296 -0.000691424)
(0.0016131 0.0935335 -0.00037278)
(0.00112356 0.100243 -0.000129444)
(0.000668683 0.100182 -8.34889e-06)
(0.000262986 0.0860028 1.19904e-05)
(1.69894e-05 0.0429739 -1.66491e-05)
(1.88549e-05 -0.0242935 0.000362853)
(0.000218798 -0.059305 0.000896251)
(0.000518512 -0.0820383 0.00123425)
(0.000868979 -0.0950474 0.00142227)
(0.00121562 -0.101323 0.00151179)
(0.0015449 -0.103786 0.0015482)
(0.00186457 -0.104028 0.00155729)
(0.00217403 -0.102646 0.00155255)
(0.00246669 -0.0998293 0.00154276)
(0.00273784 -0.09562 0.00153509)
(0.00298392 -0.0900224 0.00153529)
(0.00320222 -0.0830751 0.00154654)
(0.00339151 -0.0748902 0.0015681)
(0.00355212 -0.0656506 0.0015947)
(0.00368523 -0.0555835 0.00161673)
(0.00379199 -0.0449348 0.00162089)
(0.0038729 -0.0339525 0.00159164)
(0.00392738 -0.0228792 0.00151331)
(0.00395385 -0.0119487 0.00137307)
(0.00394996 -0.00138517 0.00116431)
(0.00391355 0.00859788 0.000889847)
(0.00384349 0.0178416 0.000563482)
(0.0037399 0.0263061 0.000208069)
(0.00360349 0.0341002 -0.000148557)
(0.0034342 0.0414835 -0.000476932)
(0.00322984 0.0488483 -0.000746901)
(0.00298543 0.0566811 -0.000927104)
(0.00269411 0.0654745 -0.000987491)
(0.00234921 0.0755186 -0.000910543)
(0.00194575 0.0864815 -0.000711873)
(0.0014859 0.0967916 -0.00045763)
(0.00103126 0.103373 -0.000248724)
(0.000611324 0.102969 -0.000125777)
(0.00023815 0.0880214 -6.79822e-05)
(1.50073e-05 0.0437814 -3.79305e-05)
(1.73954e-05 -0.0252243 0.000372473)
(0.000209982 -0.0614501 0.000900723)
(0.00049772 -0.0848397 0.00122097)
(0.000832858 -0.098111 0.00138998)
(0.00116255 -0.104446 0.00146535)
(0.00147467 -0.106891 0.00149293)
(0.00177696 -0.107076 0.00149715)
(0.0020686 -0.105602 0.00149083)
(0.00234321 -0.10266 0.00148265)
(0.00259644 -0.0982939 0.00148)
(0.00282514 -0.0925155 0.00148897)
(0.00302715 -0.0853736 0.00151319)
(0.00320182 -0.0769902 0.00155245)
(0.00335005 -0.0675542 0.00160208)
(0.00347353 -0.0572941 0.00165293)
(0.00357386 -0.046451 0.00169183)
(0.0036519 -0.0352643 0.0017026)
(0.00370724 -0.0239661 0.00166788)
(0.00373815 -0.0127808 0.00157185)
(0.00374173 -0.00192867 0.00140392)
(0.00371478 0.0083737 0.00116264)
(0.00365484 0.0179574 0.0008584)
(0.00356075 0.0267718 0.000512289)
(0.00343225 0.0349205 0.000151826)
(0.00326889 0.0426647 -0.000193187)
(0.00306874 0.0504035 -0.000492449)
(0.00282756 0.0586285 -0.000714959)
(0.00254 0.0678243 -0.000830719)
(0.00220197 0.0782453 -0.000820045)
(0.00181165 0.0894875 -0.00069135)
(0.00137456 0.0998844 -0.000497158)
(0.000950585 0.106326 -0.000322665)
(0.000561767 0.105582 -0.000203227)
(0.000217187 0.0898984 -0.000119477)
(1.35841e-05 0.0445247 -4.88765e-05)
(1.70109e-05 -0.0261236 0.000376971)
(0.00020394 -0.0635067 0.000892739)
(0.000481116 -0.0875086 0.00119061)
(0.000801635 -0.101015 0.00133836)
(0.00111479 -0.107397 0.00139886)
(0.00141008 -0.109822 0.00141746)
(0.00169534 -0.109951 0.00141685)
(0.00196963 -0.108387 0.00140907)
(0.00222683 -0.105325 0.00140265)
(0.0024629 -0.10081 0.00140514)
(0.00267506 -0.0948652 0.00142292)
(0.00286157 -0.0875482 0.00145998)
(0.0030223 -0.0789914 0.00151652)
(0.00315865 -0.0693901 0.00158834)
(0.00327279 -0.058973 0.00166673)
(0.00336687 -0.0479759 0.00173881)
(0.00344216 -0.0366278 0.0017882)
(0.00349854 -0.0251475 0.00179644)
(0.00353423 -0.0137471 0.00174544)
(0.00354591 -0.00263833 0.00162098)
(0.00352934 0.00796268 0.00141717)
(0.00348069 0.0178787 0.00114034)
(0.00339734 0.027047 0.00080898)
(0.00327795 0.0355626 0.0004498)
(0.0031215 0.0436846 9.29205e-05)
(0.00292617 0.0518146 -0.000230827)
(0.00268879 0.0604453 -0.000490235)
(0.00240553 0.0700498 -0.000655095)
(0.00207421 0.0808441 -0.000703663)
(0.00169577 0.0923521 -0.000638078)
(0.0012787 0.102819 -0.000499043)
(0.000881119 0.109114 -0.00035799)
(0.000519176 0.108037 -0.000246174)
(0.00019948 0.0916513 -0.000146532)
(1.25342e-05 0.0452135 -5.12422e-05)
(1.59435e-05 -0.0270052 0.000379117)
(0.000196666 -0.0655125 0.000878775)
(0.000463993 -0.0900975 0.00115257)
(0.000771884 -0.103816 0.00127852)
(0.0010711 -0.11023 0.0013239)
(0.00135231 -0.112626 0.00133314)
(0.00162338 -0.112695 0.00132712)
(0.00188317 -0.111042 0.00131699)
(0.00212579 -0.107861 0.00131111)
(0.00234747 -0.103205 0.00131709)
(0.00254566 -0.0971016 0.00134156)
(0.00271899 -0.0896218 0.00138888)
(0.0028677 -0.080908 0.00145981)
(0.00299359 -0.0711617 0.00155082)
(0.00309927 -0.0606128 0.00165392)
(0.00318732 -0.0494922 0.0017568)
(0.00325946 -0.0380178 0.00184328)
(0.00331593 -0.0263941 0.00189425)
(0.00335509 -0.0148179 0.00188968)
(0.00337338 -0.00348818 0.00181193)
(0.00336579 0.00738429 0.00165043)
(0.00332728 0.0176171 0.00140674)
(0.00325382 0.027136 0.00109593)
(0.00314296 0.036025 0.000743307)
(0.00299309 0.0445374 0.000379185)
(0.00280236 0.0530736 3.52471e-05)
(0.00256829 0.0621231 -0.000256535)
(0.00228882 0.0721428 -0.000465154)
(0.00196375 0.0833085 -0.000566853)
(0.00159593 0.095072 -0.000558193)
(0.00119641 0.105596 -0.000469596)
(0.000821597 0.111741 -0.00036067)
(0.000482774 0.110342 -0.000259785)
(0.000184487 0.0932878 -0.000152959)
(1.17246e-05 0.0458523 -4.65043e-05)
(1.54764e-05 -0.0278629 0.000377631)
(0.000191217 -0.0674524 0.000856735)
(0.000450015 -0.092588 0.00110433)
(0.00074645 -0.106497 0.00120792)
(0.00103281 -0.112932 0.00123829)
(0.00130097 -0.115297 0.00123839)
(0.00155886 -0.115305 0.00122708)
(0.00180523 -0.113564 0.00121465)
(0.00203443 -0.11027 0.0012092)
(0.00224287 -0.105479 0.00121835)
(0.00242819 -0.0992282 0.00124888)
(0.00258928 -0.0916001 0.00130546)
(0.00272672 -0.0827474 0.00138926)
(0.0028427 -0.0728784 0.00149732)
(0.00294025 -0.0622241 0.00162235)
(0.00302242 -0.0510097 0.00175282)
(0.0030914 -0.0394423 0.00187309)
(0.00314785 -0.0277104 0.00196405)
(0.00319036 -0.0159929 0.00200451)
(0.00321523 -0.00447326 0.00197407)
(0.00321675 0.00664777 0.00185778)
(0.00318873 0.0171857 0.00165198)
(0.0031257 0.0270543 0.00136744)
(0.00302398 0.0363249 0.00102711)
(0.00288126 0.045241 0.000661009)
(0.00269567 0.0541974 0.000301649)
(0.00246528 0.0636764 -1.78597e-05)
(0.00218923 0.0741158 -0.000265221)
(0.00186955 0.0856483 -0.000414343)
(0.00151121 0.0976564 -0.000456811)
(0.001127 0.108226 -0.000414122)
(0.00077164 0.114223 -0.000335817)
(0.000452407 0.112512 -0.000248534)
(0.000172159 0.0948232 -0.000142081)
(1.11897e-05 0.0464486 -3.59901e-05)
(1.48064e-05 -0.0286999 0.000373121)
(0.000185687 -0.0693345 0.000827497)
(0.000436882 -0.0949905 0.00104695)
(0.000723569 -0.109067 0.00112763)
(0.000999155 -0.115511 0.00114286)
(0.00125648 -0.117836 0.00113357)
(0.00150347 -0.11778 0.00111648)
(0.00173869 -0.115952 0.00110094)
(0.00195668 -0.112546 0.00109478)
(0.00215398 -0.107624 0.00110564)
(0.00232833 -0.101232 0.00114043)
(0.0024788 -0.0934638 0.00120417)
(0.00260625 -0.0844838 0.00129855)
(0.00271314 -0.0745078 0.00142125)
(0.00280286 -0.0637684 0.00156578)
(0.00287888 -0.0524863 0.00172145)
(0.00294388 -0.0408576 0.0018734)
(0.00299901 -0.0290541 0.00200278)
(0.00304328 -0.0172351 0.00208771)
(0.00307307 -0.00556381 0.00210553)
(0.00308227 0.0057737 0.0020372)
(0.00306368 0.0165953 0.00187372)
(0.0030105 0.0268047 0.00162085)
(0.00291776 0.0364587 0.00129843)
(0.00278234 0.0457879 0.000935546)
(0.00260217 0.0551768 0.000565425)
(0.00237582 0.0650962 0.000222576)
(0.00210341 0.0759613 -5.89953e-05)
(0.00178839 0.0878601 -0.000250587)
(0.00143797 0.100105 -0.000338999)
(0.00106715 0.110713 -0.000338051)
(0.000728633 0.116563 -0.000288871)
(0.000426214 0.114553 -0.000217351)
(0.00016148 0.096263 -0.000117627)
(1.07292e-05 0.0470053 -2.11927e-05)
(1.44101e-05 -0.0295181 0.000365992)
(0.000181032 -0.0711644 0.000793122)
(0.000425417 -0.0973149 0.00098393)
(0.000703357 -0.111542 0.0010422)
(0.000969421 -0.117986 0.00104298)
(0.00121742 -0.120267 0.00102478)
(0.00145517 -0.120146 0.00100206)
(0.00168085 -0.118232 0.000983246)
(0.00188905 -0.114718 0.000975939)
(0.00207646 -0.109669 0.000987747)
(0.00224098 -0.103143 0.00102571)
(0.00238185 -0.0952434 0.00109506)
(0.00250016 -0.0861478 0.00119787)
(0.00259863 -0.0760792 0.00133238)
(0.00268098 -0.065272 0.00149292)
(0.00275103 -0.0539428 0.00166979)
(0.00281193 -0.0422772 0.00184918)
(0.00286535 -0.0304305 0.00201303)
(0.00291074 -0.0185409 0.00213949)
(0.00294473 -0.00674927 0.0022044)
(0.00296096 0.00477783 0.00218519)
(0.00295142 0.0158647 0.00206751)
(0.002908 0.0264069 0.00185151)
(0.00282444 0.0364461 0.00155291)
(0.00269667 0.0461967 0.00119903)
(0.00252232 0.0560288 0.000823415)
(0.00230035 0.0663976 0.000462003)
(0.00203182 0.0776921 0.000150815)
(0.00172135 0.0899548 -7.86084e-05)
(0.00137752 0.102431 -0.000208439)
(0.00101746 0.113071 -0.000245541)
(0.000693031 0.118776 -0.00022401)
(0.000404802 0.116479 -0.000169996)
(0.000153076 0.0976197 -8.23311e-05)
(1.06836e-05 0.0475278 -3.15385e-06)
(1.40235e-05 -0.0303148 0.000355873)
(0.000176752 -0.0729349 0.000751991)
(0.000415251 -0.0995507 0.000912493)
(0.00068582 -0.11391 0.000947924)
(0.000944035 -0.120344 0.000934227)
(0.00118453 -0.122579 0.000906979)
(0.00141493 -0.122391 0.000878268)
(0.0016329 -0.120387 0.000855574)
(0.00183299 -0.116764 0.000846234)
(0.00201203 -0.11159 0.000857882)
(0.00216809 -0.104931 0.000897665)
(0.00230056 -0.0969055 0.000971046)
(0.00241065 -0.0877022 0.00108048)
(0.00250126 -0.0775519 0.00122479)
(0.00257635 -0.0666921 0.00139908)
(0.00264008 -0.0553361 0.00159461)
(0.00269604 -0.0436594 0.00179865)
(0.00274644 -0.0318012 0.00199417)
(0.0027913 -0.0198774 0.00215974)
(0.00282772 -0.00800365 0.0022704)
(0.00284938 0.00367758 0.00230075)
(0.00284769 0.0150024 0.0022314)
(0.00281342 0.0258614 0.00205659)
(0.00273895 0.0362812 0.00178714)
(0.00261914 0.0464577 0.00144781)
(0.00245113 0.0567422 0.00107191)
(0.0022341 0.0675694 0.000696729)
(0.0019699 0.0792989 0.0003605)
(0.00166425 0.091926 9.77671e-05)