/*--------------------------------*- C++ -*----------------------------------*\
| =========                 |                                                 |
| \\      /  F ield         | OpenFOAM: The Open Source CFD Toolbox           |
|  \\    /   O peration     | Version:  v1912                                 |
|   \\  /    A nd           | Website:  www.openfoam.com                      |
|    \\/     M anipulation  |                                                 |
\*---------------------------------------------------------------------------*/
FoamFile
{
    version     2.0;
    format      ascii;
    class       volScalarField;
    location    "204/sphere";
    object      ddt0((betavSolid*thermo:rho),h);
}
// * * * * * * * * * * * * * * * * * * * * * * * * * * * * * * * * * * * * * //

dimensions      [1 -1 -3 0 0 0 0];


internalField   nonuniform List<scalar> 
6600
(
-733779
-733909
-733896
-734189
-733823
-733818
-733905
-734765
-734948
-734421
-733893
-734943
-735123
-734620
-734347
-734613
-734194
-733892
-734178
-733824
-733893
-734937
-735122
-734622
-734151
-735118
-735296
-734802
-733905
-733797
-734607
-734787
-734471
-733883
-733815
-734401
-734621
-734160
-733804
-734606
-734793
-734470
-734138
-734464
-733986
-733888
-733889
-733888
-733876
-733889
-733786
-734190
-733921
-734618
-734427
-734797
-734630
-734425
-734794
-734619
-733910
-733787
-734188
-733917
-734622
-734616
-734423
-734188
-733914
-733914
-733788
-733874
-733873
-733869
-733861
-733826
-733862
-733872
-733830
-733861
-733870
-733828
-733876
-733951
-733816
-733813
-734145
-734462
-733815
-733818
-734465
-734162
-733988
-733809
-734142
-733805
-734459
-733901
-733897
-734172
-734413
-734615
-734610
-734786
-733875
-734019
-733981
-734285
-734195
-734127
-734324
-733822
-734159
-734472
-733824
-733810
-733807
-734459
-734145
-734171
-733776
-733907
-734612
-734784
-734415
-734612
-733921
-733917
-733787
-734794
-734628
-734619
-734430
-734472
-733823
-734163
-733949
-733813
-734141
-734463
-733815
-734465
-734161
-733818
-733988
-733874
-733883
-734138
-733808
-733803
-734455
-733899
-734348
-734608
-733895
-734165
-734609
-734779
-733788
-734616
-734426
-734177
-733913
-734786
-734621
-734195
-733820
-734470
-733820
-733861
-734346
-733895
-734601
-733891
-734604
-734152
-734769
-733790
-734624
-733922
-734619
-733919
-734801
-734209
-733905
-733862
-734602
-734346
-734152
-734776
-733893
-734611
-733918
-734427
-733794
-734799
-734209
-734626
-733920
-733905
-734140
-733798
-734458
-733806
-734610
-733901
-734605
-734780
-733893
-734166
-734424
-733905
-733787
-734788
-734622
-734177
-733918
-734471
-733823
-733820
-733875
-733883
-733876
-733883
-733806
-733798
-734456
-734136
-734167
-734604
-734779
-733902
-734345
-734612
-733914
-734786
-734620
-733905
-733787
-734617
-734424
-734471
-733821
-734193
-733862
-734603
-734152
-734770
-734343
-733891
-734609
-733922
-734801
-734209
-734423
-733791
-734622
-733919
-733905
-733860
-734775
-733892
-734602
-733890
-734612
-734347
-734210
-734629
-733922
-734624
-733921
-734427
-733794
-734457
-733808
-734138
-734777
-733893
-734165
-734343
-734608
-733901
-734624
-734176
-733916
-734613
-734424
-733907
-733786
-733824
-733819
-734196
-733875
-733946
-733811
-734138
-734462
-733808
-734464
-734161
-733817
-733987
-734143
-733803
-734456
-733809
-734611
-734601
-734781
-733777
-733906
-733897
-734170
-734469
-733819
-733823
-734455
-734138
-733808
-734783
-734405
-734609
-733899
-734169
-733778
-733905
-733824
-734157
-733820
-733945
-734461
-733812
-733813
-734159
-733817
-733817
-733799
-733770
-733765
-733793
-733774
-733813
-733778
-733807
-733778
-733807
-733777
-733802
-733773
-733758
-733764
-733833
-733827
-733781
-733869
-733860
-733824
-733809
-733775
-733799
-733773
-733831
-733829
-733917
-734199
-733925
-734043
-734043
-733876
-734035
-733984
-734289
-734207
-734127
-734338
-733872
-734019
-733978
-734282
-734195
-734125
-734324
-733831
-733831
-733917
-734197
-733921
-734042
-734040
-733878
-734030
-733984
-734286
-734203
-734128
-734333
-734026
-733877
-733982
-734286
-734200
-734332
-734129
-734023
-733874
-733980
-734283
-734196
-734325
-734126
-733831
-733830
-733916
-734198
-733924
-734045
-734044
-733776
-733760
-733832
-733825
-733777
-733832
-733823
-733776
-733773
-733821
-733819
-733900
-734179
-733912
-734033
-734031
-733818
-733890
-733793
-733985
-734261
-733860
-734181
-733947
-734306
-734111
-733794
-734025
-733831
-733852
-733973
-733786
-733811
-733882
-733790
-733830
-734016
-733969
-733846
-734127
-733803
-733889
-733799
-734003
-733869
-734008
-734274
-733871
-734188
-733995
-734125
-733959
-734313
-733795
-733819
-733891
-734126
-733884
-733794
-733798
-733996
-734002
-733867
-734245
-734175
-733849
-733983
-734099
-734298
-733934
-733811
-733781
-733781
-733798
-733870
-733919
-733987
-733980
-734335
-733837
-734119
-734108
-733776
-734246
-733987
-734174
-733850
-734300
-733937
-734098
-734360
-734137
-734448
-734096
-734408
-734050
-734400
-733835
-734024
-733786
-733852
-733975
-734245
-734175
-733982
-733852
-734299
-734098
-733935
-733817
-733785
-734332
-734425
-734075
-734072
-734380
-734378
-734006
-733880
-733879
-733837
-733822
-734004
-733774
-733838
-733955
-733761
-733863
-733837
-733804
-733783
-733800
-733873
-733829
-733790
-734012
-733965
-733842
-733781
-733801
-733875
-734330
-733963
-734114
-733915
-733961
-734106
-733820
-733819
-734002
-733781
-733960
-733835
-733905
-734319
-733944
-733943
-734097
-734095
-733810
-733829
-733847
-733846
-733794
-733762
-733826
-733831
-733776
-733767
-733820
-733817
-733816
-733789
-733809
-733884
-733789
-734011
-733826
-733843
-733965
-733784
-733804
-733873
-733824
-733779
-734010
-733844
-733957
-733905
-733953
-733941
-734322
-733812
-734105
-734089
-733785
-734014
-733969
-733828
-733844
-733819
-733889
-733794
-733828
-733790
-734014
-733844
-733969
-733793
-733818
-733889
-733963
-734330
-734111
-733915
-733963
-733821
-734107
-733831
-733846
-733844
-733792
-733786
-733809
-733883
-733781
-733824
-734013
-733966
-733842
-733783
-733800
-733868
-733905
-733950
-733939
-734320
-733810
-734103
-734087
-733824
-733774
-734008
-733842
-733957
-733994
-733863
-734186
-733950
-734313
-734265
-734116
-733860
-733986
-733947
-734263
-734182
-734114
-734307
-733789
-734025
-733971
-733830
-733852
-733963
-734328
-734109
-733914
-733958
-733821
-734107
-733796
-733820
-733891
-733833
-733796
-734022
-733849
-733974
-733823
-733779
-734012
-733842
-733963
-733783
-733811
-733881
-733822
-734006
-733773
-733839
-733952
-733780
-733797
-733867
-733902
-733953
-734320
-733940
-734101
-733811
-734087
-734086
-734092
-734446
-734348
-734020
-734394
-734398
-734178
-733820
-733821
-733913
-733901
-734028
-734033
-734000
-734264
-733867
-734190
-733951
-734316
-734115
-734033
-733880
-734208
-733983
-734337
-734289
-734134
-734026
-733879
-733985
-734287
-734199
-734328
-734130
-733831
-733828
-733918
-734201
-733924
-734048
-734043
-733796
-733821
-733893
-733832
-734021
-733792
-733849
-733972
-733918
-733965
-734333
-733966
-734115
-733820
-734109
-733795
-733820
-733891
-733826
-733820
-733817
-733827
-733781
-734014
-733965
-733845
-733903
-733954
-734318
-733940
-734099
-733805
-734087
-733785
-733802
-733872
-733827
-734013
-733786
-733845
-733961
-733795
-733819
-733890
-733914
-733963
-734329
-733962
-734112
-733818
-734104
-733833
-734016
-733789
-733847
-733972
-733793
-733818
-733887
-733831
-733848
-733847
-733794
-733767
-733764
-733828
-733822
-733774
-733779
-733838
-733864
-733809
-733804
-733774
-733782
-733803
-733876
-733782
-733800
-733870
-733901
-733944
-733940
-734315
-733809
-734095
-734086
-733821
-733781
-734005
-733959
-733837
-733821
-733775
-734002
-733954
-733837
-734247
-733858
-734181
-733989
-734103
-733939
-734305
-734250
-733859
-733983
-734178
-733938
-734113
-734300
-734337
-734084
-734079
-734439
-734011
-734390
-734386
-734191
-733828
-733926
-733829
-734042
-733908
-734041
-734361
-734096
-734137
-734448
-734049
-734400
-734408
-734278
-733872
-734021
-734200
-733971
-734128
-734327
-733921
-733983
-733982
-734336
-733835
-734115
-734115
-733796
-733822
-733893
-733830
-733789
-734019
-733971
-733846
-733832
-733791
-734020
-733972
-733848
-733753
-733759
-733817
-733818
-733769
-734243
-733852
-734176
-733981
-734100
-733934
-734296
-734245
-733850
-734174
-733980
-734102
-733934
-734297
-734333
-734072
-734075
-734426
-734007
-734379
-734381
-734202
-733927
-733834
-733833
-734047
-734047
-733919
-734293
-733882
-734207
-734038
-734134
-733990
-734341
-734289
-733877
-734204
-734035
-734131
-733983
-734338
-734380
-734158
-734159
-734478
-734082
-734428
-734427
-733815
-733779
-733816
-733776
-733877
-733879
-733834
-733760
-733820
-733818
-733775
-733754
-734131
-733795
-733885
-733796
-733998
-733865
-734004
-734335
-734078
-734426
-734074
-734382
-734011
-734381
-734247
-733853
-733984
-734177
-733933
-734105
-734299
-734290
-734204
-733878
-734033
-734131
-734338
-733987
-734204
-733837
-733931
-733834
-734046
-733921
-734048
-734379
-734159
-734478
-734160
-734427
-734085
-734428
-734291
-733878
-734035
-734205
-733986
-734131
-734339
-733878
-733880
-733836
-733814
-733780
-733901
-733938
-733948
-734317
-733809
-734086
-734095
-733783
-733802
-733873
-733823
-733773
-734006
-733959
-733840
-733822
-733779
-734006
-733957
-733839
-734128
-733884
-733799
-733797
-734003
-734002
-733868
-734251
-734183
-733857
-733993
-734107
-734308
-733941
-734246
-733854
-734176
-733981
-734105
-733937
-734297
-734340
-734090
-734438
-734081
-734394
-734019
-734385
-734271
-734187
-733868
-733999
-734118
-734314
-733958
-734188
-733925
-733824
-733828
-734035
-734041
-733906
-734361
-734098
-734447
-734138
-734401
-734049
-734408
-734279
-733874
-734203
-734027
-734125
-733973
-734329
-733796
-733822
-733894
-733793
-733820
-733889
-733831
-733793
-734019
-733970
-733847
-733833
-733785
-734022
-733971
-733848
-733775
-733766
-733832
-733825
-733786
-733838
-733864
-733811
-733804
-733774
-733764
-733825
-733832
-733786
-733770
-733864
-733838
-733808
-733801
-733771
-733771
-733821
-734003
-733776
-733836
-733954
-733819
-734003
-733766
-733836
-733954
-733781
-733800
-733869
-733782
-733802
-733871
-733901
-734315
-733937
-733944
-734086
-734092
-733808
-734341
-734083
-734439
-734088
-734388
-734019
-734392
-734127
-733795
-733801
-733884
-733868
-733999
-734004
-734251
-733992
-733859
-734184
-733942
-734308
-734108
-734276
-734021
-734201
-733871
-734327
-733969
-734123
-734273
-733998
-733870
-734187
-733956
-734314
-734120
-734189
-733828
-733824
-733922
-733905
-734041
-734037
-733834
-734020
-733797
-733849
-733972
-733793
-733818
-733890
-733918
-734334
-733983
-733978
-734115
-734108
-733835
-733792
-733819
-733891
-733761
-733818
-733817
-733775
-733756
-734335
-734076
-734426
-734073
-734382
-734011
-734379
-734125
-733791
-733884
-733797
-733999
-733864
-734003
-734247
-733977
-733854
-734175
-733935
-734295
-734106
-734291
-734206
-734037
-733880
-734339
-734133
-733988
-734380
-734160
-734478
-734160
-734427
-734087
-734427
-734202
-733834
-733925
-733832
-734049
-733921
-734045
-734290
-734035
-733878
-734205
-733987
-734338
-734130
-733880
-733879
-733838
-733813
-733782
-733817
-733815
-733770
-733754
-733755
-734243
-733980
-734176
-733851
-734298
-733933
-734100
-734246
-733977
-734174
-733856
-734294
-733934
-734112
-734123
-733789
-733799
-733884
-733864
-733998
-734007
-734380
-734478
-734161
-734160
-734429
-734428
-734086
-734292
-734038
-734207
-733880
-734341
-733987
-734130
-734291
-734037
-734207
-733880
-734340
-733988
-734132
-734203
-733833
-733835
-733929
-733920
-734047
-734047
-733815
-733783
-733814
-733780
-733819
-734006
-733783
-733838
-733961
-733777
-733798
-733867
-733901
-734316
-733940
-733945
-734086
-734094
-733806
-733784
-733801
-733874
-734251
-734176
-733979
-733857
-734298
-734110
-733939
-734339
-734438
-734082
-734087
-734386
-734391
-734015
-734131
-733802
-733884
-733798
-734008
-733872
-734000
-734249
-733990
-734182
-733854
-734306
-733939
-734101
-734359
-734446
-734137
-734095
-734407
-734398
-734044
-734279
-734201
-734025
-733872
-734329
-734128
-733972
-734272
-733997
-734188
-733873
-734313
-733958
-734120
-734191
-733829
-733922
-733827
-734042
-733909
-734036
-733833
-734020
-733793
-733848
-733970
-733832
-734020
-733790
-733847
-733972
-733921
-734338
-733987
-733979
-734121
-734109
-733837
-733798
-733821
-733893
-733792
-733818
-733889
-733825
-733832
-733778
-733769
-733803
-733769
-733773
-733814
-733815
-733821
-733827
-733784
-734012
-733963
-733844
-733902
-733944
-734317
-733944
-734094
-733808
-734093
-733786
-733810
-733880
-734014
-733773
-733827
-733844
-733964
-733794
-733818
-733889
-734328
-733960
-734103
-733913
-733965
-734112
-733820
-733790
-734016
-733970
-733828
-733845
-733813
-733887
-733791
-733829
-733845
-733846
-733793
-733901
-733946
-734317
-733946
-734096
-733808
-734091
-733820
-733778
-734004
-733959
-733836
-733781
-733807
-733877
-733782
-733821
-734007
-733960
-733838
-733818
-733815
-733895
-734175
-733911
-734028
-734026
-733998
-734189
-733866
-734316
-733951
-734264
-734114
-733859
-733989
-733945
-734259
-734179
-734110
-734305
-733790
-733816
-733891
-733830
-733792
-734021
-733972
-733850
-733818
-733890
-733793
-733790
-734020
-733972
-733833
-733851
-733781
-733800
-733876
-733899
-734315
-733944
-733943
-734093
-734091
-733807
-733782
-733820
-734006
-733837
-733959
-733784
-733805
-733878
-733987
-733864
-733947
-734259
-734180
-734305
-734110
-733818
-733820
-733896
-734175
-733914
-734028
-734030
-733997
-734187
-733862
-734313
-733947
-734261
-734113
-733835
-734024
-733793
-733976
-733851
-734327
-733958
-734108
-733916
-733961
-734108
-733822
-733797
-733823
-733892
-733795
-734017
-733970
-733830
-733847
-733816
-733890
-733794
-733816
-733812
-733819
-733788
-733802
-733872
-733825
-734009
-733775
-733957
-733843
-733788
-733812
-733882
-734010
-733781
-733824
-733962
-733842
-734328
-733961
-734111
-733914
-733962
-734104
-733821
-733830
-734012
-733789
-733966
-733845
-733793
-733818
-733887
-733788
-734013
-733967
-733829
-733845
-733817
-733889
-733793
-734150
-734137
-734459
-734073
-734419
-734371
-734410
-734947
-734940
-735119
-734939
-735114
-735110
-735286
-734768
-735128
-734956
-735119
-734946
-735295
-735126
-735115
-734764
-734941
-735118
-735287
-734945
-735115
-734952
-734946
-734774
-735295
-735126
-735124
-734955
-734413
-734489
-734115
-734492
-734279
-734616
-734281
-735113
-735109
-735285
-734762
-734945
-734938
-735113
-734950
-735295
-735127
-734953
-734773
-735126
-734951
-735287
-734942
-735112
-734947
-735117
-734766
-734941
-735129
-735124
-734957
-735127
-734954
-734947
-734774
-733999
-734272
-734272
-734427
-734030
-734226
-734223
-734422
-734270
-734221
-733998
-734274
-734223
-734032
-734418
-734266
-734219
-733994
-734266
-734216
-734028
-734140
-734152
-734080
-734373
-734459
-734411
-734420
-734138
-734149
-734076
-734370
-734457
-734410
-734417
-734149
-734138
-734077
-734370
-734457
-734417
-734409
-734264
-733989
-734264
-734413
-734025
-734215
-734207
-734266
-734420
-734219
-733994
-734267
-734026
-734219
-733989
-734264
-734411
-734261
-734215
-734022
-734206
-734094
-734088
-734447
-734025
-734399
-734351
-734395
-734274
-734423
-734222
-733997
-734274
-734034
-734222
-733986
-734264
-734260
-734410
-734021
-734213
-734204
-734275
-733999
-734274
-734424
-734033
-734225
-734223
-733990
-734265
-734412
-734266
-734214
-734026
-734210
-733997
-734268
-734419
-734269
-734221
-734029
-734219
-733984
-734406
-734259
-734256
-734209
-734203
-734018
-734414
-734120
-734490
-734495
-734280
-734286
-734618
-733998
-734424
-734272
-734271
-734225
-734224
-734031
-734411
-734117
-734490
-734489
-734277
-734279
-734616
-734414
-734489
-734116
-734489
-734279
-734615
-734281
-733987
-734410
-734261
-734261
-734208
-734209
-734022
-733997
-734425
-734272
-734273
-734225
-734222
-734030
-733982
-734258
-734257
-734407
-734017
-734204
-734205
-734412
-734486
-734115
-734493
-734276
-734615
-734283
-734000
-734275
-734271
-734424
-734033
-734227
-734221
-734410
-734489
-734112
-734490
-734278
-734613
-734281
-734412
-734489
-734494
-734119
-734617
-734277
-734285
-733985
-734259
-734260
-734407
-734020
-734206
-734209
-734413
-734490
-734492
-734114
-734615
-734281
-734281
-734265
-733990
-734265
-734412
-734212
-734026
-734212
-734419
-734267
-734217
-733994
-734265
-734218
-734026
-733985
-734409
-734259
-734258
-734210
-734207
-734018
-734095
-734444
-734086
-734400
-734022
-734348
-734390
-734422
-734271
-734224
-734000
-734273
-734222
-734034
-733983
-734257
-734407
-734258
-734208
-734017
-734206
-734093
-734444
-734081
-734397
-734017
-734344
-734389
-734264
-733988
-734411
-734263
-734210
-734210
-734025
-733454
-732969
-732562
-733466
-732977
-732566
-733467
-732978
-732567
-733481
-732991
-732572
-733474
-732985
-732565
-733469
-732984
-732573
-733481
-732993
-732578
-733470
-732984
-732571
-733475
-732987
-732572
-733483
-732996
-732577
-733477
-732988
-732568
-733467
-732980
-732561
-733472
-732986
-732571
-733486
-732997
-732579
-733477
-732988
-732565
-733481
-732994
-732577
-733441
-732956
-732546
-733447
-732961
-732550
-733471
-732982
-732565
-733471
-732985
-732571
-733471
-732983
-732570
-733458
-732972
-732557
-733464
-732975
-732560
-733467
-732978
-732561
-733468
-732979
-732563
-733467
-732978
-732561
-733464
-732975
-732557
-733469
-732980
-732562
-733467
-732979
-732568
-733474
-732986
-732573
-733470
-732982
-732571
-733471
-732983
-732572
-733472
-732983
-732572
-733462
-732973
-732554
-733462
-732973
-732555
-733469
-732980
-732562
-733461
-732973
-732555
-733466
-732977
-732557
-733470
-732981
-732564
-733462
-732974
-732556
-733469
-732980
-732562
-733464
-732975
-732557
-733475
-732986
-732571
-733472
-732983
-732569
-733468
-732981
-732568
-733478
-732989
-732574
-733461
-732974
-732562
-733464
-732976
-732563
-733485
-732998
-732575
-733481
-732994
-732578
-733477
-732991
-732578
-733481
-732993
-732579
-733465
-732977
-732563
-733468
-732980
-732564
-733472
-732983
-732572
-733466
-732978
-732569
-733475
-732989
-732576
-733481
-732992
-732577
-733467
-732980
-732567
-733468
-732982
-732568
-733476
-732987
-732573
-733470
-732984
-732570
-733477
-732989
-732574
-733467
-732978
-732560
-733471
-732982
-732566
-733468
-732979
-732564
-733460
-732972
-732557
-733474
-732987
-732573
-733471
-732986
-732573
-733472
-732986
-732573
-733454
-732964
-732545
-733495
-733006
-732587
-733491
-733002
-732583
-733481
-732993
-732577
-733453
-732963
-732545
-733473
-732986
-732578
-733480
-732991
-732580
-733489
-733001
-732583
-733481
-732994
-732578
-733448
-732962
-732551
-733457
-732971
-732558
-733463
-732975
-732562
-733480
-732993
-732574
-733473
-732985
-732565
-733474
-732985
-732573
-733463
-732976
-732568
-733492
-733002
-732581
-733479
-732993
-732578
-733478
-732990
-732577
-733467
-732982
-732569
-733474
-732987
-732573
-733467
-732979
-732560
-733471
-732983
-732565
-733467
-732979
-732560
-733471
-732982
-732565
-733465
-732976
-732562
-733451
-732964
-732551
-733475
-732986
-732574
-733472
-732983
-732572
-733474
-732988
-732575
-733476
-732989
-732576
-733454
-732964
-732545
-733465
-732979
-732572
-733477
-732988
-732575
-733488
-733000
-732582
-733481
-732993
-732577
-733451
-732961
-732543
-733495
-733006
-732587
-733493
-733004
-732585
-733470
-732983
-732577
-733478
-732990
-732578
-733483
-732994
-732581
-733462
-732975
-732560
-733467
-732978
-732564
-733481
-732993
-732574
-733488
-732999
-732579
-733488
-733001
-732581
-733472
-732984
-732574
-733463
-732977
-732570
-733472
-732983
-732572
-733481
-732993
-732579
-733475
-732987
-732573
-733469
-732980
-732561
-733468
-732981
-732568
-733450
-732966
-732556
-733463
-732976
-732563
-733467
-732981
-732566
-733478
-732989
-732572
-733460
-732972
-732559
-733460
-732974
-732561
-733469
-732981
-732565
-733469
-732984
-732571
-733473
-732986
-732574
-733478
-732992
-732577
-733482
-732994
-732579
-733459
-732974
-732562
-733467
-732979
-732565
-733464
-732975
-732564
-733484
-732996
-732579
-733474
-732987
-732575
-733467
-732981
-732567
-733469
-732981
-732567
-733466
-732980
-732567
-733472
-732984
-732569
-733478
-732989
-732574
-733475
-732987
-732572
-733453
-732967
-732553
-733458
-732971
-732563
-733466
-732976
-732562
-733431
-732948
-732542
-733442
-732957
-732545
-733463
-732975
-732565
-733463
-732977
-732562
-733459
-732973
-732559
-733465
-732978
-732562
-733470
-732981
-732568
-733448
-732963
-732551
-733464
-732976
-732565
-733427
-732945
-732540
-733453
-732966
-732557
-733446
-732960
-732550
-733458
-732971
-732563
-733457
-732971
-732551
-733458
-732971
-732552
-733466
-732978
-732560
-733460
-732971
-732552
-733457
-732972
-732559
-733461
-732972
-732562
-733441
-732957
-732546
-733458
-732969
-732559
-733482
-732993
-732578
-733482
-732993
-732578
-733486
-732996
-732580
-733478
-732990
-732578
-733484
-732995
-732581
-733481
-732992
-732578
-733445
-732960
-732553
-733473
-732985
-732572
-733459
-732972
-732560
-733428
-732946
-732540
-733453
-732968
-732550
-733450
-732964
-732544
-733456
-732969
-732551
-733451
-732964
-732545
-733464
-732976
-732565
-733440
-732955
-732549
-733459
-732971
-732563
-733482
-732992
-732576
-733482
-732993
-732576
-733480
-732991
-732580
-733493
-733002
-732586
-733477
-732988
-732576
-733478
-732989
-732577
-733470
-732982
-732572
-733478
-732990
-732572
-733489
-733001
-732580
-733471
-732983
-732573
-733468
-732981
-732572
-733485
-732995
-732580
-733477
-732991
-732576
-733480
-732992
-732578
-733487
-732999
-732584
-733468
-732979
-732568
-733467
-732977
-732566
-733464
-732976
-732564
-733475
-732985
-732572
-733484
-732993
-732578
-733465
-732978
-732569
-733465
-732978
-732568
-733475
-732986
-732574
-733476
-732990
-732574
-733479
-732992
-732576
-733482
-732995
-732580
-733478
-732989
-732576
-733475
-732987
-732576
-733464
-732979
-732572
-733479
-732991
-732578
-733484
-732997
-732580
-733487
-733000
-732582
-733503
-733013
-732591
-733478
-732988
-732576
-733479
-732990
-732577
-733473
-732985
-732573
-733486
-732996
-732581
-733489
-732998
-732583
-733462
-732975
-732566
-733466
-732979
-732569
-733475
-732986
-732572
-733469
-732981
-732571
-733483
-732996
-732578
-733468
-732981
-732566
-733480
-732991
-732570
-733466
-732980
-732566
-733471
-732983
-732571
-733462
-732973
-732564
-733463
-732975
-732564
-733459
-732971
-732560
-733470
-732982
-732570
-733471
-732983
-732572
-733488
-733000
-732583
-733486
-732998
-732582
-733476
-732986
-732572
-733452
-732966
-732557
-733472
-732985
-732569
-733489
-733000
-732580
-733485
-732998
-732578
-733478
-732990
-732577
-733467
-732980
-732569
-733454
-732968
-732562
-733459
-732972
-732567
-733483
-732996
-732583
-733475
-732986
-732567
-733485
-732995
-732573
-733469
-732983
-732569
-733470
-732982
-732572
-733478
-732990
-732573
-733476
-732989
-732572
-733472
-732985
-732565
-733472
-732983
-732567
-733450
-732963
-732554
-733443
-732957
-732550
-733461
-732972
-732559
-733475
-732987
-732571
-733440
-732955
-732547
-733458
-732970
-732561
-733466
-732978
-732561
-733465
-732978
-732558
-733477
-732989
-732575
-733463
-732975
-732566
-733463
-732975
-732565
-733462
-732975
-732563
-733472
-732983
-732571
-733472
-732983
-732572
-733479
-732992
-732574
-733480
-732992
-732575
-733469
-732981
-732571
-733471
-732984
-732573
-733474
-732985
-732575
-733479
-732991
-732577
-733462
-732973
-732563
-733459
-732971
-732562
-733457
-732969
-732558
-733470
-732981
-732570
-733467
-732979
-732570
-733492
-733002
-732586
-733485
-732996
-732581
-733486
-732996
-732582
-733465
-732979
-732563
-733472
-732983
-732566
-733457
-732969
-732559
-733453
-732966
-732559
-733471
-732983
-732569
-733472
-732984
-732569
-733483
-732993
-732578
-733478
-732990
-732576
-733481
-732992
-732577
-733495
-733005
-732590
-733495
-733005
-732590
-733494
-733004
-732588
-733501
-733011
-732592
-733492
-733003
-732587
-733496
-733007
-732589
-733491
-733002
-732585
-733477
-732988
-732579
-733478
-732988
-732578
-733439
-732954
-732546
-733447
-732961
-732556
-733456
-732969
-732550
-733453
-732967
-732548
-733464
-732977
-732566
-733433
-732950
-732544
-733454
-732967
-732560
-733487
-732998
-732582
-733484
-732995
-732581
-733485
-732997
-732582
-733478
-732990
-732578
-733485
-732996
-732581
-733480
-732991
-732578
-733472
-732983
-732570
-733472
-732982
-732571
-733465
-732977
-732566
-733480
-732990
-732575
-733469
-732981
-732569
-733474
-732987
-732571
-733465
-732977
-732566
-733465
-732976
-732566
-733463
-732975
-732564
-733473
-732984
-732573
-733471
-732984
-732568
-733457
-732970
-732561
-733458
-732971
-732564
-733470
-732981
-732569
-733477
-732990
-732573
-733488
-732998
-732582
-733490
-732999
-732585
-733477
-732988
-732575
-733481
-732991
-732578
-733473
-732984
-732572
-733478
-732991
-732574
-733469
-732981
-732570
-733474
-732985
-732576
-733475
-732987
-732576
-733473
-732984
-732574
-733473
-732984
-732571
-733483
-732993
-732579
-733488
-732997
-732582
-733495
-733005
-732587
-733493
-733003
-732590
-733492
-733002
-732589
-733494
-733004
-732587
-733495
-733006
-732588
-733492
-733003
-732586
-733474
-732984
-732576
-733469
-732980
-732569
-733466
-732977
-732567
-733464
-732976
-732564
-733475
-732986
-732572
-733456
-732969
-732560
-733471
-732984
-732568
-733463
-732975
-732566
-733465
-732976
-732565
-733465
-732976
-732564
-733476
-732986
-732573
-733471
-732984
-732567
-733455
-732968
-732558
-733467
-732980
-732570
-733478
-732992
-732576
-733478
-732990
-732577
-733485
-732998
-732584
-733490
-733001
-732585
-733483
-732993
-732580
-733478
-732990
-732579
-733478
-732990
-732576
-733491
-733000
-732585
-733483
-732996
-732579
-733472
-732984
-732575
-733472
-732985
-732576
-733470
-732983
-732566
-733455
-732968
-732559
-733464
-732974
-732564
-733466
-732977
-732566
-733465
-732976
-732566
-733461
-732973
-732561
-733475
-732985
-732573
-733489
-732998
-732581
-733471
-732984
-732565
-733458
-732969
-732558
-733451
-732964
-732558
-733459
-732971
-732560
-733457
-732969
-732563
-733457
-732970
-732559
-733475
-732986
-732572
-733471
-732983
-732572
-733489
-732999
-732583
-733486
-732997
-732582
-733476
-732988
-732576
-733476
-732988
-732578
-733480
-732991
-732578
-733474
-732986
-732574
-733490
-733000
-732584
-733480
-732994
-732576
-733469
-732981
-732571
-733474
-732986
-732577
-733467
-732981
-732571
-733483
-732994
-732581
-733492
-733002
-732587
-733478
-732990
-732577
-733478
-732989
-732577
-733472
-732984
-732573
-733484
-732994
-732581
-733489
-732999
-732584
-733492
-733002
-732587
-733485
-732995
-732582
-733492
-733003
-732587
-733493
-733004
-732586
-733485
-732996
-732580
-733488
-732999
-732583
-733481
-732992
-732578
-733475
-732988
-732570
-733477
-732989
-732573
-733455
-732968
-732561
-733481
-732994
-732579
-733477
-732987
-732572
-733467
-732978
-732567
-733466
-732978
-732567
-733465
-732976
-732565
-733478
-732988
-732573
-733477
-732990
-732573
-733468
-732979
-732568
-733461
-732975
-732566
-733476
-732988
-732576
-733481
-732992
-732579
-733470
-732983
-732572
-733487
-732997
-732583
-733483
-732994
-732580
-733487
-732997
-732584
-733482
-732995
-732577
-733467
-732980
-732570
-733468
-732980
-732571
-733461
-732975
-732567
-733476
-732986
-732575
-733477
-732988
-732576
-733470
-732983
-732571
-733483
-732993
-732579
-733489
-732998
-732583
-733498
-733008
-732591
-733492
-733002
-732588
-733494
-733004
-732588
-733494
-733004
-732587
-733492
-733003
-732587
-733496
-733006
-732588
-733476
-732987
-732579
-733478
-732989
-732579
-733445
-732960
-732551
-733452
-732965
-732558
-733462
-732973
-732560
-733434
-732950
-732543
-733460
-732973
-732554
-733451
-732966
-732547
-733457
-732971
-732560
-733479
-732989
-732575
-733467
-732980
-732561
-733469
-732982
-732566
-733465
-732978
-732562
-733462
-732974
-732566
-733464
-732976
-732567
-733464
-732975
-732563
-733475
-732986
-732574
-733463
-732974
-732565
-733464
-732976
-732565
-733464
-732976
-732563
-733473
-732983
-732572
-733469
-732982
-732566
-733460
-732973
-732563
-733470
-732982
-732564
-733451
-732963
-732554
-733490
-733001
-732582
-733477
-732988
-732577
-733476
-732988
-732577
-733469
-732981
-732571
-733490
-733000
-732585
-733479
-732992
-732575
-733480
-732992
-732576
-733468
-732981
-732570
-733481
-732994
-732580
-733482
-732995
-732577
-733469
-732982
-732572
-733467
-732980
-732571
-733445
-732958
-732549
-733420
-732937
-732533
-733455
-732966
-732555
-733433
-732948
-732540
-733446
-732959
-732539
-733447
-732960
-732541
-733491
-733005
-732583
-733484
-732998
-732577
-733465
-732980
-732565
-733472
-732985
-732570
-733475
-732988
-732571
-733479
-732992
-732574
-733426
-732942
-732536
-733457
-732968
-732554
-733448
-732961
-732540
-733447
-732960
-732539
-733457
-732968
-732556
-733453
-732964
-732549
-733416
-732933
-732529
-733489
-733001
-732586
-733487
-733000
-732585
-733488
-732999
-732585
-733494
-733006
-732586
-733485
-732999
-732579
-733477
-732989
-732572
-733478
-732991
-732573
-733468
-732982
-732567
-733477
-732988
-732573
-733466
-732976
-732566
-733464
-732976
-732565
-733461
-732973
-732561
-733476
-732986
-732573
-733470
-732983
-732565
-733473
-732985
-732569
-733450
-732963
-732553
-733479
-732990
-732573
-733468
-732981
-732565
-733460
-732972
-732560
-733455
-732968
-732559
-733478
-732991
-732575
-733492
-733002
-732582
-733475
-732988
-732570
-733486
-732997
-732577
-733475
-732989
-732575
-733484
-732994
-732579
-733482
-732995
-732579
-733484
-732997
-732580
-733483
-732997
-732575
-733478
-732989
-732578
-733477
-732989
-732577
-733473
-732985
-732573
-733488
-732998
-732584
-733472
-732984
-732575
-733478
-732989
-732576
-733471
-732983
-732571
-733485
-732995
-732582
-733480
-732993
-732576
-733481
-732993
-732577
-733471
-732983
-732573
-733472
-732985
-732574
-733483
-732996