/*--------------------------------*- C++ -*----------------------------------*\
| =========                 |                                                 |
| \\      /  F ield         | OpenFOAM: The Open Source CFD Toolbox           |
|  \\    /   O peration     | Version:  v1906                                 |
|   \\  /    A nd           | Web:      www.OpenFOAM.com                      |
|    \\/     M anipulation  |                                                 |
\*---------------------------------------------------------------------------*/
FoamFile
{
    version     2.0;
    format      ascii;
    class       volVectorField;
    location    "82.2/oil";
    object      U;
}
// * * * * * * * * * * * * * * * * * * * * * * * * * * * * * * * * * * * * * //

dimensions      [0 1 -1 0 0 0 0];


internalField   nonuniform List<vector> 
27760
(
(-2.39996e-05 -2.44498e-05 -2.39996e-05)
(-4.73689e-05 -1.83385e-05 -1.72941e-05)
(-3.44199e-06 -4.74874e-06 -4.7421e-06)
(-5.59107e-06 -7.65331e-07 -8.82353e-07)
(-1.07922e-06 -2.34927e-07 -3.72855e-07)
(-3.14612e-07 -8.66789e-08 -2.38309e-07)
(3.73666e-07 4.00507e-09 -1.598e-07)
(7.28337e-07 4.46298e-08 -1.28308e-07)
(9.27411e-07 6.88325e-08 -1.10099e-07)
(1.00195e-06 8.47748e-08 -9.73828e-08)
(9.74286e-07 9.63228e-08 -8.67666e-08)
(8.57888e-07 1.05306e-07 -7.73454e-08)
(6.67301e-07 1.12057e-07 -6.95903e-08)
(4.1969e-07 1.16655e-07 -6.39851e-08)
(1.35755e-07 1.19046e-07 -6.0985e-08)
(-1.61431e-07 1.19194e-07 -6.08382e-08)
(-4.48132e-07 1.17143e-07 -6.35012e-08)
(-7.01912e-07 1.13037e-07 -6.86137e-08)
(-9.03633e-07 1.07123e-07 -7.55256e-08)
(-1.0391e-06 9.96935e-08 -8.33528e-08)
(-1.10034e-06 9.11095e-08 -9.09895e-08)
(-1.08567e-06 8.17834e-08 -9.69942e-08)
(-1.00047e-06 7.15666e-08 -1.00621e-07)
(-8.5675e-07 6.10156e-08 -1.00539e-07)
(-6.71876e-07 5.03791e-08 -9.5777e-08)
(-4.68237e-07 4.01454e-08 -8.57241e-08)
(-2.71837e-07 3.13192e-08 -7.05176e-08)
(-1.1068e-07 2.56792e-08 -5.15374e-08)
(-9.41777e-09 2.53603e-08 -3.2401e-08)
(1.33325e-08 2.61209e-08 -1.33016e-08)
(-1.7408e-05 -4.86649e-05 -1.74079e-05)
(-5.67779e-06 -6.33665e-06 -7.79736e-06)
(-7.60597e-06 -7.69257e-06 -2.73087e-06)
(-3.30612e-06 -2.27559e-06 -7.91748e-07)
(-9.46538e-07 -1.40814e-06 -4.04462e-07)
(2.63677e-07 -7.83176e-07 -2.10361e-07)
(1.15506e-06 -4.95888e-07 -1.14652e-07)
(1.70678e-06 -3.20547e-07 -6.56211e-08)
(2.02555e-06 -1.98874e-07 -3.39586e-08)
(2.13374e-06 -1.02e-07 -1.00051e-08)
(2.05098e-06 -2.03363e-08 1.05438e-08)
(1.7953e-06 4.86011e-08 2.83005e-08)
(1.39145e-06 1.03493e-07 4.27997e-08)
(8.72857e-07 1.42168e-07 5.3201e-08)
(2.80825e-07 1.62636e-07 5.8751e-08)
(-3.38036e-07 1.63846e-07 5.90326e-08)
(-9.35552e-07 1.46067e-07 5.41182e-08)
(-1.46615e-06 1.10991e-07 4.46068e-08)
(-1.89091e-06 6.16072e-08 3.15607e-08)
(-2.18098e-06 1.91117e-09 1.64195e-08)
(-2.31998e-06 -6.34185e-08 8.28144e-10)
(-2.30518e-06 -1.29264e-07 -1.33765e-08)
(-2.14727e-06 -1.90876e-07 -2.44678e-08)
(-1.86987e-06 -2.42879e-07 -3.11624e-08)
(-1.50777e-06 -2.79817e-07 -3.24001e-08)
(-1.10427e-06 -2.95428e-07 -2.78101e-08)
(-7.07885e-07 -2.82082e-07 -1.81676e-08)
(-3.67369e-07 -2.31185e-07 -5.96943e-09)
(-1.23884e-07 -1.36135e-07 3.47138e-09)
(-5.08699e-09 -1.74044e-08 5.13408e-09)
(-4.80931e-06 -4.6162e-06 -4.80927e-06)
(-7.49852e-06 -8.73559e-06 -2.7709e-06)
(-3.72961e-06 -5.10101e-06 -1.21022e-06)
(-1.90069e-06 -3.11654e-06 -5.60971e-07)
(-1.68627e-07 -2.29454e-06 -2.53148e-07)
(9.97616e-07 -1.7543e-06 -1.01517e-07)
(1.88851e-06 -1.43272e-06 -2.04606e-08)
(2.48744e-06 -1.19192e-06 2.67815e-08)
(2.83483e-06 -9.89776e-07 6.04609e-08)
(2.93421e-06 -8.06941e-07 8.78626e-08)
(2.79524e-06 -6.40188e-07 1.11974e-07)
(2.43451e-06 -4.9357e-07 1.33024e-07)
(1.8813e-06 -3.74017e-07 1.50271e-07)
(1.17807e-06 -2.88729e-07 1.62635e-07)
(3.78521e-07 -2.43365e-07 1.69221e-07)
(-4.56133e-07 -2.40843e-07 1.69544e-07)
(-1.26237e-06 -2.80688e-07 1.63678e-07)
(-1.98004e-06 -3.58888e-07 1.52285e-07)
(-2.55781e-06 -4.68208e-07 1.36552e-07)
(-2.95766e-06 -5.98821e-07 1.18094e-07)
(-3.15798e-06 -7.39171e-07 9.87147e-08)
(-3.15508e-06 -8.76657e-07 8.02946e-08)
(-2.96295e-06 -9.98214e-07 6.45287e-08)
(-2.61205e-06 -1.09071e-06 5.27436e-08)
(-2.14634e-06 -1.14036e-06 4.57409e-08)
(-1.61974e-06 -1.13239e-06 4.35205e-08)
(-1.09124e-06 -1.05041e-06 4.48714e-08)
(-6.17805e-07 -8.77073e-07 4.66726e-08)
(-2.49779e-07 -5.96626e-07 4.29901e-08)
(-2.38163e-08 -2.16436e-07 2.38717e-08)
(-8.54598e-07 -6.77191e-06 -8.54553e-07)
(-1.85942e-06 -5.48851e-06 -7.56425e-07)
(-1.33265e-06 -4.84334e-06 -5.30957e-07)
(-3.52677e-07 -3.94858e-06 -2.53913e-07)
(8.19768e-07 -3.45221e-06 -9.0885e-08)
(1.80289e-06 -3.06971e-06 3.54253e-09)
(2.61556e-06 -2.77302e-06 6.25799e-08)
(3.19631e-06 -2.49695e-06 1.03019e-07)
(3.5301e-06 -2.22515e-06 1.35521e-07)
(3.5991e-06 -1.955e-06 1.64114e-07)
(3.40096e-06 -1.69539e-06 1.90173e-07)
(2.94852e-06 -1.46035e-06 2.13282e-07)
(2.27263e-06 -1.26552e-06 2.32329e-07)
(1.42148e-06 -1.12533e-06 2.46018e-07)
(4.57554e-07 -1.05056e-06 2.53305e-07)
(-5.47234e-07 -1.04676e-06 2.5363e-07)
(-1.51796e-06 -1.11332e-06 2.47058e-07)
(-2.38361e-06 -1.24329e-06 2.34298e-07)
(-3.08352e-06 -1.42399e-06 2.16636e-07)
(-3.57293e-06 -1.63806e-06 1.95784e-07)
(-3.82635e-06 -1.86501e-06 1.73647e-07)
(-3.8394e-06 -2.08252e-06 1.52137e-07)
(-3.62814e-06 -2.26749e-06 1.32925e-07)
(-3.22728e-06 -2.39659e-06 1.17291e-07)
(-2.68646e-06 -2.44603e-06 1.05874e-07)
(-2.06576e-06 -2.39116e-06 9.84748e-08)
(-1.43028e-06 -2.2055e-06 9.36917e-08)
(-8.42349e-07 -1.86035e-06 8.79849e-08)
(-3.61984e-07 -1.32216e-06 7.48253e-08)
(-3.94822e-08 -5.53118e-07 3.95472e-08)
(-2.65458e-07 -2.72514e-06 -2.65405e-07)
(-7.61918e-07 -4.40851e-06 -3.03817e-07)
(-1.89135e-07 -4.93338e-06 -1.88061e-07)
(6.34174e-07 -4.9205e-06 -6.28765e-08)
(1.61041e-06 -4.83665e-06 2.46241e-08)
(2.51341e-06 -4.66465e-06 8.34869e-08)
(3.28511e-06 -4.43834e-06 1.26593e-07)
(3.84993e-06 -4.15495e-06 1.6128e-07)
(4.16565e-06 -3.82781e-06 1.9262e-07)
(4.20117e-06 -3.47528e-06 2.2225e-07)
(3.94554e-06 -3.12174e-06 2.50225e-07)
(3.4086e-06 -2.79414e-06 2.75473e-07)
(2.62228e-06 -2.51906e-06 2.96451e-07)
(1.6394e-06 -2.31977e-06 3.11588e-07)
(5.29873e-07 -2.21332e-06 3.19641e-07)
(-6.25192e-07 -2.2085e-06 3.19943e-07)
(-1.74099e-06 -2.30465e-06 3.12549e-07)
(-2.73703e-06 -2.49152e-06 2.98234e-07)
(-3.5447e-06 -2.75013e-06 2.78427e-07)
(-4.11338e-06 -3.05449e-06 2.54985e-07)
(-4.41448e-06 -3.37386e-06 2.29973e-07)
(-4.44298e-06 -3.67484e-06 2.05422e-07)
(-4.21661e-06 -3.92292e-06 1.83057e-07)
(-3.77335e-06 -4.08353e-06 1.64155e-07)
(-3.16718e-06 -4.12197e-06 1.49302e-07)
(-2.46291e-06 -4.00268e-06 1.38192e-07)
(-1.73077e-06 -3.68745e-06 1.29304e-07)
(-1.03859e-06 -3.1322e-06 1.18712e-07)
(-4.57157e-07 -2.27545e-06 9.91665e-08)
(-5.18361e-08 -1.00692e-06 5.19144e-08)
(-9.31937e-08 -2.61244e-06 -9.31276e-08)
(-1.47857e-08 -4.70683e-06 -7.22324e-08)
(5.60374e-07 -5.8114e-06 -1.109e-08)
(1.35124e-06 -6.3277e-06 5.12797e-08)
(2.26452e-06 -6.55747e-06 1.01401e-07)
(3.14431e-06 -6.56499e-06 1.40751e-07)
(3.90591e-06 -6.41084e-06 1.74824e-07)
(4.46689e-06 -6.12796e-06 2.06711e-07)
(4.77008e-06 -5.75251e-06 2.38466e-07)
(4.77541e-06 -5.32173e-06 2.7021e-07)
(4.46579e-06 -4.87561e-06 3.01046e-07)
(3.84877e-06 -4.45487e-06 3.29295e-07)
(2.95751e-06 -4.09808e-06 3.52954e-07)
(1.84921e-06 -3.83818e-06 3.70082e-07)
(6.01018e-07 -3.69926e-06 3.79185e-07)
(-6.97068e-07 -3.69376e-06 3.79458e-07)
(-1.95063e-06 -3.82103e-06 3.70937e-07)
(-3.07004e-06 -4.06725e-06 3.5451e-07)
(-3.97897e-06 -4.40664e-06 3.31806e-07)
(-4.62135e-06 -4.80386e-06 3.04952e-07)
(-4.96583e-06 -5.21725e-06 2.76288e-07)
(-5.00696e-06 -5.60141e-06 2.48056e-07)
(-4.76423e-06 -5.90982e-06 2.22125e-07)
(-4.2789e-06 -6.09608e-06 1.99872e-07)
(-3.60907e-06 -6.11385e-06 1.81905e-07)
(-2.82427e-06 -5.91567e-06 1.67865e-07)
(-2.00018e-06 -5.44956e-06 1.56106e-07)
(-1.21091e-06 -4.65144e-06 1.42289e-07)
(-5.38203e-07 -3.42237e-06 1.1831e-07)
(-6.17841e-08 -1.55818e-06 6.18803e-08)
(5.88017e-09 -2.70453e-06 5.96362e-09)
(3.33877e-07 -5.47013e-06 4.51475e-08)
(1.00298e-06 -7.11594e-06 8.51129e-08)
(1.85179e-06 -8.06538e-06 1.21473e-07)
(2.7891e-06 -8.57396e-06 1.53733e-07)
(3.69456e-06 -8.74806e-06 1.83468e-07)
(4.47693e-06 -8.66857e-06 2.13576e-07)
(5.05136e-06 -8.3934e-06 2.4535e-07)
(5.35267e-06 -7.9777e-06 2.79275e-07)
(5.33477e-06 -7.47554e-06 3.14532e-07)
(4.97619e-06 -6.94202e-06 3.49479e-07)
(4.28292e-06 -6.43169e-06 3.81866e-07)
(3.28957e-06 -5.99525e-06 4.09167e-07)
(2.05809e-06 -5.67594e-06 4.28979e-07)
(6.73037e-07 -5.50522e-06 4.39488e-07)
(-7.66343e-07 -5.49937e-06 4.39727e-07)
(-2.15575e-06 -5.65784e-06 4.29721e-07)
(-3.3961e-06 -5.9631e-06 4.10492e-07)
(-4.40324e-06 -6.38232e-06 3.83945e-07)
(-5.11574e-06 -6.87047e-06 3.52609e-07)
(-5.49963e-06 -7.37448e-06 3.19199e-07)
(-5.54949e-06 -7.83689e-06 2.86285e-07)
(-5.28707e-06 -8.19896e-06 2.56021e-07)
(-4.75722e-06 -8.40221e-06 2.29919e-07)
(-4.02268e-06 -8.38821e-06 2.08675e-07)
(-3.15811e-06 -8.09656e-06 1.91893e-07)
(-2.24516e-06 -7.45928e-06 1.77798e-07)
(-1.36471e-06 -6.38801e-06 1.61599e-07)
(-6.08918e-07 -4.73763e-06 1.3423e-07)
(-7.0179e-08 -2.19279e-06 7.02991e-08)
(4.7708e-08 -3.18311e-06 4.78106e-08)
(5.31871e-07 -6.64747e-06 1.04288e-07)
(1.29829e-06 -8.79273e-06 1.38898e-07)
(2.22768e-06 -1.01169e-05 1.65768e-07)
(3.22319e-06 -1.08775e-05 1.90755e-07)
(4.17939e-06 -1.12078e-05 2.17084e-07)
(5.00184e-06 -1.12052e-05 2.46922e-07)
(5.60328e-06 -1.09458e-05 2.80938e-07)
(5.91277e-06 -1.05002e-05 3.18792e-07)
(5.87929e-06 -9.93722e-06 3.59082e-07)
(5.47764e-06 -9.32575e-06 3.99552e-07)
(4.7124e-06 -8.73347e-06 4.37321e-07)
(3.61983e-06 -8.2232e-06 4.69292e-07)
(2.26684e-06 -7.8484e-06 4.92539e-07)
(7.45842e-07 -7.64794e-06 5.04846e-07)
(-8.34173e-07 -7.64205e-06 5.05046e-07)
(-2.35852e-06 -7.83028e-06 4.93155e-07)
(-3.71824e-06 -8.19138e-06 4.70381e-07)
(-4.82101e-06 -8.68536e-06 4.38996e-07)
(-5.60004e-06 -9.25749e-06 4.02011e-07)
(-6.01913e-06 -9.84349e-06 3.62621e-07)
(-6.07346e-06 -1.03739e-05 3.23877e-07)
(-5.78756e-06 -1.07779e-05 2.88306e-07)
(-5.21047e-06 -1.09851e-05 2.57621e-07)
(-4.41022e-06 -1.09249e-05 2.3264e-07)
(-3.46708e-06 -1.05231e-05 2.12934e-07)
(-2.46889e-06 -9.69344e-06 1.96601e-07)
(-1.5033e-06 -8.31951e-06 1.78359e-07)
(-6.71818e-07 -6.20252e-06 1.48152e-07)
(-7.75769e-08 -2.9009e-06 7.77246e-08)
(7.0134e-08 -3.83479e-06 7.02597e-08)
(6.52944e-07 -8.07822e-06 1.38585e-07)
(1.50649e-06 -1.07395e-05 1.72506e-07)
(2.51832e-06 -1.24298e-05 1.96307e-07)
(3.58399e-06 -1.34394e-05 2.19099e-07)
(4.60226e-06 -1.3929e-05 2.45467e-07)
(5.47544e-06 -1.4013e-05 2.77458e-07)
(6.11312e-06 -1.37834e-05 3.15529e-07)
(6.43922e-06 -1.33239e-05 3.58886e-07)
(6.3978e-06 -1.27161e-05 4.05631e-07)
(5.95997e-06 -1.20414e-05 4.52956e-07)
(5.12875e-06 -1.13799e-05 4.97335e-07)
(3.94192e-06 -1.08057e-05 5.35018e-07)
(2.4714e-06 -1.03821e-05 5.62439e-07)
(8.17748e-07 -1.01553e-05 5.76906e-07)
(-8.99925e-07 -1.01496e-05 5.7707e-07)
(-2.55602e-06 -1.03646e-05 5.62943e-07)
(-4.03133e-06 -1.07753e-05 5.35903e-07)
(-5.2253e-06 -1.13347e-05 4.98655e-07)
(-6.06592e-06 -1.19786e-05 4.54843e-07)
(-6.51504e-06 -1.26317e-05 4.0828e-07)
(-6.56915e-06 -1.32134e-05 3.62559e-07)
(-6.25634e-06 -1.36415e-05 3.20625e-07)
(-5.63058e-06 -1.38341e-05 2.84501e-07)
(-4.76554e-06 -1.37088e-05 2.55149e-07)
(-3.74728e-06 -1.31767e-05 2.32156e-07)
(-2.66971e-06 -1.21321e-05 2.13441e-07)
(-1.62666e-06 -1.04266e-05 1.9323e-07)
(-7.27589e-07 -7.80125e-06 1.60538e-07)
(-8.42062e-08 -3.67467e-06 8.43852e-08)
(8.29969e-08 -4.60228e-06 8.31489e-08)
(7.33323e-07 -9.6956e-06 1.59794e-07)
(1.65836e-06 -1.28997e-05 1.94844e-07)
(2.74338e-06 -1.49645e-05 2.18495e-07)
(3.87689e-06 -1.62318e-05 2.41752e-07)
(4.95743e-06 -1.6893e-05 2.70215e-07)
(5.88393e-06 -1.70811e-05 3.0605e-07)
(6.56206e-06 -1.69021e-05 3.49596e-07)
(6.91077e-06 -1.64517e-05 3.99834e-07)
(6.86904e-06 -1.58223e-05 4.54402e-07)
(6.40365e-06 -1.51061e-05 5.0991e-07)
(5.51545e-06 -1.43938e-05 5.62133e-07)
(4.24333e-06 -1.377e-05 6.06537e-07)
(2.66386e-06 -1.33074e-05 6.38845e-07)
(8.85763e-07 -1.30594e-05 6.55864e-07)
(-9.6142e-07 -1.30541e-05 6.5599e-07)
(-2.74118e-06 -1.32911e-05 6.39232e-07)
(-4.32385e-06 -1.37418e-05 6.07201e-07)
(-5.60058e-06 -1.43523e-05 5.63128e-07)
(-6.49463e-06 -1.50495e-05 5.11342e-07)
(-6.96675e-06 -1.5748e-05 4.56351e-07)
(-7.01553e-06 -1.63569e-05 4.02465e-07)
(-6.67334e-06 -1.67839e-05 3.53136e-07)
(-5.9997e-06 -1.6937e-05 3.10734e-07)
(-5.07393e-06 -1.67221e-05 2.76363e-07)
(-3.98785e-06 -1.60361e-05 2.4962e-07)
(-2.84067e-06 -1.47523e-05 2.28303e-07)
(-1.7311e-06 -1.26874e-05 2.06153e-07)
(-7.74871e-07 -9.51659e-06 1.71256e-07)
(-8.99822e-08 -4.50603e-06 9.01967e-08)
(9.09562e-08 -5.44507e-06 9.11262e-08)
(7.86439e-07 -1.14455e-05 1.73429e-07)
(1.76387e-06 -1.52201e-05 2.09929e-07)
(2.90516e-06 -1.76756e-05 2.34595e-07)
(4.09407e-06 -1.92171e-05 2.59682e-07)
(5.22799e-06 -2.00702e-05 2.91457e-07)
(6.20296e-06 -2.03875e-05 3.32257e-07)
(6.92091e-06 -2.02885e-05 3.82421e-07)
(7.29593e-06 -1.98787e-05 4.4068e-07)
(7.26159e-06 -1.92595e-05 5.04286e-07)
(6.77963e-06 -1.85312e-05 5.69217e-07)
(5.84792e-06 -1.77934e-05 6.3045e-07)
(4.50541e-06 -1.71402e-05 6.82623e-07)
(2.83257e-06 -1.66524e-05 7.20592e-07)
(9.45784e-07 -1.63901e-05 7.40542e-07)
(-1.01522e-06 -1.63852e-05 7.40639e-07)
(-2.90298e-06 -1.66373e-05 7.20886e-07)
(-4.57767e-06 -1.71145e-05 6.83124e-07)
(-5.92279e-06 -1.77563e-05 6.3118e-07)
(-6.85771e-06 -1.84812e-05 5.70213e-07)
(-7.3431e-06 -1.91952e-05 5.05658e-07)
(-7.38057e-06 -1.97986e-05 4.42535e-07)
(-7.00775e-06 -2.0191e-05 3.84847e-07)
(-6.28999e-06 -2.0272e-05 3.35372e-07)
(-5.31215e-06 -1.99374e-05 2.95403e-07)
(-4.17082e-06 -1.90703e-05 2.6454e-07)
(-2.96924e-06 -1.75223e-05 2.40392e-07)
(-1.80937e-06 -1.50729e-05 2.16324e-07)
(-8.10613e-07 -1.13262e-05 1.7966e-07)
(-9.4559e-08 -5.38459e-06 9.4815e-08)
(9.5411e-08 -6.33507e-06 9.5616e-08)
(8.15381e-07 -1.32803e-05 1.81147e-07)
(1.82156e-06 -1.76463e-05 2.18771e-07)
(2.99489e-06 -2.0509e-05 2.4481e-07)
(4.21759e-06 -2.23446e-05 2.72308e-07)
(5.38709e-06 -2.34156e-05 3.08088e-07)
(6.39814e-06 -2.38948e-05 3.54607e-07)
(7.15014e-06 -2.39139e-05 4.12233e-07)
(7.55266e-06 -2.35862e-05 4.79511e-07)
(7.53386e-06 -2.30188e-05 5.53315e-07)
(7.04981e-06 -2.23179e-05 6.28979e-07)
(6.09405e-06 -2.15893e-05 7.00594e-07)
(4.70399e-06 -2.0934e-05 7.61783e-07)
(2.96255e-06 -2.04397e-05 8.06418e-07)
(9.92637e-07 -2.01726e-05 8.29854e-07)
(-1.05645e-06 -2.01681e-05 8.2992e-07)
(-3.02679e-06 -2.04261e-05 8.06598e-07)
(-4.76907e-06 -2.0911e-05 7.6209e-07)
(-6.1602e-06 -2.15564e-05 7.01072e-07)
(-7.11708e-06 -2.22742e-05 6.29644e-07)
(-7.60211e-06 -2.29635e-05 5.54257e-07)
(-7.62139e-06 -2.35186e-05 4.80781e-07)
(-7.21845e-06 -2.38338e-05 4.13878e-07)
(-6.46429e-06 -2.38023e-05 3.5669e-07)
(-5.44876e-06 -2.33121e-05 3.10655e-07)
(-4.27169e-06 -2.22336e-05 2.75375e-07)
(-3.03818e-06 -2.03965e-05 2.48321e-07)
(-1.85094e-06 -1.75418e-05 2.22519e-07)
(-8.30058e-07 -1.31984e-05 1.84688e-07)
(-9.73585e-08 -6.29542e-06 9.76569e-08)
(9.65749e-08 -7.24452e-06 9.67898e-08)
(8.1792e-07 -1.51472e-05 1.8279e-07)
(1.82293e-06 -2.01127e-05 2.20708e-07)
(2.99566e-06 -2.33946e-05 2.48009e-07)
(4.22091e-06 -2.55446e-05 2.78078e-07)
(5.39884e-06 -2.68631e-05 3.18027e-07)
(6.42541e-06 -2.75429e-05 3.70507e-07)
(7.19951e-06 -2.77265e-05 4.35944e-07)
(7.62763e-06 -2.75324e-05 5.12778e-07)
(7.63292e-06 -2.70703e-05 5.97549e-07)
(7.16521e-06 -2.64483e-05 6.85003e-07)
(6.21207e-06 -2.57746e-05 7.68338e-07)
(4.80734e-06 -2.51538e-05 8.39876e-07)
(3.03403e-06 -2.46787e-05 8.9229e-07)
(1.01955e-06 -2.44198e-05 9.19878e-07)
(-1.07866e-06 -2.44158e-05 9.19903e-07)
(-3.09313e-06 -2.46666e-05 8.92377e-07)
(-4.8664e-06 -2.51335e-05 8.4003e-07)
(-6.27094e-06 -2.57456e-05 7.68586e-07)
(-7.22364e-06 -2.64102e-05 6.85398e-07)
(-7.69065e-06 -2.70229e-05 5.98132e-07)
(-7.68415e-06 -2.74757e-05 5.13563e-07)
(-7.25397e-06 -2.76606e-05 4.37018e-07)
(-6.47647e-06 -2.74685e-05 3.71876e-07)
(-5.44482e-06 -2.67818e-05 3.19715e-07)
(-4.2598e-06 -2.54596e-05 2.80049e-07)
(-3.02563e-06 -2.33109e-05 2.50206e-07)
(-1.84246e-06 -2.00371e-05 2.22997e-07)
(-8.27139e-07 -1.50895e-05 1.84894e-07)
(-9.76511e-08 -7.21759e-06 9.8001e-08)
(9.39171e-08 -8.14174e-06 9.41699e-08)
(7.88911e-07 -1.69828e-05 1.77374e-07)
(1.75547e-06 -2.25384e-05 2.14404e-07)
(2.88575e-06 -2.62421e-05 2.42379e-07)
(4.07192e-06 -2.87225e-05 2.74649e-07)
(5.22075e-06 -3.03183e-05 3.18396e-07)
(6.23299e-06 -3.12414e-05 3.76368e-07)
(7.00998e-06 -3.16432e-05 4.49221e-07)
(7.45763e-06 -3.16444e-05 5.35487e-07)
(7.49508e-06 -3.1353e-05 6.31531e-07)
(7.06611e-06 -3.08746e-05 7.31551e-07)
(6.15077e-06 -3.0315e-05 8.27787e-07)
(4.77635e-06 -2.97778e-05 9.1117e-07)
(3.0226e-06 -2.93565e-05 9.72859e-07)
(1.01824e-06 -2.91238e-05 1.00557e-06)
(-1.07351e-06 -2.91202e-05 1.00557e-06)
(-3.0775e-06 -2.93456e-05 9.72864e-07)
(-4.83051e-06 -2.97597e-05 9.11191e-07)
(-6.2038e-06 -3.02895e-05 8.27841e-07)
(-7.11773e-06 -3.08416e-05 7.317e-07)
(-7.54481e-06 -3.13126e-05 6.31878e-07)
(-7.50484e-06 -3.15968e-05 5.35998e-07)
(-7.05412e-06 -3.1589e-05 4.49929e-07)
(-6.27311e-06 -3.11814e-05 3.77258e-07)
(-5.25571e-06 -3.02541e-05 3.1947e-07)
(-4.10058e-06 -2.8657e-05 2.75903e-07)
(-2.90706e-06 -2.6179e-05 2.43785e-07)
(-1.76885e-06 -2.24826e-05 2.15862e-07)
(-7.94912e-07 -1.69411e-05 1.78683e-07)
(-9.45366e-08 -8.12285e-06 9.49313e-08)
(8.67166e-08 -8.9883e-06 8.6981e-08)
(7.22213e-07 -1.87094e-05 1.63396e-07)
(1.60519e-06 -2.48226e-05 1.97891e-07)
(2.64145e-06 -2.89371e-05 2.25524e-07)
(3.73626e-06 -3.17559e-05 2.5897e-07)
(4.80729e-06 -3.36547e-05 3.0522e-07)
(5.76471e-06 -3.48634e-05 3.67237e-07)
(6.51641e-06 -3.55396e-05 4.45894e-07)
(6.97122e-06 -3.58032e-05 5.39896e-07)
(7.04684e-06 -3.57569e-05 6.45727e-07)
(6.68153e-06 -3.54984e-05 7.57269e-07)
(5.84684e-06 -3.51248e-05 8.66028e-07)
(4.56099e-06 -3.47325e-05 9.61544e-07)
(2.89629e-06 -3.44099e-05 1.03315e-06)
(9.7771e-07 -3.42272e-05 1.07151e-06)
(-1.03006e-06 -3.4224e-05 1.07148e-06)
(-2.94797e-06 -3.44002e-05 1.03307e-06)
(-4.61144e-06 -3.47164e-05 9.61448e-07)
(-5.89541e-06 -3.51023e-05 8.65967e-07)
(-6.72773e-06 -3.54696e-05 7.57266e-07)
(-7.09032e-06 -3.57223e-05 6.45819e-07)
(-7.01156e-06 -3.5763e-05 5.40114e-07)
(-6.55307e-06 -3.54947e-05 4.46272e-07)
(-5.79705e-06 -3.48147e-05 3.67776e-07)
(-4.8346e-06 -3.36037e-05 3.0591e-07)
(-3.75791e-06 -3.17048e-05 2.59775e-07)
(-2.65695e-06 -2.88887e-05 2.26405e-07)
(-1.61457e-06 -2.47807e-05 1.98821e-07)
(-7.26199e-07 -1.86786e-05 1.6425e-07)
(-8.70611e-08 -8.97465e-06 8.75025e-08)
(7.42182e-08 -9.7389e-06 7.44932e-08)
(6.11985e-07 -2.02355e-05 1.39465e-07)
(1.35923e-06 -2.6846e-05 1.69412e-07)
(2.24139e-06 -3.13409e-05 1.95139e-07)
(3.1828e-06 -3.4492e-05 2.28035e-07)
(4.11679e-06 -3.67091e-05 2.74542e-07)
(4.96819e-06 -3.82374e-05 3.37636e-07)
(5.6564e-06 -3.92391e-05 4.18504e-07)
(6.09768e-06 -3.98302e-05 5.16331e-07)
(6.21237e-06 -4.01043e-05 6.28018e-07)
(5.93574e-06 -4.01456e-05 7.47526e-07)
(5.23129e-06 -4.00364e-05 8.65858e-07)
(4.10558e-06 -3.98581e-05 9.71368e-07)
(2.61862e-06 -3.96863e-05 1.0517e-06)
(8.85308e-07 -3.95816e-05 1.09531e-06)
(-9.35379e-07 -3.95787e-05 1.09528e-06)
(-2.66779e-06 -3.96776e-05 1.05162e-06)
(-4.15309e-06 -3.98439e-05 9.71228e-07)
(-5.27645e-06 -4.00166e-05 8.65698e-07)
(-5.97809e-06 -4.01207e-05 7.47407e-07)
(-6.25139e-06 -4.00747e-05 6.28006e-07)
(-6.13297e-06 -3.97965e-05 5.16415e-07)
(-5.68758e-06 -3.92018e-05 4.1868e-07)
(-4.99494e-06 -3.81977e-05 3.37927e-07)
(-4.13872e-06 -3.66681e-05 2.74947e-07)
(-3.19965e-06 -3.44516e-05 2.28543e-07)
(-2.25306e-06 -3.13032e-05 1.95724e-07)
(-1.36602e-06 -2.6814e-05 1.7002e-07)
(-6.14707e-07 -2.02123e-05 1.40053e-07)
(-7.4392e-08 -9.7288e-06 7.48756e-08)
(5.58371e-08 -1.03424e-05 5.61105e-08)
(4.54405e-07 -2.1458e-05 1.04491e-07)
(1.00942e-06 -2.84732e-05 1.27487e-07)
(1.67177e-06 -3.32942e-05 1.49284e-07)
(2.39069e-06 -3.67517e-05 1.79052e-07)
(3.12009e-06 -3.92838e-05 2.22226e-07)
(3.80464e-06 -4.1148e-05 2.81688e-07)
(4.381e-06 -4.25089e-05 3.58882e-07)
(4.77892e-06 -4.34762e-05 4.53504e-07)
(4.9266e-06 -4.41311e-05 5.6301e-07)
(4.7605e-06 -4.45404e-05 6.81952e-07)
(4.23827e-06 -4.47652e-05 8.01663e-07)
(3.35433e-06 -4.48645e-05 9.1007e-07)
(2.15188e-06 -4.48922e-05 9.93766e-07)
(7.27677e-07 -4.48919e-05 1.03977e-06)
(-7.76068e-07 -4.48895e-05 1.0397e-06)
(-2.19928e-06 -4.48847e-05 9.93642e-07)
(-3.39976e-06 -4.4852e-05 9.0987e-07)
(-4.28093e-06 -4.4748e-05 8.01464e-07)
(-4.79987e-06 -4.45189e-05 6.81755e-07)
(-4.96219e-06 -4.41058e-05 5.62875e-07)
(-4.8105e-06 -4.34477e-05 4.53411e-07)
(-4.40828e-06 -4.24777e-05 3.58889e-07)
(-3.82742e-06 -4.11153e-05 2.81801e-07)
(-3.13827e-06 -3.92505e-05 2.22419e-07)
(-2.40423e-06 -3.67195e-05 1.79332e-07)
(-1.6808e-06 -3.32646e-05 1.49636e-07)
(-1.01441e-06 -2.84482e-05 1.27872e-07)
(-4.56262e-07 -2.14402e-05 1.04903e-07)
(-5.58989e-08 -1.03348e-05 5.64199e-08)
(3.14442e-08 -1.07447e-05 3.17445e-08)
(2.49242e-07 -2.22688e-05 5.8291e-08)
(5.55523e-07 -2.95614e-05 7.18079e-08)
(9.32054e-07 -3.46275e-05 8.72907e-08)
(1.35793e-06 -3.83398e-05 1.10758e-07)
(1.81223e-06 -4.11572e-05 1.46122e-07)
(2.26449e-06 -4.33453e-05 1.95744e-07)
(2.67429e-06 -4.50678e-05 2.61232e-07)
(2.9913e-06 -4.6427e-05 3.42817e-07)
(3.15825e-06 -4.74896e-05 4.38825e-07)
(3.11907e-06 -4.83022e-05 5.44832e-07)
(2.82979e-06 -4.89e-05 6.53214e-07)
(2.27332e-06 -4.93146e-05 7.52757e-07)
(1.47249e-06 -4.95723e-05 8.30603e-07)
(4.96415e-07 -4.9694e-05 8.73808e-07)
(-5.43472e-07 -4.96921e-05 8.73745e-07)
(-1.51839e-06 -4.9566e-05 8.30472e-07)
(-2.31703e-06 -4.93038e-05 7.52518e-07)
(-2.87051e-06 -4.88852e-05 6.52927e-07)
(-3.15628e-06 -4.82836e-05 5.4451e-07)
(-3.19143e-06 -4.74679e-05 4.38588e-07)
(-3.0202e-06 -4.64026e-05 3.4262e-07)
(-2.69876e-06 -4.50416e-05 2.61133e-07)
(-2.28445e-06 -4.33181e-05 1.95727e-07)
(-1.82773e-06 -4.11299e-05 1.46159e-07)
(-1.36913e-06 -3.83137e-05 1.10883e-07)
(-9.39285e-07 -3.46038e-05 8.74847e-08)
(-5.59344e-07 -2.95417e-05 7.20925e-08)
(-2.50553e-07 -2.22549e-05 5.86001e-08)
(-3.1452e-08 -1.07388e-05 3.20028e-08)
(1.58999e-09 -1.08943e-05 1.86218e-09)
(1.45571e-09 -2.25652e-05 1.77254e-09)
(8.63059e-09 -2.99746e-05 3.38402e-09)
(3.98568e-08 -3.51763e-05 1.00525e-08)
(1.08402e-07 -3.90632e-05 2.37898e-08)
(2.2167e-07 -4.21042e-05 4.63161e-08)
(3.78679e-07 -4.4568e-05 7.93242e-08)
(5.67319e-07 -4.66143e-05 1.24148e-07)
(7.63338e-07 -4.83359e-05 1.81404e-07)
(9.31253e-07 -4.97841e-05 2.50457e-07)
(1.02905e-06 -5.09841e-05 3.28266e-07)
(1.01657e-06 -5.19459e-05 4.09464e-07)
(8.67583e-07 -5.2671e-05 4.85259e-07)
(5.81668e-07 -5.31569e-05 5.45373e-07)
(1.91543e-07 -5.34001e-05 5.79099e-07)
(-2.37426e-07 -5.33983e-05 5.79023e-07)
(-6.26253e-07 -5.3151e-05 5.45184e-07)
(-9.09908e-07 -5.26613e-05 4.8494e-07)
(-1.05577e-06 -5.19329e-05 4.09103e-07)
(-1.06444e-06 -5.09679e-05 3.27889e-07)
(-9.62478e-07 -4.97653e-05 2.50093e-07)
(-7.90216e-07 -4.8315e-05 1.81102e-07)
(-5.89733e-07 -4.65921e-05 1.23891e-07)
(-3.96642e-07 -4.45452e-05 7.91687e-08)
(-2.35307e-07 -4.20815e-05 4.62427e-08)
(-1.18001e-07 -3.90418e-05 2.37614e-08)
(-4.58715e-08 -3.51571e-05 1.01255e-08)
(-1.16469e-08 -2.99589e-05 3.5455e-09)
(-2.3539e-09 -2.25542e-05 2.00134e-09)
(-1.52908e-09 -1.08896e-05 2.10042e-09)
(-3.25768e-08 -1.07478e-05 -3.2296e-08)
(-2.78347e-07 -2.22617e-05 -6.26696e-08)
(-6.07353e-07 -2.95994e-05 -7.48882e-08)
(-9.65797e-07 -3.48018e-05 -7.92349e-08)
(-1.30376e-06 -3.87565e-05 -7.83442e-08)
(-1.58324e-06 -4.19283e-05 -7.30772e-08)
(-1.77257e-06 -4.4582e-05 -6.28546e-08)
(-1.85107e-06 -4.68703e-05 -4.67986e-08)
(-1.8114e-06 -4.88754e-05 -2.40061e-08)
(-1.66133e-06 -5.06342e-05 5.94926e-09)
(-1.4222e-06 -5.21521e-05 4.21471e-08)
(-1.12514e-06 -5.34152e-05 8.21807e-08)
(-8.03056e-07 -5.43989e-05 1.21185e-07)
(-4.81952e-07 -5.50755e-05 1.53188e-07)
(-1.73318e-07 -5.54204e-05 1.71543e-07)
(1.28873e-07 -5.54186e-05 1.71436e-07)
(4.38763e-07 -5.50701e-05 1.52948e-07)
(7.622e-07 -5.43901e-05 1.20836e-07)
(1.08745e-06 -5.34033e-05 8.1755e-08)
(1.38829e-06 -5.21374e-05 4.17227e-08)
(1.63159e-06 -5.06175e-05 5.52577e-09)
(1.78604e-06 -4.88571e-05 -2.43747e-08)
(1.83017e-06 -4.68511e-05 -4.71197e-08)
(1.75601e-06 -4.45626e-05 -6.30902e-08)
(1.57087e-06 -4.19093e-05 -7.32242e-08)
(1.29525e-06 -3.87386e-05 -7.84162e-08)
(9.60661e-07 -3.4786e-05 -7.92182e-08)
(6.04912e-07 -2.95866e-05 -7.47908e-08)
(2.77694e-07 -2.22528e-05 -6.24817e-08)
(3.26615e-08 -1.0744e-05 -3.20814e-08)
(-6.89463e-08 -1.02771e-05 -6.86997e-08)
(-5.73455e-07 -2.13038e-05 -1.31314e-07)
(-1.25602e-06 -2.83632e-05 -1.58498e-07)
(-2.02588e-06 -3.34135e-05 -1.75259e-07)
(-2.796e-06 -3.73075e-05 -1.89361e-07)
(-3.49708e-06 -4.04918e-05 -2.04581e-07)
(-4.06322e-06 -4.32188e-05 -2.21723e-07)
(-4.43842e-06 -4.56312e-05 -2.40394e-07)
(-4.57999e-06 -4.78008e-05 -2.59386e-07)
(-4.46328e-06 -4.97509e-05 -2.77171e-07)
(-4.08438e-06 -5.14712e-05 -2.92234e-07)
(-3.46163e-06 -5.29302e-05 -3.03376e-07)
(-2.63267e-06 -5.40836e-05 -3.10379e-07)
(-1.6501e-06 -5.48858e-05 -3.13714e-07)
(-5.74641e-07 -5.52977e-05 -3.14726e-07)
(5.32007e-07 -5.5296e-05 -3.14817e-07)
(1.60865e-06 -5.48809e-05 -3.1396e-07)
(2.59341e-06 -5.40757e-05 -3.10762e-07)
(3.42541e-06 -5.29193e-05 -3.03796e-07)
(4.0519e-06 -5.14581e-05 -2.92662e-07)
(4.4349e-06 -4.9736e-05 -2.7763e-07)
(4.55587e-06 -4.77848e-05 -2.59802e-07)
(4.41865e-06 -4.56145e-05 -2.40723e-07)
(4.04773e-06 -4.32021e-05 -2.22021e-07)
(3.4856e-06 -4.04757e-05 -2.04789e-07)
(2.78823e-06 -3.72927e-05 -1.89461e-07)
(2.02132e-06 -3.34005e-05 -1.7529e-07)
(1.25393e-06 -2.83527e-05 -1.58439e-07)
(5.72976e-07 -2.12966e-05 -1.31138e-07)
(6.9063e-08 -1.02741e-05 -6.8482e-08)
(-1.04888e-07 -9.47595e-06 -1.04651e-07)
(-8.62326e-07 -1.96808e-05 -1.99079e-07)
(-1.89029e-06 -2.62507e-05 -2.41182e-07)
(-3.06405e-06 -3.09885e-05 -2.70773e-07)
(-4.26198e-06 -3.46818e-05 -3.00736e-07)
(-5.38458e-06 -3.77442e-05 -3.37784e-07)
(-6.3317e-06 -4.04092e-05 -3.8406e-07)
(-7.01127e-06 -4.28062e-05 -4.39816e-07)
(-7.34391e-06 -4.49964e-05 -5.03536e-07)
(-7.27051e-06 -4.69922e-05 -5.72421e-07)
(-6.76025e-06 -4.87735e-05 -6.42419e-07)
(-5.81649e-06 -5.02979e-05 -7.08282e-07)
(-4.48043e-06 -5.1511e-05 -7.64489e-07)
(-2.83137e-06 -5.23586e-05 -8.05568e-07)
(-9.80559e-07 -5.27949e-05 -8.27259e-07)
(9.40154e-07 -5.27933e-05 -8.2732e-07)
(2.79205e-06 -5.23542e-05 -8.05728e-07)
(4.44323e-06 -5.15038e-05 -7.64755e-07)
(5.78208e-06 -5.0288e-05 -7.08631e-07)
(6.72931e-06 -4.87617e-05 -6.42789e-07)
(7.2434e-06 -4.69787e-05 -5.72794e-07)
(7.32087e-06 -4.49821e-05 -5.0391e-07)
(6.99246e-06 -4.27918e-05 -4.40131e-07)
(6.317e-06 -4.03948e-05 -3.84346e-07)
(5.37376e-06 -3.77305e-05 -3.38011e-07)
(4.25473e-06 -3.46694e-05 -3.00898e-07)
(3.05985e-06 -3.09779e-05 -2.70847e-07)
(1.88839e-06 -2.62422e-05 -2.41153e-07)
(8.61914e-07 -1.9675e-05 -1.9892e-07)
(1.05005e-07 -9.47354e-06 -1.04442e-07)
(-1.37132e-07 -8.36425e-06 -1.3692e-07)
(-1.11932e-06 -1.74346e-05 -2.59854e-07)
(-2.45542e-06 -2.33157e-05 -3.15505e-07)
(-3.99328e-06 -2.75858e-05 -3.57019e-07)
(-5.58153e-06 -3.09395e-05 -4.02017e-07)
(-7.0934e-06 -3.37442e-05 -4.59992e-07)
(-8.39669e-06 -3.62078e-05 -5.34288e-07)
(-9.36454e-06 -3.84448e-05 -6.25657e-07)
(-9.88195e-06 -4.05063e-05 -7.32379e-07)
(-9.85689e-06 -4.23985e-05 -8.50275e-07)
(-9.23176e-06 -4.4096e-05 -9.72685e-07)
(-7.9953e-06 -4.55534e-05 -1.09058e-06)
(-6.1921e-06 -4.67156e-05 -1.1934e-06)
(-3.92639e-06 -4.75277e-05 -1.27001e-06)
(-1.35674e-06 -4.79457e-05 -1.31103e-06)
(1.31926e-06 -4.79442e-05 -1.31108e-06)
(3.88977e-06 -4.75234e-05 -1.27017e-06)
(6.15722e-06 -4.67087e-05 -1.19361e-06)
(7.96289e-06 -4.55444e-05 -1.09084e-06)
(9.20246e-06 -4.40854e-05 -9.73002e-07)
(9.83111e-06 -4.23867e-05 -8.50596e-07)
(9.86004e-06 -4.0494e-05 -7.32699e-07)
(9.34658e-06 -3.84324e-05 -6.25974e-07)
(8.38261e-06 -3.61955e-05 -5.34566e-07)
(7.08308e-06 -3.37327e-05 -4.60221e-07)
(5.57461e-06 -3.09292e-05 -4.02191e-07)
(3.98927e-06 -2.75771e-05 -3.57068e-07)
(2.45371e-06 -2.33088e-05 -3.15473e-07)
(1.119e-06 -1.74299e-05 -2.59713e-07)
(1.37258e-07 -8.36234e-06 -1.36716e-07)
(-1.62009e-07 -6.99224e-06 -1.61823e-07)
(-1.31683e-06 -1.46664e-05 -3.06675e-07)
(-2.8934e-06 -1.96892e-05 -3.72713e-07)
(-4.72225e-06 -2.33554e-05 -4.23629e-07)
(-6.63021e-06 -2.62441e-05 -4.80978e-07)
(-8.46756e-06 -2.86665e-05 -5.56493e-07)
(-1.0074e-05 -3.08016e-05 -6.54659e-07)
(-1.12914e-05 -3.27472e-05 -7.76619e-07)
(-1.19732e-05 -3.45461e-05 -9.20198e-07)
(-1.19976e-05 -3.6201e-05 -1.0799e-06)
(-1.12838e-05 -3.76869e-05 -1.24682e-06)
(-9.80803e-06 -3.89622e-05 -1.40857e-06)
(-7.61774e-06 -3.99774e-05 -1.55026e-06)
(-4.8386e-06 -4.06858e-05 -1.6563e-06)
(-1.66979e-06 -4.10496e-05 -1.71331e-06)
(1.63562e-06 -4.10483e-05 -1.71332e-06)
(4.80509e-06 -4.0682e-05 -1.65637e-06)
(7.58567e-06 -3.99715e-05 -1.55037e-06)
(9.77803e-06 -3.89542e-05 -1.40872e-06)
(1.12565e-05 -3.76776e-05 -1.24702e-06)
(1.19734e-05 -3.61908e-05 -1.08012e-06)
(1.19524e-05 -3.45355e-05 -9.20447e-07)
(1.12743e-05 -3.27366e-05 -7.76868e-07)
(1.00605e-05 -3.07914e-05 -6.54881e-07)
(8.45772e-06 -2.86571e-05 -5.56679e-07)
(6.62361e-06 -2.62357e-05 -4.81151e-07)
(4.71843e-06 -2.33484e-05 -4.23701e-07)
(2.89175e-06 -1.96837e-05 -3.72692e-07)
(1.31651e-06 -1.46628e-05 -3.06541e-07)
(1.62126e-07 -6.99084e-06 -1.61629e-07)
(-1.75464e-07 -5.44267e-06 -1.75299e-07)
(-1.42602e-06 -1.15396e-05 -3.31734e-07)
(-3.14622e-06 -1.55808e-05 -4.02898e-07)
(-5.16234e-06 -1.85389e-05 -4.58664e-07)
(-7.28949e-06 -2.08639e-05 -5.23409e-07)
(-9.36035e-06 -2.28055e-05 -6.10521e-07)
(-1.11918e-05 -2.45113e-05 -7.25408e-07)
(-1.26005e-05 -2.60628e-05 -8.69381e-07)
(-1.34142e-05 -2.74956e-05 -1.03984e-06)
(-1.34878e-05 -2.88118e-05 -1.23016e-06)
(-1.27223e-05 -2.99911e-05 -1.42955e-06)
(-1.10844e-05 -3.09999e-05 -1.62305e-06)
(-8.62418e-06 -3.18002e-05 -1.79272e-06)
(-5.48332e-06 -3.23564e-05 -1.91972e-06)
(-1.89078e-06 -3.26413e-05 -1.98798e-06)
(1.86036e-06 -3.26402e-05 -1.98797e-06)
(5.45338e-06 -3.23532e-05 -1.91972e-06)